#------------------------------------------------------------------------------
#$Date: 2023-03-26 11:09:57 +0300 (Sun, 26 Mar 2023) $
#$Revision: 282068 $
#$URL: file:///home/coder/svn-repositories/cod/cif/1/00/00/1000014.cif $
#------------------------------------------------------------------------------
#
# This file is available in the Crystallography Open Database (COD),
# http://www.crystallography.net/
#
# All data on this site have been placed in the public domain by the
# contributors.
#
data_1000014
loop_
_publ_author_name
'Thompson, R. M.'
'Downs, R. T.'
_publ_section_title
;
 The crystal structure of diopside at pressure to 10 GPa
 Sample: P = 8.88 GPa
;
_journal_name_full               'American Mineralogist'
_journal_page_first              177
_journal_page_last               186
_journal_paper_doi               10.2138/am.2008.2684
_journal_volume                  93
_journal_year                    2008
_chemical_compound_source        'DeKalb, New York'
_chemical_formula_structural     CaMg(Si2O6)
_chemical_formula_sum            'Ca Mg O6 Si2'
_chemical_name_mineral           Diopside
_space_group_crystal_system      monoclinic
_space_group_IT_number           15
_space_group_name_Hall           '-C 2yc'
_space_group_name_H-M_alt        'C 1 2/c 1'
_symmetry_space_group_name_H-M   'C 1 2/c 1'
_cell_angle_alpha                90.00000
_cell_angle_beta                 105.10600
_cell_angle_gamma                90.00000
_cell_length_a                   9.53910
_cell_length_b                   8.67520
_cell_length_c                   5.13850
_cell_volume                     410.536
_database_code_amcsd             0004502
_diffrn_ambient_pressure         8.88e+06
_exptl_crystal_density_diffrn    3.504
_cod_original_sg_symbol_H-M      C2/c
_cod_database_code               1000014
loop_
_space_group_symop_id
_space_group_symop_operation_xyz
1 x,y,z
2 -x,y,-z+1/2
3 -x,-y,-z
4 x,-y,z+1/2
5 x+1/2,y+1/2,z
6 -x+1/2,y+1/2,-z+1/2
7 -x+1/2,-y+1/2,-z
8 x+1/2,-y+1/2,z+1/2
loop_
_atom_site_label
_atom_site_fract_x
_atom_site_fract_y
_atom_site_fract_z
_atom_site_U_iso_or_equiv
MgM1 0.00000 0.91042 0.25000 0.00519
CaM2 0.00000 0.30559 0.25000 0.00874
Si 0.28632 0.09520 0.22734 0.00633
O1 0.11525 0.08839 0.14192 0.00735
O2 0.35930 0.25638 0.32204 0.00899
O3 0.35290 0.02239 0.98742 0.00849
loop_
_cod_related_entry_id
_cod_related_entry_database
_cod_related_entry_code
1 AMCSD 0004502
