#------------------------------------------------------------------------------
#$Date: 2016-02-14 16:26:36 +0200 (Sun, 14 Feb 2016) $
#$Revision: 176435 $
#$URL: svn://www.crystallography.net/cod/cif/1/00/61/1006119.cif $
#------------------------------------------------------------------------------
#
# This file is available in the Crystallography Open Database (COD),
# http://www.crystallography.net/
#
# All data on this site have been placed in the public domain by the
# contributors.
#
data_1006119
loop_
_publ_author_name
'Schobinger-Papamantellos, P'
'Rodriguez-Carvajal, J'
'Buschow, K H J'
_publ_section_title
;
Atomic disorder and canted ferrimagnetism in the Tb Cr6 Ge6 compound. A
neutron study
;
_journal_coden_ASTM              JALCEU
_journal_name_full               'Journal of Alloys Compd.'
_journal_page_first              67
_journal_page_last               73
_journal_paper_doi               10.1016/S0925-8388(96)02872-1
_journal_volume                  255
_journal_year                    1997
_chemical_formula_structural     'Tb0.951 Cr6 Ge5.992'
_chemical_formula_sum            'Cr6 Ge5.992 Tb0.951'
_chemical_name_systematic        'Terbium chromium germanide (0.95/6/5.99)'
_space_group_IT_number           191
_symmetry_cell_setting           hexagonal
_symmetry_Int_Tables_number      191
_symmetry_space_group_name_Hall  '-P 6 2'
_symmetry_space_group_name_H-M   'P 6/m m m'
_cell_angle_alpha                90
_cell_angle_beta                 90
_cell_angle_gamma                120
_cell_formula_units_Z            1
_cell_length_a                   5.1607(7)
_cell_length_b                   5.1607(7)
_cell_length_c                   8.2822(9)
_cell_volume                     191.0
_refine_ls_R_factor_all          0.036
_cod_original_formula_sum        'Cr6 Ge5.992 Tb.951'
_cod_database_code               1006119
loop_
_symmetry_equiv_pos_as_xyz
x,y,z
-y,x-y,z
y-x,-x,z
y,x,z
x-y,-y,z
-x,y-x,z
-x,-y,z
y,y-x,z
x-y,x,z
-y,-x,z
y-x,y,z
x,x-y,z
-x,-y,-z
y,y-x,-z
x-y,x,-z
-y,-x,-z
y-x,y,-z
x,x-y,-z
x,y,-z
-y,x-y,-z
y-x,-x,-z
y,x,-z
x-y,-y,-z
-x,y-x,-z
loop_
_atom_site_label
_atom_site_type_symbol
_atom_site_symmetry_multiplicity
_atom_site_Wyckoff_symbol
_atom_site_fract_x
_atom_site_fract_y
_atom_site_fract_z
_atom_site_occupancy
_atom_site_attached_hydrogens
_atom_site_calc_flag
Tb1 Tb0 1 a 0. 0. 0. 0.816 0 d
Tb2 Tb0 1 b 0. 0. 0.5 0.135(2) 0 d
Ge1 Ge0 2 d 0.3333 0.6667 0.5 1. 0 d
Ge2 Ge0 2 c 0.3333 0.6667 0. 1. 0 d
Ge3 Ge0 2 e 0. 0. 0.3458(5) 0.888(1) 0 d
Ge4 Ge0 2 e 0. 0. 0.8458(5) 0.108(1) 0 d
Cr1 Cr0 6 i 0.5 0. 0.2533(6) 1. 0 d
loop_
_atom_type_symbol
_atom_type_oxidation_number
Tb0 0.000
Ge0 0.000
Cr0 0.000
