#------------------------------------------------------------------------------
#$Date: 2016-09-13 15:04:05 +0300 (Tue, 13 Sep 2016) $
#$Revision: 186542 $
#$URL: file:///home/coder/svn-repositories/cod/cif/1/00/60/1006099.cif $
#------------------------------------------------------------------------------
#
# This file is available in the Crystallography Open Database (COD),
# http://www.crystallography.net/
#
# All data on this site have been placed in the public domain by the
# contributors.
#
data_1006099
loop_
_publ_author_name
'Gabas, M'
'Palacio, F'
'Rodriguez-Carvajal, J'
'Visser, D'
_publ_section_title
;
Magnetic structures of the three-dimensional Heisenberg
antiferromagnets K2 Fe Cl5 . (D2 O) and Rb2 Fe Cl5 . (D2
O)
;
_journal_coden_ASTM              JCOMEL
_journal_name_full               'Journal of Physics: Condensed Matter'
_journal_page_first              4725
_journal_page_last               4738
_journal_paper_doi               10.1088/0953-8984/7/24/012
_journal_volume                  7
_journal_year                    1995
_chemical_formula_structural     'K2 (Fe Cl5 (D2 O))'
_chemical_formula_sum            'Cl5 D2 Fe K2 O'
_chemical_name_systematic
;
Potassium dideuteriohydratopentachloroferrate(III)
;
_space_group_IT_number           62
_symmetry_cell_setting           orthorhombic
_symmetry_Int_Tables_number      62
_symmetry_space_group_name_Hall  '-P 2ac 2n'
_symmetry_space_group_name_H-M   'P n m a'
_cell_angle_alpha                90
_cell_angle_beta                 90
_cell_angle_gamma                90
_cell_formula_units_Z            4
_cell_length_a                   13.5862(9)
_cell_length_b                   9.7087(5)
_cell_length_c                   7.0177(5)
_cell_volume                     925.7
_refine_ls_R_factor_all          0.033
_cod_original_formula_sum        'D2 Cl5 Fe K2 O'
_cod_database_code               1006099
loop_
_symmetry_equiv_pos_as_xyz
x,y,z
1/2+x,1/2-y,1/2-z
-x,1/2+y,-z
1/2-x,-y,1/2+z
-x,-y,-z
1/2-x,1/2+y,1/2+z
x,1/2-y,z
1/2+x,y,1/2-z
loop_
_atom_site_label
_atom_site_type_symbol
_atom_site_symmetry_multiplicity
_atom_site_Wyckoff_symbol
_atom_site_fract_x
_atom_site_fract_y
_atom_site_fract_z
_atom_site_occupancy
_atom_site_attached_hydrogens
_atom_site_calc_flag
K1 K1+ 8 d 0.3502(10) 0.5125(23) 0.1357(20) 1. 0 d
Fe1 Fe3+ 4 c 0.1150(6) 0.25 0.1917(13) 1. 0 d
Cl1 Cl1- 4 c 0.2466(6) 0.25 0.3870(12) 1. 0 d
Cl2 Cl1- 4 c 0.2213(7) 0.25 -0.0847(12) 1. 0 d
Cl3 Cl1- 4 c 0.0042(6) 0.25 0.4512(12) 1. 0 d
Cl4 Cl1- 8 d 0.10605(4) 0.4907(6) 0.1785(79) 1. 0 d
O1 O2- 4 c -0.0063(12) 0.25 0.0151(24) 1. 0 d
D1 D1+ 8 d -0.0372(7) 0.3315(11) -0.0450(15) 1. 0 d
loop_
_atom_type_symbol
_atom_type_oxidation_number
K1+ 1.000
Fe3+ 3.000
Cl1- -1.000
O2- -2.000
D1+ 1.000
