#------------------------------------------------------------------------------
#$Date: 2015-01-27 21:58:39 +0200 (Tue, 27 Jan 2015) $
#$Revision: 130149 $
#$URL: svn://www.crystallography.net/cod/cif/1/00/83/1008339.cif $
#------------------------------------------------------------------------------
#
# This file is available in the Crystallography Open Database (COD),
# http://www.crystallography.net/
#
# All data on this site have been placed in the public domain by the
# contributors.
#
data_1008339
loop_
_publ_author_name
'Bronger, W'
'Kyas, A'
'Muller, P'
_publ_section_title
;
The antiferromagnetic structures of K Fe S~2~, Rb Fe S~2~, K Fe Se~2~,
and Rb Fe Se~2~ and the correlation between magnetic moments and
crystal field calculations
;
_journal_coden_ASTM              JSSCBI
_journal_name_full               'Journal of Solid State Chemistry'
_journal_page_first              262
_journal_page_last               270
_journal_paper_doi               10.1016/0022-4596(87)90065-X
_journal_volume                  70
_journal_year                    1987
_chemical_formula_structural     'Rb Fe S2'
_chemical_formula_sum            'Fe Rb S2'
_chemical_name_systematic        'Rubidium iron(III) sulfide'
_space_group_IT_number           15
_symmetry_cell_setting           monoclinic
_symmetry_Int_Tables_number      15
_symmetry_space_group_name_Hall  '-C 2yc'
_symmetry_space_group_name_H-M   'C 1 2/c 1'
_cell_angle_alpha                90
_cell_angle_beta                 112.0(1)
_cell_angle_gamma                90
_cell_formula_units_Z            4
_cell_length_a                   7.223(3)
_cell_length_b                   11.725(3)
_cell_length_c                   5.430(2)
_cell_volume                     426.4
_refine_ls_R_factor_all          0.051
_cod_database_code               1008339
loop_
_symmetry_equiv_pos_as_xyz
x,y,z
-x,y,1/2-z
-x,-y,-z
x,-y,1/2+z
1/2+x,1/2+y,z
1/2-x,1/2+y,1/2-z
1/2-x,1/2-y,-z
1/2+x,1/2-y,1/2+z
loop_
_atom_site_aniso_label
_atom_site_aniso_U_11
_atom_site_aniso_U_12
_atom_site_aniso_U_13
_atom_site_aniso_U_22
_atom_site_aniso_U_23
_atom_site_aniso_U_33
Fe1 0.016(1) 0. 0.0053(7) 0.023(1) 0. 0.0079(8)
Rb1 0.0237(8) 0. 0.0056(6) 0.030(1) 0. 0.0210(7)
S1 0.025(1) -0.008(1) 0.007(1) 0.025(2) -0.002(1) 0.016(1)
loop_
_atom_site_label
_atom_site_type_symbol
_atom_site_symmetry_multiplicity
_atom_site_Wyckoff_symbol
_atom_site_fract_x
_atom_site_fract_y
_atom_site_fract_z
_atom_site_occupancy
_atom_site_attached_hydrogens
_atom_site_calc_flag
Fe1 Fe3+ 4 e 0. 0.9976(3) 0.25 1. 0 d
Rb1 Rb1+ 4 e 0. 0.3553(2) 0.25 1. 0 d
S1 S2- 8 f 0.1905(6) 0.1061(4) 0.0981(7) 1. 0 d
loop_
_atom_type_symbol
_atom_type_oxidation_number
Fe3+ 3.000
Rb1+ 1.000
S2- -2.000
