#------------------------------------------------------------------------------
#$Date: 2015-01-27 21:58:39 +0200 (Tue, 27 Jan 2015) $
#$Revision: 130149 $
#$URL: svn://www.crystallography.net/cod/cif/1/00/89/1008994.cif $
#------------------------------------------------------------------------------
#
# This file is available in the Crystallography Open Database (COD),
# http://www.crystallography.net/
#
# All data on this site have been placed in the public domain by the
# contributors.
#
data_1008994
loop_
_publ_author_name
'Dalmas de Reotier, P'
'Fruchart, D'
'Pontonnier, L'
'Vaillant, F'
'Wolfers, P'
'Yaouanc, A'
'Coey, J M D'
'Fruchart, R'
'L'Heritier, P'
_publ_section_title
;
Structural and magnetic properties of RE2 Fe14 B H(D)x; RE= Y, Ce, Er
;
_journal_coden_ASTM              JCOMAH
_journal_name_full               'Journal of the Less-Common Metals'
_journal_page_first              133
_journal_page_last               144
_journal_paper_doi               10.1016/0022-5088(87)90040-3
_journal_volume                  129
_journal_year                    1987
_chemical_formula_structural     'Ce2 Fe14 B'
_chemical_formula_sum            'B Ce2 Fe14'
_chemical_name_systematic        'Cerium iron boride (2/14/1)'
_space_group_IT_number           136
_symmetry_cell_setting           tetragonal
_symmetry_Int_Tables_number      136
_symmetry_space_group_name_Hall  '-P 4n 2n'
_symmetry_space_group_name_H-M   'P 42/m n m'
_cell_angle_alpha                90
_cell_angle_beta                 90
_cell_angle_gamma                90
_cell_formula_units_Z            4
_cell_length_a                   8.7440(5)
_cell_length_b                   8.744
_cell_length_c                   12.072(1)
_cell_volume                     923.0
_refine_ls_R_factor_all          0.1
_cod_database_code               1008994
loop_
_symmetry_equiv_pos_as_xyz
x,y,z
-x,-y,z
1/2+x,1/2-y,1/2+z
1/2-x,1/2+y,1/2+z
-x,-y,-z
x,y,-z
1/2-x,1/2+y,1/2-z
1/2+x,1/2-y,1/2-z
y,x,z
-y,-x,z
1/2-y,1/2+x,1/2+z
1/2+y,1/2-x,1/2+z
-y,-x,-z
y,x,-z
1/2+y,1/2-x,1/2-z
1/2-y,1/2+x,1/2-z
loop_
_atom_site_label
_atom_site_type_symbol
_atom_site_symmetry_multiplicity
_atom_site_Wyckoff_symbol
_atom_site_fract_x
_atom_site_fract_y
_atom_site_fract_z
_atom_site_occupancy
_atom_site_attached_hydrogens
_atom_site_calc_flag
Ce1 Ce0 4 f 0.148(7) 0.148 0. 1. 0 d
Ce2 Ce0 4 g 0.713(5) 0.287 0. 1. 0 d
Fe1 Fe0 4 c 0. 0.5 0. 1. 0 d
Fe2 Fe0 4 e 0. 0. 0.38(2) 1. 0 d
Fe3 Fe0 8 j 0.399(3) 0.399 0.304(7) 1. 0 d
Fe4 Fe0 8 j 0.185(4) 0.185 0.253(4) 1. 0 d
Fe5 Fe0 16 k 0.727(4) 0.063(5) 0.374(2) 1. 0 d
Fe6 Fe0 16 k 0.463(3) 0.135(5) 0.316(4) 1. 0 d
B1 B0 4 f 0.372(2) 0.372 0. 1. 0 d
loop_
_atom_type_symbol
_atom_type_oxidation_number
Ce0 0.000
Fe0 0.000
B0 0.000
