#------------------------------------------------------------------------------
#$Date: 2016-02-14 16:26:36 +0200 (Sun, 14 Feb 2016) $
#$Revision: 176435 $
#$URL: svn://www.crystallography.net/cod/cif/1/00/81/1008114.cif $
#------------------------------------------------------------------------------
#
# This file is available in the Crystallography Open Database (COD),
# http://www.crystallography.net/
#
# All data on this site have been placed in the public domain by the
# contributors.
#
data_1008114
loop_
_publ_author_name
'Blum, P'
'Bertaut, F'
_publ_section_title
;
Contribution a l'Etude des Borures a Teneur Elevee en Bore
;
_journal_coden_ASTM              ACCRA9
_journal_name_full               'Acta Crystallographica (1,1948-23,1967)'
_journal_page_first              81
_journal_page_last               86
_journal_paper_doi               10.1107/S0365110X54000151
_journal_volume                  7
_journal_year                    1954
_chemical_formula_structural     'Na.77 Th.23 B6'
_chemical_formula_sum            'B6 Na0.77 Th0.23'
_chemical_name_systematic        'Sodium thorium boride (.77/.23/6)'
_space_group_IT_number           221
_symmetry_cell_setting           cubic
_symmetry_Int_Tables_number      221
_symmetry_space_group_name_Hall  '-P 4 2 3'
_symmetry_space_group_name_H-M   'P m -3 m'
_cell_angle_alpha                90
_cell_angle_beta                 90
_cell_angle_gamma                90
_cell_formula_units_Z            1
_cell_length_a                   4.151
_cell_length_b                   4.151
_cell_length_c                   4.151
_cell_volume                     71.5
_cod_original_formula_sum        'B6 Na.77 Th.23'
_cod_database_code               1008114
loop_
_symmetry_equiv_pos_as_xyz
x,y,z
y,z,x
z,x,y
x,z,y
y,x,z
z,y,x
x,-y,-z
y,-z,-x
z,-x,-y
x,-z,-y
y,-x,-z
z,-y,-x
-x,y,-z
-y,z,-x
-z,x,-y
-x,z,-y
-y,x,-z
-z,y,-x
-x,-y,z
-y,-z,x
-z,-x,y
-x,-z,y
-y,-x,z
-z,-y,x
-x,-y,-z
-y,-z,-x
-z,-x,-y
-x,-z,-y
-y,-x,-z
-z,-y,-x
-x,y,z
-y,z,x
-z,x,y
-x,z,y
-y,x,z
-z,y,x
x,-y,z
y,-z,x
z,-x,y
x,-z,y
y,-x,z
z,-y,x
x,y,-z
y,z,-x
z,x,-y
x,z,-y
y,x,-z
z,y,-x
loop_
_atom_site_label
_atom_site_type_symbol
_atom_site_symmetry_multiplicity
_atom_site_Wyckoff_symbol
_atom_site_fract_x
_atom_site_fract_y
_atom_site_fract_z
_atom_site_occupancy
_atom_site_attached_hydrogens
_atom_site_calc_flag
Na1 Na0 1 b 0.5 0.5 0.5 0.77 0 d
Th1 Th0 1 b 0.5 0.5 0.5 0.23 0 d
B1 B0 6 e 0.294 0. 0. 1. 0 d
loop_
_atom_type_symbol
_atom_type_oxidation_number
Na0 0.000
Th0 0.000
B0 0.000
