#------------------------------------------------------------------------------
#$Date: 2015-01-27 21:58:39 +0200 (Tue, 27 Jan 2015) $
#$Revision: 130149 $
#$URL: svn://www.crystallography.net/cod/cif/1/00/89/1008919.cif $
#------------------------------------------------------------------------------
#
# This file is available in the Crystallography Open Database (COD),
# http://www.crystallography.net/
#
# All data on this site have been placed in the public domain by the
# contributors.
#
data_1008919
loop_
_publ_author_name
'Deyris, B'
'Roy-Montreuil, J'
'Fruchart, R'
'Michel, A'
_publ_section_title
;
Etude cristallographique du compose Nb Mn Si
;
_journal_coden_ASTM              BSCFAS
_journal_name_full
;
Bulletin de la Societe Chimique de France (Vol=Year)
;
_journal_page_first              1303
_journal_page_last               1304
_journal_volume                  1968
_journal_year                    1968
_chemical_formula_structural     'Nb Mn Si'
_chemical_formula_sum            'Mn Nb Si'
_chemical_name_systematic        'Niobium manganese silicide (1/1/1)'
_space_group_IT_number           189
_symmetry_cell_setting           hexagonal
_symmetry_Int_Tables_number      189
_symmetry_space_group_name_Hall  'P -6 -2'
_symmetry_space_group_name_H-M   'P -6 2 m'
_cell_angle_alpha                90
_cell_angle_beta                 90
_cell_angle_gamma                120
_cell_formula_units_Z            3
_cell_length_a                   6.416(1)
_cell_length_b                   6.416(1)
_cell_length_c                   3.553(2)
_cell_volume                     126.7
_exptl_crystal_density_meas      6.67
_cod_database_code               1008919
loop_
_symmetry_equiv_pos_as_xyz
x,y,z
-y,x-y,z
y-x,-x,z
x,y,-z
-y,x-y,-z
y-x,-x,-z
y,x,z
x-y,-y,z
-x,y-x,z
y,x,-z
x-y,-y,-z
-x,y-x,-z
loop_
_atom_site_label
_atom_site_type_symbol
_atom_site_symmetry_multiplicity
_atom_site_Wyckoff_symbol
_atom_site_fract_x
_atom_site_fract_y
_atom_site_fract_z
_atom_site_occupancy
_atom_site_attached_hydrogens
_atom_site_calc_flag
Nb1 Nb0 3 g 0.589 0. 0.5 1. 0 d
Mn1 Mn0 3 f 0.242 0. 0. 1. 0 d
Si1 Si0 2 c 0.3333 0.6667 0. 1. 0 d
Si2 Si0 1 b 0. 0. 0.5 1. 0 d
loop_
_atom_type_symbol
_atom_type_oxidation_number
Nb0 0.000
Mn0 0.000
Si0 0.000
