#------------------------------------------------------------------------------
#$Date: 2015-01-27 21:58:39 +0200 (Tue, 27 Jan 2015) $
#$Revision: 130149 $
#$URL: svn://www.crystallography.net/cod/cif/1/01/06/1010634.cif $
#------------------------------------------------------------------------------
#
# This file is available in the Crystallography Open Database (COD),
# http://www.crystallography.net/
#
# All data on this site have been placed in the public domain by the
# contributors.
#
data_1010634
loop_
_publ_author_name
'Lundqvist, D'
'Westgren, A'
_publ_section_title              'The crystal structure of Cu V S~4~'
_journal_coden_ASTM              SKTIAF
_journal_name_full               'Svensk Kemisk Tidskrift'
_journal_page_first              241
_journal_page_last               243
_journal_volume                  48
_journal_year                    1936
_chemical_formula_structural     'Cu3 V S4'
_chemical_formula_sum            'Cu3 S4 V'
_chemical_name_systematic        'Tricopper(I) tetrathiovanadate'
_space_group_IT_number           215
_symmetry_cell_setting           cubic
_symmetry_Int_Tables_number      215
_symmetry_space_group_name_Hall  'P -4 2 3'
_symmetry_space_group_name_H-M   'P -4 3 m'
_cell_angle_alpha                90
_cell_angle_beta                 90
_cell_angle_gamma                90
_cell_formula_units_Z            1
_cell_length_a                   5.379
_cell_length_b                   5.379
_cell_length_c                   5.379
_cell_volume                     155.6
_cod_database_code               1010634
loop_
_symmetry_equiv_pos_as_xyz
x,y,z
y,z,x
z,x,y
x,z,y
y,x,z
z,y,x
x,-y,-z
y,-z,-x
z,-x,-y
x,-z,-y
y,-x,-z
z,-y,-x
-x,y,-z
-y,z,-x
-z,x,-y
-x,z,-y
-y,x,-z
-z,y,-x
-x,-y,z
-y,-z,x
-z,-x,y
-x,-z,y
-y,-x,z
-z,-y,x
loop_
_atom_site_label
_atom_site_type_symbol
_atom_site_symmetry_multiplicity
_atom_site_Wyckoff_symbol
_atom_site_fract_x
_atom_site_fract_y
_atom_site_fract_z
_atom_site_occupancy
_atom_site_attached_hydrogens
_atom_site_calc_flag
V1 V5+ 1 a 0. 0. 0. 1. 0 d
Cu1 Cu1+ 3 d 0.5 0. 0. 1. 0 d
S1 S2- 4 e 0.235 0.235 0.235 1. 0 d
loop_
_atom_type_symbol
_atom_type_oxidation_number
V5+ 5.000
Cu1+ 1.000
S2- -2.000
