#------------------------------------------------------------------------------
#$Date: 2023-03-26 11:09:57 +0300 (Sun, 26 Mar 2023) $
#$Revision: 282068 $
#$URL: file:///home/coder/svn-repositories/cod/cif/1/01/02/1010256.cif $
#------------------------------------------------------------------------------
#
# This file is available in the Crystallography Open Database (COD),
# http://www.crystallography.net/
#
# All data on this site have been placed in the public domain by the
# contributors.
#
data_1010256
loop_
_publ_author_name
'Gossner, B'
'Kraus, O'
_publ_section_title
;
Das Kristallgitter der Tellursaeure Te O~6~ H~6~
;
_journal_coden_ASTM              ZEKGAX
_journal_name_full
;
Zeitschrift fuer Kristallographie, Kristallgeometrie, Kristallphysik,
Kristallchemie (-144,1977)
;
_journal_page_first              298
_journal_page_last               303
_journal_volume                  88
_journal_year                    1934
_chemical_formula_structural     'Te O6 H6'
_chemical_formula_sum            'H6 O6 Te'
_chemical_name_systematic        'Telluric(VI) acid'
_space_group_IT_number           225
_symmetry_cell_setting           cubic
_symmetry_Int_Tables_number      225
_symmetry_space_group_name_Hall  '-F 4 2 3'
_symmetry_space_group_name_H-M   'F m -3 m'
_cell_angle_alpha                90
_cell_angle_beta                 90
_cell_angle_gamma                90
_cell_formula_units_Z            4
_cell_length_a                   7.83
_cell_length_b                   7.83
_cell_length_c                   7.83
_cell_volume                     480.0
_database_code_amcsd             0010540
_exptl_crystal_density_diffrn    3.177
_cod_depositor_comments
;
 Removing dummy H atoms since the hydrogen atoms they represent are already
 marked using the _atom_site_attached_hydrogens data item.

 Antanas Vaitkus,
 2017-09-11
;
_cod_database_code               1010256
_amcsd_formula_title             TeO6H6
loop_
_space_group_symop_operation_xyz
x,y,z
y,z,x
z,x,y
x,z,y
y,x,z
z,y,x
x,-y,-z
y,-z,-x
z,-x,-y
x,-z,-y
y,-x,-z
z,-y,-x
-x,y,-z
-y,z,-x
-z,x,-y
-x,z,-y
-y,x,-z
-z,y,-x
-x,-y,z
-y,-z,x
-z,-x,y
-x,-z,y
-y,-x,z
-z,-y,x
-x,-y,-z
-y,-z,-x
-z,-x,-y
-x,-z,-y
-y,-x,-z
-z,-y,-x
-x,y,z
-y,z,x
-z,x,y
-x,z,y
-y,x,z
-z,y,x
x,-y,z
y,-z,x
z,-x,y
x,-z,y
y,-x,z
z,-y,x
x,y,-z
y,z,-x
z,x,-y
x,z,-y
y,x,-z
z,y,-x
x,1/2+y,1/2+z
1/2+x,y,1/2+z
1/2+x,1/2+y,z
y,1/2+z,1/2+x
1/2+y,z,1/2+x
1/2+y,1/2+z,x
z,1/2+x,1/2+y
1/2+z,x,1/2+y
1/2+z,1/2+x,y
x,1/2+z,1/2+y
1/2+x,z,1/2+y
1/2+x,1/2+z,y
y,1/2+x,1/2+z
1/2+y,x,1/2+z
1/2+y,1/2+x,z
z,1/2+y,1/2+x
1/2+z,y,1/2+x
1/2+z,1/2+y,x
x,1/2-y,1/2-z
1/2+x,-y,1/2-z
1/2+x,1/2-y,-z
y,1/2-z,1/2-x
1/2+y,-z,1/2-x
1/2+y,1/2-z,-x
z,1/2-x,1/2-y
1/2+z,-x,1/2-y
1/2+z,1/2-x,-y
x,1/2-z,1/2-y
1/2+x,-z,1/2-y
1/2+x,1/2-z,-y
y,1/2-x,1/2-z
1/2+y,-x,1/2-z
1/2+y,1/2-x,-z
z,1/2-y,1/2-x
1/2+z,-y,1/2-x
1/2+z,1/2-y,-x
-x,1/2+y,1/2-z
1/2-x,y,1/2-z
1/2-x,1/2+y,-z
-y,1/2+z,1/2-x
1/2-y,z,1/2-x
1/2-y,1/2+z,-x
-z,1/2+x,1/2-y
1/2-z,x,1/2-y
1/2-z,1/2+x,-y
-x,1/2+z,1/2-y
1/2-x,z,1/2-y
1/2-x,1/2+z,-y
-y,1/2+x,1/2-z
1/2-y,x,1/2-z
1/2-y,1/2+x,-z
-z,1/2+y,1/2-x
1/2-z,y,1/2-x
1/2-z,1/2+y,-x
-x,1/2-y,1/2+z
1/2-x,-y,1/2+z
1/2-x,1/2-y,z
-y,1/2-z,1/2+x
1/2-y,-z,1/2+x
1/2-y,1/2-z,x
-z,1/2-x,1/2+y
1/2-z,-x,1/2+y
1/2-z,1/2-x,y
-x,1/2-z,1/2+y
1/2-x,-z,1/2+y
1/2-x,1/2-z,y
-y,1/2-x,1/2+z
1/2-y,-x,1/2+z
1/2-y,1/2-x,z
-z,1/2-y,1/2+x
1/2-z,-y,1/2+x
1/2-z,1/2-y,x
-x,1/2-y,1/2-z
1/2-x,-y,1/2-z
1/2-x,1/2-y,-z
-y,1/2-z,1/2-x
1/2-y,-z,1/2-x
1/2-y,1/2-z,-x
-z,1/2-x,1/2-y
1/2-z,-x,1/2-y
1/2-z,1/2-x,-y
-x,1/2-z,1/2-y
1/2-x,-z,1/2-y
1/2-x,1/2-z,-y
-y,1/2-x,1/2-z
1/2-y,-x,1/2-z
1/2-y,1/2-x,-z
-z,1/2-y,1/2-x
1/2-z,-y,1/2-x
1/2-z,1/2-y,-x
-x,1/2+y,1/2+z
1/2-x,y,1/2+z
1/2-x,1/2+y,z
-y,1/2+z,1/2+x
1/2-y,z,1/2+x
1/2-y,1/2+z,x
-z,1/2+x,1/2+y
1/2-z,x,1/2+y
1/2-z,1/2+x,y
-x,1/2+z,1/2+y
1/2-x,z,1/2+y
1/2-x,1/2+z,y
-y,1/2+x,1/2+z
1/2-y,x,1/2+z
1/2-y,1/2+x,z
-z,1/2+y,1/2+x
1/2-z,y,1/2+x
1/2-z,1/2+y,x
x,1/2-y,1/2+z
1/2+x,-y,1/2+z
1/2+x,1/2-y,z
y,1/2-z,1/2+x
1/2+y,-z,1/2+x
1/2+y,1/2-z,x
z,1/2-x,1/2+y
1/2+z,-x,1/2+y
1/2+z,1/2-x,y
x,1/2-z,1/2+y
1/2+x,-z,1/2+y
1/2+x,1/2-z,y
y,1/2-x,1/2+z
1/2+y,-x,1/2+z
1/2+y,1/2-x,z
z,1/2-y,1/2+x
1/2+z,-y,1/2+x
1/2+z,1/2-y,x
x,1/2+y,1/2-z
1/2+x,y,1/2-z
1/2+x,1/2+y,-z
y,1/2+z,1/2-x
1/2+y,z,1/2-x
1/2+y,1/2+z,-x
z,1/2+x,1/2-y
1/2+z,x,1/2-y
1/2+z,1/2+x,-y
x,1/2+z,1/2-y
1/2+x,z,1/2-y
1/2+x,1/2+z,-y
y,1/2+x,1/2-z
1/2+y,x,1/2-z
1/2+y,1/2+x,-z
z,1/2+y,1/2-x
1/2+z,y,1/2-x
1/2+z,1/2+y,-x
loop_
_atom_site_label
_atom_site_type_symbol
_atom_site_symmetry_multiplicity
_atom_site_Wyckoff_symbol
_atom_site_fract_x
_atom_site_fract_y
_atom_site_fract_z
_atom_site_occupancy
_atom_site_attached_hydrogens
_atom_site_calc_flag
Te1 Te6+ 4 a 0. 0. 0. 1. 0 d
O1 O2- 24 e 0.25 0. 0. 1. 1 d
loop_
_atom_type_symbol
_atom_type_oxidation_number
Te6+ 6.000
O2- -2.000
loop_
_cod_related_entry_id
_cod_related_entry_database
_cod_related_entry_code
1 AMCSD 0010540
