#------------------------------------------------------------------------------
#$Date: 2017-10-15 03:23:08 +0300 (Sun, 15 Oct 2017) $
#$Revision: 202022 $
#$URL: file:///home/coder/svn-repositories/cod/cif/1/50/14/1501462.cif $
#------------------------------------------------------------------------------
#
# This file is available in the Crystallography Open Database (COD),
# http://www.crystallography.net/
#
# All data on this site have been placed in the public domain by the
# contributors.
#
data_1501462
loop_
_publ_author_name
'Krzton-Maziopa, A.'
'Shermadini, Z.'
'Pomjakushina, E.'
'Pomjakushina, V.'
'Bendele, M.'
'Amato, A.'
'Khasanov, R.'
'Luetkens, H.'
'Conder, K.'
_publ_section_title
;
 Synthesis and crystal growth of Cs0.8(FeSe0.98)2: a new iron-based
 superconductor with Tc=27K
;
_journal_name_full
;
Journal of Physics: Condensed Matter
;
_journal_page_first              1
_journal_page_last               4
_journal_volume                  23
_journal_year                    2011
_chemical_formula_structural     'Cs0.8 (FeSe0.98)2'
_chemical_formula_sum            'Cs0.8 Fe2 Se1.96'
_space_group_IT_number           139
_symmetry_cell_setting           tetragonal
_symmetry_space_group_name_Hall  '-I 4 2'
_symmetry_space_group_name_H-M   'I 4/m m m'
_cell_angle_alpha                90
_cell_angle_beta                 90
_cell_angle_gamma                90
_cell_formula_units_Z            2
_cell_length_a                   3.9601
_cell_length_b                   3.9601
_cell_length_c                   15.2846
_cell_volume                     239.699
_cod_data_source_file            Cs0_8FeSe0_982.cif
_cod_data_source_block           chateigner2
_cod_database_code               1501462
loop_
_symmetry_equiv_pos_as_xyz
x,y,z
-x,-y,z
-x,y,z
x,-y,z
-y,x,z
y,-x,z
y,x,z
-y,-x,z
-x,-y,-z
x,y,-z
x,-y,-z
-x,y,-z
y,-x,-z
-y,x,-z
-y,-x,-z
y,x,-z
1/2+x,1/2+y,1/2+z
1/2-x,1/2-y,1/2+z
1/2-x,1/2+y,1/2+z
1/2+x,1/2-y,1/2+z
1/2-y,1/2+x,1/2+z
1/2+y,1/2-x,1/2+z
1/2+y,1/2+x,1/2+z
1/2-y,1/2-x,1/2+z
1/2-x,1/2-y,1/2-z
1/2+x,1/2+y,1/2-z
1/2+x,1/2-y,1/2-z
1/2-x,1/2+y,1/2-z
1/2+y,1/2-x,1/2-z
1/2-y,1/2+x,1/2-z
1/2-y,1/2-x,1/2-z
1/2+y,1/2+x,1/2-z
loop_
_atom_site_label
_atom_site_type_symbol
_atom_site_symmetry_multiplicity
_atom_site_Wyckoff_symbol
_atom_site_fract_x
_atom_site_fract_y
_atom_site_fract_z
_atom_site_occupancy
_atom_site_attached_hydrogens
_atom_site_calc_flag
Fe1 Fe2+ 4 d 0. 0.5 0.25 1. 0 d
Se1 Se2- 4 e 0. 0. 0.3439 1. 0 d
Cs1 Cs+ 2 a 0. 0. 0. 0.771 0 d
loop_
_atom_type_symbol
_atom_type_oxidation_number
Fe2+ 2.000
Se2- -2.000
Cs+ 1.000
loop_
_cod_related_entry_id
_cod_related_entry_database
_cod_related_entry_code
1 MPOD 1000194
