#------------------------------------------------------------------------------
#$Date: 2016-02-14 16:26:36 +0200 (Sun, 14 Feb 2016) $
#$Revision: 176435 $
#$URL: svn://www.crystallography.net/cod/cif/1/50/89/1508979.cif $
#------------------------------------------------------------------------------
#
# This file is available in the Crystallography Open Database (COD),
# http://www.crystallography.net/
#
# All data on this site have been placed in the public domain by the
# contributors.
#
data_1508979
loop_
_publ_author_name
'Kinzel, W.'
'Koebler, U.'
'Zinn, W.'
_publ_section_title
;
 Magnetic phase diagram of Cd Ag1-x Znx
;
_journal_name_full               'Journal of Magnetism and Magnetic Materials'
_journal_page_first              124
_journal_page_last               134
_journal_paper_doi               10.1016/0304-8853(81)90110-4
_journal_volume                  25
_journal_year                    1981
_chemical_formula_sum            'Ag0.5 Gd Zn0.5'
_chemical_name_systematic        'Silver zinc gadolinium (0.5/0.5/1)'
_space_group_IT_number           221
_symmetry_space_group_name_Hall  '-P 4 2 3'
_symmetry_space_group_name_H-M   'P m -3 m'
_cell_angle_alpha                90
_cell_angle_beta                 90
_cell_angle_gamma                90
_cell_formula_units_Z            1
_cell_length_a                   3.644
_cell_length_b                   3.644
_cell_length_c                   3.644
_cell_volume                     48.388
_citation_journal_id_ASTM        JMMMDC
_cod_data_source_file            silver0-1_105.cif
_cod_data_source_block           Ag0.5Gd1Zn0.5
_cod_original_cell_volume        48.38771
_cod_original_formula_sum        'Ag0.5 Gd1 Zn0.5'
_cod_database_code               1508979
loop_
_symmetry_equiv_pos_as_xyz
x,y,z
-y,x,z
-x,-y,z
y,-x,z
x,-y,-z
y,x,-z
-x,y,-z
-y,-x,-z
z,x,y
-x,z,y
-z,-x,y
x,-z,y
z,-x,-y
x,z,-y
-z,x,-y
-x,-z,-y
y,z,x
y,-z,-x
z,y,-x
-y,z,-x
-z,-y,-x
-y,-z,x
z,-y,x
-z,y,x
-x,-y,-z
y,-x,-z
x,y,-z
-y,x,-z
-x,y,z
-y,-x,z
x,-y,z
y,x,z
-z,-x,-y
x,-z,-y
z,x,-y
-x,z,-y
-z,x,y
-x,-z,y
z,-x,y
x,z,y
-y,-z,-x
-y,z,x
-z,-y,x
y,-z,x
z,y,x
y,z,-x
-z,y,-x
z,-y,-x
loop_
_atom_site_label
_atom_site_type_symbol
_atom_site_fract_x
_atom_site_fract_y
_atom_site_fract_z
_atom_site_occupancy
Gd1 Gd 0 0 0 1
Ag1 Ag 0.5 0.5 0.5 0.5
Zn1 Zn 0.5 0.5 0.5 0.5
