#------------------------------------------------------------------------------
#$Date: 2016-02-14 16:26:36 +0200 (Sun, 14 Feb 2016) $
#$Revision: 176435 $
#$URL: svn://www.crystallography.net/cod/cif/1/50/89/1508985.cif $
#------------------------------------------------------------------------------
#
# This file is available in the Crystallography Open Database (COD),
# http://www.crystallography.net/
#
# All data on this site have been placed in the public domain by the
# contributors.
#
data_1508985
loop_
_publ_author_name
'Fujii, H.'
'Okamoto, T.'
'Yagasaki, K.'
'Uwatoko, Y.'
'Kadena, Y.'
_publ_section_title
;
 Crystallographic transformations and electronic properties of the Cs Cl -
 type compounds Pr Ag1-x Inx
;
_journal_name_full               'Journal of Physics F'
_journal_page_first              651
_journal_page_last               660
_journal_paper_doi               10.1088/0305-4608/15/3/017
_journal_volume                  15
_journal_year                    1985
_chemical_formula_sum            'Ag0.5 In0.5 Pr'
_chemical_name_systematic        'Silver indium praseodymium (0.5/0.5/1)'
_space_group_IT_number           221
_symmetry_space_group_name_Hall  '-P 4 2 3'
_symmetry_space_group_name_H-M   'P m -3 m'
_cell_angle_alpha                90
_cell_angle_beta                 90
_cell_angle_gamma                90
_cell_formula_units_Z            1
_cell_length_a                   3.806
_cell_length_b                   3.806
_cell_length_c                   3.806
_cell_volume                     55.132
_citation_journal_id_ASTM        JPFMAT
_cod_data_source_file            silver0-1_110.cif
_cod_data_source_block           Ag0.5In0.5Pr1
_cod_original_cell_volume        55.13233
_cod_original_formula_sum        'Ag0.5 In0.5 Pr1'
_cod_database_code               1508985
loop_
_symmetry_equiv_pos_as_xyz
x,y,z
-y,x,z
-x,-y,z
y,-x,z
x,-y,-z
y,x,-z
-x,y,-z
-y,-x,-z
z,x,y
-x,z,y
-z,-x,y
x,-z,y
z,-x,-y
x,z,-y
-z,x,-y
-x,-z,-y
y,z,x
y,-z,-x
z,y,-x
-y,z,-x
-z,-y,-x
-y,-z,x
z,-y,x
-z,y,x
-x,-y,-z
y,-x,-z
x,y,-z
-y,x,-z
-x,y,z
-y,-x,z
x,-y,z
y,x,z
-z,-x,-y
x,-z,-y
z,x,-y
-x,z,-y
-z,x,y
-x,-z,y
z,-x,y
x,z,y
-y,-z,-x
-y,z,x
-z,-y,x
y,-z,x
z,y,x
y,z,-x
-z,y,-x
z,-y,-x
loop_
_atom_site_label
_atom_site_type_symbol
_atom_site_fract_x
_atom_site_fract_y
_atom_site_fract_z
_atom_site_occupancy
Ag1 Ag 0 0 0 0.5
In1 In 0 0 0 0.5
Pr1 Pr 0.5 0.5 0.5 1
