#------------------------------------------------------------------------------
#$Date: 2016-02-14 16:26:36 +0200 (Sun, 14 Feb 2016) $
#$Revision: 176435 $
#$URL: svn://www.crystallography.net/cod/cif/1/50/91/1509167.cif $
#------------------------------------------------------------------------------
#
# This file is available in the Crystallography Open Database (COD),
# http://www.crystallography.net/
#
# All data on this site have been placed in the public domain by the
# contributors.
#
data_1509167
loop_
_publ_author_name
'Matsuo, Y.'
'Katada, K.'
'Minamigawa, S.'
_publ_section_title
;
 Phase relations of the AgCd - AgMg and AgCd - AgZn quasibinary alloys
;
_journal_name_full               'Scripta Metallurgica'
_journal_page_first              821
_journal_page_last               826
_journal_paper_doi               10.1016/0036-9748(78)90043-1
_journal_volume                  12
_journal_year                    1978
_chemical_formula_sum            'Ag Cd0.2 Mg0.8'
_chemical_name_systematic        '(Ag5 Cd Mg4)0.2'
_space_group_IT_number           221
_symmetry_space_group_name_Hall  '-P 4 2 3'
_symmetry_space_group_name_H-M   'P m -3 m'
_cell_angle_alpha                90
_cell_angle_beta                 90
_cell_angle_gamma                90
_cell_formula_units_Z            1
_cell_length_a                   3.3147
_cell_length_b                   3.3147
_cell_length_c                   3.3147
_cell_volume                     36.419
_citation_journal_id_ASTM        SCRMBU
_cod_data_source_file            silver1-2_128.cif
_cod_data_source_block           Ag1Cd0.2Mg0.8
_cod_original_cell_volume        36.41939
_cod_original_formula_sum        'Ag1 Cd0.2 Mg0.8'
_cod_database_code               1509167
loop_
_symmetry_equiv_pos_as_xyz
x,y,z
-y,x,z
-x,-y,z
y,-x,z
x,-y,-z
y,x,-z
-x,y,-z
-y,-x,-z
z,x,y
-x,z,y
-z,-x,y
x,-z,y
z,-x,-y
x,z,-y
-z,x,-y
-x,-z,-y
y,z,x
y,-z,-x
z,y,-x
-y,z,-x
-z,-y,-x
-y,-z,x
z,-y,x
-z,y,x
-x,-y,-z
y,-x,-z
x,y,-z
-y,x,-z
-x,y,z
-y,-x,z
x,-y,z
y,x,z
-z,-x,-y
x,-z,-y
z,x,-y
-x,z,-y
-z,x,y
-x,-z,y
z,-x,y
x,z,y
-y,-z,-x
-y,z,x
-z,-y,x
y,-z,x
z,y,x
y,z,-x
-z,y,-x
z,-y,-x
loop_
_atom_site_label
_atom_site_type_symbol
_atom_site_fract_x
_atom_site_fract_y
_atom_site_fract_z
_atom_site_occupancy
_atom_site_U_iso_or_equiv
Mg1 Mg 0.5 0.5 0.5 0.8 0.0
Ag1 Ag 0 0 0 1 0.0
Cd1 Cd 0.5 0.5 0.5 0.2 0.0
