#------------------------------------------------------------------------------
#$Date: 2016-02-18 17:37:37 +0200 (Thu, 18 Feb 2016) $
#$Revision: 176729 $
#$URL: svn://www.crystallography.net/cod/cif/1/50/96/1509604.cif $
#------------------------------------------------------------------------------
#
# This file is available in the Crystallography Open Database (COD),
# http://www.crystallography.net/
#
# All data on this site have been placed in the public domain by the
# contributors.
#
data_1509604
loop_
_publ_author_name
'Henderson, B.'
'Raynor, G.V.'
_publ_section_title
;
 The effective valencies of transition metals in solid solutions in gold
 and silver alloys
;
_journal_name_full
;
Proceedings of the Royal Society of London, Series A: Mathematical and
 Physical Sciences (76,1906-)
;
_journal_page_first              313
_journal_page_last               328
_journal_paper_doi               10.1098/rspa.1962.0102
_journal_volume                  267
_journal_year                    1962
_chemical_formula_sum            'Ag1.6 Mn0.1 Sn0.3'
_chemical_name_systematic        '(Ag16 Mn Sn3)0.1'
_space_group_IT_number           194
_symmetry_space_group_name_Hall  '-P 6c 2c'
_symmetry_space_group_name_H-M   'P 63/m m c'
_cell_angle_alpha                90
_cell_angle_beta                 90
_cell_angle_gamma                120
_cell_formula_units_Z            1
_cell_length_a                   2.9407
_cell_length_b                   2.9407
_cell_length_c                   4.7777
_cell_volume                     35.781
_citation_journal_id_ASTM        PRLAAZ
_cod_data_source_file            silver1-2_609.cif
_cod_data_source_block           Ag1.6Mn0.1Sn0.3
_cod_original_cell_volume        35.78088
_cod_database_code               1509604
loop_
_symmetry_equiv_pos_as_xyz
x,y,z
x-y,x,z+1/2
-y,x-y,z
-x,-y,z+1/2
-x+y,-x,z
y,-x+y,z+1/2
-y,-x,-z+1/2
x-y,-y,-z
x,x-y,-z+1/2
y,x,-z
-x+y,y,-z+1/2
-x,-x+y,-z
-x,-y,-z
-x+y,-x,-z-1/2
y,-x+y,-z
x,y,-z-1/2
x-y,x,-z
-y,x-y,-z-1/2
y,x,z-1/2
-x+y,y,z
-x,-x+y,z-1/2
-y,-x,z
x-y,-y,z-1/2
x,x-y,z
loop_
_atom_site_label
_atom_site_type_symbol
_atom_site_fract_x
_atom_site_fract_y
_atom_site_fract_z
_atom_site_occupancy
_atom_site_U_iso_or_equiv
Ag1 Ag 0.3333 0.6667 0.25 0.8 0.0
Sn1 Sn 0.3333 0.6667 0.25 0.15 0.0
Mn1 Mn 0.3333 0.6667 0.25 0.05 0.0
