#------------------------------------------------------------------------------
#$Date: 2016-02-14 16:26:36 +0200 (Sun, 14 Feb 2016) $
#$Revision: 176435 $
#$URL: svn://www.crystallography.net/cod/cif/1/50/90/1509086.cif $
#------------------------------------------------------------------------------
#
# This file is available in the Crystallography Open Database (COD),
# http://www.crystallography.net/
#
# All data on this site have been placed in the public domain by the
# contributors.
#
data_1509086
loop_
_publ_author_name
'Rogl, P.'
'Kaczorowski, D.'
'Saccone, A.'
'Ferro, R.'
'Cordruwisch, E.'
_publ_section_title
;
 Constitution, structural chemistry and magnetism in the ternary system Ce
 - Ag- Si
;
_journal_name_full               'Journal of Alloys Compd.'
_journal_page_first              308
_journal_page_last               319
_journal_paper_doi               10.1016/S0925-8388(00)01474-2
_journal_volume                  320
_journal_year                    2001
_chemical_formula_sum            'Ag0.3 Ce Si1.7'
_chemical_name_systematic        'Cerium silver silicide (1/0.3/1.7)'
_space_group_IT_number           141
_symmetry_space_group_name_Hall  '-I 4bd 2'
_symmetry_space_group_name_H-M   'I 41/a m d :2'
_cell_angle_alpha                90
_cell_angle_beta                 90
_cell_angle_gamma                90
_cell_formula_units_Z            4
_cell_length_a                   4.2131
_cell_length_b                   4.2131
_cell_length_c                   14.2804
_cell_volume                     253.480
_citation_journal_id_ASTM        JALCEU
_cod_data_source_file            silver0-1_49.cif
_cod_data_source_block           Ag0.3Ce1Si1.7
_cod_original_cell_volume        253.4801
_cod_original_formula_sum        'Ag0.3 Ce1 Si1.7'
_cod_database_code               1509086
loop_
_symmetry_equiv_pos_as_xyz
x,y,z
-y+1/4,x+3/4,z+1/4
-x+1/2,-y,z+1/2
y+1/4,-x+1/4,z+3/4
x,-y,-z
y+1/4,x+3/4,-z+1/4
-x+1/2,y,-z+1/2
-y+1/4,-x+1/4,-z+3/4
-x,-y,-z
y-1/4,-x-3/4,-z-1/4
x-1/2,y,-z-1/2
-y-1/4,x-1/4,-z-3/4
-x,y,z
-y-1/4,-x-3/4,z-1/4
x-1/2,-y,z-1/2
y-1/4,x-1/4,z-3/4
x+1/2,y+1/2,z+1/2
-y+3/4,x+5/4,z+3/4
-x+1,-y+1/2,z+1
y+3/4,-x+3/4,z+5/4
x+1/2,-y+1/2,-z+1/2
y+3/4,x+5/4,-z+3/4
-x+1,y+1/2,-z+1
-y+3/4,-x+3/4,-z+5/4
-x+1/2,-y+1/2,-z+1/2
y+1/4,-x-1/4,-z+1/4
x,y+1/2,-z
-y+1/4,x+1/4,-z-1/4
-x+1/2,y+1/2,z+1/2
-y+1/4,-x-1/4,z+1/4
x,-y+1/2,z
y+1/4,x+1/4,z-1/4
loop_
_atom_site_label
_atom_site_type_symbol
_atom_site_fract_x
_atom_site_fract_y
_atom_site_fract_z
_atom_site_occupancy
Ag1 Ag 0 0.25 0.2917 0.15
Si1 Si 0 0.25 0.2917 0.85
Ce1 Ce 0 0.75 0.125 1
