#------------------------------------------------------------------------------
#$Date: 2016-02-14 16:26:36 +0200 (Sun, 14 Feb 2016) $
#$Revision: 176435 $
#$URL: svn://www.crystallography.net/cod/cif/1/50/91/1509128.cif $
#------------------------------------------------------------------------------
#
# This file is available in the Crystallography Open Database (COD),
# http://www.crystallography.net/
#
# All data on this site have been placed in the public domain by the
# contributors.
#
data_1509128
loop_
_publ_author_name
'Gotaas, J.A.'
'Kouvel, J.S.'
'Brun, T.O.'
'Cable, J.W.'
_publ_section_title
;
 Quadrupolar coupling and structural instability in Pr Ag1-x Cux
;
_journal_name_full               'Journal of Magnetism and Magnetic Materials'
_journal_page_first              208
_journal_page_last               212
_journal_paper_doi               10.1016/0304-8853(83)91066-1
_journal_volume                  36
_journal_year                    1983
_chemical_formula_sum            'Ag0.5 Cu0.5 Pr'
_chemical_name_systematic        'Silver copper praseodymium (0.5/0.5/1)'
_space_group_IT_number           221
_symmetry_space_group_name_Hall  '-P 4 2 3'
_symmetry_space_group_name_H-M   'P m -3 m'
_cell_angle_alpha                90
_cell_angle_beta                 90
_cell_angle_gamma                90
_cell_formula_units_Z            1
_cell_length_a                   3.66
_cell_length_b                   3.66
_cell_length_c                   3.66
_cell_volume                     49.028
_citation_journal_id_ASTM        JMMMDC
_cod_data_source_file            silver0-1_97.cif
_cod_data_source_block           Ag0.5Cu0.5Pr1
_cod_original_cell_volume        49.0279
_cod_original_formula_sum        'Ag0.5 Cu0.5 Pr1'
_cod_database_code               1509128
loop_
_symmetry_equiv_pos_as_xyz
x,y,z
-y,x,z
-x,-y,z
y,-x,z
x,-y,-z
y,x,-z
-x,y,-z
-y,-x,-z
z,x,y
-x,z,y
-z,-x,y
x,-z,y
z,-x,-y
x,z,-y
-z,x,-y
-x,-z,-y
y,z,x
y,-z,-x
z,y,-x
-y,z,-x
-z,-y,-x
-y,-z,x
z,-y,x
-z,y,x
-x,-y,-z
y,-x,-z
x,y,-z
-y,x,-z
-x,y,z
-y,-x,z
x,-y,z
y,x,z
-z,-x,-y
x,-z,-y
z,x,-y
-x,z,-y
-z,x,y
-x,-z,y
z,-x,y
x,z,y
-y,-z,-x
-y,z,x
-z,-y,x
y,-z,x
z,y,x
y,z,-x
-z,y,-x
z,-y,-x
loop_
_atom_site_label
_atom_site_type_symbol
_atom_site_fract_x
_atom_site_fract_y
_atom_site_fract_z
_atom_site_occupancy
Ag1 Ag 0 0 0 0.5
Pr1 Pr 0.5 0.5 0.5 1
Cu1 Cu 0 0 0 0.5
