#------------------------------------------------------------------------------
#$Date: 2016-02-14 16:26:36 +0200 (Sun, 14 Feb 2016) $
#$Revision: 176435 $
#$URL: svn://www.crystallography.net/cod/cif/1/50/92/1509287.cif $
#------------------------------------------------------------------------------
#
# This file is available in the Crystallography Open Database (COD),
# http://www.crystallography.net/
#
# All data on this site have been placed in the public domain by the
# contributors.
#
data_1509287
loop_
_publ_author_name
'Bensch, W.'
'Duerichen, P.'
'Schunk, S.A.'
'Jess, I.'
'Tillinski, R.'
'Rumpf, C.'
'Naether, C.'
_publ_section_title
;
 Synthesis, crystal structures, and optical properties of new quaternary
 metal chalcogenides of group 5: Cs2 Ag V S4, K2 Ag V Se4, Rb2 Ag V Se4,
 Rb2 Ag Nb S4, and Cs2 Ag Nb Se4
;
_journal_name_full
'Zeitschrift fuer Anorganische und Allgemeine Chemie'
_journal_page_first              1285
_journal_page_last               1290
_journal_paper_doi
10.1002/(SICI)1521-3749(199808)624:8<1285::AID-ZAAC1285>3.0.CO;2-5
_journal_volume                  624
_journal_year                    1998
_chemical_formula_sum            'Ag Cs2 S4 V'
_chemical_name_systematic        'Cs2 (Ag V S4)'
_space_group_IT_number           70
_symmetry_space_group_name_Hall  '-F 2uv 2vw'
_symmetry_space_group_name_H-M   'F d d d :2'
_cell_angle_alpha                90
_cell_angle_beta                 90
_cell_angle_gamma                90
_cell_formula_units_Z            8
_cell_length_a                   5.846
_cell_length_b                   13.943
_cell_length_c                   24.241
_cell_volume                     1975.903
_citation_journal_id_ASTM        ZAACAB
_cod_data_source_file            silver1-2_195.cif
_cod_data_source_block           Ag1Cs2S4V1
_cod_original_formula_sum        'Ag1 Cs2 S4 V1'
_cod_database_code               1509287
loop_
_symmetry_equiv_pos_as_xyz
x,y,z
-x+1/4,-y+1/4,z
x,-y+1/4,-z+1/4
-x+1/4,y,-z+1/4
-x,-y,-z
x-1/4,y-1/4,-z
-x,y-1/4,z-1/4
x-1/4,-y,z-1/4
x,y+1/2,z+1/2
-x+1/4,-y+3/4,z+1/2
x,-y+3/4,-z+3/4
-x+1/4,y+1/2,-z+3/4
-x,-y+1/2,-z+1/2
x-1/4,y+1/4,-z+1/2
-x,y+1/4,z+1/4
x-1/4,-y+1/2,z+1/4
x+1/2,y,z+1/2
-x+3/4,-y+1/4,z+1/2
x+1/2,-y+1/4,-z+3/4
-x+3/4,y,-z+3/4
-x+1/2,-y,-z+1/2
x+1/4,y-1/4,-z+1/2
-x+1/2,y-1/4,z+1/4
x+1/4,-y,z+1/4
x+1/2,y+1/2,z
-x+3/4,-y+3/4,z
x+1/2,-y+3/4,-z+1/4
-x+3/4,y+1/2,-z+1/4
-x+1/2,-y+1/2,-z
x+1/4,y+1/4,-z
-x+1/2,y+1/4,z-1/4
x+1/4,-y+1/2,z-1/4
loop_
_atom_site_label
_atom_site_type_symbol
_atom_site_fract_x
_atom_site_fract_y
_atom_site_fract_z
_atom_site_occupancy
_atom_site_U_iso_or_equiv
Cs1 Cs+1 0.125 0.625 0.446 1 0.0
Ag1 Ag+1 -0.375 0.625 0.625 1 0.0
S1 S-2 0.5788 0.7821 0.4278 1 0.0
V1 V+5 0.125 0.625 0.625 1 0.0
