#------------------------------------------------------------------------------
#$Date: 2016-02-14 16:26:36 +0200 (Sun, 14 Feb 2016) $
#$Revision: 176435 $
#$URL: svn://www.crystallography.net/cod/cif/1/50/98/1509872.cif $
#------------------------------------------------------------------------------
#
# This file is available in the Crystallography Open Database (COD),
# http://www.crystallography.net/
#
# All data on this site have been placed in the public domain by the
# contributors.
#
data_1509872
loop_
_publ_author_name
'Piskach, L.V.'
'Parasyuk, O.V.'
'Gulay, L.D.'
'Olekseyuk, I.D.'
'Romanyuk, Ya.E.'
_publ_section_title
;
 The (Ag2 Se) - (Hg Se) -(Ge Se2) system and crystal structures of the
 compounds
;
_journal_name_full               'Journal of Alloys Compd.'
_journal_page_first              135
_journal_page_last               144
_journal_paper_doi               10.1016/S0925-8388(02)01023-X
_journal_volume                  351
_journal_year                    2003
_chemical_formula_sum            'Ag4 Ge Hg2 Se6'
_chemical_name_systematic        'Ag4 Hg2 Ge Se6'
_space_group_IT_number           31
_symmetry_space_group_name_Hall  'P 2ac -2'
_symmetry_space_group_name_H-M   'P m n 21'
_cell_angle_alpha                90
_cell_angle_beta                 90
_cell_angle_gamma                90
_cell_formula_units_Z            2
_cell_length_a                   7.6425
_cell_length_b                   7.6414
_cell_length_c                   10.806
_cell_volume                     631.064
_citation_journal_id_ASTM        JALCEU
_cod_data_source_file            silver3-x_147.cif
_cod_data_source_block           Ag4Ge1Hg2Se6
_cod_original_cell_volume        631.0639
_cod_original_formula_sum        'Ag4 Ge1 Hg2 Se6'
_cod_database_code               1509872
loop_
_symmetry_equiv_pos_as_xyz
x,y,z
-x+1/2,-y,z+1/2
-x,y,z
x+1/2,-y,z+1/2
loop_
_atom_site_label
_atom_site_type_symbol
_atom_site_fract_x
_atom_site_fract_y
_atom_site_fract_z
_atom_site_occupancy
_atom_site_U_iso_or_equiv
Se5 Se-2 0.249 0.767 0.914 1 0.0
Ag3 Ag+1 0.22 0.5251 0.2824 1 0.0
Se1 Se-2 0 0.28 0 1 0.0
Ag2 Ag+1 0.254 0.097 0.865 0.776 0.0
Se4 Se-2 0 0.48 0.665 1 0.0
Ag1 Ag+1 0 0.57 0.924 0.5 0.0
Se2 Se-2 0 0.74 0.17 1 0.0
Ge1 Ge+4 0 0.257 0.528 1 0.0
Hg2 Hg+2 0 0.074 0.1462 1 0.0
Hg1 Hg+2 0 0.758 0.5355 1 0.0
Se3 Se-2 0 0.026 0.686 1 0.0
