#------------------------------------------------------------------------------
#$Date: 2016-02-18 17:37:37 +0200 (Thu, 18 Feb 2016) $
#$Revision: 176729 $
#$URL: svn://www.crystallography.net/cod/cif/1/50/90/1509014.cif $
#------------------------------------------------------------------------------
#
# This file is available in the Crystallography Open Database (COD),
# http://www.crystallography.net/
#
# All data on this site have been placed in the public domain by the
# contributors.
#
data_1509014
loop_
_publ_author_name
'Iandelli, A.'
_publ_section_title
;
 The structure of ternary compounds of the rare earths: R Ag Si
;
_journal_name_full               'Journal of the Less-Common Metals'
_journal_page_first              L25
_journal_page_last               L27
_journal_volume                  113
_journal_year                    1985
_chemical_formula_sum            'Ag0.66 Nd0.99 Si1.32'
_chemical_name_systematic        'Silver neodymium silicon (0.66/0.99/1.32)'
_space_group_IT_number           191
_symmetry_space_group_name_Hall  '-P 6 2'
_symmetry_space_group_name_H-M   'P 6/m m m'
_cell_angle_alpha                90
_cell_angle_beta                 90
_cell_angle_gamma                120
_cell_formula_units_Z            1
_cell_length_a                   4.24
_cell_length_b                   4.24
_cell_length_c                   4.116
_cell_volume                     64.082
_citation_journal_id_ASTM        JCOMAH
_cod_data_source_file            silver0-1_141.cif
_cod_data_source_block           Ag0.66Nd0.99Si1.32
_cod_original_cell_volume        64.08224
_cod_database_code               1509014
loop_
_symmetry_equiv_pos_as_xyz
x,y,z
x-y,x,z
-y,x-y,z
-x,-y,z
-x+y,-x,z
y,-x+y,z
-y,-x,-z
x-y,-y,-z
x,x-y,-z
y,x,-z
-x+y,y,-z
-x,-x+y,-z
-x,-y,-z
-x+y,-x,-z
y,-x+y,-z
x,y,-z
x-y,x,-z
-y,x-y,-z
y,x,z
-x+y,y,z
-x,-x+y,z
-y,-x,z
x-y,-y,z
x,x-y,z
loop_
_atom_site_label
_atom_site_type_symbol
_atom_site_fract_x
_atom_site_fract_y
_atom_site_fract_z
_atom_site_occupancy
Ag1 Ag 0.3333 0.6667 0.5 0.333
Si1 Si 0.3333 0.6667 0.5 0.667
Nd1 Nd 0 0 0 1
