#------------------------------------------------------------------------------
#$Date: 2018-09-27 07:13:35 +0300 (Thu, 27 Sep 2018) $
#$Revision: 211196 $
#$URL: file:///home/coder/svn-repositories/cod/cif/1/50/95/1509595.cif $
#------------------------------------------------------------------------------
#
# This file is available in the Crystallography Open Database (COD),
# http://www.crystallography.net/
#
# All data on this site have been placed in the public domain by the
# contributors.
#
data_1509595
loop_
_publ_author_name
'Ruck, M.'
'Soehnel, T.'
'Poudeu Poudeu, P.F.'
_publ_section_title
;
 Homologous silver bismuth chalcogenide halides (N,x)P.I. syntheses and
 crystal structures of the (0,1)P compound Ag Bi2 S2 Cl3 and of three
 members of the (1,x)P solid solution series Ag(x) Bi(4-2x) S(6-4x) Br(4x)
;
_journal_name_full
'Zeitschrift fuer Anorganische und Allgemeine Chemie'
_journal_page_first              1276
_journal_page_last               1285
_journal_paper_doi               10.1002/zaac.200400131
_journal_volume                  630
_journal_year                    2004
_chemical_formula_sum            'Ag1.46 Bi2.54 Br2.91 S3.09'
_space_group_IT_number           12
_symmetry_space_group_name_Hall  '-C 2y'
_symmetry_space_group_name_H-M   'C 1 2/m 1'
_cell_angle_alpha                90
_cell_angle_beta                 90.4
_cell_angle_gamma                90
_cell_formula_units_Z            2
_cell_length_a                   13.324
_cell_length_b                   4.093
_cell_length_c                   9.743
_cell_volume                     531.323
_citation_journal_id_ASTM        ZAACAB
_cod_data_source_file            silver1-2_599.cif
_cod_data_source_block           Ag1.46Bi2.54Br2.91S3.09
_cod_original_cell_volume        531.3229
_cod_database_code               1509595
loop_
_symmetry_equiv_pos_as_xyz
x,y,z
-x,y,-z
-x,-y,-z
x,-y,z
x+1/2,y+1/2,z
-x+1/2,y+1/2,-z
-x+1/2,-y+1/2,-z
x+1/2,-y+1/2,z
loop_
_atom_site_label
_atom_site_type_symbol
_atom_site_fract_x
_atom_site_fract_y
_atom_site_fract_z
_atom_site_occupancy
_atom_site_U_iso_or_equiv
Br1 Br-1 0.14134 0 0.42298 1 0.0
S2 S-2 0.41792 0 0.2391 0.545 0.0
Ag2 Ag+1 0.5 0 0.5 0.45 0.0
Ag1 Ag+1 0.5 0 0 1 0.0
Bi2 Bi+3 0.5 0 0.5 0.545 0.0
Bi1 Bi+3 0.76804 0 0.18188 1 0.0
S1 S-2 0.1479 0 0.0571 1 0.0
Br2 Br-1 0.41792 0 0.2391 0.455 0.0
