#------------------------------------------------------------------------------
#$Date: 2018-09-27 07:13:35 +0300 (Thu, 27 Sep 2018) $
#$Revision: 211196 $
#$URL: file:///home/coder/svn-repositories/cod/cif/1/50/94/1509483.cif $
#------------------------------------------------------------------------------
#
# This file is available in the Crystallography Open Database (COD),
# http://www.crystallography.net/
#
# All data on this site have been placed in the public domain by the
# contributors.
#
data_1509483
loop_
_publ_author_name
'Schieber, M.'
'Felner, I.'
_publ_section_title
;
 Ferromagnetic rare-earth and diamagnetic iron sublattices in R Fe.67
 Ge1.33 type compounds
;
_journal_name_full               'Solid State Communications'
_journal_page_first              457
_journal_page_last               461
_journal_paper_doi               10.1016/0038-1098(73)90475-4
_journal_volume                  13
_journal_year                    1973
_chemical_formula_sum            'Ag Nd Si'
_space_group_IT_number           191
_symmetry_space_group_name_Hall  '-P 6 2'
_symmetry_space_group_name_H-M   'P 6/m m m'
_cell_angle_alpha                90
_cell_angle_beta                 90
_cell_angle_gamma                120
_cell_formula_units_Z            1
_cell_length_a                   4.244
_cell_length_b                   4.244
_cell_length_c                   4.138
_cell_volume                     64.546
_citation_journal_id_ASTM        SSCOA4
_cod_data_source_file            silver1-2_455.cif
_cod_data_source_block           Ag1Nd1Si1
_cod_original_cell_volume        64.54638
_cod_original_formula_sum        'Ag1 Nd1 Si1'
_cod_database_code               1509483
loop_
_symmetry_equiv_pos_as_xyz
x,y,z
x-y,x,z
-y,x-y,z
-x,-y,z
-x+y,-x,z
y,-x+y,z
-y,-x,-z
x-y,-y,-z
x,x-y,-z
y,x,-z
-x+y,y,-z
-x,-x+y,-z
-x,-y,-z
-x+y,-x,-z
y,-x+y,-z
x,y,-z
x-y,x,-z
-y,x-y,-z
y,x,z
-x+y,y,z
-x,-x+y,z
-y,-x,z
x-y,-y,z
x,x-y,z
loop_
_atom_site_label
_atom_site_type_symbol
_atom_site_fract_x
_atom_site_fract_y
_atom_site_fract_z
_atom_site_occupancy
_atom_site_U_iso_or_equiv
Si1 Si-4 0.3333 0.6667 0.5 0.5 0.0
Nd1 Nd+3 0 0 0 1 0.0
Ag1 Ag+1 0.3333 0.6667 0.5 0.5 0.0
