#------------------------------------------------------------------------------
#$Date: 2016-02-14 16:26:36 +0200 (Sun, 14 Feb 2016) $
#$Revision: 176435 $
#$URL: svn://www.crystallography.net/cod/cif/1/50/93/1509373.cif $
#------------------------------------------------------------------------------
#
# This file is available in the Crystallography Open Database (COD),
# http://www.crystallography.net/
#
# All data on this site have been placed in the public domain by the
# contributors.
#
data_1509373
loop_
_publ_author_name
'Hull, S.'
'Keen, D.A.'
_publ_section_title
;
 Structural characterization of further high temperature superionic phases
 of Ag2 Hg I4 and Cu2 Hg I4
;
_journal_name_full               'Journal of Physics: Condensed Matter'
_journal_page_first              5597
_journal_page_last               5610
_journal_volume                  13
_journal_year                    2001
_chemical_formula_sum            'Ag Hg0.5 I2'
_chemical_name_systematic        '(Ag0.313 Hg0.157) (Ag0.687 Hg0.343) I2'
_space_group_IT_number           194
_symmetry_space_group_name_Hall  '-P 6c 2c'
_symmetry_space_group_name_H-M   'P 63/m m c'
_cell_angle_alpha                90
_cell_angle_beta                 90
_cell_angle_gamma                120
_cell_formula_units_Z            1
_cell_length_a                   4.4833
_cell_length_b                   4.4833
_cell_length_c                   7.3252
_cell_volume                     127.510
_citation_journal_id_ASTM        JCOMEL
_cod_data_source_file            silver1-2_298.cif
_cod_data_source_block           Ag1Hg0.5I2
_cod_original_cell_volume        127.5104
_cod_original_formula_sum        'Ag1 Hg0.5 I2'
_cod_database_code               1509373
loop_
_symmetry_equiv_pos_as_xyz
x,y,z
x-y,x,z+1/2
-y,x-y,z
-x,-y,z+1/2
-x+y,-x,z
y,-x+y,z+1/2
-y,-x,-z+1/2
x-y,-y,-z
x,x-y,-z+1/2
y,x,-z
-x+y,y,-z+1/2
-x,-x+y,-z
-x,-y,-z
-x+y,-x,-z-1/2
y,-x+y,-z
x,y,-z-1/2
x-y,x,-z
-y,x-y,-z-1/2
y,x,z-1/2
-x+y,y,z
-x,-x+y,z-1/2
-y,-x,z
x-y,-y,z-1/2
x,x-y,z
loop_
_atom_site_label
_atom_site_type_symbol
_atom_site_fract_x
_atom_site_fract_y
_atom_site_fract_z
_atom_site_occupancy
_atom_site_U_iso_or_equiv
Hg1 Hg+2 0 0 0 0.0785 0.0
Hg2 Hg+2 0.3333 0.6667 0.632 0.0858 0.0
Ag2 Ag+1 0.3333 0.6667 0.632 0.1717 0.0
Ag1 Ag+1 0 0 0 0.157 0.0
I1 I-1 0.3333 0.6667 0.25 1 0.0
