#------------------------------------------------------------------------------
#$Date: 2018-09-27 07:13:35 +0300 (Thu, 27 Sep 2018) $
#$Revision: 211196 $
#$URL: file:///home/coder/svn-repositories/cod/cif/1/50/99/1509914.cif $
#------------------------------------------------------------------------------
#
# This file is available in the Crystallography Open Database (COD),
# http://www.crystallography.net/
#
# All data on this site have been placed in the public domain by the
# contributors.
#
data_1509914
loop_
_publ_author_name
'Woll, P.'
'Cordier, G.'
_publ_section_title
;
 Neue intermetallische Verbindungen mit Clathratstruktur: Ba8 (T, Si)6
 Si40 und Ba6 (T, Ge)6 Ge40 mit T= Ni, Pd, Pt, Cu, Ag, Au
;
_journal_name_full               'Journal of the Less-Common Metals'
_journal_page_first              291
_journal_page_last               302
_journal_paper_doi               10.1016/0022-5088(91)90076-G
_journal_volume                  169
_journal_year                    1991
_chemical_formula_sum            'Ag3 Ba4 Ge20'
_space_group_IT_number           223
_symmetry_space_group_name_Hall  '-P 4n 2 3'
_symmetry_space_group_name_H-M   'P m -3 n'
_cell_angle_alpha                90
_cell_angle_beta                 90
_cell_angle_gamma                90
_cell_formula_units_Z            2
_cell_length_a                   10.84
_cell_length_b                   10.84
_cell_length_c                   10.84
_cell_volume                     1273.761
_citation_journal_id_ASTM        JCOMAH
_cod_data_source_file            silver3-x_20.cif
_cod_data_source_block           Ag3Ba4Ge20
_cod_database_code               1509914
loop_
_symmetry_equiv_pos_as_xyz
x,y,z
-y+1/2,x+1/2,z+1/2
-x,-y,z
y+1/2,-x+1/2,z+1/2
x,-y,-z
y+1/2,x+1/2,-z+1/2
-x,y,-z
-y+1/2,-x+1/2,-z+1/2
z,x,y
-x+1/2,z+1/2,y+1/2
-z,-x,y
x+1/2,-z+1/2,y+1/2
z,-x,-y
x+1/2,z+1/2,-y+1/2
-z,x,-y
-x+1/2,-z+1/2,-y+1/2
y,z,x
y,-z,-x
z+1/2,y+1/2,-x+1/2
-y,z,-x
-z+1/2,-y+1/2,-x+1/2
-y,-z,x
z+1/2,-y+1/2,x+1/2
-z+1/2,y+1/2,x+1/2
-x,-y,-z
y-1/2,-x-1/2,-z-1/2
x,y,-z
-y-1/2,x-1/2,-z-1/2
-x,y,z
-y-1/2,-x-1/2,z-1/2
x,-y,z
y-1/2,x-1/2,z-1/2
-z,-x,-y
x-1/2,-z-1/2,-y-1/2
z,x,-y
-x-1/2,z-1/2,-y-1/2
-z,x,y
-x-1/2,-z-1/2,y-1/2
z,-x,y
x-1/2,z-1/2,y-1/2
-y,-z,-x
-y,z,x
-z-1/2,-y-1/2,x-1/2
y,-z,x
z-1/2,y-1/2,x-1/2
y,z,-x
-z-1/2,y-1/2,-x-1/2
z-1/2,-y-1/2,-x-1/2
loop_
_atom_site_label
_atom_site_type_symbol
_atom_site_fract_x
_atom_site_fract_y
_atom_site_fract_z
_atom_site_occupancy
_atom_site_U_iso_or_equiv
Ba1 Ba 0 0 0 1 0.0
Ba2 Ba 0.25 0.5 0 1 0.0
Ge1 Ge 0.183 0.183 0.183 1 0.0
Ge2 Ge 0 0.3075 0.1167 1 0.0
Ag1 Ag 0.25 0 0.5 1 0.0
