#------------------------------------------------------------------------------
#$Date: 2016-02-14 16:26:36 +0200 (Sun, 14 Feb 2016) $
#$Revision: 176435 $
#$URL: svn://www.crystallography.net/cod/cif/1/50/90/1509029.cif $
#------------------------------------------------------------------------------
#
# This file is available in the Crystallography Open Database (COD),
# http://www.crystallography.net/
#
# All data on this site have been placed in the public domain by the
# contributors.
#
data_1509029
loop_
_publ_author_name
'Kotur, B.Ya.'
'Verbovits'kii, Yu.V.'
_publ_section_title
;
 Phase equilibria and the crystal structure of compounds in the (Ti, Hf) -
 Ag - Ga systems
;
_journal_name_full               'Dopov. Nats. Akad. Nauk. Ukr.'
_journal_page_first              132
_journal_page_last               136
_journal_volume                  2003
_journal_year                    2003
_chemical_formula_sum            'Ag0.72 Ga2.28 Hf'
_chemical_name_systematic        'Hafnium silver gallium (1/0.72/2.28)'
_space_group_IT_number           221
_symmetry_space_group_name_Hall  '-P 4 2 3'
_symmetry_space_group_name_H-M   'P m -3 m'
_cell_angle_alpha                90
_cell_angle_beta                 90
_cell_angle_gamma                90
_cell_formula_units_Z            1
_cell_length_a                   4.0725
_cell_length_b                   4.0725
_cell_length_c                   4.0725
_cell_volume                     67.543
_citation_journal_id_ASTM        DNAUFL
_cod_data_source_file            silver0-1_156.cif
_cod_data_source_block           Ag0.72Ga2.28Hf1
_cod_original_cell_volume        67.54346
_cod_original_formula_sum        'Ag0.72 Ga2.28 Hf1'
_cod_database_code               1509029
loop_
_symmetry_equiv_pos_as_xyz
x,y,z
-y,x,z
-x,-y,z
y,-x,z
x,-y,-z
y,x,-z
-x,y,-z
-y,-x,-z
z,x,y
-x,z,y
-z,-x,y
x,-z,y
z,-x,-y
x,z,-y
-z,x,-y
-x,-z,-y
y,z,x
y,-z,-x
z,y,-x
-y,z,-x
-z,-y,-x
-y,-z,x
z,-y,x
-z,y,x
-x,-y,-z
y,-x,-z
x,y,-z
-y,x,-z
-x,y,z
-y,-x,z
x,-y,z
y,x,z
-z,-x,-y
x,-z,-y
z,x,-y
-x,z,-y
-z,x,y
-x,-z,y
z,-x,y
x,z,y
-y,-z,-x
-y,z,x
-z,-y,x
y,-z,x
z,y,x
y,z,-x
-z,y,-x
z,-y,-x
loop_
_atom_site_label
_atom_site_type_symbol
_atom_site_fract_x
_atom_site_fract_y
_atom_site_fract_z
_atom_site_occupancy
Ga1 Ga 0 0.5 0.5 0.76
Hf1 Hf 0 0 0 1
Ag1 Ag 0 0.5 0.5 0.24
