#------------------------------------------------------------------------------
#$Date: 2016-02-14 16:26:36 +0200 (Sun, 14 Feb 2016) $
#$Revision: 176435 $
#$URL: svn://www.crystallography.net/cod/cif/1/50/94/1509453.cif $
#------------------------------------------------------------------------------
#
# This file is available in the Crystallography Open Database (COD),
# http://www.crystallography.net/
#
# All data on this site have been placed in the public domain by the
# contributors.
#
data_1509453
loop_
_publ_author_name
'Matsuo, Y.'
'Katada, K.'
_publ_section_title
;
 Phase relation in the ternary alloy Ag2 Mg Zn
;
_journal_name_full               'Journal of the Physical Society of Japan'
_journal_page_first              281
_journal_page_last               281
_journal_paper_doi               10.1143/JPSJ.38.281
_journal_volume                  38
_journal_year                    1975
_chemical_formula_sum            'Ag Mg0.5 Zn0.5'
_chemical_name_systematic        'Ag (Mg0.5 Zn0.5)'
_space_group_IT_number           221
_symmetry_space_group_name_Hall  '-P 4 2 3'
_symmetry_space_group_name_H-M   'P m -3 m'
_cell_angle_alpha                90
_cell_angle_beta                 90
_cell_angle_gamma                90
_cell_formula_units_Z            1
_cell_length_a                   3.218
_cell_length_b                   3.218
_cell_length_c                   3.218
_cell_volume                     33.324
_citation_journal_id_ASTM        JUPSAU
_cod_data_source_file            silver1-2_410.cif
_cod_data_source_block           Ag1Mg0.5Zn0.5
_cod_original_cell_volume        33.32407
_cod_original_formula_sum        'Ag1 Mg0.5 Zn0.5'
_cod_database_code               1509453
loop_
_symmetry_equiv_pos_as_xyz
x,y,z
-y,x,z
-x,-y,z
y,-x,z
x,-y,-z
y,x,-z
-x,y,-z
-y,-x,-z
z,x,y
-x,z,y
-z,-x,y
x,-z,y
z,-x,-y
x,z,-y
-z,x,-y
-x,-z,-y
y,z,x
y,-z,-x
z,y,-x
-y,z,-x
-z,-y,-x
-y,-z,x
z,-y,x
-z,y,x
-x,-y,-z
y,-x,-z
x,y,-z
-y,x,-z
-x,y,z
-y,-x,z
x,-y,z
y,x,z
-z,-x,-y
x,-z,-y
z,x,-y
-x,z,-y
-z,x,y
-x,-z,y
z,-x,y
x,z,y
-y,-z,-x
-y,z,x
-z,-y,x
y,-z,x
z,y,x
y,z,-x
-z,y,-x
z,-y,-x
loop_
_atom_site_label
_atom_site_type_symbol
_atom_site_fract_x
_atom_site_fract_y
_atom_site_fract_z
_atom_site_occupancy
_atom_site_U_iso_or_equiv
Mg1 Mg 0.5 0.5 0.5 0.5 0.0
Zn1 Zn 0.5 0.5 0.5 0.5 0.0
Ag1 Ag 0 0 0 1 0.0
