#------------------------------------------------------------------------------
#$Date: 2018-09-27 07:13:35 +0300 (Thu, 27 Sep 2018) $
#$Revision: 211196 $
#$URL: file:///home/coder/svn-repositories/cod/cif/1/50/95/1509592.cif $
#------------------------------------------------------------------------------
#
# This file is available in the Crystallography Open Database (COD),
# http://www.crystallography.net/
#
# All data on this site have been placed in the public domain by the
# contributors.
#
data_1509592
loop_
_publ_author_name
'Folmer, J.C.W.'
'Hofman, P.'
'Wiegers, G.A.'
_publ_section_title
;
 Order-disorder transitions in the system Ag2-x Aux S (0<x<1)
;
_journal_name_full               'Journal of the Less-Common Metals'
_journal_page_first              251
_journal_page_last               268
_journal_paper_doi               10.1016/0022-5088(76)90007-2
_journal_volume                  48
_journal_year                    1976
_chemical_formula_sum            'Ag1.43 Au0.66 S'
_space_group_IT_number           224
_symmetry_space_group_name_Hall  'P 4n 2 3 -1n'
_symmetry_space_group_name_H-M   'P n -3 m :1'
_cell_angle_alpha                90
_cell_angle_beta                 90
_cell_angle_gamma                90
_cell_formula_units_Z            2
_cell_length_a                   4.95
_cell_length_b                   4.95
_cell_length_c                   4.95
_cell_volume                     121.287
_citation_journal_id_ASTM        JCOMAH
_cod_data_source_file            silver1-2_596.cif
_cod_data_source_block           Ag1.43Au0.66S1
_cod_original_cell_volume        121.2874
_cod_original_sg_symbol_Hall     '-P 4bc 2bc 3 (x+1/4,y+1/4,z+1/4)'
_cod_original_formula_sum        'Ag1.43 Au0.66 S1'
_cod_database_code               1509592
loop_
_symmetry_equiv_pos_as_xyz
x,y,z
-y+1/2,x+1/2,z+1/2
-x,-y,z
y+1/2,-x+1/2,z+1/2
x,-y,-z
y+1/2,x+1/2,-z+1/2
-x,y,-z
-y+1/2,-x+1/2,-z+1/2
z,x,y
-x+1/2,z+1/2,y+1/2
-z,-x,y
x+1/2,-z+1/2,y+1/2
z,-x,-y
x+1/2,z+1/2,-y+1/2
-z,x,-y
-x+1/2,-z+1/2,-y+1/2
y,z,x
y,-z,-x
z+1/2,y+1/2,-x+1/2
-y,z,-x
-z+1/2,-y+1/2,-x+1/2
-y,-z,x
z+1/2,-y+1/2,x+1/2
-z+1/2,y+1/2,x+1/2
-x+1/2,-y+1/2,-z+1/2
y,-x,-z
x+1/2,y+1/2,-z+1/2
-y,x,-z
-x+1/2,y+1/2,z+1/2
-y,-x,z
x+1/2,-y+1/2,z+1/2
y,x,z
-z+1/2,-x+1/2,-y+1/2
x,-z,-y
z+1/2,x+1/2,-y+1/2
-x,z,-y
-z+1/2,x+1/2,y+1/2
-x,-z,y
z+1/2,-x+1/2,y+1/2
x,z,y
-y+1/2,-z+1/2,-x+1/2
-y+1/2,z+1/2,x+1/2
-z,-y,x
y+1/2,-z+1/2,x+1/2
z,y,x
y+1/2,z+1/2,-x+1/2
-z,y,-x
z,-y,-x
loop_
_atom_site_label
_atom_site_type_symbol
_atom_site_fract_x
_atom_site_fract_y
_atom_site_fract_z
_atom_site_occupancy
_atom_site_U_iso_or_equiv
Au1 Au+1 0.25 0.25 0.25 0.332 0.0
S1 S-2 0 0 0 1 0.0
Ag1 Ag+1 0.25 0 0.5 0.12 0.0
Ag2 Ag+1 0.625 0.625 0 0.059 0.0
