#------------------------------------------------------------------------------
#$Date: 2018-09-27 07:13:35 +0300 (Thu, 27 Sep 2018) $
#$Revision: 211196 $
#$URL: file:///home/coder/svn-repositories/cod/cif/1/50/97/1509772.cif $
#------------------------------------------------------------------------------
#
# This file is available in the Crystallography Open Database (COD),
# http://www.crystallography.net/
#
# All data on this site have been placed in the public domain by the
# contributors.
#
data_1509772
loop_
_publ_author_name
'Mayer, H.M.'
'Gottwick, U.'
'Rauchschwalbe, U.'
'Alheim, U.'
'Steglich, F.'
_publ_section_title
;
 Investigation of new lanthanum-, cerium- and uranium-based ternary
 intermetallics
;
_journal_name_full               'Journal of the Less-Common Metals'
_journal_page_first              265
_journal_page_last               275
_journal_paper_doi               10.1016/0022-5088(85)90197-3
_journal_volume                  111
_journal_year                    1985
_chemical_formula_sum            'Ag2 Ce Ge2'
_space_group_IT_number           139
_symmetry_space_group_name_Hall  '-I 4 2'
_symmetry_space_group_name_H-M   'I 4/m m m'
_cell_angle_alpha                90
_cell_angle_beta                 90
_cell_angle_gamma                90
_cell_formula_units_Z            2
_cell_length_a                   4.3
_cell_length_b                   4.3
_cell_length_c                   10.98
_cell_volume                     203.020
_citation_journal_id_ASTM        JCOMAH
_cod_data_source_file            silver2-3_38.cif
_cod_data_source_block           Ag2Ce1Ge2
_cod_original_cell_volume        203.0202
_cod_original_formula_sum        'Ag2 Ce1 Ge2'
_cod_database_code               1509772
loop_
_symmetry_equiv_pos_as_xyz
x,y,z
-y,x,z
-x,-y,z
y,-x,z
x,-y,-z
y,x,-z
-x,y,-z
-y,-x,-z
-x,-y,-z
y,-x,-z
x,y,-z
-y,x,-z
-x,y,z
-y,-x,z
x,-y,z
y,x,z
x+1/2,y+1/2,z+1/2
-y+1/2,x+1/2,z+1/2
-x+1/2,-y+1/2,z+1/2
y+1/2,-x+1/2,z+1/2
x+1/2,-y+1/2,-z+1/2
y+1/2,x+1/2,-z+1/2
-x+1/2,y+1/2,-z+1/2
-y+1/2,-x+1/2,-z+1/2
-x+1/2,-y+1/2,-z+1/2
y+1/2,-x+1/2,-z+1/2
x+1/2,y+1/2,-z+1/2
-y+1/2,x+1/2,-z+1/2
-x+1/2,y+1/2,z+1/2
-y+1/2,-x+1/2,z+1/2
x+1/2,-y+1/2,z+1/2
y+1/2,x+1/2,z+1/2
loop_
_atom_site_label
_atom_site_type_symbol
_atom_site_fract_x
_atom_site_fract_y
_atom_site_fract_z
_atom_site_occupancy
_atom_site_U_iso_or_equiv
Ge1 Ge 0 0 0.38 1 0.0
Ce1 Ce 0 0 0 1 0.0
Ag1 Ag 0 0.5 0.25 1 0.0
