#------------------------------------------------------------------------------
#$Date: 2016-02-14 16:26:36 +0200 (Sun, 14 Feb 2016) $
#$Revision: 176435 $
#$URL: svn://www.crystallography.net/cod/cif/1/50/93/1509356.cif $
#------------------------------------------------------------------------------
#
# This file is available in the Crystallography Open Database (COD),
# http://www.crystallography.net/
#
# All data on this site have been placed in the public domain by the
# contributors.
#
data_1509356
loop_
_publ_author_name
'Rogl, P.'
'Eibler, R.'
'Grin', Yu.N.'
'Hiebl, K.'
_publ_section_title
;
 Ternary gallides RE Agx Ga4-x (RE= La, Ce, Pr, Nd, Sm)
;
_journal_name_full               'Journal of the Less-Common Metals'
_journal_page_first              367
_journal_page_last               372
_journal_paper_doi               10.1016/0022-5088(86)90160-8
_journal_volume                  115
_journal_year                    1986
_chemical_formula_sum            'Ag Ga3 Sm'
_chemical_name_systematic        '(Ag Ga3) Sm'
_space_group_IT_number           139
_symmetry_space_group_name_Hall  '-I 4 2'
_symmetry_space_group_name_H-M   'I 4/m m m'
_cell_angle_alpha                90
_cell_angle_beta                 90
_cell_angle_gamma                90
_cell_formula_units_Z            2
_cell_length_a                   4.226
_cell_length_b                   4.226
_cell_length_c                   10.859
_cell_volume                     193.932
_citation_journal_id_ASTM        JCOMAH
_cod_data_source_file            silver1-2_278.cif
_cod_data_source_block           Ag1Ga3Sm1
_cod_original_cell_volume        193.9317
_cod_original_formula_sum        'Ag1 Ga3 Sm1'
_cod_database_code               1509356
loop_
_symmetry_equiv_pos_as_xyz
x,y,z
-y,x,z
-x,-y,z
y,-x,z
x,-y,-z
y,x,-z
-x,y,-z
-y,-x,-z
-x,-y,-z
y,-x,-z
x,y,-z
-y,x,-z
-x,y,z
-y,-x,z
x,-y,z
y,x,z
x+1/2,y+1/2,z+1/2
-y+1/2,x+1/2,z+1/2
-x+1/2,-y+1/2,z+1/2
y+1/2,-x+1/2,z+1/2
x+1/2,-y+1/2,-z+1/2
y+1/2,x+1/2,-z+1/2
-x+1/2,y+1/2,-z+1/2
-y+1/2,-x+1/2,-z+1/2
-x+1/2,-y+1/2,-z+1/2
y+1/2,-x+1/2,-z+1/2
x+1/2,y+1/2,-z+1/2
-y+1/2,x+1/2,-z+1/2
-x+1/2,y+1/2,z+1/2
-y+1/2,-x+1/2,z+1/2
x+1/2,-y+1/2,z+1/2
y+1/2,x+1/2,z+1/2
loop_
_atom_site_label
_atom_site_type_symbol
_atom_site_fract_x
_atom_site_fract_y
_atom_site_fract_z
_atom_site_occupancy
_atom_site_U_iso_or_equiv
Ga1 Ga 0 0.5 0.25 0.75 0.0
Sm1 Sm 0 0 0 1 0.0
Ag1 Ag 0 0.5 0.25 0.25 0.0
Ag2 Ag 0 0 0.38 0.25 0.0
Ga2 Ga 0 0 0.38 0.75 0.0
