#------------------------------------------------------------------------------
#$Date: 2016-02-14 16:26:36 +0200 (Sun, 14 Feb 2016) $
#$Revision: 176435 $
#$URL: svn://www.crystallography.net/cod/cif/1/50/93/1509330.cif $
#------------------------------------------------------------------------------
#
# This file is available in the Crystallography Open Database (COD),
# http://www.crystallography.net/
#
# All data on this site have been placed in the public domain by the
# contributors.
#
data_1509330
loop_
_publ_author_name
'Tamada, O.'
'Matsumoto, K.'
'Hagiwara, R.'
'Ito, Y.'
_publ_section_title
;
 Crystal structures of Ag A F6 (A = P, As, Sb, Nb, Ta) at ambient
 temperatures
;
_journal_name_full               'Journal of Fluorine Chemistry'
_journal_page_first              117
_journal_page_last               122
_journal_paper_doi               10.1016/S0022-1139(01)00418-3
_journal_volume                  110
_journal_year                    2001
_chemical_formula_sum            'Ag F6 Sb'
_chemical_name_systematic        'Ag (Sb F6)'
_space_group_IT_number           206
_symmetry_space_group_name_Hall  '-I 2b 2c 3'
_symmetry_space_group_name_H-M   'I a -3'
_cell_angle_alpha                90
_cell_angle_beta                 90
_cell_angle_gamma                90
_cell_formula_units_Z            8
_cell_length_a                   9.7985
_cell_length_b                   9.7985
_cell_length_c                   9.7985
_cell_volume                     940.760
_citation_journal_id_ASTM        JFLCAR
_cod_data_source_file            silver1-2_247.cif
_cod_data_source_block           Ag1F6Sb1
_cod_original_cell_volume        940.7599
_cod_original_formula_sum        'Ag1 F6 Sb1'
_cod_database_code               1509330
loop_
_symmetry_equiv_pos_as_xyz
x,y,z
-x,-y+1/2,z
x,-y,-z+1/2
-x,y+1/2,-z+1/2
z,x,y
-z,-x+1/2,y
z,-x,-y+1/2
-z,x+1/2,-y+1/2
y,z,x
y,-z,-x+1/2
-y,z+1/2,-x+1/2
-y+1/2,-z,x+1/2
-x,-y,-z
x,y-1/2,-z
-x,y,z-1/2
x,-y-1/2,z-1/2
-z,-x,-y
z,x-1/2,-y
-z,x,y-1/2
z,-x-1/2,y-1/2
-y,-z,-x
-y,z,x-1/2
y,-z-1/2,x-1/2
y-1/2,z,-x-1/2
x+1/2,y+1/2,z+1/2
-x+1/2,-y+1,z+1/2
x+1/2,-y+1/2,-z+1
-x+1/2,y+1,-z+1
z+1/2,x+1/2,y+1/2
-z+1/2,-x+1,y+1/2
z+1/2,-x+1/2,-y+1
-z+1/2,x+1,-y+1
y+1/2,z+1/2,x+1/2
y+1/2,-z+1/2,-x+1
-y+1/2,z+1,-x+1
-y+1,-z+1/2,x+1
-x+1/2,-y+1/2,-z+1/2
x+1/2,y,-z+1/2
-x+1/2,y+1/2,z
x+1/2,-y,z
-z+1/2,-x+1/2,-y+1/2
z+1/2,x,-y+1/2
-z+1/2,x+1/2,y
z+1/2,-x,y
-y+1/2,-z+1/2,-x+1/2
-y+1/2,z+1/2,x
y+1/2,-z,x
y,z+1/2,-x
loop_
_atom_site_label
_atom_site_type_symbol
_atom_site_fract_x
_atom_site_fract_y
_atom_site_fract_z
_atom_site_occupancy
_atom_site_U_iso_or_equiv
F1 F-1 0.4368 0.1128 0.358 1 0.0
Ag1 Ag+1 0.25 0.25 0.25 1 0.0
Sb1 Sb+5 0 0 0 1 0.0
