#------------------------------------------------------------------------------
#$Date: 2018-09-27 07:13:35 +0300 (Thu, 27 Sep 2018) $
#$Revision: 211196 $
#$URL: file:///home/coder/svn-repositories/cod/cif/1/50/98/1509806.cif $
#------------------------------------------------------------------------------
#
# This file is available in the Crystallography Open Database (COD),
# http://www.crystallography.net/
#
# All data on this site have been placed in the public domain by the
# contributors.
#
data_1509806
loop_
_publ_author_name
'Marazza, R.'
'Ferro, R.'
'Rossi, D.'
_publ_section_title
;
 Ternary R Me2 X2 alloys of the rare earths with the precious metals and
 silicon (or germanium)
;
_journal_name_full               'Journal of the Less-Common Metals'
_journal_page_first              17
_journal_page_last               25
_journal_volume                  66
_journal_year                    1979
_chemical_formula_sum            'Ag2 Gd Si2'
_space_group_IT_number           139
_symmetry_space_group_name_Hall  '-I 4 2'
_symmetry_space_group_name_H-M   'I 4/m m m'
_cell_angle_alpha                90
_cell_angle_beta                 90
_cell_angle_gamma                90
_cell_formula_units_Z            2
_cell_length_a                   4.151
_cell_length_b                   4.151
_cell_length_c                   10.709
_cell_volume                     184.525
_citation_journal_id_ASTM        JCOMAH
_cod_data_source_file            silver2-3_76.cif
_cod_data_source_block           Ag2Gd1Si2
_cod_original_cell_volume        184.5246
_cod_original_formula_sum        'Ag2 Gd1 Si2'
_cod_database_code               1509806
loop_
_symmetry_equiv_pos_as_xyz
x,y,z
-y,x,z
-x,-y,z
y,-x,z
x,-y,-z
y,x,-z
-x,y,-z
-y,-x,-z
-x,-y,-z
y,-x,-z
x,y,-z
-y,x,-z
-x,y,z
-y,-x,z
x,-y,z
y,x,z
x+1/2,y+1/2,z+1/2
-y+1/2,x+1/2,z+1/2
-x+1/2,-y+1/2,z+1/2
y+1/2,-x+1/2,z+1/2
x+1/2,-y+1/2,-z+1/2
y+1/2,x+1/2,-z+1/2
-x+1/2,y+1/2,-z+1/2
-y+1/2,-x+1/2,-z+1/2
-x+1/2,-y+1/2,-z+1/2
y+1/2,-x+1/2,-z+1/2
x+1/2,y+1/2,-z+1/2
-y+1/2,x+1/2,-z+1/2
-x+1/2,y+1/2,z+1/2
-y+1/2,-x+1/2,z+1/2
x+1/2,-y+1/2,z+1/2
y+1/2,x+1/2,z+1/2
loop_
_atom_site_label
_atom_site_type_symbol
_atom_site_fract_x
_atom_site_fract_y
_atom_site_fract_z
_atom_site_occupancy
_atom_site_U_iso_or_equiv
Si1 Si 0 0 0.375 1 0.0
Ag1 Ag 0 0.5 0.25 1 0.0
Gd1 Gd 0 0 0 1 0.0
