#------------------------------------------------------------------------------
#$Date: 2018-09-27 07:13:35 +0300 (Thu, 27 Sep 2018) $
#$Revision: 211196 $
#$URL: file:///home/coder/svn-repositories/cod/cif/1/50/91/1509188.cif $
#------------------------------------------------------------------------------
#
# This file is available in the Crystallography Open Database (COD),
# http://www.crystallography.net/
#
# All data on this site have been placed in the public domain by the
# contributors.
#
data_1509188
loop_
_publ_author_name
'Bodak, O.I.'
'Gschneidner, K.A.jr.'
'Protsyk, A.S.'
'Pecharskii, V.K.'
_publ_section_title
;
 The crystal structure, heat capacity (1.5-80 K) and magnetic
 susceptibility (1.6-300 K) of La Ag Ge and Ce Ag Ge
;
_journal_name_full               'Journal of the Less-Common Metals'
_journal_page_first              257
_journal_page_last               267
_journal_paper_doi               10.1016/0022-5088(91)90307-P
_journal_volume                  168
_journal_year                    1991
_chemical_formula_sum            'Ag Ce Ge'
_space_group_IT_number           186
_symmetry_space_group_name_Hall  'P 6c -2c'
_symmetry_space_group_name_H-M   'P 63 m c'
_cell_angle_alpha                90
_cell_angle_beta                 90
_cell_angle_gamma                120
_cell_formula_units_Z            2
_cell_length_a                   4.5442
_cell_length_b                   4.5442
_cell_length_c                   7.7108
_cell_volume                     137.894
_citation_journal_id_ASTM        JCOMAH
_cod_data_source_file            silver1-2_150.cif
_cod_data_source_block           Ag1Ce1Ge1
_cod_original_cell_volume        137.8939
_cod_original_formula_sum        'Ag1 Ce1 Ge1'
_cod_database_code               1509188
loop_
_symmetry_equiv_pos_as_xyz
x,y,z
x-y,x,z+1/2
-y,x-y,z
-x,-y,z+1/2
-x+y,-x,z
y,-x+y,z+1/2
y,x,z+1/2
-x+y,y,z
-x,-x+y,z+1/2
-y,-x,z
x-y,-y,z+1/2
x,x-y,z
loop_
_atom_site_label
_atom_site_type_symbol
_atom_site_fract_x
_atom_site_fract_y
_atom_site_fract_z
_atom_site_occupancy
_atom_site_U_iso_or_equiv
Ce1 Ce+3 0 0 0.25 1 0.0
Ag1 Ag+1 0.3333 0.6667 0.0052 1 0.0
Ge1 Ge-4 0.3333 0.6667 0.4547 1 0.0
