#------------------------------------------------------------------------------
#$Date: 2016-02-13 21:28:24 +0200 (Sat, 13 Feb 2016) $
#$Revision: 176429 $
#$URL: svn://www.crystallography.net/cod/cif/1/50/90/1509092.cif $
#------------------------------------------------------------------------------
#
# This file is available in the Crystallography Open Database (COD),
# http://www.crystallography.net/
#
# All data on this site have been placed in the public domain by the
# contributors.
#
data_1509092
loop_
_publ_author_name
'Mabuchi, K.'
'Nakayama, Y.'
_publ_section_title
;
 Development of Al-Ti-X ternary L1~2~ intermetallic compounds
;
_journal_coden_ASTM              NKZKAU
_journal_issue                   1
_journal_name_full               'Nippon Kinzoku Gakkai Kaiho'
_journal_page_first              24
_journal_page_last               30
_journal_paper_doi               10.2320/materia1962.30.24
_journal_volume                  30
_journal_year                    1991
_chemical_formula_sum            'Ag0.32 Al2.68 Ti'
_chemical_name_systematic        'Silver aluminum titanium (0.32/2.68/1)'
_space_group_IT_number           221
_symmetry_space_group_name_Hall  '-P 4 2 3'
_symmetry_space_group_name_H-M   'P m -3 m'
_cell_angle_alpha                90
_cell_angle_beta                 90
_cell_angle_gamma                90
_cell_formula_units_Z            1
_cell_length_a                   3.99
_cell_length_b                   3.99
_cell_length_c                   3.99
_cell_volume                     63.521
_citation_journal_id_ASTM        NKZKAU
_cod_data_source_file            silver0-1_54.cif
_cod_data_source_block           Ag0.32Al2.68Ti1
_cod_original_cell_volume        63.5212
_cod_original_formula_sum        'Ag0.32 Al2.68 Ti1'
_cod_database_code               1509092
loop_
_symmetry_equiv_pos_as_xyz
x,y,z
-y,x,z
-x,-y,z
y,-x,z
x,-y,-z
y,x,-z
-x,y,-z
-y,-x,-z
z,x,y
-x,z,y
-z,-x,y
x,-z,y
z,-x,-y
x,z,-y
-z,x,-y
-x,-z,-y
y,z,x
y,-z,-x
z,y,-x
-y,z,-x
-z,-y,-x
-y,-z,x
z,-y,x
-z,y,x
-x,-y,-z
y,-x,-z
x,y,-z
-y,x,-z
-x,y,z
-y,-x,z
x,-y,z
y,x,z
-z,-x,-y
x,-z,-y
z,x,-y
-x,z,-y
-z,x,y
-x,-z,y
z,-x,y
x,z,y
-y,-z,-x
-y,z,x
-z,-y,x
y,-z,x
z,y,x
y,z,-x
-z,y,-x
z,-y,-x
loop_
_atom_site_label
_atom_site_type_symbol
_atom_site_fract_x
_atom_site_fract_y
_atom_site_fract_z
_atom_site_occupancy
Al1 Al 0 0.5 0.5 0.893
Ti1 Ti 0 0 0 1
Ag1 Ag 0 0.5 0.5 0.107
