#------------------------------------------------------------------------------
#$Date: 2016-02-18 17:37:37 +0200 (Thu, 18 Feb 2016) $
#$Revision: 176729 $
#$URL: svn://www.crystallography.net/cod/cif/1/50/91/1509130.cif $
#------------------------------------------------------------------------------
#
# This file is available in the Crystallography Open Database (COD),
# http://www.crystallography.net/
#
# All data on this site have been placed in the public domain by the
# contributors.
#
data_1509130
loop_
_publ_author_name
'Krishna Rao, D.'
'Kasiviswanathan, S.'
'Gopalam, B.S.V.'
_publ_section_title
;
 Preparation and characterization of the pseudobinary system Cu1-x Agx In
 Te2
;
_journal_name_full               'Journal of Materials Science'
_journal_page_first              912
_journal_page_last               914
_journal_volume                  5
_journal_year                    1986
_chemical_formula_sum            'Ag0.5 Cu1.5 In2 Te4'
_chemical_name_systematic
'Silver copper indium telluride (0.5/1.5/2/4)'
_space_group_IT_number           122
_symmetry_space_group_name_Hall  'I -4 2bw'
_symmetry_space_group_name_H-M   'I -4 2 d'
_cell_angle_alpha                90
_cell_angle_beta                 90
_cell_angle_gamma                90
_cell_formula_units_Z            2
_cell_length_a                   6.271
_cell_length_b                   6.271
_cell_length_c                   12.5024
_cell_volume                     491.662
_citation_journal_id_ASTM        JMTSAS
_cod_data_source_file            silver0-1_99.cif
_cod_data_source_block           Ag0.5Cu1.5In2Te4
_cod_original_cell_volume        491.6624
_cod_database_code               1509130
loop_
_symmetry_equiv_pos_as_xyz
x,y,z
y,-x,-z
-x,-y,z
-y,x,-z
x,-y+1/2,-z+1/4
-y+1/2,-x,z+3/4
-x,y+1/2,-z+1/4
y+1/2,x,z+3/4
x+1/2,y+1/2,z+1/2
y+1/2,-x+1/2,-z+1/2
-x+1/2,-y+1/2,z+1/2
-y+1/2,x+1/2,-z+1/2
x+1/2,-y+1,-z+3/4
-y+1,-x+1/2,z+5/4
-x+1/2,y+1,-z+3/4
y+1,x+1/2,z+5/4
loop_
_atom_site_label
_atom_site_type_symbol
_atom_site_fract_x
_atom_site_fract_y
_atom_site_fract_z
_atom_site_occupancy
In1 In+3 0 0 0.5 1
Ag1 Ag+1 0 0 0 0.25
Te1 Te-2 0.2516 0.25 0.125 1
Cu1 Cu+1 0 0 0 0.75
