#------------------------------------------------------------------------------
#$Date: 2016-02-14 16:26:36 +0200 (Sun, 14 Feb 2016) $
#$Revision: 176435 $
#$URL: svn://www.crystallography.net/cod/cif/1/51/04/1510456.cif $
#------------------------------------------------------------------------------
#
# This file is available in the Crystallography Open Database (COD),
# http://www.crystallography.net/
#
# All data on this site have been placed in the public domain by the
# contributors.
#
data_1510456
loop_
_publ_author_name
'Jeitschko, W.'
'Eschen, M.'
_publ_section_title
;
 Au2 Pb P2, Au2 Tl P2 and Au2 Hg P2: ternary gold polyphosphides with
 lead, thallium and mercury in the oxidation state zero
;
_journal_name_full               'Journal of Solid State Chemistry'
_journal_page_first              238
_journal_page_last               246
_journal_paper_doi               10.1006/jssc.2001.9497
_journal_volume                  165
_journal_year                    2002
_chemical_formula_sum            'Au2 P2 Tl'
_chemical_name_systematic        'Au2 Tl P2'
_space_group_IT_number           63
_symmetry_space_group_name_Hall  '-C 2c 2'
_symmetry_space_group_name_H-M   'C m c m'
_cell_angle_alpha                90
_cell_angle_beta                 90
_cell_angle_gamma                90
_cell_formula_units_Z            4
_cell_length_a                   3.2407
_cell_length_b                   11.3607
_cell_length_c                   11.2215
_cell_volume                     413.138
_citation_journal_id_ASTM        JSSCBI
_cod_data_source_file            gold_550.cif
_cod_data_source_block           Au2P2Tl1
_cod_original_cell_volume        413.1377
_cod_original_formula_sum        'Au2 P2 Tl1'
_cod_database_code               1510456
loop_
_symmetry_equiv_pos_as_xyz
x,y,z
-x,-y,z+1/2
x,-y,-z
-x,y,-z+1/2
-x,-y,-z
x,y,-z-1/2
-x,y,z
x,-y,z-1/2
x+1/2,y+1/2,z
-x+1/2,-y+1/2,z+1/2
x+1/2,-y+1/2,-z
-x+1/2,y+1/2,-z+1/2
-x+1/2,-y+1/2,-z
x+1/2,y+1/2,-z-1/2
-x+1/2,y+1/2,z
x+1/2,-y+1/2,z-1/2
loop_
_atom_site_label
_atom_site_type_symbol
_atom_site_fract_x
_atom_site_fract_y
_atom_site_fract_z
_atom_site_occupancy
_atom_site_U_iso_or_equiv
Tl1 Tl 0 0.47594 0.25 0.927 0.0
Au2 Au+1 0 0 0 1 0.0
Tl2 Tl 0.207 0.4646 0.25 0.025 0.0
Au1 Au+1 0 0.22186 0.25 1 0.0
P1 P-1 0 0.20143 0.0435 1 0.0
