#------------------------------------------------------------------------------
#$Date: 2016-02-18 17:37:37 +0200 (Thu, 18 Feb 2016) $
#$Revision: 176729 $
#$URL: svn://www.crystallography.net/cod/cif/1/51/03/1510386.cif $
#------------------------------------------------------------------------------
#
# This file is available in the Crystallography Open Database (COD),
# http://www.crystallography.net/
#
# All data on this site have been placed in the public domain by the
# contributors.
#
data_1510386
loop_
_publ_author_name
'Kogachi, M.'
_publ_section_title
;
 Axial ratio change in the ternary Au Cu1-y Niy, Au Cu1-y Pdy and Au Cu1-y
 Pty systems with LI0-type structure
;
_journal_name_full
'Transactions of the Japan Institute of Metals'
_journal_page_first              153
_journal_page_last               159
_journal_paper_doi               10.2320/matertrans1960.26.153
_journal_volume                  26
_journal_year                    1985
_chemical_formula_sum            'Au2 Cu1.5 Pd0.5'
_chemical_name_systematic        '(Au4 Cu3 Pd)0.5'
_space_group_IT_number           123
_symmetry_space_group_name_Hall  '-P 4 2'
_symmetry_space_group_name_H-M   'P 4/m m m'
_cell_angle_alpha                90
_cell_angle_beta                 90
_cell_angle_gamma                90
_cell_formula_units_Z            1
_cell_length_a                   3.962
_cell_length_b                   3.962
_cell_length_c                   3.76
_cell_volume                     59.022
_citation_journal_id_ASTM        TJIMAA
_cod_data_source_file            gold_473.cif
_cod_data_source_block           Au2Cu1.5Pd0.5
_cod_original_cell_volume        59.02238
_cod_database_code               1510386
loop_
_symmetry_equiv_pos_as_xyz
x,y,z
-y,x,z
-x,-y,z
y,-x,z
x,-y,-z
y,x,-z
-x,y,-z
-y,-x,-z
-x,-y,-z
y,-x,-z
x,y,-z
-y,x,-z
-x,y,z
-y,-x,z
x,-y,z
y,x,z
loop_
_atom_site_label
_atom_site_type_symbol
_atom_site_fract_x
_atom_site_fract_y
_atom_site_fract_z
_atom_site_occupancy
_atom_site_U_iso_or_equiv
Cu1 Cu 0 0.5 0.5 0.76 0.0
Au2 Au 0.5 0.5 0 1 0.0
Au1 Au 0 0 0 1 0.0
Pd1 Pd 0 0.5 0.5 0.24 0.0
