#------------------------------------------------------------------------------
#$Date: 2016-02-14 16:26:36 +0200 (Sun, 14 Feb 2016) $
#$Revision: 176435 $
#$URL: svn://www.crystallography.net/cod/cif/1/51/06/1510628.cif $
#------------------------------------------------------------------------------
#
# This file is available in the Crystallography Open Database (COD),
# http://www.crystallography.net/
#
# All data on this site have been placed in the public domain by the
# contributors.
#
data_1510628
loop_
_publ_author_name
'Ido, H.'
'Yamada, M.'
'Nanjo, M.'
_publ_section_title
;
 Magnetic susceptibility of R Co3 B2 (R= Y, Sm, Gd, and Dy)
;
_journal_name_full               'Journal of Applied Physics'
_journal_page_first              7140
_journal_page_last               7142
_journal_paper_doi               10.1063/1.356704
_journal_volume                  75
_journal_year                    1994
_chemical_formula_sum            'B2 Co3 Y'
_chemical_name_systematic        'Co3 Y B2'
_space_group_IT_number           191
_symmetry_space_group_name_Hall  '-P 6 2'
_symmetry_space_group_name_H-M   'P 6/m m m'
_cell_angle_alpha                90
_cell_angle_beta                 90
_cell_angle_gamma                120
_cell_formula_units_Z            1
_cell_length_a                   5.051
_cell_length_b                   5.051
_cell_length_c                   3.035
_cell_volume                     67.057
_citation_journal_id_ASTM        JAPIAU
_cod_data_source_file            boron_109.cif
_cod_data_source_block           B2Co3Y1
_cod_original_formula_sum        'B2 Co3 Y1'
_cod_database_code               1510628
loop_
_symmetry_equiv_pos_as_xyz
x,y,z
x-y,x,z
-y,x-y,z
-x,-y,z
-x+y,-x,z
y,-x+y,z
-y,-x,-z
x-y,-y,-z
x,x-y,-z
y,x,-z
-x+y,y,-z
-x,-x+y,-z
-x,-y,-z
-x+y,-x,-z
y,-x+y,-z
x,y,-z
x-y,x,-z
-y,x-y,-z
y,x,z
-x+y,y,z
-x,-x+y,z
-y,-x,z
x-y,-y,z
x,x-y,z
loop_
_atom_site_label
_atom_site_type_symbol
_atom_site_fract_x
_atom_site_fract_y
_atom_site_fract_z
_atom_site_occupancy
_atom_site_U_iso_or_equiv
Co1 Co 0.5 0 0.5 1 0.0
Y1 Y 0 0 0 1 0.0
B1 B 0.3333 0.6667 0 1 0.0
