#------------------------------------------------------------------------------
#$Date: 2018-09-27 07:13:35 +0300 (Thu, 27 Sep 2018) $
#$Revision: 211196 $
#$URL: file:///home/coder/svn-repositories/cod/cif/1/51/03/1510316.cif $
#------------------------------------------------------------------------------
#
# This file is available in the Crystallography Open Database (COD),
# http://www.crystallography.net/
#
# All data on this site have been placed in the public domain by the
# contributors.
#
data_1510316
loop_
_publ_author_name
'McMasters, O.D.'
'Gschneidner, K.A.jr.'
'Palenzona, A.'
'Bruzzone, G.'
_publ_section_title
;
 Stoichiometry, crystal structures and some melting points of the
 lanthanide-gold alloys
;
_journal_name_full               'Journal of the Less-Common Metals'
_journal_page_first              135
_journal_page_last               160
_journal_paper_doi               10.1016/0022-5088(71)90125-1
_journal_volume                  25
_journal_year                    1971
_chemical_formula_sum            'Au Tm'
_space_group_IT_number           221
_symmetry_space_group_name_Hall  '-P 4 2 3'
_symmetry_space_group_name_H-M   'P m -3 m'
_cell_angle_alpha                90
_cell_angle_beta                 90
_cell_angle_gamma                90
_cell_formula_units_Z            1
_cell_length_a                   3.5196
_cell_length_b                   3.5196
_cell_length_c                   3.5196
_cell_volume                     43.599
_citation_journal_id_ASTM        JCOMAH
_cod_data_source_file            gold_385.cif
_cod_data_source_block           Au1Tm1
_cod_original_cell_volume        43.59934
_cod_original_formula_sum        'Au1 Tm1'
_cod_database_code               1510316
loop_
_symmetry_equiv_pos_as_xyz
x,y,z
-y,x,z
-x,-y,z
y,-x,z
x,-y,-z
y,x,-z
-x,y,-z
-y,-x,-z
z,x,y
-x,z,y
-z,-x,y
x,-z,y
z,-x,-y
x,z,-y
-z,x,-y
-x,-z,-y
y,z,x
y,-z,-x
z,y,-x
-y,z,-x
-z,-y,-x
-y,-z,x
z,-y,x
-z,y,x
-x,-y,-z
y,-x,-z
x,y,-z
-y,x,-z
-x,y,z
-y,-x,z
x,-y,z
y,x,z
-z,-x,-y
x,-z,-y
z,x,-y
-x,z,-y
-z,x,y
-x,-z,y
z,-x,y
x,z,y
-y,-z,-x
-y,z,x
-z,-y,x
y,-z,x
z,y,x
y,z,-x
-z,y,-x
z,-y,-x
loop_
_atom_site_label
_atom_site_type_symbol
_atom_site_fract_x
_atom_site_fract_y
_atom_site_fract_z
_atom_site_occupancy
_atom_site_U_iso_or_equiv
Au1 Au 0 0 0 1 0.0
Tm1 Tm 0.5 0.5 0.5 1 0.0
