#------------------------------------------------------------------------------
#$Date: 2016-02-14 16:26:36 +0200 (Sun, 14 Feb 2016) $
#$Revision: 176435 $
#$URL: svn://www.crystallography.net/cod/cif/1/51/06/1510630.cif $
#------------------------------------------------------------------------------
#
# This file is available in the Crystallography Open Database (COD),
# http://www.crystallography.net/
#
# All data on this site have been placed in the public domain by the
# contributors.
#
data_1510630
loop_
_publ_author_name
'Rogl, P.'
_publ_section_title
;
 Ueber SE-Metall-Kobaltboride
;
_journal_name_full               'Monatshefte fuer Chemie (-108,1977)'
_journal_page_first              1623
_journal_page_last               1631
_journal_volume                  104
_journal_year                    1973
_chemical_formula_sum            'B2 Co3 Yb'
_chemical_name_systematic        'Co3 Yb B2'
_space_group_IT_number           191
_symmetry_space_group_name_Hall  '-P 6 2'
_symmetry_space_group_name_H-M   'P 6/m m m'
_cell_angle_alpha                90
_cell_angle_beta                 90
_cell_angle_gamma                120
_cell_formula_units_Z            1
_cell_length_a                   4.985
_cell_length_b                   4.985
_cell_length_c                   3.02
_cell_volume                     64.993
_citation_journal_id_ASTM        MOCHAP
_cod_data_source_file            boron_111.cif
_cod_data_source_block           B2Co3Yb1
_cod_original_cell_volume        64.9932
_cod_original_formula_sum        'B2 Co3 Yb1'
_cod_database_code               1510630
loop_
_symmetry_equiv_pos_as_xyz
x,y,z
x-y,x,z
-y,x-y,z
-x,-y,z
-x+y,-x,z
y,-x+y,z
-y,-x,-z
x-y,-y,-z
x,x-y,-z
y,x,-z
-x+y,y,-z
-x,-x+y,-z
-x,-y,-z
-x+y,-x,-z
y,-x+y,-z
x,y,-z
x-y,x,-z
-y,x-y,-z
y,x,z
-x+y,y,z
-x,-x+y,z
-y,-x,z
x-y,-y,z
x,x-y,z
loop_
_atom_site_label
_atom_site_type_symbol
_atom_site_fract_x
_atom_site_fract_y
_atom_site_fract_z
_atom_site_occupancy
_atom_site_U_iso_or_equiv
Co1 Co 0.5 0 0.5 1 0.0
Yb1 Yb 0 0 0 1 0.0
B1 B 0.3333 0.6667 0 1 0.0
