#------------------------------------------------------------------------------
#$Date: 2016-02-18 17:37:37 +0200 (Thu, 18 Feb 2016) $
#$Revision: 176729 $
#$URL: svn://www.crystallography.net/cod/cif/1/51/07/1510747.cif $
#------------------------------------------------------------------------------
#
# This file is available in the Crystallography Open Database (COD),
# http://www.crystallography.net/
#
# All data on this site have been placed in the public domain by the
# contributors.
#
data_1510747
loop_
_publ_author_name
'Ku, H.C.'
'Meisner, G.P.'
'Acker, F.'
'Johnston, D.C.'
_publ_section_title
;
 Superconducting and magnetic properties of new ternary borides with the
 Ce Co3 B2-type structure
;
_journal_name_full               'Solid State Communications'
_journal_page_first              91
_journal_page_last               96
_journal_paper_doi               10.1016/0038-1098(80)90221-5
_journal_volume                  35
_journal_year                    1980
_chemical_formula_sum            'B2 Lu0.5 Os3 Th0.5'
_chemical_name_systematic        '(Lu Th Os6 B4).5'
_space_group_IT_number           191
_symmetry_space_group_name_Hall  '-P 6 2'
_symmetry_space_group_name_H-M   'P 6/m m m'
_cell_angle_alpha                90
_cell_angle_beta                 90
_cell_angle_gamma                120
_cell_formula_units_Z            1
_cell_length_a                   5.523
_cell_length_b                   5.523
_cell_length_c                   3.062
_cell_volume                     80.888
_citation_journal_id_ASTM        SSCOA4
_cod_data_source_file            boron_238.cif
_cod_data_source_block           B2Lu0.5Os3Th0.5
_cod_original_cell_volume        80.88833
_cod_database_code               1510747
loop_
_symmetry_equiv_pos_as_xyz
x,y,z
x-y,x,z
-y,x-y,z
-x,-y,z
-x+y,-x,z
y,-x+y,z
-y,-x,-z
x-y,-y,-z
x,x-y,-z
y,x,-z
-x+y,y,-z
-x,-x+y,-z
-x,-y,-z
-x+y,-x,-z
y,-x+y,-z
x,y,-z
x-y,x,-z
-y,x-y,-z
y,x,z
-x+y,y,z
-x,-x+y,z
-y,-x,z
x-y,-y,z
x,x-y,z
loop_
_atom_site_label
_atom_site_type_symbol
_atom_site_fract_x
_atom_site_fract_y
_atom_site_fract_z
_atom_site_occupancy
_atom_site_U_iso_or_equiv
Lu1 Lu 0 0 0 0.5 0.0
B1 B 0.3333 0.6667 0 1 0.0
Os1 Os 0.5 0 0.5 1 0.0
Th1 Th 0 0 0 0.5 0.0
