#------------------------------------------------------------------------------
#$Date: 2016-02-14 16:26:36 +0200 (Sun, 14 Feb 2016) $
#$Revision: 176435 $
#$URL: svn://www.crystallography.net/cod/cif/1/51/00/1510011.cif $
#------------------------------------------------------------------------------
#
# This file is available in the Crystallography Open Database (COD),
# http://www.crystallography.net/
#
# All data on this site have been placed in the public domain by the
# contributors.
#
data_1510011
loop_
_publ_author_name
'Wuensch, B.J.'
'McMullan, R.K.'
'Didisheim, J.J.'
_publ_section_title
;
 A single crystal neutron diffraction study of the distribution and
 thermal motion of silver ions in alpha- and beta- Ag3 S I
;
_journal_name_full               'Solid State Ionics'
_journal_page_first              18
_journal_page_last               19
_journal_volume                  1986
_journal_year                    1986
_chemical_formula_sum            'Ag3 I S'
_chemical_name_systematic        'Ag3 S I'
_space_group_IT_number           221
_symmetry_space_group_name_Hall  '-P 4 2 3'
_symmetry_space_group_name_H-M   'P m -3 m'
_cell_angle_alpha                90
_cell_angle_beta                 90
_cell_angle_gamma                90
_cell_formula_units_Z            1
_cell_length_a                   4.892
_cell_length_b                   4.892
_cell_length_c                   4.892
_cell_volume                     117.074
_citation_journal_id_ASTM        SSIOD3
_cod_data_source_file            silver3-x_42.cif
_cod_data_source_block           Ag3I1S1
_cod_original_cell_volume        117.0737
_cod_original_formula_sum        'Ag3 I1 S1'
_cod_database_code               1510011
loop_
_symmetry_equiv_pos_as_xyz
x,y,z
-y,x,z
-x,-y,z
y,-x,z
x,-y,-z
y,x,-z
-x,y,-z
-y,-x,-z
z,x,y
-x,z,y
-z,-x,y
x,-z,y
z,-x,-y
x,z,-y
-z,x,-y
-x,-z,-y
y,z,x
y,-z,-x
z,y,-x
-y,z,-x
-z,-y,-x
-y,-z,x
z,-y,x
-z,y,x
-x,-y,-z
y,-x,-z
x,y,-z
-y,x,-z
-x,y,z
-y,-x,z
x,-y,z
y,x,z
-z,-x,-y
x,-z,-y
z,x,-y
-x,z,-y
-z,x,y
-x,-z,y
z,-x,y
x,z,y
-y,-z,-x
-y,z,x
-z,-y,x
y,-z,x
z,y,x
y,z,-x
-z,y,-x
z,-y,-x
loop_
_atom_site_label
_atom_site_type_symbol
_atom_site_fract_x
_atom_site_fract_y
_atom_site_fract_z
_atom_site_occupancy
_atom_site_U_iso_or_equiv
S1 S-2 0.5 0.5 0.5 1 0.0
Ag1 Ag+1 0.4 0.5 0 0.25 0.0
I1 I-1 0 0 0 1 0.0
