#------------------------------------------------------------------------------
#$Date: 2016-02-14 16:26:36 +0200 (Sun, 14 Feb 2016) $
#$Revision: 176435 $
#$URL: svn://www.crystallography.net/cod/cif/1/51/09/1510970.cif $
#------------------------------------------------------------------------------
#
# This file is available in the Crystallography Open Database (COD),
# http://www.crystallography.net/
#
# All data on this site have been placed in the public domain by the
# contributors.
#
data_1510970
loop_
_publ_author_name
'Malik, S.K.'
'Reeves, M.E.'
'Montano, P.A.'
'Umarji, A.M.'
'Shenoy, G.K.'
_publ_section_title
;
 Valence state of Ce and the magmatism in Ce Rh3 B2
;
_journal_name_full
'Physical Review, Serie 3. B - Condensed Matter (18,1978-)'
_journal_page_first              4728
_journal_page_last               4731
_journal_paper_doi               10.1103/PhysRevB.31.4728
_journal_volume                  31
_journal_year                    1985
_chemical_formula_sum            'B2 Ce Rh2.5 Ru0.5'
_chemical_name_systematic        'Ce (Ru0.5 Rh2.5) B2'
_space_group_IT_number           191
_symmetry_space_group_name_Hall  '-P 6 2'
_symmetry_space_group_name_H-M   'P 6/m m m'
_cell_angle_alpha                90
_cell_angle_beta                 90
_cell_angle_gamma                120
_cell_formula_units_Z            1
_cell_length_a                   5.56
_cell_length_b                   5.56
_cell_length_c                   2.98
_cell_volume                     79.780
_citation_journal_id_ASTM        PRBMDO
_cod_data_source_file            boron_53.cif
_cod_data_source_block           B2Ce1Rh2.5Ru0.5
_cod_original_cell_volume        79.78045
_cod_original_formula_sum        'B2 Ce1 Rh2.5 Ru0.5'
_cod_database_code               1510970
loop_
_symmetry_equiv_pos_as_xyz
x,y,z
x-y,x,z
-y,x-y,z
-x,-y,z
-x+y,-x,z
y,-x+y,z
-y,-x,-z
x-y,-y,-z
x,x-y,-z
y,x,-z
-x+y,y,-z
-x,-x+y,-z
-x,-y,-z
-x+y,-x,-z
y,-x+y,-z
x,y,-z
x-y,x,-z
-y,x-y,-z
y,x,z
-x+y,y,z
-x,-x+y,z
-y,-x,z
x-y,-y,z
x,x-y,z
loop_
_atom_site_label
_atom_site_type_symbol
_atom_site_fract_x
_atom_site_fract_y
_atom_site_fract_z
_atom_site_occupancy
_atom_site_U_iso_or_equiv
Ru1 Ru 0.5 0 0.5 0.167 0.0
B1 B 0.3333 0.6667 0 1 0.0
Rh1 Rh 0.5 0 0.5 0.833 0.0
Ce1 Ce 0 0 0 1 0.0
