#------------------------------------------------------------------------------
#$Date: 2016-02-18 17:37:37 +0200 (Thu, 18 Feb 2016) $
#$Revision: 176729 $
#$URL: svn://www.crystallography.net/cod/cif/1/51/04/1510494.cif $
#------------------------------------------------------------------------------
#
# This file is available in the Crystallography Open Database (COD),
# http://www.crystallography.net/
#
# All data on this site have been placed in the public domain by the
# contributors.
#
data_1510494
loop_
_publ_author_name
'Mosel, B.D.'
'Kuennen, B.'
'Hoffmann, R.D.'
'Rosenhahn, C.'
'Kotzyba, G.'
'Poettgen, R.'
_publ_section_title
;
 Structure and Properties of Sr2Au3In4 and Eu2Au3In4
;
_journal_name_full               'Journal of Solid State Chemistry'
_journal_page_first              283
_journal_page_last               290
_journal_paper_doi               10.1006/jssc.1999.8265
_journal_volume                  145
_journal_year                    1999
_chemical_formula_sum            'Au3 Eu2 In4'
_chemical_name_systematic        'Eu2 Au3 In4'
_space_group_IT_number           189
_symmetry_space_group_name_Hall  'P -6 -2'
_symmetry_space_group_name_H-M   'P -6 2 m'
_cell_angle_alpha                90
_cell_angle_beta                 90
_cell_angle_gamma                120
_cell_formula_units_Z            4
_cell_length_a                   14.897
_cell_length_b                   14.897
_cell_length_c                   4.549
_cell_volume                     874.267
_citation_journal_id_ASTM        JSSCBI
_cod_data_source_file            gold_590.cif
_cod_data_source_block           Au3Eu2In4
_cod_original_cell_volume        874.2672
_cod_database_code               1510494
loop_
_symmetry_equiv_pos_as_xyz
x,y,z
-x+y,-x,-z
-y,x-y,z
x,y,-z
-x+y,-x,z
-y,x-y,-z
y,x,z
x-y,-y,-z
-x,-x+y,z
y,x,-z
x-y,-y,z
-x,-x+y,-z
loop_
_atom_site_label
_atom_site_type_symbol
_atom_site_fract_x
_atom_site_fract_y
_atom_site_fract_z
_atom_site_occupancy
_atom_site_U_iso_or_equiv
Au2 Au 0.67884 0.50809 0.5 1 0.0
In3 In 0.8762 0.5265 0.5 1 0.0
Au3 Au 0.6569 0 0 1 0.0
Au1 Au 0.1789 0 0 1 0.0
Eu1 Eu 0.8195 0 0.5 1 0.0
Eu2 Eu 0.3333 0.6667 0 1 0.0
Eu3 Eu 0.4522 0 0 1 0.0
In4 In 0 0 0 1 0.0
In1 In 0.2807 0 0.5 1 0.0
In2 In 0.8012 0.6187 0 1 0.0
