#------------------------------------------------------------------------------
#$Date: 2016-02-14 16:26:36 +0200 (Sun, 14 Feb 2016) $
#$Revision: 176435 $
#$URL: svn://www.crystallography.net/cod/cif/1/51/07/1510750.cif $
#------------------------------------------------------------------------------
#
# This file is available in the Crystallography Open Database (COD),
# http://www.crystallography.net/
#
# All data on this site have been placed in the public domain by the
# contributors.
#
data_1510750
loop_
_publ_author_name
'Lee, W.H.'
'Appl, S.'
'Shelton, R.N.'
_publ_section_title
;
 Comparitive critical field study of superconducting ternary borides
;
_journal_name_full               'Journal of Low Temperature Physics'
_journal_page_first              147
_journal_page_last               157
_journal_paper_doi               10.1007/BF00682626
_journal_volume                  68
_journal_year                    1987
_chemical_formula_sum            'B2 Lu Os3'
_chemical_name_systematic        'Lu Os3 B2'
_space_group_IT_number           191
_symmetry_space_group_name_Hall  '-P 6 2'
_symmetry_space_group_name_H-M   'P 6/m m m'
_cell_angle_alpha                90
_cell_angle_beta                 90
_cell_angle_gamma                120
_cell_formula_units_Z            1
_cell_length_a                   5.455
_cell_length_b                   5.455
_cell_length_c                   3.064
_cell_volume                     78.960
_citation_journal_id_ASTM        JLTPAC
_cod_data_source_file            boron_241.cif
_cod_data_source_block           B2Lu1Os3
_cod_original_cell_volume        78.96031
_cod_original_formula_sum        'B2 Lu1 Os3'
_cod_database_code               1510750
loop_
_symmetry_equiv_pos_as_xyz
x,y,z
x-y,x,z
-y,x-y,z
-x,-y,z
-x+y,-x,z
y,-x+y,z
-y,-x,-z
x-y,-y,-z
x,x-y,-z
y,x,-z
-x+y,y,-z
-x,-x+y,-z
-x,-y,-z
-x+y,-x,-z
y,-x+y,-z
x,y,-z
x-y,x,-z
-y,x-y,-z
y,x,z
-x+y,y,z
-x,-x+y,z
-y,-x,z
x-y,-y,z
x,x-y,z
loop_
_atom_site_label
_atom_site_type_symbol
_atom_site_fract_x
_atom_site_fract_y
_atom_site_fract_z
_atom_site_occupancy
_atom_site_U_iso_or_equiv
B1 B 0.3333 0.6667 0 1 0.0
Os1 Os 0.5 0 0.5 1 0.0
Lu1 Lu 0 0 0 1 0.0
