#------------------------------------------------------------------------------
#$Date: 2016-02-14 16:26:36 +0200 (Sun, 14 Feb 2016) $
#$Revision: 176435 $
#$URL: svn://www.crystallography.net/cod/cif/1/51/04/1510451.cif $
#------------------------------------------------------------------------------
#
# This file is available in the Crystallography Open Database (COD),
# http://www.crystallography.net/
#
# All data on this site have been placed in the public domain by the
# contributors.
#
data_1510451
loop_
_publ_author_name
'Rebizant, J.'
'Walker, C.T.'
'Wastin, F.'
'Fuger, J.'
'Spirlet, J.C.'
'Sari, C.'
_publ_section_title
;
 New transuranium intermetallic compounds with ThCr2Si2and CaBe2Ge2-type
 structures
;
_journal_name_full               'Journal of Alloys Compd.'
_journal_page_first              87
_journal_page_last               92
_journal_paper_doi               10.1016/0925-8388(93)90575-8
_journal_volume                  196
_journal_year                    1993
_chemical_formula_sum            'Au2 Np Si2'
_chemical_name_systematic        'Np Au2 Si2'
_space_group_IT_number           139
_symmetry_space_group_name_Hall  '-I 4 2'
_symmetry_space_group_name_H-M   'I 4/m m m'
_cell_angle_alpha                90
_cell_angle_beta                 90
_cell_angle_gamma                90
_cell_formula_units_Z            2
_cell_length_a                   4.248
_cell_length_b                   4.248
_cell_length_c                   10.221
_cell_volume                     184.443
_citation_journal_id_ASTM        JALCEU
_cod_data_source_file            gold_543.cif
_cod_data_source_block           Au2Np1Si2
_cod_original_cell_volume        184.4431
_cod_original_formula_sum        'Au2 Np1 Si2'
_cod_database_code               1510451
loop_
_symmetry_equiv_pos_as_xyz
x,y,z
-y,x,z
-x,-y,z
y,-x,z
x,-y,-z
y,x,-z
-x,y,-z
-y,-x,-z
-x,-y,-z
y,-x,-z
x,y,-z
-y,x,-z
-x,y,z
-y,-x,z
x,-y,z
y,x,z
x+1/2,y+1/2,z+1/2
-y+1/2,x+1/2,z+1/2
-x+1/2,-y+1/2,z+1/2
y+1/2,-x+1/2,z+1/2
x+1/2,-y+1/2,-z+1/2
y+1/2,x+1/2,-z+1/2
-x+1/2,y+1/2,-z+1/2
-y+1/2,-x+1/2,-z+1/2
-x+1/2,-y+1/2,-z+1/2
y+1/2,-x+1/2,-z+1/2
x+1/2,y+1/2,-z+1/2
-y+1/2,x+1/2,-z+1/2
-x+1/2,y+1/2,z+1/2
-y+1/2,-x+1/2,z+1/2
x+1/2,-y+1/2,z+1/2
y+1/2,x+1/2,z+1/2
loop_
_atom_site_label
_atom_site_type_symbol
_atom_site_fract_x
_atom_site_fract_y
_atom_site_fract_z
_atom_site_occupancy
_atom_site_U_iso_or_equiv
Au1 Au 0 0.5 0.25 1 0.0
Np1 Np 0 0 0 1 0.0
Si1 Si 0 0 0.3881 1 0.0
