#------------------------------------------------------------------------------
#$Date: 2016-02-14 16:26:36 +0200 (Sun, 14 Feb 2016) $
#$Revision: 176435 $
#$URL: svn://www.crystallography.net/cod/cif/1/51/02/1510206.cif $
#------------------------------------------------------------------------------
#
# This file is available in the Crystallography Open Database (COD),
# http://www.crystallography.net/
#
# All data on this site have been placed in the public domain by the
# contributors.
#
data_1510206
loop_
_publ_author_name
'Kanatzidis, M.G.'
'Park, Y.'
_publ_section_title
;
 On the dissolution of gold in K2 Qx and Na2 Qx fluxes (Q = S, Se).
 Formation of K Au S5, K Au Se5, Cs Au Se3, K Au Se2 and Na Au Se2:
 low-dimensional Au(+) and Au(3+) compounds with poly- and
 mono-chalcogenide ligands
;
_journal_name_full               'Journal of Alloys Compd.'
_journal_page_first              137
_journal_page_last               145
_journal_paper_doi               10.1016/S0925-8388(96)03130-1
_journal_volume                  257
_journal_year                    1997
_chemical_formula_sum            'Au K Se2'
_chemical_name_systematic        'K (Au Se2)'
_space_group_IT_number           127
_symmetry_space_group_name_Hall  '-P 4 2ab'
_symmetry_space_group_name_H-M   'P 4/m b m'
_cell_angle_alpha                90
_cell_angle_beta                 90
_cell_angle_gamma                90
_cell_formula_units_Z            2
_cell_length_a                   7.699
_cell_length_b                   7.699
_cell_length_c                   3.665
_cell_volume                     217.241
_citation_journal_id_ASTM        JALCEU
_cod_data_source_file            gold_264.cif
_cod_data_source_block           Au1K1Se2
_cod_original_cell_volume        217.2414
_cod_original_formula_sum        'Au1 K1 Se2'
_cod_database_code               1510206
loop_
_symmetry_equiv_pos_as_xyz
x,y,z
-y,x,z
-x,-y,z
y,-x,z
x+1/2,-y+1/2,-z
y+1/2,x+1/2,-z
-x+1/2,y+1/2,-z
-y+1/2,-x+1/2,-z
-x,-y,-z
y,-x,-z
x,y,-z
-y,x,-z
-x-1/2,y-1/2,z
-y-1/2,-x-1/2,z
x-1/2,-y-1/2,z
y-1/2,x-1/2,z
loop_
_atom_site_label
_atom_site_type_symbol
_atom_site_fract_x
_atom_site_fract_y
_atom_site_fract_z
_atom_site_occupancy
_atom_site_U_iso_or_equiv
Au1 Au+3 0.5 0 0 1 0.0
Se1 Se-2 0.347 0.1528 0.5 1 0.0
K1 K+1 0 0 0 1 0.0
