#------------------------------------------------------------------------------
#$Date: 2016-02-14 16:26:36 +0200 (Sun, 14 Feb 2016) $
#$Revision: 176435 $
#$URL: svn://www.crystallography.net/cod/cif/1/51/09/1510992.cif $
#------------------------------------------------------------------------------
#
# This file is available in the Crystallography Open Database (COD),
# http://www.crystallography.net/
#
# All data on this site have been placed in the public domain by the
# contributors.
#
data_1510992
loop_
_publ_author_name
'Rogl, P.'
'Rupp, B.'
'Hulliger, F.'
_publ_section_title
;
 Magnetism and structural chemistry of ternary borides RE Co2 B2: (RE= Y,
 La, Pr, Nd, Sm, Gd, Tb, Dy, Ho or Er) and boron substitution in (Y, Ce)
 Co2 Si2-x Bx
;
_journal_name_full               'Journal of the Less-Common Metals'
_journal_page_first              113
_journal_page_last               125
_journal_paper_doi               10.1016/0022-5088(87)90344-4
_journal_volume                  135
_journal_year                    1987
_chemical_formula_sum            'B2 Co2 Er'
_chemical_name_systematic        'Co2 Er B2'
_space_group_IT_number           139
_symmetry_space_group_name_Hall  '-I 4 2'
_symmetry_space_group_name_H-M   'I 4/m m m'
_cell_angle_alpha                90
_cell_angle_beta                 90
_cell_angle_gamma                90
_cell_formula_units_Z            2
_cell_length_a                   3.545
_cell_length_b                   3.545
_cell_length_c                   9.161
_cell_volume                     115.127
_citation_journal_id_ASTM        JCOMAH
_cod_data_source_file            boron_78.cif
_cod_data_source_block           B2Co2Er1
_cod_original_cell_volume        115.1265
_cod_original_formula_sum        'B2 Co2 Er1'
_cod_database_code               1510992
loop_
_symmetry_equiv_pos_as_xyz
x,y,z
-y,x,z
-x,-y,z
y,-x,z
x,-y,-z
y,x,-z
-x,y,-z
-y,-x,-z
-x,-y,-z
y,-x,-z
x,y,-z
-y,x,-z
-x,y,z
-y,-x,z
x,-y,z
y,x,z
x+1/2,y+1/2,z+1/2
-y+1/2,x+1/2,z+1/2
-x+1/2,-y+1/2,z+1/2
y+1/2,-x+1/2,z+1/2
x+1/2,-y+1/2,-z+1/2
y+1/2,x+1/2,-z+1/2
-x+1/2,y+1/2,-z+1/2
-y+1/2,-x+1/2,-z+1/2
-x+1/2,-y+1/2,-z+1/2
y+1/2,-x+1/2,-z+1/2
x+1/2,y+1/2,-z+1/2
-y+1/2,x+1/2,-z+1/2
-x+1/2,y+1/2,z+1/2
-y+1/2,-x+1/2,z+1/2
x+1/2,-y+1/2,z+1/2
y+1/2,x+1/2,z+1/2
loop_
_atom_site_label
_atom_site_type_symbol
_atom_site_fract_x
_atom_site_fract_y
_atom_site_fract_z
_atom_site_occupancy
_atom_site_U_iso_or_equiv
B1 B 0 0 0.375 1 0.0
Er1 Er 0 0 0 1 0.0
Co1 Co 0 0.5 0.25 1 0.0
