#------------------------------------------------------------------------------
#$Date: 2016-02-18 17:37:37 +0200 (Thu, 18 Feb 2016) $
#$Revision: 176729 $
#$URL: svn://www.crystallography.net/cod/cif/1/51/05/1510501.cif $
#------------------------------------------------------------------------------
#
# This file is available in the Crystallography Open Database (COD),
# http://www.crystallography.net/
#
# All data on this site have been placed in the public domain by the
# contributors.
#
data_1510501
loop_
_publ_author_name
'Zachwieja, U.'
'Mueller, J.'
_publ_section_title
;
 Verbindungen in den Systemen Kalium(Rubidium)/Gold/Antimon: K3 Au3 Sb2,
 Rb3 Au3 Sb2 und K1.74 Rb0.26 Rb Au3 Sb2
;
_journal_name_full
'Zeitschrift fuer Anorganische und Allgemeine Chemie'
_journal_page_first              635
_journal_page_last               639
_journal_paper_doi               10.1002/zaac.19966220411
_journal_volume                  622
_journal_year                    1996
_chemical_formula_sum            'Au3 K1.74 Rb1.26 Sb2'
_chemical_name_systematic        'K1.74 Rb0.26 Rb Au3 Sb2'
_space_group_IT_number           166
_symmetry_space_group_name_Hall  '-R 3 2"'
_symmetry_space_group_name_H-M   'R -3 m :H'
_cell_angle_alpha                90
_cell_angle_beta                 90
_cell_angle_gamma                120
_cell_formula_units_Z            3
_cell_length_a                   6.288
_cell_length_b                   6.288
_cell_length_c                   21.617
_cell_volume                     740.203
_citation_journal_id_ASTM        ZAACAB
_cod_data_source_file            gold_599.cif
_cod_data_source_block           Au3K1.74Rb1.26Sb2
_cod_original_cell_volume        740.2035
_cod_database_code               1510501
loop_
_symmetry_equiv_pos_as_xyz
x,y,z
-y,x-y,z
-x+y,-x,z
y,x,-z
-x,-x+y,-z
x-y,-y,-z
-x,-y,-z
y,-x+y,-z
x-y,x,-z
-y,-x,z
x,x-y,z
-x+y,y,z
x+2/3,y+1/3,z+1/3
-y+2/3,x-y+1/3,z+1/3
-x+y+2/3,-x+1/3,z+1/3
y+2/3,x+1/3,-z+1/3
-x+2/3,-x+y+1/3,-z+1/3
x-y+2/3,-y+1/3,-z+1/3
-x+2/3,-y+1/3,-z+1/3
y+2/3,-x+y+1/3,-z+1/3
x-y+2/3,x+1/3,-z+1/3
-y+2/3,-x+1/3,z+1/3
x+2/3,x-y+1/3,z+1/3
-x+y+2/3,y+1/3,z+1/3
x+1/3,y+2/3,z+2/3
-y+1/3,x-y+2/3,z+2/3
-x+y+1/3,-x+2/3,z+2/3
y+1/3,x+2/3,-z+2/3
-x+1/3,-x+y+2/3,-z+2/3
x-y+1/3,-y+2/3,-z+2/3
-x+1/3,-y+2/3,-z+2/3
y+1/3,-x+y+2/3,-z+2/3
x-y+1/3,x+2/3,-z+2/3
-y+1/3,-x+2/3,z+2/3
x+1/3,x-y+2/3,z+2/3
-x+y+1/3,y+2/3,z+2/3
loop_
_atom_site_label
_atom_site_type_symbol
_atom_site_fract_x
_atom_site_fract_y
_atom_site_fract_z
_atom_site_occupancy
_atom_site_U_iso_or_equiv
Rb2 Rb+1 0 0 0.5 1 0.0
Au1 Au+1 0.5 0 0 1 0.0
Sb1 Sb-3 0 0 0.2439 1 0.0
K1 K+1 0 0 0.0814 0.87 0.0
Rb1 Rb+1 0 0 0.0814 0.13 0.0
