#------------------------------------------------------------------------------
#$Date: 2018-09-27 07:13:35 +0300 (Thu, 27 Sep 2018) $
#$Revision: 211196 $
#$URL: file:///home/coder/svn-repositories/cod/cif/1/51/04/1510418.cif $
#------------------------------------------------------------------------------
#
# This file is available in the Crystallography Open Database (COD),
# http://www.crystallography.net/
#
# All data on this site have been placed in the public domain by the
# contributors.
#
data_1510418
loop_
_publ_author_name
'Eschen, M.'
'Jeitschko, W.'
_publ_section_title
;
 Au2 Pb P2, Au2 Tl P2 and Au2 Hg P2: ternary gold polyphosphides with
 lead, thallium and mercury in the oxidation state zero
;
_journal_name_full               'Journal of Solid State Chemistry'
_journal_page_first              238
_journal_page_last               246
_journal_paper_doi               10.1006/jssc.2001.9497
_journal_volume                  165
_journal_year                    2002
_chemical_formula_sum            'Au2 Hg P2'
_space_group_IT_number           63
_symmetry_space_group_name_Hall  '-C 2c 2'
_symmetry_space_group_name_H-M   'C m c m'
_cell_angle_alpha                90
_cell_angle_beta                 90
_cell_angle_gamma                90
_cell_formula_units_Z            4
_cell_length_a                   3.2206
_cell_length_b                   11.314
_cell_length_c                   11.2262
_cell_volume                     409.059
_citation_journal_id_ASTM        JSSCBI
_cod_data_source_file            gold_507.cif
_cod_data_source_block           Au2Hg1P2
_cod_original_cell_volume        409.0588
_cod_original_formula_sum        'Au2 Hg1 P2'
_cod_database_code               1510418
loop_
_symmetry_equiv_pos_as_xyz
x,y,z
-x,-y,z+1/2
x,-y,-z
-x,y,-z+1/2
-x,-y,-z
x,y,-z-1/2
-x,y,z
x,-y,z-1/2
x+1/2,y+1/2,z
-x+1/2,-y+1/2,z+1/2
x+1/2,-y+1/2,-z
-x+1/2,y+1/2,-z+1/2
-x+1/2,-y+1/2,-z
x+1/2,y+1/2,-z-1/2
-x+1/2,y+1/2,z
x+1/2,-y+1/2,z-1/2
loop_
_atom_site_label
_atom_site_type_symbol
_atom_site_fract_x
_atom_site_fract_y
_atom_site_fract_z
_atom_site_occupancy
_atom_site_U_iso_or_equiv
Au1 Au+1 0 0.22507 0.25 1 0.0
Hg2 Hg 0.11 0.472 0.25 0.099 0.0
Hg1 Hg 0 0.4821 0.25 0.76 0.0
Au2 Au+1 0 0 0 1 0.0
Hg3 Hg 0.421 0.446 0.25 0.03 0.0
P1 P-1 0 0.20237 0.04353 1 0.0
