#------------------------------------------------------------------------------
#$Date: 2016-02-14 16:26:36 +0200 (Sun, 14 Feb 2016) $
#$Revision: 176435 $
#$URL: svn://www.crystallography.net/cod/cif/1/51/06/1510676.cif $
#------------------------------------------------------------------------------
#
# This file is available in the Crystallography Open Database (COD),
# http://www.crystallography.net/
#
# All data on this site have been placed in the public domain by the
# contributors.
#
data_1510676
loop_
_publ_author_name
'Dhar, S.K.'
'Vijayaraghavan, R.'
'Malik, S.K.'
'Wallace, W.E.'
_publ_section_title
;
 Magnetic behavior of R Rh3 B2 (R = La to Gd) ternary borides
;
_journal_name_full               'Journal of Magnetism and Magnetic Materials'
_journal_page_first              303
_journal_page_last               308
_journal_paper_doi               10.1016/0304-8853(83)90060-4
_journal_volume                  37
_journal_year                    1983
_chemical_formula_sum            'B2 Eu Rh3'
_chemical_name_systematic        'Eu Rh3 B2'
_space_group_IT_number           191
_symmetry_space_group_name_Hall  '-P 6 2'
_symmetry_space_group_name_H-M   'P 6/m m m'
_cell_angle_alpha                90
_cell_angle_beta                 90
_cell_angle_gamma                120
_cell_formula_units_Z            1
_cell_length_a                   5.616
_cell_length_b                   5.616
_cell_length_c                   2.863
_cell_volume                     78.200
_citation_journal_id_ASTM        JMMMDC
_cod_data_source_file            boron_159.cif
_cod_data_source_block           B2Eu1Rh3
_cod_original_cell_volume        78.1999
_cod_original_formula_sum        'B2 Eu1 Rh3'
_cod_database_code               1510676
loop_
_symmetry_equiv_pos_as_xyz
x,y,z
x-y,x,z
-y,x-y,z
-x,-y,z
-x+y,-x,z
y,-x+y,z
-y,-x,-z
x-y,-y,-z
x,x-y,-z
y,x,-z
-x+y,y,-z
-x,-x+y,-z
-x,-y,-z
-x+y,-x,-z
y,-x+y,-z
x,y,-z
x-y,x,-z
-y,x-y,-z
y,x,z
-x+y,y,z
-x,-x+y,z
-y,-x,z
x-y,-y,z
x,x-y,z
loop_
_atom_site_label
_atom_site_type_symbol
_atom_site_fract_x
_atom_site_fract_y
_atom_site_fract_z
_atom_site_occupancy
_atom_site_U_iso_or_equiv
Eu1 Eu 0 0 0 1 0.0
Rh1 Rh 0.5 0 0.5 1 0.0
B1 B 0.3333 0.6667 0 1 0.0
