#------------------------------------------------------------------------------
#$Date: 2016-02-14 16:26:36 +0200 (Sun, 14 Feb 2016) $
#$Revision: 176435 $
#$URL: svn://www.crystallography.net/cod/cif/1/51/03/1510344.cif $
#------------------------------------------------------------------------------
#
# This file is available in the Crystallography Open Database (COD),
# http://www.crystallography.net/
#
# All data on this site have been placed in the public domain by the
# contributors.
#
data_1510344
loop_
_publ_author_name
'Karpov, Yu.G.'
'Gel'd, P.V.'
'Sidorenko, F.A.'
'Kuranov, A.A.'
'Syutkin, P.N.'
'Oblasov, A.K.'
'Vereshchagin, Yu.A.'
_publ_section_title
;
 Magnetic properties of ordering alloys Fe (Pd1-x Aux)3
;
_journal_name_full               'Fizika Metallov i Metallovedenie'
_journal_page_first              44
_journal_page_last               48
_journal_volume                  47
_journal_year                    1979
_chemical_formula_sum            'Au1.5 Fe Pd1.5'
_chemical_name_systematic        '(Au1.5 Pd1.5) Fe'
_space_group_IT_number           221
_symmetry_space_group_name_Hall  '-P 4 2 3'
_symmetry_space_group_name_H-M   'P m -3 m'
_cell_angle_alpha                90
_cell_angle_beta                 90
_cell_angle_gamma                90
_cell_formula_units_Z            1
_cell_length_a                   3.93
_cell_length_b                   3.93
_cell_length_c                   3.93
_cell_volume                     60.698
_citation_journal_id_ASTM        FMMTAK
_cod_data_source_file            gold_418.cif
_cod_data_source_block           Au1.5Fe1Pd1.5
_cod_original_cell_volume        60.69846
_cod_original_formula_sum        'Au1.5 Fe1 Pd1.5'
_cod_database_code               1510344
loop_
_symmetry_equiv_pos_as_xyz
x,y,z
-y,x,z
-x,-y,z
y,-x,z
x,-y,-z
y,x,-z
-x,y,-z
-y,-x,-z
z,x,y
-x,z,y
-z,-x,y
x,-z,y
z,-x,-y
x,z,-y
-z,x,-y
-x,-z,-y
y,z,x
y,-z,-x
z,y,-x
-y,z,-x
-z,-y,-x
-y,-z,x
z,-y,x
-z,y,x
-x,-y,-z
y,-x,-z
x,y,-z
-y,x,-z
-x,y,z
-y,-x,z
x,-y,z
y,x,z
-z,-x,-y
x,-z,-y
z,x,-y
-x,z,-y
-z,x,y
-x,-z,y
z,-x,y
x,z,y
-y,-z,-x
-y,z,x
-z,-y,x
y,-z,x
z,y,x
y,z,-x
-z,y,-x
z,-y,-x
loop_
_atom_site_label
_atom_site_type_symbol
_atom_site_fract_x
_atom_site_fract_y
_atom_site_fract_z
_atom_site_occupancy
_atom_site_U_iso_or_equiv
Au1 Au 0 0.5 0.5 0.5 0.0
Fe1 Fe 0 0 0 1 0.0
Pd1 Pd 0 0.5 0.5 0.5 0.0
