#------------------------------------------------------------------------------
#$Date: 2016-02-14 16:26:36 +0200 (Sun, 14 Feb 2016) $
#$Revision: 176435 $
#$URL: svn://www.crystallography.net/cod/cif/1/51/00/1510083.cif $
#------------------------------------------------------------------------------
#
# This file is available in the Crystallography Open Database (COD),
# http://www.crystallography.net/
#
# All data on this site have been placed in the public domain by the
# contributors.
#
data_1510083
loop_
_publ_author_name
'Poettgen, R.'
'Borrmann, H.'
'Kremer, R.K.'
_publ_section_title
;
 Ferromagnetic ordering in Ce Au Ge
;
_journal_name_full               'Journal of Magnetism and Magnetic Materials'
_journal_page_first              196
_journal_page_last               200
_journal_paper_doi               10.1016/0304-8853(95)00430-0
_journal_volume                  152
_journal_year                    1996
_chemical_formula_sum            'Au Ce Ge'
_chemical_name_systematic        'Ce Au Ge'
_space_group_IT_number           186
_symmetry_space_group_name_Hall  'P 6c -2c'
_symmetry_space_group_name_H-M   'P 63 m c'
_cell_angle_alpha                90
_cell_angle_beta                 90
_cell_angle_gamma                120
_cell_formula_units_Z            2
_cell_length_a                   4.4603
_cell_length_b                   4.4603
_cell_length_c                   7.936
_cell_volume                     136.729
_citation_journal_id_ASTM        JMMMDC
_cod_data_source_file            gold_125.cif
_cod_data_source_block           Au1Ce1Ge1
_cod_original_cell_volume        136.7289
_cod_original_formula_sum        'Au1 Ce1 Ge1'
_cod_database_code               1510083
loop_
_symmetry_equiv_pos_as_xyz
x,y,z
x-y,x,z+1/2
-y,x-y,z
-x,-y,z+1/2
-x+y,-x,z
y,-x+y,z+1/2
y,x,z+1/2
-x+y,y,z
-x,-x+y,z+1/2
-y,-x,z
x-y,-y,z+1/2
x,x-y,z
loop_
_atom_site_label
_atom_site_type_symbol
_atom_site_fract_x
_atom_site_fract_y
_atom_site_fract_z
_atom_site_occupancy
_atom_site_U_iso_or_equiv
Ge1 Ge 0.3333 0.6667 0.2289 1 0.0
Au1 Au 0.3333 0.6667 0.77 1 0.0
Ce1 Ce 0 0 0.0042 1 0.0
