#------------------------------------------------------------------------------
#$Date: 2016-02-18 17:37:37 +0200 (Thu, 18 Feb 2016) $
#$Revision: 176729 $
#$URL: svn://www.crystallography.net/cod/cif/1/51/09/1510950.cif $
#------------------------------------------------------------------------------
#
# This file is available in the Crystallography Open Database (COD),
# http://www.crystallography.net/
#
# All data on this site have been placed in the public domain by the
# contributors.
#
data_1510950
loop_
_publ_author_name
'Krebs, B.'
'Diercks, H.'
'Puettmann, C.'
_publ_section_title
;
 Synthesis, crystal structures and properties of M3 B3 S6 (M=Na,K,Rb) and
 Li Sr B3 S6
;
_journal_name_full
'Phosphorus, Sulfur, Silicon and Related Elements'
_journal_page_first              1
_journal_page_last               4
_journal_paper_doi               10.1080/10426509208055305
_journal_volume                  65
_journal_year                    1992
_chemical_formula_sum            'B3 Rb3 S6'
_chemical_name_systematic        'Rb3 (B3 S6)'
_space_group_IT_number           167
_symmetry_space_group_name_Hall  '-R 3 2"c'
_symmetry_space_group_name_H-M   'R -3 c :H'
_cell_angle_alpha                90
_cell_angle_beta                 90
_cell_angle_gamma                120
_cell_formula_units_Z            6
_cell_length_a                   15.813
_cell_length_b                   15.813
_cell_length_c                   8.804
_cell_volume                     1906.511
_citation_journal_id_ASTM        PSSLEC
_cod_data_source_file            boron_483.cif
_cod_data_source_block           B3Rb3S6
_cod_original_cell_volume        1906.51
_cod_database_code               1510950
loop_
_symmetry_equiv_pos_as_xyz
x,y,z
-y,x-y,z
-x+y,-x,z
y,x,-z+1/2
-x,-x+y,-z+1/2
x-y,-y,-z+1/2
-x,-y,-z
y,-x+y,-z
x-y,x,-z
-y,-x,z-1/2
x,x-y,z-1/2
-x+y,y,z-1/2
x+2/3,y+1/3,z+1/3
-y+2/3,x-y+1/3,z+1/3
-x+y+2/3,-x+1/3,z+1/3
y+2/3,x+1/3,-z+5/6
-x+2/3,-x+y+1/3,-z+5/6
x-y+2/3,-y+1/3,-z+5/6
-x+2/3,-y+1/3,-z+1/3
y+2/3,-x+y+1/3,-z+1/3
x-y+2/3,x+1/3,-z+1/3
-y+2/3,-x+1/3,z-1/6
x+2/3,x-y+1/3,z-1/6
-x+y+2/3,y+1/3,z-1/6
x+1/3,y+2/3,z+2/3
-y+1/3,x-y+2/3,z+2/3
-x+y+1/3,-x+2/3,z+2/3
y+1/3,x+2/3,-z+7/6
-x+1/3,-x+y+2/3,-z+7/6
x-y+1/3,-y+2/3,-z+7/6
-x+1/3,-y+2/3,-z+2/3
y+1/3,-x+y+2/3,-z+2/3
x-y+1/3,x+2/3,-z+2/3
-y+1/3,-x+2/3,z+1/6
x+1/3,x-y+2/3,z+1/6
-x+y+1/3,y+2/3,z+1/6
loop_
_atom_site_label
_atom_site_type_symbol
_atom_site_fract_x
_atom_site_fract_y
_atom_site_fract_z
_atom_site_occupancy
_atom_site_U_iso_or_equiv
S1 S-2 0.88289 0 0.25 1 0.0
S2 S-2 0.22438 0 0.25 1 0.0
B1 B+3 0.1131 0 0.25 1 0.0
Rb1 Rb+1 0.44703 0 0.25 1 0.0
