#------------------------------------------------------------------------------
#$Date: 2016-02-14 16:26:36 +0200 (Sun, 14 Feb 2016) $
#$Revision: 176435 $
#$URL: svn://www.crystallography.net/cod/cif/1/51/14/1511486.cif $
#------------------------------------------------------------------------------
#
# This file is available in the Crystallography Open Database (COD),
# http://www.crystallography.net/
#
# All data on this site have been placed in the public domain by the
# contributors.
#
data_1511486
loop_
_publ_author_name
'Rogl, P.'
'Benesovsky, F.'
'Nowotny, H.'
_publ_section_title
;
 Ueber einige Komplexboride mit Platinmetallen
;
_journal_name_full               'Monatshefte fuer Chemie (-108,1977)'
_journal_page_first              965
_journal_page_last               989
_journal_volume                  103
_journal_year                    1972
_chemical_formula_sum            'B4 Mo Ru2'
_chemical_name_systematic        '(Mo Ru2) B4'
_space_group_IT_number           71
_symmetry_space_group_name_Hall  '-I 2 2'
_symmetry_space_group_name_H-M   'I m m m'
_cell_angle_alpha                90
_cell_angle_beta                 90
_cell_angle_gamma                90
_cell_formula_units_Z            2
_cell_length_a                   3.227
_cell_length_b                   13.244
_cell_length_c                   3.018
_cell_volume                     128.984
_citation_journal_id_ASTM        MOCHAP
_cod_data_source_file            boron4-x_116.cif
_cod_data_source_block           B4Mo1Ru2
_cod_original_cell_volume        128.9845
_cod_original_formula_sum        'B4 Mo1 Ru2'
_cod_database_code               1511486
loop_
_symmetry_equiv_pos_as_xyz
x,y,z
-x,-y,z
x,-y,-z
-x,y,-z
-x,-y,-z
x,y,-z
-x,y,z
x,-y,z
x+1/2,y+1/2,z+1/2
-x+1/2,-y+1/2,z+1/2
x+1/2,-y+1/2,-z+1/2
-x+1/2,y+1/2,-z+1/2
-x+1/2,-y+1/2,-z+1/2
x+1/2,y+1/2,-z+1/2
-x+1/2,y+1/2,z+1/2
x+1/2,-y+1/2,z+1/2
loop_
_atom_site_label
_atom_site_type_symbol
_atom_site_fract_x
_atom_site_fract_y
_atom_site_fract_z
_atom_site_occupancy
_atom_site_U_iso_or_equiv
B2 B-3 0 0.4322 0.5 1 0.0
Ru1 Ru+3 0.5 0.5 0 0.667 0.0
Mo2 Mo+6 0 0.1809 0 0.333 0.0
Mo1 Mo+6 0.5 0.5 0 0.333 0.0
Ru2 Ru+3 0 0.1809 0 0.667 0.0
B1 B-3 0 0.3709 0 1 0.0
