#------------------------------------------------------------------------------
#$Date: 2016-02-18 17:37:37 +0200 (Thu, 18 Feb 2016) $
#$Revision: 176729 $
#$URL: svn://www.crystallography.net/cod/cif/1/51/16/1511636.cif $
#------------------------------------------------------------------------------
#
# This file is available in the Crystallography Open Database (COD),
# http://www.crystallography.net/
#
# All data on this site have been placed in the public domain by the
# contributors.
#
data_1511636
loop_
_publ_author_name
'Kuz'ma, Yu.B.'
'Bilonizhko, N.S.'
_publ_section_title
;
 The system cerium - cobalt - boron
;
_journal_name_full
'Izvestiya Akademii Nauk SSSR, Neorganicheskie Materialy'
_journal_page_first              265
_journal_page_last               267
_journal_volume                  10
_journal_year                    1974
_chemical_formula_sum            'B4 Ce3 Co11'
_chemical_name_systematic        'Ce3 Co11 B4'
_space_group_IT_number           191
_symmetry_space_group_name_Hall  '-P 6 2'
_symmetry_space_group_name_H-M   'P 6/m m m'
_cell_angle_alpha                90
_cell_angle_beta                 90
_cell_angle_gamma                120
_cell_formula_units_Z            1
_cell_length_a                   5.045
_cell_length_b                   5.045
_cell_length_c                   9.925
_cell_volume                     218.768
_citation_journal_id_ASTM        IVNMAW
_cod_data_source_file            boron4-x_29.cif
_cod_data_source_block           B4Ce3Co11
_cod_original_cell_volume        218.7679
_cod_database_code               1511636
loop_
_symmetry_equiv_pos_as_xyz
x,y,z
x-y,x,z
-y,x-y,z
-x,-y,z
-x+y,-x,z
y,-x+y,z
-y,-x,-z
x-y,-y,-z
x,x-y,-z
y,x,-z
-x+y,y,-z
-x,-x+y,-z
-x,-y,-z
-x+y,-x,-z
y,-x+y,-z
x,y,-z
x-y,x,-z
-y,x-y,-z
y,x,z
-x+y,y,z
-x,-x+y,z
-y,-x,z
x-y,-y,z
x,x-y,z
loop_
_atom_site_label
_atom_site_type_symbol
_atom_site_fract_x
_atom_site_fract_y
_atom_site_fract_z
_atom_site_occupancy
_atom_site_U_iso_or_equiv
Co3 Co 0.5 0 0.2 1 0.0
B1 B 0.3333 0.6666 0.35 1 0.0
Ce1 Ce 0 0 0 1 0.0
Co1 Co 0.3333 0.6666 0 1 0.0
Ce2 Ce 0 0 0.333 1 0.0
Co2 Co 0.5 0 0.5 1 0.0
