#------------------------------------------------------------------------------
#$Date: 2016-02-14 16:26:36 +0200 (Sun, 14 Feb 2016) $
#$Revision: 176435 $
#$URL: svn://www.crystallography.net/cod/cif/1/51/13/1511339.cif $
#------------------------------------------------------------------------------
#
# This file is available in the Crystallography Open Database (COD),
# http://www.crystallography.net/
#
# All data on this site have been placed in the public domain by the
# contributors.
#
data_1511339
loop_
_publ_author_name
'Stuemke, M.'
'Petzow, G.'
_publ_section_title
;
 Kristallstrukturen und Gitterabmessungen von UebergangsmetallDiberryliden
 und Diboriden in ternaeren Mischkristallbereichen
;
_journal_name_full               'Zeitschrift fuer Metallkunde'
_journal_page_first              292
_journal_page_last               297
_journal_volume                  66
_journal_year                    1975
_chemical_formula_sum            'B1.24 Be0.76 Ti'
_chemical_name_systematic        'Ti Be0.76 B1.24'
_space_group_IT_number           191
_symmetry_space_group_name_Hall  '-P 6 2'
_symmetry_space_group_name_H-M   'P 6/m m m'
_cell_angle_alpha                90
_cell_angle_beta                 90
_cell_angle_gamma                120
_cell_formula_units_Z            1
_cell_length_a                   3.159
_cell_length_b                   3.159
_cell_length_c                   3.231
_cell_volume                     27.923
_citation_journal_id_ASTM        ZEMTAE
_cod_data_source_file            boron0-1_473.cif
_cod_data_source_block           B1.24Be0.76Ti1
_cod_original_cell_volume        27.9233
_cod_original_formula_sum        'B1.24 Be0.76 Ti1'
_cod_database_code               1511339
loop_
_symmetry_equiv_pos_as_xyz
x,y,z
x-y,x,z
-y,x-y,z
-x,-y,z
-x+y,-x,z
y,-x+y,z
-y,-x,-z
x-y,-y,-z
x,x-y,-z
y,x,-z
-x+y,y,-z
-x,-x+y,-z
-x,-y,-z
-x+y,-x,-z
y,-x+y,-z
x,y,-z
x-y,x,-z
-y,x-y,-z
y,x,z
-x+y,y,z
-x,-x+y,z
-y,-x,z
x-y,-y,z
x,x-y,z
loop_
_atom_site_label
_atom_site_type_symbol
_atom_site_fract_x
_atom_site_fract_y
_atom_site_fract_z
_atom_site_occupancy
_atom_site_U_iso_or_equiv
Be1 Be 0.3333 0.6667 0.5 0.38 0.0
B1 B 0.3333 0.6667 0.5 0.62 0.0
Ti1 Ti 0 0 0 1 0.0
