#------------------------------------------------------------------------------
#$Date: 2016-02-18 17:37:37 +0200 (Thu, 18 Feb 2016) $
#$Revision: 176729 $
#$URL: svn://www.crystallography.net/cod/cif/1/51/15/1511505.cif $
#------------------------------------------------------------------------------
#
# This file is available in the Crystallography Open Database (COD),
# http://www.crystallography.net/
#
# All data on this site have been placed in the public domain by the
# contributors.
#
data_1511505
loop_
_publ_author_name
'Stadnyk, B.I.'
'Chaban, N.F.'
'Lakh, V.I.'
'Kuz'ma, Yu.B.'
_publ_section_title
;
 System tantalum-rhenium-boron
;
_journal_name_full
;
Dopovidi Akademii Nauk Ukrains'koi RSR, Seriya A: Fiziko-Tekhnichni ta
 Matematichni Nauki
;
_journal_page_first              849
_journal_page_last               851
_journal_volume                  1971
_journal_year                    1971
_chemical_formula_sum            'B4 Re3 Ta3'
_chemical_name_systematic        'Re3 Ta3 B4'
_space_group_IT_number           127
_symmetry_space_group_name_Hall  '-P 4 2ab'
_symmetry_space_group_name_H-M   'P 4/m b m'
_cell_angle_alpha                90
_cell_angle_beta                 90
_cell_angle_gamma                90
_cell_formula_units_Z            1
_cell_length_a                   5.989
_cell_length_b                   5.989
_cell_length_c                   3.282
_cell_volume                     117.719
_citation_journal_id_ASTM        DUKABM
_cod_data_source_file            boron4-x_136.cif
_cod_data_source_block           B4Re3Ta3
_cod_original_cell_volume        117.7192
_cod_database_code               1511505
loop_
_symmetry_equiv_pos_as_xyz
x,y,z
-y,x,z
-x,-y,z
y,-x,z
x+1/2,-y+1/2,-z
y+1/2,x+1/2,-z
-x+1/2,y+1/2,-z
-y+1/2,-x+1/2,-z
-x,-y,-z
y,-x,-z
x,y,-z
-y,x,-z
-x-1/2,y-1/2,z
-y-1/2,-x-1/2,z
x-1/2,-y-1/2,z
y-1/2,x-1/2,z
loop_
_atom_site_label
_atom_site_type_symbol
_atom_site_fract_x
_atom_site_fract_y
_atom_site_fract_z
_atom_site_occupancy
_atom_site_U_iso_or_equiv
Ta1 Ta 0 0 0 1 0.0
Ta2 Ta 0.18 0.68 0.5 0.25 0.0
B1 B 0.39 0.89 0 1 0.0
Re1 Re 0.18 0.68 0.5 0.75 0.0
