#------------------------------------------------------------------------------
#$Date: 2016-02-14 16:26:36 +0200 (Sun, 14 Feb 2016) $
#$Revision: 176435 $
#$URL: svn://www.crystallography.net/cod/cif/1/51/13/1511307.cif $
#------------------------------------------------------------------------------
#
# This file is available in the Crystallography Open Database (COD),
# http://www.crystallography.net/
#
# All data on this site have been placed in the public domain by the
# contributors.
#
data_1511307
loop_
_publ_author_name
'Hamann, W.'
'Krebs, B.'
'Koester, C.'
'Kuchinke, J.'
'Lindemann, A.'
'Kueper, J.'
_publ_section_title
;
 Syntheses, crystal structures, and properties of the three novel
 perselenoborates Rb B Se3, Cs B Se3 and Tl B Se3 with polymeric chain
 anions
;
_journal_name_full               'Journal of Solid State Chemistry'
_journal_page_first              206
_journal_page_last               212
_journal_paper_doi               10.1006/jssc.2000.9076
_journal_volume                  157
_journal_year                    2001
_chemical_formula_sum            'B Rb Se3'
_chemical_name_systematic        'Rb (B Se (Se2))'
_space_group_IT_number           14
_symmetry_space_group_name_Hall  '-P 2ybc'
_symmetry_space_group_name_H-M   'P 1 21/c 1'
_cell_angle_alpha                90
_cell_angle_beta                 105.67
_cell_angle_gamma                90
_cell_formula_units_Z            4
_cell_length_a                   7.2789
_cell_length_b                   12.385
_cell_length_c                   6.169
_cell_volume                     535.461
_citation_journal_id_ASTM        JSSCBI
_cod_data_source_file            boron0-1_439.cif
_cod_data_source_block           B1Rb1Se3
_cod_original_cell_volume        535.4608
_cod_original_formula_sum        'B1 Rb1 Se3'
_cod_database_code               1511307
loop_
_symmetry_equiv_pos_as_xyz
x,y,z
-x,y+1/2,-z+1/2
-x,-y,-z
x,-y-1/2,z-1/2
loop_
_atom_site_label
_atom_site_type_symbol
_atom_site_fract_x
_atom_site_fract_y
_atom_site_fract_z
_atom_site_occupancy
_atom_site_U_iso_or_equiv
Se1 Se-1 0.9421 0.17992 0.17495 1 0.0
Rb1 Rb+1 0.25873 0.42326 0.2078 1 0.0
Se2 Se-1 0.80071 0.41125 0.33566 1 0.0
Se3 Se-1 0.53912 0.19341 0.35802 1 0.0
B1 B+3 0.7017 0.2687 0.176 1 0.0
