#------------------------------------------------------------------------------
#$Date: 2016-02-18 17:37:37 +0200 (Thu, 18 Feb 2016) $
#$Revision: 176729 $
#$URL: svn://www.crystallography.net/cod/cif/1/51/16/1511642.cif $
#------------------------------------------------------------------------------
#
# This file is available in the Crystallography Open Database (COD),
# http://www.crystallography.net/
#
# All data on this site have been placed in the public domain by the
# contributors.
#
data_1511642
loop_
_publ_author_name
'Jung, W.'
_publ_section_title
;
 AnRh3n-1B2n mit A= Ca und Sr, eine homologe Reihe ternaerer
 Erdalkali-Rhodiumboride aus Bauelementen der CeCo3B2-und der
 CaRh2B2-Struktur
;
_journal_name_full               'Journal of the Less-Common Metals'
_journal_page_first              253
_journal_page_last               263
_journal_paper_doi               10.1016/0022-5088(84)90030-4
_journal_volume                  97
_journal_year                    1984
_chemical_formula_sum            'B6 Rh8 Sr3'
_chemical_name_systematic        'Sr3 Rh8 B6'
_space_group_IT_number           69
_symmetry_space_group_name_Hall  '-F 2 2'
_symmetry_space_group_name_H-M   'F m m m'
_cell_angle_alpha                90
_cell_angle_beta                 90
_cell_angle_gamma                90
_cell_formula_units_Z            4
_cell_length_a                   5.572
_cell_length_b                   9.921
_cell_length_c                   17.118
_cell_volume                     946.280
_citation_journal_id_ASTM        JCOMAH
_cod_data_source_file            boron4-x_296.cif
_cod_data_source_block           B6Rh8Sr3
_cod_original_cell_volume        946.2798
_cod_database_code               1511642
loop_
_symmetry_equiv_pos_as_xyz
x,y,z
-x,-y,z
x,-y,-z
-x,y,-z
-x,-y,-z
x,y,-z
-x,y,z
x,-y,z
x,y+1/2,z+1/2
-x,-y+1/2,z+1/2
x,-y+1/2,-z+1/2
-x,y+1/2,-z+1/2
-x,-y+1/2,-z+1/2
x,y+1/2,-z+1/2
-x,y+1/2,z+1/2
x,-y+1/2,z+1/2
x+1/2,y,z+1/2
-x+1/2,-y,z+1/2
x+1/2,-y,-z+1/2
-x+1/2,y,-z+1/2
-x+1/2,-y,-z+1/2
x+1/2,y,-z+1/2
-x+1/2,y,z+1/2
x+1/2,-y,z+1/2
x+1/2,y+1/2,z
-x+1/2,-y+1/2,z
x+1/2,-y+1/2,-z
-x+1/2,y+1/2,-z
-x+1/2,-y+1/2,-z
x+1/2,y+1/2,-z
-x+1/2,y+1/2,z
x+1/2,-y+1/2,z
loop_
_atom_site_label
_atom_site_type_symbol
_atom_site_fract_x
_atom_site_fract_y
_atom_site_fract_z
_atom_site_occupancy
_atom_site_U_iso_or_equiv
Sr1 Sr+2 0 0 0.5 1 0.0
Rh2 Rh+1 0.25 0.25 0.0844 1 0.0
Sr2 Sr+2 0 0 0.317 1 0.0
Rh3 Rh+1 0.25 0.25 0.25 1 0.0
B2 B-3 0 0.165 0.1701 1 0.0
Rh1 Rh+1 0 0 0.0865 1 0.0
B1 B-3 0 0.165 0 1 0.0
