#------------------------------------------------------------------------------
#$Date: 2016-02-14 16:26:36 +0200 (Sun, 14 Feb 2016) $
#$Revision: 176435 $
#$URL: svn://www.crystallography.net/cod/cif/1/51/10/1511033.cif $
#------------------------------------------------------------------------------
#
# This file is available in the Crystallography Open Database (COD),
# http://www.crystallography.net/
#
# All data on this site have been placed in the public domain by the
# contributors.
#
data_1511033
loop_
_publ_author_name
'Takei, H.'
'Shishido, T.'
_publ_section_title
;
 Rare earth rhodium borides with the perovskite structure
;
_journal_name_full               'Journal of the Less-Common Metals'
_journal_page_first              223
_journal_page_last               229
_journal_paper_doi               10.1016/0022-5088(84)90026-2
_journal_volume                  97
_journal_year                    1984
_chemical_formula_sum            'B Ce Rh3'
_chemical_name_systematic        'Ce Rh3 B'
_space_group_IT_number           221
_symmetry_space_group_name_Hall  '-P 4 2 3'
_symmetry_space_group_name_H-M   'P m -3 m'
_cell_angle_alpha                90
_cell_angle_beta                 90
_cell_angle_gamma                90
_cell_formula_units_Z            1
_cell_length_a                   4.213
_cell_length_b                   4.213
_cell_length_c                   4.213
_cell_volume                     74.778
_citation_journal_id_ASTM        JCOMAH
_cod_data_source_file            boron0-1_116.cif
_cod_data_source_block           B1Ce1Rh3
_cod_original_cell_volume        74.77808
_cod_original_formula_sum        'B1 Ce1 Rh3'
_cod_database_code               1511033
loop_
_symmetry_equiv_pos_as_xyz
x,y,z
-y,x,z
-x,-y,z
y,-x,z
x,-y,-z
y,x,-z
-x,y,-z
-y,-x,-z
z,x,y
-x,z,y
-z,-x,y
x,-z,y
z,-x,-y
x,z,-y
-z,x,-y
-x,-z,-y
y,z,x
y,-z,-x
z,y,-x
-y,z,-x
-z,-y,-x
-y,-z,x
z,-y,x
-z,y,x
-x,-y,-z
y,-x,-z
x,y,-z
-y,x,-z
-x,y,z
-y,-x,z
x,-y,z
y,x,z
-z,-x,-y
x,-z,-y
z,x,-y
-x,z,-y
-z,x,y
-x,-z,y
z,-x,y
x,z,y
-y,-z,-x
-y,z,x
-z,-y,x
y,-z,x
z,y,x
y,z,-x
-z,y,-x
z,-y,-x
loop_
_atom_site_label
_atom_site_type_symbol
_atom_site_fract_x
_atom_site_fract_y
_atom_site_fract_z
_atom_site_occupancy
_atom_site_U_iso_or_equiv
B1 B 0.5 0.5 0.5 1 0.0
Ce1 Ce 0 0 0 1 0.0
Rh1 Rh 0 0.5 0.5 1 0.0
