#------------------------------------------------------------------------------
#$Date: 2016-02-14 16:26:36 +0200 (Sun, 14 Feb 2016) $
#$Revision: 176435 $
#$URL: svn://www.crystallography.net/cod/cif/1/51/15/1511575.cif $
#------------------------------------------------------------------------------
#
# This file is available in the Crystallography Open Database (COD),
# http://www.crystallography.net/
#
# All data on this site have been placed in the public domain by the
# contributors.
#
data_1511575
loop_
_publ_author_name
'Kuz'ma, Yu.B.'
'Bruskov, V.O.'
'Aksel'rud, L.G.'
_publ_section_title
;
 The crystal structure of the boride Ce Ni12 B6
;
_journal_name_full
;
Dopovidi Akademii Nauk Ukrains'koi RSR, Seriya B: Geologichni, Khimichni ta
 Biologichni Nauki
;
_journal_page_first              33
_journal_page_last               35
_journal_volume                  1985
_journal_year                    1985
_chemical_formula_sum            'B6 Ce Ni12'
_chemical_name_systematic        'Ce Ni12 B6'
_space_group_IT_number           36
_symmetry_space_group_name_Hall  'C 2c -2'
_symmetry_space_group_name_H-M   'C m c 21'
_cell_angle_alpha                90
_cell_angle_beta                 90
_cell_angle_gamma                90
_cell_formula_units_Z            4
_cell_length_a                   9.586
_cell_length_b                   7.409
_cell_length_c                   11.071
_cell_volume                     786.292
_citation_journal_id_ASTM        DANND6
_cod_data_source_file            boron4-x_224.cif
_cod_data_source_block           B6Ce1Ni12
_cod_original_cell_volume        786.2921
_cod_original_formula_sum        'B6 Ce1 Ni12'
_cod_database_code               1511575
loop_
_symmetry_equiv_pos_as_xyz
x,y,z
-x,-y,z+1/2
-x,y,z
x,-y,z+1/2
x+1/2,y+1/2,z
-x+1/2,-y+1/2,z+1/2
-x+1/2,y+1/2,z
x+1/2,-y+1/2,z+1/2
loop_
_atom_site_label
_atom_site_type_symbol
_atom_site_fract_x
_atom_site_fract_y
_atom_site_fract_z
_atom_site_occupancy
_atom_site_U_iso_or_equiv
B3 B 0.289 0.031 0.611 1 0.0
Ni3 Ni 0.363 0.172 0.765 1 0.0
Ni7 Ni 0.131 0.343 0.721 1 0.0
B1 B 0 0.826 0.662 1 0.0
B2 B 0 0.512 0.862 1 0.0
Ni6 Ni 0.18 0.189 0.062 1 0.0
Ni2 Ni 0 0.225 0.896 1 0.0
B4 B 0.21 0.199 0.885 1 0.0
Ni1 Ni 0 0.431 0.083 1 0.0
Ni4 Ni 0.133 0.015 0.744 1 0.0
Ce1 Ce 0 0.832 0 1 0.0
Ni5 Ni 0.191 0.462 0.929 1 0.0
