#------------------------------------------------------------------------------
#$Date: 2016-02-18 17:37:37 +0200 (Thu, 18 Feb 2016) $
#$Revision: 176729 $
#$URL: svn://www.crystallography.net/cod/cif/1/51/14/1511413.cif $
#------------------------------------------------------------------------------
#
# This file is available in the Crystallography Open Database (COD),
# http://www.crystallography.net/
#
# All data on this site have been placed in the public domain by the
# contributors.
#
data_1511413
loop_
_publ_author_name
'Guerin, R.'
'Bauer, J.'
'Ashbrook, S.E.'
'Halet, J.F.'
'Hiebl, K.'
'Roger, J.'
'Babizhetskyy, V.'
'Cordier, S.'
'le Polles, L.'
_publ_section_title
;
 Crystal structures, physical properties and NMR experiments on the
 ternary rare-earth metal silicide boride compounds RE5Si2B8 (RE = Y, Sm,
 Gd, Tb, Dy Ho)
;
_journal_name_full               'Journal of Solid State Chemistry'
_journal_page_first              1851
_journal_page_last               1863
_journal_paper_doi               10.1016/j.jssc.2005.02.023
_journal_volume                  178
_journal_year                    2005
_chemical_formula_sum            'B16 Dy10 Si3.84'
_chemical_name_systematic        'Dy10 Si3.84 B16'
_space_group_IT_number           127
_symmetry_space_group_name_Hall  '-P 4 2ab'
_symmetry_space_group_name_H-M   'P 4/m b m'
_cell_angle_alpha                90
_cell_angle_beta                 90
_cell_angle_gamma                90
_cell_formula_units_Z            1
_cell_length_a                   7.2209
_cell_length_b                   7.2209
_cell_length_c                   8.0545
_cell_volume                     419.973
_citation_journal_id_ASTM        JSSCBI
_cod_data_source_file            boron0-1_558.cif
_cod_data_source_block           B16Dy10Si3.84
_cod_original_cell_volume        419.9729
_cod_database_code               1511413
loop_
_symmetry_equiv_pos_as_xyz
x,y,z
-y,x,z
-x,-y,z
y,-x,z
x+1/2,-y+1/2,-z
y+1/2,x+1/2,-z
-x+1/2,y+1/2,-z
-y+1/2,-x+1/2,-z
-x,-y,-z
y,-x,-z
x,y,-z
-y,x,-z
-x-1/2,y-1/2,z
-y-1/2,-x-1/2,z
x-1/2,-y-1/2,z
y-1/2,x-1/2,z
loop_
_atom_site_label
_atom_site_type_symbol
_atom_site_fract_x
_atom_site_fract_y
_atom_site_fract_z
_atom_site_occupancy
_atom_site_U_iso_or_equiv
B2 B 0.6737 0.4606 0.5 1 0.0
Dy2 Dy 0.81887 0.68113 0.72528 1 0.0
Dy1 Dy 0 0 0 1 0.0
Si1 Si 0.3846 0.1154 0 0.961 0.0
B3 B 0 0 0.3344 1 0.0
B1 B 0.909 0.409 0.5 1 0.0
