#------------------------------------------------------------------------------
#$Date: 2016-02-18 17:37:37 +0200 (Thu, 18 Feb 2016) $
#$Revision: 176729 $
#$URL: svn://www.crystallography.net/cod/cif/1/51/15/1511573.cif $
#------------------------------------------------------------------------------
#
# This file is available in the Crystallography Open Database (COD),
# http://www.crystallography.net/
#
# All data on this site have been placed in the public domain by the
# contributors.
#
data_1511573
loop_
_publ_author_name
'Gurin, V.N.'
'Blomberg, M.K.'
'Merisalo, M.J.'
'Korsukova, M.M.'
_publ_section_title
;
 X-ray structure refinement of single crystals of Ce B6 and Ce0.75 La0.25
 B6 solid solution grown by the solution method.
;
_journal_name_full               'Journal of the Less-Common Metals'
_journal_page_first              309
_journal_page_last               318
_journal_paper_doi               10.1016/0022-5088(89)90388-3
_journal_volume                  146
_journal_year                    1989
_chemical_formula_sum            'B6 Ce0.72 La0.28'
_chemical_name_systematic        '(Ce0.72 La0.28) B6'
_space_group_IT_number           221
_symmetry_space_group_name_Hall  '-P 4 2 3'
_symmetry_space_group_name_H-M   'P m -3 m'
_cell_angle_alpha                90
_cell_angle_beta                 90
_cell_angle_gamma                90
_cell_formula_units_Z            1
_cell_length_a                   4.1443
_cell_length_b                   4.1443
_cell_length_c                   4.1443
_cell_volume                     71.179
_citation_journal_id_ASTM        JCOMAH
_cod_data_source_file            boron4-x_222.cif
_cod_data_source_block           B6Ce0.72La0.28
_cod_original_cell_volume        71.17928
_cod_database_code               1511573
loop_
_symmetry_equiv_pos_as_xyz
x,y,z
-y,x,z
-x,-y,z
y,-x,z
x,-y,-z
y,x,-z
-x,y,-z
-y,-x,-z
z,x,y
-x,z,y
-z,-x,y
x,-z,y
z,-x,-y
x,z,-y
-z,x,-y
-x,-z,-y
y,z,x
y,-z,-x
z,y,-x
-y,z,-x
-z,-y,-x
-y,-z,x
z,-y,x
-z,y,x
-x,-y,-z
y,-x,-z
x,y,-z
-y,x,-z
-x,y,z
-y,-x,z
x,-y,z
y,x,z
-z,-x,-y
x,-z,-y
z,x,-y
-x,z,-y
-z,x,y
-x,-z,y
z,-x,y
x,z,y
-y,-z,-x
-y,z,x
-z,-y,x
y,-z,x
z,y,x
y,z,-x
-z,y,-x
z,-y,-x
loop_
_atom_site_label
_atom_site_type_symbol
_atom_site_fract_x
_atom_site_fract_y
_atom_site_fract_z
_atom_site_occupancy
_atom_site_U_iso_or_equiv
La1 La 0 0 0 0.28 0.0
B1 B 0.19946 0.5 0.5 1 0.0
Ce1 Ce 0 0 0 0.72 0.0
