#------------------------------------------------------------------------------
#$Date: 2016-02-14 16:26:36 +0200 (Sun, 14 Feb 2016) $
#$Revision: 176435 $
#$URL: svn://www.crystallography.net/cod/cif/1/51/11/1511141.cif $
#------------------------------------------------------------------------------
#
# This file is available in the Crystallography Open Database (COD),
# http://www.crystallography.net/
#
# All data on this site have been placed in the public domain by the
# contributors.
#
data_1511141
loop_
_publ_author_name
'Herbst, J.F.'
'Yelon, W.B.'
_publ_section_title
;
 Crystal and magnetic structure of Ce2 Fe14 B and Lu2 Fe14 B
;
_journal_name_full               'Journal of Magnetism and Magnetic Materials'
_journal_page_first              570
_journal_page_last               572
_journal_volume                  54
_journal_year                    1986
_chemical_formula_sum            'B Fe14 Lu2'
_chemical_name_systematic        'Lu2 Fe14 B'
_space_group_IT_number           136
_symmetry_space_group_name_Hall  '-P 4n 2n'
_symmetry_space_group_name_H-M   'P 42/m n m'
_cell_angle_alpha                90
_cell_angle_beta                 90
_cell_angle_gamma                90
_cell_formula_units_Z            4
_cell_length_a                   8.697
_cell_length_b                   8.697
_cell_length_c                   11.85
_cell_volume                     896.308
_citation_journal_id_ASTM        JMMMDC
_cod_data_source_file            boron0-1_244.cif
_cod_data_source_block           B1Fe14Lu2
_cod_original_formula_sum        'B1 Fe14 Lu2'
_cod_database_code               1511141
loop_
_symmetry_equiv_pos_as_xyz
x,y,z
-y+1/2,x+1/2,z+1/2
-x,-y,z
y+1/2,-x+1/2,z+1/2
x+1/2,-y+1/2,-z+1/2
y,x,-z
-x+1/2,y+1/2,-z+1/2
-y,-x,-z
-x,-y,-z
y-1/2,-x-1/2,-z-1/2
x,y,-z
-y-1/2,x-1/2,-z-1/2
-x-1/2,y-1/2,z-1/2
-y,-x,z
x-1/2,-y-1/2,z-1/2
y,x,z
loop_
_atom_site_label
_atom_site_type_symbol
_atom_site_fract_x
_atom_site_fract_y
_atom_site_fract_z
_atom_site_occupancy
_atom_site_U_iso_or_equiv
Lu1 Lu 0.2677 0.2677 0 1 0.0
Fe3 Fe 0.0958 0.0958 0.1991 1 0.0
Lu2 Lu 0.1389 0.8611 0 1 0.0
B1 B 0.369 0.631 0 1 0.0
Fe6 Fe 0.0357 0.357 0.1726 1 0.0
Fe4 Fe 0.3172 0.3172 0.2434 1 0.0
Fe2 Fe 0 0 0.6156 1 0.0
Fe5 Fe 0.2249 0.5644 0.1259 1 0.0
Fe1 Fe 0 0.5 0 1 0.0
