#------------------------------------------------------------------------------
#$Date: 2016-02-14 16:26:36 +0200 (Sun, 14 Feb 2016) $
#$Revision: 176435 $
#$URL: svn://www.crystallography.net/cod/cif/1/51/77/1517736.cif $
#------------------------------------------------------------------------------
#
# This file is available in the Crystallography Open Database (COD),
# http://www.crystallography.net/
#
# All data on this site have been placed in the public domain by the
# contributors.
#
data_1517736
loop_
_publ_author_name
'Amos, T.G.'
'Sleight, A.W.'
_publ_section_title
;
 Negative thermal expansion in orthorhombic Nb O P O4
;
_journal_name_full               'Journal of Solid State Chemistry'
_journal_page_first              230
_journal_page_last               238
_journal_volume                  160
_journal_year                    2001
_chemical_formula_structural     '(Nb O) (P O4)'
_chemical_formula_sum            'Nb O5 P'
_chemical_name_systematic        'Oxoniobium Phosphate(V)'
_space_group_IT_number           62
_symmetry_Int_Tables_number      62
_symmetry_space_group_name_Hall  '-P 2ac 2n'
_symmetry_space_group_name_H-M   'P n m a'
_cell_angle_alpha                90
_cell_angle_beta                 90
_cell_angle_gamma                90
_cell_formula_units_Z            4
_cell_length_a                   11.253(1)
_cell_length_b                   5.316(1)
_cell_length_c                   6.661(1)
_cell_volume                     398.47(10)
_diffrn_ambient_temperature      673.15
_cod_data_source_file            NbPO5_Pnma_DC282.cif
_cod_data_source_block           chateigner
_cod_original_cell_volume        398.47
_cod_original_formula_sum        'Nb1 O5 P1'
_cod_database_code               1517736
loop_
_symmetry_equiv_pos_site_id
_symmetry_equiv_pos_as_xyz
1 'x+1/2, y, -z+1/2'
2 'x, -y+1/2, z'
3 '-x+1/2, y+1/2, z+1/2'
4 '-x, -y, -z'
5 '-x+1/2, -y, z+1/2'
6 '-x, y+1/2, -z'
7 'x+1/2, -y+1/2, -z+1/2'
8 'x, y, z'
loop_
_atom_site_aniso_label
_atom_site_aniso_type_symbol
_atom_site_aniso_U_11
_atom_site_aniso_U_22
_atom_site_aniso_U_33
_atom_site_aniso_U_12
_atom_site_aniso_U_13
_atom_site_aniso_U_23
Nb1 Nb5+ 0.0097(9) 0.015(1) 0.014(1) 0. 0. 0.
P1 P5+ 0.016(1) 0.012(1) 0.012(1) 0. 0. 0.
O1 O2- 0.028(2) 0.051(2) 0.008(1) 0. 0. 0.
O2 O2- 0.010(2) 0.040(2) 0.038(2) 0. 0. 0.
O3 O2- 0.045(1) 0.011(1) 0.071(2) 0. 0. 0.
O4 O2- 0.015(1) 0.034(2) 0.034(2) 0. 0. 0.
loop_
_atom_site_label
_atom_site_type_symbol
_atom_site_symmetry_multiplicity
_atom_site_Wyckoff_symbol
_atom_site_fract_x
_atom_site_fract_y
_atom_site_fract_z
_atom_site_occupancy
_atom_site_attached_hydrogens
_atom_site_U_iso_or_equiv
Nb1 Nb5+ 4 c 0.4377(2) 0.250 0.3302(4) 1. 0 0.012(1)
P1 P5+ 4 c 0.1534(3) 0.250 0.5288(5) 1. 0 0.014(1)
O1 O2- 4 a 0 0 0 1. 0 0.027(1)
O2 O2- 4 c 0.0807(3) 0.250 0.3350(5) 1. 0 0.026(1)
O3 O2- 8 d 0.1278(2) 0.0162(5) 0.6462(4) 1. 0 0.039(1)
O4 O2- 4 c 0.2850(3) 0.250 0.4709(5) 1. 0 0.025(1)
loop_
_atom_type_symbol
_atom_type_oxidation_number
Nb5+ 5
O2- -2
P5+ 5
