#------------------------------------------------------------------------------
#$Date: 2016-02-18 17:37:37 +0200 (Thu, 18 Feb 2016) $
#$Revision: 176729 $
#$URL: svn://www.crystallography.net/cod/cif/1/51/78/1517836.cif $
#------------------------------------------------------------------------------
#
# This file is available in the Crystallography Open Database (COD),
# http://www.crystallography.net/
#
# All data on this site have been placed in the public domain by the
# contributors.
#
data_1517836
loop_
_publ_author_name
'Pfitzner, A.'
'Cockcroft, J. K.'
'Solinas, I.'
'Litz, H. D.'
_publ_section_title
;
 Neue halogenozinkate(II) M[I]2ZnX4 (M[I] = Li, Na; X = Cl, ,Br) mit
 olivinstruktur
;
_journal_name_full
'Zeitschrift fuer Anorganische und Allgemeine Chemie'
_journal_page_first              993
_journal_page_last               998
_journal_volume                  619
_journal_year                    1993
_chemical_formula_moiety         'Br4 Zn, 2(Li)'
_chemical_formula_sum            'Br4 Li2 Zn'
_chemical_formula_weight         398.87
_space_group_IT_number           62
_symmetry_cell_setting           orthorhombic
_symmetry_Int_Tables_number      62
_symmetry_space_group_name_Hall  '-P 2ac 2n'
_symmetry_space_group_name_H-M   'P n m a'
_cell_angle_alpha                90
_cell_angle_beta                 90
_cell_angle_gamma                90
_cell_formula_units_Z            4
_cell_length_a                   13.6041(4)
_cell_length_b                   7.8847(2)
_cell_length_c                   6.4707(2)
_cell_volume                     694.07(3)
_computing_structure_refinement  Rietveld
_diffrn_radiation_type           neutron
_diffrn_radiation_wavelength     1.594
_exptl_crystal_density_diffrn    3.817
_exptl_crystal_F_000             116
_pd_proc_ls_prof_wR_expected     6.95
_pd_proc_ls_prof_wR_factor       7.43
_refine_ls_R_I_factor            9.07
_cod_data_source_file            Li2ZnBr4.cif
_cod_data_source_block           Li2ZnBr4
_cod_original_cell_volume        694.08(3)
_cod_database_code               1517836
loop_
_symmetry_equiv_pos_site_id
_symmetry_equiv_pos_as_xyz
1 x,y,z
2 1/2-x,-y,1/2+z
3 1/2+x,1/2-y,1/2-z
4 -x,1/2+y,-z
5 -x,-y,-z
6 1/2+x,y,1/2-z
7 1/2-x,1/2+y,1/2+z
8 x,1/2-y,z
loop_
_atom_site_label
_atom_site_type_symbol
_atom_site_thermal_displace_type
_atom_site_fract_x
_atom_site_fract_y
_atom_site_fract_z
_atom_site_occupancy
_atom_site_U_iso_or_equiv
Br1 Br Uiso 0.0899(4) 0.25000 0.7772(6) 1.000 0.0193(10)
Br2 Br Uiso 0.4262(4) 0.25000 0.2480(7) 1.000 0.0256(14)
Br3 Br Uiso 0.1669(3) 0.0079(4) 0.2516(7) 1.000 0.0229(8)
Zn Zn Uiso 0.0875(5) 0.25000 0.4095(6) 1.000 0.0229(9)
Li1 Li Uiso 0.00000 0.00000 0.00000 1.000 0.043(5)
Li2 Li Uiso 0.2653(14) 0.25000 0.006(3) 1.000 0.042(5)
loop_
_geom_angle_atom_site_label_1
_geom_angle_atom_site_label_2
_geom_angle_atom_site_label_3
_geom_angle
_geom_angle_site_symmetry_1
_geom_angle_site_symmetry_3
_geom_angle_publ_flag
Br1 Zn Br3 114.59(19) . . yes
Br1 Zn Br2 115.7(3) . 3_455 yes
Br1 Zn Br3 114.59(19) . 8_555 yes
Br2 Zn Br3 103.12(18) 3_455 . yes
Br3 Zn Br3 104.2(2) . 8_555 yes
Br2 Zn Br3 103.12(18) 3_455 8_555 yes
loop_
_geom_bond_atom_site_label_1
_geom_bond_atom_site_label_2
_geom_bond_distance
_geom_bond_site_symmetry_2
_geom_bond_publ_flag
Br1 Zn 2.380(5) . yes
Br2 Zn 2.420(8) 3_555 yes
Br3 Zn 2.420(5) . yes
