#------------------------------------------------------------------------------
#$Date: 2016-02-13 21:28:24 +0200 (Sat, 13 Feb 2016) $
#$Revision: 176429 $
#$URL: svn://www.crystallography.net/cod/cif/1/51/96/1519661.cif $
#------------------------------------------------------------------------------
#
# This file is available in the Crystallography Open Database (COD),
# http://www.crystallography.net/
#
# All data on this site have been placed in the public domain by the
# contributors.
#
data_1519661
loop_
_publ_author_name
'Wiedemann, Dennis'
'Islam, Mazharul M.'
'Nakhal, Suliman'
'Senyshyn, Anatoliy'
'Bredow, Thomas'
'Lerch, Martin'
_publ_section_title
;
 Lithium Diffusion Pathways in 3R-LixTiS2: A Combined Neutron Diffraction
 and Computational Study
;
_journal_issue                   21
_journal_name_full               'The Journal of Physical Chemistry C'
_journal_page_first              11370
_journal_paper_doi               10.1021/acs.jpcc.5b01166
_journal_volume                  119
_journal_year                    2015
_chemical_compound_source        synthetic
_chemical_formula_iupac          'Li0.90 Ti S2 (hR3.9)'
_chemical_formula_sum            'Li0.9 S2 Ti'
_chemical_formula_weight         118.2
_chemical_name_systematic
' lithium titanium disulfide (lithium deficient)'
_space_group_IT_number           166
_symmetry_cell_setting           trigonal
_symmetry_Int_Tables_number      166
_symmetry_space_group_name_Hall  '-R 3 2"'
_symmetry_space_group_name_H-M   'R -3 m :H'
_atom_sites_solution_hydrogens   notdet
_atom_sites_solution_primary     other
_atom_sites_solution_secondary   notdet
_cell_angle_alpha                90
_cell_angle_beta                 90
_cell_angle_gamma                120
_cell_formula_units_Z            3
_cell_length_a                   3.53131(8)
_cell_length_b                   3.53131(8)
_cell_length_c                   18.6090(6)
_cell_measurement_temperature    973
_cell_volume                     200.967(9)
_computing_cell_refinement       'JANA2006 (Pet\<r\'i\<cek, 2014)'
_computing_data_collection       'CARESS (HZB, 2013)'
_computing_data_reduction        'DATAPARSER (Senyshyn, 2011)'
_computing_molecular_graphics    'Diamond (Brandenburg, 2013)'
_computing_publication_material  'JANA2006 (Pet\<r\'i\<cek, 2014)'
_computing_structure_refinement  'JANA2006 (Pet\<r\'i\<cek, 2014)'
_computing_structure_solution    'ICSD (Bergerhoff, 1987)'
_diffrn_ambient_environment      vacuum
_diffrn_ambient_temperature      973
_diffrn_detector                 '^3^He counter'
_diffrn_detector_details
; curved position-sensitive detector-array of 80 counter tubes, height: 300 mm,
resolution: 3 mm (B. Krimmer, R. Gilles, K. Zeitelhack, R. Schneider,
G. Montermann, H. Boysen, H. Fuess, Appl. Phys. A: Mater. Sci. Process.
2002, 74, S154-S156)
;
_diffrn_measurement_device       'one-circle powder diffractometer'
_diffrn_measurement_device_details
; M. Hoelzel, A. Senyshyn, N. Juenke, H. Boysen, W. Schmahl, H. Fuess,
Nucl. Instrum. Methods Phys. Res., Sect. A 2012, 667, 32-37
;
_diffrn_measurement_device_type  SPODI
_diffrn_measurement_method       'profile data from \q/2\q scans'
_diffrn_radiation_monochromator  'Ge 551'
_diffrn_radiation_probe          neutron
_diffrn_radiation_type           neutron
_diffrn_radiation_wavelength     1.54829
_diffrn_source                   'nuclear reactor'
_diffrn_source_type              'FRM II beamline 8a'
_exptl_absorpt_coefficient_mu    0.096
_exptl_absorpt_correction_type   cylinder
_exptl_absorpt_process_details
; correction for a cylindrical sample with \mR = 0.216 as
implemented in JANA2006
;
_exptl_crystal_density_diffrn    2.9311
_exptl_crystal_density_method    'not measured'
_exptl_crystal_F_000             1.84
_pd_char_atten_coef_mu_calc      0.058
_pd_char_colour                  black
_pd_instr_2theta_monochr_pre     155
_pd_instr_beam_size_ax           100
_pd_instr_beam_size_eq           25
_pd_instr_dist_mono/spec         5000
_pd_instr_dist_spec/detc         1120
_pd_instr_dist_src/mono          17500
_pd_instr_geometry               Debye-Scherrer
_pd_instr_location
; SPODI diffractometer, Heinz Maier-Leibnitz Zentrum,
Garching b. M\"unchen (Germany)
;
_pd_instr_monochr_pre_spec       'Ge 551'
_pd_instr_soller_eq_spec/detc    0.16667
_pd_meas_2theta_range_inc        0.05
_pd_meas_2theta_range_max        151.900
_pd_meas_2theta_range_min        0.950
_pd_meas_number_of_points        3020
_pd_meas_scan_method             step
_pd_proc_2theta_range_inc        0.05
_pd_proc_2theta_range_max        151.65
_pd_proc_2theta_range_min        10.05
_pd_proc_info_data_reduction
; efficiency/intensity correction and 2\q scattering-angle correction for each
detector-collimator pair, geometrical data correction with Lorentz factor,
variable integration height to obtain 1D data:
H~L~=(R^2^*sin(4\q))/(H~S~*cos^2^(2\q))*\D2\q+H~S~/2
with H~L~: limiting height, H~S~: sample height, R: detector radius
(M. Hoelzel, A. Senyshyn, N. Juenke, H. Boysen, W. Schmahl, H. Fuess,
Nucl. Instrum. Methods Phys. Res., Sect. A 2012, 667, 32-37)
;
_pd_proc_ls_background_function
; manual background (visual estimation, unrefined) interpolated by five
Legendre polynomials (1st: 11(2), 2nd: 9(4), 3rd: -2(5), 4th: 1(5),
5th: 10(6))
;
_pd_proc_ls_pref_orient_corr
' March-Dollase model for (001): r = 1.009(3)'
_pd_proc_ls_profile_function
; pseudo-Voigt profile with Thompson-Cox-Hastings approach:
G~U~ = 191(4), G~V~ = -235, G~W~ = 254(3), L~X~ = 3.5(2), L~Y~ = 0.31,
B\'erar-Baldinozzi asymmetry correction:
A~0~ = 0.337(6), A~1~ = -0.744
;
_pd_proc_ls_prof_R_factor        0.0211
_pd_proc_ls_prof_wR_expected     0.0214
_pd_proc_ls_prof_wR_factor       0.0260
_pd_spec_mounting                'compacted powder in niobium can'
_pd_spec_mount_mode              transmission
_pd_spec_orientation             vertical
_pd_spec_shape                   cylinder
_pd_spec_size_axial              40
_pd_spec_size_equat              7.5
_refine_diff_density_max         0.06
_refine_diff_density_min         -0.08
_refine_ls_extinction_method     none
_refine_ls_goodness_of_fit_all   1.22
_refine_ls_hydrogen_treatment    undef
_refine_ls_number_constraints    0
_refine_ls_number_parameters     23
_refine_ls_number_restraints     0
_refine_ls_R_factor_all          0.0296
_refine_ls_R_factor_gt           0.0229
_refine_ls_R_I_factor            0.0296
_refine_ls_shift/su_max          0.0050
_refine_ls_shift/su_mean         0.0012
_refine_ls_weighting_details     w=1/[\s^2^(F~o~)+(0.01F~o~)^2^]
_refine_ls_weighting_scheme      sigma
_refine_ls_wR_factor_all         0.0305
_refine_ls_wR_factor_gt          0.0298
_reflns_threshold_expression     I>3\s(I)
_cod_data_source_file            jp5b01166_si_005.cif
_cod_data_source_block           0.9-700C
_cod_depositor_comments
'Adding full bibliography for 1519661--1519664.cif.'
_cod_original_cell_volume        200.967(13)
_cod_original_sg_symbol_H-M      'R -3 m'
_cod_original_formula_sum        'Li0.90 S2 Ti1'
_cod_database_code               1519661
loop_
_space_group_symop_id
_space_group_symop_operation_xyz
1 x,y,z
2 -y,x-y,z
3 -x+y,-x,z
4 y,x,-z
5 x-y,-y,-z
6 -x,-x+y,-z
7 -x,-y,-z
8 y,-x+y,-z
9 x-y,x,-z
10 -y,-x,z
11 -x+y,y,z
12 x,x-y,z
13 x+2/3,y+1/3,z+1/3
14 -y+2/3,x-y+1/3,z+1/3
15 -x+y+2/3,-x+1/3,z+1/3
16 y+2/3,x+1/3,-z+1/3
17 x-y+2/3,-y+1/3,-z+1/3
18 -x+2/3,-x+y+1/3,-z+1/3
19 -x+2/3,-y+1/3,-z+1/3
20 y+2/3,-x+y+1/3,-z+1/3
21 x-y+2/3,x+1/3,-z+1/3
22 -y+2/3,-x+1/3,z+1/3
23 -x+y+2/3,y+1/3,z+1/3
24 x+2/3,x-y+1/3,z+1/3
25 x+1/3,y+2/3,z+2/3
26 -y+1/3,x-y+2/3,z+2/3
27 -x+y+1/3,-x+2/3,z+2/3
28 y+1/3,x+2/3,-z+2/3
29 x-y+1/3,-y+2/3,-z+2/3
30 -x+1/3,-x+y+2/3,-z+2/3
31 -x+1/3,-y+2/3,-z+2/3
32 y+1/3,-x+y+2/3,-z+2/3
33 x-y+1/3,x+2/3,-z+2/3
34 -y+1/3,-x+2/3,z+2/3
35 -x+y+1/3,y+2/3,z+2/3
36 x+1/3,x-y+2/3,z+2/3
loop_
_atom_site_label
_atom_site_type_symbol
_atom_site_fract_x
_atom_site_fract_y
_atom_site_fract_z
_atom_site_adp_type
_atom_site_U_iso_or_equiv
_atom_site_site_symmetry_multiplicity
_atom_site_occupancy
_atom_site_calc_flag
Li1 Li 0 0 0.5 Uani 0.069(3) 3 0.9 d
Ti1 Ti 0 0 0 Uani 0.0309(15) 3 1 d
S1 S 0 0 0.2562(3) Uani 0.0288(13) 6 1 d
loop_
_atom_site_aniso_label
_atom_site_aniso_type_symbol
_atom_site_aniso_U_11
_atom_site_aniso_U_22
_atom_site_aniso_U_33
_atom_site_aniso_U_12
_atom_site_aniso_U_13
_atom_site_aniso_U_23
Li1 Li 0.073(3) 0.073(3) 0.061(8) 0.0363(15) 0 0
Ti1 Ti 0.0327(10) 0.0327(10) 0.027(4) 0.0164(5) 0 0
S1 S 0.0257(7) 0.0257(7) 0.035(4) 0.0129(4) 0 0
loop_
_atom_type_symbol
_atom_type_scat_length_neutron
_atom_type_scat_source
Li -1.900 International_Tables_Vol_C
Ti -3.438 International_Tables_Vol_C
S 2.847 International_Tables_Vol_C
loop_
_geom_angle_atom_site_label_1
_geom_angle_atom_site_label_2
_geom_angle_atom_site_label_3
_geom_angle_site_symmetry_1
_geom_angle_site_symmetry_3
_geom_angle
S1 Li1 S1 13_445 13_455 84.22(9)
S1 Li1 S1 13_445 13_555 84.22(9)
S1 Li1 S1 13_445 28_445 95.78(9)
S1 Li1 S1 13_445 28_545 95.78(9)
S1 Li1 S1 13_445 28_555 180.0(5)
S1 Li1 S1 13_455 13_555 84.22(9)
S1 Li1 S1 13_455 28_445 95.78(9)
S1 Li1 S1 13_455 28_545 180.0(5)
S1 Li1 S1 13_455 28_555 95.78(9)
S1 Li1 S1 13_555 28_445 180.0(5)
S1 Li1 S1 13_555 28_545 95.78(9)
S1 Li1 S1 13_555 28_555 95.78(9)
S1 Li1 S1 28_445 28_545 84.22(9)
S1 Li1 S1 28_445 28_555 84.22(9)
S1 Li1 S1 28_545 28_555 84.22(9)
S1 Ti1 S1 25_444 25_544 90.17(9)
S1 Ti1 S1 25_444 25_554 90.17(9)
S1 Ti1 S1 25_444 16_445 89.83(9)
S1 Ti1 S1 25_444 16_455 89.83(9)
S1 Ti1 S1 25_444 16_555 180.0(5)
S1 Ti1 S1 25_544 25_554 90.17(9)
S1 Ti1 S1 25_544 16_445 89.83(9)
S1 Ti1 S1 25_544 16_455 180.0(5)
S1 Ti1 S1 25_544 16_555 89.83(9)
S1 Ti1 S1 25_554 16_445 180.0(5)
S1 Ti1 S1 25_554 16_455 89.83(9)
S1 Ti1 S1 25_554 16_555 89.83(9)
S1 Ti1 S1 16_445 16_455 90.17(9)
S1 Ti1 S1 16_445 16_555 90.17(9)
S1 Ti1 S1 16_455 16_555 90.17(9)
loop_
_geom_bond_atom_site_label_1
_geom_bond_atom_site_label_2
_geom_bond_site_symmetry_2
_geom_bond_distance
Li1 S1 13_445 2.633(3)
Li1 S1 13_455 2.633(3)
Li1 S1 13_555 2.633(3)
Li1 S1 28_445 2.633(3)
Li1 S1 28_545 2.633(3)
Li1 S1 28_555 2.633(3)
Ti1 S1 25_444 2.493(3)
Ti1 S1 25_544 2.493(3)
Ti1 S1 25_554 2.493(3)
Ti1 S1 16_445 2.493(3)
Ti1 S1 16_455 2.493(3)
Ti1 S1 16_555 2.493(3)
loop_
_pd_proc_point_id
_pd_proc_2theta_corrected
_pd_proc_intensity_net
_pd_calc_intensity_net
_pd_proc_ls_weight
1 10.0900 2074.00 2156.09 167.00
2 10.1400 2215.00 2153.67 172.00
3 10.1900 2135.00 2151.25 169.00
4 10.2400 2025.00 2148.82 164.00
5 10.2900 2108.00 2146.40 166.00
6 10.3400 2177.00 2143.98 169.00
7 10.3900 2135.00 2141.56 166.00
8 10.4400 2171.00 2139.14 167.00
9 10.4900 2092.00 2136.72 164.00
10 10.5400 2239.00 2134.30 169.00
11 10.5900 2225.00 2131.88 168.00
12 10.6400 2205.00 2129.46 167.00
13 10.6900 1973.00 2127.04 157.00
14 10.7400 1980.00 2124.62 157.00
15 10.7900 2239.00 2122.20 166.00
16 10.8400 2227.00 2119.79 165.00
17 10.8900 1996.00 2117.37 156.00
18 10.9400 2040.00 2114.95 157.00
19 10.9900 2023.00 2112.53 156.00
20 11.0400 2140.00 2110.12 160.00
21 11.0900 1940.00 2107.70 152.00
22 11.1400 2009.00 2105.29 154.00
23 11.1900 1896.00 2102.87 149.00
24 11.2400 2026.00 2100.46 154.00
25 11.2900 1998.00 2098.04 152.00
26 11.3400 2046.00 2095.63 154.00
27 11.3900 2216.00 2093.21 159.00
28 11.4400 2201.00 2090.80 158.00
29 11.4900 2098.00 2088.39 154.00
30 11.5400 2023.00 2085.97 151.00
31 11.5900 2037.00 2083.56 151.00
32 11.6400 2094.00 2081.15 153.00
33 11.6900 2123.00 2078.74 153.00
34 11.7400 2167.00 2076.33 154.00
35 11.7900 2028.00 2073.92 149.00
36 11.8400 2037.00 2071.51 149.00
37 11.8900 2037.00 2069.10 148.00
38 11.9400 1929.00 2066.70 144.00
39 11.9900 2087.00 2064.29 149.00
40 12.0400 2046.00 2061.88 147.00
41 12.0900 2092.00 2059.48 149.00
42 12.1400 2074.00 2057.08 148.00
43 12.1900 2222.00 2054.67 152.00
44 12.2400 2298.00 2052.27 155.00
45 12.2900 2203.00 2049.87 151.00
46 12.3400 1950.00 2047.47 141.00
47 12.3900 2032.00 2045.07 144.00
48 12.4400 2038.00 2042.68 144.00
49 12.4900 2040.00 2040.28 144.00
50 12.5400 1932.00 2037.89 139.00
51 12.5900 2063.00 2035.50 143.00
52 12.6400 2091.00 2033.11 144.00
53 12.6900 2089.00 2030.72 144.00
54 12.7400 2109.00 2028.34 144.00
55 12.7900 2200.00 2025.96 147.00
56 12.8400 2207.00 2023.58 146.00
57 12.8900 2074.00 2021.21 141.00
58 12.9400 2088.00 2018.84 142.00
59 12.9900 1902.00 2016.48 135.00
60 13.0400 1974.00 2014.12 137.00
61 13.0900 2018.00 2011.77 138.00
62 13.1400 2038.00 2009.43 138.00
63 13.1900 2064.00 2007.10 139.00
64 13.2400 2012.00 2004.77 137.00
65 13.2900 1955.00 2002.46 134.00
66 13.3400 2050.00 2000.16 137.00
67 13.3900 2131.00 1997.89 140.00
68 13.4400 1948.00 1995.63 133.00
69 13.4900 1990.00 1993.39 134.00
70 13.5400 1989.00 1991.19 134.00
71 13.5900 2004.00 1989.02 134.00
72 13.6400 1777.00 1986.90 126.00
73 13.6900 2024.00 1984.88 134.00
74 13.7400 2090.00 1983.05 136.00
75 13.7900 2160.00 1981.68 137.00
76 13.8400 2039.00 1981.34 133.00
77 13.8900 2163.00 1983.18 137.00
78 13.9400 2052.00 1989.09 133.00
79 13.9900 2004.00 2001.88 131.00
80 14.0400 1989.00 2025.00 130.00
81 14.0900 2034.00 2061.86 131.00
82 14.1400 2105.00 2114.60 133.00
83 14.1900 2183.00 2182.08 135.00
84 14.2400 2239.00 2257.38 137.00
85 14.2900 2135.00 2326.28 133.00
86 14.3400 2380.00 2369.37 140.00
87 14.3900 2393.00 2370.75 140.00
88 14.4400 2357.00 2328.12 139.00
89 14.4900 2255.00 2253.88 135.00
90 14.5400 2092.00 2167.83 130.00
91 14.5900 1901.00 2088.33 124.00
92 14.6400 1971.00 2026.28 126.00
93 14.6900 1951.00 1984.01 125.00
94 14.7400 1900.00 1958.14 123.00
95 14.7900 2177.00 1943.31 131.00
96 14.8400 1928.00 1934.82 123.00
97 14.8900 1840.00 1929.53 120.00
98 14.9400 1829.00 1925.72 119.00
99 14.9900 1823.00 1922.54 119.00
100 15.0400 1897.00 1919.65 121.00
101 15.0900 1963.00 1916.89 122.00
102 15.1400 1814.00 1914.21 117.00
103 15.1900 1857.00 1911.58 119.00
104 15.2400 1900.00 1908.99 120.00
105 15.2900 1890.00 1906.43 119.00
106 15.3400 2023.00 1903.89 123.00
107 15.3900 1912.00 1901.37 119.00
108 15.4400 1789.00 1898.87 115.00
109 15.4900 1864.00 1896.38 117.00
110 15.5400 1894.00 1893.90 118.00
111 15.5900 1822.00 1891.43 115.00
112 15.6400 1847.00 1888.96 116.00
113 15.6900 1875.00 1886.51 116.00
114 15.7400 1730.00 1884.05 111.00
115 15.7900 1957.00 1881.61 118.00
116 15.8400 2016.00 1879.17 120.00
117 15.8900 1951.00 1876.73 117.00
118 15.9400 1728.00 1874.30 110.00
119 15.9900 1820.00 1871.86 113.00
120 16.0400 1795.00 1869.44 112.00
121 16.0900 1848.00 1867.01 113.00
122 16.1400 1878.00 1864.59 114.00
123 16.1900 1915.00 1862.16 115.00
124 16.2400 1885.00 1859.74 113.00
125 16.2900 1788.00 1857.33 110.00
126 16.3400 1896.00 1854.91 113.00
127 16.3900 1883.00 1852.49 113.00
128 16.4400 1858.00 1850.08 112.00
129 16.4900 1785.00 1847.67 109.00
130 16.5400 1941.00 1845.26 113.00
131 16.5900 1924.00 1842.85 113.00
132 16.6400 1884.00 1840.44 111.00
133 16.6900 1822.00 1838.03 109.00
134 16.7400 1716.00 1835.62 106.00
135 16.7900 1732.00 1833.21 106.00
136 16.8400 1784.00 1830.80 107.00
137 16.8900 1872.00 1828.40 110.00
138 16.9400 2017.00 1825.99 113.00
139 16.9900 1867.00 1823.59 109.00
140 17.0400 1813.00 1821.18 107.00
141 17.0900 1793.00 1818.78 106.00
142 17.1400 1824.00 1816.38 107.00
143 17.1900 1840.00 1813.97 107.00
144 17.2400 1744.00 1811.57 104.00
145 17.2900 1868.00 1809.17 107.00
146 17.3400 1816.00 1806.77 106.00
147 17.3900 1856.00 1804.37 107.00
148 17.4400 1947.00 1801.97 109.00
149 17.4900 1830.00 1799.57 105.00
150 17.5400 1806.00 1797.17 104.00
151 17.5900 1820.00 1794.77 105.00
152 17.6400 1913.00 1792.37 107.00
153 17.6900 1863.00 1789.97 105.00
154 17.7400 1851.00 1787.57 105.00
155 17.7900 1850.00 1785.17 104.00
156 17.8400 1906.00 1782.78 106.00
157 17.8900 1841.00 1780.38 104.00
158 17.9400 1832.00 1777.98 103.00
159 17.9900 1958.00 1775.58 107.00
160 18.0400 1815.00 1773.19 102.00
161 18.0900 1728.00 1770.79 100.00
162 18.1400 1808.00 1768.40 102.00
163 18.1900 1752.00 1766.00 100.00
164 18.2400 1758.00 1763.60 100.00
165 18.2900 1849.00 1761.21 102.00
166 18.3400 1755.00 1758.81 99.00
167 18.3900 1753.00 1756.42 99.00
168 18.4400 1810.00 1754.02 100.00
169 18.4900 1803.00 1751.63 100.00
170 18.5400 1823.00 1749.23 100.00
171 18.5900 1742.00 1746.84 98.00
172 18.6400 1801.00 1744.45 99.00
173 18.6900 1782.00 1742.05 98.00
174 18.7400 1853.00 1739.66 100.00
175 18.7900 1759.00 1737.27 97.00
176 18.8400 1726.00 1734.87 96.00
177 18.8900 1555.00 1732.48 91.00
178 18.9400 1736.00 1730.09 96.00
179 18.9900 1713.00 1727.70 95.00
180 19.0400 1812.00 1725.30 98.00
181 19.0900 1839.00 1722.91 98.00
182 19.1400 1797.00 1720.52 97.00
183 19.1900 1870.00 1718.13 99.00
184 19.2400 1747.00 1715.74 95.00
185 19.2900 1641.00 1715.71 92.00
186 19.3400 1728.00 1715.69 94.00
187 19.3900 1799.00 1715.67 96.00
188 19.4400 1696.00 1715.65 93.00
189 19.4900 1698.00 1715.62 93.00
190 19.5400 1712.00 1715.60 93.00
191 19.5900 1750.00 1715.58 94.00
192 19.6400 1744.00 1715.56 93.00
193 19.6900 1730.00 1715.54 93.00
194 19.7400 1884.00 1715.52 97.00
195 19.7900 1817.00 1715.49 95.00
196 19.8400 1762.00 1715.47 93.00
197 19.8900 1822.00 1715.45 94.00
198 19.9400 1727.00 1715.43 92.00
199 19.9900 1836.00 1715.41 94.00
200 20.0400 1796.00 1715.39 93.00
201 20.0900 1756.00 1715.37 92.00
202 20.1400 1803.00 1715.35 93.00
203 20.1900 1816.00 1715.33 93.00
204 20.2400 1761.00 1715.31 92.00
205 20.2900 1827.00 1715.29 93.00
206 20.3400 1720.00 1715.27 90.00
207 20.3900 1623.00 1715.25 87.00
208 20.4400 1774.00 1715.23 91.00
209 20.4900 1861.00 1715.21 93.00
210 20.5400 1740.00 1715.20 90.00
211 20.5900 1758.00 1715.18 90.00
212 20.6400 1646.00 1715.16 87.00
213 20.6900 1793.00 1715.14 91.00
214 20.7400 1744.00 1715.12 89.00
215 20.7900 1769.00 1715.11 90.00
216 20.8400 1726.00 1715.09 88.00
217 20.8900 1725.00 1715.07 88.00
218 20.9400 1728.00 1715.05 88.00
219 20.9900 1709.00 1715.04 87.00
220 21.0400 1655.00 1715.02 86.00
221 21.0900 1664.00 1715.00 86.00
222 21.1400 1700.00 1714.98 87.00
223 21.1900 1731.00 1714.97 87.00
224 21.2400 1651.00 1714.95 85.00
225 21.2900 1581.00 1714.93 83.00
226 21.3400 1621.00 1714.92 84.00
227 21.3900 1608.00 1714.90 83.00
228 21.4400 1627.00 1714.89 84.00
229 21.4900 1577.00 1714.87 82.00
230 21.5400 1658.00 1714.85 84.00
231 21.5900 1722.00 1714.84 86.00
232 21.6400 1627.00 1714.82 83.00
233 21.6900 1636.00 1714.81 83.00
234 21.7400 1650.00 1714.79 83.00
235 21.7900 1682.00 1715.36 84.00
236 21.8400 1744.00 1715.33 85.00
237 21.8900 1740.00 1715.33 85.00
238 21.9400 1725.00 1715.32 84.00
239 21.9900 1701.00 1715.31 84.00
240 22.0400 1702.00 1715.31 84.00
241 22.0900 1662.00 1715.31 82.00
242 22.1400 1637.00 1715.30 82.00
243 22.1900 1645.00 1715.30 82.00
244 22.2400 1699.00 1715.29 83.00
245 22.2900 1663.00 1715.29 82.00
246 22.3400 1690.00 1715.29 82.00
247 22.3900 1699.00 1715.29 82.00
248 22.4400 1652.00 1715.28 81.00
249 22.4900 1672.00 1715.28 81.00
250 22.5400 1626.00 1715.28 80.00
251 22.5900 1594.00 1715.35 79.00
252 22.6400 1607.00 1715.35 79.00
253 22.6900 1705.00 1715.35 81.00
254 22.7400 1726.00 1715.35 82.00
255 22.7900 1729.00 1715.35 82.00
256 22.8400 1670.00 1715.35 80.00
257 22.8900 1672.00 1715.36 80.00
258 22.9400 1593.00 1715.36 78.00
259 22.9900 1655.00 1715.36 79.00
260 23.0400 1659.00 1715.37 79.00
261 23.0900 1623.00 1715.37 78.00
262 23.1400 1664.00 1715.38 79.00
263 23.1900 1687.00 1715.38 79.00
264 23.2400 1636.00 1715.39 78.00
265 23.2900 1643.00 1715.40 78.00
266 23.3400 1687.00 1715.40 79.00
267 23.3900 1799.00 1715.41 81.00
268 23.4400 1725.00 1715.42 80.00
269 23.4900 1638.00 1715.43 77.00
270 23.5400 1713.00 1715.44 79.00
271 23.5900 1717.00 1715.45 79.00
272 23.6400 1674.00 1715.46 78.00
273 23.6900 1720.00 1715.48 79.00
274 23.7400 1576.00 1715.49 75.00
275 23.7900 1713.00 1717.13 78.00
276 23.8400 1659.00 1717.17 77.00
277 23.8900 1753.00 1717.21 79.00
278 23.9400 1676.00 1717.25 77.00
279 23.9900 1690.00 1717.29 77.00
280 24.0400 1732.00 1717.33 78.00
281 24.0900 1630.00 1717.38 75.00
282 24.1400 1649.00 1717.42 76.00
283 24.1900 1683.00 1717.47 76.00
284 24.2400 1667.00 1717.52 76.00
285 24.2900 1685.00 1717.57 76.00
286 24.3400 1776.00 1717.63 78.00
287 24.3900 1747.00 1717.68 77.00
288 24.4400 1715.00 1717.74 76.00
289 24.4900 1645.00 1717.80 75.00
290 24.5400 1672.00 1717.86 75.00
291 24.5900 1724.00 1717.92 76.00
292 24.6400 1769.00 1717.99 77.00
293 24.6900 1698.00 1718.06 75.00
294 24.7400 1696.00 1718.13 75.00
295 24.7900 1660.00 1718.20 74.00
296 24.8400 1753.00 1718.27 76.00
297 24.8900 1672.00 1718.35 74.00
298 24.9400 1598.00 1718.43 72.00
299 24.9900 1677.00 1718.52 74.00
300 25.0400 1787.00 1718.60 76.00
301 25.0900 1824.00 1718.69 77.00
302 25.1400 1754.00 1718.79 75.00
303 25.1900 1617.00 1718.88 72.00
304 25.2400 1661.00 1718.99 73.00
305 25.2900 1643.00 1719.09 72.00
306 25.3400 1700.00 1719.20 73.00
307 25.3900 1681.00 1719.31 73.00
308 25.4400 1684.00 1719.43 73.00
309 25.4900 1747.00 1719.55 74.00
310 25.5400 1774.00 1719.68 75.00
311 25.5900 1739.00 1719.81 74.00
312 25.6400 1734.00 1719.95 73.00
313 25.6900 1685.00 1720.09 72.00
314 25.7400 1606.00 1720.24 70.00
315 25.7900 1650.00 1720.40 71.00
316 25.8400 1740.00 1720.56 73.00
317 25.8900 1715.00 1720.73 72.00
318 25.9400 1735.00 1720.91 73.00
319 25.9900 1792.00 1721.09 74.00
320 26.0400 1744.00 1721.28 73.00
321 26.0900 1807.00 1721.49 74.00
322 26.1400 1744.00 1721.70 72.00
323 26.1900 1748.00 1721.92 72.00
324 26.2400 1716.00 1722.16 71.00
325 26.2900 1792.00 1722.40 73.00
326 26.3400 1748.00 1722.66 72.00
327 26.3900 1698.00 1722.93 71.00
328 26.4400 1742.00 1723.21 71.00
329 26.4900 1728.00 1723.52 71.00
330 26.5400 1700.00 1723.83 70.00
331 26.5900 1730.00 1724.22 71.00
332 26.6400 1789.00 1724.64 72.00
333 26.6900 1717.00 1725.07 70.00
334 26.7400 1773.00 1725.52 71.00
335 26.7900 1743.00 1726.00 71.00
336 26.8400 1793.00 1726.51 71.00
337 26.8900 1754.00 1727.05 70.00
338 26.9400 1730.00 1727.61 70.00
339 26.9900 1773.00 1728.21 71.00
340 27.0400 1738.00 1728.85 70.00
341 27.0900 1791.00 1729.53 71.00
342 27.1400 1693.00 1730.26 69.00
343 27.1900 1707.00 1731.04 69.00
344 27.2400 1660.00 1731.87 68.00
345 27.2900 1733.00 1732.77 69.00
346 27.3400 1672.00 1733.74 68.00
347 27.3900 1782.00 1734.79 70.00
348 27.4400 1750.00 1735.92 69.00
349 27.4900 1682.00 1737.16 68.00
350 27.5400 1723.00 1738.51 68.00
351 27.5900 1663.00 1739.99 67.00
352 27.6400 1647.00 1741.63 66.00
353 27.6900 1701.00 1743.44 67.00
354 27.7400 1734.00 1745.44 68.00
355 27.7900 1768.00 1747.69 69.00
356 27.8400 1702.00 1750.21 67.00
357 27.8900 1735.00 1753.05 68.00
358 27.9400 1751.00 1756.29 68.00
359 27.9900 1767.00 1759.99 68.00
360 28.0400 1778.00 1764.26 68.00
361 28.0900 1725.00 1769.22 67.00
362 28.1400 1697.00 1775.05 66.00
363 28.1900 1730.00 1782.01 67.00
364 28.2400 1688.00 1790.62 66.00
365 28.2900 1776.00 1802.08 67.00
366 28.3400 1784.00 1819.59 68.00
367 28.3900 1972.00 1851.33 71.00
368 28.4400 2037.00 1916.34 72.00
369 28.4900 2311.00 2053.50 76.00
370 28.5400 2641.00 2330.64 82.00
371 28.5900 3105.00 2845.37 88.00
372 28.6400 3958.00 3705.03 100.00
373 28.6900 5206.00 4978.11 114.00
374 28.7400 6785.00 6625.96 130.00
375 28.7900 8551.00 8446.87 146.00
376 28.8400 10288.00 10073.20 160.00
377 28.8900 11242.00 11055.70 167.00
378 28.9400 11225.00 11056.70 167.00
379 28.9900 10139.00 10071.00 158.00
380 29.0400 8285.00 8427.61 143.00
381 29.0900 6325.00 6581.39 124.00
382 29.1400 4672.00 4917.35 107.00
383 29.1900 3246.00 3649.01 89.00
384 29.2400 2660.00 2813.32 80.00
385 29.2900 2053.00 2334.27 70.00
386 29.3400 2017.00 2101.82 69.00
387 29.3900 1999.00 2025.25 69.00
388 29.4400 1907.00 2050.27 67.00
389 29.4900 2007.00 2151.04 69.00
390 29.5400 2321.00 2312.03 74.00
391 29.5900 2554.00 2510.85 77.00
392 29.6400 2677.00 2709.37 79.00
393 29.6900 2817.00 2856.32 81.00
394 29.7400 2980.00 2903.66 83.00
395 29.7900 2942.00 2833.30 83.00
396 29.8400 2862.00 2670.10 81.00
397 29.8900 2640.00 2464.13 78.00
398 29.9400 2477.00 2265.07 75.00
399 29.9900 2477.00 2106.02 75.00
400 30.0400 2286.00 1998.75 72.00
401 30.0900 2262.00 1938.52 72.00
402 30.1400 2294.00 1913.11 72.00
403 30.1900 2142.00 1910.48 69.00
404 30.2400 2130.00 1922.73 69.00
405 30.2900 2083.00 1947.67 68.00
406 30.3400 2078.00 1991.22 68.00
407 30.3900 2263.00 2074.52 71.00
408 30.4400 2424.00 2249.68 73.00
409 30.4900 3039.00 2625.25 82.00
410 30.5400 3917.00 3393.13 93.00
411 30.5900 5456.00 4831.89 110.00
412 30.6400 7678.00 7249.94 130.00
413 30.6900 10802.00 10841.90 154.00
414 30.7400 15284.00 15488.30 183.00
415 30.7900 20379.00 20595.60 211.00
416 30.8400 24655.00 25101.70 231.00
417 30.8900 27444.00 27734.60 244.00
418 30.9400 27519.00 27578.60 244.00
419 30.9900 24779.00 24681.70 231.00
420 31.0400 20155.00 20017.20 208.00
421 31.0900 14859.00 14865.90 178.00
422 31.1400 9942.00 10277.90 145.00
423 31.1900 6404.00 6810.65 116.00
424 31.2400 4278.00 4534.36 95.00
425 31.2900 2938.00 3214.87 78.00
426 31.3400 2216.00 2527.34 68.00
427 31.3900 2059.00 2196.29 65.00
428 31.4400 1961.00 2041.51 64.00
429 31.4900 1795.00 1965.24 61.00
430 31.5400 1781.00 1922.05 60.00
431 31.5900 1810.00 1893.13 61.00
432 31.6400 1770.00 1871.29 60.00
433 31.6900 1735.00 1853.72 59.00
434 31.7400 1817.00 1839.17 61.00
435 31.7900 1789.00 1826.93 60.00
436 31.8400 1811.00 1816.53 60.00
437 31.8900 1778.00 1807.60 60.00
438 31.9400 1790.00 1799.90 60.00
439 31.9900 1798.00 1793.20 60.00
440 32.0400 1764.00 1787.34 59.00
441 32.0900 1711.00 1782.19 58.00
442 32.1400 1781.00 1777.64 59.00
443 32.1900 1807.00 1773.59 60.00
444 32.2400 1832.00 1769.98 60.00
445 32.2900 1792.00 1766.76 59.00
446 32.3400 1714.00 1763.85 58.00
447 32.3900 1703.00 1761.24 57.00
448 32.4400 1662.00 1758.87 57.00
449 32.4900 1704.00 1756.73 57.00
450 32.5400 1776.00 1754.77 58.00
451 32.5900 1773.00 1752.99 58.00
452 32.6400 1801.00 1751.37 59.00
453 32.6900 1718.00 1749.87 57.00
454 32.7400 1693.00 1748.51 57.00
455 32.7900 1662.00 1747.25 56.00
456 32.8400 1690.00 1746.09 56.00
457 32.8900 1756.00 1745.01 57.00
458 32.9400 1785.00 1744.02 58.00
459 32.9900 1770.00 1743.11 57.00
460 33.0400 1747.00 1742.26 57.00
461 33.0900 1747.00 1741.47 57.00
462 33.1400 1753.00 1740.73 57.00
463 33.1900 1749.00 1740.05 57.00
464 33.2400 1767.00 1739.42 57.00
465 33.2900 1749.00 1738.82 56.00
466 33.3400 1766.00 1738.27 57.00
467 33.3900 1783.00 1737.75 57.00
468 33.4400 1746.00 1737.61 56.00
469 33.4900 1737.00 1738.83 56.00
470 33.5400 1815.00 1740.08 57.00
471 33.5900 1727.00 1741.36 56.00
472 33.6400 1682.00 1742.67 55.00
473 33.6900 1721.00 1744.00 55.00
474 33.7400 1750.00 1745.35 56.00
475 33.7900 1694.00 1746.73 55.00
476 33.8400 1709.00 1748.12 55.00
477 33.8900 1707.00 1749.53 55.00
478 33.9400 1764.00 1750.96 55.00
479 33.9900 1813.00 1752.40 56.00
480 34.0400 1840.00 1753.87 56.00
481 34.0900 1845.00 1755.34 56.00
482 34.1400 1807.00 1756.84 56.00
483 34.1900 1739.00 1758.34 55.00
484 34.2400 1751.00 1759.87 55.00
485 34.2900 1738.00 1761.40 54.00
486 34.3400 1809.00 1762.95 55.00
487 34.3900 1832.00 1764.52 56.00
488 34.4400 1745.00 1766.10 54.00
489 34.4900 1748.00 1767.69 54.00
490 34.5400 1750.00 1769.31 54.00
491 34.5900 1764.00 1770.95 54.00
492 34.6400 1804.00 1772.61 55.00
493 34.6900 1744.00 1774.33 54.00
494 34.7400 1781.00 1776.16 54.00
495 34.7900 1821.00 1778.24 55.00
496 34.8400 1831.00 1780.88 55.00
497 34.8900 1730.00 1784.68 53.00
498 34.9400 1768.00 1790.54 54.00
499 34.9900 1822.00 1799.56 54.00
500 35.0400 1839.00 1812.60 55.00
501 35.0900 1797.00 1829.49 54.00
502 35.1400 1824.00 1848.46 54.00
503 35.1900 1864.00 1866.00 55.00
504 35.2400 1898.00 1877.69 55.00
505 35.2900 1885.00 1880.07 55.00
506 35.3400 1891.00 1872.89 55.00
507 35.3900 1854.00 1859.27 54.00
508 35.4400 1821.00 1843.61 54.00
509 35.4900 1790.00 1829.58 53.00
510 35.5400 1834.00 1819.24 54.00
511 35.5900 1812.00 1812.92 53.00
512 35.6400 1839.00 1809.92 54.00
513 35.6900 1798.00 1809.14 53.00
514 35.7400 1867.00 1809.64 54.00
515 35.7900 1835.00 1810.77 53.00
516 35.8400 1723.00 1812.20 52.00
517 35.8900 1826.00 1813.74 53.00
518 35.9400 1864.00 1815.34 53.00
519 35.9900 1828.00 1816.04 53.00
520 41.2900 1773.00 1749.62 44.00
521 41.3400 1768.00 1749.04 44.00
522 41.3900 1773.00 1748.45 44.00
523 41.4400 1785.00 1747.86 44.00
524 41.4900 1759.00 1747.28 43.00
525 41.5400 1748.00 1746.70 43.00
526 41.5900 1773.00 1746.12 43.00
527 41.6400 1803.00 1745.54 44.00
528 41.6900 1783.00 1744.96 43.00
529 41.7400 1729.00 1744.38 43.00
530 41.7900 1786.00 1743.81 43.00
531 41.8400 1741.00 1743.23 43.00
532 41.8900 1724.00 1742.66 42.00
533 41.9400 1807.00 1742.09 43.00
534 41.9900 1709.00 1741.52 42.00
535 42.0400 1723.00 1740.95 42.00
536 42.0900 1758.00 1739.94 43.00
537 42.1400 1774.00 1738.82 43.00
538 42.1900 1713.00 1737.70 42.00
539 42.2400 1786.00 1736.58 43.00
540 42.2900 1748.00 1735.47 42.00
541 42.3400 1763.00 1734.36 42.00
542 42.3900 1711.00 1733.25 42.00
543 42.4400 1719.00 1732.15 42.00
544 42.4900 1772.00 1731.05 42.00
545 42.5400 1777.00 1729.96 42.00
546 42.5900 1732.00 1728.87 42.00
547 43.5900 1744.00 1730.39 41.00
548 43.6400 1753.00 1752.29 41.00
549 43.6900 1829.00 1793.09 42.00
550 43.7400 1882.00 1859.10 43.00
551 43.7900 1842.00 1950.71 42.00
552 43.8400 1998.00 2057.40 44.00
553 43.8900 2098.00 2156.74 45.00
554 43.9400 2132.00 2220.03 46.00
555 43.9900 2165.00 2224.67 46.00
556 44.0400 2173.00 2168.88 46.00
557 44.0900 2062.00 2073.34 45.00
558 44.1400 1953.00 1966.36 44.00
559 44.1900 1832.00 1870.44 42.00
560 44.2400 1809.00 1797.28 42.00
561 44.2900 1741.00 1748.54 41.00
562 44.3400 1747.00 1719.61 41.00
563 44.3900 1707.00 1703.94 41.00
564 44.4400 1716.00 1695.80 41.00
565 44.4900 1694.00 1691.42 41.00
566 44.5400 1688.00 1688.69 41.00
567 44.5900 1698.00 1686.66 41.00
568 44.6400 1680.00 1684.92 40.00
569 44.6900 1585.00 1683.33 39.00
570 44.7400 1673.00 1681.83 40.00
571 44.7900 1632.00 1680.41 40.00
572 44.8400 1624.00 1679.05 40.00
573 44.8900 1661.00 1677.78 40.00
574 44.9400 1678.00 1676.63 40.00
575 44.9900 1629.00 1675.72 40.00
576 45.0400 1663.00 1675.27 40.00
577 45.0900 1726.00 1675.59 41.00
578 45.1400 1670.00 1677.01 40.00
579 45.1900 1630.00 1679.68 40.00
580 45.2400 1733.00 1683.29 41.00
581 45.2900 1693.00 1686.90 41.00
582 45.3400 1712.00 1689.38 41.00
583 45.3900 1653.00 1689.43 40.00
584 45.4400 1672.00 1686.57 40.00
585 45.4900 1643.00 1681.48 40.00
586 45.5400 1657.00 1675.45 40.00
587 45.5900 1686.00 1669.65 41.00
588 45.6400 1709.00 1665.16 41.00
589 45.6900 1626.00 1663.28 40.00
590 45.7400 1625.00 1662.41 40.00
591 45.7900 1624.00 1662.25 40.00
592 45.8400 1597.00 1662.52 39.00
593 45.8900 1642.00 1663.01 40.00
594 45.9400 1633.00 1663.60 40.00
595 45.9900 1609.00 1664.23 40.00
596 46.0400 1698.00 1664.89 41.00
597 46.0900 1692.00 1665.55 41.00
598 46.1400 1694.00 1666.22 41.00
599 46.1900 1675.00 1666.90 40.00
600 46.2400 1658.00 1667.57 40.00
601 46.2900 1741.00 1668.26 41.00
602 46.3400 1739.00 1668.94 41.00
603 46.3900 1678.00 1669.63 40.00
604 46.4400 1703.00 1670.31 41.00
605 46.4900 1713.00 1671.00 41.00
606 46.5400 1668.00 1671.69 40.00
607 46.5900 1656.00 1672.39 40.00
608 46.6400 1627.00 1673.08 40.00
609 46.6900 1632.00 1673.77 40.00
610 46.7400 1670.00 1674.47 40.00
611 46.7900 1624.00 1675.16 40.00
612 46.8400 1597.00 1675.86 39.00
613 46.8900 1663.00 1676.56 40.00
614 46.9400 1696.00 1677.26 41.00
615 46.9900 1700.00 1677.95 41.00
616 47.0400 1691.00 1678.65 41.00
617 47.0900 1704.00 1679.35 41.00
618 47.1400 1687.00 1680.05 41.00
619 47.1900 1702.00 1680.75 41.00
620 47.2400 1669.00 1681.45 40.00
621 47.2900 1673.00 1682.15 40.00
622 47.3400 1712.00 1682.86 41.00
623 47.3900 1722.00 1683.56 41.00
624 47.4400 1700.00 1684.28 41.00
625 47.4900 1696.00 1684.98 41.00
626 47.5400 1679.00 1685.69 40.00
627 47.5900 1684.00 1686.39 41.00
628 47.6400 1733.00 1687.09 41.00
629 47.6900 1710.00 1687.80 41.00
630 47.7400 1644.00 1688.50 40.00
631 47.7900 1687.00 1689.21 41.00
632 47.8400 1681.00 1689.91 41.00
633 47.8900 1729.00 1690.62 41.00
634 47.9400 1774.00 1691.32 42.00
635 47.9900 1689.00 1692.03 41.00
636 48.0400 1651.00 1692.74 40.00
637 48.0900 1718.00 1693.44 41.00
638 48.1400 1683.00 1694.15 41.00
639 48.1900 1677.00 1694.86 40.00
640 48.2400 1711.00 1695.57 41.00
641 48.2900 1704.00 1696.27 41.00
642 48.3400 1753.00 1696.98 41.00
643 48.3900 1624.00 1697.69 40.00
644 48.4400 1642.00 1698.41 40.00
645 48.4900 1713.00 1699.12 41.00
646 48.5400 1653.00 1699.83 40.00
647 48.5900 1730.00 1700.55 41.00
648 48.6400 1665.00 1701.26 40.00
649 48.6900 1681.00 1701.98 41.00
650 48.7400 1764.00 1702.71 42.00
651 48.7900 1669.00 1703.43 40.00
652 48.8400 1728.00 1704.17 41.00
653 48.8900 1662.00 1704.92 40.00
654 48.9400 1669.00 1705.71 40.00
655 48.9900 1650.00 1706.59 40.00
656 49.0400 1740.00 1707.67 41.00
657 49.0900 1644.00 1709.16 40.00
658 49.1400 1672.00 1711.33 40.00
659 49.1900 1679.00 1714.46 40.00
660 49.2400 1752.00 1718.62 41.00
661 49.2900 1709.00 1723.48 41.00
662 49.3400 1688.00 1728.20 41.00
663 49.3900 1651.00 1731.63 40.00
664 49.4400 1672.00 1732.82 40.00
665 49.4900 1707.00 1731.61 41.00
666 49.5400 1734.00 1728.76 41.00
667 49.5900 1695.00 1725.40 41.00
668 49.6400 1686.00 1722.42 41.00
669 49.6900 1698.00 1720.30 41.00
670 49.7400 1711.00 1719.12 41.00
671 49.7900 1730.00 1718.72 41.00
672 49.8400 1750.00 1718.84 41.00
673 49.8900 1750.00 1719.26 41.00
674 49.9400 1723.00 1719.84 41.00
675 49.9900 1709.00 1720.49 41.00
676 50.0400 1762.00 1721.16 41.00
677 50.0900 1739.00 1721.85 41.00
678 50.1400 1782.00 1722.54 42.00
679 50.1900 1809.00 1723.24 42.00
680 50.2400 1764.00 1723.94 42.00
681 50.2900 1676.00 1724.64 40.00
682 50.3400 1759.00 1725.35 41.00
683 50.3900 1704.00 1726.05 41.00
684 50.4400 1780.00 1726.76 42.00
685 50.4900 1840.00 1727.47 42.00
686 50.5400 1835.00 1728.19 42.00
687 50.5900 1818.00 1728.90 42.00
688 50.6400 1795.00 1729.62 42.00
689 50.6900 1814.00 1730.33 42.00
690 50.7400 1710.00 1731.05 41.00
691 50.7900 1743.00 1731.78 41.00
692 50.8400 1781.00 1732.50 42.00
693 50.8900 1761.00 1733.23 41.00
694 50.9400 1739.00 1733.92 41.00
695 50.9900 1751.00 1736.68 41.00
696 51.0400 1821.00 1740.78 42.00
697 51.0900 1742.00 1744.88 41.00
698 51.1400 1728.00 1748.99 41.00
699 51.1900 1740.00 1753.12 41.00
700 51.2400 1755.00 1757.25 41.00
701 51.2900 1831.00 1761.39 42.00
702 51.3400 1783.00 1765.55 42.00
703 51.3900 1787.00 1769.74 42.00
704 51.4400 1784.00 1773.99 42.00
705 51.4900 1737.00 1778.75 41.00
706 51.5400 1742.00 1783.40 41.00
707 51.5900 1778.00 1788.73 42.00
708 51.6400 1755.00 1795.48 41.00
709 51.6900 1749.00 1804.90 41.00
710 51.7400 1726.00 1818.48 41.00
711 51.7900 1769.00 1837.28 42.00
712 51.8400 1876.00 1860.76 43.00
713 51.8900 1901.00 1885.91 43.00
714 51.9400 1933.00 1907.49 43.00
715 51.9900 1951.00 1919.87 44.00
716 52.0400 1967.00 1919.94 44.00
717 52.0900 1943.00 1909.49 44.00
718 52.1400 1935.00 1893.82 43.00
719 52.1900 1905.00 1878.22 43.00
720 52.2400 1879.00 1866.07 43.00
721 52.2900 1865.00 1858.61 43.00
722 52.3400 1894.00 1855.47 43.00
723 52.3900 1818.00 1855.54 42.00
724 52.4400 1813.00 1857.60 42.00
725 52.4900 1879.00 1860.74 43.00
726 52.5400 1869.00 1864.38 43.00
727 52.5900 1857.00 1868.24 43.00
728 52.6400 1902.00 1872.20 43.00
729 52.6900 1881.00 1876.19 43.00
730 52.7400 1930.00 1880.21 43.00
731 52.7900 1896.00 1884.24 43.00
732 52.8400 1920.00 1888.30 43.00
733 52.8900 1972.00 1892.36 44.00
734 52.9400 1819.00 1896.43 42.00
735 52.9900 1857.00 1900.52 43.00
736 53.0400 1923.00 1904.61 43.00
737 53.0900 1914.00 1908.72 43.00
738 53.1400 1883.00 1912.84 43.00
739 53.1900 1846.00 1916.97 42.00
740 53.2400 1938.00 1921.11 44.00
741 53.2900 1942.00 1925.26 44.00
742 53.3400 1929.00 1929.44 43.00
743 53.3900 1982.00 1932.83 44.00
744 53.4400 1983.00 1935.05 44.00
745 53.4900 2010.00 1937.30 44.00
746 57.3900 2184.00 2122.91 46.00
747 57.4400 2210.00 2127.74 47.00
748 57.4900 2142.00 2133.08 46.00
749 57.5400 2161.00 2139.10 46.00
750 57.5900 2083.00 2146.06 45.00
751 57.6400 2196.00 2154.31 46.00
752 57.6900 2128.00 2164.70 46.00
753 57.7400 2226.00 2179.43 47.00
754 57.7900 2270.00 2204.31 47.00
755 57.8400 2350.00 2253.64 48.00
756 57.8900 2441.00 2358.30 49.00
757 57.9400 2543.00 2574.27 50.00
758 57.9900 2945.00 2981.62 54.00
759 58.0400 3604.00 3658.37 60.00
760 58.0900 4428.00 4623.27 66.00
761 58.1400 5509.00 5770.92 74.00
762 58.1900 6642.00 6852.72 81.00
763 58.2400 7441.00 7545.15 86.00
764 58.2900 7642.00 7597.33 87.00
765 58.3400 7200.00 6998.34 84.00
766 58.3900 6298.00 5993.96 79.00
767 58.4400 5184.00 4899.25 72.00
768 58.4900 4054.00 3942.24 63.00
769 58.5400 3289.00 3226.32 57.00
770 58.5900 2838.00 2756.39 53.00
771 58.6400 2502.00 2482.73 50.00
772 58.6900 2356.00 2339.99 48.00
773 58.7400 2296.00 2272.29 47.00
774 58.7900 2211.00 2242.08 47.00
775 58.8400 2214.00 2228.56 47.00
776 58.8900 2288.00 2222.00 47.00
777 58.9400 2254.00 2218.45 47.00
778 58.9900 2180.00 2216.44 46.00
779 59.0400 2193.00 2215.43 46.00
780 59.0900 2148.00 2215.21 46.00
781 59.1400 2251.00 2215.64 47.00
782 59.1900 2268.00 2216.63 47.00
783 59.2400 2187.00 2218.12 46.00
784 59.2900 2223.00 2220.07 47.00
785 59.3400 2303.00 2222.46 47.00
786 59.3900 2173.00 2225.06 46.00
787 59.4400 2218.00 2227.23 47.00
788 59.4900 2319.00 2229.84 48.00
789 59.5400 2190.00 2232.93 46.00
790 59.5900 2123.00 2236.59 46.00
791 59.6400 2137.00 2240.81 46.00
792 59.6900 2249.00 2245.73 47.00
793 59.7400 2182.00 2251.49 46.00
794 59.7900 2184.00 2258.27 46.00
795 59.8400 2298.00 2266.32 47.00
796 59.8900 2263.00 2276.06 47.00
797 59.9400 2224.00 2288.12 47.00
798 59.9900 2225.00 2303.85 47.00
799 60.0400 2247.00 2326.53 47.00
800 60.0900 2384.00 2364.77 48.00
801 60.1400 2462.00 2440.45 49.00
802 60.1900 2676.00 2603.04 51.00
803 60.2400 3062.00 2947.91 55.00
804 60.2900 3694.00 3623.19 60.00
805 60.3400 4799.00 4796.14 69.00
806 60.3900 6388.00 6554.90 79.00
807 60.4400 8448.00 8771.13 91.00
808 60.4900 10643.00 11024.80 103.00
809 60.5400 12319.00 12686.20 110.00
810 60.5900 13171.00 13176.40 114.00
811 60.6400 12638.00 12315.20 112.00
812 60.6900 11000.00 10480.90 104.00
813 60.7400 8946.00 8314.33 94.00
814 60.7900 6814.00 6337.08 82.00
815 60.8400 4935.00 4820.50 70.00
816 60.8900 3774.00 3816.11 61.00
817 60.9400 3069.00 3236.43 55.00
818 60.9900 2845.00 2939.71 53.00
819 61.0400 2840.00 2791.57 53.00
820 61.0900 2573.00 2700.11 50.00
821 61.1400 2537.00 2623.89 50.00
822 61.1900 2509.00 2557.12 50.00
823 61.2400 2394.00 2509.80 48.00
824 61.2900 2418.00 2499.94 49.00
825 61.3400 2536.00 2557.78 50.00
826 61.3900 2671.00 2735.12 51.00
827 61.4400 3046.00 3107.12 55.00
828 61.4900 3765.00 3749.50 61.00
829 61.5400 4580.00 4682.76 67.00
830 61.5900 5548.00 5806.48 74.00
831 61.6400 6867.00 6876.99 82.00
832 61.6900 7609.00 7572.01 87.00
833 61.7400 7715.00 7637.42 87.00
834 61.7900 7158.00 7055.10 84.00
835 61.8400 6319.00 6066.48 79.00
836 61.8900 5384.00 4986.24 73.00
837 61.9400 4188.00 4040.50 64.00
838 61.9900 3448.00 3330.63 58.00
839 62.0400 2799.00 2861.34 52.00
840 62.0900 2554.00 2584.71 50.00
841 62.1400 2355.00 2437.87 48.00
842 62.1900 2352.00 2366.22 48.00
843 62.2400 2305.00 2332.60 48.00
844 62.2900 2328.00 2316.09 48.00
845 62.3400 2281.00 2306.76 47.00
846 62.3900 2267.00 2300.49 47.00
847 62.4400 2256.00 2295.77 47.00
848 62.4900 2303.00 2292.02 47.00
849 62.5400 2273.00 2289.01 47.00
850 62.5900 2362.00 2286.59 48.00
851 62.6400 2257.00 2284.66 47.00
852 62.6900 2354.00 2283.13 48.00
853 62.7400 2297.00 2281.95 47.00
854 62.7900 2315.00 2281.08 48.00
855 62.8400 2416.00 2280.47 49.00
856 62.8900 2434.00 2280.10 49.00
857 62.9400 2377.00 2279.90 48.00
858 62.9900 2346.00 2279.82 48.00
859 63.0400 2394.00 2279.81 48.00
860 63.0900 2375.00 2279.83 48.00
861 63.1400 2369.00 2279.89 48.00
862 63.1900 2280.00 2280.00 47.00
863 63.2400 2364.00 2280.19 48.00
864 63.2900 2283.00 2280.48 47.00
865 63.3400 2292.00 2280.85 47.00
866 63.3900 2324.00 2281.30 48.00
867 63.4400 2244.00 2281.82 47.00
868 63.4900 2218.00 2282.39 47.00
869 63.5400 2311.00 2283.01 48.00
870 63.5900 2249.00 2283.78 47.00
871 63.6400 2164.00 2284.49 46.00
872 63.6900 2217.00 2285.23 47.00
873 63.7400 2257.00 2286.02 47.00
874 63.7900 2225.00 2286.85 47.00
875 63.8400 2242.00 2288.21 47.00
876 63.8900 2355.00 2289.67 48.00
877 63.9400 2230.00 2291.36 47.00
878 63.9900 2207.00 2293.54 46.00
879 64.0400 2135.00 2296.76 46.00
880 64.0900 2238.00 2301.89 47.00
881 64.1400 2283.00 2309.96 47.00
882 64.1900 2307.00 2321.62 48.00
883 64.2400 2289.00 2336.27 47.00
884 64.2900 2391.00 2351.53 48.00
885 64.3400 2366.00 2363.61 48.00
886 64.3900 2385.00 2368.81 48.00
887 64.4400 2403.00 2365.69 49.00
888 64.4900 2408.00 2356.27 49.00
889 64.5400 2318.00 2344.45 48.00
890 64.5900 2275.00 2333.50 47.00
891 64.6400 2285.00 2325.18 47.00
892 64.6900 2280.00 2319.88 47.00
893 64.7400 2362.00 2317.18 48.00
894 64.7900 2284.00 2316.35 47.00
895 64.8400 2386.00 2316.67 48.00
896 64.8900 2194.00 2317.60 46.00
897 64.9400 2276.00 2318.83 47.00
898 64.9900 2300.00 2320.20 47.00
899 65.0400 2322.00 2321.62 48.00
900 65.0900 2294.00 2323.08 47.00
901 65.1400 2298.00 2324.18 47.00
902 65.1900 2265.00 2325.69 47.00
903 65.2400 2276.00 2327.23 47.00
904 65.2900 2303.00 2328.80 47.00
905 65.3400 2350.00 2335.14 48.00
906 65.3900 2340.00 2341.52 48.00
907 65.4400 2375.00 2347.92 48.00
908 65.4900 2317.00 2354.37 48.00
909 65.5400 2326.00 2360.86 48.00
910 65.5900 2331.00 2367.40 48.00
911 65.6400 2347.00 2374.02 48.00
912 65.6900 2343.00 2380.74 48.00
913 65.7400 2408.00 2387.59 49.00
914 65.7900 2389.00 2394.70 48.00
915 65.8400 2393.00 2402.33 48.00
916 65.8900 2445.00 2411.20 49.00
917 65.9400 2454.00 2422.98 49.00
918 65.9900 2451.00 2441.15 49.00
919 66.0400 2463.00 2471.64 49.00
920 66.0900 2507.00 2522.16 50.00
921 66.1400 2639.00 2598.80 51.00
922 66.1900 2725.00 2700.04 52.00
923 66.2400 2782.00 2811.30 52.00
924 66.2900 2862.00 2906.05 53.00
925 66.3400 3027.00 2955.09 55.00
926 66.3900 3068.00 2942.15 55.00
927 66.4400 2849.00 2876.46 53.00
928 66.4900 2767.00 2785.63 52.00
929 66.5400 2694.00 2696.55 51.00
930 66.5900 2653.00 2624.91 51.00
931 66.6400 2560.00 2575.64 50.00
932 66.6900 2716.00 2546.65 52.00
933 66.7400 2654.00 2532.83 51.00
934 66.7900 2590.00 2528.69 50.00
935 72.7900 2554.00 2461.89 50.00
936 72.8400 2496.00 2465.43 49.00
937 72.8900 2655.00 2473.44 51.00
938 72.9400 2651.00 2491.23 51.00
939 72.9900 2621.00 2528.02 51.00
940 73.0400 2717.00 2596.07 52.00
941 73.0900 2815.00 2705.71 53.00
942 73.1400 2813.00 2855.71 53.00
943 73.1900 3022.00 3024.46 54.00
944 73.2400 3136.00 3170.20 56.00
945 73.2900 3259.00 3245.69 57.00
946 73.3400 3205.00 3222.17 56.00
947 73.3900 3075.00 3110.94 55.00
948 73.4400 2944.00 2955.78 54.00
949 73.4900 2812.00 2801.19 53.00
950 73.5400 2633.00 2673.34 51.00
951 73.5900 2539.00 2580.55 50.00
952 73.6400 2449.00 2520.06 49.00
953 73.6900 2427.00 2484.24 49.00
954 73.7400 2410.00 2464.79 49.00
955 73.7900 2367.00 2454.83 48.00
956 73.8400 2391.00 2449.74 48.00
957 73.8900 2509.00 2446.88 50.00
958 73.9400 2375.00 2444.96 48.00
959 73.9900 2394.00 2443.34 48.00
960 74.0400 2422.00 2441.48 49.00
961 74.0900 2402.00 2439.85 49.00
962 76.3900 2331.00 2380.33 48.00
963 76.4400 2449.00 2379.18 49.00
964 76.4900 2342.00 2378.03 48.00
965 76.5400 2420.00 2376.89 49.00
966 76.5900 2403.00 2375.75 49.00
967 76.6400 2236.00 2374.62 47.00
968 76.6900 2348.00 2373.50 48.00
969 76.7400 2363.00 2372.40 48.00
970 76.7900 2389.00 2371.32 48.00
971 76.8400 2387.00 2370.29 48.00
972 76.8900 2377.00 2369.35 48.00
973 76.9400 2418.00 2368.52 49.00
974 76.9900 2379.00 2367.85 48.00
975 77.0400 2385.00 2367.32 48.00
976 77.0900 2305.00 2366.83 48.00
977 77.1400 2319.00 2366.26 48.00
978 77.1900 2286.00 2365.42 47.00
979 77.2400 2306.00 2364.26 48.00
980 77.2900 2311.00 2362.76 48.00
981 77.3400 2322.00 2361.27 48.00
982 77.3900 2341.00 2359.83 48.00
983 77.4400 2406.00 2358.52 49.00
984 77.4900 2446.00 2357.36 49.00
985 77.5400 2425.00 2356.33 49.00
986 77.5900 2307.00 2355.43 48.00
987 77.6400 2415.00 2354.63 49.00
988 77.6900 2427.00 2353.91 49.00
989 77.7400 2384.00 2353.66 48.00
990 77.7900 2275.00 2353.13 47.00
991 77.8400 2326.00 2352.69 48.00
992 77.8900 2358.00 2352.38 48.00
993 77.9400 2328.00 2354.65 48.00
994 77.9900 2384.00 2357.11 48.00
995 78.0400 2418.00 2359.81 49.00
996 78.0900 2383.00 2362.81 48.00
997 78.1400 2384.00 2366.24 48.00
998 78.1900 2350.00 2370.28 48.00
999 78.2400 2377.00 2375.36 48.00
1000 78.2900 2323.00 2382.44 48.00
1001 78.3400 2431.00 2394.02 49.00
1002 78.3900 2452.00 2415.98 49.00
1003 78.4400 2378.00 2460.94 48.00
1004 78.4900 2570.00 2551.54 50.00
1005 78.5400 2732.00 2720.25 52.00
1006 78.5900 2972.00 2998.89 54.00
1007 78.6400 3438.00 3395.11 58.00
1008 78.6900 3836.00 3865.62 61.00
1009 78.7400 4283.00 4307.93 65.00
1010 78.7900 4533.00 4590.03 67.00
1011 78.8400 4443.00 4610.38 66.00
1012 78.8900 4287.00 4364.81 65.00
1013 78.9400 3867.00 3956.13 62.00
1014 78.9900 3364.00 3516.67 58.00
1015 79.0400 3060.00 3135.84 55.00
1016 79.0900 2720.00 2848.70 52.00
1017 79.1400 2451.00 2654.18 49.00
1018 79.1900 2456.00 2534.33 49.00
1019 79.2400 2501.00 2467.07 50.00
1020 79.2900 2344.00 2432.58 48.00
1021 79.3400 2453.00 2416.18 49.00
1022 79.3900 2494.00 2408.65 49.00
1023 79.4400 2427.00 2405.06 49.00
1024 79.4900 2426.00 2403.16 49.00
1025 79.5400 2437.00 2402.03 49.00
1026 79.5900 2388.00 2401.35 48.00
1027 79.6400 2453.00 2400.99 49.00
1028 79.6900 2354.00 2400.89 48.00
1029 79.7400 2427.00 2400.99 49.00
1030 79.7900 2421.00 2401.28 49.00
1031 79.8400 2434.00 2401.72 49.00
1032 79.8900 2397.00 2402.29 48.00
1033 79.9400 2371.00 2402.97 48.00
1034 79.9900 2368.00 2403.74 48.00
1035 80.0400 2348.00 2404.61 48.00
1036 80.0900 2394.00 2405.54 48.00
1037 80.1400 2429.00 2406.54 49.00
1038 80.1900 2454.00 2407.60 49.00
1039 80.2400 2442.00 2408.65 49.00
1040 80.2900 2428.00 2409.82 49.00
1041 80.3400 2409.00 2411.04 49.00
1042 80.3900 2437.00 2412.31 49.00
1043 80.4400 2440.00 2413.63 49.00
1044 80.4900 2441.00 2415.00 49.00
1045 80.5400 2371.00 2416.42 48.00
1046 80.5900 2380.00 2417.91 48.00
1047 80.6400 2423.00 2419.46 49.00
1048 80.6900 2369.00 2421.07 48.00
1049 80.7400 2455.00 2422.77 49.00
1050 80.7900 2474.00 2424.55 49.00
1051 80.8400 2490.00 2424.94 49.00
1052 80.8900 2451.00 2425.45 49.00
1053 80.9400 2404.00 2426.11 49.00
1054 80.9900 2487.00 2426.94 49.00
1055 83.8900 2484.00 2435.63 49.00
1056 83.9400 2438.00 2451.69 49.00
1057 83.9900 2487.00 2479.77 49.00
1058 84.0400 2476.00 2523.85 49.00
1059 84.0900 2549.00 2583.92 50.00
1060 84.1400 2674.00 2652.81 51.00
1061 84.1900 2683.00 2715.92 51.00
1062 84.2400 2808.00 2756.05 52.00
1063 84.2900 2786.00 2762.21 52.00
1064 84.3400 2658.00 2738.79 51.00
1065 84.3900 2815.00 2707.77 53.00
1066 84.4400 2807.00 2702.29 52.00
1067 84.4900 2801.00 2764.40 52.00
1068 84.5400 3047.00 2949.47 55.00
1069 84.5900 3427.00 3323.67 58.00
1070 84.6400 4044.00 3939.11 63.00
1071 84.6900 4872.00 4785.76 69.00
1072 84.7400 5801.00 5744.46 76.00
1073 84.7900 6492.00 6589.37 80.00
1074 84.8400 7017.00 7059.29 83.00
1075 84.8900 6816.00 6983.54 82.00
1076 84.9400 6273.00 6398.19 79.00
1077 84.9900 5417.00 5533.17 73.00
1078 85.0400 4363.00 4646.20 66.00
1079 85.0900 3560.00 3896.66 59.00
1080 85.1400 3163.00 3337.78 56.00
1081 85.1900 2787.00 2957.92 52.00
1082 85.2400 2576.00 2719.81 50.00
1083 85.2900 2517.00 2581.79 50.00
1084 85.3400 2554.00 2507.52 50.00
1085 85.3900 2491.00 2469.57 49.00
1086 85.4400 2510.00 2450.11 50.00
1087 85.4900 2502.00 2439.17 50.00
1088 85.5400 2424.00 2431.95 49.00
1089 85.5900 2354.00 2426.46 48.00
1090 85.6400 2342.00 2421.91 48.00
1091 85.6900 2457.00 2418.04 49.00
1092 85.7400 2424.00 2414.72 49.00
1093 85.7900 2286.00 2411.88 47.00
1094 85.8400 2352.00 2409.47 48.00
1095 85.8900 2396.00 2407.24 48.00
1096 85.9400 2321.00 2405.45 48.00
1097 85.9900 2415.00 2403.83 49.00
1098 86.0400 2422.00 2402.29 49.00
1099 86.0900 2405.00 2400.79 49.00
1100 86.1400 2328.00 2399.33 48.00
1101 86.1900 2413.00 2397.95 49.00
1102 86.2400 2475.00 2396.70 49.00
1103 86.2900 2439.00 2395.58 49.00
1104 86.3400 2474.00 2394.58 49.00
1105 86.3900 2376.00 2393.70 48.00
1106 86.4400 2455.00 2392.92 49.00
1107 86.4900 2434.00 2392.23 49.00
1108 86.5400 2432.00 2391.62 49.00
1109 86.5900 2332.00 2391.10 48.00
1110 86.6400 2324.00 2390.67 48.00
1111 86.6900 2452.00 2390.38 49.00
1112 86.7400 2518.00 2390.34 50.00
1113 86.7900 2407.00 2390.83 49.00
1114 86.8400 2395.00 2392.45 48.00
1115 86.8900 2299.00 2396.30 47.00
1116 86.9400 2461.00 2404.05 49.00
1117 86.9900 2431.00 2417.61 49.00
1118 87.0400 2396.00 2438.06 48.00
1119 87.0900 2454.00 2464.15 49.00
1120 87.1400 2536.00 2491.36 50.00
1121 87.1900 2540.00 2512.59 50.00
1122 87.2400 2437.00 2520.86 49.00
1123 87.2900 2411.00 2513.02 49.00
1124 87.3400 2462.00 2492.19 49.00
1125 87.3900 2443.00 2465.82 49.00
1126 87.4400 2454.00 2440.64 49.00
1127 87.4900 2428.00 2420.21 49.00
1128 87.5400 2312.00 2405.29 48.00
1129 87.5900 2411.00 2395.24 49.00
1130 87.6400 2408.00 2388.90 49.00
1131 87.6900 2334.00 2385.14 48.00
1132 87.7400 2380.00 2383.01 48.00
1133 87.7900 2324.00 2381.79 48.00
1134 87.8400 2448.00 2381.05 49.00
1135 87.8900 2421.00 2380.53 49.00
1136 87.9400 2309.00 2380.16 48.00
1137 87.9900 2389.00 2379.82 48.00
1138 88.0400 2404.00 2381.19 49.00
1139 88.0900 2299.00 2382.60 47.00
1140 88.1400 2321.00 2384.07 48.00
1141 88.1900 2424.00 2385.59 49.00
1142 88.2400 2358.00 2387.18 48.00
1143 88.2900 2345.00 2388.85 48.00
1144 88.3400 2334.00 2390.64 48.00
1145 88.3900 2377.00 2392.58 48.00
1146 88.4400 2418.00 2394.79 49.00
1147 88.4900 2327.00 2397.50 48.00
1148 88.5400 2375.00 2401.31 48.00
1149 88.5900 2440.00 2407.51 49.00
1150 88.6400 2539.00 2418.78 50.00
1151 88.6900 2469.00 2439.71 49.00
1152 88.7400 2521.00 2476.62 50.00
1153 88.7900 2577.00 2535.62 50.00
1154 88.8400 2629.00 2618.22 51.00
1155 88.8900 2649.00 2716.33 51.00
1156 88.9400 2871.00 2810.66 53.00
1157 88.9900 2806.00 2875.32 52.00
1158 89.0400 2849.00 2889.40 53.00
1159 89.0900 2752.00 2848.19 52.00
1160 89.1400 2733.00 2768.81 52.00
1161 89.1900 2634.00 2678.07 51.00
1162 89.2400 2579.00 2596.41 50.00
1163 89.2900 2556.00 2532.87 50.00
1164 89.3400 2457.00 2488.20 49.00
1165 89.3900 2422.00 2459.31 49.00
1166 89.4400 2429.00 2442.13 49.00
1167 89.4900 2439.00 2432.91 49.00
1168 89.5400 2365.00 2428.63 48.00
1169 89.5900 2337.00 2427.12 48.00
1170 89.6400 2338.00 2426.94 48.00
1171 89.6900 2383.00 2427.39 48.00
1172 89.7400 2279.00 2428.13 47.00
1173 89.7900 2404.00 2428.99 49.00
1174 89.8400 2517.00 2429.94 50.00
1175 89.8900 2593.00 2430.95 50.00
1176 89.9400 2523.00 2432.01 50.00
1177 89.9900 2471.00 2433.11 49.00
1178 90.0400 2480.00 2434.24 49.00
1179 90.0900 2434.00 2435.41 49.00
1180 90.1400 2405.00 2436.60 49.00
1181 90.1900 2463.00 2437.82 49.00
1182 90.2400 2522.00 2439.05 50.00
1183 90.2900 2432.00 2440.30 49.00
1184 90.3400 2433.00 2441.57 49.00
1185 90.3900 2466.00 2442.85 49.00
1186 90.4400 2460.00 2444.17 49.00
1187 90.4900 2485.00 2445.51 49.00
1188 90.5400 2453.00 2446.89 49.00
1189 90.5900 2423.00 2448.31 49.00
1190 90.6400 2406.00 2449.76 49.00
1191 90.6900 2385.00 2451.21 48.00
1192 90.7400 2482.00 2452.63 49.00
1193 90.7900 2483.00 2453.97 49.00
1194 90.8400 2433.00 2455.25 49.00
1195 90.8900 2436.00 2456.47 49.00
1196 90.9400 2477.00 2457.68 49.00
1197 90.9900 2486.00 2458.90 49.00
1198 91.0400 2461.00 2460.15 49.00
1199 91.0900 2384.00 2461.43 48.00
1200 91.1400 2433.00 2462.74 49.00
1201 91.1900 2443.00 2464.06 49.00
1202 91.2400 2475.00 2465.40 49.00
1203 91.2900 2479.00 2466.74 49.00
1204 91.3400 2466.00 2468.09 49.00
1205 91.3900 2448.00 2469.45 49.00
1206 91.4400 2524.00 2470.80 50.00
1207 91.4900 2498.00 2472.14 49.00
1208 91.5400 2505.00 2473.50 50.00
1209 91.5900 2574.00 2474.86 50.00
1210 91.6400 2566.00 2476.23 50.00
1211 91.6900 2561.00 2477.59 50.00
1212 91.7400 2443.00 2478.96 49.00
1213 91.7900 2494.00 2480.32 49.00
1214 91.8400 2571.00 2482.44 50.00
1215 91.8900 2485.00 2487.58 49.00
1216 91.9400 2493.00 2492.71 49.00
1217 91.9900 2541.00 2497.85 50.00
1218 92.0400 2571.00 2502.98 50.00
1219 92.0900 2589.00 2507.74 50.00
1220 92.1400 2543.00 2512.88 50.00
1221 92.1900 2532.00 2518.03 50.00
1222 92.2400 2608.00 2523.17 51.00
1223 92.2900 2606.00 2528.32 51.00
1224 92.3400 2556.00 2533.47 50.00
1225 92.3900 2547.00 2538.61 50.00
1226 92.4400 2694.00 2543.76 51.00
1227 92.4900 2626.00 2548.91 51.00
1228 92.5400 2658.00 2554.07 51.00
1229 92.5900 2571.00 2559.23 50.00
1230 92.6400 2618.00 2564.38 51.00
1231 92.6900 2631.00 2569.54 51.00
1232 92.7400 2650.00 2574.70 51.00
1233 92.7900 2663.00 2579.86 51.00
1234 92.8400 2619.00 2585.02 51.00
1235 92.8900 2591.00 2590.19 50.00
1236 92.9400 2590.00 2595.45 50.00
1237 92.9900 2651.00 2600.63 51.00
1238 93.0400 2678.00 2605.81 51.00
1239 93.0900 2624.00 2611.00 51.00
1240 93.1400 2625.00 2616.20 51.00
1241 93.1900 2666.00 2621.42 51.00
1242 93.2400 2635.00 2625.40 51.00
1243 93.2900 2705.00 2627.53 52.00
1244 96.4900 2820.00 2780.66 53.00
1245 96.5400 2922.00 2799.20 54.00
1246 96.5900 2987.00 2827.82 54.00
1247 96.6400 3019.00 2869.45 54.00
1248 96.6900 3055.00 2925.41 55.00
1249 96.7400 3144.00 2993.33 56.00
1250 96.7900 3212.00 3065.66 56.00
1251 96.8400 3162.00 3130.18 56.00
1252 96.8900 3283.00 3173.80 57.00
1253 96.9400 3214.00 3188.20 56.00
1254 96.9900 3163.00 3175.87 56.00
1255 97.0400 3155.00 3153.00 56.00
1256 97.0900 3069.00 3142.37 55.00
1257 97.1400 3091.00 3159.72 55.00
1258 97.1900 3142.00 3204.96 56.00
1259 97.2400 3338.00 3262.04 57.00
1260 97.2900 3340.00 3305.84 57.00
1261 97.3400 3400.00 3313.05 58.00
1262 97.3900 3295.00 3273.54 57.00
1263 97.4400 3214.00 3196.59 56.00
1264 97.4900 3132.00 3104.56 55.00
1265 97.5400 2988.00 3018.18 54.00
1266 97.5900 2899.00 2948.46 53.00
1267 97.6400 2852.00 2897.77 53.00
1268 97.6900 2811.00 2863.18 53.00
1269 97.7400 2803.00 2841.11 52.00
1270 97.7900 2785.00 2828.03 52.00
1271 97.8400 2717.00 2821.07 52.00
1272 97.8900 2788.00 2817.99 52.00
1273 97.9400 2861.00 2817.16 53.00
1274 97.9900 2758.00 2817.54 52.00
1275 98.0400 2788.00 2818.52 52.00
1276 98.0900 2766.00 2819.79 52.00
1277 98.1400 2786.00 2820.80 52.00
1278 98.1900 2877.00 2821.28 53.00
1279 98.2400 2901.00 2821.93 53.00
1280 98.2900 2830.00 2822.85 53.00
1281 98.3400 2836.00 2824.26 53.00
1282 98.3900 2786.00 2826.54 52.00
1283 98.4400 2841.00 2830.33 53.00
1284 98.4900 2846.00 2836.37 53.00
1285 98.5400 2875.00 2845.27 53.00
1286 98.5900 2907.00 2857.00 53.00
1287 98.6400 2952.00 2870.39 54.00
1288 98.6900 2877.00 2883.05 53.00
1289 98.7400 2943.00 2891.98 54.00
1290 98.7900 2954.00 2894.68 54.00
1291 98.8400 2834.00 2890.50 53.00
1292 98.8900 2861.00 2881.21 53.00
1293 98.9400 2837.00 2870.03 53.00
1294 98.9900 2811.00 2859.72 53.00
1295 99.0400 2812.00 2851.74 53.00
1296 99.0900 2838.00 2846.38 53.00
1297 99.1400 2835.00 2843.32 53.00
1298 99.1900 2868.00 2842.00 53.00
1299 99.2400 2831.00 2841.86 53.00
1300 99.2900 2887.00 2842.32 53.00
1301 99.3400 2885.00 2842.92 53.00
1302 99.3900 2774.00 2843.34 52.00
1303 99.4400 2804.00 2843.50 52.00
1304 99.4900 2843.00 2843.53 53.00
1305 99.5400 2948.00 2843.60 54.00
1306 99.5900 2863.00 2843.84 53.00
1307 99.6400 2790.00 2844.28 52.00
1308 99.6900 2810.00 2844.93 53.00
1309 99.7400 2884.00 2845.74 53.00
1310 99.7900 2954.00 2846.69 54.00
1311 99.8400 2796.00 2847.77 52.00
1312 99.8900 2828.00 2848.96 53.00
1313 99.9400 2875.00 2850.26 53.00
1314 99.9900 2867.00 2851.72 53.00
1315 100.0400 2783.00 2853.39 52.00
1316 100.0900 2803.00 2855.44 52.00
1317 100.1400 2886.00 2858.17 53.00
1318 100.1900 2900.00 2862.12 53.00
1319 100.2400 2936.00 2868.13 54.00
1320 100.2900 2901.00 2877.29 53.00
1321 100.3400 2953.00 2890.67 54.00
1322 100.3900 2853.00 2908.82 53.00
1323 100.4400 2953.00 2931.59 54.00
1324 100.4900 3008.00 2958.44 54.00
1325 100.5400 3037.00 2990.03 55.00
1326 100.5900 3037.00 3030.45 55.00
1327 100.6400 3168.00 3088.85 56.00
1328 100.6900 3197.00 3178.18 56.00
1329 100.7400 3254.00 3308.66 57.00
1330 100.7900 3463.00 3477.87 58.00
1331 100.8400 3716.00 3663.62 60.00
1332 100.8900 3826.00 3825.91 61.00
1333 100.9400 4081.00 3919.66 63.00
1334 100.9900 4020.00 3913.45 63.00
1335 101.0400 3764.00 3807.29 61.00
1336 101.0900 3497.00 3635.81 59.00
1337 101.1400 3388.00 3447.60 58.00
1338 101.1900 3233.00 3279.30 56.00
1339 101.2400 3034.00 3147.07 55.00
1340 101.2900 2978.00 3051.47 54.00
1341 101.3400 2887.00 2986.10 53.00
1342 101.3900 2970.00 2943.36 54.00
1343 101.4400 2955.00 2916.73 54.00
1344 101.4900 2939.00 2901.13 54.00
1345 101.5400 2767.00 2892.61 52.00
1346 101.5900 2862.00 2888.28 53.00
1347 101.6400 2955.00 2886.22 54.00
1348 101.6900 2898.00 2885.30 53.00
1349 101.7400 2877.00 2884.91 53.00
1350 101.7900 2873.00 2884.81 53.00
1351 101.8400 2878.00 2884.86 53.00
1352 101.8900 2850.00 2885.03 53.00
1353 101.9400 2815.00 2885.31 53.00
1354 101.9900 2811.00 2885.67 53.00
1355 102.0400 2813.00 2886.11 53.00
1356 102.0900 2883.00 2886.63 53.00
1357 102.1400 2880.00 2887.22 53.00
1358 102.1900 2932.00 2887.86 54.00
1359 102.2400 2950.00 2888.56 54.00
1360 102.2900 2845.00 2889.31 53.00
1361 102.3400 2837.00 2890.11 53.00
1362 102.3900 2873.00 2890.96 53.00
1363 102.4400 2853.00 2891.86 53.00
1364 102.4900 2835.00 2892.80 53.00
1365 102.5400 2923.00 2893.78 54.00
1366 102.5900 2910.00 2894.54 53.00
1367 102.6400 2917.00 2895.28 54.00
1368 102.6900 2898.00 2896.07 53.00
1369 102.7400 2904.00 2896.92 53.00
1370 102.7900 2916.00 2897.84 54.00
1371 102.8400 2914.00 2898.83 53.00
1372 102.8900 2974.00 2899.90 54.00
1373 102.9400 2954.00 2901.07 54.00
1374 102.9900 2808.00 2902.36 52.00
1375 103.0400 2824.00 2903.79 53.00
1376 103.0900 2876.00 2905.38 53.00
1377 103.1400 2909.00 2907.19 53.00
1378 103.1900 2912.00 2909.28 53.00
1379 103.2400 2836.00 2911.72 53.00
1380 103.2900 2812.00 2914.68 53.00
1381 103.3400 2894.00 2918.38 53.00
1382 103.3900 2931.00 2923.40 54.00
1383 103.4400 2946.00 2930.82 54.00
1384 103.4900 2938.00 2943.00 54.00
1385 103.5400 2920.00 2964.77 54.00
1386 103.5900 3029.00 3005.05 55.00
1387 103.6400 3042.00 3078.45 55.00
1388 103.6900 3291.00 3205.22 57.00
1389 103.7400 3379.00 3406.89 58.00
1390 103.7900 3750.00 3696.36 61.00
1391 103.8400 4077.00 4063.68 63.00
1392 103.8900 4475.00 4465.24 66.00
1393 103.9400 5012.00 4825.88 70.00
1394 103.9900 5137.00 5058.40 71.00
1395 104.0400 5069.00 5096.02 71.00
1396 104.0900 4837.00 4925.79 69.00
1397 104.1400 4578.00 4602.50 67.00
1398 104.1900 4086.00 4219.98 63.00
1399 104.2400 3761.00 3860.63 61.00
1400 104.2900 3431.00 3567.83 58.00
1401 104.3400 3256.00 3350.36 57.00
1402 104.3900 3145.00 3198.00 56.00
1403 104.4400 3043.00 3095.28 55.00
1404 104.4900 2951.00 3028.45 54.00
1405 104.5400 2888.00 2986.83 53.00
1406 104.5900 2883.00 2962.27 53.00
1407 104.6400 2886.00 2948.55 53.00
1408 104.6900 2969.00 2941.19 54.00
1409 104.7400 2927.00 2937.28 54.00
1410 104.7900 2832.00 2935.06 53.00
1411 104.8400 2916.00 2933.75 54.00
1412 104.8900 2882.00 2932.93 53.00
1413 104.9400 2920.00 2932.45 54.00
1414 104.9900 2915.00 2932.26 53.00
1415 105.0400 2953.00 2932.34 54.00
1416 105.0900 2893.00 2932.91 53.00
1417 105.1400 2947.00 2934.59 54.00
1418 105.1900 2871.00 2936.59 53.00
1419 105.2400 2875.00 2938.94 53.00
1420 105.2900 2905.00 2941.80 53.00
1421 105.3400 2926.00 2945.27 54.00
1422 105.3900 2885.00 2949.60 53.00
1423 105.4400 2911.00 2955.34 53.00
1424 105.4900 2887.00 2963.58 53.00
1425 105.5400 2928.00 2976.70 54.00
1426 105.5900 2979.00 2999.41 54.00
1427 105.6400 3038.00 3040.39 55.00
1428 105.6900 3112.00 3113.82 55.00
1429 105.7400 3277.00 3239.44 57.00
1430 105.7900 3477.00 3438.94 58.00
1431 105.8400 3722.00 3726.82 61.00
1432 105.8900 4166.00 4097.25 64.00
1433 105.9400 4648.00 4512.59 68.00
1434 105.9900 5127.00 4902.50 71.00
1435 106.0400 5533.00 5180.03 74.00
1436 106.0900 5618.00 5270.87 74.00
1437 106.1400 5389.00 5146.74 73.00
1438 106.1900 5021.00 4845.57 70.00
1439 106.2400 4578.00 4455.82 67.00
1440 106.2900 4131.00 4068.31 64.00
1441 106.3400 3879.00 3740.09 62.00
1442 106.3900 3619.00 3489.72 60.00
1443 106.4400 3498.00 3310.98 59.00
1444 106.4900 3424.00 3188.51 58.00
1445 106.5400 3271.00 3107.06 57.00
1446 106.5900 3170.00 3054.77 56.00
1447 106.6400 3120.00 3022.79 55.00
1448 106.6900 3213.00 3004.34 56.00
1449 109.2900 3055.00 3034.13 55.00
1450 109.3400 3034.00 3035.55 55.00
1451 109.3900 3019.00 3036.97 54.00
1452 109.4400 3114.00 3038.40 55.00
1453 109.4900 3069.00 3039.82 55.00
1454 109.5400 3016.00 3041.25 54.00
1455 109.5900 3026.00 3042.68 55.00
1456 109.6400 3004.00 3044.11 54.00
1457 109.6900 3028.00 3045.54 55.00
1458 109.7400 2996.00 3046.97 54.00
1459 109.7900 3063.00 3048.41 55.00
1460 109.8400 3020.00 3049.85 54.00
1461 109.8900 3008.00 3051.37 54.00
1462 109.9400 3103.00 3052.81 55.00
1463 109.9900 3045.00 3054.25 55.00
1464 110.0400 3028.00 3055.70 55.00
1465 110.0900 2989.00 3057.14 54.00
1466 110.1400 2970.00 3058.58 54.00
1467 110.1900 3005.00 3060.03 54.00
1468 110.2400 2924.00 3060.54 54.00
1469 110.2900 2985.00 3059.58 54.00
1470 110.3400 2981.00 3058.63 54.00
1471 110.3900 3034.00 3057.67 55.00
1472 110.4400 2972.00 3056.72 54.00
1473 110.4900 3005.00 3055.76 54.00
1474 110.5400 2985.00 3054.81 54.00
1475 110.5900 3043.00 3053.86 55.00
1476 110.6400 3189.00 3052.91 56.00
1477 110.6900 3106.00 3051.96 55.00
1478 110.7400 2999.00 3051.01 54.00
1479 110.7900 2998.00 3050.06 54.00
1480 110.8400 3063.00 3049.11 55.00
1481 110.8900 3026.00 3048.17 55.00
1482 110.9400 3036.00 3047.22 55.00
1483 110.9900 2925.00 3046.28 54.00
1484 111.0400 3032.00 3045.34 55.00
1485 111.0900 3043.00 3044.39 55.00
1486 111.1400 3021.00 3043.45 54.00
1487 111.1900 3041.00 3042.51 55.00
1488 111.2400 3041.00 3041.57 55.00
1489 111.2900 3047.00 3040.63 55.00
1490 111.3400 2997.00 3039.69 54.00
1491 111.3900 3060.00 3038.76 55.00
1492 111.4400 3077.00 3037.82 55.00
1493 111.4900 3003.00 3036.90 54.00
1494 111.5400 2934.00 3035.98 54.00
1495 111.5900 2938.00 3035.08 54.00
1496 111.6400 3042.00 3034.22 55.00
1497 111.6900 3021.00 3033.40 54.00
1498 111.7400 2962.00 3032.67 54.00
1499 111.7900 3020.00 3032.06 54.00
1500 111.8400 3073.00 3031.60 55.00
1501 111.8900 3048.00 3031.29 55.00
1502 111.9400 2928.00 3031.09 54.00
1503 111.9900 2966.00 3030.92 54.00
1504 112.0400 2991.00 3030.64 54.00
1505 112.0900 3008.00 3030.10 54.00
1506 112.1400 2988.00 3029.22 54.00
1507 112.1900 2957.00 3027.97 54.00
1508 112.2400 2918.00 3026.42 54.00
1509 112.2900 2931.00 3024.75 54.00
1510 112.3400 2899.00 3023.09 53.00
1511 112.3900 2965.00 3021.54 54.00
1512 112.4400 3008.00 3019.95 54.00
1513 112.4900 3021.00 3018.68 54.00
1514 112.5400 3013.00 3017.52 54.00
1515 112.5900 3020.00 3016.42 54.00
1516 112.6400 3052.00 3015.39 55.00
1517 112.6900 3055.00 3014.39 55.00
1518 112.7400 3057.00 3013.42 55.00
1519 112.7900 3056.00 3012.46 55.00
1520 112.8400 3004.00 3011.52 54.00
1521 112.8900 3015.00 3010.59 54.00
1522 112.9400 2896.00 3009.66 53.00
1523 112.9900 2894.00 3008.74 53.00
1524 113.0400 2929.00 3007.81 54.00
1525 113.0900 2952.00 3006.89 54.00
1526 113.1400 3000.00 3005.97 54.00
1527 113.1900 3063.00 3005.06 55.00
1528 113.2400 3024.00 3004.14 54.00
1529 113.2900 2980.00 3003.23 54.00
1530 113.3400 2960.00 3002.32 54.00
1531 113.3900 2932.00 3001.41 54.00
1532 113.4400 3040.00 3000.50 55.00
1533 113.4900 3005.00 2999.59 54.00
1534 113.5400 2973.00 2998.69 54.00
1535 113.5900 3055.00 2997.78 55.00
1536 113.6400 3029.00 2996.97 55.00
1537 113.6900 3050.00 2996.07 55.00
1538 113.7400 2991.00 2995.18 54.00
1539 113.7900 3049.00 2994.29 55.00
1540 113.8400 2987.00 2993.40 54.00
1541 113.8900 2942.00 2992.52 54.00
1542 113.9400 2879.00 2991.64 53.00
1543 113.9900 2926.00 2990.77 54.00
1544 114.0400 2995.00 2989.90 54.00
1545 114.0900 2968.00 2989.04 54.00
1546 114.1400 2927.00 2988.18 54.00
1547 114.1900 2909.00 2987.33 53.00
1548 114.2400 2937.00 2986.49 54.00
1549 114.2900 2964.00 2985.66 54.00
1550 114.3400 2940.00 2984.84 54.00
1551 114.3900 3007.00 2984.04 54.00
1552 114.4400 3053.00 2983.25 55.00
1553 114.4900 3023.00 2982.47 54.00
1554 114.5400 2936.00 2981.72 54.00
1555 114.5900 2947.00 2981.00 54.00
1556 114.6400 3005.00 2979.42 54.00
1557 114.6900 2963.00 2977.89 54.00
1558 114.7400 3025.00 2976.22 55.00
1559 114.7900 3049.00 2974.82 55.00
1560 114.8400 3006.00 2973.53 54.00
1561 114.8900 3005.00 2972.41 54.00
1562 114.9400 3045.00 2971.58 55.00
1563 114.9900 3001.00 2971.24 54.00
1564 115.0400 2999.00 2971.82 54.00
1565 115.0900 2996.00 2974.07 54.00
1566 115.1400 2995.00 2979.21 54.00
1567 115.1900 3002.00 2989.12 54.00
1568 115.2400 2958.00 3006.28 54.00
1569 115.2900 3139.00 3033.42 56.00
1570 115.3400 3123.00 3072.61 55.00
1571 115.3900 3096.00 3124.07 55.00
1572 115.4400 3222.00 3184.78 56.00
1573 115.4900 3220.00 3247.87 56.00
1574 115.5400 3355.00 3303.28 57.00
1575 115.5900 3296.00 3339.97 57.00
1576 115.6400 3367.00 3349.18 58.00
1577 115.6900 3379.00 3327.72 58.00
1578 115.7400 3301.00 3280.03 57.00
1579 115.7900 3287.00 3216.88 57.00
1580 115.8400 3200.00 3150.90 56.00
1581 115.8900 3151.00 3091.65 56.00
1582 115.9400 3174.00 3043.75 56.00
1583 115.9900 3065.00 3007.71 55.00
1584 116.0400 2986.00 2981.60 54.00
1585 116.0900 2904.00 2962.89 53.00
1586 116.1400 2940.00 2949.37 54.00
1587 116.1900 2958.00 2939.49 54.00
1588 116.2400 3022.00 2932.21 54.00
1589 116.2900 2902.00 2926.79 53.00
1590 116.3400 2885.00 2922.70 53.00
1591 116.3900 2874.00 2919.48 53.00
1592 116.4400 2846.00 2916.81 53.00
1593 116.4900 2943.00 2914.46 54.00
1594 116.5400 2912.00 2912.28 53.00
1595 116.5900 2928.00 2910.19 54.00
1596 116.6400 2955.00 2908.16 54.00
1597 116.6900 2930.00 2906.15 54.00
1598 116.7400 3002.00 2904.18 54.00
1599 116.7900 2886.00 2902.23 53.00
1600 116.8400 2838.00 2900.30 53.00
1601 116.8900 2864.00 2898.40 53.00
1602 116.9400 2829.00 2896.51 53.00
1603 116.9900 2859.00 2894.65 53.00
1604 117.0400 2945.00 2892.81 54.00
1605 117.0900 2914.00 2890.99 53.00
1606 117.1400 2939.00 2889.19 54.00
1607 117.1900 2952.00 2887.40 54.00
1608 117.2400 2933.00 2890.43 54.00
1609 117.2900 2967.00 2896.68 54.00
1610 117.3400 2940.00 2902.95 54.00
1611 117.3900 2904.00 2909.23 53.00
1612 117.4400 2927.00 2915.54 54.00
1613 117.4900 2902.00 2921.88 53.00
1614 117.5400 2835.00 2928.24 53.00
1615 117.5900 2863.00 2934.64 53.00
1616 117.6400 2884.00 2941.07 53.00
1617 117.6900 2989.00 2947.54 54.00
1618 117.7400 3066.00 2954.08 55.00
1619 117.7900 3026.00 2960.68 55.00
1620 117.8400 2969.00 2967.37 54.00
1621 117.8900 2901.00 2974.19 53.00
1622 117.9400 3045.00 2981.19 55.00
1623 117.9900 2986.00 2988.47 54.00
1624 118.0400 3082.00 2996.24 55.00
1625 118.0900 3121.00 3004.84 55.00
1626 118.1400 3091.00 3014.92 55.00
1627 118.1900 3070.00 3027.58 55.00
1628 118.2400 3104.00 3044.53 55.00
1629 118.2900 3099.00 3068.29 55.00
1630 118.3400 3233.00 3101.69 56.00
1631 118.3900 3225.00 3147.89 56.00
1632 118.4400 3239.00 3208.97 56.00
1633 118.4900 3387.00 3284.56 58.00
1634 118.5400 3452.00 3370.59 58.00
1635 118.5900 3451.00 3458.70 58.00
1636 118.6400 3669.00 3537.02 60.00
1637 118.6900 3619.00 3592.81 60.00
1638 118.7400 3601.00 3615.66 60.00
1639 118.7900 3627.00 3601.24 60.00
1640 118.8400 3551.00 3553.49 59.00
1641 118.8900 3481.00 3484.16 59.00
1642 118.9400 3394.00 3408.09 58.00
1643 118.9900 3304.00 3337.97 57.00
1644 119.0400 3210.00 3281.06 56.00
1645 119.0900 3266.00 3239.29 57.00
1646 119.1400 3216.00 3211.10 56.00
1647 119.1900 3171.00 3193.51 56.00
1648 119.2400 3167.00 3183.32 56.00
1649 119.2900 3282.00 3178.32 57.00
1650 124.0900 3467.00 3435.13 58.00
1651 124.1400 3415.00 3441.86 58.00
1652 124.1900 3348.00 3450.10 57.00
1653 124.2400 3451.00 3454.55 58.00
1654 124.2900 3447.00 3461.47 58.00
1655 124.3400 3565.00 3471.49 59.00
1656 124.3900 3593.00 3485.47 59.00
1657 124.4400 3470.00 3504.78 58.00
1658 124.4900 3559.00 3531.56 59.00
1659 124.5400 3534.00 3569.02 59.00
1660 124.5900 3595.00 3621.35 59.00
1661 124.6400 3568.00 3693.28 59.00
1662 124.6900 3756.00 3788.82 61.00
1663 124.7400 3975.00 3909.42 63.00
1664 124.7900 4149.00 4051.81 64.00
1665 124.8400 4373.00 4206.29 66.00
1666 124.8900 4474.00 4356.85 66.00
1667 124.9400 4510.00 4483.14 67.00
1668 124.9900 4571.00 4564.39 67.00
1669 125.0400 4712.00 4584.43 68.00
1670 125.0900 4497.00 4536.48 67.00
1671 125.1400 4381.00 4426.40 66.00
1672 125.1900 4181.00 4272.08 64.00
1673 125.2400 3991.00 4098.48 63.00
1674 125.2900 3772.00 3929.20 61.00
1675 125.3400 3776.00 3781.22 61.00
1676 125.3900 3722.00 3662.36 61.00
1677 125.4400 3635.00 3572.87 60.00
1678 125.4900 3545.00 3508.35 59.00
1679 125.5400 3463.00 3462.66 58.00
1680 125.5900 3486.00 3429.98 59.00
1681 125.6400 3409.00 3405.90 58.00
1682 125.6900 3445.00 3387.58 58.00
1683 125.7400 3360.00 3373.32 57.00
1684 125.7900 3429.00 3362.15 58.00
1685 125.8400 3347.00 3353.34 57.00
1686 125.8900 3342.00 3346.35 57.00
1687 125.9400 3431.00 3340.70 58.00
1688 125.9900 3452.00 3335.95 58.00
1689 126.0400 3426.00 3331.79 58.00
1690 126.0900 3308.00 3327.98 57.00
1691 126.1400 3345.00 3324.37 57.00
1692 126.1900 3244.00 3320.88 56.00
1693 126.2400 3274.00 3319.97 57.00
1694 126.2900 3401.00 3319.11 58.00
1695 126.3400 3369.00 3318.28 58.00
1696 126.3900 3387.00 3317.49 58.00
1697 126.4400 3336.00 3316.74 57.00
1698 126.4900 3395.00 3316.01 58.00
1699 126.5400 3485.00 3315.32 59.00
1700 126.5900 3404.00 3314.67 58.00
1701 126.6400 3339.00 3314.04 57.00
1702 126.6900 3365.00 3313.44 58.00
1703 126.7400 3341.00 3312.86 57.00
1704 126.7900 3351.00 3312.31 57.00
1705 126.8400 3436.00 3311.79 58.00
1706 126.8900 3394.00 3311.28 58.00
1707 126.9400 3363.00 3310.79 57.00
1708 126.9900 3381.00 3310.31 58.00
1709 127.0400 3378.00 3309.85 58.00
1710 127.0900 3562.00 3309.41 59.00
1711 127.1400 3510.00 3308.98 59.00
1712 127.1900 3319.00 3308.56 57.00
1713 127.2400 3395.00 3308.15 58.00
1714 127.2900 3360.00 3307.79 57.00
1715 127.3400 3338.00 3307.40 57.00
1716 127.3900 3480.00 3307.02 58.00
1717 127.4400 3491.00 3306.65 59.00
1718 127.4900 3360.00 3306.28 57.00
1719 127.5400 3412.00 3305.92 58.00
1720 127.5900 3337.00 3305.57 57.00
1721 127.6400 3395.00 3305.23 58.00
1722 127.6900 3442.00 3304.89 58.00
1723 127.7400 3370.00 3304.55 58.00
1724 127.7900 3420.00 3304.23 58.00
1725 127.8400 3370.00 3303.90 58.00
1726 127.8900 3356.00 3303.59 57.00
1727 127.9400 3351.00 3303.27 57.00
1728 127.9900 3324.00 3302.97 57.00
1729 128.0400 3291.00 3302.67 57.00
1730 128.0900 3193.00 3302.37 56.00
1731 128.1400 3180.00 3302.08 56.00
1732 128.1900 3238.00 3301.79 56.00
1733 128.2400 3249.00 3301.51 57.00
1734 128.2900 3315.00 3301.23 57.00
1735 128.3400 3186.00 3300.96 56.00
1736 128.3900 3170.00 3300.69 56.00
1737 128.4400 3193.00 3300.43 56.00
1738 128.4900 3243.00 3300.17 56.00
1739 128.5400 3204.00 3299.92 56.00
1740 128.5900 3209.00 3299.67 56.00
1741 128.6400 3232.00 3299.43 56.00
1742 128.6900 3222.00 3299.19 56.00
1743 128.7400 3161.00 3298.97 56.00
1744 128.7900 3268.00 3298.74 57.00
1745 128.8400 3274.00 3298.53 57.00
1746 128.8900 3271.00 3298.32 57.00
1747 128.9400 3239.00 3298.12 56.00
1748 128.9900 3242.00 3297.93 56.00
1749 129.0400 3187.00 3297.74 56.00
1750 129.0900 3179.00 3297.53 56.00
1751 129.1400 3271.00 3297.36 57.00
1752 129.1900 3296.00 3297.21 57.00
1753 129.2400 3200.00 3297.06 56.00
1754 129.2900 3239.00 3296.93 56.00
1755 129.3400 3240.00 3296.82 56.00
1756 129.3900 3381.00 3296.72 58.00
1757 129.4400 3289.00 3296.63 57.00
1758 129.4900 3325.00 3296.57 57.00
1759 129.5400 3261.00 3296.52 57.00
1760 129.5900 3321.00 3296.50 57.00
1761 129.6400 3253.00 3296.51 57.00
1762 129.6900 3248.00 3296.56 56.00
1763 129.7400 3309.00 3296.66 57.00
1764 129.7900 3263.00 3296.83 57.00
1765 129.8400 3215.00 3297.09 56.00
1766 129.8900 3297.00 3297.49 57.00
1767 129.9400 3256.00 3298.06 57.00
1768 129.9900 3290.00 3298.89 57.00
1769 130.0400 3331.00 3300.06 57.00
1770 130.0900 3276.00 3302.23 57.00
1771 130.1400 3367.00 3305.79 58.00
1772 130.1900 3382.00 3309.93 58.00
1773 130.2400 3337.00 3314.66 57.00
1774 130.2900 3264.00 3319.96 57.00
1775 130.3400 3273.00 3325.70 57.00
1776 130.3900 3299.00 3331.75 57.00
1777 130.4400 3285.00 3337.94 57.00
1778 130.4900 3200.00 3344.24 56.00
1779 130.5400 3328.00 3350.80 57.00
1780 130.5900 3361.00 3358.17 57.00
1781 130.6400 3368.00 3367.44 58.00
1782 130.6900 3367.00 3380.36 58.00
1783 130.7400 3332.00 3399.53 57.00
1784 130.7900 3422.00 3428.26 58.00
1785 130.8400 3392.00 3470.43 58.00
1786 130.8900 3498.00 3530.03 59.00
1787 130.9400 3458.00 3610.44 58.00
1788 130.9900 3608.00 3713.94 60.00
1789 131.0400 3754.00 3839.87 61.00
1790 131.0900 3875.00 3984.28 62.00
1791 131.1400 4074.00 4138.97 63.00
1792 131.1900 4274.00 4291.91 65.00
1793 131.2400 4552.00 4428.38 67.00
1794 131.2900 4589.00 4532.70 67.00
1795 131.3400 4719.00 4591.37 68.00
1796 131.3900 4555.00 4595.63 67.00
1797 131.4400 4423.00 4543.96 66.00
1798 131.4900 4210.00 4443.27 65.00
1799 131.5400 4079.00 4308.03 64.00
1800 131.5900 3954.00 4157.02 63.00
1801 131.6400 3894.00 4008.73 63.00
1802 131.6900 3837.00 3877.14 62.00
1803 131.7400 3771.00 3770.02 62.00
1804 131.7900 3682.00 3689.08 61.00
1805 131.8400 3497.00 3631.65 60.00
1806 131.8900 3552.00 3592.76 60.00
1807 131.9400 3595.00 3567.31 61.00
1808 131.9900 3583.00 3551.68 61.00
1809 132.0400 3506.00 3544.56 60.00
1810 132.0900 3624.00 3547.13 61.00
1811 132.1400 3597.00 3562.47 61.00
1812 132.1900 3585.00 3594.67 61.00
1813 132.2400 3653.00 3647.80 62.00
1814 132.2900 3661.00 3724.85 62.00
1815 132.3400 3683.00 3826.63 62.00
1816 132.3900 3886.00 3951.03 64.00
1817 132.4400 3980.00 4092.16 65.00
1818 132.4900 4214.00 4240.51 67.00
1819 132.5400 4365.00 4383.23 69.00
1820 132.5900 4507.00 4505.45 70.00
1821 132.6400 4752.00 4592.61 72.00
1822 132.6900 4720.00 4632.58 72.00
1823 132.7400 4699.00 4618.31 72.00
1824 132.7900 4431.00 4549.66 70.00
1825 132.8400 4243.00 4434.21 68.00
1826 132.8900 4232.00 4286.17 68.00
1827 132.9400 3848.00 4123.54 65.00
1828 132.9900 3775.00 3963.53 65.00
1829 133.0400 3760.00 3819.75 65.00
1830 133.0900 3692.00 3700.08 64.00
1831 133.1400 3566.00 3607.14 63.00
1832 133.1900 3516.00 3539.19 63.00
1833 133.2400 3594.00 3491.97 64.00
1834 133.2900 3532.00 3460.35 63.00
1835 133.3400 3494.00 3439.45 63.00
1836 133.3900 3316.00 3425.38 62.00
1837 133.4400 3403.00 3415.46 63.00
1838 133.4900 3396.00 3408.07 63.00
1839 133.5400 3350.00 3402.36 62.00
1840 133.5900 3325.00 3397.95 62.00
1841 133.6400 3367.00 3394.66 63.00
1842 133.6900 3379.00 3392.33 63.00
1843 133.7400 3355.00 3390.83 63.00
1844 133.7900 3479.00 3390.00 64.00
1845 133.8400 3478.00 3389.68 64.00
1846 133.8900 3397.00 3389.72 64.00
1847 133.9400 3424.00 3390.00 64.00
1848 133.9900 3409.00 3390.44 64.00
1849 134.0400 3395.00 3390.96 64.00
1850 134.0900 3447.00 3391.55 65.00
1851 134.1400 3384.00 3392.17 64.00
1852 134.1900 3334.00 3392.82 64.00
1853 134.2400 3481.00 3393.26 65.00
1854 134.2900 3492.00 3392.81 66.00
1855 134.3400 3386.00 3392.38 65.00
1856 134.3900 3423.00 3391.97 65.00
1857 134.4400 3372.00 3391.59 65.00
1858 134.4900 3526.00 3391.24 66.00
1859 134.5400 3486.00 3390.92 66.00
1860 134.5900 3381.00 3390.62 65.00
1861 134.6400 3363.00 3390.34 65.00
1862 134.6900 3401.00 3390.09 66.00
1863 134.7400 3341.00 3389.87 65.00
1864 134.7900 3368.00 3389.67 66.00
1865 134.8400 3317.00 3389.50 65.00
1866 134.8900 3279.00 3389.36 65.00
1867 134.9400 3408.00 3389.24 67.00
1868 134.9900 3433.00 3389.17 67.00
1869 140.5900 3442.00 3388.14 84.00
1870 140.6400 3409.00 3388.26 84.00
1871 140.6900 3405.00 3388.42 84.00
1872 140.7400 3377.00 3388.63 83.00
1873 140.7900 3350.00 3388.09 83.00
1874 140.8400 3425.00 3387.42 84.00
1875 140.8900 3508.00 3386.80 86.00
1876 140.9400 3442.00 3386.26 85.00
1877 140.9900 3455.00 3385.77 85.00
1878 141.0400 3345.00 3385.32 84.00
1879 141.0900 3302.00 3384.89 84.00
1880 141.1400 3311.00 3384.46 84.00
1881 141.1900 3257.00 3384.00 83.00
1882 141.2400 3385.00 3383.46 85.00
1883 141.2900 3346.00 3382.82 85.00
1884 141.3400 3445.00 3382.05 86.00
1885 141.3900 3404.00 3381.13 86.00
1886 141.4400 3440.00 3380.05 87.00
1887 141.4900 3479.00 3378.83 87.00
1888 141.5400 3358.00 3377.49 86.00
1889 141.5900 3409.00 3376.07 87.00
1890 141.6400 3460.00 3374.61 88.00
1891 141.6900 3338.00 3373.16 86.00
1892 141.7400 3442.00 3371.76 88.00
1893 141.7900 3411.00 3370.45 88.00
1894 141.8400 3434.00 3369.25 88.00
1895 141.8900 3307.00 3368.18 87.00
1896 141.9400 3461.00 3367.25 89.00
1897 141.9900 3335.00 3366.46 87.00
1898 142.0400 3461.00 3365.84 89.00
1899 142.0900 3459.00 3365.40 89.00
1900 142.1400 3406.00 3365.17 89.00
1901 142.1900 3360.00 3365.22 88.00
1902 142.2400 3255.00 3366.08 87.00
1903 142.2900 3269.00 3369.25 88.00
1904 142.3400 3382.00 3373.07 89.00
1905 142.3900 3370.00 3377.76 89.00
1906 142.4400 3423.00 3383.59 90.00
1907 142.4900 3390.00 3390.88 90.00
1908 142.5400 3329.00 3399.97 89.00
1909 142.5900 3441.00 3411.24 91.00
1910 142.6400 3407.00 3425.03 91.00
1911 142.6900 3467.00 3441.63 92.00
1912 142.7400 3336.00 3461.20 90.00
1913 142.7900 3485.00 3483.73 92.00
1914 142.8400 3473.00 3508.96 92.00
1915 142.8900 3547.00 3536.32 94.00
1916 142.9400 3563.00 3564.94 94.00
1917 142.9900 3629.00 3593.69 95.00
1918 143.0400 3646.00 3621.11 95.00
1919 143.0900 3602.00 3645.64 95.00
1920 143.1400 3459.00 3665.65 93.00
1921 143.1900 3751.00 3679.67 97.00
1922 143.2400 3775.00 3686.52 98.00
1923 143.2900 3799.00 3685.48 98.00
1924 143.3400 3754.00 3676.38 98.00
1925 143.3900 3698.00 3659.76 98.00
1926 143.4400 3649.00 3636.77 97.00
1927 143.4900 3555.00 3609.15 96.00
1928 143.5400 3558.00 3578.97 96.00
1929 143.5900 3675.00 3548.41 98.00
1930 143.6400 3656.00 3519.49 98.00
1931 143.6900 3672.00 3493.86 98.00
1932 143.7400 3391.00 3472.67 95.00
1933 143.7900 3456.00 3456.60 96.00
1934 143.8400 3420.00 3445.90 96.00
1935 143.8900 3564.00 3440.47 98.00
1936 143.9400 3470.00 3439.97 97.00
1937 143.9900 3456.00 3443.96 97.00
1938 144.0400 3384.00 3451.98 96.00
1939 144.0900 3554.00 3463.58 99.00
1940 144.1400 3487.00 3478.33 98.00
1941 144.1900 3506.00 3495.85 98.00
1942 144.2400 3484.00 3515.72 98.00
1943 144.2900 3516.00 3537.46 99.00
1944 144.3400 3533.00 3560.45 99.00
1945 144.3900 3565.00 3583.91 100.00
1946 144.4400 3791.00 3606.90 103.00
1947 144.4900 3636.00 3628.34 101.00
1948 144.5400 3583.00 3647.07 101.00
1949 144.5900 3662.00 3661.93 102.00
1950 144.6400 3726.00 3671.90 103.00
1951 144.6900 3625.00 3676.15 102.00
1952 144.7400 3613.00 3674.12 102.00
1953 144.7900 3632.00 3665.94 103.00
1954 144.8400 3537.00 3651.92 102.00
1955 144.8900 3624.00 3632.93 103.00
1956 144.9400 3435.00 3610.24 101.00
1957 144.9900 3520.00 3585.34 102.00
1958 145.0400 3614.00 3559.85 104.00
1959 145.0900 3548.00 3535.24 103.00
1960 145.1400 3523.00 3512.73 103.00
1961 145.1900 3417.00 3493.21 101.00
1962 145.2400 3496.00 3477.15 103.00
1963 145.2900 3568.00 3464.70 104.00
1964 145.3400 3503.00 3455.70 103.00
1965 145.3900 3513.00 3449.77 104.00
1966 145.4400 3521.00 3446.40 104.00
1967 145.4900 3511.00 3445.04 104.00
1968 145.5400 3499.00 3445.14 104.00
1969 145.5900 3450.00 3446.21 104.00
1970 145.6400 3456.00 3447.86 104.00
1971 145.6900 3500.00 3449.80 105.00
1972 145.7400 3466.00 3451.84 105.00
1973 145.7900 3362.00 3453.85 103.00
1974 145.8400 3459.00 3455.80 105.00
1975 145.8900 3469.00 3457.68 105.00
1976 145.9400 3503.00 3459.50 106.00
1977 145.9900 3488.00 3461.28 106.00
1978 146.0400 3449.00 3462.88 106.00
1979 146.0900 3473.00 3464.24 106.00
1980 146.1400 3338.00 3465.60 104.00
1981 146.1900 3480.00 3466.94 107.00
1982 146.2400 3538.00 3468.26 108.00
1983 146.2900 3497.00 3469.52 108.00
1984 146.3400 3536.00 3470.69 109.00
1985 146.3900 3666.00 3471.75 111.00
1986 146.4400 3581.00 3472.68 110.00
1987 146.4900 3503.00 3473.37 109.00
1988 146.5400 3478.00 3473.99 109.00
1989 146.5900 3531.00 3474.46 110.00
1990 146.6400 3622.00 3474.80 111.00
1991 146.6900 3479.00 3475.04 109.00
1992 146.7400 3534.00 3475.20 110.00
1993 146.7900 3677.00 3475.33 113.00
1994 146.8400 3476.00 3475.46 110.00
1995 146.8900 3540.00 3475.64 111.00
1996 146.9400 3511.00 3475.88 111.00
1997 146.9900 3480.00 3476.21 111.00
1998 147.0400 3554.00 3476.62 112.00
1999 147.0900 3595.00 3477.14 113.00
2000 147.1400 3435.00 3477.75 111.00
2001 147.1900 3506.00 3478.43 112.00
2002 147.2400 3554.00 3479.19 113.00
2003 147.2900 3574.00 3479.99 114.00
2004 147.3400 3445.00 3480.84 112.00
2005 147.3900 3611.00 3481.72 115.00
2006 147.4400 3477.00 3482.61 113.00
2007 147.4900 3524.00 3483.51 114.00
2008 147.5400 3513.00 3484.42 114.00
2009 147.5900 3594.00 3485.33 116.00
2010 147.6400 3527.00 3486.23 115.00
2011 147.6900 3481.00 3487.13 115.00
2012 147.7400 3494.00 3488.03 115.00
2013 147.7900 3517.00 3488.92 116.00
2014 147.8400 3521.00 3489.82 116.00
2015 147.8900 3580.00 3490.71 117.00
2016 147.9400 3433.00 3491.61 115.00
2017 147.9900 3527.00 3492.51 117.00
2018 148.0400 3598.00 3493.40 118.00
2019 148.0900 3610.00 3494.30 119.00
2020 148.1400 3729.00 3495.20 121.00
2021 148.1900 3548.00 3496.11 118.00
2022 148.2400 3508.00 3497.01 118.00
2023 148.2900 3525.00 3497.92 119.00
2024 148.3400 3460.00 3498.82 118.00
2025 148.3900 3418.00 3499.73 117.00
2026 148.4400 3496.00 3500.64 119.00
2027 148.4900 3333.00 3501.55 116.00
2028 148.5400 3440.00 3502.46 118.00
2029 148.5900 3452.00 3503.38 119.00
2030 148.6400 3445.00 3504.29 119.00
2031 148.6900 3485.00 3505.21 120.00
2032 148.7400 3533.00 3506.13 121.00
2033 148.7900 3463.00 3507.04 120.00
2034 148.8400 3433.00 3507.96 120.00
2035 148.8900 3423.00 3508.89 120.00
2036 148.9400 3528.00 3509.81 122.00
2037 148.9900 3486.00 3510.73 122.00
2038 149.0400 3385.00 3511.66 120.00
2039 149.0900 3573.00 3512.58 124.00
2040 149.1400 3504.00 3513.51 123.00
2041 149.1900 3429.00 3514.44 122.00
2042 149.2400 3515.00 3515.37 124.00
2043 149.2900 3385.00 3516.30 122.00
2044 149.3400 3450.00 3517.24 123.00
2045 149.3900 3440.00 3518.17 123.00
2046 149.4400 3416.00 3519.11 123.00
2047 149.4900 3504.00 3520.05 125.00
2048 149.5400 3632.00 3520.99 128.00
2049 149.5900 3572.00 3521.93 127.00
2050 149.6400 3528.00 3522.88 126.00
2051 149.6900 3501.00 3523.82 126.00
2052 149.7400 3444.00 3524.77 126.00
2053 149.7900 3339.00 3525.72 124.00
2054 149.8400 3411.00 3526.67 126.00
2055 149.8900 3483.00 3527.63 127.00
2056 149.9400 3607.00 3528.59 130.00
2057 149.9900 3554.00 3529.55 129.00
2058 150.0400 3563.00 3530.51 130.00
2059 150.0900 3680.00 3531.48 132.00
2060 150.1400 3552.00 3532.45 130.00
2061 150.1900 3568.00 3533.43 131.00
2062 150.2400 3478.00 3534.41 129.00
2063 150.2900 3660.00 3535.40 133.00
2064 150.3400 3532.00 3536.39 131.00
2065 150.3900 3605.00 3537.39 133.00
2066 150.4400 3659.00 3538.39 134.00
2067 150.4900 3465.00 3539.41 131.00
2068 150.5400 3489.00 3540.44 131.00
2069 150.5900 3589.00 3541.48 134.00
2070 150.6400 3492.00 3542.54 132.00
2071 150.6900 3599.00 3543.62 135.00
2072 150.7400 3583.00 3544.73 135.00
2073 150.7900 3556.00 3545.86 134.00
2074 150.8400 3490.00 3547.04 133.00
2075 150.8900 3360.00 3548.27 131.00
2076 150.9400 3435.00 3549.56 133.00
2077 150.9900 3402.00 3550.92 133.00
2078 151.0400 3458.00 3552.38 134.00
2079 151.0900 3521.00 3553.96 136.00
2080 151.1400 3703.00 3555.68 140.00
2081 151.1900 3678.00 3557.57 140.00
2082 151.2400 3498.00 3559.65 136.00
2083 151.2900 3631.00 3561.97 139.00
2084 151.3400 3569.00 3564.55 138.00
2085 151.3900 3590.00 3567.43 139.00
2086 151.4400 3602.00 3570.64 140.00
2087 151.4900 3564.00 3574.20 139.00
2088 151.5400 3673.00 3578.14 142.00
2089 151.5900 3601.00 3582.46 141.00
2090 151.6400 3527.00 3587.16 140.00
2091 151.6900 3545.00 3592.22 141.00
loop_
_pd_proc_info_excluded_regions
'from 0.95 to 10.0: inclined inset'
'from 36 to 41.2: container and side-phase reflection'
'from 42.6 to 43.5: side-phase reflection'
'from 53.5 to 57.3: container reflection'
'from 66.8 to 72.7: container reflection'
'from 74.1 to 76.3: side-phase reflection'
'from 81 to 83.8: container reflection'
'from 93.3 to 96.4: container reflection'
'from 106.7 to 109.2: container and side-phase reflection'
'from 119.3 to 124.0: container reflection'
'from 135 to 140.5: container reflection'
'from 151.7 to 152.05: tailing'
loop_
_refln_index_h
_refln_index_k
_refln_index_l
_refln_F_squared_calc
_refln_F_squared_meas
_refln_include_status
_refln_d_spacing
0 0 3 10.48 9.02 o 6.203012
0 0 6 884.67 887.58 o 3.101506
1 0 1 34.38 36.18 o 3.017724
1 -1 2 895.41 889.32 o 2.905297
1 0 4 3.82 3.51 < 2.555504
0 0 9 104.41 92.09 o 2.067671
1 0 7 1.66 0.94 < 2.006352
1 -1 8 1.59 0.44 < 1.851424
2 -1 0 8.37 11.12 o 1.765654
1 0 10 554.71 554.71 o 1.589722
0 0 12 0.01 0.00 < 1.550753
2 -1 6 572.49 575.87 o 1.534429
2 -2 1 30.72 32.51 o 1.523965
2 0 2 577.99 585.56 o 1.508862
1 -1 11 0.07 0.13 < 1.480330
2 -2 4 7.57 7.32 < 1.452648
2 0 5 59.10 60.61 o 1.414382
1 0 13 112.63 110.29 o 1.296469
0 0 15 1.23 1.67 < 1.240602
1 -1 14 350.64 332.70 o 1.219049
3 -1 1 25.89 27.85 o 1.153669
3 -2 2 386.76 374.37 o 1.147075
2 0 11 0.19 0.18 < 1.134388
3 -1 4 11.74 8.05 o 1.121786
3 -2 5 42.65 38.30 o 1.103880
1 0 16 0.13 0.31 < 1.087102
3 -2 8 5.91 6.14 o 1.035135
0 0 18 216.80 224.12 o 1.033835
1 -1 17 101.42 100.32 o 1.030617
3 0 0 13.33 10.62 < 1.019401
2 -1 15 0.49 0.21 < 1.015085
3 -3 3 8.06 8.46 o 1.005908
3 0 3 10.12 10.62 o 1.005908
2 0 14 220.58 218.04 o 1.003176
3 -1 10 234.84 232.23 o 0.981892
3 -3 6 261.76 291.19 o 0.968432
3 0 6 241.99 269.20 o 0.968432
1 0 19 1.09 0.46 < 0.932755
2 -2 16 0.00 0.00 < 0.925712
3 -3 9 43.28 45.83 o 0.914319
3 0 9 54.44 57.65 o 0.914319
3 -1 13 66.90 69.59 o 0.899305
4 -2 3 6.91 7.22 o 0.874020
3 -2 14 157.18 157.11 o 0.872226
3 -3 12 1.89 1.46 o 0.851835
3 0 12 4.98 3.85 o 0.851835
4 -2 6 170.10 155.57 o 0.849099
4 -3 1 14.35 12.72 o 0.847313
4 -1 2 172.43 161.52 o 0.844690
3 -1 16 0.78 1.19 < 0.819863
1 0 22 87.33 85.73 o 0.815256
4 -2 9 35.56 29.55 o 0.811917
4 -3 7 0.99 1.90 < 0.808060
#BEGIN Loops that were not found in dictionaries:
loop_
_jana_atom_site_adp_c_label
_jana_atom_site_adp_c_type_symbol
_jana_atom_site_adp_c_111
_jana_atom_site_adp_c_112
_jana_atom_site_adp_c_113
_jana_atom_site_adp_c_122
_jana_atom_site_adp_c_123
_jana_atom_site_adp_c_133
_jana_atom_site_adp_c_222
_jana_atom_site_adp_c_223
_jana_atom_site_adp_c_233
_jana_atom_site_adp_c_333
Li1 Li 0 0 0 0 0 0 0 0 0 0
loop_
_jana_atom_site_adp_d_label
_jana_atom_site_adp_d_type_symbol
_jana_atom_site_adp_d_1111
_jana_atom_site_adp_d_1112
_jana_atom_site_adp_d_1113
_jana_atom_site_adp_d_1122
_jana_atom_site_adp_d_1123
_jana_atom_site_adp_d_1133
_jana_atom_site_adp_d_1222
_jana_atom_site_adp_d_1223
_jana_atom_site_adp_d_1233
_jana_atom_site_adp_d_1333
_jana_atom_site_adp_d_2222
_jana_atom_site_adp_d_2223
_jana_atom_site_adp_d_2233
_jana_atom_site_adp_d_2333
_jana_atom_site_adp_d_3333
Li1 Li 0 0 -0.06(2) 0 -0.032(10) 0 0 0.032(10) 0 0 0 0.06(2) 0 0 0
#END Loops that were not found in dictionaries
