#------------------------------------------------------------------------------
#$Date: 2016-02-13 21:28:24 +0200 (Sat, 13 Feb 2016) $
#$Revision: 176429 $
#$URL: svn://www.crystallography.net/cod/cif/1/51/96/1519662.cif $
#------------------------------------------------------------------------------
#
# This file is available in the Crystallography Open Database (COD),
# http://www.crystallography.net/
#
# All data on this site have been placed in the public domain by the
# contributors.
#
data_1519662
loop_
_publ_author_name
'Wiedemann, Dennis'
'Islam, Mazharul M.'
'Nakhal, Suliman'
'Senyshyn, Anatoliy'
'Bredow, Thomas'
'Lerch, Martin'
_publ_section_title
;
 Lithium Diffusion Pathways in 3R-LixTiS2: A Combined Neutron Diffraction
 and Computational Study
;
_journal_issue                   21
_journal_name_full               'The Journal of Physical Chemistry C'
_journal_page_first              11370
_journal_paper_doi               10.1021/acs.jpcc.5b01166
_journal_volume                  119
_journal_year                    2015
_chemical_compound_source        synthetic
_chemical_formula_iupac          'Li0.70 Ti S2 (hR3.7)'
_chemical_formula_sum            'Li0.7 S2 Ti'
_chemical_formula_weight         116.9
_chemical_name_systematic
' lithium titanium disulfide (lithium deficient)'
_space_group_IT_number           166
_symmetry_cell_setting           trigonal
_symmetry_Int_Tables_number      166
_symmetry_space_group_name_Hall  '-R 3 2"'
_symmetry_space_group_name_H-M   'R -3 m :H'
_atom_sites_solution_hydrogens   notdet
_atom_sites_solution_primary     other
_atom_sites_solution_secondary   notdet
_cell_angle_alpha                90
_cell_angle_beta                 90
_cell_angle_gamma                120
_cell_formula_units_Z            3
_cell_length_a                   3.49902(7)
_cell_length_b                   3.49902(7)
_cell_length_c                   18.6498(6)
_cell_measurement_temperature    873
_cell_volume                     197.741(8)
_computing_cell_refinement       'JANA2006 (Pet\<r\'i\<cek, 2014)'
_computing_data_collection       'CARESS (HZB, 2013)'
_computing_data_reduction        'DATAPARSER (Senyshyn, 2011)'
_computing_molecular_graphics    'Diamond (Brandenburg, 2013)'
_computing_publication_material  'JANA2006 (Pet\<r\'i\<cek, 2014)'
_computing_structure_refinement  'JANA2006 (Pet\<r\'i\<cek, 2014)'
_computing_structure_solution    'ICSD (Bergerhoff, 1987)'
_diffrn_ambient_environment      vacuum
_diffrn_ambient_temperature      873
_diffrn_detector                 '^3^He counter'
_diffrn_detector_details
; curved position-sensitive detector-array of 80 counter tubes, height: 300 mm,
resolution: 3 mm (B. Krimmer, R. Gilles, K. Zeitelhack, R. Schneider,
G. Montermann, H. Boysen, H. Fuess, Appl. Phys. A: Mater. Sci. Process.
2002, 74, S154-S156)
;
_diffrn_measurement_device       'one-circle powder diffractometer'
_diffrn_measurement_device_details
; M. Hoelzel, A. Senyshyn, N. Juenke, H. Boysen, W. Schmahl, H. Fuess,
Nucl. Instrum. Methods Phys. Res., Sect. A 2012, 667, 32-37
;
_diffrn_measurement_device_type  SPODI
_diffrn_measurement_method       'profile data from \q/2\q scans'
_diffrn_radiation_monochromator  'Ge 551'
_diffrn_radiation_probe          neutron
_diffrn_radiation_type           neutron
_diffrn_radiation_wavelength     1.54829
_diffrn_source                   'nuclear reactor'
_diffrn_source_type              'FRM II beamline 8a'
_exptl_absorpt_coefficient_mu    0.074
_exptl_absorpt_correction_type   cylinder
_exptl_absorpt_process_details
; correction for a cylindrical sample with \mR = 0.177 as
implemented in JANA2006
;
_exptl_crystal_density_diffrn    2.944
_exptl_crystal_density_method    'not measured'
_exptl_crystal_F_000             3.0
_pd_char_atten_coef_mu_calc      0.048
_pd_char_colour                  black
_pd_instr_2theta_monochr_pre     155
_pd_instr_beam_size_ax           100
_pd_instr_beam_size_eq           25
_pd_instr_dist_mono/spec         5000
_pd_instr_dist_spec/detc         1120
_pd_instr_dist_src/mono          17500
_pd_instr_geometry               Debye-Scherrer
_pd_instr_location
; SPODI diffractometer, Heinz Maier-Leibnitz Zentrum,
Garching b. M\"unchen (Germany)
;
_pd_instr_monochr_pre_spec       'Ge 551'
_pd_instr_soller_eq_spec/detc    0.16667
_pd_meas_2theta_range_inc        0.05
_pd_meas_2theta_range_max        151.900
_pd_meas_2theta_range_min        0.950
_pd_meas_number_of_points        3020
_pd_meas_scan_method             step
_pd_proc_2theta_range_inc        0.05
_pd_proc_2theta_range_max        151.7
_pd_proc_2theta_range_min        10.05
_pd_proc_info_data_reduction
; efficiency/intensity correction and 2\q scattering-angle correction for each
detector-collimator pair, geometrical data correction with Lorentz factor,
variable integration height to obtain 1D data:
H~L~=(R^2^*sin(4\q))/(H~S~*cos^2^(2\q))*\D2\q+H~S~/2
with H~L~: limiting height, H~S~: sample height, R: detector radius
(M. Hoelzel, A. Senyshyn, N. Juenke, H. Boysen, W. Schmahl, H. Fuess,
Nucl. Instrum. Methods Phys. Res., Sect. A 2012, 667, 32-37)
;
_pd_proc_ls_background_function
; manual background (visual estimation, unrefined) interpolated by five
Legendre polynomials (1st: 9(2), 2nd: -9(4), 3rd: 5(5), 4th: 8(5),
5th: -3(6))
;
_pd_proc_ls_pref_orient_corr
' March-Dollase model for (001): r = 1.058(3)'
_pd_proc_ls_profile_function
; pseudo-Voigt profile with Thompson-Cox-Hastings approach:
G~U~ = 160(3), G~V~ = -204, G~W~ = 255(3), L~X~ = 2.8(2), L~Y~ = 0,
B\'erar-Baldinozzi asymmetry correction:
A~0~ = 0.298(6), A~1~ = -0.606
;
_pd_proc_ls_prof_R_factor        0.0212
_pd_proc_ls_prof_wR_expected     0.0225
_pd_proc_ls_prof_wR_factor       0.0263
_pd_spec_mounting                'compacted powder in niobium can'
_pd_spec_mount_mode              transmission
_pd_spec_orientation             vertical
_pd_spec_shape                   cylinder
_pd_spec_size_axial              40
_pd_spec_size_equat              7.5
_refine_diff_density_max         0.19
_refine_diff_density_min         -0.10
_refine_ls_extinction_method     none
_refine_ls_goodness_of_fit_all   1.17
_refine_ls_hydrogen_treatment    undef
_refine_ls_number_constraints    0
_refine_ls_number_parameters     23
_refine_ls_number_restraints     0
_refine_ls_R_factor_all          0.0423
_refine_ls_R_factor_gt           0.0260
_refine_ls_R_I_factor            0.0277
_refine_ls_shift/su_max          0.0029
_refine_ls_shift/su_mean         0.0010
_refine_ls_weighting_details     w=1/[\s^2^(F~o~)+(0.01F~o~)^2^]
_refine_ls_weighting_scheme      sigma
_refine_ls_wR_factor_all         0.0281
_refine_ls_wR_factor_gt          0.0261
_reflns_threshold_expression     I>3\s(I)
_cod_data_source_file            jp5b01166_si_002.cif
_cod_data_source_block           0.7-600C
_cod_depositor_comments
'Adding full bibliography for 1519661--1519664.cif.'
_cod_original_cell_volume        197.741(12)
_cod_original_sg_symbol_H-M      'R -3 m'
_cod_original_formula_sum        'Li0.70 S2 Ti1'
_cod_database_code               1519662
loop_
_space_group_symop_id
_space_group_symop_operation_xyz
1 x,y,z
2 -y,x-y,z
3 -x+y,-x,z
4 y,x,-z
5 x-y,-y,-z
6 -x,-x+y,-z
7 -x,-y,-z
8 y,-x+y,-z
9 x-y,x,-z
10 -y,-x,z
11 -x+y,y,z
12 x,x-y,z
13 x+2/3,y+1/3,z+1/3
14 -y+2/3,x-y+1/3,z+1/3
15 -x+y+2/3,-x+1/3,z+1/3
16 y+2/3,x+1/3,-z+1/3
17 x-y+2/3,-y+1/3,-z+1/3
18 -x+2/3,-x+y+1/3,-z+1/3
19 -x+2/3,-y+1/3,-z+1/3
20 y+2/3,-x+y+1/3,-z+1/3
21 x-y+2/3,x+1/3,-z+1/3
22 -y+2/3,-x+1/3,z+1/3
23 -x+y+2/3,y+1/3,z+1/3
24 x+2/3,x-y+1/3,z+1/3
25 x+1/3,y+2/3,z+2/3
26 -y+1/3,x-y+2/3,z+2/3
27 -x+y+1/3,-x+2/3,z+2/3
28 y+1/3,x+2/3,-z+2/3
29 x-y+1/3,-y+2/3,-z+2/3
30 -x+1/3,-x+y+2/3,-z+2/3
31 -x+1/3,-y+2/3,-z+2/3
32 y+1/3,-x+y+2/3,-z+2/3
33 x-y+1/3,x+2/3,-z+2/3
34 -y+1/3,-x+2/3,z+2/3
35 -x+y+1/3,y+2/3,z+2/3
36 x+1/3,x-y+2/3,z+2/3
loop_
_atom_site_label
_atom_site_type_symbol
_atom_site_fract_x
_atom_site_fract_y
_atom_site_fract_z
_atom_site_adp_type
_atom_site_U_iso_or_equiv
_atom_site_site_symmetry_multiplicity
_atom_site_occupancy
_atom_site_calc_flag
Li1 Li 0 0 0.5 Uani 0.139(7) 3 0.7 d
Ti1 Ti 0 0 0 Uani 0.0324(11) 3 1 d
S1 S 0 0 0.2571(2) Uani 0.0315(10) 6 1 d
loop_
_atom_site_aniso_label
_atom_site_aniso_type_symbol
_atom_site_aniso_U_11
_atom_site_aniso_U_22
_atom_site_aniso_U_33
_atom_site_aniso_U_12
_atom_site_aniso_U_13
_atom_site_aniso_U_23
Li1 Li 0.172(10) 0.172(10) 0.074(11) 0.086(5) 0 0
Ti1 Ti 0.0308(7) 0.0308(7) 0.036(3) 0.0154(4) 0 0
S1 S 0.0249(6) 0.0249(6) 0.045(3) 0.0125(3) 0 0
loop_
_atom_type_symbol
_atom_type_scat_length_neutron
_atom_type_scat_source
Li -1.900 International_Tables_Vol_C
S 2.847 International_Tables_Vol_C
Ti -3.438 International_Tables_Vol_C
loop_
_geom_angle_atom_site_label_1
_geom_angle_atom_site_label_2
_geom_angle_atom_site_label_3
_geom_angle_site_symmetry_1
_geom_angle_site_symmetry_3
_geom_angle
S1 Li1 S1 13_445 13_455 83.35(7)
S1 Li1 S1 13_445 13_555 83.35(7)
S1 Li1 S1 13_445 28_445 96.65(7)
S1 Li1 S1 13_445 28_545 96.65(7)
S1 Li1 S1 13_445 28_555 180.0(5)
S1 Li1 S1 13_455 13_555 83.35(7)
S1 Li1 S1 13_455 28_445 96.65(7)
S1 Li1 S1 13_455 28_545 180.0(5)
S1 Li1 S1 13_455 28_555 96.65(7)
S1 Li1 S1 13_555 28_445 180.0(5)
S1 Li1 S1 13_555 28_545 96.65(7)
S1 Li1 S1 13_555 28_555 96.65(7)
S1 Li1 S1 28_445 28_545 83.35(7)
S1 Li1 S1 28_445 28_555 83.35(7)
S1 Li1 S1 28_545 28_555 83.35(7)
S1 Ti1 S1 25_444 25_544 90.16(7)
S1 Ti1 S1 25_444 25_554 90.16(7)
S1 Ti1 S1 25_444 16_445 89.84(7)
S1 Ti1 S1 25_444 16_455 89.84(7)
S1 Ti1 S1 25_444 16_555 180.0(5)
S1 Ti1 S1 25_544 25_554 90.16(7)
S1 Ti1 S1 25_544 16_445 89.84(7)
S1 Ti1 S1 25_544 16_455 180.0(5)
S1 Ti1 S1 25_544 16_555 89.84(7)
S1 Ti1 S1 25_554 16_445 180.0(5)
S1 Ti1 S1 25_554 16_455 89.84(7)
S1 Ti1 S1 25_554 16_555 89.84(7)
S1 Ti1 S1 16_445 16_455 90.16(7)
S1 Ti1 S1 16_445 16_555 90.16(7)
S1 Ti1 S1 16_455 16_555 90.16(7)
loop_
_geom_bond_atom_site_label_1
_geom_bond_atom_site_label_2
_geom_bond_site_symmetry_2
_geom_bond_distance
Li1 S1 13_445 2.631(2)
Li1 S1 13_455 2.631(2)
Li1 S1 13_555 2.631(2)
Li1 S1 28_445 2.631(2)
Li1 S1 28_545 2.631(2)
Li1 S1 28_555 2.631(2)
Ti1 S1 25_444 2.471(2)
Ti1 S1 25_544 2.471(2)
Ti1 S1 25_554 2.471(2)
Ti1 S1 16_445 2.471(2)
Ti1 S1 16_455 2.471(2)
Ti1 S1 16_555 2.471(2)
loop_
_pd_proc_point_id
_pd_proc_2theta_corrected
_pd_proc_intensity_net
_pd_calc_intensity_net
_pd_proc_ls_weight
1 10.0800 1984.00 2007.28 164.00
2 10.1300 2003.00 2005.20 164.00
3 10.1800 2073.00 2003.13 166.00
4 10.2300 2080.00 2001.05 166.00
5 10.2800 1951.00 1998.98 160.00
6 10.3300 2011.00 1996.90 162.00
7 10.3800 1860.00 1994.83 155.00
8 10.4300 2044.00 1992.76 162.00
9 10.4800 2031.00 1990.68 161.00
10 10.5300 2035.00 1988.61 161.00
11 10.5800 2061.00 1986.53 162.00
12 10.6300 2018.00 1984.46 159.00
13 10.6800 1881.00 1982.38 153.00
14 10.7300 1783.00 1980.31 149.00
15 10.7800 1899.00 1978.23 153.00
16 10.8300 1965.00 1976.16 155.00
17 10.8800 1840.00 1974.08 150.00
18 10.9300 1989.00 1972.01 155.00
19 10.9800 1937.00 1969.94 153.00
20 11.0300 1969.00 1967.86 154.00
21 11.0800 1940.00 1965.79 152.00
22 11.1300 1913.00 1963.71 150.00
23 11.1800 1976.00 1961.64 152.00
24 11.2300 1953.00 1959.57 151.00
25 11.2800 1903.00 1957.49 149.00
26 11.3300 1943.00 1955.42 150.00
27 11.3800 1973.00 1953.34 150.00
28 11.4300 1929.00 1951.27 148.00
29 11.4800 2084.00 1949.20 154.00
30 11.5300 1872.00 1947.13 145.00
31 11.5800 1857.00 1945.05 144.00
32 11.6300 1979.00 1942.98 148.00
33 11.6800 2012.00 1940.91 149.00
34 11.7300 1863.00 1938.84 143.00
35 11.7800 1845.00 1936.77 142.00
36 11.8300 1784.00 1934.70 139.00
37 11.8800 1775.00 1932.63 139.00
38 11.9300 1761.00 1930.56 138.00
39 11.9800 1942.00 1928.49 144.00
40 12.0300 1958.00 1926.42 144.00
41 12.0800 1801.00 1924.35 138.00
42 12.1300 1830.00 1922.28 139.00
43 12.1800 1917.00 1920.22 142.00
44 12.2300 1935.00 1918.15 142.00
45 12.2800 1995.00 1916.09 144.00
46 12.3300 1955.00 1914.03 142.00
47 12.3800 1941.00 1911.96 141.00
48 12.4300 2032.00 1909.90 144.00
49 12.4800 2026.00 1907.85 143.00
50 12.5300 1979.00 1905.79 141.00
51 12.5800 1869.00 1903.74 137.00
52 12.6300 1955.00 1901.68 139.00
53 12.6800 2093.00 1899.64 144.00
54 12.7300 1943.00 1897.59 138.00
55 12.7800 1840.00 1895.55 134.00
56 12.8300 1912.00 1893.51 136.00
57 12.8800 2054.00 1891.47 141.00
58 12.9300 1990.00 1889.45 138.00
59 12.9800 1916.00 1887.42 135.00
60 13.0300 1913.00 1885.41 135.00
61 13.0800 1931.00 1883.40 135.00
62 13.1300 1983.00 1881.40 136.00
63 13.1800 1942.00 1879.41 135.00
64 13.2300 1844.00 1877.44 131.00
65 13.2800 1765.00 1875.48 128.00
66 13.3300 1936.00 1873.54 133.00
67 13.3800 1921.00 1871.62 132.00
68 13.4300 1855.00 1869.73 130.00
69 13.4800 1920.00 1867.87 132.00
70 13.5300 1897.00 1866.05 131.00
71 13.5800 1841.00 1864.29 128.00
72 13.6300 1913.00 1862.63 130.00
73 13.6800 1852.00 1861.16 128.00
74 13.7300 1848.00 1860.15 127.00
75 13.7800 1780.00 1860.22 125.00
76 13.8300 1870.00 1862.76 128.00
77 13.8800 2009.00 1870.41 132.00
78 13.9300 1909.00 1887.48 128.00
79 13.9800 1924.00 1919.86 128.00
80 14.0300 2053.00 1973.76 132.00
81 14.0800 2094.00 2053.13 133.00
82 14.1300 2171.00 2156.02 135.00
83 14.1800 2284.00 2271.47 138.00
84 14.2300 2544.00 2378.93 146.00
85 14.2800 2395.00 2451.98 141.00
86 14.3300 2339.00 2467.92 139.00
87 14.3800 2483.00 2420.11 143.00
88 14.4300 2374.00 2322.22 139.00
89 14.4800 2233.00 2200.20 135.00
90 14.5300 2108.00 2080.59 131.00
91 14.5800 1879.00 1981.80 123.00
92 14.6300 1917.00 1910.89 124.00
93 14.6800 1890.00 1865.71 123.00
94 14.7300 1933.00 1839.54 124.00
95 14.7800 1937.00 1825.24 124.00
96 14.8300 1887.00 1817.38 122.00
97 14.8800 1752.00 1812.63 117.00
98 14.9300 1788.00 1809.25 118.00
99 14.9800 1717.00 1806.45 115.00
100 15.0300 1811.00 1803.89 118.00
101 15.0800 1807.00 1801.44 118.00
102 15.1300 1590.00 1799.07 110.00
103 15.1800 1729.00 1796.75 114.00
104 15.2300 1749.00 1794.46 115.00
105 15.2800 1782.00 1792.20 116.00
106 15.3300 1739.00 1789.96 114.00
107 15.3800 1800.00 1787.75 116.00
108 15.4300 1834.00 1785.55 116.00
109 15.4800 1611.00 1783.36 109.00
110 15.5300 1748.00 1781.19 113.00
111 15.5800 1753.00 1779.02 113.00
112 15.6300 1813.00 1776.86 115.00
113 15.6800 1885.00 1774.71 116.00
114 15.7300 1761.00 1772.57 112.00
115 15.7800 1717.00 1770.43 111.00
116 15.8300 1825.00 1768.29 114.00
117 15.8800 1780.00 1766.16 112.00
118 15.9300 1878.00 1764.04 115.00
119 15.9800 1631.00 1761.91 107.00
120 16.0300 1708.00 1759.79 109.00
121 16.0800 1787.00 1757.67 111.00
122 16.1300 1919.00 1755.56 115.00
123 16.1800 1764.00 1753.44 110.00
124 16.2300 1726.00 1751.33 109.00
125 16.2800 1714.00 1749.22 108.00
126 16.3300 1824.00 1747.11 111.00
127 16.3800 1701.00 1745.00 107.00
128 16.4300 1659.00 1742.89 105.00
129 16.4800 1674.00 1740.79 106.00
130 16.5300 1845.00 1738.68 111.00
131 16.5800 1778.00 1736.58 108.00
132 16.6300 1719.00 1734.47 106.00
133 16.6800 1781.00 1732.37 108.00
134 16.7300 1670.00 1730.27 104.00
135 16.7800 1796.00 1728.17 108.00
136 16.8300 1722.00 1726.06 105.00
137 16.8800 1645.00 1723.96 103.00
138 16.9300 1677.00 1721.86 103.00
139 16.9800 1750.00 1720.09 105.00
140 17.0300 1745.00 1718.81 105.00
141 17.0800 1698.00 1717.53 103.00
142 17.1300 1758.00 1716.26 105.00
143 17.1800 1773.00 1714.98 105.00
144 17.2300 1774.00 1713.70 105.00
145 17.2800 1767.00 1712.42 104.00
146 17.3300 1693.00 1711.15 102.00
147 17.3800 1757.00 1709.87 104.00
148 17.4300 1745.00 1708.59 103.00
149 17.4800 1855.00 1707.31 106.00
150 17.5300 1751.00 1706.04 103.00
151 17.5800 1673.00 1704.76 100.00
152 17.6300 1742.00 1703.48 102.00
153 17.6800 1726.00 1702.21 101.00
154 17.7300 1678.00 1700.93 100.00
155 17.7800 1824.00 1699.66 104.00
156 17.8300 1771.00 1698.38 102.00
157 17.8800 1687.00 1697.10 99.00
158 17.9300 1645.00 1695.83 98.00
159 17.9800 1541.00 1694.55 94.00
160 18.0300 1596.00 1693.27 96.00
161 18.0800 1709.00 1692.00 99.00
162 18.1300 1679.00 1690.72 98.00
163 18.1800 1693.00 1689.45 98.00
164 18.2300 1645.00 1688.17 96.00
165 18.2800 1650.00 1686.89 96.00
166 18.3300 1750.00 1685.62 99.00
167 18.3800 1665.00 1684.34 96.00
168 18.4300 1517.00 1683.07 92.00
169 18.4800 1601.00 1681.79 94.00
170 18.5300 1641.00 1680.51 95.00
171 18.5800 1601.00 1679.24 94.00
172 18.6300 1662.00 1677.96 95.00
173 18.6800 1694.00 1676.69 96.00
174 18.7300 1700.00 1675.41 96.00
175 18.7800 1597.00 1674.13 93.00
176 18.8300 1677.00 1672.86 95.00
177 18.8800 1697.00 1671.58 95.00
178 18.9300 1766.00 1670.30 97.00
179 18.9800 1705.00 1669.03 95.00
180 19.0300 1746.00 1667.75 96.00
181 19.0800 1678.00 1666.48 94.00
182 19.1300 1707.00 1665.20 94.00
183 19.1800 1593.00 1663.92 91.00
184 19.2300 1665.00 1662.65 93.00
185 19.2800 1774.00 1661.37 96.00
186 19.3300 1717.00 1660.09 94.00
187 19.3800 1594.00 1658.82 90.00
188 19.4300 1644.00 1657.54 91.00
189 19.4800 1719.00 1656.26 93.00
190 19.5300 1616.00 1654.98 90.00
191 19.5800 1726.00 1653.71 93.00
192 19.6300 1683.00 1652.43 92.00
193 19.6800 1727.00 1651.15 93.00
194 19.7300 1744.00 1649.88 93.00
195 19.7800 1551.00 1648.60 88.00
196 19.8300 1521.00 1647.32 86.00
197 19.8800 1715.00 1646.04 92.00
198 19.9300 1632.00 1644.77 89.00
199 19.9800 1564.00 1643.49 87.00
200 20.0300 1695.00 1642.21 91.00
201 20.0800 1684.00 1640.93 90.00
202 20.1300 1580.00 1639.65 87.00
203 20.1800 1600.00 1638.38 87.00
204 20.2300 1616.00 1637.10 88.00
205 20.2800 1634.00 1635.82 88.00
206 20.3300 1521.00 1634.54 85.00
207 20.3800 1624.00 1633.26 87.00
208 20.4300 1762.00 1631.99 91.00
209 20.4800 1730.00 1630.71 90.00
210 20.5300 1641.00 1629.43 87.00
211 20.5800 1529.00 1628.15 84.00
212 20.6300 1756.00 1626.87 90.00
213 20.6800 1789.00 1625.59 91.00
214 20.7300 1683.00 1624.31 88.00
215 20.7800 1647.00 1623.04 86.00
216 20.8300 1575.00 1621.76 84.00
217 20.8800 1713.00 1620.48 88.00
218 20.9300 1642.00 1619.20 86.00
219 20.9800 1467.00 1617.92 81.00
220 21.0300 1523.00 1616.64 82.00
221 21.0800 1541.00 1615.36 83.00
222 21.1300 1679.00 1614.08 86.00
223 21.1800 1643.00 1612.80 85.00
224 21.2300 1660.00 1611.52 85.00
225 21.2800 1620.00 1610.24 84.00
226 21.3300 1681.00 1608.96 85.00
227 21.3800 1646.00 1607.68 84.00
228 21.4300 1555.00 1606.40 82.00
229 21.4800 1507.00 1605.12 80.00
230 21.5300 1609.00 1603.84 83.00
231 21.5800 1639.00 1602.56 83.00
232 21.6300 1560.00 1601.28 81.00
233 21.6800 1585.00 1600.38 82.00
234 21.7300 1514.00 1599.10 80.00
235 21.7800 1582.00 1597.80 81.00
236 21.8300 1635.00 1596.53 83.00
237 21.8800 1627.00 1595.25 82.00
238 21.9300 1663.00 1593.98 83.00
239 21.9800 1592.00 1592.70 81.00
240 22.0300 1559.00 1591.43 80.00
241 22.0800 1487.00 1590.15 78.00
242 22.1300 1567.00 1589.66 80.00
243 22.1800 1595.00 1589.68 80.00
244 22.2300 1549.00 1589.69 79.00
245 22.2800 1576.00 1589.71 80.00
246 22.3300 1600.00 1589.73 80.00
247 22.3800 1697.00 1589.75 82.00
248 22.4300 1553.00 1589.77 78.00
249 22.4800 1642.00 1589.79 81.00
250 22.5300 1585.00 1589.81 79.00
251 22.5800 1563.00 1589.83 78.00
252 22.6300 1539.00 1589.85 78.00
253 22.6800 1642.00 1589.87 80.00
254 22.7300 1553.00 1589.89 78.00
255 22.7800 1601.00 1589.91 79.00
256 22.8300 1606.00 1589.94 79.00
257 22.8800 1615.00 1590.05 79.00
258 22.9300 1547.00 1590.07 77.00
259 22.9800 1561.00 1590.09 77.00
260 23.0300 1679.00 1590.12 80.00
261 23.0800 1605.00 1590.14 78.00
262 23.1300 1548.00 1590.16 76.00
263 23.1800 1636.00 1590.19 78.00
264 23.2300 1621.00 1590.21 78.00
265 23.2800 1557.00 1590.23 76.00
266 23.3300 1604.00 1590.26 77.00
267 23.3800 1635.00 1590.28 78.00
268 23.4300 1507.00 1590.31 74.00
269 23.4800 1528.00 1590.33 75.00
270 23.5300 1515.00 1590.36 74.00
271 23.5800 1537.00 1590.38 75.00
272 23.6300 1582.00 1590.41 76.00
273 23.6800 1636.00 1590.43 77.00
274 23.7300 1551.00 1590.46 75.00
275 23.7800 1523.00 1590.49 74.00
276 23.8300 1617.00 1590.51 76.00
277 23.8800 1582.00 1590.54 75.00
278 23.9300 1570.00 1590.57 74.00
279 23.9800 1558.00 1590.60 74.00
280 24.0300 1633.00 1591.90 76.00
281 24.0800 1526.00 1591.95 73.00
282 24.1300 1598.00 1592.00 75.00
283 24.1800 1588.00 1592.05 74.00
284 24.2300 1489.00 1592.10 72.00
285 24.2800 1507.00 1592.15 72.00
286 24.3300 1558.00 1592.20 73.00
287 24.3800 1667.00 1592.26 75.00
288 24.4300 1534.00 1592.31 72.00
289 24.4800 1579.00 1592.37 73.00
290 24.5300 1537.00 1592.43 72.00
291 24.5800 1531.00 1592.49 72.00
292 24.6300 1557.00 1592.55 72.00
293 24.6800 1681.00 1592.61 75.00
294 24.7300 1600.00 1592.67 73.00
295 24.7800 1545.00 1592.74 71.00
296 24.8300 1583.00 1592.80 72.00
297 24.8800 1546.00 1592.87 71.00
298 24.9300 1573.00 1592.94 72.00
299 24.9800 1590.00 1593.01 72.00
300 25.0300 1593.00 1593.09 72.00
301 25.0800 1653.00 1593.16 73.00
302 25.1300 1600.00 1593.24 72.00
303 25.1800 1546.00 1593.32 70.00
304 25.2300 1521.00 1593.40 70.00
305 25.2800 1520.00 1593.49 70.00
306 25.3300 1589.00 1593.58 71.00
307 25.3800 1613.00 1593.67 71.00
308 25.4300 1598.00 1593.76 71.00
309 25.4800 1671.00 1593.86 72.00
310 25.5300 1654.00 1593.96 72.00
311 25.5800 1679.00 1594.06 72.00
312 25.6300 1574.00 1594.17 70.00
313 25.6800 1578.00 1594.28 70.00
314 25.7300 1635.00 1594.39 71.00
315 25.7800 1610.00 1594.51 70.00
316 25.8300 1636.00 1594.64 71.00
317 25.8800 1544.00 1594.77 69.00
318 25.9300 1634.00 1594.90 70.00
319 25.9800 1586.00 1595.04 69.00
320 26.0300 1647.00 1595.18 70.00
321 26.0800 1603.00 1595.33 69.00
322 26.1300 1616.00 1595.49 70.00
323 26.1800 1730.00 1595.66 72.00
324 26.2300 1676.00 1595.83 71.00
325 26.2800 1695.00 1596.01 71.00
326 26.3300 1615.00 1596.20 69.00
327 26.3800 1650.00 1596.40 70.00
328 26.4300 1523.00 1596.60 67.00
329 26.4800 1609.00 1596.82 68.00
330 26.5300 1573.00 1597.05 68.00
331 26.5800 1558.00 1597.30 67.00
332 26.6300 1542.00 1597.55 67.00
333 26.6800 1589.00 1597.82 68.00
334 26.7300 1648.00 1598.11 69.00
335 26.7800 1582.00 1598.41 67.00
336 26.8300 1605.00 1598.73 68.00
337 26.8800 1660.00 1599.08 69.00
338 26.9300 1618.00 1599.44 68.00
339 26.9800 1634.00 1599.83 68.00
340 27.0300 1653.00 1600.25 68.00
341 27.0800 1660.00 1600.69 68.00
342 27.1300 1704.00 1601.18 69.00
343 27.1800 1578.00 1601.69 66.00
344 27.2300 1574.00 1602.25 66.00
345 27.2800 1684.00 1602.86 68.00
346 27.3300 1553.00 1603.51 65.00
347 27.3800 1627.00 1604.23 67.00
348 27.4300 1597.00 1605.01 66.00
349 27.4800 1637.00 1606.12 67.00
350 27.5300 1656.00 1607.39 67.00
351 27.5800 1620.00 1608.75 66.00
352 27.6300 1594.00 1610.23 65.00
353 27.6800 1630.00 1611.85 66.00
354 27.7300 1610.00 1613.61 65.00
355 27.7800 1536.00 1615.56 64.00
356 27.8300 1552.00 1617.72 64.00
357 27.8800 1578.00 1620.15 64.00
358 27.9300 1604.00 1622.88 65.00
359 27.9800 1590.00 1626.00 65.00
360 28.0300 1599.00 1629.58 65.00
361 28.0800 1638.00 1633.77 65.00
362 28.1300 1668.00 1638.78 66.00
363 28.1800 1614.00 1645.05 65.00
364 28.2300 1659.00 1653.77 65.00
365 28.2800 1677.00 1668.07 66.00
366 28.3300 1688.00 1696.11 66.00
367 28.3800 1820.00 1756.77 68.00
368 28.4300 2062.00 1888.42 72.00
369 28.4800 2458.00 2156.97 79.00
370 28.5300 2946.00 2654.59 86.00
371 28.5800 3607.00 3476.12 95.00
372 28.6300 4862.00 4666.83 111.00
373 28.6800 6231.00 6156.85 125.00
374 28.7300 7898.00 7721.47 141.00
375 28.7800 9051.00 9008.84 150.00
376 28.8300 9712.00 9649.83 155.00
377 28.8800 9469.00 9431.90 153.00
378 28.9300 8611.00 8434.31 146.00
379 28.9800 6919.00 6973.83 130.00
380 29.0300 5317.00 5424.70 114.00
381 29.0800 3941.00 4075.85 98.00
382 29.1300 2813.00 3069.81 83.00
383 29.1800 2301.00 2414.24 74.00
384 29.2300 1917.00 2036.36 68.00
385 29.2800 1758.00 1841.52 65.00
386 29.3300 1743.00 1750.36 64.00
387 29.3800 1737.00 1711.00 64.00
388 29.4300 1730.00 1695.64 64.00
389 29.4800 1779.00 1692.66 65.00
390 29.5300 1667.00 1700.72 63.00
391 29.5800 1836.00 1726.40 66.00
392 29.6300 1895.00 1784.29 66.00
393 29.6800 1988.00 1896.41 68.00
394 29.7300 2207.00 2087.04 72.00
395 29.7800 2453.00 2370.31 75.00
396 29.8300 2802.00 2733.77 80.00
397 29.8800 3081.00 3126.41 84.00
398 29.9300 3462.00 3463.16 89.00
399 29.9800 3694.00 3649.94 92.00
400 30.0300 3828.00 3626.10 93.00
401 30.0800 3481.00 3402.13 89.00
402 30.1300 3266.00 3052.38 86.00
403 30.1800 2842.00 2671.05 80.00
404 30.2300 2415.00 2333.86 74.00
405 30.2800 2081.00 2080.85 68.00
406 30.3300 1902.00 1917.43 65.00
407 30.3800 1770.00 1827.39 63.00
408 30.4300 1738.00 1787.77 62.00
409 30.4800 1761.00 1779.16 62.00
410 30.5300 1781.00 1790.30 62.00
411 30.5800 1852.00 1820.17 64.00
412 30.6300 1986.00 1882.93 66.00
413 30.6800 2322.00 2021.00 71.00
414 30.7300 2852.00 2329.86 79.00
415 30.7800 3489.00 2989.65 87.00
416 30.8300 4861.00 4281.32 103.00
417 30.8800 7025.00 6545.14 123.00
418 30.9300 10325.00 10041.40 149.00
419 30.9800 14612.00 14728.70 177.00
420 31.0300 19839.00 20061.40 206.00
421 31.0800 24708.00 24979.30 230.00
422 31.1300 28044.00 28173.20 244.00
423 31.1800 28645.00 28621.10 247.00
424 31.2300 26644.00 26179.60 237.00
425 31.2800 21826.00 21685.10 214.00
426 31.3300 16481.00 16416.80 186.00
427 31.3800 11153.00 11508.80 153.00
428 31.4300 7000.00 7640.80 121.00
429 31.4800 4377.00 4992.26 95.00
430 31.5300 3093.00 3394.17 80.00
431 31.5800 2323.00 2533.39 69.00
432 31.6300 2040.00 2112.54 64.00
433 31.6800 1903.00 1919.77 62.00
434 31.7300 1804.00 1831.81 60.00
435 31.7800 1696.00 1787.80 58.00
436 31.8300 1728.00 1761.61 59.00
437 31.8800 1715.00 1743.14 59.00
438 31.9300 1589.00 1728.71 56.00
439 31.9800 1641.00 1716.89 57.00
440 32.0300 1606.00 1707.00 56.00
441 32.0800 1583.00 1698.65 56.00
442 32.1300 1643.00 1691.54 57.00
443 32.1800 1634.00 1685.45 57.00
444 32.2300 1717.00 1680.19 58.00
445 32.2800 1735.00 1675.64 58.00
446 32.3300 1612.00 1671.68 56.00
447 32.3800 1634.00 1668.22 56.00
448 32.4300 1599.00 1665.18 56.00
449 32.4800 1650.00 1662.50 56.00
450 32.5300 1663.00 1660.14 56.00
451 32.5800 1613.00 1658.05 55.00
452 32.6300 1700.00 1656.19 57.00
453 32.6800 1661.00 1654.54 56.00
454 32.7300 1568.00 1653.07 54.00
455 32.7800 1681.00 1651.76 56.00
456 32.8300 1646.00 1650.59 56.00
457 32.8800 1607.00 1649.54 55.00
458 32.9300 1651.00 1648.61 55.00
459 32.9800 1729.00 1647.78 57.00
460 33.0300 1722.00 1647.03 56.00
461 33.0800 1675.00 1646.37 56.00
462 33.1300 1669.00 1645.78 55.00
463 33.1800 1632.00 1645.26 55.00
464 33.2300 1652.00 1644.79 55.00
465 33.2800 1651.00 1644.38 55.00
466 33.3300 1643.00 1644.02 55.00
467 33.3800 1739.00 1643.71 56.00
468 33.4300 1635.00 1643.44 54.00
469 33.4800 1602.00 1643.20 54.00
470 33.5300 1653.00 1643.00 54.00
471 33.5800 1610.00 1642.83 54.00
472 33.6300 1625.00 1642.33 54.00
473 33.6800 1602.00 1641.76 53.00
474 33.7300 1567.00 1641.22 53.00
475 33.7800 1553.00 1640.71 52.00
476 33.8300 1525.00 1640.21 52.00
477 33.8800 1576.00 1639.74 52.00
478 33.9300 1581.00 1639.29 53.00
479 33.9800 1598.00 1638.85 53.00
480 34.0300 1615.00 1638.44 53.00
481 34.0800 1633.00 1638.04 53.00
482 34.1300 1665.00 1637.66 54.00
483 34.1800 1690.00 1637.29 54.00
484 34.2300 1698.00 1636.94 54.00
485 34.2800 1668.00 1636.60 53.00
486 34.3300 1653.00 1636.28 53.00
487 34.3800 1606.00 1635.97 52.00
488 34.4300 1597.00 1635.68 52.00
489 34.4800 1637.00 1635.40 52.00
490 34.5300 1697.00 1635.14 53.00
491 34.5800 1623.00 1634.90 52.00
492 42.1800 1578.00 1607.24 40.00
493 42.2300 1623.00 1607.12 41.00
494 42.2800 1564.00 1607.01 40.00
495 42.3300 1589.00 1606.89 40.00
496 42.3800 1634.00 1606.78 41.00
497 42.4300 1563.00 1606.68 40.00
498 42.4800 1610.00 1606.58 40.00
499 42.5300 1584.00 1606.49 40.00
500 42.5800 1551.00 1606.39 39.00
501 42.6300 1574.00 1606.32 40.00
502 42.6800 1610.00 1606.25 40.00
503 42.7300 1572.00 1606.19 39.00
504 42.7800 1599.00 1605.57 40.00
505 42.8300 1638.00 1604.59 40.00
506 42.8800 1608.00 1603.62 40.00
507 42.9300 1600.00 1602.67 40.00
508 42.9800 1662.00 1601.75 40.00
509 43.0300 1637.00 1600.86 40.00
510 43.0800 1609.00 1600.02 40.00
511 43.1300 1674.00 1599.22 40.00
512 43.1800 1620.00 1598.50 40.00
513 43.2300 1588.00 1597.89 39.00
514 43.2800 1624.00 1597.49 40.00
515 43.3300 1611.00 1597.60 40.00
516 43.3800 1547.00 1598.95 39.00
517 43.4300 1618.00 1603.33 40.00
518 43.4800 1648.00 1614.41 40.00
519 43.5300 1592.00 1638.52 39.00
520 43.5800 1674.00 1684.25 40.00
521 43.6300 1777.00 1759.53 42.00
522 43.6800 1855.00 1865.79 43.00
523 43.7300 1930.00 1991.72 43.00
524 43.7800 2008.00 2111.66 44.00
525 43.8300 2113.00 2192.20 45.00
526 43.8800 2187.00 2206.30 46.00
527 43.9300 2210.00 2149.19 47.00
528 43.9800 2097.00 2041.95 45.00
529 44.0300 2112.00 1916.84 45.00
530 44.0800 1959.00 1801.35 44.00
531 44.1300 1888.00 1711.01 43.00
532 44.1800 1731.00 1649.38 41.00
533 44.2300 1658.00 1612.09 40.00
534 44.2800 1658.00 1591.69 40.00
535 44.3300 1666.00 1581.26 40.00
536 44.3800 1533.00 1575.94 39.00
537 44.4300 1564.00 1572.91 39.00
538 44.4800 1539.00 1570.83 39.00
539 44.5300 1546.00 1569.14 39.00
540 44.5800 1577.00 1567.61 39.00
541 44.6300 1568.00 1566.17 39.00
542 44.6800 1482.00 1564.79 38.00
543 44.7300 1435.00 1563.46 37.00
544 44.7800 1505.00 1562.17 38.00
545 44.8300 1560.00 1560.92 39.00
546 44.8800 1561.00 1559.69 39.00
547 44.9300 1486.00 1558.51 38.00
548 44.9800 1484.00 1557.37 38.00
549 45.0300 1568.00 1556.32 39.00
550 45.0800 1540.00 1555.48 39.00
551 45.1300 1632.00 1555.07 40.00
552 45.1800 1466.00 1555.52 38.00
553 45.2300 1553.00 1557.37 39.00
554 45.2800 1542.00 1561.15 39.00
555 45.3300 1563.00 1566.96 39.00
556 45.3800 1540.00 1574.06 39.00
557 45.4300 1544.00 1580.77 39.00
558 45.4800 1491.00 1584.82 38.00
559 45.5300 1531.00 1584.62 39.00
560 45.5800 1509.00 1579.80 38.00
561 45.6300 1560.00 1571.76 39.00
562 45.6800 1612.00 1562.60 40.00
563 45.7300 1529.00 1554.10 39.00
564 45.7800 1506.00 1547.24 38.00
565 45.8300 1521.00 1542.24 39.00
566 45.8800 1544.00 1538.80 39.00
567 45.9300 1500.00 1536.45 38.00
568 45.9800 1498.00 1534.74 38.00
569 46.0300 1479.00 1533.36 38.00
570 46.0800 1491.00 1532.12 38.00
571 46.1300 1490.00 1530.94 38.00
572 46.1800 1520.00 1529.79 38.00
573 46.2300 1479.00 1528.65 38.00
574 46.2800 1461.00 1527.51 38.00
575 46.3300 1497.00 1526.38 38.00
576 46.3800 1521.00 1525.26 39.00
577 46.4300 1516.00 1524.13 38.00
578 46.4800 1523.00 1523.01 39.00
579 46.5300 1491.00 1521.89 38.00
580 46.5800 1485.00 1520.78 38.00
581 46.6300 1507.00 1519.66 38.00
582 46.6800 1540.00 1518.55 39.00
583 46.7300 1594.00 1517.43 39.00
584 46.7800 1538.00 1516.32 39.00
585 46.8300 1512.00 1515.21 38.00
586 46.8800 1502.00 1514.10 38.00
587 46.9300 1562.00 1512.99 39.00
588 46.9800 1524.00 1511.88 39.00
589 47.0300 1492.00 1510.77 38.00
590 47.0800 1514.00 1509.66 38.00
591 47.1300 1483.00 1508.56 38.00
592 47.1800 1555.00 1507.45 39.00
593 47.2300 1529.00 1506.34 39.00
594 47.2800 1472.00 1505.24 38.00
595 47.3300 1473.00 1504.13 38.00
596 47.3800 1436.00 1503.03 37.00
597 47.4300 1483.00 1501.92 38.00
598 47.4800 1467.00 1500.82 38.00
599 47.5300 1530.00 1499.71 39.00
600 47.5800 1501.00 1498.61 38.00
601 47.6300 1518.00 1499.93 38.00
602 47.6800 1461.00 1501.25 38.00
603 47.7300 1534.00 1502.58 39.00
604 47.7800 1527.00 1503.90 39.00
605 47.8300 1522.00 1505.23 39.00
606 47.8800 1500.00 1506.58 38.00
607 47.9300 1546.00 1507.90 39.00
608 47.9800 1548.00 1509.23 39.00
609 48.0300 1585.00 1510.55 39.00
610 48.0800 1525.00 1511.88 39.00
611 48.1300 1508.00 1513.21 38.00
612 48.1800 1530.00 1514.53 39.00
613 48.2300 1527.00 1515.86 39.00
614 48.2800 1566.00 1517.19 39.00
615 48.3300 1553.00 1518.52 39.00
616 48.3800 1505.00 1519.85 38.00
617 48.4300 1465.00 1521.18 38.00
618 48.4800 1538.00 1522.51 39.00
619 48.5300 1467.00 1523.85 38.00
620 48.5800 1512.00 1525.18 38.00
621 48.6300 1544.00 1526.52 39.00
622 48.6800 1577.00 1527.86 39.00
623 48.7300 1554.00 1529.20 39.00
624 48.7800 1570.00 1530.54 39.00
625 48.8300 1577.00 1531.89 39.00
626 48.8800 1585.00 1533.24 39.00
627 48.9300 1559.00 1534.61 39.00
628 48.9800 1518.00 1536.00 38.00
629 49.0300 1508.00 1537.44 38.00
630 49.0800 1520.00 1539.03 38.00
631 49.1300 1541.00 1540.94 39.00
632 49.1800 1584.00 1543.53 39.00
633 49.2300 1570.00 1547.33 39.00
634 49.2800 1543.00 1552.91 39.00
635 49.3300 1584.00 1560.58 39.00
636 49.3800 1544.00 1569.89 39.00
637 49.4300 1612.00 1579.41 40.00
638 49.4800 1537.00 1586.99 39.00
639 49.5300 1595.00 1590.60 39.00
640 49.5800 1633.00 1589.45 40.00
641 49.6300 1591.00 1584.55 39.00
642 49.6800 1612.00 1577.98 40.00
643 49.7300 1564.00 1571.68 39.00
644 49.7800 1611.00 1566.84 40.00
645 49.8300 1577.00 1563.86 39.00
646 49.8800 1522.00 1562.54 39.00
647 49.9300 1462.00 1562.42 38.00
648 49.9800 1595.00 1563.03 39.00
649 50.0300 1588.00 1564.03 39.00
650 50.0800 1537.00 1565.21 39.00
651 50.1300 1603.00 1566.46 40.00
652 50.1800 1552.00 1567.75 39.00
653 50.2300 1600.00 1569.05 40.00
654 50.2800 1657.00 1570.35 40.00
655 50.3300 1659.00 1571.66 40.00
656 50.3800 1570.00 1572.98 39.00
657 50.4300 1583.00 1574.29 39.00
658 50.4800 1543.00 1575.61 39.00
659 50.5300 1603.00 1576.93 40.00
660 50.5800 1652.00 1578.26 40.00
661 50.6300 1655.00 1579.58 40.00
662 50.6800 1596.00 1580.91 39.00
663 50.7300 1660.00 1582.23 40.00
664 50.7800 1547.00 1583.56 39.00
665 50.8300 1580.00 1584.90 39.00
666 50.8800 1583.00 1586.20 39.00
667 50.9300 1602.00 1587.53 40.00
668 50.9800 1595.00 1588.87 39.00
669 51.0300 1555.00 1590.21 39.00
670 51.0800 1612.00 1591.55 40.00
671 51.1300 1607.00 1592.89 40.00
672 51.1800 1579.00 1594.23 39.00
673 51.2300 1643.00 1595.58 40.00
674 51.2800 1635.00 1596.93 40.00
675 51.3300 1574.00 1598.28 39.00
676 51.3800 1616.00 1599.64 40.00
677 51.4300 1641.00 1601.00 40.00
678 51.4800 1620.00 1602.36 40.00
679 51.5300 1656.00 1603.99 40.00
680 51.5800 1569.00 1605.38 39.00
681 51.6300 1627.00 1606.77 40.00
682 51.6800 1614.00 1608.18 40.00
683 51.7300 1605.00 1610.05 40.00
684 51.7800 1688.00 1613.75 41.00
685 51.8300 1685.00 1617.47 41.00
686 51.8800 1721.00 1621.24 41.00
687 51.9300 1690.00 1625.07 41.00
688 51.9800 1729.00 1629.05 41.00
689 52.0300 1607.00 1633.42 40.00
690 52.0800 1659.00 1638.73 40.00
691 52.1300 1665.00 1646.18 40.00
692 52.1800 1660.00 1657.94 40.00
693 52.2300 1675.00 1677.03 40.00
694 52.2800 1663.00 1706.43 40.00
695 52.3300 1651.00 1746.87 40.00
696 52.3800 1746.00 1794.50 41.00
697 52.4300 1849.00 1840.14 43.00
698 52.4800 1938.00 1871.78 44.00
699 52.5300 1928.00 1879.85 43.00
700 52.5800 1894.00 1863.05 43.00
701 52.6300 1812.00 1829.37 42.00
702 52.6800 1827.00 1790.38 42.00
703 52.7300 1754.00 1755.42 41.00
704 52.7800 1748.00 1729.38 41.00
705 52.8300 1700.00 1713.10 41.00
706 52.8800 1739.00 1704.92 41.00
707 52.9300 1719.00 1702.30 41.00
708 52.9800 1729.00 1702.91 41.00
709 53.0300 1747.00 1705.17 41.00
710 53.0800 1765.00 1708.17 42.00
711 53.1300 1741.00 1711.46 41.00
712 53.1800 1751.00 1714.88 41.00
713 53.2300 1742.00 1718.35 41.00
714 53.2800 1655.00 1721.86 40.00
715 53.3300 1775.00 1725.39 42.00
716 53.3800 1749.00 1728.94 41.00
717 53.4300 1690.00 1732.51 41.00
718 53.4800 1711.00 1736.10 41.00
719 53.5300 1729.00 1739.70 41.00
720 53.5800 1690.00 1743.31 41.00
721 53.6300 1759.00 1746.05 41.00
722 53.6800 1749.00 1748.80 41.00
723 53.7300 1773.00 1751.57 42.00
724 53.7800 1755.00 1754.36 41.00
725 57.6800 1965.00 1991.23 44.00
726 57.7300 1955.00 1998.26 44.00
727 57.7800 1962.00 2007.53 44.00
728 57.8300 2001.00 2023.03 44.00
729 57.8800 2064.00 2054.11 45.00
730 57.9300 2205.00 2122.04 46.00
731 57.9800 2257.00 2267.74 47.00
732 58.0300 2500.00 2554.62 50.00
733 58.0800 2991.00 3054.42 54.00
734 58.1300 3819.00 3805.91 61.00
735 58.1800 4669.00 4756.96 68.00
736 58.2300 5609.00 5731.50 74.00
737 58.2800 6210.00 6465.36 78.00
738 58.3300 6509.00 6714.10 80.00
739 58.3800 6327.00 6391.77 79.00
740 58.4300 5686.00 5635.51 75.00
741 58.4800 4706.00 4702.85 68.00
742 58.5300 3880.00 3821.16 62.00
743 58.5800 3178.00 3120.62 56.00
744 58.6300 2617.00 2636.67 51.00
745 58.6800 2310.00 2341.56 48.00
746 58.7300 2153.00 2181.64 46.00
747 58.7800 2091.00 2103.94 45.00
748 58.8300 1966.00 2069.52 44.00
749 58.8800 2000.00 2055.08 44.00
750 58.9300 2002.00 2048.95 44.00
751 58.9800 1977.00 2046.13 44.00
752 59.0300 2072.00 2044.75 45.00
753 59.0800 2074.00 2044.14 45.00
754 59.1300 2081.00 2044.05 45.00
755 59.1800 2001.00 2044.38 44.00
756 59.2300 2016.00 2045.05 44.00
757 59.2800 2010.00 2045.76 44.00
758 59.3300 2037.00 2045.77 45.00
759 59.3800 1988.00 2046.00 44.00
760 59.4300 1968.00 2046.43 44.00
761 59.4800 1985.00 2047.07 44.00
762 59.5300 2005.00 2047.90 44.00
763 59.5800 1999.00 2048.92 44.00
764 59.6300 2034.00 2050.10 45.00
765 59.6800 2024.00 2051.45 44.00
766 59.7300 2087.00 2052.94 45.00
767 59.7800 2015.00 2054.59 44.00
768 59.8300 2004.00 2056.42 44.00
769 59.8800 2045.00 2058.46 45.00
770 59.9300 2082.00 2060.78 45.00
771 59.9800 2000.00 2063.40 44.00
772 60.0300 2020.00 2066.40 44.00
773 60.0800 2089.00 2069.83 45.00
774 60.1300 2077.00 2073.81 45.00
775 60.1800 2010.00 2078.38 44.00
776 60.2300 2012.00 2083.73 44.00
777 60.2800 2029.00 2090.08 45.00
778 60.3300 1998.00 2097.77 44.00
779 60.3800 2096.00 2107.42 45.00
780 60.4300 2145.00 2120.50 46.00
781 60.4800 2078.00 2140.89 45.00
782 60.5300 2093.00 2179.19 45.00
783 60.5800 2287.00 2262.07 47.00
784 60.6300 2553.00 2448.36 50.00
785 60.6800 2879.00 2846.93 53.00
786 60.7300 3611.00 3617.85 60.00
787 60.7800 4878.00 4925.61 69.00
788 60.8300 6533.00 6826.87 80.00
789 60.8800 8744.00 9133.46 93.00
790 60.9300 10990.00 11364.30 104.00
791 60.9800 12422.00 12872.30 111.00
792 61.0300 13177.00 13135.90 114.00
793 61.0800 12647.00 12077.70 112.00
794 61.1300 10748.00 10129.40 103.00
795 61.1800 8486.00 7914.07 92.00
796 61.2300 6387.00 5921.87 79.00
797 61.2800 4517.00 4400.40 67.00
798 61.3300 3431.00 3391.70 58.00
799 61.3800 2797.00 2815.07 52.00
800 61.4300 2618.00 2547.70 51.00
801 61.4800 2406.00 2474.12 49.00
802 61.5300 2470.00 2503.44 49.00
803 61.5800 2494.00 2567.41 49.00
804 61.6300 2538.00 2615.77 50.00
805 61.6800 2624.00 2617.82 51.00
806 61.7300 2597.00 2568.56 50.00
807 61.7800 2512.00 2487.40 50.00
808 61.8300 2427.00 2404.24 49.00
809 61.8800 2377.00 2349.35 48.00
810 61.9300 2324.00 2356.48 48.00
811 61.9800 2471.00 2474.49 49.00
812 62.0300 2752.00 2776.73 52.00
813 62.0800 3320.00 3350.75 57.00
814 62.1300 4287.00 4251.89 65.00
815 62.1800 5249.00 5430.59 72.00
816 62.2300 6421.00 6679.66 80.00
817 62.2800 7399.00 7667.39 86.00
818 62.3300 8059.00 8066.50 89.00
819 62.3800 7973.00 7734.61 89.00
820 62.4300 7178.00 6817.79 84.00
821 62.4800 6084.00 5640.80 78.00
822 62.5300 4675.00 4504.33 68.00
823 62.5800 3579.00 3586.68 59.00
824 62.6300 2911.00 2941.90 53.00
825 62.6800 2465.00 2541.06 49.00
826 62.7300 2312.00 2318.76 48.00
827 62.7800 2200.00 2207.62 46.00
828 62.8300 2242.00 2156.33 47.00
829 62.8800 2127.00 2133.29 46.00
830 62.9300 2072.00 2122.22 45.00
831 62.9800 2064.00 2115.92 45.00
832 63.0300 2123.00 2111.56 46.00
833 63.0800 2003.00 2108.10 44.00
834 63.1300 2045.00 2105.15 45.00
835 63.1800 2085.00 2102.57 45.00
836 63.2300 2129.00 2100.37 46.00
837 63.2800 2101.00 2098.52 45.00
838 63.3300 2095.00 2097.03 45.00
839 63.3800 2112.00 2095.85 45.00
840 63.4300 2034.00 2094.93 45.00
841 63.4800 2051.00 2094.22 45.00
842 63.5300 2058.00 2093.69 45.00
843 63.5800 2069.00 2093.30 45.00
844 63.6300 2080.00 2093.03 45.00
845 63.6800 2116.00 2092.85 46.00
846 63.7300 2133.00 2092.75 46.00
847 63.7800 2124.00 2092.72 46.00
848 63.8300 2086.00 2092.76 45.00
849 63.8800 2017.00 2092.86 44.00
850 63.9300 2121.00 2093.09 46.00
851 63.9800 2223.00 2093.28 47.00
852 64.0300 2190.00 2093.52 46.00
853 64.0800 2135.00 2093.79 46.00
854 64.1300 2230.00 2094.10 47.00
855 64.1800 2208.00 2094.63 46.00
856 64.2300 2242.00 2095.92 47.00
857 64.2800 2150.00 2097.24 46.00
858 64.3300 2075.00 2098.60 45.00
859 64.3800 2018.00 2100.01 44.00
860 64.4300 2077.00 2101.50 45.00
861 64.4800 2000.00 2103.16 44.00
862 64.5300 2043.00 2105.19 45.00
863 64.5800 2106.00 2108.10 45.00
864 64.6300 2073.00 2112.86 45.00
865 64.6800 2049.00 2120.99 45.00
866 64.7300 2115.00 2134.23 45.00
867 64.7800 2145.00 2153.54 46.00
868 64.8300 2197.00 2177.67 46.00
869 64.8800 2208.00 2202.31 46.00
870 64.9300 2191.00 2221.07 46.00
871 64.9800 2289.00 2228.06 47.00
872 65.0300 2174.00 2221.36 46.00
873 65.0800 2150.00 2204.48 46.00
874 65.1300 2086.00 2183.70 45.00
875 65.1800 2102.00 2164.38 45.00
876 65.2300 2039.00 2149.20 45.00
877 65.2800 2112.00 2139.37 45.00
878 65.3300 2187.00 2133.93 46.00
879 65.3800 2117.00 2131.64 46.00
880 65.4300 2158.00 2131.27 46.00
881 65.4800 2150.00 2131.93 46.00
882 65.5300 2189.00 2133.07 46.00
883 65.5800 2128.00 2134.41 46.00
884 65.6300 2105.00 2135.85 45.00
885 65.6800 2146.00 2137.33 46.00
886 65.7300 2144.00 2138.84 46.00
887 65.7800 2129.00 2140.38 46.00
888 65.8300 2120.00 2141.95 46.00
889 65.8800 2152.00 2143.53 46.00
890 65.9300 2118.00 2145.15 46.00
891 65.9800 2120.00 2146.80 46.00
892 66.0300 2105.00 2148.48 45.00
893 66.0800 2180.00 2150.20 46.00
894 66.1300 2171.00 2151.98 46.00
895 66.1800 2171.00 2153.81 46.00
896 66.2300 2160.00 2155.72 46.00
897 66.2800 2219.00 2158.24 47.00
898 66.3300 2286.00 2161.69 47.00
899 66.3800 2199.00 2165.53 46.00
900 66.4300 2246.00 2170.36 47.00
901 66.4800 2313.00 2177.49 48.00
902 66.5300 2249.00 2190.13 47.00
903 66.5800 2251.00 2214.33 47.00
904 66.6300 2305.00 2259.36 48.00
905 66.6800 2337.00 2335.41 48.00
906 66.7300 2463.00 2447.21 49.00
907 66.7800 2589.00 2585.77 50.00
908 66.8300 2718.00 2724.01 52.00
909 66.8800 2847.00 2823.37 53.00
910 66.9300 2876.00 2850.65 53.00
911 66.9800 2903.00 2797.72 53.00
912 67.0300 2783.00 2688.12 52.00
913 67.0800 2641.00 2559.35 51.00
914 67.1300 2505.00 2441.76 50.00
915 67.1800 2378.00 2350.93 48.00
916 67.2300 2334.00 2289.82 48.00
917 67.2800 2418.00 2253.79 49.00
918 67.3300 2356.00 2235.44 48.00
919 72.9800 2288.00 2318.58 47.00
920 73.0300 2309.00 2380.14 48.00
921 73.0800 2424.00 2482.25 49.00
922 73.1300 2665.00 2623.58 51.00
923 73.1800 2753.00 2783.03 52.00
924 73.2300 2926.00 2920.24 54.00
925 73.2800 2929.00 2990.18 54.00
926 73.3300 2893.00 2966.04 53.00
927 73.3800 2787.00 2857.82 52.00
928 73.4300 2685.00 2705.22 51.00
929 73.4800 2477.00 2550.30 49.00
930 73.5300 2304.00 2419.64 48.00
931 73.5800 2314.00 2322.96 48.00
932 73.6300 2260.00 2258.46 47.00
933 73.6800 2217.00 2218.83 47.00
934 73.7300 2200.00 2195.68 46.00
935 73.7800 2193.00 2182.02 46.00
936 73.8300 2235.00 2173.11 47.00
937 73.8800 2204.00 2166.37 46.00
938 73.9300 2126.00 2160.52 46.00
939 73.9800 2099.00 2155.02 45.00
940 74.0300 2159.00 2149.70 46.00
941 74.0800 2196.00 2144.47 46.00
942 74.1300 2091.00 2139.32 45.00
943 74.1800 2098.00 2134.24 45.00
944 74.2300 2139.00 2129.20 46.00
945 74.2800 2184.00 2128.18 46.00
946 74.3300 2214.00 2127.19 47.00
947 74.3800 2150.00 2126.24 46.00
948 74.4300 2089.00 2125.31 45.00
949 74.4800 2150.00 2124.42 46.00
950 74.5300 2133.00 2123.56 46.00
951 74.5800 2082.00 2122.77 45.00
952 74.6300 2126.00 2122.10 46.00
953 74.6800 2118.00 2121.72 46.00
954 74.7300 2120.00 2121.90 46.00
955 74.7800 2160.00 2123.08 46.00
956 74.8300 2204.00 2125.72 46.00
957 74.8800 2203.00 2130.00 46.00
958 74.9300 2143.00 2135.45 46.00
959 74.9800 2115.00 2140.76 45.00
960 75.0300 2202.00 2144.16 46.00
961 75.0800 2150.00 2144.18 46.00
962 75.1300 2100.00 2140.56 45.00
963 75.1800 2203.00 2134.48 46.00
964 75.2300 2160.00 2127.67 46.00
965 75.2800 2121.00 2121.46 46.00
966 75.3300 2118.00 2116.62 46.00
967 75.3800 2109.00 2112.96 45.00
968 75.4300 2071.00 2110.41 45.00
969 75.4800 2123.00 2108.64 46.00
970 75.5300 2110.00 2107.36 45.00
971 75.5800 2089.00 2106.34 45.00
972 75.6300 2170.00 2105.64 46.00
973 75.6800 2098.00 2105.04 45.00
974 75.7300 2123.00 2104.46 46.00
975 75.7800 2204.00 2103.90 46.00
976 75.8300 2096.00 2103.34 45.00
977 75.8800 2114.00 2102.79 45.00
978 75.9300 2114.00 2102.24 45.00
979 75.9800 2159.00 2101.70 46.00
980 77.3800 2151.00 2088.22 46.00
981 77.4300 2067.00 2087.81 45.00
982 77.4800 2114.00 2087.44 45.00
983 77.5300 2107.00 2087.10 45.00
984 77.5800 2096.00 2086.80 45.00
985 77.6300 2054.00 2086.53 45.00
986 77.6800 2005.00 2086.22 44.00
987 77.7300 2009.00 2086.03 44.00
988 77.7800 2062.00 2085.89 45.00
989 77.8300 2103.00 2087.65 45.00
990 77.8800 2030.00 2089.49 45.00
991 77.9300 2077.00 2091.42 45.00
992 77.9800 2132.00 2093.46 46.00
993 78.0300 2121.00 2095.66 46.00
994 78.0800 2106.00 2098.05 45.00
995 78.1300 2076.00 2100.73 45.00
996 78.1800 2018.00 2103.90 44.00
997 78.2300 2031.00 2107.90 45.00
998 78.2800 2012.00 2113.88 44.00
999 78.3300 2073.00 2124.66 45.00
1000 78.3800 2157.00 2146.79 46.00
1001 78.4300 2175.00 2193.43 46.00
1002 78.4800 2393.00 2286.20 48.00
1003 78.5300 2480.00 2452.06 49.00
1004 78.5800 2755.00 2710.27 52.00
1005 78.6300 3187.00 3051.00 56.00
1006 78.6800 3479.00 3418.88 58.00
1007 78.7300 3798.00 3719.69 61.00
1008 78.7800 3845.00 3855.95 62.00
1009 78.8300 3885.00 3779.98 62.00
1010 78.8800 3630.00 3527.55 60.00
1011 78.9300 3134.00 3192.42 55.00
1012 78.9800 2741.00 2864.38 52.00
1013 79.0300 2564.00 2595.59 50.00
1014 79.0800 2330.00 2402.03 48.00
1015 79.1300 2273.00 2277.17 47.00
1016 79.1800 2198.00 2204.59 46.00
1017 79.2300 2150.00 2166.63 46.00
1018 79.2800 2149.00 2148.72 46.00
1019 79.3300 2186.00 2141.04 46.00
1020 79.3800 2278.00 2138.00 47.00
1021 79.4300 2166.00 2136.87 46.00
1022 79.4800 2138.00 2136.55 46.00
1023 79.5300 2172.00 2136.60 46.00
1024 79.5800 2260.00 2136.87 47.00
1025 79.6300 2219.00 2137.31 47.00
1026 79.6800 2257.00 2137.89 47.00
1027 79.7300 2299.00 2138.57 47.00
1028 79.7800 2319.00 2139.35 48.00
1029 79.8300 2232.00 2140.21 47.00
1030 79.8800 2126.00 2141.13 46.00
1031 79.9300 2146.00 2142.11 46.00
1032 79.9800 2156.00 2143.14 46.00
1033 80.0300 2142.00 2144.21 46.00
1034 80.0800 2180.00 2145.31 46.00
1035 80.1300 2151.00 2146.45 46.00
1036 80.1800 2168.00 2147.61 46.00
1037 80.2300 2188.00 2148.76 46.00
1038 80.2800 2130.00 2149.97 46.00
1039 80.3300 2171.00 2151.20 46.00
1040 80.3800 2178.00 2152.46 46.00
1041 80.4300 2081.00 2153.73 45.00
1042 80.4800 2089.00 2155.02 45.00
1043 80.5300 2156.00 2156.33 46.00
1044 80.5800 2178.00 2157.32 46.00
1045 80.6300 2141.00 2156.99 46.00
1046 80.6800 2064.00 2156.67 45.00
1047 80.7300 2210.00 2156.38 47.00
1048 80.7800 2168.00 2156.10 46.00
1049 80.8300 2130.00 2155.85 46.00
1050 80.8800 2091.00 2155.62 45.00
1051 84.3800 2180.00 2135.10 46.00
1052 84.4300 2219.00 2135.40 47.00
1053 84.4800 2184.00 2135.80 46.00
1054 84.5300 2168.00 2137.06 46.00
1055 84.5800 2170.00 2138.96 46.00
1056 84.6300 2093.00 2141.11 45.00
1057 84.6800 2195.00 2143.71 46.00
1058 84.7300 2076.00 2147.19 45.00
1059 84.7800 2144.00 2152.65 46.00
1060 84.8300 2108.00 2162.38 45.00
1061 84.8800 2260.00 2180.58 47.00
1062 84.9300 2338.00 2213.44 48.00
1063 84.9800 2239.00 2267.50 47.00
1064 85.0300 2323.00 2345.51 48.00
1065 85.0800 2444.00 2441.11 49.00
1066 85.1300 2566.00 2536.49 50.00
1067 85.1800 2608.00 2606.90 51.00
1068 85.2300 2695.00 2631.77 51.00
1069 85.2800 2654.00 2607.94 51.00
1070 85.3300 2564.00 2556.40 50.00
1071 85.3800 2548.00 2516.02 50.00
1072 85.4300 2573.00 2536.27 50.00
1073 85.4800 2784.00 2679.62 52.00
1074 85.5300 3138.00 3022.73 56.00
1075 85.5800 3696.00 3636.84 60.00
1076 85.6300 4620.00 4537.87 67.00
1077 85.6800 5577.00 5628.01 74.00
1078 85.7300 6587.00 6675.05 81.00
1079 85.7800 7318.00 7377.22 85.00
1080 85.8300 7496.00 7495.79 86.00
1081 85.8800 6998.00 6997.03 83.00
1082 85.9300 5873.00 6083.50 76.00
1083 85.9800 4864.00 5050.50 69.00
1084 86.0300 3899.00 4120.27 62.00
1085 86.0800 3169.00 3396.02 56.00
1086 86.1300 2658.00 2890.29 51.00
1087 86.1800 2482.00 2568.80 49.00
1088 86.2300 2263.00 2382.30 47.00
1089 86.2800 2257.00 2283.45 47.00
1090 86.3300 2204.00 2235.10 46.00
1091 86.3800 2125.00 2212.51 46.00
1092 86.4300 2170.00 2201.59 46.00
1093 86.4800 2190.00 2195.46 46.00
1094 86.5300 2230.00 2191.20 47.00
1095 86.5800 2189.00 2187.81 46.00
1096 86.6300 2100.00 2184.98 45.00
1097 86.6800 2073.00 2182.65 45.00
1098 86.7300 2155.00 2180.79 46.00
1099 86.7800 2202.00 2179.35 46.00
1100 86.8300 2167.00 2178.25 46.00
1101 86.8800 2116.00 2177.45 46.00
1102 86.9300 2165.00 2176.88 46.00
1103 86.9800 2227.00 2176.50 47.00
1104 87.0300 2171.00 2176.28 46.00
1105 87.0800 2171.00 2176.19 46.00
1106 87.1300 2127.00 2176.20 46.00
1107 87.1800 2077.00 2175.16 45.00
1108 87.2300 2124.00 2173.44 46.00
1109 87.2800 2191.00 2171.79 46.00
1110 87.3300 2217.00 2170.20 47.00
1111 87.3800 2291.00 2168.68 47.00
1112 87.4300 2307.00 2167.21 48.00
1113 87.4800 2237.00 2165.81 47.00
1114 87.5300 2256.00 2164.48 47.00
1115 87.5800 2259.00 2163.22 47.00
1116 87.6300 2258.00 2162.09 47.00
1117 87.6800 2150.00 2161.22 46.00
1118 87.7300 2213.00 2160.89 47.00
1119 87.7800 2120.00 2161.77 46.00
1120 87.8300 2166.00 2165.13 46.00
1121 87.8800 2165.00 2172.92 46.00
1122 87.9300 2123.00 2187.42 46.00
1123 87.9800 2172.00 2210.03 46.00
1124 88.0300 2210.00 2239.50 47.00
1125 88.0800 2204.00 2270.69 46.00
1126 88.1300 2231.00 2295.35 47.00
1127 88.1800 2276.00 2305.33 47.00
1128 88.2300 2281.00 2296.80 47.00
1129 88.2800 2225.00 2272.96 47.00
1130 88.3300 2144.00 2241.95 46.00
1131 88.3800 2206.00 2211.56 46.00
1132 88.4300 2163.00 2186.27 46.00
1133 88.4800 2154.00 2167.43 46.00
1134 88.5300 2104.00 2154.46 45.00
1135 88.5800 2115.00 2146.09 45.00
1136 88.6300 2132.00 2140.91 46.00
1137 88.6800 2130.00 2137.69 46.00
1138 88.7300 2115.00 2135.57 45.00
1139 88.7800 2180.00 2133.98 46.00
1140 88.8300 2135.00 2132.65 46.00
1141 88.8800 2138.00 2131.44 46.00
1142 88.9300 2106.00 2130.29 45.00
1143 88.9800 2065.00 2129.20 45.00
1144 89.0300 2077.00 2128.15 45.00
1145 89.0800 2216.00 2127.16 47.00
1146 89.1300 2124.00 2128.33 46.00
1147 89.1800 2115.00 2130.09 45.00
1148 89.2300 2103.00 2131.93 45.00
1149 89.2800 2100.00 2133.90 45.00
1150 89.3300 2143.00 2136.04 46.00
1151 89.3800 2089.00 2138.50 45.00
1152 89.4300 2174.00 2141.48 46.00
1153 89.4800 2169.00 2146.13 46.00
1154 89.5300 2162.00 2154.31 46.00
1155 89.5800 2193.00 2170.05 46.00
1156 89.6300 2191.00 2200.29 46.00
1157 89.6800 2181.00 2254.45 46.00
1158 89.7300 2344.00 2341.06 48.00
1159 89.7800 2426.00 2461.34 49.00
1160 89.8300 2560.00 2601.90 50.00
1161 89.8800 2687.00 2733.36 51.00
1162 89.9300 2894.00 2818.88 53.00
1163 89.9800 2800.00 2830.57 52.00
1164 90.0300 2725.00 2766.06 52.00
1165 90.0800 2580.00 2651.39 50.00
1166 90.1300 2417.00 2523.00 49.00
1167 90.1800 2288.00 2407.99 47.00
1168 90.2300 2285.00 2318.64 47.00
1169 90.2800 2319.00 2256.19 48.00
1170 90.3300 2191.00 2216.49 46.00
1171 90.3800 2114.00 2193.72 45.00
1172 90.4300 2143.00 2182.32 46.00
1173 90.4800 2178.00 2177.84 46.00
1174 90.5300 2239.00 2177.14 47.00
1175 90.5800 2249.00 2178.22 47.00
1176 90.6300 2162.00 2179.85 46.00
1177 90.6800 2113.00 2181.27 45.00
1178 90.7300 2191.00 2182.13 46.00
1179 90.7800 2227.00 2182.44 47.00
1180 90.8300 2204.00 2182.44 46.00
1181 90.8800 2202.00 2182.45 46.00
1182 90.9300 2154.00 2182.68 46.00
1183 90.9800 2216.00 2183.18 47.00
1184 91.0300 2202.00 2183.95 46.00
1185 91.0800 2200.00 2184.94 46.00
1186 91.1300 2192.00 2186.08 46.00
1187 91.1800 2139.00 2187.34 46.00
1188 91.2300 2117.00 2190.50 46.00
1189 91.2800 2217.00 2194.92 47.00
1190 91.3300 2223.00 2199.37 47.00
1191 91.3800 2254.00 2203.83 47.00
1192 91.4300 2232.00 2208.30 47.00
1193 91.4800 2183.00 2212.78 46.00
1194 91.5300 2119.00 2217.27 46.00
1195 91.5800 2115.00 2221.77 45.00
1196 91.6300 2216.00 2226.27 47.00
1197 91.6800 2243.00 2230.78 47.00
1198 91.7300 2219.00 2235.29 47.00
1199 91.7800 2190.00 2239.80 46.00
1200 91.8300 2207.00 2244.32 46.00
1201 91.8800 2266.00 2248.85 47.00
1202 91.9300 2246.00 2253.38 47.00
1203 91.9800 2244.00 2257.91 47.00
1204 92.0300 2331.00 2262.44 48.00
1205 92.0800 2357.00 2266.97 48.00
1206 92.1300 2299.00 2271.51 47.00
1207 92.1800 2293.00 2276.05 47.00
1208 92.2300 2194.00 2280.59 46.00
1209 92.2800 2253.00 2285.13 47.00
1210 92.3300 2252.00 2289.68 47.00
1211 92.3800 2306.00 2294.20 48.00
1212 92.4300 2284.00 2298.75 47.00
1213 92.4800 2272.00 2303.30 47.00
1214 92.5300 2289.00 2307.85 47.00
1215 92.5800 2355.00 2312.40 48.00
1216 92.6300 2342.00 2316.95 48.00
1217 92.6800 2177.00 2321.51 46.00
1218 92.7300 2304.00 2326.06 48.00
1219 92.7800 2392.00 2330.62 48.00
1220 92.8300 2358.00 2335.18 48.00
1221 92.8800 2347.00 2337.09 48.00
1222 92.9300 2345.00 2338.34 48.00
1223 92.9800 2284.00 2339.26 47.00
1224 96.9800 2657.00 2584.41 51.00
1225 97.0300 2758.00 2638.26 52.00
1226 97.0800 2817.00 2710.61 53.00
1227 97.1300 2815.00 2785.55 53.00
1228 97.1800 2929.00 2842.13 54.00
1229 97.2300 2886.00 2862.12 53.00
1230 97.2800 2829.00 2839.01 53.00
1231 97.3300 2711.00 2782.74 52.00
1232 97.3800 2676.00 2713.37 51.00
1233 97.4300 2630.00 2649.34 51.00
1234 97.4800 2580.00 2600.77 50.00
1235 97.5300 2660.00 2569.48 51.00
1236 97.5800 2614.00 2551.95 51.00
1237 97.6300 2533.00 2542.37 50.00
1238 97.6800 2591.00 2535.08 50.00
1239 97.7300 2605.00 2526.42 51.00
1240 97.7800 2520.00 2515.66 50.00
1241 97.8300 2481.00 2504.21 49.00
1242 97.8800 2483.00 2493.89 49.00
1243 97.9300 2364.00 2485.75 48.00
1244 97.9800 2477.00 2480.01 49.00
1245 98.0300 2493.00 2476.39 49.00
1246 98.0800 2513.00 2474.45 50.00
1247 98.1300 2521.00 2473.71 50.00
1248 98.1800 2559.00 2473.78 50.00
1249 98.2300 2550.00 2474.34 50.00
1250 98.2800 2460.00 2475.19 49.00
1251 98.3300 2520.00 2476.18 50.00
1252 98.3800 2532.00 2477.25 50.00
1253 98.4300 2426.00 2478.37 49.00
1254 98.4800 2474.00 2479.51 49.00
1255 98.5300 2488.00 2480.67 49.00
1256 98.5800 2526.00 2481.84 50.00
1257 98.6300 2454.00 2483.04 49.00
1258 98.6800 2439.00 2484.24 49.00
1259 98.7300 2481.00 2485.47 49.00
1260 98.7800 2419.00 2486.03 49.00
1261 98.8300 2506.00 2486.44 50.00
1262 98.8800 2460.00 2486.86 49.00
1263 98.9300 2516.00 2487.30 50.00
1264 98.9800 2473.00 2487.77 49.00
1265 99.0300 2500.00 2488.27 50.00
1266 99.0800 2506.00 2488.86 50.00
1267 99.1300 2591.00 2489.77 50.00
1268 99.1800 2434.00 2490.83 49.00
1269 99.2300 2420.00 2492.45 49.00
1270 99.2800 2455.00 2494.95 49.00
1271 99.3300 2493.00 2498.60 49.00
1272 99.3800 2483.00 2503.44 49.00
1273 99.4300 2478.00 2509.06 49.00
1274 99.4800 2447.00 2514.56 49.00
1275 99.5300 2524.00 2518.86 50.00
1276 99.5800 2490.00 2521.21 49.00
1277 99.6300 2495.00 2521.83 49.00
1278 99.6800 2590.00 2522.20 50.00
1279 99.7300 2610.00 2524.58 51.00
1280 99.7800 2521.00 2530.99 50.00
1281 99.8300 2437.00 2542.19 49.00
1282 99.8800 2520.00 2557.00 50.00
1283 99.9300 2607.00 2572.25 51.00
1284 99.9800 2637.00 2583.66 51.00
1285 100.0300 2595.00 2587.49 50.00
1286 100.0800 2629.00 2582.35 51.00
1287 100.1300 2583.00 2570.10 50.00
1288 100.1800 2552.00 2554.70 50.00
1289 100.2300 2559.00 2539.86 50.00
1290 100.2800 2570.00 2527.69 50.00
1291 100.3300 2573.00 2518.77 50.00
1292 100.3800 2544.00 2512.82 50.00
1293 100.4300 2543.00 2509.25 50.00
1294 100.4800 2525.00 2507.43 50.00
1295 100.5300 2478.00 2506.85 49.00
1296 100.5800 2523.00 2507.10 50.00
1297 100.6300 2508.00 2507.90 50.00
1298 100.6800 2559.00 2509.14 50.00
1299 100.7300 2586.00 2510.89 50.00
1300 100.7800 2603.00 2513.50 51.00
1301 100.8300 2495.00 2517.89 49.00
1302 100.8800 2622.00 2526.12 51.00
1303 100.9300 2568.00 2542.32 50.00
1304 100.9800 2659.00 2573.67 51.00
1305 101.0300 2695.00 2630.63 51.00
1306 101.0800 2866.00 2724.76 53.00
1307 101.1300 2958.00 2863.07 54.00
1308 101.1800 3044.00 3040.07 55.00
1309 101.2300 3276.00 3231.59 57.00
1310 101.2800 3263.00 3397.17 57.00
1311 101.3300 3505.00 3492.74 59.00
1312 101.3800 3537.00 3489.79 59.00
1313 101.4300 3338.00 3391.92 57.00
1314 101.4800 3108.00 3235.08 55.00
1315 101.5300 2943.00 3066.23 54.00
1316 101.5800 2933.00 2920.44 54.00
1317 101.6300 2765.00 2813.23 52.00
1318 101.6800 2711.00 2744.42 52.00
1319 101.7300 2623.00 2705.05 51.00
1320 101.7800 2633.00 2682.88 51.00
1321 101.8300 2705.00 2666.55 52.00
1322 101.8800 2599.00 2648.39 50.00
1323 101.9300 2587.00 2626.14 50.00
1324 101.9800 2530.00 2601.97 50.00
1325 102.0300 2531.00 2579.34 50.00
1326 102.0800 2515.00 2560.58 50.00
1327 102.1300 2492.00 2546.39 49.00
1328 102.1800 2517.00 2536.38 50.00
1329 102.2300 2578.00 2529.73 50.00
1330 102.2800 2491.00 2525.58 49.00
1331 102.3300 2563.00 2523.18 50.00
1332 102.3800 2624.00 2521.92 51.00
1333 102.4300 2619.00 2521.34 51.00
1334 102.4800 2577.00 2521.15 50.00
1335 102.5300 2561.00 2521.17 50.00
1336 102.5800 2539.00 2521.30 50.00
1337 102.6300 2604.00 2521.49 51.00
1338 102.6800 2594.00 2521.73 50.00
1339 102.7300 2536.00 2522.01 50.00
1340 102.7800 2499.00 2522.31 49.00
1341 102.8300 2544.00 2522.65 50.00
1342 102.8800 2573.00 2523.01 50.00
1343 102.9300 2598.00 2523.40 50.00
1344 102.9800 2546.00 2523.81 50.00
1345 103.0300 2597.00 2524.25 50.00
1346 103.0800 2522.00 2524.70 50.00
1347 103.1300 2538.00 2525.18 50.00
1348 103.1800 2541.00 2525.68 50.00
1349 103.2300 2596.00 2526.20 50.00
1350 103.2800 2519.00 2526.74 50.00
1351 103.3300 2606.00 2527.31 51.00
1352 103.3800 2624.00 2527.90 51.00
1353 103.4300 2562.00 2528.52 50.00
1354 103.4800 2521.00 2529.16 50.00
1355 103.5300 2545.00 2529.84 50.00
1356 103.5800 2561.00 2530.54 50.00
1357 103.6300 2565.00 2531.29 50.00
1358 103.6800 2496.00 2532.09 49.00
1359 103.7300 2577.00 2532.95 50.00
1360 103.7800 2534.00 2533.86 50.00
1361 103.8300 2524.00 2534.85 50.00
1362 103.8800 2581.00 2537.80 50.00
1363 103.9300 2557.00 2540.85 50.00
1364 103.9800 2487.00 2544.02 49.00
1365 104.0300 2567.00 2547.34 50.00
1366 104.0800 2539.00 2550.85 50.00
1367 104.1300 2481.00 2554.62 49.00
1368 104.1800 2573.00 2558.74 50.00
1369 104.2300 2472.00 2563.38 49.00
1370 104.2800 2458.00 2568.90 49.00
1371 104.3300 2523.00 2576.11 50.00
1372 104.3800 2637.00 2586.86 51.00
1373 104.4300 2699.00 2605.14 51.00
1374 104.4800 2750.00 2638.90 52.00
1375 104.5300 2747.00 2702.21 52.00
1376 104.5800 2859.00 2816.19 53.00
1377 104.6300 3052.00 3006.15 55.00
1378 104.6800 3311.00 3292.06 57.00
1379 104.7300 3672.00 3672.52 60.00
1380 104.7800 4210.00 4109.76 64.00
1381 104.8300 4621.00 4526.68 67.00
1382 104.8800 4951.00 4825.35 70.00
1383 104.9300 4937.00 4923.44 70.00
1384 104.9800 4601.00 4792.72 67.00
1385 105.0300 4338.00 4479.23 65.00
1386 105.0800 4132.00 4079.06 64.00
1387 105.1300 3649.00 3685.00 60.00
1388 105.1800 3330.00 3352.48 57.00
1389 105.2300 3131.00 3099.21 55.00
1390 105.2800 2941.00 2919.44 54.00
1391 105.3300 2767.00 2798.88 52.00
1392 105.3800 2708.00 2722.45 52.00
1393 105.4300 2714.00 2677.10 52.00
1394 105.4800 2633.00 2652.28 51.00
1395 105.5300 2611.00 2639.94 51.00
1396 105.5800 2625.00 2634.54 51.00
1397 105.6300 2549.00 2632.65 50.00
1398 105.6800 2590.00 2632.43 50.00
1399 105.7300 2622.00 2632.99 51.00
1400 105.7800 2671.00 2633.96 51.00
1401 105.8300 2594.00 2635.18 50.00
1402 105.8800 2582.00 2636.61 50.00
1403 105.9300 2604.00 2636.68 51.00
1404 105.9800 2663.00 2636.52 51.00
1405 106.0300 2694.00 2636.52 51.00
1406 106.0800 2683.00 2636.65 51.00
1407 106.1300 2643.00 2636.92 51.00
1408 106.1800 2589.00 2637.33 50.00
1409 106.2300 2638.00 2637.87 51.00
1410 106.2800 2617.00 2638.56 51.00
1411 110.4800 2740.00 2658.20 52.00
1412 110.5300 2678.00 2658.55 51.00
1413 110.5800 2697.00 2658.90 51.00
1414 110.6300 2677.00 2659.25 51.00
1415 110.6800 2770.00 2659.25 52.00
1416 110.7300 2638.00 2658.93 51.00
1417 110.7800 2663.00 2658.61 51.00
1418 110.8300 2681.00 2658.29 51.00
1419 110.8800 2692.00 2657.98 51.00
1420 110.9300 2619.00 2657.66 51.00
1421 110.9800 2652.00 2657.35 51.00
1422 111.0300 2572.00 2657.04 50.00
1423 111.0800 2679.00 2656.73 51.00
1424 111.1300 2579.00 2656.42 50.00
1425 111.1800 2557.00 2656.12 50.00
1426 111.2300 2669.00 2655.83 51.00
1427 111.2800 2641.00 2655.54 51.00
1428 111.3300 2611.00 2655.26 51.00
1429 111.3800 2699.00 2654.99 51.00
1430 111.4300 2664.00 2654.76 51.00
1431 111.4800 2597.00 2654.60 50.00
1432 111.5300 2694.00 2654.55 51.00
1433 111.5800 2714.00 2654.71 52.00
1434 111.6300 2644.00 2655.13 51.00
1435 111.6800 2676.00 2655.90 51.00
1436 111.7300 2668.00 2657.00 51.00
1437 111.7800 2580.00 2658.31 50.00
1438 111.8300 2780.00 2659.59 52.00
1439 111.8800 2715.00 2660.53 52.00
1440 111.9300 2637.00 2660.83 51.00
1441 111.9800 2647.00 2660.32 51.00
1442 112.0300 2604.00 2659.08 51.00
1443 112.0800 2553.00 2657.36 50.00
1444 112.1300 2542.00 2655.52 50.00
1445 112.1800 2516.00 2653.81 50.00
1446 112.2300 2581.00 2652.37 50.00
1447 112.2800 2549.00 2651.22 50.00
1448 112.3300 2620.00 2650.31 51.00
1449 112.3800 2661.00 2649.59 51.00
1450 112.4300 2612.00 2649.01 51.00
1451 112.4800 2643.00 2648.54 51.00
1452 112.5300 2641.00 2648.14 51.00
1453 112.5800 2602.00 2647.78 51.00
1454 112.6300 2658.00 2647.45 51.00
1455 112.6800 2653.00 2647.14 51.00
1456 112.7300 2658.00 2646.84 51.00
1457 112.7800 2615.00 2646.54 51.00
1458 112.8300 2562.00 2646.24 50.00
1459 112.8800 2609.00 2645.95 51.00
1460 112.9300 2649.00 2645.65 51.00
1461 112.9800 2648.00 2645.36 51.00
1462 113.0300 2587.00 2645.07 50.00
1463 113.0800 2595.00 2644.63 50.00
1464 113.1300 2638.00 2644.35 51.00
1465 113.1800 2704.00 2644.07 52.00
1466 113.2300 2643.00 2643.80 51.00
1467 113.2800 2672.00 2643.55 51.00
1468 113.3300 2628.00 2643.32 51.00
1469 113.3800 2691.00 2643.15 51.00
1470 113.4300 2630.00 2643.05 51.00
1471 113.4800 2615.00 2643.07 51.00
1472 113.5300 2613.00 2643.20 51.00
1473 113.5800 2768.00 2643.46 52.00
1474 113.6300 2664.00 2643.80 51.00
1475 113.6800 2607.00 2644.11 51.00
1476 113.7300 2627.00 2644.28 51.00
1477 113.7800 2566.00 2644.21 50.00
1478 113.8300 2649.00 2643.85 51.00
1479 113.8800 2753.00 2643.21 52.00
1480 113.9300 2632.00 2642.39 51.00
1481 113.9800 2737.00 2641.53 52.00
1482 114.0300 2766.00 2640.71 52.00
1483 114.0800 2649.00 2639.99 51.00
1484 114.1300 2595.00 2639.38 50.00
1485 114.1800 2680.00 2638.86 51.00
1486 114.2300 2638.00 2638.42 51.00
1487 114.2800 2551.00 2638.04 50.00
1488 114.3300 2630.00 2637.69 51.00
1489 114.3800 2663.00 2637.37 51.00
1490 114.4300 2636.00 2637.07 51.00
1491 114.4800 2536.00 2636.79 50.00
1492 114.5300 2590.00 2636.51 50.00
1493 114.5800 2601.00 2636.24 51.00
1494 114.6300 2662.00 2635.97 51.00
1495 114.6800 2654.00 2635.70 51.00
1496 114.7300 2666.00 2635.44 51.00
1497 114.7800 2595.00 2635.18 50.00
1498 114.8300 2642.00 2634.91 51.00
1499 114.8800 2668.00 2634.66 51.00
1500 114.9300 2687.00 2634.40 51.00
1501 114.9800 2624.00 2634.15 51.00
1502 115.0300 2663.00 2633.90 51.00
1503 115.0800 2663.00 2633.65 51.00
1504 115.1300 2587.00 2633.41 50.00
1505 115.1800 2555.00 2633.16 50.00
1506 115.2300 2721.00 2632.99 52.00
1507 115.2800 2704.00 2632.76 52.00
1508 115.3300 2680.00 2632.54 51.00
1509 115.3800 2613.00 2632.31 51.00
1510 115.4300 2633.00 2632.10 51.00
1511 115.4800 2642.00 2631.89 51.00
1512 115.5300 2752.00 2631.69 52.00
1513 115.5800 2651.00 2631.50 51.00
1514 115.6300 2656.00 2631.31 51.00
1515 115.6800 2635.00 2631.15 51.00
1516 115.7300 2560.00 2630.83 50.00
1517 115.7800 2704.00 2630.69 52.00
1518 115.8300 2702.00 2630.57 51.00
1519 115.8800 2626.00 2630.47 51.00
1520 115.9300 2595.00 2630.40 50.00
1521 115.9800 2651.00 2630.37 51.00
1522 116.0300 2565.00 2630.38 50.00
1523 116.0800 2513.00 2630.45 50.00
1524 116.1300 2506.00 2630.61 50.00
1525 116.1800 2464.00 2630.91 49.00
1526 116.2300 2557.00 2631.44 50.00
1527 116.2800 2664.00 2632.40 51.00
1528 116.3300 2649.00 2634.18 51.00
1529 116.3800 2593.00 2637.54 50.00
1530 116.4300 2684.00 2643.82 51.00
1531 116.4800 2756.00 2655.19 52.00
1532 116.5300 2743.00 2674.77 52.00
1533 116.5800 2775.00 2706.28 52.00
1534 116.6300 2646.00 2753.09 51.00
1535 116.6800 2808.00 2816.56 52.00
1536 116.7300 2905.00 2894.03 53.00
1537 116.7800 2975.00 2977.50 54.00
1538 116.8300 3049.00 3054.17 55.00
1539 116.8800 3152.00 3109.14 56.00
1540 116.9300 3012.00 3130.05 54.00
1541 116.9800 2979.00 3111.62 54.00
1542 117.0300 2994.00 3058.52 54.00
1543 117.0800 2919.00 2983.99 54.00
1544 117.1300 2765.00 2903.95 52.00
1545 117.1800 2739.00 2830.76 52.00
1546 117.2300 2641.00 2770.76 51.00
1547 117.2800 2719.00 2725.04 52.00
1548 117.3300 2670.00 2691.81 51.00
1549 117.3800 2689.00 2668.31 51.00
1550 117.4300 2570.00 2652.00 50.00
1551 117.4800 2666.00 2640.94 51.00
1552 117.5300 2606.00 2633.67 51.00
1553 117.5800 2621.00 2629.06 51.00
1554 117.6300 2587.00 2626.20 50.00
1555 117.6800 2567.00 2624.44 50.00
1556 117.7300 2607.00 2623.30 51.00
1557 117.7800 2581.00 2622.50 50.00
1558 117.8300 2605.00 2621.88 51.00
1559 117.8800 2540.00 2621.34 50.00
1560 117.9300 2600.00 2620.87 50.00
1561 117.9800 2626.00 2620.43 51.00
1562 118.0300 2690.00 2620.02 51.00
1563 118.0800 2726.00 2619.64 52.00
1564 118.1300 2744.00 2619.29 52.00
1565 118.1800 2736.00 2618.96 52.00
1566 118.2300 2565.00 2618.66 50.00
1567 118.2800 2660.00 2618.39 51.00
1568 118.3300 2703.00 2618.14 51.00
1569 118.3800 2707.00 2620.53 52.00
1570 118.4300 2725.00 2633.36 52.00
1571 118.4800 2768.00 2646.22 52.00
1572 118.5300 2763.00 2659.11 52.00
1573 118.5800 2646.00 2672.04 51.00
1574 118.6300 2745.00 2685.00 52.00
1575 118.6800 2678.00 2698.01 51.00
1576 118.7300 2743.00 2711.07 52.00
1577 118.7800 2696.00 2724.20 51.00
1578 118.8300 2719.00 2737.42 52.00
1579 118.8800 2739.00 2750.77 52.00
1580 118.9300 2733.00 2764.32 52.00
1581 118.9800 2778.00 2778.22 52.00
1582 119.0300 2801.00 2792.77 52.00
1583 119.0800 2823.00 2808.51 53.00
1584 119.1300 2771.00 2826.42 52.00
1585 119.1800 2857.00 2848.14 53.00
1586 119.2300 2898.00 2876.11 53.00
1587 119.2800 2952.00 2913.50 54.00
1588 119.3300 2973.00 2963.75 54.00
1589 119.3800 3149.00 3029.37 56.00
1590 119.4300 3120.00 3110.41 55.00
1591 119.4800 3167.00 3202.84 56.00
1592 119.5300 3290.00 3297.88 57.00
1593 119.5800 3497.00 3382.95 59.00
1594 119.6300 3582.00 3444.59 59.00
1595 119.6800 3519.00 3472.51 59.00
1596 119.7300 3513.00 3463.41 59.00
1597 119.7800 3443.00 3423.06 58.00
1598 119.8300 3437.00 3364.79 58.00
1599 119.8800 3327.00 3304.35 57.00
1600 119.9300 3234.00 3255.03 56.00
1601 119.9800 3241.00 3225.76 56.00
1602 124.7800 3080.00 3030.58 55.00
1603 124.8300 3160.00 3026.05 56.00
1604 124.8800 3079.00 3022.82 55.00
1605 124.9300 3042.00 3020.59 55.00
1606 124.9800 3040.00 3019.11 55.00
1607 125.0300 2990.00 3018.23 54.00
1608 125.0800 3013.00 3017.13 54.00
1609 125.1300 2999.00 3016.03 54.00
1610 125.1800 2972.00 3015.44 54.00
1611 125.2300 3097.00 3015.52 55.00
1612 125.2800 3076.00 3016.58 55.00
1613 125.3300 3038.00 3019.30 55.00
1614 125.3800 3107.00 3024.85 55.00
1615 125.4300 3116.00 3035.17 55.00
1616 125.4800 3148.00 3053.24 56.00
1617 125.5300 3135.00 3083.23 55.00
1618 125.5800 3206.00 3130.24 56.00
1619 125.6300 3109.00 3199.63 55.00
1620 125.6800 3236.00 3295.48 56.00
1621 125.7300 3390.00 3418.43 58.00
1622 125.7800 3493.00 3563.69 59.00
1623 125.8300 3645.00 3719.66 60.00
1624 125.8800 4020.00 3868.30 63.00
1625 125.9300 4183.00 3988.27 64.00
1626 125.9800 4158.00 4059.26 64.00
1627 126.0300 4091.00 4067.75 63.00
1628 126.0800 3951.00 4011.45 62.00
1629 126.1300 3808.00 3901.29 61.00
1630 126.1800 3704.00 3758.56 60.00
1631 126.2300 3628.00 3607.83 60.00
1632 126.2800 3418.00 3469.34 58.00
1633 126.3300 3331.00 3354.93 57.00
1634 126.3800 3270.00 3267.99 57.00
1635 126.4300 3184.00 3205.72 56.00
1636 126.4800 3177.00 3162.13 56.00
1637 126.5300 3089.00 3130.69 55.00
1638 126.5800 3121.00 3105.98 55.00
1639 126.6300 3122.00 3084.34 55.00
1640 126.6800 3037.00 3063.85 55.00
1641 126.7300 3030.00 3044.09 55.00
1642 126.7800 3127.00 3025.55 55.00
1643 126.8300 3033.00 3008.98 55.00
1644 126.8800 2954.00 2994.93 54.00
1645 126.9300 2990.00 2983.53 54.00
1646 126.9800 3013.00 2974.53 54.00
1647 127.0300 2984.00 2967.50 54.00
1648 127.0800 2940.00 2961.95 54.00
1649 127.1300 2926.00 2957.46 54.00
1650 127.1800 2919.00 2953.71 54.00
1651 127.2300 2998.00 2950.49 54.00
1652 127.2800 3046.00 2947.67 55.00
1653 127.3300 2982.00 2945.15 54.00
1654 127.3800 2927.00 2942.88 54.00
1655 127.4300 2933.00 2940.68 54.00
1656 127.4800 2870.00 2938.59 53.00
1657 127.5300 2947.00 2936.58 54.00
1658 127.5800 2994.00 2934.64 54.00
1659 127.6300 3013.00 2932.74 54.00
1660 127.6800 2956.00 2930.86 54.00
1661 127.7300 3000.00 2929.01 54.00
1662 127.7800 3023.00 2927.18 54.00
1663 127.8300 2902.00 2925.37 53.00
1664 127.8800 2877.00 2923.57 53.00
1665 127.9300 2952.00 2921.79 54.00
1666 127.9800 2973.00 2920.01 54.00
1667 128.0300 2814.00 2918.25 53.00
1668 128.0800 2852.00 2916.50 53.00
1669 128.1300 2891.00 2914.75 53.00
1670 128.1800 2887.00 2913.02 53.00
1671 128.2300 2769.00 2911.29 52.00
1672 128.2800 2851.00 2909.57 53.00
1673 128.3300 2985.00 2907.85 54.00
1674 128.3800 2867.00 2906.15 53.00
1675 128.4300 2793.00 2904.44 52.00
1676 128.4800 2897.00 2902.74 53.00
1677 128.5300 2865.00 2901.05 53.00
1678 128.5800 2998.00 2899.36 54.00
1679 128.6300 2900.00 2897.69 53.00
1680 128.6800 2889.00 2896.01 53.00
1681 128.7300 2897.00 2894.34 53.00
1682 128.7800 2874.00 2892.66 53.00
1683 128.8300 2850.00 2890.99 53.00
1684 128.8800 2867.00 2889.32 53.00
1685 128.9300 2807.00 2887.66 52.00
1686 128.9800 2836.00 2886.00 53.00
1687 129.0300 2807.00 2884.34 52.00
1688 129.0800 2881.00 2882.68 53.00
1689 129.1300 2882.00 2881.03 53.00
1690 129.1800 2924.00 2879.37 54.00
1691 129.2300 2926.00 2877.72 54.00
1692 129.2800 2857.00 2876.08 53.00
1693 129.3300 2967.00 2874.43 54.00
1694 129.3800 2967.00 2872.79 54.00
1695 129.4300 2941.00 2871.15 54.00
1696 129.4800 2779.00 2869.51 52.00
1697 129.5300 2807.00 2867.84 52.00
1698 129.5800 2784.00 2866.20 52.00
1699 129.6300 2856.00 2864.57 53.00
1700 129.6800 2858.00 2862.94 53.00
1701 129.7300 2763.00 2861.34 52.00
1702 129.7800 2809.00 2859.71 53.00
1703 129.8300 2905.00 2858.08 53.00
1704 129.8800 2826.00 2856.46 53.00
1705 129.9300 2894.00 2854.84 53.00
1706 129.9800 2854.00 2854.29 53.00
1707 130.0300 2784.00 2855.34 52.00
1708 130.0800 2819.00 2856.39 53.00
1709 130.1300 2888.00 2857.45 53.00
1710 130.1800 2896.00 2858.51 53.00
1711 130.2300 2839.00 2859.57 53.00
1712 130.2800 2880.00 2860.63 53.00
1713 130.3300 2816.00 2861.69 53.00
1714 130.3800 2825.00 2862.76 53.00
1715 130.4300 2871.00 2863.83 53.00
1716 130.4800 2924.00 2864.85 54.00
1717 130.5300 2796.00 2865.93 52.00
1718 130.5800 2822.00 2867.01 53.00
1719 130.6300 2886.00 2868.09 53.00
1720 130.6800 2820.00 2869.18 53.00
1721 130.7300 2924.00 2870.27 54.00
1722 130.7800 2949.00 2871.37 54.00
1723 130.8300 2846.00 2872.47 53.00
1724 130.8800 2858.00 2873.57 53.00
1725 130.9300 2819.00 2874.68 53.00
1726 130.9800 2852.00 2875.79 53.00
1727 131.0300 2816.00 2876.91 53.00
1728 131.0800 2802.00 2878.04 52.00
1729 131.1300 2778.00 2879.18 52.00
1730 131.1800 2806.00 2880.33 52.00
1731 131.2300 2820.00 2881.48 53.00
1732 131.2800 2827.00 2882.67 53.00
1733 131.3300 2970.00 2883.89 54.00
1734 131.3800 2862.00 2885.15 53.00
1735 131.4300 2843.00 2886.49 53.00
1736 131.4800 2774.00 2887.93 52.00
1737 131.5300 2858.00 2889.51 53.00
1738 131.5800 2796.00 2891.28 53.00
1739 131.6300 2824.00 2893.27 53.00
1740 131.6800 2940.00 2895.51 54.00
1741 131.7300 2939.00 2898.00 54.00
1742 131.7800 2897.00 2900.71 54.00
1743 131.8300 2890.00 2903.53 54.00
1744 131.8800 2948.00 2906.33 55.00
1745 131.9300 3004.00 2908.94 56.00
1746 131.9800 2969.00 2911.20 55.00
1747 132.0300 3031.00 2912.97 56.00
1748 132.0800 2960.00 2914.18 55.00
1749 132.1300 2934.00 2914.86 55.00
1750 132.1800 2958.00 2915.11 56.00
1751 132.2300 2922.00 2915.14 55.00
1752 132.2800 2907.00 2915.15 55.00
1753 132.3300 2924.00 2915.32 56.00
1754 132.3800 2970.00 2915.78 56.00
1755 132.4300 2879.00 2916.62 55.00
1756 132.4800 2969.00 2917.85 56.00
1757 132.5300 2861.00 2919.52 55.00
1758 132.5800 2924.00 2921.66 56.00
1759 132.6300 2932.00 2924.67 56.00
1760 132.6800 2851.00 2929.61 56.00
1761 132.7300 2926.00 2935.82 57.00
1762 132.7800 3008.00 2944.05 57.00
1763 132.8300 2901.00 2955.48 56.00
1764 132.8800 2962.00 2971.92 57.00
1765 132.9300 3009.00 2995.94 58.00
1766 132.9800 3037.00 3031.03 58.00
1767 133.0300 3066.00 3081.41 59.00
1768 133.0800 3038.00 3151.76 58.00
1769 133.1300 3144.00 3246.36 60.00
1770 133.1800 3308.00 3367.96 61.00
1771 133.2300 3552.00 3516.49 64.00
1772 133.2800 3692.00 3687.32 65.00
1773 133.3300 3916.00 3870.85 67.00
1774 133.3800 4234.00 4052.26 70.00
1775 133.4300 4385.00 4213.34 71.00
1776 133.4800 4527.00 4335.21 73.00
1777 133.5300 4494.00 4401.47 72.00
1778 133.5800 4415.00 4402.21 72.00
1779 133.6300 4244.00 4336.62 71.00
1780 133.6800 4157.00 4214.16 70.00
1781 133.7300 3983.00 4052.82 69.00
1782 133.7800 3734.00 3875.15 67.00
1783 133.8300 3731.00 3702.45 67.00
1784 133.8800 3618.00 3550.90 66.00
1785 133.9300 3516.00 3429.46 65.00
1786 133.9800 3300.00 3340.46 63.00
1787 134.0300 3265.00 3281.22 63.00
1788 134.0800 3185.00 3246.13 62.00
1789 134.1300 3231.00 3228.48 63.00
1790 134.1800 3205.00 3221.81 63.00
1791 134.2300 3246.00 3220.65 63.00
1792 134.2800 3308.00 3220.89 64.00
1793 134.3300 3143.00 3219.96 62.00
1794 134.3800 3199.00 3216.89 63.00
1795 134.4300 3275.00 3212.45 64.00
1796 134.4800 3239.00 3209.22 64.00
1797 134.5300 3224.00 3211.40 64.00
1798 134.5800 3281.00 3224.40 64.00
1799 134.6300 3273.00 3254.21 64.00
1800 134.6800 3263.00 3306.63 64.00
1801 134.7300 3346.00 3386.53 65.00
1802 134.7800 3444.00 3496.79 66.00
1803 134.8300 3506.00 3637.17 67.00
1804 134.8800 3692.00 3803.45 69.00
1805 134.9300 3949.00 3986.39 72.00
1806 134.9800 4226.00 4172.34 74.00
1807 135.0300 4551.00 4343.86 77.00
1808 135.0800 4782.00 4482.01 79.00
1809 135.1300 4811.00 4569.59 80.00
1810 135.1800 4798.00 4594.13 80.00
1811 135.2300 4620.00 4550.94 78.00
1812 135.2800 4481.00 4444.68 77.00
1813 135.3300 4194.00 4289.09 75.00
1814 135.3800 3992.00 4104.15 73.00
1815 135.4300 3882.00 3911.67 72.00
1816 135.4800 3631.00 3730.01 70.00
1817 135.5300 3497.00 3571.94 69.00
1818 135.5800 3524.00 3443.33 69.00
1819 135.6300 3407.00 3344.50 68.00
1820 135.6800 3291.00 3271.87 67.00
1821 135.7300 3210.00 3220.03 67.00
1822 135.7800 3261.00 3183.48 67.00
1823 135.8300 3158.00 3157.54 66.00
1824 135.8800 3134.00 3138.80 66.00
1825 135.9300 3107.00 3125.02 66.00
1826 135.9800 3140.00 3114.87 67.00
1827 136.0300 3070.00 3107.57 66.00
1828 136.0800 3055.00 3102.58 66.00
1829 136.1300 3120.00 3099.50 67.00
1830 136.1800 3125.00 3097.92 67.00
1831 136.2300 3091.00 3097.49 67.00
1832 136.2800 3034.00 3097.90 66.00
1833 136.3300 3127.00 3095.18 67.00
1834 136.3800 3063.00 3092.84 67.00
1835 136.4300 3179.00 3090.73 68.00
1836 136.4800 3187.00 3088.76 68.00
1837 136.5300 3183.00 3086.88 68.00
1838 136.5800 3086.00 3085.05 68.00
1839 140.5800 2982.00 2983.29 78.00
1840 140.6300 2985.00 2985.04 78.00
1841 140.6800 3079.00 2988.11 80.00
1842 140.7300 3014.00 2993.73 79.00
1843 140.7800 2887.00 3001.74 77.00
1844 140.8300 2986.00 3012.42 79.00
1845 140.8800 2957.00 3026.17 79.00
1846 140.9300 3054.00 3043.27 80.00
1847 140.9800 3095.00 3063.75 81.00
1848 141.0300 3063.00 3087.28 80.00
1849 141.0800 2996.00 3113.10 80.00
1850 141.1300 3106.00 3139.99 81.00
1851 141.1800 3166.00 3166.33 82.00
1852 141.2300 3230.00 3190.21 83.00
1853 141.2800 3290.00 3209.60 84.00
1854 141.3300 3312.00 3222.64 85.00
1855 141.3800 3352.00 3227.90 85.00
1856 141.4300 3258.00 3224.60 84.00
1857 141.4800 3228.00 3212.81 84.00
1858 141.5300 3082.00 3193.50 82.00
1859 141.5800 3073.00 3168.45 82.00
1860 141.6300 3099.00 3139.98 83.00
1861 141.6800 3009.00 3110.54 82.00
1862 141.7300 2966.00 3082.35 81.00
1863 141.7800 3046.00 3057.10 83.00
1864 141.8300 3098.00 3035.85 84.00
1865 141.8800 2954.00 3019.02 82.00
1866 141.9300 2864.00 3006.56 81.00
1867 141.9800 3039.00 2998.08 83.00
1868 142.0300 3074.00 2993.04 84.00
1869 142.0800 3002.00 2990.95 83.00
1870 142.1300 3003.00 2991.42 83.00
1871 142.1800 2882.00 2994.21 82.00
1872 142.2300 2983.00 2999.26 83.00
1873 142.2800 3106.00 3006.60 85.00
1874 142.3300 3049.00 3016.29 85.00
1875 142.3800 3058.00 3028.30 85.00
1876 142.4300 3101.00 3042.47 86.00
1877 142.4800 3125.00 3058.38 86.00
1878 142.5300 3119.00 3075.37 86.00
1879 142.5800 3141.00 3092.49 87.00
1880 142.6300 3154.00 3108.62 87.00
1881 142.6800 3252.00 3122.49 89.00
1882 142.7300 3178.00 3132.89 88.00
1883 142.7800 3255.00 3138.77 89.00
1884 142.8300 3240.00 3139.41 89.00
1885 142.8800 3173.00 3134.55 88.00
1886 142.9300 3179.00 3124.43 89.00
1887 142.9800 3073.00 3109.83 87.00
1888 143.0300 3147.00 3091.98 89.00
1889 143.0800 3027.00 3072.35 87.00
1890 143.1300 3105.00 3052.44 88.00
1891 143.1800 3025.00 3033.55 87.00
1892 143.2300 2930.00 3016.65 86.00
1893 143.2800 2970.00 3002.32 87.00
1894 143.3300 2967.00 2990.75 87.00
1895 143.3800 2955.00 2981.82 87.00
1896 143.4300 2977.00 2975.20 88.00
1897 143.4800 2921.00 2970.44 87.00
1898 143.5300 2938.00 2967.09 87.00
1899 143.5800 3124.00 2964.72 90.00
1900 143.6300 2895.00 2963.00 87.00
1901 143.6800 2898.00 2961.67 87.00
1902 143.7300 2936.00 2960.57 88.00
1903 143.7800 2979.00 2959.61 89.00
1904 143.8300 2890.00 2958.75 88.00
1905 143.8800 3014.00 2957.96 90.00
1906 143.9300 2900.00 2957.26 88.00
1907 143.9800 3000.00 2956.62 90.00
1908 144.0300 3002.00 2956.06 90.00
1909 144.0800 2982.00 2955.56 90.00
1910 144.1300 2985.00 2955.12 90.00
1911 144.1800 2866.00 2954.98 89.00
1912 144.2300 2942.00 2955.04 90.00
1913 144.2800 2892.00 2955.12 90.00
1914 144.3300 2958.00 2955.22 91.00
1915 144.3800 2971.00 2955.34 91.00
1916 144.4300 2964.00 2955.46 91.00
1917 144.4800 2949.00 2955.59 91.00
1918 144.5300 2978.00 2955.72 92.00
1919 144.5800 3020.00 2955.86 93.00
1920 144.6300 3039.00 2956.00 93.00
1921 144.6800 2961.00 2956.14 92.00
1922 144.7300 3007.00 2956.29 93.00
1923 144.7800 3014.00 2956.44 94.00
1924 144.8300 2896.00 2956.59 92.00
1925 144.8800 2943.00 2956.74 93.00
1926 144.9300 3093.00 2956.90 95.00
1927 144.9800 3007.00 2957.06 94.00
1928 145.0300 2929.00 2957.22 93.00
1929 145.0800 2882.00 2957.39 93.00
1930 145.1300 3011.00 2957.56 95.00
1931 145.1800 2902.00 2957.74 93.00
1932 145.2300 2889.00 2957.92 93.00
1933 145.2800 2991.00 2958.10 95.00
1934 145.3300 2985.00 2958.28 95.00
1935 145.3800 3006.00 2958.47 96.00
1936 145.4300 3063.00 2958.67 97.00
1937 145.4800 2945.00 2958.87 95.00
1938 145.5300 2832.00 2959.08 94.00
1939 145.5800 3001.00 2959.29 97.00
1940 145.6300 3031.00 2959.51 97.00
1941 145.6800 3007.00 2959.74 97.00
1942 145.7300 2954.00 2959.97 97.00
1943 145.7800 2970.00 2960.22 97.00
1944 145.8300 2872.00 2960.47 96.00
1945 145.8800 3043.00 2960.75 99.00
1946 145.9300 3180.00 2961.03 101.00
1947 145.9800 3041.00 2961.34 99.00
1948 146.0300 2928.00 2961.68 97.00
1949 146.0800 3023.00 2962.04 99.00
1950 146.1300 2925.00 2962.45 98.00
1951 146.1800 2917.00 2962.92 98.00
1952 146.2300 2909.00 2963.46 98.00
1953 146.2800 2961.00 2964.11 99.00
1954 146.3300 3042.00 2964.92 101.00
1955 146.3800 2983.00 2966.20 100.00
1956 146.4300 3051.00 2968.87 101.00
1957 146.4800 3066.00 2971.85 102.00
1958 146.5300 3044.00 2975.45 102.00
1959 146.5800 3026.00 2979.79 101.00
1960 146.6300 2974.00 2985.08 101.00
1961 146.6800 3016.00 2991.60 102.00
1962 146.7300 2884.00 2999.66 100.00
1963 146.7800 2989.00 3009.63 102.00
1964 146.8300 2973.00 3021.85 102.00
1965 146.8800 2986.00 3036.67 102.00
1966 146.9300 3132.00 3054.33 105.00
1967 146.9800 3015.00 3075.03 103.00
1968 147.0300 3053.00 3098.74 104.00
1969 147.0800 2931.00 3125.23 102.00
1970 147.1300 2982.00 3154.00 103.00
1971 147.1800 3166.00 3184.26 107.00
1972 147.2300 3236.00 3214.95 108.00
1973 147.2800 3224.00 3244.74 108.00
1974 147.3300 3228.00 3272.15 108.00
1975 147.3800 3347.00 3295.64 111.00
1976 147.4300 3385.00 3313.71 112.00
1977 147.4800 3390.00 3325.14 112.00
1978 147.5300 3449.00 3328.98 113.00
1979 147.5800 3225.00 3324.83 110.00
1980 147.6300 3252.00 3312.81 110.00
1981 147.6800 3166.00 3293.64 109.00
1982 147.7300 3112.00 3268.57 108.00
1983 147.7800 3065.00 3239.28 108.00
1984 147.8300 3234.00 3207.70 111.00
1985 147.8800 3076.00 3175.76 109.00
1986 147.9300 3123.00 3145.23 110.00
1987 147.9800 3028.00 3117.45 108.00
1988 148.0300 3080.00 3093.41 109.00
1989 148.0800 2971.00 3073.58 108.00
1990 148.1300 3123.00 3058.08 111.00
1991 148.1800 3149.00 3046.64 111.00
1992 148.2300 3046.00 3038.76 110.00
1993 148.2800 3119.00 3033.84 111.00
1994 148.3300 2870.00 3031.20 107.00
1995 148.3800 2983.00 3030.22 109.00
1996 148.4300 2933.00 3030.35 109.00
1997 148.4800 3079.00 3031.16 112.00
1998 148.5300 2979.00 3032.33 110.00
1999 148.5800 3111.00 3033.65 113.00
2000 148.6300 3187.00 3034.92 115.00
2001 148.6800 3232.00 3036.26 116.00
2002 148.7300 3193.00 3037.58 115.00
2003 148.7800 3053.00 3038.90 113.00
2004 148.8300 2975.00 3040.26 112.00
2005 148.8800 3138.00 3041.67 115.00
2006 148.9300 2950.00 3043.18 112.00
2007 148.9800 3049.00 3044.80 114.00
2008 149.0300 3115.00 3046.55 115.00
2009 149.0800 3048.00 3048.44 114.00
2010 149.1300 3001.00 3050.47 114.00
2011 149.1800 2869.00 3052.63 112.00
2012 149.2300 2981.00 3054.91 114.00
2013 149.2800 3008.00 3057.31 115.00
2014 149.3300 2965.00 3059.79 114.00
2015 149.3800 3088.00 3062.32 117.00
2016 149.4300 3011.00 3064.87 116.00
2017 149.4800 2915.00 3067.39 114.00
2018 149.5300 3009.00 3069.83 116.00
2019 149.5800 3060.00 3072.15 117.00
2020 149.6300 3087.00 3074.29 118.00
2021 149.6800 3050.00 3076.21 118.00
2022 149.7300 3134.00 3077.88 120.00
2023 149.7800 3084.00 3079.29 119.00
2024 149.8300 3070.00 3080.41 119.00
2025 149.8800 3087.00 3081.28 120.00
2026 149.9300 3036.00 3081.91 119.00
2027 149.9800 3106.00 3082.36 121.00
2028 150.0300 3198.00 3082.68 123.00
2029 150.0800 3123.00 3082.93 122.00
2030 150.1300 3146.00 3083.18 122.00
2031 150.1800 3054.00 3083.48 121.00
2032 150.2300 3119.00 3083.88 122.00
2033 150.2800 3077.00 3084.42 122.00
2034 150.3300 3179.00 3085.10 124.00
2035 150.3800 3159.00 3085.94 124.00
2036 150.4300 3048.00 3086.93 122.00
2037 150.4800 3067.00 3088.06 123.00
2038 150.5300 3178.00 3089.31 125.00
2039 150.5800 3018.00 3090.66 123.00
2040 150.6300 3071.00 3092.08 124.00
2041 150.6800 3165.00 3093.55 126.00
2042 150.7300 2970.00 3095.06 122.00
2043 150.7800 3139.00 3096.59 126.00
2044 150.8300 3233.00 3098.13 128.00
2045 150.8800 3092.00 3099.68 126.00
2046 150.9300 3072.00 3101.22 126.00
2047 150.9800 3152.00 3102.77 128.00
2048 151.0300 3073.00 3104.30 127.00
2049 151.0800 3047.00 3105.84 126.00
2050 151.1300 3093.00 3107.37 128.00
2051 151.1800 3089.00 3108.91 128.00
2052 151.2300 3099.00 3110.44 128.00
2053 151.2800 3190.00 3111.97 131.00
2054 151.3300 3207.00 3113.51 131.00
2055 151.3800 3133.00 3115.05 130.00
2056 151.4300 3161.00 3116.59 131.00
2057 151.4800 3235.00 3118.13 133.00
2058 151.5300 3105.00 3119.68 130.00
2059 151.5800 3057.00 3121.23 130.00
2060 151.6300 3082.00 3122.78 131.00
2061 151.6800 3054.00 3124.33 130.00
2062 151.7300 3074.00 3125.88 131.00
loop_
_pd_proc_info_excluded_regions
'from 0.95 to 10.0: inclined inset'
'from 34.6 to 42.1: container and side-phase reflection'
'from 53.8 to 57.6: container reflection'
'from 67.35 to 72.9: container reflection'
'from 76 to 77.3: side-phase reflection'
'from 80.9 to 84.3: container reflection'
'from 93 to 96.9: container reflection'
'from 106.3 to 110.4: container reflection'
'from 120 to 124.7: container reflection'
'from 136.6 to 140.5: container reflection'
'from 151.75 to 152.05: tailing'
loop_
_refln_index_h
_refln_index_k
_refln_index_l
_refln_F_squared_calc
_refln_F_squared_meas
_refln_include_status
_refln_d_spacing
0 0 3 16.56 16.55 o 6.216596
0 0 6 787.06 792.91 o 3.108298
1 0 1 54.65 57.70 o 2.991015
1 -1 2 811.43 807.07 o 2.881893
0 0 9 128.38 125.39 o 2.072198
1 0 7 2.65 0.57 < 2.000864
1 -1 8 3.06 2.81 < 1.847704
2 -1 0 15.15 15.20 o 1.749510
1 0 10 471.48 460.56 o 1.588274
0 0 12 0.10 0.03 < 1.554149
2 -1 6 525.56 528.26 o 1.524601
2 -2 1 42.47 41.12 o 1.510145
2 0 2 549.71 553.21 o 1.495508
1 -1 11 0.17 0.15 < 1.479589
2 -2 4 11.15 8.23 o 1.440947
2 0 5 69.46 75.20 o 1.403731
1 0 13 109.51 100.12 o 1.296630
2 0 8 3.89 3.19 < 1.270386
1 -1 14 272.26 278.90 o 1.219491
3 -1 1 31.39 34.17 o 1.143169
3 -2 2 376.69 367.41 o 1.136781
2 0 11 0.31 0.22 o 1.129742
3 -1 4 11.65 7.44 o 1.112256
3 -2 5 51.81 47.34 o 1.094870
1 0 16 1.17 0.54 < 1.087902
1 -1 17 83.05 86.39 o 1.031527
3 -2 8 5.18 4.88 o 1.027962
2 -1 15 2.56 1.77 < 1.013462
3 0 0 14.85 16.53 o 1.010080
2 0 14 194.60 184.68 o 1.000432
3 -3 3 10.30 8.37 o 0.997005
3 0 3 10.30 8.37 o 0.997005
3 -1 10 220.68 220.42 o 0.975974
1 0 19 2.20 0.66 < 0.933799
2 -2 16 0.81 1.16 < 0.923852
3 -3 9 52.19 43.15 o 0.907957
3 0 9 52.19 43.15 o 0.907957
3 -1 13 57.27 62.97 o 0.895064
4 -2 0 14.16 55.46 < 0.874755
3 -2 14 128.15 127.53 o 0.868466
4 -2 3 8.19 7.67 o 0.866221
3 -3 12 1.43 1.70 < 0.846924
3 0 12 1.43 1.70 < 0.846924
4 -2 6 163.09 165.28 o 0.842045
4 -3 1 18.38 17.44 o 0.839585
4 -1 2 173.28 178.04 o 0.837044
4 -1 5 30.01 26.52 o 0.819883
3 -1 16 0.06 0.08 o 0.816944
1 0 22 51.55 62.97 o 0.816374
4 -2 9 39.78 31.45 o 0.805892
4 -3 7 1.54 1.20 < 0.801505
#BEGIN Loops that were not found in dictionaries:
loop_
_jana_atom_site_adp_c_label
_jana_atom_site_adp_c_type_symbol
_jana_atom_site_adp_c_111
_jana_atom_site_adp_c_112
_jana_atom_site_adp_c_113
_jana_atom_site_adp_c_122
_jana_atom_site_adp_c_123
_jana_atom_site_adp_c_133
_jana_atom_site_adp_c_222
_jana_atom_site_adp_c_223
_jana_atom_site_adp_c_233
_jana_atom_site_adp_c_333
Li1 Li 0 0 0 0 0 0 0 0 0 0
loop_
_jana_atom_site_adp_d_label
_jana_atom_site_adp_d_type_symbol
_jana_atom_site_adp_d_1111
_jana_atom_site_adp_d_1112
_jana_atom_site_adp_d_1113
_jana_atom_site_adp_d_1122
_jana_atom_site_adp_d_1123
_jana_atom_site_adp_d_1133
_jana_atom_site_adp_d_1222
_jana_atom_site_adp_d_1223
_jana_atom_site_adp_d_1233
_jana_atom_site_adp_d_1333
_jana_atom_site_adp_d_2222
_jana_atom_site_adp_d_2223
_jana_atom_site_adp_d_2233
_jana_atom_site_adp_d_2333
_jana_atom_site_adp_d_3333
Li1 Li 11(2) 5.7(10) 0 5.7(10) 0 0.078(19) 5.7(10) 0 0.039(10) 0 11(2) 0
0.078(19) 0 0
#END Loops that were not found in dictionaries
