#------------------------------------------------------------------------------
#$Date: 2016-02-13 21:28:24 +0200 (Sat, 13 Feb 2016) $
#$Revision: 176429 $
#$URL: svn://www.crystallography.net/cod/cif/1/51/96/1519664.cif $
#------------------------------------------------------------------------------
#
# This file is available in the Crystallography Open Database (COD),
# http://www.crystallography.net/
#
# All data on this site have been placed in the public domain by the
# contributors.
#
data_1519664
loop_
_publ_author_name
'Wiedemann, Dennis'
'Islam, Mazharul M.'
'Nakhal, Suliman'
'Senyshyn, Anatoliy'
'Bredow, Thomas'
'Lerch, Martin'
_publ_section_title
;
 Lithium Diffusion Pathways in 3R-LixTiS2: A Combined Neutron Diffraction
 and Computational Study
;
_journal_issue                   21
_journal_name_full               'The Journal of Physical Chemistry C'
_journal_page_first              11370
_journal_paper_doi               10.1021/acs.jpcc.5b01166
_journal_volume                  119
_journal_year                    2015
_chemical_compound_source        synthetic
_chemical_formula_iupac          'Li0.70 Ti S2 (hR3.7)'
_chemical_formula_sum            'Li0.7 S2 Ti'
_chemical_formula_weight         116.9
_chemical_name_systematic
' lithium titanium disulfide (lithium deficient)'
_space_group_IT_number           166
_symmetry_cell_setting           trigonal
_symmetry_Int_Tables_number      166
_symmetry_space_group_name_Hall  '-R 3 2"'
_symmetry_space_group_name_H-M   'R -3 m :H'
_atom_sites_solution_hydrogens   notdet
_atom_sites_solution_primary     other
_atom_sites_solution_secondary   notdet
_cell_angle_alpha                90
_cell_angle_beta                 90
_cell_angle_gamma                120
_cell_formula_units_Z            3
_cell_length_a                   3.49658(8)
_cell_length_b                   3.49658(8)
_cell_length_c                   18.6529(7)
_cell_measurement_temperature    973
_cell_volume                     197.499(10)
_computing_cell_refinement       'JANA2006 (Pet\<r\'i\<cek, 2014)'
_computing_data_collection       'CARESS (HZB, 2013)'
_computing_data_reduction        'DATAPARSER (Senyshyn, 2011)'
_computing_molecular_graphics    'Diamond (Brandenburg, 2013)'
_computing_publication_material  'JANA2006 (Pet\<r\'i\<cek, 2014)'
_computing_structure_refinement  'JANA2006 (Pet\<r\'i\<cek, 2014)'
_computing_structure_solution    'ICSD (Bergerhoff, 1987)'
_diffrn_ambient_environment      vacuum
_diffrn_ambient_temperature      973
_diffrn_detector                 '^3^He counter'
_diffrn_detector_details
; curved position-sensitive detector-array of 80 counter tubes, height: 300 mm,
resolution: 3 mm (B. Krimmer, R. Gilles, K. Zeitelhack, R. Schneider,
G. Montermann, H. Boysen, H. Fuess, Appl. Phys. A: Mater. Sci. Process.
2002, 74, S154-S156)
;
_diffrn_measurement_device       'one-circle powder diffractometer'
_diffrn_measurement_device_details
; M. Hoelzel, A. Senyshyn, N. Juenke, H. Boysen, W. Schmahl, H. Fuess,
Nucl. Instrum. Methods Phys. Res., Sect. A 2012, 667, 32-37
;
_diffrn_measurement_device_type  SPODI
_diffrn_measurement_method       'profile data from \q/2\q scans'
_diffrn_radiation_monochromator  'Ge 551'
_diffrn_radiation_probe          neutron
_diffrn_radiation_type           neutron
_diffrn_radiation_wavelength     1.54829
_diffrn_source                   'nuclear reactor'
_diffrn_source_type              'FRM II beamline 8a'
_exptl_absorpt_coefficient_mu    0.074
_exptl_absorpt_correction_type   cylinder
_exptl_absorpt_process_details
; correction for a cylindrical sample with \mR = 0.178 as
implemented in JANA2006
;
_exptl_crystal_density_diffrn    2.9476
_exptl_crystal_density_method    'not measured'
_exptl_crystal_F_000             3.0
_pd_char_atten_coef_mu_calc      0.048
_pd_char_colour                  black
_pd_instr_2theta_monochr_pre     155
_pd_instr_beam_size_ax           100
_pd_instr_beam_size_eq           25
_pd_instr_dist_mono/spec         5000
_pd_instr_dist_spec/detc         1120
_pd_instr_dist_src/mono          17500
_pd_instr_geometry               Debye-Scherrer
_pd_instr_location
; SPODI diffractometer, Heinz Maier-Leibnitz Zentrum,
Garching b. M\"unchen (Germany)
;
_pd_instr_monochr_pre_spec       'Ge 551'
_pd_instr_soller_eq_spec/detc    0.16667
_pd_meas_2theta_range_inc        0.05
_pd_meas_2theta_range_max        151.900
_pd_meas_2theta_range_min        0.950
_pd_meas_number_of_points        3020
_pd_meas_scan_method             step
_pd_proc_2theta_range_inc        0.05
_pd_proc_2theta_range_max        151.7
_pd_proc_2theta_range_min        10.05
_pd_proc_info_data_reduction
; efficiency/intensity correction and 2\q scattering-angle correction for each
detector-collimator pair, geometrical data correction with Lorentz factor,
variable integration height to obtain 1D data:
H~L~=(R^2^*sin(4\q))/(H~S~*cos^2^(2\q))*\D2\q+H~S~/2
with H~L~: limiting height, H~S~: sample height, R: detector radius
(M. Hoelzel, A. Senyshyn, N. Juenke, H. Boysen, W. Schmahl, H. Fuess,
Nucl. Instrum. Methods Phys. Res., Sect. A 2012, 667, 32-37)
;
_pd_proc_ls_background_function
; manual background (visual estimation, unrefined) interpolated by five
Legendre polynomials (1st: 8.8(12), 2nd: -2(3), 3rd: 16(3), 4th: -6(3),
5th: -7(4))
;
_pd_proc_ls_pref_orient_corr
' March-Dollase model for (001): r = 1.040(4)'
_pd_proc_ls_profile_function
; pseudo-Voigt profile with Thompson-Cox-Hastings approach:
G~U~ = 99(3), G~V~ = -164, G~W~ = 243(3), L~X~ = 3.2(3), L~Y~ = 0,
B\'erar-Baldinozzi asymmetry correction:
A~0~ = -0.073(7), A~1~ = 0.266
;
_pd_proc_ls_prof_R_factor        0.0274
_pd_proc_ls_prof_wR_expected     0.0312
_pd_proc_ls_prof_wR_factor       0.0324
_pd_spec_mounting                'compacted powder in niobium can'
_pd_spec_mount_mode              transmission
_pd_spec_orientation             vertical
_pd_spec_shape                   cylinder
_pd_spec_size_axial              40
_pd_spec_size_equat              7.5
_refine_diff_density_max         0.13
_refine_diff_density_min         -0.13
_refine_ls_extinction_method     none
_refine_ls_goodness_of_fit_all   1.04
_refine_ls_hydrogen_treatment    undef
_refine_ls_number_constraints    0
_refine_ls_number_parameters     23
_refine_ls_number_restraints     0
_refine_ls_R_factor_all          0.0366
_refine_ls_R_factor_gt           0.0239
_refine_ls_R_I_factor            0.0291
_refine_ls_shift/su_max          0.0075
_refine_ls_shift/su_mean         0.0019
_refine_ls_weighting_details     w=1/[\s^2^(F~o~)+(0.01F~o~)^2^]
_refine_ls_weighting_scheme      sigma
_refine_ls_wR_factor_all         0.0277
_refine_ls_wR_factor_gt          0.0263
_reflns_threshold_expression     I>3\s(I)
_cod_data_source_file            jp5b01166_si_003.cif
_cod_data_source_block           0.7-700C
_cod_depositor_comments
'Adding full bibliography for 1519661--1519664.cif.'
_cod_original_cell_volume        197.499(13)
_cod_original_sg_symbol_H-M      'R -3 m'
_cod_original_formula_sum        'Li0.70 S2 Ti1'
_cod_database_code               1519664
loop_
_space_group_symop_id
_space_group_symop_operation_xyz
1 x,y,z
2 -y,x-y,z
3 -x+y,-x,z
4 y,x,-z
5 x-y,-y,-z
6 -x,-x+y,-z
7 -x,-y,-z
8 y,-x+y,-z
9 x-y,x,-z
10 -y,-x,z
11 -x+y,y,z
12 x,x-y,z
13 x+2/3,y+1/3,z+1/3
14 -y+2/3,x-y+1/3,z+1/3
15 -x+y+2/3,-x+1/3,z+1/3
16 y+2/3,x+1/3,-z+1/3
17 x-y+2/3,-y+1/3,-z+1/3
18 -x+2/3,-x+y+1/3,-z+1/3
19 -x+2/3,-y+1/3,-z+1/3
20 y+2/3,-x+y+1/3,-z+1/3
21 x-y+2/3,x+1/3,-z+1/3
22 -y+2/3,-x+1/3,z+1/3
23 -x+y+2/3,y+1/3,z+1/3
24 x+2/3,x-y+1/3,z+1/3
25 x+1/3,y+2/3,z+2/3
26 -y+1/3,x-y+2/3,z+2/3
27 -x+y+1/3,-x+2/3,z+2/3
28 y+1/3,x+2/3,-z+2/3
29 x-y+1/3,-y+2/3,-z+2/3
30 -x+1/3,-x+y+2/3,-z+2/3
31 -x+1/3,-y+2/3,-z+2/3
32 y+1/3,-x+y+2/3,-z+2/3
33 x-y+1/3,x+2/3,-z+2/3
34 -y+1/3,-x+2/3,z+2/3
35 -x+y+1/3,y+2/3,z+2/3
36 x+1/3,x-y+2/3,z+2/3
loop_
_atom_site_label
_atom_site_type_symbol
_atom_site_fract_x
_atom_site_fract_y
_atom_site_fract_z
_atom_site_adp_type
_atom_site_U_iso_or_equiv
_atom_site_site_symmetry_multiplicity
_atom_site_occupancy
_atom_site_calc_flag
Ti1 Ti 0 0 0 Uani 0.0394(15) 3 1 d
Li1 Li 0 0 0.5 Uani 0.158(10) 3 0.7 d
S1 S 0 0 0.2568(3) Uani 0.0349(13) 6 1 d
loop_
_atom_site_aniso_label
_atom_site_aniso_type_symbol
_atom_site_aniso_U_11
_atom_site_aniso_U_22
_atom_site_aniso_U_33
_atom_site_aniso_U_12
_atom_site_aniso_U_13
_atom_site_aniso_U_23
Ti1 Ti 0.0330(9) 0.0330(9) 0.052(4) 0.0165(5) 0 0
Li1 Li 0.175(13) 0.175(13) 0.123(15) 0.088(7) 0 0
S1 S 0.0274(7) 0.0274(7) 0.050(4) 0.0137(3) 0 0
loop_
_atom_type_symbol
_atom_type_scat_length_neutron
_atom_type_scat_source
Ti -3.438 International_Tables_Vol_C
Li -1.900 International_Tables_Vol_C
S 2.847 International_Tables_Vol_C
loop_
_geom_angle_atom_site_label_1
_geom_angle_atom_site_label_2
_geom_angle_atom_site_label_3
_geom_angle_site_symmetry_1
_geom_angle_site_symmetry_3
_geom_angle
S1 Ti1 S1 25_444 25_544 90.00(9)
S1 Ti1 S1 25_444 25_554 90.00(9)
S1 Ti1 S1 25_444 16_445 90.00(9)
S1 Ti1 S1 25_444 16_455 90.00(9)
S1 Ti1 S1 25_444 16_555 180.0(5)
S1 Ti1 S1 25_544 25_554 90.00(9)
S1 Ti1 S1 25_544 16_445 90.00(9)
S1 Ti1 S1 25_544 16_455 180.0(5)
S1 Ti1 S1 25_544 16_555 90.00(9)
S1 Ti1 S1 25_554 16_445 180.0(5)
S1 Ti1 S1 25_554 16_455 90.00(9)
S1 Ti1 S1 25_554 16_555 90.00(9)
S1 Ti1 S1 16_445 16_455 90.00(9)
S1 Ti1 S1 16_445 16_555 90.00(9)
S1 Ti1 S1 16_455 16_555 90.00(9)
S1 Li1 S1 13_445 13_455 83.44(9)
S1 Li1 S1 13_445 13_555 83.44(9)
S1 Li1 S1 13_445 28_445 96.56(9)
S1 Li1 S1 13_445 28_545 96.56(9)
S1 Li1 S1 13_445 28_555 180.0(5)
S1 Li1 S1 13_455 13_555 83.44(9)
S1 Li1 S1 13_455 28_445 96.56(9)
S1 Li1 S1 13_455 28_545 180.0(5)
S1 Li1 S1 13_455 28_555 96.56(9)
S1 Li1 S1 13_555 28_445 180.0(5)
S1 Li1 S1 13_555 28_545 96.56(9)
S1 Li1 S1 13_555 28_555 96.56(9)
S1 Li1 S1 28_445 28_545 83.44(9)
S1 Li1 S1 28_445 28_555 83.44(9)
S1 Li1 S1 28_545 28_555 83.44(9)
loop_
_geom_bond_atom_site_label_1
_geom_bond_atom_site_label_2
_geom_bond_site_symmetry_2
_geom_bond_distance
Ti1 S1 25_444 2.472(3)
Ti1 S1 25_544 2.472(3)
Ti1 S1 25_554 2.472(3)
Ti1 S1 16_445 2.472(3)
Ti1 S1 16_455 2.472(3)
Ti1 S1 16_555 2.472(3)
Li1 S1 13_445 2.627(3)
Li1 S1 13_455 2.627(3)
Li1 S1 13_555 2.627(3)
Li1 S1 28_445 2.627(3)
Li1 S1 28_545 2.627(3)
Li1 S1 28_555 2.627(3)
loop_
_pd_proc_point_id
_pd_proc_2theta_corrected
_pd_proc_intensity_net
_pd_calc_intensity_net
_pd_proc_ls_weight
1 10.0400 972.00 973.08 114.00
2 10.0900 986.00 972.24 115.00
3 10.1400 1027.00 971.40 117.00
4 10.1900 1056.00 970.56 118.00
5 10.2400 968.00 969.72 113.00
6 10.2900 995.00 968.88 114.00
7 10.3400 1114.00 968.04 120.00
8 10.3900 1044.00 967.20 116.00
9 10.4400 1118.00 966.36 120.00
10 10.4900 1055.00 965.52 116.00
11 10.5400 1056.00 964.68 115.00
12 10.5900 1142.00 963.84 120.00
13 10.6400 984.00 963.00 111.00
14 10.6900 867.00 962.16 104.00
15 10.7400 1022.00 961.32 112.00
16 10.7900 968.00 960.48 109.00
17 10.8400 997.00 959.64 110.00
18 10.8900 992.00 958.80 109.00
19 10.9400 1007.00 957.97 110.00
20 10.9900 969.00 957.13 108.00
21 11.0400 975.00 956.29 108.00
22 11.0900 1001.00 955.45 109.00
23 11.1400 857.00 954.61 100.00
24 11.1900 923.00 953.77 104.00
25 11.2400 1021.00 952.93 109.00
26 11.2900 989.00 952.09 107.00
27 11.3400 935.00 951.25 103.00
28 11.3900 959.00 950.41 104.00
29 11.4400 1005.00 949.58 107.00
30 11.4900 943.00 948.74 103.00
31 11.5400 1052.00 947.90 108.00
32 11.5900 954.00 947.06 103.00
33 11.6400 978.00 946.22 104.00
34 11.6900 988.00 945.39 104.00
35 11.7400 997.00 944.55 104.00
36 11.7900 873.00 943.71 97.00
37 11.8400 975.00 942.88 103.00
38 11.8900 897.00 942.04 98.00
39 11.9400 827.00 941.20 94.00
40 11.9900 935.00 940.37 100.00
41 12.0400 895.00 939.53 97.00
42 12.0900 847.00 938.70 94.00
43 12.1400 1020.00 937.86 103.00
44 12.1900 959.00 937.03 100.00
45 12.2400 865.00 936.20 94.00
46 12.2900 825.00 935.37 92.00
47 12.3400 865.00 934.54 94.00
48 12.3900 1012.00 933.71 101.00
49 12.4400 957.00 932.88 98.00
50 12.4900 937.00 932.05 97.00
51 12.5400 938.00 931.23 97.00
52 12.5900 972.00 930.40 98.00
53 12.6400 936.00 929.58 96.00
54 12.6900 905.00 928.76 94.00
55 12.7400 943.00 927.94 96.00
56 12.7900 989.00 927.13 98.00
57 12.8400 972.00 926.32 97.00
58 12.8900 944.00 925.51 95.00
59 12.9400 900.00 924.70 93.00
60 12.9900 866.00 923.90 91.00
61 13.0400 1061.00 923.11 100.00
62 13.0900 1050.00 922.32 99.00
63 13.1400 985.00 921.54 96.00
64 13.1900 958.00 920.77 94.00
65 13.2400 940.00 920.01 93.00
66 13.2900 1029.00 919.27 97.00
67 13.3400 887.00 918.54 90.00
68 13.3900 818.00 917.84 86.00
69 13.4400 943.00 917.16 92.00
70 13.4900 814.00 916.53 85.00
71 13.5400 880.00 915.95 89.00
72 13.5900 847.00 915.48 87.00
73 13.6400 916.00 915.21 90.00
74 13.6900 916.00 915.39 90.00
75 13.7400 950.00 916.65 91.00
76 13.7900 970.00 920.39 92.00
77 13.8400 994.00 929.36 93.00
78 13.8900 947.00 948.09 90.00
79 13.9400 960.00 982.26 91.00
80 13.9900 999.00 1036.19 92.00
81 14.0400 1041.00 1108.38 94.00
82 14.0900 1138.00 1187.67 98.00
83 14.1400 1161.00 1254.00 99.00
84 14.1900 1150.00 1285.90 98.00
85 14.2400 1228.00 1271.64 101.00
86 14.2900 1232.00 1217.01 101.00
87 14.3400 1060.00 1142.36 93.00
88 14.3900 1050.00 1069.30 93.00
89 14.4400 980.00 1010.25 89.00
90 14.4900 977.00 967.85 89.00
91 14.5400 915.00 939.38 86.00
92 14.5900 895.00 921.00 84.00
93 14.6400 858.00 909.53 83.00
94 14.6900 907.00 902.66 85.00
95 14.7400 878.00 898.63 83.00
96 14.7900 888.00 896.20 83.00
97 14.8400 857.00 894.57 82.00
98 14.8900 797.00 893.29 78.00
99 14.9400 867.00 892.17 82.00
100 14.9900 919.00 891.11 84.00
101 15.0400 905.00 890.08 83.00
102 15.0900 839.00 889.08 80.00
103 15.1400 886.00 888.09 82.00
104 15.1900 889.00 887.12 82.00
105 15.2400 918.00 886.17 83.00
106 15.2900 994.00 885.23 86.00
107 15.3400 907.00 884.31 82.00
108 15.3900 872.00 883.39 80.00
109 15.4400 823.00 882.48 78.00
110 15.4900 846.00 881.58 78.00
111 15.5400 822.00 880.68 77.00
112 15.5900 798.00 879.79 76.00
113 15.6400 830.00 878.90 77.00
114 15.6900 840.00 878.02 77.00
115 15.7400 785.00 877.14 75.00
116 15.7900 866.00 876.26 78.00
117 15.8400 881.00 875.39 79.00
118 15.8900 855.00 874.51 77.00
119 15.9400 816.00 873.64 75.00
120 15.9900 859.00 872.77 77.00
121 16.0400 932.00 871.91 80.00
122 16.0900 873.00 871.04 77.00
123 16.1400 791.00 870.17 74.00
124 16.1900 775.00 869.31 73.00
125 16.2400 859.00 868.45 76.00
126 16.2900 867.00 867.59 76.00
127 16.3400 904.00 866.73 78.00
128 16.3900 849.00 865.86 75.00
129 16.4400 796.00 865.01 73.00
130 16.4900 867.00 864.15 76.00
131 16.5400 880.00 863.29 76.00
132 16.5900 877.00 862.43 76.00
133 16.6400 803.00 861.57 72.00
134 16.6900 804.00 860.72 72.00
135 16.7400 839.00 859.86 74.00
136 16.7900 878.00 859.00 75.00
137 16.8400 924.00 858.15 77.00
138 16.8900 918.00 857.29 76.00
139 16.9400 864.00 856.43 74.00
140 16.9900 760.00 855.58 69.00
141 17.0400 822.00 854.72 72.00
142 17.0900 1007.00 853.87 79.00
143 17.1400 853.00 853.01 73.00
144 17.1900 892.00 852.16 74.00
145 17.2400 864.00 851.30 73.00
146 17.2900 952.00 850.45 76.00
147 17.3400 921.00 849.60 75.00
148 17.3900 838.00 848.74 71.00
149 17.4400 877.00 847.89 73.00
150 17.4900 907.00 847.03 74.00
151 17.5400 883.00 846.18 73.00
152 17.5900 824.00 845.33 70.00
153 17.6400 819.00 844.47 70.00
154 17.6900 843.00 843.62 71.00
155 17.7400 883.00 842.77 72.00
156 17.7900 827.00 841.91 70.00
157 17.8400 914.00 841.06 73.00
158 17.8900 762.00 840.21 66.00
159 17.9400 768.00 839.35 67.00
160 17.9900 825.00 838.50 69.00
161 18.0400 824.00 837.65 69.00
162 18.0900 803.00 836.79 68.00
163 18.1400 782.00 835.94 67.00
164 18.1900 796.00 835.09 67.00
165 18.2400 875.00 834.56 70.00
166 18.2900 863.00 834.11 69.00
167 18.3400 825.00 833.66 68.00
168 18.3900 862.00 833.21 69.00
169 18.4400 891.00 832.77 70.00
170 18.4900 764.00 832.32 65.00
171 18.5400 811.00 831.87 67.00
172 18.5900 855.00 831.42 68.00
173 18.6400 767.00 830.97 64.00
174 18.6900 811.00 830.53 66.00
175 18.7400 823.00 830.08 66.00
176 18.7900 867.00 829.63 68.00
177 18.8400 837.00 829.18 67.00
178 18.8900 815.00 828.73 66.00
179 18.9400 816.00 828.29 66.00
180 18.9900 808.00 827.84 65.00
181 19.0400 803.00 827.39 65.00
182 19.0900 825.00 826.94 66.00
183 19.1400 810.00 826.49 65.00
184 19.1900 781.00 826.05 63.00
185 19.2400 861.00 825.60 67.00
186 19.2900 809.00 825.15 64.00
187 19.3400 799.00 824.70 64.00
188 19.3900 851.00 824.25 66.00
189 19.4400 816.00 823.81 64.00
190 19.4900 808.00 823.36 64.00
191 19.5400 851.00 822.91 65.00
192 19.5900 926.00 822.46 68.00
193 19.6400 822.00 822.01 64.00
194 19.6900 880.00 821.57 66.00
195 19.7400 799.00 821.12 63.00
196 19.7900 840.00 820.67 64.00
197 19.8400 812.00 820.22 63.00
198 19.8900 778.00 819.77 61.00
199 19.9400 776.00 819.32 61.00
200 19.9900 833.00 818.87 63.00
201 20.0400 757.00 818.43 60.00
202 20.0900 821.00 817.98 63.00
203 20.1400 795.00 817.53 61.00
204 20.1900 821.00 817.08 62.00
205 20.2400 857.00 816.63 64.00
206 20.2900 835.00 816.18 63.00
207 20.3400 783.00 815.73 60.00
208 20.3900 877.00 815.29 64.00
209 20.4400 817.00 814.84 62.00
210 20.4900 773.00 814.39 60.00
211 20.5400 834.00 813.94 62.00
212 20.5900 838.00 813.49 62.00
213 20.6400 764.00 813.04 59.00
214 20.6900 800.00 812.59 60.00
215 20.7400 827.00 812.14 61.00
216 20.7900 765.00 811.70 59.00
217 20.8400 774.00 811.25 59.00
218 20.8900 775.00 810.80 59.00
219 20.9400 820.00 810.35 60.00
220 20.9900 832.00 809.90 61.00
221 21.0400 825.00 809.45 60.00
222 21.0900 774.00 809.00 58.00
223 21.1400 801.00 808.55 59.00
224 21.1900 801.00 808.10 59.00
225 21.2400 764.00 807.65 58.00
226 21.2900 826.00 807.20 60.00
227 21.3400 793.00 806.75 58.00
228 21.3900 784.00 806.30 58.00
229 21.4400 764.00 805.86 57.00
230 21.4900 785.00 805.41 58.00
231 21.5400 859.00 804.96 60.00
232 21.5900 819.00 804.51 59.00
233 21.6400 828.00 804.28 59.00
234 21.6900 770.00 803.82 57.00
235 21.7400 807.00 803.37 58.00
236 21.7900 795.00 802.93 57.00
237 21.8400 767.00 802.48 56.00
238 21.8900 761.00 802.03 56.00
239 21.9400 741.00 801.59 55.00
240 21.9900 822.00 801.14 58.00
241 22.0400 759.00 800.70 56.00
242 22.0900 850.00 800.25 59.00
243 22.1400 805.00 799.81 57.00
244 22.1900 805.00 799.36 57.00
245 22.2400 782.00 798.91 56.00
246 22.2900 762.00 798.47 55.00
247 22.3400 813.00 798.02 57.00
248 22.3900 813.00 797.58 57.00
249 22.4400 749.00 797.13 54.00
250 22.4900 788.00 796.69 56.00
251 22.5400 814.00 796.24 56.00
252 22.5900 725.00 795.80 53.00
253 22.6400 729.00 795.35 53.00
254 22.6900 814.00 794.91 56.00
255 22.7400 764.00 794.46 54.00
256 22.7900 767.00 794.07 54.00
257 22.8400 818.00 793.63 56.00
258 22.8900 849.00 793.18 57.00
259 22.9400 778.00 792.74 54.00
260 22.9900 808.00 792.30 55.00
261 23.0400 770.00 791.85 54.00
262 23.0900 809.00 791.41 55.00
263 23.1400 761.00 790.97 53.00
264 23.1900 783.00 790.53 54.00
265 23.2400 834.00 790.08 55.00
266 23.2900 792.00 789.64 54.00
267 23.3400 744.00 789.20 52.00
268 23.3900 754.00 788.76 52.00
269 23.4400 816.00 788.31 54.00
270 23.4900 811.00 787.87 54.00
271 23.5400 801.00 787.43 54.00
272 23.5900 750.00 786.99 52.00
273 23.6400 787.00 786.55 53.00
274 23.6900 794.00 786.11 53.00
275 23.7400 837.00 785.67 55.00
276 23.7900 754.00 785.54 52.00
277 23.8400 833.00 785.62 54.00
278 23.8900 771.00 785.71 52.00
279 23.9400 763.00 785.79 52.00
280 23.9900 796.00 786.61 53.00
281 24.0400 796.00 786.71 53.00
282 24.0900 779.00 786.80 52.00
283 24.1400 735.00 786.90 50.00
284 24.1900 743.00 787.00 50.00
285 24.2400 767.00 787.09 51.00
286 24.2900 756.00 787.19 51.00
287 24.3400 770.00 787.29 51.00
288 24.3900 794.00 787.39 52.00
289 24.4400 809.00 787.49 52.00
290 24.4900 765.00 787.59 51.00
291 24.5400 779.00 787.69 51.00
292 24.5900 791.00 787.79 51.00
293 24.6400 755.00 787.90 50.00
294 24.6900 745.00 788.00 50.00
295 24.7400 717.00 788.11 49.00
296 24.7900 723.00 788.21 49.00
297 24.8400 804.00 788.32 51.00
298 24.8900 752.00 788.43 49.00
299 24.9400 829.00 788.54 52.00
300 24.9900 762.00 788.65 50.00
301 25.0400 762.00 788.76 50.00
302 25.0900 809.00 788.88 51.00
303 25.1400 839.00 788.99 52.00
304 25.1900 784.00 789.11 50.00
305 25.2400 788.00 789.23 50.00
306 25.2900 756.00 789.35 49.00
307 25.3400 847.00 789.47 52.00
308 25.3900 826.00 789.59 51.00
309 25.4400 853.00 789.72 52.00
310 25.4900 828.00 789.85 51.00
311 25.5400 806.00 789.98 50.00
312 25.5900 806.00 790.11 50.00
313 25.6400 854.00 790.24 51.00
314 25.6900 828.00 790.38 50.00
315 25.7400 744.00 790.52 48.00
316 25.7900 814.00 790.67 50.00
317 25.8400 773.00 790.81 48.00
318 25.8900 805.00 790.96 49.00
319 25.9400 786.00 791.11 49.00
320 25.9900 829.00 791.27 50.00
321 26.0400 770.00 791.43 48.00
322 26.0900 854.00 791.60 50.00
323 26.1400 833.00 791.77 50.00
324 26.1900 840.00 791.94 50.00
325 26.2400 792.00 792.12 48.00
326 26.2900 816.00 792.30 49.00
327 26.3400 803.00 792.49 48.00
328 26.3900 865.00 792.69 50.00
329 26.4400 864.00 792.90 50.00
330 26.4900 828.00 793.11 49.00
331 26.5400 824.00 793.33 49.00
332 26.5900 785.00 793.56 47.00
333 26.6400 785.00 793.80 47.00
334 26.6900 813.00 794.04 48.00
335 26.7400 874.00 794.30 50.00
336 26.7900 842.00 794.58 49.00
337 26.8400 779.00 794.86 47.00
338 26.8900 785.00 795.17 47.00
339 26.9400 791.00 795.49 47.00
340 26.9900 809.00 795.82 47.00
341 27.0400 810.00 796.18 47.00
342 27.0900 734.00 796.56 45.00
343 27.1400 757.00 796.97 46.00
344 27.1900 746.00 797.40 45.00
345 27.2400 783.00 797.87 46.00
346 27.2900 793.00 798.37 46.00
347 27.3400 729.00 798.91 44.00
348 27.3900 802.00 799.50 47.00
349 27.4400 718.00 800.15 44.00
350 27.4900 829.00 800.86 47.00
351 27.5400 797.00 801.63 46.00
352 27.5900 805.00 802.50 46.00
353 27.6400 797.00 803.46 46.00
354 27.6900 801.00 804.53 46.00
355 27.7400 824.00 805.75 47.00
356 27.7900 837.00 807.14 47.00
357 27.8400 812.00 808.73 46.00
358 27.8900 791.00 810.58 45.00
359 27.9400 719.00 812.77 43.00
360 27.9900 764.00 815.39 44.00
361 28.0400 822.00 818.65 46.00
362 28.0900 825.00 822.94 46.00
363 28.1400 878.00 829.27 47.00
364 28.1900 910.00 840.27 48.00
365 28.2400 961.00 862.58 50.00
366 28.2900 957.00 911.17 49.00
367 28.3400 1242.00 1015.27 56.00
368 28.3900 1466.00 1222.18 61.00
369 28.4400 1768.00 1590.60 67.00
370 28.4900 2202.00 2164.51 75.00
371 28.5400 2978.00 2929.79 87.00
372 28.5900 3764.00 3777.70 97.00
373 28.6400 4511.00 4512.07 106.00
374 28.6900 4997.00 4915.99 112.00
375 28.7400 4886.00 4855.41 110.00
376 28.7900 4346.00 4364.05 104.00
377 28.8400 3652.00 3622.00 95.00
378 28.8900 2703.00 2836.50 81.00
379 28.9400 2031.00 2151.86 70.00
380 28.9900 1605.00 1631.87 62.00
381 29.0400 1203.00 1279.43 54.00
382 29.0900 1013.00 1064.30 49.00
383 29.1400 872.00 945.60 46.00
384 29.1900 820.00 886.12 44.00
385 29.2400 824.00 858.73 44.00
386 29.2900 816.00 846.95 44.00
387 29.3400 904.00 842.50 46.00
388 29.3900 885.00 842.45 46.00
389 29.4400 897.00 847.52 46.00
390 29.4900 936.00 862.01 47.00
391 29.5400 921.00 894.54 46.00
392 29.5900 1009.00 958.02 48.00
393 29.6400 1049.00 1066.14 49.00
394 29.6900 1250.00 1225.13 54.00
395 29.7400 1443.00 1422.84 58.00
396 29.7900 1608.00 1623.39 61.00
397 29.8400 1782.00 1774.77 64.00
398 29.8900 1707.00 1829.54 62.00
399 29.9400 1709.00 1770.37 62.00
400 29.9900 1693.00 1622.40 62.00
401 30.0400 1525.00 1435.55 59.00
402 30.0900 1243.00 1255.26 53.00
403 30.1400 1149.00 1108.57 51.00
404 30.1900 1047.00 1004.33 48.00
405 30.2400 1010.00 939.35 47.00
406 30.2900 924.00 904.80 45.00
407 30.3400 883.00 891.06 44.00
408 30.3900 855.00 890.68 43.00
409 30.4400 840.00 899.70 43.00
410 30.4900 898.00 919.01 44.00
411 30.5400 1042.00 957.52 48.00
412 30.5900 1189.00 1040.38 51.00
413 30.6400 1471.00 1224.06 56.00
414 30.6900 1952.00 1615.52 65.00
415 30.7400 2630.00 2379.93 75.00
416 30.7900 3988.00 3707.51 93.00
417 30.8400 5811.00 5714.13 112.00
418 30.8900 8020.00 8296.22 131.00
419 30.9400 10875.00 11034.00 153.00
420 30.9900 13082.00 13252.00 167.00
421 31.0400 14223.00 14270.50 174.00
422 31.0900 13760.00 13748.30 171.00
423 31.1400 12166.00 11914.60 161.00
424 31.1900 9722.00 9408.25 143.00
425 31.2400 6884.00 6877.37 120.00
426 31.2900 4590.00 4741.46 98.00
427 31.3400 2885.00 3164.39 77.00
428 31.3900 1826.00 2126.19 61.00
429 31.4400 1333.00 1511.31 52.00
430 31.4900 1051.00 1181.65 46.00
431 31.5400 942.00 1019.31 44.00
432 31.5900 900.00 943.32 43.00
433 31.6400 869.00 907.02 42.00
434 31.6900 851.00 887.41 41.00
435 31.7400 907.00 874.70 43.00
436 31.7900 859.00 865.14 41.00
437 31.8400 875.00 857.36 42.00
438 31.8900 845.00 850.83 41.00
439 31.9400 886.00 845.29 42.00
440 31.9900 796.00 840.56 40.00
441 32.0400 881.00 836.49 42.00
442 32.0900 841.00 832.97 41.00
443 32.1400 828.00 829.92 40.00
444 32.1900 794.00 827.26 39.00
445 32.2400 787.00 824.92 39.00
446 32.2900 795.00 822.86 39.00
447 32.3400 790.00 821.04 39.00
448 32.3900 818.00 819.42 40.00
449 32.4400 836.00 817.98 40.00
450 32.4900 786.00 816.69 39.00
451 32.5400 770.00 815.53 38.00
452 32.5900 828.00 814.49 40.00
453 32.6400 816.00 813.55 39.00
454 32.6900 824.00 812.70 39.00
455 32.7400 828.00 811.92 39.00
456 32.7900 815.00 811.22 39.00
457 32.8400 820.00 810.58 39.00
458 32.8900 840.00 810.00 39.00
459 32.9400 819.00 809.46 39.00
460 32.9900 798.00 808.98 38.00
461 33.0400 783.00 808.53 38.00
462 33.0900 795.00 808.12 38.00
463 33.1400 826.00 807.75 39.00
464 33.1900 839.00 807.40 39.00
465 33.2400 817.00 807.09 38.00
466 33.2900 811.00 806.79 38.00
467 33.3400 903.00 806.53 40.00
468 33.3900 816.00 806.28 38.00
469 33.4400 784.00 806.05 37.00
470 33.4900 823.00 805.85 38.00
471 33.5400 822.00 805.66 38.00
472 33.5900 793.00 805.48 37.00
473 33.6400 849.00 805.32 39.00
474 33.6900 843.00 805.18 38.00
475 33.7400 827.00 805.04 38.00
476 33.7900 817.00 804.80 38.00
477 33.8400 870.00 804.58 39.00
478 33.8900 809.00 804.36 37.00
479 33.9400 845.00 804.16 38.00
480 33.9900 856.00 803.96 38.00
481 34.0400 837.00 803.77 38.00
482 34.0900 840.00 803.60 38.00
483 34.1400 809.00 803.43 37.00
484 34.1900 826.00 803.27 37.00
485 34.2400 833.00 803.12 38.00
486 34.2900 844.00 802.98 38.00
487 34.3400 820.00 802.85 37.00
488 42.4400 816.00 791.39 28.00
489 42.4900 826.00 791.39 29.00
490 42.5400 843.00 791.34 29.00
491 42.5900 848.00 791.11 29.00
492 42.6400 789.00 790.89 28.00
493 42.6900 783.00 790.67 28.00
494 42.7400 806.00 790.47 28.00
495 42.7900 818.00 790.28 28.00
496 42.8400 812.00 790.10 28.00
497 42.8900 810.00 789.96 28.00
498 42.9400 792.00 789.83 28.00
499 42.9900 843.00 789.75 29.00
500 43.0400 818.00 789.72 28.00
501 43.0900 830.00 789.78 28.00
502 43.1400 843.00 790.03 29.00
503 43.1900 837.00 790.73 28.00
504 43.2400 841.00 792.55 29.00
505 43.2900 833.00 796.91 28.00
506 43.3400 825.00 806.51 28.00
507 43.3900 872.00 825.38 29.00
508 43.4400 857.00 857.94 29.00
509 43.4900 886.00 906.51 29.00
510 43.5400 994.00 967.86 31.00
511 43.5900 1004.00 1031.26 31.00
512 43.6400 1111.00 1080.30 33.00
513 43.6900 1059.00 1099.04 32.00
514 43.7400 1041.00 1080.70 32.00
515 43.7900 1010.00 1032.67 31.00
516 43.8400 943.00 971.01 30.00
517 43.8900 943.00 911.00 30.00
518 43.9400 889.00 862.19 29.00
519 43.9900 861.00 827.79 29.00
520 44.0400 816.00 806.40 28.00
521 44.0900 776.00 794.50 27.00
522 44.1400 791.00 788.43 28.00
523 44.1900 830.00 785.46 28.00
524 44.2400 804.00 783.94 28.00
525 44.2900 781.00 783.03 27.00
526 44.3400 780.00 782.36 27.00
527 44.3900 786.00 781.80 28.00
528 44.4400 830.00 781.31 28.00
529 44.4900 803.00 780.85 28.00
530 44.5400 756.00 780.42 27.00
531 44.5900 784.00 780.02 28.00
532 44.6400 768.00 779.64 27.00
533 44.6900 770.00 779.27 27.00
534 44.7400 785.00 778.93 28.00
535 44.7900 778.00 778.60 27.00
536 44.8400 771.00 778.31 27.00
537 44.8900 755.00 778.08 27.00
538 44.9400 741.00 778.00 27.00
539 44.9900 728.00 778.22 26.00
540 45.0400 756.00 778.98 27.00
541 45.0900 757.00 780.59 27.00
542 45.1400 726.00 783.26 26.00
543 45.1900 739.00 786.88 27.00
544 45.2400 850.00 790.86 29.00
545 45.2900 762.00 794.18 27.00
546 45.3400 762.00 795.65 27.00
547 45.3900 810.00 794.74 28.00
548 45.4400 789.00 791.64 28.00
549 45.4900 800.00 787.36 28.00
550 45.5400 773.00 782.98 27.00
551 45.5900 749.00 779.24 27.00
552 45.6400 715.00 776.45 26.00
553 45.6900 758.00 774.57 27.00
554 45.7400 777.00 773.39 27.00
555 45.7900 749.00 772.64 27.00
556 45.8400 783.00 772.14 27.00
557 45.8900 781.00 771.75 27.00
558 45.9400 760.00 771.41 27.00
559 45.9900 757.00 771.08 27.00
560 46.0400 798.00 770.77 28.00
561 46.0900 801.00 770.47 28.00
562 46.1400 777.00 770.16 27.00
563 46.1900 743.00 769.86 27.00
564 46.2400 764.00 769.56 27.00
565 46.2900 737.00 769.26 27.00
566 46.3400 762.00 768.97 27.00
567 46.3900 719.00 768.67 26.00
568 46.4400 763.00 769.00 27.00
569 46.4900 762.00 769.49 27.00
570 46.5400 784.00 769.98 28.00
571 46.5900 752.00 770.47 27.00
572 46.6400 777.00 770.97 27.00
573 46.6900 719.00 771.46 26.00
574 46.7400 746.00 771.95 27.00
575 46.7900 776.00 772.44 27.00
576 46.8400 792.00 772.93 28.00
577 46.8900 802.00 773.43 28.00
578 46.9400 791.00 773.92 28.00
579 46.9900 815.00 774.42 28.00
580 47.0400 748.00 774.91 27.00
581 47.0900 775.00 775.41 27.00
582 47.1400 754.00 775.90 27.00
583 47.1900 790.00 776.40 28.00
584 47.2400 796.00 776.89 28.00
585 47.2900 756.00 777.39 27.00
586 47.3400 745.00 777.89 27.00
587 47.3900 776.00 778.38 27.00
588 47.4400 731.00 778.88 27.00
589 47.4900 744.00 779.38 27.00
590 47.5400 735.00 779.88 27.00
591 47.5900 765.00 780.37 27.00
592 47.6400 816.00 780.87 28.00
593 47.6900 766.00 781.37 27.00
594 47.7400 763.00 781.87 27.00
595 47.7900 774.00 782.38 27.00
596 47.8400 754.00 782.88 27.00
597 47.8900 804.00 783.38 28.00
598 47.9400 794.00 783.88 28.00
599 47.9900 775.00 784.38 27.00
600 48.0400 792.00 784.88 28.00
601 48.0900 758.00 785.39 27.00
602 48.1400 766.00 785.89 27.00
603 48.1900 752.00 786.39 27.00
604 48.2400 736.00 786.90 27.00
605 48.2900 777.00 787.40 27.00
606 48.3400 782.00 787.91 27.00
607 48.3900 775.00 788.41 27.00
608 48.4400 758.00 788.92 27.00
609 48.4900 807.00 789.43 28.00
610 48.5400 806.00 789.95 28.00
611 48.5900 771.00 790.47 27.00
612 48.6400 806.00 790.99 28.00
613 48.6900 779.00 791.51 27.00
614 48.7400 778.00 792.05 27.00
615 48.7900 757.00 792.60 27.00
616 48.8400 793.00 793.20 28.00
617 48.8900 798.00 793.89 28.00
618 48.9400 804.00 794.81 28.00
619 48.9900 801.00 796.23 28.00
620 49.0400 766.00 798.58 27.00
621 49.0900 795.00 802.35 28.00
622 49.1400 787.00 807.91 28.00
623 49.1900 811.00 815.10 28.00
624 49.2400 798.00 822.91 28.00
625 49.2900 831.00 829.58 28.00
626 49.3400 847.00 833.19 29.00
627 49.3900 825.00 832.59 28.00
628 49.4400 818.00 828.27 28.00
629 49.4900 786.00 821.93 28.00
630 49.5400 800.00 815.45 28.00
631 49.5900 817.00 810.11 28.00
632 49.6400 789.00 806.42 28.00
633 49.6900 774.00 804.31 27.00
634 49.7400 758.00 803.36 27.00
635 49.7900 808.00 803.14 28.00
636 49.8400 820.00 803.31 28.00
637 49.8900 821.00 803.66 28.00
638 49.9400 795.00 804.09 28.00
639 49.9900 778.00 804.54 27.00
640 50.0400 791.00 805.01 28.00
641 50.0900 806.00 805.49 28.00
642 50.1400 813.00 805.97 28.00
643 50.1900 790.00 806.46 28.00
644 50.2400 820.00 806.94 28.00
645 50.2900 859.00 807.43 29.00
646 50.3400 807.00 807.93 28.00
647 50.3900 762.00 808.42 27.00
648 50.4400 795.00 808.92 28.00
649 50.4900 841.00 809.42 29.00
650 50.5400 853.00 809.92 29.00
651 50.5900 825.00 810.42 28.00
652 50.6400 840.00 810.90 28.00
653 50.6900 814.00 811.40 28.00
654 50.7400 810.00 811.91 28.00
655 50.7900 832.00 812.41 28.00
656 50.8400 829.00 812.92 28.00
657 50.8900 814.00 813.43 28.00
658 50.9400 834.00 813.94 28.00
659 50.9900 810.00 814.45 28.00
660 51.0400 812.00 814.96 28.00
661 51.0900 817.00 815.47 28.00
662 51.1400 797.00 815.99 28.00
663 51.1900 856.00 816.51 29.00
664 51.2400 848.00 817.03 29.00
665 51.2900 868.00 817.55 29.00
666 51.3400 824.00 818.08 28.00
667 51.3900 816.00 818.75 28.00
668 51.4400 804.00 819.29 28.00
669 51.4900 862.00 819.84 29.00
670 51.5400 827.00 820.39 28.00
671 51.5900 805.00 821.55 28.00
672 51.6400 832.00 822.88 28.00
673 51.6900 818.00 824.22 28.00
674 51.7400 830.00 825.59 28.00
675 51.7900 794.00 827.01 28.00
676 51.8400 825.00 828.54 28.00
677 51.8900 874.00 830.35 29.00
678 51.9400 839.00 832.83 28.00
679 51.9900 855.00 836.75 29.00
680 52.0400 847.00 843.41 29.00
681 52.0900 866.00 854.43 29.00
682 52.1400 890.00 871.08 29.00
683 52.1900 865.00 893.12 29.00
684 52.2400 948.00 917.71 30.00
685 52.2900 970.00 939.50 31.00
686 52.3400 971.00 952.17 31.00
687 52.3900 956.00 951.53 30.00
688 52.4400 959.00 938.44 30.00
689 52.4900 966.00 918.17 31.00
690 52.5400 938.00 896.86 30.00
691 52.5900 925.00 878.92 30.00
692 52.6400 882.00 866.29 29.00
693 52.6900 849.00 858.81 29.00
694 52.7400 869.00 855.22 29.00
695 52.7900 855.00 854.07 29.00
696 52.8400 844.00 854.22 29.00
697 52.8900 834.00 854.98 28.00
698 52.9400 835.00 855.99 28.00
699 52.9900 862.00 857.11 29.00
700 53.0400 902.00 858.28 30.00
701 53.0900 901.00 859.47 30.00
702 53.1400 891.00 861.01 29.00
703 53.1900 921.00 863.06 30.00
704 53.2400 839.00 865.12 28.00
705 57.4400 1002.00 1053.17 31.00
706 57.4900 1026.00 1055.33 32.00
707 57.5400 992.00 1058.33 31.00
708 57.5900 1022.00 1063.19 31.00
709 57.6400 1042.00 1072.64 32.00
710 57.6900 1068.00 1093.22 32.00
711 57.7400 1125.00 1138.46 33.00
712 57.7900 1209.00 1231.53 34.00
713 57.8400 1414.00 1403.32 37.00
714 57.8900 1600.00 1681.07 40.00
715 57.9400 1978.00 2066.68 44.00
716 57.9900 2419.00 2514.90 49.00
717 58.0400 2842.00 2928.87 53.00
718 58.0900 3192.00 3184.69 56.00
719 58.1400 3158.00 3187.74 56.00
720 58.1900 2928.00 2938.09 54.00
721 58.2400 2650.00 2530.72 51.00
722 58.2900 2173.00 2088.03 46.00
723 58.3400 1716.00 1704.02 41.00
724 58.3900 1362.00 1423.06 36.00
725 58.4400 1209.00 1245.55 34.00
726 58.4900 1088.00 1147.08 32.00
727 58.5400 1065.00 1098.20 32.00
728 58.5900 1055.00 1075.77 32.00
729 58.6400 1039.00 1065.62 32.00
730 58.6900 1035.00 1060.62 32.00
731 58.7400 983.00 1057.71 31.00
732 58.7900 1056.00 1055.71 32.00
733 58.8400 1038.00 1054.21 32.00
734 58.8900 1003.00 1053.04 31.00
735 58.9400 1079.00 1052.12 32.00
736 58.9900 1093.00 1051.40 33.00
737 59.0400 1031.00 1050.87 32.00
738 59.0900 1020.00 1050.51 31.00
739 59.1400 981.00 1050.34 31.00
740 59.1900 1073.00 1050.39 32.00
741 59.2400 1056.00 1050.74 32.00
742 59.2900 1064.00 1051.43 32.00
743 59.3400 1034.00 1052.43 32.00
744 59.3900 994.00 1053.62 31.00
745 59.4400 989.00 1054.76 31.00
746 59.4900 1036.00 1055.59 32.00
747 59.5400 1057.00 1055.93 32.00
748 59.5900 1061.00 1055.85 32.00
749 59.6400 1048.00 1055.61 32.00
750 59.6900 1091.00 1055.48 33.00
751 59.7400 1052.00 1055.66 32.00
752 59.7900 1080.00 1056.25 32.00
753 59.8400 1073.00 1057.27 32.00
754 59.8900 1043.00 1058.69 32.00
755 59.9400 1038.00 1060.49 32.00
756 59.9900 1047.00 1062.70 32.00
757 60.0400 1004.00 1065.39 31.00
758 60.0900 1009.00 1068.62 31.00
759 60.1400 1083.00 1072.60 32.00
760 60.1900 1059.00 1077.64 32.00
761 60.2400 1052.00 1084.54 32.00
762 60.2900 1081.00 1095.43 32.00
763 60.3400 1099.00 1116.06 33.00
764 60.3900 1161.00 1160.50 34.00
765 60.4400 1284.00 1258.58 35.00
766 60.4900 1371.00 1462.73 37.00
767 60.5400 1803.00 1845.74 42.00
768 60.5900 2465.00 2476.92 49.00
769 60.6400 3314.00 3372.71 57.00
770 60.6900 4326.00 4442.03 65.00
771 60.7400 5274.00 5466.95 72.00
772 60.7900 6068.00 6150.26 77.00
773 60.8400 6316.00 6242.14 79.00
774 60.8900 5826.00 5707.18 76.00
775 60.9400 4952.00 4754.30 70.00
776 60.9900 3836.00 3682.00 61.00
777 61.0400 2805.00 2732.58 52.00
778 61.0900 2055.00 2029.91 45.00
779 61.1400 1576.00 1586.68 39.00
780 61.1900 1318.00 1350.27 36.00
781 61.2400 1269.00 1251.52 35.00
782 61.2900 1230.00 1233.40 35.00
783 61.3400 1247.00 1256.54 35.00
784 61.3900 1299.00 1293.48 36.00
785 61.4400 1289.00 1322.94 35.00
786 61.4900 1285.00 1329.44 35.00
787 61.5400 1341.00 1308.28 36.00
788 61.5900 1341.00 1267.67 36.00
789 61.6400 1203.00 1222.88 34.00
790 61.6900 1215.00 1190.47 34.00
791 61.7400 1216.00 1187.92 34.00
792 61.7900 1292.00 1237.64 35.00
793 61.8400 1381.00 1371.06 37.00
794 61.8900 1627.00 1625.06 40.00
795 61.9400 1979.00 2024.21 44.00
796 61.9900 2531.00 2551.78 50.00
797 62.0400 3069.00 3126.28 55.00
798 62.0900 3558.00 3605.48 59.00
799 62.1400 3887.00 3831.39 62.00
800 62.1900 3712.00 3714.71 60.00
801 62.2400 3463.00 3303.67 58.00
802 62.2900 2864.00 2744.87 53.00
803 62.3400 2321.00 2190.39 48.00
804 62.3900 1826.00 1740.81 42.00
805 62.4400 1444.00 1431.10 38.00
806 62.4900 1247.00 1245.93 35.00
807 62.5400 1195.00 1148.19 34.00
808 62.5900 1117.00 1101.42 33.00
809 62.6400 1103.00 1080.16 33.00
810 62.6900 1087.00 1070.17 32.00
811 62.7400 1084.00 1064.78 32.00
812 62.7900 1081.00 1061.24 32.00
813 62.8400 1020.00 1058.52 31.00
814 62.8900 1066.00 1056.20 32.00
815 62.9400 1018.00 1054.16 31.00
816 62.9900 1069.00 1052.36 32.00
817 63.0400 1046.00 1050.79 32.00
818 63.0900 1070.00 1049.44 32.00
819 63.1400 1097.00 1048.31 33.00
820 63.1900 1130.00 1047.34 33.00
821 63.2400 1098.00 1046.51 33.00
822 63.2900 1062.00 1045.80 32.00
823 63.3400 1067.00 1045.17 32.00
824 63.3900 1036.00 1044.60 32.00
825 63.4400 1032.00 1044.10 32.00
826 63.4900 1068.00 1043.65 32.00
827 63.5400 1040.00 1043.24 32.00
828 63.5900 1013.00 1042.87 31.00
829 63.6400 1073.00 1042.53 32.00
830 63.6900 1080.00 1043.00 32.00
831 63.7400 1080.00 1044.03 32.00
832 63.7900 1049.00 1045.08 32.00
833 63.8400 1060.00 1046.19 32.00
834 63.8900 1003.00 1047.29 31.00
835 63.9400 1059.00 1048.40 32.00
836 63.9900 1042.00 1049.54 32.00
837 64.0400 1082.00 1050.69 32.00
838 64.0900 1030.00 1051.87 32.00
839 64.1400 1051.00 1053.07 32.00
840 64.1900 1082.00 1054.30 32.00
841 64.2400 1085.00 1055.58 32.00
842 64.2900 1040.00 1056.97 32.00
843 64.3400 1086.00 1058.62 32.00
844 64.3900 1107.00 1060.85 33.00
845 64.4400 1086.00 1064.24 32.00
846 64.4900 1099.00 1069.63 33.00
847 64.5400 1133.00 1077.89 33.00
848 64.5900 1076.00 1089.32 32.00
849 64.6400 1087.00 1103.09 32.00
850 64.6900 1107.00 1116.79 33.00
851 64.7400 1102.00 1126.93 33.00
852 64.7900 1130.00 1130.29 33.00
853 64.8400 1117.00 1126.01 33.00
854 64.8900 1116.00 1116.14 33.00
855 64.9400 1057.00 1104.54 32.00
856 64.9900 1074.00 1094.13 32.00
857 65.0400 1035.00 1086.59 32.00
858 65.0900 1054.00 1082.16 32.00
859 65.1400 1064.00 1080.22 32.00
860 65.1900 1096.00 1079.88 33.00
861 65.2400 1121.00 1080.41 33.00
862 65.2900 1112.00 1081.35 33.00
863 65.3400 1111.00 1082.46 33.00
864 65.3900 1185.00 1083.66 34.00
865 65.4400 1152.00 1084.88 33.00
866 65.4900 1069.00 1086.13 32.00
867 65.5400 1121.00 1087.40 33.00
868 65.5900 1130.00 1088.68 33.00
869 65.6400 1088.00 1089.98 32.00
870 65.6900 1138.00 1091.30 33.00
871 65.7400 1131.00 1092.63 33.00
872 65.7900 1152.00 1093.98 33.00
873 65.8400 1094.00 1095.35 33.00
874 65.8900 1104.00 1096.74 33.00
875 65.9400 1138.00 1098.17 33.00
876 65.9900 1147.00 1101.18 33.00
877 66.0400 1062.00 1105.26 32.00
878 66.0900 1118.00 1109.41 33.00
879 66.1400 1143.00 1113.69 33.00
880 66.1900 1136.00 1118.24 33.00
881 66.2400 1124.00 1123.45 33.00
882 66.2900 1161.00 1130.26 34.00
883 66.3400 1162.00 1140.63 34.00
884 66.3900 1133.00 1157.90 33.00
885 66.4400 1174.00 1186.44 34.00
886 66.4900 1234.00 1230.14 35.00
887 66.5400 1296.00 1289.26 36.00
888 66.5900 1354.00 1357.37 36.00
889 66.6400 1404.00 1420.57 37.00
890 66.6900 1435.00 1460.73 37.00
891 66.7400 1481.00 1463.96 38.00
892 66.7900 1503.00 1430.53 38.00
893 66.8400 1444.00 1374.68 38.00
894 66.8900 1335.00 1314.44 36.00
895 66.9400 1270.00 1263.50 35.00
896 66.9900 1204.00 1228.00 34.00
897 67.0400 1219.00 1207.53 34.00
898 67.0900 1181.00 1198.20 34.00
899 67.1400 1172.00 1195.65 34.00
900 67.1900 1232.00 1196.58 35.00
901 67.2400 1201.00 1199.10 34.00
902 72.3400 1212.00 1195.16 34.00
903 72.3900 1207.00 1192.84 34.00
904 72.4400 1147.00 1190.64 33.00
905 72.4900 1199.00 1188.73 34.00
906 72.5400 1236.00 1187.51 35.00
907 72.5900 1157.00 1187.93 34.00
908 72.6400 1165.00 1192.02 34.00
909 72.6900 1168.00 1203.25 34.00
910 72.7400 1248.00 1226.30 35.00
911 72.7900 1298.00 1265.43 36.00
912 72.8400 1296.00 1321.35 36.00
913 72.8900 1381.00 1387.86 37.00
914 72.9400 1496.00 1450.55 38.00
915 72.9900 1497.00 1489.82 38.00
916 73.0400 1460.00 1489.51 38.00
917 73.0900 1426.00 1448.54 37.00
918 73.1400 1339.00 1381.75 36.00
919 73.1900 1365.00 1309.06 36.00
920 73.2400 1249.00 1245.97 35.00
921 73.2900 1205.00 1199.74 34.00
922 73.3400 1170.00 1170.15 34.00
923 73.3900 1184.00 1152.92 34.00
924 73.4400 1172.00 1143.17 34.00
925 73.4900 1178.00 1137.30 34.00
926 73.5400 1155.00 1133.17 33.00
927 73.5900 1147.00 1129.75 33.00
928 73.6400 1184.00 1126.62 34.00
929 73.6900 1128.00 1123.62 33.00
930 73.7400 1131.00 1120.71 33.00
931 73.7900 1080.00 1117.84 32.00
932 73.8400 1178.00 1115.02 34.00
933 73.8900 1110.00 1112.23 33.00
934 73.9400 1056.00 1109.46 32.00
935 73.9900 1132.00 1106.72 33.00
936 74.0400 1040.00 1106.10 32.00
937 74.0900 1080.00 1106.03 32.00
938 74.1400 1059.00 1105.96 32.00
939 74.1900 1111.00 1105.92 33.00
940 74.2400 1171.00 1105.89 34.00
941 74.2900 1188.00 1105.88 34.00
942 74.3400 1121.00 1105.92 33.00
943 74.3900 1085.00 1106.07 32.00
944 74.4400 1153.00 1106.46 33.00
945 74.4900 1161.00 1107.30 34.00
946 74.5400 1188.00 1108.89 34.00
947 74.5900 1070.00 1111.52 32.00
948 74.6400 1074.00 1115.25 32.00
949 74.6900 1080.00 1119.70 32.00
950 74.7400 1111.00 1123.96 33.00
951 74.7900 1113.00 1126.77 33.00
952 74.8400 1136.00 1127.03 33.00
953 74.8900 1140.00 1124.63 33.00
954 74.9400 1164.00 1120.50 34.00
955 74.9900 1122.00 1115.92 33.00
956 75.0400 1092.00 1111.94 33.00
957 75.0900 1037.00 1109.05 32.00
958 75.1400 1072.00 1107.25 32.00
959 75.1900 1045.00 1106.27 32.00
960 75.2400 1130.00 1105.79 33.00
961 75.2900 1089.00 1105.57 33.00
962 75.3400 1084.00 1105.54 32.00
963 75.3900 1130.00 1105.48 33.00
964 75.4400 1081.00 1105.45 32.00
965 75.4900 1116.00 1105.43 33.00
966 75.5400 1117.00 1105.41 33.00
967 75.5900 1102.00 1105.40 33.00
968 75.6400 1051.00 1105.39 32.00
969 75.6900 1062.00 1105.38 32.00
970 75.7400 1097.00 1105.38 33.00
971 75.7900 1116.00 1105.38 33.00
972 75.8400 1096.00 1105.38 33.00
973 75.8900 1069.00 1105.38 32.00
974 75.9400 1116.00 1105.39 33.00
975 75.9900 1156.00 1105.39 34.00
976 76.0400 1208.00 1105.40 34.00
977 76.0900 1116.00 1105.41 33.00
978 76.1400 1152.00 1105.43 33.00
979 76.1900 1127.00 1105.44 33.00
980 76.2400 1163.00 1105.47 34.00
981 76.2900 1172.00 1105.50 34.00
982 76.3400 1173.00 1105.55 34.00
983 76.3900 1150.00 1105.64 33.00
984 76.4400 1144.00 1105.77 33.00
985 76.4900 1140.00 1105.95 33.00
986 76.5400 1134.00 1106.19 33.00
987 76.5900 1092.00 1106.43 33.00
988 76.6400 1070.00 1106.62 32.00
989 76.6900 1098.00 1106.72 33.00
990 76.7400 1072.00 1106.68 32.00
991 76.7900 1011.00 1106.55 31.00
992 76.8400 1074.00 1106.39 32.00
993 76.8900 1083.00 1106.25 32.00
994 76.9400 1127.00 1106.15 33.00
995 76.9900 1119.00 1106.12 33.00
996 77.0400 1058.00 1106.14 32.00
997 77.0900 1053.00 1106.19 32.00
998 77.1400 1154.00 1106.27 33.00
999 77.1900 1118.00 1106.37 33.00
1000 77.2400 1110.00 1106.44 33.00
1001 77.2900 1092.00 1106.56 33.00
1002 77.3400 1094.00 1106.71 33.00
1003 77.3900 1098.00 1106.88 33.00
1004 77.4400 1118.00 1107.07 33.00
1005 77.4900 1032.00 1107.28 32.00
1006 77.5400 1038.00 1107.54 32.00
1007 77.5900 1095.00 1107.83 33.00
1008 77.6400 1140.00 1108.18 33.00
1009 77.6900 1077.00 1108.58 32.00
1010 77.7400 1050.00 1109.07 32.00
1011 77.7900 1033.00 1109.66 32.00
1012 77.8400 1066.00 1110.40 32.00
1013 77.8900 1124.00 1111.37 33.00
1014 77.9400 1100.00 1112.83 33.00
1015 77.9900 1035.00 1115.44 32.00
1016 78.0400 1112.00 1120.89 33.00
1017 78.0900 1141.00 1132.76 33.00
1018 78.1400 1119.00 1157.56 33.00
1019 78.1900 1181.00 1204.63 34.00
1020 78.2400 1264.00 1283.72 35.00
1021 78.2900 1429.00 1399.12 37.00
1022 78.3400 1618.00 1542.46 40.00
1023 78.3900 1765.00 1688.30 42.00
1024 78.4400 1946.00 1796.67 44.00
1025 78.4900 1922.00 1827.93 43.00
1026 78.5400 1802.00 1768.48 42.00
1027 78.5900 1728.00 1642.23 41.00
1028 78.6400 1549.00 1491.40 39.00
1029 78.6900 1350.00 1353.57 36.00
1030 78.7400 1200.00 1249.56 34.00
1031 78.7900 1213.00 1182.76 34.00
1032 78.8400 1166.00 1145.64 34.00
1033 78.8900 1135.00 1127.07 33.00
1034 78.9400 1127.00 1118.50 33.00
1035 78.9900 1118.00 1114.57 33.00
1036 79.0400 1104.00 1112.58 33.00
1037 79.0900 1148.00 1111.38 33.00
1038 79.1400 1105.00 1110.54 33.00
1039 79.1900 1066.00 1109.89 32.00
1040 79.2400 1105.00 1109.37 33.00
1041 79.2900 1062.00 1108.95 32.00
1042 79.3400 1088.00 1108.60 32.00
1043 79.3900 1097.00 1108.31 33.00
1044 79.4400 1067.00 1108.06 32.00
1045 79.4900 1150.00 1107.86 33.00
1046 79.5400 1150.00 1107.69 33.00
1047 79.5900 1118.00 1107.54 33.00
1048 79.6400 1099.00 1107.42 33.00
1049 79.6900 1057.00 1107.32 32.00
1050 79.7400 1106.00 1107.21 33.00
1051 79.7900 1050.00 1107.14 32.00
1052 79.8400 1025.00 1107.08 32.00
1053 79.8900 1029.00 1107.04 32.00
1054 79.9400 1056.00 1107.00 32.00
1055 79.9900 1068.00 1106.98 32.00
1056 80.0400 1087.00 1107.20 32.00
1057 80.0900 1144.00 1107.43 33.00
1058 80.1400 1152.00 1107.66 33.00
1059 80.1900 1140.00 1107.91 33.00
1060 80.2400 1146.00 1108.16 33.00
1061 80.2900 1132.00 1108.43 33.00
1062 80.3400 1167.00 1108.70 34.00
1063 80.3900 1125.00 1108.98 33.00
1064 80.4400 1060.00 1109.27 32.00
1065 84.0400 1101.00 1129.77 33.00
1066 84.0900 1107.00 1130.34 33.00
1067 84.1400 1209.00 1130.95 34.00
1068 84.1900 1147.00 1131.62 33.00
1069 84.2400 1151.00 1132.37 33.00
1070 84.2900 1107.00 1133.19 33.00
1071 84.3400 1170.00 1134.00 34.00
1072 84.3900 1133.00 1134.88 33.00
1073 84.4400 1154.00 1136.09 33.00
1074 84.4900 1139.00 1138.01 33.00
1075 84.5400 1173.00 1141.47 34.00
1076 84.5900 1131.00 1148.12 33.00
1077 84.6400 1153.00 1160.54 33.00
1078 84.6900 1156.00 1181.89 34.00
1079 84.7400 1251.00 1214.64 35.00
1080 84.7900 1257.00 1258.46 35.00
1081 84.8400 1256.00 1308.18 35.00
1082 84.8900 1292.00 1353.35 35.00
1083 84.9400 1394.00 1380.58 37.00
1084 84.9900 1371.00 1380.77 37.00
1085 85.0400 1336.00 1357.44 36.00
1086 85.0900 1282.00 1326.75 35.00
1087 85.1400 1333.00 1312.45 36.00
1088 85.1900 1371.00 1343.21 37.00
1089 85.2400 1473.00 1451.75 38.00
1090 85.2900 1630.00 1669.86 40.00
1091 85.3400 1981.00 2015.78 44.00
1092 85.3900 2430.00 2473.54 49.00
1093 85.4400 2980.00 2974.55 54.00
1094 85.4900 3327.00 3396.69 57.00
1095 85.5400 3532.00 3596.35 59.00
1096 85.5900 3424.00 3489.26 58.00
1097 85.6400 3077.00 3118.17 55.00
1098 85.6900 2572.00 2615.58 50.00
1099 85.7400 2050.00 2120.21 45.00
1100 85.7900 1675.00 1723.99 40.00
1101 85.8400 1450.00 1456.40 38.00
1102 85.8900 1239.00 1300.14 35.00
1103 85.9400 1163.00 1219.49 34.00
1104 85.9900 1153.00 1181.39 33.00
1105 86.0400 1168.00 1163.95 34.00
1106 86.0900 1094.00 1155.44 33.00
1107 86.1400 1094.00 1150.55 33.00
1108 86.1900 1096.00 1147.12 33.00
1109 86.2400 1145.00 1144.37 33.00
1110 86.2900 1153.00 1142.04 33.00
1111 86.3400 1146.00 1140.06 33.00
1112 86.3900 1127.00 1138.40 33.00
1113 86.4400 1144.00 1137.03 33.00
1114 86.4900 1147.00 1135.91 33.00
1115 86.5400 1128.00 1134.98 33.00
1116 86.5900 1126.00 1134.20 33.00
1117 86.6400 1155.00 1133.53 33.00
1118 86.6900 1137.00 1132.96 33.00
1119 86.7400 1130.00 1132.46 33.00
1120 86.7900 1092.00 1132.03 33.00
1121 86.8400 1074.00 1131.61 32.00
1122 86.8900 1108.00 1131.04 33.00
1123 86.9400 1095.00 1130.53 33.00
1124 86.9900 1093.00 1130.05 33.00
1125 87.0400 1111.00 1129.60 33.00
1126 87.0900 1144.00 1129.19 33.00
1127 87.1400 1160.00 1128.81 34.00
1128 87.1900 1129.00 1128.46 33.00
1129 87.2400 1090.00 1128.14 33.00
1130 87.2900 1067.00 1127.87 32.00
1131 87.3400 1136.00 1127.66 33.00
1132 87.3900 1134.00 1127.56 33.00
1133 87.4400 1094.00 1127.73 33.00
1134 87.4900 1068.00 1128.50 32.00
1135 87.5400 1100.00 1130.49 33.00
1136 87.5900 1120.00 1134.66 33.00
1137 87.6400 1153.00 1142.17 33.00
1138 87.6900 1102.00 1153.83 33.00
1139 87.7400 1160.00 1169.41 34.00
1140 87.7900 1205.00 1186.86 34.00
1141 87.8400 1221.00 1202.17 34.00
1142 87.8900 1180.00 1210.31 34.00
1143 87.9400 1247.00 1207.81 35.00
1144 87.9900 1170.00 1195.55 34.00
1145 88.0400 1221.00 1177.90 34.00
1146 88.0900 1167.00 1159.87 34.00
1147 88.1400 1116.00 1145.00 33.00
1148 88.1900 1108.00 1134.64 33.00
1149 88.2400 1078.00 1128.37 32.00
1150 88.2900 1125.00 1124.96 33.00
1151 88.3400 1126.00 1123.21 33.00
1152 88.3900 1117.00 1122.30 33.00
1153 88.4400 1102.00 1121.76 33.00
1154 88.4900 1083.00 1121.37 32.00
1155 88.5400 1102.00 1121.06 33.00
1156 88.5900 1059.00 1120.80 32.00
1157 88.6400 1054.00 1120.57 32.00
1158 88.6900 1085.00 1120.37 32.00
1159 88.7400 1054.00 1120.14 32.00
1160 88.7900 1119.00 1120.00 33.00
1161 88.8400 1133.00 1119.90 33.00
1162 88.8900 1166.00 1119.83 34.00
1163 88.9400 1183.00 1119.82 34.00
1164 88.9900 1084.00 1119.86 32.00
1165 89.0400 1080.00 1119.99 32.00
1166 89.0900 1118.00 1120.27 33.00
1167 89.1400 1150.00 1120.87 33.00
1168 89.1900 1162.00 1122.22 34.00
1169 89.2400 1135.00 1125.34 33.00
1170 89.2900 1119.00 1132.20 33.00
1171 89.3400 1133.00 1146.07 33.00
1172 89.3900 1127.00 1171.08 33.00
1173 89.4400 1216.00 1210.90 34.00
1174 89.4900 1254.00 1266.08 35.00
1175 89.5400 1382.00 1331.21 37.00
1176 89.5900 1435.00 1393.51 37.00
1177 89.6400 1379.00 1434.69 37.00
1178 89.6900 1439.00 1438.72 37.00
1179 89.7400 1402.00 1403.48 37.00
1180 89.7900 1394.00 1342.35 37.00
1181 89.8400 1210.00 1274.31 34.00
1182 89.8900 1163.00 1214.73 34.00
1183 89.9400 1213.00 1171.26 34.00
1184 89.9900 1137.00 1144.02 33.00
1185 90.0400 1197.00 1129.04 34.00
1186 90.0900 1143.00 1121.58 33.00
1187 90.1400 1119.00 1118.05 33.00
1188 90.1900 1098.00 1116.32 33.00
1189 90.2400 1140.00 1115.35 33.00
1190 90.2900 1185.00 1114.65 34.00
1191 90.3400 1116.00 1114.03 33.00
1192 90.3900 1103.00 1113.43 33.00
1193 90.4400 1119.00 1112.84 33.00
1194 90.4900 1157.00 1112.27 34.00
1195 90.5400 1107.00 1111.76 33.00
1196 90.5900 1131.00 1111.30 33.00
1197 90.6400 1183.00 1110.89 34.00
1198 90.6900 1109.00 1110.52 33.00
1199 90.7400 1124.00 1110.19 33.00
1200 90.7900 1084.00 1109.87 32.00
1201 90.8400 1081.00 1109.57 32.00
1202 90.8900 1110.00 1109.28 33.00
1203 90.9400 1135.00 1109.00 33.00
1204 90.9900 1056.00 1108.72 32.00
1205 91.0400 1098.00 1108.46 33.00
1206 91.0900 1129.00 1108.19 33.00
1207 91.1400 1102.00 1107.93 33.00
1208 91.1900 1089.00 1108.89 33.00
1209 91.2400 1139.00 1110.16 33.00
1210 91.2900 1171.00 1111.43 34.00
1211 91.3400 1155.00 1112.70 33.00
1212 91.3900 1171.00 1113.98 34.00
1213 91.4400 1206.00 1115.26 34.00
1214 91.4900 1172.00 1116.54 34.00
1215 91.5400 1096.00 1117.82 33.00
1216 91.5900 1171.00 1119.10 34.00
1217 91.6400 1194.00 1120.39 34.00
1218 91.6900 1103.00 1121.66 33.00
1219 91.7400 1143.00 1122.95 33.00
1220 98.1400 1295.00 1290.78 35.00
1221 98.1900 1297.00 1292.05 36.00
1222 98.2400 1350.00 1293.33 36.00
1223 98.2900 1345.00 1294.62 36.00
1224 98.3400 1335.00 1295.92 36.00
1225 98.3900 1312.00 1297.22 36.00
1226 98.4400 1370.00 1298.53 37.00
1227 98.4900 1366.00 1299.85 36.00
1228 98.5400 1311.00 1301.18 36.00
1229 98.5900 1205.00 1301.77 34.00
1230 98.6400 1313.00 1301.88 36.00
1231 98.6900 1353.00 1302.04 36.00
1232 98.7400 1335.00 1302.32 36.00
1233 98.7900 1314.00 1302.79 36.00
1234 98.8400 1307.00 1303.61 36.00
1235 98.8900 1292.00 1304.95 35.00
1236 98.9400 1322.00 1306.93 36.00
1237 98.9900 1336.00 1309.53 36.00
1238 99.0400 1327.00 1312.48 36.00
1239 99.0900 1267.00 1315.24 35.00
1240 99.1400 1296.00 1317.06 36.00
1241 99.1900 1254.00 1317.36 35.00
1242 99.2400 1272.00 1316.23 35.00
1243 99.2900 1322.00 1314.50 36.00
1244 99.3400 1299.00 1313.31 36.00
1245 99.3900 1285.00 1313.80 35.00
1246 99.4400 1307.00 1316.78 36.00
1247 99.4900 1267.00 1322.49 35.00
1248 99.5400 1232.00 1330.42 35.00
1249 99.5900 1329.00 1339.15 36.00
1250 99.6400 1351.00 1346.41 36.00
1251 99.6900 1318.00 1349.79 36.00
1252 99.7400 1341.00 1347.70 36.00
1253 99.7900 1330.00 1341.06 36.00
1254 99.8400 1313.00 1332.13 36.00
1255 99.8900 1318.00 1323.28 36.00
1256 99.9400 1288.00 1316.15 35.00
1257 99.9900 1299.00 1311.31 36.00
1258 100.0400 1195.00 1308.52 34.00
1259 100.0900 1260.00 1307.18 35.00
1260 100.1400 1329.00 1306.72 36.00
1261 100.1900 1279.00 1306.74 35.00
1262 100.2400 1255.00 1307.01 35.00
1263 100.2900 1368.00 1307.47 36.00
1264 100.3400 1326.00 1308.15 36.00
1265 100.3900 1332.00 1309.20 36.00
1266 100.4400 1292.00 1311.10 35.00
1267 100.4900 1399.00 1314.87 37.00
1268 100.5400 1399.00 1322.53 37.00
1269 100.5900 1327.00 1337.33 36.00
1270 100.6400 1406.00 1363.63 37.00
1271 100.6900 1419.00 1405.74 37.00
1272 100.7400 1463.00 1465.76 38.00
1273 100.7900 1552.00 1540.71 39.00
1274 100.8400 1607.00 1620.08 40.00
1275 100.8900 1736.00 1685.55 41.00
1276 100.9400 1709.00 1715.70 41.00
1277 100.9900 1713.00 1698.43 41.00
1278 101.0400 1703.00 1640.47 41.00
1279 101.0900 1555.00 1561.81 39.00
1280 101.1400 1491.00 1484.03 38.00
1281 101.1900 1459.00 1422.60 38.00
1282 101.2400 1454.00 1383.70 38.00
1283 101.2900 1364.00 1365.76 36.00
1284 101.3400 1391.00 1362.93 37.00
1285 101.3900 1352.00 1368.12 36.00
1286 101.4400 1405.00 1374.54 37.00
1287 101.4900 1348.00 1376.70 36.00
1288 101.5400 1333.00 1371.93 36.00
1289 101.5900 1394.00 1361.22 37.00
1290 101.6400 1382.00 1347.67 37.00
1291 101.6900 1381.00 1334.53 37.00
1292 101.7400 1299.00 1323.95 36.00
1293 101.7900 1296.00 1316.66 36.00
1294 101.8400 1302.00 1312.25 36.00
1295 101.8900 1313.00 1309.85 36.00
1296 101.9400 1300.00 1308.63 36.00
1297 101.9900 1379.00 1308.02 37.00
1298 102.0400 1285.00 1307.70 35.00
1299 102.0900 1305.00 1307.51 36.00
1300 102.1400 1320.00 1307.40 36.00
1301 102.1900 1340.00 1307.32 36.00
1302 102.2400 1304.00 1307.27 36.00
1303 102.2900 1341.00 1307.25 36.00
1304 102.3400 1324.00 1307.25 36.00
1305 102.3900 1366.00 1307.26 36.00
1306 102.4400 1307.00 1307.29 36.00
1307 102.4900 1358.00 1307.31 36.00
1308 102.5400 1366.00 1307.36 36.00
1309 102.5900 1301.00 1307.43 36.00
1310 102.6400 1271.00 1307.50 35.00
1311 102.6900 1330.00 1307.59 36.00
1312 102.7400 1324.00 1307.68 36.00
1313 102.7900 1324.00 1307.79 36.00
1314 102.8400 1362.00 1308.51 36.00
1315 102.8900 1368.00 1309.63 36.00
1316 102.9400 1384.00 1310.77 37.00
1317 102.9900 1275.00 1311.92 35.00
1318 103.0400 1300.00 1313.09 36.00
1319 103.0900 1308.00 1314.28 36.00
1320 103.1400 1350.00 1315.47 36.00
1321 103.1900 1335.00 1316.69 36.00
1322 103.2400 1312.00 1317.94 36.00
1323 103.2900 1329.00 1319.21 36.00
1324 103.3400 1314.00 1320.51 36.00
1325 103.3900 1274.00 1321.85 35.00
1326 103.4400 1324.00 1323.22 36.00
1327 103.4900 1299.00 1324.65 36.00
1328 103.5400 1316.00 1326.13 36.00
1329 103.5900 1364.00 1327.68 36.00
1330 103.6400 1326.00 1329.32 36.00
1331 103.6900 1348.00 1331.05 36.00
1332 103.7400 1362.00 1332.89 36.00
1333 103.7900 1355.00 1334.90 36.00
1334 103.8400 1388.00 1337.11 37.00
1335 103.8900 1347.00 1339.66 36.00
1336 103.9400 1354.00 1342.82 36.00
1337 103.9900 1281.00 1347.34 35.00
1338 104.0400 1337.00 1354.93 36.00
1339 104.0900 1391.00 1369.09 37.00
1340 104.1400 1405.00 1395.97 37.00
1341 104.1900 1510.00 1444.61 38.00
1342 104.2400 1594.00 1525.79 39.00
1343 104.2900 1707.00 1648.36 41.00
1344 104.3400 1891.00 1813.60 43.00
1345 104.3900 1941.00 2008.66 44.00
1346 104.4400 2206.00 2201.76 46.00
1347 104.4900 2309.00 2344.01 48.00
1348 104.5400 2288.00 2386.31 47.00
1349 104.5900 2243.00 2311.48 47.00
1350 104.6400 2182.00 2146.76 46.00
1351 104.6900 2013.00 1943.02 44.00
1352 104.7400 1698.00 1748.84 41.00
1353 104.7900 1609.00 1595.02 40.00
1354 104.8400 1550.00 1490.51 39.00
1355 104.8900 1400.00 1428.34 37.00
1356 104.9400 1336.00 1395.38 36.00
1357 104.9900 1387.00 1379.46 37.00
1358 105.0400 1365.00 1372.23 36.00
1359 105.0900 1314.00 1369.03 36.00
1360 105.1400 1374.00 1367.62 37.00
1361 105.1900 1364.00 1367.04 36.00
1362 105.2400 1431.00 1366.90 37.00
1363 105.2900 1433.00 1367.04 37.00
1364 105.3400 1381.00 1367.37 37.00
1365 105.3900 1330.00 1367.86 36.00
1366 105.4400 1355.00 1368.47 36.00
1367 105.4900 1341.00 1369.18 36.00
1368 105.5400 1286.00 1369.98 35.00
1369 105.5900 1339.00 1370.87 36.00
1370 105.6400 1294.00 1371.82 35.00
1371 105.6900 1352.00 1372.52 36.00
1372 105.7400 1438.00 1372.80 37.00
1373 105.7900 1382.00 1373.16 37.00
1374 105.8400 1356.00 1373.58 36.00
1375 105.8900 1383.00 1374.07 37.00
1376 105.9400 1380.00 1374.65 37.00
1377 105.9900 1374.00 1375.32 37.00
1378 106.0400 1421.00 1376.09 37.00
1379 106.0900 1416.00 1376.98 37.00
1380 106.1400 1354.00 1378.01 36.00
1381 106.1900 1422.00 1379.22 37.00
1382 106.2400 1435.00 1380.66 37.00
1383 106.2900 1427.00 1382.43 37.00
1384 106.3400 1424.00 1384.79 37.00
1385 106.3900 1376.00 1388.42 37.00
1386 106.4400 1386.00 1394.85 37.00
1387 106.4900 1404.00 1407.31 37.00
1388 106.5400 1429.00 1431.67 37.00
1389 106.5900 1551.00 1476.98 39.00
1390 106.6400 1616.00 1554.77 40.00
1391 106.6900 1736.00 1676.13 41.00
1392 106.7400 1994.00 1846.43 44.00
1393 106.7900 2114.00 2058.37 45.00
1394 106.8400 2307.00 2285.44 48.00
1395 106.8900 2555.00 2479.95 50.00
1396 106.9400 2615.00 2583.00 51.00
1397 106.9900 2569.00 2555.44 50.00
1398 107.0400 2446.00 2406.64 49.00
1399 107.0900 2236.00 2185.24 47.00
1400 107.1400 2062.00 1949.81 45.00
1401 110.1400 1333.00 1388.77 36.00
1402 110.1900 1289.00 1389.00 35.00
1403 110.2400 1319.00 1389.24 36.00
1404 110.2900 1368.00 1389.47 36.00
1405 110.3400 1384.00 1389.71 37.00
1406 110.3900 1322.00 1389.95 36.00
1407 110.4400 1328.00 1390.19 36.00
1408 110.4900 1376.00 1390.43 37.00
1409 110.5400 1338.00 1390.68 36.00
1410 110.5900 1369.00 1390.92 37.00
1411 110.6400 1383.00 1391.16 37.00
1412 110.6900 1363.00 1391.41 36.00
1413 110.7400 1370.00 1391.06 37.00
1414 110.7900 1393.00 1390.56 37.00
1415 110.8400 1296.00 1390.07 36.00
1416 110.8900 1325.00 1389.60 36.00
1417 110.9400 1400.00 1389.16 37.00
1418 110.9900 1454.00 1388.79 38.00
1419 111.0400 1330.00 1388.54 36.00
1420 111.0900 1374.00 1388.43 37.00
1421 111.1400 1375.00 1388.53 37.00
1422 111.1900 1354.00 1388.85 36.00
1423 111.2400 1359.00 1389.36 36.00
1424 111.2900 1375.00 1389.95 37.00
1425 111.3400 1481.00 1390.39 38.00
1426 111.3900 1430.00 1390.41 37.00
1427 111.4400 1387.00 1389.84 37.00
1428 111.4900 1373.00 1388.68 37.00
1429 111.5400 1378.00 1387.14 37.00
1430 111.5900 1362.00 1385.49 36.00
1431 111.6400 1359.00 1383.96 36.00
1432 111.6900 1420.00 1382.61 37.00
1433 111.7400 1385.00 1381.57 37.00
1434 111.7900 1348.00 1380.75 36.00
1435 111.8400 1370.00 1380.08 37.00
1436 111.8900 1421.00 1379.49 37.00
1437 111.9400 1350.00 1378.94 36.00
1438 111.9900 1352.00 1378.42 36.00
1439 112.0400 1452.00 1377.90 38.00
1440 112.0900 1356.00 1377.39 36.00
1441 112.1400 1322.00 1376.88 36.00
1442 112.1900 1376.00 1376.38 37.00
1443 112.2400 1359.00 1375.87 36.00
1444 112.2900 1294.00 1375.38 35.00
1445 112.3400 1329.00 1374.88 36.00
1446 112.3900 1351.00 1374.38 36.00
1447 112.4400 1345.00 1373.88 36.00
1448 112.4900 1408.00 1373.38 37.00
1449 112.5400 1387.00 1372.88 37.00
1450 112.5900 1389.00 1372.38 37.00
1451 112.6400 1385.00 1371.88 37.00
1452 112.6900 1403.00 1371.38 37.00
1453 112.7400 1422.00 1370.88 37.00
1454 112.7900 1372.00 1370.39 37.00
1455 112.8400 1309.00 1369.89 36.00
1456 112.8900 1337.00 1369.41 36.00
1457 112.9400 1379.00 1368.93 37.00
1458 112.9900 1342.00 1368.46 36.00
1459 113.0400 1331.00 1368.00 36.00
1460 113.0900 1380.00 1367.55 37.00
1461 113.1400 1347.00 1367.12 36.00
1462 113.1900 1391.00 1366.68 37.00
1463 113.2400 1394.00 1366.22 37.00
1464 113.2900 1421.00 1365.73 37.00
1465 113.3400 1342.00 1365.22 36.00
1466 113.3900 1328.00 1364.68 36.00
1467 113.4400 1443.00 1364.12 37.00
1468 113.4900 1360.00 1363.57 36.00
1469 113.5400 1379.00 1363.03 37.00
1470 113.5900 1386.00 1362.50 37.00
1471 113.6400 1332.00 1361.98 36.00
1472 113.6900 1374.00 1361.47 37.00
1473 113.7400 1355.00 1360.98 36.00
1474 113.7900 1356.00 1360.48 36.00
1475 113.8400 1381.00 1359.99 37.00
1476 113.8900 1378.00 1359.49 37.00
1477 113.9400 1434.00 1359.00 37.00
1478 113.9900 1425.00 1358.51 37.00
1479 114.0400 1363.00 1358.02 36.00
1480 114.0900 1332.00 1357.54 36.00
1481 114.1400 1360.00 1357.05 36.00
1482 114.1900 1373.00 1356.56 37.00
1483 114.2400 1414.00 1355.97 37.00
1484 114.2900 1407.00 1355.48 37.00
1485 114.3400 1377.00 1355.00 37.00
1486 114.3900 1324.00 1354.52 36.00
1487 114.4400 1261.00 1354.04 35.00
1488 114.4900 1318.00 1353.56 36.00
1489 114.5400 1341.00 1353.08 36.00
1490 114.5900 1398.00 1352.61 37.00
1491 114.6400 1409.00 1352.17 37.00
1492 114.6900 1380.00 1351.90 37.00
1493 114.7400 1408.00 1351.63 37.00
1494 114.7900 1347.00 1351.36 36.00
1495 114.8400 1347.00 1351.10 36.00
1496 114.8900 1382.00 1350.84 37.00
1497 114.9400 1359.00 1350.58 36.00
1498 114.9900 1352.00 1350.33 36.00
1499 115.0400 1375.00 1350.08 37.00
1500 115.0900 1380.00 1349.83 37.00
1501 115.1400 1361.00 1349.59 36.00
1502 115.1900 1373.00 1349.36 37.00
1503 115.2400 1395.00 1349.14 37.00
1504 115.2900 1393.00 1348.92 37.00
1505 115.3400 1430.00 1348.71 37.00
1506 115.3900 1340.00 1348.52 36.00
1507 115.4400 1402.00 1348.33 37.00
1508 115.4900 1406.00 1348.17 37.00
1509 115.5400 1317.00 1348.03 36.00
1510 115.5900 1312.00 1347.90 36.00
1511 115.6400 1364.00 1347.81 36.00
1512 115.6900 1403.00 1347.75 37.00
1513 115.7400 1422.00 1347.75 37.00
1514 115.7900 1441.00 1347.84 37.00
1515 115.8400 1368.00 1348.12 36.00
1516 115.8900 1414.00 1348.78 37.00
1517 115.9400 1381.00 1350.24 37.00
1518 115.9900 1363.00 1353.21 36.00
1519 116.0400 1346.00 1358.81 36.00
1520 116.0900 1316.00 1368.53 36.00
1521 116.1400 1424.00 1384.07 37.00
1522 116.1900 1375.00 1406.87 37.00
1523 116.2400 1412.00 1437.43 37.00
1524 116.2900 1504.00 1474.41 38.00
1525 116.3400 1497.00 1513.73 38.00
1526 116.3900 1577.00 1548.20 39.00
1527 116.4400 1618.00 1568.70 40.00
1528 116.4900 1565.00 1568.38 39.00
1529 116.5400 1513.00 1547.11 38.00
1530 116.5900 1518.00 1511.05 38.00
1531 116.6400 1495.00 1469.14 38.00
1532 116.6900 1438.00 1429.50 37.00
1533 116.7400 1386.00 1397.33 37.00
1534 116.7900 1358.00 1374.33 36.00
1535 116.8400 1348.00 1359.57 36.00
1536 116.8900 1323.00 1350.88 36.00
1537 116.9400 1401.00 1346.04 37.00
1538 116.9900 1372.00 1343.36 37.00
1539 117.0400 1347.00 1341.81 36.00
1540 117.0900 1325.00 1340.79 36.00
1541 117.1400 1374.00 1340.04 37.00
1542 117.1900 1387.00 1339.42 37.00
1543 117.2400 1366.00 1338.89 36.00
1544 117.2900 1359.00 1338.40 36.00
1545 117.3400 1347.00 1337.96 36.00
1546 117.3900 1308.00 1337.55 36.00
1547 117.4400 1327.00 1337.16 36.00
1548 117.4900 1319.00 1336.79 36.00
1549 117.5400 1383.00 1336.45 37.00
1550 117.5900 1373.00 1336.12 37.00
1551 117.6400 1334.00 1339.42 36.00
1552 117.6900 1347.00 1343.64 36.00
1553 117.7400 1403.00 1347.87 37.00
1554 117.7900 1395.00 1352.11 37.00
1555 117.8400 1401.00 1356.37 37.00
1556 117.8900 1439.00 1360.64 37.00
1557 117.9400 1426.00 1364.93 37.00
1558 117.9900 1309.00 1369.23 36.00
1559 118.0400 1351.00 1373.55 36.00
1560 118.0900 1390.00 1377.88 37.00
1561 118.1400 1421.00 1382.24 37.00
1562 118.1900 1452.00 1386.62 38.00
1563 118.2400 1402.00 1391.02 37.00
1564 118.2900 1373.00 1395.46 37.00
1565 118.3400 1409.00 1399.93 37.00
1566 118.3900 1458.00 1404.46 38.00
1567 118.4400 1452.00 1409.07 38.00
1568 118.4900 1465.00 1413.82 38.00
1569 118.5400 1515.00 1418.86 38.00
1570 118.5900 1531.00 1424.47 39.00
1571 118.6400 1451.00 1432.84 38.00
1572 118.6900 1449.00 1443.54 38.00
1573 118.7400 1439.00 1457.34 37.00
1574 118.7900 1477.00 1475.69 38.00
1575 118.8400 1524.00 1499.98 39.00
1576 118.8900 1555.00 1531.23 39.00
1577 118.9400 1616.00 1569.29 40.00
1578 118.9900 1722.00 1612.15 41.00
1579 119.0400 1612.00 1655.19 40.00
1580 119.0900 1665.00 1691.13 40.00
1581 119.1400 1744.00 1712.01 41.00
1582 119.1900 1676.00 1713.26 40.00
1583 119.2400 1702.00 1696.65 41.00
1584 119.2900 1696.00 1668.92 41.00
1585 119.3400 1577.00 1638.66 39.00
1586 119.3900 1539.00 1613.67 39.00
1587 119.4400 1561.00 1599.49 39.00
1588 119.4900 1607.00 1599.10 40.00
1589 119.5400 1644.00 1613.52 40.00
1590 119.5900 1596.00 1645.27 39.00
1591 119.6400 1705.00 1691.04 41.00
1592 119.6900 1704.00 1747.32 41.00
1593 119.7400 1734.00 1808.65 41.00
1594 119.7900 1758.00 1866.10 41.00
1595 119.8400 1814.00 1908.19 42.00
1596 119.8900 1846.00 1925.08 42.00
1597 119.9400 1893.00 1914.31 43.00
1598 119.9900 1783.00 1881.90 42.00
1599 120.0400 1742.00 1838.69 41.00
1600 120.0900 1690.00 1796.00 41.00
1601 120.1400 1622.00 1762.53 40.00
1602 124.4400 1538.00 1570.73 39.00
1603 124.4900 1581.00 1569.67 39.00
1604 124.5400 1582.00 1568.81 39.00
1605 124.5900 1606.00 1568.11 40.00
1606 124.6400 1579.00 1567.57 39.00
1607 124.6900 1537.00 1567.27 39.00
1608 124.7400 1550.00 1567.57 39.00
1609 124.7900 1514.00 1568.79 38.00
1610 124.8400 1568.00 1571.54 39.00
1611 124.8900 1571.00 1576.92 39.00
1612 124.9400 1552.00 1586.48 39.00
1613 124.9900 1632.00 1602.22 40.00
1614 125.0400 1669.00 1626.37 40.00
1615 125.0900 1704.00 1661.05 41.00
1616 125.1400 1693.00 1707.64 41.00
1617 125.1900 1871.00 1765.83 43.00
1618 125.2400 1911.00 1832.61 43.00
1619 125.2900 1965.00 1900.89 44.00
1620 125.3400 1953.00 1959.40 44.00
1621 125.3900 2054.00 1994.80 45.00
1622 125.4400 1993.00 1997.24 44.00
1623 125.4900 2024.00 1965.75 44.00
1624 125.5400 1822.00 1908.07 42.00
1625 125.5900 1794.00 1836.64 42.00
1626 125.6400 1697.00 1764.25 41.00
1627 125.6900 1611.00 1700.91 40.00
1628 125.7400 1688.00 1652.09 41.00
1629 125.7900 1614.00 1618.88 40.00
1630 125.8400 1663.00 1599.32 40.00
1631 125.8900 1650.00 1589.91 40.00
1632 125.9400 1624.00 1586.91 40.00
1633 125.9900 1614.00 1586.88 40.00
1634 126.0400 1650.00 1586.97 40.00
1635 126.0900 1583.00 1585.25 39.00
1636 126.1400 1558.00 1580.96 39.00
1637 126.1900 1546.00 1574.43 39.00
1638 126.2400 1550.00 1566.59 39.00
1639 126.2900 1489.00 1558.54 38.00
1640 126.3400 1615.00 1551.18 40.00
1641 126.3900 1558.00 1545.05 39.00
1642 126.4400 1592.00 1540.29 39.00
1643 126.4900 1602.00 1536.77 40.00
1644 126.5400 1534.00 1534.20 39.00
1645 126.5900 1536.00 1532.28 39.00
1646 126.6400 1475.00 1530.76 38.00
1647 126.6900 1487.00 1529.48 38.00
1648 126.7400 1510.00 1528.33 38.00
1649 126.7900 1487.00 1527.26 38.00
1650 126.8400 1491.00 1526.23 38.00
1651 126.8900 1572.00 1525.23 39.00
1652 126.9400 1509.00 1524.25 38.00
1653 126.9900 1535.00 1523.46 39.00
1654 127.0400 1542.00 1522.94 39.00
1655 127.0900 1490.00 1522.43 38.00
1656 127.1400 1554.00 1521.93 39.00
1657 127.1900 1592.00 1521.43 39.00
1658 127.2400 1593.00 1520.95 39.00
1659 127.2900 1526.00 1520.45 39.00
1660 127.3400 1584.00 1519.97 39.00
1661 127.3900 1553.00 1519.50 39.00
1662 127.4400 1471.00 1519.04 38.00
1663 127.4900 1506.00 1518.58 38.00
1664 127.5400 1457.00 1518.12 38.00
1665 127.5900 1489.00 1517.67 38.00
1666 127.6400 1530.00 1517.21 39.00
1667 127.6900 1563.00 1516.77 39.00
1668 127.7400 1489.00 1516.32 38.00
1669 127.7900 1458.00 1515.88 38.00
1670 127.8400 1475.00 1515.43 38.00
1671 127.8900 1470.00 1514.99 38.00
1672 127.9400 1500.00 1514.55 38.00
1673 127.9900 1532.00 1514.12 39.00
1674 128.0400 1495.00 1513.68 38.00
1675 128.0900 1501.00 1513.22 38.00
1676 128.1400 1480.00 1512.79 38.00
1677 128.1900 1492.00 1512.36 38.00
1678 128.2400 1471.00 1511.93 38.00
1679 128.2900 1478.00 1511.50 38.00
1680 128.3400 1513.00 1511.07 38.00
1681 128.3900 1497.00 1510.65 38.00
1682 128.4400 1503.00 1510.22 38.00
1683 128.4900 1479.00 1509.81 38.00
1684 128.5400 1458.00 1509.39 38.00
1685 128.5900 1470.00 1508.96 38.00
1686 128.6400 1487.00 1508.54 38.00
1687 128.6900 1484.00 1508.12 38.00
1688 128.7400 1540.00 1507.70 39.00
1689 128.7900 1571.00 1507.28 39.00
1690 128.8400 1544.00 1506.86 39.00
1691 128.8900 1518.00 1506.44 38.00
1692 128.9400 1479.00 1506.02 38.00
1693 128.9900 1551.00 1505.61 39.00
1694 129.0400 1484.00 1505.19 38.00
1695 129.0900 1531.00 1504.78 39.00
1696 129.1400 1492.00 1504.37 38.00
1697 129.1900 1406.00 1503.96 37.00
1698 129.2400 1490.00 1503.55 38.00
1699 129.2900 1477.00 1503.14 38.00
1700 129.3400 1466.00 1502.73 38.00
1701 129.3900 1485.00 1502.33 38.00
1702 129.4400 1480.00 1501.92 38.00
1703 129.4900 1528.00 1501.51 39.00
1704 129.5400 1479.00 1501.11 38.00
1705 129.5900 1408.00 1500.71 37.00
1706 129.6400 1433.00 1500.31 37.00
1707 129.6900 1485.00 1499.91 38.00
1708 129.7400 1514.00 1499.51 38.00
1709 129.7900 1436.00 1499.11 37.00
1710 129.8400 1401.00 1498.72 37.00
1711 129.8900 1428.00 1498.32 37.00
1712 129.9400 1491.00 1497.93 38.00
1713 129.9900 1478.00 1497.54 38.00
1714 130.0400 1498.00 1497.15 38.00
1715 130.0900 1481.00 1496.77 38.00
1716 130.1400 1470.00 1496.38 38.00
1717 130.1900 1475.00 1496.00 38.00
1718 130.2400 1503.00 1495.62 38.00
1719 130.2900 1503.00 1495.25 38.00
1720 130.3400 1536.00 1494.88 39.00
1721 130.3900 1477.00 1494.51 38.00
1722 130.4400 1493.00 1494.15 38.00
1723 130.4900 1443.00 1493.79 37.00
1724 130.5400 1519.00 1493.44 38.00
1725 130.5900 1469.00 1493.09 38.00
1726 130.6400 1468.00 1492.76 38.00
1727 130.6900 1449.00 1492.46 38.00
1728 130.7400 1482.00 1492.18 38.00
1729 130.7900 1528.00 1491.96 39.00
1730 130.8400 1535.00 1491.83 39.00
1731 130.8900 1434.00 1491.81 37.00
1732 130.9400 1506.00 1491.96 38.00
1733 130.9900 1446.00 1492.32 38.00
1734 131.0400 1425.00 1492.94 37.00
1735 131.0900 1476.00 1493.84 38.00
1736 131.1400 1484.00 1495.03 38.00
1737 131.1900 1528.00 1496.46 39.00
1738 131.2400 1492.00 1498.02 38.00
1739 131.2900 1584.00 1499.47 39.00
1740 131.3400 1588.00 1500.54 39.00
1741 131.3900 1522.00 1500.95 39.00
1742 131.4400 1564.00 1500.55 39.00
1743 131.4900 1553.00 1499.38 39.00
1744 131.5400 1531.00 1497.64 39.00
1745 131.5900 1473.00 1496.55 38.00
1746 131.6400 1432.00 1496.06 38.00
1747 131.6900 1457.00 1495.79 38.00
1748 131.7400 1522.00 1495.85 39.00
1749 131.7900 1558.00 1496.32 40.00
1750 131.8400 1519.00 1497.15 39.00
1751 131.8900 1519.00 1498.30 39.00
1752 131.9400 1516.00 1499.70 39.00
1753 131.9900 1512.00 1501.31 39.00
1754 132.0400 1484.00 1503.14 39.00
1755 132.0900 1423.00 1505.22 38.00
1756 132.1400 1392.00 1507.72 38.00
1757 132.1900 1427.00 1510.90 39.00
1758 132.2400 1455.00 1515.26 39.00
1759 132.2900 1554.00 1521.55 40.00
1760 132.3400 1559.00 1530.91 41.00
1761 132.3900 1522.00 1544.78 40.00
1762 132.4400 1593.00 1565.02 41.00
1763 132.4900 1618.00 1593.71 42.00
1764 132.5400 1637.00 1632.99 42.00
1765 132.5900 1651.00 1684.80 42.00
1766 132.6400 1680.00 1750.29 43.00
1767 132.6900 1832.00 1829.11 45.00
1768 132.7400 1919.00 1918.13 46.00
1769 132.7900 2026.00 2010.50 47.00
1770 132.8400 2143.00 2095.14 49.00
1771 132.8900 2290.00 2158.05 50.00
1772 132.9400 2277.00 2186.70 50.00
1773 132.9900 2229.00 2175.05 50.00
1774 133.0400 2084.00 2125.87 48.00
1775 133.0900 1961.00 2048.90 47.00
1776 133.1400 1915.00 1957.32 46.00
1777 133.1900 1844.00 1864.28 46.00
1778 133.2400 1748.00 1780.52 45.00
1779 133.2900 1724.00 1712.64 44.00
1780 133.3400 1723.00 1663.19 44.00
1781 133.3900 1668.00 1631.33 44.00
1782 133.4400 1627.00 1614.31 43.00
1783 133.4900 1626.00 1608.62 43.00
1784 133.5400 1624.00 1610.72 43.00
1785 133.5900 1670.00 1617.29 44.00
1786 133.6400 1666.00 1625.31 44.00
1787 133.6900 1595.00 1632.16 43.00
1788 133.7400 1685.00 1635.96 45.00
1789 133.7900 1651.00 1636.10 44.00
1790 133.8400 1622.00 1633.36 44.00
1791 133.8900 1642.00 1629.65 44.00
1792 133.9400 1637.00 1627.61 44.00
1793 133.9900 1667.00 1630.24 45.00
1794 134.0400 1601.00 1640.53 44.00
1795 134.0900 1653.00 1661.24 45.00
1796 134.1400 1701.00 1694.73 45.00
1797 134.1900 1707.00 1742.81 46.00
1798 134.2400 1766.00 1806.43 47.00
1799 134.2900 1869.00 1884.96 48.00
1800 134.3400 2064.00 1975.55 51.00
1801 134.3900 2155.00 2071.73 52.00
1802 134.4400 2256.00 2162.97 53.00
1803 134.4900 2213.00 2235.59 53.00
1804 134.5400 2288.00 2276.08 54.00
1805 134.5900 2205.00 2276.18 53.00
1806 134.6400 2132.00 2235.98 52.00
1807 134.6900 2056.00 2163.02 51.00
1808 134.7400 1929.00 2069.37 50.00
1809 134.7900 1941.00 1968.36 50.00
1810 134.8400 1844.00 1871.64 49.00
1811 134.8900 1830.00 1787.59 49.00
1812 134.9400 1756.00 1720.27 48.00
1813 134.9900 1723.00 1670.18 47.00
1814 135.0400 1644.00 1635.34 46.00
1815 135.0900 1626.00 1612.52 46.00
1816 135.1400 1644.00 1598.37 47.00
1817 135.1900 1547.00 1590.00 45.00
1818 135.2400 1597.00 1585.27 46.00
1819 135.2900 1600.00 1582.73 46.00
1820 135.3400 1596.00 1581.46 46.00
1821 135.3900 1589.00 1580.92 46.00
1822 135.4400 1639.00 1580.82 47.00
1823 135.4900 1604.00 1580.98 47.00
1824 135.5400 1617.00 1581.33 47.00
1825 135.5900 1583.00 1581.79 46.00
1826 135.6400 1621.00 1582.36 47.00
1827 135.6900 1614.00 1583.00 47.00
1828 135.7400 1583.00 1583.70 47.00
1829 135.7900 1553.00 1584.45 46.00
1830 135.8400 1557.00 1585.25 47.00
1831 135.8900 1522.00 1586.08 46.00
1832 135.9400 1549.00 1586.94 47.00
1833 135.9900 1590.00 1586.22 47.00
1834 136.0400 1609.00 1585.53 48.00
1835 139.9400 1537.00 1549.61 54.00
1836 139.9900 1507.00 1550.73 54.00
1837 140.0400 1517.00 1552.50 54.00
1838 140.0900 1493.00 1555.12 54.00
1839 140.1400 1459.00 1558.80 53.00
1840 140.1900 1565.00 1564.02 56.00
1841 140.2400 1586.00 1570.75 56.00
1842 140.2900 1572.00 1579.19 56.00
1843 140.3400 1597.00 1589.42 56.00
1844 140.3900 1583.00 1601.34 56.00
1845 140.4400 1526.00 1614.56 55.00
1846 140.4900 1605.00 1628.28 57.00
1847 140.5400 1626.00 1641.26 57.00
1848 140.5900 1616.00 1651.94 57.00
1849 140.6400 1641.00 1658.78 58.00
1850 140.6900 1632.00 1660.69 58.00
1851 140.7400 1596.00 1657.35 57.00
1852 140.7900 1667.00 1649.24 59.00
1853 140.8400 1640.00 1637.46 58.00
1854 140.8900 1507.00 1623.43 56.00
1855 140.9400 1605.00 1608.63 58.00
1856 140.9900 1582.00 1594.42 58.00
1857 141.0400 1560.00 1581.77 57.00
1858 141.0900 1559.00 1571.33 57.00
1859 141.1400 1508.00 1563.31 57.00
1860 141.1900 1607.00 1557.69 59.00
1861 141.2400 1527.00 1554.25 57.00
1862 141.2900 1571.00 1552.70 58.00
1863 141.3400 1516.00 1552.76 57.00
1864 141.3900 1625.00 1554.22 59.00
1865 141.4400 1529.00 1556.89 58.00
1866 141.4900 1605.00 1560.61 59.00
1867 141.5400 1624.00 1565.21 60.00
1868 141.5900 1577.00 1570.41 59.00
1869 141.6400 1620.00 1575.81 60.00
1870 141.6900 1641.00 1580.87 60.00
1871 141.7400 1610.00 1584.96 60.00
1872 141.7900 1569.00 1587.46 59.00
1873 141.8400 1598.00 1587.95 60.00
1874 141.8900 1521.00 1586.31 59.00
1875 141.9400 1507.00 1582.71 59.00
1876 141.9900 1554.00 1577.59 60.00
1877 142.0400 1535.00 1571.49 59.00
1878 142.0900 1539.00 1565.00 60.00
1879 142.1400 1583.00 1558.65 61.00
1880 142.1900 1543.00 1552.84 60.00
1881 142.2400 1551.00 1547.83 60.00
1882 142.2900 1535.00 1543.73 60.00
1883 142.3400 1476.00 1540.50 59.00
1884 142.3900 1448.00 1538.05 58.00
1885 142.4400 1510.00 1536.23 60.00
1886 142.4900 1539.00 1534.90 61.00
1887 142.5400 1518.00 1533.92 60.00
1888 142.5900 1518.00 1533.19 60.00
1889 142.6400 1552.00 1532.62 61.00
1890 142.6900 1473.00 1532.16 60.00
1891 142.7400 1428.00 1531.76 59.00
1892 142.7900 1512.00 1531.40 61.00
1893 142.8400 1489.00 1531.07 60.00
1894 142.8900 1471.00 1530.76 60.00
1895 142.9400 1545.00 1530.46 62.00
1896 142.9900 1495.00 1530.18 61.00
1897 143.0400 1523.00 1529.83 62.00
1898 143.0900 1524.00 1529.56 62.00
1899 143.1400 1614.00 1529.29 64.00
1900 143.1900 1550.00 1529.02 63.00
1901 143.2400 1544.00 1528.76 63.00
1902 143.2900 1504.00 1528.50 62.00
1903 143.3400 1444.00 1528.25 61.00
1904 143.3900 1554.00 1527.99 63.00
1905 143.4400 1572.00 1527.74 64.00
1906 143.4900 1489.00 1527.49 62.00
1907 143.5400 1480.00 1527.24 62.00
1908 143.5900 1524.00 1526.99 63.00
1909 143.6400 1535.00 1526.75 64.00
1910 143.6900 1533.00 1526.51 64.00
1911 143.7400 1503.00 1526.26 63.00
1912 143.7900 1561.00 1526.02 64.00
1913 143.8400 1539.00 1525.78 64.00
1914 143.8900 1516.00 1525.55 64.00
1915 143.9400 1482.00 1525.31 63.00
1916 143.9900 1491.00 1525.07 64.00
1917 144.0400 1548.00 1524.83 65.00
1918 144.0900 1617.00 1524.60 66.00
1919 144.1400 1562.00 1524.37 65.00
1920 144.1900 1582.00 1524.14 66.00
1921 144.2400 1501.00 1523.91 64.00
1922 144.2900 1549.00 1523.68 66.00
1923 144.3400 1549.00 1523.45 66.00
1924 144.3900 1583.00 1523.23 67.00
1925 144.4400 1607.00 1523.58 67.00
1926 144.4900 1560.00 1524.07 66.00
1927 144.5400 1496.00 1524.56 65.00
1928 144.5900 1504.00 1525.06 65.00
1929 144.6400 1444.00 1525.56 64.00
1930 144.6900 1421.00 1526.06 64.00
1931 144.7400 1523.00 1526.56 66.00
1932 144.7900 1452.00 1527.07 65.00
1933 144.8400 1525.00 1527.58 67.00
1934 144.8900 1582.00 1528.09 68.00
1935 144.9400 1543.00 1528.61 67.00
1936 144.9900 1554.00 1529.13 68.00
1937 145.0400 1580.00 1529.58 68.00
1938 145.0900 1596.00 1530.11 69.00
1939 145.1400 1584.00 1530.64 69.00
1940 145.1900 1509.00 1531.18 67.00
1941 145.2400 1537.00 1531.72 68.00
1942 145.2900 1530.00 1532.27 68.00
1943 145.3400 1529.00 1532.83 68.00
1944 145.3900 1622.00 1533.41 70.00
1945 145.4400 1543.00 1534.01 69.00
1946 145.4900 1566.00 1534.65 70.00
1947 145.5400 1461.00 1535.34 67.00
1948 145.5900 1561.00 1536.10 70.00
1949 145.6400 1583.00 1536.99 70.00
1950 145.6900 1557.00 1538.03 70.00
1951 145.7400 1554.00 1539.30 70.00
1952 145.7900 1598.00 1540.86 71.00
1953 145.8400 1613.00 1542.79 72.00
1954 145.8900 1592.00 1545.20 71.00
1955 145.9400 1665.00 1548.20 73.00
1956 145.9900 1556.00 1551.92 71.00
1957 146.0400 1584.00 1556.52 72.00
1958 146.0900 1590.00 1562.16 72.00
1959 146.1400 1610.00 1569.03 73.00
1960 146.1900 1697.00 1577.30 75.00
1961 146.2400 1642.00 1587.10 74.00
1962 146.2900 1633.00 1598.49 74.00
1963 146.3400 1608.00 1611.34 73.00
1964 146.3900 1719.00 1625.31 76.00
1965 146.4400 1586.00 1639.78 73.00
1966 146.4900 1657.00 1653.85 75.00
1967 146.5400 1718.00 1666.37 76.00
1968 146.5900 1635.00 1676.16 75.00
1969 146.6400 1661.00 1682.19 75.00
1970 146.6900 1754.00 1683.86 78.00
1971 146.7400 1720.00 1681.06 77.00
1972 146.7900 1563.00 1674.16 74.00
1973 146.8400 1609.00 1663.90 75.00
1974 146.8900 1628.00 1651.28 75.00
1975 146.9400 1648.00 1637.37 76.00
1976 146.9900 1713.00 1623.20 78.00
1977 147.0400 1596.00 1609.67 75.00
1978 147.0900 1574.00 1597.41 75.00
1979 147.1400 1597.00 1586.85 76.00
1980 147.1900 1579.00 1578.15 75.00
1981 147.2400 1586.00 1571.27 76.00
1982 147.2900 1590.00 1566.06 76.00
1983 147.3400 1550.00 1562.26 75.00
1984 147.3900 1594.00 1559.62 76.00
1985 147.4400 1569.00 1557.86 76.00
1986 147.4900 1497.00 1556.76 74.00
1987 147.5400 1534.00 1556.13 76.00
1988 147.5900 1572.00 1555.83 77.00
1989 147.6400 1652.00 1555.76 79.00
1990 147.6900 1576.00 1555.85 77.00
1991 147.7400 1536.00 1556.04 76.00
1992 147.7900 1493.00 1556.31 75.00
1993 147.8400 1552.00 1556.62 77.00
1994 147.8900 1603.00 1556.99 78.00
1995 147.9400 1582.00 1557.38 78.00
1996 147.9900 1601.00 1557.84 79.00
1997 148.0400 1563.00 1558.35 78.00
1998 148.0900 1544.00 1558.89 78.00
1999 148.1400 1550.00 1559.48 78.00
2000 148.1900 1621.00 1560.11 80.00
2001 148.2400 1530.00 1560.79 78.00
2002 148.2900 1636.00 1561.52 81.00
2003 148.3400 1584.00 1562.31 80.00
2004 148.3900 1489.00 1563.18 77.00
2005 148.4400 1498.00 1564.11 78.00
2006 148.4900 1485.00 1565.11 78.00
2007 148.5400 1634.00 1566.17 82.00
2008 148.5900 1598.00 1567.26 81.00
2009 148.6400 1703.00 1568.36 84.00
2010 148.6900 1543.00 1569.42 80.00
2011 148.7400 1562.00 1570.40 81.00
2012 148.7900 1563.00 1571.26 81.00
2013 148.8400 1594.00 1571.95 82.00
2014 148.8900 1533.00 1572.46 80.00
2015 148.9400 1638.00 1572.79 83.00
2016 148.9900 1595.00 1572.96 82.00
2017 149.0400 1582.00 1572.98 82.00
2018 149.0900 1593.00 1572.91 83.00
2019 149.1400 1597.00 1572.78 83.00
2020 149.1900 1523.00 1572.64 81.00
2021 149.2400 1538.00 1572.51 82.00
2022 149.2900 1545.00 1572.43 82.00
2023 149.3400 1565.00 1572.41 83.00
2024 149.3900 1554.00 1572.47 83.00
2025 149.4400 1654.00 1572.60 86.00
2026 149.4900 1574.00 1572.81 84.00
2027 149.5400 1522.00 1573.09 83.00
2028 149.5900 1602.00 1573.42 85.00
2029 149.6400 1514.00 1573.79 83.00
2030 149.6900 1636.00 1574.20 86.00
2031 149.7400 1596.00 1574.64 86.00
2032 149.7900 1571.00 1575.10 85.00
2033 149.8400 1534.00 1575.57 84.00
2034 149.8900 1434.00 1576.05 82.00
2035 149.9400 1531.00 1576.54 85.00
2036 149.9900 1550.00 1577.03 85.00
2037 150.0400 1567.00 1577.53 86.00
2038 150.0900 1617.00 1578.03 88.00
2039 150.1400 1631.00 1578.53 88.00
2040 150.1900 1619.00 1579.04 88.00
2041 150.2400 1546.00 1579.54 86.00
2042 150.2900 1589.00 1580.05 88.00
2043 150.3400 1628.00 1580.56 89.00
2044 150.3900 1571.00 1581.07 88.00
2045 150.4400 1564.00 1581.58 88.00
2046 150.4900 1653.00 1582.09 90.00
2047 150.5400 1672.00 1582.60 91.00
2048 150.5900 1644.00 1583.11 91.00
2049 150.6400 1586.00 1583.63 89.00
2050 150.6900 1639.00 1584.14 91.00
2051 150.7400 1652.00 1584.66 91.00
2052 150.7900 1564.00 1585.17 89.00
2053 150.8400 1503.00 1585.69 88.00
2054 150.8900 1652.00 1586.21 92.00
2055 150.9400 1628.00 1586.73 92.00
2056 150.9900 1549.00 1587.25 90.00
2057 151.0400 1667.00 1587.78 93.00
2058 151.0900 1693.00 1588.30 94.00
2059 151.1400 1786.00 1588.83 97.00
2060 151.1900 1644.00 1589.35 93.00
2061 151.2400 1677.00 1589.88 95.00
2062 151.2900 1605.00 1590.41 93.00
2063 151.3400 1642.00 1590.95 94.00
2064 151.3900 1630.00 1591.48 94.00
2065 151.4400 1665.00 1592.02 95.00
2066 151.4900 1682.00 1592.56 96.00
2067 151.5400 1584.00 1593.10 93.00
2068 151.5900 1715.00 1593.64 97.00
2069 151.6400 1801.00 1594.19 100.00
2070 151.6900 1714.00 1594.73 98.00
loop_
_pd_proc_info_excluded_regions
'from 0.95 to 10.0: inclined inset'
'from 34.4 to 42.4: container and side-phase reflection'
'from 53.3 to 57.4: container reflection'
'from 67.3 to 72.3: container reflection'
'from 80.5 to 84.0: container reflection'
'from 91.8 to 98.1: container reflection'
'from 107.2 to 110.1: container reflection'
'from 120.2 to 124.4: container reflection'
'from 136.1 to 139.9: container reflection'
'from 151.75 to 152.05: tailing'
loop_
_refln_index_h
_refln_index_k
_refln_index_l
_refln_F_squared_calc
_refln_F_squared_meas
_refln_include_status
_refln_d_spacing
0 0 3 17.36 13.46 o 6.217622
0 0 6 744.89 745.08 o 3.108811
1 0 1 54.42 54.03 o 2.988997
1 -1 2 796.73 795.96 o 2.880121
0 0 9 119.67 112.60 o 2.072541
1 0 7 2.62 1.76 < 2.000441
1 -1 8 5.17 3.68 < 1.847416
2 -1 0 16.13 18.98 o 1.748290
1 0 10 413.55 407.24 o 1.588160
0 0 12 2.97 2.51 < 1.554406
2 -1 6 487.50 488.47 o 1.523854
2 -2 1 43.74 43.52 o 1.509100
2 0 2 514.45 522.48 o 1.494498
1 -1 11 0.22 0.29 o 1.479529
2 -2 4 12.35 9.21 < 1.440060
2 0 5 64.93 67.28 o 1.402924
1 0 13 89.15 87.25 o 1.296639
2 0 8 5.45 4.08 < 1.269826
0 0 15 0.89 0.87 < 1.243525
1 -1 14 209.13 233.28 o 1.219522
3 -1 1 31.89 29.92 o 1.142376
3 -2 2 339.62 330.11 o 1.136002
2 0 11 0.37 0.22 o 1.129386
3 -1 4 12.46 11.69 o 1.111535
3 -2 5 47.94 46.14 o 1.094188
1 0 16 0.21 0.45 < 1.087961
2 -1 15 2.59 0.94 < 1.013336
3 0 0 14.69 9.54 < 1.009376
2 0 14 146.29 153.52 o 1.000221
3 -3 3 10.79 11.02 o 0.996332
3 0 3 10.79 11.02 o 0.996332
3 -1 10 181.49 177.53 o 0.975524
3 -3 6 208.19 220.14 o 0.960040
3 0 6 208.19 220.14 o 0.960040
1 0 19 2.46 1.24 < 0.933877
2 -2 16 0.13 0.49 < 0.923708
3 -3 9 42.94 43.15 o 0.907474
3 0 9 42.94 43.15 o 0.907474
3 -1 13 43.73 40.13 o 0.894740
2 -1 18 66.92 46.20 o 0.891439
1 -1 20 0.00 0.00 < 0.891325
3 -2 14 93.41 93.07 o 0.868178
4 -2 3 8.05 5.78 o 0.865632
3 -3 12 2.75 3.35 < 0.846550
3 0 12 2.75 3.35 < 0.846550
4 -2 6 136.58 138.04 o 0.841511
4 -3 1 16.87 16.77 o 0.839001
4 -1 2 148.21 140.14 o 0.836467
4 -1 5 25.63 18.70 o 0.819345
3 -1 16 0.46 0.32 < 0.816721
1 0 22 25.29 17.62 < 0.816458
4 -2 9 31.53 26.95 o 0.805435
4 -3 7 1.48 1.06 < 0.801008
#BEGIN Loops that were not found in dictionaries:
loop_
_jana_atom_site_adp_c_label
_jana_atom_site_adp_c_type_symbol
_jana_atom_site_adp_c_111
_jana_atom_site_adp_c_112
_jana_atom_site_adp_c_113
_jana_atom_site_adp_c_122
_jana_atom_site_adp_c_123
_jana_atom_site_adp_c_133
_jana_atom_site_adp_c_222
_jana_atom_site_adp_c_223
_jana_atom_site_adp_c_233
_jana_atom_site_adp_c_333
Li1 Li 0 0 0 0 0 0 0 0 0 0
loop_
_jana_atom_site_adp_d_label
_jana_atom_site_adp_d_type_symbol
_jana_atom_site_adp_d_1111
_jana_atom_site_adp_d_1112
_jana_atom_site_adp_d_1113
_jana_atom_site_adp_d_1122
_jana_atom_site_adp_d_1123
_jana_atom_site_adp_d_1133
_jana_atom_site_adp_d_1222
_jana_atom_site_adp_d_1223
_jana_atom_site_adp_d_1233
_jana_atom_site_adp_d_1333
_jana_atom_site_adp_d_2222
_jana_atom_site_adp_d_2223
_jana_atom_site_adp_d_2233
_jana_atom_site_adp_d_2333
_jana_atom_site_adp_d_3333
Li1 Li 9(2) 4.5(12) 0 4.5(12) 0 0.14(3) 4.5(12) 0 0.068(15) 0 9(2) 0 0.14(3) 0
0
#END Loops that were not found in dictionaries
