#------------------------------------------------------------------------------
#$Date: 2016-02-13 21:28:24 +0200 (Sat, 13 Feb 2016) $
#$Revision: 176429 $
#$URL: svn://www.crystallography.net/cod/cif/1/51/96/1519663.cif $
#------------------------------------------------------------------------------
#
# This file is available in the Crystallography Open Database (COD),
# http://www.crystallography.net/
#
# All data on this site have been placed in the public domain by the
# contributors.
#
data_1519663
loop_
_publ_author_name
'Wiedemann, Dennis'
'Islam, Mazharul M.'
'Nakhal, Suliman'
'Senyshyn, Anatoliy'
'Bredow, Thomas'
'Lerch, Martin'
_publ_section_title
;
 Lithium Diffusion Pathways in 3R-LixTiS2: A Combined Neutron Diffraction
 and Computational Study
;
_journal_issue                   21
_journal_name_full               'The Journal of Physical Chemistry C'
_journal_page_first              11370
_journal_paper_doi               10.1021/acs.jpcc.5b01166
_journal_volume                  119
_journal_year                    2015
_chemical_compound_source        synthetic
_chemical_formula_iupac          'Li0.90 Ti S2 (hR3.9)'
_chemical_formula_sum            'Li0.9 S2 Ti'
_chemical_formula_weight         118.2
_chemical_name_systematic
' lithium titanium disulfide (lithium deficient)'
_space_group_IT_number           166
_symmetry_cell_setting           trigonal
_symmetry_Int_Tables_number      166
_symmetry_space_group_name_Hall  '-R 3 2"'
_symmetry_space_group_name_H-M   'R -3 m :H'
_atom_sites_solution_hydrogens   notdet
_atom_sites_solution_primary     other
_atom_sites_solution_secondary   notdet
_cell_angle_alpha                90
_cell_angle_beta                 90
_cell_angle_gamma                120
_cell_formula_units_Z            3
_cell_length_a                   3.52138(8)
_cell_length_b                   3.52138(8)
_cell_length_c                   18.5588(6)
_cell_measurement_temperature    873
_cell_volume                     199.300(9)
_computing_cell_refinement       'JANA2006 (Pet\<r\'i\<cek, 2014)'
_computing_data_collection       'CARESS (HZB, 2013)'
_computing_data_reduction        'DATAPARSER (Senyshyn, 2011)'
_computing_molecular_graphics    'Diamond (Brandenburg, 2013)'
_computing_publication_material  'JANA2006 (Pet\<r\'i\<cek, 2014)'
_computing_structure_refinement  'JANA2006 (Pet\<r\'i\<cek, 2014)'
_computing_structure_solution    'ICSD (Bergerhoff, 1987)'
_diffrn_ambient_environment      vacuum
_diffrn_ambient_temperature      873
_diffrn_detector                 '^3^He counter'
_diffrn_detector_details
; curved position-sensitive detector-array of 80 counter tubes, height: 300 mm,
resolution: 3 mm (B. Krimmer, R. Gilles, K. Zeitelhack, R. Schneider,
G. Montermann, H. Boysen, H. Fuess, Appl. Phys. A: Mater. Sci. Process.
2002, 74, S154-S156)
;
_diffrn_measurement_device       'one-circle powder diffractometer'
_diffrn_measurement_device_details
; M. Hoelzel, A. Senyshyn, N. Juenke, H. Boysen, W. Schmahl, H. Fuess,
Nucl. Instrum. Methods Phys. Res., Sect. A 2012, 667, 32-37
;
_diffrn_measurement_device_type  SPODI
_diffrn_measurement_method       'profile data from \q/2\q scans'
_diffrn_radiation_monochromator  'Ge 551'
_diffrn_radiation_probe          neutron
_diffrn_radiation_type           neutron
_diffrn_radiation_wavelength     1.54829
_diffrn_source                   'nuclear reactor'
_diffrn_source_type              'FRM II beamline 8a'
_exptl_absorpt_coefficient_mu    0.097
_exptl_absorpt_correction_type   cylinder
_exptl_absorpt_process_details
; correction for a cylindrical sample with \mR = 0.218 as
implemented in JANA2006
;
_exptl_crystal_density_diffrn    2.9557
_exptl_crystal_density_method    'not measured'
_exptl_crystal_F_000             1.84
_pd_char_atten_coef_mu_calc      0.058
_pd_char_colour                  black
_pd_instr_2theta_monochr_pre     155
_pd_instr_beam_size_ax           100
_pd_instr_beam_size_eq           25
_pd_instr_dist_mono/spec         5000
_pd_instr_dist_spec/detc         1120
_pd_instr_dist_src/mono          17500
_pd_instr_geometry               Debye-Scherrer
_pd_instr_location
; SPODI diffractometer, Heinz Maier-Leibnitz Zentrum,
Garching b. M\"unchen (Germany)
;
_pd_instr_monochr_pre_spec       'Ge 551'
_pd_instr_soller_eq_spec/detc    0.16667
_pd_meas_2theta_range_inc        0.05
_pd_meas_2theta_range_max        151.900
_pd_meas_2theta_range_min        0.950
_pd_meas_number_of_points        3020
_pd_meas_scan_method             step
_pd_proc_2theta_range_inc        0.05
_pd_proc_2theta_range_max        151.7
_pd_proc_2theta_range_min        10.05
_pd_proc_info_data_reduction
; efficiency/intensity correction and 2\q scattering-angle correction for each
detector-collimator pair, geometrical data correction with Lorentz factor,
variable integration height to obtain 1D data:
H~L~=(R^2^*sin(4\q))/(H~S~*cos^2^(2\q))*\D2\q+H~S~/2
with H~L~: limiting height, H~S~: sample height, R: detector radius
(M. Hoelzel, A. Senyshyn, N. Juenke, H. Boysen, W. Schmahl, H. Fuess,
Nucl. Instrum. Methods Phys. Res., Sect. A 2012, 667, 32-37)
;
_pd_proc_ls_background_function
; manual background (visual estimation, unrefined) interpolated by five
Legendre polynomials (1st: 7(2), 2nd: 1(4), 3rd: 0(5), 4th: 6(5),
5th: 17(6))
;
_pd_proc_ls_pref_orient_corr
' March-Dollase model for (001): r = 1.008(3)'
_pd_proc_ls_profile_function
; pseudo-Voigt profile with Thompson-Cox-Hastings approach:
G~U~ = 349(5), G~V~ = -371, G~W~ = 285(3), L~X~ = 3.0(2), L~Y~ = 0.91,
B\'erar-Baldinozzi asymmetry correction:
A~0~ = 0.533(6), A~1~ = -1.225
;
_pd_proc_ls_prof_R_factor        0.0217
_pd_proc_ls_prof_wR_expected     0.0215
_pd_proc_ls_prof_wR_factor       0.0264
_pd_spec_mounting                'compacted powder in niobium can'
_pd_spec_mount_mode              transmission
_pd_spec_orientation             vertical
_pd_spec_shape                   cylinder
_pd_spec_size_axial              40
_pd_spec_size_equat              7.5
_refine_diff_density_max         0.05
_refine_diff_density_min         -0.07
_refine_ls_extinction_method     none
_refine_ls_goodness_of_fit_all   1.23
_refine_ls_hydrogen_treatment    undef
_refine_ls_number_constraints    0
_refine_ls_number_parameters     23
_refine_ls_number_restraints     0
_refine_ls_R_factor_all          0.0261
_refine_ls_R_factor_gt           0.0171
_refine_ls_R_I_factor            0.0211
_refine_ls_shift/su_max          0.0057
_refine_ls_shift/su_mean         0.0010
_refine_ls_weighting_details     w=1/[\s^2^(F~o~)+(0.01F~o~)^2^]
_refine_ls_weighting_scheme      sigma
_refine_ls_wR_factor_all         0.0221
_refine_ls_wR_factor_gt          0.0202
_reflns_threshold_expression     I>3\s(I)
_cod_data_source_file            jp5b01166_si_004.cif
_cod_data_source_block           0.9-600C
_cod_depositor_comments
'Adding full bibliography for 1519661--1519664.cif.'
_cod_original_sg_symbol_H-M      'R -3 m'
_cod_original_formula_sum        'Li0.90 S2 Ti1'
_cod_database_code               1519663
loop_
_space_group_symop_id
_space_group_symop_operation_xyz
1 x,y,z
2 -y,x-y,z
3 -x+y,-x,z
4 y,x,-z
5 x-y,-y,-z
6 -x,-x+y,-z
7 -x,-y,-z
8 y,-x+y,-z
9 x-y,x,-z
10 -y,-x,z
11 -x+y,y,z
12 x,x-y,z
13 x+2/3,y+1/3,z+1/3
14 -y+2/3,x-y+1/3,z+1/3
15 -x+y+2/3,-x+1/3,z+1/3
16 y+2/3,x+1/3,-z+1/3
17 x-y+2/3,-y+1/3,-z+1/3
18 -x+2/3,-x+y+1/3,-z+1/3
19 -x+2/3,-y+1/3,-z+1/3
20 y+2/3,-x+y+1/3,-z+1/3
21 x-y+2/3,x+1/3,-z+1/3
22 -y+2/3,-x+1/3,z+1/3
23 -x+y+2/3,y+1/3,z+1/3
24 x+2/3,x-y+1/3,z+1/3
25 x+1/3,y+2/3,z+2/3
26 -y+1/3,x-y+2/3,z+2/3
27 -x+y+1/3,-x+2/3,z+2/3
28 y+1/3,x+2/3,-z+2/3
29 x-y+1/3,-y+2/3,-z+2/3
30 -x+1/3,-x+y+2/3,-z+2/3
31 -x+1/3,-y+2/3,-z+2/3
32 y+1/3,-x+y+2/3,-z+2/3
33 x-y+1/3,x+2/3,-z+2/3
34 -y+1/3,-x+2/3,z+2/3
35 -x+y+1/3,y+2/3,z+2/3
36 x+1/3,x-y+2/3,z+2/3
loop_
_atom_site_label
_atom_site_type_symbol
_atom_site_fract_x
_atom_site_fract_y
_atom_site_fract_z
_atom_site_adp_type
_atom_site_U_iso_or_equiv
_atom_site_site_symmetry_multiplicity
_atom_site_occupancy
_atom_site_calc_flag
Li1 Li 0 0 0.5 Uani 0.073(3) 3 0.9 d
Ti1 Ti 0 0 0 Uani 0.0283(15) 3 1 d
S1 S 0 0 0.2554(2) Uani 0.0273(14) 6 1 d
loop_
_atom_site_aniso_label
_atom_site_aniso_type_symbol
_atom_site_aniso_U_11
_atom_site_aniso_U_22
_atom_site_aniso_U_33
_atom_site_aniso_U_12
_atom_site_aniso_U_13
_atom_site_aniso_U_23
Li1 Li 0.073(3) 0.073(3) 0.073(8) 0.0364(16) 0 0
Ti1 Ti 0.0293(9) 0.0293(9) 0.026(4) 0.0146(5) 0 0
S1 S 0.0239(7) 0.0239(7) 0.034(4) 0.0119(4) 0 0
loop_
_atom_type_symbol
_atom_type_scat_length_neutron
_atom_type_scat_source
Li -1.900 International_Tables_Vol_C
Ti -3.438 International_Tables_Vol_C
S 2.847 International_Tables_Vol_C
loop_
_geom_angle_atom_site_label_1
_geom_angle_atom_site_label_2
_geom_angle_atom_site_label_3
_geom_angle_site_symmetry_1
_geom_angle_site_symmetry_3
_geom_angle
S1 Li1 S1 13_445 13_455 84.59(7)
S1 Li1 S1 13_445 13_555 84.59(7)
S1 Li1 S1 13_445 28_445 95.41(7)
S1 Li1 S1 13_445 28_545 95.41(7)
S1 Li1 S1 13_445 28_555 180.0(5)
S1 Li1 S1 13_455 13_555 84.59(7)
S1 Li1 S1 13_455 28_445 95.41(7)
S1 Li1 S1 13_455 28_545 180.0(5)
S1 Li1 S1 13_455 28_555 95.41(7)
S1 Li1 S1 13_555 28_445 180.0(5)
S1 Li1 S1 13_555 28_545 95.41(7)
S1 Li1 S1 13_555 28_555 95.41(7)
S1 Li1 S1 28_445 28_545 84.59(7)
S1 Li1 S1 28_445 28_555 84.59(7)
S1 Li1 S1 28_545 28_555 84.59(7)
S1 Ti1 S1 25_444 25_544 89.76(7)
S1 Ti1 S1 25_444 25_554 89.76(7)
S1 Ti1 S1 25_444 16_445 90.24(7)
S1 Ti1 S1 25_444 16_455 90.24(7)
S1 Ti1 S1 25_444 16_555 180.0(5)
S1 Ti1 S1 25_544 25_554 89.76(7)
S1 Ti1 S1 25_544 16_445 90.24(7)
S1 Ti1 S1 25_544 16_455 180.0(5)
S1 Ti1 S1 25_544 16_555 90.24(7)
S1 Ti1 S1 25_554 16_445 180.0(5)
S1 Ti1 S1 25_554 16_455 90.24(7)
S1 Ti1 S1 25_554 16_555 90.24(7)
S1 Ti1 S1 16_445 16_455 89.76(7)
S1 Ti1 S1 16_445 16_555 89.76(7)
S1 Ti1 S1 16_455 16_555 89.76(7)
loop_
_geom_bond_atom_site_label_1
_geom_bond_atom_site_label_2
_geom_bond_site_symmetry_2
_geom_bond_distance
Li1 S1 13_445 2.616(3)
Li1 S1 13_455 2.616(3)
Li1 S1 13_555 2.616(3)
Li1 S1 28_445 2.616(3)
Li1 S1 28_545 2.616(3)
Li1 S1 28_555 2.616(3)
Ti1 S1 25_444 2.495(2)
Ti1 S1 25_544 2.495(2)
Ti1 S1 25_554 2.495(2)
Ti1 S1 16_445 2.495(2)
Ti1 S1 16_455 2.495(2)
Ti1 S1 16_555 2.495(2)
loop_
_pd_proc_point_id
_pd_proc_2theta_corrected
_pd_proc_intensity_net
_pd_calc_intensity_net
_pd_proc_ls_weight
1 10.1100 2186.00 2172.34 172.00
2 10.1600 2218.00 2170.22 172.00
3 10.2100 2112.00 2168.11 168.00
4 10.2600 2242.00 2165.99 172.00
5 10.3100 2039.00 2163.87 164.00
6 10.3600 2244.00 2161.76 171.00
7 10.4100 2171.00 2159.64 168.00
8 10.4600 2228.00 2157.52 170.00
9 10.5100 2226.00 2155.41 169.00
10 10.5600 2122.00 2153.29 164.00
11 10.6100 2142.00 2151.18 165.00
12 10.6600 2210.00 2149.07 167.00
13 10.7100 2120.00 2146.95 163.00
14 10.7600 2127.00 2144.84 163.00
15 10.8100 2288.00 2142.73 168.00
16 10.8600 2377.00 2140.62 171.00
17 10.9100 2076.00 2138.51 159.00
18 10.9600 1962.00 2136.39 154.00
19 11.0100 2039.00 2134.28 157.00
20 11.0600 2070.00 2132.17 157.00
21 11.1100 2061.00 2130.06 157.00
22 11.1600 2169.00 2127.96 160.00
23 11.2100 1906.00 2125.85 150.00
24 11.2600 2121.00 2123.74 157.00
25 11.3100 2149.00 2121.63 158.00
26 11.3600 2093.00 2119.53 155.00
27 11.4100 2160.00 2117.42 157.00
28 11.4600 2233.00 2115.31 160.00
29 11.5100 1986.00 2113.21 150.00
30 11.5600 2062.00 2111.10 152.00
31 11.6100 2209.00 2109.00 157.00
32 11.6600 2178.00 2106.90 156.00
33 11.7100 2142.00 2104.80 154.00
34 11.7600 2161.00 2102.69 154.00
35 11.8100 2076.00 2100.59 151.00
36 11.8600 2004.00 2098.49 148.00
37 11.9100 2062.00 2096.39 149.00
38 11.9600 2122.00 2094.30 151.00
39 12.0100 2143.00 2092.20 151.00
40 12.0600 2061.00 2090.10 148.00
41 12.1100 2046.00 2088.01 147.00
42 12.1600 2133.00 2085.91 150.00
43 12.2100 2129.00 2083.82 149.00
44 12.2600 2153.00 2081.73 150.00
45 12.3100 2112.00 2079.64 148.00
46 12.3600 2131.00 2077.55 148.00
47 12.4100 2040.00 2075.46 144.00
48 12.4600 1954.00 2073.38 141.00
49 12.5100 1866.00 2071.29 137.00
50 12.5600 2140.00 2069.21 147.00
51 12.6100 2252.00 2067.13 150.00
52 12.6600 2175.00 2065.05 147.00
53 12.7100 2052.00 2062.98 142.00
54 12.7600 2101.00 2060.90 144.00
55 12.8100 2209.00 2058.84 147.00
56 12.8600 2136.00 2056.77 144.00
57 12.9100 2104.00 2054.71 143.00
58 12.9600 2061.00 2052.65 141.00
59 13.0100 1972.00 2050.60 137.00
60 13.0600 1994.00 2048.56 138.00
61 13.1100 1983.00 2046.52 137.00
62 13.1600 2140.00 2044.49 142.00
63 13.2100 2117.00 2042.47 141.00
64 13.2600 2021.00 2040.45 137.00
65 13.3100 1987.00 2038.46 135.00
66 13.3600 2041.00 2036.47 137.00
67 13.4100 1955.00 2034.50 134.00
68 13.4600 1924.00 2032.55 132.00
69 13.5100 1978.00 2030.62 134.00
70 13.5600 1980.00 2028.71 133.00
71 13.6100 2015.00 2026.83 134.00
72 13.6600 2124.00 2024.98 137.00
73 13.7100 2057.00 2023.21 135.00
74 13.7600 1938.00 2021.60 131.00
75 13.8100 2034.00 2020.39 133.00
76 13.8600 2053.00 2020.03 134.00
77 13.9100 2003.00 2021.32 132.00
78 13.9600 1996.00 2025.44 131.00
79 14.0100 1997.00 2033.97 131.00
80 14.0600 2134.00 2049.13 135.00
81 14.1100 2266.00 2074.39 139.00
82 14.1600 2197.00 2115.12 136.00
83 14.2100 2150.00 2177.59 134.00
84 14.2600 2343.00 2264.49 140.00
85 14.3100 2413.00 2367.86 142.00
86 14.3600 2625.00 2464.80 147.00
87 14.4100 2479.00 2523.88 143.00
88 14.4600 2485.00 2522.36 143.00
89 14.5100 2384.00 2460.01 139.00
90 14.5600 2264.00 2357.71 135.00
91 14.6100 2083.00 2245.06 129.00
92 14.6600 2079.00 2146.57 129.00
93 14.7100 2000.00 2074.07 126.00
94 14.7600 1938.00 2027.58 124.00
95 14.8100 1998.00 2000.75 126.00
96 14.8600 1948.00 1986.17 124.00
97 14.9100 1999.00 1978.18 125.00
98 14.9600 1982.00 1973.34 124.00
99 15.0100 1936.00 1969.89 122.00
100 15.0600 1863.00 1967.04 120.00
101 15.1100 1781.00 1964.47 117.00
102 15.1600 1915.00 1962.02 121.00
103 15.2100 1871.00 1959.66 119.00
104 15.2600 1898.00 1957.36 120.00
105 15.3100 1963.00 1955.09 121.00
106 15.3600 2089.00 1952.85 125.00
107 15.4100 1916.00 1950.63 119.00
108 15.4600 1934.00 1948.44 119.00
109 15.5100 1918.00 1946.25 119.00
110 15.5600 1906.00 1944.08 118.00
111 15.6100 2008.00 1941.92 121.00
112 15.6600 2036.00 1939.77 121.00
113 15.7100 1883.00 1937.63 116.00
114 15.7600 1845.00 1935.49 115.00
115 15.8100 1715.00 1933.35 111.00
116 15.8600 1863.00 1931.23 115.00
117 15.9100 1920.00 1929.10 116.00
118 15.9600 1850.00 1926.98 114.00
119 16.0100 1862.00 1924.87 114.00
120 16.0600 1927.00 1922.76 116.00
121 16.1100 2025.00 1920.65 118.00
122 16.1600 1972.00 1918.54 117.00
123 16.2100 2029.00 1916.43 118.00
124 16.2600 1923.00 1914.33 115.00
125 16.3100 1951.00 1912.23 115.00
126 16.3600 1827.00 1910.13 111.00
127 16.4100 2012.00 1908.03 116.00
128 16.4600 2046.00 1905.93 117.00
129 16.5100 1975.00 1903.84 115.00
130 16.5600 1890.00 1901.75 112.00
131 16.6100 1904.00 1899.65 112.00
132 16.6600 1875.00 1897.56 111.00
133 16.7100 1851.00 1895.47 110.00
134 16.7600 1824.00 1893.38 109.00
135 16.8100 1958.00 1891.29 113.00
136 16.8600 1903.00 1889.20 111.00
137 16.9100 1809.00 1887.12 108.00
138 16.9600 1860.00 1885.03 109.00
139 17.0100 1953.00 1882.94 111.00
140 17.0600 1876.00 1880.86 109.00
141 17.1100 1794.00 1878.77 106.00
142 17.1600 1836.00 1876.69 107.00
143 17.2100 1952.00 1874.61 110.00
144 17.2600 1994.00 1872.52 111.00
145 17.3100 1803.00 1870.44 106.00
146 17.3600 1836.00 1868.36 106.00
147 17.4100 1932.00 1866.28 109.00
148 17.4600 1801.00 1864.20 105.00
149 17.5100 1795.00 1862.12 104.00
150 17.5600 1957.00 1860.04 109.00
151 17.6100 1902.00 1857.96 107.00
152 17.6600 1849.00 1855.88 105.00
153 17.7100 1788.00 1853.80 103.00
154 17.7600 1839.00 1851.73 104.00
155 17.8100 1906.00 1849.65 106.00
156 17.8600 1844.00 1847.57 104.00
157 17.9100 1892.00 1845.50 105.00
158 17.9600 1960.00 1843.42 107.00
159 18.0100 1794.00 1841.34 102.00
160 18.0600 1822.00 1839.27 102.00
161 18.1100 1844.00 1837.19 103.00
162 18.1600 1802.00 1835.12 101.00
163 18.2100 1896.00 1833.04 104.00
164 18.2600 1885.00 1830.97 103.00
165 18.3100 1712.00 1828.90 98.00
166 18.3600 1769.00 1826.82 100.00
167 18.4100 1805.00 1824.75 100.00
168 18.4600 1848.00 1822.68 101.00
169 18.5100 1805.00 1820.61 100.00
170 18.5600 1800.00 1818.53 100.00
171 18.6100 1871.00 1816.46 101.00
172 18.6600 1862.00 1814.39 101.00
173 18.7100 1833.00 1812.32 100.00
174 18.7600 1832.00 1810.25 100.00
175 18.8100 1769.00 1808.18 98.00
176 18.8600 1845.00 1806.11 100.00
177 18.9100 1849.00 1804.04 99.00
178 18.9600 1872.00 1801.97 100.00
179 19.0100 1784.00 1799.90 97.00
180 19.0600 1854.00 1797.83 99.00
181 19.1100 1904.00 1795.76 100.00
182 19.1600 1897.00 1793.69 100.00
183 19.2100 1936.00 1791.63 100.00
184 19.2600 1804.00 1789.56 97.00
185 19.3100 1666.00 1787.49 93.00
186 19.3600 1779.00 1785.42 96.00
187 19.4100 1650.00 1783.36 92.00
188 19.4600 1638.00 1781.29 91.00
189 19.5100 1858.00 1779.22 97.00
190 19.5600 1827.00 1777.16 96.00
191 19.6100 1836.00 1775.09 96.00
192 19.6600 1745.00 1773.03 93.00
193 19.7100 1771.00 1770.96 94.00
194 19.7600 1781.00 1768.90 94.00
195 19.8100 1806.00 1766.83 94.00
196 19.8600 1792.00 1764.77 94.00
197 19.9100 1859.00 1762.70 95.00
198 19.9600 1828.00 1760.64 94.00
199 20.0100 1754.00 1758.57 92.00
200 20.0600 1841.00 1756.51 94.00
201 20.1100 1880.00 1754.45 95.00
202 20.1600 1887.00 1752.38 95.00
203 20.2100 1803.00 1750.32 93.00
204 20.2600 1771.00 1748.26 92.00
205 20.3100 1798.00 1746.20 92.00
206 20.3600 1720.00 1744.13 90.00
207 20.4100 1697.00 1742.07 89.00
208 20.4600 1805.00 1740.01 92.00
209 20.5100 1860.00 1737.95 93.00
210 20.5600 1736.00 1735.89 90.00
211 20.6100 1808.00 1733.83 91.00
212 20.6600 1745.00 1731.77 90.00
213 20.7100 1730.00 1729.71 89.00
214 20.7600 1718.00 1727.65 89.00
215 20.8100 1765.00 1725.59 90.00
216 20.8600 1754.00 1723.53 89.00
217 20.9100 1608.00 1721.47 85.00
218 20.9600 1644.00 1719.41 86.00
219 21.0100 1780.00 1719.54 89.00
220 21.0600 1803.00 1719.66 90.00
221 21.1100 1732.00 1719.79 88.00
222 21.1600 1740.00 1719.92 88.00
223 21.2100 1684.00 1720.05 86.00
224 21.2600 1754.00 1720.18 88.00
225 21.3100 1761.00 1720.30 88.00
226 21.3600 1873.00 1720.43 90.00
227 21.4100 1832.00 1720.56 89.00
228 21.4600 1756.00 1720.69 87.00
229 21.5100 1749.00 1720.82 87.00
230 21.5600 1819.00 1720.95 88.00
231 21.6100 1762.00 1721.08 87.00
232 21.6600 1741.00 1721.21 86.00
233 21.7100 1738.00 1721.34 86.00
234 21.7600 1726.00 1721.47 85.00
235 21.8100 1712.00 1722.13 85.00
236 21.8600 1724.00 1722.26 85.00
237 21.9100 1649.00 1722.40 83.00
238 21.9600 1714.00 1722.54 84.00
239 22.0100 1691.00 1722.68 83.00
240 22.0600 1708.00 1722.82 84.00
241 22.1100 1880.00 1722.94 88.00
242 22.1600 1730.00 1723.08 84.00
243 22.2100 1666.00 1723.22 82.00
244 22.2600 1717.00 1723.37 83.00
245 22.3100 1754.00 1723.51 84.00
246 22.3600 1691.00 1723.65 82.00
247 22.4100 1764.00 1723.79 84.00
248 22.4600 1740.00 1723.94 83.00
249 22.5100 1697.00 1724.08 82.00
250 22.5600 1629.00 1724.23 80.00
251 22.6100 1668.00 1724.43 81.00
252 22.6600 1783.00 1724.58 83.00
253 22.7100 1828.00 1724.72 84.00
254 22.7600 1805.00 1724.87 84.00
255 22.8100 1798.00 1725.02 83.00
256 22.8600 1620.00 1725.17 79.00
257 22.9100 1638.00 1725.32 79.00
258 22.9600 1685.00 1725.46 80.00
259 23.0100 1643.00 1725.61 79.00
260 23.0600 1560.00 1725.76 77.00
261 23.1100 1605.00 1725.92 78.00
262 23.1600 1702.00 1726.07 80.00
263 23.2100 1816.00 1726.22 82.00
264 23.2600 1778.00 1726.37 81.00
265 23.3100 1702.00 1726.52 79.00
266 23.3600 1648.00 1726.68 78.00
267 23.4100 1700.00 1726.83 79.00
268 23.4600 1664.00 1726.99 78.00
269 23.5100 1724.00 1727.14 79.00
270 23.5600 1688.00 1727.30 78.00
271 23.6100 1686.00 1727.46 78.00
272 23.6600 1772.00 1727.62 80.00
273 23.7100 1662.00 1727.77 77.00
274 23.7600 1708.00 1727.93 78.00
275 23.8100 1725.00 1728.09 78.00
276 23.8600 1711.00 1729.73 78.00
277 23.9100 1725.00 1729.91 78.00
278 23.9600 1706.00 1730.10 78.00
279 24.0100 1659.00 1730.28 76.00
280 24.0600 1698.00 1730.47 77.00
281 24.1100 1749.00 1730.66 78.00
282 24.1600 1746.00 1730.85 78.00
283 24.2100 1578.00 1731.04 74.00
284 24.2600 1696.00 1731.23 77.00
285 24.3100 1726.00 1731.42 77.00
286 24.3600 1707.00 1731.62 76.00
287 24.4100 1648.00 1731.82 75.00
288 24.4600 1691.00 1732.01 76.00
289 24.5100 1724.00 1732.21 76.00
290 24.5600 1773.00 1732.42 77.00
291 24.6100 1807.00 1732.62 78.00
292 24.6600 1784.00 1732.83 77.00
293 24.7100 1769.00 1733.04 77.00
294 24.7600 1724.00 1733.25 76.00
295 24.8100 1777.00 1733.46 77.00
296 24.8600 1754.00 1733.68 76.00
297 24.9100 1762.00 1733.90 76.00
298 24.9600 1768.00 1734.12 76.00
299 25.0100 1675.00 1734.34 74.00
300 25.0600 1696.00 1734.57 74.00
301 25.1100 1633.00 1734.79 73.00
302 25.1600 1713.00 1735.03 74.00
303 25.2100 1753.00 1735.26 75.00
304 25.2600 1702.00 1735.50 74.00
305 25.3100 1720.00 1735.74 74.00
306 25.3600 1697.00 1735.99 73.00
307 25.4100 1773.00 1736.23 75.00
308 25.4600 1819.00 1736.49 76.00
309 25.5100 1680.00 1736.74 73.00
310 25.5600 1733.00 1737.00 74.00
311 25.6100 1753.00 1737.27 74.00
312 25.6600 1774.00 1737.54 74.00
313 25.7100 1765.00 1737.82 74.00
314 25.7600 1689.00 1738.10 72.00
315 25.8100 1712.00 1738.38 72.00
316 25.8600 1719.00 1738.67 73.00
317 25.9100 1740.00 1738.97 73.00
318 25.9600 1684.00 1739.28 72.00
319 26.0100 1822.00 1739.59 74.00
320 26.0600 1683.00 1739.91 71.00
321 26.1100 1741.00 1740.23 72.00
322 26.1600 1733.00 1740.57 72.00
323 26.2100 1663.00 1740.91 70.00
324 26.2600 1652.00 1741.26 70.00
325 26.3100 1687.00 1741.63 71.00
326 26.3600 1688.00 1742.00 71.00
327 26.4100 1752.00 1742.38 72.00
328 26.4600 1767.00 1742.78 72.00
329 26.5100 1853.00 1743.19 74.00
330 26.5600 1808.00 1743.61 73.00
331 26.6100 1761.00 1744.05 71.00
332 26.6600 1741.00 1744.50 71.00
333 26.7100 1814.00 1744.97 72.00
334 26.7600 1764.00 1745.46 71.00
335 26.8100 1701.00 1745.97 70.00
336 26.8600 1708.00 1746.51 70.00
337 26.9100 1732.00 1747.06 70.00
338 26.9600 1764.00 1747.64 71.00
339 27.0100 1743.00 1748.25 70.00
340 27.0600 1762.00 1748.89 70.00
341 27.1100 1691.00 1749.57 69.00
342 27.1600 1725.00 1750.28 69.00
343 27.2100 1832.00 1751.04 71.00
344 27.2600 1819.00 1751.84 71.00
345 27.3100 1811.00 1752.69 71.00
346 27.3600 1727.00 1753.59 69.00
347 27.4100 1668.00 1754.58 68.00
348 27.4600 1682.00 1755.69 68.00
349 27.5100 1604.00 1756.88 66.00
350 27.5600 1636.00 1758.17 66.00
351 27.6100 1684.00 1759.55 67.00
352 27.6600 1708.00 1761.05 68.00
353 27.7100 1768.00 1762.69 69.00
354 27.7600 1751.00 1764.48 68.00
355 27.8100 1711.00 1766.45 67.00
356 27.8600 1718.00 1768.63 67.00
357 27.9100 1758.00 1771.05 68.00
358 27.9600 1743.00 1773.76 68.00
359 28.0100 1778.00 1776.81 68.00
360 28.0600 1763.00 1780.27 68.00
361 28.1100 1758.00 1784.22 68.00
362 28.1600 1692.00 1788.75 66.00
363 28.2100 1641.00 1794.00 65.00
364 28.2600 1754.00 1800.18 67.00
365 28.3100 1751.00 1807.72 67.00
366 28.3600 1750.00 1817.68 67.00
367 28.4100 1881.00 1832.96 69.00
368 28.4600 1928.00 1861.03 70.00
369 28.5100 1973.00 1918.91 71.00
370 28.5600 2259.00 2040.70 75.00
371 28.6100 2630.00 2284.81 81.00
372 28.6600 2965.00 2735.21 86.00
373 28.7100 3608.00 3488.76 95.00
374 28.7600 4685.00 4622.97 108.00
375 28.8100 6303.00 6144.76 125.00
376 28.8600 8265.00 7931.83 143.00
377 28.9100 9876.00 9693.59 156.00
378 28.9600 11047.00 10994.80 165.00
379 29.0100 11689.00 11407.30 170.00
380 29.0600 10790.00 10763.20 163.00
381 29.1100 9212.00 9270.37 150.00
382 29.1600 7044.00 7374.04 131.00
383 29.2100 5358.00 5535.25 114.00
384 29.2600 3924.00 4062.82 97.00
385 29.3100 2801.00 3057.94 82.00
386 29.3600 2316.00 2464.97 74.00
387 29.4100 2037.00 2165.27 70.00
388 29.4600 1947.00 2049.39 68.00
389 29.5100 2041.00 2046.65 69.00
390 29.5600 2002.00 2122.05 69.00
391 29.6100 2261.00 2259.47 73.00
392 29.6600 2304.00 2443.73 73.00
393 29.7100 2445.00 2647.58 75.00
394 29.7600 2757.00 2826.90 80.00
395 29.8100 2898.00 2928.62 82.00
396 29.8600 2980.00 2915.28 83.00
397 29.9100 2914.00 2789.72 82.00
398 29.9600 2872.00 2592.52 81.00
399 30.0100 2598.00 2378.33 77.00
400 30.0600 2453.00 2192.61 75.00
401 30.1100 2458.00 2058.55 75.00
402 30.1600 2403.00 1977.50 74.00
403 30.2100 2197.00 1938.15 70.00
404 30.2600 2092.00 1926.54 68.00
405 30.3100 2117.00 1932.16 69.00
406 30.3600 2126.00 1950.31 69.00
407 30.4100 2022.00 1983.84 67.00
408 30.4600 2180.00 2048.33 69.00
409 30.5100 2356.00 2184.23 72.00
410 30.5600 2916.00 2477.43 80.00
411 30.6100 3625.00 3082.69 89.00
412 30.6600 4613.00 4234.08 101.00
413 30.7100 6695.00 6215.52 121.00
414 30.7600 9370.00 9270.16 143.00
415 30.8100 13223.00 13448.60 170.00
416 30.8600 18143.00 18436.20 198.00
417 30.9100 23210.00 23442.10 224.00
418 30.9600 26930.00 27262.80 241.00
419 31.0100 28468.00 28672.30 247.00
420 31.0600 26961.00 27117.40 240.00
421 31.1100 23273.00 23106.00 223.00
422 31.1600 17742.00 17856.30 194.00
423 31.2100 12125.00 12668.70 160.00
424 31.2600 8021.00 8445.63 130.00
425 31.3100 5254.00 5512.84 105.00
426 31.3600 3460.00 3738.92 85.00
427 31.4100 2498.00 2786.49 72.00
428 31.4600 2205.00 2321.83 67.00
429 31.5100 1948.00 2107.42 63.00
430 31.5600 1879.00 2007.37 62.00
431 31.6100 1811.00 1955.63 61.00
432 31.6600 1776.00 1924.05 60.00
433 31.7100 1821.00 1901.68 61.00
434 31.7600 1818.00 1884.32 61.00
435 31.8100 1824.00 1870.24 61.00
436 31.8600 1749.00 1858.55 59.00
437 31.9100 1803.00 1848.72 60.00
438 31.9600 1794.00 1840.37 60.00
439 32.0100 1820.00 1833.20 60.00
440 32.0600 1846.00 1827.02 60.00
441 32.1100 1760.00 1821.64 59.00
442 32.1600 1743.00 1816.94 59.00
443 32.2100 1832.00 1812.82 60.00
444 32.2600 1800.00 1809.18 59.00
445 32.3100 1726.00 1805.96 58.00
446 32.3600 1791.00 1803.10 59.00
447 32.4100 1712.00 1800.55 58.00
448 32.4600 1771.00 1798.27 58.00
449 32.5100 1777.00 1796.22 58.00
450 32.5600 1753.00 1794.39 58.00
451 32.6100 1735.00 1792.74 58.00
452 32.6600 1732.00 1791.25 57.00
453 32.7100 1827.00 1789.90 59.00
454 32.7600 1800.00 1788.69 58.00
455 32.8100 1766.00 1787.59 58.00
456 32.8600 1818.00 1786.59 58.00
457 32.9100 1744.00 1785.69 57.00
458 32.9600 1841.00 1784.87 59.00
459 33.0100 1867.00 1784.12 59.00
460 33.0600 1823.00 1783.44 58.00
461 33.1100 1809.00 1782.83 58.00
462 33.1600 1872.00 1782.27 59.00
463 33.2100 1822.00 1781.77 58.00
464 33.2600 1754.00 1781.31 57.00
465 33.3100 1766.00 1780.90 57.00
466 33.3600 1844.00 1780.53 58.00
467 33.4100 1763.00 1780.19 56.00
468 33.4600 1750.00 1779.89 56.00
469 33.5100 1759.00 1779.62 56.00
470 33.5600 1743.00 1779.39 56.00
471 33.6100 1687.00 1779.17 55.00
472 33.6600 1803.00 1778.99 57.00
473 33.7100 1786.00 1778.82 56.00
474 33.7600 1713.00 1778.68 55.00
475 33.8100 1802.00 1778.56 56.00
476 33.8600 1762.00 1778.46 56.00
477 33.9100 1763.00 1778.38 56.00
478 33.9600 1805.00 1778.32 56.00
479 34.0100 1740.00 1778.27 55.00
480 34.0600 1777.00 1778.23 56.00
481 34.1100 1846.00 1778.22 56.00
482 34.1600 1778.00 1778.21 55.00
483 34.2100 1772.00 1778.11 55.00
484 34.2600 1791.00 1777.57 55.00
485 34.3100 1833.00 1777.05 56.00
486 34.3600 1731.00 1776.53 54.00
487 34.4100 1773.00 1776.03 55.00
488 34.4600 1801.00 1775.55 55.00
489 34.5100 1836.00 1775.08 56.00
490 34.5600 1774.00 1774.62 55.00
491 34.6100 1749.00 1774.18 54.00
492 34.6600 1713.00 1773.75 53.00
493 34.7100 1788.00 1773.35 55.00
494 34.7600 1763.00 1772.99 54.00
495 34.8100 1846.00 1772.70 55.00
496 34.8600 1809.00 1772.57 55.00
497 34.9100 1807.00 1772.82 54.00
498 34.9600 1824.00 1773.90 55.00
499 35.0100 1783.00 1776.54 54.00
500 35.0600 1760.00 1781.79 53.00
501 35.1100 1835.00 1790.73 55.00
502 35.1600 1792.00 1803.92 54.00
503 35.2100 1885.00 1820.72 55.00
504 35.2600 1870.00 1838.70 55.00
505 35.3100 1850.00 1853.81 54.00
506 35.3600 1933.00 1861.41 55.00
507 35.4100 1879.00 1858.59 55.00
508 35.4600 1877.00 1846.15 55.00
509 35.5100 1892.00 1828.02 55.00
510 35.5600 1802.00 1808.93 53.00
511 35.6100 1861.00 1792.53 54.00
512 35.6600 1859.00 1780.51 54.00
513 35.7100 1785.00 1772.80 53.00
514 35.7600 1676.00 1768.34 51.00
515 35.8100 1760.00 1765.93 52.00
516 35.8600 1792.00 1764.61 53.00
517 35.9100 1773.00 1763.80 52.00
518 35.9600 1811.00 1763.22 53.00
519 36.0100 1913.00 1762.74 54.00
520 42.5100 1723.00 1718.13 42.00
521 42.5600 1775.00 1717.86 42.00
522 42.6100 1718.00 1717.41 41.00
523 42.6600 1755.00 1716.25 42.00
524 42.7100 1723.00 1715.10 41.00
525 42.7600 1699.00 1713.96 41.00
526 42.8100 1690.00 1712.82 41.00
527 43.8100 1777.00 1770.89 42.00
528 43.8600 1874.00 1832.27 43.00
529 43.9100 1861.00 1917.97 43.00
530 43.9600 2014.00 2018.53 44.00
531 44.0100 2129.00 2113.21 46.00
532 44.0600 2181.00 2175.11 46.00
533 44.1100 2156.00 2182.47 46.00
534 44.1600 2137.00 2132.37 46.00
535 44.2100 2129.00 2043.15 46.00
536 44.2600 1932.00 1941.39 43.00
537 44.3100 1901.00 1849.07 43.00
538 44.3600 1764.00 1778.13 42.00
539 44.4100 1737.00 1730.65 41.00
540 44.4600 1757.00 1702.42 41.00
541 44.5100 1689.00 1687.11 41.00
542 44.5600 1754.00 1679.18 41.00
543 44.6100 1744.00 1674.91 41.00
544 44.6600 1717.00 1672.25 41.00
545 44.7100 1643.00 1670.26 40.00
546 44.7600 1648.00 1668.56 40.00
547 44.8100 1678.00 1666.99 40.00
548 44.8600 1658.00 1665.51 40.00
549 44.9100 1661.00 1664.27 40.00
550 44.9600 1633.00 1663.75 40.00
551 45.0100 1687.00 1663.35 41.00
552 45.0600 1718.00 1663.16 41.00
553 45.1100 1618.00 1663.43 40.00
554 45.1600 1618.00 1664.58 40.00
555 45.2100 1627.00 1667.31 40.00
556 45.2600 1650.00 1672.38 40.00
557 45.3100 1628.00 1680.22 40.00
558 45.3600 1678.00 1690.37 40.00
559 45.4100 1698.00 1700.99 41.00
560 45.4600 1670.00 1709.48 40.00
561 45.5100 1735.00 1712.89 41.00
562 45.5600 1704.00 1709.83 41.00
563 45.6100 1662.00 1701.38 40.00
564 45.6600 1750.00 1690.27 41.00
565 45.7100 1694.00 1679.26 41.00
566 45.7600 1616.00 1670.14 40.00
567 45.8100 1655.00 1663.59 40.00
568 45.8600 1640.00 1659.39 40.00
569 45.9100 1713.00 1656.90 41.00
570 45.9600 1626.00 1655.46 40.00
571 46.0100 1597.00 1654.59 39.00
572 46.0600 1601.00 1653.97 40.00
573 46.1100 1653.00 1653.46 40.00
574 46.1600 1658.00 1653.00 40.00
575 46.2100 1700.00 1652.56 41.00
576 46.2600 1610.00 1652.13 40.00
577 46.3100 1640.00 1651.71 40.00
578 46.3600 1677.00 1651.30 40.00
579 46.4100 1710.00 1650.89 41.00
580 46.4600 1655.00 1650.49 40.00
581 46.5100 1667.00 1650.09 40.00
582 46.5600 1626.00 1649.69 40.00
583 46.6100 1663.00 1649.29 40.00
584 46.6600 1706.00 1648.90 41.00
585 46.7100 1685.00 1648.51 41.00
586 46.7600 1667.00 1648.12 40.00
587 46.8100 1619.00 1647.73 40.00
588 46.8600 1609.00 1647.34 40.00
589 46.9100 1705.00 1646.95 41.00
590 46.9600 1708.00 1646.57 41.00
591 47.0100 1592.00 1646.18 39.00
592 47.0600 1672.00 1645.80 40.00
593 47.1100 1703.00 1645.42 41.00
594 47.1600 1691.00 1645.04 41.00
595 47.2100 1598.00 1644.65 39.00
596 47.2600 1667.00 1644.27 40.00
597 47.3100 1682.00 1643.89 41.00
598 47.3600 1624.00 1643.51 40.00
599 47.4100 1677.00 1643.13 40.00
600 47.4600 1669.00 1642.75 40.00
601 47.5100 1617.00 1642.38 40.00
602 47.5600 1596.00 1642.49 39.00
603 47.6100 1622.00 1644.45 40.00
604 47.6600 1707.00 1646.42 41.00
605 47.7100 1726.00 1648.38 41.00
606 47.7600 1676.00 1650.35 40.00
607 47.8100 1669.00 1652.31 40.00
608 47.8600 1697.00 1654.28 41.00
609 47.9100 1666.00 1656.24 40.00
610 47.9600 1694.00 1658.21 41.00
611 48.0100 1668.00 1660.18 40.00
612 48.0600 1689.00 1662.15 41.00
613 48.1100 1627.00 1664.11 40.00
614 48.1600 1692.00 1666.08 41.00
615 48.2100 1635.00 1668.05 40.00
616 48.2600 1654.00 1670.02 40.00
617 48.3100 1706.00 1671.99 41.00
618 48.3600 1747.00 1673.96 41.00
619 48.4100 1656.00 1675.93 40.00
620 48.4600 1646.00 1677.91 40.00
621 48.5100 1650.00 1679.88 40.00
622 48.5600 1674.00 1681.85 40.00
623 48.6100 1688.00 1683.83 41.00
624 48.6600 1733.00 1685.81 41.00
625 48.7100 1687.00 1687.79 41.00
626 48.7600 1709.00 1689.77 41.00
627 48.8100 1738.00 1691.75 41.00
628 48.8600 1739.00 1693.74 41.00
629 48.9100 1693.00 1695.73 41.00
630 48.9600 1601.00 1697.73 40.00
631 49.0100 1714.00 1699.75 41.00
632 49.0600 1656.00 1701.81 40.00
633 49.1100 1676.00 1703.96 40.00
634 49.1600 1731.00 1706.33 41.00
635 49.2100 1691.00 1709.16 41.00
636 49.2600 1730.00 1712.83 41.00
637 49.3100 1793.00 1717.78 42.00
638 49.3600 1756.00 1724.29 41.00
639 49.4100 1728.00 1732.11 41.00
640 49.4600 1702.00 1740.27 41.00
641 49.5100 1684.00 1747.18 41.00
642 49.5600 1705.00 1751.23 41.00
643 49.6100 1715.00 1751.67 41.00
644 49.6600 1727.00 1749.14 41.00
645 49.7100 1668.00 1745.23 40.00
646 49.7600 1698.00 1741.44 41.00
647 49.8100 1660.00 1738.73 40.00
648 49.8600 1757.00 1737.39 41.00
649 49.9100 1691.00 1737.31 41.00
650 49.9600 1714.00 1738.15 41.00
651 50.0100 1731.00 1739.56 41.00
652 50.0600 1705.00 1741.27 41.00
653 50.1100 1651.00 1743.12 40.00
654 50.1600 1767.00 1745.03 42.00
655 50.2100 1779.00 1746.96 42.00
656 50.2600 1805.00 1748.91 42.00
657 50.3100 1713.00 1750.86 41.00
658 50.3600 1685.00 1752.81 41.00
659 50.4100 1833.00 1754.77 42.00
660 50.4600 1770.00 1756.73 42.00
661 50.5100 1743.00 1758.70 41.00
662 50.5600 1799.00 1760.67 42.00
663 50.6100 1805.00 1762.63 42.00
664 50.6600 1792.00 1764.60 42.00
665 50.7100 1772.00 1766.58 42.00
666 50.7600 1825.00 1768.55 42.00
667 50.8100 1858.00 1770.53 43.00
668 50.8600 1694.00 1772.86 41.00
669 50.9100 1712.00 1775.73 41.00
670 50.9600 1766.00 1778.60 42.00
671 51.0100 1756.00 1781.47 41.00
672 51.0600 1785.00 1784.31 42.00
673 51.1100 1813.00 1787.19 42.00
674 51.1600 1730.00 1790.07 41.00
675 51.2100 1741.00 1792.96 41.00
676 51.2600 1696.00 1795.85 41.00
677 51.3100 1790.00 1798.75 42.00
678 51.3600 1835.00 1801.66 42.00
679 51.4100 1839.00 1804.58 42.00
680 51.4600 1816.00 1807.51 42.00
681 51.5100 1756.00 1810.46 41.00
682 51.5600 1857.00 1813.44 43.00
683 51.6100 1788.00 1816.88 42.00
684 51.6600 1784.00 1820.10 42.00
685 51.7100 1780.00 1823.72 42.00
686 51.7600 1795.00 1828.24 42.00
687 51.8100 1819.00 1834.63 42.00
688 51.8600 1888.00 1844.29 43.00
689 51.9100 1780.00 1858.74 42.00
690 51.9600 1802.00 1878.60 42.00
691 52.0100 1852.00 1902.40 43.00
692 52.0600 1834.00 1926.01 42.00
693 52.1100 1885.00 1943.61 43.00
694 52.1600 1923.00 1950.13 43.00
695 52.2100 1982.00 1944.29 44.00
696 52.2600 1945.00 1929.71 44.00
697 52.3100 1848.00 1912.12 42.00
698 52.3600 1858.00 1896.23 43.00
699 52.4100 1893.00 1884.50 43.00
700 52.4600 1891.00 1877.46 43.00
701 52.5100 1774.00 1874.38 42.00
702 52.5600 1800.00 1874.04 42.00
703 52.6100 1829.00 1875.35 42.00
704 52.6600 1892.00 1877.50 43.00
705 52.7100 1906.00 1880.04 43.00
706 52.7600 1866.00 1882.74 43.00
707 52.8100 1879.00 1885.51 43.00
708 52.8600 1910.00 1888.31 43.00
709 52.9100 1846.00 1891.13 42.00
710 52.9600 1903.00 1893.96 43.00
711 53.0100 1946.00 1896.81 44.00
712 53.0600 1947.00 1899.67 44.00
713 53.1100 1950.00 1902.55 44.00
714 53.1600 1875.00 1905.43 43.00
715 53.2100 1982.00 1908.32 44.00
716 53.2600 1851.00 1911.23 43.00
717 53.3100 1926.00 1914.15 43.00
718 53.3600 1954.00 1917.08 44.00
719 53.4100 1960.00 1920.00 44.00
720 53.4600 1914.00 1922.88 43.00
721 53.5100 1922.00 1925.78 43.00
722 53.5600 1886.00 1928.70 43.00
723 53.6100 1943.00 1931.65 44.00
724 53.6600 1945.00 1934.64 44.00
725 53.7100 1918.00 1937.68 43.00
726 53.7600 1895.00 1940.80 43.00
727 53.8100 2011.00 1944.05 44.00
728 53.8600 2038.00 1947.57 45.00
729 53.9100 2003.00 1952.53 44.00
730 53.9600 1943.00 1958.34 44.00
731 54.0100 1959.00 1967.76 44.00
732 54.0600 2028.00 1984.39 45.00
733 54.1100 2075.00 2013.27 45.00
734 54.1600 2186.00 2059.09 46.00
735 54.2100 2166.00 2122.57 46.00
736 54.2600 2144.00 2196.47 46.00
737 54.3100 2267.00 2264.88 47.00
738 54.3600 2305.00 2307.96 48.00
739 54.4100 2373.00 2311.20 48.00
740 57.5100 2165.00 2169.17 46.00
741 57.5600 2137.00 2174.23 46.00
742 57.6100 2170.00 2179.69 46.00
743 57.6600 2108.00 2184.51 45.00
744 57.7100 2108.00 2188.26 45.00
745 57.7600 2137.00 2192.89 46.00
746 57.8100 2232.00 2198.85 47.00
747 57.8600 2243.00 2207.09 47.00
748 57.9100 2258.00 2220.08 47.00
749 57.9600 2188.00 2244.36 46.00
750 58.0100 2296.00 2295.90 47.00
751 58.0600 2451.00 2409.01 49.00
752 58.1100 2576.00 2645.38 50.00
753 58.1600 3062.00 3091.98 55.00
754 58.2100 3736.00 3830.44 61.00
755 58.2600 4649.00 4872.07 68.00
756 58.3100 5793.00 6088.65 76.00
757 58.3600 6789.00 7200.36 82.00
758 58.4100 7743.00 7863.24 87.00
759 58.4600 7819.00 7836.59 88.00
760 58.5100 7254.00 7145.25 85.00
761 58.5600 6257.00 6068.60 79.00
762 58.6100 5188.00 4934.46 72.00
763 58.6600 4035.00 3963.11 63.00
764 58.7100 3252.00 3242.85 57.00
765 58.7600 2751.00 2768.96 52.00
766 58.8100 2406.00 2489.29 49.00
767 58.8600 2308.00 2340.35 48.00
768 58.9100 2230.00 2267.67 47.00
769 58.9600 2186.00 2233.94 46.00
770 59.0100 2255.00 2217.84 47.00
771 59.0600 2237.00 2209.12 47.00
772 59.1100 2173.00 2203.50 46.00
773 59.1600 2141.00 2199.40 46.00
774 59.2100 2150.00 2196.26 46.00
775 59.2600 2228.00 2193.84 47.00
776 59.3100 2149.00 2192.05 46.00
777 59.3600 2229.00 2190.79 47.00
778 59.4100 2124.00 2190.02 46.00
779 59.4600 2132.00 2189.69 46.00
780 59.5100 2188.00 2189.78 46.00
781 59.5600 2086.00 2190.28 45.00
782 59.6100 2131.00 2191.40 46.00
783 59.6600 2178.00 2193.67 46.00
784 59.7100 2171.00 2196.42 46.00
785 59.7600 2191.00 2199.72 46.00
786 59.8100 2144.00 2203.67 46.00
787 59.8600 2190.00 2208.37 46.00
788 59.9100 2186.00 2213.92 46.00
789 59.9600 2183.00 2220.44 46.00
790 60.0100 2250.00 2228.06 47.00
791 60.0600 2288.00 2237.10 47.00
792 60.1100 2235.00 2248.15 47.00
793 60.1600 2290.00 2262.55 47.00
794 60.2100 2182.00 2283.43 46.00
795 60.2600 2338.00 2318.82 48.00
796 60.3100 2499.00 2389.13 49.00
797 60.3600 2696.00 2541.48 51.00
798 60.4100 3021.00 2869.45 54.00
799 60.4600 3696.00 3524.42 60.00
800 60.5100 4796.00 4688.52 69.00
801 60.5600 6490.00 6476.85 80.00
802 60.6100 8760.00 8789.38 93.00
803 60.6600 10982.00 11209.50 104.00
804 60.7100 12637.00 13075.40 112.00
805 60.7600 13476.00 13751.40 116.00
806 60.8100 13238.00 12992.50 115.00
807 60.8600 11839.00 11143.20 108.00
808 60.9100 9636.00 8879.55 98.00
809 60.9600 7309.00 6775.87 85.00
810 61.0100 5306.00 5133.38 72.00
811 61.0600 4047.00 4015.82 63.00
812 61.1100 3248.00 3346.01 56.00
813 61.1600 2920.00 2987.80 54.00
814 61.2100 2791.00 2804.94 52.00
815 61.2600 2595.00 2696.53 50.00
816 61.3100 2542.00 2610.78 50.00
817 61.3600 2492.00 2535.86 49.00
818 61.4100 2462.00 2479.43 49.00
819 61.4600 2472.00 2457.45 49.00
820 61.5100 2604.00 2496.97 51.00
821 61.5600 2621.00 2646.15 51.00
822 61.6100 2990.00 2979.98 54.00
823 61.6600 3587.00 3584.03 59.00
824 61.7100 4407.00 4501.92 66.00
825 61.7600 5358.00 5661.82 73.00
826 61.8100 6615.00 6834.12 81.00
827 61.8600 7521.00 7682.94 86.00
828 61.9100 7977.00 7910.54 89.00
829 61.9600 7774.00 7435.52 88.00
830 62.0100 6845.00 6464.72 82.00
831 62.0600 5740.00 5335.12 75.00
832 62.1100 4589.00 4309.90 67.00
833 62.1600 3534.00 3514.64 59.00
834 62.2100 2953.00 2967.01 54.00
835 62.2600 2559.00 2627.40 50.00
836 62.3100 2347.00 2436.59 48.00
837 62.3600 2187.00 2338.75 46.00
838 62.4100 2194.00 2291.82 46.00
839 62.4600 2184.00 2269.46 46.00
840 62.5100 2182.00 2257.80 46.00
841 62.5600 2253.00 2250.57 47.00
842 62.6100 2198.00 2245.33 46.00
843 62.6600 2285.00 2241.17 47.00
844 62.7100 2253.00 2237.77 47.00
845 62.7600 2272.00 2234.98 47.00
846 62.8100 2330.00 2232.69 48.00
847 62.8600 2277.00 2230.86 47.00
848 62.9100 2338.00 2229.44 48.00
849 62.9600 2276.00 2228.43 47.00
850 63.0100 2272.00 2227.83 47.00
851 63.0600 2285.00 2227.59 47.00
852 63.1100 2272.00 2227.60 47.00
853 63.1600 2324.00 2227.67 48.00
854 63.2100 2387.00 2227.60 48.00
855 63.2600 2279.00 2227.27 47.00
856 63.3100 2272.00 2226.69 47.00
857 63.3600 2333.00 2226.04 48.00
858 63.4100 2256.00 2225.46 47.00
859 63.4600 2175.00 2225.05 46.00
860 63.5100 2173.00 2224.84 46.00
861 63.5600 2225.00 2224.89 47.00
862 63.6100 2190.00 2225.01 46.00
863 63.6600 2191.00 2225.23 46.00
864 63.7100 2125.00 2225.53 46.00
865 63.7600 2171.00 2225.89 46.00
866 63.8100 2194.00 2226.30 46.00
867 63.8600 2307.00 2226.75 48.00
868 63.9100 2253.00 2227.24 47.00
869 63.9600 2294.00 2227.77 47.00
870 64.0100 2216.00 2228.35 47.00
871 64.0600 2253.00 2229.02 47.00
872 64.1100 2268.00 2229.85 47.00
873 64.1600 2305.00 2231.06 48.00
874 64.2100 2165.00 2232.90 46.00
875 64.2600 2238.00 2236.18 47.00
876 64.3100 2256.00 2242.10 47.00
877 64.3600 2238.00 2251.60 47.00
878 64.4100 2292.00 2264.68 47.00
879 64.4600 2274.00 2279.60 47.00
880 64.5100 2245.00 2292.82 47.00
881 64.5600 2302.00 2300.24 47.00
882 64.6100 2307.00 2299.23 48.00
883 64.6600 2284.00 2290.53 47.00
884 64.7100 2229.00 2277.76 47.00
885 64.7600 2249.00 2264.83 47.00
886 64.8100 2261.00 2254.11 47.00
887 64.8600 2184.00 2246.37 46.00
888 64.9100 2239.00 2241.42 47.00
889 64.9600 2240.00 2238.62 47.00
890 65.0100 2208.00 2237.28 46.00
891 65.0600 2278.00 2236.83 47.00
892 65.1100 2325.00 2236.84 48.00
893 65.1600 2330.00 2237.07 48.00
894 65.2100 2202.00 2237.41 46.00
895 65.2600 2150.00 2237.79 46.00
896 65.3100 2191.00 2238.20 46.00
897 65.3600 2218.00 2241.70 47.00
898 65.4100 2212.00 2247.90 47.00
899 65.4600 2328.00 2254.13 48.00
900 65.5100 2308.00 2260.38 48.00
901 65.5600 2197.00 2266.65 46.00
902 65.6100 2261.00 2272.94 47.00
903 65.6600 2288.00 2279.27 47.00
904 65.7100 2223.00 2285.64 47.00
905 65.7600 2307.00 2292.05 48.00
906 65.8100 2277.00 2298.52 47.00
907 65.8600 2328.00 2305.06 48.00
908 65.9100 2336.00 2311.71 48.00
909 65.9600 2286.00 2318.54 47.00
910 66.0100 2401.00 2325.71 49.00
911 66.0600 2481.00 2333.65 49.00
912 66.1100 2403.00 2343.41 49.00
913 66.1600 2433.00 2357.33 49.00
914 66.2100 2431.00 2379.86 49.00
915 66.2600 2439.00 2417.74 49.00
916 66.3100 2550.00 2478.31 50.00
917 66.3600 2659.00 2564.77 51.00
918 66.4100 2671.00 2670.01 51.00
919 66.4600 2806.00 2773.52 52.00
920 66.5100 2872.00 2846.85 53.00
921 66.5600 2968.00 2866.23 54.00
922 66.6100 2822.00 2827.26 53.00
923 66.6600 2786.00 2749.35 52.00
924 66.7100 2796.00 2661.17 52.00
925 66.7600 2629.00 2583.77 51.00
926 66.8100 2562.00 2526.04 50.00
927 66.8600 2577.00 2488.39 50.00
928 66.9100 2544.00 2467.19 50.00
929 66.9600 2519.00 2457.75 50.00
930 67.0100 2464.00 2455.77 49.00
931 67.0600 2501.00 2457.97 50.00
932 67.1100 2380.00 2462.25 48.00
933 67.1600 2419.00 2467.45 49.00
934 67.2100 2532.00 2473.04 50.00
935 67.2600 2502.00 2478.79 50.00
936 67.3100 2554.00 2484.64 50.00
937 67.3600 2499.00 2490.54 49.00
938 67.4100 2507.00 2496.50 50.00
939 72.6100 2472.00 2525.25 49.00
940 72.6600 2493.00 2525.72 49.00
941 72.7100 2521.00 2526.26 50.00
942 72.7600 2446.00 2523.45 49.00
943 72.8100 2518.00 2518.47 50.00
944 72.8600 2488.00 2513.64 49.00
945 72.9100 2362.00 2509.05 48.00
946 72.9600 2489.00 2504.89 49.00
947 73.0100 2518.00 2501.65 50.00
948 73.0600 2499.00 2500.52 49.00
949 73.1100 2541.00 2504.19 50.00
950 73.1600 2468.00 2518.00 49.00
951 73.2100 2487.00 2550.76 49.00
952 73.2600 2553.00 2613.52 50.00
953 73.3100 2740.00 2714.58 52.00
954 73.3600 2870.00 2850.68 53.00
955 73.4100 3002.00 2999.71 54.00
956 73.4600 3103.00 3122.69 55.00
957 73.5100 3030.00 3178.06 55.00
958 73.5600 3112.00 3143.47 55.00
959 73.6100 3043.00 3031.99 55.00
960 73.6600 2834.00 2884.29 53.00
961 73.7100 2697.00 2740.55 51.00
962 73.7600 2639.00 2622.81 51.00
963 73.8100 2556.00 2536.14 50.00
964 73.8600 2556.00 2476.61 50.00
965 73.9100 2471.00 2437.66 49.00
966 73.9600 2336.00 2412.92 48.00
967 74.0100 2372.00 2397.17 48.00
968 74.0600 2405.00 2386.53 49.00
969 74.1100 2411.00 2378.48 49.00
970 74.1600 2373.00 2371.63 48.00
971 74.2100 2403.00 2365.29 49.00
972 74.2600 2390.00 2359.22 48.00
973 74.3100 2448.00 2353.36 49.00
974 74.3600 2385.00 2352.35 48.00
975 74.4100 2305.00 2351.87 48.00
976 74.4600 2367.00 2352.32 48.00
977 74.5100 2320.00 2354.28 48.00
978 76.5100 2332.00 2307.82 48.00
979 76.5600 2334.00 2306.91 48.00
980 76.6100 2291.00 2306.00 47.00
981 76.6600 2332.00 2305.10 48.00
982 76.7100 2295.00 2304.20 47.00
983 76.7600 2250.00 2303.31 47.00
984 76.8100 2242.00 2302.42 47.00
985 76.8600 2291.00 2301.56 47.00
986 76.9100 2307.00 2300.69 48.00
987 76.9600 2305.00 2299.82 48.00
988 77.0100 2370.00 2298.96 48.00
989 77.0600 2354.00 2298.10 48.00
990 77.1100 2290.00 2297.25 47.00
991 77.1600 2329.00 2296.42 48.00
992 77.2100 2369.00 2295.59 48.00
993 77.2600 2295.00 2294.77 47.00
994 77.3100 2205.00 2293.96 46.00
995 77.3600 2295.00 2293.17 47.00
996 77.4100 2252.00 2292.73 47.00
997 77.4600 2245.00 2291.98 47.00
998 77.5100 2227.00 2291.24 47.00
999 77.5600 2350.00 2290.52 48.00
1000 77.6100 2250.00 2289.83 47.00
1001 77.6600 2136.00 2289.16 46.00
1002 77.7100 2193.00 2288.52 46.00
1003 77.7600 2250.00 2287.84 47.00
1004 77.8100 2314.00 2289.15 48.00
1005 77.8600 2336.00 2290.97 48.00
1006 77.9100 2281.00 2292.84 47.00
1007 77.9600 2264.00 2294.78 47.00
1008 78.0100 2326.00 2296.79 48.00
1009 78.0600 2319.00 2298.90 48.00
1010 78.1100 2388.00 2301.11 48.00
1011 78.1600 2269.00 2303.46 47.00
1012 78.2100 2292.00 2305.98 47.00
1013 78.2600 2249.00 2308.72 47.00
1014 78.3100 2313.00 2311.75 48.00
1015 78.3600 2375.00 2315.19 48.00
1016 78.4100 2246.00 2319.24 47.00
1017 78.4600 2311.00 2324.32 48.00
1018 78.5100 2305.00 2331.39 48.00
1019 78.5600 2319.00 2342.80 48.00
1020 78.6100 2338.00 2363.99 48.00
1021 78.6600 2361.00 2406.25 48.00
1022 78.7100 2392.00 2489.99 48.00
1023 78.7600 2640.00 2645.08 51.00
1024 78.8100 2918.00 2903.55 54.00
1025 78.8600 3227.00 3280.02 56.00
1026 78.9100 3779.00 3745.89 61.00
1027 78.9600 4343.00 4215.53 65.00
1028 79.0100 4664.00 4563.49 68.00
1029 79.0600 4702.00 4675.96 68.00
1030 79.1100 4479.00 4512.56 66.00
1031 79.1600 4184.00 4139.76 64.00
1032 79.2100 3656.00 3689.22 60.00
1033 79.2600 3162.00 3274.40 56.00
1034 79.3100 2766.00 2949.10 52.00
1035 79.3600 2553.00 2718.68 50.00
1036 79.4100 2444.00 2566.18 49.00
1037 79.4600 2434.00 2470.76 49.00
1038 79.5100 2472.00 2414.78 49.00
1039 79.5600 2353.00 2384.35 48.00
1040 79.6100 2361.00 2369.14 48.00
1041 79.6600 2476.00 2362.05 49.00
1042 79.7100 2465.00 2358.86 49.00
1043 79.7600 2361.00 2357.40 48.00
1044 79.8100 2359.00 2356.70 48.00
1045 79.8600 2381.00 2356.40 48.00
1046 79.9100 2210.00 2356.36 47.00
1047 79.9600 2292.00 2356.52 47.00
1048 80.0100 2350.00 2356.86 48.00
1049 80.0600 2344.00 2357.36 48.00
1050 80.1100 2345.00 2357.99 48.00
1051 80.1600 2352.00 2358.74 48.00
1052 80.2100 2327.00 2359.60 48.00
1053 80.2600 2411.00 2360.54 49.00
1054 80.3100 2355.00 2361.57 48.00
1055 80.3600 2220.00 2362.22 47.00
1056 80.4100 2382.00 2362.28 48.00
1057 80.4600 2423.00 2362.39 49.00
1058 80.5100 2429.00 2362.55 49.00
1059 80.5600 2396.00 2362.77 48.00
1060 80.6100 2417.00 2363.04 49.00
1061 80.6600 2331.00 2363.36 48.00
1062 80.7100 2357.00 2363.74 48.00
1063 80.7600 2331.00 2364.11 48.00
1064 80.8100 2366.00 2364.59 48.00
1065 83.9100 2428.00 2391.62 49.00
1066 83.9600 2409.00 2393.04 49.00
1067 84.0100 2436.00 2395.31 49.00
1068 84.0600 2407.00 2397.35 49.00
1069 84.1100 2304.00 2401.68 48.00
1070 84.1600 2344.00 2411.11 48.00
1071 84.2100 2429.00 2429.31 49.00
1072 84.2600 2554.00 2460.67 50.00
1073 84.3100 2499.00 2508.38 49.00
1074 84.3600 2611.00 2571.31 51.00
1075 84.4100 2701.00 2641.35 51.00
1076 84.4600 2688.00 2703.93 51.00
1077 84.5100 2712.00 2742.85 52.00
1078 84.5600 2799.00 2748.60 52.00
1079 84.6100 2794.00 2726.47 52.00
1080 84.6600 2763.00 2699.70 52.00
1081 84.7100 2733.00 2705.30 52.00
1082 84.7600 2898.00 2789.75 53.00
1083 84.8100 3099.00 3009.03 55.00
1084 84.8600 3570.00 3422.60 59.00
1085 84.9100 4025.00 4069.39 63.00
1086 84.9600 4839.00 4926.79 69.00
1087 85.0100 5996.00 5874.03 77.00
1088 85.0600 6668.00 6698.58 81.00
1089 85.1100 7305.00 7162.20 85.00
1090 85.1600 7146.00 7107.12 84.00
1091 85.2100 6551.00 6550.74 80.00
1092 85.2600 5633.00 5691.10 75.00
1093 85.3100 4649.00 4784.30 68.00
1094 85.3600 3871.00 4008.89 62.00
1095 85.4100 3256.00 3427.49 57.00
1096 85.4600 2853.00 3024.92 53.00
1097 85.5100 2692.00 2758.43 51.00
1098 85.5600 2573.00 2587.44 50.00
1099 85.6100 2443.00 2481.85 49.00
1100 85.6600 2466.00 2419.75 49.00
1101 85.7100 2434.00 2384.77 49.00
1102 85.7600 2322.00 2365.23 48.00
1103 85.8100 2380.00 2353.61 48.00
1104 85.8600 2384.00 2345.70 48.00
1105 85.9100 2287.00 2339.51 47.00
1106 85.9600 2312.00 2334.23 48.00
1107 86.0100 2277.00 2329.57 47.00
1108 86.0600 2277.00 2325.48 47.00
1109 86.1100 2330.00 2321.91 48.00
1110 86.1600 2241.00 2318.78 47.00
1111 86.2100 2373.00 2315.89 48.00
1112 86.2600 2360.00 2313.03 48.00
1113 86.3100 2279.00 2309.97 47.00
1114 86.3600 2329.00 2306.61 48.00
1115 86.4100 2261.00 2303.03 47.00
1116 86.4600 2290.00 2299.41 47.00
1117 86.5100 2317.00 2295.95 48.00
1118 86.5600 2323.00 2292.58 48.00
1119 86.6100 2260.00 2289.63 47.00
1120 86.6600 2365.00 2286.91 48.00
1121 86.7100 2373.00 2284.36 48.00
1122 86.7600 2428.00 2281.96 49.00
1123 86.8100 2298.00 2280.18 47.00
1124 86.8600 2320.00 2280.49 48.00
1125 86.9100 2293.00 2280.93 47.00
1126 86.9600 2265.00 2281.53 47.00
1127 87.0100 2309.00 2282.43 48.00
1128 87.0600 2273.00 2283.90 47.00
1129 87.1100 2282.00 2286.51 47.00
1130 87.1600 2332.00 2291.24 48.00
1131 87.2100 2342.00 2299.42 48.00
1132 87.2600 2288.00 2312.57 47.00
1133 87.3100 2318.00 2331.50 48.00
1134 87.3600 2385.00 2355.28 48.00
1135 87.4100 2516.00 2380.47 50.00
1136 87.4600 2432.00 2401.51 49.00
1137 87.5100 2416.00 2412.54 49.00
1138 87.5600 2405.00 2410.07 49.00
1139 87.6100 2377.00 2395.06 48.00
1140 87.6600 2376.00 2372.84 48.00
1141 87.7100 2378.00 2349.86 48.00
1142 87.7600 2411.00 2330.53 49.00
1143 87.8100 2386.00 2316.30 48.00
1144 87.8600 2415.00 2306.69 49.00
1145 87.9100 2344.00 2300.55 48.00
1146 87.9600 2275.00 2296.81 47.00
1147 88.0100 2394.00 2294.71 48.00
1148 88.0600 2341.00 2293.73 48.00
1149 88.1100 2314.00 2293.47 48.00
1150 88.1600 2341.00 2293.64 48.00
1151 88.2100 2293.00 2294.06 47.00
1152 88.2600 2163.00 2294.60 46.00
1153 88.3100 2336.00 2295.21 48.00
1154 88.3600 2301.00 2295.88 47.00
1155 88.4100 2286.00 2297.73 47.00
1156 88.4600 2296.00 2300.36 47.00
1157 88.5100 2382.00 2303.05 48.00
1158 88.5600 2240.00 2305.83 47.00
1159 88.6100 2283.00 2308.71 47.00
1160 88.6600 2432.00 2311.77 49.00
1161 88.7100 2411.00 2315.11 49.00
1162 88.7600 2457.00 2319.05 49.00
1163 88.8100 2287.00 2324.14 47.00
1164 88.8600 2329.00 2331.67 48.00
1165 88.9100 2358.00 2344.02 48.00
1166 88.9600 2336.00 2365.03 48.00
1167 89.0100 2470.00 2399.86 49.00
1168 89.0600 2553.00 2453.53 50.00
1169 89.1100 2557.00 2527.86 50.00
1170 89.1600 2588.00 2617.76 50.00
1171 89.2100 2601.00 2709.27 51.00
1172 89.2600 2795.00 2781.81 52.00
1173 89.3100 2831.00 2815.31 53.00
1174 89.3600 2782.00 2799.35 52.00
1175 89.4100 2680.00 2739.93 51.00
1176 89.4600 2542.00 2657.29 50.00
1177 89.5100 2578.00 2574.31 50.00
1178 89.5600 2576.00 2505.66 50.00
1179 89.6100 2403.00 2455.75 49.00
1180 89.6600 2357.00 2422.37 48.00
1181 89.7100 2381.00 2401.15 48.00
1182 89.7600 2372.00 2388.24 48.00
1183 89.8100 2391.00 2380.82 48.00
1184 89.8600 2354.00 2377.41 48.00
1185 89.9100 2386.00 2376.51 48.00
1186 89.9600 2379.00 2377.12 48.00
1187 90.0100 2362.00 2378.57 48.00
1188 90.0600 2393.00 2380.44 48.00
1189 90.1100 2393.00 2382.49 48.00
1190 90.1600 2317.00 2384.63 48.00
1191 90.2100 2351.00 2386.83 48.00
1192 90.2600 2424.00 2389.06 49.00
1193 90.3100 2302.00 2391.32 47.00
1194 90.3600 2396.00 2393.61 48.00
1195 90.4100 2364.00 2395.92 48.00
1196 90.4600 2408.00 2398.26 49.00
1197 90.5100 2425.00 2400.61 49.00
1198 90.5600 2498.00 2402.99 49.00
1199 90.6100 2475.00 2405.37 49.00
1200 90.6600 2498.00 2407.78 49.00
1201 90.7100 2426.00 2410.20 49.00
1202 90.7600 2428.00 2412.63 49.00
1203 90.8100 2449.00 2415.08 49.00
1204 90.8600 2377.00 2417.55 48.00
1205 90.9100 2383.00 2420.04 48.00
1206 90.9600 2456.00 2422.52 49.00
1207 91.0100 2425.00 2425.01 49.00
1208 91.0600 2420.00 2427.48 49.00
1209 91.1100 2445.00 2429.94 49.00
1210 91.1600 2468.00 2432.38 49.00
1211 91.2100 2420.00 2434.81 49.00
1212 91.2600 2389.00 2437.24 48.00
1213 91.3100 2445.00 2439.69 49.00
1214 91.3600 2443.00 2442.14 49.00
1215 91.4100 2399.00 2444.61 48.00
1216 91.4600 2353.00 2447.08 48.00
1217 91.5100 2497.00 2449.56 49.00
1218 91.5600 2382.00 2452.04 48.00
1219 91.6100 2414.00 2454.54 49.00
1220 91.6600 2467.00 2457.03 49.00
1221 91.7100 2405.00 2459.59 49.00
1222 91.7600 2396.00 2462.47 48.00
1223 91.8100 2456.00 2465.35 49.00
1224 91.8600 2472.00 2468.23 49.00
1225 91.9100 2447.00 2471.11 49.00
1226 91.9600 2428.00 2474.07 49.00
1227 92.0100 2324.00 2476.95 48.00
1228 92.0600 2407.00 2479.84 49.00
1229 92.1100 2486.00 2482.73 49.00
1230 92.1600 2461.00 2485.62 49.00
1231 92.2100 2516.00 2488.50 50.00
1232 92.2600 2512.00 2491.40 50.00
1233 92.3100 2602.00 2494.29 51.00
1234 92.3600 2584.00 2497.16 50.00
1235 92.4100 2546.00 2500.05 50.00
1236 92.4600 2517.00 2502.95 50.00
1237 92.5100 2540.00 2505.84 50.00
1238 96.7100 2748.00 2765.92 52.00
1239 96.7600 2699.00 2773.14 51.00
1240 96.8100 2852.00 2785.54 53.00
1241 96.8600 2853.00 2805.67 53.00
1242 96.9100 2882.00 2836.29 53.00
1243 96.9600 2879.00 2879.45 53.00
1244 97.0100 3029.00 2935.13 55.00
1245 97.0600 3185.00 2999.87 56.00
1246 97.1100 3176.00 3066.11 56.00
1247 97.1600 3265.00 3123.39 57.00
1248 97.2100 3264.00 3161.64 57.00
1249 97.2600 3232.00 3175.43 56.00
1250 97.3100 3105.00 3167.44 55.00
1251 97.3600 3132.00 3149.24 55.00
1252 97.4100 3100.00 3137.10 55.00
1253 97.4600 3164.00 3143.38 56.00
1254 97.5100 3207.00 3169.50 56.00
1255 97.5600 3234.00 3204.79 56.00
1256 97.6100 3337.00 3231.45 57.00
1257 97.6600 3258.00 3232.29 57.00
1258 97.7100 3154.00 3198.45 56.00
1259 97.7600 3093.00 3133.67 55.00
1260 97.8100 2994.00 3052.40 54.00
1261 97.8600 3063.00 2971.90 55.00
1262 97.9100 2929.00 2904.33 54.00
1263 97.9600 2853.00 2854.07 53.00
1264 98.0100 2779.00 2819.61 52.00
1265 98.0600 2828.00 2796.90 53.00
1266 98.1100 2794.00 2781.95 52.00
1267 98.1600 2716.00 2771.95 52.00
1268 98.2100 2778.00 2765.22 52.00
1269 98.2600 2689.00 2760.80 51.00
1270 98.3100 2773.00 2758.00 52.00
1271 98.3600 2673.00 2756.31 51.00
1272 98.4100 2742.00 2755.31 52.00
1273 98.4600 2739.00 2754.72 52.00
1274 98.5100 2787.00 2754.41 52.00
1275 98.5600 2827.00 2754.33 53.00
1276 98.6100 2720.00 2754.57 52.00
1277 98.6600 2681.00 2755.47 51.00
1278 98.7100 2739.00 2757.33 52.00
1279 98.7600 2740.00 2760.52 52.00
1280 98.8100 2734.00 2765.56 52.00
1281 98.8600 2678.00 2772.83 51.00
1282 98.9100 2741.00 2782.27 52.00
1283 98.9600 2779.00 2793.13 52.00
1284 99.0100 2835.00 2803.82 53.00
1285 99.0600 2777.00 2812.25 52.00
1286 99.1100 2827.00 2816.41 53.00
1287 99.1600 2830.00 2815.11 53.00
1288 99.2100 2714.00 2808.66 52.00
1289 99.2600 2724.00 2798.82 52.00
1290 99.3100 2765.00 2788.06 52.00
1291 99.3600 2786.00 2778.43 52.00
1292 99.4100 2807.00 2770.99 52.00
1293 99.4600 2755.00 2765.83 52.00
1294 99.5100 2892.00 2762.51 53.00
1295 99.5600 2760.00 2760.46 52.00
1296 99.6100 2770.00 2759.21 52.00
1297 99.6600 2763.00 2758.49 52.00
1298 99.7100 2765.00 2758.12 52.00
1299 99.7600 2744.00 2758.00 52.00
1300 99.8100 2685.00 2758.07 51.00
1301 99.8600 2750.00 2758.28 52.00
1302 99.9100 2778.00 2758.58 52.00
1303 99.9600 2757.00 2758.96 52.00
1304 100.0100 2762.00 2759.39 52.00
1305 100.0600 2785.00 2759.87 52.00
1306 100.1100 2759.00 2760.41 52.00
1307 100.1600 2796.00 2761.01 52.00
1308 100.2100 2751.00 2761.70 52.00
1309 100.2600 2852.00 2762.51 53.00
1310 100.3100 2817.00 2763.50 53.00
1311 100.3600 2778.00 2764.79 52.00
1312 100.4100 2716.00 2766.59 52.00
1313 100.4600 2748.00 2769.28 52.00
1314 100.5100 2730.00 2773.45 52.00
1315 100.5600 2821.00 2779.95 53.00
1316 100.6100 2836.00 2789.85 53.00
1317 100.6600 2929.00 2804.26 54.00
1318 100.7100 2968.00 2824.13 54.00
1319 100.7600 2925.00 2850.09 54.00
1320 100.8100 2925.00 2882.71 54.00
1321 100.8600 2974.00 2923.36 54.00
1322 100.9100 2874.00 2975.30 53.00
1323 100.9600 2977.00 3044.45 54.00
1324 101.0100 3081.00 3138.49 55.00
1325 101.0600 3195.00 3263.64 56.00
1326 101.1100 3432.00 3419.03 58.00
1327 101.1600 3672.00 3591.33 60.00
1328 101.2100 3870.00 3753.72 62.00
1329 101.2600 4010.00 3871.25 63.00
1330 101.3100 4030.00 3912.34 63.00
1331 101.3600 3997.00 3861.32 63.00
1332 101.4100 3709.00 3727.27 60.00
1333 101.4600 3473.00 3542.34 58.00
1334 101.5100 3216.00 3347.71 56.00
1335 101.5600 3038.00 3176.25 55.00
1336 101.6100 2994.00 3043.92 54.00
1337 101.6600 2832.00 2951.27 53.00
1338 101.7100 2807.00 2890.20 52.00
1339 101.7600 2808.00 2850.63 52.00
1340 101.8100 2802.00 2824.49 52.00
1341 101.8600 2842.00 2806.74 53.00
1342 101.9100 2768.00 2794.64 52.00
1343 101.9600 2771.00 2786.62 52.00
1344 102.0100 2826.00 2781.57 53.00
1345 102.0600 2733.00 2778.57 52.00
1346 102.1100 2847.00 2776.86 53.00
1347 102.1600 2726.00 2775.89 52.00
1348 102.2100 2825.00 2775.32 53.00
1349 102.2600 2856.00 2774.95 53.00
1350 102.3100 2779.00 2774.69 52.00
1351 102.3600 2860.00 2774.50 53.00
1352 102.4100 2866.00 2774.37 53.00
1353 102.4600 2837.00 2774.30 53.00
1354 102.5100 2778.00 2774.28 52.00
1355 102.5600 2762.00 2774.31 52.00
1356 102.6100 2774.00 2774.40 52.00
1357 102.6600 2819.00 2774.54 53.00
1358 102.7100 2813.00 2774.73 53.00
1359 102.7600 2835.00 2774.97 53.00
1360 102.8100 2814.00 2775.26 53.00
1361 102.8600 2881.00 2775.60 53.00
1362 102.9100 2735.00 2776.09 52.00
1363 102.9600 2710.00 2776.71 52.00
1364 103.0100 2716.00 2777.38 52.00
1365 103.0600 2743.00 2778.11 52.00
1366 103.1100 2774.00 2778.90 52.00
1367 103.1600 2670.00 2779.77 51.00
1368 103.2100 2664.00 2780.71 51.00
1369 103.2600 2766.00 2781.76 52.00
1370 103.3100 2836.00 2782.92 53.00
1371 103.3600 2782.00 2784.22 52.00
1372 103.4100 2700.00 2785.69 51.00
1373 103.4600 2774.00 2787.39 52.00
1374 103.5100 2823.00 2789.38 53.00
1375 103.5600 2857.00 2791.79 53.00
1376 103.6100 2744.00 2794.80 52.00
1377 103.6600 2824.00 2798.79 53.00
1378 103.7100 2864.00 2804.44 53.00
1379 103.7600 2850.00 2813.11 53.00
1380 103.8100 2847.00 2827.36 53.00
1381 103.8600 2956.00 2851.79 54.00
1382 103.9100 2962.00 2893.97 54.00
1383 103.9600 2977.00 2965.21 54.00
1384 104.0100 3126.00 3080.28 55.00
1385 104.0600 3295.00 3255.03 57.00
1386 104.1100 3624.00 3500.94 60.00
1387 104.1600 3858.00 3817.52 62.00
1388 104.2100 4199.00 4184.71 64.00
1389 104.2600 4621.00 4559.13 67.00
1390 104.3100 4986.00 4879.66 70.00
1391 104.3600 5133.00 5081.02 71.00
1392 104.4100 5199.00 5114.33 72.00
1393 104.4600 5007.00 4966.20 70.00
1394 104.5100 4590.00 4668.40 67.00
1395 104.5600 4085.00 4288.79 63.00
1396 104.6100 3801.00 3904.26 61.00
1397 104.6600 3496.00 3572.30 59.00
1398 104.7100 3275.00 3318.95 57.00
1399 104.7600 2999.00 3143.14 54.00
1400 104.8100 2947.00 3028.49 54.00
1401 104.8600 2887.00 2955.18 53.00
1402 104.9100 2898.00 2907.17 53.00
1403 104.9600 2807.00 2874.35 52.00
1404 105.0100 2784.00 2851.38 52.00
1405 105.0600 2806.00 2835.54 52.00
1406 105.1100 2795.00 2825.14 52.00
1407 105.1600 2871.00 2818.76 53.00
1408 105.2100 2786.00 2815.14 52.00
1409 105.2600 2733.00 2813.26 52.00
1410 105.3100 2773.00 2812.41 52.00
1411 105.3600 2809.00 2812.15 53.00
1412 105.4100 2683.00 2820.56 51.00
1413 105.4600 2802.00 2831.33 52.00
1414 105.5100 2847.00 2842.40 53.00
1415 105.5600 2770.00 2853.83 52.00
1416 105.6100 2805.00 2865.71 52.00
1417 105.6600 2791.00 2878.21 52.00
1418 105.7100 2823.00 2891.68 53.00
1419 105.7600 2854.00 2906.69 53.00
1420 105.8100 2879.00 2924.40 53.00
1421 105.8600 2871.00 2946.95 53.00
1422 105.9100 2934.00 2978.16 54.00
1423 105.9600 2928.00 3024.38 54.00
1424 106.0100 3102.00 3095.21 55.00
1425 106.0600 3250.00 3203.68 57.00
1426 106.1100 3444.00 3364.66 58.00
1427 106.1600 3545.00 3591.07 59.00
1428 106.2100 3842.00 3887.91 61.00
1429 106.2600 4287.00 4244.57 65.00
1430 106.3100 4636.00 4630.13 68.00
1431 106.3600 5024.00 4993.85 70.00
1432 106.4100 5327.00 5273.90 72.00
1433 106.4600 5485.00 5413.62 74.00
1434 106.5100 5402.00 5379.57 73.00
1435 106.5600 5195.00 5176.08 72.00
1436 106.6100 4844.00 4848.20 69.00
1437 106.6600 4186.00 4466.88 64.00
1438 106.7100 3907.00 4101.76 62.00
1439 106.7600 3642.00 3799.60 60.00
1440 106.8100 3471.00 3577.63 58.00
1441 106.8600 3347.00 3429.86 57.00
1442 106.9100 3267.00 3338.60 57.00
1443 106.9600 3250.00 3284.49 57.00
1444 107.0100 3158.00 3252.55 56.00
1445 107.0600 3178.00 3222.76 56.00
1446 107.1100 3300.00 3198.53 57.00
1447 111.1100 2941.00 2917.51 54.00
1448 111.1600 2937.00 2914.75 54.00
1449 111.2100 2866.00 2911.99 53.00
1450 111.2600 2938.00 2909.22 54.00
1451 111.3100 2909.00 2906.46 53.00
1452 111.3600 2873.00 2903.70 53.00
1453 111.4100 2843.00 2900.94 53.00
1454 111.4600 2814.00 2898.18 53.00
1455 111.5100 2924.00 2897.83 54.00
1456 111.5600 2880.00 2897.48 53.00
1457 111.6100 2906.00 2897.13 53.00
1458 111.6600 3041.00 2896.78 55.00
1459 111.7100 3088.00 2896.43 55.00
1460 111.7600 2948.00 2896.08 54.00
1461 111.8100 2857.00 2895.73 53.00
1462 111.8600 2912.00 2895.38 53.00
1463 111.9100 2972.00 2895.04 54.00
1464 111.9600 3034.00 2894.69 55.00
1465 112.0100 2957.00 2894.35 54.00
1466 112.0600 2989.00 2894.01 54.00
1467 112.1100 2856.00 2893.68 53.00
1468 112.1600 2795.00 2893.36 52.00
1469 112.2100 2760.00 2893.04 52.00
1470 112.2600 2764.00 2892.73 52.00
1471 112.3100 2912.00 2892.43 53.00
1472 112.3600 2923.00 2892.13 54.00
1473 112.4100 2888.00 2891.83 53.00
1474 112.4600 2951.00 2891.53 54.00
1475 112.5100 2999.00 2891.20 54.00
1476 112.5600 2909.00 2890.86 53.00
1477 112.6100 2852.00 2890.50 53.00
1478 112.6600 2875.00 2890.13 53.00
1479 112.7100 2903.00 2889.74 53.00
1480 112.7600 3008.00 2889.36 54.00
1481 112.8100 2941.00 2888.97 54.00
1482 112.8600 2879.00 2888.60 53.00
1483 112.9100 2861.00 2888.24 53.00
1484 112.9600 2873.00 2887.88 53.00
1485 113.0100 2958.00 2887.54 54.00
1486 113.0600 2894.00 2887.20 53.00
1487 113.1100 2910.00 2886.86 53.00
1488 113.1600 2822.00 2886.53 53.00
1489 113.2100 2928.00 2886.20 54.00
1490 113.2600 2933.00 2885.87 54.00
1491 113.3100 2924.00 2885.54 54.00
1492 113.3600 2817.00 2885.22 53.00
1493 113.4100 2906.00 2884.90 53.00
1494 113.4600 2919.00 2884.59 54.00
1495 113.5100 2854.00 2884.29 53.00
1496 113.5600 2918.00 2883.99 54.00
1497 113.6100 2956.00 2883.70 54.00
1498 113.6600 2978.00 2883.42 54.00
1499 113.7100 2871.00 2883.14 53.00
1500 113.7600 2905.00 2882.85 53.00
1501 113.8100 2957.00 2882.55 54.00
1502 113.8600 2866.00 2882.24 53.00
1503 113.9100 2906.00 2881.92 53.00
1504 113.9600 2890.00 2881.58 53.00
1505 114.0100 2861.00 2881.23 53.00
1506 114.0600 2955.00 2880.88 54.00
1507 114.1100 2900.00 2880.53 53.00
1508 114.1600 2909.00 2880.19 53.00
1509 114.2100 2857.00 2879.86 53.00
1510 114.2600 2866.00 2879.54 53.00
1511 114.3100 2923.00 2879.23 54.00
1512 114.3600 2802.00 2878.93 52.00
1513 114.4100 2842.00 2878.64 53.00
1514 114.4600 2869.00 2878.20 53.00
1515 114.5100 2842.00 2877.93 53.00
1516 114.5600 2858.00 2877.65 53.00
1517 114.6100 2851.00 2877.39 53.00
1518 114.6600 2899.00 2877.13 53.00
1519 114.7100 2840.00 2876.88 53.00
1520 114.7600 2855.00 2876.53 53.00
1521 114.8100 2945.00 2875.89 54.00
1522 114.8600 2944.00 2875.26 54.00
1523 114.9100 2853.00 2874.65 53.00
1524 114.9600 2921.00 2874.07 54.00
1525 115.0100 2915.00 2873.52 53.00
1526 115.0600 2864.00 2873.00 53.00
1527 115.1100 3016.00 2872.54 54.00
1528 115.1600 2951.00 2872.15 54.00
1529 115.2100 2874.00 2871.88 53.00
1530 115.2600 2937.00 2871.78 54.00
1531 115.3100 2951.00 2871.98 54.00
1532 115.3600 2978.00 2872.67 54.00
1533 115.4100 2868.00 2874.17 53.00
1534 115.4600 2855.00 2877.03 53.00
1535 115.5100 2897.00 2881.87 53.00
1536 115.5600 2941.00 2889.77 54.00
1537 115.6100 2964.00 2902.00 54.00
1538 115.6600 2954.00 2919.94 54.00
1539 115.7100 3032.00 2944.86 55.00
1540 115.7600 3095.00 2977.42 55.00
1541 115.8100 3139.00 3017.29 56.00
1542 115.8600 3093.00 3062.55 55.00
1543 115.9100 3148.00 3109.61 56.00
1544 115.9600 3206.00 3153.37 56.00
1545 116.0100 3340.00 3187.87 57.00
1546 116.0600 3203.00 3207.53 56.00
1547 116.1100 3173.00 3208.40 56.00
1548 116.1600 3114.00 3189.34 55.00
1549 116.2100 3066.00 3152.60 55.00
1550 116.2600 3038.00 3103.67 55.00
1551 116.3100 3039.00 3049.77 55.00
1552 116.3600 2918.00 2997.92 54.00
1553 116.4100 2941.00 2953.33 54.00
1554 116.4600 2920.00 2918.54 54.00
1555 116.5100 2889.00 2893.74 53.00
1556 116.5600 2935.00 2877.45 54.00
1557 116.6100 2885.00 2867.42 53.00
1558 116.6600 2857.00 2861.41 53.00
1559 116.7100 2853.00 2857.65 53.00
1560 116.7600 2911.00 2854.97 53.00
1561 116.8100 2939.00 2852.76 54.00
1562 116.8600 2799.00 2850.64 52.00
1563 116.9100 2799.00 2848.85 52.00
1564 116.9600 2783.00 2847.26 52.00
1565 117.0100 2796.00 2845.87 52.00
1566 117.0600 2835.00 2844.67 53.00
1567 117.1100 2835.00 2843.62 53.00
1568 117.1600 2812.00 2842.68 53.00
1569 117.2100 2831.00 2841.81 53.00
1570 117.2600 2869.00 2840.98 53.00
1571 117.3100 2740.00 2840.18 52.00
1572 117.3600 2755.00 2839.40 52.00
1573 117.4100 2783.00 2838.62 52.00
1574 117.4600 2917.00 2837.86 54.00
1575 117.5100 2812.00 2837.11 53.00
1576 117.5600 2906.00 2836.36 53.00
1577 117.6100 2864.00 2835.63 53.00
1578 117.6600 2845.00 2834.92 53.00
1579 117.7100 2818.00 2842.96 53.00
1580 117.7600 2798.00 2851.03 52.00
1581 117.8100 2886.00 2859.11 53.00
1582 117.8600 2901.00 2867.21 53.00
1583 117.9100 2839.00 2875.33 53.00
1584 117.9600 2923.00 2883.49 54.00
1585 118.0100 2976.00 2891.67 54.00
1586 118.0600 2945.00 2899.89 54.00
1587 118.1100 2969.00 2908.15 54.00
1588 118.1600 2975.00 2916.48 54.00
1589 118.2100 2933.00 2924.88 54.00
1590 118.2600 2897.00 2933.39 53.00
1591 118.3100 2892.00 2942.07 53.00
1592 118.3600 2972.00 2950.99 54.00
1593 118.4100 3003.00 2960.32 54.00
1594 118.4600 3074.00 2970.29 55.00
1595 118.5100 2945.00 2981.29 54.00
1596 118.5600 2927.00 2993.88 54.00
1597 118.6100 3094.00 3008.90 55.00
1598 118.6600 3122.00 3027.42 55.00
1599 118.7100 3078.00 3050.79 55.00
1600 118.7600 3032.00 3080.44 55.00
1601 118.8100 3219.00 3117.69 56.00
1602 118.8600 3208.00 3163.33 56.00
1603 118.9100 3121.00 3217.13 55.00
1604 118.9600 3296.00 3277.53 57.00
1605 119.0100 3341.00 3341.17 57.00
1606 119.0600 3479.00 3403.19 58.00
1607 119.1100 3472.00 3457.58 58.00
1608 119.1600 3577.00 3498.17 59.00
1609 119.2100 3574.00 3519.83 59.00
1610 119.2600 3605.00 3519.64 60.00
1611 119.3100 3448.00 3497.83 58.00
1612 119.3600 3469.00 3458.02 58.00
1613 119.4100 3326.00 3406.75 57.00
1614 119.4600 3252.00 3351.84 57.00
1615 119.5100 3266.00 3300.53 57.00
1616 119.5600 3159.00 3258.05 56.00
1617 119.6100 3169.00 3227.02 56.00
1618 119.6600 3152.00 3207.63 56.00
1619 119.7100 3119.00 3198.33 55.00
1620 119.7600 3229.00 3196.76 56.00
1621 119.8100 3168.00 3199.24 56.00
1622 119.8600 3196.00 3200.33 56.00
1623 119.9100 3295.00 3203.41 57.00
1624 119.9600 3270.00 3208.00 57.00
1625 120.0100 3301.00 3214.31 57.00
1626 124.1100 3491.00 3370.10 59.00
1627 124.1600 3460.00 3372.71 58.00
1628 124.2100 3293.00 3375.43 57.00
1629 124.2600 3369.00 3374.49 58.00
1630 124.3100 3340.00 3373.74 57.00
1631 124.3600 3312.00 3373.27 57.00
1632 124.4100 3328.00 3373.19 57.00
1633 124.4600 3356.00 3373.65 57.00
1634 124.5100 3294.00 3374.87 57.00
1635 124.5600 3351.00 3377.11 57.00
1636 124.6100 3376.00 3380.75 58.00
1637 124.6600 3431.00 3386.26 58.00
1638 124.7100 3418.00 3394.24 58.00
1639 124.7600 3393.00 3405.44 58.00
1640 124.8100 3372.00 3420.85 58.00
1641 124.8600 3411.00 3441.67 58.00
1642 124.9100 3461.00 3469.44 58.00
1643 124.9600 3414.00 3506.00 58.00
1644 125.0100 3534.00 3553.45 59.00
1645 125.0600 3500.00 3614.05 59.00
1646 125.1100 3636.00 3689.74 60.00
1647 125.1600 3703.00 3781.79 60.00
1648 125.2100 3716.00 3890.14 60.00
1649 125.2600 3855.00 4012.58 62.00
1650 125.3100 4166.00 4144.53 64.00
1651 125.3600 4287.00 4278.39 65.00
1652 125.4100 4323.00 4404.17 65.00
1653 125.4600 4612.00 4510.16 67.00
1654 125.5100 4856.00 4584.35 69.00
1655 125.5600 4803.00 4616.43 69.00
1656 125.6100 4685.00 4599.63 68.00
1657 125.6600 4708.00 4532.35 68.00
1658 125.7100 4348.00 4419.07 65.00
1659 125.7600 4125.00 4270.26 64.00
1660 125.8100 3887.00 4100.62 62.00
1661 125.8600 3742.00 3926.46 61.00
1662 125.9100 3595.00 3762.85 59.00
1663 125.9600 3540.00 3620.79 59.00
1664 126.0100 3471.00 3506.74 58.00
1665 126.0600 3435.00 3422.19 58.00
1666 126.1100 3384.00 3364.83 58.00
1667 126.1600 3430.00 3329.89 58.00
1668 126.2100 3404.00 3311.50 58.00
1669 126.2600 3314.00 3303.91 57.00
1670 126.3100 3258.00 3302.33 57.00
1671 126.3600 3309.00 3303.26 57.00
1672 126.4100 3303.00 3304.52 57.00
1673 126.4600 3319.00 3305.04 57.00
1674 126.5100 3333.00 3304.51 57.00
1675 126.5600 3274.00 3303.04 57.00
1676 126.6100 3342.00 3300.94 57.00
1677 126.6600 3318.00 3298.53 57.00
1678 126.7100 3249.00 3296.03 57.00
1679 126.7600 3338.00 3293.60 57.00
1680 126.8100 3266.00 3291.30 57.00
1681 126.8600 3245.00 3289.14 56.00
1682 126.9100 3304.00 3287.09 57.00
1683 126.9600 3258.00 3285.13 57.00
1684 127.0100 3306.00 3283.23 57.00
1685 127.0600 3283.00 3281.35 57.00
1686 127.1100 3236.00 3278.87 56.00
1687 127.1600 3287.00 3276.39 57.00
1688 127.2100 3299.00 3273.90 57.00
1689 127.2600 3247.00 3271.43 56.00
1690 127.3100 3246.00 3268.95 56.00
1691 127.3600 3274.00 3266.48 57.00
1692 127.4100 3399.00 3264.01 58.00
1693 127.4600 3318.00 3261.56 57.00
1694 127.5100 3310.00 3259.11 57.00
1695 127.5600 3272.00 3256.68 57.00
1696 127.6100 3300.00 3254.25 57.00
1697 127.6600 3310.00 3251.84 57.00
1698 127.7100 3308.00 3249.44 57.00
1699 127.7600 3309.00 3247.06 57.00
1700 127.8100 3287.00 3244.68 57.00
1701 127.8600 3206.00 3242.31 56.00
1702 127.9100 3339.00 3239.96 57.00
1703 127.9600 3214.00 3237.61 56.00
1704 128.0100 3151.00 3235.28 56.00
1705 128.0600 3192.00 3232.95 56.00
1706 128.1100 3195.00 3230.63 56.00
1707 128.1600 3181.00 3228.32 56.00
1708 128.2100 3133.00 3226.02 55.00
1709 128.2600 3085.00 3223.72 55.00
1710 128.3100 3067.00 3221.43 55.00
1711 128.3600 3152.00 3219.15 56.00
1712 128.4100 3140.00 3216.88 56.00
1713 128.4600 3188.00 3214.59 56.00
1714 128.5100 3188.00 3212.33 56.00
1715 128.5600 3205.00 3210.07 56.00
1716 128.6100 3109.00 3207.82 55.00
1717 128.6600 3164.00 3205.57 56.00
1718 128.7100 3021.00 3203.33 54.00
1719 128.7600 3064.00 3201.10 55.00
1720 128.8100 3128.00 3198.87 55.00
1721 128.8600 3224.00 3196.65 56.00
1722 128.9100 3153.00 3194.43 56.00
1723 128.9600 3212.00 3192.21 56.00
1724 129.0100 3087.00 3190.01 55.00
1725 129.0600 3254.00 3187.81 57.00
1726 129.1100 3248.00 3185.61 56.00
1727 129.1600 3138.00 3183.42 56.00
1728 129.2100 3198.00 3181.24 56.00
1729 129.2600 3249.00 3179.06 57.00
1730 129.3100 3176.00 3176.89 56.00
1731 129.3600 3219.00 3174.72 56.00
1732 129.4100 3166.00 3172.56 56.00
1733 129.4600 3125.00 3170.42 55.00
1734 129.5100 3122.00 3168.27 55.00
1735 129.5600 3171.00 3166.14 56.00
1736 129.6100 3260.00 3164.01 57.00
1737 129.6600 3189.00 3161.90 56.00
1738 129.7100 3106.00 3159.79 55.00
1739 129.7600 3057.00 3157.69 55.00
1740 129.8100 3107.00 3155.61 55.00
1741 129.8600 3265.00 3153.54 57.00
1742 129.9100 3204.00 3151.49 56.00
1743 129.9600 3201.00 3152.40 56.00
1744 130.0100 3199.00 3154.06 56.00
1745 130.0600 3079.00 3155.74 55.00
1746 130.1100 3062.00 3157.46 55.00
1747 130.1600 3136.00 3159.22 56.00
1748 130.2100 3134.00 3161.02 55.00
1749 130.2600 3243.00 3162.88 56.00
1750 130.3100 3228.00 3164.82 56.00
1751 130.3600 3104.00 3166.86 55.00
1752 130.4100 3209.00 3169.03 56.00
1753 130.4600 3235.00 3171.35 56.00
1754 130.5100 3254.00 3173.89 57.00
1755 130.5600 3227.00 3176.67 56.00
1756 130.6100 3181.00 3179.75 56.00
1757 130.6600 3178.00 3183.18 56.00
1758 130.7100 3152.00 3187.02 56.00
1759 130.7600 3092.00 3191.32 55.00
1760 130.8100 3216.00 3196.15 56.00
1761 130.8600 3169.00 3201.58 56.00
1762 130.9100 3254.00 3207.72 57.00
1763 130.9600 3266.00 3214.73 57.00
1764 131.0100 3260.00 3222.90 57.00
1765 131.0600 3302.00 3232.65 57.00
1766 131.1100 3275.00 3244.60 57.00
1767 131.1600 3188.00 3259.65 56.00
1768 131.2100 3210.00 3279.01 56.00
1769 131.2600 3252.00 3304.23 57.00
1770 131.3100 3252.00 3337.14 57.00
1771 131.3600 3345.00 3379.80 57.00
1772 131.4100 3376.00 3434.27 58.00
1773 131.4600 3532.00 3502.40 59.00
1774 131.5100 3505.00 3585.45 59.00
1775 131.5600 3528.00 3683.71 59.00
1776 131.6100 3697.00 3796.17 61.00
1777 131.6600 3851.00 3920.03 62.00
1778 131.7100 4051.00 4050.79 64.00
1779 131.7600 4173.00 4182.17 65.00
1780 131.8100 4400.00 4306.50 67.00
1781 131.8600 4536.00 4415.18 68.00
1782 131.9100 4642.00 4499.73 69.00
1783 131.9600 4703.00 4552.61 70.00
1784 132.0100 4546.00 4568.28 69.00
1785 132.0600 4476.00 4544.01 68.00
1786 132.1100 4469.00 4480.59 68.00
1787 132.1600 4288.00 4382.44 67.00
1788 132.2100 4062.00 4257.48 65.00
1789 132.2600 3882.00 4115.92 64.00
1790 132.3100 3771.00 3969.14 63.00
1791 132.3600 3748.00 3828.17 63.00
1792 132.4100 3683.00 3702.20 63.00
1793 132.4600 3654.00 3597.96 62.00
1794 132.5100 3658.00 3519.25 63.00
1795 132.5600 3696.00 3467.48 63.00
1796 132.6100 3553.00 3442.15 62.00
1797 132.6600 3453.00 3441.57 61.00
1798 132.7100 3457.00 3463.55 61.00
1799 132.7600 3545.00 3505.99 62.00
1800 132.8100 3529.00 3567.02 62.00
1801 132.8600 3550.00 3645.09 63.00
1802 132.9100 3638.00 3738.58 63.00
1803 132.9600 3732.00 3845.32 64.00
1804 133.0100 3921.00 3962.43 66.00
1805 133.0600 4158.00 4085.53 68.00
1806 133.1100 4234.00 4209.03 69.00
1807 133.1600 4409.00 4325.94 71.00
1808 133.2100 4603.00 4428.52 72.00
1809 133.2600 4603.00 4508.92 72.00
1810 133.3100 4579.00 4559.81 72.00
1811 133.3600 4761.00 4575.51 74.00
1812 133.4100 4644.00 4552.70 73.00
1813 133.4600 4466.00 4491.11 72.00
1814 133.5100 4343.00 4393.73 71.00
1815 133.5600 4052.00 4266.91 69.00
1816 133.6100 3962.00 4119.46 68.00
1817 133.6600 3811.00 3961.90 67.00
1818 133.7100 3772.00 3804.88 67.00
1819 133.7600 3498.00 3657.77 64.00
1820 133.8100 3524.00 3528.10 65.00
1821 133.8600 3509.00 3420.54 65.00
1822 133.9100 3456.00 3337.18 64.00
1823 133.9600 3408.00 3277.57 64.00
1824 134.0100 3314.00 3239.38 63.00
1825 134.0600 3399.00 3219.06 64.00
1826 134.1100 3412.00 3212.45 64.00
1827 134.1600 3349.00 3215.40 64.00
1828 134.2100 3374.00 3224.19 64.00
1829 134.2600 3355.00 3235.76 64.00
1830 134.3100 3344.00 3247.92 64.00
1831 134.3600 3289.00 3259.20 64.00
1832 134.4100 3318.00 3268.77 64.00
1833 134.4600 3367.00 3276.51 65.00
1834 134.5100 3369.00 3282.43 65.00
1835 134.5600 3377.00 3286.82 65.00
1836 134.6100 3400.00 3290.01 66.00
1837 134.6600 3290.00 3292.35 65.00
1838 134.7100 3274.00 3294.15 65.00
1839 134.7600 3241.00 3295.62 64.00
1840 134.8100 3279.00 3296.92 65.00
1841 134.8600 3274.00 3298.15 65.00
1842 134.9100 3351.00 3299.37 66.00
1843 134.9600 3319.00 3300.61 66.00
1844 135.0100 3325.00 3301.85 66.00
1845 135.0600 3393.00 3303.12 67.00
1846 135.1100 3410.00 3304.40 67.00
1847 135.1600 3213.00 3305.69 65.00
1848 135.2100 3283.00 3306.98 66.00
1849 135.2600 3227.00 3307.13 65.00
1850 135.3100 3338.00 3306.52 67.00
1851 135.3600 3310.00 3305.91 67.00
1852 135.4100 3245.00 3305.32 66.00
1853 135.4600 3430.00 3304.74 68.00
1854 135.5100 3402.00 3304.20 68.00
1855 135.5600 3466.00 3303.69 69.00
1856 135.6100 3381.00 3303.25 68.00
1857 135.6600 3290.00 3302.88 67.00
1858 135.7100 3338.00 3302.61 68.00
1859 141.5100 3329.00 3255.29 85.00
1860 141.5600 3352.00 3257.05 86.00
1861 141.6100 3247.00 3258.83 85.00
1862 141.6600 3288.00 3260.64 85.00
1863 141.7100 3371.00 3262.47 87.00
1864 141.7600 3190.00 3264.31 85.00
1865 141.8100 3351.00 3266.16 87.00
1866 141.8600 3277.00 3268.01 86.00
1867 141.9100 3248.00 3269.85 86.00
1868 141.9600 3320.00 3271.67 87.00
1869 142.0100 3277.00 3273.47 87.00
1870 142.0600 3202.00 3275.22 86.00
1871 142.1100 3349.00 3276.93 88.00
1872 142.1600 3281.00 3278.59 87.00
1873 142.2100 3257.00 3280.19 87.00
1874 142.2600 3168.00 3281.75 86.00
1875 142.3100 3265.00 3283.26 87.00
1876 142.3600 3250.00 3284.75 87.00
1877 142.4100 3241.00 3286.22 88.00
1878 142.4600 3247.00 3287.70 88.00
1879 142.5100 3267.00 3289.22 88.00
1880 142.5600 3309.00 3290.83 89.00
1881 142.6100 3247.00 3292.55 88.00
1882 142.6600 3222.00 3294.45 88.00
1883 142.7100 3346.00 3296.57 90.00
1884 142.7600 3301.00 3298.99 90.00
1885 142.8100 3164.00 3301.77 88.00
1886 142.8600 3233.00 3305.01 89.00
1887 142.9100 3305.00 3308.80 90.00
1888 142.9600 3433.00 3313.26 92.00
1889 143.0100 3419.00 3318.53 92.00
1890 143.0600 3225.00 3324.76 90.00
1891 143.1100 3247.00 3332.10 90.00
1892 143.1600 3303.00 3340.72 91.00
1893 143.2100 3424.00 3350.80 93.00
1894 143.2600 3401.00 3362.50 93.00
1895 143.3100 3336.00 3375.96 92.00
1896 143.3600 3364.00 3391.29 93.00
1897 143.4100 3294.00 3408.52 92.00
1898 143.4600 3465.00 3427.66 95.00
1899 143.5100 3423.00 3448.57 94.00
1900 143.5600 3409.00 3471.05 94.00
1901 143.6100 3537.00 3494.78 96.00
1902 143.6600 3504.00 3519.28 96.00
1903 143.7100 3564.00 3544.00 97.00
1904 143.7600 3636.00 3568.27 98.00
1905 143.8100 3733.00 3591.32 100.00
1906 143.8600 3581.00 3612.35 98.00
1907 143.9100 3700.00 3630.53 100.00
1908 143.9600 3680.00 3645.07 100.00
1909 144.0100 3705.00 3655.26 100.00
1910 144.0600 3668.00 3660.52 100.00
1911 144.1100 3612.00 3660.46 99.00
1912 144.1600 3675.00 3654.90 100.00
1913 144.2100 3633.00 3643.93 100.00
1914 144.2600 3532.00 3627.89 99.00
1915 144.3100 3569.00 3607.38 100.00
1916 144.3600 3525.00 3583.28 99.00
1917 144.4100 3438.00 3556.65 98.00
1918 144.4600 3457.00 3528.72 99.00
1919 144.5100 3443.00 3500.74 99.00
1920 144.5600 3316.00 3473.97 97.00
1921 144.6100 3527.00 3449.59 100.00
1922 144.6600 3431.00 3428.60 99.00
1923 144.7100 3315.00 3411.82 98.00
1924 144.7600 3326.00 3399.81 98.00
1925 144.8100 3428.00 3392.89 100.00
1926 144.8600 3458.00 3391.14 100.00
1927 144.9100 3423.00 3394.43 100.00
1928 144.9600 3380.00 3402.40 100.00
1929 145.0100 3392.00 3414.54 100.00
1930 145.0600 3378.00 3430.21 100.00
1931 145.1100 3400.00 3448.66 101.00
1932 145.1600 3362.00 3469.05 100.00
1933 145.2100 3415.00 3490.53 101.00
1934 145.2600 3478.00 3512.24 102.00
1935 145.3100 3612.00 3533.32 105.00
1936 145.3600 3533.00 3552.97 104.00
1937 145.4100 3429.00 3570.45 102.00
1938 145.4600 3518.00 3585.09 104.00
1939 145.5100 3633.00 3596.37 106.00
1940 145.5600 3665.00 3603.84 107.00
1941 145.6100 3496.00 3607.23 104.00
1942 145.6600 3585.00 3606.41 106.00
1943 145.7100 3501.00 3601.41 105.00
1944 145.7600 3610.00 3592.41 107.00
1945 145.8100 3576.00 3579.79 106.00
1946 145.8600 3677.00 3564.04 108.00
1947 145.9100 3493.00 3545.81 106.00
1948 145.9600 3409.00 3525.81 105.00
1949 146.0100 3310.00 3504.82 103.00
1950 146.0600 3416.00 3483.64 105.00
1951 146.1100 3535.00 3463.01 107.00
1952 146.1600 3410.00 3443.61 106.00
1953 146.2100 3410.00 3426.00 106.00
1954 146.2600 3325.00 3410.62 105.00
1955 146.3100 3548.00 3397.76 108.00
1956 146.3600 3467.00 3387.59 107.00
1957 146.4100 3477.00 3380.11 108.00
1958 146.4600 3384.00 3375.26 107.00
1959 146.5100 3485.00 3372.83 108.00
1960 146.5600 3546.00 3372.58 110.00
1961 146.6100 3498.00 3374.19 109.00
1962 146.6600 3508.00 3377.34 110.00
1963 146.7100 3489.00 3381.68 110.00
1964 146.7600 3400.00 3386.90 108.00
1965 146.8100 3396.00 3391.25 109.00
1966 146.8600 3381.00 3395.91 109.00
1967 146.9100 3396.00 3400.66 109.00
1968 146.9600 3339.00 3405.31 108.00
1969 147.0100 3500.00 3409.72 111.00
1970 147.0600 3551.00 3413.79 112.00
1971 147.1100 3390.00 3417.44 110.00
1972 147.1600 3320.00 3420.64 109.00
1973 147.2100 3248.00 3423.36 108.00
1974 147.2600 3447.00 3425.60 112.00
1975 147.3100 3447.00 3427.37 112.00
1976 147.3600 3478.00 3428.68 113.00
1977 147.4100 3541.00 3429.56 114.00
1978 147.4600 3486.00 3430.04 113.00
1979 147.5100 3469.00 3430.15 113.00
1980 147.5600 3563.00 3429.92 115.00
1981 147.6100 3483.00 3429.40 114.00
1982 147.6600 3495.00 3428.62 114.00
1983 147.7100 3459.00 3427.65 114.00
1984 147.7600 3527.00 3426.52 116.00
1985 147.8100 3542.00 3425.28 116.00
1986 147.8600 3593.00 3423.99 117.00
1987 147.9100 3646.00 3422.69 118.00
1988 147.9600 3433.00 3421.42 115.00
1989 148.0100 3524.00 3420.23 117.00
1990 148.0600 3542.00 3419.14 117.00
1991 148.1100 3361.00 3418.18 115.00
1992 148.1600 3401.00 3417.36 116.00
1993 148.2100 3401.00 3416.70 116.00
1994 148.2600 3435.00 3416.20 117.00
1995 148.3100 3476.00 3415.86 118.00
1996 148.3600 3507.00 3415.66 118.00
1997 148.4100 3563.00 3415.59 120.00
1998 148.4600 3392.00 3415.63 117.00
1999 148.5100 3540.00 3415.78 120.00
2000 148.5600 3527.00 3416.00 120.00
2001 148.6100 3443.00 3416.28 119.00
2002 148.6600 3317.00 3416.61 117.00
2003 148.7100 3378.00 3416.96 118.00
2004 148.7600 3309.00 3417.32 117.00
2005 148.8100 3511.00 3417.69 121.00
2006 148.8600 3524.00 3418.05 122.00
2007 148.9100 3447.00 3418.39 121.00
2008 148.9600 3472.00 3418.72 121.00
2009 149.0100 3345.00 3419.02 119.00
2010 149.0600 3379.00 3419.30 120.00
2011 149.1100 3481.00 3419.56 122.00
2012 149.1600 3212.00 3419.80 118.00
2013 149.2100 3275.00 3420.02 119.00
2014 149.2600 3446.00 3420.22 123.00
2015 149.3100 3410.00 3420.41 122.00
2016 149.3600 3253.00 3420.58 120.00
2017 149.4100 3297.00 3420.75 121.00
2018 149.4600 3269.00 3420.91 121.00
2019 149.5100 3291.00 3421.06 121.00
2020 149.5600 3399.00 3421.60 124.00
2021 149.6100 3414.00 3423.69 124.00
2022 149.6600 3504.00 3425.78 126.00
2023 149.7100 3396.00 3427.81 124.00
2024 149.7600 3420.00 3429.90 125.00
2025 149.8100 3329.00 3432.00 124.00
2026 149.8600 3294.00 3434.09 123.00
2027 149.9100 3205.00 3436.18 122.00
2028 149.9600 3381.00 3438.27 126.00
2029 150.0100 3388.00 3440.37 126.00
2030 150.0600 3517.00 3442.47 129.00
2031 150.1100 3617.00 3444.56 131.00
2032 150.1600 3517.00 3446.66 129.00
2033 150.2100 3380.00 3448.76 127.00
2034 150.2600 3470.00 3450.86 129.00
2035 150.3100 3444.00 3452.97 129.00
2036 150.3600 3424.00 3455.08 129.00
2037 150.4100 3474.00 3457.18 130.00
2038 150.4600 3387.00 3459.29 129.00
2039 150.5100 3330.00 3461.40 128.00
2040 150.5600 3482.00 3463.52 131.00
2041 150.6100 3531.00 3465.63 133.00
2042 150.6600 3400.00 3467.75 130.00
2043 150.7100 3456.00 3469.88 132.00
2044 150.7600 3509.00 3472.00 133.00
2045 150.8100 3532.00 3474.13 134.00
2046 150.8600 3329.00 3476.27 130.00
2047 150.9100 3320.00 3478.41 131.00
2048 150.9600 3546.00 3480.55 135.00
2049 151.0100 3502.00 3482.70 135.00
2050 151.0600 3476.00 3484.86 135.00
2051 151.1100 3475.00 3487.02 135.00
2052 151.1600 3457.00 3489.19 135.00
2053 151.2100 3526.00 3491.38 137.00
2054 151.2600 3609.00 3493.57 139.00
2055 151.3100 3557.00 3495.78 138.00
2056 151.3600 3427.00 3498.00 136.00
2057 151.4100 3631.00 3500.24 140.00
2058 151.4600 3625.00 3502.50 140.00
2059 151.5100 3634.00 3504.79 141.00
2060 151.5600 3592.00 3507.10 140.00
2061 151.6100 3514.00 3509.45 139.00
2062 151.6600 3446.00 3511.85 138.00
2063 151.7100 3499.00 3514.28 140.00
2064 151.7600 3382.00 3516.71 138.00
loop_
_pd_proc_info_excluded_regions
'from 0.95 to 10.0: inclined inset'
'from 36 to 42.4: container and side-phase reflection'
'from 42.8 to 43.7: side-phase reflection'
'from 54.4 to 57.4: container reflection'
'from 67.4 to 72.5: container reflection'
'from 74.5 to 76.4: side-phase reflection'
'from 80.8 to 83.8: container reflection'
'from 92.5 to 96.6: container reflection'
'from 107.1 to 111.0: container reflection'
'from 120 to 124.0: container reflection'
'from 135.7 to 141.4: container reflection'
'from 151.75 to 152.05: tailing'
loop_
_refln_index_h
_refln_index_k
_refln_index_l
_refln_F_squared_calc
_refln_F_squared_meas
_refln_include_status
_refln_d_spacing
0 0 3 12.47 11.27 o 6.186270
0 0 6 886.12 890.16 o 3.093135
1 0 1 34.27 34.28 o 3.009248
1 -1 2 902.88 892.90 o 2.897160
1 0 4 4.05 5.10 o 2.548405
0 0 9 96.88 97.69 o 2.062090
1 0 7 3.65 2.51 < 2.000840
1 -1 8 2.30 0.31 < 1.846350
2 -1 0 8.33 4.64 < 1.760690
2 -1 3 14.74 15.18 o 1.693438
1 0 10 570.84 560.36 o 1.585383
0 0 12 0.53 0.60 o 1.546568
2 -1 6 595.15 603.79 o 1.530157
2 -2 1 32.72 34.36 o 1.519682
2 0 2 599.52 606.23 o 1.504624
1 -1 11 0.34 0.99 < 1.476296
2 -2 4 7.75 5.89 < 1.448580
2 0 5 56.46 63.01 o 1.410429
1 0 13 103.77 96.91 o 1.292944
0 0 15 0.00 0.00 < 1.237254
1 -1 14 367.13 365.11 o 1.215737
3 -1 1 28.70 32.12 o 1.150425
3 -2 2 410.73 408.21 o 1.143852
2 0 11 0.76 0.48 < 1.131256
3 -1 4 11.32 12.09 o 1.118639
3 -2 5 43.24 39.18 o 1.100787
1 0 16 0.04 0.06 < 1.084152
3 -2 8 5.81 6.30 o 1.032248
0 0 18 226.42 246.80 o 1.031045
1 -1 17 95.53 94.73 o 1.027822
3 0 0 13.34 9.29 < 1.016535
2 -1 15 0.01 0.00 < 1.012308
3 -3 3 11.19 11.97 o 1.003083
3 0 3 12.88 13.79 o 1.003083
2 0 14 251.85 252.91 o 1.000420
3 -1 10 267.66 266.94 o 0.979162
3 -3 6 286.52 280.80 o 0.965720
3 0 6 271.90 266.46 o 0.965720
1 0 19 0.08 0.09 < 0.930228
2 -2 16 0.07 0.28 < 0.923175
3 -3 9 42.64 40.52 o 0.911768
3 0 9 50.04 47.55 o 0.911768
3 -1 13 59.15 57.98 o 0.896817
4 -2 3 9.57 9.68 o 0.871564
3 -2 14 183.61 177.55 o 0.869816
3 -3 12 1.96 1.60 o 0.849469
3 0 12 3.83 3.13 o 0.849469
4 -2 6 194.15 186.05 o 0.846719
4 -3 1 17.42 16.85 o 0.844931
4 -1 2 194.69 191.92 o 0.842316
3 -1 16 0.57 0.65 < 0.817604
1 0 22 99.01 91.39 o 0.813049
4 -2 9 34.88 25.23 o 0.809648
4 -3 7 2.27 1.89 < 0.805797
#BEGIN Loops that were not found in dictionaries:
loop_
_jana_atom_site_adp_c_label
_jana_atom_site_adp_c_type_symbol
_jana_atom_site_adp_c_111
_jana_atom_site_adp_c_112
_jana_atom_site_adp_c_113
_jana_atom_site_adp_c_122
_jana_atom_site_adp_c_123
_jana_atom_site_adp_c_133
_jana_atom_site_adp_c_222
_jana_atom_site_adp_c_223
_jana_atom_site_adp_c_233
_jana_atom_site_adp_c_333
Li1 Li 0 0 0 0 0 0 0 0 0 0
loop_
_jana_atom_site_adp_d_label
_jana_atom_site_adp_d_type_symbol
_jana_atom_site_adp_d_1111
_jana_atom_site_adp_d_1112
_jana_atom_site_adp_d_1113
_jana_atom_site_adp_d_1122
_jana_atom_site_adp_d_1123
_jana_atom_site_adp_d_1133
_jana_atom_site_adp_d_1222
_jana_atom_site_adp_d_1223
_jana_atom_site_adp_d_1233
_jana_atom_site_adp_d_1333
_jana_atom_site_adp_d_2222
_jana_atom_site_adp_d_2223
_jana_atom_site_adp_d_2233
_jana_atom_site_adp_d_2333
_jana_atom_site_adp_d_3333
Li1 Li 0 0 -0.05(2) 0 -0.024(11) 0.011(4) 0 0.024(11) 0.0054(18) 0 0 0.05(2)
0.011(4) 0 0
#END Loops that were not found in dictionaries
