#------------------------------------------------------------------------------
#$Date: 2015-07-06 22:54:31 +0300 (Mon, 06 Jul 2015) $
#$Revision: 140349 $
#$URL: svn://www.crystallography.net/cod/cif/1/52/08/1520804.cif $
#------------------------------------------------------------------------------
#
# This file is available in the Crystallography Open Database (COD),
# http://www.crystallography.net/
#
# All data on this site have been placed in the public domain by the
# contributors.
#
data_1520804
loop_
_publ_author_name
'Bachmann, S.'
'Buhl, J.C.'
_publ_section_title
;
 Crystallisation, characterisation and structure of nitrite
 aluminogermanate sodalite Na8 (Al Ge O4)6 (N O2)2
;
_journal_name_full               'Microporous and Mesoporous Materials'
_journal_page_first              35
_journal_page_last               47
_journal_volume                  28
_journal_year                    1999
_chemical_formula_sum            'Al6 Ge6 N2 Na8 O28'
_chemical_name_systematic        'Na8 (Al Ge O4)6 (N O2)2'
_space_group_IT_number           218
_symmetry_space_group_name_Hall  'P -4n 2 3'
_symmetry_space_group_name_H-M   'P -4 3 n'
_cell_angle_alpha                90
_cell_angle_beta                 90
_cell_angle_gamma                90
_cell_formula_units_Z            1
_cell_length_a                   9.08571
_cell_length_b                   9.08571
_cell_length_c                   9.08571
_cell_volume                     750.027
_citation_journal_id_ASTM        MIMMFJ
_cod_data_source_file            Bachmann_MIMMFJ_1999_466.cif
_cod_data_source_block           Al6Ge6N2Na8O28
_cod_original_cell_volume        750.0264
_cod_database_code               1520804
loop_
_symmetry_equiv_pos_as_xyz
x,y,z
y+1/2,-x+1/2,-z+1/2
-x,-y,z
-y+1/2,x+1/2,-z+1/2
x,-y,-z
-y+1/2,-x+1/2,z+1/2
-x,y,-z
y+1/2,x+1/2,z+1/2
z,x,y
x+1/2,-z+1/2,-y+1/2
-z,-x,y
-x+1/2,z+1/2,-y+1/2
z,-x,-y
-x+1/2,-z+1/2,y+1/2
-z,x,-y
x+1/2,z+1/2,y+1/2
y,z,x
y,-z,-x
-z+1/2,-y+1/2,x+1/2
-y,z,-x
z+1/2,y+1/2,x+1/2
-y,-z,x
-z+1/2,y+1/2,-x+1/2
z+1/2,-y+1/2,-x+1/2
loop_
_atom_site_label
_atom_site_type_symbol
_atom_site_fract_x
_atom_site_fract_y
_atom_site_fract_z
_atom_site_occupancy
_atom_site_U_iso_or_equiv
Ge1 Ge+4 0.25 0.5 0 1 0.0
O1 O-2 0.1451 0.1446 0.4319 1 0.0
Na1 Na+1 0.1803 0.1803 0.1803 0.991 0.0
O2 O-2 0.398 0.441 0.474 0.1675 0.0
Al1 Al+3 0.25 0 0.5 1 0.0
N1 N+3 0 0 0 1 0.0
