#------------------------------------------------------------------------------
#$Date: 2015-07-06 23:47:33 +0300 (Mon, 06 Jul 2015) $
#$Revision: 140449 $
#$URL: svn://www.crystallography.net/cod/cif/1/52/08/1520886.cif $
#------------------------------------------------------------------------------
#
# This file is available in the Crystallography Open Database (COD),
# http://www.crystallography.net/
#
# All data on this site have been placed in the public domain by the
# contributors.
#
data_1520886
loop_
_publ_author_name
'Boullay, P.'
'Hervieu, M.'
'Nguyen, N.'
'Raveau, B.'
_publ_section_title
;
 Synthesis, average structure, and magnetic properties of oxygen deficient
 perovskites (Ba2-3x Bi3x-1) (Fe2x Bi1-2x) O2+3x/2
;
_journal_name_full               'Journal of Solid State Chemistry'
_journal_page_first              45
_journal_page_last               57
_journal_volume                  147
_journal_year                    1999
_chemical_formula_sum            'Ba0.63 Bi0.43 Fe0.94 O2.7'
_chemical_name_systematic        '(Ba0.63 Bi0.37) (Fe0.94 Bi0.06) O2.7'
_space_group_IT_number           123
_symmetry_space_group_name_Hall  '-P 4 2'
_symmetry_space_group_name_H-M   'P 4/m m m'
_cell_angle_alpha                90
_cell_angle_beta                 90
_cell_angle_gamma                90
_cell_formula_units_Z            1
_cell_length_a                   4.0142
_cell_length_b                   4.0142
_cell_length_c                   4.0845
_cell_volume                     65.817
_citation_journal_id_ASTM        JSSCBI
_cod_data_source_file            Boullay_JSSCBI_1999_328.cif
_cod_data_source_block           Ba0.63Bi0.43Fe0.94O2.7
_cod_original_cell_volume        65.81683
_cod_database_code               1520886
loop_
_symmetry_equiv_pos_as_xyz
x,y,z
-y,x,z
-x,-y,z
y,-x,z
x,-y,-z
y,x,-z
-x,y,-z
-y,-x,-z
-x,-y,-z
y,-x,-z
x,y,-z
-y,x,-z
-x,y,z
-y,-x,z
x,-y,z
y,x,z
loop_
_atom_site_label
_atom_site_type_symbol
_atom_site_fract_x
_atom_site_fract_y
_atom_site_fract_z
_atom_site_occupancy
_atom_site_U_iso_or_equiv
Fe1 Fe+3 0.5 0.5 0.5 0.94 0.0
Bi2 Bi+3 0.5 0.5 0.5 0.06 0.0
O2 O-2 0.5 0 0.5 0.9 0.0
O1 O-2 0.5 0.5 0 0.9 0.0
Bi1 Bi+3 0 0 0 0.37 0.0
Ba1 Ba+2 0 0 0 0.63 0.0
