#------------------------------------------------------------------------------
#$Date: 2016-02-13 21:28:24 +0200 (Sat, 13 Feb 2016) $
#$Revision: 176429 $
#$URL: svn://www.crystallography.net/cod/cif/1/52/08/1520885.cif $
#------------------------------------------------------------------------------
#
# This file is available in the Crystallography Open Database (COD),
# http://www.crystallography.net/
#
# All data on this site have been placed in the public domain by the
# contributors.
#
data_1520885
loop_
_publ_author_name
'Boullay, P.'
'Hervieu, M.'
'Raveau, B.'
'Nguyen, N.'
_publ_section_title
;
 Synthesis, average structure, and magnetic properties of oxygen deficient
 perovskites (Ba2-3x Bi3x-1) (Fe2x Bi1-2x) O2+3x/2
;
_journal_name_full               'Journal of Solid State Chemistry'
_journal_page_first              45
_journal_page_last               57
_journal_volume                  147
_journal_year                    1999
_chemical_formula_sum            'Ba Bi0.33 Fe0.67 O2.5'
_chemical_name_systematic        'Ba (Fe0.67 Bi0.33) O2.5'
_space_group_IT_number           221
_symmetry_space_group_name_Hall  '-P 4 2 3'
_symmetry_space_group_name_H-M   'P m -3 m'
_cell_angle_alpha                90
_cell_angle_beta                 90
_cell_angle_gamma                90
_cell_formula_units_Z            1
_cell_length_a                   4.0937
_cell_length_b                   4.0937
_cell_length_c                   4.0937
_cell_volume                     68.604
_citation_journal_id_ASTM        JSSCBI
_cod_data_source_file            Boullay_JSSCBI_1999_324.cif
_cod_data_source_block           Ba1Bi0.33Fe0.67O2.5
_cod_original_cell_volume        68.60378
_cod_original_formula_sum        'Ba1 Bi0.33 Fe0.67 O2.5'
_cod_database_code               1520885
loop_
_symmetry_equiv_pos_as_xyz
x,y,z
-y,x,z
-x,-y,z
y,-x,z
x,-y,-z
y,x,-z
-x,y,-z
-y,-x,-z
z,x,y
-x,z,y
-z,-x,y
x,-z,y
z,-x,-y
x,z,-y
-z,x,-y
-x,-z,-y
y,z,x
y,-z,-x
z,y,-x
-y,z,-x
-z,-y,-x
-y,-z,x
z,-y,x
-z,y,x
-x,-y,-z
y,-x,-z
x,y,-z
-y,x,-z
-x,y,z
-y,-x,z
x,-y,z
y,x,z
-z,-x,-y
x,-z,-y
z,x,-y
-x,z,-y
-z,x,y
-x,-z,y
z,-x,y
x,z,y
-y,-z,-x
-y,z,x
-z,-y,x
y,-z,x
z,y,x
y,z,-x
-z,y,-x
z,-y,-x
loop_
_atom_site_label
_atom_site_type_symbol
_atom_site_fract_x
_atom_site_fract_y
_atom_site_fract_z
_atom_site_occupancy
_atom_site_U_iso_or_equiv
Bi1 Bi+3 0.5 0.5 0.5 0.33 0.0
Ba1 Ba+2 0 0 0 1 0.0
O1 O-2 0.5 0 0.5 0.833 0.0
Fe1 Fe+3 0.5 0.5 0.5 0.67 0.0
