#------------------------------------------------------------------------------
#$Date: 2015-07-07 00:23:34 +0300 (Tue, 07 Jul 2015) $
#$Revision: 140515 $
#$URL: svn://www.crystallography.net/cod/cif/1/52/09/1520933.cif $
#------------------------------------------------------------------------------
#
# This file is available in the Crystallography Open Database (COD),
# http://www.crystallography.net/
#
# All data on this site have been placed in the public domain by the
# contributors.
#
data_1520933
loop_
_publ_author_name
'Chakoumakos, B.C.'
'Sales, B.C.'
'Mandrus, D.'
'Nolas, G.S.'
_publ_section_title
;
 Structural disorder and thermal conductivity of the semiconducting
 clathrate Sr8 Ga16 Ge30
;
_journal_name_full               'Journal of Alloys Compd.'
_journal_page_first              80
_journal_page_last               86
_journal_volume                  296
_journal_year                    2000
_chemical_formula_sum            'Ga16 Ge30 Sr8'
_chemical_name_systematic        'Sr8 Ga16 Ge30'
_space_group_IT_number           223
_symmetry_space_group_name_Hall  '-P 4n 2 3'
_symmetry_space_group_name_H-M   'P m -3 n'
_cell_angle_alpha                90
_cell_angle_beta                 90
_cell_angle_gamma                90
_cell_formula_units_Z            1
_cell_length_a                   10.69994
_cell_length_b                   10.69994
_cell_length_c                   10.69994
_cell_volume                     1225.022
_citation_journal_id_ASTM        JALCEU
_cod_data_source_file            Chakoumakos_JALCEU_2000_1191.cif
_cod_data_source_block           Ga16Ge30Sr8
_cod_database_code               1520933
loop_
_symmetry_equiv_pos_as_xyz
x,y,z
-y+1/2,x+1/2,z+1/2
-x,-y,z
y+1/2,-x+1/2,z+1/2
x,-y,-z
y+1/2,x+1/2,-z+1/2
-x,y,-z
-y+1/2,-x+1/2,-z+1/2
z,x,y
-x+1/2,z+1/2,y+1/2
-z,-x,y
x+1/2,-z+1/2,y+1/2
z,-x,-y
x+1/2,z+1/2,-y+1/2
-z,x,-y
-x+1/2,-z+1/2,-y+1/2
y,z,x
y,-z,-x
z+1/2,y+1/2,-x+1/2
-y,z,-x
-z+1/2,-y+1/2,-x+1/2
-y,-z,x
z+1/2,-y+1/2,x+1/2
-z+1/2,y+1/2,x+1/2
-x,-y,-z
y-1/2,-x-1/2,-z-1/2
x,y,-z
-y-1/2,x-1/2,-z-1/2
-x,y,z
-y-1/2,-x-1/2,z-1/2
x,-y,z
y-1/2,x-1/2,z-1/2
-z,-x,-y
x-1/2,-z-1/2,-y-1/2
z,x,-y
-x-1/2,z-1/2,-y-1/2
-z,x,y
-x-1/2,-z-1/2,y-1/2
z,-x,y
x-1/2,z-1/2,y-1/2
-y,-z,-x
-y,z,x
-z-1/2,-y-1/2,x-1/2
y,-z,x
z-1/2,y-1/2,x-1/2
y,z,-x
-z-1/2,y-1/2,-x-1/2
z-1/2,-y-1/2,-x-1/2
loop_
_atom_site_label
_atom_site_type_symbol
_atom_site_fract_x
_atom_site_fract_y
_atom_site_fract_z
_atom_site_occupancy
_atom_site_U_iso_or_equiv
Ge3 Ge 0 0.3091 0.1167 0.6521 0.0
Ga2 Ga 0.18409 0.18409 0.18409 0.3478 0.0
Sr1 Sr 0 0 0 1 0.0
Ga1 Ga 0.25 0 0.5 0.3478 0.0
Sr2 Sr 0.25 0.4759 0.9759 0.25 0.0
Ga3 Ga 0 0.3091 0.1167 0.3478 0.0
Ge2 Ge 0.18409 0.18409 0.18409 0.6521 0.0
Ge1 Ge 0.25 0 0.5 0.6521 0.0
