#------------------------------------------------------------------------------
#$Date: 2018-09-27 07:13:35 +0300 (Thu, 27 Sep 2018) $
#$Revision: 211196 $
#$URL: file:///home/coder/svn-repositories/cod/cif/1/52/15/1521570.cif $
#------------------------------------------------------------------------------
#
# This file is available in the Crystallography Open Database (COD),
# http://www.crystallography.net/
#
# All data on this site have been placed in the public domain by the
# contributors.
#
data_1521570
loop_
_publ_author_name
'Morozkin, A.V.'
'Sviridov, I.A.'
_publ_section_title
;
 New ternary compounds in the Lu - (Ru, Rh) - (Si, Ge) systems
;
_journal_name_full               'Journal of Alloys Compd.'
_journal_page_first              4
_journal_page_last               5
_journal_volume                  296
_journal_year                    2000
_chemical_formula_sum            'Lu2 Ru3 Si5'
_space_group_IT_number           128
_symmetry_space_group_name_Hall  '-P 4 2n'
_symmetry_space_group_name_H-M   'P 4/m n c'
_cell_angle_alpha                90
_cell_angle_beta                 90
_cell_angle_gamma                90
_cell_formula_units_Z            4
_cell_length_a                   10.611
_cell_length_b                   10.611
_cell_length_c                   5.573
_cell_volume                     627.483
_citation_journal_id_ASTM        JALCEU
_cod_data_source_file            Morozkin_JALCEU_2000_1206.cif
_cod_data_source_block           Lu2Ru3Si5
_cod_original_cell_volume        627.4826
_cod_database_code               1521570
loop_
_symmetry_equiv_pos_as_xyz
x,y,z
-y,x,z
-x,-y,z
y,-x,z
x+1/2,-y+1/2,-z+1/2
y+1/2,x+1/2,-z+1/2
-x+1/2,y+1/2,-z+1/2
-y+1/2,-x+1/2,-z+1/2
-x,-y,-z
y,-x,-z
x,y,-z
-y,x,-z
-x-1/2,y-1/2,z-1/2
-y-1/2,-x-1/2,z-1/2
x-1/2,-y-1/2,z-1/2
y-1/2,x-1/2,z-1/2
loop_
_atom_site_label
_atom_site_type_symbol
_atom_site_fract_x
_atom_site_fract_y
_atom_site_fract_z
_atom_site_occupancy
_atom_site_U_iso_or_equiv
Ru2 Ru 0.371 0.356 0 1 0.0
Si1 Si 0 0 0.242 1 0.0
Si2 Si 0.185 0.685 0.25 1 0.0
Ru1 Ru 0 0.5 0.25 1 0.0
Lu1 Lu 0.075 0.236 0 1 0.0
Si3 Si 0.191 0.459 0 1 0.0
