#------------------------------------------------------------------------------
#$Date: 2016-02-13 21:28:24 +0200 (Sat, 13 Feb 2016) $
#$Revision: 176429 $
#$URL: svn://www.crystallography.net/cod/cif/1/52/16/1521691.cif $
#------------------------------------------------------------------------------
#
# This file is available in the Crystallography Open Database (COD),
# http://www.crystallography.net/
#
# All data on this site have been placed in the public domain by the
# contributors.
#
data_1521691
loop_
_publ_author_name
'Onimaru, T.'
'Onodera, H.'
'Yamauchi, H.'
'Yamaguchi, Y.'
'Ohoyama, K.'
_publ_section_title
;
 Neutron powder diffraction on Ce(11) B2 C2 and Nd(11) B2 C2: a new model
 for the tetragonal crystal structure
;
_journal_name_full               'Journal of the Physical Society of Japan'
_journal_page_first              2287
_journal_page_last               2291
_journal_volume                  68
_journal_year                    1999
_chemical_formula_sum            'C2 B2 Ce'
_chemical_name_systematic        'Ce B2 C2'
_space_group_IT_number           127
_symmetry_space_group_name_Hall  '-P 4 2ab'
_symmetry_space_group_name_H-M   'P 4/m b m'
_cell_angle_alpha                90
_cell_angle_beta                 90
_cell_angle_gamma                90
_cell_formula_units_Z            2
_cell_length_a                   5.3958
_cell_length_b                   5.3958
_cell_length_c                   3.8442
_cell_volume                     111.923
_citation_journal_id_ASTM        JUPSAU
_cod_data_source_file            Onimaru_JUPSAU_1999_422.cif
_cod_data_source_block           C2B2Ce1
_cod_original_cell_volume        111.9226
_cod_original_formula_sum        'C2 B2 Ce1'
_cod_database_code               1521691
loop_
_symmetry_equiv_pos_as_xyz
x,y,z
-y,x,z
-x,-y,z
y,-x,z
x+1/2,-y+1/2,-z
y+1/2,x+1/2,-z
-x+1/2,y+1/2,-z
-y+1/2,-x+1/2,-z
-x,-y,-z
y,-x,-z
x,y,-z
-y,x,-z
-x-1/2,y-1/2,z
-y-1/2,-x-1/2,z
x-1/2,-y-1/2,z
y-1/2,x-1/2,z
loop_
_atom_site_label
_atom_site_type_symbol
_atom_site_fract_x
_atom_site_fract_y
_atom_site_fract_z
_atom_site_occupancy
_atom_site_U_iso_or_equiv
Ce1 Ce 0 0 0 1 0.0
C1 C 0.16 0.66 0.5 1 0.0
B1 B 0.361 0.861 0.5 1 0.0
