#------------------------------------------------------------------------------
#$Date: 2016-02-13 21:28:24 +0200 (Sat, 13 Feb 2016) $
#$Revision: 176429 $
#$URL: svn://www.crystallography.net/cod/cif/1/52/13/1521397.cif $
#------------------------------------------------------------------------------
#
# This file is available in the Crystallography Open Database (COD),
# http://www.crystallography.net/
#
# All data on this site have been placed in the public domain by the
# contributors.
#
data_1521397
loop_
_publ_author_name
'Kikkawa, S.'
'Fujii, Y.'
'Meerschaut, A.'
'Miyamoto, Y.'
'Lafond, A.'
'Rouxel, J.'
_publ_section_title
;
 High pressure synthesis of Ln Cr S3 (Ln = La, Ce, Nd, Sm) and La Cr1-x
 Fex S3 (x < 0.2) with N H4 Cd Cl3 structure type
;
_journal_name_full               'Materials Research Bulletin'
_journal_page_first              279
_journal_page_last               288
_journal_volume                  34
_journal_year                    1999
_chemical_formula_sum            'Cr Nd S3'
_chemical_name_systematic        'Nd (Cr S3)'
_space_group_IT_number           62
_symmetry_space_group_name_Hall  '-P 2ac 2n'
_symmetry_space_group_name_H-M   'P n m a'
_cell_angle_alpha                90
_cell_angle_beta                 90
_cell_angle_gamma                90
_cell_formula_units_Z            4
_cell_length_a                   7.69
_cell_length_b                   3.77
_cell_length_c                   13.06
_cell_volume                     378.626
_citation_journal_id_ASTM        MRBUAC
_cod_data_source_file            Kikkawa_MRBUAC_1999_516.cif
_cod_data_source_block           Cr1Nd1S3
_cod_original_cell_volume        378.6264
_cod_original_formula_sum        'Cr1 Nd1 S3'
_cod_database_code               1521397
loop_
_symmetry_equiv_pos_as_xyz
x,y,z
-x+1/2,-y,z+1/2
x+1/2,-y+1/2,-z+1/2
-x,y+1/2,-z
-x,-y,-z
x-1/2,y,-z-1/2
-x-1/2,y-1/2,z-1/2
x,-y-1/2,z
loop_
_atom_site_label
_atom_site_type_symbol
_atom_site_fract_x
_atom_site_fract_y
_atom_site_fract_z
_atom_site_occupancy
_atom_site_U_iso_or_equiv
Cr1 Cr+3 0.353 0.25 0.949 1 0.0
Nd1 Nd+3 0.089 0.25 0.172 1 0.0
S2 S-2 0.343 0.25 0.515 1 0.0
S3 S-2 0.484 0.25 0.115 1 0.0
S1 S-2 0.194 0.25 0.789 1 0.0
