#------------------------------------------------------------------------------
#$Date: 2016-02-13 21:28:24 +0200 (Sat, 13 Feb 2016) $
#$Revision: 176429 $
#$URL: svn://www.crystallography.net/cod/cif/1/52/15/1521564.cif $
#------------------------------------------------------------------------------
#
# This file is available in the Crystallography Open Database (COD),
# http://www.crystallography.net/
#
# All data on this site have been placed in the public domain by the
# contributors.
#
data_1521564
loop_
_publ_author_name
'Morozkin, A.V.'
'Sviridov, I.A.'
_publ_section_title
;
 New ternary (Ce Sc Si)-type R Ti0.85 Mo0.15 Ge compounds (R = Gd-Tm, Lu)
;
_journal_name_full               'Journal of Alloys Compd.'
_journal_page_first              6
_journal_page_last               7
_journal_volume                  296
_journal_year                    2000
_chemical_formula_sum            'Er Ge Mo0.15 Ti0.85'
_chemical_name_systematic        'Er (Ti0.85 Mo0.15) Ge'
_space_group_IT_number           139
_symmetry_space_group_name_Hall  '-I 4 2'
_symmetry_space_group_name_H-M   'I 4/m m m'
_cell_angle_alpha                90
_cell_angle_beta                 90
_cell_angle_gamma                90
_cell_formula_units_Z            4
_cell_length_a                   3.993
_cell_length_b                   3.993
_cell_length_c                   15.107
_cell_volume                     240.867
_citation_journal_id_ASTM        JALCEU
_cod_data_source_file            Morozkin_JALCEU_2000_1200.cif
_cod_data_source_block           Er1Ge1Mo0.15Ti0.85
_cod_original_cell_volume        240.8668
_cod_original_formula_sum        'Er1 Ge1 Mo0.15 Ti0.85'
_cod_database_code               1521564
loop_
_symmetry_equiv_pos_as_xyz
x,y,z
-y,x,z
-x,-y,z
y,-x,z
x,-y,-z
y,x,-z
-x,y,-z
-y,-x,-z
-x,-y,-z
y,-x,-z
x,y,-z
-y,x,-z
-x,y,z
-y,-x,z
x,-y,z
y,x,z
x+1/2,y+1/2,z+1/2
-y+1/2,x+1/2,z+1/2
-x+1/2,-y+1/2,z+1/2
y+1/2,-x+1/2,z+1/2
x+1/2,-y+1/2,-z+1/2
y+1/2,x+1/2,-z+1/2
-x+1/2,y+1/2,-z+1/2
-y+1/2,-x+1/2,-z+1/2
-x+1/2,-y+1/2,-z+1/2
y+1/2,-x+1/2,-z+1/2
x+1/2,y+1/2,-z+1/2
-y+1/2,x+1/2,-z+1/2
-x+1/2,y+1/2,z+1/2
-y+1/2,-x+1/2,z+1/2
x+1/2,-y+1/2,z+1/2
y+1/2,x+1/2,z+1/2
loop_
_atom_site_label
_atom_site_type_symbol
_atom_site_fract_x
_atom_site_fract_y
_atom_site_fract_z
_atom_site_occupancy
_atom_site_U_iso_or_equiv
Er1 Er 0 0 0.329 1 0.0
Ge1 Ge 0 0 0.139 1 0.0
Mo1 Mo 0 0.5 0 0.15 0.0
Ti1 Ti 0 0.5 0 0.85 0.0
