#------------------------------------------------------------------------------
#$Date: 2016-02-13 21:28:24 +0200 (Sat, 13 Feb 2016) $
#$Revision: 176429 $
#$URL: svn://www.crystallography.net/cod/cif/1/52/11/1521104.cif $
#------------------------------------------------------------------------------
#
# This file is available in the Crystallography Open Database (COD),
# http://www.crystallography.net/
#
# All data on this site have been placed in the public domain by the
# contributors.
#
data_1521104
loop_
_publ_author_name
'Guo, Y.-Q.'
'Liu, Y.-C.'
'Zhou, H.-P.'
'Tao, K.'
'Wappling, R.'
_publ_section_title
;
 The crystallographic and magnetoresistance of (Ca F2)doped Nd0.67 Sr0.33
 Mn O3 compounds
;
_journal_name_full               'Journal of Solid State Chemistry'
_journal_page_first              236
_journal_page_last               241
_journal_volume                  148
_journal_year                    1999
_chemical_formula_sum            'Ca0.2 F0.355 Mn Nd0.553 O2.527 Sr0.267'
_chemical_name_systematic        '(Nd0.553 Sr0.267 Ca0.20) Mn (O2.527 F0.355)'
_space_group_IT_number           62
_symmetry_space_group_name_Hall  '-P 2c 2ab'
_symmetry_space_group_name_H-M   'P b n m'
_cell_angle_alpha                90
_cell_angle_beta                 90
_cell_angle_gamma                90
_cell_formula_units_Z            4
_cell_length_a                   5.433
_cell_length_b                   5.451
_cell_length_c                   7.671
_cell_volume                     227.179
_citation_journal_id_ASTM        JSSCBI
_cod_data_source_file            Guo_JSSCBI_1999_383.cif
_cod_data_source_block           Ca0.2F0.355Mn1Nd0.553O2.527Sr0.267
_cod_original_cell_volume        227.1788
_cod_original_sg_symbol_Hall     '-P 2ac 2n (z,x,y)'
_cod_original_formula_sum        'Ca0.2 F0.355 Mn1 Nd0.553 O2.527 Sr0.267'
_cod_database_code               1521104
loop_
_symmetry_equiv_pos_as_xyz
x,y,z
x+1/2,-y+1/2,-z
-x+1/2,y+1/2,-z+1/2
-x,-y,z+1/2
-x,-y,-z
-x-1/2,y-1/2,z
x-1/2,-y-1/2,z-1/2
x,y,-z-1/2
loop_
_atom_site_label
_atom_site_type_symbol
_atom_site_fract_x
_atom_site_fract_y
_atom_site_fract_z
_atom_site_occupancy
_atom_site_U_iso_or_equiv
F1 F-1 0.2154 0.2779 0.0367 0.178 0.0
O2 O-2 0.2154 0.2779 0.0367 0.764 0.0
O1 O-2 0.5713 0.4945 0.25 1 0.0
Mn1 Mn+2 0 0 0 1 0.0
Ca1 Ca+2 0.4975 0.0302 0.25 0.2 0.0
Nd1 Nd+3 0.4975 0.0302 0.25 0.553 0.0
Sr1 Sr+2 0.4975 0.0302 0.25 0.267 0.0
