#------------------------------------------------------------------------------
#$Date: 2016-02-13 21:28:24 +0200 (Sat, 13 Feb 2016) $
#$Revision: 176429 $
#$URL: svn://www.crystallography.net/cod/cif/1/52/14/1521438.cif $
#------------------------------------------------------------------------------
#
# This file is available in the Crystallography Open Database (COD),
# http://www.crystallography.net/
#
# All data on this site have been placed in the public domain by the
# contributors.
#
data_1521438
loop_
_publ_author_name
'Kohlmann, H.'
'Yvon, K.'
_publ_section_title
;
 Revision of the low-temperature structures of rhombohedral Zr Cr2 Dx (x =
 3.8), and monoclinic Zr V2 Dx (1.1 < x < 2.3) and Hf V2 Dx (x = 1.9)
;
_journal_name_full               'Journal of Alloys Compd.'
_journal_page_first              123
_journal_page_last               126
_journal_volume                  309
_journal_year                    2000
_chemical_formula_sum            'D1.78 Hf V2'
_chemical_name_systematic        'Hf V2 D1.78'
_space_group_IT_number           15
_symmetry_space_group_name_Hall  '-C 2yc'
_symmetry_space_group_name_H-M   'C 1 2/c 1'
_cell_angle_alpha                90
_cell_angle_beta                 109.034
_cell_angle_gamma                90
_cell_formula_units_Z            8
_cell_length_a                   9.2322
_cell_length_b                   5.3622
_cell_length_c                   9.2454
_cell_volume                     432.668
_citation_journal_id_ASTM        JALCEU
_cod_data_source_file            Kohlmann_JALCEU_2000_1406.cif
_cod_data_source_block           D1.78Hf1V2
_cod_original_cell_volume        432.6684
_cod_original_formula_sum        'D1.78 Hf1 V2'
_cod_database_code               1521438
loop_
_symmetry_equiv_pos_as_xyz
x,y,z
-x,y,-z+1/2
-x,-y,-z
x,-y,z-1/2
x+1/2,y+1/2,z
-x+1/2,y+1/2,-z+1/2
-x+1/2,-y+1/2,-z
x+1/2,-y+1/2,z-1/2
loop_
_atom_site_label
_atom_site_type_symbol
_atom_site_fract_x
_atom_site_fract_y
_atom_site_fract_z
_atom_site_occupancy
_atom_site_U_iso_or_equiv
D2 D 0.255 0.247 0.125 0.32 0.0
D3 D 0.379 0.26 0.257 0.32 0.0
V2 V 0 0.25 0.25 1 0.0
D4 D 0.048 0.054 0.114 0.14 0.0
Hf1 Hf 0.438 0.2357 0.063 1 0.0
D1 D 0.0619 0.1146 0.4383 1 0.0
V1 V 0.25 0 0.25 1 0.0
V3 V 0.25 0.25 0.5 1 0.0
