#------------------------------------------------------------------------------
#$Date: 2016-02-13 21:28:24 +0200 (Sat, 13 Feb 2016) $
#$Revision: 176429 $
#$URL: svn://www.crystallography.net/cod/cif/1/52/15/1521523.cif $
#------------------------------------------------------------------------------
#
# This file is available in the Crystallography Open Database (COD),
# http://www.crystallography.net/
#
# All data on this site have been placed in the public domain by the
# contributors.
#
data_1521523
loop_
_publ_author_name
'Lisnyak, V.V.'
'Stus', N.V.'
'Belyavina, N.M.'
'Slobodyanik, N.S.'
'Markiv, V.Ya.'
_publ_section_title
;
 Crystal structure of a novel cubic pyrophosphate W P2 O7
;
_journal_name_full               'Journal of Alloys Compd.'
_journal_page_first              83
_journal_page_last               87
_journal_volume                  309
_journal_year                    2000
_chemical_formula_sum            'O7 P2 W'
_chemical_name_systematic        'W (P2 O7)'
_space_group_IT_number           205
_symmetry_space_group_name_Hall  '-P 2ac 2ab 3'
_symmetry_space_group_name_H-M   'P a -3'
_cell_angle_alpha                90
_cell_angle_beta                 90
_cell_angle_gamma                90
_cell_formula_units_Z            4
_cell_length_a                   7.9502
_cell_length_b                   7.9502
_cell_length_c                   7.9502
_cell_volume                     502.498
_citation_journal_id_ASTM        JALCEU
_cod_data_source_file            Lisnyak_JALCEU_2000_1424.cif
_cod_data_source_block           O7P2W1
_cod_original_cell_volume        502.4978
_cod_original_formula_sum        'O7 P2 W1'
_cod_database_code               1521523
loop_
_symmetry_equiv_pos_as_xyz
x,y,z
-x+1/2,-y,z+1/2
x+1/2,-y+1/2,-z
-x,y+1/2,-z+1/2
z,x,y
-z+1/2,-x,y+1/2
z+1/2,-x+1/2,-y
-z,x+1/2,-y+1/2
y,z,x
y+1/2,-z+1/2,-x
-y,z+1/2,-x+1/2
-y+1/2,-z,x+1/2
-x,-y,-z
x-1/2,y,-z-1/2
-x-1/2,y-1/2,z
x,-y-1/2,z-1/2
-z,-x,-y
z-1/2,x,-y-1/2
-z-1/2,x-1/2,y
z,-x-1/2,y-1/2
-y,-z,-x
-y-1/2,z-1/2,x
y,-z-1/2,x-1/2
y-1/2,z,-x-1/2
loop_
_atom_site_label
_atom_site_type_symbol
_atom_site_fract_x
_atom_site_fract_y
_atom_site_fract_z
_atom_site_occupancy
_atom_site_U_iso_or_equiv
O1 O-2 0.5 0.5 0.5 1 0.0
O2 O-2 0.2121 0.0858 0.9528 1 0.0
P1 P+5 0.3882 0.3882 0.3882 1 0.0
W1 W+4 0 0 0 1 0.0
