#------------------------------------------------------------------------------
#$Date: 2016-02-13 21:28:24 +0200 (Sat, 13 Feb 2016) $
#$Revision: 176429 $
#$URL: svn://www.crystallography.net/cod/cif/1/52/16/1521650.cif $
#------------------------------------------------------------------------------
#
# This file is available in the Crystallography Open Database (COD),
# http://www.crystallography.net/
#
# All data on this site have been placed in the public domain by the
# contributors.
#
data_1521650
loop_
_publ_author_name
'Nakotte, H.'
'Maple, M.B.'
'Dilley, N.R.'
'Torikachvili, M.S.'
'Majkrzak, C.F.'
'Bordallo, H.N.'
'Schultz, A.J.'
'Christianson, A.'
'Chang, S.'
'Shirane, G.'
_publ_section_title
;
 Structural and magnetic properties of the Kondo insulator U Fe4 P12
;
_journal_name_full               'Physik (Berlin)'
_journal_page_first              280
_journal_page_last               282
_journal_volume                  259
_journal_year                    1999
_chemical_formula_sum            'Fe4 P12 U'
_chemical_name_systematic        'U Fe4 P12'
_space_group_IT_number           204
_symmetry_space_group_name_Hall  '-I 2 2 3'
_symmetry_space_group_name_H-M   'I m -3'
_cell_angle_alpha                90
_cell_angle_beta                 90
_cell_angle_gamma                90
_cell_formula_units_Z            2
_cell_length_a                   7.2228
_cell_length_b                   7.2228
_cell_length_c                   7.2228
_cell_volume                     376.805
_citation_journal_id_ASTM        PHYBE3
_cod_data_source_file            Nakotte_PHYBE3_1999_577.cif
_cod_data_source_block           Fe4P12U1
_cod_original_cell_volume        376.8051
_cod_original_formula_sum        'Fe4 P12 U1'
_cod_database_code               1521650
loop_
_symmetry_equiv_pos_as_xyz
x,y,z
-x,-y,z
x,-y,-z
-x,y,-z
z,x,y
-z,-x,y
z,-x,-y
-z,x,-y
y,z,x
y,-z,-x
-y,z,-x
-y,-z,x
-x,-y,-z
x,y,-z
-x,y,z
x,-y,z
-z,-x,-y
z,x,-y
-z,x,y
z,-x,y
-y,-z,-x
-y,z,x
y,-z,x
y,z,-x
x+1/2,y+1/2,z+1/2
-x+1/2,-y+1/2,z+1/2
x+1/2,-y+1/2,-z+1/2
-x+1/2,y+1/2,-z+1/2
z+1/2,x+1/2,y+1/2
-z+1/2,-x+1/2,y+1/2
z+1/2,-x+1/2,-y+1/2
-z+1/2,x+1/2,-y+1/2
y+1/2,z+1/2,x+1/2
y+1/2,-z+1/2,-x+1/2
-y+1/2,z+1/2,-x+1/2
-y+1/2,-z+1/2,x+1/2
-x+1/2,-y+1/2,-z+1/2
x+1/2,y+1/2,-z+1/2
-x+1/2,y+1/2,z+1/2
x+1/2,-y+1/2,z+1/2
-z+1/2,-x+1/2,-y+1/2
z+1/2,x+1/2,-y+1/2
-z+1/2,x+1/2,y+1/2
z+1/2,-x+1/2,y+1/2
-y+1/2,-z+1/2,-x+1/2
-y+1/2,z+1/2,x+1/2
y+1/2,-z+1/2,x+1/2
y+1/2,z+1/2,-x+1/2
loop_
_atom_site_label
_atom_site_type_symbol
_atom_site_fract_x
_atom_site_fract_y
_atom_site_fract_z
_atom_site_occupancy
_atom_site_U_iso_or_equiv
U1 U 0 0 0 1 0.0
P1 P 0 0.1494 0.3506 1 0.0
Fe1 Fe 0.25 0.25 0.25 1 0.0
