#------------------------------------------------------------------------------
#$Date: 2016-02-13 21:28:24 +0200 (Sat, 13 Feb 2016) $
#$Revision: 176429 $
#$URL: svn://www.crystallography.net/cod/cif/1/52/10/1521098.cif $
#------------------------------------------------------------------------------
#
# This file is available in the Crystallography Open Database (COD),
# http://www.crystallography.net/
#
# All data on this site have been placed in the public domain by the
# contributors.
#
data_1521098
loop_
_publ_author_name
'Guo, Y.-Q.'
'Liu, Y.-C.'
'Tao, K.'
'Zhou, H.-P.'
'Wappling, R.'
_publ_section_title
;
 Crystal structures and giant magnetoresistance of fluoride La2/3 Ca1/3 Mn
 O3 compounds
;
_journal_name_full               'Journal of Alloys Compd.'
_journal_page_first              33
_journal_page_last               38
_journal_volume                  296
_journal_year                    2000
_chemical_formula_sum            'Ca0.4 F0.175 La0.6 Mn O2.775'
_chemical_name_systematic        '(La0.6 Ca0.4) Mn O (O1.775 F0.175)'
_space_group_IT_number           62
_symmetry_space_group_name_Hall  '-P 2c 2ab'
_symmetry_space_group_name_H-M   'P b n m'
_cell_angle_alpha                90
_cell_angle_beta                 90
_cell_angle_gamma                90
_cell_formula_units_Z            4
_cell_length_a                   5.463
_cell_length_b                   5.455
_cell_length_c                   7.713
_cell_volume                     229.853
_citation_journal_id_ASTM        JALCEU
_cod_data_source_file            Guo_JALCEU_2000_1186.cif
_cod_data_source_block           Ca0.4F0.175La0.6Mn1O2.775
_cod_original_cell_volume        229.8525
_cod_original_sg_symbol_Hall     '-P 2ac 2n (z,x,y)'
_cod_original_formula_sum        'Ca0.4 F0.175 La0.6 Mn1 O2.775'
_cod_database_code               1521098
loop_
_symmetry_equiv_pos_as_xyz
x,y,z
x+1/2,-y+1/2,-z
-x+1/2,y+1/2,-z+1/2
-x,-y,z+1/2
-x,-y,-z
-x-1/2,y-1/2,z
x-1/2,-y-1/2,z-1/2
x,y,-z-1/2
loop_
_atom_site_label
_atom_site_type_symbol
_atom_site_fract_x
_atom_site_fract_y
_atom_site_fract_z
_atom_site_occupancy
_atom_site_U_iso_or_equiv
La1 La+3 0.498 0.0183 0.25 0.6 0.0
Ca1 Ca+2 0.498 0.0183 0.25 0.4 0.0
O2 O-2 0.25373 0.2841 0.0164 0.887 0.0
O1 O-2 0.6098 0.4903 0.25 1 0.0
F1 F-1 0.25373 0.2841 0.0164 0.087 0.0
Mn1 Mn+3 0 0 0 1 0.0
