#------------------------------------------------------------------------------
#$Date: 2015-07-10 14:34:22 +0300 (Fri, 10 Jul 2015) $
#$Revision: 142073 $
#$URL: svn://www.crystallography.net/cod/cif/1/52/18/1521857.cif $
#------------------------------------------------------------------------------
#
# This file is available in the Crystallography Open Database (COD),
# http://www.crystallography.net/
#
# All data on this site have been placed in the public domain by the
# contributors.
#
data_1521857
loop_
_publ_author_name
'Rogl, P.'
'Andre, G.'
'Noel, H.'
'Bouree, F.'
_publ_section_title
;
 Magnetic structures of U3 M2 (M')3, M= Al, Ga; M'= Si, Ge: a neutron
 powder diffraction study
;
_journal_name_full               'Journal of Magnetism and Magnetic Materials'
_journal_page_first              291
_journal_page_last               300
_journal_volume                  191
_journal_year                    1999
_chemical_formula_sum            'Al1.7 Si3.3 U3'
_chemical_name_systematic        'U3 Al1.7 Si3.3'
_space_group_IT_number           79
_symmetry_space_group_name_Hall  'I 4'
_symmetry_space_group_name_H-M   'I 4'
_cell_angle_alpha                90
_cell_angle_beta                 90
_cell_angle_gamma                90
_cell_formula_units_Z            4
_cell_length_a                   7.6292
_cell_length_b                   7.6292
_cell_length_c                   10.8502
_cell_volume                     631.533
_citation_journal_id_ASTM        JMMMDC
_cod_data_source_file            Rogl_JMMMDC_1999_169.cif
_cod_data_source_block           Al1.7Si3.3U3
_cod_original_cell_volume        631.5325
_cod_database_code               1521857
loop_
_symmetry_equiv_pos_as_xyz
x,y,z
-y,x,z
-x,-y,z
y,-x,z
x+1/2,y+1/2,z+1/2
-y+1/2,x+1/2,z+1/2
-x+1/2,-y+1/2,z+1/2
y+1/2,-x+1/2,z+1/2
loop_
_atom_site_label
_atom_site_type_symbol
_atom_site_fract_x
_atom_site_fract_y
_atom_site_fract_z
_atom_site_occupancy
_atom_site_U_iso_or_equiv
U1 U 0 0 0.25 1 0.0
Al1 Al 0.3585 0.1484 0.1837 0.03 0.0
Si3 Si 0.3585 0.1484 0.1837 0.97 0.0
U2 U 0 0 0.75 1 0.0
U3 U 0.1606 0.3395 0 1 0.0
Si4 Si 0.137 0.3468 0.3065 0.18 0.0
Si2 Si 0 0 0.5 1 0.0
Al2 Al 0.137 0.3468 0.3065 0.82 0.0
Si1 Si 0 0 0 1 0.0
