#------------------------------------------------------------------------------
#$Date: 2016-02-13 21:28:24 +0200 (Sat, 13 Feb 2016) $
#$Revision: 176429 $
#$URL: svn://www.crystallography.net/cod/cif/1/52/12/1521202.cif $
#------------------------------------------------------------------------------
#
# This file is available in the Crystallography Open Database (COD),
# http://www.crystallography.net/
#
# All data on this site have been placed in the public domain by the
# contributors.
#
data_1521202
loop_
_publ_author_name
'Ijjaali, I.'
'Malaman, B.'
'Welter, R.'
'Venturini, G.'
_publ_section_title
;
 Refinements of the Ti Ni Si - type R Mn Si (R = Tb, Lu, Sc) and Dy Co Si
 structures from single crystal X-ray diffraction
;
_journal_name_full               'Journal of Alloys Compd.'
_journal_page_first              4
_journal_page_last               10
_journal_volume                  292
_journal_year                    1999
_chemical_formula_sum            'Lu0.15 Mn Sc0.85 Si'
_chemical_name_systematic        '(Sc0.85 Lu0.15) Mn Si'
_space_group_IT_number           62
_symmetry_space_group_name_Hall  '-P 2ac 2n'
_symmetry_space_group_name_H-M   'P n m a'
_cell_angle_alpha                90
_cell_angle_beta                 90
_cell_angle_gamma                90
_cell_formula_units_Z            4
_cell_length_a                   6.62
_cell_length_b                   3.801
_cell_length_c                   7.643
_cell_volume                     192.318
_citation_journal_id_ASTM        JALCEU
_cod_data_source_file            Ijjaali_JALCEU_1999_12.cif
_cod_data_source_block           Lu0.15Mn1Sc0.85Si1
_cod_original_cell_volume        192.3179
_cod_original_formula_sum        'Lu0.15 Mn1 Sc0.85 Si1'
_cod_database_code               1521202
loop_
_symmetry_equiv_pos_as_xyz
x,y,z
-x+1/2,-y,z+1/2
x+1/2,-y+1/2,-z+1/2
-x,y+1/2,-z
-x,-y,-z
x-1/2,y,-z-1/2
-x-1/2,y-1/2,z-1/2
x,-y-1/2,z
loop_
_atom_site_label
_atom_site_type_symbol
_atom_site_fract_x
_atom_site_fract_y
_atom_site_fract_z
_atom_site_occupancy
_atom_site_U_iso_or_equiv
Mn1 Mn 0.1378 0.25 0.056 1 0.0
Si1 Si 0.2696 0.25 0.3711 1 0.0
Sc1 Sc 0.0281 0.25 0.6756 0.85 0.0
Lu1 Lu 0.0281 0.25 0.6756 0.15 0.0
