#------------------------------------------------------------------------------
#$Date: 2018-09-27 07:13:35 +0300 (Thu, 27 Sep 2018) $
#$Revision: 211196 $
#$URL: file:///home/coder/svn-repositories/cod/cif/1/52/17/1521735.cif $
#------------------------------------------------------------------------------
#
# This file is available in the Crystallography Open Database (COD),
# http://www.crystallography.net/
#
# All data on this site have been placed in the public domain by the
# contributors.
#
data_1521735
loop_
_publ_author_name
'Penc, B.'
'Szytula, A.'
'Baran, S.'
'Hofmann, M.'
'Slaski, M.'
'Leciejewicz, J.'
_publ_section_title
;
 Magnetic ordering in R Pt X (R = Gd, Tb, Dy; X = Si, Ge) compounds
;
_journal_name_full               'Journal of Alloys Compd.'
_journal_page_first              79
_journal_page_last               87
_journal_volume                  299
_journal_year                    2000
_chemical_formula_sum            'Dy Pt Si'
_space_group_IT_number           62
_symmetry_space_group_name_Hall  '-P 2ac 2n'
_symmetry_space_group_name_H-M   'P n m a'
_cell_angle_alpha                90
_cell_angle_beta                 90
_cell_angle_gamma                90
_cell_formula_units_Z            4
_cell_length_a                   6.948
_cell_length_b                   4.251
_cell_length_c                   7.419
_cell_volume                     219.127
_citation_journal_id_ASTM        JALCEU
_cod_data_source_file            Penc_JALCEU_2000_1298.cif
_cod_data_source_block           Dy1Pt1Si1
_cod_original_cell_volume        219.1272
_cod_original_formula_sum        'Dy1 Pt1 Si1'
_cod_database_code               1521735
loop_
_symmetry_equiv_pos_as_xyz
x,y,z
-x+1/2,-y,z+1/2
x+1/2,-y+1/2,-z+1/2
-x,y+1/2,-z
-x,-y,-z
x-1/2,y,-z-1/2
-x-1/2,y-1/2,z-1/2
x,-y-1/2,z
loop_
_atom_site_label
_atom_site_type_symbol
_atom_site_fract_x
_atom_site_fract_y
_atom_site_fract_z
_atom_site_occupancy
_atom_site_U_iso_or_equiv
Dy1 Dy 0.006 0.25 0.6978 1 0.0
Pt1 Pt 0.193 0.25 0.086 1 0.0
Si1 Si 0.305 0.25 0.431 1 0.0
