#------------------------------------------------------------------------------
#$Date: 2016-02-13 21:28:24 +0200 (Sat, 13 Feb 2016) $
#$Revision: 176429 $
#$URL: svn://www.crystallography.net/cod/cif/1/52/10/1521002.cif $
#------------------------------------------------------------------------------
#
# This file is available in the Crystallography Open Database (COD),
# http://www.crystallography.net/
#
# All data on this site have been placed in the public domain by the
# contributors.
#
data_1521002
loop_
_publ_author_name
'Demchenko, P.'
'Bodak, O.'
_publ_section_title
;
 Crystal structure of the Nd Zn Si, Nd Zn0.3 Si1.7 and Nd Zn Sn ternary
 compounds
;
_journal_name_full               'Journal of Alloys Compd.'
_journal_page_first              215
_journal_page_last               217
_journal_volume                  307
_journal_year                    2000
_chemical_formula_sum            'Nd Si1.7 Zn0.3'
_chemical_name_systematic        'Nd Zn0.3 Si1.7'
_space_group_IT_number           141
_symmetry_space_group_name_Hall  '-I 4bd 2'
_symmetry_space_group_name_H-M   'I 41/a m d :2'
_cell_angle_alpha                90
_cell_angle_beta                 90
_cell_angle_gamma                90
_cell_formula_units_Z            4
_cell_length_a                   4.1478
_cell_length_b                   4.1478
_cell_length_c                   14.214
_cell_volume                     244.541
_citation_journal_id_ASTM        JALCEU
_cod_data_source_file            Demchenko_JALCEU_2000_1388.cif
_cod_data_source_block           Nd1Si1.7Zn0.3
_cod_original_cell_volume        244.5411
_cod_original_formula_sum        'Nd1 Si1.7 Zn0.3'
_cod_database_code               1521002
loop_
_symmetry_equiv_pos_as_xyz
x,y,z
-y+1/4,x+3/4,z+1/4
-x+1/2,-y,z+1/2
y+1/4,-x+1/4,z+3/4
x,-y,-z
y+1/4,x+3/4,-z+1/4
-x+1/2,y,-z+1/2
-y+1/4,-x+1/4,-z+3/4
-x,-y,-z
y-1/4,-x-3/4,-z-1/4
x-1/2,y,-z-1/2
-y-1/4,x-1/4,-z-3/4
-x,y,z
-y-1/4,-x-3/4,z-1/4
x-1/2,-y,z-1/2
y-1/4,x-1/4,z-3/4
x+1/2,y+1/2,z+1/2
-y+3/4,x+5/4,z+3/4
-x+1,-y+1/2,z+1
y+3/4,-x+3/4,z+5/4
x+1/2,-y+1/2,-z+1/2
y+3/4,x+5/4,-z+3/4
-x+1,y+1/2,-z+1
-y+3/4,-x+3/4,-z+5/4
-x+1/2,-y+1/2,-z+1/2
y+1/4,-x-1/4,-z+1/4
x,y+1/2,-z
-y+1/4,x+1/4,-z-1/4
-x+1/2,y+1/2,z+1/2
-y+1/4,-x-1/4,z+1/4
x,-y+1/2,z
y+1/4,x+1/4,z-1/4
loop_
_atom_site_label
_atom_site_type_symbol
_atom_site_fract_x
_atom_site_fract_y
_atom_site_fract_z
_atom_site_occupancy
_atom_site_U_iso_or_equiv
Si1 Si 0 0.25 0.2918 0.85 0.0
Nd1 Nd 0 0.75 0.125 1 0.0
Zn1 Zn 0 0.25 0.2918 0.15 0.0
