#------------------------------------------------------------------------------
#$Date: 2016-02-13 21:28:24 +0200 (Sat, 13 Feb 2016) $
#$Revision: 176429 $
#$URL: svn://www.crystallography.net/cod/cif/1/52/18/1521839.cif $
#------------------------------------------------------------------------------
#
# This file is available in the Crystallography Open Database (COD),
# http://www.crystallography.net/
#
# All data on this site have been placed in the public domain by the
# contributors.
#
data_1521839
loop_
_publ_author_name
'Riccardi, R.'
'Gout, D.'
'Gauthier, G.'
'Garcia, A.'
'Guillen, F.'
'Macaudiere, P.'
'Jobic, S.'
'Huguenin, D.'
'Fouassier, C.'
'Brec, R.'
_publ_section_title
;
 Structural investigation and luminescence properties of the Ce3 (SiS4)2 X
 (X = Cl, Br, I) family and the La3-x Cex (Si S4)2 I (0<x<1) solid
 solution
;
_journal_name_full               'Journal of Solid State Chemistry'
_journal_page_first              259
_journal_page_last               268
_journal_volume                  147
_journal_year                    1999
_chemical_formula_sum            'Ce I La2 S8 Si2'
_chemical_name_systematic        '(La2 Ce) (Si S4)2 I'
_space_group_IT_number           15
_symmetry_space_group_name_Hall  '-C 2yc'
_symmetry_space_group_name_H-M   'C 1 2/c 1'
_cell_angle_alpha                90
_cell_angle_beta                 97.939
_cell_angle_gamma                90
_cell_formula_units_Z            4
_cell_length_a                   16.057
_cell_length_b                   7.8916
_cell_length_c                   10.9116
_cell_volume                     1369.416
_citation_journal_id_ASTM        JSSCBI
_cod_data_source_file            Riccardi_JSSCBI_1999_299.cif
_cod_data_source_block           Ce1I1La2S8Si2
_cod_original_formula_sum        'Ce1 I1 La2 S8 Si2'
_cod_database_code               1521839
loop_
_symmetry_equiv_pos_as_xyz
x,y,z
-x,y,-z+1/2
-x,-y,-z
x,-y,z-1/2
x+1/2,y+1/2,z
-x+1/2,y+1/2,-z+1/2
-x+1/2,-y+1/2,-z
x+1/2,-y+1/2,z-1/2
loop_
_atom_site_label
_atom_site_type_symbol
_atom_site_fract_x
_atom_site_fract_y
_atom_site_fract_z
_atom_site_occupancy
_atom_site_U_iso_or_equiv
Ce1 Ce+3 0.1975 0.1186 0.6805 0.333 0.0
Ce2 Ce+3 0.5 0.096 0.75 0.333 0.0
Si1 Si+4 0.163 0.46 0.029 1 0.0
S1 S-2 0.144 0.261 0.137 1 0.0
S3 S-2 0.065 0.653 0.041 1 0.0
La2 La+3 0.5 0.096 0.75 0.667 0.0
I1 I-1 0 0.985 0.25 1 0.0
La1 La+3 0.1975 0.1186 0.6805 0.667 0.0
S4 S-2 0.152 0.396 0.846 1 0.0
S2 S-2 0.278 0.557 0.083 1 0.0
