#------------------------------------------------------------------------------
#$Date: 2015-07-07 14:07:57 +0300 (Tue, 07 Jul 2015) $
#$Revision: 140659 $
#$URL: svn://www.crystallography.net/cod/cif/1/52/10/1521032.cif $
#------------------------------------------------------------------------------
#
# This file is available in the Crystallography Open Database (COD),
# http://www.crystallography.net/
#
# All data on this site have been placed in the public domain by the
# contributors.
#
data_1521032
loop_
_publ_author_name
'Fleet, M.E.'
'Liu, X.-Y.'
'Pan, Y.-M.'
_publ_section_title
;
 Rare-earth elements in chlorapatite (Ca10 (P O4)6 Cl2): uptake, site
 preference, and degradation of monoclinic structure
;
_journal_name_full               'American Mineralogist'
_journal_page_first              1437
_journal_page_last               1446
_journal_volume                  85
_journal_year                    2000
_chemical_formula_sum            'Ca9.66 Cl2 Na0.17 O24 P6 Sm0.17'
_chemical_name_systematic        '(Ca9.66 Na0.17 Sm0.17) (P O4)6 Cl2'
_space_group_IT_number           176
_symmetry_space_group_name_Hall  '-P 6c'
_symmetry_space_group_name_H-M   'P 63/m'
_cell_angle_alpha                90
_cell_angle_beta                 90
_cell_angle_gamma                120
_cell_formula_units_Z            1
_cell_length_a                   9.6492
_cell_length_b                   9.6492
_cell_length_c                   6.7668
_cell_volume                     545.628
_citation_journal_id_ASTM        AMMIAY
_cod_data_source_file            Fleet_AMMIAY_2000_946.cif
_cod_data_source_block           Ca9.66Cl2Na0.17O24P6Sm0.17
_cod_database_code               1521032
loop_
_symmetry_equiv_pos_as_xyz
x,y,z
x-y,x,z+1/2
-y,x-y,z
-x,-y,z+1/2
-x+y,-x,z
y,-x+y,z+1/2
-x,-y,-z
-x+y,-x,-z-1/2
y,-x+y,-z
x,y,-z-1/2
x-y,x,-z
-y,x-y,-z-1/2
loop_
_atom_site_label
_atom_site_type_symbol
_atom_site_fract_x
_atom_site_fract_y
_atom_site_fract_z
_atom_site_occupancy
_atom_site_U_iso_or_equiv
O1 O-2 0.4916 0.3438 0.25 1 0.0
Ca2 Ca+2 0.00425 0.25877 0.25 0.993 0.0
O2 O-2 0.4663 0.5928 0.25 1 0.0
Sm2 Sm+3 0.00425 0.25877 0.25 0.0069 0.0
Cl1 Cl-1 0 0 0.4497 0.5 0.0
P1 P+5 0.37556 0.40809 0.25 1 0.0
O3 O-2 0.2674 0.3539 0.0676 1 0.0
Ca1 Ca+2 0.6667 0.3333 0.00275 0.927 0.0
Sm1 Sm+3 0.6667 0.3333 0.00275 0.0322 0.0
Na1 Na+1 0.6667 0.3333 0.00275 0.041 0.0
