#------------------------------------------------------------------------------
#$Date: 2016-02-13 21:28:24 +0200 (Sat, 13 Feb 2016) $
#$Revision: 176429 $
#$URL: svn://www.crystallography.net/cod/cif/1/52/16/1521658.cif $
#------------------------------------------------------------------------------
#
# This file is available in the Crystallography Open Database (COD),
# http://www.crystallography.net/
#
# All data on this site have been placed in the public domain by the
# contributors.
#
data_1521658
loop_
_publ_author_name
'Narducci, A.A.'
'Yang, Y.-T.'
'Digman, M.A.'
'Sipes, A.B.'
'Ibers, J.A.'
_publ_section_title
;
 An investigation of the rare-earth telluride system Ba Ln2 Te4 (Ln = Sm -
 Tm, Y): syntheses, crystal structures and magnetic properties
;
_journal_name_full               'Journal of Alloys Compd.'
_journal_page_first              432
_journal_page_last               439
_journal_volume                  303
_journal_year                    2000
_chemical_formula_sum            'Ba Te4 Y2'
_chemical_name_systematic        'Ba Y2 Te4'
_space_group_IT_number           62
_symmetry_space_group_name_Hall  '-P 2ac 2n'
_symmetry_space_group_name_H-M   'P n m a'
_cell_angle_alpha                90
_cell_angle_beta                 90
_cell_angle_gamma                90
_cell_formula_units_Z            4
_cell_length_a                   13.646
_cell_length_b                   4.443
_cell_length_c                   16.141
_cell_volume                     978.616
_citation_journal_id_ASTM        JALCEU
_cod_data_source_file            Narducci_JALCEU_2000_1337.cif
_cod_data_source_block           Ba1Te4Y2
_cod_original_cell_volume        978.6155
_cod_original_formula_sum        'Ba1 Te4 Y2'
_cod_database_code               1521658
loop_
_symmetry_equiv_pos_as_xyz
x,y,z
-x+1/2,-y,z+1/2
x+1/2,-y+1/2,-z+1/2
-x,y+1/2,-z
-x,-y,-z
x-1/2,y,-z-1/2
-x-1/2,y-1/2,z-1/2
x,-y-1/2,z
loop_
_atom_site_label
_atom_site_type_symbol
_atom_site_fract_x
_atom_site_fract_y
_atom_site_fract_z
_atom_site_occupancy
_atom_site_U_iso_or_equiv
Te4 Te-2 0.47294 0.25 0.78393 1 0.0
Y1 Y+3 0.08125 0.25 0.40353 1 0.0
Te2 Te-2 0.29519 0.25 0.33836 1 0.0
Y2 Y+3 0.55953 0.25 0.60943 1 0.0
Te3 Te-2 0.3719 0.25 0.02899 1 0.0
Te1 Te-2 0.09127 0.25 0.07663 1 0.0
Ba1 Ba+2 0.23889 0.25 0.66913 1 0.0
