#------------------------------------------------------------------------------
#$Date: 2016-02-13 21:28:24 +0200 (Sat, 13 Feb 2016) $
#$Revision: 176429 $
#$URL: svn://www.crystallography.net/cod/cif/1/52/18/1521890.cif $
#------------------------------------------------------------------------------
#
# This file is available in the Crystallography Open Database (COD),
# http://www.crystallography.net/
#
# All data on this site have been placed in the public domain by the
# contributors.
#
data_1521890
loop_
_publ_author_name
'Schleid, T.'
_publ_section_title
;
 Drei Formen von Selten-Erd(III)-Fluoridsulfiden: A-(La F S), B-(Y F S)
 und C-(Lu F S)
;
_journal_name_full
'Zeitschrift fuer Anorganische und Allgemeine Chemie'
_journal_page_first              1700
_journal_page_last               1706
_journal_volume                  625
_journal_year                    1999
_chemical_formula_sum            'F La S'
_chemical_name_systematic        'La F S'
_space_group_IT_number           129
_symmetry_space_group_name_Hall  '-P 4a 2a'
_symmetry_space_group_name_H-M   'P 4/n m m :2'
_cell_angle_alpha                90
_cell_angle_beta                 90
_cell_angle_gamma                90
_cell_formula_units_Z            2
_cell_length_a                   4.0438
_cell_length_b                   4.0438
_cell_length_c                   7.0041
_cell_volume                     114.533
_citation_journal_id_ASTM        ZAACAB
_cod_data_source_file            Schleid_ZAACAB_1999_820.cif
_cod_data_source_block           F1La1S1
_cod_original_cell_volume        114.5333
_cod_original_formula_sum        'F1 La1 S1'
_cod_database_code               1521890
loop_
_symmetry_equiv_pos_as_xyz
x,y,z
-y+1/2,x,z
-x+1/2,-y+1/2,z
y,-x+1/2,z
x+1/2,-y,-z
y+1/2,x+1/2,-z
-x,y+1/2,-z
-y,-x,-z
-x,-y,-z
y-1/2,-x,-z
x-1/2,y-1/2,-z
-y,x-1/2,-z
-x-1/2,y,z
-y-1/2,-x-1/2,z
x,-y-1/2,z
y,x,z
loop_
_atom_site_label
_atom_site_type_symbol
_atom_site_fract_x
_atom_site_fract_y
_atom_site_fract_z
_atom_site_occupancy
_atom_site_U_iso_or_equiv
La1 La+3 0.25 0.25 0.23005 1 0.0
S1 S-2 0.25 0.25 0.6504 1 0.0
F1 F-1 0.75 0.25 0 1 0.0
