#------------------------------------------------------------------------------
#$Date: 2016-02-13 21:28:24 +0200 (Sat, 13 Feb 2016) $
#$Revision: 176429 $
#$URL: svn://www.crystallography.net/cod/cif/1/52/10/1521077.cif $
#------------------------------------------------------------------------------
#
# This file is available in the Crystallography Open Database (COD),
# http://www.crystallography.net/
#
# All data on this site have been placed in the public domain by the
# contributors.
#
data_1521077
loop_
_publ_author_name
'Gross, K.J.'
'Chartouni, D.'
'Fauth, F.'
_publ_section_title
;
 A new hexagonal Laves phase deuteride Ce Mn1.5 Al0.5 Dx (0<x<4)
 investigated by in situ neutron diffraction
;
_journal_name_full               'Journal of Alloys Compd.'
_journal_page_first              203
_journal_page_last               218
_journal_volume                  306
_journal_year                    2000
_chemical_formula_sum            'Al0.5 Ce D3.975 Mn1.5'
_chemical_name_systematic        'Ce (Mn1.5 Al0.5) D3.975'
_space_group_IT_number           194
_symmetry_space_group_name_Hall  '-P 6c 2c'
_symmetry_space_group_name_H-M   'P 63/m m c'
_cell_angle_alpha                90
_cell_angle_beta                 90
_cell_angle_gamma                120
_cell_formula_units_Z            4
_cell_length_a                   6.0067
_cell_length_b                   6.0067
_cell_length_c                   9.786
_cell_volume                     305.779
_citation_journal_id_ASTM        JALCEU
_cod_data_source_file            Gross_JALCEU_2000_1373.cif
_cod_data_source_block           D3.975Al0.5Ce1Mn1.5
_cod_original_cell_volume        305.7791
_cod_original_formula_sum        'D3.975 Al0.5 Ce1 Mn1.5'
_cod_database_code               1521077
loop_
_symmetry_equiv_pos_as_xyz
x,y,z
x-y,x,z+1/2
-y,x-y,z
-x,-y,z+1/2
-x+y,-x,z
y,-x+y,z+1/2
-y,-x,-z+1/2
x-y,-y,-z
x,x-y,-z+1/2
y,x,-z
-x+y,y,-z+1/2
-x,-x+y,-z
-x,-y,-z
-x+y,-x,-z-1/2
y,-x+y,-z
x,y,-z-1/2
x-y,x,-z
-y,x-y,-z-1/2
y,x,z-1/2
-x+y,y,z
-x,-x+y,z-1/2
-y,-x,z
x-y,-y,z-1/2
x,x-y,z
loop_
_atom_site_label
_atom_site_type_symbol
_atom_site_fract_x
_atom_site_fract_y
_atom_site_fract_z
_atom_site_occupancy
_atom_site_U_iso_or_equiv
Al2 Al 0.838 0.676 0.25 0.223 0.0
D1 D 0.0566 0.3137 0.5709 0.279 0.0
Mn1 Mn 0 0 0 0.6689 0.0
D3 D 0.503 0.006 0.25 0.135 0.0
D4 D 0.1854 0.3708 0.25 0.613 0.0
Al1 Al 0 0 0 0.3307 0.0
Mn2 Mn 0.838 0.676 0.25 0.777 0.0
D2 D 0.453 0.906 0.6395 0.393 0.0
Ce1 Ce 0.3333 0.6667 0.0617 1 0.0
