#------------------------------------------------------------------------------
#$Date: 2015-07-10 14:04:24 +0300 (Fri, 10 Jul 2015) $
#$Revision: 141919 $
#$URL: svn://www.crystallography.net/cod/cif/1/52/17/1521705.cif $
#------------------------------------------------------------------------------
#
# This file is available in the Crystallography Open Database (COD),
# http://www.crystallography.net/
#
# All data on this site have been placed in the public domain by the
# contributors.
#
data_1521705
loop_
_publ_author_name
'Otzschi, K.'
'Ogino, H.'
'Kishio, K.'
'Shimoyama, J.-I.'
_publ_section_title
;
 New candidates for superconductors; a series of layered oxysulfides (Cu2
 S2) (Srn+1 Mn O3n-1)
;
_journal_name_full               'Journal of Low Temperature Physics'
_journal_page_first              729
_journal_page_last               733
_journal_volume                  117
_journal_year                    1999
_chemical_formula_sum            'Cu3 O2 S2 Sr2'
_chemical_name_systematic        '(Cu2 S2) (Sr2 Cu O2)'
_space_group_IT_number           139
_symmetry_space_group_name_Hall  '-I 4 2'
_symmetry_space_group_name_H-M   'I 4/m m m'
_cell_angle_alpha                90
_cell_angle_beta                 90
_cell_angle_gamma                90
_cell_formula_units_Z            2
_cell_length_a                   3.9217
_cell_length_b                   3.9217
_cell_length_c                   18.22539
_cell_volume                     280.302
_citation_journal_id_ASTM        JLTPAC
_cod_data_source_file            Otzschi_JLTPAC_1999_120.cif
_cod_data_source_block           Cu3O2S2Sr2
_cod_original_cell_volume        280.3016
_cod_database_code               1521705
loop_
_symmetry_equiv_pos_as_xyz
x,y,z
-y,x,z
-x,-y,z
y,-x,z
x,-y,-z
y,x,-z
-x,y,-z
-y,-x,-z
-x,-y,-z
y,-x,-z
x,y,-z
-y,x,-z
-x,y,z
-y,-x,z
x,-y,z
y,x,z
x+1/2,y+1/2,z+1/2
-y+1/2,x+1/2,z+1/2
-x+1/2,-y+1/2,z+1/2
y+1/2,-x+1/2,z+1/2
x+1/2,-y+1/2,-z+1/2
y+1/2,x+1/2,-z+1/2
-x+1/2,y+1/2,-z+1/2
-y+1/2,-x+1/2,-z+1/2
-x+1/2,-y+1/2,-z+1/2
y+1/2,-x+1/2,-z+1/2
x+1/2,y+1/2,-z+1/2
-y+1/2,x+1/2,-z+1/2
-x+1/2,y+1/2,z+1/2
-y+1/2,-x+1/2,z+1/2
x+1/2,-y+1/2,z+1/2
y+1/2,x+1/2,z+1/2
loop_
_atom_site_label
_atom_site_type_symbol
_atom_site_fract_x
_atom_site_fract_y
_atom_site_fract_z
_atom_site_occupancy
_atom_site_U_iso_or_equiv
Sr1 Sr+2 0.5 0.5 0.0921 1 0.0
Cu1 Cu+2 0 0 0 1 0.0
S1 S-2 0 0 0.171 1 0.0
Cu2 Cu+1 0.5 0 0.25 1 0.0
O1 O-2 0.5 0 0 1 0.0
