#------------------------------------------------------------------------------
#$Date: 2015-07-07 16:15:56 +0300 (Tue, 07 Jul 2015) $
#$Revision: 140866 $
#$URL: svn://www.crystallography.net/cod/cif/1/52/11/1521189.cif $
#------------------------------------------------------------------------------
#
# This file is available in the Crystallography Open Database (COD),
# http://www.crystallography.net/
#
# All data on this site have been placed in the public domain by the
# contributors.
#
data_1521189
loop_
_publ_author_name
'Huang, F.Q.'
'Ibers, J.A.'
_publ_section_title
;
 Syntheses and structures of the new quaternary rubidium selenides Rb Ln2
 Cu Se4 (Ln = Sm, Gd, Dy), Rb1.5 Ln2 Cu2.5 Se5 (Ln = Gd, Dy),and Rb Sm2
 Ag3 Se5
;
_journal_name_full               'Journal of Solid State Chemistry'
_journal_page_first              317
_journal_page_last               322
_journal_volume                  151
_journal_year                    2000
_chemical_formula_sum            'Cu2.5 Gd2 Rb1.5 Se5'
_chemical_name_systematic        'Rb1.5 Gd2 Cu2.5 Se5'
_space_group_IT_number           58
_symmetry_space_group_name_Hall  '-P 2 2n'
_symmetry_space_group_name_H-M   'P n n m'
_cell_angle_alpha                90
_cell_angle_beta                 90
_cell_angle_gamma                90
_cell_formula_units_Z            4
_cell_length_a                   16.243
_cell_length_b                   16.449
_cell_length_c                   4.098
_cell_volume                     1094.908
_citation_journal_id_ASTM        JSSCBI
_cod_data_source_file            Huang_JSSCBI_2000_1876.cif
_cod_data_source_block           Cu2.5Gd2Rb1.5Se5
_cod_database_code               1521189
loop_
_symmetry_equiv_pos_as_xyz
x,y,z
-x,-y,z
x+1/2,-y+1/2,-z+1/2
-x+1/2,y+1/2,-z+1/2
-x,-y,-z
x,y,-z
-x-1/2,y-1/2,z-1/2
x-1/2,-y-1/2,z-1/2
loop_
_atom_site_label
_atom_site_type_symbol
_atom_site_fract_x
_atom_site_fract_y
_atom_site_fract_z
_atom_site_occupancy
_atom_site_U_iso_or_equiv
Se4 Se-2 0.12313 0.39845 0 1 0.0
Se3 Se-2 0.18177 2e-05 0 1 0.0
Rb2 Rb+1 0 0 0.5 1 0.0
Cu3 Cu+1 0.0215 0.573 0 0.56 0.0
Cu2 Cu+1 0.56954 0.03371 0 0.937 0.0
Gd2 Gd+3 0.56197 0.22016 0 1 0.0
Se5 Se-2 0.4095 0.11135 0 1 0.0
Cu1 Cu+1 0.15104 0.14669 0 1 0.0
Gd1 Gd+3 0.21354 0.5558 0 1 0.0
Se2 Se-2 0.28345 0.70936 0 1 0.0
Se1 Se-2 0.00189 0.18005 0 1 0.0
Rb1 Rb+1 0.32727 0.32569 0 1 0.0
