#------------------------------------------------------------------------------
#$Date: 2016-02-13 21:28:24 +0200 (Sat, 13 Feb 2016) $
#$Revision: 176429 $
#$URL: svn://www.crystallography.net/cod/cif/1/52/17/1521799.cif $
#------------------------------------------------------------------------------
#
# This file is available in the Crystallography Open Database (COD),
# http://www.crystallography.net/
#
# All data on this site have been placed in the public domain by the
# contributors.
#
data_1521799
loop_
_publ_author_name
'Quo, Y.-Q.'
'Zhang, X.-H.'
'Waeppling, R.'
_publ_section_title
;
 Crystal structure of La1-x Srx Mn O3-2x+d F2x
;
_journal_name_full               'Journal of Alloys Compd.'
_journal_page_first              133
_journal_page_last               140
_journal_volume                  306
_journal_year                    2000
_chemical_formula_sum            'F0.575 La0.325 Mn O2.375 Sr0.65'
_chemical_name_systematic        '(La0.325 Sr0.65) (Mn O (O1.375 F0.575))'
_space_group_IT_number           62
_symmetry_space_group_name_Hall  '-P 2c 2ab'
_symmetry_space_group_name_H-M   'P b n m'
_cell_angle_alpha                90
_cell_angle_beta                 90
_cell_angle_gamma                90
_cell_formula_units_Z            4
_cell_length_a                   5.51
_cell_length_b                   5.461
_cell_length_c                   7.74
_cell_volume                     232.897
_citation_journal_id_ASTM        JALCEU
_cod_data_source_file            Quo_JALCEU_2000_1359.cif
_cod_data_source_block           F0.575La0.325Mn1O2.375Sr0.65
_cod_original_cell_volume        232.8974
_cod_original_sg_symbol_Hall     '-P 2ac 2n (z,x,y)'
_cod_original_formula_sum        'F0.575 La0.325 Mn1 O2.375 Sr0.65'
_cod_database_code               1521799
loop_
_symmetry_equiv_pos_as_xyz
x,y,z
x+1/2,-y+1/2,-z
-x+1/2,y+1/2,-z+1/2
-x,-y,z+1/2
-x,-y,-z
-x-1/2,y-1/2,z
x-1/2,-y-1/2,z-1/2
x,y,-z-1/2
loop_
_atom_site_label
_atom_site_type_symbol
_atom_site_fract_x
_atom_site_fract_y
_atom_site_fract_z
_atom_site_occupancy
_atom_site_U_iso_or_equiv
Sr1 Sr+2 0.5016 0.011 0.25 0.65 0.0
O2 O-2 0.2503 0.2533 0.0037 0.69 0.0
F1 F-1 0.2503 0.2533 0.0037 0.287 0.0
La1 La+3 0.5016 0.011 0.25 0.325 0.0
O1 O-2 0.5618 0.4409 0.25 1 0.0
Mn1 Mn+3 0 0 0 1 0.0
