#------------------------------------------------------------------------------
#$Date: 2016-02-13 21:28:24 +0200 (Sat, 13 Feb 2016) $
#$Revision: 176429 $
#$URL: svn://www.crystallography.net/cod/cif/1/52/20/1522073.cif $
#------------------------------------------------------------------------------
#
# This file is available in the Crystallography Open Database (COD),
# http://www.crystallography.net/
#
# All data on this site have been placed in the public domain by the
# contributors.
#
data_1522073
loop_
_publ_author_name
'Klepp, K.'
'Parthe, E.'
_publ_section_title
;
 Phase relationship of ternary rare earth-transition metal alloys with Cr
 B and Fe B structures or stacking variants
;
_journal_name_full               'Journal of the Less-Common Metals'
_journal_page_first              181
_journal_page_last               194
_journal_volume                  85
_journal_year                    1982
_chemical_formula_sum            'Gd Ni0.9 Pt0.1'
_chemical_name_systematic        'Gd (Ni0.9 Pt0.1)'
_space_group_IT_number           11
_symmetry_space_group_name_Hall  '-P 2yb'
_symmetry_space_group_name_H-M   'P 1 21/m 1'
_cell_angle_alpha                90
_cell_angle_beta                 100.31
_cell_angle_gamma                90
_cell_formula_units_Z            8
_cell_length_a                   14.52
_cell_length_b                   4.263
_cell_length_c                   5.511
_cell_volume                     335.616
_citation_journal_id_ASTM        JCOMAH
_cod_data_source_file            Klepp_JCOMAH_1982_460.cif
_cod_data_source_block           Gd1Ni0.9Pt0.1
_cod_original_cell_volume        335.6162
_cod_original_formula_sum        'Gd1 Ni0.9 Pt0.1'
_cod_database_code               1522073
loop_
_symmetry_equiv_pos_as_xyz
x,y,z
-x,y+1/2,-z
-x,-y,-z
x,-y-1/2,z
loop_
_atom_site_label
_atom_site_type_symbol
_atom_site_fract_x
_atom_site_fract_y
_atom_site_fract_z
_atom_site_occupancy
_atom_site_U_iso_or_equiv
Pt2 Pt 0.269 0.25 0.256 0.1 0.0
Gd4 Gd 0.8401 0.25 0.558 1 0.0
Pt1 Pt 0.019 0.25 0.379 0.1 0.0
Ni4 Ni 0.769 0.25 0.019 0.9 0.0
Ni3 Ni 0.519 0.25 0.138 0.9 0.0
Ni1 Ni 0.019 0.25 0.379 0.9 0.0
Gd3 Gd 0.5902 0.25 0.677 1 0.0
Pt3 Pt 0.519 0.25 0.138 0.1 0.0
Ni2 Ni 0.269 0.25 0.256 0.9 0.0
Pt4 Pt 0.769 0.25 0.019 0.1 0.0
Gd2 Gd 0.34 0.25 0.795 1 0.0
Gd1 Gd 0.09 0.25 0.908 1 0.0
