#------------------------------------------------------------------------------
#$Date: 2016-02-13 21:28:24 +0200 (Sat, 13 Feb 2016) $
#$Revision: 176429 $
#$URL: svn://www.crystallography.net/cod/cif/1/52/26/1522630.cif $
#------------------------------------------------------------------------------
#
# This file is available in the Crystallography Open Database (COD),
# http://www.crystallography.net/
#
# All data on this site have been placed in the public domain by the
# contributors.
#
data_1522630
loop_
_publ_author_name
'Oesterreicher, H.'
'Misroch, M.'
'Parker, F.T.'
_publ_section_title
;
 Giant intrinsic magnetic hardness in R Fe5-x Nix (R= rare earth, x= 4 to
 5)
;
_journal_name_full               'Appplied Physics (Berlin)'
_journal_page_first              185
_journal_page_last               189
_journal_volume                  16
_journal_year                    1978
_chemical_formula_sum            'Fe Ni4 Pr'
_chemical_name_systematic        '(Fe0.2 Ni0.8)5 Pr'
_space_group_IT_number           191
_symmetry_space_group_name_Hall  '-P 6 2'
_symmetry_space_group_name_H-M   'P 6/m m m'
_cell_angle_alpha                90
_cell_angle_beta                 90
_cell_angle_gamma                120
_cell_formula_units_Z            1
_cell_length_a                   5.002
_cell_length_b                   5.002
_cell_length_c                   4.015
_cell_volume                     86.997
_citation_journal_id_ASTM        APHYCC
_cod_data_source_file            Oesterreicher_APHYCC_1978_2.cif
_cod_data_source_block           Fe1Ni4Pr1
_cod_original_cell_volume        86.99685
_cod_original_formula_sum        'Fe1 Ni4 Pr1'
_cod_database_code               1522630
loop_
_symmetry_equiv_pos_as_xyz
x,y,z
x-y,x,z
-y,x-y,z
-x,-y,z
-x+y,-x,z
y,-x+y,z
-y,-x,-z
x-y,-y,-z
x,x-y,-z
y,x,-z
-x+y,y,-z
-x,-x+y,-z
-x,-y,-z
-x+y,-x,-z
y,-x+y,-z
x,y,-z
x-y,x,-z
-y,x-y,-z
y,x,z
-x+y,y,z
-x,-x+y,z
-y,-x,z
x-y,-y,z
x,x-y,z
loop_
_atom_site_label
_atom_site_type_symbol
_atom_site_fract_x
_atom_site_fract_y
_atom_site_fract_z
_atom_site_occupancy
_atom_site_U_iso_or_equiv
Ni1 Ni 0.3333 0.6667 0 0.8 0.0
Ni2 Ni 0.5 0 0.5 0.8 0.0
Pr1 Pr 0 0 0 1 0.0
Fe1 Fe 0.3333 0.6667 0 0.2 0.0
Fe2 Fe 0.5 0 0.5 0.2 0.0
