#------------------------------------------------------------------------------
#$Date: 2016-02-13 21:28:24 +0200 (Sat, 13 Feb 2016) $
#$Revision: 176429 $
#$URL: svn://www.crystallography.net/cod/cif/1/52/21/1522169.cif $
#------------------------------------------------------------------------------
#
# This file is available in the Crystallography Open Database (COD),
# http://www.crystallography.net/
#
# All data on this site have been placed in the public domain by the
# contributors.
#
data_1522169
loop_
_publ_author_name
'Wickleder, M.S.'
'Schaefer, W.'
_publ_section_title
;
 Synthesis and structure of anhydrous rare-earth perchlorates M (Cl O4)3
 (M = La, Ce-Er, Y): derivatives of the U Cl3 type structure
;
_journal_name_full
'Zeitschrift fuer Anorganische und Allgemeine Chemie'
_journal_page_first              309
_journal_page_last               312
_journal_volume                  625
_journal_year                    1999
_chemical_formula_sum            'Cl3 Er O12'
_chemical_name_systematic        'Er (Cl O4)3'
_space_group_IT_number           176
_symmetry_space_group_name_Hall  '-P 6c'
_symmetry_space_group_name_H-M   'P 63/m'
_cell_angle_alpha                90
_cell_angle_beta                 90
_cell_angle_gamma                120
_cell_formula_units_Z            2
_cell_length_a                   9.197
_cell_length_b                   9.197
_cell_length_c                   5.597
_cell_volume                     409.995
_citation_journal_id_ASTM        ZAACAB
_cod_data_source_file            Wickleder_ZAACAB_1999_859.cif
_cod_data_source_block           Cl3Er1O12
_cod_original_cell_volume        409.9947
_cod_original_formula_sum        'Cl3 Er1 O12'
_cod_database_code               1522169
loop_
_symmetry_equiv_pos_as_xyz
x,y,z
x-y,x,z+1/2
-y,x-y,z
-x,-y,z+1/2
-x+y,-x,z
y,-x+y,z+1/2
-x,-y,-z
-x+y,-x,-z-1/2
y,-x+y,-z
x,y,-z-1/2
x-y,x,-z
-y,x-y,-z-1/2
loop_
_atom_site_label
_atom_site_type_symbol
_atom_site_fract_x
_atom_site_fract_y
_atom_site_fract_z
_atom_site_occupancy
_atom_site_U_iso_or_equiv
Cl1 Cl+7 0.2906 0.3872 0.25 1 0.0
O3 O-2 0.189 0.206 0.25 1 0.0
O1 O-2 0.472 0.4435 0.25 1 0.0
Er1 Er+3 0.6667 0.3333 0.25 1 0.0
O2 O-2 0.7999 0.2581 0.9589 1 0.0
