#------------------------------------------------------------------------------
#$Date: 2018-09-27 07:13:35 +0300 (Thu, 27 Sep 2018) $
#$Revision: 211196 $
#$URL: file:///home/coder/svn-repositories/cod/cif/1/52/29/1522983.cif $
#------------------------------------------------------------------------------
#
# This file is available in the Crystallography Open Database (COD),
# http://www.crystallography.net/
#
# All data on this site have been placed in the public domain by the
# contributors.
#
data_1522983
loop_
_publ_author_name
'Szytula, A.'
'Zygmunt, A.'
'Ptasiewicz-Bak, H.'
'Slaski, M.'
'Leciejewicz, J.'
_publ_section_title
;
 Magnetic ordering in Nd Rh2 Si2 and Er Rh2 Si2
;
_journal_name_full               'Solid State Communications'
_journal_page_first              395
_journal_page_last               398
_journal_volume                  52
_journal_year                    1984
_chemical_formula_sum            'Nd Rh2 Si2'
_space_group_IT_number           139
_symmetry_space_group_name_Hall  '-I 4 2'
_symmetry_space_group_name_H-M   'I 4/m m m'
_cell_angle_alpha                90
_cell_angle_beta                 90
_cell_angle_gamma                90
_cell_formula_units_Z            2
_cell_length_a                   4.059
_cell_length_b                   4.059
_cell_length_c                   10.003
_cell_volume                     164.804
_citation_journal_id_ASTM        SSCOA4
_cod_data_source_file            Szytula_SSCOA4_1984_1437.cif
_cod_data_source_block           Nd1Rh2Si2
_cod_original_cell_volume        164.8042
_cod_original_formula_sum        'Nd1 Rh2 Si2'
_cod_database_code               1522983
loop_
_symmetry_equiv_pos_as_xyz
x,y,z
-y,x,z
-x,-y,z
y,-x,z
x,-y,-z
y,x,-z
-x,y,-z
-y,-x,-z
-x,-y,-z
y,-x,-z
x,y,-z
-y,x,-z
-x,y,z
-y,-x,z
x,-y,z
y,x,z
x+1/2,y+1/2,z+1/2
-y+1/2,x+1/2,z+1/2
-x+1/2,-y+1/2,z+1/2
y+1/2,-x+1/2,z+1/2
x+1/2,-y+1/2,-z+1/2
y+1/2,x+1/2,-z+1/2
-x+1/2,y+1/2,-z+1/2
-y+1/2,-x+1/2,-z+1/2
-x+1/2,-y+1/2,-z+1/2
y+1/2,-x+1/2,-z+1/2
x+1/2,y+1/2,-z+1/2
-y+1/2,x+1/2,-z+1/2
-x+1/2,y+1/2,z+1/2
-y+1/2,-x+1/2,z+1/2
x+1/2,-y+1/2,z+1/2
y+1/2,x+1/2,z+1/2
loop_
_atom_site_label
_atom_site_type_symbol
_atom_site_fract_x
_atom_site_fract_y
_atom_site_fract_z
_atom_site_occupancy
_atom_site_U_iso_or_equiv
Rh1 Rh 0 0.5 0.25 1 0.0
Si1 Si 0 0 0.3725 1 0.0
Nd1 Nd 0 0 0 1 0.0
