#------------------------------------------------------------------------------
#$Date: 2016-02-13 21:28:24 +0200 (Sat, 13 Feb 2016) $
#$Revision: 176429 $
#$URL: svn://www.crystallography.net/cod/cif/1/52/21/1522114.cif $
#------------------------------------------------------------------------------
#
# This file is available in the Crystallography Open Database (COD),
# http://www.crystallography.net/
#
# All data on this site have been placed in the public domain by the
# contributors.
#
data_1522114
loop_
_publ_author_name
'Venturini, G.'
'Verniere, A.'
_publ_section_title
;
 Crystallographic data and magnetic properties of new Th Si2 and Gd Si2
 derivative compounds in the Gd - Ga - Ge system
;
_journal_name_full               'Journal of Alloys Compd.'
_journal_page_first              7
_journal_page_last               13
_journal_volume                  305
_journal_year                    2000
_chemical_formula_sum            'Ga1.272 Gd Ge0.728'
_chemical_name_systematic        'Gd (Ga0.636 Ge0.364)2'
_space_group_IT_number           141
_symmetry_space_group_name_Hall  '-I 4bd 2'
_symmetry_space_group_name_H-M   'I 41/a m d :2'
_cell_angle_alpha                90
_cell_angle_beta                 90
_cell_angle_gamma                90
_cell_formula_units_Z            4
_cell_length_a                   4.154
_cell_length_b                   4.154
_cell_length_c                   14.403
_cell_volume                     248.534
_citation_journal_id_ASTM        JALCEU
_cod_data_source_file            Venturini_JALCEU_2000_1345.cif
_cod_data_source_block           Ga1.272Gd1Ge0.728
_cod_original_cell_volume        248.5341
_cod_original_formula_sum        'Ga1.272 Gd1 Ge0.728'
_cod_database_code               1522114
loop_
_symmetry_equiv_pos_as_xyz
x,y,z
-y+1/4,x+3/4,z+1/4
-x+1/2,-y,z+1/2
y+1/4,-x+1/4,z+3/4
x,-y,-z
y+1/4,x+3/4,-z+1/4
-x+1/2,y,-z+1/2
-y+1/4,-x+1/4,-z+3/4
-x,-y,-z
y-1/4,-x-3/4,-z-1/4
x-1/2,y,-z-1/2
-y-1/4,x-1/4,-z-3/4
-x,y,z
-y-1/4,-x-3/4,z-1/4
x-1/2,-y,z-1/2
y-1/4,x-1/4,z-3/4
x+1/2,y+1/2,z+1/2
-y+3/4,x+5/4,z+3/4
-x+1,-y+1/2,z+1
y+3/4,-x+3/4,z+5/4
x+1/2,-y+1/2,-z+1/2
y+3/4,x+5/4,-z+3/4
-x+1,y+1/2,-z+1
-y+3/4,-x+3/4,-z+5/4
-x+1/2,-y+1/2,-z+1/2
y+1/4,-x-1/4,-z+1/4
x,y+1/2,-z
-y+1/4,x+1/4,-z-1/4
-x+1/2,y+1/2,z+1/2
-y+1/4,-x-1/4,z+1/4
x,-y+1/2,z
y+1/4,x+1/4,z-1/4
loop_
_atom_site_label
_atom_site_type_symbol
_atom_site_fract_x
_atom_site_fract_y
_atom_site_fract_z
_atom_site_occupancy
_atom_site_U_iso_or_equiv
Gd1 Gd 0 0.75 0.125 1 0.0
Ga1 Ga 0 0.25 0.5396 0.636 0.0
Ge1 Ge 0 0.25 0.5396 0.364 0.0
