#------------------------------------------------------------------------------
#$Date: 2016-02-13 21:28:24 +0200 (Sat, 13 Feb 2016) $
#$Revision: 176429 $
#$URL: svn://www.crystallography.net/cod/cif/1/52/28/1522881.cif $
#------------------------------------------------------------------------------
#
# This file is available in the Crystallography Open Database (COD),
# http://www.crystallography.net/
#
# All data on this site have been placed in the public domain by the
# contributors.
#
data_1522881
loop_
_publ_author_name
'Sekizawa, K.'
'Watanabe, T.'
'Yasukochi, K.'
_publ_section_title
;
 Strucural transformation and magnetic properties of (Gd1-x Rx) Tl and Gd
 (Tl1-y My) systems
;
_journal_name_full               'Journal of Magnetism and Magnetic Materials'
_journal_page_first              181
_journal_page_last               182
_journal_volume                  31
_journal_year                    1983
_chemical_formula_sum            'Gd In0.1 Tl0.9'
_chemical_name_systematic        'Gd (In0.1 Tl0.9)'
_space_group_IT_number           221
_symmetry_space_group_name_Hall  '-P 4 2 3'
_symmetry_space_group_name_H-M   'P m -3 m'
_cell_angle_alpha                90
_cell_angle_beta                 90
_cell_angle_gamma                90
_cell_formula_units_Z            1
_cell_length_a                   3.775
_cell_length_b                   3.775
_cell_length_c                   3.775
_cell_volume                     53.796
_citation_journal_id_ASTM        JMMMDC
_cod_data_source_file            Sekizawa_JMMMDC_1983_431.cif
_cod_data_source_block           Gd1In0.1Tl0.9
_cod_original_cell_volume        53.79611
_cod_original_formula_sum        'Gd1 In0.1 Tl0.9'
_cod_database_code               1522881
loop_
_symmetry_equiv_pos_as_xyz
x,y,z
-y,x,z
-x,-y,z
y,-x,z
x,-y,-z
y,x,-z
-x,y,-z
-y,-x,-z
z,x,y
-x,z,y
-z,-x,y
x,-z,y
z,-x,-y
x,z,-y
-z,x,-y
-x,-z,-y
y,z,x
y,-z,-x
z,y,-x
-y,z,-x
-z,-y,-x
-y,-z,x
z,-y,x
-z,y,x
-x,-y,-z
y,-x,-z
x,y,-z
-y,x,-z
-x,y,z
-y,-x,z
x,-y,z
y,x,z
-z,-x,-y
x,-z,-y
z,x,-y
-x,z,-y
-z,x,y
-x,-z,y
z,-x,y
x,z,y
-y,-z,-x
-y,z,x
-z,-y,x
y,-z,x
z,y,x
y,z,-x
-z,y,-x
z,-y,-x
loop_
_atom_site_label
_atom_site_type_symbol
_atom_site_fract_x
_atom_site_fract_y
_atom_site_fract_z
_atom_site_occupancy
_atom_site_U_iso_or_equiv
Tl1 Tl 0.5 0.5 0.5 0.9 0.0
Gd1 Gd 0 0 0 1 0.0
In1 In 0.5 0.5 0.5 0.1 0.0
