#------------------------------------------------------------------------------
#$Date: 2015-07-10 15:39:44 +0300 (Fri, 10 Jul 2015) $
#$Revision: 142421 $
#$URL: svn://www.crystallography.net/cod/cif/1/52/22/1522200.cif $
#------------------------------------------------------------------------------
#
# This file is available in the Crystallography Open Database (COD),
# http://www.crystallography.net/
#
# All data on this site have been placed in the public domain by the
# contributors.
#
data_1522200
loop_
_publ_author_name
'Kren, E.'
'Kadar, G.'
'Pal, L.'
'Szabo, P.'
_publ_section_title
;
 Investigation of the first-order magnetic transformation in Mn3 Pt
;
_journal_name_full               'Journal of Applied Physics'
_journal_page_first              1265
_journal_page_last               1266
_journal_volume                  38
_journal_year                    1967
_chemical_formula_sum            'Mn3 Pt0.5 Rh0.5'
_chemical_name_systematic        'Mn3 (Pt0.5 Rh0.5)'
_space_group_IT_number           221
_symmetry_space_group_name_Hall  '-P 4 2 3'
_symmetry_space_group_name_H-M   'P m -3 m'
_cell_angle_alpha                90
_cell_angle_beta                 90
_cell_angle_gamma                90
_cell_formula_units_Z            1
_cell_length_a                   3.82
_cell_length_b                   3.82
_cell_length_c                   3.82
_cell_volume                     55.743
_citation_journal_id_ASTM        JAPIAU
_cod_data_source_file            Kren_JAPIAU_1967_1157.cif
_cod_data_source_block           Mn3Pt0.5Rh0.5
_cod_original_cell_volume        55.74297
_cod_database_code               1522200
loop_
_symmetry_equiv_pos_as_xyz
x,y,z
-y,x,z
-x,-y,z
y,-x,z
x,-y,-z
y,x,-z
-x,y,-z
-y,-x,-z
z,x,y
-x,z,y
-z,-x,y
x,-z,y
z,-x,-y
x,z,-y
-z,x,-y
-x,-z,-y
y,z,x
y,-z,-x
z,y,-x
-y,z,-x
-z,-y,-x
-y,-z,x
z,-y,x
-z,y,x
-x,-y,-z
y,-x,-z
x,y,-z
-y,x,-z
-x,y,z
-y,-x,z
x,-y,z
y,x,z
-z,-x,-y
x,-z,-y
z,x,-y
-x,z,-y
-z,x,y
-x,-z,y
z,-x,y
x,z,y
-y,-z,-x
-y,z,x
-z,-y,x
y,-z,x
z,y,x
y,z,-x
-z,y,-x
z,-y,-x
loop_
_atom_site_label
_atom_site_type_symbol
_atom_site_fract_x
_atom_site_fract_y
_atom_site_fract_z
_atom_site_occupancy
_atom_site_U_iso_or_equiv
Mn1 Mn 0 0.5 0.5 1 0.0
Pt1 Pt 0 0 0 0.5 0.0
Rh1 Rh 0 0 0 0.5 0.0
