#------------------------------------------------------------------------------
#$Date: 2016-02-13 21:28:24 +0200 (Sat, 13 Feb 2016) $
#$Revision: 176429 $
#$URL: svn://www.crystallography.net/cod/cif/1/52/26/1522670.cif $
#------------------------------------------------------------------------------
#
# This file is available in the Crystallography Open Database (COD),
# http://www.crystallography.net/
#
# All data on this site have been placed in the public domain by the
# contributors.
#
data_1522670
loop_
_publ_author_name
'Parker, F.T.'
'Oesterreicher, H.'
_publ_section_title
;
 Intrinsic hardness and mictomagnetism in selected R Mn5c Ni5-5c (R= rare
 earth)
;
_journal_name_full               'Journal of Magnetism and Magnetic Materials'
_journal_page_first              195
_journal_page_last               207
_journal_volume                  36
_journal_year                    1983
_chemical_formula_sum            'Gd Mn Ni4'
_chemical_name_systematic        'Gd (Mn0.2 Ni0.8)5'
_space_group_IT_number           191
_symmetry_space_group_name_Hall  '-P 6 2'
_symmetry_space_group_name_H-M   'P 6/m m m'
_cell_angle_alpha                90
_cell_angle_beta                 90
_cell_angle_gamma                120
_cell_formula_units_Z            1
_cell_length_a                   4.97
_cell_length_b                   4.97
_cell_length_c                   4.05
_cell_volume                     86.636
_citation_journal_id_ASTM        JMMMDC
_cod_data_source_file            Parker_JMMMDC_1983_443.cif
_cod_data_source_block           Gd1Mn1Ni4
_cod_original_formula_sum        'Gd1 Mn1 Ni4'
_cod_database_code               1522670
loop_
_symmetry_equiv_pos_as_xyz
x,y,z
x-y,x,z
-y,x-y,z
-x,-y,z
-x+y,-x,z
y,-x+y,z
-y,-x,-z
x-y,-y,-z
x,x-y,-z
y,x,-z
-x+y,y,-z
-x,-x+y,-z
-x,-y,-z
-x+y,-x,-z
y,-x+y,-z
x,y,-z
x-y,x,-z
-y,x-y,-z
y,x,z
-x+y,y,z
-x,-x+y,z
-y,-x,z
x-y,-y,z
x,x-y,z
loop_
_atom_site_label
_atom_site_type_symbol
_atom_site_fract_x
_atom_site_fract_y
_atom_site_fract_z
_atom_site_occupancy
_atom_site_U_iso_or_equiv
Mn1 Mn 0.3333 0.6667 0 0.2 0.0
Ni1 Ni 0.3333 0.6667 0 0.8 0.0
Mn2 Mn 0.5 0 0.5 0.2 0.0
Gd1 Gd 0 0 0 1 0.0
Ni2 Ni 0.5 0 0.5 0.8 0.0
