#------------------------------------------------------------------------------
#$Date: 2015-07-10 22:17:26 +0300 (Fri, 10 Jul 2015) $
#$Revision: 143107 $
#$URL: svn://www.crystallography.net/cod/cif/1/52/28/1522824.cif $
#------------------------------------------------------------------------------
#
# This file is available in the Crystallography Open Database (COD),
# http://www.crystallography.net/
#
# All data on this site have been placed in the public domain by the
# contributors.
#
data_1522824
loop_
_publ_author_name
'Sari, C.'
'Vernazza, F.'
'Mueller, W.'
_publ_section_title
;
 Intermetallic compounds of uranium and plutonium with tin
;
_journal_name_full               'Journal of the Less-Common Metals'
_journal_page_first              301
_journal_page_last               306
_journal_volume                  92
_journal_year                    1983
_chemical_formula_sum            'Pu0.5 Sn3 U0.5'
_chemical_name_systematic        '(Pu0.5 U0.5) Sn3'
_space_group_IT_number           221
_symmetry_space_group_name_Hall  '-P 4 2 3'
_symmetry_space_group_name_H-M   'P m -3 m'
_cell_angle_alpha                90
_cell_angle_beta                 90
_cell_angle_gamma                90
_cell_formula_units_Z            1
_cell_length_a                   4.6181
_cell_length_b                   4.6181
_cell_length_c                   4.6181
_cell_volume                     98.490
_citation_journal_id_ASTM        JCOMAH
_cod_data_source_file            Sari_JCOMAH_1983_1903.cif
_cod_data_source_block           Pu0.5Sn3U0.5
_cod_original_cell_volume        98.48952
_cod_database_code               1522824
loop_
_symmetry_equiv_pos_as_xyz
x,y,z
-y,x,z
-x,-y,z
y,-x,z
x,-y,-z
y,x,-z
-x,y,-z
-y,-x,-z
z,x,y
-x,z,y
-z,-x,y
x,-z,y
z,-x,-y
x,z,-y
-z,x,-y
-x,-z,-y
y,z,x
y,-z,-x
z,y,-x
-y,z,-x
-z,-y,-x
-y,-z,x
z,-y,x
-z,y,x
-x,-y,-z
y,-x,-z
x,y,-z
-y,x,-z
-x,y,z
-y,-x,z
x,-y,z
y,x,z
-z,-x,-y
x,-z,-y
z,x,-y
-x,z,-y
-z,x,y
-x,-z,y
z,-x,y
x,z,y
-y,-z,-x
-y,z,x
-z,-y,x
y,-z,x
z,y,x
y,z,-x
-z,y,-x
z,-y,-x
loop_
_atom_site_label
_atom_site_type_symbol
_atom_site_fract_x
_atom_site_fract_y
_atom_site_fract_z
_atom_site_occupancy
_atom_site_U_iso_or_equiv
U1 U 0 0 0 0.5 0.0
Sn1 Sn 0 0.5 0.5 1 0.0
Pu1 Pu 0 0 0 0.5 0.0
