#------------------------------------------------------------------------------
#$Date: 2015-07-10 15:32:56 +0300 (Fri, 10 Jul 2015) $
#$Revision: 142390 $
#$URL: svn://www.crystallography.net/cod/cif/1/52/21/1522170.cif $
#------------------------------------------------------------------------------
#
# This file is available in the Crystallography Open Database (COD),
# http://www.crystallography.net/
#
# All data on this site have been placed in the public domain by the
# contributors.
#
data_1522170
loop_
_publ_author_name
'Kopetskii, C.V.'
'Pavlyuchenko, A.V.'
_publ_section_title
;
 Superconductivity of some alloys of the systems Nb3 Ga - Nb3 Pt and V3 Ga
 - V3 Pt
;
_journal_name_full               'Fizika Metallov i Metallovedenie'
_journal_page_first              498
_journal_page_last               502
_journal_volume                  43
_journal_year                    1977
_chemical_formula_sum            'Ga0.29 Pt0.71 V3'
_chemical_name_systematic        '(Ga0.29 Pt0.71) V3'
_space_group_IT_number           223
_symmetry_space_group_name_Hall  '-P 4n 2 3'
_symmetry_space_group_name_H-M   'P m -3 n'
_cell_angle_alpha                90
_cell_angle_beta                 90
_cell_angle_gamma                90
_cell_formula_units_Z            2
_cell_length_a                   4.814
_cell_length_b                   4.814
_cell_length_c                   4.814
_cell_volume                     111.563
_citation_journal_id_ASTM        FMMTAK
_cod_data_source_file            Kopetskii_FMMTAK_1977_322.cif
_cod_data_source_block           Ga0.29Pt0.71V3
_cod_original_cell_volume        111.5625
_cod_database_code               1522170
loop_
_symmetry_equiv_pos_as_xyz
x,y,z
-y+1/2,x+1/2,z+1/2
-x,-y,z
y+1/2,-x+1/2,z+1/2
x,-y,-z
y+1/2,x+1/2,-z+1/2
-x,y,-z
-y+1/2,-x+1/2,-z+1/2
z,x,y
-x+1/2,z+1/2,y+1/2
-z,-x,y
x+1/2,-z+1/2,y+1/2
z,-x,-y
x+1/2,z+1/2,-y+1/2
-z,x,-y
-x+1/2,-z+1/2,-y+1/2
y,z,x
y,-z,-x
z+1/2,y+1/2,-x+1/2
-y,z,-x
-z+1/2,-y+1/2,-x+1/2
-y,-z,x
z+1/2,-y+1/2,x+1/2
-z+1/2,y+1/2,x+1/2
-x,-y,-z
y-1/2,-x-1/2,-z-1/2
x,y,-z
-y-1/2,x-1/2,-z-1/2
-x,y,z
-y-1/2,-x-1/2,z-1/2
x,-y,z
y-1/2,x-1/2,z-1/2
-z,-x,-y
x-1/2,-z-1/2,-y-1/2
z,x,-y
-x-1/2,z-1/2,-y-1/2
-z,x,y
-x-1/2,-z-1/2,y-1/2
z,-x,y
x-1/2,z-1/2,y-1/2
-y,-z,-x
-y,z,x
-z-1/2,-y-1/2,x-1/2
y,-z,x
z-1/2,y-1/2,x-1/2
y,z,-x
-z-1/2,y-1/2,-x-1/2
z-1/2,-y-1/2,-x-1/2
loop_
_atom_site_label
_atom_site_type_symbol
_atom_site_fract_x
_atom_site_fract_y
_atom_site_fract_z
_atom_site_occupancy
_atom_site_U_iso_or_equiv
Pt1 Pt 0 0 0 0.71 0.0
Ga1 Ga 0 0 0 0.29 0.0
V1 V 0.25 0 0.5 1 0.0
