#------------------------------------------------------------------------------
#$Date: 2015-07-10 22:33:59 +0300 (Fri, 10 Jul 2015) $
#$Revision: 143168 $
#$URL: svn://www.crystallography.net/cod/cif/1/52/28/1522879.cif $
#------------------------------------------------------------------------------
#
# This file is available in the Crystallography Open Database (COD),
# http://www.crystallography.net/
#
# All data on this site have been placed in the public domain by the
# contributors.
#
data_1522879
loop_
_publ_author_name
'Sechovsky, V.'
'Svoboda, P.'
'Havela, L.'
'Andreev, A.V.'
_publ_section_title
;
 The loss of ferromagnetism in(U X) Ga2 (X= Y, Gd)
;
_journal_name_full               'Journal of the Less-Common Metals'
_journal_page_first              163
_journal_page_last               167
_journal_volume                  121
_journal_year                    1986
_chemical_formula_sum            'Ga2 U0.6 Y0.4'
_chemical_name_systematic        'Ga2 (U0.6 Y0.4)'
_space_group_IT_number           191
_symmetry_space_group_name_Hall  '-P 6 2'
_symmetry_space_group_name_H-M   'P 6/m m m'
_cell_angle_alpha                90
_cell_angle_beta                 90
_cell_angle_gamma                120
_cell_formula_units_Z            1
_cell_length_a                   4.207
_cell_length_b                   4.207
_cell_length_c                   4.03
_cell_volume                     61.770
_citation_journal_id_ASTM        JCOMAH
_cod_data_source_file            Sechovsky_JCOMAH_1986_399.cif
_cod_data_source_block           Ga2U0.6Y0.4
_cod_original_cell_volume        61.77044
_cod_database_code               1522879
loop_
_symmetry_equiv_pos_as_xyz
x,y,z
x-y,x,z
-y,x-y,z
-x,-y,z
-x+y,-x,z
y,-x+y,z
-y,-x,-z
x-y,-y,-z
x,x-y,-z
y,x,-z
-x+y,y,-z
-x,-x+y,-z
-x,-y,-z
-x+y,-x,-z
y,-x+y,-z
x,y,-z
x-y,x,-z
-y,x-y,-z
y,x,z
-x+y,y,z
-x,-x+y,z
-y,-x,z
x-y,-y,z
x,x-y,z
loop_
_atom_site_label
_atom_site_type_symbol
_atom_site_fract_x
_atom_site_fract_y
_atom_site_fract_z
_atom_site_occupancy
_atom_site_U_iso_or_equiv
U1 U 0 0 0 0.6 0.0
Y1 Y 0 0 0 0.4 0.0
Ga1 Ga 0.3333 0.6667 0.5 1 0.0
