#------------------------------------------------------------------------------
#$Date: 2016-02-13 21:28:24 +0200 (Sat, 13 Feb 2016) $
#$Revision: 176429 $
#$URL: svn://www.crystallography.net/cod/cif/1/52/24/1522436.cif $
#------------------------------------------------------------------------------
#
# This file is available in the Crystallography Open Database (COD),
# http://www.crystallography.net/
#
# All data on this site have been placed in the public domain by the
# contributors.
#
data_1522436
loop_
_publ_author_name
'Marazza, R.'
'Rambaldi, G.'
'Ferro, R.'
_publ_section_title
;
 Fasi intermetalliche ternarie, a rapporto stechiometrico 1:1:2, di
 struttura tipo Cs Cl o tipo Al Cu2 Mn
;
_journal_name_full
;
Atti della Accademia Nazionale dei Lincei, Classe di Scienze Fisiche, 
Matematiche e Naturali, Rendiconti, Serie 8 (1, 1946-)
;
_journal_page_first              518
_journal_page_last               521
_journal_volume                  55
_journal_year                    1973
_chemical_formula_sum            'Hf0.5 In0.5 Ni'
_chemical_name_systematic        '(Hf0.5 In0.5) Ni'
_space_group_IT_number           221
_symmetry_space_group_name_Hall  '-P 4 2 3'
_symmetry_space_group_name_H-M   'P m -3 m'
_cell_angle_alpha                90
_cell_angle_beta                 90
_cell_angle_gamma                90
_cell_formula_units_Z            1
_cell_length_a                   3.127
_cell_length_b                   3.127
_cell_length_c                   3.127
_cell_volume                     30.576
_citation_journal_id_ASTM        AANL8V
_cod_data_source_file            Marazza_AANL8V_1973_541.cif
_cod_data_source_block           Hf0.5In0.5Ni1
_cod_original_cell_volume        30.57621
_cod_original_formula_sum        'Hf0.5 In0.5 Ni1'
_cod_database_code               1522436
loop_
_symmetry_equiv_pos_as_xyz
x,y,z
-y,x,z
-x,-y,z
y,-x,z
x,-y,-z
y,x,-z
-x,y,-z
-y,-x,-z
z,x,y
-x,z,y
-z,-x,y
x,-z,y
z,-x,-y
x,z,-y
-z,x,-y
-x,-z,-y
y,z,x
y,-z,-x
z,y,-x
-y,z,-x
-z,-y,-x
-y,-z,x
z,-y,x
-z,y,x
-x,-y,-z
y,-x,-z
x,y,-z
-y,x,-z
-x,y,z
-y,-x,z
x,-y,z
y,x,z
-z,-x,-y
x,-z,-y
z,x,-y
-x,z,-y
-z,x,y
-x,-z,y
z,-x,y
x,z,y
-y,-z,-x
-y,z,x
-z,-y,x
y,-z,x
z,y,x
y,z,-x
-z,y,-x
z,-y,-x
loop_
_atom_site_label
_atom_site_type_symbol
_atom_site_fract_x
_atom_site_fract_y
_atom_site_fract_z
_atom_site_occupancy
_atom_site_U_iso_or_equiv
In1 In 0 0 0 0.5 0.0
Ni1 Ni 0.5 0.5 0.5 1 0.0
Hf1 Hf 0 0 0 0.5 0.0
