#------------------------------------------------------------------------------
#$Date: 2016-02-13 21:28:24 +0200 (Sat, 13 Feb 2016) $
#$Revision: 176429 $
#$URL: svn://www.crystallography.net/cod/cif/1/52/21/1522198.cif $
#------------------------------------------------------------------------------
#
# This file is available in the Crystallography Open Database (COD),
# http://www.crystallography.net/
#
# All data on this site have been placed in the public domain by the
# contributors.
#
data_1522198
loop_
_publ_author_name
'Kreidenko, F.S.'
'Markiv, V.Ya.'
'Sokolovskaya, E.M.'
_publ_section_title
;
 Phase equilibria in the Nb-V-Ga system at 800 deg. C
;
_journal_name_full               'Vestnik Moskovskogo Universiteta, Khimiya'
_journal_page_first              748
_journal_page_last               750
_journal_volume                  15
_journal_year                    1974
_chemical_formula_sum            'Ga Nb1.8 V1.2'
_chemical_name_systematic        'Ga (Nb0.6 V0.4)3'
_space_group_IT_number           223
_symmetry_space_group_name_Hall  '-P 4n 2 3'
_symmetry_space_group_name_H-M   'P m -3 n'
_cell_angle_alpha                90
_cell_angle_beta                 90
_cell_angle_gamma                90
_cell_formula_units_Z            2
_cell_length_a                   5.05
_cell_length_b                   5.05
_cell_length_c                   5.05
_cell_volume                     128.788
_citation_journal_id_ASTM        VMUKA5
_cod_data_source_file            Kreidenko_VMUKA5_1974_247.cif
_cod_data_source_block           Ga1Nb1.8V1.2
_cod_original_cell_volume        128.7876
_cod_original_formula_sum        'Ga1 Nb1.8 V1.2'
_cod_database_code               1522198
loop_
_symmetry_equiv_pos_as_xyz
x,y,z
-y+1/2,x+1/2,z+1/2
-x,-y,z
y+1/2,-x+1/2,z+1/2
x,-y,-z
y+1/2,x+1/2,-z+1/2
-x,y,-z
-y+1/2,-x+1/2,-z+1/2
z,x,y
-x+1/2,z+1/2,y+1/2
-z,-x,y
x+1/2,-z+1/2,y+1/2
z,-x,-y
x+1/2,z+1/2,-y+1/2
-z,x,-y
-x+1/2,-z+1/2,-y+1/2
y,z,x
y,-z,-x
z+1/2,y+1/2,-x+1/2
-y,z,-x
-z+1/2,-y+1/2,-x+1/2
-y,-z,x
z+1/2,-y+1/2,x+1/2
-z+1/2,y+1/2,x+1/2
-x,-y,-z
y-1/2,-x-1/2,-z-1/2
x,y,-z
-y-1/2,x-1/2,-z-1/2
-x,y,z
-y-1/2,-x-1/2,z-1/2
x,-y,z
y-1/2,x-1/2,z-1/2
-z,-x,-y
x-1/2,-z-1/2,-y-1/2
z,x,-y
-x-1/2,z-1/2,-y-1/2
-z,x,y
-x-1/2,-z-1/2,y-1/2
z,-x,y
x-1/2,z-1/2,y-1/2
-y,-z,-x
-y,z,x
-z-1/2,-y-1/2,x-1/2
y,-z,x
z-1/2,y-1/2,x-1/2
y,z,-x
-z-1/2,y-1/2,-x-1/2
z-1/2,-y-1/2,-x-1/2
loop_
_atom_site_label
_atom_site_type_symbol
_atom_site_fract_x
_atom_site_fract_y
_atom_site_fract_z
_atom_site_occupancy
_atom_site_U_iso_or_equiv
V1 V 0.25 0 0.5 0.4 0.0
Nb1 Nb 0.25 0 0.5 0.6 0.0
Ga1 Ga 0 0 0 1 0.0
