#------------------------------------------------------------------------------
#$Date: 2016-02-13 21:28:24 +0200 (Sat, 13 Feb 2016) $
#$Revision: 176429 $
#$URL: svn://www.crystallography.net/cod/cif/1/52/23/1522378.cif $
#------------------------------------------------------------------------------
#
# This file is available in the Crystallography Open Database (COD),
# http://www.crystallography.net/
#
# All data on this site have been placed in the public domain by the
# contributors.
#
data_1522378
loop_
_publ_author_name
'Lin, C.L.'
'Zhou, L.-W.'
'Crow, J.E.'
'Guertin, R.P.'
_publ_section_title
;
 Magnetic to non-magnetic behavior in U (Sn, Pb)3
;
_journal_name_full               'Journal of Applied Physics'
_journal_page_first              3146
_journal_page_last               3148
_journal_volume                  57
_journal_year                    1985
_chemical_formula_sum            'Pb1.5 Sn1.5 U'
_chemical_name_systematic        '(Pb0.5 Sn0.5)3 U'
_space_group_IT_number           221
_symmetry_space_group_name_Hall  '-P 4 2 3'
_symmetry_space_group_name_H-M   'P m -3 m'
_cell_angle_alpha                90
_cell_angle_beta                 90
_cell_angle_gamma                90
_cell_formula_units_Z            1
_cell_length_a                   4.7085
_cell_length_b                   4.7085
_cell_length_c                   4.7085
_cell_volume                     104.387
_citation_journal_id_ASTM        JAPIAU
_cod_data_source_file            Lin_JAPIAU_1985_1702.cif
_cod_data_source_block           Pb1.5Sn1.5U1
_cod_original_cell_volume        104.3873
_cod_original_formula_sum        'Pb1.5 Sn1.5 U1'
_cod_database_code               1522378
loop_
_symmetry_equiv_pos_as_xyz
x,y,z
-y,x,z
-x,-y,z
y,-x,z
x,-y,-z
y,x,-z
-x,y,-z
-y,-x,-z
z,x,y
-x,z,y
-z,-x,y
x,-z,y
z,-x,-y
x,z,-y
-z,x,-y
-x,-z,-y
y,z,x
y,-z,-x
z,y,-x
-y,z,-x
-z,-y,-x
-y,-z,x
z,-y,x
-z,y,x
-x,-y,-z
y,-x,-z
x,y,-z
-y,x,-z
-x,y,z
-y,-x,z
x,-y,z
y,x,z
-z,-x,-y
x,-z,-y
z,x,-y
-x,z,-y
-z,x,y
-x,-z,y
z,-x,y
x,z,y
-y,-z,-x
-y,z,x
-z,-y,x
y,-z,x
z,y,x
y,z,-x
-z,y,-x
z,-y,-x
loop_
_atom_site_label
_atom_site_type_symbol
_atom_site_fract_x
_atom_site_fract_y
_atom_site_fract_z
_atom_site_occupancy
_atom_site_U_iso_or_equiv
U1 U 0 0 0 1 0.0
Sn1 Sn 0 0.5 0.5 0.5 0.0
Pb1 Pb 0 0.5 0.5 0.5 0.0
