#------------------------------------------------------------------------------
#$Date: 2018-09-27 07:13:35 +0300 (Thu, 27 Sep 2018) $
#$Revision: 211196 $
#$URL: file:///home/coder/svn-repositories/cod/cif/1/52/28/1522838.cif $
#------------------------------------------------------------------------------
#
# This file is available in the Crystallography Open Database (COD),
# http://www.crystallography.net/
#
# All data on this site have been placed in the public domain by the
# contributors.
#
data_1522838
loop_
_publ_author_name
'Schaefer, W.'
'Kockelmann, W.'
'Will, G.'
'Gal, J.'
'Fischer, P.'
_publ_section_title
;
 Atomic distribution in R Fex Al12-x compounds with R = Tb, Dy, Ho, Er, Tm
 and Fe-concentrations x=5 studied by neutron diffraction
;
_journal_name_full               'Journal of Alloys Compd.'
_journal_page_first              316
_journal_page_last               320
_journal_volume                  207
_journal_year                    1994
_chemical_formula_sum            'Al7 Fe5 Ho'
_space_group_IT_number           139
_symmetry_space_group_name_Hall  '-I 4 2'
_symmetry_space_group_name_H-M   'I 4/m m m'
_cell_angle_alpha                90
_cell_angle_beta                 90
_cell_angle_gamma                90
_cell_formula_units_Z            2
_cell_length_a                   8.663
_cell_length_b                   8.663
_cell_length_c                   5.029
_cell_volume                     377.414
_citation_journal_id_ASTM        JALCEU
_cod_data_source_file            Schaefer_JALCEU_1994_1318.cif
_cod_data_source_block           Al7Fe5Ho1
_cod_original_cell_volume        377.4142
_cod_original_formula_sum        'Al7 Fe5 Ho1'
_cod_database_code               1522838
loop_
_symmetry_equiv_pos_as_xyz
x,y,z
-y,x,z
-x,-y,z
y,-x,z
x,-y,-z
y,x,-z
-x,y,-z
-y,-x,-z
-x,-y,-z
y,-x,-z
x,y,-z
-y,x,-z
-x,y,z
-y,-x,z
x,-y,z
y,x,z
x+1/2,y+1/2,z+1/2
-y+1/2,x+1/2,z+1/2
-x+1/2,-y+1/2,z+1/2
y+1/2,-x+1/2,z+1/2
x+1/2,-y+1/2,-z+1/2
y+1/2,x+1/2,-z+1/2
-x+1/2,y+1/2,-z+1/2
-y+1/2,-x+1/2,-z+1/2
-x+1/2,-y+1/2,-z+1/2
y+1/2,-x+1/2,-z+1/2
x+1/2,y+1/2,-z+1/2
-y+1/2,x+1/2,-z+1/2
-x+1/2,y+1/2,z+1/2
-y+1/2,-x+1/2,z+1/2
x+1/2,-y+1/2,z+1/2
y+1/2,x+1/2,z+1/2
loop_
_atom_site_label
_atom_site_type_symbol
_atom_site_fract_x
_atom_site_fract_y
_atom_site_fract_z
_atom_site_occupancy
_atom_site_U_iso_or_equiv
Fe2 Fe 0.276 0.5 0 0.21 0.0
Ho1 Ho 0 0 0 1 0.0
Al2 Al 0.276 0.5 0 0.79 0.0
Fe1 Fe 0.341 0 0 0.03 0.0
Al1 Al 0.341 0 0 0.97 0.0
Fe3 Fe 0.25 0.25 0.25 1 0.0
