#------------------------------------------------------------------------------
#$Date: 2015-07-10 22:06:01 +0300 (Fri, 10 Jul 2015) $
#$Revision: 143067 $
#$URL: svn://www.crystallography.net/cod/cif/1/52/27/1522786.cif $
#------------------------------------------------------------------------------
#
# This file is available in the Crystallography Open Database (COD),
# http://www.crystallography.net/
#
# All data on this site have been placed in the public domain by the
# contributors.
#
data_1522786
loop_
_publ_author_name
'Roeschel, E.'
'Raub, C.J.'
_publ_section_title
;
 Supraleitung ternaerer A15-Phasen des Vanadiums
;
_journal_name_full               'Metall (Berlin)'
_journal_page_first              29
_journal_page_last               34
_journal_volume                  26
_journal_year                    1972
_chemical_formula_sum            'Ga0.2 Si0.8 V3'
_chemical_name_systematic        '(Ga0.2 Si0.8) V3'
_space_group_IT_number           223
_symmetry_space_group_name_Hall  '-P 4n 2 3'
_symmetry_space_group_name_H-M   'P m -3 n'
_cell_angle_alpha                90
_cell_angle_beta                 90
_cell_angle_gamma                90
_cell_formula_units_Z            2
_cell_length_a                   4.754
_cell_length_b                   4.754
_cell_length_c                   4.754
_cell_volume                     107.443
_citation_journal_id_ASTM        MTLLAF
_cod_data_source_file            Roeschel_MTLLAF_1972_353.cif
_cod_data_source_block           Ga0.2Si0.8V3
_cod_original_cell_volume        107.4429
_cod_database_code               1522786
loop_
_symmetry_equiv_pos_as_xyz
x,y,z
-y+1/2,x+1/2,z+1/2
-x,-y,z
y+1/2,-x+1/2,z+1/2
x,-y,-z
y+1/2,x+1/2,-z+1/2
-x,y,-z
-y+1/2,-x+1/2,-z+1/2
z,x,y
-x+1/2,z+1/2,y+1/2
-z,-x,y
x+1/2,-z+1/2,y+1/2
z,-x,-y
x+1/2,z+1/2,-y+1/2
-z,x,-y
-x+1/2,-z+1/2,-y+1/2
y,z,x
y,-z,-x
z+1/2,y+1/2,-x+1/2
-y,z,-x
-z+1/2,-y+1/2,-x+1/2
-y,-z,x
z+1/2,-y+1/2,x+1/2
-z+1/2,y+1/2,x+1/2
-x,-y,-z
y-1/2,-x-1/2,-z-1/2
x,y,-z
-y-1/2,x-1/2,-z-1/2
-x,y,z
-y-1/2,-x-1/2,z-1/2
x,-y,z
y-1/2,x-1/2,z-1/2
-z,-x,-y
x-1/2,-z-1/2,-y-1/2
z,x,-y
-x-1/2,z-1/2,-y-1/2
-z,x,y
-x-1/2,-z-1/2,y-1/2
z,-x,y
x-1/2,z-1/2,y-1/2
-y,-z,-x
-y,z,x
-z-1/2,-y-1/2,x-1/2
y,-z,x
z-1/2,y-1/2,x-1/2
y,z,-x
-z-1/2,y-1/2,-x-1/2
z-1/2,-y-1/2,-x-1/2
loop_
_atom_site_label
_atom_site_type_symbol
_atom_site_fract_x
_atom_site_fract_y
_atom_site_fract_z
_atom_site_occupancy
_atom_site_U_iso_or_equiv
Si1 Si 0 0 0 0.8 0.0
Ga1 Ga 0 0 0 0.2 0.0
V1 V 0.25 0 0.5 1 0.0
