#------------------------------------------------------------------------------
#$Date: 2018-09-27 07:13:35 +0300 (Thu, 27 Sep 2018) $
#$Revision: 211196 $
#$URL: file:///home/coder/svn-repositories/cod/cif/1/52/25/1522536.cif $
#------------------------------------------------------------------------------
#
# This file is available in the Crystallography Open Database (COD),
# http://www.crystallography.net/
#
# All data on this site have been placed in the public domain by the
# contributors.
#
data_1522536
loop_
_publ_author_name
'Miraglia, S.'
'Marezio, M.'
'Hodeau, J.L.'
'Espinosa, G.P.'
'Ghedira, M.'
'Laviron, C.'
_publ_section_title
;
 Nature of the structural distortion and of the chemical bonding in Sn M3
 Rh4 Sn12 (M= La-Gd, Yb, Ca, Sr and Th)
;
_journal_name_full               'Journal of Solid State Chemistry'
_journal_page_first              358
_journal_page_last               368
_journal_volume                  63
_journal_year                    1986
_chemical_formula_sum            'Gd3 Rh4 Sn13'
_space_group_IT_number           223
_symmetry_space_group_name_Hall  '-P 4n 2 3'
_symmetry_space_group_name_H-M   'P m -3 n'
_cell_angle_alpha                90
_cell_angle_beta                 90
_cell_angle_gamma                90
_cell_formula_units_Z            2
_cell_length_a                   9.638
_cell_length_b                   9.638
_cell_length_c                   9.638
_cell_volume                     895.284
_citation_journal_id_ASTM        JSSCBI
_cod_data_source_file            Miraglia_JSSCBI_1986_486.cif
_cod_data_source_block           Gd3Rh4Sn13
_cod_original_cell_volume        895.2838
_cod_database_code               1522536
loop_
_symmetry_equiv_pos_as_xyz
x,y,z
-y+1/2,x+1/2,z+1/2
-x,-y,z
y+1/2,-x+1/2,z+1/2
x,-y,-z
y+1/2,x+1/2,-z+1/2
-x,y,-z
-y+1/2,-x+1/2,-z+1/2
z,x,y
-x+1/2,z+1/2,y+1/2
-z,-x,y
x+1/2,-z+1/2,y+1/2
z,-x,-y
x+1/2,z+1/2,-y+1/2
-z,x,-y
-x+1/2,-z+1/2,-y+1/2
y,z,x
y,-z,-x
z+1/2,y+1/2,-x+1/2
-y,z,-x
-z+1/2,-y+1/2,-x+1/2
-y,-z,x
z+1/2,-y+1/2,x+1/2
-z+1/2,y+1/2,x+1/2
-x,-y,-z
y-1/2,-x-1/2,-z-1/2
x,y,-z
-y-1/2,x-1/2,-z-1/2
-x,y,z
-y-1/2,-x-1/2,z-1/2
x,-y,z
y-1/2,x-1/2,z-1/2
-z,-x,-y
x-1/2,-z-1/2,-y-1/2
z,x,-y
-x-1/2,z-1/2,-y-1/2
-z,x,y
-x-1/2,-z-1/2,y-1/2
z,-x,y
x-1/2,z-1/2,y-1/2
-y,-z,-x
-y,z,x
-z-1/2,-y-1/2,x-1/2
y,-z,x
z-1/2,y-1/2,x-1/2
y,z,-x
-z-1/2,y-1/2,-x-1/2
z-1/2,-y-1/2,-x-1/2
loop_
_atom_site_label
_atom_site_type_symbol
_atom_site_fract_x
_atom_site_fract_y
_atom_site_fract_z
_atom_site_occupancy
_atom_site_U_iso_or_equiv
Rh1 Rh 0.25 0.25 0.25 1 0.0
Sn2 Sn 0 0.30854 0.15332 1 0.0
Gd1 Gd 0.25 0.5 0 1 0.0
Sn1 Sn 0 0 0 1 0.0
