#------------------------------------------------------------------------------
#$Date: 2016-02-13 21:28:24 +0200 (Sat, 13 Feb 2016) $
#$Revision: 176429 $
#$URL: svn://www.crystallography.net/cod/cif/1/52/24/1522463.cif $
#------------------------------------------------------------------------------
#
# This file is available in the Crystallography Open Database (COD),
# http://www.crystallography.net/
#
# All data on this site have been placed in the public domain by the
# contributors.
#
data_1522463
loop_
_publ_author_name
'Markiv, V.Ya.'
'Storozhenko, A.I.'
_publ_section_title
;
 Investigation of the Zr-Ni-Ga and Zr-Cu-Ga systems
;
_journal_name_full               'Izvestiya Akademii Nauk SSSR, Metally'
_journal_page_first              213
_journal_page_last               217
_journal_volume                  1974
_journal_year                    1974
_chemical_formula_sum            'Ga2.49 Ni0.51 Zr'
_chemical_name_systematic        '(Ga0.83 Ni0.17)3 Zr'
_space_group_IT_number           221
_symmetry_space_group_name_Hall  '-P 4 2 3'
_symmetry_space_group_name_H-M   'P m -3 m'
_cell_angle_alpha                90
_cell_angle_beta                 90
_cell_angle_gamma                90
_cell_formula_units_Z            1
_cell_length_a                   4.027
_cell_length_b                   4.027
_cell_length_c                   4.027
_cell_volume                     65.305
_citation_journal_id_ASTM        IZNMAQ
_cod_data_source_file            Markiv_IZNMAQ_1974_187.cif
_cod_data_source_block           Ga2.49Ni0.51Zr1
_cod_original_cell_volume        65.30476
_cod_original_formula_sum        'Ga2.49 Ni0.51 Zr1'
_cod_database_code               1522463
loop_
_symmetry_equiv_pos_as_xyz
x,y,z
-y,x,z
-x,-y,z
y,-x,z
x,-y,-z
y,x,-z
-x,y,-z
-y,-x,-z
z,x,y
-x,z,y
-z,-x,y
x,-z,y
z,-x,-y
x,z,-y
-z,x,-y
-x,-z,-y
y,z,x
y,-z,-x
z,y,-x
-y,z,-x
-z,-y,-x
-y,-z,x
z,-y,x
-z,y,x
-x,-y,-z
y,-x,-z
x,y,-z
-y,x,-z
-x,y,z
-y,-x,z
x,-y,z
y,x,z
-z,-x,-y
x,-z,-y
z,x,-y
-x,z,-y
-z,x,y
-x,-z,y
z,-x,y
x,z,y
-y,-z,-x
-y,z,x
-z,-y,x
y,-z,x
z,y,x
y,z,-x
-z,y,-x
z,-y,-x
loop_
_atom_site_label
_atom_site_type_symbol
_atom_site_fract_x
_atom_site_fract_y
_atom_site_fract_z
_atom_site_occupancy
_atom_site_U_iso_or_equiv
Ga1 Ga 0 0.5 0.5 0.83 0.0
Ni1 Ni 0 0.5 0.5 0.17 0.0
Zr1 Zr 0 0 0 1 0.0
