#------------------------------------------------------------------------------
#$Date: 2016-02-13 21:28:24 +0200 (Sat, 13 Feb 2016) $
#$Revision: 176429 $
#$URL: svn://www.crystallography.net/cod/cif/1/52/22/1522255.cif $
#------------------------------------------------------------------------------
#
# This file is available in the Crystallography Open Database (COD),
# http://www.crystallography.net/
#
# All data on this site have been placed in the public domain by the
# contributors.
#
data_1522255
loop_
_publ_author_name
'Wurth, A.'
'Mewis, A.'
_publ_section_title
;
 Neue Rhodiumverbindungen mit Li Co6 P4 - Struktur
;
_journal_name_full
'Zeitschrift fuer Anorganische und Allgemeine Chemie'
_journal_page_first              449
_journal_page_last               452
_journal_volume                  625
_journal_year                    1999
_chemical_formula_sum            'As4 Ca Rh6'
_chemical_name_systematic        'Ca Rh6 As4'
_space_group_IT_number           187
_symmetry_space_group_name_Hall  'P -6 2'
_symmetry_space_group_name_H-M   'P -6 m 2'
_cell_angle_alpha                90
_cell_angle_beta                 90
_cell_angle_gamma                120
_cell_formula_units_Z            1
_cell_length_a                   7.201
_cell_length_b                   7.201
_cell_length_c                   3.755
_cell_volume                     168.627
_citation_journal_id_ASTM        ZAACAB
_cod_data_source_file            Wurth_ZAACAB_1999_882.cif
_cod_data_source_block           As4Ca1Rh6
_cod_original_cell_volume        168.6267
_cod_original_formula_sum        'As4 Ca1 Rh6'
_cod_database_code               1522255
loop_
_symmetry_equiv_pos_as_xyz
x,y,z
-x+y,-x,-z
-y,x-y,z
x,y,-z
-x+y,-x,z
-y,x-y,-z
-y,-x,-z
-x+y,y,z
x,x-y,-z
-y,-x,z
-x+y,y,-z
x,x-y,z
loop_
_atom_site_label
_atom_site_type_symbol
_atom_site_fract_x
_atom_site_fract_y
_atom_site_fract_z
_atom_site_occupancy
_atom_site_U_iso_or_equiv
Rh1 Rh 0.535 0.465 0 1 0.0
Ca1 Ca 0 0 0 1 0.0
As2 As 0.812 0.188 0.5 1 0.0
As1 As 0.3333 0.6667 0 1 0.0
Rh2 Rh 0.2002 0.7998 0.5 1 0.0
