#------------------------------------------------------------------------------
#$Date: 2016-02-13 21:28:24 +0200 (Sat, 13 Feb 2016) $
#$Revision: 176429 $
#$URL: svn://www.crystallography.net/cod/cif/1/52/20/1522055.cif $
#------------------------------------------------------------------------------
#
# This file is available in the Crystallography Open Database (COD),
# http://www.crystallography.net/
#
# All data on this site have been placed in the public domain by the
# contributors.
#
data_1522055
loop_
_publ_author_name
'Tskhadadze, I.A.'
'Chernyshev, V.V.'
'Streletskii, A.N.'
'Leonov, A.V.'
'Seropegin, Yu.D.'
'Sviridov, I.A.'
'Telegina, I.V.'
'Verbetskii, V.N.'
'Morozkin, A.V.'
_publ_section_title
;
 Gd Ti Ge (Ce Sc Si - type structure) and Gd Ti Ge (Ce Fe Si type
 structure) as the coherent phases with different magnetic and
 hydrogenization properties
;
_journal_name_full               'Materials Research Bulletin'
_journal_page_first              1773
_journal_page_last               1787
_journal_volume                  34
_journal_year                    1999
_chemical_formula_sum            'Gd Ge Ti0.8 Zr0.2'
_chemical_name_systematic        'Gd (Ti0.8 Zr0.2) Ge'
_space_group_IT_number           139
_symmetry_space_group_name_Hall  '-I 4 2'
_symmetry_space_group_name_H-M   'I 4/m m m'
_cell_angle_alpha                90
_cell_angle_beta                 90
_cell_angle_gamma                90
_cell_formula_units_Z            4
_cell_length_a                   4.06
_cell_length_b                   4.06
_cell_length_c                   15.4
_cell_volume                     253.847
_citation_journal_id_ASTM        MRBUAC
_cod_data_source_file            Tskhadadze_MRBUAC_1999_506.cif
_cod_data_source_block           Gd1Ge1Ti0.8Zr0.2
_cod_original_cell_volume        253.8474
_cod_original_formula_sum        'Gd1 Ge1 Ti0.8 Zr0.2'
_cod_database_code               1522055
loop_
_symmetry_equiv_pos_as_xyz
x,y,z
-y,x,z
-x,-y,z
y,-x,z
x,-y,-z
y,x,-z
-x,y,-z
-y,-x,-z
-x,-y,-z
y,-x,-z
x,y,-z
-y,x,-z
-x,y,z
-y,-x,z
x,-y,z
y,x,z
x+1/2,y+1/2,z+1/2
-y+1/2,x+1/2,z+1/2
-x+1/2,-y+1/2,z+1/2
y+1/2,-x+1/2,z+1/2
x+1/2,-y+1/2,-z+1/2
y+1/2,x+1/2,-z+1/2
-x+1/2,y+1/2,-z+1/2
-y+1/2,-x+1/2,-z+1/2
-x+1/2,-y+1/2,-z+1/2
y+1/2,-x+1/2,-z+1/2
x+1/2,y+1/2,-z+1/2
-y+1/2,x+1/2,-z+1/2
-x+1/2,y+1/2,z+1/2
-y+1/2,-x+1/2,z+1/2
x+1/2,-y+1/2,z+1/2
y+1/2,x+1/2,z+1/2
loop_
_atom_site_label
_atom_site_type_symbol
_atom_site_fract_x
_atom_site_fract_y
_atom_site_fract_z
_atom_site_occupancy
_atom_site_U_iso_or_equiv
Ti1 Ti 0 0.5 0 0.8 0.0
Zr1 Zr 0 0.5 0 0.2 0.0
Ge1 Ge 0 0 0.1226 1 0.0
Gd1 Gd 0 0 0.32474 1 0.0
