#------------------------------------------------------------------------------
#$Date: 2016-02-13 21:28:24 +0200 (Sat, 13 Feb 2016) $
#$Revision: 176429 $
#$URL: svn://www.crystallography.net/cod/cif/1/52/28/1522817.cif $
#------------------------------------------------------------------------------
#
# This file is available in the Crystallography Open Database (COD),
# http://www.crystallography.net/
#
# All data on this site have been placed in the public domain by the
# contributors.
#
data_1522817
loop_
_publ_author_name
'Saccone, A.'
'Mazzone, D.'
'Delfino, S.'
_publ_section_title
;
 Ternary solid solutions in systems of rare earths with indium and
 thallium
;
_journal_name_full               'Gazzetta Chimica Italiana'
_journal_page_first              261
_journal_page_last               263
_journal_volume                  113
_journal_year                    1983
_chemical_formula_sum            'Gd In1.5 Tl1.5'
_chemical_name_systematic        'Gd (In0.5 Tl0.5)3'
_space_group_IT_number           221
_symmetry_space_group_name_Hall  '-P 4 2 3'
_symmetry_space_group_name_H-M   'P m -3 m'
_cell_angle_alpha                90
_cell_angle_beta                 90
_cell_angle_gamma                90
_cell_formula_units_Z            1
_cell_length_a                   4.652
_cell_length_b                   4.652
_cell_length_c                   4.652
_cell_volume                     100.674
_citation_journal_id_ASTM        GCITA9
_cod_data_source_file            Saccone_GCITA9_1983_430.cif
_cod_data_source_block           Gd1In1.5Tl1.5
_cod_original_cell_volume        100.6744
_cod_original_formula_sum        'Gd1 In1.5 Tl1.5'
_cod_database_code               1522817
loop_
_symmetry_equiv_pos_as_xyz
x,y,z
-y,x,z
-x,-y,z
y,-x,z
x,-y,-z
y,x,-z
-x,y,-z
-y,-x,-z
z,x,y
-x,z,y
-z,-x,y
x,-z,y
z,-x,-y
x,z,-y
-z,x,-y
-x,-z,-y
y,z,x
y,-z,-x
z,y,-x
-y,z,-x
-z,-y,-x
-y,-z,x
z,-y,x
-z,y,x
-x,-y,-z
y,-x,-z
x,y,-z
-y,x,-z
-x,y,z
-y,-x,z
x,-y,z
y,x,z
-z,-x,-y
x,-z,-y
z,x,-y
-x,z,-y
-z,x,y
-x,-z,y
z,-x,y
x,z,y
-y,-z,-x
-y,z,x
-z,-y,x
y,-z,x
z,y,x
y,z,-x
-z,y,-x
z,-y,-x
loop_
_atom_site_label
_atom_site_type_symbol
_atom_site_fract_x
_atom_site_fract_y
_atom_site_fract_z
_atom_site_occupancy
_atom_site_U_iso_or_equiv
Tl1 Tl 0 0.5 0.5 0.5 0.0
Gd1 Gd 0 0 0 1 0.0
In1 In 0 0.5 0.5 0.5 0.0
