#------------------------------------------------------------------------------
#$Date: 2015-07-10 18:59:09 +0300 (Fri, 10 Jul 2015) $
#$Revision: 142782 $
#$URL: svn://www.crystallography.net/cod/cif/1/52/25/1522542.cif $
#------------------------------------------------------------------------------
#
# This file is available in the Crystallography Open Database (COD),
# http://www.crystallography.net/
#
# All data on this site have been placed in the public domain by the
# contributors.
#
data_1522542
loop_
_publ_author_name
'Mishima, Y.'
'Ochiai, S.'
'Suzuki, T.'
_publ_section_title
;
 Lattice parameters of Ni, Ni3 Al and Ni3 Ga solid solutions with
 additions of transition and B-subgroup elements
;
_journal_name_full               'Acta Metallurgica'
_journal_page_first              1161
_journal_page_last               1169
_journal_volume                  33
_journal_year                    1985
_chemical_formula_sum            'Ga0.5 Ni3 Ti0.5'
_chemical_name_systematic        '(Ga0.5 Ti0.5) Ni3'
_space_group_IT_number           221
_symmetry_space_group_name_Hall  '-P 4 2 3'
_symmetry_space_group_name_H-M   'P m -3 m'
_cell_angle_alpha                90
_cell_angle_beta                 90
_cell_angle_gamma                90
_cell_formula_units_Z            1
_cell_length_a                   3.599
_cell_length_b                   3.599
_cell_length_c                   3.599
_cell_volume                     46.617
_citation_journal_id_ASTM        AMETAR
_cod_data_source_file            Mishima_AMETAR_1985_284.cif
_cod_data_source_block           Ga0.5Ni3Ti0.5
_cod_original_cell_volume        46.61713
_cod_database_code               1522542
loop_
_symmetry_equiv_pos_as_xyz
x,y,z
-y,x,z
-x,-y,z
y,-x,z
x,-y,-z
y,x,-z
-x,y,-z
-y,-x,-z
z,x,y
-x,z,y
-z,-x,y
x,-z,y
z,-x,-y
x,z,-y
-z,x,-y
-x,-z,-y
y,z,x
y,-z,-x
z,y,-x
-y,z,-x
-z,-y,-x
-y,-z,x
z,-y,x
-z,y,x
-x,-y,-z
y,-x,-z
x,y,-z
-y,x,-z
-x,y,z
-y,-x,z
x,-y,z
y,x,z
-z,-x,-y
x,-z,-y
z,x,-y
-x,z,-y
-z,x,y
-x,-z,y
z,-x,y
x,z,y
-y,-z,-x
-y,z,x
-z,-y,x
y,-z,x
z,y,x
y,z,-x
-z,y,-x
z,-y,-x
loop_
_atom_site_label
_atom_site_type_symbol
_atom_site_fract_x
_atom_site_fract_y
_atom_site_fract_z
_atom_site_occupancy
_atom_site_U_iso_or_equiv
Ti1 Ti 0 0 0 0.5 0.0
Ni1 Ni 0 0.5 0.5 1 0.0
Ga1 Ga 0 0 0 0.5 0.0
