#------------------------------------------------------------------------------
#$Date: 2015-07-11 00:52:58 +0300 (Sat, 11 Jul 2015) $
#$Revision: 143609 $
#$URL: svn://www.crystallography.net/cod/cif/1/52/31/1523139.cif $
#------------------------------------------------------------------------------
#
# This file is available in the Crystallography Open Database (COD),
# http://www.crystallography.net/
#
# All data on this site have been placed in the public domain by the
# contributors.
#
data_1523139
loop_
_publ_author_name
'Zheng, C.'
'Dong, C.'
'Qian, J.'
'Ye, Y.'
_publ_section_title
;
 On the synthesis by reduction-diffusion and the properties of La Ni5-x
 Cux alloys
;
_journal_name_full               'Jinshu Xuebao'
_journal_page_first              352
_journal_page_last               358
_journal_volume                  20
_journal_year                    1984
_chemical_formula_sum            'La0.8 Ni5 Ti0.2'
_chemical_name_systematic        '(La0.8 Ti0.2) Ni5'
_space_group_IT_number           191
_symmetry_space_group_name_Hall  '-P 6 2'
_symmetry_space_group_name_H-M   'P 6/m m m'
_cell_angle_alpha                90
_cell_angle_beta                 90
_cell_angle_gamma                120
_cell_formula_units_Z            1
_cell_length_a                   5.034
_cell_length_b                   5.034
_cell_length_c                   3.995
_cell_volume                     87.675
_citation_journal_id_ASTM        CHSPA4
_cod_data_source_file            Zheng_CHSPA4_1984_918.cif
_cod_data_source_block           La0.8Ni5Ti0.2
_cod_original_cell_volume        87.67461
_cod_database_code               1523139
loop_
_symmetry_equiv_pos_as_xyz
x,y,z
x-y,x,z
-y,x-y,z
-x,-y,z
-x+y,-x,z
y,-x+y,z
-y,-x,-z
x-y,-y,-z
x,x-y,-z
y,x,-z
-x+y,y,-z
-x,-x+y,-z
-x,-y,-z
-x+y,-x,-z
y,-x+y,-z
x,y,-z
x-y,x,-z
-y,x-y,-z
y,x,z
-x+y,y,z
-x,-x+y,z
-y,-x,z
x-y,-y,z
x,x-y,z
loop_
_atom_site_label
_atom_site_type_symbol
_atom_site_fract_x
_atom_site_fract_y
_atom_site_fract_z
_atom_site_occupancy
_atom_site_U_iso_or_equiv
Ni1 Ni 0.3333 0.6667 0 1 0.0
La1 La 0 0 0 0.8 0.0
Ti1 Ti 0 0 0 0.2 0.0
Ni2 Ni 0.5 0 0.5 1 0.0
