#------------------------------------------------------------------------------
#$Date: 2016-02-13 21:28:24 +0200 (Sat, 13 Feb 2016) $
#$Revision: 176429 $
#$URL: svn://www.crystallography.net/cod/cif/1/52/31/1523169.cif $
#------------------------------------------------------------------------------
#
# This file is available in the Crystallography Open Database (COD),
# http://www.crystallography.net/
#
# All data on this site have been placed in the public domain by the
# contributors.
#
data_1523169
loop_
_publ_author_name
'Adamyan, V.E.'
'Aleksandryan, V.V.'
'Melikyan, M.A.'
'Abovyan, E.S.'
_publ_section_title
;
 Temperature dependences of the susceptibility and magnetization of solid
 solutions of the system Gdx Pr1-x Zn
;
_journal_name_full               'Fizika Metallov i Metallovedenie'
_journal_page_first              556
_journal_page_last               560
_journal_volume                  51
_journal_year                    1981
_chemical_formula_sum            'Gd0.5 Pr0.5 Zn'
_chemical_name_systematic        '(Gd0.5 Pr0.5) Zn'
_space_group_IT_number           221
_symmetry_space_group_name_Hall  '-P 4 2 3'
_symmetry_space_group_name_H-M   'P m -3 m'
_cell_angle_alpha                90
_cell_angle_beta                 90
_cell_angle_gamma                90
_cell_formula_units_Z            1
_cell_length_a                   3.687
_cell_length_b                   3.687
_cell_length_c                   3.687
_cell_volume                     50.121
_citation_journal_id_ASTM        FMMTAK
_cod_data_source_file            Adamyan_FMMTAK_1981_478.cif
_cod_data_source_block           Gd0.5Pr0.5Zn1
_cod_original_cell_volume        50.12096
_cod_original_formula_sum        'Gd0.5 Pr0.5 Zn1'
_cod_database_code               1523169
loop_
_symmetry_equiv_pos_as_xyz
x,y,z
-y,x,z
-x,-y,z
y,-x,z
x,-y,-z
y,x,-z
-x,y,-z
-y,-x,-z
z,x,y
-x,z,y
-z,-x,y
x,-z,y
z,-x,-y
x,z,-y
-z,x,-y
-x,-z,-y
y,z,x
y,-z,-x
z,y,-x
-y,z,-x
-z,-y,-x
-y,-z,x
z,-y,x
-z,y,x
-x,-y,-z
y,-x,-z
x,y,-z
-y,x,-z
-x,y,z
-y,-x,z
x,-y,z
y,x,z
-z,-x,-y
x,-z,-y
z,x,-y
-x,z,-y
-z,x,y
-x,-z,y
z,-x,y
x,z,y
-y,-z,-x
-y,z,x
-z,-y,x
y,-z,x
z,y,x
y,z,-x
-z,y,-x
z,-y,-x
loop_
_atom_site_label
_atom_site_type_symbol
_atom_site_fract_x
_atom_site_fract_y
_atom_site_fract_z
_atom_site_occupancy
_atom_site_U_iso_or_equiv
Zn1 Zn 0.5 0.5 0.5 1 0.0
Gd1 Gd 0 0 0 0.5 0.0
Pr1 Pr 0 0 0 0.5 0.0
