#------------------------------------------------------------------------------
#$Date: 2015-07-11 05:22:03 +0300 (Sat, 11 Jul 2015) $
#$Revision: 144421 $
#$URL: svn://www.crystallography.net/cod/cif/1/52/37/1523799.cif $
#------------------------------------------------------------------------------
#
# This file is available in the Crystallography Open Database (COD),
# http://www.crystallography.net/
#
# All data on this site have been placed in the public domain by the
# contributors.
#
data_1523799
loop_
_publ_author_name
'Havinga, E.E.'
'Damsma, H.'
'van Maaren, M.H.'
_publ_section_title
;
 Oscillatory dependence of superconductive critical temperature on number
 of valency electrons in Cu3 Al-type alloys
;
_journal_name_full               'Journal of Physics and Chemistry of Solids'
_journal_page_first              2653
_journal_page_last               2662
_journal_volume                  31
_journal_year                    1970
_chemical_formula_sum            'La0.5 Pb3 Th0.5'
_chemical_name_systematic        '(La0.5 Th0.5) Pb3'
_space_group_IT_number           221
_symmetry_space_group_name_Hall  '-P 4 2 3'
_symmetry_space_group_name_H-M   'P m -3 m'
_cell_angle_alpha                90
_cell_angle_beta                 90
_cell_angle_gamma                90
_cell_formula_units_Z            1
_cell_length_a                   4.878
_cell_length_b                   4.878
_cell_length_c                   4.878
_cell_volume                     116.071
_citation_journal_id_ASTM        JPCSAW
_cod_data_source_file            Havinga_JPCSAW_1970_923.cif
_cod_data_source_block           La0.5Pb3Th0.5
_cod_original_cell_volume        116.0714
_cod_database_code               1523799
loop_
_symmetry_equiv_pos_as_xyz
x,y,z
-y,x,z
-x,-y,z
y,-x,z
x,-y,-z
y,x,-z
-x,y,-z
-y,-x,-z
z,x,y
-x,z,y
-z,-x,y
x,-z,y
z,-x,-y
x,z,-y
-z,x,-y
-x,-z,-y
y,z,x
y,-z,-x
z,y,-x
-y,z,-x
-z,-y,-x
-y,-z,x
z,-y,x
-z,y,x
-x,-y,-z
y,-x,-z
x,y,-z
-y,x,-z
-x,y,z
-y,-x,z
x,-y,z
y,x,z
-z,-x,-y
x,-z,-y
z,x,-y
-x,z,-y
-z,x,y
-x,-z,y
z,-x,y
x,z,y
-y,-z,-x
-y,z,x
-z,-y,x
y,-z,x
z,y,x
y,z,-x
-z,y,-x
z,-y,-x
loop_
_atom_site_label
_atom_site_type_symbol
_atom_site_fract_x
_atom_site_fract_y
_atom_site_fract_z
_atom_site_occupancy
_atom_site_U_iso_or_equiv
Pb1 Pb 0 0.5 0.5 1 0.0
La1 La 0 0 0 0.5 0.0
Th1 Th 0 0 0 0.5 0.0
