#------------------------------------------------------------------------------
#$Date: 2016-02-13 21:28:24 +0200 (Sat, 13 Feb 2016) $
#$Revision: 176429 $
#$URL: svn://www.crystallography.net/cod/cif/1/52/32/1523261.cif $
#------------------------------------------------------------------------------
#
# This file is available in the Crystallography Open Database (COD),
# http://www.crystallography.net/
#
# All data on this site have been placed in the public domain by the
# contributors.
#
data_1523261
loop_
_publ_author_name
'Blazina, Z.'
_publ_section_title
;
 Structural and magnetic studies of the RE Pt5-x Mx (RE= La, Nd; M= Al,
 Ga, In) system
;
_journal_name_full               'Journal of Alloys Compd.'
_journal_page_first              251
_journal_page_last               254
_journal_volume                  216
_journal_year                    1994
_chemical_formula_sum            'Al2 Nd Pt3'
_chemical_name_systematic        '(Al0.4 Pt0.6)5 Nd'
_space_group_IT_number           191
_symmetry_space_group_name_Hall  '-P 6 2'
_symmetry_space_group_name_H-M   'P 6/m m m'
_cell_angle_alpha                90
_cell_angle_beta                 90
_cell_angle_gamma                120
_cell_formula_units_Z            1
_cell_length_a                   5.383
_cell_length_b                   5.383
_cell_length_c                   4.494
_cell_volume                     112.775
_citation_journal_id_ASTM        JALCEU
_cod_data_source_file            Blazina_JALCEU_1994_1629.cif
_cod_data_source_block           Al2Nd1Pt3
_cod_original_cell_volume        112.7749
_cod_original_formula_sum        'Al2 Nd1 Pt3'
_cod_database_code               1523261
loop_
_symmetry_equiv_pos_as_xyz
x,y,z
x-y,x,z
-y,x-y,z
-x,-y,z
-x+y,-x,z
y,-x+y,z
-y,-x,-z
x-y,-y,-z
x,x-y,-z
y,x,-z
-x+y,y,-z
-x,-x+y,-z
-x,-y,-z
-x+y,-x,-z
y,-x+y,-z
x,y,-z
x-y,x,-z
-y,x-y,-z
y,x,z
-x+y,y,z
-x,-x+y,z
-y,-x,z
x-y,-y,z
x,x-y,z
loop_
_atom_site_label
_atom_site_type_symbol
_atom_site_fract_x
_atom_site_fract_y
_atom_site_fract_z
_atom_site_occupancy
_atom_site_U_iso_or_equiv
Al2 Al 0.5 0 0.5 0.4 0.0
Al1 Al 0.3333 0.6667 0 0.4 0.0
Pt2 Pt 0.5 0 0.5 0.6 0.0
Nd2 Nd 0 0 0 1 0.0
Pt1 Pt 0.3333 0.6667 0 0.6 0.0
