#------------------------------------------------------------------------------
#$Date: 2015-07-11 05:42:47 +0300 (Sat, 11 Jul 2015) $
#$Revision: 144559 $
#$URL: svn://www.crystallography.net/cod/cif/1/52/39/1523935.cif $
#------------------------------------------------------------------------------
#
# This file is available in the Crystallography Open Database (COD),
# http://www.crystallography.net/
#
# All data on this site have been placed in the public domain by the
# contributors.
#
data_1523935
loop_
_publ_author_name
'Johnston, D.C.'
_publ_section_title
;
 Superconductivity in the pseudo-binary A15 compounds Mo3 Os1-x Rux and
 Mo3 Ir1-x Rux
;
_journal_name_full               'Solid State Communications'
_journal_page_first              1751
_journal_page_last               1754
_journal_volume                  11
_journal_year                    1972
_chemical_formula_sum            'Ir0.5 Mo3 Ru0.5'
_chemical_name_systematic        '(Ir0.5 Ru0.5) Mo3'
_space_group_IT_number           223
_symmetry_space_group_name_Hall  '-P 4n 2 3'
_symmetry_space_group_name_H-M   'P m -3 n'
_cell_angle_alpha                90
_cell_angle_beta                 90
_cell_angle_gamma                90
_cell_formula_units_Z            2
_cell_length_a                   4.963
_cell_length_b                   4.963
_cell_length_c                   4.963
_cell_volume                     122.245
_citation_journal_id_ASTM        SSCOA4
_cod_data_source_file            Johnston_SSCOA4_1972_770.cif
_cod_data_source_block           Ir0.5Mo3Ru0.5
_cod_original_cell_volume        122.2455
_cod_database_code               1523935
loop_
_symmetry_equiv_pos_as_xyz
x,y,z
-y+1/2,x+1/2,z+1/2
-x,-y,z
y+1/2,-x+1/2,z+1/2
x,-y,-z
y+1/2,x+1/2,-z+1/2
-x,y,-z
-y+1/2,-x+1/2,-z+1/2
z,x,y
-x+1/2,z+1/2,y+1/2
-z,-x,y
x+1/2,-z+1/2,y+1/2
z,-x,-y
x+1/2,z+1/2,-y+1/2
-z,x,-y
-x+1/2,-z+1/2,-y+1/2
y,z,x
y,-z,-x
z+1/2,y+1/2,-x+1/2
-y,z,-x
-z+1/2,-y+1/2,-x+1/2
-y,-z,x
z+1/2,-y+1/2,x+1/2
-z+1/2,y+1/2,x+1/2
-x,-y,-z
y-1/2,-x-1/2,-z-1/2
x,y,-z
-y-1/2,x-1/2,-z-1/2
-x,y,z
-y-1/2,-x-1/2,z-1/2
x,-y,z
y-1/2,x-1/2,z-1/2
-z,-x,-y
x-1/2,-z-1/2,-y-1/2
z,x,-y
-x-1/2,z-1/2,-y-1/2
-z,x,y
-x-1/2,-z-1/2,y-1/2
z,-x,y
x-1/2,z-1/2,y-1/2
-y,-z,-x
-y,z,x
-z-1/2,-y-1/2,x-1/2
y,-z,x
z-1/2,y-1/2,x-1/2
y,z,-x
-z-1/2,y-1/2,-x-1/2
z-1/2,-y-1/2,-x-1/2
loop_
_atom_site_label
_atom_site_type_symbol
_atom_site_fract_x
_atom_site_fract_y
_atom_site_fract_z
_atom_site_occupancy
_atom_site_U_iso_or_equiv
Ir1 Ir 0 0 0 0.5 0.0
Ru1 Ru 0 0 0 0.5 0.0
Mo1 Mo 0.25 0 0.5 1 0.0
