#------------------------------------------------------------------------------
#$Date: 2018-09-27 07:13:35 +0300 (Thu, 27 Sep 2018) $
#$Revision: 211196 $
#$URL: file:///home/coder/svn-repositories/cod/cif/1/52/31/1523123.cif $
#------------------------------------------------------------------------------
#
# This file is available in the Crystallography Open Database (COD),
# http://www.crystallography.net/
#
# All data on this site have been placed in the public domain by the
# contributors.
#
data_1523123
loop_
_publ_author_name
'Yethiraj, M.'
'Robinson, R.A.'
'Buschow, K.H.J.'
'Rhyne, J.J.'
'Gotaas, J.A.'
_publ_section_title
;
 Magnetic and crystallographic properties of U Ni Sn uranium compounds
;
_journal_name_full               'Journal of Magnetism and Magnetic Materials'
_journal_page_first              355
_journal_page_last               357
_journal_volume                  79
_journal_year                    1989
_chemical_formula_sum            'Ni3 Sn4 U3'
_space_group_IT_number           220
_symmetry_space_group_name_Hall  'I -4bd 2c 3'
_symmetry_space_group_name_H-M   'I -4 3 d'
_cell_angle_alpha                90
_cell_angle_beta                 90
_cell_angle_gamma                90
_cell_formula_units_Z            4
_cell_length_a                   9.3507
_cell_length_b                   9.3507
_cell_length_c                   9.3507
_cell_volume                     817.584
_citation_journal_id_ASTM        JMMMDC
_cod_data_source_file            Yethiraj_JMMMDC_1989_1507.cif
_cod_data_source_block           Ni3Sn4U3
_cod_database_code               1523123
loop_
_symmetry_equiv_pos_as_xyz
x,y,z
y+1/4,-x+3/4,-z+1/4
-x,-y+1/2,z
-y+3/4,x+3/4,-z+1/4
x,-y,-z+1/2
-y+1/4,-x+3/4,z+3/4
-x,y+1/2,-z+1/2
y+3/4,x+3/4,z+3/4
z,x,y
x+1/4,-z+3/4,-y+1/4
-z,-x+1/2,y
-x+3/4,z+3/4,-y+1/4
z,-x,-y+1/2
-x+1/4,-z+3/4,y+3/4
-z,x+1/2,-y+1/2
x+3/4,z+3/4,y+3/4
y,z,x
y,-z,-x+1/2
-z+1/4,-y+3/4,x+3/4
-y,z+1/2,-x+1/2
z+1/4,y+1/4,x+1/4
-y+1/2,-z,x+1/2
-z+1/4,y+1/4,-x+3/4
z+3/4,-y+1/4,-x+3/4
x+1/2,y+1/2,z+1/2
y+3/4,-x+5/4,-z+3/4
-x+1/2,-y+1,z+1/2
-y+5/4,x+5/4,-z+3/4
x+1/2,-y+1/2,-z+1
-y+3/4,-x+5/4,z+5/4
-x+1/2,y+1,-z+1
y+5/4,x+5/4,z+5/4
z+1/2,x+1/2,y+1/2
x+3/4,-z+5/4,-y+3/4
-z+1/2,-x+1,y+1/2
-x+5/4,z+5/4,-y+3/4
z+1/2,-x+1/2,-y+1
-x+3/4,-z+5/4,y+5/4
-z+1/2,x+1,-y+1
x+5/4,z+5/4,y+5/4
y+1/2,z+1/2,x+1/2
y+1/2,-z+1/2,-x+1
-z+3/4,-y+5/4,x+5/4
-y+1/2,z+1,-x+1
z+3/4,y+3/4,x+3/4
-y+1,-z+1/2,x+1
-z+3/4,y+3/4,-x+5/4
z+5/4,-y+3/4,-x+5/4
loop_
_atom_site_label
_atom_site_type_symbol
_atom_site_fract_x
_atom_site_fract_y
_atom_site_fract_z
_atom_site_occupancy
_atom_site_U_iso_or_equiv
Ni1 Ni 0.875 0 0.25 1 0.0
U1 U 0.375 0 0.25 1 0.0
Sn1 Sn 0.082 0.082 0.082 1 0.0
