#------------------------------------------------------------------------------
#$Date: 2016-02-13 21:28:24 +0200 (Sat, 13 Feb 2016) $
#$Revision: 176429 $
#$URL: svn://www.crystallography.net/cod/cif/1/52/38/1523897.cif $
#------------------------------------------------------------------------------
#
# This file is available in the Crystallography Open Database (COD),
# http://www.crystallography.net/
#
# All data on this site have been placed in the public domain by the
# contributors.
#
data_1523897
loop_
_publ_author_name
'Ipser, H.'
'Mikula, A.'
_publ_section_title
;
 On the ternary B2-phase in the Al-Co-Ga system
;
_journal_name_full               'Monatshefte fuer Chemie (-108,1977)'
_journal_page_first              509
_journal_page_last               513
_journal_volume                  123
_journal_year                    1992
_chemical_formula_sum            'Al0.5 Co Ga0.5'
_chemical_name_systematic        '(Al0.5 Ga0.5) Co'
_space_group_IT_number           221
_symmetry_space_group_name_Hall  '-P 4 2 3'
_symmetry_space_group_name_H-M   'P m -3 m'
_cell_angle_alpha                90
_cell_angle_beta                 90
_cell_angle_gamma                90
_cell_formula_units_Z            1
_cell_length_a                   2.874
_cell_length_b                   2.874
_cell_length_c                   2.874
_cell_volume                     23.739
_citation_journal_id_ASTM        MOCHAP
_cod_data_source_file            Ipser_MOCHAP_1992_886.cif
_cod_data_source_block           Al0.5Co1Ga0.5
_cod_original_cell_volume        23.73889
_cod_original_formula_sum        'Al0.5 Co1 Ga0.5'
_cod_database_code               1523897
loop_
_symmetry_equiv_pos_as_xyz
x,y,z
-y,x,z
-x,-y,z
y,-x,z
x,-y,-z
y,x,-z
-x,y,-z
-y,-x,-z
z,x,y
-x,z,y
-z,-x,y
x,-z,y
z,-x,-y
x,z,-y
-z,x,-y
-x,-z,-y
y,z,x
y,-z,-x
z,y,-x
-y,z,-x
-z,-y,-x
-y,-z,x
z,-y,x
-z,y,x
-x,-y,-z
y,-x,-z
x,y,-z
-y,x,-z
-x,y,z
-y,-x,z
x,-y,z
y,x,z
-z,-x,-y
x,-z,-y
z,x,-y
-x,z,-y
-z,x,y
-x,-z,y
z,-x,y
x,z,y
-y,-z,-x
-y,z,x
-z,-y,x
y,-z,x
z,y,x
y,z,-x
-z,y,-x
z,-y,-x
loop_
_atom_site_label
_atom_site_type_symbol
_atom_site_fract_x
_atom_site_fract_y
_atom_site_fract_z
_atom_site_occupancy
_atom_site_U_iso_or_equiv
Ga1 Ga 0 0 0 0.5 0.0
Co1 Co 0.5 0.5 0.5 1 0.0
Al1 Al 0 0 0 0.5 0.0
