#------------------------------------------------------------------------------
#$Date: 2016-02-13 21:28:24 +0200 (Sat, 13 Feb 2016) $
#$Revision: 176429 $
#$URL: svn://www.crystallography.net/cod/cif/1/52/38/1523838.cif $
#------------------------------------------------------------------------------
#
# This file is available in the Crystallography Open Database (COD),
# http://www.crystallography.net/
#
# All data on this site have been placed in the public domain by the
# contributors.
#
data_1523838
loop_
_publ_author_name
'Holleck, H.'
'Nowotny, H.'
'Benesovsky, F.'
_publ_section_title
;
 Ueber das Mischungsverhalten von Nb3 Sn mit Ti3 Sn, Mo3 Al und verwandten
 Phasen
;
_journal_name_full               'Monatshefte fuer Chemie (-108,1977)'
_journal_page_first              359
_journal_page_last               365
_journal_volume                  94
_journal_year                    1963
_chemical_formula_sum            'Hf1.2 Nb1.8 Sn'
_chemical_name_systematic        '(Hf0.4 Nb0.6)3 Sn'
_space_group_IT_number           223
_symmetry_space_group_name_Hall  '-P 4n 2 3'
_symmetry_space_group_name_H-M   'P m -3 n'
_cell_angle_alpha                90
_cell_angle_beta                 90
_cell_angle_gamma                90
_cell_formula_units_Z            2
_cell_length_a                   5.387
_cell_length_b                   5.387
_cell_length_c                   5.387
_cell_volume                     156.329
_citation_journal_id_ASTM        MOCHAP
_cod_data_source_file            Holleck_MOCHAP_1963_559.cif
_cod_data_source_block           Hf1.2Nb1.8Sn1
_cod_original_cell_volume        156.3295
_cod_original_formula_sum        'Hf1.2 Nb1.8 Sn1'
_cod_database_code               1523838
loop_
_symmetry_equiv_pos_as_xyz
x,y,z
-y+1/2,x+1/2,z+1/2
-x,-y,z
y+1/2,-x+1/2,z+1/2
x,-y,-z
y+1/2,x+1/2,-z+1/2
-x,y,-z
-y+1/2,-x+1/2,-z+1/2
z,x,y
-x+1/2,z+1/2,y+1/2
-z,-x,y
x+1/2,-z+1/2,y+1/2
z,-x,-y
x+1/2,z+1/2,-y+1/2
-z,x,-y
-x+1/2,-z+1/2,-y+1/2
y,z,x
y,-z,-x
z+1/2,y+1/2,-x+1/2
-y,z,-x
-z+1/2,-y+1/2,-x+1/2
-y,-z,x
z+1/2,-y+1/2,x+1/2
-z+1/2,y+1/2,x+1/2
-x,-y,-z
y-1/2,-x-1/2,-z-1/2
x,y,-z
-y-1/2,x-1/2,-z-1/2
-x,y,z
-y-1/2,-x-1/2,z-1/2
x,-y,z
y-1/2,x-1/2,z-1/2
-z,-x,-y
x-1/2,-z-1/2,-y-1/2
z,x,-y
-x-1/2,z-1/2,-y-1/2
-z,x,y
-x-1/2,-z-1/2,y-1/2
z,-x,y
x-1/2,z-1/2,y-1/2
-y,-z,-x
-y,z,x
-z-1/2,-y-1/2,x-1/2
y,-z,x
z-1/2,y-1/2,x-1/2
y,z,-x
-z-1/2,y-1/2,-x-1/2
z-1/2,-y-1/2,-x-1/2
loop_
_atom_site_label
_atom_site_type_symbol
_atom_site_fract_x
_atom_site_fract_y
_atom_site_fract_z
_atom_site_occupancy
_atom_site_U_iso_or_equiv
Hf1 Hf 0.25 0 0.5 0.4 0.0
Sn1 Sn 0 0 0 1 0.0
Nb1 Nb 0.25 0 0.5 0.6 0.0
