#------------------------------------------------------------------------------
#$Date: 2016-02-13 21:28:24 +0200 (Sat, 13 Feb 2016) $
#$Revision: 176429 $
#$URL: svn://www.crystallography.net/cod/cif/1/52/37/1523751.cif $
#------------------------------------------------------------------------------
#
# This file is available in the Crystallography Open Database (COD),
# http://www.crystallography.net/
#
# All data on this site have been placed in the public domain by the
# contributors.
#
data_1523751
loop_
_publ_author_name
'Grin', Yu.'
'Ellner, M.'
'Hiebl, K.'
'Rogl, P.'
_publ_section_title
;
 New ytterbium compounds with the Ba Al4 type of structure: crystal
 chemistry and magnetic properties of Yb (Cu, Ag, Au, Pd, Pt)x Ga4-x
;
_journal_name_full               'Journal of Alloys Compd.'
_journal_page_first              207
_journal_page_last               212
_journal_volume                  196
_journal_year                    1993
_chemical_formula_sum            'Ga3.752 Pd0.248 Yb'
_chemical_name_systematic        '(Pd0.062 Ga0.938)4 Yb'
_space_group_IT_number           139
_symmetry_space_group_name_Hall  '-I 4 2'
_symmetry_space_group_name_H-M   'I 4/m m m'
_cell_angle_alpha                90
_cell_angle_beta                 90
_cell_angle_gamma                90
_cell_formula_units_Z            2
_cell_length_a                   4.2331
_cell_length_b                   4.2331
_cell_length_c                   10.893
_cell_volume                     195.193
_citation_journal_id_ASTM        JALCEU
_cod_data_source_file            Grin_JALCEU_1993_787.cif
_cod_data_source_block           Ga3.752Pd0.248Yb1
_cod_original_cell_volume        195.1931
_cod_original_formula_sum        'Ga3.752 Pd0.248 Yb1'
_cod_database_code               1523751
loop_
_symmetry_equiv_pos_as_xyz
x,y,z
-y,x,z
-x,-y,z
y,-x,z
x,-y,-z
y,x,-z
-x,y,-z
-y,-x,-z
-x,-y,-z
y,-x,-z
x,y,-z
-y,x,-z
-x,y,z
-y,-x,z
x,-y,z
y,x,z
x+1/2,y+1/2,z+1/2
-y+1/2,x+1/2,z+1/2
-x+1/2,-y+1/2,z+1/2
y+1/2,-x+1/2,z+1/2
x+1/2,-y+1/2,-z+1/2
y+1/2,x+1/2,-z+1/2
-x+1/2,y+1/2,-z+1/2
-y+1/2,-x+1/2,-z+1/2
-x+1/2,-y+1/2,-z+1/2
y+1/2,-x+1/2,-z+1/2
x+1/2,y+1/2,-z+1/2
-y+1/2,x+1/2,-z+1/2
-x+1/2,y+1/2,z+1/2
-y+1/2,-x+1/2,z+1/2
x+1/2,-y+1/2,z+1/2
y+1/2,x+1/2,z+1/2
loop_
_atom_site_label
_atom_site_type_symbol
_atom_site_fract_x
_atom_site_fract_y
_atom_site_fract_z
_atom_site_occupancy
_atom_site_U_iso_or_equiv
Pd2 Pd 0 0 0.3881 0.12 0.0
Yb1 Yb 0 0 0 1 0.0
Ga2 Ga 0 0 0.3881 0.88 0.0
Ga1 Ga 0 0.5 0.25 0.98 0.0
Pd1 Pd 0 0.5 0.25 0.02 0.0
