#------------------------------------------------------------------------------
#$Date: 2016-02-13 21:28:24 +0200 (Sat, 13 Feb 2016) $
#$Revision: 176429 $
#$URL: svn://www.crystallography.net/cod/cif/1/52/37/1523768.cif $
#------------------------------------------------------------------------------
#
# This file is available in the Crystallography Open Database (COD),
# http://www.crystallography.net/
#
# All data on this site have been placed in the public domain by the
# contributors.
#
data_1523768
loop_
_publ_author_name
'Guseva, I.A.'
'Seropegin, Yu.D.'
'Sokolovskaya, E.M.'
_publ_section_title
;
 The properties of zirconium-doped Nb3 Sn - Nb3 Ge solid solutions
;
_journal_name_full               'Journal of the Less-Common Metals'
_journal_page_first              109
_journal_page_last               115
_journal_volume                  87
_journal_year                    1982
_chemical_formula_sum            'Nb2.802 Sn Zr0.198'
_chemical_name_systematic        '(Nb.934 Zr.066)3 Sn'
_space_group_IT_number           223
_symmetry_space_group_name_Hall  '-P 4n 2 3'
_symmetry_space_group_name_H-M   'P m -3 n'
_cell_angle_alpha                90
_cell_angle_beta                 90
_cell_angle_gamma                90
_cell_formula_units_Z            2
_cell_length_a                   5.302
_cell_length_b                   5.302
_cell_length_c                   5.302
_cell_volume                     149.046
_citation_journal_id_ASTM        JCOMAH
_cod_data_source_file            Guseva_JCOMAH_1982_1401.cif
_cod_data_source_block           Nb2.802Sn1Zr0.198
_cod_original_cell_volume        149.0456
_cod_original_formula_sum        'Nb2.802 Sn1 Zr0.198'
_cod_database_code               1523768
loop_
_symmetry_equiv_pos_as_xyz
x,y,z
-y+1/2,x+1/2,z+1/2
-x,-y,z
y+1/2,-x+1/2,z+1/2
x,-y,-z
y+1/2,x+1/2,-z+1/2
-x,y,-z
-y+1/2,-x+1/2,-z+1/2
z,x,y
-x+1/2,z+1/2,y+1/2
-z,-x,y
x+1/2,-z+1/2,y+1/2
z,-x,-y
x+1/2,z+1/2,-y+1/2
-z,x,-y
-x+1/2,-z+1/2,-y+1/2
y,z,x
y,-z,-x
z+1/2,y+1/2,-x+1/2
-y,z,-x
-z+1/2,-y+1/2,-x+1/2
-y,-z,x
z+1/2,-y+1/2,x+1/2
-z+1/2,y+1/2,x+1/2
-x,-y,-z
y-1/2,-x-1/2,-z-1/2
x,y,-z
-y-1/2,x-1/2,-z-1/2
-x,y,z
-y-1/2,-x-1/2,z-1/2
x,-y,z
y-1/2,x-1/2,z-1/2
-z,-x,-y
x-1/2,-z-1/2,-y-1/2
z,x,-y
-x-1/2,z-1/2,-y-1/2
-z,x,y
-x-1/2,-z-1/2,y-1/2
z,-x,y
x-1/2,z-1/2,y-1/2
-y,-z,-x
-y,z,x
-z-1/2,-y-1/2,x-1/2
y,-z,x
z-1/2,y-1/2,x-1/2
y,z,-x
-z-1/2,y-1/2,-x-1/2
z-1/2,-y-1/2,-x-1/2
loop_
_atom_site_label
_atom_site_type_symbol
_atom_site_fract_x
_atom_site_fract_y
_atom_site_fract_z
_atom_site_occupancy
_atom_site_U_iso_or_equiv
Zr1 Zr 0.25 0 0.5 0.066 0.0
Sn1 Sn 0 0 0 1 0.0
Nb1 Nb 0.25 0 0.5 0.934 0.0
