#------------------------------------------------------------------------------
#$Date: 2018-09-27 07:13:35 +0300 (Thu, 27 Sep 2018) $
#$Revision: 211196 $
#$URL: file:///home/coder/svn-repositories/cod/cif/1/52/35/1523524.cif $
#------------------------------------------------------------------------------
#
# This file is available in the Crystallography Open Database (COD),
# http://www.crystallography.net/
#
# All data on this site have been placed in the public domain by the
# contributors.
#
data_1523524
loop_
_publ_author_name
'Eisenmann, B.'
'Schaefer, H.'
_publ_section_title
;
 Kaefigstrukturen in intermetallischen Verbindungen: zur Kenntnis von La
 Ru Sn3, Ce Ru Sn3, P Ru Sn3 und Nd Ru Sn3
;
_journal_name_full               'Journal of the Less-Common Metals'
_journal_page_first              89
_journal_page_last               94
_journal_volume                  123
_journal_year                    1986
_chemical_formula_sum            'La Ru Sn3'
_space_group_IT_number           223
_symmetry_space_group_name_Hall  '-P 4n 2 3'
_symmetry_space_group_name_H-M   'P m -3 n'
_cell_angle_alpha                90
_cell_angle_beta                 90
_cell_angle_gamma                90
_cell_formula_units_Z            8
_cell_length_a                   9.773
_cell_length_b                   9.773
_cell_length_c                   9.773
_cell_volume                     933.434
_citation_journal_id_ASTM        JCOMAH
_cod_data_source_file            Eisenmann_JCOMAH_1986_941.cif
_cod_data_source_block           La1Ru1Sn3
_cod_original_cell_volume        933.4341
_cod_original_formula_sum        'La1 Ru1 Sn3'
_cod_database_code               1523524
loop_
_symmetry_equiv_pos_as_xyz
x,y,z
-y+1/2,x+1/2,z+1/2
-x,-y,z
y+1/2,-x+1/2,z+1/2
x,-y,-z
y+1/2,x+1/2,-z+1/2
-x,y,-z
-y+1/2,-x+1/2,-z+1/2
z,x,y
-x+1/2,z+1/2,y+1/2
-z,-x,y
x+1/2,-z+1/2,y+1/2
z,-x,-y
x+1/2,z+1/2,-y+1/2
-z,x,-y
-x+1/2,-z+1/2,-y+1/2
y,z,x
y,-z,-x
z+1/2,y+1/2,-x+1/2
-y,z,-x
-z+1/2,-y+1/2,-x+1/2
-y,-z,x
z+1/2,-y+1/2,x+1/2
-z+1/2,y+1/2,x+1/2
-x,-y,-z
y-1/2,-x-1/2,-z-1/2
x,y,-z
-y-1/2,x-1/2,-z-1/2
-x,y,z
-y-1/2,-x-1/2,z-1/2
x,-y,z
y-1/2,x-1/2,z-1/2
-z,-x,-y
x-1/2,-z-1/2,-y-1/2
z,x,-y
-x-1/2,z-1/2,-y-1/2
-z,x,y
-x-1/2,-z-1/2,y-1/2
z,-x,y
x-1/2,z-1/2,y-1/2
-y,-z,-x
-y,z,x
-z-1/2,-y-1/2,x-1/2
y,-z,x
z-1/2,y-1/2,x-1/2
y,z,-x
-z-1/2,y-1/2,-x-1/2
z-1/2,-y-1/2,-x-1/2
loop_
_atom_site_label
_atom_site_type_symbol
_atom_site_fract_x
_atom_site_fract_y
_atom_site_fract_z
_atom_site_occupancy
_atom_site_U_iso_or_equiv
La2 La 0.25 0.5 0 1 0.0
La1 La 0 0 0 1 0.0
Sn1 Sn 0 0.3075 0.156 1 0.0
Ru1 Ru 0.25 0.25 0.25 1 0.0
