#------------------------------------------------------------------------------
#$Date: 2016-02-13 21:28:24 +0200 (Sat, 13 Feb 2016) $
#$Revision: 176429 $
#$URL: svn://www.crystallography.net/cod/cif/1/52/32/1523218.cif $
#------------------------------------------------------------------------------
#
# This file is available in the Crystallography Open Database (COD),
# http://www.crystallography.net/
#
# All data on this site have been placed in the public domain by the
# contributors.
#
data_1523218
loop_
_publ_author_name
'Bauer, E.'
'Fischer, P.'
'Keller, L.'
'Gratz, E.'
'Furrer, A.'
_publ_section_title
;
 Structural and magnetic properties of Yb Cu5-x Alx compounds
;
_journal_name_full               'Physik (Berlin)'
_journal_page_first              608
_journal_page_last               611
_journal_volume                  186
_journal_year                    1993
_chemical_formula_sum            'Al2 Cu3 La'
_chemical_name_systematic        '(Al0.4 Cu0.6)5 La'
_space_group_IT_number           191
_symmetry_space_group_name_Hall  '-P 6 2'
_symmetry_space_group_name_H-M   'P 6/m m m'
_cell_angle_alpha                90
_cell_angle_beta                 90
_cell_angle_gamma                120
_cell_formula_units_Z            1
_cell_length_a                   5.297
_cell_length_b                   5.297
_cell_length_c                   4.1962
_cell_volume                     101.964
_citation_journal_id_ASTM        PHYBE3
_cod_data_source_file            Bauer_PHYBE3_1993_1120.cif
_cod_data_source_block           Al2Cu3La1
_cod_original_formula_sum        'Al2 Cu3 La1'
_cod_database_code               1523218
loop_
_symmetry_equiv_pos_as_xyz
x,y,z
x-y,x,z
-y,x-y,z
-x,-y,z
-x+y,-x,z
y,-x+y,z
-y,-x,-z
x-y,-y,-z
x,x-y,-z
y,x,-z
-x+y,y,-z
-x,-x+y,-z
-x,-y,-z
-x+y,-x,-z
y,-x+y,-z
x,y,-z
x-y,x,-z
-y,x-y,-z
y,x,z
-x+y,y,z
-x,-x+y,z
-y,-x,z
x-y,-y,z
x,x-y,z
loop_
_atom_site_label
_atom_site_type_symbol
_atom_site_fract_x
_atom_site_fract_y
_atom_site_fract_z
_atom_site_occupancy
_atom_site_U_iso_or_equiv
Cu1 Cu 0.3333 0.6667 0 1 0.0
Cu2 Cu 0.5 0 0.5 0.333 0.0
Al2 Al 0.5 0 0.5 0.667 0.0
La1 La 0 0 0 1 0.0
