#------------------------------------------------------------------------------
#$Date: 2016-02-13 21:28:24 +0200 (Sat, 13 Feb 2016) $
#$Revision: 176429 $
#$URL: svn://www.crystallography.net/cod/cif/1/52/38/1523891.cif $
#------------------------------------------------------------------------------
#
# This file is available in the Crystallography Open Database (COD),
# http://www.crystallography.net/
#
# All data on this site have been placed in the public domain by the
# contributors.
#
data_1523891
loop_
_publ_author_name
'Ikromov, A.Z.'
'Kinjibalo, V.V.'
'Ganiev, I.N.'
_publ_section_title
;
 Phase equilibrium of the Al-Zn-La system at 573 K
;
_journal_name_full               'Doklady Akademii Nauk Tadzhikskoi SSR'
_journal_page_first              173
_journal_page_last               176
_journal_volume                  33
_journal_year                    1990
_chemical_formula_sum            'Al0.5 La Zn0.5'
_chemical_name_systematic        'La (Al0.5 Zn0.5)'
_space_group_IT_number           221
_symmetry_space_group_name_Hall  '-P 4 2 3'
_symmetry_space_group_name_H-M   'P m -3 m'
_cell_angle_alpha                90
_cell_angle_beta                 90
_cell_angle_gamma                90
_cell_formula_units_Z            1
_cell_length_a                   3.794
_cell_length_b                   3.794
_cell_length_c                   3.794
_cell_volume                     54.612
_citation_journal_id_ASTM        DANTAL
_cod_data_source_file            Ikromov_DANTAL_1990_1607.cif
_cod_data_source_block           Al0.5La1Zn0.5
_cod_original_cell_volume        54.61249
_cod_original_formula_sum        'Al0.5 La1 Zn0.5'
_cod_database_code               1523891
loop_
_symmetry_equiv_pos_as_xyz
x,y,z
-y,x,z
-x,-y,z
y,-x,z
x,-y,-z
y,x,-z
-x,y,-z
-y,-x,-z
z,x,y
-x,z,y
-z,-x,y
x,-z,y
z,-x,-y
x,z,-y
-z,x,-y
-x,-z,-y
y,z,x
y,-z,-x
z,y,-x
-y,z,-x
-z,-y,-x
-y,-z,x
z,-y,x
-z,y,x
-x,-y,-z
y,-x,-z
x,y,-z
-y,x,-z
-x,y,z
-y,-x,z
x,-y,z
y,x,z
-z,-x,-y
x,-z,-y
z,x,-y
-x,z,-y
-z,x,y
-x,-z,y
z,-x,y
x,z,y
-y,-z,-x
-y,z,x
-z,-y,x
y,-z,x
z,y,x
y,z,-x
-z,y,-x
z,-y,-x
loop_
_atom_site_label
_atom_site_type_symbol
_atom_site_fract_x
_atom_site_fract_y
_atom_site_fract_z
_atom_site_occupancy
_atom_site_U_iso_or_equiv
La1 La 0 0 0 1 0.0
Zn1 Zn 0.5 0.5 0.5 0.5 0.0
Al1 Al 0.5 0.5 0.5 0.5 0.0
