#------------------------------------------------------------------------------
#$Date: 2018-09-27 07:13:35 +0300 (Thu, 27 Sep 2018) $
#$Revision: 211196 $
#$URL: file:///home/coder/svn-repositories/cod/cif/1/52/34/1523411.cif $
#------------------------------------------------------------------------------
#
# This file is available in the Crystallography Open Database (COD),
# http://www.crystallography.net/
#
# All data on this site have been placed in the public domain by the
# contributors.
#
data_1523411
loop_
_publ_author_name
'Colineau, E.'
'Sanchez, J.P.'
'Rebizant, J.'
'Winand, J.M.'
_publ_section_title
;
 Hyperfine interaction parameters in Gd Pd2 Al3 and ground state of Ce Pd2
 Al3 and Np Pd2 Al3
;
_journal_name_full               'Solid State Communications'
_journal_page_first              915
_journal_page_last               919
_journal_volume                  92
_journal_year                    1994
_chemical_formula_sum            'Al3 Gd Pd2'
_space_group_IT_number           191
_symmetry_space_group_name_Hall  '-P 6 2'
_symmetry_space_group_name_H-M   'P 6/m m m'
_cell_angle_alpha                90
_cell_angle_beta                 90
_cell_angle_gamma                120
_cell_formula_units_Z            1
_cell_length_a                   5.3924
_cell_length_b                   5.3924
_cell_length_c                   4.1941
_cell_volume                     105.617
_citation_journal_id_ASTM        SSCOA4
_cod_data_source_file            Colineau_SSCOA4_1994_1328.cif
_cod_data_source_block           Al3Gd1Pd2
_cod_original_cell_volume        105.6169
_cod_original_formula_sum        'Al3 Gd1 Pd2'
_cod_database_code               1523411
loop_
_symmetry_equiv_pos_as_xyz
x,y,z
x-y,x,z
-y,x-y,z
-x,-y,z
-x+y,-x,z
y,-x+y,z
-y,-x,-z
x-y,-y,-z
x,x-y,-z
y,x,-z
-x+y,y,-z
-x,-x+y,-z
-x,-y,-z
-x+y,-x,-z
y,-x+y,-z
x,y,-z
x-y,x,-z
-y,x-y,-z
y,x,z
-x+y,y,z
-x,-x+y,z
-y,-x,z
x-y,-y,z
x,x-y,z
loop_
_atom_site_label
_atom_site_type_symbol
_atom_site_fract_x
_atom_site_fract_y
_atom_site_fract_z
_atom_site_occupancy
_atom_site_U_iso_or_equiv
Gd1 Gd 0 0 0 1 0.0
Pd1 Pd 0.3333 0.6667 0 1 0.0
Al1 Al 0.5 0 0.5 1 0.0
