#------------------------------------------------------------------------------
#$Date: 2015-07-11 05:27:00 +0300 (Sat, 11 Jul 2015) $
#$Revision: 144458 $
#$URL: svn://www.crystallography.net/cod/cif/1/52/38/1523835.cif $
#------------------------------------------------------------------------------
#
# This file is available in the Crystallography Open Database (COD),
# http://www.crystallography.net/
#
# All data on this site have been placed in the public domain by the
# contributors.
#
data_1523835
loop_
_publ_author_name
'Holleck, H.'
'Nowotny, H.'
'Benesovsky, F.'
_publ_section_title
;
 Ueber das Mischungsverhalten von Nb3 Sn mit Ti3 Sn, Mo3 Al und verwandten
 Phasen
;
_journal_name_full               'Monatshefte fuer Chemie (-108,1977)'
_journal_page_first              359
_journal_page_last               365
_journal_volume                  94
_journal_year                    1963
_chemical_formula_sum            'Nb3 Sn2 Ti3'
_chemical_name_systematic        '(Nb Ti)3 Sn2'
_space_group_IT_number           223
_symmetry_space_group_name_Hall  '-P 4n 2 3'
_symmetry_space_group_name_H-M   'P m -3 n'
_cell_angle_alpha                90
_cell_angle_beta                 90
_cell_angle_gamma                90
_cell_formula_units_Z            1
_cell_length_a                   5.273
_cell_length_b                   5.273
_cell_length_c                   5.273
_cell_volume                     146.613
_citation_journal_id_ASTM        MOCHAP
_cod_data_source_file            Holleck_MOCHAP_1963_1398.cif
_cod_data_source_block           Nb3Sn2Ti3
_cod_original_cell_volume        146.6133
_cod_database_code               1523835
loop_
_symmetry_equiv_pos_as_xyz
x,y,z
-y+1/2,x+1/2,z+1/2
-x,-y,z
y+1/2,-x+1/2,z+1/2
x,-y,-z
y+1/2,x+1/2,-z+1/2
-x,y,-z
-y+1/2,-x+1/2,-z+1/2
z,x,y
-x+1/2,z+1/2,y+1/2
-z,-x,y
x+1/2,-z+1/2,y+1/2
z,-x,-y
x+1/2,z+1/2,-y+1/2
-z,x,-y
-x+1/2,-z+1/2,-y+1/2
y,z,x
y,-z,-x
z+1/2,y+1/2,-x+1/2
-y,z,-x
-z+1/2,-y+1/2,-x+1/2
-y,-z,x
z+1/2,-y+1/2,x+1/2
-z+1/2,y+1/2,x+1/2
-x,-y,-z
y-1/2,-x-1/2,-z-1/2
x,y,-z
-y-1/2,x-1/2,-z-1/2
-x,y,z
-y-1/2,-x-1/2,z-1/2
x,-y,z
y-1/2,x-1/2,z-1/2
-z,-x,-y
x-1/2,-z-1/2,-y-1/2
z,x,-y
-x-1/2,z-1/2,-y-1/2
-z,x,y
-x-1/2,-z-1/2,y-1/2
z,-x,y
x-1/2,z-1/2,y-1/2
-y,-z,-x
-y,z,x
-z-1/2,-y-1/2,x-1/2
y,-z,x
z-1/2,y-1/2,x-1/2
y,z,-x
-z-1/2,y-1/2,-x-1/2
z-1/2,-y-1/2,-x-1/2
loop_
_atom_site_label
_atom_site_type_symbol
_atom_site_fract_x
_atom_site_fract_y
_atom_site_fract_z
_atom_site_occupancy
_atom_site_U_iso_or_equiv
Ti1 Ti 0.25 0 0.5 0.5 0.0
Nb1 Nb 0.25 0 0.5 0.5 0.0
Sn1 Sn 0 0 0 1 0.0
