#------------------------------------------------------------------------------
#$Date: 2015-07-11 03:06:53 +0300 (Sat, 11 Jul 2015) $
#$Revision: 143940 $
#$URL: svn://www.crystallography.net/cod/cif/1/52/33/1523325.cif $
#------------------------------------------------------------------------------
#
# This file is available in the Crystallography Open Database (COD),
# http://www.crystallography.net/
#
# All data on this site have been placed in the public domain by the
# contributors.
#
data_1523325
loop_
_publ_author_name
'Burnashova, V.V.'
'Kuprina, V.V.'
'Yarmolyuk, Ya.P.'
'Bernard, V.B.'
_publ_section_title
;
 The crystal structure of the compound Ta3 (Ir0.6 Ni0.4)
;
_journal_name_full               'Vestnik Moskovskogo Universiteta, Khimiya'
_journal_page_first              616
_journal_page_last               617
_journal_volume                  28
_journal_year                    1973
_chemical_formula_sum            'Ir0.6 Ni0.4 Ta3'
_chemical_name_systematic        '(Ir0.6 Ni0.4) Ta3'
_space_group_IT_number           223
_symmetry_space_group_name_Hall  '-P 4n 2 3'
_symmetry_space_group_name_H-M   'P m -3 n'
_cell_angle_alpha                90
_cell_angle_beta                 90
_cell_angle_gamma                90
_cell_formula_units_Z            2
_cell_length_a                   5.16
_cell_length_b                   5.16
_cell_length_c                   5.16
_cell_volume                     137.388
_citation_journal_id_ASTM        VMUKA5
_cod_data_source_file            Burnashova_VMUKA5_1973_781.cif
_cod_data_source_block           Ir0.6Ni0.4Ta3
_cod_original_cell_volume        137.3881
_cod_database_code               1523325
loop_
_symmetry_equiv_pos_as_xyz
x,y,z
-y+1/2,x+1/2,z+1/2
-x,-y,z
y+1/2,-x+1/2,z+1/2
x,-y,-z
y+1/2,x+1/2,-z+1/2
-x,y,-z
-y+1/2,-x+1/2,-z+1/2
z,x,y
-x+1/2,z+1/2,y+1/2
-z,-x,y
x+1/2,-z+1/2,y+1/2
z,-x,-y
x+1/2,z+1/2,-y+1/2
-z,x,-y
-x+1/2,-z+1/2,-y+1/2
y,z,x
y,-z,-x
z+1/2,y+1/2,-x+1/2
-y,z,-x
-z+1/2,-y+1/2,-x+1/2
-y,-z,x
z+1/2,-y+1/2,x+1/2
-z+1/2,y+1/2,x+1/2
-x,-y,-z
y-1/2,-x-1/2,-z-1/2
x,y,-z
-y-1/2,x-1/2,-z-1/2
-x,y,z
-y-1/2,-x-1/2,z-1/2
x,-y,z
y-1/2,x-1/2,z-1/2
-z,-x,-y
x-1/2,-z-1/2,-y-1/2
z,x,-y
-x-1/2,z-1/2,-y-1/2
-z,x,y
-x-1/2,-z-1/2,y-1/2
z,-x,y
x-1/2,z-1/2,y-1/2
-y,-z,-x
-y,z,x
-z-1/2,-y-1/2,x-1/2
y,-z,x
z-1/2,y-1/2,x-1/2
y,z,-x
-z-1/2,y-1/2,-x-1/2
z-1/2,-y-1/2,-x-1/2
loop_
_atom_site_label
_atom_site_type_symbol
_atom_site_fract_x
_atom_site_fract_y
_atom_site_fract_z
_atom_site_occupancy
_atom_site_U_iso_or_equiv
Ni1 Ni 0 0 0 0.4 0.0
Ta1 Ta 0.25 0 0.5 1 0.0
Ir1 Ir 0 0 0 0.6 0.0
