#------------------------------------------------------------------------------
#$Date: 2015-07-11 00:01:37 +0300 (Sat, 11 Jul 2015) $
#$Revision: 143451 $
#$URL: svn://www.crystallography.net/cod/cif/1/52/30/1523062.cif $
#------------------------------------------------------------------------------
#
# This file is available in the Crystallography Open Database (COD),
# http://www.crystallography.net/
#
# All data on this site have been placed in the public domain by the
# contributors.
#
data_1523062
loop_
_publ_author_name
'Waterstrat, R.M.'
'Haenssler, F.'
'Mueller, J.'
_publ_section_title
;
 Nb-Si A15 compounds produced by liquid quenching
;
_journal_name_full               'Journal of Applied Physics'
_journal_page_first              4763
_journal_page_last               4766
_journal_volume                  50
_journal_year                    1979
_chemical_formula_sum            'Nb3 Si0.6 Sn0.4'
_chemical_name_systematic        'Nb3 (Si0.6 Sn0.4)'
_space_group_IT_number           223
_symmetry_space_group_name_Hall  '-P 4n 2 3'
_symmetry_space_group_name_H-M   'P m -3 n'
_cell_angle_alpha                90
_cell_angle_beta                 90
_cell_angle_gamma                90
_cell_formula_units_Z            2
_cell_length_a                   5.19
_cell_length_b                   5.19
_cell_length_c                   5.19
_cell_volume                     139.798
_citation_journal_id_ASTM        JAPIAU
_cod_data_source_file            Waterstrat_JAPIAU_1979_1394.cif
_cod_data_source_block           Nb3Si0.6Sn0.4
_cod_original_cell_volume        139.7984
_cod_database_code               1523062
loop_
_symmetry_equiv_pos_as_xyz
x,y,z
-y+1/2,x+1/2,z+1/2
-x,-y,z
y+1/2,-x+1/2,z+1/2
x,-y,-z
y+1/2,x+1/2,-z+1/2
-x,y,-z
-y+1/2,-x+1/2,-z+1/2
z,x,y
-x+1/2,z+1/2,y+1/2
-z,-x,y
x+1/2,-z+1/2,y+1/2
z,-x,-y
x+1/2,z+1/2,-y+1/2
-z,x,-y
-x+1/2,-z+1/2,-y+1/2
y,z,x
y,-z,-x
z+1/2,y+1/2,-x+1/2
-y,z,-x
-z+1/2,-y+1/2,-x+1/2
-y,-z,x
z+1/2,-y+1/2,x+1/2
-z+1/2,y+1/2,x+1/2
-x,-y,-z
y-1/2,-x-1/2,-z-1/2
x,y,-z
-y-1/2,x-1/2,-z-1/2
-x,y,z
-y-1/2,-x-1/2,z-1/2
x,-y,z
y-1/2,x-1/2,z-1/2
-z,-x,-y
x-1/2,-z-1/2,-y-1/2
z,x,-y
-x-1/2,z-1/2,-y-1/2
-z,x,y
-x-1/2,-z-1/2,y-1/2
z,-x,y
x-1/2,z-1/2,y-1/2
-y,-z,-x
-y,z,x
-z-1/2,-y-1/2,x-1/2
y,-z,x
z-1/2,y-1/2,x-1/2
y,z,-x
-z-1/2,y-1/2,-x-1/2
z-1/2,-y-1/2,-x-1/2
loop_
_atom_site_label
_atom_site_type_symbol
_atom_site_fract_x
_atom_site_fract_y
_atom_site_fract_z
_atom_site_occupancy
_atom_site_U_iso_or_equiv
Sn1 Sn 0 0 0 0.4 0.0
Nb1 Nb 0.25 0 0.5 1 0.0
Si1 Si 0 0 0 0.6 0.0
