#------------------------------------------------------------------------------
#$Date: 2015-07-11 05:26:11 +0300 (Sat, 11 Jul 2015) $
#$Revision: 144454 $
#$URL: svn://www.crystallography.net/cod/cif/1/52/38/1523831.cif $
#------------------------------------------------------------------------------
#
# This file is available in the Crystallography Open Database (COD),
# http://www.crystallography.net/
#
# All data on this site have been placed in the public domain by the
# contributors.
#
data_1523831
loop_
_publ_author_name
'Hodeau, J.L.'
'Remeika, J.P.'
'Marezio, M.'
'Chenavas, J.'
_publ_section_title
;
 The crystal structure Sn Yb3 Rh4 Sn12, a new ternary superconducting
 stannide
;
_journal_name_full               'Solid State Communications'
_journal_page_first              839
_journal_page_last               845
_journal_volume                  36
_journal_year                    1980
_chemical_formula_sum            'Rh4 Sn13 Yb3'
_chemical_name_systematic        'Yb3 Rh4 Sn13'
_space_group_IT_number           223
_symmetry_space_group_name_Hall  '-P 4n 2 3'
_symmetry_space_group_name_H-M   'P m -3 n'
_cell_angle_alpha                90
_cell_angle_beta                 90
_cell_angle_gamma                90
_cell_formula_units_Z            2
_cell_length_a                   9.676
_cell_length_b                   9.676
_cell_length_c                   9.676
_cell_volume                     905.915
_citation_journal_id_ASTM        SSCOA4
_cod_data_source_file            Hodeau_SSCOA4_1980_1959.cif
_cod_data_source_block           Rh4Sn13Yb3
_cod_original_cell_volume        905.9152
_cod_database_code               1523831
loop_
_symmetry_equiv_pos_as_xyz
x,y,z
-y+1/2,x+1/2,z+1/2
-x,-y,z
y+1/2,-x+1/2,z+1/2
x,-y,-z
y+1/2,x+1/2,-z+1/2
-x,y,-z
-y+1/2,-x+1/2,-z+1/2
z,x,y
-x+1/2,z+1/2,y+1/2
-z,-x,y
x+1/2,-z+1/2,y+1/2
z,-x,-y
x+1/2,z+1/2,-y+1/2
-z,x,-y
-x+1/2,-z+1/2,-y+1/2
y,z,x
y,-z,-x
z+1/2,y+1/2,-x+1/2
-y,z,-x
-z+1/2,-y+1/2,-x+1/2
-y,-z,x
z+1/2,-y+1/2,x+1/2
-z+1/2,y+1/2,x+1/2
-x,-y,-z
y-1/2,-x-1/2,-z-1/2
x,y,-z
-y-1/2,x-1/2,-z-1/2
-x,y,z
-y-1/2,-x-1/2,z-1/2
x,-y,z
y-1/2,x-1/2,z-1/2
-z,-x,-y
x-1/2,-z-1/2,-y-1/2
z,x,-y
-x-1/2,z-1/2,-y-1/2
-z,x,y
-x-1/2,-z-1/2,y-1/2
z,-x,y
x-1/2,z-1/2,y-1/2
-y,-z,-x
-y,z,x
-z-1/2,-y-1/2,x-1/2
y,-z,x
z-1/2,y-1/2,x-1/2
y,z,-x
-z-1/2,y-1/2,-x-1/2
z-1/2,-y-1/2,-x-1/2
loop_
_atom_site_label
_atom_site_type_symbol
_atom_site_fract_x
_atom_site_fract_y
_atom_site_fract_z
_atom_site_occupancy
_atom_site_U_iso_or_equiv
Yb1 Yb 0.25 0.5 0 1 0.0
Sn1 Sn 0 0 0 1 0.0
Rh1 Rh 0.25 0.25 0.25 1 0.0
Sn2 Sn 0 0.3057 0.15333 1 0.0
