#------------------------------------------------------------------------------
#$Date: 2016-02-13 21:28:24 +0200 (Sat, 13 Feb 2016) $
#$Revision: 176429 $
#$URL: svn://www.crystallography.net/cod/cif/1/52/31/1523140.cif $
#------------------------------------------------------------------------------
#
# This file is available in the Crystallography Open Database (COD),
# http://www.crystallography.net/
#
# All data on this site have been placed in the public domain by the
# contributors.
#
data_1523140
loop_
_publ_author_name
'Zheng, C.'
'Ye, Y.'
'Dong, C.'
'Qian, J.'
_publ_section_title
;
 On the synthesis by reduction-diffusion and the properties of La Ni5-x
 Cux alloys
;
_journal_name_full               'Jinshu Xuebao'
_journal_page_first              352
_journal_page_last               358
_journal_volume                  20
_journal_year                    1984
_chemical_formula_sum            'La Ni4 Zn'
_chemical_name_systematic        'La (Ni4 Zn)'
_space_group_IT_number           191
_symmetry_space_group_name_Hall  '-P 6 2'
_symmetry_space_group_name_H-M   'P 6/m m m'
_cell_angle_alpha                90
_cell_angle_beta                 90
_cell_angle_gamma                120
_cell_formula_units_Z            1
_cell_length_a                   5.077
_cell_length_b                   5.077
_cell_length_c                   4.037
_cell_volume                     90.116
_citation_journal_id_ASTM        CHSPA4
_cod_data_source_file            Zheng_CHSPA4_1984_920.cif
_cod_data_source_block           La1Ni4Zn1
_cod_original_cell_volume        90.11639
_cod_original_formula_sum        'La1 Ni4 Zn1'
_cod_database_code               1523140
loop_
_symmetry_equiv_pos_as_xyz
x,y,z
x-y,x,z
-y,x-y,z
-x,-y,z
-x+y,-x,z
y,-x+y,z
-y,-x,-z
x-y,-y,-z
x,x-y,-z
y,x,-z
-x+y,y,-z
-x,-x+y,-z
-x,-y,-z
-x+y,-x,-z
y,-x+y,-z
x,y,-z
x-y,x,-z
-y,x-y,-z
y,x,z
-x+y,y,z
-x,-x+y,z
-y,-x,z
x-y,-y,z
x,x-y,z
loop_
_atom_site_label
_atom_site_type_symbol
_atom_site_fract_x
_atom_site_fract_y
_atom_site_fract_z
_atom_site_occupancy
_atom_site_U_iso_or_equiv
Ni1 Ni 0.3333 0.6667 0 0.8 0.0
Zn2 Zn 0.5 0 0.5 0.2 0.0
Ni2 Ni 0.5 0 0.5 0.8 0.0
La1 La 0 0 0 1 0.0
Zn1 Zn 0.3333 0.6667 0 0.2 0.0
