#------------------------------------------------------------------------------
#$Date: 2016-02-13 21:28:24 +0200 (Sat, 13 Feb 2016) $
#$Revision: 176429 $
#$URL: svn://www.crystallography.net/cod/cif/1/52/39/1523929.cif $
#------------------------------------------------------------------------------
#
# This file is available in the Crystallography Open Database (COD),
# http://www.crystallography.net/
#
# All data on this site have been placed in the public domain by the
# contributors.
#
data_1523929
loop_
_publ_author_name
'Johnson, V.'
'Jeitschko, W.'
_publ_section_title
;
 Ternary equiatomic transition metal silicides and germanides
;
_journal_name_full               'Journal of Solid State Chemistry'
_journal_page_first              123
_journal_page_last               130
_journal_volume                  4
_journal_year                    1972
_chemical_formula_sum            'Ru Si Ti'
_chemical_name_systematic        'Ru Ti Si'
_space_group_IT_number           46
_symmetry_space_group_name_Hall  'I 2 -2a'
_symmetry_space_group_name_H-M   'I m a 2'
_cell_angle_alpha                90
_cell_angle_beta                 90
_cell_angle_gamma                90
_cell_formula_units_Z            12
_cell_length_a                   7.0352
_cell_length_b                   11.192
_cell_length_c                   6.4734
_cell_volume                     509.702
_citation_journal_id_ASTM        JSSCBI
_cod_data_source_file            Johnson_JSSCBI_1972_1948.cif
_cod_data_source_block           Ru1Si1Ti1
_cod_original_cell_volume        509.7023
_cod_original_formula_sum        'Ru1 Si1 Ti1'
_cod_database_code               1523929
loop_
_symmetry_equiv_pos_as_xyz
x,y,z
-x,-y,z
-x+1/2,y,z
x+1/2,-y,z
x+1/2,y+1/2,z+1/2
-x+1/2,-y+1/2,z+1/2
-x+1,y+1/2,z+1/2
x+1,-y+1/2,z+1/2
loop_
_atom_site_label
_atom_site_type_symbol
_atom_site_fract_x
_atom_site_fract_y
_atom_site_fract_z
_atom_site_occupancy
_atom_site_U_iso_or_equiv
Si2 Si 0.25 0.9747 0.5055 1 0.0
Ti2 Ti 0.25 0.7793 0.2707 1 0.0
Ru1 Ru 0.0295 0.3764 0.12 1 0.0
Ru2 Ru 0 0 0.2501 1 0.0
Si1 Si 0.006 0.1675 0.9953 1 0.0
Ti1 Ti 0.25 0.2004 0.2964 1 0.0
Ti3 Ti 0.25 0.9979 0.9178 1 0.0
