#------------------------------------------------------------------------------
#$Date: 2016-02-13 21:28:24 +0200 (Sat, 13 Feb 2016) $
#$Revision: 176429 $
#$URL: svn://www.crystallography.net/cod/cif/1/52/46/1524621.cif $
#------------------------------------------------------------------------------
#
# This file is available in the Crystallography Open Database (COD),
# http://www.crystallography.net/
#
# All data on this site have been placed in the public domain by the
# contributors.
#
data_1524621
loop_
_publ_author_name
'Kadomatsu, H.'
'Kawanishi, Y.'
'Kurisu, M.'
'Tokunaga, T.'
'Fujiwara, H.'
_publ_section_title
;
 Structural phase transitions in Y Cu1-x Mx (M= Ni, Ag, Ga)
;
_journal_name_full               'Journal of the Less-Common Metals'
_journal_page_first              29
_journal_page_last               36
_journal_volume                  141
_journal_year                    1988
_chemical_formula_sum            'Cu0.95 Ni0.05 Y'
_chemical_name_systematic        '(Cu0.95 Ni0.05) Y'
_space_group_IT_number           221
_symmetry_space_group_name_Hall  '-P 4 2 3'
_symmetry_space_group_name_H-M   'P m -3 m'
_cell_angle_alpha                90
_cell_angle_beta                 90
_cell_angle_gamma                90
_cell_formula_units_Z            1
_cell_length_a                   3.467
_cell_length_b                   3.467
_cell_length_c                   3.467
_cell_volume                     41.674
_citation_journal_id_ASTM        JCOMAH
_cod_data_source_file            Kadomatsu_JCOMAH_1988_1587.cif
_cod_data_source_block           Cu0.95Ni0.05Y1
_cod_original_cell_volume        41.67365
_cod_original_formula_sum        'Cu0.95 Ni0.05 Y1'
_cod_database_code               1524621
loop_
_symmetry_equiv_pos_as_xyz
x,y,z
-y,x,z
-x,-y,z
y,-x,z
x,-y,-z
y,x,-z
-x,y,-z
-y,-x,-z
z,x,y
-x,z,y
-z,-x,y
x,-z,y
z,-x,-y
x,z,-y
-z,x,-y
-x,-z,-y
y,z,x
y,-z,-x
z,y,-x
-y,z,-x
-z,-y,-x
-y,-z,x
z,-y,x
-z,y,x
-x,-y,-z
y,-x,-z
x,y,-z
-y,x,-z
-x,y,z
-y,-x,z
x,-y,z
y,x,z
-z,-x,-y
x,-z,-y
z,x,-y
-x,z,-y
-z,x,y
-x,-z,y
z,-x,y
x,z,y
-y,-z,-x
-y,z,x
-z,-y,x
y,-z,x
z,y,x
y,z,-x
-z,y,-x
z,-y,-x
loop_
_atom_site_label
_atom_site_type_symbol
_atom_site_fract_x
_atom_site_fract_y
_atom_site_fract_z
_atom_site_occupancy
_atom_site_U_iso_or_equiv
Y1 Y 0.5 0.5 0.5 1 0.0
Ni1 Ni 0 0 0 0.05 0.0
Cu1 Cu 0 0 0 0.95 0.0
