#------------------------------------------------------------------------------
#$Date: 2016-02-13 21:28:24 +0200 (Sat, 13 Feb 2016) $
#$Revision: 176429 $
#$URL: svn://www.crystallography.net/cod/cif/1/52/40/1524021.cif $
#------------------------------------------------------------------------------
#
# This file is available in the Crystallography Open Database (COD),
# http://www.crystallography.net/
#
# All data on this site have been placed in the public domain by the
# contributors.
#
data_1524021
loop_
_publ_author_name
'Baranyak, V.M.'
'Dmytrakh, O.V.'
'Kal'ichak, Ya.M.'
'Zavalii, P.Yu.'
_publ_section_title
;
 Ternary intermetallic compounds with AlB2-type structure in La(Ce, Pr,
 Nd, Sm, Eu) - Ni(Cu) - In systems
;
_journal_name_full
'Izvestiya Akademii Nauk SSSR, Neorganicheskie Materialy'
_journal_page_first              873
_journal_page_last               874
_journal_volume                  24
_journal_year                    1988
_chemical_formula_sum            'Cu0.5 In1.5 Pr'
_chemical_name_systematic        '(Cu0.25 In0.75)2 Pr'
_space_group_IT_number           191
_symmetry_space_group_name_Hall  '-P 6 2'
_symmetry_space_group_name_H-M   'P 6/m m m'
_cell_angle_alpha                90
_cell_angle_beta                 90
_cell_angle_gamma                120
_cell_formula_units_Z            1
_cell_length_a                   4.789
_cell_length_b                   4.789
_cell_length_c                   3.812
_cell_volume                     75.713
_citation_journal_id_ASTM        IVNMAW
_cod_data_source_file            Baranyak_IVNMAW_1988_1524.cif
_cod_data_source_block           Cu0.5In1.5Pr1
_cod_original_cell_volume        75.71348
_cod_original_formula_sum        'Cu0.5 In1.5 Pr1'
_cod_database_code               1524021
loop_
_symmetry_equiv_pos_as_xyz
x,y,z
x-y,x,z
-y,x-y,z
-x,-y,z
-x+y,-x,z
y,-x+y,z
-y,-x,-z
x-y,-y,-z
x,x-y,-z
y,x,-z
-x+y,y,-z
-x,-x+y,-z
-x,-y,-z
-x+y,-x,-z
y,-x+y,-z
x,y,-z
x-y,x,-z
-y,x-y,-z
y,x,z
-x+y,y,z
-x,-x+y,z
-y,-x,z
x-y,-y,z
x,x-y,z
loop_
_atom_site_label
_atom_site_type_symbol
_atom_site_fract_x
_atom_site_fract_y
_atom_site_fract_z
_atom_site_occupancy
_atom_site_U_iso_or_equiv
Cu1 Cu 0.3333 0.6667 0.5 0.25 0.0
Pr1 Pr 0 0 0 1 0.0
In1 In 0.3333 0.6667 0.5 0.75 0.0
