#------------------------------------------------------------------------------
#$Date: 2015-07-11 22:35:38 +0300 (Sat, 11 Jul 2015) $
#$Revision: 145883 $
#$URL: svn://www.crystallography.net/cod/cif/1/52/49/1524997.cif $
#------------------------------------------------------------------------------
#
# This file is available in the Crystallography Open Database (COD),
# http://www.crystallography.net/
#
# All data on this site have been placed in the public domain by the
# contributors.
#
data_1524997
loop_
_publ_author_name
'Norman, M.'
'Harris, I.R.'
'Raynor, G.V.'
_publ_section_title
;
 Lattice spacings and effective atomic diameters in the ternary systems
 formed by Th and Ce with Y, La, Gd and Er, and by Th, Pr and Y
;
_journal_name_full               'Journal of the Less-Common Metals'
_journal_page_first              24
_journal_page_last               44
_journal_volume                  13
_journal_year                    1967
_chemical_formula_sum            'Ce0.2 Th0.1 Y0.7'
_chemical_name_systematic        '(Ce0.2 Th0.1 Y0.7)'
_space_group_IT_number           194
_symmetry_space_group_name_Hall  '-P 6c 2c'
_symmetry_space_group_name_H-M   'P 63/m m c'
_cell_angle_alpha                90
_cell_angle_beta                 90
_cell_angle_gamma                120
_cell_formula_units_Z            2
_cell_length_a                   3.6605
_cell_length_b                   3.6605
_cell_length_c                   5.7909
_cell_volume                     67.198
_citation_journal_id_ASTM        JCOMAH
_cod_data_source_file            Norman_JCOMAH_1967_891.cif
_cod_data_source_block           Ce0.2Th0.1Y0.7
_cod_original_cell_volume        67.19819
_cod_database_code               1524997
loop_
_symmetry_equiv_pos_as_xyz
x,y,z
x-y,x,z+1/2
-y,x-y,z
-x,-y,z+1/2
-x+y,-x,z
y,-x+y,z+1/2
-y,-x,-z+1/2
x-y,-y,-z
x,x-y,-z+1/2
y,x,-z
-x+y,y,-z+1/2
-x,-x+y,-z
-x,-y,-z
-x+y,-x,-z-1/2
y,-x+y,-z
x,y,-z-1/2
x-y,x,-z
-y,x-y,-z-1/2
y,x,z-1/2
-x+y,y,z
-x,-x+y,z-1/2
-y,-x,z
x-y,-y,z-1/2
x,x-y,z
loop_
_atom_site_label
_atom_site_type_symbol
_atom_site_fract_x
_atom_site_fract_y
_atom_site_fract_z
_atom_site_occupancy
_atom_site_U_iso_or_equiv
Y1 Y 0.3333 0.6667 0.25 0.7 0.0
Ce1 Ce 0.3333 0.6667 0.25 0.2 0.0
Th1 Th 0.3333 0.6667 0.25 0.1 0.0
