#------------------------------------------------------------------------------
#$Date: 2016-02-13 21:28:24 +0200 (Sat, 13 Feb 2016) $
#$Revision: 176429 $
#$URL: svn://www.crystallography.net/cod/cif/1/52/49/1524986.cif $
#------------------------------------------------------------------------------
#
# This file is available in the Crystallography Open Database (COD),
# http://www.crystallography.net/
#
# All data on this site have been placed in the public domain by the
# contributors.
#
data_1524986
loop_
_publ_author_name
'Nishida, I.'
'Uehars, M.'
_publ_section_title
;
 Study of the crystal structure and stablity of pseudobinary compounds Sm
 Co5-x Cux
;
_journal_name_full               'Journal of the Less-Common Metals'
_journal_page_first              285
_journal_page_last               291
_journal_volume                  34
_journal_year                    1974
_chemical_formula_sum            'Co2.5 Cu2.5 Sm'
_chemical_name_systematic        '(Co2.5 Cu2.5) Sm'
_space_group_IT_number           191
_symmetry_space_group_name_Hall  '-P 6 2'
_symmetry_space_group_name_H-M   'P 6/m m m'
_cell_angle_alpha                90
_cell_angle_beta                 90
_cell_angle_gamma                120
_cell_formula_units_Z            1
_cell_length_a                   5.026
_cell_length_b                   5.026
_cell_length_c                   4.02
_cell_volume                     87.943
_citation_journal_id_ASTM        JCOMAH
_cod_data_source_file            Nishida_JCOMAH_1974_934.cif
_cod_data_source_block           Co2.5Cu2.5Sm1
_cod_original_cell_volume        87.94308
_cod_original_formula_sum        'Co2.5 Cu2.5 Sm1'
_cod_database_code               1524986
loop_
_symmetry_equiv_pos_as_xyz
x,y,z
x-y,x,z
-y,x-y,z
-x,-y,z
-x+y,-x,z
y,-x+y,z
-y,-x,-z
x-y,-y,-z
x,x-y,-z
y,x,-z
-x+y,y,-z
-x,-x+y,-z
-x,-y,-z
-x+y,-x,-z
y,-x+y,-z
x,y,-z
x-y,x,-z
-y,x-y,-z
y,x,z
-x+y,y,z
-x,-x+y,z
-y,-x,z
x-y,-y,z
x,x-y,z
loop_
_atom_site_label
_atom_site_type_symbol
_atom_site_fract_x
_atom_site_fract_y
_atom_site_fract_z
_atom_site_occupancy
_atom_site_U_iso_or_equiv
Cu2 Cu 0.5 0 0.5 0.5 0.0
Cu1 Cu 0.3333 0.6667 0 0.5 0.0
Co2 Co 0.5 0 0.5 0.5 0.0
Sm1 Sm 0 0 0 1 0.0
Co1 Co 0.3333 0.6667 0 0.5 0.0
