#------------------------------------------------------------------------------
#$Date: 2015-07-11 17:54:45 +0300 (Sat, 11 Jul 2015) $
#$Revision: 145451 $
#$URL: svn://www.crystallography.net/cod/cif/1/52/46/1524652.cif $
#------------------------------------------------------------------------------
#
# This file is available in the Crystallography Open Database (COD),
# http://www.crystallography.net/
#
# All data on this site have been placed in the public domain by the
# contributors.
#
data_1524652
loop_
_publ_author_name
'Kappler, J.P.'
'Krill, G.'
'Besnus, M.J.'
'Ravet, M.F.'
'Hamdaoui, N.'
'Meyer, A.'
_publ_section_title
;
 Electronic structure of cerium in Ce1-x Yx Pd3 and Ce1-x Mx Al2 (X= Cs,
 Y)
;
_journal_name_full               'Journal of Applied Physics'
_journal_page_first              2152
_journal_page_last               2154
_journal_volume                  53
_journal_year                    1982
_chemical_formula_sum            'Ce0.5 Pd3 Y0.5'
_chemical_name_systematic        '(Ce0.5 Y0.5) Pd3'
_space_group_IT_number           221
_symmetry_space_group_name_Hall  '-P 4 2 3'
_symmetry_space_group_name_H-M   'P m -3 m'
_cell_angle_alpha                90
_cell_angle_beta                 90
_cell_angle_gamma                90
_cell_formula_units_Z            1
_cell_length_a                   4.087
_cell_length_b                   4.087
_cell_length_c                   4.087
_cell_volume                     68.267
_citation_journal_id_ASTM        JAPIAU
_cod_data_source_file            Kappler_JAPIAU_1982_866.cif
_cod_data_source_block           Ce0.5Pd3Y0.5
_cod_original_cell_volume        68.26748
_cod_database_code               1524652
loop_
_symmetry_equiv_pos_as_xyz
x,y,z
-y,x,z
-x,-y,z
y,-x,z
x,-y,-z
y,x,-z
-x,y,-z
-y,-x,-z
z,x,y
-x,z,y
-z,-x,y
x,-z,y
z,-x,-y
x,z,-y
-z,x,-y
-x,-z,-y
y,z,x
y,-z,-x
z,y,-x
-y,z,-x
-z,-y,-x
-y,-z,x
z,-y,x
-z,y,x
-x,-y,-z
y,-x,-z
x,y,-z
-y,x,-z
-x,y,z
-y,-x,z
x,-y,z
y,x,z
-z,-x,-y
x,-z,-y
z,x,-y
-x,z,-y
-z,x,y
-x,-z,y
z,-x,y
x,z,y
-y,-z,-x
-y,z,x
-z,-y,x
y,-z,x
z,y,x
y,z,-x
-z,y,-x
z,-y,-x
loop_
_atom_site_label
_atom_site_type_symbol
_atom_site_fract_x
_atom_site_fract_y
_atom_site_fract_z
_atom_site_occupancy
_atom_site_U_iso_or_equiv
Ce1 Ce 0 0 0 0.5 0.0
Y1 Y 0 0 0 0.5 0.0
Pd1 Pd 0 0.5 0.5 1 0.0
