#------------------------------------------------------------------------------
#$Date: 2016-02-13 21:28:24 +0200 (Sat, 13 Feb 2016) $
#$Revision: 176429 $
#$URL: svn://www.crystallography.net/cod/cif/1/52/44/1524449.cif $
#------------------------------------------------------------------------------
#
# This file is available in the Crystallography Open Database (COD),
# http://www.crystallography.net/
#
# All data on this site have been placed in the public domain by the
# contributors.
#
data_1524449
loop_
_publ_author_name
'Grin', Yu.'
'Pecharskii, V.K.'
'Yarmolyuk, Ya.P.'
_publ_section_title
;
 Composition and structure of R Gax Ni5-x phases in rare earth metals - Ga
 - Ni systems
;
_journal_name_full               'Izvestiya Akademii Nauk SSSR, Metally'
_journal_page_first              187
_journal_page_last               191
_journal_volume                  1983
_journal_year                    1983
_chemical_formula_sum            'Dy Ga1.5 Ni3.5'
_chemical_name_systematic        'Dy (Ga1.5 Ni3.5)'
_space_group_IT_number           191
_symmetry_space_group_name_Hall  '-P 6 2'
_symmetry_space_group_name_H-M   'P 6/m m m'
_cell_angle_alpha                90
_cell_angle_beta                 90
_cell_angle_gamma                120
_cell_formula_units_Z            1
_cell_length_a                   4.95
_cell_length_b                   4.95
_cell_length_c                   4.07
_cell_volume                     86.365
_citation_journal_id_ASTM        IZNMAQ
_cod_data_source_file            Grin_IZNMAQ_1983_1685.cif
_cod_data_source_block           Dy1Ga1.5Ni3.5
_cod_original_cell_volume        86.36453
_cod_original_formula_sum        'Dy1 Ga1.5 Ni3.5'
_cod_database_code               1524449
loop_
_symmetry_equiv_pos_as_xyz
x,y,z
x-y,x,z
-y,x-y,z
-x,-y,z
-x+y,-x,z
y,-x+y,z
-y,-x,-z
x-y,-y,-z
x,x-y,-z
y,x,-z
-x+y,y,-z
-x,-x+y,-z
-x,-y,-z
-x+y,-x,-z
y,-x+y,-z
x,y,-z
x-y,x,-z
-y,x-y,-z
y,x,z
-x+y,y,z
-x,-x+y,z
-y,-x,z
x-y,-y,z
x,x-y,z
loop_
_atom_site_label
_atom_site_type_symbol
_atom_site_fract_x
_atom_site_fract_y
_atom_site_fract_z
_atom_site_occupancy
_atom_site_U_iso_or_equiv
Ni1 Ni 0.3333 0.6667 0 0.7 0.0
Ga1 Ga 0.3333 0.6667 0 0.3 0.0
Dy1 Dy 0 0 0 1 0.0
Ga2 Ga 0.5 0 0.5 0.3 0.0
Ni2 Ni 0.5 0 0.5 0.7 0.0
