#------------------------------------------------------------------------------
#$Date: 2016-02-13 21:28:24 +0200 (Sat, 13 Feb 2016) $
#$Revision: 176429 $
#$URL: svn://www.crystallography.net/cod/cif/1/52/48/1524870.cif $
#------------------------------------------------------------------------------
#
# This file is available in the Crystallography Open Database (COD),
# http://www.crystallography.net/
#
# All data on this site have been placed in the public domain by the
# contributors.
#
data_1524870
loop_
_publ_author_name
'Markiv, V.Ya.'
'Storozhenko, A.I.'
_publ_section_title
;
 Phase equilibria in the Zr-Fe-Ga and Zr-Co-Ga systems
;
_journal_name_full
;
Dopovidi Akademii Nauk Ukrains'koi RSR, Seriya A: Fiziko-Tekhnichni ta 
Matematichni Nauki
;
_journal_page_first              945
_journal_page_last               949
_journal_volume                  1974
_journal_year                    1974
_chemical_formula_sum            'Fe0.51 Ga2.49 Zr'
_chemical_name_systematic        '(Fe0.17 Ga0.83)3 Zr'
_space_group_IT_number           221
_symmetry_space_group_name_Hall  '-P 4 2 3'
_symmetry_space_group_name_H-M   'P m -3 m'
_cell_angle_alpha                90
_cell_angle_beta                 90
_cell_angle_gamma                90
_cell_formula_units_Z            1
_cell_length_a                   4.067
_cell_length_b                   4.067
_cell_length_c                   4.067
_cell_volume                     67.270
_citation_journal_id_ASTM        DUKABM
_cod_data_source_file            Markiv_DUKABM_1974_1928.cif
_cod_data_source_block           Fe0.51Ga2.49Zr1
_cod_original_cell_volume        67.27016
_cod_original_formula_sum        'Fe0.51 Ga2.49 Zr1'
_cod_database_code               1524870
loop_
_symmetry_equiv_pos_as_xyz
x,y,z
-y,x,z
-x,-y,z
y,-x,z
x,-y,-z
y,x,-z
-x,y,-z
-y,-x,-z
z,x,y
-x,z,y
-z,-x,y
x,-z,y
z,-x,-y
x,z,-y
-z,x,-y
-x,-z,-y
y,z,x
y,-z,-x
z,y,-x
-y,z,-x
-z,-y,-x
-y,-z,x
z,-y,x
-z,y,x
-x,-y,-z
y,-x,-z
x,y,-z
-y,x,-z
-x,y,z
-y,-x,z
x,-y,z
y,x,z
-z,-x,-y
x,-z,-y
z,x,-y
-x,z,-y
-z,x,y
-x,-z,y
z,-x,y
x,z,y
-y,-z,-x
-y,z,x
-z,-y,x
y,-z,x
z,y,x
y,z,-x
-z,y,-x
z,-y,-x
loop_
_atom_site_label
_atom_site_type_symbol
_atom_site_fract_x
_atom_site_fract_y
_atom_site_fract_z
_atom_site_occupancy
_atom_site_U_iso_or_equiv
Fe1 Fe 0 0.5 0.5 0.17 0.0
Zr1 Zr 0 0 0 1 0.0
Ga1 Ga 0 0.5 0.5 0.83 0.0
