#------------------------------------------------------------------------------
#$Date: 2016-02-13 21:28:24 +0200 (Sat, 13 Feb 2016) $
#$Revision: 176429 $
#$URL: svn://www.crystallography.net/cod/cif/1/52/48/1524867.cif $
#------------------------------------------------------------------------------
#
# This file is available in the Crystallography Open Database (COD),
# http://www.crystallography.net/
#
# All data on this site have been placed in the public domain by the
# contributors.
#
data_1524867
loop_
_publ_author_name
'Markiv, V.Ya.'
'Storozhenko, A.I.'
_publ_section_title
;
 Phase equilibria in the Zr-Fe-Ga and Zr-Co-Ga systems
;
_journal_name_full
;
Dopovidi Akademii Nauk Ukrains'koi RSR, Seriya A: Fiziko-Tekhnichni ta 
Matematichni Nauki
;
_journal_page_first              945
_journal_page_last               949
_journal_volume                  1974
_journal_year                    1974
_chemical_formula_sum            'Co0.5 Ga2.5 Zr'
_chemical_name_systematic        '(Co0.5 Ga2.5) Zr'
_space_group_IT_number           221
_symmetry_space_group_name_Hall  '-P 4 2 3'
_symmetry_space_group_name_H-M   'P m -3 m'
_cell_angle_alpha                90
_cell_angle_beta                 90
_cell_angle_gamma                90
_cell_formula_units_Z            1
_cell_length_a                   4.034
_cell_length_b                   4.034
_cell_length_c                   4.034
_cell_volume                     65.646
_citation_journal_id_ASTM        DUKABM
_cod_data_source_file            Markiv_DUKABM_1974_1041.cif
_cod_data_source_block           Co0.5Ga2.5Zr1
_cod_original_cell_volume        65.6459
_cod_original_formula_sum        'Co0.5 Ga2.5 Zr1'
_cod_database_code               1524867
loop_
_symmetry_equiv_pos_as_xyz
x,y,z
-y,x,z
-x,-y,z
y,-x,z
x,-y,-z
y,x,-z
-x,y,-z
-y,-x,-z
z,x,y
-x,z,y
-z,-x,y
x,-z,y
z,-x,-y
x,z,-y
-z,x,-y
-x,-z,-y
y,z,x
y,-z,-x
z,y,-x
-y,z,-x
-z,-y,-x
-y,-z,x
z,-y,x
-z,y,x
-x,-y,-z
y,-x,-z
x,y,-z
-y,x,-z
-x,y,z
-y,-x,z
x,-y,z
y,x,z
-z,-x,-y
x,-z,-y
z,x,-y
-x,z,-y
-z,x,y
-x,-z,y
z,-x,y
x,z,y
-y,-z,-x
-y,z,x
-z,-y,x
y,-z,x
z,y,x
y,z,-x
-z,y,-x
z,-y,-x
loop_
_atom_site_label
_atom_site_type_symbol
_atom_site_fract_x
_atom_site_fract_y
_atom_site_fract_z
_atom_site_occupancy
_atom_site_U_iso_or_equiv
Ga1 Ga 0 0.5 0.5 0.8333 0.0
Zr1 Zr 0 0 0 1 0.0
Co1 Co 0 0.5 0.5 0.1667 0.0
