#------------------------------------------------------------------------------
#$Date: 2016-02-13 21:28:24 +0200 (Sat, 13 Feb 2016) $
#$Revision: 176429 $
#$URL: svn://www.crystallography.net/cod/cif/1/52/41/1524181.cif $
#------------------------------------------------------------------------------
#
# This file is available in the Crystallography Open Database (COD),
# http://www.crystallography.net/
#
# All data on this site have been placed in the public domain by the
# contributors.
#
data_1524181
loop_
_publ_author_name
'Canepa, F.'
'Minguzzi, M.'
'Olcese, G.L.'
_publ_section_title
;
 Surrounding effects of the valence behaviour of cerium in intermetallic
 compounds
;
_journal_name_full               'Journal of Magnetism and Magnetic Materials'
_journal_page_first              591
_journal_page_last               593
_journal_volume                  63
_journal_year                    1987
_chemical_formula_sum            'Ce0.2 Rh Y0.8'
_chemical_name_systematic        '(Ce0.2 Y0.8) Rh'
_space_group_IT_number           221
_symmetry_space_group_name_Hall  '-P 4 2 3'
_symmetry_space_group_name_H-M   'P m -3 m'
_cell_angle_alpha                90
_cell_angle_beta                 90
_cell_angle_gamma                90
_cell_formula_units_Z            1
_cell_length_a                   3.434
_cell_length_b                   3.434
_cell_length_c                   3.434
_cell_volume                     40.495
_citation_journal_id_ASTM        JMMMDC
_cod_data_source_file            Canepa_JMMMDC_1987_880.cif
_cod_data_source_block           Ce0.2Rh1Y0.8
_cod_original_cell_volume        40.49495
_cod_original_formula_sum        'Ce0.2 Rh1 Y0.8'
_cod_database_code               1524181
loop_
_symmetry_equiv_pos_as_xyz
x,y,z
-y,x,z
-x,-y,z
y,-x,z
x,-y,-z
y,x,-z
-x,y,-z
-y,-x,-z
z,x,y
-x,z,y
-z,-x,y
x,-z,y
z,-x,-y
x,z,-y
-z,x,-y
-x,-z,-y
y,z,x
y,-z,-x
z,y,-x
-y,z,-x
-z,-y,-x
-y,-z,x
z,-y,x
-z,y,x
-x,-y,-z
y,-x,-z
x,y,-z
-y,x,-z
-x,y,z
-y,-x,z
x,-y,z
y,x,z
-z,-x,-y
x,-z,-y
z,x,-y
-x,z,-y
-z,x,y
-x,-z,y
z,-x,y
x,z,y
-y,-z,-x
-y,z,x
-z,-y,x
y,-z,x
z,y,x
y,z,-x
-z,y,-x
z,-y,-x
loop_
_atom_site_label
_atom_site_type_symbol
_atom_site_fract_x
_atom_site_fract_y
_atom_site_fract_z
_atom_site_occupancy
_atom_site_U_iso_or_equiv
Y1 Y 0 0 0 0.8 0.0
Rh1 Rh 0.5 0.5 0.5 1 0.0
Ce1 Ce 0 0 0 0.2 0.0
