#------------------------------------------------------------------------------
#$Date: 2015-07-11 16:38:05 +0300 (Sat, 11 Jul 2015) $
#$Revision: 144974 $
#$URL: svn://www.crystallography.net/cod/cif/1/52/42/1524257.cif $
#------------------------------------------------------------------------------
#
# This file is available in the Crystallography Open Database (COD),
# http://www.crystallography.net/
#
# All data on this site have been placed in the public domain by the
# contributors.
#
data_1524257
loop_
_publ_author_name
'Dijkman, W.H.'
'de Chatelll, P.F.'
'de Boer, F.R.'
_publ_section_title
;
 Intermediate-valence state of Ce in pure and La-substituted Ce Sn3
;
_journal_name_full               'Physica B and C (Netherland) (79,1975-)'
_journal_page_first              271
_journal_page_last               281
_journal_volume                  98
_journal_year                    1980
_chemical_formula_sum            'Ce0.5 La0.5 Sn3'
_chemical_name_systematic        '(Ce0.5 La0.5) Sn3'
_space_group_IT_number           221
_symmetry_space_group_name_Hall  '-P 4 2 3'
_symmetry_space_group_name_H-M   'P m -3 m'
_cell_angle_alpha                90
_cell_angle_beta                 90
_cell_angle_gamma                90
_cell_formula_units_Z            1
_cell_length_a                   4.746
_cell_length_b                   4.746
_cell_length_c                   4.746
_cell_volume                     106.901
_citation_journal_id_ASTM        PHBCDQ
_cod_data_source_file            Dijkman_PHBCDQ_1980_827.cif
_cod_data_source_block           Ce0.5La0.5Sn3
_cod_original_cell_volume        106.9013
_cod_database_code               1524257
loop_
_symmetry_equiv_pos_as_xyz
x,y,z
-y,x,z
-x,-y,z
y,-x,z
x,-y,-z
y,x,-z
-x,y,-z
-y,-x,-z
z,x,y
-x,z,y
-z,-x,y
x,-z,y
z,-x,-y
x,z,-y
-z,x,-y
-x,-z,-y
y,z,x
y,-z,-x
z,y,-x
-y,z,-x
-z,-y,-x
-y,-z,x
z,-y,x
-z,y,x
-x,-y,-z
y,-x,-z
x,y,-z
-y,x,-z
-x,y,z
-y,-x,z
x,-y,z
y,x,z
-z,-x,-y
x,-z,-y
z,x,-y
-x,z,-y
-z,x,y
-x,-z,y
z,-x,y
x,z,y
-y,-z,-x
-y,z,x
-z,-y,x
y,-z,x
z,y,x
y,z,-x
-z,y,-x
z,-y,-x
loop_
_atom_site_label
_atom_site_type_symbol
_atom_site_fract_x
_atom_site_fract_y
_atom_site_fract_z
_atom_site_occupancy
_atom_site_U_iso_or_equiv
La1 La 0 0 0 0.5 0.0
Ce1 Ce 0 0 0 0.5 0.0
Sn1 Sn 0 0.5 0.5 1 0.0
