#------------------------------------------------------------------------------
#$Date: 2016-02-13 21:28:24 +0200 (Sat, 13 Feb 2016) $
#$Revision: 176429 $
#$URL: svn://www.crystallography.net/cod/cif/1/52/42/1524222.cif $
#------------------------------------------------------------------------------
#
# This file is available in the Crystallography Open Database (COD),
# http://www.crystallography.net/
#
# All data on this site have been placed in the public domain by the
# contributors.
#
data_1524222
loop_
_publ_author_name
'Chuev, V.V.'
'Kelarev, V.V.'
'Koryakova, V.S.'
'Pirogov, A.N.'
'Sidorov, S.K.'
_publ_section_title
;
 Crystal structure and magnetic state of pseudobinary intermetallic
 compounds Ho (Co1-x Hox)5
;
_journal_name_full               'Fizika Metallov i Metallovedenie'
_journal_page_first              510
_journal_page_last               519
_journal_volume                  55
_journal_year                    1983
_chemical_formula_sum            'Co2.5 Ho Ni2.5'
_chemical_name_systematic        '(Co2.5 Ni2.5) Ho'
_space_group_IT_number           191
_symmetry_space_group_name_Hall  '-P 6 2'
_symmetry_space_group_name_H-M   'P 6/m m m'
_cell_angle_alpha                90
_cell_angle_beta                 90
_cell_angle_gamma                120
_cell_formula_units_Z            1
_cell_length_a                   4.89
_cell_length_b                   4.89
_cell_length_c                   3.979
_cell_volume                     82.399
_citation_journal_id_ASTM        FMMTAK
_cod_data_source_file            Chuev_FMMTAK_1983_1071.cif
_cod_data_source_block           Co2.5Ho1Ni2.5
_cod_original_cell_volume        82.39906
_cod_original_formula_sum        'Co2.5 Ho1 Ni2.5'
_cod_database_code               1524222
loop_
_symmetry_equiv_pos_as_xyz
x,y,z
x-y,x,z
-y,x-y,z
-x,-y,z
-x+y,-x,z
y,-x+y,z
-y,-x,-z
x-y,-y,-z
x,x-y,-z
y,x,-z
-x+y,y,-z
-x,-x+y,-z
-x,-y,-z
-x+y,-x,-z
y,-x+y,-z
x,y,-z
x-y,x,-z
-y,x-y,-z
y,x,z
-x+y,y,z
-x,-x+y,z
-y,-x,z
x-y,-y,z
x,x-y,z
loop_
_atom_site_label
_atom_site_type_symbol
_atom_site_fract_x
_atom_site_fract_y
_atom_site_fract_z
_atom_site_occupancy
_atom_site_U_iso_or_equiv
Ni2 Ni 0.5 0 0.5 0.5 0.0
Ni1 Ni 0.3333 0.6667 0 0.5 0.0
Co2 Co 0.5 0 0.5 0.5 0.0
Ho1 Ho 0 0 0 1 0.0
Co1 Co 0.3333 0.6667 0 0.5 0.0
