#------------------------------------------------------------------------------
#$Date: 2018-09-27 07:13:35 +0300 (Thu, 27 Sep 2018) $
#$Revision: 211196 $
#$URL: file:///home/coder/svn-repositories/cod/cif/1/52/42/1524205.cif $
#------------------------------------------------------------------------------
#
# This file is available in the Crystallography Open Database (COD),
# http://www.crystallography.net/
#
# All data on this site have been placed in the public domain by the
# contributors.
#
data_1524205
loop_
_publ_author_name
'Chevalier, B.'
'Etourneau, J.'
'Cole, A.'
'Lejay, P.'
_publ_section_title
;
 New ternary silicides in rare earth-rhodium-silicon system. Crystal
 structure and magnetic properties
;
_journal_name_full               'Materials Research Bulletin'
_journal_page_first              1067
_journal_page_last               1075
_journal_volume                  16
_journal_year                    1981
_chemical_formula_sum            'Dy Rh3 Si2'
_space_group_IT_number           191
_symmetry_space_group_name_Hall  '-P 6 2'
_symmetry_space_group_name_H-M   'P 6/m m m'
_cell_angle_alpha                90
_cell_angle_beta                 90
_cell_angle_gamma                120
_cell_formula_units_Z            1
_cell_length_a                   5.486
_cell_length_b                   5.486
_cell_length_c                   3.541
_cell_volume                     92.293
_citation_journal_id_ASTM        MRBUAC
_cod_data_source_file            Chevalier_MRBUAC_1981_1827.cif
_cod_data_source_block           Dy1Rh3Si2
_cod_original_cell_volume        92.29287
_cod_original_formula_sum        'Dy1 Rh3 Si2'
_cod_database_code               1524205
loop_
_symmetry_equiv_pos_as_xyz
x,y,z
x-y,x,z
-y,x-y,z
-x,-y,z
-x+y,-x,z
y,-x+y,z
-y,-x,-z
x-y,-y,-z
x,x-y,-z
y,x,-z
-x+y,y,-z
-x,-x+y,-z
-x,-y,-z
-x+y,-x,-z
y,-x+y,-z
x,y,-z
x-y,x,-z
-y,x-y,-z
y,x,z
-x+y,y,z
-x,-x+y,z
-y,-x,z
x-y,-y,z
x,x-y,z
loop_
_atom_site_label
_atom_site_type_symbol
_atom_site_fract_x
_atom_site_fract_y
_atom_site_fract_z
_atom_site_occupancy
_atom_site_U_iso_or_equiv
Si1 Si 0.3333 0.6667 0 1 0.0
Dy1 Dy 0 0 0 1 0.0
Rh2 Rh 0.5 0 0.5 1 0.0
