#------------------------------------------------------------------------------
#$Date: 2016-02-13 21:28:24 +0200 (Sat, 13 Feb 2016) $
#$Revision: 176429 $
#$URL: svn://www.crystallography.net/cod/cif/1/52/46/1524663.cif $
#------------------------------------------------------------------------------
#
# This file is available in the Crystallography Open Database (COD),
# http://www.crystallography.net/
#
# All data on this site have been placed in the public domain by the
# contributors.
#
data_1524663
loop_
_publ_author_name
'Keller, P.'
'Hess, H.'
'Zettler, F.'
_publ_section_title
;
 Ladungsbilanzen an den verfeinerten Kristallstrukturen von Libethenit,
 Adamin und Co2 ((O H)/As O4) und ihre Wasserstoffbrueckenbindungen
;
_journal_name_full
;
Neues Jahrbuch fuer Mineralogie. Abhandlungen (Band-Nr) (1950-)
;
_journal_page_first              147
_journal_page_last               156
_journal_volume                  134
_journal_year                    1979
_chemical_formula_sum            'Cu2 H O5 P'
_chemical_name_systematic        'Cu2 (P O4) (O H)'
_space_group_IT_number           58
_symmetry_space_group_name_Hall  '-P 2 2n'
_symmetry_space_group_name_H-M   'P n n m'
_cell_angle_alpha                90
_cell_angle_beta                 90
_cell_angle_gamma                90
_cell_formula_units_Z            4
_cell_length_a                   8.076
_cell_length_b                   8.407
_cell_length_c                   5.898
_cell_volume                     400.444
_citation_journal_id_ASTM        NJMIAK
_cod_data_source_file            Keller_NJMIAK_1979_333.cif
_cod_data_source_block           H1Cu2O5P1
_cod_original_cell_volume        400.4443
_cod_original_formula_sum        'H1 Cu2 O5 P1'
_cod_database_code               1524663
loop_
_symmetry_equiv_pos_as_xyz
x,y,z
-x,-y,z
x+1/2,-y+1/2,-z+1/2
-x+1/2,y+1/2,-z+1/2
-x,-y,-z
x,y,-z
-x-1/2,y-1/2,z-1/2
x-1/2,-y-1/2,z-1/2
loop_
_atom_site_label
_atom_site_type_symbol
_atom_site_fract_x
_atom_site_fract_y
_atom_site_fract_z
_atom_site_occupancy
_atom_site_U_iso_or_equiv
P1 P+5 0.2326 0.2483 0.5 1 0.0
O1 O-2 0.1234 0.1029 0 1 0.0
O2 O-2 0.1328 0.0883 0.5 1 0.0
O4 O-2 0.3412 0.2607 0.2886 1 0.0
Cu2 Cu+2 0.3618 0.1246 0 1 0.0
Cu1 Cu+2 0 0 0.2508 1 0.0
O3 O-2 0.1016 0.3838 0.5 1 0.0
