#------------------------------------------------------------------------------
#$Date: 2016-02-13 21:28:24 +0200 (Sat, 13 Feb 2016) $
#$Revision: 176429 $
#$URL: svn://www.crystallography.net/cod/cif/1/52/45/1524535.cif $
#------------------------------------------------------------------------------
#
# This file is available in the Crystallography Open Database (COD),
# http://www.crystallography.net/
#
# All data on this site have been placed in the public domain by the
# contributors.
#
data_1524535
loop_
_publ_author_name
'Heine, W.'
'Zwicker, U.'
_publ_section_title
;
 Phasen des B2-Strukturtyps (Cs Cl-Typ) in ternaeren Systemen mit Kupfer
 und Nickel
;
_journal_name_full               Naturwissenschaften
_journal_page_first              391
_journal_page_last               391
_journal_volume                  49
_journal_year                    1962
_chemical_formula_sum            'Cu Zn0.5 Zr0.5'
_chemical_name_systematic        'Cu (Zn0.5 Zr0.5)'
_space_group_IT_number           221
_symmetry_space_group_name_Hall  '-P 4 2 3'
_symmetry_space_group_name_H-M   'P m -3 m'
_cell_angle_alpha                90
_cell_angle_beta                 90
_cell_angle_gamma                90
_cell_formula_units_Z            1
_cell_length_a                   3.03
_cell_length_b                   3.03
_cell_length_c                   3.03
_cell_volume                     27.818
_citation_journal_id_ASTM        NATWAY
_cod_data_source_file            Heine_NATWAY_1962_1660.cif
_cod_data_source_block           Cu1Zn0.5Zr0.5
_cod_original_cell_volume        27.81813
_cod_original_formula_sum        'Cu1 Zn0.5 Zr0.5'
_cod_database_code               1524535
loop_
_symmetry_equiv_pos_as_xyz
x,y,z
-y,x,z
-x,-y,z
y,-x,z
x,-y,-z
y,x,-z
-x,y,-z
-y,-x,-z
z,x,y
-x,z,y
-z,-x,y
x,-z,y
z,-x,-y
x,z,-y
-z,x,-y
-x,-z,-y
y,z,x
y,-z,-x
z,y,-x
-y,z,-x
-z,-y,-x
-y,-z,x
z,-y,x
-z,y,x
-x,-y,-z
y,-x,-z
x,y,-z
-y,x,-z
-x,y,z
-y,-x,z
x,-y,z
y,x,z
-z,-x,-y
x,-z,-y
z,x,-y
-x,z,-y
-z,x,y
-x,-z,y
z,-x,y
x,z,y
-y,-z,-x
-y,z,x
-z,-y,x
y,-z,x
z,y,x
y,z,-x
-z,y,-x
z,-y,-x
loop_
_atom_site_label
_atom_site_type_symbol
_atom_site_fract_x
_atom_site_fract_y
_atom_site_fract_z
_atom_site_occupancy
_atom_site_U_iso_or_equiv
Zr1 Zr 0.5 0.5 0.5 0.5 0.0
Zn1 Zn 0.5 0.5 0.5 0.5 0.0
Cu1 Cu 0 0 0 1 0.0
