#------------------------------------------------------------------------------
#$Date: 2015-07-11 16:24:25 +0300 (Sat, 11 Jul 2015) $
#$Revision: 144887 $
#$URL: svn://www.crystallography.net/cod/cif/1/52/42/1524200.cif $
#------------------------------------------------------------------------------
#
# This file is available in the Crystallography Open Database (COD),
# http://www.crystallography.net/
#
# All data on this site have been placed in the public domain by the
# contributors.
#
data_1524200
loop_
_publ_author_name
'Che Guangcan'
'Liang Jingkui'
'Zu, Y.'
_publ_section_title
;
 Studies of phase relations between mischmetal (Mm) and Mn Ni5 together
 with their hydrogen absorbtion properties
;
_journal_name_full               'Jinshu Xuebao'
_journal_page_first              B206
_journal_page_last               B211
_journal_volume                  22
_journal_year                    1986
_chemical_formula_sum            'Ce0.5 La0.5 Ni5'
_chemical_name_systematic        '(Ce0.5 La0.5) Ni5'
_space_group_IT_number           191
_symmetry_space_group_name_Hall  '-P 6 2'
_symmetry_space_group_name_H-M   'P 6/m m m'
_cell_angle_alpha                90
_cell_angle_beta                 90
_cell_angle_gamma                120
_cell_formula_units_Z            1
_cell_length_a                   5
_cell_length_b                   5
_cell_length_c                   3.98
_cell_volume                     86.170
_citation_journal_id_ASTM        CHSPA4
_cod_data_source_file            CheGuangcan_CHSPA4_1986_821.cif
_cod_data_source_block           Ce0.5La0.5Ni5
_cod_original_cell_volume        86.16953
_cod_database_code               1524200
loop_
_symmetry_equiv_pos_as_xyz
x,y,z
x-y,x,z
-y,x-y,z
-x,-y,z
-x+y,-x,z
y,-x+y,z
-y,-x,-z
x-y,-y,-z
x,x-y,-z
y,x,-z
-x+y,y,-z
-x,-x+y,-z
-x,-y,-z
-x+y,-x,-z
y,-x+y,-z
x,y,-z
x-y,x,-z
-y,x-y,-z
y,x,z
-x+y,y,z
-x,-x+y,z
-y,-x,z
x-y,-y,z
x,x-y,z
loop_
_atom_site_label
_atom_site_type_symbol
_atom_site_fract_x
_atom_site_fract_y
_atom_site_fract_z
_atom_site_occupancy
_atom_site_U_iso_or_equiv
La1 La 0 0 0 0.5 0.0
Ce1 Ce 0 0 0 0.5 0.0
Ni2 Ni 0.5 0 0.5 1 0.0
Ni1 Ni 0.3333 0.6667 0 1 0.0
