#------------------------------------------------------------------------------
#$Date: 2016-02-13 21:28:24 +0200 (Sat, 13 Feb 2016) $
#$Revision: 176429 $
#$URL: svn://www.crystallography.net/cod/cif/1/52/49/1524903.cif $
#------------------------------------------------------------------------------
#
# This file is available in the Crystallography Open Database (COD),
# http://www.crystallography.net/
#
# All data on this site have been placed in the public domain by the
# contributors.
#
data_1524903
loop_
_publ_author_name
'Mayer, I.'
'Tassa, M.'
_publ_section_title
;
 Rare earth - iron (cobalt, nickel) - silicon compounds
;
_journal_name_full               'Journal of the Less-Common Metals'
_journal_page_first              173
_journal_page_last               177
_journal_volume                  19
_journal_year                    1969
_chemical_formula_sum            'Co0.4 La Si1.6'
_chemical_name_systematic        '(Co0.2 Si0.8)2 La'
_space_group_IT_number           191
_symmetry_space_group_name_Hall  '-P 6 2'
_symmetry_space_group_name_H-M   'P 6/m m m'
_cell_angle_alpha                90
_cell_angle_beta                 90
_cell_angle_gamma                120
_cell_formula_units_Z            1
_cell_length_a                   4.075
_cell_length_b                   4.075
_cell_length_c                   4.386
_cell_volume                     63.075
_citation_journal_id_ASTM        JCOMAH
_cod_data_source_file            Mayer_JCOMAH_1969_1091.cif
_cod_data_source_block           Co0.4La1Si1.6
_cod_original_cell_volume        63.07459
_cod_original_formula_sum        'Co0.4 La1 Si1.6'
_cod_database_code               1524903
loop_
_symmetry_equiv_pos_as_xyz
x,y,z
x-y,x,z
-y,x-y,z
-x,-y,z
-x+y,-x,z
y,-x+y,z
-y,-x,-z
x-y,-y,-z
x,x-y,-z
y,x,-z
-x+y,y,-z
-x,-x+y,-z
-x,-y,-z
-x+y,-x,-z
y,-x+y,-z
x,y,-z
x-y,x,-z
-y,x-y,-z
y,x,z
-x+y,y,z
-x,-x+y,z
-y,-x,z
x-y,-y,z
x,x-y,z
loop_
_atom_site_label
_atom_site_type_symbol
_atom_site_fract_x
_atom_site_fract_y
_atom_site_fract_z
_atom_site_occupancy
_atom_site_U_iso_or_equiv
Co1 Co 0.3333 0.6667 0.5 0.2 0.0
La1 La 0 0 0 1 0.0
Si1 Si 0.3333 0.6667 0.5 0.8 0.0
