#------------------------------------------------------------------------------
#$Date: 2015-07-11 18:16:17 +0300 (Sat, 11 Jul 2015) $
#$Revision: 145597 $
#$URL: svn://www.crystallography.net/cod/cif/1/52/47/1524766.cif $
#------------------------------------------------------------------------------
#
# This file is available in the Crystallography Open Database (COD),
# http://www.crystallography.net/
#
# All data on this site have been placed in the public domain by the
# contributors.
#
data_1524766
loop_
_publ_author_name
'Kumar, R.'
'Yelon, W.B.'
'Fuerst, C.D.'
_publ_section_title
;
 Neutron determination of the magnetic order and site preference in Er2
 (Cox Fe1-x)17
;
_journal_name_full               'Journal of Applied Physics'
_journal_page_first              3725
_journal_page_last               3728
_journal_volume                  63
_journal_year                    1988
_chemical_formula_sum            'Co8.07 Er2 Fe8.93'
_chemical_name_systematic        '(Co8.07 Fe8.93) Er2'
_space_group_IT_number           194
_symmetry_space_group_name_Hall  '-P 6c 2c'
_symmetry_space_group_name_H-M   'P 63/m m c'
_cell_angle_alpha                90
_cell_angle_beta                 90
_cell_angle_gamma                120
_cell_formula_units_Z            2
_cell_length_a                   8.3518
_cell_length_b                   8.3518
_cell_length_c                   8.2275
_cell_volume                     497.003
_citation_journal_id_ASTM        JAPIAU
_cod_data_source_file            Kumar_JAPIAU_1988_955.cif
_cod_data_source_block           Co8.07Er2Fe8.93
_cod_original_cell_volume        497.0026
_cod_database_code               1524766
loop_
_symmetry_equiv_pos_as_xyz
x,y,z
x-y,x,z+1/2
-y,x-y,z
-x,-y,z+1/2
-x+y,-x,z
y,-x+y,z+1/2
-y,-x,-z+1/2
x-y,-y,-z
x,x-y,-z+1/2
y,x,-z
-x+y,y,-z+1/2
-x,-x+y,-z
-x,-y,-z
-x+y,-x,-z-1/2
y,-x+y,-z
x,y,-z-1/2
x-y,x,-z
-y,x-y,-z-1/2
y,x,z-1/2
-x+y,y,z
-x,-x+y,z-1/2
-y,-x,z
x-y,-y,z-1/2
x,x-y,z
loop_
_atom_site_label
_atom_site_type_symbol
_atom_site_fract_x
_atom_site_fract_y
_atom_site_fract_z
_atom_site_occupancy
_atom_site_U_iso_or_equiv
Fe2 Fe 0.5 0 0 0.45 0.0
Co3 Co 0.3279 0.9622 0.25 0.48 0.0
Fe4 Fe 0.1665 0.333 0.9823 0.5 0.0
Co4 Co 0.1665 0.333 0.9823 0.5 0.0
Er1 Er 0 0 0.25 1 0.0
Fe3 Fe 0.3279 0.9622 0.25 0.52 0.0
Er2 Er 0.3333 0.6667 0.75 1 0.0
Co1 Co 0.3333 0.6667 0.1078 0.27 0.0
Co2 Co 0.5 0 0 0.55 0.0
Fe1 Fe 0.3333 0.6667 0.1078 0.73 0.0
