#------------------------------------------------------------------------------
#$Date: 2018-09-27 07:13:35 +0300 (Thu, 27 Sep 2018) $
#$Revision: 211196 $
#$URL: file:///home/coder/svn-repositories/cod/cif/1/52/42/1524226.cif $
#------------------------------------------------------------------------------
#
# This file is available in the Crystallography Open Database (COD),
# http://www.crystallography.net/
#
# All data on this site have been placed in the public domain by the
# contributors.
#
data_1524226
loop_
_publ_author_name
'Cirafici, S.'
'Franceschi, E.'
_publ_section_title
;
 Stacking of close-packed A B3 layers in R Ga3 compounds (R= heavy rare
 earth)
;
_journal_name_full               'Journal of the Less-Common Metals'
_journal_page_first              269
_journal_page_last               280
_journal_volume                  77
_journal_year                    1981
_chemical_formula_sum            'Dy Ga3'
_space_group_IT_number           221
_symmetry_space_group_name_Hall  '-P 4 2 3'
_symmetry_space_group_name_H-M   'P m -3 m'
_cell_angle_alpha                90
_cell_angle_beta                 90
_cell_angle_gamma                90
_cell_formula_units_Z            1
_cell_length_a                   4.271
_cell_length_b                   4.271
_cell_length_c                   4.271
_cell_volume                     77.909
_citation_journal_id_ASTM        JCOMAH
_cod_data_source_file            Cirafici_JCOMAH_1981_1680.cif
_cod_data_source_block           Dy1Ga3
_cod_original_cell_volume        77.90919
_cod_original_formula_sum        'Dy1 Ga3'
_cod_database_code               1524226
loop_
_symmetry_equiv_pos_as_xyz
x,y,z
-y,x,z
-x,-y,z
y,-x,z
x,-y,-z
y,x,-z
-x,y,-z
-y,-x,-z
z,x,y
-x,z,y
-z,-x,y
x,-z,y
z,-x,-y
x,z,-y
-z,x,-y
-x,-z,-y
y,z,x
y,-z,-x
z,y,-x
-y,z,-x
-z,-y,-x
-y,-z,x
z,-y,x
-z,y,x
-x,-y,-z
y,-x,-z
x,y,-z
-y,x,-z
-x,y,z
-y,-x,z
x,-y,z
y,x,z
-z,-x,-y
x,-z,-y
z,x,-y
-x,z,-y
-z,x,y
-x,-z,y
z,-x,y
x,z,y
-y,-z,-x
-y,z,x
-z,-y,x
y,-z,x
z,y,x
y,z,-x
-z,y,-x
z,-y,-x
loop_
_atom_site_label
_atom_site_type_symbol
_atom_site_fract_x
_atom_site_fract_y
_atom_site_fract_z
_atom_site_occupancy
_atom_site_U_iso_or_equiv
Ga1 Ga 0 0.5 0.5 1 0.0
Dy1 Dy 0 0 0 1 0.0
