#------------------------------------------------------------------------------
#$Date: 2018-09-27 07:13:35 +0300 (Thu, 27 Sep 2018) $
#$Revision: 211196 $
#$URL: file:///home/coder/svn-repositories/cod/cif/1/52/43/1524375.cif $
#------------------------------------------------------------------------------
#
# This file is available in the Crystallography Open Database (COD),
# http://www.crystallography.net/
#
# All data on this site have been placed in the public domain by the
# contributors.
#
data_1524375
loop_
_publ_author_name
'Fornasini, M.L.'
'Merlo, F.'
_publ_section_title
;
 The crystal structure of Ca2 Cu2 Ga, Ca Cu Ga, Sr Cu2 Ga and Ba Cu2 Ga
;
_journal_name_full               'Journal of the Less-Common Metals'
_journal_page_first              289
_journal_page_last               294
_journal_volume                  142
_journal_year                    1988
_chemical_formula_sum            'Cu2 Ga Sr'
_space_group_IT_number           166
_symmetry_space_group_name_Hall  '-R 3 2"'
_symmetry_space_group_name_H-M   'R -3 m :H'
_cell_angle_alpha                90
_cell_angle_beta                 90
_cell_angle_gamma                120
_cell_formula_units_Z            3
_cell_length_a                   4.271
_cell_length_b                   4.271
_cell_length_c                   15.925
_cell_volume                     251.576
_citation_journal_id_ASTM        JCOMAH
_cod_data_source_file            Fornasini_JCOMAH_1988_1458.cif
_cod_data_source_block           Cu2Ga1Sr1
_cod_original_formula_sum        'Cu2 Ga1 Sr1'
_cod_database_code               1524375
loop_
_symmetry_equiv_pos_as_xyz
x,y,z
-y,x-y,z
-x+y,-x,z
y,x,-z
-x,-x+y,-z
x-y,-y,-z
-x,-y,-z
y,-x+y,-z
x-y,x,-z
-y,-x,z
x,x-y,z
-x+y,y,z
x+2/3,y+1/3,z+1/3
-y+2/3,x-y+1/3,z+1/3
-x+y+2/3,-x+1/3,z+1/3
y+2/3,x+1/3,-z+1/3
-x+2/3,-x+y+1/3,-z+1/3
x-y+2/3,-y+1/3,-z+1/3
-x+2/3,-y+1/3,-z+1/3
y+2/3,-x+y+1/3,-z+1/3
x-y+2/3,x+1/3,-z+1/3
-y+2/3,-x+1/3,z+1/3
x+2/3,x-y+1/3,z+1/3
-x+y+2/3,y+1/3,z+1/3
x+1/3,y+2/3,z+2/3
-y+1/3,x-y+2/3,z+2/3
-x+y+1/3,-x+2/3,z+2/3
y+1/3,x+2/3,-z+2/3
-x+1/3,-x+y+2/3,-z+2/3
x-y+1/3,-y+2/3,-z+2/3
-x+1/3,-y+2/3,-z+2/3
y+1/3,-x+y+2/3,-z+2/3
x-y+1/3,x+2/3,-z+2/3
-y+1/3,-x+2/3,z+2/3
x+1/3,x-y+2/3,z+2/3
-x+y+1/3,y+2/3,z+2/3
loop_
_atom_site_label
_atom_site_type_symbol
_atom_site_fract_x
_atom_site_fract_y
_atom_site_fract_z
_atom_site_occupancy
_atom_site_U_iso_or_equiv
Ga1 Ga 0 0 0.5 1 0.0
Sr1 Sr 0 0 0 1 0.0
Cu1 Cu 0 0 0.1888 1 0.0
