#------------------------------------------------------------------------------
#$Date: 2016-02-13 21:28:24 +0200 (Sat, 13 Feb 2016) $
#$Revision: 176429 $
#$URL: svn://www.crystallography.net/cod/cif/1/52/40/1524031.cif $
#------------------------------------------------------------------------------
#
# This file is available in the Crystallography Open Database (COD),
# http://www.crystallography.net/
#
# All data on this site have been placed in the public domain by the
# contributors.
#
data_1524031
loop_
_publ_author_name
'Basha, A.F.'
'Chechernikov, V.I.'
'Tavansi, A.'
'Sinanyan, L.G.'
_publ_section_title
;
 Magnetic properties of certain erbium alloys with Cs Cl structure
;
_journal_name_full
'Zhurnal Eksperimental'noi i Teoreticheskoi Fiziki'
_journal_page_first              1540
_journal_page_last               1542
_journal_volume                  72
_journal_year                    1977
_chemical_formula_sum            'Cu0.5 Tb Zn0.5'
_chemical_name_systematic        '(Cu0.5 Zn0.5) Tb'
_space_group_IT_number           221
_symmetry_space_group_name_Hall  '-P 4 2 3'
_symmetry_space_group_name_H-M   'P m -3 m'
_cell_angle_alpha                90
_cell_angle_beta                 90
_cell_angle_gamma                90
_cell_formula_units_Z            1
_cell_length_a                   3.524
_cell_length_b                   3.524
_cell_length_c                   3.524
_cell_volume                     43.763
_citation_journal_id_ASTM        ZETFA7
_cod_data_source_file            Basha_ZETFA7_1977_1627.cif
_cod_data_source_block           Cu0.5Tb1Zn0.5
_cod_original_cell_volume        43.76306
_cod_original_formula_sum        'Cu0.5 Tb1 Zn0.5'
_cod_database_code               1524031
loop_
_symmetry_equiv_pos_as_xyz
x,y,z
-y,x,z
-x,-y,z
y,-x,z
x,-y,-z
y,x,-z
-x,y,-z
-y,-x,-z
z,x,y
-x,z,y
-z,-x,y
x,-z,y
z,-x,-y
x,z,-y
-z,x,-y
-x,-z,-y
y,z,x
y,-z,-x
z,y,-x
-y,z,-x
-z,-y,-x
-y,-z,x
z,-y,x
-z,y,x
-x,-y,-z
y,-x,-z
x,y,-z
-y,x,-z
-x,y,z
-y,-x,z
x,-y,z
y,x,z
-z,-x,-y
x,-z,-y
z,x,-y
-x,z,-y
-z,x,y
-x,-z,y
z,-x,y
x,z,y
-y,-z,-x
-y,z,x
-z,-y,x
y,-z,x
z,y,x
y,z,-x
-z,y,-x
z,-y,-x
loop_
_atom_site_label
_atom_site_type_symbol
_atom_site_fract_x
_atom_site_fract_y
_atom_site_fract_z
_atom_site_occupancy
_atom_site_U_iso_or_equiv
Tb1 Tb 0.5 0.5 0.5 1 0.0
Zn1 Zn 0 0 0 0.5 0.0
Cu1 Cu 0 0 0 0.5 0.0
