#------------------------------------------------------------------------------
#$Date: 2016-02-13 21:28:24 +0200 (Sat, 13 Feb 2016) $
#$Revision: 176429 $
#$URL: svn://www.crystallography.net/cod/cif/1/52/45/1524560.cif $
#------------------------------------------------------------------------------
#
# This file is available in the Crystallography Open Database (COD),
# http://www.crystallography.net/
#
# All data on this site have been placed in the public domain by the
# contributors.
#
data_1524560
loop_
_publ_author_name
'Hossain, D.'
'Barraclough, K.G.'
'Harris, I.R.'
_publ_section_title
;
 A study of Zr Co and related ternary phases represented by the general
 formula Zr50 Co50-x Nix
;
_journal_name_full               'Journal of the Less-Common Metals'
_journal_page_first              35
_journal_page_last               57
_journal_volume                  37
_journal_year                    1974
_chemical_formula_sum            'Co0.8 Ni0.2 Zr'
_chemical_name_systematic        '(Co0.8 Ni0.2) Zr'
_space_group_IT_number           221
_symmetry_space_group_name_Hall  '-P 4 2 3'
_symmetry_space_group_name_H-M   'P m -3 m'
_cell_angle_alpha                90
_cell_angle_beta                 90
_cell_angle_gamma                90
_cell_formula_units_Z            1
_cell_length_a                   3.198
_cell_length_b                   3.198
_cell_length_c                   3.198
_cell_volume                     32.707
_citation_journal_id_ASTM        JCOMAH
_cod_data_source_file            Hossain_JCOMAH_1974_1174.cif
_cod_data_source_block           Co0.8Ni0.2Zr1
_cod_original_cell_volume        32.7066
_cod_original_formula_sum        'Co0.8 Ni0.2 Zr1'
_cod_database_code               1524560
loop_
_symmetry_equiv_pos_as_xyz
x,y,z
-y,x,z
-x,-y,z
y,-x,z
x,-y,-z
y,x,-z
-x,y,-z
-y,-x,-z
z,x,y
-x,z,y
-z,-x,y
x,-z,y
z,-x,-y
x,z,-y
-z,x,-y
-x,-z,-y
y,z,x
y,-z,-x
z,y,-x
-y,z,-x
-z,-y,-x
-y,-z,x
z,-y,x
-z,y,x
-x,-y,-z
y,-x,-z
x,y,-z
-y,x,-z
-x,y,z
-y,-x,z
x,-y,z
y,x,z
-z,-x,-y
x,-z,-y
z,x,-y
-x,z,-y
-z,x,y
-x,-z,y
z,-x,y
x,z,y
-y,-z,-x
-y,z,x
-z,-y,x
y,-z,x
z,y,x
y,z,-x
-z,y,-x
z,-y,-x
loop_
_atom_site_label
_atom_site_type_symbol
_atom_site_fract_x
_atom_site_fract_y
_atom_site_fract_z
_atom_site_occupancy
_atom_site_U_iso_or_equiv
Zr1 Zr 0.5 0.5 0.5 1 0.0
Co1 Co 0 0 0 0.8 0.0
Ni1 Ni 0 0 0 0.2 0.0
