#------------------------------------------------------------------------------
#$Date: 2015-07-11 15:54:36 +0300 (Sat, 11 Jul 2015) $
#$Revision: 144733 $
#$URL: svn://www.crystallography.net/cod/cif/1/52/40/1524072.cif $
#------------------------------------------------------------------------------
#
# This file is available in the Crystallography Open Database (COD),
# http://www.crystallography.net/
#
# All data on this site have been placed in the public domain by the
# contributors.
#
data_1524072
loop_
_publ_author_name
'Bhan, S.'
'Goedecke, T.'
'Schubert, K.'
_publ_section_title
;
 Konstitution einiger Mischungen des Platins mit B-Elementen (B = Sn, Sb,
 Te)
;
_journal_name_full               'Journal of the Less-Common Metals'
_journal_page_first              121
_journal_page_last               121
_journal_volume                  19
_journal_year                    1969
_chemical_formula_sum            'Pt2 Sb2.6 Sn2.6'
_chemical_name_systematic        'Pt2 Sb2.6 Sn1.4'
_space_group_IT_number           58
_symmetry_space_group_name_Hall  '-P 2 2n'
_symmetry_space_group_name_H-M   'P n n m'
_cell_angle_alpha                90
_cell_angle_beta                 90
_cell_angle_gamma                90
_cell_formula_units_Z            1
_cell_length_a                   6.62
_cell_length_b                   5.36
_cell_length_c                   3.91
_cell_volume                     138.739
_citation_journal_id_ASTM        JCOMAH
_cod_data_source_file            Bhan_JCOMAH_1969_117.cif
_cod_data_source_block           Pt2Sb2.6Sn2.6
_cod_original_cell_volume        138.7393
_cod_database_code               1524072
loop_
_symmetry_equiv_pos_as_xyz
x,y,z
-x,-y,z
x+1/2,-y+1/2,-z+1/2
-x+1/2,y+1/2,-z+1/2
-x,-y,-z
x,y,-z
-x-1/2,y-1/2,z-1/2
x-1/2,-y-1/2,z-1/2
loop_
_atom_site_label
_atom_site_type_symbol
_atom_site_fract_x
_atom_site_fract_y
_atom_site_fract_z
_atom_site_occupancy
_atom_site_U_iso_or_equiv
Pt1 Pt 0 0 0 1 0.0
Sb1 Sb 0.2 0.378 0 0.65 0.0
Sn1 Sn 0.2 0.378 0 0.65 0.0
