#------------------------------------------------------------------------------
#$Date: 2016-02-13 21:28:24 +0200 (Sat, 13 Feb 2016) $
#$Revision: 176429 $
#$URL: svn://www.crystallography.net/cod/cif/1/52/42/1524218.cif $
#------------------------------------------------------------------------------
#
# This file is available in the Crystallography Open Database (COD),
# http://www.crystallography.net/
#
# All data on this site have been placed in the public domain by the
# contributors.
#
data_1524218
loop_
_publ_author_name
'Chuang, Y.C.'
'Wu, C.-H.'
'Chang, Y.C.'
_publ_section_title
;
 Study of the 1005 C isothermal section of the ternary system Y-Co-Fe
;
_journal_name_full               'Journal of the Less-Common Metals'
_journal_page_first              7
_journal_page_last               20
_journal_volume                  118
_journal_year                    1986
_chemical_formula_sum            'Co4.4 Fe0.6 Y'
_chemical_name_systematic        '(Co0.88 Fe0.12)5 Y'
_space_group_IT_number           191
_symmetry_space_group_name_Hall  '-P 6 2'
_symmetry_space_group_name_H-M   'P 6/m m m'
_cell_angle_alpha                90
_cell_angle_beta                 90
_cell_angle_gamma                120
_cell_formula_units_Z            1
_cell_length_a                   4.935
_cell_length_b                   4.935
_cell_length_c                   4.032
_cell_volume                     85.040
_citation_journal_id_ASTM        JCOMAH
_cod_data_source_file            Chuang_JCOMAH_1986_1002.cif
_cod_data_source_block           Co4.4Fe0.6Y1
_cod_original_cell_volume        85.04044
_cod_original_formula_sum        'Co4.4 Fe0.6 Y1'
_cod_database_code               1524218
loop_
_symmetry_equiv_pos_as_xyz
x,y,z
x-y,x,z
-y,x-y,z
-x,-y,z
-x+y,-x,z
y,-x+y,z
-y,-x,-z
x-y,-y,-z
x,x-y,-z
y,x,-z
-x+y,y,-z
-x,-x+y,-z
-x,-y,-z
-x+y,-x,-z
y,-x+y,-z
x,y,-z
x-y,x,-z
-y,x-y,-z
y,x,z
-x+y,y,z
-x,-x+y,z
-y,-x,z
x-y,-y,z
x,x-y,z
loop_
_atom_site_label
_atom_site_type_symbol
_atom_site_fract_x
_atom_site_fract_y
_atom_site_fract_z
_atom_site_occupancy
_atom_site_U_iso_or_equiv
Fe2 Fe 0.5 0 0.5 0.12 0.0
Y1 Y 0 0 0 1 0.0
Co1 Co 0.3333 0.6667 0 0.88 0.0
Fe1 Fe 0.3333 0.6667 0 0.12 0.0
Co2 Co 0.5 0 0.5 0.88 0.0
