#------------------------------------------------------------------------------
#$Date: 2015-07-11 16:41:10 +0300 (Sat, 11 Jul 2015) $
#$Revision: 144996 $
#$URL: svn://www.crystallography.net/cod/cif/1/52/42/1524274.cif $
#------------------------------------------------------------------------------
#
# This file is available in the Crystallography Open Database (COD),
# http://www.crystallography.net/
#
# All data on this site have been placed in the public domain by the
# contributors.
#
data_1524274
loop_
_publ_author_name
'Dubrovin, I.V.'
'Budennaya, L.D.'
'Mizetskaya, I.B.'
'Sharkina, E.V.'
_publ_section_title
;
 Reaction over the Sn Te - Cd S cross section in the Sn Te + Cd S + Cd Te
 ternary reciprocal system
;
_journal_name_full
'Izvestiya Akademii Nauk SSSR, Neorganicheskie Materialy'
_journal_page_first              1873
_journal_page_last               1878
_journal_volume                  21
_journal_year                    1985
_chemical_formula_sum            'Cd0.05 S0.05 Sn0.95 Te0.95'
_chemical_name_systematic        '(Cd0.05 Sn0.95) (S0.05 Te0.95)'
_space_group_IT_number           225
_symmetry_space_group_name_Hall  '-F 4 2 3'
_symmetry_space_group_name_H-M   'F m -3 m'
_cell_angle_alpha                90
_cell_angle_beta                 90
_cell_angle_gamma                90
_cell_formula_units_Z            4
_cell_length_a                   6.272
_cell_length_b                   6.272
_cell_length_c                   6.272
_cell_volume                     246.728
_citation_journal_id_ASTM        IVNMAW
_cod_data_source_file            Dubrovin_IVNMAW_1985_692.cif
_cod_data_source_block           Cd0.05S0.05Sn0.95Te0.95
_cod_original_cell_volume        246.7278
_cod_database_code               1524274
loop_
_symmetry_equiv_pos_as_xyz
x,y,z
-y,x,z
-x,-y,z
y,-x,z
x,-y,-z
y,x,-z
-x,y,-z
-y,-x,-z
z,x,y
-x,z,y
-z,-x,y
x,-z,y
z,-x,-y
x,z,-y
-z,x,-y
-x,-z,-y
y,z,x
y,-z,-x
z,y,-x
-y,z,-x
-z,-y,-x
-y,-z,x
z,-y,x
-z,y,x
-x,-y,-z
y,-x,-z
x,y,-z
-y,x,-z
-x,y,z
-y,-x,z
x,-y,z
y,x,z
-z,-x,-y
x,-z,-y
z,x,-y
-x,z,-y
-z,x,y
-x,-z,y
z,-x,y
x,z,y
-y,-z,-x
-y,z,x
-z,-y,x
y,-z,x
z,y,x
y,z,-x
-z,y,-x
z,-y,-x
x,y+1/2,z+1/2
-y,x+1/2,z+1/2
-x,-y+1/2,z+1/2
y,-x+1/2,z+1/2
x,-y+1/2,-z+1/2
y,x+1/2,-z+1/2
-x,y+1/2,-z+1/2
-y,-x+1/2,-z+1/2
z,x+1/2,y+1/2
-x,z+1/2,y+1/2
-z,-x+1/2,y+1/2
x,-z+1/2,y+1/2
z,-x+1/2,-y+1/2
x,z+1/2,-y+1/2
-z,x+1/2,-y+1/2
-x,-z+1/2,-y+1/2
y,z+1/2,x+1/2
y,-z+1/2,-x+1/2
z,y+1/2,-x+1/2
-y,z+1/2,-x+1/2
-z,-y+1/2,-x+1/2
-y,-z+1/2,x+1/2
z,-y+1/2,x+1/2
-z,y+1/2,x+1/2
-x,-y+1/2,-z+1/2
y,-x+1/2,-z+1/2
x,y+1/2,-z+1/2
-y,x+1/2,-z+1/2
-x,y+1/2,z+1/2
-y,-x+1/2,z+1/2
x,-y+1/2,z+1/2
y,x+1/2,z+1/2
-z,-x+1/2,-y+1/2
x,-z+1/2,-y+1/2
z,x+1/2,-y+1/2
-x,z+1/2,-y+1/2
-z,x+1/2,y+1/2
-x,-z+1/2,y+1/2
z,-x+1/2,y+1/2
x,z+1/2,y+1/2
-y,-z+1/2,-x+1/2
-y,z+1/2,x+1/2
-z,-y+1/2,x+1/2
y,-z+1/2,x+1/2
z,y+1/2,x+1/2
y,z+1/2,-x+1/2
-z,y+1/2,-x+1/2
z,-y+1/2,-x+1/2
x+1/2,y,z+1/2
-y+1/2,x,z+1/2
-x+1/2,-y,z+1/2
y+1/2,-x,z+1/2
x+1/2,-y,-z+1/2
y+1/2,x,-z+1/2
-x+1/2,y,-z+1/2
-y+1/2,-x,-z+1/2
z+1/2,x,y+1/2
-x+1/2,z,y+1/2
-z+1/2,-x,y+1/2
x+1/2,-z,y+1/2
z+1/2,-x,-y+1/2
x+1/2,z,-y+1/2
-z+1/2,x,-y+1/2
-x+1/2,-z,-y+1/2
y+1/2,z,x+1/2
y+1/2,-z,-x+1/2
z+1/2,y,-x+1/2
-y+1/2,z,-x+1/2
-z+1/2,-y,-x+1/2
-y+1/2,-z,x+1/2
z+1/2,-y,x+1/2
-z+1/2,y,x+1/2
-x+1/2,-y,-z+1/2
y+1/2,-x,-z+1/2
x+1/2,y,-z+1/2
-y+1/2,x,-z+1/2
-x+1/2,y,z+1/2
-y+1/2,-x,z+1/2
x+1/2,-y,z+1/2
y+1/2,x,z+1/2
-z+1/2,-x,-y+1/2
x+1/2,-z,-y+1/2
z+1/2,x,-y+1/2
-x+1/2,z,-y+1/2
-z+1/2,x,y+1/2
-x+1/2,-z,y+1/2
z+1/2,-x,y+1/2
x+1/2,z,y+1/2
-y+1/2,-z,-x+1/2
-y+1/2,z,x+1/2
-z+1/2,-y,x+1/2
y+1/2,-z,x+1/2
z+1/2,y,x+1/2
y+1/2,z,-x+1/2
-z+1/2,y,-x+1/2
z+1/2,-y,-x+1/2
x+1/2,y+1/2,z
-y+1/2,x+1/2,z
-x+1/2,-y+1/2,z
y+1/2,-x+1/2,z
x+1/2,-y+1/2,-z
y+1/2,x+1/2,-z
-x+1/2,y+1/2,-z
-y+1/2,-x+1/2,-z
z+1/2,x+1/2,y
-x+1/2,z+1/2,y
-z+1/2,-x+1/2,y
x+1/2,-z+1/2,y
z+1/2,-x+1/2,-y
x+1/2,z+1/2,-y
-z+1/2,x+1/2,-y
-x+1/2,-z+1/2,-y
y+1/2,z+1/2,x
y+1/2,-z+1/2,-x
z+1/2,y+1/2,-x
-y+1/2,z+1/2,-x
-z+1/2,-y+1/2,-x
-y+1/2,-z+1/2,x
z+1/2,-y+1/2,x
-z+1/2,y+1/2,x
-x+1/2,-y+1/2,-z
y+1/2,-x+1/2,-z
x+1/2,y+1/2,-z
-y+1/2,x+1/2,-z
-x+1/2,y+1/2,z
-y+1/2,-x+1/2,z
x+1/2,-y+1/2,z
y+1/2,x+1/2,z
-z+1/2,-x+1/2,-y
x+1/2,-z+1/2,-y
z+1/2,x+1/2,-y
-x+1/2,z+1/2,-y
-z+1/2,x+1/2,y
-x+1/2,-z+1/2,y
z+1/2,-x+1/2,y
x+1/2,z+1/2,y
-y+1/2,-z+1/2,-x
-y+1/2,z+1/2,x
-z+1/2,-y+1/2,x
y+1/2,-z+1/2,x
z+1/2,y+1/2,x
y+1/2,z+1/2,-x
-z+1/2,y+1/2,-x
z+1/2,-y+1/2,-x
loop_
_atom_site_label
_atom_site_type_symbol
_atom_site_fract_x
_atom_site_fract_y
_atom_site_fract_z
_atom_site_occupancy
_atom_site_U_iso_or_equiv
S1 S-2 0.5 0.5 0.5 0.05 0.0
Te1 Te-2 0.5 0.5 0.5 0.95 0.0
Cd1 Cd+2 0 0 0 0.05 0.0
Sn1 Sn+2 0 0 0 0.95 0.0
