#------------------------------------------------------------------------------
#$Date: 2016-02-13 21:28:24 +0200 (Sat, 13 Feb 2016) $
#$Revision: 176429 $
#$URL: svn://www.crystallography.net/cod/cif/1/52/41/1524184.cif $
#------------------------------------------------------------------------------
#
# This file is available in the Crystallography Open Database (COD),
# http://www.crystallography.net/
#
# All data on this site have been placed in the public domain by the
# contributors.
#
data_1524184
loop_
_publ_author_name
'Carvalho, E.M.'
'Harris, I.R.'
_publ_section_title
;
 X-ray diffraction studies of structural changes in the system Zr50 Co50-x
 Nix (x=0-50): III
;
_journal_name_full               'Journal of the Less-Common Metals'
_journal_page_first              143
_journal_page_last               152
_journal_volume                  106
_journal_year                    1985
_chemical_formula_sum            'Co0.72 Ni0.28 Zr'
_chemical_name_systematic        '(Co0.72 Ni0.28) Zr'
_space_group_IT_number           221
_symmetry_space_group_name_Hall  '-P 4 2 3'
_symmetry_space_group_name_H-M   'P m -3 m'
_cell_angle_alpha                90
_cell_angle_beta                 90
_cell_angle_gamma                90
_cell_formula_units_Z            1
_cell_length_a                   3.1994
_cell_length_b                   3.1994
_cell_length_c                   3.1994
_cell_volume                     32.750
_citation_journal_id_ASTM        JCOMAH
_cod_data_source_file            Carvalho_JCOMAH_1985_1176.cif
_cod_data_source_block           Co0.72Ni0.28Zr1
_cod_original_cell_volume        32.74957
_cod_original_formula_sum        'Co0.72 Ni0.28 Zr1'
_cod_database_code               1524184
loop_
_symmetry_equiv_pos_as_xyz
x,y,z
-y,x,z
-x,-y,z
y,-x,z
x,-y,-z
y,x,-z
-x,y,-z
-y,-x,-z
z,x,y
-x,z,y
-z,-x,y
x,-z,y
z,-x,-y
x,z,-y
-z,x,-y
-x,-z,-y
y,z,x
y,-z,-x
z,y,-x
-y,z,-x
-z,-y,-x
-y,-z,x
z,-y,x
-z,y,x
-x,-y,-z
y,-x,-z
x,y,-z
-y,x,-z
-x,y,z
-y,-x,z
x,-y,z
y,x,z
-z,-x,-y
x,-z,-y
z,x,-y
-x,z,-y
-z,x,y
-x,-z,y
z,-x,y
x,z,y
-y,-z,-x
-y,z,x
-z,-y,x
y,-z,x
z,y,x
y,z,-x
-z,y,-x
z,-y,-x
loop_
_atom_site_label
_atom_site_type_symbol
_atom_site_fract_x
_atom_site_fract_y
_atom_site_fract_z
_atom_site_occupancy
_atom_site_U_iso_or_equiv
Co1 Co 0 0 0 0.72 0.0
Zr1 Zr 0.5 0.5 0.5 1 0.0
Ni1 Ni 0 0 0 0.28 0.0
