#------------------------------------------------------------------------------
#$Date: 2016-02-13 21:28:24 +0200 (Sat, 13 Feb 2016) $
#$Revision: 176429 $
#$URL: svn://www.crystallography.net/cod/cif/1/52/41/1524173.cif $
#------------------------------------------------------------------------------
#
# This file is available in the Crystallography Open Database (COD),
# http://www.crystallography.net/
#
# All data on this site have been placed in the public domain by the
# contributors.
#
data_1524173
loop_
_publ_author_name
'Buschow, K.H.J.'
'Brouha, M.'
'Elemans, J.B.A.A.'
_publ_section_title
;
 Magnetic order and magnetic history effects in Th Co5x Ni5-5x
;
_journal_name_full
'Physica Status Solidi, Sectio A: Applied Research'
_journal_page_first              177
_journal_page_last               186
_journal_volume                  30
_journal_year                    1975
_chemical_formula_sum            'Co3.5 Ni1.5 Th'
_chemical_name_systematic        '(Co3.5 Ni1.5) Th'
_space_group_IT_number           191
_symmetry_space_group_name_Hall  '-P 6 2'
_symmetry_space_group_name_H-M   'P 6/m m m'
_cell_angle_alpha                90
_cell_angle_beta                 90
_cell_angle_gamma                120
_cell_formula_units_Z            1
_cell_length_a                   4.9844
_cell_length_b                   4.9844
_cell_length_c                   4.0037
_cell_volume                     86.143
_citation_journal_id_ASTM        PSSABA
_cod_data_source_file            Buschow_PSSABA_1975_1163.cif
_cod_data_source_block           Co3.5Ni1.5Th1
_cod_original_cell_volume        86.14258
_cod_original_formula_sum        'Co3.5 Ni1.5 Th1'
_cod_database_code               1524173
loop_
_symmetry_equiv_pos_as_xyz
x,y,z
x-y,x,z
-y,x-y,z
-x,-y,z
-x+y,-x,z
y,-x+y,z
-y,-x,-z
x-y,-y,-z
x,x-y,-z
y,x,-z
-x+y,y,-z
-x,-x+y,-z
-x,-y,-z
-x+y,-x,-z
y,-x+y,-z
x,y,-z
x-y,x,-z
-y,x-y,-z
y,x,z
-x+y,y,z
-x,-x+y,z
-y,-x,z
x-y,-y,z
x,x-y,z
loop_
_atom_site_label
_atom_site_type_symbol
_atom_site_fract_x
_atom_site_fract_y
_atom_site_fract_z
_atom_site_occupancy
_atom_site_U_iso_or_equiv
Ni1 Ni 0.3333 0.6667 0 0.42 0.0
Co2 Co 0.5 0 0.5 0.78 0.0
Ni2 Ni 0.5 0 0.5 0.22 0.0
Co1 Co 0.3333 0.6667 0 0.58 0.0
Th1 Th 0 0 0 1 0.0
