#------------------------------------------------------------------------------
#$Date: 2016-02-13 21:28:24 +0200 (Sat, 13 Feb 2016) $
#$Revision: 176429 $
#$URL: svn://www.crystallography.net/cod/cif/1/52/42/1524271.cif $
#------------------------------------------------------------------------------
#
# This file is available in the Crystallography Open Database (COD),
# http://www.crystallography.net/
#
# All data on this site have been placed in the public domain by the
# contributors.
#
data_1524271
loop_
_publ_author_name
'Drzazga, Z.'
'Mydlarz, T.'
'Chelkowski, A.'
'Kubiak, S.'
'Krok, J.'
'Broda, H.'
_publ_section_title
;
 Crystal structure and magnetic properties of intermetallic compounds Ho
 Co5.5-x Mx, M= Mn, Fe, Ni, Cu
;
_journal_name_full               'Journal of Magnetism and Magnetic Materials'
_journal_page_first              1241
_journal_page_last               1242
_journal_volume                  15
_journal_year                    1980
_chemical_formula_sum            'Co4 Cu Ho'
_chemical_name_systematic        '(Co4 Cu) Ho'
_space_group_IT_number           191
_symmetry_space_group_name_Hall  '-P 6 2'
_symmetry_space_group_name_H-M   'P 6/m m m'
_cell_angle_alpha                90
_cell_angle_beta                 90
_cell_angle_gamma                120
_cell_formula_units_Z            1
_cell_length_a                   4.925
_cell_length_b                   4.925
_cell_length_c                   3.994
_cell_volume                     83.898
_citation_journal_id_ASTM        JMMMDC
_cod_data_source_file            Drzazga_JMMMDC_1980_924.cif
_cod_data_source_block           Co4Cu1Ho1
_cod_original_cell_volume        83.89792
_cod_original_formula_sum        'Co4 Cu1 Ho1'
_cod_database_code               1524271
loop_
_symmetry_equiv_pos_as_xyz
x,y,z
x-y,x,z
-y,x-y,z
-x,-y,z
-x+y,-x,z
y,-x+y,z
-y,-x,-z
x-y,-y,-z
x,x-y,-z
y,x,-z
-x+y,y,-z
-x,-x+y,-z
-x,-y,-z
-x+y,-x,-z
y,-x+y,-z
x,y,-z
x-y,x,-z
-y,x-y,-z
y,x,z
-x+y,y,z
-x,-x+y,z
-y,-x,z
x-y,-y,z
x,x-y,z
loop_
_atom_site_label
_atom_site_type_symbol
_atom_site_fract_x
_atom_site_fract_y
_atom_site_fract_z
_atom_site_occupancy
_atom_site_U_iso_or_equiv
Cu1 Cu 0.3333 0.6667 0 0.2 0.0
Ho1 Ho 0 0 0 1 0.0
Co2 Co 0.5 0 0.5 0.8 0.0
Co1 Co 0.3333 0.6667 0 0.8 0.0
Cu2 Cu 0.5 0 0.5 0.2 0.0
