#------------------------------------------------------------------------------
#$Date: 2016-02-13 21:28:24 +0200 (Sat, 13 Feb 2016) $
#$Revision: 176429 $
#$URL: svn://www.crystallography.net/cod/cif/1/52/49/1524908.cif $
#------------------------------------------------------------------------------
#
# This file is available in the Crystallography Open Database (COD),
# http://www.crystallography.net/
#
# All data on this site have been placed in the public domain by the
# contributors.
#
data_1524908
loop_
_publ_author_name
'Mazzone, D.'
'Ferro, R.'
'Rossi, D.'
'Marazza, R.'
_publ_section_title
;
 A contribution to the crystal chemistry of ternary 1:1:1 alloys: R Ag Sn
 and R Cu Tl
;
_journal_name_full               'Journal of the Less-Common Metals'
_journal_page_first              47
_journal_page_last               52
_journal_volume                  80
_journal_year                    1981
_chemical_formula_sum            'Cu Gd Tl'
_chemical_name_systematic        '(Cu Tl) Gd'
_space_group_IT_number           194
_symmetry_space_group_name_Hall  '-P 6c 2c'
_symmetry_space_group_name_H-M   'P 63/m m c'
_cell_angle_alpha                90
_cell_angle_beta                 90
_cell_angle_gamma                120
_cell_formula_units_Z            2
_cell_length_a                   4.608
_cell_length_b                   4.608
_cell_length_c                   7.234
_cell_volume                     133.025
_citation_journal_id_ASTM        JCOMAH
_cod_data_source_file            Mazzone_JCOMAH_1981_1477.cif
_cod_data_source_block           Cu1Gd1Tl1
_cod_original_cell_volume        133.0252
_cod_original_formula_sum        'Cu1 Gd1 Tl1'
_cod_database_code               1524908
loop_
_symmetry_equiv_pos_as_xyz
x,y,z
x-y,x,z+1/2
-y,x-y,z
-x,-y,z+1/2
-x+y,-x,z
y,-x+y,z+1/2
-y,-x,-z+1/2
x-y,-y,-z
x,x-y,-z+1/2
y,x,-z
-x+y,y,-z+1/2
-x,-x+y,-z
-x,-y,-z
-x+y,-x,-z-1/2
y,-x+y,-z
x,y,-z-1/2
x-y,x,-z
-y,x-y,-z-1/2
y,x,z-1/2
-x+y,y,z
-x,-x+y,z-1/2
-y,-x,z
x-y,-y,z-1/2
x,x-y,z
loop_
_atom_site_label
_atom_site_type_symbol
_atom_site_fract_x
_atom_site_fract_y
_atom_site_fract_z
_atom_site_occupancy
_atom_site_U_iso_or_equiv
Cu1 Cu 0.3333 0.6667 0.027 0.5 0.0
Tl1 Tl 0.3333 0.6667 0.027 0.5 0.0
Gd1 Gd 0 0 0.25 1 0.0
