#------------------------------------------------------------------------------
#$Date: 2016-02-13 21:28:24 +0200 (Sat, 13 Feb 2016) $
#$Revision: 176429 $
#$URL: svn://www.crystallography.net/cod/cif/1/52/51/1525193.cif $
#------------------------------------------------------------------------------
#
# This file is available in the Crystallography Open Database (COD),
# http://www.crystallography.net/
#
# All data on this site have been placed in the public domain by the
# contributors.
#
data_1525193
loop_
_publ_author_name
'Sakurai, J.'
'Hagiwara, T.'
'Murikami, T.'
'Fujiwara, H.'
'Kadomatsu, H.'
'Kurisu, M.'
'Komura, Y.'
_publ_section_title
;
 Effects of the temperature and the pressure on the intermediate valence
 of Ce (In1-x Snx)3
;
_journal_name_full               'Solid State Communications'
_journal_page_first              71
_journal_page_last               73
_journal_volume                  50
_journal_year                    1984
_chemical_formula_sum            'Ce In1.5 Sn1.5'
_chemical_name_systematic        'Ce (In1.5 Sn1.5)'
_space_group_IT_number           221
_symmetry_space_group_name_Hall  '-P 4 2 3'
_symmetry_space_group_name_H-M   'P m -3 m'
_cell_angle_alpha                90
_cell_angle_beta                 90
_cell_angle_gamma                90
_cell_formula_units_Z            1
_cell_length_a                   4.708
_cell_length_b                   4.708
_cell_length_c                   4.708
_cell_volume                     104.354
_citation_journal_id_ASTM        SSCOA4
_cod_data_source_file            Sakurai_SSCOA4_1984_812.cif
_cod_data_source_block           Ce1In1.5Sn1.5
_cod_original_cell_volume        104.3541
_cod_original_formula_sum        'Ce1 In1.5 Sn1.5'
_cod_database_code               1525193
loop_
_symmetry_equiv_pos_as_xyz
x,y,z
-y,x,z
-x,-y,z
y,-x,z
x,-y,-z
y,x,-z
-x,y,-z
-y,-x,-z
z,x,y
-x,z,y
-z,-x,y
x,-z,y
z,-x,-y
x,z,-y
-z,x,-y
-x,-z,-y
y,z,x
y,-z,-x
z,y,-x
-y,z,-x
-z,-y,-x
-y,-z,x
z,-y,x
-z,y,x
-x,-y,-z
y,-x,-z
x,y,-z
-y,x,-z
-x,y,z
-y,-x,z
x,-y,z
y,x,z
-z,-x,-y
x,-z,-y
z,x,-y
-x,z,-y
-z,x,y
-x,-z,y
z,-x,y
x,z,y
-y,-z,-x
-y,z,x
-z,-y,x
y,-z,x
z,y,x
y,z,-x
-z,y,-x
z,-y,-x
loop_
_atom_site_label
_atom_site_type_symbol
_atom_site_fract_x
_atom_site_fract_y
_atom_site_fract_z
_atom_site_occupancy
_atom_site_U_iso_or_equiv
Ce1 Ce 0 0 0 1 0.0
In1 In 0 0.5 0.5 0.5 0.0
Sn1 Sn 0 0.5 0.5 0.5 0.0
