#------------------------------------------------------------------------------
#$Date: 2018-09-27 07:13:35 +0300 (Thu, 27 Sep 2018) $
#$Revision: 211196 $
#$URL: file:///home/coder/svn-repositories/cod/cif/1/52/52/1525268.cif $
#------------------------------------------------------------------------------
#
# This file is available in the Crystallography Open Database (COD),
# http://www.crystallography.net/
#
# All data on this site have been placed in the public domain by the
# contributors.
#
data_1525268
loop_
_publ_author_name
'Sichevich, O.M.'
'Gladyshevskii, R.E.'
'Yarmolyuk, Ya.P.'
'Grin', Yu.'
_publ_section_title
;
 The crystal structure of R Ga Co (R= Pr, Nd, Sm, Gd, Tb, Dy, Ho, Er, Y)
;
_journal_name_full
;
Dopovidi Akademii Nauk Ukrains'koi RSR, Seriya B: Geologichni, Khimichni ta 
Biologichni Nauki
;
_journal_page_first              57
_journal_page_last               59
_journal_volume                  1982
_journal_year                    1982
_chemical_formula_sum            'Co Ga Gd'
_space_group_IT_number           62
_symmetry_space_group_name_Hall  '-P 2ac 2n'
_symmetry_space_group_name_H-M   'P n m a'
_cell_angle_alpha                90
_cell_angle_beta                 90
_cell_angle_gamma                90
_cell_formula_units_Z            4
_cell_length_a                   6.982
_cell_length_b                   4.433
_cell_length_c                   7.152
_cell_volume                     221.363
_citation_journal_id_ASTM        DANND6
_cod_data_source_file            Sichevich_DANND6_1982_1009.cif
_cod_data_source_block           Co1Ga1Gd1
_cod_original_formula_sum        'Co1 Ga1 Gd1'
_cod_database_code               1525268
loop_
_symmetry_equiv_pos_as_xyz
x,y,z
-x+1/2,-y,z+1/2
x+1/2,-y+1/2,-z+1/2
-x,y+1/2,-z
-x,-y,-z
x-1/2,y,-z-1/2
-x-1/2,y-1/2,z-1/2
x,-y-1/2,z
loop_
_atom_site_label
_atom_site_type_symbol
_atom_site_fract_x
_atom_site_fract_y
_atom_site_fract_z
_atom_site_occupancy
_atom_site_U_iso_or_equiv
Gd1 Gd 0.191 0.25 0.982 1 0.0
Ga1 Ga 0.588 0.25 0.821 1 0.0
Co1 Co 0.583 0.25 0.19 1 0.0
