#------------------------------------------------------------------------------
#$Date: 2016-02-13 21:28:24 +0200 (Sat, 13 Feb 2016) $
#$Revision: 176429 $
#$URL: svn://www.crystallography.net/cod/cif/1/52/52/1525245.cif $
#------------------------------------------------------------------------------
#
# This file is available in the Crystallography Open Database (COD),
# http://www.crystallography.net/
#
# All data on this site have been placed in the public domain by the
# contributors.
#
data_1525245
loop_
_publ_author_name
'Semenenko, K.N.'
'Petrova, L.A.'
'Burnasheva, V.V.'
_publ_section_title
;
 Synthesis and some properties of hydride-phases based on the compounds La
 Ni5-x Tx, where T= Al, Cr, Fe, Cu
;
_journal_name_full               'Zhurnal Neorganicheskoi Khimii'
_journal_page_first              195
_journal_page_last               201
_journal_volume                  28
_journal_year                    1983
_chemical_formula_sum            'Cu3 La Ni2'
_chemical_name_systematic        '(Cu3 Ni2) La'
_space_group_IT_number           191
_symmetry_space_group_name_Hall  '-P 6 2'
_symmetry_space_group_name_H-M   'P 6/m m m'
_cell_angle_alpha                90
_cell_angle_beta                 90
_cell_angle_gamma                120
_cell_formula_units_Z            1
_cell_length_a                   5.103
_cell_length_b                   5.103
_cell_length_c                   4.058
_cell_volume                     91.515
_citation_journal_id_ASTM        ZNOKAQ
_cod_data_source_file            Semenenko_ZNOKAQ_1983_1551.cif
_cod_data_source_block           Cu3La1Ni2
_cod_original_cell_volume        91.51533
_cod_original_formula_sum        'Cu3 La1 Ni2'
_cod_database_code               1525245
loop_
_symmetry_equiv_pos_as_xyz
x,y,z
x-y,x,z
-y,x-y,z
-x,-y,z
-x+y,-x,z
y,-x+y,z
-y,-x,-z
x-y,-y,-z
x,x-y,-z
y,x,-z
-x+y,y,-z
-x,-x+y,-z
-x,-y,-z
-x+y,-x,-z
y,-x+y,-z
x,y,-z
x-y,x,-z
-y,x-y,-z
y,x,z
-x+y,y,z
-x,-x+y,z
-y,-x,z
x-y,-y,z
x,x-y,z
loop_
_atom_site_label
_atom_site_type_symbol
_atom_site_fract_x
_atom_site_fract_y
_atom_site_fract_z
_atom_site_occupancy
_atom_site_U_iso_or_equiv
Ni2 Ni 0.5 0 0.5 0.4 0.0
La1 La 0 0 0 1 0.0
Ni1 Ni 0.3333 0.6667 0 0.4 0.0
Cu1 Cu 0.3333 0.6667 0 0.6 0.0
Cu2 Cu 0.5 0 0.5 0.6 0.0
