#------------------------------------------------------------------------------
#$Date: 2016-02-13 21:28:24 +0200 (Sat, 13 Feb 2016) $
#$Revision: 176429 $
#$URL: svn://www.crystallography.net/cod/cif/1/52/54/1525423.cif $
#------------------------------------------------------------------------------
#
# This file is available in the Crystallography Open Database (COD),
# http://www.crystallography.net/
#
# All data on this site have been placed in the public domain by the
# contributors.
#
data_1525423
loop_
_publ_author_name
'Varich, N.I.'
'Varich, A.N.'
'Kravtsov, I.A.'
_publ_section_title
;
 Continuous series of solid solutions between intermetallic compounds in
 quasi-binary systems
;
_journal_name_full
;
Dopovidi Akademii Nauk Ukrains'koi RSR, Seriya A: Fiziko-Matematichni Ta 
Tekhnichni Nauki
;
_journal_page_first              84
_journal_page_last               88
_journal_volume                  35
_journal_year                    1973
_chemical_formula_sum            'Co0.5 Ga Ni0.5'
_chemical_name_systematic        '(Co0.5 Ni0.5) Ga'
_space_group_IT_number           221
_symmetry_space_group_name_Hall  '-P 4 2 3'
_symmetry_space_group_name_H-M   'P m -3 m'
_cell_angle_alpha                90
_cell_angle_beta                 90
_cell_angle_gamma                90
_cell_formula_units_Z            1
_cell_length_a                   2.872
_cell_length_b                   2.872
_cell_length_c                   2.872
_cell_volume                     23.689
_citation_journal_id_ASTM        DNUNDU
_cod_data_source_file            Varich_DNUNDU_1973_1022.cif
_cod_data_source_block           Co0.5Ga1Ni0.5
_cod_original_cell_volume        23.68936
_cod_original_formula_sum        'Co0.5 Ga1 Ni0.5'
_cod_database_code               1525423
loop_
_symmetry_equiv_pos_as_xyz
x,y,z
-y,x,z
-x,-y,z
y,-x,z
x,-y,-z
y,x,-z
-x,y,-z
-y,-x,-z
z,x,y
-x,z,y
-z,-x,y
x,-z,y
z,-x,-y
x,z,-y
-z,x,-y
-x,-z,-y
y,z,x
y,-z,-x
z,y,-x
-y,z,-x
-z,-y,-x
-y,-z,x
z,-y,x
-z,y,x
-x,-y,-z
y,-x,-z
x,y,-z
-y,x,-z
-x,y,z
-y,-x,z
x,-y,z
y,x,z
-z,-x,-y
x,-z,-y
z,x,-y
-x,z,-y
-z,x,y
-x,-z,y
z,-x,y
x,z,y
-y,-z,-x
-y,z,x
-z,-y,x
y,-z,x
z,y,x
y,z,-x
-z,y,-x
z,-y,-x
loop_
_atom_site_label
_atom_site_type_symbol
_atom_site_fract_x
_atom_site_fract_y
_atom_site_fract_z
_atom_site_occupancy
_atom_site_U_iso_or_equiv
Ni1 Ni 0.5 0.5 0.5 0.5 0.0
Co1 Co 0.5 0.5 0.5 0.5 0.0
Ga1 Ga 0 0 0 1 0.0
