#------------------------------------------------------------------------------
#$Date: 2016-02-13 21:28:24 +0200 (Sat, 13 Feb 2016) $
#$Revision: 176429 $
#$URL: svn://www.crystallography.net/cod/cif/1/52/50/1525013.cif $
#------------------------------------------------------------------------------
#
# This file is available in the Crystallography Open Database (COD),
# http://www.crystallography.net/
#
# All data on this site have been placed in the public domain by the
# contributors.
#
data_1525013
loop_
_publ_author_name
'Oesterreicher, H.'
'Parker, F.T.'
'Misroch, M.'
_publ_section_title
;
 Giant intrinsic magnetic hardness in R Fe5-x Nix (R= rare earth; x= 4 to
 5)
;
_journal_name_full               'Appplied Physics (Berlin)'
_journal_page_first              185
_journal_page_last               189
_journal_volume                  16
_journal_year                    1978
_chemical_formula_sum            'Fe Ho Ni4'
_chemical_name_systematic        '(Fe.2 Ni.8)5 Ho'
_space_group_IT_number           191
_symmetry_space_group_name_Hall  '-P 6 2'
_symmetry_space_group_name_H-M   'P 6/m m m'
_cell_angle_alpha                90
_cell_angle_beta                 90
_cell_angle_gamma                120
_cell_formula_units_Z            1
_cell_length_a                   4.89
_cell_length_b                   4.89
_cell_length_c                   3.997
_cell_volume                     82.772
_citation_journal_id_ASTM        APHYCC
_cod_data_source_file            Oesterreicher_APHYCC_1978_1956.cif
_cod_data_source_block           Fe1Ho1Ni4
_cod_original_cell_volume        82.77181
_cod_original_formula_sum        'Fe1 Ho1 Ni4'
_cod_database_code               1525013
loop_
_symmetry_equiv_pos_as_xyz
x,y,z
x-y,x,z
-y,x-y,z
-x,-y,z
-x+y,-x,z
y,-x+y,z
-y,-x,-z
x-y,-y,-z
x,x-y,-z
y,x,-z
-x+y,y,-z
-x,-x+y,-z
-x,-y,-z
-x+y,-x,-z
y,-x+y,-z
x,y,-z
x-y,x,-z
-y,x-y,-z
y,x,z
-x+y,y,z
-x,-x+y,z
-y,-x,z
x-y,-y,z
x,x-y,z
loop_
_atom_site_label
_atom_site_type_symbol
_atom_site_fract_x
_atom_site_fract_y
_atom_site_fract_z
_atom_site_occupancy
_atom_site_U_iso_or_equiv
Fe1 Fe 0.3333 0.6667 0 0.2 0.0
Ni2 Ni 0.5 0 0.5 0.8 0.0
Ni1 Ni 0.3333 0.6667 0 0.8 0.0
Ho1 Ho 0 0 0 1 0.0
Fe2 Fe 0.5 0 0.5 0.2 0.0
