#------------------------------------------------------------------------------
#$Date: 2016-02-13 21:28:24 +0200 (Sat, 13 Feb 2016) $
#$Revision: 176429 $
#$URL: svn://www.crystallography.net/cod/cif/1/52/51/1525102.cif $
#------------------------------------------------------------------------------
#
# This file is available in the Crystallography Open Database (COD),
# http://www.crystallography.net/
#
# All data on this site have been placed in the public domain by the
# contributors.
#
data_1525102
loop_
_publ_author_name
'Pourarian, F.'
'Wallace, W.E.'
'Pedziwiatr, A.'
_publ_section_title
;
 Effect of Fe substitution on the magnetic characteristics of some R Ni5
 alloys (R= Pr and Nd)
;
_journal_name_full               'IEEE Transactions on Magnetics'
_journal_page_first              1446
_journal_page_last               1448
_journal_volume                  20
_journal_year                    1984
_chemical_formula_sum            'Fe Nd Ni4'
_chemical_name_systematic        '(Fe0.2 Ni0.8)5 Nd'
_space_group_IT_number           191
_symmetry_space_group_name_Hall  '-P 6 2'
_symmetry_space_group_name_H-M   'P 6/m m m'
_cell_angle_alpha                90
_cell_angle_beta                 90
_cell_angle_gamma                120
_cell_formula_units_Z            1
_cell_length_a                   4.994
_cell_length_b                   4.994
_cell_length_c                   4.033
_cell_volume                     87.108
_citation_journal_id_ASTM        IEMGAQ
_cod_data_source_file            Pourarian_IEMGAQ_1984_1996.cif
_cod_data_source_block           Fe1Nd1Ni4
_cod_original_cell_volume        87.10757
_cod_original_formula_sum        'Fe1 Nd1 Ni4'
_cod_database_code               1525102
loop_
_symmetry_equiv_pos_as_xyz
x,y,z
x-y,x,z
-y,x-y,z
-x,-y,z
-x+y,-x,z
y,-x+y,z
-y,-x,-z
x-y,-y,-z
x,x-y,-z
y,x,-z
-x+y,y,-z
-x,-x+y,-z
-x,-y,-z
-x+y,-x,-z
y,-x+y,-z
x,y,-z
x-y,x,-z
-y,x-y,-z
y,x,z
-x+y,y,z
-x,-x+y,z
-y,-x,z
x-y,-y,z
x,x-y,z
loop_
_atom_site_label
_atom_site_type_symbol
_atom_site_fract_x
_atom_site_fract_y
_atom_site_fract_z
_atom_site_occupancy
_atom_site_U_iso_or_equiv
Fe1 Fe 0.3333 0.6667 0 0.2 0.0
Nd1 Nd 0 0 0 1 0.0
Ni2 Ni 0.5 0 0.5 0.8 0.0
Ni1 Ni 0.3333 0.6667 0 0.8 0.0
Fe2 Fe 0.5 0 0.5 0.2 0.0
