#------------------------------------------------------------------------------
#$Date: 2016-02-13 21:28:24 +0200 (Sat, 13 Feb 2016) $
#$Revision: 176429 $
#$URL: svn://www.crystallography.net/cod/cif/1/52/50/1525003.cif $
#------------------------------------------------------------------------------
#
# This file is available in the Crystallography Open Database (COD),
# http://www.crystallography.net/
#
# All data on this site have been placed in the public domain by the
# contributors.
#
data_1525003
loop_
_publ_author_name
'Nowotny, H.'
'Schroth, H.'
'Benesovsky, F.'
'Kieffer, R.'
_publ_section_title
;
 Der Aufbau einiger Silizidsysteme von Uebergangsmetallen
;
_journal_name_full               'Monatshefte fuer Chemie (-108,1977)'
_journal_page_first              579
_journal_page_last               584
_journal_volume                  84
_journal_year                    1953
_chemical_formula_sum            'Cr1.5 Mo1.5 Si'
_chemical_name_systematic        '(Cr0.5 Mo0.5)3 Si'
_space_group_IT_number           223
_symmetry_space_group_name_Hall  '-P 4n 2 3'
_symmetry_space_group_name_H-M   'P m -3 n'
_cell_angle_alpha                90
_cell_angle_beta                 90
_cell_angle_gamma                90
_cell_formula_units_Z            2
_cell_length_a                   4.777
_cell_length_b                   4.777
_cell_length_c                   4.777
_cell_volume                     109.010
_citation_journal_id_ASTM        MOCHAP
_cod_data_source_file            Nowotny_MOCHAP_1953_1316.cif
_cod_data_source_block           Cr1.5Mo1.5Si1
_cod_original_cell_volume        109.0098
_cod_original_formula_sum        'Cr1.5 Mo1.5 Si1'
_cod_database_code               1525003
loop_
_symmetry_equiv_pos_as_xyz
x,y,z
-y+1/2,x+1/2,z+1/2
-x,-y,z
y+1/2,-x+1/2,z+1/2
x,-y,-z
y+1/2,x+1/2,-z+1/2
-x,y,-z
-y+1/2,-x+1/2,-z+1/2
z,x,y
-x+1/2,z+1/2,y+1/2
-z,-x,y
x+1/2,-z+1/2,y+1/2
z,-x,-y
x+1/2,z+1/2,-y+1/2
-z,x,-y
-x+1/2,-z+1/2,-y+1/2
y,z,x
y,-z,-x
z+1/2,y+1/2,-x+1/2
-y,z,-x
-z+1/2,-y+1/2,-x+1/2
-y,-z,x
z+1/2,-y+1/2,x+1/2
-z+1/2,y+1/2,x+1/2
-x,-y,-z
y-1/2,-x-1/2,-z-1/2
x,y,-z
-y-1/2,x-1/2,-z-1/2
-x,y,z
-y-1/2,-x-1/2,z-1/2
x,-y,z
y-1/2,x-1/2,z-1/2
-z,-x,-y
x-1/2,-z-1/2,-y-1/2
z,x,-y
-x-1/2,z-1/2,-y-1/2
-z,x,y
-x-1/2,-z-1/2,y-1/2
z,-x,y
x-1/2,z-1/2,y-1/2
-y,-z,-x
-y,z,x
-z-1/2,-y-1/2,x-1/2
y,-z,x
z-1/2,y-1/2,x-1/2
y,z,-x
-z-1/2,y-1/2,-x-1/2
z-1/2,-y-1/2,-x-1/2
loop_
_atom_site_label
_atom_site_type_symbol
_atom_site_fract_x
_atom_site_fract_y
_atom_site_fract_z
_atom_site_occupancy
_atom_site_U_iso_or_equiv
Mo1 Mo 0.25 0 0.5 0.5 0.0
Cr1 Cr 0.25 0 0.5 0.5 0.0
Si1 Si 0 0 0 1 0.0
