#------------------------------------------------------------------------------
#$Date: 2015-07-11 23:19:19 +0300 (Sat, 11 Jul 2015) $
#$Revision: 146179 $
#$URL: svn://www.crystallography.net/cod/cif/1/52/52/1525255.cif $
#------------------------------------------------------------------------------
#
# This file is available in the Crystallography Open Database (COD),
# http://www.crystallography.net/
#
# All data on this site have been placed in the public domain by the
# contributors.
#
data_1525255
loop_
_publ_author_name
'Shevchenko, I.P.'
'Markiv, V.Ya.'
'Grin', Yu.'
'Yarmolyuk, Ya.P.'
'Fedorchuk, A.A.'
_publ_section_title
;
 Phase equilibria and crystalline structure of compounds in the system
 Ho-Cu-Ga
;
_journal_name_full               'Izvestiya Akademii Nauk SSSR, Metally'
_journal_page_first              214
_journal_page_last               217
_journal_volume                  1989
_journal_year                    1989
_chemical_formula_sum            'Cu2.2 Ga8.8 Ho3'
_chemical_name_systematic        '(Cu2.2 Ga8.8) Ho3'
_space_group_IT_number           71
_symmetry_space_group_name_Hall  '-I 2 2'
_symmetry_space_group_name_H-M   'I m m m'
_cell_angle_alpha                90
_cell_angle_beta                 90
_cell_angle_gamma                90
_cell_formula_units_Z            2
_cell_length_a                   4.161
_cell_length_b                   12.26
_cell_length_c                   9.719
_cell_volume                     495.804
_citation_journal_id_ASTM        IZNMAQ
_cod_data_source_file            Shevchenko_IZNMAQ_1989_1430.cif
_cod_data_source_block           Cu2.2Ga8.8Ho3
_cod_original_cell_volume        495.8037
_cod_database_code               1525255
loop_
_symmetry_equiv_pos_as_xyz
x,y,z
-x,-y,z
x,-y,-z
-x,y,-z
-x,-y,-z
x,y,-z
-x,y,z
x,-y,z
x+1/2,y+1/2,z+1/2
-x+1/2,-y+1/2,z+1/2
x+1/2,-y+1/2,-z+1/2
-x+1/2,y+1/2,-z+1/2
-x+1/2,-y+1/2,-z+1/2
x+1/2,y+1/2,-z+1/2
-x+1/2,y+1/2,z+1/2
x+1/2,-y+1/2,z+1/2
loop_
_atom_site_label
_atom_site_type_symbol
_atom_site_fract_x
_atom_site_fract_y
_atom_site_fract_z
_atom_site_occupancy
_atom_site_U_iso_or_equiv
Ga2 Ga 0.5 0 0.718 0.8 0.0
Ho2 Ho 0 0.317 0 1 0.0
Cu3 Cu 0 0.152 0.266 0.2 0.0
Ga4 Ga 0 0.345 0.3744 0.8 0.0
Cu4 Cu 0 0.345 0.3744 0.2 0.0
Ga1 Ga 0.5 0.5 0 0.8 0.0
Ga3 Ga 0 0.152 0.266 0.8 0.0
Cu1 Cu 0.5 0.5 0 0.2 0.0
Cu2 Cu 0.5 0 0.718 0.2 0.0
Ho1 Ho 0 0 0 1 0.0
