#------------------------------------------------------------------------------
#$Date: 2016-02-13 21:28:24 +0200 (Sat, 13 Feb 2016) $
#$Revision: 176429 $
#$URL: svn://www.crystallography.net/cod/cif/1/52/53/1525332.cif $
#------------------------------------------------------------------------------
#
# This file is available in the Crystallography Open Database (COD),
# http://www.crystallography.net/
#
# All data on this site have been placed in the public domain by the
# contributors.
#
data_1525332
loop_
_publ_author_name
'Sozontova, G.N.'
'Shtol'ts, A.K.'
'Gel'd, P.V.'
'Kuznetsov, S.I.'
'Pekrul, A.F.'
_publ_section_title
;
 Concentration curves of crystal lattice parameter, superconductive
 transition point and solid solution of (V, Cr)3 Ga with a structure of
 the A15 type
;
_journal_name_full               'Fizika Metallov i Metallovedenie'
_journal_page_first              1307
_journal_page_last               1309
_journal_volume                  41
_journal_year                    1976
_chemical_formula_sum            'Cr1.2 Ga V1.8'
_chemical_name_systematic        '(Cr1.2 V1.8) Ga'
_space_group_IT_number           223
_symmetry_space_group_name_Hall  '-P 4n 2 3'
_symmetry_space_group_name_H-M   'P m -3 n'
_cell_angle_alpha                90
_cell_angle_beta                 90
_cell_angle_gamma                90
_cell_formula_units_Z            2
_cell_length_a                   4.744
_cell_length_b                   4.744
_cell_length_c                   4.744
_cell_volume                     106.766
_citation_journal_id_ASTM        FMMTAK
_cod_data_source_file            Sozontova_FMMTAK_1976_1298.cif
_cod_data_source_block           Cr1.2Ga1V1.8
_cod_original_cell_volume        106.7663
_cod_original_formula_sum        'Cr1.2 Ga1 V1.8'
_cod_database_code               1525332
loop_
_symmetry_equiv_pos_as_xyz
x,y,z
-y+1/2,x+1/2,z+1/2
-x,-y,z
y+1/2,-x+1/2,z+1/2
x,-y,-z
y+1/2,x+1/2,-z+1/2
-x,y,-z
-y+1/2,-x+1/2,-z+1/2
z,x,y
-x+1/2,z+1/2,y+1/2
-z,-x,y
x+1/2,-z+1/2,y+1/2
z,-x,-y
x+1/2,z+1/2,-y+1/2
-z,x,-y
-x+1/2,-z+1/2,-y+1/2
y,z,x
y,-z,-x
z+1/2,y+1/2,-x+1/2
-y,z,-x
-z+1/2,-y+1/2,-x+1/2
-y,-z,x
z+1/2,-y+1/2,x+1/2
-z+1/2,y+1/2,x+1/2
-x,-y,-z
y-1/2,-x-1/2,-z-1/2
x,y,-z
-y-1/2,x-1/2,-z-1/2
-x,y,z
-y-1/2,-x-1/2,z-1/2
x,-y,z
y-1/2,x-1/2,z-1/2
-z,-x,-y
x-1/2,-z-1/2,-y-1/2
z,x,-y
-x-1/2,z-1/2,-y-1/2
-z,x,y
-x-1/2,-z-1/2,y-1/2
z,-x,y
x-1/2,z-1/2,y-1/2
-y,-z,-x
-y,z,x
-z-1/2,-y-1/2,x-1/2
y,-z,x
z-1/2,y-1/2,x-1/2
y,z,-x
-z-1/2,y-1/2,-x-1/2
z-1/2,-y-1/2,-x-1/2
loop_
_atom_site_label
_atom_site_type_symbol
_atom_site_fract_x
_atom_site_fract_y
_atom_site_fract_z
_atom_site_occupancy
_atom_site_U_iso_or_equiv
Cr1 Cr 0.25 0 0.5 0.4 0.0
Ga1 Ga 0 0 0 1 0.0
V1 V 0.25 0 0.5 0.6 0.0
