#------------------------------------------------------------------------------
#$Date: 2016-02-13 14:50:18 +0200 (Sat, 13 Feb 2016) $
#$Revision: 176428 $
#$URL: svn://www.crystallography.net/cod/cif/1/52/53/1525390.cif $
#------------------------------------------------------------------------------
#
# This file is available in the Crystallography Open Database (COD),
# http://www.crystallography.net/
#
# All data on this site have been placed in the public domain by the
# contributors.
#
data_1525390
loop_
_publ_author_name
'Tomas, A.'
'Brossard, L.'
'Guittard, M.'
'Flahaut, J.'
_publ_section_title
;
 Structure of FeYb2S4
;
_journal_name_full
'Euchem - Conference on the chemistry of rare earths'
_journal_page_first              79
_journal_page_last               80
_journal_volume                  1978
_journal_year                    1978
_chemical_formula_sum            'Fe9.6 S32 Yb16'
_chemical_name_systematic        '(Fe Yb2 S4)10.28'
_space_group_IT_number           227
_symmetry_space_group_name_Hall  'F 4d 2 3 -1d'
_symmetry_space_group_name_H-M   'F d -3 m :1'
_cell_angle_alpha                90
_cell_angle_beta                 90
_cell_angle_gamma                90
_cell_formula_units_Z            1
_cell_length_a                   10.82
_cell_length_b                   10.82
_cell_length_c                   10.82
_cell_volume                     1266.723
_citation_journal_id_ASTM        100013
_cod_data_source_file            Tomas_100013_1978_45.cif
_cod_data_source_block           Fe9.6S32Yb16
_cod_original_sg_symbol_Hall     '-F 4vw 2vw 3 (x+1/8,y+1/8,z+1/8)'
_cod_database_code               1525390
loop_
_symmetry_equiv_pos_as_xyz
x,y,z
-y+1/4,x+1/4,z+1/4
-x,-y+1/2,z+1/2
y+3/4,-x+1/4,z+3/4
x,-y+1/2,-z+1/2
y+3/4,x+1/4,-z+3/4
-x,y,-z
-y+1/4,-x+1/4,-z+1/4
z,x,y
-x+1/4,z+1/4,y+1/4
-z,-x+1/2,y+1/2
x+3/4,-z+1/4,y+3/4
z,-x+1/2,-y+1/2
x+3/4,z+1/4,-y+3/4
-z,x,-y
-x+1/4,-z+1/4,-y+1/4
y,z,x
y+1/2,-z,-x+1/2
z+1/4,y+3/4,-x+3/4
-y+1/2,z+1/2,-x
-z+1/4,-y+3/4,-x+3/4
-y+1/2,-z+1/2,x
z+1/4,-y+1/4,x+1/4
-z+3/4,y+1/4,x+3/4
-x+1/4,-y+1/4,-z+1/4
y,-x,-z
x+1/4,y-1/4,-z-1/4
-y-1/2,x,-z-1/2
-x+1/4,y-1/4,z-1/4
-y-1/2,-x,z-1/2
x+1/4,-y+1/4,z+1/4
y,x,z
-z+1/4,-x+1/4,-y+1/4
x,-z,-y
z+1/4,x-1/4,-y-1/4
-x-1/2,z,-y-1/2
-z+1/4,x-1/4,y-1/4
-x-1/2,-z,y-1/2
z+1/4,-x+1/4,y+1/4
x,z,y
-y+1/4,-z+1/4,-x+1/4
-y-1/4,z+1/4,x-1/4
-z,-y-1/2,x-1/2
y-1/4,-z-1/4,x+1/4
z,y-1/2,x-1/2
y-1/4,z-1/4,-x+1/4
-z,y,-x
z-1/2,-y,-x-1/2
x,y+1/2,z+1/2
-y+1/4,x+3/4,z+3/4
-x,-y+1,z+1
y+3/4,-x+3/4,z+5/4
x,-y+1,-z+1
y+3/4,x+3/4,-z+5/4
-x,y+1/2,-z+1/2
-y+1/4,-x+3/4,-z+3/4
z,x+1/2,y+1/2
-x+1/4,z+3/4,y+3/4
-z,-x+1,y+1
x+3/4,-z+3/4,y+5/4
z,-x+1,-y+1
x+3/4,z+3/4,-y+5/4
-z,x+1/2,-y+1/2
-x+1/4,-z+3/4,-y+3/4
y,z+1/2,x+1/2
y+1/2,-z+1/2,-x+1
z+1/4,y+5/4,-x+5/4
-y+1/2,z+1,-x+1/2
-z+1/4,-y+5/4,-x+5/4
-y+1/2,-z+1,x+1/2
z+1/4,-y+3/4,x+3/4
-z+3/4,y+3/4,x+5/4
-x+1/4,-y+3/4,-z+3/4
y,-x+1/2,-z+1/2
x+1/4,y+1/4,-z+1/4
-y-1/2,x+1/2,-z
-x+1/4,y+1/4,z+1/4
-y-1/2,-x+1/2,z
x+1/4,-y+3/4,z+3/4
y,x+1/2,z+1/2
-z+1/4,-x+3/4,-y+3/4
x,-z+1/2,-y+1/2
z+1/4,x+1/4,-y+1/4
-x-1/2,z+1/2,-y
-z+1/4,x+1/4,y+1/4
-x-1/2,-z+1/2,y
z+1/4,-x+3/4,y+3/4
x,z+1/2,y+1/2
-y+1/4,-z+3/4,-x+3/4
-y-1/4,z+3/4,x+1/4
-z,-y,x
y-1/4,-z+1/4,x+3/4
z,y,x
y-1/4,z+1/4,-x+3/4
-z,y+1/2,-x+1/2
z-1/2,-y+1/2,-x
x+1/2,y,z+1/2
-y+3/4,x+1/4,z+3/4
-x+1/2,-y+1/2,z+1
y+5/4,-x+1/4,z+5/4
x+1/2,-y+1/2,-z+1
y+5/4,x+1/4,-z+5/4
-x+1/2,y,-z+1/2
-y+3/4,-x+1/4,-z+3/4
z+1/2,x,y+1/2
-x+3/4,z+1/4,y+3/4
-z+1/2,-x+1/2,y+1
x+5/4,-z+1/4,y+5/4
z+1/2,-x+1/2,-y+1
x+5/4,z+1/4,-y+5/4
-z+1/2,x,-y+1/2
-x+3/4,-z+1/4,-y+3/4
y+1/2,z,x+1/2
y+1,-z,-x+1
z+3/4,y+3/4,-x+5/4
-y+1,z+1/2,-x+1/2
-z+3/4,-y+3/4,-x+5/4
-y+1,-z+1/2,x+1/2
z+3/4,-y+1/4,x+3/4
-z+5/4,y+1/4,x+5/4
-x+3/4,-y+1/4,-z+3/4
y+1/2,-x,-z+1/2
x+3/4,y-1/4,-z+1/4
-y,x,-z
-x+3/4,y-1/4,z+1/4
-y,-x,z
x+3/4,-y+1/4,z+3/4
y+1/2,x,z+1/2
-z+3/4,-x+1/4,-y+3/4
x+1/2,-z,-y+1/2
z+3/4,x-1/4,-y+1/4
-x,z,-y
-z+3/4,x-1/4,y+1/4
-x,-z,y
z+3/4,-x+1/4,y+3/4
x+1/2,z,y+1/2
-y+3/4,-z+1/4,-x+3/4
-y+1/4,z+1/4,x+1/4
-z+1/2,-y-1/2,x
y+1/4,-z-1/4,x+3/4
z+1/2,y-1/2,x
y+1/4,z-1/4,-x+3/4
-z+1/2,y,-x+1/2
z,-y,-x
x+1/2,y+1/2,z
-y+3/4,x+3/4,z+1/4
-x+1/2,-y+1,z+1/2
y+5/4,-x+3/4,z+3/4
x+1/2,-y+1,-z+1/2
y+5/4,x+3/4,-z+3/4
-x+1/2,y+1/2,-z
-y+3/4,-x+3/4,-z+1/4
z+1/2,x+1/2,y
-x+3/4,z+3/4,y+1/4
-z+1/2,-x+1,y+1/2
x+5/4,-z+3/4,y+3/4
z+1/2,-x+1,-y+1/2
x+5/4,z+3/4,-y+3/4
-z+1/2,x+1/2,-y
-x+3/4,-z+3/4,-y+1/4
y+1/2,z+1/2,x
y+1,-z+1/2,-x+1/2
z+3/4,y+5/4,-x+3/4
-y+1,z+1,-x
-z+3/4,-y+5/4,-x+3/4
-y+1,-z+1,x
z+3/4,-y+3/4,x+1/4
-z+5/4,y+3/4,x+3/4
-x+3/4,-y+3/4,-z+1/4
y+1/2,-x+1/2,-z
x+3/4,y+1/4,-z-1/4
-y,x+1/2,-z-1/2
-x+3/4,y+1/4,z-1/4
-y,-x+1/2,z-1/2
x+3/4,-y+3/4,z+1/4
y+1/2,x+1/2,z
-z+3/4,-x+3/4,-y+1/4
x+1/2,-z+1/2,-y
z+3/4,x+1/4,-y-1/4
-x,z+1/2,-y-1/2
-z+3/4,x+1/4,y-1/4
-x,-z+1/2,y-1/2
z+3/4,-x+3/4,y+1/4
x+1/2,z+1/2,y
-y+3/4,-z+3/4,-x+1/4
-y+1/4,z+3/4,x-1/4
-z+1/2,-y,x-1/2
y+1/4,-z+1/4,x+1/4
z+1/2,y,x-1/2
y+1/4,z+1/4,-x+1/4
-z+1/2,y+1/2,-x
z,-y+1/2,-x-1/2
loop_
_atom_site_label
_atom_site_type_symbol
_atom_site_fract_x
_atom_site_fract_y
_atom_site_fract_z
_atom_site_occupancy
_atom_site_U_iso_or_equiv
Yb1 Yb 0.125 0.125 0.125 0.09 0.0
Yb2 Yb 0.625 0.625 0.625 0.91 0.0
Fe3 Fe 0.625 0.625 0.625 0.055 0.0
Fe2 Fe 0.125 0.125 0.125 0.045 0.0
S1 S 0.378 0.378 0.378 1 0.0
Fe1 Fe 0 0 0 1 0.0
