#------------------------------------------------------------------------------
#$Date: 2016-02-13 21:28:24 +0200 (Sat, 13 Feb 2016) $
#$Revision: 176429 $
#$URL: svn://www.crystallography.net/cod/cif/1/52/57/1525769.cif $
#------------------------------------------------------------------------------
#
# This file is available in the Crystallography Open Database (COD),
# http://www.crystallography.net/
#
# All data on this site have been placed in the public domain by the
# contributors.
#
data_1525769
loop_
_publ_author_name
'Lim, K.C.'
'Skelton, B.W.'
'White, A.H.'
_publ_section_title
;
 Structural systematics of rare earth complexes. XXII. ('Maximally')
 hydrated rare earth iodides
;
_journal_name_full               'Australian Journal of Chemistry'
_journal_page_first              867
_journal_page_last               873
_journal_volume                  53
_journal_year                    2000
_chemical_formula_sum            'H18 I3 La O9'
_chemical_name_systematic        '(La (H2 O)9) I3'
_space_group_IT_number           59
_symmetry_space_group_name_Hall  '-P 2ab 2a'
_symmetry_space_group_name_H-M   'P m m n :2'
_cell_angle_alpha                90
_cell_angle_beta                 90
_cell_angle_gamma                90
_cell_formula_units_Z            2
_cell_length_a                   11.758
_cell_length_b                   8.016
_cell_length_c                   8.858
_cell_volume                     834.885
_citation_journal_id_ASTM        AJCHAS
_cod_data_source_file            Lim_AJCHAS_2000_101.cif
_cod_data_source_block           H18I3La1O9
_cod_original_cell_volume        834.8853
_cod_original_formula_sum        'H18 I3 La1 O9'
_cod_database_code               1525769
loop_
_symmetry_equiv_pos_as_xyz
x,y,z
-x+1/2,-y+1/2,z
x+1/2,-y,-z
-x,y+1/2,-z
-x,-y,-z
x-1/2,y-1/2,-z
-x-1/2,y,z
x,-y-1/2,z
loop_
_atom_site_label
_atom_site_type_symbol
_atom_site_fract_x
_atom_site_fract_y
_atom_site_fract_z
_atom_site_occupancy
_atom_site_U_iso_or_equiv
O4 O-2 0.4418 0.75 0.7953 1 0.0
O1 O-2 0.3793 0.5254 0.5556 1 0.0
O2 O-2 0.25 0.75 0.3715 1 0.0
O3 O-2 0.25 0.9634 0.8774 1 0.0
La1 La+3 0.25 0.75 0.6619 1 0.0
I1 I-1 0.49107 0.25 0.82748 1 0.0
I2 I-1 0.75 0.75 0.71601 1 0.0
