#------------------------------------------------------------------------------
#$Date: 2016-02-13 14:50:18 +0200 (Sat, 13 Feb 2016) $
#$Revision: 176428 $
#$URL: svn://www.crystallography.net/cod/cif/1/52/56/1525656.cif $
#------------------------------------------------------------------------------
#
# This file is available in the Crystallography Open Database (COD),
# http://www.crystallography.net/
#
# All data on this site have been placed in the public domain by the
# contributors.
#
data_1525656
loop_
_publ_author_name
'Belin, S.'
'Burel, L.'
'Chevrel, R.'
'Sergent, M.'
_publ_section_title
;
 Self-molybdenum intercalation: stabilization of metastable pseudo-binary
 Chevrel phases in Mo6 Se8 - Mo6 S8 system
;
_journal_name_full               'Materials Research Bulletin'
_journal_page_first              151
_journal_page_last               168
_journal_volume                  35
_journal_year                    2000
_chemical_formula_sum            'Mo6.22 S3.94 Se4.06'
_chemical_name_systematic        'Mo6.22 Se4.06 S3.94'
_space_group_IT_number           148
_symmetry_space_group_name_Hall  '-P 3*'
_symmetry_space_group_name_H-M   'R -3 :R'
_cell_angle_alpha                92.76
_cell_angle_beta                 92.76
_cell_angle_gamma                92.76
_cell_formula_units_Z            1
_cell_length_a                   6.553
_cell_length_b                   6.553
_cell_length_c                   6.553
_cell_volume                     280.386
_citation_journal_id_ASTM        MRBUAC
_cod_data_source_file            Belin_MRBUAC_2000_291.cif
_cod_data_source_block           Mo6.22S3.94Se4.06
_cod_original_cell_volume        280.3857
_cod_original_sg_symbol_Hall     '-R 3 (-y+z,x+z,-x+y+z)'
_cod_database_code               1525656
loop_
_symmetry_equiv_pos_as_xyz
x,y,z
z,x,y
y,z,x
-x,-y,-z
-z,-x,-y
-y,-z,-x
loop_
_atom_site_label
_atom_site_type_symbol
_atom_site_fract_x
_atom_site_fract_y
_atom_site_fract_z
_atom_site_occupancy
_atom_site_U_iso_or_equiv
Mo1 Mo+2 0.219 0.40941 0.54648 1 0.0
S1 S-2 0.3763 0.1284 0.7409 0.61 0.0
Se1 Se-2 0.3763 0.1284 0.7409 0.39 0.0
Se2 Se-2 0.2046 0.2046 0.2046 0.86 0.0
S2 S-2 0.2046 0.2046 0.2046 0.14 0.0
Mo2 Mo+2 0.985 0.488 0.926 0.036 0.0
