#------------------------------------------------------------------------------
#$Date: 2016-02-13 21:28:24 +0200 (Sat, 13 Feb 2016) $
#$Revision: 176429 $
#$URL: svn://www.crystallography.net/cod/cif/1/52/59/1525965.cif $
#------------------------------------------------------------------------------
#
# This file is available in the Crystallography Open Database (COD),
# http://www.crystallography.net/
#
# All data on this site have been placed in the public domain by the
# contributors.
#
data_1525965
loop_
_publ_author_name
'El Khayati, N.'
'Cherkaoui El Moursli, R.'
'Rodriguez-Carvajal, J.'
'Andre, G.'
'Blanchard, N.'
'Roisnel, T.'
'Collin, G.'
'Bouree, F.'
_publ_section_title
;
 Crystal and magnetic structures of the oxyphosphates M Fe P O5 (M =Fe,
 Co, Ni, Cu). Analysis of the magnetic ground state in terms
 ofsuperexchange interactions
;
_journal_name_full               'The European Physical Journal B'
_journal_page_first              429
_journal_page_last               442
_journal_volume                  22
_journal_year                    2001
_chemical_formula_sum            'Fe Ni O5 P'
_chemical_name_systematic        'Ni Fe (P O4) O'
_space_group_IT_number           62
_symmetry_space_group_name_Hall  '-P 2ac 2n'
_symmetry_space_group_name_H-M   'P n m a'
_cell_angle_alpha                90
_cell_angle_beta                 90
_cell_angle_gamma                90
_cell_formula_units_Z            4
_cell_length_a                   7.1882
_cell_length_b                   6.3924
_cell_length_c                   7.4847
_cell_volume                     343.921
_citation_journal_id_ASTM        EPJBFY
_cod_data_source_file            ElKhayati_EPJBFY_2001_1471.cif
_cod_data_source_block           Fe1Ni1O5P1
_cod_original_cell_volume        343.9208
_cod_original_formula_sum        'Fe1 Ni1 O5 P1'
_cod_database_code               1525965
loop_
_symmetry_equiv_pos_as_xyz
x,y,z
-x+1/2,-y,z+1/2
x+1/2,-y+1/2,-z+1/2
-x,y+1/2,-z
-x,-y,-z
x-1/2,y,-z-1/2
-x-1/2,y-1/2,z-1/2
x,-y-1/2,z
loop_
_atom_site_label
_atom_site_type_symbol
_atom_site_fract_x
_atom_site_fract_y
_atom_site_fract_z
_atom_site_occupancy
_atom_site_U_iso_or_equiv
O4 O-2 0.3678 0.0566 0.2633 1 0.0
Fe1 Fe+3 0.1443 0.25 0.7074 1 0.0
Ni1 Ni+2 0 0 0 1 0.0
P1 P+5 0.3719 0.25 0.1424 1 0.0
O2 O-2 0.1942 0.25 0.0252 1 0.0
O3 O-2 0.0436 0.25 0.4729 1 0.0
O1 O-2 0.3988 0.25 0.6459 1 0.0
