#------------------------------------------------------------------------------
#$Date: 2016-02-13 21:28:24 +0200 (Sat, 13 Feb 2016) $
#$Revision: 176429 $
#$URL: svn://www.crystallography.net/cod/cif/1/52/54/1525476.cif $
#------------------------------------------------------------------------------
#
# This file is available in the Crystallography Open Database (COD),
# http://www.crystallography.net/
#
# All data on this site have been placed in the public domain by the
# contributors.
#
data_1525476
loop_
_publ_author_name
'Wunsch, K.M.'
'Wachtel, E.'
_publ_section_title
;
 Zur Umbildung der Gitterstruktur vom B2-Typ in den L21-Typ am Beispil von
 Co50 Mnx Ga50-x
;
_journal_name_full               'Journal of the Less-Common Metals'
_journal_page_first              13
_journal_page_last               21
_journal_volume                  66
_journal_year                    1979
_chemical_formula_sum            'Co Ga0.7 Mn0.3'
_chemical_name_systematic        'Co (Mn0.3 Ga0.7)'
_space_group_IT_number           221
_symmetry_space_group_name_Hall  '-P 4 2 3'
_symmetry_space_group_name_H-M   'P m -3 m'
_cell_angle_alpha                90
_cell_angle_beta                 90
_cell_angle_gamma                90
_cell_formula_units_Z            1
_cell_length_a                   2.8929
_cell_length_b                   2.8929
_cell_length_c                   2.8929
_cell_volume                     24.210
_citation_journal_id_ASTM        JCOMAH
_cod_data_source_file            Wunsch_JCOMAH_1979_1020.cif
_cod_data_source_block           Co1Ga0.7Mn0.3
_cod_original_cell_volume        24.2103
_cod_original_formula_sum        'Co1 Ga0.7 Mn0.3'
_cod_database_code               1525476
loop_
_symmetry_equiv_pos_as_xyz
x,y,z
-y,x,z
-x,-y,z
y,-x,z
x,-y,-z
y,x,-z
-x,y,-z
-y,-x,-z
z,x,y
-x,z,y
-z,-x,y
x,-z,y
z,-x,-y
x,z,-y
-z,x,-y
-x,-z,-y
y,z,x
y,-z,-x
z,y,-x
-y,z,-x
-z,-y,-x
-y,-z,x
z,-y,x
-z,y,x
-x,-y,-z
y,-x,-z
x,y,-z
-y,x,-z
-x,y,z
-y,-x,z
x,-y,z
y,x,z
-z,-x,-y
x,-z,-y
z,x,-y
-x,z,-y
-z,x,y
-x,-z,y
z,-x,y
x,z,y
-y,-z,-x
-y,z,x
-z,-y,x
y,-z,x
z,y,x
y,z,-x
-z,y,-x
z,-y,-x
loop_
_atom_site_label
_atom_site_type_symbol
_atom_site_fract_x
_atom_site_fract_y
_atom_site_fract_z
_atom_site_occupancy
_atom_site_U_iso_or_equiv
Co1 Co 0.5 0.5 0.5 1 0.0
Mn1 Mn 0 0 0 0.3 0.0
Ga1 Ga 0 0 0 0.7 0.0
