#------------------------------------------------------------------------------
#$Date: 2016-02-13 21:28:24 +0200 (Sat, 13 Feb 2016) $
#$Revision: 176429 $
#$URL: svn://www.crystallography.net/cod/cif/1/52/50/1525020.cif $
#------------------------------------------------------------------------------
#
# This file is available in the Crystallography Open Database (COD),
# http://www.crystallography.net/
#
# All data on this site have been placed in the public domain by the
# contributors.
#
data_1525020
loop_
_publ_author_name
'Oesterreicher, H.'
'Parker, F.T.'
'Misroch, M.'
_publ_section_title
;
 Giant intrinsic magnetic hardness in Sm Co5-x Cux
;
_journal_name_full               'Journal of Applied Physics'
_journal_page_first              4273
_journal_page_last               4278
_journal_volume                  50
_journal_year                    1979
_chemical_formula_sum            'Co2 Cu3 Sm'
_chemical_name_systematic        '(Co2 Cu3) Sm'
_space_group_IT_number           191
_symmetry_space_group_name_Hall  '-P 6 2'
_symmetry_space_group_name_H-M   'P 6/m m m'
_cell_angle_alpha                90
_cell_angle_beta                 90
_cell_angle_gamma                120
_cell_formula_units_Z            1
_cell_length_a                   5.024
_cell_length_b                   5.024
_cell_length_c                   4.034
_cell_volume                     88.179
_citation_journal_id_ASTM        JAPIAU
_cod_data_source_file            Oesterreicher_JAPIAU_1979_933.cif
_cod_data_source_block           Co2Cu3Sm1
_cod_original_cell_volume        88.17913
_cod_original_formula_sum        'Co2 Cu3 Sm1'
_cod_database_code               1525020
loop_
_symmetry_equiv_pos_as_xyz
x,y,z
x-y,x,z
-y,x-y,z
-x,-y,z
-x+y,-x,z
y,-x+y,z
-y,-x,-z
x-y,-y,-z
x,x-y,-z
y,x,-z
-x+y,y,-z
-x,-x+y,-z
-x,-y,-z
-x+y,-x,-z
y,-x+y,-z
x,y,-z
x-y,x,-z
-y,x-y,-z
y,x,z
-x+y,y,z
-x,-x+y,z
-y,-x,z
x-y,-y,z
x,x-y,z
loop_
_atom_site_label
_atom_site_type_symbol
_atom_site_fract_x
_atom_site_fract_y
_atom_site_fract_z
_atom_site_occupancy
_atom_site_U_iso_or_equiv
Cu1 Cu 0.3333 0.6667 0 0.6 0.0
Sm1 Sm 0 0 0 1 0.0
Co2 Co 0.5 0 0.5 0.4 0.0
Co1 Co 0.3333 0.6667 0 0.4 0.0
Cu2 Cu 0.5 0 0.5 0.6 0.0
