#------------------------------------------------------------------------------
#$Date: 2016-02-13 21:28:24 +0200 (Sat, 13 Feb 2016) $
#$Revision: 176429 $
#$URL: svn://www.crystallography.net/cod/cif/1/52/50/1525022.cif $
#------------------------------------------------------------------------------
#
# This file is available in the Crystallography Open Database (COD),
# http://www.crystallography.net/
#
# All data on this site have been placed in the public domain by the
# contributors.
#
data_1525022
loop_
_publ_author_name
'Ohashi, K.'
'Tawara, Y.'
'Osugi, R.'
'Shimao, M.'
_publ_section_title
;
 Magnetic properties of Fe-rich rare-earth intermetallic compounds with a
 Th Mn12 structure
;
_journal_name_full               'Journal of Applied Physics'
_journal_page_first              5714
_journal_page_last               5716
_journal_volume                  64
_journal_year                    1988
_chemical_formula_sum            'Cr2 Fe10 Sm'
_chemical_name_systematic        '(Cr2 Fe10) Sm'
_space_group_IT_number           139
_symmetry_space_group_name_Hall  '-I 4 2'
_symmetry_space_group_name_H-M   'I 4/m m m'
_cell_angle_alpha                90
_cell_angle_beta                 90
_cell_angle_gamma                90
_cell_formula_units_Z            2
_cell_length_a                   8.507
_cell_length_b                   8.507
_cell_length_c                   4.758
_cell_volume                     344.332
_citation_journal_id_ASTM        JAPIAU
_cod_data_source_file            Ohashi_JAPIAU_1988_1292.cif
_cod_data_source_block           Cr2Fe10Sm1
_cod_original_cell_volume        344.3319
_cod_original_formula_sum        'Cr2 Fe10 Sm1'
_cod_database_code               1525022
loop_
_symmetry_equiv_pos_as_xyz
x,y,z
-y,x,z
-x,-y,z
y,-x,z
x,-y,-z
y,x,-z
-x,y,-z
-y,-x,-z
-x,-y,-z
y,-x,-z
x,y,-z
-y,x,-z
-x,y,z
-y,-x,z
x,-y,z
y,x,z
x+1/2,y+1/2,z+1/2
-y+1/2,x+1/2,z+1/2
-x+1/2,-y+1/2,z+1/2
y+1/2,-x+1/2,z+1/2
x+1/2,-y+1/2,-z+1/2
y+1/2,x+1/2,-z+1/2
-x+1/2,y+1/2,-z+1/2
-y+1/2,-x+1/2,-z+1/2
-x+1/2,-y+1/2,-z+1/2
y+1/2,-x+1/2,-z+1/2
x+1/2,y+1/2,-z+1/2
-y+1/2,x+1/2,-z+1/2
-x+1/2,y+1/2,z+1/2
-y+1/2,-x+1/2,z+1/2
x+1/2,-y+1/2,z+1/2
y+1/2,x+1/2,z+1/2
loop_
_atom_site_label
_atom_site_type_symbol
_atom_site_fract_x
_atom_site_fract_y
_atom_site_fract_z
_atom_site_occupancy
_atom_site_U_iso_or_equiv
Fe3 Fe 0.277 0.5 0 0.833 0.0
Fe1 Fe 0.25 0.25 0.25 0.833 0.0
Cr2 Cr 0.364 0 0 0.167 0.0
Cr1 Cr 0.25 0.25 0.25 0.167 0.0
Fe2 Fe 0.364 0 0 0.833 0.0
Cr3 Cr 0.277 0.5 0 0.167 0.0
Sm1 Sm 0 0 0 1 0.0
