#------------------------------------------------------------------------------
#$Date: 2016-02-13 21:28:24 +0200 (Sat, 13 Feb 2016) $
#$Revision: 176429 $
#$URL: svn://www.crystallography.net/cod/cif/1/52/59/1525988.cif $
#------------------------------------------------------------------------------
#
# This file is available in the Crystallography Open Database (COD),
# http://www.crystallography.net/
#
# All data on this site have been placed in the public domain by the
# contributors.
#
data_1525988
loop_
_publ_author_name
'McGlothlin, N.'
'Ho, D.'
'Cava, R.J.'
_publ_section_title
;
 Sr3 Co2 O5 Cl2 and Sr2 Co O3 Cl: two layered cobalt oxychlorides
;
_journal_name_full               'Materials Research Bulletin'
_journal_page_first              1035
_journal_page_last               1043
_journal_volume                  35
_journal_year                    2000
_chemical_formula_sum            'Cl Co O3 Sr2'
_chemical_name_systematic        'Sr2 Co O3 Cl'
_space_group_IT_number           129
_symmetry_space_group_name_Hall  '-P 4a 2a'
_symmetry_space_group_name_H-M   'P 4/n m m :2'
_cell_angle_alpha                90
_cell_angle_beta                 90
_cell_angle_gamma                90
_cell_formula_units_Z            2
_cell_length_a                   3.875
_cell_length_b                   3.875
_cell_length_c                   14.188
_cell_volume                     213.042
_citation_journal_id_ASTM        MRBUAC
_cod_data_source_file            McGlothlin_MRBUAC_2000_283.cif
_cod_data_source_block           Cl1Co1O3Sr2
_cod_original_cell_volume        213.0417
_cod_original_formula_sum        'Cl1 Co1 O3 Sr2'
_cod_database_code               1525988
loop_
_symmetry_equiv_pos_as_xyz
x,y,z
-y+1/2,x,z
-x+1/2,-y+1/2,z
y,-x+1/2,z
x+1/2,-y,-z
y+1/2,x+1/2,-z
-x,y+1/2,-z
-y,-x,-z
-x,-y,-z
y-1/2,-x,-z
x-1/2,y-1/2,-z
-y,x-1/2,-z
-x-1/2,y,z
-y-1/2,-x-1/2,z
x,-y-1/2,z
y,x,z
loop_
_atom_site_label
_atom_site_type_symbol
_atom_site_fract_x
_atom_site_fract_y
_atom_site_fract_z
_atom_site_occupancy
_atom_site_U_iso_or_equiv
O1 O-2 0.25 0.75 0.2285 1 0.0
Cl1 Cl-1 0.25 0.25 0.42383 1 0.0
Co1 Co+3 0.25 0.25 0.20508 1 0.0
Sr1 Sr+2 0.75 0.75 0.09766 1 0.0
O2 O-2 0.25 0.25 0.0752 1 0.0
Sr2 Sr+2 0.75 0.75 0.34375 1 0.0
