#------------------------------------------------------------------------------
#$Date: 2016-02-13 21:28:24 +0200 (Sat, 13 Feb 2016) $
#$Revision: 176429 $
#$URL: svn://www.crystallography.net/cod/cif/1/52/54/1525495.cif $
#------------------------------------------------------------------------------
#
# This file is available in the Crystallography Open Database (COD),
# http://www.crystallography.net/
#
# All data on this site have been placed in the public domain by the
# contributors.
#
data_1525495
loop_
_publ_author_name
'Young, R.A.'
'Mackie, P.E.'
_publ_section_title
;
 Cristallography of human tooth enamel. Initial structure refinement
;
_journal_name_full               'Materials Research Bulletin'
_journal_page_first              17
_journal_page_last               29
_journal_volume                  15
_journal_year                    1980
_chemical_formula_sum            'Ca3.678 H4.63 O11.74 P2.298'
_chemical_name_systematic        'Ca3.678 (P O4)2.298 (O2.548 H4.63)'
_space_group_IT_number           176
_symmetry_space_group_name_Hall  '-P 6c'
_symmetry_space_group_name_H-M   'P 63/m'
_cell_angle_alpha                90
_cell_angle_beta                 90
_cell_angle_gamma                120
_cell_formula_units_Z            2
_cell_length_a                   9.441
_cell_length_b                   9.441
_cell_length_c                   6.877
_cell_volume                     530.842
_citation_journal_id_ASTM        MRBUAC
_cod_data_source_file            Young_MRBUAC_1980_498.cif
_cod_data_source_block           H4.63Ca3.678O11.74P2.298
_cod_original_cell_volume        530.8425
_cod_original_formula_sum        'H4.63 Ca3.678 O11.74 P2.298'
_cod_database_code               1525495
loop_
_symmetry_equiv_pos_as_xyz
x,y,z
x-y,x,z+1/2
-y,x-y,z
-x,-y,z+1/2
-x+y,-x,z
y,-x+y,z+1/2
-x,-y,-z
-x+y,-x,-z-1/2
y,-x+y,-z
x,y,-z-1/2
x-y,x,-z
-y,x-y,-z-1/2
loop_
_atom_site_label
_atom_site_type_symbol
_atom_site_fract_x
_atom_site_fract_y
_atom_site_fract_z
_atom_site_occupancy
_atom_site_U_iso_or_equiv
O1 O-2 0.317 0.474 0.25 0.588 0.0
Ca2 Ca+2 0.25 0.992 0.25 0.75 0.0
O2 O-2 0.595 0.465 0.25 0.75 0.0
O4 O-2 0 0 0.134 0.862 0.0
Ca1 Ca+2 0.3333 0.6667 0.007 0.714 0.0
P1 P+5 0.4 0.352 0.25 0.766 0.0
O3 O-2 0.354 0.271 0.048 1 0.0
