#------------------------------------------------------------------------------
#$Date: 2016-02-13 21:28:24 +0200 (Sat, 13 Feb 2016) $
#$Revision: 176429 $
#$URL: svn://www.crystallography.net/cod/cif/1/52/58/1525880.cif $
#------------------------------------------------------------------------------
#
# This file is available in the Crystallography Open Database (COD),
# http://www.crystallography.net/
#
# All data on this site have been placed in the public domain by the
# contributors.
#
data_1525880
loop_
_publ_author_name
'Demourgues, A.'
'Tressaud, A.'
'Laronze, H.'
'Macaudiere, P.'
_publ_section_title
;
 Rare earth fluorosulfides Ln S F and Ln2 A F4 S2 as new colour pigments
;
_journal_name_full               'Journal of Alloys Compd.'
_journal_page_first              223
_journal_page_last               230
_journal_volume                  323
_journal_year                    2001
_chemical_formula_sum            'F Gd S'
_chemical_name_systematic        'Gd S F'
_space_group_IT_number           129
_symmetry_space_group_name_Hall  '-P 4a 2a'
_symmetry_space_group_name_H-M   'P 4/n m m :2'
_cell_angle_alpha                90
_cell_angle_beta                 90
_cell_angle_gamma                90
_cell_formula_units_Z            2
_cell_length_a                   3.8297
_cell_length_b                   3.8297
_cell_length_c                   6.8529
_cell_volume                     100.509
_citation_journal_id_ASTM        JALCEU
_cod_data_source_file            Demourgues_JALCEU_2001_1304.cif
_cod_data_source_block           F1Gd1S1
_cod_original_cell_volume        100.5088
_cod_original_formula_sum        'F1 Gd1 S1'
_cod_database_code               1525880
loop_
_symmetry_equiv_pos_as_xyz
x,y,z
-y+1/2,x,z
-x+1/2,-y+1/2,z
y,-x+1/2,z
x+1/2,-y,-z
y+1/2,x+1/2,-z
-x,y+1/2,-z
-y,-x,-z
-x,-y,-z
y-1/2,-x,-z
x-1/2,y-1/2,-z
-y,x-1/2,-z
-x-1/2,y,z
-y-1/2,-x-1/2,z
x,-y-1/2,z
y,x,z
loop_
_atom_site_label
_atom_site_type_symbol
_atom_site_fract_x
_atom_site_fract_y
_atom_site_fract_z
_atom_site_occupancy
_atom_site_U_iso_or_equiv
S1 S-2 0.25 0.25 0.645 1 0.0
F1 F-1 0.75 0.25 0 1 0.0
Gd1 Gd+3 0.25 0.25 0.2295 1 0.0
