#------------------------------------------------------------------------------
#$Date: 2016-02-13 21:28:24 +0200 (Sat, 13 Feb 2016) $
#$Revision: 176429 $
#$URL: svn://www.crystallography.net/cod/cif/1/52/65/1526523.cif $
#------------------------------------------------------------------------------
#
# This file is available in the Crystallography Open Database (COD),
# http://www.crystallography.net/
#
# All data on this site have been placed in the public domain by the
# contributors.
#
data_1526523
loop_
_publ_author_name
'Schmidt, M.'
'Oppermann, H.'
'Hennig, C.'
'Gmelin, E.'
'Henn, R.W.'
'Binnewies, M.'
'Soeger, N.'
_publ_section_title
;
 Untersuchungen zu Bismutseltenerdoxidhalogeniden der Zusammensetzung Bi2
 SE O4 X (X=Cl,Br,I)
;
_journal_name_full
'Zeitschrift fuer Anorganische und Allgemeine Chemie'
_journal_page_first              125
_journal_page_last               135
_journal_volume                  626
_journal_year                    2000
_chemical_formula_sum            'Bi2 Br Ho O4'
_chemical_name_systematic        'Bi2 Ho O4 Br'
_space_group_IT_number           123
_symmetry_space_group_name_Hall  '-P 4 2'
_symmetry_space_group_name_H-M   'P 4/m m m'
_cell_angle_alpha                90
_cell_angle_beta                 90
_cell_angle_gamma                90
_cell_formula_units_Z            1
_cell_length_a                   3.8671
_cell_length_b                   3.8671
_cell_length_c                   9.146
_cell_volume                     136.774
_citation_journal_id_ASTM        ZAACAB
_cod_data_source_file            Schmidt_ZAACAB_2000_712.cif
_cod_data_source_block           Bi2Br1Ho1O4
_cod_original_cell_volume        136.7735
_cod_original_formula_sum        'Bi2 Br1 Ho1 O4'
_cod_database_code               1526523
loop_
_symmetry_equiv_pos_as_xyz
x,y,z
-y,x,z
-x,-y,z
y,-x,z
x,-y,-z
y,x,-z
-x,y,-z
-y,-x,-z
-x,-y,-z
y,-x,-z
x,y,-z
-y,x,-z
-x,y,z
-y,-x,z
x,-y,z
y,x,z
loop_
_atom_site_label
_atom_site_type_symbol
_atom_site_fract_x
_atom_site_fract_y
_atom_site_fract_z
_atom_site_occupancy
_atom_site_U_iso_or_equiv
Bi1 Bi+3 0.5 0.5 0.7284 1 0.0
O1 O-2 0.5 0 0.847 1 0.0
Ho1 Ho+3 0 0 0 1 0.0
Br1 Br-1 0 0 0.5 1 0.0
