#------------------------------------------------------------------------------
#$Date: 2016-02-13 21:28:24 +0200 (Sat, 13 Feb 2016) $
#$Revision: 176429 $
#$URL: svn://www.crystallography.net/cod/cif/1/52/63/1526350.cif $
#------------------------------------------------------------------------------
#
# This file is available in the Crystallography Open Database (COD),
# http://www.crystallography.net/
#
# All data on this site have been placed in the public domain by the
# contributors.
#
data_1526350
loop_
_publ_author_name
'Hong, Y.-S.'
'Han, C.-H.'
'Kim, K.'
_publ_section_title
;
 Structural characterization of new layered perovskites M La2 Ti2 Ta O10
 (M = Cs, Rb) and Na La2 Ti2 Ta O10 * x(H2 O) (x = 2, 0.9, 0)
;
_journal_name_full               'Journal of Solid State Chemistry'
_journal_page_first              290
_journal_page_last               298
_journal_volume                  158
_journal_year                    2001
_chemical_formula_sum            'H1.8 La2 Na O10.9 Ta Ti2'
_chemical_name_systematic        'Na La2 Ti2 Ta O10 (H2 O)0.9'
_space_group_IT_number           123
_symmetry_space_group_name_Hall  '-P 4 2'
_symmetry_space_group_name_H-M   'P 4/m m m'
_cell_angle_alpha                90
_cell_angle_beta                 90
_cell_angle_gamma                90
_cell_formula_units_Z            1
_cell_length_a                   3.8408
_cell_length_b                   3.8408
_cell_length_c                   15.51
_cell_volume                     228.800
_citation_journal_id_ASTM        JSSCBI
_cod_data_source_file            Hong_JSSCBI_2001_1550.cif
_cod_data_source_block           H1.8La2Na1O10.9Ta1Ti2
_cod_original_cell_volume        228.7996
_cod_original_formula_sum        'H1.8 La2 Na1 O10.9 Ta1 Ti2'
_cod_database_code               1526350
loop_
_symmetry_equiv_pos_as_xyz
x,y,z
-y,x,z
-x,-y,z
y,-x,z
x,-y,-z
y,x,-z
-x,y,-z
-y,-x,-z
-x,-y,-z
y,-x,-z
x,y,-z
-y,x,-z
-x,y,z
-y,-x,z
x,-y,z
y,x,z
loop_
_atom_site_label
_atom_site_type_symbol
_atom_site_fract_x
_atom_site_fract_y
_atom_site_fract_z
_atom_site_occupancy
_atom_site_U_iso_or_equiv
O1 O-2 0.09 0.5 0 0.5 0.0
O2 O-2 0 0 0.121 1 0.0
O5 O-2 0.5 0.5 0.5 0.9 0.0
Na1 Na+1 0.5 0 0.5 0.5 0.0
O3 O-2 0 0.5 0.254 1 0.0
La1 La+3 0.5 0.5 0.1449 1 0.0
O4 O-2 0 0 0.398 1 0.0
Ti2 Ti+4 0 0 0.282 0.5 0.0
Ta1 Ta+5 0 0 0.282 0.5 0.0
Ti1 Ti+4 0 0 0 1 0.0
