#------------------------------------------------------------------------------
#$Date: 2018-09-27 07:13:35 +0300 (Thu, 27 Sep 2018) $
#$Revision: 211196 $
#$URL: file:///home/coder/svn-repositories/cod/cif/1/52/62/1526228.cif $
#------------------------------------------------------------------------------
#
# This file is available in the Crystallography Open Database (COD),
# http://www.crystallography.net/
#
# All data on this site have been placed in the public domain by the
# contributors.
#
data_1526228
loop_
_publ_author_name
'Paul-Boncour, V.'
'Filipek, S.M.'
'Percheron-Guegan, A.'
'Marchuk, I.'
'Pielaszek, J.'
_publ_section_title
;
 Structural and magnetic properties of R Fe2 H5 hydrides (R = Y, Er)
;
_journal_name_full               'Journal of Alloys Compd.'
_journal_page_first              83
_journal_page_last               87
_journal_volume                  317
_journal_year                    2001
_chemical_formula_sum            'Er Fe2 H5'
_space_group_IT_number           44
_symmetry_space_group_name_Hall  'I 2 -2'
_symmetry_space_group_name_H-M   'I m m 2'
_cell_angle_alpha                90
_cell_angle_beta                 90
_cell_angle_gamma                90
_cell_formula_units_Z            4
_cell_length_a                   5.424
_cell_length_b                   5.793
_cell_length_c                   8.009
_cell_volume                     251.653
_citation_journal_id_ASTM        JALCEU
_cod_data_source_file            Paul-Boncour_JALCEU_2001_1227.cif
_cod_data_source_block           H5Er1Fe2
_cod_original_cell_volume        251.6526
_cod_original_formula_sum        'H5 Er1 Fe2'
_cod_database_code               1526228
loop_
_symmetry_equiv_pos_as_xyz
x,y,z
-x,-y,z
-x,y,z
x,-y,z
x+1/2,y+1/2,z+1/2
-x+1/2,-y+1/2,z+1/2
-x+1/2,y+1/2,z+1/2
x+1/2,-y+1/2,z+1/2
loop_
_atom_site_label
_atom_site_type_symbol
_atom_site_fract_x
_atom_site_fract_y
_atom_site_fract_z
_atom_site_occupancy
_atom_site_U_iso_or_equiv
H5 H 0.1875 0.3125 0.9375 0.25 0.0
H3 H 0 0.125 0.75 0.25 0.0
H4 H 0 0.375 0 0.25 0.0
Er1 Er 0 0 -0.012 1 0.0
H11 H 0 0.1875 0.59375 0.25 0.0
Fe2 Fe 0 0.235 0.368 1 0.0
H6 H 0.3125 0.3125 0.3125 0.25 0.0
H13 H 0 0 0.5 1 0.0
H12 H 0 0.3125 0.15625 0.25 0.0
H7 H 0.1875 0.3125 0.5625 0.25 0.0
Er2 Er 0 0.5 0.753 1 0.0
Fe1 Fe 0.241 0 0.628 1 0.0
H10 H 0.3125 0 0.84375 0.25 0.0
H2 H 0.375 0 0 0.25 0.0
H1 H 0.125 0 0.25 0.25 0.0
H8 H 0.1875 0.1875 0.1875 0.25 0.0
H14 H 0 0.5 0.25 1 0.0
H9 H 0.1875 0 0.4062 0.25 0.0
