#------------------------------------------------------------------------------
#$Date: 2016-02-13 21:28:24 +0200 (Sat, 13 Feb 2016) $
#$Revision: 176429 $
#$URL: svn://www.crystallography.net/cod/cif/1/52/69/1526932.cif $
#------------------------------------------------------------------------------
#
# This file is available in the Crystallography Open Database (COD),
# http://www.crystallography.net/
#
# All data on this site have been placed in the public domain by the
# contributors.
#
data_1526932
loop_
_publ_author_name
'Weller, M.T.'
'Skinner, S.J.'
_publ_section_title
;
 Neutron and X-ray powder diffraction studies of the oxynitrides Sr W (O,
 N)3, Ba3 W2 (O, N)8 and Ba3 Mo2 (O, N)8
;
_journal_name_full
'International Journal of Inorganic Materials'
_journal_page_first              463
_journal_page_last               467
_journal_volume                  2
_journal_year                    2000
_chemical_formula_sum            'N1.31 O1.69 Sr W'
_chemical_name_systematic        'Sr W O1.69 N1.31'
_space_group_IT_number           221
_symmetry_space_group_name_Hall  '-P 4 2 3'
_symmetry_space_group_name_H-M   'P m -3 m'
_cell_angle_alpha                90
_cell_angle_beta                 90
_cell_angle_gamma                90
_cell_formula_units_Z            1
_cell_length_a                   3.976
_cell_length_b                   3.976
_cell_length_c                   3.976
_cell_volume                     62.855
_citation_journal_id_ASTM        IJIMCR
_cod_data_source_file            Weller_IJIMCR_2000_854.cif
_cod_data_source_block           N1.31O1.69Sr1W1
_cod_original_cell_volume        62.8549
_cod_original_formula_sum        'N1.31 O1.69 Sr1 W1'
_cod_database_code               1526932
loop_
_symmetry_equiv_pos_as_xyz
x,y,z
-y,x,z
-x,-y,z
y,-x,z
x,-y,-z
y,x,-z
-x,y,-z
-y,-x,-z
z,x,y
-x,z,y
-z,-x,y
x,-z,y
z,-x,-y
x,z,-y
-z,x,-y
-x,-z,-y
y,z,x
y,-z,-x
z,y,-x
-y,z,-x
-z,-y,-x
-y,-z,x
z,-y,x
-z,y,x
-x,-y,-z
y,-x,-z
x,y,-z
-y,x,-z
-x,y,z
-y,-x,z
x,-y,z
y,x,z
-z,-x,-y
x,-z,-y
z,x,-y
-x,z,-y
-z,x,y
-x,-z,y
z,-x,y
x,z,y
-y,-z,-x
-y,z,x
-z,-y,x
y,-z,x
z,y,x
y,z,-x
-z,y,-x
z,-y,-x
loop_
_atom_site_label
_atom_site_type_symbol
_atom_site_fract_x
_atom_site_fract_y
_atom_site_fract_z
_atom_site_occupancy
_atom_site_U_iso_or_equiv
O1 O-2 0 0.5 0.5 0.563 0.0
Sr1 Sr+2 0 0 0 1 0.0
W1 W+5 0.5 0.5 0.5 1 0.0
N1 N-3 0 0.5 0.5 0.436 0.0
