#------------------------------------------------------------------------------
#$Date: 2015-07-12 19:00:31 +0300 (Sun, 12 Jul 2015) $
#$Revision: 147312 $
#$URL: svn://www.crystallography.net/cod/cif/1/52/61/1526182.cif $
#------------------------------------------------------------------------------
#
# This file is available in the Crystallography Open Database (COD),
# http://www.crystallography.net/
#
# All data on this site have been placed in the public domain by the
# contributors.
#
data_1526182
loop_
_publ_author_name
'Ok, K.M.'
'Bhuvanesh, N.S.P.'
'Halasyamani, P.S.'
_publ_section_title
;
 Sb Sbx M1-x O4 (M = Nb(V) or Ta(V)): solid solution behavior and
 second-harmonic generating properties
;
_journal_name_full               'Journal of Solid State Chemistry'
_journal_page_first              57
_journal_page_last               62
_journal_volume                  161
_journal_year                    2001
_chemical_formula_sum            'O4 Sb1.5 Ta0.5'
_chemical_name_systematic        'Sb (Sb0.5 Ta0.5) O4'
_space_group_IT_number           33
_symmetry_space_group_name_Hall  'P 2c -2n'
_symmetry_space_group_name_H-M   'P n a 21'
_cell_angle_alpha                90
_cell_angle_beta                 90
_cell_angle_gamma                90
_cell_formula_units_Z            4
_cell_length_a                   5.5019
_cell_length_b                   4.8762
_cell_length_c                   11.8038
_cell_volume                     316.677
_citation_journal_id_ASTM        JSSCBI
_cod_data_source_file            Ok_JSSCBI_2001_1709.cif
_cod_data_source_block           O4Sb1.5Ta0.5
_cod_original_cell_volume        316.6767
_cod_database_code               1526182
loop_
_symmetry_equiv_pos_as_xyz
x,y,z
-x,-y,z+1/2
-x+1/2,y+1/2,z+1/2
x+1/2,-y+1/2,z
loop_
_atom_site_label
_atom_site_type_symbol
_atom_site_fract_x
_atom_site_fract_y
_atom_site_fract_z
_atom_site_occupancy
_atom_site_U_iso_or_equiv
Ta1 Ta+5 0.1249 -0.005 0.862 0.5 0.0
Sb1 Sb+5 0.1249 -0.005 0.862 0.5 0.0
O4 O-2 0.424 0.185 0.812 1 0.0
O2 O-2 0.353 0.711 -0.084 1 0.0
O1 O-2 0.154 0.884 0.673 1 0.0
Sb2 Sb+3 0.479 0.045 0.112 1 0.0
O3 O-2 0.159 0.186 -0.002 1 0.0
