#------------------------------------------------------------------------------
#$Date: 2016-02-13 21:28:24 +0200 (Sat, 13 Feb 2016) $
#$Revision: 176429 $
#$URL: svn://www.crystallography.net/cod/cif/1/52/63/1526395.cif $
#------------------------------------------------------------------------------
#
# This file is available in the Crystallography Open Database (COD),
# http://www.crystallography.net/
#
# All data on this site have been placed in the public domain by the
# contributors.
#
data_1526395
loop_
_publ_author_name
'Romanenko, G.V.'
'Borisov, S.V.'
_publ_section_title
;
 Microtwinning in the crystal structure of kuznetsovite Hg3 As O4 Cl
;
_journal_name_full
'Zhurnal Strukturnoi Khimii (Issue-No. from 1981)'
_journal_page_first              1078
_journal_page_last               1079
_journal_volume                  41
_journal_year                    2000
_chemical_formula_sum            'As Cl Hg3 O4'
_chemical_name_systematic        'Hg3 (As O4) Cl'
_space_group_IT_number           198
_symmetry_space_group_name_Hall  'P 2ac 2ab 3'
_symmetry_space_group_name_H-M   'P 21 3'
_cell_angle_alpha                90
_cell_angle_beta                 90
_cell_angle_gamma                90
_cell_formula_units_Z            4
_cell_length_a                   8.379
_cell_length_b                   8.379
_cell_length_c                   8.379
_cell_volume                     588.270
_citation_journal_id_ASTM        ZSTKAI
_cod_data_source_file            Romanenko_ZSTKAI_2000_1015.cif
_cod_data_source_block           As1Cl1Hg3O4
_cod_original_cell_volume        588.2698
_cod_original_formula_sum        'As1 Cl1 Hg3 O4'
_cod_database_code               1526395
loop_
_symmetry_equiv_pos_as_xyz
x,y,z
-x+1/2,-y,z+1/2
x+1/2,-y+1/2,-z
-x,y+1/2,-z+1/2
z,x,y
-z+1/2,-x,y+1/2
z+1/2,-x+1/2,-y
-z,x+1/2,-y+1/2
y,z,x
y+1/2,-z+1/2,-x
-y,z+1/2,-x+1/2
-y+1/2,-z,x+1/2
loop_
_atom_site_label
_atom_site_type_symbol
_atom_site_fract_x
_atom_site_fract_y
_atom_site_fract_z
_atom_site_occupancy
_atom_site_U_iso_or_equiv
Hg1 Hg+2 0.3975 0.6418 0.4454 1 0.0
As1 As+3 0.984 0.984 0.984 1 0.0
O2 O-2 0.1045 0.1002 0.8769 1 0.0
Cl1 Cl-1 0.2396 0.2396 0.2396 1 0.0
O1 O-2 0.867 0.867 0.867 1 0.0
