#------------------------------------------------------------------------------
#$Date: 2015-07-12 19:43:45 +0300 (Sun, 12 Jul 2015) $
#$Revision: 147567 $
#$URL: svn://www.crystallography.net/cod/cif/1/52/63/1526392.cif $
#------------------------------------------------------------------------------
#
# This file is available in the Crystallography Open Database (COD),
# http://www.crystallography.net/
#
# All data on this site have been placed in the public domain by the
# contributors.
#
data_1526392
loop_
_publ_author_name
'Huang, F.Q.'
'Ibers, J.A.'
_publ_section_title
;
 Syntheses and structures of the quaternary copper tellurides K2 Ln4 Cu5
 Te10 (Ln = Sm, Gd, Er), Rb3 Ln4 Cu5 Te10 (Ln = Nd, Gd) and Cs3 Gd4 Cu5
 Te10
;
_journal_name_full               'Journal of Solid State Chemistry'
_journal_page_first              409
_journal_page_last               414
_journal_volume                  160
_journal_year                    2001
_chemical_formula_sum            'Cu5 Gd4 K3 Te10'
_chemical_name_systematic        'K3 Gd4 Cu5 Te10'
_space_group_IT_number           58
_symmetry_space_group_name_Hall  '-P 2 2n'
_symmetry_space_group_name_H-M   'P n n m'
_cell_angle_alpha                90
_cell_angle_beta                 90
_cell_angle_gamma                90
_cell_formula_units_Z            2
_cell_length_a                   16.552
_cell_length_b                   17.767
_cell_length_c                   4.3294
_cell_volume                     1273.187
_citation_journal_id_ASTM        JSSCBI
_cod_data_source_file            Huang_JSSCBI_2001_1644.cif
_cod_data_source_block           Cu5Gd4K3Te10
_cod_database_code               1526392
loop_
_symmetry_equiv_pos_as_xyz
x,y,z
-x,-y,z
x+1/2,-y+1/2,-z+1/2
-x+1/2,y+1/2,-z+1/2
-x,-y,-z
x,y,-z
-x-1/2,y-1/2,z-1/2
x-1/2,-y-1/2,z-1/2
loop_
_atom_site_label
_atom_site_type_symbol
_atom_site_fract_x
_atom_site_fract_y
_atom_site_fract_z
_atom_site_occupancy
_atom_site_U_iso_or_equiv
Te5 Te-2 0.33037 0.50561 0 1 0.0
Te4 Te-2 0.49735 0.31678 0 1 0.0
Gd2 Gd+3 0.2877 0.05255 0 1 0.0
Te1 Te-2 0.08458 0.60527 0 1 0.0
Gd1 Gd+3 0.06595 0.28459 0 1 0.0
K2 K+1 0 0 0 1 0.0
Cu1 Cu+1 0.3408 0.65469 0 1 0.0
Te2 Te-2 0.23107 0.21435 0 1 0.0
Cu2 Cu+1 0.06429 0.45975 0 1 0.0
Te3 Te-2 0.62996 0.10219 0 1 0.0
K1 K+1 0.8286 0.1628 0 1 0.0
Cu3 Cu+1 0.4066 0.1898 0 0.5 0.0
