#------------------------------------------------------------------------------
#$Date: 2016-02-13 21:28:24 +0200 (Sat, 13 Feb 2016) $
#$Revision: 176429 $
#$URL: svn://www.crystallography.net/cod/cif/1/52/64/1526437.cif $
#------------------------------------------------------------------------------
#
# This file is available in the Crystallography Open Database (COD),
# http://www.crystallography.net/
#
# All data on this site have been placed in the public domain by the
# contributors.
#
data_1526437
loop_
_publ_author_name
'Salamakha, P.S.'
'Bocelli, G.'
'Sologub, O.L.'
'Righi, L.'
_publ_section_title
;
 Single-crystal investigation of the neodymium rhodium germanides NdRh2
 Ge2, Nd2 Rh3 Ge5 and Nd Rh0.79 Ge0.54
;
_journal_name_full               'Journal of Alloys Compd.'
_journal_page_first              220
_journal_page_last               225
_journal_volume                  316
_journal_year                    2001
_chemical_formula_sum            'Ge0.54 Nd Rh0.79'
_chemical_name_systematic        'Nd Rh0.79 Ge0.54'
_space_group_IT_number           221
_symmetry_space_group_name_Hall  '-P 4 2 3'
_symmetry_space_group_name_H-M   'P m -3 m'
_cell_angle_alpha                90
_cell_angle_beta                 90
_cell_angle_gamma                90
_cell_formula_units_Z            1
_cell_length_a                   3.995
_cell_length_b                   3.995
_cell_length_c                   3.995
_cell_volume                     63.760
_citation_journal_id_ASTM        JALCEU
_cod_data_source_file            Salamakha_JALCEU_2001_1187.cif
_cod_data_source_block           Ge0.54Nd1Rh0.79
_cod_original_cell_volume        63.7603
_cod_original_formula_sum        'Ge0.54 Nd1 Rh0.79'
_cod_database_code               1526437
loop_
_symmetry_equiv_pos_as_xyz
x,y,z
-y,x,z
-x,-y,z
y,-x,z
x,-y,-z
y,x,-z
-x,y,-z
-y,-x,-z
z,x,y
-x,z,y
-z,-x,y
x,-z,y
z,-x,-y
x,z,-y
-z,x,-y
-x,-z,-y
y,z,x
y,-z,-x
z,y,-x
-y,z,-x
-z,-y,-x
-y,-z,x
z,-y,x
-z,y,x
-x,-y,-z
y,-x,-z
x,y,-z
-y,x,-z
-x,y,z
-y,-x,z
x,-y,z
y,x,z
-z,-x,-y
x,-z,-y
z,x,-y
-x,z,-y
-z,x,y
-x,-z,y
z,-x,y
x,z,y
-y,-z,-x
-y,z,x
-z,-y,x
y,-z,x
z,y,x
y,z,-x
-z,y,-x
z,-y,-x
loop_
_atom_site_label
_atom_site_type_symbol
_atom_site_fract_x
_atom_site_fract_y
_atom_site_fract_z
_atom_site_occupancy
_atom_site_U_iso_or_equiv
Ge1 Ge 0.5 0.5 0 0.18 0.0
Nd1 Nd 0 0 0 1 0.0
Rh1 Rh 0.5 0.5 0.5 0.79 0.0
