#------------------------------------------------------------------------------
#$Date: 2018-09-27 07:13:35 +0300 (Thu, 27 Sep 2018) $
#$Revision: 211196 $
#$URL: file:///home/coder/svn-repositories/cod/cif/1/52/62/1526221.cif $
#------------------------------------------------------------------------------
#
# This file is available in the Crystallography Open Database (COD),
# http://www.crystallography.net/
#
# All data on this site have been placed in the public domain by the
# contributors.
#
data_1526221
loop_
_publ_author_name
'Paschen, S.'
'Carrillo-Cabrera, W.'
'Bentien, A.'
'Tran, V.H.'
'Baenitz, M.'
'Grin', Yu.'
'Steglich, F.'
_publ_section_title
;
 Structural, transport, magnetic and thermal properties of Eu8 Ga16 Ge30
;
_journal_name_full
'Physical Review, Serie 3. B - Condensed Matter (18,1978-)'
_journal_page_first              2144041
_journal_page_last               21440411
_journal_volume                  64
_journal_year                    2001
_chemical_formula_sum            'Ba8 Ga16 Ge30'
_space_group_IT_number           223
_symmetry_space_group_name_Hall  '-P 4n 2 3'
_symmetry_space_group_name_H-M   'P m -3 n'
_cell_angle_alpha                90
_cell_angle_beta                 90
_cell_angle_gamma                90
_cell_formula_units_Z            1
_cell_length_a                   10.784
_cell_length_b                   10.784
_cell_length_c                   10.784
_cell_volume                     1254.122
_citation_journal_id_ASTM        PRBMDO
_cod_data_source_file            Paschen_PRBMDO_2001_1931.cif
_cod_data_source_block           Ba8Ga16Ge30
_cod_database_code               1526221
loop_
_symmetry_equiv_pos_as_xyz
x,y,z
-y+1/2,x+1/2,z+1/2
-x,-y,z
y+1/2,-x+1/2,z+1/2
x,-y,-z
y+1/2,x+1/2,-z+1/2
-x,y,-z
-y+1/2,-x+1/2,-z+1/2
z,x,y
-x+1/2,z+1/2,y+1/2
-z,-x,y
x+1/2,-z+1/2,y+1/2
z,-x,-y
x+1/2,z+1/2,-y+1/2
-z,x,-y
-x+1/2,-z+1/2,-y+1/2
y,z,x
y,-z,-x
z+1/2,y+1/2,-x+1/2
-y,z,-x
-z+1/2,-y+1/2,-x+1/2
-y,-z,x
z+1/2,-y+1/2,x+1/2
-z+1/2,y+1/2,x+1/2
-x,-y,-z
y-1/2,-x-1/2,-z-1/2
x,y,-z
-y-1/2,x-1/2,-z-1/2
-x,y,z
-y-1/2,-x-1/2,z-1/2
x,-y,z
y-1/2,x-1/2,z-1/2
-z,-x,-y
x-1/2,-z-1/2,-y-1/2
z,x,-y
-x-1/2,z-1/2,-y-1/2
-z,x,y
-x-1/2,-z-1/2,y-1/2
z,-x,y
x-1/2,z-1/2,y-1/2
-y,-z,-x
-y,z,x
-z-1/2,-y-1/2,x-1/2
y,-z,x
z-1/2,y-1/2,x-1/2
y,z,-x
-z-1/2,y-1/2,-x-1/2
z-1/2,-y-1/2,-x-1/2
loop_
_atom_site_label
_atom_site_type_symbol
_atom_site_fract_x
_atom_site_fract_y
_atom_site_fract_z
_atom_site_occupancy
_atom_site_U_iso_or_equiv
Ge1 Ge 0.25 0 0.5 0.652 0.0
Ga3 Ga 0 0.30843 0.11813 0.348 0.0
Ba1 Ba 0 0 0 1 0.0
Ba2 Ba 0.2441 0.5 -0.0413 0.25 0.0
Ga2 Ga 0.18452 0.18452 0.18452 0.348 0.0
Ge2 Ge 0.18452 0.18452 0.18452 0.652 0.0
Ge3 Ge 0 0.30843 0.11813 0.652 0.0
Ga1 Ga 0.25 0 0.5 0.348 0.0
