#------------------------------------------------------------------------------
#$Date: 2016-02-13 21:28:24 +0200 (Sat, 13 Feb 2016) $
#$Revision: 176429 $
#$URL: svn://www.crystallography.net/cod/cif/1/52/61/1526125.cif $
#------------------------------------------------------------------------------
#
# This file is available in the Crystallography Open Database (COD),
# http://www.crystallography.net/
#
# All data on this site have been placed in the public domain by the
# contributors.
#
data_1526125
loop_
_publ_author_name
'Gonon, M.F.'
'Cambier, F.'
'Descamps, J.C.'
'Thompson, D.P.'
_publ_section_title
;
 Crystal structure determination of Y2 Si Al O5 N "B-phase" by Rietveld
 analysis
;
_journal_name_full               'Materials Science Forum'
_journal_page_first              325
_journal_page_last               334
_journal_volume                  325
_journal_year                    2000
_chemical_formula_sum            'Al N O5 Si Y2'
_chemical_name_systematic        'Y2 (Al Si O5 N)'
_space_group_IT_number           176
_symmetry_space_group_name_Hall  '-P 6c'
_symmetry_space_group_name_H-M   'P 63/m'
_cell_angle_alpha                90
_cell_angle_beta                 90
_cell_angle_gamma                120
_cell_formula_units_Z            1
_cell_length_a                   3.8351
_cell_length_b                   3.8351
_cell_length_c                   9.7512
_cell_volume                     124.206
_citation_journal_id_ASTM        MSFOEP
_cod_data_source_file            Gonon_MSFOEP_2000_366.cif
_cod_data_source_block           Al1N1O5Si1Y2
_cod_original_cell_volume        124.2058
_cod_original_formula_sum        'Al1 N1 O5 Si1 Y2'
_cod_database_code               1526125
loop_
_symmetry_equiv_pos_as_xyz
x,y,z
x-y,x,z+1/2
-y,x-y,z
-x,-y,z+1/2
-x+y,-x,z
y,-x+y,z+1/2
-x,-y,-z
-x+y,-x,-z-1/2
y,-x+y,-z
x,y,-z-1/2
x-y,x,-z
-y,x-y,-z-1/2
loop_
_atom_site_label
_atom_site_type_symbol
_atom_site_fract_x
_atom_site_fract_y
_atom_site_fract_z
_atom_site_occupancy
_atom_site_U_iso_or_equiv
Si1 Si+4 0.404 0.59 0.25 0.167 0.0
Al1 Al+3 0.404 0.59 0.25 0.167 0.0
O2 O-2 0.771 0.626 0.25 0.167 0.0
O1 O-2 0.3333 0.6667 0.101 1 0.0
N1 N-3 0 0 0.25 0.5 0.0
Y1 Y+3 0 0 0 1 0.0
