#------------------------------------------------------------------------------
#$Date: 2016-02-13 21:28:24 +0200 (Sat, 13 Feb 2016) $
#$Revision: 176429 $
#$URL: svn://www.crystallography.net/cod/cif/1/52/60/1526042.cif $
#------------------------------------------------------------------------------
#
# This file is available in the Crystallography Open Database (COD),
# http://www.crystallography.net/
#
# All data on this site have been placed in the public domain by the
# contributors.
#
data_1526042
loop_
_publ_author_name
'Morozkin, A.V.'
'Kurbakov, A.I.'
'Klosek, V.'
'Welter, R.'
_publ_section_title
;
 Neutron diffraction study of Tb Ti0.85 Mo0.15 Ge compound
;
_journal_name_full               'Journal of Alloys Compd.'
_journal_page_first              100
_journal_page_last               103
_journal_volume                  315
_journal_year                    2001
_chemical_formula_sum            'Ge Mo0.15 Tb Ti0.85'
_chemical_name_systematic        'Tb (Ti0.85 Mo0.15) Ge'
_space_group_IT_number           139
_symmetry_space_group_name_Hall  '-I 4 2'
_symmetry_space_group_name_H-M   'I 4/m m m'
_cell_angle_alpha                90
_cell_angle_beta                 90
_cell_angle_gamma                90
_cell_formula_units_Z            4
_cell_length_a                   4.035
_cell_length_b                   4.035
_cell_length_c                   15.367
_cell_volume                     250.194
_citation_journal_id_ASTM        JALCEU
_cod_data_source_file            Morozkin_JALCEU_2001_1139.cif
_cod_data_source_block           Ge1Mo0.15Tb1Ti0.85
_cod_original_cell_volume        250.1936
_cod_original_formula_sum        'Ge1 Mo0.15 Tb1 Ti0.85'
_cod_database_code               1526042
loop_
_symmetry_equiv_pos_as_xyz
x,y,z
-y,x,z
-x,-y,z
y,-x,z
x,-y,-z
y,x,-z
-x,y,-z
-y,-x,-z
-x,-y,-z
y,-x,-z
x,y,-z
-y,x,-z
-x,y,z
-y,-x,z
x,-y,z
y,x,z
x+1/2,y+1/2,z+1/2
-y+1/2,x+1/2,z+1/2
-x+1/2,-y+1/2,z+1/2
y+1/2,-x+1/2,z+1/2
x+1/2,-y+1/2,-z+1/2
y+1/2,x+1/2,-z+1/2
-x+1/2,y+1/2,-z+1/2
-y+1/2,-x+1/2,-z+1/2
-x+1/2,-y+1/2,-z+1/2
y+1/2,-x+1/2,-z+1/2
x+1/2,y+1/2,-z+1/2
-y+1/2,x+1/2,-z+1/2
-x+1/2,y+1/2,z+1/2
-y+1/2,-x+1/2,z+1/2
x+1/2,-y+1/2,z+1/2
y+1/2,x+1/2,z+1/2
loop_
_atom_site_label
_atom_site_type_symbol
_atom_site_fract_x
_atom_site_fract_y
_atom_site_fract_z
_atom_site_occupancy
_atom_site_U_iso_or_equiv
Ge1 Ge 0 0 0.1224 1 0.0
Ti1 Ti 0 0.5 0 0.85 0.0
Tb1 Tb 0 0 0.3271 1 0.0
Mo1 Mo 0 0.5 0 0.15 0.0
