#------------------------------------------------------------------------------
#$Date: 2018-09-27 07:13:35 +0300 (Thu, 27 Sep 2018) $
#$Revision: 211196 $
#$URL: file:///home/coder/svn-repositories/cod/cif/1/52/67/1526727.cif $
#------------------------------------------------------------------------------
#
# This file is available in the Crystallography Open Database (COD),
# http://www.crystallography.net/
#
# All data on this site have been placed in the public domain by the
# contributors.
#
data_1526727
loop_
_publ_author_name
'Szytula, A.'
'Hofmann, M.'
'Leciejewicz, J.'
'Penc, B.'
'Zygmunt, A.'
_publ_section_title
;
 Magnetic properties and magnetic structures of R Ir Si (R = Tb-Er) series
 of compounds
;
_journal_name_full               'Journal of Alloys Compd.'
_journal_page_first              58
_journal_page_last               63
_journal_volume                  316
_journal_year                    2001
_chemical_formula_sum            'Er Ir Si'
_space_group_IT_number           62
_symmetry_space_group_name_Hall  '-P 2ac 2n'
_symmetry_space_group_name_H-M   'P n m a'
_cell_angle_alpha                90
_cell_angle_beta                 90
_cell_angle_gamma                90
_cell_formula_units_Z            4
_cell_length_a                   6.7348
_cell_length_b                   4.1594
_cell_length_c                   7.4444
_cell_volume                     208.538
_citation_journal_id_ASTM        JALCEU
_cod_data_source_file            Szytula_JALCEU_2001_1200.cif
_cod_data_source_block           Er1Ir1Si1
_cod_original_cell_volume        208.5379
_cod_original_formula_sum        'Er1 Ir1 Si1'
_cod_database_code               1526727
loop_
_symmetry_equiv_pos_as_xyz
x,y,z
-x+1/2,-y,z+1/2
x+1/2,-y+1/2,-z+1/2
-x,y+1/2,-z
-x,-y,-z
x-1/2,y,-z-1/2
-x-1/2,y-1/2,z-1/2
x,-y-1/2,z
loop_
_atom_site_label
_atom_site_type_symbol
_atom_site_fract_x
_atom_site_fract_y
_atom_site_fract_z
_atom_site_occupancy
_atom_site_U_iso_or_equiv
Si1 Si 0.255 0.25 0.3733 1 0.0
Ir1 Ir 0.155 0.25 0.0709 1 0.0
Er1 Er 0.0099 0.25 0.6884 1 0.0
