#------------------------------------------------------------------------------
#$Date: 2016-02-13 21:28:24 +0200 (Sat, 13 Feb 2016) $
#$Revision: 176429 $
#$URL: svn://www.crystallography.net/cod/cif/1/52/61/1526157.cif $
#------------------------------------------------------------------------------
#
# This file is available in the Crystallography Open Database (COD),
# http://www.crystallography.net/
#
# All data on this site have been placed in the public domain by the
# contributors.
#
data_1526157
loop_
_publ_author_name
'Ohoyama, K.'
'Kaneko, K.'
'Indoh, K.'
'Yamauchi, H.'
'Onodera, H.'
'Tobo, A.'
'Yamaguchi, Y.'
_publ_section_title
;
 Systematic study on crystal structures in tetragonal R B2 C2 (R = rare
 earth) compounds
;
_journal_name_full               'Journal of the Physical Society of Japan'
_journal_page_first              3291
_journal_page_last               3295
_journal_volume                  70
_journal_year                    2001
_chemical_formula_sum            'C2 B2 La'
_chemical_name_systematic        'La B2 C2'
_space_group_IT_number           127
_symmetry_space_group_name_Hall  '-P 4 2ab'
_symmetry_space_group_name_H-M   'P 4/m b m'
_cell_angle_alpha                90
_cell_angle_beta                 90
_cell_angle_gamma                90
_cell_formula_units_Z            2
_cell_length_a                   5.402
_cell_length_b                   5.402
_cell_length_c                   3.9587
_cell_volume                     115.521
_citation_journal_id_ASTM        JUPSAU
_cod_data_source_file            Ohoyama_JUPSAU_2001_1811.cif
_cod_data_source_block           C2B2La1
_cod_original_cell_volume        115.5212
_cod_original_formula_sum        'C2 B2 La1'
_cod_database_code               1526157
loop_
_symmetry_equiv_pos_as_xyz
x,y,z
-y,x,z
-x,-y,z
y,-x,z
x+1/2,-y+1/2,-z
y+1/2,x+1/2,-z
-x+1/2,y+1/2,-z
-y+1/2,-x+1/2,-z
-x,-y,-z
y,-x,-z
x,y,-z
-y,x,-z
-x-1/2,y-1/2,z
-y-1/2,-x-1/2,z
x-1/2,-y-1/2,z
y-1/2,x-1/2,z
loop_
_atom_site_label
_atom_site_type_symbol
_atom_site_fract_x
_atom_site_fract_y
_atom_site_fract_z
_atom_site_occupancy
_atom_site_U_iso_or_equiv
La1 La 0 0 0 1 0.0
B1 B 0.3613 0.8613 0.5 1 0.0
C1 C 0.1601 0.6601 0.5 1 0.0
