#------------------------------------------------------------------------------
#$Date: 2016-02-13 21:28:24 +0200 (Sat, 13 Feb 2016) $
#$Revision: 176429 $
#$URL: svn://www.crystallography.net/cod/cif/1/52/68/1526885.cif $
#------------------------------------------------------------------------------
#
# This file is available in the Crystallography Open Database (COD),
# http://www.crystallography.net/
#
# All data on this site have been placed in the public domain by the
# contributors.
#
data_1526885
loop_
_publ_author_name
'Venturini, G.'
'Malaman, B.'
'Verniere, A.'
_publ_section_title
;
 Multi spin-reorientation process in Hf Fe6 Ge6 - type Ho Mn6 Ge6-x Gax
 compounds (x = 0.2, 0.4, 1.0)
;
_journal_name_full               'Journal of Alloys Compd.'
_journal_page_first              46
_journal_page_last               57
_journal_volume                  320
_journal_year                    2001
_chemical_formula_sum            'Ga0.2 Ge5.8 Ho Mn6'
_chemical_name_systematic        'Ho Mn6 Ge4 (Ge1.8 Ga0.2)'
_space_group_IT_number           191
_symmetry_space_group_name_Hall  '-P 6 2'
_symmetry_space_group_name_H-M   'P 6/m m m'
_cell_angle_alpha                90
_cell_angle_beta                 90
_cell_angle_gamma                120
_cell_formula_units_Z            1
_cell_length_a                   5.2077
_cell_length_b                   5.2077
_cell_length_c                   8.1423
_cell_volume                     191.236
_citation_journal_id_ASTM        JALCEU
_cod_data_source_file            Venturini_JALCEU_2001_1262.cif
_cod_data_source_block           Ga0.2Ge5.8Ho1Mn6
_cod_original_formula_sum        'Ga0.2 Ge5.8 Ho1 Mn6'
_cod_database_code               1526885
loop_
_symmetry_equiv_pos_as_xyz
x,y,z
x-y,x,z
-y,x-y,z
-x,-y,z
-x+y,-x,z
y,-x+y,z
-y,-x,-z
x-y,-y,-z
x,x-y,-z
y,x,-z
-x+y,y,-z
-x,-x+y,-z
-x,-y,-z
-x+y,-x,-z
y,-x+y,-z
x,y,-z
x-y,x,-z
-y,x-y,-z
y,x,z
-x+y,y,z
-x,-x+y,z
-y,-x,z
x-y,-y,z
x,x-y,z
loop_
_atom_site_label
_atom_site_type_symbol
_atom_site_fract_x
_atom_site_fract_y
_atom_site_fract_z
_atom_site_occupancy
_atom_site_U_iso_or_equiv
Ge2 Ge 0.3333 0.6667 0.5 1 0.0
Ho1 Ho 0 0 0 1 0.0
Ge1 Ge 0.3333 0.6667 0 1 0.0
Ga1 Ga 0 0 0.3435 0.1 0.0
Mn1 Mn 0 0.5 0.2501 1 0.0
Ge3 Ge 0 0 0.3435 0.9 0.0
