#------------------------------------------------------------------------------
#$Date: 2015-07-12 19:44:39 +0300 (Sun, 12 Jul 2015) $
#$Revision: 147573 $
#$URL: svn://www.crystallography.net/cod/cif/1/52/63/1526396.cif $
#------------------------------------------------------------------------------
#
# This file is available in the Crystallography Open Database (COD),
# http://www.crystallography.net/
#
# All data on this site have been placed in the public domain by the
# contributors.
#
data_1526396
loop_
_publ_author_name
'Huang, F.Q.'
'Ibers, J.A.'
_publ_section_title
;
 Syntheses and structures of the quaternary copper tellurides K2 Ln4 Cu5
 Te10 (Ln = Sm, Gd, Er), Rb3 Ln4 Cu5 Te10 (Ln = Nd, Gd) and Cs3 Gd4 Cu5
 Te10
;
_journal_name_full               'Journal of Solid State Chemistry'
_journal_page_first              409
_journal_page_last               414
_journal_volume                  160
_journal_year                    2001
_chemical_formula_sum            'Cu5 Gd4 Rb3 Te10'
_chemical_name_systematic        'Rb3 Gd4 Cu5 Te10'
_space_group_IT_number           58
_symmetry_space_group_name_Hall  '-P 2 2n'
_symmetry_space_group_name_H-M   'P n n m'
_cell_angle_alpha                90
_cell_angle_beta                 90
_cell_angle_gamma                90
_cell_formula_units_Z            2
_cell_length_a                   17.201
_cell_length_b                   17.586
_cell_length_c                   4.3429
_cell_volume                     1313.713
_citation_journal_id_ASTM        JSSCBI
_cod_data_source_file            Huang_JSSCBI_2001_1648.cif
_cod_data_source_block           Cu5Gd4Rb3Te10
_cod_database_code               1526396
loop_
_symmetry_equiv_pos_as_xyz
x,y,z
-x,-y,z
x+1/2,-y+1/2,-z+1/2
-x+1/2,y+1/2,-z+1/2
-x,-y,-z
x,y,-z
-x-1/2,y-1/2,z-1/2
x-1/2,-y-1/2,z-1/2
loop_
_atom_site_label
_atom_site_type_symbol
_atom_site_fract_x
_atom_site_fract_y
_atom_site_fract_z
_atom_site_occupancy
_atom_site_U_iso_or_equiv
Rb1 Rb+1 0.8303 0.17035 0 1 0.0
Gd1 Gd+3 0.0631 0.28023 0 1 0.0
Cu1 Cu+1 0.345 0.65003 0 1 0.0
Te4 Te-2 0.50245 0.32248 0 1 0.0
Te5 Te-2 0.32097 0.50121 0 1 0.0
Te1 Te-2 0.0874 0.60934 0 1 0.0
Te2 Te-2 0.22157 0.21289 0 1 0.0
Gd2 Gd+3 0.28804 0.05573 0 1 0.0
Cu3 Cu+1 0.4764 0.053 0 0.5 0.0
Rb2 Rb+1 0 0 0 1 0.0
Cu2 Cu+1 0.06165 0.46066 0 1 0.0
Te3 Te-2 0.6248 0.10149 0 1 0.0
