#------------------------------------------------------------------------------
#$Date: 2016-02-13 21:28:24 +0200 (Sat, 13 Feb 2016) $
#$Revision: 176429 $
#$URL: svn://www.crystallography.net/cod/cif/1/52/60/1526083.cif $
#------------------------------------------------------------------------------
#
# This file is available in the Crystallography Open Database (COD),
# http://www.crystallography.net/
#
# All data on this site have been placed in the public domain by the
# contributors.
#
data_1526083
loop_
_publ_author_name
'Gil, A.'
'Zygmunt, A.'
'Penc, B.'
'Hofmann, M.'
'Szytula, A.'
_publ_section_title
;
 Magnetic properties and magnetic structures of R Pt Ge2 and R Ir Ge2 (R =
 Gd - Er) compounds
;
_journal_name_full               'Journal of Alloys Compd.'
_journal_page_first              21
_journal_page_last               36
_journal_volume                  322
_journal_year                    2001
_chemical_formula_sum            'Dy Ge2 Pt'
_chemical_name_systematic        'Dy Pt Ge2'
_space_group_IT_number           71
_symmetry_space_group_name_Hall  '-I 2 2'
_symmetry_space_group_name_H-M   'I m m m'
_cell_angle_alpha                90
_cell_angle_beta                 90
_cell_angle_gamma                90
_cell_formula_units_Z            8
_cell_length_a                   4.315
_cell_length_b                   16.293
_cell_length_c                   8.71
_cell_volume                     612.350
_citation_journal_id_ASTM        JALCEU
_cod_data_source_file            Gil_JALCEU_2001_1286.cif
_cod_data_source_block           Dy1Ge2Pt1
_cod_original_cell_volume        612.3504
_cod_original_formula_sum        'Dy1 Ge2 Pt1'
_cod_database_code               1526083
loop_
_symmetry_equiv_pos_as_xyz
x,y,z
-x,-y,z
x,-y,-z
-x,y,-z
-x,-y,-z
x,y,-z
-x,y,z
x,-y,z
x+1/2,y+1/2,z+1/2
-x+1/2,-y+1/2,z+1/2
x+1/2,-y+1/2,-z+1/2
-x+1/2,y+1/2,-z+1/2
-x+1/2,-y+1/2,-z+1/2
x+1/2,y+1/2,-z+1/2
-x+1/2,y+1/2,z+1/2
x+1/2,-y+1/2,z+1/2
loop_
_atom_site_label
_atom_site_type_symbol
_atom_site_fract_x
_atom_site_fract_y
_atom_site_fract_z
_atom_site_occupancy
_atom_site_U_iso_or_equiv
Ge2 Ge 0.5 0.0716 0.5 1 0.0
Ge1 Ge 0.5 0.0552 0 1 0.0
Pt1 Pt 0.5 0.1305 0.2613 1 0.0
Dy1 Dy 0 0 0.2388 1 0.0
Ge3 Ge 0.5 0.3083 0.3335 1 0.0
Dy2 Dy 0 0.2108 0.5 1 0.0
