#------------------------------------------------------------------------------
#$Date: 2016-02-13 21:28:24 +0200 (Sat, 13 Feb 2016) $
#$Revision: 176429 $
#$URL: svn://www.crystallography.net/cod/cif/1/52/68/1526884.cif $
#------------------------------------------------------------------------------
#
# This file is available in the Crystallography Open Database (COD),
# http://www.crystallography.net/
#
# All data on this site have been placed in the public domain by the
# contributors.
#
data_1526884
loop_
_publ_author_name
'Venturini, G.'
'Verniere, A.'
'Malaman, B.'
_publ_section_title
;
 Neutron diffraction study of Hf Fe6 Ge6 - type Tm Mn6 Ge6-x Gax compounds
 (x = 0.2, 0.4, 0.6, 0.8 and 1.0)
;
_journal_name_full               'Journal of Alloys Compd.'
_journal_page_first              50
_journal_page_last               61
_journal_volume                  319
_journal_year                    2001
_chemical_formula_sum            'Ga Ge5 Mn6 Tm'
_chemical_name_systematic        'Tm Mn6 (Ge5 Ga)'
_space_group_IT_number           191
_symmetry_space_group_name_Hall  '-P 6 2'
_symmetry_space_group_name_H-M   'P 6/m m m'
_cell_angle_alpha                90
_cell_angle_beta                 90
_cell_angle_gamma                120
_cell_formula_units_Z            1
_cell_length_a                   5.1836
_cell_length_b                   5.1836
_cell_length_c                   8.1567
_cell_volume                     189.805
_citation_journal_id_ASTM        JALCEU
_cod_data_source_file            Venturini_JALCEU_2001_1253.cif
_cod_data_source_block           Ga1Ge5Mn6Tm1
_cod_original_cell_volume        189.8052
_cod_original_formula_sum        'Ga1 Ge5 Mn6 Tm1'
_cod_database_code               1526884
loop_
_symmetry_equiv_pos_as_xyz
x,y,z
x-y,x,z
-y,x-y,z
-x,-y,z
-x+y,-x,z
y,-x+y,z
-y,-x,-z
x-y,-y,-z
x,x-y,-z
y,x,-z
-x+y,y,-z
-x,-x+y,-z
-x,-y,-z
-x+y,-x,-z
y,-x+y,-z
x,y,-z
x-y,x,-z
-y,x-y,-z
y,x,z
-x+y,y,z
-x,-x+y,z
-y,-x,z
x-y,-y,z
x,x-y,z
loop_
_atom_site_label
_atom_site_type_symbol
_atom_site_fract_x
_atom_site_fract_y
_atom_site_fract_z
_atom_site_occupancy
_atom_site_U_iso_or_equiv
Ge1 Ge 0.3333 0.6667 0 0.99 0.0
Ge3 Ge 0 0 0.34 0.52 0.0
Ga1 Ga 0.3333 0.6667 0 0.01 0.0
Ge2 Ge 0.3333 0.6667 0.5 0.99 0.0
Mn1 Mn 0 0.5 0.248 1 0.0
Ga3 Ga 0 0 0.34 0.48 0.0
Tm1 Tm 0 0 0 1 0.0
Ga2 Ga 0.3333 0.6667 0.5 0.01 0.0
