#------------------------------------------------------------------------------
#$Date: 2015-07-12 18:52:14 +0300 (Sun, 12 Jul 2015) $
#$Revision: 147263 $
#$URL: svn://www.crystallography.net/cod/cif/1/52/61/1526145.cif $
#------------------------------------------------------------------------------
#
# This file is available in the Crystallography Open Database (COD),
# http://www.crystallography.net/
#
# All data on this site have been placed in the public domain by the
# contributors.
#
data_1526145
loop_
_publ_author_name
'Noetzold, D.'
'Wulff, H.'
_publ_section_title
;
 Structural and optical properties of the system Sr5 (P O4)3 (Br, F):
 Eu(2+)
;
_journal_name_full
'Physica Status Solidi, Sectio A: Applied Research'
_journal_page_first              281
_journal_page_last               291
_journal_volume                  177
_journal_year                    2000
_chemical_formula_sum            'Br0.25 Eu0.01 F0.75 O12 P3 Sr4.99'
_chemical_name_systematic        'Sr2 (Sr2.99 Eu0.01) (P O4)3 Br0.25 F0.75'
_space_group_IT_number           176
_symmetry_space_group_name_Hall  '-P 6c'
_symmetry_space_group_name_H-M   'P 63/m'
_cell_angle_alpha                90
_cell_angle_beta                 90
_cell_angle_gamma                120
_cell_formula_units_Z            2
_cell_length_a                   9.7186
_cell_length_b                   9.7186
_cell_length_c                   7.2853
_cell_volume                     595.917
_citation_journal_id_ASTM        PSSABA
_cod_data_source_file            Noetzold_PSSABA_2000_524.cif
_cod_data_source_block           Br0.25Eu0.01F0.75O12P3Sr4.99
_cod_original_cell_volume        595.9166
_cod_database_code               1526145
loop_
_symmetry_equiv_pos_as_xyz
x,y,z
x-y,x,z+1/2
-y,x-y,z
-x,-y,z+1/2
-x+y,-x,z
y,-x+y,z+1/2
-x,-y,-z
-x+y,-x,-z-1/2
y,-x+y,-z
x,y,-z-1/2
x-y,x,-z
-y,x-y,-z-1/2
loop_
_atom_site_label
_atom_site_type_symbol
_atom_site_fract_x
_atom_site_fract_y
_atom_site_fract_z
_atom_site_occupancy
_atom_site_U_iso_or_equiv
Eu1 Eu+3 0.0119 0.2526 0.25 0.003 0.0
P1 P+5 0.3791 0.3528 0.25 1 0.0
Sr2 Sr+2 0.0119 0.2526 0.25 0.997 0.0
F1 F-1 0 0 0.25 0.75 0.0
O2 O-2 0.571 0.4659 0.25 1 0.0
O1 O-2 0.3177 0.4671 0.25 1 0.0
Br1 Br-1 0 0 0.5 0.25 0.0
Sr1 Sr+2 0.3333 0.6667 -0.0081 1 0.0
O3 O-2 0.3024 0.2285 0.0837 1 0.0
