#------------------------------------------------------------------------------
#$Date: 2018-09-27 07:13:35 +0300 (Thu, 27 Sep 2018) $
#$Revision: 211196 $
#$URL: file:///home/coder/svn-repositories/cod/cif/1/52/77/1527725.cif $
#------------------------------------------------------------------------------
#
# This file is available in the Crystallography Open Database (COD),
# http://www.crystallography.net/
#
# All data on this site have been placed in the public domain by the
# contributors.
#
data_1527725
loop_
_publ_author_name
'Lejay, P.'
'Muller, J.'
'Argoud, R.'
_publ_section_title
;
 Crystal growth and stoichiometry study of the ternary silicides Ce Ru2
 Si2 and Ce1-x Lax Ru2 Si2
;
_journal_name_full               'Journal of Crystal Growth'
_journal_page_first              238
_journal_page_last               244
_journal_volume                  130
_journal_year                    1993
_chemical_formula_sum            'Ce Ru2 Si2'
_space_group_IT_number           139
_symmetry_space_group_name_Hall  '-I 4 2'
_symmetry_space_group_name_H-M   'I 4/m m m'
_cell_angle_alpha                90
_cell_angle_beta                 90
_cell_angle_gamma                90
_cell_formula_units_Z            2
_cell_length_a                   4.185
_cell_length_b                   4.185
_cell_length_c                   9.794
_cell_volume                     171.534
_citation_journal_id_ASTM        JCRGAE
_cod_data_source_file            Lejay_JCRGAE_1993_315.cif
_cod_data_source_block           Ce1Ru2Si2
_cod_original_cell_volume        171.5343
_cod_original_formula_sum        'Ce1 Ru2 Si2'
_cod_database_code               1527725
loop_
_symmetry_equiv_pos_as_xyz
x,y,z
-y,x,z
-x,-y,z
y,-x,z
x,-y,-z
y,x,-z
-x,y,-z
-y,-x,-z
-x,-y,-z
y,-x,-z
x,y,-z
-y,x,-z
-x,y,z
-y,-x,z
x,-y,z
y,x,z
x+1/2,y+1/2,z+1/2
-y+1/2,x+1/2,z+1/2
-x+1/2,-y+1/2,z+1/2
y+1/2,-x+1/2,z+1/2
x+1/2,-y+1/2,-z+1/2
y+1/2,x+1/2,-z+1/2
-x+1/2,y+1/2,-z+1/2
-y+1/2,-x+1/2,-z+1/2
-x+1/2,-y+1/2,-z+1/2
y+1/2,-x+1/2,-z+1/2
x+1/2,y+1/2,-z+1/2
-y+1/2,x+1/2,-z+1/2
-x+1/2,y+1/2,z+1/2
-y+1/2,-x+1/2,z+1/2
x+1/2,-y+1/2,z+1/2
y+1/2,x+1/2,z+1/2
loop_
_atom_site_label
_atom_site_type_symbol
_atom_site_fract_x
_atom_site_fract_y
_atom_site_fract_z
_atom_site_occupancy
_atom_site_U_iso_or_equiv
Ru1 Ru 0 0.5 0.25 0.998 0.0
Si1 Si 0 0 0.3684 0.99 0.0
Ce1 Ce 0 0 0 1 0.0
