#------------------------------------------------------------------------------
#$Date: 2016-02-13 21:28:24 +0200 (Sat, 13 Feb 2016) $
#$Revision: 176429 $
#$URL: svn://www.crystallography.net/cod/cif/1/52/79/1527969.cif $
#------------------------------------------------------------------------------
#
# This file is available in the Crystallography Open Database (COD),
# http://www.crystallography.net/
#
# All data on this site have been placed in the public domain by the
# contributors.
#
data_1527969
loop_
_publ_author_name
'Rahman, S.'
'Shah, N.'
'Mihalisin, T.'
'Crow, J.E.'
'Schlottmann, P.'
_publ_section_title
;
 Evidence of mixed valence behavior in the Ce (Tl1-x Snx)3 system
;
_journal_name_full               'Materials Research Bulletin'
_journal_page_first              415
_journal_page_last               420
_journal_volume                  26
_journal_year                    1991
_chemical_formula_sum            'Ce Sn1.5 Tl1.5'
_chemical_name_systematic        'Ce (Sn0.5 Tl0.5)3'
_space_group_IT_number           221
_symmetry_space_group_name_Hall  '-P 4 2 3'
_symmetry_space_group_name_H-M   'P m -3 m'
_cell_angle_alpha                90
_cell_angle_beta                 90
_cell_angle_gamma                90
_cell_formula_units_Z            1
_cell_length_a                   4.754
_cell_length_b                   4.754
_cell_length_c                   4.754
_cell_volume                     107.443
_citation_journal_id_ASTM        MRBUAC
_cod_data_source_file            Rahman_MRBUAC_1991_328.cif
_cod_data_source_block           Ce1Sn1.5Tl1.5
_cod_original_cell_volume        107.4429
_cod_original_formula_sum        'Ce1 Sn1.5 Tl1.5'
_cod_database_code               1527969
loop_
_symmetry_equiv_pos_as_xyz
x,y,z
-y,x,z
-x,-y,z
y,-x,z
x,-y,-z
y,x,-z
-x,y,-z
-y,-x,-z
z,x,y
-x,z,y
-z,-x,y
x,-z,y
z,-x,-y
x,z,-y
-z,x,-y
-x,-z,-y
y,z,x
y,-z,-x
z,y,-x
-y,z,-x
-z,-y,-x
-y,-z,x
z,-y,x
-z,y,x
-x,-y,-z
y,-x,-z
x,y,-z
-y,x,-z
-x,y,z
-y,-x,z
x,-y,z
y,x,z
-z,-x,-y
x,-z,-y
z,x,-y
-x,z,-y
-z,x,y
-x,-z,y
z,-x,y
x,z,y
-y,-z,-x
-y,z,x
-z,-y,x
y,-z,x
z,y,x
y,z,-x
-z,y,-x
z,-y,-x
loop_
_atom_site_label
_atom_site_type_symbol
_atom_site_fract_x
_atom_site_fract_y
_atom_site_fract_z
_atom_site_occupancy
_atom_site_U_iso_or_equiv
Sn1 Sn 0 0.5 0.5 0.5 0.0
Ce1 Ce 0 0 0 1 0.0
Tl1 Tl 0 0.5 0.5 0.5 0.0
