#------------------------------------------------------------------------------
#$Date: 2016-02-13 21:28:24 +0200 (Sat, 13 Feb 2016) $
#$Revision: 176429 $
#$URL: svn://www.crystallography.net/cod/cif/1/52/73/1527372.cif $
#------------------------------------------------------------------------------
#
# This file is available in the Crystallography Open Database (COD),
# http://www.crystallography.net/
#
# All data on this site have been placed in the public domain by the
# contributors.
#
data_1527372
loop_
_publ_author_name
'Fleischer, R.L.'
_publ_section_title
;
 Substitutional solutes in Al Ru. I. Effects of solute on moduli, lattice
 parameters and vacancy production
;
_journal_name_full               'Acta Metallurgica'
_journal_page_first              863
_journal_page_last               869
_journal_volume                  41
_journal_year                    1993
_chemical_formula_sum            'Al0.9 Ru Ti0.1'
_chemical_name_systematic        '(Al0.9 Ti0.1) Ru'
_space_group_IT_number           221
_symmetry_space_group_name_Hall  '-P 4 2 3'
_symmetry_space_group_name_H-M   'P m -3 m'
_cell_angle_alpha                90
_cell_angle_beta                 90
_cell_angle_gamma                90
_cell_formula_units_Z            1
_cell_length_a                   2.998
_cell_length_b                   2.998
_cell_length_c                   2.998
_cell_volume                     26.946
_citation_journal_id_ASTM        AMETAR
_cod_data_source_file            Fleischer_AMETAR_1993_186.cif
_cod_data_source_block           Al0.9Ru1Ti0.1
_cod_original_cell_volume        26.94603
_cod_original_formula_sum        'Al0.9 Ru1 Ti0.1'
_cod_database_code               1527372
loop_
_symmetry_equiv_pos_as_xyz
x,y,z
-y,x,z
-x,-y,z
y,-x,z
x,-y,-z
y,x,-z
-x,y,-z
-y,-x,-z
z,x,y
-x,z,y
-z,-x,y
x,-z,y
z,-x,-y
x,z,-y
-z,x,-y
-x,-z,-y
y,z,x
y,-z,-x
z,y,-x
-y,z,-x
-z,-y,-x
-y,-z,x
z,-y,x
-z,y,x
-x,-y,-z
y,-x,-z
x,y,-z
-y,x,-z
-x,y,z
-y,-x,z
x,-y,z
y,x,z
-z,-x,-y
x,-z,-y
z,x,-y
-x,z,-y
-z,x,y
-x,-z,y
z,-x,y
x,z,y
-y,-z,-x
-y,z,x
-z,-y,x
y,-z,x
z,y,x
y,z,-x
-z,y,-x
z,-y,-x
loop_
_atom_site_label
_atom_site_type_symbol
_atom_site_fract_x
_atom_site_fract_y
_atom_site_fract_z
_atom_site_occupancy
_atom_site_U_iso_or_equiv
Ti1 Ti 0 0 0 0.1 0.0
Al1 Al 0 0 0 0.9 0.0
Ru1 Ru 0.5 0.5 0.5 1 0.0
