#------------------------------------------------------------------------------
#$Date: 2015-07-12 21:58:52 +0300 (Sun, 12 Jul 2015) $
#$Revision: 148296 $
#$URL: svn://www.crystallography.net/cod/cif/1/52/70/1527008.cif $
#------------------------------------------------------------------------------
#
# This file is available in the Crystallography Open Database (COD),
# http://www.crystallography.net/
#
# All data on this site have been placed in the public domain by the
# contributors.
#
data_1527008
loop_
_publ_author_name
'Yang, Y.-T.'
'Brazis, P.'
'Ibers, J.A.'
'Kannewurf, C.R.'
_publ_section_title
;
 Structures and conductivities of the quaternary A/Bi/Cu/S phases K Bi2 Cu
 S4 and A3 Bi5 Cu2 S10 (A = Rb, Cs)
;
_journal_name_full               'Journal of Solid State Chemistry'
_journal_page_first              243
_journal_page_last               249
_journal_volume                  155
_journal_year                    2000
_chemical_formula_sum            'Bi5 Cu2 Rb3 S10'
_chemical_name_systematic        'Rb3 Bi5 Cu2 S10'
_space_group_IT_number           58
_symmetry_space_group_name_Hall  '-P 2 2n'
_symmetry_space_group_name_H-M   'P n n m'
_cell_angle_alpha                90
_cell_angle_beta                 90
_cell_angle_gamma                90
_cell_formula_units_Z            2
_cell_length_a                   14.571
_cell_length_b                   17.8189
_cell_length_c                   4.0686
_cell_volume                     1056.368
_citation_journal_id_ASTM        JSSCBI
_cod_data_source_file            Yang_JSSCBI_2000_41.cif
_cod_data_source_block           Bi5Cu2Rb3S10
_cod_database_code               1527008
loop_
_symmetry_equiv_pos_as_xyz
x,y,z
-x,-y,z
x+1/2,-y+1/2,-z+1/2
-x+1/2,y+1/2,-z+1/2
-x,-y,-z
x,y,-z
-x-1/2,y-1/2,z-1/2
x-1/2,-y-1/2,z-1/2
loop_
_atom_site_label
_atom_site_type_symbol
_atom_site_fract_x
_atom_site_fract_y
_atom_site_fract_z
_atom_site_occupancy
_atom_site_U_iso_or_equiv
Bi1 Bi+3 0.28395 0.59504 0 1 0.0
S2 S-2 0.1268 0.3512 0 1 0.0
Rb1 Rb+1 0.47639 0.25078 0 1 0.0
Rb2 Rb+1 0 0.5 0 1 0.0
S5 S-2 0.3814 0.4409 0 1 0.0
Bi3 Bi+3 0 0 0 1 0.0
S1 S-2 0.0954 0.138 0 1 0.0
S3 S-2 0.2018 0.7255 0 1 0.0
S4 S-2 0.3312 0.0332 0 1 0.0
Bi2 Bi+3 0.73665 0.10284 0 1 0.0
Cu1 Cu+1 0.21828 0.24323 0 1 0.0
