#------------------------------------------------------------------------------
#$Date: 2016-02-13 21:28:24 +0200 (Sat, 13 Feb 2016) $
#$Revision: 176429 $
#$URL: svn://www.crystallography.net/cod/cif/1/52/72/1527245.cif $
#------------------------------------------------------------------------------
#
# This file is available in the Crystallography Open Database (COD),
# http://www.crystallography.net/
#
# All data on this site have been placed in the public domain by the
# contributors.
#
data_1527245
loop_
_publ_author_name
'Clayton, W.'
'Meyers, E.'
_publ_section_title
;
 Diammonium diamminecopper(II) bromide, Br4 Cu H14 N4
;
_journal_name_full               'Crystal Structure Communications'
_journal_page_first              57
_journal_page_last               60
_journal_volume                  5
_journal_year                    1976
_chemical_formula_sum            'Br Cu0.25 H3.5 N'
_chemical_name_systematic        '((N H4)2 (Cu (N H3)2) Br4)0.25'
_space_group_IT_number           200
_symmetry_space_group_name_Hall  '-P 2 2 3'
_symmetry_space_group_name_H-M   'P m -3'
_cell_angle_alpha                90
_cell_angle_beta                 90
_cell_angle_gamma                90
_cell_formula_units_Z            1
_cell_length_a                   4.07
_cell_length_b                   4.07
_cell_length_c                   4.07
_cell_volume                     67.419
_citation_journal_id_ASTM        CSCMCS
_cod_data_source_file            Clayton_CSCMCS_1976_637.cif
_cod_data_source_block           H3.5Br1Cu0.25N1
_cod_original_cell_volume        67.41915
_cod_original_formula_sum        'H3.5 Br1 Cu0.25 N1'
_cod_database_code               1527245
loop_
_symmetry_equiv_pos_as_xyz
x,y,z
-x,-y,z
x,-y,-z
-x,y,-z
z,x,y
-z,-x,y
z,-x,-y
-z,x,-y
y,z,x
y,-z,-x
-y,z,-x
-y,-z,x
-x,-y,-z
x,y,-z
-x,y,z
x,-y,z
-z,-x,-y
z,x,-y
-z,x,y
z,-x,y
-y,-z,-x
-y,z,x
y,-z,x
y,z,-x
loop_
_atom_site_label
_atom_site_type_symbol
_atom_site_fract_x
_atom_site_fract_y
_atom_site_fract_z
_atom_site_occupancy
_atom_site_U_iso_or_equiv
Cu1 Cu+2 0 0.5 0.5 0.028 0.0
H1 H+1 0.339 0.339 0.339 0.4376 0.0
Cu2 Cu+2 0.5 0 0.5 0.028 0.0
N1 N-3 0.5 0.5 0.5 1 0.0
Br1 Br-1 0 0 0 1 0.0
Cu3 Cu+2 0.5 0.5 0 0.028 0.0
