#------------------------------------------------------------------------------
#$Date: 2018-09-27 07:13:35 +0300 (Thu, 27 Sep 2018) $
#$Revision: 211196 $
#$URL: file:///home/coder/svn-repositories/cod/cif/1/52/74/1527460.cif $
#------------------------------------------------------------------------------
#
# This file is available in the Crystallography Open Database (COD),
# http://www.crystallography.net/
#
# All data on this site have been placed in the public domain by the
# contributors.
#
data_1527460
loop_
_publ_author_name
'Gueramian, M.'
'Yvon, K.'
'Hulliger, F.'
_publ_section_title
;
 Structure and magnetic properties of the Th Mn12-type compounds R Fe12-x
 Rex (R= Ce-Nd, Sm, Gd-Tm, Lu, Y, Th, U)
;
_journal_name_full               'Journal of the Less-Common Metals'
_journal_page_first              321
_journal_page_last               330
_journal_volume                  175
_journal_year                    1991
_chemical_formula_sum            'Fe10 Lu Re2'
_space_group_IT_number           139
_symmetry_space_group_name_Hall  '-I 4 2'
_symmetry_space_group_name_H-M   'I 4/m m m'
_cell_angle_alpha                90
_cell_angle_beta                 90
_cell_angle_gamma                90
_cell_formula_units_Z            2
_cell_length_a                   8.4798
_cell_length_b                   8.4798
_cell_length_c                   4.7401
_cell_volume                     340.846
_citation_journal_id_ASTM        JCOMAH
_cod_data_source_file            Gueramian_JCOMAH_1991_469.cif
_cod_data_source_block           Fe10Lu1Re2
_cod_original_cell_volume        340.8464
_cod_original_formula_sum        'Fe10 Lu1 Re2'
_cod_database_code               1527460
loop_
_symmetry_equiv_pos_as_xyz
x,y,z
-y,x,z
-x,-y,z
y,-x,z
x,-y,-z
y,x,-z
-x,y,-z
-y,-x,-z
-x,-y,-z
y,-x,-z
x,y,-z
-y,x,-z
-x,y,z
-y,-x,z
x,-y,z
y,x,z
x+1/2,y+1/2,z+1/2
-y+1/2,x+1/2,z+1/2
-x+1/2,-y+1/2,z+1/2
y+1/2,-x+1/2,z+1/2
x+1/2,-y+1/2,-z+1/2
y+1/2,x+1/2,-z+1/2
-x+1/2,y+1/2,-z+1/2
-y+1/2,-x+1/2,-z+1/2
-x+1/2,-y+1/2,-z+1/2
y+1/2,-x+1/2,-z+1/2
x+1/2,y+1/2,-z+1/2
-y+1/2,x+1/2,-z+1/2
-x+1/2,y+1/2,z+1/2
-y+1/2,-x+1/2,z+1/2
x+1/2,-y+1/2,z+1/2
y+1/2,x+1/2,z+1/2
loop_
_atom_site_label
_atom_site_type_symbol
_atom_site_fract_x
_atom_site_fract_y
_atom_site_fract_z
_atom_site_occupancy
_atom_site_U_iso_or_equiv
Re1 Re 0.25 0.25 0.25 0.4 0.0
Re3 Re 0.278 0.5 0 0.1 0.0
Fe3 Fe 0.278 0.5 0 0.9 0.0
Fe1 Fe 0.25 0.25 0.25 0.6 0.0
Lu1 Lu 0 0 0 1 0.0
Fe2 Fe 0.36 0 0 1 0.0
