#------------------------------------------------------------------------------
#$Date: 2016-02-13 21:28:24 +0200 (Sat, 13 Feb 2016) $
#$Revision: 176429 $
#$URL: svn://www.crystallography.net/cod/cif/1/52/78/1527897.cif $
#------------------------------------------------------------------------------
#
# This file is available in the Crystallography Open Database (COD),
# http://www.crystallography.net/
#
# All data on this site have been placed in the public domain by the
# contributors.
#
data_1527897
loop_
_publ_author_name
'Ogawa, S.'
'Suga, S.'
'Bocquet, A.E.'
'Fujimori, A.'
'Iga, F.'
'Kasuya, T.'
'Kasaya, M.'
_publ_section_title
;
 Electronic structure of Ce (Pd1-x Cux)3 (x=0-0.133) studied by
 photoemission and Bremsstrahlung isochromat spectroscopy
;
_journal_name_full               'Journal of the Physical Society of Japan'
_journal_page_first              3575
_journal_page_last               3589
_journal_volume                  62
_journal_year                    1993
_chemical_formula_sum            'Ce Cu0.399 Pd2.601'
_chemical_name_systematic        'Ce (Cu.133 Pd.867)3'
_space_group_IT_number           221
_symmetry_space_group_name_Hall  '-P 4 2 3'
_symmetry_space_group_name_H-M   'P m -3 m'
_cell_angle_alpha                90
_cell_angle_beta                 90
_cell_angle_gamma                90
_cell_formula_units_Z            1
_cell_length_a                   4.188
_cell_length_b                   4.188
_cell_length_c                   4.188
_cell_volume                     73.455
_citation_journal_id_ASTM        JUPSAU
_cod_data_source_file            Ogawa_JUPSAU_1993_277.cif
_cod_data_source_block           Ce1Cu0.399Pd2.601
_cod_original_cell_volume        73.45478
_cod_original_formula_sum        'Ce1 Cu0.399 Pd2.601'
_cod_database_code               1527897
loop_
_symmetry_equiv_pos_as_xyz
x,y,z
-y,x,z
-x,-y,z
y,-x,z
x,-y,-z
y,x,-z
-x,y,-z
-y,-x,-z
z,x,y
-x,z,y
-z,-x,y
x,-z,y
z,-x,-y
x,z,-y
-z,x,-y
-x,-z,-y
y,z,x
y,-z,-x
z,y,-x
-y,z,-x
-z,-y,-x
-y,-z,x
z,-y,x
-z,y,x
-x,-y,-z
y,-x,-z
x,y,-z
-y,x,-z
-x,y,z
-y,-x,z
x,-y,z
y,x,z
-z,-x,-y
x,-z,-y
z,x,-y
-x,z,-y
-z,x,y
-x,-z,y
z,-x,y
x,z,y
-y,-z,-x
-y,z,x
-z,-y,x
y,-z,x
z,y,x
y,z,-x
-z,y,-x
z,-y,-x
loop_
_atom_site_label
_atom_site_type_symbol
_atom_site_fract_x
_atom_site_fract_y
_atom_site_fract_z
_atom_site_occupancy
_atom_site_U_iso_or_equiv
Pd1 Pd 0 0.5 0.5 0.867 0.0
Ce1 Ce 0 0 0 1 0.0
Cu1 Cu 0 0.5 0.5 0.133 0.0
