#------------------------------------------------------------------------------
#$Date: 2018-09-27 07:13:35 +0300 (Thu, 27 Sep 2018) $
#$Revision: 211196 $
#$URL: file:///home/coder/svn-repositories/cod/cif/1/52/70/1527078.cif $
#------------------------------------------------------------------------------
#
# This file is available in the Crystallography Open Database (COD),
# http://www.crystallography.net/
#
# All data on this site have been placed in the public domain by the
# contributors.
#
data_1527078
loop_
_publ_author_name
'Anagnostou, M.'
'Psycharis, V.'
'Devlin, E.'
'Kostikas, A.'
'Niarchos, D.'
_publ_section_title
;
 Stability range, structure and magnetic properties of Y Fe12-x Mox (x=
 0.5-2.) with the Th Mn12-type structure
;
_journal_name_full               'Journal of Magnetism and Magnetic Materials'
_journal_page_first              157
_journal_page_last               166
_journal_volume                  131
_journal_year                    1994
_chemical_formula_sum            'Fe11.54 Mo0.46 Y'
_space_group_IT_number           139
_symmetry_space_group_name_Hall  '-I 4 2'
_symmetry_space_group_name_H-M   'I 4/m m m'
_cell_angle_alpha                90
_cell_angle_beta                 90
_cell_angle_gamma                90
_cell_formula_units_Z            2
_cell_length_a                   8.4903
_cell_length_b                   8.4903
_cell_length_c                   4.7781
_cell_volume                     344.430
_citation_journal_id_ASTM        JMMMDC
_cod_data_source_file            Anagnostou_JMMMDC_1994_474.cif
_cod_data_source_block           Fe11.54Mo0.46Y1
_cod_original_cell_volume        344.4303
_cod_original_formula_sum        'Fe11.54 Mo0.46 Y1'
_cod_database_code               1527078
loop_
_symmetry_equiv_pos_as_xyz
x,y,z
-y,x,z
-x,-y,z
y,-x,z
x,-y,-z
y,x,-z
-x,y,-z
-y,-x,-z
-x,-y,-z
y,-x,-z
x,y,-z
-y,x,-z
-x,y,z
-y,-x,z
x,-y,z
y,x,z
x+1/2,y+1/2,z+1/2
-y+1/2,x+1/2,z+1/2
-x+1/2,-y+1/2,z+1/2
y+1/2,-x+1/2,z+1/2
x+1/2,-y+1/2,-z+1/2
y+1/2,x+1/2,-z+1/2
-x+1/2,y+1/2,-z+1/2
-y+1/2,-x+1/2,-z+1/2
-x+1/2,-y+1/2,-z+1/2
y+1/2,-x+1/2,-z+1/2
x+1/2,y+1/2,-z+1/2
-y+1/2,x+1/2,-z+1/2
-x+1/2,y+1/2,z+1/2
-y+1/2,-x+1/2,z+1/2
x+1/2,-y+1/2,z+1/2
y+1/2,x+1/2,z+1/2
loop_
_atom_site_label
_atom_site_type_symbol
_atom_site_fract_x
_atom_site_fract_y
_atom_site_fract_z
_atom_site_occupancy
_atom_site_U_iso_or_equiv
Fe1 Fe 0.25 0.25 0.25 1 0.0
Fe2 Fe 0.2764 0.5 0 1 0.0
Fe3 Fe 0.3583 0 0 0.883 0.0
Mo3 Mo 0.3583 0 0 0.116 0.0
Y1 Y 0 0 0 1 0.0
