#------------------------------------------------------------------------------
#$Date: 2018-09-27 07:13:35 +0300 (Thu, 27 Sep 2018) $
#$Revision: 211196 $
#$URL: file:///home/coder/svn-repositories/cod/cif/1/52/74/1527455.cif $
#------------------------------------------------------------------------------
#
# This file is available in the Crystallography Open Database (COD),
# http://www.crystallography.net/
#
# All data on this site have been placed in the public domain by the
# contributors.
#
data_1527455
loop_
_publ_author_name
'Grin', Yu.'
'Ellner, M.'
'Predel, B.'
'Cordier, G.'
_publ_section_title
;
 On the ternary calcium-containing phases Ca Mx Ga4-x (M= Pd, Pt, Cu, Ag,
 Au) with Ba Al4 structure
;
_journal_name_full               'Journal of Alloys Compd.'
_journal_page_first              207
_journal_page_last               211
_journal_volume                  216
_journal_year                    1994
_chemical_formula_sum            'Ca2 Cu Ga7'
_space_group_IT_number           139
_symmetry_space_group_name_Hall  '-I 4 2'
_symmetry_space_group_name_H-M   'I 4/m m m'
_cell_angle_alpha                90
_cell_angle_beta                 90
_cell_angle_gamma                90
_cell_formula_units_Z            1
_cell_length_a                   4.1883
_cell_length_b                   4.1883
_cell_length_c                   11.033
_cell_volume                     193.539
_citation_journal_id_ASTM        JALCEU
_cod_data_source_file            Grin_JALCEU_1994_205.cif
_cod_data_source_block           Ca2Cu1Ga7
_cod_original_cell_volume        193.5393
_cod_original_formula_sum        'Ca2 Cu1 Ga7'
_cod_database_code               1527455
loop_
_symmetry_equiv_pos_as_xyz
x,y,z
-y,x,z
-x,-y,z
y,-x,z
x,-y,-z
y,x,-z
-x,y,-z
-y,-x,-z
-x,-y,-z
y,-x,-z
x,y,-z
-y,x,-z
-x,y,z
-y,-x,z
x,-y,z
y,x,z
x+1/2,y+1/2,z+1/2
-y+1/2,x+1/2,z+1/2
-x+1/2,-y+1/2,z+1/2
y+1/2,-x+1/2,z+1/2
x+1/2,-y+1/2,-z+1/2
y+1/2,x+1/2,-z+1/2
-x+1/2,y+1/2,-z+1/2
-y+1/2,-x+1/2,-z+1/2
-x+1/2,-y+1/2,-z+1/2
y+1/2,-x+1/2,-z+1/2
x+1/2,y+1/2,-z+1/2
-y+1/2,x+1/2,-z+1/2
-x+1/2,y+1/2,z+1/2
-y+1/2,-x+1/2,z+1/2
x+1/2,-y+1/2,z+1/2
y+1/2,x+1/2,z+1/2
loop_
_atom_site_label
_atom_site_type_symbol
_atom_site_fract_x
_atom_site_fract_y
_atom_site_fract_z
_atom_site_occupancy
_atom_site_U_iso_or_equiv
Cu2 Cu 0 0 0.3888 0.125 0.0
Ca1 Ca 0 0 0 1 0.0
Ga1 Ga 0 0.5 0.25 0.875 0.0
Ga2 Ga 0 0 0.3888 0.875 0.0
Cu1 Cu 0 0.5 0.25 0.125 0.0
