#------------------------------------------------------------------------------
#$Date: 2016-02-13 21:28:24 +0200 (Sat, 13 Feb 2016) $
#$Revision: 176429 $
#$URL: svn://www.crystallography.net/cod/cif/1/52/75/1527570.cif $
#------------------------------------------------------------------------------
#
# This file is available in the Crystallography Open Database (COD),
# http://www.crystallography.net/
#
# All data on this site have been placed in the public domain by the
# contributors.
#
data_1527570
loop_
_publ_author_name
'Ikromov, A.Z.'
'Ganiev, I.N.'
'Vakohobov, A.V.'
'Kotur, B.Ya.'
'Kinzhibalo, V.V.'
_publ_section_title
;
 Al-Zn-Pr system at 593 K
;
_journal_name_full               'Izvestiya Akademii Nauk SSSR, Metally'
_journal_page_first              219
_journal_page_last               221
_journal_volume                  1990
_journal_year                    1990
_chemical_formula_sum            'Al0.6 Pr Zn0.4'
_chemical_name_systematic        '(Al0.6 Zn0.4) Pr'
_space_group_IT_number           221
_symmetry_space_group_name_Hall  '-P 4 2 3'
_symmetry_space_group_name_H-M   'P m -3 m'
_cell_angle_alpha                90
_cell_angle_beta                 90
_cell_angle_gamma                90
_cell_formula_units_Z            1
_cell_length_a                   3.701
_cell_length_b                   3.701
_cell_length_c                   3.701
_cell_volume                     50.694
_citation_journal_id_ASTM        IZNMAQ
_cod_data_source_file            Ikromov_IZNMAQ_1990_183.cif
_cod_data_source_block           Al0.6Pr1Zn0.4
_cod_original_cell_volume        50.69408
_cod_original_formula_sum        'Al0.6 Pr1 Zn0.4'
_cod_database_code               1527570
loop_
_symmetry_equiv_pos_as_xyz
x,y,z
-y,x,z
-x,-y,z
y,-x,z
x,-y,-z
y,x,-z
-x,y,-z
-y,-x,-z
z,x,y
-x,z,y
-z,-x,y
x,-z,y
z,-x,-y
x,z,-y
-z,x,-y
-x,-z,-y
y,z,x
y,-z,-x
z,y,-x
-y,z,-x
-z,-y,-x
-y,-z,x
z,-y,x
-z,y,x
-x,-y,-z
y,-x,-z
x,y,-z
-y,x,-z
-x,y,z
-y,-x,z
x,-y,z
y,x,z
-z,-x,-y
x,-z,-y
z,x,-y
-x,z,-y
-z,x,y
-x,-z,y
z,-x,y
x,z,y
-y,-z,-x
-y,z,x
-z,-y,x
y,-z,x
z,y,x
y,z,-x
-z,y,-x
z,-y,-x
loop_
_atom_site_label
_atom_site_type_symbol
_atom_site_fract_x
_atom_site_fract_y
_atom_site_fract_z
_atom_site_occupancy
_atom_site_U_iso_or_equiv
Pr1 Pr 0.5 0.5 0.5 1 0.0
Zn1 Zn 0 0 0 0.4 0.0
Al1 Al 0 0 0 0.6 0.0
