#------------------------------------------------------------------------------
#$Date: 2015-07-13 02:16:07 +0300 (Mon, 13 Jul 2015) $
#$Revision: 148528 $
#$URL: svn://www.crystallography.net/cod/cif/1/52/71/1527155.cif $
#------------------------------------------------------------------------------
#
# This file is available in the Crystallography Open Database (COD),
# http://www.crystallography.net/
#
# All data on this site have been placed in the public domain by the
# contributors.
#
data_1527155
loop_
_publ_author_name
'Blazina, Z.'
'Trojko, R.'
'Ban, Z.'
_publ_section_title
;
 High temperature equilibria in the Zr1-x Hfx M2, Zr1-x Tix M2 and Hf1-x
 Tix M2 (M= Mo or W) systems
;
_journal_name_full               'Journal of the Less-Common Metals'
_journal_page_first              175
_journal_page_last               183
_journal_volume                  83
_journal_year                    1982
_chemical_formula_sum            'Ti0.17 W0.66 Zr0.17'
_chemical_name_systematic        '(Ti0.17 Zr0.17 W0.66)'
_space_group_IT_number           229
_symmetry_space_group_name_Hall  '-I 4 2 3'
_symmetry_space_group_name_H-M   'I m -3 m'
_cell_angle_alpha                90
_cell_angle_beta                 90
_cell_angle_gamma                90
_cell_formula_units_Z            2
_cell_length_a                   3.166
_cell_length_b                   3.166
_cell_length_c                   3.166
_cell_volume                     31.735
_citation_journal_id_ASTM        JCOMAH
_cod_data_source_file            Blazina_JCOMAH_1982_138.cif
_cod_data_source_block           Ti0.17W0.66Zr0.17
_cod_original_cell_volume        31.73458
_cod_database_code               1527155
loop_
_symmetry_equiv_pos_as_xyz
x,y,z
-y,x,z
-x,-y,z
y,-x,z
x,-y,-z
y,x,-z
-x,y,-z
-y,-x,-z
z,x,y
-x,z,y
-z,-x,y
x,-z,y
z,-x,-y
x,z,-y
-z,x,-y
-x,-z,-y
y,z,x
y,-z,-x
z,y,-x
-y,z,-x
-z,-y,-x
-y,-z,x
z,-y,x
-z,y,x
-x,-y,-z
y,-x,-z
x,y,-z
-y,x,-z
-x,y,z
-y,-x,z
x,-y,z
y,x,z
-z,-x,-y
x,-z,-y
z,x,-y
-x,z,-y
-z,x,y
-x,-z,y
z,-x,y
x,z,y
-y,-z,-x
-y,z,x
-z,-y,x
y,-z,x
z,y,x
y,z,-x
-z,y,-x
z,-y,-x
x+1/2,y+1/2,z+1/2
-y+1/2,x+1/2,z+1/2
-x+1/2,-y+1/2,z+1/2
y+1/2,-x+1/2,z+1/2
x+1/2,-y+1/2,-z+1/2
y+1/2,x+1/2,-z+1/2
-x+1/2,y+1/2,-z+1/2
-y+1/2,-x+1/2,-z+1/2
z+1/2,x+1/2,y+1/2
-x+1/2,z+1/2,y+1/2
-z+1/2,-x+1/2,y+1/2
x+1/2,-z+1/2,y+1/2
z+1/2,-x+1/2,-y+1/2
x+1/2,z+1/2,-y+1/2
-z+1/2,x+1/2,-y+1/2
-x+1/2,-z+1/2,-y+1/2
y+1/2,z+1/2,x+1/2
y+1/2,-z+1/2,-x+1/2
z+1/2,y+1/2,-x+1/2
-y+1/2,z+1/2,-x+1/2
-z+1/2,-y+1/2,-x+1/2
-y+1/2,-z+1/2,x+1/2
z+1/2,-y+1/2,x+1/2
-z+1/2,y+1/2,x+1/2
-x+1/2,-y+1/2,-z+1/2
y+1/2,-x+1/2,-z+1/2
x+1/2,y+1/2,-z+1/2
-y+1/2,x+1/2,-z+1/2
-x+1/2,y+1/2,z+1/2
-y+1/2,-x+1/2,z+1/2
x+1/2,-y+1/2,z+1/2
y+1/2,x+1/2,z+1/2
-z+1/2,-x+1/2,-y+1/2
x+1/2,-z+1/2,-y+1/2
z+1/2,x+1/2,-y+1/2
-x+1/2,z+1/2,-y+1/2
-z+1/2,x+1/2,y+1/2
-x+1/2,-z+1/2,y+1/2
z+1/2,-x+1/2,y+1/2
x+1/2,z+1/2,y+1/2
-y+1/2,-z+1/2,-x+1/2
-y+1/2,z+1/2,x+1/2
-z+1/2,-y+1/2,x+1/2
y+1/2,-z+1/2,x+1/2
z+1/2,y+1/2,x+1/2
y+1/2,z+1/2,-x+1/2
-z+1/2,y+1/2,-x+1/2
z+1/2,-y+1/2,-x+1/2
loop_
_atom_site_label
_atom_site_type_symbol
_atom_site_fract_x
_atom_site_fract_y
_atom_site_fract_z
_atom_site_occupancy
_atom_site_U_iso_or_equiv
W1 W 0 0 0 0.66 0.0
Zr1 Zr 0 0 0 0.17 0.0
Ti1 Ti 0 0 0 0.17 0.0
