#------------------------------------------------------------------------------
#$Date: 2018-09-27 07:13:35 +0300 (Thu, 27 Sep 2018) $
#$Revision: 211196 $
#$URL: file:///home/coder/svn-repositories/cod/cif/1/52/75/1527510.cif $
#------------------------------------------------------------------------------
#
# This file is available in the Crystallography Open Database (COD),
# http://www.crystallography.net/
#
# All data on this site have been placed in the public domain by the
# contributors.
#
data_1527510
loop_
_publ_author_name
'Higashi, I.'
'Kobayashi, K.'
'Takabatake, T.'
'Kasaya, M.'
_publ_section_title
;
 The crystal structures of Ce T Sn (T= Ni, Pd and Pt)
;
_journal_name_full               'Journal of Alloys Compd.'
_journal_page_first              300
_journal_page_last               302
_journal_volume                  193
_journal_year                    1993
_chemical_formula_sum            'Ce Pd Sn'
_space_group_IT_number           33
_symmetry_space_group_name_Hall  'P 2c -2n'
_symmetry_space_group_name_H-M   'P n a 21'
_cell_angle_alpha                90
_cell_angle_beta                 90
_cell_angle_gamma                90
_cell_formula_units_Z            4
_cell_length_a                   7.5356
_cell_length_b                   7.9648
_cell_length_c                   4.7045
_cell_volume                     282.362
_citation_journal_id_ASTM        JALCEU
_cod_data_source_file            Higashi_JALCEU_1993_308.cif
_cod_data_source_block           Ce1Pd1Sn1
_cod_original_formula_sum        'Ce1 Pd1 Sn1'
_cod_database_code               1527510
loop_
_symmetry_equiv_pos_as_xyz
x,y,z
-x,-y,z+1/2
-x+1/2,y+1/2,z+1/2
x+1/2,-y+1/2,z
loop_
_atom_site_label
_atom_site_type_symbol
_atom_site_fract_x
_atom_site_fract_y
_atom_site_fract_z
_atom_site_occupancy
_atom_site_U_iso_or_equiv
Ce1 Ce 0.48789 0.20123 0.75 1 0.0
Pd1 Pd 0.70069 0.58502 0.7559 1 0.0
Sn1 Sn 0.81342 0.9132 0.7533 1 0.0
