#------------------------------------------------------------------------------
#$Date: 2016-02-13 21:28:24 +0200 (Sat, 13 Feb 2016) $
#$Revision: 176429 $
#$URL: svn://www.crystallography.net/cod/cif/1/52/78/1527869.cif $
#------------------------------------------------------------------------------
#
# This file is available in the Crystallography Open Database (COD),
# http://www.crystallography.net/
#
# All data on this site have been placed in the public domain by the
# contributors.
#
data_1527869
loop_
_publ_author_name
'Niel, M.'
'Pouchard, M.'
'Cros, C.'
'Vlasse, M.'
'Hagenmuller, P.'
_publ_section_title
;
 Sur la phase Cs V Cl3. Etude cristallographique et magnetique
;
_journal_name_full               'Materials Research Bulletin'
_journal_page_first              827
_journal_page_last               836
_journal_volume                  11
_journal_year                    1976
_chemical_formula_sum            'Cl3 Cs V'
_chemical_name_systematic        'Cs V Cl3'
_space_group_IT_number           194
_symmetry_space_group_name_Hall  '-P 6c 2c'
_symmetry_space_group_name_H-M   'P 63/m m c'
_cell_angle_alpha                90
_cell_angle_beta                 90
_cell_angle_gamma                120
_cell_formula_units_Z            2
_cell_length_a                   7.228
_cell_length_b                   7.228
_cell_length_c                   6.03
_cell_volume                     272.825
_citation_journal_id_ASTM        MRBUAC
_cod_data_source_file            Niel_MRBUAC_1976_1747.cif
_cod_data_source_block           Cl3Cs1V1
_cod_original_cell_volume        272.8251
_cod_original_formula_sum        'Cl3 Cs1 V1'
_cod_database_code               1527869
loop_
_symmetry_equiv_pos_as_xyz
x,y,z
x-y,x,z+1/2
-y,x-y,z
-x,-y,z+1/2
-x+y,-x,z
y,-x+y,z+1/2
-y,-x,-z+1/2
x-y,-y,-z
x,x-y,-z+1/2
y,x,-z
-x+y,y,-z+1/2
-x,-x+y,-z
-x,-y,-z
-x+y,-x,-z-1/2
y,-x+y,-z
x,y,-z-1/2
x-y,x,-z
-y,x-y,-z-1/2
y,x,z-1/2
-x+y,y,z
-x,-x+y,z-1/2
-y,-x,z
x-y,-y,z-1/2
x,x-y,z
loop_
_atom_site_label
_atom_site_type_symbol
_atom_site_fract_x
_atom_site_fract_y
_atom_site_fract_z
_atom_site_occupancy
_atom_site_U_iso_or_equiv
Cl1 Cl-1 0.1571 0.3142 0.25 1 0.0
Cs1 Cs+1 0.6667 0.3333 0.25 1 0.0
V1 V+2 0 0 0 1 0.0
