#------------------------------------------------------------------------------
#$Date: 2015-07-14 02:36:01 +0300 (Tue, 14 Jul 2015) $
#$Revision: 151713 $
#$URL: svn://www.crystallography.net/cod/cif/1/52/88/1528899.cif $
#------------------------------------------------------------------------------
#
# This file is available in the Crystallography Open Database (COD),
# http://www.crystallography.net/
#
# All data on this site have been placed in the public domain by the
# contributors.
#
data_1528899
loop_
_publ_author_name
'Sugiura, K.'
'Iwata, T.'
'Yoshida, H.'
'Hashimoto, S.'
'Fukuda, K.'
_publ_section_title
;
 Synthesis, crystal structures and Si solubilities of new layered carbides
 Zr2 Al4 C5 and Zr3 Al4 C6
;
_journal_name_full               'Journal of Solid State Chemistry'
_journal_page_first              2864
_journal_page_last               2868
_journal_volume                  181
_journal_year                    2008
_chemical_formula_sum            'C6 Al4 Zr3'
_chemical_name_systematic        'Zr3 Al4 C6'
_space_group_IT_number           160
_symmetry_space_group_name_Hall  'R 3 -2"'
_symmetry_space_group_name_H-M   'R 3 m :H'
_cell_angle_alpha                90
_cell_angle_beta                 90
_cell_angle_gamma                120
_cell_formula_units_Z            3
_cell_length_a                   3.31807
_cell_length_b                   3.31807
_cell_length_c                   48.9771
_cell_volume                     466.976
_citation_journal_id_ASTM        JSSCBI
_cod_data_source_file            Sugiura_JSSCBI_2008_1620.cif
_cod_data_source_block           C6Al4Zr3
_cod_original_cell_volume        466.9762
_cod_database_code               1528899
loop_
_symmetry_equiv_pos_as_xyz
x,y,z
-y,x-y,z
-x+y,-x,z
-y,-x,z
x,x-y,z
-x+y,y,z
x+2/3,y+1/3,z+1/3
-y+2/3,x-y+1/3,z+1/3
-x+y+2/3,-x+1/3,z+1/3
-y+2/3,-x+1/3,z+1/3
x+2/3,x-y+1/3,z+1/3
-x+y+2/3,y+1/3,z+1/3
x+1/3,y+2/3,z+2/3
-y+1/3,x-y+2/3,z+2/3
-x+y+1/3,-x+2/3,z+2/3
-y+1/3,-x+2/3,z+2/3
x+1/3,x-y+2/3,z+2/3
-x+y+1/3,y+2/3,z+2/3
loop_
_atom_site_label
_atom_site_type_symbol
_atom_site_fract_x
_atom_site_fract_y
_atom_site_fract_z
_atom_site_occupancy
_atom_site_U_iso_or_equiv
C1 C-4 0 0 0 1 0.0
Al4 Al+3 0 0 0.5362 1 0.0
C4 C-4 0 0 0.3871 1 0.0
Zr3 Zr+4 0 0 0.9173 1 0.0
C3 C-4 0 0 0.2194 1 0.0
Al3 Al+3 0 0 0.4474 1 0.0
C6 C-4 0 0 0.6091 1 0.0
C5 C-4 0 0 0.4976 1 0.0
Al1 Al+3 0 0 0.0731 1 0.0
C2 C-4 0 0 0.112 1 0.0
Al2 Al+3 0 0 0.1545 1 0.0
Zr1 Zr+4 0 0 0.3047 1 0.0
Zr2 Zr+4 0 0 0.6925 1 0.0
