#------------------------------------------------------------------------------
#$Date: 2016-02-13 21:28:24 +0200 (Sat, 13 Feb 2016) $
#$Revision: 176429 $
#$URL: svn://www.crystallography.net/cod/cif/1/52/80/1528063.cif $
#------------------------------------------------------------------------------
#
# This file is available in the Crystallography Open Database (COD),
# http://www.crystallography.net/
#
# All data on this site have been placed in the public domain by the
# contributors.
#
data_1528063
loop_
_publ_author_name
'Shamrai, N.B.'
'Varfolomeev, M.B.'
'Plyukhin, V.V.'
'Kuz'min, E.A.'
'Saf'yanov, Yu.N.'
_publ_section_title
;
 Structure of periodates of the rare-earth elements Ln I O5 (H2 O)4 (Ln =
 Pr-Lu And Y)
;
_journal_name_full
;
Koordinatsionnaya Khimiya (= Coordination Chemistry (USSR))
;
_journal_page_first              1588
_journal_page_last               1593
_journal_volume                  3
_journal_year                    1977
_chemical_formula_sum            'H8 Ho I O9'
_chemical_name_systematic        'Ho I O5 (H2 O)4'
_space_group_IT_number           14
_symmetry_space_group_name_Hall  '-P 2bc'
_symmetry_space_group_name_H-M   'P 1 1 21/b'
_cell_angle_alpha                90
_cell_angle_beta                 90
_cell_angle_gamma                118.41
_cell_formula_units_Z            4
_cell_length_a                   7.516
_cell_length_b                   10.408
_cell_length_c                   10.249
_cell_volume                     705.186
_citation_journal_id_ASTM        KOKHDC
_cod_data_source_file            Shamrai_KOKHDC_1977_876.cif
_cod_data_source_block           H8Ho1I1O9
_cod_original_sg_symbol_Hall     '-P 2ybc (-x,z,y)'
_cod_original_formula_sum        'H8 Ho1 I1 O9'
_cod_database_code               1528063
loop_
_symmetry_equiv_pos_as_xyz
x,y,z
-x,-y+1/2,z+1/2
-x,-y,-z
x,y-1/2,-z-1/2
loop_
_atom_site_label
_atom_site_type_symbol
_atom_site_fract_x
_atom_site_fract_y
_atom_site_fract_z
_atom_site_occupancy
_atom_site_U_iso_or_equiv
O2 O-2 0.161 0.203 0.053 1 0.0
O9 O-2 0.431 0.124 0.951 1 0.0
O7 O-2 0.043 0.399 0.781 1 0.0
Ho1 Ho+3 0.2316 0.1787 0.4281 1 0.0
O1 O-2 0.061 0.42 0.072 1 0.0
O5 O-2 0.39 0.107 0.595 1 0.0
O8 O-2 0.109 0.172 0.803 1 0.0
O4 O-2 0.431 0.135 0.281 1 0.0
O3 O-2 0.252 0.351 0.267 1 0.0
I1 I+7 0.0201 0.2606 0.1749 1 0.0
O6 O-2 0.219 0.338 0.585 1 0.0
