#------------------------------------------------------------------------------
#$Date: 2015-07-13 08:01:05 +0300 (Mon, 13 Jul 2015) $
#$Revision: 150238 $
#$URL: svn://www.crystallography.net/cod/cif/1/52/82/1528244.cif $
#------------------------------------------------------------------------------
#
# This file is available in the Crystallography Open Database (COD),
# http://www.crystallography.net/
#
# All data on this site have been placed in the public domain by the
# contributors.
#
data_1528244
loop_
_publ_author_name
'Zanicchi, G.'
'Riani, P.'
'Ferro, R.'
'Marazza, R.'
'Mazzone, D.'
'Rossi, D.'
_publ_section_title
;
 On some ternary alloys R'-R"-Al with rare earths
;
_journal_name_full               'Journal of Alloys Compd.'
_journal_page_first              181
_journal_page_last               186
_journal_volume                  215
_journal_year                    1994
_chemical_formula_sum            'Al3 Y0.15 Yb0.85'
_chemical_name_systematic        'Al3 (Y0.15 Yb0.85)'
_space_group_IT_number           221
_symmetry_space_group_name_Hall  '-P 4 2 3'
_symmetry_space_group_name_H-M   'P m -3 m'
_cell_angle_alpha                90
_cell_angle_beta                 90
_cell_angle_gamma                90
_cell_formula_units_Z            1
_cell_length_a                   4.212
_cell_length_b                   4.212
_cell_length_c                   4.212
_cell_volume                     74.725
_citation_journal_id_ASTM        JALCEU
_cod_data_source_file            Zanicchi_JALCEU_1994_193.cif
_cod_data_source_block           Al3Y0.15Yb0.85
_cod_original_cell_volume        74.72485
_cod_database_code               1528244
loop_
_symmetry_equiv_pos_as_xyz
x,y,z
-y,x,z
-x,-y,z
y,-x,z
x,-y,-z
y,x,-z
-x,y,-z
-y,-x,-z
z,x,y
-x,z,y
-z,-x,y
x,-z,y
z,-x,-y
x,z,-y
-z,x,-y
-x,-z,-y
y,z,x
y,-z,-x
z,y,-x
-y,z,-x
-z,-y,-x
-y,-z,x
z,-y,x
-z,y,x
-x,-y,-z
y,-x,-z
x,y,-z
-y,x,-z
-x,y,z
-y,-x,z
x,-y,z
y,x,z
-z,-x,-y
x,-z,-y
z,x,-y
-x,z,-y
-z,x,y
-x,-z,y
z,-x,y
x,z,y
-y,-z,-x
-y,z,x
-z,-y,x
y,-z,x
z,y,x
y,z,-x
-z,y,-x
z,-y,-x
loop_
_atom_site_label
_atom_site_type_symbol
_atom_site_fract_x
_atom_site_fract_y
_atom_site_fract_z
_atom_site_occupancy
_atom_site_U_iso_or_equiv
Al1 Al 0 0.5 0.5 1 0.0
Y1 Y 0 0 0 0.15 0.0
Yb1 Yb 0 0 0 0.85 0.0
