#------------------------------------------------------------------------------
#$Date: 2016-02-13 21:28:24 +0200 (Sat, 13 Feb 2016) $
#$Revision: 176429 $
#$URL: svn://www.crystallography.net/cod/cif/1/52/84/1528432.cif $
#------------------------------------------------------------------------------
#
# This file is available in the Crystallography Open Database (COD),
# http://www.crystallography.net/
#
# All data on this site have been placed in the public domain by the
# contributors.
#
data_1528432
loop_
_publ_author_name
'Daszkiewicz, M.'
'Gulay, L.D.'
'Shemet, V.Ya.'
'Pietraszko, A.'
_publ_section_title
;
 Comparative investigation of the crystal structure of Ln Cu Se2 compounds
 (Ln = Tb, Dy, Ho, Er, Tm, Yb and Lu)
;
_journal_name_full
'Zeitschrift fuer Anorganische und Allgemeine Chemie'
_journal_page_first              1201
_journal_page_last               1204
_journal_volume                  634
_journal_year                    2008
_chemical_formula_sum            'Cu Se2 Tm'
_chemical_name_systematic        'Tm Cu Se2'
_space_group_IT_number           164
_symmetry_space_group_name_Hall  '-P 3 2"'
_symmetry_space_group_name_H-M   'P -3 m 1'
_cell_angle_alpha                90
_cell_angle_beta                 90
_cell_angle_gamma                120
_cell_formula_units_Z            1
_cell_length_a                   4.0279
_cell_length_b                   4.0279
_cell_length_c                   6.4423
_cell_volume                     90.517
_citation_journal_id_ASTM        ZAACAB
_cod_data_source_file            Daszkiewicz_ZAACAB_2008_1438.cif
_cod_data_source_block           Cu1Se2Tm1
_cod_original_cell_volume        90.51675
_cod_original_formula_sum        'Cu1 Se2 Tm1'
_cod_database_code               1528432
loop_
_symmetry_equiv_pos_as_xyz
x,y,z
-y,x-y,z
-x+y,-x,z
y,x,-z
-x,-x+y,-z
x-y,-y,-z
-x,-y,-z
y,-x+y,-z
x-y,x,-z
-y,-x,z
x,x-y,z
-x+y,y,z
loop_
_atom_site_label
_atom_site_type_symbol
_atom_site_fract_x
_atom_site_fract_y
_atom_site_fract_z
_atom_site_occupancy
_atom_site_U_iso_or_equiv
Se1 Se-2 0.3333 0.6667 0.7521 1 0.0
Tm1 Tm+3 0 0 0 1 0.0
Cu1 Cu+1 0.3333 0.6667 0.3791 0.5 0.0
