#------------------------------------------------------------------------------
#$Date: 2018-09-27 07:13:35 +0300 (Thu, 27 Sep 2018) $
#$Revision: 211196 $
#$URL: file:///home/coder/svn-repositories/cod/cif/1/52/80/1528072.cif $
#------------------------------------------------------------------------------
#
# This file is available in the Crystallography Open Database (COD),
# http://www.crystallography.net/
#
# All data on this site have been placed in the public domain by the
# contributors.
#
data_1528072
loop_
_publ_author_name
'Sichevich, O.M.'
'Bruskov, V.A.'
'Grin', Yu.'
_publ_section_title
;
 Crystal structure of Tm Ru Ga3 and its analogs
;
_journal_name_full               Kristallografiya
_journal_page_first              1571
_journal_page_last               1573
_journal_volume                  34
_journal_year                    1989
_chemical_formula_sum            'Ga3 Ru Tm'
_space_group_IT_number           221
_symmetry_space_group_name_Hall  '-P 4 2 3'
_symmetry_space_group_name_H-M   'P m -3 m'
_cell_angle_alpha                90
_cell_angle_beta                 90
_cell_angle_gamma                90
_cell_formula_units_Z            3
_cell_length_a                   6.352
_cell_length_b                   6.352
_cell_length_c                   6.352
_cell_volume                     256.290
_citation_journal_id_ASTM        KRISAJ
_cod_data_source_file            Sichevich_KRISAJ_1989_527.cif
_cod_data_source_block           Ga3Ru1Tm1
_cod_original_cell_volume        256.2899
_cod_original_formula_sum        'Ga3 Ru1 Tm1'
_cod_database_code               1528072
loop_
_symmetry_equiv_pos_as_xyz
x,y,z
-y,x,z
-x,-y,z
y,-x,z
x,-y,-z
y,x,-z
-x,y,-z
-y,-x,-z
z,x,y
-x,z,y
-z,-x,y
x,-z,y
z,-x,-y
x,z,-y
-z,x,-y
-x,-z,-y
y,z,x
y,-z,-x
z,y,-x
-y,z,-x
-z,-y,-x
-y,-z,x
z,-y,x
-z,y,x
-x,-y,-z
y,-x,-z
x,y,-z
-y,x,-z
-x,y,z
-y,-x,z
x,-y,z
y,x,z
-z,-x,-y
x,-z,-y
z,x,-y
-x,z,-y
-z,x,y
-x,-z,y
z,-x,y
x,z,y
-y,-z,-x
-y,z,x
-z,-y,x
y,-z,x
z,y,x
y,z,-x
-z,y,-x
z,-y,-x
loop_
_atom_site_label
_atom_site_type_symbol
_atom_site_fract_x
_atom_site_fract_y
_atom_site_fract_z
_atom_site_occupancy
_atom_site_U_iso_or_equiv
Ga1 Ga 0.5 0.5 0.5 1 0.0
Ga2 Ga 0.2113 0.2113 0.2113 1 0.0
Ru1 Ru 0.5 0 0 1 0.0
Tm1 Tm 0 0.5 0.5 1 0.0
