#------------------------------------------------------------------------------
#$Date: 2016-02-13 21:28:24 +0200 (Sat, 13 Feb 2016) $
#$Revision: 176429 $
#$URL: svn://www.crystallography.net/cod/cif/1/52/82/1528237.cif $
#------------------------------------------------------------------------------
#
# This file is available in the Crystallography Open Database (COD),
# http://www.crystallography.net/
#
# All data on this site have been placed in the public domain by the
# contributors.
#
data_1528237
loop_
_publ_author_name
'Yuasa, S.'
'Miyajima, H.'
'Yokoyama, H.'
'Tsuji, K.'
'Shimomura, O.'
'Otani, Y.'
'Katayama, Y.'
'Kusumi, K.'
'Yoita, K.'
_publ_section_title
;
 First-order magnetic phase transition in bcc Fe Rh-Ir alloy under high
 pressure up to 6.2 GPa
;
_journal_name_full               'Journal of the Physical Society of Japan'
_journal_page_first              855
_journal_page_last               858
_journal_volume                  63
_journal_year                    1994
_chemical_formula_sum            'Fe Ir0.05 Rh0.95'
_chemical_name_systematic        'Fe (Ir0.05 Rh0.95)'
_space_group_IT_number           221
_symmetry_space_group_name_Hall  '-P 4 2 3'
_symmetry_space_group_name_H-M   'P m -3 m'
_cell_angle_alpha                90
_cell_angle_beta                 90
_cell_angle_gamma                90
_cell_formula_units_Z            1
_cell_length_a                   2.987
_cell_length_b                   2.987
_cell_length_c                   2.987
_cell_volume                     26.651
_citation_journal_id_ASTM        JUPSAU
_cod_data_source_file            Yuasa_JUPSAU_1994_467.cif
_cod_data_source_block           Fe1Ir0.05Rh0.95
_cod_original_cell_volume        26.65052
_cod_original_formula_sum        'Fe1 Ir0.05 Rh0.95'
_cod_database_code               1528237
loop_
_symmetry_equiv_pos_as_xyz
x,y,z
-y,x,z
-x,-y,z
y,-x,z
x,-y,-z
y,x,-z
-x,y,-z
-y,-x,-z
z,x,y
-x,z,y
-z,-x,y
x,-z,y
z,-x,-y
x,z,-y
-z,x,-y
-x,-z,-y
y,z,x
y,-z,-x
z,y,-x
-y,z,-x
-z,-y,-x
-y,-z,x
z,-y,x
-z,y,x
-x,-y,-z
y,-x,-z
x,y,-z
-y,x,-z
-x,y,z
-y,-x,z
x,-y,z
y,x,z
-z,-x,-y
x,-z,-y
z,x,-y
-x,z,-y
-z,x,y
-x,-z,y
z,-x,y
x,z,y
-y,-z,-x
-y,z,x
-z,-y,x
y,-z,x
z,y,x
y,z,-x
-z,y,-x
z,-y,-x
loop_
_atom_site_label
_atom_site_type_symbol
_atom_site_fract_x
_atom_site_fract_y
_atom_site_fract_z
_atom_site_occupancy
_atom_site_U_iso_or_equiv
Ir1 Ir 0.5 0.5 0.5 0.05 0.0
Fe1 Fe 0 0 0 1 0.0
Rh1 Rh 0.5 0.5 0.5 0.95 0.0
