#------------------------------------------------------------------------------
#$Date: 2018-09-27 07:13:35 +0300 (Thu, 27 Sep 2018) $
#$Revision: 211196 $
#$URL: file:///home/coder/svn-repositories/cod/cif/1/52/81/1528195.cif $
#------------------------------------------------------------------------------
#
# This file is available in the Crystallography Open Database (COD),
# http://www.crystallography.net/
#
# All data on this site have been placed in the public domain by the
# contributors.
#
data_1528195
loop_
_publ_author_name
'Welter, R.'
'Venturini, G.'
'Malaman, B.'
'Ressouche, E.'
_publ_section_title
;
 Crystallographic data and magnetic properties of new R Co Ge (R= La-Nd)
 compounds from susceptibility measurements and neutron diffraction data
;
_journal_name_full               'Journal of Alloys Compd.'
_journal_page_first              191
_journal_page_last               196
_journal_volume                  201
_journal_year                    1993
_chemical_formula_sum            'Co Ge Nd'
_space_group_IT_number           129
_symmetry_space_group_name_Hall  'P 4ab 2ab -1ab'
_symmetry_space_group_name_H-M   'P 4/n m m :1'
_cell_angle_alpha                90
_cell_angle_beta                 90
_cell_angle_gamma                90
_cell_formula_units_Z            2
_cell_length_a                   4.14
_cell_length_b                   4.14
_cell_length_c                   6.785
_cell_volume                     116.292
_citation_journal_id_ASTM        JALCEU
_cod_data_source_file            Welter_JALCEU_1993_346.cif
_cod_data_source_block           Co1Ge1Nd1
_cod_original_cell_volume        116.2922
_cod_original_sg_symbol_Hall     '-P 4a 2a (x-1/4,y+1/4,z)'
_cod_original_formula_sum        'Co1 Ge1 Nd1'
_cod_database_code               1528195
loop_
_symmetry_equiv_pos_as_xyz
x,y,z
-y+1/2,x+1/2,z
-x,-y,z
y+1/2,-x+1/2,z
x+1/2,-y+1/2,-z
y,x,-z
-x+1/2,y+1/2,-z
-y,-x,-z
-x+1/2,-y+1/2,-z
y,-x,-z
x+1/2,y+1/2,-z
-y,x,-z
-x,y,z
-y+1/2,-x+1/2,z
x,-y,z
y+1/2,x+1/2,z
loop_
_atom_site_label
_atom_site_type_symbol
_atom_site_fract_x
_atom_site_fract_y
_atom_site_fract_z
_atom_site_occupancy
_atom_site_U_iso_or_equiv
Ge1 Ge 0 0.5 0.81 1 0.0
Nd1 Nd 0 0.5 0.31 1 0.0
Co1 Co 0 0 0 1 0.0
