#------------------------------------------------------------------------------
#$Date: 2018-09-27 07:13:35 +0300 (Thu, 27 Sep 2018) $
#$Revision: 211196 $
#$URL: file:///home/coder/svn-repositories/cod/cif/1/52/82/1528278.cif $
#------------------------------------------------------------------------------
#
# This file is available in the Crystallography Open Database (COD),
# http://www.crystallography.net/
#
# All data on this site have been placed in the public domain by the
# contributors.
#
data_1528278
loop_
_publ_author_name
'von Schnering, H.G.'
'Hoenle, W.'
_publ_section_title
;
 Darstellung, Struktur und Eigenschaften der Alkalimetallmonophosphide Na
 P und K P
;
_journal_name_full
'Zeitschrift fuer Anorganische und Allgemeine Chemie'
_journal_page_first              194
_journal_page_last               206
_journal_volume                  456
_journal_year                    1979
_chemical_formula_sum            'K P'
_space_group_IT_number           19
_symmetry_space_group_name_Hall  'P 2ac 2ab'
_symmetry_space_group_name_H-M   'P 21 21 21'
_cell_angle_alpha                90
_cell_angle_beta                 90
_cell_angle_gamma                90
_cell_formula_units_Z            8
_cell_length_a                   6.5
_cell_length_b                   6.016
_cell_length_c                   11.288
_cell_volume                     441.406
_citation_journal_id_ASTM        ZAACAB
_cod_data_source_file            vonSchnering_ZAACAB_1979_835.cif
_cod_data_source_block           K1P1
_cod_original_cell_volume        441.4059
_cod_original_formula_sum        'K1 P1'
_cod_database_code               1528278
loop_
_symmetry_equiv_pos_as_xyz
x,y,z
-x+1/2,-y,z+1/2
x+1/2,-y+1/2,-z
-x,y+1/2,-z+1/2
loop_
_atom_site_label
_atom_site_type_symbol
_atom_site_fract_x
_atom_site_fract_y
_atom_site_fract_z
_atom_site_occupancy
_atom_site_U_iso_or_equiv
P1 P-1 0.34 0.158 0.282 1 0.0
K1 K+1 0.403 0.92 0.036 1 0.0
P2 P-1 0.428 0.417 0.15 1 0.0
K2 K+1 0.141 0.652 0.334 1 0.0
