#------------------------------------------------------------------------------
#$Date: 2018-09-27 07:13:35 +0300 (Thu, 27 Sep 2018) $
#$Revision: 211196 $
#$URL: file:///home/coder/svn-repositories/cod/cif/1/52/81/1528139.cif $
#------------------------------------------------------------------------------
#
# This file is available in the Crystallography Open Database (COD),
# http://www.crystallography.net/
#
# All data on this site have been placed in the public domain by the
# contributors.
#
data_1528139
loop_
_publ_author_name
'Tomey, E.'
'Isnard, O.'
'Desmoulins, C.'
'Fruchart, D.'
'Fagan, A.'
'Miraglia, S.'
'Soubeyroux, J.L.'
_publ_section_title
;
 Modulation of spin orientation transitions in the series R (Fe, M12) Xy
 (R= Y, Nd, Ho; M= Mo, Ti; X= N, H)
;
_journal_name_full               'Journal of Alloys Compd.'
_journal_page_first              233
_journal_page_last               238
_journal_volume                  191
_journal_year                    1993
_chemical_formula_sum            'Fe10.4 Mo1.6 Y'
_space_group_IT_number           139
_symmetry_space_group_name_Hall  '-I 4 2'
_symmetry_space_group_name_H-M   'I 4/m m m'
_cell_angle_alpha                90
_cell_angle_beta                 90
_cell_angle_gamma                90
_cell_formula_units_Z            2
_cell_length_a                   8.5336
_cell_length_b                   8.5336
_cell_length_c                   4.782
_cell_volume                     348.236
_citation_journal_id_ASTM        JALCEU
_cod_data_source_file            Tomey_JALCEU_1993_472.cif
_cod_data_source_block           Fe10.4Mo1.6Y1
_cod_original_cell_volume        348.2364
_cod_original_formula_sum        'Fe10.4 Mo1.6 Y1'
_cod_database_code               1528139
loop_
_symmetry_equiv_pos_as_xyz
x,y,z
-y,x,z
-x,-y,z
y,-x,z
x,-y,-z
y,x,-z
-x,y,-z
-y,-x,-z
-x,-y,-z
y,-x,-z
x,y,-z
-y,x,-z
-x,y,z
-y,-x,z
x,-y,z
y,x,z
x+1/2,y+1/2,z+1/2
-y+1/2,x+1/2,z+1/2
-x+1/2,-y+1/2,z+1/2
y+1/2,-x+1/2,z+1/2
x+1/2,-y+1/2,-z+1/2
y+1/2,x+1/2,-z+1/2
-x+1/2,y+1/2,-z+1/2
-y+1/2,-x+1/2,-z+1/2
-x+1/2,-y+1/2,-z+1/2
y+1/2,-x+1/2,-z+1/2
x+1/2,y+1/2,-z+1/2
-y+1/2,x+1/2,-z+1/2
-x+1/2,y+1/2,z+1/2
-y+1/2,-x+1/2,z+1/2
x+1/2,-y+1/2,z+1/2
y+1/2,x+1/2,z+1/2
loop_
_atom_site_label
_atom_site_type_symbol
_atom_site_fract_x
_atom_site_fract_y
_atom_site_fract_z
_atom_site_occupancy
_atom_site_U_iso_or_equiv
Fe1 Fe 0.25 0.25 0.25 1 0.0
Y1 Y 0 0 0 1 0.0
Fe2 Fe 0.2775 0.5 0 1 0.0
Mo3 Mo 0.359 0 0 0.4 0.0
Fe3 Fe 0.359 0 0 0.6 0.0
