#------------------------------------------------------------------------------
#$Date: 2016-02-13 21:28:24 +0200 (Sat, 13 Feb 2016) $
#$Revision: 176429 $
#$URL: svn://www.crystallography.net/cod/cif/1/52/87/1528786.cif $
#------------------------------------------------------------------------------
#
# This file is available in the Crystallography Open Database (COD),
# http://www.crystallography.net/
#
# All data on this site have been placed in the public domain by the
# contributors.
#
data_1528786
loop_
_publ_author_name
'Pastrana-Fabregas, R.'
'Cascales, C.'
'Isasi-Marin, J.'
'Saez-Puche, R.'
_publ_section_title
;
 Synthesis, structure and magnetic properties of R-W-O-N (R = Nd and Eu)
 oxynitrides
;
_journal_name_full               'Journal of Solid State Chemistry'
_journal_page_first              92
_journal_page_last               97
_journal_volume                  180
_journal_year                    2007
_chemical_formula_sum            'Eu N1.42 O1.58 W'
_chemical_name_systematic        'Eu W O1.58 N1.42'
_space_group_IT_number           221
_symmetry_space_group_name_Hall  '-P 4 2 3'
_symmetry_space_group_name_H-M   'P m -3 m'
_cell_angle_alpha                90
_cell_angle_beta                 90
_cell_angle_gamma                90
_cell_formula_units_Z            1
_cell_length_a                   3.976
_cell_length_b                   3.976
_cell_length_c                   3.976
_cell_volume                     62.855
_citation_journal_id_ASTM        JSSCBI
_cod_data_source_file            Pastrana-Fabregas_JSSCBI_2007_1220.cif
_cod_data_source_block           Eu1N1.42O1.58W1
_cod_original_cell_volume        62.8549
_cod_original_formula_sum        'Eu1 N1.42 O1.58 W1'
_cod_database_code               1528786
loop_
_symmetry_equiv_pos_as_xyz
x,y,z
-y,x,z
-x,-y,z
y,-x,z
x,-y,-z
y,x,-z
-x,y,-z
-y,-x,-z
z,x,y
-x,z,y
-z,-x,y
x,-z,y
z,-x,-y
x,z,-y
-z,x,-y
-x,-z,-y
y,z,x
y,-z,-x
z,y,-x
-y,z,-x
-z,-y,-x
-y,-z,x
z,-y,x
-z,y,x
-x,-y,-z
y,-x,-z
x,y,-z
-y,x,-z
-x,y,z
-y,-x,z
x,-y,z
y,x,z
-z,-x,-y
x,-z,-y
z,x,-y
-x,z,-y
-z,x,y
-x,-z,y
z,-x,y
x,z,y
-y,-z,-x
-y,z,x
-z,-y,x
y,-z,x
z,y,x
y,z,-x
-z,y,-x
z,-y,-x
loop_
_atom_site_label
_atom_site_type_symbol
_atom_site_fract_x
_atom_site_fract_y
_atom_site_fract_z
_atom_site_occupancy
_atom_site_U_iso_or_equiv
W1 W+4 0.5 0.5 0.5 1 0.0
N1 N-3 0 0.5 0.5 0.4733 0.0
Eu1 Eu+3 0 0 0 1 0.0
O1 O-2 0 0.5 0.5 0.5267 0.0
