#------------------------------------------------------------------------------
#$Date: 2016-02-13 21:28:24 +0200 (Sat, 13 Feb 2016) $
#$Revision: 176429 $
#$URL: svn://www.crystallography.net/cod/cif/1/52/84/1528405.cif $
#------------------------------------------------------------------------------
#
# This file is available in the Crystallography Open Database (COD),
# http://www.crystallography.net/
#
# All data on this site have been placed in the public domain by the
# contributors.
#
data_1528405
loop_
_publ_author_name
'Chakir, M.'
'El Jazouli, A.'
'de Waal, D.'
'Chaminade, J.P.'
'Bouree, F.'
_publ_section_title
;
 New process of preparation, x-ray characterisation, structure and
 vibrational studies of a solid solution Li Ti O As(1-x) P(x) O4 (0 <= x
 <= 1)
;
_journal_name_full               'Journal of Solid State Chemistry'
_journal_page_first              18
_journal_page_last               28
_journal_volume                  179
_journal_year                    2006
_chemical_formula_sum            'Li O5 P Ti'
_chemical_name_systematic        'Li Ti O P O4'
_space_group_IT_number           62
_symmetry_space_group_name_Hall  '-P 2ac 2n'
_symmetry_space_group_name_H-M   'P n m a'
_cell_angle_alpha                90
_cell_angle_beta                 90
_cell_angle_gamma                90
_cell_formula_units_Z            4
_cell_length_a                   7.401
_cell_length_b                   6.375
_cell_length_c                   7.235
_cell_volume                     341.357
_citation_journal_id_ASTM        JSSCBI
_cod_data_source_file            Chakir_JSSCBI_2006_1085.cif
_cod_data_source_block           Li1O5P1Ti1
_cod_original_cell_volume        341.3573
_cod_original_formula_sum        'Li1 O5 P1 Ti1'
_cod_database_code               1528405
loop_
_symmetry_equiv_pos_as_xyz
x,y,z
-x+1/2,-y,z+1/2
x+1/2,-y+1/2,-z+1/2
-x,y+1/2,-z
-x,-y,-z
x-1/2,y,-z-1/2
-x-1/2,y-1/2,z-1/2
x,-y-1/2,z
loop_
_atom_site_label
_atom_site_type_symbol
_atom_site_fract_x
_atom_site_fract_y
_atom_site_fract_z
_atom_site_occupancy
_atom_site_U_iso_or_equiv
P1 P+5 0.374 0.25 0.127 1 0.0
Ti1 Ti+4 0.322 0.75 0.219 1 0.0
O1 O-2 0.112 0.75 0.15 1 0.0
O4 O-2 0.871 0.446 0.247 1 0.0
O3 O-2 0.047 0.25 0.484 1 0.0
O2 O-2 0.791 0.75 -0.001 1 0.0
Li1 Li+1 0 0 0 1 0.0
