#------------------------------------------------------------------------------
#$Date: 2016-02-13 21:28:24 +0200 (Sat, 13 Feb 2016) $
#$Revision: 176429 $
#$URL: svn://www.crystallography.net/cod/cif/1/52/81/1528144.cif $
#------------------------------------------------------------------------------
#
# This file is available in the Crystallography Open Database (COD),
# http://www.crystallography.net/
#
# All data on this site have been placed in the public domain by the
# contributors.
#
data_1528144
loop_
_publ_author_name
'Tran, V.H.'
'Troc, R.'
'Badurski, D.'
_publ_section_title
;
 Magnetic and transport properties of U Cu Ga, U2 Cu Ga3 and U Au Ga
;
_journal_name_full               'Journal of Alloys Compd.'
_journal_page_first              193
_journal_page_last               196
_journal_volume                  199
_journal_year                    1993
_chemical_formula_sum            'Cu0.5 Ga1.5 U'
_chemical_name_systematic        '(Cu0.25 Ga0.75)2 U'
_space_group_IT_number           191
_symmetry_space_group_name_Hall  '-P 6 2'
_symmetry_space_group_name_H-M   'P 6/m m m'
_cell_angle_alpha                90
_cell_angle_beta                 90
_cell_angle_gamma                120
_cell_formula_units_Z            1
_cell_length_a                   4.348
_cell_length_b                   4.348
_cell_length_c                   3.605
_cell_volume                     59.022
_citation_journal_id_ASTM        JALCEU
_cod_data_source_file            Tran_JALCEU_1993_398.cif
_cod_data_source_block           Cu0.5Ga1.5U1
_cod_original_cell_volume        59.02214
_cod_original_formula_sum        'Cu0.5 Ga1.5 U1'
_cod_database_code               1528144
loop_
_symmetry_equiv_pos_as_xyz
x,y,z
x-y,x,z
-y,x-y,z
-x,-y,z
-x+y,-x,z
y,-x+y,z
-y,-x,-z
x-y,-y,-z
x,x-y,-z
y,x,-z
-x+y,y,-z
-x,-x+y,-z
-x,-y,-z
-x+y,-x,-z
y,-x+y,-z
x,y,-z
x-y,x,-z
-y,x-y,-z
y,x,z
-x+y,y,z
-x,-x+y,z
-y,-x,z
x-y,-y,z
x,x-y,z
loop_
_atom_site_label
_atom_site_type_symbol
_atom_site_fract_x
_atom_site_fract_y
_atom_site_fract_z
_atom_site_occupancy
_atom_site_U_iso_or_equiv
Ga1 Ga 0.3333 0.6667 0.5 0.75 0.0
U1 U 0 0 0 1 0.0
Cu1 Cu 0.3333 0.6667 0.5 0.25 0.0
