#------------------------------------------------------------------------------
#$Date: 2016-02-13 21:28:24 +0200 (Sat, 13 Feb 2016) $
#$Revision: 176429 $
#$URL: svn://www.crystallography.net/cod/cif/1/52/81/1528161.cif $
#------------------------------------------------------------------------------
#
# This file is available in the Crystallography Open Database (COD),
# http://www.crystallography.net/
#
# All data on this site have been placed in the public domain by the
# contributors.
#
data_1528161
loop_
_publ_author_name
'Vasilechko, L.O.'
'Grin', Yu.'
'Fedorchuk, A.A.'
_publ_section_title
;
 New ternary gallides with the K Hg2 and Ca In2 structures
;
_journal_name_full               'Neorganicheskie Materialy'
_journal_page_first              1409
_journal_page_last               1411
_journal_volume                  30
_journal_year                    1994
_chemical_formula_sum            'Ga1.6 Ni0.4 Y'
_chemical_name_systematic        '(Ga0.8 Ni0.2)2 Y'
_space_group_IT_number           194
_symmetry_space_group_name_Hall  '-P 6c 2c'
_symmetry_space_group_name_H-M   'P 63/m m c'
_cell_angle_alpha                90
_cell_angle_beta                 90
_cell_angle_gamma                120
_cell_formula_units_Z            2
_cell_length_a                   4.342
_cell_length_b                   4.342
_cell_length_c                   7.249
_cell_volume                     118.355
_citation_journal_id_ASTM        NMATEI
_cod_data_source_file            Vasilechko_NMATEI_1994_523.cif
_cod_data_source_block           Ga1.6Ni0.4Y1
_cod_original_cell_volume        118.3555
_cod_original_formula_sum        'Ga1.6 Ni0.4 Y1'
_cod_database_code               1528161
loop_
_symmetry_equiv_pos_as_xyz
x,y,z
x-y,x,z+1/2
-y,x-y,z
-x,-y,z+1/2
-x+y,-x,z
y,-x+y,z+1/2
-y,-x,-z+1/2
x-y,-y,-z
x,x-y,-z+1/2
y,x,-z
-x+y,y,-z+1/2
-x,-x+y,-z
-x,-y,-z
-x+y,-x,-z-1/2
y,-x+y,-z
x,y,-z-1/2
x-y,x,-z
-y,x-y,-z-1/2
y,x,z-1/2
-x+y,y,z
-x,-x+y,z-1/2
-y,-x,z
x-y,-y,z-1/2
x,x-y,z
loop_
_atom_site_label
_atom_site_type_symbol
_atom_site_fract_x
_atom_site_fract_y
_atom_site_fract_z
_atom_site_occupancy
_atom_site_U_iso_or_equiv
Ni1 Ni 0.3333 0.6667 0.469 0.2 0.0
Ga1 Ga 0.3333 0.6667 0.469 0.8 0.0
Y1 Y 0 0 0.25 1 0.0
