#------------------------------------------------------------------------------
#$Date: 2016-02-13 21:28:24 +0200 (Sat, 13 Feb 2016) $
#$Revision: 176429 $
#$URL: svn://www.crystallography.net/cod/cif/1/52/83/1528310.cif $
#------------------------------------------------------------------------------
#
# This file is available in the Crystallography Open Database (COD),
# http://www.crystallography.net/
#
# All data on this site have been placed in the public domain by the
# contributors.
#
data_1528310
loop_
_publ_author_name
'Andreassen Delphin, I.L.'
'Selte, K.'
'Kjekshus, A.'
'Andresen, A.F.'
_publ_section_title
;
 Structural and magnetic properties of Cr1-t Nit As, Mn1-t Nit As and
 Fe1-t Nit As
;
_journal_name_full
'Acta Chemica Scandinavica, Series A: (28,1974-)'
_journal_page_first              179
_journal_page_last               185
_journal_volume                  32
_journal_year                    1978
_chemical_formula_sum            'As Cr0.98 Ni0.02'
_chemical_name_systematic        'Cr0.98 Ni0.02 As'
_space_group_IT_number           62
_symmetry_space_group_name_Hall  '-P 2ac 2n'
_symmetry_space_group_name_H-M   'P n m a'
_cell_angle_alpha                90
_cell_angle_beta                 90
_cell_angle_gamma                90
_cell_formula_units_Z            4
_cell_length_a                   5.5939
_cell_length_b                   3.5794
_cell_length_c                   6.1343
_cell_volume                     122.826
_citation_journal_id_ASTM        ACAPCT
_cod_data_source_file            AndreassenDelphin_ACAPCT_1978_50.cif
_cod_data_source_block           As1Cr0.98Ni0.02
_cod_original_cell_volume        122.8259
_cod_original_formula_sum        'As1 Cr0.98 Ni0.02'
_cod_database_code               1528310
loop_
_symmetry_equiv_pos_as_xyz
x,y,z
-x+1/2,-y,z+1/2
x+1/2,-y+1/2,-z+1/2
-x,y+1/2,-z
-x,-y,-z
x-1/2,y,-z-1/2
-x-1/2,y-1/2,z-1/2
x,-y-1/2,z
loop_
_atom_site_label
_atom_site_type_symbol
_atom_site_fract_x
_atom_site_fract_y
_atom_site_fract_z
_atom_site_occupancy
_atom_site_U_iso_or_equiv
Ni1 Ni 0.0078 0.25 0.2035 0.02 0.0
As1 As 0.2043 0.25 0.5844 1 0.0
Cr1 Cr 0.0078 0.25 0.2035 0.98 0.0
