#------------------------------------------------------------------------------
#$Date: 2016-02-13 14:50:18 +0200 (Sat, 13 Feb 2016) $
#$Revision: 176428 $
#$URL: svn://www.crystallography.net/cod/cif/1/52/94/1529419.cif $
#------------------------------------------------------------------------------
#
# This file is available in the Crystallography Open Database (COD),
# http://www.crystallography.net/
#
# All data on this site have been placed in the public domain by the
# contributors.
#
data_1529419
loop_
_publ_author_name
'I.N. Flerov'
'V.D. Fokina'
'A.F. Bovina'
'E.V. Bogdanov'
'M.S. Molokeev'
'A.G. Kocharova'
'E.I. Pogoreltsev'
'N.M. Laptash'
_publ_contact_author_address
;
Kirensky Institute of Physics of SB RAS 
Akademgorodok 50-38
660036 Krasnoyarsk
Russia 
;
_publ_contact_author_email       msmolokeev@gmail.com
_publ_contact_author_fax         +(3912)43-89-23
_publ_contact_author_name        'Molokeev Maxim'
_publ_contact_author_phone       +7-950-437-17-72
_publ_section_title
;
 Mechanism and nature of phase transitions in the (NH4)3MoO3F3 oxyfluoride
;
_journal_issue                   3
_journal_name_full               'Physics of the Solid State'
_journal_page_first              515
_journal_page_last               524
_journal_paper_doi               10.1134/S1063783408030219
_journal_volume                  50
_journal_year                    2008
_chemical_formula_sum            'F3 H12 Mo N3 O3'
_chemical_formula_weight         243.18
_chemical_name_systematic        ' ?'
_space_group_IT_number           225
_symmetry_cell_setting           cubic
_symmetry_space_group_name_Hall  '-F 4 2 3'
_symmetry_space_group_name_H-M   'F m -3 m'
_cell_angle_alpha                90.00000
_cell_angle_beta                 90.00000
_cell_angle_gamma                90.00000
_cell_formula_units_Z            4
_cell_length_a                   9.13210
_cell_length_b                   9.13210
_cell_length_c                   9.13210
_cell_volume                     761.574
_computing_structure_refinement  FULLPROF
_diffrn_radiation_type           X-ray
_pd_instr_location               ' ?'
_pd_meas_2theta_range_inc        0.020000
_pd_meas_2theta_range_max        110.00000
_pd_meas_2theta_range_min        15.00000
_pd_meas_number_of_points        4751
_pd_proc_2theta_range_inc        0.020000
_pd_proc_2theta_range_max        110.0079
_pd_proc_2theta_range_min        15.0079
_pd_proc_ls_pref_orient_corr     ' ?'
_pd_proc_ls_prof_R_factor        8.9433
_pd_proc_ls_prof_wR_expected     6.5526
_pd_proc_ls_prof_wR_factor       11.8344
_pd_proc_wavelength              1.540560
_pd_spec_mounting                ' ?'
_refine_ls_number_parameters     17
_refine_ls_number_reflns         82
_refine_ls_number_restraints     0
_refine_ls_R_I_factor            8.7848
_cod_data_source_file            nh43moo3f3.cif
_cod_data_source_block           global
_cod_depositor_comments
;
The following automatic conversions were performed:

'_symmetry_cell_setting' value 'Cubic' changed to 'cubic' according
to the built-in table from CIF Core dictionary named 'cif_core.dic'
version 2.4.1 from 2010-06-29.

Automatic conversion script
Id: cif_fix_values 3392 2015-05-12 13:50:21Z andrius 
;
_cod_original_cell_volume        761.57428
_cod_original_sg_symbol_H-M      'F M 3 M'
_cod_database_code               1529419
#BEGIN Tags that were not found in dictionaries:
_pd_proc_ls_prof_cr_factor       26.0445
_pd_proc_ls_prof_cwr_factor      22.0909
_pd_proc_ls_prof_cwr_expected    12.2316
_pd_proc_ls_prof_chi2            3.2618
_pd_proc_ls_prof_echi2           3.4771
#END Tags that were not found in dictionaries
loop_
_symmetry_equiv_pos_as_xyz
x,y,z
x,-y,-z
-x,y,-z
-x,-y,z
y,z,x
-y,-z,x
y,-z,-x
-y,z,-x
z,x,y
-z,x,-y
-z,-x,y
z,-x,-y
y,x,z
-y,x,-z
y,-x,-z
-y,-x,z
z,y,x
-z,-y,x
-z,y,-x
z,-y,-x
x,z,y
x,-z,-y
-x,-z,y
-x,z,-y
-x,-y,-z
-x,y,z
x,-y,z
x,y,-z
-y,-z,-x
y,z,-x
-y,z,x
y,-z,x
-z,-x,-y
z,-x,y
z,x,-y
-z,x,y
-y,-x,-z
y,-x,z
-y,x,z
y,x,-z
-z,-y,-x
z,y,-x
z,-y,x
-z,y,x
-x,-z,-y
-x,z,y
x,z,-y
x,-z,y
x+1/2,y+1/2,z
x+1/2,-y+1/2,-z
-x+1/2,y+1/2,-z
-x+1/2,-y+1/2,z
y+1/2,z+1/2,x
-y+1/2,-z+1/2,x
y+1/2,-z+1/2,-x
-y+1/2,z+1/2,-x
z+1/2,x+1/2,y
-z+1/2,x+1/2,-y
-z+1/2,-x+1/2,y
z+1/2,-x+1/2,-y
y+1/2,x+1/2,z
-y+1/2,x+1/2,-z
y+1/2,-x+1/2,-z
-y+1/2,-x+1/2,z
z+1/2,y+1/2,x
-z+1/2,-y+1/2,x
-z+1/2,y+1/2,-x
z+1/2,-y+1/2,-x
x+1/2,z+1/2,y
x+1/2,-z+1/2,-y
-x+1/2,-z+1/2,y
-x+1/2,z+1/2,-y
-x+1/2,-y+1/2,-z
-x+1/2,y+1/2,z
x+1/2,-y+1/2,z
x+1/2,y+1/2,-z
-y+1/2,-z+1/2,-x
y+1/2,z+1/2,-x
-y+1/2,z+1/2,x
y+1/2,-z+1/2,x
-z+1/2,-x+1/2,-y
z+1/2,-x+1/2,y
z+1/2,x+1/2,-y
-z+1/2,x+1/2,y
-y+1/2,-x+1/2,-z
y+1/2,-x+1/2,z
-y+1/2,x+1/2,z
y+1/2,x+1/2,-z
-z+1/2,-y+1/2,-x
z+1/2,y+1/2,-x
z+1/2,-y+1/2,x
-z+1/2,y+1/2,x
-x+1/2,-z+1/2,-y
-x+1/2,z+1/2,y
x+1/2,z+1/2,-y
x+1/2,-z+1/2,y
x+1/2,y,z+1/2
x+1/2,-y,-z+1/2
-x+1/2,y,-z+1/2
-x+1/2,-y,z+1/2
y+1/2,z,x+1/2
-y+1/2,-z,x+1/2
y+1/2,-z,-x+1/2
-y+1/2,z,-x+1/2
z+1/2,x,y+1/2
-z+1/2,x,-y+1/2
-z+1/2,-x,y+1/2
z+1/2,-x,-y+1/2
y+1/2,x,z+1/2
-y+1/2,x,-z+1/2
y+1/2,-x,-z+1/2
-y+1/2,-x,z+1/2
z+1/2,y,x+1/2
-z+1/2,-y,x+1/2
-z+1/2,y,-x+1/2
z+1/2,-y,-x+1/2
x+1/2,z,y+1/2
x+1/2,-z,-y+1/2
-x+1/2,-z,y+1/2
-x+1/2,z,-y+1/2
-x+1/2,-y,-z+1/2
-x+1/2,y,z+1/2
x+1/2,-y,z+1/2
x+1/2,y,-z+1/2
-y+1/2,-z,-x+1/2
y+1/2,z,-x+1/2
-y+1/2,z,x+1/2
y+1/2,-z,x+1/2
-z+1/2,-x,-y+1/2
z+1/2,-x,y+1/2
z+1/2,x,-y+1/2
-z+1/2,x,y+1/2
-y+1/2,-x,-z+1/2
y+1/2,-x,z+1/2
-y+1/2,x,z+1/2
y+1/2,x,-z+1/2
-z+1/2,-y,-x+1/2
z+1/2,y,-x+1/2
z+1/2,-y,x+1/2
-z+1/2,y,x+1/2
-x+1/2,-z,-y+1/2
-x+1/2,z,y+1/2
x+1/2,z,-y+1/2
x+1/2,-z,y+1/2
x,y+1/2,z+1/2
x,-y+1/2,-z+1/2
-x,y+1/2,-z+1/2
-x,-y+1/2,z+1/2
y,z+1/2,x+1/2
-y,-z+1/2,x+1/2
y,-z+1/2,-x+1/2
-y,z+1/2,-x+1/2
z,x+1/2,y+1/2
-z,x+1/2,-y+1/2
-z,-x+1/2,y+1/2
z,-x+1/2,-y+1/2
y,x+1/2,z+1/2
-y,x+1/2,-z+1/2
y,-x+1/2,-z+1/2
-y,-x+1/2,z+1/2
z,y+1/2,x+1/2
-z,-y+1/2,x+1/2
-z,y+1/2,-x+1/2
z,-y+1/2,-x+1/2
x,z+1/2,y+1/2
x,-z+1/2,-y+1/2
-x,-z+1/2,y+1/2
-x,z+1/2,-y+1/2
-x,-y+1/2,-z+1/2
-x,y+1/2,z+1/2
x,-y+1/2,z+1/2
x,y+1/2,-z+1/2
-y,-z+1/2,-x+1/2
y,z+1/2,-x+1/2
-y,z+1/2,x+1/2
y,-z+1/2,x+1/2
-z,-x+1/2,-y+1/2
z,-x+1/2,y+1/2
z,x+1/2,-y+1/2
-z,x+1/2,y+1/2
-y,-x+1/2,-z+1/2
y,-x+1/2,z+1/2
-y,x+1/2,z+1/2
y,x+1/2,-z+1/2
-z,-y+1/2,-x+1/2
z,y+1/2,-x+1/2
z,-y+1/2,x+1/2
-z,y+1/2,x+1/2
-x,-z+1/2,-y+1/2
-x,z+1/2,y+1/2
x,z+1/2,-y+1/2
x,-z+1/2,y+1/2
loop_
_atom_site_label
_atom_site_fract_x
_atom_site_fract_y
_atom_site_fract_z
_atom_site_U_iso_or_equiv
_atom_site_occupancy
_atom_site_adp_type
_atom_site_type_symbol
Mo 0.00000 0.00000 0.00000 0.0789(11) 1.00000 Uiso Mo
N1 0.50000 0.50000 0.50000 0.050239(8) 1.00000 Uiso N
N2 0.25000 0.25000 0.25000 0.060(3) 1.00024 Uiso N
F 0.00000 0.00000 0.1880(6) 0.165(5) 0.50008 Uani F
O 0.00000 0.00000 0.1880(6) 0.165(5) 0.50008 Uani O
loop_
_atom_site_aniso_label
_atom_site_aniso_U_11
_atom_site_aniso_U_22
_atom_site_aniso_U_33
_atom_site_aniso_U_12
_atom_site_aniso_U_13
_atom_site_aniso_U_23
_atom_site_aniso_type_symbol
F 0.202(5) 0.202(5) 0.091(4) 0.00000 0.00000 0.00000 F
O 0.202(5) 0.202(5) 0.091(4) 0.00000 0.00000 0.00000 O
loop_
_atom_type_symbol
_atom_type_scat_Cromer_Mann_a1
_atom_type_scat_Cromer_Mann_b1
_atom_type_scat_Cromer_Mann_a2
_atom_type_scat_Cromer_Mann_b2
_atom_type_scat_Cromer_Mann_a3
_atom_type_scat_Cromer_Mann_b3
_atom_type_scat_Cromer_Mann_a4
_atom_type_scat_Cromer_Mann_b4
_atom_type_scat_Cromer_Mann_c
_atom_type_scat_dispersion_real
_atom_type_scat_dispersion_imag
_atom_type_scat_source
mo 3.70250 0.27720 17.23560 1.09580 12.88760 11.00400 3.74290 61.65840 4.38750
-0.19100 2.73500
International_Tables_for_Crystallography_Vol.C(1991)_Tables_6.1.1.4_and_6.1.1.5
n 12.21260 0.00570 3.13220 9.89330 2.01250 28.99750 1.16630 0.58260 -11.52900
0.02900 0.01800
International_Tables_for_Crystallography_Vol.C(1991)_Tables_6.1.1.4_and_6.1.1.5
f 3.53920 10.28250 2.64120 4.29440 1.51700 0.26150 1.02430 26.14760 0.27760
0.06900 0.05300
International_Tables_for_Crystallography_Vol.C(1991)_Tables_6.1.1.4_and_6.1.1.5
o 3.04850 13.27710 2.28680 5.70110 1.54630 0.32390 0.86700 32.90890 0.25080
0.04700 0.03200
International_Tables_for_Crystallography_Vol.C(1991)_Tables_6.1.1.4_and_6.1.1.5
