#------------------------------------------------------------------------------
#$Date: 2015-07-17 16:38:13 +0300 (Fri, 17 Jul 2015) $
#$Revision: 152204 $
#$URL: svn://www.crystallography.net/cod/cif/1/52/91/1529141.cif $
#------------------------------------------------------------------------------
#
# This file is available in the Crystallography Open Database (COD),
# http://www.crystallography.net/
#
# All data on this site have been placed in the public domain by the
# contributors.
#
data_1529141
loop_
_publ_author_name
'Knee, C.S.'
'Weller, M.T.'
'Field, M.A.L.'
_publ_section_title
;
 Neutron diffraction study of the antiferromagnetic oxyhalides Sr3 Fe2 O5
 Cl2, Sr3 Fe2 O5 Br and Sr3 Fe Co O5 Cl2
;
_journal_name_full               'Solid State Sciences'
_journal_page_first              443
_journal_page_last               450
_journal_volume                  6
_journal_year                    2004
_chemical_formula_sum            'Cl2 Fe2 O5 Sr3'
_chemical_name_systematic        'Sr3 (Fe2 O5 Cl2)'
_space_group_IT_number           139
_symmetry_space_group_name_Hall  '-I 4 2'
_symmetry_space_group_name_H-M   'I 4/m m m'
_cell_angle_alpha                90
_cell_angle_beta                 90
_cell_angle_gamma                90
_cell_formula_units_Z            2
_cell_length_a                   3.93849
_cell_length_b                   3.93849
_cell_length_c                   23.6901
_cell_volume                     367.474
_citation_journal_id_ASTM        SSSCFJ
_cod_data_source_file            Knee_SSSCFJ_2004_75.cif
_cod_data_source_block           Cl2Fe2O5Sr3
_cod_original_cell_volume        367.4738
_cod_database_code               1529141
loop_
_symmetry_equiv_pos_as_xyz
x,y,z
-y,x,z
-x,-y,z
y,-x,z
x,-y,-z
y,x,-z
-x,y,-z
-y,-x,-z
-x,-y,-z
y,-x,-z
x,y,-z
-y,x,-z
-x,y,z
-y,-x,z
x,-y,z
y,x,z
x+1/2,y+1/2,z+1/2
-y+1/2,x+1/2,z+1/2
-x+1/2,-y+1/2,z+1/2
y+1/2,-x+1/2,z+1/2
x+1/2,-y+1/2,-z+1/2
y+1/2,x+1/2,-z+1/2
-x+1/2,y+1/2,-z+1/2
-y+1/2,-x+1/2,-z+1/2
-x+1/2,-y+1/2,-z+1/2
y+1/2,-x+1/2,-z+1/2
x+1/2,y+1/2,-z+1/2
-y+1/2,x+1/2,-z+1/2
-x+1/2,y+1/2,z+1/2
-y+1/2,-x+1/2,z+1/2
x+1/2,-y+1/2,z+1/2
y+1/2,x+1/2,z+1/2
loop_
_atom_site_label
_atom_site_type_symbol
_atom_site_fract_x
_atom_site_fract_y
_atom_site_fract_z
_atom_site_occupancy
_atom_site_U_iso_or_equiv
Fe1 Fe+3 0 0 0.42101 1 0.0
Sr1 Sr+2 0 0 0 1 0.0
O1 O-2 0 0 0.5 1 0.0
Cl1 Cl-1 0 0 0.29498 1 0.0
O2 O-2 0.5 0 0.0901 1 0.0
Sr2 Sr+2 0 0 0.15742 1 0.0
