#------------------------------------------------------------------------------
#$Date: 2015-09-05 14:31:16 +0300 (Sat, 05 Sep 2015) $
#$Revision: 154420 $
#$URL: svn://www.crystallography.net/cod/cif/1/52/97/1529791.cif $
#------------------------------------------------------------------------------
#
# This file is available in the Crystallography Open Database (COD),
# http://www.crystallography.net/
#
# All data on this site have been placed in the public domain by the
# contributors.
#
data_1529791
loop_
_publ_author_name
'Daoudi, A.'
'Noel, H.'
_publ_section_title
;
 Phase relationships in the uranium-palladium-sulfur system.
 Characterization and crystal structure of Ux Pd3 S4 (0.9< x< 1)
;
_journal_name_full               'Inorganica Chimica Acta'
_journal_page_first              183
_journal_page_last               185
_journal_volume                  117
_journal_year                    1986
_chemical_formula_sum            'Pd3 S4 U0.92'
_chemical_name_systematic        'U0.92 Pd3 S4'
_space_group_IT_number           223
_symmetry_space_group_name_Hall  '-P 4n 2 3'
_symmetry_space_group_name_H-M   'P m -3 n'
_cell_angle_alpha                90
_cell_angle_beta                 90
_cell_angle_gamma                90
_cell_formula_units_Z            2
_cell_length_a                   6.639
_cell_length_b                   6.639
_cell_length_c                   6.639
_cell_volume                     292.623
_citation_journal_id_ASTM        ICHAA3
_cod_data_source_file            Daoudi_ICHAA3_1986_1161.cif
_cod_data_source_block           Pd3S4U0.92
_cod_original_cell_volume        292.6227
_cod_database_code               1529791
loop_
_symmetry_equiv_pos_as_xyz
x,y,z
-y+1/2,x+1/2,z+1/2
-x,-y,z
y+1/2,-x+1/2,z+1/2
x,-y,-z
y+1/2,x+1/2,-z+1/2
-x,y,-z
-y+1/2,-x+1/2,-z+1/2
z,x,y
-x+1/2,z+1/2,y+1/2
-z,-x,y
x+1/2,-z+1/2,y+1/2
z,-x,-y
x+1/2,z+1/2,-y+1/2
-z,x,-y
-x+1/2,-z+1/2,-y+1/2
y,z,x
y,-z,-x
z+1/2,y+1/2,-x+1/2
-y,z,-x
-z+1/2,-y+1/2,-x+1/2
-y,-z,x
z+1/2,-y+1/2,x+1/2
-z+1/2,y+1/2,x+1/2
-x,-y,-z
y-1/2,-x-1/2,-z-1/2
x,y,-z
-y-1/2,x-1/2,-z-1/2
-x,y,z
-y-1/2,-x-1/2,z-1/2
x,-y,z
y-1/2,x-1/2,z-1/2
-z,-x,-y
x-1/2,-z-1/2,-y-1/2
z,x,-y
-x-1/2,z-1/2,-y-1/2
-z,x,y
-x-1/2,-z-1/2,y-1/2
z,-x,y
x-1/2,z-1/2,y-1/2
-y,-z,-x
-y,z,x
-z-1/2,-y-1/2,x-1/2
y,-z,x
z-1/2,y-1/2,x-1/2
y,z,-x
-z-1/2,y-1/2,-x-1/2
z-1/2,-y-1/2,-x-1/2
loop_
_atom_site_label
_atom_site_type_symbol
_atom_site_fract_x
_atom_site_fract_y
_atom_site_fract_z
_atom_site_occupancy
_atom_site_U_iso_or_equiv
U1 U+2 0 0 0 0.92 0.0
S1 S-2 0.25 0.25 0.25 1 0.0
Pd1 Pd+2 0.25 0.5 0 1 0.0
