#------------------------------------------------------------------------------
#$Date: 2016-02-13 21:28:24 +0200 (Sat, 13 Feb 2016) $
#$Revision: 176429 $
#$URL: svn://www.crystallography.net/cod/cif/1/52/98/1529829.cif $
#------------------------------------------------------------------------------
#
# This file is available in the Crystallography Open Database (COD),
# http://www.crystallography.net/
#
# All data on this site have been placed in the public domain by the
# contributors.
#
data_1529829
loop_
_publ_author_name
'Ech Chahed, B.'
'Jeannot, F.'
'Gleitzer, C.'
'Malaman, B.'
_publ_section_title
;
 Preparation et etude d'une variete basse temperature du l'oxyphosphate de
 fer de valence mixte beta Fe2 (P O4) O et de Ni Cr (P O4) O: Un cas
 d'echange electronique rapide
;
_journal_name_full               'Journal of Solid State Chemistry'
_journal_page_first              47
_journal_page_last               59
_journal_volume                  74
_journal_year                    1988
_chemical_formula_sum            'Cr Ni O5 P'
_chemical_name_systematic        'Ni Cr (P O4) O'
_space_group_IT_number           141
_symmetry_space_group_name_Hall  '-I 4bd 2'
_symmetry_space_group_name_H-M   'I 41/a m d :2'
_cell_angle_alpha                90
_cell_angle_beta                 90
_cell_angle_gamma                90
_cell_formula_units_Z            4
_cell_length_a                   5.298
_cell_length_b                   5.298
_cell_length_c                   12.087
_cell_volume                     339.268
_citation_journal_id_ASTM        JSSCBI
_cod_data_source_file            EchChahed_JSSCBI_1988_1666.cif
_cod_data_source_block           Cr1Ni1O5P1
_cod_original_cell_volume        339.2676
_cod_original_formula_sum        'Cr1 Ni1 O5 P1'
_cod_database_code               1529829
loop_
_symmetry_equiv_pos_as_xyz
x,y,z
-y+1/4,x+3/4,z+1/4
-x+1/2,-y,z+1/2
y+1/4,-x+1/4,z+3/4
x,-y,-z
y+1/4,x+3/4,-z+1/4
-x+1/2,y,-z+1/2
-y+1/4,-x+1/4,-z+3/4
-x,-y,-z
y-1/4,-x-3/4,-z-1/4
x-1/2,y,-z-1/2
-y-1/4,x-1/4,-z-3/4
-x,y,z
-y-1/4,-x-3/4,z-1/4
x-1/2,-y,z-1/2
y-1/4,x-1/4,z-3/4
x+1/2,y+1/2,z+1/2
-y+3/4,x+5/4,z+3/4
-x+1,-y+1/2,z+1
y+3/4,-x+3/4,z+5/4
x+1/2,-y+1/2,-z+1/2
y+3/4,x+5/4,-z+3/4
-x+1,y+1/2,-z+1
-y+3/4,-x+3/4,-z+5/4
-x+1/2,-y+1/2,-z+1/2
y+1/4,-x-1/4,-z+1/4
x,y+1/2,-z
-y+1/4,x+1/4,-z-1/4
-x+1/2,y+1/2,z+1/2
-y+1/4,-x-1/4,z+1/4
x,-y+1/2,z
y+1/4,x+1/4,z-1/4
loop_
_atom_site_label
_atom_site_type_symbol
_atom_site_fract_x
_atom_site_fract_y
_atom_site_fract_z
_atom_site_occupancy
_atom_site_U_iso_or_equiv
Cr1 Cr+3 0 0 0.5 0.5 0.0
Ni1 Ni+2 0 0 0.5 0.5 0.0
P1 P+5 0 0.75 0.125 1 0.0
O1 O-2 0 0.4919 0.8053 1 0.0
O2 O-2 0 0.25 0.375 1 0.0
