#------------------------------------------------------------------------------
#$Date: 2016-02-13 21:28:24 +0200 (Sat, 13 Feb 2016) $
#$Revision: 176429 $
#$URL: svn://www.crystallography.net/cod/cif/1/52/94/1529434.cif $
#------------------------------------------------------------------------------
#
# This file is available in the Crystallography Open Database (COD),
# http://www.crystallography.net/
#
# All data on this site have been placed in the public domain by the
# contributors.
#
data_1529434
loop_
_publ_author_name
'M.S. Molokeev'
'S.V. Misyul'
'V.D. Fokina'
'A.G. Kocharova'
'K.S. Aleksandrov'
_publ_section_title
;
 Structure transformations during phase transitions in the K3WO3F3
 oxyfluoride
;
_journal_issue                   4
_journal_name_full               'Physics of the Solid State'
_journal_page_first              834
_journal_page_last               839
_journal_paper_doi               10.1134/S1063783411040251
_journal_volume                  53
_journal_year                    2011
_chemical_formula_sum            'F3 K3 O3 W'
_space_group_IT_number           107
_symmetry_space_group_name_Hall  'I 4 -2'
_symmetry_space_group_name_H-M   'I 4 m m'
_cell_angle_alpha                90.000000
_cell_angle_beta                 90.000000
_cell_angle_gamma                90.000000
_cell_formula_units_Z            2
_cell_length_a                   6.1676(1)
_cell_length_b                   6.1676(1)
_cell_length_c                   8.7999(2)
_cell_volume                     334.742(11)
_cod_data_source_file            K3WO3F3_433K.cif
_cod_data_source_block           a
_cod_original_cell_volume        334.742(13)
_cod_original_sg_symbol_Hall     'I 4 -2          '
_cod_original_sg_symbol_H-M      'I 4 M M         '
_cod_original_formula_sum        'F3 K3 O3 W '
_cod_database_code               1529434
_cod_database_fobs_code          1529434
loop_
_symmetry_equiv_pos_site_id
_symmetry_equiv_pos_as_xyz
1 'x, y, z'
2 '-x, y, z'
3 '-x, -y, z'
4 'x, -y, z'
5 '-y, -x, z'
6 'y, -x, z'
7 '-y, x, z'
8 'y, x, z'
9 '1/2+x, 1/2+y, 1/2+z'
10 '1/2-x, 1/2+y, 1/2+z'
11 '1/2-x, 1/2-y, 1/2+z'
12 '1/2+x, 1/2-y, 1/2+z'
13 '1/2-y, 1/2-x, 1/2+z'
14 '1/2+y, 1/2-x, 1/2+z'
15 '1/2-y, 1/2+x, 1/2+z'
16 '1/2+y, 1/2+x, 1/2+z'
loop_
_atom_site_label
_atom_site_type_symbol
_atom_site_fract_x
_atom_site_fract_y
_atom_site_fract_z
_atom_site_U_iso_or_equiv
_atom_site_occupancy
_atom_site_adp_type
W W 0.50000 0.50000 0.50000 0.0484(7) 1.00000 Uiso
K1 K 0.00000 0.00000 0.496(8) 0.120(4) 1.00000 Uiso
K2 K 0.50000 0.00000 0.262(2) 0.066(2) 1.00000 Uiso
F2 F 0.277(2) 0.277(2) 0.526(4) 0.052(7) 0.50000 Uiso
O2a O 0.228(5) 0.606(5) 0.560(4) 0.052(7) 0.25000 Uiso
O2 O 0.110(5) 0.110(5) 0.822(5) 0.04(2) 0.25000 Uiso
F3 F 0.00000 0.00000 0.217(2) 0.013(6) 1.00000 Uiso
loop_
_atom_type_symbol
_atom_type_scat_dispersion_real
_atom_type_scat_dispersion_imag
W -5.47340 5.57740
K 0.38680 1.06570
F 0.07270 0.05340
O 0.04920 0.03220
loop_
_refln_index_h
_refln_index_k
_refln_index_l
_refln_F_meas
_refln_F_calc
_refln_phase_calc
0 1 1 117.31 115.77 0.0985
0 0 2 110.22 115.46 0.1138
1 1 0 109.31 110.08 0.0000
1 1 2 165.35 167.10 0.0361
0 2 0 170.53 169.15 0.0000
0 1 3 69.901 71.587 -0.0016
1 2 1 73.443 73.284 0.1200
0 2 2 38.217 37.598 -0.4465
0 0 4 176.05 174.14 0.2314
2 2 0 172.00 173.12 0.0000
1 2 3 57.016 60.049 -0.2491
0 3 1 65.659 63.819 0.2099
1 1 4 70.710 71.510 -0.2381
2 2 2 65.045 63.766 0.0139
1 3 0 70.407 70.120 0.0000
0 2 4 117.09 113.51 -0.0992
1 3 2 113.46 112.62 0.1031
0 1 5 71.561 76.449 0.1929
0 3 3 58.068 54.810 -0.2044
2 3 1 76.859 73.904 0.1647
2 2 4 112.68 112.49 0.0463
0 4 0 111.27 111.36 0.0000
1 2 5 57.039 62.346 0.0115
2 3 3 58.349 56.102 -0.0325
1 4 1 60.966 60.841 0.2159
0 0 6 55.388 51.394 0.2133
1 3 4 53.490 53.234 -0.2680
0 4 2 51.410 48.983 0.1180
3 3 0 58.316 55.055 0.0000
1 1 6 81.397 83.121 0.1694
3 3 2 75.459 76.207 0.0643
2 4 0 82.340 85.947 0.0000
0 3 5 53.439 49.721 -0.0065
1 4 3 49.444 49.277 -0.0600
0 2 6 37.536 38.086 -0.3157
2 4 2 27.178 29.589 0.0271
0 4 4 82.749 79.441 0.0019
0 1 7 32.879 35.372 -0.0244
2 3 5 51.629 50.032 0.1503
0 5 1 47.135 43.754 0.1944
3 4 1 42.545 39.481 0.0923
2 2 6 41.052 38.135 0.0766
3 3 4 36.950 40.670 -0.2151
1 5 0 32.233 37.066 0.0000
1 3 6 58.228 55.762 0.2226
2 4 4 56.697 59.277 -0.0181
1 5 2 53.605 55.498 0.1047
1 2 7 27.259 33.316 -0.0806
1 4 5 43.337 40.635 0.1083
0 5 3 41.511 39.455 -0.1656
3 4 3 32.104 30.505 -0.2281
2 5 1 36.656 35.940 0.1711
0 0 8 58.422 44.173 0.1348
4 4 0 49.492 58.163 0.0000
0 3 7 25.755 26.898 -0.0537
2 5 3 28.999 27.982 -0.1577
1 1 8 30.750 29.435 -0.4380
0 4 6 26.497 25.557 0.1539
1 5 4 29.217 31.735 -0.2977
4 4 2 19.224 20.499 -0.1256
3 5 0 28.122 29.480 0.0000
0 2 8 36.367 42.187 -0.0976
3 3 6 44.149 43.770 0.2069
3 5 2 39.294 36.708 0.0492
0 6 0 45.180 42.194 0.0000
2 3 7 22.943 24.625 0.0857
0 5 5 33.433 34.233 0.0263
3 4 5 32.032 32.792 0.0266
1 6 1 30.648 28.543 0.1793
2 4 6 21.953 18.736 -0.0500
0 6 2 6.2941 15.265 -0.0646
2 2 8 43.023 38.188 0.0913
4 4 4 39.043 41.572 -0.0014
2 6 0 44.244 44.322 0.0000
0 1 9 26.971 27.837 0.0144
1 4 7 19.235 20.629 0.1009
2 5 5 24.842 26.679 0.0525
1 6 3 25.416 23.456 -0.1864
1 3 8 24.999 22.805 -0.4017
4 5 1 32.368 28.663 0.1003
3 5 4 21.001 22.288 -0.2583
2 6 2 16.676 18.150 0.0910
0 0 0 374.00 374.00 0.0000
