#------------------------------------------------------------------------------
#$Date: 2016-02-13 21:28:24 +0200 (Sat, 13 Feb 2016) $
#$Revision: 176429 $
#$URL: svn://www.crystallography.net/cod/cif/1/52/94/1529433.cif $
#------------------------------------------------------------------------------
#
# This file is available in the Crystallography Open Database (COD),
# http://www.crystallography.net/
#
# All data on this site have been placed in the public domain by the
# contributors.
#
data_1529433
loop_
_publ_author_name
'M.S. Molokeev'
'S.V. Misyul'
'V.D. Fokina'
'A.G. Kocharova'
'K.S. Aleksandrov'
_publ_section_title
;
 Structure transformations during phase transitions in the K3WO3F3
 oxyfluoride
;
_journal_issue                   4
_journal_name_full               'Physics of the Solid State'
_journal_page_first              834
_journal_page_last               839
_journal_paper_doi               10.1134/S1063783411040251
_journal_volume                  53
_journal_year                    2011
_chemical_formula_sum            'F3 K3 O3 W'
_space_group_IT_number           8
_symmetry_space_group_name_Hall  'C -2y'
_symmetry_space_group_name_H-M   'C 1 m 1'
_cell_angle_alpha                90.000000
_cell_angle_beta                 135.167(3)
_cell_angle_gamma                90.000000
_cell_formula_units_Z            2
_cell_length_a                   8.7355(3)
_cell_length_b                   8.6901(4)
_cell_length_c                   6.1569(3)
_cell_volume                     329.53(3)
_cod_data_source_file            K3WO3F3_293K.cif
_cod_data_source_block           a
_cod_original_sg_symbol_Hall     'C -2Y           '
_cod_original_sg_symbol_H-M      'C M             '
_cod_original_formula_sum        'F3 K3 O3 W '
_cod_database_code               1529433
_cod_database_fobs_code          1529433
loop_
_symmetry_equiv_pos_site_id
_symmetry_equiv_pos_as_xyz
1 'x, y, z'
2 'x, -y, z'
3 '1/2+x, 1/2+y, z'
4 '1/2+x, 1/2-y, z'
loop_
_atom_site_label
_atom_site_type_symbol
_atom_site_fract_x
_atom_site_fract_y
_atom_site_fract_z
_atom_site_U_iso_or_equiv
_atom_site_occupancy
_atom_site_adp_type
W W 0.00000 0.00000 0.00000 0.057(1) 1.00000 Uiso
K1 K -0.06(1) 0.50000 -0.078(8) 0.09(1) 1.00000 Uiso
K2 K 0.006(3) 0.719(2) 0.470(5) 0.024(5) 1.00000 Uiso
F1 F 0.04(1) 0.204(7) 0.14(1) 0.02533 0.50000 Uiso
O1 O 0.04(1) 0.204(7) 0.14(1) 0.02533 0.50000 Uiso
F2 F 0.275(7) 0.00000 0.07(1) 0.02533 1.00000 Uiso
F3 F 0.73(1) 0.50000 0.46(1) 0.02533 1.00000 Uiso
O2 O 0.80(1) 0.00000 0.60(1) 0.02533 1.00000 Uiso
O10 O 0.81(1) 0.00000 0.00(1) 0.02533 1.00000 Uiso
loop_
_atom_type_symbol
_atom_type_scat_dispersion_real
_atom_type_scat_dispersion_imag
W -5.47340 5.57740
K 0.38680 1.06570
F 0.07270 0.05340
O 0.04920 0.03220
loop_
_refln_index_h
_refln_index_k
_refln_index_l
_refln_F_meas
_refln_F_calc
_refln_phase_calc
1 1 0 97.068 95.726 0.1822
1 1 -1 126.57 125.07 -0.0365
2 0 -1 112.80 110.69 -0.3266
0 2 0 134.52 135.76 0.0000
0 0 1 92.669 95.446 0.1365
2 2 -1 171.78 175.78 0.0435
2 0 0 149.62 152.29 -0.1427
2 0 -2 143.68 145.51 0.1457
0 2 1 178.54 178.18 -0.1598
3 1 -1 87.021 88.909 0.1067
3 1 -2 61.248 62.627 -0.2458
1 3 0 106.02 104.63 0.1104
1 3 -1 53.505 52.746 -0.0754
1 1 1 80.132 79.301 0.1673
1 1 -2 71.086 70.691 -0.2256
2 2 0 40.634 39.835 -1.2135
2 2 -2 32.194 31.313 -0.1041
4 0 -2 185.68 187.33 0.0867
0 4 0 183.42 185.07 0.0000
0 0 2 166.77 168.43 -0.0573
3 3 -1 32.563 32.375 -0.0468
3 3 -2 77.023 76.723 0.1578
3 1 0 53.749 53.737 0.0915
3 1 -3 45.064 45.080 -0.0528
1 3 1 28.422 29.317 0.1498
1 3 -2 85.896 89.073 0.1437
4 2 -2 78.191 82.979 -0.1736
4 0 -1 52.053 55.422 -0.3517
4 0 -3 60.057 64.441 -0.5783
2 4 -1 73.857 71.797 -0.2343
2 0 1 42.349 41.698 -0.2161
2 0 -3 54.362 53.687 -0.4439
0 4 1 66.049 65.724 0.0574
0 2 2 77.088 77.308 0.0541
4 2 -1 102.94 104.22 0.0671
4 2 -3 112.40 114.71 0.3181
2 4 0 88.130 87.114 -0.1744
2 4 -2 86.928 86.010 0.1697
2 2 1 116.24 115.87 -0.2877
2 2 -3 121.54 122.02 0.3276
5 1 -2 62.555 67.044 0.2356
5 1 -3 72.751 78.955 0.1695
3 3 0 75.249 67.083 -0.0034
3 3 -3 25.415 22.683 -0.4839
1 5 0 40.331 38.266 0.2401
1 5 -1 106.69 101.68 0.0017
1 1 2 69.310 67.528 0.3248
1 1 -3 92.806 91.029 -0.2028
4 4 -2 113.87 117.21 0.0971
4 0 0 114.32 118.37 0.1269
4 0 -4 96.392 101.03 0.2647
0 4 2 109.75 108.89 -0.0627
5 3 -2 74.178 75.572 0.4000
5 3 -3 45.978 46.790 0.0345
5 1 -1 59.910 61.043 0.2737
5 1 -4 44.960 45.965 -0.0094
3 5 -1 81.430 80.675 0.1180
3 5 -2 33.049 32.652 -0.8161
3 1 1 74.866 74.998 0.2060
3 1 -4 46.958 47.209 -0.3825
1 5 1 70.522 71.935 0.0900
1 5 -2 30.322 30.965 -0.7211
1 3 2 78.337 80.402 0.0274
1 3 -3 63.053 64.769 -0.3649
6 0 -3 65.695 63.464 -0.6143
4 4 -1 38.383 39.170 -0.2596
4 4 -3 43.839 44.735 -0.3673
4 2 0 37.757 38.562 -0.1644
4 2 -4 61.254 62.776 -0.2889
2 4 1 35.790 35.447 -0.2704
2 4 -3 42.613 41.825 -0.2287
0 6 0 79.498 77.813 0.0000
0 0 3 35.127 33.007 0.6165
6 2 -3 86.786 86.971 0.2309
6 0 -2 72.801 72.931 0.0217
6 0 -4 64.820 65.500 0.3042
2 6 -1 75.213 73.504 -0.0146
0 6 1 72.501 72.039 -0.0520
2 0 2 70.351 70.457 -0.3162
2 0 -4 68.843 69.447 0.4900
0 2 3 85.810 87.711 -0.2244
5 3 -1 23.025 23.652 0.1260
5 3 -4 58.271 60.881 0.3775
3 5 0 16.529 17.023 0.0847
3 5 -3 42.689 43.820 0.1759
3 3 1 40.410 41.408 0.1815
3 3 -4 56.631 57.829 0.0784
6 2 -2 25.572 28.939 -1.2440
6 2 -4 31.229 35.458 -0.5549
2 6 0 22.062 25.289 -0.4799
2 6 -2 22.355 25.442 -0.1301
2 2 2 16.758 19.049 -0.6775
2 2 -4 27.211 30.723 -0.3360
4 4 0 82.215 77.479 0.1087
4 4 -4 74.177 70.178 0.2322
7 1 -3 38.808 39.995 0.0016
7 1 -4 31.315 32.464 -0.3736
5 5 -2 27.678 28.960 -0.0991
5 5 -3 61.264 64.344 0.2497
5 1 0 44.930 47.479 0.3351
5 1 -5 51.133 54.730 -0.0194
1 7 0 61.033 59.980 0.0721
1 7 -1 11.801 11.531 -0.3490
1 5 2 30.385 29.294 0.7879
1 5 -3 68.798 66.660 -0.0344
1 1 3 35.672 34.476 -0.1760
1 1 -4 36.783 35.571 -0.2156
6 4 -3 36.259 43.336 -0.4686
6 0 -1 24.148 28.936 -0.6359
6 0 -5 35.482 42.331 -0.5806
4 6 -2 47.608 51.618 -0.0957
4 0 1 13.600 14.059 0.7051
4 0 -5 30.105 30.947 -0.6629
0 6 2 45.136 46.158 0.1222
0 4 3 27.712 28.090 0.3961
6 4 -2 45.329 45.605 -0.0004
6 4 -4 43.912 44.721 0.3006
6 2 -1 57.633 58.647 -0.0269
6 2 -5 62.651 65.462 0.3921
4 6 -1 45.048 48.072 0.0593
4 6 -3 44.056 46.942 0.1593
4 2 1 58.232 60.894 -0.0275
4 2 -5 56.029 58.135 0.4016
2 6 1 47.546 48.820 -0.1929
2 6 -3 47.379 48.633 0.1942
2 4 2 47.455 48.546 -0.3388
2 4 -4 46.970 47.972 0.4313
7 3 -3 23.125 21.300 -0.4759
7 1 -2 30.207 28.108 -0.3033
7 3 -4 40.590 37.736 0.2575
7 1 -5 20.451 19.157 0.0265
5 5 -1 54.692 56.725 0.2898
5 5 -4 22.484 23.399 -0.7235
5 3 0 53.320 55.589 0.2151
5 3 -5 45.335 47.413 -0.3620
3 7 -1 6.1864 6.4220 -1.2048
3 7 -2 45.902 47.843 0.2455
3 5 1 59.541 62.039 0.1694
3 5 -4 26.298 27.213 -1.0424
3 1 2 25.056 26.035 0.0521
1 7 1 2.0072 2.0293 1.4746
1 7 -2 51.822 53.716 0.2488
3 1 -5 21.195 22.005 0.3572
1 3 3 17.552 18.026 0.1149
1 3 -4 45.788 47.263 0.1244
8 0 -4 65.267 55.941 0.2297
0 8 0 60.750 48.457 0.0000
0 0 4 57.486 48.447 -0.3964
7 3 -2 36.594 31.832 0.0673
7 3 -5 22.393 19.054 -0.7506
3 7 0 44.840 42.088 -0.0246
3 7 -3 11.933 11.164 -1.5915
3 3 2 43.744 41.493 -0.1439
3 3 -5 16.862 15.913 -0.6340
8 0 -3 25.847 27.358 -1.0696
8 2 -4 31.886 33.739 -0.5438
8 0 -5 29.506 31.554 -1.0613
6 4 -1 19.523 22.084 -0.5781
6 4 -5 28.789 31.998 -0.4310
4 6 0 28.988 29.502 0.0930
4 6 -4 32.738 32.946 -0.2059
4 4 1 13.274 13.211 0.4051
4 4 -5 24.742 24.302 -0.5075
2 8 -1 30.909 30.174 -0.0429
0 8 1 31.744 30.315 -0.0918
2 0 3 1.7526 1.6322 -0.8543
2 0 -5 15.978 14.549 -0.6687
0 2 4 25.124 22.338 0.6862
8 2 -3 31.404 35.552 0.3733
8 2 -5 33.788 37.126 0.4982
6 6 -3 46.874 41.060 0.0747
6 0 0 51.749 44.255 -0.0053
6 0 -6 49.527 41.402 0.6895
2 8 0 20.932 17.586 -0.4433
2 8 -2 22.526 18.923 0.2316
0 6 3 41.982 36.703 -0.1015
2 2 3 53.568 47.122 -0.4234
2 2 -5 48.119 42.540 0.5213
7 5 -3 49.859 36.913 0.1936
7 5 -4 34.407 25.137 -1.1059
7 1 -1 50.936 36.322 0.0901
7 1 -6 35.579 23.702 -0.4248
0 0 0 357.00 357.00 0.0000
