#------------------------------------------------------------------------------
#$Date: 2016-09-16 18:09:56 +0300 (Fri, 16 Sep 2016) $
#$Revision: 186594 $
#$URL: file:///home/coder/svn-repositories/cod/cif/1/52/93/1529336.cif $
#------------------------------------------------------------------------------
#
# This file is available in the Crystallography Open Database (COD),
# http://www.crystallography.net/
#
# All data on this site have been placed in the public domain by the
# contributors.
#
data_1529336
loop_
_publ_author_name
'E.I. Pogoreltsev'
'S.V. Melnikova'
'A.V. Kartashev'
'M.S. Molokeev'
'M.V. Gorev'
'I.N. Flerov'
'N.M. Laptash'
_publ_section_title
;
 Ferroelastic phase transitions in (NH4)2TaF7
;
_journal_issue                   3
_journal_name_full               'Physics of the Solid State'
_journal_page_first              611
_journal_page_last               618
_journal_paper_doi               10.1134/S1063783413030232
_journal_volume                  55
_journal_year                    2013
_chemical_formula_sum            'F7 N2 Ta'
_chemical_formula_weight         341.95
_space_group_IT_number           129
_symmetry_space_group_name_Hall  '-P 4a 2a'
_symmetry_space_group_name_H-M   'P 4/n m m :2'
_atom_type_scat_source
;
X-Ray Form Factor, C Attenuation and Scattering Tables (version 2.1).
NIST, Gaithersburg, MD.
;
_cell_angle_alpha                90.000000
_cell_angle_beta                 90.000000
_cell_angle_gamma                90.000000
_cell_formula_units_Z            2
_cell_length_a                   5.89467(27)
_cell_length_b                   5.89467(27)
_cell_length_c                   10.68564(48)
_cell_volume                     371.30(3)
_diffrn_measurement_device_type
;
D8 ADVANCE Bruker
;
_diffrn_radiation_monochromator  none
_diffrn_radiation_probe          x-ray
_diffrn_radiation_type
;
 Cu K\a~1~~2~
;
_exptl_crystal_density_diffrn    3.0597
_pd_meas_2theta_range_inc        0.0161
_pd_meas_2theta_range_max        109.9000
_pd_meas_2theta_range_min        5.0000
_pd_meas_scan_method             step
_pd_proc_ls_prof_wR_expected     0.04717
_pd_proc_ls_prof_wR_factor       0.11290
_pd_spec_mount_mode              reflection
_refine_ls_R_factor_all          0.05232
_refine_ls_R_I_factor            0.07440
_refine_ls_shift/su_max          0.03685
_cod_data_source_file            NH42TaF7.cif
_cod_data_source_block           a
_cod_original_cell_volume        371.297(38)
_cod_original_sg_symbol_Hall     '-P 4A 2A            '
_cod_original_sg_symbol_H-M      'P 4/N M M           '
_cod_original_formula_sum        'F7 N2 Ta '
_cod_database_code               1529336
_cod_database_fobs_code          1529336
loop_
_symmetry_equiv_pos_site_id
_symmetry_equiv_pos_as_xyz
1 'x, y, z'
2 '1/2+x, -y, -z'
3 '1/2-x, 1/2-y, z'
4 '-x, 1/2+y, -z'
5 '1/2+y, 1/2+x, -z'
6 'y, 1/2-x, z'
7 '1/2-y, x, z'
8 '-y, -x, -z'
9 '-x, -y, -z'
10 '1/2-x, y, z'
11 '1/2+x, 1/2+y, -z'
12 'x, 1/2-y, z'
13 '1/2-y, 1/2-x, z'
14 '-y, 1/2+x, -z'
15 '1/2+y, -x, -z'
16 'y, x, z'
loop_
_atom_site_label
_atom_site_type_symbol
_atom_site_fract_x
_atom_site_fract_y
_atom_site_fract_z
_atom_site_U_iso_or_equiv
_atom_site_occupancy
_atom_site_adp_type
_atom_site_attached_hydrogens
Ta Ta 0.25000 0.25000 0.2493(5) 0.0084(10) 1.0000 Uiso 0
N1 N 0.75000 0.25000 0.00000 0.0127 1.0000 Uiso 4
N2 N 0.25000 0.25000 0.6224(26) 0.0127 1.0000 Uiso 4
F1 F 0.25000 0.25000 0.0672(26) 0.020(8) 1.0000 Uiso 0
F2 F 0.0223(14) 0.4777(14) 0.2029(15) 0.053(7) 1.0000 Uiso 0
F3 F 0.25000 0.489(6) 0.3914(35) 0.079(10) 0.5000 Uiso 0
loop_
_atom_type_symbol
_atom_type_scat_dispersion_real
_atom_type_scat_dispersion_imag
Ta -5.81610 5.22578
N 0.02879 0.01806
F 0.06798 0.05302
loop_
_diffrn_radiation_wavelength
_diffrn_radiation_wavelength_wt
1.5406 1.0000
1.5443 0.5000
loop_
_refln_index_h
_refln_index_k
_refln_index_l
_refln_F_meas
_refln_F_calc
_refln_phase_calc
0 0 1 12.692 13.881 0.0000
0 0 2 152.89 150.02 3.1416
0 1 1 145.67 143.52 3.1416
1 1 0 131.00 141.48 3.1416
0 1 2 15.177 13.571 3.1416
1 1 1 10.453 6.0982 0.0000
0 0 3 .00000 10.508 -3.1416
1 1 2 111.93 118.04 0.0000
0 1 3 99.698 101.87 0.0000
0 2 0 110.83 98.359 3.1416
0 2 1 2.4251 1.4333 3.1416
1 1 3 .65612 .43923 0.0000
0 0 4 105.72 107.43 0.0000
0 2 2 56.042 55.095 0.0000
1 2 1 97.887 96.792 0.0000
0 1 4 1.5250 1.0354 -3.1416
1 2 2 23.523 24.136 0.0000
0 2 3 46.663 47.212 3.1416
1 1 4 81.913 87.160 3.1416
0 0 5 72.057 65.996 0.0000
1 2 3 99.973 101.96 -3.1416
2 2 0 165.86 147.24 0.0000
2 2 1 33.529 35.276 0.0000
0 1 5 114.70 113.24 3.1416
0 2 4 94.176 86.265 -3.1416
2 2 2 120.89 115.52 3.1416
0 3 1 94.053 89.165 0.0000
1 1 5 3.3503 3.2066 0.0000
1 2 4 16.375 15.725 0.0000
1 3 0 95.801 105.14 0.0000
0 3 2 2.5112 1.9876 0.0000
1 3 1 2.1583 1.7252 -3.1416
2 2 3 18.373 16.201 3.1416
0 0 6 99.391 99.383 -3.1416
1 3 2 97.437 93.999 3.1416
0 2 5 17.278 20.405 0.0000
0 3 3 85.936 78.250 3.1416
0 1 6 12.347 10.771 -3.1416
1 2 5 106.32 105.10 0.0000
1 3 3 .46434 .45383 0.0000
2 2 4 113.96 110.91 0.0000
1 1 6 105.14 105.82 0.0000
2 3 1 104.51 96.741 -3.1416
0 3 4 12.392 15.291 0.0000
2 3 2 27.695 23.887 -3.1416
1 3 4 81.863 77.051 0.0000
0 0 7 31.276 30.113 3.1416
0 2 6 96.042 94.766 0.0000
2 2 5 18.585 19.452 0.0000
2 3 3 96.617 93.954 0.0000
0 1 7 86.977 84.516 0.0000
1 2 6 5.0883 4.9122 -3.1416
0 4 0 135.77 132.05 0.0000
0 4 1 6.9954 7.5176 0.0000
0 3 5 94.395 93.438 0.0000
1 1 7 16.826 18.055 0.0000
0 4 2 91.044 87.797 3.1416
1 4 1 89.942 88.974 3.1416
1 3 5 4.1723 4.8013 3.1416
2 3 4 .50724 .52807 -3.1416
3 3 0 88.536 92.056 3.1416
1 4 2 7.1851 8.1046 -3.1416
3 3 1 .70118 .78469 -3.1416
0 4 3 .63889 .56134 3.1416
0 2 7 8.2718 8.7100 3.1416
2 2 6 70.996 75.700 3.1416
3 3 2 82.682 84.327 0.0000
0 0 8 72.818 75.207 0.0000
1 4 3 78.495 76.097 0.0000
1 2 7 72.063 73.924 3.1416
0 3 6 3.6125 3.7468 3.1416
2 4 0 78.666 81.163 -3.1416
2 4 1 3.5280 3.3482 3.1416
0 1 8 3.8559 3.8402 0.0000
2 3 5 90.567 89.318 -3.1416
3 3 3 3.2762 3.3088 0.0000
0 4 4 77.059 78.262 0.0000
1 3 6 85.967 88.741 -3.1416
2 4 2 60.857 59.100 0.0000
1 1 8 68.991 72.343 -3.1416
1 4 4 2.4374 2.0795 3.1416
2 4 3 13.822 17.212 -3.1416
3 3 4 69.799 69.681 3.1416
2 2 7 18.975 18.259 -3.1416
0 2 8 89.279 88.001 3.1416
0 4 5 22.935 22.685 0.0000
0 3 7 70.394 75.698 3.1416
2 3 6 3.8991 4.1729 -3.1416
1 2 8 5.1637 4.5345 -3.1416
1 4 5 79.315 80.883 3.1416
0 0 9 .75695 .81806 0.0000
2 4 4 72.174 69.200 3.1416
1 3 7 13.377 12.958 -3.1416
0 5 1 84.408 82.999 -3.1416
3 4 1 70.859 69.650 0.0000
3 3 5 .82248 .89296 0.0000
0 1 9 61.363 65.548 -3.1416
1 5 0 82.962 79.807 3.1416
0 5 2 10.393 9.9021 3.1416
3 4 2 4.3704 4.1759 0.0000
1 5 1 1.7702 1.6994 0.0000
1 1 9 8.9459 8.2242 0.0000
0 4 6 72.790 72.513 -3.1416
1 5 2 67.195 72.020 0.0000
2 2 8 61.962 62.738 0.0000
2 4 5 4.1119 4.3812 0.0000
0 5 3 65.340 70.925 0.0000
3 4 3 59.583 64.700 -3.1416
2 3 7 59.848 62.243 0.0000
1 4 6 3.8089 3.9266 3.1416
0 3 8 .66643 .49867 0.0000
0 2 9 6.8711 5.5229 0.0000
1 5 3 1.1572 .98880 0.0000
3 3 6 73.015 76.050 0.0000
2 5 1 59.428 61.352 0.0000
1 3 8 58.009 64.362 0.0000
1 2 9 55.621 65.080 0.0000
0 5 4 3.5071 3.4691 0.0000
3 4 4 6.6752 6.5473 0.0000
2 5 2 5.9873 4.7973 0.0000
0 0 10 59.833 53.205 -3.1416
1 5 4 56.268 59.853 3.1416
0 4 7 11.794 12.627 3.1416
2 4 6 64.606 69.379 0.0000
0 1 10 1.7682 1.5108 3.1416
2 5 3 59.208 61.738 3.1416
1 4 7 59.566 63.786 0.0000
4 4 0 80.106 86.329 0.0000
4 4 1 4.7650 4.8907 0.0000
1 1 10 68.918 69.927 0.0000
2 3 8 6.9340 7.3231 0.0000
0 5 5 65.587 71.182 -3.1416
3 4 5 65.029 70.583 0.0000
2 2 9 5.8048 6.2958 0.0000
3 3 7 13.167 12.429 0.0000
4 4 2 72.973 63.630 3.1416
1 5 5 .32780 .28807 0.0000
0 3 9 63.825 63.081 0.0000
2 5 4 8.5924 8.4977 0.0000
3 5 0 62.170 66.143 0.0000
3 5 1 2.2491 2.1529 -3.1416
0 2 10 67.299 69.887 0.0000
1 3 9 5.3539 6.4402 -3.1416
4 4 3 2.0466 2.0424 0.0000
2 4 7 1.6090 1.3250 3.1416
3 5 2 61.217 61.567 3.1416
1 2 10 2.3090 2.4637 0.0000
0 4 8 56.398 61.723 0.0000
0 5 6 8.5217 6.9227 3.1416
3 4 6 1.5026 1.2233 -3.1416
0 6 0 83.172 67.051 -3.1416
0 6 1 3.5336 3.0055 -3.1416
1 4 8 3.1792 3.0863 0.0000
2 5 5 64.505 66.670 0.0000
3 5 3 .95558 1.0183 0.0000
0 0 11 1.6867 1.7636 0.0000
4 4 4 57.446 61.261 0.0000
1 5 6 64.284 67.858 0.0000
0 6 2 53.388 51.771 0.0000
1 6 1 62.054 59.489 0.0000
3 3 8 56.449 56.265 -3.1416
2 3 9 50.180 54.598 3.1416
0 1 11 62.355 64.678 0.0000
1 6 2 5.2332 6.5239 0.0000
2 2 10 44.511 53.961 -3.1416
0 6 3 9.0776 8.6934 3.1416
1 1 11 4.5609 4.1933 0.0000
3 5 4 60.112 53.033 0.0000
0 0 0 300.00 300.00 0.0000
