#------------------------------------------------------------------------------
#$Date: 2016-02-13 21:28:24 +0200 (Sat, 13 Feb 2016) $
#$Revision: 176429 $
#$URL: svn://www.crystallography.net/cod/cif/1/52/99/1529958.cif $
#------------------------------------------------------------------------------
#
# This file is available in the Crystallography Open Database (COD),
# http://www.crystallography.net/
#
# All data on this site have been placed in the public domain by the
# contributors.
#
data_1529958
loop_
_publ_author_name
'Fyne, P.J.'
'Day, P.'
_publ_section_title
;
 Powder neutron diffraction study of the crystal and magnetic structures
 of ferromagnetic mixed anion salts Rb2 Cr Cl4-x Xx
;
_journal_name_full               'Materials Research Bulletin'
_journal_page_first              197
_journal_page_last               201
_journal_volume                  20
_journal_year                    1985
_chemical_formula_sum            'Cl2 Cr I2 Rb2'
_chemical_name_systematic        'Rb2 (Cr Cl2 I2)'
_space_group_IT_number           64
_symmetry_space_group_name_Hall  '-B 2 2ab'
_symmetry_space_group_name_H-M   'B b c m'
_cell_angle_alpha                90
_cell_angle_beta                 90
_cell_angle_gamma                90
_cell_formula_units_Z            4
_cell_length_a                   7.332
_cell_length_b                   7.34
_cell_length_c                   17.345
_cell_volume                     933.454
_citation_journal_id_ASTM        MRBUAC
_cod_data_source_file            Fyne_MRBUAC_1985_1176.cif
_cod_data_source_block           Cl2Cr1I2Rb2
_cod_original_cell_volume        933.4537
_cod_original_sg_symbol_Hall     '-C 2ac 2 (y,z,x)'
_cod_original_formula_sum        'Cl2 Cr1 I2 Rb2'
_cod_database_code               1529958
loop_
_symmetry_equiv_pos_as_xyz
x,y,z
-x,y+1/2,-z+1/2
-x,-y,z
x,-y+1/2,-z+1/2
-x,-y,-z
x,-y-1/2,z-1/2
x,y,-z
-x,y-1/2,z-1/2
x+1/2,y,z+1/2
-x+1/2,y+1/2,-z+1
-x+1/2,-y,z+1/2
x+1/2,-y+1/2,-z+1
-x+1/2,-y,-z+1/2
x+1/2,-y-1/2,z
x+1/2,y,-z+1/2
-x+1/2,y-1/2,z
loop_
_atom_site_label
_atom_site_type_symbol
_atom_site_fract_x
_atom_site_fract_y
_atom_site_fract_z
_atom_site_occupancy
_atom_site_U_iso_or_equiv
Cr1 Cr+2 0 0 0 1 0.0
I1 I-1 0.2308 0.2308 0 0.5 0.0
Cl2 Cl-1 0.1596 0 0 0.5 0.0
Cl1 Cl-1 0.2308 0.2308 0 0.5 0.0
I2 I-1 0 0 0.1596 0.5 0.0
Rb1 Rb+1 0 0 0.3712 1 0.0
