#------------------------------------------------------------------------------
#$Date: 2015-09-01 08:50:16 +0300 (Tue, 01 Sep 2015) $
#$Revision: 153858 $
#$URL: svn://www.crystallography.net/cod/cif/1/52/95/1529501.cif $
#------------------------------------------------------------------------------
#
# This file is available in the Crystallography Open Database (COD),
# http://www.crystallography.net/
#
# All data on this site have been placed in the public domain by the
# contributors.
#
data_1529501
loop_
_publ_author_name
'A.V. Kartashev'
'M.S. Molokeev'
'L.I. Isaenko'
'S.A. Zhurkov'
'V.D. Fokina'
'M.V. Gorev'
'I.N. Flerov'
_publ_contact_author_address
;
Kirensky Institute of Physics of SB RAS 
Akademgorodok 50-38
660036 Krasnoyarsk
Russia 
;
_publ_contact_author_email       msmolokeev@gmail.com
_publ_contact_author_fax         +(3912)43-89-23
_publ_contact_author_name        'Molokeev Maxim'
_publ_contact_author_phone       +7-950-437-17-72
_publ_section_title
;
 Heat capacity and structure of Rb2KMeO3F3 (Me: Mo, W) elpasolites
;
_journal_issue                   1
_journal_name_full               'Solid State Sciences'
_journal_page_first              166
_journal_page_last               170
_journal_paper_doi               10.1016/j.solidstatesciences.2011.11.019
_journal_volume                  14
_journal_year                    2012
_chemical_formula_moiety         'F6 O6 W2, 4(Rb), 2(K)'
_chemical_formula_sum            'F6 K2 O6 Rb4 W2'
_chemical_formula_weight         997.76
_space_group_crystal_system      cubic
_space_group_IT_number           225
_space_group_name_Hall           '-F 4 2 3'
_space_group_name_H-M_alt        'F m -3 m'
_symmetry_space_group_name_Hall  '-F 4 2 3'
_symmetry_space_group_name_H-M   'F m -3 m'
_atom_sites_solution_hydrogens   .
_audit_creation_method           SHELXL-2014/7
_cell_angle_alpha                90
_cell_angle_beta                 90
_cell_angle_gamma                90
_cell_formula_units_Z            2
_cell_length_a                   8.9402(5)
_cell_length_b                   8.9402(5)
_cell_length_c                   8.9402(5)
_cell_measurement_temperature    296(2)
_cell_volume                     714.56(7)
_computing_structure_refinement  'SHELXL-2014/7 (Sheldrick, 2014)'
_diffrn_ambient_temperature      296(2)
_diffrn_measured_fraction_theta_full 1.000
_diffrn_measured_fraction_theta_max 0.987
_diffrn_measurement_device_type  'CCD area detector'
_diffrn_measurement_method       'phi and omega scans'
_diffrn_radiation_monochromator  graphite
_diffrn_radiation_source         'fine-focus sealed tube'
_diffrn_radiation_type           MoK\a
_diffrn_radiation_wavelength     0.71073
_diffrn_reflns_av_R_equivalents  0.0450
_diffrn_reflns_av_unetI/netI     0.0167
_diffrn_reflns_laue_measured_fraction_full 1.000
_diffrn_reflns_laue_measured_fraction_max 0.987
_diffrn_reflns_limit_h_max       12
_diffrn_reflns_limit_h_min       -11
_diffrn_reflns_limit_k_max       12
_diffrn_reflns_limit_k_min       -11
_diffrn_reflns_limit_l_max       12
_diffrn_reflns_limit_l_min       -12
_diffrn_reflns_number            1631
_diffrn_reflns_point_group_measured_fraction_full 1.000
_diffrn_reflns_point_group_measured_fraction_max 0.987
_diffrn_reflns_theta_full        25.000
_diffrn_reflns_theta_max         29.661
_diffrn_reflns_theta_min         3.948
_exptl_absorpt_coefficient_mu    30.285
_exptl_crystal_colour            colorless
_exptl_crystal_density_diffrn    4.637
_exptl_crystal_description       block
_exptl_crystal_F_000             872
_exptl_crystal_size_max          0.25
_exptl_crystal_size_mid          0.25
_exptl_crystal_size_min          0.25
_refine_diff_density_max         0.893
_refine_diff_density_min         -0.870
_refine_diff_density_rms         0.191
_refine_ls_extinction_coef       0.0036(5)
_refine_ls_extinction_expression Fc^*^=kFc[1+0.001xFc^2^\l^3^/sin(2\q)]^-1/4^
_refine_ls_extinction_method     'SHELXL-2014/7 (Sheldrick 2014'
_refine_ls_goodness_of_fit_ref   1.368
_refine_ls_hydrogen_treatment    undef
_refine_ls_matrix_type           full
_refine_ls_number_parameters     8
_refine_ls_number_reflns         77
_refine_ls_number_restraints     0
_refine_ls_restrained_S_all      1.368
_refine_ls_R_factor_all          0.0239
_refine_ls_R_factor_gt           0.0232
_refine_ls_shift/su_max          0.001
_refine_ls_shift/su_mean         0.000
_refine_ls_structure_factor_coef Fsqd
_refine_ls_weighting_details
'w=1/[\s^2^(Fo^2^)+(0.0246P)^2^+16.8162P] where P=(Fo^2^+2Fc^2^)/3'
_refine_ls_weighting_scheme      calc
_refine_ls_wR_factor_gt          0.0645
_refine_ls_wR_factor_ref         0.0653
_reflns_Friedel_coverage         0.000
_reflns_friedel_fraction_full    .
_reflns_friedel_fraction_max     .
_reflns_number_gt                76
_reflns_number_total             77
_reflns_threshold_expression     'I > 2\s(I)'
_cod_data_source_file            1529501.cif
_cod_data_source_block           1529501
_cod_depositor_comments          'Chemical formula was improved'
_cod_original_cell_volume        714.56(12)
_cod_database_code               1529501
_shelx_shelxl_version_number     2014/7
_shelx_space_group_comment
;
The symmetry employed for this shelxl refinement is uniquely defined
by the following loop, which should always be used as a source of
symmetry information in preference to the above space-group names.
They are only intended as comments.
;
_shelx_res_file
;

    a.res created by SHELXL-2014/7

TITL a in Fm-3m
CELL 0.71073   8.9402   8.9402   8.9402  90.000  90.000  90.000
ZERR    8.00   0.0005   0.0005   0.0005   0.000   0.000   0.000
LATT  4
SYMM -X, -Y, Z
SYMM -X, Y, -Z
SYMM X, -Y, -Z
SYMM Z, X, Y
SYMM Z, -X, -Y
SYMM -Z, -X, Y
SYMM -Z, X, -Y
SYMM Y, Z, X
SYMM -Y, Z, -X
SYMM Y, -Z, -X
SYMM -Y, -Z, X
SYMM Y, X, -Z
SYMM -Y, -X, -Z
SYMM Y, -X, Z
SYMM -Y, X, Z
SYMM X, Z, -Y
SYMM -X, Z, Y
SYMM -X, -Z, -Y
SYMM X, -Z, Y
SYMM Z, Y, -X
SYMM Z, -Y, X
SYMM -Z, Y, X
SYMM -Z, -Y, -X
SFAC O F K RB W
UNIT 3 3 1 2 1
TEMP 23.000
ACTA 50

L.S. 4
BOND
FMAP 2
PLAN 20
EXYZ O F
EADP O F
WGHT    0.024600   16.816200
EXTI    0.003567
FVAR       0.20951
W     5    0.000000    0.000000    0.000000    10.02083    0.02502    0.02502 =
         0.02502    0.00000    0.00000    0.00000
RB    4    0.250000    0.250000    0.250000    10.04167    0.02666    0.02666 =
         0.02666    0.00000    0.00000    0.00000
K     3    0.000000    0.500000    0.000000    10.02083    0.01375    0.01375 =
         0.01375    0.00000    0.00000    0.00000
F     2    0.212106    0.000000    0.000000    10.06250    0.01156    0.05879 =
         0.05879    0.00000    0.00000    0.00000
O     1    0.212106    0.000000    0.000000    10.06250    0.01156    0.05879 =
         0.05879    0.00000    0.00000    0.00000
HKLF 4

REM  a in Fm-3m
REM R1 =  0.0232 for      76 Fo > 4sig(Fo)  and  0.0239 for all      77 data
REM      8 parameters refined using      0 restraints

END

WGHT      0.0256     15.8948

REM Highest difference peak  0.893,  deepest hole -0.870,  1-sigma level  0.191
Q1    1   0.1178  0.0000  0.0000  10.12500  0.05    0.89
Q2    1   0.0000  0.5507  0.0507  10.25000  0.05    0.70
Q3    1   0.0700  0.5000  0.0000  10.12500  0.05    0.62
Q4    1   0.2500  0.2500  0.1487  10.25000  0.05    0.59
Q5    1   0.2945  0.0000  0.0000  10.12500  0.05    0.52
Q6    1   0.3005  0.1995  0.1995  10.16667  0.05    0.50
Q7    1   0.2972  0.0000 -0.0432  10.50000  0.05    0.46
Q8    1   0.1523  0.2685  0.2315  10.50000  0.05    0.40
Q9    1   0.2144  0.0582  0.0582  10.50000  0.05    0.36
Q10   1  -0.0673 -0.0673  0.0673  10.16667  0.05    0.33
Q11   1   0.1877  0.0000  0.0696  10.50000  0.05    0.31
Q12   1   0.3512  0.0633  0.0633  10.50000  0.05    0.26
Q13   1   0.2735  0.2735  0.0512  10.50000  0.05    0.21
Q14   1   0.1476  0.1476  0.0648  10.50000  0.05    0.08
Q15   1   0.2818  0.0704 -0.1644  11.00000  0.05    0.06
Q16   1   0.1528  0.3472  0.1528  10.16667  0.05    0.02
Q17   1   0.2746 -0.0727  0.1282  11.00000  0.05    0.01
;
_shelx_res_checksum              79635
_shelx_hkl_file
;
  -1  -1  -1 2020.95   94.45
  -1  -1  -1 1868.89  133.51
  -1  -1   1 2124.89  114.44
  -1   1  -1 2244.42   93.79
  -1   1   1 2161.27   93.59
   1  -1  -1 2315.77  132.32
   1  -1   1 2030.01  114.62
   1   1  -1 2021.79  132.32
  -2   0   0  994.48   44.97
   0  -2   0  928.74   66.34
   0  -2   0  937.66   54.56
   0   0  -2 1040.46   46.53
   0   0  -2 1017.89   63.42
   0   0   2  975.62   54.91
   0   2   0 1003.63   45.34
   2   0   0  986.20   63.61
  -2  -2   0 7058.97  387.24
  -2   0  -2 6854.57  315.98
  -2   0  -2 6598.00  445.68
  -2   0   2 7145.67  314.77
  -2   0   2 7761.55  386.60
  -2   2   0 7252.46  315.82
   0  -2   2 6993.62  385.50
   0   2  -2 7355.24  315.42
   0   2  -2 6782.98  445.33
   0   2   2 7542.52  316.50
   2  -2   0 7474.45  445.80
   2  -2   0 6392.30  386.37
   2   0  -2 7017.74  445.47
   2   0   2 6607.00  387.72
   2   2   0 8033.81  315.41
  -2  -2  -2  165.81   10.41
  -2  -2  -2  134.30   14.60
  -2  -2   2  148.24   11.27
  -2   2  -2  147.07    9.55
  -2   2   2  140.41    9.10
   2  -2  -2  162.69   13.23
   2  -2   2  167.22   11.81
   2   2  -2  156.71   13.54
  -3  -1  -1 1074.29   51.67
  -3  -1   1 1155.05   50.33
  -3  -1   1  960.58   64.86
  -3   1  -1 1156.50   51.96
  -3   1   1 1160.23   51.64
  -1  -3  -1  942.16   75.88
  -1  -3  -1 1006.87   62.90
  -1  -3   1 1147.21   62.78
  -1  -1  -3 1100.75   53.71
  -1  -1  -3 1224.53   73.38
  -1  -1   3 1141.75   62.88
  -1   1  -3 1221.99   71.21
  -1   1   3 1067.14   52.65
  -1   1   3 1183.82   62.22
  -1   3  -1 1123.29   52.18
  -1   3   1 1106.30   52.09
   1  -3  -1 1176.37   75.19
   1  -3  -1 1101.01   61.33
   1  -3   1 1129.40   62.49
   1  -1  -3 1215.92   73.02
   1  -1   3 1134.30   63.34
   1   1  -3 1100.82   52.59
   1   1  -3 1118.03   72.46
   1   1   3 1184.58   63.31
   1   3  -1 1152.44   51.40
   1   3   1 1116.35   52.14
   3  -1  -1 1204.51   72.80
   3  -1   1 1212.12   71.56
   3   1  -1 1089.67   73.31
   3   1   1 1028.23   73.32
  -3  -3  -1  560.26   28.63
  -3  -3  -1  611.10   44.37
  -3  -3  -1  559.78   36.11
  -3  -3   1  572.17   36.18
  -3  -1  -3  600.01   30.16
  -3  -1  -3  529.70   40.42
  -3  -1   3  602.33   27.00
  -3  -1   3  618.05   36.01
  -3   1  -3  572.55   29.51
  -3   1   3  589.11   28.17
  -3   1   3  572.62   36.32
  -3   3  -1  582.23   29.36
  -3   3   1  596.33   29.31
  -1  -3  -3  604.49   42.94
  -1  -3   3  579.71   34.63
  -1   3  -3  661.05   29.60
  -1   3  -3  588.05   39.18
  -1   3   3  580.42   29.68
   1  -3  -3  664.68   42.25
   1  -3   3  590.04   34.83
   1   3  -3  633.74   28.53
   1   3  -3  569.54   40.64
   1   3   3  531.86   30.72
   1   3   3  618.84   34.84
   3  -3  -1  634.25   41.17
   3  -3  -1  556.35   35.24
   3  -3   1  665.75   41.13
   3  -3   1  574.57   35.69
   3   1  -3  556.90   40.38
   3   1   3  562.12   36.81
   3   3  -1  576.27   26.81
   3   3  -1  548.31   42.68
  -3  -3  -3  351.01   20.38
  -3  -3  -3  334.01   29.29
  -3  -3   3  364.23   24.24
  -3   3  -3  387.06   20.59
  -3   3   3  360.62   19.73
   3  -3  -3  408.25   28.41
   3  -3   3  367.46   24.69
   3   3  -3  376.98   28.70
  -4   0   0 9718.85  428.90
   0  -4   0 9995.76  524.23
   0   0  -4 9471.23  431.92
   0   0  -4 9527.31  605.79
   0   0   4 9830.09  524.95
   0   4   0 9689.30  429.89
   4   0   0 9734.39  606.35
   4  -2   0  416.87   28.23
   4   2   0  380.93   30.33
   0  -4   2  375.11   24.18
   0   4  -2  397.72   20.79
   0   4   2  394.16   21.56
   2   0  -4  406.47   28.66
   2   0   4  401.63   26.10
  -2   0   4  350.47   20.75
  -2   0   4  410.00   24.85
   0  -4  -2  400.65   32.18
  -2   0  -4  419.69   22.49
  -2   0  -4  439.90   28.01
  -4  -2   0  405.68   27.57
  -4   2   0  399.63   20.86
   4   0  -2  382.06   28.54
   4   0   2  394.05   27.28
   2  -4   0  404.78   23.52
   2   4   0  388.10   19.98
   0   2   4  392.38   23.01
   2  -4   0  396.60   31.30
   0  -2   4  401.12   24.69
   0   2  -4  394.46   21.23
   0   2  -4  390.47   27.22
   0  -2  -4  432.99   29.43
  -4   0   2  318.05   26.61
  -2  -4   0  442.41   34.80
  -2  -4   0  396.31   25.11
  -2   4   0  385.69   21.15
   0  -2  -4  400.62   22.84
  -4   0  -2  417.23   20.97
  -4   0   2  404.67   19.34
  -4  -2  -2 4737.93  225.08
  -4  -2  -2 4441.15  318.00
  -4  -2   2 5143.04  277.14
  -4   2  -2 4813.93  224.91
  -4   2   2 5107.01  224.33
  -2  -4  -2 4829.60  273.82
  -2  -4   2 5113.33  274.43
  -2  -2  -4 4737.35  226.43
  -2  -2  -4 4690.73  317.96
  -2  -2   4 5116.06  274.57
  -2   2  -4 5059.09  225.72
  -2   2  -4 5652.31  314.16
  -2   2   4 5022.17  225.09
  -2   2   4 5570.99  274.07
  -2   4  -2 5203.53  225.42
  -2   4   2 4992.93  225.21
   2  -4  -2 5337.32  319.52
   2  -4  -2 4909.64  271.75
   2  -4   2 4696.61  319.07
   2  -4   2 5018.40  274.01
   2  -2  -4 4981.19  317.11
   2  -2   4 5070.13  275.29
   2   2  -4 4878.92  225.04
   2   2  -4 4767.03  316.57
   2   2   4 5296.73  275.99
   2   4  -2 5399.88  223.49
   2   4  -2 4836.12  320.16
   2   4   2 5278.87  226.26
   4  -2  -2 5351.93  317.17
   4  -2   2 4948.20  277.70
   4   2  -2 4929.62  318.04
  -4  -4   0 5679.35  336.63
  -4   0  -4 6052.38  275.05
  -4   0   4 6036.77  271.73
  -4   0   4 6446.76  336.77
  -4   4   0 6140.93  274.15
   0  -4  -4 6109.33  388.84
   0  -4   4 6408.86  334.45
   0   4  -4 6406.67  274.20
   0   4  -4 6093.80  385.63
   0   4   4 6297.11  276.24
   4  -4   0 6552.29  387.75
   4  -4   0 5561.50  334.43
   4   0  -4 6176.85  386.30
   4   0   4 6473.66  338.09
   4   4   0 6336.73  272.25
   4   4   0 5408.65  390.02
  -4  -4  -2  229.27   13.52
  -4  -4  -2  238.21   21.05
  -4  -4  -2  229.73   17.02
  -4  -4   2  214.13   17.43
  -4  -2  -4  212.32   14.93
  -4  -2  -4  203.30   18.52
  -4  -2   4  195.31   16.95
  -4   2  -4  209.61   14.25
  -4   2   4  206.31   12.79
  -4   2   4  199.99   17.79
  -4   4   2  212.86   13.86
  -2  -4  -4  199.81   21.27
  -2  -4   4  220.95   16.17
  -2   4  -4  220.39   14.43
  -2   4   4  196.30   13.93
   2  -4  -4  234.22   20.14
   2  -4   4  226.60   16.29
   2   4  -4  240.65   13.14
   2   4  -4  220.14   19.46
   2   4   4  190.18   15.53
   2   4   4  263.18   17.39
   4  -4  -2  217.25   19.51
   4  -4   2  221.99   17.00
   4  -2  -4  221.73   18.86
   4  -2   4  204.55   18.33
   4   2  -4  218.73   19.21
   4   2   4  199.94   17.31
   4   4  -2  207.82   21.19
  -4  -4  -4 4251.97  184.32
  -4  -4  -4 3974.07  260.78
  -4  -4   4 4053.66  225.33
  -4   4  -4 4042.26  185.19
  -4   4   4 4058.87  183.93
   4  -4  -4 4088.73  260.03
   4  -4   4 4013.20  225.77
   4   4  -4 4053.12  260.88
  -5  -1  -1 1494.64   69.01
  -5  -1   1 1558.79   67.65
  -5  -1   1 1458.09   87.79
  -5   1  -1 1458.61   69.15
  -5   1   1 1487.75   68.66
  -1  -5  -1 1212.25  101.64
  -1  -5  -1 1476.17   83.66
  -1  -5   1 1590.06  104.80
  -1  -5   1 1515.92   83.71
  -1  -1  -5 1475.78   72.18
  -1  -1  -5 1533.94   97.24
  -1  -1   5 1494.70   84.24
  -1   1  -5 1473.87   71.41
  -1   1  -5 1589.97   95.50
  -1   1   5 1524.55   83.47
  -1   5  -1 1496.03   69.98
  -1   5   1 1493.53   70.40
   1  -5  -1 1470.73  102.43
   1  -5  -1 1521.42   82.03
   1  -5   1 1490.44   83.06
   1  -1  -5 1692.04   72.72
   1  -1  -5 1523.42   97.22
   1  -1   5 1488.99   84.63
   1   1  -5 1368.64   71.37
   1   1  -5 1531.26   96.69
   1   1   5 1498.43   84.07
   1   5  -1 1462.95   69.23
   1   5   1 1571.61   70.22
   5  -1  -1 1500.75   97.08
   5  -1   1 1499.37   95.92
   5   1  -1 1487.05   98.13
   5   1   1 1486.80   97.89
   1   5   3  936.26   46.53
   3  -1  -5  956.80   62.43
   3  -1   5  914.68   56.05
   3   1  -5  917.50   62.13
   3   1   5  980.82   56.60
   5  -3  -1  963.06   62.36
   5  -3   1 1007.13   61.71
   5  -3   1  907.79   57.06
   5   3  -1  877.20   64.70
   5   3   1  877.95   65.02
   1  -5   3  891.15   53.24
   1   5  -3  956.22   44.28
   1   5  -3  859.99   64.74
  -3   1   5  963.93   54.57
  -1  -5  -3  932.21   67.22
  -1  -5   3  941.38   53.47
  -1   5  -3  939.42   45.23
  -1   5   3  889.61   45.66
   1  -5  -3  940.32   65.98
   1  -5   3  896.99   63.22
  -3  -1  -5  899.37   46.82
  -3  -1  -5  792.86   61.41
  -3  -1   5  881.75   43.37
  -3  -1   5  965.84   54.69
  -3   1  -5  899.78   46.12
  -3   1   5  897.49   44.08
  -5  -3   1  857.22   56.99
  -5   3  -1  919.72   44.95
  -5   3   1  902.82   44.45
  -5  -3  -1  989.15   56.49
  -5  -3  -1  949.12   44.17
   5   1   3 1046.36   63.64
   5   1  -3  995.18   63.99
   5  -1   3  926.78   58.04
   3   5  -1  895.71   43.43
   3   5   1  921.73   45.08
   5  -1  -3  954.35   63.24
   1   3  -5  912.73   62.06
   1   3   5  967.10   53.07
   3  -5  -1 1043.25   67.18
   3  -5  -1  917.25   52.26
   3  -5   1  922.04   65.64
   3  -5   1  917.16   53.55
  -1  -3   5  962.22   54.81
  -1   3  -5  907.17   46.10
  -1   3  -5  996.30   60.51
  -1   3   5  865.26   46.82
   1  -3  -5  933.18   63.96
   1  -3   5  929.38   54.83
   1   3  -5  919.31   45.70
  -3   5   1  903.85   45.97
  -1  -3  -5  943.07   46.98
  -1  -3  -5  919.53   64.64
  -5  -1  -3  950.83   45.97
  -5  -1   3  867.40   57.70
  -5   1  -3  927.09   45.68
  -5   1   3  940.02   43.92
  -5   1   3  744.23   56.52
  -3  -5  -1 1157.77   69.41
  -3  -5  -1  812.12   55.19
  -3  -5   1  901.09   55.16
  -3   5  -1  936.50   45.85
  -5  -3  -3  595.47   30.91
  -5  -3  -3  554.02   41.80
  -5  -3   3  533.16   38.18
  -5   3  -3  555.35   30.61
  -5   3   3  587.41   29.74
  -3  -5  -3  561.69   45.37
  -3  -5   3  598.29   36.51
  -3  -3  -5  565.05   31.21
  -3  -3  -5  533.86   43.03
  -3  -3   5  598.93   36.71
  -3   3  -5  592.69   31.45
  -3   3   5  564.71   30.28
  -3   5  -3  563.36   30.72
  -3   5   3  565.16   30.78
   3  -5  -3  615.09   44.22
   3  -5   3  598.97   35.98
   3  -3  -5  546.50   41.86
   3  -3   5  605.85   37.59
   3   3  -5  600.09   42.04
   3   3   5  688.81   38.73
   3   5  -3  582.61   45.36
   3   5   3  578.82   31.62
   5  -3  -3  553.34   41.65
   5  -3   3  554.14   38.92
   5   3  -3  546.11   43.02
  -5  -5  -1 1009.22   66.30
  -5  -5  -1  970.09   55.69
  -5  -5   1  898.65   56.23
  -5  -1  -5  897.59   46.18
  -5  -1   5  927.96   56.32
  -5   1  -5  915.08   45.72
  -5   1   5  843.91   41.99
  -5   1   5  797.98   56.06
  -5   5  -1  872.52   44.41
  -5   5   1  882.48   44.53
  -1  -5  -5  870.58   64.79
  -1  -5   5  884.65   53.21
  -1   5  -5  892.38   45.16
  -1   5   5  826.61   46.01
   1  -5  -5  842.31   63.67
   1  -5   5  953.80   53.61
   1   5  -5  963.00   44.72
   1   5  -5  827.05   61.09
   1   5   5  856.16   47.36
   5  -5  -1  920.83   63.49
   5  -5  -1  836.94   52.34
   5  -5   1  860.99   53.33
   5  -1  -5  954.45   61.99
   5  -1   5  874.61   56.52
   5   1  -5  848.00   61.52
   5   1   5  888.39   55.75
   5   5  -1  805.74   66.41
  -5  -5  -3  678.87   47.34
  -5  -5   3  603.44   41.39
  -5  -3  -5  628.41   34.45
  -5  -3  -5  639.16   44.92
  -5  -3   5  597.88   41.34
  -5   3  -5  586.09   34.01
  -5   3   5  635.00   32.34
  -5   5  -3  633.44   33.91
  -5   5   3  640.34   33.69
  -3  -5  -5  560.56   48.35
  -3  -5   5  631.41   40.05
  -3   5  -5  592.10   34.22
  -3   5   5  591.55   33.72
   3  -5  -5  605.25   47.34
   3  -5   5  633.12   40.11
   3   5  -5  623.57   47.19
   3   5   5  662.58   35.74
   5  -5  -3  634.73   47.31
   5  -5   3  605.65   40.61
   5  -3  -5  616.36   46.05
   5  -3   5  638.49   43.09
   5   3  -5  626.94   46.78
   5   3   5  668.42   42.16
   5   5  -3  656.28   50.27
   5   5   3  605.43   33.00
  -5  -5  -5  573.47   29.34
  -5  -5  -5  527.29   40.94
  -5  -5   5  507.16   36.39
  -5   5  -5  520.94   31.03
  -5   5   5  522.89   29.78
   5  -5  -5  475.71   41.22
   5  -5   5  520.59   37.00
   5   5  -5  518.04   42.83
  -6   0   0  413.65   20.86
   0  -6   0  331.50   34.28
   0  -6   0  401.82   24.49
   0   0  -6  437.22   25.08
   0   0  -6  438.26   29.18
   0   0   6  403.95   25.64
   0   6   0  396.74   22.51
   6   0   0  395.71   29.53
   2   0  -6 4230.28  193.16
   2   0  -6 4158.23  269.70
   2   0   6 4365.42  235.24
   6  -2   0 4314.06  269.29
   6   2   0 4480.08  272.48
   0  -6  -2 4005.82  276.32
   0  -6   2 4121.11  275.77
   0  -6   2 4231.07  232.97
   0   6  -2 4252.20  191.93
   0   6   2 4322.20  193.32
  -2   0  -6 4334.03  268.72
  -2   0   6 4359.06  234.04
  -2   0  -6 4179.74  195.00
  -6  -2   0 4440.78  237.88
  -6   2   0 4151.20  191.49
   0  -6  -4  198.06   23.35
   0   6   4  200.71   16.12
   4   0  -6  239.58   20.08
   4   0   6  222.46   19.79
   6  -4   0  240.65   20.61
   6  -4   0  210.89   19.53
   6   4   0  234.82   23.86
  -6   4   0  239.82   15.04
  -4   0   6  222.72   18.88
   0   6  -4  193.05   20.67
  -6  -4   0  232.52   20.13
   0  -6   4  235.63   17.13
  -4   0  -6  220.15   16.63
   0   6  -4  224.15   15.03
   0  -2   6 4409.25  235.33
   2  -6   0 4010.97  276.60
   2   6   0 4203.41  192.30
   0   2  -6 4447.47  269.38
   2  -6   0 4225.71  232.49
   6   0   2 4302.17  269.51
  -2   6   0 4101.88  193.57
   0  -2  -6 4418.73  195.36
   0  -2  -6 4252.76  271.39
   0   2   6 4380.98  233.30
   6   0  -2 4254.26  271.45
  -6   0  -2 4261.24  192.56
  -6   0   2 4335.26  190.49
  -6   0   2 3828.12  238.07
  -2  -6   0 4854.99  278.71
  -2  -6   0 4415.57  234.94
   0   2  -6 4059.32  194.64
  -6  -2  -2   50.89    6.07
   2   2  -6   29.07    5.77
   2   2  -6   30.47    6.15
   2   2   6   35.01    6.30
   2   6  -2   34.28    4.82
   2   6   2   28.98    5.86
   2  -2  -6   36.46    7.02
   2  -2   6   31.43    6.36
  -2  -2   6   33.11    5.90
  -2   2  -6   38.42    6.61
  -2   2   6   19.13    5.38
  -2   6  -2   43.49    6.20
  -2   6   2   48.60    6.93
   2  -6  -2   28.83    9.67
   2  -6   2   29.37    8.27
   2  -6   2   33.35    5.02
  -2  -6  -2   23.92    9.05
  -2  -6   2   53.44   15.76
  -2  -6   2   31.23    5.45
  -2  -2  -6   32.17    6.63
  -2  -2  -6   34.21    7.51
  -6   2   2   37.03    5.09
  -6  -2   2   31.91    8.42
   6  -2  -2   22.20    6.06
   6  -2   2   45.04    8.86
   6   2  -2   33.61    7.80
   6   2   2   51.60    9.18
  -6   2  -2   32.73    5.14
   4  -2  -6 2850.94  188.58
   4  -2   6 3091.37  166.97
  -4   2   6 2831.36  133.39
   2   6   4 2960.57  137.11
  -4   2  -6 2833.78  135.99
   6  -4   2 2894.11  166.35
   6   4  -2 2857.35  192.17
  -2   6  -4 2842.88  134.99
  -2   6   4 2974.14  135.79
   2  -6  -4 2826.46  192.09
   2  -6   4 3066.25  163.05
   2   6  -4 2806.98  191.68
  -6   4  -2 2987.20  134.77
  -6   4   2 2955.76  133.92
  -4  -2  -6 2946.20  136.94
  -4  -2   6 2919.83  164.66
  -2  -6   4 3022.29  163.30
  -6  -4   2 2779.75  166.92
   4   2   6 3436.98  167.27
   6  -4  -2 2951.83  189.15
   6   4   2 2891.65  191.42
   4   2  -6 2916.43  188.60
  -2  -6  -4 2634.41  192.91
   0   4  -6  242.31   16.09
   0  -4   6  220.71   17.64
   0  -4  -6  234.13   21.77
   0   4   6  214.93   17.35
  -4  -6   0  185.27   18.08
  -6   0  -4  240.67   15.59
   4  -6   0  247.41   24.36
   4  -6   0  203.79   15.30
   6   0  -4  214.04   20.15
   6   0   4  228.67   19.92
  -4   6   0  210.43   15.10
  -6   0   4  206.97   20.53
  -4  -6   0  282.15   26.09
   4   6  -2 3049.84  201.97
   4   6   2 2930.63  137.15
   6  -2  -4 2877.99  192.92
   6  -2   4 3174.72  171.59
   6   2  -4 2862.10  193.95
   4  -6   2 2895.70  166.05
  -2   4   6 3017.82  139.46
   2  -4  -6 2886.01  193.96
   2  -4   6 2998.21  167.86
   2   4  -6 2959.45  192.54
   2   4   6 2899.17  141.18
   4  -6  -2 2896.52  196.45
  -4   6   2 2963.95  138.58
  -2  -4  -6 2981.35  195.74
  -2  -4   6 2743.14  167.13
  -2   4  -6 2905.22  138.93
  -6  -2  -4 3149.03  139.13
  -6  -2   4 2873.15  171.09
  -6   2  -4 2976.23  138.27
  -6   2   4 3031.99  135.92
  -4  -6  -2 3486.91  197.80
  -4  -6  -2 3473.26  168.23
  -4  -6   2 3065.00  168.55
  -4   6  -2 2913.73  137.87
  -6  -4  -4  142.91   11.60
  -6  -4  -4  141.41   15.07
  -6  -4   4  130.99   15.51
  -6   4  -4  143.82   12.70
  -6   4   4  133.27   11.24
  -4  -6  -4  138.54   17.70
  -4  -6   4  146.72   14.22
  -4  -4  -6  125.77   11.39
  -4  -4  -6  126.46   16.20
  -4  -4   6  131.96   14.31
  -4   4  -6  119.47   12.38
  -4   4   6  117.95   11.35
  -4   6  -4  132.27   12.42
  -4   6   4  143.11   12.80
   4  -6  -4  138.18   17.65
   4  -6   4  149.83   13.75
   4  -4  -6  141.64   16.36
   4  -4   6  149.34   15.46
   4   4  -6  144.14   16.39
   4   6  -4  140.38   19.47
   4   6   4  122.66   12.15
   6  -4  -4  124.54   15.87
   6  -4   4  138.78   15.90
   6   4  -4  157.11   18.68
  -6  -6   0 2472.65  137.34
  -6   0  -6 2412.22  113.05
  -6   0   6 2374.99  139.24
  -6   6   0 2369.27  110.81
   0  -6  -6 2302.99  158.64
   0  -6   6 2443.28  134.89
   0   6   6 2337.23  114.76
   6   0  -6 2282.80  155.05
   6   0   6 2330.66  136.88
   6   6   0 2331.83  161.52
  -6  -6  -2   55.67   11.57
  -6  -6  -2   87.43   11.05
  -6  -6   2   45.65   10.57
  -6  -2  -6   53.20    9.39
  -6  -2   6   50.96   11.23
  -6   2  -6   55.33    8.64
  -6   6  -2   56.22    8.11
  -6   6   2   38.79    7.28
  -2  -6  -6   35.24   11.85
  -2  -6   6   56.29    9.26
  -2   6  -6   64.68    9.19
  -2   6   6   52.88    9.07
   2  -6  -6   40.52   10.85
   2  -6   6   51.14    8.75
   2   6  -6   54.00   10.70
   2   6   6   51.88   10.38
   6  -6  -2   53.59   11.98
   6  -6   2   44.76    8.78
   6  -2  -6   43.05    9.77
   6  -2   6   60.41   11.70
   6   2  -6   59.26   10.99
   6   2   6   50.37   10.00
   6   6  -2   61.14   15.81
  -6  -6  -4 1856.70  113.41
  -6  -6   4 1699.65  100.95
  -6  -4  -6 1804.22   81.93
  -6  -4   6 1699.30  101.24
  -6   4  -6 1662.85   83.02
  -6   4   6 1648.42   80.10
  -6   6  -4 1648.17   81.94
  -6   6   4 1648.40   81.46
  -4  -6  -6 1518.71  114.74
  -4  -6   6 1659.73   99.01
  -4   6  -6 1581.92   82.70
  -4   6   6 1665.16   82.15
   4  -6  -6 1536.12  114.61
   4  -6   6 1688.48   98.94
   4   6  -6 1656.69  115.16
   4   6   6 1656.74   82.35
   6  -6  -4 1617.94  115.03
   6  -6   4 1734.33   99.70
   6  -4  -6 1573.55  113.43
   6  -4   6 1769.84  102.43
   6   4  -6 1693.24  114.96
   6   6  -4 1745.65  119.47
  -6  -6   6   48.81   11.66
  -6   6  -6   26.86    8.25
  -6   6   6   44.30    9.41
   6  -6  -6   41.48   12.26
   6  -6   6   39.11   11.27
   6   6  -6   42.57   13.48
   6   6   6   38.69    8.78
  -7  -1  -1  407.15   21.83
  -7  -1   1  422.49   30.79
  -7   1  -1  396.55   21.98
  -7   1   1  393.87   21.18
  -1  -7  -1  443.17   38.14
  -1  -7   1  415.81   35.92
  -1  -7   1  400.59   25.83
  -1  -1  -7  395.38   25.26
  -1  -1  -7  426.24   30.41
  -1  -1   7  369.68   26.51
  -1   1  -7  391.98   25.57
  -1   1   7  405.21   26.04
  -1   7  -1  399.66   23.18
  -1   7   1  405.76   24.32
   1  -7  -1  345.33   36.57
   1  -7   1  352.89   34.38
   1  -7   1  386.69   24.84
   1  -1  -7  379.05   24.30
   1  -1  -7  410.44   30.41
   1  -1   7  394.94   27.11
   1   1  -7  365.78   24.66
   1   1  -7  436.22   30.05
   1   1   7  413.65   26.59
   1   7  -1  405.04   22.77
   1   7   1  403.55   23.75
   7  -1  -1  382.09   30.13
   7  -1   1  402.86   29.24
   7   1  -1  404.08   31.68
   7   1   1  438.07   31.57
   3   1   7  268.73   22.29
   7  -3  -1  265.78   23.22
   7  -3   1  267.48   23.89
   7   3  -1  306.87   27.04
   7   3   1  277.68   26.37
  -1   7  -3  277.40   17.99
  -1   7   3  273.68   19.20
   1  -7  -3  261.62   28.87
   1  -7   3  244.04   25.37
   1  -7   3  275.07   19.54
   1   7  -3  318.31   18.01
   1   7  -3  264.92   29.45
   1   7   3  292.63   19.83
   3  -1  -7  283.13   23.65
   3  -1   7  308.50   22.95
   3   1  -7  276.01   23.20
  -1  -7  -3  249.12   28.71
  -1  -7   3  261.49   19.79
  -7  -3   1  285.44   24.04
  -7   3  -1  288.62   17.57
  -7   3   1  263.38   16.74
  -3  -1  -7  262.20   20.11
  -3  -1   7  287.98   21.58
  -3   1  -7  280.00   20.03
  -3   1   7  262.82   17.81
  -3   1   7  274.95   21.15
  -1   7   5  320.55   22.66
   1  -7  -5  337.81   32.20
   1  -7   5  302.02   23.31
  -7   5   1  324.62   19.87
  -5  -1  -7  317.29   22.69
  -5  -1   7  310.00   26.06
  -7  -5  -1  403.20   27.63
  -7  -5   1  348.31   27.48
  -1  -7   5  331.71   23.83
  -7   5  -1  322.25   20.42
   7   5  -1  319.87   32.56
   7   5   1  308.69   31.10
  -1   7  -5  317.13   21.13
  -5   1  -7  312.12   22.37
  -1  -7  -5  298.88   31.55
   7  -5   1  267.06   24.67
   5   1  -7  315.73   27.20
   1   7  -5  253.07   27.63
   1   7   5  351.33   23.90
   5   1   7  314.95   26.23
   5  -1   7  318.84   27.07
   5  -1  -7  308.92   27.37
   3  -7   1  226.52   26.01
   3  -7  -1  295.50   29.86
   1  -3  -7  254.05   23.61
   1   3  -7  286.44   22.26
  -1   3   7  264.52   20.00
  -3   7   1  275.66   19.32
  -1  -3  -7  274.59   18.85
  -1  -3  -7  286.20   24.65
   1  -3   7  270.78   21.11
   1   3  -7  256.50   18.80
  -3   7  -1  293.60   18.73
  -7  -1  -3  335.78   18.69
  -7   1   3  219.86   22.66
  -3  -7  -1  310.39   28.35
  -1  -3   7  280.83   21.11
  -1   3  -7  254.74   18.98
  -3  -7   1  279.07   20.98
   7   1  -3  282.77   24.80
   7  -1  -3  271.30   23.65
   7  -1   3  231.84   22.55
   3  -7   1  282.46   18.45
   3   7   1  266.04   17.34
  -7  -1   3  281.34   24.68
  -7   1  -3  303.60   17.99
  -3  -7  -1  255.70   20.75
  -3  -7   1  323.55   30.95
   7  -3   3  187.44   19.83
   7   3  -3  200.17   21.70
  -7   3  -3  197.51   14.87
  -7   3   3  220.08   14.12
  -3  -7  -3  223.48   24.49
  -3  -7   3  188.64   17.00
  -3  -3  -7  208.01   15.96
  -3  -3  -7  200.60   20.76
  -3   7   3  213.14   16.28
  -3   3  -7  214.37   16.54
  -3   3   7  182.60   15.24
   7   3   3  267.55   23.56
  -3  -3   7  205.37   18.05
  -7  -3  -3  213.20   15.26
  -7  -3   3  179.02   20.53
   3  -3  -7  199.11   20.03
   3  -3   7  239.09   19.37
   3   3  -7  218.34   19.64
   3   7  -3  209.68   27.59
   3   7   3  207.31   16.30
   7  -3  -3  178.95   19.33
   3  -7   3  232.80   16.67
   3  -7  -3  204.41   24.13
  -3   7  -3  190.87   15.25
  -5  -3  -7  240.03   17.55
  -5  -3   7  238.41   20.95
  -7   5   3  211.19   15.51
  -7   5  -3  209.03   16.16
  -7  -5   3  180.20   20.89
   7  -5  -3  189.97   21.64
   7  -5   3  179.65   19.86
   7   5  -3  225.86   25.91
   7   5   3  190.42   22.02
   5  -3  -7  200.22   21.34
   5  -3   7  215.80   22.00
   5   3  -7  209.43   21.44
   3  -7   5  207.13   17.89
   3   7  -5  228.07   24.93
   3   7   5  233.02   18.35
   3  -7  -5  190.64   23.73
  -3   7   5  220.28   17.60
  -3  -7   5  219.98   18.83
  -3   7  -5  200.93   16.55
  -5   3   7  207.71   15.05
  -3  -7  -5  206.63   24.72
  -5   3  -7  232.23   17.85
  -5  -7   1  286.31   25.15
  -5  -7  -1  394.68   31.76
  -5  -7  -1  345.73   25.41
  -7   1  -5  362.60   21.79
  -7   1   5  268.50   26.61
  -7  -1   5  312.56   28.26
  -7  -1  -5  333.51   21.80
   7   1  -5  318.17   27.88
  -1   5  -7  295.36   21.52
  -1   5   7  309.32   22.83
   5   7  -1  300.68   34.43
   7  -1  -5  286.76   27.02
   7  -1   5  326.95   26.51
   1  -5  -7  288.97   28.11
   1  -5   7  319.85   24.25
   1   5   7  298.25   23.09
   5  -7  -1  308.40   31.55
   7   1   5  269.09   24.93
  -5   7   1  293.30   20.74
  -1  -5  -7  296.52   29.21
  -1  -5   7  357.92   25.05
  -5   7  -1  322.26   20.83
   3   5  -7  232.64   22.54
   5  -7  -3  204.07   24.86
   5  -7   3  206.18   17.82
   5   7  -3  231.88   30.55
   7  -3  -5  226.47   22.43
   7  -3   5  215.17   21.73
   7   3  -5  241.81   23.91
   7   3   5  231.12   21.44
   3   5   7  248.41   19.14
  -7  -3  -5  221.29   17.21
  -7  -3   5  203.31   22.62
  -7   3  -5  200.46   16.57
  -5  -7  -3  257.81   24.26
  -5  -7   3  216.45   20.38
  -5   7  -3  226.75   16.98
  -5   7   3  197.00   17.17
  -3  -5  -7  165.89   22.62
  -3  -5   7  324.66   22.31
  -3   5  -7  208.34   17.94
  -3   5   7  241.47   18.24
   3  -5  -7  208.35   22.84
   3  -5   7  207.55   19.63
  -7  -5   5  213.88   23.24
  -7   5  -5  248.34   18.66
  -7   5   5  212.40   16.80
  -5  -7  -5  238.01   24.26
  -5  -7   5  207.11   20.83
  -5  -5  -7  224.51   16.36
  -5  -5   7  190.61   20.84
  -5   5  -7  217.91   19.42
  -5   5   7  227.30   17.58
  -5   7  -5  193.35   17.79
  -5   7   5  212.93   18.30
   5  -7  -5  233.98   26.26
   5  -7   5  197.29   19.77
   5  -5  -7  238.36   24.77
   5  -5   7  228.40   22.48
   5   5  -7  235.98   24.56
   5   7  -5  245.16   28.37
   5   7   5  221.24   17.19
   7  -5  -5  223.16   24.10
   7  -5   5  227.24   23.07
   7   5  -5  213.98   25.34
  -7  -7  -1  173.12   17.28
  -7  -7   1  124.46   17.07
  -7  -1  -7  128.64   14.54
  -7  -1   7  122.52   18.87
  -7   1  -7  125.95   14.51
  -7   7  -1  119.95   12.41
  -7   7   1  125.91   12.84
  -1  -7  -7   97.65   18.88
  -1  -7   7  148.57   15.87
  -1   7   7  110.04   15.21
   1  -7  -7  102.18   18.39
   1  -7   7  147.94   15.73
   1   7   7  141.55   16.88
   7  -1  -7  115.20   16.70
   7  -1   7   99.31   15.46
   7   1  -7  131.44   17.07
   7   1   7  137.15   16.66
   7   7  -1  129.57   23.60
   7   7   1  158.45   21.63
  -7  -7   3   73.70   14.64
  -7  -3  -7  123.71   13.85
  -7  -3   7  160.66   19.95
  -7   3  -7  113.13   13.81
  -7   7  -3  118.92   12.52
  -7   7   3  133.94   13.16
  -3  -7  -7   92.54   18.04
  -3  -7   7  100.82   14.27
  -3   7  -7  108.87   13.78
  -3   7   7  129.46   15.12
   3  -7  -7   98.98   17.63
   3  -7   7  124.67   14.94
   3   7  -7   91.37   16.39
   3   7   7  102.55   14.08
   7  -7  -3   89.44   17.86
   7  -7   3   90.40   13.41
   7  -3  -7   89.62   15.16
   7  -3   7  138.72   17.82
   7   3  -7  113.67   17.01
   7   3   7  123.00   16.37
   7   7  -3  122.75   23.63
   7   7   3   93.93   16.22
  -7  -7  -5   97.73   14.21
  -7  -7   5   73.28   15.25
  -7  -5  -7   93.79   10.82
  -7  -5   7   70.69   15.55
  -7   5  -7  101.01   14.25
  -7   7  -5   81.38   12.40
  -7   7   5   83.57   12.10
  -5  -7  -7  100.90   16.39
  -5  -7   7   83.47   14.41
  -5   7  -7   83.43   13.12
  -5   7   7   69.74   12.50
   5  -7  -7   57.56   15.78
   5  -7   7   84.41   14.36
   5   7  -7   60.31   15.94
   5   7   7   65.89   11.24
   7  -7  -5   76.88   17.13
   7  -7   5   90.66   14.89
   7  -5  -7   91.92   16.46
   7  -5   7  109.86   17.38
   7   5  -7   60.69   15.72
   7   7  -5   80.54   20.69
  -7   7   7   20.70    9.56
   0  -8   0 2783.17  189.45
   0   0  -8 2820.50  133.60
   0   0  -8 2821.41  180.64
   0   0   8 2866.35  158.06
   0   8   0 2718.39  131.26
   8   0   0 2905.21  181.87
   0   8   2   83.21   10.77
   2   0  -8   57.86    8.35
   2   0  -8   81.58   10.50
   2   0   8   69.82   10.23
   8   2   0   73.48   12.85
  -2   0   8   67.20    9.55
   0  -8  -2   78.62   17.31
   0  -8   2   49.24   11.60
   0  -8   2   79.69    8.65
   0   8  -2   71.36    8.64
  -8   2   0   80.47    7.82
  -2   0  -8   70.81   10.94
   8  -4   0 2137.84  129.04
   8   4   0 2411.88  149.63
  -8  -4   0 2566.80  130.10
  -8   4   0 2072.83  102.29
  -4   0  -8 2177.67  107.37
  -4   0   8 2201.73  126.95
   0  -8  -4 1936.00  150.12
   0  -8   4 2249.20  124.19
   0   8   4 2260.22  106.64
   4   0  -8 1989.16  143.34
   4   0   8 2114.53  128.03
   0  -8   6   66.43   10.77
   0   8   6   59.45   12.61
  -8  -6   0   61.97   12.08
  -8   6   0   51.05    8.59
  -6   0  -8   75.33   12.14
   0  -8  -6   52.27   14.97
   8   6   0   69.73   16.49
   6   0   8   64.99   13.05
   6   0  -8   60.65   11.98
  -2   8   0   50.60    8.90
  -2  -8   0   89.80   15.68
  -8   0   2   69.32   12.56
   0  -2  -8   91.75   11.58
   0  -2   8   75.20   10.04
   0   2  -8   80.37   11.25
   2  -8   0   60.60   15.21
   2   8   0   89.10    9.27
   8   0  -2   77.17   11.56
   0  -2  -8   69.84    9.57
  -8   0  -2   75.54    8.28
  -2   2   8 1988.42   95.25
   8   2  -2 2023.92  130.92
  -8  -2   2 2184.83  117.10
  -2   2  -8 1949.14   95.82
  -2  -8  -2 1992.94  135.75
  -2  -8   2 2007.39  135.33
  -2  -8   2 1968.41  110.98
  -2  -2  -8 1889.91   94.52
  -2  -2   8 1883.33  111.91
  -8   2  -2 1876.48   91.61
   2   8   2 1998.00   93.39
  -2   8  -2 1893.15   92.33
  -2   8   2 1932.09   94.45
   2  -8  -2 1993.62  137.45
   2  -8   2 1925.74  109.16
   2  -2  -8 1888.96  128.15
   2  -2   8 1943.83  112.87
   2   2  -8 1924.54  127.17
   8  -2   2 1870.02  115.56
   8  -2  -2 1841.39  127.66
   4  -2  -8   70.78   11.43
   2   8  -4   56.47   15.61
  -4  -2  -8   65.30   10.54
  -4  -2   8   59.08   10.37
  -4   2  -8   74.30   11.24
  -4   2   8   38.45    7.20
   2   8   4   63.28   10.45
  -2  -8   4   50.79    8.84
  -2   8  -4   64.50    8.91
  -2   8   4   69.94   10.74
   2  -8  -4   50.14   14.75
   2  -8   4   36.83    7.79
  -8  -4   2   57.56   12.18
  -8   4  -2   67.41    8.71
  -8   4   2   57.22    7.52
   8   4  -2   75.15   14.99
   8   4   2   59.10   13.84
   4   2  -8   58.48   10.28
   4  -2   8   34.21   10.13
  -2  -8  -4   49.63   14.45
   8  -4  -2   50.47   10.56
   8  -4   2   50.78   11.76
   6   2  -8 1186.01   84.02
   8  -6   2 1132.28   73.89
   2  -8  -6 1123.05   88.12
   8   6   2 1269.99   87.03
   6  -2   8 1189.05   76.40
  -2   8  -6 1095.09   61.44
   2   8   6 1320.83   65.50
  -8  -6   2 1325.85   77.51
  -8   6  -2 1166.52   60.34
  -8   6   2 1182.45   59.63
  -6  -2  -8 1261.36   64.00
  -6  -2   8 1161.40   76.58
  -6   2  -8 1200.81   63.64
  -2  -8  -6 1031.43   87.58
  -2  -8   6 1176.91   72.88
  -2   8   6 1230.72   64.23
   6  -2  -8 1024.21   82.70
   8   6  -2 1264.75   91.59
   2  -8   6 1227.23   72.69
   0   4   8 2128.15  102.53
   0   4  -8 1988.26   99.69
  -4  -8   0 1954.12  118.27
   0  -4   8 2182.39  118.86
   4  -8   0 1953.41  140.96
   8   0  -4 2002.38  135.55
   8   0   4 2012.82  120.67
   0  -4  -8 1879.67  135.58
  -4   8   0 2080.85   98.13
  -8   0  -4 2246.94   98.05
  -8   0   4 2024.59  121.91
   4  -8  -2   80.48   17.15
  -2   4  -8   57.60    9.94
  -2   4   8   57.01   10.45
   2  -4  -8   64.77   11.64
  -4  -8  -2   68.18   13.82
   4   8  -2   63.25   19.46
  -2  -4   8   48.28    9.74
  -8  -2  -4   72.61    9.55
  -8  -2   4   71.85   13.50
  -4  -8   2   50.66    9.81
  -4   8  -2   48.08    8.28
  -4   8   2   45.19    9.58
  -2  -4  -8   51.40   11.52
   8   2  -4   59.08   12.16
   2   4   8   56.39   10.88
   8  -2  -4   73.90   11.93
   8  -2   4   50.06   11.29
  -8   2  -4   74.17    9.30
   2  -4   8   52.16   10.27
   4  -8  -4 1454.92  108.74
  -8  -4   4 1382.55   93.91
  -8   4  -4 1527.39   75.53
  -4  -8  -4 1585.67  107.49
   4   8   4 1500.13   74.82
   4  -8   4 1506.54   88.39
  -4   4   8 1503.46   75.37
  -4  -8   4 1490.86   90.28
  -4  -4  -8 1476.40   74.40
  -4   8  -4 1491.04   75.06
  -4   8   4 1532.17   76.76
  -4   4  -8 1482.50   77.30
  -4  -4   8 1559.84   91.90
   4  -4  -8 1407.22  103.82
   4  -4   8 1585.06   93.25
   4   4  -8 1500.16  103.43
   4   8  -4 1725.56  116.11
   8   4  -4 1602.75  107.84
   8  -4  -4 1417.49  103.46
   8  -4   4 1579.03   93.85
   6   4  -8   53.42   12.48
  -8   6  -4   50.51    9.65
  -8   6   4   36.60    8.15
  -6  -4  -8   71.37   10.46
  -6  -4   8   66.77   14.10
   4  -8   6   44.57   10.04
   4   8  -6   49.00   14.89
   4   8   6   46.46   10.16
   8  -6  -4   33.41   12.35
  -6   4  -8   57.77   11.69
  -8  -6   4   43.87   12.87
   4  -8  -6   50.56   15.13
   6  -4  -8   55.52   12.73
   6  -4   8   55.31   13.76
  -4  -8   6   48.49   10.96
  -4   8  -6   46.94   10.03
  -4   8   6   53.47   11.31
  -4  -8  -6   39.44   13.37
   8  -6   4   28.69   10.99
   8   6  -4   20.87   13.63
  -6  -8   0   56.12   11.59
   8   0   6   58.47   12.10
  -8   0  -6   74.19   11.01
  -8   0   6   68.30   14.98
   0  -6  -8   54.09   13.28
   0  -6   8   39.68   10.03
   0   6   8   43.50   11.46
   6   8   0   74.62   17.34
   8   0  -6   42.17   11.05
  -6   8   0   58.08    9.37
  -6   8   2 1190.69   62.30
  -6  -8  -2 1440.27   88.48
  -6  -8   2 1178.29   76.61
  -6   8  -2 1214.70   62.07
  -8   2  -6 1242.72   63.32
   2   6   8 1201.22   65.32
   6  -8  -2 1137.35   90.37
   6   8  -2 1249.97   97.75
   8  -2  -6 1175.98   85.26
   8  -2   6 1211.63   76.36
   8   2  -6 1227.77   86.74
   8   2   6 1211.87   76.24
  -2   6   8 1240.30   65.97
   2  -6  -8 1121.96   86.59
   2  -6   8 1257.49   75.48
  -8  -2  -6 1295.88   64.14
  -8  -2   6 1095.41   79.01
  -2  -6   8 1186.85   75.24
  -2   6  -8 1206.33   64.70
  -2  -6  -8 1061.31   87.10
   8   4  -6   60.14   14.63
   8   4   6   64.17   13.47
   8  -4   6   31.93   11.69
   6   8  -4   68.69   21.59
   8  -4  -6   47.68   12.33
  -8  -4   6   33.81   12.88
  -8   4  -6   52.89   10.75
  -6  -8  -4   63.55   12.68
  -6  -8   4   32.88   10.99
  -6   8  -4   37.61    9.16
  -6   8   4   43.92    9.89
  -4  -6   8   49.65   12.06
  -4   6  -8   45.51   11.34
  -4   6   8   56.33   11.02
   4  -6  -8   31.92   11.31
   4  -6   8   44.48   11.85
   4   6  -8   47.74   12.58
   4   6   8   47.17   10.07
   6  -8  -4   66.90   16.70
   6  -8   4   39.59    9.57
  -8  -4  -6   53.82    9.40
  -8  -6   6  728.91   54.61
  -8   6  -6  761.15   44.19
  -6  -8  -6  819.83   57.18
  -6  -8   6  740.43   52.71
  -6  -6   8  719.01   53.16
  -6   6  -8  714.45   45.14
  -6   6   8  715.29   42.89
  -6   8  -6  684.42   43.19
  -6   8   6  774.85   44.36
   6  -8  -6  656.98   60.24
   6  -8   6  696.58   50.17
   6  -6  -8  626.61   57.83
   6  -6   8  745.07   53.64
   6   6  -8  703.28   59.27
   6   6   8  732.68   42.67
   6   8  -6  752.01   65.18
   8  -6  -6  652.87   58.17
   8  -6   6  730.92   53.24
   8   6  -6  795.40   63.34
  -8  -8   0 1035.24   60.78
  -8   0  -8  927.79   51.94
  -8   8   0  799.71   47.55
   0  -8  -8  765.68   69.44
   0  -8   8  959.16   59.82
   0   8   8 1002.82   55.96
   8   0  -8  822.87   66.59
   8   0   8  869.60   59.12
   8   8   0  834.09   71.37
  -8  -8   2   34.96   12.18
  -8  -2  -8   34.51   10.47
  -8  -2   8   15.88   13.14
  -8   2  -8   46.70   11.32
  -8   8  -2   25.36    7.73
  -8   8   2   16.53    7.38
  -2  -8  -8   12.75   12.02
  -2  -8   8   29.05   10.27
  -2   8   8   36.32   12.01
   2  -8  -8   23.22   11.79
   2  -8   8   22.78    9.59
   2   8   8   22.41   10.94
   8  -2  -8   30.52   11.14
   8  -2   8   14.85   10.15
   8   2  -8   50.85   12.98
   8   2   8   29.87   11.28
   8   8  -2   35.59   17.81
   8   8   2   26.04   12.46
  -8  -8   4  644.15   50.25
  -8  -4   8  565.44   50.88
  -8   8   4  673.54   39.29
  -4  -8  -8  624.03   55.20
  -4   8   8  734.16   43.80
   4   8   8  675.75   40.46
   8   8   4  646.73   53.28
  -1  -9  -1  410.29   39.02
  -1  -9   1  429.88   36.29
  -1  -1  -9  373.29   26.00
  -1  -1   9  386.90   28.10
  -1   1  -9  392.45   27.44
  -1   9  -1  412.39   24.76
  -1   9   1  387.56   26.06
   1  -9  -1  322.20   37.60
   1  -9   1  346.53   34.53
   1  -1  -9  351.09   24.54
   1  -1  -9  380.43   30.72
   1  -1   9  402.96   28.92
   1   1  -9  318.39   24.32
   1   9   1  383.60   25.13
   9  -1  -1  379.95   31.07
   9   1  -1  405.02   32.94
   9   3  -1  311.32   29.89
   9   3   1  355.74   31.22
  -3  -1   9  297.06   24.73
  -3   1  -9  275.15   22.98
  -1  -9  -3  202.04   30.68
  -1  -9   3  296.91   22.42
  -1   9  -3  286.88   20.37
  -1   9   3  295.61   23.12
   1  -9  -3  278.40   33.90
   1  -9   3  277.22   21.53
   1   9  -3  268.89   34.00
   1   9   3  288.66   22.49
   3  -1  -9  268.74   25.92
   3  -1   9  325.24   26.60
   3   1  -9  333.25   26.79
   9  -3   1  272.35   27.66
  -3  -1  -9  321.67   23.53
  -9   3  -1  299.64   19.63
  -9  -3   1  323.38   27.32
   5  -1   9  240.33   24.74
   5   1  -9  256.68   24.99
   5   1   9  245.19   25.63
   5  -1  -9  239.86   24.41
   1   9   5  279.80   23.32
   1  -9   5  220.20   20.52
  -1  -9  -5  214.11   29.84
  -1  -9   5  247.40   21.52
  -1   9   5  236.79   22.48
   1  -9  -5  231.87   30.71
   9  -5   1  237.49   24.43
  -9  -5   1  269.71   25.03
  -9   5  -1  246.99   18.30
  -9   5   1  241.66   17.70
  -5  -1  -9  250.15   22.08
  -5   1  -9  269.14   22.23
   9   5   1  317.44   30.86
   9   5  -1  278.28   30.54
   1  -9   7   98.81   14.63
   7  -1   9  116.93   17.56
   7   1  -9   83.68   15.91
   7   1   9  143.91   18.76
   9   7  -1  128.48   23.20
   9   7   1  113.91   20.48
  -9  -7   1  134.52   17.86
  -9   7  -1  111.08   12.79
  -9   7   1  100.80   12.15
  -1   9   7  121.11   18.20
   1  -9  -7  136.33   23.27
  -1  -9  -7  105.40   21.74
  -1  -9   7  120.65   16.13
   7  -1  -9   88.24   16.30
   1   9   7  135.50   17.86
  -7  -1  -9   90.69   14.73
  -7   1  -9  121.86   16.12
   1  -3   9  268.97   23.91
  -3  -9  -1  344.63   32.18
   1  -3  -9  295.26   26.56
  -3   9  -1  269.27   20.68
  -3   9   1  300.10   22.41
  -1  -3  -9  332.04   21.86
  -3  -9   1  312.77   31.46
   9  -1   3  283.47   26.92
   9   1  -3  267.82   27.21
   3  -9  -1  261.17   33.48
   9  -1  -3  267.28   26.02
  -1  -3   9  258.91   23.48
  -1   3   9  285.78   23.96
  -9   1  -3  327.00   20.29
  -1   3  -9  267.42   22.82
  -9  -1   3  292.96   26.93
  -3   9   3  209.20   19.42
  -3   3   9  198.08   18.17
   3  -9  -3  226.32   29.93
   3  -3   9  219.88   22.07
   3   3  -9  214.13   21.26
   3   9  -3  195.01   31.69
   3   9   3  222.82   17.74
   9  -3  -3  181.73   21.05
   9  -3   3  222.83   23.19
   9   3  -3  203.81   24.86
  -3  -3  -9  188.81   17.14
  -3   9  -3  204.04   17.15
   3  -3  -9  230.11   22.71
  -3  -3   9  245.26   21.52
  -9  -3   3  202.47   22.47
  -9   3  -3  195.60   16.38
  -3  -9  -3  235.77   26.59
  -3  -9   3  202.13   19.15
  -3   3  -9  228.18   20.21
   3   9  -5  212.92   29.18
   9   5  -3  206.62   27.42
  -9  -5   3  194.07   22.55
  -5  -3  -9  192.45   17.75
  -5   3  -9  198.01   20.02
  -3  -9  -5  171.49   24.96
  -3  -9   5  200.38   19.73
  -3   9  -5  213.64   17.69
  -3   9   5  214.79   20.00
   3  -9  -5  169.11   26.40
   3  -9   5  162.26   17.28
  -9   5  -3  188.15   16.59
   3   9   5  204.68   18.93
   5  -3  -9  176.13   21.54
   5  -3   9  194.99   22.84
   5   3  -9  215.99   22.36
   9  -5   3  158.07   20.78
  -5  -3   9  179.52   20.97
   9   7  -3   61.90   21.55
   9   7   3   71.59   16.17
   3   9   7   80.25   14.39
  -7  -3   9   62.26   16.50
  -7   3  -9   99.37   15.57
  -3  -9  -7   46.90   16.32
  -9  -7   3   66.24   15.36
   7  -3  -9   51.60   14.28
   3  -9  -7   64.64   18.31
   3  -9   7   73.64   13.84
  -3  -9   7  114.53   15.97
  -3   9   7   85.50   15.63
  -9   7   3   79.43   11.18
  -7  -3  -9   84.90   13.10
  -9   7  -3   72.77   11.42
   7  -3   9   86.02   16.73
   7   3  -9   82.94   16.08
   9  -1  -5  237.01   24.78
  -1   5   9  249.85   23.33
   5   9  -1  252.40   32.65
   1  -5  -9  250.31   26.10
   1  -5   9  231.45   22.92
   1   5   9  233.46   22.34
  -1  -5  -9  222.78   25.71
  -1  -5   9  220.38   22.48
   9   1   5  255.98   25.30
  -9  -1  -5  297.95   20.77
  -9  -1   5  266.17   26.76
  -9   1  -5  244.52   19.29
  -9   1   5  200.33   24.36
  -5  -9  -1  312.87   29.58
  -5   9  -1  218.99   19.03
  -5   9   1  238.24   19.69
   9   1  -5  260.90   26.26
   9  -1   5  258.63   24.31
  -9  -3   5  200.74   24.03
  -5  -9   3  191.61   21.07
  -5   9  -3  189.40   17.24
  -5   9   3  193.54   18.83
   3  -5   9  208.36   22.05
   9   3   5  160.93   20.62
   3   5   9  161.41   17.50
   5  -9  -3  160.34   26.76
  -3   5  -9  212.67   20.38
  -3   5   9  201.77   19.79
   3  -5  -9  176.96   22.44
   9   3  -5  212.69   25.15
  -9   3  -5  215.12   18.27
  -5  -9  -3  215.13   24.26
   5   9  -3  202.24   33.83
   9  -3  -5  197.20   22.38
   9  -3   5  213.70   21.99
  -3  -5   9  180.68   20.56
  -9  -5   5  140.42   20.74
   9  -5   5  142.62   19.63
   9   5  -5  141.53   23.64
   9  -5  -5   97.51   18.46
  -5  -5  -9  166.63   14.43
  -5  -5   9  124.73   18.51
  -5   5  -9  130.54   17.31
  -5   5   9  145.56   15.77
  -5   9  -5  143.24   15.57
  -5   9   5  123.93   16.53
   5  -9  -5  142.33   23.81
   5  -9   5  120.63   15.56
   5  -5  -9  144.53   20.75
   5  -5   9  122.05   19.63
   5   5  -9  140.76   19.71
   5   9  -5  147.29   28.58
  -9   5  -5  135.92   15.51
  -5  -9  -5  156.65   20.75
  -5  -9   5  134.19   18.39
   5   9  -7   95.69   22.19
   9  -7  -5   59.78   17.81
   7   9   1  128.59   21.20
   9   1  -7  100.47   18.19
   9   1   7  131.97   17.54
   9  -1   7  112.86   16.62
   1   7   9   91.56   16.69
   9  -1  -7  132.26   19.21
  -9  -1  -7   89.50   14.41
  -9  -1   7  119.92   21.17
  -9   1  -7  128.31   15.65
  -7  -9   1  101.01   16.77
   7   9  -1  113.87   24.69
  -7   9   1  115.54   14.30
  -1  -7  -9  101.31   19.57
  -1  -7   9  137.04   18.24
  -1   7   9  120.15   17.92
   1  -7  -9   86.07   18.17
   1  -7   9  121.00   16.93
  -7   9  -1  149.63   15.10
  -9   3  -7   86.51   13.89
  -7  -9   3   70.42   15.92
  -9  -3   7   94.74   19.33
  -7   9   3  113.03   14.10
  -3  -7   9   93.47   16.32
  -3   7  -9   48.52   13.12
  -3   7   9   94.35   16.04
   3  -7  -9   78.90   16.90
   3  -7   9   92.81   16.05
   3   7   9   60.81   12.36
   7   9  -3   78.96   26.28
   7   9   3   91.62   18.14
   9  -3  -7   81.60   16.47
   9   3  -7   72.23   16.87
   9   3   7  102.74   16.72
  -7   9  -3   74.80   12.22
   0 -10   0  152.43   22.39
   0   0 -10  102.94   13.65
   0  10   0  130.72   14.20
  -2   0 -10 1479.19   73.82
   0 -10  -2 1300.15  103.79
   0 -10   2 1247.37   95.35
   0  10   2 1516.21   73.06
  -4   0 -10   64.38   13.63
   0 -10  -4   57.64   18.32
   0  10   4   96.48   15.47
   4   0 -10  101.42   14.93
   4   0  10  115.14   17.28
  10  -4   0   73.60   16.36
  10   4   0  101.76   19.76
  -6   0 -10  966.55   54.23
   0 -10  -6  727.58   71.19
  10   6   0  975.09   72.42
   6   0  10  934.40   62.19
   0 -10   6  815.80   56.80
   0  10   6  998.09   55.86
 -10  -6   0 1066.08   62.63
   6   0 -10  763.56   65.20
 -10   6   0  792.31   46.55
  10   0  -2 1531.09  102.26
   2 -10   0 1286.01  106.85
   0   2  10 1599.40   82.99
   0   2 -10 1324.66   76.32
  -2  10   0 1544.58   75.94
   0  -2  10 1445.83   89.80
  -2 -10   0 1651.57  107.96
 -10  -2   2   62.44   13.62
  -2  -2 -10   62.60   10.62
  -2  -2  10   50.65   11.41
  -2 -10  -2   59.10   16.48
  -2   2  10   47.13   11.31
   2  -2  10   50.34   12.04
  10  -2   2   69.35   16.05
  -2  10  -2   74.00   10.68
  -2  10   2   44.03   11.66
  -2   2 -10   55.35   12.90
   2  -2 -10   56.95   11.53
   2 -10  -2   60.79   18.93
  -2 -10   2   54.49   14.61
  10   2  -2   69.55   14.66
  10  -4   2 1166.96   73.48
  10   4  -2 1241.90   84.43
   2  10  -4 1151.48   89.05
   2  10   4 1186.81   60.17
   4  -2 -10  888.15   76.30
  -2 -10  -4 1028.01   83.74
  -2  10  -4 1109.10   56.94
  -2  10   4 1056.24   60.98
   2 -10  -4  920.78   84.70
  -2 -10   4 1064.11   67.25
 -10  -4   2 1200.95   72.55
 -10   4  -2 1040.86   56.08
  -4  -2  10 1026.00   69.72
  -4   2 -10 1074.22   61.61
   4   2 -10 1045.48   76.92
   4  -2  10 1168.35   72.76
   6  -2 -10   36.56   12.29
   6  -2  10   56.84   15.05
   6   2 -10   32.48   11.92
  10   6  -2   28.70   16.15
   2 -10  -6   41.80   17.31
  -6  -2 -10   24.36   10.12
 -10   6  -2   34.26    8.52
  -2 -10  -6   31.99   15.16
  -2 -10   6   38.97   10.71
 -10  -6   2   66.54   14.05
  -6   2 -10   47.57   13.06
   2  10   6   49.84   13.39
   2 -10   6   38.96   10.35
  -2  10   6   53.68   15.00
  -4 -10   0  114.77   19.77
   0   4  10   79.20   15.64
  -4  10   0   96.13   13.45
  10   0  -4   79.90   15.42
   0  -4 -10   80.25   14.75
  10   0   4   87.97   16.97
   0  -4  10   97.04   14.86
 -10   0   4   88.90   16.69
  10  -2   4 1205.67   74.04
  10   2  -4 1093.25   81.89
   4 -10  -2 1086.02   89.25
   4  10  -2 1148.10   91.57
  -4 -10  -2 1264.26   84.33
  -4  10  -2 1138.47   58.82
  -4  10   2 1082.42   60.50
  -2  -4  10 1075.95   71.06
  10  -2  -4 1050.85   78.95
   2  -4 -10  903.86   78.15
   2  -4  10 1066.93   71.41
   2   4  10 1061.82   61.69
 -10   2  -4 1134.31   58.33
 -10  -2   4 1187.29   74.41
  -2   4 -10 1054.17   62.42
  -2   4  10 1178.51   63.43
  10   2   4 1076.76   73.24
   4  10  -4   58.71   23.16
 -10   4  -4   79.09   11.83
  -4 -10  -4   72.12   16.56
  -4 -10   4   71.17   13.59
  -4  -4 -10   61.08   10.24
  -4  -4  10   73.04   14.88
  -4   4 -10   76.24   14.63
  -4  10  -4   61.15   11.15
  -4  10   4   45.10   12.14
   4 -10  -4   63.71   20.14
   4  -4 -10   42.14   12.70
   4  -4  10   57.11   14.89
  10   4  -4   73.22   17.91
  10  -4  -4   63.43   14.34
  10  -4   4   64.55   14.98
 -10  -4   4   74.84   15.59
   6   4 -10  591.42   51.56
  -4  10  -6  644.74   39.66
   4 -10   6  617.98   43.85
  10   0   6  852.41   58.65
  10   0  -6  862.10   65.82
  -6  10   0  879.62   48.76
   0  -6 -10  707.97   64.29
   0  -6  10  824.23   58.09
   0   6  10  921.57   53.97
   6  10   0  841.13   69.37
 -10   0  -6  866.48   48.86
  10  -2  -6   19.50   11.34
   6  10  -2   29.64   18.72
   2  -6  10   31.40   12.94
   2   6  10   40.72   11.67
 -10  -2   6   55.49   16.02
 -10   2  -6   28.24    9.65
  -6 -10  -2   56.98   14.80
  -6  10  -2   47.27   10.51
  -6  10   2   51.99   11.65
  -2  -6  10   37.92   12.56
  -2   6  10   31.43   12.48
   2  -6 -10   29.38   12.49
  10   2   6   40.46   13.35
  10   2  -6   61.38   15.64
  10  -2   6   22.27   10.92
  10   4   6  646.08   46.69
   6 -10  -4  585.01   59.57
  -4   6  10  673.58   42.61
  -6 -10   4  610.71   48.77
  -1 -11   1   99.66   17.62
  -1  -1 -11   90.25   13.08
  -1   1 -11  101.04   14.87
  -1   1  11   91.85   18.04
  -1  11  -1   82.47   12.70
  -1  11   1   93.73   14.45
   1 -11  -1   89.04   21.51
   1 -11  -3   45.50   19.49
   1  11   3   84.70   14.64
   3  -1 -11   79.59   14.24
   3  -1  11   66.76   15.86
  11  -3   1  101.70   19.88
  11   3  -1  106.82   20.16
  -3   1 -11   72.63   14.71
  -1 -11  -3   86.96   20.62
  -1  11   3   63.87   14.08
  -3  -1 -11   85.31   13.89
  11   5  -1   73.59   20.07
   1  11   5   69.04   15.97
   5  -1 -11   45.99   13.16
   5  -1  11   58.37   16.39
   5   1 -11   57.74   13.73
  -3  11  -1   88.74   13.38
  -1  -3  11   86.05   15.07
   1   3  11  105.87   18.00
  -3 -11   1   75.39   17.75
  -3  11   1   71.89   13.76
  11   1   3   82.08   18.41
  -1   3  11   40.93   13.99
   1  -3  11   58.25   13.88
  11   1  -3   70.90   15.81
  11  -1   3   70.74   18.81
 -11  -3   3   83.35   16.60
  11   3  -3   84.09   18.87
  -3   3 -11   28.17   12.62
  -3  11  -3   90.06   13.03
  -3  11   3   53.32   14.01
   3 -11  -3   40.74   20.35
   3  -3 -11   47.77   13.03
   3  -3  11   62.90   15.41
   3  11  -3   65.52   21.86
  11  -3   3   66.10   16.66
  -3  -3  11   60.07   14.56
  -3  -3 -11   75.04   11.98
  -3 -11  -3   85.65   18.18
  -5  -3  11   62.28   16.00
  11  -1  -5   88.70   16.85
 -11  -1   5   73.76   17.30
   1  -5 -11   53.29   14.72
  -3   5 -11   45.07   14.77
  12  -2   0    1.02   15.60
   0  12   2    9.92   10.90
  -2   0 -12    5.19    7.85
   0   2  12    4.13   11.28
  -2  12   0   11.16    9.77
  -2   2 -12  435.86   33.51
   2  12  -2  377.32   41.17
   0   0   0    0.00    0.00
;
_shelx_hkl_checksum              73820
loop_
_space_group_symop_operation_xyz
'x, y, z'
'-x, -y, z'
'-x, y, -z'
'x, -y, -z'
'z, x, y'
'z, -x, -y'
'-z, -x, y'
'-z, x, -y'
'y, z, x'
'-y, z, -x'
'y, -z, -x'
'-y, -z, x'
'y, x, -z'
'-y, -x, -z'
'y, -x, z'
'-y, x, z'
'x, z, -y'
'-x, z, y'
'-x, -z, -y'
'x, -z, y'
'z, y, -x'
'z, -y, x'
'-z, y, x'
'-z, -y, -x'
'x, y+1/2, z+1/2'
'-x, -y+1/2, z+1/2'
'-x, y+1/2, -z+1/2'
'x, -y+1/2, -z+1/2'
'z, x+1/2, y+1/2'
'z, -x+1/2, -y+1/2'
'-z, -x+1/2, y+1/2'
'-z, x+1/2, -y+1/2'
'y, z+1/2, x+1/2'
'-y, z+1/2, -x+1/2'
'y, -z+1/2, -x+1/2'
'-y, -z+1/2, x+1/2'
'y, x+1/2, -z+1/2'
'-y, -x+1/2, -z+1/2'
'y, -x+1/2, z+1/2'
'-y, x+1/2, z+1/2'
'x, z+1/2, -y+1/2'
'-x, z+1/2, y+1/2'
'-x, -z+1/2, -y+1/2'
'x, -z+1/2, y+1/2'
'z, y+1/2, -x+1/2'
'z, -y+1/2, x+1/2'
'-z, y+1/2, x+1/2'
'-z, -y+1/2, -x+1/2'
'x+1/2, y, z+1/2'
'-x+1/2, -y, z+1/2'
'-x+1/2, y, -z+1/2'
'x+1/2, -y, -z+1/2'
'z+1/2, x, y+1/2'
'z+1/2, -x, -y+1/2'
'-z+1/2, -x, y+1/2'
'-z+1/2, x, -y+1/2'
'y+1/2, z, x+1/2'
'-y+1/2, z, -x+1/2'
'y+1/2, -z, -x+1/2'
'-y+1/2, -z, x+1/2'
'y+1/2, x, -z+1/2'
'-y+1/2, -x, -z+1/2'
'y+1/2, -x, z+1/2'
'-y+1/2, x, z+1/2'
'x+1/2, z, -y+1/2'
'-x+1/2, z, y+1/2'
'-x+1/2, -z, -y+1/2'
'x+1/2, -z, y+1/2'
'z+1/2, y, -x+1/2'
'z+1/2, -y, x+1/2'
'-z+1/2, y, x+1/2'
'-z+1/2, -y, -x+1/2'
'x+1/2, y+1/2, z'
'-x+1/2, -y+1/2, z'
'-x+1/2, y+1/2, -z'
'x+1/2, -y+1/2, -z'
'z+1/2, x+1/2, y'
'z+1/2, -x+1/2, -y'
'-z+1/2, -x+1/2, y'
'-z+1/2, x+1/2, -y'
'y+1/2, z+1/2, x'
'-y+1/2, z+1/2, -x'
'y+1/2, -z+1/2, -x'
'-y+1/2, -z+1/2, x'
'y+1/2, x+1/2, -z'
'-y+1/2, -x+1/2, -z'
'y+1/2, -x+1/2, z'
'-y+1/2, x+1/2, z'
'x+1/2, z+1/2, -y'
'-x+1/2, z+1/2, y'
'-x+1/2, -z+1/2, -y'
'x+1/2, -z+1/2, y'
'z+1/2, y+1/2, -x'
'z+1/2, -y+1/2, x'
'-z+1/2, y+1/2, x'
'-z+1/2, -y+1/2, -x'
'-x, -y, -z'
'x, y, -z'
'x, -y, z'
'-x, y, z'
'-z, -x, -y'
'-z, x, y'
'z, x, -y'
'z, -x, y'
'-y, -z, -x'
'y, -z, x'
'-y, z, x'
'y, z, -x'
'-y, -x, z'
'y, x, z'
'-y, x, -z'
'y, -x, -z'
'-x, -z, y'
'x, -z, -y'
'x, z, y'
'-x, z, -y'
'-z, -y, x'
'-z, y, -x'
'z, -y, -x'
'z, y, x'
'-x, -y+1/2, -z+1/2'
'x, y+1/2, -z+1/2'
'x, -y+1/2, z+1/2'
'-x, y+1/2, z+1/2'
'-z, -x+1/2, -y+1/2'
'-z, x+1/2, y+1/2'
'z, x+1/2, -y+1/2'
'z, -x+1/2, y+1/2'
'-y, -z+1/2, -x+1/2'
'y, -z+1/2, x+1/2'
'-y, z+1/2, x+1/2'
'y, z+1/2, -x+1/2'
'-y, -x+1/2, z+1/2'
'y, x+1/2, z+1/2'
'-y, x+1/2, -z+1/2'
'y, -x+1/2, -z+1/2'
'-x, -z+1/2, y+1/2'
'x, -z+1/2, -y+1/2'
'x, z+1/2, y+1/2'
'-x, z+1/2, -y+1/2'
'-z, -y+1/2, x+1/2'
'-z, y+1/2, -x+1/2'
'z, -y+1/2, -x+1/2'
'z, y+1/2, x+1/2'
'-x+1/2, -y, -z+1/2'
'x+1/2, y, -z+1/2'
'x+1/2, -y, z+1/2'
'-x+1/2, y, z+1/2'
'-z+1/2, -x, -y+1/2'
'-z+1/2, x, y+1/2'
'z+1/2, x, -y+1/2'
'z+1/2, -x, y+1/2'
'-y+1/2, -z, -x+1/2'
'y+1/2, -z, x+1/2'
'-y+1/2, z, x+1/2'
'y+1/2, z, -x+1/2'
'-y+1/2, -x, z+1/2'
'y+1/2, x, z+1/2'
'-y+1/2, x, -z+1/2'
'y+1/2, -x, -z+1/2'
'-x+1/2, -z, y+1/2'
'x+1/2, -z, -y+1/2'
'x+1/2, z, y+1/2'
'-x+1/2, z, -y+1/2'
'-z+1/2, -y, x+1/2'
'-z+1/2, y, -x+1/2'
'z+1/2, -y, -x+1/2'
'z+1/2, y, x+1/2'
'-x+1/2, -y+1/2, -z'
'x+1/2, y+1/2, -z'
'x+1/2, -y+1/2, z'
'-x+1/2, y+1/2, z'
'-z+1/2, -x+1/2, -y'
'-z+1/2, x+1/2, y'
'z+1/2, x+1/2, -y'
'z+1/2, -x+1/2, y'
'-y+1/2, -z+1/2, -x'
'y+1/2, -z+1/2, x'
'-y+1/2, z+1/2, x'
'y+1/2, z+1/2, -x'
'-y+1/2, -x+1/2, z'
'y+1/2, x+1/2, z'
'-y+1/2, x+1/2, -z'
'y+1/2, -x+1/2, -z'
'-x+1/2, -z+1/2, y'
'x+1/2, -z+1/2, -y'
'x+1/2, z+1/2, y'
'-x+1/2, z+1/2, -y'
'-z+1/2, -y+1/2, x'
'-z+1/2, y+1/2, -x'
'z+1/2, -y+1/2, -x'
'z+1/2, y+1/2, x'
loop_
_atom_site_label
_atom_site_type_symbol
_atom_site_fract_x
_atom_site_fract_y
_atom_site_fract_z
_atom_site_U_iso_or_equiv
_atom_site_adp_type
_atom_site_occupancy
_atom_site_site_symmetry_order
_atom_site_calc_flag
_atom_site_refinement_flags_posn
_atom_site_refinement_flags_adp
_atom_site_refinement_flags_occupancy
_atom_site_disorder_assembly
_atom_site_disorder_group
W W 0.0000 0.0000 0.0000 0.0250(6) Uani 1 48 d S T P . .
Rb Rb 0.2500 0.2500 0.2500 0.0267(6) Uani 1 24 d S T P . .
K K 0.0000 0.5000 0.0000 0.0138(10) Uani 1 48 d S T P . .
F F 0.2121(9) 0.0000 0.0000 0.043(2) Uani 0.5 8 d S T P . .
O O 0.2121(9) 0.0000 0.0000 0.043(2) Uani 0.5 8 d S T P . .
loop_
_atom_site_aniso_label
_atom_site_aniso_U_11
_atom_site_aniso_U_22
_atom_site_aniso_U_33
_atom_site_aniso_U_23
_atom_site_aniso_U_13
_atom_site_aniso_U_12
W 0.0250(6) 0.0250(6) 0.0250(6) 0.000 0.000 0.000
Rb 0.0267(6) 0.0267(6) 0.0267(6) 0.000 0.000 0.000
K 0.0138(10) 0.0138(10) 0.0138(10) 0.000 0.000 0.000
F 0.012(4) 0.059(4) 0.059(4) 0.000 0.000 0.000
O 0.012(4) 0.059(4) 0.059(4) 0.000 0.000 0.000
loop_
_atom_type_symbol
_atom_type_description
_atom_type_scat_dispersion_real
_atom_type_scat_dispersion_imag
_atom_type_scat_source
O O 0.0106 0.0060 'International Tables Vol C Tables 4.2.6.8 and 6.1.1.4'
F F 0.0171 0.0103 'International Tables Vol C Tables 4.2.6.8 and 6.1.1.4'
K K 0.2009 0.2494 'International Tables Vol C Tables 4.2.6.8 and 6.1.1.4'
Rb Rb -0.9393 2.9676 'International Tables Vol C Tables 4.2.6.8 and 6.1.1.4'
W W -0.8490 6.8722 'International Tables Vol C Tables 4.2.6.8 and 6.1.1.4'
loop_
_geom_angle_atom_site_label_1
_geom_angle_atom_site_label_2
_geom_angle_atom_site_label_3
_geom_angle
_geom_angle_site_symmetry_1
_geom_angle_site_symmetry_3
O W O 180.0 105 9
O W F 90.0 105 .
O W F 90.0 9 .
O W O 90.0 105 101
O W O 90.0 9 101
F W O 90.0 . 101
O W O 90.0 105 5
O W O 90.0 9 5
F W O 90.0 . 5
O W O 180.0 101 5
O W O 90.0 105 97
O W O 90.0 9 97
F W O 180.0 . 97
O W O 90.0 101 97
O W O 90.0 5 97
O W F 0.0 105 105
O W F 180.0 9 105
F W F 90.0 . 105
O W F 90.0 101 105
O W F 90.0 5 105
O W F 90.0 97 105
O W F 180.0 105 9
O W F 0.0 9 9
F W F 90.0 . 9
O W F 90.0 101 9
O W F 90.0 5 9
O W F 90.0 97 9
F W F 180.0 105 9
O W F 90.0 105 101
O W F 90.0 9 101
F W F 90.0 . 101
O W F 0.0 101 101
O W F 180.0 5 101
O W F 90.0 97 101
F W F 90.0 105 101
F W F 90.0 9 101
O W F 90.0 105 5
O W F 90.0 9 5
F W F 90.0 . 5
O W F 180.0 101 5
O W F 0.0 5 5
O W F 90.0 97 5
F W F 90.0 105 5
F W F 90.0 9 5
F W F 180.0 101 5
O W F 90.0 105 97
O W F 90.0 9 97
F W F 180.0 . 97
O W F 90.0 101 97
O W F 90.0 5 97
O W F 0.0 97 97
F W F 90.0 105 97
F W F 90.0 9 97
F W F 90.0 101 97
F W F 90.0 5 97
O Rb F 0.0 5 5
O Rb F 49.9 5 .
F Rb F 49.9(2) 5 .
O Rb O 49.9(2) 5 9
F Rb O 49.9(2) 5 9
F Rb O 49.9 . 9
O Rb F 49.9 5 9
F Rb F 49.9(2) 5 9
F Rb F 49.9(2) . 9
O Rb F 0.0 9 9
O Rb O 167.8(3) 5 53
F Rb O 167.8(3) 5 53
F Rb O 119.6 . 53
O Rb O 119.625(17) 9 53
F Rb O 119.625(17) 9 53
O Rb O 119.625(17) 5 25
F Rb O 119.625(17) 5 25
F Rb O 167.8 . 25
O Rb O 119.625(17) 9 25
F Rb O 119.625(17) 9 25
O Rb O 69.9(2) 53 25
O Rb F 167.8 5 53
F Rb F 167.8(3) 5 53
F Rb F 119.625(17) . 53
O Rb F 119.6 9 53
F Rb F 119.625(17) 9 53
O Rb F 0.0 53 53
O Rb F 69.9 25 53
O Rb F 119.6 5 25
F Rb F 119.625(17) 5 25
F Rb F 167.8(3) . 25
O Rb F 119.6 9 25
F Rb F 119.625(17) 9 25
O Rb F 69.9 53 25
O Rb F 0.0 25 25
F Rb F 69.9(2) 53 25
O Rb O 119.625(17) 5 81
F Rb O 119.625(17) 5 81
F Rb O 119.6 . 81
O Rb O 167.8(3) 9 81
F Rb O 167.8(3) 9 81
O Rb O 69.9(2) 53 81
O Rb O 69.9(2) 25 81
F Rb O 69.9(2) 53 81
F Rb O 69.9(2) 25 81
O Rb F 119.6 5 81
F Rb F 119.625(17) 5 81
F Rb F 119.625(17) . 81
O Rb F 167.8 9 81
F Rb F 167.8(3) 9 81
O Rb F 69.9 53 81
O Rb F 69.9 25 81
F Rb F 69.9(2) 53 81
F Rb F 69.9(2) 25 81
O Rb F 0.0 81 81
O K O 180.0 129 33_554
O K O 90.0 129 101_565
O K O 90.0 33_554 101_565
O K O 90.0 129 5
O K O 90.0 33_554 5
O K O 180.0 101_565 5
O K O 90.000(1) 129 169
O K O 90.0 33_554 169
O K O 90.000(1) 101_565 169
O K O 90.0 5 169
O K O 90.0 129 73_455
O K O 90.0 33_554 73_455
O K O 90.0 101_565 73_455
O K O 90.0 5 73_455
O K O 180.0 169 73_455
O K F 0.0 129 129
O K F 180.0 33_554 129
O K F 90.0 101_565 129
O K F 90.0 5 129
O K F 90.0 169 129
O K F 90.0 73_455 129
O K F 180.0 129 33_554
O K F 0.0 33_554 33_554
O K F 90.0 101_565 33_554
O K F 90.0 5 33_554
O K F 90.0 169 33_554
O K F 90.0 73_455 33_554
F K F 180.0 129 33_554
O K F 90.0 129 101_565
O K F 90.0 33_554 101_565
O K F 0.0 101_565 101_565
O K F 180.0 5 101_565
O K F 90.0 169 101_565
O K F 90.0 73_455 101_565
F K F 90.0 129 101_565
F K F 90.0 33_554 101_565
O K F 90.0 129 73_455
O K F 90.0 33_554 73_455
O K F 90.0 101_565 73_455
O K F 90.0 5 73_455
O K F 180.0 169 73_455
O K F 0.0 73_455 73_455
F K F 90.0 129 73_455
F K F 90.0 33_554 73_455
F K F 90.0 101_565 73_455
O K F 90.0 129 169
O K F 90.0 33_554 169
O K F 90.0 101_565 169
O K F 90.0 5 169
O K F 0.0 169 169
O K F 180.0 73_455 169
F K F 90.000(1) 129 169
F K F 90.0 33_554 169
F K F 90.000(1) 101_565 169
F K F 180.0 73_455 169
O K F 90.0 129 5
O K F 90.0 33_554 5
O K F 180.0 101_565 5
O K F 0.0 5 5
O K F 90.0 169 5
O K F 90.0 73_455 5
F K F 90.0 129 5
F K F 90.0 33_554 5
F K F 180.0 101_565 5
F K F 90.0 73_455 5
F K F 90.0 169 5
W F K 180.0 . 73_545
W F Rb 96.12(14) . .
K F Rb 83.88(14) 73_545 .
W F Rb 96.12(14) . 25_544
K F Rb 83.88(14) 73_545 25_544
Rb F Rb 167.8(3) . 25_544
W F Rb 96.12(14) . 145
K F Rb 83.88(14) 73_545 145
Rb F Rb 89.35(3) . 145
Rb F Rb 89.35(3) 25_544 145
W F Rb 96.12(14) . 169
K F Rb 83.88(14) 73_545 169
Rb F Rb 89.35(3) . 169
Rb F Rb 89.35(3) 25_544 169
Rb F Rb 167.8(3) 145 169
loop_
_geom_bond_atom_site_label_1
_geom_bond_atom_site_label_2
_geom_bond_distance
_geom_bond_site_symmetry_2
W O 1.896(8) 105
W O 1.896(8) 9
W F 1.896(8) .
W O 1.896(8) 101
W O 1.896(8) 5
W O 1.896(8) 97
W F 1.896(8) 105
W F 1.896(8) 9
W F 1.896(8) 101
W F 1.896(8) 5
W F 1.896(8) 97
Rb O 3.1789(9) 5
Rb F 3.1789(9) 5
Rb F 3.1789(9) .
Rb O 3.1789(9) 9
Rb F 3.1789(9) 9
Rb O 3.1789(9) 53
Rb O 3.1789(9) 25
Rb F 3.1789(9) 53
Rb F 3.1789(9) 25
Rb O 3.1789(9) 81
Rb F 3.1789(9) 81
K O 2.574(8) 129
K O 2.574(8) 33_554
K O 2.574(8) 101_565
K O 2.574(8) 5
K O 2.574(8) 169
K O 2.574(8) 73_455
K F 2.574(8) 129
K F 2.574(8) 33_554
K F 2.574(8) 101_565
K F 2.574(8) 73_455
K F 2.574(8) 169
K F 2.574(8) 5
F K 2.574(8) 73_545
F Rb 3.1789(9) 25_544
F Rb 3.1789(9) 145
F Rb 3.1789(9) 169

_cod_database_fobs_code 1529501
