#------------------------------------------------------------------------------
#$Date: 2018-09-27 07:13:35 +0300 (Thu, 27 Sep 2018) $
#$Revision: 211196 $
#$URL: file:///home/coder/svn-repositories/cod/cif/1/52/96/1529647.cif $
#------------------------------------------------------------------------------
#
# This file is available in the Crystallography Open Database (COD),
# http://www.crystallography.net/
#
# All data on this site have been placed in the public domain by the
# contributors.
#
data_1529647
loop_
_publ_author_name
'Bodak, O.I.'
'Gladyshevskii, E.I.'
_publ_section_title
;
 The X-ray diffraction investigation of the system Ca-Ni-Si and alloys of
 related systems
;
_journal_name_full
;
Dopovidi Akademii Nauk Ukrains'koi RSR, Seriya A: Fiziko-Tekhnichni ta 
Matematichni Nauki
;
_journal_page_first              944
_journal_page_last               947
_journal_volume                  1968
_journal_year                    1968
_chemical_formula_sum            'Ca Ni0.5 Si1.5'
_space_group_IT_number           191
_symmetry_space_group_name_Hall  '-P 6 2'
_symmetry_space_group_name_H-M   'P 6/m m m'
_cell_angle_alpha                90
_cell_angle_beta                 90
_cell_angle_gamma                120
_cell_formula_units_Z            1
_cell_length_a                   3.988
_cell_length_b                   3.988
_cell_length_c                   4.346
_cell_volume                     59.859
_citation_journal_id_ASTM        DUKABM
_cod_data_source_file            Bodak_DUKABM_1968_1836.cif
_cod_data_source_block           Ca1Ni0.5Si1.5
_cod_original_cell_volume        59.85917
_cod_original_formula_sum        'Ca1 Ni0.5 Si1.5'
_cod_database_code               1529647
loop_
_symmetry_equiv_pos_as_xyz
x,y,z
x-y,x,z
-y,x-y,z
-x,-y,z
-x+y,-x,z
y,-x+y,z
-y,-x,-z
x-y,-y,-z
x,x-y,-z
y,x,-z
-x+y,y,-z
-x,-x+y,-z
-x,-y,-z
-x+y,-x,-z
y,-x+y,-z
x,y,-z
x-y,x,-z
-y,x-y,-z
y,x,z
-x+y,y,z
-x,-x+y,z
-y,-x,z
x-y,-y,z
x,x-y,z
loop_
_atom_site_label
_atom_site_type_symbol
_atom_site_fract_x
_atom_site_fract_y
_atom_site_fract_z
_atom_site_occupancy
_atom_site_U_iso_or_equiv
Ca1 Ca 0 0 0 1 0.0
Ni1 Ni 0.3333 0.6667 0.5 0.25 0.0
Si1 Si 0.3333 0.6667 0.5 0.75 0.0
