#------------------------------------------------------------------------------
#$Date: 2016-02-13 14:50:18 +0200 (Sat, 13 Feb 2016) $
#$Revision: 176428 $
#$URL: svn://www.crystallography.net/cod/cif/1/52/94/1529432.cif $
#------------------------------------------------------------------------------
#
# This file is available in the Crystallography Open Database (COD),
# http://www.crystallography.net/
#
# All data on this site have been placed in the public domain by the
# contributors.
#
data_1529432
loop_
_publ_author_name
'M.S. Molokeev'
'S.V. Misyul'
_publ_section_title
;
 Structural transformations and the critical and noncritical parameters
 during the phase transition in the (NH4)2KWO3F3 oxyfluoride
;
_journal_issue                   8
_journal_name_full               'Physics of the Solid State'
_journal_page_first              1672
_journal_page_last               1679
_journal_paper_doi               10.1134/S1063783411080208
_journal_volume                  53
_journal_year                    2011
_chemical_formula_sum            'F3 H6 K1.28 N1.72 O3 W'
_space_group_IT_number           59
_symmetry_space_group_name_Hall  '-P 2ab 2a'
_symmetry_space_group_name_H-M   'P m m n :2'
_cell_angle_alpha                90.000000
_cell_angle_beta                 90.000000
_cell_angle_gamma                90.000000
_cell_formula_units_Z            2
_cell_length_a                   6.3036(3)
_cell_length_b                   8.9891(3)
_cell_length_c                   6.2976(4)
_cell_volume                     356.85(3)
_cod_data_source_file            NH42KWO3F3_133K.cif
_cod_data_source_block           a
_cod_original_sg_symbol_Hall     '-P 2AB 2A       '
_cod_original_sg_symbol_H-M      'P M M N         '
_cod_database_code               1529432
_cod_database_fobs_code          1529432
loop_
_symmetry_equiv_pos_site_id
_symmetry_equiv_pos_as_xyz
1 'x, y, z'
2 '1/2-x, 1/2-y, z'
3 '1/2+x, -y, -z'
4 '-x, 1/2+y, -z'
5 '-x, -y, -z'
6 '1/2+x, 1/2+y, -z'
7 '1/2-x, y, z'
8 'x, 1/2-y, z'
loop_
_atom_site_label
_atom_site_type_symbol
_atom_site_fract_x
_atom_site_fract_y
_atom_site_fract_z
_atom_site_U_iso_or_equiv
_atom_site_occupancy
_atom_site_adp_type
W W 0.75000 0.75000 0.7520(6) 0.0147(5) 1.00000 Uiso
K K 0.75000 0.25000 0.743(2) 0.005(1) 1.00000 Uiso
N N 0.25000 -0.006(3) 0.758(4) 0.032(7) 0.86(2) Uiso
K1 K 0.25000 -0.006(3) 0.758(4) 0.032(7) 0.14(2) Uiso
H1 H 0.14600 0.939(3) 0.760(4) 0.06724 0.50000 Uiso
H2 H 0.25000 0.043(3) 0.639(4) 0.06724 1.00000 Uiso
H3 H 0.25000 0.043(3) 0.864(4) 0.06724 1.00000 Uiso
F1 F -0.046(5) 0.75000 0.514(4) 0.10(1) 1.00000 Uiso
O2 O 0.501(5) 0.25000 0.103(4) 0.018(8) 1.00000 Uiso
F3 F 0.75000 -0.044(2) 0.822(6) -0.003(8) 0.50000 Uiso
O3 O 0.75000 -0.044(2) 0.822(6) -0.003(8) 0.50000 Uiso
loop_
_atom_type_symbol
_atom_type_scat_dispersion_real
_atom_type_scat_dispersion_imag
W -5.47340 5.57740
K 0.38680 1.06570
N 0.03110 0.01800
H 0.00000 0.00000
F 0.07270 0.05340
O 0.04920 0.03220
loop_
_refln_index_h
_refln_index_k
_refln_index_l
_refln_F_meas
_refln_F_calc
_refln_phase_calc
0 0 1 .00000 7.4472 0.0000
1 1 0 108.42 110.75 -3.1416
0 1 1 126.30 122.75 3.1416
0 2 0 144.93 153.94 -3.1416
1 0 1 152.51 150.75 3.1416
1 1 1 2.6047 1.9116 0.0000
0 2 1 23.850 18.508 0.0000
1 2 1 155.64 156.58 0.0000
2 0 0 161.98 160.96 -3.1416
0 0 2 164.42 161.75 3.1416
0 1 2 30.884 30.147 -3.1416
2 0 1 .00000 13.423 3.1416
1 0 2 .00000 17.512 3.1416
1 3 0 84.201 71.509 0.0000
0 3 1 77.648 79.591 0.0000
2 1 1 72.734 74.683 0.0000
1 1 2 78.433 80.293 0.0000
2 2 0 54.201 52.770 0.0000
0 2 2 72.721 75.426 0.0000
1 3 1 .00000 11.131 3.1416
2 2 1 .00000 10.904 -3.1416
1 2 2 .00000 15.034 3.1416
0 4 0 208.30 200.47 0.0000
2 0 2 193.16 185.08 0.0000
0 3 2 .00000 6.4925 0.0000
2 1 2 .00000 6.1606 3.1416
0 4 1 7.1205 4.7075 0.0000
0 0 3 55.146 47.774 -3.1416
2 3 1 43.726 48.653 3.1416
1 3 2 59.801 64.593 3.1416
3 1 0 64.971 70.893 0.0000
0 1 3 63.039 57.966 0.0000
1 4 1 119.11 116.00 -3.1416
2 2 2 108.39 112.07 3.1416
3 0 1 122.63 124.46 0.0000
1 0 3 124.29 110.80 0.0000
3 1 1 .00000 15.740 0.0000
1 1 3 .00000 16.081 0.0000
0 2 3 .00000 .57318 -3.1416
2 4 0 124.41 118.54 -3.1416
0 4 2 124.45 123.79 3.1416
3 2 1 123.83 119.30 -3.1416
1 2 3 121.82 129.33 3.1416
2 3 2 9.7096 20.940 0.0000
2 4 1 .00000 2.1877 3.1416
1 4 2 .00000 5.3922 3.1416
3 0 2 .00000 16.354 0.0000
2 0 3 1.1580 7.4534 0.0000
1 5 0 89.751 90.655 3.1416
0 5 1 112.85 99.718 3.1416
3 3 0 51.754 47.886 3.1416
0 3 3 38.766 47.279 3.1416
3 1 2 87.237 80.959 3.1416
2 1 3 99.332 88.358 -3.1416
1 5 1 .63002 7.0307 -3.1416
3 3 1 .00000 4.0440 3.1416
1 3 3 .00000 4.2601 0.0000
3 2 2 .00000 9.1578 0.0000
2 2 3 .00000 29.938 0.0000
2 4 2 141.93 138.22 0.0000
4 0 0 159.51 157.66 0.0000
0 0 4 126.64 112.88 0.0000
0 5 2 15.922 29.394 -3.1416
0 1 4 13.096 8.6905 0.0000
0 4 3 15.099 23.222 3.1416
4 0 1 5.2328 15.628 0.0000
1 0 4 1.3729 16.017 0.0000
2 5 1 81.866 73.206 0.0000
1 5 2 71.553 70.369 0.0000
3 3 2 71.965 63.984 0.0000
2 3 3 66.624 73.869 0.0000
4 1 1 75.935 76.707 3.1416
1 1 4 67.246 64.830 -3.1416
0 6 0 113.19 115.39 -3.1416
3 4 1 92.645 98.999 0.0000
1 4 3 93.311 94.032 0.0000
4 2 0 97.418 92.966 -3.1416
0 2 4 88.388 93.059 3.1416
3 0 3 108.44 97.945 -3.1416
3 1 3 .77666 4.6384 -3.1416
0 6 1 .63932 2.6098 -3.1416
4 2 1 .28811 .21539 -3.1416
1 2 4 3.0598 9.8280 0.0000
1 6 1 124.42 112.76 0.0000
3 2 3 105.04 108.98 0.0000
4 0 2 117.77 115.23 3.1416
2 0 4 120.89 110.76 -3.1416
2 5 2 .59772 6.1508 0.0000
0 3 4 4.1230 8.3013 0.0000
4 1 2 12.564 17.613 -3.1416
2 1 4 10.226 15.648 3.1416
3 4 2 2.4358 6.1006 0.0000
2 4 3 .58270 .22773 0.0000
3 5 0 63.924 69.847 0.0000
0 5 3 68.127 54.020 0.0000
4 3 1 60.920 56.091 0.0000
1 3 4 62.635 66.468 0.0000
2 6 0 66.632 72.548 0.0000
0 6 2 74.956 79.304 0.0000
4 2 2 71.695 73.422 0.0000
2 2 4 86.943 94.894 0.0000
3 5 1 5.5485 12.722 0.0000
1 5 3 6.0491 21.094 0.0000
3 3 3 1.1642 9.5994 -3.1416
2 6 1 8.0566 3.7912 -3.1416
1 6 2 9.8443 1.8058 0.0000
4 4 0 127.92 122.31 0.0000
0 4 4 100.89 96.510 0.0000
4 3 2 9.6901 4.1860 0.0000
2 3 4 2.4391 .70106 3.1416
4 4 1 7.8592 9.6171 0.0000
1 4 4 5.3553 5.7504 0.0000
4 0 3 22.859 21.293 3.1416
3 0 4 4.3355 11.463 -3.1416
0 0 5 6.6547 .34185 0.0000
1 7 0 62.606 45.457 0.0000
0 7 1 50.684 47.863 0.0000
3 5 2 59.804 65.960 3.1416
2 5 3 75.299 70.601 -3.1416
5 1 0 59.965 63.196 -3.1416
4 1 3 48.101 47.060 0.0000
3 1 4 51.536 50.709 0.0000
0 1 5 54.216 54.663 -3.1416
2 6 2 94.300 88.541 -3.1416
3 4 3 89.414 83.436 -3.1416
5 0 1 80.672 93.746 -3.1416
1 0 5 80.468 72.567 3.1416
1 7 1 .79553 5.3634 3.1416
5 1 1 2.9351 1.1057 0.0000
1 1 5 10.267 9.8803 3.1416
0 6 3 4.2560 7.4930 0.0000
4 2 3 3.2576 7.5199 -3.1416
3 2 4 4.6910 10.309 -3.1416
0 2 5 22.906 23.305 0.0000
3 6 1 104.02 96.551 3.1416
1 6 3 102.09 95.367 -3.1416
4 4 2 103.74 95.463 -3.1416
2 4 4 104.75 98.053 -3.1416
5 2 1 95.148 85.493 0.0000
1 2 5 89.015 102.42 0.0000
0 7 2 5.1571 .88078 0.0000
0 5 4 12.574 16.119 0.0000
5 0 2 1.6925 9.1259 -3.1416
2 0 5 27.766 24.264 -3.1416
2 7 1 32.252 33.312 -3.1416
1 7 2 52.090 45.286 -3.1416
4 5 1 69.700 69.442 -3.1416
1 5 4 55.237 47.322 3.1416
5 3 0 52.795 45.244 0.0000
4 3 3 35.380 40.282 3.1416
3 3 4 46.588 52.467 -3.1416
0 3 5 43.801 57.103 0.0000
5 1 2 45.454 50.118 0.0000
2 1 5 49.788 49.230 0.0000
3 5 3 2.0095 14.572 -3.1416
5 3 1 1.2020 5.9937 3.1416
1 3 5 3.4172 .87670 3.1416
3 6 2 2.9237 2.3367 3.1416
2 6 3 7.7723 5.3949 0.0000
5 2 2 3.3315 8.4735 -3.1416
2 2 5 2.6549 .92893 0.0000
0 8 0 117.00 92.939 0.0000
4 0 4 88.305 79.258 0.0000
2 7 2 8.4776 13.941 0.0000
4 5 2 10.366 20.348 3.1416
2 5 4 12.361 21.586 3.1416
0 8 1 4.0755 .86797 0.0000
4 1 4 6.0041 5.4919 0.0000
4 4 3 13.711 10.950 3.1416
3 4 4 6.0463 3.7821 -3.1416
0 4 5 2.7185 3.4924 -3.1416
3 7 0 53.584 36.115 -3.1416
0 7 3 32.327 35.706 3.1416
5 3 2 45.711 40.448 3.1416
1 8 1 68.734 66.880 3.1416
2 3 5 44.882 52.492 -3.1416
4 6 0 75.891 82.002 3.1416
0 6 4 69.099 68.116 3.1416
5 4 1 67.643 77.275 3.1416
1 4 5 72.181 68.816 -3.1416
4 2 4 60.106 69.346 3.1416
5 0 3 70.174 74.344 0.0000
3 0 5 71.708 63.419 0.0000
3 7 1 3.6323 1.5192 0.0000
1 7 3 6.6441 5.9991 0.0000
5 1 3 9.1353 9.7575 0.0000
3 1 5 11.199 11.177 0.0000
4 6 1 1.9768 5.1950 -3.1416
1 6 4 7.0061 2.8832 3.1416
2 8 0 81.501 67.647 3.1416
0 8 2 85.961 75.200 -3.1416
3 6 3 82.036 84.028 0.0000
5 2 3 82.163 80.664 -3.1416
6 0 0 88.612 88.690 -3.1416
3 2 5 80.966 88.380 3.1416
0 0 6 86.419 75.120 3.1416
4 3 4 2.3765 6.4314 0.0000
2 8 1 1.9442 6.5663 0.0000
1 8 2 4.6660 5.9797 0.0000
0 1 6 4.7141 3.9260 3.1416
5 4 2 3.1960 3.2111 3.1416
2 4 5 22.054 14.906 3.1416
6 0 1 1.6119 .45657 0.0000
1 0 6 6.0463 3.0157 3.1416
3 7 2 47.381 41.139 0.0000
2 7 3 39.927 47.719 0.0000
5 5 0 44.585 56.809 3.1416
4 5 3 44.717 41.385 0.0000
3 5 4 41.017 38.895 0.0000
0 5 5 47.926 39.100 -3.1416
6 1 1 42.741 43.161 0.0000
1 1 6 43.641 40.961 0.0000
4 6 2 61.798 66.368 0.0000
2 6 4 70.510 72.646 0.0000
6 2 0 54.574 51.800 0.0000
0 2 6 74.786 80.296 0.0000
5 5 1 .59175 4.2282 -3.1416
1 5 5 4.8717 14.651 3.1416
5 3 3 6.5222 2.3784 0.0000
3 3 5 8.9158 1.9421 3.1416
6 2 1 7.5100 10.261 3.1416
1 2 6 8.0809 1.6955 3.1416
2 8 2 85.437 78.006 0.0000
4 4 4 70.190 71.817 0.0000
6 0 2 83.542 86.767 0.0000
2 0 6 69.941 63.580 0.0000
0 7 4 4.8142 8.1759 0.0000
0 8 3 10.049 1.2828 0.0000
0 3 6 4.6294 1.2756 3.1416
6 1 2 2.7873 1.3452 -3.1416
2 1 6 18.139 14.388 0.0000
1 9 0 41.021 47.365 -3.1416
0 9 1 63.850 53.968 3.1416
5 0 4 4.6714 10.597 0.0000
4 0 5 7.7485 3.2783 0.0000
4 7 1 35.875 34.887 0.0000
1 7 4 44.810 46.483 0.0000
5 5 2 37.751 45.656 0.0000
2 5 5 46.344 35.972 0.0000
6 3 1 31.248 29.903 -3.1416
3 8 1 58.940 59.716 0.0000
1 8 3 61.210 63.947 0.0000
1 3 6 41.394 49.346 -3.1416
5 1 4 43.418 42.079 -3.1416
4 1 5 42.368 39.490 3.1416
1 9 1 .40976 3.8020 3.1416
5 4 3 59.914 65.625 0.0000
3 4 5 62.695 60.897 0.0000
6 2 2 56.269 60.475 3.1416
2 2 6 61.295 69.319 3.1416
3 7 3 4.7075 7.0583 -3.1416
4 6 3 1.3897 2.9142 0.0000
3 6 4 7.6327 1.6877 0.0000
0 6 5 13.207 7.9701 0.0000
5 2 4 4.8125 7.0071 0.0000
4 2 5 12.966 14.806 0.0000
5 6 1 76.851 74.917 0.0000
1 6 5 69.739 73.228 0.0000
0 9 2 11.910 13.751 -3.1416
6 4 0 73.029 73.270 3.1416
0 4 6 73.370 72.007 3.1416
4 7 2 3.8458 .35153 0.0000
2 7 4 .75923 2.2626 -3.1416
4 5 4 8.8404 12.434 0.0000
6 3 2 4.6048 9.5575 0.0000
3 8 2 3.8811 5.0037 3.1416
2 8 3 .32012 8.3079 -3.1416
2 3 6 6.0996 8.9486 3.1416
2 9 1 63.115 42.977 0.0000
1 9 2 44.870 40.977 0.0000
6 4 1 2.4111 2.5257 0.0000
0 0 0 350.95 350.95 0.0000
