#------------------------------------------------------------------------------
#$Date: 2016-02-13 21:28:24 +0200 (Sat, 13 Feb 2016) $
#$Revision: 176429 $
#$URL: svn://www.crystallography.net/cod/cif/1/52/95/1529577.cif $
#------------------------------------------------------------------------------
#
# This file is available in the Crystallography Open Database (COD),
# http://www.crystallography.net/
#
# All data on this site have been placed in the public domain by the
# contributors.
#
data_1529577
loop_
_publ_author_name
'Azarova, L.A.'
'Vinogradov, E.E.'
'Mohailova, E.M.'
'Pakhomov, V.I.'
_publ_section_title
;
 About similarity of crystal structures of tetragonal beta-modification of
 Li I O3 and Ce (I O3)4
;
_journal_name_full               'Doklady Akademii Nauk SSSR'
_journal_page_first              613
_journal_page_last               615
_journal_volume                  206
_journal_year                    1972
_chemical_formula_sum            'Ce I4 O12'
_chemical_name_systematic        'Ce (I O3)4'
_space_group_IT_number           86
_symmetry_space_group_name_Hall  'P 4n -1n'
_symmetry_space_group_name_H-M   'P 42/n :1'
_cell_angle_alpha                90
_cell_angle_beta                 90
_cell_angle_gamma                90
_cell_formula_units_Z            2
_cell_length_a                   9.9
_cell_length_b                   9.9
_cell_length_c                   5.32
_cell_volume                     521.413
_citation_journal_id_ASTM        DANKAS
_cod_data_source_file            Azarova_DANKAS_1972_318.cif
_cod_data_source_block           Ce1I4O12
_cod_original_cell_volume        521.4131
_cod_original_sg_symbol_Hall     '-P 4bc (x+1/4,y+1/4,z+1/4)'
_cod_original_formula_sum        'Ce1 I4 O12'
_cod_database_code               1529577
loop_
_symmetry_equiv_pos_as_xyz
x,y,z
-y+1/2,x+1/2,z+1/2
-x,-y,z
y+1/2,-x+1/2,z+1/2
-x+1/2,-y+1/2,-z+1/2
y,-x,-z
x+1/2,y+1/2,-z+1/2
-y,x,-z
loop_
_atom_site_label
_atom_site_type_symbol
_atom_site_fract_x
_atom_site_fract_y
_atom_site_fract_z
_atom_site_occupancy
_atom_site_U_iso_or_equiv
O1 O-2 0.2 0.94 0.314 1 0.0
O3 O-2 0.17 0.92 0.791 1 0.0
O2 O-2 0.41 0.875 0.025 1 0.0
Ce1 Ce+4 0 0 0.5 1 0.0
I1 I+5 0.276 0.998 0.04 1 0.0
