#------------------------------------------------------------------------------
#$Date: 2016-02-13 21:28:24 +0200 (Sat, 13 Feb 2016) $
#$Revision: 176429 $
#$URL: svn://www.crystallography.net/cod/cif/1/52/97/1529716.cif $
#------------------------------------------------------------------------------
#
# This file is available in the Crystallography Open Database (COD),
# http://www.crystallography.net/
#
# All data on this site have been placed in the public domain by the
# contributors.
#
data_1529716
loop_
_publ_author_name
'Calligaris, M.'
'Randaccio, L.'
'Nardin, G.'
_publ_section_title
;
 Crystal structures of hydrated and dehydrated forms of a Co(II)-exchanged
 chabazite
;
_journal_name_full               Zeolites
_journal_page_first              251
_journal_page_last               254
_journal_volume                  4
_journal_year                    1984
_chemical_formula_sum            'Al4 Co1.9 H11.6 O29.8 Si8'
_chemical_name_systematic        'Co1.9 (Al4 Si8 O24) (H2 O)5.8'
_space_group_IT_number           166
_symmetry_space_group_name_Hall  '-P 3* 2'
_symmetry_space_group_name_H-M   'R -3 m :R'
_cell_angle_alpha                94.02
_cell_angle_beta                 94.02
_cell_angle_gamma                94.02
_cell_formula_units_Z            1
_cell_length_a                   9.427
_cell_length_b                   9.427
_cell_length_c                   9.427
_cell_volume                     831.272
_citation_journal_id_ASTM        ZEOLD3
_cod_data_source_file            Calligaris_ZEOLD3_1984_1058.cif
_cod_data_source_block           H11.6Al4Co1.9O29.8Si8
_cod_original_sg_symbol_Hall     '-R 3 2" (-y+z,x+z,-x+y+z)'
_cod_original_formula_sum        'H11.6 Al4 Co1.9 O29.8 Si8'
_cod_database_code               1529716
loop_
_symmetry_equiv_pos_as_xyz
x,y,z
z,x,y
y,z,x
-y,-x,-z
-z,-y,-x
-x,-z,-y
-x,-y,-z
-z,-x,-y
-y,-z,-x
y,x,z
z,y,x
x,z,y
loop_
_atom_site_label
_atom_site_type_symbol
_atom_site_fract_x
_atom_site_fract_y
_atom_site_fract_z
_atom_site_occupancy
_atom_site_U_iso_or_equiv
Co2 Co+2 0.2974 0.4075 0.4075 0.17 0.0
Si1 Si+4 0.1035 0.3327 0.8748 0.667 0.0
Co3 Co+2 0 0 0 0.22 0.0
O4 O-2 0.0236 0.0236 0.319 1 0.0
O1 O-2 0.2654 -0.2654 0 1 0.0
O5 O-2 0 0.5 0.5 0.53 0.0
Co1 Co+2 0.2077 0.2077 0.2077 0.32 0.0
O7 O-2 0.2531 0.2531 0.5391 0.23 0.0
O6 O-2 0.2208 0.2208 0.475 0.29 0.0
Al1 Al+3 0.1035 0.3327 0.8748 0.333 0.0
O8 O-2 0.4562 0.4562 0.764 0.18 0.0
O2 O-2 0.1495 -0.1495 0.5 1 0.0
O3 O-2 0.2505 0.2505 0.891 1 0.0
