#------------------------------------------------------------------------------
#$Date: 2016-02-13 21:28:24 +0200 (Sat, 13 Feb 2016) $
#$Revision: 176429 $
#$URL: svn://www.crystallography.net/cod/cif/1/53/00/1530070.cif $
#------------------------------------------------------------------------------
#
# This file is available in the Crystallography Open Database (COD),
# http://www.crystallography.net/
#
# All data on this site have been placed in the public domain by the
# contributors.
#
data_1530070
loop_
_publ_author_name
'Hauser, A.'
'Falk, U.'
'Fischer, P.'
'Guedel, H.U.'
_publ_section_title
;
 Magnetic Order in A V X3 (A=Rb, Cs, (C D3)4 N; X=Cl, Br, I): A Neutron
 Diffraction Study
;
_journal_name_full               'Journal of Solid State Chemistry'
_journal_page_first              343
_journal_page_last               354
_journal_volume                  56
_journal_year                    1985
_chemical_formula_sum            'Cl3 Cs V'
_chemical_name_systematic        'Cs V Cl3'
_space_group_IT_number           194
_symmetry_space_group_name_Hall  '-P 6c 2c'
_symmetry_space_group_name_H-M   'P 63/m m c'
_cell_angle_alpha                90
_cell_angle_beta                 90
_cell_angle_gamma                120
_cell_formula_units_Z            2
_cell_length_a                   7.187
_cell_length_b                   7.187
_cell_length_c                   5.989
_cell_volume                     267.905
_citation_journal_id_ASTM        JSSCBI
_cod_data_source_file            Hauser_JSSCBI_1985_1182.cif
_cod_data_source_block           Cl3Cs1V1
_cod_original_cell_volume        267.9046
_cod_original_formula_sum        'Cl3 Cs1 V1'
_cod_database_code               1530070
loop_
_symmetry_equiv_pos_as_xyz
x,y,z
x-y,x,z+1/2
-y,x-y,z
-x,-y,z+1/2
-x+y,-x,z
y,-x+y,z+1/2
-y,-x,-z+1/2
x-y,-y,-z
x,x-y,-z+1/2
y,x,-z
-x+y,y,-z+1/2
-x,-x+y,-z
-x,-y,-z
-x+y,-x,-z-1/2
y,-x+y,-z
x,y,-z-1/2
x-y,x,-z
-y,x-y,-z-1/2
y,x,z-1/2
-x+y,y,z
-x,-x+y,z-1/2
-y,-x,z
x-y,-y,z-1/2
x,x-y,z
loop_
_atom_site_label
_atom_site_type_symbol
_atom_site_fract_x
_atom_site_fract_y
_atom_site_fract_z
_atom_site_occupancy
_atom_site_U_iso_or_equiv
Cl1 Cl-1 0.159 0.318 0.25 1 0.0
Cs1 Cs+1 0.3333 0.6667 0.75 1 0.0
V1 V+2 0 0 0 1 0.0
