#------------------------------------------------------------------------------
#$Date: 2015-09-10 00:01:02 +0300 (Thu, 10 Sep 2015) $
#$Revision: 155794 $
#$URL: svn://www.crystallography.net/cod/cif/1/53/06/1530656.cif $
#------------------------------------------------------------------------------
#
# This file is available in the Crystallography Open Database (COD),
# http://www.crystallography.net/
#
# All data on this site have been placed in the public domain by the
# contributors.
#
data_1530656
loop_
_publ_author_name
'Rudolf, P.R.'
'Jorgensen, J.D.'
'Clearfield, A.'
_publ_section_title
;
 A time of flight neutron powder Rietveld refinement study at elevated
 temperature on a monoclinic near-stoichiometric NASICON
;
_journal_name_full               'Journal of Solid State Chemistry'
_journal_page_first              100
_journal_page_last               112
_journal_volume                  72
_journal_year                    1988
_chemical_formula_sum            'Na1.94 O12 P1.09 Si1.91 Zr1.89'
_chemical_name_systematic        'Na3.17 Zr1.93 (Si O4)1.9 (P O4)1.1'
_space_group_IT_number           15
_symmetry_space_group_name_Hall  '-C 2yc'
_symmetry_space_group_name_H-M   'C 1 2/c 1'
_cell_angle_alpha                90
_cell_angle_beta                 123.905
_cell_angle_gamma                90
_cell_formula_units_Z            4
_cell_length_a                   15.6649
_cell_length_b                   9.05
_cell_length_c                   9.2455
_cell_volume                     1087.842
_citation_journal_id_ASTM        JSSCBI
_cod_data_source_file            Rudolf_JSSCBI_1988_1573.cif
_cod_data_source_block           Na1.94O12P1.09Si1.91Zr1.89
_cod_database_code               1530656
loop_
_symmetry_equiv_pos_as_xyz
x,y,z
-x,y,-z+1/2
-x,-y,-z
x,-y,z-1/2
x+1/2,y+1/2,z
-x+1/2,y+1/2,-z+1/2
-x+1/2,-y+1/2,-z
x+1/2,-y+1/2,z-1/2
loop_
_atom_site_label
_atom_site_type_symbol
_atom_site_fract_x
_atom_site_fract_y
_atom_site_fract_z
_atom_site_occupancy
_atom_site_U_iso_or_equiv
P1 P+5 0 0.0405 0.25 0.49 0.0
O2 O-2 0.4322 0.4441 0.0816 1 0.0
Na2 Na+1 0.5 0.8939 0.25 0.8 0.0
O1 O-2 0.1462 0.4312 0.2155 1 0.0
Zr1 Zr+4 0.0985 0.2554 0.0506 0.945 0.0
O4 O-2 0.3777 0.1343 0.1068 1 0.0
Si1 Si+4 0 0.0405 0.25 0.51 0.0
O3 O-2 0.2578 0.1794 0.218 1 0.0
P2 P+5 0.3608 0.1038 0.2634 0.3 0.0
O5 O-2 0.4511 0.1801 0.4326 1 0.0
Na1 Na+1 0.25 0.25 0.5 0.16 0.0
Na3 Na+1 0.8048 0.0826 0.8224 0.49 0.0
Si2 Si+4 0.3608 0.1038 0.2634 0.7 0.0
O6 O-2 0.0775 0.1402 0.2357 1 0.0
