#------------------------------------------------------------------------------
#$Date: 2015-09-08 22:53:49 +0300 (Tue, 08 Sep 2015) $
#$Revision: 155346 $
#$URL: svn://www.crystallography.net/cod/cif/1/53/02/1530274.cif $
#------------------------------------------------------------------------------
#
# This file is available in the Crystallography Open Database (COD),
# http://www.crystallography.net/
#
# All data on this site have been placed in the public domain by the
# contributors.
#
data_1530274
loop_
_publ_author_name
'Leuenberger, B.'
'Guedel, H.U.'
'Fischer, P.'
_publ_section_title
;
 Synthesis, structural characterization and magnetic properties of the
 dimer compounds Cs3 Cr2 X9, X= Cl, Br, I
;
_journal_name_full               'Journal of Solid State Chemistry'
_journal_page_first              90
_journal_page_last               101
_journal_volume                  64
_journal_year                    1986
_chemical_formula_sum            'Br9 Cr2 Cs3'
_chemical_name_systematic        'Cs3 Cr2 Br9'
_space_group_IT_number           194
_symmetry_space_group_name_Hall  '-P 6c 2c'
_symmetry_space_group_name_H-M   'P 63/m m c'
_cell_angle_alpha                90
_cell_angle_beta                 90
_cell_angle_gamma                120
_cell_formula_units_Z            2
_cell_length_a                   7.508
_cell_length_b                   7.508
_cell_length_c                   18.7
_cell_volume                     912.895
_citation_journal_id_ASTM        JSSCBI
_cod_data_source_file            Leuenberger_JSSCBI_1986_1253.cif
_cod_data_source_block           Br9Cr2Cs3
_cod_original_cell_volume        912.8949
_cod_database_code               1530274
loop_
_symmetry_equiv_pos_as_xyz
x,y,z
x-y,x,z+1/2
-y,x-y,z
-x,-y,z+1/2
-x+y,-x,z
y,-x+y,z+1/2
-y,-x,-z+1/2
x-y,-y,-z
x,x-y,-z+1/2
y,x,-z
-x+y,y,-z+1/2
-x,-x+y,-z
-x,-y,-z
-x+y,-x,-z-1/2
y,-x+y,-z
x,y,-z-1/2
x-y,x,-z
-y,x-y,-z-1/2
y,x,z-1/2
-x+y,y,z
-x,-x+y,z-1/2
-y,-x,z
x-y,-y,z-1/2
x,x-y,z
loop_
_atom_site_label
_atom_site_type_symbol
_atom_site_fract_x
_atom_site_fract_y
_atom_site_fract_z
_atom_site_occupancy
_atom_site_U_iso_or_equiv
Cr1 Cr+3 0.3333 0.6667 0.8354 1 0.0
Br1 Br-1 -0.4919 -0.9838 0.25 1 0.0
Br2 Br-1 -0.1799 -0.3598 0.0916 1 0.0
Cs1 Cs+1 0 0 0.25 1 0.0
Cs2 Cs+1 0.3333 0.6667 0.0739 1 0.0
