#------------------------------------------------------------------------------
#$Date: 2018-09-24 16:40:44 +0300 (Mon, 24 Sep 2018) $
#$Revision: 211138 $
#$URL: file:///home/coder/svn-repositories/cod/cif/1/53/06/1530682.cif $
#------------------------------------------------------------------------------
#
# This file is available in the Crystallography Open Database (COD),
# http://www.crystallography.net/
#
# All data on this site have been placed in the public domain by the
# contributors.
#
data_1530682
loop_
_publ_author_name
'Salomov, A.S.'
'Porai-Koshits, M.A.'
'Sharipov, Kh.T.'
'Parpiev, N.A.'
'Mikhailov, Yu.N.'
'Sinitsyn, N.M.'
'Kanishcheva, A.S.'
'Svetlov, A.A.'
_publ_section_title
;
 Crystal structure of monohydrates of pentafluoronitrosyl complexes of
 osmium and ruthenium
;
_journal_name_full
;
Koordinatsionnaya Khimiya (= Coordination Chemistry (USSR))
;
_journal_page_first              1285
_journal_page_last               1288
_journal_volume                  10
_journal_year                    1984
_chemical_formula_sum            'F5 H2 K2 N O2 Ru'
_chemical_name_systematic        'K2 (Ru (N O) F5) (H2 O)'
_space_group_IT_number           63
_symmetry_space_group_name_Hall  '-C 2c 2'
_symmetry_space_group_name_H-M   'C m c m'
_cell_angle_alpha                90
_cell_angle_beta                 90
_cell_angle_gamma                90
_cell_formula_units_Z            4
_cell_length_a                   6.306
_cell_length_b                   18.358
_cell_length_c                   6.321
_cell_volume                     731.754
_citation_journal_id_ASTM        KOKHDC
_cod_data_source_file            Salomov_KOKHDC_1984_1213.cif
_cod_data_source_block           H2F5K2N1O2Ru1
_cod_depositor_comments
;
 Marking attached hydrogen atoms.

 Antanas Vaitkus,
 2018-09-24
;
_cod_original_cell_volume        731.7541
_cod_original_formula_sum        'H2 F5 K2 N1 O2 Ru1'
_cod_database_code               1530682
loop_
_symmetry_equiv_pos_as_xyz
x,y,z
-x,-y,z+1/2
x,-y,-z
-x,y,-z+1/2
-x,-y,-z
x,y,-z-1/2
-x,y,z
x,-y,z-1/2
x+1/2,y+1/2,z
-x+1/2,-y+1/2,z+1/2
x+1/2,-y+1/2,-z
-x+1/2,y+1/2,-z+1/2
-x+1/2,-y+1/2,-z
x+1/2,y+1/2,-z-1/2
-x+1/2,y+1/2,z
x+1/2,-y+1/2,z-1/2
loop_
_atom_site_label
_atom_site_type_symbol
_atom_site_fract_x
_atom_site_fract_y
_atom_site_fract_z
_atom_site_occupancy
_atom_site_attached_hydrogens
_atom_site_U_iso_or_equiv
Ru1 Ru+3 0 0.14071 0.25 1 0 0.0
K1 K+1 0 0.3879 0.25 1 0 0.0
K2 K+1 0.5 0.2532 0.25 1 0 0.0
N1 N+2 0 0.0467 0.25 1 0 0.0
O1 O-2 0 -0.0154 0.25 1 0 0.0
O2 O-2 0.5 -0.037 -0.25 1 2 0.0
F1 F-1 0 0.2449 0.25 1 0 0.0
F2 F-1 0.2209 0.1494 0.0339 1 0 0.0
