#------------------------------------------------------------------------------
#$Date: 2016-02-13 21:28:24 +0200 (Sat, 13 Feb 2016) $
#$Revision: 176429 $
#$URL: svn://www.crystallography.net/cod/cif/1/53/08/1530895.cif $
#------------------------------------------------------------------------------
#
# This file is available in the Crystallography Open Database (COD),
# http://www.crystallography.net/
#
# All data on this site have been placed in the public domain by the
# contributors.
#
data_1530895
loop_
_publ_author_name
'Tornero, J.D.'
'Cano, F.H.'
'Fayos, J.'
'Martinez-Ripoll, M.'
_publ_section_title
;
 X-ray single crystal analysis of the phase transitions in N H4 Mn Cl3.
 Some Moessbauer-X-Ray spectra relations
;
_journal_name_full               Ferroelectrics
_journal_page_first              123
_journal_page_last               130
_journal_volume                  19
_journal_year                    1978
_chemical_formula_sum            'Cl3 H4 Mn N'
_chemical_name_systematic        'N H4 Mn Cl3'
_space_group_IT_number           221
_symmetry_space_group_name_Hall  '-P 4 2 3'
_symmetry_space_group_name_H-M   'P m -3 m'
_cell_angle_alpha                90
_cell_angle_beta                 90
_cell_angle_gamma                90
_cell_formula_units_Z            1
_cell_length_a                   5.0425
_cell_length_b                   5.0425
_cell_length_c                   5.0425
_cell_volume                     128.215
_citation_journal_id_ASTM        FEROA8
_cod_data_source_file            Tornero_FEROA8_1978_241.cif
_cod_data_source_block           H4Cl3Mn1N1
_cod_original_cell_volume        128.2147
_cod_original_formula_sum        'H4 Cl3 Mn1 N1'
_cod_database_code               1530895
loop_
_symmetry_equiv_pos_as_xyz
x,y,z
-y,x,z
-x,-y,z
y,-x,z
x,-y,-z
y,x,-z
-x,y,-z
-y,-x,-z
z,x,y
-x,z,y
-z,-x,y
x,-z,y
z,-x,-y
x,z,-y
-z,x,-y
-x,-z,-y
y,z,x
y,-z,-x
z,y,-x
-y,z,-x
-z,-y,-x
-y,-z,x
z,-y,x
-z,y,x
-x,-y,-z
y,-x,-z
x,y,-z
-y,x,-z
-x,y,z
-y,-x,z
x,-y,z
y,x,z
-z,-x,-y
x,-z,-y
z,x,-y
-x,z,-y
-z,x,y
-x,-z,y
z,-x,y
x,z,y
-y,-z,-x
-y,z,x
-z,-y,x
y,-z,x
z,y,x
y,z,-x
-z,y,-x
z,-y,-x
loop_
_atom_site_label
_atom_site_type_symbol
_atom_site_fract_x
_atom_site_fract_y
_atom_site_fract_z
_atom_site_occupancy
_atom_site_U_iso_or_equiv
Mn1 Mn+2 0.5 0.5 0.5 1 0.0
Cl1 Cl-1 0 0.5 0.5 1 0.0
N1 N-3 0 0 0 1 0.0
