#------------------------------------------------------------------------------
#$Date: 2016-02-13 21:28:24 +0200 (Sat, 13 Feb 2016) $
#$Revision: 176429 $
#$URL: svn://www.crystallography.net/cod/cif/1/53/06/1530681.cif $
#------------------------------------------------------------------------------
#
# This file is available in the Crystallography Open Database (COD),
# http://www.crystallography.net/
#
# All data on this site have been placed in the public domain by the
# contributors.
#
data_1530681
loop_
_publ_author_name
'Sakata, M.'
'Nishiwaki, T.'
'Harada, J.'
_publ_section_title
;
 Neutron diffraction study of the structure of cubic Cs Pb Br3
;
_journal_name_full               'Journal of the Physical Society of Japan'
_journal_page_first              232
_journal_page_last               233
_journal_volume                  47
_journal_year                    1979
_chemical_formula_sum            'Br3 Cs Pb'
_chemical_name_systematic        'Cs Pb Br3'
_space_group_IT_number           221
_symmetry_space_group_name_Hall  '-P 4 2 3'
_symmetry_space_group_name_H-M   'P m -3 m'
_cell_angle_alpha                90
_cell_angle_beta                 90
_cell_angle_gamma                90
_cell_formula_units_Z            1
_cell_length_a                   5.605
_cell_length_b                   5.605
_cell_length_c                   5.605
_cell_volume                     176.087
_citation_journal_id_ASTM        JUPSAU
_cod_data_source_file            Sakata_JUPSAU_1979_885.cif
_cod_data_source_block           Br3Cs1Pb1
_cod_original_cell_volume        176.0868
_cod_original_formula_sum        'Br3 Cs1 Pb1'
_cod_database_code               1530681
loop_
_symmetry_equiv_pos_as_xyz
x,y,z
-y,x,z
-x,-y,z
y,-x,z
x,-y,-z
y,x,-z
-x,y,-z
-y,-x,-z
z,x,y
-x,z,y
-z,-x,y
x,-z,y
z,-x,-y
x,z,-y
-z,x,-y
-x,-z,-y
y,z,x
y,-z,-x
z,y,-x
-y,z,-x
-z,-y,-x
-y,-z,x
z,-y,x
-z,y,x
-x,-y,-z
y,-x,-z
x,y,-z
-y,x,-z
-x,y,z
-y,-x,z
x,-y,z
y,x,z
-z,-x,-y
x,-z,-y
z,x,-y
-x,z,-y
-z,x,y
-x,-z,y
z,-x,y
x,z,y
-y,-z,-x
-y,z,x
-z,-y,x
y,-z,x
z,y,x
y,z,-x
-z,y,-x
z,-y,-x
loop_
_atom_site_label
_atom_site_type_symbol
_atom_site_fract_x
_atom_site_fract_y
_atom_site_fract_z
_atom_site_occupancy
_atom_site_U_iso_or_equiv
Pb1 Pb+2 0.5 0.5 0.5 1 0.0
Cs1 Cs+1 0 0 0 1 0.0
Br1 Br-1 0 0.5 0.5 1 0.0
