#------------------------------------------------------------------------------
#$Date: 2015-09-12 18:21:15 +0300 (Sat, 12 Sep 2015) $
#$Revision: 156068 $
#$URL: svn://www.crystallography.net/cod/cif/1/53/08/1530851.cif $
#------------------------------------------------------------------------------
#
# This file is available in the Crystallography Open Database (COD),
# http://www.crystallography.net/
#
# All data on this site have been placed in the public domain by the
# contributors.
#
data_1530851
loop_
_publ_author_name
'Sutich, P.R.'
'Taitai, A.'
'Lacout, J.L.'
'Young, R.A.'
_publ_section_title
;
 Structural consequences of the coupled substitution of Eu, S in calcium
 sulfoapatite
;
_journal_name_full               'Journal of Solid State Chemistry'
_journal_page_first              267
_journal_page_last               277
_journal_volume                  63
_journal_year                    1986
_chemical_formula_sum            'Ca9.1 Eu0.9 O24 P6 S1.41'
_chemical_name_systematic        'Ca9.1 Eu.90 (P O4)6 S1.41'
_space_group_IT_number           173
_symmetry_space_group_name_Hall  'P 6c'
_symmetry_space_group_name_H-M   'P 63'
_cell_angle_alpha                90
_cell_angle_beta                 90
_cell_angle_gamma                120
_cell_formula_units_Z            1
_cell_length_a                   9.5977
_cell_length_b                   9.5977
_cell_length_c                   6.7416
_cell_volume                     537.809
_citation_journal_id_ASTM        JSSCBI
_cod_data_source_file            Sutich_JSSCBI_1986_1292.cif
_cod_data_source_block           Ca9.1Eu0.9O24P6S1.41
_cod_original_cell_volume        537.8089
_cod_database_code               1530851
loop_
_symmetry_equiv_pos_as_xyz
x,y,z
x-y,x,z+1/2
-y,x-y,z
-x,-y,z+1/2
-x+y,-x,z
y,-x+y,z+1/2
loop_
_atom_site_label
_atom_site_type_symbol
_atom_site_fract_x
_atom_site_fract_y
_atom_site_fract_z
_atom_site_occupancy
_atom_site_U_iso_or_equiv
O2 O-2 0.5935 0.466 0.2797 1 0.0
O1 O-2 0.3437 0.4885 0.2496 1 0.0
Ca3 Ca+2 0.2468 0.0019 0.25 0.85 0.0
Ca1 Ca+2 0.3333 0.6667 -0.0054 1 0.0
O3 O-2 0.3701 0.2682 0.0622 1 0.0
Ca2 Ca+2 0.6667 0.3333 -0.0097 1 0.0
Eu1 Eu+3 0.2468 0.0019 0.25 0.15 0.0
P1 P+5 0.4096 0.3777 0.2404 1 0.0
O4 O-2 -0.3409 -0.2685 -0.0712 1 0.0
S1 S-2 0 0 0.463 0.71 0.0
