#------------------------------------------------------------------------------
#$Date: 2016-02-13 21:28:24 +0200 (Sat, 13 Feb 2016) $
#$Revision: 176429 $
#$URL: svn://www.crystallography.net/cod/cif/1/53/06/1530643.cif $
#------------------------------------------------------------------------------
#
# This file is available in the Crystallography Open Database (COD),
# http://www.crystallography.net/
#
# All data on this site have been placed in the public domain by the
# contributors.
#
data_1530643
loop_
_publ_author_name
'Rez, I.S.'
'Pakhomov, V.I.'
'Sil'nitskaya, G.B.'
'Fedorov, P.M.'
_publ_section_title
;
 Some problems of the crystal chemistry of the crystals of the type K H2 P
 O4
;
_journal_name_full
'Izvestiya Akademii Nauk SSSR, Seriya Fizicheskaya'
_journal_page_first              1082
_journal_page_last               1085
_journal_volume                  31
_journal_year                    1967
_chemical_formula_sum            'H2 O4 P Rb'
_chemical_name_systematic        'Rb (H2 P O4)'
_space_group_IT_number           122
_symmetry_space_group_name_Hall  'I -4 2bw'
_symmetry_space_group_name_H-M   'I -4 2 d'
_cell_angle_alpha                90
_cell_angle_beta                 90
_cell_angle_gamma                90
_cell_formula_units_Z            4
_cell_length_a                   7.608
_cell_length_b                   7.608
_cell_length_c                   7.296
_cell_volume                     422.305
_citation_journal_id_ASTM        IANFAY
_cod_data_source_file            Rez_IANFAY_1967_1894.cif
_cod_data_source_block           H2O4P1Rb1
_cod_original_cell_volume        422.3046
_cod_original_formula_sum        'H2 O4 P1 Rb1'
_cod_database_code               1530643
loop_
_symmetry_equiv_pos_as_xyz
x,y,z
y,-x,-z
-x,-y,z
-y,x,-z
x,-y+1/2,-z+1/4
-y+1/2,-x,z+3/4
-x,y+1/2,-z+1/4
y+1/2,x,z+3/4
x+1/2,y+1/2,z+1/2
y+1/2,-x+1/2,-z+1/2
-x+1/2,-y+1/2,z+1/2
-y+1/2,x+1/2,-z+1/2
x+1/2,-y+1,-z+3/4
-y+1,-x+1/2,z+5/4
-x+1/2,y+1,-z+3/4
y+1,x+1/2,z+5/4
loop_
_atom_site_label
_atom_site_type_symbol
_atom_site_fract_x
_atom_site_fract_y
_atom_site_fract_z
_atom_site_occupancy
_atom_site_U_iso_or_equiv
P1 P+5 0 0 0 1 0.0
O1 O-2 0.088 0.156 0.117 1 0.0
Rb1 Rb+1 0 0 0.5 1 0.0
