#------------------------------------------------------------------------------
#$Date: 2016-02-13 21:28:24 +0200 (Sat, 13 Feb 2016) $
#$Revision: 176429 $
#$URL: svn://www.crystallography.net/cod/cif/1/53/06/1530611.cif $
#------------------------------------------------------------------------------
#
# This file is available in the Crystallography Open Database (COD),
# http://www.crystallography.net/
#
# All data on this site have been placed in the public domain by the
# contributors.
#
data_1530611
loop_
_publ_author_name
'Potapova, O.G.'
'Vasil'eva, I.G.'
'Borisov, S.V.'
_publ_section_title
;
 Crystal Structure of Praseodymium oxide iodide
;
_journal_name_full
'Zhurnal Strukturnoi Khimii (Issue-No. from 1981)'
_journal_page_first              573
_journal_page_last               577
_journal_volume                  18
_journal_year                    1977
_chemical_formula_sum            'I O Pr'
_chemical_name_systematic        'Pr O I'
_space_group_IT_number           129
_symmetry_space_group_name_Hall  'P 4ab 2ab -1ab'
_symmetry_space_group_name_H-M   'P 4/n m m :1'
_cell_angle_alpha                90
_cell_angle_beta                 90
_cell_angle_gamma                90
_cell_formula_units_Z            2
_cell_length_a                   4.086
_cell_length_b                   4.086
_cell_length_c                   9.162
_cell_volume                     152.963
_citation_journal_id_ASTM        ZSTKAI
_cod_data_source_file            Potapova_ZSTKAI_1977_144.cif
_cod_data_source_block           I1O1Pr1
_cod_original_cell_volume        152.9632
_cod_original_sg_symbol_Hall     '-P 4a 2a (x-1/4,y+1/4,z)'
_cod_original_formula_sum        'I1 O1 Pr1'
_cod_database_code               1530611
loop_
_symmetry_equiv_pos_as_xyz
x,y,z
-y+1/2,x+1/2,z
-x,-y,z
y+1/2,-x+1/2,z
x+1/2,-y+1/2,-z
y,x,-z
-x+1/2,y+1/2,-z
-y,-x,-z
-x+1/2,-y+1/2,-z
y,-x,-z
x+1/2,y+1/2,-z
-y,x,-z
-x,y,z
-y+1/2,-x+1/2,z
x,-y,z
y+1/2,x+1/2,z
loop_
_atom_site_label
_atom_site_type_symbol
_atom_site_fract_x
_atom_site_fract_y
_atom_site_fract_z
_atom_site_occupancy
_atom_site_U_iso_or_equiv
Pr1 Pr+3 0 0.5 0.131 1 0.0
O1 O-2 0 0 0 1 0.0
I1 I-1 0 0.5 0.672 1 0.0
