#------------------------------------------------------------------------------
#$Date: 2015-09-09 12:37:49 +0300 (Wed, 09 Sep 2015) $
#$Revision: 155696 $
#$URL: svn://www.crystallography.net/cod/cif/1/53/05/1530566.cif $
#------------------------------------------------------------------------------
#
# This file is available in the Crystallography Open Database (COD),
# http://www.crystallography.net/
#
# All data on this site have been placed in the public domain by the
# contributors.
#
data_1530566
loop_
_publ_author_name
'Percheron-Guegan, A.'
'Lartigue, C.'
'Achard, J.C.'
'Tasset, F.'
'Germi, P.'
_publ_section_title
;
 Neutron and X-Ray diffraction profile analyses and structure of La Ni5,
 La Ni5-x Alx and La Ni5-x Mnx intermetallics and their hydrides
 (deuterides)
;
_journal_name_full               'Journal of the Less-Common Metals'
_journal_page_first              1
_journal_page_last               12
_journal_volume                  74
_journal_year                    1980
_chemical_formula_sum            'D6.499 La0.98 Ni5.036'
_chemical_name_systematic        'La Ni5.13 D6.5'
_space_group_IT_number           191
_symmetry_space_group_name_Hall  '-P 6 2'
_symmetry_space_group_name_H-M   'P 6/m m m'
_cell_angle_alpha                90
_cell_angle_beta                 90
_cell_angle_gamma                120
_cell_formula_units_Z            1
_cell_length_a                   5.399
_cell_length_b                   5.399
_cell_length_c                   4.29
_cell_volume                     108.297
_citation_journal_id_ASTM        JCOMAH
_cod_data_source_file            Percheron-Guegan_JCOMAH_1980_760.cif
_cod_data_source_block           D6.499La0.98Ni5.036
_cod_original_cell_volume        108.2965
_cod_database_code               1530566
loop_
_symmetry_equiv_pos_as_xyz
x,y,z
x-y,x,z
-y,x-y,z
-x,-y,z
-x+y,-x,z
y,-x+y,z
-y,-x,-z
x-y,-y,-z
x,x-y,-z
y,x,-z
-x+y,y,-z
-x,-x+y,-z
-x,-y,-z
-x+y,-x,-z
y,-x+y,-z
x,y,-z
x-y,x,-z
-y,x-y,-z
y,x,z
-x+y,y,z
-x,-x+y,z
-y,-x,z
x-y,-y,z
x,x-y,z
loop_
_atom_site_label
_atom_site_type_symbol
_atom_site_fract_x
_atom_site_fract_y
_atom_site_fract_z
_atom_site_occupancy
_atom_site_U_iso_or_equiv
D3 D 0.136 0.272 0.5 0.318 0.0
D4 D 0.455 0 0.117 0.178 0.0
Ni4 Ni 0 0 0.313 0.017 0.0
La1 La 0 0 0 0.98 0.0
D5 D 0.204 0.408 0.354 0.108 0.0
D1 D 0.5 0 0 0.213 0.0
Ni2 Ni 0.5 0 0.5 1 0.0
Ni3 Ni 0.287 0.574 0 0.017 0.0
D2 D 0.3333 0.6667 0.369 0.13 0.0
Ni1 Ni 0.3333 0.6667 0 0.95 0.0
