#------------------------------------------------------------------------------
#$Date: 2016-02-13 21:28:24 +0200 (Sat, 13 Feb 2016) $
#$Revision: 176429 $
#$URL: svn://www.crystallography.net/cod/cif/1/53/17/1531742.cif $
#------------------------------------------------------------------------------
#
# This file is available in the Crystallography Open Database (COD),
# http://www.crystallography.net/
#
# All data on this site have been placed in the public domain by the
# contributors.
#
data_1531742
loop_
_publ_author_name
'Mitrokhin, S.V.'
'Smirnova, T.N.'
'Somenkov, V.A.'
'Glazkov, V.P.'
'Verbetskii, V.N.'
_publ_section_title
;
 Structure of (Ti, Zr) - Mn - V nonstoichiometric Laves phases and (Ti0.9
 Zr0.1) (Mn0.75 V0.15 Ti0.1)2 D2.8 deuteride
;
_journal_name_full               'Journal of Alloys Compd.'
_journal_page_first              80
_journal_page_last               83
_journal_volume                  356
_journal_year                    2003
_chemical_formula_sum            'Mn1.48 Ti V0.52'
_chemical_name_systematic        'Ti (Mn1.48 V0.52)'
_space_group_IT_number           194
_symmetry_space_group_name_Hall  '-P 6c 2c'
_symmetry_space_group_name_H-M   'P 63/m m c'
_cell_angle_alpha                90
_cell_angle_beta                 90
_cell_angle_gamma                120
_cell_formula_units_Z            4
_cell_length_a                   4.894
_cell_length_b                   4.894
_cell_length_c                   8.02
_cell_volume                     166.354
_citation_journal_id_ASTM        JALCEU
_cod_data_source_file            Mitrokhin_JALCEU_2003_1434.cif
_cod_data_source_block           Mn1.48Ti1V0.52
_cod_original_cell_volume        166.3539
_cod_original_formula_sum        'Mn1.48 Ti1 V0.52'
_cod_database_code               1531742
loop_
_symmetry_equiv_pos_as_xyz
x,y,z
x-y,x,z+1/2
-y,x-y,z
-x,-y,z+1/2
-x+y,-x,z
y,-x+y,z+1/2
-y,-x,-z+1/2
x-y,-y,-z
x,x-y,-z+1/2
y,x,-z
-x+y,y,-z+1/2
-x,-x+y,-z
-x,-y,-z
-x+y,-x,-z-1/2
y,-x+y,-z
x,y,-z-1/2
x-y,x,-z
-y,x-y,-z-1/2
y,x,z-1/2
-x+y,y,z
-x,-x+y,z-1/2
-y,-x,z
x-y,-y,z-1/2
x,x-y,z
loop_
_atom_site_label
_atom_site_type_symbol
_atom_site_fract_x
_atom_site_fract_y
_atom_site_fract_z
_atom_site_occupancy
_atom_site_U_iso_or_equiv
V1 V 0 0 0 0.4 0.0
Ti1 Ti 0.3333 0.6667 0.064 1 0.0
V2 V 0.829 0.658 0.25 0.21 0.0
Mn1 Mn 0 0 0 0.6 0.0
Mn2 Mn 0.829 0.658 0.25 0.79 0.0
