#------------------------------------------------------------------------------
#$Date: 2016-02-13 21:28:24 +0200 (Sat, 13 Feb 2016) $
#$Revision: 176429 $
#$URL: svn://www.crystallography.net/cod/cif/1/53/19/1531983.cif $
#------------------------------------------------------------------------------
#
# This file is available in the Crystallography Open Database (COD),
# http://www.crystallography.net/
#
# All data on this site have been placed in the public domain by the
# contributors.
#
data_1531983
loop_
_publ_author_name
'Olekseyuk, I.D.'
'Marchuk, O.V.'
'Dydchak, I.V.'
'Gulay, L.D.'
'Piskach, L.V.'
'Parasyuk, O.V.'
_publ_section_title
;
 Single crystal preparation and crystal structure of the (Cu2 Zn)/ (Cd,
 Hg)/(Sn Se4) compounds
;
_journal_name_full               'Journal of Alloys Compd.'
_journal_page_first              141
_journal_page_last               145
_journal_volume                  340
_journal_year                    2002
_chemical_formula_sum            'Cu2 Se4 Sn Zn'
_chemical_name_systematic        'Cu2 Zn Sn Se4'
_space_group_IT_number           121
_symmetry_space_group_name_Hall  'I -4 2'
_symmetry_space_group_name_H-M   'I -4 2 m'
_cell_angle_alpha                90
_cell_angle_beta                 90
_cell_angle_gamma                90
_cell_formula_units_Z            2
_cell_length_a                   5.6882
_cell_length_b                   5.6882
_cell_length_c                   11.3378
_cell_volume                     366.842
_citation_journal_id_ASTM        JALCEU
_cod_data_source_file            Olekseyuk_JALCEU_2002_502.cif
_cod_data_source_block           Cu2Se4Sn1Zn1
_cod_original_cell_volume        366.8416
_cod_original_formula_sum        'Cu2 Se4 Sn1 Zn1'
_cod_database_code               1531983
loop_
_symmetry_equiv_pos_as_xyz
x,y,z
y,-x,-z
-x,-y,z
-y,x,-z
x,-y,-z
-y,-x,z
-x,y,-z
y,x,z
x+1/2,y+1/2,z+1/2
y+1/2,-x+1/2,-z+1/2
-x+1/2,-y+1/2,z+1/2
-y+1/2,x+1/2,-z+1/2
x+1/2,-y+1/2,-z+1/2
-y+1/2,-x+1/2,z+1/2
-x+1/2,y+1/2,-z+1/2
y+1/2,x+1/2,z+1/2
loop_
_atom_site_label
_atom_site_type_symbol
_atom_site_fract_x
_atom_site_fract_y
_atom_site_fract_z
_atom_site_occupancy
_atom_site_U_iso_or_equiv
Sn1 Sn+4 0 0 0.5 1 0.0
Se1 Se-2 0.2587 0.2587 0.3714 1 0.0
Cu1 Cu+1 0 0.5 0.25 1 0.0
Zn1 Zn+2 0 0 0 1 0.0
