#------------------------------------------------------------------------------
#$Date: 2016-02-13 21:28:24 +0200 (Sat, 13 Feb 2016) $
#$Revision: 176429 $
#$URL: svn://www.crystallography.net/cod/cif/1/53/10/1531096.cif $
#------------------------------------------------------------------------------
#
# This file is available in the Crystallography Open Database (COD),
# http://www.crystallography.net/
#
# All data on this site have been placed in the public domain by the
# contributors.
#
data_1531096
loop_
_publ_author_name
'Avdeev, M.'
'Kharton, V.'
_publ_section_title
;
 Crystal structure of rhombohedral M Cd (N O2)3 (M = K, Rb, Cs, Tl) from
 X-ray powder diffraction data
;
_journal_name_full               'Materials Research Bulletin'
_journal_page_first              735
_journal_page_last               743
_journal_volume                  37
_journal_year                    2002
_chemical_formula_sum            'Cd Cs N3 O6'
_chemical_name_systematic        'Cs Cd (N O2)3'
_space_group_IT_number           146
_symmetry_space_group_name_Hall  'R 3'
_symmetry_space_group_name_H-M   'R 3 :H'
_cell_angle_alpha                90
_cell_angle_beta                 90
_cell_angle_gamma                120
_cell_formula_units_Z            3
_cell_length_a                   7.7305
_cell_length_b                   7.7305
_cell_length_c                   9.417
_cell_volume                     487.370
_citation_journal_id_ASTM        MRBUAC
_cod_data_source_file            Avdeev_MRBUAC_2002_788.cif
_cod_data_source_block           Cd1Cs1N3O6
_cod_original_cell_volume        487.3695
_cod_original_formula_sum        'Cd1 Cs1 N3 O6'
_cod_database_code               1531096
loop_
_symmetry_equiv_pos_as_xyz
x,y,z
-y,x-y,z
-x+y,-x,z
x+2/3,y+1/3,z+1/3
-y+2/3,x-y+1/3,z+1/3
-x+y+2/3,-x+1/3,z+1/3
x+1/3,y+2/3,z+2/3
-y+1/3,x-y+2/3,z+2/3
-x+y+1/3,-x+2/3,z+2/3
loop_
_atom_site_label
_atom_site_type_symbol
_atom_site_fract_x
_atom_site_fract_y
_atom_site_fract_z
_atom_site_occupancy
_atom_site_U_iso_or_equiv
N1 N+3 0.5014 0.053 0.5381 1 0.0
O2 O-2 0.3754 0.885 0.4945 1 0.0
Cd1 Cd+2 0.6667 0.3333 0.3527 1 0.0
O1 O-2 0.617 0.0612 0.6327 1 0.0
Cs1 Cs+1 0.6667 0.3333 0.8886 1 0.0
