#------------------------------------------------------------------------------
#$Date: 2016-02-13 21:28:24 +0200 (Sat, 13 Feb 2016) $
#$Revision: 176429 $
#$URL: svn://www.crystallography.net/cod/cif/1/53/12/1531269.cif $
#------------------------------------------------------------------------------
#
# This file is available in the Crystallography Open Database (COD),
# http://www.crystallography.net/
#
# All data on this site have been placed in the public domain by the
# contributors.
#
data_1531269
loop_
_publ_author_name
'Demchenko, P.'
'Muratova, L.'
'Bodak, O.'
_publ_section_title
;
 The ternary Gd - Zn - Ge system
;
_journal_name_full               'Journal of Alloys Compd.'
_journal_page_first              100
_journal_page_last               104
_journal_volume                  339
_journal_year                    2002
_chemical_formula_sum            'Gd Ge0.4 Zn1.6'
_chemical_name_systematic        'Gd (Zn1.6 Ge0.4)'
_space_group_IT_number           189
_symmetry_space_group_name_Hall  'P -6 -2'
_symmetry_space_group_name_H-M   'P -6 2 m'
_cell_angle_alpha                90
_cell_angle_beta                 90
_cell_angle_gamma                120
_cell_formula_units_Z            3
_cell_length_a                   6.9678
_cell_length_b                   6.9678
_cell_length_c                   4.3069
_cell_volume                     181.087
_citation_journal_id_ASTM        JALCEU
_cod_data_source_file            Demchenko_JALCEU_2002_485.cif
_cod_data_source_block           Gd1Ge0.4Zn1.6
_cod_original_cell_volume        181.0868
_cod_original_formula_sum        'Gd1 Ge0.4 Zn1.6'
_cod_database_code               1531269
loop_
_symmetry_equiv_pos_as_xyz
x,y,z
-x+y,-x,-z
-y,x-y,z
x,y,-z
-x+y,-x,z
-y,x-y,-z
y,x,z
x-y,-y,-z
-x,-x+y,z
y,x,-z
x-y,-y,z
-x,-x+y,-z
loop_
_atom_site_label
_atom_site_type_symbol
_atom_site_fract_x
_atom_site_fract_y
_atom_site_fract_z
_atom_site_occupancy
_atom_site_U_iso_or_equiv
Zn1 Zn 0.2435 0 0.5 0.96 0.0
Zn3 Zn 0 0 0 0.31 0.0
Zn2 Zn 0.3333 0.6667 0.5 0.8 0.0
Ge3 Ge 0 0 0 0.69 0.0
Ge2 Ge 0.3333 0.6667 0.5 0.2 0.0
Gd1 Gd 0.5738 0 0 1 0.0
Ge1 Ge 0.2435 0 0.5 0.04 0.0
