#------------------------------------------------------------------------------
#$Date: 2016-02-13 21:28:24 +0200 (Sat, 13 Feb 2016) $
#$Revision: 176429 $
#$URL: svn://www.crystallography.net/cod/cif/1/53/17/1531710.cif $
#------------------------------------------------------------------------------
#
# This file is available in the Crystallography Open Database (COD),
# http://www.crystallography.net/
#
# All data on this site have been placed in the public domain by the
# contributors.
#
data_1531710
loop_
_publ_author_name
'Lefevre, C.'
'Venturini, G.'
'Malaman, B.'
_publ_section_title
;
 A neutron diffraction study of (Hf Fe6 Ge6) - type Tb Mn6 Ge6-x Gax
 compounds (x = 0.1, 0.2 and 1.0)
;
_journal_name_full               'Journal of Alloys Compd.'
_journal_page_first              41
_journal_page_last               50
_journal_volume                  333
_journal_year                    2002
_chemical_formula_sum            'Ga0.2 Ge5.8 Mn6 Tb'
_chemical_name_systematic        'Tb Mn6 (Ge5.8 Ga0.2)'
_space_group_IT_number           191
_symmetry_space_group_name_Hall  '-P 6 2'
_symmetry_space_group_name_H-M   'P 6/m m m'
_cell_angle_alpha                90
_cell_angle_beta                 90
_cell_angle_gamma                120
_cell_formula_units_Z            1
_cell_length_a                   5.2209
_cell_length_b                   5.2209
_cell_length_c                   8.1632
_cell_volume                     192.700
_citation_journal_id_ASTM        JALCEU
_cod_data_source_file            Lefevre_JALCEU_2002_391.cif
_cod_data_source_block           Ga0.2Ge5.8Mn6Tb1
_cod_original_cell_volume        192.7001
_cod_original_formula_sum        'Ga0.2 Ge5.8 Mn6 Tb1'
_cod_database_code               1531710
loop_
_symmetry_equiv_pos_as_xyz
x,y,z
x-y,x,z
-y,x-y,z
-x,-y,z
-x+y,-x,z
y,-x+y,z
-y,-x,-z
x-y,-y,-z
x,x-y,-z
y,x,-z
-x+y,y,-z
-x,-x+y,-z
-x,-y,-z
-x+y,-x,-z
y,-x+y,-z
x,y,-z
x-y,x,-z
-y,x-y,-z
y,x,z
-x+y,y,z
-x,-x+y,z
-y,-x,z
x-y,-y,z
x,x-y,z
loop_
_atom_site_label
_atom_site_type_symbol
_atom_site_fract_x
_atom_site_fract_y
_atom_site_fract_z
_atom_site_occupancy
_atom_site_U_iso_or_equiv
Ga2 Ga 0.3333 0.6667 0.5 0.033 0.0
Tb1 Tb 0 0 0 1 0.0
Ge3 Ge 0 0 0.343 0.967 0.0
Ga3 Ga 0 0 0.343 0.033 0.0
Ga1 Ga 0.3333 0.6667 0 0.033 0.0
Mn1 Mn 0 0.5 0.254 1 0.0
Ge2 Ge 0.3333 0.6667 0.5 0.967 0.0
Ge1 Ge 0.3333 0.6667 0 0.967 0.0
