#------------------------------------------------------------------------------
#$Date: 2015-09-18 02:36:38 +0300 (Fri, 18 Sep 2015) $
#$Revision: 157394 $
#$URL: svn://www.crystallography.net/cod/cif/1/53/18/1531819.cif $
#------------------------------------------------------------------------------
#
# This file is available in the Crystallography Open Database (COD),
# http://www.crystallography.net/
#
# All data on this site have been placed in the public domain by the
# contributors.
#
data_1531819
loop_
_publ_author_name
'Morozkin, A.V.'
'Welter, R.'
_publ_section_title
;
 Phase equilibria in the Gd - Sc - Si and Tb - Sc - Si systems at 1100 K
;
_journal_name_full               'Journal of Alloys Compd.'
_journal_page_first              202
_journal_page_last               205
_journal_volume                  336
_journal_year                    2002
_chemical_formula_sum            'Sc0.1 Si1.5 Tb0.9'
_chemical_name_systematic        '(Tb0.9 Sc0.1) Si1.5'
_space_group_IT_number           191
_symmetry_space_group_name_Hall  '-P 6 2'
_symmetry_space_group_name_H-M   'P 6/m m m'
_cell_angle_alpha                90
_cell_angle_beta                 90
_cell_angle_gamma                120
_cell_formula_units_Z            1
_cell_length_a                   3.806
_cell_length_b                   3.806
_cell_length_c                   4.09
_cell_volume                     51.309
_citation_journal_id_ASTM        JALCEU
_cod_data_source_file            Morozkin_JALCEU_2002_439.cif
_cod_data_source_block           Sc0.1Si1.5Tb0.9
_cod_original_cell_volume        51.30876
_cod_database_code               1531819
loop_
_symmetry_equiv_pos_as_xyz
x,y,z
x-y,x,z
-y,x-y,z
-x,-y,z
-x+y,-x,z
y,-x+y,z
-y,-x,-z
x-y,-y,-z
x,x-y,-z
y,x,-z
-x+y,y,-z
-x,-x+y,-z
-x,-y,-z
-x+y,-x,-z
y,-x+y,-z
x,y,-z
x-y,x,-z
-y,x-y,-z
y,x,z
-x+y,y,z
-x,-x+y,z
-y,-x,z
x-y,-y,z
x,x-y,z
loop_
_atom_site_label
_atom_site_type_symbol
_atom_site_fract_x
_atom_site_fract_y
_atom_site_fract_z
_atom_site_occupancy
_atom_site_U_iso_or_equiv
Si1 Si 0.3333 0.6667 0.5 0.75 0.0
Tb1 Tb 0 0 0 0.9 0.0
Sc1 Sc 0 0 0 0.1 0.0
