#------------------------------------------------------------------------------
#$Date: 2015-09-18 07:15:03 +0300 (Fri, 18 Sep 2015) $
#$Revision: 157601 $
#$URL: svn://www.crystallography.net/cod/cif/1/53/19/1531990.cif $
#------------------------------------------------------------------------------
#
# This file is available in the Crystallography Open Database (COD),
# http://www.crystallography.net/
#
# All data on this site have been placed in the public domain by the
# contributors.
#
data_1531990
loop_
_publ_author_name
'Olenev, A.V.'
'Shatruk, M.M.'
'Popovkin, B.A.'
'Shevel'kov, A.V.'
_publ_section_title
;
 Synthesis and crystal structure of the supramolecular solid solution (Hg6
 Asx Sb4-x) (Sb Br6) Br
;
_journal_name_full               'Zhurnal Neorganicheskoi Khimii'
_journal_page_first              1615
_journal_page_last               1618
_journal_volume                  46
_journal_year                    2001
_chemical_formula_sum            'As1.46 Br7 Hg6 Sb3.54'
_chemical_name_systematic        '(Hg6 As1.46 Sb2.54) (Sb Br6) Br'
_space_group_IT_number           205
_symmetry_space_group_name_Hall  '-P 2ac 2ab 3'
_symmetry_space_group_name_H-M   'P a -3'
_cell_angle_alpha                90
_cell_angle_beta                 90
_cell_angle_gamma                90
_cell_formula_units_Z            4
_cell_length_a                   12.775
_cell_length_b                   12.775
_cell_length_c                   12.775
_cell_volume                     2084.888
_citation_journal_id_ASTM        ZNOKAQ
_cod_data_source_file            Olenev_ZNOKAQ_2001_97.cif
_cod_data_source_block           As1.46Br7Hg6Sb3.54
_cod_database_code               1531990
loop_
_symmetry_equiv_pos_as_xyz
x,y,z
-x+1/2,-y,z+1/2
x+1/2,-y+1/2,-z
-x,y+1/2,-z+1/2
z,x,y
-z+1/2,-x,y+1/2
z+1/2,-x+1/2,-y
-z,x+1/2,-y+1/2
y,z,x
y+1/2,-z+1/2,-x
-y,z+1/2,-x+1/2
-y+1/2,-z,x+1/2
-x,-y,-z
x-1/2,y,-z-1/2
-x-1/2,y-1/2,z
x,-y-1/2,z-1/2
-z,-x,-y
z-1/2,x,-y-1/2
-z-1/2,x-1/2,y
z,-x-1/2,y-1/2
-y,-z,-x
-y-1/2,z-1/2,x
y,-z-1/2,x-1/2
y-1/2,z,-x-1/2
loop_
_atom_site_label
_atom_site_type_symbol
_atom_site_fract_x
_atom_site_fract_y
_atom_site_fract_z
_atom_site_occupancy
_atom_site_U_iso_or_equiv
Sb2 Sb-2 0.1508 0.1508 0.1508 0.659 0.0
Br1 Br-1 0.0504 0.7086 0.0458 1 0.0
Sb3 Sb+3 0 0 0.5 1 0.0
Br2 Br-1 0.5 0 0.5 1 0.0
As2 As-2 0.1508 0.1508 0.1508 0.341 0.0
Hg1 Hg+2 0.544 0.6887 0.1964 1 0.0
As1 As-2 0.2721 0.2721 0.2721 0.39 0.0
Sb1 Sb-2 0.2721 0.2721 0.2721 0.61 0.0
