#------------------------------------------------------------------------------
#$Date: 2015-09-17 04:34:47 +0300 (Thu, 17 Sep 2015) $
#$Revision: 156693 $
#$URL: svn://www.crystallography.net/cod/cif/1/53/12/1531298.cif $
#------------------------------------------------------------------------------
#
# This file is available in the Crystallography Open Database (COD),
# http://www.crystallography.net/
#
# All data on this site have been placed in the public domain by the
# contributors.
#
data_1531298
loop_
_publ_author_name
'Dhar, S.K.'
'Manfrinetti, P.'
'Palenzona, A.'
'Pani, M.'
_publ_section_title
;
 Structural and magnetic properties of the (Mn5 Si3)-type (Gd1-x Scx)5 Ge3
 compounds
;
_journal_name_full               'Journal of Alloys Compd.'
_journal_page_first              1
_journal_page_last               8
_journal_volume                  347
_journal_year                    2002
_chemical_formula_sum            'Gd3.55 Ge3 Sc1.45'
_chemical_name_systematic        '(Gd3.55 Sc1.45) Ge3'
_space_group_IT_number           193
_symmetry_space_group_name_Hall  '-P 6c 2'
_symmetry_space_group_name_H-M   'P 63/m c m'
_cell_angle_alpha                90
_cell_angle_beta                 90
_cell_angle_gamma                120
_cell_formula_units_Z            2
_cell_length_a                   8.405
_cell_length_b                   8.405
_cell_length_c                   6.251
_cell_volume                     382.433
_citation_journal_id_ASTM        JALCEU
_cod_data_source_file            Dhar_JALCEU_2002_580.cif
_cod_data_source_block           Gd3.55Ge3Sc1.45
_cod_original_cell_volume        382.4332
_cod_database_code               1531298
loop_
_symmetry_equiv_pos_as_xyz
x,y,z
x-y,x,z+1/2
-y,x-y,z
-x,-y,z+1/2
-x+y,-x,z
y,-x+y,z+1/2
-y,-x,-z
x-y,-y,-z+1/2
x,x-y,-z
y,x,-z+1/2
-x+y,y,-z
-x,-x+y,-z+1/2
-x,-y,-z
-x+y,-x,-z-1/2
y,-x+y,-z
x,y,-z-1/2
x-y,x,-z
-y,x-y,-z-1/2
y,x,z
-x+y,y,z-1/2
-x,-x+y,z
-y,-x,z-1/2
x-y,-y,z
x,x-y,z-1/2
loop_
_atom_site_label
_atom_site_type_symbol
_atom_site_fract_x
_atom_site_fract_y
_atom_site_fract_z
_atom_site_occupancy
_atom_site_U_iso_or_equiv
Gd1 Gd 0.3333 0.6667 0 0.469 0.0
Ge1 Ge 0.6032 0 0.25 1 0.0
Sc1 Sc 0.3333 0.6667 0 0.531 0.0
Sc2 Sc 0.24331 0 0.25 0.131 0.0
Gd2 Gd 0.24331 0 0.25 0.869 0.0
