#------------------------------------------------------------------------------
#$Date: 2016-02-13 21:28:24 +0200 (Sat, 13 Feb 2016) $
#$Revision: 176429 $
#$URL: svn://www.crystallography.net/cod/cif/1/53/12/1531278.cif $
#------------------------------------------------------------------------------
#
# This file is available in the Crystallography Open Database (COD),
# http://www.crystallography.net/
#
# All data on this site have been placed in the public domain by the
# contributors.
#
data_1531278
loop_
_publ_author_name
'Demchenko, P.'
'Bodak, O.'
'Muratova, L.'
_publ_section_title
;
 X-ray investigation of the Gd - Zn - Si system
;
_journal_name_full               'Journal of Alloys Compd.'
_journal_page_first              170
_journal_page_last               175
_journal_volume                  346
_journal_year                    2002
_chemical_formula_sum            'Gd Si Zn'
_chemical_name_systematic        'Gd (Zn Si)'
_space_group_IT_number           191
_symmetry_space_group_name_Hall  '-P 6 2'
_symmetry_space_group_name_H-M   'P 6/m m m'
_cell_angle_alpha                90
_cell_angle_beta                 90
_cell_angle_gamma                120
_cell_formula_units_Z            1
_cell_length_a                   4.132
_cell_length_b                   4.132
_cell_length_c                   4.03
_cell_volume                     59.588
_citation_journal_id_ASTM        JALCEU
_cod_data_source_file            Demchenko_JALCEU_2002_561.cif
_cod_data_source_block           Gd1Si1Zn1
_cod_original_cell_volume        59.58766
_cod_original_formula_sum        'Gd1 Si1 Zn1'
_cod_database_code               1531278
loop_
_symmetry_equiv_pos_as_xyz
x,y,z
x-y,x,z
-y,x-y,z
-x,-y,z
-x+y,-x,z
y,-x+y,z
-y,-x,-z
x-y,-y,-z
x,x-y,-z
y,x,-z
-x+y,y,-z
-x,-x+y,-z
-x,-y,-z
-x+y,-x,-z
y,-x+y,-z
x,y,-z
x-y,x,-z
-y,x-y,-z
y,x,z
-x+y,y,z
-x,-x+y,z
-y,-x,z
x-y,-y,z
x,x-y,z
loop_
_atom_site_label
_atom_site_type_symbol
_atom_site_fract_x
_atom_site_fract_y
_atom_site_fract_z
_atom_site_occupancy
_atom_site_U_iso_or_equiv
Si1 Si 0.3333 0.6667 0.5 0.5 0.0
Zn1 Zn 0.3333 0.6667 0.5 0.5 0.0
Gd1 Gd 0 0 0 1 0.0
