#------------------------------------------------------------------------------
#$Date: 2016-02-13 21:28:24 +0200 (Sat, 13 Feb 2016) $
#$Revision: 176429 $
#$URL: svn://www.crystallography.net/cod/cif/1/53/13/1531354.cif $
#------------------------------------------------------------------------------
#
# This file is available in the Crystallography Open Database (COD),
# http://www.crystallography.net/
#
# All data on this site have been placed in the public domain by the
# contributors.
#
data_1531354
loop_
_publ_author_name
'Giester, G.'
'Ni, Y.-X.'
'Ronsbo, J.'
'Jarosch, D.'
'Hughes, J.M.'
'Yang, Z.-M.'
'Zemann, J.'
_publ_section_title
;
 Cordylite-(Ce): a crystal chemical investigation of material from four
 localities, including type material
;
_journal_name_full               'American Mineralogist'
_journal_page_first              178
_journal_page_last               184
_journal_volume                  83
_journal_year                    1998
_chemical_formula_sum            'C4 Ba Ca0.3 Ce2 F Na0.4 O12'
_chemical_name_systematic        '(Na0.4 Ca0.3) Ba Ce2 (C O3)4 F'
_space_group_IT_number           194
_symmetry_space_group_name_Hall  '-P 6c 2c'
_symmetry_space_group_name_H-M   'P 63/m m c'
_cell_angle_alpha                90
_cell_angle_beta                 90
_cell_angle_gamma                120
_cell_formula_units_Z            2
_cell_length_a                   5.109
_cell_length_b                   5.109
_cell_length_c                   23.289
_cell_volume                     526.445
_citation_journal_id_ASTM        AMMIAY
_cod_data_source_file            Giester_AMMIAY_1998_1658.cif
_cod_data_source_block           C4Ba1Ca0.3Ce2F1Na0.4O12
_cod_original_cell_volume        526.4454
_cod_original_formula_sum        'C4 Ba1 Ca0.3 Ce2 F1 Na0.4 O12'
_cod_database_code               1531354
loop_
_symmetry_equiv_pos_as_xyz
x,y,z
x-y,x,z+1/2
-y,x-y,z
-x,-y,z+1/2
-x+y,-x,z
y,-x+y,z+1/2
-y,-x,-z+1/2
x-y,-y,-z
x,x-y,-z+1/2
y,x,-z
-x+y,y,-z+1/2
-x,-x+y,-z
-x,-y,-z
-x+y,-x,-z-1/2
y,-x+y,-z
x,y,-z-1/2
x-y,x,-z
-y,x-y,-z-1/2
y,x,z-1/2
-x+y,y,z
-x,-x+y,z-1/2
-y,-x,z
x-y,-y,z-1/2
x,x-y,z
loop_
_atom_site_label
_atom_site_type_symbol
_atom_site_fract_x
_atom_site_fract_y
_atom_site_fract_z
_atom_site_occupancy
_atom_site_U_iso_or_equiv
Na1 Na+1 0.3333 0.6667 0.75 0.4 0.0
C2 C+4 0.6667 0.3333 0.4342 1 0.0
F1 F-1 0.3333 0.6667 0.25 1 0.0
C1 C+4 0 0 0.6778 1 0.0
Ca1 Ca+2 0.3333 0.6667 0.75 0.3 0.0
O2 O-2 0.5212 0.0424 0.435 1 0.0
Ce1 Ce+3 0.3333 0.6667 0.35451 1 0.0
Ba1 Ba+2 0 0 0 1 0.0
O1 O-2 0.1441 0.2882 0.6762 1 0.0
