#------------------------------------------------------------------------------
#$Date: 2015-09-17 03:52:28 +0300 (Thu, 17 Sep 2015) $
#$Revision: 156510 $
#$URL: svn://www.crystallography.net/cod/cif/1/53/11/1531160.cif $
#------------------------------------------------------------------------------
#
# This file is available in the Crystallography Open Database (COD),
# http://www.crystallography.net/
#
# All data on this site have been placed in the public domain by the
# contributors.
#
data_1531160
loop_
_publ_author_name
'Berardan, D.'
'Godart, C.'
'Alleno, E.'
'Berger, S.'
'Bauer, E.'
_publ_section_title
;
 Chemical properties and thermopower of the new series of skutterudite
 Ce1-p Ybp Fe4 Sb12
;
_journal_name_full               'Journal of Alloys Compd.'
_journal_page_first              18
_journal_page_last               23
_journal_volume                  351
_journal_year                    2003
_chemical_formula_sum            'Fe4 Sb12.08 Yb0.93'
_chemical_name_systematic        'Yb0.93 Fe4 Sb12.08'
_space_group_IT_number           204
_symmetry_space_group_name_Hall  '-I 2 2 3'
_symmetry_space_group_name_H-M   'I m -3'
_cell_angle_alpha                90
_cell_angle_beta                 90
_cell_angle_gamma                90
_cell_formula_units_Z            2
_cell_length_a                   9.154
_cell_length_b                   9.154
_cell_length_c                   9.154
_cell_volume                     767.066
_citation_journal_id_ASTM        JALCEU
_cod_data_source_file            Berardan_JALCEU_2003_1336.cif
_cod_data_source_block           Fe4Sb12.08Yb0.93
_cod_database_code               1531160
loop_
_symmetry_equiv_pos_as_xyz
x,y,z
-x,-y,z
x,-y,-z
-x,y,-z
z,x,y
-z,-x,y
z,-x,-y
-z,x,-y
y,z,x
y,-z,-x
-y,z,-x
-y,-z,x
-x,-y,-z
x,y,-z
-x,y,z
x,-y,z
-z,-x,-y
z,x,-y
-z,x,y
z,-x,y
-y,-z,-x
-y,z,x
y,-z,x
y,z,-x
x+1/2,y+1/2,z+1/2
-x+1/2,-y+1/2,z+1/2
x+1/2,-y+1/2,-z+1/2
-x+1/2,y+1/2,-z+1/2
z+1/2,x+1/2,y+1/2
-z+1/2,-x+1/2,y+1/2
z+1/2,-x+1/2,-y+1/2
-z+1/2,x+1/2,-y+1/2
y+1/2,z+1/2,x+1/2
y+1/2,-z+1/2,-x+1/2
-y+1/2,z+1/2,-x+1/2
-y+1/2,-z+1/2,x+1/2
-x+1/2,-y+1/2,-z+1/2
x+1/2,y+1/2,-z+1/2
-x+1/2,y+1/2,z+1/2
x+1/2,-y+1/2,z+1/2
-z+1/2,-x+1/2,-y+1/2
z+1/2,x+1/2,-y+1/2
-z+1/2,x+1/2,y+1/2
z+1/2,-x+1/2,y+1/2
-y+1/2,-z+1/2,-x+1/2
-y+1/2,z+1/2,x+1/2
y+1/2,-z+1/2,x+1/2
y+1/2,z+1/2,-x+1/2
loop_
_atom_site_label
_atom_site_type_symbol
_atom_site_fract_x
_atom_site_fract_y
_atom_site_fract_z
_atom_site_occupancy
_atom_site_U_iso_or_equiv
Yb1 Yb 0 0 0 0.93 0.0
Fe1 Fe 0.25 0.25 0.25 1 0.0
Sb1 Sb 0 0.336 0.159 1.007 0.0
