#------------------------------------------------------------------------------
#$Date: 2016-02-13 21:28:24 +0200 (Sat, 13 Feb 2016) $
#$Revision: 176429 $
#$URL: svn://www.crystallography.net/cod/cif/1/53/11/1531144.cif $
#------------------------------------------------------------------------------
#
# This file is available in the Crystallography Open Database (COD),
# http://www.crystallography.net/
#
# All data on this site have been placed in the public domain by the
# contributors.
#
data_1531144
loop_
_publ_author_name
'Chevalier, B.'
'Kahn, M.L.'
'Bobet, J.L.'
'Weill, F.'
'Etourneau, J.'
_publ_section_title
;
 Structural and magnetic properties of the new hydride Ce Au Al H1.4(1)
;
_journal_name_full               'Journal of Alloys Compd.'
_journal_page_first              20
_journal_page_last               26
_journal_volume                  334
_journal_year                    2002
_chemical_formula_sum            'Al Au Ce H1.4'
_chemical_name_systematic        'Ce Au Al H1.4'
_space_group_IT_number           194
_symmetry_space_group_name_Hall  '-P 6c 2c'
_symmetry_space_group_name_H-M   'P 63/m m c'
_cell_angle_alpha                90
_cell_angle_beta                 90
_cell_angle_gamma                120
_cell_formula_units_Z            2
_cell_length_a                   4.427
_cell_length_b                   4.427
_cell_length_c                   8.467
_cell_volume                     143.707
_citation_journal_id_ASTM        JALCEU
_cod_data_source_file            Chevalier_JALCEU_2002_402.cif
_cod_data_source_block           H1.4Al1Au1Ce1
_cod_original_cell_volume        143.7074
_cod_original_formula_sum        'H1.4 Al1 Au1 Ce1'
_cod_database_code               1531144
loop_
_symmetry_equiv_pos_as_xyz
x,y,z
x-y,x,z+1/2
-y,x-y,z
-x,-y,z+1/2
-x+y,-x,z
y,-x+y,z+1/2
-y,-x,-z+1/2
x-y,-y,-z
x,x-y,-z+1/2
y,x,-z
-x+y,y,-z+1/2
-x,-x+y,-z
-x,-y,-z
-x+y,-x,-z-1/2
y,-x+y,-z
x,y,-z-1/2
x-y,x,-z
-y,x-y,-z-1/2
y,x,z-1/2
-x+y,y,z
-x,-x+y,z-1/2
-y,-x,z
x-y,-y,z-1/2
x,x-y,z
loop_
_atom_site_label
_atom_site_type_symbol
_atom_site_fract_x
_atom_site_fract_y
_atom_site_fract_z
_atom_site_occupancy
_atom_site_U_iso_or_equiv
Al1 Al 0.3333 0.6667 0.75 1 0.0
Au1 Au 0.3333 0.6667 0.25 1 0.0
Ce1 Ce 0 0 0 1 0.0
