#------------------------------------------------------------------------------
#$Date: 2016-02-13 21:28:24 +0200 (Sat, 13 Feb 2016) $
#$Revision: 176429 $
#$URL: svn://www.crystallography.net/cod/cif/1/53/13/1531346.cif $
#------------------------------------------------------------------------------
#
# This file is available in the Crystallography Open Database (COD),
# http://www.crystallography.net/
#
# All data on this site have been placed in the public domain by the
# contributors.
#
data_1531346
loop_
_publ_author_name
'El Belghiti, A.A.'
'Simon, A.'
'Gravereau, P.'
'Villesuzanne, A.'
'Ravez, J.'
'Elaatmani, M.'
_publ_section_title
;
 Ferroelectric and crystallographic properties of the Sr2-x K1+x Nb5O15-x
 Fx solid solution
;
_journal_name_full               'Solid State Sciences'
_journal_page_first              933
_journal_page_last               940
_journal_volume                  4
_journal_year                    2002
_chemical_formula_sum            'F K2 Nb5 O14 Sr'
_chemical_name_systematic        'Sr K2 Nb5 O14 F'
_space_group_IT_number           127
_symmetry_space_group_name_Hall  '-P 4 2ab'
_symmetry_space_group_name_H-M   'P 4/m b m'
_cell_angle_alpha                90
_cell_angle_beta                 90
_cell_angle_gamma                90
_cell_formula_units_Z            2
_cell_length_a                   12.5657
_cell_length_b                   12.5657
_cell_length_c                   3.954
_cell_volume                     624.324
_citation_journal_id_ASTM        SSSCFJ
_cod_data_source_file            ElBelghiti_SSSCFJ_2002_947.cif
_cod_data_source_block           F1K2Nb5O14Sr1
_cod_original_formula_sum        'F1 K2 Nb5 O14 Sr1'
_cod_database_code               1531346
loop_
_symmetry_equiv_pos_as_xyz
x,y,z
-y,x,z
-x,-y,z
y,-x,z
x+1/2,-y+1/2,-z
y+1/2,x+1/2,-z
-x+1/2,y+1/2,-z
-y+1/2,-x+1/2,-z
-x,-y,-z
y,-x,-z
x,y,-z
-y,x,-z
-x-1/2,y-1/2,z
-y-1/2,-x-1/2,z
x-1/2,-y-1/2,z
y-1/2,x-1/2,z
loop_
_atom_site_label
_atom_site_type_symbol
_atom_site_fract_x
_atom_site_fract_y
_atom_site_fract_z
_atom_site_occupancy
_atom_site_U_iso_or_equiv
F2 F-1 0.343 -0.001 0.5 0.0667 0.0
O4 O-2 0.288 0.788 0.5 0.9333 0.0
O1 O-2 0.141 0.064 0.5 0.9333 0.0
Nb2 Nb+5 0.0762 0.2125 0.5 1 0.0
Sr2 Sr+2 0.172 0.672 0 0.112 0.0
F1 F-1 0.141 0.064 0.5 0.0667 0.0
K2 K+1 0.172 0.672 0 0.888 0.0
O2 O-2 0.343 -0.001 0.5 0.9333 0.0
F3 F-1 0.074 0.202 0 0.0667 0.0
F5 F-1 0 0.5 0 0.0667 0.0
O5 O-2 0 0.5 0 0.9333 0.0
Nb1 Nb+5 0 0.5 0.5 1 0.0
Sr1 Sr+2 0 0 0 0.776 0.0
K1 K+1 0 0 0 0.224 0.0
F4 F-1 0.288 0.788 0.5 0.0667 0.0
O3 O-2 0.074 0.202 0 0.9333 0.0
