#------------------------------------------------------------------------------
#$Date: 2016-02-13 21:28:24 +0200 (Sat, 13 Feb 2016) $
#$Revision: 176429 $
#$URL: svn://www.crystallography.net/cod/cif/1/53/11/1531190.cif $
#------------------------------------------------------------------------------
#
# This file is available in the Crystallography Open Database (COD),
# http://www.crystallography.net/
#
# All data on this site have been placed in the public domain by the
# contributors.
#
data_1531190
loop_
_publ_author_name
'Cizmas, C.B.'
'Djega-Mariadassou, C.'
'Bessais, L.'
_publ_section_title
;
 Magnetic properties of Gd Fe11-x Six Ti
;
_journal_name_full               'Journal of Alloys Compd.'
_journal_page_first              27
_journal_page_last               35
_journal_volume                  345
_journal_year                    2002
_chemical_formula_sum            'Fe10.5 Gd Si0.5 Ti'
_chemical_name_systematic        'Gd Fe10.5 Ti Si0.5'
_space_group_IT_number           139
_symmetry_space_group_name_Hall  '-I 4 2'
_symmetry_space_group_name_H-M   'I 4/m m m'
_cell_angle_alpha                90
_cell_angle_beta                 90
_cell_angle_gamma                90
_cell_formula_units_Z            2
_cell_length_a                   8.515
_cell_length_b                   8.515
_cell_length_c                   4.79
_cell_volume                     347.300
_citation_journal_id_ASTM        JALCEU
_cod_data_source_file            Cizmas_JALCEU_2002_547.cif
_cod_data_source_block           Fe10.5Gd1Si0.5Ti1
_cod_original_cell_volume        347.3
_cod_original_formula_sum        'Fe10.5 Gd1 Si0.5 Ti1'
_cod_database_code               1531190
loop_
_symmetry_equiv_pos_as_xyz
x,y,z
-y,x,z
-x,-y,z
y,-x,z
x,-y,-z
y,x,-z
-x,y,-z
-y,-x,-z
-x,-y,-z
y,-x,-z
x,y,-z
-y,x,-z
-x,y,z
-y,-x,z
x,-y,z
y,x,z
x+1/2,y+1/2,z+1/2
-y+1/2,x+1/2,z+1/2
-x+1/2,-y+1/2,z+1/2
y+1/2,-x+1/2,z+1/2
x+1/2,-y+1/2,-z+1/2
y+1/2,x+1/2,-z+1/2
-x+1/2,y+1/2,-z+1/2
-y+1/2,-x+1/2,-z+1/2
-x+1/2,-y+1/2,-z+1/2
y+1/2,-x+1/2,-z+1/2
x+1/2,y+1/2,-z+1/2
-y+1/2,x+1/2,-z+1/2
-x+1/2,y+1/2,z+1/2
-y+1/2,-x+1/2,z+1/2
x+1/2,-y+1/2,z+1/2
y+1/2,x+1/2,z+1/2
loop_
_atom_site_label
_atom_site_type_symbol
_atom_site_fract_x
_atom_site_fract_y
_atom_site_fract_z
_atom_site_occupancy
_atom_site_U_iso_or_equiv
Fe2 Fe 0.277 0.5 0 0.9375 0.0
Si2 Si 0.25 0.25 0.25 0.0625 0.0
Fe1 Fe 0.361 0 0 0.75 0.0
Gd1 Gd 0 0 0 1 0.0
Fe3 Fe 0.25 0.25 0.25 0.9375 0.0
Si1 Si 0.277 0.5 0 0.0625 0.0
Ti1 Ti 0.361 0 0 0.25 0.0
