#------------------------------------------------------------------------------
#$Date: 2016-02-13 21:28:24 +0200 (Sat, 13 Feb 2016) $
#$Revision: 176429 $
#$URL: svn://www.crystallography.net/cod/cif/1/53/11/1531182.cif $
#------------------------------------------------------------------------------
#
# This file is available in the Crystallography Open Database (COD),
# http://www.crystallography.net/
#
# All data on this site have been placed in the public domain by the
# contributors.
#
data_1531182
loop_
_publ_author_name
'Bronger, W.'
'Sommer, T.'
'Auffermann, G.'
'Mueller, P.'
_publ_section_title
;
 New alkali metal osmium- and ruthenium hydrides
;
_journal_name_full               'Journal of Alloys Compd.'
_journal_page_first              536
_journal_page_last               542
_journal_volume                  330
_journal_year                    2002
_chemical_formula_sum            'H9 Os Rb3'
_chemical_name_systematic        'Rb3 Os H9'
_space_group_IT_number           221
_symmetry_space_group_name_Hall  '-P 4 2 3'
_symmetry_space_group_name_H-M   'P m -3 m'
_cell_angle_alpha                90
_cell_angle_beta                 90
_cell_angle_gamma                90
_cell_formula_units_Z            1
_cell_length_a                   5.8599
_cell_length_b                   5.8599
_cell_length_c                   5.8599
_cell_volume                     201.220
_citation_journal_id_ASTM        JALCEU
_cod_data_source_file            Bronger_JALCEU_2002_376.cif
_cod_data_source_block           H9Os1Rb3
_cod_original_cell_volume        201.2198
_cod_original_formula_sum        'H9 Os1 Rb3'
_cod_database_code               1531182
loop_
_symmetry_equiv_pos_as_xyz
x,y,z
-y,x,z
-x,-y,z
y,-x,z
x,-y,-z
y,x,-z
-x,y,-z
-y,-x,-z
z,x,y
-x,z,y
-z,-x,y
x,-z,y
z,-x,-y
x,z,-y
-z,x,-y
-x,-z,-y
y,z,x
y,-z,-x
z,y,-x
-y,z,-x
-z,-y,-x
-y,-z,x
z,-y,x
-z,y,x
-x,-y,-z
y,-x,-z
x,y,-z
-y,x,-z
-x,y,z
-y,-x,z
x,-y,z
y,x,z
-z,-x,-y
x,-z,-y
z,x,-y
-x,z,-y
-z,x,y
-x,-z,y
z,-x,y
x,z,y
-y,-z,-x
-y,z,x
-z,-y,x
y,-z,x
z,y,x
y,z,-x
-z,y,-x
z,-y,-x
loop_
_atom_site_label
_atom_site_type_symbol
_atom_site_fract_x
_atom_site_fract_y
_atom_site_fract_z
_atom_site_occupancy
_atom_site_U_iso_or_equiv
Rb1 Rb+1 0.5 0.5 0 1 0.0
Os1 Os+6 0 0 0 1 0.0
