#------------------------------------------------------------------------------
#$Date: 2016-02-13 21:28:24 +0200 (Sat, 13 Feb 2016) $
#$Revision: 176429 $
#$URL: svn://www.crystallography.net/cod/cif/1/53/11/1531162.cif $
#------------------------------------------------------------------------------
#
# This file is available in the Crystallography Open Database (COD),
# http://www.crystallography.net/
#
# All data on this site have been placed in the public domain by the
# contributors.
#
data_1531162
loop_
_publ_author_name
'Brinks, H.W.'
'Ouladdiaf, B.'
'Hauback, B.C.'
'Yartys', V.A.'
'Fjellvag, H.'
_publ_section_title
;
 The magnetic structure of Tb Ni Si D1.78
;
_journal_name_full               'Journal of Alloys Compd.'
_journal_page_first              62
_journal_page_last               66
_journal_volume                  340
_journal_year                    2002
_chemical_formula_sum            'D1.78 Ni Si Tb'
_chemical_name_systematic        'Tb Ni Si D1.78'
_space_group_IT_number           194
_symmetry_space_group_name_Hall  '-P 6c 2c'
_symmetry_space_group_name_H-M   'P 63/m m c'
_cell_angle_alpha                90
_cell_angle_beta                 90
_cell_angle_gamma                120
_cell_formula_units_Z            2
_cell_length_a                   4.02872
_cell_length_b                   4.02872
_cell_length_c                   7.9536
_cell_volume                     111.797
_citation_journal_id_ASTM        JALCEU
_cod_data_source_file            Brinks_JALCEU_2002_508.cif
_cod_data_source_block           D1.78Ni1Si1Tb1
_cod_original_cell_volume        111.7966
_cod_original_formula_sum        'D1.78 Ni1 Si1 Tb1'
_cod_database_code               1531162
loop_
_symmetry_equiv_pos_as_xyz
x,y,z
x-y,x,z+1/2
-y,x-y,z
-x,-y,z+1/2
-x+y,-x,z
y,-x+y,z+1/2
-y,-x,-z+1/2
x-y,-y,-z
x,x-y,-z+1/2
y,x,-z
-x+y,y,-z+1/2
-x,-x+y,-z
-x,-y,-z
-x+y,-x,-z-1/2
y,-x+y,-z
x,y,-z-1/2
x-y,x,-z
-y,x-y,-z-1/2
y,x,z-1/2
-x+y,y,z
-x,-x+y,z-1/2
-y,-x,z
x-y,-y,z-1/2
x,x-y,z
loop_
_atom_site_label
_atom_site_type_symbol
_atom_site_fract_x
_atom_site_fract_y
_atom_site_fract_z
_atom_site_occupancy
_atom_site_U_iso_or_equiv
Tb1 Tb 0 0 0 1 0.0
D1 D 0.3333 0.6667 0.0446 0.89 0.0
Ni1 Ni 0.3333 0.6667 0.25 1 0.0
Si1 Si 0.3333 0.6667 0.75 1 0.0
