#------------------------------------------------------------------------------
#$Date: 2016-02-13 21:28:24 +0200 (Sat, 13 Feb 2016) $
#$Revision: 176429 $
#$URL: svn://www.crystallography.net/cod/cif/1/53/13/1531364.cif $
#------------------------------------------------------------------------------
#
# This file is available in the Crystallography Open Database (COD),
# http://www.crystallography.net/
#
# All data on this site have been placed in the public domain by the
# contributors.
#
data_1531364
loop_
_publ_author_name
'Goodenough, J.B.'
'Hong, H.'
'Kafalas, J.A.'
_publ_section_title
;
 Fast Na+-Ion transport in skeleton structures
;
_journal_name_full               'Materials Research Bulletin'
_journal_page_first              203
_journal_page_last               220
_journal_volume                  11
_journal_year                    1976
_chemical_formula_sum            'F0.166667 K1.09333 O3 Sb'
_chemical_name_systematic        'K Sb O3 (K F).1667'
_space_group_IT_number           204
_symmetry_space_group_name_Hall  '-I 2 2 3'
_symmetry_space_group_name_H-M   'I m -3'
_cell_angle_alpha                90
_cell_angle_beta                 90
_cell_angle_gamma                90
_cell_formula_units_Z            12
_cell_length_a                   9.606
_cell_length_b                   9.606
_cell_length_c                   9.606
_cell_volume                     886.396
_citation_journal_id_ASTM        MRBUAC
_cod_data_source_file            Goodenough_MRBUAC_1976_1455.cif
_cod_data_source_block           F0.166667K1.09333O3Sb1
_cod_original_cell_volume        886.3959
_cod_original_formula_sum        'F0.166667 K1.09333 O3 Sb1'
_cod_database_code               1531364
loop_
_symmetry_equiv_pos_as_xyz
x,y,z
-x,-y,z
x,-y,-z
-x,y,-z
z,x,y
-z,-x,y
z,-x,-y
-z,x,-y
y,z,x
y,-z,-x
-y,z,-x
-y,-z,x
-x,-y,-z
x,y,-z
-x,y,z
x,-y,z
-z,-x,-y
z,x,-y
-z,x,y
z,-x,y
-y,-z,-x
-y,z,x
y,-z,x
y,z,-x
x+1/2,y+1/2,z+1/2
-x+1/2,-y+1/2,z+1/2
x+1/2,-y+1/2,-z+1/2
-x+1/2,y+1/2,-z+1/2
z+1/2,x+1/2,y+1/2
-z+1/2,-x+1/2,y+1/2
z+1/2,-x+1/2,-y+1/2
-z+1/2,x+1/2,-y+1/2
y+1/2,z+1/2,x+1/2
y+1/2,-z+1/2,-x+1/2
-y+1/2,z+1/2,-x+1/2
-y+1/2,-z+1/2,x+1/2
-x+1/2,-y+1/2,-z+1/2
x+1/2,y+1/2,-z+1/2
-x+1/2,y+1/2,z+1/2
x+1/2,-y+1/2,z+1/2
-z+1/2,-x+1/2,-y+1/2
z+1/2,x+1/2,-y+1/2
-z+1/2,x+1/2,y+1/2
z+1/2,-x+1/2,y+1/2
-y+1/2,-z+1/2,-x+1/2
-y+1/2,z+1/2,x+1/2
y+1/2,-z+1/2,x+1/2
y+1/2,z+1/2,-x+1/2
loop_
_atom_site_label
_atom_site_type_symbol
_atom_site_fract_x
_atom_site_fract_y
_atom_site_fract_z
_atom_site_occupancy
_atom_site_U_iso_or_equiv
O2 O-2 0 0.346 0.292 1 0.0
O1 O-2 0.363 0 0 1 0.0
Sb1 Sb+5 0.8421 0 0.5 1 0.0
K2 K+1 0.1582 0.1582 0.1582 0.66 0.0
K1 K+1 0.25 0.25 0.25 0.32 0.0
F1 F-1 0 0 0 1 0.0
