#------------------------------------------------------------------------------
#$Date: 2016-02-13 21:28:24 +0200 (Sat, 13 Feb 2016) $
#$Revision: 176429 $
#$URL: svn://www.crystallography.net/cod/cif/1/53/11/1531180.cif $
#------------------------------------------------------------------------------
#
# This file is available in the Crystallography Open Database (COD),
# http://www.crystallography.net/
#
# All data on this site have been placed in the public domain by the
# contributors.
#
data_1531180
loop_
_publ_author_name
'Bertheville, B.'
'Fischer, P.'
'Yvon, K.'
_publ_section_title
;
 High-pressure synthesis and crystal structures of new ternary cesium
 magnesium hydrides, Cs Mg H3, Cs4 Mg3 H10 and Cs2 Mg H4
;
_journal_name_full               'Journal of Alloys Compd.'
_journal_page_first              152
_journal_page_last               156
_journal_volume                  330
_journal_year                    2002
_chemical_formula_sum            'Cs2 D4 Mg'
_chemical_name_systematic        'Cs2 Mg D4'
_space_group_IT_number           139
_symmetry_space_group_name_Hall  '-I 4 2'
_symmetry_space_group_name_H-M   'I 4/m m m'
_cell_angle_alpha                90
_cell_angle_beta                 90
_cell_angle_gamma                90
_cell_formula_units_Z            2
_cell_length_a                   4.3135
_cell_length_b                   4.3135
_cell_length_c                   14.726
_cell_volume                     273.996
_citation_journal_id_ASTM        JALCEU
_cod_data_source_file            Bertheville_JALCEU_2002_360.cif
_cod_data_source_block           D4Cs2Mg1
_cod_original_cell_volume        273.9961
_cod_original_formula_sum        'D4 Cs2 Mg1'
_cod_database_code               1531180
loop_
_symmetry_equiv_pos_as_xyz
x,y,z
-y,x,z
-x,-y,z
y,-x,z
x,-y,-z
y,x,-z
-x,y,-z
-y,-x,-z
-x,-y,-z
y,-x,-z
x,y,-z
-y,x,-z
-x,y,z
-y,-x,z
x,-y,z
y,x,z
x+1/2,y+1/2,z+1/2
-y+1/2,x+1/2,z+1/2
-x+1/2,-y+1/2,z+1/2
y+1/2,-x+1/2,z+1/2
x+1/2,-y+1/2,-z+1/2
y+1/2,x+1/2,-z+1/2
-x+1/2,y+1/2,-z+1/2
-y+1/2,-x+1/2,-z+1/2
-x+1/2,-y+1/2,-z+1/2
y+1/2,-x+1/2,-z+1/2
x+1/2,y+1/2,-z+1/2
-y+1/2,x+1/2,-z+1/2
-x+1/2,y+1/2,z+1/2
-y+1/2,-x+1/2,z+1/2
x+1/2,-y+1/2,z+1/2
y+1/2,x+1/2,z+1/2
loop_
_atom_site_label
_atom_site_type_symbol
_atom_site_fract_x
_atom_site_fract_y
_atom_site_fract_z
_atom_site_occupancy
_atom_site_U_iso_or_equiv
Cs1 Cs+1 0 0 0.358 1 0.0
D2 D-1 0 0.5 0 1 0.0
Mg1 Mg+2 0 0 0 1 0.0
D1 D-1 0 0 0.137 1 0.0
