#------------------------------------------------------------------------------
#$Date: 2015-09-18 02:43:42 +0300 (Fri, 18 Sep 2015) $
#$Revision: 157428 $
#$URL: svn://www.crystallography.net/cod/cif/1/53/18/1531848.cif $
#------------------------------------------------------------------------------
#
# This file is available in the Crystallography Open Database (COD),
# http://www.crystallography.net/
#
# All data on this site have been placed in the public domain by the
# contributors.
#
data_1531848
loop_
_publ_author_name
'Morozkin, A.V.'
'Welter, R.'
_publ_section_title
;
 New (Sc2 Re3 Si4)-type R2 Ti3 Si4 compounds and their magnetic properties
 (R = Gd - Er)
;
_journal_name_full               'Journal of Alloys Compd.'
_journal_page_first              L1
_journal_page_last               L3
_journal_volume                  348
_journal_year                    2003
_chemical_formula_sum            'Er2 Si4 Ti3'
_chemical_name_systematic        'Er2 Ti3 Si4'
_space_group_IT_number           92
_symmetry_space_group_name_Hall  'P 4abw 2nw'
_symmetry_space_group_name_H-M   'P 41 21 2'
_cell_angle_alpha                90
_cell_angle_beta                 90
_cell_angle_gamma                90
_cell_formula_units_Z            4
_cell_length_a                   6.964
_cell_length_b                   6.964
_cell_length_c                   12.776
_cell_volume                     619.601
_citation_journal_id_ASTM        JALCEU
_cod_data_source_file            Morozkin_JALCEU_2003_1283.cif
_cod_data_source_block           Er2Si4Ti3
_cod_original_cell_volume        619.6015
_cod_database_code               1531848
loop_
_symmetry_equiv_pos_as_xyz
x,y,z
-y+1/2,x+1/2,z+1/4
-x,-y,z+1/2
y+1/2,-x+1/2,z+3/4
x+1/2,-y+1/2,-z+3/4
y,x,-z
-x+1/2,y+1/2,-z+1/4
-y,-x,-z+1/2
loop_
_atom_site_label
_atom_site_type_symbol
_atom_site_fract_x
_atom_site_fract_y
_atom_site_fract_z
_atom_site_occupancy
_atom_site_U_iso_or_equiv
Ti2 Ti 0.154 -0.006 0.875 1 0.0
Er1 Er 0.341 0.008 0.4678 1 0.0
Si2 Si 0.278 0.959 0.061 1 0.0
Ti1 Ti 0.331 0.331 0 1 0.0
Si1 Si 0.201 0.141 0.678 1 0.0
