#------------------------------------------------------------------------------
#$Date: 2016-02-13 21:28:24 +0200 (Sat, 13 Feb 2016) $
#$Revision: 176429 $
#$URL: svn://www.crystallography.net/cod/cif/1/53/10/1531098.cif $
#------------------------------------------------------------------------------
#
# This file is available in the Crystallography Open Database (COD),
# http://www.crystallography.net/
#
# All data on this site have been placed in the public domain by the
# contributors.
#
data_1531098
loop_
_publ_author_name
'Avdeev, M.'
'Kharton, V.'
_publ_section_title
;
 Crystal structure of rhombohedral M Cd (N O2)3 (M = K, Rb, Cs, Tl) from
 X-ray powder diffraction data
;
_journal_name_full               'Materials Research Bulletin'
_journal_page_first              735
_journal_page_last               743
_journal_volume                  37
_journal_year                    2002
_chemical_formula_sum            'Cd K N3 O6'
_chemical_name_systematic        'K Cd (N O2)3'
_space_group_IT_number           146
_symmetry_space_group_name_Hall  'R 3'
_symmetry_space_group_name_H-M   'R 3 :H'
_cell_angle_alpha                90
_cell_angle_beta                 90
_cell_angle_gamma                120
_cell_formula_units_Z            3
_cell_length_a                   7.5887
_cell_length_b                   7.5887
_cell_length_c                   9.1285
_cell_volume                     455.266
_citation_journal_id_ASTM        MRBUAC
_cod_data_source_file            Avdeev_MRBUAC_2002_790.cif
_cod_data_source_block           Cd1K1N3O6
_cod_original_cell_volume        455.2656
_cod_original_formula_sum        'Cd1 K1 N3 O6'
_cod_database_code               1531098
loop_
_symmetry_equiv_pos_as_xyz
x,y,z
-y,x-y,z
-x+y,-x,z
x+2/3,y+1/3,z+1/3
-y+2/3,x-y+1/3,z+1/3
-x+y+2/3,-x+1/3,z+1/3
x+1/3,y+2/3,z+2/3
-y+1/3,x-y+2/3,z+2/3
-x+y+1/3,-x+2/3,z+2/3
loop_
_atom_site_label
_atom_site_type_symbol
_atom_site_fract_x
_atom_site_fract_y
_atom_site_fract_z
_atom_site_occupancy
_atom_site_U_iso_or_equiv
K1 K+1 0.6667 0.3333 -0.0271 1 0.0
Cd1 Cd+2 0.6667 0.3333 0.4429 1 0.0
O2 O-2 0.3365 -0.0904 0.591 1 0.0
N1 N+3 0.5038 0.0576 0.6207 1 0.0
O1 O-2 0.5987 0.0399 0.7245 1 0.0
