#------------------------------------------------------------------------------
#$Date: 2016-02-13 21:28:24 +0200 (Sat, 13 Feb 2016) $
#$Revision: 176429 $
#$URL: svn://www.crystallography.net/cod/cif/1/53/24/1532439.cif $
#------------------------------------------------------------------------------
#
# This file is available in the Crystallography Open Database (COD),
# http://www.crystallography.net/
#
# All data on this site have been placed in the public domain by the
# contributors.
#
data_1532439
loop_
_publ_author_name
'Zheng, C.'
'Simon, A.'
'Mattausch, H.J.'
_publ_section_title
;
 La5 M3 X (M = Sn, Bi; X = Cl, Br, I): exploring the limit of the (Mn5
 Si3)-type hosting lattice
;
_journal_name_full               'Journal of Alloys Compd.'
_journal_page_first              79
_journal_page_last               85
_journal_volume                  347
_journal_year                    2002
_chemical_formula_sum            'I La5 Sn3'
_chemical_name_systematic        'La5 Sn3 I'
_space_group_IT_number           193
_symmetry_space_group_name_Hall  '-P 6c 2'
_symmetry_space_group_name_H-M   'P 63/m c m'
_cell_angle_alpha                90
_cell_angle_beta                 90
_cell_angle_gamma                120
_cell_formula_units_Z            2
_cell_length_a                   9.673
_cell_length_b                   9.673
_cell_length_c                   6.987
_cell_volume                     566.166
_citation_journal_id_ASTM        JALCEU
_cod_data_source_file            Zheng_JALCEU_2002_595.cif
_cod_data_source_block           I1La5Sn3
_cod_original_formula_sum        'I1 La5 Sn3'
_cod_database_code               1532439
loop_
_symmetry_equiv_pos_as_xyz
x,y,z
x-y,x,z+1/2
-y,x-y,z
-x,-y,z+1/2
-x+y,-x,z
y,-x+y,z+1/2
-y,-x,-z
x-y,-y,-z+1/2
x,x-y,-z
y,x,-z+1/2
-x+y,y,-z
-x,-x+y,-z+1/2
-x,-y,-z
-x+y,-x,-z-1/2
y,-x+y,-z
x,y,-z-1/2
x-y,x,-z
-y,x-y,-z-1/2
y,x,z
-x+y,y,z-1/2
-x,-x+y,z
-y,-x,z-1/2
x-y,-y,z
x,x-y,z-1/2
loop_
_atom_site_label
_atom_site_type_symbol
_atom_site_fract_x
_atom_site_fract_y
_atom_site_fract_z
_atom_site_occupancy
_atom_site_U_iso_or_equiv
Sn1 Sn 0.3851 0.3851 0.25 1 0.0
La2 La 0.3333 0.6667 0 1 0.0
I1 I 0 0 0 1 0.0
La1 La 0.2708 0 0.25 1 0.0
