#------------------------------------------------------------------------------
#$Date: 2015-09-28 16:07:15 +0300 (Mon, 28 Sep 2015) $
#$Revision: 158629 $
#$URL: svn://www.crystallography.net/cod/cif/1/53/26/1532674.cif $
#------------------------------------------------------------------------------
#
# This file is available in the Crystallography Open Database (COD),
# http://www.crystallography.net/
#
# All data on this site have been placed in the public domain by the
# contributors.
#
data_1532674
loop_
_publ_author_name
'Wawrzynska, E.'
'Hernandez-Velasco, J.'
'Penc, B.'
'Zygmunt, A.'
'Szytula, A.'
_publ_section_title
;
 Magnetic structures of R3 Cu4 Ge4 (R = Tb, Dy, Ho, Er)
;
_journal_name_full               'Journal of Magnetism and Magnetic Materials'
_journal_page_first              192
_journal_page_last               201
_journal_volume                  264
_journal_year                    2003
_chemical_formula_sum            'Cu4 Ge4 Tb3'
_chemical_name_systematic        'Tb3 Cu4 Ge4'
_space_group_IT_number           71
_symmetry_space_group_name_Hall  '-I 2 2'
_symmetry_space_group_name_H-M   'I m m m'
_cell_angle_alpha                90
_cell_angle_beta                 90
_cell_angle_gamma                90
_cell_formula_units_Z            2
_cell_length_a                   13.934
_cell_length_b                   6.6358
_cell_length_c                   4.1981
_cell_volume                     388.170
_citation_journal_id_ASTM        JMMMDC
_cod_data_source_file            Wawrzynska_JMMMDC_2003_829.cif
_cod_data_source_block           Cu4Ge4Tb3
_cod_original_cell_volume        388.1699
_cod_database_code               1532674
loop_
_symmetry_equiv_pos_as_xyz
x,y,z
-x,-y,z
x,-y,-z
-x,y,-z
-x,-y,-z
x,y,-z
-x,y,z
x,-y,z
x+1/2,y+1/2,z+1/2
-x+1/2,-y+1/2,z+1/2
x+1/2,-y+1/2,-z+1/2
-x+1/2,y+1/2,-z+1/2
-x+1/2,-y+1/2,-z+1/2
x+1/2,y+1/2,-z+1/2
-x+1/2,y+1/2,z+1/2
x+1/2,-y+1/2,z+1/2
loop_
_atom_site_label
_atom_site_type_symbol
_atom_site_fract_x
_atom_site_fract_y
_atom_site_fract_z
_atom_site_occupancy
_atom_site_U_iso_or_equiv
Tb2 Tb 0.1309 0 0 1 0.0
Tb1 Tb 0.5 0 0.5 1 0.0
Ge1 Ge 0.2158 0.5 0 1 0.0
Cu1 Cu 0.3294 0.187 0 1 0.0
Ge2 Ge 0 0.193 0.5 1 0.0
