#------------------------------------------------------------------------------
#$Date: 2016-02-13 21:28:24 +0200 (Sat, 13 Feb 2016) $
#$Revision: 176429 $
#$URL: svn://www.crystallography.net/cod/cif/1/53/22/1532234.cif $
#------------------------------------------------------------------------------
#
# This file is available in the Crystallography Open Database (COD),
# http://www.crystallography.net/
#
# All data on this site have been placed in the public domain by the
# contributors.
#
data_1532234
loop_
_publ_author_name
'Seifert, H.J.'
'Dau, E.'
_publ_section_title
;
 Ueber die Systeme Alkalimetallbromid/Mangan(II)-bromid
;
_journal_name_full
'Zeitschrift fuer Anorganische und Allgemeine Chemie'
_journal_page_first              302
_journal_page_last               312
_journal_volume                  391
_journal_year                    1972
_chemical_formula_sum            'Br3 Mn Rb'
_chemical_name_systematic        'Rb (Mn Br3)'
_space_group_IT_number           194
_symmetry_space_group_name_Hall  '-P 6c 2c'
_symmetry_space_group_name_H-M   'P 63/m m c'
_cell_angle_alpha                90
_cell_angle_beta                 90
_cell_angle_gamma                120
_cell_formula_units_Z            2
_cell_length_a                   7.462
_cell_length_b                   7.462
_cell_length_c                   6.543
_cell_volume                     315.514
_citation_journal_id_ASTM        ZAACAB
_cod_data_source_file            Seifert_ZAACAB_1972_1918.cif
_cod_data_source_block           Br3Mn1Rb1
_cod_original_cell_volume        315.5136
_cod_original_formula_sum        'Br3 Mn1 Rb1'
_cod_database_code               1532234
loop_
_symmetry_equiv_pos_as_xyz
x,y,z
x-y,x,z+1/2
-y,x-y,z
-x,-y,z+1/2
-x+y,-x,z
y,-x+y,z+1/2
-y,-x,-z+1/2
x-y,-y,-z
x,x-y,-z+1/2
y,x,-z
-x+y,y,-z+1/2
-x,-x+y,-z
-x,-y,-z
-x+y,-x,-z-1/2
y,-x+y,-z
x,y,-z-1/2
x-y,x,-z
-y,x-y,-z-1/2
y,x,z-1/2
-x+y,y,z
-x,-x+y,z-1/2
-y,-x,z
x-y,-y,z-1/2
x,x-y,z
loop_
_atom_site_label
_atom_site_type_symbol
_atom_site_fract_x
_atom_site_fract_y
_atom_site_fract_z
_atom_site_occupancy
_atom_site_U_iso_or_equiv
Rb1 Rb+1 0.3333 0.6667 0.75 1 0.0
Br1 Br-1 0.16 0.32 0.25 1 0.0
Mn1 Mn+2 0 0 0 1 0.0
