#------------------------------------------------------------------------------
#$Date: 2016-02-13 21:28:24 +0200 (Sat, 13 Feb 2016) $
#$Revision: 176429 $
#$URL: svn://www.crystallography.net/cod/cif/1/53/20/1532071.cif $
#------------------------------------------------------------------------------
#
# This file is available in the Crystallography Open Database (COD),
# http://www.crystallography.net/
#
# All data on this site have been placed in the public domain by the
# contributors.
#
data_1532071
loop_
_publ_author_name
'Ramirez, R.'
'Mujica, C.'
'Llanos, J.'
'Buljan, A.'
_publ_section_title
;
 A family of new compounds derived from chalcopyrite. Common patterns in
 their electronic and crystal structures
;
_journal_name_full               'Boletin de la Sociedad Chilena de Quimica'
_journal_page_first              235
_journal_page_last               245
_journal_volume                  46
_journal_year                    2001
_chemical_formula_sum            'Cu Fe K S2'
_chemical_name_systematic        'K Cu Fe S2'
_space_group_IT_number           139
_symmetry_space_group_name_Hall  '-I 4 2'
_symmetry_space_group_name_H-M   'I 4/m m m'
_cell_angle_alpha                90
_cell_angle_beta                 90
_cell_angle_gamma                90
_cell_formula_units_Z            2
_cell_length_a                   3.837
_cell_length_b                   3.837
_cell_length_c                   13.384
_cell_volume                     197.047
_citation_journal_id_ASTM        BOCQAX
_cod_data_source_file            Ramirez_BOCQAX_2001_128.cif
_cod_data_source_block           Cu1Fe1K1S2
_cod_original_cell_volume        197.0468
_cod_original_formula_sum        'Cu1 Fe1 K1 S2'
_cod_database_code               1532071
loop_
_symmetry_equiv_pos_as_xyz
x,y,z
-y,x,z
-x,-y,z
y,-x,z
x,-y,-z
y,x,-z
-x,y,-z
-y,-x,-z
-x,-y,-z
y,-x,-z
x,y,-z
-y,x,-z
-x,y,z
-y,-x,z
x,-y,z
y,x,z
x+1/2,y+1/2,z+1/2
-y+1/2,x+1/2,z+1/2
-x+1/2,-y+1/2,z+1/2
y+1/2,-x+1/2,z+1/2
x+1/2,-y+1/2,-z+1/2
y+1/2,x+1/2,-z+1/2
-x+1/2,y+1/2,-z+1/2
-y+1/2,-x+1/2,-z+1/2
-x+1/2,-y+1/2,-z+1/2
y+1/2,-x+1/2,-z+1/2
x+1/2,y+1/2,-z+1/2
-y+1/2,x+1/2,-z+1/2
-x+1/2,y+1/2,z+1/2
-y+1/2,-x+1/2,z+1/2
x+1/2,-y+1/2,z+1/2
y+1/2,x+1/2,z+1/2
loop_
_atom_site_label
_atom_site_type_symbol
_atom_site_fract_x
_atom_site_fract_y
_atom_site_fract_z
_atom_site_occupancy
_atom_site_U_iso_or_equiv
Fe1 Fe+2 0 0.5 0.25 0.5 0.0
S1 S-2 0 0 0.3333 1 0.0
Cu1 Cu+1 0 0.5 0.25 0.5 0.0
K1 K+1 0 0 0 1 0.0
