#------------------------------------------------------------------------------
#$Date: 2016-02-13 21:28:24 +0200 (Sat, 13 Feb 2016) $
#$Revision: 176429 $
#$URL: svn://www.crystallography.net/cod/cif/1/53/25/1532541.cif $
#------------------------------------------------------------------------------
#
# This file is available in the Crystallography Open Database (COD),
# http://www.crystallography.net/
#
# All data on this site have been placed in the public domain by the
# contributors.
#
data_1532541
loop_
_publ_author_name
'Huang Fuqiang'
'Somers, R.C.'
'McFarland, A.D.'
'van Duyne, R.P.'
'Ibers, J.A.'
_publ_section_title
;
 Syntheses, structures, optical properties and theoretical calculations of
 Cs2 Bi2 Zn S5, Cs2 Bi2 Cd S5 and Cs2 Bi2 Mn S5
;
_journal_name_full               'Journal of Solid State Chemistry'
_journal_page_first              334
_journal_page_last               341
_journal_volume                  174
_journal_year                    2003
_chemical_formula_sum            'Bi2 Cs2 S5 Zn'
_chemical_name_systematic        'Cs2 Bi2 Zn S5'
_space_group_IT_number           62
_symmetry_space_group_name_Hall  '-P 2ac 2n'
_symmetry_space_group_name_H-M   'P n m a'
_cell_angle_alpha                90
_cell_angle_beta                 90
_cell_angle_gamma                90
_cell_formula_units_Z            4
_cell_length_a                   15.763
_cell_length_b                   4.0965
_cell_length_c                   18.197
_cell_volume                     1175.037
_citation_journal_id_ASTM        JSSCBI
_cod_data_source_file            HuangFuqiang_JSSCBI_2003_136.cif
_cod_data_source_block           Bi2Cs2S5Zn1
_cod_original_formula_sum        'Bi2 Cs2 S5 Zn1'
_cod_database_code               1532541
loop_
_symmetry_equiv_pos_as_xyz
x,y,z
-x+1/2,-y,z+1/2
x+1/2,-y+1/2,-z+1/2
-x,y+1/2,-z
-x,-y,-z
x-1/2,y,-z-1/2
-x-1/2,y-1/2,z-1/2
x,-y-1/2,z
loop_
_atom_site_label
_atom_site_type_symbol
_atom_site_fract_x
_atom_site_fract_y
_atom_site_fract_z
_atom_site_occupancy
_atom_site_U_iso_or_equiv
S2 S-2 0.1402 0.25 0.4718 1 0.0
S3 S-2 0.214 0.25 0.8438 1 0.0
S4 S-2 0.3189 0.25 0.1481 1 0.0
Zn1 Zn+2 0.2061 0.25 0.35545 1 0.0
S1 S-2 0.1063 0.25 0.2571 1 0.0
S5 S-2 0.3684 0.25 0.5627 1 0.0
Cs2 Cs+1 0.46014 0.25 0.38123 1 0.0
Bi2 Bi+3 0.29337 0.25 0.69783 1 0.0
Bi1 Bi+3 0.25125 0.25 0.0173 1 0.0
Cs1 Cs+1 0.00651 0.25 0.62205 1 0.0
