#------------------------------------------------------------------------------
#$Date: 2018-09-27 07:13:35 +0300 (Thu, 27 Sep 2018) $
#$Revision: 211196 $
#$URL: file:///home/coder/svn-repositories/cod/cif/1/53/21/1532174.cif $
#------------------------------------------------------------------------------
#
# This file is available in the Crystallography Open Database (COD),
# http://www.crystallography.net/
#
# All data on this site have been placed in the public domain by the
# contributors.
#
data_1532174
loop_
_publ_author_name
'Schleid, T.'
'Grossholz, H.'
_publ_section_title
;
 Ueber Fluoridsulfide (M F S) der Lanthanide (M = La - Nd, Gd - Lu) im
 A-Typ mit (Pb F Cl)-Struktur
;
_journal_name_full
'Zeitschrift fuer Anorganische und Allgemeine Chemie'
_journal_page_first              2693
_journal_page_last               2699
_journal_volume                  627
_journal_year                    2001
_chemical_formula_sum            'Er F S'
_space_group_IT_number           129
_symmetry_space_group_name_Hall  '-P 4a 2a'
_symmetry_space_group_name_H-M   'P 4/n m m :2'
_cell_angle_alpha                90
_cell_angle_beta                 90
_cell_angle_gamma                90
_cell_formula_units_Z            2
_cell_length_a                   3.7461
_cell_length_b                   3.7461
_cell_length_c                   6.8134
_cell_volume                     95.614
_citation_journal_id_ASTM        ZAACAB
_cod_data_source_file            Schleid_ZAACAB_2001_60.cif
_cod_data_source_block           Er1F1S1
_cod_original_cell_volume        95.61424
_cod_original_formula_sum        'Er1 F1 S1'
_cod_database_code               1532174
loop_
_symmetry_equiv_pos_as_xyz
x,y,z
-y+1/2,x,z
-x+1/2,-y+1/2,z
y,-x+1/2,z
x+1/2,-y,-z
y+1/2,x+1/2,-z
-x,y+1/2,-z
-y,-x,-z
-x,-y,-z
y-1/2,-x,-z
x-1/2,y-1/2,-z
-y,x-1/2,-z
-x-1/2,y,z
-y-1/2,-x-1/2,z
x,-y-1/2,z
y,x,z
loop_
_atom_site_label
_atom_site_type_symbol
_atom_site_fract_x
_atom_site_fract_y
_atom_site_fract_z
_atom_site_occupancy
_atom_site_U_iso_or_equiv
F1 F-1 0.75 0.25 0 1 0.0
S1 S-2 0.25 0.25 0.6449 1 0.0
Er1 Er+3 0.25 0.25 0.22864 1 0.0
