#------------------------------------------------------------------------------
#$Date: 2016-02-13 21:28:24 +0200 (Sat, 13 Feb 2016) $
#$Revision: 176429 $
#$URL: svn://www.crystallography.net/cod/cif/1/53/20/1532032.cif $
#------------------------------------------------------------------------------
#
# This file is available in the Crystallography Open Database (COD),
# http://www.crystallography.net/
#
# All data on this site have been placed in the public domain by the
# contributors.
#
data_1532032
loop_
_publ_author_name
'Parasyuk, O.V.'
'Olekseyuk, I.D.'
'Gulay, L.D.'
'Romanyuk, Ya.E.'
_publ_section_title
;
 Phase diagram of the quasi-binary (Cu2 Ge S3) - (Hg S) system and crystal
 structure of the LT-modification of the Cu2 Hg Ge S4 compound
;
_journal_name_full               'Journal of Alloys Compd.'
_journal_page_first              143
_journal_page_last               146
_journal_volume                  334
_journal_year                    2002
_chemical_formula_sum            'Cu2 Ge Hg S4'
_chemical_name_systematic        'Cu2 Hg Ge S4'
_space_group_IT_number           121
_symmetry_space_group_name_Hall  'I -4 2'
_symmetry_space_group_name_H-M   'I -4 2 m'
_cell_angle_alpha                90
_cell_angle_beta                 90
_cell_angle_gamma                90
_cell_formula_units_Z            2
_cell_length_a                   5.4873
_cell_length_b                   5.4873
_cell_length_c                   10.5423
_cell_volume                     317.434
_citation_journal_id_ASTM        JALCEU
_cod_data_source_file            Parasyuk_JALCEU_2002_401.cif
_cod_data_source_block           Cu2Ge1Hg1S4
_cod_original_cell_volume        317.4335
_cod_original_formula_sum        'Cu2 Ge1 Hg1 S4'
_cod_database_code               1532032
loop_
_symmetry_equiv_pos_as_xyz
x,y,z
y,-x,-z
-x,-y,z
-y,x,-z
x,-y,-z
-y,-x,z
-x,y,-z
y,x,z
x+1/2,y+1/2,z+1/2
y+1/2,-x+1/2,-z+1/2
-x+1/2,-y+1/2,z+1/2
-y+1/2,x+1/2,-z+1/2
x+1/2,-y+1/2,-z+1/2
-y+1/2,-x+1/2,z+1/2
-x+1/2,y+1/2,-z+1/2
y+1/2,x+1/2,z+1/2
loop_
_atom_site_label
_atom_site_type_symbol
_atom_site_fract_x
_atom_site_fract_y
_atom_site_fract_z
_atom_site_occupancy
_atom_site_U_iso_or_equiv
S1 S-2 0.2679 0.2679 0.1321 1 0.0
Ge1 Ge+4 0 0 0.5 1 0.0
Hg1 Hg+2 0 0 0 1 0.0
Cu1 Cu+1 0 0.5 0.25 1 0.0
