#------------------------------------------------------------------------------
#$Date: 2016-02-13 21:28:24 +0200 (Sat, 13 Feb 2016) $
#$Revision: 176429 $
#$URL: svn://www.crystallography.net/cod/cif/1/53/28/1532872.cif $
#------------------------------------------------------------------------------
#
# This file is available in the Crystallography Open Database (COD),
# http://www.crystallography.net/
#
# All data on this site have been placed in the public domain by the
# contributors.
#
data_1532872
loop_
_publ_author_name
'Melnyk, G.'
'Kandpal, H.C.'
'Gulay, L.D.'
'Tremel, W.'
_publ_section_title
;
 Crystal structures of R2 Pd2 Pb (R = Y, La, Ce, Pr, Nd, Sm, Gd, Tb,Dy,
 Ho, Er, Tm and Lu) compounds
;
_journal_name_full               'Journal of Alloys Compd.'
_journal_page_first              217
_journal_page_last               222
_journal_volume                  370
_journal_year                    2004
_chemical_formula_sum            'Pb Pd2 Pr2'
_chemical_name_systematic        'Pr2 Pd2 Pb'
_space_group_IT_number           127
_symmetry_space_group_name_Hall  '-P 4 2ab'
_symmetry_space_group_name_H-M   'P 4/m b m'
_cell_angle_alpha                90
_cell_angle_beta                 90
_cell_angle_gamma                90
_cell_formula_units_Z            2
_cell_length_a                   7.8775
_cell_length_b                   7.8775
_cell_length_c                   3.8362
_cell_volume                     238.055
_citation_journal_id_ASTM        JALCEU
_cod_data_source_file            Melnyk_JALCEU_2004_1453.cif
_cod_data_source_block           Pb1Pd2Pr2
_cod_original_cell_volume        238.0554
_cod_original_formula_sum        'Pb1 Pd2 Pr2'
_cod_database_code               1532872
loop_
_symmetry_equiv_pos_as_xyz
x,y,z
-y,x,z
-x,-y,z
y,-x,z
x+1/2,-y+1/2,-z
y+1/2,x+1/2,-z
-x+1/2,y+1/2,-z
-y+1/2,-x+1/2,-z
-x,-y,-z
y,-x,-z
x,y,-z
-y,x,-z
-x-1/2,y-1/2,z
-y-1/2,-x-1/2,z
x-1/2,-y-1/2,z
y-1/2,x-1/2,z
loop_
_atom_site_label
_atom_site_type_symbol
_atom_site_fract_x
_atom_site_fract_y
_atom_site_fract_z
_atom_site_occupancy
_atom_site_U_iso_or_equiv
Pb1 Pb 0 0 0 1 0.0
Pd1 Pd 0.377 0.877 0 1 0.0
Pr1 Pr 0.1763 0.6763 0.5 1 0.0
