#------------------------------------------------------------------------------
#$Date: 2016-02-13 21:28:24 +0200 (Sat, 13 Feb 2016) $
#$Revision: 176429 $
#$URL: svn://www.crystallography.net/cod/cif/1/53/24/1532436.cif $
#------------------------------------------------------------------------------
#
# This file is available in the Crystallography Open Database (COD),
# http://www.crystallography.net/
#
# All data on this site have been placed in the public domain by the
# contributors.
#
data_1532436
loop_
_publ_author_name
'Zheng, C.'
'Mattausch, H.J.'
'Simon, A.'
_publ_section_title
;
 Reduced lanthanum halides with Ga as interstitials: La10 Cl4 Ga5, La10
 Br4 Ga5 and La3 Br3 Ga
;
_journal_name_full               'Journal of Alloys Compd.'
_journal_page_first              165
_journal_page_last               172
_journal_volume                  338
_journal_year                    2002
_chemical_formula_sum            'Br3 Ga La3'
_chemical_name_systematic        'La3 Ga Br3'
_space_group_IT_number           221
_symmetry_space_group_name_Hall  '-P 4 2 3'
_symmetry_space_group_name_H-M   'P m -3 m'
_cell_angle_alpha                90
_cell_angle_beta                 90
_cell_angle_gamma                90
_cell_formula_units_Z            1
_cell_length_a                   6.075
_cell_length_b                   6.075
_cell_length_c                   6.075
_cell_volume                     224.202
_citation_journal_id_ASTM        JALCEU
_cod_data_source_file            Zheng_JALCEU_2002_468.cif
_cod_data_source_block           Br3Ga1La3
_cod_original_cell_volume        224.2016
_cod_original_formula_sum        'Br3 Ga1 La3'
_cod_database_code               1532436
loop_
_symmetry_equiv_pos_as_xyz
x,y,z
-y,x,z
-x,-y,z
y,-x,z
x,-y,-z
y,x,-z
-x,y,-z
-y,-x,-z
z,x,y
-x,z,y
-z,-x,y
x,-z,y
z,-x,-y
x,z,-y
-z,x,-y
-x,-z,-y
y,z,x
y,-z,-x
z,y,-x
-y,z,-x
-z,-y,-x
-y,-z,x
z,-y,x
-z,y,x
-x,-y,-z
y,-x,-z
x,y,-z
-y,x,-z
-x,y,z
-y,-x,z
x,-y,z
y,x,z
-z,-x,-y
x,-z,-y
z,x,-y
-x,z,-y
-z,x,y
-x,-z,y
z,-x,y
x,z,y
-y,-z,-x
-y,z,x
-z,-y,x
y,-z,x
z,y,x
y,z,-x
-z,y,-x
z,-y,-x
loop_
_atom_site_label
_atom_site_type_symbol
_atom_site_fract_x
_atom_site_fract_y
_atom_site_fract_z
_atom_site_occupancy
_atom_site_U_iso_or_equiv
La1 La 0.5 0.5 0 1 0.0
Br1 Br 0.5 0 0 1 0.0
Ga1 Ga 0.5 0.5 0.5 1 0.0
