#------------------------------------------------------------------------------
#$Date: 2016-02-13 21:28:24 +0200 (Sat, 13 Feb 2016) $
#$Revision: 176429 $
#$URL: svn://www.crystallography.net/cod/cif/1/53/25/1532599.cif $
#------------------------------------------------------------------------------
#
# This file is available in the Crystallography Open Database (COD),
# http://www.crystallography.net/
#
# All data on this site have been placed in the public domain by the
# contributors.
#
data_1532599
loop_
_publ_author_name
'Ivanova, T.I.'
'Nikitin, S.A.'
'Morozkin, A.V.'
'Warchulska, J.'
'Ovchenkova, I.A.'
'Bogdanov, A.E.'
'Suski, W.'
'Gilewski, A.'
_publ_section_title
;
 A magnetic study of (TiNiSi)-type Gd Mn1-x Tix Ge alloys
;
_journal_name_full               'Journal of Alloys Compd.'
_journal_page_first              15
_journal_page_last               20
_journal_volume                  365
_journal_year                    2004
_chemical_formula_sum            'Gd Ge Mn'
_chemical_name_systematic        'Gd Mn Ge'
_space_group_IT_number           62
_symmetry_space_group_name_Hall  '-P 2ac 2n'
_symmetry_space_group_name_H-M   'P n m a'
_cell_angle_alpha                90
_cell_angle_beta                 90
_cell_angle_gamma                90
_cell_formula_units_Z            4
_cell_length_a                   7.123
_cell_length_b                   4.162
_cell_length_c                   8.18
_cell_volume                     242.504
_citation_journal_id_ASTM        JALCEU
_cod_data_source_file            Ivanova_JALCEU_2004_1361.cif
_cod_data_source_block           Gd1Ge1Mn1
_cod_original_cell_volume        242.5037
_cod_original_formula_sum        'Gd1 Ge1 Mn1'
_cod_database_code               1532599
loop_
_symmetry_equiv_pos_as_xyz
x,y,z
-x+1/2,-y,z+1/2
x+1/2,-y+1/2,-z+1/2
-x,y+1/2,-z
-x,-y,-z
x-1/2,y,-z-1/2
-x-1/2,y-1/2,z-1/2
x,-y-1/2,z
loop_
_atom_site_label
_atom_site_type_symbol
_atom_site_fract_x
_atom_site_fract_y
_atom_site_fract_z
_atom_site_occupancy
_atom_site_U_iso_or_equiv
Gd1 Gd 0.523 0.25 0.322 1 0.0
Ge1 Ge 0.768 0.25 0.624 1 0.0
Mn1 Mn 0.145 0.25 0.562 1 0.0
