#------------------------------------------------------------------------------
#$Date: 2016-02-13 21:28:24 +0200 (Sat, 13 Feb 2016) $
#$Revision: 176429 $
#$URL: svn://www.crystallography.net/cod/cif/1/53/21/1532167.cif $
#------------------------------------------------------------------------------
#
# This file is available in the Crystallography Open Database (COD),
# http://www.crystallography.net/
#
# All data on this site have been placed in the public domain by the
# contributors.
#
data_1532167
loop_
_publ_author_name
'Schleid, T.'
'Grossholz, H.'
_publ_section_title
;
 Ueber Fluoridsulfide (M F S) der Lanthanide (M = La - Nd, Gd - Lu) im
 A-Typ mit (Pb F Cl)-Struktur
;
_journal_name_full
'Zeitschrift fuer Anorganische und Allgemeine Chemie'
_journal_page_first              2693
_journal_page_last               2699
_journal_volume                  627
_journal_year                    2001
_chemical_formula_sum            'F S Sm'
_chemical_name_systematic        'Sm F S'
_space_group_IT_number           129
_symmetry_space_group_name_Hall  '-P 4a 2a'
_symmetry_space_group_name_H-M   'P 4/n m m :2'
_cell_angle_alpha                90
_cell_angle_beta                 90
_cell_angle_gamma                90
_cell_formula_units_Z            2
_cell_length_a                   3.8836
_cell_length_b                   3.8836
_cell_length_c                   6.8795
_cell_volume                     103.759
_citation_journal_id_ASTM        ZAACAB
_cod_data_source_file            Schleid_ZAACAB_2001_57.cif
_cod_data_source_block           F1S1Sm1
_cod_original_formula_sum        'F1 S1 Sm1'
_cod_database_code               1532167
loop_
_symmetry_equiv_pos_as_xyz
x,y,z
-y+1/2,x,z
-x+1/2,-y+1/2,z
y,-x+1/2,z
x+1/2,-y,-z
y+1/2,x+1/2,-z
-x,y+1/2,-z
-y,-x,-z
-x,-y,-z
y-1/2,-x,-z
x-1/2,y-1/2,-z
-y,x-1/2,-z
-x-1/2,y,z
-y-1/2,-x-1/2,z
x,-y-1/2,z
y,x,z
loop_
_atom_site_label
_atom_site_type_symbol
_atom_site_fract_x
_atom_site_fract_y
_atom_site_fract_z
_atom_site_occupancy
_atom_site_U_iso_or_equiv
S1 S-2 0.25 0.25 0.647 1 0.0
F1 F-1 0.75 0.25 0 1 0.0
Sm1 Sm+3 0.25 0.25 0.22943 1 0.0
