#------------------------------------------------------------------------------
#$Date: 2016-02-13 21:28:24 +0200 (Sat, 13 Feb 2016) $
#$Revision: 176429 $
#$URL: svn://www.crystallography.net/cod/cif/1/53/30/1533060.cif $
#------------------------------------------------------------------------------
#
# This file is available in the Crystallography Open Database (COD),
# http://www.crystallography.net/
#
# All data on this site have been placed in the public domain by the
# contributors.
#
data_1533060
loop_
_publ_author_name
'Rizzoli, C.'
'Almeida, M.'
'Sologub, O.L.'
'Salamakha, P.S.'
'Belletti, D.'
'Goncalves, A.P.'
_publ_section_title
;
 X-ray single-crystal investigation of rare earth osmium silicides
;
_journal_name_full               'Journal of Alloys Compd.'
_journal_page_first              217
_journal_page_last               222
_journal_volume                  363
_journal_year                    2004
_chemical_formula_sum            'Ce Os0.8 Ru1.2 Si2'
_chemical_name_systematic        'Ce (Ru0.6 Os0.4)2 Si2'
_space_group_IT_number           139
_symmetry_space_group_name_Hall  '-I 4 2'
_symmetry_space_group_name_H-M   'I 4/m m m'
_cell_angle_alpha                90
_cell_angle_beta                 90
_cell_angle_gamma                90
_cell_formula_units_Z            2
_cell_length_a                   4.173
_cell_length_b                   4.173
_cell_length_c                   9.797
_cell_volume                     170.604
_citation_journal_id_ASTM        JALCEU
_cod_data_source_file            Rizzoli_JALCEU_2004_1336.cif
_cod_data_source_block           Ce1Os0.8Ru1.2Si2
_cod_original_cell_volume        170.6042
_cod_original_formula_sum        'Ce1 Os0.8 Ru1.2 Si2'
_cod_database_code               1533060
loop_
_symmetry_equiv_pos_as_xyz
x,y,z
-y,x,z
-x,-y,z
y,-x,z
x,-y,-z
y,x,-z
-x,y,-z
-y,-x,-z
-x,-y,-z
y,-x,-z
x,y,-z
-y,x,-z
-x,y,z
-y,-x,z
x,-y,z
y,x,z
x+1/2,y+1/2,z+1/2
-y+1/2,x+1/2,z+1/2
-x+1/2,-y+1/2,z+1/2
y+1/2,-x+1/2,z+1/2
x+1/2,-y+1/2,-z+1/2
y+1/2,x+1/2,-z+1/2
-x+1/2,y+1/2,-z+1/2
-y+1/2,-x+1/2,-z+1/2
-x+1/2,-y+1/2,-z+1/2
y+1/2,-x+1/2,-z+1/2
x+1/2,y+1/2,-z+1/2
-y+1/2,x+1/2,-z+1/2
-x+1/2,y+1/2,z+1/2
-y+1/2,-x+1/2,z+1/2
x+1/2,-y+1/2,z+1/2
y+1/2,x+1/2,z+1/2
loop_
_atom_site_label
_atom_site_type_symbol
_atom_site_fract_x
_atom_site_fract_y
_atom_site_fract_z
_atom_site_occupancy
_atom_site_U_iso_or_equiv
Ru1 Ru 0 0.5 0.25 0.6 0.0
Ce1 Ce 0 0 0 1 0.0
Si1 Si 0 0 0.3683 1 0.0
Os1 Os 0 0.5 0.25 0.4 0.0
