#------------------------------------------------------------------------------
#$Date: 2016-02-13 21:28:24 +0200 (Sat, 13 Feb 2016) $
#$Revision: 176429 $
#$URL: svn://www.crystallography.net/cod/cif/1/53/39/1533989.cif $
#------------------------------------------------------------------------------
#
# This file is available in the Crystallography Open Database (COD),
# http://www.crystallography.net/
#
# All data on this site have been placed in the public domain by the
# contributors.
#
data_1533989
loop_
_publ_author_name
'Pavlyuk, V.'
'Marciniak, B.'
'Rozycka-Sokolowska, E.'
'Prochwicz, W.'
'Solokha, P.'
'Dzierzanowski, P.'
_publ_section_title
;
 Structural study of the pseudobinary (Ce Cu5) - (Ce Zn5) system
;
_journal_name_full               'Journal of Alloys Compd.'
_journal_page_first              137
_journal_page_last               141
_journal_volume                  373
_journal_year                    2004
_chemical_formula_sum            'Ce Cu3.5 Zn1.5'
_chemical_name_systematic        'Ce (Cu3.5 Zn1.5)'
_space_group_IT_number           191
_symmetry_space_group_name_Hall  '-P 6 2'
_symmetry_space_group_name_H-M   'P 6/m m m'
_cell_angle_alpha                90
_cell_angle_beta                 90
_cell_angle_gamma                120
_cell_formula_units_Z            1
_cell_length_a                   5.2069
_cell_length_b                   5.2069
_cell_length_c                   4.1352
_cell_volume                     97.092
_citation_journal_id_ASTM        JALCEU
_cod_data_source_file            Pavlyuk_JALCEU_2004_1481.cif
_cod_data_source_block           Ce1Cu3.5Zn1.5
_cod_original_cell_volume        97.09249
_cod_original_formula_sum        'Ce1 Cu3.5 Zn1.5'
_cod_database_code               1533989
loop_
_symmetry_equiv_pos_as_xyz
x,y,z
x-y,x,z
-y,x-y,z
-x,-y,z
-x+y,-x,z
y,-x+y,z
-y,-x,-z
x-y,-y,-z
x,x-y,-z
y,x,-z
-x+y,y,-z
-x,-x+y,-z
-x,-y,-z
-x+y,-x,-z
y,-x+y,-z
x,y,-z
x-y,x,-z
-y,x-y,-z
y,x,z
-x+y,y,z
-x,-x+y,z
-y,-x,z
x-y,-y,z
x,x-y,z
loop_
_atom_site_label
_atom_site_type_symbol
_atom_site_fract_x
_atom_site_fract_y
_atom_site_fract_z
_atom_site_occupancy
_atom_site_U_iso_or_equiv
Ce1 Ce 0 0 0 1 0.0
Zn2 Zn 0.5 0 0.5 0.333 0.0
Zn1 Zn 0.3333 0.6667 0 0.25 0.0
Cu1 Cu 0.3333 0.6667 0 0.75 0.0
Cu2 Cu 0.5 0 0.5 0.667 0.0
