#------------------------------------------------------------------------------
#$Date: 2015-10-01 15:25:22 +0300 (Thu, 01 Oct 2015) $
#$Revision: 159263 $
#$URL: svn://www.crystallography.net/cod/cif/1/53/31/1533156.cif $
#------------------------------------------------------------------------------
#
# This file is available in the Crystallography Open Database (COD),
# http://www.crystallography.net/
#
# All data on this site have been placed in the public domain by the
# contributors.
#
data_1533156
loop_
_publ_author_name
'Fedorchuk, A.'
'Prots', Yu.'
'Schmidt, M.'
'Schnelle, W.'
'Burkhardt, U.'
'Grin', Yu.'
'Schwarz, U.'
_publ_section_title
;
 Novel derivatives of the Ca In2 type of structure: Yb1+x Mg1-x Ga4 (0 <=
 x <= 0.058) and Y Li Ga4
;
_journal_name_full
'Zeitschrift fuer Anorganische und Allgemeine Chemie'
_journal_page_first              2470
_journal_page_last               2478
_journal_volume                  629
_journal_year                    2003
_chemical_formula_sum            'Ga4 Mg0.942 Yb1.058'
_chemical_name_systematic        'Yb (Yb0.058 Mg0.942) Ga4'
_space_group_IT_number           187
_symmetry_space_group_name_Hall  'P -6 2'
_symmetry_space_group_name_H-M   'P -6 m 2'
_cell_angle_alpha                90
_cell_angle_beta                 90
_cell_angle_gamma                120
_cell_formula_units_Z            1
_cell_length_a                   4.3979
_cell_length_b                   4.3979
_cell_length_c                   6.9671
_cell_volume                     116.701
_citation_journal_id_ASTM        ZAACAB
_cod_data_source_file            Fedorchuk_ZAACAB_2003_1098.cif
_cod_data_source_block           Ga4Mg0.942Yb1.058
_cod_original_cell_volume        116.7007
_cod_database_code               1533156
loop_
_symmetry_equiv_pos_as_xyz
x,y,z
-x+y,-x,-z
-y,x-y,z
x,y,-z
-x+y,-x,z
-y,x-y,-z
-y,-x,-z
-x+y,y,z
x,x-y,-z
-y,-x,z
-x+y,y,-z
x,x-y,z
loop_
_atom_site_label
_atom_site_type_symbol
_atom_site_fract_x
_atom_site_fract_y
_atom_site_fract_z
_atom_site_occupancy
_atom_site_U_iso_or_equiv
Mg1 Mg 0 0 0.5 0.942 0.0
Ga2 Ga 0.6667 0.3333 0.2145 1 0.0
Yb2 Yb 0 0 0.5 0.058 0.0
Yb1 Yb 0 0 0 1 0.0
Ga1 Ga 0.3333 0.6667 0.3 1 0.0
