#------------------------------------------------------------------------------
#$Date: 2016-02-13 14:50:18 +0200 (Sat, 13 Feb 2016) $
#$Revision: 176428 $
#$URL: svn://www.crystallography.net/cod/cif/1/53/30/1533002.cif $
#------------------------------------------------------------------------------
#
# This file is available in the Crystallography Open Database (COD),
# http://www.crystallography.net/
#
# All data on this site have been placed in the public domain by the
# contributors.
#
data_1533002
loop_
_publ_author_name
'Nalini, G.'
'Subbanna, G.N.'
'Guru Row, T.N.'
_publ_section_title
;
 Studies on n=2 Aurivillius phases: structure of the series Bi3-x Lax Ti
 Nb O9 (0 <= x <= 1)
;
_journal_name_full               'Materials Chemistry and Physics'
_journal_page_first              663
_journal_page_last               671
_journal_volume                  82
_journal_year                    2003
_chemical_formula_sum            'Bi2.25 La0.75 Nb0.92 O9 Ti1.08'
_chemical_name_systematic        '(Bi0.25 La0.75) Bi2 (Ti1.08 Nb0.92 O9)'
_space_group_IT_number           36
_symmetry_space_group_name_Hall  'A -2 2a'
_symmetry_space_group_name_H-M   'A 21 a m'
_cell_angle_alpha                90
_cell_angle_beta                 90
_cell_angle_gamma                90
_cell_formula_units_Z            4
_cell_length_a                   5.4455
_cell_length_b                   5.4382
_cell_length_c                   25.0398
_cell_volume                     741.522
_citation_journal_id_ASTM        MCHPDR
_cod_data_source_file            Nalini_MCHPDR_2003_483.cif
_cod_data_source_block           Bi2.25La0.75Nb0.92O9Ti1.08
_cod_original_cell_volume        741.5216
_cod_original_sg_symbol_Hall     'C 2c -2 (z,y,-x)'
_cod_database_code               1533002
loop_
_symmetry_equiv_pos_as_xyz
x,y,z
x+1/2,-y,-z
x,y,-z
x+1/2,-y,z
x,y+1/2,z+1/2
x+1/2,-y+1/2,-z+1/2
x,y+1/2,-z+1/2
x+1/2,-y+1/2,z+1/2
loop_
_atom_site_label
_atom_site_type_symbol
_atom_site_fract_x
_atom_site_fract_y
_atom_site_fract_z
_atom_site_occupancy
_atom_site_U_iso_or_equiv
Nb1 Nb+5 0.4587 0.7649 0.4122 0.46 0.0
O5 O-2 0.687 0.026 0.5727 1 0.0
O3 O-2 0.73 0.003 0.2593 1 0.0
Bi1 Bi+3 -0.01 0.2308 0 0.25 0.0
Ti1 Ti+4 0.4587 0.7649 0.4122 0.54 0.0
La1 La+3 -0.01 0.2308 0 0.75 0.0
Bi2 Bi+3 0.4749 0.7331 0.1988 1 0.0
O1 O-2 0.518 0.233 0 1 0.0
O2 O-2 0.432 0.677 0.3351 1 0.0
O4 O-2 0.714 0.925 0.068 1 0.0
