#------------------------------------------------------------------------------
#$Date: 2016-02-13 21:28:24 +0200 (Sat, 13 Feb 2016) $
#$Revision: 176429 $
#$URL: svn://www.crystallography.net/cod/cif/1/53/31/1533100.cif $
#------------------------------------------------------------------------------
#
# This file is available in the Crystallography Open Database (COD),
# http://www.crystallography.net/
#
# All data on this site have been placed in the public domain by the
# contributors.
#
data_1533100
loop_
_publ_author_name
'Du Honglin'
'Zhang Wenyong'
'Wang Changsheng'
'Han Jingzhi'
'Zhang Baisheng'
'Bo Chen'
'Yang Yingchang'
'Xie Chaomei'
'Sun Kai'
_publ_section_title
;
 Neutron powder diffraction study on the structures of La Ni5-x Alx Dy
 compounds
;
_journal_name_full               'Solid State Communications'
_journal_page_first              157
_journal_page_last               161
_journal_volume                  128
_journal_year                    2003
_chemical_formula_sum            'Al0.32 D0.41 La Ni4.68'
_chemical_name_systematic        'La Ni4.68 Al0.32 D0.41'
_space_group_IT_number           191
_symmetry_space_group_name_Hall  '-P 6 2'
_symmetry_space_group_name_H-M   'P 6/m m m'
_cell_angle_alpha                90
_cell_angle_beta                 90
_cell_angle_gamma                120
_cell_formula_units_Z            1
_cell_length_a                   5.059
_cell_length_b                   5.059
_cell_length_c                   4.044
_cell_volume                     89.634
_citation_journal_id_ASTM        SSCOA4
_cod_data_source_file            DuHonglin_SSCOA4_2003_1991.cif
_cod_data_source_block           D0.41Al0.32La1Ni4.68
_cod_original_cell_volume        89.63367
_cod_original_formula_sum        'D0.41 Al0.32 La1 Ni4.68'
_cod_database_code               1533100
loop_
_symmetry_equiv_pos_as_xyz
x,y,z
x-y,x,z
-y,x-y,z
-x,-y,z
-x+y,-x,z
y,-x+y,z
-y,-x,-z
x-y,-y,-z
x,x-y,-z
y,x,-z
-x+y,y,-z
-x,-x+y,-z
-x,-y,-z
-x+y,-x,-z
y,-x+y,-z
x,y,-z
x-y,x,-z
-y,x-y,-z
y,x,z
-x+y,y,z
-x,-x+y,z
-y,-x,z
x-y,-y,z
x,x-y,z
loop_
_atom_site_label
_atom_site_type_symbol
_atom_site_fract_x
_atom_site_fract_y
_atom_site_fract_z
_atom_site_occupancy
_atom_site_U_iso_or_equiv
La1 La 0 0 0 1 0.0
Al1 Al 0.5 0 0.5 0.107 0.0
D1 D 0.144 0.288 0.5 0.069 0.0
Ni1 Ni 0.3333 0.6667 0 1 0.0
Ni2 Ni 0.5 0 0.5 0.893 0.0
