#------------------------------------------------------------------------------
#$Date: 2015-10-05 14:28:29 +0300 (Mon, 05 Oct 2015) $
#$Revision: 160139 $
#$URL: svn://www.crystallography.net/cod/cif/1/53/38/1533853.cif $
#------------------------------------------------------------------------------
#
# This file is available in the Crystallography Open Database (COD),
# http://www.crystallography.net/
#
# All data on this site have been placed in the public domain by the
# contributors.
#
data_1533853
loop_
_publ_author_name
'Vennstrom, M.'
'Andersson, Y.'
_publ_section_title
;
 Hydrogen absorption in Nb4 Co Si and Nb4 Ni Si
;
_journal_name_full               'Journal of Alloys Compd.'
_journal_page_first              141
_journal_page_last               145
_journal_volume                  364
_journal_year                    2004
_chemical_formula_sum            'D2.76 Nb4 Ni0.77 Si1.23'
_chemical_name_systematic        'Nb4 (Ni0.77 Si1.23) D2.76'
_space_group_IT_number           140
_symmetry_space_group_name_Hall  '-I 4 2c'
_symmetry_space_group_name_H-M   'I 4/m c m'
_cell_angle_alpha                90
_cell_angle_beta                 90
_cell_angle_gamma                90
_cell_formula_units_Z            2
_cell_length_a                   6.3035
_cell_length_b                   6.3035
_cell_length_c                   5.1343
_cell_volume                     204.007
_citation_journal_id_ASTM        JALCEU
_cod_data_source_file            Vennstrom_JALCEU_2004_1354.cif
_cod_data_source_block           D2.76Nb4Ni0.77Si1.23
_cod_original_cell_volume        204.0069
_cod_database_code               1533853
loop_
_symmetry_equiv_pos_as_xyz
x,y,z
-y,x,z
-x,-y,z
y,-x,z
x,-y,-z+1/2
y,x,-z+1/2
-x,y,-z+1/2
-y,-x,-z+1/2
-x,-y,-z
y,-x,-z
x,y,-z
-y,x,-z
-x,y,z-1/2
-y,-x,z-1/2
x,-y,z-1/2
y,x,z-1/2
x+1/2,y+1/2,z+1/2
-y+1/2,x+1/2,z+1/2
-x+1/2,-y+1/2,z+1/2
y+1/2,-x+1/2,z+1/2
x+1/2,-y+1/2,-z+1
y+1/2,x+1/2,-z+1
-x+1/2,y+1/2,-z+1
-y+1/2,-x+1/2,-z+1
-x+1/2,-y+1/2,-z+1/2
y+1/2,-x+1/2,-z+1/2
x+1/2,y+1/2,-z+1/2
-y+1/2,x+1/2,-z+1/2
-x+1/2,y+1/2,z
-y+1/2,-x+1/2,z
x+1/2,-y+1/2,z
y+1/2,x+1/2,z
loop_
_atom_site_label
_atom_site_type_symbol
_atom_site_fract_x
_atom_site_fract_y
_atom_site_fract_z
_atom_site_occupancy
_atom_site_U_iso_or_equiv
Nb1 Nb 0.1669 0.6669 0 1 0.0
Si1 Si 0 0 0.25 0.616 0.0
D2 D 0.128 0.628 0.384 0.186 0.0
D1 D 0.5 0 0.25 0.636 0.0
Ni1 Ni 0 0 0.25 0.384 0.0
