#------------------------------------------------------------------------------
#$Date: 2016-02-13 21:28:24 +0200 (Sat, 13 Feb 2016) $
#$Revision: 176429 $
#$URL: svn://www.crystallography.net/cod/cif/1/53/35/1533540.cif $
#------------------------------------------------------------------------------
#
# This file is available in the Crystallography Open Database (COD),
# http://www.crystallography.net/
#
# All data on this site have been placed in the public domain by the
# contributors.
#
data_1533540
loop_
_publ_author_name
'Grytsiv, A.V.'
'Rogl, P.'
'Schmidt, H.'
'Wiesinger, G.'
'Giester, G.'
'Hundegger, P.'
'Pomjakushin, V.'
_publ_section_title
;
 Formation and crystal chemistry of cubic ternary phases with filled (Th6
 Mn23)-type and (Au Cu3)-type in the systems Ti - M(VIII) - Al
;
_journal_name_full               Intermetallics
_journal_page_first              563
_journal_page_last               577
_journal_volume                  12
_journal_year                    2004
_chemical_formula_sum            'Al2.685 Ni0.315 Ti'
_chemical_name_systematic        'Ti (Ni0.105 Al0.895)3'
_space_group_IT_number           221
_symmetry_space_group_name_Hall  '-P 4 2 3'
_symmetry_space_group_name_H-M   'P m -3 m'
_cell_angle_alpha                90
_cell_angle_beta                 90
_cell_angle_gamma                90
_cell_formula_units_Z            1
_cell_length_a                   3.92447
_cell_length_b                   3.92447
_cell_length_c                   3.92447
_cell_volume                     60.443
_citation_journal_id_ASTM        IERME5
_cod_data_source_file            Grytsiv_IERME5_2004_1271.cif
_cod_data_source_block           Al2.685Ni0.315Ti1
_cod_original_cell_volume        60.44258
_cod_original_formula_sum        'Al2.685 Ni0.315 Ti1'
_cod_database_code               1533540
loop_
_symmetry_equiv_pos_as_xyz
x,y,z
-y,x,z
-x,-y,z
y,-x,z
x,-y,-z
y,x,-z
-x,y,-z
-y,-x,-z
z,x,y
-x,z,y
-z,-x,y
x,-z,y
z,-x,-y
x,z,-y
-z,x,-y
-x,-z,-y
y,z,x
y,-z,-x
z,y,-x
-y,z,-x
-z,-y,-x
-y,-z,x
z,-y,x
-z,y,x
-x,-y,-z
y,-x,-z
x,y,-z
-y,x,-z
-x,y,z
-y,-x,z
x,-y,z
y,x,z
-z,-x,-y
x,-z,-y
z,x,-y
-x,z,-y
-z,x,y
-x,-z,y
z,-x,y
x,z,y
-y,-z,-x
-y,z,x
-z,-y,x
y,-z,x
z,y,x
y,z,-x
-z,y,-x
z,-y,-x
loop_
_atom_site_label
_atom_site_type_symbol
_atom_site_fract_x
_atom_site_fract_y
_atom_site_fract_z
_atom_site_occupancy
_atom_site_U_iso_or_equiv
Ni1 Ni 0 0.5 0.5 0.105 0.0
Al1 Al 0 0.5 0.5 0.895 0.0
Ti1 Ti 0 0 0 1 0.0
