#------------------------------------------------------------------------------
#$Date: 2016-02-13 21:28:24 +0200 (Sat, 13 Feb 2016) $
#$Revision: 176429 $
#$URL: svn://www.crystallography.net/cod/cif/1/53/31/1533149.cif $
#------------------------------------------------------------------------------
#
# This file is available in the Crystallography Open Database (COD),
# http://www.crystallography.net/
#
# All data on this site have been placed in the public domain by the
# contributors.
#
data_1533149
loop_
_publ_author_name
'Escamilla, R.'
'Duran, A.'
'Moran, E.'
'Rosales, M.I.'
'Alario-Franco, M.A.'
_publ_section_title
;
 The effect of Mn substitution on the structure and magnetic properties of
 Se (Cu1-x Mnx) O3 solid solution
;
_journal_name_full               'Journal of Physics: Condensed Matter'
_journal_page_first              1951
_journal_page_last               1961
_journal_volume                  15
_journal_year                    2003
_chemical_formula_sum            'Mn O3 Se'
_chemical_name_systematic        'Mn (Se O3)'
_space_group_IT_number           62
_symmetry_space_group_name_Hall  '-P 2ac 2n'
_symmetry_space_group_name_H-M   'P n m a'
_cell_angle_alpha                90
_cell_angle_beta                 90
_cell_angle_gamma                90
_cell_formula_units_Z            4
_cell_length_a                   6.0937
_cell_length_b                   7.8651
_cell_length_c                   5.1434
_cell_volume                     246.511
_citation_journal_id_ASTM        JCOMEL
_cod_data_source_file            Escamilla_JCOMEL_2003_368.cif
_cod_data_source_block           Mn1O3Se1
_cod_original_cell_volume        246.5106
_cod_original_formula_sum        'Mn1 O3 Se1'
_cod_database_code               1533149
loop_
_symmetry_equiv_pos_as_xyz
x,y,z
-x+1/2,-y,z+1/2
x+1/2,-y+1/2,-z+1/2
-x,y+1/2,-z
-x,-y,-z
x-1/2,y,-z-1/2
-x-1/2,y-1/2,z-1/2
x,-y-1/2,z
loop_
_atom_site_label
_atom_site_type_symbol
_atom_site_fract_x
_atom_site_fract_y
_atom_site_fract_z
_atom_site_occupancy
_atom_site_U_iso_or_equiv
Mn1 Mn+2 0 0 0.5 1 0.0
O2 O-2 0.1794 0.0836 0.8692 1 0.0
Se1 Se+4 0.0257 0.25 0.0172 1 0.0
O1 O-2 0.0798 0.25 0.3089 1 0.0
