#------------------------------------------------------------------------------
#$Date: 2016-02-13 21:28:24 +0200 (Sat, 13 Feb 2016) $
#$Revision: 176429 $
#$URL: svn://www.crystallography.net/cod/cif/1/53/30/1533081.cif $
#------------------------------------------------------------------------------
#
# This file is available in the Crystallography Open Database (COD),
# http://www.crystallography.net/
#
# All data on this site have been placed in the public domain by the
# contributors.
#
data_1533081
loop_
_publ_author_name
'Salamakha, P.S.'
'Rizzoli, C.'
'Almeida, M.'
'Sologub, O.L.'
'Belletti, D.'
'Goncalves, A.P.'
'Protsyk, O.S.'
_publ_section_title
;
 Pr Ru Si2 and Nd (Rux Ni1-x) Si2, monoclinic variants of the Ce Ni Si2
 structure
;
_journal_name_full               'Journal of Alloys Compd.'
_journal_page_first              269
_journal_page_last               273
_journal_volume                  368
_journal_year                    2004
_chemical_formula_sum            'Nd Ni0.675 Ru0.225 Si2'
_chemical_name_systematic        'Nd (Ru0.25 Ni0.75)0.9 Si2'
_space_group_IT_number           11
_symmetry_space_group_name_Hall  '-P 2yb'
_symmetry_space_group_name_H-M   'P 1 21/m 1'
_cell_angle_alpha                90
_cell_angle_beta                 103.78
_cell_angle_gamma                90
_cell_formula_units_Z            2
_cell_length_a                   4.122
_cell_length_b                   4.058
_cell_length_c                   8.501
_cell_volume                     138.104
_citation_journal_id_ASTM        JALCEU
_cod_data_source_file            Salamakha_JALCEU_2004_1434.cif
_cod_data_source_block           Nd1Ni0.675Ru0.225Si2
_cod_original_cell_volume        138.1041
_cod_original_formula_sum        'Nd1 Ni0.675 Ru0.225 Si2'
_cod_database_code               1533081
loop_
_symmetry_equiv_pos_as_xyz
x,y,z
-x,y+1/2,-z
-x,-y,-z
x,-y-1/2,z
loop_
_atom_site_label
_atom_site_type_symbol
_atom_site_fract_x
_atom_site_fract_y
_atom_site_fract_z
_atom_site_occupancy
_atom_site_U_iso_or_equiv
Nd1 Nd 0.3938 0.25 0.7875 1 0.0
Ni1 Ni 0.1825 0.25 0.3649 0.675 0.0
Si1 Si 0.042 0.25 0.0823 1 0.0
Si2 Si 0.748 0.25 0.5018 1 0.0
Ru1 Ru 0.1825 0.25 0.3649 0.225 0.0
