#------------------------------------------------------------------------------
#$Date: 2016-02-13 21:28:24 +0200 (Sat, 13 Feb 2016) $
#$Revision: 176429 $
#$URL: svn://www.crystallography.net/cod/cif/1/53/36/1533650.cif $
#------------------------------------------------------------------------------
#
# This file is available in the Crystallography Open Database (COD),
# http://www.crystallography.net/
#
# All data on this site have been placed in the public domain by the
# contributors.
#
data_1533650
loop_
_publ_author_name
'Haluska, M.S.'
'Misture, S.T.'
_publ_section_title
;
 Crystal structure refinements of the three-layer Aurivillius ceramics Bi2
 Sr2-x Ax Nb2 Ti O12 (A = Ca, Ba, x = 0, 0.5, 1) using combined X-ray and
 neutron powder diffraction
;
_journal_name_full               'Journal of Solid State Chemistry'
_journal_page_first              1965
_journal_page_last               1975
_journal_volume                  177
_journal_year                    2004
_chemical_formula_sum            'Bi2 Nb2 O12 Sr2 Ti'
_chemical_name_systematic        'Bi2 Sr2 (Nb2 Ti O12)'
_space_group_IT_number           139
_symmetry_space_group_name_Hall  '-I 4 2'
_symmetry_space_group_name_H-M   'I 4/m m m'
_cell_angle_alpha                90
_cell_angle_beta                 90
_cell_angle_gamma                90
_cell_formula_units_Z            2
_cell_length_a                   3.89257
_cell_length_b                   3.89257
_cell_length_c                   33.1876
_cell_volume                     502.862
_citation_journal_id_ASTM        JSSCBI
_cod_data_source_file            Haluska_JSSCBI_2004_1737.cif
_cod_data_source_block           Bi2Nb2O12Sr2Ti1
_cod_original_cell_volume        502.8619
_cod_original_formula_sum        'Bi2 Nb2 O12 Sr2 Ti1'
_cod_database_code               1533650
loop_
_symmetry_equiv_pos_as_xyz
x,y,z
-y,x,z
-x,-y,z
y,-x,z
x,-y,-z
y,x,-z
-x,y,-z
-y,-x,-z
-x,-y,-z
y,-x,-z
x,y,-z
-y,x,-z
-x,y,z
-y,-x,z
x,-y,z
y,x,z
x+1/2,y+1/2,z+1/2
-y+1/2,x+1/2,z+1/2
-x+1/2,-y+1/2,z+1/2
y+1/2,-x+1/2,z+1/2
x+1/2,-y+1/2,-z+1/2
y+1/2,x+1/2,-z+1/2
-x+1/2,y+1/2,-z+1/2
-y+1/2,-x+1/2,-z+1/2
-x+1/2,-y+1/2,-z+1/2
y+1/2,-x+1/2,-z+1/2
x+1/2,y+1/2,-z+1/2
-y+1/2,x+1/2,-z+1/2
-x+1/2,y+1/2,z+1/2
-y+1/2,-x+1/2,z+1/2
x+1/2,-y+1/2,z+1/2
y+1/2,x+1/2,z+1/2
loop_
_atom_site_label
_atom_site_type_symbol
_atom_site_fract_x
_atom_site_fract_y
_atom_site_fract_z
_atom_site_occupancy
_atom_site_U_iso_or_equiv
O1 O-2 0 0.5 0 1 0.0
O4 O-2 0 0 0.3181 1 0.0
Ti2 Ti+4 0 0 0.5 0.522 0.0
Bi1 Bi+3 0 0 0.2142 0.864 0.0
Nb2 Nb+5 0 0 0.5 0.477 0.0
O2 O-2 0 0.5 0.25 1 0.0
Sr1 Sr+2 0 0 0.197 0.136 0.0
O5 O-2 0 0.5 0.1179 1 0.0
Nb1 Nb+5 0 0 0.3729 0.761 0.0
Sr2 Sr+2 0 0 0.06296 0.864 0.0
O3 O-2 0 0 0.4414 1 0.0
Ti1 Ti+4 0 0 0.3729 0.239 0.0
Bi2 Bi+3 0 0 0.06296 0.136 0.0
