#------------------------------------------------------------------------------
#$Date: 2015-10-01 15:39:45 +0300 (Thu, 01 Oct 2015) $
#$Revision: 159299 $
#$URL: svn://www.crystallography.net/cod/cif/1/53/31/1533187.cif $
#------------------------------------------------------------------------------
#
# This file is available in the Crystallography Open Database (COD),
# http://www.crystallography.net/
#
# All data on this site have been placed in the public domain by the
# contributors.
#
data_1533187
loop_
_publ_author_name
'Fukami, T.'
'Chen, R.H.'
_publ_section_title
;
 Structural phase transition and crystal structure of a highly deuterated
 (N D4)3 D (Se O4)2 crystal
;
_journal_name_full
'Physica Status Solidi, Sectio A: Applied Research'
_journal_page_first              378
_journal_page_last               388
_journal_volume                  199
_journal_year                    2003
_chemical_formula_sum            'D13 N3 O8 Se2'
_chemical_name_systematic        '(N D4)3 D (Se O4)2'
_space_group_IT_number           166
_symmetry_space_group_name_Hall  '-R 3 2"'
_symmetry_space_group_name_H-M   'R -3 m :H'
_cell_angle_alpha                90
_cell_angle_beta                 90
_cell_angle_gamma                120
_cell_formula_units_Z            3
_cell_length_a                   6.0803
_cell_length_b                   6.0803
_cell_length_c                   22.739
_cell_volume                     728.035
_citation_journal_id_ASTM        PSSABA
_cod_data_source_file            Fukami_PSSABA_2003_1987.cif
_cod_data_source_block           D13N3O8Se2
_cod_original_cell_volume        728.0345
_cod_database_code               1533187
loop_
_symmetry_equiv_pos_as_xyz
x,y,z
-y,x-y,z
-x+y,-x,z
y,x,-z
-x,-x+y,-z
x-y,-y,-z
-x,-y,-z
y,-x+y,-z
x-y,x,-z
-y,-x,z
x,x-y,z
-x+y,y,z
x+2/3,y+1/3,z+1/3
-y+2/3,x-y+1/3,z+1/3
-x+y+2/3,-x+1/3,z+1/3
y+2/3,x+1/3,-z+1/3
-x+2/3,-x+y+1/3,-z+1/3
x-y+2/3,-y+1/3,-z+1/3
-x+2/3,-y+1/3,-z+1/3
y+2/3,-x+y+1/3,-z+1/3
x-y+2/3,x+1/3,-z+1/3
-y+2/3,-x+1/3,z+1/3
x+2/3,x-y+1/3,z+1/3
-x+y+2/3,y+1/3,z+1/3
x+1/3,y+2/3,z+2/3
-y+1/3,x-y+2/3,z+2/3
-x+y+1/3,-x+2/3,z+2/3
y+1/3,x+2/3,-z+2/3
-x+1/3,-x+y+2/3,-z+2/3
x-y+1/3,-y+2/3,-z+2/3
-x+1/3,-y+2/3,-z+2/3
y+1/3,-x+y+2/3,-z+2/3
x-y+1/3,x+2/3,-z+2/3
-y+1/3,-x+2/3,z+2/3
x+1/3,x-y+2/3,z+2/3
-x+y+1/3,y+2/3,z+2/3
loop_
_atom_site_label
_atom_site_type_symbol
_atom_site_fract_x
_atom_site_fract_y
_atom_site_fract_z
_atom_site_occupancy
_atom_site_U_iso_or_equiv
D3 D+1 -0.02 0.11 -0.019 0.25 0.0
O2 O-2 0.053 0.061 0.3368 0.1667 0.0
D5 D+1 0.02 0.15 0.22 0.5 0.0
N2 N-3 0 0 0.1978 1 0.0
Se1 Se+6 0 0 0.40898 1 0.0
D1 D+1 0.07 0.18 0.32 0.0833 0.0
N1 N-3 0 0 0 1 0.0
O1 O-2 0.2906 0.1793 0.4305 0.5 0.0
D2 D+1 0 0 0.047 0.5 0.0
D4 D+1 0 0 0.163 1 0.0
