#------------------------------------------------------------------------------
#$Date: 2016-02-13 21:28:24 +0200 (Sat, 13 Feb 2016) $
#$Revision: 176429 $
#$URL: svn://www.crystallography.net/cod/cif/1/53/33/1533327.cif $
#------------------------------------------------------------------------------
#
# This file is available in the Crystallography Open Database (COD),
# http://www.crystallography.net/
#
# All data on this site have been placed in the public domain by the
# contributors.
#
data_1533327
loop_
_publ_author_name
'Chang, H.'
'Chen, N.X.'
'Liang, J.K.'
'Rao, G.-H.'
_publ_section_title
;
 Structural stability and structural imitation of La2 Co17-x Mx (M = Mn,
 Mo, Nb, Ti, V, Al, Cr, Ni and Si)
;
_journal_name_full               'The European Physical Journal B'
_journal_page_first              55
_journal_page_last               60
_journal_volume                  33
_journal_year                    2003
_chemical_formula_sum            'Co16 La2 Ti'
_chemical_name_systematic        'La2 Co16 Ti'
_space_group_IT_number           166
_symmetry_space_group_name_Hall  '-R 3 2"'
_symmetry_space_group_name_H-M   'R -3 m :H'
_cell_angle_alpha                90
_cell_angle_beta                 90
_cell_angle_gamma                120
_cell_formula_units_Z            3
_cell_length_a                   8.55
_cell_length_b                   8.55
_cell_length_c                   12.46
_cell_volume                     788.825
_citation_journal_id_ASTM        EPJBFY
_cod_data_source_file            Chang_EPJBFY_2003_728.cif
_cod_data_source_block           Co16La2Ti1
_cod_original_cell_volume        788.8254
_cod_original_formula_sum        'Co16 La2 Ti1'
_cod_database_code               1533327
loop_
_symmetry_equiv_pos_as_xyz
x,y,z
-y,x-y,z
-x+y,-x,z
y,x,-z
-x,-x+y,-z
x-y,-y,-z
-x,-y,-z
y,-x+y,-z
x-y,x,-z
-y,-x,z
x,x-y,z
-x+y,y,z
x+2/3,y+1/3,z+1/3
-y+2/3,x-y+1/3,z+1/3
-x+y+2/3,-x+1/3,z+1/3
y+2/3,x+1/3,-z+1/3
-x+2/3,-x+y+1/3,-z+1/3
x-y+2/3,-y+1/3,-z+1/3
-x+2/3,-y+1/3,-z+1/3
y+2/3,-x+y+1/3,-z+1/3
x-y+2/3,x+1/3,-z+1/3
-y+2/3,-x+1/3,z+1/3
x+2/3,x-y+1/3,z+1/3
-x+y+2/3,y+1/3,z+1/3
x+1/3,y+2/3,z+2/3
-y+1/3,x-y+2/3,z+2/3
-x+y+1/3,-x+2/3,z+2/3
y+1/3,x+2/3,-z+2/3
-x+1/3,-x+y+2/3,-z+2/3
x-y+1/3,-y+2/3,-z+2/3
-x+1/3,-y+2/3,-z+2/3
y+1/3,-x+y+2/3,-z+2/3
x-y+1/3,x+2/3,-z+2/3
-y+1/3,-x+2/3,z+2/3
x+1/3,x-y+2/3,z+2/3
-x+y+1/3,y+2/3,z+2/3
loop_
_atom_site_label
_atom_site_type_symbol
_atom_site_fract_x
_atom_site_fract_y
_atom_site_fract_z
_atom_site_occupancy
_atom_site_U_iso_or_equiv
La1 La 0 0 0.338 1 0.0
Co2 Co 0.5 0 0.5 1 0.0
Co4 Co 0.291 0 0 1 0.0
Co3 Co 0.501 0.002 0.151 1 0.0
Co1 Co 0 0 0.098 0.5 0.0
Ti1 Ti 0 0 0.098 0.5 0.0
