#------------------------------------------------------------------------------
#$Date: 2016-02-13 21:28:24 +0200 (Sat, 13 Feb 2016) $
#$Revision: 176429 $
#$URL: svn://www.crystallography.net/cod/cif/1/53/35/1533582.cif $
#------------------------------------------------------------------------------
#
# This file is available in the Crystallography Open Database (COD),
# http://www.crystallography.net/
#
# All data on this site have been placed in the public domain by the
# contributors.
#
data_1533582
loop_
_publ_author_name
'Skripov, A.V.'
'Kozhanov, V.N.'
'Buzlukov, A.L.'
'Udovic, T.J.'
'Huang, Q.'
_publ_section_title
;
 Hydrogen in Nb (V1-y Cry)2 Laves-phase compounds: neutron diffraction and
 nuclear magnetic resonance studies
;
_journal_name_full               'Journal of Alloys Compd.'
_journal_page_first              27
_journal_page_last               34
_journal_volume                  359
_journal_year                    2003
_chemical_formula_sum            'Cr D0.384 Nb V'
_chemical_name_systematic        'Nb V Cr D0.384'
_space_group_IT_number           227
_symmetry_space_group_name_Hall  '-F 4vw 2vw 3'
_symmetry_space_group_name_H-M   'F d -3 m :2'
_cell_angle_alpha                90
_cell_angle_beta                 90
_cell_angle_gamma                90
_cell_formula_units_Z            8
_cell_length_a                   7.1269
_cell_length_b                   7.1269
_cell_length_c                   7.1269
_cell_volume                     361.995
_citation_journal_id_ASTM        JALCEU
_cod_data_source_file            Skripov_JALCEU_2003_65.cif
_cod_data_source_block           D0.384Cr1Nb1V1
_cod_original_cell_volume        361.9945
_cod_original_formula_sum        'D0.384 Cr1 Nb1 V1'
_cod_database_code               1533582
loop_
_symmetry_equiv_pos_as_xyz
x,y,z
-y,x+1/4,z+1/4
-x+3/4,-y+1/4,z+1/2
y+3/4,-x,z+3/4
x,-y+1/4,-z+1/4
y+3/4,x+1/4,-z+1/2
-x+3/4,y,-z+3/4
-y,-x,-z
z,x,y
-x,z+1/4,y+1/4
-z+3/4,-x+1/4,y+1/2
x+3/4,-z,y+3/4
z,-x+1/4,-y+1/4
x+3/4,z+1/4,-y+1/2
-z+3/4,x,-y+3/4
-x,-z,-y
y,z,x
y+1/2,-z+3/4,-x+1/4
z+1/4,y+3/4,-x+1/2
-y+1/4,z+1/2,-x+3/4
-z,-y+1/2,-x+1/2
-y+1/4,-z+1/4,x
z+1/4,-y,x+1/4
-z+1/2,y+1/4,x+3/4
-x,-y,-z
y,-x-1/4,-z-1/4
x-3/4,y-1/4,-z-1/2
-y-3/4,x,-z-3/4
-x,y-1/4,z-1/4
-y-3/4,-x-1/4,z-1/2
x-3/4,-y,z-3/4
y,x,z
-z,-x,-y
x,-z-1/4,-y-1/4
z-3/4,x-1/4,-y-1/2
-x-3/4,z,-y-3/4
-z,x-1/4,y-1/4
-x-3/4,-z-1/4,y-1/2
z-3/4,-x,y-3/4
x,z,y
-y,-z,-x
-y-1/2,z-3/4,x-1/4
-z-1/4,-y-3/4,x-1/2
y-1/4,-z-1/2,x-3/4
z,y-1/2,x-1/2
y-1/4,z-1/4,-x
-z-1/4,y,-x-1/4
z-1/2,-y-1/4,-x-3/4
x,y+1/2,z+1/2
-y,x+3/4,z+3/4
-x+3/4,-y+3/4,z+1
y+3/4,-x+1/2,z+5/4
x,-y+3/4,-z+3/4
y+3/4,x+3/4,-z+1
-x+3/4,y+1/2,-z+5/4
-y,-x+1/2,-z+1/2
z,x+1/2,y+1/2
-x,z+3/4,y+3/4
-z+3/4,-x+3/4,y+1
x+3/4,-z+1/2,y+5/4
z,-x+3/4,-y+3/4
x+3/4,z+3/4,-y+1
-z+3/4,x+1/2,-y+5/4
-x,-z+1/2,-y+1/2
y,z+1/2,x+1/2
y+1/2,-z+5/4,-x+3/4
z+1/4,y+5/4,-x+1
-y+1/4,z+1,-x+5/4
-z,-y+1,-x+1
-y+1/4,-z+3/4,x+1/2
z+1/4,-y+1/2,x+3/4
-z+1/2,y+3/4,x+5/4
-x,-y+1/2,-z+1/2
y,-x+1/4,-z+1/4
x-3/4,y+1/4,-z
-y-3/4,x+1/2,-z-1/4
-x,y+1/4,z+1/4
-y-3/4,-x+1/4,z
x-3/4,-y+1/2,z-1/4
y,x+1/2,z+1/2
-z,-x+1/2,-y+1/2
x,-z+1/4,-y+1/4
z-3/4,x+1/4,-y
-x-3/4,z+1/2,-y-1/4
-z,x+1/4,y+1/4
-x-3/4,-z+1/4,y
z-3/4,-x+1/2,y-1/4
x,z+1/2,y+1/2
-y,-z+1/2,-x+1/2
-y-1/2,z-1/4,x+1/4
-z-1/4,-y-1/4,x
y-1/4,-z,x-1/4
z,y,x
y-1/4,z+1/4,-x+1/2
-z-1/4,y+1/2,-x+1/4
z-1/2,-y+1/4,-x-1/4
x+1/2,y,z+1/2
-y+1/2,x+1/4,z+3/4
-x+5/4,-y+1/4,z+1
y+5/4,-x,z+5/4
x+1/2,-y+1/4,-z+3/4
y+5/4,x+1/4,-z+1
-x+5/4,y,-z+5/4
-y+1/2,-x,-z+1/2
z+1/2,x,y+1/2
-x+1/2,z+1/4,y+3/4
-z+5/4,-x+1/4,y+1
x+5/4,-z,y+5/4
z+1/2,-x+1/4,-y+3/4
x+5/4,z+1/4,-y+1
-z+5/4,x,-y+5/4
-x+1/2,-z,-y+1/2
y+1/2,z,x+1/2
y+1,-z+3/4,-x+3/4
z+3/4,y+3/4,-x+1
-y+3/4,z+1/2,-x+5/4
-z+1/2,-y+1/2,-x+1
-y+3/4,-z+1/4,x+1/2
z+3/4,-y,x+3/4
-z+1,y+1/4,x+5/4
-x+1/2,-y,-z+1/2
y+1/2,-x-1/4,-z+1/4
x-1/4,y-1/4,-z
-y-1/4,x,-z-1/4
-x+1/2,y-1/4,z+1/4
-y-1/4,-x-1/4,z
x-1/4,-y,z-1/4
y+1/2,x,z+1/2
-z+1/2,-x,-y+1/2
x+1/2,-z-1/4,-y+1/4
z-1/4,x-1/4,-y
-x-1/4,z,-y-1/4
-z+1/2,x-1/4,y+1/4
-x-1/4,-z-1/4,y
z-1/4,-x,y-1/4
x+1/2,z,y+1/2
-y+1/2,-z,-x+1/2
-y,z-3/4,x+1/4
-z+1/4,-y-3/4,x
y+1/4,-z-1/2,x-1/4
z+1/2,y-1/2,x
y+1/4,z-1/4,-x+1/2
-z+1/4,y,-x+1/4
z,-y-1/4,-x-1/4
x+1/2,y+1/2,z
-y+1/2,x+3/4,z+1/4
-x+5/4,-y+3/4,z+1/2
y+5/4,-x+1/2,z+3/4
x+1/2,-y+3/4,-z+1/4
y+5/4,x+3/4,-z+1/2
-x+5/4,y+1/2,-z+3/4
-y+1/2,-x+1/2,-z
z+1/2,x+1/2,y
-x+1/2,z+3/4,y+1/4
-z+5/4,-x+3/4,y+1/2
x+5/4,-z+1/2,y+3/4
z+1/2,-x+3/4,-y+1/4
x+5/4,z+3/4,-y+1/2
-z+5/4,x+1/2,-y+3/4
-x+1/2,-z+1/2,-y
y+1/2,z+1/2,x
y+1,-z+5/4,-x+1/4
z+3/4,y+5/4,-x+1/2
-y+3/4,z+1,-x+3/4
-z+1/2,-y+1,-x+1/2
-y+3/4,-z+3/4,x
z+3/4,-y+1/2,x+1/4
-z+1,y+3/4,x+3/4
-x+1/2,-y+1/2,-z
y+1/2,-x+1/4,-z-1/4
x-1/4,y+1/4,-z-1/2
-y-1/4,x+1/2,-z-3/4
-x+1/2,y+1/4,z-1/4
-y-1/4,-x+1/4,z-1/2
x-1/4,-y+1/2,z-3/4
y+1/2,x+1/2,z
-z+1/2,-x+1/2,-y
x+1/2,-z+1/4,-y-1/4
z-1/4,x+1/4,-y-1/2
-x-1/4,z+1/2,-y-3/4
-z+1/2,x+1/4,y-1/4
-x-1/4,-z+1/4,y-1/2
z-1/4,-x+1/2,y-3/4
x+1/2,z+1/2,y
-y+1/2,-z+1/2,-x
-y,z-1/4,x-1/4
-z+1/4,-y-1/4,x-1/2
y+1/4,-z,x-3/4
z+1/2,y,x-1/2
y+1/4,z+1/4,-x
-z+1/4,y+1/2,-x-1/4
z,-y+1/4,-x-3/4
loop_
_atom_site_label
_atom_site_type_symbol
_atom_site_fract_x
_atom_site_fract_y
_atom_site_fract_z
_atom_site_occupancy
_atom_site_U_iso_or_equiv
Cr1 Cr 0.5 0.5 0.5 0.5 0.0
V1 V 0.5 0.5 0.5 0.5 0.0
Nb1 Nb 0.125 0.125 0.125 1 0.0
D1 D 0.0578 0.0578 0.887 0.032 0.0
