#------------------------------------------------------------------------------
#$Date: 2015-10-01 16:03:23 +0300 (Thu, 01 Oct 2015) $
#$Revision: 159344 $
#$URL: svn://www.crystallography.net/cod/cif/1/53/32/1533221.cif $
#------------------------------------------------------------------------------
#
# This file is available in the Crystallography Open Database (COD),
# http://www.crystallography.net/
#
# All data on this site have been placed in the public domain by the
# contributors.
#
data_1533221
loop_
_publ_author_name
'Nehdi, I.'
'Bessais, L.'
'Djega-Mariadassou, C.'
'Zarrouk, H.'
'Abdellaoui, M.'
_publ_section_title
;
 X-ray and Mossbauer studies of Sm2 Fe17-x Crx materials synthesizedby
 mechanical alloying followed by an appropriate short annealing
;
_journal_name_full               'Journal of Alloys Compd.'
_journal_page_first              24
_journal_page_last               30
_journal_volume                  351
_journal_year                    2003
_chemical_formula_sum            'Cr1.5 Fe15.5 Sm2'
_chemical_name_systematic        'Sm2 Fe15.5 Cr1.5'
_space_group_IT_number           166
_symmetry_space_group_name_Hall  '-R 3 2"'
_symmetry_space_group_name_H-M   'R -3 m :H'
_cell_angle_alpha                90
_cell_angle_beta                 90
_cell_angle_gamma                120
_cell_formula_units_Z            3
_cell_length_a                   8.535
_cell_length_b                   8.535
_cell_length_c                   12.442
_cell_volume                     784.924
_citation_journal_id_ASTM        JALCEU
_cod_data_source_file            Nehdi_JALCEU_2003_738.cif
_cod_data_source_block           Cr1.5Fe15.5Sm2
_cod_original_cell_volume        784.9245
_cod_database_code               1533221
loop_
_symmetry_equiv_pos_as_xyz
x,y,z
-y,x-y,z
-x+y,-x,z
y,x,-z
-x,-x+y,-z
x-y,-y,-z
-x,-y,-z
y,-x+y,-z
x-y,x,-z
-y,-x,z
x,x-y,z
-x+y,y,z
x+2/3,y+1/3,z+1/3
-y+2/3,x-y+1/3,z+1/3
-x+y+2/3,-x+1/3,z+1/3
y+2/3,x+1/3,-z+1/3
-x+2/3,-x+y+1/3,-z+1/3
x-y+2/3,-y+1/3,-z+1/3
-x+2/3,-y+1/3,-z+1/3
y+2/3,-x+y+1/3,-z+1/3
x-y+2/3,x+1/3,-z+1/3
-y+2/3,-x+1/3,z+1/3
x+2/3,x-y+1/3,z+1/3
-x+y+2/3,y+1/3,z+1/3
x+1/3,y+2/3,z+2/3
-y+1/3,x-y+2/3,z+2/3
-x+y+1/3,-x+2/3,z+2/3
y+1/3,x+2/3,-z+2/3
-x+1/3,-x+y+2/3,-z+2/3
x-y+1/3,-y+2/3,-z+2/3
-x+1/3,-y+2/3,-z+2/3
y+1/3,-x+y+2/3,-z+2/3
x-y+1/3,x+2/3,-z+2/3
-y+1/3,-x+2/3,z+2/3
x+1/3,x-y+2/3,z+2/3
-x+y+1/3,y+2/3,z+2/3
loop_
_atom_site_label
_atom_site_type_symbol
_atom_site_fract_x
_atom_site_fract_y
_atom_site_fract_z
_atom_site_occupancy
_atom_site_U_iso_or_equiv
Fe3 Fe 0.289 0 0 1 0.0
Fe2 Fe 0.5 0.5 0.5 1 0.0
Fe4 Fe 0.501 0.499 0.157 1 0.0
Cr1 Cr 0 0 0.096 0.75 0.0
Fe1 Fe 0 0 0.096 0.25 0.0
Sm1 Sm 0 0 0.344 1 0.0
