#------------------------------------------------------------------------------
#$Date: 2015-10-05 13:46:05 +0300 (Mon, 05 Oct 2015) $
#$Revision: 160000 $
#$URL: svn://www.crystallography.net/cod/cif/1/53/37/1533731.cif $
#------------------------------------------------------------------------------
#
# This file is available in the Crystallography Open Database (COD),
# http://www.crystallography.net/
#
# All data on this site have been placed in the public domain by the
# contributors.
#
data_1533731
loop_
_publ_author_name
'Tripathi, A.'
'Medvedev, D.G.'
'Clearfield, A.'
'Delgado, J.'
_publ_section_title
;
 Optimizing Cs-exchange in titanosilicate with the mineral
 pharmacosiderite topology: framework substitution of Nb and Ge
;
_journal_name_full               'Journal of Solid State Chemistry'
_journal_page_first              2903
_journal_page_last               2915
_journal_volume                  177
_journal_year                    2004
_chemical_formula_sum            'H9 K2.2 Nb0.8 O20 Si3 Ti3.2'
_chemical_name_systematic        'H K2.2 (Ti O)3.2 (Nb O)0.8 (Si O4)3 (H2 O)4'
_space_group_IT_number           215
_symmetry_space_group_name_Hall  'P -4 2 3'
_symmetry_space_group_name_H-M   'P -4 3 m'
_cell_angle_alpha                90
_cell_angle_beta                 90
_cell_angle_gamma                90
_cell_formula_units_Z            1
_cell_length_a                   7.7937
_cell_length_b                   7.7937
_cell_length_c                   7.7937
_cell_volume                     473.403
_citation_journal_id_ASTM        JSSCBI
_cod_data_source_file            Tripathi_JSSCBI_2004_1829.cif
_cod_data_source_block           H9K2.2Nb0.8O20Si3Ti3.2
_cod_original_cell_volume        473.4031
_cod_database_code               1533731
loop_
_symmetry_equiv_pos_as_xyz
x,y,z
y,-x,-z
-x,-y,z
-y,x,-z
x,-y,-z
-y,-x,z
-x,y,-z
y,x,z
z,x,y
x,-z,-y
-z,-x,y
-x,z,-y
z,-x,-y
-x,-z,y
-z,x,-y
x,z,y
y,z,x
y,-z,-x
-z,-y,x
-y,z,-x
z,y,x
-y,-z,x
-z,y,-x
z,-y,-x
loop_
_atom_site_label
_atom_site_type_symbol
_atom_site_fract_x
_atom_site_fract_y
_atom_site_fract_z
_atom_site_occupancy
_atom_site_U_iso_or_equiv
Si1 Si+4 0.5 0 0 1 0.0
Ti1 Ti+4 0.1415 0.1415 0.1415 0.8 0.0
O1 O-2 0.3811 0.1198 0.1198 1 0.0
O2 O-2 0.1092 0.1092 0.8908 1 0.0
K1 K+1 0.5 0.5 0 0.73 0.0
Nb1 Nb+5 0.1415 0.1415 0.1415 0.2 0.0
O3 O-2 0.3158 0.3158 0.6842 1 0.0
