#------------------------------------------------------------------------------
#$Date: 2015-10-05 15:41:47 +0300 (Mon, 05 Oct 2015) $
#$Revision: 160203 $
#$URL: svn://www.crystallography.net/cod/cif/1/53/39/1533913.cif $
#------------------------------------------------------------------------------
#
# This file is available in the Crystallography Open Database (COD),
# http://www.crystallography.net/
#
# All data on this site have been placed in the public domain by the
# contributors.
#
data_1533913
loop_
_publ_author_name
'Ouyang, Z.W.'
'Rao, G.H.'
'Liu, W.F.'
'Yang, H.F.'
'Liu, G.Y.'
'Liang, J.K.'
'Feng, X.M.'
_publ_section_title
;
 Structure and unusual magnetic properties in the itinerant electron
 system Hf0.8 Ta0.2 (Fe1-x Cox)2
;
_journal_name_full               'Journal of Alloys Compd.'
_journal_page_first              18
_journal_page_last               24
_journal_volume                  370
_journal_year                    2004
_chemical_formula_sum            'Co0.2 Fe1.8 Hf0.8 Ta0.2'
_chemical_name_systematic        '(Hf0.8 Ta0.2) (Fe0.9 Co0.1)2'
_space_group_IT_number           194
_symmetry_space_group_name_Hall  '-P 6c 2c'
_symmetry_space_group_name_H-M   'P 63/m m c'
_cell_angle_alpha                90
_cell_angle_beta                 90
_cell_angle_gamma                120
_cell_formula_units_Z            4
_cell_length_a                   4.919
_cell_length_b                   4.919
_cell_length_c                   8.046
_cell_volume                     168.603
_citation_journal_id_ASTM        JALCEU
_cod_data_source_file            Ouyang_JALCEU_2004_1443.cif
_cod_data_source_block           Co0.2Fe1.8Hf0.8Ta0.2
_cod_original_cell_volume        168.6026
_cod_database_code               1533913
loop_
_symmetry_equiv_pos_as_xyz
x,y,z
x-y,x,z+1/2
-y,x-y,z
-x,-y,z+1/2
-x+y,-x,z
y,-x+y,z+1/2
-y,-x,-z+1/2
x-y,-y,-z
x,x-y,-z+1/2
y,x,-z
-x+y,y,-z+1/2
-x,-x+y,-z
-x,-y,-z
-x+y,-x,-z-1/2
y,-x+y,-z
x,y,-z-1/2
x-y,x,-z
-y,x-y,-z-1/2
y,x,z-1/2
-x+y,y,z
-x,-x+y,z-1/2
-y,-x,z
x-y,-y,z-1/2
x,x-y,z
loop_
_atom_site_label
_atom_site_type_symbol
_atom_site_fract_x
_atom_site_fract_y
_atom_site_fract_z
_atom_site_occupancy
_atom_site_U_iso_or_equiv
Co1 Co 0 0 0 0.1 0.0
Ta1 Ta 0.3333 0.6667 0.0616 0.2 0.0
Co2 Co 0.8329 0.6658 0.25 0.1 0.0
Hf1 Hf 0.3333 0.6667 0.0616 0.8 0.0
Fe1 Fe 0 0 0 0.9 0.0
Fe2 Fe 0.8329 0.6658 0.25 0.9 0.0
