#------------------------------------------------------------------------------
#$Date: 2016-02-13 21:28:24 +0200 (Sat, 13 Feb 2016) $
#$Revision: 176429 $
#$URL: svn://www.crystallography.net/cod/cif/1/53/30/1533015.cif $
#------------------------------------------------------------------------------
#
# This file is available in the Crystallography Open Database (COD),
# http://www.crystallography.net/
#
# All data on this site have been placed in the public domain by the
# contributors.
#
data_1533015
loop_
_publ_author_name
'Potapov, P.L.'
'Kulkova, S.E.'
'Okutsu, K.'
'Shelyakov, A.V.'
'Miyazaki, S.'
'Schryvers, D.'
_publ_section_title
;
 Crystal structure of orthorhombic martensite in Ti Ni - Cu and Ti Ni - Pd
 intermetallics
;
_journal_name_full               'Journal of Physics IV France'
_journal_page_first              727
_journal_page_last               730
_journal_volume                  112
_journal_year                    2003
_chemical_formula_sum            'Cu0.5 Ni0.5 Ti'
_chemical_name_systematic        'Ti (Ni0.5 Cu0.5)'
_space_group_IT_number           51
_symmetry_space_group_name_Hall  '-P 2b 2'
_symmetry_space_group_name_H-M   'P m m b'
_cell_angle_alpha                90
_cell_angle_beta                 90
_cell_angle_gamma                90
_cell_formula_units_Z            2
_cell_length_a                   2.919
_cell_length_b                   4.288
_cell_length_c                   4.5
_cell_volume                     56.325
_citation_journal_id_ASTM        JPICEI
_cod_data_source_file            Potapov_JPICEI_2003_1606.cif
_cod_data_source_block           Cu0.5Ni0.5Ti1
_cod_original_cell_volume        56.32502
_cod_original_sg_symbol_Hall     '-P 2a 2a (y,-x,z)'
_cod_original_formula_sum        'Cu0.5 Ni0.5 Ti1'
_cod_database_code               1533015
loop_
_symmetry_equiv_pos_as_xyz
x,y,z
-x,-y+1/2,z
-x,y+1/2,-z
x,-y,-z
-x,-y,-z
x,y-1/2,-z
x,-y-1/2,z
-x,y,z
loop_
_atom_site_label
_atom_site_type_symbol
_atom_site_fract_x
_atom_site_fract_y
_atom_site_fract_z
_atom_site_occupancy
_atom_site_U_iso_or_equiv
Ti2 Ti 0 0.25 0.698 0.04 0.0
Cu1 Cu 0.5 0.25 0.225 0.02 0.0
Ni2 Ni 0 0.25 0.698 0.48 0.0
Ni1 Ni 0.5 0.25 0.225 0.02 0.0
Ti1 Ti 0.5 0.25 0.225 0.96 0.0
Cu2 Cu 0 0.25 0.698 0.48 0.0
