#------------------------------------------------------------------------------
#$Date: 2016-02-13 21:28:24 +0200 (Sat, 13 Feb 2016) $
#$Revision: 176429 $
#$URL: svn://www.crystallography.net/cod/cif/1/53/32/1533263.cif $
#------------------------------------------------------------------------------
#
# This file is available in the Crystallography Open Database (COD),
# http://www.crystallography.net/
#
# All data on this site have been placed in the public domain by the
# contributors.
#
data_1533263
loop_
_publ_author_name
'Yao, J.-Y.'
'Ellis, D.E.'
'Deng, B.'
'Ibers, J.A.'
_publ_section_title
;
 Syntheses, structures, physical properties and electronic structures of K
 Ln2 Cu S4 (Ln = Dy, Nd, Sm, Tb, Ho) and K2 Ln4 Cu4 S9 (Ln = Dy, Ho)
;
_journal_name_full               'Journal of Solid State Chemistry'
_journal_page_first              5
_journal_page_last               12
_journal_volume                  176
_journal_year                    2003
_chemical_formula_sum            'Cu Ho2 K S4'
_chemical_name_systematic        'K Ho2 Cu S4'
_space_group_IT_number           63
_symmetry_space_group_name_Hall  '-C 2c 2'
_symmetry_space_group_name_H-M   'C m c m'
_cell_angle_alpha                90
_cell_angle_beta                 90
_cell_angle_gamma                90
_cell_formula_units_Z            4
_cell_length_a                   3.9378
_cell_length_b                   13.333
_cell_length_c                   13.6487
_cell_volume                     716.593
_citation_journal_id_ASTM        JSSCBI
_cod_data_source_file            Yao_JSSCBI_2003_251.cif
_cod_data_source_block           Cu1Ho2K1S4
_cod_original_cell_volume        716.5934
_cod_original_formula_sum        'Cu1 Ho2 K1 S4'
_cod_database_code               1533263
loop_
_symmetry_equiv_pos_as_xyz
x,y,z
-x,-y,z+1/2
x,-y,-z
-x,y,-z+1/2
-x,-y,-z
x,y,-z-1/2
-x,y,z
x,-y,z-1/2
x+1/2,y+1/2,z
-x+1/2,-y+1/2,z+1/2
x+1/2,-y+1/2,-z
-x+1/2,y+1/2,-z+1/2
-x+1/2,-y+1/2,-z
x+1/2,y+1/2,-z-1/2
-x+1/2,y+1/2,z
x+1/2,-y+1/2,z-1/2
loop_
_atom_site_label
_atom_site_type_symbol
_atom_site_fract_x
_atom_site_fract_y
_atom_site_fract_z
_atom_site_occupancy
_atom_site_U_iso_or_equiv
K1 K+1 0 0.10995 0.25 1 0.0
Cu1 Cu+1 0 0.8373 0.25 1 0.0
S2 S-2 0 0.26409 0.61017 1 0.0
Ho1 Ho+3 0 0.3659 0.063193 1 0.0
S1 S-2 0 0.43255 0.25 1 0.0
S3 S-2 0 0 0 1 0.0
