#------------------------------------------------------------------------------
#$Date: 2015-10-01 16:02:45 +0300 (Thu, 01 Oct 2015) $
#$Revision: 159340 $
#$URL: svn://www.crystallography.net/cod/cif/1/53/32/1533217.cif $
#------------------------------------------------------------------------------
#
# This file is available in the Crystallography Open Database (COD),
# http://www.crystallography.net/
#
# All data on this site have been placed in the public domain by the
# contributors.
#
data_1533217
loop_
_publ_author_name
'Nehdi, I.'
'Abdellaoui, M.'
'Bessais, L.'
'Zarrouk, H.'
'Djega-Mariadassou, C.'
_publ_section_title
;
 Structural and magnetic properties of Sm2 Fe17-x Crx C2 nanocrystalline
 carbides with 0 <= x <= 2
;
_journal_name_full               'Journal of Alloys Compd.'
_journal_page_first              14
_journal_page_last               20
_journal_volume                  360
_journal_year                    2003
_chemical_formula_sum            'C2 Cr2 Fe15 Sm2'
_chemical_name_systematic        'Sm2 Fe15 Cr2 C2'
_space_group_IT_number           166
_symmetry_space_group_name_Hall  '-R 3 2"'
_symmetry_space_group_name_H-M   'R -3 m :H'
_cell_angle_alpha                90
_cell_angle_beta                 90
_cell_angle_gamma                120
_cell_formula_units_Z            3
_cell_length_a                   8.676
_cell_length_b                   8.676
_cell_length_c                   12.521
_cell_volume                     816.223
_citation_journal_id_ASTM        JALCEU
_cod_data_source_file            Nehdi_JALCEU_2003_72.cif
_cod_data_source_block           C2Cr2Fe15Sm2
_cod_original_cell_volume        816.2228
_cod_database_code               1533217
loop_
_symmetry_equiv_pos_as_xyz
x,y,z
-y,x-y,z
-x+y,-x,z
y,x,-z
-x,-x+y,-z
x-y,-y,-z
-x,-y,-z
y,-x+y,-z
x-y,x,-z
-y,-x,z
x,x-y,z
-x+y,y,z
x+2/3,y+1/3,z+1/3
-y+2/3,x-y+1/3,z+1/3
-x+y+2/3,-x+1/3,z+1/3
y+2/3,x+1/3,-z+1/3
-x+2/3,-x+y+1/3,-z+1/3
x-y+2/3,-y+1/3,-z+1/3
-x+2/3,-y+1/3,-z+1/3
y+2/3,-x+y+1/3,-z+1/3
x-y+2/3,x+1/3,-z+1/3
-y+2/3,-x+1/3,z+1/3
x+2/3,x-y+1/3,z+1/3
-x+y+2/3,y+1/3,z+1/3
x+1/3,y+2/3,z+2/3
-y+1/3,x-y+2/3,z+2/3
-x+y+1/3,-x+2/3,z+2/3
y+1/3,x+2/3,-z+2/3
-x+1/3,-x+y+2/3,-z+2/3
x-y+1/3,-y+2/3,-z+2/3
-x+1/3,-y+2/3,-z+2/3
y+1/3,-x+y+2/3,-z+2/3
x-y+1/3,x+2/3,-z+2/3
-y+1/3,-x+2/3,z+2/3
x+1/3,x-y+2/3,z+2/3
-x+y+1/3,y+2/3,z+2/3
loop_
_atom_site_label
_atom_site_type_symbol
_atom_site_fract_x
_atom_site_fract_y
_atom_site_fract_z
_atom_site_occupancy
_atom_site_U_iso_or_equiv
C1 C 0.5 0 0 0.667 0.0
Cr1 Cr 0 0 0.091 1 0.0
Sm1 Sm 0 0 0.346 1 0.0
Fe2 Fe 0.281 0 0 1 0.0
Fe4 Fe 0.5 0 0.5 1 0.0
Fe3 Fe 0.504 0.496 0.153 1 0.0
