#------------------------------------------------------------------------------
#$Date: 2016-02-13 21:28:24 +0200 (Sat, 13 Feb 2016) $
#$Revision: 176429 $
#$URL: svn://www.crystallography.net/cod/cif/1/53/35/1533542.cif $
#------------------------------------------------------------------------------
#
# This file is available in the Crystallography Open Database (COD),
# http://www.crystallography.net/
#
# All data on this site have been placed in the public domain by the
# contributors.
#
data_1533542
loop_
_publ_author_name
'Tancret, N.'
'Abraham, F.'
'Roussel, P.'
_publ_section_title
;
 New Ba5 M5-x Ptx Cl O13 (M= Fe, Co) oxychlorides with layered
 perovskite-related structure
;
_journal_name_full               'Journal of Solid State Chemistry'
_journal_page_first              1023
_journal_page_last               1031
_journal_volume                  177
_journal_year                    2004
_chemical_formula_sum            'Ba5 Cl Co4.028 O13 Pt0.972'
_chemical_name_systematic        'Ba5 Co4.028 Pt0.972 Cl O13'
_space_group_IT_number           194
_symmetry_space_group_name_Hall  '-P 6c 2c'
_symmetry_space_group_name_H-M   'P 63/m m c'
_cell_angle_alpha                90
_cell_angle_beta                 90
_cell_angle_gamma                120
_cell_formula_units_Z            2
_cell_length_a                   5.7055
_cell_length_b                   5.7055
_cell_length_c                   24.736
_cell_volume                     697.345
_citation_journal_id_ASTM        JSSCBI
_cod_data_source_file            Tancret_JSSCBI_2004_1612.cif
_cod_data_source_block           Ba5Cl1Co4.028O13Pt0.972
_cod_original_cell_volume        697.3448
_cod_original_formula_sum        'Ba5 Cl1 Co4.028 O13 Pt0.972'
_cod_database_code               1533542
loop_
_symmetry_equiv_pos_as_xyz
x,y,z
x-y,x,z+1/2
-y,x-y,z
-x,-y,z+1/2
-x+y,-x,z
y,-x+y,z+1/2
-y,-x,-z+1/2
x-y,-y,-z
x,x-y,-z+1/2
y,x,-z
-x+y,y,-z+1/2
-x,-x+y,-z
-x,-y,-z
-x+y,-x,-z-1/2
y,-x+y,-z
x,y,-z-1/2
x-y,x,-z
-y,x-y,-z-1/2
y,x,z-1/2
-x+y,y,z
-x,-x+y,z-1/2
-y,-x,z
x-y,-y,z-1/2
x,x-y,z
loop_
_atom_site_label
_atom_site_type_symbol
_atom_site_fract_x
_atom_site_fract_y
_atom_site_fract_z
_atom_site_occupancy
_atom_site_U_iso_or_equiv
Ba3 Ba+2 0.3333 0.6667 0.95928 1 0.0
Ba1 Ba+2 0 0 0.25 1 0.0
Co3 Co+3 0 0 0 0.516 0.0
O1 O-2 0.3222 0.1611 0.34881 1 0.0
O3 O-2 0.3333 0.6667 0.75 1 0.0
O2 O-2 0.7 0.85 0.44822 1 0.0
Cl1 Cl-1 0.3333 0.6667 0.25 1 0.0
Co2 Co+3 0.3333 0.6667 0.8216 1 0.0
Ba2 Ba+2 0.3333 0.6667 0.37017 1 0.0
Pt2 Pt+4 0 0 0 0.484 0.0
Co1 Co+3 0 0 0.60476 0.756 0.0
Pt1 Pt+4 0 0 0.60476 0.244 0.0
