#------------------------------------------------------------------------------
#$Date: 2015-10-05 12:20:10 +0300 (Mon, 05 Oct 2015) $
#$Revision: 159800 $
#$URL: svn://www.crystallography.net/cod/cif/1/53/35/1533546.cif $
#------------------------------------------------------------------------------
#
# This file is available in the Crystallography Open Database (COD),
# http://www.crystallography.net/
#
# All data on this site have been placed in the public domain by the
# contributors.
#
data_1533546
loop_
_publ_author_name
'Grytsiv, A.V.'
'Daoud-Aladine, A.'
'Berger, S.'
'Bauer, E.'
'Hilscher, G.'
'Noel, H.'
'Paul, C.'
'Michor, H.'
'Rogl, P.'
'Keller, L.'
'Roisnel, T.'
_publ_section_title
;
 Novel (Zn9)-cluster compounds RE2 Zn6 Ge3 (RE= La, Ce, Pr, Nd, Sm, Gd):
 crystal structure and physical properties
;
_journal_name_full               'Journal of Physics: Condensed Matter'
_journal_page_first              3053
_journal_page_last               3067
_journal_volume                  15
_journal_year                    2003
_chemical_formula_sum            'Ge3 La2 Zn6'
_chemical_name_systematic        'La2 Zn6 Ge3'
_space_group_IT_number           189
_symmetry_space_group_name_Hall  'P -6 -2'
_symmetry_space_group_name_H-M   'P -6 2 m'
_cell_angle_alpha                90
_cell_angle_beta                 90
_cell_angle_gamma                120
_cell_formula_units_Z            1
_cell_length_a                   7.7088
_cell_length_b                   7.7088
_cell_length_c                   4.1496
_cell_volume                     213.555
_citation_journal_id_ASTM        JCOMEL
_cod_data_source_file            Grytsiv_JCOMEL_2003_741.cif
_cod_data_source_block           Ge3La2Zn6
_cod_original_cell_volume        213.5553
_cod_database_code               1533546
loop_
_symmetry_equiv_pos_as_xyz
x,y,z
-x+y,-x,-z
-y,x-y,z
x,y,-z
-x+y,-x,z
-y,x-y,-z
y,x,z
x-y,-y,-z
-x,-x+y,z
y,x,-z
x-y,-y,z
-x,-x+y,-z
loop_
_atom_site_label
_atom_site_type_symbol
_atom_site_fract_x
_atom_site_fract_y
_atom_site_fract_z
_atom_site_occupancy
_atom_site_U_iso_or_equiv
Zn1 Zn 0.188 0 0 1 0.0
Ge1 Ge 0.3775 0 0.5 1 0.0
La1 La 0.3333 0.6667 0 1 0.0
Zn2 Zn 0.7089 0 0.5 1 0.0
