#------------------------------------------------------------------------------
#$Date: 2016-02-13 21:28:24 +0200 (Sat, 13 Feb 2016) $
#$Revision: 176429 $
#$URL: svn://www.crystallography.net/cod/cif/1/53/46/1534699.cif $
#------------------------------------------------------------------------------
#
# This file is available in the Crystallography Open Database (COD),
# http://www.crystallography.net/
#
# All data on this site have been placed in the public domain by the
# contributors.
#
data_1534699
loop_
_publ_author_name
'Schroeder, L.'
'Keller, H.'
_publ_section_title
;
 Darstellung und Kristallstruktur von Cs2HgPdCl6, eine Verzerrungsvariante
 der Chloroperowskite
;
_journal_name_full
'Zeitschrift fuer Anorganische und Allgemeine Chemie'
_journal_page_first              69
_journal_page_last               76
_journal_volume                  603
_journal_year                    1991
_chemical_formula_sum            'Cl6 Cs2 Hg Pd'
_chemical_name_systematic        'Cs2 Hg Pd Cl6'
_space_group_IT_number           139
_symmetry_space_group_name_Hall  '-I 4 2'
_symmetry_space_group_name_H-M   'I 4/m m m'
_cell_angle_alpha                90
_cell_angle_beta                 90
_cell_angle_gamma                90
_cell_formula_units_Z            2
_cell_length_a                   7.432
_cell_length_b                   7.432
_cell_length_c                   10.874
_cell_volume                     600.621
_citation_journal_id_ASTM        ZAACAB
_cod_data_source_file            Schroeder_ZAACAB_1991_82.cif
_cod_data_source_block           Cl6Cs2Hg1Pd1
_cod_original_cell_volume        600.6213
_cod_original_formula_sum        'Cl6 Cs2 Hg1 Pd1'
_cod_database_code               1534699
loop_
_symmetry_equiv_pos_as_xyz
x,y,z
-y,x,z
-x,-y,z
y,-x,z
x,-y,-z
y,x,-z
-x,y,-z
-y,-x,-z
-x,-y,-z
y,-x,-z
x,y,-z
-y,x,-z
-x,y,z
-y,-x,z
x,-y,z
y,x,z
x+1/2,y+1/2,z+1/2
-y+1/2,x+1/2,z+1/2
-x+1/2,-y+1/2,z+1/2
y+1/2,-x+1/2,z+1/2
x+1/2,-y+1/2,-z+1/2
y+1/2,x+1/2,-z+1/2
-x+1/2,y+1/2,-z+1/2
-y+1/2,-x+1/2,-z+1/2
-x+1/2,-y+1/2,-z+1/2
y+1/2,-x+1/2,-z+1/2
x+1/2,y+1/2,-z+1/2
-y+1/2,x+1/2,-z+1/2
-x+1/2,y+1/2,z+1/2
-y+1/2,-x+1/2,z+1/2
x+1/2,-y+1/2,z+1/2
y+1/2,x+1/2,z+1/2
loop_
_atom_site_label
_atom_site_type_symbol
_atom_site_fract_x
_atom_site_fract_y
_atom_site_fract_z
_atom_site_occupancy
_atom_site_U_iso_or_equiv
Pd1 Pd+2 0 0 0 1 0.0
Hg1 Hg+2 0 0 0.5 1 0.0
Cl1 Cl-1 0 0 0.288 1 0.0
Cs1 Cs+1 0 0.5 0.25 1 0.0
Cl2 Cl-1 0.218 0.218 0 1 0.0
