#------------------------------------------------------------------------------
#$Date: 2015-10-09 14:11:58 +0300 (Fri, 09 Oct 2015) $
#$Revision: 161756 $
#$URL: svn://www.crystallography.net/cod/cif/1/53/47/1534775.cif $
#------------------------------------------------------------------------------
#
# This file is available in the Crystallography Open Database (COD),
# http://www.crystallography.net/
#
# All data on this site have been placed in the public domain by the
# contributors.
#
data_1534775
loop_
_publ_author_name
'Lukachuk, M.'
'Poettgen, R.'
'Kal'ichak, Ya.M.'
'Dzevenko, M.'
_publ_section_title
;
 On the Crystal Chemistry of Tm2 Ni1.896(4) In, Tm2.22(2) Ni1.81(1)
 In0.78(2), Tm4.83(3) Ni2 In1.17(3), and Er5 Ni2 In
;
_journal_name_full               'Journal of Solid State Chemistry'
_journal_page_first              1247
_journal_page_last               1253
_journal_volume                  178
_journal_year                    2005
_chemical_formula_sum            'In0.78 Ni1.81 Tm2.22'
_chemical_name_systematic        'Tm2.22 Ni1.81 In0.78'
_space_group_IT_number           127
_symmetry_space_group_name_Hall  '-P 4 2ab'
_symmetry_space_group_name_H-M   'P 4/m b m'
_cell_angle_alpha                90
_cell_angle_beta                 90
_cell_angle_gamma                90
_cell_formula_units_Z            2
_cell_length_a                   7.3437
_cell_length_b                   7.3437
_cell_length_c                   3.586
_cell_volume                     193.393
_citation_journal_id_ASTM        JSSCBI
_cod_data_source_file            Lukachuk_JSSCBI_2005_1815.cif
_cod_data_source_block           In0.78Ni1.81Tm2.22
_cod_original_cell_volume        193.3927
_cod_database_code               1534775
loop_
_symmetry_equiv_pos_as_xyz
x,y,z
-y,x,z
-x,-y,z
y,-x,z
x+1/2,-y+1/2,-z
y+1/2,x+1/2,-z
-x+1/2,y+1/2,-z
-y+1/2,-x+1/2,-z
-x,-y,-z
y,-x,-z
x,y,-z
-y,x,-z
-x-1/2,y-1/2,z
-y-1/2,-x-1/2,z
x-1/2,-y-1/2,z
y-1/2,x-1/2,z
loop_
_atom_site_label
_atom_site_type_symbol
_atom_site_fract_x
_atom_site_fract_y
_atom_site_fract_z
_atom_site_occupancy
_atom_site_U_iso_or_equiv
Tm2 Tm 0 0 0 0.221 0.0
In1 In 0 0 0 0.779 0.0
Tm1 Tm 0.17057 0.67057 0.5 1 0.0
Ni1 Ni 0.3768 0.8768 0 0.907 0.0
