#------------------------------------------------------------------------------
#$Date: 2015-10-09 15:26:49 +0300 (Fri, 09 Oct 2015) $
#$Revision: 161965 $
#$URL: svn://www.crystallography.net/cod/cif/1/53/48/1534899.cif $
#------------------------------------------------------------------------------
#
# This file is available in the Crystallography Open Database (COD),
# http://www.crystallography.net/
#
# All data on this site have been placed in the public domain by the
# contributors.
#
data_1534899
loop_
_publ_author_name
'Beagley, B.'
'Henderson, C.M.B.'
'Taylor, D.'
_publ_section_title
;
 The crystal structures of aluminoslicate-sodalites: X-ray diffraction
 studies and computer modelling
;
_journal_name_full               'Mineralogical Magazine (1969-)'
_journal_page_first              459
_journal_page_last               464
_journal_volume                  46
_journal_year                    1982
_chemical_formula_sum            'Al6 I2 Na8 O24 Si6'
_chemical_name_systematic        'Na8 (Al6 Si6 O24) I2'
_space_group_IT_number           217
_symmetry_space_group_name_Hall  'I -4 2 3'
_symmetry_space_group_name_H-M   'I -4 3 m'
_cell_angle_alpha                90
_cell_angle_beta                 90
_cell_angle_gamma                90
_cell_formula_units_Z            1
_cell_length_a                   9.008
_cell_length_b                   9.008
_cell_length_c                   9.008
_cell_volume                     730.946
_citation_journal_id_ASTM        MNLMBB
_cod_data_source_file            Beagley_MNLMBB_1982_267.cif
_cod_data_source_block           Al6I2Na8O24Si6
_cod_original_cell_volume        730.9458
_cod_database_code               1534899
loop_
_symmetry_equiv_pos_as_xyz
x,y,z
y,-x,-z
-x,-y,z
-y,x,-z
x,-y,-z
-y,-x,z
-x,y,-z
y,x,z
z,x,y
x,-z,-y
-z,-x,y
-x,z,-y
z,-x,-y
-x,-z,y
-z,x,-y
x,z,y
y,z,x
y,-z,-x
-z,-y,x
-y,z,-x
z,y,x
-y,-z,x
-z,y,-x
z,-y,-x
x+1/2,y+1/2,z+1/2
y+1/2,-x+1/2,-z+1/2
-x+1/2,-y+1/2,z+1/2
-y+1/2,x+1/2,-z+1/2
x+1/2,-y+1/2,-z+1/2
-y+1/2,-x+1/2,z+1/2
-x+1/2,y+1/2,-z+1/2
y+1/2,x+1/2,z+1/2
z+1/2,x+1/2,y+1/2
x+1/2,-z+1/2,-y+1/2
-z+1/2,-x+1/2,y+1/2
-x+1/2,z+1/2,-y+1/2
z+1/2,-x+1/2,-y+1/2
-x+1/2,-z+1/2,y+1/2
-z+1/2,x+1/2,-y+1/2
x+1/2,z+1/2,y+1/2
y+1/2,z+1/2,x+1/2
y+1/2,-z+1/2,-x+1/2
-z+1/2,-y+1/2,x+1/2
-y+1/2,z+1/2,-x+1/2
z+1/2,y+1/2,x+1/2
-y+1/2,-z+1/2,x+1/2
-z+1/2,y+1/2,-x+1/2
z+1/2,-y+1/2,-x+1/2
loop_
_atom_site_label
_atom_site_type_symbol
_atom_site_fract_x
_atom_site_fract_y
_atom_site_fract_z
_atom_site_occupancy
_atom_site_U_iso_or_equiv
Na1 Na+1 0.1995 0.1995 0.1995 1 0.0
Al1 Al+3 0.25 0.5 0 0.5 0.0
Si1 Si+4 0.25 0 0.5 0.5 0.0
O1 O-2 0.1425 0.1425 0.4467 1 0.0
I1 I-1 0 0 0 1 0.0
