#------------------------------------------------------------------------------
#$Date: 2016-02-13 21:28:24 +0200 (Sat, 13 Feb 2016) $
#$Revision: 176429 $
#$URL: svn://www.crystallography.net/cod/cif/1/53/47/1534768.cif $
#------------------------------------------------------------------------------
#
# This file is available in the Crystallography Open Database (COD),
# http://www.crystallography.net/
#
# All data on this site have been placed in the public domain by the
# contributors.
#
data_1534768
loop_
_publ_author_name
'Lukachuk, M.'
'Zaremba, V.I.'
'Poettgen, R.'
_publ_section_title
;
 Synthesis and Crystal Structures of RERhIn (RE = Sm, Tb, Ho, Er, Tm, Yb,
 Lu)
;
_journal_name_full               Intermetallics
_journal_page_first              581
_journal_page_last               587
_journal_volume                  11
_journal_year                    2003
_chemical_formula_sum            'In Rh Sm'
_chemical_name_systematic        'Sm Rh In'
_space_group_IT_number           189
_symmetry_space_group_name_Hall  'P -6 -2'
_symmetry_space_group_name_H-M   'P -6 2 m'
_cell_angle_alpha                90
_cell_angle_beta                 90
_cell_angle_gamma                120
_cell_formula_units_Z            3
_cell_length_a                   7.5093
_cell_length_b                   7.5093
_cell_length_c                   3.9752
_cell_volume                     194.128
_citation_journal_id_ASTM        IERME5
_cod_data_source_file            Lukachuk_IERME5_2003_922.cif
_cod_data_source_block           In1Rh1Sm1
_cod_original_cell_volume        194.1282
_cod_original_formula_sum        'In1 Rh1 Sm1'
_cod_database_code               1534768
loop_
_symmetry_equiv_pos_as_xyz
x,y,z
-x+y,-x,-z
-y,x-y,z
x,y,-z
-x+y,-x,z
-y,x-y,-z
y,x,z
x-y,-y,-z
-x,-x+y,z
y,x,-z
x-y,-y,z
-x,-x+y,-z
loop_
_atom_site_label
_atom_site_type_symbol
_atom_site_fract_x
_atom_site_fract_y
_atom_site_fract_z
_atom_site_occupancy
_atom_site_U_iso_or_equiv
In1 In 0.74758 0 0 1 0.0
Rh1 Rh 0 0 0.5 1 0.0
Rh2 Rh 0.3333 0.6667 0 1 0.0
Sm1 Sm 0.40915 0 0.5 1 0.0
