#------------------------------------------------------------------------------
#$Date: 2018-09-27 07:13:35 +0300 (Thu, 27 Sep 2018) $
#$Revision: 211196 $
#$URL: file:///home/coder/svn-repositories/cod/cif/1/53/48/1534816.cif $
#------------------------------------------------------------------------------
#
# This file is available in the Crystallography Open Database (COD),
# http://www.crystallography.net/
#
# All data on this site have been placed in the public domain by the
# contributors.
#
data_1534816
loop_
_publ_author_name
'Baranov, A.I.'
'Isaeva, A.A.'
'Kloo, L.'
'Lunin, R.A.'
'Kulbachinskii, R.A.'
'Nikiforov, V.N.'
'Popovkin, B.A.'
_publ_section_title
;
 2D metal slabs in new nickel-tin chalcogenide Ni(7-delta) Sn Q2 (Q = Se,
 Te): crystal and electronic structure, chemical bonding and physical
 properties
;
_journal_name_full               'Journal of Solid State Chemistry'
_journal_page_first              3616
_journal_page_last               3625
_journal_volume                  177
_journal_year                    2004
_chemical_formula_sum            'Ni5.76 Sn Te2'
_space_group_IT_number           139
_symmetry_space_group_name_Hall  '-I 4 2'
_symmetry_space_group_name_H-M   'I 4/m m m'
_cell_angle_alpha                90
_cell_angle_beta                 90
_cell_angle_gamma                90
_cell_formula_units_Z            2
_cell_length_a                   3.768
_cell_length_b                   3.768
_cell_length_c                   19.419
_cell_volume                     275.708
_citation_journal_id_ASTM        JSSCBI
_cod_data_source_file            Baranov_JSSCBI_2004_1498.cif
_cod_data_source_block           Ni5.76Sn1Te2
_cod_original_cell_volume        275.7076
_cod_original_formula_sum        'Ni5.76 Sn1 Te2'
_cod_database_code               1534816
loop_
_symmetry_equiv_pos_as_xyz
x,y,z
-y,x,z
-x,-y,z
y,-x,z
x,-y,-z
y,x,-z
-x,y,-z
-y,-x,-z
-x,-y,-z
y,-x,-z
x,y,-z
-y,x,-z
-x,y,z
-y,-x,z
x,-y,z
y,x,z
x+1/2,y+1/2,z+1/2
-y+1/2,x+1/2,z+1/2
-x+1/2,-y+1/2,z+1/2
y+1/2,-x+1/2,z+1/2
x+1/2,-y+1/2,-z+1/2
y+1/2,x+1/2,-z+1/2
-x+1/2,y+1/2,-z+1/2
-y+1/2,-x+1/2,-z+1/2
-x+1/2,-y+1/2,-z+1/2
y+1/2,-x+1/2,-z+1/2
x+1/2,y+1/2,-z+1/2
-y+1/2,x+1/2,-z+1/2
-x+1/2,y+1/2,z+1/2
-y+1/2,-x+1/2,z+1/2
x+1/2,-y+1/2,z+1/2
y+1/2,x+1/2,z+1/2
loop_
_atom_site_label
_atom_site_type_symbol
_atom_site_fract_x
_atom_site_fract_y
_atom_site_fract_z
_atom_site_occupancy
_atom_site_U_iso_or_equiv
Ni1 Ni 0 -0.5 0.09403 1 0.0
Sn1 Sn 0 0 0 1 0.0
Ni3 Ni 0 -1 0.1904 0.396 0.0
Te1 Te -0.5 -0.5 0.1815 1 0.0
Ni2 Ni -0.5 -0.5 0 1 0.0
