#------------------------------------------------------------------------------
#$Date: 2015-10-09 13:31:17 +0300 (Fri, 09 Oct 2015) $
#$Revision: 161640 $
#$URL: svn://www.crystallography.net/cod/cif/1/53/46/1534696.cif $
#------------------------------------------------------------------------------
#
# This file is available in the Crystallography Open Database (COD),
# http://www.crystallography.net/
#
# All data on this site have been placed in the public domain by the
# contributors.
#
data_1534696
loop_
_publ_author_name
'Aurivillius, B.'
_publ_section_title
;
 On the crystal structure of a number of non-stoichiometric mixed lead
 oxide halides composed of Pb O like blocks and single halogen layers
;
_journal_name_full               'Chemica Scripta'
_journal_page_first              97
_journal_page_last               107
_journal_volume                  19
_journal_year                    1982
_chemical_formula_sum            'Cl1.8 O4 P0.9 Pb7.1'
_chemical_name_systematic        '((Pb O)7 (P O2.5) (Pb Cl2))0.9'
_space_group_IT_number           139
_symmetry_space_group_name_Hall  '-I 4 2'
_symmetry_space_group_name_H-M   'I 4/m m m'
_cell_angle_alpha                90
_cell_angle_beta                 90
_cell_angle_gamma                90
_cell_formula_units_Z            1
_cell_length_a                   3.9161
_cell_length_b                   3.9161
_cell_length_c                   22.746
_cell_volume                     348.829
_citation_journal_id_ASTM        CSRPB9
_cod_data_source_file            Aurivillius_CSRPB9_1982_327.cif
_cod_data_source_block           Cl1.8O4P0.9Pb7.1
_cod_database_code               1534696
loop_
_symmetry_equiv_pos_as_xyz
x,y,z
-y,x,z
-x,-y,z
y,-x,z
x,-y,-z
y,x,-z
-x,y,-z
-y,-x,-z
-x,-y,-z
y,-x,-z
x,y,-z
-y,x,-z
-x,y,z
-y,-x,z
x,-y,z
y,x,z
x+1/2,y+1/2,z+1/2
-y+1/2,x+1/2,z+1/2
-x+1/2,-y+1/2,z+1/2
y+1/2,-x+1/2,z+1/2
x+1/2,-y+1/2,-z+1/2
y+1/2,x+1/2,-z+1/2
-x+1/2,y+1/2,-z+1/2
-y+1/2,-x+1/2,-z+1/2
-x+1/2,-y+1/2,-z+1/2
y+1/2,-x+1/2,-z+1/2
x+1/2,y+1/2,-z+1/2
-y+1/2,x+1/2,-z+1/2
-x+1/2,y+1/2,z+1/2
-y+1/2,-x+1/2,z+1/2
x+1/2,-y+1/2,z+1/2
y+1/2,x+1/2,z+1/2
loop_
_atom_site_label
_atom_site_type_symbol
_atom_site_fract_x
_atom_site_fract_y
_atom_site_fract_z
_atom_site_occupancy
_atom_site_U_iso_or_equiv
Pb2 Pb+2 0 0 0.30479 0.8875 0.0
Pb1 Pb+2 0 0 0.08382 0.8875 0.0
P2 P+5 0 0 0.30479 0.1125 0.0
P1 P+5 0 0 0.08382 0.1125 0.0
Cl1 Cl-1 0 0 0.5 0.9 0.0
O1 O-2 0.5 0 0.1556 0.5 0.0
