#------------------------------------------------------------------------------
#$Date: 2016-02-13 21:28:24 +0200 (Sat, 13 Feb 2016) $
#$Revision: 176429 $
#$URL: svn://www.crystallography.net/cod/cif/1/53/49/1534930.cif $
#------------------------------------------------------------------------------
#
# This file is available in the Crystallography Open Database (COD),
# http://www.crystallography.net/
#
# All data on this site have been placed in the public domain by the
# contributors.
#
data_1534930
loop_
_publ_author_name
'Beck, J.'
'Hedderich, S.'
_publ_section_title
;
 Expanded polycationic mercury - chalcogen networks in the layered
 compounds Hg3 E2 (M X6) (E = S, Se; M = Zr, Hf; X = Cl, Br)
;
_journal_name_full               'Journal of Solid State Chemistry'
_journal_page_first              12
_journal_page_last               16
_journal_volume                  172
_journal_year                    2003
_chemical_formula_sum            'Br6 Hg3 Se2 Zr'
_chemical_name_systematic        'Hg3 Se2 (Zr Br6)'
_space_group_IT_number           14
_symmetry_space_group_name_Hall  '-P 2yab'
_symmetry_space_group_name_H-M   'P 1 21/a 1'
_cell_angle_alpha                90
_cell_angle_beta                 92.164
_cell_angle_gamma                90
_cell_formula_units_Z            2
_cell_length_a                   13.5099
_cell_length_b                   7.5679
_cell_length_c                   7.0197
_cell_volume                     717.193
_citation_journal_id_ASTM        JSSCBI
_cod_data_source_file            Beck_JSSCBI_2003_633.cif
_cod_data_source_block           Br6Hg3Se2Zr1
_cod_original_cell_volume        717.1934
_cod_original_sg_symbol_Hall     '-P 2ybc (z,y,-x)'
_cod_original_formula_sum        'Br6 Hg3 Se2 Zr1'
_cod_database_code               1534930
loop_
_symmetry_equiv_pos_as_xyz
x,y,z
-x+1/2,y+1/2,-z
-x,-y,-z
x-1/2,-y-1/2,z
loop_
_atom_site_label
_atom_site_type_symbol
_atom_site_fract_x
_atom_site_fract_y
_atom_site_fract_z
_atom_site_occupancy
_atom_site_U_iso_or_equiv
Br1 Br-1 0.43857 0.6464 0.1778 1 0.0
Br3 Br-1 0.32629 0.5512 0.6436 1 0.0
Br2 Br-1 0.56511 0.8029 0.631 1 0.0
Se1 Se-2 0.16836 0.5421 0.1643 1 0.0
Zr1 Zr+4 0.5 0.5 0.5 1 0.0
Hg2 Hg+2 0.26318 0.30154 0.00874 1 0.0
Hg1 Hg+2 0 0.5 0 1 0.0
