#------------------------------------------------------------------------------
#$Date: 2018-02-05 00:40:03 +0200 (Mon, 05 Feb 2018) $
#$Revision: 206169 $
#$URL: file:///home/coder/svn-repositories/cod/cif/1/53/45/1534528.cif $
#------------------------------------------------------------------------------
#
# This file is available in the Crystallography Open Database (COD),
# http://www.crystallography.net/
#
# All data on this site have been placed in the public domain by the
# contributors.
#
data_1534528
loop_
_publ_author_name
'Gerlitzki, N.'
'Hammerich, S.'
'Meyer, G.'
_publ_section_title
;
 New ternary iodides of lanthanum and cerium, A(II) M I4 (A = Sr, Ba, Nd,
 Sm, Eu; M = La, Ge)
;
_journal_name_full
'Zeitschrift fuer Anorganische und Allgemeine Chemie'
_journal_page_first              2431
_journal_page_last               2433
_journal_volume                  630
_journal_year                    2004
_chemical_formula_sum            'Ce I4 Nd'
_chemical_name_systematic        'Nd Ce I4'
_space_group_crystal_system      monoclinic
_space_group_IT_number           15
_space_group_name_Hall           '-I 2ya'
_space_group_name_H-M_alt        'I 1 2/a 1'
_cell_angle_alpha                90
_cell_angle_beta                 101.36
_cell_angle_gamma                90
_cell_formula_units_Z            4
_cell_length_a                   7.3552
_cell_length_b                   14.776
_cell_length_c                   8.638
_cell_volume                     920.390
_citation_journal_id_ASTM        ZAACAB
_cod_data_source_file            Gerlitzki_ZAACAB_2004_1558.cif
_cod_data_source_block           Ce1I4Nd1
_cod_original_cell_volume        920.3898
_cod_original_formula_sum        'Ce1 I4 Nd1'
_cod_database_code               1534528
loop_
_space_group_symop_id
_space_group_symop_operation_xyz
1 x,y,z
2 -x+1/2,y,-z
3 -x,-y,-z
4 x-1/2,-y,z
5 x+1/2,y+1/2,z+1/2
6 -x+1,y+1/2,-z+1/2
7 -x+1/2,-y+1/2,-z+1/2
8 x,-y+1/2,z+1/2
loop_
_atom_site_label
_atom_site_type_symbol
_atom_site_fract_x
_atom_site_fract_y
_atom_site_fract_z
_atom_site_occupancy
_atom_site_U_iso_or_equiv
Ce1 Ce+2 0.25 0.50006 0 1 0.0
Nd1 Nd+2 0.25 0.36495 0.5 1 0.0
I1 I-1 0.03002 0.32347 0.11941 1 0.0
I2 I-1 0.07233 0.5634 0.30183 1 0.0
