#------------------------------------------------------------------------------
#$Date: 2018-09-27 07:13:35 +0300 (Thu, 27 Sep 2018) $
#$Revision: 211196 $
#$URL: file:///home/coder/svn-repositories/cod/cif/1/53/44/1534493.cif $
#------------------------------------------------------------------------------
#
# This file is available in the Crystallography Open Database (COD),
# http://www.crystallography.net/
#
# All data on this site have been placed in the public domain by the
# contributors.
#
data_1534493
loop_
_publ_author_name
'Salloum, D.'
'Gautier, R.'
'Gougeon, P.'
'Potel, M.'
_publ_section_title
;
 Syntheses and structural trends of the In(x) Mo15 S19 (0 <= x <= 3.7)
 compounds containing Mo6 and Mo9 clusters
;
_journal_name_full               'Journal of Solid State Chemistry'
_journal_page_first              1672
_journal_page_last               1680
_journal_volume                  177
_journal_year                    2004
_chemical_formula_sum            'In2.9 Mo15 S19'
_space_group_IT_number           176
_symmetry_space_group_name_Hall  '-P 6c'
_symmetry_space_group_name_H-M   'P 63/m'
_cell_angle_alpha                90
_cell_angle_beta                 90
_cell_angle_gamma                120
_cell_formula_units_Z            2
_cell_length_a                   9.4236
_cell_length_b                   9.4236
_cell_length_c                   18.8955
_cell_volume                     1453.191
_citation_journal_id_ASTM        JSSCBI
_cod_data_source_file            Salloum_JSSCBI_2004_1196.cif
_cod_data_source_block           In2.9Mo15S19
_cod_database_code               1534493
loop_
_symmetry_equiv_pos_as_xyz
x,y,z
x-y,x,z+1/2
-y,x-y,z
-x,-y,z+1/2
-x+y,-x,z
y,-x+y,z+1/2
-x,-y,-z
-x+y,-x,-z-1/2
y,-x+y,-z
x,y,-z-1/2
x-y,x,-z
-y,x-y,-z-1/2
loop_
_atom_site_label
_atom_site_type_symbol
_atom_site_fract_x
_atom_site_fract_y
_atom_site_fract_z
_atom_site_occupancy
_atom_site_U_iso_or_equiv
Mo3 Mo 0.16024 -0.34489 -0.25 1 0.0
In1 In -0.04626 -0.20263 -0.25 0.3355 0.0
Mo2 Mo 0.31785 -0.17869 -0.130974 1 0.0
Mo1 Mo 0.17227 0.01521 0.058909 1 0.0
S1 S 0.31702 0.0335 -0.05072 1 0.0
S3 S 0.31296 -0.04195 -0.25 1 0.0
S5 S 0.6667 0.3333 0.03303 1 0.0
S2 S 1.01586 0.63197 -0.1392 1 0.0
S4 S 0 0 -0.15804 1 0.0
In2 In 0.6667 0.3333 -0.12058 0.949 0.0
