#------------------------------------------------------------------------------
#$Date: 2016-02-13 21:28:24 +0200 (Sat, 13 Feb 2016) $
#$Revision: 176429 $
#$URL: svn://www.crystallography.net/cod/cif/1/53/49/1534926.cif $
#------------------------------------------------------------------------------
#
# This file is available in the Crystallography Open Database (COD),
# http://www.crystallography.net/
#
# All data on this site have been placed in the public domain by the
# contributors.
#
data_1534926
loop_
_publ_author_name
'Beck, J.'
'Hedderich, S.'
_publ_section_title
;
 Expanded polycationic mercury - chalcogen networks in the layered
 compounds Hg3 E2 (M X6) (E= S, Se; M= Zr, Hf; X= Cl, Br)
;
_journal_name_full               'Journal of Solid State Chemistry'
_journal_page_first              12
_journal_page_last               16
_journal_volume                  172
_journal_year                    2003
_chemical_formula_sum            'Cl6 Hf Hg3 Se2'
_chemical_name_systematic        'Hg3 Se2 (Hf Cl6)'
_space_group_IT_number           14
_symmetry_space_group_name_Hall  '-P 2yab'
_symmetry_space_group_name_H-M   'P 1 21/a 1'
_cell_angle_alpha                90
_cell_angle_beta                 91.992
_cell_angle_gamma                90
_cell_formula_units_Z            2
_cell_length_a                   13.095
_cell_length_b                   7.499
_cell_length_c                   6.6272
_cell_volume                     650.394
_citation_journal_id_ASTM        JSSCBI
_cod_data_source_file            Beck_JSSCBI_2003_632.cif
_cod_data_source_block           Cl6Hf1Hg3Se2
_cod_original_cell_volume        650.3939
_cod_original_sg_symbol_Hall     '-P 2ybc (z,y,-x)'
_cod_original_formula_sum        'Cl6 Hf1 Hg3 Se2'
_cod_database_code               1534926
loop_
_symmetry_equiv_pos_as_xyz
x,y,z
-x+1/2,y+1/2,-z
-x,-y,-z
x-1/2,-y-1/2,z
loop_
_atom_site_label
_atom_site_type_symbol
_atom_site_fract_x
_atom_site_fract_y
_atom_site_fract_z
_atom_site_occupancy
_atom_site_U_iso_or_equiv
Cl1 Cl-1 0.4418 0.6482 0.1884 1 0.0
Hg2 Hg+2 0.26267 0.29625 0.0065 1 0.0
Se1 Se-2 0.169 0.537 0.1815 1 0.0
Hg1 Hg+2 0 0.5 0 1 0.0
Cl2 Cl-1 0.5666 0.7814 0.638 1 0.0
Hf1 Hf+4 0.5 0.5 0.5 1 0.0
Cl3 Cl-1 0.3339 0.5517 0.6495 1 0.0
