#------------------------------------------------------------------------------
#$Date: 2016-02-13 21:28:24 +0200 (Sat, 13 Feb 2016) $
#$Revision: 176429 $
#$URL: svn://www.crystallography.net/cod/cif/1/53/45/1534501.cif $
#------------------------------------------------------------------------------
#
# This file is available in the Crystallography Open Database (COD),
# http://www.crystallography.net/
#
# All data on this site have been placed in the public domain by the
# contributors.
#
data_1534501
loop_
_publ_author_name
'Lejay, P.'
'Higashi, I.'
'Chevalier, B.'
'Etourneau, J.'
'Hagenmuller, P.'
_publ_section_title
;
 Crystal structure of new superconducting materials La Ir Si3 and La Rh
 Si3. Structural relation between La Rh2 Si2, La2 Rh3 Si5 and La Rh Si3
;
_journal_name_full               'Materials Research Bulletin'
_journal_page_first              115
_journal_page_last               123
_journal_volume                  19
_journal_year                    1984
_chemical_formula_sum            'Ir La Si3'
_chemical_name_systematic        'La Ir Si3'
_space_group_IT_number           107
_symmetry_space_group_name_Hall  'I 4 -2'
_symmetry_space_group_name_H-M   'I 4 m m'
_cell_angle_alpha                90
_cell_angle_beta                 90
_cell_angle_gamma                90
_cell_formula_units_Z            2
_cell_length_a                   4.278
_cell_length_b                   4.278
_cell_length_c                   9.83
_cell_volume                     179.902
_citation_journal_id_ASTM        MRBUAC
_cod_data_source_file            Lejay_MRBUAC_1984_626.cif
_cod_data_source_block           Ir1La1Si3
_cod_original_cell_volume        179.9016
_cod_original_formula_sum        'Ir1 La1 Si3'
_cod_database_code               1534501
loop_
_symmetry_equiv_pos_as_xyz
x,y,z
-y,x,z
-x,-y,z
y,-x,z
-x,y,z
-y,-x,z
x,-y,z
y,x,z
x+1/2,y+1/2,z+1/2
-y+1/2,x+1/2,z+1/2
-x+1/2,-y+1/2,z+1/2
y+1/2,-x+1/2,z+1/2
-x+1/2,y+1/2,z+1/2
-y+1/2,-x+1/2,z+1/2
x+1/2,-y+1/2,z+1/2
y+1/2,x+1/2,z+1/2
loop_
_atom_site_label
_atom_site_type_symbol
_atom_site_fract_x
_atom_site_fract_y
_atom_site_fract_z
_atom_site_occupancy
_atom_site_U_iso_or_equiv
La1 La 0 0 0 1 0.0
Si2 Si 0 0.5 0.2615 1 0.0
Ir1 Ir 0 0 0.6553 1 0.0
Si1 Si 0 0 0.4112 1 0.0
