#------------------------------------------------------------------------------
#$Date: 2015-10-09 13:35:12 +0300 (Fri, 09 Oct 2015) $
#$Revision: 161655 $
#$URL: svn://www.crystallography.net/cod/cif/1/53/47/1534705.cif $
#------------------------------------------------------------------------------
#
# This file is available in the Crystallography Open Database (COD),
# http://www.crystallography.net/
#
# All data on this site have been placed in the public domain by the
# contributors.
#
data_1534705
loop_
_publ_author_name
'Aurivillius, B.'
_publ_section_title
;
 On the Crystal Structure of Some Non-Stoichiometric Mixed Lead Oxide
 Halides and Their Relation to the Minerals "Lorettoite" and Sundiusite
;
_journal_name_full               'Chemica Scripta'
_journal_page_first              5
_journal_page_last               11
_journal_volume                  22
_journal_year                    1983
_chemical_formula_sum            'Cl2 O8 Pb7.5 S0.5'
_chemical_name_systematic        '(Pb O)6.5 (S O3).5 Pb Cl2'
_space_group_IT_number           139
_symmetry_space_group_name_Hall  '-I 4 2'
_symmetry_space_group_name_H-M   'I 4/m m m'
_cell_angle_alpha                90
_cell_angle_beta                 90
_cell_angle_gamma                90
_cell_formula_units_Z            1
_cell_length_a                   3.9346
_cell_length_b                   3.9346
_cell_length_c                   23.209
_cell_volume                     359.300
_citation_journal_id_ASTM        CSRPB9
_cod_data_source_file            Aurivillius_CSRPB9_1983_505.cif
_cod_data_source_block           Cl2O8Pb7.5S0.5
_cod_original_cell_volume        359.3003
_cod_database_code               1534705
loop_
_symmetry_equiv_pos_as_xyz
x,y,z
-y,x,z
-x,-y,z
y,-x,z
x,-y,-z
y,x,-z
-x,y,-z
-y,-x,-z
-x,-y,-z
y,-x,-z
x,y,-z
-y,x,-z
-x,y,z
-y,-x,z
x,-y,z
y,x,z
x+1/2,y+1/2,z+1/2
-y+1/2,x+1/2,z+1/2
-x+1/2,-y+1/2,z+1/2
y+1/2,-x+1/2,z+1/2
x+1/2,-y+1/2,-z+1/2
y+1/2,x+1/2,-z+1/2
-x+1/2,y+1/2,-z+1/2
-y+1/2,-x+1/2,-z+1/2
-x+1/2,-y+1/2,-z+1/2
y+1/2,-x+1/2,-z+1/2
x+1/2,y+1/2,-z+1/2
-y+1/2,x+1/2,-z+1/2
-x+1/2,y+1/2,z+1/2
-y+1/2,-x+1/2,z+1/2
x+1/2,-y+1/2,z+1/2
y+1/2,x+1/2,z+1/2
loop_
_atom_site_label
_atom_site_type_symbol
_atom_site_fract_x
_atom_site_fract_y
_atom_site_fract_z
_atom_site_occupancy
_atom_site_U_iso_or_equiv
O1 O-2 0.5 0 0.1401 1 0.0
S2 S+6 0 0 0.30863 0.0625 0.0
Cl1 Cl-1 0 0 0.5 1 0.0
S1 S+6 0 0 0.08214 0.0625 0.0
Pb2 Pb+2 0 0 0.30863 0.9375 0.0
Pb1 Pb+2 0 0 0.08214 0.9375 0.0
