#------------------------------------------------------------------------------
#$Date: 2015-10-09 19:50:59 +0300 (Fri, 09 Oct 2015) $
#$Revision: 162568 $
#$URL: svn://www.crystallography.net/cod/cif/1/53/52/1535277.cif $
#------------------------------------------------------------------------------
#
# This file is available in the Crystallography Open Database (COD),
# http://www.crystallography.net/
#
# All data on this site have been placed in the public domain by the
# contributors.
#
data_1535277
loop_
_publ_author_name
'Hillebrecht, H.'
'Gebhardt, K.'
_publ_section_title
;
 Crystal structures from a building set: the first boridecarbides of
 niobium
;
_journal_name_full               'Angew. Chem. Int. ed.'
_journal_page_first              1445
_journal_page_last               1447
_journal_volume                  40
_journal_year                    2001
_chemical_formula_sum            'C2 B3 Nb4'
_chemical_name_systematic        'Nb4 B3 C2'
_space_group_IT_number           63
_symmetry_space_group_name_Hall  '-C 2c 2'
_symmetry_space_group_name_H-M   'C m c m'
_cell_angle_alpha                90
_cell_angle_beta                 90
_cell_angle_gamma                90
_cell_formula_units_Z            4
_cell_length_a                   3.2287
_cell_length_b                   37.544
_cell_length_c                   3.1331
_cell_volume                     379.789
_citation_journal_id_ASTM        ACIEF5
_cod_data_source_file            Hillebrecht_ACIEF5_2001_40.cif
_cod_data_source_block           C2B3Nb4
_cod_original_cell_volume        379.7891
_cod_database_code               1535277
loop_
_symmetry_equiv_pos_as_xyz
x,y,z
-x,-y,z+1/2
x,-y,-z
-x,y,-z+1/2
-x,-y,-z
x,y,-z-1/2
-x,y,z
x,-y,z-1/2
x+1/2,y+1/2,z
-x+1/2,-y+1/2,z+1/2
x+1/2,-y+1/2,-z
-x+1/2,y+1/2,-z+1/2
-x+1/2,-y+1/2,-z
x+1/2,y+1/2,-z-1/2
-x+1/2,y+1/2,z
x+1/2,-y+1/2,z-1/2
loop_
_atom_site_label
_atom_site_type_symbol
_atom_site_fract_x
_atom_site_fract_y
_atom_site_fract_z
_atom_site_occupancy
_atom_site_U_iso_or_equiv
Nb4 Nb 0 0.53581 -0.75 1 0.0
Nb1 Nb 0.5 0.66185 0.25 1 0.0
B1 B -0.5 0.4883 -0.75 1 0.0
Nb3 Nb 0 0.60561 -0.25 1 0.0
C1 C 0.5 0.72018 0.25 1 0.0
B3 B 0.5 0.58568 0.25 1 0.0
B2 B -0.5 0.43983 -0.75 1 0.0
Nb2 Nb 0 0.71958 -0.25 1 0.0
C2 C 0 0.66191 -0.25 1 0.0
