#------------------------------------------------------------------------------
#$Date: 2018-09-27 07:13:35 +0300 (Thu, 27 Sep 2018) $
#$Revision: 211196 $
#$URL: file:///home/coder/svn-repositories/cod/cif/1/53/53/1535329.cif $
#------------------------------------------------------------------------------
#
# This file is available in the Crystallography Open Database (COD),
# http://www.crystallography.net/
#
# All data on this site have been placed in the public domain by the
# contributors.
#
data_1535329
loop_
_publ_author_name
'Bobev, S.'
'Tobash, P.H.'
'Fritsch, V.'
'Thompson, J.D.'
'Hundley, M.F.'
'Fisk, Z.'
'Sarrao, J.L.'
_publ_section_title
;
 Ternary rare-earth alumo-silicides - single-crystal growth from Al flux,
 structural and physical properties
;
_journal_name_full               'Journal of Solid State Chemistry'
_journal_page_first              2091
_journal_page_last               2103
_journal_volume                  178
_journal_year                    2005
_chemical_formula_sum            'Al3 Dy2 Si2'
_space_group_IT_number           12
_symmetry_space_group_name_Hall  '-C 2y'
_symmetry_space_group_name_H-M   'C 1 2/m 1'
_cell_angle_alpha                90
_cell_angle_beta                 100.956
_cell_angle_gamma                90
_cell_formula_units_Z            2
_cell_length_a                   10.1228
_cell_length_b                   4.0231
_cell_length_c                   6.5746
_cell_volume                     262.871
_citation_journal_id_ASTM        JSSCBI
_cod_data_source_file            Bobev_JSSCBI_2005_1956.cif
_cod_data_source_block           Al3Dy2Si2
_cod_original_cell_volume        262.8706
_cod_database_code               1535329
loop_
_symmetry_equiv_pos_as_xyz
x,y,z
-x,y,-z
-x,-y,-z
x,-y,z
x+1/2,y+1/2,z
-x+1/2,y+1/2,-z
-x+1/2,-y+1/2,-z
x+1/2,-y+1/2,z
loop_
_atom_site_label
_atom_site_type_symbol
_atom_site_fract_x
_atom_site_fract_y
_atom_site_fract_z
_atom_site_occupancy
_atom_site_U_iso_or_equiv
Si1 Si 0.0933 0 0.6396 1 0.0
Al1 Al 0.3055 0 0.1342 1 0.0
Dy1 Dy 0.61961 0 0.32246 1 0.0
Al2 Al 0 0 0 1 0.0
