#------------------------------------------------------------------------------
#$Date: 2016-02-13 21:28:24 +0200 (Sat, 13 Feb 2016) $
#$Revision: 176429 $
#$URL: svn://www.crystallography.net/cod/cif/1/53/52/1535232.cif $
#------------------------------------------------------------------------------
#
# This file is available in the Crystallography Open Database (COD),
# http://www.crystallography.net/
#
# All data on this site have been placed in the public domain by the
# contributors.
#
data_1535232
loop_
_publ_author_name
'Strobel, S.'
'Schleid, T.'
_publ_section_title
;
 Quaternaere Caesium - Kupfer(I) - Lanthanoid(III) - Selenide vom Typ Cs
 Cu3 M2 Se5 (M = Sm, Gd - Lu)
;
_journal_name_full
'Zeitschrift fuer Anorganische und Allgemeine Chemie'
_journal_page_first              706
_journal_page_last               711
_journal_volume                  630
_journal_year                    2004
_chemical_formula_sum            'Cs Cu3 Se5 Sm2'
_chemical_name_systematic        'Cs Cu3 Sm2 Se5'
_space_group_IT_number           63
_symmetry_space_group_name_Hall  '-C 2c 2'
_symmetry_space_group_name_H-M   'C m c m'
_cell_angle_alpha                90
_cell_angle_beta                 90
_cell_angle_gamma                90
_cell_formula_units_Z            4
_cell_length_a                   4.1784
_cell_length_b                   14.7091
_cell_length_c                   17.6478
_cell_volume                     1084.643
_citation_journal_id_ASTM        ZAACAB
_cod_data_source_file            Strobel_ZAACAB_2004_1375.cif
_cod_data_source_block           Cs1Cu3Se5Sm2
_cod_original_formula_sum        'Cs1 Cu3 Se5 Sm2'
_cod_database_code               1535232
loop_
_symmetry_equiv_pos_as_xyz
x,y,z
-x,-y,z+1/2
x,-y,-z
-x,y,-z+1/2
-x,-y,-z
x,y,-z-1/2
-x,y,z
x,-y,z-1/2
x+1/2,y+1/2,z
-x+1/2,-y+1/2,z+1/2
x+1/2,-y+1/2,-z
-x+1/2,y+1/2,-z+1/2
-x+1/2,-y+1/2,-z
x+1/2,y+1/2,-z-1/2
-x+1/2,y+1/2,z
x+1/2,-y+1/2,z-1/2
loop_
_atom_site_label
_atom_site_type_symbol
_atom_site_fract_x
_atom_site_fract_y
_atom_site_fract_z
_atom_site_occupancy
_atom_site_U_iso_or_equiv
Se1 Se-2 0 0.23575 0.25 1 0.0
Se2 Se-2 0 0.44089 0.61074 1 0.0
Se3 Se-2 0 0.16742 0.57015 1 0.0
Cu1 Cu+1 0 0.65842 0.25 1 0.0
Cu2 Cu+1 0 0.41625 0.03206 1 0.0
Cs1 Cs+1 0 0.93883 0.25 1 0.0
Sm1 Sm+3 0 0.19201 0.40851 1 0.0
