#------------------------------------------------------------------------------
#$Date: 2016-02-13 21:28:24 +0200 (Sat, 13 Feb 2016) $
#$Revision: 176429 $
#$URL: svn://www.crystallography.net/cod/cif/1/53/53/1535399.cif $
#------------------------------------------------------------------------------
#
# This file is available in the Crystallography Open Database (COD),
# http://www.crystallography.net/
#
# All data on this site have been placed in the public domain by the
# contributors.
#
data_1535399
loop_
_publ_author_name
'Thiele, G.'
'Schmidt, K.D.'
'Rotter, H.W.'
_publ_section_title
;
 Die Kristallstrukturen und Phasentransformationen des tetramorphen Rb Ge
 I3
;
_journal_name_full
'Zeitschrift fuer Anorganische und Allgemeine Chemie'
_journal_page_first              60
_journal_page_last               68
_journal_volume                  571
_journal_year                    1989
_chemical_formula_sum            'Ge I3 Rb'
_chemical_name_systematic        'Rb (Ge I3)'
_space_group_IT_number           221
_symmetry_space_group_name_Hall  '-P 4 2 3'
_symmetry_space_group_name_H-M   'P m -3 m'
_cell_angle_alpha                90
_cell_angle_beta                 90
_cell_angle_gamma                90
_cell_formula_units_Z            1
_cell_length_a                   5.994
_cell_length_b                   5.994
_cell_length_c                   5.994
_cell_volume                     215.353
_citation_journal_id_ASTM        ZAACAB
_cod_data_source_file            Thiele_ZAACAB_1989_1867.cif
_cod_data_source_block           Ge1I3Rb1
_cod_original_cell_volume        215.3526
_cod_original_formula_sum        'Ge1 I3 Rb1'
_cod_database_code               1535399
loop_
_symmetry_equiv_pos_as_xyz
x,y,z
-y,x,z
-x,-y,z
y,-x,z
x,-y,-z
y,x,-z
-x,y,-z
-y,-x,-z
z,x,y
-x,z,y
-z,-x,y
x,-z,y
z,-x,-y
x,z,-y
-z,x,-y
-x,-z,-y
y,z,x
y,-z,-x
z,y,-x
-y,z,-x
-z,-y,-x
-y,-z,x
z,-y,x
-z,y,x
-x,-y,-z
y,-x,-z
x,y,-z
-y,x,-z
-x,y,z
-y,-x,z
x,-y,z
y,x,z
-z,-x,-y
x,-z,-y
z,x,-y
-x,z,-y
-z,x,y
-x,-z,y
z,-x,y
x,z,y
-y,-z,-x
-y,z,x
-z,-y,x
y,-z,x
z,y,x
y,z,-x
-z,y,-x
z,-y,-x
loop_
_atom_site_label
_atom_site_type_symbol
_atom_site_fract_x
_atom_site_fract_y
_atom_site_fract_z
_atom_site_occupancy
_atom_site_U_iso_or_equiv
Ge1 Ge+2 0 0 0 1 0.0
Rb1 Rb+1 0.5 0.5 0.5 1 0.0
I1 I-1 0.5 0 0 1 0.0
