#------------------------------------------------------------------------------
#$Date: 2016-02-13 21:28:24 +0200 (Sat, 13 Feb 2016) $
#$Revision: 176429 $
#$URL: svn://www.crystallography.net/cod/cif/1/53/54/1535410.cif $
#------------------------------------------------------------------------------
#
# This file is available in the Crystallography Open Database (COD),
# http://www.crystallography.net/
#
# All data on this site have been placed in the public domain by the
# contributors.
#
data_1535410
loop_
_publ_author_name
'Bolotina, N.B.'
'Maximov, B.A.'
'Tamazyan, R.A.'
'Klokova, N.E.'
_publ_section_title
;
 Atomic structure of the modulated orthorhombic Na4 Ti P2 O9 phase at 663
 K
;
_journal_name_full               Kristallografiya
_journal_page_first              51
_journal_page_last               55
_journal_volume                  38
_journal_year                    1993
_chemical_formula_sum            'Na4 O9 P2 Ti'
_chemical_name_systematic        'Na4 Ti (P O4)2 O'
_space_group_IT_number           67
_symmetry_space_group_name_Hall  '-C 2a 2 (y,z,x)'
_symmetry_space_group_name_H-M   'C m m a (b,c,a)'
_cell_angle_alpha                90
_cell_angle_beta                 90
_cell_angle_gamma                90
_cell_formula_units_Z            4
_cell_length_a                   15.711
_cell_length_b                   7.516
_cell_length_c                   7.09
_cell_volume                     837.215
_citation_journal_id_ASTM        KRISAJ
_cod_data_source_file            Bolotina_KRISAJ_1993_803.cif
_cod_data_source_block           Na4O9P2Ti1
_cod_original_cell_volume        837.2147
_cod_original_sg_symbol_H-M      'B m c m'
_cod_original_formula_sum        'Na4 O9 P2 Ti1'
_cod_database_code               1535410
loop_
_symmetry_equiv_pos_as_xyz
x,y,z
-x,y,-z+1/2
-x,-y,z
x,-y,-z+1/2
-x,-y,-z
x,-y,z-1/2
x,y,-z
-x,y,z-1/2
x+1/2,y,z+1/2
-x+1/2,y,-z+1
-x+1/2,-y,z+1/2
x+1/2,-y,-z+1
-x+1/2,-y,-z+1/2
x+1/2,-y,z
x+1/2,y,-z+1/2
-x+1/2,y,z
loop_
_atom_site_label
_atom_site_type_symbol
_atom_site_fract_x
_atom_site_fract_y
_atom_site_fract_z
_atom_site_occupancy
_atom_site_U_iso_or_equiv
Ti1 Ti+4 0.25 0.5 0.25 1 0.0
Na2 Na+1 0 0.5 0.25 1 0.0
Na1 Na+1 0.25 0 0.25 1 0.0
Na3 Na+1 0.1137 0.24 0.5 0.75 0.0
O3 O-2 0.1413 0.0502 0 1 0.0
O4 O-2 0.0286 0.2836 0 1 0.0
O1 O-2 0.25 0.6004 0 1 0.0
P1 P+5 0.1214 0.2438 0 1 0.0
O2 O-2 0.3395 0.672 0.3215 1 0.0
Na4 Na+1 0 0 0.25 0.5 0.0
