#------------------------------------------------------------------------------
#$Date: 2016-02-13 21:28:24 +0200 (Sat, 13 Feb 2016) $
#$Revision: 176429 $
#$URL: svn://www.crystallography.net/cod/cif/1/53/56/1535628.cif $
#------------------------------------------------------------------------------
#
# This file is available in the Crystallography Open Database (COD),
# http://www.crystallography.net/
#
# All data on this site have been placed in the public domain by the
# contributors.
#
data_1535628
loop_
_publ_author_name
'Buchholz, W.'
'Schuster, H.U.'
_publ_section_title
;
 Intermetallische Phasen mit B35-Ueberstruktur und
 Verwandtschaftsbeziehung zu Li Fe6 Ge6
;
_journal_name_full
'Zeitschrift fuer Anorganische und Allgemeine Chemie'
_journal_page_first              40
_journal_page_last               48
_journal_volume                  482
_journal_year                    1981
_chemical_formula_sum            'Ge6 Li Ni6'
_chemical_name_systematic        'Li Ni6 Ge6'
_space_group_IT_number           191
_symmetry_space_group_name_Hall  '-P 6 2'
_symmetry_space_group_name_H-M   'P 6/m m m'
_cell_angle_alpha                90
_cell_angle_beta                 90
_cell_angle_gamma                120
_cell_formula_units_Z            3
_cell_length_a                   8.734
_cell_length_b                   8.734
_cell_length_c                   7.797
_cell_volume                     515.092
_citation_journal_id_ASTM        ZAACAB
_cod_data_source_file            Buchholz_ZAACAB_1981_1854.cif
_cod_data_source_block           Ge6Li1Ni6
_cod_original_cell_volume        515.0917
_cod_original_formula_sum        'Ge6 Li1 Ni6'
_cod_database_code               1535628
loop_
_symmetry_equiv_pos_as_xyz
x,y,z
x-y,x,z
-y,x-y,z
-x,-y,z
-x+y,-x,z
y,-x+y,z
-y,-x,-z
x-y,-y,-z
x,x-y,-z
y,x,-z
-x+y,y,-z
-x,-x+y,-z
-x,-y,-z
-x+y,-x,-z
y,-x+y,-z
x,y,-z
x-y,x,-z
-y,x-y,-z
y,x,z
-x+y,y,z
-x,-x+y,z
-y,-x,z
x-y,-y,z
x,x-y,z
loop_
_atom_site_label
_atom_site_type_symbol
_atom_site_fract_x
_atom_site_fract_y
_atom_site_fract_z
_atom_site_occupancy
_atom_site_U_iso_or_equiv
Ge3 Ge 0.3333 0.6667 0.339 1 0.0
Ni2 Ni 0.5 0 0.26 1 0.0
Li1 Li 0.3333 0.6667 0 1 0.0
Ge4 Ge 0 0 0.163 1 0.0
Ge1 Ge 0.339 0 0 1 0.0
Ni1 Ni 0.1608 0.3216 0.247 1 0.0
Ge2 Ge 0.323 0 0.5 1 0.0
Li2 Li 0 0 0.5 1 0.0
