#------------------------------------------------------------------------------
#$Date: 2016-02-13 21:28:24 +0200 (Sat, 13 Feb 2016) $
#$Revision: 176429 $
#$URL: svn://www.crystallography.net/cod/cif/1/53/57/1535754.cif $
#------------------------------------------------------------------------------
#
# This file is available in the Crystallography Open Database (COD),
# http://www.crystallography.net/
#
# All data on this site have been placed in the public domain by the
# contributors.
#
data_1535754
loop_
_publ_author_name
'Tsinde, B.P.F.'
'Doert, T.'
_publ_section_title
;
 The Ternary Rare Earth Polychalcogenides LaSeTe2, CeSeTe2, PrSeTe2,
 NdSeTe2, and SmSeTe2: Syntheses, Crystal Structures, Electronic
 Properties, and Charge-Density-Wave-Transitions
;
_journal_name_full               'Solid State Sciences'
_journal_page_first              573
_journal_page_last               587
_journal_volume                  7
_journal_year                    2005
_chemical_formula_sum            'Pr Se Te2'
_chemical_name_systematic        'Pr1 Se1 Te2'
_space_group_IT_number           63
_symmetry_space_group_name_Hall  '-C 2c 2'
_symmetry_space_group_name_H-M   'C m c m'
_cell_angle_alpha                90
_cell_angle_beta                 90
_cell_angle_gamma                90
_cell_formula_units_Z            4
_cell_length_a                   4.262
_cell_length_b                   25.034
_cell_length_c                   4.272
_cell_volume                     455.801
_citation_journal_id_ASTM        SSSCFJ
_cod_data_source_file            Tsinde_SSSCFJ_2005_903.cif
_cod_data_source_block           Pr1Se1Te2
_cod_original_cell_volume        455.8007
_cod_original_formula_sum        'Pr1 Se1 Te2'
_cod_database_code               1535754
loop_
_symmetry_equiv_pos_as_xyz
x,y,z
-x,-y,z+1/2
x,-y,-z
-x,y,-z+1/2
-x,-y,-z
x,y,-z-1/2
-x,y,z
x,-y,z-1/2
x+1/2,y+1/2,z
-x+1/2,-y+1/2,z+1/2
x+1/2,-y+1/2,-z
-x+1/2,y+1/2,-z+1/2
-x+1/2,-y+1/2,-z
x+1/2,y+1/2,-z-1/2
-x+1/2,y+1/2,z
x+1/2,-y+1/2,z-1/2
loop_
_atom_site_label
_atom_site_type_symbol
_atom_site_fract_x
_atom_site_fract_y
_atom_site_fract_z
_atom_site_occupancy
_atom_site_U_iso_or_equiv
Pr1 Pr 0 0.177228 0.25 1 0.0
Se1 Se 0 0.29641 0.25 1 0.0
Te1 Te 0 -0.072417 0.25 0.997 0.0
Te2 Te 0 0.572619 0.25 0.997 0.0
