#------------------------------------------------------------------------------
#$Date: 2016-02-13 14:50:18 +0200 (Sat, 13 Feb 2016) $
#$Revision: 176428 $
#$URL: svn://www.crystallography.net/cod/cif/1/53/58/1535868.cif $
#------------------------------------------------------------------------------
#
# This file is available in the Crystallography Open Database (COD),
# http://www.crystallography.net/
#
# All data on this site have been placed in the public domain by the
# contributors.
#
data_1535868
loop_
_publ_author_name
'Nakatani, I.'
_publ_section_title
;
 Crystallographic and magnetic studies of cation-deficient spinels M2/3+x
 Cr2-x S4 (M = Al; Ga; In)
;
_journal_name_full               'Journal of Solid State Chemistry'
_journal_page_first              50
_journal_page_last               58
_journal_volume                  35
_journal_year                    1980
_chemical_formula_sum            'Cr2 Ga0.667 S4'
_chemical_name_systematic        'Ga0.667 Cr2 S4'
_space_group_IT_number           227
_symmetry_space_group_name_Hall  'F 4d 2 3 -1d'
_symmetry_space_group_name_H-M   'F d -3 m :1'
_cell_angle_alpha                90
_cell_angle_beta                 90
_cell_angle_gamma                90
_cell_formula_units_Z            8
_cell_length_a                   9.895
_cell_length_b                   9.895
_cell_length_c                   9.895
_cell_volume                     968.830
_citation_journal_id_ASTM        JSSCBI
_cod_data_source_file            Nakatani_JSSCBI_1980_1833.cif
_cod_data_source_block           Cr2Ga0.667S4
_cod_original_cell_volume        968.8297
_cod_original_sg_symbol_Hall     '-F 4vw 2vw 3 (x+1/8,y+1/8,z+1/8)'
_cod_database_code               1535868
loop_
_symmetry_equiv_pos_as_xyz
x,y,z
-y+1/4,x+1/4,z+1/4
-x,-y+1/2,z+1/2
y+3/4,-x+1/4,z+3/4
x,-y+1/2,-z+1/2
y+3/4,x+1/4,-z+3/4
-x,y,-z
-y+1/4,-x+1/4,-z+1/4
z,x,y
-x+1/4,z+1/4,y+1/4
-z,-x+1/2,y+1/2
x+3/4,-z+1/4,y+3/4
z,-x+1/2,-y+1/2
x+3/4,z+1/4,-y+3/4
-z,x,-y
-x+1/4,-z+1/4,-y+1/4
y,z,x
y+1/2,-z,-x+1/2
z+1/4,y+3/4,-x+3/4
-y+1/2,z+1/2,-x
-z+1/4,-y+3/4,-x+3/4
-y+1/2,-z+1/2,x
z+1/4,-y+1/4,x+1/4
-z+3/4,y+1/4,x+3/4
-x+1/4,-y+1/4,-z+1/4
y,-x,-z
x+1/4,y-1/4,-z-1/4
-y-1/2,x,-z-1/2
-x+1/4,y-1/4,z-1/4
-y-1/2,-x,z-1/2
x+1/4,-y+1/4,z+1/4
y,x,z
-z+1/4,-x+1/4,-y+1/4
x,-z,-y
z+1/4,x-1/4,-y-1/4
-x-1/2,z,-y-1/2
-z+1/4,x-1/4,y-1/4
-x-1/2,-z,y-1/2
z+1/4,-x+1/4,y+1/4
x,z,y
-y+1/4,-z+1/4,-x+1/4
-y-1/4,z+1/4,x-1/4
-z,-y-1/2,x-1/2
y-1/4,-z-1/4,x+1/4
z,y-1/2,x-1/2
y-1/4,z-1/4,-x+1/4
-z,y,-x
z-1/2,-y,-x-1/2
x,y+1/2,z+1/2
-y+1/4,x+3/4,z+3/4
-x,-y+1,z+1
y+3/4,-x+3/4,z+5/4
x,-y+1,-z+1
y+3/4,x+3/4,-z+5/4
-x,y+1/2,-z+1/2
-y+1/4,-x+3/4,-z+3/4
z,x+1/2,y+1/2
-x+1/4,z+3/4,y+3/4
-z,-x+1,y+1
x+3/4,-z+3/4,y+5/4
z,-x+1,-y+1
x+3/4,z+3/4,-y+5/4
-z,x+1/2,-y+1/2
-x+1/4,-z+3/4,-y+3/4
y,z+1/2,x+1/2
y+1/2,-z+1/2,-x+1
z+1/4,y+5/4,-x+5/4
-y+1/2,z+1,-x+1/2
-z+1/4,-y+5/4,-x+5/4
-y+1/2,-z+1,x+1/2
z+1/4,-y+3/4,x+3/4
-z+3/4,y+3/4,x+5/4
-x+1/4,-y+3/4,-z+3/4
y,-x+1/2,-z+1/2
x+1/4,y+1/4,-z+1/4
-y-1/2,x+1/2,-z
-x+1/4,y+1/4,z+1/4
-y-1/2,-x+1/2,z
x+1/4,-y+3/4,z+3/4
y,x+1/2,z+1/2
-z+1/4,-x+3/4,-y+3/4
x,-z+1/2,-y+1/2
z+1/4,x+1/4,-y+1/4
-x-1/2,z+1/2,-y
-z+1/4,x+1/4,y+1/4
-x-1/2,-z+1/2,y
z+1/4,-x+3/4,y+3/4
x,z+1/2,y+1/2
-y+1/4,-z+3/4,-x+3/4
-y-1/4,z+3/4,x+1/4
-z,-y,x
y-1/4,-z+1/4,x+3/4
z,y,x
y-1/4,z+1/4,-x+3/4
-z,y+1/2,-x+1/2
z-1/2,-y+1/2,-x
x+1/2,y,z+1/2
-y+3/4,x+1/4,z+3/4
-x+1/2,-y+1/2,z+1
y+5/4,-x+1/4,z+5/4
x+1/2,-y+1/2,-z+1
y+5/4,x+1/4,-z+5/4
-x+1/2,y,-z+1/2
-y+3/4,-x+1/4,-z+3/4
z+1/2,x,y+1/2
-x+3/4,z+1/4,y+3/4
-z+1/2,-x+1/2,y+1
x+5/4,-z+1/4,y+5/4
z+1/2,-x+1/2,-y+1
x+5/4,z+1/4,-y+5/4
-z+1/2,x,-y+1/2
-x+3/4,-z+1/4,-y+3/4
y+1/2,z,x+1/2
y+1,-z,-x+1
z+3/4,y+3/4,-x+5/4
-y+1,z+1/2,-x+1/2
-z+3/4,-y+3/4,-x+5/4
-y+1,-z+1/2,x+1/2
z+3/4,-y+1/4,x+3/4
-z+5/4,y+1/4,x+5/4
-x+3/4,-y+1/4,-z+3/4
y+1/2,-x,-z+1/2
x+3/4,y-1/4,-z+1/4
-y,x,-z
-x+3/4,y-1/4,z+1/4
-y,-x,z
x+3/4,-y+1/4,z+3/4
y+1/2,x,z+1/2
-z+3/4,-x+1/4,-y+3/4
x+1/2,-z,-y+1/2
z+3/4,x-1/4,-y+1/4
-x,z,-y
-z+3/4,x-1/4,y+1/4
-x,-z,y
z+3/4,-x+1/4,y+3/4
x+1/2,z,y+1/2
-y+3/4,-z+1/4,-x+3/4
-y+1/4,z+1/4,x+1/4
-z+1/2,-y-1/2,x
y+1/4,-z-1/4,x+3/4
z+1/2,y-1/2,x
y+1/4,z-1/4,-x+3/4
-z+1/2,y,-x+1/2
z,-y,-x
x+1/2,y+1/2,z
-y+3/4,x+3/4,z+1/4
-x+1/2,-y+1,z+1/2
y+5/4,-x+3/4,z+3/4
x+1/2,-y+1,-z+1/2
y+5/4,x+3/4,-z+3/4
-x+1/2,y+1/2,-z
-y+3/4,-x+3/4,-z+1/4
z+1/2,x+1/2,y
-x+3/4,z+3/4,y+1/4
-z+1/2,-x+1,y+1/2
x+5/4,-z+3/4,y+3/4
z+1/2,-x+1,-y+1/2
x+5/4,z+3/4,-y+3/4
-z+1/2,x+1/2,-y
-x+3/4,-z+3/4,-y+1/4
y+1/2,z+1/2,x
y+1,-z+1/2,-x+1/2
z+3/4,y+5/4,-x+3/4
-y+1,z+1,-x
-z+3/4,-y+5/4,-x+3/4
-y+1,-z+1,x
z+3/4,-y+3/4,x+1/4
-z+5/4,y+3/4,x+3/4
-x+3/4,-y+3/4,-z+1/4
y+1/2,-x+1/2,-z
x+3/4,y+1/4,-z-1/4
-y,x+1/2,-z-1/2
-x+3/4,y+1/4,z-1/4
-y,-x+1/2,z-1/2
x+3/4,-y+3/4,z+1/4
y+1/2,x+1/2,z
-z+3/4,-x+3/4,-y+1/4
x+1/2,-z+1/2,-y
z+3/4,x+1/4,-y-1/4
-x,z+1/2,-y-1/2
-z+3/4,x+1/4,y-1/4
-x,-z+1/2,y-1/2
z+3/4,-x+3/4,y+1/4
x+1/2,z+1/2,y
-y+3/4,-z+3/4,-x+1/4
-y+1/4,z+3/4,x-1/4
-z+1/2,-y,x-1/2
y+1/4,-z+1/4,x+1/4
z+1/2,y,x-1/2
y+1/4,z+1/4,-x+1/4
-z+1/2,y+1/2,-x
z,-y+1/2,-x-1/2
loop_
_atom_site_label
_atom_site_type_symbol
_atom_site_fract_x
_atom_site_fract_y
_atom_site_fract_z
_atom_site_occupancy
_atom_site_U_iso_or_equiv
Ga1 Ga+3 0 0 0 0.667 0.0
S1 S-2 0.3825 0.3825 0.3825 1 0.0
Cr2 Cr+3 0.625 0.625 0.625 1 0.0
