#------------------------------------------------------------------------------
#$Date: 2015-10-09 23:01:30 +0300 (Fri, 09 Oct 2015) $
#$Revision: 163062 $
#$URL: svn://www.crystallography.net/cod/cif/1/53/56/1535625.cif $
#------------------------------------------------------------------------------
#
# This file is available in the Crystallography Open Database (COD),
# http://www.crystallography.net/
#
# All data on this site have been placed in the public domain by the
# contributors.
#
data_1535625
loop_
_publ_author_name
'Buchholz, W.'
'Schuster, H.U.'
_publ_section_title
;
 Intermetallische Phasen mit B35-Ueberstruktur und
 Verwandtschaftsbeziehung zu Li Fe6 Ge6
;
_journal_name_full
'Zeitschrift fuer Anorganische und Allgemeine Chemie'
_journal_page_first              40
_journal_page_last               48
_journal_volume                  482
_journal_year                    1981
_chemical_formula_sum            'Co3 Ge3 Y0.45'
_chemical_name_systematic        'Y0.45 Co3 Ge3'
_space_group_IT_number           191
_symmetry_space_group_name_Hall  '-P 6 2'
_symmetry_space_group_name_H-M   'P 6/m m m'
_cell_angle_alpha                90
_cell_angle_beta                 90
_cell_angle_gamma                120
_cell_formula_units_Z            1
_cell_length_a                   5.074
_cell_length_b                   5.074
_cell_length_c                   3.908
_cell_volume                     87.134
_citation_journal_id_ASTM        ZAACAB
_cod_data_source_file            Buchholz_ZAACAB_1981_1853.cif
_cod_data_source_block           Co3Ge3Y0.45
_cod_original_cell_volume        87.13369
_cod_database_code               1535625
loop_
_symmetry_equiv_pos_as_xyz
x,y,z
x-y,x,z
-y,x-y,z
-x,-y,z
-x+y,-x,z
y,-x+y,z
-y,-x,-z
x-y,-y,-z
x,x-y,-z
y,x,-z
-x+y,y,-z
-x,-x+y,-z
-x,-y,-z
-x+y,-x,-z
y,-x+y,-z
x,y,-z
x-y,x,-z
-y,x-y,-z
y,x,z
-x+y,y,z
-x,-x+y,z
-y,-x,z
x-y,-y,z
x,x-y,z
loop_
_atom_site_label
_atom_site_type_symbol
_atom_site_fract_x
_atom_site_fract_y
_atom_site_fract_z
_atom_site_occupancy
_atom_site_U_iso_or_equiv
Co1 Co 0.5 0 0.5 1 0.0
Y1 Y 0 0 0 0.45 0.0
Ge2 Ge 0 0 0.307 0.5 0.0
Ge1 Ge 0.3333 0.6667 0 1 0.0
