#------------------------------------------------------------------------------
#$Date: 2016-02-13 21:28:24 +0200 (Sat, 13 Feb 2016) $
#$Revision: 176429 $
#$URL: svn://www.crystallography.net/cod/cif/1/53/50/1535049.cif $
#------------------------------------------------------------------------------
#
# This file is available in the Crystallography Open Database (COD),
# http://www.crystallography.net/
#
# All data on this site have been placed in the public domain by the
# contributors.
#
data_1535049
loop_
_publ_author_name
'Hartenbach, I.'
'Schleid, T.'
_publ_section_title
;
 Thiosilicate der Selten-Erd-Elemente: II.Die nichtzentrosymmetrischen
 Caesium-Derivate Cs M (Si S4) (M = Sm - Tm)
;
_journal_name_full
'Zeitschrift fuer Anorganische und Allgemeine Chemie'
_journal_page_first              394
_journal_page_last               398
_journal_volume                  629
_journal_year                    2003
_chemical_formula_sum            'Cs Gd S4 Si'
_chemical_name_systematic        'Cs Gd (Si S4)'
_space_group_IT_number           19
_symmetry_space_group_name_Hall  'P 2ac 2ab'
_symmetry_space_group_name_H-M   'P 21 21 21'
_cell_angle_alpha                90
_cell_angle_beta                 90
_cell_angle_gamma                90
_cell_formula_units_Z            4
_cell_length_a                   6.3746
_cell_length_b                   6.6977
_cell_length_c                   17.709
_cell_volume                     756.089
_citation_journal_id_ASTM        ZAACAB
_cod_data_source_file            Hartenbach_ZAACAB_2003_800.cif
_cod_data_source_block           Cs1Gd1S4Si1
_cod_original_cell_volume        756.0886
_cod_original_formula_sum        'Cs1 Gd1 S4 Si1'
_cod_database_code               1535049
loop_
_symmetry_equiv_pos_as_xyz
x,y,z
-x+1/2,-y,z+1/2
x+1/2,-y+1/2,-z
-x,y+1/2,-z+1/2
loop_
_atom_site_label
_atom_site_type_symbol
_atom_site_fract_x
_atom_site_fract_y
_atom_site_fract_z
_atom_site_occupancy
_atom_site_U_iso_or_equiv
Cs1 Cs+1 0.49792 0.99217 0.53226 1 0.0
S2 S-2 0.3857 0.9339 0.72073 1 0.0
Si1 Si+4 0.2106 0.0163 0.33403 1 0.0
S4 S-2 0.3962 0.7537 0.34665 1 0.0
S1 S-2 0.948 0.0128 0.40522 1 0.0
S3 S-2 0.4298 0.25 0.35462 1 0.0
Gd1 Gd+3 0.70778 0.98202 0.271904 1 0.0
