#------------------------------------------------------------------------------
#$Date: 2016-02-13 21:28:24 +0200 (Sat, 13 Feb 2016) $
#$Revision: 176429 $
#$URL: svn://www.crystallography.net/cod/cif/1/53/52/1535273.cif $
#------------------------------------------------------------------------------
#
# This file is available in the Crystallography Open Database (COD),
# http://www.crystallography.net/
#
# All data on this site have been placed in the public domain by the
# contributors.
#
data_1535273
loop_
_publ_author_name
'Hillebrecht, H.'
'Gebhardt, K.'
_publ_section_title
;
 Crystal structures from a building set: the first boridecarbides of
 niobium
;
_journal_name_full               'Angew. Chem. Int. ed.'
_journal_page_first              1445
_journal_page_last               1447
_journal_volume                  40
_journal_year                    2001
_chemical_formula_sum            'C B3 Nb3'
_chemical_name_systematic        'Nb3 B3 C'
_space_group_IT_number           63
_symmetry_space_group_name_Hall  '-C 2c 2'
_symmetry_space_group_name_H-M   'C m c m'
_cell_angle_alpha                90
_cell_angle_beta                 90
_cell_angle_gamma                90
_cell_formula_units_Z            4
_cell_length_a                   3.2647
_cell_length_b                   28.71
_cell_length_c                   3.1285
_cell_volume                     293.233
_citation_journal_id_ASTM        ACIEF5
_cod_data_source_file            Hillebrecht_ACIEF5_2001_39.cif
_cod_data_source_block           C1B3Nb3
_cod_original_cell_volume        293.2328
_cod_original_formula_sum        'C1 B3 Nb3'
_cod_database_code               1535273
loop_
_symmetry_equiv_pos_as_xyz
x,y,z
-x,-y,z+1/2
x,-y,-z
-x,y,-z+1/2
-x,-y,-z
x,y,-z-1/2
-x,y,z
x,-y,z-1/2
x+1/2,y+1/2,z
-x+1/2,-y+1/2,z+1/2
x+1/2,-y+1/2,-z
-x+1/2,y+1/2,-z+1/2
-x+1/2,-y+1/2,-z
x+1/2,y+1/2,-z-1/2
-x+1/2,y+1/2,z
x+1/2,-y+1/2,z-1/2
loop_
_atom_site_label
_atom_site_type_symbol
_atom_site_fract_x
_atom_site_fract_y
_atom_site_fract_z
_atom_site_occupancy
_atom_site_U_iso_or_equiv
Nb2 Nb 0.5 0.71243 0.25 1 0.0
B3 B 0.5 0.4844 0.25 1 0.0
Nb1 Nb 0 0.63817 0.75 1 0.0
Nb3 Nb 0 0.5469 0.25 1 0.0
B1 B 0.5 0.4209 0.25 1 0.0
B2 B 0.5 0.6129 0.25 1 0.0
C1 C 0 0.7122 0.75 1 0.0
