#------------------------------------------------------------------------------
#$Date: 2016-02-13 21:28:24 +0200 (Sat, 13 Feb 2016) $
#$Revision: 176429 $
#$URL: svn://www.crystallography.net/cod/cif/1/53/52/1535276.cif $
#------------------------------------------------------------------------------
#
# This file is available in the Crystallography Open Database (COD),
# http://www.crystallography.net/
#
# All data on this site have been placed in the public domain by the
# contributors.
#
data_1535276
loop_
_publ_author_name
'Meyer, G.'
_publ_section_title
;
 Gd Li Cl4, ein inverser Chloroscheelit
;
_journal_name_full
'Zeitschrift fuer Anorganische und Allgemeine Chemie'
_journal_page_first              193
_journal_page_last               200
_journal_volume                  511
_journal_year                    1984
_chemical_formula_sum            'Cl4 Gd Li'
_chemical_name_systematic        'Gd Li Cl4'
_space_group_IT_number           88
_symmetry_space_group_name_Hall  '-I 4ad'
_symmetry_space_group_name_H-M   'I 41/a :2'
_cell_angle_alpha                90
_cell_angle_beta                 90
_cell_angle_gamma                90
_cell_formula_units_Z            4
_cell_length_a                   6.463
_cell_length_b                   6.463
_cell_length_c                   13.163
_cell_volume                     549.823
_citation_journal_id_ASTM        ZAACAB
_cod_data_source_file            Meyer_ZAACAB_1984_612.cif
_cod_data_source_block           Cl4Gd1Li1
_cod_original_cell_volume        549.8234
_cod_original_formula_sum        'Cl4 Gd1 Li1'
_cod_database_code               1535276
loop_
_symmetry_equiv_pos_as_xyz
x,y,z
-y+3/4,x+1/4,z+1/4
-x+1/2,-y,z+1/2
y+3/4,-x+3/4,z+3/4
-x,-y,-z
y-3/4,-x-1/4,-z-1/4
x-1/2,y,-z-1/2
-y-3/4,x-3/4,-z-3/4
x+1/2,y+1/2,z+1/2
-y+5/4,x+3/4,z+3/4
-x+1,-y+1/2,z+1
y+5/4,-x+5/4,z+5/4
-x+1/2,-y+1/2,-z+1/2
y-1/4,-x+1/4,-z+1/4
x,y+1/2,-z
-y-1/4,x-1/4,-z-1/4
loop_
_atom_site_label
_atom_site_type_symbol
_atom_site_fract_x
_atom_site_fract_y
_atom_site_fract_z
_atom_site_occupancy
_atom_site_U_iso_or_equiv
Li1 Li+1 0 0.25 0.125 1 0.0
Cl1 Cl-1 0.218 0.4205 0.4553 1 0.0
Gd1 Gd+3 0 0.25 0.625 1 0.0
