#------------------------------------------------------------------------------
#$Date: 2015-10-09 17:42:00 +0300 (Fri, 09 Oct 2015) $
#$Revision: 162297 $
#$URL: svn://www.crystallography.net/cod/cif/1/53/51/1535106.cif $
#------------------------------------------------------------------------------
#
# This file is available in the Crystallography Open Database (COD),
# http://www.crystallography.net/
#
# All data on this site have been placed in the public domain by the
# contributors.
#
data_1535106
loop_
_publ_author_name
'Mattausch, H.J.'
'Zheng, C.'
'Simon, A.'
'Ryazanov, M.'
_publ_section_title
;
 Reduced lanthanum halides with Ge as interstitials: La2 I2 Ge, La2 I2
 Ge2, La3 Cl2 Ge3, La3 Br2 Ge3, La3 I3 Ge, La6 I5 Ge3 and La(7+x) I12 Ge
;
_journal_name_full
'Zeitschrift fuer Anorganische und Allgemeine Chemie'
_journal_page_first              302
_journal_page_last               308
_journal_volume                  631
_journal_year                    2005
_chemical_formula_sum            'Cl2 Ge3 La3'
_chemical_name_systematic        'La3 Cl2 Ge3'
_space_group_IT_number           12
_symmetry_space_group_name_Hall  '-C 2y'
_symmetry_space_group_name_H-M   'C 1 2/m 1'
_cell_angle_alpha                90
_cell_angle_beta                 98.25
_cell_angle_gamma                90
_cell_formula_units_Z            4
_cell_length_a                   18.047
_cell_length_b                   4.297
_cell_length_c                   10.739
_cell_volume                     824.169
_citation_journal_id_ASTM        ZAACAB
_cod_data_source_file            Mattausch_ZAACAB_2005_1676.cif
_cod_data_source_block           Cl2Ge3La3
_cod_original_cell_volume        824.1694
_cod_database_code               1535106
loop_
_symmetry_equiv_pos_as_xyz
x,y,z
-x,y,-z
-x,-y,-z
x,-y,z
x+1/2,y+1/2,z
-x+1/2,y+1/2,-z
-x+1/2,-y+1/2,-z
x+1/2,-y+1/2,z
loop_
_atom_site_label
_atom_site_type_symbol
_atom_site_fract_x
_atom_site_fract_y
_atom_site_fract_z
_atom_site_occupancy
_atom_site_U_iso_or_equiv
La2 La+3 0.38276 0 0.50884 1 0.0
La3 La+3 0.18382 0.5 0.14794 1 0.0
La1 La+3 0.46772 0 0.16894 1 0.0
Cl1 Cl-1 0.27366 0.5 0.3928 1 0.0
Ge2 Ge-2 0.0701 0 0.04432 1 0.0
Cl2 Cl-1 0.299 0 0.12745 1 0.0
Ge3 Ge-2 -0.02391 0 0.38334 1 0.0
Ge1 Ge-2 0.09574 0 0.28138 1 0.0
