#------------------------------------------------------------------------------
#$Date: 2015-10-10 07:04:11 +0300 (Sat, 10 Oct 2015) $
#$Revision: 164836 $
#$URL: svn://www.crystallography.net/cod/cif/1/53/69/1536934.cif $
#------------------------------------------------------------------------------
#
# This file is available in the Crystallography Open Database (COD),
# http://www.crystallography.net/
#
# All data on this site have been placed in the public domain by the
# contributors.
#
data_1536934
loop_
_publ_author_name
'Kovnir, K.A.'
'Shatruk, M.M.'
'Haarmann, F.'
'Presnyakov, I.A.'
'Reshetova, L.N.'
'Grin', Yu.'
'Baenitz, M.'
'Baitinger, M.'
'Dikarev, E.V.'
'Schnelle, W.'
'Shevelkov, A.V.'
_publ_section_title
;
 Novel compounds Sn20 Zn4 P22-nI8 (n = 1.2), Sn17 Zn7 P22 I8, and Sn17 Zn7
 P22 Br8: Synthesis, properties, and special features of their
 clathrate-like crystal structures
;
_journal_name_full               'Solid State Sciences'
_journal_page_first              957
_journal_page_last               968
_journal_volume                  7
_journal_year                    2005
_chemical_formula_sum            'I8 P20.83 Sn20.03 Zn3.96'
_chemical_name_systematic        'Sn20.03 Zn3.96 P20.83 I8'
_space_group_IT_number           223
_symmetry_space_group_name_Hall  '-P 4n 2 3'
_symmetry_space_group_name_H-M   'P m -3 n'
_cell_angle_alpha                90
_cell_angle_beta                 90
_cell_angle_gamma                90
_cell_formula_units_Z            1
_cell_length_a                   10.881
_cell_length_b                   10.881
_cell_length_c                   10.881
_cell_volume                     1288.269
_citation_journal_id_ASTM        SSSCFJ
_cod_data_source_file            Kovnir_SSSCFJ_2005_255.cif
_cod_data_source_block           I8P20.83Sn20.03Zn3.96
_cod_original_cell_volume        1288.268
_cod_database_code               1536934
loop_
_symmetry_equiv_pos_as_xyz
x,y,z
-y+1/2,x+1/2,z+1/2
-x,-y,z
y+1/2,-x+1/2,z+1/2
x,-y,-z
y+1/2,x+1/2,-z+1/2
-x,y,-z
-y+1/2,-x+1/2,-z+1/2
z,x,y
-x+1/2,z+1/2,y+1/2
-z,-x,y
x+1/2,-z+1/2,y+1/2
z,-x,-y
x+1/2,z+1/2,-y+1/2
-z,x,-y
-x+1/2,-z+1/2,-y+1/2
y,z,x
y,-z,-x
z+1/2,y+1/2,-x+1/2
-y,z,-x
-z+1/2,-y+1/2,-x+1/2
-y,-z,x
z+1/2,-y+1/2,x+1/2
-z+1/2,y+1/2,x+1/2
-x,-y,-z
y-1/2,-x-1/2,-z-1/2
x,y,-z
-y-1/2,x-1/2,-z-1/2
-x,y,z
-y-1/2,-x-1/2,z-1/2
x,-y,z
y-1/2,x-1/2,z-1/2
-z,-x,-y
x-1/2,-z-1/2,-y-1/2
z,x,-y
-x-1/2,z-1/2,-y-1/2
-z,x,y
-x-1/2,-z-1/2,y-1/2
z,-x,y
x-1/2,z-1/2,y-1/2
-y,-z,-x
-y,z,x
-z-1/2,-y-1/2,x-1/2
y,-z,x
z-1/2,y-1/2,x-1/2
y,z,-x
-z-1/2,y-1/2,-x-1/2
z-1/2,-y-1/2,-x-1/2
loop_
_atom_site_label
_atom_site_type_symbol
_atom_site_fract_x
_atom_site_fract_y
_atom_site_fract_z
_atom_site_occupancy
_atom_site_U_iso_or_equiv
Sn1 Sn 0.1201 0 0.31 0.63 0.0
P2 P 0.25 0 0.5 0.8 0.0
I2 I 0.5 0 0.25 1 0.0
Zn1 Zn 0.1201 0 0.31 0.17 0.0
Sn2 Sn 0.1525 0 0.342 0.2 0.0
P1 P 0.19222 0.19222 0.19222 1 0.0
I1 I 0 0 0 1 0.0
