#------------------------------------------------------------------------------
#$Date: 2016-02-13 21:28:24 +0200 (Sat, 13 Feb 2016) $
#$Revision: 176429 $
#$URL: svn://www.crystallography.net/cod/cif/1/53/66/1536679.cif $
#------------------------------------------------------------------------------
#
# This file is available in the Crystallography Open Database (COD),
# http://www.crystallography.net/
#
# All data on this site have been placed in the public domain by the
# contributors.
#
data_1536679
loop_
_publ_author_name
'Wu, G.'
'Tang, Z.'
'Lin, P.'
'Yu, Y.'
'Jansen, M.'
'Koenigstein, K.'
_publ_section_title
;
 A new type of divalent europium compound M Eu P O4 (M= K, Rb, Cs), its
 synthesis, crystal structure, and properties
;
_journal_name_full
'Zeitschrift fuer Anorganische und Allgemeine Chemie'
_journal_page_first              135
_journal_page_last               138
_journal_volume                  610
_journal_year                    1992
_chemical_formula_sum            'Eu K O4 P'
_chemical_name_systematic        'K Eu (P O4)'
_space_group_IT_number           62
_symmetry_space_group_name_Hall  '-P 2ac 2n'
_symmetry_space_group_name_H-M   'P n m a'
_cell_angle_alpha                90
_cell_angle_beta                 90
_cell_angle_gamma                90
_cell_formula_units_Z            4
_cell_length_a                   7.359
_cell_length_b                   5.569
_cell_length_c                   9.63
_cell_volume                     394.659
_citation_journal_id_ASTM        ZAACAB
_cod_data_source_file            Wu_ZAACAB_1992_103.cif
_cod_data_source_block           Eu1K1O4P1
_cod_original_cell_volume        394.6593
_cod_original_formula_sum        'Eu1 K1 O4 P1'
_cod_database_code               1536679
loop_
_symmetry_equiv_pos_as_xyz
x,y,z
-x+1/2,-y,z+1/2
x+1/2,-y+1/2,-z+1/2
-x,y+1/2,-z
-x,-y,-z
x-1/2,y,-z-1/2
-x-1/2,y-1/2,z-1/2
x,-y-1/2,z
loop_
_atom_site_label
_atom_site_type_symbol
_atom_site_fract_x
_atom_site_fract_y
_atom_site_fract_z
_atom_site_occupancy
_atom_site_U_iso_or_equiv
K1 K+1 0.1619 0.25 0.58597 1 0.0
O2 O-2 0.0358 0.25 0.9164 1 0.0
Eu1 Eu+2 -0.00928 0.25 0.19501 1 0.0
O1 O-2 0.1976 -0.0268 0.346 1 0.0
P1 P+5 0.2361 0.25 0.91761 1 0.0
O3 O-2 0.3015 0.25 0.0643 1 0.0
