#------------------------------------------------------------------------------
#$Date: 2016-02-13 21:28:24 +0200 (Sat, 13 Feb 2016) $
#$Revision: 176429 $
#$URL: svn://www.crystallography.net/cod/cif/1/53/61/1536166.cif $
#------------------------------------------------------------------------------
#
# This file is available in the Crystallography Open Database (COD),
# http://www.crystallography.net/
#
# All data on this site have been placed in the public domain by the
# contributors.
#
data_1536166
loop_
_publ_author_name
'Nuss, J.'
'Hoenle, W.'
'Peters, K.'
'von Schnering, H.G.'
_publ_section_title
;
 Tetrapnictidotitanate(IV) M4TiX4 (M = Sr, Ba; X = P, As), hierarchische
 Derivate der KGe - Struktur K4Ge4
;
_journal_name_full
'Zeitschrift fuer Anorganische und Allgemeine Chemie'
_journal_page_first              1879
_journal_page_last               1885
_journal_volume                  622
_journal_year                    1996
_chemical_formula_sum            'P4 Sr4 Ti'
_chemical_name_systematic        'Sr4 (Ti P4)'
_space_group_IT_number           218
_symmetry_space_group_name_Hall  'P -4n 2 3'
_symmetry_space_group_name_H-M   'P -4 3 n'
_cell_angle_alpha                90
_cell_angle_beta                 90
_cell_angle_gamma                90
_cell_formula_units_Z            8
_cell_length_a                   12.59
_cell_length_b                   12.59
_cell_length_c                   12.59
_cell_volume                     1995.617
_citation_journal_id_ASTM        ZAACAB
_cod_data_source_file            Nuss_ZAACAB_1996_445.cif
_cod_data_source_block           P4Sr4Ti1
_cod_original_formula_sum        'P4 Sr4 Ti1'
_cod_database_code               1536166
loop_
_symmetry_equiv_pos_as_xyz
x,y,z
y+1/2,-x+1/2,-z+1/2
-x,-y,z
-y+1/2,x+1/2,-z+1/2
x,-y,-z
-y+1/2,-x+1/2,z+1/2
-x,y,-z
y+1/2,x+1/2,z+1/2
z,x,y
x+1/2,-z+1/2,-y+1/2
-z,-x,y
-x+1/2,z+1/2,-y+1/2
z,-x,-y
-x+1/2,-z+1/2,y+1/2
-z,x,-y
x+1/2,z+1/2,y+1/2
y,z,x
y,-z,-x
-z+1/2,-y+1/2,x+1/2
-y,z,-x
z+1/2,y+1/2,x+1/2
-y,-z,x
-z+1/2,y+1/2,-x+1/2
z+1/2,-y+1/2,-x+1/2
loop_
_atom_site_label
_atom_site_type_symbol
_atom_site_fract_x
_atom_site_fract_y
_atom_site_fract_z
_atom_site_occupancy
_atom_site_U_iso_or_equiv
P2 P-3 0.3909 0.3909 0.3909 1 0.0
Sr2 Sr+2 0.64824 0.64824 0.64824 1 0.0
Ti1 Ti+4 0.25 0 0.5 1 0.0
Ti2 Ti+4 0 0 0 1 0.0
Sr1 Sr+2 0.40643 0.14824 0.3628 1 0.0
P1 P-3 0.1458 0.1153 0.3922 1 0.0
