#------------------------------------------------------------------------------
#$Date: 2016-02-13 21:28:24 +0200 (Sat, 13 Feb 2016) $
#$Revision: 176429 $
#$URL: svn://www.crystallography.net/cod/cif/1/53/69/1536913.cif $
#------------------------------------------------------------------------------
#
# This file is available in the Crystallography Open Database (COD),
# http://www.crystallography.net/
#
# All data on this site have been placed in the public domain by the
# contributors.
#
data_1536913
loop_
_publ_author_name
'Zakharov, M.A.'
'Troyanov, S.I.'
'Kemnitz, E.'
_publ_section_title
;
 Synthesis and crystal structure of the rare earth selenates: Nd(HSeO4)3,
 Sm(HSeO4)3 and Nd2(SeO4)3*5H2O
;
_journal_name_full               Kristallografiya
_journal_page_first              835
_journal_page_last               840
_journal_volume                  49
_journal_year                    2004
_chemical_formula_sum            'H3 O12 Se3 Sm'
_chemical_name_systematic        'Sm (H Se O4)3'
_space_group_IT_number           176
_symmetry_space_group_name_Hall  '-P 6c'
_symmetry_space_group_name_H-M   'P 63/m'
_cell_angle_alpha                90
_cell_angle_beta                 90
_cell_angle_gamma                120
_cell_formula_units_Z            2
_cell_length_a                   9.522
_cell_length_b                   9.522
_cell_length_c                   6.011
_cell_volume                     471.991
_citation_journal_id_ASTM        KRISAJ
_cod_data_source_file            Zakharov_KRISAJ_2004_1258.cif
_cod_data_source_block           H3O12Se3Sm1
_cod_original_formula_sum        'H3 O12 Se3 Sm1'
_cod_database_code               1536913
loop_
_symmetry_equiv_pos_as_xyz
x,y,z
x-y,x,z+1/2
-y,x-y,z
-x,-y,z+1/2
-x+y,-x,z
y,-x+y,z+1/2
-x,-y,-z
-x+y,-x,-z-1/2
y,-x+y,-z
x,y,-z-1/2
x-y,x,-z
-y,x-y,-z-1/2
loop_
_atom_site_label
_atom_site_type_symbol
_atom_site_fract_x
_atom_site_fract_y
_atom_site_fract_z
_atom_site_occupancy
_atom_site_U_iso_or_equiv
Se1 Se+6 0.69683 1.09861 0.75 1 0.0
O3 O-2 0.8125 1.0083 0.75 1 0.0
H1 H+1 0.7953 0.9716 0.75 1 0.0
O1 O-2 0.5085 0.9632 0.75 1 0.0
Sm1 Sm+3 0.3333 0.6667 0.75 1 0.0
O2 O-2 0.7572 1.2091 0.9703 1 0.0
