#------------------------------------------------------------------------------
#$Date: 2016-02-13 14:50:18 +0200 (Sat, 13 Feb 2016) $
#$Revision: 176428 $
#$URL: svn://www.crystallography.net/cod/cif/1/53/61/1536191.cif $
#------------------------------------------------------------------------------
#
# This file is available in the Crystallography Open Database (COD),
# http://www.crystallography.net/
#
# All data on this site have been placed in the public domain by the
# contributors.
#
data_1536191
loop_
_publ_author_name
'Joergens, S.'
'Mewis, A.'
'Mosel, B.D.'
'Hoffmann, R.D.'
'Poettgen, R.'
_publ_section_title
;
 Neue Hexachalkogeno-hypodiphosphate der Erdalkalimetalle und des
 Europiums
;
_journal_name_full
'Zeitschrift fuer Anorganische und Allgemeine Chemie'
_journal_page_first              429
_journal_page_last               433
_journal_volume                  629
_journal_year                    2003
_chemical_formula_sum            'Ba2 P2 Se6'
_chemical_name_systematic        'Ba2 (P2 Se6)'
_space_group_IT_number           14
_symmetry_space_group_name_Hall  '-P 2yn'
_symmetry_space_group_name_H-M   'P 1 21/n 1'
_cell_angle_alpha                90
_cell_angle_beta                 90.83
_cell_angle_gamma                90
_cell_formula_units_Z            2
_cell_length_a                   10.355
_cell_length_b                   7.862
_cell_length_c                   7.046
_cell_volume                     573.562
_citation_journal_id_ASTM        ZAACAB
_cod_data_source_file            Joergens_ZAACAB_2003_821.cif
_cod_data_source_block           Ba2P2Se6
_cod_original_cell_volume        573.5618
_cod_original_sg_symbol_Hall     '-P 2ybc (x-z,y,z)'
_cod_database_code               1536191
loop_
_symmetry_equiv_pos_as_xyz
x,y,z
-x+1/2,y+1/2,-z+1/2
-x,-y,-z
x-1/2,-y-1/2,z-1/2
loop_
_atom_site_label
_atom_site_type_symbol
_atom_site_fract_x
_atom_site_fract_y
_atom_site_fract_z
_atom_site_occupancy
_atom_site_U_iso_or_equiv
P1 P+4 0.05958 0.3887 0.4557 1 0.0
Se2 Se-2 0.97408 0.29382 0.19055 1 0.0
Se3 Se-2 0.03643 0.20317 0.68305 1 0.0
Se1 Se-2 0.25662 0.48239 0.43338 1 0.0
Ba1 Ba+2 0.25039 0.4094 0.96053 1 0.0
