#------------------------------------------------------------------------------
#$Date: 2016-02-13 21:28:24 +0200 (Sat, 13 Feb 2016) $
#$Revision: 176429 $
#$URL: svn://www.crystallography.net/cod/cif/1/53/62/1536290.cif $
#------------------------------------------------------------------------------
#
# This file is available in the Crystallography Open Database (COD),
# http://www.crystallography.net/
#
# All data on this site have been placed in the public domain by the
# contributors.
#
data_1536290
loop_
_publ_author_name
'Juergens, B.'
'Irran, E.'
'Schnick, W.'
_publ_section_title
;
 Synthesis and characterization of the rare-earth dicyanamides Ln (N (C
 N)2)3 with Ln = La, Ce, Pr, Nd, Sm, and Eu
;
_journal_name_full               'Journal of Solid State Chemistry'
_journal_page_first              72
_journal_page_last               78
_journal_volume                  178
_journal_year                    2005
_chemical_formula_sum            'C6 N9 Nd'
_chemical_name_systematic        'Nd (N (C N)2)3'
_space_group_IT_number           63
_symmetry_space_group_name_Hall  '-C 2c 2'
_symmetry_space_group_name_H-M   'C m c m'
_cell_angle_alpha                90
_cell_angle_beta                 90
_cell_angle_gamma                90
_cell_formula_units_Z            4
_cell_length_a                   7.87787
_cell_length_b                   11.4459
_cell_length_c                   10.1554
_cell_volume                     915.705
_citation_journal_id_ASTM        JSSCBI
_cod_data_source_file            Juergens_JSSCBI_2005_888.cif
_cod_data_source_block           C6N9Nd1
_cod_original_cell_volume        915.7054
_cod_original_formula_sum        'C6 N9 Nd1'
_cod_database_code               1536290
loop_
_symmetry_equiv_pos_as_xyz
x,y,z
-x,-y,z+1/2
x,-y,-z
-x,y,-z+1/2
-x,-y,-z
x,y,-z-1/2
-x,y,z
x,-y,z-1/2
x+1/2,y+1/2,z
-x+1/2,-y+1/2,z+1/2
x+1/2,-y+1/2,-z
-x+1/2,y+1/2,-z+1/2
-x+1/2,-y+1/2,-z
x+1/2,y+1/2,-z-1/2
-x+1/2,y+1/2,z
x+1/2,-y+1/2,z-1/2
loop_
_atom_site_label
_atom_site_type_symbol
_atom_site_fract_x
_atom_site_fract_y
_atom_site_fract_z
_atom_site_occupancy
_atom_site_U_iso_or_equiv
N2 N-3 0.2693 0.6315 0.25 1 0.0
C1 C+4 0.134 0.5889 0.25 1 0.0
Nd1 Nd+3 0 0.28828 0.25 1 0.0
N1 N-3 0 0.5172 0.25 1 0.0
N3 N-3 0 0.1629 0.48 1 0.0
C2 C+4 0.1374 0.1399 0.5498 1 0.0
N4 N-3 0.2718 0.1354 0.5939 1 0.0
