#------------------------------------------------------------------------------
#$Date: 2016-02-13 14:50:18 +0200 (Sat, 13 Feb 2016) $
#$Revision: 176428 $
#$URL: svn://www.crystallography.net/cod/cif/1/53/65/1536529.cif $
#------------------------------------------------------------------------------
#
# This file is available in the Crystallography Open Database (COD),
# http://www.crystallography.net/
#
# All data on this site have been placed in the public domain by the
# contributors.
#
data_1536529
loop_
_publ_author_name
'Wickleder, C.'
_publ_section_title
;
 Quaternaere Chloride des zweiwertigen Europiums mit dreiwertigen
 Uebergangsmetallen: Synthese und Kristallstruktur von Na6 Eu3 M4 Cl24 (M
 = Ti, V, Cr)
;
_journal_name_full
'Zeitschrift fuer Anorganische und Allgemeine Chemie'
_journal_page_first              549
_journal_page_last               553
_journal_volume                  627
_journal_year                    2001
_chemical_formula_sum            'Cl12 Eu1.436 Na3.07 Ti2'
_chemical_name_systematic        'Na0.506 (Na2.564 Eu1.436) Ti2 Cl12'
_space_group_IT_number           14
_symmetry_space_group_name_Hall  '-P 2yn'
_symmetry_space_group_name_H-M   'P 1 21/n 1'
_cell_angle_alpha                90
_cell_angle_beta                 91.55
_cell_angle_gamma                90
_cell_formula_units_Z            1
_cell_length_a                   6.6384
_cell_length_b                   7.1831
_cell_length_c                   9.533
_cell_volume                     454.408
_citation_journal_id_ASTM        ZAACAB
_cod_data_source_file            Wickleder_ZAACAB_2001_75.cif
_cod_data_source_block           Cl12Eu1.436Na3.07Ti2
_cod_original_cell_volume        454.4081
_cod_original_sg_symbol_Hall     '-P 2ybc (x-z,y,z)'
_cod_database_code               1536529
loop_
_symmetry_equiv_pos_as_xyz
x,y,z
-x+1/2,y+1/2,-z+1/2
-x,-y,-z
x-1/2,-y-1/2,z-1/2
loop_
_atom_site_label
_atom_site_type_symbol
_atom_site_fract_x
_atom_site_fract_y
_atom_site_fract_z
_atom_site_occupancy
_atom_site_U_iso_or_equiv
Na2 Na+1 0 0 0.5 0.253 0.0
Cl1 Cl-1 0.19646 0.32831 0.5579 1 0.0
Na1 Na+1 0.0332 0.59832 0.74624 0.641 0.0
Eu1 Eu+2 0.0332 0.59832 0.74624 0.359 0.0
Cl3 Cl-1 -0.1208 0.9667 0.76049 1 0.0
Cl2 Cl-1 0.16108 0.29319 0.94281 1 0.0
Ti1 Ti+3 0.5 0.5 0.5 1 0.0
