#------------------------------------------------------------------------------
#$Date: 2015-10-10 05:59:16 +0300 (Sat, 10 Oct 2015) $
#$Revision: 164566 $
#$URL: svn://www.crystallography.net/cod/cif/1/53/67/1536733.cif $
#------------------------------------------------------------------------------
#
# This file is available in the Crystallography Open Database (COD),
# http://www.crystallography.net/
#
# All data on this site have been placed in the public domain by the
# contributors.
#
data_1536733
loop_
_publ_author_name
'Wurth, A.'
'Loehken, A.'
'Mewis, A.'
_publ_section_title
;
 Synthese und Kristallstrukturen ternaerer Phosphide und Arsenide des
 Rhodiums und Iridiums
;
_journal_name_full
'Zeitschrift fuer Anorganische und Allgemeine Chemie'
_journal_page_first              661
_journal_page_last               666
_journal_volume                  628
_journal_year                    2002
_chemical_formula_sum            'P19 Rh30 Yb6'
_chemical_name_systematic        'Yb6 Rh30 P19'
_space_group_IT_number           176
_symmetry_space_group_name_Hall  '-P 6c'
_symmetry_space_group_name_H-M   'P 63/m'
_cell_angle_alpha                90
_cell_angle_beta                 90
_cell_angle_gamma                120
_cell_formula_units_Z            1
_cell_length_a                   15.508
_cell_length_b                   15.508
_cell_length_c                   3.77
_cell_volume                     785.206
_citation_journal_id_ASTM        ZAACAB
_cod_data_source_file            Wurth_ZAACAB_2002_402.cif
_cod_data_source_block           P19Rh30Yb6
_cod_original_cell_volume        785.2059
_cod_database_code               1536733
loop_
_symmetry_equiv_pos_as_xyz
x,y,z
x-y,x,z+1/2
-y,x-y,z
-x,-y,z+1/2
-x+y,-x,z
y,-x+y,z+1/2
-x,-y,-z
-x+y,-x,-z-1/2
y,-x+y,-z
x,y,-z-1/2
x-y,x,-z
-y,x-y,-z-1/2
loop_
_atom_site_label
_atom_site_type_symbol
_atom_site_fract_x
_atom_site_fract_y
_atom_site_fract_z
_atom_site_occupancy
_atom_site_U_iso_or_equiv
Rh5 Rh 0.14913 0.02254 0.25 1 0.0
Yb1 Yb 0.39361 0.09618 0.25 1 0.0
Rh2 Rh 0.46577 0.92591 0.25 1 0.0
P1 P 0.4526 0.7702 0.25 1 0.0
Rh1 Rh 0.65159 0.22329 0.25 1 0.0
P2 P 0.1422 0.259 0.25 1 0.0
Rh4 Rh 0.15727 0.41558 0.25 1 0.0
P3 P 0.4311 0.3718 0.25 1 0.0
P4 P 0 0 0.095 0.25 0.0
Rh3 Rh 0.27662 0.2321 0.25 1 0.0
