#------------------------------------------------------------------------------
#$Date: 2018-09-27 07:13:35 +0300 (Thu, 27 Sep 2018) $
#$Revision: 211196 $
#$URL: file:///home/coder/svn-repositories/cod/cif/1/53/64/1536462.cif $
#------------------------------------------------------------------------------
#
# This file is available in the Crystallography Open Database (COD),
# http://www.crystallography.net/
#
# All data on this site have been placed in the public domain by the
# contributors.
#
data_1536462
loop_
_publ_author_name
'Welter, R.'
'Venturini, G.'
'Malaman, B.'
'Ressouche, E.'
_publ_section_title
;
 Crystallographic data and magnetic properties of new R T X compounds (R=
 La-Sm, Gd; T= Ru, Os; X= Si, Ge). Magnetic structure of Nd Ru Si
;
_journal_name_full               'Journal of Alloys Compd.'
_journal_page_first              165
_journal_page_last               172
_journal_volume                  202
_journal_year                    1993
_chemical_formula_sum            'Nd Ru Si'
_space_group_IT_number           129
_symmetry_space_group_name_Hall  '-P 4a 2a'
_symmetry_space_group_name_H-M   'P 4/n m m :2'
_cell_angle_alpha                90
_cell_angle_beta                 90
_cell_angle_gamma                90
_cell_formula_units_Z            2
_cell_length_a                   4.197
_cell_length_b                   4.197
_cell_length_c                   6.807
_cell_volume                     119.904
_citation_journal_id_ASTM        JALCEU
_cod_data_source_file            Welter_JALCEU_1993_652.cif
_cod_data_source_block           Nd1Ru1Si1
_cod_original_formula_sum        'Nd1 Ru1 Si1'
_cod_database_code               1536462
loop_
_symmetry_equiv_pos_as_xyz
x,y,z
-y+1/2,x,z
-x+1/2,-y+1/2,z
y,-x+1/2,z
x+1/2,-y,-z
y+1/2,x+1/2,-z
-x,y+1/2,-z
-y,-x,-z
-x,-y,-z
y-1/2,-x,-z
x-1/2,y-1/2,-z
-y,x-1/2,-z
-x-1/2,y,z
-y-1/2,-x-1/2,z
x,-y-1/2,z
y,x,z
loop_
_atom_site_label
_atom_site_type_symbol
_atom_site_fract_x
_atom_site_fract_y
_atom_site_fract_z
_atom_site_occupancy
_atom_site_U_iso_or_equiv
Nd1 Nd 0.25 0.25 0.679 1 0.0
Si1 Si 0.25 0.25 0.175 1 0.0
Ru1 Ru 0.75 0.25 0 1 0.0
