#------------------------------------------------------------------------------
#$Date: 2018-09-27 07:13:35 +0300 (Thu, 27 Sep 2018) $
#$Revision: 211196 $
#$URL: file:///home/coder/svn-repositories/cod/cif/1/53/66/1536690.cif $
#------------------------------------------------------------------------------
#
# This file is available in the Crystallography Open Database (COD),
# http://www.crystallography.net/
#
# All data on this site have been placed in the public domain by the
# contributors.
#
data_1536690
loop_
_publ_author_name
'Wu, Z.Y.'
'Hoffmann, R.D.'
'Poettgen, R.'
_publ_section_title
;
 Synthesis and Structure of the Intermetallic Lithium Stannides LiTSn4 (T
 = Ru, Rh, Ir) with Ordered PdGa5 Type Structure
;
_journal_name_full
'Zeitschrift fuer Anorganische und Allgemeine Chemie'
_journal_page_first              1484
_journal_page_last               1488
_journal_volume                  628
_journal_year                    2002
_chemical_formula_sum            'Li Rh Sn4'
_space_group_IT_number           140
_symmetry_space_group_name_Hall  '-I 4 2c'
_symmetry_space_group_name_H-M   'I 4/m c m'
_cell_angle_alpha                90
_cell_angle_beta                 90
_cell_angle_gamma                90
_cell_formula_units_Z            4
_cell_length_a                   6.5873
_cell_length_b                   6.5873
_cell_length_c                   11.364
_cell_volume                     493.113
_citation_journal_id_ASTM        ZAACAB
_cod_data_source_file            Wu_ZAACAB_2002_472.cif
_cod_data_source_block           Li1Rh1Sn4
_cod_original_cell_volume        493.1126
_cod_original_formula_sum        'Li1 Rh1 Sn4'
_cod_database_code               1536690
loop_
_symmetry_equiv_pos_as_xyz
x,y,z
-y,x,z
-x,-y,z
y,-x,z
x,-y,-z+1/2
y,x,-z+1/2
-x,y,-z+1/2
-y,-x,-z+1/2
-x,-y,-z
y,-x,-z
x,y,-z
-y,x,-z
-x,y,z-1/2
-y,-x,z-1/2
x,-y,z-1/2
y,x,z-1/2
x+1/2,y+1/2,z+1/2
-y+1/2,x+1/2,z+1/2
-x+1/2,-y+1/2,z+1/2
y+1/2,-x+1/2,z+1/2
x+1/2,-y+1/2,-z+1
y+1/2,x+1/2,-z+1
-x+1/2,y+1/2,-z+1
-y+1/2,-x+1/2,-z+1
-x+1/2,-y+1/2,-z+1/2
y+1/2,-x+1/2,-z+1/2
x+1/2,y+1/2,-z+1/2
-y+1/2,x+1/2,-z+1/2
-x+1/2,y+1/2,z
-y+1/2,-x+1/2,z
x+1/2,-y+1/2,z
y+1/2,x+1/2,z
loop_
_atom_site_label
_atom_site_type_symbol
_atom_site_fract_x
_atom_site_fract_y
_atom_site_fract_z
_atom_site_occupancy
_atom_site_U_iso_or_equiv
Li1 Li 0 0 0 1 0.0
Rh1 Rh 0 0 0.25 1 0.0
Sn1 Sn 0.16037 0.33963 0.36529 1 0.0
