#------------------------------------------------------------------------------
#$Date: 2016-02-13 21:28:24 +0200 (Sat, 13 Feb 2016) $
#$Revision: 176429 $
#$URL: svn://www.crystallography.net/cod/cif/1/53/69/1536960.cif $
#------------------------------------------------------------------------------
#
# This file is available in the Crystallography Open Database (COD),
# http://www.crystallography.net/
#
# All data on this site have been placed in the public domain by the
# contributors.
#
data_1536960
loop_
_publ_author_name
'Zaremba, V.I.'
'Kaczorowski, D.'
'Nychyporuk, G.'
'Rodewald, U.C.'
'Poettgen, R.'
_publ_section_title
;
 Structure and physical properties of RE2 Ge2 In (RE = La, Ce, Pr, Nd)
;
_journal_name_full               'Solid State Sciences'
_journal_page_first              1301
_journal_page_last               1306
_journal_volume                  6
_journal_year                    2004
_chemical_formula_sum            'Ge2 In Pr2'
_chemical_name_systematic        'Pr2 Ge2 In'
_space_group_IT_number           127
_symmetry_space_group_name_Hall  '-P 4 2ab'
_symmetry_space_group_name_H-M   'P 4/m b m'
_cell_angle_alpha                90
_cell_angle_beta                 90
_cell_angle_gamma                90
_cell_formula_units_Z            2
_cell_length_a                   7.532
_cell_length_b                   7.532
_cell_length_c                   4.3469
_cell_volume                     246.604
_citation_journal_id_ASTM        SSSCFJ
_cod_data_source_file            Zaremba_SSSCFJ_2004_1603.cif
_cod_data_source_block           Ge2In1Pr2
_cod_original_cell_volume        246.6041
_cod_original_formula_sum        'Ge2 In1 Pr2'
_cod_database_code               1536960
loop_
_symmetry_equiv_pos_as_xyz
x,y,z
-y,x,z
-x,-y,z
y,-x,z
x+1/2,-y+1/2,-z
y+1/2,x+1/2,-z
-x+1/2,y+1/2,-z
-y+1/2,-x+1/2,-z
-x,-y,-z
y,-x,-z
x,y,-z
-y,x,-z
-x-1/2,y-1/2,z
-y-1/2,-x-1/2,z
x-1/2,-y-1/2,z
y-1/2,x-1/2,z
loop_
_atom_site_label
_atom_site_type_symbol
_atom_site_fract_x
_atom_site_fract_y
_atom_site_fract_z
_atom_site_occupancy
_atom_site_U_iso_or_equiv
In1 In 0 0 0 1 0.0
Ge1 Ge 0.38147 0.88147 0 1 0.0
Pr1 Pr 0.17917 0.67917 0.5 1 0.0
