#------------------------------------------------------------------------------
#$Date: 2016-02-13 14:50:18 +0200 (Sat, 13 Feb 2016) $
#$Revision: 176428 $
#$URL: svn://www.crystallography.net/cod/cif/1/53/69/1536912.cif $
#------------------------------------------------------------------------------
#
# This file is available in the Crystallography Open Database (COD),
# http://www.crystallography.net/
#
# All data on this site have been placed in the public domain by the
# contributors.
#
data_1536912
loop_
_publ_author_name
'Kotur, B.Ya.'
'Mokra, I.R.'
'Toporinskii, A.Ya.'
_publ_section_title
;
 The ternary systems Sc-Sm(Dy)-Si at 870K
;
_journal_name_full               'Izvestiya Akademii Nauk SSSR, Metally'
_journal_page_first              204
_journal_page_last               207
_journal_volume                  1991
_journal_year                    1991
_chemical_formula_sum            'Dy0.7 Sc0.3 Si2'
_chemical_name_systematic        'Sc0.3 Dy0.7 Si2'
_space_group_IT_number           141
_symmetry_space_group_name_Hall  'I 4bw 2bw -1bw'
_symmetry_space_group_name_H-M   'I 41/a m d :1'
_cell_angle_alpha                90
_cell_angle_beta                 90
_cell_angle_gamma                90
_cell_formula_units_Z            4
_cell_length_a                   3.943
_cell_length_b                   3.943
_cell_length_c                   13.188
_cell_volume                     205.037
_citation_journal_id_ASTM        IZNMAQ
_cod_data_source_file            Kotur_IZNMAQ_1991_1195.cif
_cod_data_source_block           Dy0.7Sc0.3Si2
_cod_original_cell_volume        205.0371
_cod_original_sg_symbol_Hall     '-I 4bd 2 (x+1/2,y+1/4,z+1/8)'
_cod_database_code               1536912
loop_
_symmetry_equiv_pos_as_xyz
x,y,z
-y,x+1/2,z+1/4
-x+1/2,-y+1/2,z+1/2
y+1/2,-x,z+3/4
x,-y+1/2,-z+1/4
y+1/2,x+1/2,-z+1/2
-x+1/2,y,-z+3/4
-y,-x,-z
-x,-y+1/2,-z+1/4
y,-x,-z
x-1/2,y,-z-1/4
-y-1/2,x+1/2,-z-1/2
-x,y,z
-y-1/2,-x,z-1/4
x-1/2,-y+1/2,z-1/2
y,x+1/2,z+1/4
x+1/2,y+1/2,z+1/2
-y+1/2,x+1,z+3/4
-x+1,-y+1,z+1
y+1,-x+1/2,z+5/4
x+1/2,-y+1,-z+3/4
y+1,x+1,-z+1
-x+1,y+1/2,-z+5/4
-y+1/2,-x+1/2,-z+1/2
-x+1/2,-y+1,-z+3/4
y+1/2,-x+1/2,-z+1/2
x,y+1/2,-z+1/4
-y,x+1,-z
-x+1/2,y+1/2,z+1/2
-y,-x+1/2,z+1/4
x,-y+1,z
y+1/2,x+1,z+3/4
loop_
_atom_site_label
_atom_site_type_symbol
_atom_site_fract_x
_atom_site_fract_y
_atom_site_fract_z
_atom_site_occupancy
_atom_site_U_iso_or_equiv
Si1 Si 0 0 0.4186 1 0.0
Sc1 Sc 0 0 0 0.3 0.0
Dy1 Dy 0 0 0 0.7 0.0
