#------------------------------------------------------------------------------
#$Date: 2018-09-27 07:13:35 +0300 (Thu, 27 Sep 2018) $
#$Revision: 211196 $
#$URL: file:///home/coder/svn-repositories/cod/cif/1/53/79/1537991.cif $
#------------------------------------------------------------------------------
#
# This file is available in the Crystallography Open Database (COD),
# http://www.crystallography.net/
#
# All data on this site have been placed in the public domain by the
# contributors.
#
data_1537991
loop_
_publ_author_name
'Felner, I.'
'Nowik, I.'
_publ_section_title
;
 Itinerant and local magnetism, superconductivity and mixed valency
 phenomena in R M2 Si2, (R= rare earth, M= Rh, Ru)
;
_journal_name_full               'Journal of Physics and Chemistry of Solids'
_journal_page_first              419
_journal_page_last               426
_journal_volume                  45
_journal_year                    1984
_chemical_formula_sum            'Ho Rh2 Si2'
_space_group_IT_number           139
_symmetry_space_group_name_Hall  '-I 4 2'
_symmetry_space_group_name_H-M   'I 4/m m m'
_cell_angle_alpha                90
_cell_angle_beta                 90
_cell_angle_gamma                90
_cell_formula_units_Z            2
_cell_length_a                   4.015
_cell_length_b                   4.015
_cell_length_c                   9.89
_cell_volume                     159.429
_citation_journal_id_ASTM        JPCSAW
_cod_data_source_file            Felner_JPCSAW_1984_202.cif
_cod_data_source_block           Ho1Rh2Si2
_cod_original_formula_sum        'Ho1 Rh2 Si2'
_cod_database_code               1537991
loop_
_symmetry_equiv_pos_as_xyz
x,y,z
-y,x,z
-x,-y,z
y,-x,z
x,-y,-z
y,x,-z
-x,y,-z
-y,-x,-z
-x,-y,-z
y,-x,-z
x,y,-z
-y,x,-z
-x,y,z
-y,-x,z
x,-y,z
y,x,z
x+1/2,y+1/2,z+1/2
-y+1/2,x+1/2,z+1/2
-x+1/2,-y+1/2,z+1/2
y+1/2,-x+1/2,z+1/2
x+1/2,-y+1/2,-z+1/2
y+1/2,x+1/2,-z+1/2
-x+1/2,y+1/2,-z+1/2
-y+1/2,-x+1/2,-z+1/2
-x+1/2,-y+1/2,-z+1/2
y+1/2,-x+1/2,-z+1/2
x+1/2,y+1/2,-z+1/2
-y+1/2,x+1/2,-z+1/2
-x+1/2,y+1/2,z+1/2
-y+1/2,-x+1/2,z+1/2
x+1/2,-y+1/2,z+1/2
y+1/2,x+1/2,z+1/2
loop_
_atom_site_label
_atom_site_type_symbol
_atom_site_fract_x
_atom_site_fract_y
_atom_site_fract_z
_atom_site_occupancy
_atom_site_U_iso_or_equiv
Ho1 Ho 0 0 0 1 0.0
Rh1 Rh 0 0.5 0.25 1 0.0
Si1 Si 0 0 0.377 1 0.0
