#------------------------------------------------------------------------------
#$Date: 2015-10-12 17:48:40 +0300 (Mon, 12 Oct 2015) $
#$Revision: 165926 $
#$URL: svn://www.crystallography.net/cod/cif/1/53/76/1537630.cif $
#------------------------------------------------------------------------------
#
# This file is available in the Crystallography Open Database (COD),
# http://www.crystallography.net/
#
# All data on this site have been placed in the public domain by the
# contributors.
#
data_1537630
loop_
_publ_author_name
'Alekseevskii, N.E.'
'Ageev, N.V.'
'Shamray, V.F.'
_publ_section_title
;
 Investigation of some three-component solid solutions based on the
 compound V3 Si
;
_journal_name_full               'Physics of Metals and Metallography'
_journal_page_first              42
_journal_page_last               48
_journal_volume                  43
_journal_year                    1977
_chemical_formula_sum            'Sb0.4 Si1.6 V6'
_chemical_name_systematic        '(V15 Sb Si4)0.4'
_space_group_IT_number           223
_symmetry_space_group_name_Hall  '-P 4n 2 3'
_symmetry_space_group_name_H-M   'P m -3 n'
_cell_angle_alpha                90
_cell_angle_beta                 90
_cell_angle_gamma                90
_cell_formula_units_Z            1
_cell_length_a                   4.751
_cell_length_b                   4.751
_cell_length_c                   4.751
_cell_volume                     107.240
_citation_journal_id_ASTM        PHMMA6
_cod_data_source_file            Alekseevskii_PHMMA6_1977_1843.cif
_cod_data_source_block           Sb0.4Si1.6V6
_cod_original_cell_volume        107.2396
_cod_database_code               1537630
loop_
_symmetry_equiv_pos_as_xyz
x,y,z
-y+1/2,x+1/2,z+1/2
-x,-y,z
y+1/2,-x+1/2,z+1/2
x,-y,-z
y+1/2,x+1/2,-z+1/2
-x,y,-z
-y+1/2,-x+1/2,-z+1/2
z,x,y
-x+1/2,z+1/2,y+1/2
-z,-x,y
x+1/2,-z+1/2,y+1/2
z,-x,-y
x+1/2,z+1/2,-y+1/2
-z,x,-y
-x+1/2,-z+1/2,-y+1/2
y,z,x
y,-z,-x
z+1/2,y+1/2,-x+1/2
-y,z,-x
-z+1/2,-y+1/2,-x+1/2
-y,-z,x
z+1/2,-y+1/2,x+1/2
-z+1/2,y+1/2,x+1/2
-x,-y,-z
y-1/2,-x-1/2,-z-1/2
x,y,-z
-y-1/2,x-1/2,-z-1/2
-x,y,z
-y-1/2,-x-1/2,z-1/2
x,-y,z
y-1/2,x-1/2,z-1/2
-z,-x,-y
x-1/2,-z-1/2,-y-1/2
z,x,-y
-x-1/2,z-1/2,-y-1/2
-z,x,y
-x-1/2,-z-1/2,y-1/2
z,-x,y
x-1/2,z-1/2,y-1/2
-y,-z,-x
-y,z,x
-z-1/2,-y-1/2,x-1/2
y,-z,x
z-1/2,y-1/2,x-1/2
y,z,-x
-z-1/2,y-1/2,-x-1/2
z-1/2,-y-1/2,-x-1/2
loop_
_atom_site_label
_atom_site_type_symbol
_atom_site_fract_x
_atom_site_fract_y
_atom_site_fract_z
_atom_site_occupancy
_atom_site_U_iso_or_equiv
Sb1 Sb 0 0 0 0.2 0.0
Si1 Si 0 0 0 0.8 0.0
V1 V 0.25 0 0.5 1 0.0
