#------------------------------------------------------------------------------
#$Date: 2016-02-13 21:28:24 +0200 (Sat, 13 Feb 2016) $
#$Revision: 176429 $
#$URL: svn://www.crystallography.net/cod/cif/1/53/74/1537447.cif $
#------------------------------------------------------------------------------
#
# This file is available in the Crystallography Open Database (COD),
# http://www.crystallography.net/
#
# All data on this site have been placed in the public domain by the
# contributors.
#
data_1537447
loop_
_publ_author_name
'Hylleraas, E.'
_publ_section_title
;
 Die Atomanordnung in den tetragonalen Kristallen von K2 J2 O8,
 Kaliummetaperjodat.
;
_journal_name_full               'Zeitschrift fuer Physik'
_journal_page_first              308
_journal_page_last               321
_journal_volume                  39
_journal_year                    1926
_chemical_formula_sum            'I K O4'
_chemical_name_systematic        'K (I O4)'
_space_group_IT_number           88
_symmetry_space_group_name_Hall  'I 4bw -1bw'
_symmetry_space_group_name_H-M   'I 41/a :1'
_cell_angle_alpha                90
_cell_angle_beta                 90
_cell_angle_gamma                90
_cell_formula_units_Z            4
_cell_length_a                   5.76
_cell_length_b                   5.76
_cell_length_c                   12.65
_cell_volume                     419.697
_citation_journal_id_ASTM        ZEPYAA
_cod_data_source_file            Hylleraas_ZEPYAA_1926_1598.cif
_cod_data_source_block           I1K1O4
_cod_original_cell_volume        419.6967
_cod_original_sg_symbol_Hall     '-I 4ad (x,y+1/4,z+1/8)'
_cod_original_formula_sum        'I1 K1 O4'
_cod_database_code               1537447
loop_
_symmetry_equiv_pos_as_xyz
x,y,z
-y,x+1/2,z+1/4
-x+1/2,-y+1/2,z+1/2
y+1/2,-x,z+3/4
-x,-y+1/2,-z+1/4
y,-x,-z
x-1/2,y,-z-1/4
-y-1/2,x+1/2,-z-1/2
x+1/2,y+1/2,z+1/2
-y+1/2,x+1,z+3/4
-x+1,-y+1,z+1
y+1,-x+1/2,z+5/4
-x+1/2,-y+1,-z+3/4
y+1/2,-x+1/2,-z+1/2
x,y+1/2,-z+1/4
-y,x+1,-z
loop_
_atom_site_label
_atom_site_type_symbol
_atom_site_fract_x
_atom_site_fract_y
_atom_site_fract_z
_atom_site_occupancy
_atom_site_U_iso_or_equiv
I1 I+7 0 0 0.5 1 0.0
O1 O-2 0.18 0.07 0.18 1 0.0
K1 K+1 0 0 0 1 0.0
