#------------------------------------------------------------------------------
#$Date: 2015-10-10 07:45:15 +0300 (Sat, 10 Oct 2015) $
#$Revision: 165013 $
#$URL: svn://www.crystallography.net/cod/cif/1/53/70/1537041.cif $
#------------------------------------------------------------------------------
#
# This file is available in the Crystallography Open Database (COD),
# http://www.crystallography.net/
#
# All data on this site have been placed in the public domain by the
# contributors.
#
data_1537041
loop_
_publ_author_name
'Zheng Chong'
'Mattausch, H.J.'
'Oeckler, O.'
'Simon, A.'
'Nuss, J.'
_publ_section_title
;
 La4 Br2 Al5 and Ce4 Br2 Ga5: three-dimensional metal networks embedded in
 condensed Ln6 trigonal prisms
;
_journal_name_full
'Zeitschrift fuer Anorganische und Allgemeine Chemie'
_journal_page_first              2229
_journal_page_last               2235
_journal_volume                  629
_journal_year                    2003
_chemical_formula_sum            'Br2 Ga4.69 La4.15'
_chemical_name_systematic        'La4.15 Br2 Ga4.69'
_space_group_IT_number           65
_symmetry_space_group_name_Hall  '-C 2 2'
_symmetry_space_group_name_H-M   'C m m m'
_cell_angle_alpha                90
_cell_angle_beta                 90
_cell_angle_gamma                90
_cell_formula_units_Z            4
_cell_length_a                   15.9015
_cell_length_b                   17.0341
_cell_length_c                   4.2612
_cell_volume                     1154.222
_citation_journal_id_ASTM        ZAACAB
_cod_data_source_file            ZhengChong_ZAACAB_2003_1068.cif
_cod_data_source_block           Br2Ga4.69La4.15
_cod_database_code               1537041
loop_
_symmetry_equiv_pos_as_xyz
x,y,z
-x,-y,z
x,-y,-z
-x,y,-z
-x,-y,-z
x,y,-z
-x,y,z
x,-y,z
x+1/2,y+1/2,z
-x+1/2,-y+1/2,z
x+1/2,-y+1/2,-z
-x+1/2,y+1/2,-z
-x+1/2,-y+1/2,-z
x+1/2,y+1/2,-z
-x+1/2,y+1/2,z
x+1/2,-y+1/2,z
loop_
_atom_site_label
_atom_site_type_symbol
_atom_site_fract_x
_atom_site_fract_y
_atom_site_fract_z
_atom_site_occupancy
_atom_site_U_iso_or_equiv
La1 La 0 0.36534 0 0.692 0.0
La2 La 0 0.3284 0 0.308 0.0
Ga2 Ga 0.2859 0.18377 0 1 0.0
Br1 Br 0 0.1715 0 0.692 0.0
La4 La 0.1428 0.18098 0.5 1 0.0
Br2 Br 0 0.1438 0 0.308 0.0
La3 La 0.27192 0 0 1 0.0
Ga1 Ga 0.3525 0.13284 0.5 1 0.0
La5 La 0.5 0 0.5 0.308 0.0
Br3 Br 0.12546 0 0.5 1 0.0
Ga3 Ga 0.4206 0 0.5 0.692 0.0
