#------------------------------------------------------------------------------
#$Date: 2016-02-13 21:28:24 +0200 (Sat, 13 Feb 2016) $
#$Revision: 176429 $
#$URL: svn://www.crystallography.net/cod/cif/1/53/72/1537218.cif $
#------------------------------------------------------------------------------
#
# This file is available in the Crystallography Open Database (COD),
# http://www.crystallography.net/
#
# All data on this site have been placed in the public domain by the
# contributors.
#
data_1537218
loop_
_publ_author_name
'Galadzhun, Ya.V.'
'Zaremba, V.I.'
'Davydov, V.M.'
'Stepien-Damm, J.'
'Kal'ichak, Ya.M.'
'Pikul, A.P.'
'Kaczorowski, D.'
_publ_section_title
;
 R12 Pt7 In (R= Ce, Pr, Nd, Gd, Ho) - New Derivatives of the Gd3Ga2-type
;
_journal_name_full               'Journal of Solid State Chemistry'
_journal_page_first              17
_journal_page_last               25
_journal_volume                  177
_journal_year                    2004
_chemical_formula_sum            'Ce12 In Pt7'
_chemical_name_systematic        'Ce12 Pt7 In'
_space_group_IT_number           140
_symmetry_space_group_name_Hall  '-I 4 2c'
_symmetry_space_group_name_H-M   'I 4/m c m'
_cell_angle_alpha                90
_cell_angle_beta                 90
_cell_angle_gamma                90
_cell_formula_units_Z            4
_cell_length_a                   12.102
_cell_length_b                   12.102
_cell_length_c                   14.542
_cell_volume                     2129.798
_citation_journal_id_ASTM        JSSCBI
_cod_data_source_file            Galadzhun_JSSCBI_2004_1026.cif
_cod_data_source_block           Ce12In1Pt7
_cod_original_formula_sum        'Ce12 In1 Pt7'
_cod_database_code               1537218
loop_
_symmetry_equiv_pos_as_xyz
x,y,z
-y,x,z
-x,-y,z
y,-x,z
x,-y,-z+1/2
y,x,-z+1/2
-x,y,-z+1/2
-y,-x,-z+1/2
-x,-y,-z
y,-x,-z
x,y,-z
-y,x,-z
-x,y,z-1/2
-y,-x,z-1/2
x,-y,z-1/2
y,x,z-1/2
x+1/2,y+1/2,z+1/2
-y+1/2,x+1/2,z+1/2
-x+1/2,-y+1/2,z+1/2
y+1/2,-x+1/2,z+1/2
x+1/2,-y+1/2,-z+1
y+1/2,x+1/2,-z+1
-x+1/2,y+1/2,-z+1
-y+1/2,-x+1/2,-z+1
-x+1/2,-y+1/2,-z+1/2
y+1/2,-x+1/2,-z+1/2
x+1/2,y+1/2,-z+1/2
-y+1/2,x+1/2,-z+1/2
-x+1/2,y+1/2,z
-y+1/2,-x+1/2,z
x+1/2,-y+1/2,z
y+1/2,x+1/2,z
loop_
_atom_site_label
_atom_site_type_symbol
_atom_site_fract_x
_atom_site_fract_y
_atom_site_fract_z
_atom_site_occupancy
_atom_site_U_iso_or_equiv
Ce2 Ce 0 0.5 0.1392 1 0.0
Pt3 Pt 0 0 0.25 1 0.0
Pt2 Pt 0.6245 0.1245 0 1 0.0
Pt1 Pt 0.17502 0.67502 0.19565 1 0.0
In1 In 0 0 0 1 0.0
Ce1 Ce 0.0711 0.2082 0.14222 1 0.0
Ce3 Ce 0.1753 0.6753 0 1 0.0
