#------------------------------------------------------------------------------
#$Date: 2016-02-13 21:28:24 +0200 (Sat, 13 Feb 2016) $
#$Revision: 176429 $
#$URL: svn://www.crystallography.net/cod/cif/1/53/70/1537020.cif $
#------------------------------------------------------------------------------
#
# This file is available in the Crystallography Open Database (COD),
# http://www.crystallography.net/
#
# All data on this site have been placed in the public domain by the
# contributors.
#
data_1537020
loop_
_publ_author_name
'Kranenberg, C.'
'Johrendt, D.'
'Mewis, A.'
_publ_section_title
;
 The stability range of the (Ca Al2 Si2) -type structure in the case of Ln
 Al2 Ge2 compounds
;
_journal_name_full               'Solid State Sciences'
_journal_page_first              261
_journal_page_last               265
_journal_volume                  4
_journal_year                    2002
_chemical_formula_sum            'Al Gd Ge2 Zn'
_chemical_name_systematic        'Gd Al Zn Ge2'
_space_group_IT_number           164
_symmetry_space_group_name_Hall  '-P 3 2"'
_symmetry_space_group_name_H-M   'P -3 m 1'
_cell_angle_alpha                90
_cell_angle_beta                 90
_cell_angle_gamma                120
_cell_formula_units_Z            1
_cell_length_a                   4.194
_cell_length_b                   4.194
_cell_length_c                   6.846
_cell_volume                     104.286
_citation_journal_id_ASTM        SSSCFJ
_cod_data_source_file            Kranenberg_SSSCFJ_2002_390.cif
_cod_data_source_block           Al1Gd1Ge2Zn1
_cod_original_cell_volume        104.2856
_cod_original_formula_sum        'Al1 Gd1 Ge2 Zn1'
_cod_database_code               1537020
loop_
_symmetry_equiv_pos_as_xyz
x,y,z
-y,x-y,z
-x+y,-x,z
y,x,-z
-x,-x+y,-z
x-y,-y,-z
-x,-y,-z
y,-x+y,-z
x-y,x,-z
-y,-x,z
x,x-y,z
-x+y,y,z
loop_
_atom_site_label
_atom_site_type_symbol
_atom_site_fract_x
_atom_site_fract_y
_atom_site_fract_z
_atom_site_occupancy
_atom_site_U_iso_or_equiv
Zn1 Zn 0.3333 0.6667 0.6389 0.5 0.0
Gd1 Gd 0 0 0 1 0.0
Ge1 Ge 0.3333 0.6667 0.2535 1 0.0
Al1 Al 0.3333 0.6667 0.6389 0.5 0.0
