#------------------------------------------------------------------------------
#$Date: 2016-02-13 21:28:24 +0200 (Sat, 13 Feb 2016) $
#$Revision: 176429 $
#$URL: svn://www.crystallography.net/cod/cif/1/53/72/1537210.cif $
#------------------------------------------------------------------------------
#
# This file is available in the Crystallography Open Database (COD),
# http://www.crystallography.net/
#
# All data on this site have been placed in the public domain by the
# contributors.
#
data_1537210
loop_
_publ_author_name
'Zumdick, M.'
'Poettgen, R.'
'Zaremba, V.'
'Hoffmann, R.D.'
_publ_section_title
;
 X-Ray Single Crystal Studies of ZrRhGa, HfRhGa, and ZrRh0.710(4)In
;
_journal_name_full               'Journal of Solid State Chemistry'
_journal_page_first              305
_journal_page_last               310
_journal_volume                  166
_journal_year                    2002
_chemical_formula_sum            'Ga Rh Zr'
_chemical_name_systematic        'Zr Rh Ga'
_space_group_IT_number           189
_symmetry_space_group_name_Hall  'P -6 -2'
_symmetry_space_group_name_H-M   'P -6 2 m'
_cell_angle_alpha                90
_cell_angle_beta                 90
_cell_angle_gamma                120
_cell_formula_units_Z            3
_cell_length_a                   7.214
_cell_length_b                   7.214
_cell_length_c                   3.367
_cell_volume                     151.749
_citation_journal_id_ASTM        JSSCBI
_cod_data_source_file            Zumdick_JSSCBI_2002_484.cif
_cod_data_source_block           Ga1Rh1Zr1
_cod_original_cell_volume        151.7491
_cod_original_formula_sum        'Ga1 Rh1 Zr1'
_cod_database_code               1537210
loop_
_symmetry_equiv_pos_as_xyz
x,y,z
-x+y,-x,-z
-y,x-y,z
x,y,-z
-x+y,-x,z
-y,x-y,-z
y,x,z
x-y,-y,-z
-x,-x+y,z
y,x,-z
x-y,-y,z
-x,-x+y,-z
loop_
_atom_site_label
_atom_site_type_symbol
_atom_site_fract_x
_atom_site_fract_y
_atom_site_fract_z
_atom_site_occupancy
_atom_site_U_iso_or_equiv
Ga1 Ga 0.7296 0 0.5 1 0.0
Rh2 Rh 0.3333 0.6667 0.5 1 0.0
Zr1 Zr 0.39519 0 0 1 0.0
Rh1 Rh 0 0 0.0573 0.5 0.0
