#------------------------------------------------------------------------------
#$Date: 2015-10-12 18:47:55 +0300 (Mon, 12 Oct 2015) $
#$Revision: 166111 $
#$URL: svn://www.crystallography.net/cod/cif/1/53/77/1537780.cif $
#------------------------------------------------------------------------------
#
# This file is available in the Crystallography Open Database (COD),
# http://www.crystallography.net/
#
# All data on this site have been placed in the public domain by the
# contributors.
#
data_1537780
loop_
_publ_author_name
'Benbachir, K.'
'Mazuer, J.'
'Senateur, J.P.'
_publ_section_title
;
 Low temperature thermal conductivity of pure and doped single crystals of
 semiconducting Sm S
;
_journal_name_full               'Solid State Communications'
_journal_page_first              965
_journal_page_last               968
_journal_volume                  54
_journal_year                    1985
_chemical_formula_sum            'P0.24 S3.76 Sm4'
_chemical_name_systematic        '(Sm17 P S16)0.23'
_space_group_IT_number           225
_symmetry_space_group_name_Hall  '-F 4 2 3'
_symmetry_space_group_name_H-M   'F m -3 m'
_cell_angle_alpha                90
_cell_angle_beta                 90
_cell_angle_gamma                90
_cell_formula_units_Z            1
_cell_length_a                   5.9217
_cell_length_b                   5.9217
_cell_length_c                   5.9217
_cell_volume                     207.653
_citation_journal_id_ASTM        SSCOA4
_cod_data_source_file            Benbachir_SSCOA4_1985_1272.cif
_cod_data_source_block           P0.24S3.76Sm4
_cod_original_cell_volume        207.6535
_cod_database_code               1537780
loop_
_symmetry_equiv_pos_as_xyz
x,y,z
-y,x,z
-x,-y,z
y,-x,z
x,-y,-z
y,x,-z
-x,y,-z
-y,-x,-z
z,x,y
-x,z,y
-z,-x,y
x,-z,y
z,-x,-y
x,z,-y
-z,x,-y
-x,-z,-y
y,z,x
y,-z,-x
z,y,-x
-y,z,-x
-z,-y,-x
-y,-z,x
z,-y,x
-z,y,x
-x,-y,-z
y,-x,-z
x,y,-z
-y,x,-z
-x,y,z
-y,-x,z
x,-y,z
y,x,z
-z,-x,-y
x,-z,-y
z,x,-y
-x,z,-y
-z,x,y
-x,-z,y
z,-x,y
x,z,y
-y,-z,-x
-y,z,x
-z,-y,x
y,-z,x
z,y,x
y,z,-x
-z,y,-x
z,-y,-x
x,y+1/2,z+1/2
-y,x+1/2,z+1/2
-x,-y+1/2,z+1/2
y,-x+1/2,z+1/2
x,-y+1/2,-z+1/2
y,x+1/2,-z+1/2
-x,y+1/2,-z+1/2
-y,-x+1/2,-z+1/2
z,x+1/2,y+1/2
-x,z+1/2,y+1/2
-z,-x+1/2,y+1/2
x,-z+1/2,y+1/2
z,-x+1/2,-y+1/2
x,z+1/2,-y+1/2
-z,x+1/2,-y+1/2
-x,-z+1/2,-y+1/2
y,z+1/2,x+1/2
y,-z+1/2,-x+1/2
z,y+1/2,-x+1/2
-y,z+1/2,-x+1/2
-z,-y+1/2,-x+1/2
-y,-z+1/2,x+1/2
z,-y+1/2,x+1/2
-z,y+1/2,x+1/2
-x,-y+1/2,-z+1/2
y,-x+1/2,-z+1/2
x,y+1/2,-z+1/2
-y,x+1/2,-z+1/2
-x,y+1/2,z+1/2
-y,-x+1/2,z+1/2
x,-y+1/2,z+1/2
y,x+1/2,z+1/2
-z,-x+1/2,-y+1/2
x,-z+1/2,-y+1/2
z,x+1/2,-y+1/2
-x,z+1/2,-y+1/2
-z,x+1/2,y+1/2
-x,-z+1/2,y+1/2
z,-x+1/2,y+1/2
x,z+1/2,y+1/2
-y,-z+1/2,-x+1/2
-y,z+1/2,x+1/2
-z,-y+1/2,x+1/2
y,-z+1/2,x+1/2
z,y+1/2,x+1/2
y,z+1/2,-x+1/2
-z,y+1/2,-x+1/2
z,-y+1/2,-x+1/2
x+1/2,y,z+1/2
-y+1/2,x,z+1/2
-x+1/2,-y,z+1/2
y+1/2,-x,z+1/2
x+1/2,-y,-z+1/2
y+1/2,x,-z+1/2
-x+1/2,y,-z+1/2
-y+1/2,-x,-z+1/2
z+1/2,x,y+1/2
-x+1/2,z,y+1/2
-z+1/2,-x,y+1/2
x+1/2,-z,y+1/2
z+1/2,-x,-y+1/2
x+1/2,z,-y+1/2
-z+1/2,x,-y+1/2
-x+1/2,-z,-y+1/2
y+1/2,z,x+1/2
y+1/2,-z,-x+1/2
z+1/2,y,-x+1/2
-y+1/2,z,-x+1/2
-z+1/2,-y,-x+1/2
-y+1/2,-z,x+1/2
z+1/2,-y,x+1/2
-z+1/2,y,x+1/2
-x+1/2,-y,-z+1/2
y+1/2,-x,-z+1/2
x+1/2,y,-z+1/2
-y+1/2,x,-z+1/2
-x+1/2,y,z+1/2
-y+1/2,-x,z+1/2
x+1/2,-y,z+1/2
y+1/2,x,z+1/2
-z+1/2,-x,-y+1/2
x+1/2,-z,-y+1/2
z+1/2,x,-y+1/2
-x+1/2,z,-y+1/2
-z+1/2,x,y+1/2
-x+1/2,-z,y+1/2
z+1/2,-x,y+1/2
x+1/2,z,y+1/2
-y+1/2,-z,-x+1/2
-y+1/2,z,x+1/2
-z+1/2,-y,x+1/2
y+1/2,-z,x+1/2
z+1/2,y,x+1/2
y+1/2,z,-x+1/2
-z+1/2,y,-x+1/2
z+1/2,-y,-x+1/2
x+1/2,y+1/2,z
-y+1/2,x+1/2,z
-x+1/2,-y+1/2,z
y+1/2,-x+1/2,z
x+1/2,-y+1/2,-z
y+1/2,x+1/2,-z
-x+1/2,y+1/2,-z
-y+1/2,-x+1/2,-z
z+1/2,x+1/2,y
-x+1/2,z+1/2,y
-z+1/2,-x+1/2,y
x+1/2,-z+1/2,y
z+1/2,-x+1/2,-y
x+1/2,z+1/2,-y
-z+1/2,x+1/2,-y
-x+1/2,-z+1/2,-y
y+1/2,z+1/2,x
y+1/2,-z+1/2,-x
z+1/2,y+1/2,-x
-y+1/2,z+1/2,-x
-z+1/2,-y+1/2,-x
-y+1/2,-z+1/2,x
z+1/2,-y+1/2,x
-z+1/2,y+1/2,x
-x+1/2,-y+1/2,-z
y+1/2,-x+1/2,-z
x+1/2,y+1/2,-z
-y+1/2,x+1/2,-z
-x+1/2,y+1/2,z
-y+1/2,-x+1/2,z
x+1/2,-y+1/2,z
y+1/2,x+1/2,z
-z+1/2,-x+1/2,-y
x+1/2,-z+1/2,-y
z+1/2,x+1/2,-y
-x+1/2,z+1/2,-y
-z+1/2,x+1/2,y
-x+1/2,-z+1/2,y
z+1/2,-x+1/2,y
x+1/2,z+1/2,y
-y+1/2,-z+1/2,-x
-y+1/2,z+1/2,x
-z+1/2,-y+1/2,x
y+1/2,-z+1/2,x
z+1/2,y+1/2,x
y+1/2,z+1/2,-x
-z+1/2,y+1/2,-x
z+1/2,-y+1/2,-x
loop_
_atom_site_label
_atom_site_type_symbol
_atom_site_fract_x
_atom_site_fract_y
_atom_site_fract_z
_atom_site_occupancy
_atom_site_U_iso_or_equiv
Sm1 Sm 0.5 0.5 0.5 1 0.0
P1 P 0 0 0 0.06 0.0
S1 S 0 0 0 0.94 0.0
