#------------------------------------------------------------------------------
#$Date: 2018-09-27 07:13:35 +0300 (Thu, 27 Sep 2018) $
#$Revision: 211196 $
#$URL: file:///home/coder/svn-repositories/cod/cif/1/53/77/1537717.cif $
#------------------------------------------------------------------------------
#
# This file is available in the Crystallography Open Database (COD),
# http://www.crystallography.net/
#
# All data on this site have been placed in the public domain by the
# contributors.
#
data_1537717
loop_
_publ_author_name
'Ban, Z.'
'Omejec, L.'
'Szytula, A.'
'Tomkowicz, Z.'
_publ_section_title
;
 Magnetic properties and magnetic structure of Th Mn2 Si2 and Th Mn2 Si2
;
_journal_name_full
'Physica Status Solidi, Sectio A: Applied Research'
_journal_page_first              333
_journal_page_last               338
_journal_volume                  27
_journal_year                    1975
_chemical_formula_sum            'Mn2 Si2 Th'
_space_group_IT_number           139
_symmetry_space_group_name_Hall  '-I 4 2'
_symmetry_space_group_name_H-M   'I 4/m m m'
_cell_angle_alpha                90
_cell_angle_beta                 90
_cell_angle_gamma                90
_cell_formula_units_Z            2
_cell_length_a                   3.998
_cell_length_b                   3.998
_cell_length_c                   10.445
_cell_volume                     166.953
_citation_journal_id_ASTM        PSSABA
_cod_data_source_file            Ban_PSSABA_1975_655.cif
_cod_data_source_block           Mn2Si2Th1
_cod_original_cell_volume        166.9529
_cod_original_formula_sum        'Mn2 Si2 Th1'
_cod_database_code               1537717
loop_
_symmetry_equiv_pos_as_xyz
x,y,z
-y,x,z
-x,-y,z
y,-x,z
x,-y,-z
y,x,-z
-x,y,-z
-y,-x,-z
-x,-y,-z
y,-x,-z
x,y,-z
-y,x,-z
-x,y,z
-y,-x,z
x,-y,z
y,x,z
x+1/2,y+1/2,z+1/2
-y+1/2,x+1/2,z+1/2
-x+1/2,-y+1/2,z+1/2
y+1/2,-x+1/2,z+1/2
x+1/2,-y+1/2,-z+1/2
y+1/2,x+1/2,-z+1/2
-x+1/2,y+1/2,-z+1/2
-y+1/2,-x+1/2,-z+1/2
-x+1/2,-y+1/2,-z+1/2
y+1/2,-x+1/2,-z+1/2
x+1/2,y+1/2,-z+1/2
-y+1/2,x+1/2,-z+1/2
-x+1/2,y+1/2,z+1/2
-y+1/2,-x+1/2,z+1/2
x+1/2,-y+1/2,z+1/2
y+1/2,x+1/2,z+1/2
loop_
_atom_site_label
_atom_site_type_symbol
_atom_site_fract_x
_atom_site_fract_y
_atom_site_fract_z
_atom_site_occupancy
_atom_site_U_iso_or_equiv
Si1 Si 0 0 0.3786 1 0.0
Th1 Th 0 0 0 1 0.0
Mn1 Mn 0 0.5 0.25 1 0.0
