#------------------------------------------------------------------------------
#$Date: 2016-02-13 21:28:24 +0200 (Sat, 13 Feb 2016) $
#$Revision: 176429 $
#$URL: svn://www.crystallography.net/cod/cif/1/53/72/1537264.cif $
#------------------------------------------------------------------------------
#
# This file is available in the Crystallography Open Database (COD),
# http://www.crystallography.net/
#
# All data on this site have been placed in the public domain by the
# contributors.
#
data_1537264
loop_
_publ_author_name
'Ruedorff, W.'
'Krug, D.'
_publ_section_title
;
 Alkaliniob(IV) dioxidfluoride
;
_journal_name_full
'Zeitschrift fuer Anorganische und Allgemeine Chemie'
_journal_page_first              211
_journal_page_last               217
_journal_volume                  329
_journal_year                    1964
_chemical_formula_sum            'F K Nb O2'
_chemical_name_systematic        'K Nb O2 F'
_space_group_IT_number           221
_symmetry_space_group_name_Hall  '-P 4 2 3'
_symmetry_space_group_name_H-M   'P m -3 m'
_cell_angle_alpha                90
_cell_angle_beta                 90
_cell_angle_gamma                90
_cell_formula_units_Z            1
_cell_length_a                   4.006
_cell_length_b                   4.006
_cell_length_c                   4.006
_cell_volume                     64.288
_citation_journal_id_ASTM        ZAACAB
_cod_data_source_file            Ruedorff_ZAACAB_1964_715.cif
_cod_data_source_block           F1K1Nb1O2
_cod_original_cell_volume        64.28844
_cod_original_formula_sum        'F1 K1 Nb1 O2'
_cod_database_code               1537264
loop_
_symmetry_equiv_pos_as_xyz
x,y,z
-y,x,z
-x,-y,z
y,-x,z
x,-y,-z
y,x,-z
-x,y,-z
-y,-x,-z
z,x,y
-x,z,y
-z,-x,y
x,-z,y
z,-x,-y
x,z,-y
-z,x,-y
-x,-z,-y
y,z,x
y,-z,-x
z,y,-x
-y,z,-x
-z,-y,-x
-y,-z,x
z,-y,x
-z,y,x
-x,-y,-z
y,-x,-z
x,y,-z
-y,x,-z
-x,y,z
-y,-x,z
x,-y,z
y,x,z
-z,-x,-y
x,-z,-y
z,x,-y
-x,z,-y
-z,x,y
-x,-z,y
z,-x,y
x,z,y
-y,-z,-x
-y,z,x
-z,-y,x
y,-z,x
z,y,x
y,z,-x
-z,y,-x
z,-y,-x
loop_
_atom_site_label
_atom_site_type_symbol
_atom_site_fract_x
_atom_site_fract_y
_atom_site_fract_z
_atom_site_occupancy
_atom_site_U_iso_or_equiv
Nb1 Nb+4 0.5 0.5 0.5 1 0.0
O1 O-2 0 0.5 0.5 0.6667 0.0
K1 K+1 0 0 0 1 0.0
F1 F-1 0 0.5 0.5 0.3333 0.0
