#------------------------------------------------------------------------------
#$Date: 2016-02-13 21:28:24 +0200 (Sat, 13 Feb 2016) $
#$Revision: 176429 $
#$URL: svn://www.crystallography.net/cod/cif/1/53/79/1537978.cif $
#------------------------------------------------------------------------------
#
# This file is available in the Crystallography Open Database (COD),
# http://www.crystallography.net/
#
# All data on this site have been placed in the public domain by the
# contributors.
#
data_1537978
loop_
_publ_author_name
'Buschow, K.H.J.'
'de Mooij, D.B.'
_publ_section_title
;
 Structural and magnetic characteristics of several ternary compounds of
 the type GdX2Si2 and UX2Si2 (X= 3d, 4d or 5d metal)
;
_journal_name_full               'Philips Journal of Research'
_journal_page_first              55
_journal_page_last               76
_journal_volume                  41
_journal_year                    1986
_chemical_formula_sum            'Rh2 Si2 U'
_chemical_name_systematic        'Rh2 U Si2'
_space_group_IT_number           139
_symmetry_space_group_name_Hall  '-I 4 2'
_symmetry_space_group_name_H-M   'I 4/m m m'
_cell_angle_alpha                90
_cell_angle_beta                 90
_cell_angle_gamma                90
_cell_formula_units_Z            2
_cell_length_a                   4.0078
_cell_length_b                   4.0078
_cell_length_c                   10.0223
_cell_volume                     160.983
_citation_journal_id_ASTM        PHJRD9
_cod_data_source_file            Buschow_PHJRD9_1986_1636.cif
_cod_data_source_block           Rh2Si2U1
_cod_original_cell_volume        160.9828
_cod_original_formula_sum        'Rh2 Si2 U1'
_cod_database_code               1537978
loop_
_symmetry_equiv_pos_as_xyz
x,y,z
-y,x,z
-x,-y,z
y,-x,z
x,-y,-z
y,x,-z
-x,y,-z
-y,-x,-z
-x,-y,-z
y,-x,-z
x,y,-z
-y,x,-z
-x,y,z
-y,-x,z
x,-y,z
y,x,z
x+1/2,y+1/2,z+1/2
-y+1/2,x+1/2,z+1/2
-x+1/2,-y+1/2,z+1/2
y+1/2,-x+1/2,z+1/2
x+1/2,-y+1/2,-z+1/2
y+1/2,x+1/2,-z+1/2
-x+1/2,y+1/2,-z+1/2
-y+1/2,-x+1/2,-z+1/2
-x+1/2,-y+1/2,-z+1/2
y+1/2,-x+1/2,-z+1/2
x+1/2,y+1/2,-z+1/2
-y+1/2,x+1/2,-z+1/2
-x+1/2,y+1/2,z+1/2
-y+1/2,-x+1/2,z+1/2
x+1/2,-y+1/2,z+1/2
y+1/2,x+1/2,z+1/2
loop_
_atom_site_label
_atom_site_type_symbol
_atom_site_fract_x
_atom_site_fract_y
_atom_site_fract_z
_atom_site_occupancy
_atom_site_U_iso_or_equiv
U1 U 0 0 0 1 0.0
Rh1 Rh 0 0.5 0.25 1 0.0
Si1 Si 0 0 0.383 1 0.0
