#------------------------------------------------------------------------------
#$Date: 2016-02-13 21:28:24 +0200 (Sat, 13 Feb 2016) $
#$Revision: 176429 $
#$URL: svn://www.crystallography.net/cod/cif/1/53/77/1537708.cif $
#------------------------------------------------------------------------------
#
# This file is available in the Crystallography Open Database (COD),
# http://www.crystallography.net/
#
# All data on this site have been placed in the public domain by the
# contributors.
#
data_1537708
loop_
_publ_author_name
'Chevalier, B.'
'Etourneau, J.'
'Hagenmuller, P.'
'Rossat-Mignod, J.'
'Quezel, S.'
_publ_section_title
;
 Magnetic order in ternary compounds R Rh2 Si2 and R Ru2 Si2
;
_journal_name_full               'Journal of the Less-Common Metals'
_journal_page_first              161
_journal_page_last               169
_journal_volume                  111
_journal_year                    1985
_chemical_formula_sum            'Ru2 Si2 Tb'
_chemical_name_systematic        'Ru2 Tb Si2'
_space_group_IT_number           139
_symmetry_space_group_name_Hall  '-I 4 2'
_symmetry_space_group_name_H-M   'I 4/m m m'
_cell_angle_alpha                90
_cell_angle_beta                 90
_cell_angle_gamma                90
_cell_formula_units_Z            2
_cell_length_a                   4.128
_cell_length_b                   4.128
_cell_length_c                   9.52
_cell_volume                     162.224
_citation_journal_id_ASTM        JCOMAH
_cod_data_source_file            Chevalier_JCOMAH_1985_1689.cif
_cod_data_source_block           Ru2Si2Tb1
_cod_original_cell_volume        162.2244
_cod_original_formula_sum        'Ru2 Si2 Tb1'
_cod_database_code               1537708
loop_
_symmetry_equiv_pos_as_xyz
x,y,z
-y,x,z
-x,-y,z
y,-x,z
x,-y,-z
y,x,-z
-x,y,-z
-y,-x,-z
-x,-y,-z
y,-x,-z
x,y,-z
-y,x,-z
-x,y,z
-y,-x,z
x,-y,z
y,x,z
x+1/2,y+1/2,z+1/2
-y+1/2,x+1/2,z+1/2
-x+1/2,-y+1/2,z+1/2
y+1/2,-x+1/2,z+1/2
x+1/2,-y+1/2,-z+1/2
y+1/2,x+1/2,-z+1/2
-x+1/2,y+1/2,-z+1/2
-y+1/2,-x+1/2,-z+1/2
-x+1/2,-y+1/2,-z+1/2
y+1/2,-x+1/2,-z+1/2
x+1/2,y+1/2,-z+1/2
-y+1/2,x+1/2,-z+1/2
-x+1/2,y+1/2,z+1/2
-y+1/2,-x+1/2,z+1/2
x+1/2,-y+1/2,z+1/2
y+1/2,x+1/2,z+1/2
loop_
_atom_site_label
_atom_site_type_symbol
_atom_site_fract_x
_atom_site_fract_y
_atom_site_fract_z
_atom_site_occupancy
_atom_site_U_iso_or_equiv
Ru1 Ru 0 0.5 0.25 1 0.0
Tb1 Tb 0 0 0 1 0.0
Si1 Si 0 0 0.371 1 0.0
