#------------------------------------------------------------------------------
#$Date: 2016-09-16 14:55:27 +0300 (Fri, 16 Sep 2016) $
#$Revision: 186592 $
#$URL: file:///home/coder/svn-repositories/cod/cif/1/53/74/1537484.cif $
#------------------------------------------------------------------------------
#
# This file is available in the Crystallography Open Database (COD),
# http://www.crystallography.net/
#
# All data on this site have been placed in the public domain by the
# contributors.
#
data_1537484
loop_
_publ_author_name
'Juza, R.'
'Weber, H.H.'
'Opp, K.'
_publ_section_title
;
 Kristallstruktur des Natriumamids
;
_journal_name_full
'Zeitschrift fuer Anorganische und Allgemeine Chemie'
_journal_page_first              73
_journal_page_last               82
_journal_volume                  284
_journal_year                    1956
_chemical_formula_sum            'H2 N Na'
_chemical_name_systematic        'Na (N H2)'
_space_group_IT_number           70
_symmetry_space_group_name_Hall  'F 2 2 -1d'
_symmetry_space_group_name_H-M   'F d d d :1'
_cell_angle_alpha                90
_cell_angle_beta                 90
_cell_angle_gamma                90
_cell_formula_units_Z            16
_cell_length_a                   8.06
_cell_length_b                   8.929
_cell_length_c                   10.427
_cell_volume                     750.408
_citation_journal_id_ASTM        ZAACAB
_cod_data_source_file            Juza_ZAACAB_1956_860.cif
_cod_data_source_block           H2N1Na1
_cod_original_cell_volume        750.4077
_cod_original_sg_symbol_Hall     '-F 2uv 2vw (x+1/8,y+1/8,z+1/8)'
_cod_original_formula_sum        'H2 N1 Na1'
_cod_database_code               1537484
loop_
_symmetry_equiv_pos_as_xyz
x,y,z
-x+1/2,-y+1/2,z
x,-y+1/2,-z+1/2
-x+1/2,y,-z+1/2
-x+1/4,-y+1/4,-z+1/4
x-1/4,y-1/4,-z+1/4
-x+1/4,y-1/4,z-1/4
x-1/4,-y+1/4,z-1/4
x,y+1/2,z+1/2
-x+1/2,-y+1,z+1/2
x,-y+1,-z+1
-x+1/2,y+1/2,-z+1
-x+1/4,-y+3/4,-z+3/4
x-1/4,y+1/4,-z+3/4
-x+1/4,y+1/4,z+1/4
x-1/4,-y+3/4,z+1/4
x+1/2,y,z+1/2
-x+1,-y+1/2,z+1/2
x+1/2,-y+1/2,-z+1
-x+1,y,-z+1
-x+3/4,-y+1/4,-z+3/4
x+1/4,y-1/4,-z+3/4
-x+3/4,y-1/4,z+1/4
x+1/4,-y+1/4,z+1/4
x+1/2,y+1/2,z
-x+1,-y+1,z
x+1/2,-y+1,-z+1/2
-x+1,y+1/2,-z+1/2
-x+3/4,-y+3/4,-z+1/4
x+1/4,y+1/4,-z+1/4
-x+3/4,y+1/4,z-1/4
x+1/4,-y+3/4,z-1/4
loop_
_atom_site_label
_atom_site_type_symbol
_atom_site_fract_x
_atom_site_fract_y
_atom_site_fract_z
_atom_site_occupancy
_atom_site_U_iso_or_equiv
_atom_site_attached_hydrogens
Na1 Na+1 0 0 0.142 1 0.0 0
N1 N-3 0.233 0 0 1 0.0 2
