#------------------------------------------------------------------------------
#$Date: 2015-10-12 19:40:32 +0300 (Mon, 12 Oct 2015) $
#$Revision: 166320 $
#$URL: svn://www.crystallography.net/cod/cif/1/53/79/1537930.cif $
#------------------------------------------------------------------------------
#
# This file is available in the Crystallography Open Database (COD),
# http://www.crystallography.net/
#
# All data on this site have been placed in the public domain by the
# contributors.
#
data_1537930
loop_
_publ_author_name
'Bucher, E.'
'Andres, K.'
'Di Salvo, F.J.'
_publ_section_title
;
 Magnetism and some related electronic properties of Pr and Tm binary
 chalcogenides
;
_journal_name_full
;
Solid Compound of Transition Elements, Int. Conference Stuttgart 1979
;
_journal_page_first              114
_journal_page_last               118
_journal_volume                  1973
_journal_year                    1973
_chemical_formula_sum            'La9.6 S16 Y2.4'
_chemical_name_systematic        'La9.6 Y2.4 S16'
_space_group_IT_number           220
_symmetry_space_group_name_Hall  'I -4bd 2c 3'
_symmetry_space_group_name_H-M   'I -4 3 d'
_cell_angle_alpha                90
_cell_angle_beta                 90
_cell_angle_gamma                90
_cell_formula_units_Z            1
_cell_length_a                   8.67
_cell_length_b                   8.67
_cell_length_c                   8.67
_cell_volume                     651.714
_citation_journal_id_ASTM        SCOTE5
_cod_data_source_file            Bucher_SCOTE5_1973_453.cif
_cod_data_source_block           La9.6S16Y2.4
_cod_original_cell_volume        651.7144
_cod_database_code               1537930
loop_
_symmetry_equiv_pos_as_xyz
x,y,z
y+1/4,-x+3/4,-z+1/4
-x,-y+1/2,z
-y+3/4,x+3/4,-z+1/4
x,-y,-z+1/2
-y+1/4,-x+3/4,z+3/4
-x,y+1/2,-z+1/2
y+3/4,x+3/4,z+3/4
z,x,y
x+1/4,-z+3/4,-y+1/4
-z,-x+1/2,y
-x+3/4,z+3/4,-y+1/4
z,-x,-y+1/2
-x+1/4,-z+3/4,y+3/4
-z,x+1/2,-y+1/2
x+3/4,z+3/4,y+3/4
y,z,x
y,-z,-x+1/2
-z+1/4,-y+3/4,x+3/4
-y,z+1/2,-x+1/2
z+1/4,y+1/4,x+1/4
-y+1/2,-z,x+1/2
-z+1/4,y+1/4,-x+3/4
z+3/4,-y+1/4,-x+3/4
x+1/2,y+1/2,z+1/2
y+3/4,-x+5/4,-z+3/4
-x+1/2,-y+1,z+1/2
-y+5/4,x+5/4,-z+3/4
x+1/2,-y+1/2,-z+1
-y+3/4,-x+5/4,z+5/4
-x+1/2,y+1,-z+1
y+5/4,x+5/4,z+5/4
z+1/2,x+1/2,y+1/2
x+3/4,-z+5/4,-y+3/4
-z+1/2,-x+1,y+1/2
-x+5/4,z+5/4,-y+3/4
z+1/2,-x+1/2,-y+1
-x+3/4,-z+5/4,y+5/4
-z+1/2,x+1,-y+1
x+5/4,z+5/4,y+5/4
y+1/2,z+1/2,x+1/2
y+1/2,-z+1/2,-x+1
-z+3/4,-y+5/4,x+5/4
-y+1/2,z+1,-x+1
z+3/4,y+3/4,x+3/4
-y+1,-z+1/2,x+1
-z+3/4,y+3/4,-x+5/4
z+5/4,-y+3/4,-x+5/4
loop_
_atom_site_label
_atom_site_type_symbol
_atom_site_fract_x
_atom_site_fract_y
_atom_site_fract_z
_atom_site_occupancy
_atom_site_U_iso_or_equiv
S1 S 0.083 0.083 0.083 1 0.0
La1 La 0.375 0 0.25 0.8 0.0
Y1 Y 0.375 0 0.25 0.2 0.0
