#------------------------------------------------------------------------------
#$Date: 2016-02-13 21:28:24 +0200 (Sat, 13 Feb 2016) $
#$Revision: 176429 $
#$URL: svn://www.crystallography.net/cod/cif/1/53/74/1537425.cif $
#------------------------------------------------------------------------------
#
# This file is available in the Crystallography Open Database (COD),
# http://www.crystallography.net/
#
# All data on this site have been placed in the public domain by the
# contributors.
#
data_1537425
loop_
_publ_author_name
'Hoppe, R.'
'Lidecke, W.'
'Frorath, F.C.'
_publ_section_title
;
 Zur Kenntnis von Na In S2 und Na In Se2
;
_journal_name_full
'Zeitschrift fuer Anorganische und Allgemeine Chemie'
_journal_page_first              49
_journal_page_last               54
_journal_volume                  309
_journal_year                    1961
_chemical_formula_sum            'In Na S2'
_chemical_name_systematic        'Na In S2'
_space_group_IT_number           166
_symmetry_space_group_name_Hall  '-R 3 2"'
_symmetry_space_group_name_H-M   'R -3 m :H'
_cell_angle_alpha                90
_cell_angle_beta                 90
_cell_angle_gamma                120
_cell_formula_units_Z            3
_cell_length_a                   3.803
_cell_length_b                   3.803
_cell_length_c                   19.89
_cell_volume                     249.125
_citation_journal_id_ASTM        ZAACAB
_cod_data_source_file            Hoppe_ZAACAB_1961_797.cif
_cod_data_source_block           In1Na1S2
_cod_original_cell_volume        249.1254
_cod_original_formula_sum        'In1 Na1 S2'
_cod_database_code               1537425
loop_
_symmetry_equiv_pos_as_xyz
x,y,z
-y,x-y,z
-x+y,-x,z
y,x,-z
-x,-x+y,-z
x-y,-y,-z
-x,-y,-z
y,-x+y,-z
x-y,x,-z
-y,-x,z
x,x-y,z
-x+y,y,z
x+2/3,y+1/3,z+1/3
-y+2/3,x-y+1/3,z+1/3
-x+y+2/3,-x+1/3,z+1/3
y+2/3,x+1/3,-z+1/3
-x+2/3,-x+y+1/3,-z+1/3
x-y+2/3,-y+1/3,-z+1/3
-x+2/3,-y+1/3,-z+1/3
y+2/3,-x+y+1/3,-z+1/3
x-y+2/3,x+1/3,-z+1/3
-y+2/3,-x+1/3,z+1/3
x+2/3,x-y+1/3,z+1/3
-x+y+2/3,y+1/3,z+1/3
x+1/3,y+2/3,z+2/3
-y+1/3,x-y+2/3,z+2/3
-x+y+1/3,-x+2/3,z+2/3
y+1/3,x+2/3,-z+2/3
-x+1/3,-x+y+2/3,-z+2/3
x-y+1/3,-y+2/3,-z+2/3
-x+1/3,-y+2/3,-z+2/3
y+1/3,-x+y+2/3,-z+2/3
x-y+1/3,x+2/3,-z+2/3
-y+1/3,-x+2/3,z+2/3
x+1/3,x-y+2/3,z+2/3
-x+y+1/3,y+2/3,z+2/3
loop_
_atom_site_label
_atom_site_type_symbol
_atom_site_fract_x
_atom_site_fract_y
_atom_site_fract_z
_atom_site_occupancy
_atom_site_U_iso_or_equiv
In1 In+3 0 0 0 1 0.0
Na1 Na+1 0 0 0.5 1 0.0
S1 S-2 0 0 0.26 1 0.0
