#------------------------------------------------------------------------------
#$Date: 2016-02-13 21:28:24 +0200 (Sat, 13 Feb 2016) $
#$Revision: 176429 $
#$URL: svn://www.crystallography.net/cod/cif/1/53/85/1538554.cif $
#------------------------------------------------------------------------------
#
# This file is available in the Crystallography Open Database (COD),
# http://www.crystallography.net/
#
# All data on this site have been placed in the public domain by the
# contributors.
#
data_1538554
loop_
_publ_author_name
'Schaefer, H.'
'Wartenpfuhl, F.'
'Weise, E.'
_publ_section_title
;
 Titan(III)-oxychlorid
;
_journal_name_full
'Zeitschrift fuer Anorganische und Allgemeine Chemie'
_journal_page_first              268
_journal_page_last               280
_journal_volume                  295
_journal_year                    1958
_chemical_formula_sum            'Cl O Ti'
_chemical_name_systematic        'Ti O Cl'
_space_group_IT_number           59
_symmetry_space_group_name_Hall  'P 2 2ab -1ab'
_symmetry_space_group_name_H-M   'P m m n :1'
_cell_angle_alpha                90
_cell_angle_beta                 90
_cell_angle_gamma                90
_cell_formula_units_Z            2
_cell_length_a                   3.79
_cell_length_b                   3.38
_cell_length_c                   8.03
_cell_volume                     102.866
_citation_journal_id_ASTM        ZAACAB
_cod_data_source_file            Schaefer_ZAACAB_1958_882.cif
_cod_data_source_block           Cl1O1Ti1
_cod_original_cell_volume        102.8659
_cod_original_sg_symbol_Hall     '-P 2ab 2a (x-1/4,y-1/4,z)'
_cod_original_formula_sum        'Cl1 O1 Ti1'
_cod_database_code               1538554
loop_
_symmetry_equiv_pos_as_xyz
x,y,z
-x,-y,z
x+1/2,-y+1/2,-z
-x+1/2,y+1/2,-z
-x+1/2,-y+1/2,-z
x+1/2,y+1/2,-z
-x,y,z
x,-y,z
loop_
_atom_site_label
_atom_site_type_symbol
_atom_site_fract_x
_atom_site_fract_y
_atom_site_fract_z
_atom_site_occupancy
_atom_site_U_iso_or_equiv
Ti1 Ti+3 0 0.5 0.122 1 0.0
Cl1 Cl-1 0 0 0.32 1 0.0
O1 O-2 0 0 -0.065 1 0.0
