#------------------------------------------------------------------------------
#$Date: 2016-02-13 21:28:24 +0200 (Sat, 13 Feb 2016) $
#$Revision: 176429 $
#$URL: svn://www.crystallography.net/cod/cif/1/53/85/1538576.cif $
#------------------------------------------------------------------------------
#
# This file is available in the Crystallography Open Database (COD),
# http://www.crystallography.net/
#
# All data on this site have been placed in the public domain by the
# contributors.
#
data_1538576
loop_
_publ_author_name
'Jeitschko, W.'
'Hofmann, W.K.'
_publ_section_title
;
 Ternary alkaline earth and rare earth metal palladium phosphides with
 ThCr2Si2- and La6Ni6P17-type structures
;
_journal_name_full               'Journal of the Less-Common Metals'
_journal_page_first              317
_journal_page_last               322
_journal_volume                  95
_journal_year                    1983
_chemical_formula_sum            'P2 Pd2 Sr'
_chemical_name_systematic        'Pd2 Sr P2'
_space_group_IT_number           139
_symmetry_space_group_name_Hall  '-I 4 2'
_symmetry_space_group_name_H-M   'I 4/m m m'
_cell_angle_alpha                90
_cell_angle_beta                 90
_cell_angle_gamma                90
_cell_formula_units_Z            2
_cell_length_a                   4.241
_cell_length_b                   4.241
_cell_length_c                   9.719
_cell_volume                     174.807
_citation_journal_id_ASTM        JCOMAH
_cod_data_source_file            Jeitschko_JCOMAH_1983_1256.cif
_cod_data_source_block           P2Pd2Sr1
_cod_original_cell_volume        174.8067
_cod_original_formula_sum        'P2 Pd2 Sr1'
_cod_database_code               1538576
loop_
_symmetry_equiv_pos_as_xyz
x,y,z
-y,x,z
-x,-y,z
y,-x,z
x,-y,-z
y,x,-z
-x,y,-z
-y,-x,-z
-x,-y,-z
y,-x,-z
x,y,-z
-y,x,-z
-x,y,z
-y,-x,z
x,-y,z
y,x,z
x+1/2,y+1/2,z+1/2
-y+1/2,x+1/2,z+1/2
-x+1/2,-y+1/2,z+1/2
y+1/2,-x+1/2,z+1/2
x+1/2,-y+1/2,-z+1/2
y+1/2,x+1/2,-z+1/2
-x+1/2,y+1/2,-z+1/2
-y+1/2,-x+1/2,-z+1/2
-x+1/2,-y+1/2,-z+1/2
y+1/2,-x+1/2,-z+1/2
x+1/2,y+1/2,-z+1/2
-y+1/2,x+1/2,-z+1/2
-x+1/2,y+1/2,z+1/2
-y+1/2,-x+1/2,z+1/2
x+1/2,-y+1/2,z+1/2
y+1/2,x+1/2,z+1/2
loop_
_atom_site_label
_atom_site_type_symbol
_atom_site_fract_x
_atom_site_fract_y
_atom_site_fract_z
_atom_site_occupancy
_atom_site_U_iso_or_equiv
P1 P-3 0 0 0.386 1 0.0
Pd1 Pd+2 0 0.5 0.25 1 0.0
Sr1 Sr+2 0 0 0 1 0.0
