#------------------------------------------------------------------------------
#$Date: 2016-02-13 21:28:24 +0200 (Sat, 13 Feb 2016) $
#$Revision: 176429 $
#$URL: svn://www.crystallography.net/cod/cif/1/53/85/1538582.cif $
#------------------------------------------------------------------------------
#
# This file is available in the Crystallography Open Database (COD),
# http://www.crystallography.net/
#
# All data on this site have been placed in the public domain by the
# contributors.
#
data_1538582
loop_
_publ_author_name
'Jeitschko, W.'
'Jaberg, B.'
_publ_section_title
;
 Lanthanoid-nickel-phosphides with ThCr2Si2-type structure
;
_journal_name_full               'Journal of Solid State Chemistry'
_journal_page_first              312
_journal_page_last               317
_journal_volume                  35
_journal_year                    1980
_chemical_formula_sum            'Ni2 P2 Sm'
_chemical_name_systematic        'Ni2 Sm P2'
_space_group_IT_number           139
_symmetry_space_group_name_Hall  '-I 4 2'
_symmetry_space_group_name_H-M   'I 4/m m m'
_cell_angle_alpha                90
_cell_angle_beta                 90
_cell_angle_gamma                90
_cell_formula_units_Z            2
_cell_length_a                   3.919
_cell_length_b                   3.919
_cell_length_c                   9.403
_cell_volume                     144.417
_citation_journal_id_ASTM        JSSCBI
_cod_data_source_file            Jeitschko_JSSCBI_1980_956.cif
_cod_data_source_block           Ni2P2Sm1
_cod_original_cell_volume        144.4165
_cod_original_formula_sum        'Ni2 P2 Sm1'
_cod_database_code               1538582
loop_
_symmetry_equiv_pos_as_xyz
x,y,z
-y,x,z
-x,-y,z
y,-x,z
x,-y,-z
y,x,-z
-x,y,-z
-y,-x,-z
-x,-y,-z
y,-x,-z
x,y,-z
-y,x,-z
-x,y,z
-y,-x,z
x,-y,z
y,x,z
x+1/2,y+1/2,z+1/2
-y+1/2,x+1/2,z+1/2
-x+1/2,-y+1/2,z+1/2
y+1/2,-x+1/2,z+1/2
x+1/2,-y+1/2,-z+1/2
y+1/2,x+1/2,-z+1/2
-x+1/2,y+1/2,-z+1/2
-y+1/2,-x+1/2,-z+1/2
-x+1/2,-y+1/2,-z+1/2
y+1/2,-x+1/2,-z+1/2
x+1/2,y+1/2,-z+1/2
-y+1/2,x+1/2,-z+1/2
-x+1/2,y+1/2,z+1/2
-y+1/2,-x+1/2,z+1/2
x+1/2,-y+1/2,z+1/2
y+1/2,x+1/2,z+1/2
loop_
_atom_site_label
_atom_site_type_symbol
_atom_site_fract_x
_atom_site_fract_y
_atom_site_fract_z
_atom_site_occupancy
_atom_site_U_iso_or_equiv
Ni1 Ni+2 0 0.5 0.25 1 0.0
Sm1 Sm+2 0 0 0 1 0.0
P1 P-3 0 0 0.375 1 0.0
