#------------------------------------------------------------------------------
#$Date: 2016-02-13 21:28:24 +0200 (Sat, 13 Feb 2016) $
#$Revision: 176429 $
#$URL: svn://www.crystallography.net/cod/cif/1/53/82/1538248.cif $
#------------------------------------------------------------------------------
#
# This file is available in the Crystallography Open Database (COD),
# http://www.crystallography.net/
#
# All data on this site have been placed in the public domain by the
# contributors.
#
data_1538248
loop_
_publ_author_name
'Hirjak, M.'
'Lejay, P.'
'Hagenmuller, P.'
'Chevalier, B.'
'Etourneau, J.'
_publ_section_title
;
 Influence of composition on the structural and superconducting properties
 of the two polymorphic forms of iridium- or silicon-substituted Y Ir2 Si2
;
_journal_name_full               'Journal of the Less-Common Metals'
_journal_page_first              139
_journal_page_last               148
_journal_volume                  105
_journal_year                    1985
_chemical_formula_sum            'Ir2 Si2 Y'
_chemical_name_systematic        'Ir2 Y Si2'
_space_group_IT_number           139
_symmetry_space_group_name_Hall  '-I 4 2'
_symmetry_space_group_name_H-M   'I 4/m m m'
_cell_angle_alpha                90
_cell_angle_beta                 90
_cell_angle_gamma                90
_cell_formula_units_Z            2
_cell_length_a                   4.05
_cell_length_b                   4.05
_cell_length_c                   9.905
_cell_volume                     162.467
_citation_journal_id_ASTM        JCOMAH
_cod_data_source_file            Hirjak_JCOMAH_1985_349.cif
_cod_data_source_block           Ir2Si2Y1
_cod_original_cell_volume        162.4668
_cod_original_formula_sum        'Ir2 Si2 Y1'
_cod_database_code               1538248
loop_
_symmetry_equiv_pos_as_xyz
x,y,z
-y,x,z
-x,-y,z
y,-x,z
x,-y,-z
y,x,-z
-x,y,-z
-y,-x,-z
-x,-y,-z
y,-x,-z
x,y,-z
-y,x,-z
-x,y,z
-y,-x,z
x,-y,z
y,x,z
x+1/2,y+1/2,z+1/2
-y+1/2,x+1/2,z+1/2
-x+1/2,-y+1/2,z+1/2
y+1/2,-x+1/2,z+1/2
x+1/2,-y+1/2,-z+1/2
y+1/2,x+1/2,-z+1/2
-x+1/2,y+1/2,-z+1/2
-y+1/2,-x+1/2,-z+1/2
-x+1/2,-y+1/2,-z+1/2
y+1/2,-x+1/2,-z+1/2
x+1/2,y+1/2,-z+1/2
-y+1/2,x+1/2,-z+1/2
-x+1/2,y+1/2,z+1/2
-y+1/2,-x+1/2,z+1/2
x+1/2,-y+1/2,z+1/2
y+1/2,x+1/2,z+1/2
loop_
_atom_site_label
_atom_site_type_symbol
_atom_site_fract_x
_atom_site_fract_y
_atom_site_fract_z
_atom_site_occupancy
_atom_site_U_iso_or_equiv
Y1 Y 0 0 0 1 0.0
Ir1 Ir 0 0.5 0.25 1 0.0
Si1 Si 0 0 0.375 1 0.0
