#------------------------------------------------------------------------------
#$Date: 2016-02-13 21:28:24 +0200 (Sat, 13 Feb 2016) $
#$Revision: 176429 $
#$URL: svn://www.crystallography.net/cod/cif/1/53/89/1538968.cif $
#------------------------------------------------------------------------------
#
# This file is available in the Crystallography Open Database (COD),
# http://www.crystallography.net/
#
# All data on this site have been placed in the public domain by the
# contributors.
#
data_1538968
loop_
_publ_author_name
'Park, H.-H.'
'Pezat, M.'
'Darriet, B.'
_publ_section_title
;
 Deux nouveaux hydrures: Rb Ca H3 et Rb2 Ca H4
;
_journal_name_full
;
Comptes Rendus Hebdomadaires des Seances de l'Academie des Sciences, Serie 2 
(1984-1993)
;
_journal_page_first              963
_journal_page_last               965
_journal_volume                  306
_journal_year                    1988
_chemical_formula_sum            'Ca H4 Rb2'
_chemical_name_systematic        'Rb2 Ca H4'
_space_group_IT_number           139
_symmetry_space_group_name_Hall  '-I 4 2'
_symmetry_space_group_name_H-M   'I 4/m m m'
_cell_angle_alpha                90
_cell_angle_beta                 90
_cell_angle_gamma                90
_cell_formula_units_Z            2
_cell_length_a                   4.507
_cell_length_b                   4.507
_cell_length_c                   14.863
_cell_volume                     301.913
_citation_journal_id_ASTM        CRAMED
_cod_data_source_file            Park_CRAMED_1988_1921.cif
_cod_data_source_block           H4Ca1Rb2
_cod_original_cell_volume        301.9128
_cod_original_formula_sum        'H4 Ca1 Rb2'
_cod_database_code               1538968
loop_
_symmetry_equiv_pos_as_xyz
x,y,z
-y,x,z
-x,-y,z
y,-x,z
x,-y,-z
y,x,-z
-x,y,-z
-y,-x,-z
-x,-y,-z
y,-x,-z
x,y,-z
-y,x,-z
-x,y,z
-y,-x,z
x,-y,z
y,x,z
x+1/2,y+1/2,z+1/2
-y+1/2,x+1/2,z+1/2
-x+1/2,-y+1/2,z+1/2
y+1/2,-x+1/2,z+1/2
x+1/2,-y+1/2,-z+1/2
y+1/2,x+1/2,-z+1/2
-x+1/2,y+1/2,-z+1/2
-y+1/2,-x+1/2,-z+1/2
-x+1/2,-y+1/2,-z+1/2
y+1/2,-x+1/2,-z+1/2
x+1/2,y+1/2,-z+1/2
-y+1/2,x+1/2,-z+1/2
-x+1/2,y+1/2,z+1/2
-y+1/2,-x+1/2,z+1/2
x+1/2,-y+1/2,z+1/2
y+1/2,x+1/2,z+1/2
loop_
_atom_site_label
_atom_site_type_symbol
_atom_site_fract_x
_atom_site_fract_y
_atom_site_fract_z
_atom_site_occupancy
_atom_site_U_iso_or_equiv
Rb1 Rb+1 0 0 0.35 1 0.0
Ca1 Ca+2 0 0 0 1 0.0
H1 H-1 0 0 0.15 1 0.0
H2 H-1 0.5 0 0 1 0.0
