#------------------------------------------------------------------------------
#$Date: 2016-02-13 21:28:24 +0200 (Sat, 13 Feb 2016) $
#$Revision: 176429 $
#$URL: svn://www.crystallography.net/cod/cif/1/53/82/1538228.cif $
#------------------------------------------------------------------------------
#
# This file is available in the Crystallography Open Database (COD),
# http://www.crystallography.net/
#
# All data on this site have been placed in the public domain by the
# contributors.
#
data_1538228
loop_
_publ_author_name
'Hiebl, K.'
'Horvath, C.'
'Rogl, P.'
'Sienko, M.J.'
_publ_section_title
;
 Magnetic properties and structural data of ternary silicides: (RE, Th, U)
 Os2 Si2 (RE= rare earth)
;
_journal_name_full               'Solid State Communications'
_journal_page_first              211
_journal_page_last               215
_journal_volume                  48
_journal_year                    1983
_chemical_formula_sum            'Os2 Si2 Th'
_chemical_name_systematic        'Os2 Th Si2'
_space_group_IT_number           139
_symmetry_space_group_name_Hall  '-I 4 2'
_symmetry_space_group_name_H-M   'I 4/m m m'
_cell_angle_alpha                90
_cell_angle_beta                 90
_cell_angle_gamma                90
_cell_formula_units_Z            2
_cell_length_a                   4.1897
_cell_length_b                   4.1897
_cell_length_c                   9.81
_cell_volume                     172.201
_citation_journal_id_ASTM        SSCOA4
_cod_data_source_file            Hiebl_SSCOA4_1983_1235.cif
_cod_data_source_block           Os2Si2Th1
_cod_original_cell_volume        172.2007
_cod_original_formula_sum        'Os2 Si2 Th1'
_cod_database_code               1538228
loop_
_symmetry_equiv_pos_as_xyz
x,y,z
-y,x,z
-x,-y,z
y,-x,z
x,-y,-z
y,x,-z
-x,y,-z
-y,-x,-z
-x,-y,-z
y,-x,-z
x,y,-z
-y,x,-z
-x,y,z
-y,-x,z
x,-y,z
y,x,z
x+1/2,y+1/2,z+1/2
-y+1/2,x+1/2,z+1/2
-x+1/2,-y+1/2,z+1/2
y+1/2,-x+1/2,z+1/2
x+1/2,-y+1/2,-z+1/2
y+1/2,x+1/2,-z+1/2
-x+1/2,y+1/2,-z+1/2
-y+1/2,-x+1/2,-z+1/2
-x+1/2,-y+1/2,-z+1/2
y+1/2,-x+1/2,-z+1/2
x+1/2,y+1/2,-z+1/2
-y+1/2,x+1/2,-z+1/2
-x+1/2,y+1/2,z+1/2
-y+1/2,-x+1/2,z+1/2
x+1/2,-y+1/2,z+1/2
y+1/2,x+1/2,z+1/2
loop_
_atom_site_label
_atom_site_type_symbol
_atom_site_fract_x
_atom_site_fract_y
_atom_site_fract_z
_atom_site_occupancy
_atom_site_U_iso_or_equiv
Si1 Si 0 0 0.375 1 0.0
Th1 Th 0 0 0 1 0.0
Os1 Os 0 0.5 0.25 1 0.0
