#------------------------------------------------------------------------------
#$Date: 2016-02-13 21:28:24 +0200 (Sat, 13 Feb 2016) $
#$Revision: 176429 $
#$URL: svn://www.crystallography.net/cod/cif/1/53/85/1538541.cif $
#------------------------------------------------------------------------------
#
# This file is available in the Crystallography Open Database (COD),
# http://www.crystallography.net/
#
# All data on this site have been placed in the public domain by the
# contributors.
#
data_1538541
loop_
_publ_author_name
'Ruedorff, W.'
'Brodersen, K.'
_publ_section_title
;
 Die Struktur der Millonschen Base und einiger ihrer Salze
;
_journal_name_full
'Zeitschrift fuer Anorganische und Allgemeine Chemie'
_journal_page_first              323
_journal_page_last               340
_journal_volume                  274
_journal_year                    1953
_chemical_formula_sum            'Hg2 I N'
_chemical_name_systematic        'N Hg2 I'
_space_group_IT_number           194
_symmetry_space_group_name_Hall  '-P 6c 2c'
_symmetry_space_group_name_H-M   'P 63/m m c'
_cell_angle_alpha                90
_cell_angle_beta                 90
_cell_angle_gamma                120
_cell_formula_units_Z            4
_cell_length_a                   6.73
_cell_length_b                   6.73
_cell_length_c                   11.45
_cell_volume                     449.124
_citation_journal_id_ASTM        ZAACAB
_cod_data_source_file            Ruedorff_ZAACAB_1953_828.cif
_cod_data_source_block           Hg2I1N1
_cod_original_formula_sum        'Hg2 I1 N1'
_cod_database_code               1538541
loop_
_symmetry_equiv_pos_as_xyz
x,y,z
x-y,x,z+1/2
-y,x-y,z
-x,-y,z+1/2
-x+y,-x,z
y,-x+y,z+1/2
-y,-x,-z+1/2
x-y,-y,-z
x,x-y,-z+1/2
y,x,-z
-x+y,y,-z+1/2
-x,-x+y,-z
-x,-y,-z
-x+y,-x,-z-1/2
y,-x+y,-z
x,y,-z-1/2
x-y,x,-z
-y,x-y,-z-1/2
y,x,z-1/2
-x+y,y,z
-x,-x+y,z-1/2
-y,-x,z
x-y,-y,z-1/2
x,x-y,z
loop_
_atom_site_label
_atom_site_type_symbol
_atom_site_fract_x
_atom_site_fract_y
_atom_site_fract_z
_atom_site_occupancy
_atom_site_U_iso_or_equiv
N1 N-3 0.3333 0.6667 0.434 1 0.0
I2 I-1 0 0 0 0.5 0.0
Hg2 Hg+2 0.3333 0.6667 0.25 1 0.0
Hg1 Hg+2 0.5 0 0 1 0.0
I1 I-1 0.3333 0.6667 0.75 1 0.0
I3 I-1 0 0 0.25 0.5 0.0
