#------------------------------------------------------------------------------
#$Date: 2018-09-27 07:13:35 +0300 (Thu, 27 Sep 2018) $
#$Revision: 211196 $
#$URL: file:///home/coder/svn-repositories/cod/cif/1/53/84/1538424.cif $
#------------------------------------------------------------------------------
#
# This file is available in the Crystallography Open Database (COD),
# http://www.crystallography.net/
#
# All data on this site have been placed in the public domain by the
# contributors.
#
data_1538424
loop_
_publ_author_name
'Omloo, W.P.F.A.M.'
'Jellinek, F.'
_publ_section_title
;
 Intercalation compounds of alkali metals with niobium and tantalum
 dichalcogenides
;
_journal_name_full               'Journal of the Less-Common Metals'
_journal_page_first              121
_journal_page_last               129
_journal_volume                  20
_journal_year                    1970
_chemical_formula_sum            'Na Nb S2'
_space_group_IT_number           194
_symmetry_space_group_name_Hall  '-P 6c 2c'
_symmetry_space_group_name_H-M   'P 63/m m c'
_cell_angle_alpha                90
_cell_angle_beta                 90
_cell_angle_gamma                120
_cell_formula_units_Z            2
_cell_length_a                   3.366
_cell_length_b                   3.366
_cell_length_c                   14.52
_cell_volume                     142.471
_citation_journal_id_ASTM        JCOMAH
_cod_data_source_file            Omloo_JCOMAH_1970_1220.cif
_cod_data_source_block           Na1Nb1S2
_cod_original_cell_volume        142.4707
_cod_original_formula_sum        'Na1 Nb1 S2'
_cod_database_code               1538424
loop_
_symmetry_equiv_pos_as_xyz
x,y,z
x-y,x,z+1/2
-y,x-y,z
-x,-y,z+1/2
-x+y,-x,z
y,-x+y,z+1/2
-y,-x,-z+1/2
x-y,-y,-z
x,x-y,-z+1/2
y,x,-z
-x+y,y,-z+1/2
-x,-x+y,-z
-x,-y,-z
-x+y,-x,-z-1/2
y,-x+y,-z
x,y,-z-1/2
x-y,x,-z
-y,x-y,-z-1/2
y,x,z-1/2
-x+y,y,z
-x,-x+y,z-1/2
-y,-x,z
x-y,-y,z-1/2
x,x-y,z
loop_
_atom_site_label
_atom_site_type_symbol
_atom_site_fract_x
_atom_site_fract_y
_atom_site_fract_z
_atom_site_occupancy
_atom_site_U_iso_or_equiv
S1 S 0.3333 0.6667 0.142 1 0.0
Nb1 Nb 0 0 0.25 1 0.0
Na1 Na 0 0 0 1 0.0
