#------------------------------------------------------------------------------
#$Date: 2018-09-27 07:13:35 +0300 (Thu, 27 Sep 2018) $
#$Revision: 211196 $
#$URL: file:///home/coder/svn-repositories/cod/cif/1/53/80/1538095.cif $
#------------------------------------------------------------------------------
#
# This file is available in the Crystallography Open Database (COD),
# http://www.crystallography.net/
#
# All data on this site have been placed in the public domain by the
# contributors.
#
data_1538095
loop_
_publ_author_name
'Haugsten, K.'
'Rost, E.'
_publ_section_title
;
 Phase relations in the system Ni-S-Se at 500 C
;
_journal_name_full
'Acta Chemica Scandinavica (1-27,1973-42,1988)'
_journal_page_first              3599
_journal_page_last               3600
_journal_volume                  23
_journal_year                    1969
_chemical_formula_sum            'Ni2 S Se'
_space_group_IT_number           194
_symmetry_space_group_name_Hall  '-P 6c 2c'
_symmetry_space_group_name_H-M   'P 63/m m c'
_cell_angle_alpha                90
_cell_angle_beta                 90
_cell_angle_gamma                120
_cell_formula_units_Z            1
_cell_length_a                   3.555
_cell_length_b                   3.555
_cell_length_c                   5.361
_cell_volume                     58.675
_citation_journal_id_ASTM        ACSAA4
_cod_data_source_file            Haugsten_ACSAA4_1969_1005.cif
_cod_data_source_block           Ni2S1Se1
_cod_original_cell_volume        58.67535
_cod_original_formula_sum        'Ni2 S1 Se1'
_cod_database_code               1538095
loop_
_symmetry_equiv_pos_as_xyz
x,y,z
x-y,x,z+1/2
-y,x-y,z
-x,-y,z+1/2
-x+y,-x,z
y,-x+y,z+1/2
-y,-x,-z+1/2
x-y,-y,-z
x,x-y,-z+1/2
y,x,-z
-x+y,y,-z+1/2
-x,-x+y,-z
-x,-y,-z
-x+y,-x,-z-1/2
y,-x+y,-z
x,y,-z-1/2
x-y,x,-z
-y,x-y,-z-1/2
y,x,z-1/2
-x+y,y,z
-x,-x+y,z-1/2
-y,-x,z
x-y,-y,z-1/2
x,x-y,z
loop_
_atom_site_label
_atom_site_type_symbol
_atom_site_fract_x
_atom_site_fract_y
_atom_site_fract_z
_atom_site_occupancy
_atom_site_U_iso_or_equiv
Ni1 Ni+2 0.3333 0.6667 0.25 1 0.0
Se1 Se-2 0 0 0 0.5 0.0
S1 S-2 0 0 0 0.5 0.0
