#------------------------------------------------------------------------------
#$Date: 2016-02-13 21:28:24 +0200 (Sat, 13 Feb 2016) $
#$Revision: 176429 $
#$URL: svn://www.crystallography.net/cod/cif/1/53/87/1538712.cif $
#------------------------------------------------------------------------------
#
# This file is available in the Crystallography Open Database (COD),
# http://www.crystallography.net/
#
# All data on this site have been placed in the public domain by the
# contributors.
#
data_1538712
loop_
_publ_author_name
'Maple, M.B.'
'Chen, J.W.'
'Dalichaouch, Y.'
'McElfresh, M.W.'
'Kohara, T.'
'Rossel, C.'
'Torikachvili, M.S.'
'Thompson, J.D.'
_publ_section_title
;
 Partially gapped Fermi surface in the heavy-electron superconductor U Ru2
 Si2
;
_journal_name_full               'Physical Review Letters'
_journal_page_first              185
_journal_page_last               188
_journal_volume                  56
_journal_year                    1986
_chemical_formula_sum            'Ru2 Si2 U'
_chemical_name_systematic        'Ru2 U Si2'
_space_group_IT_number           139
_symmetry_space_group_name_Hall  '-I 4 2'
_symmetry_space_group_name_H-M   'I 4/m m m'
_cell_angle_alpha                90
_cell_angle_beta                 90
_cell_angle_gamma                90
_cell_formula_units_Z            2
_cell_length_a                   4.129
_cell_length_b                   4.129
_cell_length_c                   9.575
_cell_volume                     163.241
_citation_journal_id_ASTM        PRLTAO
_cod_data_source_file            Maple_PRLTAO_1986_1694.cif
_cod_data_source_block           Ru2Si2U1
_cod_original_cell_volume        163.2408
_cod_original_formula_sum        'Ru2 Si2 U1'
_cod_database_code               1538712
loop_
_symmetry_equiv_pos_as_xyz
x,y,z
-y,x,z
-x,-y,z
y,-x,z
x,-y,-z
y,x,-z
-x,y,-z
-y,-x,-z
-x,-y,-z
y,-x,-z
x,y,-z
-y,x,-z
-x,y,z
-y,-x,z
x,-y,z
y,x,z
x+1/2,y+1/2,z+1/2
-y+1/2,x+1/2,z+1/2
-x+1/2,-y+1/2,z+1/2
y+1/2,-x+1/2,z+1/2
x+1/2,-y+1/2,-z+1/2
y+1/2,x+1/2,-z+1/2
-x+1/2,y+1/2,-z+1/2
-y+1/2,-x+1/2,-z+1/2
-x+1/2,-y+1/2,-z+1/2
y+1/2,-x+1/2,-z+1/2
x+1/2,y+1/2,-z+1/2
-y+1/2,x+1/2,-z+1/2
-x+1/2,y+1/2,z+1/2
-y+1/2,-x+1/2,z+1/2
x+1/2,-y+1/2,z+1/2
y+1/2,x+1/2,z+1/2
loop_
_atom_site_label
_atom_site_type_symbol
_atom_site_fract_x
_atom_site_fract_y
_atom_site_fract_z
_atom_site_occupancy
_atom_site_U_iso_or_equiv
Ru1 Ru 0 0.5 0.25 1 0.0
U1 U 0 0 0 1 0.0
Si1 Si 0 0 0.371 1 0.0
