#------------------------------------------------------------------------------
#$Date: 2016-02-13 21:28:24 +0200 (Sat, 13 Feb 2016) $
#$Revision: 176429 $
#$URL: svn://www.crystallography.net/cod/cif/1/53/81/1538169.cif $
#------------------------------------------------------------------------------
#
# This file is available in the Crystallography Open Database (COD),
# http://www.crystallography.net/
#
# All data on this site have been placed in the public domain by the
# contributors.
#
data_1538169
loop_
_publ_author_name
'Hiebl, K.'
'Horvath, C.'
'Rogl, P.'
'Sienko, M.J.'
_publ_section_title
;
 Magnetic properties and structural chemistry of ternary silicides (RE,
 Th, U) Ru2 Si2 (RE= rare earth)
;
_journal_name_full               'Journal of Magnetism and Magnetic Materials'
_journal_page_first              287
_journal_page_last               296
_journal_volume                  37
_journal_year                    1983
_chemical_formula_sum            'Ru2 Si2 Sm'
_chemical_name_systematic        'Ru2 Sm Si2'
_space_group_IT_number           139
_symmetry_space_group_name_Hall  '-I 4 2'
_symmetry_space_group_name_H-M   'I 4/m m m'
_cell_angle_alpha                90
_cell_angle_beta                 90
_cell_angle_gamma                90
_cell_formula_units_Z            2
_cell_length_a                   4.171
_cell_length_b                   4.171
_cell_length_c                   9.6601
_cell_volume                     168.059
_citation_journal_id_ASTM        JMMMDC
_cod_data_source_file            Hiebl_JMMMDC_1983_1688.cif
_cod_data_source_block           Ru2Si2Sm1
_cod_original_cell_volume        168.0591
_cod_original_formula_sum        'Ru2 Si2 Sm1'
_cod_database_code               1538169
loop_
_symmetry_equiv_pos_as_xyz
x,y,z
-y,x,z
-x,-y,z
y,-x,z
x,-y,-z
y,x,-z
-x,y,-z
-y,-x,-z
-x,-y,-z
y,-x,-z
x,y,-z
-y,x,-z
-x,y,z
-y,-x,z
x,-y,z
y,x,z
x+1/2,y+1/2,z+1/2
-y+1/2,x+1/2,z+1/2
-x+1/2,-y+1/2,z+1/2
y+1/2,-x+1/2,z+1/2
x+1/2,-y+1/2,-z+1/2
y+1/2,x+1/2,-z+1/2
-x+1/2,y+1/2,-z+1/2
-y+1/2,-x+1/2,-z+1/2
-x+1/2,-y+1/2,-z+1/2
y+1/2,-x+1/2,-z+1/2
x+1/2,y+1/2,-z+1/2
-y+1/2,x+1/2,-z+1/2
-x+1/2,y+1/2,z+1/2
-y+1/2,-x+1/2,z+1/2
x+1/2,-y+1/2,z+1/2
y+1/2,x+1/2,z+1/2
loop_
_atom_site_label
_atom_site_type_symbol
_atom_site_fract_x
_atom_site_fract_y
_atom_site_fract_z
_atom_site_occupancy
_atom_site_U_iso_or_equiv
Sm1 Sm 0 0 0 1 0.0
Si1 Si 0 0 0.375 1 0.0
Ru1 Ru 0 0.5 0.25 1 0.0
