#------------------------------------------------------------------------------
#$Date: 2018-09-27 07:13:35 +0300 (Thu, 27 Sep 2018) $
#$Revision: 211196 $
#$URL: file:///home/coder/svn-repositories/cod/cif/1/53/87/1538718.cif $
#------------------------------------------------------------------------------
#
# This file is available in the Crystallography Open Database (COD),
# http://www.crystallography.net/
#
# All data on this site have been placed in the public domain by the
# contributors.
#
data_1538718
loop_
_publ_author_name
'Marazza, R.'
'Ferro, R.'
'Zanicchi, G.'
'Rambaldi, G.'
_publ_section_title
;
 Some phases in ternary alloys of thorium and uranium with the
 Al4Ba-ThCu2SI2-type structure
;
_journal_name_full               'Journal of the Less-Common Metals'
_journal_page_first              193
_journal_page_last               197
_journal_volume                  53
_journal_year                    1977
_chemical_formula_sum            'Rh2 Si2 Th'
_space_group_IT_number           139
_symmetry_space_group_name_Hall  '-I 4 2'
_symmetry_space_group_name_H-M   'I 4/m m m'
_cell_angle_alpha                90
_cell_angle_beta                 90
_cell_angle_gamma                90
_cell_formula_units_Z            2
_cell_length_a                   4.095
_cell_length_b                   4.095
_cell_length_c                   10.083
_cell_volume                     169.082
_citation_journal_id_ASTM        JCOMAH
_cod_data_source_file            Marazza_JCOMAH_1977_1632.cif
_cod_data_source_block           Rh2Si2Th1
_cod_original_cell_volume        169.0821
_cod_original_formula_sum        'Rh2 Si2 Th1'
_cod_database_code               1538718
loop_
_symmetry_equiv_pos_as_xyz
x,y,z
-y,x,z
-x,-y,z
y,-x,z
x,-y,-z
y,x,-z
-x,y,-z
-y,-x,-z
-x,-y,-z
y,-x,-z
x,y,-z
-y,x,-z
-x,y,z
-y,-x,z
x,-y,z
y,x,z
x+1/2,y+1/2,z+1/2
-y+1/2,x+1/2,z+1/2
-x+1/2,-y+1/2,z+1/2
y+1/2,-x+1/2,z+1/2
x+1/2,-y+1/2,-z+1/2
y+1/2,x+1/2,-z+1/2
-x+1/2,y+1/2,-z+1/2
-y+1/2,-x+1/2,-z+1/2
-x+1/2,-y+1/2,-z+1/2
y+1/2,-x+1/2,-z+1/2
x+1/2,y+1/2,-z+1/2
-y+1/2,x+1/2,-z+1/2
-x+1/2,y+1/2,z+1/2
-y+1/2,-x+1/2,z+1/2
x+1/2,-y+1/2,z+1/2
y+1/2,x+1/2,z+1/2
loop_
_atom_site_label
_atom_site_type_symbol
_atom_site_fract_x
_atom_site_fract_y
_atom_site_fract_z
_atom_site_occupancy
_atom_site_U_iso_or_equiv
Rh1 Rh 0 0.5 0.25 1 0.0
Th1 Th 0 0 0 1 0.0
Si1 Si 0 0 0.375 1 0.0
