#------------------------------------------------------------------------------
#$Date: 2015-10-13 20:49:19 +0300 (Tue, 13 Oct 2015) $
#$Revision: 167627 $
#$URL: svn://www.crystallography.net/cod/cif/1/53/89/1538910.cif $
#------------------------------------------------------------------------------
#
# This file is available in the Crystallography Open Database (COD),
# http://www.crystallography.net/
#
# All data on this site have been placed in the public domain by the
# contributors.
#
data_1538910
loop_
_publ_author_name
'Orillion, M.T.'
'Raman, A.'
_publ_section_title
;
 Alloy chemistry of sigma (beta-U) related phases. IV. A15, sigma and
 kappa phases in ternary alloys of refrectory metals with gallium
;
_journal_name_full               'Zeitschrift fuer Metallkunde'
_journal_page_first              709
_journal_page_last               713
_journal_volume                  65
_journal_year                    1974
_chemical_formula_sum            'Si1.2 Sn0.8 V6'
_chemical_name_systematic        '(Si3 Sn2 V15)0.4'
_space_group_IT_number           223
_symmetry_space_group_name_Hall  '-P 4n 2 3'
_symmetry_space_group_name_H-M   'P m -3 n'
_cell_angle_alpha                90
_cell_angle_beta                 90
_cell_angle_gamma                90
_cell_formula_units_Z            1
_cell_length_a                   4.838
_cell_length_b                   4.838
_cell_length_c                   4.838
_cell_volume                     113.239
_citation_journal_id_ASTM        ZEMTAE
_cod_data_source_file            Orillion_ZEMTAE_1974_1990.cif
_cod_data_source_block           Si1.2Sn0.8V6
_cod_original_cell_volume        113.2394
_cod_database_code               1538910
loop_
_symmetry_equiv_pos_as_xyz
x,y,z
-y+1/2,x+1/2,z+1/2
-x,-y,z
y+1/2,-x+1/2,z+1/2
x,-y,-z
y+1/2,x+1/2,-z+1/2
-x,y,-z
-y+1/2,-x+1/2,-z+1/2
z,x,y
-x+1/2,z+1/2,y+1/2
-z,-x,y
x+1/2,-z+1/2,y+1/2
z,-x,-y
x+1/2,z+1/2,-y+1/2
-z,x,-y
-x+1/2,-z+1/2,-y+1/2
y,z,x
y,-z,-x
z+1/2,y+1/2,-x+1/2
-y,z,-x
-z+1/2,-y+1/2,-x+1/2
-y,-z,x
z+1/2,-y+1/2,x+1/2
-z+1/2,y+1/2,x+1/2
-x,-y,-z
y-1/2,-x-1/2,-z-1/2
x,y,-z
-y-1/2,x-1/2,-z-1/2
-x,y,z
-y-1/2,-x-1/2,z-1/2
x,-y,z
y-1/2,x-1/2,z-1/2
-z,-x,-y
x-1/2,-z-1/2,-y-1/2
z,x,-y
-x-1/2,z-1/2,-y-1/2
-z,x,y
-x-1/2,-z-1/2,y-1/2
z,-x,y
x-1/2,z-1/2,y-1/2
-y,-z,-x
-y,z,x
-z-1/2,-y-1/2,x-1/2
y,-z,x
z-1/2,y-1/2,x-1/2
y,z,-x
-z-1/2,y-1/2,-x-1/2
z-1/2,-y-1/2,-x-1/2
loop_
_atom_site_label
_atom_site_type_symbol
_atom_site_fract_x
_atom_site_fract_y
_atom_site_fract_z
_atom_site_occupancy
_atom_site_U_iso_or_equiv
V1 V 0.25 0 0.5 1 0.0
Si1 Si 0 0 0 0.62 0.0
Sn1 Sn 0 0 0 0.38 0.0
