#------------------------------------------------------------------------------
#$Date: 2016-02-13 21:28:24 +0200 (Sat, 13 Feb 2016) $
#$Revision: 176429 $
#$URL: svn://www.crystallography.net/cod/cif/1/53/85/1538583.cif $
#------------------------------------------------------------------------------
#
# This file is available in the Crystallography Open Database (COD),
# http://www.crystallography.net/
#
# All data on this site have been placed in the public domain by the
# contributors.
#
data_1538583
loop_
_publ_author_name
'Lartigue, C.'
'Percheron-Guegan, A.'
'Achard, J.C.'
'Tasset, F.'
_publ_section_title
;
 Thermodynamic and structural properties of La Ni5-x Mnx compounds and
 their related hydrides
;
_journal_name_full               'Journal of the Less-Common Metals'
_journal_page_first              23
_journal_page_last               23
_journal_volume                  75
_journal_year                    1980
_chemical_formula_sum            'La Mn0.91 Ni4.1'
_chemical_name_systematic        'La Mn0.91 Ni4.10'
_space_group_IT_number           191
_symmetry_space_group_name_Hall  '-P 6 2'
_symmetry_space_group_name_H-M   'P 6/m m m'
_cell_angle_alpha                90
_cell_angle_beta                 90
_cell_angle_gamma                120
_cell_formula_units_Z            1
_cell_length_a                   5.089
_cell_length_b                   5.089
_cell_length_c                   4.082
_cell_volume                     91.552
_citation_journal_id_ASTM        JCOMAH
_cod_data_source_file            Lartigue_JCOMAH_1980_388.cif
_cod_data_source_block           La1Mn0.91Ni4.1
_cod_original_cell_volume        91.55215
_cod_original_formula_sum        'La1 Mn0.91 Ni4.1'
_cod_database_code               1538583
loop_
_symmetry_equiv_pos_as_xyz
x,y,z
x-y,x,z
-y,x-y,z
-x,-y,z
-x+y,-x,z
y,-x+y,z
-y,-x,-z
x-y,-y,-z
x,x-y,-z
y,x,-z
-x+y,y,-z
-x,-x+y,-z
-x,-y,-z
-x+y,-x,-z
y,-x+y,-z
x,y,-z
x-y,x,-z
-y,x-y,-z
y,x,z
-x+y,y,z
-x,-x+y,z
-y,-x,z
x-y,-y,z
x,x-y,z
loop_
_atom_site_label
_atom_site_type_symbol
_atom_site_fract_x
_atom_site_fract_y
_atom_site_fract_z
_atom_site_occupancy
_atom_site_U_iso_or_equiv
Ni3 Ni 0 0 0.313 0.005 0.0
Mn2 Mn 0.5 0 0.5 0.2597 0.0
Ni1 Ni 0.3333 0.6667 0 0.936 0.0
Ni2 Ni 0.5 0 0.5 0.7403 0.0
La1 La 0 0 0 0.995 0.0
Mn1 Mn 0.3333 0.6667 0 0.064 0.0
