#------------------------------------------------------------------------------
#$Date: 2018-09-27 07:13:35 +0300 (Thu, 27 Sep 2018) $
#$Revision: 211196 $
#$URL: file:///home/coder/svn-repositories/cod/cif/1/53/89/1538949.cif $
#------------------------------------------------------------------------------
#
# This file is available in the Crystallography Open Database (COD),
# http://www.crystallography.net/
#
# All data on this site have been placed in the public domain by the
# contributors.
#
data_1538949
loop_
_publ_author_name
'Palenzona, A.'
'Cirafici, S.'
'Canepa, F.'
_publ_section_title
;
 High temperature behaviour of unstable Eu Pd2 Si2 and reference M Pd2 Si2
 compounds (M= all rare earths and alkaline earths)
;
_journal_name_full               'Journal of the Less-Common Metals'
_journal_page_first              185
_journal_page_last               194
_journal_volume                  135
_journal_year                    1987
_chemical_formula_sum            'La Pd2 Si2'
_space_group_IT_number           139
_symmetry_space_group_name_Hall  '-I 4 2'
_symmetry_space_group_name_H-M   'I 4/m m m'
_cell_angle_alpha                90
_cell_angle_beta                 90
_cell_angle_gamma                90
_cell_formula_units_Z            2
_cell_length_a                   4.286
_cell_length_b                   4.286
_cell_length_c                   9.884
_cell_volume                     181.567
_citation_journal_id_ASTM        JCOMAH
_cod_data_source_file            Palenzona_JCOMAH_1987_427.cif
_cod_data_source_block           La1Pd2Si2
_cod_original_formula_sum        'La1 Pd2 Si2'
_cod_database_code               1538949
loop_
_symmetry_equiv_pos_as_xyz
x,y,z
-y,x,z
-x,-y,z
y,-x,z
x,-y,-z
y,x,-z
-x,y,-z
-y,-x,-z
-x,-y,-z
y,-x,-z
x,y,-z
-y,x,-z
-x,y,z
-y,-x,z
x,-y,z
y,x,z
x+1/2,y+1/2,z+1/2
-y+1/2,x+1/2,z+1/2
-x+1/2,-y+1/2,z+1/2
y+1/2,-x+1/2,z+1/2
x+1/2,-y+1/2,-z+1/2
y+1/2,x+1/2,-z+1/2
-x+1/2,y+1/2,-z+1/2
-y+1/2,-x+1/2,-z+1/2
-x+1/2,-y+1/2,-z+1/2
y+1/2,-x+1/2,-z+1/2
x+1/2,y+1/2,-z+1/2
-y+1/2,x+1/2,-z+1/2
-x+1/2,y+1/2,z+1/2
-y+1/2,-x+1/2,z+1/2
x+1/2,-y+1/2,z+1/2
y+1/2,x+1/2,z+1/2
loop_
_atom_site_label
_atom_site_type_symbol
_atom_site_fract_x
_atom_site_fract_y
_atom_site_fract_z
_atom_site_occupancy
_atom_site_U_iso_or_equiv
La1 La 0 0 0 1 0.0
Pd1 Pd 0 0.5 0.25 1 0.0
Si1 Si 0 0 0.375 1 0.0
