#------------------------------------------------------------------------------
#$Date: 2016-02-13 21:28:24 +0200 (Sat, 13 Feb 2016) $
#$Revision: 176429 $
#$URL: svn://www.crystallography.net/cod/cif/1/53/90/1539092.cif $
#------------------------------------------------------------------------------
#
# This file is available in the Crystallography Open Database (COD),
# http://www.crystallography.net/
#
# All data on this site have been placed in the public domain by the
# contributors.
#
data_1539092
loop_
_publ_author_name
'Sillen, L.G.'
_publ_section_title
;
 X-ray studies on Bi O Cl, Bi O Br and Bi O I
;
_journal_name_full               'Svensk Kemisk Tidskrift'
_journal_page_first              39
_journal_page_last               43
_journal_volume                  53
_journal_year                    1941
_chemical_formula_sum            'Bi Br O'
_chemical_name_systematic        'Bi O Br'
_space_group_IT_number           129
_symmetry_space_group_name_Hall  'P 4ab 2ab -1ab'
_symmetry_space_group_name_H-M   'P 4/n m m :1'
_cell_angle_alpha                90
_cell_angle_beta                 90
_cell_angle_gamma                90
_cell_formula_units_Z            2
_cell_length_a                   3.923
_cell_length_b                   3.923
_cell_length_c                   8.092
_cell_volume                     124.535
_citation_journal_id_ASTM        SKTIAF
_cod_data_source_file            Sillen_SKTIAF_1941_141.cif
_cod_data_source_block           Bi1Br1O1
_cod_original_cell_volume        124.5353
_cod_original_sg_symbol_Hall     '-P 4a 2a (x-1/4,y+1/4,z)'
_cod_original_formula_sum        'Bi1 Br1 O1'
_cod_database_code               1539092
loop_
_symmetry_equiv_pos_as_xyz
x,y,z
-y+1/2,x+1/2,z
-x,-y,z
y+1/2,-x+1/2,z
x+1/2,-y+1/2,-z
y,x,-z
-x+1/2,y+1/2,-z
-y,-x,-z
-x+1/2,-y+1/2,-z
y,-x,-z
x+1/2,y+1/2,-z
-y,x,-z
-x,y,z
-y+1/2,-x+1/2,z
x,-y,z
y+1/2,x+1/2,z
loop_
_atom_site_label
_atom_site_type_symbol
_atom_site_fract_x
_atom_site_fract_y
_atom_site_fract_z
_atom_site_occupancy
_atom_site_U_iso_or_equiv
O1 O-2 0 0 0 1 0.0
Br1 Br-1 0 0.5 0.653 1 0.0
Bi1 Bi+3 0 0.5 0.154 1 0.0
