#------------------------------------------------------------------------------
#$Date: 2018-09-27 07:13:35 +0300 (Thu, 27 Sep 2018) $
#$Revision: 211196 $
#$URL: file:///home/coder/svn-repositories/cod/cif/1/53/96/1539608.cif $
#------------------------------------------------------------------------------
#
# This file is available in the Crystallography Open Database (COD),
# http://www.crystallography.net/
#
# All data on this site have been placed in the public domain by the
# contributors.
#
data_1539608
loop_
_publ_author_name
'Attfield, J.P.'
_publ_section_title
;
 Exchange striction and exchange constants in Bi2 Cu O4
;
_journal_name_full               'Journal of Physics: Condensed Matter'
_journal_page_first              7045
_journal_page_last               7053
_journal_volume                  1
_journal_year                    1989
_chemical_formula_sum            'Bi2 Cu O4'
_space_group_IT_number           130
_symmetry_space_group_name_Hall  '-P 4a 2ac'
_symmetry_space_group_name_H-M   'P 4/n c c :2'
_cell_angle_alpha                90
_cell_angle_beta                 90
_cell_angle_gamma                90
_cell_formula_units_Z            4
_cell_length_a                   8.4875
_cell_length_b                   8.4875
_cell_length_c                   5.7901
_cell_volume                     417.105
_citation_journal_id_ASTM        JCOMEL
_cod_data_source_file            Attfield_JCOMEL_1989_1861.cif
_cod_data_source_block           Bi2Cu1O4
_cod_original_cell_volume        417.1053
_cod_original_formula_sum        'Bi2 Cu1 O4'
_cod_database_code               1539608
loop_
_symmetry_equiv_pos_as_xyz
x,y,z
-y+1/2,x,z
-x+1/2,-y+1/2,z
y,-x+1/2,z
x+1/2,-y,-z+1/2
y+1/2,x+1/2,-z+1/2
-x,y+1/2,-z+1/2
-y,-x,-z+1/2
-x,-y,-z
y-1/2,-x,-z
x-1/2,y-1/2,-z
-y,x-1/2,-z
-x-1/2,y,z-1/2
-y-1/2,-x-1/2,z-1/2
x,-y-1/2,z-1/2
y,x,z-1/2
loop_
_atom_site_label
_atom_site_type_symbol
_atom_site_fract_x
_atom_site_fract_y
_atom_site_fract_z
_atom_site_occupancy
_atom_site_U_iso_or_equiv
Bi1 Bi+3 0.4183 0.9183 0.25 1 0.0
O1 O-2 0.5493 0.8575 -0.0909 1 0.0
Cu1 Cu+2 0.25 0.25 0.0771 1 0.0
