#------------------------------------------------------------------------------
#$Date: 2018-09-27 07:13:35 +0300 (Thu, 27 Sep 2018) $
#$Revision: 211196 $
#$URL: file:///home/coder/svn-repositories/cod/cif/1/53/98/1539809.cif $
#------------------------------------------------------------------------------
#
# This file is available in the Crystallography Open Database (COD),
# http://www.crystallography.net/
#
# All data on this site have been placed in the public domain by the
# contributors.
#
data_1539809
loop_
_publ_author_name
'Bodak, O.I.'
'Oleksii, O.Ya.'
'Pecharskii, V.K.'
'Fedyna, M.F.'
_publ_section_title
;
 Er(Tm)-Fe-Ge system
;
_journal_name_full
;
Inorganic Materials (USSR) (see: Izv.Akad.Nauk, Neorg.Mater.)
;
_journal_page_first              371
_journal_page_last               374
_journal_volume                  28
_journal_year                    1992
_chemical_formula_sum            'Er Fe2 Ge2'
_space_group_IT_number           139
_symmetry_space_group_name_Hall  '-I 4 2'
_symmetry_space_group_name_H-M   'I 4/m m m'
_cell_angle_alpha                90
_cell_angle_beta                 90
_cell_angle_gamma                90
_cell_formula_units_Z            2
_cell_length_a                   3.932
_cell_length_b                   3.932
_cell_length_c                   10.417
_cell_volume                     161.053
_citation_journal_id_ASTM        INOMAF
_cod_data_source_file            Bodak_INOMAF_1992_689.cif
_cod_data_source_block           Er1Fe2Ge2
_cod_original_cell_volume        161.0533
_cod_original_formula_sum        'Er1 Fe2 Ge2'
_cod_database_code               1539809
loop_
_symmetry_equiv_pos_as_xyz
x,y,z
-y,x,z
-x,-y,z
y,-x,z
x,-y,-z
y,x,-z
-x,y,-z
-y,-x,-z
-x,-y,-z
y,-x,-z
x,y,-z
-y,x,-z
-x,y,z
-y,-x,z
x,-y,z
y,x,z
x+1/2,y+1/2,z+1/2
-y+1/2,x+1/2,z+1/2
-x+1/2,-y+1/2,z+1/2
y+1/2,-x+1/2,z+1/2
x+1/2,-y+1/2,-z+1/2
y+1/2,x+1/2,-z+1/2
-x+1/2,y+1/2,-z+1/2
-y+1/2,-x+1/2,-z+1/2
-x+1/2,-y+1/2,-z+1/2
y+1/2,-x+1/2,-z+1/2
x+1/2,y+1/2,-z+1/2
-y+1/2,x+1/2,-z+1/2
-x+1/2,y+1/2,z+1/2
-y+1/2,-x+1/2,z+1/2
x+1/2,-y+1/2,z+1/2
y+1/2,x+1/2,z+1/2
loop_
_atom_site_label
_atom_site_type_symbol
_atom_site_fract_x
_atom_site_fract_y
_atom_site_fract_z
_atom_site_occupancy
_atom_site_U_iso_or_equiv
Fe1 Fe 0 0.5 0.25 1 0.0
Ge1 Ge 0 0 0.375 1 0.0
Er1 Er 0 0 0 1 0.0
