#------------------------------------------------------------------------------
#$Date: 2016-02-13 21:28:24 +0200 (Sat, 13 Feb 2016) $
#$Revision: 176429 $
#$URL: svn://www.crystallography.net/cod/cif/1/53/94/1539433.cif $
#------------------------------------------------------------------------------
#
# This file is available in the Crystallography Open Database (COD),
# http://www.crystallography.net/
#
# All data on this site have been placed in the public domain by the
# contributors.
#
data_1539433
loop_
_publ_author_name
'Vannerberg, N.G.'
_publ_section_title
;
 On the formation and structure of cadmium peroxides
;
_journal_name_full               'Arkiv foer Kemi'
_journal_page_first              455
_journal_page_last               459
_journal_volume                  10
_journal_year                    1956
_chemical_formula_sum            'Cd H0.24 O2'
_chemical_name_systematic        'Cd (O2).88 (O H).24'
_space_group_IT_number           205
_symmetry_space_group_name_Hall  '-P 2ac 2ab 3'
_symmetry_space_group_name_H-M   'P a -3'
_cell_angle_alpha                90
_cell_angle_beta                 90
_cell_angle_gamma                90
_cell_formula_units_Z            4
_cell_length_a                   5.273
_cell_length_b                   5.273
_cell_length_c                   5.273
_cell_volume                     146.613
_citation_journal_id_ASTM        ARKEAD
_cod_data_source_file            Vannerberg_ARKEAD_1956_255.cif
_cod_data_source_block           H0.24Cd1O2
_cod_original_cell_volume        146.6133
_cod_original_formula_sum        'H0.24 Cd1 O2'
_cod_database_code               1539433
loop_
_symmetry_equiv_pos_as_xyz
x,y,z
-x+1/2,-y,z+1/2
x+1/2,-y+1/2,-z
-x,y+1/2,-z+1/2
z,x,y
-z+1/2,-x,y+1/2
z+1/2,-x+1/2,-y
-z,x+1/2,-y+1/2
y,z,x
y+1/2,-z+1/2,-x
-y,z+1/2,-x+1/2
-y+1/2,-z,x+1/2
-x,-y,-z
x-1/2,y,-z-1/2
-x-1/2,y-1/2,z
x,-y-1/2,z-1/2
-z,-x,-y
z-1/2,x,-y-1/2
-z-1/2,x-1/2,y
z,-x-1/2,y-1/2
-y,-z,-x
-y-1/2,z-1/2,x
y,-z-1/2,x-1/2
y-1/2,z,-x-1/2
loop_
_atom_site_label
_atom_site_type_symbol
_atom_site_fract_x
_atom_site_fract_y
_atom_site_fract_z
_atom_site_occupancy
_atom_site_U_iso_or_equiv
O1 O-1 0.082 0.082 0.082 0.88 0.0
O2 O-2 0.082 0.082 0.082 0.12 0.0
Cd1 Cd+2 0.5 0.5 0.5 1 0.0
