#------------------------------------------------------------------------------
#$Date: 2015-10-14 18:31:37 +0300 (Wed, 14 Oct 2015) $
#$Revision: 168839 $
#$URL: svn://www.crystallography.net/cod/cif/1/53/97/1539798.cif $
#------------------------------------------------------------------------------
#
# This file is available in the Crystallography Open Database (COD),
# http://www.crystallography.net/
#
# All data on this site have been placed in the public domain by the
# contributors.
#
data_1539798
loop_
_publ_author_name
'Blomberg, M.K.'
'Merisalo, M.J.'
'Korsukova, M.M.'
'Gurin, V.N.'
_publ_section_title
;
 Single-crystal x-ray diffraction study on Ce1-x LaxB6 solid solutions
;
_journal_name_full               'Journal of the Less-Common Metals'
_journal_page_first              313
_journal_page_last               319
_journal_volume                  168
_journal_year                    1991
_chemical_formula_sum            'B5.46 Ce0.32 La0.68'
_chemical_name_systematic        'Ce.32 La.68 B5.46'
_space_group_IT_number           221
_symmetry_space_group_name_Hall  '-P 4 2 3'
_symmetry_space_group_name_H-M   'P m -3 m'
_cell_angle_alpha                90
_cell_angle_beta                 90
_cell_angle_gamma                90
_cell_formula_units_Z            1
_cell_length_a                   4.152
_cell_length_b                   4.152
_cell_length_c                   4.152
_cell_volume                     71.577
_citation_journal_id_ASTM        JCOMAH
_cod_data_source_file            Blomberg_JCOMAH_1991_1468.cif
_cod_data_source_block           B5.46Ce0.32La0.68
_cod_original_cell_volume        71.57676
_cod_database_code               1539798
loop_
_symmetry_equiv_pos_as_xyz
x,y,z
-y,x,z
-x,-y,z
y,-x,z
x,-y,-z
y,x,-z
-x,y,-z
-y,-x,-z
z,x,y
-x,z,y
-z,-x,y
x,-z,y
z,-x,-y
x,z,-y
-z,x,-y
-x,-z,-y
y,z,x
y,-z,-x
z,y,-x
-y,z,-x
-z,-y,-x
-y,-z,x
z,-y,x
-z,y,x
-x,-y,-z
y,-x,-z
x,y,-z
-y,x,-z
-x,y,z
-y,-x,z
x,-y,z
y,x,z
-z,-x,-y
x,-z,-y
z,x,-y
-x,z,-y
-z,x,y
-x,-z,y
z,-x,y
x,z,y
-y,-z,-x
-y,z,x
-z,-y,x
y,-z,x
z,y,x
y,z,-x
-z,y,-x
z,-y,-x
loop_
_atom_site_label
_atom_site_type_symbol
_atom_site_fract_x
_atom_site_fract_y
_atom_site_fract_z
_atom_site_occupancy
_atom_site_U_iso_or_equiv
La1 La 0 0 0 0.68 0.0
B1 B 0.1994 0.5 0.5 0.91 0.0
Ce1 Ce 0 0 0 0.32 0.0
