#------------------------------------------------------------------------------
#$Date: 2016-02-13 21:28:24 +0200 (Sat, 13 Feb 2016) $
#$Revision: 176429 $
#$URL: svn://www.crystallography.net/cod/cif/1/53/94/1539476.cif $
#------------------------------------------------------------------------------
#
# This file is available in the Crystallography Open Database (COD),
# http://www.crystallography.net/
#
# All data on this site have been placed in the public domain by the
# contributors.
#
data_1539476
loop_
_publ_author_name
'Sondermann, U.'
_publ_section_title
;
 Lattice constants and melting points of actinide - group IVA-VIA
 compounds with NaCl-type structures
;
_journal_name_full               'Zeitschrift fuer Angewandte Physik'
_journal_page_first              41
_journal_page_last               45
_journal_volume                  30
_journal_year                    1970
_chemical_formula_sum            'Mn Te2 V'
_chemical_name_systematic        'Mn V Te2'
_space_group_IT_number           194
_symmetry_space_group_name_Hall  '-P 6c 2c'
_symmetry_space_group_name_H-M   'P 63/m m c'
_cell_angle_alpha                90
_cell_angle_beta                 90
_cell_angle_gamma                120
_cell_formula_units_Z            1
_cell_length_a                   4.108
_cell_length_b                   4.108
_cell_length_c                   6.4
_cell_volume                     93.534
_citation_journal_id_ASTM        ZAPHAX
_cod_data_source_file            Sondermann_ZAPHAX_1970_680.cif
_cod_data_source_block           Mn1Te2V1
_cod_original_cell_volume        93.53442
_cod_original_formula_sum        'Mn1 Te2 V1'
_cod_database_code               1539476
loop_
_symmetry_equiv_pos_as_xyz
x,y,z
x-y,x,z+1/2
-y,x-y,z
-x,-y,z+1/2
-x+y,-x,z
y,-x+y,z+1/2
-y,-x,-z+1/2
x-y,-y,-z
x,x-y,-z+1/2
y,x,-z
-x+y,y,-z+1/2
-x,-x+y,-z
-x,-y,-z
-x+y,-x,-z-1/2
y,-x+y,-z
x,y,-z-1/2
x-y,x,-z
-y,x-y,-z-1/2
y,x,z-1/2
-x+y,y,z
-x,-x+y,z-1/2
-y,-x,z
x-y,-y,z-1/2
x,x-y,z
loop_
_atom_site_label
_atom_site_type_symbol
_atom_site_fract_x
_atom_site_fract_y
_atom_site_fract_z
_atom_site_occupancy
_atom_site_U_iso_or_equiv
Mn1 Mn 0 0 0 0.5 0.0
V1 V 0 0 0 0.5 0.0
Te1 Te 0.3333 0.6667 0.25 1 0.0
