#------------------------------------------------------------------------------
#$Date: 2016-02-13 21:28:24 +0200 (Sat, 13 Feb 2016) $
#$Revision: 176429 $
#$URL: svn://www.crystallography.net/cod/cif/1/53/91/1539165.cif $
#------------------------------------------------------------------------------
#
# This file is available in the Crystallography Open Database (COD),
# http://www.crystallography.net/
#
# All data on this site have been placed in the public domain by the
# contributors.
#
data_1539165
loop_
_publ_author_name
'Umarji, A.M.'
'Godart, C.'
'Gupta, L.C.'
'Vijayaraghavan, R.'
_publ_section_title
;
 Spin fluctuation effects in substituted Ce Ru2 Si2 and Yb Pd2 Si2 alloys
;
_journal_name_full               'Pramana, Journal of Physics'
_journal_page_first              321
_journal_page_last               329
_journal_volume                  27
_journal_year                    1986
_chemical_formula_sum            'Pd2 Si2 Yb'
_chemical_name_systematic        'Pd2 Yb Si2'
_space_group_IT_number           139
_symmetry_space_group_name_Hall  '-I 4 2'
_symmetry_space_group_name_H-M   'I 4/m m m'
_cell_angle_alpha                90
_cell_angle_beta                 90
_cell_angle_gamma                90
_cell_formula_units_Z            2
_cell_length_a                   4.09
_cell_length_b                   4.09
_cell_length_c                   9.854
_cell_volume                     164.839
_citation_journal_id_ASTM        PRAMCI
_cod_data_source_file            Umarji_PRAMCI_1986_1408.cif
_cod_data_source_block           Pd2Si2Yb1
_cod_original_cell_volume        164.8387
_cod_original_formula_sum        'Pd2 Si2 Yb1'
_cod_database_code               1539165
loop_
_symmetry_equiv_pos_as_xyz
x,y,z
-y,x,z
-x,-y,z
y,-x,z
x,-y,-z
y,x,-z
-x,y,-z
-y,-x,-z
-x,-y,-z
y,-x,-z
x,y,-z
-y,x,-z
-x,y,z
-y,-x,z
x,-y,z
y,x,z
x+1/2,y+1/2,z+1/2
-y+1/2,x+1/2,z+1/2
-x+1/2,-y+1/2,z+1/2
y+1/2,-x+1/2,z+1/2
x+1/2,-y+1/2,-z+1/2
y+1/2,x+1/2,-z+1/2
-x+1/2,y+1/2,-z+1/2
-y+1/2,-x+1/2,-z+1/2
-x+1/2,-y+1/2,-z+1/2
y+1/2,-x+1/2,-z+1/2
x+1/2,y+1/2,-z+1/2
-y+1/2,x+1/2,-z+1/2
-x+1/2,y+1/2,z+1/2
-y+1/2,-x+1/2,z+1/2
x+1/2,-y+1/2,z+1/2
y+1/2,x+1/2,z+1/2
loop_
_atom_site_label
_atom_site_type_symbol
_atom_site_fract_x
_atom_site_fract_y
_atom_site_fract_z
_atom_site_occupancy
_atom_site_U_iso_or_equiv
Pd1 Pd 0 0.5 0.25 1 0.0
Yb1 Yb 0 0 0 1 0.0
Si1 Si 0 0 0.375 1 0.0
