#------------------------------------------------------------------------------
#$Date: 2015-10-14 14:36:59 +0300 (Wed, 14 Oct 2015) $
#$Revision: 168511 $
#$URL: svn://www.crystallography.net/cod/cif/1/53/95/1539566.cif $
#------------------------------------------------------------------------------
#
# This file is available in the Crystallography Open Database (COD),
# http://www.crystallography.net/
#
# All data on this site have been placed in the public domain by the
# contributors.
#
data_1539566
loop_
_publ_author_name
'Anagnostou, M.'
'Psycharis, V.'
'Devlin, E.'
'Kostikas, A.'
'Niarchos, D.'
_publ_section_title
;
 Stability range, structure and magnetic properties of Y Fe12-x Mox (0.5
 <= x <= 2.0) alloys
;
_journal_name_full               'Journal of Magnetism and Magnetic Materials'
_journal_page_first              157
_journal_page_last               166
_journal_volume                  131
_journal_year                    1994
_chemical_formula_sum            'Fe22.5 Mo1.5 Y2'
_chemical_name_systematic        '(Fe45 Mo3 Y4)0.5'
_space_group_IT_number           139
_symmetry_space_group_name_Hall  '-I 4 2'
_symmetry_space_group_name_H-M   'I 4/m m m'
_cell_angle_alpha                90
_cell_angle_beta                 90
_cell_angle_gamma                90
_cell_formula_units_Z            1
_cell_length_a                   8.5036
_cell_length_b                   8.5036
_cell_length_c                   4.7778
_cell_volume                     345.489
_citation_journal_id_ASTM        JMMMDC
_cod_data_source_file            Anagnostou_JMMMDC_1994_1056.cif
_cod_data_source_block           Fe22.5Mo1.5Y2
_cod_original_cell_volume        345.4885
_cod_database_code               1539566
loop_
_symmetry_equiv_pos_as_xyz
x,y,z
-y,x,z
-x,-y,z
y,-x,z
x,-y,-z
y,x,-z
-x,y,-z
-y,-x,-z
-x,-y,-z
y,-x,-z
x,y,-z
-y,x,-z
-x,y,z
-y,-x,z
x,-y,z
y,x,z
x+1/2,y+1/2,z+1/2
-y+1/2,x+1/2,z+1/2
-x+1/2,-y+1/2,z+1/2
y+1/2,-x+1/2,z+1/2
x+1/2,-y+1/2,-z+1/2
y+1/2,x+1/2,-z+1/2
-x+1/2,y+1/2,-z+1/2
-y+1/2,-x+1/2,-z+1/2
-x+1/2,-y+1/2,-z+1/2
y+1/2,-x+1/2,-z+1/2
x+1/2,y+1/2,-z+1/2
-y+1/2,x+1/2,-z+1/2
-x+1/2,y+1/2,z+1/2
-y+1/2,-x+1/2,z+1/2
x+1/2,-y+1/2,z+1/2
y+1/2,x+1/2,z+1/2
loop_
_atom_site_label
_atom_site_type_symbol
_atom_site_fract_x
_atom_site_fract_y
_atom_site_fract_z
_atom_site_occupancy
_atom_site_U_iso_or_equiv
Fe2 Fe 0.2762 0.5 0 1 0.0
Mo1 Mo 0.3594 0 0 0.224 0.0
Fe1 Fe 0.25 0.25 0.25 1 0.0
Y1 Y 0 0 0 1 0.0
Fe3 Fe 0.3594 0 0 0.776 0.0
