#------------------------------------------------------------------------------
#$Date: 2016-02-13 21:28:24 +0200 (Sat, 13 Feb 2016) $
#$Revision: 176429 $
#$URL: svn://www.crystallography.net/cod/cif/1/53/98/1539812.cif $
#------------------------------------------------------------------------------
#
# This file is available in the Crystallography Open Database (COD),
# http://www.crystallography.net/
#
# All data on this site have been placed in the public domain by the
# contributors.
#
data_1539812
loop_
_publ_author_name
'Bodak, O.I.'
'Pecharskii, V.K.'
'Oleksii, O.Ya.'
'Fedyna, M.F.'
_publ_section_title
;
 Er(Tm)-Fe-Ge system
;
_journal_name_full
;
Inorganic Materials (USSR) (see: Izv.Akad.Nauk, Neorg.Mater.)
;
_journal_page_first              371
_journal_page_last               374
_journal_volume                  28
_journal_year                    1992
_chemical_formula_sum            'Fe2 Ge2 Tm'
_chemical_name_systematic        'Fe2 Tm Ge2'
_space_group_IT_number           139
_symmetry_space_group_name_Hall  '-I 4 2'
_symmetry_space_group_name_H-M   'I 4/m m m'
_cell_angle_alpha                90
_cell_angle_beta                 90
_cell_angle_gamma                90
_cell_formula_units_Z            2
_cell_length_a                   3.9301
_cell_length_b                   3.9301
_cell_length_c                   10.4184
_cell_volume                     160.919
_citation_journal_id_ASTM        INOMAF
_cod_data_source_file            Bodak_INOMAF_1992_691.cif
_cod_data_source_block           Fe2Ge2Tm1
_cod_original_cell_volume        160.9193
_cod_original_formula_sum        'Fe2 Ge2 Tm1'
_cod_database_code               1539812
loop_
_symmetry_equiv_pos_as_xyz
x,y,z
-y,x,z
-x,-y,z
y,-x,z
x,-y,-z
y,x,-z
-x,y,-z
-y,-x,-z
-x,-y,-z
y,-x,-z
x,y,-z
-y,x,-z
-x,y,z
-y,-x,z
x,-y,z
y,x,z
x+1/2,y+1/2,z+1/2
-y+1/2,x+1/2,z+1/2
-x+1/2,-y+1/2,z+1/2
y+1/2,-x+1/2,z+1/2
x+1/2,-y+1/2,-z+1/2
y+1/2,x+1/2,-z+1/2
-x+1/2,y+1/2,-z+1/2
-y+1/2,-x+1/2,-z+1/2
-x+1/2,-y+1/2,-z+1/2
y+1/2,-x+1/2,-z+1/2
x+1/2,y+1/2,-z+1/2
-y+1/2,x+1/2,-z+1/2
-x+1/2,y+1/2,z+1/2
-y+1/2,-x+1/2,z+1/2
x+1/2,-y+1/2,z+1/2
y+1/2,x+1/2,z+1/2
loop_
_atom_site_label
_atom_site_type_symbol
_atom_site_fract_x
_atom_site_fract_y
_atom_site_fract_z
_atom_site_occupancy
_atom_site_U_iso_or_equiv
Ge1 Ge 0 0 0.375 1 0.0
Tm1 Tm 0 0 0 1 0.0
Fe1 Fe 0 0.5 0.25 1 0.0
