#------------------------------------------------------------------------------
#$Date: 2018-09-27 07:13:35 +0300 (Thu, 27 Sep 2018) $
#$Revision: 211196 $
#$URL: file:///home/coder/svn-repositories/cod/cif/1/53/90/1539057.cif $
#------------------------------------------------------------------------------
#
# This file is available in the Crystallography Open Database (COD),
# http://www.crystallography.net/
#
# All data on this site have been placed in the public domain by the
# contributors.
#
data_1539057
loop_
_publ_author_name
'Rossi, D.'
'Marazza, R.'
'Mazzone, D.'
'Ferro, R.'
_publ_section_title
;
 Lattice parameters of R Mn2 i2 and R Mn2 Ge2 compounds
;
_journal_name_full               'Journal of the Less-Common Metals'
_journal_page_first              79
_journal_page_last               83
_journal_volume                  59
_journal_year                    1978
_chemical_formula_sum            'La Mn2 Si2'
_space_group_IT_number           139
_symmetry_space_group_name_Hall  '-I 4 2'
_symmetry_space_group_name_H-M   'I 4/m m m'
_cell_angle_alpha                90
_cell_angle_beta                 90
_cell_angle_gamma                90
_cell_formula_units_Z            2
_cell_length_a                   4.108
_cell_length_b                   4.108
_cell_length_c                   10.685
_cell_volume                     180.316
_citation_journal_id_ASTM        JCOMAH
_cod_data_source_file            Rossi_JCOMAH_1978_393.cif
_cod_data_source_block           La1Mn2Si2
_cod_original_cell_volume        180.3165
_cod_original_formula_sum        'La1 Mn2 Si2'
_cod_database_code               1539057
loop_
_symmetry_equiv_pos_as_xyz
x,y,z
-y,x,z
-x,-y,z
y,-x,z
x,-y,-z
y,x,-z
-x,y,-z
-y,-x,-z
-x,-y,-z
y,-x,-z
x,y,-z
-y,x,-z
-x,y,z
-y,-x,z
x,-y,z
y,x,z
x+1/2,y+1/2,z+1/2
-y+1/2,x+1/2,z+1/2
-x+1/2,-y+1/2,z+1/2
y+1/2,-x+1/2,z+1/2
x+1/2,-y+1/2,-z+1/2
y+1/2,x+1/2,-z+1/2
-x+1/2,y+1/2,-z+1/2
-y+1/2,-x+1/2,-z+1/2
-x+1/2,-y+1/2,-z+1/2
y+1/2,-x+1/2,-z+1/2
x+1/2,y+1/2,-z+1/2
-y+1/2,x+1/2,-z+1/2
-x+1/2,y+1/2,z+1/2
-y+1/2,-x+1/2,z+1/2
x+1/2,-y+1/2,z+1/2
y+1/2,x+1/2,z+1/2
loop_
_atom_site_label
_atom_site_type_symbol
_atom_site_fract_x
_atom_site_fract_y
_atom_site_fract_z
_atom_site_occupancy
_atom_site_U_iso_or_equiv
Mn1 Mn 0 0.5 0.25 1 0.0
Si1 Si 0 0 0.381 1 0.0
La1 La 0 0 0 1 0.0
