#------------------------------------------------------------------------------
#$Date: 2016-02-13 14:50:18 +0200 (Sat, 13 Feb 2016) $
#$Revision: 176428 $
#$URL: svn://www.crystallography.net/cod/cif/1/53/99/1539936.cif $
#------------------------------------------------------------------------------
#
# This file is available in the Crystallography Open Database (COD),
# http://www.crystallography.net/
#
# All data on this site have been placed in the public domain by the
# contributors.
#
data_1539936
loop_
_publ_author_name
'Weiss, J.'
_publ_section_title
;
 Die Kristall- und Molekelstruktur von Hexaschefeldiimid, S6 (N H)2 und
 Heptaschwefelimid, S7 N H
;
_journal_name_full
'Zeitschrift fuer Anorganische und Allgemeine Chemie'
_journal_page_first              190
_journal_page_last               197
_journal_volume                  305
_journal_year                    1960
_chemical_formula_sum            'H2 N2 S6'
_chemical_name_systematic        'S6 (N H)2'
_space_group_IT_number           62
_symmetry_space_group_name_Hall  '-P 2c 2ab'
_symmetry_space_group_name_H-M   'P b n m'
_cell_angle_alpha                90
_cell_angle_beta                 90
_cell_angle_gamma                90
_cell_formula_units_Z            4
_cell_length_a                   7.386
_cell_length_b                   7.864
_cell_length_c                   12.828
_cell_volume                     745.095
_citation_journal_id_ASTM        ZAACAB
_cod_data_source_file            Weiss_ZAACAB_1960_880.cif
_cod_data_source_block           H2N2S6
_cod_original_cell_volume        745.0952
_cod_original_sg_symbol_Hall     '-P 2ac 2n (z,x,y)'
_cod_database_code               1539936
loop_
_symmetry_equiv_pos_as_xyz
x,y,z
x+1/2,-y+1/2,-z
-x+1/2,y+1/2,-z+1/2
-x,-y,z+1/2
-x,-y,-z
-x-1/2,y-1/2,z
x-1/2,-y-1/2,z-1/2
x,y,-z-1/2
loop_
_atom_site_label
_atom_site_type_symbol
_atom_site_fract_x
_atom_site_fract_y
_atom_site_fract_z
_atom_site_occupancy
_atom_site_U_iso_or_equiv
N2 N 0.769 0.093 0.25 1 0.0
N1 N 0.174 0.215 0.25 1 0.0
S2 S 0.487 0.204 0.095 1 0.0
S1 S 0.235 0.129 0.141 1 0.0
S3 S 0.673 0.025 0.138 1 0.0
