#------------------------------------------------------------------------------
#$Date: 2016-02-13 21:28:24 +0200 (Sat, 13 Feb 2016) $
#$Revision: 176429 $
#$URL: svn://www.crystallography.net/cod/cif/1/53/90/1539077.cif $
#------------------------------------------------------------------------------
#
# This file is available in the Crystallography Open Database (COD),
# http://www.crystallography.net/
#
# All data on this site have been placed in the public domain by the
# contributors.
#
data_1539077
loop_
_publ_author_name
'Rustamov, P.G.'
'Maksudova, T.F.'
'Aliev, O.M.'
_publ_section_title
;
 Phase equilibria in the Yb-Sb-Te system over the cross section Yb Te -
 Sb2 Te3
;
_journal_name_full
;
Inorganic Materials (USSR) (see: Izv.Akad.Nauk, Neorg.Mater.)
;
_journal_page_first              692
_journal_page_last               695
_journal_volume                  17
_journal_year                    1981
_chemical_formula_sum            'Sb2 Te4 Yb'
_chemical_name_systematic        'Sb2 Yb Te4'
_space_group_IT_number           220
_symmetry_space_group_name_Hall  'I -4bd 2c 3'
_symmetry_space_group_name_H-M   'I -4 3 d'
_cell_angle_alpha                90
_cell_angle_beta                 90
_cell_angle_gamma                90
_cell_formula_units_Z            4
_cell_length_a                   10.4
_cell_length_b                   10.4
_cell_length_c                   10.4
_cell_volume                     1124.864
_citation_journal_id_ASTM        INOMAF
_cod_data_source_file            Rustamov_INOMAF_1981_1864.cif
_cod_data_source_block           Sb2Te4Yb1
_cod_original_formula_sum        'Sb2 Te4 Yb1'
_cod_database_code               1539077
loop_
_symmetry_equiv_pos_as_xyz
x,y,z
y+1/4,-x+3/4,-z+1/4
-x,-y+1/2,z
-y+3/4,x+3/4,-z+1/4
x,-y,-z+1/2
-y+1/4,-x+3/4,z+3/4
-x,y+1/2,-z+1/2
y+3/4,x+3/4,z+3/4
z,x,y
x+1/4,-z+3/4,-y+1/4
-z,-x+1/2,y
-x+3/4,z+3/4,-y+1/4
z,-x,-y+1/2
-x+1/4,-z+3/4,y+3/4
-z,x+1/2,-y+1/2
x+3/4,z+3/4,y+3/4
y,z,x
y,-z,-x+1/2
-z+1/4,-y+3/4,x+3/4
-y,z+1/2,-x+1/2
z+1/4,y+1/4,x+1/4
-y+1/2,-z,x+1/2
-z+1/4,y+1/4,-x+3/4
z+3/4,-y+1/4,-x+3/4
x+1/2,y+1/2,z+1/2
y+3/4,-x+5/4,-z+3/4
-x+1/2,-y+1,z+1/2
-y+5/4,x+5/4,-z+3/4
x+1/2,-y+1/2,-z+1
-y+3/4,-x+5/4,z+5/4
-x+1/2,y+1,-z+1
y+5/4,x+5/4,z+5/4
z+1/2,x+1/2,y+1/2
x+3/4,-z+5/4,-y+3/4
-z+1/2,-x+1,y+1/2
-x+5/4,z+5/4,-y+3/4
z+1/2,-x+1/2,-y+1
-x+3/4,-z+5/4,y+5/4
-z+1/2,x+1,-y+1
x+5/4,z+5/4,y+5/4
y+1/2,z+1/2,x+1/2
y+1/2,-z+1/2,-x+1
-z+3/4,-y+5/4,x+5/4
-y+1/2,z+1,-x+1
z+3/4,y+3/4,x+3/4
-y+1,-z+1/2,x+1
-z+3/4,y+3/4,-x+5/4
z+5/4,-y+3/4,-x+5/4
loop_
_atom_site_label
_atom_site_type_symbol
_atom_site_fract_x
_atom_site_fract_y
_atom_site_fract_z
_atom_site_occupancy
_atom_site_U_iso_or_equiv
Te1 Te-2 0.083 0.083 0.083 1 0.0
Sb1 Sb+3 0.375 0 0.25 0.667 0.0
Yb1 Yb+2 0.375 0 0.25 0.333 0.0
