#------------------------------------------------------------------------------
#$Date: 2016-02-13 21:28:24 +0200 (Sat, 13 Feb 2016) $
#$Revision: 176429 $
#$URL: svn://www.crystallography.net/cod/cif/1/53/99/1539917.cif $
#------------------------------------------------------------------------------
#
# This file is available in the Crystallography Open Database (COD),
# http://www.crystallography.net/
#
# All data on this site have been placed in the public domain by the
# contributors.
#
data_1539917
loop_
_publ_author_name
'Burlet, P.'
'Bourdarot, F.'
'Rossat-Mignod, J.'
'Quezel, S.'
'Lejay, P.'
'Chevalier, B.'
'Hickey, H.'
_publ_section_title
;
 Magnetic phase diagram of the U (Rh1-x Rux) Si2 system
;
_journal_name_full               'Journal of Magnetism and Magnetic Materials'
_journal_page_first              202
_journal_page_last               204
_journal_volume                  108
_journal_year                    1992
_chemical_formula_sum            'Rh Ru Si2 U'
_chemical_name_systematic        '(Rh Ru) U Si2'
_space_group_IT_number           139
_symmetry_space_group_name_Hall  '-I 4 2'
_symmetry_space_group_name_H-M   'I 4/m m m'
_cell_angle_alpha                90
_cell_angle_beta                 90
_cell_angle_gamma                90
_cell_formula_units_Z            2
_cell_length_a                   4.07
_cell_length_b                   4.07
_cell_length_c                   9.81
_cell_volume                     162.502
_citation_journal_id_ASTM        JMMMDC
_cod_data_source_file            Burlet_JMMMDC_1992_808.cif
_cod_data_source_block           Rh1Ru1Si2U1
_cod_original_cell_volume        162.5017
_cod_original_formula_sum        'Rh1 Ru1 Si2 U1'
_cod_database_code               1539917
loop_
_symmetry_equiv_pos_as_xyz
x,y,z
-y,x,z
-x,-y,z
y,-x,z
x,-y,-z
y,x,-z
-x,y,-z
-y,-x,-z
-x,-y,-z
y,-x,-z
x,y,-z
-y,x,-z
-x,y,z
-y,-x,z
x,-y,z
y,x,z
x+1/2,y+1/2,z+1/2
-y+1/2,x+1/2,z+1/2
-x+1/2,-y+1/2,z+1/2
y+1/2,-x+1/2,z+1/2
x+1/2,-y+1/2,-z+1/2
y+1/2,x+1/2,-z+1/2
-x+1/2,y+1/2,-z+1/2
-y+1/2,-x+1/2,-z+1/2
-x+1/2,-y+1/2,-z+1/2
y+1/2,-x+1/2,-z+1/2
x+1/2,y+1/2,-z+1/2
-y+1/2,x+1/2,-z+1/2
-x+1/2,y+1/2,z+1/2
-y+1/2,-x+1/2,z+1/2
x+1/2,-y+1/2,z+1/2
y+1/2,x+1/2,z+1/2
loop_
_atom_site_label
_atom_site_type_symbol
_atom_site_fract_x
_atom_site_fract_y
_atom_site_fract_z
_atom_site_occupancy
_atom_site_U_iso_or_equiv
Si1 Si 0 0 0.377 1 0.0
Ru1 Ru 0 0.5 0.25 0.5 0.0
U1 U 0 0 0 1 0.0
Rh1 Rh 0 0.5 0.25 0.5 0.0
