#------------------------------------------------------------------------------
#$Date: 2016-08-07 12:27:32 +0300 (Sun, 07 Aug 2016) $
#$Revision: 185552 $
#$URL: file:///home/coder/svn-repositories/cod/cif/1/54/05/1540587.cif $
#------------------------------------------------------------------------------
#
# This file is available in the Crystallography Open Database (COD),
# http://www.crystallography.net/
#
# All data on this site have been placed in the public domain by the
# contributors.
#
data_1540587
loop_
_publ_author_name
'Svengren, H.'
'Torapava, N.'
'Athanassiadis, I.'
'Ali, S. I.'
'Johnsson, M.'
_publ_section_title
;
 A transition metal oxofluoride offering advantages in electrocatalysis
 and potential use in applications.
;
_journal_name_full               'Faraday discussions'
_journal_page_first              481
_journal_page_last               498
_journal_paper_doi               10.1039/c5fd00169b
_journal_volume                  188
_journal_year                    2016
_chemical_formula_moiety         'Co2.581 F6 Mn0.419 O6 Sb4'
_chemical_formula_structural     'Co2.581 F6 Mn0.419 O6 Sb4'
_chemical_formula_sum            'Co2.581 F6 Mn0.419 O6 Sb4'
_chemical_formula_weight         872.1
_chemical_name_systematic        ' ?'
_space_group_IT_number           217
_symmetry_cell_setting           cubic
_symmetry_Int_Tables_number      217
_symmetry_space_group_name_Hall  'I -4 2 3'
_symmetry_space_group_name_H-M   'I -4 3 m'
_cell_angle_alpha                90
_cell_angle_beta                 90
_cell_angle_gamma                90
_cell_formula_units_Z            2
_cell_length_a                   8.18090(10)
_cell_length_b                   8.18090(10)
_cell_length_c                   8.18090(10)
_cell_measurement_temperature    293
_cell_volume                     547.524(12)
_diffrn_ambient_temperature      293
_diffrn_detector                 Photon100
_diffrn_measured_fraction_theta_full 1
_diffrn_measured_fraction_theta_max 1
_diffrn_measurement_device       '\k-geometry diffractometer'
_diffrn_radiation_probe          x-ray
_diffrn_radiation_source         'X-ray tube'
_diffrn_radiation_type           'Mo K\a'
_diffrn_radiation_wavelength     0.71069
_diffrn_reflns_av_R_equivalents  0.0242
_diffrn_reflns_av_unetI/netI     0.0143
_diffrn_reflns_limit_h_max       14
_diffrn_reflns_limit_h_min       -8
_diffrn_reflns_limit_k_max       18
_diffrn_reflns_limit_k_min       -13
_diffrn_reflns_limit_l_max       19
_diffrn_reflns_limit_l_min       -19
_diffrn_reflns_number            5268
_diffrn_reflns_theta_full        57.62
_diffrn_reflns_theta_max         57.62
_diffrn_reflns_theta_min         3.52
_exptl_absorpt_coefficient_mu    14.1
_exptl_absorpt_correction_T_max  0.7513
_exptl_absorpt_correction_T_min  0.5855
_exptl_absorpt_correction_type   multi-scan
_exptl_absorpt_process_details   'Numerical absorption correction'
_exptl_crystal_colour            Pink
_exptl_crystal_density_diffrn    5.2899
_exptl_crystal_description       Cubic-shaped
_exptl_crystal_F_000             772
_exptl_crystal_size_max          0.5
_exptl_crystal_size_mid          0.5
_exptl_crystal_size_min          0.5
_refine_diff_density_max         1.83
_refine_diff_density_min         -1.22
_refine_ls_abs_structure_details
'  337 of Friedel pairs used in the refinement'
_refine_ls_extinction_method     none
_refine_ls_goodness_of_fit_gt    1.99
_refine_ls_goodness_of_fit_ref   1.98
_refine_ls_number_constraints    3
_refine_ls_number_parameters     13
_refine_ls_number_reflns         759
_refine_ls_number_restraints     0
_refine_ls_R_factor_all          0.0232
_refine_ls_R_factor_gt           0.0228
_refine_ls_shift/su_max          0.0006
_refine_ls_shift/su_mean         0.0001
_refine_ls_structure_factor_coef F
_refine_ls_weighting_details     w=1/(\s^2^(F)+0.0001F^2^)
_refine_ls_weighting_scheme      sigma
_refine_ls_wR_factor_gt          0.0293
_refine_ls_wR_factor_ref         0.0294
_reflns_number_gt                750
_reflns_number_total             759
_reflns_threshold_expression     I>3\s(I)
_cod_data_source_file            c5fd00169b2.cif
_cod_data_source_block           I
_cod_depositor_comments
;
The following automatic conversions were performed:

'_diffrn_radiation_probe' value 'X-ray' changed to 'x-ray' according
to
/usr/data/users/saulius/crontab/automatic-downloads/rss-feeds/RSC/lib/dictionaries/cif_core.dic
dictionary named 'cif_core.dic' version 2.4.2 from 2011-04-26.

'_exptl_absorpt_correction_type' value 'Multi-scan' changed to
'multi-scan' according to
/usr/data/users/saulius/crontab/automatic-downloads/rss-feeds/RSC/lib/dictionaries/cif_core.dic
dictionary named 'cif_core.dic' version 2.4.2 from 2011-04-26.

Automatic conversion script
Id: cif_fix_values 4268 2015-11-12 08:31:59Z antanas 

 Adding full bibliography for 1540587.cif.
;
_cod_database_code               1540587
loop_
_space_group_symop_id
_space_group_symop_operation_xyz
1 x,y,z
2 -x,-y,z
3 -x,y,-z
4 x,-y,-z
5 z,x,y
6 z,-x,-y
7 -z,-x,y
8 -z,x,-y
9 y,z,x
10 -y,z,-x
11 y,-z,-x
12 -y,-z,x
13 y,x,z
14 -y,-x,z
15 y,-x,-z
16 -y,x,-z
17 x,z,y
18 -x,z,-y
19 -x,-z,y
20 x,-z,-y
21 z,y,x
22 z,-y,-x
23 -z,y,-x
24 -z,-y,x
25 x+1/2,y+1/2,z+1/2
26 -x+1/2,-y+1/2,z+1/2
27 -x+1/2,y+1/2,-z+1/2
28 x+1/2,-y+1/2,-z+1/2
29 z+1/2,x+1/2,y+1/2
30 z+1/2,-x+1/2,-y+1/2
31 -z+1/2,-x+1/2,y+1/2
32 -z+1/2,x+1/2,-y+1/2
33 y+1/2,z+1/2,x+1/2
34 -y+1/2,z+1/2,-x+1/2
35 y+1/2,-z+1/2,-x+1/2
36 -y+1/2,-z+1/2,x+1/2
37 y+1/2,x+1/2,z+1/2
38 -y+1/2,-x+1/2,z+1/2
39 y+1/2,-x+1/2,-z+1/2
40 -y+1/2,x+1/2,-z+1/2
41 x+1/2,z+1/2,y+1/2
42 -x+1/2,z+1/2,-y+1/2
43 -x+1/2,-z+1/2,y+1/2
44 x+1/2,-z+1/2,-y+1/2
45 z+1/2,y+1/2,x+1/2
46 z+1/2,-y+1/2,-x+1/2
47 -z+1/2,y+1/2,-x+1/2
48 -z+1/2,-y+1/2,x+1/2
loop_
_atom_site_label
_atom_site_type_symbol
_atom_site_fract_x
_atom_site_fract_y
_atom_site_fract_z
_atom_site_adp_type
_atom_site_U_iso_or_equiv
_atom_site_site_symmetry_multiplicity
_atom_site_occupancy
_atom_site_calc_flag
Sb Sb 0.840614(13) 0.159386(13) 0.159386(13) Uani 0.00932(2) 8 1 d
Co Co 0.5 0 0 Uani 0.00647(6) 6 0.86(4) d
F F 0.5 0 0.25 Uani 0.0290(6) 12 1 d
O O 0.7532(3) 0 0 Uani 0.0134(3) 12 1 d
Mn Mn 0.5 0 0 Uani 0.00647(6) 6 0.14(4) d
loop_
_atom_site_aniso_label
_atom_site_aniso_type_symbol
_atom_site_aniso_U_11
_atom_site_aniso_U_22
_atom_site_aniso_U_33
_atom_site_aniso_U_12
_atom_site_aniso_U_13
_atom_site_aniso_U_23
Sb Sb 0.00932(4) 0.00932(4) 0.00932(4) 0.00141(3) 0.00141(3) -0.00141(3)
Co Co 0.00575(13) 0.00683(9) 0.00683(9) 0 0 0
F F 0.0395(11) 0.0395(11) 0.0079(7) 0 0 0
O O 0.0067(5) 0.0168(5) 0.0168(5) 0 0 -0.0063(7)
Mn Mn 0.00575(13) 0.00683(9) 0.00683(9) 0 0 0
loop_
_atom_type_symbol
_atom_type_scat_dispersion_real
_atom_type_scat_dispersion_imag
_atom_type_scat_source
Co 0.3494 0.9721 'International Tables Vol C tables 4.2.6.8 and 6.1.1.1'
F 0.0171 0.0103 'International Tables Vol C tables 4.2.6.8 and 6.1.1.1'
Mn 0.3368 0.7283 'International Tables Vol C tables 4.2.6.8 and 6.1.1.1'
O 0.0106 0.0060 'International Tables Vol C tables 4.2.6.8 and 6.1.1.1'
Sb -0.5866 1.5461 'International Tables Vol C tables 4.2.6.8 and 6.1.1.1'
loop_
_geom_angle_atom_site_label_1
_geom_angle_atom_site_label_2
_geom_angle_atom_site_label_3
_geom_angle_site_symmetry_1
_geom_angle_site_symmetry_3
_geom_angle
Co Sb Co . 5_655 119.905(3)
Co Sb Co . 9_655 119.905(3)
Co Sb O . . 35.30(6)
Co Sb O . 6_665 115.700(17)
Co Sb O . 10_656 115.700(17)
Co Sb Mn . . 0.0(5)
Co Sb Mn . 5_655 119.905(3)
Co Sb Mn . 9_655 119.905(3)
Co Sb Co 5_655 9_655 119.905(3)
Co Sb O 5_655 . 115.700(17)
Co Sb O 5_655 6_665 35.30(6)
Co Sb O 5_655 10_656 115.700(17)
Co Sb Mn 5_655 . 119.905(3)
Co Sb Mn 5_655 5_655 0.0(5)
Co Sb Mn 5_655 9_655 119.905(3)
Co Sb O 9_655 . 115.700(17)
Co Sb O 9_655 6_665 115.700(17)
Co Sb O 9_655 10_656 35.30(6)
Co Sb Mn 9_655 . 119.905(3)
Co Sb Mn 9_655 5_655 119.905(3)
Co Sb Mn 9_655 9_655 0.0(5)
O Sb O . 6_665 92.43(6)
O Sb O . 10_656 92.43(6)
O Sb Mn . . 35.30(6)
O Sb Mn . 5_655 115.700(17)
O Sb Mn . 9_655 115.700(17)
O Sb O 6_665 10_656 92.43(6)
O Sb Mn 6_665 . 115.700(17)
O Sb Mn 6_665 5_655 35.30(6)
O Sb Mn 6_665 9_655 115.700(17)
O Sb Mn 10_656 . 115.700(17)
O Sb Mn 10_656 5_655 115.700(17)
O Sb Mn 10_656 9_655 35.30(6)
Mn Sb Mn . 5_655 119.905(3)
Mn Sb Mn . 9_655 119.905(3)
Mn Sb Mn 5_655 9_655 119.905(3)
Sb Co Sb . 2_655 134.063(3)
Sb Co Sb . 3_655 134.063(3)
Sb Co Sb . 4_555 66.990(3)
Sb Co F . . 67.0313(19)
Sb Co F . 3_655 112.9687(19)
Sb Co F . 33_544 112.9687(19)
Sb Co F . 35_555 67.0313(19)
Sb Co O . . 33.4951(19)
Sb Co O . 2_655 146.5049(19)
Sb Co Mn . . 0
Sb Co Sb 2_655 3_655 66.990(3)
Sb Co Sb 2_655 4_555 134.063(3)
Sb Co F 2_655 . 67.0313(19)
Sb Co F 2_655 3_655 112.9687(19)
Sb Co F 2_655 33_544 67.0313(19)
Sb Co F 2_655 35_555 112.9687(19)
Sb Co O 2_655 . 146.5049(19)
Sb Co O 2_655 2_655 33.4951(19)
Sb Co Mn 2_655 . 0
Sb Co Sb 3_655 4_555 134.063(3)
Sb Co F 3_655 . 112.9687(19)
Sb Co F 3_655 3_655 67.0313(19)
Sb Co F 3_655 33_544 112.9687(19)
Sb Co F 3_655 35_555 67.0313(19)
Sb Co O 3_655 . 146.5049(19)
Sb Co O 3_655 2_655 33.4951(19)
Sb Co Mn 3_655 . 0
Sb Co F 4_555 . 112.9687(19)
Sb Co F 4_555 3_655 67.0313(19)
Sb Co F 4_555 33_544 67.0313(19)
Sb Co F 4_555 35_555 112.9687(19)
Sb Co O 4_555 . 33.4951(19)
Sb Co O 4_555 2_655 146.5049(19)
Sb Co Mn 4_555 . 0
F Co F . 3_655 180.0(5)
F Co F . 33_544 90
F Co F . 35_555 90
F Co O . . 90
F Co O . 2_655 90
F Co Mn . . 0
F Co F 3_655 33_544 90
F Co F 3_655 35_555 90
F Co O 3_655 . 90
F Co O 3_655 2_655 90
F Co Mn 3_655 . 0
F Co F 33_544 35_555 180.0(5)
F Co O 33_544 . 90
F Co O 33_544 2_655 90
F Co Mn 33_544 . 0
F Co O 35_555 . 90
F Co O 35_555 2_655 90
F Co Mn 35_555 . 0
O Co O . 2_655 180.0(5)
O Co Mn . . 0
O Co Mn 2_655 . 0
Co F Co . 29_545 180.0(5)
Co F Mn . . 0.0(5)
Co F Mn . 29_545 180.0(5)
Co F Mn 29_545 . 180.0(5)
Co F Mn 29_545 29_545 0.0(5)
Mn F Mn . 29_545 180.0(5)
Sb O Sb . 4_555 137.59(12)
Sb O Co . . 111.21(6)
Sb O Mn . . 111.21(6)
Sb O Co 4_555 . 111.21(6)
Sb O Mn 4_555 . 111.21(6)
Co O Mn . . 0.0(5)
Sb Mn Sb . 2_655 134.063(3)
Sb Mn Sb . 3_655 134.063(3)
Sb Mn Sb . 4_555 66.990(3)
Sb Mn Co . . 0
Sb Mn F . . 67.0313(19)
Sb Mn F . 3_655 112.9687(19)
Sb Mn F . 33_544 112.9687(19)
Sb Mn F . 35_555 67.0313(19)
Sb Mn O . . 33.4951(19)
Sb Mn O . 2_655 146.5049(19)
Sb Mn Sb 2_655 3_655 66.990(3)
Sb Mn Sb 2_655 4_555 134.063(3)
Sb Mn Co 2_655 . 0
Sb Mn F 2_655 . 67.0313(19)
Sb Mn F 2_655 3_655 112.9687(19)
Sb Mn F 2_655 33_544 67.0313(19)
Sb Mn F 2_655 35_555 112.9687(19)
Sb Mn O 2_655 . 146.5049(19)
Sb Mn O 2_655 2_655 33.4951(19)
Sb Mn Sb 3_655 4_555 134.063(3)
Sb Mn Co 3_655 . 0
Sb Mn F 3_655 . 112.9687(19)
Sb Mn F 3_655 3_655 67.0313(19)
Sb Mn F 3_655 33_544 112.9687(19)
Sb Mn F 3_655 35_555 67.0313(19)
Sb Mn O 3_655 . 146.5049(19)
Sb Mn O 3_655 2_655 33.4951(19)
Sb Mn Co 4_555 . 0
Sb Mn F 4_555 . 112.9687(19)
Sb Mn F 4_555 3_655 67.0313(19)
Sb Mn F 4_555 33_544 67.0313(19)
Sb Mn F 4_555 35_555 112.9687(19)
Sb Mn O 4_555 . 33.4951(19)
Sb Mn O 4_555 2_655 146.5049(19)
Co Mn F . . 0
Co Mn F . 3_655 0
Co Mn F . 33_544 0
Co Mn F . 35_555 0
Co Mn O . . 0
Co Mn O . 2_655 0
F Mn F . 3_655 180.0(5)
F Mn F . 33_544 90
F Mn F . 35_555 90
F Mn O . . 90
F Mn O . 2_655 90
F Mn F 3_655 33_544 90
F Mn F 3_655 35_555 90
F Mn O 3_655 . 90
F Mn O 3_655 2_655 90
F Mn F 33_544 35_555 180.0(5)
F Mn O 33_544 . 90
F Mn O 33_544 2_655 90
F Mn O 35_555 . 90
F Mn O 35_555 2_655 90
O Mn O . 2_655 180.0(5)
loop_
_geom_bond_atom_site_label_1
_geom_bond_atom_site_label_2
_geom_bond_site_symmetry_2
_geom_bond_distance
Sb Co . 3.34143(12)
Sb Co 5_655 3.34143(12)
Sb Co 9_655 3.34143(12)
Sb O . 1.9780(8)
Sb O 6_665 1.9780(8)
Sb O 10_656 1.9780(8)
Sb Mn . 3.34143(12)
Sb Mn 5_655 3.34143(12)
Sb Mn 9_655 3.34143(12)
Co F . 2.04522(5)
Co F 3_655 2.04522(5)
Co F 33_544 2.04522(5)
Co F 35_555 2.04522(5)
Co O . 2.071(2)
Co O 2_655 2.071(2)
Co Mn . 0
F Mn . 2.04522(5)
F Mn 29_545 2.04522(5)
O Mn . 2.071(2)
loop_
_refln_index_h
_refln_index_k
_refln_index_l
_refln_F_squared_calc
_refln_F_squared_meas
_refln_F_squared_sigma
_refln_observed_status
0 1 1 3209.84 3132.88 38.87 o
0 0 2 2410.21 2830.19 50.64 o
1 1 2 55197.40 58239.80 594.78 o
-1 1 2 55542.60 57886.40 739.64 o
0 2 2 18363.70 19142.40 212.00 o
2 2 2 56456.70 56495.50 1038.80 o
-2 2 2 51173.40 57920.60 1030.55 o
0 1 3 46288.20 48863.50 386.31 o
1 2 3 1790.91 1817.31 25.91 o
-1 2 3 1830.93 1807.88 22.38 o
0 3 3 55726.00 60680.10 644.24 o
2 3 3 21123.10 21579.20 227.31 o
-2 3 3 21143.10 22440.10 244.98 o
0 0 4 1935.14 2652.35 61.24 o
1 1 4 31667.00 33205.00 334.49 o
-1 1 4 31562.60 34000.00 398.09 o
0 2 4 48442.10 52050.60 453.44 o
2 2 4 28416.80 30812.90 336.84 o
-2 2 4 29774.60 30724.60 334.49 o
1 3 4 3347.81 3407.30 41.22 o
-1 3 4 3334.43 3475.61 37.69 o
3 3 4 33300.30 34153.10 342.73 o
-3 3 4 33336.40 35115.30 420.46 o
0 4 4 72611.10 74839.30 1156.57 o
2 4 4 19726.80 19794.90 441.67 o
-2 4 4 19856.40 19980.90 313.29 o
4 4 4 14500.30 14710.40 335.67 o
-4 4 4 13864.00 15043.70 339.20 o
0 1 5 75.72 138.98 10.60 o
1 2 5 34416.50 35817.30 256.76 o
-1 2 5 34130.50 36208.30 263.82 o
0 3 5 9379.58 9276.15 106.00 o
2 3 5 672.91 703.13 15.31 o
-2 3 5 639.09 700.78 16.49 o
1 4 5 19954.60 20900.80 206.11 o
-1 4 5 20142.40 20433.20 206.11 o
3 4 5 651.98 686.64 9.42 o
-3 4 5 682.71 685.47 11.78 o
0 5 5 95.14 138.98 9.42 o
2 5 5 26314.80 28866.10 310.93 o
-2 5 5 26558.90 27428.00 312.11 o
4 5 5 16426.20 16388.70 166.07 o
-4 5 5 16168.30 16801.00 219.07 o
0 0 6 106219.00 117777.00 2579.33 o
1 1 6 3469.95 3351.95 48.29 o
-1 1 6 3392.49 3359.01 58.89 o
0 2 6 872.09 884.51 17.67 o
2 2 6 4798.93 5317.65 88.33 o
-2 2 6 5532.37 5031.45 87.16 o
1 3 6 17522.50 18147.10 164.89 o
-1 3 6 17504.20 18031.70 181.38 o
3 3 6 25260.40 26275.00 334.49 o
-3 3 6 25225.90 25922.80 334.49 o
0 4 6 1294.83 1281.42 17.67 o
2 4 6 12773.90 12962.60 110.71 o
-2 4 6 12482.60 12962.60 111.89 o
4 4 6 22254.90 22864.10 207.29 o
-4 4 6 22309.10 22615.60 362.75 o
1 5 6 1457.29 1481.64 17.67 o
-1 5 6 1521.68 1516.97 20.02 o
3 5 6 4486.22 4469.65 32.98 o
-3 5 6 4494.95 4483.79 43.58 o
5 5 6 1488.09 1448.66 21.20 o
-5 5 6 1427.03 1407.44 35.33 o
0 6 6 40818.60 42843.90 386.31 o
2 6 6 1524.15 1502.84 20.02 o
-2 6 6 1441.37 1531.11 23.56 o
4 6 6 2267.26 2224.82 24.73 o
-4 6 6 2313.79 2197.73 36.51 o
6 6 6 19882.00 19873.80 320.36 o
-6 6 6 19888.40 19939.70 459.33 o
0 1 7 2953.69 3025.70 34.16 o
1 2 7 13288.80 13639.80 124.84 o
-1 2 7 13378.30 13434.90 153.11 o
0 3 7 26757.80 27282.00 247.33 o
2 3 7 1314.28 1386.24 15.31 o
-2 3 7 1324.77 1390.95 18.84 o
1 4 7 9853.74 9703.68 78.91 o
-1 4 7 9737.18 9548.22 78.91 o
3 4 7 3421.46 3452.06 24.73 o
-3 4 7 3389.45 3462.66 35.33 o
0 5 7 375.79 465.22 9.42 o
2 5 7 10360.20 10330.30 73.02 o
-2 5 7 10259.70 10217.20 84.80 o
4 5 7 6628.65 6521.34 42.40 o
-4 5 7 6761.31 6444.78 67.13 o
1 6 7 2252.49 2208.33 21.20 o
-1 6 7 2229.48 2246.02 20.02 o
3 6 7 15304.90 15146.20 89.51 o
-3 6 7 15338.40 14925.90 116.60 o
5 6 7 745.58 773.80 11.78 o
-5 6 7 774.03 772.62 14.13 o
0 7 7 3431.62 3422.61 38.87 o
2 7 7 5642.11 5475.47 53.00 o
-2 7 7 5686.44 5468.41 57.71 o
4 7 7 4786.73 4550.92 49.47 o
-4 7 7 4738.29 4626.30 62.42 o
6 7 7 2141.84 2002.22 30.62 o
-6 7 7 2115.28 2022.24 44.76 o
0 0 8 6873.47 7202.09 168.42 o
1 1 8 16070.30 16560.70 186.09 o
-1 1 8 16208.80 16518.30 215.53 o
0 2 8 8334.27 8423.44 74.20 o
2 2 8 21890.30 22009.10 219.07 o
-2 2 8 21078.30 21726.40 219.07 o
1 3 8 369.73 455.80 8.24 o
-1 3 8 391.27 449.91 8.24 o
3 3 8 1872.73 1856.17 23.56 o
-3 3 8 1887.22 1770.19 24.73 o
0 4 8 12823.60 12926.10 94.22 o
2 4 8 15281.00 15094.40 104.82 o
-2 4 8 15405.30 15368.80 110.71 o
4 4 8 11178.50 11144.10 116.60 o
-4 4 8 11386.70 11098.20 117.78 o
1 5 8 14544.80 14325.30 100.11 o
-1 5 8 14337.90 14360.60 91.87 o
3 5 8 512.16 538.24 9.42 o
-3 5 8 484.64 537.07 11.78 o
5 5 8 12909.40 12876.60 122.49 o
-5 5 8 13137.70 12838.90 135.44 o
0 6 8 1693.10 1668.91 16.49 o
2 6 8 3460.67 3512.12 28.27 o
-2 6 8 3657.48 3538.03 27.09 o
4 6 8 5497.52 5308.23 40.04 o
-4 6 8 5428.57 5330.61 47.11 o
6 6 8 558.02 590.07 16.49 o
-6 6 8 530.84 586.53 24.73 o
1 7 8 5524.21 5409.52 42.40 o
-1 7 8 5634.63 5389.50 44.76 o
3 7 8 185.94 236.73 8.24 o
-3 7 8 207.09 265.00 10.60 o
5 7 8 5400.49 5133.92 42.40 o
-5 7 8 5264.68 5183.38 53.00 o
7 7 8 2431.83 2399.13 34.16 o
-7 7 8 2517.11 2330.82 50.64 o
0 8 8 3774.83 3799.50 48.29 o
2 8 8 13367.40 12821.30 136.62 o
-2 8 8 13152.90 12861.30 127.20 o
4 8 8 10092.80 9706.04 100.11 o
-4 8 8 10039.60 9799.08 122.49 o
6 8 8 2159.23 2230.70 31.80 o
-6 8 8 2225.54 2236.59 49.47 o
8 8 8 9153.59 8659.00 169.60 o
-8 8 8 9118.84 8841.55 233.20 o
0 1 9 8881.32 8899.26 61.24 o
1 2 9 2213.93 2262.50 18.84 o
-1 2 9 2281.80 2229.53 21.20 o
0 3 9 13950.20 13884.80 88.33 o
2 3 9 5334.94 5362.41 38.87 o
-2 3 9 5344.15 5256.41 38.87 o
1 4 9 2529.88 2402.66 22.38 o
-1 4 9 2445.61 2466.26 22.38 o
3 4 9 8910.74 8802.69 60.07 o
-3 4 9 8912.32 8598.93 63.60 o
0 5 9 2224.77 2234.24 20.02 o
2 5 9 1981.49 1923.31 18.84 o
-2 5 9 1916.88 1919.77 20.02 o
4 5 9 1336.52 1343.84 16.49 o
-4 5 9 1427.63 1339.13 18.84 o
1 6 9 5752.60 5549.67 42.40 o
-1 6 9 5721.13 5583.83 41.22 o
3 6 9 7666.24 7321.04 50.64 o
-3 6 9 7656.96 7345.78 55.36 o
5 6 9 1623.89 1641.82 18.84 o
-5 6 9 1616.43 1640.64 22.38 o
0 7 9 8835.30 8481.15 63.60 o
2 7 9 1247.77 1196.62 14.13 o
-2 7 9 1281.77 1207.22 16.49 o
4 7 9 2009.76 1879.73 21.20 o
-4 7 9 1952.25 1906.82 24.73 o
6 7 9 6364.09 6192.74 47.11 o
-6 7 9 6357.71 6206.87 63.60 o
1 8 9 1155.03 1174.24 16.49 o
-1 8 9 1229.48 1147.15 16.49 o
3 8 9 526.56 607.73 11.78 o
-3 8 9 538.32 570.04 14.13 o
5 8 9 1383.22 1284.95 17.67 o
-5 8 9 1298.53 1306.15 22.38 o
7 8 9 626.97 648.95 17.67 o
-7 8 9 679.04 670.15 25.91 o
0 9 9 5247.24 4958.43 61.24 o
2 9 9 2171.10 2184.77 34.16 o
-2 9 9 2175.10 2143.55 38.87 o
4 9 9 3705.56 3575.72 50.64 o
-4 9 9 3666.81 3500.35 55.36 o
6 9 9 2963.25 2790.15 43.58 o
-6 9 9 2984.59 2794.86 60.07 o
8 9 9 214.33 242.62 15.31 o
-8 9 9 221.49 279.13 24.73 o
0 0 10 3859.23 3784.19 58.89 o
1 1 10 5171.55 5036.16 53.00 o
-1 1 10 5074.55 5053.83 53.00 o
0 2 10 7322.21 7210.33 50.64 o
2 2 10 3494.09 3785.37 37.69 o
-2 2 10 4209.12 3675.83 38.87 o
1 3 10 1918.45 1909.17 17.67 o
-1 3 10 1905.35 1930.37 18.84 o
3 3 10 13726.60 13125.10 128.38 o
-3 3 10 13754.20 13410.10 138.98 o
0 4 10 13239.50 12963.80 101.29 o
2 4 10 2337.86 2101.15 20.02 o
-2 4 10 1996.20 2129.42 22.38 o
4 4 10 1116.34 1169.53 21.20 o
-4 4 10 1249.97 1140.09 27.09 o
1 5 10 3749.50 3667.59 32.98 o
-1 5 10 3823.86 3626.37 32.98 o
3 5 10 354.09 385.13 11.78 o
-3 5 10 367.98 395.73 12.96 o
5 5 10 3656.57 3454.41 45.93 o
-5 5 10 3568.28 3507.41 54.18 o
0 6 10 3435.88 3341.35 29.44 o
2 6 10 4076.98 3825.41 31.80 o
-2 6 10 3885.77 3760.63 32.98 o
4 6 10 7354.73 7160.87 57.71 o
-4 6 10 7463.61 7163.22 62.42 o
6 6 10 2803.50 2778.37 41.22 o
-6 6 10 2841.42 2725.37 47.11 o
1 7 10 3143.15 3018.64 25.91 o
-1 7 10 3100.61 3009.21 29.44 o
3 7 10 2186.59 2138.84 25.91 o
-3 7 10 2165.35 2104.68 25.91 o
5 7 10 1957.90 1891.51 24.73 o
-5 7 10 1986.48 1891.51 25.91 o
7 7 10 2438.78 2369.68 41.22 o
-7 7 10 2448.42 2263.68 57.71 o
0 8 10 3154.41 3044.55 29.44 o
2 8 10 2928.55 2967.99 28.27 o
-2 8 10 3229.64 2940.90 30.62 o
4 8 10 2125.28 2022.24 27.09 o
-4 8 10 1991.58 2030.48 28.27 o
6 8 10 1935.85 1816.13 24.73 o
-6 8 10 1847.83 1880.91 29.44 o
8 8 10 2695.36 2719.48 41.22 o
-8 8 10 2826.96 2752.46 61.24 o
1 9 10 1175.63 1113.00 20.02 o
-1 9 10 1156.31 1148.33 22.38 o
3 9 10 6210.92 6017.25 57.71 o
-3 9 10 6219.17 5946.58 55.36 o
5 9 10 461.08 522.93 16.49 o
-5 9 10 488.67 526.47 17.67 o
7 9 10 1176.82 1183.66 22.38 o
-7 9 10 1164.31 1157.75 25.91 o
9 9 10 3151.80 3138.77 44.76 o
-9 9 10 3114.88 3237.70 69.49 o
0 10 10 6588.35 6362.34 76.56 o
2 10 10 466.34 454.62 20.02 o
-2 10 10 309.14 418.11 23.56 o
4 10 10 179.38 273.24 18.84 o
-4 10 10 257.95 243.80 17.67 o
6 10 10 4303.05 4257.65 65.96 o
-6 10 10 4372.86 4194.05 80.09 o
8 10 10 444.08 471.11 22.38 o
-8 10 10 364.98 465.22 29.44 o
10 10 10 129.65 163.71 31.80 o
-10 10 10 152.68 184.91 41.22 o
0 1 11 154.14 175.49 7.07 o
1 2 11 8688.24 8332.75 57.71 o
-1 2 11 8617.11 8376.33 56.53 o
0 3 11 261.99 293.27 10.60 o
2 3 11 537.68 567.69 11.78 o
-2 3 11 530.68 566.51 11.78 o
1 4 11 5227.50 5113.90 44.76 o
-1 4 11 5355.29 5083.27 41.22 o
3 4 11 226.84 253.22 9.42 o
-3 4 11 251.35 255.58 9.42 o
0 5 11 273.41 303.87 10.60 o
2 5 11 8406.70 8295.06 62.42 o
-2 5 11 8481.54 8099.55 69.49 o
4 5 11 5425.43 5181.03 42.40 o
-4 5 11 5283.27 5148.05 50.64 o
1 6 11 704.59 736.11 14.13 o
-1 6 11 719.23 737.29 14.13 o
3 6 11 235.60 266.18 10.60 o
-3 6 11 242.01 261.47 10.60 o
5 6 11 844.75 804.42 22.38 o
-5 6 11 824.38 799.71 22.38 o
0 7 11 40.56 82.44 8.24 o
2 7 11 3466.17 3338.99 28.27 o
-2 7 11 3435.43 3263.61 34.16 o
4 7 11 2209.74 2144.73 25.91 o
-4 7 11 2291.36 2123.53 28.27 o
6 7 11 402.78 445.20 16.49 o
-6 7 11 416.04 442.84 18.84 o
1 8 11 5637.64 5356.52 51.82 o
-1 8 11 5505.72 5341.21 60.07 o
3 8 11 368.30 414.58 14.13 o
-3 8 11 357.35 396.91 16.49 o
5 8 11 5569.40 5570.87 53.00 o
-5 8 11 5704.40 5528.47 53.00 o
7 8 11 2213.11 2157.68 32.98 o
-7 8 11 2141.86 2169.46 37.69 o
0 9 11 69.76 90.69 9.42 o
2 9 11 1054.97 1052.93 18.84 o
-2 9 11 1030.02 1003.46 22.38 o
4 9 11 649.24 719.62 18.84 o
-4 9 11 697.95 663.09 20.02 o
6 9 11 103.11 131.91 11.78 o
-6 9 11 106.12 142.51 14.13 o
8 9 11 748.37 792.64 20.02 o
-8 9 11 706.25 732.58 23.56 o
1 10 11 1395.65 1395.66 21.20 o
-1 10 11 1416.00 1346.20 24.73 o
3 10 11 110.90 146.04 14.13 o
-3 10 11 118.46 146.04 14.13 o
5 10 11 1516.38 1495.77 27.09 o
-5 10 11 1488.97 1491.06 24.73 o
7 10 11 716.99 732.58 21.20 o
-7 10 11 734.01 713.73 24.73 o
9 10 11 280.70 300.33 15.31 o
-9 10 11 289.91 299.15 17.67 o
0 11 11 261.24 247.33 18.84 o
2 11 11 3948.72 3894.90 61.24 o
-2 11 11 3979.68 3931.41 61.24 o
4 11 11 2428.25 2421.50 47.11 o
-4 11 11 2355.69 2352.02 45.93 o
6 11 11 512.69 499.38 31.80 o
-6 11 11 511.51 592.42 35.33 o
8 11 11 2928.93 3026.88 55.36 o
-8 11 11 3005.25 2938.55 56.53 o
10 11 11 651.71 717.27 35.33 o
-10 11 11 645.04 686.64 30.62 o
0 0 12 23152.00 22850.00 300.33 o
1 1 12 1883.20 1776.08 25.91 o
-1 1 12 1826.97 1790.22 25.91 o
0 2 12 157.73 187.27 7.07 o
2 2 12 4681.07 4543.85 50.64 o
-2 2 12 4875.84 4545.03 47.11 o
1 3 12 3566.23 3442.63 30.62 o
-1 3 12 3555.36 3461.48 29.44 o
3 3 12 4964.04 4709.92 58.89 o
-3 3 12 4947.52 4781.76 60.07 o
0 4 12 5.20 44.76 5.89 o
2 4 12 6091.62 5854.72 49.47 o
-2 4 12 6016.71 5785.23 44.76 o
4 4 12 8089.30 7885.20 81.27 o
-4 4 12 8081.19 7710.89 90.69 o
1 5 12 1470.55 1455.73 18.84 o
-1 5 12 1536.05 1443.95 20.02 o
3 5 12 933.15 938.69 16.49 o
-3 5 12 942.32 944.58 21.20 o
5 5 12 1641.64 1549.95 31.80 o
-5 5 12 1566.46 1514.62 35.33 o
0 6 12 13195.40 12751.80 116.60 o
2 6 12 85.15 107.18 9.42 o
-2 6 12 52.34 126.02 9.42 o
4 6 12 103.79 141.33 9.42 o
-4 6 12 121.46 141.33 10.60 o
6 6 12 7914.74 7858.11 103.64 o
-6 6 12 7914.52 7680.27 103.64 o
1 7 12 1275.14 1207.22 21.20 o
-1 7 12 1233.83 1231.95 21.20 o
3 7 12 4041.20 3921.99 40.04 o
-3 7 12 4061.07 3939.66 43.58 o
5 7 12 817.92 853.89 21.20 o
-5 7 12 865.88 845.64 21.20 o
7 7 12 1032.53 1045.86 31.80 o
-7 7 12 992.66 1012.89 35.33 o
0 8 12 1254.72 1256.69 21.20 o
2 8 12 2701.66 2708.88 31.80 o
-2 8 12 2782.75 2706.53 34.16 o
4 8 12 3076.03 3062.21 36.51 o
-4 8 12 3054.95 2995.08 37.69 o
6 8 12 740.14 725.51 21.20 o
-6 8 12 724.52 736.11 23.56 o
8 8 12 1778.93 1889.15 42.40 o
-8 8 12 1802.43 1743.11 44.76 o
1 9 12 1615.50 1598.24 28.27 o
-1 9 12 1585.41 1580.57 25.91 o
3 9 12 2153.11 2156.50 35.33 o
-3 9 12 2146.03 2117.64 37.69 o
5 9 12 415.79 445.20 17.67 o
-5 9 12 421.67 486.42 20.02 o
7 9 12 1973.95 1973.95 29.44 o
-7 9 12 1964.55 1972.77 35.33 o
9 9 12 912.94 902.17 31.80 o
-9 9 12 924.48 989.33 37.69 o
0 10 12 411.09 426.35 16.49 o
2 10 12 2707.78 2615.84 32.98 o
-2 10 12 2609.36 2574.61 36.51 o
4 10 12 3873.44 3924.34 47.11 o
-4 10 12 3922.87 3770.06 44.76 o
6 10 12 386.18 449.91 20.02 o
-6 10 12 408.99 484.07 24.73 o
8 10 12 1346.27 1332.06 27.09 o
-8 10 12 1295.57 1357.97 29.44 o
10 10 12 2339.88 2304.90 42.40 o
-10 10 12 2377.88 2197.73 42.40 o
1 11 12 789.93 793.82 22.38 o
-1 11 12 828.85 803.24 22.38 o
3 11 12 33.06 58.89 12.96 o
-3 11 12 40.30 71.84 12.96 o
5 11 12 892.59 891.58 25.91 o
-5 11 12 849.62 859.78 27.09 o
7 11 12 495.23 553.55 23.56 o
-7 11 12 527.23 537.07 24.73 o
9 11 12 37.78 36.51 15.31 <
-9 11 12 46.43 58.89 14.13 o
0 12 12 5054.68 5070.32 87.16 o
2 12 12 234.32 235.55 30.62 o
-2 12 12 214.02 270.89 24.73 o
4 12 12 83.90 104.82 22.38 o
-4 12 12 92.19 58.89 21.20 <
6 12 12 3234.44 3362.55 65.96 o
-6 12 12 3230.45 3387.28 73.02 o
8 12 12 615.91 687.82 36.51 o
-8 12 12 604.69 525.29 30.62 o
0 1 13 1311.52 1276.71 15.31 o
1 2 13 1978.02 1939.79 21.20 o
-1 2 13 2017.90 1936.26 21.20 o
0 3 13 8304.89 7888.73 61.24 o
2 3 13 520.28 534.71 17.67 o
-2 3 13 528.75 554.73 16.49 o
1 4 13 1821.01 1736.04 23.56 o
-1 4 13 1759.47 1712.48 22.38 o
3 4 13 1595.79 1573.51 21.20 o
-3 4 13 1578.98 1582.93 22.38 o
0 5 13 247.97 325.07 12.96 o
2 5 13 1621.10 1571.15 22.38 o
-2 5 13 1572.62 1608.84 23.56 o
4 5 13 1073.67 1127.13 20.02 o
-4 5 13 1125.18 1069.42 21.20 o
1 6 13 868.04 863.31 16.49 o
-1 6 13 858.65 844.46 17.67 o
3 6 13 6209.96 6120.89 55.36 o
-3 6 13 6217.67 6133.85 56.53 o
5 6 13 206.00 282.67 18.84 o
-5 6 13 222.96 233.20 15.31 o
0 7 13 1724.04 1675.97 23.56 o
2 7 13 1366.10 1405.08 23.56 o
-2 7 13 1384.78 1393.31 27.09 o
4 7 13 1466.53 1439.24 25.91 o
-4 7 13 1444.76 1426.28 28.27 o
6 7 13 1080.93 1039.97 22.38 o
-6 7 13 1072.82 1057.64 25.91 o
1 8 13 846.05 898.64 22.38 o
-1 8 13 897.16 859.78 20.02 o
3 8 13 61.39 108.36 10.60 o
-3 8 13 74.37 107.18 12.96 o
5 8 13 968.96 950.46 22.38 o
-5 8 13 903.91 931.62 24.73 o
7 8 13 465.09 519.40 25.91 o
-7 8 13 493.95 522.93 28.27 o
0 9 13 4016.67 3986.77 45.93 o
2 9 13 400.33 429.89 20.02 o
-2 9 13 420.42 428.71 18.84 o
4 9 13 926.52 903.35 22.38 o
-4 9 13 904.97 930.44 23.56 o
6 9 13 3168.09 3204.72 40.04 o
-6 9 13 3141.56 3218.86 44.76 o
8 9 13 144.86 177.84 14.13 o
-8 9 13 169.16 191.98 17.67 o
1 10 13 1152.32 1176.60 25.91 o
-1 10 13 1133.22 1180.13 25.91 o
3 10 13 1166.88 1177.77 29.44 o
-3 10 13 1159.28 1148.33 28.27 o
5 10 13 578.59 604.20 23.56 o
-5 10 13 576.90 590.07 27.09 o
7 10 13 1138.10 1181.31 27.09 o
-7 10 13 1136.81 1169.53 29.44 o
9 10 13 629.10 607.73 23.56 o
-9 10 13 634.21 634.82 23.56 o
0 11 13 9.42 11.78 15.31 <
2 11 13 637.08 631.29 27.09 o
-2 11 13 618.15 668.98 27.09 o
4 11 13 370.27 375.71 17.67 o
-4 11 13 398.91 412.22 18.84 o
6 11 13 109.32 127.20 15.31 o
-6 11 13 115.62 149.58 16.49 o
8 11 13 413.29 442.84 22.38 o
-8 11 13 383.76 411.04 20.02 o
1 12 13 511.91 565.33 35.33 o
-1 12 13 491.02 501.73 23.56 o
3 12 13 2046.76 2104.68 44.76 o
-3 12 13 2052.34 2127.06 35.33 o
5 12 13 215.86 232.02 16.49 o
-5 12 13 241.41 216.71 23.56 o
7 12 13 512.92 497.02 27.09 o
-7 12 13 497.55 459.33 25.91 o
0 13 13 980.19 1028.20 49.47 o
2 13 13 566.14 621.86 44.76 o
-2 13 13 566.49 584.18 36.51 o
4 13 13 708.89 815.02 47.11 o
-4 13 13 699.95 769.09 38.87 o
6 13 13 620.08 562.98 55.36 o
-6 13 13 624.90 499.38 54.18 o
0 0 14 1611.04 1449.84 37.69 o
1 1 14 3439.32 3368.43 48.29 o
-1 1 14 3519.89 3369.61 43.58 o
0 2 14 341.22 366.29 11.78 o
2 2 14 5204.53 4701.68 61.24 o
-2 2 14 4627.04 4753.50 61.24 o
1 3 14 283.60 316.82 11.78 o
-1 3 14 294.14 294.44 10.60 o
3 3 14 1.51 53.00 11.78 o
-3 3 14 3.21 41.22 11.78 o
0 4 14 676.36 665.44 15.31 o
2 4 14 3321.91 3410.83 34.16 o
-2 4 14 3662.84 3338.99 35.33 o
4 4 14 2597.22 2466.26 50.64 o
-4 4 14 2413.82 2486.28 49.47 o
1 5 14 3798.20 3664.06 37.69 o
-1 5 14 3723.19 3647.57 38.87 o
3 5 14 343.25 402.80 20.02 o
-3 5 14 333.87 349.80 20.02 o
5 5 14 3733.43 3805.39 69.49 o
-5 5 14 3796.88 3688.79 60.07 o
0 6 14 1031.53 935.15 20.02 o
2 6 14 404.56 498.20 16.49 o
-2 6 14 539.91 468.75 18.84 o
4 6 14 619.19 581.82 20.02 o
-4 6 14 533.08 583.00 17.67 o
6 6 14 705.47 739.64 32.98 o
-6 6 14 689.90 634.82 29.44 o
1 7 14 1407.87 1429.82 22.38 o
-1 7 14 1437.95 1386.24 22.38 o
3 7 14 197.70 196.69 11.78 o
-3 7 14 207.32 208.47 12.96 o
5 7 14 1595.31 1631.22 30.62 o
-5 7 14 1564.04 1626.51 29.44 o
7 7 14 646.66 659.55 34.16 o
-7 7 14 663.05 707.84 37.69 o
0 8 14 362.05 418.11 17.67 o
2 8 14 3954.00 3733.54 42.40 o
-2 8 14 3659.37 3774.77 40.04 o
4 8 14 2793.04 2823.12 41.22 o
-4 8 14 2957.17 2780.73 37.69 o
6 8 14 391.88 481.71 23.56 o
-6 8 14 463.12 427.53 22.38 o
8 8 14 2970.50 2945.61 60.07 o
-8 8 14 2822.13 2976.24 63.60 o
1 9 14 550.92 594.78 22.38 o
-1 9 14 565.45 577.11 21.20 o
3 9 14 4.69 45.93 12.96 o
-3 9 14 6.53 50.64 11.78 o
5 9 14 656.26 673.69 27.09 o
-5 9 14 632.37 644.24 27.09 o
7 9 14 346.10 422.82 20.02 o
-7 9 14 355.55 388.67 21.20 o
9 9 14 10.77 17.67 21.20 <
-9 9 14 13.56 31.80 22.38 <
0 10 14 319.38 316.82 18.84 o
2 10 14 1002.25 1041.15 29.44 o
-2 10 14 1169.13 1036.44 28.27 o
4 10 14 795.78 773.80 27.09 o
-4 10 14 702.80 797.35 23.56 o
6 10 14 286.61 254.40 18.84 o
-6 10 14 237.93 301.51 18.84 o
8 10 14 972.24 983.44 29.44 o
-8 10 14 1064.60 989.33 29.44 o
1 11 14 1899.88 1928.02 37.69 o
-1 11 14 1876.40 1882.08 35.33 o
3 11 14 246.23 250.87 16.49 o
-3 11 14 248.09 252.04 15.31 o
5 11 14 1950.22 2049.33 38.87 o
-5 11 14 1970.87 2021.06 35.33 o
7 11 14 730.45 719.62 28.27 o
-7 11 14 722.73 651.31 28.27 o
0 12 14 865.59 905.71 34.16 o
2 12 14 651.39 762.02 31.80 o
-2 12 14 734.24 671.33 28.27 o
4 12 14 668.88 673.69 35.33 o
-4 12 14 618.36 624.22 25.91 o
6 12 14 628.77 564.15 40.04 o
-6 12 14 617.02 584.18 54.18 o
1 13 14 228.42 246.15 24.73 o
-1 13 14 236.14 276.78 22.38 o
3 13 14 86.02 104.82 24.73 o
-3 13 14 89.77 98.93 20.02 o
0 1 15 1691.95 1607.66 23.56 o
1 2 15 1208.04 1153.04 27.09 o
-1 2 15 1228.30 1147.15 28.27 o
0 3 15 2012.61 2015.17 25.91 o
2 3 15 1150.55 1117.71 20.02 o
-2 3 15 1155.65 1129.49 20.02 o
1 4 15 1038.61 1007.00 20.02 o
-1 4 15 993.49 1015.24 22.38 o
3 4 15 1933.18 1884.44 25.91 o
-3 4 15 1937.25 1863.24 25.91 o
0 5 15 457.86 534.71 16.49 o
2 5 15 1279.12 1223.71 21.20 o
-2 5 15 1257.54 1266.11 24.73 o
4 5 15 864.35 933.97 23.56 o
-4 5 15 910.43 871.55 21.20 o
1 6 15 1398.89 1382.71 22.38 o
-1 6 15 1388.89 1361.51 23.56 o
3 6 15 1129.41 1138.91 22.38 o
-3 6 15 1121.72 1145.97 23.56 o
5 6 15 429.69 504.09 21.20 o
-5 6 15 430.89 471.11 20.02 o
0 7 15 2105.47 2055.22 29.44 o
2 7 15 671.04 716.09 22.38 o
-2 7 15 682.11 689.00 21.20 o
4 7 15 655.64 690.18 23.56 o
-4 7 15 624.58 672.51 22.38 o
6 7 15 1681.73 1707.77 31.80 o
-6 7 15 1691.09 1644.17 30.62 o
1 8 15 864.90 913.95 25.91 o
-1 8 15 904.65 902.17 25.91 o
3 8 15 122.50 151.93 15.31 o
-3 8 15 130.77 136.62 16.49 o
5 8 15 969.20 939.86 25.91 o
-5 8 15 927.45 928.09 25.91 o
7 8 15 517.03 559.44 23.56 o
-7 8 15 545.82 552.38 25.91 o
0 9 15 841.92 921.02 27.09 o
2 9 15 611.15 672.51 22.38 o
-2 9 15 615.53 666.62 22.38 o
4 9 15 1007.49 1008.17 28.27 o
-4 9 15 996.36 983.44 25.91 o
6 9 15 442.34 541.78 30.62 o
-6 9 15 443.39 465.22 24.73 o
8 9 15 86.33 96.58 15.31 o
-8 9 15 94.74 80.09 17.67 o
1 10 15 437.64 462.86 23.56 o
-1 10 15 431.45 477.00 22.38 o
3 10 15 1696.09 1687.75 32.98 o
-3 10 15 1707.80 1745.46 30.62 o
5 10 15 330.57 312.11 20.02 o
-5 10 15 338.82 339.20 20.02 o
7 10 15 317.42 403.98 29.44 o
-7 10 15 309.14 373.35 28.27 o
0 11 15 14.92 53.00 20.02 <
2 11 15 753.56 672.51 29.44 o
-2 11 15 745.72 749.06 25.91 o
4 11 15 543.36 515.86 25.91 o
-4 11 15 570.35 498.20 27.09 o
1 12 15 481.53 453.44 29.44 o
-1 12 15 467.20 505.27 28.27 o
3 12 15 343.76 360.40 30.62 o
-3 12 15 338.57 320.36 23.56 o
0 0 16 630.27 571.22 41.22 o
1 1 16 839.72 852.71 24.73 o
-1 1 16 822.02 824.44 24.73 o
0 2 16 3413.42 3298.95 37.69 o
2 2 16 583.38 570.04 23.56 o
-2 2 16 634.40 603.02 24.73 o
1 3 16 596.28 657.20 17.67 o
-1 3 16 592.66 623.04 17.67 o
3 3 16 4100.30 4045.65 53.00 o
-3 3 16 4113.10 4010.32 56.53 o
0 4 16 5074.07 5052.65 53.00 o
2 4 16 356.92 342.73 14.13 o
-2 4 16 336.98 376.89 16.49 o
4 4 16 162.65 175.49 17.67 o
-4 4 16 166.24 182.55 18.84 o
1 5 16 473.73 568.86 21.20 o
-1 5 16 490.08 553.55 27.09 o
3 5 16 118.14 146.04 11.78 o
-3 5 16 123.38 154.29 12.96 o
5 5 16 420.51 479.35 27.09 o
-5 5 16 393.38 426.35 25.91 o
0 6 16 559.38 608.91 22.38 o
2 6 16 2236.00 2201.26 36.51 o
-2 6 16 2211.93 2183.59 36.51 o
4 6 16 3382.00 3374.32 43.58 o
-4 6 16 3391.85 3407.30 43.58 o
6 6 16 467.97 546.49 31.80 o
-6 6 16 475.64 498.20 32.98 o
1 7 16 717.90 726.69 22.38 o
-1 7 16 706.06 769.09 23.56 o
3 7 16 864.06 889.22 23.56 o
-3 7 16 853.06 864.49 22.38 o
5 7 16 342.95 369.82 18.84 o
-5 7 16 351.86 383.95 18.84 o
7 7 16 709.35 739.64 34.16 o
-7 7 16 719.20 765.55 37.69 o
0 8 16 1408.02 1502.84 29.44 o
2 8 16 702.77 747.89 23.56 o
-2 8 16 729.65 756.13 24.73 o
4 8 16 514.88 567.69 23.56 o
-4 8 16 505.11 577.11 24.73 o
6 8 16 942.90 972.84 25.91 o
-6 8 16 928.32 941.04 28.27 o
1 9 16 390.09 449.91 25.91 o
-1 9 16 381.05 442.84 22.38 o
3 9 16 2042.33 1950.39 42.40 o
-3 9 16 2047.50 1968.06 36.51 o
5 9 16 112.61 109.53 15.31 o
-5 9 16 126.80 149.58 16.49 o
0 10 16 3111.56 3171.75 47.11 o
2 10 16 40.26 48.29 15.31 o
-2 10 16 31.57 61.24 14.13 o
4 10 16 3.00 17.67 17.67 <
-4 10 16 4.76 3.53 17.67 <
1 11 16 138.36 162.53 20.02 o
-1 11 16 148.15 168.42 18.84 o
0 1 17 178.79 176.67 16.49 o
1 2 17 1770.82 1726.62 28.27 o
-1 2 17 1719.73 1720.73 30.62 o
0 3 17 58.66 73.02 15.31 o
2 3 17 288.23 323.89 14.13 o
-2 3 17 280.90 314.47 20.02 o
1 4 17 1005.37 1019.95 23.56 o
-1 4 17 1068.05 1061.17 24.73 o
3 4 17 185.98 221.42 12.96 o
-3 4 17 198.54 195.51 12.96 o
0 5 17 169.93 187.27 14.13 o
2 5 17 1820.77 1891.51 29.44 o
-2 5 17 1869.93 1889.15 29.44 o
4 5 17 1221.12 1193.09 25.91 o
-4 5 17 1156.00 1250.80 27.09 o
1 6 17 322.84 345.09 16.49 o
-1 6 17 332.51 363.93 16.49 o
3 6 17 27.97 43.58 14.13 o
-3 6 17 28.92 47.11 14.13 o
5 6 17 342.40 323.89 18.84 o
-5 6 17 326.17 363.93 22.38 o
0 7 17 137.17 136.62 16.49 o
2 7 17 731.85 745.53 28.27 o
-2 7 17 706.30 749.06 27.09 o
4 7 17 402.30 480.53 22.38 o
-4 7 17 435.92 478.18 20.02 o
6 7 17 230.49 261.47 20.02 o
-6 7 17 238.02 244.98 28.27 o
1 8 17 1335.96 1350.91 32.98 o
-1 8 17 1274.51 1347.37 28.27 o
3 8 17 167.50 176.67 17.67 o
-3 8 17 159.89 164.89 16.49 o
5 8 17 1307.04 1385.06 38.87 o
-5 8 17 1365.18 1328.53 48.29 o
0 9 17 41.16 45.93 15.31 o
2 9 17 402.84 372.18 23.56 o
-2 9 17 386.11 441.67 24.73 o
0 0 18 2735.42 2633.50 73.02 o
1 1 18 707.40 721.98 34.16 o
-1 1 18 683.24 716.09 34.16 o
0 2 18 13.82 53.00 14.13 o
2 2 18 1065.39 1072.95 41.22 o
-2 2 18 1234.97 1089.44 41.22 o
1 3 18 574.65 611.27 25.91 o
-1 3 18 570.76 626.58 25.91 o
3 3 18 578.99 660.73 42.40 o
-3 3 18 575.80 626.58 41.22 o
0 4 18 14.29 49.47 15.31 o
2 4 18 1246.78 1127.13 28.27 o
-2 4 18 1131.42 1178.95 29.44 o
4 4 18 1390.23 1436.88 40.04 o
-4 4 18 1465.00 1407.44 47.11 o
1 5 18 654.96 685.47 24.73 o
-1 5 18 674.74 681.93 22.38 o
3 5 18 152.84 176.67 18.84 o
-3 5 18 155.09 202.58 16.49 o
5 5 18 751.62 782.04 41.22 o
-5 5 18 732.27 835.04 55.36 o
0 6 18 1851.51 1880.91 31.80 o
2 6 18 51.55 22.38 16.49 <
-2 6 18 25.11 85.98 14.13 o
4 6 18 24.22 56.53 18.84 o
-4 6 18 45.61 89.51 22.38 o
1 7 18 402.64 412.22 23.56 o
-1 7 18 393.05 395.73 22.38 o
0 1 19 233.90 290.91 16.49 o
1 2 19 352.50 367.47 20.02 o
-1 2 19 353.86 354.51 18.84 o
0 3 19 2220.55 2287.24 43.58 o
2 3 19 77.56 129.55 24.73 o
-2 3 19 77.98 107.18 25.91 o
1 4 19 415.50 445.20 29.44 o
-1 4 19 410.95 429.89 27.09 o
