#------------------------------------------------------------------------------
#$Date: 2015-10-15 01:22:31 +0300 (Thu, 15 Oct 2015) $
#$Revision: 169142 $
#$URL: svn://www.crystallography.net/cod/cif/1/54/00/1540007.cif $
#------------------------------------------------------------------------------
#
# This file is available in the Crystallography Open Database (COD),
# http://www.crystallography.net/
#
# All data on this site have been placed in the public domain by the
# contributors.
#
data_1540007
loop_
_publ_author_name
'Zyryanov, V.V.'
_publ_section_title
;
 Structure and thermal behavior of metastable sillenites obtainedby
 mechanosynthesis
;
_journal_name_full
'Zhurnal Strukturnoi Khimii (Issue-No. from 1981)'
_journal_page_first              480
_journal_page_last               490
_journal_volume                  45
_journal_year                    2004
_chemical_formula_sum            'Bi2.09 O4.17 Pb1.05'
_chemical_name_systematic        'Bi2.09 Pb1.05 O4.17'
_space_group_IT_number           197
_symmetry_space_group_name_Hall  'I 2 2 3'
_symmetry_space_group_name_H-M   'I 2 3'
_cell_angle_alpha                90
_cell_angle_beta                 90
_cell_angle_gamma                90
_cell_formula_units_Z            8
_cell_length_a                   10.262
_cell_length_b                   10.262
_cell_length_c                   10.262
_cell_volume                     1080.677
_citation_journal_id_ASTM        ZSTKAI
_cod_data_source_file            Zyryanov_ZSTKAI_2004_575.cif
_cod_data_source_block           Bi2.09O4.17Pb1.05
_cod_database_code               1540007
loop_
_symmetry_equiv_pos_as_xyz
x,y,z
-x,-y,z
x,-y,-z
-x,y,-z
z,x,y
-z,-x,y
z,-x,-y
-z,x,-y
y,z,x
y,-z,-x
-y,z,-x
-y,-z,x
x+1/2,y+1/2,z+1/2
-x+1/2,-y+1/2,z+1/2
x+1/2,-y+1/2,-z+1/2
-x+1/2,y+1/2,-z+1/2
z+1/2,x+1/2,y+1/2
-z+1/2,-x+1/2,y+1/2
z+1/2,-x+1/2,-y+1/2
-z+1/2,x+1/2,-y+1/2
y+1/2,z+1/2,x+1/2
y+1/2,-z+1/2,-x+1/2
-y+1/2,z+1/2,-x+1/2
-y+1/2,-z+1/2,x+1/2
loop_
_atom_site_label
_atom_site_type_symbol
_atom_site_fract_x
_atom_site_fract_y
_atom_site_fract_z
_atom_site_occupancy
_atom_site_U_iso_or_equiv
Bi2 Bi+3 0.017 0.017 0.017 0.14 0.0
O1 O-2 0.125 0.25 0.5 0.9167 0.0
Bi1 Bi+3 0.181 0.323 0.025 0.65 0.0
O3 O-2 0.117 0.117 0.117 0.42 0.0
Pb1 Pb+2 0.181 0.323 0.025 0.35 0.0
O2 O-2 0.19 0.19 0.19 1 0.0
