#------------------------------------------------------------------------------
#$Date: 2016-01-01 13:10:35 +0200 (Fri, 01 Jan 2016) $
#$Revision: 172020 $
#$URL: svn://www.crystallography.net/cod/cif/1/54/08/1540858.cif $
#------------------------------------------------------------------------------
#
# This file is available in the Crystallography Open Database (COD),
# http://www.crystallography.net/
#
# All data on this site have been placed in the public domain by the
# contributors.
#
data_1540858
loop_
_publ_author_name
'Xu, J.'
'Signore, P.J.C.'
'Andraka, B.'
'Meisel, M.W.'
'Acree, W.A.'
'Takano, Y.'
_publ_section_title
;
 Low-temperature magnetic susceptibility and resistivity measurements and
 electron probe microanalysis of Y1-x Ux Pd3
;
_journal_name_full               'Journal of Alloys Compd.'
_journal_page_first              33
_journal_page_last               38
_journal_volume                  216
_journal_year                    1994
_chemical_formula_sum            'Pd3 U0.2 Y0.8'
_chemical_name_systematic        '(Pd15 U Y4)0.2'
_space_group_IT_number           221
_symmetry_space_group_name_Hall  '-P 4 2 3'
_symmetry_space_group_name_H-M   'P m -3 m'
_cell_angle_alpha                90
_cell_angle_beta                 90
_cell_angle_gamma                90
_cell_formula_units_Z            1
_cell_length_a                   4.074
_cell_length_b                   4.074
_cell_length_c                   4.074
_cell_volume                     67.618
_citation_journal_id_ASTM        JALCEU
_cod_data_source_file            Xu_JALCEU_1994_1020.cif
_cod_data_source_block           Pd3U0.2Y0.8
_cod_original_cell_volume        67.61811
_cod_database_code               1540858
loop_
_symmetry_equiv_pos_as_xyz
x,y,z
-y,x,z
-x,-y,z
y,-x,z
x,-y,-z
y,x,-z
-x,y,-z
-y,-x,-z
z,x,y
-x,z,y
-z,-x,y
x,-z,y
z,-x,-y
x,z,-y
-z,x,-y
-x,-z,-y
y,z,x
y,-z,-x
z,y,-x
-y,z,-x
-z,-y,-x
-y,-z,x
z,-y,x
-z,y,x
-x,-y,-z
y,-x,-z
x,y,-z
-y,x,-z
-x,y,z
-y,-x,z
x,-y,z
y,x,z
-z,-x,-y
x,-z,-y
z,x,-y
-x,z,-y
-z,x,y
-x,-z,y
z,-x,y
x,z,y
-y,-z,-x
-y,z,x
-z,-y,x
y,-z,x
z,y,x
y,z,-x
-z,y,-x
z,-y,-x
loop_
_atom_site_label
_atom_site_type_symbol
_atom_site_fract_x
_atom_site_fract_y
_atom_site_fract_z
_atom_site_occupancy
_atom_site_U_iso_or_equiv
Pd1 Pd 0 0.5 0.5 1 0.0
Y1 Y 0 0 0 0.8 0.0
U1 U 0 0 0 0.2 0.0
