#------------------------------------------------------------------------------
#$Date: 2018-09-27 07:13:35 +0300 (Thu, 27 Sep 2018) $
#$Revision: 211196 $
#$URL: file:///home/coder/svn-repositories/cod/cif/1/54/01/1540140.cif $
#------------------------------------------------------------------------------
#
# This file is available in the Crystallography Open Database (COD),
# http://www.crystallography.net/
#
# All data on this site have been placed in the public domain by the
# contributors.
#
data_1540140
loop_
_publ_author_name
'Iglesias, J.E.'
'Pachali, K.E.'
'Steinfink, H.'
_publ_section_title
;
 Structural chemistry of Ba2 Cd S3, Ba2 Cd S3, Ba Cd S2, Ba Cu2 S2 and Ba
 Cu2 Se2
;
_journal_name_full               'Journal of Solid State Chemistry'
_journal_page_first              6
_journal_page_last               14
_journal_volume                  9
_journal_year                    1974
_chemical_formula_sum            'Ba Cu2 S2'
_space_group_IT_number           62
_symmetry_space_group_name_Hall  '-P 2ac 2n'
_symmetry_space_group_name_H-M   'P n m a'
_cell_angle_alpha                90
_cell_angle_beta                 90
_cell_angle_gamma                90
_cell_formula_units_Z            4
_cell_length_a                   9.3081
_cell_length_b                   4.0612
_cell_length_c                   10.4084
_cell_volume                     393.459
_citation_journal_id_ASTM        JSSCBI
_cod_data_source_file            Iglesias_JSSCBI_1974_1662.cif
_cod_data_source_block           Ba1Cu2S2
_cod_original_cell_volume        393.4589
_cod_original_formula_sum        'Ba1 Cu2 S2'
_cod_database_code               1540140
loop_
_symmetry_equiv_pos_as_xyz
x,y,z
-x+1/2,-y,z+1/2
x+1/2,-y+1/2,-z+1/2
-x,y+1/2,-z
-x,-y,-z
x-1/2,y,-z-1/2
-x-1/2,y-1/2,z-1/2
x,-y-1/2,z
loop_
_atom_site_label
_atom_site_type_symbol
_atom_site_fract_x
_atom_site_fract_y
_atom_site_fract_z
_atom_site_occupancy
_atom_site_U_iso_or_equiv
S1 S-2 0.4826 0.25 0.1694 1 0.0
Cu2 Cu+1 0.4171 0.75 0.0445 1 0.0
Cu1 Cu+1 0.0564 0.25 0.1108 1 0.0
S2 S-2 0.1605 0.75 0.039 1 0.0
Ba1 Ba+2 0.2599 0.75 0.3224 1 0.0
