#------------------------------------------------------------------------------
#$Date: 2016-02-13 21:28:24 +0200 (Sat, 13 Feb 2016) $
#$Revision: 176429 $
#$URL: svn://www.crystallography.net/cod/cif/1/54/03/1540359.cif $
#------------------------------------------------------------------------------
#
# This file is available in the Crystallography Open Database (COD),
# http://www.crystallography.net/
#
# All data on this site have been placed in the public domain by the
# contributors.
#
data_1540359
loop_
_publ_author_name
'Kuznietz, M.'
'Bouree, F.'
'Pinto, H.'
'Melamud, M.'
_publ_section_title
;
 U Co Ni Ge2, nonmagnetic solid sulution of the antiferromagnets U Co2 Ge2
 and U Ni2 Ge2
;
_journal_name_full               'Solid State Communications'
_journal_page_first              93
_journal_page_last               97
_journal_volume                  90
_journal_year                    1994
_chemical_formula_sum            'Ge2 Ni2 U'
_chemical_name_systematic        'Ni2 U Ge2'
_space_group_IT_number           139
_symmetry_space_group_name_Hall  '-I 4 2'
_symmetry_space_group_name_H-M   'I 4/m m m'
_cell_angle_alpha                90
_cell_angle_beta                 90
_cell_angle_gamma                90
_cell_formula_units_Z            2
_cell_length_a                   4.106
_cell_length_b                   4.106
_cell_length_c                   9.464
_cell_volume                     159.556
_citation_journal_id_ASTM        SSCOA4
_cod_data_source_file            Kuznietz_SSCOA4_1994_1110.cif
_cod_data_source_block           Ge2Ni2U1
_cod_original_cell_volume        159.5558
_cod_original_formula_sum        'Ge2 Ni2 U1'
_cod_database_code               1540359
loop_
_symmetry_equiv_pos_as_xyz
x,y,z
-y,x,z
-x,-y,z
y,-x,z
x,-y,-z
y,x,-z
-x,y,-z
-y,-x,-z
-x,-y,-z
y,-x,-z
x,y,-z
-y,x,-z
-x,y,z
-y,-x,z
x,-y,z
y,x,z
x+1/2,y+1/2,z+1/2
-y+1/2,x+1/2,z+1/2
-x+1/2,-y+1/2,z+1/2
y+1/2,-x+1/2,z+1/2
x+1/2,-y+1/2,-z+1/2
y+1/2,x+1/2,-z+1/2
-x+1/2,y+1/2,-z+1/2
-y+1/2,-x+1/2,-z+1/2
-x+1/2,-y+1/2,-z+1/2
y+1/2,-x+1/2,-z+1/2
x+1/2,y+1/2,-z+1/2
-y+1/2,x+1/2,-z+1/2
-x+1/2,y+1/2,z+1/2
-y+1/2,-x+1/2,z+1/2
x+1/2,-y+1/2,z+1/2
y+1/2,x+1/2,z+1/2
loop_
_atom_site_label
_atom_site_type_symbol
_atom_site_fract_x
_atom_site_fract_y
_atom_site_fract_z
_atom_site_occupancy
_atom_site_U_iso_or_equiv
U1 U 0 0 0 1 0.0
Ni1 Ni 0 0.5 0.25 1 0.0
Ge1 Ge 0 0 0.376 1 0.0
