#------------------------------------------------------------------------------
#$Date: 2016-01-01 13:39:48 +0200 (Fri, 01 Jan 2016) $
#$Revision: 172058 $
#$URL: svn://www.crystallography.net/cod/cif/1/54/08/1540886.cif $
#------------------------------------------------------------------------------
#
# This file is available in the Crystallography Open Database (COD),
# http://www.crystallography.net/
#
# All data on this site have been placed in the public domain by the
# contributors.
#
data_1540886
loop_
_publ_author_name
'Savitskii, E.M.'
'Baron, V.V.'
'Efimov, Yu.V.'
'Gladyshevskii, E.I.'
_publ_section_title
;
 The solubility of some transition metals in V3 Si and their influence on
 its temperature of transition to the superconducting state
;
_journal_name_full
;
Inorganic Materials (USSR) (see: Izv.Akad.Nauk, Neorg.Mater.)
;
_journal_page_first              327
_journal_page_last               333
_journal_volume                  1
_journal_year                    1965
_chemical_formula_sum            'Si2 Ti1.122 V4.878'
_chemical_name_systematic        'Ti1.122 V4.878 Si2'
_space_group_IT_number           223
_symmetry_space_group_name_Hall  '-P 4n 2 3'
_symmetry_space_group_name_H-M   'P m -3 n'
_cell_angle_alpha                90
_cell_angle_beta                 90
_cell_angle_gamma                90
_cell_formula_units_Z            1
_cell_length_a                   4.762
_cell_length_b                   4.762
_cell_length_c                   4.762
_cell_volume                     107.986
_citation_journal_id_ASTM        INOMAF
_cod_data_source_file            Savitskii_INOMAF_1965_13.cif
_cod_data_source_block           Si2Ti1.122V4.878
_cod_original_cell_volume        107.9862
_cod_database_code               1540886
loop_
_symmetry_equiv_pos_as_xyz
x,y,z
-y+1/2,x+1/2,z+1/2
-x,-y,z
y+1/2,-x+1/2,z+1/2
x,-y,-z
y+1/2,x+1/2,-z+1/2
-x,y,-z
-y+1/2,-x+1/2,-z+1/2
z,x,y
-x+1/2,z+1/2,y+1/2
-z,-x,y
x+1/2,-z+1/2,y+1/2
z,-x,-y
x+1/2,z+1/2,-y+1/2
-z,x,-y
-x+1/2,-z+1/2,-y+1/2
y,z,x
y,-z,-x
z+1/2,y+1/2,-x+1/2
-y,z,-x
-z+1/2,-y+1/2,-x+1/2
-y,-z,x
z+1/2,-y+1/2,x+1/2
-z+1/2,y+1/2,x+1/2
-x,-y,-z
y-1/2,-x-1/2,-z-1/2
x,y,-z
-y-1/2,x-1/2,-z-1/2
-x,y,z
-y-1/2,-x-1/2,z-1/2
x,-y,z
y-1/2,x-1/2,z-1/2
-z,-x,-y
x-1/2,-z-1/2,-y-1/2
z,x,-y
-x-1/2,z-1/2,-y-1/2
-z,x,y
-x-1/2,-z-1/2,y-1/2
z,-x,y
x-1/2,z-1/2,y-1/2
-y,-z,-x
-y,z,x
-z-1/2,-y-1/2,x-1/2
y,-z,x
z-1/2,y-1/2,x-1/2
y,z,-x
-z-1/2,y-1/2,-x-1/2
z-1/2,-y-1/2,-x-1/2
loop_
_atom_site_label
_atom_site_type_symbol
_atom_site_fract_x
_atom_site_fract_y
_atom_site_fract_z
_atom_site_occupancy
_atom_site_U_iso_or_equiv
Si1 Si 0 0 0 1 0.0
V1 V 0.25 0 0.5 0.813 0.0
Ti1 Ti 0.25 0 0.5 0.187 0.0
