#------------------------------------------------------------------------------
#$Date: 2016-02-13 21:28:24 +0200 (Sat, 13 Feb 2016) $
#$Revision: 176429 $
#$URL: svn://www.crystallography.net/cod/cif/1/54/03/1540348.cif $
#------------------------------------------------------------------------------
#
# This file is available in the Crystallography Open Database (COD),
# http://www.crystallography.net/
#
# All data on this site have been placed in the public domain by the
# contributors.
#
data_1540348
loop_
_publ_author_name
'Kuz'ma, Yu.B.'
'Gurin, V.N.'
'Chikhrii, S.I.'
'Korsukova, M.M.'
'Chaban, N.F.'
_publ_section_title
;
 Neue Alumoboride von Seltenerdmetallen mit einer Struktur vom Typ Mg Al
 B14.
;
_journal_name_full
;
Inorganic Materials (USSR) (see: Izv.Akad.Nauk, Neorg.Mater.)
;
_journal_page_first              1705
_journal_page_last               1708
_journal_volume                  24
_journal_year                    1988
_chemical_formula_sum            'Al B14 Ho'
_chemical_name_systematic        'Al Ho B14'
_space_group_IT_number           74
_symmetry_space_group_name_Hall  '-I 2b 2'
_symmetry_space_group_name_H-M   'I m m a'
_cell_angle_alpha                90
_cell_angle_beta                 90
_cell_angle_gamma                90
_cell_formula_units_Z            4
_cell_length_a                   5.816
_cell_length_b                   10.399
_cell_length_c                   8.182
_cell_volume                     494.852
_citation_journal_id_ASTM        INOMAF
_cod_data_source_file            Kuzma_INOMAF_1988_576.cif
_cod_data_source_block           Al1B14Ho1
_cod_original_cell_volume        494.8521
_cod_original_formula_sum        'Al1 B14 Ho1'
_cod_database_code               1540348
loop_
_symmetry_equiv_pos_as_xyz
x,y,z
-x,-y+1/2,z
x,-y,-z
-x,y+1/2,-z
-x,-y,-z
x,y-1/2,-z
-x,y,z
x,-y-1/2,z
x+1/2,y+1/2,z+1/2
-x+1/2,-y+1,z+1/2
x+1/2,-y+1/2,-z+1/2
-x+1/2,y+1,-z+1/2
-x+1/2,-y+1/2,-z+1/2
x+1/2,y,-z+1/2
-x+1/2,y+1/2,z+1/2
x+1/2,-y,z+1/2
loop_
_atom_site_label
_atom_site_type_symbol
_atom_site_fract_x
_atom_site_fract_y
_atom_site_fract_z
_atom_site_occupancy
_atom_site_U_iso_or_equiv
B4 B 0.1598 0.0595 0.8379 1 0.0
B2 B 0 0.1517 0.3755 1 0.0
B1 B 0 0.1664 0.9678 1 0.0
Ho1 Ho 0 0.25 0.64347 1 0.0
Al1 Al 0.25 0.25 0.25 1 0.0
B3 B 0 0.0872 0.1704 1 0.0
B5 B 0.2489 0.0801 0.4554 1 0.0
