#------------------------------------------------------------------------------
#$Date: 2016-02-13 14:50:18 +0200 (Sat, 13 Feb 2016) $
#$Revision: 176428 $
#$URL: svn://www.crystallography.net/cod/cif/1/54/07/1540786.cif $
#------------------------------------------------------------------------------
#
# This file is available in the Crystallography Open Database (COD),
# http://www.crystallography.net/
#
# All data on this site have been placed in the public domain by the
# contributors.
#
data_1540786
loop_
_publ_author_name
'Yang, H.-Y.'
'Guo, H.-Q.'
'Shen, B.-G.'
'Yang, L.Y.'
'Zhao, J.-G.'
'Yuan, J.'
_publ_section_title
;
 Magnetic properties and magnetostriction in (Y0.1 Tb0.9) (Fe1-x Mnx)2
 cubic Laves phases
;
_journal_name_full
'Physica Status Solidi, Sectio A: Applied Research'
_journal_page_first              K107
_journal_page_last               K111
_journal_volume                  129
_journal_year                    1992
_chemical_formula_sum            'Fe11.2 Mn4.8 Tb7.2 Y0.8'
_chemical_name_systematic        '(Fe14 Mn6 Tb9 Y)0.8'
_space_group_IT_number           227
_symmetry_space_group_name_Hall  'F 4d 2 3 -1d'
_symmetry_space_group_name_H-M   'F d -3 m :1'
_cell_angle_alpha                90
_cell_angle_beta                 90
_cell_angle_gamma                90
_cell_formula_units_Z            1
_cell_length_a                   7.414
_cell_length_b                   7.414
_cell_length_c                   7.414
_cell_volume                     407.528
_citation_journal_id_ASTM        PSSABA
_cod_data_source_file            Yang_PSSABA_1992_897.cif
_cod_data_source_block           Fe11.2Mn4.8Tb7.2Y0.8
_cod_original_cell_volume        407.5283
_cod_original_sg_symbol_Hall     '-F 4vw 2vw 3 (x+1/8,y+1/8,z+1/8)'
_cod_database_code               1540786
loop_
_symmetry_equiv_pos_as_xyz
x,y,z
-y+1/4,x+1/4,z+1/4
-x,-y+1/2,z+1/2
y+3/4,-x+1/4,z+3/4
x,-y+1/2,-z+1/2
y+3/4,x+1/4,-z+3/4
-x,y,-z
-y+1/4,-x+1/4,-z+1/4
z,x,y
-x+1/4,z+1/4,y+1/4
-z,-x+1/2,y+1/2
x+3/4,-z+1/4,y+3/4
z,-x+1/2,-y+1/2
x+3/4,z+1/4,-y+3/4
-z,x,-y
-x+1/4,-z+1/4,-y+1/4
y,z,x
y+1/2,-z,-x+1/2
z+1/4,y+3/4,-x+3/4
-y+1/2,z+1/2,-x
-z+1/4,-y+3/4,-x+3/4
-y+1/2,-z+1/2,x
z+1/4,-y+1/4,x+1/4
-z+3/4,y+1/4,x+3/4
-x+1/4,-y+1/4,-z+1/4
y,-x,-z
x+1/4,y-1/4,-z-1/4
-y-1/2,x,-z-1/2
-x+1/4,y-1/4,z-1/4
-y-1/2,-x,z-1/2
x+1/4,-y+1/4,z+1/4
y,x,z
-z+1/4,-x+1/4,-y+1/4
x,-z,-y
z+1/4,x-1/4,-y-1/4
-x-1/2,z,-y-1/2
-z+1/4,x-1/4,y-1/4
-x-1/2,-z,y-1/2
z+1/4,-x+1/4,y+1/4
x,z,y
-y+1/4,-z+1/4,-x+1/4
-y-1/4,z+1/4,x-1/4
-z,-y-1/2,x-1/2
y-1/4,-z-1/4,x+1/4
z,y-1/2,x-1/2
y-1/4,z-1/4,-x+1/4
-z,y,-x
z-1/2,-y,-x-1/2
x,y+1/2,z+1/2
-y+1/4,x+3/4,z+3/4
-x,-y+1,z+1
y+3/4,-x+3/4,z+5/4
x,-y+1,-z+1
y+3/4,x+3/4,-z+5/4
-x,y+1/2,-z+1/2
-y+1/4,-x+3/4,-z+3/4
z,x+1/2,y+1/2
-x+1/4,z+3/4,y+3/4
-z,-x+1,y+1
x+3/4,-z+3/4,y+5/4
z,-x+1,-y+1
x+3/4,z+3/4,-y+5/4
-z,x+1/2,-y+1/2
-x+1/4,-z+3/4,-y+3/4
y,z+1/2,x+1/2
y+1/2,-z+1/2,-x+1
z+1/4,y+5/4,-x+5/4
-y+1/2,z+1,-x+1/2
-z+1/4,-y+5/4,-x+5/4
-y+1/2,-z+1,x+1/2
z+1/4,-y+3/4,x+3/4
-z+3/4,y+3/4,x+5/4
-x+1/4,-y+3/4,-z+3/4
y,-x+1/2,-z+1/2
x+1/4,y+1/4,-z+1/4
-y-1/2,x+1/2,-z
-x+1/4,y+1/4,z+1/4
-y-1/2,-x+1/2,z
x+1/4,-y+3/4,z+3/4
y,x+1/2,z+1/2
-z+1/4,-x+3/4,-y+3/4
x,-z+1/2,-y+1/2
z+1/4,x+1/4,-y+1/4
-x-1/2,z+1/2,-y
-z+1/4,x+1/4,y+1/4
-x-1/2,-z+1/2,y
z+1/4,-x+3/4,y+3/4
x,z+1/2,y+1/2
-y+1/4,-z+3/4,-x+3/4
-y-1/4,z+3/4,x+1/4
-z,-y,x
y-1/4,-z+1/4,x+3/4
z,y,x
y-1/4,z+1/4,-x+3/4
-z,y+1/2,-x+1/2
z-1/2,-y+1/2,-x
x+1/2,y,z+1/2
-y+3/4,x+1/4,z+3/4
-x+1/2,-y+1/2,z+1
y+5/4,-x+1/4,z+5/4
x+1/2,-y+1/2,-z+1
y+5/4,x+1/4,-z+5/4
-x+1/2,y,-z+1/2
-y+3/4,-x+1/4,-z+3/4
z+1/2,x,y+1/2
-x+3/4,z+1/4,y+3/4
-z+1/2,-x+1/2,y+1
x+5/4,-z+1/4,y+5/4
z+1/2,-x+1/2,-y+1
x+5/4,z+1/4,-y+5/4
-z+1/2,x,-y+1/2
-x+3/4,-z+1/4,-y+3/4
y+1/2,z,x+1/2
y+1,-z,-x+1
z+3/4,y+3/4,-x+5/4
-y+1,z+1/2,-x+1/2
-z+3/4,-y+3/4,-x+5/4
-y+1,-z+1/2,x+1/2
z+3/4,-y+1/4,x+3/4
-z+5/4,y+1/4,x+5/4
-x+3/4,-y+1/4,-z+3/4
y+1/2,-x,-z+1/2
x+3/4,y-1/4,-z+1/4
-y,x,-z
-x+3/4,y-1/4,z+1/4
-y,-x,z
x+3/4,-y+1/4,z+3/4
y+1/2,x,z+1/2
-z+3/4,-x+1/4,-y+3/4
x+1/2,-z,-y+1/2
z+3/4,x-1/4,-y+1/4
-x,z,-y
-z+3/4,x-1/4,y+1/4
-x,-z,y
z+3/4,-x+1/4,y+3/4
x+1/2,z,y+1/2
-y+3/4,-z+1/4,-x+3/4
-y+1/4,z+1/4,x+1/4
-z+1/2,-y-1/2,x
y+1/4,-z-1/4,x+3/4
z+1/2,y-1/2,x
y+1/4,z-1/4,-x+3/4
-z+1/2,y,-x+1/2
z,-y,-x
x+1/2,y+1/2,z
-y+3/4,x+3/4,z+1/4
-x+1/2,-y+1,z+1/2
y+5/4,-x+3/4,z+3/4
x+1/2,-y+1,-z+1/2
y+5/4,x+3/4,-z+3/4
-x+1/2,y+1/2,-z
-y+3/4,-x+3/4,-z+1/4
z+1/2,x+1/2,y
-x+3/4,z+3/4,y+1/4
-z+1/2,-x+1,y+1/2
x+5/4,-z+3/4,y+3/4
z+1/2,-x+1,-y+1/2
x+5/4,z+3/4,-y+3/4
-z+1/2,x+1/2,-y
-x+3/4,-z+3/4,-y+1/4
y+1/2,z+1/2,x
y+1,-z+1/2,-x+1/2
z+3/4,y+5/4,-x+3/4
-y+1,z+1,-x
-z+3/4,-y+5/4,-x+3/4
-y+1,-z+1,x
z+3/4,-y+3/4,x+1/4
-z+5/4,y+3/4,x+3/4
-x+3/4,-y+3/4,-z+1/4
y+1/2,-x+1/2,-z
x+3/4,y+1/4,-z-1/4
-y,x+1/2,-z-1/2
-x+3/4,y+1/4,z-1/4
-y,-x+1/2,z-1/2
x+3/4,-y+3/4,z+1/4
y+1/2,x+1/2,z
-z+3/4,-x+3/4,-y+1/4
x+1/2,-z+1/2,-y
z+3/4,x+1/4,-y-1/4
-x,z+1/2,-y-1/2
-z+3/4,x+1/4,y-1/4
-x,-z+1/2,y-1/2
z+3/4,-x+3/4,y+1/4
x+1/2,z+1/2,y
-y+3/4,-z+3/4,-x+1/4
-y+1/4,z+3/4,x-1/4
-z+1/2,-y,x-1/2
y+1/4,-z+1/4,x+1/4
z+1/2,y,x-1/2
y+1/4,z+1/4,-x+1/4
-z+1/2,y+1/2,-x
z,-y+1/2,-x-1/2
loop_
_atom_site_label
_atom_site_type_symbol
_atom_site_fract_x
_atom_site_fract_y
_atom_site_fract_z
_atom_site_occupancy
_atom_site_U_iso_or_equiv
Fe1 Fe 0.625 0.625 0.625 0.7 0.0
Mn1 Mn 0.625 0.625 0.625 0.3 0.0
Tb1 Tb 0 0 0 0.9 0.0
Y1 Y 0 0 0 0.1 0.0
