#------------------------------------------------------------------------------
#$Date: 2018-09-27 07:13:35 +0300 (Thu, 27 Sep 2018) $
#$Revision: 211196 $
#$URL: file:///home/coder/svn-repositories/cod/cif/1/54/00/1540009.cif $
#------------------------------------------------------------------------------
#
# This file is available in the Crystallography Open Database (COD),
# http://www.crystallography.net/
#
# All data on this site have been placed in the public domain by the
# contributors.
#
data_1540009
loop_
_publ_author_name
'Zyryanov, V.V.'
_publ_section_title
;
 Structure and thermal behavior of metastable sillenites obtainedby
 mechanosynthesis
;
_journal_name_full
'Zhurnal Strukturnoi Khimii (Issue-No. from 1981)'
_journal_page_first              480
_journal_page_last               490
_journal_volume                  45
_journal_year                    2004
_chemical_formula_sum            'Bi12 Cd0.7 O18.7'
_space_group_IT_number           197
_symmetry_space_group_name_Hall  'I 2 2 3'
_symmetry_space_group_name_H-M   'I 2 3'
_cell_angle_alpha                90
_cell_angle_beta                 90
_cell_angle_gamma                90
_cell_formula_units_Z            2
_cell_length_a                   10.194
_cell_length_b                   10.194
_cell_length_c                   10.194
_cell_volume                     1059.336
_citation_journal_id_ASTM        ZSTKAI
_cod_data_source_file            Zyryanov_ZSTKAI_2004_577.cif
_cod_data_source_block           Bi12Cd0.7O18.7
_cod_database_code               1540009
loop_
_symmetry_equiv_pos_as_xyz
x,y,z
-x,-y,z
x,-y,-z
-x,y,-z
z,x,y
-z,-x,y
z,-x,-y
-z,x,-y
y,z,x
y,-z,-x
-y,z,-x
-y,-z,x
x+1/2,y+1/2,z+1/2
-x+1/2,-y+1/2,z+1/2
x+1/2,-y+1/2,-z+1/2
-x+1/2,y+1/2,-z+1/2
z+1/2,x+1/2,y+1/2
-z+1/2,-x+1/2,y+1/2
z+1/2,-x+1/2,-y+1/2
-z+1/2,x+1/2,-y+1/2
y+1/2,z+1/2,x+1/2
y+1/2,-z+1/2,-x+1/2
-y+1/2,z+1/2,-x+1/2
-y+1/2,-z+1/2,x+1/2
loop_
_atom_site_label
_atom_site_type_symbol
_atom_site_fract_x
_atom_site_fract_y
_atom_site_fract_z
_atom_site_occupancy
_atom_site_U_iso_or_equiv
Cd1 Cd+2 0 0 0 0.7 0.0
O2 O-2 0.19 0.19 0.19 1 0.0
O1 O-2 0.128 0.267 0.5 1 0.0
Bi1 Bi+3 0.182 0.315 0.01 1 0.0
O3 O-2 0.21 0.21 0.21 0.7 0.0
