#------------------------------------------------------------------------------
#$Date: 2016-02-13 21:28:24 +0200 (Sat, 13 Feb 2016) $
#$Revision: 176429 $
#$URL: svn://www.crystallography.net/cod/cif/1/54/13/1541357.cif $
#------------------------------------------------------------------------------
#
# This file is available in the Crystallography Open Database (COD),
# http://www.crystallography.net/
#
# All data on this site have been placed in the public domain by the
# contributors.
#
data_1541357
loop_
_publ_author_name
'Orishchin, S.V.'
'Glovyak, T.'
'Chikhrii, S.I.'
'Kuz'ma, Yu.B.'
_publ_section_title
;
 New samarium nickel phosphide Sm Ni4 P2 and its crystal structure
;
_journal_name_full
;
Dopovidi Akademii Nauk Ukrains'koi RSR, Seriya B: Geologichni, Khimichni ta 
Biologichni Nauki
;
_journal_page_first              54
_journal_page_last               57
_journal_volume                  1988
_journal_year                    1988
_chemical_formula_sum            'Ni4 P2 Sm'
_chemical_name_systematic        'Ni4 Sm P2'
_space_group_IT_number           58
_symmetry_space_group_name_Hall  '-P 2 2n'
_symmetry_space_group_name_H-M   'P n n m'
_cell_angle_alpha                90
_cell_angle_beta                 90
_cell_angle_gamma                90
_cell_formula_units_Z            6
_cell_length_a                   11.185
_cell_length_b                   10.759
_cell_length_c                   3.744
_cell_volume                     450.551
_citation_journal_id_ASTM        DANND6
_cod_data_source_file            Orishchin_DANND6_1988_567.cif
_cod_data_source_block           Ni4P2Sm1
_cod_original_cell_volume        450.5508
_cod_original_formula_sum        'Ni4 P2 Sm1'
_cod_database_code               1541357
loop_
_symmetry_equiv_pos_as_xyz
x,y,z
-x,-y,z
x+1/2,-y+1/2,-z+1/2
-x+1/2,y+1/2,-z+1/2
-x,-y,-z
x,y,-z
-x-1/2,y-1/2,z-1/2
x-1/2,-y-1/2,z-1/2
loop_
_atom_site_label
_atom_site_type_symbol
_atom_site_fract_x
_atom_site_fract_y
_atom_site_fract_z
_atom_site_occupancy
_atom_site_U_iso_or_equiv
P2 P 0.1292 0.2079 0 1 0.0
Sm1 Sm 0 0 0 1 0.0
P3 P 0.3818 0.3617 0 1 0.0
Ni2 Ni 0.4369 0.0744 0 1 0.0
Ni5 Ni 0.3226 0.5699 0 1 0.0
Ni3 Ni 0.0584 0.4027 0 1 0.0
Ni4 Ni 0.4634 0.725 0 1 0.0
Ni6 Ni 0.2949 0.179 0 1 0.0
Ni1 Ni 0.0867 0.7473 0 1 0.0
P1 P 0.1596 0.5662 0 1 0.0
Sm2 Sm 0.2768 0.8791 0 1 0.0
