#------------------------------------------------------------------------------
#$Date: 2018-09-27 07:13:35 +0300 (Thu, 27 Sep 2018) $
#$Revision: 211196 $
#$URL: file:///home/coder/svn-repositories/cod/cif/1/54/12/1541244.cif $
#------------------------------------------------------------------------------
#
# This file is available in the Crystallography Open Database (COD),
# http://www.crystallography.net/
#
# All data on this site have been placed in the public domain by the
# contributors.
#
data_1541244
loop_
_publ_author_name
'Mohan Rao, P.V.'
'Satyanarayana Murthy, K.'
'Suryanarayana, S.V.'
'Nagender Naidu, S.V.'
_publ_section_title
;
 Effect of ternary additions on the room temperature lattice parameters of
 Ni3 Al
;
_journal_name_full
'Physica Status Solidi, Sectio A: Applied Research'
_journal_page_first              231
_journal_page_last               235
_journal_volume                  133
_journal_year                    1992
_chemical_formula_sum            'Al0.25 Hf0.01 Ni0.74'
_space_group_IT_number           221
_symmetry_space_group_name_Hall  '-P 4 2 3'
_symmetry_space_group_name_H-M   'P m -3 m'
_cell_angle_alpha                90
_cell_angle_beta                 90
_cell_angle_gamma                90
_cell_formula_units_Z            4
_cell_length_a                   3.5725
_cell_length_b                   3.5725
_cell_length_c                   3.5725
_cell_volume                     45.595
_citation_journal_id_ASTM        PSSABA
_cod_data_source_file            MohanRao_PSSABA_1992_899.cif
_cod_data_source_block           Al0.25Hf0.01Ni0.74
_cod_original_cell_volume        45.59495
_cod_database_code               1541244
loop_
_symmetry_equiv_pos_as_xyz
x,y,z
-y,x,z
-x,-y,z
y,-x,z
x,-y,-z
y,x,-z
-x,y,-z
-y,-x,-z
z,x,y
-x,z,y
-z,-x,y
x,-z,y
z,-x,-y
x,z,-y
-z,x,-y
-x,-z,-y
y,z,x
y,-z,-x
z,y,-x
-y,z,-x
-z,-y,-x
-y,-z,x
z,-y,x
-z,y,x
-x,-y,-z
y,-x,-z
x,y,-z
-y,x,-z
-x,y,z
-y,-x,z
x,-y,z
y,x,z
-z,-x,-y
x,-z,-y
z,x,-y
-x,z,-y
-z,x,y
-x,-z,y
z,-x,y
x,z,y
-y,-z,-x
-y,z,x
-z,-y,x
y,-z,x
z,y,x
y,z,-x
-z,y,-x
z,-y,-x
loop_
_atom_site_label
_atom_site_type_symbol
_atom_site_fract_x
_atom_site_fract_y
_atom_site_fract_z
_atom_site_occupancy
_atom_site_U_iso_or_equiv
Ni1 Ni 0 0.5 0.5 0.987 0.0
Hf1 Hf 0 0.5 0.5 0.013 0.0
Al1 Al 0 0 0 1 0.0
