#------------------------------------------------------------------------------
#$Date: 2016-02-13 21:28:24 +0200 (Sat, 13 Feb 2016) $
#$Revision: 176429 $
#$URL: svn://www.crystallography.net/cod/cif/1/54/10/1541018.cif $
#------------------------------------------------------------------------------
#
# This file is available in the Crystallography Open Database (COD),
# http://www.crystallography.net/
#
# All data on this site have been placed in the public domain by the
# contributors.
#
data_1541018
loop_
_publ_author_name
'Szytula, A.'
'Ptasiewicz-Bak, H.'
'Bazela, W.'
'Leciejewicz, J.'
_publ_section_title
;
 Magnetic ordering in R Co Si2 (R=Tb, Dy, Ho) compounds
;
_journal_name_full               'Journal of Magnetism and Magnetic Materials'
_journal_page_first              189
_journal_page_last               194
_journal_volume                  80
_journal_year                    1989
_chemical_formula_sum            'Co Dy Si2'
_chemical_name_systematic        'Dy Co Si2'
_space_group_IT_number           63
_symmetry_space_group_name_Hall  '-C 2c 2'
_symmetry_space_group_name_H-M   'C m c m'
_cell_angle_alpha                90
_cell_angle_beta                 90
_cell_angle_gamma                90
_cell_formula_units_Z            4
_cell_length_a                   3.988
_cell_length_b                   16.225
_cell_length_c                   3.942
_cell_volume                     255.068
_citation_journal_id_ASTM        JMMMDC
_cod_data_source_file            Szytula_JMMMDC_1989_1856.cif
_cod_data_source_block           Co1Dy1Si2
_cod_original_cell_volume        255.0683
_cod_original_formula_sum        'Co1 Dy1 Si2'
_cod_database_code               1541018
loop_
_symmetry_equiv_pos_as_xyz
x,y,z
-x,-y,z+1/2
x,-y,-z
-x,y,-z+1/2
-x,-y,-z
x,y,-z-1/2
-x,y,z
x,-y,z-1/2
x+1/2,y+1/2,z
-x+1/2,-y+1/2,z+1/2
x+1/2,-y+1/2,-z
-x+1/2,y+1/2,-z+1/2
-x+1/2,-y+1/2,-z
x+1/2,y+1/2,-z-1/2
-x+1/2,y+1/2,z
x+1/2,-y+1/2,z-1/2
loop_
_atom_site_label
_atom_site_type_symbol
_atom_site_fract_x
_atom_site_fract_y
_atom_site_fract_z
_atom_site_occupancy
_atom_site_U_iso_or_equiv
Co1 Co 0 -0.34 0.75 1 0.0
Dy1 Dy 0 0.102 0.25 1 0.0
Si1 Si 0.5 0.973 0.25 1 0.0
Si2 Si 0.5 -0.248 0.75 1 0.0
