#------------------------------------------------------------------------------
#$Date: 2016-02-13 21:28:24 +0200 (Sat, 13 Feb 2016) $
#$Revision: 176429 $
#$URL: svn://www.crystallography.net/cod/cif/1/54/21/1542110.cif $
#------------------------------------------------------------------------------
#
# This file is available in the Crystallography Open Database (COD),
# http://www.crystallography.net/
#
# All data on this site have been placed in the public domain by the
# contributors.
#
data_1542110
loop_
_publ_author_name
'Bode, H.'
'Teufer, G.'
_publ_section_title
;
 Die Kristallstruktur des Thalliumhexafluorophosphates
;
_journal_name_full
'Zeitschrift fuer Anorganische und Allgemeine Chemie'
_journal_page_first              129
_journal_page_last               132
_journal_volume                  268
_journal_year                    1952
_chemical_formula_sum            'F6 P Tl'
_chemical_name_systematic        'Tl P F6'
_space_group_IT_number           205
_symmetry_space_group_name_Hall  '-P 2ac 2ab 3'
_symmetry_space_group_name_H-M   'P a -3'
_cell_angle_alpha                90
_cell_angle_beta                 90
_cell_angle_gamma                90
_cell_formula_units_Z            4
_cell_length_a                   7.94
_cell_length_b                   7.94
_cell_length_c                   7.94
_cell_volume                     500.566
_citation_journal_id_ASTM        ZAACAB
_cod_data_source_file            Bode_ZAACAB_1952_1016.cif
_cod_data_source_block           F6P1Tl1
_cod_original_cell_volume        500.5662
_cod_original_formula_sum        'F6 P1 Tl1'
_cod_database_code               1542110
loop_
_symmetry_equiv_pos_as_xyz
x,y,z
-x+1/2,-y,z+1/2
x+1/2,-y+1/2,-z
-x,y+1/2,-z+1/2
z,x,y
-z+1/2,-x,y+1/2
z+1/2,-x+1/2,-y
-z,x+1/2,-y+1/2
y,z,x
y+1/2,-z+1/2,-x
-y,z+1/2,-x+1/2
-y+1/2,-z,x+1/2
-x,-y,-z
x-1/2,y,-z-1/2
-x-1/2,y-1/2,z
x,-y-1/2,z-1/2
-z,-x,-y
z-1/2,x,-y-1/2
-z-1/2,x-1/2,y
z,-x-1/2,y-1/2
-y,-z,-x
-y-1/2,z-1/2,x
y,-z-1/2,x-1/2
y-1/2,z,-x-1/2
loop_
_atom_site_label
_atom_site_type_symbol
_atom_site_fract_x
_atom_site_fract_y
_atom_site_fract_z
_atom_site_occupancy
_atom_site_U_iso_or_equiv
Tl1 Tl+1 0.5 0.5 0.5 1 0.0
P1 P+5 0 0 0 1 0.0
F1 F-1 0.133 0.133 -0.066 1 0.0
