#------------------------------------------------------------------------------
#$Date: 2016-02-13 21:28:24 +0200 (Sat, 13 Feb 2016) $
#$Revision: 176429 $
#$URL: svn://www.crystallography.net/cod/cif/1/54/22/1542244.cif $
#------------------------------------------------------------------------------
#
# This file is available in the Crystallography Open Database (COD),
# http://www.crystallography.net/
#
# All data on this site have been placed in the public domain by the
# contributors.
#
data_1542244
loop_
_publ_author_name
'Sillen, L.G.'
'Pettersson, R.'
_publ_section_title
;
 Die Kristallstruktur von Pb2 Cl2 C O3 (Phosgenit) und Pb2 Br2 C O3
;
_journal_name_full               Naturwissenschaften
_journal_page_first              41
_journal_page_last               41
_journal_volume                  32
_journal_year                    1944
_chemical_formula_sum            'C Cl2 O3 Pb2'
_chemical_name_systematic        'Pb2 Cl2 (C O3)'
_space_group_IT_number           127
_symmetry_space_group_name_Hall  '-P 4 2ab'
_symmetry_space_group_name_H-M   'P 4/m b m'
_cell_angle_alpha                90
_cell_angle_beta                 90
_cell_angle_gamma                90
_cell_formula_units_Z            4
_cell_length_a                   8.139
_cell_length_b                   8.139
_cell_length_c                   8.856
_cell_volume                     586.651
_citation_journal_id_ASTM        NATWAY
_cod_data_source_file            Sillen_NATWAY_1944_1154.cif
_cod_data_source_block           C1Cl2O3Pb2
_cod_original_cell_volume        586.6508
_cod_original_formula_sum        'C1 Cl2 O3 Pb2'
_cod_database_code               1542244
loop_
_symmetry_equiv_pos_as_xyz
x,y,z
-y,x,z
-x,-y,z
y,-x,z
x+1/2,-y+1/2,-z
y+1/2,x+1/2,-z
-x+1/2,y+1/2,-z
-y+1/2,-x+1/2,-z
-x,-y,-z
y,-x,-z
x,y,-z
-y,x,-z
-x-1/2,y-1/2,z
-y-1/2,-x-1/2,z
x-1/2,-y-1/2,z
y-1/2,x-1/2,z
loop_
_atom_site_label
_atom_site_type_symbol
_atom_site_fract_x
_atom_site_fract_y
_atom_site_fract_z
_atom_site_occupancy
_atom_site_U_iso_or_equiv
Cl1 Cl-1 0 0 0.205 1 0.0
C1 C+4 0.324 0.824 0 1 0.0
Cl2 Cl-1 0.342 0.842 0.5 1 0.0
O1 O-2 0.215 0.715 0 1 0.0
O2 O-2 0.378 0.878 0.123 1 0.0
Pb1 Pb+2 0.165 0.665 0.26 1 0.0
