#------------------------------------------------------------------------------
#$Date: 2016-02-13 21:28:24 +0200 (Sat, 13 Feb 2016) $
#$Revision: 176429 $
#$URL: svn://www.crystallography.net/cod/cif/1/54/21/1542101.cif $
#------------------------------------------------------------------------------
#
# This file is available in the Crystallography Open Database (COD),
# http://www.crystallography.net/
#
# All data on this site have been placed in the public domain by the
# contributors.
#
data_1542101
loop_
_publ_author_name
'Waddington, T.C.'
_publ_section_title
;
 Lattice parameters and infrared spectra of some inorganic cyanates.
;
_journal_name_full               'Journal of the Chemical Society'
_journal_page_first              2499
_journal_page_last               2502
_journal_volume                  1959
_journal_year                    1959
_chemical_formula_sum            'C Cs N O'
_chemical_name_systematic        'Cs (O C N)'
_space_group_IT_number           140
_symmetry_space_group_name_Hall  '-I 4 2c'
_symmetry_space_group_name_H-M   'I 4/m c m'
_cell_angle_alpha                90
_cell_angle_beta                 90
_cell_angle_gamma                90
_cell_formula_units_Z            4
_cell_length_a                   6.71
_cell_length_b                   6.71
_cell_length_c                   8.04
_cell_volume                     361.994
_citation_journal_id_ASTM        JCSOA9
_cod_data_source_file            Waddington_JCSOA9_1959_3.cif
_cod_data_source_block           C1Cs1N1O1
_cod_original_cell_volume        361.9938
_cod_original_formula_sum        'C1 Cs1 N1 O1'
_cod_database_code               1542101
loop_
_symmetry_equiv_pos_as_xyz
x,y,z
-y,x,z
-x,-y,z
y,-x,z
x,-y,-z+1/2
y,x,-z+1/2
-x,y,-z+1/2
-y,-x,-z+1/2
-x,-y,-z
y,-x,-z
x,y,-z
-y,x,-z
-x,y,z-1/2
-y,-x,z-1/2
x,-y,z-1/2
y,x,z-1/2
x+1/2,y+1/2,z+1/2
-y+1/2,x+1/2,z+1/2
-x+1/2,-y+1/2,z+1/2
y+1/2,-x+1/2,z+1/2
x+1/2,-y+1/2,-z+1
y+1/2,x+1/2,-z+1
-x+1/2,y+1/2,-z+1
-y+1/2,-x+1/2,-z+1
-x+1/2,-y+1/2,-z+1/2
y+1/2,-x+1/2,-z+1/2
x+1/2,y+1/2,-z+1/2
-y+1/2,x+1/2,-z+1/2
-x+1/2,y+1/2,z
-y+1/2,-x+1/2,z
x+1/2,-y+1/2,z
y+1/2,x+1/2,z
loop_
_atom_site_label
_atom_site_type_symbol
_atom_site_fract_x
_atom_site_fract_y
_atom_site_fract_z
_atom_site_occupancy
_atom_site_U_iso_or_equiv
N1 N-3 0.37 0.13 0 0.5 0.0
O1 O-2 0.37 0.13 0 0.5 0.0
C1 C+4 0.5 0 0 1 0.0
Cs1 Cs+1 0 0 0.25 1 0.0
