#------------------------------------------------------------------------------
#$Date: 2016-08-07 12:45:10 +0300 (Sun, 07 Aug 2016) $
#$Revision: 185680 $
#$URL: file:///home/coder/svn-repositories/cod/cif/1/54/31/1543136.cif $
#------------------------------------------------------------------------------
#
# This file is available in the Crystallography Open Database (COD),
# http://www.crystallography.net/
#
# All data on this site have been placed in the public domain by the
# contributors.
#
data_1543136
loop_
_publ_author_name
'Wei, Fengxia'
'Deng, Zeyu'
'Sun, Shijing'
'Xie, Fei'
'Kieslich, Gregor'
'Evans, Donald M.'
'Carpenter, Michael A.'
'Bristowe, Paul D.'
'Cheetham, Anthony K.'
_publ_section_title
;
 The synthesis, structure and electronic properties of a lead-free hybrid
 inorganic--organic double perovskite (MA)2KBiCl6(MA = methylammonium)
;
_journal_issue                   4
_journal_name_full               'Mater. Horiz.'
_journal_page_first              328
_journal_paper_doi               10.1039/C6MH00053C
_journal_volume                  3
_journal_year                    2016
_chemical_formula_moiety         '0.67(Bi1.5 Cl9 K1.5), 2(C N)'
_chemical_formula_sum            'C2 Bi Cl6 K N2'
_chemical_formula_weight         512.82
_chemical_name_systematic
'Methylammonium potassium bismuth chloride double perovskite'
_space_group_crystal_system      trigonal
_space_group_IT_number           166
_space_group_name_Hall           '-R 3 2"'
_space_group_name_H-M_alt        'R -3 m'
_symmetry_space_group_name_Hall  '-R 3 2"'
_symmetry_space_group_name_H-M   'R -3 m :H'
_atom_sites_solution_primary     direct
_audit_creation_date             2016-02-25
_audit_creation_method
;
Olex2 1.2
(compiled 2016.02.19 svn.r3266 for OlexSys, GUI svn.r5155)
;
_audit_update_record
;
2016-02-27 deposited with the CCDC.
2016-04-15 downloaded from the CCDC.
;
_cell_angle_alpha                90
_cell_angle_beta                 90
_cell_angle_gamma                120
_cell_formula_units_Z            3
_cell_length_a                   7.8372(2)
_cell_length_b                   7.8372(2)
_cell_length_c                   20.9938(7)
_cell_measurement_reflns_used    1160
_cell_measurement_temperature    297.8(2)
_cell_measurement_theta_max      26.6050
_cell_measurement_theta_min      2.9100
_cell_volume                     1116.72(5)
_computing_cell_refinement
;
CrysAlisPro, Agilent Technologies,
Version 1.171.37.34i (release 04-08-2014 CrysAlis171 .NET)
(compiled Aug  4 2014,14:34:23)
;
_computing_data_collection
;
CrysAlisPro, Agilent Technologies,
Version 1.171.37.34i (release 04-08-2014 CrysAlis171 .NET)
(compiled Aug  4 2014,14:34:23)
;
_computing_data_reduction
;
CrysAlisPro, Agilent Technologies,
Version 1.171.37.34i (release 04-08-2014 CrysAlis171 .NET)
(compiled Aug  4 2014,14:34:23)
;
_computing_molecular_graphics    'Olex2 (Dolomanov et al., 2009)'
_computing_publication_material  'Olex2 (Dolomanov et al., 2009)'
_computing_structure_refinement  'ShelXL (Sheldrick, 2015)'
_computing_structure_solution    'ShelXT (Sheldrick, 2015)'
_diffrn_ambient_environment      air
_diffrn_ambient_temperature      297.8(2)
_diffrn_detector                 'CCD plate'
_diffrn_detector_area_resol_mean 16.1183
_diffrn_detector_type            Eos
_diffrn_measured_fraction_theta_full 1.000
_diffrn_measured_fraction_theta_max 1.000
_diffrn_measurement_details
;
  1 omega -117.00  -77.00   1.0000   16.9100
omega____ theta____ kappa____ phi______ frames
    -      -27.2013  178.0000  150.0000 40

  2 omega  -47.00   52.00   1.0000   16.9100
omega____ theta____ kappa____ phi______ frames
    -      -27.2013   37.0000  -60.0000 99

  3 omega  -49.00   52.00   1.0000   16.9100
omega____ theta____ kappa____ phi______ frames
    -      -27.2013   37.0000  120.0000 101

  4 omega -114.00  -80.00   1.0000   16.9100
omega____ theta____ kappa____ phi______ frames
    -      -27.2013  178.0000  -30.0000 34
;
_diffrn_measurement_device       'four-circle diffractometer'
_diffrn_measurement_device_type  'Xcalibur, Eos, Gemini ultra'
_diffrn_measurement_method       '\w scans'
_diffrn_orient_matrix_UB_11      -0.0589293000
_diffrn_orient_matrix_UB_12      -0.0646834000
_diffrn_orient_matrix_UB_13      0.0245943000
_diffrn_orient_matrix_UB_21      0.0639158000
_diffrn_orient_matrix_UB_22      0.0677772000
_diffrn_orient_matrix_UB_23      0.0231533000
_diffrn_orient_matrix_UB_31      -0.0580148000
_diffrn_orient_matrix_UB_32      0.0462803000
_diffrn_orient_matrix_UB_33      0.0005004000
_diffrn_radiation_monochromator  graphite
_diffrn_radiation_probe          x-ray
_diffrn_radiation_type           MoK\a
_diffrn_radiation_wavelength     0.71073
_diffrn_reflns_av_R_equivalents  0.0383
_diffrn_reflns_av_unetI/netI     0.0295
_diffrn_reflns_Laue_measured_fraction_full 1.000
_diffrn_reflns_Laue_measured_fraction_max 1.000
_diffrn_reflns_limit_h_max       7
_diffrn_reflns_limit_h_min       -9
_diffrn_reflns_limit_k_max       9
_diffrn_reflns_limit_k_min       -7
_diffrn_reflns_limit_l_max       26
_diffrn_reflns_limit_l_min       -26
_diffrn_reflns_number            1487
_diffrn_reflns_point_group_measured_fraction_full 1.000
_diffrn_reflns_point_group_measured_fraction_max 1.000
_diffrn_reflns_theta_full        25.242
_diffrn_reflns_theta_max         26.309
_diffrn_reflns_theta_min         2.911
_diffrn_source                   'Enhance (Mo) X-ray Source'
_exptl_absorpt_coefficient_mu    13.158
_exptl_absorpt_correction_T_max  0.434
_exptl_absorpt_correction_T_min  0.312
_exptl_absorpt_correction_type   analytical
_exptl_absorpt_process_details
;
CrysAlisPro, Agilent Technologies,
Version 1.171.37.34i (release 04-08-2014 CrysAlis171 .NET)
(compiled Aug  4 2014,14:34:23)
Analytical numeric absorption correction using a multifaceted crystal
            model based on expressions derived by R.C. Clark & J.S. Reid.
(Clark, R. C. & Reid, J. S. (1995). Acta Cryst. A51, 887-897)
Empirical absorption correction using spherical harmonics,
 implemented in SCALE3 ABSPACK scaling algorithm.
;
_exptl_crystal_colour            colourless
_exptl_crystal_colour_primary    colourless
_exptl_crystal_density_diffrn    2.288
_exptl_crystal_description       prism
_exptl_crystal_F_000             690
_exptl_crystal_size_max          0.1384
_exptl_crystal_size_mid          0.1048
_exptl_crystal_size_min          0.0809
_refine_diff_density_max         0.653
_refine_diff_density_min         -0.689
_refine_diff_density_rms         0.144
_refine_ls_extinction_method     none
_refine_ls_goodness_of_fit_ref   1.144
_refine_ls_hydrogen_treatment    undef
_refine_ls_matrix_type           full
_refine_ls_number_parameters     17
_refine_ls_number_reflns         316
_refine_ls_number_restraints     0
_refine_ls_restrained_S_all      1.144
_refine_ls_R_factor_all          0.0226
_refine_ls_R_factor_gt           0.0226
_refine_ls_shift/su_max          0.002
_refine_ls_shift/su_mean         0.001
_refine_ls_structure_factor_coef Fsqd
_refine_ls_weighting_details
'w=1/[\s^2^(Fo^2^)+(0.0286P)^2^] where P=(Fo^2^+2Fc^2^)/3'
_refine_ls_weighting_scheme      calc
_refine_ls_wR_factor_gt          0.0540
_refine_ls_wR_factor_ref         0.0540
_reflns_Friedel_coverage         0.000
_reflns_number_gt                316
_reflns_number_total             316
_reflns_threshold_expression     'I > 2\s(I)'
_cod_data_source_file            c6mh00053c2.cif
_cod_data_source_block           ma2kbicl6_abs4
_cod_depositor_comments          'Adding full bibliography for 1543136.cif.'
_cod_original_cell_volume        1116.72(7)
_cod_database_code               1543136
_chemical_oxdiff_formula         'C2 N2 H12 K Bi Cl6'
_shelx_space_group_comment
;
The symmetry employed for this shelxl refinement is uniquely defined
by the following loop, which should always be used as a source of
symmetry information in preference to the above space-group names.
They are only intended as comments.
;
_reflns_odcompleteness_completeness 100.00
_reflns_odcompleteness_iscentric 1
_reflns_odcompleteness_theta     26.32
_olex2_refinement_description
;
;
_shelx_res_file
;
    ma2kbicl6_abs4.res created by SHELXL-2014/7

TITL ma2kbicl6_abs4_a.res in R-3m
REM Old TITL MA2KBiCl6_abs4 in R3m #160
REM SHELXT solution in R-3m
REM R1 0.074, Rweak 0.299, Alpha 0.052, Orientation as input
REM Formula found by SHELXT: C2 N2 Cl6 K Bi
CELL 0.71073 7.837191 7.837191 20.993812 90 90 120
ZERR 3 0.000215 0.000215 0.000706 0 0 0
LATT 3
SYMM -Y,+X-Y,+Z
SYMM +Y-X,-X,+Z
SYMM +Y,+X,-Z
SYMM -Y+X,-Y,-Z
SYMM -X,-X+Y,-Z
SFAC Bi C Cl K N
UNIT 3 6 18 3 6

L.S. 4 0 0
PLAN  20
BOND $H
LIST 6
fmap 2 53
acta
REM <olex2.extras>
REM <HklSrc "%.\\MA2KBiCl6_abs4.hkl">
REM </olex2.extras>

WGHT    0.028600
FVAR       0.24811
BI01  1    0.666667    0.333333    0.333333    10.08333    0.02689    0.02689 =
         0.03454    0.00000    0.00000    0.01345
K002  4    0.333333    0.666667    0.166667    10.08333    0.03899    0.03899 =
         0.03117    0.00000    0.00000    0.01950
CL03  3    0.502919    0.497081    0.261891    10.50000    0.14478    0.14478 =
         0.08485    0.02032   -0.02032    0.11759
C004  2    0.333333    0.666667    0.445597    10.16667    0.15338    0.15338 =
         0.05681    0.00000    0.00000    0.07669
N005  5    0.333333    0.666667    0.381473    10.16667    0.16456    0.16456 =
         0.07018    0.00000    0.00000    0.08228
HKLF 4

REM  ma2kbicl6_abs4_a.res in R-3m
REM R1 =  0.0226 for     316 Fo > 4sig(Fo)  and  0.0226 for all     316 data
REM     17 parameters refined using      0 restraints

END

WGHT      0.0285      0.0000

REM Highest difference peak  0.653,  deepest hole -0.689,  1-sigma level  0.144
Q1    1   0.7540  0.5079  0.2650  10.50000  0.05    0.65
Q2    1   0.7199  0.4397  0.2469  10.50000  0.05    0.52
Q3    1   0.3333  0.6667  0.5318  10.16667  0.05    0.50
Q4    1   0.7797  0.5593  0.2170  10.50000  0.05    0.42
Q5    1   0.2779  0.7221  0.4574  10.50000  0.05    0.39
Q6    1   0.4682  0.5318  0.5190  10.50000  0.05    0.35
Q7    1   0.3885  0.6115  0.4983  10.50000  0.05    0.35
Q8    1   0.8293  0.6585  0.2881  10.50000  0.05    0.35
Q9    1   0.4162  0.8324  0.4593  10.50000  0.05    0.33
Q10   1   0.2538  0.7462  0.3734  10.50000  0.05    0.33
Q11   1   0.2495  0.7505  0.5078  10.50000  0.05    0.33
Q12   1   0.2022  0.4044  0.4648  10.50000  0.05    0.32
Q13   1   0.7139  0.4278  0.3662  10.50000  0.05    0.32
Q14   1   0.1658  0.7537  0.4584  11.00000  0.05    0.31
Q15   1   0.1709  0.3417  0.1839  10.50000  0.05    0.29
Q16   1   0.1922  0.7003  0.4292  11.00000  0.05    0.27
Q17   1   0.4141  0.8281  0.3525  10.50000  0.05    0.26
Q18   1   0.4582  0.3968  0.2484  11.00000  0.05    0.25
Q19   1   0.3333  0.6667  0.2854  10.16667  0.05    0.23
Q20   1   0.3023  0.4036  0.2132  11.00000  0.05    0.23
;
_shelx_res_checksum              70995
_shelx_hkl_file
;
   0   0 -24  269.30   35.01
   0   0 -21   96.52   18.44
   0   0 -18  628.13   44.61
   0   0 -15 1402.42   59.74
   0   0 -12 2739.54   74.80
   0   0  -9  154.96   14.50
   0   0  -6  102.50   10.01
   0   0  -3 3305.75   39.56
   0   0   3 3347.51   39.33
   0   0   6   78.71    8.13
   0   0   9  123.34   12.80
   0   0  12 2863.07   74.02
   0   0  15 1348.89   56.51
   0   0  18  680.60   45.72
   0   0  21   74.82   15.67
   0   0  24  231.49   31.22
  -1   0 -25  118.69   24.88
   0   1 -22  328.71   36.52
  -1   0 -22  354.26   37.99
   0   1 -19  147.92   22.72
   1  -1 -19  143.12   20.54
  -1   0 -19  156.01   22.10
   0   1 -16  608.15   43.42
   1  -1 -16  727.65   41.55
  -1   0 -16  732.73   45.87
   0   1 -13 1217.13   54.93
   1  -1 -13 1166.10   47.18
  -1   0 -13 1187.40   52.38
   1  -1 -10 3326.97   66.96
   0   1 -10 3222.71   79.20
  -1   0 -10 3487.77   77.59
  -1   0  -7  812.48   31.72
   1  -1  -7  816.41   26.45
   0   1  -7  785.09   33.52
   1  -1  -4 3091.09   33.55
  -1   0  -4 3047.78   50.98
   0   1  -1 2355.14   28.87
  -1   0  -1 2219.30   35.13
   0   1   2 4545.23   52.58
   1  -1   5 1813.58   30.08
  -1   0   5 1710.27   42.04
   0   1   5 1822.10   42.93
   0   1   8 1956.24   53.19
   1  -1   8 1877.86   42.68
  -1   0   8 1914.67   53.13
  -1   0  11  652.20   35.45
   1  -1  11  646.90   30.27
   0   1  11  671.91   36.06
  -1   0  14 1855.80   67.96
   0   1  14 1779.92   66.86
   1  -1  14 1764.80   58.88
   1  -1  17  525.50   36.21
  -1   0  17  495.66   37.99
   0   1  17  466.58   37.21
  -1   0  20  423.49   39.94
   0   1  20  394.72   37.40
   1  -1  20  381.52   34.12
   0   1  23  118.74   22.58
  -1   0  23  121.36   22.95
  -1   0  26  168.68   27.85
   0   1  26  123.94   24.70
  -1   1 -26  117.15   24.07
  -1   1 -23  149.83   26.70
   0  -1 -20  403.76   36.83
   1   0 -20  464.40   38.81
  -1   1 -20  414.89   39.33
   1   0 -17  523.86   38.24
  -1   1 -17  522.84   41.25
   0  -1 -17  492.82   37.92
   1   0 -14 1853.32   65.63
  -1   1 -14 1813.39   68.30
   0  -1 -14 1691.52   61.60
   1   0 -11  642.69   34.41
   0  -1 -11  663.88   33.81
  -1   1 -11  681.26   36.68
  -1   1  -8 1946.83   54.65
   1   0  -8 1917.52   51.09
   0  -1  -8 1829.61   46.35
   0  -1  -5 1721.20   37.02
  -1   1  -5 1800.73   43.54
  -1   1  -2 4504.42   51.13
  -1   1   1 2369.81   36.57
  -1   1   1 2400.29   30.38
   1   0   4 3028.34   44.86
  -1   1   4 3073.48   51.35
   1   0   7  856.71   29.83
  -1   1   7  767.70   32.73
   0  -1   7  796.65   29.29
  -1   1  10 3319.47   80.05
   0  -1  10 3369.03   72.02
   1   0  10 3383.12   71.44
   0  -1  13 1144.78   48.47
  -1   1  13 1243.56   54.67
   1   0  13 1237.02   49.99
   1   0  16  651.38   41.44
  -1   1  16  700.32   45.58
   0  -1  16  692.05   42.44
   1   0  19  177.59   22.48
  -1   1  19  147.55   22.70
   0  -1  19  141.31   21.00
   0  -1  22  325.10   34.55
  -1   1  22  300.31   35.00
   1   0  22  290.26   32.47
  -1   1  25  116.90   23.18
  -2   0 -23  254.92   34.50
  -2   0 -20  472.75   43.17
  -2   0 -17  115.80   18.94
   2  -2 -14  831.08   37.56
  -2   0 -14  779.19   45.51
  -2   0 -11 1931.07   65.79
   2  -2 -11 1908.06   48.45
  -2   0  -8 5177.90   95.59
   2  -2  -8 5279.56   62.46
  -2   0  -5  460.97   24.82
   0   2  -2   67.99    4.37
   0   2  -2   77.97    7.31
  -2   0  -2   65.19    8.29
  -2   0   1 1172.56   31.33
   0   2   1 1279.67   36.87
   0   2   4 9845.08  112.54
   0   2   7 2871.12   68.99
   2  -2   7 2794.88   38.52
   2  -2  10  740.77   27.91
   0   2  10  775.53   40.85
   2  -2  13  115.31   13.24
  -2   0  13  144.75   19.01
   0   2  13  130.37   19.61
   0   2  16 1062.49   57.59
  -2   0  16 1062.69   58.67
   0   2  19  522.44   44.27
  -2   0  19  494.77   44.22
   0   2  22  316.74   37.23
   0   2  25   31.05   15.62
  -2   1 -24  275.30   36.28
  -1  -1 -24  274.11   36.20
  -1   2 -24  278.46   37.64
  -1   2 -21  287.82   35.22
  -1  -1 -21  248.34   31.81
  -2   1 -21  254.89   31.44
  -1   2 -18  831.50   55.56
  -2   1 -18  805.07   53.37
  -1  -1 -18  718.41   48.72
  -1  -1 -15  240.17   24.78
  -1   2 -15  262.99   28.53
  -2   1 -15  305.10   29.54
   1  -2 -15  278.67   24.31
   2  -1 -15  261.70   23.17
  -1  -1 -12  954.71   44.35
  -1   2 -12 1001.35   50.64
   1  -2 -12  980.26   40.46
  -2   1 -12 1062.29   49.80
   1  -2  -9 1526.64   41.78
  -1  -1  -9 1557.06   50.78
  -1   2  -9 1575.92   55.73
  -2   1  -9 1500.58   52.59
  -1  -1  -6 4373.60   76.33
  -1   2  -6 4087.39   78.70
   1  -2  -6 4287.53   56.04
  -2   1  -6 4339.03   75.92
  -2   1  -3 1434.20   36.10
  -1  -1  -3 1427.81   38.71
  -2   1   0 3288.54   52.36
  -2   1   0 3318.47   42.83
  -1   2   0 3489.14   44.91
  -2   1   0 3409.67   58.52
  -1   2   0 3412.29   48.12
  -1   2   0 3570.15   55.56
  -1   2   3 1323.23   35.44
   1   1   3 1242.83   36.29
  -1   2   6 4212.33   76.48
   1   1   6 4066.18   72.46
   2  -1   6 4150.80   53.26
  -2   1   6 4201.65   76.66
  -2   1   9 1481.40   52.50
  -1   2   9 1588.59   54.15
   1   1   9 1554.64   50.95
   2  -1   9 1477.52   40.38
   2  -1  12 1011.17   39.09
   1   1  12  974.17   46.31
  -1   2  12 1027.68   49.42
  -2   1  12 1000.18   48.89
   1   1  15  275.85   27.01
   2  -1  15  267.66   23.30
   1  -2  15  274.65   24.17
  -1   2  15  277.14   28.23
  -2   1  15  290.52   29.75
   1  -2  18  754.99   44.37
  -1   2  18  831.46   54.92
   1   1  18  728.56   49.47
  -2   1  18  803.21   52.81
   2  -1  18  762.80   43.75
  -1   2  21  257.18   33.06
  -2   1  21  260.26   32.40
   1   1  21  255.59   31.86
   1   1  24  220.62   32.31
  -1   2  24  189.26   31.23
  -2   1  24  183.85   29.67
  -2   2 -25   65.20   19.73
  -2   2 -22  345.58   39.44
  -2   2 -19  511.25   45.02
   0  -2 -19  512.56   40.88
   0  -2 -16  952.03   50.52
  -2   2 -16  974.45   56.08
  -2   2 -13  119.62   17.74
   0  -2 -13  143.90   17.08
  -2   2 -10  743.81   39.87
   0  -2 -10  769.40   35.50
   0  -2  -7 2752.99   58.96
  -2   2  -7 2698.82   67.71
   0  -2  -4 9970.26  101.78
  -2   2  -4 9999.00  108.48
  -2   2  -1 1251.64   29.38
  -2   2  -1 1243.17   38.54
  -2   2  -1 1263.57   38.47
  -2   2  -1 1200.55   19.24
  -2   2   2   67.21    9.03
  -2   2   2   71.18    7.48
  -2   2   5  404.05   22.64
   2   0   5  371.59   20.24
   2   0   8 5632.75   88.18
  -2   2   8 5215.99   95.80
   2   0  11 1949.81   58.30
  -2   2  11 2104.13   69.71
   2   0  14  815.58   42.77
  -2   2  14  844.17   49.70
  -2   2  17   98.11   18.81
   2   0  17  105.73   16.13
  -2   2  20  424.05   41.96
   2   0  20  481.21   40.29
  -2   2  23  231.87   32.53
  -3   0 -24  206.53   31.88
  -3   0 -21  234.57   31.96
  -3   0 -18  583.79   47.28
  -3   0 -15  206.12   25.30
  -3   0 -12  907.74   50.28
  -3   0  -9 1217.20   54.72
  -3   0  -6 2746.04   73.70
   0   3  -3  971.45   18.49
  -3   0  -3 1066.68   41.88
  -3   0   0 2634.01   59.24
  -3   0   0 2664.71   59.38
   0   3   3 1422.42   48.79
  -3   0   3 1341.85   30.11
  -3   0   3 1303.49   39.46
   0   3   6 2346.25   68.15
   0   3   9  739.97   41.77
   0   3  12 1099.97   54.47
   0   3  15  461.70   39.18
   0   3  18  602.26   48.01
   0   3  21  163.03   27.30
   0   3  24  186.20   30.82
  -2  -1 -22  349.50   39.46
  -3   1 -22  265.59   35.74
  -2  -1 -19  232.87   29.50
  -3   1 -19  250.88   31.33
  -3   1 -16  621.53   44.77
  -2  -1 -16  605.61   43.25
  -2  -1 -13  625.66   41.46
  -3   1 -13  618.23   41.07
  -3   1 -10 2096.41   69.13
  -2  -1 -10 2183.23   70.65
   2  -3 -10 2027.13   45.40
  -2  -1  -7 1039.09   44.45
  -3   1  -7 1002.70   43.46
   2  -3  -7 1069.40   26.62
  -3   1  -4 2438.49   59.59
  -2  -1  -4 2409.61   63.00
  -1   3  -1 1419.40   38.56
  -1   3  -1 1425.72   41.38
  -3   1  -1 1266.08   37.59
  -1   3  -1 1357.54   32.69
  -3   1  -1 1264.60   44.04
  -3   1   2 3539.57   70.50
  -2  -1   2 3521.67   46.77
  -3   1   2 3648.28   54.92
  -1   3   2 3499.71   65.08
  -3   1   2 3575.43   61.09
   1   2   5 1659.55   52.69
  -1   3   5 1659.78   52.12
   1   2   8 1253.81   50.27
  -1   3   8 1340.69   52.89
   3  -2   8 1239.77   27.90
   1   2  11  366.37   29.64
  -1   3  11  364.52   29.47
  -3   1  11  398.31   32.41
   3  -2  11  321.43   18.88
  -1   3  14 1326.93   63.63
   1   2  14 1375.20   62.32
  -3   1  14 1369.36   66.35
  -1   3  17  526.65   43.76
   1   2  17  518.74   41.81
  -3   1  17  554.52   45.01
  -3   1  20  364.32   38.94
  -1   3  20  332.41   37.39
   1   2  20  381.70   39.26
  -1   3  23   91.53   22.61
  -3   1  23   47.71   12.37
   1   2  23  104.05   22.35
  -3   2 -23   82.54   20.84
  -2   3 -23   58.91   19.28
  -1  -2 -23   64.72   16.69
  -2   3 -20  362.07   39.87
  -1  -2 -20  360.61   37.07
  -3   2 -20  366.28   37.89
  -2   3 -17  564.16   45.33
  -3   2 -17  566.70   45.32
  -1  -2 -17  495.48   38.72
  -3   2 -14 1336.76   63.65
  -2   3 -14 1365.11   65.28
  -1  -2 -14 1273.83   57.49
   1  -3 -14 1367.40   52.80
   1  -3 -11  366.89   24.38
  -3   2 -11  339.80   28.36
  -2   3 -11  332.06   29.70
  -1  -2 -11  396.02   29.37
  -3   2  -8 1347.94   50.85
   1  -3  -8 1317.36   40.45
  -1  -2  -8 1332.94   50.09
  -2   3  -8 1331.03   51.92
  -2   3  -5 1690.26   51.38
  -1  -2  -5 1712.71   52.02
   1  -3  -5 1600.72   40.65
  -3   2  -5 1669.75   49.58
  -2   3  -2 3517.51   68.41
  -2   3  -2 3599.32   74.66
  -3   2  -2 3553.14   76.44
  -2   3  -2 3532.73   43.96
  -3   2  -2 3589.50   60.01
  -3   2   1 1215.09   43.01
  -2   3   1 1404.54   35.27
  -3   2   1 1124.51   39.65
  -2   3   1 1410.13   44.80
  -3   2   1 1289.64   27.42
  -2   3   1 1330.59   40.74
   2   1   4 2374.36   62.13
  -3   2   4 2553.70   26.26
  -3   2   4 2476.16   57.86
  -2   3   4 2313.16   55.32
  -3   2   7  997.86   42.45
   3  -1   7 1011.02   32.81
   2   1   7  914.40   39.65
  -2   3   7  985.04   41.87
  -3   2  10 2107.14   70.67
   3  -1  10 2126.38   53.76
  -2   3  10 2139.79   70.27
   2   1  10 2033.12   65.38
  -3   2  13  637.23   42.27
   3  -1  13  673.05   34.36
   2   1  13  682.91   40.93
  -2   3  13  643.14   42.20
  -3   2  16  661.94   48.36
   2   1  16  622.05   43.23
  -2   3  16  659.02   48.06
  -2   3  19  250.99   31.47
  -3   2  19  247.61   32.06
   2   1  19  203.42   26.86
  -2   3  22  281.43   35.31
  -3   2  22  270.27   35.61
   2   1  22  332.51   36.15
  -3   3 -24  170.15   30.63
  -3   3 -21  123.89   24.05
  -3   3 -18  614.22   49.21
   0  -3 -18  555.83   42.17
   0  -3 -15  469.07   35.29
  -3   3 -15  520.32   41.25
  -3   3 -12 1123.12   55.97
   0  -3 -12 1059.97   48.04
  -3   3  -9  774.22   41.88
   0  -3  -9  703.29   35.75
   0  -3  -6 2267.64   60.46
  -3   3  -6 2192.77   62.63
  -3   3  -3 1395.25   50.26
  -3   3  -3 1370.21   41.88
  -3   3   0 2595.48   45.68
  -3   3   0 2534.54   41.50
  -3   3   0 2677.22   66.12
  -3   3   0 2706.67   67.52
  -3   3   3 1076.41   41.19
  -3   3   3 1034.92   41.41
  -3   3   3 1103.92   35.85
   3   0   6 2550.49   65.17
  -3   3   6 2649.04   66.53
  -3   3   9 1195.46   51.07
   3   0   9 1287.97   48.08
   3   0  12  894.67   43.45
  -3   3  12  820.37   47.77
  -3   3  15  198.81   26.81
   3   0  15  205.11   22.80
  -3   3  18  580.10   48.62
  -3   3  21  211.62   31.75
  -3   3  24  188.63   31.60
  -4   0 -22  237.70   35.09
  -4   0 -19  268.51   35.46
  -4   0 -16  696.48   52.18
  -4   0 -13  192.69   25.02
  -4   0 -10  658.31   44.19
  -4   0  -7 1179.85   55.12
  -4   0  -4 3640.91   89.69
  -4   0  -1  831.45   39.32
   0   4  -1  781.09   32.18
  -4   0  -1  824.95   40.56
  -4   0   2  391.96   25.61
   0   4   2  378.38   28.40
   0   4   5  484.80   33.74
   0   4   8 2663.00   85.25
   0   4  11 1259.84   62.93
   0   4  14  534.34   43.75
   0   4  17   82.84   17.77
   0   4  20  290.49   37.80
   0   4  23  163.17   28.73
  -4   1 -23   98.09   22.73
  -3  -1 -23   77.32   19.43
  -4   1 -20  321.25   38.25
  -3  -1 -20  314.47   37.18
  -3  -1 -17  365.63   37.67
  -4   1 -17  388.65   39.07
  -3  -1 -14 1028.80   58.40
  -4   1 -14  925.12   55.55
  -3  -1 -11  424.92   35.54
  -4   1 -11  393.75   33.22
  -4   1  -8 1104.96   51.27
  -3  -1  -8 1146.33   53.86
  -1   4  -5 1101.24   34.53
  -4   1  -5 1215.90   49.18
  -3  -1  -5 1276.34   52.70
   3  -4  -5 1160.08   24.00
   1   3  -2 3008.26   50.12
  -1   4  -2 3095.50   52.29
  -3  -1  -2 2923.08   73.58
  -4   1  -2 3003.68   70.25
  -4   1  -2 3118.14   79.31
  -4   1   1 1172.80   46.53
  -4   1   1 1161.03   40.39
  -1   4   1 1164.74   43.05
  -1   4   1 1114.53   41.75
  -3  -1   1 1186.98   36.65
   1   3   4 1261.26   53.02
  -4   1   4 1192.11   39.24
  -1   4   4 1209.32   48.08
  -4   1   4 1195.60   45.70
  -1   4   7  553.66   35.63
   1   3   7  517.94   35.77
   1   3  10 1875.97   72.04
  -1   4  10 1915.01   72.20
   1   3  13  795.04   50.19
  -1   4  13  853.28   52.57
   1   3  16  474.36   41.71
  -1   4  16  484.27   41.50
   1   3  19   88.05   18.87
  -1   4  19   95.91   20.93
  -1   4  22  249.28   35.27
   1   3  22  242.36   35.32
  -4   2 -21   94.59   20.29
  -2  -2 -21   60.18   16.41
  -2  -2 -18  399.13   38.52
  -4   2 -18  460.07   43.09
  -4   2 -15  753.95   50.91
  -2  -2 -15  772.45   49.91
  -4   2 -12 1647.79   69.33
  -2  -2 -12 1488.87   65.97
  -2  -2  -9  224.31   22.95
   2  -4  -9  254.88   17.66
  -4   2  -9  230.65   23.34
   2  -4  -6  536.08   24.02
  -2  -2  -6  533.88   34.01
  -4   2  -6  498.72   30.93
  -2   4  -3 1598.48   55.17
  -2   4  -3 1538.59   38.07
  -2   4  -3 1515.60   46.88
  -4   2  -3 1574.74   48.43
  -4   2   0 6262.07  103.52
  -4   2   0 6029.79   82.43
  -4   2   0 6248.22  113.16
  -2   4   0 6146.64   90.63
  -2   4   0 6384.41   86.75
  -4   2   3 1466.39   47.95
  -4   2   3 1534.81   56.47
  -2   4   3 1533.55   48.39
  -4   2   3 1551.81   35.05
   4  -2   6  486.27   20.08
   2   2   6  468.86   32.65
  -2   4   6  518.52   31.04
  -4   2   9  246.26   25.05
   2   2   9  251.15   25.81
  -2   4   9  232.18   23.21
  -4   2  12 1501.71   68.36
   2   2  12 1601.70   69.34
  -2   4  12 1406.22   64.40
  -4   2  15  747.91   52.05
   2   2  15  725.10   47.90
  -2   4  15  761.16   51.58
  -4   2  18  401.25   41.32
  -2   4  18  396.59   39.97
   2   2  18  480.05   43.26
   2   2  21   78.58   18.81
  -2   4  21   64.02   16.27
  -4   2  21   55.01   13.87
  -4   3 -22  230.43   34.69
  -3   4 -22  240.14   35.29
  -4   3 -19   83.02   17.01
  -1  -3 -19   80.02   16.90
  -3   4 -19   99.90   21.90
  -4   3 -16  456.43   40.52
  -3   4 -16  492.45   42.90
  -1  -3 -16  506.34   39.82
  -4   3 -13  829.83   51.11
  -3   4 -13  769.61   50.09
  -1  -3 -13  814.90   47.86
   1  -4 -13  871.33   44.17
  -4   3 -10 1824.43   69.24
  -3   4 -10 1808.46   69.86
   1  -4 -10 1918.46   59.58
  -1  -3 -10 1799.65   65.34
  -4   3  -7  508.03   32.57
  -1  -3  -7  512.33   33.62
  -3   4  -7  517.41   32.99
   1  -4  -7  539.75   29.58
  -4   3  -4 1283.24   45.43
  -4   3  -4 1327.02   56.26
  -3   4  -4 1198.27   48.65
  -3   4  -4 1145.22   23.04
  -4   3  -1 1256.45   38.01
  -3   4  -1 1164.52   46.43
  -3   4  -1 1208.34   31.05
  -4   3  -1 1198.00   49.89
  -3   4  -1 1048.58   46.37
  -4   3  -1 1200.38   51.56
  -4   3   2 2862.33   73.14
  -4   3   2 2961.86   43.55
  -4   3   2 3001.19   62.58
  -3   4   2 3257.13   76.36
  -4   3   2 3009.83   79.69
  -3   4   2 3221.48   80.25
  -3   4   2 3252.77   63.63
  -4   3   5 1177.33   44.84
   3   1   5 1132.41   49.96
  -3   4   5 1078.65   42.63
  -4   3   8 1024.16   48.19
   4  -1   8 1029.30   40.37
   3   1   8 1091.98   48.89
  -3   4   8 1041.62   47.85
  -4   3  11  410.53   33.78
  -3   4  11  408.17   32.74
   4  -1  11  399.81   27.35
   3   1  11  396.78   31.74
  -4   3  14 1003.52   58.99
   3   1  14  963.07   53.49
  -3   4  14  993.37   58.09
  -4   3  17  341.18   35.99
  -3   4  17  308.74   33.84
   3   1  17  416.54   38.50
  -3   4  20  288.94   36.77
  -4   3  20  323.12   38.39
  -3   4  23   72.79   19.59
  -4   3  23   48.80   16.29
  -4   4 -23  158.39   29.19
  -4   4 -20  251.04   35.01
  -4   4 -17   65.87   13.32
   0  -4 -14  616.78   41.69
  -4   4 -14  506.23   42.18
  -4   4 -11 1086.37   56.84
   0  -4 -11 1132.34   52.92
  -4   4  -8 2596.26   79.33
   0  -4  -8 2496.52   74.22
  -4   4  -5  469.90   34.45
  -4   4  -5  445.64   28.85
  -4   4  -2  386.15   14.55
  -4   4  -2  430.47   24.59
  -4   4  -2  419.87   31.85
  -4   4  -2  377.58   29.97
  -4   4   1  791.83   29.14
  -4   4   1  839.78   43.53
  -4   4   1  788.43   41.99
  -4   4   4 3993.86   93.06
  -4   4   4 3985.22   79.38
   4   0   7 1268.49   51.95
  -4   4   7 1276.73   51.56
   4   0  10  690.80   40.40
  -4   4  10  648.84   40.98
   4   0  13  178.01   21.97
  -4   4  13  188.66   24.88
  -4   4  16  546.83   45.66
  -4   4  19  316.81   37.21
  -4   4  22  245.87   36.73
  -5   0 -20  228.15   33.34
  -5   0 -17  323.19   38.84
  -5   0 -14  539.60   46.20
  -5   0 -11  298.62   32.07
  -5   0  -8  957.93   54.69
  -5   0  -5  662.82   41.82
  -5   0  -2 1135.95   52.48
  -5   0  -2 1078.47   50.54
   0   5  -2 1143.99   45.15
   0   5   1  568.00   39.27
  -5   0   1  575.53   35.51
   0   5   1  505.66   30.05
  -5   0   1  592.57   35.61
   0   5   4 1417.68   63.81
  -5   0   4 1351.90   52.04
   0   5   7  704.77   47.61
   0   5  10  741.82   51.40
   0   5  13  201.54   27.91
   0   5  16  357.50   39.96
   0   5  19  173.94   30.31
  -5   1 -21   95.08   21.11
  -4  -1 -21   85.10   20.23
  -4  -1 -18  344.63   38.82
  -5   1 -18  403.65   42.09
  -4  -1 -15  250.37   31.51
  -5   1 -15  297.08   34.64
  -5   1 -12  653.10   47.64
  -4  -1 -12  700.53   50.65
  -4  -1  -9  560.08   41.15
  -5   1  -9  510.49   39.10
  -5   1  -6 1460.82   61.53
  -4  -1  -6 1382.72   62.06
  -5   1  -3  763.97   44.60
  -4  -1  -3  746.29   42.94
  -5   1  -3  774.79   40.50
  -1   5   0 1136.98   48.70
  -1   5   0 1033.53   44.62
  -4  -1   0 1123.35   43.44
   1   4   0 1035.24   34.95
  -5   1   0 1186.02   47.30
  -5   1   0 1157.19   52.45
  -4  -1   3  605.80   28.81
  -5   1   3  563.43   35.85
  -5   1   3  553.71   30.50
   1   4   3  579.07   41.06
  -1   5   3  610.84   37.05
  -1   5   6 1674.86   66.26
   1   4   6 1702.27   70.48
   1   4   9  881.30   54.92
  -1   5   9  883.35   51.91
   1   4  12  542.37   44.68
  -1   5  12  528.00   42.79
   1   4  15  102.17   20.45
  -1   5  15  129.87   22.66
   1   4  18  358.23   41.19
  -1   5  18  332.34   38.74
   1   4  21  214.93   34.00
  -1   5  21  188.71   33.34
  -3  -2 -22  214.31   32.48
  -5   2 -22  128.37   24.26
  -3  -2 -19   92.53   19.97
  -5   2 -19  113.22   22.99
  -5   2 -16  505.17   45.10
  -3  -2 -16  528.97   45.63
  -3  -2 -13  567.64   44.28
  -5   2 -13  528.19   42.99
  -3  -2 -10 1295.99   63.20
  -5   2 -10 1245.46   59.83
  -2   5  -7  480.31   29.11
  -3  -2  -7  477.23   35.98
  -5   2  -7  518.65   35.40
  -2   5  -4 1300.28   44.69
  -3  -2  -4 1270.08   56.26
  -2   5  -4 1271.79   43.33
  -5   2  -4 1358.99   52.64
  -2   5  -1 1066.40   46.80
  -2   5  -1 1092.36   40.19
  -5   2  -1  995.90   40.52
  -5   2   2 1422.95   59.88
  -5   2   2 1484.20   43.74
  -3  -2   2 1515.45   33.94
  -5   2   2 1565.51   55.39
  -2   5   2 1475.20   56.58
  -2   5   2 1509.28   52.40
  -5   2   5  641.06   27.43
  -5   2   5  574.36   32.34
   2   3   5  699.24   44.42
  -2   5   5  685.42   38.91
   2   3   8 1254.83   61.89
  -2   5   8 1292.50   57.54
   2   3  11  600.38   44.71
  -2   5  11  566.52   41.51
   2   3  14  627.04   48.35
  -2   5  14  687.77   49.93
   2   3  17  168.90   26.81
  -2   5  17  155.13   25.98
  -2   5  20  213.61   31.79
   2   3  20  307.58   38.80
  -2  -3 -20  266.38   34.96
  -5   3 -20  266.93   37.16
  -2  -3 -17  165.75   23.61
  -5   3 -17  134.53   23.26
  -5   3 -14  636.18   48.22
  -2  -3 -14  658.40   48.34
  -5   3 -11  603.23   42.59
  -2  -3 -11  568.52   41.14
  -2  -3  -8 1262.64   58.62
  -5   3  -8 1288.21   56.65
  -2  -3  -5  616.04   39.18
  -5   3  -5  596.28   34.56
  -3   5  -5  655.55   37.69
  -5   3  -2 1607.49   66.40
  -3   5  -2 1514.20   54.44
  -3   5  -2 1591.80   41.92
  -3   5  -2 1471.45   59.44
  -5   3  -2 1630.60   50.18
  -5   3   1  949.48   50.71
  -3   5   1 1061.64   49.61
  -5   3   1  951.68   46.34
  -3   5   1 1133.09   40.31
  -5   3   1  915.19   32.63
  -5   3   4 1375.77   53.90
  -3   5   4 1268.44   47.97
  -5   3   4 1246.06   56.89
   3   2   7  488.25   38.06
  -5   3   7  487.18   32.38
  -3   5   7  482.14   33.64
  -5   3  10 1128.22   58.65
   3   2  10 1184.76   60.83
  -3   5  10 1142.00   57.26
  -5   3  13  496.35   41.82
   3   2  13  618.45   45.91
  -3   5  13  548.03   43.29
  -5   3  16  409.20   41.31
   3   2  16  472.10   42.87
  -3   5  16  337.84   36.67
   3   2  19  115.30   23.33
  -3   5  19   93.39   21.19
  -5   3  19   66.73   15.19
  -3   5  22  167.65   30.24
  -5   3  22  171.07   30.90
  -5   4 -21  155.92   27.92
  -4   5 -21  178.62   28.13
  -5   4 -18  372.51   39.85
  -4   5 -18  328.41   38.17
  -1  -4 -18  342.31   37.02
  -5   4 -15  100.91   19.25
  -4   5 -15  153.77   24.81
  -1  -4 -15  131.20   21.90
  -1  -4 -12  530.71   39.93
  -5   4 -12  565.27   43.31
  -4   5 -12  499.63   41.16
  -5   4  -9  893.80   49.64
  -4   5  -9  859.63   49.31
   1  -5  -9  898.38   45.33
  -1  -4  -9  888.83   49.13
  -5   4  -6 1667.96   61.58
  -1  -4  -6 1614.25   64.51
  -5   4  -6 1837.71   76.13
  -4   5  -6 1615.37   66.71
  -5   4  -3  591.56   32.12
  -4   5  -3  577.57   39.47
  -5   4  -3  591.83   42.07
  -4   5  -3  611.43   38.79
  -5   4   0 1212.90   58.19
  -5   4   0 1163.94   37.94
  -4   5   0 1089.62   51.65
  -4   5   0 1133.07   52.20
  -5   4   0 1117.43   53.53
  -4   5   0 1033.78   35.28
  -5   4   3  779.79   35.67
  -5   4   3  705.30   41.82
  -5   4   3  762.34   45.65
  -4   5   3  923.90   48.79
  -4   5   3  858.42   37.44
  -5   4   6 1601.78   58.26
  -5   4   6 1597.81   61.90
   4   1   6 1388.60   62.20
  -4   5   6 1406.66   54.73
  -5   4   9  496.70   36.40
   4   1   9  539.85   39.83
  -4   5   9  531.00   37.21
  -5   4  12  629.63   45.70
  -4   5  12  595.54   44.15
  -4   5  15  265.28   32.52
  -5   4  15  221.22   29.31
   4   1  15  312.47   33.89
  -4   5  18  361.99   40.42
  -5   4  18  320.87   38.06
  -4   5  21   80.37   20.25
  -5   4  21  109.14   23.90
  -5   5 -19  263.99   36.11
  -5   5 -16  409.86   41.14
  -5   5 -13  163.97   24.06
   0  -5 -13  193.93   24.32
  -5   5 -10  670.43   46.04
   0  -5 -10  659.15   43.36
  -5   5  -7  735.49   43.81
  -5   5  -7  701.87   47.85
   0  -5  -7  741.57   44.35
  -5   5  -4 1417.29   54.06
  -5   5  -4 1471.77   67.69
  -5   5  -1  616.36   42.51
  -5   5  -1  602.29   42.28
  -5   5   2 1075.62   38.93
  -5   5   2  996.95   51.96
  -5   5   2 1039.54   54.50
  -5   5   5  705.70   37.66
  -5   5   5  692.11   44.69
  -5   5   8  785.14   45.52
   5   0   8  792.42   46.78
  -5   5  11  276.73   28.92
  -5   5  14  477.06   42.74
  -5   5  17  200.86   29.01
  -5   5  20  230.26   34.71
  -6   0 -18  219.27   34.43
  -6   0 -15  212.67   31.84
  -6   0 -12  537.95   48.25
  -6   0  -9  209.30   27.92
  -6   0  -6  411.37   36.63
  -6   0  -3  432.17   35.14
  -6   0  -3  426.44   35.34
  -6   0   0 1300.44   60.83
   0   6   0 1287.69   66.07
  -6   0   0 1271.08   58.23
  -6   0   3  565.37   39.48
   0   6   3  580.23   44.65
   0   6   6  427.20   39.62
   0   6   9  149.84   25.46
   0   6  12  486.40   48.22
   0   6  15  318.06   39.13
   0   6  18  256.17   37.59
  -5  -1 -19   94.18   22.91
  -6   1 -19  123.43   25.80
  -5  -1 -16  327.82   38.88
  -6   1 -16  318.78   38.73
  -5  -1 -13  307.64   36.91
  -6   1 -13  309.05   36.14
  -5  -1 -10  750.16   53.50
  -6   1 -10  785.25   53.00
  -6   1  -7  394.45   35.22
  -5  -1  -7  383.03   35.46
  -5  -1  -4  625.19   43.56
  -6   1  -4  606.26   43.14
  -6   1  -4  643.51   41.86
  -5  -1  -1  514.50   38.33
  -1   6  -1  514.71   33.93
  -6   1  -1  471.15   33.12
  -1   6  -1  523.18   37.05
  -6   1  -1  458.61   37.03
  -6   1   2 1432.80   62.72
  -6   1   2 1297.07   54.68
  -1   6   2 1349.36   57.35
   1   5   2 1485.21   72.05
  -1   6   2 1368.55   61.24
  -6   1   5  652.79   37.97
   1   5   5  722.95   49.44
  -1   6   5  697.80   46.35
   1   5   8  523.22   44.78
  -1   6   8  498.24   40.66
   1   5  11  171.01   26.10
  -1   6  11  152.58   23.65
   1   5  14  559.58   51.84
  -1   6  14  481.91   45.75
  -1   6  17  290.18   36.84
   1   5  17  329.63   41.86
  -4  -2 -20  170.90   28.12
  -6   2 -20  187.61   30.94
  -4  -2 -17   87.46   20.20
  -6   2 -17   85.18   18.41
  -4  -2 -14  463.48   44.49
  -6   2 -14  372.32   39.49
  -4  -2 -11  513.98   43.77
  -6   2 -11  490.40   41.65
  -4  -2  -8 1279.93   65.45
  -6   2  -8 1229.57   61.62
  -4  -2  -5  366.91   33.88
  -6   2  -5  384.67   34.61
  -2   6  -5  420.63   29.12
  -6   2  -5  359.41   30.32
  -2   6  -2  543.26   32.43
  -4  -2  -2  470.53   36.49
  -2   6  -2  507.08   35.22
  -6   2  -2  475.48   39.33
  -6   2  -2  465.51   31.41
  -6   2   1  516.82   38.47
  -2   6   1  489.15   34.53
  -6   2   1  551.84   31.68
  -2   6   1  522.01   33.61
  -2   6   4 1723.41   68.79
   2   4   4 1807.16   81.14
  -6   2   4 1837.01   72.56
  -2   6   4 1807.61   67.44
   2   4   7  794.59   53.23
  -2   6   7  777.88   47.67
   2   4  10  497.19   43.74
  -2   6  10  446.93   38.34
   2   4  13  144.00   25.21
  -2   6  13  131.30   23.25
   2   4  16  474.01   46.92
  -2   6  16  344.26   39.51
   2   4  19  289.43   37.89
  -2   6  19  193.11   31.62
  -3  -3 -18  293.22   36.39
  -6   3 -18  293.82   37.93
  -3  -3 -15  137.12   23.22
  -6   3 -15  131.62   23.37
  -3  -3 -12  443.34   40.31
  -6   3 -12  474.64   41.78
  -3  -3  -9  580.83   44.34
  -6   3  -9  626.46   43.47
  -6   3  -6 1319.91   66.64
  -3  -3  -6 1435.24   67.85
  -3   6  -6 1390.12   55.82
  -6   3  -6 1337.29   57.93
  -3   6  -3  490.49   31.40
  -3   6  -3  469.29   35.82
  -6   3  -3  537.55   42.33
  -6   3  -3  490.24   31.73
  -3   6   0  789.10   45.13
  -3   6   0  823.06   38.11
  -6   3   0  706.69   34.12
  -6   3   0  703.89   47.96
  -3   6   3  490.99   36.25
  -6   3   3  517.82   35.99
  -3   6   3  497.71   31.97
  -6   3   3  500.59   39.07
   3   3   6 1368.67   70.54
  -6   3   6 1343.83   56.68
  -3   6   6 1373.13   58.75
  -6   3   9  657.92   39.89
   3   3   9  619.30   48.79
  -3   6   9  664.73   44.38
   3   3  12  430.97   41.16
  -3   6  12  430.20   38.52
   3   3  15  115.18   24.64
  -3   6  15  102.16   20.22
   3   3  18  293.02   38.09
  -3   6  18  259.86   35.30
  -2  -4 -19  203.81   30.97
  -6   4 -19  226.51   33.33
  -6   4 -16  399.80   42.46
  -2  -4 -16  376.99   38.74
  -2  -4 -13  118.58   21.04
  -6   4 -13  122.55   19.79
  -6   4 -10  467.40   39.55
  -2  -4 -10  447.44   38.06
  -4   6 -10  470.69   38.38
  -6   4  -7  812.37   46.26
  -6   4  -7  733.91   51.42
  -2  -4  -7  838.80   52.30
  -4   6  -7  765.28   47.53
  -4   6  -4 1816.11   69.52
  -6   4  -4 1846.63   63.40
  -6   4  -4 1833.22   80.80
  -4   6  -1  501.88   34.99
  -4   6  -1  491.78   37.17
  -6   4  -1  557.63   42.77
  -6   4   2  433.51   34.03
  -4   6   2  534.10   39.30
  -6   4   2  486.08   38.98
  -4   6   2  548.93   31.01
  -4   6   5  334.81   31.16
  -6   4   5  309.47   27.76
  -4   6   5  363.11   28.45
  -6   4   8 1186.02   57.29
   4   2   8 1241.02   65.50
  -4   6   8 1174.38   56.95
  -6   4  11  487.21   40.33
   4   2  11  462.32   42.80
  -4   6  11  463.61   38.94
  -6   4  14  366.77   38.84
   4   2  14  487.54   45.70
  -4   6  14  376.69   37.97
   4   2  17  100.54   20.94
  -4   6  17   58.92   17.35
  -6   4  17   82.77   18.65
  -4   6  20  227.79   33.41
  -6   4  20  139.51   27.94
  -6   5 -17  256.24   34.19
  -5   6 -17  258.65   33.53
  -6   5 -14  522.00   45.58
  -5   6 -14  454.88   43.76
  -1  -5 -14  426.18   40.09
  -6   5 -11  126.77   20.69
  -5   6 -11  138.08   22.60
  -1  -5 -11  125.00   20.75
  -6   5  -8  515.79   39.47
  -6   5  -8  446.09   41.54
  -5   6  -8  491.58   41.04
  -1  -5  -8  496.08   40.52
   1  -6  -8  526.59   38.53
  -6   5  -5  743.47   42.26
  -6   5  -5  679.01   50.78
  -5   6  -5  683.64   47.28
  -5   6  -2 1412.31   65.78
  -5   6  -2 1313.90   65.26
  -6   5  -2 1448.69   71.31
  -6   5   1  535.69   42.70
  -6   5   1  417.81   36.22
  -5   6   1  486.65   37.99
  -5   6   1  509.93   38.23
  -5   6   4  705.79   46.25
  -6   5   4  609.61   41.84
  -5   6   4  699.21   37.66
  -6   5   7  372.19   30.41
  -5   6   7  267.78   30.23
  -6   5   7  356.12   33.16
   5   1   7  354.63   34.27
  -5   6   7  364.97   30.53
  -6   5  10  753.72   48.57
  -6   5  10  776.61   52.10
   5   1  10  728.50   50.19
  -5   6  10  648.76   44.65
  -6   5  13  305.92   33.63
  -5   6  13  257.74   30.94
   5   1  13  344.07   37.65
  -5   6  16  219.77   30.16
  -6   5  16  267.99   33.77
  -5   6  19   65.84   17.36
  -6   5  19   74.03   18.90
  -6   6 -18  212.94   33.43
  -6   6 -15  343.71   39.17
  -6   6 -12  510.49   48.68
  -6   6 -12  571.45   47.66
  -6   6  -9  164.70   23.30
  -6   6  -9  127.84   21.61
   0  -6  -9  128.04   20.44
  -6   6  -6  400.13   39.62
  -6   6  -3  564.75   45.15
  -6   6   0 1288.09   67.44
  -6   6   0 1198.03   64.36
  -6   6   3  428.59   37.57
  -6   6   6  523.11   41.17
  -6   6   9  264.64   28.07
  -6   6   9  201.96   26.74
  -6   6  12  392.98   37.37
  -6   6  15  155.31   25.20
  -6   6  18  193.63   31.56
  -7   0 -13  127.36   24.61
  -7   0 -10  294.40   35.04
  -7   0  -7  236.73   28.84
  -7   0  -4  547.07   44.33
   0   7  -4  629.92   51.68
  -7   0  -1  274.37   30.79
   0   7  -1  297.55   34.56
  -7   0   2  334.64   32.85
   0   7   2  305.46   35.86
   0   7   5  183.09   27.82
   0   7   8  483.00   46.96
   0   7  11  254.59   36.10
   0   7  14  147.80   28.08
  -6  -1 -14  289.48   37.47
  -7   1 -14  309.99   38.43
  -6  -1 -11  226.14   30.36
  -7   1 -11  204.73   29.07
  -6  -1  -8  435.27   41.08
  -7   1  -8  412.15   39.37
  -7   1  -5  278.03   31.78
  -1   7  -5  374.10   35.91
  -7   1  -5  280.94   30.77
  -6  -1  -5  301.68   33.11
  -6  -1  -2  651.47   47.50
  -7   1  -2  682.71   44.89
  -1   7  -2  699.87   47.67
  -7   1  -2  715.15   49.19
  -7   1   1  435.18   37.42
  -6  -1   1  381.41   35.46
  -7   1   1  472.02   36.67
   1   6   1  394.62   39.86
  -1   7   1  407.31   36.55
  -7   1   4  422.92   37.13
  -1   7   4  405.50   35.26
   1   6   4  435.46   42.34
  -1   7   4  389.46   37.20
   1   6   7  178.84   28.43
  -1   7   7  174.70   27.02
   1   6  10  507.77   49.21
  -1   7  10  530.41   47.23
   1   6  13  303.26   39.76
  -1   7  13  265.43   36.02
   1   6  16  218.63   35.72
  -1   7  16  207.17   33.91
  -5  -2 -15  100.02   21.69
  -7   2 -15  159.53   25.99
  -5  -2 -12  287.27   35.51
  -7   2 -12  355.90   39.20
  -5  -2  -9  322.66   35.56
  -7   2  -9  291.11   31.52
  -7   2  -6  538.48   45.06
  -5  -2  -6  564.38   45.51
  -7   2  -6  570.48   42.28
  -5  -2  -3  347.16   34.54
  -2   7  -3  447.40   35.82
  -7   2  -3  433.78   39.55
  -2   7  -3  447.51   34.13
  -7   2  -3  344.82   30.31
  -7   2   0  779.88   51.72
  -5  -2   0  800.69   50.36
  -2   7   0  815.23   48.33
  -7   2   0  879.55   46.07
  -2   7   0  819.47   47.08
  -2   7   3  429.93   36.57
  -7   2   3  419.05   38.26
   2   5   3  461.40   45.26
  -2   7   3  458.86   36.46
   2   5   6  480.38   45.03
  -2   7   6  463.83   39.72
   2   5   9  187.35   30.57
  -2   7   9  200.98   26.94
   2   5  12  484.57   49.49
  -2   7  12  393.63   40.79
   2   5  15  284.61   40.30
  -2   7  15  267.45   35.65
  -4  -3 -16  282.49   36.58
  -7   3 -16  289.72   36.47
  -4  -3 -13  179.28   29.01
  -7   3 -13  163.32   26.73
  -4  -3 -10  464.43   41.98
  -7   3 -10  438.10   39.03
  -7   3  -7  325.15   36.91
  -4  -3  -7  418.02   39.18
  -7   3  -7  410.53   35.05
  -4  -3  -4  634.40   46.94
  -7   3  -4  721.07   53.11
  -7   3  -4  777.63   44.47
  -3   7  -1  458.81   37.25
  -7   3  -1  398.03   38.54
  -7   3   2  786.22   52.29
  -3   7   2  776.42   49.17
  -3   7   2  833.18   45.35
  -3   7   5  427.14   37.63
   3   4   5  434.17   42.47
  -3   7   5  474.95   36.35
   3   4   8  497.18   45.45
  -3   7   8  431.08   37.25
   3   4  11  163.47   28.31
  -3   7  11  165.32   24.88
   3   4  14  446.98   49.91
  -3   7  14  313.30   36.15
   3   4  17  308.55   40.92
  -3   7  17  168.11   28.73
  -3  -4 -17  164.16   28.55
  -7   4 -17  192.03   30.96
  -7   4 -14  353.99   39.98
  -3  -4 -14  306.49   36.61
  -3  -4 -11  159.29   24.76
  -7   4 -11  146.78   23.62
  -7   4  -8  458.94   38.14
  -7   4  -8  437.84   41.69
  -3  -4  -8  497.61   42.96
  -3  -4  -5  459.95   40.78
  -7   4  -5  443.51   42.26
  -7   4  -5  453.90   34.19
  -4   7  -2  797.30   45.18
  -4   7  -2  724.97   49.20
  -7   4  -2  840.62   58.50
  -7   4   1  398.27   39.04
  -4   7   1  405.26   36.09
  -7   4   4  703.95   50.77
  -4   7   4  707.69   49.29
  -7   4   4  682.62   45.66
  -4   7   4  676.49   40.55
  -4   7   7  391.49   37.53
  -7   4   7  324.89   29.50
   4   3   7  445.18   42.29
  -4   7   7  358.63   31.94
  -7   4  10  496.13   38.77
   4   3  10  498.44   45.39
  -4   7  10  407.34   37.47
   4   3  13  211.29   32.12
  -4   7  13  139.53   23.84
   4   3  16  326.08   40.60
  -4   7  16  214.71   31.48
  -7   5 -15  271.52   35.17
  -2  -5 -15  210.56   30.52
  -7   5 -12  451.02   41.77
  -2  -5 -12  415.54   41.43
  -7   5  -9  176.49   27.43
  -2  -5  -9  169.76   24.93
  -5   7  -9  233.67   28.73
  -7   5  -9  175.64   23.21
  -7   5  -6  560.32   49.29
  -2  -5  -6  478.95   41.44
  -5   7  -6  431.69   37.93
  -5   7  -3  452.91   38.03
  -5   7  -3  408.26   38.66
  -7   5  -3  498.76   45.53
  -5   7   0  813.57   49.94
  -7   5   0  821.46   56.52
  -5   7   0  795.69   51.86
  -5   7   3  444.18   38.95
  -7   5   3  328.07   32.34
  -7   5   3  350.06   36.92
  -5   7   6  567.92   45.05
  -7   5   6  522.22   40.65
   5   2   6  535.53   47.43
   5   2   9  281.34   33.72
  -5   7   9  235.08   31.07
  -7   5   9  315.31   32.65
  -5   7   9  231.60   27.73
  -7   5  12  330.83   35.51
   5   2  12  411.58   43.09
  -5   7  12  329.37   35.11
   5   2  15  121.81   24.90
  -5   7  15  106.62   21.66
  -7   6 -16  173.30   28.71
  -6   7 -16  208.21   34.67
  -7   6 -13  335.95   42.13
  -7   6 -13  299.91   35.71
  -6   7 -13  284.93   36.55
  -1  -6 -13  256.31   33.30
  -7   6 -10  482.53   42.17
  -7   6 -10  486.03   49.19
  -1  -6 -10  574.43   47.93
  -6   7 -10  476.33   45.41
  -1  -6  -7  168.82   26.01
  -7   6  -7  185.92   28.63
  -6   7  -7  166.02   25.80
  -6   7  -4  462.91   41.82
  -7   6  -4  428.89   43.07
  -7   6  -1  413.21   41.50
  -6   7  -1  340.15   35.54
  -6   7  -1  400.73   38.95
  -6   7   2  682.07   50.29
  -7   6   2  671.24   49.18
  -7   6   2  747.69   55.41
  -6   7   5  313.80   33.50
  -7   6   5  238.28   29.29
  -6   7   8  407.80   39.81
  -7   6   8  466.03   41.00
   6   1   8  448.37   42.03
  -6   7  11  141.25   22.35
  -7   6  11  178.24   24.97
  -6   7  11  148.57   25.72
  -7   6  11  151.09   23.89
  -6   7  14  227.09   29.62
  -7   6  14  239.72   32.02
  -7   7 -14  177.91   28.62
  -7   7 -14  195.94   32.98
  -7   7 -11  301.01   39.12
   0  -7  -8  490.50   45.32
  -7   7  -8  504.60   48.43
  -7   7  -5  211.80   30.31
  -7   7  -2  325.82   37.10
  -7   7   1  287.38   32.90
  -7   7   1  290.62   35.16
  -7   7   4  480.00   42.80
  -7   7   7  237.02   30.70
  -7   7  10  251.48   33.77
  -7   7  13  137.18   27.52
  -8   0  -8  193.84   29.82
   0   8  -5  184.19   30.32
  -8   0  -5  134.55   23.83
   0   8  -2  250.60   34.23
  -8   0  -2  222.37   29.94
   0   8   1  111.01   22.27
  -8   0   1  172.67   26.48
   0   8   4  367.47   42.95
   0   8   7  254.42   36.84
  -8   1  -9  175.31   27.02
  -7  -1  -9  183.16   28.42
  -8   1  -9  155.31   25.61
  -8   1  -6  373.57   39.03
  -7  -1  -6  377.73   39.61
  -8   1  -6  329.73   35.55
  -1   8  -3  203.89   28.67
  -7  -1  -3  196.40   26.67
  -8   1  -3  196.18   26.60
   1   7  -3  214.57   31.43
   1   7   0  224.48   33.38
  -1   8   0  244.37   30.95
  -7  -1   0  274.98   32.24
   1   7   3  150.96   26.90
  -1   8   3  164.09   26.29
  -7  -1   3  144.76   23.80
   1   7   6  553.71   52.91
  -1   8   6  474.06   46.22
   1   7   9  289.06   40.07
  -1   8   9  274.01   36.91
  -6  -2 -13  119.26   24.49
  -8   2 -13  101.98   21.54
  -8   2 -10  229.88   31.77
  -8   2 -10  183.72   28.51
  -8   2  -7  230.29   30.77
  -6  -2  -7  247.68   31.80
  -8   2  -7  225.92   29.88
  -6  -2  -4  458.89   43.01
  -8   2  -4  488.48   45.37
  -8   2  -4  495.95   40.90
  -8   2  -1  276.00   32.13
  -6  -2  -1  213.98   28.88
   2   6   2  295.12   38.94
  -6  -2   2  220.73   29.11
  -8   2   2  292.72   33.95
  -2   8   2  309.75   33.01
   2   6   5  132.46   26.76
  -2   8   5  186.03   27.56
  -2   8   5  206.40   27.69
  -2   8   8  386.07   39.34
   2   6   8  406.09   46.22
  -2   8   8  462.32   44.34
   2   6  11  337.77   43.75
  -2   8  11  231.06   31.49
  -5  -3 -14  244.03   34.73
  -8   3 -14  289.21   37.27
  -5  -3 -11  107.91   23.47
  -8   3 -11  105.35   21.48
  -8   3  -8  245.22   32.81
  -5  -3  -8  248.30   32.45
  -8   3  -8  257.79   30.37
  -5  -3  -5  288.62   34.97
  -8   3  -5  275.76   35.07
  -5  -3  -2  580.05   47.68
  -8   3  -2  628.46   51.91
  -3   8   1  278.97   30.81
  -8   3   1  252.67   31.64
  -8   3   4  314.33   34.96
   3   5   4  308.71   37.57
  -3   8   4  289.43   32.62
  -3   8   4  303.46   31.03
   3   5   7  158.80   27.97
  -3   8   7  141.96   22.24
  -3   8   7  143.98   24.14
   3   5  10  460.82   49.23
  -3   8  10  406.41   40.94
   3   5  13  249.90   36.90
  -3   8  13  183.33   28.62
  -4  -4 -15  166.54   29.62
  -8   4 -15  193.12   30.05
  -8   4 -12  328.37   40.43
  -4  -4 -12  326.58   39.08
  -8   4 -12  289.24   35.68
  -8   4  -9  125.37   24.36
  -4  -4  -9  142.75   25.56
  -8   4  -9  124.95   21.17
  -4  -4  -6  330.98   36.98
  -8   4  -6  330.00   38.68
  -4  -4  -3  337.89   37.04
  -4   8  -3  269.08   30.91
  -8   4  -3  331.24   38.23
  -8   4   0  773.73   57.20
  -4   8   0  740.60   51.99
  -4   8   3  284.85   32.93
  -8   4   3  347.07   38.79
   4   4   6  309.33   38.95
  -4   8   6  322.28   35.85
   4   4   9  125.46   25.13
  -4   8   9  125.10   21.36
  -4   8   9  136.34   24.19
   4   4  12  354.68   42.86
  -4   8  12  312.89   35.33
   4   4  15  244.41   37.91
  -4   8  15  124.03   24.29
  -8   5 -13  191.66   31.51
  -3  -5 -13  234.15   33.01
  -8   5 -13  233.75   31.24
  -8   5 -10  467.35   49.22
  -3  -5 -10  395.79   41.93
  -3  -5  -7  178.05   28.23
  -8   5  -7  167.38   28.17
  -3  -5  -4  283.46   34.65
  -8   5  -4  344.69   41.30
  -8   5  -1  268.38   34.71
  -5   8  -1  278.55   32.43
  -5   8   2  693.71   51.64
  -8   5   2  633.96   52.32
   5   3   5  271.65   36.17
  -8   5   5  289.72   32.24
  -5   8   5  227.74   30.03
   5   3   8  293.25   38.21
  -5   8   8  279.35   34.76
  -8   5   8  284.42   31.94
   5   3  11  101.98   22.14
  -5   8  11  128.13   21.59
  -5   8  11  115.35   23.33
   5   3  14  310.69   40.81
  -5   8  14  256.46   33.09
  -8   6 -11  218.85   33.37
  -2  -6 -11  257.83   34.69
  -2  -6  -8  446.18   45.54
  -8   6  -8  446.20   48.53
  -6   8  -5  178.11   26.63
  -2  -6  -5  165.97   28.05
  -8   6  -5  167.07   28.15
  -8   6  -2  227.67   33.21
  -6   8  -2  228.83   31.13
  -6   8  -2  281.09   32.70
  -6   8   1  318.93   35.81
  -8   6   1  264.63   34.62
  -6   8   4  608.45   49.43
  -8   6   4  437.70   42.02
   6   2   7  255.75   34.11
  -6   8   7  240.30   32.41
  -8   6   7  168.28   24.31
   6   2  10  230.07   32.65
  -6   8  10  267.02   35.48
  -8   6  10  236.08   30.61
  -6   8  13  143.33   28.14
  -8   6  13  126.35   24.68
  -7   8  -9  255.94   33.57
  -1  -7  -9  255.87   34.55
  -8   7  -9  254.03   37.57
  -7   8  -6  425.96   44.09
  -1  -7  -6  464.97   47.06
  -8   7  -6  431.43   46.96
  -7   8  -3  178.77   28.46
  -8   7  -3  130.04   25.41
  -7   8   0  247.65   32.74
  -7   8   0  256.14   33.18
  -8   7   0  291.44   37.24
  -7   8   3  200.57   29.19
  -8   7   3  192.98   28.51
  -8   7   6  279.36   33.41
   7   1   6  307.98   38.66
  -7   8   9  174.02   27.53
  -8   7   9  181.94   28.17
  -8   8  -7  207.88   31.74
  -8   8  -4  303.21   38.45
  -8   8  -1  157.54   27.88
  -8   8   2  230.36   32.27
  -8   8   5  147.50   24.52
  -8   8   8  260.49   34.94
  -7  -2  -5  145.85   25.83
  -9   2  -5  125.07   23.39
   2   7  -2  156.44   29.36
  -7  -2  -2  208.37   29.55
   2   7   1  165.50   29.62
  -7  -2   1  155.75   26.91
   2   7   4  321.47   41.79
  -2   9   4  315.73   36.82
  -7  -2   4  316.87   38.01
  -9   3  -9  143.11   26.47
  -6  -3  -9  111.60   23.61
  -6  -3  -6  272.40   35.57
  -9   3  -6  247.89   34.36
  -9   3  -3  147.62   25.70
  -6  -3  -3  169.37   27.99
  -6  -3   0  268.23   34.28
   3   6   0  267.85   37.25
  -9   3   0  246.91   33.75
   3   6   3  147.19   26.82
  -3   9   3  154.09   24.07
  -9   3   3  125.31   22.48
   3   6   6  284.17   39.21
  -3   9   6  261.80   33.95
   3   6   9  187.76   33.76
  -3   9   9  167.12   27.48
  -3   9   9  161.49   27.74
  -9   4 -10  216.43   33.71
  -5  -4 -10  203.46   32.24
  -5  -4  -7  134.49   25.03
  -9   4  -7  134.25   25.27
  -9   4  -4  319.23   38.71
  -5  -4  -4  314.11   38.66
  -5  -4  -1  215.44   30.79
  -4   9  -1  233.42   29.92
  -9   4  -1  177.93   28.20
  -9   4   2  280.06   36.23
  -4   9   2  302.36   35.05
   4   5   2  244.09   36.29
   4   5   5  164.15   29.06
  -4   9   5  135.38   23.49
   4   5   8  273.01   38.44
  -4   9   8  261.98   35.80
  -4  -5  -8  254.94   35.90
  -9   5  -8  279.03   39.69
  -4  -5  -5  174.60   29.15
  -9   5  -5  139.09   27.10
  -4  -5  -2  248.34   34.05
  -9   5  -2  315.91   39.76
  -5   9  -2  231.78   31.60
  -5   9   1  232.64   31.73
  -9   5   1  200.42   30.42
   5   4   4  318.90   42.03
  -5   9   4  275.85   33.77
   5   4   7  173.44   31.04
  -5   9   7  146.50   25.07
   5   4  10  299.21   40.98
  -5   9  10  192.03   31.30
  -3  -6  -9  121.49   25.75
  -9   6  -6  335.80   43.50
  -3  -6  -6  322.78   40.43
  -9   6  -3  143.64   28.27
  -3  -6  -3  147.74   26.28
  -9   6   0  309.39   40.13
  -6   9   0  222.42   31.67
  -6   9   3  194.82   29.50
  -9   6   3  164.70   28.65
   6   3   6  219.04   34.05
  -6   9   6  254.50   34.41
  -9   6   6  268.29   32.84
   6   3   9  116.14   24.12
  -6   9   9  136.62   26.24
  -2  -7  -4  305.30   40.18
  -9   7  -4  388.54   46.00
  -9   7  -1  142.33   26.74
  -7   9  -1  160.78   27.07
  -9   7   2  168.65   29.70
  -7   9   2  223.13   32.58
   7   2   5  139.74   28.30
  -7   9   5  166.10   28.36
  -9   7   5  138.79   25.82
   0   0   0    0.00    0.00

TITL MA2KBiCl6_abs4 in R3m
REM R3m (#160 in standard setting)
CELL 0.71073   7.837191   7.837191  20.993812  90.0000  90.0000 120.0000
ZERR    5.00   0.000215   0.000215   0.000706   0.0000   0.0000   0.0000
LATT -3
SYMM -y, x-y, z
SYMM -x+y,-x, z
SYMM -y,-x, z
SYMM -x+y, y, z
SYMM  x, x-y, z
SFAC C H N Cl K Bi
UNIT 10.00 60.00 10.00 30.00 5.00 5.00
TREF
HKLF 4
END
_computing_structure_solution     'SHELXT 2014/5 (Sheldrick, 2014)'
;
_shelx_hkl_checksum              12059
_shelx_shelxl_version_number     2014/7
_olex2_submission_special_instructions 'No special instructions were received'
loop_
_space_group_symop_operation_xyz
'x, y, z'
'-y, x-y, z'
'-x+y, -x, z'
'y, x, -z'
'x-y, -y, -z'
'-x, -x+y, -z'
'x+2/3, y+1/3, z+1/3'
'-y+2/3, x-y+1/3, z+1/3'
'-x+y+2/3, -x+1/3, z+1/3'
'y+2/3, x+1/3, -z+1/3'
'x-y+2/3, -y+1/3, -z+1/3'
'-x+2/3, -x+y+1/3, -z+1/3'
'x+1/3, y+2/3, z+2/3'
'-y+1/3, x-y+2/3, z+2/3'
'-x+y+1/3, -x+2/3, z+2/3'
'y+1/3, x+2/3, -z+2/3'
'x-y+1/3, -y+2/3, -z+2/3'
'-x+1/3, -x+y+2/3, -z+2/3'
'-x, -y, -z'
'y, -x+y, -z'
'x-y, x, -z'
'-y, -x, z'
'-x+y, y, z'
'x, x-y, z'
'-x+2/3, -y+1/3, -z+1/3'
'y+2/3, -x+y+1/3, -z+1/3'
'x-y+2/3, x+1/3, -z+1/3'
'-y+2/3, -x+1/3, z+1/3'
'-x+y+2/3, y+1/3, z+1/3'
'x+2/3, x-y+1/3, z+1/3'
'-x+1/3, -y+2/3, -z+2/3'
'y+1/3, -x+y+2/3, -z+2/3'
'x-y+1/3, x+2/3, -z+2/3'
'-y+1/3, -x+2/3, z+2/3'
'-x+y+1/3, y+2/3, z+2/3'
'x+1/3, x-y+2/3, z+2/3'
loop_
_atom_site_label
_atom_site_type_symbol
_atom_site_fract_x
_atom_site_fract_y
_atom_site_fract_z
_atom_site_U_iso_or_equiv
_atom_site_adp_type
_atom_site_occupancy
_atom_site_site_symmetry_order
_atom_site_calc_flag
_atom_site_refinement_flags_posn
_atom_site_refinement_flags_adp
_atom_site_refinement_flags_occupancy
Bi01 Bi 0.6667 0.3333 0.3333 0.0294(2) Uani 1 12 d S T P
K002 K 0.3333 0.6667 0.1667 0.0364(7) Uani 1 12 d S T P
Cl03 Cl 0.50292(19) 0.49708(19) 0.26189(13) 0.1047(11) Uani 1 2 d S T P
C004 C 0.3333 0.6667 0.4456(9) 0.121(9) Uani 1 6 d S T P
N005 N 0.3333 0.6667 0.3815(8) 0.133(8) Uani 1 6 d S T P
loop_
_atom_site_aniso_label
_atom_site_aniso_U_11
_atom_site_aniso_U_22
_atom_site_aniso_U_33
_atom_site_aniso_U_23
_atom_site_aniso_U_13
_atom_site_aniso_U_12
Bi01 0.0269(2) 0.0269(2) 0.0345(3) 0.000 0.000 0.01345(11)
K002 0.0390(11) 0.0390(11) 0.0312(15) 0.000 0.000 0.0195(5)
Cl03 0.145(2) 0.145(2) 0.0849(16) 0.0203(7) -0.0203(7) 0.118(3)
C004 0.153(15) 0.153(15) 0.057(10) 0.000 0.000 0.077(7)
N005 0.165(13) 0.165(13) 0.070(10) 0.000 0.000 0.082(6)
loop_
_atom_type_symbol
_atom_type_description
_atom_type_scat_dispersion_real
_atom_type_scat_dispersion_imag
_atom_type_scat_source
Bi Bi -4.1077 10.2566 'International Tables Vol C Tables 4.2.6.8 and 6.1.1.4'
C C 0.0033 0.0016 'International Tables Vol C Tables 4.2.6.8 and 6.1.1.4'
Cl Cl 0.1484 0.1585 'International Tables Vol C Tables 4.2.6.8 and 6.1.1.4'
K K 0.2009 0.2494 'International Tables Vol C Tables 4.2.6.8 and 6.1.1.4'
N N 0.0061 0.0033 'International Tables Vol C Tables 4.2.6.8 and 6.1.1.4'
loop_
_exptl_crystal_face_index_h
_exptl_crystal_face_index_k
_exptl_crystal_face_index_l
_exptl_crystal_face_perp_dist
_exptl_oxdiff_crystal_face_indexfrac_h
_exptl_oxdiff_crystal_face_indexfrac_k
_exptl_oxdiff_crystal_face_indexfrac_l
_exptl_oxdiff_crystal_face_x
_exptl_oxdiff_crystal_face_y
_exptl_oxdiff_crystal_face_z
-1 0 -1 0.0799 -0.9988 -0.0010 -0.9966 0.0344 -0.0870 0.0574
1 0 1 0.0010 0.9988 0.0010 0.9966 -0.0344 0.0870 -0.0574
-1 1 0 0.0426 -0.9997 0.9995 0.0015 -0.0057 0.0039 0.1043
1 -1 0 0.0426 0.9997 -0.9995 -0.0015 0.0057 -0.0039 -0.1043
0 0 1 0.0153 -0.0007 -0.0001 0.9978 0.0246 0.0231 0.0005
0 0 -1 0.0933 0.0007 0.0001 -0.9978 -0.0246 -0.0231 -0.0005
0 -1 2 0.0479 -0.0012 -1.0009 1.9953 0.1139 -0.0217 -0.0452
0 1 -2 0.0449 0.0012 1.0009 -1.9953 -0.1139 0.0217 0.0452
-1 1 -5 0.0814 -0.9962 1.0001 -4.9876 -0.1287 -0.1114 0.1016
0 -1 0 0.0828 0.0002 -1.0006 -0.0004 0.0647 -0.0678 -0.0463
loop_
_geom_angle_atom_site_label_1
_geom_angle_atom_site_label_2
_geom_angle_atom_site_label_3
_geom_angle
_geom_angle_site_symmetry_1
_geom_angle_site_symmetry_3
Cl03 Bi01 Cl03 91.76(9) 2_655 3_665
Cl03 Bi01 Cl03 180.00(8) 3_665 33_545
Cl03 Bi01 Cl03 91.76(9) 2_655 .
Cl03 Bi01 Cl03 88.24(9) 2_655 33_545
Cl03 Bi01 Cl03 91.76(9) 31_655 33_545
Cl03 Bi01 Cl03 88.24(9) 3_665 32
Cl03 Bi01 Cl03 88.24(9) . 32
Cl03 Bi01 Cl03 91.76(9) 3_665 .
Cl03 Bi01 Cl03 180.0 31_655 .
Cl03 Bi01 Cl03 88.24(9) 3_665 31_655
Cl03 Bi01 Cl03 88.24(9) . 33_545
Cl03 Bi01 Cl03 180.00(8) 2_655 32
Cl03 Bi01 Cl03 88.24(9) 2_655 31_655
Cl03 Bi01 Cl03 91.76(9) 31_655 32
Cl03 Bi01 Cl03 91.76(9) 32 33_545
Cl03 K002 Cl03 81.67(9) 3_565 .
Cl03 K002 Cl03 81.67(9) 25_565 27
Cl03 K002 Cl03 180.0 2_665 26_455
Cl03 K002 Cl03 180.0 3_565 27
Cl03 K002 Cl03 98.33(9) . 27
Cl03 K002 Cl03 98.33(9) 3_565 25_565
Cl03 K002 Cl03 81.67(9) 2_665 3_565
Cl03 K002 Cl03 98.33(9) 2_665 27
Cl03 K002 Cl03 81.67(9) 2_665 .
Cl03 K002 Cl03 98.33(9) 3_565 26_455
Cl03 K002 Cl03 81.67(9) 25_565 26_455
Cl03 K002 Cl03 81.67(9) 26_455 27
Cl03 K002 Cl03 180.0 . 25_565
Cl03 K002 Cl03 98.33(9) . 26_455
Cl03 K002 Cl03 98.33(9) 2_665 25_565
Bi01 Cl03 K002 173.04(12) . .
loop_
_geom_bond_atom_site_label_1
_geom_bond_atom_site_label_2
_geom_bond_distance
_geom_bond_site_symmetry_2
Bi01 Cl03 2.681(2) 2_655
Bi01 Cl03 2.681(2) 32
Bi01 Cl03 2.681(2) .
Bi01 Cl03 2.681(2) 3_665
Bi01 Cl03 2.681(2) 31_655
Bi01 Cl03 2.681(2) 33_545
K002 Cl03 3.049(2) 27
K002 Cl03 3.049(2) 2_665
K002 Cl03 3.049(2) 25_565
K002 Cl03 3.049(2) 26_455
K002 Cl03 3.049(2) .
K002 Cl03 3.049(2) 3_565
C004 N005 1.35(3) .
