#------------------------------------------------------------------------------
#$Date: 2016-12-25 11:57:47 +0200 (Sun, 25 Dec 2016) $
#$Revision: 189403 $
#$URL: file:///home/coder/svn-repositories/cod/cif/1/54/48/1544876.cif $
#------------------------------------------------------------------------------
#
# This file is available in the Crystallography Open Database (COD),
# http://www.crystallography.net/
#
# All data on this site have been placed in the public domain by the
# contributors.
#
data_1544876
loop_
_publ_author_name
'Kato, T.'
'Miura, Y.'
'Yoshii, M.'
'Maeda, K.'
_publ_section_title
;
 The crystal structures of 1M-kinoshitalite, a new barium brittle mica and
 1M-manganese trioctahedral micas Sample: No.1
;
_journal_name_full               'Mineralogical Journal'
_journal_page_first              392
_journal_page_last               408
_journal_volume                  9
_journal_year                    1979
_chemical_formula_sum
'Al1.15 H1.93 K0.846 Mg1.74 Mn1.14 Na0.187 O11.2 Si2.75'
_chemical_name_common            (K,Na)(Mn,Mg,Fe)3(Si,Al)4O10(OH)2
_chemical_name_mineral           '1M-manganese trioctahedral micas'
_space_group_IT_number           12
_space_group_name_H-M_alt        'C 1 2/m 1'
_symmetry_space_group_name_Hall  '-C 2y'
_symmetry_space_group_name_H-M   'C 1 2/m 1'
_cell_angle_alpha                90
_cell_angle_beta                 99.96(2)
_cell_angle_gamma                90
_cell_formula_units_Z            2
_cell_length_a                   5.380(2)
_cell_length_b                   9.295(2)
_cell_length_c                   10.318(4)
_cell_volume                     508.2(3)
_cod_data_source_file            Mn-1M-mica1.cif
_cod_data_source_block           1M-mica-1
_cod_original_formula_sum
'K0.846 Na0.187 Mn1.14 Mg1.74 Si2.75 Al1.15 O11.2 H1.93'
_cod_database_code               1544876
loop_
_space_group_symop_operation_xyz
'x, y, z'
'-x, -y, -z'
'-x, y, -z'
'x, -y, z'
'x+1/2, y+1/2, z'
'-x+1/2, -y+1/2, -z'
'-x+1/2, y+1/2, -z'
'x+1/2, -y+1/2, z'
loop_
_atom_site_label
_atom_site_occupancy
_atom_site_fract_x
_atom_site_fract_y
_atom_site_fract_z
_atom_site_adp_type
_atom_site_B_iso_or_equiv
_atom_site_type_symbol
T 0.6600 0.5746(5) 0.1667(4) 0.2258(4) Biso 0.934918 Si
T 0.2900 0.5746(5) 0.1667(4) 0.2258(4) Biso 0.934918 Al
M1 0.5800 0.000000 0.500000 0.500000 Biso 0.648389 Mg
M1 0.3800 0.000000 0.500000 0.500000 Biso 0.648389 Mn
M2 0.5800 0.000000 0.8319(4) 0.500000 Biso 0.648389 Mg
M2 0.3800 0.000000 0.8319(4) 0.500000 Biso 0.648389 Mn
I 0.8500 0.000000 0.000000 0.000000 Biso 2.193754 K
I 0.1900 0.000000 0.000000 0.000000 Biso 2.193754 Na
O1 1.0 0.8224(13) 0.2335(9) 0.1674(8) Biso 3.973255 O
O2 1.0 0.523(3) 0.000000 0.1688(13) Biso 3.847885 O
O3 1.0 0.6270(13) 0.1678(8) 0.3864(7) Biso 3.200473 O
OH 1.0 0.1290(18) 0.000000 0.3945(11) Biso 3.156966 O
loop_
_atom_site_aniso_label
_atom_site_aniso_U_11
_atom_site_aniso_U_22
_atom_site_aniso_U_33
_atom_site_aniso_U_12
_atom_site_aniso_U_13
_atom_site_aniso_U_23
T 0.13758 0.15551 0.42343 -0.01478 0.09155 0.00945
T 0.13758 0.15551 0.42343 -0.01478 0.09155 0.00945
M1 0.04493 0.06912 0.38212 0.00000 0.06462 0.00000
M1 0.04493 0.06912 0.38212 0.00000 0.06462 0.00000
M2 0.04493 0.06912 0.38212 0.00000 0.06462 0.00000
M2 0.04493 0.06912 0.38212 0.00000 0.06462 0.00000
I 0.53630 0.54430 0.57835 0.00000 0.13463 0.00000
I 0.53630 0.54430 0.57835 0.00000 0.13463 0.00000
O1 0.81989 0.97629 1.23932 0.11821 0.33387 0.10391
O2 0.82551 0.92445 1.12571 0.00000 0.14001 0.00000
O3 0.62896 0.54430 1.27030 -0.01970 0.28541 0.00000
OH 0.69354 0.70846 1.00178 0.00000 0.24771 0.00000
