#------------------------------------------------------------------------------
#$Date: 2016-11-18 09:55:50 +0200 (Fri, 18 Nov 2016) $
#$Revision: 188559 $
#$URL: file:///home/coder/svn-repositories/cod/cif/1/54/46/1544616.cif $
#------------------------------------------------------------------------------
#
# This file is available in the Crystallography Open Database (COD),
# http://www.crystallography.net/
#
# All data on this site have been placed in the public domain by the
# contributors.
#
data_1544616
loop_
_publ_author_name
'Kudoh, Y.'
'Kuribayashi, T.'
'Litasov, K.'
'Ohtani, E.'
_publ_section_title
;
 Cation vacancies and possible hydrogen atom positions in Fe-bearing
 hydrous forsterite, Mg1.85Fe0.14Si0.99H0.06O4, synthesized at 13.5 GPa
 and 1400 ?C
;
_journal_name_full
'Journal of Mineralogical and Petrological Sciences'
_journal_page_first              306
_journal_page_last               310
_journal_volume                  102
_journal_year                    2007
_chemical_formula_sum            'Fe0.14 H0.06 Mg1.85 O4 Si0.99'
_chemical_name_common
'Mg1.85Fe0.14Si0.99H0.06O4 Fe-bearing hydrous forsterite'
_chemical_name_mineral           'Iron-bearing hydrous forsterite'
_space_group_IT_number           62
_space_group_name_H-M_alt        'P b n m'
_symmetry_space_group_name_Hall  '-P 2c 2ab'
_symmetry_space_group_name_H-M   'P b n m'
_cell_angle_alpha                90
_cell_angle_beta                 90
_cell_angle_gamma                90
_cell_formula_units_Z            4
_cell_length_a                   4.762(2)
_cell_length_b                   10.216(2)
_cell_length_c                   5.990(2)
_cell_volume                     291.41(17)
_cod_data_source_file            Fe_hydrous_forsterite.cif
_cod_data_source_block           iron_bearing_hydrous_forsterite
_cod_original_formula_sum        'Mg1.85 Fe0.14 Si0.99 H0.06 O4'
_cod_database_code               1544616
loop_
_space_group_symop_operation_xyz
'x, y, z'
'-x, -y, -z'
'x+1/2, -y+1/2, -z'
'-x+1/2, y+1/2, z'
'-x, -y, z+1/2'
'x, y, -z+1/2'
'-x+1/2, y+1/2, -z+1/2'
'x+1/2, -y+1/2, z+1/2'
loop_
_atom_site_label
_atom_site_occupancy
_atom_site_fract_x
_atom_site_fract_y
_atom_site_fract_z
_atom_site_adp_type
_atom_site_B_iso_or_equiv
_atom_site_type_symbol
M1 0.9600 0.000000 0.000000 0.000000 Biso 0.390000 Mg
M1 0.0400 0.000000 0.000000 0.000000 Biso 0.390000 Fe
M2 0.8900 0.99055(9) 0.27728(4) 0.250000 Biso 0.440000 Mg
M2 0.0800 0.99055(9) 0.27728(4) 0.250000 Biso 0.440000 Fe
Si 0.9900 0.42644(7) 0.09406(4) 0.250000 Biso 0.250000 Si
O1 1.0 0.76588(18) 0.09152(9) 0.250000 Biso 0.400000 O
O2 1.0 0.22097(19) 0.44725(9) 0.250000 Biso 0.420000 O
O3 1.0 0.27776(13) 0.16322(6) 0.03327(11) Biso 0.440000 O
loop_
_atom_site_aniso_label
_atom_site_aniso_U_11
_atom_site_aniso_U_22
_atom_site_aniso_U_33
_atom_site_aniso_U_12
_atom_site_aniso_U_13
_atom_site_aniso_U_23
M1 0.00390 0.00700 0.00400 -0.00010 -0.00060 -0.00110
M2 0.00590 0.00500 0.00590 0.00000 0.00000 0.00000
Si 0.00220 0.00390 0.00330 0.00001 0.00000 0.00000
O1 0.00280 0.00690 0.00540 0.00010 0.00000 0.00000
O2 0.00520 0.00470 0.00600 -0.00050 0.00000 0.00000
O3 0.00490 0.00660 0.00530 0.00010 -0.00010 0.00120
