#------------------------------------------------------------------------------
#$Date: 2017-01-26 02:58:03 +0200 (Thu, 26 Jan 2017) $
#$Revision: 190941 $
#$URL: file:///home/coder/svn-repositories/cod/cif/1/54/49/1544921.cif $
#------------------------------------------------------------------------------
#
# This file is available in the Crystallography Open Database (COD),
# http://www.crystallography.net/
#
# All data on this site have been placed in the public domain by the
# contributors.
#
data_1544921
loop_
_publ_author_name
'Kumada, N.'
'Yonesaki, Y.'
'Takei, T.'
'Kinomura, N.'
_publ_section_title
;
 Crystal structures of pseudobrookite-type Mg5Nb4O15 from 293 to 1117 K
 Sample: at 1117 K
;
_journal_name_full               'Journal of the Ceramic Society of Japan'
_journal_page_first              489
_journal_page_last               493
_journal_volume                  117
_journal_year                    2009
_chemical_formula_sum            'Mg5 Nb4 O15'
_chemical_name_common            Mg5Nb4O15
_chemical_name_mineral           'Mg5Nb4O15 at 1117 K'
_space_group_IT_number           63
_space_group_name_H-M_alt        'C m c m'
_symmetry_space_group_name_Hall  '-C 2c 2'
_symmetry_space_group_name_H-M   'C m c m'
_cell_angle_alpha                90
_cell_angle_beta                 90
_cell_angle_gamma                90
_cell_formula_units_Z            2
_cell_length_a                   3.810(6)
_cell_length_b                   10.188(5)
_cell_length_c                   10.398(5)
_cell_volume                     403.6(7)
_diffrn_ambient_temperature      1117.15
_cod_data_source_file            Mg5Nb4O15-1117K.cif
_cod_data_source_block           Mg5Nb4O15-1117K
_cod_depositor_comments
;I added _diffrn_ambient_temperature tag to make measured temperature
 apparent, as there are other data measured at different temperatures.
;
_cod_database_code               1544921
loop_
_space_group_symop_operation_xyz
'x, y, z'
'-x, -y, -z'
'-x, -y, z+1/2'
'x, y, -z+1/2'
'-x, y, -z+1/2'
'x, -y, z+1/2'
'x, -y, -z'
'-x, y, z'
'x+1/2, y+1/2, z'
'-x+1/2, -y+1/2, -z'
'-x+1/2, -y+1/2, z+1/2'
'x+1/2, y+1/2, -z+1/2'
'-x+1/2, y+1/2, -z+1/2'
'x+1/2, -y+1/2, z+1/2'
'x+1/2, -y+1/2, -z'
'-x+1/2, y+1/2, z'
loop_
_atom_site_label
_atom_site_occupancy
_atom_site_fract_x
_atom_site_fract_y
_atom_site_fract_z
_atom_site_adp_type
_atom_site_B_iso_or_equiv
_atom_site_type_symbol
M1 0.3960 0.000000 0.31597(9) 0.750000 Biso 1.770000 Nb
M1 0.6040 0.000000 0.31597(9) 0.750000 Biso 1.770000 Mg
M2 0.4680 0.000000 0.63502(6) 0.56333(6) Biso 1.850000 Nb
M2 0.5320 0.000000 0.63502(6) 0.56333(6) Biso 1.850000 Mg
O1 1.0 0.500000 0.2420(5) 0.750000 Biso 2.640000 O
O2 1.0 0.000000 0.1923(3) 0.5734(3) Biso 2.370000 O
O3 1.0 0.000000 0.4543(3) 0.8826(3) Biso 2.980000 O
