#------------------------------------------------------------------------------
#$Date: 2016-11-18 10:44:48 +0200 (Fri, 18 Nov 2016) $
#$Revision: 188562 $
#$URL: file:///home/coder/svn-repositories/cod/cif/1/54/46/1544619.cif $
#------------------------------------------------------------------------------
#
# This file is available in the Crystallography Open Database (COD),
# http://www.crystallography.net/
#
# All data on this site have been placed in the public domain by the
# contributors.
#
data_1544619
loop_
_publ_author_name
'Isupova, D.'
'Ida, A.'
'Kihara, K.'
'Morishita, T.'
'Bulka, G.'
_publ_section_title
;
 Asymmetric thermal vibrations of atoms and pyroelectricity in cancrinite
 : Sample at 473 K
;
_journal_name_full
'Journal of Mineralogical and Petrological Sciences'
_journal_page_first              29
_journal_page_last               41
_journal_volume                  105
_journal_year                    2010
_chemical_formula_sum            'C1.21 Al5.71 Ca0.95 Na6.84 O24 S0.15 Si6.3'
_chemical_name_common
'Si6.30Al5.71Ca0.95Na6.84(CO3)1.21(SO4)0.15O24 cancrinite at 473 K'
_chemical_name_mineral           'cancrinite at 473 K'
_space_group_IT_number           173
_space_group_name_H-M_alt        'P 63'
_symmetry_space_group_name_Hall  'P 6c'
_symmetry_space_group_name_H-M   'P 63'
_cell_angle_alpha                90
_cell_angle_beta                 90
_cell_angle_gamma                120
_cell_formula_units_Z            1
_cell_length_a                   12.659(3)
_cell_length_b                   12.659(3)
_cell_length_c                   5.1676(4)
_cell_volume                     717.2(2)
_cod_data_source_file            cancrinite_473K.cif
_cod_data_source_block           cancrinite_473K
_cod_original_formula_sum        'Si6.30 Al5.71 Ca0.95 Na6.84 O24 C1.21 S0.15'
_cod_database_code               1544619
loop_
_space_group_symop_operation_xyz
'x, y, z'
'-y, x-y, z'
'-x+y, -x, z'
'-x, -y, z+1/2'
'y, -x+y, z+1/2'
'x-y, x, z+1/2'
loop_
_atom_site_label
_atom_site_occupancy
_atom_site_fract_x
_atom_site_fract_y
_atom_site_fract_z
_atom_site_adp_type
_atom_site_U_iso_or_equiv
_atom_site_type_symbol
X 1.0 0.666667 0.333333 0.132(3) Uiso 0.054000 Na
Y 0.7880 0.1254(2) 0.2542(2) 0.2890(6) Uiso 0.043400 Na
Y 0.1580 0.1254(2) 0.2542(2) 0.2890(6) Uiso 0.043400 Ca
T1 1.0 0.32859(4) 0.41106(4) 0.750000 Uiso 0.008400 Si
T2 0.9500 0.07515(5) 0.41283(5) 0.7508(2) Uiso 0.008700 Al
T2 0.0500 0.07515(5) 0.41283(5) 0.7508(2) Uiso 0.008700 Si
O1 1.0 0.2041(3) 0.4070(3) 0.6696(8) Uiso 0.016900 O
O2 1.0 0.1126(3) 0.5631(3) 0.7321(9) Uiso 0.022400 O
O3 1.0 0.0259(3) 0.3485(4) 0.0539(7) Uiso 0.016500 O
O4 1.0 0.3164(3) 0.3554(4) 0.0369(7) Uiso 0.016400 O
Ow 0.9400 0.666667 0.333333 0.696(4) Uiso 0.210000 O
C 0.8300 0.000000 0.000000 0.782(6) Uiso 0.160000 C
Oc 0.8300 0.0559(9) 0.1127(7) 0.781(3) Uiso 0.203000 O
