#------------------------------------------------------------------------------
#$Date: 2016-12-25 14:38:43 +0200 (Sun, 25 Dec 2016) $
#$Revision: 189406 $
#$URL: file:///home/coder/svn-repositories/cod/cif/1/54/48/1544879.cif $
#------------------------------------------------------------------------------
#
# This file is available in the Crystallography Open Database (COD),
# http://www.crystallography.net/
#
# All data on this site have been placed in the public domain by the
# contributors.
#
data_1544879
loop_
_publ_author_name
'Kato, T.'
'Miura, Y.'
'Yoshii, M.'
'Maeda, K.'
_publ_section_title
;
 The crystal structures of 1M-kinoshitalite, a new barium brittle mica and
 1M-manganese trioctahedral micas Sample: No.5
;
_journal_name_full               'Mineralogical Journal'
_journal_page_first              392
_journal_page_last               408
_journal_volume                  9
_journal_year                    1979
_chemical_formula_sum
'Al2.16 Ba0.58 F0.06 H1.62 K0.35 Mg2.07 Mn0.73 Na0.11 O12 Si2.05'
_chemical_name_common            (K,Na)(Mn,Mg,Fe)3(Si,Al)4O10(OH)2
_chemical_name_mineral           '1M kinoshitalite'
_space_group_IT_number           12
_space_group_name_H-M_alt        'C 1 2/m 1'
_symmetry_space_group_name_Hall  '-C 2y'
_symmetry_space_group_name_H-M   'C 1 2/m 1'
_cell_angle_alpha                90
_cell_angle_beta                 99.99(5)
_cell_angle_gamma                90
_cell_formula_units_Z            2
_cell_length_a                   5.345(3)
_cell_length_b                   9.250(4)
_cell_length_c                   10.256(8)
_cell_volume                     499.4(5)
_cod_data_source_file            kinoshitalite.cif
_cod_data_source_block           1M-kinoshitalite
_cod_original_formula_sum
'K0.35 Ba0.58 Na0.11 Mn0.73 Mg2.07 Si2.05 Al2.16 O12 H1.62 F0.06'
_cod_database_code               1544879
loop_
_space_group_symop_operation_xyz
'x, y, z'
'-x, -y, -z'
'-x, y, -z'
'x, -y, z'
'x+1/2, y+1/2, z'
'-x+1/2, -y+1/2, -z'
'-x+1/2, y+1/2, -z'
'x+1/2, -y+1/2, z'
loop_
_atom_site_label
_atom_site_occupancy
_atom_site_fract_x
_atom_site_fract_y
_atom_site_fract_z
_atom_site_adp_type
_atom_site_B_iso_or_equiv
_atom_site_type_symbol
T 0.5100 0.5751(5) 0.1667(4) 0.2245(4) Biso 0.339722 Si
T 0.4800 0.5751(5) 0.1667(4) 0.2245(4) Biso 0.339722 Al
M1 0.6900 0.000000 0.500000 0.500000 Biso 0.279082 Mg
M1 0.2400 0.000000 0.500000 0.500000 Biso 0.279082 Mn
M1 0.0700 0.000000 0.500000 0.500000 Biso 0.279082 Al
M2 0.6900 0.000000 0.8306(4) 0.500000 Biso 0.289217 Mg
M2 0.2400 0.000000 0.8306(4) 0.500000 Biso 0.289217 Mn
M2 0.0700 0.000000 0.8306(4) 0.500000 Biso 0.289217 Al
I 0.5800 0.000000 0.000000 0.000000 Biso 0.596602 Ba
I 0.3500 0.000000 0.000000 0.000000 Biso 0.596602 K
I 0.1100 0.000000 0.000000 0.000000 Biso 0.596602 Na
O1 1.0 0.8364(15) 0.2177(8) 0.1654(8) Biso 0.777677 O
O2 1.0 0.493(3) 0.000000 0.1635(11) Biso 0.891926 O
O3 1.0 0.6299(14) 0.1674(7) 0.3892(7) Biso 0.630754 O
OH 1.0 0.131(3) 0.000000 0.3972(11) Biso 0.645119 O
loop_
_atom_site_aniso_label
_atom_site_aniso_U_11
_atom_site_aniso_U_22
_atom_site_aniso_U_33
_atom_site_aniso_U_12
_atom_site_aniso_U_13
_atom_site_aniso_U_23
T 0.00870 0.00010 0.00400 0.00000 0.00080 0.00000
T 0.00870 0.00010 0.00400 0.00000 0.00080 0.00000
M1 0.00630 0.00010 0.00420 0.00000 0.00090 0.00000
M1 0.00630 0.00010 0.00420 0.00000 0.00090 0.00000
M1 0.00630 0.00010 0.00420 0.00000 0.00090 0.00000
M2 0.00650 0.00010 0.00420 0.00000 0.00040 0.00000
M2 0.00650 0.00010 0.00420 0.00000 0.00040 0.00000
M2 0.00650 0.00010 0.00420 0.00000 0.00040 0.00000
I 0.01560 0.00250 0.00410 0.00000 0.00040 0.00000
I 0.01560 0.00250 0.00410 0.00000 0.00040 0.00000
I 0.01560 0.00250 0.00410 0.00000 0.00040 0.00000
O1 0.01930 0.00360 0.00670 -0.00220 0.00240 0.00170
O2 0.02370 0.00170 0.00700 0.00000 -0.00150 0.00000
O3 0.01630 0.00130 0.00610 0.00020 0.00120 0.00010
OH 0.01530 0.00290 0.00580 0.00000 0.00040 0.00070
