#------------------------------------------------------------------------------
#$Date: 2016-12-24 10:05:47 +0200 (Sat, 24 Dec 2016) $
#$Revision: 189384 $
#$URL: file:///home/coder/svn-repositories/cod/cif/1/54/48/1544867.cif $
#------------------------------------------------------------------------------
#
# This file is available in the Crystallography Open Database (COD),
# http://www.crystallography.net/
#
# All data on this site have been placed in the public domain by the
# contributors.
#
data_1544867
loop_
_publ_author_name
'Nagashima, M.'
'Akasaka, M.'
'Kyono, A.'
'Makino, K.'
'Ikeda, K.'
_publ_section_title
;
 Distribution of chromium among the octahedral sites in chromian epidote
 from Iratsu, central Shikoku, Japan Sample: CrEp2
;
_journal_name_full
'Journal of Mineralogical and Petrological Sciences'
_journal_page_first              240
_journal_page_last               254
_journal_volume                  102
_journal_year                    2007
_chemical_formula_sum            'Al2.2 Ca1.9 Cr0.17 Fe0.49 H O13 Si3 Sr0.1'
_chemical_name_common
'[Ca][Ca0.9Sr0.1][Al0.86Cr0.14][Al][Al0.34Cr0.17Fe0.49]Si3O12(OH)'
_chemical_name_mineral           'chromian epidote'
_space_group_IT_number           11
_space_group_name_H-M_alt        'P 1 21/m 1'
_symmetry_space_group_name_Hall  '-P 2yb'
_symmetry_space_group_name_H-M   'P 1 21/m 1'
_cell_angle_alpha                90
_cell_angle_beta                 115.2365(9)
_cell_angle_gamma                90
_cell_formula_units_Z            2
_cell_length_a                   8.9165(4)
_cell_length_b                   5.6226(2)
_cell_length_c                   10.1728(5)
_cell_volume                     461.33(3)
_cod_data_source_file            chromian-epidote2.cif
_cod_data_source_block           chromian-epidote2
_cod_original_formula_sum        'Ca1.9 Sr0.1 Al2.2 Cr0.17 Fe0.49 Si3 O13 H1'
_cod_database_code               1544867
loop_
_space_group_symop_operation_xyz
'x, y, z'
'-x, -y, -z'
'-x, y+1/2, -z'
'x, -y+1/2, z'
loop_
_atom_site_label
_atom_site_occupancy
_atom_site_fract_x
_atom_site_fract_y
_atom_site_fract_z
_atom_site_adp_type
_atom_site_U_iso_or_equiv
_atom_site_type_symbol
A1 1.0 0.7600(1) 0.750000 0.15390(9) Uiso 0.013100 Ca
A2 0.9000 0.6040(1) 0.750000 0.42367(9) Uiso 0.014900 Ca
A2 0.1000 0.6040(1) 0.750000 0.42367(9) Uiso 0.014900 Sr
M1 0.86 0.000000 0.000000 0.000000 Uiso 0.008500 Al
M1 0.14 0.000000 0.000000 0.000000 Uiso 0.008500 Cr
M2 1.0 0.000000 0.000000 0.500000 Uiso 0.008200 Al
M3 0.3400 0.29148(9) 0.250000 0.22236(9) Uiso 0.009500 Al
M3 0.4900 0.29148(9) 0.250000 0.22236(9) Uiso 0.009500 Fe
M3 0.1700 0.29148(9) 0.250000 0.22236(9) Uiso 0.009500 Cr
Si1 1.0 0.3397(1) 0.750000 0.0477(1) Uiso 0.009600 Si
Si2 1.0 0.6830(1) 0.250000 0.2758(1) Uiso 0.009600 Si
Si3 1.0 0.1828(1) 0.750000 0.3169(1) Uiso 0.009100 Si
O1 1.0 0.2354(2) 0.9954(4) 0.0436(2) Uiso 0.012000 O
O2 1.0 0.3017(3) 0.9838(4) 0.3527(2) Uiso 0.012200 O
O3 1.0 0.7926(3) 0.0135(4) 0.3425(2) Uiso 0.012900 O
O4 1.0 0.0533(4) 0.250000 0.1313(3) Uiso 0.011000 O
O5 1.0 0.0403(3) 0.750000 0.1456(3) Uiso 0.009000 O
O6 1.0 0.0647(4) 0.750000 0.4046(3) Uiso 0.010900 O
O7 1.0 0.5157(4) 0.750000 0.1784(3) Uiso 0.013800 O
O8 1.0 0.5206(4) 0.250000 0.3051(4) Uiso 0.017700 O
O9 1.0 0.6340(4) 0.250000 0.1016(4) Uiso 0.021400 O
O10 1.0 0.0798(4) 0.250000 0.4261(3) Uiso 0.011000 O
loop_
_atom_site_aniso_label
_atom_site_aniso_U_11
_atom_site_aniso_U_22
_atom_site_aniso_U_33
_atom_site_aniso_U_12
_atom_site_aniso_U_13
_atom_site_aniso_U_23
A1 0.01630 0.01380 0.01190 0.00000 0.00850 0.00000
A2 0.01530 0.01940 0.00980 0.00000 0.00510 0.00000
A2 0.01530 0.01940 0.00980 0.00000 0.00510 0.00000
M1 0.00890 0.00950 0.00720 -0.00040 0.00350 -0.00100
M1 0.00890 0.00950 0.00720 -0.00040 0.00350 -0.00100
M2 0.00890 0.00700 0.00910 0.00050 0.00410 0.00000
M3 0.00830 0.01080 0.00920 0.00000 0.00350 0.00000
M3 0.00830 0.01080 0.00920 0.00000 0.00350 0.00000
M3 0.00830 0.01080 0.00920 0.00000 0.00350 0.00000
Si1 0.00950 0.00990 0.00810 0.00000 0.00430 0.00000
Si2 0.01060 0.00980 0.00850 0.00000 0.00430 0.00000
Si3 0.00970 0.01010 0.00810 0.00000 0.00430 0.00000
O1 0.01200 0.01100 0.01400 0.00040 0.00630 0.00130
O2 0.01270 0.01200 0.01210 -0.00240 0.00560 -0.00070
O3 0.01230 0.01000 0.01300 0.00040 0.00220 -0.00010
O4 0.01400 0.01200 0.01000 0.00000 0.00700 0.00000
O5 0.00900 0.01000 0.00700 0.00000 0.00300 0.00000
O6 0.01300 0.01000 0.01300 0.00000 0.00800 0.00000
O7 0.01000 0.01500 0.01400 0.00000 0.00300 0.00000
O8 0.01800 0.01700 0.02400 0.00000 0.01500 0.00000
O9 0.02700 0.03000 0.01100 0.00000 0.01100 0.00000
O10 0.01300 0.00800 0.01500 0.00000 0.00800 0.00000
