#------------------------------------------------------------------------------
#$Date: 2016-11-18 02:11:38 +0200 (Fri, 18 Nov 2016) $
#$Revision: 188534 $
#$URL: file:///home/coder/svn-repositories/cod/cif/1/54/45/1544595.cif $
#------------------------------------------------------------------------------
#
# This file is available in the Crystallography Open Database (COD),
# http://www.crystallography.net/
#
# All data on this site have been placed in the public domain by the
# contributors.
#
data_1544595
loop_
_publ_author_name
'Kuribayashi, T.'
'Kudoh, Y.'
'Kagi, H.'
_publ_section_title
;
 Compressibility of phase A, Mg7Si2H6O14 up to 11.2 GPa : Sample at 4.4
 GPa
;
_journal_name_full
'Journal of Mineralogical and Petrological Sciences'
_journal_page_first              215
_journal_page_last               234
_journal_volume                  98
_journal_year                    2003
_chemical_formula_sum            'H6 Mg7 O14 Si2'
_chemical_name_common            'Phase A: 2Mg2SiO4*3Mg(OH)2 @ 4.4 GPa'
_chemical_name_mineral           'Phase A @ 4.4 GPa'
_space_group_IT_number           173
_space_group_name_H-M_alt        'P 63'
_symmetry_space_group_name_Hall  'P 6c'
_symmetry_space_group_name_H-M   'P 63'
_cell_angle_alpha                90
_cell_angle_beta                 90
_cell_angle_gamma                120
_cell_formula_units_Z            2
_cell_length_a                   7.751(1)
_cell_length_b                   7.751(1)
_cell_length_c                   9.475(2)
_cell_volume                     492.98(14)
_cod_data_source_file            phaseA-4.4GPa.cif
_cod_data_source_block           phaseA_4.4GPa
_cod_original_formula_sum        'Mg7 Si2 H6 O14'
_cod_database_code               1544595
loop_
_space_group_symop_operation_xyz
'x, y, z'
'-y, x-y, z'
'-x+y, -x, z'
'-x, -y, z+1/2'
'y, -x+y, z+1/2'
'x-y, x, z+1/2'
loop_
_atom_site_label
_atom_site_occupancy
_atom_site_fract_x
_atom_site_fract_y
_atom_site_fract_z
_atom_site_adp_type
_atom_site_B_iso_or_equiv
_atom_site_type_symbol
Mg1 1.0 0.3730(22) 0.4560(26) 0.3929(61) Biso 1.100000 Mg
Mg2 1.0 0.2207(23) 0.2436(20) 0.1141(47) Biso 0.400000 Mg
Mg3 1.0 0.333333 0.666667 0.1101(59) Biso 0.000000 Mg
Si1 1.0 0.666667 0.333333 0.1847(91) Biso 0.000000 Si
Si2 1.0 0.000000 0.000000 0.4097(64) Biso 0.000000 Si
O1 1.0 0.2045(40) 0.0299(47) -0.0171(60) Biso 0.000000 O
O2 1.0 0.4807(43) 0.0988(46) 0.4874(67) Biso 0.000000 O
O3 1.0 0.4505(39) 0.2881(43) 0.2308(60) Biso 0.000000 O
O4 1.0 0.1665(33) 0.4317(39) 0.2475(65) Biso 0.000000 O
O5 1.0 0.666667 0.333333 0.000000 Biso 0.400000 O
O6 1.0 0.000000 0.000000 0.2398(120) Biso 1.000000 O
