#------------------------------------------------------------------------------
#$Date: 2018-07-21 17:17:55 +0300 (Sat, 21 Jul 2018) $
#$Revision: 209174 $
#$URL: file:///home/coder/svn-repositories/cod/cif/1/54/48/1544880.cif $
#------------------------------------------------------------------------------
#
# This file is available in the Crystallography Open Database (COD),
# http://www.crystallography.net/
#
# All data on this site have been placed in the public domain by the
# contributors.
#
data_1544880
loop_
_publ_author_name
'Kuribayashi, T.'
'Kagi, H.'
'Tanaka, M.'
'Akizuki, M.'
'Kudoh, Y.'
_publ_section_title
;
 High-pressure single crystal X-ray diffraction and FT-IR observation of
 natural chondrodite and synthetic OH-chondrodite Sample: natural
 chondrodite at 1 atm
;
_journal_name_full
'Journal of Mineralogical and Petrological Sciences'
_journal_page_first              118
_journal_page_last               129
_journal_volume                  99
_journal_year                    2004
_chemical_formula_sum
'F0.74 Fe0.22 H1.26 Mg4.76 O9.26 Si1.99 Ti0.02'
_chemical_name_common            Mg4.76Fe0.22Ti0.02Si1.99O8((OH)1.26F0.74)
_chemical_name_mineral           'natural chondrodite at 1 atm'
_space_group_crystal_system      monoclinic
_space_group_IT_number           14
_space_group_name_Hall           '-P 2xab'
_space_group_name_H-M_alt        'P 21/b 1 1'
_cell_angle_alpha                109.07(1)
_cell_angle_beta                 90
_cell_angle_gamma                90
_cell_formula_units_Z            2
_cell_length_a                   4.728(1)
_cell_length_b                   10.263(1)
_cell_length_c                   7.872(1)
_cell_volume                     361.01(10)
_cod_data_source_file            chondrodite-1atm.cif
_cod_data_source_block           chondrodite-1atm
_cod_depositor_comments
;
 Updating space group information.

 Antanas Vaitkus,
 2018-07-22
;
_cod_original_sg_symbol_H-M      'P 21/b'
_cod_original_formula_sum
'Mg4.76 Fe0.22 Ti0.02 Si1.99 O9.26 H1.26 F0.74'
_cod_database_code               1544880
loop_
_space_group_symop_id
_space_group_symop_operation_xyz
1 'x, y, z'
2 '-x, -y, -z'
3 'x+1/2, -y+1/2, -z'
4 '-x+1/2, y+1/2, z'
loop_
_atom_site_label
_atom_site_occupancy
_atom_site_fract_x
_atom_site_fract_y
_atom_site_fract_z
_atom_site_adp_type
_atom_site_B_iso_or_equiv
_atom_site_type_symbol
M1 0.879 0.500000 0.000000 0.500000 Biso 0.587849 Mg
M1 0.121 0.500000 0.000000 0.500000 Biso 0.587849 Fe
M2 0.959 0.01020(16) 0.17376(7) 0.30728(9) Biso 0.657072 Mg
M2 0.041 0.01020(16) 0.17376(7) 0.30728(9) Biso 0.657072 Fe
M3 0.964 0.49218(16) 0.88661(7) 0.07900(10) Biso 0.703978 Mg
M3 0.036 0.49218(16) 0.88661(7) 0.07900(10) Biso 0.703978 Ti
Si 1.0 0.07642(13) 0.14417(6) 0.70390(8) Biso 0.500000 Si
O1 1.0 0.7789(4) 0.00070(10) 0.2940(2) Biso 0.662021 O
O2 1.0 0.7268(4) 0.2409(2) 0.1257(2) Biso 0.648469 O
O3 1.0 0.2239(4) 0.16900(10) 0.5289(2) Biso 0.659266 O
O4 1.0 0.2632(4) 0.8545(2) 0.2946(2) Biso 0.654596 O
O5 1.0 0.2599(4) 0.05670(10) 0.0993(2) Biso 0.721730 O
loop_
_atom_site_aniso_label
_atom_site_aniso_U_11
_atom_site_aniso_U_22
_atom_site_aniso_U_33
_atom_site_aniso_U_12
_atom_site_aniso_U_13
_atom_site_aniso_U_23
M1 0.00770 0.00620 0.00720 0.00070 0.00170 0.00050
M1 0.00770 0.00620 0.00720 0.00070 0.00170 0.00050
M2 0.00810 0.00800 0.00700 -0.00040 0.00300 -0.00010
M2 0.00810 0.00800 0.00700 -0.00040 0.00300 -0.00010
M3 0.00760 0.00850 0.00880 -0.00050 0.00220 0.00030
M3 0.00760 0.00850 0.00880 -0.00050 0.00220 0.00030
Si 0.00000 0.00000 0.00000 0.00000 0.00000 0.00000
O1 0.00840 0.00700 0.00790 0.00120 0.00280 -0.00010
O2 0.00770 0.00720 0.00780 0.00000 0.00120 -0.00020
O3 0.00910 0.00680 0.00810 -0.00010 0.00290 0.00100
O4 0.00770 0.00660 0.00900 0.00010 0.00330 0.00040
O5 0.00920 0.00920 0.00760 0.00230 0.00340 0.00080
