#------------------------------------------------------------------------------
#$Date: 2016-12-06 14:06:27 +0200 (Tue, 06 Dec 2016) $
#$Revision: 188976 $
#$URL: file:///home/coder/svn-repositories/cod/cif/1/54/47/1544748.cif $
#------------------------------------------------------------------------------
#
# This file is available in the Crystallography Open Database (COD),
# http://www.crystallography.net/
#
# All data on this site have been placed in the public domain by the
# contributors.
#
data_1544748
loop_
_publ_author_name
'Toraya, H.'
'Marumo, F.'
_publ_section_title
;
 Structure variation with octahedral cation substitution in the system of
 germanate micas, KMg3-xMnxGe3AlO10F2
;
_journal_name_full               'Mineralogical Journal'
_journal_page_first              396
_journal_page_last               407
_journal_volume                  10
_journal_year                    1981
_chemical_formula_sum            'Al F2 Ge3 K Mg1.04 Mn1.96 O10'
_chemical_name_common            KMg1.04Mn1.96Ge3AlO10F2
_chemical_name_mineral           KMg1.04Mn1.96Ge3AlO10F2
_space_group_IT_number           12
_space_group_name_H-M_alt        'C 1 2/m 1'
_symmetry_space_group_name_Hall  '-C 2y'
_symmetry_space_group_name_H-M   'C 1 2/m 1'
_cell_angle_alpha                90
_cell_angle_beta                 100.12(2)
_cell_angle_gamma                90
_cell_formula_units_Z            2
_cell_length_a                   5.489(1)
_cell_length_b                   9.509(1)
_cell_length_c                   10.462(3)
_cell_volume                     537.57(19)
_cod_data_source_file            KMg1.04Mn1.96Ge3AlO10F2.cif
_cod_data_source_block           KMg1.04Mn1.96Ge3AlO10F2
_cod_original_formula_sum        'K Mg1.04 Mn1.96 Ge3 Al O10 F2'
_cod_database_code               1544748
loop_
_space_group_symop_operation_xyz
'x, y, z'
'-x, -y, -z'
'-x, y, -z'
'x, -y, z'
'x+1/2, y+1/2, z'
'-x+1/2, -y+1/2, -z'
'-x+1/2, y+1/2, -z'
'x+1/2, -y+1/2, z'
loop_
_atom_site_label
_atom_site_occupancy
_atom_site_fract_x
_atom_site_fract_y
_atom_site_fract_z
_atom_site_adp_type
_atom_site_B_iso_or_equiv
_atom_site_type_symbol
K 1.0 0.000000 0.500000 0.000000 Biso 2.125680 K
M1 0.3500 0.000000 0.000000 0.500000 Biso 0.823464 Mg
M1 0.6500 0.000000 0.000000 0.500000 Biso 0.823464 Mn
M2 0.3500 0.000000 0.33140(10) 0.500000 Biso 0.908834 Mg
M2 0.6500 0.000000 0.33140(10) 0.500000 Biso 0.908834 Mn
T 0.7500 0.07438(8) 0.16674(4) 0.22236(4) Biso 0.561089 Ge
T 0.2500 0.07438(8) 0.16674(4) 0.22236(4) Biso 0.561089 Al
O1 1.0 -0.0138(8) 0.000000 0.1608(4) Biso 1.004947 O
O2 1.0 0.3371(5) 0.2161(4) 0.1602(4) Biso 1.120456 O
O3 1.0 0.1307(5) 0.1670(4) 0.3924(4) Biso 0.919700 O
F 1.0 0.6324(7) 0.000000 0.4009(4) Biso 1.485520 F
loop_
_atom_site_aniso_label
_atom_site_aniso_U_11
_atom_site_aniso_U_22
_atom_site_aniso_U_33
_atom_site_aniso_U_12
_atom_site_aniso_U_13
_atom_site_aniso_U_23
K 0.55186 0.57869 0.47733 0.00000 0.12800 0.00000
M1 0.17519 0.15372 0.30761 0.00000 0.09461 0.00000
M1 0.17519 0.15372 0.30761 0.00000 0.09461 0.00000
M2 0.16935 0.18084 0.33944 0.00000 0.06678 0.00000
M2 0.16935 0.18084 0.33944 0.00000 0.06678 0.00000
T 0.13431 0.11483 0.18139 -0.00154 0.05454 -0.00000
T 0.13431 0.11483 0.18139 -0.00154 0.05454 -0.00000
O1 0.32411 0.15372 0.26519 0.00000 0.02226 0.00000
O2 0.21023 0.33456 0.32883 -0.10790 0.13913 -0.11752
O3 0.25403 0.22605 0.22276 0.00514 0.07791 0.01959
F 0.37083 0.36168 0.38187 0.00000 0.06678 0.00000
