#------------------------------------------------------------------------------
#$Date: 2016-11-27 09:18:58 +0200 (Sun, 27 Nov 2016) $
#$Revision: 188710 $
#$URL: file:///home/coder/svn-repositories/cod/cif/1/54/46/1544681.cif $
#------------------------------------------------------------------------------
#
# This file is available in the Crystallography Open Database (COD),
# http://www.crystallography.net/
#
# All data on this site have been placed in the public domain by the
# contributors.
#
data_1544681
loop_
_publ_author_name
'Kato, T.'
'Miura, Y.'
_publ_section_title
;
 The crystal structures of adamite and paradamite
;
_journal_name_full               'Mineralogical Journal'
_journal_page_first              320
_journal_page_last               328
_journal_volume                  8
_journal_year                    1977
_chemical_formula_sum            'As H O5 Zn2'
_chemical_name_common            Zn2(OH)AsO4
_chemical_name_mineral           paradamite
_space_group_IT_number           2
_space_group_name_H-M_alt        'P -1'
_symmetry_space_group_name_Hall  '-P 1'
_symmetry_space_group_name_H-M   'P -1'
_cell_angle_alpha                104.73(2)
_cell_angle_beta                 92.26(1)
_cell_angle_gamma                76.81(1)
_cell_formula_units_Z            2
_cell_length_a                   5.830(1)
_cell_length_b                   6.711(2)
_cell_length_c                   5.648(1)
_cell_volume                     208.04(8)
_cod_data_source_file            paramadite_older.cif
_cod_data_source_block           paradamite
_cod_original_formula_sum        'Zn2 As H O5'
_cod_database_code               1544681
loop_
_space_group_symop_operation_xyz
'x, y, z'
'-x, -y, -z'
loop_
_atom_site_label
_atom_site_occupancy
_atom_site_fract_x
_atom_site_fract_y
_atom_site_fract_z
_atom_site_adp_type
_atom_site_B_iso_or_equiv
_atom_site_type_symbol
Zn1 1.0 0.7505(4) 0.5005(4) 0.3928(5) Biso 0.570000 Zn
Zn2 1.0 0.2646(4) 0.1867(4) 0.0213(5) Biso 0.420000 Zn
As 1.0 0.7525(4) 0.2748(4) 0.8313(4) Biso 0.250000 As
O1 1.0 0.031(3) 0.141(2) 0.762(3) Biso 0.330000 O
O2 1.0 0.610(3) 0.126(2) 0.944(3) Biso 0.370000 O
O3 1.0 0.618(3) 0.332(2) 0.578(2) Biso 0.600000 O
O4 1.0 0.254(3) 0.498(2) 0.955(3) Biso 0.270000 O
OH 1.0 0.109(3) 0.299(2) 0.353(3) Biso 0.380000 O
