#------------------------------------------------------------------------------
#$Date: 2018-07-21 17:17:55 +0300 (Sat, 21 Jul 2018) $
#$Revision: 209174 $
#$URL: file:///home/coder/svn-repositories/cod/cif/1/54/48/1544885.cif $
#------------------------------------------------------------------------------
#
# This file is available in the Crystallography Open Database (COD),
# http://www.crystallography.net/
#
# All data on this site have been placed in the public domain by the
# contributors.
#
data_1544885
loop_
_publ_author_name
'Kuribayashi, T.'
'Kagi, H.'
'Tanaka, M.'
'Akizuki, M.'
'Kudoh, Y.'
_publ_section_title
;
 High-pressure single crystal X-ray diffraction and FT-IR observation of
 natural chondrodite and synthetic OH-chondrodite Sample: chondrodite-OH
 at 5.9 GPa, RT
;
_journal_name_full
'Journal of Mineralogical and Petrological Sciences'
_journal_page_first              118
_journal_page_last               129
_journal_volume                  99
_journal_year                    2004
_chemical_formula_sum            'H2 Mg4.98 O10 Si2.01'
_chemical_name_common            Mg5Si2O8(OH)2
_chemical_name_mineral           'chondrodite-OH at 5.9 GPa'
_space_group_crystal_system      monoclinic
_space_group_IT_number           14
_space_group_name_Hall           '-P 2xab'
_space_group_name_H-M_alt        'P 21/b 1 1'
_cell_angle_alpha                108.55(4)
_cell_angle_beta                 90
_cell_angle_gamma                90
_cell_formula_units_Z            2
_cell_length_a                   4.696(1)
_cell_length_b                   10.182(1)
_cell_length_c                   7.776(2)
_cell_volume                     352.49(15)
_cod_data_source_file            chondrodite-OH-5.9GPa.cif
_cod_data_source_block           chondrodite-OH-5.9GPa
_cod_depositor_comments
;
 Updating space group information.

 Antanas Vaitkus,
 2018-07-22
;
_cod_original_sg_symbol_H-M      'P 21/b'
_cod_original_formula_sum        'Mg4.98 Si2.01 H2.00 O10'
_cod_database_code               1544885
loop_
_space_group_symop_id
_space_group_symop_operation_xyz
1 'x, y, z'
2 '-x, -y, -z'
3 'x+1/2, -y+1/2, -z'
4 '-x+1/2, y+1/2, z'
loop_
_atom_site_label
_atom_site_occupancy
_atom_site_fract_x
_atom_site_fract_y
_atom_site_fract_z
_atom_site_adp_type
_atom_site_B_iso_or_equiv
_atom_site_type_symbol
M1 0.879 0.500000 0.000000 0.500000 Biso 0.480000 Mg
M2 0.959 0.0078(12) 0.1771(8) 0.3099(22) Biso 0.370000 Mg
M3 0.964 0.4881(12) 0.8834(8) 0.0729(21) Biso 0.370000 Mg
Si 1.0 0.0778(10) 0.1400(7) 0.6993(18) Biso 0.080000 Si
O1 1.0 0.7791(25) 0.0000(19) 0.2863(48) Biso 0.530000 O
O2 1.0 0.7284(23) 0.2443(17) 0.1342(50) Biso 0.250000 O
O3 1.0 0.2259(23) 0.1660(17) 0.5192(45) Biso 0.280000 O
O4 1.0 0.2629(20) 0.8532(19) 0.2830(48) Biso 0.180000 O
O5 1.0 0.2658(26) 0.0619(21) 0.1076(52) Biso 1.090000 O
