#------------------------------------------------------------------------------
#$Date: 2017-08-31 05:13:32 +0300 (Thu, 31 Aug 2017) $
#$Revision: 200008 $
#$URL: file:///home/coder/svn-repositories/cod/cif/1/54/69/1546912.cif $
#------------------------------------------------------------------------------
#
# This file is available in the Crystallography Open Database (COD),
# http://www.crystallography.net/
#
# All data on this site have been placed in the public domain by the
# contributors.
#
data_1546912
loop_
_publ_author_name
'\/Lukaszuk, Katarzyna Anna'
'Rojo-Gama, Daniel'
'\/Oien-\/Odegaard, Sigurd'
'Lazzarini, Andrea'
'Berlier, Gloria'
'Bordiga, Silvia'
'Lillerud, Karl Petter'
'Olsbye, Unni'
'Beato, Pablo'
'Lundegaard, Lars Fahl'
'Svelle, Stian'
_publ_section_title
;
 Zeolite morphology and catalyst performance: Conversion of methanol to
 hydrocarbons over offretite
;
_journal_name_full               'Catal. Sci. Technol.'
_journal_paper_doi               10.1039/C7CY00996H
_journal_year                    2017
_chemical_formula_moiety         'K0.08 O3 Si1.5, C0.42 O0.08, C'
_chemical_formula_sum            'C0.75 K0.08 O3.52 Si1.5'
_chemical_formula_weight         110.73
_chemical_name_common            Offretite
_space_group_crystal_system      hexagonal
_space_group_IT_number           187
_space_group_name_Hall           'P -6 2'
_space_group_name_H-M_alt        'P -6 m 2'
_symmetry_space_group_name_Hall  'P -6 2'
_symmetry_space_group_name_H-M   'P -6 m 2'
_atom_sites_solution_primary     dual
_audit_creation_date             2017-04-28
_audit_creation_method
;
Olex2 1.2
(compiled 2017.03.28 svn.r3405 for OlexSys, GUI svn.r5335)
;
_cell_angle_alpha                90
_cell_angle_beta                 90
_cell_angle_gamma                120
_cell_formula_units_Z            12
_cell_length_a                   13.265(3)
_cell_length_b                   13.265(3)
_cell_length_c                   7.545(2)
_cell_measurement_reflns_used    954
_cell_measurement_temperature    273(2)
_cell_measurement_theta_max      26.731
_cell_measurement_theta_min      3.241
_cell_volume                     1149.8(5)
_computing_cell_refinement       'APEX3 (Bruker AXS, 2016)'
_computing_data_collection       'APEX3 (Bruker AXS, 2016)'
_computing_data_reduction        'APEX3 (Bruker AXS, 2016)'
_computing_molecular_graphics    'Olex2 (Dolomanov et al., 2009)'
_computing_publication_material  'Olex2 (Dolomanov et al., 2009)'
_computing_structure_refinement  'SHELXL (Sheldrick, 2015b)'
_computing_structure_solution    'SHELXT (Sheldrick, 2015a)'
_diffrn_ambient_temperature      273.15
_diffrn_detector                 'CCD area detector'
_diffrn_detector_area_resol_mean 13.6986
_diffrn_detector_type            'Marmosaic 225'
_diffrn_measured_fraction_theta_full 0.817
_diffrn_measured_fraction_theta_max 0.814
_diffrn_measurement_device       '\k-geometry diffractometer'
_diffrn_measurement_device_type  I911-3
_diffrn_measurement_method       '\w and \f scans'
_diffrn_radiation_collimation    'Rh-coated Si focusing mirrors'
_diffrn_radiation_monochromator  'Silicon 111'
_diffrn_radiation_probe          x-ray
_diffrn_radiation_type           synchrotron
_diffrn_radiation_wavelength     0.750
_diffrn_reflns_av_R_equivalents  0.0951
_diffrn_reflns_av_unetI/netI     0.0722
_diffrn_reflns_Laue_measured_fraction_full 0.817
_diffrn_reflns_Laue_measured_fraction_max 0.814
_diffrn_reflns_limit_h_max       15
_diffrn_reflns_limit_h_min       -15
_diffrn_reflns_limit_k_max       15
_diffrn_reflns_limit_k_min       -15
_diffrn_reflns_limit_l_max       6
_diffrn_reflns_limit_l_min       -7
_diffrn_reflns_number            4260
_diffrn_reflns_point_group_measured_fraction_full 0.831
_diffrn_reflns_point_group_measured_fraction_max 0.829
_diffrn_reflns_theta_full        26.744
_diffrn_reflns_theta_max         26.883
_diffrn_reflns_theta_min         1.871
_diffrn_source                   synchrotron
_diffrn_source_type              'Wiggler, Station I911-3, MAX II, MAXLAB'
_diffrn_standards_number         0
_exptl_absorpt_coefficient_mu    0.815
_exptl_absorpt_correction_T_max  0.7454
_exptl_absorpt_correction_T_min  0.4936
_exptl_absorpt_correction_type   multi-scan
_exptl_absorpt_process_details
'SADABS-2016/2 (Bruker,2016/2) was used for absorption correction. wR2(int) was 0.1109 before and 0.0813 after correction. The Ratio of minimum to maximum transmission is 0.6622. The \l/2 correction factor is Not present.'
_exptl_crystal_colour            colourless
_exptl_crystal_density_diffrn    1.919
_exptl_crystal_description       prism
_exptl_crystal_F_000             663
_exptl_crystal_size_max          0.01
_exptl_crystal_size_mid          0.005
_exptl_crystal_size_min          0.005
_refine_diff_density_max         0.725
_refine_diff_density_min         -0.548
_refine_diff_density_rms         0.125
_refine_ls_abs_structure_details
;
 Flack x determined using 215 quotients [(I+)-(I-)]/[(I+)+(I-)]
 (Parsons, Flack and Wagner, Acta Cryst. B69 (2013) 249-259).
;
_refine_ls_abs_structure_Flack   0.08(18)
_refine_ls_extinction_method     none
_refine_ls_goodness_of_fit_ref   1.144
_refine_ls_hydrogen_treatment    undef
_refine_ls_matrix_type           full
_refine_ls_number_parameters     77
_refine_ls_number_reflns         694
_refine_ls_number_restraints     18
_refine_ls_restrained_S_all      1.145
_refine_ls_R_factor_all          0.0801
_refine_ls_R_factor_gt           0.0569
_refine_ls_shift/su_max          0.000
_refine_ls_shift/su_mean         0.000
_refine_ls_structure_factor_coef Fsqd
_refine_ls_weighting_details
'w=1/[\s^2^(Fo^2^)+(0.0907P)^2^+0.9721P] where P=(Fo^2^+2Fc^2^)/3'
_refine_ls_weighting_scheme      calc
_refine_ls_wR_factor_gt          0.1470
_refine_ls_wR_factor_ref         0.1626
_reflns_Friedel_coverage         0.895
_reflns_Friedel_fraction_full    0.848
_reflns_Friedel_fraction_max     0.846
_reflns_number_gt                553
_reflns_number_total             694
_reflns_threshold_expression     'I > 2\s(I)'
_iucr_refine_instructions_details
;

    OFF-O-1.res created by SHELXL-2014/7

TITL OFF-O-1_a.res in P-6m2
REM Old TITL OFF-O-1 in P-6m2
REM SHELXT solution in P-6m2
REM R1 0.129, Rweak 0.008, Alpha 0.021, Orientation as input
REM Flack x = 0.386 ( 0.201 ) from Parsons' quotients
REM Formula found by SHELXT: O43 Si18 K
CELL 0.75 13.2647 13.2647 7.5448 90 90 120
ZERR 12 0.0031 0.0031 0.0021 0 0 0
LATT -1
SYMM -Y,+X-Y,+Z
SYMM +Y-X,-X,+Z
SYMM +X,+Y,-Z
SYMM -Y,+X-Y,-Z
SYMM +Y-X,-X,-Z
SYMM -Y,-X,+Z
SYMM +Y-X,+Y,+Z
SYMM +X,+X-Y,+Z
SYMM -Y,-X,-Z
SYMM +Y-X,+Y,-Z
SYMM +X,+X-Y,-Z
SFAC C K O Si
DISP K 0.227 0.295 1216.964
DISP O 0.013 0.007 37.215
DISP Si 0.09 0.079 360.042
UNIT 9 1 42.25 18
ISOR 0.1 0.05 C1 C00C C0AA
 
L.S. 15
PLAN  20
TEMP 0
BOND $H
list 4
fmap 2
acta
TWIN 0 1 0 1 0 0 0 0 -1 2
REM <olex2.extras>
REM <HklSrc "%.\\OFF-O-1.hkl">
REM </olex2.extras>
 
WGHT    0.090700    0.972100
BASF   0.31462
FVAR       0.55085
K001  2    0.666667    0.333333    0.000000    10.08333    0.02527    0.02527 =
         0.02174    0.00000    0.00000    0.01263
SI02  4    0.573511    0.665169    0.000000    10.50000    0.01546    0.01549 =
         0.02308    0.00000    0.00000    0.00775
SI03  4    0.666480    0.566997    0.290347    11.00000    0.01582    0.02165 =
         0.01830    0.00114   -0.00136    0.00979
O004  3    0.584677    0.792338    0.000000    10.25000    0.02900    0.02464 =
         0.04023    0.00000    0.00000    0.01450
O005  3    0.437139    0.562861    0.000000    10.25000    0.01949    0.01949 =
         0.03174    0.00000    0.00000    0.00632
O006  3    0.662737    0.593688    0.500000    10.50000    0.02948    0.03293 =
         0.01143    0.00000    0.00000    0.01851
O007  3    0.639673    0.657063    0.176561    11.00000    0.02804    0.02626 =
         0.03695    0.00270   -0.00603    0.01691
O008  3    0.568193    0.431807    0.243552    10.50000    0.01959    0.01959 =
         0.04256   -0.00599    0.00599    0.00801
O009  3    0.793923    0.587847    0.228777    10.50000    0.02557    0.04071 =
         0.03000   -0.00086   -0.00043    0.02036
O00A  3    0.333333    0.666667    0.500000    10.08333    0.09863    0.09863 =
         0.06490    0.00000    0.00000    0.04932
C00B  1    0.906765    0.813529    0.000000    10.25000    0.10899    0.27304 =
         0.11405    0.00000    0.00000    0.13652
C00C  1    0.404446    0.595554    0.500000    10.25000    0.17976    0.17976 =
         0.06477    0.00000    0.00000    0.13643
C0AA  1    0.333333    0.666667    0.296431    10.16667    0.21079    0.21079 =
         0.12613    0.00000    0.00000    0.10539
C2    1    0.784158    0.892079    0.274336    10.50000    0.17236    0.08147 =
         0.09034   -0.00719   -0.01439    0.08618
C1    1    0.684441    0.842220    0.500000    10.25000    0.32251    0.09545 =
         0.27716    0.00000    0.00000    0.16125
HKLF 4
 
REM  OFF-O-1_a.res in P-6m2
REM R1 =  0.0569 for     553 Fo > 4sig(Fo)  and  0.0801 for all     694 data
REM     77 parameters refined using     18 restraints
 
END  
     
WGHT      0.0907      0.9721 

REM Highest difference peak  0.725,  deepest hole -0.548,  1-sigma level  0.125
Q1    1   1.0000  1.0000  0.1571  10.16667  0.05    0.72
Q2    1   1.0000  1.0000  0.5000  10.08333  0.05    0.54
Q3    1   0.9225  0.8451  0.0949  10.50000  0.05    0.48
Q4    1   0.8828  0.8845  0.5000  10.50000  0.05    0.48
Q5    1   0.8650  0.8519  0.0000  10.50000  0.05    0.46
Q6    1   1.0000  1.0000  0.0000  10.08333  0.05    0.46
Q7    1   1.0000  1.0000  0.3489  10.16667  0.05    0.45
Q8    1   0.3649  0.7297  0.3668  10.50000  0.05    0.45
Q9    1   0.9427  0.8854  0.2423  10.50000  0.05    0.44
Q10   1   0.8657  0.8747  0.3283  11.00000  0.05    0.43
Q11   1   0.8969  0.9485  0.2667  10.50000  0.05    0.43
Q12   1   0.8818  0.8978  0.1788  11.00000  0.05    0.41
Q13   1   0.8323  0.9161  0.3972  10.50000  0.05    0.41
Q14   1   0.8780  0.7560  0.0000  10.25000  0.05    0.41
Q15   1   0.7603  0.8802  0.0000  10.25000  0.05    0.40
Q16   1   0.8640  0.9320  0.1711  10.50000  0.05    0.40
Q17   1   0.8224  0.9112  0.0803  10.50000  0.05    0.38
Q18   1   0.3076  0.6153  0.3685  10.50000  0.05    0.37
Q19   1   0.9410  0.9705  0.4118  10.50000  0.05    0.35
Q20   1   0.6064  0.5887  0.0000  10.50000  0.05    0.35

  REM The information below was added by Olex2.
  REM
  REM R1 = 0.0569 for 553 Fo > 4sig(Fo) and 0.0801 for all 4260 data
  REM n/a parameters refined using n/a restraints
  REM Highest difference peak 0.72, deepest hole -0.55
  REM Mean Shift 0, Max Shift 0.000.

  REM +++ Tabular Listing of Refinement Information +++
  REM R1_all = 0.0801
  REM R1_gt = 0.0569
  REM wR_ref = 0.1626
  REM GOOF = 1.144
  REM Shift_max = 0.000
  REM Shift_mean = 0
  REM Reflections_all = 4260
  REM Reflections_gt = 553
  REM Parameters = n/a
  REM Hole = -0.55
  REM Peak = 0.72
  REM Flack = 0.08(18)

  
;
_cod_data_source_file            c7cy00996h4.cif
_cod_data_source_block           OFF-O-1
_cod_original_cell_volume        1149.7(6)
_cod_original_formula_sum        'C0.75 K0.08 O3.52 Si1.50'
_cod_database_code               1546912
_shelx_shelxl_version_number     2014/7
_shelx_space_group_comment
;
The symmetry employed for this shelxl refinement is uniquely defined
by the following loop, which should always be used as a source of
symmetry information in preference to the above space-group names.
They are only intended as comments.
;
_olex2_refinement_description
;
1. Twinned data refinement
 Scales: 0.7(4)
 0.3(4)
2. Uiso/Uaniso restraints and constraints
Uanis(C1) \\sim Ueq, Uanis(C00C) \\sim Ueq, Uanis(C0AA) \\sim Ueq: with sigma
of 0.1 and sigma for terminal atoms of 0.05
;
_olex2_submission_special_instructions 'No special instructions were received'
loop_
_space_group_symop_operation_xyz
'x, y, z'
'-y, x-y, z'
'-x+y, -x, z'
'x, y, -z'
'-y, x-y, -z'
'-x+y, -x, -z'
'-y, -x, z'
'-x+y, y, z'
'x, x-y, z'
'-y, -x, -z'
'-x+y, y, -z'
'x, x-y, -z'
loop_
_atom_site_label
_atom_site_type_symbol
_atom_site_fract_x
_atom_site_fract_y
_atom_site_fract_z
_atom_site_U_iso_or_equiv
_atom_site_adp_type
_atom_site_occupancy
_atom_site_site_symmetry_order
_atom_site_calc_flag
_atom_site_refinement_flags_posn
_atom_site_refinement_flags_adp
_atom_site_refinement_flags_occupancy
K001 K 0.6667 0.3333 0.0000 0.024(2) Uani 1 12 d S T P
Si02 Si 0.5735(3) 0.6652(4) 0.0000 0.0180(13) Uani 1 2 d S T P
Si03 Si 0.6665(3) 0.5670(2) 0.2903(5) 0.0184(9) Uani 1 1 d . . .
O004 O 0.5847(13) 0.7923(6) 0.0000 0.031(6) Uani 1 4 d S T P
O005 O 0.4371(7) 0.5629(7) 0.0000 0.025(5) Uani 1 4 d S T P
O006 O 0.6627(10) 0.5937(9) 0.5000 0.023(3) Uani 1 2 d S T P
O007 O 0.6397(5) 0.6571(6) 0.1766(13) 0.029(2) Uani 1 1 d . . .
O008 O 0.5682(5) 0.4318(5) 0.244(2) 0.028(4) Uani 1 2 d S T P
O009 O 0.7939(5) 0.5878(10) 0.229(2) 0.030(4) Uani 1 2 d S T P
O00A O 0.3333 0.6667 0.5000 0.087(17) Uani 1 12 d S T P
C00B C 0.907(3) 0.814(6) 0.0000 0.15(3) Uani 1 4 d S T P
C00C C 0.404(2) 0.596(2) 0.5000 0.12(2) Uani 1 4 d S TU P
C0AA C 0.3333 0.6667 0.296(14) 0.18(4) Uani 1 6 d S TU P
C2 C 0.784(3) 0.8921(14) 0.274(5) 0.105(12) Uani 1 2 d S T P
C1 C 0.684(8) 0.842(4) 0.5000 0.21(3) Uani 1 4 d S TU P
loop_
_atom_site_aniso_label
_atom_site_aniso_U_11
_atom_site_aniso_U_22
_atom_site_aniso_U_33
_atom_site_aniso_U_23
_atom_site_aniso_U_13
_atom_site_aniso_U_12
K001 0.025(2) 0.025(2) 0.022(8) 0.000 0.000 0.0126(11)
Si02 0.0155(19) 0.0155(17) 0.023(4) 0.000 0.000 0.0077(17)
Si03 0.0158(12) 0.0216(15) 0.018(3) 0.0011(12) -0.0014(13) 0.0098(13)
O004 0.029(8) 0.025(6) 0.040(19) 0.000 0.000 0.014(4)
O005 0.019(6) 0.019(6) 0.032(18) 0.000 0.000 0.006(6)
O006 0.029(5) 0.033(6) 0.011(10) 0.000 0.000 0.019(5)
O007 0.028(4) 0.026(3) 0.037(8) 0.003(4) -0.006(3) 0.017(3)
O008 0.020(4) 0.020(4) 0.043(12) -0.006(3) 0.006(3) 0.008(5)
O009 0.026(4) 0.041(7) 0.030(13) -0.001(6) 0.000(3) 0.020(3)
O00A 0.10(2) 0.10(2) 0.06(6) 0.000 0.000 0.049(11)
C00B 0.11(3) 0.27(8) 0.11(8) 0.000 0.000 0.14(4)
C00C 0.18(3) 0.18(3) 0.06(6) 0.000 0.000 0.14(3)
C0AA 0.21(4) 0.21(4) 0.13(7) 0.000 0.000 0.11(2)
C2 0.17(3) 0.081(12) 0.09(4) -0.007(13) -0.01(3) 0.086(16)
C1 0.32(6) 0.095(16) 0.28(7) 0.000 0.000 0.16(3)
loop_
_atom_type_symbol
_atom_type_description
_atom_type_scat_dispersion_real
_atom_type_scat_dispersion_imag
_atom_type_scat_source
C C 0.0033 0.0016 'International Tables Vol C Tables 4.2.6.8 and 6.1.1.4'
K K 0.2270 0.2950 'International Tables Vol C Tables 4.2.6.8 and 6.1.1.4'
O O 0.0130 0.0070 'International Tables Vol C Tables 4.2.6.8 and 6.1.1.4'
Si Si 0.0900 0.0790 'International Tables Vol C Tables 4.2.6.8 and 6.1.1.4'
loop_
_geom_angle_atom_site_label_1
_geom_angle_atom_site_label_2
_geom_angle_atom_site_label_3
_geom_angle
_geom_angle_site_symmetry_1
_geom_angle_site_symmetry_3
O008 K001 O008 134.33(19) 5_655 3_665
O008 K001 O008 84.5(4) 6_665 4
O008 K001 O008 134.33(19) 6_665 .
O008 K001 O008 84.5(4) 5_655 6_665
O008 K001 O008 134.33(19) 5_655 .
O008 K001 O008 78.2(6) 3_665 6_665
O008 K001 O008 134.33(19) 3_665 4
O008 K001 O008 78.2(6) 5_655 2_655
O008 K001 O008 134.33(19) 2_655 4
O008 K001 O008 84.5(4) 3_665 2_655
O008 K001 O008 84.5(4) 3_665 .
O008 K001 O008 134.33(19) 6_665 2_655
O008 K001 O008 84.5(4) 2_655 .
O008 K001 O008 84.5(4) 5_655 4
O008 K001 O008 78.2(6) 4 .
O008 K001 O009 110.4(4) 2_655 .
O008 K001 O009 171.5(4) 6_665 2_655
O008 K001 O009 171.5(4) 5_655 .
O008 K001 O009 49.10(13) . .
O008 K001 O009 171.5(4) 4 3_665
O008 K001 O009 171.5(4) 3_665 5_655
O008 K001 O009 89.2(3) 6_665 .
O008 K001 O009 89.2(3) 2_655 5_655
O008 K001 O009 89.2(3) 4 2_655
O008 K001 O009 89.2(3) . 5_655
O008 K001 O009 110.4(4) . 3_665
O008 K001 O009 89.2(3) 3_665 4
O008 K001 O009 49.10(13) 3_665 .
O008 K001 O009 171.5(4) 2_655 4
O008 K001 O009 89.2(3) 5_655 2_655
O008 K001 O009 89.2(3) 4 .
O008 K001 O009 49.10(13) 5_655 6_665
O008 K001 O009 49.10(13) 5_655 5_655
O008 K001 O009 89.2(3) 3_665 6_665
O008 K001 O009 110.4(4) 6_665 5_655
O008 K001 O009 49.10(13) 6_665 6_665
O008 K001 O009 49.10(13) 4 5_655
O008 K001 O009 89.2(3) 2_655 6_665
O008 K001 O009 110.4(4) 5_655 4
O008 K001 O009 110.4(4) 4 6_665
O008 K001 O009 49.10(13) 6_665 4
O008 K001 O009 171.5(4) . 6_665
O008 K001 O009 49.10(13) 4 4
O008 K001 O009 89.2(3) 5_655 3_665
O008 K001 O009 110.4(4) 3_665 2_655
O008 K001 O009 49.10(13) 3_665 3_665
O008 K001 O009 49.10(13) 2_655 2_655
O008 K001 O009 89.2(3) 6_665 3_665
O008 K001 O009 49.10(13) . 2_655
O008 K001 O009 49.10(13) 2_655 3_665
O008 K001 O009 89.2(3) . 4
O009 K001 O009 96.4(3) 6_665 4
O009 K001 O009 96.4(3) 6_665 5_655
O009 K001 O009 96.4(3) . 2_655
O009 K001 O009 128.99(15) 3_665 4
O009 K001 O009 128.99(15) 6_665 2_655
O009 K001 O009 61.1(5) . 4
O009 K001 O009 96.4(3) 3_665 .
O009 K001 O009 96.4(3) 5_655 4
O009 K001 O009 128.99(15) 3_665 5_655
O009 K001 O009 128.99(15) . 5_655
O009 K001 O009 96.4(3) 3_665 2_655
O009 K001 O009 61.1(5) 6_665 3_665
O009 K001 O009 61.1(5) 5_655 2_655
O009 K001 O009 128.99(15) 6_665 .
O009 K001 O009 128.99(15) 4 2_655
O004 Si02 O005 110.7(8) . .
O004 Si02 O007 107.3(4) . .
O004 Si02 O007 107.3(4) . 4
O007 Si02 O005 110.8(4) 4 .
O007 Si02 O005 110.8(4) . .
O007 Si02 O007 109.8(6) . 4
O006 Si03 K001 138.7(3) . .
O006 Si03 O007 107.9(5) . .
O006 Si03 O008 110.6(7) . .
O006 Si03 O009 112.3(7) . .
O007 Si03 K001 112.3(4) . .
O008 Si03 K001 46.3(4) . .
O008 Si03 O007 109.8(5) . .
O009 Si03 K001 63.4(5) . .
O009 Si03 O007 108.0(6) . .
O009 Si03 O008 108.2(6) . .
Si02 O004 Si02 170.9(11) . 9_565
Si02 O005 Si02 152.2(11) 7_665 .
Si03 O006 Si03 152.9(7) 4_556 .
Si02 O007 Si03 142.5(5) . .
Si03 O008 K001 109.6(4) 7_665 .
Si03 O008 K001 109.6(4) . .
Si03 O008 Si03 140.8(8) . 7_665
Si03 O009 K001 91.0(4) . .
Si03 O009 K001 91.0(4) 8_655 .
Si03 O009 Si03 142.8(11) . 8_655
C00C O00A C00C 120.000(6) 2_665 .
C00C O00A C00C 120.000(4) 3_565 2_665
C00C O00A C00C 120.000(2) 3_565 .
C0AA O00A C00C 90.00(4) 4_556 3_565
C0AA O00A C00C 90.00(2) 4_556 2_665
C0AA O00A C00C 90.000(7) . .
C0AA O00A C00C 90.00(3) . 3_565
C0AA O00A C00C 90.002(11) 4_556 .
C0AA O00A C00C 90.00(2) . 2_665
C0AA O00A C0AA 180.0 4_556 .
loop_
_geom_bond_atom_site_label_1
_geom_bond_atom_site_label_2
_geom_bond_distance
_geom_bond_site_symmetry_2
K001 O008 2.915(13) 5_655
K001 O008 2.915(13) 4
K001 O008 2.915(13) 2_655
K001 O008 2.915(13) 3_665
K001 O008 2.915(13) 6_665
K001 O008 2.915(13) .
K001 O009 3.395(13) 6_665
K001 O009 3.395(13) 2_655
K001 O009 3.395(13) 4
K001 O009 3.395(13) .
K001 O009 3.395(13) 5_655
K001 O009 3.395(13) 3_665
Si02 O004 1.618(5) .
Si02 O005 1.631(6) .
Si02 O007 1.628(8) .
Si02 O007 1.628(8) 4
Si03 O006 1.627(4) .
Si03 O007 1.648(8) .
Si03 O008 1.644(5) .
Si03 O009 1.638(6) .
O004 Si02 1.618(5) 9_565
O005 Si02 1.631(6) 7_665
O006 Si03 1.627(4) 4_556
O008 Si03 1.644(5) 7_665
O009 Si03 1.638(6) 8_655
O00A C00C 1.63(5) 2_665
O00A C00C 1.63(5) 3_565
O00A C00C 1.63(5) .
O00A C0AA 1.54(11) 4_556
O00A C0AA 1.54(11) .
loop_
_refln_index_h
_refln_index_k
_refln_index_l
_refln_F_squared_meas
_refln_F_squared_sigma
-1 1 0 1349.07 125.59
0 1 0 1145.09 106.69
-1 2 0 1263.27 121.59
1 -2 0 1298.07 121.59
-2 1 0 1344.97 121.49
2 -2 0 704.83 64.29
2 0 0 688.13 64.09
0 2 0 665.63 64.29
-2 2 0 717.83 64.19
0 -2 0 648.24 64.09
-3 1 0 1766.42 156.48
-2 -1 0 1649.73 156.38
-1 3 0 1606.14 156.48
2 1 0 1482.45 138.99
1 -3 0 1493.75 138.99
2 -3 0 1683.13 156.58
3 -3 0 2041.6 190.48
3 0 0 2012.5 184.78
-3 3 0 2081.09 184.78
0 -3 0 1851.71 184.68
-2 4 0 1948.91 179.78
4 -2 0 2006.4 179.68
2 2 0 1820.12 179.68
4 -3 0 461.25 46.5
4 -1 0 530.05 47.4
-1 4 0 477.15 46.9
3 -4 0 536.45 47.5
1 3 0 465.25 46.7
-4 3 0 489.15 47.4
3 -4 0 476.65 46.8
-4 1 0 512.95 46.6
-1 -3 0 481.55 47.3
-3 -1 0 496.25 46.5
3 1 0 481.65 47.5
-4 0 0 9999 912.11
0 4 0 9817.82 912.11
-4 4 0 9538.05 887.61
4 -4 0 9587.44 912.11
-5 3 0 52.19 8.9
3 -5 0 57.39 10.4
2 3 0 63.29 9.2
5 -3 0 54.89 8.6
3 2 0 62.49 9.1
-3 -2 0 57.59 8.6
-5 2 0 57.19 8.5
-3 5 0 70.79 11.3
5 -2 0 57.19 8.7
2 -5 0 49.6 9
-2 -3 0 56.79 8.6
-2 5 0 58.39 10.1
-1 5 0 1200.88 109.29
-5 4 0 1068.59 101.19
1 -5 0 1054.19 101.19
5 -4 0 1119.19 108.99
-1 -4 0 1104.19 101.09
-5 1 0 1167.58 109.09
-5 0 0 498.35 47.7
5 -5 0 466.75 47.6
0 -5 0 502.85 48.7
0 5 0 510.05 47.6
5 0 0 505.75 48.5
3 3 0 2139.59 196.58
-6 3 0 1962.7 196.38
6 -3 0 2094.59 196.48
3 -6 0 2148.39 196.68
-3 6 0 2135.39 196.68
-3 -3 0 2137.99 196.48
2 -6 0 -4.2 6.8
4 -6 0 -1.2 8.6
6 -4 0 0 6.7
-6 4 0 8 7.3
4 -6 0 -1.4 10.1
6 -2 0 3.7 7.7
4 2 0 -18.2 7.4
-6 2 0 8.9 6.9
-2 6 0 14.3 8.9
-4 -2 0 2 6.8
-2 -4 0 -3.7 7.1
2 4 0 6.3 7.5
6 -5 0 49.1 9.5
-1 6 0 64.49 10.8
-6 5 0 61.39 9.7
5 -6 0 68.29 9.8
-6 1 0 54.49 9.7
5 -6 0 39.8 13.8
1 -6 0 49.99 9.5
6 -1 0 59.09 9.6
5 1 0 36.7 9.9
-1 -5 0 47.2 9.2
1 5 0 46 10
-6 0 0 108.79 14.4
6 -6 0 109.19 14.4
6 0 0 125.49 13.9
0 6 0 130.19 14.8
0 -6 0 99.99 13.9
-4 -3 0 148.09 18.8
3 -7 0 194.18 21.1
7 -4 0 152.98 17.5
-3 -4 0 145.19 17.8
4 3 0 142.99 17.6
7 -3 0 148.99 17.6
-7 4 0 162.98 17.8
-3 7 0 166.58 18.5
-7 3 0 166.18 17.5
4 -7 0 113.39 18.5
3 4 0 165.18 17.7
-7 2 0 1285.97 127.59
5 2 0 1296.57 128.19
-5 -2 0 1354.96 127.59
5 -7 0 1464.95 128.69
-2 -5 0 1416.46 128.09
2 -7 0 1429.46 128.19
7 -2 0 1394.56 128.09
5 -7 0 1286.77 127.79
-7 5 0 1273.17 127.99
2 5 0 1453.35 127.89
7 -5 0 1370.06 127.49
-2 7 0 1319.17 127.99
1 6 0 304.77 36.7
-1 -6 0 370.66 35.1
-1 7 0 334.77 37
1 -7 0 338.37 35.4
7 -1 0 304.07 35.1
-6 -1 0 352.36 36.3
6 1 0 343.77 35.9
-7 1 0 332.47 36.3
6 -7 0 387.66 36.2
-7 6 0 357.66 35.5
6 -7 0 408.06 39.9
7 -6 0 374.76 36
0 -7 0 54.79 11.1
7 0 0 30.8 9.5
7 -7 0 30.4 9.8
0 7 0 38.6 10.9
-7 0 0 20.6 9.9
8 -4 0 7520.35 690.13
-8 4 0 7055.89 690.03
-4 -4 0 7822.12 689.93
-4 8 0 7203.38 690.23
4 -8 0 7437.56 690.23
5 3 0 405.56 39.8
-8 3 0 388.26 40
-5 -3 0 439.16 39.9
-3 8 0 402.96 41.4
8 -5 0 359.36 40.1
8 -3 0 345.57 39.9
5 -8 0 476.35 42.9
3 5 0 375.56 40.7
-3 -5 0 408.06 39.9
5 -8 0 354.16 42.1
-8 5 0 343.07 39.6
3 -8 0 445.46 40.1
-2 -6 0 927.91 80.09
2 -8 0 836.72 79.99
6 -8 0 800.42 80.49
6 -8 0 903.41 82.49
-6 -2 0 788.12 80.49
2 6 0 936.71 80.99
8 -2 0 888.21 80.09
-2 8 0 809.42 81.09
8 -6 0 870.01 80.19
6 2 0 765.62 80.09
-8 2 0 814.62 80.39
-8 6 0 757.32 79.89
-8 1 0 193.78 22.8
8 -1 0 181.78 24.6
7 -8 0 207.08 25
-7 -1 0 208.78 23
8 -7 0 200.58 24.8
7 -8 0 205.28 26.3
7 1 0 199.88 26.4
-1 -7 0 211.38 25.1
1 -8 0 209.08 25.9
1 7 0 210.48 25.3
-8 7 0 242.58 24.8
-1 8 0 214.58 26.7
8 -8 0 1891.21 178.18
-8 0 0 1778.22 176.18
8 -8 0 1851.41 176.28
0 8 0 1998 176.48
8 0 0 1652.23 155.38
9 -4 0 1115.59 106.69
-9 5 0 1081.59 106.79
9 -5 0 1132.19 108.79
4 -9 0 1126.79 106.99
-4 9 0 1071.89 109.39
-5 -4 0 1210.18 108.39
-4 -5 0 1156.08 106.49
5 4 0 1134.89 106.99
5 -9 0 1235.38 109.59
-9 4 0 1080.39 108.89
9 -3 0 76.19 13.5
-6 -3 0 54.19 12.7
-9 6 0 45.9 13
6 -9 0 57.99 17.5
3 6 0 64.59 13.7
-9 3 0 64.69 12.7
9 -6 0 82.79 13.2
-3 9 0 57.69 14.9
3 -9 0 62.09 14.1
6 3 0 57.99 13.1
6 -9 0 97.59 14.2
-3 -6 0 70.79 13.2
-2 9 0 210.98 24.2
-2 -7 0 198.38 24.7
-9 7 0 208.88 22.4
-7 -2 0 222.18 23.3
7 -9 0 143.99 27.1
9 -7 0 192.48 22.3
9 -2 0 173.98 21
2 7 0 230.78 27.3
7 -9 0 201.28 23.5
7 2 0 148.89 21.5
-9 2 0 198.38 23
-8 -1 0 625.04 59.69
-1 -8 0 637.84 57.49
1 8 0 642.04 59.99
8 1 0 494.85 58.19
-9 1 0 620.24 59.39
1 -9 0 643.14 57.79
8 -9 0 619.14 59.69
9 -1 0 537.55 57.09
8 -9 0 559.74 63.19
-1 9 0 504.45 60.39
9 -8 0 604.74 59.49
0 -9 0 4974.4 444.76
9 0 0 4561.34 444.76
-9 0 0 5008.3 470.45
9 -9 0 5077.99 470.45
5 5 0 96.59 16.8
-5 -5 0 101.79 15.8
10 -5 0 146.69 17.1
5 -10 0 113.39 19.2
-10 5 0 114.19 17.7
4 6 0 76.69 15
6 4 0 52.89 14.5
-4 -6 0 67.79 13.7
6 -10 0 113.89 16.8
-10 6 0 69.59 15.2
4 -10 0 39 14.5
-6 -4 0 47.2 13.8
10 -4 0 84.19 15
-4 10 0 63.59 17.4
6 -10 0 55.29 17.9
-10 4 0 81.09 14.8
10 -6 0 81.09 14.5
-3 10 0 393.76 41.9
10 -7 0 364.36 40.1
10 -3 0 361.36 41
3 7 0 447.46 41.9
-10 7 0 368.96 41.6
7 -10 0 375.06 45.4
-3 -7 0 374.86 41
3 -10 0 417.96 41.7
-10 3 0 384.46 40.1
-7 -3 0 304.27 40.2
7 -10 0 381.86 41.3
7 3 0 376.16 41
-8 -2 0 501.05 56.89
-2 -8 0 565.34 55.69
8 2 0 512.75 56.09
8 -10 0 529.95 61.49
-10 8 0 533.15 56.49
8 -10 0 556.34 57.29
2 -10 0 561.54 55.69
10 -8 0 634.04 56.19
2 8 0 621.84 57.49
-10 2 0 520.65 56.59
-2 10 0 563.54 58.29
10 -2 0 557.54 54.89
-1 -9 0 60.99 15.3
1 9 0 118.69 17.4
10 -1 0 64.69 14.1
9 -10 0 83.19 16.4
-1 10 0 76.59 18.9
9 -10 0 37.7 22.8
-9 -1 0 63.19 16.2
9 1 0 64.69 16.1
10 -9 0 91.29 15.4
1 -10 0 50.59 16.2
-10 1 0 77.89 15.9
0 10 0 1 16.2
10 0 0 -6 14.5
10 -10 0 20.6 25.1
10 -10 0 10.7 14.1
0 -10 0 5.1 14.8
-10 0 0 16.2 14.8
5 6 0 111.99 19.4
11 -6 0 131.39 19.5
6 5 0 143.19 19.4
-5 -6 0 112.09 17.3
-11 6 0 120.79 19.9
6 -11 0 170.98 22.2
5 -11 0 105.59 20.3
-6 -5 0 132.09 18.2
-5 11 0 105.59 22.4
6 -11 0 143.59 22.4
11 -5 0 128.19 19.4
4 7 0 43.9 15.9
-11 7 0 63.39 16.5
11 -7 0 70.99 15.8
-4 11 0 84.79 18.9
7 4 0 26.5 15.4
11 -4 0 23.8 14.9
-11 4 0 83.09 15.9
7 -11 0 73.89 17.3
4 -11 0 57.59 17.6
-4 -7 0 95.89 15.1
7 -11 0 28.7 20.1
-7 -4 0 55.59 14.9
8 3 0 240.78 29
-3 -8 0 289.87 29.4
-11 8 0 279.67 30.1
-8 -3 0 249.97 28.5
-3 11 0 232.08 29.9
11 -3 0 245.78 28.4
11 -8 0 265.37 28.6
3 -11 0 208.98 29.2
8 -11 0 225.48 33
-11 3 0 235.38 28.1
8 -11 0 262.57 33.2
3 8 0 282.87 34.1
-2 -9 0 110.49 19.1
2 9 0 122.29 20.1
11 -9 0 119.89 18.1
2 -11 0 88.49 19.4
-9 -2 0 127.29 19.4
-11 2 0 85.79 18.5
-2 11 0 110.49 21.4
11 -2 0 118.09 17.1
9 2 0 82.19 18.9
9 -11 0 147.89 19.7
9 -11 0 96.49 26.8
-11 1 0 262.87 37.3
-1 -10 0 337.57 36.4
-10 -1 0 275.97 33.9
11 -10 0 292.47 42.4
1 10 0 384.76 39
1 -11 0 293.77 32.2
11 -1 0 247.28 31.2
10 1 0 264.77 32.5
-1 11 0 346.97 40.7
10 -11 0 326.87 38.5
11 -10 0 314.17 36.8
11 0 0 11.8 17.5
0 11 0 -1.3 18.7
11 -11 0 42.7 28.7
-11 0 0 29.2 17
11 -11 0 6.6 15.4
0 -11 0 6.7 17.4
-12 6 0 60.99 18.2
6 -12 0 26.2 19.2
6 6 0 76.29 17.3
12 -6 0 50.69 16.8
-6 -6 0 59.49 14.9
12 -7 0 99.89 18.2
-5 12 0 98.39 22.9
5 7 0 99.29 19.1
-12 5 0 70.79 19.5
12 -5 0 75.09 18.8
7 -12 0 89.79 22.5
-12 7 0 77.89 19.2
7 -12 0 132.59 21
7 5 0 76.99 18.5
-5 -7 0 91.79 15.9
5 -12 0 77.99 20.6
-7 -5 0 82.29 17.4
8 4 0 634.84 68.59
12 -8 0 696.83 67.49
-4 -8 0 723.93 67.79
8 -12 0 632.84 71.19
-4 12 0 662.43 68.79
4 8 0 650.83 67.69
8 -12 0 634.04 68.89
12 -4 0 662.03 67.89
-12 8 0 656.73 69.19
4 -12 0 685.03 69.09
-12 4 0 673.13 67.19
3 9 0 423.56 46.1
9 3 0 365.76 42.6
-9 -3 0 370.96 44.9
12 -3 0 367.66 40.9
12 -9 0 391.26 45.3
-12 9 0 355.26 45
-3 -9 0 343.17 42.6
-3 12 0 356.86 47.7
3 -12 0 359.06 43.4
-12 3 0 422.46 44.6
9 -12 0 362.96 46.4
9 -12 0 431.66 46.4
10 2 0 19.9 18.1
10 -12 0 -15.4 27.3
-2 -10 0 9.5 17.2
-2 12 0 4.7 20
-12 2 0 28.2 16.3
2 10 0 3.8 17.9
2 -12 0 -3.7 18.7
-10 -2 0 19.4 17
12 -2 0 29.1 15.4
12 -10 0 32.5 15.5
10 -12 0 19.8 17
-1 -11 0 18.6 19
11 -12 0 30.7 17.4
-11 -1 0 14.7 17.6
1 -12 0 44.2 19.7
11 1 0 38.5 19.8
12 -11 0 31.4 16.4
-1 12 0 38.1 20.8
11 -12 0 10.4 30
12 -1 0 15.3 17.7
-12 1 0 -8.4 17.4
12 -11 0 28.3 32.5
1 11 0 1.5 19.4
-12 0 0 1032.1 112.99
0 12 0 1266.17 114.59
12 -12 0 1221.38 113.09
12 0 0 964.3 106.29
0 -12 0 1188.58 105.89
-13 6 0 25 19.3
-13 7 0 27 20.1
7 -13 0 50.19 21.2
13 -6 0 60.49 18.2
13 -7 0 34.3 17.6
-7 -6 0 17.1 15.7
7 -13 0 9.2 22.2
6 7 0 28.3 18.3
-6 -7 0 35.2 15.8
6 -13 0 23.7 22.8
7 6 0 38.8 18
13 -5 0 792.12 85.29
-8 -5 0 770.42 77.89
-5 13 0 679.53 80.39
8 -13 0 716.23 81.49
-5 -8 0 939.01 83.69
-13 5 0 852.91 79.29
-13 8 0 891.31 86.09
8 -13 0 786.72 81.59
8 5 0 807.12 85.19
13 -8 0 838.72 78.29
5 -13 0 820.32 86.39
9 -13 0 640.84 76.19
13 -4 0 686.03 73.09
9 4 0 616.34 73.99
9 -13 0 752.02 71.59
-4 13 0 616.94 72.39
4 -13 0 716.33 74.99
4 9 0 769.52 71.19
-13 4 0 636.84 70.39
13 -9 0 660.53 70.89
-13 9 0 826.02 75.89
-9 -4 0 697.43 69.79
-4 -9 0 797.42 72.99
3 -13 0 -12.8 20.1
-3 13 0 -12.2 21.8
10 -13 0 -40.9 29.5
3 10 0 -18.6 19.3
-3 -10 0 -15.5 18.9
13 -3 0 12.4 16.6
13 -10 0 5.6 18.4
-13 3 0 -6.4 17.9
10 -13 0 11.5 18.6
-10 -3 0 5.9 18
10 3 0 5 18.7
-2 -11 0 109.29 23.2
-2 13 0 104.49 24.4
13 -11 0 59.99 36
11 2 0 92.19 22.8
11 -13 0 57.69 33.1
-13 2 0 100.89 20.8
2 -13 0 93.49 23.3
13 -11 0 118.59 20.9
13 -2 0 78.79 20.8
2 11 0 85.19 23
11 -13 0 62.39 21.3
-11 -2 0 84.89 20.9
12 -13 0 54.59 21.1
1 12 0 84.49 24.6
12 1 0 78.09 23.2
13 -12 0 75.39 36.8
13 -1 0 68.79 22.4
-1 -12 0 67.89 22.7
-1 13 0 90.99 24.9
12 -13 0 135.09 36.7
1 -13 0 66.89 23.9
13 -12 0 65.79 19.6
-12 -1 0 60.19 21
-13 1 0 60.29 21.1
13 0 0 677.13 75.89
0 13 0 911.81 83.49
13 -13 0 764.62 80.59
0 -13 0 719.23 74.29
-13 0 0 716.73 80.99
7 -14 0 133.59 26.4
7 7 0 44.1 21.7
-7 -7 0 102.29 19.7
7 -14 0 84.99 26.7
14 -7 0 106.39 22.3
-14 7 0 74.19 24.3
14 -8 0 5 19.5
-6 -8 0 37.5 17.1
8 -14 0 19.6 26
8 -14 0 29.5 24.4
14 -6 0 44 20.4
-14 6 0 22.9 22.3
-8 -6 0 44.8 18.6
6 -14 0 21.1 23.9
8 6 0 28 19.7
-14 8 0 49.8 23.4
6 8 0 -0.9 20.4
-5 -9 0 180.88 22.7
-14 9 0 186.28 29.1
9 -14 0 167.08 25.8
9 5 0 119.49 25.3
-5 14 0 117.49 28.9
14 -9 0 133.49 24.5
5 -14 0 126.69 27.7
-9 -5 0 140.09 24.6
9 -14 0 109.09 31.4
-14 5 0 169.18 26.8
14 -5 0 127.69 23.9
5 9 0 196.58 27.2
10 -14 0 -24 30.2
-4 14 0 31.5 24.4
-4 -10 0 22.8 18.2
-14 4 0 -0.8 21.3
4 10 0 25.9 21
14 -4 0 27.9 18.4
-14 10 0 -14 27.2
-10 -4 0 21.5 20.4
4 -14 0 13.7 22.9
10 -14 0 14 21
14 -10 0 34.6 20.7
10 4 0 4.1 20.8
-3 -11 0 53.59 21.7
11 3 0 41.6 22.5
14 -3 0 55.49 20.3
11 -14 0 89.19 35.3
3 -14 0 95.79 24.8
14 -11 0 22 21.8
-3 14 0 57.09 25.8
-14 3 0 55.29 21.9
11 -14 0 50.39 22.5
-11 -3 0 88.99 21.4
3 11 0 67.19 23.8
14 -12 0 33.7 40.4
-2 14 0 29.9 26.2
-14 2 0 58.69 21.9
14 -12 0 33 22.5
12 -14 0 41.6 22.3
2 12 0 49.3 24.4
-2 -12 0 68.39 23.9
12 -14 0 71.89 37.8
14 -2 0 49.1 22.9
2 -14 0 86.29 25.5
-12 -2 0 45.7 22.2
12 2 0 35.7 23.7
-13 -1 0 18.9 22.4
-1 14 0 -12.5 26.5
1 13 0 4.5 26.4
14 -1 0 37.4 25.1
-1 -13 0 10.2 24.1
13 1 0 -9.4 25
-14 1 0 55.99 22.9
1 -14 0 0.4 25.7
13 -14 0 9.6 41.3
14 -13 0 16.7 40.7
14 -13 0 22.8 21.2
13 -14 0 14.2 22
7 -15 0 32.9 26.9
-7 -8 0 33.1 19
8 7 0 -0.7 21.8
8 -15 0 -5.3 29.6
-15 7 0 1.7 25.9
15 -8 0 16.9 21.6
-15 8 0 9.1 26.2
7 -15 0 -10.9 27.7
-8 -7 0 -14 20.1
7 8 0 10 22.4
15 -7 0 11.8 22
8 -15 0 24.1 27.1
9 6 0 86.99 26
6 -15 0 182.68 30.9
6 9 0 129.29 27.9
-15 9 0 161.78 31.7
-9 -6 0 126.19 25.9
-15 6 0 153.18 29.4
15 -9 0 187.48 27.3
9 -15 0 158.48 28.7
9 -15 0 80.19 33.1
-6 -9 0 160.78 24
15 -6 0 143.29 25.3
5 -15 0 83.09 28.1
-15 10 0 94.09 31.7
-10 -5 0 69.19 23.4
5 10 0 89.19 25.2
-5 15 0 71.09 29
10 -15 0 82.09 33.6
15 -5 0 94.79 21.9
-15 5 0 70.59 26
15 -10 0 95.89 23.9
10 -15 0 102.39 25.9
10 5 0 52.29 23.9
-5 -10 0 109.69 20.8
15 -11 0 27.2 23
-4 -11 0 -10 20
4 -15 0 15.9 26.7
-11 -4 0 -12.2 21.8
-4 15 0 10.6 28.6
15 -4 0 11.9 20.4
11 -15 0 20.3 34.6
11 -15 0 3.3 24.4
11 4 0 17.7 23.5
4 11 0 18.1 24.3
-15 4 0 38.8 24.3
-3 15 0 16.5 29.3
3 12 0 34.6 25.8
-3 -12 0 44.4 22.8
15 -12 0 21.7 24.8
12 -15 0 36.6 25
15 -3 0 28.1 23.2
12 -15 0 -28 39
-15 3 0 -20 23.9
15 -12 0 -51.29 43.2
3 -15 0 20.1 27.7
-12 -3 0 17.3 22.7
12 3 0 33.8 24.8
-1 1 1 244.38 22.5
1 0 -1 248.08 22.5
0 -1 -1 208.98 22.5
1 -1 -1 233.98 22.4
-2 1 1 17.3 4.8
1 -2 -1 24.8 6.3
1 1 -1 10.4 4.2
2 -1 -1 23.9 4.3
-1 2 1 32.9 6.2
-2 0 1 1221.08 111.59
-2 2 1 1191.18 109.59
2 0 -1 1153.78 109.59
2 -2 -1 1168.18 111.69
3 -2 -1 2318.67 216.28
-1 -2 1 2209.28 205.38
1 -3 -1 2130.39 205.58
-3 2 1 2269.37 205.48
-1 3 1 2239.98 216.28
-2 -1 1 2396.36 216.18
0 -3 -1 105.49 11.3
-3 0 1 110.69 13.2
-3 0 -1 101.89 11.7
0 3 1 111.09 12
-3 3 1 112.59 13.4
3 0 -1 89.49 11.1
3 0 1 103.29 11.1
3 -3 -1 107.49 13.5
0 -3 1 92.09 10.8
4 -2 -1 6.1 5.7
2 2 -1 17.7 6
-2 4 1 31.4 8.2
-4 2 1 5.3 6.1
-4 2 -1 7.1 5
-2 -2 1 11.2 5.4
2 2 1 10.8 5.7
-2 -2 -1 7.4 5.8
2 -4 -1 2.3 7.5
3 1 -1 218.88 21.2
-4 1 1 233.68 21.2
4 -3 -1 185.38 21.3
-3 -1 -1 222.78 20.9
1 3 1 168.18 21.3
4 -1 1 220.28 21
-1 4 -1 202.98 21.1
1 -4 -1 228.68 21.9
-1 -3 1 172.68 20.9
3 1 1 183.88 21.4
-1 4 1 206.48 22.1
-1 -3 -1 189.58 21.2
3 -4 -1 184.48 21.2
1 3 -1 207.68 21.3
4 -1 -1 215.48 21.3
-4 3 1 200.28 21.3
-3 -1 1 191.48 21.2
1 -4 1 192.08 20.9
0 4 -1 2050.69 183.58
4 -4 -1 1893.91 183.58
0 4 1 2030.6 183.58
4 0 1 1898.41 176.78
4 -4 1 1889.11 183.38
-4 4 1 1890.91 177.08
0 -4 1 1889.21 176.78
5 -2 1 589.04 51.99
-2 -3 1 557.34 51.99
2 3 1 569.74 54.29
-5 2 1 552.44 54.09
3 2 -1 560.24 52.39
-2 5 -1 534.55 54.49
-3 -2 -1 564.64 54.29
2 3 -1 588.64 54.29
3 2 1 542.05 51.99
-5 3 1 532.85 52.19
-5 2 -1 575.64 53.99
5 -2 -1 496.25 52.09
-2 5 1 561.34 54.69
-2 -3 -1 548.25 51.89
-3 -2 1 581.54 54.09
2 -5 1 516.35 51.79
-1 5 -1 7.7 6.7
1 -5 -1 7.7 6.8
5 -4 -1 -14.1 6.7
5 -1 1 7.3 6.4
-1 -4 1 -1.2 6.4
1 4 1 4.4 7.2
4 -5 1 17.4 8.5
4 -5 1 8.4 5.8
-4 -1 -1 -1.6 6.2
4 1 -1 5.3 6.6
-5 4 -1 -0.4 6.3
-5 1 1 3.8 6.5
1 -5 1 5.4 6.3
-1 5 1 -1.6 8.2
-1 -4 -1 -0.8 7
-5 4 1 2.3 6.9
4 1 1 10.6 6.7
4 -5 -1 8.4 11.6
4 -5 -1 -0.6 6.9
1 4 -1 9.3 6.5
5 -4 1 4.3 6
-4 -1 1 -0.6 6.7
5 -1 -1 -0.4 7.2
-5 1 -1 12.4 6.7
-5 5 1 112.69 14
0 5 1 116.99 13.5
5 0 1 89.59 12.3
-5 0 -1 109.19 13.2
5 0 -1 117.59 12.7
0 -5 1 85.89 12.1
-5 0 1 108.09 13.1
5 -5 -1 89.29 13.4
0 5 -1 116.19 13.5
0 -5 -1 98.39 12.6
3 3 -1 924.21 88.49
-6 3 -1 937.81 88.39
6 -3 1 928.71 88.29
-3 -3 -1 966.8 88.69
6 -3 -1 903.21 88.39
-6 3 1 888.61 88.59
-3 6 1 958.4 89.09
3 -6 1 986 88.59
-3 6 -1 988 88.79
3 -6 -1 880.51 89.29
4 2 -1 291.67 29.8
6 -4 -1 256.67 30
-6 4 -1 285.27 28.9
4 -6 1 350.76 31.9
-2 6 -1 341.67 31.4
2 -6 -1 242.68 29.8
-2 -4 1 281.97 29.2
2 4 1 262.07 30.7
-6 2 1 257.37 29.9
2 4 -1 306.47 31
-2 6 1 319.57 31.8
-2 -4 -1 296.27 29
4 -6 -1 309.77 33.3
6 -2 -1 256.27 29
-6 4 1 272.47 29.3
4 2 1 287.27 29
-4 -2 1 333.97 30.4
-6 2 -1 303.07 30.3
2 -6 1 294.57 29.1
4 -6 -1 255.07 31.8
-6 5 -1 398.76 40.5
6 -1 1 413.26 40.3
-6 1 1 413.86 42.3
1 5 1 453.75 42.5
-1 6 -1 469.05 42.6
5 -6 1 403.96 42.1
-5 -1 -1 449.86 42.3
5 1 -1 437.06 40.7
1 -6 -1 364.56 41
6 -5 -1 421.96 42.5
-1 -5 1 445.16 40.7
6 -5 1 417.06 42.1
-5 -1 1 370.96 42.4
-6 1 -1 427.06 42.4
1 -6 1 400.66 40.5
5 -6 -1 463.95 45.6
5 -6 -1 420.96 42.6
-6 5 1 397.86 40.9
5 1 1 432.16 40.8
-1 6 1 458.85 43.4
-1 -5 -1 454.15 40.9
1 5 -1 450.65 42.7
6 -1 -1 355.06 40.8
0 -6 -1 23.4 8.5
-6 0 1 16.4 8.8
0 6 -1 16.9 8.4
6 0 1 1.7 8.4
0 -6 1 19.8 8
6 -6 -1 10.2 8.7
0 6 1 15.2 9
-6 0 -1 6.8 8.8
6 0 -1 11.8 8.5
-7 3 1 105.19 15
3 4 1 148.39 15.4
4 -7 1 116.99 15.7
7 -3 1 112.19 15.6
-3 7 -1 112.79 15.9
3 -7 -1 120.09 16.4
4 3 -1 133.69 16.2
7 -4 -1 115.59 14.9
-3 -4 1 132.99 15.1
-7 4 -1 135.49 15.7
-4 -3 -1 110.79 14.7
4 3 1 142.19 15.7
-3 -4 -1 120.29 15.1
3 4 -1 130.39 15.4
-3 7 1 120.59 16.7
-7 4 1 124.79 15.8
4 -7 -1 116.49 17.8
-7 3 -1 130.89 14.8
3 -7 1 107.49 15.2
-4 -3 1 128.89 14.7
7 -3 -1 135.79 15.8
2 -7 -1 13.8 9.6
5 -7 1 18.5 11.8
5 2 -1 30.9 10.4
5 -7 1 54.69 9.8
-5 -2 -1 32.2 9
7 -5 -1 35.8 9
7 -2 1 37.2 9.3
-2 -5 1 7.6 9.1
2 5 1 34.8 10.1
-7 2 1 43 9.1
-2 7 -1 30.7 11.7
2 -7 1 35.7 9.2
5 2 1 34.9 9.2
-5 -2 1 18.6 9.1
5 -7 -1 18 14.1
2 5 -1 35.6 10.1
5 -7 -1 39.3 10.4
-7 2 -1 51.09 9.3
-7 5 1 38.6 9.8
-2 7 1 18.6 11.4
7 -5 1 44.5 9
7 -2 -1 35.9 10.2
-2 -5 -1 33.7 9.1
7 -6 -1 650.63 63.59
-7 1 1 643.14 63.49
-1 -6 1 675.83 61.29
-7 6 -1 562.54 61.39
1 -7 -1 631.84 61.49
7 -1 1 634.04 60.99
6 1 -1 619.44 61.19
1 6 1 671.43 63.59
-1 7 -1 674.33 63.89
-7 6 1 622.34 61.39
7 -1 -1 622.74 61.39
-1 7 1 715.63 64.39
-7 1 -1 673.63 63.69
-1 -6 -1 693.33 61.39
6 -7 -1 616.54 63.69
-6 -1 1 634.04 63.59
1 6 -1 673.23 63.99
1 -7 1 701.43 61.19
6 1 1 560.34 61.29
6 -7 -1 641.54 66.29
-7 0 1 68.19 12.2
0 7 1 71.09 12.9
7 -7 -1 69.69 12
0 -7 1 62.09 11.2
7 0 -1 51.09 10.9
0 -7 -1 61.59 11.7
7 0 1 41.1 11.6
0 7 -1 54.39 11.8
-7 0 -1 49 12.1
8 -4 1 13.5 9.3
8 -4 -1 13.7 9.9
-8 4 1 25.1 10
4 -8 -1 -7.8 12.3
4 -8 1 10.8 10.6
-4 -4 1 18 8.6
4 4 -1 -20.5 9.3
-4 8 1 18.8 13.1
-8 4 -1 18.5 10.3
-4 -4 -1 8.3 9.9
4 4 1 -15.6 9.5
3 5 1 29.3 10.2
-8 3 1 5.6 9.8
8 -3 1 8.3 10
3 -8 -1 17 10.8
5 -8 1 9.6 11.4
5 -8 1 1.2 12.2
5 3 -1 4.7 10.5
-5 -3 -1 12.4 8.9
-3 -5 1 -6.3 9
8 -5 -1 23.4 9.6
-3 8 -1 15.5 12
5 -8 -1 23.2 11.4
-5 -3 1 -0.3 9.1
3 -8 1 24.1 10.3
-8 3 -1 15.8 9.3
-8 5 1 2.5 10.2
5 3 1 10.7 9.8
3 5 -1 -3.9 9.8
-3 -5 -1 -3.1 9.4
8 -3 -1 15.8 10.1
-3 8 1 9.9 11.7
5 -8 -1 14 15.2
8 -6 -1 492.45 51.39
-8 2 1 520.75 51.59
2 -8 -1 431.36 51.09
6 2 -1 482.05 51.19
2 6 1 508.85 52.29
-2 8 -1 575.24 52.99
-2 -6 1 547.05 50.89
8 -2 1 450.55 50.39
-8 6 -1 494.35 50.59
-6 -2 -1 531.15 51.69
-8 2 -1 529.35 51.69
2 -8 1 571.04 50.59
8 -2 -1 516.95 50.89
6 2 1 506.35 50.49
-2 8 1 529.85 52.89
6 -8 -1 466.25 52.09
-2 -6 -1 556.14 50.59
2 6 -1 576.94 52.39
-8 6 1 532.05 50.89
6 -8 -1 484.45 54.59
-6 -2 1 551.64 51.89
8 -7 -1 5 10
-1 8 -1 11.2 12.1
8 -1 1 3.5 9.6
1 -8 -1 -9.7 10.4
7 -8 1 1.6 14.3
7 -8 1 9.2 9.7
-1 -7 1 12.9 10.8
7 1 -1 26.7 10.8
1 7 1 6.8 11.1
-7 -1 -1 6.3 10.5
-8 1 1 15 10.4
-7 -1 1 1 10.2
8 -1 -1 24.3 10.3
7 1 1 -5.1 10.4
7 -8 -1 12.4 10.4
1 7 -1 8.5 11.5
-1 -7 -1 7.5 10.6
1 -8 1 25.2 11.2
8 -7 1 6 9.5
-8 7 1 9.6 13
7 -8 -1 24.9 18.3
-8 1 -1 15.5 10.7
-1 8 1 46.1 13.2
0 -8 -1 692.23 75.59
8 0 -1 801.52 75.39
0 8 1 952.3 83.49
-8 0 -1 788.62 82.99
8 -8 -1 895.61 83.09
0 8 -1 926.71 83.49
-8 0 1 777.52 82.79
0 -8 1 872.71 75.59
8 0 1 763.52 76.09
5 4 -1 71.09 13.3
-4 -5 1 61.89 11.9
4 -9 -1 54.59 15.1
9 -4 1 63.29 13.7
9 -5 -1 83.29 14
5 -9 1 63.49 14.9
-5 -4 -1 106.39 13.2
-9 4 1 78.49 14.3
-4 9 -1 93.59 16.7
4 5 1 114.39 14.2
-9 5 -1 74.69 13.7
-9 5 1 55.79 13.5
5 -9 -1 59.29 17.2
-5 -4 1 58.99 13.1
-4 -5 -1 70.09 13.4
9 -5 1 78.39 13.7
9 -4 -1 58.59 12.9
5 4 1 69.09 12.8
4 5 -1 85.59 14.6
-9 4 -1 66.49 14.1
4 -9 1 49.8 12.8
-4 9 1 55.99 16.5
9 -6 -1 13.1 10.8
9 -3 1 12.6 11.4
6 -9 1 52.19 12.1
6 3 -1 26.6 12.8
-9 6 -1 36.2 12.1
-3 -6 1 29.2 11.7
-6 -3 -1 30.8 10.7
-3 9 -1 25.2 14.3
3 6 1 52.39 12.8
-9 3 1 21.6 11.4
3 -9 -1 18.8 12.6
9 -6 1 28.6 11.6
-9 6 1 11 11.6
3 6 -1 46.2 12.6
-6 -3 1 15.1 11.2
6 3 1 27.5 11.9
3 -9 1 53.09 12.5
-3 -6 -1 40.5 11.9
6 -9 -1 20.6 12.5
-9 3 -1 30.5 10.7
-3 9 1 24.8 13.2
6 -9 -1 32.3 16.7
9 -3 -1 30 12.1
2 -9 -1 282.67 32.9
-7 -2 -1 234.28 33.5
-2 9 -1 345.97 36
9 -2 1 295.17 31.3
-9 2 1 294.37 32.8
-2 -7 1 304.17 32.5
9 -7 -1 283.57 32.5
-9 7 -1 270.47 32.7
7 -9 1 280.87 37.7
7 -9 1 303.47 33.1
7 2 -1 271.57 33.2
2 7 1 364.16 34
2 -9 1 263.67 32.2
9 -2 -1 295.37 32.2
-9 2 -1 306.67 33.2
9 -7 1 283.47 32.7
-2 -7 -1 283.97 31.5
7 -9 -1 319.47 35.5
7 2 1 243.98 32
-9 7 1 281.07 32.6
-7 -2 1 256.07 33.7
7 -9 -1 309.47 33.8
-2 9 1 289.17 35.3
2 7 -1 328.17 34.6
8 1 -1 133.59 17.6
9 -8 -1 112.49 16.7
-1 -8 1 143.79 17.3
8 -9 1 153.28 17.4
1 8 1 167.48 18.2
8 -9 1 78.89 21.7
1 -9 -1 86.39 17.4
-8 -1 -1 100.29 17.4
-9 1 1 88.49 16.7
-1 9 -1 128.29 18.8
9 -1 1 108.39 16.8
8 -9 -1 110.39 23.9
8 -9 -1 118.79 17.6
1 -9 1 97.19 17.1
8 1 1 116.39 17.5
-8 -1 1 120.29 17.1
-9 1 -1 97.89 17.1
-1 -8 -1 129.89 17.5
9 -1 -1 105.09 16.2
1 8 -1 146.89 17.9
0 -9 1 397.66 37.8
-9 0 -1 334.87 38.7
0 9 -1 390.46 39.7
0 9 1 352.36 39.8
9 -9 -1 424.46 42.3
0 -9 -1 351.16 38.5
9 0 1 305.27 39.1
9 0 -1 302.77 37.3
-9 0 1 289.67 38.5
9 -9 -1 323.07 38.9
9 -9 1 389.26 45.6
-5 -5 -1 24.8 11.8
5 -10 -1 41.3 15.5
-10 5 1 12.3 12.9
5 -10 1 3.9 13.1
10 -5 -1 27 12.2
10 -5 1 20.5 12.9
-10 5 -1 25.8 13.7
-5 -5 1 13.3 11.2
5 5 -1 -4.3 12.8
5 5 1 2.1 12
10 -6 -1 22.4 12.6
-4 10 -1 -7.9 15.9
4 -10 -1 43.1 14.6
-6 -4 -1 43.3 11.7
-10 4 1 36.5 13.7
10 -4 1 47.5 13.9
6 -10 1 30.1 14.8
-10 6 -1 28.8 14.2
6 -10 1 17 15
4 6 1 36.2 13.2
6 4 -1 64.49 13.9
-4 -6 1 57.69 12
-4 -6 -1 47.3 14
-4 10 1 -1.3 15.7
4 6 -1 7.5 13.2
-6 -4 1 36 12.5
6 -10 -1 26.6 14.5
6 -10 -1 29.4 18
10 -6 1 8.7 12.3
-10 6 1 45.2 14.4
6 4 1 8.9 13.5
-10 4 -1 27.2 13.2
4 -10 1 4.6 14.1
10 -4 -1 26.4 13.6
7 -10 1 326.67 40
-10 7 -1 260.17 33
10 -7 -1 296.97 34.3
-10 3 1 273.47 34.3
-7 -3 -1 326.07 34.7
3 -10 -1 246.08 29.9
-3 10 -1 388.76 38
7 -10 1 313.77 35.9
7 3 -1 264.37 33.3
10 -3 1 252.57 31.9
3 7 1 324.57 36.2
-3 -7 1 303.47 32.2
-10 3 -1 311.57 34.5
3 -10 1 226.38 29.3
-10 7 1 281.37 32.6
7 -10 -1 268.17 35.9
10 -7 1 286.97 34.9
-3 10 1 373.66 36.9
7 3 1 295.07 32.6
-7 -3 1 297.67 34.7
3 7 -1 289.97 36.2
10 -3 -1 294.67 32.5
7 -10 -1 237.38 35.5
-10 2 1 -6.6 12
10 -2 1 1.3 12.2
-8 -2 -1 -9.6 12.8
-2 -8 1 -18.8 13.5
2 8 1 34.7 13.8
10 -8 -1 -6.4 11.2
8 -10 1 8.2 19.4
8 2 -1 0.7 14.5
2 -10 -1 22.2 14.4
-2 10 -1 7.3 15.4
8 -10 1 23.1 13.5
-10 2 -1 19.6 13.2
8 -10 -1 28.1 13.8
8 -10 -1 4.9 21.5
-8 -2 1 16.1 13.3
-2 -8 -1 12.9 13.9
10 -2 -1 -11.4 12.3
2 -10 1 36.9 13.5
10 -8 1 17.8 12.1
2 8 -1 7.5 14.8
-10 8 1 -8.1 15.5
-2 10 1 -1.2 15.3
8 2 1 -0.5 13.2
-1 10 -1 37.2 16.7
-10 1 1 45.1 14
9 1 -1 12.2 14.7
-1 -9 1 -14.5 14.4
1 -10 -1 82.59 15.5
10 -9 -1 36 13.4
1 9 1 37.1 15.8
9 -10 1 62.79 14.8
-9 -1 -1 33.1 14.8
10 -1 1 23.9 14.5
9 -10 -1 29 23.1
-9 -1 1 42.9 15
-1 10 1 39.3 17
9 -10 -1 44.4 14.7
10 -9 1 59.19 13.5
1 -10 1 25.9 14.5
1 9 -1 55.29 16
-1 -9 -1 36.2 14.6
9 1 1 11.6 15
-10 1 -1 23.9 14.9
10 -1 -1 20.5 12.9
0 -10 -1 14 15.8
-10 0 -1 -8.6 14.9
-10 0 1 20.4 14.5
10 0 -1 13.7 14.2
0 10 -1 0.8 16.6
10 -10 -1 20.5 14.2
10 0 1 27.4 16
0 10 1 11.3 16.7
0 -10 1 13.3 15.1
10 -10 -1 17.5 26.3
10 -10 1 23.5 14.1
11 -6 -1 249.78 28.2
5 6 1 284.27 32.7
-6 -5 -1 268.07 30.5
6 5 -1 258.07 28.5
11 -5 1 248.38 28.2
-11 5 1 242.08 28.8
-5 -6 1 233.28 26.6
5 -11 -1 201.58 29.2
-11 6 -1 240.68 28.9
-6 -5 1 245.28 27.9
-11 5 -1 218.28 28.9
6 -11 -1 229.98 30.7
11 -6 1 279.27 32.7
-5 -6 -1 255.07 30.3
-11 6 1 258.17 32
6 5 1 249.97 27.9
5 -11 1 211.38 29.2
6 -11 -1 259.37 30.5
5 6 -1 241.48 28.6
11 -5 -1 245.98 27.8
-4 11 -1 16.2 17.6
-7 -4 -1 0.1 12.7
-11 4 1 -5 14.4
-4 -7 1 7.5 12.4
4 7 1 -4.9 14.6
7 -11 1 4.3 15.6
-11 7 -1 -1.3 15.6
11 -7 -1 3.4 13.7
4 -11 -1 16.9 17.3
11 -4 1 7.7 13.8
7 4 -1 30.4 14.7
7 -11 1 42.4 18.5
4 7 -1 9 14.7
4 -11 1 4.6 15.4
11 -4 -1 29.8 14.8
-4 11 1 -0.3 17.5
7 -11 -1 -9.3 21.1
7 4 1 -4.9 14.5
-11 7 1 0 14.8
-11 4 -1 -9.5 14.6
7 -11 -1 20.8 15.4
-4 -7 -1 26.9 14.8
-7 -4 1 0 13.7
-3 -8 1 46.4 15.3
11 -8 -1 27.7 14.5
-3 11 -1 42.9 18.4
-11 3 1 37.1 14.6
11 -3 1 22.5 13.8
3 8 1 50.29 16.1
8 -11 1 59.79 15.6
-8 -3 -1 63.39 15.5
8 3 -1 28.3 16.1
-11 8 -1 17.9 17.3
3 -11 -1 63.49 17.1
8 -11 1 -17.4 20.9
8 -11 -1 20.9 15.5
-11 8 1 38.6 17
-3 -8 -1 36.8 15.6
-3 11 1 38.6 17.3
8 3 1 27.1 15.1
-11 3 -1 26.5 15
3 8 -1 33.3 16.2
8 -11 -1 17.3 22.7
3 -11 1 66.29 16.5
-8 -3 1 54.09 15.3
11 -3 -1 21.1 14.3
2 9 1 239.38 27
-2 11 -1 260.37 28.1
9 -11 1 145.29 30.8
2 -11 -1 192.08 26.1
-11 2 1 181.48 24.8
9 -11 1 229.78 26.4
11 -9 -1 227.38 24.8
9 2 -1 160.98 26.2
-9 -2 -1 166.88 25.9
-2 -9 1 228.48 26.2
11 -2 1 186.68 25.2
-9 -2 1 161.58 25.2
9 2 1 172.58 25.8
2 9 -1 212.48 26.1
-2 -9 -1 259.67 26.8
-2 11 1 215.18 27.3
-11 2 -1 193.68 25.7
11 -2 -1 232.88 25
9 -11 -1 229.48 33.1
9 -11 -1 253.87 26.5
2 -11 1 240.78 26.8
-11 1 1 2.1 15
11 -1 1 -8.8 16.2
1 10 1 6 17.2
11 -10 -1 4.8 13.7
11 -10 -1 73.39 30.1
-1 11 -1 16 19.5
10 -11 1 -0.5 15.4
1 -11 -1 -2.5 17.4
-10 -1 -1 -12.3 15.9
-1 -10 1 -9.7 16
10 1 -1 -26.6 16.5
-10 -1 1 4.9 15.4
11 -10 1 22.2 28.3
1 -11 1 -1.4 16.7
10 1 1 2.2 17.1
10 -11 -1 2.2 15.3
-1 11 1 -10.6 17.7
1 10 -1 2.6 16.9
11 -10 1 8.3 14.3
-11 1 -1 -15.9 15.6
11 -1 -1 -12.6 13.7
-1 -10 -1 16.6 16.5
10 -11 -1 80.59 27.7
-11 0 -1 6.5 17.1
11 -11 -1 -19.5 28.7
0 -11 1 22.6 18.1
0 11 1 -18.6 19.2
0 -11 -1 2.8 18
11 -11 1 -7.6 15.9
11 0 -1 -0.2 16.3
-11 0 1 15.7 16.5
11 0 1 2.2 19.5
0 11 -1 25.5 19.4
11 -11 -1 10.7 16
11 -11 1 -1.6 26.7
-12 6 1 88.09 18.5
6 -12 -1 29.1 21.2
12 -6 1 54.79 17.8
-6 -6 1 66.29 15.7
12 -6 -1 72.59 17
-12 6 -1 70.89 19.4
6 6 1 75.09 17.5
6 -12 -1 64.49 20.5
6 -12 1 30.1 20.8
6 6 -1 74.49 17.6
-6 -6 -1 57.89 15.7
5 7 1 0.4 16.8
-5 -7 1 22.3 13.9
12 -7 -1 9.8 15.6
-12 5 1 25.1 16.4
7 5 -1 12.4 16.5
-7 -5 -1 2.3 14.2
7 -12 1 -3.8 19.6
-12 7 -1 51.89 17.7
7 -12 1 47 18.4
-5 12 -1 88.59 21.3
5 -12 -1 7.4 19.5
12 -5 1 27.3 17.1
7 -12 -1 14.1 18.5
-12 5 -1 19 18
12 -7 1 45.5 16.7
7 5 1 8.9 16
-7 -5 1 27.5 15.5
-12 7 1 29.2 16.7
-5 -7 -1 21 14.5
5 7 -1 27.9 17
7 -12 -1 28.8 21.4
12 -5 -1 14.8 16
-4 -8 1 272.57 33.6
12 -8 -1 274.67 31.3
8 -12 1 209.48 34.3
12 -4 1 261.87 30.7
-8 -4 -1 273.17 31
4 -12 -1 264.87 32.7
-12 4 1 280.07 31.9
8 -12 1 323.87 32.7
4 8 1 313.67 32.4
8 4 -1 257.97 31.7
-12 8 -1 266.87 32.8
-4 12 -1 268.47 33.8
-12 4 -1 309.87 37.7
-12 8 1 277.07 32.4
8 4 1 251.77 31.4
8 -12 -1 247.28 36.8
4 8 -1 316.07 38
-4 -8 -1 287.97 35.8
-4 12 1 208.58 33.2
8 -12 -1 273.87 32.5
-8 -4 1 245.48 31.1
12 -8 1 300.37 36.8
12 -4 -1 255.27 31.1
4 -12 1 318.67 32.7
-3 12 -1 16.8 20.4
-9 -3 -1 11.5 17.4
12 -9 -1 36.8 16.1
-12 9 -1 87.79 22.8
-3 -9 1 45.4 16.7
9 3 -1 29.8 18.3
9 -12 1 83.99 18.3
9 -12 1 22.1 25.5
-12 3 1 64.99 16.9
3 -12 -1 48.3 18.9
12 -3 1 28.2 16
3 9 1 28.9 17.5
-3 12 1 39.6 19.7
-9 -3 1 70.79 17.5
3 9 -1 53.79 18.8
9 3 1 85.69 18.6
9 -12 -1 32.7 17.7
-3 -9 -1 50.59 18.4
3 -12 1 17.5 18.4
12 -3 -1 47.5 16
-12 9 1 33.9 20.6
9 -12 -1 35.7 28
-12 3 -1 59.09 17.2
10 2 -1 174.58 26.1
-12 2 1 139.69 24.4
12 -2 1 190.88 25.1
-10 -2 -1 217.88 26
2 -12 -1 156.18 26.1
-2 12 -1 147.19 27.7
12 -10 -1 212.18 24.3
-2 -10 1 195.28 25.6
-2 -10 -1 218.78 26.6
12 -2 -1 168.58 23.7
12 -10 1 246.88 26.3
2 10 -1 175.58 26.5
10 -12 -1 214.48 25.9
10 -12 -1 144.39 34.7
-2 12 1 225.28 28.1
-10 -2 1 164.48 25.1
-12 2 -1 176.78 25.9
10 2 1 148.19 26.1
2 -12 1 209.08 26.9
1 -12 -1 -8.2 19.8
12 -11 -1 33.7 32.5
11 -12 1 44.6 30.4
12 -1 1 -1.6 19.6
12 -11 -1 12 15.9
-1 12 -1 -3.1 21
-11 -1 -1 -2.1 17.9
-1 -11 1 -11.1 18.6
-12 1 1 -34.9 17
1 11 1 30.7 20.5
11 1 -1 21.7 19.3
12 -11 1 69.79 32.2
1 -12 1 37.2 19.5
11 1 1 6.9 20
1 11 -1 18.8 20.2
-1 -11 -1 6.8 19.2
-1 12 1 43.2 20.7
12 -11 1 14.6 16.7
12 -1 -1 3.9 16.4
-11 -1 1 6.5 17.4
-12 1 -1 5.2 18.6
11 -12 -1 54.69 30
11 -12 -1 14.6 17.4
0 12 1 74.69 23.1
0 -12 -1 65.29 21.8
12 -12 -1 83.39 33.2
-12 0 -1 55.59 20.4
12 -12 -1 70.99 18.5
12 0 -1 35.4 20.3
0 12 -1 26.6 22.9
12 0 1 80.39 22.8
12 -12 1 53.09 18.8
0 -12 1 53.49 22.4
12 -12 1 10.2 33
-12 0 1 42.1 19.1
7 6 -1 16.5 17.9
13 -7 -1 19 17.2
6 7 1 11.8 18
13 -6 1 14.8 19
7 -13 1 0.5 22.2
-6 -7 1 38.6 15.9
-13 7 -1 28.3 20.7
6 -13 -1 8.4 22.1
-13 6 1 31.1 18.9
-7 -6 -1 -9.1 15.4
13 -6 -1 11.9 17.8
6 7 -1 27.7 18.4
7 6 1 31.7 18.5
-13 7 1 55.49 19.5
7 -13 -1 11.3 21
6 -13 1 22.5 21.5
-7 -6 1 39.1 16.8
-6 -7 -1 42.4 15.9
-13 6 -1 87.09 21.1
7 -13 -1 -11.3 23.3
5 8 1 38.1 20.3
-5 -8 1 81.39 16.7
8 5 -1 44.8 19.4
13 -8 -1 80.39 18.5
13 -5 1 38.1 18.2
-13 5 1 41.8 19.4
5 -13 -1 72.09 22.8
-8 -5 -1 51.29 17.8
8 -13 1 16.8 24.5
8 -13 1 78.89 22.7
-8 -5 1 73.89 18.5
13 -5 -1 20.8 18.3
8 -13 -1 15.1 25.5
-5 -8 -1 42.6 17
13 -8 1 85.59 19.4
8 5 1 52.39 18.7
-13 5 -1 18.4 20.7
8 -13 -1 93.39 21.7
-13 8 1 55.49 20.7
5 8 -1 79.79 20.2
5 -13 1 63.89 21.4
-9 -4 -1 169.88 25.6
-4 13 -1 104.49 28.4
9 -13 1 193.68 26.5
4 9 1 232.18 26.2
13 -9 -1 188.48 25
-13 4 1 159.28 25.7
-13 9 -1 162.28 30.1
4 -13 -1 157.28 28.4
13 -4 1 184.08 25.2
9 4 -1 172.08 26.8
-4 -9 1 210.28 24.4
9 -13 1 183.08 31.5
-4 -9 -1 182.98 26.2
9 -13 -1 173.58 25.9
-13 9 1 224.48 29.2
9 -13 -1 170.18 34
13 -9 1 217.58 25.9
4 -13 1 244.68 28.5
-4 13 1 154.78 28.3
-13 4 -1 190.78 26.8
9 4 1 130.09 26.8
13 -4 -1 197.78 25.4
4 9 -1 177.98 26.9
-9 -4 1 139.09 25.4
10 -13 1 22 29
-13 3 1 25.1 18
-3 13 -1 30.5 22.9
13 -3 1 27.8 18
10 3 -1 -27.4 18.8
-3 -10 1 28.4 17.8
3 10 1 11.6 19.5
3 -13 -1 -15.3 20.3
10 -13 1 19.7 19.5
-10 -3 -1 -0.1 18.7
13 -10 -1 8.9 17.6
10 -13 -1 6.7 18.7
10 -13 -1 36.4 31.1
3 -13 1 -4.7 21.1
-3 -10 -1 6.1 19.8
10 3 1 -12.5 19.6
13 -3 -1 2.7 16.5
-3 13 1 2.1 21.6
13 -10 1 33.8 20.5
3 10 -1 -1.8 20
-10 -3 1 -35.1 17.5
-13 3 -1 36.1 19.1
11 -13 1 0.1 19.7
13 -11 -1 -12.4 34.1
11 2 -1 21.3 20.6
-11 -2 -1 19.7 19.3
2 11 1 9.3 21.3
-2 -11 1 2 20.1
-13 2 1 16 17.9
-2 13 -1 8.1 22.7
13 -11 -1 1.1 16.8
13 -2 1 -1.6 20.2
11 -13 1 33.8 32.8
2 -13 -1 -11.4 21.6
11 2 1 10.1 21
-13 2 -1 -3 20
-11 -2 1 5.2 18.7
11 -13 -1 7.2 19.4
2 -13 1 16.6 21.9
13 -2 -1 48.3 17.3
13 -11 1 -37.9 35
13 -11 1 13.8 19.6
11 -13 -1 39.2 34
-2 13 1 21.5 22.4
-2 -11 -1 14.4 20.8
2 11 -1 -4.6 20.9
-12 -1 -1 20.2 20.7
13 -1 1 10.9 24.1
1 12 1 -0.8 22.6
12 -13 1 3.8 20.8
-1 -12 1 55.09 22.5
13 -12 -1 54.09 36.4
-1 13 -1 8.4 24
12 1 -1 32.2 22.1
13 -12 -1 15.3 17.5
1 -13 -1 26.7 23.3
-13 1 1 23.2 19.7
-12 -1 1 49.2 20.4
12 -13 -1 24.4 36.2
1 -13 1 34.5 23.1
-1 -12 -1 36.3 22.6
12 -13 -1 20.3 19.6
1 12 -1 23.4 23.7
-1 13 1 19.5 23.5
13 -1 -1 36.6 20
12 1 1 38.6 23.8
-13 1 -1 44 21.4
0 -13 1 162.88 27.3
13 -13 -1 97.79 41
0 -13 -1 109.89 26.4
13 0 1 80.69 27.3
0 13 -1 180.68 29.5
13 -13 -1 135.29 23.5
0 13 1 160.28 28.7
13 -13 1 150.38 26.2
-13 0 1 108.39 24.7
13 0 -1 87.79 25.5
-13 0 -1 135.29 26.8
7 -14 1 -20.8 24.8
7 -14 1 -14.3 24.9
-14 7 -1 -20.4 23.7
-7 -7 -1 -1.5 16.7
14 -7 1 -17.2 20.7
7 -14 -1 -11.1 25.3
7 7 1 31.8 20.5
-7 -7 1 -24.4 17.4
7 7 -1 -11 19.5
14 -7 -1 -3.5 19.7
-14 7 1 30.7 22.5
7 -14 -1 14.3 23
-14 8 -1 48 24.3
14 -6 1 59.79 20.2
-14 6 1 110.09 22.3
8 -14 1 54.39 25.4
14 -8 -1 51.59 20
-6 -8 1 27.6 18
8 6 -1 22.8 20
8 -14 1 44 26.8
-8 -6 -1 43 19
6 8 1 31 21
6 -14 -1 33.5 25.5
8 6 1 42.7 20.4
8 -14 -1 38.6 24.1
6 -14 1 10.2 23.9
-6 -8 -1 29.4 18
-8 -6 1 13.8 20.3
6 8 -1 31.6 21.3
14 -6 -1 51.19 20.4
-14 6 -1 27.2 23.5
8 -14 -1 23.9 27.2
-14 8 1 90.79 23.1
14 -5 1 16.7 19.2
-5 14 -1 14.1 25.7
14 -9 -1 -9.1 18.8
-14 9 -1 41.5 25.7
-5 -9 1 10.9 17.5
9 5 -1 18.6 20.5
5 9 1 4.9 20.6
5 -14 -1 38 23.7
-9 -5 -1 53.89 20.4
9 -14 1 62.79 28.5
-14 5 1 1.4 20.8
-14 9 1 -28.3 23.8
14 -5 -1 19.4 19
-14 5 -1 2.5 22.8
9 -14 -1 41.5 21.2
5 -14 1 25.9 23.3
-5 -9 -1 19.3 17.7
5 9 -1 -11 21.6
-9 -5 1 22.1 20.1
14 -9 1 23.3 20.3
9 -14 -1 -5 28.8
9 5 1 17.8 20
14 -4 1 -15.5 18.8
-4 14 -1 17.3 26.2
4 -14 -1 8.7 23.5
10 -14 1 12 22.7
14 -10 -1 7.3 19.8
-14 10 -1 -22.4 28.5
-14 4 1 -21.4 20.5
10 4 -1 -30.9 20.6
-4 -10 1 -7 17
4 10 1 -55.39 20.4
-10 -4 -1 -32.7 20.5
10 -14 1 31.3 30.2
-4 14 1 21.6 24.8
4 10 -1 14.2 21.8
14 -10 1 -7.6 20.1
-14 4 -1 -14.6 21.5
10 -14 -1 -9 20.3
14 -4 -1 11.2 18
-10 -4 1 -19.4 19.9
-4 -10 -1 13.1 19.5
10 4 1 -33.7 21.8
4 -14 1 -13.5 23.4
10 -14 -1 11.4 32.1
-14 10 1 -13 26.4
3 -14 -1 90.79 25
14 -3 1 76.89 23.3
-3 -11 1 60.39 20.7
11 -14 1 31.2 34.7
-14 3 1 89.09 23.2
14 -11 -1 59.69 21.8
3 11 1 117.49 24.5
11 -14 1 138.89 25.4
11 3 -1 64.29 23.7
-11 -3 -1 91.79 23.6
-3 14 -1 54.09 28.6
14 -3 -1 68.79 20.2
3 11 -1 73.79 24.7
3 -14 1 102.59 26.3
-14 3 -1 89.39 23.3
14 -11 1 110.29 25.4
-3 14 1 76.79 26.3
-11 -3 1 77.79 22.2
11 -14 -1 49.2 37.8
-3 -11 -1 53.19 22.5
11 -14 -1 76.49 22.8
14 -2 1 25.3 25
-2 -12 1 55.79 23
-14 2 1 38.3 20.9
2 12 1 48.8 25.2
-12 -2 -1 23.4 22.8
12 -14 1 56.09 24.8
-2 14 -1 57.69 26.8
2 -14 -1 44.8 25.7
14 -12 -1 35.7 39.9
12 -14 1 0.2 37.7
12 2 -1 73.89 23.8
-12 -2 1 72.99 21.8
14 -2 -1 48.7 20.8
2 12 -1 16.4 24.8
-14 2 -1 64.89 22.7
14 -12 1 71.89 24.1
12 -14 -1 39.8 22.1
12 2 1 17.2 24.3
2 -14 1 64.09 26.2
-2 14 1 58.39 27
14 -12 1 36 40.6
-2 -12 -1 25.6 23.3
12 -14 -1 41.1 39.3
-13 -1 -1 37.9 23.5
13 -14 1 12.9 40.7
13 -14 1 1.6 23.5
14 -1 1 14.8 27.2
-1 -13 1 23 24.7
14 -13 -1 -18 19.6
-1 14 -1 -6.6 27.6
-14 1 1 6.1 21.1
13 1 -1 -21.2 24.4
1 -14 -1 72.39 26
14 -13 -1 40.7 41.3
1 13 1 10.9 26
-1 14 1 1.8 26.5
14 -1 -1 0.3 23.2
-1 -13 -1 -13.5 25.1
13 -14 -1 4.2 20.9
13 -14 -1 31.4 42
1 -14 1 -17 26.8
14 -13 1 -45.3 40.4
1 13 -1 42.1 27.7
-14 1 -1 -31.6 23.5
13 1 1 3.5 26.1
-13 -1 1 5.9 22.4
15 -7 1 21.3 21.4
7 8 1 16.3 23.4
8 -15 1 44.8 29.6
8 7 -1 -23.6 22.5
-7 -8 1 16.2 19.5
15 -8 -1 26 21.7
7 -15 -1 50.09 25.8
8 -15 1 54.59 29.3
-15 7 1 53.79 25.6
-8 -7 -1 27.1 20.1
-15 8 -1 19.8 27.6
7 -15 -1 -13.1 28.6
-8 -7 1 16.5 21.1
-15 7 -1 3.6 27.6
7 -15 1 33.1 28.2
15 -7 -1 35 22.3
-7 -8 -1 4.4 18.7
15 -8 1 -11.7 23.7
7 8 -1 15.5 23.2
-15 8 1 14.3 25.4
8 7 1 53.19 23.8
7 -15 1 27.5 29
8 -15 -1 -0.1 29.9
8 -15 -1 6.4 25.8
-6 -9 1 11.9 19.2
9 -15 1 29.6 31
-15 9 -1 45.8 29.7
-9 -6 -1 3.4 21.6
6 9 1 -5.9 22.9
15 -6 1 -7.7 20.6
9 6 -1 5.6 22.1
15 -9 -1 18.7 21.2
9 -15 1 -19.1 25.2
-15 6 1 -6.1 23.7
6 -15 -1 59.39 27.2
9 -15 -1 31.2 22.4
6 9 -1 -25.6 23.6
6 -15 1 -23.9 26.8
9 6 1 47.6 22.5
-9 -6 1 -15.7 21.1
-15 6 -1 -1.1 26.1
-6 -9 -1 15.9 18.8
15 -6 -1 20.8 21.1
-15 9 1 16.6 26.2
9 -15 -1 29.5 31.9
-15 10 -1 126.69 34.3
5 -15 -1 74.09 28.4
-5 15 -1 48.9 30.8
15 -5 1 69.29 23.7
10 5 -1 126.99 25.5
-15 5 1 82.59 25.2
5 10 1 127.49 25.6
10 -15 1 71.29 34
15 -10 -1 89.09 23.5
10 -15 1 104.49 27.4
-5 -10 1 80.59 21.8
-10 -5 -1 89.79 24.7
-10 -5 1 106.09 23.9
10 -15 -1 64.99 35.3
5 10 -1 57.29 26.7
5 -15 1 136.29 29
15 -10 1 102.29 26.5
10 -15 -1 126.79 25.6
-15 5 -1 138.29 28.4
-15 10 1 103.69 31
-5 -10 -1 132.89 22.4
10 5 1 110.79 25.5
15 -5 -1 100.29 23.1
-11 -4 -1 32.7 23.7
4 -15 -1 -16.2 25.8
15 -11 -1 43.3 22.9
11 -15 1 61.49 26.7
11 -15 1 -12.4 34.7
-4 -11 1 29.6 20.1
15 -4 1 19.9 23.9
4 11 1 36.3 24.3
-4 15 -1 18.5 30.2
11 4 -1 15.2 24.1
-15 4 1 37.8 24.4
15 -11 1 78.59 24.7
4 11 -1 -13.3 24.3
4 -15 1 15.3 27
11 -15 -1 29.7 23.3
15 -4 -1 18.9 20
-11 -4 1 -33.2 21.6
-4 15 1 68.59 27.9
11 -15 -1 31.2 36.5
-15 4 -1 21 25.3
11 4 1 23.7 24.7
-4 -11 -1 18 20.9
-3 15 -1 3.8 29.9
-3 -12 1 15.8 21.3
15 -3 1 -35.5 26.3
-15 3 1 4.7 23.7
15 -12 -1 -47 42.8
-12 -3 -1 0.2 23.6
12 3 -1 -11.9 24.3
3 -15 -1 4.3 27
15 -12 -1 30.2 23.4
12 -15 1 -3.4 38.8
3 12 1 -28 26.1
15 -3 -1 2.9 21.7
12 -15 -1 -3.7 23.3
15 -12 1 18 44.4
3 12 -1 17.2 26.2
3 -15 1 -13.8 27.9
-3 -12 -1 13.6 23.9
12 3 1 4.3 26.4
-12 -3 1 -7.3 22.4
-3 15 1 19.6 28.4
12 -15 -1 -18.4 40.4
-15 3 -1 -5.9 25.6
2 -1 -2 312.27 30.3
-2 2 2 1168.08 109.49
-3 1 2 2480.95 235.58
3 -2 -2 2518.35 235.68
-3 2 2 2665.63 237.48
-1 -2 -2 2490.05 237.28
2 -3 -2 2581.64 235.68
3 -1 -2 2485.75 237.38
-3 3 2 73.29 10.3
3 0 -2 67.29 9.4
3 -3 -2 83.69 10.4
0 -3 -2 56.29 8.7
-3 0 2 73.49 9.9
0 3 2 87.79 11.1
2 -4 -2 430.96 39.3
4 -2 -2 383.76 38.1
-2 -2 -2 379.16 37.8
2 2 -2 382.66 38.3
-4 2 2 388.76 38.3
1 -4 -2 49.99 10.4
1 3 2 71.89 10.5
-4 1 2 86.49 10.3
-3 -1 -2 87.99 10.3
4 -3 -2 89.99 10.7
3 1 -2 82.29 10.2
3 -4 -2 73.29 10.8
-3 -1 2 75.09 10.3
-4 3 2 84.69 10.6
-1 -3 -2 70.39 10.2
3 -4 -2 112.59 14.6
-1 4 2 62.99 11
4 -1 -2 96.59 10.6
0 -4 -2 45.2 8.9
-4 4 2 65.39 10.5
4 0 -2 33.3 8.6
0 4 2 28.1 8.9
4 -4 -2 59.69 9
-4 0 2 42.2 8
3 2 -2 13.6 8
2 3 2 19.7 7.5
-3 -2 -2 0.7 7.6
-2 -3 2 -9.5 6.4
-5 2 2 3.1 7.7
5 -3 -2 10.3 6.9
2 -5 -2 1.6 9.5
-3 -2 2 12.1 7.2
3 2 2 8.4 6.5
3 -5 -2 6.8 9.4
5 -2 -2 1.7 7.5
-5 3 2 1.9 7.3
-2 -3 -2 10.5 6.7
-2 5 2 8.4 9.6
2 3 -2 19.4 7.9
3 -5 -2 -4.4 11.2
-1 -4 2 227.28 24
4 1 -2 229.78 24.1
-5 1 2 243.18 23
5 -4 -2 193.68 23.4
1 4 2 176.98 23.4
1 -5 -2 218.08 24.5
5 -1 -2 197.98 24.4
-1 5 2 192.28 24.4
4 -5 -2 229.48 23.7
-4 -1 2 195.58 23
-5 4 2 209.78 24.5
-1 -4 -2 262.57 24.5
4 1 2 217.28 24
4 -5 -2 272.57 28
-5 0 2 791.12 74.79
5 -5 -2 778.62 74.89
5 0 -2 783.92 72.69
0 -5 -2 738.33 72.69
0 -5 2 763.82 72.29
0 5 -2 824.42 74.79
0 5 2 745.63 74.99
-3 -3 -2 131.09 15.5
3 3 -2 131.29 15.9
-3 -3 2 134.99 17.2
6 -3 -2 138.19 15.6
3 -6 -2 110.89 18.3
-6 3 2 134.09 15.9
3 3 2 130.49 15.4
4 2 -2 37 9.7
2 4 2 56.69 9.7
-4 -2 -2 35.2 8.9
-6 2 2 41.1 9.5
-2 -4 2 27.3 8.1
6 -4 -2 41.5 9
2 -6 -2 28.9 9.9
-2 6 2 46.4 10.9
4 2 2 21.3 8.4
-6 4 2 38 9.3
-4 -2 2 39 9.4
4 -6 -2 25.6 9.8
-2 -4 -2 50.09 8.9
2 4 -2 27.3 9.6
6 -2 -2 30 9.3
4 -6 -2 55.49 14.2
5 1 -2 121.59 13.8
6 -1 2 99.29 13.5
6 -5 -2 98.49 13.3
-6 1 2 108.09 12.8
-5 -1 -2 96.19 12.6
1 5 2 109.89 13.5
1 -6 -2 121.29 14.8
-1 -5 2 90.39 13.6
-1 -5 -2 108.59 13.9
5 1 2 76.89 13.2
1 5 -2 75.09 13
-1 6 2 98.49 14.1
6 -1 -2 115.59 14.3
-6 5 2 122.39 14.7
-5 -1 2 73.49 12.8
5 -6 -2 102.99 13.3
5 -6 -2 121.29 18.7
0 6 -2 -0.8 9.4
-6 0 -2 -5.8 8.9
0 6 2 17.6 10.2
6 0 2 19.4 9
6 0 -2 1.4 9.1
-6 0 2 10.9 8.8
6 -6 -2 26.7 9.6
0 -6 2 11.1 8.6
0 -6 -2 17.8 9.6
-3 -4 2 25.8 8.6
3 -7 -2 22.4 11.8
-4 -3 -2 32.2 10.1
3 4 2 21.6 9.7
4 3 -2 7.5 10.2
7 -4 -2 17.9 9.4
-7 3 2 26.7 10
4 3 2 16.8 9.5
7 -3 -2 35 9.8
4 -7 -2 43.1 14.6
3 4 -2 22.9 9.7
-3 7 2 5.3 12.3
-4 -3 2 25.7 9.5
-7 4 2 23.2 10.1
-3 -4 -2 37.1 9.7
4 -7 -2 15.7 12.1
-5 -2 -2 402.26 37.8
2 5 2 386.76 38.2
2 -7 -2 391.36 37.8
-7 2 2 402.26 38
7 -5 -2 341.97 37.9
-2 -5 2 364.46 36.6
5 2 -2 377.16 37.9
5 -7 -2 350.46 41.6
7 -2 -2 321.17 37.3
-7 5 2 357.26 37.6
-2 7 2 334.47 39.2
5 2 2 341.17 37.3
-5 -2 2 355.56 38.4
2 5 -2 401.46 38.6
-2 -5 -2 376.96 37.1
-6 -1 -2 1798.02 160.88
-1 -6 2 1707.73 156.68
6 1 -2 1704.93 156.68
7 -1 2 1617.24 156.68
7 -6 -2 1631.54 160.88
-7 1 2 1724.83 160.78
1 6 2 1766.72 160.88
6 -7 -2 1756.42 162.58
-1 -6 -2 1693.33 156.78
1 6 -2 1848.81 160.98
6 -7 -2 1639.04 160.98
1 -7 2 1606.44 156.48
-6 -1 2 1678.13 160.78
-1 7 2 1585.14 161.08
-7 6 2 1688.03 157.08
-7 0 -2 98.99 16.4
-7 0 2 135.59 16.1
0 -7 -2 105.49 15
7 -7 -2 144.09 16.7
7 0 2 100.39 15.1
0 7 2 110.59 17.2
4 -8 -2 17.7 14
-4 -4 2 9.3 9.8
4 4 -2 0 10.7
8 -4 -2 36.1 10.8
-4 -4 -2 41.5 11
4 4 2 15.7 10.4
-8 4 2 4.8 10.5
-3 -5 2 89.39 13.2
8 -5 -2 101.89 14.3
3 -8 -2 78.09 15.8
-8 3 2 77.69 14.8
3 5 2 110.99 15.1
5 3 -2 76.79 14.9
8 -3 2 94.79 13.8
-5 -3 -2 90.29 13.7
3 5 -2 100.29 15.3
5 -8 -2 85.89 18.6
-3 -5 -2 106.39 14.8
5 3 2 87.79 14.1
-8 5 2 107.59 14.7
8 -3 -2 90.49 14.4
-3 8 2 76.99 16.6
-5 -3 2 104.19 14.7
5 -8 -2 114.29 15.6
-2 8 -2 593.64 55.49
-8 2 2 522.35 53.79
6 2 -2 545.95 54.99
2 -8 -2 517.55 55.29
8 -6 -2 507.15 53.89
2 6 2 547.05 54.39
-2 -6 2 583.84 54.09
-6 -2 -2 548.95 54.09
6 -8 -2 580.94 57.89
6 -8 -2 487.85 54.49
6 2 2 537.15 54.49
-2 -6 -2 598.24 54.29
2 6 -2 576.34 54.79
-8 6 2 477.75 54.49
-2 8 2 627.34 55.09
8 -2 -2 563.74 54.69
-8 2 -2 510.85 54.19
-6 -2 2 579.84 54.39
1 -8 -2 186.48 25
7 1 -2 230.48 27.2
8 -7 -2 263.37 27.2
-8 1 2 230.18 26.9
1 7 2 256.07 28.4
-7 -1 -2 214.28 27.8
-1 8 -2 253.97 29
-1 -7 2 237.28 28
-8 1 -2 211.78 28.1
7 -8 -2 187.48 30
1 7 -2 195.18 25.1
-1 8 2 190.58 25.5
-1 -7 -2 210.08 27.9
7 1 2 218.38 27.3
8 -1 -2 236.08 24.9
-8 7 2 246.08 26.6
-7 -1 2 245.48 27.9
7 -8 -2 247.08 27.8
8 0 -2 1393.36 136.29
8 -8 -2 1414.46 132.79
-8 0 2 1366.66 132.39
0 8 2 1306.87 133.09
0 8 -2 1402.26 132.89
-8 0 -2 1435.66 132.69
0 -8 2 1499.75 136.49
8 -8 -2 1550.64 135.99
4 5 2 1243.18 109.29
-5 -4 -2 1204.08 108.79
9 -5 -2 1145.89 108.89
-9 4 2 1141.69 108.99
4 -9 -2 1044.8 110.19
5 4 -2 1199.28 109.79
-4 -5 2 1203.38 109.09
5 -9 -2 1077.69 109.89
9 -4 -2 1162.48 109.39
-9 4 -2 1126.69 109.09
-9 5 2 1117.09 109.49
-5 -4 2 1170.68 108.89
-4 -5 -2 1158.38 109.69
5 -9 -2 1031.7 110.39
4 5 -2 1123.79 109.29
3 6 2 4.3 11.5
3 -9 -2 8.9 13.5
-3 -6 2 8.6 10.6
6 3 -2 7.2 13.2
-9 3 2 12.8 11.6
9 -3 2 32.2 11.4
9 -6 -2 5.4 11
-3 9 -2 13.8 14.5
-6 -3 -2 0.8 10.7
6 3 2 11.7 11.6
-9 6 2 10.9 12.3
6 -9 -2 7.5 18
6 -9 -2 3.2 12.8
-9 3 -2 -7.7 10.9
-6 -3 2 14.7 12
9 -3 -2 -12.9 12.2
-3 -6 -2 11.7 12.4
3 6 -2 3.4 12.5
3 -9 2 -14.6 12.1
-3 9 2 12.1 14.6
2 7 2 273.37 31.6
2 -9 -2 237.48 32.1
-9 2 2 275.97 29.9
9 -7 -2 247.78 29.7
-2 9 -2 237.08 29.4
-2 -7 2 285.77 30.7
7 2 -2 234.08 31.9
-7 -2 -2 270.77 30.9
2 7 -2 310.67 32.7
-9 2 -2 259.47 30.9
7 -9 -2 232.98 33
-2 -7 -2 275.77 30.6
-2 9 2 260.47 32.2
7 2 2 239.78 31.4
9 -2 -2 222.88 31
7 -9 -2 264.07 31.4
-9 7 2 260.77 28.7
-7 -2 2 228.18 27.9
1 -9 -2 826.62 76.89
1 8 2 861.21 78.29
9 -8 -2 752.32 77.59
8 1 -2 742.63 76.39
-1 9 -2 781.02 78.49
-8 -1 -2 788.92 77.99
-1 -8 2 815.12 76.89
8 -9 -2 747.53 77.99
-8 -1 2 817.42 77.69
-1 -8 -2 763.62 76.69
-1 9 2 889.81 78.49
8 -9 -2 732.63 81.99
9 -1 -2 742.83 76.19
1 -9 2 826.92 76.39
0 -9 -2 370.96 41.9
9 -9 -2 344.17 46.8
0 -9 2 391.56 41.9
9 -9 -2 371.16 43.6
0 9 2 484.65 45.7
9 0 -2 375.06 40.8
-9 0 -2 418.86 44.1
-9 0 2 398.06 43
10 -5 2 34.2 14.3
-10 5 2 17.1 13.6
-5 -5 2 23.2 12.8
-10 5 -2 39.9 14.4
10 -5 -2 40.8 13.5
5 -10 -2 21.9 17.4
5 5 2 14.9 13.5
-5 -5 -2 30.7 12.9
5 5 -2 12.8 14.4
-4 -6 2 77.69 14.4
-10 4 2 100.89 16.7
10 -6 -2 85.79 15.6
-6 -4 -2 79.49 14.8
4 6 2 115.59 17.3
6 4 -2 84.59 16.8
-4 10 -2 46.6 18.8
4 -10 -2 61.99 17.7
4 6 -2 88.69 17
6 4 2 58.19 15.8
-10 6 2 92.09 16.1
-4 -6 -2 105.69 16.4
6 -10 -2 50.89 21.4
6 -10 -2 77.89 17.4
-4 10 2 123.29 19.5
10 -4 -2 78.69 16.1
-6 -4 2 80.79 16
-3 10 -2 1934.51 179.58
3 -10 -2 2026.3 187.88
-7 -3 -2 1852.71 178.58
-10 3 2 1851.31 178.78
10 -7 -2 1994 178.68
10 -7 2 1922.41 178.88
-10 7 2 1888.51 187.48
3 -10 2 1967.9 187.28
10 -3 -2 2052.59 187.48
7 3 2 2021.6 187.48
7 -10 -2 1746.83 180.68
7 -10 -2 1944.61 179.18
-10 3 -2 1927.61 178.78
-7 -3 2 1882.91 178.78
10 -8 -2 195.58 24
2 8 2 217.38 25.6
-2 10 -2 192.38 26.9
8 2 -2 185.28 24.3
-8 -2 -2 194.88 25.2
-10 2 2 212.98 27.4
10 -2 2 187.78 23.8
2 -10 -2 177.78 24.2
-2 -8 2 177.58 23.1
-10 2 -2 253.27 25.8
-8 -2 2 188.18 24.6
-10 8 2 187.68 25.8
2 -10 2 140.19 23.2
-2 -8 -2 236.28 23.9
-2 10 2 168.58 26.1
10 -2 -2 196.18 23.1
2 8 -2 198.28 25.5
8 2 2 172.68 23.7
8 -10 -2 211.38 32.1
8 -10 -2 258.77 26
10 -1 2 61.29 17.9
-9 -1 -2 26.6 15.7
-1 -9 2 27.1 16
10 -9 -2 52.99 14.1
1 9 2 57.79 17
1 -10 -2 80.59 17.1
-10 1 2 35.2 14.3
9 1 -2 32.1 15.3
10 -1 -2 56.79 14.4
-9 -1 2 38.9 15
9 -10 -2 12 24.8
9 -10 -2 73.69 15.6
1 9 -2 53.49 16.4
-1 10 2 20.3 17.2
-10 1 -2 14.1 15.8
-1 -9 -2 26.8 16.4
9 1 2 33.1 16.1
0 -10 -2 44.2 17.2
10 0 2 -28.9 17
10 0 -2 33.2 14.8
0 -10 2 -0.3 16.4
10 -10 -2 13.6 14.7
-10 0 2 -1.6 14.9
10 -10 -2 16.5 27.3
-10 0 -2 12.2 16.5
0 10 2 10.5 17.4
-6 -5 -2 264.87 31.7
5 -11 -2 228.68 32.4
-11 5 2 267.07 29.3
6 -11 2 210.48 30.3
6 5 -2 249.38 30.7
5 6 2 329.97 34.3
11 -6 -2 300.07 32.8
11 -5 2 278.47 30.8
-5 -6 2 269.27 32.5
6 -11 -2 248.88 32.1
-6 -5 2 210.28 28.7
-5 -6 -2 275.77 29.7
6 -11 -2 303.77 30.8
5 6 -2 186.38 28.8
11 -5 -2 271.97 33.8
-11 6 2 257.97 30.6
6 5 2 294.77 35.1
-11 4 2 324.07 38.8
-4 -7 2 365.56 39.3
4 7 2 392.36 38.8
7 4 -2 390.86 41.7
4 -11 -2 325.37 43.9
7 -11 2 263.07 36.5
-4 11 -2 411.46 42
-7 -4 -2 322.17 37.6
11 -7 -2 349.07 37.7
-4 -7 -2 365.26 41.8
-4 11 2 295.87 36.5
-11 7 2 355.66 41.3
4 -11 2 337.37 42.5
7 4 2 379.56 41.8
7 -11 -2 376.46 40.6
11 -4 -2 318.37 41
7 -11 -2 239.38 38.7
-7 -4 2 316.47 38.3
3 8 2 335.57 38.4
8 3 -2 268.67 35
-8 -3 -2 282.47 34
11 -8 -2 332.77 36.6
11 -3 2 284.77 37.8
-3 -8 2 363.56 36.6
3 -11 -2 310.37 35.7
-11 3 2 288.47 37.4
8 -11 -2 233.68 39.2
8 3 2 303.57 39.6
-11 8 2 317.07 39.2
11 -3 -2 362.66 38.2
-3 -8 -2 350.76 38.9
8 -11 -2 325.57 38.4
3 8 -2 387.46 40.1
11 -8 2 335.17 34.9
3 -11 2 294.37 39.7
-3 11 2 294.37 39.6
-8 -3 2 307.27 37.4
2 -11 -2 276.77 29.1
-9 -2 -2 186.98 27.7
-2 11 -2 204.18 29.4
11 -9 -2 236.08 26.3
9 2 -2 237.48 28.7
-11 2 2 197.48 26.4
-2 -9 2 183.88 26.8
2 9 2 255.67 28.3
-2 -9 -2 259.47 28.3
-2 11 2 231.58 29
2 9 -2 250.47 28.2
-9 -2 2 216.48 27.2
2 -11 2 230.88 28
9 -11 -2 258.27 28.1
9 2 2 207.58 28.2
9 -11 -2 179.28 35.5
11 -2 -2 198.28 26.5
1 10 2 44 19
11 -10 -2 84.19 30.5
11 -1 2 29.3 20.4
-1 -10 2 25.7 18.5
-11 1 2 36.1 16.5
-1 11 -2 69.39 20.4
11 -10 -2 46.3 15.3
-10 -1 -2 28.6 17.8
1 -11 -2 38.3 19
10 1 -2 77.39 18.4
10 -11 -2 51.29 29.3
10 1 2 62.09 19.6
-1 -10 -2 30.9 18.6
11 -1 -2 74.09 16.1
-10 -1 2 61.79 17.6
1 -11 2 81.09 19.8
-11 1 -2 42 18.5
-1 11 2 57.79 19.6
1 10 -2 55.29 19.4
10 -11 -2 32.4 17
0 11 -2 123.89 24.2
11 0 2 95.69 23.2
-11 0 2 144.99 21.6
11 -11 -2 146.19 21.2
11 -11 -2 65.29 32.6
0 11 2 148.59 24.2
0 -11 -2 118.69 22.9
0 -11 2 146.69 22.8
11 0 -2 88.59 20.1
-11 0 -2 112.39 23.1
6 6 -2 55.39 17.9
-6 -6 2 32.3 16.4
6 6 2 20.3 17.4
-12 6 2 22.2 17.9
-12 6 -2 13.2 19.4
12 -6 -2 40.8 16.6
-6 -6 -2 25.8 15
6 -12 -2 16.2 19.4
6 -12 -2 26.7 21.9
6 -12 2 33.2 20.3
-7 -5 -2 36.3 15.3
5 7 2 64.59 18.6
-12 5 2 25 17.2
12 -7 -2 35.6 16.5
5 -12 -2 29.9 21.2
7 5 -2 37.6 17.9
-5 -7 2 35.2 15.4
12 -5 -2 37.2 17.1
5 7 -2 18.9 17.4
7 -12 -2 45.3 23.6
-12 7 2 40.5 17.8
-5 -7 -2 2.8 16.6
12 -7 2 33.6 18.4
5 -12 2 6.2 18.9
7 -12 -2 39 19.6
7 5 2 46.9 17.5
-7 -5 2 2.7 16.3
-12 5 -2 -32.6 18.9
12 -8 -2 409.06 46
12 -4 2 384.86 46.6
-4 12 -2 419.96 51.09
-8 -4 -2 431.56 46.8
-12 4 2 438.66 47.4
-4 -8 2 437.36 44.8
8 4 -2 427.46 47.7
4 8 2 418.76 47.6
4 -12 -2 376.16 49
-12 4 -2 511.15 49.3
4 8 -2 400.36 49.2
8 4 2 414.26 47.5
4 -12 2 417.16 48.3
-8 -4 2 357.66 46.6
-12 8 2 381.96 47.4
8 -12 -2 441.46 47.7
-4 -8 -2 399.36 47.3
-4 12 2 327.27 48.9
-12 3 2 3.9 16.8
12 -3 2 4.5 18.1
9 3 -2 9.2 18.6
3 9 2 -21.4 17.9
-9 -3 -2 -2.2 17.9
12 -9 -2 10.7 15.5
-3 12 -2 9.4 21.7
3 -12 -2 15 19.8
-3 -9 2 13.4 15.3
-3 12 2 29.6 19.7
9 -12 -2 16.6 17.3
-12 3 -2 28 18.1
-12 9 2 -29.4 21.5
9 -12 -2 0 29.1
9 3 2 40.1 18.9
-9 -3 2 1.9 16.5
12 -3 -2 43.3 16.5
-3 -9 -2 15 18.5
3 9 -2 -10.9 19.1
3 -12 2 -1.7 19.5
12 -2 2 177.88 29.3
10 2 -2 166.88 27.9
2 -12 -2 245.98 28.6
2 10 2 233.18 28.3
12 -10 -2 212.48 25.5
-2 -10 2 208.98 26.3
-10 -2 -2 184.18 27.6
-12 2 2 209.08 25.8
10 2 2 186.98 28.5
10 -12 -2 171.38 36.8
12 -2 -2 174.78 25.3
-2 12 2 150.98 28.4
10 -12 -2 234.08 27.1
-2 -10 -2 231.48 27.9
2 10 -2 176.78 28
-10 -2 2 203.48 26.9
11 1 -2 20 19.9
12 -11 -2 38.7 16.5
-1 12 -2 40.9 23
-11 -1 -2 32.9 19.4
-1 -11 2 23.9 20.5
-12 1 2 17 17.4
1 -12 -2 -1.2 20.9
12 -11 -2 -9.4 32.3
1 11 2 80.59 21.8
12 -1 2 29 22.9
11 1 2 49.6 21.8
11 -12 -2 -1.3 18.5
-11 -1 2 45.3 18.7
12 -1 -2 24.4 17
1 11 -2 84.39 21.9
-1 -11 -2 51.29 20.8
-12 1 -2 49.99 20.9
11 -12 -2 -12.5 31.6
-1 12 2 19.3 21.6
0 12 2 -4.2 21.9
0 -12 -2 19.8 22.3
12 -12 -2 8.6 33.4
0 12 -2 -9.4 23.6
12 -12 -2 2.8 17
0 -12 2 56.29 23.6
12 0 -2 37.3 19.6
12 0 2 28.9 23.7
-12 0 -2 28.2 21.5
-12 0 2 26.2 19.1
6 -13 -2 37.6 23.8
6 -13 -2 15.2 21.4
13 -6 2 23.2 18.9
13 -7 -2 33.1 18
-6 -7 2 42.6 17.7
6 7 2 34.4 20.2
7 6 -2 84.79 20.5
-7 -6 -2 42.5 17
-13 6 2 53.19 20.5
13 -7 2 46.1 20.8
-13 6 -2 66.39 22.5
-13 7 2 39 20
6 7 -2 46.6 20.1
7 -13 -2 -9.4 25.3
-6 -7 -2 56.09 16.9
7 6 2 17.7 19.6
6 -13 2 3.2 22.5
-7 -6 2 32.3 18.7
7 -13 -2 32.1 21.7
13 -6 -2 31.4 18.7
13 -5 2 44.1 19
-8 -5 -2 70.19 18.5
5 -13 -2 34.1 24
-13 8 -2 54.49 23.3
5 8 2 65.19 19.9
-5 -8 2 85.99 18.1
8 5 -2 41.6 20.7
13 -8 -2 30.6 18.4
-13 5 2 47.4 19.7
-13 8 2 75.99 21.5
5 8 -2 58.89 21
-5 -8 -2 43 18.1
8 -13 -2 11.7 27.1
13 -5 -2 27.9 19.2
-8 -5 2 27.3 19.2
8 -13 -2 36.8 21.3
8 5 2 49.8 20
5 -13 2 22.3 22.5
-4 13 -2 375.96 46.2
13 -9 -2 461.65 46.7
4 9 2 446.46 49
4 -13 -2 344.87 46
-4 -9 2 439.66 47.5
-9 -4 -2 316.77 43.2
9 4 -2 393.16 49.6
-13 4 2 393.06 48.2
-13 9 2 433.86 51.99
9 -13 -2 354.36 49.6
13 -9 2 401.96 50.19
9 -13 -2 452.45 48.6
4 9 -2 463.55 49.99
13 -4 -2 413.76 47.7
-4 -9 -2 463.65 49.99
-13 4 -2 525.15 50.19
-9 -4 2 401.56 47.3
-4 13 2 356.56 44.9
9 4 2 453.45 50.69
13 -10 -2 30.2 17.8
-3 -10 2 2.3 17.3
-10 -3 -2 -13.4 20
3 -13 -2 20.1 22.1
3 10 2 10.6 20.7
-3 13 -2 1.4 24.9
10 3 -2 24.6 21.1
-3 -10 -2 7.9 20.3
10 3 2 -28.1 21.4
-10 -3 2 -5.2 18.6
-3 13 2 -29.2 21.7
3 10 -2 4.3 21.2
13 -3 -2 2.1 17.2
10 -13 -2 -2.9 32.7
-13 3 -2 -17.9 20.5
10 -13 -2 22.4 19.1
2 11 2 6.9 22.8
11 2 -2 40.2 22.6
-13 2 2 12.2 18.4
2 -13 -2 -16.3 22.7
-11 -2 -2 39.2 21.5
-2 13 -2 27.6 25
-2 -11 2 41.2 20
13 -11 -2 -0.5 35
13 -2 2 11.4 24.3
13 -11 -2 2 17.4
11 2 2 -8.6 22.4
2 -13 2 25 23.9
11 -13 -2 7.2 19.6
-11 -2 2 38.7 19.6
2 11 -2 5.1 22.4
11 -13 -2 34.6 35.1
13 -2 -2 16.1 17.3
-2 13 2 -2.4 23.4
-2 -11 -2 6.8 21.8
13 -12 -2 115.39 39.4
1 -13 -2 136.99 28.4
1 12 2 150.48 28.2
12 1 -2 116.09 26.9
-1 -12 2 161.78 27.1
13 -1 2 115.89 29.4
13 -12 -2 157.78 23.1
-12 -1 -2 153.58 27.5
-13 1 2 131.59 24.3
1 -13 2 122.79 28.7
13 -1 -2 144.59 24.3
12 -13 -2 141.69 40
1 12 -2 112.19 28.3
-12 -1 2 112.69 24.5
12 1 2 147.09 28.8
-1 -12 -2 173.68 27.8
12 -13 -2 139.79 24.6
-1 13 2 150.98 28
-13 1 -2 179.58 27.6
13 -13 -2 116.49 45.5
0 -13 2 244.78 33.9
13 0 -2 169.58 31.3
0 -13 -2 244.98 32.9
0 13 -2 255.57 36.4
-13 0 2 217.88 30.7
-13 0 -2 204.08 33.3
0 13 2 243.38 34.7
13 -13 -2 271.87 29.9
13 0 2 186.78 33.9
7 7 2 19.4 22.1
-7 -7 -2 15.1 18
-14 7 2 4.8 22
7 -14 2 24.2 27.6
14 -7 -2 39.5 20.1
7 7 -2 -5 21.6
-7 -7 2 -20.3 19.8
7 -14 -2 16.5 23.3
7 -14 -2 -4 27.1
14 -8 -2 30.4 20.1
8 6 -2 36.8 21.5
-8 -6 -2 21.8 19.8
-14 6 2 24.6 22.1
6 8 2 25.4 21.8
6 -14 -2 57.79 23.6
6 -14 -2 9.5 26.9
-6 -8 2 12 18.7
-14 8 2 4 22.9
14 -6 -2 26.2 20.6
8 6 2 60.19 22.8
-8 -6 2 58.69 21.1
6 8 -2 -8.6 21.6
6 -14 2 -63.39 24.7
-14 6 -2 9.6 25.5
-6 -8 -2 9.7 18.3
8 -14 -2 49.99 29.2
8 -14 -2 49.6 23.3
14 -9 -2 75.39 20.3
5 -14 -2 16.2 25.6
9 5 -2 23.6 22.6
-9 -5 -2 31.5 21.9
-5 -9 2 72.29 19.4
-14 5 2 56.19 21.6
5 9 2 61.29 22.2
9 5 2 26.6 22.3
-14 9 2 44.4 24.4
-5 -9 -2 50.09 19.8
9 -14 -2 54.59 31.8
5 9 -2 50.19 24.1
9 -14 -2 46.6 21.7
-9 -5 2 29.7 21.1
14 -5 -2 51.69 20.2
14 -10 -2 1.6 19.6
4 -14 -2 37.3 25.2
4 10 2 13.4 22.8
-4 -10 2 2.7 18.9
-14 4 2 -2.3 21.2
-4 14 -2 -29 27.8
10 -14 2 -30.8 31
-10 -4 -2 -15.7 22
10 4 -2 1 21.7
14 -4 2 29 23.2
10 -14 -2 -1.7 20.8
4 -14 2 -35.8 25.5
10 4 2 33.4 23.1
-14 10 2 6.3 25.9
-4 14 2 38.6 24.9
-4 -10 -2 -16.2 22
14 -4 -2 -7.5 18.8
-10 -4 2 24.2 20.2
4 10 -2 -25.2 23.5
-14 4 -2 -79.39 23.6
10 -14 -2 71.09 35.2
-3 -11 2 333.77 38.1
14 -11 -2 232.38 33.4
11 3 -2 231.98 34
-11 -3 -2 231.08 35.7
-3 14 -2 255.57 39.6
-14 3 2 285.37 34.3
14 -3 2 254.07 36.8
3 -14 -2 249.28 35.3
3 11 2 356.46 36.4
-11 -3 2 281.47 34.5
11 3 2 209.88 35.5
11 -14 -2 300.97 47.3
11 -14 -2 325.47 34.5
3 -14 2 273.87 36.3
-3 14 2 224.78 37
3 11 -2 248.68 35.9
14 -3 -2 232.58 31.1
-14 2 2 50.49 21.5
14 -12 -2 -5.1 38.7
14 -2 2 73.49 30
14 -12 -2 46 20.7
2 12 2 79.19 26
-2 14 -2 22.1 28.7
2 -14 -2 73.99 27.3
12 2 -2 52.19 25
-12 -2 -2 80.49 24.8
-2 -12 2 66.09 23
12 -14 -2 -7.9 39.7
-14 2 -2 78.19 25.1
-2 14 2 62.99 26.5
2 12 -2 18.1 26.5
14 -2 -2 62.09 21
12 2 2 18.7 27.1
2 -14 2 2.3 27.9
-12 -2 2 36.3 22.8
-2 -12 -2 55.99 25.2
12 -14 -2 31.7 23.2
7 8 2 7.9 25.2
15 -8 -2 19.5 21.9
7 -15 -2 18.5 30.7
-8 -7 -2 -4.2 21.4
-15 7 2 20.8 24.8
7 -15 -2 34.1 25.8
-7 -8 2 2.6 22.1
8 7 -2 -11.5 23.9
8 -15 -2 0.3 26.3
8 -15 -2 -30.2 32
-7 -8 -2 2.5 19.9
-15 7 -2 20.8 29.8
8 7 2 26.4 25.7
7 8 -2 46.2 24.3
-15 8 2 -5.8 24.7
-8 -7 2 50.59 22.5
15 -8 2 0.6 24.6
7 -15 2 15.2 29.8
7 -15 2 56.49 32.6
15 -7 -2 2.8 22.4
6 9 2 -9.5 24
9 6 -2 6.3 23.8
-9 -6 -2 41.9 23.7
-6 -9 2 5.9 21.5
15 -9 -2 -33 21.1
6 -15 -2 2.3 25.6
-15 6 2 32.8 23.7
15 -6 2 19.8 23.3
6 -15 -2 -32.1 29.1
9 6 2 2.8 24.7
6 -15 2 3.8 29.1
-6 -9 -2 7 19.8
15 -9 2 16.2 25.8
-9 -6 2 -17.4 22
9 -15 -2 -39.5 33.5
-15 6 -2 -34.5 29
6 9 -2 46.8 25.2
9 -15 -2 -23.4 22.4
15 -6 -2 11 21.8
-15 9 2 61.49 26.7
5 -15 -2 134.19 31.7
-10 -5 -2 123.39 28.1
15 -10 -2 145.09 26.2
-15 5 2 171.28 28.2
10 5 -2 140.99 28.2
15 -5 2 140.49 28.8
-5 15 -2 129.99 35.1
5 10 2 172.88 29.1
-5 -10 2 149.88 25.7
-5 -10 -2 145.39 25.5
-10 -5 2 126.69 26.3
10 5 2 130.29 29.2
10 -15 -2 169.28 27.4
5 10 -2 128.29 30.2
-15 5 -2 123.89 32
15 -5 -2 122.99 24.9
5 -15 2 109.99 32.5
10 -15 -2 46.4 37.4
15 -4 2 149.99 31.1
-4 15 -2 112.49 33.8
-4 -11 2 100.79 24.2
15 -11 -2 89.09 24.1
11 4 -2 65.79 27
-11 -4 -2 101.49 26.7
-15 4 2 46.8 24.5
4 -15 -2 92.59 30.1
4 11 2 94.09 27.3
4 11 -2 106.29 28.4
11 4 2 78.89 29.1
-4 -11 -2 155.98 26.5
11 -15 -2 76.49 25.4
11 -15 -2 4.9 39.9
-15 4 -2 86.39 30.4
-11 -4 2 56.39 24
15 -4 -2 89.79 23.2
4 -15 2 168.78 32.6
-4 15 2 56.69 28.8
-3 1 3 92.09 11.6
2 -3 -3 89.49 11.8
3 -3 -3 495.75 51.89
0 3 3 548.85 51.99
-3 0 3 565.04 51.59
2 -4 -3 -8.6 9.7
4 -2 -3 6.2 7.4
-4 2 3 0.4 7.4
2 -4 -3 10.4 9.4
-4 1 3 56.69 10
1 -4 -3 50.29 10.4
1 3 3 36.2 10.3
4 -3 -3 67.89 9.8
-1 4 3 73.99 11.7
-4 3 3 72.39 10.7
4 -1 -3 62.09 10.1
-3 -1 3 49.1 9.2
3 -4 -3 51.59 9.7
3 -4 -3 34.3 13.1
4 -4 -3 656.33 64.89
0 -4 -3 649.54 65.49
4 0 -3 714.93 65.49
0 4 3 698.63 65.19
-5 2 3 33 9.8
5 -3 -3 46.7 9.3
2 -5 -3 19 11.3
3 -5 -3 54.39 10.6
5 -2 -3 50.49 9.6
3 -5 -3 39 13.9
-5 3 3 21 8.9
5 -4 -3 1633.64 159.98
4 1 -3 1822.52 164.38
1 -5 -3 1701.73 164.48
-5 1 3 1756.42 159.98
-4 -1 3 1772.52 159.98
-5 4 3 1704.33 164.48
4 -5 -3 1662.73 160.08
5 -1 -3 1808.02 164.48
-1 -4 -3 1730.03 164.38
5 0 -3 919.31 93.49
5 -5 -3 977.4 93.29
-5 0 3 985.5 92.99
0 -5 -3 1051.39 93.59
3 -6 -3 812.12 77.69
-6 3 3 789.82 76.89
6 -3 -3 806.22 76.59
2 4 3 29.4 9.9
-6 2 3 19.6 10.3
4 2 -3 29.8 10.5
6 -4 -3 40.4 9.4
2 -6 -3 34.3 11.9
-4 -2 -3 42 9.8
4 -6 -3 24 10.9
-2 -4 -3 33.6 10.1
-2 6 3 28 12.4
4 -6 -3 2.2 15.2
6 -2 -3 33.6 10.2
-6 4 3 39 10.9
5 1 -3 140.19 15.7
-6 1 3 145.59 16.5
6 -5 -3 129.09 16.8
1 5 3 129.39 17.4
1 -6 -3 84.89 16.4
6 -1 -3 134.69 16.4
-6 5 3 108.79 16.8
-5 -1 3 129.59 16.8
5 -6 -3 132.29 22.6
-1 -5 -3 127.89 16
5 -6 -3 149.19 17.5
6 0 -3 614.94 63.29
0 6 3 605.94 62.89
6 -6 -3 671.83 62.59
-6 0 3 641.54 62.19
0 -6 -3 683.73 63.49
3 -7 -3 25.2 13.7
4 3 -3 13.6 11.6
-7 3 3 32.8 11.1
-4 -3 -3 32.2 11.4
7 -4 -3 22.5 10.4
-3 -4 3 29.7 10.8
3 4 3 32 10.3
4 -7 -3 45.3 12.2
7 -3 -3 44.9 11.3
-3 -4 -3 19.8 11.2
-7 4 3 33.3 11.4
3 4 -3 20.9 11.2
4 -7 -3 51.09 16.8
4 3 3 31 10.9
2 -7 -3 42.3 13
2 5 3 56.09 12
7 -5 -3 63.19 11.4
5 2 -3 57.49 13
-7 2 3 73.69 12.5
-2 -5 3 57.29 11.1
7 -2 -3 72.49 12.7
5 -7 -3 35 19.1
2 5 -3 47.3 12.1
5 2 3 41.4 11.4
-7 5 3 51.19 12.9
5 -7 -3 58.99 13.1
-5 -2 3 61.39 12
-2 7 3 16.6 14.1
-2 -5 -3 59.89 12.3
1 -7 -3 222.98 27.1
-7 1 3 192.18 24
7 -6 -3 183.28 21.9
1 6 3 180.48 22.6
6 1 -3 202.88 22.1
-1 -6 -3 163.78 22.5
6 -7 -3 138.69 27
-6 -1 3 205.88 24.8
-7 6 3 210.38 24.3
6 -7 -3 201.38 25.5
-1 7 3 247.98 26.3
0 7 3 51.79 15.1
0 -7 -3 63.89 14.2
7 0 -3 62.39 13.5
-7 0 3 86.39 13.8
7 -7 -3 108.59 25.3
7 -7 -3 79.59 14.6
4 4 -3 1867.61 182.68
4 4 3 1973.7 182.58
-4 -4 -3 1944.41 182.58
8 -4 -3 1979 182.58
4 -8 -3 1885.61 183.48
-8 4 3 2022.9 182.68
4 -8 -3 1912.11 183.08
3 5 3 212.28 28
5 3 -3 211.58 26.8
-8 3 3 241.58 28.6
-3 -5 3 212.48 28.3
3 -8 -3 259.47 31.8
8 -5 -3 212.68 27.9
-5 -3 3 263.37 28.4
3 5 -3 241.48 29.6
8 -3 -3 247.88 28.9
5 -8 -3 244.48 29.2
-3 -5 -3 289.47 29.8
5 -8 -3 190.68 28.7
-3 8 3 229.18 27.4
-8 5 3 234.78 29.5
-6 -2 -3 -0.6 10.9
2 6 3 -22.5 12.2
-8 2 3 10.6 11.9
6 2 -3 -13.4 12.6
-2 -6 3 -3.7 10.5
8 -6 -3 10.1 10.7
2 -8 -3 12.1 14.1
8 -2 -3 13.9 12.7
-2 8 3 -13.1 13.8
-8 6 3 9.4 13
-2 -6 -3 11.2 12.7
2 6 -3 11.7 12.1
6 -8 -3 17.9 20.4
-6 -2 3 26.5 12.4
6 -8 -3 22.4 12.1
7 1 -3 78.99 14.4
-8 1 3 73.59 13.8
8 -7 -3 100.79 14.8
1 7 3 32.3 15.4
-7 -1 -3 63.49 14.7
1 -8 -3 72.59 16.4
-7 -1 3 69.29 14.7
8 -1 -3 100.59 15.6
-1 -7 -3 82.09 16.7
7 -8 -3 69.39 23.1
-1 8 3 102.29 16.7
7 -8 -3 86.59 15.6
8 -8 -3 608.04 61.99
0 8 -3 502.55 54.89
0 8 3 520.65 55.39
0 -8 -3 534.55 53.49
8 -8 -3 582.14 54.69
8 0 -3 501.85 52.49
-8 0 3 499.35 53.89
-9 4 3 351.16 40.9
5 4 -3 417.16 42.1
4 -9 -3 352.26 43.8
-5 -4 -3 368.86 40.5
4 5 3 374.26 40.7
-4 -5 3 352.86 41.2
9 -5 -3 384.16 40.3
-4 -5 -3 369.46 42.4
5 -9 -3 360.56 45.3
5 4 3 384.06 41.9
-9 5 3 362.76 41.3
-5 -4 3 368.76 40.7
5 -9 -3 354.06 41.3
4 5 -3 403.56 41.8
9 -4 -3 407.56 40.9
3 6 3 146.49 20.3
-9 3 3 180.48 21
9 -6 -3 165.48 19.8
-3 -6 3 115.89 19.1
-6 -3 -3 124.99 18.9
6 3 -3 162.48 21.3
-6 -3 3 139.59 20
6 -9 -3 172.28 21.3
-9 6 3 146.19 20.8
-3 -6 -3 174.88 20.8
9 -3 -3 153.48 20.5
6 -9 -3 117.69 25.8
3 6 -3 141.29 20.6
-3 9 3 154.38 22.4
2 -9 -3 92.79 17.9
7 2 -3 43.6 16.4
2 7 3 66.49 15.8
-9 2 3 75.99 15
9 -7 -3 68.99 13.8
-9 7 3 91.79 18
7 -9 -3 13.7 23.9
-2 9 3 47 16.4
-2 -7 -3 49 15.4
-7 -2 3 30.1 15.1
7 2 3 45.2 15.6
9 -2 -3 64.79 15.3
7 -9 -3 75.29 16.2
1 8 3 227.08 26.7
9 -8 -3 228.28 25
1 -9 -3 173.38 26.5
-9 1 3 195.88 24.4
8 1 -3 222.28 25.6
-1 -8 -3 246.78 26.9
-1 9 3 192.48 26.6
8 -9 -3 227.88 25.8
-8 -1 3 201.18 25.3
9 -1 -3 238.68 29.5
8 -9 -3 201.18 32.7
-9 0 -3 1023.2 104.09
0 -9 -3 1042.7 100.89
-9 0 3 1109.39 103.39
9 -9 -3 1088.59 103.69
0 9 3 1080.89 104.39
9 0 -3 1043.1 100.29
-10 5 3 123.09 20
5 5 3 130.19 20.1
10 -5 -3 137.79 19.1
-5 -5 3 130.29 19.4
-5 -5 -3 100.99 19
5 -10 -3 74.89 22.8
5 5 -3 121.39 20.2
5 -10 -3 139.99 21.9
-10 4 3 140.29 20.8
4 -10 -3 75.89 21
4 6 3 124.99 19.9
-4 -6 3 112.09 18.2
6 4 -3 100.79 19.3
10 -6 -3 144.49 20
-6 -4 3 161.58 20.7
-10 6 3 120.19 19.4
6 -10 -3 81.79 26.3
-4 -6 -3 111.99 20.1
6 -10 -3 151.78 21.7
10 -4 -3 132.99 18.9
7 3 -3 213.08 28.7
10 -7 -3 303.87 34
3 -10 -3 255.37 30.2
3 7 3 310.17 35.5
-10 3 3 293.27 31.9
-3 10 3 239.58 32.6
7 -10 -3 190.98 36.4
7 -10 -3 311.37 35.8
10 -3 -3 279.97 32.6
-7 -3 3 251.07 34.7
3 7 -3 340.17 37.1
-10 7 3 314.07 33.2
7 3 3 183.88 27.5
2 8 3 69.29 18.3
-8 -2 -3 69.49 17.3
8 2 -3 55.99 17.8
2 -10 -3 21.1 18.6
-10 2 3 40.1 16.7
10 -8 -3 84.99 15.5
8 -10 -3 109.39 18.3
-2 -8 -3 54.49 17.3
2 8 -3 41.6 18.4
8 -10 -3 63.19 27.6
8 2 3 44.4 17.5
-2 10 3 54.09 18.4
-8 -2 3 64.29 16.9
-10 8 3 103.19 20.5
10 -2 -3 49.1 15.8
-10 1 3 78.99 16.7
1 -10 -3 86.99 19.4
1 9 3 62.99 19.6
-1 -9 3 67.79 17.3
9 1 -3 62.99 17.2
-9 -1 -3 74.39 18.7
10 -9 -3 68.09 15.6
1 9 -3 40.4 18.6
-1 10 3 57.59 19.2
-1 -9 -3 53.19 18.7
9 -10 -3 77.79 17.2
9 -10 -3 61.19 27.8
-9 -1 3 58.09 17.2
10 -1 -3 68.59 16.1
9 1 3 35 18.6
0 10 -3 63.49 21.4
-10 0 3 93.89 18.8
0 -10 -3 136.19 23.2
0 -10 3 112.49 23.1
10 0 -3 131.99 20.2
0 10 3 64.59 21
10 -10 -3 96.69 32
10 -10 -3 123.99 18.9
-11 5 3 40.9 17.2
5 -11 -3 42.8 19.1
-6 -5 -3 12.8 14.6
11 -6 -3 18.6 15.4
5 6 3 2.4 16.6
5 -11 -3 0.5 21.3
6 5 -3 1 17.3
-5 -6 3 6.5 16.2
-5 -6 -3 3.4 16.4
-6 -5 3 -10.1 16.2
6 -11 -3 11.8 23.3
-11 6 3 15.8 16.3
6 -11 -3 5.6 18.2
6 5 3 24.5 17.5
11 -5 -3 8.6 15.4
5 6 -3 22.8 17.9
4 7 3 26.5 16.7
-7 -4 -3 54.89 15.7
-11 4 3 38.4 17
11 -7 -3 19.7 15.5
7 4 -3 56.59 18.6
4 -11 -3 3.8 20.5
-4 -7 3 34.6 16.2
-4 -7 -3 10.6 17.8
-11 7 3 45.5 18
7 -11 -3 18.4 17.6
11 -4 -3 46.4 17.2
-7 -4 3 52.49 17.1
7 -11 -3 3 25.3
-11 3 3 -3.2 17.2
3 -11 -3 -6.3 19.9
11 -8 -3 1.3 15
3 8 3 22.9 17.3
-8 -3 -3 0.2 16.9
8 3 -3 22.5 19.1
11 -3 -3 27.3 17
-11 8 3 49.1 19.7
-3 11 3 1.1 19.4
8 -11 -3 13 17.2
8 3 3 15.7 18.1
-8 -3 3 38.3 17
8 -11 -3 28.1 27.8
-3 -8 -3 25.2 18.2
2 9 3 19.6 19.1
11 -9 -3 -10.6 14.5
2 -11 -3 38.4 19.5
-11 2 3 -0.3 16.6
9 2 -3 -13.7 18.3
9 -11 -3 -2.1 17.2
11 -2 -3 -8.2 16.2
-9 -2 3 17.7 17
9 2 3 5.3 19.1
-2 11 3 -7.6 19.1
9 -11 -3 -1.4 29.8
-2 -9 -3 0.6 18.7
-11 1 3 153.68 21.8
-1 -10 3 137.29 23.2
11 -10 -3 157.88 21.1
1 10 3 134.49 24.5
1 -11 -3 156.88 25
11 -10 -3 124.29 35.5
10 1 -3 85.29 22.9
10 -11 -3 144.39 22.5
-10 -1 3 122.39 22.4
-1 11 3 129.49 24.8
-1 -10 -3 180.48 24.7
11 -1 -3 159.58 22.1
10 -11 -3 57.19 33.8
11 0 3 40.4 23.1
11 -11 -3 -34.4 32.1
0 -11 -3 22.5 21.4
0 11 3 27 21.1
-11 0 3 5.1 17.7
11 0 -3 30.2 18.1
0 11 -3 9.1 22.4
11 -11 -3 1 17
6 -12 -3 149.09 26
-6 -6 -3 142.19 22.6
-6 -6 3 187.48 24.6
6 6 3 168.88 25.4
6 6 -3 141.79 25.2
12 -6 -3 146.69 23.4
-12 6 3 163.08 24.8
6 -12 -3 160.18 29.7
7 5 -3 -0.3 19.2
5 7 3 19.5 18.7
5 -12 -3 24.7 23.3
-5 -7 3 25.4 18.4
12 -7 -3 9.8 17
-12 5 3 2.5 18.4
7 -12 -3 30.1 26.1
-5 -7 -3 21.3 18.6
7 -12 -3 -0.3 20.2
7 5 3 19.7 19.7
-12 7 3 39.9 19.5
5 7 -3 23.1 19.4
-7 -5 3 18.7 18.3
12 -5 -3 17.7 18.1
-12 4 3 205.28 24.9
4 -12 -3 147.29 28.3
4 8 3 150.48 25.6
-8 -4 -3 142.09 24.5
12 -8 -3 202.78 24.2
-4 -8 3 178.18 24.7
8 4 -3 148.49 26.6
8 -12 -3 101.39 34.2
4 8 -3 144.69 26.1
8 -12 -3 181.98 25.2
12 -4 -3 160.18 25.1
-8 -4 3 145.69 24.3
-12 8 3 190.18 27.5
-4 -8 -3 189.08 26.3
9 3 -3 118.59 22.4
3 9 3 65.89 21.7
-12 3 3 103.99 21.2
3 -12 -3 86.19 23.6
12 -9 -3 97.59 19.2
-9 -3 -3 73.69 22
-12 9 3 99.09 24.6
9 -12 -3 79.69 21.1
-9 -3 3 98.39 20.9
9 3 3 46.1 22.3
9 -12 -3 39.5 33.2
-3 12 3 29.6 22.7
12 -3 -3 54.59 19.3
10 2 -3 66.19 22.4
2 10 3 37.7 21.9
-10 -2 -3 4.1 21.3
12 -10 -3 34 17.1
-12 2 3 57.29 19.3
2 -12 -3 3.3 22.1
-10 -2 3 35.4 19.8
10 2 3 54.49 22.9
-2 12 3 46 21.9
10 -12 -3 66.29 34.1
10 -12 -3 31.4 19.3
-2 -10 -3 20.2 21.7
12 -2 -3 59.09 18
11 1 -3 8.9 20.7
12 -11 -3 34.8 34.9
-12 1 3 37.5 18.7
1 -12 -3 43.5 24.1
1 11 3 0.6 22.1
-1 -11 3 49.3 20.6
12 -11 -3 32.9 17.5
-1 -11 -3 9.8 22.4
11 -12 -3 38.8 19.4
11 -12 -3 21.9 34.9
12 -1 -3 7.4 17.3
1 -12 3 67.99 25.1
-1 12 3 35.3 22.8
-11 -1 3 22 19.3
-12 1 -3 -0.7 22
-12 0 3 238.78 33.8
12 -12 -3 316.47 33.9
12 0 -3 244.88 33
0 -12 3 297.77 35.7
12 0 3 184.28 37
0 12 3 322.37 37
0 -12 -3 333.37 36.8
13 -7 -3 -1.1 18.6
7 6 -3 36.2 21.6
-7 -6 -3 17.4 18.6
6 -13 -3 35.9 26.5
6 -13 -3 37.2 22.9
-13 6 3 55.69 21.2
6 7 3 26.6 21.2
-6 -7 3 49.7 21
-7 -6 3 51.89 20.7
6 7 -3 30.5 22
7 -13 -3 71.89 28.5
7 6 3 3.4 22.6
7 -13 -3 -3.7 22.4
13 -6 -3 25.2 19.8
-6 -7 -3 49.99 19
-13 7 3 65.99 21.8
13 -8 -3 705.03 73.89
8 5 -3 676.93 75.69
-5 -8 3 732.33 74.29
5 8 3 797.62 76.09
5 -13 -3 744.63 77.89
-13 5 3 651.33 74.39
-8 -5 -3 685.53 74.69
-8 -5 3 724.13 74.79
-13 8 3 709.73 75.89
-5 -8 -3 741.63 75.09
8 -13 -3 710.43 81.39
8 5 3 747.43 76.89
5 8 -3 794.62 76.29
8 -13 -3 736.33 75.09
13 -5 -3 710.03 74.79
4 -13 -3 255.37 42.6
13 -9 -3 343.37 43.6
-4 -9 3 331.97 44.9
4 9 3 395.56 47.8
9 4 -3 395.66 47.7
-13 4 3 378.26 44
-9 -4 3 379.46 45.3
-4 -9 -3 372.96 41.2
9 -13 -3 384.36 46.1
-13 9 3 429.16 43.1
4 9 -3 332.17 41.2
13 -4 -3 350.46 44.5
9 -13 -3 227.98 48.3
-13 3 3 59.59 22.1
-3 -10 3 108.09 21.6
3 10 3 72.29 24.4
13 -10 -3 101.39 20.6
3 -13 -3 101.89 26.7
10 3 -3 89.29 25
-3 13 3 71.59 25.3
-10 -3 3 91.19 22.4
10 3 3 79.89 25.8
3 10 -3 47.4 25.1
-3 -10 -3 76.69 24.4
10 -13 -3 27.1 37.1
10 -13 -3 84.49 22.1
13 -3 -3 55.59 20.4
2 11 3 22.6 24
-11 -2 -3 40.9 23.7
11 2 -3 11.7 23.8
2 -13 -3 -9.2 24.8
13 -11 -3 13.6 18.5
-13 2 3 34.5 20.9
13 -11 -3 -4.8 36.1
-2 -11 3 36.5 20.5
-11 -2 3 18.2 21
11 -13 -3 -19.3 21
13 -2 -3 24.9 19.3
2 11 -3 35 25.5
-13 2 -3 23.2 24
-2 -11 -3 -2.2 24
11 -13 -3 19.8 38.5
11 2 3 23.2 26.2
-2 13 3 8.9 24.2
1 -13 -3 35.1 26.6
-1 -12 3 64.59 23.6
13 -1 3 25.8 29.2
13 -12 -3 41.1 19.5
12 1 -3 29.6 24
13 -12 -3 9 38.4
-12 -1 -3 61.59 26.6
-13 1 3 81.49 21.3
-1 13 -3 48.3 29.7
1 12 3 45 26
12 -13 -3 6.9 39.7
-1 -12 -3 72.69 26.7
12 -13 -3 29.9 20.7
-13 1 -3 66.59 26.4
13 -1 -3 42.7 21.1
-1 13 3 33.9 25.8
-12 -1 3 34.3 21.6
1 12 -3 49.6 27.9
1 -13 3 3.1 28.8
-13 0 -3 401.06 46.9
0 13 3 341.67 46.2
13 -13 -3 418.96 47.5
-13 0 3 382.46 48.1
0 -13 3 381.16 47.2
0 -13 -3 423.56 47.8
-7 -7 -3 173.28 24.7
14 -7 -3 77.39 24.6
7 7 -3 141.69 26.9
7 -14 -3 82.19 32.8
7 -14 -3 148.49 28.5
-14 7 3 155.48 27.3
7 7 3 139.99 28.4
-7 -7 3 112.79 25.5
-6 -8 3 -31.8 22.2
-14 6 3 16.4 22.8
8 6 -3 28.7 23.5
6 -14 -3 38.9 29.9
14 -8 -3 5.3 20.3
6 8 3 22.9 23.9
-8 -6 -3 -2 20.8
6 -14 -3 24.2 25.1
-14 8 3 43.2 24
14 -6 -3 22.8 21.7
8 -14 -3 0.5 32.5
8 -14 -3 -10.7 22.8
-8 -6 3 -10 21.7
8 6 3 -1.9 25.4
-6 -8 -3 30.5 20.4
6 8 -3 21.7 24.4
-9 -5 -3 116.69 25.9
5 9 3 133.69 26.5
5 -14 -3 105.69 29.1
14 -9 -3 142.29 23.5
-14 5 3 71.69 24.6
9 5 -3 83.69 25.6
-5 -9 3 68.79 23.8
-14 9 3 118.49 27.1
9 5 3 46.6 26.2
-9 -5 3 70.89 24.5
9 -14 -3 130.39 24.7
14 -5 -3 70.89 23
-5 -9 -3 99.99 24
9 -14 -3 56.19 36.4
5 9 -3 104.59 27.9
4 10 3 -17.8 24.4
-10 -4 -3 -46 24.5
14 -10 -3 -2.8 20.9
-14 4 3 18.1 21.4
-4 -10 3 -21.5 21.9
10 4 -3 -16.9 24.1
4 -14 -3 -27.4 27.2
-10 -4 3 -13.7 22.4
10 -14 -3 39.6 37.8
-4 -10 -3 15.1 24.2
4 10 -3 40.9 26.2
10 -14 -3 -24 21.8
14 -4 -3 11.6 20.2
3 -14 -3 16.9 27.7
-11 -3 -3 49.1 25.7
3 11 3 15.4 26.4
-3 -11 3 -16.2 22.3
-14 3 3 16.2 22.8
11 3 -3 9.8 25.3
14 -11 -3 4.4 21.3
-3 14 3 15 26.5
-3 -11 -3 43.4 25.6
-11 -3 3 17.3 22.8
3 11 -3 -21.4 26.7
11 -14 -3 -13.2 39.7
14 -3 -3 -8.3 20
11 3 3 36.2 27.3
11 -14 -3 21.8 22.3
8 7 -3 40 26.4
-8 -7 -3 26 24
7 8 3 43.3 28
15 -8 -3 38.8 24.2
7 -15 -3 24.2 34
7 -15 -3 45.6 27.6
-7 -8 3 69.49 25.7
-15 7 3 102.09 26
8 -15 -3 10.9 34.7
-15 8 3 44.1 27.3
15 -7 -3 37.4 24.2
-7 -8 -3 46.3 23.3
8 7 3 75.09 28.7
8 -15 -3 54.89 27.1
7 8 -3 28.6 27.2
-8 -7 3 70.99 24.9
-15 6 3 54.09 26.6
6 9 3 111.89 27.4
6 -15 -3 35.7 33.1
-6 -9 3 8.1 25.5
9 6 -3 29.9 26.2
-9 -6 -3 32.1 26
15 -9 -3 61.19 23.9
6 -15 -3 52.09 27.5
9 -15 -3 57.89 25.5
-15 9 3 26.2 27.4
6 9 -3 67.39 28.7
15 -6 -3 36.5 24.1
-6 -9 -3 52.29 23.4
-9 -6 3 42.8 25.2
9 -15 -3 -4.2 36.5
9 6 3 14.6 29.3
3 -3 -4 10.7 15
3 -4 -4 72.79 12.2
4 -4 -4 1618.74 153.68
5 -3 -4 15.8 9.8
-5 2 4 25.3 11.1
2 -5 -4 35.8 12.4
2 -5 -4 -6.3 12.5
5 -2 -4 28.4 10.5
-5 3 4 31.7 11.1
3 -5 -4 12 14.4
5 -4 -4 914.81 79.09
-5 4 4 796.52 77.49
4 -5 -4 797.12 79.29
-1 5 4 746.13 79.89
0 5 4 50.69 13.2
5 -5 -4 62.79 12.9
-5 0 4 52.99 12.2
5 -5 -4 33.4 20.8
-6 3 4 -8.6 10.7
3 -6 -4 5 12.5
3 -6 -4 -14.8 15.1
6 -3 -4 -5.3 10.7
2 4 4 9 12.8
6 -4 -4 2.3 10.2
-6 2 4 23.3 11.9
2 -6 -4 30.2 13.5
4 -6 -4 16.3 17.4
4 -6 -4 12 11.7
-6 4 4 15.2 12.5
6 -2 -4 12 11.3
-6 1 4 -6.6 12.1
5 1 -4 -1 10.9
6 -5 -4 23.6 11.2
6 -1 -4 9.8 12.2
5 -6 -4 8.1 18
5 -6 -4 20.6 12.2
-5 -1 4 19.6 11.3
6 0 -4 412.86 43.8
6 -6 -4 398.66 44.5
6 -6 -4 457.95 51.99
-6 0 4 431.86 43.7
-7 3 4 92.19 15.7
3 -7 -4 40.9 17.7
3 -7 -4 109.59 17.8
7 -4 -4 83.99 14.7
-7 4 4 76.69 15.8
4 -7 -4 61.19 21.4
4 -7 -4 84.09 16.4
7 -3 -4 107.49 15.5
7 -5 -4 153.78 19.9
-7 2 4 172.28 21.2
2 -7 -4 98.79 19.2
-7 5 4 140.99 19.5
-2 -5 -4 150.98 19
7 -2 -4 150.48 19.2
5 -7 -4 168.28 21.4
7 -6 -4 -5.1 11.9
1 -7 -4 26.2 14.8
-7 1 4 27 13.2
1 6 4 25 14.4
7 -1 -4 13.4 13.3
6 -7 -4 13.3 13.4
6 -7 -4 -11.6 20.4
-1 -6 -4 20.4 13.7
-1 7 4 24.6 14.8
7 -7 -4 42.8 25.6
7 -7 -4 45.4 14.5
7 0 -4 49.1 14.6
-7 0 4 29.5 13.6
8 -4 -4 2783.32 263.67
-8 4 4 2917.71 263.97
4 -8 -4 2921.41 264.17
-4 -4 -4 2653.13 263.77
5 3 -4 209.18 27.2
3 -8 -4 157.78 27
-8 3 4 272.27 34
3 5 4 259.67 33.7
8 -5 -4 253.67 32.3
8 -3 -4 240.98 25.9
-3 -5 -4 269.27 30.9
-8 5 4 228.08 26.4
5 -8 -4 291.37 34.2
-5 -3 4 262.47 33.5
6 2 -4 133.69 20.2
2 -8 -4 81.69 21.2
-8 2 4 166.08 21.9
8 -6 -4 170.68 20.3
-2 8 4 136.59 23.1
-8 6 4 139.79 21.9
-6 -2 4 144.69 21.2
6 -8 -4 154.68 21.9
6 -8 -4 148.09 28.6
8 -2 -4 169.18 20.3
-2 -6 -4 127.59 20
1 7 4 147.59 24.5
-8 1 4 196.08 23.7
1 -8 -4 160.68 23.8
8 -7 -4 237.48 27
7 1 -4 152.08 22
-1 8 4 178.38 24.9
7 -8 -4 134.19 30
-1 -7 -4 171.08 23.9
7 -8 -4 198.18 23.6
-7 -1 4 177.98 23.2
8 -1 -4 219.98 23.1
8 -8 -4 774.12 76.49
0 8 4 715.93 77.69
8 -8 -4 695.13 83.39
0 -8 -4 905.31 83.89
-8 0 4 849.72 76.19
8 0 -4 800.32 82.89
4 -9 -4 204.68 32.7
-9 4 4 255.57 30.7
4 -9 -4 305.87 37.6
9 -5 -4 302.37 33.5
5 -9 -4 187.78 33.8
5 -9 -4 322.27 36.1
9 -4 -4 296.27 34.1
-4 -5 -4 326.67 37
-9 5 4 257.17 31.3
-9 3 4 181.68 23.4
6 3 -4 155.68 24.3
3 -9 -4 143.29 25
9 -6 -4 175.98 21.9
-6 -3 4 130.09 22.7
-9 6 4 212.68 25
6 -9 -4 139.69 29.9
9 -3 -4 171.58 23.2
6 -9 -4 177.28 23.1
2 7 4 40.2 19.2
7 2 -4 88.19 19
-9 2 4 69.79 18.3
2 -9 -4 68.59 20.3
9 -7 -4 72.39 15.5
-9 7 4 84.69 21.5
-2 9 4 65.39 20.1
7 -9 -4 69.89 17.8
9 -2 -4 85.69 18.4
7 -9 -4 64.89 27.3
-7 -2 4 66.39 17.5
-2 -7 -4 99.59 19.2
8 1 -4 203.88 23
1 -9 -4 143.39 23.9
1 8 4 106.39 23.6
-9 1 4 166.88 22.7
9 -8 -4 185.98 21.2
-8 -1 4 183.98 22.7
8 -9 -4 168.48 33.1
-1 -8 -4 128.39 23.7
8 -9 -4 138.49 22.7
9 -1 -4 150.68 22.5
-1 9 4 121.99 23.8
-9 0 4 1383.16 124.49
9 -9 -4 1122.39 130.09
0 -9 -4 1433.36 128.19
0 9 4 1292.17 125.69
9 0 -4 1245.68 127.19
9 -9 -4 1311.67 124.79
-5 -5 -4 80.89 18.8
5 -10 -4 67.89 23.6
5 5 -4 64.19 20
-5 -5 4 95.59 19.4
10 -5 -4 55.69 17.3
5 5 4 60.19 18.3
5 -10 -4 78.69 20.7
-10 5 4 77.99 18.9
6 4 -4 97.39 21.3
10 -6 -4 99.29 18.5
4 6 4 91.39 19.6
-10 4 4 95.99 19.8
4 -10 -4 64.59 22.4
4 -10 -4 95.99 21.3
10 -4 -4 73.39 18.3
-10 6 4 58.99 20
-4 -6 -4 87.69 20.5
6 -10 -4 85.19 20.4
-6 -4 4 85.59 19.7
6 -10 -4 64.69 26.9
3 7 4 54.79 18.7
10 -7 -4 8.7 15
-10 3 4 -3.3 16.9
7 3 -4 2.6 19.5
-7 -3 -4 -19 15.9
3 -10 -4 14.3 20.8
7 -10 -4 23.8 17.7
10 -3 -4 -2.7 17.1
-7 -3 4 -23.7 17
7 -10 -4 -21.8 28.8
-10 7 4 18.7 20.1
-3 -7 -4 -15.2 17.9
2 8 4 99.89 22.5
2 -10 -4 105.39 22.7
8 2 -4 113.59 21.6
-10 2 4 140.59 21.8
10 -8 -4 90.09 18.6
-2 10 4 91.39 22.8
8 -10 -4 92.49 32
10 -2 -4 86.49 19.7
-8 -2 4 93.49 20.7
8 -10 -4 116.29 21
-2 -8 -4 87.79 21.5
1 -10 -4 23.3 20.9
10 -9 -4 7 15.1
10 -9 -4 78.89 33.1
1 9 4 6.3 20.7
-10 1 4 14.7 18.2
9 1 -4 47.7 18.3
-9 -1 4 41.7 17.7
9 -10 -4 76.49 32
-1 10 4 2.3 19.6
9 -10 -4 23.1 17.7
-1 -9 -4 30.7 20.5
10 -1 -4 23.7 16.6
0 10 4 63.99 22
10 0 -4 57.29 18.6
0 -10 -4 93.89 23.4
-10 0 4 59.69 19.1
10 -10 -4 36.3 33.3
10 -10 -4 54.59 18.3
-11 5 4 -6.8 19.1
-5 -6 4 -33.1 18.9
-6 -5 -4 -0.3 16.7
11 -6 -4 -8.2 16.8
5 -11 -4 -40.6 24.3
5 -11 -4 5.4 20.6
6 5 -4 14.8 20
-11 6 4 -18.3 19.4
-6 -5 4 12.7 19.2
5 6 -4 -30.1 19.7
6 5 4 15.1 19.5
6 -11 -4 -0.7 20.6
6 -11 -4 17.6 25.3
11 -5 -4 17.5 17.4
-5 -6 -4 -16.2 18.9
11 -7 -4 0.6 16.5
4 -11 -4 8 23.8
-11 4 4 11.8 19.2
4 7 4 -18 20
-11 7 4 10.5 21.3
7 -11 -4 -16.8 18.5
-7 -4 4 6.4 18.8
11 -4 -4 6 18.1
-4 -7 -4 18.5 21
7 -11 -4 15.5 28.9
3 8 4 30 21
11 -8 -4 14.3 17
-11 3 4 7.6 19.1
8 3 -4 1.8 21.5
-8 -3 -4 51.09 19.8
3 -11 -4 0.1 22.7
-11 8 4 40.5 22.7
8 -11 -4 33.8 32.2
11 -3 -4 -15.2 18.1
-3 -8 -4 -2.7 20.6
8 -11 -4 -9.4 18.8
9 2 -4 26.8 21.1
2 9 4 17.4 22.3
-11 2 4 35.3 19.7
11 -9 -4 27.9 16.5
2 -11 -4 -12.9 22
-9 -2 4 -8.5 18.6
-2 -9 -4 5.6 21.7
9 -11 -4 40.6 19
9 -11 -4 62.99 34.9
11 -2 -4 23.9 18.2
-2 11 4 33.8 23.1
10 1 -4 25.8 20.8
11 -10 -4 3 35.7
11 -10 -4 -6.3 16.9
1 10 4 25.6 22.7
-11 1 4 34.9 19.4
1 -11 -4 49.2 23.5
-1 -10 -4 78.59 23.9
10 -11 -4 20 18.8
-1 11 4 45.2 22.6
11 -1 -4 15.8 18.8
-10 -1 4 26.9 19.4
10 -11 -4 16.9 34.8
11 -11 -4 2.3 35.9
11 0 -4 36.7 20
11 -11 -4 39.3 17.8
-11 0 4 32.9 19.5
0 -11 -4 58.69 25.6
0 11 4 16.8 23.9
-12 6 4 50.79 21.3
6 6 4 3.9 21.4
6 -12 -4 -31 27.6
12 -6 -4 40.7 19.3
-6 -6 4 16.2 21.2
6 -12 -4 52.99 22.5
7 5 -4 22.8 22.5
5 7 4 20.9 22.2
5 -12 -4 -8.6 26.8
-5 -7 4 -5.4 21.4
-12 5 4 -21.3 20.5
5 -12 -4 19.8 22.6
12 -7 -4 20.3 18.2
-7 -5 4 -3.9 20.2
12 -5 -4 21.4 19.8
-12 7 4 37.8 22.2
7 -12 -4 -62.29 29.2
7 -12 -4 14.4 20.6
-5 -7 -4 26.6 21
8 4 -4 110.59 26.3
4 8 4 131.39 27.1
-12 4 4 170.88 26
4 -12 -4 129.69 28.9
12 -8 -4 177.08 24.1
-4 -8 -4 121.39 26.6
8 -12 -4 153.58 25.7
-8 -4 4 144.69 26
8 -12 -4 90.39 37
-12 8 4 158.88 27.8
12 -4 -4 125.69 24.4
3 -12 -4 66.39 25.9
3 9 4 97.29 25.3
-12 3 4 72.09 21.8
12 -9 -4 73.49 20.3
9 3 -4 57.49 25
12 -3 -4 51.59 20.7
3 9 -4 82.49 25.5
-9 -3 4 67.19 22.5
9 -12 -4 93.79 37
-3 -9 -4 78.79 24.1
9 -12 -4 52.19 21.9
2 -12 -4 5.4 24.9
12 -10 -4 70.59 37.2
-12 2 4 25.2 21.1
12 -10 -4 -6.5 17.9
2 10 4 -8.9 23.9
10 2 -4 45.3 23.8
-10 -2 4 11 20.5
-2 12 4 23.2 24.4
10 -12 -4 -4.3 38.5
10 -12 -4 -30.7 20.5
-2 -10 -4 -16.1 25
12 -2 -4 17.3 19
-12 1 4 21.6 21.3
12 -11 -4 -3.1 18.4
12 -11 -4 35.9 37.8
1 -12 -4 -59.29 26.2
1 11 4 12.2 25.7
11 1 -4 10.5 23.4
-11 -1 4 10.9 20.4
11 -12 -4 -7 39.4
12 -1 -4 0.9 18.8
-1 -11 -4 -2.3 25.2
-1 12 4 22.5 24.6
11 -12 -4 -5.7 20
12 -12 -4 346.57 40.6
12 -12 -4 214.58 50.29
0 12 4 280.97 39.6
12 0 -4 259.07 33.9
6 -13 -4 2.8 24.7
7 6 -4 29.6 24.7
-6 -7 4 12.6 22.8
6 7 4 -15.6 24.4
-13 6 4 -4.4 22.2
-7 -6 -4 35.3 21.2
6 -13 -4 36.4 29.9
13 -7 -4 6.3 20.5
13 -6 -4 23.1 21.6
7 6 4 25.6 25.3
-6 -7 -4 28.7 20.7
7 -13 -4 -9.2 31.4
7 -13 -4 -7.6 23.9
-13 7 4 4.4 23.5
6 7 -4 -30.2 23.9
5 -13 -4 335.37 45.6
8 5 -4 288.97 42.1
5 -13 -4 372.96 42.7
13 -8 -4 365.66 41.6
-8 -5 -4 269.67 36.9
5 8 -4 272.87 38.5
8 -13 -4 317.17 37.3
8 5 4 321.37 44.4
-13 8 4 397.86 49.1
8 -13 -4 219.78 44.7
-5 -8 -4 414.26 49.4
13 -5 -4 398.86 47.8
-8 -5 4 387.76 44.2
-4 -9 4 142.39 30.2
13 -9 -4 170.58 26
4 9 4 147.59 30.3
9 4 -4 142.39 30.7
-13 4 4 191.98 28.6
4 -13 -4 131.19 33.2
-9 -4 -4 99.79 30
9 -13 -4 201.48 28.1
9 -13 -4 127.89 40.7
-9 -4 4 162.98 28.1
-4 -9 -4 215.78 31.4
13 -4 -4 154.28 27.5
4 9 -4 117.69 30.5
-13 9 4 228.28 32.1
9 4 4 227.78 33.5
13 -10 -4 13.6 20.7
3 -13 -4 -8.2 28
10 3 -4 22.2 25.9
-13 3 4 30.8 22
3 10 4 37 26.5
10 -13 -4 24.4 22.1
13 -3 -4 3.7 20.4
-10 -3 4 29.1 23.3
-3 -10 -4 36.9 26.2
10 -13 -4 24 40.4
13 -11 -4 35.3 40.1
11 2 -4 -10.3 27.3
13 -11 -4 18.9 20.7
2 11 4 2.3 27.2
-13 2 4 -6.4 23
2 -13 -4 36.1 28.6
-2 -11 -4 26.4 27.3
-2 13 4 23.2 27.5
11 -13 -4 48.6 42.1
2 11 -4 9.1 29.1
-11 -2 4 -1 22.6
13 -2 -4 35.9 21.7
11 -13 -4 6.3 22.3
-14 7 4 11.4 25.6
7 7 -4 -3 25.7
7 -14 -4 -54.59 33.5
-7 -7 4 11 25
14 -7 -4 -13.7 23.1
-7 -7 -4 -5.3 23.3
7 -14 -4 10.6 26.4
8 6 -4 35.3 26.9
14 -8 -4 1.9 22.4
6 -14 -4 45.1 27.3
-8 -6 -4 14 24.8
6 -14 -4 3 34.2
6 8 4 -6.9 27.8
-14 6 4 54.89 25.5
-6 -8 4 25.7 25.8
-8 -6 4 18.1 24.3
8 -14 -4 16.8 36.5
-14 8 4 26.7 26.5
6 8 -4 59.99 27.4
8 -14 -4 0.6 23.6
8 6 4 -6.2 28.5
14 -6 -4 40.5 23.6
-6 -8 -4 21.4 23.6
5 9 4 39.3 28.1
14 -9 -4 49.5 22.6
9 5 -4 9.9 27.5
-9 -5 -4 16.6 28.2
-14 5 4 29.1 24.5
5 -14 -4 7.4 27.2
5 -14 -4 35.8 32.2
-5 -9 4 45.8 27
-14 9 4 11 28.5
9 -14 -4 20.8 24.6
14 -5 -4 2.3 22.9
-5 -9 -4 -14.1 24.6
9 -14 -4 -53.29 37.4
9 5 4 37.9 31.1
-9 -5 4 31.4 25.1
5 -5 -5 843.12 81.99
6 -3 -5 1111.99 106.39
6 -4 -5 534.55 54.39
2 -6 -5 462.55 51.89
6 -2 -5 506.75 50.79
6 -5 -5 158.28 19.4
5 -6 -5 124.59 20.4
-6 0 5 88.39 18.8
6 -6 -5 46.3 26.8
0 6 5 86.19 19.8
3 -7 -5 55.99 17.8
3 -7 -5 11.6 18.6
-7 3 5 41.5 16.7
4 -7 -5 33.6 16.2
-7 4 5 69.89 17.9
4 -7 -5 27 21.6
7 -5 -5 42.4 14.3
-7 2 5 8.5 16.8
2 -7 -5 80.99 20.1
2 -7 -5 56.99 18.6
5 -7 -5 39.5 16.6
5 -7 -5 41.3 23.3
-7 1 5 713.13 72.59
7 -6 -5 817.82 79.89
1 -7 -5 607.04 68.09
7 -6 -5 700.93 70.79
7 -1 -5 720.13 67.89
6 -7 -5 693.23 72.29
0 -7 -5 0.8 17.2
7 -7 -5 47.9 28.6
7 -7 -5 -2.3 14.8
8 -4 -5 313.77 38.9
-8 4 5 342.57 41.5
3 -8 -5 110.39 22
3 -8 -5 81.49 22.2
8 -5 -5 102.69 18.3
8 -3 -5 124.79 19.9
5 -8 -5 95.89 19.9
5 -8 -5 59.19 27.3
-8 5 5 97.79 22
8 -6 -5 628.54 60.49
-8 2 5 606.54 62.79
-2 -6 -5 534.95 61.79
6 -8 -5 531.05 62.29
8 -2 -5 640.74 62.19
-8 1 5 2.1 19
7 1 -5 14.1 16.6
8 -7 -5 65.99 31.2
8 -7 -5 3.2 14.5
-7 -1 5 -11.1 16.8
7 -8 -5 1.3 16.6
8 -1 -5 1 16.7
7 -8 -5 25.2 28.9
-1 8 5 -3.8 20.6
-1 -7 -5 -19.2 18.7
0 8 5 1042.5 113.39
8 -8 -5 1184.78 112.09
-8 0 5 1258.87 113.69
8 0 -5 1185.78 114.49
4 -9 -5 510.95 56.19
9 -5 -5 462.45 53.09
-9 4 5 577.84 55.99
5 -9 -5 453.95 56.19
9 -4 -5 448.76 52.49
-9 5 5 503.75 55.39
3 -9 -5 -0.7 20.6
-9 3 5 31.7 20
3 -9 -5 53.09 21.5
3 6 5 18 20.7
9 -6 -5 3.8 16.4
6 -9 -5 -6.1 18.6
6 -9 -5 37.5 28.8
-6 -3 5 62.89 19.1
9 -3 -5 20.6 18.2
-9 6 5 -14.4 22.6
-9 2 5 349.77 38.2
7 2 -5 245.68 33.3
9 -7 -5 345.37 39.6
-7 -2 5 347.77 42.1
-2 -7 -5 256.77 33
7 -9 -5 211.18 44
9 -2 -5 294.17 32.4
7 -9 -5 336.77 42.8
1 8 5 173.18 28.9
8 1 -5 196.98 28.7
9 -8 -5 190.38 24.8
9 -8 -5 176.48 39
-9 1 5 246.48 28.8
8 -9 -5 109.99 39.1
8 -9 -5 190.98 26.8
-1 9 5 173.68 29.5
9 -1 -5 244.88 28.6
9 -9 -5 -4.4 33.6
0 -9 -5 -3 22.5
9 -9 -5 7.6 16.3
9 0 -5 31.7 17.9
0 9 5 -35 22.2
-10 5 5 25.7 21.4
5 -10 -5 18.1 26
5 -10 -5 -37.7 21
10 -5 -5 -17.5 17.8
-10 4 5 73.69 22.1
4 -10 -5 23.2 24.1
10 -6 -5 29.7 18.2
4 -10 -5 48.3 22.4
-10 6 5 37 23.4
6 -10 -5 27.5 30
10 -4 -5 22.5 19.5
6 -10 -5 64.29 20.9
10 -7 -5 423.06 48.1
-10 3 5 436.96 51.49
3 -10 -5 449.56 52.99
7 -10 -5 433.06 50.99
10 -3 -5 393.06 50.49
-7 -3 5 381.66 49.7
2 8 5 15.3 23.5
10 -8 -5 22.8 17.3
-10 2 5 13.9 20.6
8 2 -5 -22.9 21.8
8 -10 -5 26.4 19.8
10 -2 -5 28.2 19.3
8 -10 -5 26.9 35.1
1 -10 -5 -9.3 23.7
1 9 5 21 23.9
10 -9 -5 51.49 17.6
-10 1 5 -18.9 22.1
10 -9 -5 -25.7 36.1
10 -1 -5 10.6 19.1
9 -10 -5 29.8 19.7
9 -10 -5 -33 36.4
-1 10 5 -20.4 24.3
-1 -9 -5 -5.1 24.5
0 10 5 34.5 25
0 -10 -5 -42.8 25.3
10 -10 -5 12.5 37.8
-10 0 5 -11.3 22.1
10 -10 -5 34.3 18.5
5 -11 -5 461.85 47.9
5 6 5 435.96 53.79
-11 5 5 416.36 45.1
11 -6 -5 459.85 47
6 -11 -5 349.17 43.8
6 -11 -5 314.57 48.1
-11 6 5 461.65 48.3
11 -5 -5 402.56 50.69
-5 -6 -5 366.36 46
4 -11 -5 31.5 28.2
11 -7 -5 19.3 19.1
4 -11 -5 -9 23.5
-11 4 5 -4.1 22.6
7 -11 -5 21.9 33.6
7 -11 -5 -2.2 21.7
-11 7 5 -5.5 26
11 -4 -5 5.6 21
-4 -7 -5 -6.7 24.3
8 3 -5 55.89 25.5
3 -11 -5 39.1 26.8
11 -8 -5 38.8 20.3
-11 3 5 103.69 24.7
3 8 5 46.3 25.8
11 -3 -5 5.6 21.1
-3 -8 -5 46.7 25.8
8 -11 -5 57.89 22.1
8 -11 -5 47.5 37.6
2 -11 -5 190.38 34.8
11 -9 -5 223.98 30.4
11 -9 -5 242.08 45.9
9 2 -5 217.58 33.9
2 9 5 196.58 34.5
-11 2 5 282.77 33.1
11 -2 -5 249.08 31.1
-2 -9 -5 264.77 35
9 -11 -5 139.59 46.6
9 -11 -5 247.78 32.4
-9 -2 5 278.57 32.5
11 -10 -5 -14.5 40
10 1 -5 -21.4 23.2
11 -10 -5 56.49 19.6
1 -11 -5 -8 27.7
1 10 5 27.6 27
-11 1 5 36.2 25
10 -11 -5 -25 40.5
10 -11 -5 20.5 20.1
-10 -1 5 80.19 22.4
11 -1 -5 19.8 19.8
-1 11 5 24.2 26.8
-1 -10 -5 -8.5 26.5
11 -11 -5 34.4 19.9
-11 0 5 39.6 25.3
11 0 -5 5.1 22.8
11 -11 -5 -16.8 42.6
0 -11 -5 17.1 28.4
0 11 5 22.5 27
6 -12 -5 101.19 37.2
12 -6 -5 184.98 28.1
-12 6 5 190.98 31.7
6 6 -5 159.68 31.5
6 -12 -5 230.48 31
5 -12 -5 5 30.5
-12 5 5 -9.9 24.4
5 -12 -5 19.1 26
12 -7 -5 -2.5 20.1
7 -12 -5 28.6 23
12 -5 -5 18.5 22.6
-12 7 5 23.7 26.4
-7 -5 5 24.7 24.6
7 -12 -5 56.19 34.2
-12 4 5 519.75 60.29
12 -8 -5 495.75 56.39
8 4 -5 470.65 59.59
4 -12 -5 505.75 59.49
8 -12 -5 448.46 58.99
-8 -4 5 497.15 58.99
-4 -8 -5 427.46 51.79
-12 8 5 461.85 53.29
9 3 -5 -12.9 26.7
3 9 5 19.5 27.3
3 -12 -5 17.1 28.9
12 -9 -5 -11.6 20.9
-12 3 5 8 24.2
12 -3 -5 5.5 22
9 -12 -5 -38.9 41.9
9 -12 -5 -7.6 23
-3 -9 -5 15.3 28.5
-9 -3 5 46.4 23.8
2 -12 -5 283.07 39
10 2 -5 198.88 37.2
2 10 5 239.18 38.8
12 -10 -5 231.48 49.4
12 -10 -5 240.38 32.9
-12 2 5 336.37 36.6
-10 -2 5 287.57 35
10 -12 -5 253.57 35.4
10 -12 -5 237.38 50.79
12 -2 -5 260.87 33
-12 1 5 23.7 26
1 -12 -5 26.4 31.4
1 11 5 22 29
11 1 -5 12.2 27.5
12 -11 -5 15.1 21
12 -11 -5 32 43.2
11 -12 -5 50.09 46.6
12 -1 -5 -20.1 21.9
11 -12 -5 0.1 21.1
-11 -1 5 14.4 24.2
-1 12 5 -40.1 29.8
-1 -11 -5 -17.7 30.1
6 -13 -5 61.99 27.8
7 6 -5 66.09 28.8
6 7 5 28.4 30.4
-7 -6 -5 21.4 25.6
6 -13 -5 83.29 35.7
13 -7 -5 35 23.4
-13 6 5 83.59 27.9
-6 -7 5 50.59 27.8
-7 -6 5 29.1 27.9
-13 7 5 14.6 28.3
-6 -7 -5 49.99 25.3
7 -13 -5 61.69 37.6
7 -13 -5 31.9 24.9
13 -6 -5 36.4 24.5
5 -13 -5 42 28.7
-13 5 5 57.79 27.3
13 -8 -5 55.89 23.5
8 5 -5 46.3 29.4
5 8 5 37.9 31
5 -13 -5 31 34.4
-5 -8 -5 64.09 28
-8 -5 5 48.1 27.5
13 -5 -5 45.1 25.4
8 -13 -5 40.2 38.7
8 -13 -5 37 26
-13 8 5 88.29 30.9
13 -9 -5 452.65 55.19
4 9 5 387.26 53.49
9 4 -5 519.75 58.29
-13 4 5 506.35 58.29
4 -13 -5 371.36 48
4 -13 -5 317.27 51.09
9 -13 -5 461.95 58.59
-9 -4 5 490.35 57.39
-4 -9 -5 420.76 49.4
13 -4 -5 426.56 52.39
6 -6 -6 -37 28.5
4 -7 -6 12.2 24.8
4 -7 -6 90.59 21.4
7 -6 -6 128.89 21.6
6 -7 -6 142.89 23.2
7 -7 -6 -29.3 32.4
8 -4 -6 244.88 30.6
8 -5 -6 4.4 17.9
5 -8 -6 -19.9 20.9
6 -8 -6 93.89 22.7
8 -7 -6 58.49 36.5
7 -8 -6 61.99 35.7
8 -8 -6 1.3 36.2
9 -5 -6 38.6 19.7
4 -9 -6 11.3 26.6
-9 4 6 42.6 26.1
4 -9 -6 40.9 23.1
9 -4 -6 29.5 21.1
9 -6 -6 -12.1 19
-9 3 6 9.8 25.3
9 -7 -6 42.7 19.8
9 -7 -6 -0.7 38.5
7 -9 -6 50.29 22.4
9 -8 -6 13.5 19.2
9 -8 -6 -46.1 38.6
1 8 6 -15 27.4
-8 -1 6 69.09 27.1
-9 0 6 181.18 30.8
9 0 -6 101.69 24.1
0 9 6 111.59 32.6
9 -9 -6 106.89 42.3
9 -9 -6 126.69 24.1
0 -9 -6 115.09 30.3
10 -5 -6 -16.3 21.2
5 -10 -6 -18 30.5
5 -10 -6 -6.2 23.5
-10 5 6 -24.4 28.2
10 -6 -6 -42.6 20.1
4 -10 -6 -51.09 29.6
4 -10 -6 11.4 25.1
6 -10 -6 -25.8 23.9
6 -10 -6 -10.2 33.4
-10 6 6 34 29.5
3 -10 -6 75.89 30.6
10 -7 -6 122.99 24.6
-10 3 6 153.08 30.2
7 -10 -6 107.29 26.5
10 -8 -6 1.7 42.4
2 -10 -6 -2.2 26
2 -10 -6 -12.5 28.4
10 -8 -6 17.8 20.8
8 -10 -6 -9.2 23.3
8 -10 -6 3.1 39.4
10 -9 -6 24.4 42.2
-10 1 6 29.8 27.9
1 -10 -6 38.4 29.9
10 -9 -6 30.1 21.2
9 -10 -6 5.5 42.2
10 -1 -6 2.7 22.8
9 -10 -6 25.3 20.9
-10 0 6 11.2 29
0 -10 -6 31.6 32.2
10 -10 -6 10.9 44.6
0 10 6 23.6 32.2
10 -10 -6 25.1 21.3
-11 5 6 60.99 31.4
11 -6 -6 24.3 23.1
5 -11 -6 41.2 26
5 -11 -6 43.4 34.4
11 -5 -6 16.2 23.9
6 -11 -6 67.19 35.4
-11 6 6 17.1 30.6
6 -11 -6 40.8 26.1
-11 4 6 84.89 29.9
11 -7 -6 -2 22.2
4 -11 -6 35.5 27.9
4 -11 -6 -50.49 32.3
11 -4 -6 39.7 25.2
7 -11 -6 26.3 25.9
7 -11 -6 52.89 38.6
11 -8 -6 43.7 23
-11 3 6 26 29.6
11 -8 -6 -21.9 44.5
3 -11 -6 71.29 28
11 -3 -6 10.2 24.1
8 -11 -6 29.9 25.3
8 -11 -6 37.1 42
2 -11 -6 60.79 29.9
2 -11 -6 89.39 33
11 -9 -6 17.9 45.8
11 -9 -6 66.59 24
-11 2 6 122.39 31.6
9 -11 -6 29.1 45.3
9 -11 -6 68.99 25.3
11 -2 -6 96.49 25.6
6 -12 -6 9.1 38.2
12 -6 -6 34.2 25.7
6 -12 -6 -22.2 27.1
-12 6 6 9.9 32.7
8 -5 -7 135.19 44.3
6 -8 -7 -0.9 23.7
9 -6 -7 62.99 45
9 -6 -7 13.3 24.5
6 -9 -7 32.5 37
7 -9 -7 31.3 42.5
9 -8 -7 93.99 25.9
8 -9 -7 90.49 47.1
8 -9 -7 103.59 24.8
10 -5 -7 34.3 27.6
5 -10 -7 24.2 36.3
4 -10 -7 1.5 36.6
10 -6 -7 7.4 26
6 -10 -7 -46.4 38.1
loop_
_twin_individual_id
_twin_individual_mass_fraction_refined
1 0.7(4)
2 0.3(4)
