#------------------------------------------------------------------------------
#$Date: 2017-08-31 05:13:44 +0300 (Thu, 31 Aug 2017) $
#$Revision: 200009 $
#$URL: file:///home/coder/svn-repositories/cod/cif/1/54/69/1546913.cif $
#------------------------------------------------------------------------------
#
# This file is available in the Crystallography Open Database (COD),
# http://www.crystallography.net/
#
# All data on this site have been placed in the public domain by the
# contributors.
#
data_1546913
loop_
_publ_author_name
'\/Lukaszuk, Katarzyna Anna'
'Rojo-Gama, Daniel'
'\/Oien-\/Odegaard, Sigurd'
'Lazzarini, Andrea'
'Berlier, Gloria'
'Bordiga, Silvia'
'Lillerud, Karl Petter'
'Olsbye, Unni'
'Beato, Pablo'
'Lundegaard, Lars Fahl'
'Svelle, Stian'
_publ_section_title
;
 Zeolite morphology and catalyst performance: Conversion of methanol to
 hydrocarbons over offretite
;
_journal_name_full               'Catal. Sci. Technol.'
_journal_paper_doi               10.1039/C7CY00996H
_journal_year                    2017
_chemical_formula_moiety         'K1 O36 Si18, 2(C2.5 O0.5), 9(C), 3(O)'
_chemical_formula_sum            'C14 K O40 Si18'
_chemical_formula_weight         1352.86
_chemical_name_common            Offretite
_space_group_crystal_system      hexagonal
_space_group_IT_number           187
_space_group_name_Hall           'P -6 2'
_space_group_name_H-M_alt        'P -6 m 2'
_symmetry_space_group_name_Hall  'P -6 2'
_symmetry_space_group_name_H-M   'P -6 m 2'
_atom_sites_solution_primary     dual
_audit_creation_date             2017-05-02
_audit_creation_method
;
Olex2 1.2
(compiled 2017.03.28 svn.r3405 for OlexSys, GUI svn.r5335)
;
_cell_angle_alpha                90
_cell_angle_beta                 90
_cell_angle_gamma                120
_cell_formula_units_Z            1
_cell_length_a                   13.2558(3)
_cell_length_b                   13.2558(3)
_cell_length_c                   7.5358(2)
_cell_measurement_reflns_used    2330
_cell_measurement_temperature    273(2)
_cell_measurement_theta_max      30.890
_cell_measurement_theta_min      3.244
_cell_volume                     1146.76(5)
_computing_cell_refinement       'APEX3 (Bruker AXS, 2016)'
_computing_data_collection       'APEX3 (Bruker AXS, 2016)'
_computing_data_reduction        'APEX3 (Bruker AXS, 2016)'
_computing_molecular_graphics    'Diamond v4 (Brandenburg, 2012)'
_computing_publication_material  'Olex2 (Dolomanov et al., 2009)'
_computing_structure_refinement  'SHELXL (Sheldrick, 2015b)'
_computing_structure_solution    'SHELXT (Sheldrick, 2015a)'
_diffrn_ambient_temperature      273.15
_diffrn_detector                 'CCD area detector'
_diffrn_detector_area_resol_mean 13.6986
_diffrn_detector_type            'Marmosaic 225'
_diffrn_measured_fraction_theta_full 0.859
_diffrn_measured_fraction_theta_max 0.883
_diffrn_measurement_device       '\k-geometry diffractometer'
_diffrn_measurement_device_type  'MD2 microdiffractometer with MK3 mini-kappa'
_diffrn_measurement_method       '\f scans'
_diffrn_radiation_collimation    'Rh-coated Si focusing mirrors'
_diffrn_radiation_monochromator  'Silicon 111'
_diffrn_radiation_probe          x-ray
_diffrn_radiation_type           synchrotron
_diffrn_radiation_wavelength     0.750
_diffrn_reflns_av_R_equivalents  0.0325
_diffrn_reflns_av_unetI/netI     0.0390
_diffrn_reflns_Laue_measured_fraction_full 0.859
_diffrn_reflns_Laue_measured_fraction_max 0.883
_diffrn_reflns_limit_h_max       18
_diffrn_reflns_limit_h_min       -17
_diffrn_reflns_limit_k_max       16
_diffrn_reflns_limit_k_min       -18
_diffrn_reflns_limit_l_max       3
_diffrn_reflns_limit_l_min       -9
_diffrn_reflns_number            3006
_diffrn_reflns_point_group_measured_fraction_full 0.877
_diffrn_reflns_point_group_measured_fraction_max 0.898
_diffrn_reflns_theta_full        26.000
_diffrn_reflns_theta_max         30.891
_diffrn_reflns_theta_min         3.243
_diffrn_source                   synchrotron
_diffrn_source_type              'Wiggler, Station I911-3, MAX II, MAXLAB'
_diffrn_standards_number         0
_exptl_absorpt_coefficient_mu    0.817
_exptl_absorpt_correction_T_max  0.7461
_exptl_absorpt_correction_T_min  0.6502
_exptl_absorpt_correction_type   multi-scan
_exptl_absorpt_process_details
'SADABS-2016/2 (Bruker,2016/2) was used for absorption correction. wR2(int) was 0.0859 before and 0.0729 after correction. The Ratio of minimum to maximum transmission is 0.8715. The \l/2 correction factor is Not present.'
_exptl_crystal_colour            colourless
_exptl_crystal_density_diffrn    1.959
_exptl_crystal_description       prism
_exptl_crystal_F_000             675
_exptl_crystal_size_max          0.01
_exptl_crystal_size_mid          0.005
_exptl_crystal_size_min          0.005
_refine_diff_density_max         0.763
_refine_diff_density_min         -0.587
_refine_diff_density_rms         0.110
_refine_ls_abs_structure_details
;
 Flack x determined using 428 quotients [(I+)-(I-)]/[(I+)+(I-)]
 (Parsons, Flack and Wagner, Acta Cryst. B69 (2013) 249-259).
;
_refine_ls_abs_structure_Flack   -0.24(10)
_refine_ls_extinction_method     none
_refine_ls_goodness_of_fit_ref   1.112
_refine_ls_hydrogen_treatment    undef
_refine_ls_matrix_type           full
_refine_ls_number_parameters     77
_refine_ls_number_reflns         1065
_refine_ls_number_restraints     0
_refine_ls_restrained_S_all      1.112
_refine_ls_R_factor_all          0.0458
_refine_ls_R_factor_gt           0.0431
_refine_ls_shift/su_max          0.000
_refine_ls_shift/su_mean         0.000
_refine_ls_structure_factor_coef Fsqd
_refine_ls_weighting_details
'w=1/[\s^2^(Fo^2^)+(0.0871P)^2^+0.8372P] where P=(Fo^2^+2Fc^2^)/3'
_refine_ls_weighting_scheme      calc
_refine_ls_wR_factor_gt          0.1216
_refine_ls_wR_factor_ref         0.1322
_reflns_Friedel_coverage         0.908
_reflns_Friedel_fraction_full    0.896
_reflns_Friedel_fraction_max     0.916
_reflns_number_gt                1009
_reflns_number_total             1065
_reflns_threshold_expression     'I > 2\s(I)'
_iucr_refine_instructions_details
;

    kl-c2.res created by SHELXL-2014/7

TITL kl-c2_a.res in P-6m2
REM Old TITL KL-C2 in P-6m2
REM SHELXT solution in P-6m2
REM R1 0.090, Rweak 0.008, Alpha 0.019, Orientation as input
REM Flack x = 0.349 ( 0.118 ) from Parsons' quotients
REM Formula found by SHELXT: O37 Si18 K
CELL 0.75 13.2558 13.2558 7.5358 90 90 120
ZERR 1 0.0003 0.0003 0.0002 0 0 0
LATT -1
SYMM -Y,+X-Y,+Z
SYMM +Y-X,-X,+Z
SYMM +X,+Y,-Z
SYMM -Y,+X-Y,-Z
SYMM +Y-X,-X,-Z
SYMM -Y,-X,+Z
SYMM +Y-X,+Y,+Z
SYMM +X,+X-Y,+Z
SYMM -Y,-X,-Z
SYMM +Y-X,+Y,-Z
SYMM +X,+X-Y,-Z
SFAC C K O Si
DISP C 0.004 0.002 12.834
DISP K 0.227 0.295 1216.964
DISP O 0.013 0.007 37.215
DISP Si 0.09 0.079 360.042
UNIT 14 1 40 18
 
L.S. 40
PLAN  20
TEMP 0
BOND $H
list 4
MORE -1
CONF
fmap 2
acta 52
TWIN 0 1 0 1 0 0 0 0 -1 2
REM <olex2.extras>
REM <HklSrc "%.\\KL-C2.hkl">
REM </olex2.extras>
 
WGHT    0.087100    0.837200
BASF   0.62855
FVAR       0.63808
K001  2    0.000000    0.000000    0.500000    10.08333    0.01750    0.01750 =
         0.01560    0.00000    0.00000    0.00875
SI02  4    0.233363    0.233914    0.789944    11.00000    0.01383    0.01098 =
         0.00752    0.00135    0.00075    0.00709
SI03  4    0.331610    0.424688    0.500000    10.50000    0.00926    0.00861 =
         0.01039    0.00000    0.00000    0.00358
O004  3    0.229523    0.459047    0.500000    10.25000    0.01788    0.02232 =
         0.01936    0.00000    0.00000    0.01116
O005  3    0.459036    0.540964    0.500000    10.25000    0.01719    0.01719 =
         0.02658    0.00000    0.00000    0.00217
O006  3    0.261314    0.264212    1.000000    10.50000    0.02528    0.02283 =
         0.00975    0.00000    0.00000    0.01380
O007  3    0.097899    0.195797    0.741558    10.50000    0.01698    0.01876 =
         0.01507   -0.00326   -0.00163    0.00938
O008  3    0.254269    0.127135    0.728787    10.50000    0.03219    0.02164 =
         0.01747    0.00096    0.00193    0.01610
O009  3    0.324376    0.350776    0.679569    11.00000    0.02055    0.01978 =
         0.02228    0.00881    0.00050    0.00777
O00A  3    0.333333    0.666667    0.000000    10.08333    0.08660    0.08660 =
         0.01937    0.00000    0.00000    0.04330
C2    1    0.556348    0.443652    0.771572    10.50000    0.08548    0.08548 =
         0.08949   -0.00538    0.00538   -0.01313
C3    1    0.502457    0.497543    1.000000    10.25000    0.09962    0.09962 =
         0.24695    0.00000    0.00000   -0.05138
C4    1    0.263166    0.526332    0.000000    10.25000    0.19072    0.11068 =
         0.04840    0.00000    0.00000    0.05534
C0AA  1    0.333333    0.666667    0.219733    10.16667    0.19129    0.19129 =
         0.22336    0.00000    0.00000    0.09564
O1    3    0.478125    0.239062    0.500000    10.25000    0.42906    0.20737 =
         0.18768    0.00000    0.00000    0.21453
HKLF 4
 
REM  kl-c2_a.res in P-6m2
REM R1 =  0.0431 for    1009 Fo > 4sig(Fo)  and  0.0458 for all    1065 data
REM     77 parameters refined using      0 restraints
 
END  
     
WGHT      0.0871      0.8372 

REM Highest difference peak  0.763,  deepest hole -0.587,  1-sigma level  0.110
Q1    1   0.3060  0.6119  0.1571  10.50000  0.05    0.76
Q2    1   0.5034  0.2517  0.3839  10.50000  0.05    0.60
Q3    1   0.6667  0.3333  0.4484  10.16667  0.05    0.58
Q4    1   0.6667  0.3333  0.3388  10.16667  0.05    0.57
Q5    1   0.3540  0.7080  0.1623  10.50000  0.05    0.52
Q6    1   0.6667  0.3333  0.8838  10.16667  0.05    0.47
Q7    1   0.4138  0.2069  0.5000  10.25000  0.05    0.43
Q8    1   0.2450  0.4901  0.3940  10.50000  0.05    0.41
Q9    1   0.1349  0.1309  0.6609  11.00000  0.05    0.40
Q10   1  -0.0293 -0.0586  0.5000  10.25000  0.05    0.39
Q11   1   0.6667  0.3333  1.0000  10.08333  0.05    0.38
Q12   1   0.2194  0.5364  0.0000  10.50000  0.05    0.38
Q13   1   0.3333  0.6667  0.3550  10.16667  0.05    0.36
Q14   1   0.1671  0.0835  0.8143  10.50000  0.05    0.36
Q15   1   0.5723  0.4277  0.5000  10.25000  0.05    0.36
Q16   1   0.5902  0.4098  0.6595  10.50000  0.05    0.36
Q17   1   0.2996  0.4825  0.5000  10.50000  0.05    0.35
Q18   1   0.3202  0.2934  0.7054  11.00000  0.05    0.35
Q19   1   0.5877  0.4123  1.0000  10.25000  0.05    0.35
Q20   1   0.1828  0.0914  0.5000  10.25000  0.05    0.33

  REM The information below was added by Olex2.
  REM
  REM R1 = 0.0431 for 1009 Fo > 4sig(Fo) and 0.0458 for all 3006 data
  REM n/a parameters refined using n/a restraints
  REM Highest difference peak 0.76, deepest hole -0.59
  REM Mean Shift 0, Max Shift 0.000.

  REM +++ Tabular Listing of Refinement Information +++
  REM R1_all = 0.0458
  REM R1_gt = 0.0431
  REM wR_ref = 0.1322
  REM GOOF = 1.112
  REM Shift_max = 0.000
  REM Shift_mean = 0
  REM Reflections_all = 3006
  REM Reflections_gt = 1009
  REM Parameters = n/a
  REM Hole = -0.59
  REM Peak = 0.76
  REM Flack = -0.24(10)

  
;
_cod_data_source_file            c7cy00996h5.cif
_cod_data_source_block           OFF-O-2
_cod_original_cell_volume        1146.76(6)
_cod_database_code               1546913
_shelx_shelxl_version_number     2014/7
_shelx_space_group_comment
;
The symmetry employed for this shelxl refinement is uniquely defined
by the following loop, which should always be used as a source of
symmetry information in preference to the above space-group names.
They are only intended as comments.
;
_olex2_refinement_description
;
1. Twinned data refinement
 Scales: 0.4(2)
 0.6(2)
;
_olex2_submission_special_instructions 'No special instructions were received'
loop_
_space_group_symop_operation_xyz
'x, y, z'
'-y, x-y, z'
'-x+y, -x, z'
'x, y, -z'
'-y, x-y, -z'
'-x+y, -x, -z'
'-y, -x, z'
'-x+y, y, z'
'x, x-y, z'
'-y, -x, -z'
'-x+y, y, -z'
'x, x-y, -z'
loop_
_atom_site_label
_atom_site_type_symbol
_atom_site_fract_x
_atom_site_fract_y
_atom_site_fract_z
_atom_site_U_iso_or_equiv
_atom_site_adp_type
_atom_site_occupancy
_atom_site_site_symmetry_order
_atom_site_calc_flag
_atom_site_refinement_flags_posn
_atom_site_refinement_flags_adp
_atom_site_refinement_flags_occupancy
K001 K 0.0000 0.0000 0.5000 0.0169(6) Uani 1 12 d S T P
Si02 Si 0.23336(9) 0.23391(9) 0.78994(16) 0.0104(3) Uani 1 1 d . . .
Si03 Si 0.33161(14) 0.42469(12) 0.5000 0.0098(4) Uani 1 2 d S T P
O004 O 0.2295(3) 0.4590(6) 0.5000 0.0194(13) Uani 1 4 d S T P
O005 O 0.4590(3) 0.5410(3) 0.5000 0.0232(15) Uani 1 4 d S T P
O006 O 0.2613(4) 0.2642(4) 1.0000 0.0185(8) Uani 1 2 d S T P
O007 O 0.09790(19) 0.1958(4) 0.7416(7) 0.0167(8) Uani 1 2 d S T P
O008 O 0.2543(5) 0.1271(2) 0.7288(8) 0.0226(10) Uani 1 2 d S T P
O009 O 0.3244(3) 0.3508(3) 0.6796(5) 0.0219(7) Uani 1 1 d . . .
O00A O 0.3333 0.6667 0.0000 0.064(5) Uani 1 12 d S T P
C2 C 0.5563(11) 0.4437(11) 0.772(4) 0.112(8) Uani 1 2 d S T P
C3 C 0.502(3) 0.498(3) 1.0000 0.19(2) Uani 1 4 d S T P
C4 C 0.2632(16) 0.526(3) 0.0000 0.125(12) Uani 1 4 d S T P
C0AA C 0.3333 0.6667 0.220(12) 0.20(4) Uani 1 6 d S T P
O1 O 0.478(5) 0.239(2) 0.5000 0.25(2) Uani 1 4 d S T P
loop_
_atom_site_aniso_label
_atom_site_aniso_U_11
_atom_site_aniso_U_22
_atom_site_aniso_U_33
_atom_site_aniso_U_23
_atom_site_aniso_U_13
_atom_site_aniso_U_12
K001 0.0175(8) 0.0175(8) 0.0156(15) 0.000 0.000 0.0088(4)
Si02 0.0138(5) 0.0110(5) 0.0075(6) 0.0013(3) 0.0008(3) 0.0071(3)
Si03 0.0093(6) 0.0086(6) 0.0104(8) 0.000 0.000 0.0036(5)
O004 0.018(2) 0.022(3) 0.019(4) 0.000 0.000 0.0112(15)
O005 0.017(2) 0.017(2) 0.027(4) 0.000 0.000 0.002(2)
O006 0.025(2) 0.023(2) 0.010(2) 0.000 0.000 0.0138(16)
O007 0.0170(14) 0.019(2) 0.015(2) -0.0033(17) -0.0016(9) 0.0094(11)
O008 0.032(3) 0.0216(15) 0.017(3) 0.0010(10) 0.002(2) 0.0161(13)
O009 0.0205(14) 0.0198(15) 0.0223(16) 0.0088(11) 0.0005(12) 0.0078(13)
O00A 0.087(9) 0.087(9) 0.019(10) 0.000 0.000 0.043(5)
C2 0.085(7) 0.085(7) 0.089(18) -0.005(8) 0.005(8) -0.013(9)
C3 0.100(14) 0.100(14) 0.25(7) 0.000 0.000 -0.051(17)
C4 0.19(3) 0.11(2) 0.05(2) 0.000 0.000 0.055(10)
C0AA 0.19(4) 0.19(4) 0.22(13) 0.000 0.000 0.10(2)
O1 0.43(7) 0.21(2) 0.19(7) 0.000 0.000 0.21(4)
loop_
_atom_type_symbol
_atom_type_description
_atom_type_scat_dispersion_real
_atom_type_scat_dispersion_imag
_atom_type_scat_source
C C 0.0040 0.0020 'International Tables Vol C Tables 4.2.6.8 and 6.1.1.4'
K K 0.2270 0.2950 'International Tables Vol C Tables 4.2.6.8 and 6.1.1.4'
O O 0.0130 0.0070 'International Tables Vol C Tables 4.2.6.8 and 6.1.1.4'
Si Si 0.0900 0.0790 'International Tables Vol C Tables 4.2.6.8 and 6.1.1.4'
loop_
_geom_angle_atom_site_label_1
_geom_angle_atom_site_label_2
_geom_angle_atom_site_label_3
_geom_angle
_geom_angle_site_symmetry_1
_geom_angle_site_symmetry_3
O007 K001 O007 134.27(7) . 5_556
O007 K001 O007 84.60(15) 6_556 4_556
O007 K001 O007 134.27(7) 6_556 2
O007 K001 O007 134.27(7) . 6_556
O007 K001 O007 84.60(15) . 2
O007 K001 O007 84.60(15) 5_556 6_556
O007 K001 O007 84.60(15) 5_556 4_556
O007 K001 O007 84.60(15) . 3
O007 K001 O007 134.27(7) 3 4_556
O007 K001 O007 134.27(7) 5_556 3
O007 K001 O007 78.0(2) 5_556 2
O007 K001 O007 78.0(2) 6_556 3
O007 K001 O007 84.60(15) 3 2
O007 K001 O007 78.0(2) . 4_556
O007 K001 O007 134.27(7) 4_556 2
O007 K001 O008 49.11(5) 3 .
O007 K001 O008 89.17(10) 6_556 3
O007 K001 O008 49.11(5) . .
O007 K001 O008 110.43(15) 2 .
O007 K001 O008 89.17(10) 4_556 2
O007 K001 O008 49.11(5) 5_556 6_556
O007 K001 O008 89.17(10) 6_556 .
O007 K001 O008 89.17(10) 3 6_556
O007 K001 O008 171.57(13) 4_556 3
O007 K001 O008 89.17(10) 2 6_556
O007 K001 O008 49.11(5) 2 2
O007 K001 O008 110.43(15) 5_556 4_556
O007 K001 O008 171.57(13) 5_556 .
O007 K001 O008 89.17(10) 3 4_556
O007 K001 O008 110.43(15) . 3
O007 K001 O008 89.17(10) 4_556 .
O007 K001 O008 89.17(10) . 5_556
O007 K001 O008 171.57(13) . 6_556
O007 K001 O008 49.11(5) 5_556 5_556
O007 K001 O008 49.11(5) 6_556 6_556
O007 K001 O008 110.43(15) 6_556 5_556
O007 K001 O008 110.43(15) 4_556 6_556
O007 K001 O008 171.57(13) 3 5_556
O007 K001 O008 89.17(10) . 4_556
O007 K001 O008 49.11(5) 4_556 5_556
O007 K001 O008 49.11(5) 6_556 4_556
O007 K001 O008 89.17(10) 2 5_556
O007 K001 O008 49.11(5) 4_556 4_556
O007 K001 O008 49.11(5) . 2
O007 K001 O008 89.17(10) 5_556 3
O007 K001 O008 89.17(10) 5_556 2
O007 K001 O008 49.11(5) 3 3
O007 K001 O008 171.57(13) 6_556 2
O007 K001 O008 49.11(5) 2 3
O007 K001 O008 110.43(15) 3 2
O007 K001 O008 171.57(13) 2 4_556
O008 K001 O008 96.43(13) 5_556 4_556
O008 K001 O008 96.43(13) 5_556 6_556
O008 K001 O008 96.43(13) . 3
O008 K001 O008 129.00(6) 2 4_556
O008 K001 O008 129.00(5) 5_556 3
O008 K001 O008 61.14(19) . 4_556
O008 K001 O008 96.43(13) 2 .
O008 K001 O008 96.43(13) 6_556 4_556
O008 K001 O008 129.00(6) 2 6_556
O008 K001 O008 129.00(5) . 6_556
O008 K001 O008 96.43(13) 2 3
O008 K001 O008 61.14(19) 5_556 2
O008 K001 O008 129.00(5) 4_556 3
O008 K001 O008 129.00(5) 5_556 .
O008 K001 O008 61.14(19) 6_556 3
O006 Si02 K001 138.90(17) . .
O006 Si02 O007 111.7(3) . .
O006 Si02 O008 111.7(3) . .
O006 Si02 O009 106.9(2) . .
O007 Si02 K001 45.72(15) . .
O008 Si02 K001 63.4(2) . .
O008 Si02 O007 107.6(3) . .
O009 Si02 K001 113.28(14) . .
O009 Si02 O007 110.7(2) . .
O009 Si02 O008 108.2(2) . .
O004 Si03 O009 110.93(17) . .
O004 Si03 O009 110.93(17) . 4_556
O005 Si03 O004 110.5(4) . .
O005 Si03 O009 106.81(19) . 4_556
O005 Si03 O009 106.81(19) . .
O009 Si03 O009 110.7(3) . 4_556
Si03 O004 Si03 152.0(5) 8 .
Si03 O005 Si03 170.9(5) 7_665 .
Si02 O006 Si02 152.5(3) . 4_557
Si02 O007 K001 110.26(15) 8 .
Si02 O007 K001 110.26(15) . .
Si02 O007 Si02 139.5(3) . 8
Si02 O008 K001 91.0(2) . .
Si02 O008 K001 91.0(2) 9 .
Si02 O008 Si02 143.0(4) . 9
Si02 O009 Si03 141.0(2) . .
C4 O00A C4 120.000(4) 3_565 2_665
C4 O00A C4 120.000(1) . 2_665
C4 O00A C4 120.000(1) 3_565 .
C4 O00A C0AA 90.000(6) 3_565 .
C4 O00A C0AA 90.000(15) 2_665 .
C4 O00A C0AA 90.001(15) 2_665 4
C4 O00A C0AA 90.000(9) . .
C4 O00A C0AA 90.001(9) . 4
C4 O00A C0AA 89.998(6) 3_565 4
C0AA O00A C0AA 180.0 4 .
loop_
_geom_bond_atom_site_label_1
_geom_bond_atom_site_label_2
_geom_bond_distance
_geom_bond_site_symmetry_2
K001 O007 2.892(5) .
K001 O007 2.892(5) 4_556
K001 O007 2.892(5) 3
K001 O007 2.892(5) 5_556
K001 O007 2.892(5) 6_556
K001 O007 2.892(5) 2
K001 O008 3.390(6) 2
K001 O008 3.390(6) 3
K001 O008 3.390(6) 4_556
K001 O008 3.390(6) .
K001 O008 3.390(6) 6_556
K001 O008 3.390(6) 5_556
Si02 O006 1.6296(17) .
Si02 O007 1.6448(19) .
Si02 O008 1.639(2) .
Si02 O009 1.637(3) .
Si03 O004 1.629(2) .
Si03 O005 1.6203(17) .
Si03 O009 1.645(3) 4_556
Si03 O009 1.645(3) .
O004 Si03 1.629(2) 8
O005 Si03 1.6203(17) 7_665
O006 Si02 1.6296(16) 4_557
O007 Si02 1.6448(19) 8
O008 Si02 1.639(2) 9
O00A C4 1.61(4) 3_565
O00A C4 1.61(4) 2_665
O00A C4 1.61(4) .
O00A C0AA 1.66(9) 4
O00A C0AA 1.66(9) .
loop_
_geom_torsion_atom_site_label_1
_geom_torsion_atom_site_label_2
_geom_torsion_atom_site_label_3
_geom_torsion_atom_site_label_4
_geom_torsion
_geom_torsion_site_symmetry_1
_geom_torsion_site_symmetry_4
K001 Si02 O006 Si02 4.8(10) . 4_557
K001 Si02 O007 Si02 179.1(7) . 8
K001 Si02 O008 Si02 -92.9(6) . 9
K001 Si02 O009 Si03 27.2(4) . .
O004 Si03 O009 Si02 55.2(5) . .
O005 Si03 O004 Si03 180.0 . 8
O005 Si03 O009 Si02 175.7(4) . .
O006 Si02 O007 K001 -138.1(2) . .
O006 Si02 O007 Si02 41.0(6) . 8
O006 Si02 O008 K001 135.0(2) . .
O006 Si02 O008 Si02 42.1(7) . 9
O006 Si02 O009 Si03 -144.1(4) . .
O007 Si02 O006 Si02 51.4(8) . 4_557
O007 Si02 O008 K001 12.1(3) . .
O007 Si02 O008 Si02 -80.8(7) . 9
O007 Si02 O009 Si03 -22.3(4) . .
O008 Si02 O006 Si02 -69.2(8) . 4_557
O008 Si02 O007 K001 -15.2(3) . .
O008 Si02 O007 Si02 164.0(5) . 8
O008 Si02 O009 Si03 95.4(4) . .
O009 Si02 O006 Si02 172.7(7) . 4_557
O009 Si02 O007 K001 102.8(2) . .
O009 Si02 O007 Si02 -78.0(5) . 8
O009 Si02 O008 K001 -107.52(18) . .
O009 Si02 O008 Si02 159.6(6) . 9
O009 Si03 O004 Si03 -61.72(16) . 8
O009 Si03 O004 Si03 61.72(16) 4_556 8
O009 Si03 O009 Si02 -68.4(5) 4_556 .
loop_
_refln_index_h
_refln_index_k
_refln_index_l
_refln_F_squared_meas
_refln_F_squared_sigma
1 -2 0 1324.27 57.19
-2 1 0 1362.96 57.19
-1 2 0 1458.95 57.19
-2 2 0 784.32 32.6
0 -2 0 780.32 32.4
3 -2 0 1887.71 75.09
-3 1 0 1801.32 74.99
1 -3 0 1702.53 74.99
-1 3 0 1780.72 74.99
-2 3 0 1855.31 75.09
2 -3 0 1773.12 74.99
3 -1 0 1789.32 74.99
-3 2 0 1899.01 75.09
0 -3 0 2262.47 91.19
3 -3 0 2149.58 89.09
-3 3 0 2147.59 91.39
-4 2 0 2258.87 89.79
2 -4 0 2270.07 89.79
4 -2 0 2042 89.69
-2 4 0 2089.59 89.79
-3 -1 0 566.44 24
1 -4 0 556.94 23.2
-4 1 0 589.24 24.3
4 -3 0 584.74 24.4
-1 -3 0 553.44 23
-4 3 0 527.45 23.3
4 -1 0 573.24 23.2
5 -2 0 75.79 3.5
-5 3 0 61.29 3.7
5 -3 0 48.7 2.9
3 -5 0 52.89 3.1
-5 2 0 48.5 2.9
-5 1 0 1500.45 61.89
5 -1 0 1617.34 65.79
4 -5 0 1398.26 62.09
-1 -4 0 1502.55 65.59
-4 -1 0 1484.85 61.59
-5 4 0 1636.54 65.99
5 -4 0 1576.04 62.09
-5 5 0 579.14 24.7
0 -5 0 580.54 24.4
-6 3 0 3127.99 129.69
-2 -4 0 0.5 0.6
2 -6 0 -0.2 1.1
6 -4 0 0.1 1
-6 2 0 3.4 1.1
6 -2 0 -1.1 0.9
4 -6 0 0.8 1.3
-1 -5 0 71.09 3.3
1 -6 0 68.39 3.7
5 -6 0 62.69 3.7
-5 6 0 60.59 3.9
-6 1 0 64.19 3.4
-6 5 0 61.89 4
6 -5 0 59.39 3.6
6 -6 0 130.99 6.4
0 -6 0 133.19 6
-6 6 0 118.09 6.4
6 0 0 130.89 5.8
-7 4 0 195.88 9.3
4 -7 0 204.98 9.6
7 -4 0 224.88 9.5
3 -7 0 210.28 9.3
-7 3 0 197.78 9.5
7 -3 0 203.48 9.2
-7 2 0 1827.62 76.59
-2 -5 0 1949.01 79.29
7 -5 0 1811.72 76.69
5 -7 0 1882.01 76.69
2 -7 0 1882.21 79.69
6 -7 0 471.25 21
-7 6 0 504.45 22.4
-1 -6 0 507.75 21.8
7 -1 0 540.95 22
7 -6 0 505.55 21.1
7 -7 0 53.69 3.6
0 -7 0 49.4 3.2
7 0 0 62.29 3.1
-8 4 0 9999 413.26
8 -5 0 536.55 23.4
5 -8 0 555.04 23.5
-8 5 0 530.95 22.9
8 -3 0 527.65 22.6
2 -8 0 1215.68 50.89
8 -7 0 327.77 14.1
7 -8 0 302.47 14
1 -8 0 315.17 14
8 -1 0 329.37 13.9
-1 -7 0 315.27 13.8
8 -8 0 2635.34 109.69
0 -8 0 2929.01 121.49
9 -5 0 1541.35 65.09
9 -4 0 1492.15 64.09
5 -9 0 1574.64 65.19
4 -9 0 1578.94 64.29
6 -9 0 72.59 4.6
9 -6 0 78.09 4.6
7 -9 0 244.08 11.4
9 -2 0 326.57 14.1
9 -7 0 252.07 11.4
-2 -7 0 315.07 13.7
9 -1 0 964.3 39.9
9 -8 0 911.81 40.1
1 -9 0 936.81 40
8 -9 0 981.8 40.1
9 -9 0 7773.72 321.67
0 -9 0 7380.26 305.17
5 -10 0 145.79 7.1
10 -5 0 126.39 6.8
10 -4 0 126.89 6.3
4 -10 0 112.69 6.3
7 -10 0 577.74 24
10 -7 0 528.25 23.9
10 -2 0 831.12 36.2
-2 -8 0 875.51 35.9
2 -10 0 864.31 36.4
10 -9 0 113.99 6.4
9 -10 0 125.09 6.5
0 -10 0 18.5 2.4
10 -10 0 17 2.7
5 -11 0 178.98 9.3
11 -6 0 213.68 9.8
6 -11 0 196.18 9.9
11 -5 0 203.08 9.3
11 -4 0 85.19 5.3
4 -11 0 94.99 5.5
11 -7 0 79.79 5.1
7 -11 0 94.59 5.5
3 -11 0 338.67 15.4
11 -3 0 343.97 15.2
8 -11 0 406.36 19.1
11 -8 0 458.55 19.1
9 -11 0 148.59 7.9
11 -9 0 150.58 7.8
11 -2 0 161.48 7.9
2 -11 0 150.28 8.1
-2 -9 0 166.48 7.4
-1 -10 0 488.95 20.8
10 -11 0 495.05 21
1 -11 0 474.95 21
11 -10 0 456.15 20.9
0 -11 0 25.7 3.4
11 -11 0 29.1 3.3
6 -12 0 101.19 6.2
12 -6 0 103.09 6.1
7 -12 0 131.89 7.2
12 -7 0 121.09 6.9
5 -12 0 129.39 7
12 -5 0 119.09 6.8
12 -8 0 1226.68 49.3
12 -4 0 924.21 39.1
4 -12 0 916.61 39.2
8 -12 0 1105.39 49.3
3 -12 0 655.23 30.2
12 -3 0 749.03 30.1
9 -12 0 611.14 25.3
12 -9 0 546.45 25.1
2 -12 0 24 3
-2 -10 0 23.8 2.8
12 -10 0 21.2 3
10 -12 0 17.6 2.7
12 -11 0 24.4 3
-1 -11 0 31.3 3.6
1 -12 0 30.3 4
11 -12 0 30.8 4
0 -12 0 2117.29 88.39
12 -12 0 1678.63 70.49
7 -13 0 43.9 4.7
6 -13 0 42.4 4.5
13 -7 0 49.7 4.6
13 -6 0 48.7 4.5
13 -9 0 1131.89 48.4
13 -4 0 1129.79 48
9 -13 0 1151.88 48.4
4 -13 0 1136.49 48.1
13 -10 0 4.4 2.2
3 -13 0 1.3 2.5
10 -13 0 5.8 2.5
2 -13 0 163.58 8.7
11 -13 0 175.58 9.2
13 -11 0 178.38 9.2
-1 -12 0 168.98 8
12 -13 0 132.99 8.1
13 -12 0 163.08 8.2
1 -13 0 136.89 8.2
13 -13 0 1370.76 57.89
0 -13 0 1294.47 54.59
6 -14 0 49.9 5
14 -8 0 48.2 5.1
8 -14 0 63.69 5.3
14 -6 0 46.6 4.9
14 -5 0 223.98 11.1
5 -14 0 223.08 11.2
14 -4 0 8 3
4 -14 0 8.7 3
14 -10 0 6.7 2.6
10 -14 0 10.6 2.8
14 -11 0 119.69 6.9
11 -14 0 96.99 6.7
3 -14 0 108.99 7.1
2 -14 0 109.29 7.2
14 -12 0 129.79 7.6
12 -14 0 125.19 7.5
13 -14 0 39.7 5.2
14 -13 0 48.2 5.1
1 -14 0 37.1 4.4
14 -14 0 215.78 11.1
0 -14 0 197.78 10.5
15 -7 0 31.1 4
8 -15 0 18.9 3.4
7 -15 0 22.4 3.7
15 -6 0 280.57 13.3
9 -15 0 260.17 12.8
15 -9 0 268.97 13
6 -15 0 260.97 13.2
10 -15 0 162.08 8.8
15 -10 0 145.89 8.6
5 -15 0 182.48 10
15 -11 0 9.8 3.3
11 -15 0 8.7 3
4 -15 0 9.6 3.6
15 -12 0 37.3 5
12 -15 0 36.7 5
3 -15 0 42.4 4.7
2 -15 0 16 4.2
13 -15 0 10.2 3.3
15 -13 0 10.3 3.4
15 -14 0 38.4 4.6
14 -15 0 31.1 4.2
1 -15 0 35.7 5.2
15 -15 0 16.4 4
16 -8 0 1380.56 59.69
8 -16 0 1438.76 59.69
16 -7 0 17.3 3.8
16 -9 0 15.3 3.5
9 -16 0 17.6 3.8
7 -16 0 17.1 4
10 -16 0 164.08 9.2
6 -16 0 172.88 10
16 -11 0 20.7 4
11 -16 0 12.9 3.4
5 -16 0 21.7 4.3
12 -16 0 263.17 12.3
4 -16 0 222.58 12.1
16 -12 0 222.18 12.3
3 -16 0 54.39 5.8
16 -13 0 43.9 5.9
13 -16 0 45.8 5.9
16 -14 0 170.48 9.9
2 -16 0 214.58 12.4
14 -16 0 171.28 9.9
15 -16 0 13 4
16 -15 0 8.4 4
17 -9 0 316.77 15.7
9 -17 0 321.07 15.7
10 -17 0 40.6 5.1
17 -10 0 30.4 4.2
17 -11 0 166.68 10.2
6 -17 0 177.78 10.9
11 -17 0 189.68 10.3
12 -17 0 253.07 13.2
17 -12 0 270.57 13.3
5 -17 0 311.27 15.9
4 -17 0 1865.51 78.79
13 -17 0 1633.14 68.89
3 -17 0 46.5 6.8
14 -17 0 50.29 6.8
17 -14 0 52.69 5.7
10 -18 0 86.89 8.3
18 -10 0 78.99 8.2
7 -18 0 51.39 6.4
18 -11 0 56.99 7.5
11 -18 0 57.09 6.2
-1 2 -1 14.2 1.4
2 -2 1 1482.75 61.79
0 2 -1 1496.15 61.69
-2 2 -1 1411.56 58.59
2 -3 1 2865.21 118.59
1 -3 1 2806.92 116.09
-3 0 -1 123.99 5.5
0 3 -1 119.69 5.4
-3 3 -1 106.99 5.1
-4 2 -1 15.9 1.8
2 -4 1 14.6 1.6
4 -2 1 14.2 1.8
-2 4 -1 16.5 1.8
-1 4 -1 255.37 10.8
-4 3 -1 266.97 11.4
3 -4 1 242.38 10.9
-3 4 -1 256.07 11.4
4 -3 1 254.77 10.9
1 3 -1 244.78 10.5
0 4 -1 2693.23 111.09
4 -4 1 2673.83 111.29
5 -2 1 721.73 30.6
5 -3 -1 776.02 32.6
-5 3 -1 742.43 30.7
-3 5 -1 719.13 30.7
2 -5 1 726.63 30.6
-5 4 -1 8.6 1.4
-1 5 -1 5.4 1.1
4 -5 1 5.8 1.3
5 -4 1 4.3 1.2
1 -5 1 5.2 1.2
1 4 -1 6.1 0.9
5 -1 -1 8.6 1.2
5 -5 -1 136.19 6.8
0 5 -1 136.69 6.4
5 -5 1 150.08 6.8
-5 5 -1 120.19 6.1
5 0 -1 128.29 5.6
-5 0 -1 146.89 6.4
6 -3 1 1294.07 52.39
3 -6 -1 1223.38 52.49
6 -3 -1 1235.68 52.39
-3 6 -1 1265.87 52.49
4 -6 1 414.16 17.4
6 -4 -1 391.16 17.4
2 4 -1 410.26 16.9
6 -2 -1 409.16 17.5
-6 2 -1 395.46 17.3
6 -5 -1 586.04 26
-5 -1 -1 640.74 25.6
-1 6 -1 615.94 25.8
5 -6 1 599.64 25.9
-6 5 -1 649.74 27.2
-5 6 -1 638.54 27.2
1 -6 1 626.94 26.9
1 5 -1 606.14 25.6
6 -6 1 18.9 2.4
0 6 -1 19.1 2
6 0 -1 19.4 1.7
-6 6 -1 21.3 2.5
0 -6 1 18.4 2
6 -6 -1 19.5 2.5
-6 0 -1 24.5 2
-3 7 -1 161.68 7.5
7 -4 -1 150.48 7.4
7 -3 1 166.98 7.7
-7 4 -1 166.18 7.9
-7 3 -1 156.98 7.4
7 -3 -1 178.78 7.8
3 -7 1 159.28 7.7
7 -4 1 159.58 7.4
-4 7 -1 156.28 7.9
4 -7 -1 149.69 7.5
7 -5 -1 43.4 3.3
-7 5 -1 50.89 3.7
-5 -2 -1 50.69 2.7
7 -2 1 56.09 3.4
5 -7 1 54.59 3.4
-2 7 -1 48.2 3.2
5 -7 -1 49.99 3.5
7 -5 1 49.7 3.3
7 -2 -1 58.79 3.3
2 -7 1 59.69 3.5
-7 2 -1 51.89 3.3
-1 7 -1 1031.8 42.4
6 1 -1 934.41 40.1
6 -7 1 1035 42.6
-1 -6 1 1009.6 40.3
-7 6 -1 970.4 40.8
-6 -1 -1 992.3 42.2
7 -1 -1 970.9 40.4
-7 1 -1 990.1 42.4
1 -7 1 941.31 40.5
7 -7 -1 79.79 4.5
0 -7 -1 84.79 4.4
7 -7 1 66.39 4.3
-7 7 -1 68.69 4.7
-7 0 -1 73.19 3.9
7 0 -1 77.19 3.9
0 -7 1 83.09 4.2
4 -8 -1 12.5 2.1
8 -4 1 12.7 1.8
-4 8 -1 15.2 2.1
8 -4 -1 12.7 1.8
4 -8 1 15.3 2
-8 4 -1 13.5 1.9
-8 5 -1 16.1 2.1
5 -8 1 20.7 2.5
3 -8 -1 16.1 2.1
8 -3 1 16.8 2
8 -5 -1 19.2 2.5
-5 -3 -1 19.5 1.5
-3 8 -1 19.7 2.4
-5 8 -1 19.9 2.4
8 -3 -1 18.7 2
-8 3 -1 21 2.5
8 -5 1 17.1 2.1
5 -8 -1 14.3 2.1
3 -8 1 17.6 2.4
8 -6 -1 734.13 32.3
8 -2 1 794.02 32.7
-2 8 -1 756.22 32.2
-8 6 -1 790.82 33
2 -8 -1 776.52 32.9
8 -6 1 758.52 32.3
2 -8 1 747.93 32.7
-8 2 -1 791.32 32.2
-6 8 -1 758.62 33
7 -8 1 11.8 1.9
7 1 -1 9.9 1.3
-7 -1 -1 12.4 1.5
1 -8 -1 10.3 1.8
-8 7 -1 8.7 2
8 -7 -1 7.6 1.8
-1 -7 1 14.1 1.7
-8 1 -1 9.9 1.7
8 -1 -1 12.4 1.6
-1 -7 -1 10.9 1.6
-7 8 -1 12.6 2.2
7 -8 -1 8.9 2
8 -7 1 13.3 2.1
1 -8 1 11.6 1.8
-8 8 -1 1343.97 54.49
8 0 -1 1242.58 53.69
-8 0 -1 1335.47 55.79
0 -8 1 1294.77 53.99
0 -8 -1 1289.97 54.09
4 -9 -1 108.19 6.1
-4 9 -1 122.39 6.3
9 -5 -1 116.09 6.3
9 -4 1 109.99 5.8
5 -9 1 131.99 6.3
-9 5 -1 116.19 6.2
5 -9 -1 121.99 6.5
-9 4 -1 113.09 6.4
9 -4 -1 111.39 5.8
4 -9 1 113.69 5.9
9 -3 1 51.49 3.6
9 -6 -1 41.8 3.6
-6 -3 -1 43.9 2.4
3 -9 -1 44.7 3.8
-9 6 -1 51.09 3.9
6 -9 1 51.39 3.6
-3 9 -1 42 3.5
6 -9 -1 43.6 3.7
3 -9 1 56.69 3.7
9 -6 1 43.3 3.5
-3 -6 -1 51.89 3
-9 3 -1 43.8 3.5
-6 9 -1 55.59 3.8
7 -9 1 455.65 18.9
-9 7 -1 447.36 19.9
9 -7 -1 406.86 18.9
7 -9 -1 436.36 19
9 -2 -1 475.85 19.5
-2 -7 -1 459.95 19.4
2 -9 1 426.26 19.6
9 -7 1 426.16 18.9
-9 2 -1 430.46 18.8
8 -9 1 160.58 8.2
9 -8 -1 167.68 8.4
-8 -1 -1 174.18 7.7
-9 8 -1 191.98 9.5
-9 1 -1 175.08 8.1
-8 9 -1 196.98 9.5
8 -9 -1 158.08 8.3
9 -9 -1 498.35 21.6
0 -9 -1 483.75 21.2
9 0 -1 495.15 20.8
-9 0 -1 487.95 21.1
5 -10 1 26.2 2.8
5 -10 -1 25.4 3.4
-10 5 -1 23.5 3.2
10 -5 -1 22.2 2.6
10 -5 1 22.2 3
-5 10 -1 22.1 2.6
-10 6 -1 61.09 4.6
10 -4 1 63.09 4.2
10 -6 -1 71.19 4.4
4 -10 -1 60.29 4.4
4 -10 1 71.99 4.4
-10 4 -1 60.69 4.4
6 -10 -1 65.89 4.5
10 -4 -1 66.89 4.2
10 -6 1 60.49 4.3
-6 10 -1 57.69 4.5
-10 7 -1 485.25 20.4
3 -10 -1 466.15 20.2
7 -10 1 412.36 19.1
10 -3 1 455.45 19.9
10 -7 -1 464.25 19.2
-7 10 -1 453.85 20.2
10 -3 -1 437.66 19.9
10 -7 1 424.46 19.1
-10 3 -1 445.96 19.2
7 -10 -1 431.86 19.3
2 -10 -1 14.2 2.4
-10 8 -1 11.8 2.2
10 -8 -1 11.3 2.2
8 -10 1 13 2.3
-10 2 -1 9.6 2.1
8 -10 -1 9.7 2.3
10 -2 -1 11.3 1.8
10 -8 1 12 2.4
-8 10 -1 9.1 2.3
2 -10 1 10.5 2.1
10 -9 -1 50.79 4.2
1 -10 -1 46.4 4
-10 9 -1 59.59 4.4
9 -10 1 62.99 4.3
-9 -1 -1 47.9 3.4
-10 1 -1 54.99 3.9
10 -9 1 50.39 4.3
9 -10 -1 51.99 4.5
1 -10 1 52.99 3.9
10 -1 -1 46.4 3.4
-9 10 -1 46.2 4.3
-1 -9 -1 49.3 3.7
10 0 -1 18.1 1.9
0 -10 1 18.8 2.4
0 -10 -1 16.6 2.4
10 -10 1 16.1 2.6
10 -10 -1 21.5 2.7
-10 10 -1 11.1 2.6
11 -6 -1 336.77 15.6
11 -5 1 325.97 15.1
5 -11 -1 320.07 15.2
6 -11 1 374.06 15.7
-11 6 -1 360.06 15.4
-11 5 -1 370.86 15.8
11 -5 -1 335.97 15
6 -11 -1 339.87 15.8
11 -6 1 322.07 15.6
11 -4 1 11.1 2.2
7 -11 1 11.9 2.3
11 -7 -1 15.2 2.5
4 -11 -1 12.7 2.5
11 -4 -1 14 2.3
11 -7 1 17.2 2.5
-11 4 -1 13.5 2.5
7 -11 -1 15.6 2.7
4 -11 1 12.2 2.3
8 -11 1 71.09 4.6
11 -8 -1 55.29 4.4
3 -11 -1 56.69 4.6
3 -11 1 56.99 4.4
11 -3 -1 52.79 4
-3 -8 -1 55.29 3.3
8 -11 -1 52.49 4.6
11 -8 1 56.59 4.4
11 -9 -1 294.87 14
2 -11 -1 303.27 14.5
-11 9 -1 332.67 14.8
9 -11 -1 322.57 14.1
11 -9 1 295.87 13.9
11 -2 -1 298.97 14.1
2 -11 1 332.37 14.4
-2 -9 -1 322.17 13.9
11 -10 -1 5.9 2.3
10 -11 1 9.6 2.5
-11 10 -1 5.7 2.3
1 -11 -1 7.7 2.4
11 -1 -1 6.2 1.8
-1 -10 -1 6.3 2
1 -11 1 6.8 2.2
10 -11 -1 6.5 2.4
11 -10 1 5.8 2.2
0 -11 1 7.3 2.3
11 -11 -1 6.1 2.5
11 -11 1 5.2 2.5
0 -11 -1 4.4 2.1
6 -12 1 99.49 5.7
-12 6 -1 81.29 5.9
12 -6 -1 76.39 5.4
12 -6 1 88.29 5.6
6 -12 -1 87.89 5.8
12 -5 1 44.4 4.1
-12 7 -1 36.6 4.4
12 -7 -1 37.2 3.9
7 -12 1 50.49 4.2
5 -12 -1 36.5 4.3
-12 5 -1 32.9 4.4
12 -5 -1 36.9 3.9
5 -12 1 34.5 4.1
12 -7 1 42.4 4
7 -12 -1 41.6 4.4
4 -12 -1 426.76 19.1
8 -12 1 498.85 22.4
-12 8 -1 424.96 19.2
12 -8 -1 527.25 22.4
8 -12 -1 514.85 22.5
12 -8 1 503.55 22.4
12 -9 -1 84.89 5.6
9 -12 1 97.09 5.8
3 -12 -1 86.39 5.9
-12 9 -1 92.69 6.3
12 -9 1 85.39 5.7
9 -12 -1 80.39 5.7
3 -12 1 94.99 5.9
-3 -9 -1 96.49 4.8
2 -12 -1 252.87 12.6
12 -10 -1 278.17 13
10 -12 1 279.77 12.9
-2 -10 -1 276.17 12
2 -12 1 271.87 12.6
10 -12 -1 270.97 13
12 -10 1 271.47 12.9
1 -12 -1 7.7 2.5
12 -11 -1 8.8 2.7
11 -12 1 8.9 2.5
12 -11 1 10.8 2.8
-1 -11 -1 9.8 2.4
1 -12 1 9.3 2.7
11 -12 -1 3.8 2.3
0 -12 -1 107.59 6.5
12 -12 -1 123.89 6.9
12 -12 1 99.19 6.7
13 -7 -1 47.5 4.4
6 -13 -1 43.1 4.6
7 -13 1 42.2 4.6
6 -13 1 44.1 4.8
13 -6 -1 49.1 4.4
13 -7 1 42.6 4.5
7 -13 -1 47.4 4.6
8 -13 1 86.39 5.8
5 -13 -1 78.79 5.7
13 -5 1 77.19 5.6
13 -8 -1 85.19 5.7
13 -5 -1 74.69 5.4
8 -13 -1 79.99 5.8
5 -13 1 80.99 5.7
13 -8 1 83.29 5.7
13 -9 -1 289.47 13.7
4 -13 -1 286.67 13.4
9 -13 1 299.97 13.8
13 -9 1 302.87 13.7
13 -4 -1 279.37 13.2
9 -13 -1 283.87 13.8
3 -13 -1 5.3 2.7
13 -10 -1 7.2 2.5
10 -13 1 7.2 2.9
10 -13 -1 5.7 2.6
3 -13 1 7.8 2.9
13 -10 1 7 2.6
-3 -10 -1 8.1 1.9
11 -13 1 20.7 3.1
13 -11 -1 15.8 2.9
2 -13 -1 21.6 3.3
-2 -11 -1 18.4 2.6
2 -13 1 20.6 3.3
13 -11 1 22.7 3.2
11 -13 -1 23.3 3.3
13 -12 -1 63.79 5.3
12 -13 1 57.69 5.4
1 -13 -1 58.09 5.5
13 -12 1 60.19 5.3
-1 -12 -1 72.99 5
1 -13 1 53.99 5.2
12 -13 -1 61.99 5.3
13 -13 -1 249.78 12.1
13 -13 1 241.98 12
0 -13 -1 260.67 12.5
7 -14 -1 0.1 2.7
14 -7 1 0.9 2.6
14 -7 -1 0 2.5
7 -14 1 1.5 2.7
14 -8 -1 79.19 5.7
8 -14 1 73.59 6
6 -14 -1 79.99 6.3
14 -6 1 83.19 6.2
14 -6 -1 96.09 6.2
8 -14 -1 87.49 6
14 -8 1 81.89 6
6 -14 1 82.09 6.2
9 -14 1 20.1 3.2
14 -9 -1 20.3 3.2
5 -14 -1 24.3 3.6
14 -5 -1 17.4 3.2
14 -9 1 20.2 3.2
5 -14 1 25.6 3.7
9 -14 -1 24.5 3.6
4 -14 -1 1.1 2.9
10 -14 1 4 2.9
14 -10 -1 4.1 2.5
4 -14 1 5.6 3.1
10 -14 -1 4.8 2.9
14 -10 1 3.9 2.8
11 -14 1 144.09 8.2
3 -14 -1 145.19 8.6
14 -11 -1 134.19 8.2
11 -14 -1 158.58 8.5
3 -14 1 149.29 8.6
14 -11 1 149.19 8.2
14 -12 -1 84.09 6.2
2 -14 -1 88.99 6.8
12 -14 1 87.29 6.5
14 -12 1 97.49 6.4
12 -14 -1 86.69 6.3
2 -14 1 89.99 6.6
-2 -12 -1 85.59 5.7
1 -14 -1 2.1 3.3
13 -14 1 1.2 3
14 -13 -1 -0.8 2.7
-1 -13 -1 4 3.1
14 -13 1 1.6 3.1
13 -14 -1 2.2 3
14 -14 1 38.6 5.1
14 -14 -1 28.5 3.6
0 -14 -1 38.9 4.5
15 -7 1 23.5 3.7
15 -8 -1 21.8 3.7
7 -15 -1 24.3 3.8
8 -15 1 18 3.5
15 -7 -1 20.6 3.5
8 -15 -1 24.1 3.9
7 -15 1 22.9 3.8
15 -8 1 29.4 4
9 -15 1 -1.2 3
15 -9 -1 0.8 2.8
6 -15 -1 -0.3 3
6 -15 1 -1.9 3.1
9 -15 -1 1.1 3
15 -6 -1 0.7 3
15 -9 1 -0.9 2.9
15 -10 -1 180.98 10.1
10 -15 1 201.88 10.4
5 -15 -1 210.38 11.2
10 -15 -1 200.88 10.3
15 -10 1 198.18 10.3
5 -15 1 211.98 11.1
11 -15 1 35.8 4.4
4 -15 -1 28.9 4.3
15 -11 -1 35.8 4.1
4 -15 1 30.1 4.1
11 -15 -1 30.1 3.9
15 -11 1 31.7 3.7
12 -15 1 21.2 3.8
15 -12 -1 20.4 3.3
3 -15 -1 29 4.5
12 -15 -1 16.1 3.5
15 -12 1 21.9 3.8
3 -15 1 21.5 4.2
13 -15 1 156.18 8.4
15 -13 -1 146.39 8.3
2 -15 -1 124.59 8.5
15 -13 1 130.29 8.2
13 -15 -1 120.39 8.2
-2 -13 -1 125.89 7.4
14 -15 1 125.69 7.9
15 -14 -1 119.29 7.9
1 -15 -1 129.79 9
-1 -14 -1 133.59 8.7
15 -14 1 132.39 7.9
0 -15 -1 12.9 5
15 -15 -1 7.9 3.3
15 -15 1 5.2 3.4
8 -16 1 123.39 8.1
16 -8 1 111.39 7.9
8 -16 -1 109.99 7.9
16 -8 -1 114.09 7.9
16 -9 -1 18.6 3.9
9 -16 1 18.5 4.2
7 -16 -1 20 4.1
16 -7 -1 19.5 4.1
9 -16 -1 19.3 3.8
7 -16 1 20.3 4.1
16 -9 1 15.4 3.5
10 -16 1 166.38 9.8
16 -10 -1 187.18 9.8
6 -16 -1 160.88 9.7
10 -16 -1 157.98 9.6
16 -10 1 168.28 9.6
6 -16 1 162.98 9.7
11 -16 1 17.4 4
16 -11 -1 12 3.6
5 -16 -1 14.7 4.2
5 -16 1 19.4 4.5
16 -11 1 15.3 3.8
11 -16 -1 19 3.8
4 -16 -1 235.88 12.8
16 -12 -1 232.18 11.8
16 -12 1 230.68 11.9
12 -16 -1 232.28 11.8
4 -16 1 254.17 12.8
3 -16 -1 57.69 7.5
16 -13 -1 52.59 6
13 -16 1 55.29 6.2
13 -16 -1 58.99 6
16 -13 1 53.29 6
16 -14 -1 5.4 3.3
2 -16 -1 9 4.8
14 -16 1 2.9 3.3
16 -14 1 7.9 3.7
14 -16 -1 6.8 3.4
1 -16 -1 15.9 6
16 -15 -1 13.2 3.6
15 -16 1 12.2 4
15 -16 -1 9.9 3.9
9 -17 1 110.29 8.6
17 -9 -1 119.99 8.6
8 -17 -1 139.19 9
8 -17 1 111.39 8.8
17 -9 1 114.89 8.5
9 -17 -1 139.89 8.7
17 -10 -1 3.7 4
10 -17 1 5.1 4.1
7 -17 -1 2.8 4.2
10 -17 -1 -1.5 3.7
17 -10 1 1.9 3.7
17 -7 -1 3.1 4.1
7 -17 1 4.3 4.2
11 -17 1 73.39 7.2
17 -11 -1 82.69 7.2
17 -11 1 76.89 7.3
11 -17 -1 86.59 7.2
12 -17 1 64.99 6.7
5 -17 -1 69.59 7.8
17 -12 -1 70.49 7
12 -17 -1 74.09 6.8
5 -17 1 64.79 7.6
17 -12 1 62.39 6.9
4 -17 -1 113.79 9.5
13 -17 1 87.39 7.4
17 -13 -1 94.09 7.7
4 -17 1 96.29 8.8
13 -17 -1 93.59 7.3
17 -13 1 96.79 7.7
9 -18 -1 6.4 4.8
18 -9 -1 1.2 4.2
9 -18 1 8.9 4.7
18 -10 -1 8.6 4.7
10 -18 1 12.4 5
8 -18 -1 9 4.7
18 -8 -1 3.2 4.8
10 -18 -1 9.3 4.3
8 -18 1 15.3 5
-3 2 -2 3663.83 151.68
-1 3 -2 3708.93 153.48
-3 3 -2 83.19 4.3
-2 4 -2 553.34 23.1
-4 2 -2 535.45 23.1
-1 4 -2 99.49 4.8
-4 1 -2 98.09 4.9
0 4 -2 83.49 4.1
-4 4 -2 99.19 5
-5 3 -2 17.9 2.2
-2 5 -2 23.1 2.2
3 -5 2 22.4 2.4
-5 2 -2 23.3 2.2
-3 5 -2 18.5 2.1
-5 4 -2 396.36 18
1 4 -2 361.46 15
-4 5 -2 438.16 18
5 -4 2 342.77 15.4
-5 0 -2 1145.99 48.3
-5 5 -2 1136.79 47.7
5 -5 2 1168.38 48.5
3 -6 2 183.38 8.5
-2 6 -2 61.29 3.6
-6 4 -2 70.39 3.9
2 4 -2 64.49 3.2
-6 2 -2 58.49 3.6
-4 6 -2 61.79 3.8
6 -4 2 60.39 3.8
5 -6 2 129.59 6.7
-1 6 -2 143.59 6.4
-6 1 -2 135.39 6.5
6 -5 2 133.59 6.7
6 -6 2 13.9 1.9
-6 0 -2 15.8 2
0 6 -2 15.4 1.9
-6 6 -2 20.1 2.4
-3 7 -2 32.9 2.8
-7 4 -2 36.4 2.9
4 -7 2 35.1 3.1
3 4 -2 35.2 2.1
-7 3 -2 34.3 2.8
-4 7 -2 32.4 2.9
3 -7 2 40.9 3.1
7 -5 -2 521.75 23.2
5 -7 2 529.75 23.1
-7 5 -2 539.05 23.9
2 5 -2 554.84 22.6
7 -5 2 546.85 23.1
2 -7 2 568.14 23.9
-5 7 -2 564.44 24
-7 2 -2 531.95 23
-6 -1 -2 2543.95 102.89
6 -7 2 2552.54 103.19
-1 7 -2 2437.36 102.99
-7 6 -2 2390.36 98.79
6 -7 -2 2416.86 103.29
7 -1 -2 2352.66 98.49
-7 1 -2 2416.86 102.99
7 -6 2 2507.55 103.19
7 -7 -2 235.48 10.2
-7 7 -2 211.68 10.5
7 0 -2 240.68 10.1
0 7 -2 201.48 9.7
-4 8 -2 35.1 3.2
-8 4 -2 37.9 3.3
4 4 -2 41.8 2.1
8 -4 -2 37.4 3.2
4 -8 2 39.9 3.4
8 -5 -2 142.79 7.2
5 -8 2 142.99 7.2
-8 3 -2 147.29 7.1
-2 8 -2 817.12 34.5
-8 6 -2 820.72 35.6
2 -8 2 893.21 35.5
-8 2 -2 813.32 34.5
8 -2 -2 798.02 35.3
-8 7 -2 325.67 15.3
7 -8 2 339.17 15
7 1 -2 347.07 14.7
-7 -1 -2 333.67 14.6
-7 8 -2 334.47 15.3
7 -8 -2 347.57 15.1
1 7 -2 334.07 14.6
8 -1 -2 355.26 15
-8 1 -2 330.57 14.8
8 -7 2 327.27 15
8 -8 2 2127.89 90.59
-8 8 -2 2338.87 98.29
-8 0 -2 2166.78 90.39
0 8 -2 2237.88 90.39
8 0 -2 2371.96 97.79
8 -8 -2 2155.68 90.69
9 -5 -2 1769.92 74.09
4 -9 -2 1592.94 70.59
-9 5 -2 1763.52 70.59
4 -9 2 1676.43 70.49
9 -4 -2 1727.83 70.49
-5 9 -2 1664.63 70.59
-3 9 -2 7.7 2
9 -6 -2 9.8 2
3 -9 -2 9.5 2.1
-9 6 -2 6.5 1.9
-6 -3 -2 13.9 1.7
9 -3 -2 9.6 1.9
-6 9 -2 9.4 1.9
6 -9 -2 13.3 2.4
3 6 -2 13.9 1.4
9 -6 2 11 2.1
3 -9 2 11.6 2.1
-2 9 -2 359.46 16.2
7 -9 2 374.86 16.4
9 -7 -2 383.36 16.5
-7 -2 -2 363.86 15.8
7 -9 -2 351.56 16.4
-7 9 -2 401.36 17.5
-9 2 -2 354.16 16.2
9 -7 2 380.06 16.4
2 -9 2 384.76 17.2
-8 -1 -2 1246.48 51.49
9 -8 -2 1217.98 51.89
8 -9 2 1302.87 51.89
8 1 -2 1266.37 52.49
-1 9 -2 1203.88 51.69
-9 8 -2 1318.87 53.29
9 -8 2 1223.18 51.79
9 -1 -2 1204.58 52.79
8 -9 -2 1233.38 51.99
-9 1 -2 1181.88 51.59
0 9 -2 573.04 25.3
-9 9 -2 637.54 27.3
-9 0 -2 571.04 25.2
9 0 -2 620.44 26.6
9 -9 2 619.34 25.6
9 -9 -2 598.54 25.7
-5 10 -2 38.8 3.8
5 -10 2 38 3.8
5 -10 -2 40 3.9
-10 5 -2 39 3.7
10 -5 -2 48.9 3.8
10 -6 -2 138.29 7.2
6 -10 2 138.29 7.2
-4 10 -2 135.79 7.2
-10 4 -2 126.89 7.1
4 -10 2 136.59 7.2
6 -10 -2 134.39 7.4
10 -4 -2 139.89 7.1
10 -6 2 141.79 7.1
-6 10 -2 137.39 7.3
7 -10 2 3037 123.59
10 -7 -2 2853.41 123.59
-7 -3 -2 3001.7 123.09
-10 7 -2 3168.48 128.69
10 -3 -2 3046.8 128.39
7 -10 -2 2981.7 123.69
3 -10 2 3052.59 128.39
-10 8 -2 356.06 15.7
-8 -2 -2 314.07 13.6
8 -10 2 325.67 14.3
8 -10 -2 311.07 14.4
-8 10 -2 332.87 15.6
10 -8 2 305.37 14.2
-10 2 -2 300.97 14.1
-10 9 -2 57.19 4.7
10 -9 -2 57.99 4.5
9 -10 2 56.69 4.4
-1 10 -2 47.5 4.2
1 -10 -2 50.59 4.5
-9 -1 -2 52.79 3.7
-9 10 -2 55.29 4.5
-10 1 -2 53.49 4.1
10 -1 -2 56.69 3.8
10 -9 2 57.39 4.4
9 -10 -2 56.29 4.6
10 -10 -2 30.3 3.8
-10 10 -2 25.7 3.1
0 -10 -2 32.7 3.9
10 -10 2 28.3 3.8
10 0 -2 26 2.6
-10 0 -2 24.9 3.3
6 -11 2 396.36 18.5
-5 11 -2 412.46 18.5
5 -11 -2 416.56 17.8
11 -6 -2 440.26 18.6
-6 -5 -2 408.66 17.7
6 -11 -2 404.06 18.7
-11 5 -2 431.76 18.6
11 -6 2 419.46 18.5
-6 11 -2 389.96 17.6
5 -11 2 372.26 17.5
-4 11 -2 576.84 25.8
4 -11 -2 584.84 26
-7 -4 -2 613.94 25.1
7 -11 2 601.94 25.9
-11 7 -2 603.84 26.1
11 -7 2 610.24 25.8
4 -11 2 596.04 25.9
11 -4 -2 576.54 25.8
-7 11 -2 624.04 26.1
7 -11 -2 566.44 25.9
-11 8 -2 516.05 22
3 -11 -2 474.45 21.8
8 -11 2 516.25 22.7
-3 -8 -2 505.15 21.4
11 -3 -2 473.75 21.5
-8 11 -2 504.75 21.9
-11 9 -2 368.26 16.8
9 -11 2 349.47 15.6
-9 -2 -2 359.86 15
-11 2 -2 323.27 15.4
-2 -9 -2 380.36 16.4
9 -11 -2 340.07 15.7
-9 11 -2 357.06 16.8
11 -9 2 336.97 15.6
1 -11 -2 86.79 6.1
11 -10 -2 88.79 5.8
-10 -1 -2 90.09 5.2
10 -11 2 84.29 5.7
-11 10 -2 91.49 6
11 -10 2 84.89 5.7
-1 -10 -2 93.89 5.8
-11 1 -2 89.29 5.6
-10 11 -2 81.09 5.8
10 -11 -2 94.19 5.9
11 -11 2 207.88 10.5
11 -11 -2 216.88 10.6
-11 11 -2 278.77 12.5
-11 0 -2 211.18 10.2
0 -11 -2 237.98 12.3
-6 12 -2 50.59 4.5
-12 6 -2 44.6 4.6
6 -12 2 37.6 4.4
6 -12 -2 45.4 4.7
-6 -6 -2 46 3.3
12 -6 -2 40.3 4.3
5 -12 -2 55.19 5
-12 7 -2 58.29 4.9
-5 12 -2 54.99 4.8
12 -7 -2 58.89 4.9
7 -12 2 58.69 5
7 -12 -2 70.49 5.1
12 -5 -2 50.49 4.5
12 -7 2 62.89 4.9
5 -12 2 51.49 4.8
-12 5 -2 57.59 5.1
12 -8 -2 699.43 30.2
-8 -4 -2 691.43 29.2
-12 8 -2 703.63 29.2
8 -12 2 693.03 30.1
12 -8 2 691.13 30.1
-4 -8 -2 681.83 28.3
4 -12 2 641.74 28.8
12 -4 -2 643.34 28.8
8 -12 -2 711.83 30.2
-12 9 -2 8 3
-9 -3 -2 8.1 1.8
12 -9 -2 7.4 2.7
9 -12 2 7.7 2.4
3 -12 -2 6.2 2.7
3 -12 2 6.2 2.5
-12 3 -2 5.1 2.6
-3 -9 -2 7.8 2.3
-9 12 -2 10.3 2.5
12 -9 2 9 2.4
12 -3 -2 6.6 2.2
9 -12 -2 10.2 2.6
-10 -2 -2 321.57 14.1
12 -10 -2 340.07 15
10 -12 2 325.87 14.8
12 -10 2 300.87 14.7
-12 2 -2 325.47 14.8
10 -12 -2 306.87 14.9
-12 11 -2 64.39 5.3
-11 -1 -2 51.19 4.3
12 -11 -2 51.29 5.1
11 -12 2 57.79 4.9
1 -12 -2 59.19 5.4
12 -1 -2 55.99 4.4
-1 -11 -2 53.29 5
11 -12 -2 48.7 5.1
-11 12 -2 64.99 5.3
-12 1 -2 50.89 4.7
12 -11 2 51.09 4.8
-12 0 -2 40.6 4.5
0 -12 -2 41.7 5
-12 12 -2 35.8 4.9
12 -12 2 33.1 4.5
12 -12 -2 45.1 4.9
-13 7 -2 55.99 5.3
13 -7 -2 52.99 5
7 -13 2 58.39 5.2
6 -13 -2 68.39 5.5
6 -13 2 54.39 5.1
13 -6 -2 54.89 5
7 -13 -2 71.49 5.4
-7 13 -2 60.79 5.1
-13 6 -2 61.89 5.4
8 -13 2 98.19 6.4
5 -13 -2 102.79 6.7
-13 8 -2 99.49 6.7
13 -8 -2 87.49 6.2
-8 13 -2 88.49 6.4
-5 -8 -2 105.29 5
13 -5 -2 95.29 6.3
-13 5 -2 96.69 6.6
13 -8 2 111.29 6.5
4 -13 -2 817.32 34.3
13 -9 -2 771.72 32.3
9 -13 2 757.22 32.3
4 -13 2 833.12 34.1
-4 -9 -2 732.93 33.4
13 -9 2 747.63 32.2
9 -13 -2 727.93 32.3
-13 4 -2 726.93 32.3
-13 10 -2 4.8 2.6
13 -10 -2 2.1 2.7
10 -13 2 5.3 2.7
3 -13 -2 4.8 3
-3 -10 -2 6 2.4
10 -13 -2 1.6 2.8
-10 13 -2 5.4 2.7
13 -10 2 8.7 2.8
-13 3 -2 4.3 2.8
11 -13 2 34.4 4.7
13 -11 -2 31.7 3.7
2 -13 -2 36.1 4.3
13 -11 2 28.2 3.3
-11 13 -2 39.5 4.4
-2 -11 -2 35.8 4.4
-13 2 -2 36.9 4.9
11 -13 -2 34.8 3.9
1 -13 -2 272.37 13.5
-13 12 -2 277.07 13.4
12 -13 2 282.27 13.2
13 -12 -2 270.67 13.2
13 -12 2 274.87 13.2
-12 13 -2 276.77 13.5
0 -13 -2 422.56 19.2
13 -13 2 413.16 18.7
13 -13 -2 414.06 18.8
-14 7 -2 44.1 5.3
7 -14 2 38.6 4.3
14 -7 -2 33.8 3.9
7 -14 -2 39.3 4.3
14 -8 -2 52.09 5.1
6 -14 -2 62.79 5.9
8 -14 2 56.29 5.4
14 -6 -2 53.19 5.3
8 -14 -2 57.79 5.7
6 -14 2 73.69 5.7
14 -9 -2 96.39 6.6
9 -14 2 101.49 6.8
-14 9 -2 106.79 6.9
5 -14 -2 92.29 7
14 -9 2 99.49 6.6
9 -14 -2 101.59 6.8
14 -5 -2 107.19 6.6
5 -14 2 88.89 6.7
-14 10 -2 10 3.3
10 -14 2 14.5 3.4
14 -10 -2 16.6 3.2
4 -14 -2 14.3 3.5
-14 4 -2 9.9 3.3
10 -14 -2 11.4 3.2
4 -14 2 15.1 3.5
14 -10 2 9.3 3.1
-4 -10 -2 9.8 2.2
3 -14 -2 507.75 23.2
-14 11 -2 498.75 23.2
-3 -11 -2 540.15 22.4
14 -11 2 542.35 23.9
2 -14 -2 103.99 7.5
12 -14 2 102.09 7
14 -12 -2 101.89 6.9
-2 -12 -2 108.49 6.9
12 -14 -2 105.69 7.1
1 -14 -2 63.39 6.5
14 -13 -2 62.09 5.8
13 -14 2 63.19 5.8
13 -14 -2 64.19 6
14 -13 2 70.99 5.9
-1 -13 -2 62.59 6.2
0 -14 -2 5.9 4.1
14 -14 -2 3.5 3.4
14 -14 2 4 3.2
8 -15 2 48.4 5.6
7 -15 -2 51.49 5.9
-15 8 -2 48 6.1
15 -8 -2 46.5 5.4
7 -15 2 62.19 5.9
8 -15 -2 55.79 5.7
15 -7 -2 54.99 5.6
-15 7 -2 44.6 6
15 -9 -2 15.2 3.4
-15 9 -2 16.7 3.9
6 -15 -2 12.2 3.7
9 -15 2 12.2 3.5
15 -6 -2 15.5 3.5
9 -15 -2 13.1 3.3
6 -15 2 12.8 3.4
10 -15 2 271.27 13.3
5 -15 -2 282.17 13.7
15 -10 -2 286.97 13.4
15 -10 2 262.87 13.2
10 -15 -2 272.27 13.3
5 -15 2 270.77 13.5
4 -15 -2 228.58 12
11 -15 2 227.28 11.9
15 -11 -2 236.18 11.9
15 -11 2 260.57 12
11 -15 -2 226.58 11.9
3 -15 -2 236.58 12
12 -15 2 207.68 11.3
15 -12 -2 219.38 11.3
12 -15 -2 224.98 11.5
-3 -12 -2 215.68 10.8
15 -12 2 232.58 11.3
15 -13 -2 188.88 10.1
2 -15 -2 184.78 11
13 -15 2 169.98 9.8
13 -15 -2 181.58 10
-2 -13 -2 186.68 10.1
15 -13 2 185.08 9.8
15 -14 -2 206.08 11.1
1 -15 -2 223.38 12.4
-1 -14 -2 214.28 11.9
15 -14 2 211.98 10.9
14 -15 -2 209.48 11.2
15 -15 -2 96.29 7.4
15 -15 2 88.39 7.1
0 -15 -2 101.79 9.2
8 -16 -2 29.5 4.1
8 -16 2 28.1 4.1
16 -8 -2 27.8 4
7 -16 -2 7.6 3.7
16 -9 -2 6.9 3.5
9 -16 2 4.7 3.6
16 -7 -2 0.3 3.3
9 -16 -2 5.5 3.3
7 -16 2 5.2 3.8
16 -10 -2 713.83 30.7
6 -16 -2 713.33 30.7
10 -16 2 696.73 30.7
10 -16 -2 696.83 30.7
6 -16 2 683.03 30.6
16 -11 -2 190.08 10.6
11 -16 2 204.18 10.9
5 -16 -2 206.68 11.5
16 -11 2 210.38 10.9
11 -16 -2 195.68 10.6
16 -12 -2 214.28 11.8
12 -16 2 225.68 11.9
16 -12 2 220.18 11.7
12 -16 -2 244.08 11.8
3 -16 -2 74.19 8.4
13 -16 2 74.69 6.8
16 -13 -2 68.19 6.7
13 -16 -2 56.79 6.7
16 -13 2 77.99 6.8
2 -16 -2 27.1 6
16 -14 -2 32.9 4.6
14 -16 2 24.5 4.2
-2 -14 -2 29.4 5.4
14 -16 -2 34.7 4.6
8 -17 -2 697.53 30.3
9 -17 2 576.04 25.7
8 -17 2 675.33 30.2
17 -10 -2 7.6 3.8
7 -17 -2 2.5 4.3
10 -17 2 2.4 3.6
10 -17 -2 4.8 4.1
17 -7 -2 6.6 4.3
7 -17 2 9.7 4.1
11 -17 2 115.69 8.3
17 -11 -2 109.19 8.1
11 -17 -2 106.49 8.3
17 -12 -2 330.77 16.1
12 -17 2 350.06 16.2
12 -17 -2 320.87 16
13 -17 2 120.89 8.3
4 -17 -2 130.89 10.5
17 -13 -2 96.19 8
17 -13 2 118.09 8.4
13 -17 -2 112.89 8.2
-2 4 -3 5.4 1.4
-4 3 -3 101.69 5.2
-1 4 -3 98.19 5.1
-3 4 -3 98.09 5.2
-4 4 -3 944.21 39.8
-2 5 -3 54.89 3.5
-5 3 -3 53.99 3.7
-3 5 -3 64.59 3.7
-5 2 -3 55.59 3.5
-1 5 -3 2668.93 110.79
-5 4 -3 2932.01 116.49
-4 5 -3 2676.23 116.49
0 5 -3 1367.06 57.09
-5 5 -3 1347.87 56.49
-3 6 -3 1437.86 58.49
-6 3 -3 1357.66 58.49
-6 4 -3 47.6 3.6
-2 6 -3 50.19 3.4
-4 6 -3 57.99 3.6
-6 2 -3 51.69 3.5
-6 5 -3 211.08 10.2
1 5 -3 196.08 8.9
-5 6 -3 232.28 10.2
-6 0 -3 1042.1 42.7
-6 6 -3 1011 42.7
0 6 -3 988.5 42.6
-7 4 -3 59.09 3.7
-4 7 -3 46.8 3.5
-2 7 -3 108.99 5.3
-7 5 -3 89.59 5.1
2 5 -3 94.99 5
-7 2 -3 96.89 5.4
-5 7 -3 88.89 5
-7 6 -3 318.27 14.1
-6 7 -3 310.17 14.1
-7 1 -3 328.57 14.6
-7 0 -3 87.19 5
0 7 -3 91.99 4.8
-7 7 -3 105.59 5.8
3 5 -3 452.55 19.3
-8 6 -3 14.2 2.3
-2 8 -3 8.3 1.7
-8 2 -3 10.3 1.9
2 6 -3 10.3 1.5
-6 8 -3 10.7 2
-7 -1 -3 124.09 6.4
-1 8 -3 126.39 6.5
-8 7 -3 149.39 7.4
-7 8 -3 138.49 7.4
-8 1 -3 122.39 6.5
1 7 -3 137.49 6.3
-8 0 -3 801.92 34
-8 8 -3 869.51 37.1
0 8 -3 797.82 33.9
-9 5 -3 607.94 27.7
5 4 -3 669.83 27
4 5 -3 587.44 24.5
-9 4 -3 575.54 25.1
-5 9 -3 649.43 27.7
-9 6 -3 237.18 11.2
3 6 -3 218.28 9.5
-9 3 -3 205.58 10
-9 7 -3 117.99 6.3
-2 9 -3 106.19 6.1
9 -7 -3 104.69 6.4
2 7 -3 128.79 5.8
-7 9 -3 106.19 6.1
-9 2 -3 109.99 6.1
9 -2 -3 106.59 6
-9 8 -3 428.26 19
-1 9 -3 327.57 15.2
-8 -1 -3 346.77 15.1
1 8 -3 343.37 15
8 -9 -3 344.57 15.5
9 -9 -3 1736.73 69.69
-9 0 -3 1656.43 69.39
-9 9 -3 1709.03 72.59
0 9 -3 1584.74 69.29
9 0 -3 1748.93 72.19
10 -5 -3 210.28 10
-5 10 -3 196.88 9.9
-10 5 -3 206.28 10
-10 6 -3 213.08 10.1
10 -6 -3 226.18 10.8
-6 10 -3 203.18 10
10 -7 -3 526.85 22.7
-3 10 -3 502.65 22.6
-7 -3 -3 526.35 22.3
3 7 -3 516.35 22
-7 10 -3 446.36 19.8
-8 -2 -3 95.69 5.4
8 -10 3 99.79 5.9
-10 8 -3 105.09 6.3
-2 10 -3 92.19 5.6
10 -8 -3 99.09 6
8 2 -3 112.99 5.4
10 -2 -3 103.09 6.1
-10 2 -3 86.79 5.6
-8 10 -3 99.49 6.1
-10 9 -3 123.89 7.2
-1 10 -3 105.29 6.5
9 -10 3 131.39 6.9
10 -9 -3 124.39 7
-9 -1 -3 132.59 6.5
9 1 -3 132.09 6.6
1 9 -3 119.69 6.4
-10 1 -3 105.69 6.4
-9 10 -3 143.89 7.3
9 -10 -3 117.49 6.9
10 -1 -3 124.19 7
10 -10 3 185.08 9
-10 10 -3 176.78 9.4
-10 0 -3 168.08 8.6
10 0 -3 190.78 9
0 10 -3 165.28 8.7
10 -10 -3 178.98 9.1
-5 11 -3 9.4 2.3
11 -6 -3 9.1 2.6
5 -11 -3 9.8 2.4
-11 6 -3 10.6 2.4
6 -11 -3 14.3 2.7
-11 5 -3 13.1 2.7
-6 11 -3 8.1 2.4
11 -5 -3 5.6 2.4
11 -7 -3 64.29 5.2
-11 7 -3 62.99 4.9
7 -11 3 70.09 5.1
-4 11 -3 56.09 4.8
4 -11 -3 52.79 4.9
-7 -4 -3 76.49 4.5
7 -11 -3 69.99 5.2
11 -4 -3 57.39 4.9
-11 4 -3 65.49 4.9
-7 11 -3 72.09 4.8
8 -11 3 30.2 4
11 -8 -3 33 4.2
3 -11 -3 23.1 3.1
-8 -3 -3 27.9 3.4
-11 8 -3 30.8 3.9
-3 11 -3 28.6 3.8
11 -3 -3 31.4 3.4
-11 3 -3 27.6 3.2
-8 11 -3 34.9 4.1
8 -11 -3 27.5 3.2
2 -11 -3 13.6 2.9
-2 11 -3 14.3 2.8
9 -11 3 18.5 2.8
-9 -2 -3 17.6 2.5
-11 9 -3 20.7 3.1
11 -9 -3 20.4 3.1
11 -2 -3 20.7 2.9
-11 2 -3 18.8 2.8
-9 11 -3 23.9 3.2
2 9 -3 19.4 2.5
9 -11 -3 15.6 3.1
11 -10 -3 214.28 11
-10 -1 -3 232.18 10.6
10 -11 3 233.68 10.9
1 10 -3 211.48 10.5
-11 1 -3 212.78 10.7
-10 11 -3 221.98 11
10 -11 -3 228.98 11.2
-11 11 -3 31.4 3.9
0 -11 -3 25.6 3.5
11 -11 3 22.2 3.1
11 -11 -3 25.2 3.6
-11 0 -3 23.4 3.2
11 0 -3 24.4 3.1
-6 12 -3 249.68 11.8
-12 6 -3 240.68 11.7
6 -12 -3 232.18 11.8
-12 7 -3 16.3 2.9
-7 -5 -3 13.9 2.4
5 -12 -3 10 2.8
-5 12 -3 13.2 2.7
12 -7 -3 15.7 2.8
-7 12 -3 15.6 2.7
-12 5 -3 11.5 2.8
7 -12 -3 14.4 3.1
12 -5 -3 13.2 2.8
-4 12 -3 262.57 13.4
-8 -4 -3 278.67 12.9
-12 8 -3 297.67 14.2
4 -12 -3 307.17 14.2
12 -8 -3 305.67 13.6
8 -12 3 299.37 13.4
-12 4 -3 278.37 13.5
8 -12 -3 288.17 13.6
-3 12 -3 175.48 9
-9 -3 -3 178.48 8.5
3 -12 -3 171.68 8.9
9 -12 3 153.78 8.8
12 -9 -3 182.98 9.1
12 -3 -3 159.38 8.6
9 -12 -3 160.68 9.2
-9 12 -3 151.08 8.6
-2 12 -3 52.79 5.1
10 -12 3 57.29 5.1
-12 10 -3 59.49 5.2
-10 -2 -3 59.19 4.7
2 -12 -3 59.39 5.5
12 -10 -3 62.69 5.2
10 -12 -3 57.59 5.2
-12 2 -3 57.09 5.2
-2 -10 -3 53.49 5.2
-10 12 -3 54.49 5
-11 -1 -3 54.09 4.8
12 -11 -3 52.39 5.1
1 -12 -3 50.29 5.8
-12 11 -3 64.69 5.4
11 -12 3 53.69 5
-11 12 -3 52.99 5.2
-1 -11 -3 69.29 5.7
-12 1 -3 52.09 5.1
11 -12 -3 54.49 5.1
-12 12 -3 521.65 23.7
0 -12 -3 543.95 23.9
12 -12 3 529.45 23.5
12 -12 -3 536.55 23.7
-12 0 -3 534.65 23.5
13 -7 -3 69.19 5.6
-6 13 -3 59.49 5.3
6 -13 -3 62.99 5.7
-7 -6 -3 60.79 4.5
13 -6 -3 56.39 5.5
7 -13 -3 65.29 5.9
-13 6 -3 63.09 5.5
-7 13 -3 59.39 5.2
-13 8 -3 1176.78 51.29
-5 13 -3 1258.57 53.09
8 -13 3 1257.27 52.99
5 -13 -3 1243.58 51.39
13 -5 -3 1198.98 51.29
-13 5 -3 1239.28 53.09
-8 13 -3 1210.48 51.29
-13 9 -3 621.14 26.7
-4 13 -3 562.34 25.8
-9 -4 -3 585.84 25.2
9 -13 3 601.34 25.8
4 -13 -3 591.34 26.7
-13 4 -3 617.14 26
-9 13 -3 602.34 26.6
9 -13 -3 575.84 25.9
-13 10 -3 153.78 8.6
3 -13 -3 146.99 9
10 -13 3 148.99 8.7
13 -10 -3 176.88 9
-10 -3 -3 164.48 8.2
10 -13 -3 167.48 8.9
-3 -10 -3 166.78 8.6
-13 3 -3 146.89 8.9
-10 13 -3 146.59 8.5
-11 -2 -3 45.3 4.7
2 -13 -3 43.3 6
13 -11 -3 39.9 5.1
-13 11 -3 45.1 5.2
11 -13 3 42.6 5
-11 13 -3 38.8 4.9
-2 -11 -3 43.3 5.6
-13 2 -3 47.9 5.4
11 -13 -3 44.3 5
1 -13 -3 99.39 7.9
-13 12 -3 98.59 7
-12 -1 -3 92.79 6.7
13 -12 -3 93.69 6.7
12 -13 3 102.19 6.9
-1 -12 -3 96.49 7.7
12 -13 -3 101.59 6.8
-12 13 -3 116.49 7.1
-13 1 -3 96.79 7.1
13 -13 -3 721.03 31
-13 0 -3 703.13 31
-13 13 -3 772.12 34.5
0 -13 -3 828.42 34.9
-14 7 -3 259.07 13.2
14 -7 -3 252.17 13
7 -14 -3 288.07 13.3
14 -8 -3 41.5 5.3
6 -14 -3 43.8 4.8
-6 14 -3 38.2 5
-14 8 -3 40.2 5.2
-8 -6 -3 40.7 3.7
-14 6 -3 42.5 5.6
8 -14 -3 49.3 5.4
-8 14 -3 56.29 5.2
14 -6 -3 42 5.3
-9 -5 -3 215.88 9.7
-5 14 -3 201.58 11
5 -14 -3 196.98 11.3
9 -14 3 211.18 10.8
14 -9 -3 218.28 11
-14 9 -3 225.88 11.3
-14 5 -3 200.38 11.1
9 -14 -3 209.68 10.9
14 -5 -3 216.08 11.1
-5 -9 -3 211.18 10.6
-9 14 -3 232.98 11.1
10 -14 3 0.1 2.9
14 -10 -3 2.1 3.1
-14 10 -3 3.4 2.9
4 -14 -3 2.2 3.5
-10 -4 -3 1.4 2.4
10 -14 -3 4 3.2
-10 14 -3 2.9 2.7
-14 4 -3 4.8 3.4
-4 -10 -3 2.2 3.2
3 -14 -3 12.4 3.9
-11 -3 -3 15.6 3.1
-14 11 -3 22.8 3.9
14 -11 -3 17.9 3.7
11 -14 3 19.4 3.8
-3 -11 -3 18.9 3.9
-14 3 -3 16 3.8
11 -14 -3 17.4 3.6
-11 14 -3 16.1 3.1
2 -14 -3 3.8 4
12 -14 3 0.2 3.2
-14 12 -3 2.2 3.1
-12 -2 -3 5.8 3.3
14 -12 -3 5.1 3.3
-14 2 -3 0.6 3.5
12 -14 -3 3.3 3.2
-2 -12 -3 4.5 3.8
-12 14 -3 0.8 2.6
1 -14 -3 95.49 8.5
-13 -1 -3 109.69 7.5
14 -13 -3 98.49 7.3
-14 13 -3 114.39 7.5
-13 14 -3 98.69 7.3
-1 -13 -3 99.99 8.3
13 -14 -3 105.89 7.3
-14 1 -3 82.89 7.7
14 -14 -3 62.99 6.4
0 -14 -3 58.69 7.8
-15 8 -3 127.69 8.3
15 -8 -3 119.69 8.1
7 -15 -3 123.29 8.3
15 -7 -3 129.69 8.1
8 -15 -3 145.69 8.5
-15 7 -3 130.99 8.6
-8 15 -3 122.79 8.1
6 -15 -3 137.49 8.7
-15 9 -3 133.29 8.4
15 -9 -3 136.49 8.7
-15 6 -3 142.79 9.2
9 -15 -3 167.08 9.1
-9 15 -3 126.29 8.2
15 -10 -3 75.39 6.4
5 -15 -3 84.69 7.2
-10 15 -3 70.09 6.2
10 -15 -3 75.09 6.7
-5 -10 -3 64.99 5.6
-15 5 -3 70.39 7
-15 11 -3 45 5.9
4 -15 -3 47.3 5.5
15 -11 -3 45.1 4.9
-15 4 -3 51.49 6.7
-11 15 -3 45 5.6
-4 -11 -3 44.6 5.7
11 -15 -3 42.9 6
-15 12 -3 50.09 5.9
15 -12 -3 51.59 6.1
3 -15 -3 52.49 7.2
12 -15 -3 46.9 6.2
-3 -12 -3 39.1 5.1
-12 15 -3 49.4 5.9
-15 3 -3 53.09 5.8
2 -15 -3 26.5 5.2
-15 13 -3 22.8 4.3
15 -13 -3 17.8 3.9
15 -2 -3 17.4 4.2
-2 -13 -3 17.3 4.7
-13 15 -3 24.1 4.3
-15 2 -3 25.1 5
13 -15 -3 26 4.2
15 -14 -3 16 4.1
1 -15 -3 10 5.3
-1 -14 -3 13.1 5.1
14 -15 -3 16.3 4.1
15 -15 -3 53.79 6.4
0 -15 -3 49.8 6.8
16 -8 -3 496.55 22.6
7 -16 -3 8.2 4
-16 9 -3 10.8 4.3
16 -9 -3 4 3.9
9 -16 -3 9 3.9
-16 7 -3 4.4 4.2
16 -7 -3 2.1 3.7
-16 10 -3 116.49 8.6
6 -16 -3 132.59 9
16 -10 -3 127.99 8.5
10 -16 -3 123.49 8.6
-16 6 -3 138.19 9.4
-16 11 -3 18.1 4.4
16 -11 -3 15.5 3.9
5 -16 -3 18.3 4.6
-16 5 -3 15.9 4.9
11 -16 -3 16 4
4 -16 -3 48.3 5.8
16 -12 -3 58.89 6.6
-16 12 -3 50.89 6.5
-4 -12 -3 38.9 4.8
12 -16 -3 50.39 6.6
-16 4 -3 55.09 6.4
16 -13 -3 22.8 4.4
3 -16 -3 18.8 5.4
-3 -13 -3 17.7 5.2
16 -3 -3 15.6 5.1
-17 9 -3 252.27 14.6
17 -9 -3 253.07 13.8
8 -17 -3 297.57 14.4
-17 8 -3 249.78 14.5
9 -17 -3 292.97 13.9
-17 10 -3 8.8 4.6
7 -17 -3 7.6 4.6
17 -10 -3 10.1 4.2
17 -7 -3 0.9 4.3
10 -17 -3 7 4.1
6 -17 -3 8.9 4.8
17 -11 -3 14 4.4
17 -6 -3 -8.1 4.8
11 -17 -3 6.9 4.2
-3 4 -4 109.99 5.9
-4 4 -4 2151.48 89.69
-5 3 -4 21.5 2.8
-2 5 -4 20.5 2.6
-3 5 -4 17.1 2.1
-5 4 -4 1243.08 53.19
-1 5 -4 1324.17 55.49
-4 5 -4 1286.07 53.19
-5 5 -4 81.69 4.9
0 5 -4 104.49 5.5
-3 6 -4 25.6 3
-6 3 -4 23.4 3
-2 6 -4 19.9 2.3
-6 4 -4 20.1 2.3
-4 6 -4 25.2 2.9
-6 2 -4 26.8 2.9
-1 6 -4 11.9 2
-6 5 -4 11.3 2.1
-5 6 -4 9.5 2
1 5 -4 14.8 2.1
-6 6 -4 629.84 27.1
0 6 -4 600.24 25.7
-3 7 -4 127.69 6.9
-7 4 -4 171.78 8.2
-4 7 -4 155.88 8
-7 3 -4 143.99 7.1
-2 7 -4 231.48 11.5
-7 5 -4 253.67 12.3
-5 7 -4 282.07 12.3
-7 2 -4 249.88 11.6
2 5 -4 271.17 11.4
-7 6 -4 33.5 3.4
-1 7 -4 24.7 3
1 6 -4 25.1 2.9
-6 7 -4 34.9 3.4
-7 1 -4 31.6 3.2
0 7 -4 59.39 4.1
-7 7 -4 66.89 4.5
-7 0 -4 70.09 4.4
-4 8 -4 4562.54 180.78
-8 4 -4 4151.38 180.68
-3 8 -4 348.27 15.7
-8 5 -4 478.15 21.5
-5 8 -4 509.25 21.6
3 5 -4 359.06 15.5
-8 6 -4 234.18 10.9
-2 8 -4 222.18 10.8
-8 2 -4 247.08 11
-6 8 -4 229.38 10.9
2 6 -4 232.98 10.7
-1 8 -4 312.67 13.4
-8 7 -4 297.57 13.7
-8 1 -4 278.97 13.4
-7 8 -4 303.07 13.8
-8 8 -4 1387.36 58.39
-8 0 -4 1115.69 47.1
0 8 -4 1112.49 46.9
-9 5 -4 416.16 19.3
-4 9 -4 440.26 19.4
-5 9 -4 458.65 19.3
-9 6 -4 253.27 12.1
-3 9 -4 235.08 11
3 6 -4 234.98 10.7
-6 9 -4 266.67 12.2
-2 9 -4 124.89 6.6
2 7 -4 123.79 6.2
-9 2 -4 115.89 6.6
-8 -1 -4 216.38 10.4
-1 9 -4 217.18 10.3
1 8 -4 225.48 10.2
-9 1 -4 212.98 10.5
-9 0 -4 1855.31 76.19
-9 9 -4 2157.68 90.29
0 9 -4 1783.12 76.09
-5 10 -4 116.29 6.8
-10 5 -4 121.59 6.8
5 5 -4 129.49 6.2
-10 6 -4 147.79 7.7
4 6 -4 166.98 7.9
-6 10 -4 137.89 7.5
-10 7 -4 14.9 2.8
-3 10 -4 8.1 2.2
-7 10 -4 9.7 2.5
3 7 -4 8.3 1.9
-10 3 -4 5.7 2.2
10 -8 -4 164.78 8.7
-10 8 -4 190.88 9.5
-8 -2 -4 157.68 8.3
2 8 -4 166.68 8
-10 2 -4 165.68 8.4
-8 10 -4 179.48 9.3
-9 -1 -4 42 4.3
-10 9 -4 48 4.5
-1 10 -4 45.4 4.3
10 -9 -4 41.2 4.6
-10 1 -4 44.5 4.3
-9 10 -4 48.6 4.4
9 -10 -4 43 4.6
10 -1 -4 41.6 4.5
1 9 -4 43.7 4
-10 10 -4 115.09 6.9
-10 0 -4 109.89 6.5
0 10 -4 109.69 6.5
-5 11 -4 1.5 2.1
6 5 -4 1.7 1.5
11 -6 -4 2.6 2.4
-11 6 -4 2 2.4
-11 5 -4 1.6 2.2
11 -5 -4 2.9 2.5
-6 11 -4 3.4 2.4
-11 7 -4 12.5 2.6
11 -7 -4 13.9 2.8
-4 11 -4 11.9 2.8
4 7 -4 14.3 2.1
-11 4 -4 15.1 2.7
11 -4 -4 15.1 3.1
-7 11 -4 9.6 2.4
-8 -3 -4 33.8 4
-3 11 -4 34 4.1
-11 8 -4 37.5 4.2
-11 3 -4 36.6 4.1
11 -3 -4 35.8 4.5
3 8 -4 34.3 3.6
-8 11 -4 33.1 4.3
8 -11 -4 36 4.4
-2 11 -4 16.7 2.9
11 -9 -4 16 2.9
-9 -2 -4 17.8 3
9 2 -4 20.4 2.7
-11 9 -4 14.5 2.6
-11 2 -4 15.7 3
11 -2 -4 18.7 3.2
-9 11 -4 15.1 3.1
9 -11 -4 18.1 3
2 9 -4 22.7 2.9
11 -10 -4 66.59 5.7
-10 -1 -4 74.29 5.5
-1 11 -4 85.29 5.7
-11 10 -4 75.59 5.5
-10 11 -4 67.79 5.4
1 10 -4 75.49 5.5
10 -11 -4 85.39 5.8
-11 1 -4 73.49 5.6
11 -11 -4 38.9 4.9
0 11 -4 44.5 4.9
-11 11 -4 49.4 4.9
-11 0 -4 42.5 4.7
-12 6 -4 71.49 5.5
6 -12 -4 69.59 5.7
-6 12 -4 75.29 5.5
12 -6 -4 66.79 5.8
5 -12 -4 33.5 4.6
12 -7 -4 34.6 4.8
-5 12 -4 36.8 4.4
-12 5 -4 33.5 4.5
7 -12 -4 36.2 4.5
-7 12 -4 35.8 4.3
12 -5 -4 39.2 5
-12 8 -4 281.47 13.2
-4 12 -4 253.77 12.6
12 -8 -4 270.47 12.8
-8 -4 -4 258.47 12.4
12 -4 -4 269.87 13.3
-12 4 -4 270.97 12.7
4 8 -4 263.27 11.9
-8 12 -4 276.07 13.2
-9 -3 -4 145.19 7.9
-12 9 -4 160.18 8.3
-3 12 -4 132.09 8
12 -9 -4 139.99 8.2
12 -3 -4 134.89 8.4
-12 3 -4 138.09 8
3 9 -4 150.58 7.6
-9 12 -4 146.59 8.2
-12 10 -4 8.6 3.1
-10 -2 -4 6.4 2.8
-2 12 -4 6.3 2.9
12 -10 -4 6.2 3.1
-12 2 -4 3.1 2.9
-10 12 -4 8.8 3
2 10 -4 5.7 2.7
10 -12 -4 7 3.1
-1 12 -4 6.7 3.1
-12 11 -4 6.3 3
1 -12 -4 5.7 3.2
-11 -1 -4 5.3 2.9
12 -11 -4 8.7 3.3
-11 12 -4 5.3 3
1 11 -4 5.6 3.1
11 -12 -4 6.4 3.2
-12 1 -4 6.2 3
-12 12 -4 651.73 27.4
-12 0 -4 643.74 27.4
0 -12 -4 587.44 27.4
0 12 -4 609.44 27.4
12 -12 -4 618.04 27.4
6 -13 -4 36.2 5
-13 7 -4 25.5 3.5
-6 13 -4 25.7 3.6
13 -7 -4 38 4.3
13 -6 -4 32.8 4.1
7 -13 -4 33.6 4.1
-13 6 -4 27 3.5
-7 13 -4 35 4.1
-8 -5 -4 622.44 26.9
13 -8 -4 626.44 27.3
-13 8 -4 624.34 28.8
-5 13 -4 598.94 27.2
13 -5 -4 700.33 29.1
8 -13 -4 605.64 27.2
-13 5 -4 646.84 27.3
-4 13 -4 348.07 15.9
13 -9 -4 336.97 15.8
-9 -4 -4 323.27 15.5
9 -13 -4 343.97 15.9
-13 4 -4 332.77 15.8
13 -4 -4 369.26 17.3
-3 13 -4 53.49 5.7
3 -13 -4 69.09 6.2
13 -10 -4 51.99 5.4
-10 -3 -4 51.49 5.3
-13 10 -4 52.89 5.4
-13 3 -4 58.39 5.7
-10 13 -4 54.69 5.4
10 -13 -4 55.59 5.7
-13 11 -4 25.8 3.8
2 -13 -4 34.8 4.4
-2 13 -4 31.2 4.1
-11 -2 -4 27.9 4
13 -11 -4 22.1 3.4
11 -13 -4 29.3 4.1
-11 13 -4 22.7 3.6
-13 2 -4 29 4.2
-13 12 -4 24.6 4.1
13 -12 -4 14.8 3.2
-12 -1 -4 19 3.9
1 -13 -4 21.1 4.5
-1 -12 -4 25.3 4.8
12 -13 -4 14.1 3.2
-13 1 -4 18.4 3.8
-12 13 -4 16.4 3.4
13 -13 -4 392.76 17.6
-13 0 -4 360.26 17.7
0 -13 -4 440.16 20.1
-13 13 -4 409.26 19.4
-14 7 -4 17.7 3.7
-7 14 -4 17.9 3.7
7 -14 -4 17 3.7
14 -7 -4 20.5 3.8
-7 -7 -4 16.5 3.8
-6 14 -4 51.99 5.8
-14 8 -4 55.09 5.8
6 -14 -4 52.29 6.2
-8 -6 -4 46.7 5.6
14 -8 -4 56.49 5.9
-14 6 -4 65.99 6
-8 14 -4 54.99 5.6
8 -14 -4 57.09 6.1
14 -6 -4 65.79 6.4
14 -9 -4 41.5 4.6
-5 14 -4 31 4.2
-14 9 -4 42.6 5.5
-9 -5 -4 40.8 4.3
5 -14 -4 40.6 4.8
-14 5 -4 50.09 5.7
9 -14 -4 36.6 4.6
-9 14 -4 38.1 5.3
-10 -4 -4 10.8 3.5
14 -10 -4 7.2 3.2
-4 14 -4 7.7 3.5
-14 10 -4 7.5 3.3
4 -14 -4 7.9 3.7
-14 4 -4 11.3 3.8
10 -14 -4 8.1 3.2
-10 14 -4 8.6 3.2
-14 11 -4 1.7 3.4
-11 -3 -4 2 3.6
-3 14 -4 1.6 3.5
14 -11 -4 1.7 3.2
3 -14 -4 1.6 3.9
-14 3 -4 1.6 3.6
-3 -11 -4 0.9 4.2
-11 14 -4 0.1 3.1
11 -14 -4 3.2 2.9
2 -14 -4 25.5 4.9
14 -12 -4 26.1 4.1
-12 -2 -4 17.1 4.1
-14 12 -4 16.6 3.8
-2 -12 -4 30.2 5
-12 14 -4 17 3.5
12 -14 -4 26.7 4.2
-14 2 -4 21.9 4.4
1 -14 -4 12.2 5
-13 -1 -4 14.5 4.7
14 -13 -4 11.2 4
-14 13 -4 18.1 4.2
-13 14 -4 9.7 3.3
-14 1 -4 16.3 4.9
13 -14 -4 13.8 4
14 -1 -4 6.6 3.9
-1 -13 -4 9.6 5.3
14 -14 -4 59.29 6.7
-14 14 -4 65.69 6.5
0 -14 -4 56.09 7
-14 0 -4 71.29 8.4
-8 -7 -4 12.6 3.8
7 -15 -4 11.5 3.8
15 -8 -4 13.4 3.9
-7 15 -4 13.2 3.7
-15 8 -4 10.9 3.9
15 -7 -4 14.2 4.1
-7 -8 -4 9.3 3.9
-8 15 -4 8.6 3.3
-15 7 -4 11.8 4
8 -15 -4 14.8 3.9
-15 9 -4 134.39 9
15 -9 -4 123.29 8.7
6 -15 -4 130.49 9.2
-9 -6 -4 147.09 8.3
-6 15 -4 154.38 8.8
-9 15 -4 155.38 8.7
9 -15 -4 118.99 8.4
-15 6 -4 129.79 9
-10 -5 -4 74.09 6.7
-5 15 -4 83.69 7.3
15 -10 -4 80.79 7.2
-15 10 -4 81.29 7.1
5 -15 -4 83.49 7.7
-5 -10 -4 70.99 7.9
10 -15 -4 90.39 7
-15 5 -4 71.99 7.5
-10 15 -4 83.59 6.8
-15 11 -4 0.3 3.7
4 -15 -4 8.4 4.4
15 -11 -4 1.9 3.5
-11 -4 -4 1.6 3.7
11 -15 -4 2.9 3.6
-4 -11 -4 6.7 4.9
-11 15 -4 0.6 3.5
-15 4 -4 4.6 4.3
-12 -3 -4 4.1 4.5
-15 12 -4 3.6 4
15 -12 -4 4.2 3.9
3 -15 -4 6.6 4.8
-12 15 -4 0.5 3.6
15 -3 -4 1.6 4.3
12 -15 -4 2.1 3.8
-15 3 -4 2 4.7
-3 -12 -4 1.8 5.4
-15 13 -4 3.4 3.6
2 -15 -4 2.8 5.3
-13 -2 -4 5 5.1
15 -13 -4 5.8 3.9
15 -2 -4 -4.8 4.7
-2 -13 -4 0.5 6
-13 15 -4 0.1 3.1
-15 2 -4 5.6 5.2
13 -15 -4 7.3 3.9
16 -8 -4 645.14 27.7
-8 16 -4 592.24 27.6
8 -16 -4 591.74 27.5
-16 8 -4 651.03 27.8
16 -9 -4 -0.9 4.1
-16 9 -4 -0.4 3.8
-7 16 -4 2.5 3.9
7 -16 -4 4.2 4.2
-16 7 -4 1.2 4.2
-9 16 -4 3.7 3.8
-7 -9 -4 -2.6 4.2
16 -7 -4 3.6 4.1
9 -16 -4 5 3.9
16 -10 -4 9.3 4.1
6 -16 -4 9.3 4.6
-16 10 -4 9.9 4.3
-10 16 -4 10.1 3.8
16 -6 -4 -2.2 4.4
-6 -10 -4 13 5.1
10 -16 -4 9 4
-16 6 -4 14.4 4.7
-6 -10 -4 5 5.1
-16 11 -4 4.8 4.2
16 -11 -4 -0.6 4.2
5 -16 -4 0.8 4.7
16 -5 -4 4.4 4.6
11 -16 -4 -3.9 3.9
-5 -11 -4 -6.8 5.3
-11 16 -4 4.2 3.8
-16 5 -4 4.4 4.8
-16 12 -4 96.99 8.6
16 -12 -4 108.69 8.4
4 -16 -4 93.39 9.3
-16 4 -4 118.09 9.7
12 -16 -4 88.29 7.9
-4 -12 -4 78.29 10.2
16 -4 -4 91.89 9.2
-4 4 -5 5192.78 215.28
-2 5 -5 981.6 41.6
-3 5 -5 1144.89 48.3
-5 4 -5 326.97 15.6
-4 5 -5 370.06 15.7
-5 5 -5 1330.27 56.09
-3 6 -5 1709.33 75.79
-6 3 -5 1913.01 75.89
-6 4 -5 853.11 36.9
-2 6 -5 824.72 35.2
-4 6 -5 877.21 36.9
-1 6 -5 258.27 11.9
-6 5 -5 255.57 12
-5 6 -5 254.77 12
-6 6 -5 168.08 8.6
0 6 -5 171.78 8.5
-7 4 -5 83.29 5.4
-4 7 -5 80.39 5.2
-2 7 -5 88.39 5.4
-7 5 -5 89.59 5.4
-5 7 -5 72.39 5.2
-7 2 -5 82.99 5.3
-1 7 -5 1081.39 45.7
-7 6 -5 1107.79 46.7
-6 7 -5 1093.99 46.7
0 7 -5 24 2.8
-7 7 -5 32.9 3.8
-8 4 -5 642.74 27.2
-4 8 -5 610.04 27.1
-8 5 -5 179.48 9.4
-3 8 -5 190.78 9.3
-8 3 -5 187.28 9.4
-5 8 -5 198.08 9.4
-8 6 -5 1078.39 43.5
-8 2 -5 919.71 39.2
-6 8 -5 968.9 43.4
-8 7 -5 4.6 2.3
-1 8 -5 3.8 1.9
1 7 -5 4.4 2.1
-8 1 -5 7.3 2.4
-7 8 -5 3 1.9
-8 8 -5 2614.34 109.09
0 8 -5 1863.41 82.19
-8 0 -5 2071.09 82.29
-9 5 -5 898.61 40.3
-4 9 -5 824.52 33.8
-5 9 -5 996.1 40.4
-9 4 -5 752.22 33.8
-9 6 -5 50.89 4.5
-3 9 -5 56.29 4.4
-6 9 -5 55.39 4.5
3 6 -5 50.59 4.1
-9 3 -5 51.79 4.6
-9 7 -5 520.45 22.3
-7 9 -5 489.75 22.2
-1 9 -5 350.26 15.9
-9 8 -5 385.66 17.5
-8 -1 -5 339.37 15.9
1 8 -5 352.76 15.8
-9 1 -5 367.16 16.1
-8 9 -5 392.06 17.6
-9 9 -5 36.8 4.4
-9 0 -5 28.7 3.3
0 9 -5 37.3 3.8
-5 10 -5 0 2.1
-10 5 -5 2.7 2.3
5 5 -5 -0.4 2
-10 6 -5 97.59 6.1
-4 10 -5 90.29 5.8
-10 4 -5 87.59 5.8
4 6 -5 87.39 5.4
-6 10 -5 95.19 6.1
-10 7 -5 709.13 31
-3 10 -5 685.93 29.6
-7 10 -5 724.73 31
-2 10 -5 25.4 3.1
-8 -2 -5 23 3.1
-10 8 -5 27.2 3.5
-10 2 -5 22.1 3.3
2 8 -5 31 3.2
-8 10 -5 34.5 4.2
-9 -1 -5 5.5 2.7
-1 10 -5 6.4 2.5
-10 9 -5 13.3 2.9
-9 10 -5 7.7 2.6
1 9 -5 8.2 2.4
-10 1 -5 8 2.6
-10 10 -5 5.8 2.4
-10 0 -5 9.3 2.8
0 10 -5 7.6 2.7
-5 11 -5 661.93 29.2
6 5 -5 661.03 28.6
-11 6 -5 678.33 29.1
-11 5 -5 698.93 29.2
5 6 -5 658.83 28.8
-6 11 -5 671.23 29.1
-4 11 -5 16.7 2.9
-11 7 -5 19.6 3.3
-7 11 -5 15.3 2.7
4 7 -5 24.1 2.9
-11 4 -5 22 3.3
-8 -3 -5 87.19 5.9
-3 11 -5 86.79 5.8
-11 3 -5 76.69 5.8
3 8 -5 81.59 5.4
-8 11 -5 80.89 5.7
-9 -2 -5 465.05 20.5
-11 9 -5 462.35 21.8
11 -9 -5 432.56 20.5
-11 2 -5 491.25 20.5
2 9 -5 439.36 20.2
-9 11 -5 516.85 21.8
-1 11 -5 85.39 6.1
-11 10 -5 97.69 6.4
-10 -1 -5 81.29 6.1
11 -10 -5 76.09 6
10 -11 -5 75.69 6
1 10 -5 78.39 6
-10 11 -5 86.69 6.3
-11 11 -5 37.2 4.9
0 11 -5 36.3 4.2
11 -11 -5 38.5 5.3
-11 0 -5 38.6 4.2
6 6 -5 410.46 17.9
-12 7 -5 32.5 3.7
7 5 -5 30.9 3.9
12 -7 -5 37.3 4.4
-5 12 -5 37.2 4.2
12 -5 -5 31 4.1
-7 12 -5 25.4 3.3
-12 5 -5 34.8 4.7
5 7 -5 31 3.9
-4 12 -5 806.72 34.7
12 -8 -5 814.42 34.8
-8 -4 -5 833.12 34.6
8 4 -5 951.3 38.8
4 8 -5 788.72 34.3
-12 4 -5 775.82 34.6
-8 12 -5 882.11 39.3
-9 -3 -5 1.5 3.1
12 -9 -5 0.8 3.2
-3 12 -5 4.4 2.9
-9 12 -5 1.8 2.7
-12 3 -5 1.6 2.7
3 9 -5 2.3 2.9
9 -12 -5 1.7 3
12 -10 -5 575.54 25.1
-12 10 -5 588.54 25.5
-10 -2 -5 529.95 24.9
-2 12 -5 554.74 25.1
-10 12 -5 565.84 25.4
10 -12 -5 604.94 25.1
12 -11 -5 49.4 5.7
-11 -1 -5 51.99 5.8
-12 11 -5 51.89 5.4
-1 12 -5 53.89 6
11 -12 -5 64.59 5.9
1 11 -5 55.19 6
-11 12 -5 43.4 5.3
-12 1 -5 45.2 5.6
-12 12 -5 43.3 4.8
0 12 -5 33.6 4.8
12 -12 -5 44.7 4.8
-12 0 -5 31.7 4.3
-6 13 -5 71.79 5.9
6 -13 -5 67.09 6
13 -7 -5 65.69 6.4
-13 7 -5 68.19 5.9
13 -6 -5 63.19 6.5
-7 13 -5 80.89 6
7 -13 -5 60.99 5.9
-13 6 -5 65.69 6
-8 -5 -5 113.39 7.4
13 -8 -5 101.89 7.5
-13 8 -5 127.49 7.7
-5 13 -5 102.49 7
8 -13 -5 100.29 7
13 -5 -5 103.29 8.1
-13 5 -5 103.09 7.2
5 8 -5 100.79 6.4
-8 13 -5 129.59 7.6
-13 9 -5 939.91 42.4
-4 13 -5 925.41 38.7
-9 -4 -5 928.61 38.7
13 -9 -5 898.71 38.7
-9 13 -5 1043.2 42.5
4 9 -5 844.12 38.2
-13 4 -5 896.51 38.7
13 -10 -5 3.4 3.3
-10 -3 -5 6.6 3.6
-13 10 -5 4.2 3.2
-3 13 -5 3.2 3.2
-13 3 -5 7.2 3.6
10 -13 -5 3.7 3.4
-10 13 -5 3.7 3.1
3 10 -5 7.6 3.6
-11 -2 -5 89.09 7.6
13 -11 -5 100.09 7.6
-2 13 -5 99.99 7.7
-13 2 -5 108.29 7.7
-11 13 -5 107.79 7.3
11 -13 -5 98.49 7.2
2 11 -5 101.39 7.8
12 1 -5 207.18 10.9
-1 13 -5 185.18 11.1
1 -13 -5 186.18 11.4
13 -12 -5 196.48 10.7
-13 12 -5 194.98 10.8
-12 -1 -5 187.08 10.9
12 -13 -5 198.98 10.7
-12 13 -5 221.18 10.9
1 12 -5 178.78 11.1
-13 1 -5 205.08 11.1
0 -13 -5 862.31 38.6
13 0 -5 878.31 38
-13 0 -5 828.52 36.3
-13 13 -5 902.81 38.2
0 13 -5 830.72 36.4
-7 14 -5 116.59 7.9
-14 7 -5 108.09 7.7
7 -14 -5 130.99 8.1
14 -7 -5 123.19 8.6
6 -14 -5 90.09 7
14 -8 -5 80.69 7.4
-8 -6 -5 85.39 7.4
-6 14 -5 78.79 6.7
-14 8 -5 71.29 6.5
-14 6 -5 76.29 6.7
-8 14 -5 83.29 6.7
14 -6 -5 82.09 7.4
8 -14 -5 73.39 6.6
14 -9 -5 80.29 7.2
-9 -5 -5 77.39 7.4
5 -14 -5 77.69 6.8
-5 14 -5 78.79 6.9
-14 9 -5 76.29 6.5
-9 14 -5 76.19 6.6
-14 5 -5 75.19 6.8
9 -14 -5 68.99 6.7
-10 -4 -5 -0.7 4.1
-14 10 -5 4 3.4
4 -14 -5 1.4 3.8
-4 14 -5 3.3 3.7
14 -10 -5 3.6 3.7
-14 4 -5 7.1 3.8
-10 14 -5 0.3 3
10 -14 -5 5.2 3.7
-11 -3 -5 300.47 15.6
-3 14 -5 320.67 15.7
14 -11 -5 295.17 15.3
-14 11 -5 309.37 15.1
11 -14 -5 332.17 15.4
-14 3 -5 329.37 15.6
-11 14 -5 313.67 15.2
-14 12 -5 170.08 9.8
14 -12 -5 156.88 9.7
2 -14 -5 175.88 10.6
-12 -2 -5 179.38 10.7
-2 14 -5 169.58 10.6
12 -14 -5 153.68 9.8
-14 2 -5 156.08 10.3
-12 14 -5 151.08 9.7
14 -2 -5 160.48 11.1
-13 -1 -5 26.7 5.8
14 -13 -5 17.8 3.8
1 -14 -5 29.5 5.9
-1 -13 -5 25.5 6.3
14 -1 -5 18.1 5.4
13 -14 -5 15.3 3.9
-14 1 -5 22.7 5.3
-8 -7 -5 128.19 9.8
7 -15 -5 131.69 9.1
-7 15 -5 137.79 9
15 -8 -5 138.99 9.2
-8 15 -5 134.09 8.8
15 -7 -5 130.89 9.2
8 -15 -5 123.09 8.8
6 -15 -5 21.8 4.6
-9 -6 -5 27 5.3
-15 9 -5 14.7 3.8
15 -9 -5 22.4 4.5
-6 15 -5 20.9 4.3
9 -15 -5 21.9 4.5
-15 6 -5 26.2 4.7
-9 15 -5 24.5 4.4
5 -15 -5 216.08 12.7
-5 15 -5 237.28 12.9
15 -10 -5 239.18 12.7
-10 -5 -5 246.88 13.2
-15 10 -5 243.98 12.5
-10 15 -5 243.78 12.4
-15 5 -5 231.08 12.9
10 -15 -5 239.58 12.6
-4 15 -5 103.89 8.9
4 -15 -5 120.69 9.4
-11 -4 -5 102.89 9.6
-15 11 -5 107.39 8.5
15 -11 -5 108.69 8.2
-11 15 -5 114.49 8.3
11 -15 -5 112.29 8.2
-15 4 -5 123.89 9.1
-12 -3 -5 68.49 9.3
-3 15 -5 79.39 8.6
15 -12 -5 66.59 7.1
3 -15 -5 66.59 8.8
12 -15 -5 55.19 6.9
15 -3 -5 78.19 9.1
-15 3 -5 74.59 8.6
-3 -12 -5 65.19 8
-3 5 -6 44.6 4.3
-5 4 -6 163.68 8.7
-4 5 -6 170.18 8.6
-5 5 -6 51.19 4.5
-3 6 -6 9.4 2.3
-6 3 -6 10.1 2.8
-6 4 -6 2.2 2.1
-2 6 -6 5.4 2.2
-4 6 -6 2.5 2.2
-6 5 -6 74.79 5.3
-1 6 -6 74.59 5.1
-5 6 -6 75.59 5.4
0 6 -6 56.89 4.6
-6 6 -6 68.79 5.2
-3 7 -6 125.09 7.3
-7 4 -6 123.69 7.1
-7 3 -6 142.29 7.5
-4 7 -6 118.99 7
-7 5 -6 120.79 7.2
-2 7 -6 120.49 7.1
-5 7 -6 137.99 7.4
-7 2 -6 136.09 7.3
-7 6 -6 278.07 12.5
-1 7 -6 229.18 10.5
1 6 -6 198.58 10.3
-6 7 -6 242.58 12.4
-7 7 -6 180.78 9.3
0 7 -6 167.58 8.7
-8 4 -6 493.45 21.5
-4 8 -6 473.75 21.4
-8 5 -6 1.9 2.4
-3 8 -6 1.4 2.2
-8 3 -6 1.7 2.3
-5 8 -6 0.2 2.2
-2 8 -6 151.28 7.8
-8 6 -6 146.49 8.2
-8 2 -6 143.29 7.8
2 6 -6 134.39 7.7
-6 8 -6 154.28 8.1
-1 8 -6 73.79 5.5
-8 7 -6 102.19 6.3
-7 8 -6 95.99 6.3
1 7 -6 81.99 5.6
-8 1 -6 89.39 5.6
0 8 -6 136.79 7.8
-8 0 -6 154.68 8
-8 8 -6 193.08 9.8
-4 9 -6 86.39 5.7
-9 5 -6 81.49 5.9
-5 9 -6 94.19 5.9
-9 4 -6 83.89 5.9
-9 6 -6 33.6 4.3
-3 9 -6 27.8 3.9
3 6 -6 34.2 4.3
-9 3 -6 33.2 4.4
-6 9 -6 32 4.2
-2 9 -6 61.59 5
-9 7 -6 63.59 5.4
2 7 -6 64.99 5.1
-7 9 -6 71.19 5.3
-9 2 -6 66.49 5.3
-8 -1 -6 55.49 5.2
-9 8 -6 54.09 5.1
-1 9 -6 57.39 4.8
1 8 -6 48.7 4.8
-8 9 -6 73.99 5.4
-9 1 -6 57.99 5.2
0 9 -6 217.58 11.3
-9 9 -6 262.27 12.7
-9 0 -6 253.47 11.7
-5 10 -6 29.9 3.6
-10 5 -6 23 3.1
-4 10 -6 5.4 2.5
-10 6 -6 5.2 2.5
4 6 -6 9.1 2.7
-10 4 -6 8.3 2.8
-6 10 -6 8 2.8
-10 7 -6 264.07 12.5
-7 10 -6 252.67 12.5
-10 3 -6 247.28 12.1
-8 -2 -6 57.49 5.5
-10 8 -6 64.89 5.3
-2 10 -6 62.09 5.2
2 8 -6 69.89 5.3
-8 10 -6 60.29 5.4
-10 2 -6 57.49 5.5
-10 9 -6 6.7 2.9
-1 10 -6 6.6 2.8
-9 -1 -6 5.7 2.8
-10 1 -6 5 3
1 9 -6 9.5 2.9
-9 10 -6 8 2.8
-10 0 -6 47.2 5.5
-10 10 -6 46.8 5.4
0 10 -6 40.5 5.1
6 5 -6 93.59 6.5
-11 6 -6 107.99 6.7
-5 11 -6 91.59 6.5
-11 5 -6 96.89 6.5
-6 11 -6 94.59 6.6
5 6 -6 96.29 6.4
-4 11 -6 93.09 6.3
-11 7 -6 88.29 6.2
-11 4 -6 80.29 6.1
4 7 -6 82.29 6.1
-3 11 -6 77.69 6
-8 -3 -6 64.09 6
-11 8 -6 63.19 5.6
-11 3 -6 70.09 5.8
3 8 -6 67.29 5.4
-8 11 -6 66.99 5.8
-9 -2 -6 134.69 8.2
-11 9 -6 153.18 8.5
-2 11 -6 133.39 8
2 9 -6 125.99 7.9
-9 11 -6 137.99 8.5
-11 2 -6 142.59 8
-10 -1 -6 67.49 6.3
-1 11 -6 51.39 5.9
-11 10 -6 65.39 5.8
-10 11 -6 55.09 5.7
-11 1 -6 55.69 5.7
1 10 -6 48.8 5.7
-11 0 -6 50.99 6
0 11 -6 57.59 6.2
-11 11 -6 59.59 5.8
11 -11 -6 50.29 6
-12 6 -6 0.9 2.6
6 6 -6 3.2 3.2
-6 12 -6 1.8 2.7
7 5 -6 32.5 3.9
-5 12 -6 28.6 3.8
-12 7 -6 23.2 3.5
-7 12 -6 24.1 3.5
-12 5 -6 25.8 3.7
5 7 -6 25.8 3.7
-12 8 -6 103.99 6.9
-4 12 -6 79.19 6.4
-8 -4 -6 83.09 6.9
-8 12 -6 88.19 6.8
4 8 -6 81.39 6.4
-12 4 -6 98.49 6.6
-9 -3 -6 118.19 7.9
12 -9 -6 109.69 7.8
-3 12 -6 122.59 7.7
-12 9 -6 125.99 8
-12 3 -6 117.79 7.7
3 9 -6 121.09 7.7
-9 12 -6 128.79 7.8
-10 -2 -6 49.3 5.1
-2 12 -6 41.8 4.8
12 -10 -6 44.2 5.7
-12 10 -6 48.2 5.5
-12 2 -6 45 4.8
-10 12 -6 43.1 5.4
2 10 -6 48.1 5.1
10 -12 -6 48.8 5.7
11 1 -6 1.5 4.5
12 -11 -6 26.1 4.4
-1 12 -6 30.8 4.7
-11 -1 -6 28.3 4.6
11 -12 -6 26.9 4.1
-12 1 -6 31 4.6
1 11 -6 32.3 4.9
-12 0 -6 331.67 16.2
-12 12 -6 303.77 15.3
12 0 -6 339.77 16.6
12 -12 -6 330.47 15.9
7 6 -6 9.9 3.5
13 -7 -6 9.1 3.9
-13 7 -6 8 3.4
-6 13 -6 12.3 3.7
6 7 -6 11.8 3.6
-13 6 -6 11.6 3.8
13 -6 -6 4.4 4
-7 13 -6 7 3.1
-13 8 -6 77.29 6.7
-8 -5 -6 81.69 7.5
-5 13 -6 84.69 6.9
8 5 -6 79.89 6.8
13 -8 -6 90.99 7.5
-13 5 -6 79.39 6.8
5 8 -6 84.99 6.9
-8 13 -6 79.69 6.7
13 -5 -6 98.09 8
9 4 -6 69.09 6.5
-4 13 -6 67.39 6.6
-13 9 -6 70.79 6.4
13 -9 -6 80.89 7.1
-9 -4 -6 67.39 7.1
9 -13 -6 66.39 6.3
-9 13 -6 69.09 6.5
4 9 -6 61.89 7
-13 4 -6 66.09 6.6
-13 10 -6 44.4 4.9
10 3 -6 29.8 5.5
13 -10 -6 36.8 4.8
-10 -3 -6 42 5.5
-13 3 -6 32.9 4.5
-10 13 -6 42.3 5
10 -13 -6 28.3 3.9
3 10 -6 33.3 5.1
-11 -2 -6 12.3 4.9
-2 13 -6 20.7 4.8
11 2 -6 19.2 5.4
13 -11 -6 21.3 4.4
-13 11 -6 26.2 4.4
-13 2 -6 14.5 4.1
2 11 -6 15.9 5.5
11 -13 -6 17.7 4.5
-11 13 -6 15.7 4
-1 13 -6 51.99 6.3
13 -12 -6 55.19 6.7
12 1 -6 50.29 7
-12 -1 -6 67.69 6.7
13 -1 -6 57.89 7.1
1 12 -6 49.8 6.5
-13 1 -6 65.79 7.4
12 -13 -6 48.9 6.9
7 -14 -6 40.4 5.1
-7 14 -6 24.1 4.1
14 -7 -6 44.7 5.4
-14 7 -6 32.6 4.4
14 -8 -6 36.1 5.1
-14 8 -6 38 4.9
6 -14 -6 23.3 4.1
-8 -6 -6 30.7 5.4
14 -6 -6 34.6 5.3
8 -14 -6 34.6 4.9
-14 6 -6 34.8 4.8
-14 9 -6 4.4 3.5
-5 14 -6 -0.8 3.7
-9 -5 -6 4.3 5.1
14 -9 -6 4.4 4.2
-9 14 -6 2.1 3.3
5 9 -6 8.8 4.8
-14 5 -6 3.4 4.1
9 -14 -6 1 3.8
14 -5 -6 1.4 4.9
-10 -4 -6 13.1 5.2
14 -10 -6 8.8 4.4
-14 10 -6 6.9 3.9
-10 14 -6 5.9 3.4
10 -14 -6 5.3 4.2
-14 4 -6 10.4 4.3
4 10 -6 9.7 5.4
14 -4 -6 3.3 5.2
-3 14 -6 102.69 9.2
-11 -3 -6 109.39 9.6
14 -11 -6 113.69 8.8
-14 3 -6 115.49 9.1
14 -3 -6 6.3 6
11 -14 -6 104.79 8.4
3 11 -6 123.29 10.5
-3 5 -7 73.79 5.4
-5 5 -7 1014.8 43.2
-6 3 -7 539.75 24.8
-3 6 -7 593.84 24.9
-6 4 -7 49.9 4.7
-2 6 -7 48.8 4.7
-4 6 -7 47.2 4.7
-6 5 -7 94.29 6.2
-1 6 -7 87.89 5.8
-5 6 -7 93.99 6.3
0 6 -7 83.89 5.9
-6 6 -7 76.39 5.6
-7 4 -7 33.7 4.6
-3 7 -7 39.4 4.5
-4 7 -7 38 4.4
-7 3 -7 40.3 4.4
-2 7 -7 271.07 13.1
-7 5 -7 300.27 14.1
-5 7 -7 294.17 14.1
-7 2 -7 277.47 13.1
-7 6 -7 117.59 7.5
-1 7 -7 102.29 6.7
-6 7 -7 145.19 7.9
1 6 -7 120.09 6.9
0 7 -7 35.6 4.5
-7 7 -7 42.2 4.8
-4 8 -7 1962.2 81.59
-8 4 -7 1925.41 81.49
-8 5 -7 182.98 9.4
-3 8 -7 171.68 9
-5 8 -7 166.78 9.2
-8 3 -7 165.78 9
-8 6 -7 32.3 3.7
-2 8 -7 34.4 4.7
-6 8 -7 25.7 3.4
2 6 -7 33.2 4.6
-8 2 -7 37.9 4.8
-1 8 -7 27.1 3.5
-8 7 -7 24.9 3.5
-8 1 -7 18.4 3.1
-7 8 -7 22.4 3.5
1 7 -7 20 3.3
-8 8 -7 448.56 20.2
-4 9 -7 647.94 27.8
-9 4 -7 622.24 27.8
-3 9 -7 2.9 2.7
-9 6 -7 3.4 2.6
3 6 -7 1.8 2.8
-6 9 -7 3.2 2.6
-9 3 -7 2.9 2.8
-2 9 -7 28.7 3.8
-9 7 -7 33.2 4
2 7 -7 24 3.7
-9 2 -7 23.6 3.8
-7 9 -7 23.6 3.4
-1 9 -7 239.38 11.2
-9 8 -7 262.67 12
-8 -1 -7 206.58 11.2
-8 9 -7 216.38 11.8
-9 1 -7 217.88 11.2
1 8 -7 214.98 11.2
0 9 -7 1676.53 70.59
-5 10 -7 55.09 5.3
-10 5 -7 52.99 5.3
-10 6 -7 22.4 3.5
-4 10 -7 16.8 3.3
-6 10 -7 20.7 3.5
4 6 -7 24.5 3.7
-10 4 -7 13.6 3.1
-10 7 -7 117.19 7.7
-3 10 -7 102.29 6.7
3 7 -7 95.29 7
-10 3 -7 104.19 7
-7 10 -7 134.99 7.8
-10 8 -7 95.09 6.7
-2 10 -7 87.79 6.3
-8 -2 -7 89.39 6.8
2 8 -7 88.09 6.6
-8 10 -7 88.89 6.6
-9 -1 -7 73.09 6.6
-1 10 -7 85.39 6.3
-10 9 -7 75.19 6.1
-9 10 -7 73.69 6.1
1 9 -7 78.69 6.4
-10 1 -7 84.29 6.8
-10 0 -7 13.6 3.7
0 10 -7 21.5 3.9
-10 10 -7 14.4 3.5
6 5 -7 80.29 6.9
-11 6 -7 76.29 6.3
-5 11 -7 73.49 5.8
-11 5 -7 62.09 5.9
-6 11 -7 71.59 6.2
5 6 -7 67.29 6.4
-11 7 -7 72.89 6.3
-4 11 -7 65.89 5.9
-7 11 -7 72.39 6.2
4 7 -7 66.29 6.6
-11 4 -7 70.29 6
-11 8 -7 14.8 3.6
-8 -3 -7 12.3 3.9
-3 11 -7 14.9 3.5
3 8 -7 15.6 3.9
-11 3 -7 14.6 3.7
-8 11 -7 16.8 3.7
-2 11 -7 50.79 6
-11 9 -7 55.39 5.8
-9 -2 -7 53.69 6.4
2 9 -7 52.39 5.9
-11 2 -7 54.89 5.9
-9 11 -7 50.79 6
-11 10 -7 284.07 13.3
-10 -1 -7 225.38 12.2
-11 1 -7 228.78 12
1 10 -7 234.98 12.1
-10 11 -7 246.48 13.2
0 11 -7 52.59 7.1
-11 11 -7 52.89 6.3
-11 0 -7 59.39 6.9
-6 12 -7 123.19 8
6 6 -7 116.99 8.5
-12 6 -7 121.69 7.9
7 5 -7 0.1 4.1
-12 7 -7 3.7 3.3
-5 12 -7 3.2 3.4
-7 12 -7 7.3 3.5
-12 5 -7 3.5 3.3
5 7 -7 4.1 4
-12 8 -7 218.88 11.7
-8 -4 -7 231.58 12.5
-4 12 -7 244.98 12.2
-8 12 -7 235.58 11.8
4 8 -7 243.18 12.3
-12 4 -7 215.58 12.1
-3 12 -7 219.48 11.5
-12 9 -7 259.57 12.6
-9 -3 -7 203.58 11.8
-9 12 -7 226.58 12.4
3 9 -7 212.08 12
-12 10 -7 23.6 4
-10 -2 -7 25.8 4.9
-2 12 -7 34.1 5
-10 12 -7 14.9 3.4
-12 2 -7 31.3 4.8
2 10 -7 25.8 5.1
12 -11 -7 16.4 4.3
-11 -1 -7 23.7 5
-1 12 -7 20.1 5.1
1 11 -7 20.5 5.2
-12 1 -7 16.7 4.5
11 -12 -7 29 4.9
13 -7 -7 4.6 4.6
7 6 -7 4 5
-13 7 -7 1.2 3.7
-6 13 -7 -3.6 3.7
-13 6 -7 2.8 3.6
6 7 -7 1.2 4.6
-7 13 -7 -6.7 3.4
13 -8 -7 766.12 33.7
-13 8 -7 881.51 38.4
-8 -5 -7 744.03 33.8
-8 13 -7 897.61 38.4
5 8 -7 793.12 33.9
9 4 -7 637.64 27.5
13 -9 -7 481.15 22.3
-9 -4 -7 470.55 22.6
-9 13 -7 551.84 29.4
4 9 -7 524.45 22.8
-13 4 -7 472.45 22
-3 5 -8 83.69 6.2
-5 4 -8 57.59 5.4
-4 5 -8 59.39 5.5
-5 5 -8 228.88 11.3
-3 6 -8 37.7 4.8
-6 3 -8 38.2 4.3
-2 6 -8 95.19 6.4
-6 4 -8 104.69 6.7
-4 6 -8 95.99 6.6
-1 6 -8 7.3 2.8
-6 5 -8 9.1 3.1
-5 6 -8 12 3.3
0 6 -8 97.09 6.6
-6 6 -8 101.99 7
-7 4 -8 69.69 5.9
-3 7 -8 71.69 5.9
-4 7 -8 66.99 5.7
-7 3 -8 67.89 5.8
-2 7 -8 22.1 3.5
-7 5 -8 27.5 4
-5 7 -8 23.4 3.4
-7 2 -8 25.3 3.7
-7 6 -8 152.88 8.9
-1 7 -8 144.29 8.3
-7 1 -8 139.49 8.4
1 6 -8 148.19 8.3
-6 7 -8 166.08 9.1
-7 7 -8 110.09 7.5
0 7 -8 105.99 7.1
-4 8 -8 240.18 12.3
-8 4 -8 255.57 12.4
-3 8 -8 102.69 6.9
-8 5 -8 86.79 6.5
-8 3 -8 80.39 6.5
-5 8 -8 85.39 6.6
-8 6 -8 52.79 5.9
-2 8 -8 43.5 5.4
-8 2 -8 52.29 5.6
2 6 -8 45.3 5.5
-6 8 -8 53.49 5.6
-8 7 -8 90.89 6.8
-1 8 -8 82.49 6.6
-8 1 -8 88.39 6.5
1 7 -8 89.09 6.7
-7 8 -8 96.69 6.9
0 8 -8 467.85 21.6
-8 8 -8 463.45 20.9
-8 0 -8 491.45 21.6
-4 9 -8 214.18 11
-9 5 -8 212.88 11.1
-9 4 -8 213.18 11.1
-5 9 -8 213.68 11
-9 6 -8 48.4 5.5
-3 9 -8 49.6 5.5
-6 9 -8 47.8 5.5
-9 3 -8 48 5.5
3 6 -8 42.1 5.8
-2 9 -8 45.8 5.6
-9 7 -8 56.39 5.7
-7 9 -8 48.5 5.8
2 7 -8 46.6 6
-9 2 -8 46.6 5.8
-8 -1 -8 138.39 8.8
-1 9 -8 141.49 8.6
-9 8 -8 132.79 8.7
-9 1 -8 137.29 8.6
1 8 -8 145.39 8.8
-8 9 -8 168.78 9
0 9 -8 10.1 3.6
-9 0 -8 13.3 3.7
-9 9 -8 15.1 3.7
5 5 -8 8.3 4.2
-10 5 -8 7 3.3
-5 10 -8 6.9 3.1
-4 10 -8 119.19 7.4
-10 6 -8 97.89 7.1
-6 10 -8 94.39 7.1
-10 4 -8 90.59 7.4
4 6 -8 110.19 8.1
-10 7 -8 184.98 10
-3 10 -8 205.78 10.5
-7 10 -8 177.38 9.9
-10 3 -8 195.18 10.8
3 7 -8 184.58 10.9
-10 8 -8 4.3 3.4
-2 10 -8 0.4 3.2
-8 -2 -8 3.8 4
-10 2 -8 0.6 3.6
-8 10 -8 -3.5 3.4
2 8 -8 6 3.9
-9 -1 -8 7.5 4
-1 10 -8 4.2 3.5
1 9 -8 7.1 4
-10 1 -8 5.1 3.8
-9 10 -8 3.6 3.7
6 5 -8 80.39 8.3
-11 6 -8 68.99 6.7
5 6 -8 81.79 7.5
-11 5 -8 68.79 6.7
-6 11 -8 75.29 6.7
-11 7 -8 28.1 4.6
-11 4 -8 20.1 3.8
-7 11 -8 39.7 4.8
-8 -3 -8 17.6 4.7
-11 3 -8 15.6 3.9
3 8 -8 27.5 5.1
-2 5 -9 256.07 12.6
-3 5 -9 274.47 13.4
-5 4 -9 6.4 3.4
-4 5 -9 4.2 2.9
-5 5 -9 431.56 19.6
-3 6 -9 112.29 7.6
-6 3 -9 123.69 7.7
-2 6 -9 232.38 11.7
-6 4 -9 237.78 11.7
-6 2 -9 230.58 11.8
-4 6 -9 222.48 11.7
-6 5 -9 41.6 4.7
-1 6 -9 27.1 3.7
-5 6 -9 40.7 4.7
-6 6 -9 12.7 3.9
0 6 -9 10.1 3.6
-3 7 -9 4.4 3.3
-7 4 -9 2.9 3.2
-7 3 -9 -0.9 3.2
-4 7 -9 5.3 3.4
-7 5 -9 76.69 6.5
-2 7 -9 57.09 6.1
-5 7 -9 71.69 6.4
-7 2 -9 68.09 6.1
-1 7 -9 271.67 13.5
-7 6 -9 300.97 14.8
-7 1 -9 274.97 13.6
-6 7 -9 310.57 14.9
0 7 -9 0.3 3.4
-7 7 -9 19.2 4
-4 8 -9 20.8 4.1
-8 4 -9 17.1 3.8
-8 5 -9 99.79 7.5
-3 8 -9 97.69 7.4
-8 3 -9 95.19 7.3
-6 8 -9 195.88 10.7
-1 8 -9 -3.7 3.6
-8 1 -9 9.8 3.7
1 7 -9 2.3 3.9
loop_
_twin_individual_id
_twin_individual_mass_fraction_refined
1 0.4(2)
2 0.6(2)
