#------------------------------------------------------------------------------
#$Date: 2017-11-07 03:05:40 +0200 (Tue, 07 Nov 2017) $
#$Revision: 202768 $
#$URL: file:///home/coder/svn-repositories/cod/cif/1/54/72/1547290.cif $
#------------------------------------------------------------------------------
#
# This file is available in the Crystallography Open Database (COD),
# http://www.crystallography.net/
#
# All data on this site have been placed in the public domain by the
# contributors.
#
data_1547290
loop_
_publ_author_name
'Proskurnina, Natalia V.'
'Voronin, Vladimir I.'
'Shekhtman, Georgi Sh.'
'Maskaeva, Larisa N.'
'Kabanova, Natalia A.'
'Kabanov, Artem A.'
'Blatov, Vladislav A.'
_publ_section_title
;
 Ionic Conductivity in Ti-Doped KFeO2: Experiment and Mathematical
 Modeling
;
_journal_issue                   39
_journal_name_full               'The Journal of Physical Chemistry C'
_journal_page_first              21128
_journal_paper_doi               10.1021/acs.jpcc.7b05164
_journal_volume                  121
_journal_year                    2017
_chemical_formula_iupac          K7.2Fe7.2Ti0.8O16
_chemical_formula_sum            'Fe7.2 K7.2 O16 Ti0.8'
_chemical_formula_weight         977.71
_space_group_IT_number           227
_symmetry_cell_setting           cubic
_symmetry_space_group_name_Hall  '-F 4vw 2vw 3'
_symmetry_space_group_name_H-M   'F d -3 m :2'
_cell_angle_alpha                90.00000
_cell_angle_beta                 90.00000
_cell_angle_gamma                90.00000
_cell_formula_units_Z            1
_cell_length_a                   8.1062(5)
_cell_length_b                   8.1062(5)
_cell_length_c                   8.1062(5)
_cell_measurement_temperature    950
_cell_volume                     532.66(6)
_computing_structure_refinement  FULLPROF
_diffrn_ambient_temperature      950
_diffrn_measurement_device_type  'HRPT neutron diffractometer'
_diffrn_radiation_type           'Neutron '
_diffrn_radiation_wavelength     1.49400
_diffrn_source                   'nuclear reactor'
_pd_meas_2theta_range_inc        0.050000
_pd_meas_2theta_range_max        164.89999
_pd_meas_2theta_range_min        4.55000
_pd_meas_number_of_points        3208
_pd_proc_2theta_range_inc        0.050000
_pd_proc_2theta_range_max        164.8654
_pd_proc_2theta_range_min        4.5154
_pd_proc_ls_prof_R_factor        3.8779
_pd_proc_ls_prof_wR_expected     4.1903
_pd_proc_ls_prof_wR_factor       4.9552
_pd_proc_wavelength              1.494000
_refine_ls_goodness_of_fit_all   1.5024
_refine_ls_number_parameters     32
_refine_ls_number_reflns         47
_refine_ls_number_restraints     0
_refine_ls_R_I_factor            7.9400
_cod_data_source_file            jp7b05164_si_002.cif
_cod_data_source_block           heat_950K
_cod_depositor_comments
'Adding full bibliography for 1547283--1547290.cif.'
_cod_original_sg_symbol_H-M      'F d -3 m'
_cod_original_formula_sum        'Fe7.20 K7.20 O16 Ti0.80'
_cod_database_code               1547290
_publcif_datablock.id            {417d9675-e8fe-4157-9d24-de01175781d3}
_pd_proc_ls_prof_cr_factor       37.1469
_pd_proc_ls_prof_cwr_factor      20.4752
_pd_proc_ls_prof_cwr_expected    17.3147
_pd_proc_ls_prof_chi2            1.3984
_pd_proc_ls_prof_echi2           1.3716
_publcif_info_exptl_table_max_cols 4
_publcif_info_exptl_table_use_headnotes n
loop_
_symmetry_equiv_pos_as_xyz
x,y,z
x,-y+1/4,-z+1/4
-x+1/4,y,-z+1/4
-x+1/4,-y+1/4,z
y,z,x
-y+1/4,-z+1/4,x
y,-z+1/4,-x+1/4
-y+1/4,z,-x+1/4
z,x,y
-z+1/4,x,-y+1/4
-z+1/4,-x+1/4,y
z,-x+1/4,-y+1/4
y,x,z
-y+1/4,x,-z+1/4
y,-x+1/4,-z+1/4
-y+1/4,-x+1/4,z
z,y,x
-z+1/4,-y+1/4,x
-z+1/4,y,-x+1/4
z,-y+1/4,-x+1/4
x,z,y
x,-z+1/4,-y+1/4
-x+1/4,-z+1/4,y
-x+1/4,z,-y+1/4
-x,-y,-z
-x,y+3/4,z+3/4
x+3/4,-y,z+3/4
x+3/4,y+3/4,-z
-y,-z,-x
y+3/4,z+3/4,-x
-y,z+3/4,x+3/4
y+3/4,-z,x+3/4
-z,-x,-y
z+3/4,-x,y+3/4
z+3/4,x+3/4,-y
-z,x+3/4,y+3/4
-y,-x,-z
y+3/4,-x,z+3/4
-y,x+3/4,z+3/4
y+3/4,x+3/4,-z
-z,-y,-x
z+3/4,y+3/4,-x
z+3/4,-y,x+3/4
-z,y+3/4,x+3/4
-x,-z,-y
-x,z+3/4,y+3/4
x+3/4,z+3/4,-y
x+3/4,-z,y+3/4
x+1/2,y+1/2,z
x+1/2,-y+3/4,-z+1/4
-x+3/4,y+1/2,-z+1/4
-x+3/4,-y+3/4,z
y+1/2,z+1/2,x
-y+3/4,-z+3/4,x
y+1/2,-z+3/4,-x+1/4
-y+3/4,z+1/2,-x+1/4
z+1/2,x+1/2,y
-z+3/4,x+1/2,-y+1/4
-z+3/4,-x+3/4,y
z+1/2,-x+3/4,-y+1/4
y+1/2,x+1/2,z
-y+3/4,x+1/2,-z+1/4
y+1/2,-x+3/4,-z+1/4
-y+3/4,-x+3/4,z
z+1/2,y+1/2,x
-z+3/4,-y+3/4,x
-z+3/4,y+1/2,-x+1/4
z+1/2,-y+3/4,-x+1/4
x+1/2,z+1/2,y
x+1/2,-z+3/4,-y+1/4
-x+3/4,-z+3/4,y
-x+3/4,z+1/2,-y+1/4
-x+1/2,-y+1/2,-z
-x+1/2,y+1/4,z+3/4
x+1/4,-y+1/2,z+3/4
x+1/4,y+1/4,-z
-y+1/2,-z+1/2,-x
y+1/4,z+1/4,-x
-y+1/2,z+1/4,x+3/4
y+1/4,-z+1/2,x+3/4
-z+1/2,-x+1/2,-y
z+1/4,-x+1/2,y+3/4
z+1/4,x+1/4,-y
-z+1/2,x+1/4,y+3/4
-y+1/2,-x+1/2,-z
y+1/4,-x+1/2,z+3/4
-y+1/2,x+1/4,z+3/4
y+1/4,x+1/4,-z
-z+1/2,-y+1/2,-x
z+1/4,y+1/4,-x
z+1/4,-y+1/2,x+3/4
-z+1/2,y+1/4,x+3/4
-x+1/2,-z+1/2,-y
-x+1/2,z+1/4,y+3/4
x+1/4,z+1/4,-y
x+1/4,-z+1/2,y+3/4
x+1/2,y,z+1/2
x+1/2,-y+1/4,-z+3/4
-x+3/4,y,-z+3/4
-x+3/4,-y+1/4,z+1/2
y+1/2,z,x+1/2
-y+3/4,-z+1/4,x+1/2
y+1/2,-z+1/4,-x+3/4
-y+3/4,z,-x+3/4
z+1/2,x,y+1/2
-z+3/4,x,-y+3/4
-z+3/4,-x+1/4,y+1/2
z+1/2,-x+1/4,-y+3/4
y+1/2,x,z+1/2
-y+3/4,x,-z+3/4
y+1/2,-x+1/4,-z+3/4
-y+3/4,-x+1/4,z+1/2
z+1/2,y,x+1/2
-z+3/4,-y+1/4,x+1/2
-z+3/4,y,-x+3/4
z+1/2,-y+1/4,-x+3/4
x+1/2,z,y+1/2
x+1/2,-z+1/4,-y+3/4
-x+3/4,-z+1/4,y+1/2
-x+3/4,z,-y+3/4
-x+1/2,-y,-z+1/2
-x+1/2,y+3/4,z+1/4
x+1/4,-y,z+1/4
x+1/4,y+3/4,-z+1/2
-y+1/2,-z,-x+1/2
y+1/4,z+3/4,-x+1/2
-y+1/2,z+3/4,x+1/4
y+1/4,-z,x+1/4
-z+1/2,-x,-y+1/2
z+1/4,-x,y+1/4
z+1/4,x+3/4,-y+1/2
-z+1/2,x+3/4,y+1/4
-y+1/2,-x,-z+1/2
y+1/4,-x,z+1/4
-y+1/2,x+3/4,z+1/4
y+1/4,x+3/4,-z+1/2
-z+1/2,-y,-x+1/2
z+1/4,y+3/4,-x+1/2
z+1/4,-y,x+1/4
-z+1/2,y+3/4,x+1/4
-x+1/2,-z,-y+1/2
-x+1/2,z+3/4,y+1/4
x+1/4,z+3/4,-y+1/2
x+1/4,-z,y+1/4
x,y+1/2,z+1/2
x,-y+3/4,-z+3/4
-x+1/4,y+1/2,-z+3/4
-x+1/4,-y+3/4,z+1/2
y,z+1/2,x+1/2
-y+1/4,-z+3/4,x+1/2
y,-z+3/4,-x+3/4
-y+1/4,z+1/2,-x+3/4
z,x+1/2,y+1/2
-z+1/4,x+1/2,-y+3/4
-z+1/4,-x+3/4,y+1/2
z,-x+3/4,-y+3/4
y,x+1/2,z+1/2
-y+1/4,x+1/2,-z+3/4
y,-x+3/4,-z+3/4
-y+1/4,-x+3/4,z+1/2
z,y+1/2,x+1/2
-z+1/4,-y+3/4,x+1/2
-z+1/4,y+1/2,-x+3/4
z,-y+3/4,-x+3/4
x,z+1/2,y+1/2
x,-z+3/4,-y+3/4
-x+1/4,-z+3/4,y+1/2
-x+1/4,z+1/2,-y+3/4
-x,-y+1/2,-z+1/2
-x,y+1/4,z+1/4
x+3/4,-y+1/2,z+1/4
x+3/4,y+1/4,-z+1/2
-y,-z+1/2,-x+1/2
y+3/4,z+1/4,-x+1/2
-y,z+1/4,x+1/4
y+3/4,-z+1/2,x+1/4
-z,-x+1/2,-y+1/2
z+3/4,-x+1/2,y+1/4
z+3/4,x+1/4,-y+1/2
-z,x+1/4,y+1/4
-y,-x+1/2,-z+1/2
y+3/4,-x+1/2,z+1/4
-y,x+1/4,z+1/4
y+3/4,x+1/4,-z+1/2
-z,-y+1/2,-x+1/2
z+3/4,y+1/4,-x+1/2
z+3/4,-y+1/2,x+1/4
-z,y+1/4,x+1/4
-x,-z+1/2,-y+1/2
-x,z+1/4,y+1/4
x+3/4,z+1/4,-y+1/2
x+3/4,-z+1/2,y+1/4
loop_
_atom_site_label
_atom_site_fract_x
_atom_site_fract_y
_atom_site_fract_z
_atom_site_U_iso_or_equiv
_atom_site_occupancy
_atom_site_adp_type
_atom_site_type_symbol
Fe1 0.12500 0.12500 0.12500 0.0491(6) 0.90000 Uiso FE
Ti1 0.12500 0.12500 0.12500 0.0491(6) 0.10000 Uiso TI
K1 0.37500 0.37500 0.37500 0.11521(19) 0.90000 Uiso K
O2 0.0592(16) -0.014(4) -0.043(3) 0.0526(15) 0.08333 Uiso O
loop_
_atom_type_symbol
_atom_type_scat_length_neutron
_atom_type_scat_source
FE 0.94500 V.F._Sears_Neutron_News_3_26_(1992)
TI -0.34380 V.F._Sears_Neutron_News_3_26_(1992)
K 0.36700 V.F._Sears_Neutron_News_3_26_(1992)
O 0.58030 V.F._Sears_Neutron_News_3_26_(1992)
loop_
_geom_angle_atom_site_label_1
_geom_angle_atom_site_label_2
_geom_angle_atom_site_label_3
_geom_angle
_geom_angle_site_symmetry_1
_geom_angle_site_symmetry_3
O2 Fe1 O2 146(3) 1_555 2_555
O2 Fe1 O2 104.8(20) 1_555 3_555
O2 Fe1 O2 85(2) 1_555 4_555
O2 Fe1 O2 114(2) 1_555 6_555
O2 Fe1 O2 119(3) 1_555 7_555
O2 Fe1 O2 86.5(17) 1_555 8_555
O2 Fe1 O2 119.1(19) 1_555 10_555
O2 Fe1 O2 86.5(18) 1_555 11_555
O2 Fe1 O2 114(2) 1_555 12_555
O2 Fe1 O2 123(2) 1_555 14_555
O2 Fe1 O2 123(2) 1_555 15_555
O2 Fe1 O2 79.0(17) 1_555 16_555
O2 Fe1 O2 112(2) 1_555 18_555
O2 Fe1 O2 93.1(17) 1_555 19_555
O2 Fe1 O2 112(2) 1_555 20_555
O2 Fe1 O2 145(3) 1_555 22_555
O2 Fe1 O2 95(2) 1_555 23_555
O2 Fe1 O2 94.8(19) 1_555 24_555
O2 Fe1 O2 105(2) 1_555 76_555
O2 Fe1 O2 76.5(18) 1_555 78_555
O2 Fe1 O2 104(2) 1_555 83_555
O2 Fe1 O2 111(2) 1_555 88_555
O2 Fe1 O2 78.9(20) 1_555 90_555
O2 Fe1 O2 95.3(18) 1_555 95_555
O2 Fe1 O2 101.5(17) 1_555 123_555
O2 Fe1 O2 121(2) 1_555 128_555
O2 Fe1 O2 88.3(18) 1_555 130_555
O2 Fe1 O2 85.0(17) 1_555 134_555
O2 Fe1 O2 114(2) 1_555 139_555
O2 Fe1 O2 111.7(18) 1_555 144_555
O2 Fe1 O2 109(2) 1_555 170_555
O2 Fe1 O2 132(2) 1_555 175_555
O2 Fe1 O2 138(3) 1_555 180_555
O2 Fe1 O2 128(3) 1_555 183_555
O2 Fe1 O2 141(3) 1_555 188_555
O2 Fe1 O2 110(2) 1_555 190_555
O2 Fe1 O2 85(2) 2_555 3_555
O2 Fe1 O2 104.8(20) 2_555 4_555
O2 Fe1 O2 119(3) 2_555 5_555
O2 Fe1 O2 86.5(17) 2_555 6_555
O2 Fe1 O2 114(2) 2_555 8_555
O2 Fe1 O2 114(2) 2_555 9_555
O2 Fe1 O2 86.5(18) 2_555 10_555
O2 Fe1 O2 119.1(19) 2_555 11_555
O2 Fe1 O2 123(2) 2_555 13_555
O2 Fe1 O2 79.0(17) 2_555 14_555
O2 Fe1 O2 123(2) 2_555 16_555
O2 Fe1 O2 112(2) 2_555 17_555
O2 Fe1 O2 93.1(17) 2_555 18_555
O2 Fe1 O2 112(2) 2_555 19_555
O2 Fe1 O2 145(3) 2_555 21_555
O2 Fe1 O2 94.8(19) 2_555 23_555
O2 Fe1 O2 95(2) 2_555 24_555
O2 Fe1 O2 109(2) 2_555 25_555
O2 Fe1 O2 132(2) 2_555 29_555
O2 Fe1 O2 138(3) 2_555 33_555
O2 Fe1 O2 128(3) 2_555 37_555
O2 Fe1 O2 141(3) 2_555 41_555
O2 Fe1 O2 110(2) 2_555 45_555
O2 Fe1 O2 101.5(17) 2_555 76_555
O2 Fe1 O2 121(2) 2_555 78_555
O2 Fe1 O2 88.3(18) 2_555 83_555
O2 Fe1 O2 85.0(17) 2_555 88_555
O2 Fe1 O2 114(2) 2_555 90_555
O2 Fe1 O2 111.7(18) 2_555 95_555
O2 Fe1 O2 105(2) 2_555 123_555
O2 Fe1 O2 76.5(18) 2_555 128_555
O2 Fe1 O2 104(2) 2_555 130_555
O2 Fe1 O2 111(2) 2_555 134_555
O2 Fe1 O2 78.9(20) 2_555 139_555
O2 Fe1 O2 95.3(18) 2_555 144_555
O2 Fe1 O2 146(3) 3_555 4_555
O2 Fe1 O2 86.5(17) 3_555 5_555
O2 Fe1 O2 119(3) 3_555 6_555
O2 Fe1 O2 114(2) 3_555 7_555
O2 Fe1 O2 119.1(19) 3_555 9_555
O2 Fe1 O2 114(2) 3_555 11_555
O2 Fe1 O2 86.5(18) 3_555 12_555
O2 Fe1 O2 123(2) 3_555 13_555
O2 Fe1 O2 79.0(17) 3_555 15_555
O2 Fe1 O2 123(2) 3_555 16_555
O2 Fe1 O2 93.1(17) 3_555 17_555
O2 Fe1 O2 112(2) 3_555 18_555
O2 Fe1 O2 112(2) 3_555 20_555
O2 Fe1 O2 94.8(19) 3_555 21_555
O2 Fe1 O2 95(2) 3_555 22_555
O2 Fe1 O2 145(3) 3_555 23_555
O2 Fe1 O2 101.5(17) 3_555 25_555
O2 Fe1 O2 121(2) 3_555 29_555
O2 Fe1 O2 88.3(18) 3_555 33_555
O2 Fe1 O2 85.0(17) 3_555 37_555
O2 Fe1 O2 114(2) 3_555 41_555
O2 Fe1 O2 111.7(18) 3_555 45_555
O2 Fe1 O2 109(2) 3_555 76_555
O2 Fe1 O2 132(2) 3_555 78_555
O2 Fe1 O2 138(3) 3_555 83_555
O2 Fe1 O2 128(3) 3_555 88_555
O2 Fe1 O2 141(3) 3_555 90_555
O2 Fe1 O2 110(2) 3_555 95_555
O2 Fe1 O2 105(2) 3_555 170_555
O2 Fe1 O2 76.5(18) 3_555 175_555
O2 Fe1 O2 104(2) 3_555 180_555
O2 Fe1 O2 111(2) 3_555 183_555
O2 Fe1 O2 78.9(20) 3_555 188_555
O2 Fe1 O2 95.3(18) 3_555 190_555
O2 Fe1 O2 114(2) 4_555 5_555
O2 Fe1 O2 86.5(17) 4_555 7_555
O2 Fe1 O2 119(3) 4_555 8_555
O2 Fe1 O2 86.5(18) 4_555 9_555
O2 Fe1 O2 114(2) 4_555 10_555
O2 Fe1 O2 119.1(19) 4_555 12_555
O2 Fe1 O2 79.0(17) 4_555 13_555
O2 Fe1 O2 123(2) 4_555 14_555
O2 Fe1 O2 123(2) 4_555 15_555
O2 Fe1 O2 112(2) 4_555 17_555
O2 Fe1 O2 112(2) 4_555 19_555
O2 Fe1 O2 93.1(17) 4_555 20_555
O2 Fe1 O2 95(2) 4_555 21_555
O2 Fe1 O2 94.8(19) 4_555 22_555
O2 Fe1 O2 145(3) 4_555 24_555
O2 Fe1 O2 105(2) 4_555 25_555
O2 Fe1 O2 76.5(18) 4_555 29_555
O2 Fe1 O2 104(2) 4_555 33_555
O2 Fe1 O2 111(2) 4_555 37_555
O2 Fe1 O2 78.9(20) 4_555 41_555
O2 Fe1 O2 95.3(18) 4_555 45_555
O2 Fe1 O2 109(2) 4_555 123_555
O2 Fe1 O2 132(2) 4_555 128_555
O2 Fe1 O2 138(3) 4_555 130_555
O2 Fe1 O2 128(3) 4_555 134_555
O2 Fe1 O2 141(3) 4_555 139_555
O2 Fe1 O2 110(2) 4_555 144_555
O2 Fe1 O2 101.5(17) 4_555 170_555
O2 Fe1 O2 121(2) 4_555 175_555
O2 Fe1 O2 88.3(18) 4_555 180_555
O2 Fe1 O2 85.0(17) 4_555 183_555
O2 Fe1 O2 114(2) 4_555 188_555
O2 Fe1 O2 111.7(18) 4_555 190_555
O2 Fe1 O2 146(2) 5_555 6_555
O2 Fe1 O2 105(2) 5_555 7_555
O2 Fe1 O2 84.9(15) 5_555 8_555
O2 Fe1 O2 114.4(17) 5_555 10_555
O2 Fe1 O2 119.1(20) 5_555 11_555
O2 Fe1 O2 87(2) 5_555 12_555
O2 Fe1 O2 111.9(18) 5_555 14_555
O2 Fe1 O2 93(2) 5_555 15_555
O2 Fe1 O2 111.9(20) 5_555 16_555
O2 Fe1 O2 145(2) 5_555 18_555
O2 Fe1 O2 94.8(15) 5_555 19_555
O2 Fe1 O2 95(2) 5_555 20_555
O2 Fe1 O2 123(3) 5_555 22_555
O2 Fe1 O2 123(2) 5_555 23_555
O2 Fe1 O2 79.0(16) 5_555 24_555
O2 Fe1 O2 138(2) 5_555 76_555
O2 Fe1 O2 109(2) 5_555 78_555
O2 Fe1 O2 132(3) 5_555 83_555
O2 Fe1 O2 141(3) 5_555 88_555
O2 Fe1 O2 110(2) 5_555 90_555
O2 Fe1 O2 128(2) 5_555 95_555
O2 Fe1 O2 103.6(15) 5_555 123_555
O2 Fe1 O2 105.2(18) 5_555 128_555
O2 Fe1 O2 76.5(16) 5_555 130_555
O2 Fe1 O2 78.9(15) 5_555 134_555
O2 Fe1 O2 95.3(17) 5_555 139_555
O2 Fe1 O2 111.4(16) 5_555 144_555
O2 Fe1 O2 88(2) 5_555 170_555
O2 Fe1 O2 102(2) 5_555 175_555
O2 Fe1 O2 121(3) 5_555 180_555
O2 Fe1 O2 114(3) 5_555 183_555
O2 Fe1 O2 112(2) 5_555 188_555
O2 Fe1 O2 85(2) 5_555 190_555
O2 Fe1 O2 84.9(15) 6_555 7_555
O2 Fe1 O2 105(2) 6_555 8_555
O2 Fe1 O2 119.1(20) 6_555 9_555
O2 Fe1 O2 87(2) 6_555 10_555
O2 Fe1 O2 114.4(17) 6_555 12_555
O2 Fe1 O2 111.9(20) 6_555 13_555
O2 Fe1 O2 93(2) 6_555 14_555
O2 Fe1 O2 111.9(18) 6_555 15_555
O2 Fe1 O2 145(2) 6_555 17_555
O2 Fe1 O2 95(2) 6_555 19_555
O2 Fe1 O2 94.8(15) 6_555 20_555
O2 Fe1 O2 123(2) 6_555 21_555
O2 Fe1 O2 79.0(16) 6_555 22_555
O2 Fe1 O2 123(3) 6_555 24_555
O2 Fe1 O2 138(2) 6_555 25_555
O2 Fe1 O2 109(2) 6_555 29_555
O2 Fe1 O2 132(3) 6_555 33_555
O2 Fe1 O2 141(3) 6_555 37_555
O2 Fe1 O2 110(2) 6_555 41_555
O2 Fe1 O2 128(2) 6_555 45_555
O2 Fe1 O2 88(2) 6_555 123_555
O2 Fe1 O2 102(2) 6_555 128_555
O2 Fe1 O2 121(3) 6_555 130_555
O2 Fe1 O2 114(3) 6_555 134_555
O2 Fe1 O2 112(2) 6_555 139_555
O2 Fe1 O2 85(2) 6_555 144_555
O2 Fe1 O2 103.6(15) 6_555 170_555
O2 Fe1 O2 105.2(18) 6_555 175_555
O2 Fe1 O2 76.5(16) 6_555 180_555
O2 Fe1 O2 78.9(15) 6_555 183_555
O2 Fe1 O2 95.3(17) 6_555 188_555
O2 Fe1 O2 111.4(16) 6_555 190_555
O2 Fe1 O2 146(2) 7_555 8_555
O2 Fe1 O2 87(2) 7_555 9_555
O2 Fe1 O2 119.1(20) 7_555 10_555
O2 Fe1 O2 114.4(17) 7_555 11_555
O2 Fe1 O2 93(2) 7_555 13_555
O2 Fe1 O2 111.9(20) 7_555 14_555
O2 Fe1 O2 111.9(18) 7_555 16_555
O2 Fe1 O2 95(2) 7_555 17_555
O2 Fe1 O2 94.8(15) 7_555 18_555
O2 Fe1 O2 145(2) 7_555 19_555
O2 Fe1 O2 123(3) 7_555 21_555
O2 Fe1 O2 79.0(16) 7_555 23_555
O2 Fe1 O2 123(2) 7_555 24_555
O2 Fe1 O2 88(2) 7_555 25_555
O2 Fe1 O2 102(2) 7_555 29_555
O2 Fe1 O2 121(3) 7_555 33_555
O2 Fe1 O2 114(3) 7_555 37_555
O2 Fe1 O2 112(2) 7_555 41_555
O2 Fe1 O2 85(2) 7_555 45_555
O2 Fe1 O2 103.6(15) 7_555 76_555
O2 Fe1 O2 105.2(18) 7_555 78_555
O2 Fe1 O2 76.5(16) 7_555 83_555
O2 Fe1 O2 78.9(15) 7_555 88_555
O2 Fe1 O2 95.3(17) 7_555 90_555
O2 Fe1 O2 111.4(16) 7_555 95_555
O2 Fe1 O2 138(2) 7_555 123_555
O2 Fe1 O2 109(2) 7_555 128_555
O2 Fe1 O2 132(3) 7_555 130_555
O2 Fe1 O2 141(3) 7_555 134_555
O2 Fe1 O2 110(2) 7_555 139_555
O2 Fe1 O2 128(2) 7_555 144_555
O2 Fe1 O2 114.4(17) 8_555 9_555
O2 Fe1 O2 87(2) 8_555 11_555
O2 Fe1 O2 119.1(20) 8_555 12_555
O2 Fe1 O2 111.9(18) 8_555 13_555
O2 Fe1 O2 111.9(20) 8_555 15_555
O2 Fe1 O2 93(2) 8_555 16_555
O2 Fe1 O2 94.8(15) 8_555 17_555
O2 Fe1 O2 95(2) 8_555 18_555
O2 Fe1 O2 145(2) 8_555 20_555
O2 Fe1 O2 79.0(16) 8_555 21_555
O2 Fe1 O2 123(2) 8_555 22_555
O2 Fe1 O2 123(3) 8_555 23_555
O2 Fe1 O2 103.6(15) 8_555 25_555
O2 Fe1 O2 105.2(18) 8_555 29_555
O2 Fe1 O2 76.5(16) 8_555 33_555
O2 Fe1 O2 78.9(15) 8_555 37_555
O2 Fe1 O2 95.3(17) 8_555 41_555
O2 Fe1 O2 111.4(16) 8_555 45_555
O2 Fe1 O2 88(2) 8_555 76_555
O2 Fe1 O2 102(2) 8_555 78_555
O2 Fe1 O2 121(3) 8_555 83_555
O2 Fe1 O2 114(3) 8_555 88_555
O2 Fe1 O2 112(2) 8_555 90_555
O2 Fe1 O2 85(2) 8_555 95_555
O2 Fe1 O2 138(2) 8_555 170_555
O2 Fe1 O2 109(2) 8_555 175_555
O2 Fe1 O2 132(3) 8_555 180_555
O2 Fe1 O2 141(3) 8_555 183_555
O2 Fe1 O2 110(2) 8_555 188_555
O2 Fe1 O2 128(2) 8_555 190_555
O2 Fe1 O2 146.4(18) 9_555 10_555
O2 Fe1 O2 104.8(15) 9_555 11_555
O2 Fe1 O2 84.9(18) 9_555 12_555
O2 Fe1 O2 144.8(19) 9_555 14_555
O2 Fe1 O2 94.8(19) 9_555 15_555
O2 Fe1 O2 94.8(15) 9_555 16_555
O2 Fe1 O2 123.0(18) 9_555 18_555
O2 Fe1 O2 123.0(17) 9_555 19_555
O2 Fe1 O2 79.0(19) 9_555 20_555
O2 Fe1 O2 112(2) 9_555 22_555
O2 Fe1 O2 93.1(19) 9_555 23_555
O2 Fe1 O2 111.9(19) 9_555 24_555
O2 Fe1 O2 120.8(17) 9_555 76_555
O2 Fe1 O2 88.3(15) 9_555 78_555
O2 Fe1 O2 101.5(20) 9_555 83_555
O2 Fe1 O2 112(2) 9_555 88_555
O2 Fe1 O2 85.0(16) 9_555 90_555
O2 Fe1 O2 113.5(15) 9_555 95_555
O2 Fe1 O2 131.9(16) 9_555 123_555
O2 Fe1 O2 137.8(19) 9_555 128_555
O2 Fe1 O2 109.0(19) 9_555 130_555
O2 Fe1 O2 110.0(18) 9_555 134_555
O2 Fe1 O2 127.7(19) 9_555 139_555
O2 Fe1 O2 141.4(17) 9_555 144_555
O2 Fe1 O2 76.5(17) 9_555 170_555
O2 Fe1 O2 104(2) 9_555 175_555
O2 Fe1 O2 105(2) 9_555 180_555
O2 Fe1 O2 95(2) 9_555 183_555
O2 Fe1 O2 111(2) 9_555 188_555
O2 Fe1 O2 78.9(17) 9_555 190_555
O2 Fe1 O2 84.9(18) 10_555 11_555
O2 Fe1 O2 104.8(15) 10_555 12_555
O2 Fe1 O2 144.8(19) 10_555 13_555
O2 Fe1 O2 94.8(15) 10_555 15_555
O2 Fe1 O2 94.8(19) 10_555 16_555
O2 Fe1 O2 123.0(17) 10_555 17_555
O2 Fe1 O2 79.0(19) 10_555 18_555
O2 Fe1 O2 123.0(18) 10_555 20_555
O2 Fe1 O2 111.9(19) 10_555 21_555
O2 Fe1 O2 93.1(19) 10_555 22_555
O2 Fe1 O2 112(2) 10_555 23_555
O2 Fe1 O2 131.9(16) 10_555 25_555
O2 Fe1 O2 137.8(19) 10_555 29_555
O2 Fe1 O2 109.0(19) 10_555 33_555
O2 Fe1 O2 110.0(18) 10_555 37_555
O2 Fe1 O2 127.7(19) 10_555 41_555
O2 Fe1 O2 141.4(17) 10_555 45_555
O2 Fe1 O2 76.5(17) 10_555 76_555
O2 Fe1 O2 104(2) 10_555 78_555
O2 Fe1 O2 105(2) 10_555 83_555
O2 Fe1 O2 95(2) 10_555 88_555
O2 Fe1 O2 111(2) 10_555 90_555
O2 Fe1 O2 78.9(17) 10_555 95_555
O2 Fe1 O2 120.8(17) 10_555 170_555
O2 Fe1 O2 88.3(15) 10_555 175_555
O2 Fe1 O2 101.5(20) 10_555 180_555
O2 Fe1 O2 112(2) 10_555 183_555
O2 Fe1 O2 85.0(16) 10_555 188_555
O2 Fe1 O2 113.5(15) 10_555 190_555
O2 Fe1 O2 146.4(18) 11_555 12_555
O2 Fe1 O2 94.8(15) 11_555 13_555
O2 Fe1 O2 94.8(19) 11_555 14_555
O2 Fe1 O2 144.8(19) 11_555 15_555
O2 Fe1 O2 123.0(18) 11_555 17_555
O2 Fe1 O2 79.0(19) 11_555 19_555
O2 Fe1 O2 123.0(17) 11_555 20_555
O2 Fe1 O2 93.1(19) 11_555 21_555
O2 Fe1 O2 111.9(19) 11_555 22_555
O2 Fe1 O2 112(2) 11_555 24_555
O2 Fe1 O2 120.8(17) 11_555 25_555
O2 Fe1 O2 88.3(15) 11_555 29_555
O2 Fe1 O2 101.5(20) 11_555 33_555
O2 Fe1 O2 112(2) 11_555 37_555
O2 Fe1 O2 85.0(16) 11_555 41_555
O2 Fe1 O2 113.5(15) 11_555 45_555
O2 Fe1 O2 76.5(17) 11_555 123_555
O2 Fe1 O2 104(2) 11_555 128_555
O2 Fe1 O2 105(2) 11_555 130_555
O2 Fe1 O2 95(2) 11_555 134_555
O2 Fe1 O2 111(2) 11_555 139_555
O2 Fe1 O2 78.9(17) 11_555 144_555
O2 Fe1 O2 131.9(16) 11_555 170_555
O2 Fe1 O2 137.8(19) 11_555 175_555
O2 Fe1 O2 109.0(19) 11_555 180_555
O2 Fe1 O2 110.0(18) 11_555 183_555
O2 Fe1 O2 127.7(19) 11_555 188_555
O2 Fe1 O2 141.4(17) 11_555 190_555
O2 Fe1 O2 94.8(19) 12_555 13_555
O2 Fe1 O2 94.8(15) 12_555 14_555
O2 Fe1 O2 144.8(19) 12_555 16_555
O2 Fe1 O2 79.0(19) 12_555 17_555
O2 Fe1 O2 123.0(17) 12_555 18_555
O2 Fe1 O2 123.0(18) 12_555 19_555
O2 Fe1 O2 112(2) 12_555 21_555
O2 Fe1 O2 111.9(19) 12_555 23_555
O2 Fe1 O2 93.1(19) 12_555 24_555
O2 Fe1 O2 76.5(17) 12_555 25_555
O2 Fe1 O2 104(2) 12_555 29_555
O2 Fe1 O2 105(2) 12_555 33_555
O2 Fe1 O2 95(2) 12_555 37_555
O2 Fe1 O2 111(2) 12_555 41_555
O2 Fe1 O2 78.9(17) 12_555 45_555
O2 Fe1 O2 131.9(16) 12_555 76_555
O2 Fe1 O2 137.8(19) 12_555 78_555
O2 Fe1 O2 109.0(19) 12_555 83_555
O2 Fe1 O2 110.0(18) 12_555 88_555
O2 Fe1 O2 127.7(19) 12_555 90_555
O2 Fe1 O2 141.4(17) 12_555 95_555
O2 Fe1 O2 120.8(17) 12_555 123_555
O2 Fe1 O2 88.3(15) 12_555 128_555
O2 Fe1 O2 101.5(20) 12_555 130_555
O2 Fe1 O2 112(2) 12_555 134_555
O2 Fe1 O2 85.0(16) 12_555 139_555
O2 Fe1 O2 113.5(15) 12_555 144_555
O2 Fe1 O2 146.4(20) 13_555 14_555
O2 Fe1 O2 105(2) 13_555 15_555
O2 Fe1 O2 84.9(14) 13_555 16_555
O2 Fe1 O2 114.4(19) 13_555 18_555
O2 Fe1 O2 119.1(17) 13_555 19_555
O2 Fe1 O2 86.5(20) 13_555 20_555
O2 Fe1 O2 119(2) 13_555 22_555
O2 Fe1 O2 86.5(19) 13_555 23_555
O2 Fe1 O2 114.4(20) 13_555 24_555
O2 Fe1 O2 111.4(17) 13_555 76_555
O2 Fe1 O2 78.9(15) 13_555 78_555
O2 Fe1 O2 95.3(20) 13_555 83_555
O2 Fe1 O2 105(2) 13_555 88_555
O2 Fe1 O2 76.5(16) 13_555 90_555
O2 Fe1 O2 103.6(15) 13_555 95_555
O2 Fe1 O2 127.7(17) 13_555 123_555
O2 Fe1 O2 141(2) 13_555 128_555
O2 Fe1 O2 110.0(19) 13_555 130_555
O2 Fe1 O2 109.0(19) 13_555 134_555
O2 Fe1 O2 132(2) 13_555 139_555
O2 Fe1 O2 137.8(18) 13_555 144_555
O2 Fe1 O2 85.0(18) 13_555 170_555
O2 Fe1 O2 114(2) 13_555 175_555
O2 Fe1 O2 112(2) 13_555 180_555
O2 Fe1 O2 102(2) 13_555 183_555
O2 Fe1 O2 121(2) 13_555 188_555
O2 Fe1 O2 88.3(18) 13_555 190_555
O2 Fe1 O2 84.9(14) 14_555 15_555
O2 Fe1 O2 105(2) 14_555 16_555
O2 Fe1 O2 119.1(17) 14_555 17_555
O2 Fe1 O2 86.5(20) 14_555 18_555
O2 Fe1 O2 114.4(19) 14_555 20_555
O2 Fe1 O2 114.4(20) 14_555 21_555
O2 Fe1 O2 86.5(19) 14_555 22_555
O2 Fe1 O2 119(2) 14_555 23_555
O2 Fe1 O2 127.7(17) 14_555 25_555
O2 Fe1 O2 141(2) 14_555 29_555
O2 Fe1 O2 110.0(19) 14_555 33_555
O2 Fe1 O2 109.0(19) 14_555 37_555
O2 Fe1 O2 132(2) 14_555 41_555
O2 Fe1 O2 137.8(18) 14_555 45_555
O2 Fe1 O2 85.0(18) 14_555 76_555
O2 Fe1 O2 114(2) 14_555 78_555
O2 Fe1 O2 112(2) 14_555 83_555
O2 Fe1 O2 102(2) 14_555 88_555
O2 Fe1 O2 121(2) 14_555 90_555
O2 Fe1 O2 88.3(18) 14_555 95_555
O2 Fe1 O2 111.4(17) 14_555 170_555
O2 Fe1 O2 78.9(15) 14_555 175_555
O2 Fe1 O2 95.3(20) 14_555 180_555
O2 Fe1 O2 105(2) 14_555 183_555
O2 Fe1 O2 76.5(16) 14_555 188_555
O2 Fe1 O2 103.6(15) 14_555 190_555
O2 Fe1 O2 146.4(20) 15_555 16_555
O2 Fe1 O2 86.5(20) 15_555 17_555
O2 Fe1 O2 119.1(17) 15_555 18_555
O2 Fe1 O2 114.4(19) 15_555 19_555
O2 Fe1 O2 119(2) 15_555 21_555
O2 Fe1 O2 114.4(20) 15_555 23_555
O2 Fe1 O2 86.5(19) 15_555 24_555
O2 Fe1 O2 85.0(18) 15_555 25_555
O2 Fe1 O2 114(2) 15_555 29_555
O2 Fe1 O2 112(2) 15_555 33_555
O2 Fe1 O2 102(2) 15_555 37_555
O2 Fe1 O2 121(2) 15_555 41_555
O2 Fe1 O2 88.3(18) 15_555 45_555
O2 Fe1 O2 127.7(17) 15_555 76_555
O2 Fe1 O2 141(2) 15_555 78_555
O2 Fe1 O2 110.0(19) 15_555 83_555
O2 Fe1 O2 109.0(19) 15_555 88_555
O2 Fe1 O2 132(2) 15_555 90_555
O2 Fe1 O2 137.8(18) 15_555 95_555
O2 Fe1 O2 111.4(17) 15_555 123_555
O2 Fe1 O2 78.9(15) 15_555 128_555
O2 Fe1 O2 95.3(20) 15_555 130_555
O2 Fe1 O2 105(2) 15_555 134_555
O2 Fe1 O2 76.5(16) 15_555 139_555
O2 Fe1 O2 103.6(15) 15_555 144_555
O2 Fe1 O2 114.4(19) 16_555 17_555
O2 Fe1 O2 86.5(20) 16_555 19_555
O2 Fe1 O2 119.1(17) 16_555 20_555
O2 Fe1 O2 86.5(19) 16_555 21_555
O2 Fe1 O2 114.4(20) 16_555 22_555
O2 Fe1 O2 119(2) 16_555 24_555
O2 Fe1 O2 111.4(17) 16_555 25_555
O2 Fe1 O2 78.9(15) 16_555 29_555
O2 Fe1 O2 95.3(20) 16_555 33_555
O2 Fe1 O2 105(2) 16_555 37_555
O2 Fe1 O2 76.5(16) 16_555 41_555
O2 Fe1 O2 103.6(15) 16_555 45_555
O2 Fe1 O2 85.0(18) 16_555 123_555
O2 Fe1 O2 114(2) 16_555 128_555
O2 Fe1 O2 112(2) 16_555 130_555
O2 Fe1 O2 102(2) 16_555 134_555
O2 Fe1 O2 121(2) 16_555 139_555
O2 Fe1 O2 88.3(18) 16_555 144_555
O2 Fe1 O2 127.7(17) 16_555 170_555
O2 Fe1 O2 141(2) 16_555 175_555
O2 Fe1 O2 110.0(19) 16_555 180_555
O2 Fe1 O2 109.0(19) 16_555 183_555
O2 Fe1 O2 132(2) 16_555 188_555
O2 Fe1 O2 137.8(18) 16_555 190_555
O2 Fe1 O2 146(2) 17_555 18_555
O2 Fe1 O2 104.8(15) 17_555 19_555
O2 Fe1 O2 85(2) 17_555 20_555
O2 Fe1 O2 114(2) 17_555 22_555
O2 Fe1 O2 119(2) 17_555 23_555
O2 Fe1 O2 86.5(16) 17_555 24_555
O2 Fe1 O2 141(2) 17_555 76_555
O2 Fe1 O2 110.0(19) 17_555 78_555
O2 Fe1 O2 128(2) 17_555 83_555
O2 Fe1 O2 138(2) 17_555 88_555
O2 Fe1 O2 109(2) 17_555 90_555
O2 Fe1 O2 131.9(19) 17_555 95_555
O2 Fe1 O2 113.5(15) 17_555 123_555
O2 Fe1 O2 111.7(17) 17_555 128_555
O2 Fe1 O2 85.0(16) 17_555 130_555
O2 Fe1 O2 88.3(15) 17_555 134_555
O2 Fe1 O2 101.5(17) 17_555 139_555
O2 Fe1 O2 120.8(16) 17_555 144_555
O2 Fe1 O2 78.9(19) 17_555 170_555
O2 Fe1 O2 95(2) 17_555 175_555
O2 Fe1 O2 111(2) 17_555 180_555
O2 Fe1 O2 104(2) 17_555 183_555
O2 Fe1 O2 105(2) 17_555 188_555
O2 Fe1 O2 76.5(18) 17_555 190_555
O2 Fe1 O2 85(2) 18_555 19_555
O2 Fe1 O2 104.8(15) 18_555 20_555
O2 Fe1 O2 119(2) 18_555 21_555
O2 Fe1 O2 86.5(16) 18_555 22_555
O2 Fe1 O2 114(2) 18_555 24_555
O2 Fe1 O2 141(2) 18_555 25_555
O2 Fe1 O2 110.0(19) 18_555 29_555
O2 Fe1 O2 128(2) 18_555 33_555
O2 Fe1 O2 138(2) 18_555 37_555
O2 Fe1 O2 109(2) 18_555 41_555
O2 Fe1 O2 131.9(19) 18_555 45_555
O2 Fe1 O2 78.9(19) 18_555 123_555
O2 Fe1 O2 95(2) 18_555 128_555
O2 Fe1 O2 111(2) 18_555 130_555
O2 Fe1 O2 104(2) 18_555 134_555
O2 Fe1 O2 105(2) 18_555 139_555
O2 Fe1 O2 76.5(18) 18_555 144_555
O2 Fe1 O2 113.5(15) 18_555 170_555
O2 Fe1 O2 111.7(17) 18_555 175_555
O2 Fe1 O2 85.0(16) 18_555 180_555
O2 Fe1 O2 88.3(15) 18_555 183_555
O2 Fe1 O2 101.5(17) 18_555 188_555
O2 Fe1 O2 120.8(16) 18_555 190_555
O2 Fe1 O2 146(2) 19_555 20_555
O2 Fe1 O2 86.5(16) 19_555 21_555
O2 Fe1 O2 119(2) 19_555 22_555
O2 Fe1 O2 114(2) 19_555 23_555
O2 Fe1 O2 113.5(15) 19_555 25_555
O2 Fe1 O2 111.7(17) 19_555 29_555
O2 Fe1 O2 85.0(16) 19_555 33_555
O2 Fe1 O2 88.3(15) 19_555 37_555
O2 Fe1 O2 101.5(17) 19_555 41_555
O2 Fe1 O2 120.8(16) 19_555 45_555
O2 Fe1 O2 78.9(19) 19_555 76_555
O2 Fe1 O2 95(2) 19_555 78_555
O2 Fe1 O2 111(2) 19_555 83_555
O2 Fe1 O2 104(2) 19_555 88_555
O2 Fe1 O2 105(2) 19_555 90_555
O2 Fe1 O2 76.5(18) 19_555 95_555
O2 Fe1 O2 141(2) 19_555 170_555
O2 Fe1 O2 110.0(19) 19_555 175_555
O2 Fe1 O2 128(2) 19_555 180_555
O2 Fe1 O2 138(2) 19_555 183_555
O2 Fe1 O2 109(2) 19_555 188_555
O2 Fe1 O2 131.9(19) 19_555 190_555
O2 Fe1 O2 114(2) 20_555 21_555
O2 Fe1 O2 86.5(16) 20_555 23_555
O2 Fe1 O2 119(2) 20_555 24_555
O2 Fe1 O2 78.9(19) 20_555 25_555
O2 Fe1 O2 95(2) 20_555 29_555
O2 Fe1 O2 111(2) 20_555 33_555
O2 Fe1 O2 104(2) 20_555 37_555
O2 Fe1 O2 105(2) 20_555 41_555
O2 Fe1 O2 76.5(18) 20_555 45_555
O2 Fe1 O2 113.5(15) 20_555 76_555
O2 Fe1 O2 111.7(17) 20_555 78_555
O2 Fe1 O2 85.0(16) 20_555 83_555
O2 Fe1 O2 88.3(15) 20_555 88_555
O2 Fe1 O2 101.5(17) 20_555 90_555
O2 Fe1 O2 120.8(16) 20_555 95_555
O2 Fe1 O2 141(2) 20_555 123_555
O2 Fe1 O2 110.0(19) 20_555 128_555
O2 Fe1 O2 128(2) 20_555 130_555
O2 Fe1 O2 138(2) 20_555 134_555
O2 Fe1 O2 109(2) 20_555 139_555
O2 Fe1 O2 131.9(19) 20_555 144_555
O2 Fe1 O2 146(3) 21_555 22_555
O2 Fe1 O2 105(2) 21_555 23_555
O2 Fe1 O2 84.9(18) 21_555 24_555
O2 Fe1 O2 112(2) 21_555 76_555
O2 Fe1 O2 85.0(20) 21_555 78_555
O2 Fe1 O2 114(3) 21_555 83_555
O2 Fe1 O2 121(3) 21_555 88_555
O2 Fe1 O2 88(2) 21_555 90_555
O2 Fe1 O2 101.5(20) 21_555 95_555
O2 Fe1 O2 95.3(17) 21_555 123_555
O2 Fe1 O2 111(2) 21_555 128_555
O2 Fe1 O2 78.9(17) 21_555 130_555
O2 Fe1 O2 76.5(17) 21_555 134_555
O2 Fe1 O2 103.6(20) 21_555 139_555
O2 Fe1 O2 105.2(18) 21_555 144_555
O2 Fe1 O2 110(2) 21_555 170_555
O2 Fe1 O2 128(2) 21_555 175_555
O2 Fe1 O2 141(3) 21_555 180_555
O2 Fe1 O2 132(3) 21_555 183_555
O2 Fe1 O2 138(3) 21_555 188_555
O2 Fe1 O2 109(2) 21_555 190_555
O2 Fe1 O2 84.9(18) 22_555 23_555
O2 Fe1 O2 105(2) 22_555 24_555
O2 Fe1 O2 110(2) 22_555 25_555
O2 Fe1 O2 128(2) 22_555 29_555
O2 Fe1 O2 141(3) 22_555 33_555
O2 Fe1 O2 132(3) 22_555 37_555
O2 Fe1 O2 138(3) 22_555 41_555
O2 Fe1 O2 109(2) 22_555 45_555
O2 Fe1 O2 95.3(17) 22_555 76_555
O2 Fe1 O2 111(2) 22_555 78_555
O2 Fe1 O2 78.9(17) 22_555 83_555
O2 Fe1 O2 76.5(17) 22_555 88_555
O2 Fe1 O2 103.6(20) 22_555 90_555
O2 Fe1 O2 105.2(18) 22_555 95_555
O2 Fe1 O2 112(2) 22_555 123_555
O2 Fe1 O2 85.0(20) 22_555 128_555
O2 Fe1 O2 114(3) 22_555 130_555
O2 Fe1 O2 121(3) 22_555 134_555
O2 Fe1 O2 88(2) 22_555 139_555
O2 Fe1 O2 101.5(20) 22_555 144_555
O2 Fe1 O2 146(3) 23_555 24_555
O2 Fe1 O2 112(2) 23_555 25_555
O2 Fe1 O2 85.0(20) 23_555 29_555
O2 Fe1 O2 114(3) 23_555 33_555
O2 Fe1 O2 121(3) 23_555 37_555
O2 Fe1 O2 88(2) 23_555 41_555
O2 Fe1 O2 101.5(20) 23_555 45_555
O2 Fe1 O2 110(2) 23_555 123_555
O2 Fe1 O2 128(2) 23_555 128_555
O2 Fe1 O2 141(3) 23_555 130_555
O2 Fe1 O2 132(3) 23_555 134_555
O2 Fe1 O2 138(3) 23_555 139_555
O2 Fe1 O2 109(2) 23_555 144_555
O2 Fe1 O2 95.3(17) 23_555 170_555
O2 Fe1 O2 111(2) 23_555 175_555
O2 Fe1 O2 78.9(17) 23_555 180_555
O2 Fe1 O2 76.5(17) 23_555 183_555
O2 Fe1 O2 103.6(20) 23_555 188_555
O2 Fe1 O2 105.2(18) 23_555 190_555
O2 Fe1 O2 95.3(17) 24_555 25_555
O2 Fe1 O2 111(2) 24_555 29_555
O2 Fe1 O2 78.9(17) 24_555 33_555
O2 Fe1 O2 76.5(17) 24_555 37_555
O2 Fe1 O2 103.6(20) 24_555 41_555
O2 Fe1 O2 105.2(18) 24_555 45_555
O2 Fe1 O2 110(2) 24_555 76_555
O2 Fe1 O2 128(2) 24_555 78_555
O2 Fe1 O2 141(3) 24_555 83_555
O2 Fe1 O2 132(3) 24_555 88_555
O2 Fe1 O2 138(3) 24_555 90_555
O2 Fe1 O2 109(2) 24_555 95_555
O2 Fe1 O2 112(2) 24_555 170_555
O2 Fe1 O2 85.0(20) 24_555 175_555
O2 Fe1 O2 114(3) 24_555 180_555
O2 Fe1 O2 121(3) 24_555 183_555
O2 Fe1 O2 88(2) 24_555 188_555
O2 Fe1 O2 101.5(20) 24_555 190_555
O2 Fe1 O2 138.3(19) 25_555 76_555
O2 Fe1 O2 105.8(17) 25_555 78_555
O2 Fe1 O2 120(2) 25_555 83_555
O2 Fe1 O2 130(2) 25_555 88_555
O2 Fe1 O2 103.4(19) 25_555 90_555
O2 Fe1 O2 129.8(17) 25_555 95_555
O2 Fe1 O2 122.3(15) 25_555 123_555
O2 Fe1 O2 120.0(17) 25_555 128_555
O2 Fe1 O2 94.1(16) 25_555 130_555
O2 Fe1 O2 97.3(16) 25_555 134_555
O2 Fe1 O2 109.7(17) 25_555 139_555
O2 Fe1 O2 129.8(15) 25_555 144_555
O2 Fe1 O2 73.7(18) 25_555 170_555
O2 Fe1 O2 94.1(20) 25_555 175_555
O2 Fe1 O2 106(2) 25_555 180_555
O2 Fe1 O2 97(2) 25_555 183_555
O2 Fe1 O2 103(2) 25_555 188_555
O2 Fe1 O2 72.7(17) 25_555 190_555
O2 Fe1 O2 105.8(17) 29_555 76_555
O2 Fe1 O2 73.7(15) 29_555 78_555
O2 Fe1 O2 94(2) 29_555 83_555
O2 Fe1 O2 103(2) 29_555 88_555
O2 Fe1 O2 72.7(17) 29_555 90_555
O2 Fe1 O2 97.3(16) 29_555 95_555
O2 Fe1 O2 120.0(17) 29_555 123_555
O2 Fe1 O2 138(2) 29_555 128_555
O2 Fe1 O2 105.8(19) 29_555 130_555
O2 Fe1 O2 103.4(19) 29_555 134_555
O2 Fe1 O2 130(2) 29_555 139_555
O2 Fe1 O2 130.2(18) 29_555 144_555
O2 Fe1 O2 94.1(20) 29_555 170_555
O2 Fe1 O2 122(2) 29_555 175_555
O2 Fe1 O2 120(2) 29_555 180_555
O2 Fe1 O2 110(2) 29_555 183_555
O2 Fe1 O2 130(2) 29_555 188_555
O2 Fe1 O2 97.3(19) 29_555 190_555
O2 Fe1 O2 120(2) 33_555 76_555
O2 Fe1 O2 94(2) 33_555 78_555
O2 Fe1 O2 122(3) 33_555 83_555
O2 Fe1 O2 130(3) 33_555 88_555
O2 Fe1 O2 97(2) 33_555 90_555
O2 Fe1 O2 110(2) 33_555 95_555
O2 Fe1 O2 94.1(16) 33_555 123_555
O2 Fe1 O2 105.8(19) 33_555 128_555
O2 Fe1 O2 73.7(17) 33_555 130_555
O2 Fe1 O2 72.7(16) 33_555 134_555
O2 Fe1 O2 97.3(19) 33_555 139_555
O2 Fe1 O2 103.4(17) 33_555 144_555
O2 Fe1 O2 106(2) 33_555 170_555
O2 Fe1 O2 120(2) 33_555 175_555
O2 Fe1 O2 138(3) 33_555 180_555
O2 Fe1 O2 130(3) 33_555 183_555
O2 Fe1 O2 130(3) 33_555 188_555
O2 Fe1 O2 103(2) 33_555 190_555
O2 Fe1 O2 130(2) 37_555 76_555
O2 Fe1 O2 103(2) 37_555 78_555
O2 Fe1 O2 130(3) 37_555 83_555
O2 Fe1 O2 138(3) 37_555 88_555
O2 Fe1 O2 106(2) 37_555 90_555
O2 Fe1 O2 120(2) 37_555 95_555
O2 Fe1 O2 97.3(16) 37_555 123_555
O2 Fe1 O2 103.4(19) 37_555 128_555
O2 Fe1 O2 72.7(16) 37_555 130_555
O2 Fe1 O2 73.7(15) 37_555 134_555
O2 Fe1 O2 94.1(18) 37_555 139_555
O2 Fe1 O2 105.8(17) 37_555 144_555
O2 Fe1 O2 97(2) 37_555 170_555
O2 Fe1 O2 110(2) 37_555 175_555
O2 Fe1 O2 130(3) 37_555 180_555
O2 Fe1 O2 122(3) 37_555 183_555
O2 Fe1 O2 120(2) 37_555 188_555
O2 Fe1 O2 94(2) 37_555 190_555
O2 Fe1 O2 103.4(19) 41_555 76_555
O2 Fe1 O2 72.7(17) 41_555 78_555
O2 Fe1 O2 97(2) 41_555 83_555
O2 Fe1 O2 106(2) 41_555 88_555
O2 Fe1 O2 73.7(18) 41_555 90_555
O2 Fe1 O2 94.1(17) 41_555 95_555
O2 Fe1 O2 109.7(17) 41_555 123_555
O2 Fe1 O2 130(2) 41_555 128_555
O2 Fe1 O2 97.3(19) 41_555 130_555
O2 Fe1 O2 94.1(18) 41_555 134_555
O2 Fe1 O2 122(2) 41_555 139_555
O2 Fe1 O2 120.0(18) 41_555 144_555
O2 Fe1 O2 103(2) 41_555 170_555
O2 Fe1 O2 130(2) 41_555 175_555
O2 Fe1 O2 130(3) 41_555 180_555
O2 Fe1 O2 120(2) 41_555 183_555
O2 Fe1 O2 138(2) 41_555 188_555
O2 Fe1 O2 106(2) 41_555 190_555
O2 Fe1 O2 129.8(17) 45_555 76_555
O2 Fe1 O2 97.3(16) 45_555 78_555
O2 Fe1 O2 110(2) 45_555 83_555
O2 Fe1 O2 120(2) 45_555 88_555
O2 Fe1 O2 94.1(17) 45_555 90_555
O2 Fe1 O2 122.3(16) 45_555 95_555
O2 Fe1 O2 129.8(15) 45_555 123_555
O2 Fe1 O2 130.2(18) 45_555 128_555
O2 Fe1 O2 103.4(17) 45_555 130_555
O2 Fe1 O2 105.8(17) 45_555 134_555
O2 Fe1 O2 120.0(18) 45_555 139_555
O2 Fe1 O2 138.3(16) 45_555 144_555
O2 Fe1 O2 72.7(17) 45_555 170_555
O2 Fe1 O2 97.3(19) 45_555 175_555
O2 Fe1 O2 103(2) 45_555 180_555
O2 Fe1 O2 94(2) 45_555 183_555
O2 Fe1 O2 106(2) 45_555 188_555
O2 Fe1 O2 73.7(17) 45_555 190_555
O2 Fe1 O2 73.7(18) 76_555 123_555
O2 Fe1 O2 94.1(20) 76_555 128_555
O2 Fe1 O2 106(2) 76_555 130_555
O2 Fe1 O2 97(2) 76_555 134_555
O2 Fe1 O2 103(2) 76_555 139_555
O2 Fe1 O2 72.7(17) 76_555 144_555
O2 Fe1 O2 122.3(15) 76_555 170_555
O2 Fe1 O2 120.0(17) 76_555 175_555
O2 Fe1 O2 94.1(16) 76_555 180_555
O2 Fe1 O2 97.3(16) 76_555 183_555
O2 Fe1 O2 109.7(17) 76_555 188_555
O2 Fe1 O2 129.8(15) 76_555 190_555
O2 Fe1 O2 94.1(20) 78_555 123_555
O2 Fe1 O2 122(2) 78_555 128_555
O2 Fe1 O2 120(2) 78_555 130_555
O2 Fe1 O2 110(2) 78_555 134_555
O2 Fe1 O2 130(2) 78_555 139_555
O2 Fe1 O2 97.3(19) 78_555 144_555
O2 Fe1 O2 120.0(17) 78_555 170_555
O2 Fe1 O2 138(2) 78_555 175_555
O2 Fe1 O2 105.8(19) 78_555 180_555
O2 Fe1 O2 103.4(19) 78_555 183_555
O2 Fe1 O2 130(2) 78_555 188_555
O2 Fe1 O2 130.2(18) 78_555 190_555
O2 Fe1 O2 106(2) 83_555 123_555
O2 Fe1 O2 120(2) 83_555 128_555
O2 Fe1 O2 138(3) 83_555 130_555
O2 Fe1 O2 130(3) 83_555 134_555
O2 Fe1 O2 130(3) 83_555 139_555
O2 Fe1 O2 103(2) 83_555 144_555
O2 Fe1 O2 94.1(16) 83_555 170_555
O2 Fe1 O2 105.8(19) 83_555 175_555
O2 Fe1 O2 73.7(17) 83_555 180_555
O2 Fe1 O2 72.7(16) 83_555 183_555
O2 Fe1 O2 97.3(19) 83_555 188_555
O2 Fe1 O2 103.4(17) 83_555 190_555
O2 Fe1 O2 97(2) 88_555 123_555
O2 Fe1 O2 110(2) 88_555 128_555
O2 Fe1 O2 130(3) 88_555 130_555
O2 Fe1 O2 122(3) 88_555 134_555
O2 Fe1 O2 120(2) 88_555 139_555
O2 Fe1 O2 94(2) 88_555 144_555
O2 Fe1 O2 97.3(16) 88_555 170_555
O2 Fe1 O2 103.4(19) 88_555 175_555
O2 Fe1 O2 72.7(16) 88_555 180_555
O2 Fe1 O2 73.7(15) 88_555 183_555
O2 Fe1 O2 94.1(18) 88_555 188_555
O2 Fe1 O2 105.8(17) 88_555 190_555
O2 Fe1 O2 103(2) 90_555 123_555
O2 Fe1 O2 130(2) 90_555 128_555
O2 Fe1 O2 130(3) 90_555 130_555
O2 Fe1 O2 120(2) 90_555 134_555
O2 Fe1 O2 138(2) 90_555 139_555
O2 Fe1 O2 106(2) 90_555 144_555
O2 Fe1 O2 109.7(17) 90_555 170_555
O2 Fe1 O2 130(2) 90_555 175_555
O2 Fe1 O2 97.3(19) 90_555 180_555
O2 Fe1 O2 94.1(18) 90_555 183_555
O2 Fe1 O2 122(2) 90_555 188_555
O2 Fe1 O2 120.0(18) 90_555 190_555
O2 Fe1 O2 72.7(17) 95_555 123_555
O2 Fe1 O2 97.3(19) 95_555 128_555
O2 Fe1 O2 103(2) 95_555 130_555
O2 Fe1 O2 94(2) 95_555 134_555
O2 Fe1 O2 106(2) 95_555 139_555
O2 Fe1 O2 73.7(17) 95_555 144_555
O2 Fe1 O2 129.8(15) 95_555 170_555
O2 Fe1 O2 130.2(18) 95_555 175_555
O2 Fe1 O2 103.4(17) 95_555 180_555
O2 Fe1 O2 105.8(17) 95_555 183_555
O2 Fe1 O2 120.0(18) 95_555 188_555
O2 Fe1 O2 138.3(16) 95_555 190_555
O2 Fe1 O2 138.3(19) 123_555 170_555
O2 Fe1 O2 105.8(17) 123_555 175_555
O2 Fe1 O2 120(2) 123_555 180_555
O2 Fe1 O2 130(2) 123_555 183_555
O2 Fe1 O2 103.4(19) 123_555 188_555
O2 Fe1 O2 129.8(17) 123_555 190_555
O2 Fe1 O2 105.8(17) 128_555 170_555
O2 Fe1 O2 73.7(15) 128_555 175_555
O2 Fe1 O2 94(2) 128_555 180_555
O2 Fe1 O2 103(2) 128_555 183_555
O2 Fe1 O2 72.7(17) 128_555 188_555
O2 Fe1 O2 97.3(16) 128_555 190_555
O2 Fe1 O2 120(2) 130_555 170_555
O2 Fe1 O2 94(2) 130_555 175_555
O2 Fe1 O2 122(3) 130_555 180_555
O2 Fe1 O2 130(3) 130_555 183_555
O2 Fe1 O2 97(2) 130_555 188_555
O2 Fe1 O2 110(2) 130_555 190_555
O2 Fe1 O2 130(2) 134_555 170_555
O2 Fe1 O2 103(2) 134_555 175_555
O2 Fe1 O2 130(3) 134_555 180_555
O2 Fe1 O2 138(3) 134_555 183_555
O2 Fe1 O2 106(2) 134_555 188_555
O2 Fe1 O2 120(2) 134_555 190_555
O2 Fe1 O2 103.4(19) 139_555 170_555
O2 Fe1 O2 72.7(17) 139_555 175_555
O2 Fe1 O2 97(2) 139_555 180_555
O2 Fe1 O2 106(2) 139_555 183_555
O2 Fe1 O2 73.7(18) 139_555 188_555
O2 Fe1 O2 94.1(17) 139_555 190_555
O2 Fe1 O2 129.8(17) 144_555 170_555
O2 Fe1 O2 97.3(16) 144_555 175_555
O2 Fe1 O2 110(2) 144_555 180_555
O2 Fe1 O2 120(2) 144_555 183_555
O2 Fe1 O2 94.1(17) 144_555 188_555
O2 Fe1 O2 122.3(16) 144_555 190_555
loop_
_geom_bond_atom_site_label_1
_geom_bond_atom_site_label_2
_geom_bond_distance
_geom_bond_site_symmetry_2
Fe1 O2 1.85(3) 1_555
Fe1 O2 1.85(3) 2_555
Fe1 O2 1.85(3) 3_555
Fe1 O2 1.85(3) 4_555
Fe1 O2 1.85(3) 5_555
Fe1 O2 1.85(3) 6_555
Fe1 O2 1.85(3) 7_555
Fe1 O2 1.85(3) 8_555
Fe1 O2 1.846(20) 9_555
Fe1 O2 1.846(20) 10_555
Fe1 O2 1.846(20) 11_555
Fe1 O2 1.846(20) 12_555
Fe1 O2 1.85(2) 13_555
Fe1 O2 1.85(2) 14_555
Fe1 O2 1.85(2) 15_555
Fe1 O2 1.85(2) 16_555
Fe1 O2 1.85(2) 17_555
Fe1 O2 1.85(2) 18_555
Fe1 O2 1.85(2) 19_555
Fe1 O2 1.85(2) 20_555
Fe1 O2 1.85(3) 21_555
Fe1 O2 1.85(3) 22_555
Fe1 O2 1.85(3) 23_555
Fe1 O2 1.85(3) 24_555
Fe1 O2 1.87(2) 25_555
Fe1 O2 1.87(2) 29_555
Fe1 O2 1.87(3) 33_555
Fe1 O2 1.87(3) 37_555
Fe1 O2 1.87(3) 41_555
Fe1 O2 1.866(19) 45_555
Fe1 O2 1.87(2) 76_555
Fe1 O2 1.87(2) 78_555
Fe1 O2 1.87(3) 83_555
Fe1 O2 1.87(3) 88_555
Fe1 O2 1.87(3) 90_555
Fe1 O2 1.866(19) 95_555
Fe1 O2 1.87(2) 123_555
Fe1 O2 1.87(2) 128_555
Fe1 O2 1.87(3) 130_555
Fe1 O2 1.87(3) 134_555
Fe1 O2 1.87(3) 139_555
Fe1 O2 1.866(19) 144_555
Fe1 O2 1.87(2) 170_555
Fe1 O2 1.87(2) 175_555
Fe1 O2 1.87(3) 180_555
Fe1 O2 1.87(3) 183_555
Fe1 O2 1.87(3) 188_555
Fe1 O2 1.866(19) 190_555
K1 O2 2.794(17) 2_555
K1 O2 3.55(3) 3_555
K1 O2 2.79(2) 6_555
K1 O2 3.552(17) 7_555
K1 O2 2.79(3) 10_555
K1 O2 3.55(3) 11_555
K1 O2 2.79(3) 14_555
K1 O2 3.552(18) 15_555
K1 O2 2.79(2) 18_555
K1 O2 3.55(3) 19_555
K1 O2 2.794(16) 22_555
K1 O2 3.55(2) 23_555
K1 O2 3.55(3) 50_555
K1 O2 2.794(17) 51_555
K1 O2 2.79(2) 53_555
K1 O2 3.552(17) 56_555
K1 O2 3.55(3) 57_555
K1 O2 2.79(3) 60_555
K1 O2 3.552(18) 62_555
K1 O2 2.79(3) 63_555
K1 O2 2.79(2) 65_555
K1 O2 3.55(3) 68_555
K1 O2 3.55(2) 69_555
K1 O2 2.794(16) 72_555
K1 O2 2.97(3) 73_555
K1 O2 2.97(3) 74_555
K1 O2 2.97(3) 75_555
K1 O2 2.97(3) 76_555
K1 O2 3.27(2) 81_555
K1 O2 3.27(2) 82_555
K1 O2 3.27(2) 83_555
K1 O2 3.27(2) 84_555
K1 O2 2.97(2) 85_555
K1 O2 2.97(2) 86_555
K1 O2 2.97(2) 87_555
K1 O2 2.97(2) 88_555
K1 O2 3.27(3) 93_555
K1 O2 3.27(3) 94_555
K1 O2 3.27(3) 95_555
K1 O2 3.27(3) 96_555
K1 O2 3.55(3) 97_555
K1 O2 2.794(17) 100_555
K1 O2 3.552(17) 102_555
K1 O2 2.79(2) 103_555
K1 O2 2.79(3) 105_555
K1 O2 3.55(3) 108_555
K1 O2 2.79(3) 109_555
K1 O2 3.552(18) 112_555
K1 O2 3.55(3) 113_555
K1 O2 2.79(2) 116_555
K1 O2 3.55(2) 118_555
K1 O2 2.794(16) 119_555
K1 O2 3.27(3) 121_555
K1 O2 3.27(3) 122_555
K1 O2 3.27(3) 123_555
K1 O2 3.27(3) 124_555
K1 O2 2.97(3) 125_555
K1 O2 2.97(3) 126_555
K1 O2 2.97(3) 127_555
K1 O2 2.97(3) 128_555
K1 O2 3.27(3) 137_555
K1 O2 3.27(3) 138_555
K1 O2 3.27(3) 139_555
K1 O2 3.27(3) 140_555
K1 O2 2.97(3) 141_555
K1 O2 2.97(3) 142_555
K1 O2 2.97(3) 143_555
K1 O2 2.97(3) 144_555
K1 O2 2.794(17) 145_555
K1 O2 3.55(3) 148_555
K1 O2 3.552(17) 149_555
K1 O2 2.79(2) 152_555
K1 O2 3.55(3) 154_555
K1 O2 2.79(3) 155_555
K1 O2 3.552(18) 157_555
K1 O2 2.79(3) 160_555
K1 O2 3.55(3) 162_555
K1 O2 2.79(2) 163_555
K1 O2 2.794(16) 165_555
K1 O2 3.55(2) 168_555
K1 O2 3.271(18) 173_555
K1 O2 3.271(18) 174_555
K1 O2 3.271(18) 175_555
K1 O2 3.271(18) 176_555
K1 O2 2.966(16) 177_555
K1 O2 2.966(16) 178_555
K1 O2 2.966(16) 179_555
K1 O2 2.966(16) 180_555
K1 O2 3.271(16) 181_555
K1 O2 3.271(16) 182_555
K1 O2 3.271(16) 183_555
K1 O2 3.271(16) 184_555
K1 O2 2.966(18) 185_555
K1 O2 2.966(18) 186_555
K1 O2 2.966(18) 187_555
K1 O2 2.966(18) 188_555
loop_
_publcif_info_datablock.id
_publcif_info_datablock.publ_exptl
_publcif_info_datablock.structure
{cb12d846-b62d-4fcf-bf54-707e637c98f4} ? ?
{ae09a2dd-0f51-4aba-8147-d42354d48625} n y
{f54a1640-a7fd-4ab9-b8a0-66d2a8f03559} n y
{4dbe36c3-59f1-444b-b361-d4f9c554fffc} n y
{c72b8572-3440-4136-9fb1-a92515552683} n y
{417d9675-e8fe-4157-9d24-de01175781d3} n y
{417d9675-e8fe-4157-9d24-de01175781d3} n y
{417d9675-e8fe-4157-9d24-de01175781d3} n y
{417d9675-e8fe-4157-9d24-de01175781d3} n y
loop_
_publcif_info_tables.block_id
_publcif_info_tables.reference_item
{cb12d846-b62d-4fcf-bf54-707e637c98f4} '_publcif_info_datablock.publ_exptl'
loop_
_publcif_info_cif.paper_type
CE
