#------------------------------------------------------------------------------
#$Date: 2017-11-07 03:05:40 +0200 (Tue, 07 Nov 2017) $
#$Revision: 202768 $
#$URL: file:///home/coder/svn-repositories/cod/cif/1/54/72/1547285.cif $
#------------------------------------------------------------------------------
#
# This file is available in the Crystallography Open Database (COD),
# http://www.crystallography.net/
#
# All data on this site have been placed in the public domain by the
# contributors.
#
data_1547285
loop_
_publ_author_name
'Proskurnina, Natalia V.'
'Voronin, Vladimir I.'
'Shekhtman, Georgi Sh.'
'Maskaeva, Larisa N.'
'Kabanova, Natalia A.'
'Kabanov, Artem A.'
'Blatov, Vladislav A.'
_publ_section_title
;
 Ionic Conductivity in Ti-Doped KFeO2: Experiment and Mathematical
 Modeling
;
_journal_issue                   39
_journal_name_full               'The Journal of Physical Chemistry C'
_journal_page_first              21128
_journal_paper_doi               10.1021/acs.jpcc.7b05164
_journal_volume                  121
_journal_year                    2017
_chemical_formula_iupac          K14.4Fe14.4Ti1.6O32
_chemical_formula_sum            'Fe14.4 K14.4 O32 Ti1.6'
_chemical_formula_weight         1955.42
_space_group_IT_number           61
_symmetry_cell_setting           orthorhombic
_symmetry_space_group_name_Hall  '-P 2ac 2ab'
_symmetry_space_group_name_H-M   'P b c a'
_cell_angle_alpha                90.00000
_cell_angle_beta                 90.00000
_cell_angle_gamma                90.00000
_cell_formula_units_Z            1
_cell_length_a                   5.6443(5)
_cell_length_b                   11.3472(10)
_cell_length_c                   15.9872(11)
_cell_measurement_temperature    500
_cell_volume                     1023.93(15)
_computing_structure_refinement  FULLPROF
_diffrn_ambient_temperature      500
_diffrn_measurement_device_type  'HRPT neutron diffraction'
_diffrn_radiation_type           Neutron
_diffrn_radiation_wavelength     1.49400
_diffrn_source                   'nuclear reactor'
_pd_meas_2theta_range_inc        0.050000
_pd_meas_2theta_range_max        164.89999
_pd_meas_2theta_range_min        4.55000
_pd_meas_number_of_points        3208
_pd_proc_2theta_range_inc        0.050000
_pd_proc_2theta_range_max        164.8760
_pd_proc_2theta_range_min        4.5260
_pd_proc_ls_prof_R_factor        4.3511
_pd_proc_ls_prof_wR_expected     4.1744
_pd_proc_ls_prof_wR_factor       5.5371
_pd_proc_wavelength              1.494000
_refine_ls_goodness_of_fit_all   1.7595
_refine_ls_number_parameters     58
_refine_ls_number_reflns         1273
_refine_ls_number_restraints     0
_refine_ls_R_I_factor            6.9791
_cod_data_source_file            jp7b05164_si_002.cif
_cod_data_source_block           heat_500K
_cod_depositor_comments
'Adding full bibliography for 1547283--1547290.cif.'
_cod_original_cell_volume        1023.93(14)
_cod_original_formula_sum        'Fe14.40 K14.40 O32 Ti1.60'
_cod_database_code               1547285
_publcif_datablock.id            {4dbe36c3-59f1-444b-b361-d4f9c554fffc}
_pd_proc_ls_prof_cr_factor       17.3033
_pd_proc_ls_prof_cwr_factor      15.4633
_pd_proc_ls_prof_cwr_expected    11.6576
_pd_proc_ls_prof_chi2            1.7595
_pd_proc_ls_prof_echi2           1.7595
loop_
_symmetry_equiv_pos_as_xyz
x,y,z
x+1/2,-y+1/2,-z
-x,y+1/2,-z+1/2
-x+1/2,-y,z+1/2
-x,-y,-z
-x+1/2,y+1/2,z
x,-y+1/2,z+1/2
x+1/2,y,-z+1/2
loop_
_atom_site_label
_atom_site_fract_x
_atom_site_fract_y
_atom_site_fract_z
_atom_site_U_iso_or_equiv
_atom_site_occupancy
_atom_site_adp_type
_atom_site_type_symbol
O1 0.5537(20) 0.2897(10) 0.0177(7) 0.0383(9) 1.00000 Uiso O
O2 0.159(2) 0.4027(11) 0.1034(7) 0.0383(9) 1.00000 Uiso O
O3 0.3091(20) 0.1644(10) 0.1535(6) 0.0383(9) 1.00000 Uiso O
O4 0.062(3) 0.4778(10) 0.2794(9) 0.0383(9) 1.00000 Uiso O
K1 0.708(4) 0.001(2) 0.054(2) 0.049(3) 0.92(2) Uiso K
K2 0.771(3) 0.2588(20) 0.182(2) 0.049(3) 0.88(2) Uiso K
Fe1 0.2510(13) 0.0068(5) 0.1869(5) 0.0208(5) 1.00000 Uiso FE
Ti1 0.2510(13) 0.0068(5) 0.1869(5) 0.0208(5) 0.00000 Uiso TI
Fe2 0.2739(11) 0.2599(7) 0.0648(7) 0.0208(5) 0.80000 Uiso FE
Ti2 0.2739(11) 0.2599(7) 0.0648(7) 0.0208(5) 0.20000 Uiso TI
loop_
_atom_type_symbol
_atom_type_scat_length_neutron
_atom_type_scat_source
O 0.58030 V.F._Sears_Neutron_News_3_26_(1992)
K 0.36700 V.F._Sears_Neutron_News_3_26_(1992)
FE 0.94500 V.F._Sears_Neutron_News_3_26_(1992)
TI -0.34380 V.F._Sears_Neutron_News_3_26_(1992)
loop_
_geom_angle_atom_site_label_1
_geom_angle_atom_site_label_2
_geom_angle_atom_site_label_3
_geom_angle
_geom_angle_site_symmetry_1
_geom_angle_site_symmetry_3
O2 Fe1 O3 110.6(10) 6_545 1_555
O2 Fe1 O4 110.7(12) 6_545 3_545
O2 Fe1 O4 107.9(11) 6_545 6_545
O3 Fe1 O4 114.2(11) 1_555 3_545
O3 Fe1 O4 107.2(11) 1_555 6_545
O4 Fe1 O4 106.1(14) 3_545 6_545
O1 Fe2 O1 110.1(10) 1_555 2_455
O1 Fe2 O2 106.6(10) 1_555 1_555
O1 Fe2 O3 110.5(10) 1_555 1_555
O1 Fe2 O2 105.2(10) 2_455 1_555
O1 Fe2 O3 116.3(10) 2_455 1_555
O2 Fe2 O3 107.7(11) 1_555 1_555
loop_
_geom_bond_atom_site_label_1
_geom_bond_atom_site_label_2
_geom_bond_distance
_geom_bond_site_symmetry_2
K1 O1 3.44(3) 1_555
K1 O1 3.28(3) 2_555
K1 O1 2.81(3) 6_645
K1 O2 2.76(3) 2_555
K1 O2 2.48(3) 6_545
K1 O3 3.32(3) 1_555
K1 O4 2.97(3) 3_645
K2 O1 2.92(3) 1_555
K2 O1 3.61(3) 2_555
K2 O2 3.01(2) 1_655
K2 O3 2.86(2) 1_555
K2 O3 3.25(2) 1_655
K2 O3 2.85(3) 8_555
K2 O4 3.36(3) 1_655
K2 O4 3.38(3) 3_645
K2 O4 2.82(3) 8_555
Fe1 O2 1.853(14) 6_545
Fe1 O3 1.895(13) 1_555
Fe1 O4 1.876(18) 3_545
Fe1 O4 1.846(17) 6_545
Fe2 O1 1.782(13) 1_555
Fe2 O1 1.898(14) 2_455
Fe2 O2 1.851(15) 1_555
Fe2 O3 1.796(14) 1_555
