#------------------------------------------------------------------------------
#$Date: 2023-12-06 15:08:03 +0200 (Wed, 06 Dec 2023) $
#$Revision: 288072 $
#$URL: file:///home/coder/svn-repositories/cod/cif/1/54/73/1547350.cif $
#------------------------------------------------------------------------------
#
# This file is available in the Crystallography Open Database (COD),
# http://www.crystallography.net/
#
# All data on this site have been placed in the public domain by the
# contributors.
#
data_1547350
loop_
_publ_author_name
'Nobuo Ishizawa'
'Hayato Setoguchi'
'Kazumichi Yanagisawa'
_publ_section_title
;
 Structural evolution of calcite at high temperatures: Phase V unveiled
;
_journal_name_full               'Scientific Reports'
_journal_page_first              2832
_journal_paper_doi               10.1038/srep02832
_journal_volume                  3
_journal_year                    2013
_chemical_absolute_configuration .
_chemical_formula_sum            'C Ca O3'
_chemical_formula_weight         100.1
_space_group_IT_number           167
_symmetry_cell_setting           trigonal
_symmetry_Int_Tables_number      167
_symmetry_space_group_name_Hall  '-R 3 2"c'
_symmetry_space_group_name_H-M   'R -3 c :H'
_cell_angle_alpha                90
_cell_angle_beta                 90
_cell_angle_gamma                120
_cell_formula_units_Z            6
_cell_length_a                   4.9876
_cell_length_b                   4.9876
_cell_length_c                   17.0575(5)
_cell_measurement_temperature    295
_cell_volume                     367.476(11)
_diffrn_ambient_temperature      295
_diffrn_measured_fraction_theta_full 1
_diffrn_measured_fraction_theta_max 1
_diffrn_measurement_device       'four-cycle diffractometer'
_diffrn_measurement_device_type  'Bruker CCD'
_diffrn_radiation_monochromator  graphite
_diffrn_radiation_probe          x-ray
_diffrn_radiation_source         'X-ray tube'
_diffrn_radiation_type           'Mo K\a'
_diffrn_radiation_wavelength     0.71073
_diffrn_reflns_av_R_equivalents  0.0182
_diffrn_reflns_av_sigmaI/netI    0.0127
_diffrn_reflns_limit_h_max       6
_diffrn_reflns_limit_h_min       -5
_diffrn_reflns_limit_k_max       6
_diffrn_reflns_limit_k_min       -6
_diffrn_reflns_limit_l_max       22
_diffrn_reflns_limit_l_min       -24
_diffrn_reflns_number            737
_diffrn_reflns_theta_full        30
_diffrn_reflns_theta_max         30
_diffrn_reflns_theta_min         5.29
_exptl_absorpt_coefficient_mu    2.284
_exptl_crystal_density_diffrn    2.7128
_exptl_crystal_F_000             300
_refine_diff_density_max         0.27
_refine_diff_density_min         -0.41
_refine_ls_extinction_coef       2400(300)
_refine_ls_extinction_method
'B-C type 1 Gaussian isotropic (Becker & Coppens, 1974)'
_refine_ls_goodness_of_fit_gt    2.18
_refine_ls_goodness_of_fit_ref   2.17
_refine_ls_number_constraints    0
_refine_ls_number_parameters     15
_refine_ls_number_reflns         121
_refine_ls_number_restraints     0
_refine_ls_R_factor_all          0.0207
_refine_ls_R_factor_gt           0.0207
_refine_ls_shift/su_max          0.0162
_refine_ls_shift/su_mean         0.0044
_refine_ls_structure_factor_coef F
_refine_ls_weighting_details     w=1/(\s^2^(F)+0.0001F^2^)
_refine_ls_weighting_scheme      sigma
_refine_ls_wR_factor_gt          0.0264
_refine_ls_wR_factor_ref         0.0264
_reflns_number_gt                120
_reflns_number_total             121
_reflns_threshold_expression     I>3\s(I)
_cod_data_source_file            srep02832-s25.cif
_cod_data_source_block           295K_hs11_RT_I_anharm_in_air
_cod_depositor_comments
;
The following automatic conversions were performed:

'_diffrn_radiation_probe' value 'X-ray' changed to 'x-ray' according
to the built-in table from CIF Core dictionary named 'cif_core.dic'
version 2.4.1 from 2010-06-29.

Automatic conversion script
Id: cif_fix_values 5376 2017-05-30 11:51:03Z andrius 

The following automatic conversions were performed:

data name '_atom_site_site_symmetry_mutiplicity' was replaced with
'_atom_site_site_symmetry_multiplicity' as specified in the
replacement file 'data/replacement-values/replacement_tags.lst'.

Automatic conversion script
Id: cif_correct_tags 9268 2022-04-12 08:56:07Z antanas 
;
_cod_original_sg_symbol_Hall     '-R 3;-2"c'
_cod_original_sg_symbol_H-M      'R -3 c'
_cod_original_formula_sum        'C1 Ca1 O3'
_cod_database_code               1547350
loop_
_symmetry_equiv_pos_site_id
_symmetry_equiv_pos_as_xyz
1 x,y,z
2 -y,x-y,z
3 -x+y,-x,z
4 y,x,-z+1/2
5 x-y,-y,-z+1/2
6 -x,-x+y,-z+1/2
7 -x,-y,-z
8 y,-x+y,-z
9 x-y,x,-z
10 -y,-x,z+1/2
11 -x+y,y,z+1/2
12 x,x-y,z+1/2
13 x+2/3,y+1/3,z+1/3
14 -y+2/3,x-y+1/3,z+1/3
15 -x+y+2/3,-x+1/3,z+1/3
16 y+2/3,x+1/3,-z+5/6
17 x-y+2/3,-y+1/3,-z+5/6
18 -x+2/3,-x+y+1/3,-z+5/6
19 -x+2/3,-y+1/3,-z+1/3
20 y+2/3,-x+y+1/3,-z+1/3
21 x-y+2/3,x+1/3,-z+1/3
22 -y+2/3,-x+1/3,z+5/6
23 -x+y+2/3,y+1/3,z+5/6
24 x+2/3,x-y+1/3,z+5/6
25 x+1/3,y+2/3,z+2/3
26 -y+1/3,x-y+2/3,z+2/3
27 -x+y+1/3,-x+2/3,z+2/3
28 y+1/3,x+2/3,-z+1/6
29 x-y+1/3,-y+2/3,-z+1/6
30 -x+1/3,-x+y+2/3,-z+1/6
31 -x+1/3,-y+2/3,-z+2/3
32 y+1/3,-x+y+2/3,-z+2/3
33 x-y+1/3,x+2/3,-z+2/3
34 -y+1/3,-x+2/3,z+1/6
35 -x+y+1/3,y+2/3,z+1/6
36 x+1/3,x-y+2/3,z+1/6
loop_
_atom_site_label
_atom_site_type_symbol
_atom_site_fract_x
_atom_site_fract_y
_atom_site_fract_z
_atom_site_adp_type
_atom_site_U_iso_or_equiv
_atom_site_site_symmetry_multiplicity
_atom_site_occupancy
_atom_site_calc_flag
_atom_site_refinement_flags
_atom_site_disorder_assembly
_atom_site_disorder_group
Ca1 Ca 0 0 0 Uani 0.0116(3) 6 1 d . . .
C1 C 0 0 0.25 Uani 0.0115(7) 6 1 d . . .
O1 O 0.2550(4) 0 0.25 Uani 0.0186(4) 18 1 d . . .
loop_
_atom_site_aniso_label
_atom_site_aniso_type_symbol
_atom_site_aniso_U_11
_atom_site_aniso_U_22
_atom_site_aniso_U_33
_atom_site_aniso_U_12
_atom_site_aniso_U_13
_atom_site_aniso_U_23
Ca1 Ca 0.0117(3) 0.0117(3) 0.0112(4) 0.00587(17) 0 0
C1 C 0.0114(9) 0.0114(9) 0.0117(13) 0.0057(4) 0 0
O1 O 0.0142(5) 0.0232(6) 0.0213(6) 0.0116(3) -0.00424(15) -0.0085(3)
loop_
_atom_type_symbol
_atom_type_scat_dispersion_real
_atom_type_scat_dispersion_imag
_atom_type_scat_source
C 0.0033 0.0016 'International Tables Vol C tables 4.2.6.8 and 6.1.1.1'
Ca 0.2262 0.3064 'International Tables Vol C tables 4.2.6.8 and 6.1.1.1'
O 0.0106 0.0060 'International Tables Vol C tables 4.2.6.8 and 6.1.1.1'
loop_
_geom_bond_atom_site_label_1
_geom_bond_atom_site_label_2
_geom_bond_site_symmetry_1
_geom_bond_site_symmetry_2
_geom_bond_distance
Ca1 Ca1 . 16_444 4.04651(12)
Ca1 Ca1 . 16_454 4.04651(12)
Ca1 Ca1 . 16_554 4.04651(12)
Ca1 Ca1 . 28_445 4.04651(12)
Ca1 Ca1 . 28_545 4.04651(12)
Ca1 Ca1 . 28_555 4.04651(12)
Ca1 C1 . 25_444 3.21132(4)
Ca1 C1 . 25_544 3.21132(4)
Ca1 C1 . 25_554 3.21132(4)
Ca1 C1 . 19_445 3.21132(4)
Ca1 C1 . 19_455 3.21132(4)
Ca1 C1 . 19_555 3.21132(4)
Ca1 O1 . 25_444 2.3635(11)
Ca1 O1 . 26_544 2.3635(11)
Ca1 O1 . 27_554 2.3635(18)
Ca1 O1 . 19_555 2.3635(11)
Ca1 O1 . 20_455 2.3635(11)
Ca1 O1 . 21_445 2.3635(18)
C1 O1 . . 1.272(2)
C1 O1 . 2_555 1.272(2)
C1 O1 . 3_555 1.2720(15)
loop_
_refln_index_h
_refln_index_k
_refln_index_l
_refln_F_squared_calc
_refln_F_squared_meas
_refln_F_squared_sigma
_refln_observed_status
-1 2 0 4896.59 4461.92 80.84 o
0 3 0 8336.42 7941.01 74.46 o
-2 4 0 2370.31 2365.12 22.36 o
-1 5 0 2691.74 2570.85 24.61 o
-3 6 0 1071.74 1039.60 19.78 o
0 6 0 639.60 620.49 13.92 o
-2 3 1 1645.65 1710.49 12.88 o
-1 4 1 9.17 9.99 0.54 o
-3 5 1 441.50 417.70 5.54 o
-5 6 1 194.68 198.70 3.97 o
-2 6 1 11.83 12.38 0.98 o
0 1 2 1094.47 1198.40 18.44 o
-2 2 2 7957.41 11781.20 297.21 o
-1 3 2 4769.45 4596.71 37.65 o
-3 4 2 552.89 526.22 5.59 o
0 4 2 3.87 4.70 0.53 o
-5 5 2 624.84 596.47 10.42 o
-2 5 2 1823.77 1805.33 14.79 o
-4 6 2 1017.23 1007.04 12.35 o
-1 6 2 1030.16 1048.93 12.90 o
-1 2 3 3738.43 4179.20 48.27 o
-2 4 3 19.62 17.26 0.55 o
-4 5 3 0.69 0.78 0.29 <
-1 5 3 0.20 2.14 0.68 o
-3 6 3 100.05 98.11 2.80 o
-1 1 4 21731.30 21493.80 366.37 o
0 2 4 4138.16 3907.38 33.49 o
-2 3 4 3105.27 3028.02 23.29 o
-4 4 4 6954.05 6627.58 86.99 o
-1 4 4 5004.59 4963.76 36.20 o
-3 5 4 1386.09 1389.79 13.26 o
0 5 4 1876.42 1869.88 32.37 o
-5 6 4 707.84 692.89 8.63 o
-2 6 4 893.73 907.66 11.09 o
-1 3 5 1325.84 1361.33 8.62 o
-3 4 5 22.22 20.49 0.76 o
-2 5 5 344.27 352.40 3.70 o
-4 6 5 11.58 12.39 1.01 o
-1 6 5 178.48 186.61 4.81 o
0 0 6 1399.39 1740.92 26.71 o
-1 2 6 6847.90 7142.29 47.18 o
-3 3 6 647.24 624.09 7.25 o
0 3 6 540.86 536.06 6.44 o
-2 4 6 2326.19 2226.95 15.82 o
-4 5 6 491.39 497.22 6.92 o
-1 5 6 549.09 549.92 6.01 o
-3 6 6 944.39 965.14 11.97 o
-2 3 7 927.10 945.62 7.27 o
-1 4 7 0.51 1.31 0.21 o
-3 5 7 363.68 356.74 4.99 o
-5 6 7 158.75 157.99 3.73 o
-2 6 7 8.91 7.71 0.81 o
0 1 8 12716.70 12512.90 133.61 o
-2 2 8 2613.58 2684.77 23.85 o
-1 3 8 2596.23 2607.96 17.77 o
-3 4 8 4046.65 3923.44 29.71 o
0 4 8 5490.85 5288.64 45.37 o
-5 5 8 1485.33 1457.35 22.13 o
-2 5 8 1100.82 1136.51 10.07 o
-4 6 8 939.92 938.90 11.92 o
-1 6 8 683.12 716.38 9.24 o
-1 2 9 1485.53 1581.58 10.91 o
-2 4 9 11.85 12.58 0.55 o
-4 5 9 2.60 3.70 0.71 o
-1 5 9 2.38 3.80 0.49 o
-3 6 9 73.25 73.51 2.24 o
-1 1 10 1089.23 1051.56 9.32 o
0 2 10 3304.82 3234.17 29.40 o
-2 3 10 2671.39 2598.13 18.25 o
-4 4 10 19.48 22.50 1.76 o
-1 4 10 466.92 471.11 4.10 o
-3 5 10 1154.85 1131.53 9.88 o
0 5 10 411.54 418.08 6.90 o
-2 6 10 882.12 900.77 9.42 o
-1 3 11 582.52 580.73 4.76 o
-3 4 11 23.17 22.97 0.78 o
-2 5 11 184.35 193.80 2.91 o
-4 6 11 8.65 7.75 1.09 o
0 0 12 14511.10 13867.00 323.69 o
-1 2 12 2100.91 2071.86 13.54 o
-3 3 12 3572.63 3572.60 46.24 o
0 3 12 3922.29 3943.41 38.98 o
-2 4 12 1429.91 1452.17 11.37 o
-4 5 12 1770.77 1774.49 23.03 o
-1 5 12 1612.35 1666.30 15.50 o
-3 6 12 774.39 804.40 10.50 o
-2 3 13 328.95 333.75 3.29 o
-1 4 13 0.55 2.08 0.36 o
-3 5 13 216.64 225.73 3.23 o
0 1 14 703.03 688.22 8.94 o
-2 2 14 2359.30 2284.74 23.00 o
-1 3 14 1519.31 1489.52 11.40 o
-3 4 14 338.94 326.15 5.08 o
0 4 14 38.53 37.42 1.70 o
-2 5 14 1002.58 997.08 10.14 o
-1 2 15 428.24 418.59 4.18 o
-2 4 15 5.62 6.29 0.56 o
-4 5 15 3.01 3.43 0.80 o
-1 5 15 4.17 3.43 0.55 o
-1 1 16 3500.81 3390.19 34.26 o
0 2 16 1604.53 1557.32 18.72 o
-2 3 16 1231.87 1214.60 10.69 o
-4 4 16 2747.49 2796.88 37.83 o
-1 4 16 1938.38 1968.96 17.64 o
-3 5 16 828.22 864.92 9.97 o
-1 3 17 213.18 207.21 2.99 o
-3 4 17 16.42 16.81 1.16 o
0 0 18 36.76 37.18 3.01 o
-1 2 18 1341.54 1354.44 12.72 o
-3 3 18 350.70 353.15 7.14 o
0 3 18 260.56 271.02 5.25 o
-2 4 18 796.48 802.78 8.60 o
-2 3 19 106.92 106.22 2.22 o
-1 4 19 1.60 1.85 0.46 o
0 1 20 2173.23 2119.41 28.04 o
-2 2 20 856.11 854.78 13.68 o
-1 3 20 977.27 1002.33 10.99 o
-1 2 21 131.94 127.92 2.99 o
-1 1 22 378.79 396.06 7.64 o
0 2 22 646.96 656.80 11.60 o
0 0 24 2103.74 1988.10 47.28 o
loop_
_jana_atom_site_adp_c_label
_jana_atom_site_adp_c_type_symbol
_jana_atom_site_adp_c_111
_jana_atom_site_adp_c_112
_jana_atom_site_adp_c_113
_jana_atom_site_adp_c_122
_jana_atom_site_adp_c_123
_jana_atom_site_adp_c_133
_jana_atom_site_adp_c_222
_jana_atom_site_adp_c_223
_jana_atom_site_adp_c_233
_jana_atom_site_adp_c_333
O1 O -0.017(4) 0.000(3) 0.0004(3) 0.000(3) 0.0004(3) -0.00013(11) 0 0 0 0
