#------------------------------------------------------------------------------
#$Date: 2023-12-06 15:08:03 +0200 (Wed, 06 Dec 2023) $
#$Revision: 288072 $
#$URL: file:///home/coder/svn-repositories/cod/cif/1/54/73/1547379.cif $
#------------------------------------------------------------------------------
#
# This file is available in the Crystallography Open Database (COD),
# http://www.crystallography.net/
#
# All data on this site have been placed in the public domain by the
# contributors.
#
data_1547379
loop_
_publ_author_name
'Nobuo Ishizawa'
'Hayato Setoguchi'
'Kazumichi Yanagisawa'
_publ_section_title
;
 Structural evolution of calcite at high temperatures: Phase V unveiled
;
_journal_name_full               'Scientific Reports'
_journal_page_first              2832
_journal_paper_doi               10.1038/srep02832
_journal_volume                  3
_journal_year                    2013
_chemical_absolute_configuration .
_chemical_formula_sum            'C Ca O3'
_chemical_formula_weight         100.1
_space_group_IT_number           167
_symmetry_cell_setting           trigonal
_symmetry_Int_Tables_number      167
_symmetry_space_group_name_Hall  '-R 3 2"c'
_symmetry_space_group_name_H-M   'R -3 c :H'
_cell_angle_alpha                90
_cell_angle_beta                 90
_cell_angle_gamma                120
_cell_formula_units_Z            6
_cell_length_a                   4.9728
_cell_length_b                   4.9728
_cell_length_c                   17.6811(3)
_cell_measurement_temperature    1182
_cell_volume                     378.653(6)
_diffrn_ambient_temperature      1182
_diffrn_measured_fraction_theta_full 1
_diffrn_measured_fraction_theta_max 1
_diffrn_measurement_device       'four-cycle diffractometer'
_diffrn_measurement_device_type  'Bruker CCD'
_diffrn_radiation_monochromator  graphite
_diffrn_radiation_probe          x-ray
_diffrn_radiation_source         'X-ray tube'
_diffrn_radiation_type           'Mo K\a'
_diffrn_radiation_wavelength     0.71073
_diffrn_reflns_av_R_equivalents  0.0252
_diffrn_reflns_av_sigmaI/netI    0.0114
_diffrn_reflns_limit_h_max       4
_diffrn_reflns_limit_h_min       -7
_diffrn_reflns_limit_k_max       8
_diffrn_reflns_limit_k_min       -4
_diffrn_reflns_limit_l_max       28
_diffrn_reflns_limit_l_min       -24
_diffrn_reflns_number            1352
_diffrn_reflns_theta_full        34.93
_diffrn_reflns_theta_max         34.93
_diffrn_reflns_theta_min         5.27
_exptl_absorpt_coefficient_mu    2.217
_exptl_crystal_density_diffrn    2.6327
_exptl_crystal_F_000             300
_refine_diff_density_max         0.10
_refine_diff_density_min         -0.17
_refine_ls_extinction_method     none
_refine_ls_goodness_of_fit_gt    2.27
_refine_ls_goodness_of_fit_ref   1.96
_refine_ls_number_constraints    9
_refine_ls_number_parameters     15
_refine_ls_number_reflns         190
_refine_ls_number_restraints     0
_refine_ls_R_factor_all          0.0322
_refine_ls_R_factor_gt           0.0249
_refine_ls_shift/su_max          0.0017
_refine_ls_shift/su_mean         0.0005
_refine_ls_structure_factor_coef F
_refine_ls_weighting_details     w=1/(\s^2^(F)+0.0001F^2^)
_refine_ls_weighting_scheme      sigma
_refine_ls_wR_factor_gt          0.0334
_refine_ls_wR_factor_ref         0.0345
_reflns_number_gt                138
_reflns_number_total             190
_reflns_threshold_expression     I>3\s(I)
_cod_data_source_file            srep02832-s3-Copie8.cif
_cod_data_source_block           1182K_hs30_h880_IV_anharm
_cod_depositor_comments
;
The following automatic conversions were performed:

'_diffrn_radiation_probe' value 'X-ray' changed to 'x-ray' according
to the built-in table from CIF Core dictionary named 'cif_core.dic'
version 2.4.1 from 2010-06-29.

Automatic conversion script
Id: cif_fix_values 5376 2017-05-30 11:51:03Z andrius 

The following automatic conversions were performed:

data name '_atom_site_site_symmetry_mutiplicity' was replaced with
'_atom_site_site_symmetry_multiplicity' as specified in the
replacement file 'data/replacement-values/replacement_tags.lst'.

Automatic conversion script
Id: cif_correct_tags 9268 2022-04-12 08:56:07Z antanas 
;
_cod_original_sg_symbol_Hall     '-R 3;-2"c'
_cod_original_sg_symbol_H-M      'R -3 c'
_cod_original_formula_sum        'C1 Ca1 O3'
_cod_database_code               1547379
loop_
_symmetry_equiv_pos_site_id
_symmetry_equiv_pos_as_xyz
1 x,y,z
2 -y,x-y,z
3 -x+y,-x,z
4 y,x,-z+1/2
5 x-y,-y,-z+1/2
6 -x,-x+y,-z+1/2
7 -x,-y,-z
8 y,-x+y,-z
9 x-y,x,-z
10 -y,-x,z+1/2
11 -x+y,y,z+1/2
12 x,x-y,z+1/2
13 x+2/3,y+1/3,z+1/3
14 -y+2/3,x-y+1/3,z+1/3
15 -x+y+2/3,-x+1/3,z+1/3
16 y+2/3,x+1/3,-z+5/6
17 x-y+2/3,-y+1/3,-z+5/6
18 -x+2/3,-x+y+1/3,-z+5/6
19 -x+2/3,-y+1/3,-z+1/3
20 y+2/3,-x+y+1/3,-z+1/3
21 x-y+2/3,x+1/3,-z+1/3
22 -y+2/3,-x+1/3,z+5/6
23 -x+y+2/3,y+1/3,z+5/6
24 x+2/3,x-y+1/3,z+5/6
25 x+1/3,y+2/3,z+2/3
26 -y+1/3,x-y+2/3,z+2/3
27 -x+y+1/3,-x+2/3,z+2/3
28 y+1/3,x+2/3,-z+1/6
29 x-y+1/3,-y+2/3,-z+1/6
30 -x+1/3,-x+y+2/3,-z+1/6
31 -x+1/3,-y+2/3,-z+2/3
32 y+1/3,-x+y+2/3,-z+2/3
33 x-y+1/3,x+2/3,-z+2/3
34 -y+1/3,-x+2/3,z+1/6
35 -x+y+1/3,y+2/3,z+1/6
36 x+1/3,x-y+2/3,z+1/6
loop_
_atom_site_label
_atom_site_type_symbol
_atom_site_fract_x
_atom_site_fract_y
_atom_site_fract_z
_atom_site_adp_type
_atom_site_U_iso_or_equiv
_atom_site_site_symmetry_multiplicity
_atom_site_occupancy
_atom_site_calc_flag
_atom_site_refinement_flags
_atom_site_disorder_assembly
_atom_site_disorder_group
Ca1 Ca 0 0 0 Uani 0.0611(2) 6 1 d . . .
C1 C 0 0 0.25 Uani 0.0514(6) 6 1 d . . .
O1 O 0.2444(9) 0 0.25 Uani 0.1189(17) 18 0.910(5) d . . .
O2 O -0.2444(9) 0 0.25 Uani 0.1189(17) 18 0.090(5) d . . .
loop_
_atom_site_aniso_label
_atom_site_aniso_type_symbol
_atom_site_aniso_U_11
_atom_site_aniso_U_22
_atom_site_aniso_U_33
_atom_site_aniso_U_12
_atom_site_aniso_U_13
_atom_site_aniso_U_23
Ca1 Ca 0.0624(3) 0.0624(3) 0.0584(4) 0.03120(16) 0 0
C1 C 0.0479(7) 0.0479(7) 0.0583(12) 0.0240(4) 0 0
O1 O 0.0817(9) 0.177(3) 0.1297(17) 0.0885(15) -0.0343(9) -0.0685(19)
O2 O 0.0817(9) 0.177(3) 0.1297(17) 0.0885(15) -0.0343(9) -0.0685(19)
loop_
_atom_type_symbol
_atom_type_scat_dispersion_real
_atom_type_scat_dispersion_imag
_atom_type_scat_source
C 0.0033 0.0016 'International Tables Vol C tables 4.2.6.8 and 6.1.1.1'
Ca 0.2262 0.3064 'International Tables Vol C tables 4.2.6.8 and 6.1.1.1'
O 0.0106 0.0060 'International Tables Vol C tables 4.2.6.8 and 6.1.1.1'
loop_
_geom_bond_atom_site_label_1
_geom_bond_atom_site_label_2
_geom_bond_site_symmetry_1
_geom_bond_site_symmetry_2
_geom_bond_distance
Ca1 Ca1 . 16_444 4.11422(7)
Ca1 Ca1 . 16_454 4.11422(7)
Ca1 Ca1 . 16_554 4.11422(7)
Ca1 Ca1 . 28_445 4.11422(7)
Ca1 Ca1 . 28_545 4.11422(7)
Ca1 Ca1 . 28_555 4.11422(7)
Ca1 C1 . 25_444 3.22706(2)
Ca1 C1 . 25_544 3.22706(2)
Ca1 C1 . 25_554 3.22706(2)
Ca1 C1 . 19_445 3.22706(2)
Ca1 C1 . 19_455 3.22706(2)
Ca1 C1 . 19_555 3.22706(2)
Ca1 O1 . 25_444 2.418(2)
Ca1 O1 . 26_544 2.418(2)
Ca1 O1 . 27_554 2.418(4)
Ca1 O1 . 19_555 2.418(2)
Ca1 O1 . 20_455 2.418(2)
Ca1 O1 . 21_445 2.418(4)
Ca1 O2 . 25_544 2.418(2)
Ca1 O2 . 26_554 2.418(2)
Ca1 O2 . 27_444 2.418(4)
Ca1 O2 . 19_455 2.418(2)
Ca1 O2 . 20_445 2.418(2)
Ca1 O2 . 21_555 2.418(4)
C1 O1 . . 1.215(4)
C1 O1 . 2_555 1.215(4)
C1 O1 . 3_555 1.215(3)
C1 O2 . . 1.215(4)
C1 O2 . 2_555 1.215(4)
C1 O2 . 3_555 1.215(3)
O1 O2 . 2_555 1.215(3)
O1 O2 . 3_555 1.215(5)
loop_
_refln_index_h
_refln_index_k
_refln_index_l
_refln_F_squared_calc
_refln_F_squared_meas
_refln_F_squared_sigma
_refln_observed_status
-1 2 0 3717.84 3753.87 27.79 o
0 3 0 2300.86 2268.94 22.04 o
-2 4 0 1343.97 1382.27 14.97 o
-1 5 0 281.44 283.44 2.88 o
-3 6 0 55.52 63.90 1.48 o
0 6 0 17.53 17.31 0.89 o
-2 7 0 17.33 15.56 0.89 o
-4 8 0 9.14 6.86 1.51 o
-2 3 1 313.49 339.04 2.13 o
-1 4 1 1.57 0.96 0.15 o
-3 5 1 27.73 26.28 0.55 o
-5 6 1 0.68 0.98 0.27 o
-2 6 1 0.05 -0.27 0.19 <
-4 7 1 1.51 2.71 0.38 o
-1 7 1 0.06 -0.03 0.63 <
0 1 2 816.44 857.67 6.54 o
-2 2 2 6143.91 6344.97 54.72 o
-1 3 2 1832.01 1894.31 11.20 o
-3 4 2 98.62 107.00 1.08 o
0 4 2 36.99 37.34 0.89 o
-5 5 2 46.51 47.29 1.24 o
-2 5 2 104.42 93.86 1.17 o
-4 6 2 45.51 43.59 0.86 o
-1 6 2 25.95 29.19 0.74 o
-6 7 2 1.88 1.97 0.75 <
-3 7 2 5.43 4.79 0.46 o
-1 2 3 891.39 958.12 5.21 o
-2 4 3 0.41 0.15 0.14 <
-4 5 3 4.19 5.23 0.34 o
-1 5 3 1.52 1.13 0.21 o
-3 6 3 0.36 0.26 0.22 <
-5 7 3 1.02 0.55 0.62 <
-2 7 3 0.51 -0.12 0.57 <
-1 1 4 17036.00 15331.00 174.05 o
0 2 4 2981.63 2887.56 20.53 o
-2 3 4 1374.60 1412.32 8.20 o
-4 4 4 931.82 913.91 10.67 o
-1 4 4 1128.11 1163.60 8.03 o
-3 5 4 311.02 322.76 3.00 o
0 5 4 102.30 93.38 1.85 o
-5 6 4 26.41 25.46 0.79 o
-2 6 4 47.22 45.54 0.93 o
-4 7 4 19.99 20.65 0.89 o
-1 7 4 9.66 9.42 1.18 o
-1 3 5 218.01 222.80 1.60 o
-3 4 5 7.60 9.01 0.29 o
-2 5 5 13.47 11.80 0.38 o
-4 6 5 0.05 0.26 0.24 <
-1 6 5 0.42 0.91 0.31 <
-6 7 5 0.08 0.22 0.69 <
-3 7 5 0.74 0.81 0.41 <
0 0 6 517.74 657.97 11.44 o
-1 2 6 3631.37 3769.40 22.15 o
-3 3 6 481.84 502.42 5.08 o
0 3 6 276.89 258.90 2.80 o
-2 4 6 226.70 208.48 1.96 o
-4 5 6 30.72 31.24 0.75 o
-1 5 6 54.63 54.34 0.89 o
-6 6 6 12.40 10.17 1.66 o
-3 6 6 39.23 36.52 0.82 o
0 6 6 6.45 5.42 0.77 o
-5 7 6 3.51 2.68 1.10 <
-2 7 6 2.51 1.44 0.93 <
-2 3 7 96.29 92.35 0.77 o
-1 4 7 0.13 0.39 0.14 <
-3 5 7 17.52 19.78 0.57 o
-5 6 7 0.58 0.81 0.31 <
-2 6 7 0.07 0.29 0.27 <
-4 7 7 1.00 0.21 0.62 <
-1 7 7 0.01 0.38 0.67 <
0 1 8 8029.80 7676.09 87.28 o
-2 2 8 820.20 795.13 8.20 o
-1 3 8 1184.22 1218.18 8.23 o
-3 4 8 734.09 729.74 6.04 o
0 4 8 431.20 436.57 6.47 o
-5 5 8 69.81 74.77 1.87 o
-2 5 8 160.38 167.21 1.78 o
-4 6 8 34.70 35.40 0.89 o
-1 6 8 26.03 23.31 0.79 o
-6 7 8 5.42 3.45 0.91 o
-3 7 8 14.91 15.76 1.42 o
-1 2 9 185.95 167.45 1.34 o
-2 4 9 0.66 0.70 0.15 o
-4 5 9 2.32 2.95 0.33 o
-1 5 9 0.02 -0.02 0.21 <
-3 6 9 0.06 0.24 0.27 <
-5 7 9 0.68 1.82 1.03 <
-2 7 9 0.08 0.29 0.75 <
-1 1 10 879.87 866.52 8.54 o
0 2 10 711.58 721.54 7.02 o
-2 3 10 680.18 661.81 4.70 o
-4 4 10 7.51 8.44 0.62 o
-1 4 10 83.47 73.18 1.01 o
-3 5 10 40.11 39.97 0.86 o
0 5 10 17.35 19.83 0.98 o
-5 6 10 14.24 16.19 0.69 o
-2 6 10 16.38 17.24 0.74 o
-4 7 10 1.93 1.06 0.72 <
-1 3 11 40.23 37.26 0.55 o
-3 4 11 5.44 6.18 0.34 o
-2 5 11 2.14 1.68 0.27 o
-4 6 11 0.12 0.21 0.31 <
-1 6 11 0.11 0.15 0.41 <
-3 7 11 0.10 0.84 0.63 <
0 0 12 4470.02 4430.81 88.87 o
-1 2 12 889.10 877.70 5.81 o
-3 3 12 430.70 441.42 5.39 o
0 3 12 586.46 608.89 7.58 o
-2 4 12 254.15 261.26 2.49 o
-4 5 12 91.23 92.13 1.60 o
-1 5 12 65.68 61.24 1.17 o
-6 6 12 3.53 3.05 1.27 <
-3 6 12 22.84 24.00 0.86 o
0 6 12 8.04 8.63 1.70 o
-5 7 12 4.98 3.69 1.46 <
-2 7 12 5.79 6.02 1.44 o
-2 3 13 7.39 7.03 0.29 o
-1 4 13 0.47 1.20 0.22 o
-3 5 13 3.80 3.79 0.33 o
-5 6 13 0.29 -0.12 0.60 <
-2 6 13 0.02 -0.36 0.29 <
-4 7 13 0.24 0.74 0.67 <
0 1 14 274.34 258.31 3.02 o
-2 2 14 509.12 528.05 5.35 o
-1 3 14 152.30 142.49 1.46 o
-3 4 14 28.39 29.62 0.74 o
0 4 14 18.70 21.85 0.87 o
-5 5 14 8.44 11.25 0.99 o
-2 5 14 27.44 28.53 0.79 o
-4 6 14 5.72 5.68 0.69 o
-1 6 14 3.28 3.00 0.91 o
-1 2 15 12.74 11.30 0.33 o
-2 4 15 0.26 0.10 0.21 <
-4 5 15 0.30 0.24 0.34 <
-1 5 15 0.04 0.03 0.31 <
-3 6 15 0.01 0.14 0.53 <
-1 1 16 578.34 576.94 6.24 o
0 2 16 374.47 372.76 4.44 o
-2 3 16 157.67 156.85 1.75 o
-4 4 16 91.45 90.95 2.42 o
-1 4 16 91.88 92.82 1.48 o
-3 5 16 36.18 35.01 1.03 o
0 5 16 16.21 14.67 2.08 o
-5 6 16 4.15 3.45 0.96 o
-2 6 16 8.22 8.97 1.01 o
-1 3 17 2.84 2.30 0.27 o
-3 4 17 1.03 0.65 0.29 <
-2 5 17 0.14 -0.24 0.27 <
-4 6 17 0.06 0.70 0.96 <
-1 6 17 0.01 0.29 0.72 <
0 0 18 86.66 85.48 2.56 o
-1 2 18 106.29 109.52 1.25 o
-3 3 18 30.88 32.01 0.98 o
0 3 18 21.02 18.63 0.93 o
-2 4 18 24.26 25.10 0.87 o
-4 5 18 3.17 3.67 0.87 o
-1 5 18 5.18 5.30 0.81 o
-3 6 18 2.13 3.41 0.87 o
-2 3 19 0.16 -0.27 0.21 <
-1 4 19 0.11 -0.33 0.31 <
-3 5 19 0.32 0.12 0.62 <
0 1 20 162.61 161.95 2.38 o
-2 2 20 71.04 69.85 1.41 o
-1 3 20 60.09 62.83 1.10 o
-3 4 20 29.98 26.66 1.05 o
0 4 20 19.84 20.60 1.58 o
-2 5 20 8.87 8.89 1.25 o
-1 2 21 0.38 0.50 0.21 <
-2 4 21 0.03 -0.09 0.31 <
-4 5 21 0.01 -0.74 0.70 <
-1 5 21 0.01 -0.09 0.57 <
-1 1 22 30.24 30.77 0.93 o
0 2 22 16.20 15.58 0.72 o
-2 3 22 14.10 16.57 0.60 o
-4 4 22 1.52 1.56 1.17 <
-1 4 22 4.46 4.77 0.74 o
-3 5 22 1.77 1.82 0.75 <
-1 3 23 0.09 0.46 0.29 <
-3 4 23 0.06 0.55 0.57 <
0 0 24 41.32 40.79 1.94 o
-1 2 24 23.58 24.96 0.65 o
-3 3 24 11.02 11.36 0.98 o
0 3 24 12.04 12.32 1.25 o
-2 4 24 6.25 6.90 0.87 o
-2 3 25 0.00 0.26 0.41 <
0 1 26 5.78 7.31 0.84 o
-2 2 26 4.39 5.08 0.75 o
-1 3 26 2.42 1.94 0.57 o
-1 2 27 0.00 0.53 0.39 <
-1 1 28 5.89 4.63 0.75 o
loop_
_jana_atom_site_adp_c_label
_jana_atom_site_adp_c_type_symbol
_jana_atom_site_adp_c_111
_jana_atom_site_adp_c_112
_jana_atom_site_adp_c_113
_jana_atom_site_adp_c_122
_jana_atom_site_adp_c_123
_jana_atom_site_adp_c_133
_jana_atom_site_adp_c_222
_jana_atom_site_adp_c_223
_jana_atom_site_adp_c_233
_jana_atom_site_adp_c_333
O1 O -0.115(11) -0.146(12) 0.0143(17) -0.146(12) 0.0143(17) -0.0033(5) 0 0 0 0
O2 O -0.115(11) -0.146(12) 0.0143(17) -0.146(12) 0.0143(17) -0.0033(5) 0 0 0 0
