#------------------------------------------------------------------------------
#$Date: 2023-12-06 15:08:03 +0200 (Wed, 06 Dec 2023) $
#$Revision: 288072 $
#$URL: file:///home/coder/svn-repositories/cod/cif/1/54/73/1547374.cif $
#------------------------------------------------------------------------------
#
# This file is available in the Crystallography Open Database (COD),
# http://www.crystallography.net/
#
# All data on this site have been placed in the public domain by the
# contributors.
#
data_1547374
loop_
_publ_author_name
'Nobuo Ishizawa'
'Hayato Setoguchi'
'Kazumichi Yanagisawa'
_publ_section_title
;
 Structural evolution of calcite at high temperatures: Phase V unveiled
;
_journal_name_full               'Scientific Reports'
_journal_page_first              2832
_journal_paper_doi               10.1038/srep02832
_journal_volume                  3
_journal_year                    2013
_chemical_absolute_configuration .
_chemical_formula_sum            'C Ca O3'
_chemical_formula_weight         100.1
_space_group_IT_number           167
_symmetry_cell_setting           trigonal
_symmetry_Int_Tables_number      167
_symmetry_space_group_name_Hall  '-R 3 2"c'
_symmetry_space_group_name_H-M   'R -3 c :H'
_cell_angle_alpha                90
_cell_angle_beta                 90
_cell_angle_gamma                120
_cell_formula_units_Z            6
_cell_length_a                   4.9746
_cell_length_b                   4.9746
_cell_length_c                   17.5316(3)
_cell_measurement_temperature    1058
_cell_volume                     375.724(6)
_diffrn_ambient_temperature      1058
_diffrn_measured_fraction_theta_full 1
_diffrn_measured_fraction_theta_max 1
_diffrn_measurement_device       'four-cycle diffractometer'
_diffrn_measurement_device_type  'Bruker CCD'
_diffrn_radiation_monochromator  graphite
_diffrn_radiation_probe          x-ray
_diffrn_radiation_source         'X-ray tube'
_diffrn_radiation_type           'Mo K\a'
_diffrn_radiation_wavelength     0.71073
_diffrn_reflns_av_R_equivalents  0.022
_diffrn_reflns_av_sigmaI/netI    0.0147
_diffrn_reflns_limit_h_max       8
_diffrn_reflns_limit_h_min       -6
_diffrn_reflns_limit_k_max       7
_diffrn_reflns_limit_k_min       -5
_diffrn_reflns_limit_l_max       26
_diffrn_reflns_limit_l_min       -30
_diffrn_reflns_number            1513
_diffrn_reflns_theta_full        40.04
_diffrn_reflns_theta_max         40.04
_diffrn_reflns_theta_min         5.27
_exptl_absorpt_coefficient_mu    2.234
_exptl_crystal_density_diffrn    2.6532
_exptl_crystal_F_000             300
_refine_diff_density_max         0.20
_refine_diff_density_min         -0.22
_refine_ls_extinction_method     none
_refine_ls_goodness_of_fit_gt    1.65
_refine_ls_goodness_of_fit_ref   1.48
_refine_ls_number_constraints    9
_refine_ls_number_parameters     15
_refine_ls_number_reflns         261
_refine_ls_number_restraints     0
_refine_ls_R_factor_all          0.0279
_refine_ls_R_factor_gt           0.0213
_refine_ls_shift/su_max          0.0088
_refine_ls_shift/su_mean         0.0032
_refine_ls_structure_factor_coef F
_refine_ls_weighting_details     w=1/(\s^2^(F)+0.0001F^2^)
_refine_ls_weighting_scheme      sigma
_refine_ls_wR_factor_gt          0.0262
_refine_ls_wR_factor_ref         0.0278
_reflns_number_gt                190
_reflns_number_total             261
_reflns_threshold_expression     I>3\s(I)
_cod_data_source_file            srep02832-s3-Copie3.cif
_cod_data_source_block           1058K_hs29_h760_IV_anharm
_cod_depositor_comments
;
The following automatic conversions were performed:

'_diffrn_radiation_probe' value 'X-ray' changed to 'x-ray' according
to the built-in table from CIF Core dictionary named 'cif_core.dic'
version 2.4.1 from 2010-06-29.

Automatic conversion script
Id: cif_fix_values 5376 2017-05-30 11:51:03Z andrius 

The following automatic conversions were performed:

data name '_atom_site_site_symmetry_mutiplicity' was replaced with
'_atom_site_site_symmetry_multiplicity' as specified in the
replacement file 'data/replacement-values/replacement_tags.lst'.

Automatic conversion script
Id: cif_correct_tags 9268 2022-04-12 08:56:07Z antanas 
;
_cod_original_sg_symbol_Hall     '-R 3;-2"c'
_cod_original_sg_symbol_H-M      'R -3 c'
_cod_original_formula_sum        'C1 Ca1 O3'
_cod_database_code               1547374
loop_
_symmetry_equiv_pos_site_id
_symmetry_equiv_pos_as_xyz
1 x,y,z
2 -y,x-y,z
3 -x+y,-x,z
4 y,x,-z+1/2
5 x-y,-y,-z+1/2
6 -x,-x+y,-z+1/2
7 -x,-y,-z
8 y,-x+y,-z
9 x-y,x,-z
10 -y,-x,z+1/2
11 -x+y,y,z+1/2
12 x,x-y,z+1/2
13 x+2/3,y+1/3,z+1/3
14 -y+2/3,x-y+1/3,z+1/3
15 -x+y+2/3,-x+1/3,z+1/3
16 y+2/3,x+1/3,-z+5/6
17 x-y+2/3,-y+1/3,-z+5/6
18 -x+2/3,-x+y+1/3,-z+5/6
19 -x+2/3,-y+1/3,-z+1/3
20 y+2/3,-x+y+1/3,-z+1/3
21 x-y+2/3,x+1/3,-z+1/3
22 -y+2/3,-x+1/3,z+5/6
23 -x+y+2/3,y+1/3,z+5/6
24 x+2/3,x-y+1/3,z+5/6
25 x+1/3,y+2/3,z+2/3
26 -y+1/3,x-y+2/3,z+2/3
27 -x+y+1/3,-x+2/3,z+2/3
28 y+1/3,x+2/3,-z+1/6
29 x-y+1/3,-y+2/3,-z+1/6
30 -x+1/3,-x+y+2/3,-z+1/6
31 -x+1/3,-y+2/3,-z+2/3
32 y+1/3,-x+y+2/3,-z+2/3
33 x-y+1/3,x+2/3,-z+2/3
34 -y+1/3,-x+2/3,z+1/6
35 -x+y+1/3,y+2/3,z+1/6
36 x+1/3,x-y+2/3,z+1/6
loop_
_atom_site_label
_atom_site_type_symbol
_atom_site_fract_x
_atom_site_fract_y
_atom_site_fract_z
_atom_site_adp_type
_atom_site_U_iso_or_equiv
_atom_site_site_symmetry_multiplicity
_atom_site_occupancy
_atom_site_calc_flag
_atom_site_refinement_flags
_atom_site_disorder_assembly
_atom_site_disorder_group
Ca1 Ca 0 0 0 Uani 0.04638(13) 6 1 d . . .
C1 C 0 0 0.25 Uani 0.0390(3) 6 1 d . . .
O1 O 0.2482(5) 0 0.25 Uani 0.0841(7) 18 0.985(4) d . . .
O2 O -0.2482(5) 0 0.25 Uani 0.0841(7) 18 0.015(4) d . . .
loop_
_atom_site_aniso_label
_atom_site_aniso_type_symbol
_atom_site_aniso_U_11
_atom_site_aniso_U_22
_atom_site_aniso_U_33
_atom_site_aniso_U_12
_atom_site_aniso_U_13
_atom_site_aniso_U_23
Ca1 Ca 0.04767(18) 0.04767(18) 0.04382(18) 0.02383(9) 0 0
C1 C 0.0357(4) 0.0357(4) 0.0456(6) 0.0178(2) 0 0
O1 O 0.0576(4) 0.1194(13) 0.0959(8) 0.0597(6) -0.0231(4) -0.0461(8)
O2 O 0.0576(4) 0.1194(13) 0.0959(8) 0.0597(6) -0.0231(4) -0.0461(8)
loop_
_atom_type_symbol
_atom_type_scat_dispersion_real
_atom_type_scat_dispersion_imag
_atom_type_scat_source
C 0.0033 0.0016 'International Tables Vol C tables 4.2.6.8 and 6.1.1.1'
Ca 0.2262 0.3064 'International Tables Vol C tables 4.2.6.8 and 6.1.1.1'
O 0.0106 0.0060 'International Tables Vol C tables 4.2.6.8 and 6.1.1.1'
loop_
_geom_bond_atom_site_label_1
_geom_bond_atom_site_label_2
_geom_bond_site_symmetry_1
_geom_bond_site_symmetry_2
_geom_bond_distance
Ca1 Ca1 . 16_444 4.09714(7)
Ca1 Ca1 . 16_454 4.09714(7)
Ca1 Ca1 . 16_554 4.09714(7)
Ca1 Ca1 . 28_445 4.09714(7)
Ca1 Ca1 . 28_545 4.09714(7)
Ca1 Ca1 . 28_555 4.09714(7)
Ca1 C1 . 25_444 3.22231(2)
Ca1 C1 . 25_544 3.22231(2)
Ca1 C1 . 25_554 3.22231(2)
Ca1 C1 . 19_445 3.22231(2)
Ca1 C1 . 19_455 3.22231(2)
Ca1 C1 . 19_555 3.22231(2)
Ca1 O1 . 25_444 2.4013(12)
Ca1 O1 . 26_544 2.4013(12)
Ca1 O1 . 27_554 2.4013(19)
Ca1 O1 . 19_555 2.4013(12)
Ca1 O1 . 20_455 2.4013(12)
Ca1 O1 . 21_445 2.4013(19)
Ca1 O2 . 25_544 2.4013(12)
Ca1 O2 . 26_554 2.4013(12)
Ca1 O2 . 27_444 2.4013(19)
Ca1 O2 . 19_455 2.4013(12)
Ca1 O2 . 20_445 2.4013(12)
Ca1 O2 . 21_555 2.4013(19)
C1 O1 . . 1.235(2)
C1 O1 . 2_555 1.235(2)
C1 O1 . 3_555 1.2345(16)
C1 O2 . . 1.235(2)
C1 O2 . 2_555 1.235(2)
C1 O2 . 3_555 1.2345(16)
O1 O2 . 2_555 1.2345(16)
O1 O2 . 3_555 1.235(3)
loop_
_refln_index_h
_refln_index_k
_refln_index_l
_refln_F_squared_calc
_refln_F_squared_meas
_refln_F_squared_sigma
_refln_observed_status
-1 2 0 4033.07 3913.31 60.36 o
0 3 0 3364.88 3342.28 60.01 o
-2 4 0 1643.02 1647.48 20.90 o
-1 5 0 552.61 546.42 5.32 o
-3 6 0 132.04 143.76 3.71 o
0 6 0 45.26 42.72 2.67 o
-2 7 0 56.65 53.68 1.53 o
-4 8 0 38.97 46.30 2.20 o
-1 8 0 12.45 16.97 2.20 o
-2 3 1 695.95 736.35 7.19 o
-1 4 1 3.66 3.67 0.23 o
-3 5 1 81.63 76.61 1.04 o
-5 6 1 3.37 4.43 0.60 o
-2 6 1 0.27 0.64 0.29 <
-4 7 1 5.67 6.54 0.67 o
-1 7 1 0.49 0.67 0.52 <
-6 8 1 0.22 -0.08 0.55 <
-3 8 1 0.03 -0.37 0.42 <
0 1 2 879.84 876.88 13.95 o
-2 2 2 6669.17 6487.18 102.70 o
-1 3 2 2425.40 2358.79 22.46 o
-3 4 2 156.42 155.60 1.68 o
0 4 2 27.98 26.70 0.87 o
-5 5 2 101.66 99.10 2.41 o
-2 5 2 244.64 236.80 2.57 o
-4 6 2 108.91 106.90 2.15 o
-1 6 2 78.95 81.56 1.79 o
-6 7 2 9.40 11.29 1.17 o
-3 7 2 13.97 14.46 0.87 o
0 7 2 1.72 1.34 1.06 <
-5 8 2 0.59 0.30 0.45 <
-2 8 2 0.94 0.62 0.57 <
-1 2 3 1819.93 2016.67 20.88 o
-2 4 3 1.16 1.04 0.20 o
-4 5 3 12.33 11.89 0.44 o
-1 5 3 3.91 3.42 0.29 o
-3 6 3 1.52 1.21 0.32 o
-5 7 3 5.26 5.37 0.62 o
-2 7 3 2.84 3.30 0.55 o
-7 8 3 0.26 0.10 0.97 <
-4 8 3 0.00 -0.29 0.42 <
-1 8 3 0.14 -0.08 0.94 <
-1 1 4 18346.40 16271.30 263.84 o
0 2 4 3267.40 3214.13 45.99 o
-2 3 4 1734.28 1746.91 15.23 o
-4 4 4 1694.12 1653.19 20.38 o
-1 4 4 1776.27 1778.36 15.35 o
-3 5 4 501.40 497.94 4.61 o
0 5 4 235.15 234.66 3.44 o
-5 6 4 67.16 66.76 1.59 o
-2 6 4 108.78 101.29 1.84 o
-7 7 4 23.84 23.55 2.33 o
-4 7 4 75.12 70.99 1.59 o
-1 7 4 34.76 32.32 1.48 o
-6 8 4 18.53 20.80 1.31 o
-3 8 4 27.34 29.21 1.29 o
-1 3 5 513.51 504.60 5.28 o
-3 4 5 20.43 20.58 0.50 o
-2 5 5 41.62 37.68 0.69 o
-4 6 5 0.29 0.32 0.27 <
-1 6 5 2.31 2.92 0.49 o
-6 7 5 0.69 0.80 0.67 <
-3 7 5 2.84 2.93 0.45 o
-5 8 5 0.00 0.62 0.47 <
-2 8 5 0.18 0.05 0.47 <
0 0 6 715.02 927.88 14.81 o
-1 2 6 4394.27 4408.65 37.57 o
-3 3 6 562.92 578.96 7.88 o
0 3 6 330.60 343.18 5.48 o
-2 4 6 447.27 428.11 4.28 o
-4 5 6 66.28 64.28 0.94 o
-1 5 6 108.16 106.70 1.22 o
-6 6 6 47.38 47.18 2.83 o
-3 6 6 99.31 96.38 1.78 o
0 6 6 26.08 24.92 1.46 o
-5 7 6 12.41 12.63 0.82 o
-2 7 6 11.05 12.31 0.84 o
-7 8 6 0.08 0.08 0.96 <
-4 8 6 0.37 0.03 0.44 <
-1 8 6 0.50 1.22 1.14 <
-2 3 7 240.09 242.34 2.63 o
-1 4 7 0.89 1.04 0.18 o
-3 5 7 57.85 59.17 0.94 o
-5 6 7 3.17 3.84 0.45 o
-2 6 7 0.26 0.54 0.32 <
-4 7 7 4.07 4.02 0.50 o
-1 7 7 0.17 -0.18 0.44 <
-6 8 7 0.19 0.52 0.69 <
-3 8 7 0.11 0.23 0.40 <
0 1 8 9191.92 8339.46 100.44 o
-2 2 8 1127.72 1163.46 18.13 o
-1 3 8 1528.66 1590.54 14.12 o
-3 4 8 1218.31 1202.51 13.05 o
0 4 8 922.01 925.08 12.81 o
-5 5 8 164.34 156.76 5.47 o
-2 5 8 285.08 292.25 3.19 o
-4 6 8 96.46 96.87 1.81 o
-1 6 8 67.06 63.85 1.61 o
-6 7 8 21.12 14.47 1.81 o
-3 7 8 55.11 53.45 1.39 o
0 7 8 16.11 15.85 2.05 o
-5 8 8 19.93 18.82 1.07 o
-2 8 8 11.47 12.18 0.96 o
-1 2 9 432.22 434.31 3.92 o
-2 4 9 1.15 1.19 0.18 o
-4 5 9 8.23 8.99 0.45 o
-1 5 9 0.00 0.29 0.18 <
-3 6 9 0.69 0.79 0.32 <
-5 7 9 3.93 4.58 0.54 o
-2 7 9 0.59 0.17 0.40 <
-4 8 9 0.01 0.30 0.40 <
-1 1 10 981.30 952.80 15.33 o
0 2 10 1118.87 1157.18 17.04 o
-2 3 10 1020.29 1015.74 9.31 o
-4 4 10 12.26 14.14 0.60 o
-1 4 10 135.18 129.32 1.44 o
-3 5 10 104.26 103.01 1.53 o
0 5 10 45.38 45.88 1.31 o
-5 6 10 47.03 51.17 1.41 o
-2 6 10 56.04 55.31 1.32 o
-7 7 10 0.85 0.97 0.89 <
-4 7 10 5.74 5.90 0.57 o
-1 7 10 3.96 3.69 0.64 o
-6 8 10 0.50 0.59 0.80 <
-3 8 10 0.76 0.39 0.42 <
-1 3 11 117.26 113.02 1.36 o
-3 4 11 15.56 17.68 0.49 o
-2 5 11 8.22 7.98 0.47 o
-4 6 11 0.35 0.72 0.34 <
-1 6 11 0.99 1.31 0.45 <
-6 7 11 0.39 1.29 0.96 <
-3 7 11 0.41 0.50 0.37 <
-5 8 11 0.00 0.07 0.42 <
-2 8 11 0.07 0.86 0.72 <
-1 2 12 1153.66 1198.47 9.41 o
-3 3 12 781.28 821.50 9.06 o
0 3 12 1040.15 1034.96 14.15 o
-2 4 12 443.98 472.57 4.08 o
-4 5 12 218.74 227.65 3.02 o
-1 5 12 161.50 161.97 2.05 o
-6 6 12 12.13 11.15 1.58 o
-3 6 12 63.90 63.65 1.46 o
0 6 12 29.61 29.72 1.24 o
-5 7 12 22.21 22.89 0.97 o
-2 7 12 22.93 23.08 1.14 o
-4 8 12 13.37 14.66 0.91 o
-2 3 13 26.88 25.86 0.57 o
-1 4 13 2.07 2.62 0.27 o
-3 5 13 16.59 16.18 0.65 o
-5 6 13 1.74 1.74 0.47 o
-2 6 13 0.10 0.74 0.37 <
-4 7 13 1.18 0.59 0.42 <
-1 7 13 0.04 0.54 0.49 <
-3 8 13 0.09 -0.07 0.52 <
0 1 14 380.25 378.99 5.20 o
-2 2 14 831.60 842.93 10.90 o
-1 3 14 288.38 276.68 3.10 o
-3 4 14 58.91 59.97 1.04 o
0 4 14 32.31 34.13 1.27 o
-5 5 14 29.64 35.07 2.47 o
-2 5 14 80.93 78.10 1.34 o
-4 6 14 19.64 19.57 0.94 o
-1 6 14 14.85 14.46 0.74 o
-6 7 14 3.44 3.49 1.24 <
-3 7 14 3.59 2.83 0.52 o
-5 8 14 0.47 0.30 0.64 <
-1 2 15 41.56 39.26 0.62 o
-2 4 15 0.54 0.22 0.20 <
-4 5 15 1.63 1.68 0.39 o
-1 5 15 0.32 0.39 0.30 <
-3 6 15 0.19 0.84 0.40 <
-5 7 15 1.26 0.57 0.49 <
-2 7 15 0.04 -0.03 0.44 <
-1 1 16 952.94 966.05 11.05 o
0 2 16 609.60 609.73 8.20 o
-2 3 16 292.58 293.39 2.88 o
-4 4 16 240.06 239.34 5.33 o
-1 4 16 222.08 222.30 2.75 o
-3 5 16 95.36 101.66 1.71 o
0 5 16 54.52 54.22 1.76 o
-5 6 16 15.80 16.80 1.36 o
-2 6 16 26.10 26.13 0.99 o
-4 7 16 18.18 19.49 1.06 o
-1 7 16 7.45 8.07 1.19 o
-1 3 17 12.36 12.16 0.42 o
-3 4 17 3.90 3.47 0.35 o
-2 5 17 0.77 0.72 0.29 <
-4 6 17 0.21 0.03 0.40 <
-1 6 17 0.25 0.39 0.39 <
-6 7 17 0.07 -0.84 0.80 <
-3 7 17 0.00 0.07 0.45 <
0 0 18 115.14 117.56 2.92 o
-1 2 18 224.95 225.16 1.95 o
-3 3 18 69.39 73.34 1.32 o
0 3 18 45.23 43.15 1.09 o
-2 4 18 65.56 65.93 1.12 o
-4 5 18 11.78 12.53 0.74 o
-1 5 18 19.00 19.44 0.69 o
-6 6 18 7.06 9.16 1.66 o
-3 6 18 10.13 11.74 0.75 o
0 6 18 2.39 1.64 0.69 <
-5 7 18 1.79 1.56 0.67 <
-2 7 18 1.95 1.98 0.74 <
-2 3 19 1.27 1.02 0.23 o
-1 4 19 0.62 0.69 0.27 <
-3 5 19 2.20 2.87 0.39 o
-5 6 19 0.47 -0.12 0.65 <
-2 6 19 0.01 -0.39 0.34 <
-4 7 19 0.16 1.01 0.69 <
0 1 20 340.24 339.00 3.49 o
-2 2 20 146.67 145.76 1.84 o
-1 3 20 144.17 145.22 1.59 o
-3 4 20 91.45 95.44 1.38 o
0 4 20 69.10 66.23 1.69 o
-5 5 20 16.77 17.74 2.06 o
-2 5 20 28.65 29.68 0.89 o
-4 6 20 14.61 14.10 0.97 o
-1 6 20 9.53 9.02 0.74 o
-1 2 21 2.29 2.35 0.23 o
-2 4 21 0.11 0.34 0.27 <
-4 5 21 0.10 0.27 0.37 <
-1 5 21 0.13 0.60 0.32 <
-3 6 21 0.04 0.12 0.44 <
-1 1 22 72.45 74.03 1.17 o
0 2 22 45.43 46.82 1.07 o
-2 3 22 44.00 45.50 0.80 o
-4 4 22 5.48 5.95 0.77 o
-1 4 22 15.67 14.61 0.55 o
-3 5 22 8.32 9.56 0.60 o
0 5 22 3.10 2.36 0.57 o
-5 6 22 3.06 3.35 0.94 o
-2 6 22 3.81 3.81 0.49 o
-1 3 23 0.71 0.72 0.25 <
-3 4 23 0.41 0.05 0.27 <
-2 5 23 0.04 0.08 0.32 <
-4 6 23 0.05 0.02 0.67 <
0 0 24 119.14 118.12 2.73 o
-1 2 24 65.99 65.83 0.92 o
-3 3 24 39.54 40.08 1.34 o
0 3 24 44.22 43.96 1.12 o
-2 4 24 23.51 23.68 0.69 o
-4 5 24 11.01 13.53 0.84 o
-1 5 24 9.42 8.62 0.62 o
-2 3 25 0.02 0.03 0.27 <
-1 4 25 0.07 -0.08 0.27 <
-3 5 25 0.14 0.25 0.35 <
0 1 26 19.47 18.16 0.67 o
-2 2 26 18.22 19.24 0.82 o
-1 3 26 10.35 9.36 0.47 o
-3 4 26 4.04 4.54 0.44 o
0 4 26 2.56 2.90 0.59 o
-2 5 26 3.19 2.72 0.47 o
-1 2 27 0.07 0.12 0.23 <
-2 4 27 0.01 -0.15 0.29 <
-1 1 28 23.05 20.07 0.79 o
0 2 28 17.47 15.19 0.75 o
-2 3 28 11.12 10.63 0.55 o
-1 4 28 6.19 6.34 0.55 o
-1 3 29 0.02 -0.02 0.27 <
0 0 30 5.26 5.94 0.84 o
-1 2 30 4.21 3.15 0.35 o
loop_
_jana_atom_site_adp_c_label
_jana_atom_site_adp_c_type_symbol
_jana_atom_site_adp_c_111
_jana_atom_site_adp_c_112
_jana_atom_site_adp_c_113
_jana_atom_site_adp_c_122
_jana_atom_site_adp_c_123
_jana_atom_site_adp_c_133
_jana_atom_site_adp_c_222
_jana_atom_site_adp_c_223
_jana_atom_site_adp_c_233
_jana_atom_site_adp_c_333
O1 O -0.058(5) -0.065(5) 0.0073(7) -0.065(5) 0.0073(7) -0.00215(20) 0 0 0 0
O2 O -0.058(5) -0.065(5) 0.0073(7) -0.065(5) 0.0073(7) -0.00215(20) 0 0 0 0
