#------------------------------------------------------------------------------
#$Date: 2023-12-06 15:08:03 +0200 (Wed, 06 Dec 2023) $
#$Revision: 288072 $
#$URL: file:///home/coder/svn-repositories/cod/cif/1/54/73/1547371.cif $
#------------------------------------------------------------------------------
#
# This file is available in the Crystallography Open Database (COD),
# http://www.crystallography.net/
#
# All data on this site have been placed in the public domain by the
# contributors.
#
data_1547371
loop_
_publ_author_name
'Nobuo Ishizawa'
'Hayato Setoguchi'
'Kazumichi Yanagisawa'
_publ_section_title
;
 Structural evolution of calcite at high temperatures: Phase V unveiled
;
_journal_name_full               'Scientific Reports'
_journal_page_first              2832
_journal_paper_doi               10.1038/srep02832
_journal_volume                  3
_journal_year                    2013
_chemical_absolute_configuration .
_chemical_formula_sum            'C Ca O3'
_chemical_formula_weight         100.1
_space_group_IT_number           167
_symmetry_cell_setting           trigonal
_symmetry_Int_Tables_number      167
_symmetry_space_group_name_Hall  '-R 3 2"c'
_symmetry_space_group_name_H-M   'R -3 c :H'
_cell_angle_alpha                90
_cell_angle_beta                 90
_cell_angle_gamma                120
_cell_formula_units_Z            6
_cell_length_a                   4.9694
_cell_length_b                   4.9694
_cell_length_c                   17.7580(3)
_cell_measurement_temperature    1213
_cell_volume                     379.780(6)
_diffrn_ambient_temperature      1213
_diffrn_measured_fraction_theta_full 0.98
_diffrn_measured_fraction_theta_max 0.98
_diffrn_measurement_device       'four-cycle diffractometer'
_diffrn_measurement_device_type  'Bruker CCD'
_diffrn_radiation_monochromator  graphite
_diffrn_radiation_probe          x-ray
_diffrn_radiation_source         'X-ray tube'
_diffrn_radiation_type           'Mo K\a'
_diffrn_radiation_wavelength     0.71073
_diffrn_reflns_av_R_equivalents  0.0353
_diffrn_reflns_av_sigmaI/netI    0.0704
_diffrn_reflns_limit_h_max       7
_diffrn_reflns_limit_h_min       -6
_diffrn_reflns_limit_k_max       5
_diffrn_reflns_limit_k_min       -8
_diffrn_reflns_limit_l_max       27
_diffrn_reflns_limit_l_min       -30
_diffrn_reflns_number            1540
_diffrn_reflns_theta_full        39.97
_diffrn_reflns_theta_max         39.97
_diffrn_reflns_theta_min         5.26
_exptl_absorpt_coefficient_mu    2.21
_exptl_crystal_density_diffrn    2.6249
_exptl_crystal_F_000             300
_refine_diff_density_max         0.13
_refine_diff_density_min         -0.21
_refine_ls_extinction_method     none
_refine_ls_goodness_of_fit_gt    1.43
_refine_ls_goodness_of_fit_ref   1.27
_refine_ls_number_constraints    9
_refine_ls_number_parameters     15
_refine_ls_number_reflns         259
_refine_ls_number_restraints     0
_refine_ls_R_factor_all          0.0551
_refine_ls_R_factor_gt           0.0388
_refine_ls_shift/su_max          0.0051
_refine_ls_shift/su_mean         0.0019
_refine_ls_structure_factor_coef F
_refine_ls_weighting_details     w=1/(\s^2^(F)+0.0001F^2^)
_refine_ls_weighting_scheme      sigma
_refine_ls_wR_factor_gt          0.0558
_refine_ls_wR_factor_ref         0.0683
_reflns_number_gt                142
_reflns_number_total             259
_reflns_threshold_expression     I>3\s(I)
_cod_data_source_file            srep02832-s3-Copie10.cif
_cod_data_source_block           1213K_hs29_h910_IV_anharm
_cod_depositor_comments
;
The following automatic conversions were performed:

'_diffrn_radiation_probe' value 'X-ray' changed to 'x-ray' according
to the built-in table from CIF Core dictionary named 'cif_core.dic'
version 2.4.1 from 2010-06-29.

Automatic conversion script
Id: cif_fix_values 5376 2017-05-30 11:51:03Z andrius 

The following automatic conversions were performed:

data name '_atom_site_site_symmetry_mutiplicity' was replaced with
'_atom_site_site_symmetry_multiplicity' as specified in the
replacement file 'data/replacement-values/replacement_tags.lst'.

Automatic conversion script
Id: cif_correct_tags 9268 2022-04-12 08:56:07Z antanas 
;
_cod_original_sg_symbol_Hall     '-R 3;-2"c'
_cod_original_sg_symbol_H-M      'R -3 c'
_cod_original_formula_sum        'C1 Ca1 O3'
_cod_database_code               1547371
loop_
_symmetry_equiv_pos_site_id
_symmetry_equiv_pos_as_xyz
1 x,y,z
2 -y,x-y,z
3 -x+y,-x,z
4 y,x,-z+1/2
5 x-y,-y,-z+1/2
6 -x,-x+y,-z+1/2
7 -x,-y,-z
8 y,-x+y,-z
9 x-y,x,-z
10 -y,-x,z+1/2
11 -x+y,y,z+1/2
12 x,x-y,z+1/2
13 x+2/3,y+1/3,z+1/3
14 -y+2/3,x-y+1/3,z+1/3
15 -x+y+2/3,-x+1/3,z+1/3
16 y+2/3,x+1/3,-z+5/6
17 x-y+2/3,-y+1/3,-z+5/6
18 -x+2/3,-x+y+1/3,-z+5/6
19 -x+2/3,-y+1/3,-z+1/3
20 y+2/3,-x+y+1/3,-z+1/3
21 x-y+2/3,x+1/3,-z+1/3
22 -y+2/3,-x+1/3,z+5/6
23 -x+y+2/3,y+1/3,z+5/6
24 x+2/3,x-y+1/3,z+5/6
25 x+1/3,y+2/3,z+2/3
26 -y+1/3,x-y+2/3,z+2/3
27 -x+y+1/3,-x+2/3,z+2/3
28 y+1/3,x+2/3,-z+1/6
29 x-y+1/3,-y+2/3,-z+1/6
30 -x+1/3,-x+y+2/3,-z+1/6
31 -x+1/3,-y+2/3,-z+2/3
32 y+1/3,-x+y+2/3,-z+2/3
33 x-y+1/3,x+2/3,-z+2/3
34 -y+1/3,-x+2/3,z+1/6
35 -x+y+1/3,y+2/3,z+1/6
36 x+1/3,x-y+2/3,z+1/6
loop_
_atom_site_label
_atom_site_type_symbol
_atom_site_fract_x
_atom_site_fract_y
_atom_site_fract_z
_atom_site_adp_type
_atom_site_U_iso_or_equiv
_atom_site_site_symmetry_multiplicity
_atom_site_occupancy
_atom_site_calc_flag
_atom_site_refinement_flags
_atom_site_disorder_assembly
_atom_site_disorder_group
Ca1 Ca 0 0 0 Uani 0.0658(4) 6 1 d . . .
C1 C 0 0 0.25 Uani 0.0572(9) 6 1 d . . .
O1 O 0.2402(12) 0 0.25 Uani 0.135(3) 18 0.836(7) d . . .
O2 O -0.2402(12) 0 0.25 Uani 0.135(3) 18 0.164(7) d . . .
loop_
_atom_site_aniso_label
_atom_site_aniso_type_symbol
_atom_site_aniso_U_11
_atom_site_aniso_U_22
_atom_site_aniso_U_33
_atom_site_aniso_U_12
_atom_site_aniso_U_13
_atom_site_aniso_U_23
Ca1 Ca 0.0675(5) 0.0675(5) 0.0624(5) 0.0338(2) 0 0
C1 C 0.0519(10) 0.0519(10) 0.0678(20) 0.0260(5) 0 0
O1 O 0.0932(19) 0.208(6) 0.143(4) 0.104(3) -0.041(2) -0.082(4)
O2 O 0.0932(19) 0.208(6) 0.143(4) 0.104(3) -0.041(2) -0.082(4)
loop_
_atom_type_symbol
_atom_type_scat_dispersion_real
_atom_type_scat_dispersion_imag
_atom_type_scat_source
C 0.0033 0.0016 'International Tables Vol C tables 4.2.6.8 and 6.1.1.1'
Ca 0.2262 0.3064 'International Tables Vol C tables 4.2.6.8 and 6.1.1.1'
O 0.0106 0.0060 'International Tables Vol C tables 4.2.6.8 and 6.1.1.1'
loop_
_geom_bond_atom_site_label_1
_geom_bond_atom_site_label_2
_geom_bond_site_symmetry_1
_geom_bond_site_symmetry_2
_geom_bond_distance
Ca1 Ca1 . 16_444 4.12205(7)
Ca1 Ca1 . 16_454 4.12205(7)
Ca1 Ca1 . 16_554 4.12205(7)
Ca1 Ca1 . 28_445 4.12205(7)
Ca1 Ca1 . 28_545 4.12205(7)
Ca1 Ca1 . 28_555 4.12205(7)
Ca1 C1 . 25_444 3.22824(2)
Ca1 C1 . 25_544 3.22824(2)
Ca1 C1 . 25_554 3.22824(2)
Ca1 C1 . 19_445 3.22824(2)
Ca1 C1 . 19_455 3.22824(2)
Ca1 C1 . 19_555 3.22824(2)
Ca1 O1 . 25_444 2.432(3)
Ca1 O1 . 26_544 2.432(3)
Ca1 O1 . 27_554 2.432(5)
Ca1 O1 . 19_555 2.432(3)
Ca1 O1 . 20_455 2.432(3)
Ca1 O1 . 21_445 2.432(5)
Ca1 O2 . 25_544 2.432(3)
Ca1 O2 . 26_554 2.432(3)
Ca1 O2 . 27_444 2.432(5)
Ca1 O2 . 19_455 2.432(3)
Ca1 O2 . 20_445 2.432(3)
Ca1 O2 . 21_555 2.432(5)
C1 O1 . . 1.194(6)
C1 O1 . 2_555 1.194(6)
C1 O1 . 3_555 1.194(4)
C1 O2 . . 1.194(6)
C1 O2 . 2_555 1.194(6)
C1 O2 . 3_555 1.194(4)
O1 O2 . 2_555 1.194(4)
O1 O2 . 3_555 1.194(7)
loop_
_refln_index_h
_refln_index_k
_refln_index_l
_refln_F_squared_calc
_refln_F_squared_meas
_refln_F_squared_sigma
_refln_observed_status
-1 2 0 3759.60 3526.33 199.56 o
0 3 0 1896.45 2009.57 157.81 o
-2 4 0 1253.97 1298.80 88.12 o
-1 5 0 226.04 224.09 11.40 o
-3 6 0 40.12 47.83 5.55 o
0 6 0 13.00 11.82 1.76 o
-2 7 0 11.63 10.98 1.12 o
-4 8 0 5.66 7.64 1.33 o
-1 8 0 1.10 2.01 0.67 <
-2 3 1 172.20 175.87 7.31 o
-1 4 1 0.96 0.80 0.14 o
-3 5 1 14.16 13.15 0.72 o
-5 6 1 0.47 0.53 0.30 <
-2 6 1 0.09 0.06 0.27 <
-4 7 1 0.85 0.25 0.33 <
-1 7 1 0.04 0.19 0.44 <
-6 8 1 0.04 0.17 0.42 <
-3 8 1 0.02 0.22 0.36 <
0 1 2 730.91 787.23 52.27 o
-2 2 2 5964.38 6452.85 432.54 o
-1 3 2 1660.50 1756.81 78.86 o
-3 4 2 91.34 89.21 4.21 o
0 4 2 42.27 38.28 3.07 o
-5 5 2 30.86 37.83 4.41 o
-2 5 2 76.94 65.98 3.34 o
-4 6 2 33.30 29.57 2.46 o
-1 6 2 16.09 19.26 1.61 o
-6 7 2 1.11 1.22 0.53 <
-3 7 2 3.65 3.31 0.51 o
0 7 2 0.25 -0.27 0.61 <
-5 8 2 0.01 -0.28 0.33 <
-2 8 2 0.05 0.19 0.41 <
-1 2 3 475.48 505.26 21.77 o
-2 4 3 0.13 0.05 0.11 <
-4 5 3 2.29 2.81 0.25 o
-1 5 3 1.01 0.86 0.16 o
-3 6 3 0.03 0.20 0.27 <
-5 7 3 0.58 1.28 0.39 o
-2 7 3 0.27 0.11 0.31 <
-7 8 3 0.03 0.37 0.53 <
-4 8 3 0.01 -0.03 0.36 <
-1 8 3 0.01 -0.08 0.51 <
-1 1 4 16782.90 14888.80 914.24 o
0 2 4 2943.22 2850.32 212.65 o
-2 3 4 1262.17 1287.22 54.24 o
-4 4 4 745.56 739.53 64.39 o
-1 4 4 935.33 996.55 51.96 o
-3 5 4 258.03 273.03 13.66 o
0 5 4 83.42 71.51 7.77 o
-5 6 4 20.21 18.07 1.95 o
-2 6 4 35.81 33.39 2.99 o
-4 7 4 13.06 12.16 1.20 o
-1 7 4 5.89 7.10 1.20 o
-6 8 4 2.39 2.42 0.72 o
-3 8 4 3.66 3.43 0.56 o
-1 3 5 120.24 118.01 5.54 o
-3 4 5 4.57 4.99 0.30 o
-2 5 5 6.81 6.03 0.37 o
-4 6 5 0.14 0.11 0.28 <
-1 6 5 0.17 0.17 0.27 <
-6 7 5 0.06 0.30 0.48 <
-3 7 5 0.42 0.73 0.34 <
-5 8 5 0.01 -0.25 0.36 <
-2 8 5 0.01 0.11 0.39 <
0 0 6 434.18 586.08 63.34 o
-1 2 6 3332.05 3496.74 139.92 o
-3 3 6 488.42 488.85 34.17 o
0 3 6 302.15 246.88 20.35 o
-2 4 6 179.76 171.30 8.62 o
-4 5 6 23.56 24.09 1.39 o
-1 5 6 40.21 47.34 2.50 o
-6 6 6 7.63 6.97 1.33 o
-3 6 6 29.01 21.55 1.98 o
0 6 6 3.79 3.40 0.76 o
-5 7 6 2.01 3.06 0.62 o
-2 7 6 1.63 1.15 0.39 <
-7 8 6 0.00 -0.92 0.70 <
-4 8 6 0.02 0.36 0.36 <
-1 8 6 0.04 0.06 0.83 <
-2 3 7 50.49 48.78 2.48 o
-1 4 7 0.09 -0.02 0.11 <
-3 5 7 8.87 9.54 0.56 o
-5 6 7 0.53 1.34 0.51 <
-2 6 7 0.04 -0.09 0.25 <
-4 7 7 0.55 0.11 0.33 <
-1 7 7 0.01 0.34 0.37 <
-6 8 7 0.04 -0.58 0.51 <
-3 8 7 0.01 0.05 0.36 <
0 1 8 7860.97 7159.10 439.61 o
-2 2 8 725.17 767.08 51.46 o
-1 3 8 1067.00 1157.40 53.33 o
-3 4 8 606.69 632.91 35.23 o
0 4 8 324.10 323.04 25.42 o
-5 5 8 53.77 51.91 6.03 o
-2 5 8 134.66 139.54 6.88 o
-4 6 8 24.01 24.11 2.23 o
-1 6 8 19.30 15.30 1.25 o
-6 7 8 3.38 3.68 0.76 o
-3 7 8 9.17 10.39 1.09 o
0 7 8 1.63 0.97 0.78 <
-5 8 8 2.60 2.90 0.67 o
-2 8 8 1.18 0.78 0.45 <
-1 2 9 97.56 84.89 3.52 o
-2 4 9 0.35 0.34 0.14 <
-4 5 9 1.02 1.14 0.25 o
-1 5 9 0.04 -0.19 0.17 <
-3 6 9 0.00 -0.02 0.30 <
-5 7 9 0.39 0.34 0.45 <
-2 7 9 0.04 -0.08 0.36 <
-4 8 9 0.01 0.28 0.39 <
-1 1 10 860.30 887.06 66.99 o
0 2 10 611.33 619.48 44.97 o
-2 3 10 623.05 602.39 34.43 o
-4 4 10 6.79 9.25 0.84 o
-1 4 10 76.46 65.23 3.76 o
-3 5 10 29.78 29.82 1.70 o
0 5 10 11.73 14.53 1.57 o
-5 6 10 9.43 10.60 1.48 o
-2 6 10 10.71 10.68 1.00 o
-4 7 10 1.36 1.11 0.42 <
-1 7 10 0.46 -0.14 0.39 <
-6 8 10 0.01 0.20 0.56 <
-3 8 10 0.07 0.17 0.41 <
-1 3 11 21.57 19.52 1.29 o
-3 4 11 3.12 3.29 0.33 o
-2 5 11 1.09 0.76 0.22 o
-4 6 11 0.15 -0.05 0.33 <
-1 6 11 0.03 0.42 0.31 <
-6 7 11 0.02 1.01 0.56 <
-3 7 11 0.05 0.23 0.37 <
-5 8 11 0.00 0.31 0.53 <
-2 8 11 0.00 -0.75 0.62 <
0 0 12 3989.92 4125.37 630.40 o
-1 2 12 835.02 807.72 63.64 o
-3 3 12 339.60 365.94 30.99 o
0 3 12 465.90 505.48 46.11 o
-2 4 12 207.45 233.85 14.35 o
-4 5 12 68.27 74.69 8.61 o
-1 5 12 49.93 46.94 3.51 o
-3 6 12 15.77 15.31 1.67 o
0 6 12 5.12 3.21 0.62 o
-5 7 12 3.08 3.56 0.67 o
-2 7 12 3.40 4.49 0.58 o
-4 8 12 1.27 1.01 0.47 <
-2 3 13 3.42 4.09 0.44 o
-1 4 13 0.30 0.98 0.23 o
-3 5 13 1.85 2.20 0.37 o
-5 6 13 0.25 0.47 0.56 <
-2 6 13 0.00 0.25 0.31 <
-4 7 13 0.12 0.09 0.42 <
-1 7 13 0.00 0.03 0.41 <
-3 8 13 0.00 1.51 0.75 <
0 1 14 256.44 265.39 24.42 o
-2 2 14 455.80 487.96 48.47 o
-1 3 14 134.76 121.88 8.95 o
-3 4 14 25.00 23.73 1.86 o
0 4 14 16.92 17.93 1.89 o
-5 5 14 5.68 4.09 1.25 o
-2 5 14 19.27 20.41 1.62 o
-4 6 14 4.02 2.06 0.55 o
-1 6 14 2.06 2.14 0.41 o
-6 7 14 0.32 1.47 0.92 <
-3 7 14 0.57 0.20 0.39 <
-5 8 14 0.02 0.06 0.67 <
-1 2 15 6.12 6.02 0.59 o
-2 4 15 0.14 0.30 0.25 <
-4 5 15 0.10 1.09 0.53 <
-1 5 15 0.01 0.33 0.31 <
-3 6 15 0.00 -0.03 0.31 <
-5 7 15 0.09 -0.75 0.56 <
-2 7 15 0.00 0.06 0.36 <
-1 1 16 500.75 532.22 48.03 o
0 2 16 322.61 341.71 33.04 o
-2 3 16 124.11 137.57 8.59 o
-4 4 16 66.59 72.54 8.34 o
-1 4 16 67.72 73.42 5.08 o
-3 5 16 26.29 28.90 2.74 o
0 5 16 10.80 9.26 1.14 o
-5 6 16 2.58 1.64 0.87 <
-2 6 16 5.50 5.04 0.69 o
-4 7 16 1.90 1.23 0.72 <
-1 7 16 0.70 1.26 0.67 <
-1 3 17 1.41 1.61 0.30 o
-3 4 17 0.52 0.34 0.36 <
-2 5 17 0.08 0.37 0.31 <
-4 6 17 0.05 -0.12 0.53 <
-1 6 17 0.00 -0.61 0.33 <
-6 7 17 0.00 -0.16 0.80 <
-3 7 17 0.00 -0.22 0.48 <
0 0 18 89.05 80.11 11.65 o
-1 2 18 90.36 94.76 5.66 o
-3 3 18 27.85 27.62 2.88 o
0 3 18 18.94 16.87 1.68 o
-2 4 18 19.76 22.10 1.62 o
-4 5 18 2.22 2.43 0.58 o
-1 5 18 3.66 4.83 0.58 o
-3 6 18 1.43 1.53 0.45 o
0 6 18 0.26 -0.22 0.62 <
-5 7 18 0.18 0.92 0.70 <
-2 7 18 0.17 -0.06 0.62 <
-2 3 19 0.06 -0.27 0.22 <
-1 4 19 0.06 0.09 0.28 <
-3 5 19 0.14 0.58 0.42 <
-5 6 19 0.04 0.75 0.81 <
-2 6 19 0.00 -0.11 0.34 <
-4 7 19 0.01 -1.48 0.84 <
0 1 20 129.81 138.55 10.59 o
-2 2 20 55.82 52.04 3.96 o
-1 3 20 44.57 47.16 3.15 o
-3 4 20 20.33 26.10 2.00 o
0 4 20 13.07 13.66 1.50 o
-5 5 20 2.70 2.57 1.20 <
-2 5 20 5.98 7.03 0.76 o
-4 6 20 1.87 0.89 0.65 <
-1 6 20 1.14 0.89 0.42 <
-3 7 20 0.51 0.76 1.03 <
-1 2 21 0.15 0.28 0.23 <
-2 4 21 0.01 -0.02 0.33 <
-4 5 21 0.00 0.16 0.44 <
-1 5 21 0.00 0.03 0.34 <
-3 6 21 0.00 0.86 0.53 <
-1 1 22 26.15 27.29 2.04 o
0 2 22 13.61 12.40 1.06 o
-2 3 22 11.57 10.67 0.80 o
-4 4 22 1.22 1.64 0.61 <
-1 4 22 3.48 4.02 0.45 o
-3 5 22 1.24 1.51 0.48 o
0 5 22 0.40 0.34 0.51 <
-5 6 22 0.26 0.20 0.84 <
-2 6 22 0.34 -0.30 0.42 <
-1 3 23 0.04 -0.41 0.30 <
-3 4 23 0.02 0.30 0.36 <
-2 5 23 0.00 0.00 0.39 <
-4 6 23 0.00 0.08 0.90 <
0 0 24 29.68 27.18 3.34 o
-1 2 24 16.97 14.71 0.94 o
-3 3 24 7.05 8.39 0.95 o
0 3 24 7.87 7.92 0.80 o
-2 4 24 3.96 3.73 0.48 o
-4 5 24 1.29 0.47 0.48 <
-1 5 24 1.11 0.86 0.39 <
-2 3 25 0.00 0.55 0.28 <
-1 4 25 0.00 0.39 0.34 <
-3 5 25 0.00 0.06 0.41 <
0 1 26 4.80 4.35 0.61 o
-2 2 26 3.41 2.34 0.53 o
-1 3 26 1.88 2.39 0.39 o
-3 4 26 0.64 0.97 0.44 <
0 4 26 0.36 0.28 0.45 <
-2 5 26 0.31 1.28 0.61 <
-1 2 27 0.00 0.05 0.28 <
-2 4 27 0.00 -0.03 0.31 <
-1 1 28 3.84 3.09 0.56 o
0 2 28 2.54 1.59 0.51 o
-2 3 28 1.47 1.06 0.36 <
-1 4 28 0.62 0.64 0.45 <
-1 3 29 0.00 0.50 0.36 <
0 0 30 0.87 0.56 0.90 <
-1 2 30 0.55 0.37 0.34 <
loop_
_jana_atom_site_adp_c_label
_jana_atom_site_adp_c_type_symbol
_jana_atom_site_adp_c_111
_jana_atom_site_adp_c_112
_jana_atom_site_adp_c_113
_jana_atom_site_adp_c_122
_jana_atom_site_adp_c_123
_jana_atom_site_adp_c_133
_jana_atom_site_adp_c_222
_jana_atom_site_adp_c_223
_jana_atom_site_adp_c_233
_jana_atom_site_adp_c_333
O1 O -0.144(17) -0.16(2) 0.010(3) -0.16(2) 0.010(3) -0.0024(7) 0 0 0 0
O2 O -0.144(17) -0.16(2) 0.010(3) -0.16(2) 0.010(3) -0.0024(7) 0 0 0 0
