#------------------------------------------------------------------------------
#$Date: 2023-12-06 15:08:03 +0200 (Wed, 06 Dec 2023) $
#$Revision: 288072 $
#$URL: file:///home/coder/svn-repositories/cod/cif/1/54/73/1547378.cif $
#------------------------------------------------------------------------------
#
# This file is available in the Crystallography Open Database (COD),
# http://www.crystallography.net/
#
# All data on this site have been placed in the public domain by the
# contributors.
#
data_1547378
loop_
_publ_author_name
'Nobuo Ishizawa'
'Hayato Setoguchi'
'Kazumichi Yanagisawa'
_publ_section_title
;
 Structural evolution of calcite at high temperatures: Phase V unveiled
;
_journal_name_full               'Scientific Reports'
_journal_page_first              2832
_journal_paper_doi               10.1038/srep02832
_journal_volume                  3
_journal_year                    2013
_chemical_absolute_configuration .
_chemical_formula_sum            'C Ca O3'
_chemical_formula_weight         100.1
_space_group_IT_number           167
_symmetry_cell_setting           trigonal
_symmetry_Int_Tables_number      167
_symmetry_space_group_name_Hall  '-R 3 2"c'
_symmetry_space_group_name_H-M   'R -3 c :H'
_cell_angle_alpha                90
_cell_angle_beta                 90
_cell_angle_gamma                120
_cell_formula_units_Z            6
_cell_length_a                   4.9725
_cell_length_b                   4.9725
_cell_length_c                   17.6257(3)
_cell_measurement_temperature    1151
_cell_volume                     377.421(6)
_diffrn_ambient_temperature      1151
_diffrn_measured_fraction_theta_full 1
_diffrn_measured_fraction_theta_max 1
_diffrn_measurement_device       'four-cycle diffractometer'
_diffrn_measurement_device_type  'Bruker CCD'
_diffrn_radiation_monochromator  graphite
_diffrn_radiation_probe          x-ray
_diffrn_radiation_source         'X-ray tube'
_diffrn_radiation_type           'Mo K\a'
_diffrn_radiation_wavelength     0.71073
_diffrn_reflns_av_R_equivalents  0.0325
_diffrn_reflns_av_sigmaI/netI    0.0113
_diffrn_reflns_limit_h_max       5
_diffrn_reflns_limit_h_min       -6
_diffrn_reflns_limit_k_max       6
_diffrn_reflns_limit_k_min       -6
_diffrn_reflns_limit_l_max       18
_diffrn_reflns_limit_l_min       -24
_diffrn_reflns_number            1512
_diffrn_reflns_theta_full        29.99
_diffrn_reflns_theta_max         29.99
_diffrn_reflns_theta_min         5.27
_exptl_absorpt_coefficient_mu    2.224
_exptl_crystal_density_diffrn    2.6413
_exptl_crystal_F_000             300
_refine_diff_density_max         0.13
_refine_diff_density_min         -0.15
_refine_ls_extinction_method     none
_refine_ls_goodness_of_fit_gt    2.30
_refine_ls_goodness_of_fit_ref   2.17
_refine_ls_number_constraints    9
_refine_ls_number_parameters     15
_refine_ls_number_reflns         124
_refine_ls_number_restraints     0
_refine_ls_R_factor_all          0.0221
_refine_ls_R_factor_gt           0.0211
_refine_ls_shift/su_max          0.0013
_refine_ls_shift/su_mean         0.0005
_refine_ls_structure_factor_coef F
_refine_ls_weighting_details     w=1/(\s^2^(F)+0.0001F^2^)
_refine_ls_weighting_scheme      sigma
_refine_ls_wR_factor_gt          0.0295
_refine_ls_wR_factor_ref         0.0297
_reflns_number_gt                111
_reflns_number_total             124
_reflns_threshold_expression     I>3\s(I)
_cod_data_source_file            srep02832-s3-Copie7.cif
_cod_data_source_block           1151K_hs25_h850_IV_anharm
_cod_depositor_comments
;
The following automatic conversions were performed:

'_diffrn_radiation_probe' value 'X-ray' changed to 'x-ray' according
to the built-in table from CIF Core dictionary named 'cif_core.dic'
version 2.4.1 from 2010-06-29.

Automatic conversion script
Id: cif_fix_values 5376 2017-05-30 11:51:03Z andrius 

The following automatic conversions were performed:

data name '_atom_site_site_symmetry_mutiplicity' was replaced with
'_atom_site_site_symmetry_multiplicity' as specified in the
replacement file 'data/replacement-values/replacement_tags.lst'.

Automatic conversion script
Id: cif_correct_tags 9268 2022-04-12 08:56:07Z antanas 
;
_cod_original_sg_symbol_Hall     '-R 3;-2"c'
_cod_original_sg_symbol_H-M      'R -3 c'
_cod_original_formula_sum        'C1 Ca1 O3'
_cod_database_code               1547378
loop_
_symmetry_equiv_pos_site_id
_symmetry_equiv_pos_as_xyz
1 x,y,z
2 -y,x-y,z
3 -x+y,-x,z
4 y,x,-z+1/2
5 x-y,-y,-z+1/2
6 -x,-x+y,-z+1/2
7 -x,-y,-z
8 y,-x+y,-z
9 x-y,x,-z
10 -y,-x,z+1/2
11 -x+y,y,z+1/2
12 x,x-y,z+1/2
13 x+2/3,y+1/3,z+1/3
14 -y+2/3,x-y+1/3,z+1/3
15 -x+y+2/3,-x+1/3,z+1/3
16 y+2/3,x+1/3,-z+5/6
17 x-y+2/3,-y+1/3,-z+5/6
18 -x+2/3,-x+y+1/3,-z+5/6
19 -x+2/3,-y+1/3,-z+1/3
20 y+2/3,-x+y+1/3,-z+1/3
21 x-y+2/3,x+1/3,-z+1/3
22 -y+2/3,-x+1/3,z+5/6
23 -x+y+2/3,y+1/3,z+5/6
24 x+2/3,x-y+1/3,z+5/6
25 x+1/3,y+2/3,z+2/3
26 -y+1/3,x-y+2/3,z+2/3
27 -x+y+1/3,-x+2/3,z+2/3
28 y+1/3,x+2/3,-z+1/6
29 x-y+1/3,-y+2/3,-z+1/6
30 -x+1/3,-x+y+2/3,-z+1/6
31 -x+1/3,-y+2/3,-z+2/3
32 y+1/3,-x+y+2/3,-z+2/3
33 x-y+1/3,x+2/3,-z+2/3
34 -y+1/3,-x+2/3,z+1/6
35 -x+y+1/3,y+2/3,z+1/6
36 x+1/3,x-y+2/3,z+1/6
loop_
_atom_site_label
_atom_site_type_symbol
_atom_site_fract_x
_atom_site_fract_y
_atom_site_fract_z
_atom_site_adp_type
_atom_site_U_iso_or_equiv
_atom_site_site_symmetry_multiplicity
_atom_site_occupancy
_atom_site_calc_flag
_atom_site_refinement_flags
_atom_site_disorder_assembly
_atom_site_disorder_group
Ca1 Ca 0 0 0 Uani 0.0555(3) 6 1 d . . .
C1 C 0 0 0.25 Uani 0.0461(8) 6 1 d . . .
O1 O 0.2459(10) 0 0.25 Uani 0.1051(15) 18 0.954(5) d . . .
O2 O -0.2459(10) 0 0.25 Uani 0.1051(15) 18 0.046(5) d . . .
loop_
_atom_site_aniso_label
_atom_site_aniso_type_symbol
_atom_site_aniso_U_11
_atom_site_aniso_U_22
_atom_site_aniso_U_33
_atom_site_aniso_U_12
_atom_site_aniso_U_13
_atom_site_aniso_U_23
Ca1 Ca 0.0571(4) 0.0571(4) 0.0521(4) 0.02856(18) 0 0
C1 C 0.0426(9) 0.0426(9) 0.0531(15) 0.0213(4) 0 0
O1 O 0.0732(9) 0.153(3) 0.1161(16) 0.0763(13) -0.0295(8) -0.0590(17)
O2 O 0.0732(9) 0.153(3) 0.1161(16) 0.0763(13) -0.0295(8) -0.0590(17)
loop_
_atom_type_symbol
_atom_type_scat_dispersion_real
_atom_type_scat_dispersion_imag
_atom_type_scat_source
C 0.0033 0.0016 'International Tables Vol C tables 4.2.6.8 and 6.1.1.1'
Ca 0.2262 0.3064 'International Tables Vol C tables 4.2.6.8 and 6.1.1.1'
O 0.0106 0.0060 'International Tables Vol C tables 4.2.6.8 and 6.1.1.1'
loop_
_geom_bond_atom_site_label_1
_geom_bond_atom_site_label_2
_geom_bond_site_symmetry_1
_geom_bond_site_symmetry_2
_geom_bond_distance
Ca1 C1 . 25_444 3.22480(2)
Ca1 C1 . 25_544 3.22480(2)
Ca1 C1 . 25_554 3.22480(2)
Ca1 C1 . 19_445 3.22480(2)
Ca1 C1 . 19_455 3.22480(2)
Ca1 C1 . 19_555 3.22480(2)
Ca1 O1 . 25_444 2.411(3)
Ca1 O1 . 25_554 3.4488(17)
Ca1 O1 . 26_444 3.4488(17)
Ca1 O1 . 26_544 2.411(3)
Ca1 O1 . 27_544 3.449(5)
Ca1 O1 . 27_554 2.411(4)
Ca1 O1 . 19_445 3.4488(17)
Ca1 O1 . 19_555 2.411(3)
Ca1 O1 . 20_455 2.411(3)
Ca1 O1 . 20_555 3.4488(17)
Ca1 O1 . 21_445 2.411(4)
Ca1 O1 . 21_455 3.449(5)
Ca1 O2 . 25_544 2.411(3)
Ca1 O2 . 25_554 3.4488(17)
Ca1 O2 . 26_444 3.4488(17)
Ca1 O2 . 26_554 2.411(3)
Ca1 O2 . 27_444 2.411(4)
Ca1 O2 . 27_544 3.449(5)
Ca1 O2 . 19_445 3.4488(17)
Ca1 O2 . 19_455 2.411(3)
Ca1 O2 . 20_445 2.411(3)
Ca1 O2 . 20_555 3.4488(17)
Ca1 O2 . 21_455 3.449(5)
Ca1 O2 . 21_555 2.411(4)
C1 O1 . 1_455 3.750(5)
C1 O1 . . 1.223(5)
C1 O1 . 2_545 3.750(5)
C1 O1 . 2_555 1.223(5)
C1 O1 . 3_555 1.223(3)
C1 O1 . 3_665 3.750(3)
C1 O1 . 19_555 3.5053(18)
C1 O1 . 31_545 3.5053(18)
C1 O1 . 20_455 3.5053(18)
C1 O1 . 32_555 3.5053(18)
C1 O1 . 21_445 3.505(3)
C1 O1 . 33_445 3.505(3)
C1 O2 . . 1.223(5)
C1 O2 . 1_655 3.750(5)
C1 O2 . 2_555 1.223(5)
C1 O2 . 2_565 3.750(5)
C1 O2 . 3_445 3.750(3)
C1 O2 . 3_555 1.223(3)
C1 O2 . 19_455 3.5053(18)
C1 O2 . 31_445 3.5053(18)
C1 O2 . 20_445 3.5053(18)
C1 O2 . 32_545 3.5053(18)
C1 O2 . 21_555 3.505(3)
C1 O2 . 33_555 3.505(3)
O1 O1 . 2_545 3.312(5)
O1 O1 . 2_555 2.118(6)
O1 O1 . 2_655 3.312(5)
O1 O1 . 3_555 2.118(6)
O1 O1 . 3_655 3.312(7)
O1 O1 . 3_665 3.312(4)
O1 O1 . 19_555 3.26982(12)
O1 O1 . 31_545 3.26983(12)
O1 O1 . 20_555 3.505(3)
O1 O1 . 32_555 3.505(3)
O1 O1 . 21_445 3.505(2)
O1 O1 . 33_545 3.505(4)
O1 O2 . . 2.445(7)
O1 O2 . 1_655 2.527(7)
O1 O2 . 2_555 1.223(3)
O1 O2 . 2_665 3.750(3)
O1 O2 . 3_545 3.750(6)
O1 O2 . 3_555 1.223(6)
O1 O2 . 20_445 3.909(2)
O1 O2 . 20_555 3.909(2)
O1 O2 . 32_545 3.0327(15)
O1 O2 . 21_555 3.0327(15)
O1 O2 . 33_545 3.909(3)
O1 O2 . 33_555 3.909(4)
O2 O2 . 2_455 3.312(5)
O2 O2 . 2_555 2.118(6)
O2 O2 . 2_565 3.312(5)
O2 O2 . 3_445 3.312(4)
O2 O2 . 3_455 3.312(7)
O2 O2 . 3_555 2.118(6)
O2 O2 . 19_455 3.26982(12)
O2 O2 . 31_445 3.26983(12)
O2 O2 . 20_445 3.505(3)
O2 O2 . 32_445 3.505(3)
O2 O2 . 21_455 3.505(4)
O2 O2 . 33_555 3.505(2)
loop_
_refln_index_h
_refln_index_k
_refln_index_l
_refln_F_squared_calc
_refln_F_squared_meas
_refln_F_squared_sigma
_refln_observed_status
-1 2 0 3848.51 3621.60 37.31 o
0 3 0 2659.99 2610.32 24.69 o
-2 4 0 1433.36 1474.91 16.24 o
-1 5 0 358.32 359.00 3.55 o
-3 6 0 79.24 84.29 1.78 o
0 6 0 25.41 23.47 2.53 o
-2 3 1 457.32 483.88 3.17 o
-1 4 1 2.25 1.84 0.16 o
-3 5 1 42.61 41.83 0.67 o
-5 6 1 1.19 1.09 0.33 o
-2 6 1 0.12 0.16 0.22 <
0 1 2 834.96 865.37 10.03 o
-2 2 2 6280.16 6642.48 60.71 o
-1 3 2 2018.92 2021.46 14.08 o
-3 4 2 117.21 121.33 1.09 o
0 4 2 34.05 32.27 0.69 o
-5 5 2 61.40 64.90 1.55 o
-2 5 2 142.42 129.85 1.46 o
-4 6 2 59.65 58.67 1.00 o
-1 6 2 37.74 41.23 0.98 o
-1 2 3 1271.55 1341.27 8.65 o
-2 4 3 0.61 0.55 0.15 o
-4 5 3 6.70 7.39 0.35 o
-1 5 3 2.23 2.13 0.22 o
-3 6 3 0.48 0.33 0.22 <
-1 1 4 17562.40 15836.20 193.33 o
0 2 4 3104.01 3033.27 28.59 o
-2 3 4 1502.32 1485.29 10.34 o
-4 4 4 1153.72 1142.48 12.84 o
-1 4 4 1330.63 1347.37 10.18 o
-3 5 4 369.82 380.21 3.24 o
0 5 4 138.34 132.62 2.13 o
-5 6 4 38.09 36.27 1.13 o
-2 6 4 65.72 63.86 1.07 o
-1 3 5 327.14 328.86 2.42 o
-3 4 5 12.10 13.84 0.33 o
-2 5 5 20.74 18.08 0.46 o
-4 6 5 0.13 0.25 0.24 <
-1 6 5 0.74 1.17 0.36 o
0 0 6 587.88 794.75 14.88 o
-1 2 6 3892.52 3962.75 27.41 o
-3 3 6 508.82 532.84 5.28 o
0 3 6 290.54 284.21 3.20 o
-2 4 6 294.57 270.52 2.33 o
-4 5 6 40.59 40.53 0.71 o
-1 5 6 69.71 70.65 1.02 o
-3 6 6 52.62 49.55 0.86 o
-2 3 7 146.39 143.07 1.11 o
-1 4 7 0.47 1.04 0.16 o
-3 5 7 28.35 29.01 0.55 o
-5 6 7 1.08 3.68 0.60 o
-2 6 7 0.11 0.55 0.29 <
0 1 8 8497.02 8213.95 88.90 o
-2 2 8 938.05 972.38 10.00 o
-1 3 8 1311.84 1360.99 10.16 o
-3 4 8 882.86 877.07 7.52 o
0 4 8 573.78 591.60 7.28 o
-5 5 8 96.13 101.99 2.19 o
-2 5 8 199.15 200.58 2.26 o
-4 6 8 52.26 55.28 1.27 o
-1 6 8 37.48 34.82 1.09 o
-1 2 9 274.49 258.68 2.02 o
-2 4 9 0.66 0.49 0.15 o
-4 5 9 4.06 4.42 0.35 o
-1 5 9 0.01 0.11 0.20 <
-3 6 9 0.17 0.13 0.31 <
-1 1 10 923.75 919.08 9.58 o
0 2 10 846.67 859.21 8.89 o
-2 3 10 795.02 781.77 6.12 o
-4 4 10 9.54 11.85 0.56 o
-1 4 10 99.96 90.66 1.07 o
-3 5 10 56.90 56.45 0.97 o
0 5 10 24.47 27.42 0.95 o
-2 6 10 25.19 29.57 0.95 o
-1 3 11 65.56 62.77 0.78 o
-3 4 11 8.43 9.09 0.38 o
-2 5 11 3.46 2.60 0.31 o
-4 6 11 0.16 -0.07 0.36 <
0 0 12 5141.30 5171.25 96.05 o
-1 2 12 996.83 981.25 8.07 o
-3 3 12 540.82 554.37 6.32 o
0 3 12 736.39 748.64 9.61 o
-2 4 12 315.59 328.17 3.33 o
-4 5 12 127.36 126.81 1.89 o
-1 5 12 92.69 89.74 1.22 o
-3 6 12 34.45 32.38 1.60 o
-2 3 13 13.20 12.47 0.36 o
-1 4 13 1.06 1.22 0.22 o
-3 5 13 6.87 6.56 0.44 o
0 1 14 317.01 317.68 4.13 o
-2 2 14 620.30 640.06 7.96 o
-1 3 14 195.60 183.30 1.95 o
-3 4 14 38.43 36.98 0.71 o
0 4 14 23.26 25.42 0.80 o
-5 5 14 13.23 13.04 1.86 o
-2 5 14 41.22 40.13 0.93 o
-1 2 15 21.06 19.78 0.42 o
-2 4 15 0.25 0.24 0.20 <
-4 5 15 0.65 0.47 0.38 <
-1 5 15 0.10 0.13 0.27 <
-1 1 16 714.09 720.27 8.92 o
0 2 16 461.20 461.30 6.70 o
-2 3 16 203.19 199.14 2.35 o
-4 4 16 132.35 138.88 3.20 o
-1 4 16 130.35 130.54 1.73 o
-3 5 16 53.13 54.45 1.38 o
-1 3 17 5.39 5.34 0.36 o
-3 4 17 1.70 1.37 0.27 o
-2 5 17 0.24 0.09 0.51 <
0 0 18 101.68 98.51 3.10 o
-1 2 18 144.74 144.66 1.68 o
-3 3 18 43.69 45.83 1.35 o
0 3 18 28.87 27.99 1.00 o
-2 4 18 36.09 35.89 0.84 o
-2 3 19 0.41 0.40 0.24 <
-1 4 19 0.26 0.07 0.36 <
0 1 20 222.16 218.80 3.39 o
-2 2 20 97.03 92.41 2.06 o
-1 3 20 86.58 89.06 1.57 o
-1 2 21 0.79 0.87 0.27 o
-1 1 22 44.27 47.44 1.26 o
0 2 22 25.01 24.02 1.17 o
-2 3 22 22.63 27.04 1.09 o
0 0 24 64.42 62.91 2.66 o
loop_
_jana_atom_site_adp_c_label
_jana_atom_site_adp_c_type_symbol
_jana_atom_site_adp_c_111
_jana_atom_site_adp_c_112
_jana_atom_site_adp_c_113
_jana_atom_site_adp_c_122
_jana_atom_site_adp_c_123
_jana_atom_site_adp_c_133
_jana_atom_site_adp_c_222
_jana_atom_site_adp_c_223
_jana_atom_site_adp_c_233
_jana_atom_site_adp_c_333
O1 O -0.091(11) -0.107(10) 0.0112(16) -0.107(10) 0.0112(16) -0.0026(4) 0 0 0 0
O2 O -0.091(11) -0.107(10) 0.0112(16) -0.107(10) 0.0112(16) -0.0026(4) 0 0 0 0
