#------------------------------------------------------------------------------
#$Date: 2023-12-06 15:08:03 +0200 (Wed, 06 Dec 2023) $
#$Revision: 288072 $
#$URL: file:///home/coder/svn-repositories/cod/cif/1/54/73/1547351.cif $
#------------------------------------------------------------------------------
#
# This file is available in the Crystallography Open Database (COD),
# http://www.crystallography.net/
#
# All data on this site have been placed in the public domain by the
# contributors.
#
data_1547351
loop_
_publ_author_name
'Nobuo Ishizawa'
'Hayato Setoguchi'
'Kazumichi Yanagisawa'
_publ_section_title
;
 Structural evolution of calcite at high temperatures: Phase V unveiled
;
_journal_name_full               'Scientific Reports'
_journal_page_first              2832
_journal_paper_doi               10.1038/srep02832
_journal_volume                  3
_journal_year                    2013
_chemical_absolute_configuration .
_chemical_formula_sum            'C Ca O3'
_chemical_formula_weight         100.1
_space_group_IT_number           167
_symmetry_cell_setting           trigonal
_symmetry_Int_Tables_number      167
_symmetry_space_group_name_Hall  '-R 3 2"c'
_symmetry_space_group_name_H-M   'R -3 c :H'
_cell_angle_alpha                90
_cell_angle_beta                 90
_cell_angle_gamma                120
_cell_formula_units_Z            6
_cell_length_a                   4.98040(10)
_cell_length_b                   4.98040(10)
_cell_length_c                   17.1932(5)
_cell_measurement_temperature    580
_cell_volume                     369.331(15)
_diffrn_ambient_temperature      580
_diffrn_measured_fraction_theta_full 1
_diffrn_measured_fraction_theta_max 1
_diffrn_measurement_device       'four-cycle diffractometer'
_diffrn_measurement_device_type  'Bruker CCD'
_diffrn_radiation_monochromator  graphite
_diffrn_radiation_probe          x-ray
_diffrn_radiation_source         'X-ray tube'
_diffrn_radiation_type           'Mo K\a'
_diffrn_radiation_wavelength     0.71069
_diffrn_reflns_av_R_equivalents  0.0198
_diffrn_reflns_av_sigmaI/netI    0.0141
_diffrn_reflns_limit_h_max       7
_diffrn_reflns_limit_h_min       -5
_diffrn_reflns_limit_k_max       7
_diffrn_reflns_limit_k_min       -6
_diffrn_reflns_limit_l_max       22
_diffrn_reflns_limit_l_min       -24
_diffrn_reflns_number            780
_diffrn_reflns_theta_full        30.28
_diffrn_reflns_theta_max         30.28
_diffrn_reflns_theta_min         5.29
_exptl_absorpt_coefficient_mu    2.273
_exptl_crystal_density_diffrn    2.6991
_exptl_crystal_F_000             300
_refine_diff_density_max         0.46
_refine_diff_density_min         -0.59
_refine_ls_extinction_coef       4700(500)
_refine_ls_extinction_method
'B-C type 1 Gaussian isotropic (Becker & Coppens, 1974)'
_refine_ls_goodness_of_fit_gt    2.39
_refine_ls_goodness_of_fit_ref   2.39
_refine_ls_number_constraints    0
_refine_ls_number_parameters     15
_refine_ls_number_reflns         127
_refine_ls_number_restraints     0
_refine_ls_R_factor_all          0.0277
_refine_ls_R_factor_gt           0.0277
_refine_ls_shift/su_max          0.0198
_refine_ls_shift/su_mean         0.0063
_refine_ls_structure_factor_coef F
_refine_ls_weighting_details     w=1/(\s^2^(F)+0.0001F^2^)
_refine_ls_weighting_scheme      sigma
_refine_ls_wR_factor_gt          0.0308
_refine_ls_wR_factor_ref         0.0308
_reflns_number_gt                127
_reflns_number_total             127
_reflns_threshold_expression     I>3\s(I)
_cod_data_source_file            srep02832-s26.cif
_cod_data_source_block           580K_hs11_h300_I_anharm_in_air
_cod_depositor_comments
;
The following automatic conversions were performed:

'_diffrn_radiation_probe' value 'X-ray' changed to 'x-ray' according
to the built-in table from CIF Core dictionary named 'cif_core.dic'
version 2.4.1 from 2010-06-29.

Automatic conversion script
Id: cif_fix_values 5376 2017-05-30 11:51:03Z andrius 

The following automatic conversions were performed:

data name '_atom_site_site_symmetry_mutiplicity' was replaced with
'_atom_site_site_symmetry_multiplicity' as specified in the
replacement file 'data/replacement-values/replacement_tags.lst'.

Automatic conversion script
Id: cif_correct_tags 9268 2022-04-12 08:56:07Z antanas 
;
_cod_original_sg_symbol_Hall     '-R 3;-2"c'
_cod_original_sg_symbol_H-M      'R -3 c'
_cod_original_formula_sum        'C1 Ca1 O3'
_cod_database_code               1547351
loop_
_symmetry_equiv_pos_site_id
_symmetry_equiv_pos_as_xyz
1 x,y,z
2 -y,x-y,z
3 -x+y,-x,z
4 y,x,-z+1/2
5 x-y,-y,-z+1/2
6 -x,-x+y,-z+1/2
7 -x,-y,-z
8 y,-x+y,-z
9 x-y,x,-z
10 -y,-x,z+1/2
11 -x+y,y,z+1/2
12 x,x-y,z+1/2
13 x+2/3,y+1/3,z+1/3
14 -y+2/3,x-y+1/3,z+1/3
15 -x+y+2/3,-x+1/3,z+1/3
16 y+2/3,x+1/3,-z+5/6
17 x-y+2/3,-y+1/3,-z+5/6
18 -x+2/3,-x+y+1/3,-z+5/6
19 -x+2/3,-y+1/3,-z+1/3
20 y+2/3,-x+y+1/3,-z+1/3
21 x-y+2/3,x+1/3,-z+1/3
22 -y+2/3,-x+1/3,z+5/6
23 -x+y+2/3,y+1/3,z+5/6
24 x+2/3,x-y+1/3,z+5/6
25 x+1/3,y+2/3,z+2/3
26 -y+1/3,x-y+2/3,z+2/3
27 -x+y+1/3,-x+2/3,z+2/3
28 y+1/3,x+2/3,-z+1/6
29 x-y+1/3,-y+2/3,-z+1/6
30 -x+1/3,-x+y+2/3,-z+1/6
31 -x+1/3,-y+2/3,-z+2/3
32 y+1/3,-x+y+2/3,-z+2/3
33 x-y+1/3,x+2/3,-z+2/3
34 -y+1/3,-x+2/3,z+1/6
35 -x+y+1/3,y+2/3,z+1/6
36 x+1/3,x-y+2/3,z+1/6
loop_
_atom_site_label
_atom_site_type_symbol
_atom_site_fract_x
_atom_site_fract_y
_atom_site_fract_z
_atom_site_adp_type
_atom_site_U_iso_or_equiv
_atom_site_site_symmetry_multiplicity
_atom_site_occupancy
_atom_site_calc_flag
_atom_site_refinement_flags
_atom_site_disorder_assembly
_atom_site_disorder_group
Ca1 Ca 0 0 0 Uani 0.0210(3) 6 1 d . . .
C1 C 0 0 0.25 Uani 0.0182(8) 6 1 d . . .
O1 O 0.2528(5) 0 0.25 Uani 0.0358(5) 18 1 d . . .
loop_
_atom_site_aniso_label
_atom_site_aniso_type_symbol
_atom_site_aniso_U_11
_atom_site_aniso_U_22
_atom_site_aniso_U_33
_atom_site_aniso_U_12
_atom_site_aniso_U_13
_atom_site_aniso_U_23
Ca1 Ca 0.0214(4) 0.0214(4) 0.0201(4) 0.01068(19) 0 0
C1 C 0.0176(9) 0.0176(9) 0.0195(15) 0.0088(4) 0 0
O1 O 0.0245(5) 0.0477(8) 0.0430(7) 0.0238(4) -0.0093(3) -0.0187(5)
loop_
_atom_type_symbol
_atom_type_scat_dispersion_real
_atom_type_scat_dispersion_imag
_atom_type_scat_source
C 0.0033 0.0016 'International Tables Vol C tables 4.2.6.8 and 6.1.1.1'
Ca 0.2262 0.3064 'International Tables Vol C tables 4.2.6.8 and 6.1.1.1'
O 0.0106 0.0060 'International Tables Vol C tables 4.2.6.8 and 6.1.1.1'
loop_
_geom_bond_atom_site_label_1
_geom_bond_atom_site_label_2
_geom_bond_site_symmetry_1
_geom_bond_site_symmetry_2
_geom_bond_distance
Ca1 Ca1 . 16_444 4.05948(16)
Ca1 Ca1 . 16_454 4.05948(12)
Ca1 Ca1 . 16_554 4.05948(16)
Ca1 Ca1 . 28_445 4.05948(16)
Ca1 Ca1 . 28_545 4.05948(12)
Ca1 Ca1 . 28_555 4.05948(16)
Ca1 C1 . 25_444 3.21262(15)
Ca1 C1 . 25_544 3.21262(6)
Ca1 C1 . 25_554 3.21262(15)
Ca1 C1 . 19_445 3.21262(15)
Ca1 C1 . 19_455 3.21262(6)
Ca1 C1 . 19_555 3.21262(15)
Ca1 O1 . 25_444 2.3738(13)
Ca1 O1 . 26_544 2.3738(13)
Ca1 O1 . 27_554 2.374(2)
Ca1 O1 . 19_555 2.3738(13)
Ca1 O1 . 20_455 2.3738(13)
Ca1 O1 . 21_445 2.374(2)
C1 O1 . . 1.259(2)
C1 O1 . 2_555 1.259(2)
C1 O1 . 3_555 1.2593(18)
loop_
_refln_index_h
_refln_index_k
_refln_index_l
_refln_F_squared_calc
_refln_F_squared_meas
_refln_F_squared_sigma
_refln_observed_status
-1 2 0 4660.12 4019.12 99.52 o
0 3 0 6449.30 6292.77 67.37 o
-2 4 0 2229.86 2222.40 26.76 o
-1 5 0 1776.48 1702.20 17.59 o
-3 6 0 596.38 590.70 12.37 o
0 6 0 281.28 292.26 7.54 o
-2 3 1 1353.27 1427.82 14.74 o
-1 4 1 8.10 8.20 0.41 o
-3 5 1 292.21 271.41 4.52 o
-5 6 1 63.95 67.76 1.84 o
-2 6 1 4.30 5.08 0.56 o
-4 7 1 15.16 20.95 1.38 o
0 1 2 1014.43 972.12 27.32 o
-2 2 2 7673.73 9538.17 154.53 o
-1 3 2 3980.45 4083.48 34.29 o
-3 4 2 388.96 374.44 4.42 o
0 4 2 10.35 11.01 0.70 o
-5 5 2 397.86 388.53 7.12 o
-2 5 2 1065.16 1059.96 10.91 o
-4 6 2 548.32 554.52 7.46 o
-1 6 2 526.92 519.18 7.11 o
-3 7 2 91.05 92.30 2.63 o
-1 2 3 3137.93 3710.91 54.62 o
-2 4 3 8.49 7.82 0.39 o
-4 5 3 11.57 9.41 0.58 o
-1 5 3 2.13 4.27 0.42 o
-3 6 3 31.31 29.62 1.37 o
-1 1 4 20769.90 14458.60 404.40 o
0 2 4 3887.20 3918.73 45.69 o
-2 3 4 2637.18 2799.43 25.09 o
-4 4 4 4729.12 4811.58 67.19 o
-1 4 4 3800.22 3852.76 34.81 o
-3 5 4 1101.38 1061.97 12.25 o
0 5 4 1073.81 1051.10 19.11 o
-5 6 4 369.21 354.78 4.89 o
-2 6 4 494.45 496.79 6.81 o
-1 3 5 1072.64 1100.38 9.15 o
-3 4 5 31.46 30.82 0.84 o
-2 5 5 193.64 184.43 2.52 o
-4 6 5 4.09 3.30 0.49 o
-1 6 5 54.38 58.73 1.69 o
0 0 6 1151.57 1475.12 59.34 o
-1 2 6 6024.52 6742.52 78.16 o
-3 3 6 686.94 649.77 8.38 o
0 3 6 492.82 466.96 5.75 o
-2 4 6 1460.00 1451.78 13.49 o
-4 5 6 278.64 265.60 4.09 o
-1 5 6 354.19 356.36 4.52 o
-3 6 6 526.43 534.77 7.26 o
-2 3 7 641.34 642.77 6.43 o
-1 4 7 0.27 0.43 0.14 o
-3 5 7 234.27 230.41 3.63 o
-5 6 7 50.89 49.26 1.64 o
-2 6 7 3.10 3.03 0.48 o
0 1 8 11657.00 14141.60 173.21 o
-2 2 8 2034.03 2026.60 22.81 o
-1 3 8 2288.14 2330.96 18.63 o
-3 4 8 2928.99 2980.09 27.47 o
0 4 8 3372.46 3415.05 41.25 o
-5 5 8 788.71 794.99 13.06 o
-2 5 8 779.68 784.49 8.11 o
-4 6 8 536.42 534.66 7.35 o
-1 6 8 365.75 368.73 5.55 o
-1 2 9 1043.78 1042.75 9.07 o
-2 4 9 4.97 5.38 0.38 o
-4 5 9 13.77 12.48 0.85 o
-1 5 9 0.40 1.17 0.31 o
-3 6 9 20.55 21.96 1.21 o
-1 1 10 1077.15 1044.85 11.04 o
0 2 10 2399.66 2337.59 26.41 o
-2 3 10 2053.46 1971.20 16.60 o
-4 4 10 23.95 24.31 1.53 o
-1 4 10 334.01 328.35 3.58 o
-3 5 10 567.36 568.93 5.85 o
0 5 10 222.56 224.29 4.26 o
-5 6 10 379.44 378.77 5.89 o
-2 6 10 439.97 460.01 5.54 o
-1 3 11 382.92 375.10 3.80 o
-3 4 11 31.05 29.87 0.78 o
-2 5 11 72.95 71.38 1.51 o
-4 6 11 2.84 2.36 0.54 o
0 0 12 11283.60 12297.10 208.06 o
-1 2 12 1823.75 1776.48 13.58 o
-3 3 12 2251.78 2251.40 32.23 o
0 3 12 2698.00 2753.13 35.06 o
-2 4 12 1099.62 1102.04 9.73 o
-4 5 12 1019.43 1018.39 14.05 o
-1 5 12 849.59 854.72 9.07 o
-3 6 12 389.80 390.63 5.87 o
-2 3 13 156.32 156.80 1.99 o
-1 4 13 3.75 4.18 0.39 o
-3 5 13 111.83 110.27 1.87 o
0 1 14 591.77 558.96 6.87 o
-2 2 14 1789.86 1713.20 19.10 o
-1 3 14 919.58 910.48 8.31 o
-3 4 14 210.45 205.64 3.13 o
0 4 14 54.41 59.90 1.90 o
-5 5 14 221.60 209.65 5.00 o
-2 5 14 492.19 510.56 5.94 o
-1 2 15 207.77 198.94 2.31 o
-2 4 15 2.10 2.16 0.32 o
-4 5 15 7.38 6.72 0.81 o
-1 5 15 2.48 2.41 0.42 o
-1 1 16 2391.76 2356.28 26.00 o
0 2 16 1308.36 1296.87 16.79 o
-2 3 16 835.96 841.85 8.10 o
-4 4 16 1350.76 1413.83 21.54 o
-1 4 16 1055.87 1087.49 11.15 o
-3 5 16 499.84 520.49 6.63 o
-1 3 17 93.40 93.91 1.66 o
-3 4 17 15.78 17.26 1.08 o
-2 5 17 18.31 19.13 1.02 o
0 0 18 95.61 87.41 4.32 o
-1 2 18 775.82 743.24 7.82 o
-3 3 18 253.37 256.07 5.39 o
0 3 18 163.65 166.82 3.52 o
-2 4 18 369.59 376.53 4.73 o
-2 3 19 28.16 26.37 0.95 o
-1 4 19 3.20 2.22 0.40 o
0 1 20 1279.01 1240.40 16.35 o
-2 2 20 525.13 520.27 9.13 o
-1 3 20 613.64 603.08 7.39 o
-1 2 21 36.34 36.83 1.35 o
-1 1 22 250.93 257.42 5.50 o
0 2 22 272.35 275.84 5.84 o
-2 3 22 301.41 332.49 5.29 o
0 0 24 863.26 828.96 23.93 o
loop_
_jana_atom_site_adp_c_label
_jana_atom_site_adp_c_type_symbol
_jana_atom_site_adp_c_111
_jana_atom_site_adp_c_112
_jana_atom_site_adp_c_113
_jana_atom_site_adp_c_122
_jana_atom_site_adp_c_123
_jana_atom_site_adp_c_133
_jana_atom_site_adp_c_222
_jana_atom_site_adp_c_223
_jana_atom_site_adp_c_233
_jana_atom_site_adp_c_333
O1 O -0.023(5) -0.012(4) 0.0016(5) -0.012(4) 0.0016(5) -0.00047(15) 0 0 0 0
