#------------------------------------------------------------------------------
#$Date: 2023-12-06 15:08:03 +0200 (Wed, 06 Dec 2023) $
#$Revision: 288072 $
#$URL: file:///home/coder/svn-repositories/cod/cif/1/54/73/1547372.cif $
#------------------------------------------------------------------------------
#
# This file is available in the Crystallography Open Database (COD),
# http://www.crystallography.net/
#
# All data on this site have been placed in the public domain by the
# contributors.
#
data_1547372
loop_
_publ_author_name
'Nobuo Ishizawa'
'Hayato Setoguchi'
'Kazumichi Yanagisawa'
_publ_section_title
;
 Structural evolution of calcite at high temperatures: Phase V unveiled
;
_journal_name_full               'Scientific Reports'
_journal_page_first              2832
_journal_paper_doi               10.1038/srep02832
_journal_volume                  3
_journal_year                    2013
_chemical_absolute_configuration .
_chemical_formula_sum            'C Ca O3'
_chemical_formula_weight         100.1
_space_group_IT_number           167
_symmetry_cell_setting           trigonal
_symmetry_Int_Tables_number      167
_symmetry_space_group_name_Hall  '-R 3 2"c'
_symmetry_space_group_name_H-M   'R -3 c :H'
_cell_angle_alpha                90
_cell_angle_beta                 90
_cell_angle_gamma                120
_cell_formula_units_Z            6
_cell_length_a                   4.9679
_cell_length_b                   4.9679
_cell_length_c                   17.8090(3)
_cell_measurement_temperature    1234
_cell_volume                     380.641(6)
_diffrn_ambient_temperature      1234
_diffrn_measured_fraction_theta_full 1
_diffrn_measured_fraction_theta_max 1
_diffrn_measurement_device       'four-cycle diffractometer'
_diffrn_measurement_device_type  'Bruker CCD'
_diffrn_radiation_monochromator  graphite
_diffrn_radiation_probe          x-ray
_diffrn_radiation_source         'X-ray tube'
_diffrn_radiation_type           'Mo K\a'
_diffrn_radiation_wavelength     0.71073
_diffrn_reflns_av_R_equivalents  0.0215
_diffrn_reflns_av_sigmaI/netI    0.0081
_diffrn_reflns_limit_h_max       5
_diffrn_reflns_limit_h_min       -6
_diffrn_reflns_limit_k_max       6
_diffrn_reflns_limit_k_min       -6
_diffrn_reflns_limit_l_max       20
_diffrn_reflns_limit_l_min       -24
_diffrn_reflns_number            1590
_diffrn_reflns_theta_full        29.99
_diffrn_reflns_theta_max         29.99
_diffrn_reflns_theta_min         5.26
_exptl_absorpt_coefficient_mu    2.205
_exptl_crystal_density_diffrn    2.6189
_exptl_crystal_F_000             300
_refine_diff_density_max         0.23
_refine_diff_density_min         -0.22
_refine_ls_extinction_method     none
_refine_ls_goodness_of_fit_gt    4.37
_refine_ls_goodness_of_fit_ref   3.66
_refine_ls_number_constraints    9
_refine_ls_number_parameters     15
_refine_ls_number_reflns         126
_refine_ls_number_restraints     0
_refine_ls_R_factor_all          0.0450
_refine_ls_R_factor_gt           0.0341
_refine_ls_shift/su_max          0.0038
_refine_ls_shift/su_mean         0.0011
_refine_ls_structure_factor_coef F
_refine_ls_weighting_details     w=1/(\s^2^(F)+0.0001F^2^)
_refine_ls_weighting_scheme      sigma
_refine_ls_wR_factor_gt          0.0562
_refine_ls_wR_factor_ref         0.0574
_reflns_number_gt                90
_reflns_number_total             126
_reflns_threshold_expression     I>3\s(I)
_cod_data_source_file            srep02832-s3-Copie11.cif
_cod_data_source_block           1234K_hs25_h930_IV_anharm
_cod_depositor_comments
;
The following automatic conversions were performed:

'_diffrn_radiation_probe' value 'X-ray' changed to 'x-ray' according
to the built-in table from CIF Core dictionary named 'cif_core.dic'
version 2.4.1 from 2010-06-29.

Automatic conversion script
Id: cif_fix_values 5376 2017-05-30 11:51:03Z andrius 

The following automatic conversions were performed:

data name '_atom_site_site_symmetry_mutiplicity' was replaced with
'_atom_site_site_symmetry_multiplicity' as specified in the
replacement file 'data/replacement-values/replacement_tags.lst'.

Automatic conversion script
Id: cif_correct_tags 9268 2022-04-12 08:56:07Z antanas 
;
_cod_original_sg_symbol_Hall     '-R 3;-2"c'
_cod_original_sg_symbol_H-M      'R -3 c'
_cod_original_formula_sum        'C1 Ca1 O3'
_cod_database_code               1547372
loop_
_symmetry_equiv_pos_site_id
_symmetry_equiv_pos_as_xyz
1 x,y,z
2 -y,x-y,z
3 -x+y,-x,z
4 y,x,-z+1/2
5 x-y,-y,-z+1/2
6 -x,-x+y,-z+1/2
7 -x,-y,-z
8 y,-x+y,-z
9 x-y,x,-z
10 -y,-x,z+1/2
11 -x+y,y,z+1/2
12 x,x-y,z+1/2
13 x+2/3,y+1/3,z+1/3
14 -y+2/3,x-y+1/3,z+1/3
15 -x+y+2/3,-x+1/3,z+1/3
16 y+2/3,x+1/3,-z+5/6
17 x-y+2/3,-y+1/3,-z+5/6
18 -x+2/3,-x+y+1/3,-z+5/6
19 -x+2/3,-y+1/3,-z+1/3
20 y+2/3,-x+y+1/3,-z+1/3
21 x-y+2/3,x+1/3,-z+1/3
22 -y+2/3,-x+1/3,z+5/6
23 -x+y+2/3,y+1/3,z+5/6
24 x+2/3,x-y+1/3,z+5/6
25 x+1/3,y+2/3,z+2/3
26 -y+1/3,x-y+2/3,z+2/3
27 -x+y+1/3,-x+2/3,z+2/3
28 y+1/3,x+2/3,-z+1/6
29 x-y+1/3,-y+2/3,-z+1/6
30 -x+1/3,-x+y+2/3,-z+1/6
31 -x+1/3,-y+2/3,-z+2/3
32 y+1/3,-x+y+2/3,-z+2/3
33 x-y+1/3,x+2/3,-z+2/3
34 -y+1/3,-x+2/3,z+1/6
35 -x+y+1/3,y+2/3,z+1/6
36 x+1/3,x-y+2/3,z+1/6
loop_
_atom_site_label
_atom_site_type_symbol
_atom_site_fract_x
_atom_site_fract_y
_atom_site_fract_z
_atom_site_adp_type
_atom_site_U_iso_or_equiv
_atom_site_site_symmetry_multiplicity
_atom_site_occupancy
_atom_site_calc_flag
_atom_site_refinement_flags
_atom_site_disorder_assembly
_atom_site_disorder_group
Ca1 Ca 0 0 0 Uani 0.0709(6) 6 1 d . . .
C1 C 0 0 0.25 Uani 0.0598(15) 6 1 d . . .
O1 O 0.2452(12) 0 0.25 Uani 0.146(5) 18 0.552(6) d . . .
O2 O -0.2452(12) 0 0.25 Uani 0.146(5) 18 0.448(6) d . . .
loop_
_atom_site_aniso_label
_atom_site_aniso_type_symbol
_atom_site_aniso_U_11
_atom_site_aniso_U_22
_atom_site_aniso_U_33
_atom_site_aniso_U_12
_atom_site_aniso_U_13
_atom_site_aniso_U_23
Ca1 Ca 0.0736(7) 0.0736(7) 0.0653(9) 0.0368(4) 0 0
C1 C 0.0571(17) 0.0571(17) 0.065(3) 0.0286(9) 0 0
O1 O 0.105(3) 0.236(8) 0.142(4) 0.118(4) -0.043(2) -0.086(5)
O2 O 0.105(3) 0.236(8) 0.142(4) 0.118(4) -0.043(2) -0.086(5)
loop_
_atom_type_symbol
_atom_type_scat_dispersion_real
_atom_type_scat_dispersion_imag
_atom_type_scat_source
C 0.0033 0.0016 'International Tables Vol C tables 4.2.6.8 and 6.1.1.1'
Ca 0.2262 0.3064 'International Tables Vol C tables 4.2.6.8 and 6.1.1.1'
O 0.0106 0.0060 'International Tables Vol C tables 4.2.6.8 and 6.1.1.1'
loop_
_geom_bond_atom_site_label_1
_geom_bond_atom_site_label_2
_geom_bond_site_symmetry_1
_geom_bond_site_symmetry_2
_geom_bond_distance
Ca1 Ca1 . 16_444 4.12755(7)
Ca1 Ca1 . 16_454 4.12755(7)
Ca1 Ca1 . 16_554 4.12755(7)
Ca1 Ca1 . 28_445 4.12755(7)
Ca1 Ca1 . 28_545 4.12755(7)
Ca1 Ca1 . 28_555 4.12755(7)
Ca1 C1 . 25_444 3.22942(2)
Ca1 C1 . 25_544 3.22942(2)
Ca1 C1 . 25_554 3.22942(2)
Ca1 C1 . 19_445 3.22942(2)
Ca1 C1 . 19_455 3.22942(2)
Ca1 C1 . 19_555 3.22942(2)
Ca1 O1 . 25_444 2.421(3)
Ca1 O1 . 26_544 2.421(3)
Ca1 O1 . 27_554 2.421(5)
Ca1 O1 . 19_555 2.421(3)
Ca1 O1 . 20_455 2.421(3)
Ca1 O1 . 21_445 2.421(5)
Ca1 O2 . 25_544 2.421(3)
Ca1 O2 . 26_554 2.421(3)
Ca1 O2 . 27_444 2.421(5)
Ca1 O2 . 19_455 2.421(3)
Ca1 O2 . 20_445 2.421(3)
Ca1 O2 . 21_555 2.421(5)
C1 O1 . . 1.218(6)
C1 O1 . 2_555 1.218(6)
C1 O1 . 3_555 1.218(4)
C1 O2 . . 1.218(6)
C1 O2 . 2_555 1.218(6)
C1 O2 . 3_555 1.218(4)
O1 O2 . 2_555 1.218(4)
O1 O2 . 3_555 1.218(7)
loop_
_refln_index_h
_refln_index_k
_refln_index_l
_refln_F_squared_calc
_refln_F_squared_meas
_refln_F_squared_sigma
_refln_observed_status
-1 2 0 3581.61 3582.13 21.74 o
0 3 0 1628.22 1656.64 11.12 o
-2 4 0 1136.01 1188.15 9.21 o
-1 5 0 174.38 170.22 1.62 o
-3 6 0 27.93 37.25 1.17 o
0 6 0 9.52 7.97 1.82 o
-2 3 1 3.00 2.96 0.14 o
-1 4 1 1.71 -0.06 0.16 <
-3 5 1 0.03 0.16 0.21 <
-5 6 1 0.30 0.08 0.35 <
-2 6 1 1.55 0.16 0.29 <
0 1 2 850.52 785.71 6.17 o
-2 2 2 5679.70 6030.46 35.54 o
-1 3 2 1390.89 1546.72 7.52 o
-3 4 2 83.49 81.32 0.75 o
0 4 2 43.39 41.73 0.83 o
-5 5 2 16.60 28.46 1.10 o
-2 5 2 58.51 43.97 0.69 o
-4 6 2 22.46 22.31 0.69 o
-1 6 2 8.86 12.48 0.66 o
-1 2 3 6.19 5.69 0.18 o
-2 4 3 3.16 -0.37 0.16 <
-4 5 3 0.02 0.26 0.24 <
-1 5 3 0.00 0.35 0.22 <
-3 6 3 2.74 0.00 0.29 <
-1 1 4 15940.40 15255.50 118.25 o
0 2 4 2753.39 2719.58 17.48 o
-2 3 4 1265.32 1181.38 5.49 o
-4 4 4 568.99 585.41 5.04 o
-1 4 4 771.59 847.85 4.96 o
-3 5 4 196.25 236.60 1.78 o
0 5 4 66.48 49.03 1.18 o
-5 6 4 16.33 12.46 0.83 o
-2 6 4 26.18 24.68 0.72 o
-1 3 5 1.99 2.38 0.18 o
-3 4 5 1.29 0.27 0.18 <
-2 5 5 0.02 -0.10 0.22 <
-4 6 5 1.62 -0.16 0.30 <
-1 6 5 0.05 -0.34 0.40 <
0 0 6 475.66 528.07 7.04 o
-1 2 6 3181.47 3397.81 15.32 o
-3 3 6 425.84 475.53 3.41 o
0 3 6 300.61 232.91 2.18 o
-2 4 6 132.59 124.68 1.10 o
-4 5 6 17.86 19.42 0.58 o
-1 5 6 27.33 36.84 0.74 o
-3 6 6 20.26 18.28 0.59 o
-2 3 7 0.86 1.14 0.14 o
-1 4 7 0.35 -0.10 0.18 <
-3 5 7 0.03 0.35 0.22 <
-5 6 7 0.34 0.00 0.51 <
-2 6 7 0.32 0.38 0.37 <
0 1 8 7656.28 7145.23 48.75 o
-2 2 8 664.06 698.04 5.52 o
-1 3 8 986.53 1066.06 5.85 o
-3 4 8 496.90 519.56 3.71 o
0 4 8 246.51 242.23 3.09 o
-5 5 8 45.21 36.02 1.25 o
-2 5 8 110.76 115.28 1.36 o
-4 6 8 16.18 19.87 0.85 o
-1 6 8 13.72 10.48 0.85 o
-1 2 9 1.85 1.90 0.14 o
-2 4 9 0.34 0.08 0.18 <
-4 5 9 0.02 -0.08 0.29 <
-1 5 9 0.00 0.22 0.26 <
-3 6 9 0.59 -0.08 0.37 <
-1 1 10 829.71 861.72 6.37 o
0 2 10 558.92 546.51 4.30 o
-2 3 10 524.26 526.15 3.22 o
-4 4 10 6.13 8.99 0.58 o
-1 4 10 61.15 54.29 0.78 o
-3 5 10 22.59 22.46 0.67 o
0 5 10 7.31 11.56 0.80 o
-2 6 10 6.39 6.40 0.58 o
-1 3 11 0.37 1.12 0.19 o
-3 4 11 0.10 -0.10 0.24 <
-2 5 11 0.01 0.35 0.29 <
-4 6 11 0.36 0.14 0.46 <
0 0 12 3962.87 3837.48 47.57 o
-1 2 12 779.14 760.50 4.59 o
-3 3 12 292.34 311.13 3.14 o
0 3 12 383.14 424.31 4.30 o
-2 4 12 181.50 191.06 1.81 o
-4 5 12 50.55 54.30 1.10 o
-1 5 12 38.94 33.59 0.77 o
-3 6 12 10.59 10.19 1.14 o
-2 3 13 0.03 0.05 0.19 <
-1 4 13 0.02 0.37 0.22 <
-3 5 13 0.01 0.06 0.35 <
0 1 14 219.69 238.68 2.67 o
-2 2 14 410.58 405.79 4.00 o
-1 3 14 111.51 94.39 1.10 o
-3 4 14 19.27 20.17 0.66 o
0 4 14 13.19 15.21 0.75 o
-5 5 14 2.64 6.33 1.63 o
-2 5 14 11.98 13.92 0.66 o
-1 2 15 0.17 0.06 0.18 <
-2 4 15 0.00 -0.02 0.24 <
-4 5 15 0.00 -0.13 0.50 <
-1 5 15 0.00 0.22 0.34 <
-1 1 16 473.13 451.87 4.69 o
0 2 16 293.29 297.10 3.39 o
-2 3 16 107.51 114.94 1.41 o
-4 4 16 51.29 51.67 2.05 o
-1 4 16 55.25 52.08 1.04 o
-3 5 16 19.53 21.16 0.94 o
-1 3 17 0.03 0.22 0.26 <
-3 4 17 0.00 -0.14 0.30 <
-2 5 17 0.00 -0.62 0.54 <
0 0 18 72.22 73.58 2.56 o
-1 2 18 74.76 75.27 1.06 o
-3 3 18 21.84 20.30 1.04 o
0 3 18 14.62 13.36 0.83 o
-2 4 18 13.86 13.61 0.64 o
-2 3 19 0.00 0.10 0.29 <
-1 4 19 0.00 0.45 0.38 <
0 1 20 120.53 114.37 2.06 o
-2 2 20 48.11 44.44 1.31 o
-1 3 20 37.88 39.33 0.99 o
-3 4 20 15.76 17.32 0.82 o
-1 2 21 0.01 -0.13 0.32 <
-1 1 22 20.30 24.34 1.04 o
0 2 22 9.90 9.58 0.96 o
-2 3 22 8.59 9.23 0.70 o
0 0 24 26.74 27.48 2.03 o
-1 2 24 14.65 12.81 0.94 o
loop_
_jana_atom_site_adp_c_label
_jana_atom_site_adp_c_type_symbol
_jana_atom_site_adp_c_111
_jana_atom_site_adp_c_112
_jana_atom_site_adp_c_113
_jana_atom_site_adp_c_122
_jana_atom_site_adp_c_123
_jana_atom_site_adp_c_133
_jana_atom_site_adp_c_222
_jana_atom_site_adp_c_223
_jana_atom_site_adp_c_233
_jana_atom_site_adp_c_333
O1 O 0.06(3) -0.05(4) 0.003(6) -0.05(4) 0.003(6) -0.0013(12) 0 0 0 0
O2 O 0.06(3) -0.05(4) 0.003(6) -0.05(4) 0.003(6) -0.0013(12) 0 0 0 0
