#------------------------------------------------------------------------------
#$Date: 2023-12-06 15:08:03 +0200 (Wed, 06 Dec 2023) $
#$Revision: 288072 $
#$URL: file:///home/coder/svn-repositories/cod/cif/1/54/73/1547349.cif $
#------------------------------------------------------------------------------
#
# This file is available in the Crystallography Open Database (COD),
# http://www.crystallography.net/
#
# All data on this site have been placed in the public domain by the
# contributors.
#
data_1547349
loop_
_publ_author_name
'Nobuo Ishizawa'
'Hayato Setoguchi'
'Kazumichi Yanagisawa'
_publ_section_title
;
 Structural evolution of calcite at high temperatures: Phase V unveiled
;
_journal_name_full               'Scientific Reports'
_journal_page_first              2832
_journal_paper_doi               10.1038/srep02832
_journal_volume                  3
_journal_year                    2013
_chemical_absolute_configuration .
_chemical_formula_sum            'C Ca O'
_chemical_formula_weight         68.1
_space_group_IT_number           167
_symmetry_cell_setting           trigonal
_symmetry_Int_Tables_number      167
_symmetry_space_group_name_Hall  '-R 3 2"c'
_symmetry_space_group_name_H-M   'R -3 c :H'
_cell_angle_alpha                90
_cell_angle_beta                 90
_cell_angle_gamma                120
_cell_formula_units_Z            36
_cell_length_a                   4.986
_cell_length_b                   4.986
_cell_length_c                   17.0592(3)
_cell_measurement_temperature    294
_cell_volume                     367.277(6)
_diffrn_ambient_temperature      294
_diffrn_measured_fraction_theta_full 1
_diffrn_measured_fraction_theta_max 1
_diffrn_measurement_device       'four-cycle diffractometer'
_diffrn_measurement_device_type  'Bruker CCD'
_diffrn_radiation_monochromator  graphite
_diffrn_radiation_probe          x-ray
_diffrn_radiation_source         'X-ray tube'
_diffrn_radiation_type           'Mo K\a'
_diffrn_radiation_wavelength     0.71073
_diffrn_reflns_av_R_equivalents  0.0168
_diffrn_reflns_av_sigmaI/netI    0.0097
_diffrn_reflns_limit_h_max       5
_diffrn_reflns_limit_h_min       -7
_diffrn_reflns_limit_k_max       8
_diffrn_reflns_limit_k_min       -4
_diffrn_reflns_limit_l_max       26
_diffrn_reflns_limit_l_min       -24
_diffrn_reflns_number            1294
_diffrn_reflns_theta_full        35
_diffrn_reflns_theta_max         35
_diffrn_reflns_theta_min         5.29
_exptl_absorpt_coefficient_mu    13.076
_exptl_crystal_density_diffrn    11.079
_exptl_crystal_F_000             300
_refine_diff_density_max         0.31
_refine_diff_density_min         -0.19
_refine_ls_extinction_coef       20(120)
_refine_ls_extinction_method
'B-C type 1 Gaussian isotropic (Becker & Coppens, 1974)'
_refine_ls_goodness_of_fit_gt    1.81
_refine_ls_goodness_of_fit_ref   1.77
_refine_ls_number_constraints    0
_refine_ls_number_parameters     15
_refine_ls_number_reflns         183
_refine_ls_number_restraints     0
_refine_ls_R_factor_all          0.0180
_refine_ls_R_factor_gt           0.0173
_refine_ls_shift/su_max          0.0060
_refine_ls_shift/su_mean         0.0017
_refine_ls_structure_factor_coef F
_refine_ls_weighting_details     w=1/(\s^2^(F)+0.0001F^2^)
_refine_ls_weighting_scheme      sigma
_refine_ls_wR_factor_gt          0.0230
_refine_ls_wR_factor_ref         0.0231
_reflns_number_gt                176
_reflns_number_total             183
_reflns_threshold_expression     I>3\s(I)
_cod_data_source_file            srep02832-s24.cif
_cod_data_source_block           294K_hs30_RT_I_anharm_after_cool
_cod_depositor_comments
;
The following automatic conversions were performed:

'_diffrn_radiation_probe' value 'X-ray' changed to 'x-ray' according
to the built-in table from CIF Core dictionary named 'cif_core.dic'
version 2.4.1 from 2010-06-29.

Automatic conversion script
Id: cif_fix_values 5376 2017-05-30 11:51:03Z andrius 

The following automatic conversions were performed:

data name '_atom_site_site_symmetry_mutiplicity' was replaced with
'_atom_site_site_symmetry_multiplicity' as specified in the
replacement file 'data/replacement-values/replacement_tags.lst'.

Automatic conversion script
Id: cif_correct_tags 9268 2022-04-12 08:56:07Z antanas 
;
_cod_original_sg_symbol_Hall     '-R 3;-2"c'
_cod_original_sg_symbol_H-M      'R -3 c'
_cod_original_formula_sum        'C1 Ca1 O1'
_cod_database_code               1547349
loop_
_symmetry_equiv_pos_site_id
_symmetry_equiv_pos_as_xyz
1 x,y,z
2 -y,x-y,z
3 -x+y,-x,z
4 y,x,-z+1/2
5 x-y,-y,-z+1/2
6 -x,-x+y,-z+1/2
7 -x,-y,-z
8 y,-x+y,-z
9 x-y,x,-z
10 -y,-x,z+1/2
11 -x+y,y,z+1/2
12 x,x-y,z+1/2
13 x+2/3,y+1/3,z+1/3
14 -y+2/3,x-y+1/3,z+1/3
15 -x+y+2/3,-x+1/3,z+1/3
16 y+2/3,x+1/3,-z+5/6
17 x-y+2/3,-y+1/3,-z+5/6
18 -x+2/3,-x+y+1/3,-z+5/6
19 -x+2/3,-y+1/3,-z+1/3
20 y+2/3,-x+y+1/3,-z+1/3
21 x-y+2/3,x+1/3,-z+1/3
22 -y+2/3,-x+1/3,z+5/6
23 -x+y+2/3,y+1/3,z+5/6
24 x+2/3,x-y+1/3,z+5/6
25 x+1/3,y+2/3,z+2/3
26 -y+1/3,x-y+2/3,z+2/3
27 -x+y+1/3,-x+2/3,z+2/3
28 y+1/3,x+2/3,-z+1/6
29 x-y+1/3,-y+2/3,-z+1/6
30 -x+1/3,-x+y+2/3,-z+1/6
31 -x+1/3,-y+2/3,-z+2/3
32 y+1/3,-x+y+2/3,-z+2/3
33 x-y+1/3,x+2/3,-z+2/3
34 -y+1/3,-x+2/3,z+1/6
35 -x+y+1/3,y+2/3,z+1/6
36 x+1/3,x-y+2/3,z+1/6
loop_
_atom_site_label
_atom_site_type_symbol
_atom_site_fract_x
_atom_site_fract_y
_atom_site_fract_z
_atom_site_adp_type
_atom_site_U_iso_or_equiv
_atom_site_site_symmetry_multiplicity
_atom_site_occupancy
_atom_site_calc_flag
_atom_site_refinement_flags
_atom_site_disorder_assembly
_atom_site_disorder_group
Ca1 Ca 0 0 0 Uani 0.01234(13) 6 1 d . . .
C1 C 0 0 0.25 Uani 0.0118(4) 6 1 d . . .
O1 O 0.2558(3) 0 0.25 Uani 0.0192(3) 18 1 d . . .
loop_
_atom_site_aniso_label
_atom_site_aniso_type_symbol
_atom_site_aniso_U_11
_atom_site_aniso_U_22
_atom_site_aniso_U_33
_atom_site_aniso_U_12
_atom_site_aniso_U_13
_atom_site_aniso_U_23
Ca1 Ca 0.01178(17) 0.01178(17) 0.0135(2) 0.00589(9) 0 0
C1 C 0.0112(5) 0.0112(5) 0.0130(7) 0.0056(2) 0 0
O1 O 0.0133(3) 0.0240(4) 0.0238(3) 0.0120(2) -0.00408(14) -0.0082(3)
loop_
_atom_type_symbol
_atom_type_scat_dispersion_real
_atom_type_scat_dispersion_imag
_atom_type_scat_source
C 0.0033 0.0016 'International Tables Vol C tables 4.2.6.8 and 6.1.1.1'
Ca 0.2262 0.3064 'International Tables Vol C tables 4.2.6.8 and 6.1.1.1'
O 0.0106 0.0060 'International Tables Vol C tables 4.2.6.8 and 6.1.1.1'
loop_
_geom_bond_atom_site_label_1
_geom_bond_atom_site_label_2
_geom_bond_site_symmetry_1
_geom_bond_site_symmetry_2
_geom_bond_distance
Ca1 Ca1 . 16_444 4.04605(7)
Ca1 Ca1 . 16_454 4.04605(7)
Ca1 Ca1 . 16_554 4.04605(7)
Ca1 Ca1 . 28_445 4.04605(7)
Ca1 Ca1 . 28_545 4.04605(7)
Ca1 Ca1 . 28_555 4.04605(7)
Ca1 C1 . 25_444 3.21056(2)
Ca1 C1 . 25_544 3.21056(2)
Ca1 C1 . 25_554 3.21056(2)
Ca1 C1 . 19_445 3.21056(2)
Ca1 C1 . 19_455 3.21056(2)
Ca1 C1 . 19_555 3.21056(2)
Ca1 O1 . 25_444 2.3611(7)
Ca1 O1 . 26_544 2.3611(7)
Ca1 O1 . 27_554 2.3611(12)
Ca1 O1 . 19_555 2.3611(7)
Ca1 O1 . 20_455 2.3611(7)
Ca1 O1 . 21_445 2.3611(12)
C1 O1 . . 1.2756(14)
C1 O1 . 2_555 1.2756(14)
C1 O1 . 3_555 1.2756(10)
loop_
_refln_index_h
_refln_index_k
_refln_index_l
_refln_F_squared_calc
_refln_F_squared_meas
_refln_F_squared_sigma
_refln_observed_status
-1 2 0 4837.80 4604.22 29.06 o
0 3 0 8345.76 8906.87 65.67 o
-2 4 0 2403.69 2434.76 19.62 o
-1 5 0 2713.93 2685.55 17.37 o
-3 6 0 1038.85 1082.16 11.92 o
0 6 0 606.51 590.94 8.24 o
-2 7 0 787.06 783.70 12.63 o
-4 8 0 1412.98 1534.94 35.62 o
-2 3 1 1645.31 1802.24 9.19 o
-1 4 1 10.42 10.14 0.55 o
-3 5 1 455.92 432.26 3.88 o
-5 6 1 188.02 182.96 2.95 o
-2 6 1 9.71 11.08 0.93 o
-4 7 1 8.95 11.86 1.15 o
-1 7 1 54.11 53.37 3.70 o
0 1 2 1120.31 1225.84 8.93 o
-2 2 2 7981.93 8944.72 60.27 o
-1 3 2 4748.21 4857.29 23.58 o
-3 4 2 537.22 548.99 4.19 o
0 4 2 3.15 5.05 0.88 o
-5 5 2 609.37 606.41 7.74 o
-2 5 2 1796.38 1814.96 11.62 o
-4 6 2 1026.63 1027.30 8.13 o
-1 6 2 1033.31 1004.09 8.15 o
-6 7 2 454.53 498.50 11.20 o
-3 7 2 174.79 170.95 3.26 o
-1 2 3 3748.66 4230.57 18.90 o
-2 4 3 20.64 20.27 0.73 o
-4 5 3 1.65 1.74 0.57 o
-1 5 3 0.00 0.22 0.53 <
-3 6 3 103.57 98.09 2.07 o
-5 7 3 120.43 130.77 5.38 o
-2 7 3 102.79 101.24 4.78 o
-4 8 3 2.67 -0.44 1.70 <
-1 1 4 21529.50 20705.00 131.30 o
0 2 4 4078.44 3993.87 24.99 o
-2 3 4 3098.26 3205.96 15.41 o
-4 4 4 6955.87 6980.33 63.32 o
-1 4 4 5015.74 4940.43 25.91 o
-3 5 4 1389.51 1379.65 9.68 o
0 5 4 1872.85 1814.84 17.83 o
-5 6 4 696.51 702.59 7.14 o
-2 6 4 877.12 866.05 7.12 o
-4 7 4 1532.55 1551.78 18.43 o
-1 7 4 641.27 635.37 13.02 o
-1 3 5 1311.04 1334.14 7.45 o
-3 4 5 22.93 21.38 0.75 o
-2 5 5 353.60 335.20 3.26 o
-4 6 5 9.10 10.12 1.12 o
-1 6 5 170.76 176.37 3.09 o
-6 7 5 45.98 52.36 3.75 o
-3 7 5 4.35 3.26 1.30 <
0 0 6 1383.47 1789.71 24.83 o
-1 2 6 6811.26 6905.85 32.79 o
-3 3 6 632.73 621.35 6.24 o
0 3 6 530.57 528.54 5.11 o
-2 4 6 2261.82 2257.57 13.31 o
-4 5 6 472.45 476.78 5.09 o
-1 5 6 528.95 517.53 4.72 o
-6 6 6 841.50 846.98 22.04 o
-3 6 6 954.90 945.79 8.57 o
0 6 6 674.46 692.43 14.13 o
-5 7 6 436.75 462.58 15.54 o
-2 7 6 486.52 522.33 16.22 o
-2 3 7 914.94 950.51 5.31 o
-1 4 7 0.91 2.40 0.48 o
-3 5 7 368.22 352.72 3.83 o
-5 6 7 150.74 156.07 3.00 o
-2 6 7 7.46 8.29 0.97 o
-4 7 7 11.08 16.88 2.47 o
-1 7 7 48.25 49.85 3.66 o
0 1 8 12418.30 12476.90 95.58 o
-2 2 8 2561.51 2536.38 20.37 o
-1 3 8 2552.98 2567.93 12.10 o
-3 4 8 3990.71 3951.35 22.66 o
0 4 8 5403.31 5283.57 50.16 o
-5 5 8 1478.89 1437.92 16.77 o
-2 5 8 1096.16 1087.24 7.67 o
-4 6 8 905.74 905.21 9.19 o
-1 6 8 662.30 639.18 7.16 o
-6 7 8 529.89 527.62 11.83 o
-3 7 8 1249.14 1279.71 21.27 o
-1 2 9 1453.32 1452.15 8.20 o
-2 4 9 12.07 10.25 0.66 o
-4 5 9 3.83 3.26 0.75 o
-1 5 9 1.24 2.45 0.75 o
-3 6 9 73.82 74.11 2.25 o
-5 7 9 103.93 110.89 7.07 o
-2 7 9 64.57 68.82 5.91 o
-1 1 10 1063.35 998.57 8.24 o
0 2 10 3222.28 3189.53 23.48 o
-2 3 10 2572.95 2463.69 12.74 o
-4 4 10 16.82 16.42 1.48 o
-1 4 10 440.20 434.46 4.21 o
-3 5 10 1107.12 1074.63 9.08 o
0 5 10 396.03 379.80 7.65 o
-5 6 10 789.22 795.14 9.15 o
-2 6 10 854.01 840.81 7.96 o
-4 7 10 117.79 120.96 7.67 o
-1 3 11 556.05 543.24 3.92 o
-3 4 11 22.28 20.03 0.90 o
-2 5 11 183.60 179.87 2.67 o
-4 6 11 6.37 7.05 1.26 o
-1 6 11 115.79 113.89 3.94 o
-3 7 11 1.01 2.05 1.83 <
0 0 12 13890.90 12913.90 198.76 o
-1 2 12 2008.57 2005.97 10.18 o
-3 3 12 3431.38 3480.59 26.85 o
0 3 12 3757.87 3765.15 31.81 o
-2 4 12 1391.82 1361.02 8.55 o
-4 5 12 1711.93 1667.66 14.17 o
-1 5 12 1559.31 1539.12 13.05 o
-6 6 12 344.23 353.09 13.05 o
-3 6 12 724.63 736.16 8.60 o
0 6 12 548.11 575.24 17.43 o
-5 7 12 582.65 587.32 18.56 o
-2 7 12 495.70 488.57 11.11 o
-2 3 13 312.79 303.88 2.62 o
-1 4 13 0.26 0.46 0.53 <
-3 5 13 209.74 202.81 2.98 o
-5 6 13 92.05 89.80 4.52 o
-2 6 13 4.34 2.40 1.34 <
-4 7 13 9.24 12.25 3.66 o
0 1 14 666.22 613.13 6.04 o
-2 2 14 2208.48 2180.03 16.07 o
-1 3 14 1420.43 1391.97 8.95 o
-3 4 14 312.77 306.11 3.31 o
0 4 14 34.83 31.93 1.98 o
-5 5 14 394.80 369.93 7.82 o
-2 5 14 922.83 926.55 8.31 o
-4 6 14 475.23 458.64 15.07 o
-1 6 14 529.68 525.44 11.48 o
-1 2 15 398.68 395.32 3.22 o
-2 4 15 5.37 4.72 0.68 o
-4 5 15 3.74 4.43 1.12 o
-1 5 15 2.72 3.50 1.01 o
-3 6 15 40.54 38.54 3.35 o
-1 1 16 3245.09 3155.16 24.23 o
0 2 16 1483.90 1455.17 12.39 o
-2 3 16 1153.62 1128.79 7.63 o
-4 4 16 2557.61 2486.43 30.07 o
-1 4 16 1812.63 1811.82 11.73 o
-3 5 16 773.68 809.13 8.18 o
0 5 16 979.08 1015.50 25.30 o
-5 6 16 379.71 362.92 9.30 o
-2 6 16 428.98 433.34 8.46 o
-1 3 17 191.67 191.79 2.80 o
-3 4 17 14.60 14.83 1.12 o
-2 5 17 74.55 70.45 2.40 o
-4 6 17 3.61 4.45 2.80 <
0 0 18 33.16 33.32 2.34 o
-1 2 18 1208.09 1205.60 7.74 o
-3 3 18 312.93 304.17 5.36 o
0 3 18 234.03 221.48 4.50 o
-2 4 18 704.35 707.66 7.18 o
-4 5 18 208.41 203.23 6.59 o
-1 5 18 266.03 269.72 6.39 o
-3 6 18 382.66 412.07 10.42 o
-2 3 19 95.61 91.39 1.85 o
-1 4 19 1.05 2.62 0.86 o
-3 5 19 96.75 100.32 3.90 o
0 1 20 1930.23 1876.61 15.91 o
-2 2 20 771.53 775.46 8.11 o
-1 3 20 876.20 887.07 7.52 o
-3 4 20 1215.93 1243.76 13.11 o
0 4 20 1562.56 1592.75 25.32 o
-2 5 20 439.46 455.62 8.93 o
-1 2 21 114.00 112.02 1.87 o
-2 4 21 2.19 4.52 1.23 o
-1 1 22 322.87 322.37 4.65 o
0 2 22 554.60 571.54 6.79 o
-2 3 22 569.02 594.02 6.15 o
-4 4 22 35.47 26.36 4.58 o
-1 4 22 181.96 207.42 5.05 o
-1 3 23 64.23 62.85 2.91 o
-3 4 23 7.69 11.08 2.09 o
0 0 24 1773.70 1757.38 27.20 o
-1 2 24 576.95 567.60 6.88 o
-3 3 24 800.84 786.59 15.12 o
0 3 24 906.57 992.59 18.45 o
-2 3 25 28.10 23.73 1.90 o
0 1 26 181.19 199.95 5.44 o
-2 2 26 408.52 432.06 8.53 o
loop_
_jana_atom_site_adp_c_label
_jana_atom_site_adp_c_type_symbol
_jana_atom_site_adp_c_111
_jana_atom_site_adp_c_112
_jana_atom_site_adp_c_113
_jana_atom_site_adp_c_122
_jana_atom_site_adp_c_123
_jana_atom_site_adp_c_133
_jana_atom_site_adp_c_222
_jana_atom_site_adp_c_223
_jana_atom_site_adp_c_233
_jana_atom_site_adp_c_333
O1 O -0.007(2) 0.0012(17) 0.0005(3) 0.0012(17) 0.0005(3) -0.00011(8) 0 0 0 0
