#------------------------------------------------------------------------------
#$Date: 2023-12-06 15:08:03 +0200 (Wed, 06 Dec 2023) $
#$Revision: 288072 $
#$URL: file:///home/coder/svn-repositories/cod/cif/1/54/73/1547375.cif $
#------------------------------------------------------------------------------
#
# This file is available in the Crystallography Open Database (COD),
# http://www.crystallography.net/
#
# All data on this site have been placed in the public domain by the
# contributors.
#
data_1547375
loop_
_publ_author_name
'Nobuo Ishizawa'
'Hayato Setoguchi'
'Kazumichi Yanagisawa'
_publ_section_title
;
 Structural evolution of calcite at high temperatures: Phase V unveiled
;
_journal_name_full               'Scientific Reports'
_journal_page_first              2832
_journal_paper_doi               10.1038/srep02832
_journal_volume                  3
_journal_year                    2013
_chemical_absolute_configuration .
_chemical_formula_sum            'C Ca O3'
_chemical_formula_weight         100.1
_space_group_IT_number           167
_symmetry_cell_setting           trigonal
_symmetry_Int_Tables_number      167
_symmetry_space_group_name_Hall  '-R 3 2"c'
_symmetry_space_group_name_H-M   'R -3 c :H'
_cell_angle_alpha                90
_cell_angle_beta                 90
_cell_angle_gamma                120
_cell_formula_units_Z            6
_cell_length_a                   4.9738
_cell_length_b                   4.9738
_cell_length_c                   17.5413(3)
_cell_measurement_temperature    1078
_cell_volume                     375.811(6)
_diffrn_ambient_temperature      1078
_diffrn_measured_fraction_theta_full 1
_diffrn_measured_fraction_theta_max 1
_diffrn_measurement_device       'four-cycle diffractometer'
_diffrn_measurement_device_type  'Bruker CCD'
_diffrn_radiation_monochromator  graphite
_diffrn_radiation_probe          x-ray
_diffrn_radiation_source         'X-ray tube'
_diffrn_radiation_type           'Mo K\a'
_diffrn_radiation_wavelength     0.71073
_diffrn_reflns_av_R_equivalents  0.0249
_diffrn_reflns_av_sigmaI/netI    0.0124
_diffrn_reflns_limit_h_max       5
_diffrn_reflns_limit_h_min       -7
_diffrn_reflns_limit_k_max       8
_diffrn_reflns_limit_k_min       -5
_diffrn_reflns_limit_l_max       28
_diffrn_reflns_limit_l_min       -24
_diffrn_reflns_number            1343
_diffrn_reflns_theta_full        34.97
_diffrn_reflns_theta_max         34.97
_diffrn_reflns_theta_min         5.27
_exptl_absorpt_coefficient_mu    2.234
_exptl_crystal_density_diffrn    2.6526
_exptl_crystal_F_000             300
_refine_diff_density_max         0.11
_refine_diff_density_min         -0.13
_refine_ls_extinction_method     none
_refine_ls_goodness_of_fit_gt    1.73
_refine_ls_goodness_of_fit_ref   1.60
_refine_ls_number_constraints    9
_refine_ls_number_parameters     15
_refine_ls_number_reflns         189
_refine_ls_number_restraints     0
_refine_ls_R_factor_all          0.0229
_refine_ls_R_factor_gt           0.0201
_refine_ls_shift/su_max          0.0036
_refine_ls_shift/su_mean         0.0009
_refine_ls_structure_factor_coef F
_refine_ls_weighting_details     w=1/(\s^2^(F)+0.0001F^2^)
_refine_ls_weighting_scheme      sigma
_refine_ls_wR_factor_gt          0.0250
_refine_ls_wR_factor_ref         0.0255
_reflns_number_gt                158
_reflns_number_total             189
_reflns_threshold_expression     I>3\s(I)
_cod_data_source_file            srep02832-s3-Copie4.cif
_cod_data_source_block           1078K_hs30_h780_IV_anharm
_cod_depositor_comments
;
The following automatic conversions were performed:

'_diffrn_radiation_probe' value 'X-ray' changed to 'x-ray' according
to the built-in table from CIF Core dictionary named 'cif_core.dic'
version 2.4.1 from 2010-06-29.

Automatic conversion script
Id: cif_fix_values 5376 2017-05-30 11:51:03Z andrius 

The following automatic conversions were performed:

data name '_atom_site_site_symmetry_mutiplicity' was replaced with
'_atom_site_site_symmetry_multiplicity' as specified in the
replacement file 'data/replacement-values/replacement_tags.lst'.

Automatic conversion script
Id: cif_correct_tags 9268 2022-04-12 08:56:07Z antanas 
;
_cod_original_sg_symbol_Hall     '-R 3;-2"c'
_cod_original_sg_symbol_H-M      'R -3 c'
_cod_original_formula_sum        'C1 Ca1 O3'
_cod_database_code               1547375
loop_
_symmetry_equiv_pos_site_id
_symmetry_equiv_pos_as_xyz
1 x,y,z
2 -y,x-y,z
3 -x+y,-x,z
4 y,x,-z+1/2
5 x-y,-y,-z+1/2
6 -x,-x+y,-z+1/2
7 -x,-y,-z
8 y,-x+y,-z
9 x-y,x,-z
10 -y,-x,z+1/2
11 -x+y,y,z+1/2
12 x,x-y,z+1/2
13 x+2/3,y+1/3,z+1/3
14 -y+2/3,x-y+1/3,z+1/3
15 -x+y+2/3,-x+1/3,z+1/3
16 y+2/3,x+1/3,-z+5/6
17 x-y+2/3,-y+1/3,-z+5/6
18 -x+2/3,-x+y+1/3,-z+5/6
19 -x+2/3,-y+1/3,-z+1/3
20 y+2/3,-x+y+1/3,-z+1/3
21 x-y+2/3,x+1/3,-z+1/3
22 -y+2/3,-x+1/3,z+5/6
23 -x+y+2/3,y+1/3,z+5/6
24 x+2/3,x-y+1/3,z+5/6
25 x+1/3,y+2/3,z+2/3
26 -y+1/3,x-y+2/3,z+2/3
27 -x+y+1/3,-x+2/3,z+2/3
28 y+1/3,x+2/3,-z+1/6
29 x-y+1/3,-y+2/3,-z+1/6
30 -x+1/3,-x+y+2/3,-z+1/6
31 -x+1/3,-y+2/3,-z+2/3
32 y+1/3,-x+y+2/3,-z+2/3
33 x-y+1/3,x+2/3,-z+2/3
34 -y+1/3,-x+2/3,z+1/6
35 -x+y+1/3,y+2/3,z+1/6
36 x+1/3,x-y+2/3,z+1/6
loop_
_atom_site_label
_atom_site_type_symbol
_atom_site_fract_x
_atom_site_fract_y
_atom_site_fract_z
_atom_site_adp_type
_atom_site_U_iso_or_equiv
_atom_site_site_symmetry_multiplicity
_atom_site_occupancy
_atom_site_calc_flag
_atom_site_refinement_flags
_atom_site_disorder_assembly
_atom_site_disorder_group
Ca1 Ca 0 0 0 Uani 0.04906(16) 6 1 d . . .
C1 C 0 0 0.25 Uani 0.0413(4) 6 1 d . . .
O1 O 0.2473(5) 0 0.25 Uani 0.0894(8) 18 0.979(4) d . . .
O2 O -0.2473(5) 0 0.25 Uani 0.0894(8) 18 0.021(4) d . . .
loop_
_atom_site_aniso_label
_atom_site_aniso_type_symbol
_atom_site_aniso_U_11
_atom_site_aniso_U_22
_atom_site_aniso_U_33
_atom_site_aniso_U_12
_atom_site_aniso_U_13
_atom_site_aniso_U_23
Ca1 Ca 0.0503(2) 0.0503(2) 0.0465(2) 0.02517(10) 0 0
C1 C 0.0380(5) 0.0380(5) 0.0479(8) 0.0190(2) 0 0
O1 O 0.0616(5) 0.1272(14) 0.1013(9) 0.0636(7) -0.0246(5) -0.0492(9)
O2 O 0.0616(5) 0.1272(14) 0.1013(9) 0.0636(7) -0.0246(5) -0.0492(9)
loop_
_atom_type_symbol
_atom_type_scat_dispersion_real
_atom_type_scat_dispersion_imag
_atom_type_scat_source
C 0.0033 0.0016 'International Tables Vol C tables 4.2.6.8 and 6.1.1.1'
Ca 0.2262 0.3064 'International Tables Vol C tables 4.2.6.8 and 6.1.1.1'
O 0.0106 0.0060 'International Tables Vol C tables 4.2.6.8 and 6.1.1.1'
loop_
_geom_bond_atom_site_label_1
_geom_bond_atom_site_label_2
_geom_bond_site_symmetry_1
_geom_bond_site_symmetry_2
_geom_bond_distance
Ca1 Ca1 . 16_444 4.09797(7)
Ca1 Ca1 . 16_454 4.09797(7)
Ca1 Ca1 . 16_554 4.09797(7)
Ca1 Ca1 . 28_445 4.09797(7)
Ca1 Ca1 . 28_545 4.09797(7)
Ca1 Ca1 . 28_555 4.09797(7)
Ca1 C1 . 25_444 3.22227(2)
Ca1 C1 . 25_544 3.22227(2)
Ca1 C1 . 25_554 3.22227(2)
Ca1 C1 . 19_445 3.22227(2)
Ca1 C1 . 19_455 3.22227(2)
Ca1 C1 . 19_555 3.22227(2)
Ca1 O1 . 25_444 2.4037(13)
Ca1 O1 . 26_544 2.4037(13)
Ca1 O1 . 27_554 2.404(2)
Ca1 O1 . 19_555 2.4037(13)
Ca1 O1 . 20_455 2.4037(13)
Ca1 O1 . 21_445 2.404(2)
Ca1 O2 . 25_544 2.4037(13)
Ca1 O2 . 26_554 2.4037(13)
Ca1 O2 . 27_444 2.404(2)
Ca1 O2 . 19_455 2.4037(13)
Ca1 O2 . 20_445 2.4037(13)
Ca1 O2 . 21_555 2.404(2)
C1 O1 . . 1.230(3)
C1 O1 . 2_555 1.230(3)
C1 O1 . 3_555 1.2302(18)
C1 O2 . . 1.230(3)
C1 O2 . 2_555 1.230(3)
C1 O2 . 3_555 1.2302(18)
O1 O2 . 2_555 1.2302(18)
O1 O2 . 3_555 1.230(3)
loop_
_refln_index_h
_refln_index_k
_refln_index_l
_refln_F_squared_calc
_refln_F_squared_meas
_refln_F_squared_sigma
_refln_observed_status
-1 2 0 3990.20 3786.43 40.11 o
0 3 0 3143.44 3187.25 38.27 o
-2 4 0 1571.47 1611.74 16.36 o
-1 5 0 487.45 476.86 4.16 o
-3 6 0 113.14 120.19 2.06 o
0 6 0 37.77 34.14 1.11 o
-2 7 0 46.40 44.84 1.46 o
-4 8 0 29.76 29.64 2.45 o
-2 3 1 634.22 684.78 5.51 o
-1 4 1 3.22 3.06 0.20 o
-3 5 1 69.15 66.16 0.87 o
-5 6 1 2.64 3.28 0.31 o
-2 6 1 0.25 0.44 0.20 <
-4 7 1 4.57 5.20 0.41 o
-1 7 1 0.34 0.37 0.55 <
0 1 2 858.42 914.12 9.84 o
-2 2 2 6552.46 6789.26 74.87 o
-1 3 2 2309.48 2331.25 18.76 o
-3 4 2 144.97 150.94 1.46 o
0 4 2 29.37 27.30 0.74 o
-5 5 2 88.85 86.50 1.66 o
-2 5 2 213.64 199.58 1.90 o
-4 6 2 92.41 92.38 1.25 o
-1 6 2 64.73 69.00 1.07 o
-6 7 2 6.92 5.93 0.96 o
-3 7 2 11.14 11.02 0.53 o
-1 2 3 1674.46 1845.32 12.79 o
-2 4 3 0.88 0.72 0.15 o
-4 5 3 10.77 11.24 0.41 o
-1 5 3 3.49 3.81 0.28 o
-3 6 3 1.00 0.96 0.24 o
-5 7 3 4.01 3.43 0.66 o
-2 7 3 2.13 1.81 0.55 o
-1 1 4 18136.30 16609.00 202.90 o
0 2 4 3213.94 3116.68 30.05 o
-2 3 4 1658.69 1695.85 12.23 o
-4 4 4 1520.93 1534.70 16.88 o
-1 4 4 1632.17 1653.01 10.83 o
-3 5 4 454.89 466.32 3.89 o
0 5 4 202.07 192.25 2.87 o
-5 6 4 56.42 56.28 1.09 o
-2 6 4 93.32 92.38 1.33 o
-4 7 4 60.60 60.93 1.34 o
-1 7 4 27.57 26.20 1.57 o
-1 3 5 464.73 460.07 3.54 o
-3 4 5 18.31 18.33 0.39 o
-2 5 5 34.63 30.56 0.53 o
-4 6 5 0.29 0.24 0.22 <
-1 6 5 1.71 1.57 0.31 o
-6 7 5 0.49 1.12 0.63 <
-3 7 5 2.26 3.21 0.48 o
0 0 6 680.17 884.31 16.12 o
-1 2 6 4230.29 4303.14 30.20 o
-3 3 6 546.44 555.98 6.12 o
0 3 6 320.14 309.72 3.59 o
-2 4 6 400.21 383.50 3.15 o
-4 5 6 58.12 58.31 1.01 o
-1 5 6 95.42 96.37 1.29 o
-6 6 6 37.42 38.25 2.56 o
-3 6 6 83.58 82.02 1.22 o
0 6 6 20.36 18.13 1.11 o
-5 7 6 9.47 7.48 1.44 o
-2 7 6 8.32 7.96 1.38 o
-2 3 7 213.06 209.53 1.77 o
-1 4 7 0.88 1.09 0.17 o
-3 5 7 48.25 49.84 0.79 o
-5 6 7 2.52 3.22 0.37 o
-2 6 7 0.21 0.59 0.26 <
-4 7 7 3.22 3.35 0.74 o
-1 7 7 0.11 0.70 0.63 <
0 1 8 8973.16 8700.88 115.64 o
-2 2 8 1065.09 1066.98 13.65 o
-1 3 8 1452.76 1492.16 10.59 o
-3 4 8 1107.16 1101.19 8.42 o
0 4 8 805.87 789.26 10.30 o
-5 5 8 139.08 139.32 2.63 o
-2 5 8 254.33 255.22 2.34 o
-4 6 8 80.49 83.27 1.34 o
-1 6 8 56.26 54.53 1.11 o
-6 7 8 16.66 16.54 1.42 o
-3 7 8 43.88 43.55 1.95 o
-1 2 9 384.33 383.30 3.10 o
-2 4 9 0.89 0.64 0.17 o
-4 5 9 6.92 6.74 0.41 o
-1 5 9 0.01 -0.02 0.20 <
-3 6 9 0.46 0.33 0.26 <
-5 7 9 2.95 3.10 1.09 <
-2 7 9 0.41 0.31 0.77 <
-1 1 10 952.72 920.70 10.15 o
0 2 10 1028.74 1037.33 10.56 o
-2 3 10 947.70 926.24 6.74 o
-4 4 10 11.20 13.12 0.68 o
-1 4 10 123.69 118.46 1.27 o
-3 5 10 88.20 87.11 1.31 o
0 5 10 37.70 40.57 1.27 o
-5 6 10 37.89 40.44 1.01 o
-2 6 10 45.02 44.84 1.05 o
-4 7 10 4.48 5.67 0.96 o
-1 3 11 101.99 98.22 1.01 o
-3 4 11 13.42 14.09 0.44 o
-2 5 11 6.48 6.02 0.37 o
-4 6 11 0.31 0.17 0.29 <
-1 6 11 0.68 0.42 0.41 <
-3 7 11 0.31 0.64 0.63 <
0 0 12 5894.94 5756.03 120.47 o
-1 2 12 1097.94 1102.90 7.39 o
-3 3 12 697.46 715.37 8.20 o
0 3 12 933.82 951.98 10.89 o
-2 4 12 398.38 423.48 3.57 o
-4 5 12 185.65 189.26 2.47 o
-1 5 12 136.80 136.92 1.82 o
-6 6 12 9.58 7.90 1.53 o
-3 6 12 52.82 53.26 1.14 o
0 6 12 23.28 26.36 2.36 o
-5 7 12 17.10 13.69 1.88 o
-2 7 12 17.77 21.46 2.21 o
-2 3 13 22.35 21.37 0.42 o
-1 4 13 1.88 2.43 0.24 o
-3 5 13 13.19 12.69 0.48 o
-5 6 13 1.34 1.88 0.72 <
-2 6 13 0.06 0.07 0.33 <
-4 7 13 0.89 -0.22 0.59 <
0 1 14 354.16 343.29 4.03 o
-2 2 14 757.84 754.42 7.87 o
-1 3 14 256.20 241.97 2.10 o
-3 4 14 51.48 51.83 0.94 o
0 4 14 28.91 28.46 1.05 o
-5 5 14 23.77 25.98 1.31 o
-2 5 14 66.58 67.49 1.05 o
-4 6 14 15.50 17.10 1.14 o
-1 6 14 11.26 9.69 1.16 o
-1 2 15 34.34 31.82 0.53 o
-2 4 15 0.40 0.81 0.26 o
-4 5 15 1.28 1.93 0.39 o
-1 5 15 0.24 0.50 0.29 <
-3 6 15 0.13 0.59 0.52 <
-1 1 16 867.33 857.58 8.88 o
0 2 16 555.68 563.00 6.69 o
-2 3 16 259.09 259.97 2.38 o
-4 4 16 200.35 197.28 3.91 o
-1 4 16 188.03 185.30 2.25 o
-3 5 16 79.56 82.65 1.60 o
0 5 16 43.75 50.66 3.08 o
-5 6 16 12.28 11.44 1.20 o
-2 6 16 20.92 21.59 1.25 o
-1 3 17 9.97 9.99 0.42 o
-3 4 17 3.11 2.08 0.35 o
-2 5 17 0.56 0.37 0.33 <
-4 6 17 0.16 0.42 0.87 <
0 0 18 108.40 102.23 2.76 o
-1 2 18 194.50 196.49 1.84 o
-3 3 18 59.88 61.59 1.34 o
0 3 18 39.06 39.85 1.42 o
-2 4 18 54.48 52.93 1.11 o
-4 5 18 9.18 6.96 1.01 o
-1 5 18 14.87 16.89 1.09 o
-3 6 18 7.59 9.43 1.18 o
-2 3 19 0.94 0.50 0.22 <
-1 4 19 0.52 0.31 0.33 <
-3 5 19 1.61 2.10 0.72 <
0 1 20 295.69 285.66 3.87 o
-2 2 20 127.36 119.38 1.90 o
-1 3 20 121.93 120.77 1.60 o
-3 4 20 73.97 78.82 1.58 o
0 4 20 54.75 52.80 2.16 o
-2 5 20 22.92 22.94 1.23 o
-1 2 21 1.68 1.62 0.24 o
-2 4 21 0.07 0.35 0.42 <
-4 5 21 0.07 0.02 0.66 <
-1 5 21 0.09 0.06 0.57 <
-1 1 22 61.01 62.62 1.33 o
0 2 22 37.12 37.38 1.01 o
-2 3 22 35.53 38.25 0.87 o
-4 4 22 4.28 3.59 1.29 <
-1 4 22 12.35 12.36 1.16 o
-3 5 22 6.20 7.98 1.09 o
-1 3 23 0.51 0.70 0.31 <
-3 4 23 0.28 -0.77 0.52 <
0 0 24 97.13 97.88 3.15 o
-1 2 24 54.22 55.16 0.96 o
-3 3 24 30.85 32.44 1.38 o
0 3 24 34.50 35.41 1.75 o
-2 4 24 18.24 17.69 1.11 o
-2 3 25 0.01 0.17 0.37 <
0 1 26 15.35 14.96 1.01 o
-2 2 26 13.87 14.17 1.07 o
-1 3 26 7.83 9.08 0.70 o
-1 2 27 0.04 -0.04 0.35 <
-1 1 28 17.73 15.97 1.11 o
loop_
_jana_atom_site_adp_c_label
_jana_atom_site_adp_c_type_symbol
_jana_atom_site_adp_c_111
_jana_atom_site_adp_c_112
_jana_atom_site_adp_c_113
_jana_atom_site_adp_c_122
_jana_atom_site_adp_c_123
_jana_atom_site_adp_c_133
_jana_atom_site_adp_c_222
_jana_atom_site_adp_c_223
_jana_atom_site_adp_c_233
_jana_atom_site_adp_c_333
O1 O -0.067(5) -0.072(5) 0.0076(9) -0.072(5) 0.0076(9) -0.0021(2) 0 0 0 0
O2 O -0.067(5) -0.072(5) 0.0076(9) -0.072(5) 0.0076(9) -0.0021(2) 0 0 0 0
