#------------------------------------------------------------------------------
#$Date: 2023-12-06 15:08:03 +0200 (Wed, 06 Dec 2023) $
#$Revision: 288072 $
#$URL: file:///home/coder/svn-repositories/cod/cif/1/54/73/1547355.cif $
#------------------------------------------------------------------------------
#
# This file is available in the Crystallography Open Database (COD),
# http://www.crystallography.net/
#
# All data on this site have been placed in the public domain by the
# contributors.
#
data_1547355
loop_
_publ_author_name
'Nobuo Ishizawa'
'Hayato Setoguchi'
'Kazumichi Yanagisawa'
_publ_section_title
;
 Structural evolution of calcite at high temperatures: Phase V unveiled
;
_journal_name_full               'Scientific Reports'
_journal_page_first              2832
_journal_paper_doi               10.1038/srep02832
_journal_volume                  3
_journal_year                    2013
_chemical_absolute_configuration .
_chemical_formula_sum            'C Ca O'
_chemical_formula_weight         68.1
_space_group_IT_number           167
_symmetry_cell_setting           trigonal
_symmetry_Int_Tables_number      167
_symmetry_space_group_name_Hall  '-R 3 2"c'
_symmetry_space_group_name_H-M   'R -3 c :H'
_cell_angle_alpha                90
_cell_angle_beta                 90
_cell_angle_gamma                120
_cell_formula_units_Z            36
_cell_length_a                   4.9756
_cell_length_b                   4.9756
_cell_length_c                   17.3717(3)
_cell_measurement_temperature    891
_cell_volume                     372.446(6)
_diffrn_ambient_temperature      891
_diffrn_measured_fraction_theta_full 0.99
_diffrn_measured_fraction_theta_max 0.99
_diffrn_measurement_device       'four-cycle diffractometer'
_diffrn_measurement_device_type  'Bruker CCD'
_diffrn_radiation_monochromator  graphite
_diffrn_radiation_probe          x-ray
_diffrn_radiation_source         'X-ray tube'
_diffrn_radiation_type           'Mo K\a'
_diffrn_radiation_wavelength     0.71073
_diffrn_reflns_av_R_equivalents  0.0233
_diffrn_reflns_av_sigmaI/netI    0.0128
_diffrn_reflns_limit_h_max       5
_diffrn_reflns_limit_h_min       -7
_diffrn_reflns_limit_k_max       7
_diffrn_reflns_limit_k_min       -4
_diffrn_reflns_limit_l_max       27
_diffrn_reflns_limit_l_min       -24
_diffrn_reflns_number            1320
_diffrn_reflns_theta_full        34.9
_diffrn_reflns_theta_max         34.9
_diffrn_reflns_theta_min         5.28
_exptl_absorpt_coefficient_mu    12.894
_exptl_crystal_density_diffrn    10.9252
_exptl_crystal_F_000             300
_refine_diff_density_max         0.12
_refine_diff_density_min         -0.11
_refine_ls_extinction_coef       340(150)
_refine_ls_extinction_method
'B-C type 1 Gaussian isotropic (Becker & Coppens, 1974)'
_refine_ls_goodness_of_fit_gt    1.58
_refine_ls_goodness_of_fit_ref   1.52
_refine_ls_number_constraints    0
_refine_ls_number_parameters     15
_refine_ls_number_reflns         185
_refine_ls_number_restraints     0
_refine_ls_R_factor_all          0.0174
_refine_ls_R_factor_gt           0.0159
_refine_ls_shift/su_max          0.0026
_refine_ls_shift/su_mean         0.0009
_refine_ls_structure_factor_coef F
_refine_ls_weighting_details     w=1/(\s^2^(F)+0.0001F^2^)
_refine_ls_weighting_scheme      sigma
_refine_ls_wR_factor_gt          0.0220
_refine_ls_wR_factor_ref         0.0223
_reflns_number_gt                169
_reflns_number_total             185
_reflns_threshold_expression     I>3\s(I)
_cod_data_source_file            srep02832-s30.cif
_cod_data_source_block           891K_hs30_h600_I_anharm
_cod_depositor_comments
;
The following automatic conversions were performed:

'_diffrn_radiation_probe' value 'X-ray' changed to 'x-ray' according
to the built-in table from CIF Core dictionary named 'cif_core.dic'
version 2.4.1 from 2010-06-29.

Automatic conversion script
Id: cif_fix_values 5376 2017-05-30 11:51:03Z andrius 

The following automatic conversions were performed:

data name '_atom_site_site_symmetry_mutiplicity' was replaced with
'_atom_site_site_symmetry_multiplicity' as specified in the
replacement file 'data/replacement-values/replacement_tags.lst'.

Automatic conversion script
Id: cif_correct_tags 9268 2022-04-12 08:56:07Z antanas 
;
_cod_original_sg_symbol_Hall     '-R 3;-2"c'
_cod_original_sg_symbol_H-M      'R -3 c'
_cod_original_formula_sum        'C1 Ca1 O1'
_cod_database_code               1547355
loop_
_symmetry_equiv_pos_site_id
_symmetry_equiv_pos_as_xyz
1 x,y,z
2 -y,x-y,z
3 -x+y,-x,z
4 y,x,-z+1/2
5 x-y,-y,-z+1/2
6 -x,-x+y,-z+1/2
7 -x,-y,-z
8 y,-x+y,-z
9 x-y,x,-z
10 -y,-x,z+1/2
11 -x+y,y,z+1/2
12 x,x-y,z+1/2
13 x+2/3,y+1/3,z+1/3
14 -y+2/3,x-y+1/3,z+1/3
15 -x+y+2/3,-x+1/3,z+1/3
16 y+2/3,x+1/3,-z+5/6
17 x-y+2/3,-y+1/3,-z+5/6
18 -x+2/3,-x+y+1/3,-z+5/6
19 -x+2/3,-y+1/3,-z+1/3
20 y+2/3,-x+y+1/3,-z+1/3
21 x-y+2/3,x+1/3,-z+1/3
22 -y+2/3,-x+1/3,z+5/6
23 -x+y+2/3,y+1/3,z+5/6
24 x+2/3,x-y+1/3,z+5/6
25 x+1/3,y+2/3,z+2/3
26 -y+1/3,x-y+2/3,z+2/3
27 -x+y+1/3,-x+2/3,z+2/3
28 y+1/3,x+2/3,-z+1/6
29 x-y+1/3,-y+2/3,-z+1/6
30 -x+1/3,-x+y+2/3,-z+1/6
31 -x+1/3,-y+2/3,-z+2/3
32 y+1/3,-x+y+2/3,-z+2/3
33 x-y+1/3,x+2/3,-z+2/3
34 -y+1/3,-x+2/3,z+1/6
35 -x+y+1/3,y+2/3,z+1/6
36 x+1/3,x-y+2/3,z+1/6
loop_
_atom_site_label
_atom_site_type_symbol
_atom_site_fract_x
_atom_site_fract_y
_atom_site_fract_z
_atom_site_adp_type
_atom_site_U_iso_or_equiv
_atom_site_site_symmetry_multiplicity
_atom_site_occupancy
_atom_site_calc_flag
_atom_site_refinement_flags
_atom_site_disorder_assembly
_atom_site_disorder_group
Ca1 Ca 0 0 0 Uani 0.03624(14) 6 1 d . . .
C1 C 0 0 0.25 Uani 0.0307(4) 6 1 d . . .
O1 O 0.2504(3) 0 0.25 Uani 0.0631(5) 18 1 d . . .
loop_
_atom_site_aniso_label
_atom_site_aniso_type_symbol
_atom_site_aniso_U_11
_atom_site_aniso_U_22
_atom_site_aniso_U_33
_atom_site_aniso_U_12
_atom_site_aniso_U_13
_atom_site_aniso_U_23
Ca1 Ca 0.03733(18) 0.03733(18) 0.03406(19) 0.01866(9) 0 0
C1 C 0.0285(4) 0.0285(4) 0.0352(7) 0.0143(2) 0 0
O1 O 0.0435(3) 0.0862(8) 0.0739(6) 0.0431(4) -0.0168(3) -0.0337(5)
loop_
_atom_type_symbol
_atom_type_scat_dispersion_real
_atom_type_scat_dispersion_imag
_atom_type_scat_source
C 0.0033 0.0016 'International Tables Vol C tables 4.2.6.8 and 6.1.1.1'
Ca 0.2262 0.3064 'International Tables Vol C tables 4.2.6.8 and 6.1.1.1'
O 0.0106 0.0060 'International Tables Vol C tables 4.2.6.8 and 6.1.1.1'
loop_
_geom_bond_atom_site_label_1
_geom_bond_atom_site_label_2
_geom_bond_site_symmetry_1
_geom_bond_site_symmetry_2
_geom_bond_distance
Ca1 Ca1 . 16_444 4.07859(7)
Ca1 Ca1 . 16_454 4.07859(7)
Ca1 Ca1 . 16_554 4.07859(7)
Ca1 Ca1 . 28_445 4.07859(7)
Ca1 Ca1 . 28_545 4.07859(7)
Ca1 Ca1 . 28_555 4.07859(7)
Ca1 C1 . 25_444 3.21681(2)
Ca1 C1 . 25_544 3.21681(2)
Ca1 C1 . 25_554 3.21681(2)
Ca1 C1 . 19_445 3.21681(2)
Ca1 C1 . 19_455 3.21681(2)
Ca1 C1 . 19_555 3.21681(2)
Ca1 O1 . 25_444 2.3876(8)
Ca1 O1 . 26_544 2.3876(8)
Ca1 O1 . 27_554 2.3876(13)
Ca1 O1 . 19_555 2.3876(8)
Ca1 O1 . 20_455 2.3876(8)
Ca1 O1 . 21_445 2.3876(13)
C1 O1 . . 1.2460(16)
C1 O1 . 2_555 1.2460(16)
C1 O1 . 3_555 1.2460(12)
loop_
_refln_index_h
_refln_index_k
_refln_index_l
_refln_F_squared_calc
_refln_F_squared_meas
_refln_F_squared_sigma
_refln_observed_status
-1 2 0 4267.28 3948.99 37.65 o
0 3 0 4394.72 4454.57 49.43 o
-2 4 0 1833.62 1900.80 21.20 o
-1 5 0 871.49 859.50 7.93 o
-3 6 0 240.48 236.62 3.76 o
0 6 0 89.31 92.10 2.11 o
-2 7 0 127.14 123.41 2.53 o
-2 3 1 959.52 1012.27 7.25 o
-1 4 1 5.85 5.81 0.25 o
-3 5 1 141.79 135.74 1.58 o
-5 6 1 12.23 13.23 0.55 o
-2 6 1 1.21 2.18 0.28 o
-4 7 1 9.56 10.78 0.59 o
-1 7 1 1.83 2.54 0.66 o
0 1 2 932.33 993.27 9.95 o
-2 2 2 7027.52 7335.93 76.17 o
-1 3 2 2947.12 2971.47 21.07 o
-3 4 2 224.82 229.16 2.13 o
0 4 2 20.16 20.13 0.70 o
-5 5 2 177.41 173.25 2.98 o
-2 5 2 453.22 444.17 4.10 o
-4 6 2 202.19 206.46 2.34 o
-1 6 2 169.13 169.17 2.15 o
-6 7 2 29.34 29.22 1.58 o
-3 7 2 27.38 27.70 0.84 o
-1 2 3 2411.11 2672.17 18.20 o
-2 4 3 3.24 2.91 0.21 o
-4 5 3 15.13 15.19 0.51 o
-1 5 3 3.95 3.04 0.30 o
-3 6 3 4.76 4.97 0.38 o
-5 7 3 13.45 15.30 1.14 o
-2 7 3 7.96 7.96 0.87 o
-1 1 4 19266.80 18686.10 267.22 o
0 2 4 3502.60 3370.83 28.69 o
-2 3 4 2042.22 2113.54 14.17 o
-4 4 4 2546.12 2536.99 31.12 o
-1 4 4 2401.16 2396.50 17.40 o
-3 5 4 675.73 672.30 5.97 o
0 5 4 424.59 413.36 5.93 o
-5 6 4 130.34 131.54 2.01 o
-2 6 4 195.41 190.14 2.41 o
-4 7 4 186.40 184.21 2.96 o
-1 7 4 82.00 82.41 2.68 o
-1 3 5 732.02 731.97 5.55 o
-3 4 5 29.03 27.93 0.51 o
-2 5 5 78.10 71.28 0.95 o
-4 6 5 1.09 1.20 0.27 o
-1 6 5 9.17 9.87 0.55 o
-6 7 5 2.18 2.53 0.72 o
-3 7 5 4.71 6.13 0.66 o
0 0 6 869.23 1146.46 23.80 o
-1 2 6 4974.98 5066.19 39.44 o
-3 3 6 612.42 604.47 6.77 o
0 3 6 376.55 374.92 4.35 o
-2 4 6 730.05 685.64 5.93 o
-4 5 6 117.28 115.02 1.71 o
-1 5 6 174.31 168.26 2.07 o
-6 6 6 116.84 119.78 4.73 o
-3 6 6 190.84 190.40 2.26 o
0 6 6 68.43 68.45 2.53 o
-5 7 6 31.34 35.32 2.47 o
-2 7 6 32.93 34.77 2.35 o
-2 3 7 370.72 372.03 2.87 o
-1 4 7 1.08 1.12 0.17 o
-3 5 7 106.82 104.71 1.39 o
-5 6 7 10.34 10.40 0.59 o
-2 6 7 0.91 0.28 0.27 <
-4 7 7 7.64 7.63 0.93 o
-1 7 7 0.93 0.97 0.61 <
0 1 8 10083.60 10289.40 138.85 o
-2 2 8 1424.23 1440.86 18.11 o
-1 3 8 1800.51 1820.31 13.09 o
-3 4 8 1712.50 1706.06 13.80 o
0 4 8 1552.54 1546.85 21.37 o
-5 5 8 300.12 311.04 5.28 o
-2 5 8 416.91 421.99 3.91 o
-4 6 8 194.69 196.12 2.64 o
-1 6 8 129.48 132.96 2.05 o
-6 7 8 53.51 52.39 2.18 o
-3 7 8 134.79 135.55 3.65 o
-1 2 9 643.32 658.50 5.11 o
-2 4 9 2.04 2.07 0.21 o
-4 5 9 12.52 12.66 0.55 o
-1 5 9 0.05 0.15 0.21 <
-3 6 9 2.84 2.51 0.36 o
-5 7 9 10.79 8.18 1.42 o
-2 7 9 2.18 3.46 1.03 o
-1 1 10 1023.76 993.41 11.34 o
0 2 10 1509.88 1522.10 15.80 o
-2 3 10 1348.35 1322.97 10.16 o
-4 4 10 17.15 17.03 0.82 o
-1 4 10 191.74 187.28 1.96 o
-3 5 10 205.53 207.03 2.60 o
0 5 10 85.36 83.51 2.07 o
-5 6 10 106.45 107.61 1.96 o
-2 6 10 129.85 132.34 2.15 o
-4 7 10 12.72 12.51 1.14 o
-1 3 11 198.11 190.35 1.71 o
-3 4 11 23.64 24.91 0.61 o
-2 5 11 19.06 19.78 0.59 o
-4 6 11 0.76 0.72 0.32 <
-1 6 11 4.46 5.22 0.63 o
-3 7 11 0.68 0.99 0.59 <
0 0 12 7893.09 8068.45 190.10 o
-1 2 12 1386.38 1389.94 9.65 o
-3 3 12 1171.42 1180.71 14.19 o
0 3 12 1525.06 1566.33 19.62 o
-2 4 12 636.56 644.49 5.78 o
-4 5 12 401.74 412.92 4.96 o
-1 5 12 307.24 310.98 3.61 o
-6 6 12 29.48 24.25 2.13 o
-3 6 12 129.70 133.04 2.18 o
0 6 12 72.35 83.59 3.93 o
-5 7 12 61.16 57.80 3.32 o
-2 7 12 56.52 51.06 3.02 o
-2 3 13 56.13 54.38 0.76 o
-1 4 13 3.59 3.89 0.28 o
-3 5 13 37.43 36.30 0.80 o
-5 6 13 5.32 5.66 0.87 o
-2 6 13 0.37 0.44 0.34 <
-4 7 13 2.74 2.75 0.74 o
0 1 14 456.35 427.93 5.36 o
-2 2 14 1132.71 1117.57 12.27 o
-1 3 14 450.93 435.47 3.59 o
-3 4 14 99.63 97.07 1.46 o
0 4 14 42.62 43.62 1.39 o
-5 5 14 66.02 68.72 2.24 o
-2 5 14 167.50 163.36 1.99 o
-4 6 14 46.27 49.12 1.75 o
-1 6 14 42.13 44.49 1.96 o
-1 2 15 80.48 77.13 0.91 o
-2 4 15 0.80 0.82 0.23 o
-4 5 15 3.68 4.16 0.47 o
-1 5 15 0.98 0.30 0.30 <
-3 6 15 1.07 0.55 0.53 <
-1 1 16 1363.51 1363.88 14.46 o
0 2 16 837.38 835.79 8.90 o
-2 3 16 441.94 444.48 3.82 o
-4 4 16 468.70 465.27 8.26 o
-1 4 16 410.47 401.04 4.29 o
-3 5 16 184.26 190.48 2.70 o
0 5 16 127.93 132.55 5.18 o
-5 6 16 41.07 40.73 1.92 o
-2 6 16 57.40 52.81 1.75 o
-1 3 17 28.62 27.48 0.65 o
-3 4 17 7.49 7.04 0.49 o
-2 5 17 2.45 2.03 0.38 o
-4 6 17 0.37 -1.01 0.66 <
0 0 18 122.22 115.14 3.04 o
-1 2 18 365.05 358.24 3.02 o
-3 3 18 120.82 124.88 2.13 o
0 3 18 74.90 72.04 1.73 o
-2 4 18 129.34 126.32 2.05 o
-4 5 18 27.24 28.56 1.56 o
-1 5 18 43.92 45.63 1.59 o
-3 6 18 29.74 28.03 1.63 o
-2 3 19 4.62 4.10 0.32 o
-1 4 19 1.51 1.08 0.40 <
-3 5 19 6.99 6.78 0.93 o
0 1 20 571.34 564.10 6.38 o
-2 2 20 242.50 231.74 3.10 o
-1 3 20 259.88 258.43 2.64 o
-3 4 20 194.63 194.03 3.21 o
0 4 20 167.32 167.38 4.23 o
-2 5 20 64.94 69.17 1.99 o
-1 2 21 6.84 6.06 0.34 o
-2 4 21 0.19 0.57 0.40 <
-4 5 21 0.44 -0.49 0.63 <
-1 5 21 0.51 0.13 0.53 <
-1 1 22 121.93 122.14 2.01 o
0 2 22 90.23 91.34 1.71 o
-2 3 22 94.36 99.37 1.48 o
-4 4 22 12.16 7.97 1.44 o
-1 4 22 34.65 39.23 1.44 o
-1 3 23 2.64 2.70 0.40 o
-3 4 23 1.18 0.61 0.51 <
0 0 24 254.32 254.91 6.04 o
-1 2 24 133.50 133.73 1.79 o
-3 3 24 93.75 99.12 2.43 o
0 3 24 109.12 105.62 3.10 o
-2 4 24 58.42 56.76 1.82 o
-2 3 25 0.21 -0.04 0.34 <
0 1 26 40.96 43.75 1.54 o
-2 2 26 46.13 52.52 1.71 o
-1 2 27 0.39 0.19 0.32 <
loop_
_jana_atom_site_adp_c_label
_jana_atom_site_adp_c_type_symbol
_jana_atom_site_adp_c_111
_jana_atom_site_adp_c_112
_jana_atom_site_adp_c_113
_jana_atom_site_adp_c_122
_jana_atom_site_adp_c_123
_jana_atom_site_adp_c_133
_jana_atom_site_adp_c_222
_jana_atom_site_adp_c_223
_jana_atom_site_adp_c_233
_jana_atom_site_adp_c_333
O1 O -0.040(3) -0.035(3) 0.0047(5) -0.035(3) 0.0047(5) -0.00125(14) 0 0 0 0
