#------------------------------------------------------------------------------
#$Date: 2023-12-06 15:08:03 +0200 (Wed, 06 Dec 2023) $
#$Revision: 288072 $
#$URL: file:///home/coder/svn-repositories/cod/cif/1/54/73/1547348.cif $
#------------------------------------------------------------------------------
#
# This file is available in the Crystallography Open Database (COD),
# http://www.crystallography.net/
#
# All data on this site have been placed in the public domain by the
# contributors.
#
data_1547348
loop_
_publ_author_name
'Nobuo Ishizawa'
'Hayato Setoguchi'
'Kazumichi Yanagisawa'
_publ_section_title
;
 Structural evolution of calcite at high temperatures: Phase V unveiled
;
_journal_name_full               'Scientific Reports'
_journal_page_first              2832
_journal_paper_doi               10.1038/srep02832
_journal_volume                  3
_journal_year                    2013
_chemical_absolute_configuration .
_chemical_formula_sum            'C Ca O'
_chemical_formula_weight         68.1
_space_group_IT_number           167
_symmetry_cell_setting           trigonal
_symmetry_Int_Tables_number      167
_symmetry_space_group_name_Hall  '-R 3 2"c'
_symmetry_space_group_name_H-M   'R -3 c :H'
_cell_angle_alpha                90
_cell_angle_beta                 90
_cell_angle_gamma                120
_cell_formula_units_Z            36
_cell_length_a                   4.988
_cell_length_b                   4.988
_cell_length_c                   17.0607(3)
_cell_measurement_temperature    294
_cell_volume                     367.604(6)
_diffrn_ambient_temperature      294
_diffrn_measured_fraction_theta_full 1
_diffrn_measured_fraction_theta_max 1
_diffrn_measurement_device       'four-cycle diffractometer'
_diffrn_measurement_device_type  'Bruker CCD'
_diffrn_radiation_monochromator  graphite
_diffrn_radiation_probe          x-ray
_diffrn_radiation_source         'X-ray tube'
_diffrn_radiation_type           'Mo K\a'
_diffrn_radiation_wavelength     0.71073
_diffrn_reflns_av_R_equivalents  0.0179
_diffrn_reflns_av_sigmaI/netI    0.0141
_diffrn_reflns_limit_h_max       8
_diffrn_reflns_limit_h_min       -7
_diffrn_reflns_limit_k_max       7
_diffrn_reflns_limit_k_min       -6
_diffrn_reflns_limit_l_max       28
_diffrn_reflns_limit_l_min       -30
_diffrn_reflns_number            1751
_diffrn_reflns_theta_full        40.08
_diffrn_reflns_theta_max         40.08
_diffrn_reflns_theta_min         5.29
_exptl_absorpt_coefficient_mu    13.064
_exptl_crystal_density_diffrn    11.0691
_exptl_crystal_F_000             300
_refine_diff_density_max         0.23
_refine_diff_density_min         -0.47
_refine_ls_extinction_coef       4900(300)
_refine_ls_extinction_method
'B-C type 1 Gaussian isotropic (Becker & Coppens, 1974)'
_refine_ls_goodness_of_fit_gt    1.85
_refine_ls_goodness_of_fit_ref   1.83
_refine_ls_number_constraints    0
_refine_ls_number_parameters     15
_refine_ls_number_reflns         257
_refine_ls_number_restraints     0
_refine_ls_R_factor_all          0.0181
_refine_ls_R_factor_gt           0.0177
_refine_ls_shift/su_max          0.0067
_refine_ls_shift/su_mean         0.0030
_refine_ls_structure_factor_coef F
_refine_ls_weighting_details     w=1/(\s^2^(F)+0.0001F^2^)
_refine_ls_weighting_scheme      sigma
_refine_ls_wR_factor_gt          0.0240
_refine_ls_wR_factor_ref         0.0241
_reflns_number_gt                250
_reflns_number_total             257
_reflns_threshold_expression     I>3\s(I)
_cod_data_source_file            srep02832-s22.cif
_cod_data_source_block           294K_hs29_RT2_I_anharm
_cod_depositor_comments
;
The following automatic conversions were performed:

'_diffrn_radiation_probe' value 'X-ray' changed to 'x-ray' according
to the built-in table from CIF Core dictionary named 'cif_core.dic'
version 2.4.1 from 2010-06-29.

Automatic conversion script
Id: cif_fix_values 5376 2017-05-30 11:51:03Z andrius 

The following automatic conversions were performed:

data name '_atom_site_site_symmetry_mutiplicity' was replaced with
'_atom_site_site_symmetry_multiplicity' as specified in the
replacement file 'data/replacement-values/replacement_tags.lst'.

Automatic conversion script
Id: cif_correct_tags 9268 2022-04-12 08:56:07Z antanas 
;
_cod_original_sg_symbol_Hall     '-R 3;-2"c'
_cod_original_sg_symbol_H-M      'R -3 c'
_cod_original_formula_sum        'C1 Ca1 O1'
_cod_database_code               1547348
loop_
_symmetry_equiv_pos_site_id
_symmetry_equiv_pos_as_xyz
1 x,y,z
2 -y,x-y,z
3 -x+y,-x,z
4 y,x,-z+1/2
5 x-y,-y,-z+1/2
6 -x,-x+y,-z+1/2
7 -x,-y,-z
8 y,-x+y,-z
9 x-y,x,-z
10 -y,-x,z+1/2
11 -x+y,y,z+1/2
12 x,x-y,z+1/2
13 x+2/3,y+1/3,z+1/3
14 -y+2/3,x-y+1/3,z+1/3
15 -x+y+2/3,-x+1/3,z+1/3
16 y+2/3,x+1/3,-z+5/6
17 x-y+2/3,-y+1/3,-z+5/6
18 -x+2/3,-x+y+1/3,-z+5/6
19 -x+2/3,-y+1/3,-z+1/3
20 y+2/3,-x+y+1/3,-z+1/3
21 x-y+2/3,x+1/3,-z+1/3
22 -y+2/3,-x+1/3,z+5/6
23 -x+y+2/3,y+1/3,z+5/6
24 x+2/3,x-y+1/3,z+5/6
25 x+1/3,y+2/3,z+2/3
26 -y+1/3,x-y+2/3,z+2/3
27 -x+y+1/3,-x+2/3,z+2/3
28 y+1/3,x+2/3,-z+1/6
29 x-y+1/3,-y+2/3,-z+1/6
30 -x+1/3,-x+y+2/3,-z+1/6
31 -x+1/3,-y+2/3,-z+2/3
32 y+1/3,-x+y+2/3,-z+2/3
33 x-y+1/3,x+2/3,-z+2/3
34 -y+1/3,-x+2/3,z+1/6
35 -x+y+1/3,y+2/3,z+1/6
36 x+1/3,x-y+2/3,z+1/6
loop_
_atom_site_label
_atom_site_type_symbol
_atom_site_fract_x
_atom_site_fract_y
_atom_site_fract_z
_atom_site_adp_type
_atom_site_U_iso_or_equiv
_atom_site_site_symmetry_multiplicity
_atom_site_occupancy
_atom_site_calc_flag
_atom_site_refinement_flags
_atom_site_disorder_assembly
_atom_site_disorder_group
Ca1 Ca 0 0 0 Uani 0.01055(10) 6 1 d . . .
C1 C 0 0 0.25 Uani 0.0101(3) 6 1 d . . .
O1 O 0.25620(18) 0 0.25 Uani 0.01740(16) 18 1 d . . .
loop_
_atom_site_aniso_label
_atom_site_aniso_type_symbol
_atom_site_aniso_U_11
_atom_site_aniso_U_22
_atom_site_aniso_U_33
_atom_site_aniso_U_12
_atom_site_aniso_U_13
_atom_site_aniso_U_23
Ca1 Ca 0.01081(13) 0.01081(13) 0.01003(13) 0.00540(6) 0 0
C1 C 0.0095(3) 0.0095(3) 0.0111(5) 0.00477(17) 0 0
O1 O 0.01208(17) 0.0230(2) 0.0208(2) 0.01149(12) -0.00424(7) -0.00847(15)
loop_
_atom_type_symbol
_atom_type_scat_dispersion_real
_atom_type_scat_dispersion_imag
_atom_type_scat_source
C 0.0033 0.0016 'International Tables Vol C tables 4.2.6.8 and 6.1.1.1'
Ca 0.2262 0.3064 'International Tables Vol C tables 4.2.6.8 and 6.1.1.1'
O 0.0106 0.0060 'International Tables Vol C tables 4.2.6.8 and 6.1.1.1'
loop_
_geom_bond_atom_site_label_1
_geom_bond_atom_site_label_2
_geom_bond_site_symmetry_1
_geom_bond_site_symmetry_2
_geom_bond_distance
Ca1 Ca1 . 16_444 4.04705(7)
Ca1 Ca1 . 16_454 4.04705(7)
Ca1 Ca1 . 16_554 4.04705(7)
Ca1 Ca1 . 28_445 4.04705(7)
Ca1 Ca1 . 28_545 4.04705(7)
Ca1 Ca1 . 28_555 4.04705(7)
Ca1 C1 . 25_444 3.21165(2)
Ca1 C1 . 25_544 3.21165(2)
Ca1 C1 . 25_554 3.21165(2)
Ca1 C1 . 19_445 3.21165(2)
Ca1 C1 . 19_455 3.21165(2)
Ca1 C1 . 19_555 3.21165(2)
Ca1 O1 . 25_444 2.3608(5)
Ca1 O1 . 26_544 2.3608(5)
Ca1 O1 . 27_554 2.3608(7)
Ca1 O1 . 19_555 2.3608(5)
Ca1 O1 . 20_455 2.3608(5)
Ca1 O1 . 21_445 2.3608(7)
C1 O1 . . 1.2779(9)
C1 O1 . 2_555 1.2779(9)
C1 O1 . 3_555 1.2779(6)
loop_
_refln_index_h
_refln_index_k
_refln_index_l
_refln_F_squared_calc
_refln_F_squared_meas
_refln_F_squared_sigma
_refln_observed_status
-1 2 0 4850.39 4632.82 112.00 o
0 3 0 8545.38 8237.15 283.47 o
-2 4 0 2480.27 2484.44 29.10 o
-1 5 0 2860.80 2844.92 24.30 o
-3 6 0 1113.37 1088.63 14.56 o
0 6 0 654.33 628.65 11.50 o
-2 7 0 842.40 816.48 8.22 o
-4 8 0 1596.10 1612.34 21.64 o
-1 8 0 828.90 873.39 16.14 o
-2 3 1 1666.70 1803.85 22.60 o
-1 4 1 10.46 9.98 0.43 o
-3 5 1 483.96 456.05 4.18 o
-5 6 1 197.13 196.30 2.83 o
-2 6 1 8.66 11.65 0.52 o
-4 7 1 11.51 12.31 0.67 o
-1 7 1 62.14 65.22 1.75 o
-6 8 1 11.31 9.13 0.77 o
-3 8 1 3.35 1.91 0.43 o
-5 9 1 2.31 2.53 0.89 <
0 1 2 1134.26 1204.51 29.11 o
-2 2 2 8071.12 8923.15 216.02 o
-1 3 2 4827.21 5095.28 63.15 o
-3 4 2 543.90 557.13 4.81 o
0 4 2 2.84 6.19 0.45 o
-5 5 2 632.42 673.71 9.64 o
-2 5 2 1845.10 1813.77 15.40 o
-4 6 2 1087.95 1080.51 10.25 o
-1 6 2 1104.29 1079.34 10.23 o
-6 7 2 505.54 490.61 7.73 o
-3 7 2 191.57 185.14 2.65 o
0 7 2 119.97 123.97 5.22 o
-5 8 2 143.90 138.75 2.34 o
-2 8 2 313.58 314.53 4.46 o
-4 9 2 195.38 185.47 5.12 o
-1 2 3 3800.13 4065.77 69.48 o
-2 4 3 22.46 18.36 0.57 o
-4 5 3 1.84 0.79 0.24 o
-1 5 3 0.00 0.12 0.18 <
-3 6 3 115.89 103.37 1.55 o
-5 7 3 134.40 134.14 2.15 o
-2 7 3 113.69 112.10 1.77 o
-7 8 3 13.78 12.33 1.95 o
-4 8 3 1.10 0.57 0.35 <
-1 8 3 7.23 5.93 1.58 o
-1 1 4 21675.70 19618.10 499.24 o
0 2 4 4152.81 4024.26 97.10 o
-2 3 4 3168.79 3296.13 36.59 o
-4 4 4 7281.30 7638.07 81.52 o
-1 4 4 5209.34 5237.60 40.24 o
-3 5 4 1486.47 1442.43 11.73 o
0 5 4 2016.45 2000.30 19.97 o
-5 6 4 746.99 740.07 8.09 o
-2 6 4 937.03 902.23 8.05 o
-7 7 4 1024.68 991.43 23.83 o
-4 7 4 1659.80 1637.84 14.06 o
-1 7 4 697.31 699.32 8.01 o
-6 8 4 560.26 574.05 8.64 o
-3 8 4 977.03 969.96 9.81 o
-1 3 5 1346.23 1373.26 15.64 o
-3 4 5 24.27 23.16 0.65 o
-2 5 5 379.51 358.38 3.62 o
-4 6 5 8.74 11.12 0.53 o
-1 6 5 180.42 186.97 2.54 o
-6 7 5 52.76 52.55 1.85 o
-3 7 5 5.65 9.64 0.57 o
-5 8 5 0.54 0.03 0.32 <
-2 8 5 9.63 9.00 0.77 o
0 0 6 1392.00 1734.98 59.90 o
-1 2 6 6994.32 7527.05 128.69 o
-3 3 6 649.80 635.98 8.27 o
0 3 6 545.87 541.46 7.23 o
-2 4 6 2349.86 2375.47 21.05 o
-4 5 6 493.44 509.26 4.47 o
-1 5 6 554.62 565.99 4.58 o
-6 6 6 926.42 873.60 20.90 o
-3 6 6 1016.17 970.80 8.61 o
0 6 6 736.95 726.81 10.49 o
-5 7 6 491.85 489.99 5.42 o
-2 7 6 546.20 537.10 5.85 o
-7 8 6 73.41 77.46 4.28 o
-4 8 6 23.84 20.16 0.91 o
-1 8 6 90.09 94.86 4.79 o
-2 3 7 941.71 999.06 10.46 o
-1 4 7 0.73 0.80 0.18 o
-3 5 7 398.32 373.61 3.85 o
-5 6 7 161.58 169.73 2.36 o
-2 6 7 6.29 8.66 0.55 o
-4 7 7 14.62 14.42 0.67 o
-1 7 7 57.16 58.38 1.40 o
-6 8 7 10.69 8.90 1.03 o
-3 8 7 7.34 6.12 0.55 o
0 1 8 12779.60 10581.90 268.51 o
-2 2 8 2648.66 2803.09 55.05 o
-1 3 8 2665.81 2748.14 24.06 o
-3 4 8 4245.45 4388.00 43.90 o
0 4 8 5771.21 5793.40 62.34 o
-5 5 8 1611.85 1637.69 21.17 o
-2 5 8 1189.06 1183.91 10.17 o
-4 6 8 992.88 980.32 8.73 o
-1 6 8 729.42 707.71 7.18 o
-6 7 8 589.92 572.10 11.08 o
-3 7 8 1383.51 1348.18 11.86 o
0 7 8 953.40 999.96 17.83 o
-5 8 8 871.36 902.16 9.28 o
-2 8 8 478.90 480.98 6.85 o
-1 2 9 1516.36 1590.69 14.50 o
-2 4 9 13.40 12.07 0.41 o
-4 5 9 4.27 3.50 0.35 o
-1 5 9 1.29 2.32 0.25 o
-3 6 9 85.39 80.15 1.49 o
-5 7 9 120.38 119.34 1.91 o
-2 7 9 72.76 73.81 1.59 o
-4 8 9 0.85 0.09 0.33 <
-1 1 10 1136.51 1116.54 20.02 o
0 2 10 3400.88 3504.37 42.25 o
-2 3 10 2743.01 2782.98 20.17 o
-4 4 10 17.95 19.00 0.77 o
-1 4 10 477.28 468.49 3.89 o
-3 5 10 1184.72 1179.79 11.02 o
0 5 10 424.91 416.34 4.96 o
-5 6 10 887.66 875.03 9.37 o
-2 6 10 953.03 931.37 9.02 o
-7 7 10 112.45 107.72 4.97 o
-4 7 10 137.14 132.94 2.04 o
-1 7 10 372.58 383.30 4.64 o
-6 8 10 243.29 251.54 6.00 o
-3 8 10 124.66 118.18 2.04 o
-1 3 11 596.09 608.60 5.09 o
-3 4 11 24.86 23.45 0.55 o
-2 5 11 205.30 199.55 2.43 o
-4 6 11 6.71 8.40 0.56 o
-1 6 11 127.09 127.61 2.10 o
-6 7 11 35.18 39.53 2.01 o
-3 7 11 1.38 1.12 0.36 o
-5 8 11 0.05 0.13 0.36 <
-2 8 11 6.62 6.09 1.11 o
-1 2 12 2148.77 2277.63 13.20 o
-3 3 12 3733.23 3935.36 32.05 o
0 3 12 4082.79 4269.74 46.12 o
-2 4 12 1526.37 1554.75 10.50 o
-4 5 12 1921.32 1927.25 17.15 o
-1 5 12 1746.28 1727.34 12.04 o
-6 6 12 392.45 390.26 11.23 o
-3 6 12 826.29 810.73 8.02 o
0 6 12 634.62 638.84 7.36 o
-5 7 12 662.75 657.40 7.58 o
-2 7 12 565.02 573.35 6.88 o
-4 8 12 1111.90 1154.20 12.21 o
-2 3 13 336.96 344.85 3.00 o
-1 4 13 0.47 0.96 0.21 o
-3 5 13 238.24 228.68 2.63 o
-5 6 13 103.92 102.36 2.00 o
-2 6 13 3.54 3.17 0.44 o
-4 7 13 12.89 13.70 0.72 o
-1 7 13 41.98 46.26 1.43 o
-3 8 13 9.58 8.14 0.99 o
0 1 14 745.71 729.85 6.39 o
-2 2 14 2458.47 2431.45 19.55 o
-1 3 14 1589.30 1582.41 10.45 o
-3 4 14 352.01 350.52 2.98 o
0 4 14 40.63 41.89 1.24 o
-5 5 14 458.36 453.62 12.28 o
-2 5 14 1048.46 1029.93 7.95 o
-4 6 14 551.72 563.37 6.56 o
-1 6 14 619.48 614.53 5.66 o
-6 7 14 344.88 359.13 11.07 o
-3 7 14 160.46 164.03 2.60 o
-1 2 15 440.66 447.50 2.94 o
-2 4 15 6.21 6.45 0.34 o
-4 5 15 4.39 3.73 0.47 o
-1 5 15 3.09 4.14 0.42 o
-3 6 15 50.10 50.95 1.39 o
-5 7 15 84.31 91.38 2.02 o
-2 7 15 36.27 38.29 1.46 o
-1 1 16 3620.86 3814.48 28.69 o
0 2 16 1680.59 1701.54 14.11 o
-2 3 16 1308.02 1323.49 8.53 o
-4 4 16 2963.38 2936.36 43.86 o
-1 4 16 2077.44 2038.07 14.02 o
-3 5 16 918.94 930.69 8.37 o
0 5 16 1175.95 1188.81 13.91 o
-5 6 16 450.56 454.94 7.25 o
-2 6 16 506.64 498.33 5.15 o
-4 7 16 973.40 978.24 10.72 o
-1 7 16 443.34 439.23 12.65 o
-1 3 17 220.94 216.65 1.84 o
-3 4 17 17.51 17.11 0.49 o
-2 5 17 89.50 87.76 1.27 o
-4 6 17 4.23 3.53 0.53 o
-1 6 17 73.10 74.81 1.53 o
-3 7 17 0.04 0.39 0.43 <
0 0 18 45.16 39.35 1.10 o
-1 2 18 1427.97 1404.03 7.54 o
-3 3 18 379.12 376.64 3.78 o
0 3 18 286.23 279.80 3.33 o
-2 4 18 846.35 839.24 6.33 o
-4 5 18 254.34 258.52 3.58 o
-1 5 18 326.07 324.01 3.06 o
-6 6 18 518.43 507.67 14.09 o
-3 6 18 470.15 478.71 5.38 o
0 6 18 284.06 297.97 5.45 o
-5 7 18 236.65 247.86 6.05 o
-2 7 18 309.10 324.98 7.04 o
-2 3 19 111.07 111.04 1.21 o
-1 4 19 1.60 1.77 0.29 o
-3 5 19 118.93 120.46 1.65 o
-5 6 19 55.21 59.35 2.60 o
-2 6 19 1.63 1.40 0.39 o
-4 7 19 8.54 7.49 1.22 o
0 1 20 2296.29 2262.43 14.87 o
-2 2 20 922.38 927.16 6.84 o
-1 3 20 1056.77 1044.19 6.50 o
-3 4 20 1493.70 1505.27 9.84 o
0 4 20 1924.44 1921.75 19.11 o
-5 5 20 675.94 668.84 17.44 o
-2 5 20 548.00 543.22 4.83 o
-4 6 20 549.89 559.09 7.40 o
-1 6 20 397.94 405.79 4.42 o
-1 2 21 137.40 134.12 1.24 o
-2 4 21 2.71 2.84 0.32 o
-4 5 21 3.01 1.91 0.51 o
-1 5 21 3.42 3.36 0.36 o
-3 6 21 24.79 26.53 1.04 o
-1 1 22 422.18 406.20 3.33 o
0 2 22 710.02 686.24 6.43 o
-2 3 22 735.83 723.97 4.64 o
-4 4 22 49.95 51.60 1.64 o
-1 4 22 244.63 242.95 2.40 o
-3 5 22 404.32 408.42 3.92 o
0 5 22 169.89 171.65 2.97 o
-2 6 22 402.54 420.65 5.41 o
-1 3 23 82.00 78.68 1.08 o
-3 4 23 10.17 10.41 0.47 o
-2 5 23 33.87 34.04 0.87 o
0 0 24 2261.86 2194.87 24.22 o
-1 2 24 745.14 724.56 4.53 o
-3 3 24 1045.70 1028.41 11.07 o
0 3 24 1181.76 1172.07 10.44 o
-2 4 24 577.22 590.36 4.32 o
-4 5 24 684.91 681.49 8.76 o
-1 5 24 594.34 596.92 7.01 o
-2 3 25 36.28 35.28 0.75 o
-1 4 25 1.67 2.04 0.32 o
-3 5 25 51.30 53.75 1.31 o
0 1 26 261.91 251.45 2.59 o
-2 2 26 577.95 569.74 5.71 o
-1 3 26 402.63 402.23 3.12 o
-3 4 26 149.64 158.36 2.02 o
0 4 26 50.87 55.70 2.04 o
-1 2 27 45.00 43.47 0.73 o
-2 4 27 1.10 1.90 0.45 o
-1 1 28 816.43 798.94 7.07 o
0 2 28 546.71 544.72 5.25 o
-2 3 28 422.25 425.48 4.33 o
-1 3 29 28.51 27.40 0.89 o
0 0 30 70.54 77.15 2.39 o
-1 2 30 314.19 324.79 3.41 o
loop_
_jana_atom_site_adp_c_label
_jana_atom_site_adp_c_type_symbol
_jana_atom_site_adp_c_111
_jana_atom_site_adp_c_112
_jana_atom_site_adp_c_113
_jana_atom_site_adp_c_122
_jana_atom_site_adp_c_123
_jana_atom_site_adp_c_133
_jana_atom_site_adp_c_222
_jana_atom_site_adp_c_223
_jana_atom_site_adp_c_233
_jana_atom_site_adp_c_333
O1 O -0.0037(9) -0.0006(8) 0.00027(12) -0.0006(8) 0.00027(12) -0.00009(4) 0 0 0
0
