#------------------------------------------------------------------------------
#$Date: 2023-12-06 15:08:03 +0200 (Wed, 06 Dec 2023) $
#$Revision: 288072 $
#$URL: file:///home/coder/svn-repositories/cod/cif/1/54/73/1547380.cif $
#------------------------------------------------------------------------------
#
# This file is available in the Crystallography Open Database (COD),
# http://www.crystallography.net/
#
# All data on this site have been placed in the public domain by the
# contributors.
#
data_1547380
loop_
_publ_author_name
'Nobuo Ishizawa'
'Hayato Setoguchi'
'Kazumichi Yanagisawa'
_publ_section_title
;
 Structural evolution of calcite at high temperatures: Phase V unveiled
;
_journal_name_full               'Scientific Reports'
_journal_page_first              2832
_journal_paper_doi               10.1038/srep02832
_journal_volume                  3
_journal_year                    2013
_chemical_absolute_configuration .
_chemical_formula_sum            'C Ca O3'
_chemical_formula_weight         100.1
_space_group_IT_number           167
_symmetry_cell_setting           trigonal
_symmetry_Int_Tables_number      167
_symmetry_space_group_name_Hall  '-R 3 2"c'
_symmetry_space_group_name_H-M   'R -3 c :H'
_cell_angle_alpha                90
_cell_angle_beta                 90
_cell_angle_gamma                120
_cell_formula_units_Z            6
_cell_length_a                   4.9714
_cell_length_b                   4.9714
_cell_length_c                   17.6902(3)
_cell_measurement_temperature    1192
_cell_volume                     378.635(6)
_diffrn_ambient_temperature      1192
_diffrn_measured_fraction_theta_full 1
_diffrn_measured_fraction_theta_max 1
_diffrn_measurement_device       'four-cycle diffractometer'
_diffrn_measurement_device_type  'Bruker CCD'
_diffrn_radiation_monochromator  graphite
_diffrn_radiation_probe          x-ray
_diffrn_radiation_source         'X-ray tube'
_diffrn_radiation_type           'Mo K\a'
_diffrn_radiation_wavelength     0.71073
_diffrn_reflns_av_R_equivalents  0.0244
_diffrn_reflns_av_sigmaI/netI    0.0091
_diffrn_reflns_limit_h_max       5
_diffrn_reflns_limit_h_min       -6
_diffrn_reflns_limit_k_max       6
_diffrn_reflns_limit_k_min       -6
_diffrn_reflns_limit_l_max       20
_diffrn_reflns_limit_l_min       -24
_diffrn_reflns_number            1559
_diffrn_reflns_theta_full        30
_diffrn_reflns_theta_max         30
_diffrn_reflns_theta_min         5.27
_exptl_absorpt_coefficient_mu    2.217
_exptl_crystal_density_diffrn    2.6328
_exptl_crystal_F_000             300
_refine_diff_density_max         0.10
_refine_diff_density_min         -0.19
_refine_ls_extinction_method     none
_refine_ls_goodness_of_fit_gt    2.58
_refine_ls_goodness_of_fit_ref   2.39
_refine_ls_number_constraints    9
_refine_ls_number_parameters     15
_refine_ls_number_reflns         125
_refine_ls_number_restraints     0
_refine_ls_R_factor_all          0.0262
_refine_ls_R_factor_gt           0.0235
_refine_ls_shift/su_max          0.0010
_refine_ls_shift/su_mean         0.0004
_refine_ls_structure_factor_coef F
_refine_ls_weighting_details     w=1/(\s^2^(F)+0.0001F^2^)
_refine_ls_weighting_scheme      sigma
_refine_ls_wR_factor_gt          0.0326
_refine_ls_wR_factor_ref         0.0333
_reflns_number_gt                106
_reflns_number_total             125
_reflns_threshold_expression     I>3\s(I)
_cod_data_source_file            srep02832-s3-Copie9.cif
_cod_data_source_block           1192K_hs25_h890_IV_anharm
_cod_depositor_comments
;
The following automatic conversions were performed:

'_diffrn_radiation_probe' value 'X-ray' changed to 'x-ray' according
to the built-in table from CIF Core dictionary named 'cif_core.dic'
version 2.4.1 from 2010-06-29.

Automatic conversion script
Id: cif_fix_values 5376 2017-05-30 11:51:03Z andrius 

The following automatic conversions were performed:

data name '_atom_site_site_symmetry_mutiplicity' was replaced with
'_atom_site_site_symmetry_multiplicity' as specified in the
replacement file 'data/replacement-values/replacement_tags.lst'.

Automatic conversion script
Id: cif_correct_tags 9268 2022-04-12 08:56:07Z antanas 
;
_cod_original_sg_symbol_Hall     '-R 3;-2"c'
_cod_original_sg_symbol_H-M      'R -3 c'
_cod_original_formula_sum        'C1 Ca1 O3'
_cod_database_code               1547380
loop_
_symmetry_equiv_pos_site_id
_symmetry_equiv_pos_as_xyz
1 x,y,z
2 -y,x-y,z
3 -x+y,-x,z
4 y,x,-z+1/2
5 x-y,-y,-z+1/2
6 -x,-x+y,-z+1/2
7 -x,-y,-z
8 y,-x+y,-z
9 x-y,x,-z
10 -y,-x,z+1/2
11 -x+y,y,z+1/2
12 x,x-y,z+1/2
13 x+2/3,y+1/3,z+1/3
14 -y+2/3,x-y+1/3,z+1/3
15 -x+y+2/3,-x+1/3,z+1/3
16 y+2/3,x+1/3,-z+5/6
17 x-y+2/3,-y+1/3,-z+5/6
18 -x+2/3,-x+y+1/3,-z+5/6
19 -x+2/3,-y+1/3,-z+1/3
20 y+2/3,-x+y+1/3,-z+1/3
21 x-y+2/3,x+1/3,-z+1/3
22 -y+2/3,-x+1/3,z+5/6
23 -x+y+2/3,y+1/3,z+5/6
24 x+2/3,x-y+1/3,z+5/6
25 x+1/3,y+2/3,z+2/3
26 -y+1/3,x-y+2/3,z+2/3
27 -x+y+1/3,-x+2/3,z+2/3
28 y+1/3,x+2/3,-z+1/6
29 x-y+1/3,-y+2/3,-z+1/6
30 -x+1/3,-x+y+2/3,-z+1/6
31 -x+1/3,-y+2/3,-z+2/3
32 y+1/3,-x+y+2/3,-z+2/3
33 x-y+1/3,x+2/3,-z+2/3
34 -y+1/3,-x+2/3,z+1/6
35 -x+y+1/3,y+2/3,z+1/6
36 x+1/3,x-y+2/3,z+1/6
loop_
_atom_site_label
_atom_site_type_symbol
_atom_site_fract_x
_atom_site_fract_y
_atom_site_fract_z
_atom_site_adp_type
_atom_site_U_iso_or_equiv
_atom_site_site_symmetry_multiplicity
_atom_site_occupancy
_atom_site_calc_flag
_atom_site_refinement_flags
_atom_site_disorder_assembly
_atom_site_disorder_group
Ca1 Ca 0 0 0 Uani 0.0613(3) 6 1 d . . .
C1 C 0 0 0.25 Uani 0.0510(9) 6 1 d . . .
O1 O 0.2451(11) 0 0.25 Uani 0.120(2) 18 0.897(6) d . . .
O2 O -0.2451(11) 0 0.25 Uani 0.120(2) 18 0.103(6) d . . .
loop_
_atom_site_aniso_label
_atom_site_aniso_type_symbol
_atom_site_aniso_U_11
_atom_site_aniso_U_22
_atom_site_aniso_U_33
_atom_site_aniso_U_12
_atom_site_aniso_U_13
_atom_site_aniso_U_23
Ca1 Ca 0.0631(4) 0.0631(4) 0.0576(5) 0.0315(2) 0 0
C1 C 0.0477(10) 0.0477(10) 0.0577(17) 0.0238(5) 0 0
O1 O 0.0835(11) 0.181(4) 0.127(2) 0.0904(18) -0.0344(11) -0.069(2)
O2 O 0.0835(11) 0.181(4) 0.127(2) 0.0904(18) -0.0344(11) -0.069(2)
loop_
_atom_type_symbol
_atom_type_scat_dispersion_real
_atom_type_scat_dispersion_imag
_atom_type_scat_source
C 0.0033 0.0016 'International Tables Vol C tables 4.2.6.8 and 6.1.1.1'
Ca 0.2262 0.3064 'International Tables Vol C tables 4.2.6.8 and 6.1.1.1'
O 0.0106 0.0060 'International Tables Vol C tables 4.2.6.8 and 6.1.1.1'
loop_
_geom_bond_atom_site_label_1
_geom_bond_atom_site_label_2
_geom_bond_site_symmetry_1
_geom_bond_site_symmetry_2
_geom_bond_distance
Ca1 Ca1 . 16_444 4.11475(7)
Ca1 Ca1 . 16_454 4.11475(7)
Ca1 Ca1 . 16_554 4.11475(7)
Ca1 Ca1 . 28_445 4.11475(7)
Ca1 Ca1 . 28_545 4.11475(7)
Ca1 Ca1 . 28_555 4.11475(7)
Ca1 C1 . 25_444 3.22668(2)
Ca1 C1 . 25_544 3.22668(2)
Ca1 C1 . 25_554 3.22668(2)
Ca1 C1 . 19_445 3.22668(2)
Ca1 C1 . 19_455 3.22668(2)
Ca1 C1 . 19_555 3.22668(2)
Ca1 O1 . 25_444 2.416(3)
Ca1 O1 . 26_544 2.416(3)
Ca1 O1 . 27_554 2.416(4)
Ca1 O1 . 19_555 2.416(3)
Ca1 O1 . 20_455 2.416(3)
Ca1 O1 . 21_445 2.416(4)
Ca1 O2 . 25_544 2.416(3)
Ca1 O2 . 26_554 2.416(3)
Ca1 O2 . 27_444 2.416(4)
Ca1 O2 . 19_455 2.416(3)
Ca1 O2 . 20_445 2.416(3)
Ca1 O2 . 21_555 2.416(4)
C1 O1 . . 1.218(5)
C1 O1 . 2_555 1.218(5)
C1 O1 . 3_555 1.218(4)
C1 O2 . . 1.218(5)
C1 O2 . 2_555 1.218(5)
C1 O2 . 3_555 1.218(4)
O1 O2 . 2_555 1.218(4)
O1 O2 . 3_555 1.218(7)
loop_
_refln_index_h
_refln_index_k
_refln_index_l
_refln_F_squared_calc
_refln_F_squared_meas
_refln_F_squared_sigma
_refln_observed_status
-1 2 0 3695.61 3577.40 24.19 o
0 3 0 2277.33 2216.99 17.69 o
-2 4 0 1334.96 1400.81 13.13 o
-1 5 0 272.09 267.27 2.39 o
-3 6 0 54.19 59.81 1.33 o
0 6 0 17.48 16.42 2.16 o
-2 3 1 282.79 304.62 1.61 o
-1 4 1 1.61 1.25 0.15 o
-3 5 1 24.42 23.05 0.48 o
-5 6 1 0.59 1.00 0.33 o
-2 6 1 0.05 0.10 0.23 <
0 1 2 834.01 857.50 7.34 o
-2 2 2 6096.05 6154.06 46.13 o
-1 3 2 1783.60 1855.97 10.07 o
-3 4 2 96.21 101.38 0.87 o
0 4 2 37.61 37.58 0.74 o
-5 5 2 43.68 43.58 1.20 o
-2 5 2 100.80 89.49 1.00 o
-4 6 2 42.62 42.27 0.79 o
-1 6 2 23.57 26.60 0.77 o
-1 2 3 828.57 882.37 4.28 o
-2 4 3 0.52 0.12 0.13 <
-4 5 3 3.61 4.36 0.28 o
-1 5 3 1.32 1.37 0.20 o
-3 6 3 0.27 0.05 0.21 <
-1 1 4 16973.80 15127.20 137.21 o
0 2 4 2968.86 2854.22 19.61 o
-2 3 4 1387.09 1399.64 7.72 o
-4 4 4 903.70 904.72 9.33 o
-1 4 4 1107.27 1162.41 7.67 o
-3 5 4 302.54 327.31 2.48 o
0 5 4 100.36 88.79 1.56 o
-5 6 4 26.40 24.68 0.95 o
-2 6 4 46.52 46.10 0.86 o
-1 3 5 198.10 204.52 1.30 o
-3 4 5 6.98 8.67 0.25 o
-2 5 5 11.95 9.92 0.35 o
-4 6 5 0.05 0.28 0.26 <
-1 6 5 0.35 0.36 0.35 <
0 0 6 532.64 659.32 9.43 o
-1 2 6 3633.81 3765.34 19.86 o
-3 3 6 471.71 505.56 4.00 o
0 3 6 277.06 257.12 2.39 o
-2 4 6 218.13 207.95 1.71 o
-4 5 6 30.07 30.87 0.61 o
-1 5 6 52.22 55.17 0.86 o
-3 6 6 37.11 35.60 0.72 o
-2 3 7 88.54 85.04 0.63 o
-1 4 7 0.09 0.49 0.15 o
-3 5 7 15.48 16.83 0.43 o
-5 6 7 0.49 1.28 0.48 <
-2 6 7 0.06 0.43 0.30 <
0 1 8 8090.74 7825.42 65.93 o
-2 2 8 817.57 841.72 7.65 o
-1 3 8 1184.67 1210.13 7.35 o
-3 4 8 726.48 731.83 5.81 o
0 4 8 421.16 421.57 4.90 o
-5 5 8 68.75 70.52 1.65 o
-2 5 8 159.27 160.41 1.73 o
-4 6 8 33.85 36.61 0.97 o
-1 6 8 25.73 23.49 0.94 o
-1 2 9 175.27 157.78 1.04 o
-2 4 9 0.61 0.12 0.15 <
-4 5 9 2.05 2.75 0.31 o
-1 5 9 0.02 -0.15 0.20 <
-3 6 9 0.05 0.43 0.31 <
-1 1 10 886.39 881.10 8.14 o
0 2 10 715.75 726.48 6.05 o
-2 3 10 678.09 656.58 4.38 o
-4 4 10 7.50 8.70 0.51 o
-1 4 10 82.39 74.60 0.90 o
-3 5 10 38.84 37.81 0.72 o
0 5 10 16.44 18.36 0.81 o
-2 6 10 15.32 16.26 0.67 o
-1 3 11 37.61 34.81 0.53 o
-3 4 11 4.83 4.82 0.31 o
-2 5 11 1.92 1.07 0.26 o
-4 6 11 0.09 0.41 0.39 <
0 0 12 4580.87 4547.22 62.95 o
-1 2 12 898.47 893.54 6.10 o
-3 3 12 430.30 439.98 4.67 o
0 3 12 585.02 608.09 6.65 o
-2 4 12 255.96 265.46 2.47 o
-4 5 12 90.28 92.58 1.43 o
-1 5 12 65.49 60.48 0.92 o
-3 6 12 22.50 19.40 1.46 o
-2 3 13 7.20 6.86 0.30 o
-1 4 13 0.42 0.79 0.20 o
-3 5 13 3.42 3.98 0.39 o
0 1 14 276.67 272.52 3.09 o
-2 2 14 521.91 553.68 6.35 o
-1 3 14 154.06 142.10 1.50 o
-3 4 14 28.35 28.35 0.66 o
0 4 14 18.71 18.94 0.71 o
-5 5 14 7.90 10.04 1.65 o
-2 5 14 26.52 26.69 0.72 o
-1 2 15 12.40 10.86 0.33 o
-2 4 15 0.21 0.46 0.21 <
-4 5 15 0.29 0.71 0.44 <
-1 5 15 0.03 0.30 0.30 <
-1 1 16 596.55 572.93 6.58 o
0 2 16 383.89 376.96 5.08 o
-2 3 16 159.38 160.66 1.79 o
-4 4 16 92.25 95.38 2.34 o
-1 4 16 93.06 93.60 1.40 o
-3 5 16 36.49 35.32 1.04 o
-1 3 17 2.79 2.70 0.30 o
-3 4 17 0.93 0.79 0.28 <
-2 5 17 0.12 -0.05 0.56 <
0 0 18 88.47 90.14 2.83 o
-1 2 18 109.92 115.00 1.37 o
-3 3 18 32.14 33.86 1.17 o
0 3 18 21.48 18.64 0.84 o
-2 4 18 24.57 25.06 0.72 o
-2 3 19 0.18 0.16 0.25 <
-1 4 19 0.11 0.21 0.35 <
0 1 20 170.60 172.08 2.68 o
-2 2 20 73.10 66.49 1.51 o
-1 3 20 62.20 63.75 1.17 o
-3 4 20 30.68 33.00 0.97 o
-1 2 21 0.39 0.18 0.28 <
-1 1 22 31.86 36.66 1.10 o
0 2 22 16.92 16.30 1.00 o
-2 3 22 14.90 15.81 0.74 o
0 0 24 44.19 48.54 2.34 o
loop_
_jana_atom_site_adp_c_label
_jana_atom_site_adp_c_type_symbol
_jana_atom_site_adp_c_111
_jana_atom_site_adp_c_112
_jana_atom_site_adp_c_113
_jana_atom_site_adp_c_122
_jana_atom_site_adp_c_123
_jana_atom_site_adp_c_133
_jana_atom_site_adp_c_222
_jana_atom_site_adp_c_223
_jana_atom_site_adp_c_233
_jana_atom_site_adp_c_333
O1 O -0.113(14) -0.144(15) 0.014(2) -0.144(15) 0.014(2) -0.0029(6) 0 0 0 0
O2 O -0.113(14) -0.144(15) 0.014(2) -0.144(15) 0.014(2) -0.0029(6) 0 0 0 0
