#------------------------------------------------------------------------------
#$Date: 2023-12-06 15:08:03 +0200 (Wed, 06 Dec 2023) $
#$Revision: 288072 $
#$URL: file:///home/coder/svn-repositories/cod/cif/1/54/73/1547373.cif $
#------------------------------------------------------------------------------
#
# This file is available in the Crystallography Open Database (COD),
# http://www.crystallography.net/
#
# All data on this site have been placed in the public domain by the
# contributors.
#
data_1547373
loop_
_publ_author_name
'Nobuo Ishizawa'
'Hayato Setoguchi'
'Kazumichi Yanagisawa'
_publ_section_title
;
 Structural evolution of calcite at high temperatures: Phase V unveiled
;
_journal_name_full               'Scientific Reports'
_journal_page_first              2832
_journal_paper_doi               10.1038/srep02832
_journal_volume                  3
_journal_year                    2013
_chemical_absolute_configuration .
_chemical_formula_sum            'C Ca O3'
_chemical_formula_weight         100.1
_space_group_IT_number           167
_symmetry_cell_setting           trigonal
_symmetry_Int_Tables_number      167
_symmetry_space_group_name_Hall  '-R 3 2"c'
_symmetry_space_group_name_H-M   'R -3 c :H'
_cell_angle_alpha                90
_cell_angle_beta                 90
_cell_angle_gamma                120
_cell_formula_units_Z            6
_cell_length_a                   4.9745
_cell_length_b                   4.9745
_cell_length_c                   17.4912(3)
_cell_measurement_temperature    1037
_cell_volume                     374.843(6)
_diffrn_ambient_temperature      1037
_diffrn_measured_fraction_theta_full 1
_diffrn_measured_fraction_theta_max 1
_diffrn_measurement_device       'four-cycle diffractometer'
_diffrn_measurement_device_type  'Bruker CCD'
_diffrn_radiation_monochromator  graphite
_diffrn_radiation_probe          x-ray
_diffrn_radiation_source         'X-ray tube'
_diffrn_radiation_type           'Mo K\a'
_diffrn_radiation_wavelength     0.71073
_diffrn_reflns_av_R_equivalents  0.0272
_diffrn_reflns_av_sigmaI/netI    0.0136
_diffrn_reflns_limit_h_max       5
_diffrn_reflns_limit_h_min       -7
_diffrn_reflns_limit_k_max       8
_diffrn_reflns_limit_k_min       -5
_diffrn_reflns_limit_l_max       27
_diffrn_reflns_limit_l_min       -24
_diffrn_reflns_number            1333
_diffrn_reflns_theta_full        35
_diffrn_reflns_theta_max         35
_diffrn_reflns_theta_min         5.28
_exptl_absorpt_coefficient_mu    2.239
_exptl_crystal_density_diffrn    2.6595
_exptl_crystal_F_000             300
_refine_diff_density_max         0.14
_refine_diff_density_min         -0.20
_refine_ls_extinction_method     none
_refine_ls_goodness_of_fit_gt    1.72
_refine_ls_goodness_of_fit_ref   1.63
_refine_ls_number_constraints    9
_refine_ls_number_parameters     15
_refine_ls_number_reflns         188
_refine_ls_number_restraints     0
_refine_ls_R_factor_all          0.0243
_refine_ls_R_factor_gt           0.0217
_refine_ls_shift/su_max          0.0022
_refine_ls_shift/su_mean         0.0007
_refine_ls_structure_factor_coef F
_refine_ls_weighting_details     w=1/(\s^2^(F)+0.0001F^2^)
_refine_ls_weighting_scheme      sigma
_refine_ls_wR_factor_gt          0.0250
_refine_ls_wR_factor_ref         0.0256
_reflns_number_gt                163
_reflns_number_total             188
_reflns_threshold_expression     I>3\s(I)
_cod_data_source_file            srep02832-s3-Copie2.cif
_cod_data_source_block           1037K_hs30_h740_IV_anharm
_cod_depositor_comments
;
The following automatic conversions were performed:

'_diffrn_radiation_probe' value 'X-ray' changed to 'x-ray' according
to the built-in table from CIF Core dictionary named 'cif_core.dic'
version 2.4.1 from 2010-06-29.

Automatic conversion script
Id: cif_fix_values 5376 2017-05-30 11:51:03Z andrius 

The following automatic conversions were performed:

data name '_atom_site_site_symmetry_mutiplicity' was replaced with
'_atom_site_site_symmetry_multiplicity' as specified in the
replacement file 'data/replacement-values/replacement_tags.lst'.

Automatic conversion script
Id: cif_correct_tags 9268 2022-04-12 08:56:07Z antanas 
;
_cod_original_sg_symbol_Hall     '-R 3;-2"c'
_cod_original_sg_symbol_H-M      'R -3 c'
_cod_original_formula_sum        'C1 Ca1 O3'
_cod_database_code               1547373
loop_
_symmetry_equiv_pos_site_id
_symmetry_equiv_pos_as_xyz
1 x,y,z
2 -y,x-y,z
3 -x+y,-x,z
4 y,x,-z+1/2
5 x-y,-y,-z+1/2
6 -x,-x+y,-z+1/2
7 -x,-y,-z
8 y,-x+y,-z
9 x-y,x,-z
10 -y,-x,z+1/2
11 -x+y,y,z+1/2
12 x,x-y,z+1/2
13 x+2/3,y+1/3,z+1/3
14 -y+2/3,x-y+1/3,z+1/3
15 -x+y+2/3,-x+1/3,z+1/3
16 y+2/3,x+1/3,-z+5/6
17 x-y+2/3,-y+1/3,-z+5/6
18 -x+2/3,-x+y+1/3,-z+5/6
19 -x+2/3,-y+1/3,-z+1/3
20 y+2/3,-x+y+1/3,-z+1/3
21 x-y+2/3,x+1/3,-z+1/3
22 -y+2/3,-x+1/3,z+5/6
23 -x+y+2/3,y+1/3,z+5/6
24 x+2/3,x-y+1/3,z+5/6
25 x+1/3,y+2/3,z+2/3
26 -y+1/3,x-y+2/3,z+2/3
27 -x+y+1/3,-x+2/3,z+2/3
28 y+1/3,x+2/3,-z+1/6
29 x-y+1/3,-y+2/3,-z+1/6
30 -x+1/3,-x+y+2/3,-z+1/6
31 -x+1/3,-y+2/3,-z+2/3
32 y+1/3,-x+y+2/3,-z+2/3
33 x-y+1/3,x+2/3,-z+2/3
34 -y+1/3,-x+2/3,z+1/6
35 -x+y+1/3,y+2/3,z+1/6
36 x+1/3,x-y+2/3,z+1/6
loop_
_atom_site_label
_atom_site_type_symbol
_atom_site_fract_x
_atom_site_fract_y
_atom_site_fract_z
_atom_site_adp_type
_atom_site_U_iso_or_equiv
_atom_site_site_symmetry_multiplicity
_atom_site_occupancy
_atom_site_calc_flag
_atom_site_refinement_flags
_atom_site_disorder_assembly
_atom_site_disorder_group
Ca1 Ca 0 0 0 Uani 0.04567(16) 6 1 d . . .
C1 C 0 0 0.25 Uani 0.0384(4) 6 1 d . . .
O1 O 0.2482(4) 0 0.25 Uani 0.0822(7) 18 0.989(4) d . . .
O2 O -0.2482(4) 0 0.25 Uani 0.0822(7) 18 0.011(4) d . . .
loop_
_atom_site_aniso_label
_atom_site_aniso_type_symbol
_atom_site_aniso_U_11
_atom_site_aniso_U_22
_atom_site_aniso_U_33
_atom_site_aniso_U_12
_atom_site_aniso_U_13
_atom_site_aniso_U_23
Ca1 Ca 0.0470(2) 0.0470(2) 0.0431(2) 0.02348(10) 0 0
C1 C 0.0358(5) 0.0358(5) 0.0436(8) 0.0179(2) 0 0
O1 O 0.0567(4) 0.1150(12) 0.0942(8) 0.0575(6) -0.0223(4) -0.0446(8)
O2 O 0.0567(4) 0.1150(12) 0.0942(8) 0.0575(6) -0.0223(4) -0.0446(8)
loop_
_atom_type_symbol
_atom_type_scat_dispersion_real
_atom_type_scat_dispersion_imag
_atom_type_scat_source
C 0.0033 0.0016 'International Tables Vol C tables 4.2.6.8 and 6.1.1.1'
Ca 0.2262 0.3064 'International Tables Vol C tables 4.2.6.8 and 6.1.1.1'
O 0.0106 0.0060 'International Tables Vol C tables 4.2.6.8 and 6.1.1.1'
loop_
_geom_bond_atom_site_label_1
_geom_bond_atom_site_label_2
_geom_bond_site_symmetry_1
_geom_bond_site_symmetry_2
_geom_bond_distance
Ca1 Ca1 . 16_444 4.09230(7)
Ca1 Ca1 . 16_454 4.09230(7)
Ca1 Ca1 . 16_554 4.09230(7)
Ca1 Ca1 . 28_445 4.09230(7)
Ca1 Ca1 . 28_545 4.09230(7)
Ca1 Ca1 . 28_555 4.09230(7)
Ca1 C1 . 25_444 3.22074(2)
Ca1 C1 . 25_544 3.22074(2)
Ca1 C1 . 25_554 3.22074(2)
Ca1 C1 . 19_445 3.22074(2)
Ca1 C1 . 19_455 3.22074(2)
Ca1 C1 . 19_555 3.22074(2)
Ca1 O1 . 25_444 2.3991(11)
Ca1 O1 . 26_544 2.3991(11)
Ca1 O1 . 27_554 2.3991(18)
Ca1 O1 . 19_555 2.3991(11)
Ca1 O1 . 20_455 2.3991(11)
Ca1 O1 . 21_445 2.3991(18)
Ca1 O2 . 25_544 2.3991(11)
Ca1 O2 . 26_554 2.3991(11)
Ca1 O2 . 27_444 2.3991(18)
Ca1 O2 . 19_455 2.3991(11)
Ca1 O2 . 20_445 2.3991(11)
Ca1 O2 . 21_555 2.3991(18)
C1 O1 . . 1.235(2)
C1 O1 . 2_555 1.235(2)
C1 O1 . 3_555 1.2346(15)
C1 O2 . . 1.235(2)
C1 O2 . 2_555 1.235(2)
C1 O2 . 3_555 1.2346(15)
O1 O2 . 2_555 1.2346(15)
O1 O2 . 3_555 1.235(3)
loop_
_refln_index_h
_refln_index_k
_refln_index_l
_refln_F_squared_calc
_refln_F_squared_meas
_refln_F_squared_sigma
_refln_observed_status
-1 2 0 4065.57 3811.78 42.01 o
0 3 0 3433.00 3579.20 45.88 o
-2 4 0 1629.20 1695.67 21.52 o
-1 5 0 565.49 565.01 5.88 o
-3 6 0 137.47 136.41 2.45 o
0 6 0 46.78 46.65 1.28 o
-2 7 0 60.55 60.16 1.98 o
-4 8 0 40.70 41.91 2.71 o
-2 3 1 726.82 794.38 6.52 o
-1 4 1 3.89 3.93 0.19 o
-3 5 1 84.78 82.89 1.07 o
-5 6 1 4.05 4.50 0.33 o
-2 6 1 0.42 1.09 0.21 o
-4 7 1 5.64 6.21 0.40 o
-1 7 1 0.54 0.07 0.52 <
0 1 2 875.52 922.55 9.83 o
-2 2 2 6666.45 6359.99 87.17 o
-1 3 2 2463.72 2560.86 20.82 o
-3 4 2 164.08 170.31 1.72 o
0 4 2 27.35 26.96 0.71 o
-5 5 2 107.22 104.36 2.00 o
-2 5 2 263.81 250.08 2.66 o
-4 6 2 113.35 116.68 1.57 o
-1 6 2 83.64 84.63 1.28 o
-6 7 2 10.22 11.45 1.07 o
-3 7 2 13.96 14.31 0.55 o
-1 2 3 1893.59 2095.26 14.82 o
-2 4 3 1.24 1.07 0.14 o
-4 5 3 12.35 12.38 0.40 o
-1 5 3 3.83 3.50 0.28 o
-3 6 3 1.43 1.45 0.22 o
-5 7 3 5.56 4.47 0.69 o
-2 7 3 3.03 4.29 0.62 o
-1 1 4 18438.70 15889.70 225.19 o
0 2 4 3289.38 3273.38 31.82 o
-2 3 4 1751.95 1841.64 13.75 o
-4 4 4 1737.79 1762.93 24.66 o
-1 4 4 1802.21 1841.83 15.21 o
-3 5 4 501.37 509.27 5.33 o
0 5 4 244.99 237.30 3.88 o
-5 6 4 70.02 66.87 1.22 o
-2 6 4 112.81 108.12 1.57 o
-4 7 4 81.78 80.87 1.81 o
-1 7 4 36.46 33.18 1.60 o
-1 3 5 538.80 536.33 4.31 o
-3 4 5 21.58 21.66 0.40 o
-2 5 5 43.19 41.32 0.64 o
-4 6 5 0.44 0.45 0.21 <
-1 6 5 2.69 3.10 0.33 o
-6 7 5 0.74 1.45 0.62 <
-3 7 5 2.78 2.76 0.48 o
0 0 6 724.62 916.12 18.42 o
-1 2 6 4404.94 4506.12 35.94 o
-3 3 6 564.03 573.24 6.92 o
0 3 6 334.91 332.97 4.14 o
-2 4 6 472.11 450.39 4.31 o
-4 5 6 70.49 68.85 1.16 o
-1 5 6 112.09 106.59 1.47 o
-6 6 6 50.76 51.64 2.85 o
-3 6 6 103.87 102.33 1.41 o
0 6 6 28.22 30.49 1.64 o
-5 7 6 12.80 12.09 1.55 o
-2 7 6 11.99 10.02 1.41 o
-2 3 7 251.57 254.60 2.14 o
-1 4 7 1.08 1.31 0.16 o
-3 5 7 60.38 59.90 0.91 o
-5 6 7 3.74 3.79 0.36 o
-2 6 7 0.31 0.36 0.22 <
-4 7 7 4.07 2.67 0.60 o
-1 7 7 0.20 -0.34 0.52 <
0 1 8 9260.15 8883.91 121.92 o
-2 2 8 1156.54 1157.49 16.02 o
-1 3 8 1538.47 1589.99 12.69 o
-3 4 8 1238.27 1238.14 11.61 o
0 4 8 957.65 950.91 15.07 o
-5 5 8 169.26 172.50 3.36 o
-2 5 8 288.42 288.61 3.02 o
-4 6 8 101.84 107.24 1.67 o
-1 6 8 69.87 71.01 1.29 o
-6 7 8 22.60 21.63 1.41 o
-3 7 8 58.83 56.35 2.16 o
-1 2 9 447.56 444.26 3.73 o
-2 4 9 1.02 0.66 0.14 o
-4 5 9 8.38 7.14 0.40 o
-1 5 9 0.00 0.17 0.19 <
-3 6 9 0.76 0.76 0.24 o
-5 7 9 4.16 5.09 1.16 o
-2 7 9 0.63 1.14 0.79 <
-1 1 10 968.48 937.73 11.31 o
0 2 10 1135.55 1133.74 12.69 o
-2 3 10 1037.01 1024.21 8.31 o
-4 4 10 12.94 14.82 0.67 o
-1 4 10 139.10 130.42 1.47 o
-3 5 10 110.57 106.95 1.59 o
0 5 10 46.57 48.31 1.40 o
-5 6 10 49.51 52.40 1.17 o
-2 6 10 59.65 61.59 1.24 o
-4 7 10 5.84 6.55 0.88 o
-1 3 11 124.10 116.52 1.21 o
-3 4 11 15.92 17.14 0.47 o
-2 5 11 8.52 7.57 0.36 o
-4 6 11 0.39 0.22 0.26 <
-1 6 11 1.12 1.41 0.41 o
-3 7 11 0.38 0.22 0.52 <
0 0 12 6360.57 6355.42 150.84 o
-1 2 12 1175.03 1168.50 8.92 o
-3 3 12 798.99 805.67 10.64 o
0 3 12 1061.90 1095.23 15.11 o
-2 4 12 451.51 467.96 4.62 o
-4 5 12 226.99 235.85 3.28 o
-1 5 12 169.29 168.04 2.29 o
-6 6 12 12.92 13.07 1.64 o
-3 6 12 66.96 66.38 1.31 o
0 6 12 31.35 32.87 2.40 o
-5 7 12 24.02 26.59 2.26 o
-2 7 12 24.04 25.16 2.17 o
-2 3 13 28.85 27.77 0.47 o
-1 4 13 2.41 2.40 0.22 o
-3 5 13 17.49 17.71 0.52 o
-5 6 13 1.93 1.60 0.62 <
-2 6 13 0.10 0.12 0.34 <
-4 7 13 1.19 1.53 0.60 <
0 1 14 377.45 362.72 4.35 o
-2 2 14 837.05 823.06 9.26 o
-1 3 14 295.84 281.73 2.73 o
-3 4 14 61.49 59.76 1.03 o
0 4 14 32.30 34.22 1.14 o
-5 5 14 31.08 33.42 1.40 o
-2 5 14 84.62 85.18 1.26 o
-4 6 14 20.46 18.40 1.07 o
-1 6 14 15.87 13.69 1.17 o
-1 2 15 42.96 40.79 0.59 o
-2 4 15 0.43 0.50 0.21 <
-4 5 15 1.74 2.36 0.38 o
-1 5 15 0.36 0.14 0.28 <
-3 6 15 0.25 -0.03 0.47 <
-1 1 16 981.30 999.60 11.95 o
0 2 16 623.20 636.53 8.12 o
-2 3 16 300.56 299.37 3.04 o
-4 4 16 249.60 250.34 5.26 o
-1 4 16 231.37 235.75 3.00 o
-3 5 16 99.71 107.64 1.97 o
0 5 16 58.29 56.26 3.16 o
-5 6 16 17.06 15.23 1.24 o
-2 6 16 27.41 25.92 1.24 o
-1 3 17 13.26 12.83 0.45 o
-3 4 17 3.89 4.19 0.36 o
-2 5 17 0.79 0.64 0.29 <
-4 6 17 0.19 0.40 0.81 <
0 0 18 113.18 106.83 3.02 o
-1 2 18 227.18 232.54 2.35 o
-3 3 18 72.02 74.92 1.53 o
0 3 18 46.34 45.05 1.29 o
-2 4 18 67.80 64.71 1.22 o
-4 5 18 12.17 12.54 1.12 o
-1 5 18 19.63 19.73 1.09 o
-3 6 18 10.79 9.37 1.05 o
-2 3 19 1.46 1.43 0.22 o
-1 4 19 0.72 0.90 0.34 <
-3 5 19 2.35 1.90 0.59 o
0 1 20 353.92 346.82 4.74 o
-2 2 20 153.21 147.44 2.35 o
-1 3 20 150.30 153.12 1.90 o
-3 4 20 95.68 96.22 1.83 o
0 4 20 73.59 77.66 2.67 o
-2 5 20 30.53 31.22 1.31 o
-1 2 21 2.38 2.16 0.24 o
-2 4 21 0.08 0.69 0.36 <
-4 5 21 0.12 -0.02 0.64 <
-1 5 21 0.15 0.98 0.60 <
-1 1 22 72.59 73.14 1.45 o
0 2 22 46.29 46.05 1.19 o
-2 3 22 45.35 50.34 0.97 o
-4 4 22 5.67 3.73 1.21 o
-1 4 22 16.07 16.87 0.98 o
-3 5 22 8.69 9.69 1.07 o
-1 3 23 0.78 0.57 0.29 <
-3 4 23 0.40 -0.78 0.43 <
0 0 24 125.84 118.16 3.66 o
-1 2 24 69.91 66.21 1.05 o
-3 3 24 41.67 42.12 1.50 o
0 3 24 47.04 52.71 2.09 o
-2 4 24 25.17 23.96 1.19 o
-2 3 25 0.03 0.31 0.33 <
0 1 26 19.66 22.20 1.09 o
-2 2 26 18.67 19.73 1.07 o
-1 3 26 10.62 11.04 0.69 o
-1 2 27 0.07 -0.40 0.29 <
loop_
_jana_atom_site_adp_c_label
_jana_atom_site_adp_c_type_symbol
_jana_atom_site_adp_c_111
_jana_atom_site_adp_c_112
_jana_atom_site_adp_c_113
_jana_atom_site_adp_c_122
_jana_atom_site_adp_c_123
_jana_atom_site_adp_c_133
_jana_atom_site_adp_c_222
_jana_atom_site_adp_c_223
_jana_atom_site_adp_c_233
_jana_atom_site_adp_c_333
O1 O -0.058(5) -0.058(5) 0.0064(8) -0.058(5) 0.0064(8) -0.0018(2) 0 0 0 0
O2 O -0.058(5) -0.058(5) 0.0064(8) -0.058(5) 0.0064(8) -0.0018(2) 0 0 0 0
