#------------------------------------------------------------------------------
#$Date: 2023-12-06 15:08:03 +0200 (Wed, 06 Dec 2023) $
#$Revision: 288072 $
#$URL: file:///home/coder/svn-repositories/cod/cif/1/54/73/1547382.cif $
#------------------------------------------------------------------------------
#
# This file is available in the Crystallography Open Database (COD),
# http://www.crystallography.net/
#
# All data on this site have been placed in the public domain by the
# contributors.
#
data_1547382
loop_
_publ_author_name
'Nobuo Ishizawa'
'Hayato Setoguchi'
'Kazumichi Yanagisawa'
_publ_section_title
;
 Structural evolution of calcite at high temperatures: Phase V unveiled
;
_journal_name_full               'Scientific Reports'
_journal_page_first              2832
_journal_paper_doi               10.1038/srep02832
_journal_volume                  3
_journal_year                    2013
_chemical_absolute_configuration .
_chemical_formula_sum            'C Ca O3'
_chemical_formula_weight         100.1
_space_group_IT_number           166
_symmetry_cell_setting           trigonal
_symmetry_Int_Tables_number      166
_symmetry_space_group_name_Hall  '-R 3 2"'
_symmetry_space_group_name_H-M   'R -3 m :H'
_cell_angle_alpha                90
_cell_angle_beta                 90
_cell_angle_gamma                120
_cell_formula_units_Z            3
_cell_length_a                   4.9689
_cell_length_b                   4.9689
_cell_length_c                   8.9364
_cell_measurement_temperature    1275
_cell_volume                     191.079
_diffrn_ambient_temperature      1275
_diffrn_measured_fraction_theta_full 0.98
_diffrn_measured_fraction_theta_max 0.96
_diffrn_measurement_device       'four-cycle diffractometer'
_diffrn_measurement_device_type  'Bruker CCD'
_diffrn_radiation_monochromator  graphite
_diffrn_radiation_probe          x-ray
_diffrn_radiation_source         'X-ray tube'
_diffrn_radiation_type           'Mo K\a'
_diffrn_radiation_wavelength     0.71073
_diffrn_reflns_av_R_equivalents  0.0206
_diffrn_reflns_av_sigmaI/netI    0.0113
_diffrn_reflns_limit_h_max       6
_diffrn_reflns_limit_h_min       -7
_diffrn_reflns_limit_k_max       8
_diffrn_reflns_limit_k_min       -5
_diffrn_reflns_limit_l_max       13
_diffrn_reflns_limit_l_min       -16
_diffrn_reflns_number            919
_diffrn_reflns_theta_full        34.98
_diffrn_reflns_theta_max         39.92
_diffrn_reflns_theta_min         5.26
_exptl_absorpt_coefficient_mu    2.196
_exptl_crystal_density_diffrn    2.6085
_exptl_crystal_F_000             150
_refine_diff_density_max         0.26
_refine_diff_density_min         -0.24
_refine_ls_extinction_method     none
_refine_ls_goodness_of_fit_gt    1.86
_refine_ls_goodness_of_fit_ref   1.57
_refine_ls_number_constraints    0
_refine_ls_number_parameters     14
_refine_ls_number_reflns         162
_refine_ls_number_restraints     0
_refine_ls_R_factor_all          0.0394
_refine_ls_R_factor_gt           0.0251
_refine_ls_shift/su_max          0.0036
_refine_ls_shift/su_mean         0.0017
_refine_ls_structure_factor_coef F
_refine_ls_weighting_details     w=1/(\s^2^(F)+0.0001F^2^)
_refine_ls_weighting_scheme      sigma
_refine_ls_wR_factor_gt          0.0284
_refine_ls_wR_factor_ref         0.0310
_reflns_number_gt                103
_reflns_number_total             162
_reflns_threshold_expression     I>3\s(I)
_cod_data_source_file            srep02832-s4-Copie4.cif
_cod_data_source_block           hs29_h970_V-18g
_cod_depositor_comments
;
The following automatic conversions were performed:

'_diffrn_radiation_probe' value 'X-ray' changed to 'x-ray' according
to the built-in table from CIF Core dictionary named 'cif_core.dic'
version 2.4.1 from 2010-06-29.

Automatic conversion script
Id: cif_fix_values 5376 2017-05-30 11:51:03Z andrius 

The following automatic conversions were performed:

data name '_atom_site_site_symmetry_mutiplicity' was replaced with
'_atom_site_site_symmetry_multiplicity' as specified in the
replacement file 'data/replacement-values/replacement_tags.lst'.

Automatic conversion script
Id: cif_correct_tags 9268 2022-04-12 08:56:07Z antanas 
;
_cod_original_cell_volume        191.0794
_cod_original_sg_symbol_Hall     '-R 3;-2"'
_cod_original_sg_symbol_H-M      'R -3 m'
_cod_original_formula_sum        'C1 Ca1 O3'
_cod_database_code               1547382
loop_
_symmetry_equiv_pos_site_id
_symmetry_equiv_pos_as_xyz
1 x,y,z
2 -y,x-y,z
3 -x+y,-x,z
4 y,x,-z
5 x-y,-y,-z
6 -x,-x+y,-z
7 -x,-y,-z
8 y,-x+y,-z
9 x-y,x,-z
10 -y,-x,z
11 -x+y,y,z
12 x,x-y,z
13 x+2/3,y+1/3,z+1/3
14 -y+2/3,x-y+1/3,z+1/3
15 -x+y+2/3,-x+1/3,z+1/3
16 y+2/3,x+1/3,-z+1/3
17 x-y+2/3,-y+1/3,-z+1/3
18 -x+2/3,-x+y+1/3,-z+1/3
19 -x+2/3,-y+1/3,-z+1/3
20 y+2/3,-x+y+1/3,-z+1/3
21 x-y+2/3,x+1/3,-z+1/3
22 -y+2/3,-x+1/3,z+1/3
23 -x+y+2/3,y+1/3,z+1/3
24 x+2/3,x-y+1/3,z+1/3
25 x+1/3,y+2/3,z+2/3
26 -y+1/3,x-y+2/3,z+2/3
27 -x+y+1/3,-x+2/3,z+2/3
28 y+1/3,x+2/3,-z+2/3
29 x-y+1/3,-y+2/3,-z+2/3
30 -x+1/3,-x+y+2/3,-z+2/3
31 -x+1/3,-y+2/3,-z+2/3
32 y+1/3,-x+y+2/3,-z+2/3
33 x-y+1/3,x+2/3,-z+2/3
34 -y+1/3,-x+2/3,z+2/3
35 -x+y+1/3,y+2/3,z+2/3
36 x+1/3,x-y+2/3,z+2/3
loop_
_atom_site_label
_atom_site_type_symbol
_atom_site_fract_x
_atom_site_fract_y
_atom_site_fract_z
_atom_site_adp_type
_atom_site_U_iso_or_equiv
_atom_site_site_symmetry_multiplicity
_atom_site_occupancy
_atom_site_calc_flag
_atom_site_refinement_flags
_atom_site_disorder_assembly
_atom_site_disorder_group
Ca1 Ca 0 0 0 Uani 0.0755(3) 3 1 d . . .
C1 C 0 0 0.5 Uani 0.0654(8) 3 1 d . . .
O1 O 0.2340(15) 0 0.5 Uani 0.170(5) 18 0.5 d . . .
loop_
_atom_site_aniso_label
_atom_site_aniso_type_symbol
_atom_site_aniso_U_11
_atom_site_aniso_U_22
_atom_site_aniso_U_33
_atom_site_aniso_U_12
_atom_site_aniso_U_13
_atom_site_aniso_U_23
Ca1 Ca 0.0774(4) 0.0774(4) 0.0716(4) 0.03870(18) 0 0
C1 C 0.0611(9) 0.0611(9) 0.0738(14) 0.0306(5) 0 0
O1 O 0.122(3) 0.292(10) 0.154(2) 0.146(5) 0.0497(18) 0.099(4)
loop_
_atom_type_symbol
_atom_type_scat_dispersion_real
_atom_type_scat_dispersion_imag
_atom_type_scat_source
C 0.0033 0.0016 'International Tables Vol C tables 4.2.6.8 and 6.1.1.1'
Ca 0.2262 0.3064 'International Tables Vol C tables 4.2.6.8 and 6.1.1.1'
O 0.0106 0.0060 'International Tables Vol C tables 4.2.6.8 and 6.1.1.1'
loop_
_geom_bond_atom_site_label_1
_geom_bond_atom_site_label_2
_geom_bond_site_symmetry_1
_geom_bond_site_symmetry_2
_geom_bond_distance
Ca1 Ca1 . 13_445 4.1356
Ca1 Ca1 . 13_455 4.1356
Ca1 Ca1 . 13_555 4.1356
Ca1 Ca1 . 25_444 4.1356
Ca1 Ca1 . 25_544 4.1356
Ca1 Ca1 . 25_554 4.1356
Ca1 C1 . 13_444 3.2324
Ca1 C1 . 13_454 3.2324
Ca1 C1 . 13_554 3.2324
Ca1 C1 . 25_444 3.2324
Ca1 C1 . 25_544 3.2324
Ca1 C1 . 25_554 3.2324
Ca1 O1 . 13_454 2.454(4)
Ca1 O1 . 25_444 2.454(4)
Ca1 O1 . 14_444 2.454(4)
Ca1 O1 . 26_544 2.454(4)
Ca1 O1 . 15_554 2.454(6)
Ca1 O1 . 27_554 2.454(6)
Ca1 O1 . 19_555 2.454(4)
Ca1 O1 . 31_545 2.454(4)
Ca1 O1 . 20_455 2.454(4)
Ca1 O1 . 32_555 2.454(4)
Ca1 O1 . 21_445 2.454(6)
Ca1 O1 . 33_445 2.454(6)
C1 O1 . . 1.163(8)
C1 O1 . 2_555 1.163(8)
C1 O1 . 3_555 1.163(5)
C1 O1 . 7_556 1.163(8)
C1 O1 . 8_556 1.163(8)
C1 O1 . 9_556 1.163(5)
O1 O1 . 8_556 1.163(5)
O1 O1 . 9_556 1.163(9)
loop_
_refln_index_h
_refln_index_k
_refln_index_l
_refln_F_squared_calc
_refln_F_squared_meas
_refln_F_squared_sigma
_refln_observed_status
-1 2 0 862.16 880.61 7.73 o
0 3 0 375.73 379.89 3.76 o
-2 4 0 268.70 261.81 2.44 o
-1 5 0 34.55 34.78 0.41 o
-3 6 0 8.43 7.09 0.36 o
0 6 0 1.02 2.07 0.44 o
-2 7 0 1.23 1.08 0.16 o
-4 8 0 0.32 0.42 0.20 <
-1 8 0 0.13 -0.09 0.22 <
-1 1 1 196.75 191.82 1.90 o
0 2 1 1410.95 1451.14 12.62 o
-2 3 1 340.43 356.26 2.40 o
-4 4 1 9.00 9.12 0.27 o
-1 4 1 17.69 18.00 0.24 o
-3 5 1 9.14 8.60 0.17 o
0 5 1 6.33 6.38 0.33 o
-5 6 1 2.83 2.51 0.18 o
-2 6 1 3.73 4.45 0.21 o
-7 7 1 0.00 0.30 0.33 <
-4 7 1 0.48 0.44 0.12 o
-1 7 1 0.10 -0.34 0.18 <
-6 8 1 0.00 0.04 0.16 <
-3 8 1 0.01 0.10 0.14 <
0 1 2 3944.95 3792.87 36.13 o
-2 2 2 640.11 666.25 7.24 o
-1 3 2 279.49 277.15 1.74 o
-3 4 2 182.41 184.23 1.40 o
0 4 2 118.38 126.50 1.63 o
-5 5 2 8.42 9.13 0.40 o
-2 5 2 51.15 48.90 0.48 o
-4 6 2 5.39 4.80 0.22 o
-1 6 2 2.19 3.25 0.25 o
-6 7 2 0.69 0.49 0.20 <
-3 7 2 1.28 0.96 0.16 o
0 7 2 0.34 0.41 0.38 <
-5 8 2 0.27 0.22 0.15 <
-2 8 2 0.22 0.16 0.17 <
0 0 3 109.58 115.77 1.87 o
-1 2 3 772.74 803.48 4.80 o
-3 3 3 55.52 50.99 0.77 o
0 3 3 112.49 109.37 1.23 o
-2 4 3 25.54 25.28 0.31 o
-4 5 3 7.98 7.91 0.20 o
-1 5 3 3.75 4.08 0.17 o
-6 6 3 0.62 0.21 0.19 <
-3 6 3 2.66 3.46 0.21 o
0 6 3 1.08 1.83 0.32 o
-5 7 3 0.13 0.12 0.13 <
-2 7 3 0.29 0.19 0.14 <
-7 8 3 0.00 0.36 0.35 <
-4 8 3 0.02 0.07 0.13 <
-1 1 4 1751.27 1702.98 12.77 o
0 2 4 147.02 160.10 1.67 o
-2 3 4 241.31 241.26 1.67 o
-4 4 4 50.12 47.95 0.67 o
-1 4 4 105.35 108.04 0.95 o
-3 5 4 23.69 22.74 0.33 o
0 5 4 6.72 8.35 0.38 o
-5 6 4 1.98 1.87 0.17 o
-2 6 4 3.73 3.63 0.22 o
-7 7 4 0.21 -0.09 0.28 <
-4 7 4 0.97 1.01 0.17 o
-1 7 4 0.32 0.03 0.18 <
-6 8 4 0.11 -0.03 0.15 <
-3 8 4 0.15 0.33 0.17 <
0 1 5 213.98 197.15 2.00 o
-2 2 5 126.26 121.40 1.33 o
-1 3 5 112.32 112.97 0.94 o
-3 4 5 11.91 10.76 0.19 o
0 4 5 2.25 1.71 0.15 o
-5 5 5 2.73 2.24 0.19 o
-2 5 5 3.16 4.13 0.17 o
-4 6 5 1.21 1.39 0.15 o
-1 6 5 1.17 1.02 0.17 o
-6 7 5 0.02 -0.08 0.12 <
-3 7 5 0.20 0.20 0.13 <
-5 8 5 0.01 -0.15 0.13 <
-2 8 5 0.00 -0.08 0.20 <
0 0 6 872.28 792.26 16.99 o
-1 2 6 168.28 175.52 1.67 o
-3 3 6 88.54 87.74 1.20 o
0 3 6 56.36 60.55 0.78 o
-2 4 6 40.83 39.10 0.43 o
-4 5 6 5.81 6.29 0.21 o
-1 5 6 9.54 9.38 0.33 o
-6 6 6 0.52 0.64 0.18 o
-3 6 6 2.31 2.02 0.17 o
-5 7 6 0.40 0.42 0.13 o
-2 7 6 0.23 0.07 0.14 <
-4 8 6 0.08 0.01 0.14 <
-1 1 7 55.88 56.01 0.81 o
0 2 7 89.89 87.86 1.28 o
-2 3 7 19.06 20.51 0.35 o
-4 4 7 3.40 3.13 0.23 o
-1 4 7 3.88 3.67 0.17 o
-3 5 7 2.34 2.53 0.16 o
-5 6 7 0.22 0.21 0.13 <
-2 6 7 0.41 0.28 0.15 <
-4 7 7 0.05 -0.03 0.13 <
-1 7 7 0.03 -0.05 0.20 <
-3 8 7 0.00 0.15 0.21 <
0 1 8 90.05 91.94 1.04 o
-2 2 8 60.32 62.40 0.92 o
-1 3 8 22.69 23.18 0.34 o
-3 4 8 10.17 9.49 0.25 o
0 4 8 8.79 9.55 0.35 o
-5 5 8 0.97 0.93 0.19 o
-2 5 8 3.83 3.76 0.27 o
-4 6 8 0.67 0.56 0.14 o
-1 6 8 0.24 0.69 0.21 o
-6 7 8 0.07 -0.03 0.20 <
-3 7 8 0.14 0.27 0.16 <
0 0 9 16.17 17.02 0.54 o
-1 2 9 14.89 15.10 0.22 o
-3 3 9 2.61 2.43 0.22 o
0 3 9 4.36 4.13 0.20 o
-2 4 9 2.23 2.59 0.16 o
-4 5 9 0.50 0.49 0.12 o
-1 5 9 0.22 0.33 0.13 <
-6 6 9 0.02 0.46 0.23 <
-3 6 9 0.12 -0.03 0.15 <
-5 7 9 0.01 0.00 0.16 <
-2 7 9 0.02 0.65 0.23 <
-1 1 10 21.09 21.57 0.33 o
0 2 10 8.40 7.93 0.25 o
-2 3 10 7.28 7.13 0.22 o
-4 4 10 1.33 1.06 0.19 o
-1 4 10 2.71 2.69 0.19 o
-3 5 10 0.74 0.77 0.15 o
-5 6 10 0.11 0.01 0.13 <
-2 6 10 0.17 0.25 0.17 <
-4 7 10 0.04 0.08 0.23 <
0 1 11 3.97 4.14 0.17 o
-2 2 11 1.69 1.91 0.17 o
-1 3 11 1.40 1.52 0.14 o
-3 4 11 0.39 0.33 0.10 o
0 4 11 0.11 0.19 0.17 <
-5 5 11 0.04 -0.01 0.17 <
-2 5 11 0.11 -0.02 0.12 <
-4 6 11 0.02 0.04 0.14 <
-1 6 11 0.02 -0.39 0.34 <
0 0 12 4.18 3.59 0.27 o
-1 2 12 2.35 2.14 0.12 o
-3 3 12 0.93 0.77 0.15 o
0 3 12 0.81 0.83 0.16 o
-2 4 12 0.48 0.41 0.12 o
-4 5 12 0.10 0.15 0.12 <
-1 5 12 0.13 0.21 0.15 <
-3 6 12 0.04 -0.10 0.19 <
-1 1 13 0.56 0.52 0.13 o
0 2 13 0.38 0.38 0.14 <
-2 3 13 0.18 0.31 0.10 o
-4 4 13 0.04 -0.06 0.13 <
-1 4 13 0.05 0.06 0.11 <
-3 5 13 0.02 0.27 0.16 <
0 1 14 0.44 0.31 0.13 <
-2 2 14 0.29 0.16 0.14 <
-1 3 14 0.15 0.14 0.11 <
-3 4 14 0.06 0.11 0.12 <
0 0 15 0.08 0.13 0.24 <
-1 2 15 0.05 0.00 0.10 <
-1 1 16 0.04 0.04 0.15 <
loop_
_jana_atom_site_adp_c_label
_jana_atom_site_adp_c_type_symbol
_jana_atom_site_adp_c_111
_jana_atom_site_adp_c_112
_jana_atom_site_adp_c_113
_jana_atom_site_adp_c_122
_jana_atom_site_adp_c_123
_jana_atom_site_adp_c_133
_jana_atom_site_adp_c_222
_jana_atom_site_adp_c_223
_jana_atom_site_adp_c_233
_jana_atom_site_adp_c_333
O1 O -0.30(4) -0.42(5) -0.105(10) -0.42(5) -0.105(10) -0.038(3) 0 0 0 0
