#------------------------------------------------------------------------------
#$Date: 2023-12-06 15:08:03 +0200 (Wed, 06 Dec 2023) $
#$Revision: 288072 $
#$URL: file:///home/coder/svn-repositories/cod/cif/1/54/73/1547354.cif $
#------------------------------------------------------------------------------
#
# This file is available in the Crystallography Open Database (COD),
# http://www.crystallography.net/
#
# All data on this site have been placed in the public domain by the
# contributors.
#
data_1547354
loop_
_publ_author_name
'Nobuo Ishizawa'
'Hayato Setoguchi'
'Kazumichi Yanagisawa'
_publ_section_title
;
 Structural evolution of calcite at high temperatures: Phase V unveiled
;
_journal_name_full               'Scientific Reports'
_journal_page_first              2832
_journal_paper_doi               10.1038/srep02832
_journal_volume                  3
_journal_year                    2013
_chemical_absolute_configuration .
_chemical_formula_sum            'C Ca O'
_chemical_formula_weight         68.1
_space_group_IT_number           167
_symmetry_cell_setting           trigonal
_symmetry_Int_Tables_number      167
_symmetry_space_group_name_Hall  '-R 3 2"c'
_symmetry_space_group_name_H-M   'R -3 c :H'
_cell_angle_alpha                90
_cell_angle_beta                 90
_cell_angle_gamma                120
_cell_formula_units_Z            36
_cell_length_a                   4.9768
_cell_length_b                   4.9768
_cell_length_c                   17.3026(4)
_cell_measurement_temperature    787
_cell_volume                     371.144(9)
_diffrn_ambient_temperature      787
_diffrn_measured_fraction_theta_full 1
_diffrn_measured_fraction_theta_max 1
_diffrn_measurement_device       'four-cycle diffractometer'
_diffrn_measurement_device_type  'Bruker CCD'
_diffrn_radiation_monochromator  graphite
_diffrn_radiation_probe          x-ray
_diffrn_radiation_source         'X-ray tube'
_diffrn_radiation_type           'Mo K\a'
_diffrn_radiation_wavelength     0.71073
_diffrn_reflns_av_R_equivalents  0.0284
_diffrn_reflns_av_sigmaI/netI    0.0117
_diffrn_reflns_limit_h_max       5
_diffrn_reflns_limit_h_min       -6
_diffrn_reflns_limit_k_max       6
_diffrn_reflns_limit_k_min       -6
_diffrn_reflns_limit_l_max       19
_diffrn_reflns_limit_l_min       -24
_diffrn_reflns_number            1519
_diffrn_reflns_theta_full        29.65
_diffrn_reflns_theta_max         29.65
_diffrn_reflns_theta_min         5.29
_exptl_absorpt_coefficient_mu    12.939
_exptl_crystal_density_diffrn    10.9636
_exptl_crystal_F_000             300
_refine_diff_density_max         0.12
_refine_diff_density_min         -0.13
_refine_ls_extinction_coef       590(160)
_refine_ls_extinction_method
'B-C type 1 Gaussian isotropic (Becker & Coppens, 1974)'
_refine_ls_goodness_of_fit_gt    1.61
_refine_ls_goodness_of_fit_ref   1.60
_refine_ls_number_constraints    0
_refine_ls_number_parameters     15
_refine_ls_number_reflns         121
_refine_ls_number_restraints     0
_refine_ls_R_factor_all          0.0141
_refine_ls_R_factor_gt           0.0141
_refine_ls_shift/su_max          0.0080
_refine_ls_shift/su_mean         0.0014
_refine_ls_structure_factor_coef F
_refine_ls_weighting_details     w=1/(\s^2^(F)+0.0001F^2^)
_refine_ls_weighting_scheme      sigma
_refine_ls_wR_factor_gt          0.0197
_refine_ls_wR_factor_ref         0.0197
_reflns_number_gt                120
_reflns_number_total             121
_reflns_threshold_expression     I>3\s(I)
_cod_data_source_file            srep02832-s29.cif
_cod_data_source_block           787K_hs25_h500_I_anharm
_cod_depositor_comments
;
The following automatic conversions were performed:

'_diffrn_radiation_probe' value 'X-ray' changed to 'x-ray' according
to the built-in table from CIF Core dictionary named 'cif_core.dic'
version 2.4.1 from 2010-06-29.

Automatic conversion script
Id: cif_fix_values 5376 2017-05-30 11:51:03Z andrius 

The following automatic conversions were performed:

data name '_atom_site_site_symmetry_mutiplicity' was replaced with
'_atom_site_site_symmetry_multiplicity' as specified in the
replacement file 'data/replacement-values/replacement_tags.lst'.

Automatic conversion script
Id: cif_correct_tags 9268 2022-04-12 08:56:07Z antanas 
;
_cod_original_sg_symbol_Hall     '-R 3;-2"c'
_cod_original_sg_symbol_H-M      'R -3 c'
_cod_original_formula_sum        'C1 Ca1 O1'
_cod_database_code               1547354
loop_
_symmetry_equiv_pos_site_id
_symmetry_equiv_pos_as_xyz
1 x,y,z
2 -y,x-y,z
3 -x+y,-x,z
4 y,x,-z+1/2
5 x-y,-y,-z+1/2
6 -x,-x+y,-z+1/2
7 -x,-y,-z
8 y,-x+y,-z
9 x-y,x,-z
10 -y,-x,z+1/2
11 -x+y,y,z+1/2
12 x,x-y,z+1/2
13 x+2/3,y+1/3,z+1/3
14 -y+2/3,x-y+1/3,z+1/3
15 -x+y+2/3,-x+1/3,z+1/3
16 y+2/3,x+1/3,-z+5/6
17 x-y+2/3,-y+1/3,-z+5/6
18 -x+2/3,-x+y+1/3,-z+5/6
19 -x+2/3,-y+1/3,-z+1/3
20 y+2/3,-x+y+1/3,-z+1/3
21 x-y+2/3,x+1/3,-z+1/3
22 -y+2/3,-x+1/3,z+5/6
23 -x+y+2/3,y+1/3,z+5/6
24 x+2/3,x-y+1/3,z+5/6
25 x+1/3,y+2/3,z+2/3
26 -y+1/3,x-y+2/3,z+2/3
27 -x+y+1/3,-x+2/3,z+2/3
28 y+1/3,x+2/3,-z+1/6
29 x-y+1/3,-y+2/3,-z+1/6
30 -x+1/3,-x+y+2/3,-z+1/6
31 -x+1/3,-y+2/3,-z+2/3
32 y+1/3,-x+y+2/3,-z+2/3
33 x-y+1/3,x+2/3,-z+2/3
34 -y+1/3,-x+2/3,z+1/6
35 -x+y+1/3,y+2/3,z+1/6
36 x+1/3,x-y+2/3,z+1/6
loop_
_atom_site_label
_atom_site_type_symbol
_atom_site_fract_x
_atom_site_fract_y
_atom_site_fract_z
_atom_site_adp_type
_atom_site_U_iso_or_equiv
_atom_site_site_symmetry_multiplicity
_atom_site_occupancy
_atom_site_calc_flag
_atom_site_refinement_flags
_atom_site_disorder_assembly
_atom_site_disorder_group
Ca1 Ca 0 0 0 Uani 0.03098(19) 6 1 d . . .
C1 C 0 0 0.25 Uani 0.0264(5) 6 1 d . . .
O1 O 0.2514(3) 0 0.25 Uani 0.0531(4) 18 1 d . . .
loop_
_atom_site_aniso_label
_atom_site_aniso_type_symbol
_atom_site_aniso_U_11
_atom_site_aniso_U_22
_atom_site_aniso_U_33
_atom_site_aniso_U_12
_atom_site_aniso_U_13
_atom_site_aniso_U_23
Ca1 Ca 0.0317(2) 0.0317(2) 0.0296(3) 0.01584(12) 0 0
C1 C 0.0246(6) 0.0246(6) 0.0299(10) 0.0123(3) 0 0
O1 O 0.0368(3) 0.0709(7) 0.0631(6) 0.0354(3) -0.0140(2) -0.0281(4)
loop_
_atom_type_symbol
_atom_type_scat_dispersion_real
_atom_type_scat_dispersion_imag
_atom_type_scat_source
C 0.0033 0.0016 'International Tables Vol C tables 4.2.6.8 and 6.1.1.1'
Ca 0.2262 0.3064 'International Tables Vol C tables 4.2.6.8 and 6.1.1.1'
O 0.0106 0.0060 'International Tables Vol C tables 4.2.6.8 and 6.1.1.1'
loop_
_geom_bond_atom_site_label_1
_geom_bond_atom_site_label_2
_geom_bond_site_symmetry_1
_geom_bond_site_symmetry_2
_geom_bond_distance
Ca1 C1 . 25_444 3.21484(3)
Ca1 C1 . 25_544 3.21484(3)
Ca1 C1 . 25_554 3.21484(3)
Ca1 C1 . 19_445 3.21484(3)
Ca1 C1 . 19_455 3.21484(3)
Ca1 C1 . 19_555 3.21484(3)
Ca1 O1 . 25_444 2.3820(9)
Ca1 O1 . 25_554 3.4497(6)
Ca1 O1 . 26_444 3.4497(6)
Ca1 O1 . 26_544 2.3820(9)
Ca1 O1 . 27_544 3.4497(18)
Ca1 O1 . 27_554 2.3820(14)
Ca1 O1 . 19_445 3.4497(6)
Ca1 O1 . 19_555 2.3820(9)
Ca1 O1 . 20_455 2.3820(9)
Ca1 O1 . 20_555 3.4497(6)
Ca1 O1 . 21_445 2.3820(14)
Ca1 O1 . 21_455 3.4497(18)
C1 O1 . 1_455 3.7258(17)
C1 O1 . . 1.2510(17)
C1 O1 . 2_545 3.7258(17)
C1 O1 . 2_555 1.2510(17)
C1 O1 . 3_555 1.2510(12)
C1 O1 . 3_665 3.7258(12)
C1 O1 . 19_555 3.4513(6)
C1 O1 . 31_545 3.4513(6)
C1 O1 . 20_455 3.4513(6)
C1 O1 . 32_555 3.4513(6)
C1 O1 . 21_445 3.4513(10)
C1 O1 . 33_445 3.4513(10)
O1 O1 . 2_545 3.2841(16)
O1 O1 . 2_555 2.167(2)
O1 O1 . 2_655 3.2841(16)
O1 O1 . 3_555 2.167(2)
O1 O1 . 3_655 3.284(3)
O1 O1 . 3_665 3.2841(14)
O1 O1 . 19_555 3.22185(12)
O1 O1 . 31_545 3.22185(12)
O1 O1 . 20_555 3.4513(10)
O1 O1 . 32_555 3.4513(10)
O1 O1 . 21_445 3.4513(8)
O1 O1 . 33_545 3.4513(14)
loop_
_refln_index_h
_refln_index_k
_refln_index_l
_refln_F_squared_calc
_refln_F_squared_meas
_refln_F_squared_sigma
_refln_observed_status
-1 2 0 4416.27 4068.98 39.24 o
0 3 0 5048.41 4920.01 48.30 o
-2 4 0 1947.24 1919.08 21.26 o
-1 5 0 1121.58 1094.10 10.03 o
-3 6 0 332.72 333.35 4.96 o
0 6 0 134.08 141.52 6.67 o
-2 3 1 1089.41 1146.03 7.56 o
-1 4 1 6.55 6.86 0.22 o
-3 5 1 180.54 173.41 1.75 o
-5 6 1 22.46 22.94 0.75 o
-2 6 1 2.05 1.99 0.26 o
0 1 2 958.40 1050.01 11.91 o
-2 2 2 7224.76 7673.60 85.11 o
-1 3 2 3272.18 3250.34 22.11 o
-3 4 2 276.80 266.24 2.11 o
0 4 2 16.73 18.28 0.58 o
-5 5 2 234.70 222.19 3.41 o
-2 5 2 624.18 604.09 5.37 o
-4 6 2 283.42 285.81 3.17 o
-1 6 2 250.13 257.74 3.45 o
-1 2 3 2668.72 2909.18 20.28 o
-2 4 3 4.47 4.01 0.20 o
-4 5 3 14.64 14.55 0.41 o
-1 5 3 3.29 3.60 0.26 o
-3 6 3 9.31 10.21 0.43 o
-1 1 4 19771.90 19710.90 278.90 o
0 2 4 3645.70 3498.73 35.07 o
-2 3 4 2234.82 2273.42 15.19 o
-4 4 4 3162.50 3042.21 32.10 o
-1 4 4 2815.11 2766.87 21.96 o
-3 5 4 795.05 797.69 6.98 o
0 5 4 593.14 582.89 7.67 o
-5 6 4 191.32 189.32 3.04 o
-2 6 4 272.08 267.51 2.87 o
-1 3 5 843.21 846.44 6.49 o
-3 4 5 31.12 31.46 0.48 o
-2 5 5 104.68 101.17 1.27 o
-4 6 5 1.75 2.31 0.30 o
-1 6 5 17.75 18.97 0.73 o
0 0 6 963.20 1205.16 23.33 o
-1 2 6 5298.04 5220.87 39.03 o
-3 3 6 638.72 636.24 6.03 o
0 3 6 409.07 395.79 4.55 o
-2 4 6 943.10 921.17 7.51 o
-4 5 6 158.85 158.50 1.90 o
-1 5 6 223.29 222.84 2.26 o
-3 6 6 272.23 271.09 3.09 o
-2 3 7 449.61 468.61 3.36 o
-1 4 7 1.00 1.25 0.17 o
-3 5 7 139.93 140.60 1.64 o
-5 6 7 18.22 19.06 0.80 o
-2 6 7 1.55 1.55 0.28 o
0 1 8 10574.70 10636.70 118.36 o
-2 2 8 1611.22 1656.00 16.88 o
-1 3 8 1957.62 1980.76 16.54 o
-3 4 8 2051.88 2071.52 18.88 o
0 4 8 2040.32 2027.08 23.26 o
-5 5 8 421.14 425.78 7.20 o
-2 5 8 512.61 520.26 5.28 o
-4 6 8 282.72 289.94 4.25 o
-1 6 8 187.93 183.69 3.36 o
-1 2 9 764.12 792.64 5.89 o
-2 4 9 2.64 2.66 0.20 o
-4 5 9 13.81 13.58 0.50 o
-1 5 9 0.20 0.75 0.19 o
-3 6 9 5.80 5.07 0.43 o
-1 1 10 1034.50 980.11 10.46 o
0 2 10 1757.95 1760.48 19.85 o
-2 3 10 1554.21 1519.07 13.16 o
-4 4 10 19.98 19.44 0.67 o
-1 4 10 231.84 226.27 2.24 o
-3 5 10 294.71 289.77 3.41 o
0 5 10 117.25 120.72 2.29 o
-2 6 10 199.90 205.37 3.04 o
-1 3 11 250.31 243.05 2.48 o
-3 4 11 27.05 27.54 0.56 o
-2 5 11 29.14 29.89 0.65 o
-4 6 11 1.11 0.97 0.37 <
0 0 12 8869.96 8713.06 161.87 o
-1 2 12 1516.47 1512.46 11.98 o
-3 3 12 1454.70 1476.12 17.36 o
0 3 12 1853.94 1848.45 23.98 o
-2 4 12 763.11 773.26 7.30 o
-4 5 12 553.97 564.51 6.49 o
-1 5 12 435.64 438.82 4.33 o
-3 6 12 189.22 194.22 5.93 o
-2 3 13 79.85 78.35 1.08 o
-1 4 13 4.20 3.78 0.30 o
-3 5 13 54.63 55.14 1.23 o
0 1 14 491.69 472.27 5.84 o
-2 2 14 1315.54 1298.92 16.10 o
-1 3 14 568.32 556.19 5.75 o
-3 4 14 129.31 126.56 1.64 o
0 4 14 46.82 47.02 1.21 o
-2 5 14 243.71 246.09 2.95 o
-1 2 15 111.20 107.59 1.32 o
-2 4 15 1.02 0.95 0.20 o
-4 5 15 5.00 5.11 0.73 o
-1 5 15 1.58 1.51 0.39 o
-1 1 16 1632.33 1597.48 19.70 o
0 2 16 972.15 940.82 15.89 o
-2 3 16 543.34 540.20 5.76 o
-4 4 16 666.61 720.79 15.30 o
-1 4 16 563.25 553.56 6.06 o
-3 5 16 257.85 276.91 5.43 o
-1 3 17 43.02 42.55 0.86 o
-3 4 17 9.97 8.72 0.45 o
0 0 18 114.84 117.39 3.62 o
-1 2 18 463.21 454.71 4.92 o
-3 3 18 155.54 159.26 3.58 o
0 3 18 95.37 98.46 2.24 o
-2 4 18 182.95 186.67 2.55 o
-2 3 19 8.61 7.98 0.43 o
-1 4 19 2.17 2.65 0.45 o
0 1 20 739.05 725.38 9.93 o
-2 2 20 309.46 302.62 4.72 o
-1 3 20 345.48 342.04 4.33 o
-1 2 21 12.00 12.06 0.56 o
-1 1 22 152.81 158.87 2.80 o
0 2 22 126.48 134.24 3.11 o
0 0 24 373.75 377.53 9.94 o
loop_
_jana_atom_site_adp_c_label
_jana_atom_site_adp_c_type_symbol
_jana_atom_site_adp_c_111
_jana_atom_site_adp_c_112
_jana_atom_site_adp_c_113
_jana_atom_site_adp_c_122
_jana_atom_site_adp_c_123
_jana_atom_site_adp_c_133
_jana_atom_site_adp_c_222
_jana_atom_site_adp_c_223
_jana_atom_site_adp_c_233
_jana_atom_site_adp_c_333
O1 O -0.032(3) -0.022(3) 0.0035(5) -0.022(3) 0.0035(5) -0.00091(12) 0 0 0 0
