#------------------------------------------------------------------------------
#$Date: 2023-12-06 15:08:03 +0200 (Wed, 06 Dec 2023) $
#$Revision: 288072 $
#$URL: file:///home/coder/svn-repositories/cod/cif/1/54/73/1547381.cif $
#------------------------------------------------------------------------------
#
# This file is available in the Crystallography Open Database (COD),
# http://www.crystallography.net/
#
# All data on this site have been placed in the public domain by the
# contributors.
#
data_1547381
loop_
_publ_author_name
'Nobuo Ishizawa'
'Hayato Setoguchi'
'Kazumichi Yanagisawa'
_publ_section_title
;
 Structural evolution of calcite at high temperatures: Phase V unveiled
;
_journal_name_full               'Scientific Reports'
_journal_page_first              2832
_journal_paper_doi               10.1038/srep02832
_journal_volume                  3
_journal_year                    2013
_chemical_absolute_configuration .
_chemical_formula_sum            'C Ca O3'
_chemical_formula_weight         100.1
_space_group_IT_number           166
_symmetry_cell_setting           trigonal
_symmetry_Int_Tables_number      166
_symmetry_space_group_name_Hall  '-R 3 2"'
_symmetry_space_group_name_H-M   'R -3 m :H'
_cell_angle_alpha                90
_cell_angle_beta                 90
_cell_angle_gamma                120
_cell_formula_units_Z            3
_cell_length_a                   4.9699
_cell_length_b                   4.9699
_cell_length_c                   8.9166
_cell_measurement_temperature    1254
_cell_volume                     190.733
_diffrn_ambient_temperature      1254
_diffrn_measured_fraction_theta_full 0.98
_diffrn_measured_fraction_theta_max 0.95
_diffrn_measurement_device       'four-cycle diffractometer'
_diffrn_measurement_device_type  'Bruker CCD'
_diffrn_radiation_monochromator  graphite
_diffrn_radiation_probe          x-ray
_diffrn_radiation_source         'X-ray tube'
_diffrn_radiation_type           'Mo K\a'
_diffrn_radiation_wavelength     0.71073
_diffrn_reflns_av_R_equivalents  0.0257
_diffrn_reflns_av_sigmaI/netI    0.014
_diffrn_reflns_limit_h_max       6
_diffrn_reflns_limit_h_min       -7
_diffrn_reflns_limit_k_max       8
_diffrn_reflns_limit_k_min       -5
_diffrn_reflns_limit_l_max       13
_diffrn_reflns_limit_l_min       -16
_diffrn_reflns_number            912
_diffrn_reflns_theta_full        35.02
_diffrn_reflns_theta_max         40.02
_diffrn_reflns_theta_min         5.26
_exptl_absorpt_coefficient_mu    2.2
_exptl_crystal_density_diffrn    2.6133
_exptl_crystal_F_000             150
_refine_diff_density_max         0.11
_refine_diff_density_min         -0.11
_refine_ls_extinction_method     none
_refine_ls_goodness_of_fit_gt    1.91
_refine_ls_goodness_of_fit_ref   1.63
_refine_ls_number_constraints    0
_refine_ls_number_parameters     14
_refine_ls_number_reflns         161
_refine_ls_number_restraints     0
_refine_ls_R_factor_all          0.0345
_refine_ls_R_factor_gt           0.0240
_refine_ls_shift/su_max          0.0046
_refine_ls_shift/su_mean         0.0022
_refine_ls_structure_factor_coef F
_refine_ls_weighting_details     w=1/(\s^2^(F)+0.0001F^2^)
_refine_ls_weighting_scheme      sigma
_refine_ls_wR_factor_gt          0.0287
_refine_ls_wR_factor_ref         0.0312
_reflns_number_gt                105
_reflns_number_total             161
_reflns_threshold_expression     I>3\s(I)
_cod_data_source_file            srep02832-s4-Copie1.cif
_cod_data_source_block           hs29_h950_V-18g
_cod_depositor_comments
;
The following automatic conversions were performed:

'_diffrn_radiation_probe' value 'X-ray' changed to 'x-ray' according
to the built-in table from CIF Core dictionary named 'cif_core.dic'
version 2.4.1 from 2010-06-29.

Automatic conversion script
Id: cif_fix_values 5376 2017-05-30 11:51:03Z andrius 

The following automatic conversions were performed:

data name '_atom_site_site_symmetry_mutiplicity' was replaced with
'_atom_site_site_symmetry_multiplicity' as specified in the
replacement file 'data/replacement-values/replacement_tags.lst'.

Automatic conversion script
Id: cif_correct_tags 9268 2022-04-12 08:56:07Z antanas 
;
_cod_original_cell_volume        190.7327
_cod_original_sg_symbol_Hall     '-R 3;-2"'
_cod_original_sg_symbol_H-M      'R -3 m'
_cod_original_formula_sum        'C1 Ca1 O3'
_cod_database_code               1547381
loop_
_symmetry_equiv_pos_site_id
_symmetry_equiv_pos_as_xyz
1 x,y,z
2 -y,x-y,z
3 -x+y,-x,z
4 y,x,-z
5 x-y,-y,-z
6 -x,-x+y,-z
7 -x,-y,-z
8 y,-x+y,-z
9 x-y,x,-z
10 -y,-x,z
11 -x+y,y,z
12 x,x-y,z
13 x+2/3,y+1/3,z+1/3
14 -y+2/3,x-y+1/3,z+1/3
15 -x+y+2/3,-x+1/3,z+1/3
16 y+2/3,x+1/3,-z+1/3
17 x-y+2/3,-y+1/3,-z+1/3
18 -x+2/3,-x+y+1/3,-z+1/3
19 -x+2/3,-y+1/3,-z+1/3
20 y+2/3,-x+y+1/3,-z+1/3
21 x-y+2/3,x+1/3,-z+1/3
22 -y+2/3,-x+1/3,z+1/3
23 -x+y+2/3,y+1/3,z+1/3
24 x+2/3,x-y+1/3,z+1/3
25 x+1/3,y+2/3,z+2/3
26 -y+1/3,x-y+2/3,z+2/3
27 -x+y+1/3,-x+2/3,z+2/3
28 y+1/3,x+2/3,-z+2/3
29 x-y+1/3,-y+2/3,-z+2/3
30 -x+1/3,-x+y+2/3,-z+2/3
31 -x+1/3,-y+2/3,-z+2/3
32 y+1/3,-x+y+2/3,-z+2/3
33 x-y+1/3,x+2/3,-z+2/3
34 -y+1/3,-x+2/3,z+2/3
35 -x+y+1/3,y+2/3,z+2/3
36 x+1/3,x-y+2/3,z+2/3
loop_
_atom_site_label
_atom_site_type_symbol
_atom_site_fract_x
_atom_site_fract_y
_atom_site_fract_z
_atom_site_adp_type
_atom_site_U_iso_or_equiv
_atom_site_site_symmetry_multiplicity
_atom_site_occupancy
_atom_site_calc_flag
_atom_site_refinement_flags
_atom_site_disorder_assembly
_atom_site_disorder_group
Ca1 Ca 0 0 0 Uani 0.0729(3) 3 1 d . . .
C1 C 0 0 0.5 Uani 0.0631(7) 3 1 d . . .
O1 O 0.2370(14) 0 0.5 Uani 0.163(4) 18 0.5 d . . .
loop_
_atom_site_aniso_label
_atom_site_aniso_type_symbol
_atom_site_aniso_U_11
_atom_site_aniso_U_22
_atom_site_aniso_U_33
_atom_site_aniso_U_12
_atom_site_aniso_U_13
_atom_site_aniso_U_23
Ca1 Ca 0.0751(3) 0.0751(3) 0.0686(4) 0.03754(17) 0 0
C1 C 0.0594(8) 0.0594(8) 0.0705(13) 0.0297(4) 0 0
O1 O 0.116(2) 0.279(8) 0.147(2) 0.140(4) 0.0472(16) 0.094(3)
loop_
_atom_type_symbol
_atom_type_scat_dispersion_real
_atom_type_scat_dispersion_imag
_atom_type_scat_source
C 0.0033 0.0016 'International Tables Vol C tables 4.2.6.8 and 6.1.1.1'
Ca 0.2262 0.3064 'International Tables Vol C tables 4.2.6.8 and 6.1.1.1'
O 0.0106 0.0060 'International Tables Vol C tables 4.2.6.8 and 6.1.1.1'
loop_
_geom_bond_atom_site_label_1
_geom_bond_atom_site_label_2
_geom_bond_site_symmetry_1
_geom_bond_site_symmetry_2
_geom_bond_distance
Ca1 Ca1 . 13_445 4.1313
Ca1 Ca1 . 13_455 4.1313
Ca1 Ca1 . 13_555 4.1313
Ca1 Ca1 . 25_444 4.1313
Ca1 Ca1 . 25_544 4.1313
Ca1 Ca1 . 25_554 4.1313
Ca1 C1 . 13_444 3.2314
Ca1 C1 . 13_454 3.2314
Ca1 C1 . 13_554 3.2314
Ca1 C1 . 25_444 3.2314
Ca1 C1 . 25_544 3.2314
Ca1 C1 . 25_554 3.2314
Ca1 O1 . 13_454 2.445(4)
Ca1 O1 . 25_444 2.445(4)
Ca1 O1 . 14_444 2.445(4)
Ca1 O1 . 26_544 2.445(4)
Ca1 O1 . 15_554 2.445(5)
Ca1 O1 . 27_554 2.445(5)
Ca1 O1 . 19_555 2.445(4)
Ca1 O1 . 31_545 2.445(4)
Ca1 O1 . 20_455 2.445(4)
Ca1 O1 . 32_555 2.445(4)
Ca1 O1 . 21_445 2.445(5)
Ca1 O1 . 33_445 2.445(5)
C1 O1 . . 1.178(7)
C1 O1 . 2_555 1.178(7)
C1 O1 . 3_555 1.178(5)
C1 O1 . 7_556 1.178(7)
C1 O1 . 8_556 1.178(7)
C1 O1 . 9_556 1.178(5)
O1 O1 . 8_556 1.178(5)
O1 O1 . 9_556 1.178(8)
loop_
_refln_index_h
_refln_index_k
_refln_index_l
_refln_F_squared_calc
_refln_F_squared_meas
_refln_F_squared_sigma
_refln_observed_status
-1 2 0 850.39 809.30 9.98 o
0 3 0 415.18 398.84 4.96 o
-2 4 0 279.02 282.75 3.06 o
-1 5 0 38.53 39.54 0.39 o
-3 6 0 7.37 8.03 0.32 o
0 6 0 1.94 1.58 0.23 o
-2 7 0 1.44 1.28 0.13 o
-4 8 0 0.50 0.55 0.16 o
-1 8 0 0.11 0.11 0.20 <
-1 1 1 203.36 210.93 3.02 o
0 2 1 1407.20 1364.09 16.38 o
-2 3 1 363.85 378.00 3.24 o
-4 4 1 10.86 10.65 0.22 o
-1 4 1 18.01 19.45 0.23 o
-3 5 1 10.53 9.41 0.15 o
0 5 1 6.17 6.11 0.26 o
-5 6 1 2.47 2.82 0.15 o
-2 6 1 4.87 5.26 0.19 o
-7 7 1 0.03 -0.29 0.22 <
-4 7 1 0.83 0.27 0.09 <
-1 7 1 0.12 0.00 0.13 <
-6 8 1 0.01 -0.02 0.14 <
-3 8 1 0.01 0.03 0.11 <
0 1 2 4056.26 3745.16 45.70 o
-2 2 2 658.12 710.19 10.08 o
-1 3 2 279.12 281.77 2.23 o
-3 4 2 193.34 201.57 1.56 o
0 4 2 129.40 132.67 1.77 o
-5 5 2 11.84 10.12 0.32 o
-2 5 2 55.76 52.49 0.50 o
-4 6 2 5.76 6.07 0.22 o
-1 6 2 3.25 3.10 0.19 o
-6 7 2 0.79 1.16 0.19 o
-3 7 2 1.16 1.40 0.14 o
-5 8 2 0.39 0.35 0.12 <
-2 8 2 0.23 0.25 0.13 <
0 0 3 113.16 118.08 2.72 o
-1 2 3 803.75 824.19 6.87 o
-3 3 3 56.35 55.75 0.81 o
0 3 3 114.44 114.92 1.53 o
-2 4 3 28.83 27.57 0.29 o
-4 5 3 8.35 8.29 0.17 o
-1 5 3 3.86 4.16 0.14 o
-6 6 3 0.51 0.32 0.18 <
-3 6 3 4.34 3.92 0.19 o
0 6 3 0.85 1.05 0.21 o
-5 7 3 0.17 0.03 0.09 <
-2 7 3 0.41 0.13 0.11 <
-7 8 3 0.00 -0.03 0.26 <
-4 8 3 0.01 0.11 0.11 <
-1 1 4 1785.40 1806.09 20.27 o
0 2 4 157.99 174.38 2.35 o
-2 3 4 247.44 255.03 2.04 o
-4 4 4 56.52 52.57 0.67 o
-1 4 4 117.95 120.58 1.08 o
-3 5 4 24.59 25.92 0.32 o
0 5 4 8.93 9.28 0.32 o
-5 6 4 2.75 2.78 0.16 o
-2 6 4 3.75 3.58 0.19 o
-7 7 4 0.18 0.64 0.30 <
-4 7 4 1.18 1.12 0.14 o
-1 7 4 0.39 0.45 0.15 <
-6 8 4 0.13 0.19 0.13 <
-3 8 4 0.23 0.23 0.13 <
0 1 5 207.88 210.68 2.49 o
-2 2 5 139.81 136.48 1.69 o
-1 3 5 122.59 124.30 1.12 o
-3 4 5 13.24 12.38 0.18 o
0 4 5 1.90 1.64 0.13 o
-5 5 5 2.19 2.65 0.16 o
-2 5 5 4.48 4.93 0.15 o
-4 6 5 1.61 1.69 0.13 o
-1 6 5 1.16 1.45 0.19 o
-6 7 5 0.05 0.04 0.10 <
-3 7 5 0.26 0.08 0.10 <
-5 8 5 0.00 -0.04 0.11 <
-2 8 5 0.00 0.02 0.15 <
0 0 6 926.39 853.26 27.04 o
-1 2 6 175.98 176.68 1.76 o
-3 3 6 94.46 94.83 1.30 o
0 3 6 64.24 67.89 0.86 o
-2 4 6 44.23 45.17 0.48 o
-4 5 6 7.54 7.12 0.19 o
-1 5 6 11.19 10.52 0.30 o
-6 6 6 0.65 0.54 0.13 o
-3 6 6 2.20 2.40 0.15 o
-5 7 6 0.47 0.41 0.11 o
-2 7 6 0.30 0.36 0.13 <
-4 8 6 0.14 0.13 0.11 <
-1 1 7 57.94 54.47 0.84 o
0 2 7 96.91 94.41 1.45 o
-2 3 7 22.87 21.98 0.32 o
-4 4 7 3.19 3.53 0.19 o
-1 4 7 4.14 4.24 0.16 o
-3 5 7 3.10 2.98 0.13 o
-5 6 7 0.27 0.19 0.08 <
-2 6 7 0.63 0.78 0.14 o
-4 7 7 0.05 -0.06 0.10 <
-1 7 7 0.04 -0.07 0.21 <
-3 8 7 0.00 0.02 0.15 <
0 1 8 100.47 98.01 1.16 o
-2 2 8 64.03 66.01 1.10 o
-1 3 8 25.48 24.00 0.30 o
-3 4 8 12.05 11.80 0.23 o
0 4 8 10.85 12.09 0.38 o
-5 5 8 1.44 0.91 0.14 o
-2 5 8 3.88 4.02 0.23 o
-4 6 8 0.76 0.62 0.11 o
-1 6 8 0.37 0.21 0.14 <
-6 7 8 0.08 -0.01 0.15 <
-3 7 8 0.22 0.30 0.14 <
0 0 9 16.73 17.61 0.51 o
-1 2 9 17.45 16.86 0.22 o
-3 3 9 3.13 3.25 0.19 o
0 3 9 4.31 5.06 0.20 o
-2 4 9 2.78 3.37 0.14 o
-4 5 9 0.53 0.45 0.08 o
-1 5 9 0.34 0.29 0.11 <
-6 6 9 0.03 0.20 0.14 <
-3 6 9 0.20 0.26 0.12 <
-5 7 9 0.01 0.02 0.12 <
-2 7 9 0.02 0.23 0.17 <
-1 1 10 24.58 24.62 0.36 o
0 2 10 9.76 10.16 0.22 o
-2 3 10 8.09 8.31 0.19 o
-4 4 10 1.88 1.81 0.18 o
-1 4 10 3.37 3.41 0.18 o
-3 5 10 0.87 1.02 0.11 o
-5 6 10 0.14 0.16 0.09 <
-2 6 10 0.20 0.19 0.13 <
-4 7 10 0.06 0.15 0.19 <
0 1 11 4.63 4.54 0.17 o
-2 2 11 2.14 1.90 0.14 o
-1 3 11 1.68 1.92 0.13 o
-3 4 11 0.47 0.32 0.08 o
0 4 11 0.14 0.26 0.16 <
-5 5 11 0.05 0.05 0.12 <
-2 5 11 0.18 0.21 0.10 <
-4 6 11 0.03 0.10 0.11 <
-1 6 11 0.03 -0.24 0.22 <
0 0 12 5.21 4.70 0.27 o
-1 2 12 2.76 2.68 0.11 o
-3 3 12 1.19 1.15 0.13 o
0 3 12 1.16 1.20 0.15 o
-2 4 12 0.59 0.49 0.10 o
-4 5 12 0.14 -0.07 0.08 <
-1 5 12 0.15 0.02 0.12 <
-3 6 12 0.05 0.40 0.18 <
-1 1 13 0.70 0.78 0.12 o
0 2 13 0.49 0.48 0.13 o
-2 3 13 0.24 0.11 0.07 <
-4 4 13 0.04 -0.14 0.10 <
-1 4 13 0.07 0.21 0.09 <
-3 5 13 0.03 0.01 0.12 <
0 1 14 0.57 0.60 0.12 o
-2 2 14 0.37 0.36 0.13 <
-1 3 14 0.20 0.20 0.09 <
-3 4 14 0.08 0.00 0.09 <
0 0 15 0.11 -0.16 0.18 <
-1 2 15 0.07 -0.01 0.08 <
-1 1 16 0.06 0.09 0.13 <
loop_
_jana_atom_site_adp_c_label
_jana_atom_site_adp_c_type_symbol
_jana_atom_site_adp_c_111
_jana_atom_site_adp_c_112
_jana_atom_site_adp_c_113
_jana_atom_site_adp_c_122
_jana_atom_site_adp_c_123
_jana_atom_site_adp_c_133
_jana_atom_site_adp_c_222
_jana_atom_site_adp_c_223
_jana_atom_site_adp_c_233
_jana_atom_site_adp_c_333
O1 O -0.24(3) -0.35(3) -0.087(8) -0.35(3) -0.087(8) -0.031(3) 0 0 0 0
