#------------------------------------------------------------------------------
#$Date: 2023-12-06 15:08:03 +0200 (Wed, 06 Dec 2023) $
#$Revision: 288072 $
#$URL: file:///home/coder/svn-repositories/cod/cif/1/54/73/1547377.cif $
#------------------------------------------------------------------------------
#
# This file is available in the Crystallography Open Database (COD),
# http://www.crystallography.net/
#
# All data on this site have been placed in the public domain by the
# contributors.
#
data_1547377
loop_
_publ_author_name
'Nobuo Ishizawa'
'Hayato Setoguchi'
'Kazumichi Yanagisawa'
_publ_section_title
;
 Structural evolution of calcite at high temperatures: Phase V unveiled
;
_journal_name_full               'Scientific Reports'
_journal_page_first              2832
_journal_paper_doi               10.1038/srep02832
_journal_volume                  3
_journal_year                    2013
_chemical_absolute_configuration .
_chemical_formula_sum            'C Ca O3'
_chemical_formula_weight         100.1
_space_group_IT_number           167
_symmetry_cell_setting           trigonal
_symmetry_Int_Tables_number      167
_symmetry_space_group_name_Hall  '-R 3 2"c'
_symmetry_space_group_name_H-M   'R -3 c :H'
_cell_angle_alpha                90
_cell_angle_beta                 90
_cell_angle_gamma                120
_cell_formula_units_Z            6
_cell_length_a                   4.9738
_cell_length_b                   4.9738
_cell_length_c                   17.5798(3)
_cell_measurement_temperature    1120
_cell_volume                     376.635(6)
_diffrn_ambient_temperature      1120
_diffrn_measured_fraction_theta_full 0.99
_diffrn_measured_fraction_theta_max 0.99
_diffrn_measurement_device       'four-cycle diffractometer'
_diffrn_measurement_device_type  'Bruker CCD'
_diffrn_radiation_monochromator  graphite
_diffrn_radiation_probe          x-ray
_diffrn_radiation_source         'X-ray tube'
_diffrn_radiation_type           'Mo K\a'
_diffrn_radiation_wavelength     0.71073
_diffrn_reflns_av_R_equivalents  0.0234
_diffrn_reflns_av_sigmaI/netI    0.011
_diffrn_reflns_limit_h_max       5
_diffrn_reflns_limit_h_min       -7
_diffrn_reflns_limit_k_max       8
_diffrn_reflns_limit_k_min       -4
_diffrn_reflns_limit_l_max       28
_diffrn_reflns_limit_l_min       -24
_diffrn_reflns_number            1348
_diffrn_reflns_theta_full        35.01
_diffrn_reflns_theta_max         35.01
_diffrn_reflns_theta_min         5.27
_exptl_absorpt_coefficient_mu    2.229
_exptl_crystal_density_diffrn    2.6468
_exptl_crystal_F_000             300
_refine_diff_density_max         0.17
_refine_diff_density_min         -0.18
_refine_ls_extinction_method     none
_refine_ls_goodness_of_fit_gt    1.89
_refine_ls_goodness_of_fit_ref   1.76
_refine_ls_number_constraints    9
_refine_ls_number_parameters     15
_refine_ls_number_reflns         189
_refine_ls_number_restraints     0
_refine_ls_R_factor_all          0.0271
_refine_ls_R_factor_gt           0.0225
_refine_ls_shift/su_max          0.0008
_refine_ls_shift/su_mean         0.0003
_refine_ls_structure_factor_coef F
_refine_ls_weighting_details     w=1/(\s^2^(F)+0.0001F^2^)
_refine_ls_weighting_scheme      sigma
_refine_ls_wR_factor_gt          0.0275
_refine_ls_wR_factor_ref         0.0287
_reflns_number_gt                153
_reflns_number_total             189
_reflns_threshold_expression     I>3\s(I)
_cod_data_source_file            srep02832-s3-Copie6.cif
_cod_data_source_block           1120K_hs30_h820_IV_anharm
_cod_depositor_comments
;
The following automatic conversions were performed:

'_diffrn_radiation_probe' value 'X-ray' changed to 'x-ray' according
to the built-in table from CIF Core dictionary named 'cif_core.dic'
version 2.4.1 from 2010-06-29.

Automatic conversion script
Id: cif_fix_values 5376 2017-05-30 11:51:03Z andrius 

The following automatic conversions were performed:

data name '_atom_site_site_symmetry_mutiplicity' was replaced with
'_atom_site_site_symmetry_multiplicity' as specified in the
replacement file 'data/replacement-values/replacement_tags.lst'.

Automatic conversion script
Id: cif_correct_tags 9268 2022-04-12 08:56:07Z antanas 
;
_cod_original_sg_symbol_Hall     '-R 3;-2"c'
_cod_original_sg_symbol_H-M      'R -3 c'
_cod_original_formula_sum        'C1 Ca1 O3'
_cod_database_code               1547377
loop_
_symmetry_equiv_pos_site_id
_symmetry_equiv_pos_as_xyz
1 x,y,z
2 -y,x-y,z
3 -x+y,-x,z
4 y,x,-z+1/2
5 x-y,-y,-z+1/2
6 -x,-x+y,-z+1/2
7 -x,-y,-z
8 y,-x+y,-z
9 x-y,x,-z
10 -y,-x,z+1/2
11 -x+y,y,z+1/2
12 x,x-y,z+1/2
13 x+2/3,y+1/3,z+1/3
14 -y+2/3,x-y+1/3,z+1/3
15 -x+y+2/3,-x+1/3,z+1/3
16 y+2/3,x+1/3,-z+5/6
17 x-y+2/3,-y+1/3,-z+5/6
18 -x+2/3,-x+y+1/3,-z+5/6
19 -x+2/3,-y+1/3,-z+1/3
20 y+2/3,-x+y+1/3,-z+1/3
21 x-y+2/3,x+1/3,-z+1/3
22 -y+2/3,-x+1/3,z+5/6
23 -x+y+2/3,y+1/3,z+5/6
24 x+2/3,x-y+1/3,z+5/6
25 x+1/3,y+2/3,z+2/3
26 -y+1/3,x-y+2/3,z+2/3
27 -x+y+1/3,-x+2/3,z+2/3
28 y+1/3,x+2/3,-z+1/6
29 x-y+1/3,-y+2/3,-z+1/6
30 -x+1/3,-x+y+2/3,-z+1/6
31 -x+1/3,-y+2/3,-z+2/3
32 y+1/3,-x+y+2/3,-z+2/3
33 x-y+1/3,x+2/3,-z+2/3
34 -y+1/3,-x+2/3,z+1/6
35 -x+y+1/3,y+2/3,z+1/6
36 x+1/3,x-y+2/3,z+1/6
loop_
_atom_site_label
_atom_site_type_symbol
_atom_site_fract_x
_atom_site_fract_y
_atom_site_fract_z
_atom_site_adp_type
_atom_site_U_iso_or_equiv
_atom_site_site_symmetry_multiplicity
_atom_site_occupancy
_atom_site_calc_flag
_atom_site_refinement_flags
_atom_site_disorder_assembly
_atom_site_disorder_group
Ca1 Ca 0 0 0 Uani 0.05298(19) 6 1 d . . .
C1 C 0 0 0.25 Uani 0.0444(5) 6 1 d . . .
O1 O 0.2468(6) 0 0.25 Uani 0.0987(11) 18 0.967(4) d . . .
O2 O -0.2468(6) 0 0.25 Uani 0.0987(11) 18 0.033(4) d . . .
loop_
_atom_site_aniso_label
_atom_site_aniso_type_symbol
_atom_site_aniso_U_11
_atom_site_aniso_U_22
_atom_site_aniso_U_33
_atom_site_aniso_U_12
_atom_site_aniso_U_13
_atom_site_aniso_U_23
Ca1 Ca 0.0542(2) 0.0542(2) 0.0505(3) 0.02712(12) 0 0
C1 C 0.0411(6) 0.0411(6) 0.0511(10) 0.0205(3) 0 0
O1 O 0.0680(6) 0.1428(19) 0.1103(11) 0.0714(9) -0.0278(6) -0.0557(12)
O2 O 0.0680(6) 0.1428(19) 0.1103(11) 0.0714(9) -0.0278(6) -0.0557(12)
loop_
_atom_type_symbol
_atom_type_scat_dispersion_real
_atom_type_scat_dispersion_imag
_atom_type_scat_source
C 0.0033 0.0016 'International Tables Vol C tables 4.2.6.8 and 6.1.1.1'
Ca 0.2262 0.3064 'International Tables Vol C tables 4.2.6.8 and 6.1.1.1'
O 0.0106 0.0060 'International Tables Vol C tables 4.2.6.8 and 6.1.1.1'
loop_
_geom_bond_atom_site_label_1
_geom_bond_atom_site_label_2
_geom_bond_site_symmetry_1
_geom_bond_site_symmetry_2
_geom_bond_distance
Ca1 Ca1 . 16_444 4.10255(7)
Ca1 Ca1 . 16_454 4.10255(7)
Ca1 Ca1 . 16_554 4.10255(7)
Ca1 Ca1 . 28_445 4.10255(7)
Ca1 Ca1 . 28_545 4.10255(7)
Ca1 Ca1 . 28_555 4.10255(7)
Ca1 C1 . 25_444 3.22373(2)
Ca1 C1 . 25_544 3.22373(2)
Ca1 C1 . 25_554 3.22373(2)
Ca1 C1 . 19_445 3.22373(2)
Ca1 C1 . 19_455 3.22373(2)
Ca1 C1 . 19_555 3.22373(2)
Ca1 O1 . 25_444 2.4069(16)
Ca1 O1 . 26_544 2.4069(16)
Ca1 O1 . 27_554 2.407(3)
Ca1 O1 . 19_555 2.4069(16)
Ca1 O1 . 20_455 2.4069(16)
Ca1 O1 . 21_445 2.407(3)
Ca1 O2 . 25_544 2.4069(16)
Ca1 O2 . 26_554 2.4069(16)
Ca1 O2 . 27_444 2.407(3)
Ca1 O2 . 19_455 2.4069(16)
Ca1 O2 . 20_445 2.4069(16)
Ca1 O2 . 21_555 2.407(3)
C1 O1 . . 1.228(3)
C1 O1 . 2_555 1.228(3)
C1 O1 . 3_555 1.228(2)
C1 O2 . . 1.228(3)
C1 O2 . 2_555 1.228(3)
C1 O2 . 3_555 1.228(2)
O1 O2 . 2_555 1.228(2)
O1 O2 . 3_555 1.228(4)
loop_
_refln_index_h
_refln_index_k
_refln_index_l
_refln_F_squared_calc
_refln_F_squared_meas
_refln_F_squared_sigma
_refln_observed_status
-1 2 0 3886.50 3667.23 33.61 o
0 3 0 2851.84 2857.76 29.70 o
-2 4 0 1503.96 1548.18 16.35 o
-1 5 0 406.83 401.98 3.77 o
-3 6 0 90.15 96.68 1.87 o
0 6 0 29.76 28.80 1.09 o
-2 7 0 33.83 32.76 1.30 o
-4 8 0 20.31 17.58 1.96 o
-2 3 1 533.27 572.98 3.79 o
-1 4 1 2.71 2.84 0.19 o
-3 5 1 53.63 52.09 0.78 o
-5 6 1 1.58 1.61 0.29 o
-2 6 1 0.14 0.00 0.19 <
-4 7 1 3.38 3.76 0.38 o
-1 7 1 0.19 0.03 0.55 <
0 1 2 854.87 897.98 7.32 o
-2 2 2 6431.33 6715.04 58.88 o
-1 3 2 2130.56 2182.48 14.27 o
-3 4 2 127.43 131.10 1.26 o
0 4 2 33.15 33.09 0.81 o
-5 5 2 72.41 67.46 1.49 o
-2 5 2 169.61 158.05 1.66 o
-4 6 2 73.51 69.32 1.09 o
-1 6 2 48.16 52.43 0.97 o
-6 7 2 4.53 4.81 0.87 o
-3 7 2 8.86 8.38 0.54 o
-1 2 3 1449.10 1598.81 9.35 o
-2 4 3 0.71 0.47 0.14 o
-4 5 3 8.83 9.42 0.40 o
-1 5 3 2.89 2.36 0.26 o
-3 6 3 0.67 0.57 0.23 <
-5 7 3 2.64 2.23 0.78 <
-2 7 3 1.35 0.83 0.61 <
-1 1 4 17710.90 15893.00 158.77 o
0 2 4 3144.66 3032.76 23.62 o
-2 3 4 1565.42 1610.71 9.73 o
-4 4 4 1296.64 1298.49 14.48 o
-1 4 4 1451.46 1445.37 9.59 o
-3 5 4 403.03 407.53 3.79 o
0 5 4 160.64 153.80 2.56 o
-5 6 4 44.26 41.72 0.95 o
-2 6 4 75.04 70.93 1.16 o
-4 7 4 42.37 43.43 1.18 o
-1 7 4 19.82 15.78 1.25 o
-1 3 5 384.53 389.14 2.65 o
-3 4 5 15.05 15.86 0.35 o
-2 5 5 26.17 23.34 0.48 o
-4 6 5 0.15 0.00 0.21 <
-1 6 5 1.03 1.25 0.31 o
-6 7 5 0.29 0.36 0.61 <
-3 7 5 1.67 1.49 0.43 o
0 0 6 624.93 809.82 13.37 o
-1 2 6 4034.95 4035.11 26.13 o
-3 3 6 523.88 542.63 5.51 o
0 3 6 299.40 295.33 3.17 o
-2 4 6 331.34 310.31 2.67 o
-4 5 6 47.37 46.96 0.92 o
-1 5 6 80.73 77.40 1.09 o
-6 6 6 26.08 28.36 1.68 o
-3 6 6 65.31 62.86 1.09 o
0 6 6 13.92 12.99 1.00 o
-5 7 6 6.86 4.99 1.25 o
-2 7 6 5.55 2.25 0.92 <
-2 3 7 173.18 171.09 1.30 o
-1 4 7 0.60 0.95 0.16 o
-3 5 7 36.50 38.60 0.76 o
-5 6 7 1.51 1.59 0.33 o
-2 6 7 0.15 0.69 0.28 <
-4 7 7 2.30 2.82 0.61 o
-1 7 7 0.05 -0.14 0.59 <
0 1 8 8624.56 8429.01 86.08 o
-2 2 8 969.40 968.67 10.94 o
-1 3 8 1369.95 1405.96 8.95 o
-3 4 8 969.61 984.58 8.21 o
0 4 8 655.62 666.58 9.20 o
-5 5 8 111.48 118.76 2.46 o
-2 5 8 218.25 223.59 2.08 o
-4 6 8 61.29 61.92 1.26 o
-1 6 8 43.97 42.86 1.00 o
-6 7 8 11.57 12.38 1.25 o
-3 7 8 31.11 31.93 1.68 o
-1 2 9 321.46 308.67 2.23 o
-2 4 9 0.84 0.78 0.16 o
-4 5 9 5.45 5.11 0.38 o
-1 5 9 0.01 0.03 0.21 <
-3 6 9 0.24 0.10 0.28 <
-5 7 9 1.89 3.08 1.02 o
-2 7 9 0.24 1.92 0.94 <
-1 1 10 935.36 912.77 8.49 o
0 2 10 904.02 926.38 8.99 o
-2 3 10 847.04 847.02 5.63 o
-4 4 10 9.70 12.05 0.68 o
-1 4 10 108.26 102.31 1.21 o
-3 5 10 68.70 66.41 1.13 o
0 5 10 29.69 32.80 1.18 o
-5 6 10 27.47 30.01 0.87 o
-2 6 10 32.33 34.32 0.94 o
-4 7 10 3.38 2.74 0.78 o
-1 3 11 79.66 75.45 0.81 o
-3 4 11 10.92 11.32 0.42 o
-2 5 11 4.52 3.81 0.33 o
-4 6 11 0.21 0.26 0.29 <
-1 6 11 0.38 0.61 0.42 <
-3 7 11 0.22 0.02 0.62 <
0 0 12 5371.63 5497.69 105.61 o
-1 2 12 1019.71 1023.80 6.68 o
-3 3 12 597.77 602.75 6.82 o
0 3 12 808.41 820.54 9.56 o
-2 4 12 343.91 358.11 3.01 o
-4 5 12 147.04 152.61 2.18 o
-1 5 12 106.84 106.57 1.59 o
-6 6 12 6.93 6.10 1.40 o
-3 6 12 40.23 40.69 1.04 o
0 6 12 16.56 13.09 1.82 o
-5 7 12 11.53 13.68 1.94 o
-2 3 13 16.28 15.79 0.38 o
-1 4 13 1.33 1.44 0.24 o
-3 5 13 9.29 9.32 0.43 o
-5 6 13 0.83 2.37 0.76 o
-2 6 13 0.05 0.36 0.33 <
-4 7 13 0.59 0.73 0.69 <
0 1 14 325.46 316.34 3.29 o
-2 2 14 666.23 669.51 6.86 o
-1 3 14 213.08 202.12 1.82 o
-3 4 14 41.91 42.48 0.85 o
0 4 14 25.19 26.60 1.19 o
-5 5 14 16.97 20.57 1.23 o
-2 5 14 50.31 51.34 1.02 o
-4 6 14 11.13 12.88 0.88 o
-1 6 14 7.48 9.09 1.16 o
-1 2 15 26.32 23.67 0.43 o
-2 4 15 0.37 0.55 0.24 <
-4 5 15 0.90 0.62 0.36 <
-1 5 15 0.15 0.26 0.33 <
-3 6 15 0.06 0.21 0.48 <
-1 1 16 752.74 721.37 7.26 o
0 2 16 489.77 484.31 5.32 o
-2 3 16 220.25 219.75 2.16 o
-4 4 16 155.23 160.59 3.46 o
-1 4 16 148.40 153.87 1.99 o
-3 5 16 61.05 65.37 1.40 o
0 5 16 31.54 27.90 2.39 o
-5 6 16 8.62 6.98 1.07 o
-2 6 16 15.45 15.60 1.09 o
-1 3 17 7.00 6.86 0.35 o
-3 4 17 2.36 2.13 0.35 o
-2 5 17 0.34 0.48 0.35 <
-4 6 17 0.12 0.55 0.92 <
-1 6 17 0.08 0.73 0.73 <
0 0 18 100.66 96.80 2.65 o
-1 2 18 158.79 154.86 1.51 o
-3 3 18 47.26 48.02 1.14 o
0 3 18 31.15 28.55 1.02 o
-2 4 18 41.68 43.07 0.97 o
-4 5 18 6.49 5.42 0.94 o
-1 5 18 10.55 11.65 0.95 o
-3 6 18 4.97 6.27 1.00 o
-2 3 19 0.55 0.69 0.24 <
-1 4 19 0.35 0.95 0.35 <
-3 5 19 1.01 0.88 0.61 <
0 1 20 241.36 229.53 2.96 o
-2 2 20 104.43 101.56 1.66 o
-1 3 20 96.64 96.05 1.35 o
-3 4 20 55.03 58.72 1.47 o
0 4 20 39.15 42.89 1.94 o
-2 5 20 16.61 16.17 1.07 o
-1 2 21 1.10 0.69 0.21 o
-2 4 21 0.06 0.42 0.38 <
-4 5 21 0.04 1.02 0.73 <
-1 5 21 0.06 0.19 0.54 <
-1 1 22 48.23 51.67 1.16 o
0 2 22 27.76 26.46 0.85 o
-2 3 22 25.90 27.34 0.71 o
-4 4 22 2.99 3.48 1.28 <
-1 4 22 8.78 10.58 1.07 o
-3 5 22 4.10 4.92 1.33 o
-1 3 23 0.31 0.19 0.28 <
-3 4 23 0.19 -0.12 0.47 <
0 0 24 72.60 75.62 2.61 o
-1 2 24 40.96 40.26 0.78 o
-3 3 24 22.04 21.35 1.11 o
0 3 24 24.36 25.97 1.45 o
-2 4 24 12.73 11.60 0.94 o
-2 3 25 0.00 0.12 0.35 <
0 1 26 11.00 12.19 0.94 o
-2 2 26 9.38 9.13 0.87 o
-1 3 26 5.24 6.03 0.59 o
-1 2 27 0.02 0.29 0.35 <
-1 1 28 12.21 11.57 0.95 o
loop_
_jana_atom_site_adp_c_label
_jana_atom_site_adp_c_type_symbol
_jana_atom_site_adp_c_111
_jana_atom_site_adp_c_112
_jana_atom_site_adp_c_113
_jana_atom_site_adp_c_122
_jana_atom_site_adp_c_123
_jana_atom_site_adp_c_133
_jana_atom_site_adp_c_222
_jana_atom_site_adp_c_223
_jana_atom_site_adp_c_233
_jana_atom_site_adp_c_333
O1 O -0.076(7) -0.090(7) 0.0100(11) -0.090(7) 0.0100(11) -0.0026(3) 0 0 0 0
O2 O -0.076(7) -0.090(7) 0.0100(11) -0.090(7) 0.0100(11) -0.0026(3) 0 0 0 0
