#------------------------------------------------------------------------------
#$Date: 2017-12-01 11:21:32 +0200 (Fri, 01 Dec 2017) $
#$Revision: 203861 $
#$URL: file:///home/coder/svn-repositories/cod/cif/1/54/83/1548349.cif $
#------------------------------------------------------------------------------
#
# This file is available in the Crystallography Open Database (COD),
# http://www.crystallography.net/
#
# All data on this site have been placed in the public domain by the
# contributors.
#
data_1548349
loop_
_publ_author_name
'Palatinus, Luk\'a\<s'
'Br\'azda, Petr'
'Boullay, Philippe'
'Perez, Olivier'
'Klementov\'a, Mariana'
'Petit, Sebastien'
'Eigner, V\'aclav'
'Zaarour, Moussa'
'Mintova, Svetlana'
_publ_section_title
;
 Hydrogen positions in single nanocrystals revealed by electron
 diffraction
;
_journal_issue                   6321
_journal_name_full               Science
_journal_page_first              166
_journal_page_last               169
_journal_paper_doi               10.1126/science.aak9652
_journal_volume                  355
_journal_year                    2017
_chemical_absolute_configuration .
_chemical_formula_moiety         'Al2 Co1.13 H11.223 O20 P4'
_chemical_formula_sum            'Al2 Co1.13 H11.223 O20 P4'
_chemical_formula_weight         575.7
_chemical_name_systematic        ' ?'
_space_group_IT_number           14
_symmetry_cell_setting           monoclinic
_symmetry_Int_Tables_number      14
_symmetry_space_group_name_Hall  '-P 2yn'
_symmetry_space_group_name_H-M   'P 1 21/n 1'
_audit_creation_method           'Jana2006 Version : 09/10/2016'
_cell_angle_alpha                90
_cell_angle_beta                 90.086(5)
_cell_angle_gamma                90
_cell_formula_units_Z            2
_cell_length_a                   8.4589(6)
_cell_length_b                   16.5069(5)
_cell_length_c                   5.0726(2)
_cell_measurement_reflns_used    5053
_cell_measurement_temperature    94.98(10)
_cell_measurement_theta_max      28.81
_cell_measurement_theta_min      4.19
_cell_volume                     708.29(6)
_computing_cell_refinement
'Crysalis PRO 1.171.38.43 (Rigaku Oxford Diffraction, 2015)'
_computing_data_collection
'Crysalis PRO 1.171.38.43 (Rigaku Oxford Diffraction, 2015)'
_computing_data_reduction
'Crysalis PRO 1.171.38.43 (Rigaku Oxford Diffraction, 2015)'
_computing_structure_refinement  'Jana2006 (Petricek et al., 2014)'
_computing_structure_solution    'Supeflip (Palatinus and Chapuis, 2007)'
_diffrn_ambient_temperature      94.98
_diffrn_detector                 'CCD plate'
_diffrn_detector_area_resol_mean 5.2027
_diffrn_measured_fraction_theta_full 0.98
_diffrn_measured_fraction_theta_max 0.93
_diffrn_measurement_device       'four-circle diffractometer'
_diffrn_measurement_device_type  'SuperNova, Dual, Cu at zero, AtlasS2'
_diffrn_measurement_method       '\w scans'
_diffrn_radiation_monochromator  mirror
_diffrn_radiation_probe          x-ray
_diffrn_radiation_source         'X-ray tube'
_diffrn_radiation_type           'Mo K\a'
_diffrn_radiation_wavelength     0.71073
_diffrn_reflns_av_R_equivalents  0.0509
_diffrn_reflns_av_unetI/netI     0.0375
_diffrn_reflns_limit_h_max       6
_diffrn_reflns_limit_h_min       -6
_diffrn_reflns_limit_k_max       22
_diffrn_reflns_limit_k_min       -22
_diffrn_reflns_limit_l_max       11
_diffrn_reflns_limit_l_min       -11
_diffrn_reflns_number            12366
_diffrn_reflns_theta_full        28.72
_diffrn_reflns_theta_max         29.59
_diffrn_reflns_theta_min         3.45
_diffrn_source                   'micro-focus sealed X-ray tube'
_exptl_absorpt_coefficient_mu    2.051
_exptl_absorpt_correction_T_max  0.967
_exptl_absorpt_correction_T_min  0.786
_exptl_absorpt_correction_type   analytical
_exptl_absorpt_process_details
;
CrysAlisPro 1.171.38.43 (Rigaku Oxford Diffraction, 2015)
Analytical numeric absorption correction using a multifaceted crystal
			model based on expressions derived by R.C. Clark & J.S. Reid.
(Clark, R. C. & Reid, J. S. (1995). Acta Cryst. A51, 887-897)
Empirical absorption correction using spherical harmonics,
 implemented in SCALE3 ABSPACK scaling algorithm.
;
_exptl_crystal_colour            pink
_exptl_crystal_density_diffrn    2.699
_exptl_crystal_description       platelet
_exptl_crystal_F_000             575.4
_exptl_crystal_size_max          0.127
_exptl_crystal_size_mid          0.036
_exptl_crystal_size_min          0.016
_refine_diff_density_max         0.37
_refine_diff_density_min         -0.51
_refine_ls_extinction_method     none
_refine_ls_goodness_of_fit_gt    1.44
_refine_ls_goodness_of_fit_ref   1.39
_refine_ls_hydrogen_treatment    refall
_refine_ls_number_constraints    9
_refine_ls_number_parameters     154
_refine_ls_number_reflns         1851
_refine_ls_number_restraints     7
_refine_ls_R_factor_all          0.0423
_refine_ls_R_factor_gt           0.0306
_refine_ls_shift/su_max          0.0468
_refine_ls_shift/su_mean         0.0031
_refine_ls_structure_factor_coef F
_refine_ls_weighting_details     w=1/(\s^2^(F)+0.0001F^2^)
_refine_ls_weighting_scheme      sigma
_refine_ls_wR_factor_gt          0.0305
_refine_ls_wR_factor_ref         0.0322
_reflns_number_gt                1576
_reflns_number_total             1851
_reflns_threshold_expression     I>3\s(I)
_cod_data_source_file            aak9652-Palatinus-SM-data-S3.cif
_cod_data_source_block           III
_cod_depositor_comments
;
The following automatic conversions were performed:

'_diffrn_radiation_probe' value 'X-ray' changed to 'x-ray' according
to the built-in table from CIF Core dictionary named 'cif_core.dic'
version 2.4.1 from 2010-06-29.

Automatic conversion script
Id: cif_fix_values 5376 2017-05-30 11:51:03Z andrius 
;
_cod_original_sg_symbol_Hall     '-P 2yabc'
_cod_database_code               1548349
loop_
_publ_contact_author_name
_publ_contact_author_address
_publ_contact_author_email
'Palatinus, Luk\'a\<s'
;
Institute of Physics CAS,
Na Slovance 2
182 21 Prague 8
Czech Republic
;
;
palat@fzu.cz
;
'Boullay, Philippe'
;
CRISMAT, Normandie Universit\'e, 
ENSICAEN, UNICAEN, CNRS UMR 6508, 
6 Bd Mar\'echal Juin, 
F-14050 Caen Cedex 4, 
France
;
;
philippe.boullay@ensicaen.fr
;
loop_
_space_group_symop_id
_space_group_symop_operation_xyz
1 x,y,z
2 -x+1/2,y+1/2,-z+1/2
3 -x,-y,-z
4 x+1/2,-y+1/2,z+1/2
loop_
_atom_site_label
_atom_site_type_symbol
_atom_site_fract_x
_atom_site_fract_y
_atom_site_fract_z
_atom_site_adp_type
_atom_site_U_iso_or_equiv
_atom_site_site_symmetry_multiplicity
_atom_site_occupancy
_atom_site_calc_flag
_atom_site_refinement_flags
_atom_site_disorder_assembly
_atom_site_disorder_group
Co1 Co 0.5 0 0 Uani 0.0183(2) 2 0.935(3) d . . .
Co2 Co 0.5 0 0.5 Uani 0.0124(10) 2 0.194(2) d . . .
Al1 Al 0.63635(9) 0.29179(5) 0.2475(2) Uani 0.0087(2) 4 1 d . . .
P1 P 0.48628(8) -0.19144(4) 0.2460(2) Uani 0.00940(19) 4 1 d . . .
P2 P 0.81006(8) -0.08693(4) -0.2382(2) Uani 0.0112(2) 4 1 d . . .
O1 O 0.5116(2) -0.09735(11) 0.2749(5) Uani 0.0137(6) 4 1 d . . .
O2 O 0.6936(3) 0.05418(14) 0.2035(6) Uani 0.0250(8) 4 1 d . . .
O3 O 0.9262(3) -0.01156(13) -0.2559(7) Uani 0.0289(8) 4 1 d . . .
O4 O 0.4064(2) -0.20149(11) -0.0220(5) Uani 0.0106(6) 4 1 d . . .
O5 O 0.3802(2) -0.21876(12) 0.4678(4) Uani 0.0105(6) 4 1 d . . .
O6 O 0.6396(2) -0.05557(13) -0.2744(5) Uani 0.0220(7) 4 1 d . . .
O7 O 0.8542(2) -0.14332(12) -0.4555(4) Uani 0.0136(6) 4 1 d . . .
O8 O 0.6452(2) -0.23501(11) 0.2651(5) Uani 0.0111(6) 4 1 d . . .
O9 O 0.0883(2) 0.81467(12) 0.2319(5) Uani 0.0130(6) 4 1 d . . .
O10 O 0.8318(2) -0.12040(12) 0.0338(4) Uani 0.0136(6) 4 1 d . . .
H1 H 0.136(4) 0.7968(19) 0.087(4) Uiso 0.0156 4 1 d . . .
H2 H 0.160(3) 0.799(2) 0.351(5) Uiso 0.0156 4 1 d . . .
H3 H 0.679(4) 0.1077(7) 0.190(8) Uiso 0.03 4 1 d . . .
H4 H 0.632(5) 0.046(3) 0.346(6) Uiso 0.03 4 0.806(2) d . . .
H5 H 0.565(4) -0.083(2) 0.420(5) Uiso 0.0164 4 0.806(2) d . . .
H6 H 0.911(9) 0.030(3) -0.144(12) Uiso 0.0347 4 0.5 d . . .
H6' H 0.511(6) 0.509(5) 0.137(12) Uiso 0.0347 4 0.5 d . . .
loop_
_atom_site_aniso_label
_atom_site_aniso_type_symbol
_atom_site_aniso_U_11
_atom_site_aniso_U_22
_atom_site_aniso_U_33
_atom_site_aniso_U_12
_atom_site_aniso_U_13
_atom_site_aniso_U_23
Co1 Co 0.0098(3) 0.0085(3) 0.0366(5) 0.0041(3) 0.0067(4) 0.0088(4)
Co2 Co 0.0125(16) 0.0058(15) 0.019(2) -0.0020(15) -0.005(2) -0.0020(15)
Al1 Al 0.0052(3) 0.0108(4) 0.0100(4) 0.0006(3) 0.0000(6) -0.0001(5)
P1 P 0.0060(3) 0.0104(3) 0.0118(4) -0.0007(3) -0.0002(5) -0.0005(4)
P2 P 0.0107(3) 0.0082(3) 0.0146(4) 0.0004(3) -0.0001(5) 0.0000(4)
O1 O 0.0115(9) 0.0087(9) 0.0208(12) -0.0020(8) 0.0013(13) -0.0026(10)
O2 O 0.0276(13) 0.0125(11) 0.0349(17) 0.0052(10) -0.0082(12) 0.0019(12)
O3 O 0.0347(13) 0.0179(12) 0.0342(16) -0.0130(11) 0.0014(16) -0.0031(15)
O4 O 0.0083(10) 0.0119(10) 0.0117(12) -0.0012(8) -0.0031(10) 0.0017(9)
O5 O 0.0078(10) 0.0125(10) 0.0112(12) -0.0003(8) -0.0008(10) 0.0010(9)
O6 O 0.0169(10) 0.0224(11) 0.0265(14) 0.0114(9) 0.0002(13) 0.0022(14)
O7 O 0.0143(11) 0.0149(11) 0.0115(11) 0.0004(9) -0.0011(11) -0.0008(10)
O8 O 0.0084(8) 0.0111(9) 0.0137(11) -0.0015(7) -0.0022(13) -0.0002(11)
O9 O 0.0086(9) 0.0188(10) 0.0117(12) 0.0006(8) -0.0012(12) -0.0010(13)
O10 O 0.0138(11) 0.0151(10) 0.0119(12) 0.0031(9) 0.0001(11) -0.0006(10)
loop_
_atom_type_symbol
_atom_type_scat_dispersion_real
_atom_type_scat_dispersion_imag
_atom_type_scat_source
Al 0.0645 0.0514 'International Tables Vol C tables 4.2.6.8 and 6.1.1.1'
Co 0.3494 0.9721 'International Tables Vol C tables 4.2.6.8 and 6.1.1.1'
H 0.0000 0.0000 'International Tables Vol C tables 4.2.6.8 and 6.1.1.1'
O 0.0106 0.0060 'International Tables Vol C tables 4.2.6.8 and 6.1.1.1'
P 0.1023 0.0942 'International Tables Vol C tables 4.2.6.8 and 6.1.1.1'
loop_
_geom_bond_atom_site_label_1
_geom_bond_atom_site_label_2
_geom_bond_site_symmetry_1
_geom_bond_site_symmetry_2
_geom_bond_distance
Co1 Co2 . 1_554 2.5363(2)
Co1 Co2 . . 2.5363(2)
Co1 O6 . . 2.044(2)
Co1 O6 . 3_655 2.044(2)
Co2 O1 . . 1.974(2)
Co2 O1 . 3_656 1.974(2)
Co2 O6 . 1_556 1.882(2)
Co2 O6 . 3_655 1.882(2)
Co2 H4 . . 1.56(4)
Co2 H4 . 3_656 1.56(4)
Co2 H5 . . 1.53(4)
Co2 H5 . 3_656 1.53(4)
P1 O1 . . 1.5746(19)
P1 O4 . . 1.526(2)
P1 O5 . . 1.509(2)
P1 O8 . . 1.5278(19)
P2 O3 . . 1.588(2)
P2 O6 . . 1.542(2)
P2 O7 . . 1.491(2)
P2 O10 . . 1.497(2)
O1 H5 . . 0.90(3)
O2 H3 . . 0.894(13)
O2 H4 . . 0.90(3)
O3 H6 . . 0.90(5)
O3 H6' . 4_554 0.90(5)
O9 H1 . . 0.89(3)
O9 H2 . . 0.89(3)
loop_
_refln_index_h
_refln_index_k
_refln_index_l
_refln_F_squared_calc
_refln_F_squared_meas
_refln_F_squared_sigma
_refln_observed_status
2 0 0 5763.68 5528.65 51.43 o
4 0 0 1911.43 2106.04 29.29 o
6 0 0 11566.30 11841.50 71.36 o
8 0 0 2677.08 2745.83 71.30 o
10 0 0 1402.18 1357.56 65.27 o
2 1 0 9286.42 9206.74 41.96 o
3 1 0 10943.60 10484.10 66.55 o
4 1 0 907.23 859.17 14.65 o
5 1 0 2360.85 2482.77 23.68 o
6 1 0 30.74 38.69 4.67 o
7 1 0 2875.55 2812.44 37.01 o
8 1 0 371.59 401.76 17.17 o
9 1 0 1958.05 1874.39 43.76 o
10 1 0 423.10 409.24 26.08 o
11 1 0 127.50 126.34 21.04 o
1 2 0 6047.32 5935.60 50.06 o
2 2 0 25.01 35.20 2.96 o
3 2 0 322.56 315.91 8.34 o
4 2 0 8634.24 8844.47 32.09 o
5 2 0 3800.66 4021.72 28.44 o
6 2 0 663.40 744.69 14.41 o
7 2 0 801.37 784.38 20.32 o
8 2 0 921.50 961.08 25.94 o
9 2 0 22.25 20.54 8.38 <
10 2 0 511.79 553.43 33.93 o
11 2 0 108.20 85.06 24.16 o
1 3 0 699.34 734.22 12.33 o
2 3 0 429.35 352.70 8.45 o
3 3 0 3797.22 3642.79 31.41 o
4 3 0 6030.09 5752.92 48.35 o
5 3 0 504.03 521.03 11.16 o
6 3 0 2013.86 1977.70 25.30 o
7 3 0 1164.61 1172.18 24.83 o
8 3 0 68.09 82.37 9.34 o
9 3 0 8.22 33.60 9.26 o
10 3 0 1577.47 1540.34 61.28 o
11 3 0 14.97 50.66 30.90 <
0 4 0 4928.87 5045.92 32.38 o
1 4 0 1704.44 1565.67 22.30 o
2 4 0 6022.26 5609.72 50.11 o
3 4 0 2797.06 3014.47 17.91 o
4 4 0 5.36 32.11 4.15 o
5 4 0 1242.26 1280.08 17.74 o
6 4 0 5.37 6.88 4.29 <
7 4 0 224.34 223.07 11.57 o
8 4 0 2397.43 2387.84 42.23 o
9 4 0 380.38 386.61 21.81 o
10 4 0 44.02 71.70 19.42 o
11 4 0 567.76 475.36 57.46 o
1 5 0 4163.98 4200.51 29.67 o
2 5 0 148.48 196.34 6.64 o
3 5 0 510.54 393.98 11.24 o
4 5 0 66.41 95.33 6.18 o
5 5 0 7776.16 7809.90 46.48 o
6 5 0 550.74 504.27 13.45 o
7 5 0 734.25 717.47 20.60 o
8 5 0 837.22 785.58 27.82 o
9 5 0 635.06 606.28 30.07 o
10 5 0 64.77 65.12 17.65 o
11 5 0 1976.53 1747.95 154.49 o
0 6 0 238.78 245.60 12.33 o
1 6 0 1794.79 1810.68 19.35 o
2 6 0 11847.60 11396.80 80.93 o
3 6 0 208.82 215.99 7.42 o
4 6 0 1998.21 2006.42 22.84 o
5 6 0 651.69 688.65 14.20 o
6 6 0 20.01 21.24 4.98 o
7 6 0 336.37 347.62 14.79 o
8 6 0 1665.73 1674.16 46.99 o
9 6 0 351.97 380.42 28.32 o
10 6 0 186.33 239.92 30.71 o
11 6 0 378.34 361.98 79.20 o
1 7 0 939.03 1125.22 13.61 o
2 7 0 31.32 26.13 4.50 o
3 7 0 769.94 942.53 21.19 o
4 7 0 1056.62 1077.15 16.60 o
5 7 0 1777.34 1709.56 24.73 o
6 7 0 23.40 37.89 5.76 o
7 7 0 85.51 103.91 9.12 o
8 7 0 423.11 449.73 23.30 o
9 7 0 48.45 46.67 13.06 o
10 7 0 787.39 773.31 73.83 o
0 8 0 800.06 732.73 22.35 o
1 8 0 1215.43 1213.86 18.77 o
2 8 0 296.97 306.53 10.90 o
3 8 0 695.44 772.21 18.64 o
4 8 0 545.68 531.30 15.98 o
5 8 0 498.06 519.93 13.44 o
6 8 0 266.67 261.86 11.89 o
7 8 0 827.31 870.04 22.10 o
8 8 0 22.51 43.08 11.45 o
9 8 0 5.76 0.30 12.27 <
10 8 0 90.70 164.53 30.52 o
1 9 0 830.95 880.51 16.16 o
2 9 0 918.14 954.40 19.07 o
3 9 0 5429.32 5432.42 57.46 o
4 9 0 725.78 737.31 19.13 o
5 9 0 136.06 142.00 10.25 o
6 9 0 73.80 86.65 7.94 o
7 9 0 371.95 369.45 17.27 o
8 9 0 116.00 109.79 15.57 o
9 9 0 866.52 816.49 44.53 o
10 9 0 176.80 164.83 40.00 o
0 10 0 15928.20 16047.60 115.01 o
1 10 0 205.42 233.94 10.00 o
2 10 0 7549.05 7566.58 48.44 o
3 10 0 662.43 678.58 20.70 o
4 10 0 2075.96 2055.28 33.25 o
5 10 0 20.09 26.52 7.67 o
6 10 0 1466.12 1427.76 36.90 o
7 10 0 0.23 4.79 11.37 <
8 10 0 1133.27 1082.54 43.22 o
9 10 0 420.91 384.41 28.16 o
10 10 0 1940.08 1997.55 133.40 o
1 11 0 1200.76 1201.40 22.53 o
2 11 0 3145.75 3158.86 32.67 o
3 11 0 9995.13 9937.37 78.27 o
4 11 0 202.75 196.24 12.79 o
5 11 0 1698.56 1700.09 38.97 o
6 11 0 785.58 755.76 27.84 o
7 11 0 3339.78 3385.12 72.53 o
8 11 0 302.42 327.67 25.94 o
9 11 0 955.53 970.55 48.78 o
10 11 0 336.98 302.74 55.89 o
0 12 0 9.54 24.13 7.97 o
1 12 0 53.33 58.83 6.37 o
2 12 0 606.89 566.30 16.15 o
3 12 0 705.23 695.63 22.52 o
4 12 0 4055.90 3995.09 56.12 o
5 12 0 26.01 11.37 7.89 <
6 12 0 335.15 362.17 21.72 o
7 12 0 8.31 26.13 11.46 <
8 12 0 213.83 246.00 29.95 o
9 12 0 506.69 600.10 54.39 o
1 13 0 30.15 25.33 6.09 o
2 13 0 1098.66 1092.61 24.40 o
3 13 0 22.56 31.41 8.87 o
4 13 0 11.79 1.89 7.38 <
5 13 0 212.93 187.47 16.04 o
6 13 0 1043.85 1016.12 39.78 o
7 13 0 433.39 402.66 30.23 o
8 13 0 23.66 62.32 21.72 <
9 13 0 35.81 44.47 25.32 <
0 14 0 2692.56 2793.39 55.31 o
1 14 0 846.41 836.63 23.73 o
2 14 0 41.49 52.35 7.66 o
3 14 0 5.80 17.05 8.67 <
4 14 0 307.14 289.58 18.52 o
5 14 0 428.58 445.74 26.45 o
6 14 0 258.99 248.40 24.86 o
7 14 0 580.77 594.92 37.93 o
8 14 0 603.31 504.37 69.51 o
1 15 0 534.86 607.38 18.96 o
2 15 0 2379.93 2290.32 39.14 o
3 15 0 2196.24 2163.48 47.77 o
4 15 0 127.60 124.35 15.76 o
5 15 0 1499.19 1589.50 55.67 o
6 15 0 332.97 360.18 29.53 o
7 15 0 3.42 -15.95 14.16 <
8 15 0 47.58 89.35 56.62 <
0 16 0 824.31 859.87 33.87 o
1 16 0 526.72 531.20 17.71 o
2 16 0 2282.84 2314.55 42.12 o
3 16 0 26.32 30.61 10.07 o
4 16 0 1349.72 1266.32 47.08 o
5 16 0 190.16 207.61 21.70 o
6 16 0 276.92 285.79 28.99 o
7 16 0 15.15 47.86 26.11 <
1 17 0 1409.19 1423.77 30.43 o
2 17 0 5.93 -9.27 10.57 <
3 17 0 741.04 736.72 33.53 o
4 17 0 74.15 62.62 14.87 o
5 17 0 1315.62 1305.90 51.12 o
6 17 0 418.20 469.87 34.52 o
7 17 0 941.70 967.46 95.26 o
0 18 0 50.85 88.35 14.11 o
1 18 0 80.94 84.26 11.26 o
2 18 0 80.41 73.89 17.16 o
3 18 0 0.53 21.54 12.26 <
4 18 0 3.99 27.42 14.65 <
5 18 0 7.20 5.58 14.46 <
6 18 0 1.94 15.36 25.53 <
7 18 0 60.76 48.06 32.41 <
1 19 0 284.37 292.27 23.61 o
2 19 0 199.64 204.72 23.22 o
3 19 0 36.56 78.68 18.51 o
4 19 0 168.95 162.04 19.86 o
5 19 0 511.67 490.81 46.03 o
6 19 0 12.84 58.83 32.89 <
0 20 0 2036.27 2134.46 124.00 o
1 20 0 138.74 119.96 22.37 o
2 20 0 907.21 954.30 40.70 o
3 20 0 421.65 460.20 35.57 o
4 20 0 433.54 477.15 38.55 o
5 20 0 81.17 74.79 30.22 <
1 21 0 1683.80 1678.55 95.26 o
2 21 0 48.18 68.21 29.70 <
3 21 0 936.20 1018.92 51.53 o
4 21 0 323.79 358.98 40.90 o
1 22 0 82.41 13.86 46.88 <
2 22 0 154.96 175.70 49.24 o
-11 0 1 360.75 473.86 48.49 o
-9 0 1 1274.31 1300.22 50.88 o
-7 0 1 493.04 516.34 25.10 o
-5 0 1 1654.63 1626.00 29.84 o
-3 0 1 2109.87 2173.55 30.95 o
-1 0 1 1182.69 1170.29 29.05 o
1 0 1 1428.51 1437.33 18.57 o
3 0 1 2520.83 2551.08 32.48 o
5 0 1 1916.89 1874.10 29.75 o
7 0 1 577.79 568.29 24.89 o
9 0 1 1077.46 969.85 61.40 o
11 0 1 439.39 418.91 62.86 o
-11 1 1 441.76 454.02 41.85 o
-10 1 1 669.39 708.69 34.19 o
-9 1 1 89.20 102.51 12.14 o
-8 1 1 317.94 340.83 16.83 o
-7 1 1 199.92 193.05 12.00 o
-6 1 1 2293.60 2185.21 31.24 o
-5 1 1 4742.30 4639.37 39.04 o
-4 1 1 1099.60 1089.32 16.34 o
-3 1 1 3290.16 2926.22 36.21 o
-2 1 1 2573.06 2293.81 30.86 o
-1 1 1 1064.17 986.21 20.03 o
0 1 1 1876.97 1868.71 21.53 o
1 1 1 1008.02 965.57 13.14 o
2 1 1 2216.16 2062.66 23.81 o
3 1 1 2925.61 2790.50 29.52 o
4 1 1 1294.72 1231.91 18.71 o
5 1 1 4514.57 4434.55 37.53 o
6 1 1 1928.88 1915.28 24.81 o
7 1 1 227.43 218.68 12.90 o
8 1 1 352.72 344.72 15.60 o
9 1 1 98.18 92.24 16.76 o
10 1 1 820.02 753.67 41.32 o
11 1 1 467.11 450.52 45.71 o
-11 2 1 306.25 376.23 45.43 o
-10 2 1 83.11 91.44 13.65 o
-9 2 1 315.29 309.32 18.38 o
-8 2 1 2101.08 2192.99 38.54 o
-7 2 1 651.19 667.31 20.50 o
-6 2 1 243.02 234.44 9.73 o
-5 2 1 3616.73 3502.49 35.58 o
-4 2 1 397.31 394.28 11.10 o
-3 2 1 983.13 1070.77 16.43 o
-2 2 1 9171.10 8888.74 58.56 o
-1 2 1 3703.26 3965.08 25.74 o
0 2 1 468.37 510.85 10.02 o
1 2 1 4396.48 4571.76 23.76 o
2 2 1 8823.17 8822.83 52.17 o
3 2 1 1209.85 1221.54 18.24 o
4 2 1 444.97 421.31 13.37 o
5 2 1 3080.11 3014.07 35.45 o
6 2 1 214.99 209.01 9.61 o
7 2 1 559.17 558.32 17.96 o
8 2 1 2139.77 2104.64 37.43 o
9 2 1 363.26 339.94 21.24 o
10 2 1 75.16 86.36 17.54 o
11 2 1 273.59 248.80 53.38 o
-11 3 1 124.10 176.00 26.84 o
-10 3 1 497.15 507.17 28.67 o
-9 3 1 106.22 99.02 13.38 o
-8 3 1 1161.99 1230.52 28.35 o
-7 3 1 309.48 305.43 13.39 o
-6 3 1 1005.39 1020.01 20.55 o
-5 3 1 82.45 81.47 6.39 o
-4 3 1 502.13 484.43 12.94 o
-3 3 1 22.30 27.02 4.28 o
-2 3 1 830.21 788.87 14.39 o
-1 3 1 186.76 166.93 8.09 o
0 3 1 973.92 1040.55 19.33 o
1 3 1 180.02 167.73 5.88 o
2 3 1 687.85 695.13 12.46 o
3 3 1 27.24 25.53 4.39 o
4 3 1 451.38 446.14 14.90 o
5 3 1 93.30 88.55 7.00 o
6 3 1 879.50 894.97 19.86 o
7 3 1 268.87 254.78 14.03 o
8 3 1 945.09 993.49 34.03 o
9 3 1 119.94 138.01 15.22 o
10 3 1 450.80 438.86 39.62 o
11 3 1 101.91 144.69 41.65 o
-11 4 1 428.44 410.84 44.42 o
-10 4 1 209.10 184.98 22.09 o
-9 4 1 59.46 63.62 10.96 o
-8 4 1 180.30 184.98 13.54 o
-7 4 1 112.77 131.33 10.31 o
-6 4 1 1912.48 1961.55 28.13 o
-5 4 1 2669.65 2726.38 30.18 o
-4 4 1 1088.23 1158.32 17.47 o
-3 4 1 1339.93 1357.86 17.08 o
-2 4 1 521.44 547.55 11.24 o
-1 4 1 2845.65 2824.31 29.27 o
0 4 1 35878.50 34349.60 198.57 o
1 4 1 2335.41 2430.52 22.13 o
2 4 1 435.71 442.55 10.69 o
3 4 1 1543.99 1444.21 22.65 o
4 4 1 1306.97 1316.77 23.89 o
5 4 1 3285.39 3166.34 40.40 o
6 4 1 1840.98 1834.61 32.21 o
7 4 1 91.73 83.56 9.29 o
8 4 1 221.11 209.81 15.00 o
9 4 1 52.18 57.84 12.16 o
10 4 1 245.17 262.16 32.07 o
-11 5 1 52.39 70.10 33.50 <
-10 5 1 822.78 786.08 41.57 o
-9 5 1 104.38 129.13 13.40 o
-8 5 1 1090.23 1081.34 29.01 o
-7 5 1 362.04 367.36 15.82 o
-6 5 1 340.08 342.13 13.15 o
-5 5 1 111.14 119.76 6.94 o
-4 5 1 3176.77 3191.57 29.29 o
-3 5 1 183.84 185.08 8.47 o
-2 5 1 2909.84 2967.30 27.10 o
-1 5 1 47.73 42.28 5.00 o
0 5 1 593.14 593.92 13.75 o
1 5 1 38.72 33.41 4.30 o
2 5 1 3386.27 3322.30 31.30 o
3 5 1 198.38 195.55 7.80 o
4 5 1 2607.60 2679.52 32.37 o
5 5 1 136.56 146.79 8.03 o
6 5 1 367.94 373.64 13.72 o
7 5 1 429.03 421.11 18.20 o
8 5 1 1285.08 1265.12 34.60 o
9 5 1 85.35 115.57 16.70 o
10 5 1 996.11 1005.16 77.15 o
-11 6 1 90.03 128.44 38.76 o
-10 6 1 0.43 -1.20 14.76 <
-9 6 1 639.68 659.43 34.80 o
-8 6 1 965.10 969.26 25.49 o
-7 6 1 792.98 815.29 22.62 o
-6 6 1 373.24 391.89 14.83 o
-5 6 1 639.48 646.17 15.18 o
-4 6 1 376.41 381.42 10.92 o
-3 6 1 2107.11 2131.07 28.85 o
-2 6 1 492.54 494.10 11.75 o
-1 6 1 3007.02 3127.75 28.18 o
0 6 1 2133.39 1897.53 31.63 o
1 6 1 3055.41 3180.30 29.12 o
2 6 1 491.34 502.48 11.64 o
3 6 1 2292.18 2222.81 27.20 o
4 6 1 454.17 478.15 12.42 o
5 6 1 784.21 771.12 16.42 o
6 6 1 356.31 325.08 13.57 o
7 6 1 693.46 641.18 22.65 o
8 6 1 1027.78 1011.64 34.63 o
9 6 1 768.91 806.72 34.77 o
10 6 1 0.38 -2.49 22.44 <
-10 7 1 945.36 970.05 50.03 o
-9 7 1 80.32 86.46 16.54 o
-8 7 1 823.44 794.75 28.83 o
-7 7 1 49.07 63.22 7.85 o
-6 7 1 1728.90 1690.32 30.01 o
-5 7 1 72.82 64.22 6.51 o
-4 7 1 1980.18 1912.29 27.62 o
-3 7 1 4867.53 4745.17 50.56 o
-2 7 1 1063.94 1097.69 20.06 o
-1 7 1 1455.50 1539.64 21.94 o
0 7 1 412.94 387.80 11.99 o
1 7 1 1791.45 1845.48 23.43 o
2 7 1 872.06 929.47 16.63 o
3 7 1 4571.96 4555.21 37.35 o
4 7 1 1636.86 1656.11 19.92 o
5 7 1 87.77 89.25 5.88 o
6 7 1 2080.50 1987.97 31.73 o
7 7 1 42.76 52.45 8.26 o
8 7 1 667.78 642.68 31.45 o
9 7 1 93.32 91.04 16.66 o
10 7 1 832.13 941.24 78.74 o
-10 8 1 501.95 513.75 46.63 o
-9 8 1 303.19 348.21 27.48 o
-8 8 1 1876.39 1868.41 55.51 o
-7 8 1 800.35 756.56 22.54 o
-6 8 1 246.97 225.16 12.57 o
-5 8 1 330.31 329.57 13.37 o
-4 8 1 481.20 465.68 14.69 o
-3 8 1 1265.84 1219.85 21.84 o
-2 8 1 1552.45 1483.20 27.27 o
-1 8 1 453.69 419.41 14.34 o
0 8 1 3405.26 3758.36 32.17 o
1 8 1 369.10 341.13 12.08 o
2 8 1 1396.12 1405.42 20.57 o
3 8 1 1088.80 1082.04 18.55 o
4 8 1 452.87 441.15 11.39 o
5 8 1 295.15 290.98 10.10 o
6 8 1 233.47 215.49 11.46 o
7 8 1 649.72 609.47 21.26 o
8 8 1 1843.32 1830.72 51.77 o
9 8 1 247.28 249.39 23.33 o
10 8 1 435.11 476.85 86.50 o
-10 9 1 41.52 93.04 34.37 <
-9 9 1 212.35 221.27 25.01 o
-8 9 1 95.27 111.09 16.13 o
-7 9 1 33.16 37.10 10.37 o
-6 9 1 696.88 682.37 24.04 o
-5 9 1 6196.95 6032.92 65.15 o
-4 9 1 530.86 599.90 15.90 o
-3 9 1 1443.97 1467.05 24.47 o
-2 9 1 320.09 313.01 11.02 o
-1 9 1 201.08 184.48 10.45 o
0 9 1 721.04 719.86 15.87 o
1 9 1 206.23 184.58 8.12 o
2 9 1 319.02 335.35 11.64 o
3 9 1 1333.03 1388.47 19.53 o
4 9 1 443.47 484.33 12.46 o
5 9 1 5911.25 5942.38 44.48 o
6 9 1 593.46 595.61 18.53 o
7 9 1 38.58 55.24 9.25 o
8 9 1 78.26 73.89 17.26 o
9 9 1 260.93 261.66 23.83 o
10 9 1 40.39 17.85 23.44 <
-10 10 1 121.50 130.93 40.18 o
-9 10 1 1057.41 1051.82 53.88 o
-8 10 1 79.81 78.98 15.06 o
-7 10 1 596.54 601.00 24.90 o
-6 10 1 442.20 426.19 20.23 o
-5 10 1 635.73 663.62 21.82 o
-4 10 1 1136.48 1116.44 23.98 o
-3 10 1 1400.00 1372.32 25.34 o
-2 10 1 2839.33 2706.94 36.38 o
-1 10 1 618.43 638.99 18.26 o
0 10 1 410.64 437.06 12.83 o
1 10 1 759.59 732.43 17.07 o
2 10 1 2707.31 2800.27 30.54 o
3 10 1 1237.98 1253.15 20.09 o
4 10 1 1080.54 1072.07 19.67 o
5 10 1 711.81 735.32 16.38 o
6 10 1 370.74 353.10 14.67 o
7 10 1 646.57 648.56 36.09 o
8 10 1 96.24 109.39 17.83 o
9 10 1 885.11 954.90 49.81 o
10 10 1 98.56 64.32 25.26 <
-9 11 1 128.96 126.34 27.03 o
-8 11 1 645.97 631.71 40.64 o
-7 11 1 79.69 87.05 12.85 o
-6 11 1 217.35 225.46 16.12 o
-5 11 1 735.98 737.71 22.72 o
-4 11 1 97.41 102.21 8.76 o
-3 11 1 2453.29 2339.78 37.66 o
-2 11 1 1613.54 1520.60 25.58 o
-1 11 1 186.00 200.23 9.80 o
0 11 1 1663.34 1745.66 24.22 o
1 11 1 221.38 229.65 9.92 o
2 11 1 1327.87 1386.38 24.68 o
3 11 1 2328.70 2300.19 30.69 o
4 11 1 98.91 120.06 8.10 o
5 11 1 598.48 593.92 16.70 o
6 11 1 200.18 189.36 13.11 o
7 11 1 64.71 89.85 16.92 o
8 11 1 787.83 824.77 43.29 o
9 11 1 154.41 124.75 28.46 o
10 11 1 351.17 355.39 66.11 o
-9 12 1 351.05 306.23 56.91 o
-8 12 1 467.03 490.11 36.81 o
-7 12 1 456.81 433.67 27.02 o
-6 12 1 394.54 391.99 21.85 o
-5 12 1 919.78 866.45 27.39 o
-4 12 1 629.97 592.52 18.77 o
-3 12 1 124.78 148.48 12.19 o
-2 12 1 1635.27 1557.19 28.98 o
-1 12 1 2277.71 2372.58 30.31 o
0 12 1 1494.07 1508.63 24.79 o
1 12 1 2644.86 2550.48 34.07 o
2 12 1 1348.35 1415.39 28.04 o
3 12 1 125.86 119.56 9.30 o
4 12 1 627.05 607.98 17.33 o
5 12 1 747.17 730.93 20.20 o
6 12 1 459.16 452.12 30.24 o
7 12 1 516.51 524.12 33.87 o
8 12 1 425.01 439.46 32.86 o
9 12 1 300.04 323.98 43.23 o
-8 13 1 625.46 608.68 40.55 o
-7 13 1 221.89 219.68 24.64 o
-6 13 1 324.38 365.47 26.68 o
-5 13 1 421.77 423.80 22.33 o
-4 13 1 1303.51 1261.63 33.93 o
-3 13 1 1393.45 1366.13 34.00 o
-2 13 1 1351.24 1329.44 28.10 o
-1 13 1 1999.23 1954.67 32.05 o
0 13 1 123.10 112.88 9.41 o
1 13 1 2077.43 2023.47 31.95 o
2 13 1 1113.63 1180.46 28.20 o
3 13 1 1398.61 1408.41 29.19 o
4 13 1 1541.25 1502.85 35.15 o
5 13 1 405.26 387.20 20.14 o
6 13 1 263.38 278.51 25.48 o
7 13 1 212.99 198.84 22.97 o
8 13 1 546.51 528.90 38.46 o
9 13 1 22.69 51.45 27.51 <
-8 14 1 70.82 118.56 31.07 o
-7 14 1 200.10 195.95 23.74 o
-6 14 1 217.41 210.01 22.55 o
-5 14 1 267.03 283.40 21.58 o
-4 14 1 238.19 234.44 17.07 o
-3 14 1 295.07 296.86 18.44 o
-2 14 1 418.64 387.90 16.55 o
-1 14 1 592.93 592.72 18.35 o
0 14 1 1606.98 1638.26 31.38 o
1 14 1 541.78 539.07 17.47 o
2 14 1 343.80 341.04 16.07 o
3 14 1 239.53 243.31 14.84 o
4 14 1 256.73 257.17 18.45 o
5 14 1 286.24 305.04 25.47 o
6 14 1 250.76 269.04 26.08 o
7 14 1 225.57 264.95 27.63 o
8 14 1 59.29 36.60 18.26 <
9 14 1 135.29 39.89 33.36 <
-7 15 1 970.64 997.78 49.42 o
-6 15 1 76.35 103.11 22.41 o
-5 15 1 41.51 54.84 13.05 o
-4 15 1 271.38 286.99 19.28 o
-3 15 1 1266.97 1303.01 37.36 o
-2 15 1 963.63 954.90 28.40 o
-1 15 1 18.08 19.25 7.98 <
0 15 1 676.85 667.11 23.21 o
1 15 1 14.95 23.43 6.87 o
2 15 1 1178.57 1159.52 27.64 o
3 15 1 1261.53 1238.00 33.34 o
4 15 1 221.78 216.89 22.35 o
5 15 1 48.32 32.01 14.67 <
6 15 1 64.65 86.65 18.72 o
7 15 1 1079.87 1143.66 53.79 o
8 15 1 612.41 681.57 80.82 o
-7 16 1 221.19 241.02 53.72 o
-6 16 1 53.28 44.77 18.45 <
-5 16 1 126.58 153.37 21.19 o
-4 16 1 145.66 135.42 15.28 o
-3 16 1 1080.86 1182.45 36.45 o
-2 16 1 34.48 33.11 9.57 o
-1 16 1 437.57 434.47 19.76 o
0 16 1 6.28 2.19 7.78 <
1 16 1 384.47 418.82 16.53 o
2 16 1 41.28 77.68 10.81 o
3 16 1 1293.98 1321.46 43.26 o
4 16 1 164.37 164.93 20.04 o
5 16 1 155.68 181.39 21.88 o
6 16 1 44.11 77.28 19.31 o
7 16 1 179.53 153.47 31.25 o
8 16 1 480.65 525.51 70.41 o
-7 17 1 143.22 130.63 42.49 o
-6 17 1 907.01 917.10 59.49 o
-5 17 1 272.02 278.51 28.90 o
-4 17 1 300.21 301.85 23.73 o
-3 17 1 150.11 160.55 15.93 o
-2 17 1 142.70 190.86 20.23 o
-1 17 1 438.27 418.32 21.45 o
0 17 1 438.42 427.29 21.00 o
1 17 1 390.94 424.40 22.27 o
2 17 1 116.00 119.96 14.05 o
3 17 1 129.02 118.07 18.67 o
4 17 1 244.99 211.30 24.21 o
5 17 1 281.62 307.03 29.25 o
6 17 1 1116.92 1198.71 58.10 o
7 17 1 172.03 190.16 43.46 o
-6 18 1 11.30 32.21 20.24 <
-5 18 1 444.10 442.35 38.00 o
-4 18 1 63.69 66.51 20.14 o
-3 18 1 464.63 456.01 31.64 o
-2 18 1 102.51 95.93 20.15 o
-1 18 1 518.46 546.35 36.79 o
0 18 1 0.52 -5.29 9.57 <
1 18 1 503.78 520.03 24.94 o
2 18 1 122.70 118.36 18.16 o
3 18 1 522.46 520.83 33.91 o
4 18 1 78.28 99.62 19.32 o
5 18 1 406.02 392.39 34.74 o
6 18 1 13.09 18.15 19.34 <
-5 19 1 1202.57 1153.44 94.10 o
-4 19 1 416.79 440.95 48.70 o
-3 19 1 132.01 118.36 18.57 o
-2 19 1 814.59 811.30 48.08 o
-1 19 1 563.67 610.47 36.99 o
0 19 1 110.61 129.83 17.51 o
1 19 1 465.09 488.62 27.61 o
2 19 1 946.61 992.09 42.60 o
3 19 1 109.59 134.12 21.10 o
4 19 1 340.66 291.48 33.33 o
5 19 1 1348.32 1499.56 69.36 o
6 19 1 406.99 421.01 70.18 o
-4 20 1 305.70 316.40 51.64 o
-3 20 1 1.57 -16.55 20.44 <
-2 20 1 1112.71 1134.09 61.92 o
-1 20 1 558.24 617.85 45.66 o
0 20 1 30.62 39.39 15.25 <
1 20 1 502.69 450.82 39.65 o
2 20 1 1154.68 1309.59 50.03 o
3 20 1 1.68 8.58 14.86 <
4 20 1 298.66 306.23 31.79 o
5 20 1 26.72 1.99 19.65 <
-4 21 1 308.68 296.86 68.02 o
-3 21 1 949.56 932.26 64.48 o
-2 21 1 727.21 743.59 57.78 o
-1 21 1 126.97 132.23 39.38 o
0 21 1 55.45 136.81 39.23 o
1 21 1 156.36 189.76 47.03 o
2 21 1 606.85 780.69 96.88 o
3 21 1 869.22 935.35 74.97 o
4 21 1 376.84 413.03 42.39 o
-2 22 1 169.57 154.56 65.42 <
-1 22 1 448.33 492.61 96.97 o
1 22 1 508.96 553.13 80.79 o
-10 0 2 2.00 44.27 17.83 <
-8 0 2 211.05 235.23 21.17 o
-6 0 2 739.84 783.48 25.28 o
-4 0 2 187.74 184.98 15.27 o
-2 0 2 339.18 316.30 18.55 o
0 0 2 13003.10 12857.00 108.06 o
2 0 2 278.19 254.98 13.09 o
4 0 2 177.18 167.82 10.21 o
6 0 2 772.51 814.59 28.20 o
8 0 2 257.77 230.15 24.40 o
10 0 2 1.85 22.34 27.92 <
-11 1 2 419.94 460.20 76.82 o
-10 1 2 316.36 303.34 21.49 o
-9 1 2 183.11 182.09 16.46 o
-8 1 2 416.48 435.07 20.44 o
-7 1 2 185.03 176.70 11.40 o
-6 1 2 889.95 889.68 20.74 o
-5 1 2 145.13 144.19 8.68 o
-4 1 2 384.04 380.42 13.99 o
-3 1 2 629.52 661.03 17.95 o
-2 1 2 1720.73 1930.93 28.12 o
-1 1 2 1551.10 1567.26 26.27 o
0 1 2 52.78 36.90 5.02 o
1 1 2 1281.23 1328.04 16.91 o
2 1 2 1749.29 2064.56 14.02 o
3 1 2 619.42 664.62 13.39 o
4 1 2 392.81 392.19 11.47 o
5 1 2 177.35 179.89 7.46 o
6 1 2 930.47 870.24 19.02 o
7 1 2 194.92 183.28 14.00 o
8 1 2 408.45 398.77 20.89 o
9 1 2 166.09 145.89 28.15 o
10 1 2 284.67 192.65 34.66 o
11 1 2 431.38 470.87 50.96 o
-11 2 2 44.59 8.08 28.63 <
-10 2 2 9.43 3.79 12.07 <
-9 2 2 73.93 97.92 12.22 o
-8 2 2 3112.59 3235.24 55.59 o
-7 2 2 39.16 48.76 7.56 o
-6 2 2 2826.68 2809.95 37.83 o
-5 2 2 263.06 252.09 12.13 o
-4 2 2 1973.44 1911.59 27.60 o
-3 2 2 124.98 120.06 9.09 o
-2 2 2 4240.40 4119.54 43.67 o
-1 2 2 822.16 825.46 18.61 o
0 2 2 736.22 679.48 15.55 o
1 2 2 1010.05 997.18 17.35 o
2 2 2 4228.81 4273.01 28.82 o
3 2 2 115.97 115.17 7.18 o
4 2 2 2241.32 2219.52 27.40 o
5 2 2 263.61 250.49 9.47 o
6 2 2 2657.85 2584.48 39.41 o
7 2 2 31.70 39.09 9.47 o
8 2 2 2956.92 3005.49 52.31 o
9 2 2 74.87 53.85 13.39 o
10 2 2 8.41 20.74 18.94 <
-11 3 2 591.50 617.25 71.04 o
-10 3 2 664.09 685.46 39.89 o
-9 3 2 293.56 333.95 20.37 o
-8 3 2 1163.80 1167.50 34.97 o
-7 3 2 1575.59 1543.83 30.45 o
-6 3 2 506.65 512.25 16.51 o
-5 3 2 6614.65 6668.63 54.62 o
-4 3 2 864.29 780.29 19.78 o
-3 3 2 7901.22 7896.55 54.63 o
-2 3 2 524.99 516.04 19.11 o
-1 3 2 2896.64 2746.63 36.24 o
0 3 2 43.30 61.33 5.64 o
1 3 2 3046.90 2957.23 30.19 o
2 3 2 512.08 515.34 11.33 o
3 3 2 8039.30 8099.18 50.45 o
4 3 2 1060.86 955.89 21.66 o
5 3 2 6289.50 6297.77 48.08 o
6 3 2 488.99 467.98 16.91 o
7 3 2 1531.95 1482.11 40.19 o
8 3 2 1063.52 1019.81 36.04 o
9 3 2 297.79 298.16 23.03 o
10 3 2 743.30 746.09 60.72 o
-10 4 2 1880.80 1923.66 70.79 o
-9 4 2 68.68 76.88 13.25 o
-8 4 2 121.62 124.75 12.76 o
-7 4 2 1490.44 1451.49 31.30 o
-6 4 2 216.52 240.72 12.44 o
-5 4 2 1119.20 1115.14 21.60 o
-4 4 2 5084.54 5170.47 41.42 o
-3 4 2 244.49 248.10 13.44 o
-2 4 2 2746.92 2930.11 43.24 o
-1 4 2 71.96 75.29 7.87 o
0 4 2 11.93 5.78 3.99 <
1 4 2 71.77 80.27 5.75 o
2 4 2 2388.99 2637.53 22.05 o
3 4 2 206.67 216.19 9.82 o
4 4 2 5140.38 5311.87 42.55 o
5 4 2 1322.17 1273.50 23.65 o
6 4 2 237.40 249.39 13.40 o
7 4 2 1473.64 1407.42 36.89 o
8 4 2 100.30 62.02 12.72 o
9 4 2 67.61 73.49 14.45 o
10 4 2 1830.15 1826.73 94.75 o
-10 5 2 268.96 288.78 32.36 o
-9 5 2 369.98 384.21 26.47 o
-8 5 2 61.11 75.09 11.64 o
-7 5 2 836.60 825.07 24.24 o
-6 5 2 334.56 317.50 12.58 o
-5 5 2 2193.57 2208.85 29.51 o
-4 5 2 485.71 492.41 15.20 o
-3 5 2 19.50 20.64 5.48 o
-2 5 2 351.38 339.44 14.93 o
-1 5 2 7572.98 7986.60 46.00 o
0 5 2 909.51 961.38 18.45 o
1 5 2 7588.24 8059.39 19.80 o
2 5 2 416.42 407.35 11.26 o
3 5 2 18.57 30.41 5.37 o
4 5 2 434.07 439.66 15.11 o
5 5 2 2306.71 2218.72 33.24 o
6 5 2 284.03 273.43 13.12 o
7 5 2 835.54 806.42 24.00 o
8 5 2 57.56 56.04 12.57 o
9 5 2 384.57 372.55 25.97 o
10 5 2 278.12 292.77 66.79 o
-10 6 2 240.34 227.66 28.15 o
-9 6 2 385.29 389.40 25.91 o
-8 6 2 10.35 1.30 11.17 <
-7 6 2 693.64 701.91 23.77 o
-6 6 2 2995.61 3018.36 37.91 o
-5 6 2 3617.00 3529.31 44.30 o
-4 6 2 526.67 510.95 15.69 o
-3 6 2 1832.59 1885.96 30.66 o
-2 6 2 313.02 298.45 12.86 o
-1 6 2 3576.39 3751.18 34.97 o
0 6 2 4984.70 4992.87 44.63 o
1 6 2 3596.23 3879.22 33.91 o
2 6 2 264.73 250.09 10.27 o
3 6 2 1878.40 1905.51 26.21 o
4 6 2 435.58 439.26 13.93 o
5 6 2 3753.98 3548.96 46.54 o
6 6 2 2982.88 2881.84 46.88 o
7 6 2 798.97 782.68 25.86 o
8 6 2 9.30 27.02 10.76 <
9 6 2 429.86 399.47 27.84 o
10 6 2 233.51 244.91 57.72 o
-10 7 2 452.56 477.75 47.30 o
-9 7 2 507.98 532.19 35.60 o
-8 7 2 985.93 966.27 42.50 o
-7 7 2 553.86 546.25 22.29 o
-6 7 2 2.20 -5.48 7.18 <
-5 7 2 2241.84 2238.07 36.16 o
-4 7 2 16.96 13.86 5.79 <
-3 7 2 10625.50 10414.10 77.09 o
-2 7 2 85.02 100.12 8.03 o
-1 7 2 502.83 459.20 14.84 o
0 7 2 44.18 39.89 6.39 o
1 7 2 475.85 424.20 14.58 o
2 7 2 102.91 115.07 7.33 o
3 7 2 10622.20 10424.40 68.72 o
4 7 2 15.26 10.57 5.29 <
5 7 2 2309.43 2230.69 35.66 o
6 7 2 2.30 -3.19 6.38 <
7 7 2 480.92 456.11 20.89 o
8 7 2 1035.11 1048.33 40.29 o
9 7 2 474.90 454.21 34.58 o
10 7 2 458.05 493.80 80.71 o
-10 8 2 564.04 676.29 55.50 o
-9 8 2 13.30 13.06 15.36 <
-8 8 2 1005.06 1037.96 44.67 o
-7 8 2 9.91 16.65 12.56 <
-6 8 2 4493.51 4529.48 63.14 o
-5 8 2 1690.29 1647.44 32.99 o
-4 8 2 1316.66 1307.00 26.65 o
-3 8 2 302.53 292.37 12.43 o
-2 8 2 1468.59 1480.71 24.54 o
-1 8 2 4853.39 4864.43 44.95 o
0 8 2 12325.70 12547.90 73.86 o
1 8 2 4973.02 4978.51 45.31 o
2 8 2 1783.32 1773.98 26.20 o
3 8 2 341.73 321.89 11.22 o
4 8 2 1178.39 1175.47 21.28 o
5 8 2 1823.82 1768.00 29.63 o
6 8 2 4403.86 4373.02 54.32 o
7 8 2 12.21 26.43 10.56 <
8 8 2 997.49 985.71 40.36 o
9 8 2 15.71 50.16 16.53 o
-9 9 2 600.15 647.37 39.89 o
-8 9 2 1344.99 1336.52 51.11 o
-7 9 2 722.42 687.45 35.39 o
-6 9 2 133.65 151.57 16.31 o
-5 9 2 159.03 171.71 12.42 o
-4 9 2 2807.17 2699.36 44.58 o
-3 9 2 54.63 56.04 6.68 o
-2 9 2 1397.79 1378.90 23.73 o
-1 9 2 3622.95 3554.34 38.91 o
0 9 2 217.50 184.88 12.80 o
1 9 2 3690.13 3592.83 47.88 o
2 9 2 1482.56 1432.15 23.38 o
3 9 2 54.47 62.12 6.46 o
4 9 2 2672.52 2667.05 30.84 o
5 9 2 149.40 161.94 10.12 o
6 9 2 115.65 122.65 10.85 o
7 9 2 758.41 760.65 34.09 o
8 9 2 1386.69 1344.69 54.43 o
9 9 2 606.45 571.08 45.49 o
-9 10 2 508.90 486.62 70.64 o
-8 10 2 21.56 26.33 13.86 <
-7 10 2 428.95 440.55 28.77 o
-6 10 2 140.85 129.04 14.29 o
-5 10 2 65.90 44.77 10.40 o
-4 10 2 30.20 34.10 7.97 o
-3 10 2 1670.43 1523.69 30.32 o
-2 10 2 58.05 60.83 7.77 o
-1 10 2 117.13 125.25 10.05 o
0 10 2 694.61 665.62 20.11 o
1 10 2 125.43 136.71 9.93 o
2 10 2 52.46 52.25 6.48 o
3 10 2 1513.39 1506.14 26.24 o
4 10 2 25.65 20.74 5.59 o
5 10 2 74.67 77.48 7.67 o
6 10 2 117.53 108.49 15.08 o
7 10 2 376.08 348.71 28.71 o
8 10 2 22.53 41.78 16.64 <
9 10 2 506.02 470.47 46.96 o
-8 11 2 565.37 601.10 41.45 o
-7 11 2 102.29 130.93 19.00 o
-6 11 2 344.20 347.02 23.02 o
-5 11 2 449.31 436.27 21.31 o
-4 11 2 32.62 29.12 8.38 o
-3 11 2 1849.76 1716.14 46.93 o
-2 11 2 226.31 222.27 13.78 o
-1 11 2 1260.35 1220.74 33.69 o
0 11 2 13.00 16.05 7.18 <
1 11 2 1486.60 1425.07 31.09 o
2 11 2 188.73 193.15 11.55 o
3 11 2 1820.57 1779.26 31.35 o
4 11 2 39.43 44.47 6.77 o
5 11 2 395.35 390.10 15.69 o
6 11 2 331.24 366.36 24.80 o
7 11 2 88.99 67.11 16.28 o
8 11 2 505.86 448.23 35.01 o
9 11 2 104.19 118.76 27.71 o
-8 12 2 1956.53 1959.25 88.93 o
-7 12 2 20.70 44.67 17.54 <
-6 12 2 589.97 554.03 31.68 o
-5 12 2 15.87 15.06 10.47 <
-4 12 2 514.91 471.07 20.13 o
-3 12 2 393.99 380.52 20.01 o
-2 12 2 1490.96 1440.52 40.87 o
-1 12 2 3.29 4.29 8.18 <
0 12 2 5.84 26.72 9.36 <
1 12 2 2.70 11.67 6.98 <
2 12 2 1532.56 1597.68 29.29 o
3 12 2 324.63 341.04 16.46 o
4 12 2 560.03 524.52 18.23 o
5 12 2 13.93 24.33 8.57 <
6 12 2 545.43 509.86 30.87 o
7 12 2 19.37 35.10 16.15 <
8 12 2 1893.97 1897.73 69.88 o
9 12 2 313.40 313.31 53.85 o
-8 13 2 80.03 90.44 38.68 <
-7 13 2 516.36 489.21 38.49 o
-6 13 2 223.28 217.38 24.74 o
-5 13 2 4384.36 4346.00 74.29 o
-4 13 2 51.05 41.78 9.09 o
-3 13 2 1470.68 1425.07 36.58 o
-2 13 2 121.21 88.55 11.94 o
-1 13 2 2177.26 2136.85 49.53 o
0 13 2 19.33 34.20 9.06 o
1 13 2 2246.93 2227.59 38.00 o
2 13 2 112.04 105.30 9.20 o
3 13 2 1392.38 1402.93 29.58 o
4 13 2 57.59 66.01 8.96 o
5 13 2 4304.75 4324.76 82.79 o
6 13 2 181.31 174.21 22.75 o
7 13 2 551.93 578.06 38.49 o
8 13 2 87.96 106.50 28.10 o
-7 14 2 1335.09 1330.04 63.25 o
-6 14 2 340.59 322.99 29.67 o
-5 14 2 70.67 63.72 14.87 o
-4 14 2 1221.24 1215.86 32.46 o
-3 14 2 137.98 141.90 13.05 o
-2 14 2 2081.35 2051.09 47.72 o
-1 14 2 964.24 932.16 31.86 o
0 14 2 1194.59 1182.15 34.22 o
1 14 2 999.05 988.20 26.14 o
2 14 2 2047.65 2141.44 35.75 o
3 14 2 114.20 126.44 12.83 o
4 14 2 1202.33 1211.07 44.41 o
5 14 2 61.52 77.48 16.53 o
6 14 2 333.62 322.29 29.45 o
7 14 2 1472.81 1542.83 62.37 o
8 14 2 472.05 535.39 59.59 o
-7 15 2 362.56 346.42 62.25 o
-6 15 2 8.30 16.35 14.76 <
-5 15 2 78.74 75.19 19.25 o
-4 15 2 471.00 455.61 29.28 o
-3 15 2 123.00 131.23 17.14 o
-2 15 2 852.90 786.47 30.68 o
-1 15 2 860.45 818.28 30.52 o
0 15 2 79.29 99.82 12.32 o
1 15 2 773.45 736.42 23.35 o
2 15 2 808.40 830.35 26.24 o
3 15 2 110.93 119.56 16.24 o
4 15 2 459.58 467.58 25.59 o
5 15 2 72.34 81.47 16.34 o
6 15 2 10.21 34.90 16.24 <
7 15 2 345.42 268.44 46.10 o
-7 16 2 6.15 30.61 22.63 <
-6 16 2 631.43 600.80 54.24 o
-5 16 2 31.10 46.87 17.14 <
-4 16 2 175.44 168.82 19.36 o
-3 16 2 40.87 27.82 14.07 <
-2 16 2 58.19 50.26 16.16 o
-1 16 2 549.71 579.56 34.47 o
0 16 2 262.16 294.67 20.32 o
1 16 2 566.48 603.39 24.29 o
2 16 2 52.78 45.97 12.17 o
3 16 2 49.33 75.29 15.43 o
4 16 2 160.35 171.61 18.82 o
5 16 2 38.16 78.68 20.11 o
6 16 2 618.28 625.23 41.45 o
7 16 2 6.26 -17.35 29.81 <
-6 17 2 111.63 152.57 41.15 o
-5 17 2 51.86 35.50 17.46 <
-4 17 2 69.39 58.93 17.56 o
-3 17 2 4293.08 4287.76 97.59 o
-2 17 2 2.16 -5.38 13.86 <
-1 17 2 27.45 23.93 17.25 <
0 17 2 43.63 19.84 15.17 <
1 17 2 32.67 37.39 12.76 <
2 17 2 2.01 -7.88 11.57 <
3 17 2 4422.59 4558.50 97.56 o
4 17 2 60.97 95.83 18.81 o
5 17 2 51.87 59.23 17.34 o
6 17 2 115.12 156.76 32.46 o
-5 18 2 63.03 73.59 54.34 <
-4 18 2 1306.03 1248.37 68.00 o
-3 18 2 64.47 87.25 22.32 o
-2 18 2 715.32 706.10 49.69 o
-1 18 2 395.05 412.43 37.74 o
0 18 2 2013.85 2057.68 58.73 o
1 18 2 391.97 385.31 25.36 o
2 18 2 678.83 676.78 36.41 o
3 18 2 70.53 69.90 18.35 o
4 18 2 1325.23 1300.02 58.49 o
5 18 2 69.68 62.82 20.75 o
-4 19 2 314.50 268.04 49.43 o
-3 19 2 419.27 386.90 40.47 o
-2 19 2 173.21 171.32 29.22 o
-1 19 2 1077.57 1035.37 59.93 o
0 19 2 0.03 17.05 16.05 <
1 19 2 991.72 934.75 54.02 o
2 19 2 185.43 182.98 21.44 o
3 19 2 405.39 454.31 41.74 o
4 19 2 315.92 349.21 36.91 o
5 19 2 23.01 -5.19 33.11 <
-3 20 2 805.70 859.17 65.73 o
-2 20 2 112.85 112.78 26.13 o
-1 20 2 19.81 -4.89 19.15 <
0 20 2 21.29 60.93 22.41 <
1 20 2 16.16 3.99 20.44 <
2 20 2 107.23 95.13 27.83 o
3 20 2 817.18 804.92 61.57 o
4 20 2 110.10 91.14 25.75 o
-3 21 2 26.37 33.11 32.51 <
-2 21 2 17.28 14.06 24.23 <
-1 21 2 122.75 151.47 32.87 o
0 21 2 4.46 -14.96 27.92 <
1 21 2 119.97 101.41 27.34 o
2 21 2 14.14 42.88 32.80 <
-9 0 3 1143.69 1146.36 57.82 o
-7 0 3 1142.31 1120.53 44.52 o
-5 0 3 2050.34 2114.61 55.40 o
-3 0 3 516.17 509.36 24.57 o
-1 0 3 1252.98 1250.46 33.63 o
1 0 3 1150.09 1195.52 39.23 o
3 0 3 504.59 543.96 18.75 o
5 0 3 1963.85 1899.82 50.32 o
7 0 3 993.68 974.44 51.35 o
9 0 3 1299.02 1343.90 81.17 o
-10 1 3 543.84 595.22 43.19 o
-9 1 3 82.03 68.51 12.68 o
-8 1 3 567.08 640.79 28.09 o
-7 1 3 4.81 8.08 6.98 <
-6 1 3 832.19 799.64 24.72 o
-5 1 3 3327.54 3440.76 51.18 o
-4 1 3 590.99 624.53 18.45 o
-3 1 3 1758.56 1814.17 30.04 o
-2 1 3 1158.87 1196.71 27.49 o
-1 1 3 383.99 371.05 14.55 o
0 1 3 387.60 427.69 16.49 o
1 1 3 317.98 335.15 13.25 o
2 1 3 1367.86 1370.12 21.60 o
3 1 3 1718.42 1816.36 23.52 o
4 1 3 481.36 504.37 14.45 o
5 1 3 3491.80 3519.84 46.91 o
6 1 3 985.77 942.13 24.49 o
7 1 3 3.94 14.26 8.77 <
8 1 3 459.09 426.59 29.45 o
9 1 3 68.77 100.22 24.60 o
10 1 3 496.07 415.62 51.04 o
-10 2 3 67.25 72.20 21.53 o
-9 2 3 349.83 395.48 24.04 o
-8 2 3 1710.72 1860.33 46.12 o
-7 2 3 515.36 487.62 23.39 o
-6 2 3 12.60 16.45 7.28 <
-5 2 3 2275.28 2251.73 38.86 o
-4 2 3 184.99 165.73 10.75 o
-3 2 3 751.72 759.85 20.36 o
-2 2 3 3503.68 3567.90 48.01 o
-1 2 3 2875.74 2978.37 36.55 o
0 2 3 386.44 438.86 14.66 o
1 2 3 2522.70 2606.82 31.52 o
2 2 3 3346.34 3465.99 33.04 o
3 2 3 610.33 661.63 15.50 o
4 2 3 226.54 235.43 10.02 o
5 2 3 2626.93 2650.30 37.76 o
6 2 3 10.30 6.68 6.68 <
7 2 3 560.44 539.97 26.44 o
8 2 3 1614.74 1625.30 52.66 o
9 2 3 283.32 216.19 27.38 o
10 2 3 76.95 59.23 36.60 <
-10 3 3 236.08 246.60 32.79 o
-9 3 3 20.63 34.30 12.66 <
-8 3 3 533.48 535.39 27.31 o
-7 3 3 101.29 110.79 13.24 o
-6 3 3 212.03 218.58 13.63 o
-5 3 3 138.17 137.81 10.97 o
-4 3 3 141.05 126.94 9.33 o
-3 3 3 627.88 611.87 19.68 o
-2 3 3 772.95 782.98 22.74 o
-1 3 3 208.17 232.54 12.35 o
0 3 3 389.20 375.34 13.96 o
1 3 3 186.46 196.34 9.52 o
2 3 3 945.20 970.65 19.41 o
3 3 3 600.17 606.88 15.29 o
4 3 3 163.67 163.64 8.97 o
5 3 3 118.49 123.35 10.26 o
6 3 3 206.89 189.66 14.72 o
7 3 3 117.83 139.40 14.71 o
8 3 3 654.52 559.62 37.40 o
9 3 3 17.64 20.34 16.65 <
10 3 3 266.27 281.60 60.91 o
-10 4 3 146.12 168.52 22.59 o
-9 4 3 20.03 0.00 14.06 <
-8 4 3 153.25 170.92 15.91 o
-7 4 3 86.60 97.32 12.54 o
-6 4 3 1097.68 1135.39 28.32 o
-5 4 3 1355.29 1341.00 32.37 o
-4 4 3 330.03 339.94 20.60 o
-3 4 3 338.04 338.44 16.85 o
-2 4 3 191.93 218.48 15.46 o
-1 4 3 1097.26 1102.08 26.97 o
0 4 3 13256.80 14376.90 286.47 o
1 4 3 1249.28 1230.22 22.62 o
2 4 3 197.48 219.88 9.64 o
3 4 3 281.00 275.02 10.71 o
4 4 3 340.72 321.09 14.18 o
5 4 3 1159.94 1118.14 29.84 o
6 4 3 1198.80 1274.39 33.36 o
7 4 3 101.36 114.48 15.73 o
8 4 3 125.74 138.31 22.62 o
9 4 3 16.32 22.34 15.25 <
-10 5 3 429.90 480.54 68.12 o
-9 5 3 85.70 88.75 17.05 o
-8 5 3 811.85 793.26 33.23 o
-7 5 3 133.27 132.23 13.96 o
-6 5 3 456.69 477.05 21.42 o
-5 5 3 123.76 147.88 13.90 o
-4 5 3 1037.08 1019.81 34.84 o
-3 5 3 56.90 57.74 8.77 o
-2 5 3 1088.03 1043.35 27.98 o
-1 5 3 248.47 231.24 15.33 o
0 5 3 233.70 240.92 11.93 o
1 5 3 243.29 243.11 11.67 o
2 5 3 950.76 961.58 23.62 o
3 5 3 69.96 75.29 7.17 o
4 5 3 1196.33 1202.40 27.45 o
5 5 3 119.09 117.37 11.37 o
6 5 3 416.15 389.30 23.06 o
7 5 3 114.18 130.13 17.22 o
8 5 3 782.01 795.85 43.61 o
9 5 3 105.41 104.90 24.83 o
-10 6 3 24.51 -0.40 25.83 <
-9 6 3 528.40 534.39 36.57 o
-8 6 3 360.88 385.61 26.83 o
-7 6 3 148.02 148.98 16.85 o
-6 6 3 344.91 365.86 21.75 o
-5 6 3 534.70 539.27 24.60 o
-4 6 3 335.43 326.08 18.39 o
-3 6 3 1268.92 1241.29 32.59 o
-2 6 3 356.04 362.08 18.52 o
-1 6 3 401.08 367.06 16.66 o
0 6 3 1870.19 1849.96 30.94 o
1 6 3 480.81 471.37 15.24 o
2 6 3 312.80 313.21 13.66 o
3 6 3 1139.17 1133.49 23.31 o
4 6 3 324.65 307.23 15.15 o
5 6 3 507.58 487.42 20.87 o
6 6 3 341.98 340.44 22.04 o
7 6 3 181.87 187.37 20.13 o
8 6 3 312.92 317.30 26.61 o
9 6 3 446.94 397.67 42.21 o
-10 7 3 320.69 221.27 47.41 o
-9 7 3 201.95 172.01 23.79 o
-8 7 3 82.69 43.78 13.70 o
-7 7 3 33.02 21.34 11.87 <
-6 7 3 742.37 776.00 32.90 o
-5 7 3 17.79 30.81 8.76 o
-4 7 3 994.92 986.81 29.79 o
-3 7 3 3155.74 3130.04 57.61 o
-2 7 3 78.69 62.52 9.40 o
-1 7 3 70.84 53.15 8.31 o
0 7 3 375.95 367.36 15.41 o
1 7 3 65.26 50.86 7.11 o
2 7 3 95.81 86.06 7.71 o
3 7 3 3324.94 3419.22 38.01 o
4 7 3 1220.40 1208.98 32.62 o
5 7 3 14.48 36.60 9.36 o
6 7 3 604.57 619.55 29.73 o
7 7 3 30.43 40.09 12.16 o
8 7 3 95.09 105.40 17.83 o
-9 8 3 125.93 115.97 37.70 o
-8 8 3 757.26 765.33 42.24 o
-7 8 3 271.37 236.93 24.33 o
-6 8 3 9.45 22.84 12.06 <
-5 8 3 551.08 554.33 25.61 o
-4 8 3 60.47 49.96 9.59 o
-3 8 3 531.36 525.81 23.57 o
-2 8 3 784.70 765.53 28.16 o
-1 8 3 142.87 134.52 11.20 o
0 8 3 166.97 186.87 11.08 o
1 8 3 175.51 203.52 13.66 o
2 8 3 778.58 789.66 22.33 o
3 8 3 630.10 647.37 20.70 o
4 8 3 61.28 59.33 9.28 o
5 8 3 614.09 636.90 26.68 o
6 8 3 7.82 -10.17 12.86 <
7 8 3 319.92 327.47 26.40 o
8 8 3 747.71 759.65 40.63 o
-8 9 3 41.20 65.41 16.23 o
-7 9 3 7.59 19.64 14.16 <
-6 9 3 289.35 272.93 24.58 o
-5 9 3 2805.59 2806.56 59.92 o
-4 9 3 356.87 350.11 18.38 o
-3 9 3 390.07 394.48 20.72 o
-2 9 3 253.38 205.32 17.02 o
-1 9 3 333.63 297.76 15.55 o
0 9 3 937.25 864.95 26.19 o
1 9 3 384.84 343.93 16.30 o
2 9 3 308.20 306.83 15.96 o
3 9 3 372.64 363.87 17.90 o
4 9 3 332.62 317.30 18.02 o
5 9 3 2776.90 2836.07 53.32 o
6 9 3 313.58 298.55 24.38 o
7 9 3 9.04 38.29 14.04 <
8 9 3 48.27 76.88 18.62 o
9 9 3 184.68 97.92 55.60 <
-8 10 3 55.64 76.88 20.32 o
-7 10 3 534.34 511.85 34.39 o
-6 10 3 272.59 236.83 24.43 o
-5 10 3 634.85 595.22 29.73 o
-4 10 3 358.60 334.95 18.27 o
-3 10 3 405.72 379.03 20.48 o
-2 10 3 1049.43 1068.97 30.53 o
-1 10 3 691.62 647.97 21.89 o
0 10 3 92.70 104.50 10.34 o
1 10 3 561.05 528.50 22.35 o
2 10 3 1059.73 1129.10 33.60 o
3 10 3 411.75 426.79 19.56 o
4 10 3 422.19 442.55 22.03 o
5 10 3 514.56 476.35 27.70 o
6 10 3 334.71 306.63 25.12 o
7 10 3 574.56 581.65 40.26 o
8 10 3 45.91 28.02 20.45 <
9 10 3 506.26 614.86 103.14 o
-7 11 3 32.17 13.26 13.97 <
-6 11 3 70.27 83.46 16.84 o
-5 11 3 371.64 392.69 27.54 o
-4 11 3 400.96 367.16 17.35 o
-3 11 3 1202.82 1199.90 31.44 o
-2 11 3 700.84 626.13 23.79 o
-1 11 3 222.25 214.09 13.80 o
0 11 3 359.75 316.60 19.34 o
1 11 3 205.99 191.56 16.20 o
2 11 3 858.63 886.89 26.17 o
3 11 3 1239.59 1266.42 39.66 o
4 11 3 331.76 307.63 21.24 o
5 11 3 426.23 403.86 31.89 o
6 11 3 74.66 78.18 15.25 o
7 11 3 35.07 48.76 17.04 <
8 11 3 366.17 307.93 52.05 o
-7 12 3 204.47 184.08 27.76 o
-6 12 3 210.62 197.64 21.07 o
-5 12 3 726.57 681.67 37.62 o
-4 12 3 672.05 650.66 29.35 o
-3 12 3 9.74 10.47 9.17 <
-2 12 3 1595.91 1437.33 38.95 o
-1 12 3 1561.18 1563.87 36.87 o
0 12 3 681.81 706.00 24.85 o
1 12 3 1303.95 1205.09 37.67 o
2 12 3 1924.54 1904.61 40.44 o
3 12 3 8.99 22.64 10.96 <
4 12 3 642.73 636.00 28.36 o
5 12 3 884.86 930.57 44.42 o
6 12 3 170.66 205.32 24.06 o
7 12 3 183.91 127.84 24.82 o
8 12 3 396.71 478.85 80.85 o
-7 13 3 443.90 392.19 72.37 o
-6 13 3 101.50 86.36 20.86 o
-5 13 3 258.61 268.54 24.00 o
-4 13 3 506.54 480.14 29.43 o
-3 13 3 859.00 814.59 36.86 o
-2 13 3 630.14 603.89 27.98 o
-1 13 3 1472.39 1409.61 36.95 o
0 13 3 2.13 15.95 9.07 <
1 13 3 1608.02 1685.63 41.36 o
2 13 3 774.00 753.97 26.28 o
3 13 3 934.53 1046.44 34.23 o
4 13 3 440.19 406.15 26.57 o
5 13 3 225.40 260.06 26.34 o
6 13 3 124.41 155.06 23.88 o
7 13 3 484.43 501.48 51.81 o
8 13 3 196.99 138.91 44.03 o
-6 14 3 37.68 40.19 18.35 <
-5 14 3 411.36 354.99 32.88 o
-4 14 3 74.45 63.72 14.27 o
-3 14 3 209.69 187.37 23.78 o
-2 14 3 188.60 175.01 22.17 o
-1 14 3 293.04 273.83 19.82 o
0 14 3 1139.62 1165.60 35.98 o
1 14 3 357.58 359.68 18.44 o
2 14 3 228.38 266.35 20.02 o
3 14 3 248.04 244.41 20.55 o
4 14 3 72.24 87.75 18.33 o
5 14 3 333.67 302.64 31.69 o
6 14 3 30.59 21.84 16.16 <
7 14 3 106.18 43.68 39.32 <
-6 15 3 24.52 39.89 29.31 <
-5 15 3 86.27 82.17 20.05 o
-4 15 3 28.23 24.93 13.46 <
-3 15 3 141.65 133.92 20.95 o
-2 15 3 950.41 910.22 44.80 o
-1 15 3 225.60 205.42 18.81 o
0 15 3 207.29 184.98 17.71 o
1 15 3 196.56 173.41 16.92 o
2 15 3 834.59 825.86 35.45 o
3 15 3 154.53 169.92 17.91 o
4 15 3 33.88 30.51 13.07 <
5 15 3 72.38 81.97 20.23 o
6 15 3 28.21 65.51 29.50 <
-6 16 3 82.44 122.06 41.65 <
-5 16 3 44.59 60.43 27.51 <
-4 16 3 85.81 100.71 19.53 o
-3 16 3 944.42 953.90 44.12 o
-2 16 3 104.21 55.14 15.91 o
-1 16 3 104.85 105.50 16.65 o
0 16 3 137.22 146.98 19.43 o
1 16 3 90.51 71.60 14.59 o
2 16 3 117.89 137.01 15.71 o
3 16 3 820.32 814.20 44.40 o
4 16 3 69.56 48.86 17.87 <
5 16 3 51.12 87.55 24.20 o
-5 17 3 216.66 216.19 45.27 o
-4 17 3 56.53 17.35 21.75 <
-3 17 3 70.09 33.70 17.97 <
-2 17 3 249.43 211.50 27.01 o
-1 17 3 573.46 564.10 40.42 o
0 17 3 236.54 189.66 21.56 o
1 17 3 640.93 663.82 32.68 o
2 17 3 269.33 259.27 22.37 o
3 17 3 84.82 82.07 19.15 o
4 17 3 66.57 92.94 19.71 o
5 17 3 199.10 186.27 56.35 o
-3 18 3 492.66 483.53 40.22 o
-2 18 3 19.89 33.31 17.15 <
-1 18 3 227.88 274.42 29.91 o
0 18 3 6.95 16.35 17.35 <
1 18 3 229.83 247.40 21.29 o
2 18 3 18.64 21.84 14.86 <
3 18 3 474.86 522.52 54.83 o
4 18 3 152.27 219.98 60.67 o
-3 19 3 60.46 60.43 33.11 <
-2 19 3 804.45 839.03 49.81 o
-1 19 3 281.58 264.35 31.15 o
0 19 3 151.68 149.98 22.54 o
1 19 3 346.15 331.56 40.42 o
2 19 3 669.58 836.83 98.07 o
3 19 3 74.22 94.73 42.87 <
4 19 3 270.15 370.75 69.47 o
-2 20 3 543.68 535.78 48.79 o
-1 20 3 282.12 237.73 29.62 o
0 20 3 35.78 22.64 16.26 <
1 20 3 319.89 293.07 50.70 o
-8 0 4 959.09 951.11 54.98 o
-6 0 4 3212.17 3199.34 91.76 o
-4 0 4 747.13 741.60 51.18 o
-2 0 4 1406.37 1416.59 59.07 o
0 0 4 28819.60 32135.30 85.87 o
2 0 4 1638.16 1781.26 42.03 o
4 0 4 816.89 867.45 37.49 o
6 0 4 3300.83 3383.32 94.55 o
8 0 4 1000.08 958.29 59.61 o
-9 1 4 618.36 596.61 46.34 o
-8 1 4 194.05 210.70 20.10 o
-7 1 4 1116.57 1172.08 39.96 o
-6 1 4 328.31 295.26 21.66 o
-5 1 4 286.67 261.36 19.74 o
-4 1 4 129.56 138.61 17.43 o
-3 1 4 2986.66 3091.45 60.02 o
-2 1 4 1643.09 1647.14 42.94 o
-1 1 4 580.41 615.56 22.18 o
0 1 4 47.51 45.97 8.18 o
1 1 4 501.96 473.06 20.13 o
2 1 4 1874.97 1898.53 31.64 o
3 1 4 2852.67 2994.32 41.37 o
4 1 4 136.56 149.68 11.12 o
5 1 4 308.87 305.14 16.97 o
6 1 4 336.61 303.74 21.86 o
7 1 4 1030.91 1035.47 40.55 o
8 1 4 220.11 271.83 27.59 o
9 1 4 595.74 565.50 46.97 o
-9 2 4 31.58 19.54 30.32 <
-8 2 4 426.66 409.34 26.80 o
-7 2 4 298.14 308.43 21.60 o
-6 2 4 80.42 62.62 12.49 o
-5 2 4 956.19 888.29 32.62 o
-4 2 4 1501.44 1452.99 47.27 o
-3 2 4 733.21 686.66 30.11 o
-2 2 4 288.13 291.28 19.23 o
-1 2 4 1310.64 1389.17 33.05 o
0 2 4 351.42 331.46 15.77 o
1 2 4 1147.13 1175.17 29.02 o
2 2 4 275.90 262.76 12.34 o
3 2 4 614.71 597.61 19.88 o
4 2 4 1360.36 1368.73 30.81 o
5 2 4 954.31 923.09 31.36 o
6 2 4 68.06 40.59 11.80 o
7 2 4 248.84 258.87 22.91 o
8 2 4 446.66 425.70 30.99 o
9 2 4 28.03 19.84 22.04 <
-9 3 4 6.65 8.18 22.74 <
-8 3 4 86.64 93.93 16.64 o
-7 3 4 188.62 197.44 20.22 o
-6 3 4 670.30 725.65 33.59 o
-5 3 4 140.21 131.33 15.68 o
-4 3 4 926.23 927.58 32.60 o
-3 3 4 787.67 759.75 31.49 o
-2 3 4 23.19 34.60 9.16 o
-1 3 4 631.51 592.92 24.59 o
0 3 4 896.05 933.26 27.39 o
1 3 4 698.57 747.18 21.60 o
2 3 4 24.75 22.44 5.69 o
3 3 4 656.39 680.08 21.64 o
4 3 4 927.89 970.85 26.31 o
5 3 4 137.28 148.28 12.83 o
6 3 4 599.22 632.01 33.54 o
7 3 4 178.06 142.80 19.22 o
8 3 4 70.34 28.72 17.98 <
9 3 4 6.59 3.39 34.90 <
-9 4 4 262.62 243.31 52.97 o
-8 4 4 974.66 1023.70 46.59 o
-7 4 4 237.22 241.62 21.83 o
-6 4 4 54.19 62.32 13.75 o
-5 4 4 515.23 493.90 26.04 o
-4 4 4 93.36 97.52 15.05 o
-3 4 4 112.34 86.95 15.40 o
-2 4 4 1885.69 1917.27 38.98 o
-1 4 4 327.88 292.87 18.30 o
0 4 4 917.90 933.66 29.08 o
1 4 4 385.17 408.54 19.62 o
2 4 4 1538.93 1526.08 29.79 o
3 4 4 120.19 106.90 10.61 o
4 4 4 83.96 73.79 9.79 o
5 4 4 514.35 525.91 26.26 o
6 4 4 65.72 73.69 14.65 o
7 4 4 258.63 241.91 22.98 o
8 4 4 905.91 876.52 58.45 o
9 4 4 229.36 237.43 58.23 o
-8 5 4 265.53 291.38 29.05 o
-7 5 4 328.90 289.88 24.26 o
-6 5 4 55.54 46.07 13.07 o
-5 5 4 3192.87 3175.11 63.26 o
-4 5 4 136.38 96.53 14.84 o
-3 5 4 772.04 812.50 33.35 o
-2 5 4 8.39 12.96 10.37 <
-1 5 4 1270.10 1232.01 39.21 o
0 5 4 58.96 45.57 8.40 o
1 5 4 1278.28 1293.14 31.25 o
2 5 4 10.12 22.24 7.37 o
3 5 4 635.68 636.50 26.42 o
4 5 4 133.25 138.01 15.05 o
5 5 4 3093.60 3350.52 61.06 o
6 5 4 66.81 66.41 14.16 o
7 5 4 404.09 395.38 28.75 o
8 5 4 221.51 182.09 37.95 o
9 5 4 262.72 209.81 57.39 o
-8 6 4 656.79 583.45 47.62 o
-7 6 4 114.55 102.41 17.27 o
-6 6 4 129.36 114.58 15.29 o
-5 6 4 630.87 624.23 27.36 o
-4 6 4 725.46 783.78 31.23 o
-3 6 4 208.22 214.59 18.33 o
-2 6 4 2909.14 2954.34 60.75 o
-1 6 4 30.75 44.17 10.36 o
0 6 4 79.37 89.45 12.85 o
1 6 4 29.13 14.96 9.78 <
2 6 4 2925.59 3143.00 48.83 o
3 6 4 223.19 233.84 16.71 o
4 6 4 798.55 888.19 33.60 o
5 6 4 549.43 520.63 27.97 o
6 6 4 139.93 114.28 16.70 o
7 6 4 130.02 172.71 23.86 o
8 6 4 672.16 604.49 80.91 o
-9 7 4 47.23 103.21 34.07 o
-8 7 4 239.99 260.66 37.46 o
-7 7 4 88.66 93.93 17.04 o
-6 7 4 65.67 75.98 14.45 o
-5 7 4 410.70 394.08 25.00 o
-4 7 4 381.06 341.83 20.72 o
-3 7 4 108.46 111.48 14.05 o
-2 7 4 45.19 37.89 10.28 o
-1 7 4 7.51 -4.89 11.47 <
0 7 4 539.42 521.72 26.82 o
1 7 4 6.48 13.86 8.77 <
2 7 4 41.46 37.29 8.58 o
3 7 4 88.31 83.96 12.47 o
4 7 4 371.37 366.36 23.35 o
5 7 4 452.72 485.03 28.88 o
6 7 4 60.71 49.96 15.96 o
7 7 4 73.14 32.51 15.19 <
8 7 4 249.68 298.16 61.07 o
-8 8 4 13.75 36.00 27.62 <
-7 8 4 318.02 323.98 31.59 o
-6 8 4 21.54 28.92 13.46 <
-5 8 4 427.55 427.19 27.82 o
-4 8 4 75.21 66.61 11.98 o
-3 8 4 215.62 232.24 16.89 o
-2 8 4 8.45 21.04 10.96 <
-1 8 4 750.18 751.97 32.30 o
0 8 4 472.50 475.75 25.11 o
1 8 4 738.06 730.73 30.76 o
2 8 4 8.88 12.17 7.48 <
3 8 4 175.27 153.27 17.70 o
4 8 4 74.11 70.50 15.36 o
5 8 4 396.75 439.26 34.16 o
6 8 4 17.61 30.51 16.85 <
7 8 4 384.51 431.38 35.55 o
-8 9 4 141.54 135.12 40.39 o
-7 9 4 70.47 74.89 22.43 o
-6 9 4 51.33 76.88 18.02 o
-5 9 4 128.32 124.05 17.66 o
-4 9 4 498.41 436.86 31.15 o
-3 9 4 1090.94 1043.35 33.31 o
-2 9 4 848.64 802.03 34.30 o
-1 9 4 468.63 482.73 24.46 o
0 9 4 90.12 76.18 11.10 o
1 9 4 389.08 319.10 25.18 o
2 9 4 862.55 802.43 36.86 o
3 9 4 1037.98 1006.65 53.11 o
4 9 4 607.03 659.43 33.54 o
5 9 4 157.42 166.63 22.02 o
6 9 4 42.59 47.37 14.85 o
7 9 4 58.91 34.70 30.92 <
-7 10 4 14.18 64.52 33.19 <
-6 10 4 724.75 715.47 42.12 o
-5 10 4 21.96 42.78 15.34 <
-4 10 4 522.68 529.00 32.78 o
-3 10 4 332.28 324.08 26.35 o
-2 10 4 1634.00 1608.25 41.85 o
-1 10 4 85.37 75.49 12.58 o
0 10 4 5866.10 5620.89 90.00 o
1 10 4 72.53 62.82 13.28 o
2 10 4 1463.41 1331.53 49.35 o
3 10 4 361.24 406.95 34.36 o
4 10 4 496.66 617.75 45.06 o
5 10 4 19.55 11.37 14.46 <
6 10 4 740.73 842.12 43.17 o
-6 11 4 281.80 273.53 26.95 o
-5 11 4 649.39 663.82 37.93 o
-4 11 4 39.86 36.50 15.86 <
-3 11 4 3035.34 3097.83 74.30 o
-2 11 4 987.56 937.25 36.75 o
-1 11 4 455.26 430.28 28.42 o
0 11 4 82.50 74.19 15.97 o
1 11 4 441.45 422.80 24.72 o
2 11 4 1014.55 973.74 41.84 o
3 11 4 3149.23 3229.96 77.29 o
4 11 4 37.36 5.58 19.45 <
5 11 4 561.41 505.67 44.85 o
6 11 4 303.99 348.41 34.39 o
-6 12 4 142.95 125.44 37.01 o
-5 12 4 95.24 70.90 17.58 o
-4 12 4 1103.82 1049.73 53.44 o
-3 12 4 187.88 155.66 19.42 o
-2 12 4 23.25 13.96 11.27 <
-1 12 4 31.34 13.56 12.07 <
0 12 4 30.94 26.13 13.07 <
1 12 4 25.44 51.06 15.14 o
2 12 4 22.82 21.64 11.97 <
3 12 4 203.11 209.21 23.02 o
4 12 4 1157.74 1211.97 60.44 o
5 12 4 100.83 111.58 23.22 o
6 12 4 139.03 102.51 35.73 <
-5 13 4 209.94 236.83 32.96 o
-4 13 4 45.84 54.75 18.44 <
-3 13 4 14.30 29.52 15.55 <
-2 13 4 239.79 260.06 23.88 o
-1 13 4 27.21 58.73 14.73 o
0 13 4 1.30 11.87 11.47 <
1 13 4 30.99 41.98 14.35 <
2 13 4 256.16 246.00 24.86 o
3 13 4 11.99 35.80 17.44 <
4 13 4 40.26 32.31 18.45 <
5 13 4 177.72 179.29 43.67 o
6 13 4 546.64 581.35 88.39 o
-5 14 4 199.70 154.06 36.35 o
-4 14 4 131.05 125.84 22.84 o
-3 14 4 8.57 -11.87 15.45 <
-2 14 4 4.51 19.84 13.86 <
-1 14 4 248.87 256.77 24.21 o
0 14 4 647.38 631.31 33.59 o
1 14 4 270.23 273.53 25.12 o
2 14 4 3.91 -16.15 13.66 <
3 14 4 10.47 -19.84 19.04 <
4 14 4 154.60 141.60 26.15 o
5 14 4 169.72 102.11 51.70 <
6 14 4 84.30 94.53 47.56 <
-5 15 4 617.08 766.03 89.03 o
-4 15 4 147.12 189.36 40.74 o
-3 15 4 846.50 838.33 49.00 o
-2 15 4 878.27 876.72 48.87 o
-1 15 4 246.88 198.94 21.47 o
0 15 4 0.02 -21.94 14.25 <
1 15 4 251.62 257.07 30.00 o
2 15 4 890.05 865.65 45.89 o
3 15 4 812.93 884.50 55.55 o
4 15 4 140.44 173.51 56.32 o
-4 16 4 547.45 550.44 59.42 o
-3 16 4 30.90 42.18 17.24 <
-2 16 4 1112.39 1005.16 64.58 o
-1 16 4 319.93 320.29 36.00 o
0 16 4 225.78 198.64 24.59 o
1 16 4 259.55 209.71 33.59 o
2 16 4 1196.99 1163.71 72.44 o
3 16 4 26.01 79.18 31.48 <
4 16 4 548.09 601.80 88.36 o
-3 17 4 271.14 250.49 65.54 o
-2 17 4 65.54 54.45 25.34 <
-1 17 4 502.14 427.79 44.58 o
0 17 4 16.82 18.45 23.13 <
1 17 4 580.61 529.10 45.34 o
2 17 4 72.78 88.15 30.70 <
3 17 4 269.21 310.82 69.66 o
-2 18 4 44.49 14.06 39.79 <
-1 18 4 61.46 14.06 21.26 <
0 18 4 128.14 115.17 36.61 o
1 18 4 62.61 35.70 42.19 <
-7 0 5 148.82 175.60 60.01 <
-5 0 5 255.58 200.03 32.81 o
-3 0 5 310.59 301.45 33.03 o
-1 0 5 89.41 97.92 21.43 o
1 0 5 91.37 57.54 15.40 o
3 0 5 296.65 326.88 33.93 o
5 0 5 275.54 336.55 34.05 o
7 0 5 148.68 178.00 36.66 o
-8 1 5 83.97 2.79 33.72 <
-7 1 5 137.18 81.17 29.27 <
-6 1 5 272.89 263.75 27.05 o
-5 1 5 1087.40 1077.15 47.33 o
-4 1 5 86.77 43.88 16.59 <
-3 1 5 508.97 500.18 28.46 o
-2 1 5 92.48 96.93 16.15 o
-1 1 5 235.37 238.23 20.83 o
0 1 5 256.95 248.20 19.57 o
1 1 5 211.92 203.42 18.07 o
2 1 5 99.71 104.21 14.95 o
3 1 5 424.94 484.83 27.15 o
4 1 5 104.20 114.38 15.94 o
5 1 5 1053.42 1130.60 42.04 o
6 1 5 228.19 196.34 21.22 o
7 1 5 158.84 168.42 27.21 o
8 1 5 68.46 38.59 21.66 <
-7 2 5 40.54 38.59 26.63 <
-6 2 5 106.39 103.21 16.36 o
-5 2 5 574.38 525.11 35.30 o
-4 2 5 142.55 95.83 19.02 o
-3 2 5 20.57 28.92 13.86 <
-2 2 5 925.05 952.21 39.21 o
-1 2 5 494.86 496.00 28.81 o
0 2 5 144.28 119.56 13.62 o
1 2 5 546.70 588.23 28.30 o
2 2 5 806.21 737.91 30.87 o
3 2 5 23.36 39.99 12.45 o
4 2 5 173.93 214.59 19.13 o
5 2 5 539.47 580.76 31.21 o
6 2 5 86.70 60.23 15.29 o
7 2 5 32.82 -14.96 14.46 <
-7 3 5 167.35 100.42 31.98 o
-6 3 5 152.61 148.48 21.35 o
-5 3 5 18.22 23.03 15.26 <
-4 3 5 105.17 128.64 21.50 o
-3 3 5 359.95 340.04 30.28 o
-2 3 5 82.89 118.56 16.99 o
-1 3 5 45.25 28.22 11.58 <
0 3 5 1.41 43.88 14.14 o
1 3 5 55.47 71.90 12.54 o
2 3 5 72.71 71.80 10.47 o
3 3 5 358.42 420.71 25.57 o
4 3 5 93.04 94.93 15.65 o
5 3 5 15.17 34.10 11.75 <
6 3 5 131.13 136.81 20.53 o
7 3 5 153.99 160.25 27.71 o
-7 4 5 26.03 20.04 23.73 <
-6 4 5 597.54 517.43 34.34 o
-5 4 5 384.49 388.80 35.39 o
-4 4 5 120.94 100.71 18.98 o
-3 4 5 61.84 47.47 16.07 <
-2 4 5 180.51 129.04 21.63 o
-1 4 5 494.53 594.02 32.75 o
0 4 5 3618.70 3587.45 80.84 o
1 4 5 403.38 313.51 21.82 o
2 4 5 216.47 250.99 18.33 o
3 4 5 63.29 67.31 13.76 o
4 4 5 136.07 144.09 16.83 o
5 4 5 472.57 525.51 32.49 o
6 4 5 621.13 691.64 39.07 o
7 4 5 21.97 43.08 24.12 <
-7 5 5 158.31 141.70 44.99 o
-6 5 5 13.03 15.46 13.06 <
-5 5 5 22.60 15.26 13.96 <
-4 5 5 565.88 625.43 36.63 o
-3 5 5 83.06 113.58 21.50 o
-2 5 5 824.47 707.40 46.57 o
-1 5 5 29.14 28.32 13.96 <
0 5 5 52.77 84.16 16.62 o
1 5 5 33.77 34.60 12.56 <
2 5 5 1009.05 1139.38 42.80 o
3 5 5 77.69 70.70 12.58 o
4 5 5 465.95 472.96 32.48 o
5 5 5 23.30 34.80 13.45 <
6 5 5 11.98 12.07 16.65 <
7 5 5 173.37 118.26 49.40 <
-7 6 5 184.24 124.55 41.84 <
-6 6 5 210.16 197.44 28.94 o
-5 6 5 185.79 141.00 21.53 o
-4 6 5 78.71 65.51 15.87 o
-3 6 5 282.91 248.60 27.51 o
-2 6 5 90.16 90.74 17.55 o
-1 6 5 416.06 412.33 31.03 o
0 6 5 1208.43 1191.23 48.97 o
1 6 5 364.14 368.16 25.21 o
2 6 5 81.41 84.26 16.05 o
3 6 5 296.71 317.60 21.66 o
4 6 5 77.60 99.12 20.42 o
5 6 5 214.71 214.19 26.92 o
6 6 5 207.57 264.95 47.39 o
7 6 5 158.82 109.79 50.19 <
-7 7 5 48.28 80.47 32.39 <
-6 7 5 466.40 476.75 62.20 o
-5 7 5 102.93 67.31 18.79 o
-4 7 5 174.82 173.51 23.44 o
-3 7 5 754.93 729.64 43.59 o
-2 7 5 345.83 371.55 29.93 o
-1 7 5 160.79 137.51 20.39 o
0 7 5 11.50 23.23 12.96 <
1 7 5 174.87 151.77 18.30 o
2 7 5 284.57 264.65 25.78 o
3 7 5 719.03 683.07 38.37 o
4 7 5 163.40 172.41 25.21 o
5 7 5 112.94 142.30 24.79 o
6 7 5 544.75 550.74 86.64 o
7 7 5 43.95 66.61 48.95 <
-7 8 5 326.90 388.30 60.63 o
-6 8 5 141.74 138.41 37.10 o
-5 8 5 53.45 76.38 18.72 o
-4 8 5 283.67 257.17 28.19 o
-3 8 5 53.40 34.40 13.08 <
-2 8 5 303.46 271.43 26.12 o
-1 8 5 69.04 106.10 19.20 o
0 8 5 539.88 460.50 31.74 o
1 8 5 59.45 44.27 15.77 <
2 8 5 269.11 251.39 30.35 o
3 8 5 54.35 45.27 14.57 o
4 8 5 268.21 267.44 30.81 o
5 8 5 49.79 18.65 17.27 <
6 8 5 120.11 37.10 46.20 <
-6 9 5 267.25 327.87 54.75 o
-5 9 5 2035.59 2194.99 95.18 o
-4 9 5 61.59 88.75 18.52 o
-3 9 5 558.75 505.77 34.91 o
-2 9 5 88.30 72.59 18.27 o
-1 9 5 87.23 65.12 17.57 o
0 9 5 0.43 31.01 14.65 <
1 9 5 98.42 98.02 20.24 o
2 9 5 102.07 158.35 24.85 o
3 9 5 482.69 499.98 42.43 o
4 9 5 50.03 43.48 18.75 <
5 9 5 1933.30 1939.81 154.04 o
6 9 5 231.91 164.53 57.50 <
-6 10 5 74.31 68.21 28.52 <
-5 10 5 271.88 194.55 41.19 o
-4 10 5 490.54 530.30 42.35 o
-3 10 5 152.36 198.64 23.04 o
-2 10 5 756.99 709.59 43.29 o
-1 10 5 52.72 12.86 15.87 <
0 10 5 167.32 160.65 22.25 o
1 10 5 47.26 18.35 20.65 <
2 10 5 733.63 712.68 47.55 o
3 10 5 123.56 97.82 23.66 o
4 10 5 523.95 491.61 44.57 o
5 10 5 240.76 153.87 53.73 <
6 10 5 79.95 48.66 35.71 <
-5 11 5 122.01 152.37 37.66 o
-4 11 5 99.29 140.60 27.57 o
-3 11 5 922.27 884.20 51.03 o
-2 11 5 344.62 312.32 27.52 o
-1 11 5 29.66 22.34 16.46 <
0 11 5 337.65 332.36 34.22 o
1 11 5 24.99 -6.88 18.45 <
2 11 5 312.95 331.66 35.55 o
3 11 5 877.22 996.88 61.13 o
4 11 5 87.66 80.67 40.39 <
5 11 5 99.44 199.24 88.70 <
-4 12 5 156.86 164.24 37.39 o
-3 12 5 86.57 81.47 24.63 o
-2 12 5 271.13 227.06 23.65 o
-1 12 5 572.79 572.68 39.89 o
0 12 5 199.14 188.47 29.53 o
1 12 5 580.15 642.48 47.55 o
2 12 5 276.93 306.03 37.33 o
3 12 5 88.18 122.55 38.86 o
4 12 5 144.64 77.88 63.55 <
5 12 5 193.26 174.61 73.40 <
-4 13 5 316.17 150.18 55.51 <
-3 13 5 279.01 238.13 34.38 o
-2 13 5 339.68 313.51 31.18 o
-1 13 5 249.19 184.38 25.07 o
0 13 5 13.32 6.48 16.35 <
1 13 5 291.71 217.48 33.95 o
2 13 5 326.24 230.05 56.66 o
3 13 5 302.49 247.00 55.71 o
4 13 5 388.27 346.02 89.39 o
-4 14 5 172.04 169.42 65.02 <
-3 14 5 86.80 196.24 38.97 o
-2 14 5 21.96 3.79 17.95 <
-1 14 5 95.94 105.80 27.61 o
0 14 5 954.66 816.29 65.50 o
1 14 5 98.52 44.08 33.03 <
2 14 5 17.97 -18.05 30.21 <
3 14 5 70.37 70.50 38.29 <
-1 15 5 75.52 92.04 36.39 <
0 15 5 173.85 145.19 36.03 o
1 15 5 74.98 79.18 39.98 <
2 15 5 239.39 255.48 55.12 o
-1 16 5 182.42 101.61 34.38 <
-4 0 6 72.55 79.18 47.06 <
-2 0 6 88.11 59.33 35.02 <
0 0 6 2107.38 2120.30 84.08 o
2 0 6 84.90 119.76 24.39 o
4 0 6 64.52 47.67 22.05 <
6 0 6 356.28 471.47 69.91 o
-6 1 6 50.74 -49.66 60.92 <
-5 1 6 87.20 40.49 43.09 <
-4 1 6 74.17 75.89 46.67 <
-3 1 6 101.63 83.96 25.15 o
-2 1 6 45.49 4.89 21.45 <
-1 1 6 192.20 207.21 26.79 o
0 1 6 29.04 42.18 16.74 <
1 1 6 162.57 158.45 23.94 o
2 1 6 46.79 42.58 13.17 o
3 1 6 118.61 171.91 20.03 o
4 1 6 64.72 91.84 18.72 o
5 1 6 107.03 179.99 27.11 o
6 1 6 59.79 74.69 36.89 <
-6 2 6 495.07 461.49 111.32 o
-5 2 6 217.08 135.32 74.74 <
-4 2 6 174.49 74.09 53.20 <
-3 2 6 27.15 1.70 23.24 <
-2 2 6 431.83 361.18 43.74 o
-1 2 6 401.05 233.74 32.12 o
0 2 6 679.57 633.01 47.44 o
1 2 6 481.61 498.19 32.44 o
2 2 6 447.72 530.30 32.67 o
3 2 6 32.67 14.76 13.87 <
4 2 6 213.43 303.54 28.59 o
5 2 6 246.68 275.72 41.23 o
-5 3 6 972.74 937.15 144.25 o
-4 3 6 409.89 282.20 70.16 o
-3 3 6 1140.06 868.54 66.08 o
-2 3 6 24.52 27.92 18.25 <
-1 3 6 204.61 177.40 29.46 o
0 3 6 17.78 2.29 17.15 <
1 3 6 227.29 261.36 25.34 o
2 3 6 22.50 1.00 14.56 <
3 3 6 1155.23 1269.41 48.70 o
4 3 6 488.00 668.41 47.96 o
5 3 6 879.17 775.31 69.33 o
-5 4 6 351.20 196.04 81.30 <
-4 4 6 317.86 192.16 85.35 <
-3 4 6 260.16 232.14 35.35 o
-2 4 6 149.21 152.07 29.81 o
-1 4 6 67.37 88.35 24.91 o
0 4 6 30.96 45.57 16.94 <
1 4 6 58.07 4.09 18.47 <
2 4 6 125.34 60.13 17.53 o
3 4 6 223.70 225.76 27.72 o
4 4 6 320.36 296.16 42.92 o
-5 5 6 642.55 451.02 107.14 o
-4 5 6 61.25 164.63 75.54 <
-3 5 6 20.73 74.99 33.48 <
-2 5 6 19.65 17.45 21.54 <
-1 5 6 105.84 119.36 22.12 o
0 5 6 413.54 360.48 38.13 o
1 5 6 95.88 78.18 21.16 o
2 5 6 22.93 21.04 17.95 <
3 5 6 23.21 31.51 20.44 <
4 5 6 53.24 44.37 38.79 <
-4 6 6 103.38 56.14 35.53 <
-3 6 6 68.08 47.07 19.06 <
-2 6 6 149.67 174.80 28.58 o
-1 6 6 202.51 156.86 28.29 o
0 6 6 197.22 212.00 30.99 o
1 6 6 206.34 171.81 27.68 o
2 6 6 125.96 68.31 23.39 <
3 6 6 71.69 54.25 23.35 <
-4 7 6 43.58 99.92 49.04 <
-3 7 6 1249.67 786.37 88.67 o
-2 7 6 18.96 4.59 17.45 <
-1 7 6 81.90 81.17 21.34 o
0 7 6 64.01 60.03 22.24 <
1 7 6 66.58 38.19 19.16 <
2 7 6 17.53 26.13 27.32 <
-4 8 6 332.20 252.68 72.58 o
-3 8 6 35.73 57.44 24.82 <
-2 8 6 659.71 530.00 66.51 o
-1 8 6 481.99 485.23 44.86 o
0 8 6 1088.93 779.59 70.25 o
1 8 6 512.02 494.30 45.22 o
2 8 6 812.09 969.85 106.94 o
-4 9 6 336.50 302.34 79.71 o
-3 9 6 38.52 93.04 38.36 <
-2 9 6 237.82 94.93 37.34 <
-1 9 6 297.98 250.89 33.80 o
0 9 6 146.62 124.15 25.36 o
1 9 6 296.64 264.05 33.97 o
-2 10 6 94.87 158.35 42.23 o
-1 10 6 101.41 116.77 32.39 o
0 10 6 405.60 342.53 46.20 o
1 10 6 105.63 118.07 52.05 <
-1 11 6 223.05 155.46 38.77 o
0 11 6 12.10 14.06 25.63 <
0 12 6 8.47 -88.45 43.54 <
loop_
_twin_individual_id
_twin_individual_mass_fraction_refined
_twin_individual_twin_matrix_11
_twin_individual_twin_matrix_12
_twin_individual_twin_matrix_13
_twin_individual_twin_matrix_21
_twin_individual_twin_matrix_22
_twin_individual_twin_matrix_23
_twin_individual_twin_matrix_31
_twin_individual_twin_matrix_32
_twin_individual_twin_matrix_33
1 0.5521(15) 1 0 0 0 1 0 0 0 1
2 0.4479(15) -1 0 0 0 -1 0 -0.005 0 1
loop_
_restr_distance_atom_site_label_1
_restr_distance_site_symmetry_1
_restr_distance_atom_site_label_2
_restr_distance_site_symmetry_2
_restr_distance_target
_restr_distance_target_weight_param
O1 . H5 . 0.9 0.01
O2 . H3 . 0.9 0.01
O2 . H4 . 0.9 0.01
O9 . H1 . 0.9 0.01
O9 . H2 . 0.9 0.01
O3 . H6 . 0.9 0.01
O3 . H6' 4_554 0.9 0.01
