#------------------------------------------------------------------------------
#$Date: 2020-09-24 18:20:41 +0300 (Thu, 24 Sep 2020) $
#$Revision: 256730 $
#$URL: file:///home/coder/svn-repositories/cod/cif/1/54/88/1548805.cif $
#------------------------------------------------------------------------------
#
# This file is available in the Crystallography Open Database (COD),
# http://www.crystallography.net/
#
# All data on this site have been placed in the public domain by the
# contributors.
#
data_1548805
loop_
_publ_author_name
'Busch, G.'
'Fr\"ohlich, C.'
'Hulliger, F.'
'Steigmeir, E.'
_publ_section_title
;
 Struktur, elektrische und thermoelektrische Eigenschaften von SnSe2
;
_journal_issue                   4
_journal_name_full               'Helvetica Physica Acta'
_journal_page_first              359
_journal_page_last               368
_journal_volume                  34
_journal_year                    1961
_chemical_formula_structural     'Sn Se2'
_chemical_formula_sum            'Se2 Sn'
_chemical_name_structure_type    CdI2
_chemical_name_systematic        'Tin selenide'
_space_group_IT_number           164
_symmetry_Int_Tables_number      164
_symmetry_space_group_name_Hall  '-P 3 2"'
_symmetry_space_group_name_H-M   'P -3 m 1'
_cell_angle_alpha                90.
_cell_angle_beta                 90.
_cell_angle_gamma                120.
_cell_formula_units_Z            1
_cell_length_a                   3.811(2)
_cell_length_b                   3.811(2)
_cell_length_c                   6.137(3)
_cell_volume                     77.19(7)
_cod_data_source_file            SnSe2_P_3m_Busch_DC291.cif
_cod_data_source_block           chateigner
_cod_depositor_comments
;
 Updated bibliographical information.

 Antanas Vaitkus,
 2020-09-24
;
_cod_original_cell_volume        77.19
_cod_original_formula_sum        'Se2 Sn1'
_cod_database_code               1548805
loop_
_symmetry_equiv_pos_site_id
_symmetry_equiv_pos_as_xyz
1 'x-y, -y, -z'
2 '-x, -x+y, -z'
3 'y, x, -z'
4 'x-y, x, -z'
5 'y, -x+y, -z'
6 '-x, -y, -z'
7 '-x+y, y, z'
8 'x, x-y, z'
9 '-y, -x, z'
10 '-x+y, -x, z'
11 '-y, x-y, z'
12 'x, y, z'
loop_
_atom_site_label
_atom_site_type_symbol
_atom_site_symmetry_multiplicity
_atom_site_Wyckoff_symbol
_atom_site_fract_x
_atom_site_fract_y
_atom_site_fract_z
_atom_site_B_iso_or_equiv
_atom_site_occupancy
_atom_site_attached_hydrogens
Sn1 Sn4+ 1 a 0 0 0 1.5 1. 0
Se1 Se2- 2 d 0.3333 0.6667 0.25 1.5 1. 0
loop_
_atom_type_symbol
_atom_type_oxidation_number
Sn4+ 4
Se2- -2
