#------------------------------------------------------------------------------
#$Date: 2018-06-05 19:04:49 +0300 (Tue, 05 Jun 2018) $
#$Revision: 208146 $
#$URL: file:///home/coder/svn-repositories/cod/cif/1/54/95/1549522.cif $
#------------------------------------------------------------------------------
#
# This file is available in the Crystallography Open Database (COD),
# http://www.crystallography.net/
#
# All data on this site have been placed in the public domain by the
# contributors.
#
data_1549522
loop_
_publ_author_name
'Seryotkin, Y.V.'
'Bakakin, V.V.'
_publ_section_title
;
 Structural evolution of hemimorphite at high pressure up to 4.2 GPa :
 hemimorphite II @ 4.2 GPa, room temperature
;
_journal_name_full               'Physics and Chemistry of Minerals'
_journal_page_first              679
_journal_page_last               684
_journal_volume                  38
_journal_year                    2011
_chemical_formula_sum            'H4 O10 Si2 Zn4'
_chemical_name_common            'Zn4Si2O7(OH)2H2O at 4.20 GPa'
_chemical_name_mineral           'hemimorphite II at 4.20 GPa'
_space_group_IT_number           34
_space_group_name_H-M_alt        'P n n 2'
_symmetry_space_group_name_Hall  'P 2 -2n'
_symmetry_space_group_name_H-M   'P n n 2'
_cell_angle_alpha                90
_cell_angle_beta                 90
_cell_angle_gamma                90
_cell_formula_units_Z            2
_cell_length_a                   8.0863(8)
_cell_length_b                   10.5218(12)
_cell_length_c                   5.02927(19)
_cell_volume                     427.90(7)
_diffrn_ambient_pressure         4.20E+6
_cod_data_source_file            hemimorphite-II-4.2GPa.cif
_cod_data_source_block           hemimorphiteII-4.2GPa
_cod_original_formula_sum        'Zn4.0 Si2.0 O10.0 H4.0'
_cod_database_code               1549522
loop_
_space_group_symop_operation_xyz
'x, y, z'
'-x, -y, z'
'x+1/2, -y+1/2, z+1/2'
'-x+1/2, y+1/2, z+1/2'
loop_
_atom_site_label
_atom_site_occupancy
_atom_site_fract_x
_atom_site_fract_y
_atom_site_fract_z
_atom_site_adp_type
_atom_site_U_iso_or_equiv
_atom_site_type_symbol
Zn1 1.0 0.25013(7) 0.14014(5) 0.000000 Uiso 0.01082(13) Zn
Zn10 1.0 0.33119(6) 0.32790(5) 0.4909(2) Uiso 0.01113(13) Zn
Si1 1.0 0.03563(16) 0.14310(12) 0.5050(4) Uiso 0.0075(3) Si
O1 1.0 0.2140(5) 0.1804(4) 0.6233(7) Uiso 0.0139(10) O
O10 1.0 0.3915(5) 0.2710(4) 0.1347(7) Uiso 0.0150(10) O
O2 1.0 0.0385(5) 0.1565(4) 0.1864(7) Uiso 0.0109(10) O
O3 1.0 0.3174(4) -0.0331(4) 0.0332(8) Uiso 0.0189(11) O
H3 1.0 0.350(8) -0.082(7) 0.122(11) Uiso 0.013(17) H
O4 1.0 0.000000 0.000000 0.6069(10) Uiso 0.0146(15) O
Ow5 1.0 0.500000 0.000000 0.503(2) Uiso 0.056(2) O
