#------------------------------------------------------------------------------
#$Date: 2018-11-28 21:27:16 +0200 (Wed, 28 Nov 2018) $
#$Revision: 212229 $
#$URL: file:///home/coder/svn-repositories/cod/cif/1/55/02/1550295.cif $
#------------------------------------------------------------------------------
#
# This file is available in the Crystallography Open Database (COD),
# http://www.crystallography.net/. The original data for this entry
# were provided by IUCr Journals, http://journals.iucr.org/.
#
# The file may be used within the scientific community so long as
# proper attribution is given to the journal article from which the
# data were obtained.
#
data_1550295
loop_
_publ_author_name
'Baptiste, Beno\^it'
'Azuma, Masaki'
'Yu, Runze'
'Giura, Paola'
'd'Astuto, Matteo'
_publ_section_title
;
 Ca2CuO2Cl2, a redetermination from single-crystal X-ray diffraction data
;
_journal_coeditor_code           WM4087
_journal_issue                   11
_journal_name_full               IUCrData
_journal_paper_doi               10.1107/S2414314618016450
_journal_volume                  3
_journal_year                    2018
_chemical_formula_iupac          'Ca2 Cu O2 Cl2'
_chemical_formula_moiety         'Ca2 Cl2 Cu O2'
_chemical_formula_sum            'Ca2 Cl2 Cu O2'
_chemical_formula_weight         246.60
_chemical_name_systematic
;
Dicalcium oxidocuprate(II) dichloride
;
_space_group_crystal_system      tetragonal
_space_group_IT_number           139
_space_group_name_Hall           '-I 4 2'
_space_group_name_H-M_alt        'I 4/m m m'
_symmetry_space_group_name_Hall  '-I 4 2'
_symmetry_space_group_name_H-M   'I 4/m m m'
_atom_sites_solution_primary     direct
_atom_sites_solution_secondary   difmap
_audit_creation_method
;
Olex2 1.2
(compiled 2013.12.10 svn.r2850 for OlexSys, GUI svn.r4736)
;
_cell_angle_alpha                90.00
_cell_angle_beta                 90.00
_cell_angle_gamma                90.00
_cell_formula_units_Z            2
_cell_length_a                   3.8680(2)
_cell_length_b                   3.8680(2)
_cell_length_c                   15.0321(15)
_cell_measurement_reflns_used    440
_cell_measurement_temperature    293
_cell_measurement_theta_max      27.3480
_cell_measurement_theta_min      5.4100
_cell_volume                     224.90(3)
_computing_cell_refinement
;
CrysAlis PRO (Agilent, 2013)
;
_computing_data_collection
;
CrysAlis PRO (Agilent, 2013)
;
_computing_data_reduction
;
CrysAlis PRO (Agilent, 2013)
;
_computing_molecular_graphics
;
<i>VESTA</i> (Momma & Izumi, 2011)
;
_computing_publication_material
;
publCIF (Westrip, 2010)
;
_computing_structure_refinement
;
<i>OLEX2</i> (Dolomanov <i>et al.</i>,  2009)
;
_computing_structure_solution    'coordinates from isotypic compound'
_diffrn_ambient_temperature      293
_diffrn_detector_area_resol_mean 16.0318
_diffrn_measured_fraction_theta_full 0.989
_diffrn_measured_fraction_theta_max 0.962
_diffrn_measurement_device_type  'Agilent Xcalibur, Sapphire3'
_diffrn_measurement_method       '\w scans'
_diffrn_radiation_monochromator  graphite
_diffrn_radiation_type           MoK\a
_diffrn_radiation_wavelength     0.71073
_diffrn_reflns_av_R_equivalents  0.0191
_diffrn_reflns_av_unetI/netI     0.0123
_diffrn_reflns_limit_h_max       4
_diffrn_reflns_limit_h_min       -4
_diffrn_reflns_limit_k_max       4
_diffrn_reflns_limit_k_min       -4
_diffrn_reflns_limit_l_max       18
_diffrn_reflns_limit_l_min       -18
_diffrn_reflns_number            634
_diffrn_reflns_theta_full        26.00
_diffrn_reflns_theta_max         27.61
_diffrn_reflns_theta_min         5.43
_diffrn_source                   'Enhance (Mo) X-ray Source'
_exptl_absorpt_coefficient_mu    8.164
_exptl_absorpt_correction_T_max  0.287
_exptl_absorpt_correction_T_min  0.056
_exptl_absorpt_correction_type   analytical
_exptl_absorpt_process_details
;
[CrysAlis PRO (Agilent, 2013), using a multi-faceted crystal
model based on expressions derived by Clark & Reid (1995)]
;
_exptl_crystal_colour            black
_exptl_crystal_density_diffrn    3.641
_exptl_crystal_density_method    'not measured'
_exptl_crystal_description       block
_exptl_crystal_F_000             238
_exptl_crystal_size_max          0.8025
_exptl_crystal_size_mid          0.4
_exptl_crystal_size_min          0.1618
_refine_diff_density_max         0.507
_refine_diff_density_min         -0.428
_refine_ls_extinction_method     none
_refine_ls_goodness_of_fit_ref   1.242
_refine_ls_hydrogen_treatment    undef
_refine_ls_matrix_type           full
_refine_ls_number_parameters     12
_refine_ls_number_reflns         101
_refine_ls_number_restraints     0
_refine_ls_restrained_S_all      1.242
_refine_ls_R_factor_all          0.0175
_refine_ls_R_factor_gt           0.0175
_refine_ls_shift/su_max          0.000
_refine_ls_shift/su_mean         0.000
_refine_ls_structure_factor_coef Fsqd
_refine_ls_weighting_details
'calc w=1/[\s^2^(Fo^2^)+(0.0248P)^2^+0.4487P] where P=(Fo^2^+2Fc^2^)/3'
_refine_ls_weighting_scheme      calc
_refine_ls_wR_factor_gt          0.0472
_refine_ls_wR_factor_ref         0.0472
_reflns_number_gt                101
_reflns_number_total             101
_reflns_threshold_expression     >2sigma(I)
_cod_data_source_file            wm4087sup1.cif
_cod_data_source_block           I
_cod_database_code               1550295
_shelx_hkl_file
;
   0   0  -4 10752.3 523.324   2
   0   0   4 14747.8 880.324   6
   0   0   6 211830. 4511.57   6
   0   0  -6 209398. 3659.58   2
   0   0   8 81179.4 2628.72   6
   0   0  -8 92814.2 2087.60   2
   0   0  10 439731. 8115.99   6
   0   0 -10 454149. 6837.57   2
   0   0  12 94447.6 2940.47   6
   0   0 -12 97344.2 2108.24   2
   0   0  14 14035.0 1039.34   6
   0   0 -14 14619.3 693.956   2
   0   0  16 44750.1 1839.48   6
   0   0 -16 44541.4 1292.23   2
   0   0 -18 38136.2 1194.26   2
   0   0  18 38607.8 1665.00   6
   0   1  -1 27260.5 541.703   6
   1   0  -1 27429.7 528.082   3
   0  -1   1 27215.5 546.538   4
   0   1   1 26736.5 532.091   6
   0  -1  -1 27363.6 558.028   4
  -1   0  -1 27857.7 642.276   5
   0  -1   3 23968.3 555.533   4
  -1   0  -3 25623.0 783.774   5
   0   1   3 25314.4 562.061   6
   0  -1  -3 24944.2 590.103   4
   0   1  -5 782027. 11116.4   2
   1   0  -5 784220. 10348.5   2
   0  -1  -5 788740. 10386.5   2
   0   1   5 793902. 10328.7   6
   0  -1  -5 819404. 10473.1   4
   0  -1   5 770437. 10342.6   4
   1   0   5 748701. 11712.3   6
  -1   0   5 805060. 11923.0   6
   1   0   7 73950.6 2473.35   6
   0   1   7 65563.6 1381.01   6
   0  -1  -7 53164.5 1359.43   2
   0  -1   7 61210.4 1370.77   4
   1   0  -7 65366.8 1401.29   2
   0   1  -7 71452.7 1809.90   2
  -1   0   7 61305.2 2158.08   6
   0   1  -9 25767.3 1036.60   2
   0  -1   9 22297.9 940.154   4
   1   0   9 26015.5 1499.79   6
   0   1   9 24281.5 958.167   6
   0  -1  -9 22402.3 852.844   2
  -1   0   9 20619.3 1233.25   6
   1   0  -9 24018.1 935.516   2
   0  -1 -11 68944.8 1654.02   2
   1   0 -11 56104.9 1700.20   2
   1   0  11 69379.4 2493.17   6
   0   1  11 57888.7 1995.75   6
  -1   0  11 59039.8 2144.63   6
   0   1 -11 57652.8 1611.47   2
  -1   0  13 25689.3 1353.75   6
   1   0 -13 26685.4 1094.61   2
   0   1 -13 25511.5 973.600   2
   0   1  13 26434.8 1471.32   6
   1   0  13 28509.5 1540.06   6
   1   0  15 78272.6 2547.23   6
   1   0 -15 73039.7 1909.34   2
   0  -1  15 75597.5 2450.89   6
   0   1 -15 68444.7 1754.87   2
  -1   0  15 72990.6 2372.08   6
   0   1  15 69326.0 2546.13   6
  -1   0  17 31648.7 1497.91   6
   1   0 -17 35440.1 1220.84   2
   1   0  17 34688.3 1606.41   6
   0  -1  17 33460.8 1537.29   6
   0   1 -17 33538.9 1134.98   2
   0   1  17 35099.6 1762.68   6
   1   1   0 793658. 10332.4   6
  -1   1   0 805448. 10340.6   6
  -1  -1   0 801149. 10468.5   4
   1   1   0 804246. 10363.0   3
   1  -1   0 810926. 10337.2   4
   1  -1  -2 2533.57 159.694   4
  -1   1   2 2286.33 129.523   6
  -1  -1  -2 2354.58 151.832   4
   1  -1   2 2370.89 112.206   4
  -1  -1   2 2646.97 177.902   4
  -1   1  -2 2500.65 142.101   6
   1   1   2 2343.19 128.017   3
   1  -1  -2 2373.34 116.713   3
   1  -1   2 2197.04 132.007   1
   1   1   2 2127.06 122.745   6
  -1   1   4 37064.3 757.812   6
   1   1   4 37219.4 760.399   6
   1   1  -4 36564.7 851.972   2
   1   1  -4 36880.6 673.267   1
  -1  -1   4 35681.7 866.341   4
  -1  -1  -4 38599.6 801.964   4
   1  -1   4 34624.2 675.318   4
   1   1   6 18300.7 563.922   6
  -1  -1  -6 20821.1 602.301   4
  -1   1   6 19219.1 575.987   6
   1  -1   6 18056.9 561.310   4
   1  -1  -6 18772.6 536.569   2
   1   1  -6 20418.9 734.649   2
  -1  -1   6 19386.8 687.068   4
  -1  -1  -8 5305.57 343.380   4
   1   1  -8 5704.84 458.207   2
   1  -1  -8 5264.33 353.461   2
  -1  -1   8 5186.80 420.069   4
  -1   1   8 5052.89 357.336   6
   1   1   8 5471.45 370.152   6
  -1   1 -10 198606. 3543.19   5
   1   1 -10 186508. 3804.63   2
  -1  -1 -10 196172. 3535.01   4
   1  -1 -10 191512. 3483.37   2
   1   1  10 197839. 3759.27   6
  -1   1  10 187181. 3662.39   6
   1   1 -12 25665.1 1186.29   2
  -1   1  12 26235.4 1313.59   6
  -1   1  14 37955.5 1800.94   6
  -1  -1  14 38536.6 1690.19   6
   1  -1  14 36758.2 1629.61   6
   1   1  14 37161.9 1772.90   6
   1   1 -14 40326.0 1460.00   2
  -1  -1  16 14808.2 1026.06   6
   1  -1  16 16137.7 1049.30   6
  -1   1  16 14893.5 1113.85   6
   1   1 -16 17246.1 899.747   2
   1   1  18 18447.2 1305.47   6
   1  -1  18 17404.8 1104.38   6
   1   1 -18 16962.7 860.112   2
  -1  -1  18 17192.9 1114.52   6
  -1   1  18 15180.4 1129.79   6
   0  -2   0 969793. 12682.5   4
   0   2   0 966183. 12648.6   2
   0   2   0 999999. 12653.6   6
   0  -2  -2 100459. 1762.12   4
   2   0  -2 100111. 1680.07   3
   0   2   2 98189.0 1683.73   6
  -2   0  -2 99171.7 1898.16   5
   0  -2   2 98051.6 1714.03   4
   0   2  -2 103237. 2372.86   2
   0   2  -2 99042.4 1699.55   6
   0  -2  -4 6379.12 355.491   4
   0   2  -4 6101.82 536.828   2
   0   2   4 6511.67 326.551   6
  -2   0  -4 6235.21 441.777   5
  -2   0   4 6465.25 295.132   6
   2   0  -4 5977.50 330.000   1
   0  -2   4 5954.42 315.623   4
   2   0   6 108864. 2273.71   6
   0   2  -6 106435. 2597.24   2
  -2   0   6 94128.6 2163.69   6
  -2   0  -6 103950. 2479.51   5
   0  -2  -6 97799.8 1956.88   4
   0  -2   6 98895.4 1846.05   4
   0   2   6 99135.7 1833.55   6
   0   2  -8 50840.7 1576.90   2
  -2   0   8 43920.5 1726.90   6
   0  -2  -8 45480.6 1280.77   4
   2   0  -8 44858.3 1106.86   2
   0  -2   8 44438.5 1144.66   4
   2   0   8 40971.5 1570.02   6
   0   2   8 45323.9 1149.78   6
  -2   0  -8 51794.0 1906.83   5
   2   0 -10 268232. 4331.79   2
   0  -2 -10 266596. 4654.22   4
  -2   0 -10 249161. 4906.60   5
   0   2  10 259889. 4352.76   6
   0  -2  10 267749. 4356.74   4
   2   0  10 264027. 5263.40   6
   0   2 -10 273783. 4690.01   2
  -2   0  10 283416. 5704.68   6
   0  -2  12 68107.9 1874.71   4
   0  -2 -12 68848.4 2085.73   4
  -2   0 -12 69165.7 1981.92   5
   2   0 -12 67407.0 1853.50   2
   0   2 -12 63684.0 1747.37   2
   0   2  12 67067.5 1904.33   6
   2   0  12 68348.0 2306.04   6
  -2   0  14 10083.8 865.942   6
   0   2  14 11027.9 844.484   6
   0  -2 -14 9276.72 812.362   4
   2   0  14 10756.5 867.398   6
   0   2 -14 10321.2 624.764   2
   2   0 -14 10771.0 763.977   2
  -2   0 -14 11300.0 695.763   5
  -2   0  16 30891.7 1484.24   6
   0   2  16 32049.8 1781.38   6
   2   0 -16 29676.8 1351.62   2
   0  -2 -16 26424.7 1397.91   4
   0   2 -16 30223.0 1100.19   2
  -2   0  18 28535.2 1418.14   6
   2   0 -18 31299.2 1336.59   2
   1  -2  -1 15173.7 502.192   4
   2  -1   1 15437.2 523.769   1
   1   2   1 14740.2 461.407   6
  -1   2  -1 15737.7 497.915   6
  -2  -1   1 17545.0 593.381   5
   2  -1  -1 15348.6 464.691   3
  -2  -1  -1 16408.3 500.005   4
   1   2  -1 14933.4 505.087   2
   2   1   1 16253.4 501.753   3
  -2  -1   1 16650.9 552.088   4
  -1   2   1 15467.3 478.668   6
  -2   1   1 14902.8 352.499   6
   2  -1  -1 14955.5 416.245   4
   2   1  -1 17087.3 518.197   3
   1  -2   1 14794.1 468.505   4
  -1  -2  -1 16060.4 553.262   4
   1   2  -1 15989.4 496.301   6
  -1  -2   1 16136.7 562.693   4
   1  -2  -3 24643.8 708.229   4
   2   1   3 22550.5 502.253   6
  -2  -1   3 22776.0 554.429   5
  -1   2  -3 23924.7 670.195   6
   2  -1  -3 23730.0 609.820   3
   1   2   3 22475.8 479.604   3
  -2  -1   3 25374.8 772.302   4
   1   2   3 22163.1 618.374   6
   1   2  -3 23269.2 646.682   6
   1  -2   3 22079.4 523.249   1
  -2  -1  -3 23306.7 602.874   4
   1  -2   3 23222.5 612.424   4
  -1  -2  -3 23424.5 724.380   4
   2   1   3 23424.3 629.876   3
  -2   1   3 23596.1 512.518   6
   1   2  -3 23502.3 751.704   2
  -1  -2   3 23615.7 720.840   4
  -1   2   3 23233.8 641.004   6
   2   1   5 478755. 6427.13   6
   1   2  -5 480689. 7191.49   2
   1  -2  -5 479864. 6823.54   4
  -2  -1   5 475392. 7023.88   4
   2   1  -5 479352. 6585.95   1
  -1  -2   5 470608. 6791.42   4
   1  -2   5 481167. 6515.10   4
  -1   2   5 475171. 6607.19   6
  -2  -1  -5 476063. 6495.37   4
   1   2   5 476922. 6615.15   6
  -1  -2  -5 476669. 6801.28   4
  -2   1   5 479453. 6428.76   6
   2   1   7 42281.2 975.781   6
  -2   1   7 43920.2 1004.82   6
  -1  -2  -7 40485.9 1151.23   4
   2   1  -7 43666.7 1019.08   1
   1  -2  -7 44353.4 1260.93   4
   2   1  -7 42211.3 1111.06   2
  -2  -1   7 45703.5 1449.54   4
   1  -2   7 42861.0 995.779   4
  -1  -2   7 42747.9 1155.30   4
   2  -1  -7 44651.5 984.760   2
   1   2  -7 44153.6 1506.01   2
   1   2   7 42854.6 1058.67   6
  -1   2   7 42876.5 1052.39   6
   2   1   9 12962.7 593.443   6
  -2   1   9 14241.8 642.001   6
   2   1  -9 13524.9 660.390   2
  -1  -2  -9 13156.4 653.371   4
   2  -1  -9 13868.5 562.888   2
   1  -2  -9 13398.6 757.747   4
  -2  -1   9 13266.2 879.064   4
  -1  -2   9 13713.1 664.153   4
   1   2  -9 13088.3 835.411   2
  -1   2   9 13112.7 583.645   6
   1   2   9 13157.6 590.305   6
   2   1  11 44668.6 1445.01   6
  -2   1  11 44640.3 1492.56   6
  -1  -2 -11 43527.5 1436.89   4
   2  -1  11 45161.1 1771.52   6
   1  -2 -11 46846.4 1688.59   4
   1   2 -11 39237.5 1533.79   2
  -1  -2  11 45008.0 1446.14   4
   1   2  11 45831.2 1373.46   6
  -2  -1  11 43604.8 1829.92   6
   2   1 -11 44383.9 1481.27   2
  -1   2  11 42522.0 1328.09   6
  -1  -2 -13 20494.8 1101.43   4
  -2  -1  13 20067.0 1199.32   6
   2  -1  13 18261.0 1083.69   6
   1   2 -13 19042.1 995.457   2
   1  -2 -13 20097.1 1234.34   4
  -1  -2  13 19015.5 1051.99   4
  -2   1  13 18071.9 1114.23   6
   2   1 -13 20113.3 1086.88   2
   2   1  13 19281.1 1127.37   6
   1   2  13 21081.8 1077.58   6
  -1   2  13 19837.5 1029.33   6
   2   1  15 47750.5 2003.88   6
  -2   1  15 60839.9 2420.12   6
   1   2 -15 62126.3 1870.32   2
  -2  -1  15 55415.0 2060.98   6
   2  -1  15 52198.3 1940.23   6
  -1  -2 -15 55749.2 2121.93   4
   1  -2 -15 48758.8 1985.78   4
   1   2  15 57478.7 2247.20   6
   2   1 -15 56163.2 1991.93   2
  -1   2  15 52463.5 2081.62   6
  -2   1  17 24247.1 1509.31   6
  -2  -1  17 26152.2 1365.42   6
   2   2   0 596264. 7976.54   6
  -2  -2   0 597158. 8267.21   4
   2  -2   0 594797. 8180.96   1
  -2   2   0 592783. 7974.73   6
   2  -2  -2 58283.8 1219.72   4
   2   2  -2 59563.1 1173.39   6
   2   2   2 59944.0 1142.21   6
   2   2   2 60612.4 1188.49   3
  -2   2   2 58060.8 1131.03   6
  -2  -2   2 59494.1 1379.05   4
  -2   2  -2 59266.1 1186.89   6
  -2  -2  -2 59521.5 1331.47   4
   2  -2   2 56713.4 1201.13   1
   2  -2  -4 3712.04 276.119   4
   2   2  -4 3576.66 275.993   2
  -2  -2   4 3794.21 316.392   4
   2   2   4 3565.71 230.615   3
  -2  -2  -4 3718.60 288.364   4
   2   2   4 3851.36 237.619   6
  -2   2   4 3439.87 226.374   6
   2   2  -6 62741.4 1517.05   2
   2  -2  -6 63304.3 1534.91   4
  -2  -2  -6 64841.7 1480.02   4
  -2  -2   6 66228.5 1602.65   4
   2   2   6 65435.5 1336.85   6
  -2   2   6 65847.6 1336.86   6
   2  -2  -8 30253.6 1142.97   4
   2   2  -8 29832.5 1099.05   2
  -2  -2   8 31376.3 1123.11   4
   2   2   8 31107.0 888.434   6
  -2   2   8 31235.9 896.114   6
  -2  -2  -8 31682.8 1014.45   4
   2   2  10 190918. 3341.77   6
  -2  -2  10 199761. 3879.27   4
   2   2 -10 199651. 3967.11   2
  -2   2  10 197508. 3420.81   6
  -2  -2  12 52323.3 1863.68   4
   2   2 -12 51080.5 1892.66   2
   2   2  12 49040.3 1495.28   6
  -2   2  12 51681.8 1589.77   6
   2   2 -14 8305.82 753.943   2
  -2   2  14 8607.78 718.892   6
  -2  -2  16 25670.3 1469.26   6
  -2   2  16 23965.5 1459.45   6
   0   3  -1 10372.9 476.465   6
   3   0  -1 10697.9 466.667   3
   3   0   1 9995.97 458.164   3
   0  -3   1 9807.12 481.603   4
   0   3   1 10760.3 480.295   6
   0  -3  -1 9724.76 487.203   4
  -3   0  -3 14129.4 692.144   5
   0   3  -3 15003.6 600.915   6
   0  -3   3 14612.8 596.912   4
   3   0  -3 14727.2 578.316   3
   3   0  -3 14331.7 627.195   1
   0   3   3 14430.0 580.160   6
   0  -3  -3 14670.3 632.568   4
  -3   0  -5 311058. 5378.00   5
   3   0  -5 314169. 4913.74   1
   0  -3   5 316713. 4849.77   4
   0   3   5 320377. 4830.61   6
   0  -3  -5 318536. 5015.35   4
   0  -3  -7 31858.1 1103.17   4
   3   0  -7 30192.5 1021.80   1
  -3   0  -7 31166.7 1411.52   5
   0  -3   7 31219.9 974.986   4
   0   3   7 30883.9 968.448   6
   0  -3  -9 9601.18 638.310   4
  -3   0  -9 10536.8 912.144   5
   3   0  -9 9944.16 527.213   2
   0   3   9 9447.79 532.809   6
   0  -3   9 10646.5 560.102   4
   3   0  -9 11010.8 648.917   1
   0   3  -9 7939.32 604.653   2
   0  -3 -11 30303.4 1288.35   4
   3   0 -11 31613.0 1089.04   2
  -3   0 -11 29126.0 1486.62   5
   0  -3  11 32544.4 1125.20   4
   3   0 -11 31517.6 1258.19   1
   0   3  11 30879.7 1104.15   6
   0   3 -11 27746.8 1153.89   2
   0  -3 -13 14906.2 1014.07   4
  -3   0 -13 15624.8 994.839   5
   0  -3  13 15840.3 857.650   4
   0   3 -13 12494.5 738.437   2
   3   0 -13 15728.7 840.903   2
   0   3  13 16376.7 889.331   6
   3   0 -15 44266.1 1678.81   2
   0   3 -15 41102.4 1394.15   2
  -3  -1   0 303502. 4783.07   5
   3   1   0 309077. 4627.88   3
   3  -1   0 314423. 4815.43   1
   3  -1   0 314439. 4593.37   3
   1   3   0 305602. 4580.31   6
  -1   3   0 308163. 4609.29   6
  -1  -3   0 305954. 4803.55   4
   1  -3   0 315823. 4640.54   4
  -3  -1  -2 6658.71 510.429   5
   3   1  -2 7394.95 424.359   3
   3  -1  -2 6607.90 367.555   3
   3  -1  -2 7860.61 480.255   1
   3   1   2 7305.45 397.687   3
  -1  -3   2 7433.85 469.027   4
  -1   3  -2 6369.75 383.442   6
   1   3  -2 6571.71 385.620   6
   1   3   2 6598.74 373.246   6
  -1   3   2 6539.48 372.773   6
   1  -3   2 8092.86 419.374   4
  -1  -3  -2 6277.06 418.808   4
   1  -3  -2 6772.23 410.764   4
   1  -3  -4 5930.11 414.758   4
   3  -1  -4 5494.40 409.182   1
  -3  -1  -4 6524.43 610.027   5
  -3  -1   4 5841.71 494.313   4
   3  -1  -4 6632.45 371.503   3
  -1   3  -4 6019.36 377.570   6
   1  -3   4 6305.95 369.168   4
   3   1   4 5911.45 363.199   3
  -1  -3   4 5876.88 406.015   4
   1   3  -4 5843.17 370.331   6
   1   3   4 5947.08 356.986   6
  -1   3   4 5861.79 355.754   6
  -1  -3  -4 6477.08 435.371   4
   1  -3  -6 13936.2 696.759   4
  -3  -1  -6 16284.0 1160.75   5
  -3  -1   6 14733.7 914.347   4
   1   3  -6 13659.2 918.308   2
  -1  -3   6 14334.6 666.844   4
   3  -1  -6 12694.3 677.045   1
   1   3   6 13871.8 602.703   6
  -1   3   6 14460.9 607.209   6
   3   1  -6 14456.4 646.025   1
  -1  -3  -6 13966.3 690.282   4
   1  -3  -8 4218.51 418.911   4
   1   3  -8 3737.14 467.252   2
  -3  -1  -8 3800.91 586.426   5
   3   1  -8 3463.25 310.737   2
  -1  -3   8 3752.52 350.000   4
   1   3   8 3823.66 322.249   6
  -1   3   8 3653.27 314.162   6
  -1  -3  -8 3695.31 371.274   4
  -1  -3 -10 96311.6 2416.56   4
   1  -3 -10 98915.7 2578.03   4
   3   1 -10 102123. 2267.21   2
   1   3 -10 105536. 2670.44   2
  -3  -1 -10 98804.4 3019.98   5
  -1  -3  10 102858. 2319.44   4
   1   3  10 104925. 2220.24   6
  -1   3  10 106714. 2218.23   6
  -1  -3 -12 17067.3 969.131   4
   1  -3 -12 17995.1 1103.06   4
   1   3 -12 17514.7 973.883   2
  -3  -1 -12 20818.4 1220.59   5
  -1  -3  12 19390.4 943.457   4
   1   3  12 17492.9 861.766   6
  -1   3  12 17357.0 860.264   6
   3   1 -12 17406.9 890.638   2
  -1  -3 -14 22136.4 1266.27   4
   1   3 -14 22825.1 1100.54   2
   1  -3 -14 23678.2 1425.42   4
  -3  -1 -14 26735.5 1310.80   5
  -1  -3  14 23921.2 1202.36   4
   3   1 -14 22710.6 1162.74   2
   1   3  14 23786.3 1168.08   6
  -1   3  14 23182.1 1145.07   6
   3  -2  -1 8124.43 497.785   1
   2   3  -1 8089.38 421.270   6
   3   2   1 8743.73 454.590   3
  -3  -2   1 9102.53 517.862   4
   3  -2   1 8145.71 463.973   1
  -2  -3   1 8500.06 519.413   4
  -2   3  -1 8181.01 413.427   6
   2   3   1 8366.01 421.677   6
  -2   3   1 7847.34 404.155   6
  -2  -3  -1 8193.81 516.973   4
   3   2   3 11642.0 522.469   3
  -3  -2   3 11010.7 600.758   4
  -2  -3   3 11089.7 612.216   4
  -2   3  -3 11290.9 521.310   6
  -2   3   3 11056.1 497.291   6
  -2  -3  -3 11306.0 618.304   4
   2   3   3 11243.2 499.916   6
   3  -2  -3 11564.2 637.312   1
   2  -3  -5 227094. 3840.37   4
  -3  -2   5 226140. 4058.68   4
   2   3   5 231607. 3655.21   6
  -2  -3   5 233736. 4020.75   4
   3   2   5 227777. 3651.21   3
   3   2  -5 224842. 3810.56   2
  -2   3   5 232610. 3664.59   6
  -2  -3  -5 233467. 4002.07   4
   2   3  -5 226648. 4049.66   2
   2  -3  -7 22005.4 922.134   4
   3   2  -7 22989.8 901.646   2
  -3  -2   7 22646.7 1041.96   4
  -2  -3   7 23680.5 977.485   4
   2   3  -7 23664.7 1087.53   2
   2   3   7 24107.5 824.560   6
  -2   3   7 22881.1 803.877   6
  -2  -3  -7 22673.2 945.596   4
   3   2  -9 7597.04 546.710   2
   2  -3  -9 7770.69 594.039   4
  -3  -2   9 8606.66 698.173   4
  -2  -3   9 7995.46 577.854   4
   2   3  -9 7024.04 645.908   2
   2   3   9 7439.63 466.786   6
  -2   3   9 7706.06 477.105   6
  -2  -3  -9 7172.06 564.553   4
   2  -3 -11 22622.6 1191.29   4
  -3  -2  11 24523.2 1368.87   4
  -2  -3  11 25642.2 1155.55   4
   2   3 -11 21478.3 1215.79   2
   3   2 -11 23274.7 1110.59   2
  -2   3  11 24047.6 961.361   6
   2  -3 -13 12657.8 994.656   4
   2   3 -13 10920.4 850.732   2
  -2   3  13 12004.9 757.999   6
   3  -3   0 177533. 3171.02   1
  -3  -3   0 172011. 3313.70   4
   3  -3  -2 4591.15 403.966   1
  -3  -3   2 5536.47 475.015   4
  -3  -3   4 2531.45 318.833   4
   3  -3  -4 2713.39 328.571   1
   3   3  -6 7606.16 530.409   2
  -3  -3   6 7745.39 579.658   4
  -3  -3   8 2383.21 339.212   4
   3   3  -8 2193.04 314.112   2
   3   3 -10 59828.2 2004.88   2
   4   0   0 301985. 4783.73   3
   0   4   0 312889. 4880.62   6
   0  -4   0 298640. 4924.16   4
   4   0  -2 28757.9 951.532   3
   4   0   2 30025.0 1005.46   3
   0   4  -2 30004.0 995.826   6
   0  -4   2 29966.6 1047.34   4
   0   4   2 28244.5 963.935   6
   0  -4  -2 27443.7 1033.49   4
   0   4   4 1403.56 198.004   6
   0  -4   4 1590.51 230.387   4
   0  -4  -4 1414.72 232.935   4
   4   0  -4 1350.95 200.211   3
   4   0  -4 1442.19 240.739   1
   0   4  -4 1234.64 179.179   6
   4   0   4 1534.05 221.613   3
   4   0  -6 35277.9 1249.90   1
   0  -4   6 35818.7 1182.58   4
   4   0   6 33957.1 1168.30   3
   0   4   6 35307.4 1150.62   6
   0  -4  -6 35640.0 1306.29   4
   4   0  -8 16935.6 888.434   1
   0  -4   8 19633.3 870.518   4
   0   4   8 17670.3 803.743   6
   0  -4  -8 17867.0 953.895   4
  -4   0 -10 125231. 3783.09   5
   4   0 -10 122331. 2629.17   2
   0  -4  10 127291. 2665.97   4
   4   0 -10 119782. 2933.20   1
   0   4  10 116400. 2584.79   6
   0  -4 -10 113931. 2934.91   4
   4   1  -1 6310.25 433.590   3
   4   1   1 6630.25 439.196   3
   4  -1  -1 7066.72 442.139   3
   4  -1   1 6812.91 453.103   3
   1   4  -1 6657.21 434.004   6
  -1   4  -1 6403.36 437.080   6
  -1  -4   1 6063.30 465.695   4
   1   4   1 5838.70 412.601   6
  -1   4   1 6219.24 426.499   6
  -1  -4  -1 6868.56 505.936   4
   1  -4   1 6841.04 466.975   4
   1  -4  -1 6962.00 474.399   4
   4  -1  -3 9138.15 611.934   1
  -4  -1  -3 8766.15 639.853   5
  -1  -4   3 8992.03 575.080   4
   4  -1  -3 9242.21 513.308   3
   4   1   3 8878.12 528.803   3
   1   4  -3 8839.44 523.826   6
  -1   4  -3 9341.16 535.940   6
   4  -1   3 8823.50 527.950   3
   1   4   3 8555.03 514.152   6
  -1   4   3 9052.18 528.241   6
  -1  -4  -3 8943.43 591.093   4
   1  -4  -3 9375.14 581.767   4
  -4  -1  -5 185102. 4126.30   5
  -1  -4   5 181743. 3438.89   4
   4   1   5 178915. 3341.93   3
   1   4   5 182799. 3291.66   6
  -1   4   5 182951. 3290.91   6
  -1  -4  -5 179160. 3544.20   4
   1  -4  -5 182742. 3544.22   4
   4  -1  -5 185261. 3597.30   1
  -4  -1  -7 19857.1 1356.68   5
   4  -1  -7 18616.7 945.244   1
  -1  -4   7 19551.8 902.079   4
   4   1   7 18562.7 863.396   3
   1   4   7 18841.3 815.409   6
  -1   4   7 18589.2 807.192   6
  -1  -4  -7 18500.2 941.295   4
   1  -4  -7 19867.8 979.213   4
   1  -4  -9 5739.13 557.150   4
   4  -1  -9 5363.91 517.885   1
  -4  -1  -9 4792.36 705.688   5
   4   1  -9 6217.92 495.678   2
  -1  -4   9 6029.49 509.671   4
   4   1   9 5869.97 505.563   3
   1   4   9 5560.04 451.312   6
  -1   4   9 5085.16 426.758   6
  -1  -4  -9 4851.15 498.955   4
   4  -2   0 234359. 4233.03   1
   4   2   0 232830. 4034.42   3
  -2  -4   0 235160. 4294.79   4
   2   4   0 237418. 3920.45   6
  -2   4   0 237989. 3900.21   6
   4   2   2 22683.9 885.946   3
   4  -2  -2 22812.4 1021.14   1
  -2  -4   2 25649.4 1083.94   4
   2   4  -2 25240.4 911.280   6
  -2   4  -2 24155.0 887.526   6
   4  -2   2 23355.9 890.223   3
   2   4   2 23047.2 854.969   6
  -2   4   2 22219.7 844.271   6
  -2  -4  -2 22692.8 1032.78   4
  -2   4   4 613.655 99.9605   6
  -2  -4   4 847.706 187.343   4
  -2  -4  -4 770.381 196.260   4
   4   2   4 1147.24 192.141   3
   4  -2  -4 1187.38 236.587   1
   4  -2  -6 25086.4 1168.57   1
  -4  -2  -6 28273.4 1753.90   5
  -2  -4   6 26295.6 1125.89   4
   4   2  -6 26685.6 1067.16   2
  -2   4   6 26348.8 967.245   6
  -2  -4  -6 25717.4 1140.92   4
   2  -4  -8 13818.8 824.184   4
  -2   4   8 13795.6 698.770   6
  -2  -4  -8 13834.6 855.823   4
  -3  -4  -1 3012.12 379.065   4
  -3  -4   1 3125.47 387.758   4
   4  -3  -1 3474.18 384.732   1
   0   0   0    0.00    0.00   0
TITL CCOC_Matteo_18122013 in I4/mmm
REM I4/mmm (#139 in standard setting)
CELL 0.71073   3.867996   3.867996  15.032128  90.0000  90.0000  90.0000
ZERR    2.00   0.000240   0.000240   0.001516   0.0000   0.0000   0.0000
LATT  2
SYMM -x,-y, z
SYMM -y, x, z
SYMM  y,-x, z
SYMM -x, y,-z
SYMM  x,-y,-z
SYMM  y, x,-z
SYMM -y,-x,-z
SFAC O Cl Ca Cu
UNIT 4.00 4.00 4.00 2.00
TREF
HKLF 4
END
;
_shelx_hkl_checksum              7561
_shelx_res_file
;
    ccoc_matteo_18122013.res created by SHELXL-2014/7
TITL CCOC_Matteo_18122013 in I4/mmm
CELL 0.71073 3.867996 3.867996 15.032128 90 90 90
ZERR 2 0.00024 0.00024 0.001516 0 0 0
LATT 2
SYMM -X,-Y,+Z
SYMM -Y,+X,+Z
SYMM +Y,-X,+Z
SYMM -X,+Y,-Z
SYMM +X,-Y,-Z
SYMM +Y,+X,-Z
SYMM -Y,-X,-Z
SFAC O Cl Ca Cu
UNIT 4 4 4 2
L.S. 4
PLAN  20
TEMP 19.85
MORE -1
CONF
fmap 2
acta 52
REM <olex2.extras>
REM <HklSrc "%.\\CCOC_Matteo_18122013.hkl">
REM </olex2.extras>
WGHT    0.024800    0.448700
FVAR       6.74942
CU1   4    0.000000    0.000000    0.500000    10.06250    0.00491    0.00491 =
         0.01709    0.00000    0.00000    0.00000
CL1   2    0.000000    0.000000    0.317379    10.12500    0.01522    0.01522 =
         0.01706    0.00000    0.00000    0.00000
CA1   3    0.000000    0.000000    0.104335    10.12500    0.01011    0.01011 =
         0.01826    0.00000    0.00000    0.00000
O1    1    0.500000    0.000000    0.500000    10.12500    0.00490    0.01145 =
         0.01978    0.00000    0.00000    0.00000
HKLF 4
REM  CCOC_Matteo_18122013 in I4/mmm
REM R1 =  0.0175 for     101 Fo > 4sig(Fo)  and  0.0175 for all     101 data
REM     12 parameters refined using      0 restraints
END
WGHT      0.0248      0.4487
REM Highest difference peak  0.507,  deepest hole -0.428,  1-sigma level  0.112
Q1    1   0.0000  0.0000  0.4393  10.12500  0.05    0.51
Q2    1   0.0000  0.0000  0.1622  10.12500  0.05    0.40
Q3    1   0.0000  0.0000  0.0445  10.12500  0.05    0.34
Q4    1   0.0000  0.0000  0.3926  10.12500  0.05    0.30
Q5    1   0.3480  0.2019  0.5000  10.50000  0.05    0.26
Q6    1   0.7454 -0.2546  0.5000  10.25000  0.05    0.25
Q7    1   0.1662  0.2392  0.3834  11.00000  0.05    0.24
Q8    1   0.0000  0.2045  0.2033  10.50000  0.05    0.21
Q9    1   0.5000 -0.1569  0.5197  10.50000  0.05    0.21
Q10   1   0.1290  0.1290  0.2160  10.50000  0.05    0.18
Q11   1   0.3718  0.0000  0.4665  10.50000  0.05    0.18
Q12   1   0.1677  0.1677  0.4371  10.50000  0.05    0.18
Q13   1   0.2500  0.2500  0.2500  10.25000  0.05    0.15
Q14   1   0.2172  0.2918  0.3094  11.00000  0.05    0.14
Q15   1   0.0000  0.2036  0.1163  10.50000  0.05    0.12
Q16   1   0.5000  0.0000  0.4124  10.25000  0.05    0.11
Q17   1   0.0000  0.3516  0.2500  10.50000  0.05    0.10
Q18   1   0.0000  0.2623  0.3302  10.50000  0.05    0.09
Q19   1   0.3634  0.0000  0.1641  10.50000  0.05    0.06
Q20   1   0.5000 -0.0887  0.5790  10.50000  0.05    0.06
;
_shelx_res_checksum              20222
loop_
_space_group_symop_id
_space_group_symop_operation_xyz
1 'x, y, z'
2 '-x, -y, z'
3 '-y, x, z'
4 'y, -x, z'
5 '-x, y, -z'
6 'x, -y, -z'
7 'y, x, -z'
8 '-y, -x, -z'
9 'x+1/2, y+1/2, z+1/2'
10 '-x+1/2, -y+1/2, z+1/2'
11 '-y+1/2, x+1/2, z+1/2'
12 'y+1/2, -x+1/2, z+1/2'
13 '-x+1/2, y+1/2, -z+1/2'
14 'x+1/2, -y+1/2, -z+1/2'
15 'y+1/2, x+1/2, -z+1/2'
16 '-y+1/2, -x+1/2, -z+1/2'
17 '-x, -y, -z'
18 'x, y, -z'
19 'y, -x, -z'
20 '-y, x, -z'
21 'x, -y, z'
22 '-x, y, z'
23 '-y, -x, z'
24 'y, x, z'
25 '-x+1/2, -y+1/2, -z+1/2'
26 'x+1/2, y+1/2, -z+1/2'
27 'y+1/2, -x+1/2, -z+1/2'
28 '-y+1/2, x+1/2, -z+1/2'
29 'x+1/2, -y+1/2, z+1/2'
30 '-x+1/2, y+1/2, z+1/2'
31 '-y+1/2, -x+1/2, z+1/2'
32 'y+1/2, x+1/2, z+1/2'
loop_
_atom_site_type_symbol
_atom_site_label
_atom_site_fract_x
_atom_site_fract_y
_atom_site_fract_z
_atom_site_U_iso_or_equiv
_atom_site_adp_type
_atom_site_calc_flag
_atom_site_occupancy
_atom_site_symmetry_multiplicity
Cu Cu1 0.0000 0.0000 0.5000 0.0090(3) Uani d 1 16
Cl Cl1 0.0000 0.0000 0.31738(9) 0.0158(4) Uani d 1 8
Ca Ca1 0.0000 0.0000 0.10434(7) 0.0128(3) Uani d 1 8
O O1 0.5000 0.0000 0.5000 0.0120(7) Uani d 1 8
loop_
_atom_site_aniso_label
_atom_site_aniso_U_11
_atom_site_aniso_U_22
_atom_site_aniso_U_33
_atom_site_aniso_U_12
_atom_site_aniso_U_13
_atom_site_aniso_U_23
Cu1 0.0049(4) 0.0049(4) 0.0171(5) 0.000 0.000 0.000
Cl1 0.0152(5) 0.0152(5) 0.0171(6) 0.000 0.000 0.000
Ca1 0.0101(4) 0.0101(4) 0.0183(6) 0.000 0.000 0.000
O1 0.0049(16) 0.0114(17) 0.0198(16) 0.000 0.000 0.000
loop_
_atom_type_symbol
_atom_type_description
_atom_type_scat_dispersion_real
_atom_type_scat_dispersion_imag
_atom_type_scat_source
O O 0.0106 0.0060 'International Tables Vol C Tables 4.2.6.8 and 6.1.1.4'
Cl Cl 0.1484 0.1585 'International Tables Vol C Tables 4.2.6.8 and 6.1.1.4'
Ca Ca 0.2262 0.3064 'International Tables Vol C Tables 4.2.6.8 and 6.1.1.4'
Cu Cu 0.3201 1.2651 'International Tables Vol C Tables 4.2.6.8 and 6.1.1.4'
loop_
_exptl_crystal_face_index_h
_exptl_crystal_face_index_k
_exptl_crystal_face_index_l
_exptl_crystal_face_perp_dist
0 5 6 0.2388
-5 0 0 0.2797
-1 -5 -6 0.2684
5 1 2 0.2369
-5 0 -10 0.2151
-1 0 -21 0.1002
1 0 21 0.0616
3 4 -9 0.1911
-5 0 9 0.2611
0 5 -3 0.2452
-3 -5 3 0.2556
-1 -5 1 0.2663
loop_
_geom_angle_atom_site_label_1
_geom_angle_atom_site_label_2
_geom_angle_atom_site_label_3
_geom_angle_site_symmetry_1
_geom_angle_site_symmetry_3
_geom_angle
Cl1 Cu1 Cl1 17_556 . 180.0
O1 Cu1 Cl1 3_545 . 90.0
O1 Cu1 Cl1 3 . 90.0
O1 Cu1 Cl1 . . 90.0
O1 Cu1 Cl1 1_455 . 90.0
O1 Cu1 Cl1 1_455 17_556 90.0
O1 Cu1 Cl1 . 17_556 90.0
O1 Cu1 Cl1 3_545 17_556 90.0
O1 Cu1 Cl1 3 17_556 90.0
O1 Cu1 O1 3_545 . 90.0
O1 Cu1 O1 3 . 90.0
O1 Cu1 O1 3 3_545 180.0
O1 Cu1 O1 . 1_455 180.0
O1 Cu1 O1 3_545 1_455 90.0
O1 Cu1 O1 3 1_455 90.0
Cu1 Cl1 Ca1 . 25_455 66.72(3)
Cu1 Cl1 Ca1 . 25_545 66.72(3)
Cu1 Cl1 Ca1 . . 180.0
Cu1 Cl1 Ca1 . 25_445 66.72(3)
Cu1 Cl1 Ca1 . 25 66.72(3)
Ca1 Cl1 Ca1 25_545 . 113.28(3)
Ca1 Cl1 Ca1 25 . 113.28(3)
Ca1 Cl1 Ca1 25_455 . 113.28(3)
Ca1 Cl1 Ca1 25_455 25_545 133.44(6)
Ca1 Cl1 Ca1 25_445 . 113.28(3)
Ca1 Cl1 Ca1 25 25_455 81.01(2)
Ca1 Cl1 Ca1 25 25_445 133.44(6)
Ca1 Cl1 Ca1 25_445 25_455 81.01(2)
Ca1 Cl1 Ca1 25 25_545 81.01(2)
Ca1 Cl1 Ca1 25_445 25_545 81.01(2)
O1 Ca1 O1 9_444 11_544 66.63(2)
O1 Ca1 O1 11_444 11_544 101.92(4)
O1 Ca1 O1 11_444 9_444 66.63(2)
O1 Ca1 O1 11_544 9_454 66.63(2)
O1 Ca1 O1 9_444 9_454 101.92(4)
O1 Ca1 O1 11_444 9_454 66.63(2)
Cu1 O1 Cu1 1_655 . 180.0
Cu1 O1 Ca1 1_655 25 90.0
Cu1 O1 Ca1 . 25 90.0
Cu1 O1 Ca1 . 9_545 90.0
Cu1 O1 Ca1 1_655 9_545 90.0
Cu1 O1 Ca1 . 25_545 90.0
Cu1 O1 Ca1 1_655 9 90.0
Cu1 O1 Ca1 1_655 25_545 90.0
Cu1 O1 Ca1 . 9 90.0
Ca1 O1 Ca1 25_545 9_545 78.08(4)
Ca1 O1 Ca1 9 9_545 101.92(4)
Ca1 O1 Ca1 25 9_545 180.0
Ca1 O1 Ca1 25_545 9 180.0
Ca1 O1 Ca1 25_545 25 101.92(4)
Ca1 O1 Ca1 9 25 78.08(4)
loop_
_geom_bond_atom_site_label_1
_geom_bond_atom_site_label_2
_geom_bond_site_symmetry_2
_geom_bond_distance
_geom_bond_publ_flag
Cu1 Cl1 17_556 2.7451(14) ?
Cu1 Cl1 . 2.7452(14) y
Cu1 O1 3_545 1.93400(12) ?
Cu1 O1 3 1.93400(12) ?
Cu1 O1 1_455 1.93400(12) ?
Cu1 O1 . 1.93400(12) y
Ca1 Cl1 25_545 2.9775(7) ?
Ca1 Cl1 25_455 2.9775(7) ?
Ca1 Cl1 25 2.9775(7) y
Ca1 Cl1 25_445 2.9775(7) ?
Ca1 O1 9_444 2.4900(7) y
Ca1 O1 11_444 2.4900(7) ?
Ca1 O1 11_544 2.4900(7) ?
Ca1 O1 9_454 2.4900(7) ?

_cod_database_fobs_code 1550295
