#------------------------------------------------------------------------------
#$Date: 2019-03-26 12:36:21 +0200 (Tue, 26 Mar 2019) $
#$Revision: 214341 $
#$URL: file:///home/coder/svn-repositories/cod/cif/1/55/07/1550780.cif $
#------------------------------------------------------------------------------
#
# This file is available in the Crystallography Open Database (COD),
# http://www.crystallography.net/
#
# All data on this site have been placed in the public domain by the
# contributors.
#
data_1550780
loop_
_publ_author_name
'Kanno, Tsutomu'
'Tamaki, Hiromasa'
'Sato, Hiroki K.'
'Kang, Stephen Dongmin'
'Ohno, Saneyuki'
'Imasato, Kazuki'
'Kuo, Jimmy Jiahong'
'Snyder, G. Jeffrey'
'Miyazaki, Yuzuru'
_publ_contact_author_address     ' ?'
_publ_section_title
;
 Enhancement of average thermoelectric figure of merit by increasing the
 grain-size of Mg3.2Sb1.5Bi0.49Te0.01
;
_publ_section_title_footnote     ' ?'
_journal_coeditor_notes          ' ?'
_journal_issue                   3
_journal_name_full               'Applied Physics Letters'
_journal_page_first              033903
_journal_paper_doi               10.1063/1.5016488
_journal_techeditor_notes        ' ?'
_journal_volume                  112
_journal_year                    2018
_chemical_formula_sum            'Bi0.49 Mg3 Sb1.5 Te0.01'
_chemical_formula_weight         359.22
_chemical_name_systematic        ' ?'
_space_group_IT_number           164
_symmetry_cell_setting           trigonal
_symmetry_space_group_name_Hall  '-P 3 2"'
_symmetry_space_group_name_H-M   'P -3 m 1'
_audit_author_name               'Kanno, Tsutomu'
_audit_creation_date             2019-03-26T19:13
_audit_creation_method           'created in GSAS-II'
_audit_update_record
'2019-03-26T19:13  Initial software-generated CIF'
_cell_angle_alpha                90
_cell_angle_beta                 90
_cell_angle_gamma                120
_cell_formula_units_Z            1
_cell_length_a                   4.58315(8)
_cell_length_b                   4.58315(8)
_cell_length_c                   7.27280(8)
_cell_volume                     132.300(4)
_computing_structure_refinement
'GSAS-II (Toby & Von Dreele, J. Appl. Cryst. 46, 544-549, 2013)'
_diffrn_ambient_pressure         100
_diffrn_ambient_temperature      295
_diffrn_radiation_polarisn_ratio 0.9900
_diffrn_radiation_probe          x-ray
_diffrn_radiation_wavelength     0.41454
_exptl_crystal_density_diffrn    4.5086
_pd_block_id
2019-03-26T19:13|11bmb_0691|KannoTsutomu|APS11BM
_pd_calc_method                  'Rietveld Refinement'
_pd_instr_location               ' ?'
_pd_meas_2theta_range_inc        0.00100
_pd_meas_2theta_range_max        49.99654
_pd_meas_2theta_range_min        0.50000
_pd_meas_number_of_points        49575
_pd_phase_name                   Mg3Sb1.5Bi0.49Te0.01
_pd_proc_info_datetime           2019-03-26T19:13
_pd_proc_info_excluded_regions   ' ?'
_pd_proc_ls_background_function
;
Background function: "chebyschev" function with 12 terms:
    98.88(30), -47.1(9), -112.4(26), 513(9), 33(10), -1697(23), 
    1094(8), 1654(11), -1871(9), -138(24), 863(10), -326(20), 
  Background peak parameters: pos, int, sig, gam:
    5.376, 174161.832, 5699.489, 0.000, 
;
_pd_proc_ls_pref_orient_corr
'March-Dollase correction coef. = 1.000 axis = [0, 0, 1]'
_pd_proc_ls_profile_function
;
Finger-Cox-Jephcoat function parameters U, V, W, X, Y, SH/L:
  peak variance(Gauss) = Utan(Th)^2^+Vtan(Th)+W:
  peak HW(Lorentz) = X/cos(Th)+Ytan(Th); SH/L = S/L+H/L
  U, V, W in (centideg)^2^, X & Y in centideg
    1.163, -0.126, 0.063, 0.000, 0.000, 0.002, 
  Crystallite size in microns with "uniaxial" model:
  anisotropic axis is [0, 0, 1]
  parameters: equatorial size, axial size, G/L mix
    0.81(16), 0.208(11), 1.000, 
  Microstrain, "generalized" model (10^6^ * delta Q/Q)
  parameters: S400, S004, S202, G/L mix
    2.817349322e6, 81377.947, 1.044788188e6, 0.672(4), 

;
_pd_proc_ls_prof_R_factor        0.05546
_pd_proc_ls_prof_wR_expected     0.06308
_pd_proc_ls_prof_wR_factor       0.07137
_pd_spec_mounting                ' ?'
_refine_ls_goodness_of_fit_all   1.132
_refine_ls_matrix_type           full
_refine_ls_number_parameters     26
_refine_ls_R_Fsqd_factor         0.02909
_refine_ls_wR_factor_obs         0.07137
_reflns_d_resolution_high        0.606
_reflns_d_resolution_low         7.273
_reflns_limit_h_max              0
_reflns_limit_h_min              0
_reflns_limit_k_max              0
_reflns_limit_k_min              0
_reflns_limit_l_max              12
_reflns_limit_l_min              12
_reflns_number_total             273
_cod_data_source_file            11bmb_0691.cif
_cod_data_source_block           11bmb_0691
_cod_depositor_comments
'Chemical formula was corrected according to the convention.'
_cod_original_cell_volume        132.3003(26)
_cod_original_formula_sum        'Mg3 Sb1.5 Bi0.49 Te0.01'
_cod_database_code               1550780
_refine_ls_r_f_factor            0.01749
_gsas_proc_ls_prof_r_b_factor    0.05257
_gsas_proc_ls_prof_wr_b_factor   0.06775
loop_
_space_group_symop_id
_space_group_symop_operation_xyz
1 x,y,z
2 -y,x-y,z
3 y-x,-x,z
4 y-x,y,z
5 -y,-x,z
6 x,x-y,z
7 -x,-y,-z
8 y,y-x,-z
9 x-y,x,-z
10 x-y,-y,-z
11 y,x,-z
12 -x,y-x,-z
loop_
_atom_site_label
_atom_site_type_symbol
_atom_site_fract_x
_atom_site_fract_y
_atom_site_fract_z
_atom_site_occupancy
_atom_site_adp_type
_atom_site_U_iso_or_equiv
_atom_site_symmetry_multiplicity
Mg1 Mg2+ 0.00000 0.00000 0.00000 1.000 Uiso 0.0343(10) 1
Mg2 Mg2+ 0.33333 0.66667 0.63141(20) 1.000 Uiso 0.0138(4) 2
Sb1 Sb 0.333330 0.666670 0.22681 0.750000 Uiso 0.01472 2
Te1 Te 0.333330 0.666670 0.22681 0.00500000 Uiso 0.01472 2
Bi6 Bi 0.33333 0.66667 0.22681(5) 0.245000 Uiso 0.01472(12) 2
loop_
_atom_type_symbol
_atom_type_number_in_cell
Bi 0.49
Mg 3
Sb 1.5
Te 0.01
loop_
_geom_bond_atom_site_label_1
_geom_bond_atom_site_label_2
_geom_bond_distance
_geom_bond_site_symmetry_1
_geom_bond_site_symmetry_2
_geom_bond_publ_flag
Mg1 Bi6 3.11816(20) 1_555 1_445 yes
Mg1 Bi6 3.11812(20) 1_555 1_545 yes
Mg1 Bi6 3.11816(20) 1_555 1_555 yes
Mg1 Bi6 3.11816(20) 1_555 2_555 yes
Mg1 Bi6 3.11816(20) 1_555 2_655 yes
Mg1 Bi6 3.11812(20) 1_555 2_665 yes
Mg1 Bi6 3.11812(20) 1_555 3_455 yes
Mg1 Bi6 3.11816(20) 1_555 3_555 yes
Mg1 Bi6 3.11816(20) 1_555 3_565 yes
Mg1 Bi6 3.11816(20) 1_555 7_555 yes
Mg1 Bi6 3.11812(20) 1_555 7_565 yes
Mg1 Bi6 3.11816(20) 1_555 7_665 yes
Mg1 Bi6 3.11812(20) 1_555 8_445 yes
Mg1 Bi6 3.11816(20) 1_555 8_455 yes
Mg1 Bi6 3.11816(20) 1_555 8_555 yes
Mg1 Bi6 3.11816(20) 1_555 9_545 yes
Mg1 Bi6 3.11816(20) 1_555 9_555 yes
Mg1 Bi6 3.11812(20) 1_555 9_655 yes
Mg2 Sb1 2.9426(15) 1_555 1_555 yes
Mg2 Sb1 2.9426(15) 1_555 2_665 yes
Mg2 Sb1 2.9426(15) 1_555 3_565 yes
Mg2 Sb1 2.8399(5) 1_555 7_566 yes
Mg2 Sb1 2.8399(5) 1_555 7_666 yes
Mg2 Sb1 2.8399(5) 1_555 7_676 yes
Mg2 Sb1 2.8399(5) 1_555 8_456 yes
Mg2 Sb1 2.8399(5) 1_555 8_556 yes
Mg2 Sb1 2.8399(5) 1_555 8_566 yes
Mg2 Sb1 2.8399(5) 1_555 9_556 yes
Mg2 Sb1 2.8399(5) 1_555 9_656 yes
Mg2 Sb1 2.8399(5) 1_555 9_666 yes
Sb1 Mg2 2.9426(15) 1_555 1_555 yes
Sb1 Mg2 2.9426(15) 1_555 2_665 yes
Sb1 Mg2 2.9426(15) 1_555 3_565 yes
Sb1 Mg2 2.8399(5) 1_555 7_566 yes
Sb1 Mg2 2.8399(5) 1_555 7_666 yes
Sb1 Mg2 2.8399(5) 1_555 7_676 yes
Sb1 Mg2 2.8399(5) 1_555 8_456 yes
Sb1 Mg2 2.8399(5) 1_555 8_556 yes
Sb1 Mg2 2.8399(5) 1_555 8_566 yes
Sb1 Mg2 2.8399(5) 1_555 9_556 yes
Sb1 Mg2 2.8399(5) 1_555 9_656 yes
Sb1 Mg2 2.8399(5) 1_555 9_666 yes
Te1 Mg2 2.9426(15) 1_555 1_555 yes
Te1 Mg2 2.9426(15) 1_555 2_665 yes
Te1 Mg2 2.9426(15) 1_555 3_565 yes
Te1 Mg2 2.8399(5) 1_555 7_566 yes
Te1 Mg2 2.8399(5) 1_555 7_666 yes
Te1 Mg2 2.8399(5) 1_555 7_676 yes
Te1 Mg2 2.8399(5) 1_555 8_456 yes
Te1 Mg2 2.8399(5) 1_555 8_556 yes
Te1 Mg2 2.8399(5) 1_555 8_566 yes
Te1 Mg2 2.8399(5) 1_555 9_556 yes
Te1 Mg2 2.8399(5) 1_555 9_656 yes
Te1 Mg2 2.8399(5) 1_555 9_666 yes
Bi6 Mg1 3.11816(20) 1_555 1_555 yes
Bi6 Mg1 3.11812(20) 1_555 1_565 yes
Bi6 Mg1 3.11816(20) 1_555 1_665 yes
Bi6 Mg2 2.9426(14) 1_555 1_555 yes
Bi6 Mg2 2.9426(14) 1_555 2_665 yes
Bi6 Mg2 2.9426(14) 1_555 3_565 yes
Bi6 Mg2 2.8399(6) 1_555 7_566 yes
Bi6 Mg2 2.8399(6) 1_555 7_666 yes
Bi6 Mg2 2.8399(6) 1_555 7_676 yes
Bi6 Mg2 2.8399(6) 1_555 8_456 yes
Bi6 Mg2 2.8399(6) 1_555 8_556 yes
Bi6 Mg2 2.8399(6) 1_555 8_566 yes
Bi6 Mg2 2.8399(6) 1_555 9_556 yes
Bi6 Mg2 2.8399(6) 1_555 9_656 yes
Bi6 Mg2 2.8399(6) 1_555 9_666 yes
loop_
_refln_index_h
_refln_index_k
_refln_index_l
_refln_F_squared_meas
_refln_F_squared_calc
_refln_phase_calc
_refln_d_spacing
_gsas_i100_meas
0 0 1 157.3492 146.0103 0.0 7.27280 3.66
1 0 0 2546.9897 2485.0717 180.0 3.96913 53.08
0 0 2 7508.2650 7357.5727 180.0 3.63640 43.81
1 0 1 3948.6902 3954.5018 -180.0 3.48405 63.48
1 0 -1 6220.7828 6229.9387 0.0 3.48405 100.00
1 0 -2 7732.3779 7825.5253 -0.0 2.68125 73.88
1 0 2 207.7556 210.2583 -0.0 2.68125 1.98
0 0 3 271.2444 241.7716 -180.0 2.42427 0.71
1 1 0 11691.5425 11593.0082 0.0 2.29158 81.88
1 1 1 84.1036 71.4748 0.0 2.18565 1.07
1 0 3 8244.2071 7935.6213 0.0 2.06889 47.20
1 0 -3 2946.5623 2836.2707 -180.0 2.06889 16.87
2 0 0 1647.1242 1600.0288 -180.0 1.98456 8.69
1 1 2 4729.6482 4731.1500 180.0 1.93873 47.66
2 0 -1 2559.0933 2543.4980 180.0 1.91456 12.58
2 0 1 3953.4342 3929.3415 -0.0 1.91456 19.44
0 0 4 2883.7574 2990.6700 -0.0 1.81820 4.27
2 0 2 5342.9858 5189.9922 0.0 1.74202 21.83
2 0 -2 133.8136 129.9819 0.0 1.74202 0.55
1 1 3 181.4409 181.6263 -180.0 1.66532 1.36
1 0 4 358.5718 346.3487 0.0 1.65302 1.32
1 0 -4 2863.4120 2765.8032 180.0 1.65302 10.56
2 0 -3 5594.5862 5511.6119 -0.0 1.53563 17.89
2 0 3 2059.7889 2029.2398 180.0 1.53563 6.59
2 1 0 1239.5385 1164.1797 180.0 1.50019 7.58
2 1 -1 2828.6228 2760.8535 0.0 1.46926 16.60
2 1 1 1932.5272 1886.2270 -180.0 1.46926 11.34
0 0 5 3070.0835 3005.9777 0.0 1.45456 2.95
1 1 4 2226.0483 2134.4916 -0.0 1.42433 12.31
2 1 -2 3684.5167 3672.0205 -0.0 1.38681 19.35
2 1 2 89.6961 89.3919 -0.0 1.38681 0.47
1 0 -5 884.7856 843.3297 0.0 1.36574 2.26
1 0 5 4717.1996 4496.1791 180.0 1.36574 12.03
2 0 -4 248.7443 231.8504 -0.0 1.34062 0.61
2 0 4 2232.4620 2080.8409 -180.0 1.34062 5.49
3 0 0 5850.0314 5684.2884 -0.0 1.32304 14.03
3 0 -1 30.7526 29.7922 -0.0 1.30168 0.07
3 0 1 30.7526 29.7922 0.0 1.30168 0.07
2 1 -3 1528.9748 1516.7253 -180.0 1.27569 6.84
2 1 3 4050.6479 4018.1959 0.0 1.27569 18.12
3 0 -2 2524.3612 2603.0811 -180.0 1.24331 5.38
3 0 2 2524.3612 2603.0811 180.0 1.24331 5.38
1 1 5 2138.4102 2187.3421 0.0 1.22806 8.90
0 0 6 900.8370 851.8974 180.0 1.21213 0.61
2 0 -5 3375.6585 3405.3315 -180.0 1.17319 6.44
2 0 5 603.1910 608.4932 -0.0 1.17319 1.15
3 0 3 129.7772 128.7055 -180.0 1.16135 0.24
3 0 -3 129.7772 128.7055 180.0 1.16135 0.24
1 0 -6 2171.8076 2149.6765 -0.0 1.15928 4.05
1 0 6 60.6549 60.0368 -180.0 1.15928 0.11
2 1 4 162.0821 159.6767 0.0 1.15715 0.60
2 1 -4 1641.7251 1617.3609 180.0 1.15715 6.10
2 2 0 4358.9391 4218.3947 0.0 1.14579 7.95
2 2 1 22.2950 20.9963 0.0 1.13183 0.08
3 1 0 677.5059 687.4432 -180.0 1.10084 2.29
2 2 2 1962.7231 2025.5725 180.0 1.09282 6.55
3 1 -1 1142.3811 1169.6630 180.0 1.08844 3.78
3 1 1 1498.0024 1533.7770 -0.0 1.08844 4.96
1 1 6 642.2356 677.5059 180.0 1.07147 2.06
3 0 4 1154.2036 1220.9842 -0.0 1.06979 1.85
3 0 -4 1154.2036 1220.9842 0.0 1.06979 1.85
3 1 -2 47.6393 48.6176 0.0 1.05362 0.15
3 1 2 1980.9999 2021.6786 0.0 1.05362 6.17
2 1 5 2513.2560 2638.4552 180.0 1.04429 7.70
2 1 -5 429.2436 450.6266 0.0 1.04429 1.31
0 0 7 1810.3137 1946.9936 -180.0 1.03897 0.92
2 2 3 103.9146 111.1689 -180.0 1.03591 0.31
2 0 6 1549.4020 1661.7963 0.0 1.03444 2.33
2 0 -6 50.4794 54.1412 180.0 1.03444 0.08
1 0 -7 59.5522 63.8293 -0.0 1.00511 0.08
1 0 7 1660.4756 1779.7341 -0.0 1.00511 2.37
3 1 3 856.8301 910.6602 180.0 1.00234 2.43
3 1 -3 2184.3411 2321.5718 -0.0 1.00234 6.20
4 0 0 530.8915 544.8163 180.0 0.99228 0.74
4 0 -1 1178.2462 1186.2924 0.0 0.98317 1.61
4 0 1 943.2431 949.6845 -180.0 0.98317 1.29
3 0 -5 1252.7265 1251.3356 -0.0 0.97873 1.70
3 0 5 1252.7265 1251.3356 0.0 0.97873 1.70
2 2 4 959.9728 957.3532 -0.0 0.96936 2.56
4 0 -2 1552.3840 1551.4148 -0.0 0.95728 2.02
4 0 2 37.5461 37.5227 -0.0 0.95728 0.05
1 1 7 1628.9635 1539.6373 -180.0 0.94626 4.16
2 1 -6 1430.4134 1310.5401 -0.0 0.94283 3.62
2 1 6 53.1747 48.7185 -180.0 0.94283 0.13
3 1 -4 89.6485 81.2767 -0.0 0.94169 0.23
3 1 4 1143.5900 1036.7965 -180.0 0.94169 2.89
2 0 -7 1557.4628 1393.1786 0.0 0.92046 1.89
2 0 7 49.6949 44.4530 0.0 0.92046 0.06
4 0 -3 806.0004 724.0118 -180.0 0.91833 0.97
4 0 3 2024.8646 1818.8896 0.0 0.91833 2.44
3 2 0 475.0710 438.1711 180.0 0.91058 1.13
0 0 8 603.3281 558.7110 -0.0 0.90910 0.24
3 2 -1 986.6423 934.4822 0.0 0.90353 2.31
3 2 1 825.0810 781.4620 -180.0 0.90353 1.93
2 2 5 1040.3386 974.7357 0.0 0.90008 2.42
3 0 6 492.1468 448.9010 180.0 0.89375 0.57
3 0 -6 492.1468 448.9010 -180.0 0.89375 0.57
1 0 -8 1440.4264 1367.0929 180.0 0.88615 1.63
1 0 8 416.2919 395.0981 0.0 0.88615 0.47
3 2 -2 1265.3418 1211.6085 -0.0 0.88331 2.85
3 2 2 30.9204 29.6074 -0.0 0.88331 0.07
3 1 -5 1721.1810 1666.2130 -180.0 0.87779 3.83
3 1 5 271.5992 262.9253 -0.0 0.87779 0.60
4 0 4 61.9073 59.7708 0.0 0.87101 0.07
4 0 -4 878.0430 847.7408 180.0 0.87101 0.96
4 1 0 2051.8662 1957.9715 -0.0 0.86613 4.45
4 1 -1 9.5530 8.9393 -0.0 0.86006 0.02
4 1 1 9.5530 8.9393 0.0 0.86006 0.02
2 1 -7 32.6601 31.5146 -0.0 0.85413 0.07
2 1 7 1148.2106 1107.9395 -0.0 0.85413 2.43
3 2 -3 597.2692 583.2657 -180.0 0.85243 1.26
3 2 3 1482.2049 1447.4533 0.0 0.85243 3.12
1 1 8 422.8809 434.7778 -0.0 0.84503 0.88
4 1 -2 1013.9658 1055.2013 -180.0 0.84256 2.09
4 1 2 1013.9658 1055.2013 180.0 0.84256 2.09
2 2 6 340.4852 371.5964 180.0 0.83266 0.69
2 0 8 1026.2246 1116.1362 -180.0 0.82651 1.02
2 0 -8 292.9740 318.6426 -0.0 0.82651 0.29
4 0 5 1310.4828 1350.3596 180.0 0.81971 1.29
4 0 -5 199.8721 205.9540 0.0 0.81971 0.20
3 0 7 986.0301 1002.8899 -180.0 0.81713 0.96
3 0 -7 986.0301 1002.8899 180.0 0.81713 0.96
4 1 -3 72.6386 73.4980 180.0 0.81564 0.14
4 1 3 72.6386 73.4980 -180.0 0.81564 0.14
3 1 6 844.1768 852.9737 0.0 0.81492 1.64
3 1 -6 38.6681 39.0710 180.0 0.81492 0.08
3 2 -4 694.5792 700.3570 180.0 0.81418 1.35
3 2 4 44.3624 44.7314 0.0 0.81418 0.09
0 0 9 962.0555 962.6555 0.0 0.80809 0.31
5 0 0 285.9079 293.2301 -180.0 0.79383 0.27
1 0 -9 95.4559 97.5076 180.0 0.79184 0.09
1 0 9 258.4029 263.9569 180.0 0.79184 0.24
5 0 -1 547.5137 544.6498 180.0 0.78914 0.50
5 0 1 608.4257 605.2430 -0.0 0.78914 0.56
4 1 -4 510.6215 506.0606 0.0 0.78194 0.92
4 1 4 510.6215 506.0606 -0.0 0.78194 0.92
2 1 8 261.3833 260.0435 0.0 0.77748 0.47
2 1 -8 924.8647 920.1241 180.0 0.77748 1.65
5 0 -2 19.4460 19.3691 0.0 0.77556 0.02
5 0 2 774.0303 770.9699 0.0 0.77556 0.69
3 2 -5 163.7689 163.5440 0.0 0.77182 0.29
3 2 5 1107.1370 1105.6163 180.0 0.77182 1.95
2 2 7 824.2909 822.4310 -180.0 0.76966 1.45
4 0 -6 704.5483 700.1440 -0.0 0.76782 0.62
4 0 6 35.0350 34.8160 -180.0 0.76782 0.03
3 3 0 1286.9748 1264.4168 0.0 0.76386 1.11
1 1 9 805.1822 786.6626 0.0 0.76209 1.39
3 3 1 5.7796 5.6482 0.0 0.75968 0.01
3 1 -7 735.0279 727.3206 0.0 0.75559 1.25
3 1 7 16.8045 16.6283 0.0 0.75559 0.03
5 0 -3 956.2080 951.0684 -0.0 0.75441 0.81
5 0 3 392.6884 390.5777 180.0 0.75441 0.33
4 2 0 239.1811 243.0633 -180.0 0.75009 0.40
3 0 8 269.8762 274.3120 -0.0 0.74927 0.23
3 0 -8 269.8762 274.3120 0.0 0.74927 0.23
2 0 9 79.1381 81.0370 -180.0 0.74842 0.07
2 0 -9 219.7145 224.9865 -180.0 0.74842 0.18
3 3 2 711.1754 721.8125 180.0 0.74754 1.19
4 2 -1 455.9508 459.4425 180.0 0.74614 0.76
4 2 1 491.5026 495.2666 -0.0 0.74614 0.82
4 1 -5 506.7987 501.0677 -0.0 0.74419 0.84
4 1 5 506.7987 501.0677 0.0 0.74419 0.84
4 2 -2 16.6142 15.9520 0.0 0.73463 0.03
4 2 2 651.5256 625.5571 0.0 0.73463 1.05
3 3 3 59.0905 56.1251 -180.0 0.72855 0.09
3 2 -6 612.4746 579.7156 -0.0 0.72804 0.98
3 2 6 32.6731 30.9256 -180.0 0.72804 0.05
5 0 4 519.3259 489.2522 -180.0 0.72751 0.41
5 0 -4 27.8356 26.2236 -0.0 0.72751 0.02
0 0 10 15.2835 14.1071 180.0 0.72728 0.00
4 0 7 615.5968 597.9535 -0.0 0.71759 0.48
4 0 -7 12.7150 12.3506 -0.0 0.71759 0.01
4 2 -3 797.5548 782.1491 -0.0 0.71658 1.24
4 2 3 329.9673 323.5936 180.0 0.71658 0.51
1 0 -10 846.6175 845.9044 0.0 0.71537 0.65
1 0 10 519.5606 519.1230 -180.0 0.71537 0.40
5 1 0 202.5059 202.8543 180.0 0.71288 0.31
2 2 8 221.3773 221.5816 -0.0 0.71217 0.34
2 1 -9 67.5512 67.7718 180.0 0.71144 0.10
2 1 9 191.8298 192.4564 180.0 0.71144 0.29
5 1 -1 407.9920 408.7592 0.0 0.70948 0.62
5 1 1 388.7419 389.4729 -180.0 0.70948 0.59
4 1 -6 216.9090 220.0585 -180.0 0.70471 0.33
4 1 6 216.9090 220.0585 180.0 0.70471 0.33
3 3 4 342.4354 348.1330 -0.0 0.70423 0.51
3 1 -8 175.8278 177.9434 -0.0 0.70097 0.26
3 1 8 631.8709 639.4738 -180.0 0.70097 0.94
5 1 -2 508.8011 512.1966 -0.0 0.69956 0.76
5 1 2 13.1629 13.2508 -0.0 0.69956 0.02
5 0 -5 771.0838 759.2570 -180.0 0.69681 0.57
5 0 5 108.2869 106.6260 -0.0 0.69681 0.08
4 2 -4 21.2824 20.4806 -0.0 0.69340 0.03
4 2 4 428.6293 412.4811 -180.0 0.69340 0.63
1 1 10 12.6228 12.0705 180.0 0.69321 0.02
3 0 -9 566.2453 538.7796 -0.0 0.68963 0.41
3 0 9 566.2453 538.7796 0.0 0.68963 0.41
3 2 -7 9.6580 9.2994 -0.0 0.68480 0.01
3 2 7 514.4353 495.3313 -0.0 0.68480 0.74
5 1 -3 279.0700 269.8461 -180.0 0.68392 0.40
5 1 3 670.2303 648.0778 0.0 0.68392 0.96
2 0 -10 445.7372 434.3402 180.0 0.68287 0.32
2 0 10 715.3663 697.0752 -0.0 0.68287 0.51
3 3 5 351.5402 338.0818 0.0 0.67628 0.49
4 0 -8 566.6425 537.6937 180.0 0.67031 0.39
4 0 8 156.7146 148.7083 0.0 0.67031 0.11
4 2 -5 669.0295 635.1750 -180.0 0.66667 0.92
4 2 5 91.9217 87.2702 -0.0 0.66667 0.13
4 1 -7 501.8030 474.1937 180.0 0.66528 0.68
4 1 7 501.8030 474.1937 -180.0 0.66528 0.68
5 0 -6 25.7176 24.1838 180.0 0.66409 0.02
5 0 6 431.0882 405.3775 0.0 0.66409 0.29
5 1 -4 372.0503 349.2481 180.0 0.66369 0.51
5 1 4 17.2357 16.1793 0.0 0.66369 0.02
6 0 0 758.4729 704.3648 -0.0 0.66152 0.51
0 0 11 393.3652 364.0820 -180.0 0.66116 0.09
2 2 9 487.4257 450.2498 0.0 0.66037 0.66
6 0 -1 3.3935 3.1085 -0.0 0.65880 0.00
6 0 1 3.3935 3.1085 0.0 0.65880 0.00
2 1 -10 625.0867 578.3582 0.0 0.65443 0.83
2 1 10 394.7663 365.2555 -180.0 0.65443 0.52
4 3 0 154.1536 143.5621 180.0 0.65252 0.20
1 0 -11 104.3883 97.8904 -0.0 0.65218 0.07
1 0 11 116.6254 109.3658 -0.0 0.65218 0.08
3 1 -9 152.5608 141.8304 -180.0 0.65142 0.20
3 1 9 51.7556 48.1153 -180.0 0.65142 0.07
6 0 -2 461.4507 428.4187 -180.0 0.65084 0.30
6 0 2 461.4507 428.4187 180.0 0.65084 0.30
4 3 -1 306.9067 284.0453 0.0 0.64991 0.40
4 3 1 305.6031 282.8388 -180.0 0.64991 0.40
3 3 6 171.8562 158.7973 180.0 0.64624 0.22
3 2 -8 489.7490 454.0934 180.0 0.64335 0.63
3 2 8 134.7197 124.9116 0.0 0.64335 0.17
4 3 -2 378.9560 350.9833 -0.0 0.64226 0.49
4 3 2 10.0528 9.3107 -0.0 0.64226 0.01
5 1 -5 77.3940 71.9530 0.0 0.64013 0.10
5 1 5 574.3911 534.0094 180.0 0.64013 0.73
6 0 -3 39.7209 37.3357 180.0 0.63819 0.03
6 0 3 39.7209 37.3357 -180.0 0.63819 0.03
4 2 -6 22.5559 21.2989 180.0 0.63784 0.03
4 2 6 361.6777 341.5223 0.0 0.63784 0.46
3 0 -10 9.3907 8.8906 -180.0 0.63733 0.01
3 0 10 9.3907 8.8906 180.0 0.63733 0.01
5 2 0 608.5835 587.3759 -0.0 0.63557 0.77
1 1 11 320.8018 310.6666 -180.0 0.63525 0.40
5 2 -1 2.6036 2.5847 -0.0 0.63316 0.00
5 2 1 2.6036 2.5847 0.0 0.63316 0.00
5 0 7 5.3625 5.4749 0.0 0.63078 0.00
5 0 -7 338.9067 346.0076 0.0 0.63078 0.21
4 3 -3 184.5382 190.5896 -180.0 0.63009 0.23
4 3 3 438.5035 452.8830 0.0 0.63009 0.55
2 0 -11 86.3178 91.4617 0.0 0.62727 0.05
2 0 11 77.8186 82.4561 0.0 0.62727 0.05
4 1 8 118.2688 122.7751 -0.0 0.62709 0.15
4 1 -8 118.2688 122.7751 0.0 0.62709 0.15
4 0 9 117.5987 122.0321 180.0 0.62659 0.07
4 0 -9 39.3030 40.7847 180.0 0.62659 0.02
5 2 -2 350.1548 363.1042 -180.0 0.62608 0.43
5 2 2 350.1548 363.1042 180.0 0.62608 0.43
6 0 -4 209.6936 207.3872 0.0 0.62165 0.13
6 0 4 209.6936 207.3872 -0.0 0.62165 0.13
3 3 7 353.9437 337.1370 -180.0 0.61543 0.42
5 2 -3 34.3752 32.5352 180.0 0.61479 0.04
5 2 3 34.3752 32.5352 -180.0 0.61479 0.04
5 1 -6 307.2577 288.8009 -0.0 0.61448 0.37
5 1 6 19.9084 18.7125 -180.0 0.61448 0.02
4 3 -4 270.2202 252.8003 180.0 0.61417 0.32
4 3 4 11.1189 10.4021 0.0 0.61417 0.01
2 2 10 8.1913 7.6495 180.0 0.61403 0.01
4 2 -7 339.3314 291.2129 0.0 0.60816 0.40
4 2 7 4.9807 4.2744 0.0 0.60816 0.01
3 1 -10 307.3390 261.4171 180.0 0.60681 0.36
3 1 10 475.8256 404.7288 -0.0 0.60681 0.56
0 0 12 31.3106 25.9880 -180.0 0.60607 0.01
