#------------------------------------------------------------------------------
#$Date: 2019-12-25 21:01:15 +0200 (Wed, 25 Dec 2019) $
#$Revision: 245731 $
#$URL: file:///home/coder/svn-repositories/cod/cif/1/55/67/1556756.cif $
#------------------------------------------------------------------------------
#
# This file is available in the Crystallography Open Database (COD),
# http://www.crystallography.net/. The original data for this entry
# were provided by IUCr Journals, http://journals.iucr.org/.
#
# The file may be used within the scientific community so long as
# proper attribution is given to the journal article from which the
# data were obtained.
#
data_1556756
loop_
_publ_author_name
'Nakano, Akitoshi'
'Sugawara, Kento'
'Tamura, Shinya'
'Katayama, Naoyuki'
'Matsubayashi, Kazuyuki'
'Okada, Taku'
'Uwatoko, Yoshiya'
'Munakata, Kouji'
'Nakao, Akiko'
'Sagayama, Hajime'
'Kumai, Reiji'
'Sugimoto, Kunihisa'
'Maejima, Naoyuki'
'Machida, Akihiko'
'Watanuki, Tetsu'
'Sawa, Hiroshi'
_publ_section_title
;
 Pressure-induced coherent sliding-layer transition in the excitonic
 insulator Ta<sub>2</sub>NiSe<sub>5</sub>.
;
_journal_issue                   'Pt 2'
_journal_name_full               IUCrJ
_journal_page_first              158
_journal_page_last               165
_journal_paper_doi               10.1107/S2052252517018334
_journal_volume                  5
_journal_year                    2018
_chemical_formula_sum            'Ni Se5 Ta2'
_chemical_formula_weight         815.41
_space_group_IT_number           63
_space_group_name_Hall           '-C 2c 2'
_space_group_name_H-M_alt        'C m c m'
_symmetry_cell_setting           orthorhombic
_symmetry_space_group_name_H-M   'C m c m'
_atom_sites_solution_primary     direct
_atom_sites_solution_secondary   difmap
_audit_creation_method           SHELXL-97
_cell_angle_alpha                90.00
_cell_angle_beta                 90.00
_cell_angle_gamma                90.00
_cell_formula_units_Z            4
_cell_length_a                   3.50290(10)
_cell_length_b                   12.8699(5)
_cell_length_c                   15.6768(8)
_cell_measurement_reflns_used    34120
_cell_measurement_temperature    400(2)
_cell_measurement_theta_max      20.380
_cell_measurement_theta_min      1.02
_cell_volume                     706.74(5)
_computing_structure_refinement  'SHELXL-97 (Sheldrick, 1997)'
_computing_structure_solution    'SHELXS-97 (Sheldrick, 1990)'
_diffrn_ambient_temperature      400(2)
_diffrn_measured_fraction_theta_full 0.968
_diffrn_measured_fraction_theta_max 0.968
_diffrn_measurement_device_type  IPDSC-Q
_diffrn_measurement_method       oscillation
_diffrn_radiation_monochromator  silicon
_diffrn_radiation_type           synchrotron
_diffrn_radiation_wavelength     0.27865
_diffrn_reflns_av_R_equivalents  0.0000
_diffrn_reflns_av_sigmaI/netI    0.0291
_diffrn_reflns_limit_h_max       8
_diffrn_reflns_limit_h_min       0
_diffrn_reflns_limit_k_max       32
_diffrn_reflns_limit_k_min       0
_diffrn_reflns_limit_l_max       38
_diffrn_reflns_limit_l_min       0
_diffrn_reflns_number            3100
_diffrn_reflns_theta_full        20.38
_diffrn_reflns_theta_max         20.38
_diffrn_reflns_theta_min         1.02
_diffrn_standards_number         3272
_exptl_absorpt_coefficient_mu    4.361
_exptl_absorpt_correction_type   empirical
_exptl_crystal_colour            silver
_exptl_crystal_density_diffrn    7.663
_exptl_crystal_density_method    'not measured'
_exptl_crystal_description       plate
_exptl_crystal_F_000             1376
_exptl_crystal_size_max          0.90
_exptl_crystal_size_mid          0.30
_exptl_crystal_size_min          0.10
_refine_diff_density_max         2.739
_refine_diff_density_min         -2.617
_refine_diff_density_rms         0.653
_refine_ls_extinction_method     none
_refine_ls_goodness_of_fit_ref   1.147
_refine_ls_matrix_type           full
_refine_ls_number_parameters     27
_refine_ls_number_reflns         3100
_refine_ls_number_restraints     0
_refine_ls_restrained_S_all      1.147
_refine_ls_R_factor_all          0.0238
_refine_ls_R_factor_gt           0.0197
_refine_ls_shift/su_max          0.001
_refine_ls_shift/su_mean         0.000
_refine_ls_structure_factor_coef Fsqd
_refine_ls_weighting_details
'calc w=1/[\s^2^(Fo^2^)+(0.0206P)^2^+0.0000P] where P=(Fo^2^+2Fc^2^)/3'
_refine_ls_weighting_scheme      calc
_refine_ls_wR_factor_gt          0.0519
_refine_ls_wR_factor_ref         0.0530
_reflns_number_gt                2745
_reflns_number_total             3100
_reflns_threshold_expression     >2sigma(I)
_cod_data_source_file            fc5022.cif
_cod_data_source_block           Ta2NiSe5_0GPa_400K
_cod_depositor_comments
;
The following automatic conversions were performed:

data item '_symmetry_cell_setting' value 'Orthorhombic' was changed
to 'orthorhombic' in accordance with the
/home/saulius/struct/COD-crude-data/automatic-downloads/DataCite-retrospective/IUCr/depositions/lib/dictionaries/cif_core.dic
dictionary named 'cif_core.dic' version 2.4.2 last updated on
2011-04-26.

Automatic conversion script
Id: cif_fix_values 7556 2019-12-06 15:28:31Z antanas 
;
_cod_original_sg_symbol_H-M      Cmcm
_cod_database_code               1556756
loop_
_symmetry_equiv_pos_as_xyz
'x, y, z'
'-x, -y, z+1/2'
'x, -y, -z'
'-x, y, -z+1/2'
'x+1/2, y+1/2, z'
'-x+1/2, -y+1/2, z+1/2'
'x+1/2, -y+1/2, -z'
'-x+1/2, y+1/2, -z+1/2'
'-x, -y, -z'
'x, y, -z-1/2'
'-x, y, z'
'x, -y, z-1/2'
'-x+1/2, -y+1/2, -z'
'x+1/2, y+1/2, -z-1/2'
'-x+1/2, y+1/2, z'
'x+1/2, -y+1/2, z-1/2'
loop_
_atom_site_label
_atom_site_type_symbol
_atom_site_fract_x
_atom_site_fract_y
_atom_site_fract_z
_atom_site_U_iso_or_equiv
_atom_site_adp_type
_atom_site_occupancy
_atom_site_symmetry_multiplicity
_atom_site_calc_flag
_atom_site_refinement_flags
Ta01 Ta 0.5000 0.221158(6) 0.110222(4) 0.01169(2) Uani 1 2 d S
Se02 Se 0.5000 0.32679(2) 0.2500 0.01224(3) Uani 1 4 d S
Se03 Se 0.0000 0.354170(15) 0.049338(11) 0.01106(2) Uani 1 2 d S
Se04 Se 1.0000 0.080461(15) 0.137726(13) 0.01276(3) Uani 1 2 d S
Ni05 Ni 1.0000 0.20096(3) 0.2500 0.01325(4) Uani 1 4 d S
loop_
_atom_site_aniso_label
_atom_site_aniso_U_11
_atom_site_aniso_U_22
_atom_site_aniso_U_33
_atom_site_aniso_U_23
_atom_site_aniso_U_13
_atom_site_aniso_U_12
Ta01 0.01134(2) 0.01514(3) 0.00860(2) -0.00094(1) 0.000 0.000
Se02 0.01344(7) 0.01401(8) 0.00926(7) 0.000 0.000 0.000
Se03 0.01092(5) 0.01331(5) 0.00897(5) 0.00002(4) 0.000 0.000
Se04 0.01201(5) 0.01255(5) 0.01373(6) -0.00043(4) 0.000 0.000
Ni05 0.01419(10) 0.01562(11) 0.00996(10) 0.000 0.000 0.000
loop_
_atom_type_symbol
_atom_type_description
_atom_type_scat_dispersion_real
_atom_type_scat_dispersion_imag
_atom_type_scat_source
Ni Ni 0.1173 0.1905 'International Tables Vol C Tables 4.2.6.8 and 6.1.1.4'
Se Se 0.1861 0.4150 'International Tables Vol C Tables 4.2.6.8 and 6.1.1.4'
Ta Ta -1.0985 1.3203 'International Tables Vol C Tables 4.2.6.8 and 6.1.1.4'
loop_
_geom_angle_atom_site_label_1
_geom_angle_atom_site_label_2
_geom_angle_atom_site_label_3
_geom_angle
_geom_angle_site_symmetry_1
_geom_angle_site_symmetry_3
Se04 Ta01 Se04 86.514(7) 1_455 .
Se04 Ta01 Se02 103.307(7) 1_455 .
Se04 Ta01 Se02 103.306(7) . .
Se04 Ta01 Se03 93.787(5) 1_455 .
Se04 Ta01 Se03 168.317(7) . .
Se02 Ta01 Se03 88.007(6) . .
Se04 Ta01 Se03 168.317(7) 1_455 1_655
Se04 Ta01 Se03 93.788(5) . 1_655
Se02 Ta01 Se03 88.006(6) . 1_655
Se03 Ta01 Se03 83.568(6) . 1_655
Se04 Ta01 Se03 84.334(6) 1_455 13
Se04 Ta01 Se03 84.334(6) . 13
Se02 Ta01 Se03 169.369(8) . 13
Se03 Ta01 Se03 84.075(6) . 13
Se03 Ta01 Se03 84.075(6) 1_655 13
Se04 Ta01 Ni05 51.494(8) 1_455 1_455
Se04 Ta01 Ni05 103.266(8) . 1_455
Se02 Ta01 Ni05 52.243(7) . 1_455
Se03 Ta01 Ni05 85.886(7) . 1_455
Se03 Ta01 Ni05 139.180(9) 1_655 1_455
Se03 Ta01 Ni05 133.782(6) 13 1_455
Se04 Ta01 Ni05 103.265(8) 1_455 .
Se04 Ta01 Ni05 51.493(8) . .
Se02 Ta01 Ni05 52.244(7) . .
Se03 Ta01 Ni05 139.181(9) . .
Se03 Ta01 Ni05 85.887(7) 1_655 .
Se03 Ta01 Ni05 133.781(6) 13 .
Ni05 Ta01 Ni05 76.880(4) 1_455 .
Ni05 Se02 Ni05 94.488(17) 1_455 .
Ni05 Se02 Ta01 69.028(6) 1_455 .
Ni05 Se02 Ta01 69.029(6) . .
Ni05 Se02 Ta01 69.029(6) 1_455 10_556
Ni05 Se02 Ta01 69.028(6) . 10_556
Ta01 Se02 Ta01 116.367(12) . 10_556
Ta01 Se03 Ta01 83.569(6) . 1_455
Ta01 Se03 Ta01 95.925(6) . 13
Ta01 Se03 Ta01 95.924(6) 1_455 13
Ni05 Se04 Ta01 70.014(7) . 1_655
Ni05 Se04 Ta01 70.013(7) . .
Ta01 Se04 Ta01 86.515(7) 1_655 .
Se04 Ni05 Se04 97.232(18) 10_556 .
Se04 Ni05 Se02 116.668(4) 10_556 1_655
Se04 Ni05 Se02 116.667(4) . 1_655
Se04 Ni05 Se02 116.668(4) 10_556 .
Se04 Ni05 Se02 116.667(4) . .
Se02 Ni05 Se02 94.487(17) 1_655 .
Se04 Ni05 Ta01 58.493(5) 10_556 10_656
Se04 Ni05 Ta01 130.133(11) . 10_656
Se02 Ni05 Ta01 58.729(4) 1_655 10_656
Se02 Ni05 Ta01 113.195(11) . 10_656
Se04 Ni05 Ta01 58.493(5) 10_556 10_556
Se04 Ni05 Ta01 130.133(11) . 10_556
Se02 Ni05 Ta01 113.195(11) 1_655 10_556
Se02 Ni05 Ta01 58.728(4) . 10_556
Ta01 Ni05 Ta01 76.880(4) 10_656 10_556
Se04 Ni05 Ta01 130.134(11) 10_556 .
Se04 Ni05 Ta01 58.493(5) . .
Se02 Ni05 Ta01 113.194(11) 1_655 .
Se02 Ni05 Ta01 58.728(4) . .
Ta01 Ni05 Ta01 169.414(17) 10_656 .
Ta01 Ni05 Ta01 102.121(4) 10_556 .
Se04 Ni05 Ta01 130.133(11) 10_556 1_655
Se04 Ni05 Ta01 58.492(5) . 1_655
Se02 Ni05 Ta01 58.728(4) 1_655 1_655
Se02 Ni05 Ta01 113.194(11) . 1_655
Ta01 Ni05 Ta01 102.121(4) 10_656 1_655
Ta01 Ni05 Ta01 169.415(17) 10_556 1_655
Ta01 Ni05 Ta01 76.879(3) . 1_655
loop_
_geom_bond_atom_site_label_1
_geom_bond_atom_site_label_2
_geom_bond_distance
_geom_bond_site_symmetry_2
Ta01 Se04 2.55584(16) 1_455
Ta01 Se04 2.55585(16) .
Ta01 Se02 2.57874(19) .
Ta01 Se03 2.62850(16) .
Ta01 Se03 2.62853(16) 1_655
Ta01 Se03 2.6827(2) 13
Ta01 Ni05 2.81721(11) 1_455
Ta01 Ni05 2.81723(12) .
Se02 Ni05 2.3853(3) 1_455
Se02 Ni05 2.3854(3) .
Se02 Ta01 2.57874(19) 10_556
Se03 Ta01 2.62852(16) 1_455
Se03 Ta01 2.6827(2) 13
Se04 Ni05 2.3459(3) .
Se04 Ta01 2.55582(16) 1_655
Ni05 Se04 2.3459(3) 10_556
Ni05 Se02 2.3854(3) 1_655
Ni05 Ta01 2.81721(11) 10_656
Ni05 Ta01 2.81721(11) 10_556
Ni05 Ta01 2.81724(11) 1_655
