#------------------------------------------------------------------------------
#$Date: 2020-01-28 10:44:12 +0200 (Tue, 28 Jan 2020) $
#$Revision: 247283 $
#$URL: file:///home/coder/svn-repositories/cod/cif/1/55/71/1557166.cif $
#------------------------------------------------------------------------------
#
# This file is available in the Crystallography Open Database (COD),
# http://www.crystallography.net/
#
# All data on this site have been placed in the public domain by the
# contributors.
#
data_1557166
loop_
_publ_author_name
'Hans-Peter Bojar'
'Franz Walter'
'Judith Baumgartner'
_publ_section_title
;
 Bavsiite, Ba2V2O2[Si4O12], mineral data and crystal structure
;
_journal_name_full               'Mineralogical Magazine'
_journal_page_first              821
_journal_page_last               827
_journal_paper_doi               10.1180/mgm.2019.59
_journal_volume                  83
_journal_year                    2019
_chemical_formula_sum            'Ba2 O14 Si4 V2'
_chemical_formula_weight         712.92
_chemical_name_common            'Bavsiite, Ba2V2O2(Si4O12), idealized'
_space_group_crystal_system      tetragonal
_space_group_IT_number           87
_space_group_name_Hall           '-I 4'
_space_group_name_H-M_alt        'I 4/m'
_atom_sites_solution_hydrogens   .
_cell_angle_alpha                90
_cell_angle_beta                 90
_cell_angle_gamma                90
_cell_formula_units_Z            2
_cell_length_a                   7.0429(10)
_cell_length_b                   7.0429(10)
_cell_length_c                   11.444(2)
_cell_measurement_reflns_used    1953
_cell_measurement_temperature    100(2)
_cell_measurement_theta_max      26.28
_cell_measurement_theta_min      3.40
_cell_volume                     567.65(15)
_computing_cell_refinement       'Bruker XSCANS'
_computing_data_collection       'Bruker XSCANS'
_computing_data_reduction        'Bruker SHELXTL'
_computing_structure_refinement  'SHELXL-2013 (Sheldrick, 2013)'
_computing_structure_solution    'Bruker SHELXTL'
_diffrn_ambient_temperature      100(2)
_diffrn_measured_fraction_theta_full 0.993
_diffrn_measured_fraction_theta_max 0.997
_diffrn_measurement_device_type  'SMART APEX'
_diffrn_measurement_method       '\w scans'
_diffrn_radiation_type           MoK\a
_diffrn_radiation_wavelength     0.71073
_diffrn_reflns_av_R_equivalents  0.0329
_diffrn_reflns_av_unetI/netI     0.0155
_diffrn_reflns_Laue_measured_fraction_full 0.993
_diffrn_reflns_Laue_measured_fraction_max 0.997
_diffrn_reflns_limit_h_max       8
_diffrn_reflns_limit_h_min       -8
_diffrn_reflns_limit_k_max       8
_diffrn_reflns_limit_k_min       -8
_diffrn_reflns_limit_l_max       14
_diffrn_reflns_limit_l_min       -14
_diffrn_reflns_number            2275
_diffrn_reflns_point_group_measured_fraction_full 0.993
_diffrn_reflns_point_group_measured_fraction_max 0.997
_diffrn_reflns_theta_full        25.242
_diffrn_reflns_theta_max         26.282
_diffrn_reflns_theta_min         3.397
_diffrn_source                   'fine-focus sealed tube'
_exptl_absorpt_coefficient_mu    8.947
_exptl_absorpt_correction_type   multi-scan
_exptl_absorpt_process_details   SADABS
_exptl_crystal_colour            blue
_exptl_crystal_density_diffrn    4.171
_exptl_crystal_description       plate
_exptl_crystal_F_000             652
_exptl_crystal_size_max          0.150
_exptl_crystal_size_mid          0.110
_exptl_crystal_size_min          0.040
_refine_diff_density_max         0.368
_refine_diff_density_min         -0.470
_refine_diff_density_rms         0.110
_refine_ls_extinction_coef       0.0027(4)
_refine_ls_extinction_expression Fc^*^=kFc[1+0.001xFc^2^\l^3^/sin(2\q)]^-1/4^
_refine_ls_extinction_method     SHELXL
_refine_ls_goodness_of_fit_ref   1.175
_refine_ls_hydrogen_treatment    undef
_refine_ls_matrix_type           full
_refine_ls_number_parameters     32
_refine_ls_number_reflns         312
_refine_ls_number_restraints     0
_refine_ls_restrained_S_all      1.175
_refine_ls_R_factor_all          0.0159
_refine_ls_R_factor_gt           0.0159
_refine_ls_shift/su_max          0.000
_refine_ls_shift/su_mean         0.000
_refine_ls_structure_factor_coef Fsqd
_refine_ls_weighting_details
;
 w=1/[\s^2^(Fo^2^)+(0.0179P)^2^+2.3298P]
 where P=(Fo^2^+2Fc^2^)/3
;
_refine_ls_weighting_scheme      calc
_refine_ls_wR_factor_gt          0.0399
_refine_ls_wR_factor_ref         0.0399
_reflns_Friedel_coverage         0.000
_reflns_Friedel_fraction_full    .
_reflns_Friedel_fraction_max     .
_reflns_number_gt                312
_reflns_number_total             312
_reflns_threshold_expression     'I > 2\s(I)'
_cod_data_source_file            Bavsiite.cif
_cod_data_source_block           bavsiite
_cod_original_cell_volume        567.6(2)
_cod_database_code               1557166
_shelx_space_group_comment
;
The symmetry employed for this shelxl refinement is uniquely defined
by the following loop, which should always be used as a source of
symmetry information in preference to the above space-group names.
They are only intended as comments.
;
_shelx_estimated_absorpt_t_min   0.347
_shelx_estimated_absorpt_t_max   0.716
_shelxl_version_number           2013-2
_shelx_res_file
;
TITL Bavsiite in I4/m
CELL 0.71073   7.0429   7.0429  11.4439  90.000  90.000  90.000
ZERR    2.00   0.0010   0.0010   0.0023   0.000   0.000   0.000
LATT  2
SYMM -X, -Y, Z
SYMM -Y, X, Z
SYMM Y, -X, Z
SFAC O SI V BA
UNIT 28 8 4 4
L.S. 10
ACTA
OMIT 0 3 1
BOND
FMAP 2
PLAN 0
CONF
SIZE 0.15 0.11 .04
TWIN 0 1 0 1 0 0 0 0 -1 2
WGHT    0.017900    2.329800
EXTI    0.002710
BASF   0.29037
FVAR       0.32935
RESI 0
BA    4    0.500000    0.000000    0.250000    10.25000    0.01296    0.01296 =
         0.00930    0.00000    0.00000    0.00000
V     3    0.000000    0.000000    0.343599    10.25000    0.00811    0.00811 =
         0.00725    0.00000    0.00000    0.00000
SI    2    0.211857    0.236884    0.000000    10.50000    0.00516    0.00553 =
         0.00911    0.00000    0.00000    0.00140
O1    1    0.268217    0.014441    0.000000    10.50000    0.01124    0.00838 =
         0.06526    0.00000    0.00000    0.00340
O2    1    0.209772    0.169354    0.382775    11.00000    0.02801    0.03997 =
         0.01589   -0.01309    0.00704   -0.02341
O3    1    0.000000    0.000000    0.203118    10.25000    0.01756    0.01756 =
         0.01450    0.00000    0.00000    0.00000
HKLF 4

REM  Bavsiite in I4/m
REM R1 =  0.0159 for     312 Fo > 4sig(Fo)  and  0.0159 for all     312 data
REM     32 parameters refined using      0 restraints

END

WGHT      0.0179      2.3272

REM Highest difference peak  0.368,  deepest hole -0.470,  1-sigma level  0.110
Q1    1   0.2794  0.0042  0.4597  11.00000  0.05    0.37
Q2    1   0.3980  0.0282  0.2365  11.00000  0.05    0.35
Q3    1   0.2498  0.0146 -0.0400  11.00000  0.05    0.35
Q4    1   0.5000  0.0000  0.1268  10.50000  0.05    0.33
Q5    1   0.0000  0.0000  0.4213  10.25000  0.05    0.33
Q6    1   0.4594  0.0502  0.3080  11.00000  0.05    0.32
Q7    1   0.6093  0.0951  0.1797  11.00000  0.05    0.31
Q8    1   0.5000  0.0000  0.1844  10.50000  0.05    0.31
Q9    1   0.0000  0.0000  0.0408  10.25000  0.05    0.27
Q10   1   0.0905  0.1703  0.1852  11.00000  0.05    0.26
Q11   1   0.3778  0.0522  0.3988  11.00000  0.05    0.25
Q12   1   0.3151  0.2314  0.3199  11.00000  0.05    0.25
Q13   1   0.2754  0.1888  0.3306  11.00000  0.05    0.25
Q14   1   0.2542  0.1607  0.3469  11.00000  0.05    0.24
Q15   1   0.1932  0.0821  0.0000  10.50000  0.05    0.24
Q16   1   0.2401  0.3846  0.3125  11.00000  0.05    0.23
Q17   1   0.0000  0.0000  0.1285  10.25000  0.05    0.23
Q18   1   0.1618  0.2367  0.3571  11.00000  0.05    0.23
Q19   1   0.2528  0.3208  0.3909  11.00000  0.05    0.22
Q20   1   0.1393  0.1258  0.4169  11.00000  0.05    0.22
;
_shelx_res_checksum              36639
_shelx_hkl_file
;
   0  -1  -1   86.18    3.21
   0  -1  -1   89.26    3.13
   0  -1  -1   84.01    2.77
   0  -2  -2 8386.66  157.95
   0  -2  -2 8409.50  149.18
   0  -2  -2 8642.73  147.27
   0  -3  -3    1.59    1.09
   0  -3  -3    1.04    0.84
   0  -3  -3    3.45    1.56
   0  -4  -4 3197.33   62.82
   0  -4  -4 3137.63   58.48
   0  -4  -4 3096.76   62.81
   0   5   5  366.11   11.68
   0  -5  -5  368.06   13.92
   0  -5  -5  366.71   14.22
   0  -6  -6  774.50   24.52
   0  -6  -6  763.31   23.81
   0   7   7  231.64   12.56
   1  -7  -6 1190.63   34.20
  -1   6   5   53.23    4.63
   1  -6  -5   59.37    6.24
  -1   5   4 2053.48   40.86
   1  -5  -4 2021.86   43.84
   1  -5  -4 1835.53   43.01
  -1   4   3  564.65   15.05
   1  -4  -3  559.19   15.93
   1  -4  -3  567.66   16.26
   1  -3  -2 1472.40   30.75
   1  -3  -2 1523.72   31.70
   1  -2  -1  416.51   11.00
   1  -2  -1  419.39    9.87
  -1   1   0  762.15   15.56
   1  -1   0  787.87   16.82
  -1   1   0  818.79   15.22
   1   0   1   84.36    3.75
  -1   0  -1   79.77    2.93
  -1   0  -1   84.67    2.53
   1   1   2 2061.48   39.21
  -1  -1  -2 2035.21   35.69
  -1  -1  -2 2005.63   38.15
  -1  -2  -3    3.09    1.40
  -1  -2  -3    2.56    0.77
   1   2   3    2.94    1.39
   1   3   4 2607.04   51.84
  -1  -3  -4 2569.93   51.31
  -1  -3  -4 2547.96   46.55
   1   4   5   48.95    4.44
  -1  -4  -5   55.49    3.44
  -1  -4  -5   47.11    4.99
  -1  -5  -6 1950.66   45.61
   1   5   6 1947.58   45.51
   1   6   7  170.05   10.49
  -1  -6  -7  174.48   10.89
   1   7   8  687.91   24.84
  -2   7   5   74.73    6.10
   2  -7  -5   73.74    6.65
   2  -6  -4 1025.00   28.04
  -2   6   4  974.69   26.12
   2  -5  -3   63.42    5.22
  -2   5   3   58.39    4.74
  -2   4   2 4638.84   83.16
  -2   4   2 4586.95   84.02
   2  -4  -2 4541.37   87.94
  -2   3   1  344.02    8.02
   2  -3  -1  331.38   11.18
  -2   3   1  326.90   10.25
   2  -2   0 9533.21  175.42
  -2   2   0 9924.28  177.74
  -2   2   0 9993.45  175.02
  -2   1  -1  221.55    5.73
   2  -1   1  224.63    8.24
  -2   1  -1  225.71    6.50
  -2   0  -2 8489.66  155.32
  -2   0  -2 8589.00  151.32
   2   0   2 8788.92  155.52
  -2  -1  -3   -0.46    0.83
  -2  -1  -3    4.17    0.84
   2   1   3    3.26    1.75
  -2  -2  -4 1435.55   26.46
  -2  -2  -4 1484.45   31.68
   2   2   4 1464.99   32.77
   2   3   5  219.53    9.67
  -2  -3  -5  217.12    9.42
   2   4   6 1330.54   33.48
  -2  -4  -6 1347.84   33.73
  -2  -5  -7  498.41   18.75
   2   5   7  500.45   18.70
  -2  -6  -8  712.84   26.09
   2   6   8  729.70   25.22
   3  -7  -4  738.59   24.70
  -3   7   4  755.04   23.65
  -3   6   3  182.44    9.53
   3  -6  -3  189.83   10.17
  -3   5   2  430.54   14.63
   3  -5  -2  421.71   15.50
  -3   4   1  211.58    9.00
   3  -4  -1  215.37    9.94
  -3   3   0   29.18    1.45
  -3   3   0   30.38    3.42
   3  -3   0   32.10    4.04
  -3   2  -1  140.53    5.98
   3  -2   1  141.52    7.51
  -3   1  -2 1442.14   28.45
   3  -1   2 1445.44   33.62
  -3   1  -2 1488.97   28.78
  -3   0  -3    1.37    0.91
   3   0   3   -1.62    0.82
  -3   0  -3    1.41    0.75
  -3  -1  -4 3156.78   60.59
   3   1   4 3110.44   64.13
  -3  -2  -5  229.98    9.66
   3   2   5  251.88   11.20
  -3  -3  -6 2952.79   60.93
   3   3   6 2894.21   62.08
  -3  -4  -7  189.79   10.84
   3   4   7  206.96   11.13
   3   5   8 1424.86   38.96
  -3  -5  -8 1401.84   38.92
  -3  -6  -9  147.55   11.24
   3   6   9  157.31   10.97
   4  -7  -3   56.55    6.92
  -4   7   3   58.80    6.85
  -4   6   2 1472.40   36.65
   4  -6  -2 1482.53   38.68
  -4   5   1   39.09    4.96
   4  -5  -1   52.80    6.04
   4  -4   0 4343.45   87.82
  -4   4   0 4379.96   82.54
  -4   3  -1   78.17    5.08
   4  -3   1   88.15    6.41
  -4   2  -2 4490.67   79.89
   4  -2   2 4394.76   88.44
  -4   2  -2 4411.12   80.47
  -4   1  -3  364.42   10.54
  -4   1  -3  353.15   10.24
   4  -1   3  338.00   14.15
  -4   0  -4 3035.76   58.66
   4   0   4 2983.13   64.55
  -4   0  -4 2998.53   54.18
  -4  -1  -5  108.87    6.40
   4   1   5  110.05    7.87
   4   2   6 1480.27   38.25
  -4  -2  -6 1483.41   35.33
   4   3   7  280.64   13.83
  -4  -3  -7  304.96   13.39
  -4  -4  -8 1230.64   35.17
   4   4   8 1209.84   35.48
   4   5   9  353.68   17.55
  -4  -5  -9  350.45   17.45
   5  -7  -2  161.49   10.90
  -5   7   2  171.20   10.64
   5  -6  -1  304.35   14.98
  -5   6   1  301.97   13.78
  -5   5   0   87.15    6.60
   5  -5   0   84.14    7.38
   5  -4   1   97.86    7.82
  -5   4  -1   97.89    6.61
   5  -3   2  658.71   22.66
  -5   3  -2  639.65   18.42
   5  -2   3   58.47    6.94
  -5   2  -3   53.84    4.09
  -5   1  -4 3309.00   64.61
   5  -1   4 3357.48   73.61
  -5   0  -5  430.13   14.24
   5   0   5  405.25   17.74
   5   1   6 2516.60   59.51
  -5  -1  -6 2517.78   53.95
  -5  -2  -7  454.54   17.26
   5   2   7  454.02   19.29
  -5  -3  -8 1596.01   41.45
   5   3   8 1545.95   42.93
   5   4   9  242.27   14.35
  -5  -4  -9  215.15   13.40
   6  -6   0 1123.89   35.12
  -6   6   0 1063.20   31.60
  -6   5  -1  207.66   11.09
   6  -5   1  196.42   12.56
   6  -4   2 1502.62   42.41
  -6   4  -2 1542.92   36.62
   6  -3   3  113.98    9.56
  -6   3  -3  120.45    7.15
  -6   2  -4  896.14   22.84
   6  -2   4  921.59   30.72
   6  -1   5   30.00    6.18
  -6   0  -6  824.22   23.65
   6   0   6  835.04   29.46
  -6  -1  -7  218.85   11.43
   6   1   7  204.31   13.26
  -6  -2  -8  709.86   24.54
   6   2   8  737.51   27.79
   6   3   9  173.81   12.72
  -6  -3  -9  192.38   12.49
   7  -5   2  208.72   14.01
  -7   5  -2  203.78   11.33
  -7   4  -3   24.98    4.26
   7  -4   3   22.95    5.07
   7  -3   4 1050.20   36.31
   7  -2   5   83.36   10.27
   7  -1   6 1628.37   49.28
   7   0   7  254.65   15.96
   7   1   8  926.42   34.07
  -7  -1  -8  947.31   29.73
   8  -1   5   44.93    8.21
   8  -2   4  265.72   17.17
   8  -3   3  150.50   12.21
   7   2   7   25.40    5.70
  -7  -2  -7   14.05    3.35
  -7  -1  -6 1268.74   34.60
   7   1   6 1300.04   41.15
   7   0   5   85.23   10.23
  -7   0  -5   88.36    6.53
   7  -1   4  992.50   34.91
   7  -2   3  388.55   19.26
   7  -3   2  748.07   28.18
  -7   3  -2  755.83   21.93
   7  -4   1  291.40   15.92
  -7   4  -1  279.00   12.86
   7  -5   0  383.46   18.46
  -7   5   0  341.37   15.50
   6   4   8  492.04   22.17
  -6  -4  -8  464.68   20.05
  -6  -3  -7   24.61    4.70
   6   3   7   39.85    7.04
   6   2   6  230.72   14.27
  -6  -2  -6  224.22   11.52
   6   1   5   73.18    8.78
  -6  -1  -5   67.59    5.58
   6   0   4  213.17   13.21
  -6   0  -4  215.91    9.71
  -6   1  -3  100.35    5.79
   6  -1   3   89.93    9.27
   6  -2   2 1468.72   40.35
  -6   2  -2 1499.17   33.10
   6  -3   1   16.55    3.72
  -6   3  -1   11.42    2.59
  -6   4   0 1696.14   39.75
   6  -4   0 1724.76   44.39
  -6   5   1  227.40   11.63
   6  -5  -1  219.74   12.67
   6  -6  -2  851.36   28.54
  -6   6   2  881.05   27.55
   5   5   8  342.87   17.86
  -5  -5  -8  371.59   17.63
  -5  -4  -7   42.43    6.22
   5   4   7   47.62    7.11
   5   3   6 1471.78   40.63
  -5  -3  -6 1457.42   37.17
   5   2   5  307.02   14.85
  -5  -2  -5  300.07   12.48
  -5  -1  -4 2231.82   47.43
   5   1   4 2243.54   53.70
   5   0   3  950.32   28.59
  -5   0  -3  944.05   23.21
  -5   1  -2  818.95   19.35
   5  -1   2  792.94   25.46
  -5   1  -2  878.60   20.43
  -5   2  -1  485.48   14.33
   5  -2   1  485.52   17.87
  -5   3   0 1033.56   25.20
   5  -3   0  992.34   28.29
  -5   4   1  105.22    6.93
   5  -4  -1  101.63    7.45
  -5   5   2  754.13   22.69
   5  -5  -2  702.27   23.52
   5  -6  -3    5.62    2.44
  -5   6   3    6.92    2.40
   4   6   8  418.23   19.95
  -4  -6  -8  433.20   19.74
   4   5   7   20.68    4.48
  -4  -5  -7   16.58    3.77
  -4  -4  -6   61.06    6.43
   4   4   6   67.62    7.35
   4   3   5   50.64    6.24
  -4  -3  -5   54.74    4.87
   4   2   4  258.08   12.16
  -4  -2  -4  246.42   10.10
   4   1   3  560.39   19.02
  -4  -1  -3  579.11   15.89
  -4   0  -2 1001.93   20.49
  -4   0  -2 1034.05   23.21
   4   0   2 1012.56   27.51
  -4   1  -1   75.67    4.13
   4  -1   1   85.32    6.34
  -4   1  -1   83.20    4.25
  -4   2   0 2860.59   53.67
   4  -2   0 2908.22   60.29
  -4   2   0 2924.36   55.18
  -4   3   1   90.93    5.59
   4  -3  -1   77.18    5.82
  -4   4   2  919.60   24.05
   4  -4  -2  912.44   25.24
  -4   5   3  316.02   13.29
   4  -5  -3  322.65   13.43
   4  -6  -4  180.63   10.36
  -4   6   4  192.39   10.78
  -4   7   5   18.79    3.89
  -3  -6  -7   72.77    8.01
   3   6   7   55.96    7.56
   3   5   6 1716.71   43.56
  -3  -5  -6 1704.88   41.65
  -3  -4  -5   17.66    3.35
   3   4   5   18.61    3.80
  -3  -3  -4 3007.22   60.16
   3   3   4 2999.86   62.53
  -3  -2  -3  740.10   18.64
   3   2   3  713.03   20.38
  -3  -1  -2 1602.13   27.77
   3   1   2 1546.88   35.58
  -3  -1  -2 1547.42   32.11
  -3   0  -1   24.79    2.30
  -3   0  -1   26.98    1.95
   3   0   1   24.48    3.58
  -3   1   0 1358.03   27.41
   3  -1   0 1451.96   31.52
   3  -2  -1  156.33    7.09
   3  -2  -1  145.36    6.29
  -3   3   2 1891.68   36.54
   3  -3  -2 1881.16   39.09
   3  -3  -2 1892.47   40.40
  -3   4   3   52.27    5.25
   3  -4  -3   54.99    4.55
   3  -5  -4 1880.14   42.72
  -3   5   4 1883.21   41.93
  -3   6   5   30.96    4.98
   3  -6  -5   45.77    5.54
  -3   7   6 1550.05   40.10
   2   7   7   11.17    2.97
  -2  -7  -7    9.70    2.91
   2   6   6  247.51   13.06
  -2  -6  -6  231.44   12.15
  -2  -5  -5  305.39   12.52
   2   5   5  291.58   13.25
   2   4   4  294.17   11.93
  -2  -4  -4  284.21   11.00
   2   3   3  740.50   20.34
   2   3   3  805.13   14.78
  -2  -3  -3  767.51   19.35
   2   2   2 3366.09   65.16
  -2  -2  -2 3397.11   63.17
   2   1   1  429.30   12.25
  -2  -1  -1  428.96   10.85
  -2   0   0 1909.63   36.19
   2   0   0 1907.42   38.37
   2   0   0 1980.13   34.66
  -2   1   1  238.28    6.58
   2  -1  -1  229.83    6.91
   2  -1  -1  231.23    7.55
  -2   2   2 3598.71   65.64
   2  -2  -2 3657.05   65.49
   2  -2  -2 3565.09   67.42
  -2   3   3  792.21   18.84
   2  -3  -3  809.39   19.61
   2  -3  -3  787.45   19.37
   2  -4  -4  242.55    9.78
   2  -4  -4  255.54   10.03
   2  -5  -5  314.20   12.40
   2  -6  -6  188.62   10.23
  -2   6   6  199.63   10.27
  -2   7   7   12.43    3.45
   1   7   6 1509.20   41.55
   1   6   5   22.38    4.41
  -1  -6  -5   28.64    4.46
  -1  -5  -4 2965.96   60.77
  -1  -5  -4 3030.54   62.78
   1   4   3  323.65    8.93
  -1  -4  -3  347.97   11.06
  -1  -4  -3  316.05   11.90
  -1  -3  -2 1476.14   32.04
   1   3   2 1473.85   27.51
  -1  -3  -2 1475.19   30.29
   1   2   1  228.75    5.38
  -1  -2  -1  216.32    6.68
  -1  -2  -1  221.94    7.59
   1   1   0  775.72   16.50
  -1  -1   0  784.06   15.90
   1   1   0  779.99   14.72
  -1   0   1   86.01    3.24
   1   0  -1   86.89    3.01
   1   0  -1   84.23    3.08
   1  -1  -2 1938.33   35.13
   1  -1  -2 1820.49   35.52
  -1   1   2 2010.98   36.51
   1  -2  -3    1.27    1.09
   1  -2  -3    2.59    1.10
   1  -3  -4 2954.48   59.86
   1  -3  -4 3050.82   56.30
   1  -3  -4 3042.98   58.02
   1  -4  -5  117.99    6.26
   1  -4  -5  129.09    6.69
   1  -4  -5  120.06    7.47
   1  -5  -6 2510.71   51.34
   1  -5  -6 2564.96   54.00
   1  -5  -6 2436.56   55.22
  -1   6   7  222.69   10.73
   1  -6  -7  233.04   11.58
   0  -7  -5   90.33    7.62
   0   6   4  193.66    8.24
   0  -6  -4  180.17   10.17
   0  -5  -3  986.27   24.13
   0   5   3  979.99   22.30
   0  -5  -3  954.21   25.87
   0   4   2  961.24   20.76
   0  -4  -2  941.25   23.44
   0  -3  -1   22.27    2.82
   0  -3  -1   26.45    2.08
   0   3   1   22.75    2.12
   0  -2   0 1912.88   37.63
   0  -2   0 1936.73   35.40
   0   2   0 1962.25   35.29
   0  -1   1   92.75    3.33
   0  -1   1   78.11    2.66
   0   1  -1   79.92    2.96
   0   0  -2  895.70   17.82
   0   0   2  902.99   17.58
   0   0  -2  927.61   18.80
   0   1   3 1347.64   25.90
   0  -1  -3 1307.63   27.85
   0  -1  -3 1357.93   25.57
   0  -2  -4 1419.11   31.02
   0  -2  -4 1398.60   27.71
   0  -3  -5  253.85   10.59
   0  -3  -5  257.43    8.41
   0  -3  -5  264.78    9.24
   0  -4  -6   46.75    5.57
   0   4   6   43.31    4.50
   0  -4  -6   48.15    3.81
   0  -5  -7   29.62    5.10
   0   5   7   22.55    3.79
   0  -6  -8  548.28   21.61
   0   6   8  534.81   19.55
   1  -8  -5   42.50    6.57
  -1   7   4 1271.66   31.41
   1  -7  -4 1333.89   36.04
  -1   6   3   31.23    3.90
   1  -6  -3   29.18    4.50
   1  -5  -2 1026.76   26.21
  -1   5   2  957.24   23.34
   1  -4  -1   40.19    4.21
   1  -4  -1   44.85    2.89
  -1   4   1   41.14    3.39
   1  -3   0  901.88   22.00
  -1   3   0  944.20   20.54
   1  -3   0 1008.57   18.77
  -1   2  -1  413.36   10.29
   1  -2   1  414.79   11.49
   1  -1   2 2003.60   38.33
  -1   1  -2 1987.84   35.61
  -1   1  -2 1906.73   36.26
  -1   0  -3 1321.75   26.36
   1   0   3 1283.32   26.98
  -1   0  -3 1309.84   24.76
  -1  -1  -4 4896.99   90.32
   1   1   4 5098.83   90.60
  -1  -1  -4 4783.75   85.95
  -1  -2  -5  165.93    7.70
  -1  -2  -5  153.34    5.63
   1   2   5  150.20    6.74
  -1  -3  -6 3458.74   61.03
   1   3   6 3439.09   65.89
  -1  -3  -6 3084.73   67.25
   1   4   7  196.11    9.36
  -1  -4  -7  181.82   10.35
   1   5   8  892.94   26.50
  -1  -5  -8  975.55   29.57
  -1  -6  -9   64.70    8.42
   2  -8  -4  161.10   10.94
  -2   8   4  167.87    9.93
   2  -7  -3  311.84   14.45
  -2   7   3  319.76   13.02
  -2   6   2 1378.65   32.30
   2  -6  -2 1351.08   35.16
   2  -5  -1  315.16   12.86
  -2   5   1  336.46   11.78
   2  -4   0 2846.91   58.53
  -2   4   0 2865.50   54.91
   2  -3   1  306.11   11.23
  -2   3  -1  327.79   10.15
  -2   2  -2 3291.01   59.62
  -2   2  -2 3378.39   60.40
   2  -2   2 3329.53   64.90
  -2   1  -3    1.11    0.96
   2  -1   3    0.30    1.20
  -2   1  -3    1.68    0.90
  -2   0  -4 1399.62   29.23
   2   0   4 1407.87   31.41
  -2  -1  -5  152.32    5.74
   2   1   5  161.72    7.76
  -2  -1  -5  152.21    7.22
   2   2   6  363.84   12.93
  -2  -2  -6  367.51   13.30
  -2  -2  -6  364.78    9.99
  -2  -3  -7  110.52    7.49
   2   3   7  104.43    6.75
  -2  -4  -8  469.96   18.74
   2   4   8  442.38   16.81
  -2  -5  -9   20.00    4.64
   2   5   9   17.73    3.67
   3  -8  -3   45.62    6.52
  -3   8   3   51.64    6.64
   3  -7  -2  927.64   28.97
  -3   7   2  910.39   26.58
   3  -6  -1   13.50    3.30
  -3   6   1   11.39    2.80
   3  -5   0 1132.53   30.34
  -3   5   0 1125.12   27.71
  -3   4  -1  215.92    9.16
   3  -4   1  217.81   10.46
   3  -3   2 1692.53   39.54
  -3   3  -2 1765.64   35.84
  -3   2  -3  714.46   17.28
  -3   2  -3  708.33   15.48
   3  -2   3  735.79   21.23
  -3   1  -4 2457.72   47.82
  -3   1  -4 2526.84   46.60
   3  -1   4 2515.14   53.55
  -3   0  -5  228.21    8.77
  -3   0  -5  234.10    7.38
   3   0   5  230.91   10.70
  -3  -1  -6 3347.28   67.18
   3   1   6 3417.49   69.54
  -3  -2  -7  191.81    9.92
   3   2   7  190.36   10.09
  -3  -3  -8  647.87   22.03
   3   3   8  670.41   21.86
  -3  -4  -9  123.84    9.55
   3   4   9  125.74    8.91
   3   5  10  232.90   13.15
  -3  -5 -10  219.44   14.16
   4  -7  -1  117.83    9.17
  -4   7   1  129.50    8.87
  -4   6   0 1746.01   41.41
   4  -6   0 1722.30   43.86
  -4   5  -1   46.19    5.30
   4  -5   1   47.06    6.21
  -4   4  -2  878.76   23.15
   4  -4   2  877.35   26.44
   4  -3   3  117.35    8.10
  -4   3  -3  103.49    6.05
  -4   2  -4  300.10   10.27
  -4   2  -4  298.06    9.11
   4  -2   4  294.76   13.39
  -4   1  -5   47.22    3.47
   4  -1   5   42.02    5.82
  -4   1  -5   43.60    3.51
   4   0   6   43.18    5.79
  -4   0  -6   50.94    4.28
  -4  -1  -7   77.70    6.15
   4   1   7   87.44    7.23
   4   2   8  492.44   18.92
  -4  -2  -8  471.28   18.17
  -4  -3  -9   59.38    7.28
   4   3   9   62.16    7.38
   4   4  10  778.65   27.59
  -5   7   0  347.20   16.05
  -5   6  -1  325.75   14.62
   5  -6   1  339.00   16.86
  -5   5  -2  757.60   23.11
   5  -5   2  775.73   26.82
   5  -4   3  435.40   18.69
  -5   4  -3  413.54   15.08
  -5   3  -4 1383.30   32.00
   5  -3   4 1392.29   39.15
   5  -2   5  273.49   14.27
  -5   2  -5  254.86    9.80
  -5   1  -6 1924.98   41.53
   5  -1   6 1843.05   48.31
   5   0   7   27.58    5.26
  -5   0  -7   35.13    4.89
  -5  -1  -8  939.87   28.07
   5   1   8  954.86   30.79
  -5  -2  -9   42.20    6.38
   5   2   9   48.47    7.02
   5   3  10  210.68   13.16
  -5  -3 -10  188.82   12.55
   6  -6   2  832.03   30.57
  -6   6  -2  849.60   27.21
  -6   5  -3   21.04    3.85
   6  -5   3   21.17    4.81
   6  -4   4  195.41   12.98
  -6   4  -4  211.14   10.49
  -6   3  -5   18.02    3.19
   6  -3   5   11.30    3.36
   6  -2   6  255.98   15.14
   6  -1   7  166.13   12.35
  -6   0  -8  588.87   20.79
   6   0   8  555.85   23.58
  -6  -1  -9   46.10    6.46
   6   1   9   44.47    7.25
   7  -4   5   37.98    7.03
   7  -3   6 1354.53   44.25
   7  -2   7   13.39    3.86
   7  -1   8  796.47   31.99
   8   1   5   38.57    7.41
  -8  -1  -5   51.53    6.29
   8   0   4  750.62   30.59
   8  -1   3   99.84   11.47
   8  -2   2 1134.76   38.01
   8  -3   1   48.89    7.68
  -7  -3  -6 1602.25   42.30
   7   3   6 1634.16   48.25
  -7  -2  -5   76.71    6.51
   7   2   5   81.60   10.04
   7   1   4 1391.01   42.25
  -7  -1  -4 1372.48   34.98
   7   0   3    7.06    3.16
  -7   0  -3    1.86    1.39
   7  -1   2  732.86   27.56
   7  -2   1   56.64    7.53
  -7   3   0   88.70    6.52
   7  -3   0   80.37    8.44
   7  -4  -1  267.93   14.25
  -7   4   1  266.40   12.62
  -7   5   2  196.61   11.45
   7  -5  -2  212.82   12.46
  -6  -4  -6  460.12   18.72
   6   4   6  458.36   21.14
   6   3   5   34.21    5.96
  -6  -3  -5   25.22    4.30
  -6  -2  -4 1036.26   28.30
   6   2   4 1079.76   33.61
   6   1   3   32.65    6.08
  -6  -1  -3   38.67    4.65
  -6   0  -2 2610.40   53.98
   6   0   2 2643.42   61.54
   6  -1   1  159.14   10.42
  -6   1  -1  105.49    6.05
  -6   1  -1  137.30    6.50
  -6   2   0 2490.48   50.42
   6  -2   0 2468.17   57.06
   6  -3  -1   16.17    3.63
  -6   3   1   19.52    3.55
  -6   4   2 1597.66   39.13
   6  -4  -2 1662.24   41.62
  -6   5   3   20.72    4.29
   6  -5  -3   20.96    4.01
  -5  -5  -6 1454.36   39.03
   5   5   6 1464.04   42.00
  -5  -4  -5   51.71    6.11
   5   4   5   48.21    6.95
  -5  -3  -4 1789.47   41.66
   5   3   4 1834.72   46.00
   5   2   3   50.94    6.64
  -5  -2  -3   66.06    5.14
  -5  -1  -2 1139.15   27.44
   5   1   2 1147.87   32.31
  -5   0  -1    2.88    1.25
   5   0   1    1.66    1.89
  -5   0  -1    1.84    1.02
  -5   1   0  341.10   10.51
  -5   1   0  328.02   10.41
   5  -1   0  284.80   12.98
   5  -2  -1  481.91   16.89
  -5   2   1  494.98   14.87
  -5   3   2  669.29   19.46
   5  -3  -2  652.32   20.37
   5  -4  -3  429.06   15.95
  -5   4   3  429.89   15.76
   5  -5  -4 1391.95   34.94
  -5   5   4 1294.44   34.69
  -5   6   5   43.59    6.51
   4   6   6  467.14   20.31
  -4  -6  -6  418.16   18.02
   4   5   5   80.01    8.19
  -4  -5  -5   76.44    6.46
   4   4   4 1918.74   46.68
  -4  -4  -4 1925.19   43.43
   4   3   3   62.05    6.37
  -4  -2  -2 4386.06   82.57
   4   2   2 4317.68   87.10
   4   1   1   44.41    5.29
  -4  -1  -1   36.66    3.30
  -4  -1  -1   40.94    2.18
   4   0   0 8821.42  152.39
  -4   0   0 9087.06  158.51
   4   0   0 8864.37  163.84
  -4   1   1   88.72    4.59
   4  -1  -1   86.77    5.76
   4  -1  -1   86.47    4.64
  -4   2   2 4734.79   86.44
   4  -2  -2 4790.22   86.43
   4  -2  -2 4612.76   89.69
   4  -3  -3  128.72    7.15
   4  -3  -3  126.63    6.96
  -4   3   3  121.89    5.77
   4  -4  -4 1996.41   44.16
   4  -4  -4 1972.50   43.54
   4  -5  -5   48.70    5.41
  -4   6   6  483.42   19.04
  -3  -7  -6 1403.32   39.44
   3   7   6 1434.79   42.24
  -3  -6  -5   12.89    3.24
   3   6   5   18.00    4.29
   3   5   4 1402.69   36.24
  -3  -5  -4 1338.05   33.51
  -3  -4  -3  105.30    6.32
   3   4   3   95.34    6.77
  -3  -3  -2 1782.14   37.38
   3   3   2 1726.68   39.40
   3   2   1  303.91   11.44
  -3  -2  -1  315.24   10.11
   3   1   0  969.36   18.03
   3   1   0  902.19   22.83
  -3  -1   0  927.08   20.88
   3   0  -1   25.16    2.10
   3   0  -1   27.21    3.16
  -3   0   1   27.30    2.54
   3  -1  -2 1478.74   30.61
  -3   1   2 1418.20   29.64
   3  -1  -2 1481.48   29.69
   3  -2  -3  756.10   18.74
   3  -2  -3  771.48   18.64
  -3   2   3  766.43   18.29
   3  -3  -4 3191.96   63.01
   3  -3  -4 3273.19   63.18
  -3   3   4 3310.41   62.98
   3  -4  -5   48.35    5.08
  -3   4   5   50.95    4.45
   3  -4  -5   56.18    4.37
   3  -5  -6 1432.41   35.49
  -3   6   7   31.17    5.73
  -2  -7  -5  100.26    7.54
   2   7   5   96.91    8.49
  -2  -6  -4  903.87   25.45
   2   6   4  921.07   28.43
   2   5   3   71.64    6.18
  -2  -5  -3   75.58    5.34
   2   4   2 4462.96   76.71
   2   4   2 4349.68   85.78
  -2  -4  -2 4378.06   82.59
  -2  -3  -1  139.71    6.17
   2   3   1  141.05    6.91
   2   3   1  147.41    4.25
  -2  -2   0 9377.90  167.15
   2   2   0 8908.38  155.03
   2   2   0 9132.71  163.47
   2   1  -1  450.41   12.01
   2   1  -1  465.07   10.41
   2   0  -2 8568.58  151.83
  -2   0   2 9311.51  162.81
   2   0  -2 8883.47  159.77
   2  -1  -3    0.82    0.77
  -2   1   3    1.02    1.15
   2  -1  -3    2.75    1.26
   2  -2  -4 1548.78   30.61
  -2   2   4 1548.94   32.76
   2  -2  -4 1461.08   31.35
   2  -3  -5  257.74    9.89
  -2   3   5  255.41   10.37
  -2   4   6 1426.58   34.84
   2  -4  -6 1422.22   32.08
   2  -4  -6 1408.31   33.01
  -2   5   7  375.37   15.33
   2  -5  -7  399.29   14.98
   2  -6  -8  664.39   22.29
   1   8   5   44.47    7.20
  -1  -7  -4  920.83   28.79
  -1  -6  -3   83.92    5.65
  -1  -6  -3   74.63    6.50
  -1  -5  -2  824.31   20.51
   1   5   2  805.66   18.84
  -1  -5  -2  816.65   23.40
  -1  -4  -1   81.38    4.35
   1   4   1   77.66    3.94
  -1  -4  -1   74.83    5.32
  -1  -3   0 1380.75   30.11
   1   3   0 1364.28   26.48
  -1  -3   0 1392.86   27.81
  -1  -2   1  220.37    6.57
   1   2  -1  221.04    6.17
  -1  -2   1  218.60    7.24
   1   1  -2 2056.04   38.41
  -1  -1   2 2091.56   38.34
  -1  -1   2 2074.55   38.99
  -1   0   3 1327.65   26.57
   1   0  -3 1254.68   25.92
   1  -1  -4 5116.62   90.00
  -1   1   4 4957.68   93.70
   1  -1  -4 5161.84   90.50
   1  -2  -5  138.15    5.24
   1  -2  -5  132.25    6.18
  -1   2   5  120.54    7.10
   1  -3  -6 3134.53   61.22
   1  -3  -6 3187.73   60.76
  -1   3   6 3237.31   65.74
   1  -4  -7   89.72    5.85
  -1   4   7   88.05    6.76
   1  -4  -7   98.16    5.81
  -1   5   8  811.42   25.13
   1  -5  -8  823.01   23.25
   0  -8  -4  650.94   24.72
   0  -7  -3    4.12    1.94
   0  -6  -2 2462.36   53.87
   0   6   2 2331.55   47.74
   0  -5  -1    1.97    1.27
   0   5   1    2.59    1.39
   0  -5  -1    2.71    1.07
   0  -4   0 9010.92  156.36
   0   4   0 9042.12  153.86
   0  -4   0 8695.30  161.87
   0  -3   1   20.59    2.71
   0  -3   1   24.75    1.80
   0   3  -1   22.56    2.25
   0  -2   2 8863.66  157.97
   0  -2   2 8864.24  155.96
   0   2  -2 8618.13  154.74
   0   1  -3 1288.15   25.93
   0  -1   3 1358.66   25.99
   0  -1   3 1352.11   26.57
   0   0   4 2770.40   50.77
   0   0  -4 2715.24   51.09
   0   0   4 2778.48   53.71
   0  -1  -5  386.05   13.18
   0   1   5  407.40   10.34
   0  -1  -5  393.72   11.60
   0  -2  -6 2089.71   45.60
   0  -2  -6 2057.57   40.66
   0   2   6 1999.35   40.50
   0  -3  -7  241.56    9.36
   0  -3  -7  252.15   12.08
   0  -4  -8 2335.28   48.77
   0   4   8 2341.30   50.40
   0  -4  -8 2443.11   55.79
   0  -5  -9  238.24   13.65
   1  -8  -3  146.16   10.39
  -1   7   2  412.07   14.54
   1  -7  -2  392.90   16.63
   1  -6  -1  117.49    7.85
  -1   6   1  114.93    6.67
  -1   5   0  248.43    9.67
   1  -5   0  278.53   11.30
  -1   4  -1   37.38    3.28
   1  -4   1   42.39    3.96
   1  -3   2 1550.22   27.58
   1  -3   2 1484.50   32.97
  -1   3  -2 1497.53   30.61
   1  -2   3    2.90    0.96
  -1   2  -3    0.71    1.01
   1  -2   3    2.36    1.36
  -1   1  -4 4552.14   82.72
   1  -1   4 4745.62   87.04
  -1   1  -4 4822.75   86.47
   1   0   5  404.07   11.85
  -1   0  -5  412.30   12.94
  -1   0  -5  422.02   11.76
   1   1   6 4105.61   77.32
  -1  -1  -6 4065.84   74.63
  -1  -1  -6 4090.87   79.32
  -1  -2  -7  416.25   15.44
   1   2   7  437.24   13.43
  -1  -2  -7  433.54   12.94
   1   3   8 1954.83   43.31
  -1  -3  -8 1988.08   47.10
  -1  -4  -9  145.26   10.24
  -1  -5 -10  444.53   20.44
  -2   8   2  958.38   27.68
   2  -8  -2  967.24   31.04
  -2   7   1   28.01    4.46
   2  -7  -1   22.93    4.52
   2  -6   0 2082.05   49.18
  -2   6   0 2128.35   45.47
   2  -5   1  310.86   12.96
  -2   5  -1  330.14   11.94
   2  -4   2 4593.59   89.36
  -2   4  -2 4514.97   83.89
  -2   3  -3  760.56   18.74
   2  -3   3  763.11   21.01
  -2   2  -4 1386.87   28.65
   2  -2   4 1428.03   32.52
  -2   2  -4 1348.30   28.49
  -2   1  -5  173.06    7.23
   2  -1   5  163.45    8.09
  -2   1  -5  164.33    6.43
  -2   0  -6 2043.65   40.39
   2   0   6 2057.27   43.95
  -2   0  -6 2063.47   43.68
  -2  -1  -7  476.29   13.62
  -2  -1  -7  473.43   16.27
   2   1   7  491.24   15.50
   2   2   8 2716.40   57.46
  -2  -2  -8 2728.60   59.67
   2   3   9  191.17    9.96
  -2  -3  -9  189.56   11.35
  -2  -4 -10 1999.46   51.65
  -2  -5 -11   89.98   10.25
  -3   8   1   79.06    6.93
   3  -8  -1   80.56    8.88
  -3   7   0   33.13    5.01
   3  -7   0   31.13    5.59
  -3   6  -1    9.66    2.79
   3  -6   1    6.57    2.27
  -3   5  -2  430.15   15.07
   3  -5   2  445.96   17.27
   3  -4   3   40.63    5.36
  -3   4  -3   46.64    4.08
  -3   3  -4 2688.67   53.95
   3  -3   4 2864.43   59.92
   3  -2   5  218.84   10.88
  -3   2  -5  246.34    8.57
  -3   2  -5  232.55    8.77
  -3   1  -6 3480.19   67.61
   3  -1   6 3533.10   71.75
  -3   1  -6 3363.34   63.92
  -3   0  -7  220.33   10.20
   3   0   7  231.18   10.98
   3   1   8 1835.85   43.55
  -3  -1  -8 1855.59   43.84
  -3  -2  -9  121.51    8.87
   3   2   9  122.03    8.09
  -3  -3 -10  784.64   27.26
   3   3  10  781.25   25.19
  -3  -4 -11   13.78    4.02
  -4   7  -1  113.70    8.40
   4  -7   1  111.70    9.21
   4  -6   2 1420.22   39.89
  -4   6  -2 1430.56   36.30
   4  -5   3  303.31   14.99
  -4   5  -3  304.69   12.74
  -4   4  -4 1970.26   42.95
   4  -4   4 1970.84   48.85
  -4   3  -5   20.56    3.23
   4  -3   5   27.37    5.16
   4  -2   6 1263.69   34.50
  -4   2  -6 1223.91   28.13
  -4   1  -7  157.90    7.29
   4  -1   7  167.88   10.32
  -4   1  -7  154.22    8.26
  -4   0  -8 2341.15   53.02
   4   0   8 2453.74   55.82
   4   1   9  208.27   11.75
  -4  -1  -9  204.41   11.64
   4   2  10 2125.05   52.44
  -4  -2 -10 2135.91   53.57
  -4  -3 -11   22.92    5.18
  -5   7  -2  171.15   10.79
  -5   6  -3    7.19    2.48
   5  -6   3    3.01    2.12
  -5   5  -4 1230.10   32.61
   5  -5   4 1267.15   38.30
   5  -4   5   92.61    9.36
  -5   4  -5   76.94    5.89
  -5   3  -6 1770.14   39.32
   5  -3   6 1775.64   47.85
   5  -2   7  536.31   21.52
  -5   2  -7  497.62   15.80
   5  -1   8  988.59   32.24
  -5   0  -9  236.20   12.62
   5   0   9  249.39   13.91
  -5  -1 -10  550.13   22.00
   5   1  10  526.61   21.84
  -5  -2 -11   68.16    8.92
   5   2  11   75.57    8.66
  -6   5  -5   21.91    3.98
   6  -5   5   16.84    4.49
   6  -4   6  441.21   21.32
  -6   4  -6  450.63   16.53
   6  -3   7   66.05    9.13
   6  -2   8  794.13   29.85
   6  -1   9   40.38    7.03
   6   0  10 1534.76   45.72
  -8  -2  -4  173.91   10.53
   8   2   4  164.61   13.18
  -8  -1  -3  157.99    9.42
   8   1   3  170.41   13.02
   8   0   2  742.95   29.28
   8  -1   1    9.66    3.24
   8  -2   0 1428.76   42.42
   8  -3  -1   49.61    6.86
  -8   3   1   40.40    5.22
  -7  -4  -5   16.93    3.95
   7   4   5   15.80    4.50
   7   3   4  774.55   29.18
  -7  -3  -4  778.81   24.99
  -7  -2  -3  304.99   13.56
   7   2   3  343.67   18.07
   7   1   2  478.94   21.27
  -7  -1  -2  480.40   16.75
  -7   0  -1  144.97    7.99
   7   0   1  138.53   10.27
   7  -1   0  350.44   16.64
   7  -2  -1   56.45    7.07
  -7   2   1   60.36    5.11
  -7   3   2  744.68   22.91
   7  -3  -2  781.57   25.24
  -7   4   3   26.22    4.70
  -6  -5  -5   44.24    6.37
   6   5   5   39.76    6.89
  -6  -4  -4  167.14   10.05
   6   4   4  206.32   13.02
  -6  -3  -3  191.99   10.13
   6   3   3  189.59   12.36
  -6  -2  -2 1432.35   34.85
   6   2   2 1452.86   39.92
   6   1   1  120.48    9.02
  -6  -1  -1  118.43    6.99
   6   0   0 2311.58   53.64
  -6   0   0 2294.76   48.54
  -6   1   1  133.40    6.87
  -6   1   1  121.20    6.65
   6  -1  -1  138.71    8.82
   6  -2  -2 1538.04   38.18
   6  -3  -3  140.95    8.54
  -6   4   4  232.11   12.10
  -6   5   5   22.95    4.80
  -5  -6  -5   18.70    4.19
   5   6   5   24.11    5.05
   5   5   4 1174.50   35.80
  -5  -5  -4 1225.04   32.83
   5   4   3  278.21   14.04
  -5  -4  -3  266.75   11.93
   5   3   2  451.89   18.01
  -5  -3  -2  430.97   15.05
  -5  -2  -1  307.66   11.60
   5   2   1  304.66   14.05
  -5  -1   0  330.81   11.61
   5   1   0  316.86   13.96
   5   1   0  339.32    8.97
  -5   0   1    2.88    1.28
   5   0  -1    1.51    0.92
   5   0  -1    2.70    1.96
   5  -1  -2  892.02   21.66
  -5   1   2  865.00   21.73
   5  -1  -2  851.50   23.38
   5  -2  -3   74.41    5.34
   5  -2  -3   72.04    5.35
  -5   2   3   75.72    4.97
   5  -3  -4 1491.54   36.25
   5  -3  -4 1606.68   36.47
   5  -4  -5   80.55    6.62
   5  -5  -6 1637.92   42.23
  -4  -7  -5   36.53    5.71
   4   7   5   41.98    7.30
  -4  -6  -4  204.73   11.04
   4   6   4  202.95   12.60
  -4  -5  -3  414.95   15.42
   4   5   3  400.23   17.16
   4   4   2  883.05   26.26
  -4  -4  -2  885.17   23.88
  -4  -3  -1  220.86    9.29
   4   3   1  210.04   10.43
  -4  -2   0 2819.46   55.74
   4   2   0 2797.56   59.05
   4   1  -1   41.15    4.55
  -4  -1   1   40.90    3.48
   4   1  -1   39.83    2.63
   4   0  -2 1025.89   22.46
   4   0  -2 1070.12   24.91
  -4   0   2 1013.33   24.01
  -4   1   3  358.21   11.55
   4  -1  -3  366.94   11.45
  -4   2   4  326.29   11.36
   4  -2  -4  317.24   11.60
   4  -2  -4  325.53   10.86
   4  -3  -5   26.55    4.01
  -4   3   5   23.18    3.46
   4  -4  -6   60.59    6.19
   4  -5  -7   35.38    5.54
   3   7   4  938.58   31.68
  -3  -7  -4  952.12   27.82
   3   6   3  111.26    8.60
  -3  -6  -3  110.23    7.32
  -3  -5  -2  615.53   18.29
   3   5   2  609.35   20.62
  -3  -4  -1   69.73    4.93
   3   4   1   82.29    6.05
   3   3   0   31.87    3.98
  -3  -3   0   24.09    3.23
   3   3   0   28.69    1.90
  -3  -2   1  311.74   10.23
   3   2  -1  313.40    8.30
   3   2  -1  312.32   10.89
  -3  -1   2 1521.98   31.76
   3   1  -2 1499.72   29.49
   3   1  -2 1509.85   32.05
   3   0  -3    1.31    0.93
  -3   0   3   -0.36    0.95
   3   0  -3    6.31    1.45
   3  -1  -4 2763.88   51.20
   3  -1  -4 2720.24   52.41
  -3   1   4 2670.66   53.48
   3  -2  -5  216.76    9.31
  -3   2   5  257.47   10.08
   3  -2  -5  266.20    8.10
  -3   3   6 3046.87   62.01
   3  -3  -6 2927.24   60.13
   3  -4  -7  340.04   13.92
  -3   4   7  340.65   14.19
   3  -5  -8 1529.04   39.00
   3  -6  -9  198.70   11.95
   2   8   4  259.91   15.49
   2   7   3  450.93   19.48
  -2  -6  -2 1408.63   33.15
  -2  -5  -1  495.38   17.12
  -2  -5  -1  509.06   14.99
   2   4   0 2772.99   50.69
  -2  -4   0 2791.65   54.10
  -2  -4   0 2761.61   57.08
   2   3  -1  146.03    5.37
  -2  -3   1  138.83    6.05
  -2  -2   2 3523.61   64.26
   2   2  -2 3425.91   64.29
   2   2  -2 3348.29   62.17
   2   1  -3    3.97    1.14
   2   1  -3    1.41    1.13
  -2  -1   3    0.41    1.12
   2   0  -4 1523.49   27.73
  -2   0   4 1480.49   31.72
   2   0  -4 1471.62   30.88
  -2   1   5  173.36    8.09
   2  -1  -5  180.90    4.80
   2  -1  -5  175.18    7.59
   2  -2  -6  365.47    9.66
   2  -2  -6  372.91   12.87
  -2   2   6  386.84   13.80
  -2   3   7  169.68    9.48
   2  -3  -7  177.49    8.83
   2  -4  -8  518.07   17.73
  -2   4   8  492.04   18.57
  -2   5   9   31.03    5.17
   2  -5  -9   26.13    4.55
  -1  -8  -3   66.62    8.18
  -1  -7  -2  619.33   22.62
   1   6   1  116.35    6.14
  -1  -6  -1  110.39    7.89
   1   5   0  326.61   10.20
  -1  -5   0  298.52   12.47
  -1  -4   1   78.33    4.15
   1   4  -1   74.03    4.15
  -1  -4   1   74.92    5.21
  -1  -3   2 1401.53   28.23
   1   3  -2 1361.10   27.82
  -1  -3   2 1411.72   29.96
   1   2  -3    4.75    1.58
  -1  -2   3    2.39    1.28
  -1  -2   3    5.31    1.28
   1   1  -4 4852.63   87.50
  -1  -1   4 4858.44   89.03
  -1  -1   4 4926.66   87.00
   1   0  -5  383.44   12.10
  -1   0   5  404.48   12.64
  -1   1   6 4165.23   82.16
  -1   1   6 4281.75   75.67
   1  -1  -6 4171.21   78.12
   1  -2  -7  531.81   15.81
  -1   2   7  493.67   17.79
   1  -3  -8 1776.53   39.50
  -1   3   8 1782.20   43.68
   1  -4  -9  243.19   11.09
  -1   4   9  223.24   12.28
  -1   5  10  438.56   18.30
   0  -8  -2  611.45   23.76
   0   7   1  133.54    7.40
   0  -7  -1  130.04    9.04
   0   6   0 2152.48   43.71
   0  -6   0 2037.62   47.85
   0  -5   1    1.31    1.13
   0   5  -1    1.81    1.30
   0   4  -2  974.11   22.09
   0  -4   2  970.66   24.13
   0  -4   2  963.35   20.01
   0  -3   3    1.15    0.86
   0   3  -3    1.73    1.16
   0  -3   3    0.68    0.89
   0  -2   4 1427.97   29.30
   0   2  -4 1366.68   28.82
   0  -2   4 1427.49   28.77
   0  -1   5  357.42    9.45
   0  -1   5  344.44   11.31
   0   1  -5  360.99   11.21
   0   0  -6   56.15    4.28
   0   0   6   54.46    3.02
   0   0   6   69.49    5.40
   0  -1  -7  220.25    9.37
   0   1   7  215.39    7.29
   0   1   7  225.54   10.75
   0  -2  -8  148.89    7.81
   0  -2  -8  142.17    8.99
   0  -3  -9  209.56   11.91
   0  -3  -9  200.53    9.72
   0   5  11  120.09    8.67
   1  -8  -1    4.10    2.17
  -1   8   1    3.24    1.58
   1  -7   0  366.53   16.03
  -1   7   0  372.01   13.95
   1  -6   1  131.94    8.55
  -1   6  -1  124.49    7.20
  -1   5  -2 1057.70   25.85
   1  -5   2 1102.40   28.67
  -1   4  -3  503.40   14.57
   1  -4   3  524.37   16.20
   1  -3   4 3106.67   56.98
   1  -3   4 3154.00   62.25
  -1   3  -4 3082.14   58.57
  -1   2  -5  124.56    5.91
   1  -2   5  110.62    5.96
   1  -1   6 3948.80   75.33
   1  -1   6 3944.74   76.76
  -1   1  -6 4001.66   73.26
   1   0   7  229.59    8.56
  -1   0  -7  231.25   10.49
  -1   0  -7  246.41    9.40
  -1  -1  -8 1822.09   43.65
   1   1   8 1902.21   39.70
  -1  -1  -8 1890.08   40.02
  -1  -2  -9  207.02    9.34
  -1  -2  -9  206.77   11.60
  -1  -3 -10  532.36   21.33
  -1  -4 -11   27.35    5.61
  -2   8   0 1220.90   32.36
   2  -8   0 1161.25   35.65
   2  -7   1   28.12    5.13
  -2   7  -1   24.06    4.10
   2  -6   2 1302.98   35.36
  -2   6  -2 1340.98   32.45
   2  -5   3   67.95    5.88
  -2   5  -3   56.26    4.91
   2  -4   4  225.79   10.89
  -2   4  -4  233.29    9.49
   2  -3   5  242.81    7.88
  -2   3  -5  248.43    9.50
   2  -3   5  248.65   11.09
   2  -2   6  333.13   12.92
  -2   2  -6  343.43   11.25
  -2   1  -7  383.51   12.48
  -2   1  -7  379.36   13.57
   2  -1   7  366.52   13.57
  -2   0  -8  170.88    7.99
   2   0   8  157.08    8.16
  -2   0  -8  175.90    9.44
  -2  -1  -9   98.22    6.10
   2   1   9  103.94    6.65
  -2  -1  -9  105.18    7.87
  -2  -2 -10  808.46   26.94
  -2  -3 -11  133.67   10.57
  -2  -4 -12  517.20   23.49
   3  -8   1   81.71    9.04
  -3   8  -1   74.64    7.73
  -3   7  -2  811.72   25.29
   3  -7   2  864.60   28.69
   3  -6   3  169.99   10.71
  -3   6  -3  162.68    9.37
   3  -5   4 1816.30   45.57
  -3   5  -4 1813.52   40.98
   3  -4   5   50.87    6.36
  -3   4  -5   47.31    4.79
  -3   3  -6 2757.01   54.36
   3  -3   6 2692.12   60.22
   3  -2   7  109.81    7.80
  -3   2  -7  137.97    7.30
  -3   2  -7  120.25    6.57
  -3   1  -8 1978.04   41.45
  -3   1  -8 1969.04   44.27
   3  -1   8 1893.80   45.68
  -3   0  -9  229.87   11.62
   3   0   9  231.58   11.25
  -3   0  -9  222.23    9.60
  -3  -1 -10  495.33   19.86
   3   1  10  555.36   19.09
  -3  -2 -11   65.89    8.28
  -3  -3 -12  501.84   22.87
  -4   7  -3   52.91    6.68
   4  -7   3   48.06    7.34
   4  -6   4  179.85   12.17
  -4   6  -4  181.64   10.47
  -4   5  -5   48.58    5.48
   4  -5   5   44.22    6.88
  -4   4  -6   67.98    5.48
   4  -4   6   56.13    7.27
  -4   3  -7  166.92    8.36
   4  -3   7  143.52   10.12
  -4   2  -8  469.31   15.54
   4  -2   8  491.76   19.43
  -4   1  -9  131.09    8.40
   4  -1   9  125.70    9.19
   4   0  10  730.33   24.37
  -4   0 -10  728.15   24.55
  -4  -1 -11   55.83    7.55
  -4  -2 -12  516.73   23.00
   5  -6   5   38.76    7.05
  -5   6  -5   44.46    5.98
  -5   5  -6 1412.13   35.58
   5  -5   6 1343.00   41.90
   5  -4   7   19.12    4.43
  -5   4  -7   22.49    4.00
   5  -3   8 1338.08   40.63
  -5   3  -8 1382.47   33.62
   5  -2   9   20.14    4.57
   5  -1  10  464.42   20.43
   5   0  11  120.65    9.65
  -5   0 -11  134.98    9.99
   6  -4   8  423.37   21.30
   6  -3   9  147.99   12.00
  -8  -3  -3   56.83    6.78
   8   3   3   55.33    8.68
   8   2   2 1111.08   37.83
  -8  -2  -2 1080.52   31.09
   8   1   1   11.12    3.47
  -8  -1  -1    8.76    2.18
   8   0   0 1896.78   50.47
  -8   0   0 1742.07   42.46
   8  -1  -1   21.89    4.55
  -8   3   3  128.85    8.78
  -7  -4  -3   62.02    6.96
   7   4   3   65.86    8.94
  -7  -3  -2  903.33   26.67
   7   3   2  874.75   30.93
  -7  -2  -1   22.06    3.83
   7   2   1   21.15    4.96
  -7  -1   0  442.07   16.16
   7   1   0  456.51   19.50
  -7   0   1  130.85    7.72
   7   0  -1  141.07    9.66
  -7   1   2  712.51   20.48
   7  -1  -2  661.26   22.65
   7  -2  -3  458.15   16.87
  -7   4   5   42.59    6.58
  -6  -5  -3    6.90    2.38
   6   5   3   11.95    3.58
   6   4   2 1405.12   40.53
  -6  -4  -2 1460.81   36.85
  -6  -3  -1    7.57    2.27
   6   3   1   11.90    3.42
  -6  -2   0 2157.08   47.00
   6   2   0 2063.04   50.81
  -6  -1   1  125.56    7.33
   6   1  -1  121.53    8.54
  -6   0   2 2468.76   51.53
   6   0  -2 2330.24   48.75
   6   0  -2 2561.31   54.24
   6  -1  -3   93.76    6.39
  -6   1   3  102.08    6.43
   6  -1  -3  100.88    6.40
  -6   2   4  922.43   24.53
   6  -2  -4  945.09   25.67
   6  -3  -5   21.22    3.86
   6  -4  -6  510.84   19.88
   5   6   3   19.30    4.26
  -5  -6  -3   18.44    3.92
  -5  -5  -2  732.64   22.90
   5   5   2  703.01   25.37
  -5  -4  -1   46.11    5.37
   5   4   1   49.80    6.43
  -5  -3   0 1052.57   27.57
   5   3   0 1109.27   30.74
   5   2  -1  306.18   13.46
  -5  -2   1  320.20   12.00
  -5  -1   2 1150.18   28.03
   5   1  -2 1203.82   25.36
   5   1  -2 1132.80   29.54
   5   0  -3  977.90   24.64
  -5   0   3  988.98   25.00
   5   0  -3  987.43   23.28
   5  -1  -4 3213.14   62.81
  -5   1   4 3228.15   64.40
   5  -2  -5  277.40   11.68
  -5   2   5  263.91   11.03
  -5   3   6 1879.58   42.72
   5  -3  -6 1819.25   43.22
   5  -4  -7   17.39    3.73
   5  -5  -8  343.72   16.71
  -4  -7  -3   23.39    4.18
   4   7   3   19.70    4.72
  -4  -6  -2 1478.87   37.15
   4   6   2 1520.11   41.32
   4   5   1   91.00    7.47
  -4  -5  -1  115.05    7.13
   4   4   0 4105.50   83.48
  -4  -4   0 4125.37   80.28
   4   3  -1  199.61    9.77
  -4  -3   1  206.01    8.94
   4   2  -2 4312.88   84.98
  -4  -2   2 4375.79   83.16
   4   2  -2 4437.63   78.00
   4   1  -3  590.07   14.92
   4   1  -3  541.77   15.76
  -4  -1   3  586.03   16.56
  -4   0   4 3035.49   61.18
   4   0  -4 3079.89   58.99
   4   0  -4 3124.11   59.09
   4  -1  -5   49.33    4.19
  -4   1   5   40.87    4.55
  -4   2   6 1357.82   32.63
   4  -2  -6 1297.54   31.73
  -4   3   7  194.57   10.11
   4  -3  -7  162.71    9.56
   4  -4  -8 1249.19   34.24
   4  -5  -9  190.09   11.90
   3   8   3  121.74   10.44
  -3  -7  -2  717.53   22.34
   3   7   2  721.95   26.77
   3   6   1   12.31    3.58
  -3  -6  -1   15.39    3.01
  -3  -5   0  999.69   25.51
   3   5   0  994.08   28.15
  -3  -4   1   69.88    4.98
   3   4  -1   80.21    4.32
   3   4  -1   72.18    5.62
   3   3  -2 1638.56   34.04
   3   3  -2 1740.03   37.38
  -3  -3   2 1743.10   36.47
  -3  -2   3  731.00   18.59
   3   2  -3  692.84   17.24
  -3  -1   4 3031.07   59.70
   3   1  -4 3052.28   57.11
   3   1  -4 3063.38   57.90
   3   0  -5  222.32    9.22
  -3   0   5  233.67    9.52
  -3   1   6 3593.11   72.10
   3  -1  -6 3664.46   69.90
   3  -2  -7  124.25    7.56
  -3   2   7  133.39    8.17
   3  -3  -8  761.64   22.81
  -3   3   8  703.28   23.80
  -3   4   9   60.51    7.19
   3  -4  -9   59.37    6.93
   3  -5 -10  180.65   11.63
   2   8   2 1018.46   34.16
  -2  -7  -1   62.09    7.32
  -2  -6   0 2411.82   54.97
  -2  -6   0 2364.07   49.59
   2   5  -1  498.62   13.98
  -2  -5   1  504.81   17.39
  -2  -5   1  511.16   14.90
  -2  -4   2 4380.66   83.12
   2   4  -2 4170.90   77.04
  -2  -4   2 4219.30   79.56
  -2  -3   3  754.54   18.89
  -2  -3   3  766.34   19.13
   2   3  -3  760.72   18.78
   2   2  -4 1413.80   28.53
  -2  -2   4 1407.97   30.56
   2   2  -4 1411.03   30.44
  -2  -1   5  142.59    6.95
   2   1  -5  136.12    6.81
   2   0  -6 2057.55   42.24
  -2   0   6 1930.01   42.74
  -2   1   7  359.88   14.08
   2  -1  -7  364.90   13.39
   2  -2  -8 2777.49   57.25
  -2   2   8 2706.33   59.99
  -2   3   9  110.21    8.39
   2  -3  -9   98.83    7.23
  -2   4  10 1915.89   49.00
   2  -4 -10 1981.27   46.55
   2  -5 -11   52.38    7.06
  -2   5  11   48.68    6.82
  -1  -8  -1    7.92    2.54
  -1  -7   0  279.62   14.20
   1   6  -1  121.87    6.58
  -1  -6   1  126.61    8.33
  -1  -5   2  787.31   18.95
  -1  -5   2  782.60   22.41
   1   5  -2  785.63   19.70
  -1  -4   3  343.53   12.01
  -1  -4   3  340.97   10.21
   1   4  -3  329.40   10.88
   1   3  -4 2528.77   49.32
  -1  -3   4 2528.78   50.16
  -1  -3   4 2581.38   49.44
   1   2  -5  146.79    7.19
  -1  -2   5  169.48    7.21
  -1  -1   6 4039.13   76.81
   1   1  -6 3893.94   74.35
  -1   0   7  227.01   10.45
   1   0  -7  226.42    9.81
  -1   1   8 1870.22   44.22
   1  -1  -8 1870.81   41.31
  -1   2   9  125.42    8.97
   1  -2  -9  115.54    7.53
   1  -3 -10  504.24   18.50
  -1   3  10  550.19   20.98
  -1   4  11   41.10    6.38
   1  -4 -11   36.06    5.51
   0  -8   0 1634.59   44.52
   0  -7   1  123.39    8.81
   0   7  -1  128.81    7.51
   0   6  -2 2359.66   48.86
   0  -6   2 2391.56   53.58
   0   5  -3  966.83   23.92
   0  -5   3  974.53   26.39
   0  -4   4 2912.29   59.38
   0  -4   4 2961.34   54.59
   0   4  -4 2852.05   56.18
   0   3  -5  249.40    9.40
   0  -3   5  228.23    8.82
   0   2  -6 2068.42   42.43
   0  -2   6 2077.29   41.42
   0  -2   6 2022.62   42.85
   0  -1   7  199.61    6.80
   0  -1   7  184.77    9.10
   0   1  -7  196.81    8.89
   0   0   8 5752.57  110.87
   0   0  -8 5701.79  105.31
   0  -1  -9  171.16    9.01
   0   1   9  179.84   10.67
   0   2  10 3766.67   80.98
   0  -2 -10 3793.67   75.42
   0   3  11   21.45    4.62
   0  -3 -11   19.96    3.70
   0   4  12 1413.03   39.67
   1  -8   1    6.69    2.12
  -1   8  -1    7.34    2.20
   1  -7   2  418.79   17.87
  -1   7  -2  421.86   15.46
   1  -6   3   30.04    4.94
  -1   6  -3   34.76    4.47
   1  -5   4 2033.43   46.75
  -1   5  -4 2051.20   43.51
   1  -4   5  117.59    7.31
  -1   3  -6 3150.03   60.92
   1  -3   6 3047.03   63.57
   1  -3   6 3234.62   60.70
  -1   2  -7  449.59   15.02
   1  -2   7  515.34   15.32
   1  -2   7  517.17   15.89
  -1   1  -8 1792.15   40.03
   1  -1   8 1861.70   39.49
   1  -1   8 1855.58   42.71
   1   0   9  211.91   11.23
  -1   0  -9  183.74    9.03
   1   1  10  737.65   24.46
  -1  -1 -10  765.05   21.92
   1   3  12  362.95   16.68
   2  -8   2  965.86   32.36
  -2   8  -2  971.26   28.35
  -2   7  -3  316.58   13.72
   2  -7   3  317.42   15.83
  -2   6  -4  980.44   26.78
   2  -6   4 1006.94   30.23
  -2   5  -5  293.54   12.16
   2  -5   5  304.08   14.02
  -2   4  -6 1320.56   30.97
   2  -4   6 1312.40   34.38
   2  -3   7  138.69    8.41
  -2   3  -7  147.48    7.71
   2  -2   8 2630.94   57.16
  -2   2  -8 2658.10   54.33
   2  -2   8 2680.96   56.30
   2  -1   9  181.78    9.07
   2  -1   9  181.55    9.95
  -2   1  -9  178.49    9.04
  -2   0 -10 3551.82   74.73
  -2   0 -10 3485.39   69.48
  -2  -1 -11   13.10    3.41
  -2  -2 -12 1767.85   48.01
  -2  -3 -13   12.75    4.08
  -3   8  -3   48.44    6.58
   3  -8   3   41.62    7.03
   3  -7   4  702.26   26.39
  -3   7  -4  698.22   23.07
   3  -6   5   22.87    4.85
  -3   6  -5   33.42    4.99
   3  -5   6 1320.18   37.51
  -3   5  -6 1325.41   33.19
  -3   4  -7  324.65   13.03
   3  -4   7  320.93   15.16
  -3   3  -8  664.25   19.88
   3  -3   8  635.10   21.96
   3  -2   9  221.17   11.66
  -3   2  -9  206.84   10.28
  -3   1 -10  502.08   17.20
   3  -1  10  512.86   18.39
  -3   1 -10  482.14   18.18
  -3   0 -11   47.50    6.68
  -3  -1 -12  540.82   22.37
  -3  -2 -13   11.10    3.50
  -4   7  -5   12.61    3.06
   4  -7   5   12.73    3.74
  -4   6  -6  456.95   17.92
   4  -6   6  445.34   21.03
  -4   5  -7   37.24    5.26
   4  -5   7   39.57    6.61
  -4   4  -8 1113.60   29.92
   4  -4   8 1152.48   35.28
  -4   3  -9   97.14    6.99
   4  -3   9  115.93    9.07
  -4   2 -10 2127.12   47.77
   4  -2  10 2092.17   52.64
  -4   1 -11   22.93    4.40
  -4   0 -12 1643.51   44.98
  -5   5  -8  349.35   15.27
   5  -5   8  346.18   18.79
   5  -4   9  376.75   19.00
  -5   4  -9  353.15   15.13
   5  -3  10  232.79   14.13
   5  -2  11   91.61    9.60
   8   3   1  110.50   11.42
  -8  -3  -1   88.43    7.42
   8   2   0 1312.31   40.70
  -8  -2   0 1317.67   35.55
   8   1  -1   11.90    3.38
  -8  -1   1    8.80    2.57
  -8   0   2  661.04   21.47
  -7  -5  -2  160.33   10.52
   7   5   2  195.91   13.42
  -7  -4  -1  138.66    9.19
   7   4   1  116.22   10.18
  -7  -3   0   34.54    5.16
   7   3   0   42.49    6.88
   7   2  -1   33.58    5.82
  -7  -2   1   22.44    4.05
  -7  -1   2  501.65   17.81
   7   1  -2  522.17   19.67
  -7   0   3    0.58    1.08
   7  -1  -4 1053.43   27.98
  -7   1   4 1039.89   28.43
   7  -2  -5  107.08    7.74
   7  -3  -6 1438.99   38.60
   6   6   2  850.18   30.96
  -6  -6  -2  858.45   27.33
  -6  -5  -1  297.88   13.82
   6   5   1  293.49   15.76
  -6  -4   0 1779.09   42.57
   6   4   0 1728.38   46.03
  -6  -3   1    9.89    2.57
   6   3  -1   15.14    3.73
   6   2  -2 1455.20   37.39
  -6  -2   2 1421.24   35.08
   6   1  -3   44.11    3.57
   6   1  -3   42.48    4.96
  -6  -1   3   35.05    4.64
  -6   0   4  207.85   10.33
   6   0  -4  219.04    9.45
  -6   1   5   30.51    4.59
   6  -1  -5   32.78    4.52
  -6   2   6  245.98   11.60
   6  -2  -6  259.13   12.16
   6  -3  -7   57.69    7.05
   6  -4  -8  469.24   20.14
   5   7   2  193.29   13.47
  -5  -7  -2  190.34   11.32
   5   6   1  218.23   13.42
  -5  -6  -1  222.11   11.72
  -5  -5   0   94.73    7.00
   5   5   0   74.81    7.99
  -5  -4   1   39.37    5.05
   5   4  -1   51.64    6.21
   5   3  -2  430.33   16.28
  -5  -3   2  434.51   15.26
   5   2  -3   54.68    3.77
   5   2  -3   67.17    5.53
  -5  -2   3   58.72    4.96
   5   1  -4 2220.12   45.50
  -5  -1   4 2270.82   48.91
  -5   0   5  384.35   14.18
   5   0  -5  391.68   13.58
   5  -1  -6 1941.43   43.32
  -5   1   6 1920.19   44.15
   5  -2  -7  512.16   18.16
  -5   2   7  509.47   18.34
  -5   3   8 1497.20   38.82
   5  -3  -8 1489.44   39.16
   5  -4  -9  374.88   17.75
  -4  -7  -1  264.20   12.55
   4   7   1  258.49   14.94
   4   6   0 1549.73   41.59
  -4  -6   0 1546.05   37.61
   4   5  -1  100.56    7.44
  -4  -5   1  107.78    6.94
  -4  -4   2  843.18   23.19
   4   4  -2  880.44   24.70
   4   3  -3   60.19    4.93
   4   3  -3   48.83    3.75
  -4  -3   3   49.47    4.91
   4   2  -4  259.62    9.73
   4   2  -4  244.96    9.35
  -4  -2   4  222.58    9.86
   4   1  -5  107.46    6.23
  -4  -1   5  101.44    6.51
  -4   0   6   46.96    5.25
   4   0  -6   51.07    5.01
   4  -1  -7  162.78    9.05
  -4   1   7  161.50    9.13
  -4   2   8  482.12   18.29
   4  -2  -8  483.29   17.95
  -4   3   9  121.80    9.04
   4  -3  -9  108.24    8.33
  -4   4  10  760.97   26.72
   4  -4 -10  753.37   26.51
   3   8   1   36.67    6.60
   3   7   0   98.21    8.52
  -3  -6   1   19.69    3.54
   3   5  -2  615.20   19.97
  -3  -5   2  591.41   17.97
   3   4  -3  104.92    6.59
  -3  -4   3  103.39    6.07
   3   4  -3   96.16    5.87
   3   3  -4 2805.70   52.58
  -3  -3   4 2464.21   53.28
  -3  -2   5  238.09   10.04
   3   2  -5  250.62    9.85
   3   1  -6 3226.88   64.29
  -3  -1   6 3273.34   65.40
  -3   0   7  256.54   11.48
   3   0  -7  240.24   10.81
  -3   1   8 1949.28   46.12
   3  -1  -8 1980.45   44.44
  -3   2   9  200.50   11.81
   3  -2  -9  229.06   11.86
  -3   3  10  762.77   26.92
   3  -3 -10  748.16   25.20
   3  -4 -11   26.89    5.04
  -3   4  11   30.08    5.51
  -2  -8   0 1115.13   35.21
  -2  -7   1   53.69    7.03
   2   6  -2 1404.27   31.85
  -2  -6   2 1403.04   32.03
  -2  -6   2 1367.35   36.70
   2   5  -3   75.38    5.14
  -2  -5   3   57.92    5.22
  -2  -5   3   63.39    4.62
  -2  -4   4  303.36   10.77
   2   4  -4  282.57   10.90
  -2  -4   4  298.71   11.38
  -2  -3   5  214.36    8.01
   2   3  -5  221.62    9.68
  -2  -3   5  216.59    8.93
   2   2  -6  381.42   13.17
  -2  -2   6  361.94   12.86
   2   1  -7  473.21   15.59
  -2  -1   7  470.14   16.06
   2   0  -8  146.16    8.43
  -2   0   8  149.38    9.12
   2  -1  -9  182.32   10.03
  -2   1   9  188.99   11.06
  -2   2  10  881.78   28.77
   2  -2 -10  881.60   26.31
  -2   3  11   85.77    9.11
   2  -3 -11   81.80    7.18
   2  -4 -12  482.82   20.03
  -2   4  12  496.53   21.24
  -1  -8   1   10.61    3.20
   1   7  -2  591.97   18.38
  -1  -7   2  613.12   22.51
  -1  -6   3   81.95    6.67
   1   6  -3   65.39    5.18
   1   5  -4 2883.71   57.81
  -1  -5   4 2953.09   61.42
  -1  -4   5   52.75    4.01
   1   4  -5   54.34    4.53
  -1  -4   5   64.92    4.75
  -1  -3   6 3526.61   67.33
  -1  -3   6 3556.87   68.38
   1   3  -6 3467.86   68.37
  -1  -2   7  443.11   14.99
   1   2  -7  436.46   15.09
  -1  -1   8 1785.83   42.64
   1   1  -8 1843.15   40.78
   1   0  -9  203.70   10.28
  -1   0   9  197.74   11.05
   1  -1 -10  673.20   21.51
  -1   1  10  684.36   23.84
  -1   2  11   19.59    4.45
   1  -2 -11   20.40    4.07
  -1   3  12  524.94   21.63
   1  -3 -12  543.45   20.75
   0   8  -2  580.47   19.60
   0  -8   2  562.95   22.60
   0  -7   3    2.13    1.59
   0   7  -3   -0.39    1.22
   0  -6   4  181.88   10.39
   0   6  -4  182.64    9.10
   0  -5   5  341.17   13.62
   0   5  -5  340.72   12.86
   0  -4   6   43.95    3.52
   0   4  -6   47.43    4.91
   0  -4   6   34.19    4.24
   0   3  -7  200.37    9.72
   0  -3   7  222.78    9.49
   0  -3   7  228.76    9.00
   0  -2   8  146.32    8.58
   0   2  -8  151.84    8.43
   0   1  -9  150.52    8.37
   0  -1   9  156.31    9.31
   0   0 -10  485.99   16.83
   0   0  10  463.61   18.51
   0  -1 -11   44.09    5.49
   0   1  11   48.12    7.03
   0   2  12  808.30   28.04
   0  -2 -12  827.12   25.40
   0   3  13  392.75   18.43
   1  -8   3  146.99   10.70
  -1   8  -3  142.58    9.25
  -1   7  -4 1290.42   33.29
   1  -7   4 1277.27   37.02
  -1   6  -5   50.98    5.56
   1  -6   5   51.20    6.48
   1  -5   6 2276.40   52.50
  -1   5  -6 2326.65   49.49
   1  -4   7  100.76    6.98
  -1   4  -7  105.88    6.92
  -1   3  -8 1807.27   40.62
   1  -3   8 1806.51   40.81
   1  -3   8 1710.64   39.94
   1  -2   9  105.12    7.25
  -1   2  -9  125.65    7.81
  -1   1 -10  697.71   21.51
   1  -1  10  748.18   23.84
  -1   0 -11   37.25    4.90
   1   0  11   39.91    6.15
  -1  -1 -12  665.59   21.46
   1   1  12  675.79   24.82
   1   2  13  180.74   12.11
  -2   8  -4  139.05    9.49
   2  -8   4  134.84   10.79
   2  -7   5   78.05    8.72
  -2   7  -5   68.16    7.09
   2  -6   6  179.90   11.33
  -2   6  -6  180.26    9.97
   2  -5   7  366.57   16.21
  -2   5  -7  359.82   14.44
   2  -4   8  440.47   17.32
  -2   4  -8  419.58   15.77
   2  -3   9   87.42    6.69
  -2   3  -9  131.37    8.13
   2  -2  10  911.81   26.58
  -2   2 -10  888.78   25.86
   2  -1  11    8.94    2.77
  -2   1 -11   13.55    3.04
  -2   0 -12  796.48   23.58
   2   0  12  772.30   26.91
   2   1  13  235.22   13.90
   3  -7   6 1514.70   44.56
  -3   7  -6 1509.26   39.69
   3  -6   7   31.16    5.61
  -3   6  -7   29.07    4.79
  -3   5  -8 1417.33   36.57
   3  -5   8 1452.24   40.76
   3  -4   9   43.88    6.36
  -3   4  -9   61.25    6.43
  -3   3 -10  756.80   24.13
  -3   2 -11   77.67    6.68
   3  -1  12  443.37   18.79
   3   0  13  395.45   18.50
   4  -6   8  457.93   21.96
  -4   6  -8  478.08   19.10
   4  -5   9  171.36   12.18
  -4   5  -9  201.18   11.33
  -4   4 -10  698.73   23.25
   4  -4  10  678.81   25.57
  -4   3 -11   15.39    3.34
  -8  -3   1   82.36    7.23
   8   3  -1   87.64    9.43
  -8  -2   2 1120.05   32.69
  -8  -1   3  162.34    9.96
  -8   0   4  728.35   23.99
   7   5   0  381.66   19.18
  -7  -5   0  377.10   17.17
   7   4  -1  135.02   10.39
  -7  -4   1  119.24    8.63
   7   3  -2  935.27   29.70
  -7  -3   2  906.55   27.69
  -7  -2   3  306.02   13.82
  -7  -1   4 1412.17   36.43
  -7   0   5   87.47    6.98
   7   0  -5   86.51    6.31
  -7   1   6 1544.13   40.17
   7  -1  -6 1642.11   39.53
   7  -2  -7    9.89    2.66
   6   6   0 1041.59   34.42
  -6  -6   0 1016.97   30.61
  -6  -5   1  315.37   14.39
   6   5  -1  287.97   15.21
  -6  -4   2 1459.65   37.35
   6   4  -2 1419.14   39.17
  -6  -3   3  186.96   10.14
  -6  -2   4 1053.34   28.93
   6   1  -5   66.92    5.15
  -6  -1   5   58.63    6.29
   6   0  -6  839.94   24.16
  -6   0   6  841.96   25.46
  -6   1   7  164.25    9.74
   6  -1  -7  149.13    9.16
   6  -2  -8  754.54   25.32
  -6   2   8  765.44   25.12
   6  -3  -9  118.12    9.30
   5   7   0  354.46   18.27
  -5  -7   0  313.32   14.89
  -5  -6   1  212.86   11.36
   5   6  -1  231.58   13.46
   5   5  -2  723.98   24.52
  -5  -5   2  728.49   22.90
  -5  -4   3  278.09   12.31
   5   4  -3  269.93   12.66
  -5  -3   4 1820.90   42.22
  -5  -2   5  298.65   12.74
   5   2  -5  266.33   10.91
  -5  -1   6 2483.66   53.76
   5   1  -6 2399.06   50.95
   5   0  -7   30.33    4.60
  -5   0   7   31.37    4.89
   5  -1  -8  995.27   28.25
  -5   1   8  951.70   28.92
   5  -2  -9   14.17    3.56
  -5   2   9   15.93    3.77
  -5   3  10  219.91   13.14
   5  -3 -10  242.50   13.87
  -4  -7   1  251.25   12.06
   4   7  -1  285.27   15.32
  -4  -6   2 1558.75   37.62
   4   6  -2 1512.82   40.60
  -4  -5   3  394.57   14.69
   4   5  -3  403.29   15.88
   4   4  -4 1878.17   40.51
   4   4  -4 1851.44   42.56
  -4  -4   4 1903.50   42.54
  -4  -3   5   58.83    5.24
   4   3  -5   57.06    4.70
  -4  -2   6 1387.30   34.19
   4   2  -6 1418.11   33.54
   4   1  -7   64.81    5.54
  -4  -1   7   82.38    6.51
  -4   0   8 2325.60   53.38
   4   0  -8 2369.43   52.04
  -4   1   9  125.19    8.95
   4  -1  -9  110.32    8.07
   4  -2 -10 2073.79   50.16
  -4   2  10 2058.51   52.31
   4  -3 -11   12.37    3.32
  -4   3  11   16.36    4.25
   3   8  -1   42.85    6.96
   3   7  -2  769.94   26.85
  -3  -6   3   96.40    6.49
   3   6  -3  103.38    7.83
  -3  -5   4 1343.09   32.79
   3   5  -4 1413.11   33.20
   3   5  -4 1388.95   34.49
  -3  -4   5   19.23    3.46
   3   4  -5   25.10    3.92
   3   3  -6 2821.98   58.27
  -3  -3   6 2864.77   58.91
   3   2  -7  207.87   10.04
  -3  -2   7  205.32   10.19
  -3  -1   8 1855.75   43.21
   3   1  -8 1741.10   41.74
  -3   0   9  228.39   12.26
   3   0  -9  222.82   11.46
  -3   1  10  458.90   19.44
   3  -1 -10  499.64   18.85
  -3   2  11   91.24    9.56
   3  -2 -11   90.17    8.84
   3  -3 -12  520.82   21.78
  -3   3  12  536.23   23.41
  -2  -8   2  968.48   32.55
  -2  -7   3  415.67   18.38
  -2  -6   4  873.06   27.17
   2   6  -4  918.47   24.82
  -2  -5   5  290.89   11.14
  -2  -5   5  291.12   12.56
   2   5  -5  301.39   12.45
   2   4  -6 1302.91   32.08
  -2  -4   6 1284.08   30.90
   2   3  -7  100.17    6.96
  -2  -3   7   96.96    6.53
  -2  -2   8 2674.96   58.05
   2   2  -8 2734.48   57.14
  -2  -1   9   85.13    7.15
   2   1  -9   96.22    7.09
  -2   0  10 3581.30   77.76
   2   0 -10 3540.22   73.19
   2  -1 -11    9.81    2.84
  -2   1  11    3.26    2.28
   2  -2 -12 1684.36   43.34
  -2   2  12 1684.17   47.10
  -2   3  13   11.66    3.38
  -1  -8   3   74.10    8.87
  -1  -7   4  980.57   30.48
   1   7  -4  973.99   27.04
   1   6  -5   29.40    4.62
  -1  -6   5   29.82    4.76
   1   5  -6 1906.49   42.40
  -1  -5   6 1824.55   42.95
   1   4  -7  177.22    9.57
  -1  -4   7  173.44    8.44
   1   3  -8 1915.11   43.71
  -1  -3   8 1853.68   42.70
  -1  -2   9  187.78   10.26
   1   2  -9  173.67    9.68
  -1  -1  10  747.70   24.88
   1   1 -10  696.46   22.09
   1   0 -11   34.85    5.34
  -1   0  11   29.74    5.57
   1  -1 -12  645.29   22.30
  -1   1  12  647.76   24.76
  -1   2  13  204.63   13.30
   1  -2 -13  202.64   11.77
   0   8  -4  588.66   20.71
   0  -8   4  586.14   23.53
   0  -7   5   83.72    7.40
   0   7  -5   91.52    7.01
   0   6  -6  741.65   22.71
   0  -6   6  733.42   24.39
   0  -5   7   20.74    3.71
   0   5  -7   21.01    3.97
   0   4  -8 2355.73   51.95
   0  -3   9  186.38    9.90
   0   3  -9  169.92    9.82
   0   2 -10 3602.14   73.03
   0  -2  10 3536.91   76.05
   0  -1  11   43.51    6.29
   0   1 -11   54.77    6.21
   0   0  12 1900.79   49.30
   0   0 -12 1912.99   45.61
   0   1  13   59.54    8.05
   0  -1 -13   61.74    6.90
  -1   8  -5   26.16    4.66
   1  -8   5   33.01    6.05
   1  -7   6 1068.50   34.12
  -1   7  -6 1146.11   31.53
   1  -6   7  208.99   12.08
  -1   6  -7  204.56   10.98
  -1   5  -8  801.64   24.40
   1  -5   8  802.52   25.35
  -1   4  -9  226.66   11.85
  -1   3 -10  509.27   18.82
   1  -3  10  503.71   18.45
   1  -2  11   24.84    4.62
  -1   2 -11   24.26    4.48
   1  -1  12  646.77   23.42
  -1   1 -12  605.02   21.12
  -1   0 -13   41.73    5.80
   1   0  13   32.99    6.09
   1   1  14  883.33   30.64
  -2   7  -7   14.51    3.72
   2  -7   7    9.25    3.36
   2  -6   8  599.04   23.28
  -2   6  -8  626.15   21.84
  -2   5  -9   30.49    5.06
  -2   4 -10 2000.38   48.34
  -2   3 -11  103.94    8.10
  -2   2 -12 1685.54   42.67
   2  -2  12 1680.70   43.45
  -2   1 -13  251.43   12.80
   2  -1  13  245.43   13.78
   3  -6   9  176.28   12.27
  -3   6  -9  197.37   11.67
  -3   5 -10  174.02   10.75
  -3   4 -11   36.06    5.94
  -3   3 -12  522.41   20.65
  -8  -3   3   57.30    7.09
  -8  -2   4  162.10   10.43
  -8  -1   5   36.06    5.64
  -7  -5   2  169.57   10.76
  -7  -4   3   51.66    6.62
  -7  -3   4  749.06   24.70
  -7  -2   5   79.48    6.90
  -7  -1   6 1210.91   34.28
   7   0  -7  253.10   12.41
  -7   0   7  254.41   13.24
   7  -1  -8  703.01   24.27
  -7   1   8  703.98   25.00
   6   6  -2  810.81   29.01
  -6  -6   2  824.30   26.71
  -6  -5   3   15.83    3.58
  -6  -4   4  172.41   10.18
  -6  -3   5   23.91    4.45
  -6  -2   6  179.23   10.65
   6   2  -6  193.55    9.47
   6   1  -7  203.51   10.60
  -6  -1   7  193.78   11.21
  -6   0   8  502.17   19.64
   6   0  -8  518.50   19.10
   6  -1  -9   38.31    6.08
  -6   1   9   47.38    6.70
   5   7  -2  200.58   12.98
  -5  -7   2  187.25   10.98
  -5  -6   3   24.62    4.36
   5   6  -3   17.13    3.93
  -5  -5   4 1215.80   32.58
  -5  -4   5   43.71    5.61
   5   3  -6 1384.32   33.44
  -5  -3   6 1383.88   35.92
  -5  -2   7  404.40   16.52
   5   2  -7  419.30   15.59
  -5  -1   8  832.76   26.29
   5   1  -8  828.27   25.13
   5   0  -9  198.19   11.22
  -5   0   9  202.19   11.96
  -5   1  10  454.62   19.67
   5  -1 -10  455.37   19.33
  -5   2  11   87.45    9.71
   5  -2 -11   89.46    9.47
   4   7  -3   28.56    5.27
  -4  -7   3   31.72    4.50
   4   6  -4  210.62   11.68
  -4  -6   4  201.49   10.41
  -4  -5   5   69.15    5.74
  -4  -4   6   64.59    5.86
   4   4  -6   66.00    5.63
  -4  -3   7  288.19   13.02
   4   3  -7  286.73   12.74
  -4  -2   8  480.08   18.02
   4   2  -8  464.46   17.50
  -4  -1   9  183.24   11.18
   4   1  -9  218.64   11.47
  -4   0  10  703.03   25.08
   4   0 -10  691.74   23.74
   4  -1 -11   18.17    4.19
  -4   1  11   22.46    5.11
  -4   2  12  500.29   22.81
   3   8  -3  132.70   10.47
   3   7  -4 1053.13   32.66
  -3  -6   5   13.84    2.85
   3   6  -5   27.04    4.56
  -3  -5   6 1667.92   39.84
   3   5  -6 1737.68   41.43
  -3  -4   7  180.12    9.69
   3   4  -7  188.64   10.26
   3   3  -8  650.31   21.29
  -3  -3   8  655.85   21.30
  -3  -2   9  113.30    8.20
   3   2  -9  110.76    7.94
   3   1 -10  478.48   18.54
  -3  -1  10  509.71   20.11
   3   0 -11   27.20    4.92
  -3   0  11   28.95    5.74
  -3   1  12  420.00   20.11
   3  -1 -12  429.33   18.57
  -3   2  13    5.67    2.32
  -2  -8   4  231.71   14.38
  -2  -7   5  117.82    9.25
   2   7  -5  110.75    8.05
   2   6  -6  227.63   11.82
   2   5  -7  463.02   17.77
  -2  -5   7  487.06   16.28
  -2  -4   8  449.54   16.38
   2   4  -8  445.84   17.44
   2   3  -9  174.34   10.07
  -2  -3   9  195.45   10.63
   2   2 -10  840.79   25.76
  -2  -2  10  864.19   27.52
  -2  -1  11   13.75    3.53
   2   1 -11    9.57    2.91
   2   0 -12  749.84   24.96
  -2   0  12  727.19   27.25
  -2   1  13  240.46   15.17
   2  -1 -13  226.80   13.13
  -1  -8   5   34.52    6.24
   1   8  -5   36.79    5.66
  -1  -7   6 1410.14   39.82
   1   7  -6 1429.56   37.10
   1   6  -7  191.06   11.06
   1   5  -8  918.88   27.67
   1   4  -9  144.80    9.51
  -1  -4   9  145.70    8.80
  -1  -3  10  461.85   18.25
   1   3 -10  489.64   18.45
   1   2 -11   14.03    3.77
  -1  -2  11   10.51    3.52
   1   1 -12  598.72   21.57
  -1  -1  12  614.41   24.09
  -1   0  13   36.31    6.52
   1   0 -13   34.04    5.58
   1  -1 -14  887.63   28.95
  -1   1  14  907.44   32.51
   0   7  -7  216.66   12.04
   0  -7   7  212.50   12.53
   0   6  -8  476.82   18.61
   0   5  -9  204.98   11.66
   0   4 -10  691.21   23.68
   0   3 -11   25.60    4.98
   0  -3  11   24.47    4.76
   0  -2  12  770.01   26.89
   0   2 -12  752.02   25.09
   0  -1  13   63.26    8.21
   0   1 -13   53.07    6.73
   0   0  14  232.79   14.54
   0   0 -14  231.46   12.94
  -1   7  -8  754.71   25.85
  -1   6  -9   47.67    6.69
  -1   5 -10  458.69   19.08
  -1   4 -11   38.01    6.17
  -1   3 -12  511.21   20.56
   1  -2  13  204.39   12.61
  -1   2 -13  223.20   12.56
   1  -1  14  856.70   30.30
  -1   1 -14  919.63   28.31
  -2   5 -11   41.33    6.39
  -2   4 -12  476.81   20.31
  -2   3 -13    9.48    2.96
  -7  -4   5   18.30    3.81
  -7  -3   6 1560.61   41.77
  -7  -2   7   18.03    3.90
   7   1  -8  926.86   27.85
  -7  -1   8  888.16   29.64
  -6  -5   5   45.24    6.34
  -6  -4   6  422.05   17.66
  -6  -3   7   19.11    4.36
   6   2  -8  694.40   22.65
  -6  -2   8  682.62   24.36
   6   1  -9   41.44    5.90
  -6  -1   9   39.26    6.31
  -6   0  10 1343.15   39.87
   6   0 -10 1366.49   38.76
  -5  -6   5   18.56    3.77
  -5  -5   6 1385.81   36.75
  -5  -4   7   44.68    6.17
  -5  -3   8 1456.33   38.93
   5   3  -8 1424.76   36.76
  -5  -2   9   37.44    6.07
   5   2  -9   36.95    5.52
   5   1 -10  468.34   19.08
  -5  -1  10  452.47   19.87
  -5   0  11  126.53   10.33
   5   0 -11  111.42    8.86
  -4  -6   6  416.48   16.54
  -4  -5   7   20.16    3.94
   4   5  -7   31.19    5.04
  -4  -4   8 1099.41   31.95
   4   4  -8 1178.15   31.66
   4   3  -9   40.40    5.83
  -4  -3   9   52.20    6.65
   4   2 -10 1939.78   46.90
  -4  -2  10 1870.17   48.65
   4   1 -11   51.68    6.90
  -4  -1  11   43.86    6.82
   4   0 -12 1614.30   43.60
  -4   0  12 1576.31   46.24
   3   6  -7   73.64    7.87
   3   5  -8 1386.70   36.91
  -3  -5   8 1365.12   35.76
  -3  -4   9  123.39    8.55
   3   4  -9  108.45    8.33
   3   3 -10  655.85   22.58
  -3  -3  10  683.06   24.04
   3   2 -11   60.84    7.22
  -3  -2  11   52.26    7.37
  -3  -1  12  433.49   20.53
   3   1 -12  479.17   19.40
   3   0 -13  374.26   17.52
  -3   0  13  321.86   18.34
   2   7  -7   13.78    3.41
   2   6  -8  727.54   25.10
   2   5  -9   22.92    4.73
   2   4 -10 1988.83   48.38
  -2  -4  10 1931.28   47.89
   2   3 -11   95.98    7.93
  -2  -3  11  109.21    8.77
  -2  -2  12 1559.43   45.06
   2   2 -12 1695.75   43.12
   2   1 -13  212.62   12.72
  -2  -1  13  207.98   13.97
   1   7  -8  685.83   24.91
   1   6  -9   39.23    6.18
   1   5 -10  408.27   18.39
   1   4 -11   18.68    4.38
  -1  -4  11   24.10    4.37
   1   3 -12  415.69   18.19
  -1  -3  12  393.01   18.39
  -1  -2  13  158.02   11.68
   1   2 -13  215.29   12.19
   1   1 -14  886.62   29.22
  -1  -1  14  891.32   31.97
   0   6 -10 1254.74   37.24
   0   5 -11  147.32   10.68
   0   4 -12 1577.81   43.34
   0   3 -13  424.47   18.72
  -6  -4   8  436.75   19.24
  -6  -3   9  176.01   11.63
   6   3  -9  166.84   10.59
  -5  -5   8  353.54   16.46
   5   4  -9  216.47   12.44
  -5  -4   9  235.25   13.24
   5   3 -10  162.53   10.60
  -5  -3  10  172.44   11.49
  -5  -2  11   58.98    8.19
   5   2 -11   70.48    8.13
  -4  -6   8  404.61   17.00
  -4  -5   9  342.19   15.98
   4   5  -9  339.82   16.15
  -4  -4  10  674.57   24.72
   4   4 -10  687.30   24.48
   4   3 -11   21.25    4.53
  -4  -3  11   24.28    5.20
  -4  -2  12  462.34   21.56
   4   2 -12  489.85   20.38
   3   6  -9  147.36   10.53
  -3  -5  10  230.54   12.80
   3   5 -10  213.52   12.86
  -3  -4  11   17.64    4.18
   3   4 -11   23.62    4.80
   3   3 -12  470.92   20.04
  -3  -3  12  443.41   20.59
  -3  -2  13    7.53    2.85
   2   5 -11   61.06    7.93
  -2  -4  12  461.82   20.50
   2   4 -12  493.65   20.85
  -2  -3  13   19.82    4.34
   0   0   0    0.00    0.00
;
_shelx_hkl_checksum              24918
loop_
_space_group_symop_operation_xyz
'x, y, z'
'-x, -y, z'
'-y, x, z'
'y, -x, z'
'x+1/2, y+1/2, z+1/2'
'-x+1/2, -y+1/2, z+1/2'
'-y+1/2, x+1/2, z+1/2'
'y+1/2, -x+1/2, z+1/2'
'-x, -y, -z'
'x, y, -z'
'y, -x, -z'
'-y, x, -z'
'-x+1/2, -y+1/2, -z+1/2'
'x+1/2, y+1/2, -z+1/2'
'y+1/2, -x+1/2, -z+1/2'
'-y+1/2, x+1/2, -z+1/2'
loop_
_atom_site_label
_atom_site_type_symbol
_atom_site_fract_x
_atom_site_fract_y
_atom_site_fract_z
_atom_site_U_iso_or_equiv
_atom_site_adp_type
_atom_site_occupancy
_atom_site_site_symmetry_order
_atom_site_calc_flag
_atom_site_refinement_flags_posn
_atom_site_refinement_flags_adp
_atom_site_refinement_flags_occupancy
_atom_site_disorder_assembly
_atom_site_disorder_group
Ba Ba 0.5000 0.0000 0.2500 0.01174(18) Uani 1 4 d S T P . .
V V 0.0000 0.0000 0.34360(9) 0.0078(3) Uani 1 4 d S T P . .
Si Si 0.2119(2) 0.23688(19) 0.0000 0.0066(3) Uani 1 2 d S T P . .
O1 O 0.2682(5) 0.0144(7) 0.0000 0.0283(10) Uani 1 2 d S T P . .
O2 O 0.2098(5) 0.1694(5) 0.3828(2) 0.0280(9) Uani 1 1 d . . . . .
O3 O 0.0000 0.0000 0.2031(4) 0.0165(10) Uani 1 4 d S T P . .
loop_
_atom_site_aniso_label
_atom_site_aniso_U_11
_atom_site_aniso_U_22
_atom_site_aniso_U_33
_atom_site_aniso_U_23
_atom_site_aniso_U_13
_atom_site_aniso_U_12
Ba 0.0130(2) 0.0130(2) 0.0093(2) 0.000 0.000 0.000
V 0.0081(3) 0.0081(3) 0.0072(5) 0.000 0.000 0.000
Si 0.0052(7) 0.0055(7) 0.0091(6) 0.000 0.000 0.0014(5)
O1 0.0112(18) 0.008(2) 0.065(3) 0.000 0.000 0.003(2)
O2 0.0280(19) 0.040(2) 0.0159(12) -0.0131(15) 0.0070(15) -0.0234(16)
O3 0.0176(15) 0.0176(15) 0.015(2) 0.000 0.000 0.000
loop_
_atom_type_symbol
_atom_type_description
_atom_type_scat_dispersion_real
_atom_type_scat_dispersion_imag
_atom_type_scat_source
O O 0.0106 0.0060 'International Tables Vol C Tables 4.2.6.8 and 6.1.1.4'
Si Si 0.0817 0.0704 'International Tables Vol C Tables 4.2.6.8 and 6.1.1.4'
V V 0.3005 0.5294 'International Tables Vol C Tables 4.2.6.8 and 6.1.1.4'
Ba Ba -0.3244 2.2819 'International Tables Vol C Tables 4.2.6.8 and 6.1.1.4'
loop_
_geom_angle_atom_site_label_1
_geom_angle_atom_site_label_2
_geom_angle_atom_site_label_3
_geom_angle
_geom_angle_site_symmetry_1
_geom_angle_site_symmetry_3
O2 Ba O2 106.97(7) . 16_545
O2 Ba O2 114.60(14) . 2_655
O2 Ba O2 106.97(7) 16_545 2_655
O2 Ba O2 106.97(7) . 15
O2 Ba O2 114.60(14) 16_545 15
O2 Ba O2 106.97(7) 2_655 15
O2 Ba O2 94.46(10) . 3_655
O2 Ba O2 156.26(10) 16_545 3_655
O2 Ba O2 53.18(10) 2_655 3_655
O2 Ba O2 66.80(9) 15 3_655
O2 Ba O2 53.18(10) . 4
O2 Ba O2 66.80(9) 16_545 4
O2 Ba O2 94.46(10) 2_655 4
O2 Ba O2 156.26(10) 15 4
O2 Ba O2 122.29(12) 3_655 4
O2 Ba O2 156.26(10) . 14_545
O2 Ba O2 53.18(10) 16_545 14_545
O2 Ba O2 66.80(9) 2_655 14_545
O2 Ba O2 94.46(10) 15 14_545
O2 Ba O2 103.47(5) 3_655 14_545
O2 Ba O2 103.47(5) 4 14_545
O2 Ba O2 66.80(9) . 13
O2 Ba O2 94.46(10) 16_545 13
O2 Ba O2 156.26(10) 2_655 13
O2 Ba O2 53.18(10) 15 13
O2 Ba O2 103.47(5) 3_655 13
O2 Ba O2 103.47(5) 4 13
O2 Ba O2 122.29(12) 14_545 13
O2 Ba O1 48.95(10) . 15
O2 Ba O1 147.37(10) 16_545 15
O2 Ba O1 73.66(11) 2_655 15
O2 Ba O1 95.50(9) 15 15
O2 Ba O1 47.61(10) 3_655 15
O2 Ba O1 80.58(9) 4 15
O2 Ba O1 140.43(10) 14_545 15
O2 Ba O1 93.85(8) 13 15
O2 Ba O1 73.66(11) . 7_545
O2 Ba O1 95.50(9) 16_545 7_545
O2 Ba O1 48.95(10) 2_655 7_545
O2 Ba O1 147.37(10) 15 7_545
O2 Ba O1 80.58(9) 3_655 7_545
O2 Ba O1 47.61(10) 4 7_545
O2 Ba O1 93.85(8) 14_545 7_545
O2 Ba O1 140.43(10) 13 7_545
O1 Ba O1 59.51(11) 15 7_545
O2 Ba O1 147.37(10) . 9_655
O2 Ba O1 73.66(11) 16_545 9_655
O2 Ba O1 95.50(9) 2_655 9_655
O2 Ba O1 48.95(10) 15 9_655
O2 Ba O1 93.85(8) 3_655 9_655
O2 Ba O1 140.43(10) 4 9_655
O2 Ba O1 47.61(10) 14_545 9_655
O2 Ba O1 80.58(9) 13 9_655
O1 Ba O1 138.91(7) 15 9_655
O1 Ba O1 138.91(7) 7_545 9_655
O2 Ba O1 95.50(9) . .
O2 Ba O1 48.95(10) 16_545 .
O2 Ba O1 147.37(10) 2_655 .
O2 Ba O1 73.66(11) 15 .
O2 Ba O1 140.43(10) 3_655 .
O2 Ba O1 93.85(8) 4 .
O2 Ba O1 80.58(9) 14_545 .
O2 Ba O1 47.61(10) 13 .
O1 Ba O1 138.91(7) 15 .
O1 Ba O1 138.91(7) 7_545 .
O1 Ba O1 59.51(11) 9_655 .
O3 V O2 103.29(8) . 2
O3 V O2 103.29(8) . 3
O2 V O2 86.97(4) 2 3
O3 V O2 103.29(8) . 4
O2 V O2 86.97(4) 2 4
O2 V O2 153.43(16) 3 4
O3 V O2 103.28(8) . .
O2 V O2 153.43(16) 2 .
O2 V O2 86.97(4) 3 .
O2 V O2 86.97(4) 4 .
O3 V Ba 73.082(16) . 1_455
O2 V Ba 48.88(12) 2 1_455
O2 V Ba 58.80(13) 3 1_455
O2 V Ba 130.67(14) 4 1_455
O2 V Ba 142.31(14) . 1_455
O3 V Ba 73.082(16) . 13_545
O2 V Ba 58.80(13) 2 13_545
O2 V Ba 142.31(14) 3 13_545
O2 V Ba 48.88(12) 4 13_545
O2 V Ba 130.67(14) . 13_545
Ba V Ba 85.142(9) 1_455 13_545
O3 V Ba 73.082(16) . 13
O2 V Ba 130.67(14) 2 13
O2 V Ba 48.88(12) 3 13
O2 V Ba 142.31(14) 4 13
O2 V Ba 58.80(13) . 13
Ba V Ba 85.142(9) 1_455 13
Ba V Ba 146.16(3) 13_545 13
O3 V Ba 73.082(16) . .
O2 V Ba 142.31(14) 2 .
O2 V Ba 130.67(14) 3 .
O2 V Ba 58.80(13) 4 .
O2 V Ba 48.88(12) . .
Ba V Ba 146.16(3) 1_455 .
Ba V Ba 85.142(9) 13_545 .
Ba V Ba 85.142(9) 13 .
O2 Si O2 114.6(2) 13 6_554
O2 Si O1 106.63(18) 13 3
O2 Si O1 106.63(18) 6_554 3
O2 Si O1 108.46(18) 13 .
O2 Si O1 108.46(18) 6_554 .
O1 Si O1 112.1(3) 3 .
O2 Si Ba 44.39(16) 13 13
O2 Si Ba 125.43(17) 6_554 13
O1 Si Ba 62.26(7) 3 13
O1 Si Ba 125.54(5) . 13
O2 Si Ba 125.43(17) 13 5_454
O2 Si Ba 44.39(16) 6_554 5_454
O1 Si Ba 62.26(7) 3 5_454
O1 Si Ba 125.54(5) . 5_454
Ba Si Ba 100.51(4) 13 5_454
Si O1 Si 157.9(3) 11 .
Si O1 Ba 92.14(11) 11 .
Si O1 Ba 98.72(12) . .
Si O1 Ba 92.14(11) 11 9_655
Si O1 Ba 98.72(12) . 9_655
Ba O1 Ba 120.49(11) . 9_655
Si O2 V 135.15(17) 13 .
Si O2 Ba 112.3(2) 13 .
V O2 Ba 99.61(14) . .
Si O2 Ba 105.2(2) 13 13
V O2 Ba 89.19(14) . 13
Ba O2 Ba 113.20(9) . 13
loop_
_geom_bond_atom_site_label_1
_geom_bond_atom_site_label_2
_geom_bond_distance
_geom_bond_site_symmetry_2
Ba O2 2.812(4) .
Ba O2 2.812(4) 16_545
Ba O2 2.812(4) 2_655
Ba O2 2.812(4) 15
Ba O2 3.149(4) 3_655
Ba O2 3.149(4) 4
Ba O2 3.149(4) 14_545
Ba O2 3.149(4) 13
Ba O1 3.2955(19) 15
Ba O1 3.2955(19) 7_545
Ba O1 3.2955(19) 9_655
Ba O1 3.2955(19) .
V O3 1.608(5) .
V O2 1.951(3) 2
V O2 1.951(3) 3
V O2 1.951(3) 4
V O2 1.951(3) .
V Ba 3.6808(6) 1_455
V Ba 3.6808(6) 13_545
V Ba 3.6808(6) 13
Si O2 1.594(3) 13
Si O2 1.594(3) 6_554
Si O1 1.609(5) 3
Si O1 1.616(5) .
Si Ba 3.7210(11) 13
Si Ba 3.7210(11) 5_454
O1 Si 1.609(5) 11
O1 Ba 3.2955(19) 9_655
O2 Si 1.594(3) 13
O2 Ba 3.149(4) 13
loop_
_geom_torsion_atom_site_label_1
_geom_torsion_atom_site_label_2
_geom_torsion_atom_site_label_3
_geom_torsion_atom_site_label_4
_geom_torsion
_geom_torsion_site_symmetry_1
_geom_torsion_site_symmetry_2
_geom_torsion_site_symmetry_3
_geom_torsion_site_symmetry_4
O2 Si O1 Si 117.46(14) 13 . . 11
O2 Si O1 Si -117.46(14) 6_554 . . 11
O1 Si O1 Si 0.0 3 . . 11
Ba Si O1 Si 70.89(11) 13 . . 11
Ba Si O1 Si -70.89(11) 5_454 . . 11
O2 Si O1 Ba -1.10(18) 13 . . .
O2 Si O1 Ba 123.97(14) 6_554 . . .
O1 Si O1 Ba -118.56(8) 3 . . .
Ba Si O1 Ba -47.67(19) 13 . . .
Ba Si O1 Ba 170.55(6) 5_454 . . .
O2 Si O1 Ba -123.97(14) 13 . . 9_655
O2 Si O1 Ba 1.10(18) 6_554 . . 9_655
O1 Si O1 Ba 118.56(8) 3 . . 9_655
Ba Si O1 Ba -170.55(6) 13 . . 9_655
Ba Si O1 Ba 47.67(19) 5_454 . . 9_655
