#------------------------------------------------------------------------------
#$Date: 2020-06-05 21:23:03 +0300 (Fri, 05 Jun 2020) $
#$Revision: 252944 $
#$URL: file:///home/coder/svn-repositories/cod/cif/1/55/81/1558193.cif $
#------------------------------------------------------------------------------
#
# This file is available in the Crystallography Open Database (COD),
# http://www.crystallography.net/
#
# All data on this site have been placed in the public domain by the
# contributors.
#
data_1558193
loop_
_publ_author_name
'Bindi, Luca'
'Jaszczak, John A.'
_publ_section_title
;
 Richardsite, Zn2CuGaS4, A New Gallium-Essential Member of the Stannite
 Group from the Gem Mines near Merelani, Tanzania
;
_journal_issue                   5
_journal_name_full               Minerals
_journal_page_first              467
_journal_paper_doi               10.3390/min10050467
_journal_volume                  10
_journal_year                    2020
_chemical_formula_moiety         'Cu Ga S4 Zn2'
_chemical_formula_sum            'Cu Ga S4 Zn2'
_chemical_formula_weight         392.29
_chemical_name_common            richardsite
_space_group_IT_number           121
_space_group_name_Hall           'I -4 2'
_space_group_name_H-M_alt        'I -4 2 m'
_symmetry_cell_setting           tetragonal
_symmetry_space_group_name_H-M   'I -4 2 m'
_atom_sites_solution_primary     direct
_atom_sites_solution_secondary   difmap
_audit_creation_method           SHELXL-97
_cell_angle_alpha                90.00
_cell_angle_beta                 90.00
_cell_angle_gamma                90.00
_cell_formula_units_Z            2
_cell_length_a                   5.3626(2)
_cell_length_b                   5.3626(2)
_cell_length_c                   10.5873(5)
_cell_measurement_reflns_used    155
_cell_measurement_temperature    299(2)
_cell_measurement_theta_max      14.7
_cell_measurement_theta_min      6.8
_cell_volume                     304.46(2)
_computing_cell_refinement       'APEX3 (Bruker Inc., 2016)'
_computing_data_collection       'APEX3 (Bruker Inc., 2016)'
_computing_data_reduction        'APEX3 (Bruker Inc., 2016)'
_computing_molecular_graphics    'DIAMOND (Brandenburg, 2001)'
_computing_publication_material  'SHELXL-97 (Sheldrick, 2008)'
_computing_structure_refinement  'SHELXL-97 (Sheldrick, 2008)'
_computing_structure_solution    'SHELXS-97 (Sheldrick, 2008)'
_diffrn_ambient_temperature      299(2)
_diffrn_measured_fraction_theta_full 0.996
_diffrn_measured_fraction_theta_max 0.996
_diffrn_measurement_device_type  'Bruker D8 Venture'
_diffrn_measurement_method       '\w scans'
_diffrn_radiation_monochromator  graphite
_diffrn_radiation_source         'fine-focus sealed tube'
_diffrn_radiation_type           MoK\a
_diffrn_radiation_wavelength     0.71073
_diffrn_reflns_av_R_equivalents  0.0429
_diffrn_reflns_av_sigmaI/netI    0.0384
_diffrn_reflns_limit_h_max       10
_diffrn_reflns_limit_h_min       -11
_diffrn_reflns_limit_k_max       10
_diffrn_reflns_limit_k_min       -11
_diffrn_reflns_limit_l_max       21
_diffrn_reflns_limit_l_min       -20
_diffrn_reflns_number            6019
_diffrn_reflns_theta_full        46.99
_diffrn_reflns_theta_max         46.99
_diffrn_reflns_theta_min         3.85
_exptl_absorpt_coefficient_mu    16.835
_exptl_absorpt_correction_T_max  0.988
_exptl_absorpt_correction_T_min  0.925
_exptl_absorpt_correction_type   multi-scan
_exptl_absorpt_process_details   '(<i>ABSPACK</i>; Bruker Inc., 2016)'
_exptl_crystal_colour            black
_exptl_crystal_density_diffrn    4.279
_exptl_crystal_density_method    'not measured'
_exptl_crystal_description       block
_exptl_crystal_F_000             368
_exptl_crystal_size_max          0.055
_exptl_crystal_size_mid          0.041
_exptl_crystal_size_min          0.035
_refine_diff_density_max         1.104
_refine_diff_density_min         -1.186
_refine_diff_density_rms         0.148
_refine_ls_abs_structure_details 'Flack H D (1983), Acta Cryst. A39, 876-881'
_refine_ls_abs_structure_Flack   0.05(2)
_refine_ls_extinction_coef       0.072(10)
_refine_ls_extinction_expression Fc^*^=kFc[1+0.001xFc^2^\l^3^/sin(2\q)]^-1/4^
_refine_ls_extinction_method     SHELXL
_refine_ls_goodness_of_fit_ref   1.129
_refine_ls_matrix_type           full
_refine_ls_number_parameters     14
_refine_ls_number_reflns         738
_refine_ls_number_restraints     0
_refine_ls_restrained_S_all      1.129
_refine_ls_R_factor_all          0.0332
_refine_ls_R_factor_gt           0.0284
_refine_ls_shift/su_max          0.000
_refine_ls_shift/su_mean         0.000
_refine_ls_structure_factor_coef Fsqd
_refine_ls_weighting_details
'calc w=1/[\s^2^(Fo^2^)+(0.0092P)^2^+0.2750P] where P=(Fo^2^+2Fc^2^)/3'
_refine_ls_weighting_scheme      calc
_refine_ls_wR_factor_gt          0.0862
_refine_ls_wR_factor_ref         0.0895
_reflns_number_gt                655
_reflns_number_total             738
_reflns_threshold_expression     >2sigma(I)
_cod_data_source_file            minerals-796729-supplementary.cif
_cod_data_source_block           richardsite
_cod_original_sg_symbol_H-M      I-42m
_cod_database_code               1558193
loop_
_symmetry_equiv_pos_as_xyz
'x, y, z'
'x, -y, -z'
'-x, -y, z'
'-x, y, -z'
'-y, -x, z'
'-y, x, -z'
'y, -x, -z'
'y, x, z'
'x+1/2, y+1/2, z+1/2'
'x+1/2, -y+1/2, -z+1/2'
'-x+1/2, -y+1/2, z+1/2'
'-x+1/2, y+1/2, -z+1/2'
'-y+1/2, -x+1/2, z+1/2'
'-y+1/2, x+1/2, -z+1/2'
'y+1/2, -x+1/2, -z+1/2'
'y+1/2, x+1/2, z+1/2'
loop_
_atom_site_label
_atom_site_type_symbol
_atom_site_fract_x
_atom_site_fract_y
_atom_site_fract_z
_atom_site_U_iso_or_equiv
_atom_site_adp_type
_atom_site_occupancy
_atom_site_symmetry_multiplicity
_atom_site_calc_flag
_atom_site_refinement_flags
_atom_site_disorder_assembly
_atom_site_disorder_group
Zn Zn 0.0000 0.5000 0.2500 0.01187(13) Uani 1 4 d S . .
Ga Ga 0.0000 0.0000 0.0000 0.00993(13) Uani 1 8 d S . .
Cu Cu 0.0000 0.0000 0.5000 0.02108(12) Uani 1 8 d S . .
S S 0.75389(6) 0.75389(6) 0.87356(4) 0.01009(11) Uani 1 2 d S . .
loop_
_atom_site_aniso_label
_atom_site_aniso_U_11
_atom_site_aniso_U_22
_atom_site_aniso_U_33
_atom_site_aniso_U_23
_atom_site_aniso_U_13
_atom_site_aniso_U_12
Zn 0.01194(13) 0.01194(13) 0.01174(17) 0.000 0.000 0.000
Ga 0.01027(14) 0.01027(14) 0.00925(17) 0.000 0.000 0.000
Cu 0.02074(15) 0.02074(15) 0.0217(2) 0.000 0.000 0.000
S 0.01009(14) 0.01009(14) 0.0101(2) 0.00008(7) 0.00008(7) -0.00099(11)
loop_
_atom_type_symbol
_atom_type_description
_atom_type_scat_dispersion_real
_atom_type_scat_dispersion_imag
_atom_type_scat_source
Cu Cu 0.3201 1.2651 'International Tables Vol C Tables 4.2.6.8 and 6.1.1.4'
Ga Ga 0.2307 1.6083 'International Tables Vol C Tables 4.2.6.8 and 6.1.1.4'
S S 0.1246 0.1234 'International Tables Vol C Tables 4.2.6.8 and 6.1.1.4'
Zn Zn 0.2839 1.4301 'International Tables Vol C Tables 4.2.6.8 and 6.1.1.4'
loop_
_geom_angle_atom_site_label_1
_geom_angle_atom_site_label_2
_geom_angle_atom_site_label_3
_geom_angle
_geom_angle_site_symmetry_1
_geom_angle_site_symmetry_3
_geom_angle_publ_flag
S Zn S 110.798(19) 2_466 4_656 ?
S Zn S 108.812(10) 2_466 9_444 ?
S Zn S 108.812(10) 4_656 9_444 ?
S Zn S 108.812(10) 2_466 11_564 ?
S Zn S 108.812(10) 4_656 11_564 ?
S Zn S 110.798(19) 9_444 11_564 ?
S Ga S 109.857(12) 1_444 4_646 ?
S Ga S 109.857(12) 1_444 2_466 ?
S Ga S 108.70(2) 4_646 2_466 ?
S Ga S 108.70(2) 1_444 3_664 ?
S Ga S 109.857(12) 4_646 3_664 ?
S Ga S 109.857(12) 2_466 3_664 ?
S Cu S 110.38(2) 11_554 9_444 ?
S Cu S 109.017(11) 11_554 12_546 ?
S Cu S 109.017(11) 9_444 12_546 ?
S Cu S 109.017(11) 11_554 10_456 ?
S Cu S 109.017(11) 9_444 10_456 ?
S Cu S 110.38(2) 12_546 10_456 ?
Ga S Zn 109.961(13) 1_666 9 ?
Ga S Zn 109.961(13) 1_666 2_666 ?
Zn S Zn 110.777(19) 9 2_666 ?
Ga S Cu 109.542(19) 1_666 9 ?
Zn S Cu 108.278(13) 9 9 ?
Zn S Cu 108.278(13) 2_666 9 ?
loop_
_geom_bond_atom_site_label_1
_geom_bond_atom_site_label_2
_geom_bond_distance
_geom_bond_site_symmetry_2
_geom_bond_publ_flag
Zn S 2.3037(3) 2_466 ?
Zn S 2.3037(3) 4_656 ?
Zn S 2.3037(3) 9_444 ?
Zn S 2.3037(3) 11_564 ?
Ga S 2.2969(5) 1_444 ?
Ga S 2.2969(5) 4_646 ?
Ga S 2.2969(5) 2_466 ?
Ga S 2.2969(5) 3_664 ?
Cu S 2.3451(5) 11_554 ?
Cu S 2.3451(5) 9_444 ?
Cu S 2.3451(5) 12_546 ?
Cu S 2.3451(5) 10_456 ?
S Ga 2.2969(5) 1_666 ?
S Zn 2.3037(3) 9 ?
S Zn 2.3037(3) 2_666 ?
S Cu 2.3451(5) 9 ?
loop_
_refln_index_h
_refln_index_k
_refln_index_l
_refln_F_squared_calc
_refln_F_squared_meas
_refln_F_squared_sigma
_refln_observed_status
1 1 0 0.66 14.40 0.65 o
1 3 0 3.13 14.87 0.72 o
3 3 0 8.23 15.38 2.07 o
2 4 0 3663.52 3561.35 76.62 o
1 5 0 8.35 16.50 1.30 o
3 5 0 5.28 9.74 1.04 o
5 5 0 11.53 14.46 2.18 o
0 6 0 1335.02 1237.29 38.62 o
2 6 0 12022.47 12729.05 416.60 o
4 6 0 600.82 582.44 15.91 o
6 6 0 4036.62 4135.84 149.61 o
1 7 0 6.73 7.86 1.29 o
3 7 0 10.11 12.28 1.49 o
5 7 0 3.83 0.21 1.01 o
7 7 0 8.26 5.04 4.56 o
0 8 0 5187.78 5303.14 191.70 o
2 8 0 322.42 325.01 10.68 o
4 8 0 3176.29 3152.13 90.81 o
6 8 0 132.34 145.10 7.14 o
1 9 0 6.81 4.46 2.17 o
3 9 0 4.03 0.12 2.72 o
5 9 0 7.11 2.98 2.20 o
0 10 0 132.47 138.79 9.63 o
2 10 0 1636.03 1694.61 49.86 o
4 10 0 94.04 91.20 8.35 o
0 1 1 29.49 47.17 0.81 o
-1 2 1 12.68 21.44 0.63 o
1 2 1 20.93 29.30 0.98 o
-2 3 1 95.82 102.41 2.54 o
0 3 1 3.35 6.38 0.53 o
2 3 1 89.19 94.93 2.44 o
-3 4 1 25.70 28.91 1.37 o
-1 4 1 79.68 84.61 2.09 o
1 4 1 67.34 71.50 2.26 o
3 4 1 37.02 39.31 1.46 o
-4 5 1 113.39 113.41 3.61 o
-2 5 1 9.26 12.91 0.99 o
0 5 1 125.24 126.91 3.30 o
2 5 1 14.77 16.47 1.15 o
4 5 1 103.84 103.71 3.25 o
-5 6 1 16.04 16.23 2.01 o
-3 6 1 93.45 90.53 3.28 o
-1 6 1 48.31 53.11 2.17 o
1 6 1 62.95 64.62 2.33 o
3 6 1 80.10 78.25 2.91 o
5 6 1 26.90 28.02 2.48 o
-6 7 1 65.95 64.50 4.80 o
-4 7 1 7.39 6.57 1.92 o
-2 7 1 105.54 108.72 3.97 o
0 7 1 6.18 4.91 1.13 o
2 7 1 101.37 92.76 3.64 o
4 7 1 14.40 13.69 1.62 o
6 7 1 58.27 49.66 4.87 o
-7 8 1 7.48 0.27 7.28 o
-5 8 1 56.65 49.89 4.52 o
-3 8 1 23.08 18.25 2.02 o
-1 8 1 60.09 59.29 2.98 o
1 8 1 46.82 49.01 3.24 o
3 8 1 34.92 35.89 2.80 o
5 8 1 47.32 40.12 3.46 o
7 8 1 13.90 11.87 9.44 o
-6 9 1 4.63 3.43 2.49 o
-4 9 1 57.79 51.04 4.12 o
-2 9 1 3.83 1.18 1.87 o
0 9 1 71.54 71.33 4.06 o
2 9 1 6.47 3.45 3.14 o
4 9 1 53.45 44.48 3.59 o
6 9 1 9.28 6.76 3.00 o
-3 10 1 37.45 35.52 3.56 o
-1 10 1 21.65 22.59 3.34 o
1 10 1 30.94 30.00 3.15 o
3 10 1 29.25 24.62 3.36 o
0 11 1 3.54 5.66 5.64 o
0 0 2 6.59 29.30 1.69 o
-2 2 2 9.75 24.41 1.54 o
0 2 2 0.06 7.25 0.36 o
2 2 2 9.79 19.98 1.12 o
-4 4 2 12.80 18.57 1.97 o
-2 4 2 2.84 10.09 0.75 o
0 4 2 12.14 18.73 1.18 o
2 4 2 2.68 9.11 0.83 o
4 4 2 13.19 19.35 3.06 o
-5 5 2 3934.31 3949.61 140.19 o
-3 5 2 8594.44 8630.81 265.57 o
3 5 2 7437.34 7649.84 191.83 o
5 5 2 4720.69 4651.84 155.01 o
-6 6 2 9.04 8.66 2.93 o
-4 6 2 5.35 6.74 1.30 o
-2 6 2 12.15 12.49 1.37 o
0 6 2 4.24 8.17 1.02 o
2 6 2 12.44 15.60 1.46 o
4 6 2 4.79 4.58 0.83 o
6 6 2 9.71 5.74 2.08 o
-7 7 2 875.36 864.00 45.51 o
-5 7 2 2190.41 2209.21 59.25 o
-3 7 2 2953.86 3011.35 93.09 o
-1 7 2 4718.17 4610.92 108.55 o
1 7 2 3931.87 3856.34 97.10 o
3 7 2 3602.74 3471.06 84.44 o
5 7 2 1747.02 1766.59 67.08 o
7 7 2 1128.81 1082.32 78.77 o
-6 8 2 4.41 -0.06 1.90 o
-4 8 2 8.16 6.39 2.04 o
-2 8 2 4.93 3.99 1.76 o
0 8 2 9.80 7.53 1.79 o
2 8 2 4.61 1.63 1.09 o
4 8 2 8.69 2.90 1.60 o
6 8 2 3.84 0.84 2.32 o
-5 9 2 708.26 709.99 23.29 o
-3 9 2 1394.34 1396.22 37.96 o
-1 9 2 1372.83 1446.04 46.33 o
1 9 2 1740.06 1733.92 50.40 o
3 9 2 1089.57 1107.58 37.27 o
5 9 2 919.37 862.37 35.53 o
-4 10 2 3.57 0.41 2.27 o
-2 10 2 5.97 3.51 2.78 o
0 10 2 3.81 2.26 2.36 o
2 10 2 6.19 4.50 2.44 o
4 10 2 3.21 4.66 2.84 o
0 1 3 5.17 9.81 0.41 o
-1 2 3 43.07 55.98 1.54 o
1 2 3 50.53 62.42 1.55 o
-2 3 3 18.48 20.01 1.01 o
0 3 3 88.20 96.00 2.49 o
2 3 3 12.20 14.04 0.75 o
-3 4 3 97.65 99.48 3.22 o
-1 4 3 53.89 52.38 1.78 o
1 4 3 42.11 40.55 1.63 o
3 4 3 108.48 110.58 2.92 o
-4 5 3 22.99 25.87 1.80 o
-2 5 3 120.22 123.53 3.55 o
0 5 3 8.34 9.72 0.96 o
2 5 3 125.49 127.61 3.90 o
4 5 3 13.90 15.44 1.25 o
-5 6 3 73.91 74.69 3.59 o
-3 6 3 40.87 35.83 3.41 o
-1 6 3 66.22 64.34 2.60 o
1 6 3 80.18 77.56 2.81 o
3 6 3 28.18 30.47 2.10 o
5 6 3 84.20 80.68 5.11 o
-6 7 3 14.94 11.04 2.97 o
-4 7 3 80.85 82.17 4.41 o
-2 7 3 9.57 7.69 1.17 o
0 7 3 108.66 111.61 4.08 o
2 7 3 5.61 5.99 1.32 o
4 7 3 87.48 92.14 4.50 o
6 7 3 7.70 7.87 2.85 o
-7 8 3 36.25 21.05 3.72 o
-5 8 3 21.40 18.21 2.62 o
-3 8 3 49.96 51.96 3.43 o
-1 8 3 46.46 48.31 2.91 o
1 8 3 33.91 34.08 2.43 o
3 8 3 61.15 64.11 3.57 o
5 8 3 12.59 8.96 2.47 o
7 8 3 42.30 28.69 5.69 o
-6 9 3 38.07 33.36 3.84 o
-4 9 3 8.12 6.57 2.07 o
-2 9 3 65.00 62.25 5.75 o
0 9 3 4.32 4.02 1.57 o
2 9 3 67.50 68.17 4.31 o
4 9 3 4.03 4.02 2.34 o
6 9 3 42.45 35.28 5.21 o
-3 10 3 22.11 22.05 3.69 o
-1 10 3 26.23 27.25 3.60 o
1 10 3 34.98 36.46 4.23 o
3 10 3 14.39 14.85 3.98 o
-1 1 4 10.33 17.97 1.36 o
1 1 4 10.60 18.14 0.87 o
-2 2 4 6404.13 5582.90 447.49 o
-3 3 4 8.26 17.11 1.94 o
-1 3 4 11.24 18.77 1.41 o
1 3 4 10.52 15.54 0.77 o
3 3 4 9.25 14.87 1.80 o
-4 4 4 1328.06 1221.54 38.55 o
0 4 4 3639.62 3339.02 74.53 o
4 4 4 1328.75 1242.52 35.66 o
-5 5 4 5.37 4.56 2.04 o
-3 5 4 13.28 17.29 1.86 o
-1 5 4 8.86 12.42 1.09 o
1 5 4 9.99 13.93 1.07 o
3 5 4 12.10 14.14 1.30 o
5 5 4 6.48 5.00 1.25 o
-6 6 4 248.08 276.46 11.53 o
-4 6 4 6741.08 6990.72 162.22 o
-2 6 4 870.13 831.84 20.01 o
0 6 4 11987.96 11845.94 387.51 o
2 6 4 870.56 807.41 19.96 o
4 6 4 6740.43 6922.21 197.52 o
6 6 4 248.68 248.03 19.07 o
-7 7 4 2.78 0.48 3.04 o
-5 7 4 10.54 10.66 1.79 o
-3 7 4 5.52 4.62 1.29 o
-1 7 4 10.27 10.43 1.36 o
1 7 4 9.17 8.30 1.55 o
3 7 4 6.54 4.51 1.35 o
5 7 4 9.71 5.21 1.59 o
7 7 4 3.34 4.90 5.91 o
-6 8 4 1634.54 1680.07 50.02 o
-4 8 4 196.98 210.06 7.75 o
-2 8 4 4028.71 4002.33 103.76 o
0 8 4 321.83 311.40 9.14 o
2 8 4 4028.41 4081.25 103.91 o
4 8 4 197.42 206.55 9.02 o
6 8 4 1634.12 1714.06 71.65 o
-5 9 4 2.75 0.52 2.01 o
-3 9 4 7.84 5.40 2.16 o
-1 9 4 5.36 2.25 2.27 o
1 9 4 6.10 1.80 1.73 o
3 9 4 7.19 2.41 1.56 o
5 9 4 3.24 1.21 3.38 o
-4 10 4 1089.36 1110.39 37.43 o
-2 10 4 110.95 117.04 6.12 o
0 10 4 1633.89 1698.75 53.67 o
2 10 4 111.11 118.53 7.41 o
4 10 4 1089.12 1202.15 62.87 o
0 1 5 16.10 21.37 0.66 o
-1 2 5 61.42 64.97 1.79 o
1 2 5 54.26 55.73 1.78 o
-2 3 5 18.78 23.48 1.45 o
0 3 5 93.17 92.06 2.42 o
2 3 5 25.14 27.83 1.18 o
-3 4 5 104.47 109.37 3.43 o
-1 4 5 46.72 50.21 2.11 o
1 4 5 58.72 59.40 1.89 o
3 4 5 93.42 89.12 3.01 o
-4 5 5 15.88 17.58 1.94 o
-2 5 5 116.41 112.14 3.67 o
0 5 5 11.94 12.93 1.17 o
2 5 5 111.05 106.35 3.55 o
4 5 5 25.06 23.50 1.97 o
-5 6 5 77.90 79.96 3.60 o
-3 6 5 29.15 33.89 2.33 o
-1 6 5 78.06 77.16 2.78 o
1 6 5 63.93 59.73 2.73 o
3 6 5 41.95 47.32 2.65 o
5 6 5 67.60 68.64 5.52 o
-6 7 5 8.59 6.07 2.22 o
-4 7 5 79.47 73.78 6.50 o
-2 7 5 7.23 5.96 1.32 o
0 7 5 97.68 89.37 4.04 o
2 7 5 11.21 9.02 1.59 o
4 7 5 72.85 66.27 5.77 o
6 7 5 15.79 10.96 3.74 o
-7 8 5 39.27 30.60 3.85 o
-5 8 5 13.19 12.80 2.39 o
-3 8 5 57.86 57.69 3.61 o
-1 8 5 33.27 34.81 2.59 o
1 8 5 45.81 45.72 3.40 o
3 8 5 46.71 45.18 4.05 o
5 8 5 21.93 18.37 4.89 o
7 8 5 33.28 28.90 5.27 o
-4 9 5 4.83 4.42 2.15 o
-2 9 5 60.86 59.97 4.17 o
0 9 5 5.33 3.63 1.75 o
2 9 5 58.38 59.01 5.08 o
4 9 5 8.90 7.62 3.48 o
-3 10 5 14.47 11.43 2.77 o
-1 10 5 33.84 31.18 2.92 o
1 10 5 25.16 22.01 3.86 o
3 10 5 22.12 15.24 3.39 o
0 0 6 3.76 1.46 0.60 o
-2 2 6 0.49 1.28 0.69 o
0 2 6 32.16 38.87 1.79 o
2 2 6 0.42 1.68 0.45 o
-1 3 6 15875.26 14981.55 1198.66 o
-4 4 6 0.96 2.69 1.58 o
-2 4 6 27.77 33.66 3.35 o
0 4 6 0.02 2.15 0.55 o
2 4 6 27.95 26.89 1.45 o
4 4 6 0.57 2.82 1.09 o
-5 5 6 3582.26 3672.34 116.52 o
-3 5 6 5315.76 5252.66 128.68 o
-1 5 6 8541.01 8512.15 226.28 o
1 5 6 7386.92 7349.46 209.34 o
3 5 6 6267.00 6017.11 159.65 o
5 5 6 2934.84 3146.47 162.01 o
-6 6 6 2.41 2.94 2.71 o
-4 6 6 17.64 14.21 2.26 o
-2 6 6 1.15 2.28 1.45 o
0 6 6 22.38 18.70 1.92 o
2 6 6 0.86 3.00 1.07 o
4 6 6 18.16 16.53 2.46 o
6 6 6 1.83 3.10 2.14 o
-7 7 6 914.80 939.60 39.40 o
-5 7 6 1370.87 1326.31 33.20 o
-3 7 6 2777.92 2807.88 64.52 o
-1 7 6 2939.93 2844.91 74.28 o
1 7 6 3587.28 3442.71 96.54 o
3 7 6 2243.10 2320.15 74.92 o
5 7 6 1737.44 1603.50 83.71 o
7 7 6 704.03 832.06 57.88 o
-6 8 6 8.35 2.81 2.27 o
-4 8 6 2.30 2.15 1.83 o
-2 8 6 13.72 11.29 2.24 o
0 8 6 1.68 1.85 1.11 o
2 8 6 14.00 10.74 2.31 o
4 8 6 1.84 3.29 2.04 o
6 8 6 8.84 4.85 3.44 o
-5 9 6 750.30 750.60 24.97 o
-3 9 6 873.49 866.07 26.42 o
-1 9 6 1390.46 1365.75 38.94 o
1 9 6 1086.29 1138.79 43.18 o
3 9 6 1126.42 1038.94 41.26 o
5 9 6 574.35 627.36 31.48 o
-2 10 6 1.95 -0.47 5.04 o
0 10 6 8.34 6.61 2.42 o
0 1 7 61.93 65.35 1.79 o
-1 2 7 43.65 45.05 1.45 o
1 2 7 37.58 39.26 1.33 o
-2 3 7 100.91 104.05 3.21 o
0 3 7 19.92 22.07 1.29 o
2 3 7 106.45 103.75 3.01 o
-3 4 7 36.31 41.52 2.14 o
-1 4 7 71.10 70.92 2.62 o
1 4 7 81.57 80.89 2.74 o
3 4 7 26.72 26.64 1.31 o
-4 5 7 89.03 90.98 3.83 o
-2 5 7 16.87 17.35 1.57 o
0 5 7 116.61 117.64 4.17 o
2 5 7 12.23 12.78 1.24 o
4 5 7 96.89 94.94 3.96 o
-5 6 7 22.28 22.35 2.43 o
-3 6 7 67.37 80.44 3.82 o
-1 6 7 53.65 54.91 2.73 o
1 6 7 41.51 44.85 2.89 o
3 6 7 78.29 82.28 4.69 o
5 6 7 13.58 11.87 2.38 o
-6 7 7 49.29 48.34 3.42 o
-4 7 7 12.64 11.99 2.05 o
-2 7 7 86.20 87.16 4.04 o
0 7 7 7.26 6.81 1.77 o
2 7 7 89.57 97.84 4.97 o
4 7 7 7.05 6.98 1.92 o
6 7 7 55.33 60.37 5.69 o
-5 8 7 39.79 39.27 3.50 o
-3 8 7 28.36 28.20 3.51 o
-1 8 7 38.54 43.63 3.34 o
1 8 7 49.12 49.40 3.73 o
3 8 7 18.98 14.20 3.14 o
5 8 7 47.11 43.80 4.69 o
-4 9 7 45.76 43.61 3.39 o
-2 9 7 6.22 8.16 2.34 o
0 9 7 61.00 65.73 4.51 o
2 9 7 4.14 2.76 2.45 o
4 9 7 49.15 47.64 6.16 o
-3 10 7 24.71 24.21 8.97 o
-1 10 7 25.36 21.57 9.43 o
1 10 7 18.11 16.31 8.00 o
3 10 7 31.10 33.31 15.10 o
-1 1 8 24.12 14.79 1.38 o
1 1 8 22.36 19.50 2.16 o
0 2 8 3569.21 3519.32 89.35 o
-3 3 8 20.18 22.17 4.68 o
-1 3 8 18.18 18.14 1.76 o
1 3 8 20.33 23.70 1.29 o
3 3 8 17.87 17.84 2.23 o
-4 4 8 8842.21 9103.13 327.91 o
-2 4 8 1309.12 1240.94 29.14 o
0 4 8 16336.18 16448.78 929.10 o
2 4 8 1309.82 1192.99 33.34 o
4 4 8 8841.17 9138.21 327.68 o
-5 5 8 14.18 13.69 4.10 o
-3 5 8 10.31 8.48 1.58 o
-1 5 8 17.16 18.10 2.40 o
1 5 8 14.82 13.62 1.73 o
3 5 8 12.55 9.50 1.67 o
5 5 8 12.25 11.52 2.85 o
-6 6 8 2509.77 2584.27 88.44 o
-4 6 8 319.44 331.85 9.03 o
-2 6 8 6694.82 6891.16 165.67 o
0 6 8 593.27 553.68 17.29 o
2 6 8 6694.18 6704.60 207.77 o
4 6 8 320.40 326.35 12.01 o
6 6 8 2508.86 2767.64 321.83 o
-7 7 8 7.73 4.12 3.76 o
-5 7 8 4.59 1.30 2.05 o
-3 7 8 12.07 9.96 1.85 o
-1 7 8 8.76 4.75 1.49 o
1 7 8 10.69 8.39 2.19 o
3 7 8 10.34 10.18 2.32 o
5 7 8 5.95 1.53 1.65 o
7 7 8 6.83 2.67 6.14 o
-6 8 8 93.80 103.21 6.03 o
-4 8 8 2013.63 2008.16 54.10 o
-2 8 8 196.50 204.75 9.57 o
0 8 8 3154.56 3213.80 92.97 o
2 8 8 196.95 203.64 8.91 o
4 8 8 2012.96 2141.14 64.99 o
6 8 8 94.44 104.81 7.33 o
-3 9 8 4.06 3.29 2.09 o
-1 9 8 7.57 3.87 2.47 o
1 9 8 6.38 5.16 2.43 o
3 9 8 5.09 4.40 2.56 o
-2 10 8 1085.90 1170.61 49.91 o
0 10 8 94.20 99.08 5.43 o
2 10 8 1085.66 1153.28 85.62 o
0 1 9 71.70 70.86 1.98 o
-1 2 9 47.02 45.79 1.88 o
1 2 9 53.28 50.82 1.85 o
-2 3 9 97.13 91.86 3.25 o
0 3 9 28.86 27.17 2.39 o
2 3 9 91.40 89.11 2.67 o
-3 4 9 29.75 29.93 2.69 o
-1 4 9 78.30 78.95 2.63 o
1 4 9 67.51 64.63 2.81 o
3 4 9 39.53 41.79 2.37 o
-4 5 9 81.78 87.74 3.94 o
-2 5 9 16.33 13.33 1.39 o
0 5 9 97.58 100.04 4.55 o
2 5 9 21.04 22.84 2.50 o
4 5 9 73.88 76.91 3.76 o
-5 6 9 15.18 14.64 2.30 o
-3 6 9 69.14 70.44 3.59 o
-1 6 9 40.11 45.64 3.17 o
1 6 9 52.35 54.03 3.34 o
3 6 9 58.20 57.60 3.95 o
5 6 9 23.81 26.90 2.78 o
-6 7 9 46.95 41.29 3.13 o
-4 7 9 9.10 4.72 2.37 o
-2 7 9 73.24 75.40 4.05 o
0 7 9 10.10 6.39 1.42 o
2 7 9 69.88 74.78 4.35 o
4 7 9 14.63 13.72 2.73 o
6 7 9 41.01 40.46 5.35 o
-5 8 9 41.28 34.51 3.11 o
-3 8 9 19.24 12.56 1.93 o
-1 8 9 45.49 46.51 4.24 o
1 8 9 35.02 37.20 3.99 o
3 8 9 28.50 30.01 3.39 o
5 8 9 34.08 27.21 3.73 o
-4 9 9 40.95 36.56 3.52 o
-2 9 9 5.74 1.69 2.28 o
0 9 9 49.69 51.60 4.00 o
2 9 9 7.79 5.89 2.34 o
4 9 9 37.61 29.98 3.64 o
-1 10 9 17.31 19.42 12.41 o
0 0 10 51.70 52.86 3.80 o
-1 1 10 10438.52 11120.65 455.18 o
1 1 10 11833.50 11941.43 534.97 o
-2 2 10 44.81 44.69 6.51 o
0 2 10 2.00 1.69 0.86 o
2 2 10 44.91 39.72 3.25 o
-3 3 10 5253.45 5119.10 178.00 o
-1 3 10 8436.66 8614.74 189.93 o
1 3 10 7288.41 7316.37 208.89 o
3 3 10 6200.02 5941.58 220.78 o
-4 4 10 28.85 34.14 4.23 o
-2 4 10 0.41 1.43 1.48 o
0 4 10 38.77 38.02 3.09 o
2 4 10 0.22 0.62 0.84 o
4 4 10 29.20 27.19 3.15 o
-5 5 10 1732.86 1642.85 56.91 o
-3 5 10 3552.08 3583.06 82.82 o
-1 5 10 3872.81 3879.82 106.72 o
1 5 10 4653.54 4505.79 103.08 o
3 5 10 2907.64 2996.86 102.10 o
5 5 10 2173.46 1817.21 137.78 o
-6 6 10 14.00 9.31 2.90 o
-4 6 10 0.65 0.34 1.49 o
-2 6 10 24.89 20.97 2.80 o
0 6 10 0.07 0.42 1.13 o
2 6 10 25.13 20.90 2.44 o
4 6 10 0.25 2.39 1.78 o
6 6 10 14.44 14.47 5.36 o
-5 7 10 1116.83 1153.63 30.39 o
-3 7 10 1361.81 1322.16 38.76 o
-1 7 10 2168.11 2173.83 52.39 o
1 7 10 1727.55 1760.83 57.87 o
3 7 10 1726.91 1679.17 50.65 o
5 7 10 864.76 1040.80 39.17 o
-4 8 10 12.12 7.16 2.33 o
-2 8 10 0.69 -0.96 1.76 o
0 8 10 16.17 11.10 2.15 o
2 8 10 0.48 1.06 2.82 o
4 8 10 12.46 5.44 2.00 o
-3 9 10 747.38 748.02 22.33 o
-1 9 10 703.28 707.88 24.65 o
1 9 10 913.30 882.11 25.10 o
3 9 10 572.00 615.70 23.40 o
0 1 11 49.11 47.38 1.70 o
-1 2 11 70.59 65.49 2.24 o
1 2 11 75.52 72.70 2.26 o
-2 3 11 31.46 33.51 2.38 o
0 3 11 93.28 90.91 3.64 o
2 3 11 26.99 26.07 1.31 o
-3 4 11 71.18 73.76 3.99 o
-1 4 11 50.80 51.29 3.18 o
1 4 11 42.43 45.10 2.61 o
3 4 11 78.69 74.88 4.14 o
-4 5 11 19.47 20.08 2.71 o
-2 5 11 83.31 84.78 4.78 o
0 5 11 15.42 15.27 1.51 o
2 5 11 86.91 91.29 4.34 o
4 5 11 13.50 15.39 2.28 o
-5 6 11 47.79 44.53 3.74 o
-3 6 11 29.23 26.17 2.57 o
-1 6 11 45.35 46.18 3.16 o
1 6 11 54.62 53.96 3.24 o
3 6 11 20.99 19.76 2.49 o
5 6 11 54.23 57.25 6.71 o
-6 7 11 11.30 9.88 2.48 o
-4 7 11 52.40 53.21 4.07 o
-2 7 11 10.20 12.89 2.36 o
0 7 11 70.47 64.18 3.95 o
2 7 11 7.68 8.08 1.99 o
4 7 11 56.52 57.80 3.88 o
6 7 11 6.91 6.44 2.89 o
-5 8 11 15.00 11.02 2.96 o
-3 8 11 32.88 31.17 3.23 o
-1 8 11 30.89 29.24 2.83 o
1 8 11 23.09 21.99 2.98 o
3 8 11 39.76 38.65 3.21 o
5 8 11 9.68 12.63 5.41 o
-2 9 11 42.98 42.70 4.02 o
0 9 11 5.41 3.99 3.51 o
2 9 11 44.49 44.86 4.02 o
0 0 12 1279.13 1113.01 52.35 o
-1 1 12 24.52 29.03 4.09 o
1 1 12 27.97 29.22 1.74 o
-2 2 12 843.42 839.03 33.89 o
0 2 12 11721.25 12420.58 350.34 o
2 2 12 843.84 771.98 26.95 o
-3 3 12 15.95 11.19 2.80 o
-1 3 12 24.23 27.13 3.19 o
1 3 12 20.86 22.24 1.97 o
3 3 12 19.14 20.75 2.07 o
-4 4 12 316.61 317.78 16.35 o
-2 4 12 6620.04 6862.14 181.73 o
0 4 12 584.15 547.53 16.09 o
2 4 12 6619.39 6633.00 205.79 o
4 4 12 317.57 317.86 15.45 o
-5 5 12 7.37 2.69 2.45 o
-3 5 12 16.30 16.17 2.69 o
-1 5 12 13.81 10.04 1.73 o
1 5 12 16.75 17.80 2.30 o
3 5 12 13.64 13.51 2.72 o
5 5 12 9.47 9.03 3.81 o
-6 6 12 110.67 119.79 9.08 o
-4 6 12 2490.85 2582.54 68.14 o
-2 6 12 245.62 273.99 9.49 o
0 6 12 3969.55 4055.73 124.83 o
2 6 12 246.22 253.03 9.54 o
4 6 12 2489.94 2685.75 105.85 o
6 6 12 111.52 121.71 9.75 o
-5 7 12 8.82 7.17 2.57 o
-3 7 12 6.57 4.24 2.14 o
-1 7 12 11.52 11.11 2.25 o
1 7 12 9.42 5.11 1.81 o
3 7 12 8.42 4.93 1.89 o
5 7 12 7.43 2.42 3.01 o
-4 8 12 94.02 100.08 5.83 o
-2 8 12 1618.13 1635.95 48.71 o
0 8 12 132.28 151.24 9.73 o
2 8 12 1617.72 1640.92 52.35 o
4 8 12 94.66 104.07 6.89 o
-1 9 12 4.75 4.27 3.18 o
1 9 12 5.95 7.76 3.21 o
0 1 13 48.83 46.20 1.90 o
-1 2 13 66.23 68.00 3.15 o
1 2 13 61.19 65.15 2.98 o
-2 3 13 29.17 24.73 2.77 o
0 3 13 74.52 81.80 3.87 o
2 3 13 33.69 30.54 2.17 o
-3 4 13 63.88 66.98 3.86 o
-1 4 13 39.45 38.50 3.05 o
1 4 13 47.87 46.95 2.68 o
3 4 13 56.39 52.71 3.00 o
-4 5 13 15.67 9.67 3.48 o
-2 5 13 66.47 69.14 4.03 o
0 5 13 18.85 15.03 2.79 o
2 5 13 62.89 65.27 4.38 o
4 5 13 21.54 20.94 3.80 o
-5 6 13 43.64 38.17 3.42 o
-3 6 13 21.16 22.02 3.27 o
-1 6 13 47.72 42.29 3.94 o
1 6 13 38.57 42.24 4.28 o
3 6 13 29.25 29.68 3.73 o
5 6 13 37.37 34.26 4.44 o
-4 7 13 43.67 39.72 3.76 o
-2 7 13 10.22 8.37 2.61 o
0 7 13 52.59 54.18 5.00 o
2 7 13 12.68 8.39 3.09 o
4 7 13 39.66 42.95 4.62 o
-3 8 13 33.84 24.83 3.28 o
-1 8 13 21.31 23.70 3.65 o
1 8 13 28.89 28.10 3.98 o
3 8 13 27.17 28.66 3.73 o
0 0 14 2.33 2.01 2.17 o
-1 1 14 4586.95 4167.68 161.56 o
1 1 14 3811.63 3781.87 128.54 o
-2 2 14 1.30 1.83 2.27 o
0 2 14 44.32 49.77 4.18 o
2 2 14 1.21 -1.00 1.81 o
-3 3 14 2726.82 2759.84 97.37 o
-1 3 14 2873.31 2859.69 84.65 o
1 3 14 3513.45 3389.29 80.97 o
3 3 14 2197.72 2347.29 152.97 o
-4 4 14 0.30 0.09 3.12 o
-2 4 14 31.88 29.47 3.32 o
0 4 14 0.62 0.63 1.30 o
2 4 14 32.03 32.88 3.91 o
4 4 14 0.06 1.67 1.66 o
-5 5 14 1109.01 1131.31 43.10 o
-3 5 14 1348.77 1339.36 40.89 o
-1 5 14 2146.88 2084.61 64.46 o
1 5 14 1708.98 1714.17 58.02 o
3 5 14 1711.76 1705.35 59.28 o
5 5 14 858.23 1032.60 68.44 o
-4 6 14 16.95 12.78 2.70 o
-2 6 14 0.17 0.08 2.25 o
0 6 14 23.21 20.30 3.50 o
2 6 14 0.01 -3.24 3.53 o
4 6 14 17.22 15.24 5.25 o
-3 7 14 905.12 912.45 25.19 o
-1 7 14 861.88 844.11 28.12 o
1 7 14 1112.63 1112.88 48.93 o
3 7 14 696.08 760.08 28.02 o
-2 8 14 12.48 8.12 2.69 o
0 8 14 0.14 -3.02 3.66 o
2 8 14 12.61 9.62 3.17 o
0 1 15 57.36 56.86 2.34 o
-1 2 15 41.85 45.06 2.93 o
1 2 15 38.42 36.46 2.51 o
-2 3 15 59.57 61.73 3.67 o
0 3 15 26.24 24.52 2.39 o
2 3 15 62.61 61.19 3.09 o
-3 4 15 25.76 27.44 2.99 o
-1 4 15 43.24 46.81 3.41 o
1 4 15 48.89 48.61 2.87 o
3 4 15 20.78 20.78 2.37 o
-4 5 15 45.07 44.05 3.70 o
-2 5 15 16.27 15.53 3.19 o
0 5 15 60.39 60.31 4.06 o
2 5 15 13.90 15.66 2.72 o
4 5 15 48.94 45.83 6.99 o
-5 6 15 14.50 9.91 2.56 o
-3 6 15 35.13 32.16 3.30 o
-1 6 15 30.67 33.62 3.37 o
1 6 15 24.63 23.69 3.67 o
3 6 15 40.45 37.30 3.50 o
5 6 15 10.40 13.65 4.58 o
-2 7 15 43.51 40.03 4.03 o
0 7 15 9.00 7.58 2.49 o
2 7 15 45.12 46.27 4.43 o
0 0 16 5023.33 4854.08 276.77 o
-1 1 16 22.14 24.84 5.50 o
1 1 16 18.56 19.07 2.59 o
-2 2 16 3920.39 3973.30 147.97 o
0 2 16 313.47 329.70 10.46 o
2 2 16 3920.10 4207.36 165.82 o
-3 3 16 16.29 15.59 3.76 o
-1 3 16 15.06 13.94 2.28 o
1 3 16 18.26 21.68 2.43 o
3 3 16 13.44 10.23 5.16 o
-4 4 16 1981.56 2007.72 77.03 o
-2 4 16 194.78 202.41 9.29 o
0 4 16 3093.44 3095.65 84.22 o
2 4 16 195.21 209.69 9.91 o
4 4 16 1980.89 2217.48 123.26 o
-5 5 16 9.22 6.37 3.48 o
-3 5 16 8.34 6.72 2.54 o
-1 5 16 13.55 14.39 2.94 o
1 5 16 11.05 8.72 2.41 o
3 5 16 10.52 12.74 3.85 o
5 5 16 7.59 0.25 7.33 o
-4 6 16 94.35 104.37 5.52 o
-2 6 16 1604.75 1599.85 45.37 o
0 6 16 132.27 153.67 7.49 o
2 6 16 1604.33 1640.19 55.45 o
4 6 16 94.98 92.10 7.61 o
-1 7 16 6.33 3.45 2.40 o
1 7 16 7.96 6.86 3.00 o
0 1 17 45.19 52.26 3.46 o
-1 2 17 33.26 35.69 2.83 o
1 2 17 36.62 36.71 3.06 o
-2 3 17 46.83 46.88 3.65 o
0 3 17 25.70 21.82 2.37 o
2 3 17 43.87 48.08 5.37 o
-3 4 17 20.17 18.20 2.81 o
-1 4 17 39.82 42.90 3.60 o
1 4 17 34.35 33.53 3.44 o
3 4 17 24.98 26.15 4.15 o
-4 5 17 36.33 27.37 3.23 o
-2 5 17 15.34 10.51 2.52 o
0 5 17 43.01 49.98 4.49 o
2 5 17 17.63 16.13 4.53 o
4 5 17 32.62 34.93 6.27 o
-3 6 17 32.01 30.25 3.39 o
-1 6 17 21.61 16.46 2.89 o
1 6 17 27.41 20.68 3.29 o
3 6 17 26.92 25.33 5.75 o
0 0 18 32.10 40.51 5.26 o
-1 1 18 1329.76 1373.98 72.99 o
1 1 18 1690.07 1647.03 64.65 o
-2 2 18 27.11 23.31 6.93 o
0 2 18 0.85 2.30 1.70 o
2 2 18 27.16 36.09 4.87 o
-3 3 18 854.15 849.66 34.82 o
-1 3 18 1358.48 1377.88 52.37 o
1 3 18 1059.16 1087.27 37.88 o
3 3 18 1103.28 958.66 44.92 o
-4 4 18 16.57 15.53 4.33 o
-2 4 18 0.31 -1.46 2.17 o
0 4 18 22.99 24.82 4.19 o
2 4 18 0.23 -1.44 3.48 o
4 4 18 16.70 12.44 9.94 o
-3 5 18 738.12 746.02 21.63 o
-1 5 18 692.75 665.89 24.09 o
1 5 18 900.51 835.31 38.22 o
3 5 18 564.49 626.68 31.59 o
0 6 18 0.07 -1.91 3.43 o
0 1 19 28.93 31.89 3.61 o
-1 2 19 33.79 31.30 3.31 o
1 2 19 35.74 41.15 3.47 o
-2 3 19 20.18 21.94 2.97 o
0 3 19 39.78 39.49 3.43 o
2 3 19 18.46 15.42 3.46 o
-3 4 19 30.22 25.68 3.35 o
-1 4 19 25.48 21.82 3.10 o
1 4 19 22.32 19.13 4.25 o
3 4 19 33.00 33.93 4.84 o
-2 5 19 33.83 44.30 12.70 o
0 5 19 12.92 14.74 4.33 o
2 5 19 35.15 24.31 11.67 o
0 0 20 132.45 137.73 20.26 o
-1 1 20 10.49 11.01 4.95 o
1 1 20 12.84 10.91 3.44 o
-2 2 20 111.66 116.61 7.96 o
0 2 20 1588.20 1587.02 50.34 o
2 2 20 111.82 116.80 9.40 o
-3 3 20 7.14 8.09 6.83 o
-1 3 20 10.97 13.12 6.97 o
1 3 20 8.95 13.80 4.78 o
3 3 20 8.88 15.77 12.00 o
0 4 20 95.19 88.74 7.07 o
0 1 21 23.91 18.49 8.67 o
-1 2 21 27.47 29.60 4.20 o
1 2 21 25.63 34.29 4.88 o
