#------------------------------------------------------------------------------
#$Date: 2020-12-21 19:40:07 +0200 (Mon, 21 Dec 2020) $
#$Revision: 260053 $
#$URL: file:///home/coder/svn-repositories/cod/cif/1/55/98/1559836.cif $
#------------------------------------------------------------------------------
#
# This file is available in the Crystallography Open Database (COD),
# http://www.crystallography.net/
#
# All data on this site have been placed in the public domain by the
# contributors.
#
data_1559836
loop_
_publ_author_name
'Chen, Pengyun'
'Li, R.K.'
_publ_section_title
;
 Two high terbium content apatites: Tb5Si2BO13 and Tb4.66Si3O13
;
_journal_name_full               'Journal of Alloys and Compounds'
_journal_page_first              859
_journal_page_last               864
_journal_paper_doi               10.1016/j.jallcom.2014.10.159
_journal_volume                  622
_journal_year                    2015
_chemical_formula_sum            'O13 Si3 Tb4.66'
_chemical_formula_weight         1053.59
_space_group_crystal_system      hexagonal
_space_group_IT_number           176
_space_group_name_Hall           '-P 6c'
_space_group_name_H-M_alt        'P 63/m'
_atom_sites_solution_hydrogens   .
_audit_creation_method           SHELXL-2013
_cell_angle_alpha                90
_cell_angle_beta                 90
_cell_angle_gamma                120
_cell_formula_units_Z            2
_cell_length_a                   9.493(4)
_cell_length_b                   9.493(4)
_cell_length_c                   6.852(5)
_cell_measurement_temperature    571(2)
_cell_volume                     534.8(5)
_computing_structure_refinement  'SHELXL-2013 (Sheldrick, 2013)'
_diffrn_ambient_temperature      571(2)
_diffrn_measured_fraction_theta_full 0.994
_diffrn_measured_fraction_theta_max 0.993
_diffrn_radiation_type           MoK\a
_diffrn_radiation_wavelength     0.71073
_diffrn_reflns_av_R_equivalents  0.1057
_diffrn_reflns_av_unetI/netI     0.0564
_diffrn_reflns_Laue_measured_fraction_full 0.994
_diffrn_reflns_Laue_measured_fraction_max 0.993
_diffrn_reflns_limit_h_max       9
_diffrn_reflns_limit_h_min       -8
_diffrn_reflns_limit_k_max       12
_diffrn_reflns_limit_k_min       -8
_diffrn_reflns_limit_l_max       8
_diffrn_reflns_limit_l_min       -8
_diffrn_reflns_number            1840
_diffrn_reflns_point_group_measured_fraction_full 0.994
_diffrn_reflns_point_group_measured_fraction_max 0.993
_diffrn_reflns_theta_full        25.242
_diffrn_reflns_theta_max         27.425
_diffrn_reflns_theta_min         3.871
_exptl_absorpt_coefficient_mu    32.920
_exptl_crystal_density_diffrn    6.544
_exptl_crystal_F_000             908
_refine_diff_density_max         2.621
_refine_diff_density_min         -2.168
_refine_diff_density_rms         0.377
_refine_ls_extinction_coef       0.0024(3)
_refine_ls_extinction_expression Fc^*^=kFc[1+0.001xFc^2^\l^3^/sin(2\q)]^-1/4^
_refine_ls_extinction_method     SHELXL
_refine_ls_goodness_of_fit_ref   1.149
_refine_ls_hydrogen_treatment    undef
_refine_ls_matrix_type           full
_refine_ls_number_parameters     41
_refine_ls_number_reflns         442
_refine_ls_number_restraints     0
_refine_ls_restrained_S_all      1.149
_refine_ls_R_factor_all          0.0373
_refine_ls_R_factor_gt           0.0319
_refine_ls_shift/su_max          0.000
_refine_ls_shift/su_mean         0.000
_refine_ls_structure_factor_coef Fsqd
_refine_ls_weighting_details
'w=1/[\s^2^(Fo^2^)+2.4391P] where P=(Fo^2^+2Fc^2^)/3'
_refine_ls_weighting_scheme      calc
_refine_ls_wR_factor_gt          0.0570
_refine_ls_wR_factor_ref         0.0591
_reflns_Friedel_coverage         0.000
_reflns_Friedel_fraction_full    .
_reflns_Friedel_fraction_max     .
_reflns_number_gt                405
_reflns_number_total             442
_reflns_threshold_expression     'I > 2\s(I)'
_cod_data_source_file            tso6m.cif
_cod_data_source_block           tsbo6m
_cod_original_cell_volume        534.7(6)
_cod_database_code               1559836
_shelx_space_group_comment
;
The symmetry employed for this shelxl refinement is uniquely defined
by the following loop, which should always be used as a source of
symmetry information in preference to the above space-group names.
They are only intended as comments.
;
_shelxl_version_number           2013-4
_shelx_res_file
;
TITL tsbo6m in P6(3)/m
CELL 0.71073   9.4927   9.4927   6.8521  90.000  90.000 120.000
ZERR    2.00   0.0039   0.0039   0.0047   0.000   0.000   0.000
LATT  1
SYMM -Y, X-Y, Z
SYMM -X+Y, -X, Z
SYMM -X, -Y, 0.5+Z
SYMM Y, -X+Y, 0.5+Z
SYMM X-Y, X, 0.5+Z
SFAC B O SI TB
UNIT 2 24 4 10
TEMP 298.150

L.S. 30
ACTA
BOND
FMAP 2
PLAN 20

WGHT    0.000000    2.439100
EXTI    0.002408
FVAR       0.11654
MOLE   1
TB1   4   -0.004169    0.758621    0.250000    10.50000    0.01101    0.01263 =
         0.00698    0.00000    0.00000    0.00436
TB2   4    0.333333    0.666667   -0.001719     0.27600    0.01469    0.01469 =
         0.00544    0.00000    0.00000    0.00734
SI3   3    0.373110    0.971255    0.250000    10.50000    0.01169    0.01154 =
         0.00446    0.00000    0.00000    0.00486
O1    2   -0.165818    0.326806    0.250000    10.50000    0.00471    0.03395 =
         0.00971    0.00000    0.00000    0.00528
O2    2    0.000000    1.000000    0.250000    10.16667    0.02538    0.02538 =
         0.09055    0.00000    0.00000    0.01269
O3    2    0.472989    0.872579    0.250000    10.50000    0.01965    0.01493 =
         0.02375    0.00000    0.00000    0.00938
O4    2    0.253809    0.908632    0.060499    11.00000    0.01807    0.02117 =
         0.00803    0.00828   -0.00381   -0.00427

MOLE   2
HKLF 4

REM  tsbo6m in P6(3)/m
REM R1 =  0.0319 for     405 Fo > 4sig(Fo)  and  0.0373 for all     442 data
REM     41 parameters refined using      0 restraints

END

WGHT      0.0000      2.4392

REM Highest difference peak  2.621,  deepest hole -2.168,  1-sigma level  0.377
Q1    1  -0.0176  0.6657  0.1692  11.00000  0.05    1.33
Q2    1   0.4540  0.9509  0.2500  10.50000  0.05    1.24
Q3    1   0.0885  0.8146  0.1525  11.00000  0.05    1.22
Q4    1  -0.2327  0.3073  0.2500  10.50000  0.05    1.22
Q5    1   0.0828  0.8629  0.1683  11.00000  0.05    1.15
Q6    1   0.3780  0.8014  0.2500  10.50000  0.05    1.14
Q7    1   0.6098  0.8918  0.2500  10.50000  0.05    1.11
Q8    1  -0.0880  0.7556  0.1691  11.00000  0.05    1.11
Q9    1   0.1194  0.7174  0.0104  11.00000  0.05    1.05
Q10   1  -0.1186  0.3016  0.2500  10.50000  0.05    1.00
Q11   1   0.1010  0.8937  0.0018  11.00000  0.05    0.93
Q12   1   0.3333  0.6667  0.2070  10.33333  0.05    0.92
Q13   1   0.4853  0.7616  0.0062  11.00000  0.05    0.89
Q14   1   0.0039  0.7974  0.0551  11.00000  0.05    0.89
Q15   1   0.0854  1.0003  0.1585  11.00000  0.05    0.87
Q16   1   0.2531  0.8488  0.1246  11.00000  0.05    0.86
Q17   1   0.4381  0.6838 -0.0957  11.00000  0.05    0.86
Q18   1  -0.1026  0.6807  0.1703  11.00000  0.05    0.78
Q19   1  -0.2310  0.1775  0.2500  10.50000  0.05    0.78
Q20   1   0.4144  0.7172  0.1955  11.00000  0.05    0.76
;
_shelx_res_checksum              26345
_shelx_hkl_file
;
   0   0  -1    8.89    3.60
   0   0  -2  800.55   19.41
   0   0   3   -2.18    1.96
   0   0   5   -0.35    2.79
   0   0   6  387.48   20.73
   0   0   7    0.36    1.92
   0   0   8 1039.51   20.44
   0   1  -1    7.89    1.62
   1   0  -1    4.47    2.63
  -1   1  -1    7.36    3.51
   1   0   1   -0.09    0.82
  -1   1   1    1.50    0.76
   0   1   1    3.07    0.61
   0   1  -2  451.74   11.77
   1   0  -2  453.03   12.22
  -1   1   2  430.65    9.93
   1   0   2  420.31   10.27
   0   1  -3   -2.06    4.83
   1   0  -3   10.73    5.95
  -1   1  -3    6.01    4.50
  -1   1   3   -0.14    1.87
   1   0   3    4.53    2.21
   0   1   3    3.74    1.93
   0   1  -4    7.60    5.41
   1   0  -4    2.77    4.64
  -1   1  -4   12.39    4.68
  -1   1   4    0.87    1.31
   0   1   4    0.61    1.53
   0   1  -5   18.82    8.63
  -1   0   5   -1.60    2.41
  -1   1   5    2.93    1.32
   0   1   5    3.21    2.15
   0  -1   6  200.05   12.50
  -1   0   6  216.10   13.12
   1  -1   6  217.01   18.94
  -1   1   6  206.50   12.40
   1   0   6  190.84   12.01
   0   1   6  185.85   13.57
   0  -1   7    1.94    1.68
  -1   0   7    2.69    1.80
   1  -1   7    3.16    1.46
  -1   1   7    4.68    2.24
   1   0   7    2.55    2.30
   0   1   7   -2.80    2.63
   0  -1   8    2.46    2.36
  -1   0   8    2.73    1.72
   1  -1   8   -1.23    3.20
  -1   1   8    2.45    2.09
   1   0   8    2.67    1.66
   0   1   8    4.62    1.48
  -2   1   0   36.29    1.71
   2  -1   0   40.38    1.27
   1   1   0   44.28    1.74
  -1   2   0   44.35    1.62
   1   1  -1  281.03    6.14
  -1   2  -1  278.86    6.56
   2  -1  -1  280.26    6.72
   2  -1   1  254.18    6.74
   1   1   1  260.91    5.70
  -1   2   1  263.77    5.43
   2  -1   2  786.71   20.34
   1   1   2  815.83   16.32
  -1   2   2  799.99   15.68
   1   1  -3  415.95   12.63
  -1   2  -3  469.71   15.02
  -2   1   3  336.76   12.28
   2  -1   3  364.25   13.88
   1   1   3  359.06    9.54
  -1   2   3  355.78    8.95
   1   1  -4   62.99    6.44
  -1   2  -4   52.42    7.15
  -2   1   4   58.81   11.94
   2  -1   4   52.66   11.56
  -1   2   4   43.47    8.22
   1   1  -5  130.97   10.14
  -1   2  -5  146.57   11.81
  -2   1   5  134.93   20.90
   2  -1   5  108.21    8.14
  -1   2   5  107.08    7.07
   1   1   5  105.12    7.32
   1   1  -6  648.46   36.03
  -1   2  -6  629.15   34.65
  -2   1   6  483.60   26.48
   2  -1   6  473.81   23.06
   1   1   6  436.20   20.79
  -1   2   6  424.56   21.70
  -1  -1   7  123.86    8.96
   1  -2   7  140.47   31.37
  -2   1   7  108.85   27.24
   2  -1   7  109.96   11.43
   1   1   7  112.35   19.29
  -1   2   7   97.99    7.52
   1  -2   8   26.10    8.87
  -1  -1   8   17.81    6.94
  -2   1   8   20.02    5.68
   1   1   8   29.48    4.73
  -1   2   8   18.76    4.72
   2   0   0  414.86    7.88
   0   2   0  406.16    8.12
  -2   2   0  405.49    7.65
   0   2  -1   -0.35    1.18
   2   0  -1    3.58    1.56
  -2   2  -1   -0.83    2.31
   2   0   1    2.04    0.57
  -2   2   1    2.61    0.44
   0   2  -2   32.28    3.05
   2   0  -2   29.87    2.72
  -2   2  -2   30.70    5.41
   2   0   2   25.03    1.83
  -2   2   2   29.68    1.84
   0   2   2   30.85    5.41
   0   2  -3   28.47    3.59
   2   0  -3   32.51    4.56
  -2   2  -3   36.97    6.75
   2   0   3   28.59    5.43
  -2   2   3   24.69    6.36
   0   2   3   30.19    6.73
   0   2  -4  247.15   11.28
   2   0  -4  237.59   11.72
  -2   2  -4  256.01   13.49
  -2   2   4  197.47   11.44
   2   0   4  184.06    7.59
   0   2   4  180.07    6.82
   0   2  -5    9.90    5.70
   2   0  -5   14.99    6.35
   2  -2   5    6.99    1.94
  -2   2   5    2.63    1.51
   2   0   5    1.76    3.20
   0   2   5    5.48    0.85
   0   2  -6    5.55    6.37
  -2   0   6    3.94    1.77
   2  -2   6    2.14    3.22
   2   0   6    4.78    2.91
  -2   2   6    2.21    1.79
   0   2   6   -0.86    2.79
   0  -2   7    5.09    2.05
  -2   0   7    4.83    2.39
   2  -2   7   -2.23    3.54
   2   0   7    0.71    3.67
  -2   2   7    5.74    2.38
   0   2   7   10.52    2.70
   0  -2   8   85.43   23.48
  -2   0   8   74.18   26.75
   2  -2   8   76.34   22.03
  -2   2   8   67.06   15.30
   0   2   8   71.59   17.43
   3  -2   0  545.86   10.31
   2   1   0  550.22   10.65
  -1   3   0  564.27   10.95
   2   1  -1  905.24   17.16
  -1   3  -1  975.85   18.85
  -3   2  -1 1006.29   21.98
  -3   2   1  928.15   16.47
   2   1   1  877.21   16.62
  -1   3   1  832.17   15.70
   2   1  -2    0.99    1.56
  -3   2  -2    5.24    4.71
  -3   2   2    2.46    0.48
   2   1   2    2.34    0.96
  -1   3   2    2.51    1.26
   2   1  -3  803.40   18.77
   3  -2   3  655.27   18.93
  -3   2   3  738.68   15.96
   2   1   3  733.82   16.27
  -1   3   3  711.55   16.72
  -1   3  -4  385.83   14.40
   2   1  -4  337.44   12.24
   3  -2   4  312.20   16.94
  -3   2   4  313.46   15.67
   2   1   4  301.86    9.52
  -1   3   4  291.43    8.68
  -1   3  -5  625.55   33.52
   2   1  -5  568.14   29.92
   3  -2   5  439.30   23.52
  -3   2   5  454.32   22.94
   2   1   5  406.49   34.80
  -1   3   5  412.55   25.18
  -1   3  -6   -3.86    6.61
   2   1  -6    9.08    4.77
   3  -2   6    9.98    3.40
  -3   2   6    7.52    1.53
   2   1   6    8.96    2.95
  -1   3   6    8.95    1.81
  -1   3  -7  369.63   27.34
  -2  -1   7  263.05   18.33
   3  -2   7  268.84   41.57
  -3   2   7  246.80   16.78
  -1   3   7  236.08   16.35
   1  -3   8  121.97   37.67
  -2  -1   8  119.26   29.26
   3  -2   8  130.34   17.45
  -3   2   8   92.71   28.53
   2   1   8  102.60   27.90
  -1   3   8  101.99   20.85
   3  -1   0  360.75    6.74
   1   2   0  370.72    7.70
   1   2  -1  687.20   13.59
  -2   3  -1  666.41   13.54
   3  -1  -1  669.48   12.68
   3  -1   1  620.86   12.68
   1   2   1  627.27   12.36
  -2   3   1  619.86   11.69
   1   2  -2   41.84    2.61
  -2   3  -2   42.18    3.20
   3  -1  -2   40.47    3.48
   3  -1   2   37.64    7.69
   1   2   2   34.61    1.98
  -2   3   2   37.40    1.74
   1   2  -3  640.27   15.97
  -2   3  -3  659.17   18.45
   3  -1  -3  656.73   17.25
   3  -1   3  508.41   13.95
  -2   3   3  542.93   11.84
   1   2   3  533.45   12.95
   1   2  -4  375.72   12.91
  -2   3  -4  423.94   15.99
   3  -1  -4  428.31   15.44
   3  -1   4  304.04   21.66
  -2   3   4  298.61    8.55
   1   2  -5  408.88   23.18
  -3   1   5  300.19   16.33
   3  -1   5  292.02   17.25
  -2   3   5  299.23   17.62
   1   2   5  288.05   24.96
   1   2  -6    5.30    5.79
  -2   3  -6    1.27    7.33
  -3   1   6    3.55    2.52
   3  -1   6   -0.65    3.24
  -2   3   6   -1.62    2.51
   1   2   6    4.39    2.63
   1   2  -7  333.14   26.22
   2  -3   7  263.05   18.70
  -3   1   7  234.60   16.82
   3  -1   7  229.03   16.44
  -2   3   7  208.47   15.70
   1   2   7  197.21   17.63
  -1  -2   8  170.52   21.77
   2  -3   8  176.71   29.52
  -3   1   8  144.34   18.44
   3  -1   8  135.62   22.85
  -2   3   8  132.58   32.71
   1   2   8  143.96   21.96
   3   0   0  960.79   17.64
  -3   3   0  987.46   18.11
   0   3  -1    5.65    1.04
   3   0  -1    6.08    0.67
  -3   3  -1    8.46    2.12
   3   0   1    5.13    0.93
  -3   3   1    7.60    1.02
   0   3  -2  147.76    5.05
   3   0  -2  147.59    4.88
  -3   3  -2  149.68    7.75
   3   0   2  122.73    4.19
  -3   3   2  130.35    3.39
   0   3   2  124.54    4.05
   0   3  -3    7.29    2.28
   3   0  -3    4.88    2.58
  -3   3  -3   10.16    5.38
   3   0   3    2.94    1.34
  -3   3   3    3.45    0.95
   0   3  -4  640.47   18.36
   3   0  -4  632.41   18.94
  -3   3  -4  664.22   22.43
   3   0   4  502.66   14.27
  -3   3   4  506.69   12.14
   0   3   4  484.02   13.33
   0   3  -5    2.38    5.14
   3   0  -5    6.88    5.45
  -3   3  -5    8.10    8.23
   3   0   5    1.12    1.57
  -3   3   5    0.09    1.24
   0   3   5    4.72    1.78
   0   3  -6   38.29    7.17
   3   0  -6   36.44    6.69
   3  -3   6   36.87    6.17
   3   0   6   28.13    5.26
  -3   3   6   39.41    5.59
   0   3   6   37.59    6.79
   0   3  -7   -2.39    6.19
  -3   0   7    1.76    1.60
   3  -3   7    6.60    3.95
   3   0   7    1.33    2.79
  -3   3   7    3.55    1.49
   0   3   7    1.21    1.15
   0  -3   8  224.49   28.40
  -3   0   8  242.40   30.44
   3  -3   8  206.17   31.87
   3   0   8  169.45   25.89
  -3   3   8  160.73   33.16
   0   3   8  169.13   36.00
   3   1   0   43.68    1.94
  -1   4   0   40.82    2.02
  -4   3   0   41.57    2.60
   3   1  -1   28.75    1.82
  -1   4  -1   30.51    2.17
  -4   3  -1   24.52    3.39
   3   1   1   31.02    4.93
  -1   4   1   30.33    5.73
  -4   3   1   20.63    0.56
   3   1  -2  304.89    7.79
  -4   3  -2  290.36   12.65
  -4   3   2  266.91    5.56
   3   1   2  257.52    7.06
  -1   4   2  260.21    6.41
   3   1  -3    2.23    1.98
  -4   3  -3    7.43    5.95
  -4   3   3    1.29    0.63
   3   1   3   -0.30    1.60
  -1   4   3    1.61    1.42
  -1   4  -4   11.57    3.45
   3   1  -4   13.81    3.99
   4  -3   4   12.84    3.08
  -4   3   4    8.83    2.44
   3   1   4   10.84    2.06
  -1   4   4    8.32    2.23
  -1   4  -5   14.87    4.95
   3   1  -5   23.47    5.27
   4  -3   5   14.88    3.76
  -4   3   5   13.99    3.75
   3   1   5   13.20    2.55
  -1   4   5   12.96    3.64
  -1   4  -6  134.03   11.75
   3   1  -6   89.55    9.38
   4  -3   6   95.36   21.70
  -4   3   6   73.33    6.93
   3   1   6   68.76   17.50
  -1   4   6   70.13   12.01
  -1   4  -7   11.73    7.27
   3   1  -7   -4.59    5.31
   4  -3   7    4.38    3.37
   3   1   7    2.43    2.02
  -1   4   7    4.36    1.89
  -1   4  -8    3.14    7.57
  -3  -1   8    1.67    1.96
   4  -3   8   -0.10    3.74
  -4   3   8   -0.49    2.53
   3   1   8    3.63    3.07
  -1   4   8    4.11    2.93
   4  -2   0   31.92    0.94
   2   2   0   31.81    1.76
  -2   4   0   34.34    1.78
   2   2  -1   69.86    4.99
  -2   4  -1   66.70    4.86
   4  -2   1   63.57    3.87
   2   2   1   62.39    2.56
  -2   4   1   65.50    4.51
   2   2  -2 1129.86   22.54
  -2   4  -2 1135.42   23.51
  -4   2   2  974.58   19.59
   4  -2   2 1006.58   21.48
   2   2   2  976.58   19.28
  -2   4   2  970.43   18.58
   2   2  -3   35.57    3.15
  -2   4  -3   33.42    4.24
  -4   2   3   30.74    6.30
   4  -2   3   40.83    8.90
   2   2   3   36.60    6.71
  -2   4   3   30.95    2.25
   2   2  -4   21.80    4.56
  -2   4  -4   20.71    4.38
  -4   2   4   14.16    3.09
   4  -2   4   20.67    4.12
   2   2   4   15.08    3.37
  -2   4   4   16.88    3.05
   2   2  -5   48.57    7.60
  -4   2   5   37.14    7.07
   4  -2   5   49.28    8.64
   2   2   5   39.34    7.70
  -2   4   5   35.72    8.01
   2   2  -6  567.74   28.96
  -4   2   6  433.66   20.55
   4  -2   6  419.92   21.84
   2   2   6  378.41   19.60
  -2   4   6  394.71   19.98
   2   2  -7   32.03    8.61
  -2   4  -7   25.14    9.26
  -4   2   7   17.95    4.35
   4  -2   7   14.46    2.99
  -2   4   7   16.47    4.18
  -2  -2   8    4.91    1.92
   2  -4   8    7.87    3.30
   4  -2   8    5.66    2.62
  -4   2   8    5.43    1.50
   2   2   8    1.83    1.57
  -2   4   8    8.71    3.64
   4  -1   0  136.39    3.09
   1   3   0  142.58    4.11
  -3   4   0  133.06    3.46
   1   3  -1    5.15    1.15
   4  -1  -1    1.99    0.55
  -3   4  -1   -0.09    1.28
   4  -1   1    1.34    0.88
   1   3   1    4.16    1.63
  -3   4   1    1.40    0.67
   1   3  -2  424.13   10.37
  -3   4  -2  384.40   10.88
   4  -1  -2  381.03    9.44
   4  -1   2  346.08    9.68
   1   3   2  348.78    8.24
  -3   4   2  352.93    7.48
   1   3  -3    4.79    2.06
  -3   4  -3   10.70    5.42
   4  -1  -3   -1.83    2.92
   4  -1   3   -1.45    1.71
  -3   4   3    0.94    0.85
   1   3   3    3.92    1.78
   1   3  -4    7.75    3.61
  -3   4  -4   14.33    5.91
   4  -1  -4    5.56    4.10
   4  -1   4    6.53    1.30
  -3   4   4    6.74    1.27
   1   3  -5    8.89    4.76
  -3   4  -5   33.78   11.59
   4  -1   5    2.48    1.96
  -3   4   5   -0.90    1.86
   1   3   5    3.11    2.00
   1   3  -6  330.69   20.28
  -3   4  -6  312.65   19.25
  -4   1   6  251.24   15.61
  -3   4   6  218.55   11.34
   1   3   6  198.66   11.04
   1   3  -7    5.45    6.51
   3  -4   7    6.37    2.13
   4  -1   7    4.30    2.47
  -3   4   7    4.59    0.77
   1   3   7    1.16    2.62
   1   3  -8    2.61    7.14
   3  -4   8    4.48    2.15
  -4   1   8    2.31    1.72
   4  -1   8    2.51    2.89
  -3   4   8    3.02    1.72
   1   3   8   -0.98    3.41
   4   0   0  425.50    8.61
  -4   4   0  389.66    8.14
   4   0  -1    1.39    0.62
   0   4  -1    1.84    1.12
  -4   4  -1    5.59    1.74
   4   0   1    1.46    0.67
  -4   4   1    1.98    0.42
   0   4  -2 1482.46   29.20
   4   0  -2 1511.30   94.03
  -4   4  -2 1503.10   94.93
   4   0   2 1270.43   24.40
  -4   4   2 1244.60   22.69
   0   4   2 1188.34   22.93
   0   4  -3   -1.02    2.30
   4   0  -3    4.57    1.74
  -4   4  -3    3.99    4.80
   4   0   3    3.72    1.30
  -4   4   3    4.47    0.91
   0   4   3    2.13    1.59
   0   4  -4  320.41   17.62
   4   0  -4  333.91   18.35
  -4   4  -4  346.70   20.91
   4   0   4  259.33   14.18
  -4   4   4  243.15   11.95
   0   4   4  252.92   12.94
   0   4  -5    2.86    4.63
   4   0  -5    1.08    4.31
  -4   4  -5    3.91    8.34
   4   0   5    2.99    1.58
  -4   4   5    1.10    1.19
   0   4   5    1.36    2.44
   0   4  -6  882.35   41.32
   4   0  -6  874.62   40.83
   4   0   6  686.38   31.02
  -4   4   6  644.90   28.27
   0   4   6  570.49   25.38
   0   4  -7   -3.00    6.69
  -4   0   7    3.36    1.87
   4  -4   7    3.05    3.14
   4   0   7    2.42    3.03
  -4   4   7    1.45    0.87
   0   4  -8  160.11   23.16
  -4   0   8  106.88   33.24
   4  -4   8  121.49   35.52
   4   0   8   91.23   26.15
  -4   4   8   84.89   26.36
   0   4   8  110.84   16.57
   4   1   0  868.57   16.80
  -1   5   0  872.51   17.35
  -5   4   0  893.22   19.13
   4   1  -1   16.26    1.42
  -1   5  -1   16.02    1.91
  -5   4  -1   15.64    3.60
   4   1   1   12.52    1.37
  -1   5   1   15.16    3.06
   4   1  -2   21.59    1.80
  -1   5  -2   31.46    3.14
  -5   4  -2   14.38    4.75
   4   1   2   16.76    1.81
  -1   5   2   17.77    1.83
  -5   4   2   18.70    0.81
   4   1  -3   22.84    2.98
  -5   4  -3   17.43    6.30
  -5   4   3   19.48    3.85
   4   1   3   23.21    4.15
  -1   5   3   24.44    4.53
   4   1  -4  620.04   30.40
   5  -4   4  500.83   25.77
  -5   4   4  544.17   25.02
   4   1   4  564.19   31.53
  -1   5   4  548.06   25.77
  -1   5  -5   -0.26    4.73
   4   1  -5    8.13    4.71
   5  -4   5   -1.55    3.78
  -5   4   5    6.65    1.70
   4   1   5    2.71    1.79
  -1   5   5    5.40    2.73
  -1   5  -6   12.19    6.75
   4   1  -6   25.83    6.00
   5  -4   6   13.60    4.29
  -5   4   6   13.40    4.26
   4   1   6   13.85    4.00
  -1   5   6   20.64    3.53
  -1   5  -7   10.79    6.83
   4   1  -7    4.42    5.45
   5  -4   7    5.14    4.56
  -5   4   7    4.49    2.63
   4   1   7    3.55    3.54
  -1   5   7    3.75    2.09
  -1   5  -8  350.50   44.64
  -4  -1   8  221.06   32.12
   5  -4   8  232.87   29.06
   4   1   8  190.80   34.19
  -1   5   8  189.99   29.53
   5  -3   0  171.86    3.26
   3   2   0  187.48    4.99
  -2   5   0  191.73    5.02
   3   2  -1  437.39    9.70
  -2   5  -1  437.56   10.01
   5  -3   1  369.88    8.57
   3   2   1  397.35    8.82
  -2   5   1  394.51    8.56
   3   2  -2   49.18    8.52
  -2   5  -2   32.97    2.94
   5  -3   2   31.54    5.88
  -5   3   2   30.34    2.14
   3   2   2   30.83    2.00
  -2   5   2   33.15    2.02
   3   2  -3  455.12   12.23
  -2   5  -3  441.85   13.08
   5  -3   3  368.16   15.90
  -5   3   3  371.65    8.35
   3   2   3  349.79    9.24
  -2   5   3  368.90    8.95
   3   2  -4  123.51    9.17
  -2   5  -4  137.86   10.10
   5  -3   4  102.75   19.87
  -5   3   4   93.65    7.54
   3   2   4   99.04    6.60
  -2   5   4  105.39    7.89
   3   2  -5  241.37   14.49
  -2   5  -5  256.52   15.93
   5  -3   5  219.10   39.55
  -5   3   5  194.97   11.96
   3   2   5  197.52   11.04
  -2   5   5  189.53    9.66
   3   2  -6    6.00    5.20
   5  -3   6    5.73    3.20
  -5   3   6    6.57    1.78
   3   2   6   -1.80    3.40
  -2   5   6    8.23    2.99
  -2   5  -7  211.16   18.26
   3   2  -7  228.56   19.20
   5  -3   7  146.30   27.95
  -5   3   7  127.23   13.85
   3   2   7  145.67   12.10
  -2   5   7  145.44   11.14
  -2   5  -8   55.58   13.03
   3   2  -8   71.22   12.52
   5  -3   8   33.70    7.79
   3   2   8   37.63    9.20
  -2   5   8   35.56   11.26
   5  -2   0  328.48    6.44
   2   3   0  320.57    7.50
  -3   5   0  318.38    7.20
   2   3  -1  401.54    9.24
  -3   5  -1  398.48    9.37
   5  -2  -1  372.29    7.43
   5  -2   1  339.85    7.57
   2   3   1  347.26    8.06
  -3   5   1  345.31    7.39
   2   3  -2    2.74    1.09
  -3   5  -2    1.02    1.58
   5  -2  -2    2.80    1.29
   5  -2   2    2.25    0.89
   2   3   2    5.92    1.56
  -3   5   2    0.33    0.69
   5  -2   3  174.86    8.01
   2   3   3  194.83    6.27
  -3   5   3  186.21    5.30
   2   3  -4  244.24   13.83
  -3   5  -4  226.22   14.59
  -5   2   4  188.77   12.95
   5  -2   4  180.44   15.54
   2   3   4  171.02    9.45
  -3   5   4  179.89    9.34
   2   3  -5  264.63   15.45
  -3   5  -5  316.03   18.86
  -5   2   5  228.54   12.62
   5  -2   5  209.49   13.04
   2   3   5  222.54   11.56
  -3   5   5  229.14   10.92
   2   3  -6    4.33    5.33
  -3   5  -6   -1.00    5.98
  -5   2   6    1.24    0.89
   5  -2   6    0.26    2.26
  -3   5   6    0.93    1.82
   2   3  -7  116.73   12.32
  -3   5  -7  148.86   16.12
  -5   2   7   77.23   24.39
   5  -2   7   78.65   16.13
   2   3   7  101.62    9.09
  -3   5   7   68.54   13.50
   2   3  -8  113.95   18.01
   3  -5   8   78.02   25.76
   5  -2   8   49.03   13.94
   2   3   8   48.15   15.47
  -3   5   8   47.09   17.01
   5  -1   0 1003.53   18.53
   1   4   0  993.96   19.61
  -4   5   0 1010.02   19.37
   1   4  -1    5.18    1.24
   5  -1  -1    5.94    0.77
  -4   5  -1    5.27    1.42
   5  -1   1    5.48    0.71
   1   4   1    6.09    1.22
  -4   5   1    4.93    0.69
   1   4  -2    0.83    1.12
   5  -1  -2    1.56    1.26
  -4   5  -2    3.73    3.06
   5  -1   2    0.30    0.62
   1   4   2    1.58    1.90
  -4   5   2    0.79    0.57
   1   4  -3   19.85    2.87
  -4   5  -3   26.32    4.70
   5  -1  -3   17.55    3.40
   5  -1   3   18.48    3.18
  -4   5   3   15.55    3.31
   1   4  -4  867.21   41.42
  -4   5  -4 1001.96   49.45
   5  -1  -4  907.23   43.70
   5  -1   4  722.32   35.56
  -4   5   4  702.82   32.09
   1   4   4  688.35   32.15
   1   4  -5    3.60    4.35
  -4   5  -5   -1.95    5.89
   5  -1  -5    5.67    3.94
  -4   5   5    0.89    2.34
   1   4   5    4.74    2.82
   1   4  -6    5.20    5.72
  -4   5  -6    7.90    8.97
  -5   1   6    6.73    2.49
   5  -1   6   -6.93    3.76
  -4   5   6    2.14    1.22
   1   4   6    0.22    1.95
   1   4  -7    7.99    6.70
   4  -5   7    5.21    2.31
  -5   1   7    3.95    2.18
   5  -1   7    5.29    3.24
  -4   5   7    6.56    3.09
   1   4   7   12.01    4.54
   1   4  -8  442.61   54.51
   4  -5   8  336.12   40.86
   5  -1   8  306.74   43.21
  -4   5   8  257.55   47.17
   1   4   8  290.55   35.31
   5   0   0   98.40    2.99
  -5   5   0   89.48    4.36
   0   5  -1    5.60    1.39
   5   0  -1    4.66    0.80
  -5   5  -1    7.87    2.02
   5   0   1    6.64    1.26
   0   5   1    4.84    1.38
  -5   5   1    4.38    0.58
   0   5  -2  885.69   19.26
   5   0  -2  844.93   17.42
  -5   5  -2  867.05   21.94
   5   0   2  707.68   14.70
   0   5   2  712.66   15.08
  -5   5   2  671.91   12.70
   0   5  -3    7.02    2.35
   5   0  -3   10.48    2.44
  -5   5  -3   -1.30    4.08
   5   0   3    3.43    1.07
  -5   5   3    4.44    0.82
   0   5   3    2.22    1.67
   0   5  -4  128.56    9.43
   5   0  -4  101.04    7.71
  -5   5  -4  104.16   10.21
   5   0   4   86.43   16.73
  -5   5   4   90.85    5.44
   0   5   4   86.07    5.89
   0   5  -5   18.04    5.79
   5   0  -5    5.54    4.07
  -5   5  -5   16.43    5.64
   5   0   5    2.94    1.36
  -5   5   5    3.60    0.88
   0   5   5    5.62    2.20
   0   5  -6  436.37   29.90
   5   0  -6  459.26   31.12
   5  -5   6  307.36   31.22
   5   0   6  319.88   31.74
  -5   5   6  325.96   28.65
   0   5   6  300.79   19.57
   0   5  -7   12.90    9.45
  -5   0   7   -0.82    2.53
   5  -5   7    4.44    2.06
   5   0   7    0.83    3.62
  -5   5   7    3.60    1.68
   0   5   7   -2.62    3.09
   5   1   0  195.00    5.19
  -1   6   0  188.12    5.63
   5   1  -1  293.91    7.22
  -1   6  -1  303.59    8.23
  -6   5  -1  260.47   10.70
   5   1   1  272.43    6.81
  -1   6   1  273.54    7.26
  -1   6  -2    6.17    2.29
   5   1  -2    6.21    1.69
  -6   5  -2    1.93    3.98
   5   1   2    7.39    1.45
  -1   6   2    3.39    0.92
   5   1  -3  269.19   14.14
  -6   5  -3  227.11   15.60
   5   1   3  207.05   10.62
  -1   6   3  208.98   10.66
   5   1  -4  208.65   12.45
   6  -5   4  129.29   11.14
   5   1   4  144.66    8.54
  -1   6   4  158.63    8.92
  -1   6  -5  230.81   14.27
   5   1  -5  203.53   12.73
   6  -5   5  158.23   29.39
   5   1   5  171.04   10.47
  -1   6   5  177.97    9.48
  -1   6  -6    8.56    5.81
   5   1  -6   13.01    5.64
   6  -5   6    1.18    1.80
   5   1   6    1.14    2.00
  -1   6   6    2.75    2.58
  -1   6  -7  156.40   22.92
   5   1  -7  141.45   19.62
   6  -5   7   80.97   29.85
   5   1   7   86.86   23.67
  -1   6   7   96.16   12.77
   4   2   0  236.13    6.07
  -2   6   0  232.69    6.20
   4   2  -1   13.80    1.56
  -2   6  -1   11.47    1.79
   6  -4   1   13.76    1.79
   4   2   1   11.53    2.74
  -2   6   1   13.28    1.93
   4   2  -2   34.26    5.43
  -2   6  -2   25.28    2.83
   6  -4   2   20.39    5.93
   4   2   2   22.47    2.07
  -2   6   2   26.02    4.68
   4   2  -3   10.76    2.27
  -2   6  -3   11.75    2.54
   6  -4   3   14.05    3.35
   4   2   3   10.68    2.32
  -2   6   3    9.17    1.57
   4   2  -4  275.79   15.36
  -2   6  -4  280.10   15.98
   6  -4   4  223.83   14.44
   4   2   4  213.83   11.58
  -2   6   4  220.70   11.39
  -2   6  -5   16.04    6.14
   4   2  -5   14.08    3.94
   6  -4   5   15.99    4.38
  -6   4   5   11.23    2.98
   4   2   5   18.59    5.23
  -2   6   5   13.99    2.93
  -2   6  -6    6.51    8.36
   4   2  -6    4.99    4.91
   6  -4   6    5.11    1.90
   4   2   6    2.97    2.29
  -2   6   6    2.59    2.31
   4   2  -7    2.42    5.75
   6  -4   7    5.33    2.75
   4   2   7    7.21    3.49
  -2   6   7    2.79    2.89
   3   3   0   11.22    1.59
  -3   6   0   10.91    1.21
   3   3  -1  564.13   12.36
  -3   6  -1  577.57   12.82
   6  -3   1  517.40   10.34
   3   3   1  544.11   12.08
  -3   6   1  519.54   11.02
   3   3  -2  663.66   14.95
  -3   6  -2  614.46   14.76
   6  -3   2  538.59   12.61
   3   3   2  527.04   11.83
  -3   6   2  531.80   11.33
   3   3  -3  417.39   20.54
  -3   6  -3  401.28   20.53
   6  -3   3  301.09   19.49
   3   3   3  314.40   15.30
  -3   6   3  326.03   15.44
   3   3  -4   15.34    4.04
  -3   6  -4   15.30    3.84
   6  -3   4   12.20    2.69
  -6   3   4    9.19    1.76
   3   3   4   14.42    3.56
  -3   6   4   17.31    2.51
   3   3  -5  420.67   21.23
  -3   6  -5  439.20   22.91
  -6   3   5  323.08   16.22
   6  -3   5  323.19   33.00
   3   3   5  335.71   16.14
  -3   6   5  327.27   14.85
   3   3  -6  484.92   32.70
  -3   6  -6  508.93   19.52
  -6   3   6  284.47   33.86
   6  -3   6  369.46   25.17
   3   3   6  368.57   24.12
  -3   6   6  367.40   22.90
   3   3  -7  257.90   32.90
  -3   6  -7  304.61   39.03
   6  -3   7  169.08   21.62
   3   3   7  162.46   20.72
  -3   6   7  177.68   21.74
   6  -2   0  356.79    7.00
   2   4   0  360.56    8.69
  -4   6   0  356.23    8.17
   2   4  -1    2.85    1.08
  -4   6  -1    3.32    1.31
   6  -2   1    3.46    0.83
   2   4   1    2.94    0.66
  -4   6   1    3.30    0.78
   2   4  -2    7.91    1.25
  -4   6  -2    9.46    1.84
   6  -2  -2    9.69    1.89
   6  -2   2    7.11    1.20
   2   4   2    5.38    1.67
  -4   6   2    6.72    0.99
   2   4  -3   15.83    3.33
  -4   6  -3   11.15    3.53
   6  -2  -3   14.22    3.17
   6  -2   3   11.64    2.89
   2   4   3   14.29    2.53
  -4   6   3   13.25    1.71
   2   4  -4  298.18   16.52
  -4   6  -4  257.55   15.82
  -6   2   4  193.90   16.83
   6  -2   4  212.16   12.54
   2   4   4  208.86   11.10
  -4   6   4  217.68   10.87
   2   4  -5   -0.54    4.08
  -4   6  -5   -4.82    5.51
  -6   2   5   -0.32    1.54
   6  -2   5   -1.82    3.26
  -4   6   5   -0.89    1.51
   2   4  -6    9.22    5.64
  -4   6  -6   19.22    6.61
  -6   2   6    5.37    2.04
   6  -2   6    6.36    3.84
  -4   6   6    5.79    1.99
   2   4  -7   -0.33    5.93
  -4   6  -7    2.97    6.31
   6  -2   7   -4.46    4.10
  -4   6   7    8.27    3.15
   2   4   7    6.33    3.73
   6  -1   0   74.53    5.03
   1   5   0   75.06    5.53
  -5   6   0   76.67    3.02
   1   5  -1  168.56    5.53
   6  -1  -1  178.66    4.55
  -5   6  -1  156.10    5.60
   6  -1   1  150.81    4.14
   1   5   1  149.22    5.00
  -5   6   1  141.54    3.75
   1   5  -2   49.67    9.14
   6  -1  -2   37.16    3.31
  -5   6  -2   41.40    4.75
   6  -1   2   31.99    4.62
  -5   6   2   32.09    3.97
   1   5  -3  126.42    7.91
   6  -1  -3  127.96    8.17
  -5   6  -3  116.29    9.06
   6  -1   3  103.38    7.13
  -5   6   3   96.10    4.98
   1   5  -4   67.94    6.00
  -5   6  -4   57.73    8.27
   6  -1  -4   67.47    7.32
   6  -1   4   47.99    8.41
   1   5   4   57.72    5.52
  -5   6   4   43.80    8.11
   6  -1  -5  149.47   11.08
   6  -1   5   98.67   21.23
  -5   6   5   96.24    5.57
   1   5   5   93.96    6.15
   1   5  -6   18.83    5.06
  -5   6  -6   19.19    7.35
  -6   1   6   11.62    3.32
   6  -1   6   15.32    3.83
  -5   6   6   12.51    4.18
   1   5   6   17.80    3.65
   1   5  -7  102.14   16.45
   5  -6   7   56.23   16.15
   6  -1   7   48.69   13.81
   1   5   7   66.85   10.24
   6   0   0   51.82    4.18
   0   6   0   51.10    4.46
  -6   6   0   53.99    4.76
   6   0  -1    3.44    1.38
  -6   6  -1    4.39    1.72
   6   0   1    1.39    0.91
   0   6   1    3.44    2.10
  -6   6   1    2.25    0.63
   0   6  -2  350.62   17.51
   6   0  -2  366.98   17.42
  -6   6  -2  371.89   20.29
   6   0   2  279.38   13.43
   0   6   2  302.50   14.75
   0   6  -3    3.40    2.87
   6   0  -3    2.01    1.77
  -6   6  -3   14.43    6.34
   6   0   3    0.58    1.60
   0   6   3    2.78    2.57
   0   6  -4   60.63    6.12
   6   0  -4   62.07    5.82
  -6   6  -4   49.88    7.29
   6   0   4   47.62    4.41
   0   6   4   53.59    4.43
   0   6  -5    7.52    4.55
   6   0  -5    1.34    3.74
  -6   6  -5   -1.89    5.29
   6   0   5    2.17    1.91
   0   6   5    5.47    1.94
   0   6  -6  279.02   21.35
   6   0  -6  282.29   21.11
   6  -6   6  190.62   15.80
   6   0   6  231.20   17.21
   0   6   6  184.84   12.96
   6  -6   7    5.96    2.91
   6   0   7   -4.26    4.07
   0   6   7   -3.22    2.82
   6   1   0  341.27   16.24
  -1   7   0  347.34   16.69
   6   1  -1  292.28   13.93
  -1   7  -1  305.96   15.14
  -7   6  -1  271.74   16.35
   6   1   1  272.29   13.19
  -1   7   1  268.54   14.37
  -1   7  -2   25.16    4.34
   6   1  -2   25.59    2.89
  -7   6  -2   22.71    6.56
   6   1   2   16.33    2.27
  -1   7   2   21.14    2.45
  -1   7  -3  267.44   13.56
   6   1  -3  279.89   13.52
   6   1   3  211.72    9.95
  -1   7   3  219.99   10.36
   6   1  -4  282.45   14.57
   7  -6   4  185.78   18.35
   6   1   4  223.30   11.25
  -1   7   4  232.03   11.16
  -1   7  -5  247.01   18.87
   6   1  -5  229.17   16.90
   7  -6   5  153.38   32.94
   6   1   5  161.06   23.37
  -1   7   5  170.59   11.64
  -1   7  -6   17.83    5.07
   6   1  -6   18.39    5.94
   7  -6   6   10.42    2.86
   6   1   6   17.19    4.85
  -1   7   6    7.68    1.32
  -1   7  -7  188.97   25.41
   7  -6   7  102.88   32.60
   6   1   7  113.69   34.69
  -1   7   7  116.01   14.88
   5   2   0  115.23    6.14
  -2   7   0  114.27    6.39
   5   2  -1  256.06   12.49
  -2   7  -1  246.10   12.31
   7  -5   1  210.97   13.54
   5   2   1  236.21   11.52
  -2   7   1  238.77   11.74
   5   2  -2  408.26   19.54
  -2   7  -2  404.01   19.96
   7  -5   2  315.41   20.25
   5   2   2  322.64   15.57
  -2   7   2  327.49   15.68
   5   2  -3  266.64   14.00
  -2   7  -3  245.29   13.51
   7  -5   3  245.27   21.12
   5   2   3  198.87   11.80
  -2   7   3  207.95   10.69
  -2   7  -4   69.07    6.79
   5   2  -4   56.63    5.13
   7  -5   4   40.83    9.12
   5   2   4   51.68    4.28
  -2   7   4   49.05    4.03
  -2   7  -5  173.79   14.28
   5   2  -5  169.11   13.50
   7  -5   5  109.43   25.91
   5   2   5  131.78   10.19
  -2   7   5  130.68    9.30
  -2   7  -6  216.21   18.00
   5   2  -6  212.07   17.45
   7  -5   6  143.90   11.81
   5   2   6  178.55   13.47
  -2   7   6  125.24   25.62
   5   2  -7  125.43   18.16
   7  -5   7   85.81   24.82
   5   2   7  111.48   15.87
  -2   7   7  103.05   13.66
   4   3   0   48.33    9.01
  -3   7   0   44.81    3.73
   4   3  -1  105.58    5.88
  -3   7  -1   97.94    6.48
   7  -4   1   88.72    5.53
   4   3   1   95.75    5.60
  -3   7   1   93.17    5.18
   4   3  -2   62.40    4.31
  -3   7  -2   59.81    5.55
   7  -4   2   53.94   10.22
   4   3   2   52.70    4.86
  -3   7   2   48.03    3.88
   4   3  -3  135.29    8.40
  -3   7  -3  128.61    8.81
   7  -4   3  104.43    9.70
   4   3   3  103.22    6.24
  -3   7   3  104.41    5.94
   4   3  -4   39.92    4.10
  -3   7  -4   27.98    4.54
   7  -4   4   25.56    5.26
   4   3   4   24.93    3.26
  -3   7   4   28.60    3.33
   4   3  -5   59.08    7.39
  -3   7  -5   40.65    6.69
   7  -4   5   29.77    4.98
   4   3   5   30.42    7.77
  -3   7   5   36.83    7.88
   4   3  -6   43.22    7.19
  -3   7  -6   34.92    6.86
   7  -4   6   26.55    5.96
   4   3   6   24.55    4.02
  -3   7   6   32.66    3.39
   4   3  -7   78.00   14.14
  -3   7  -7   71.66   12.39
   7  -4   7   37.67   10.12
   4   3   7   42.84    8.06
  -3   7   7   43.29    6.64
   3   4   0   10.23    1.55
  -4   7   0    8.38    1.53
   3   4  -1    3.12    1.35
  -4   7  -1    4.79    1.59
   7  -3   1    4.02    0.75
   3   4   1    4.86    1.34
  -4   7   1    4.24    1.11
   3   4  -2  139.62    7.94
  -4   7  -2  133.97    8.19
   7  -3   2  119.15    9.15
   3   4   2  118.44    6.88
  -4   7   2  105.05    6.18
   3   4  -3   -0.99    2.36
  -4   7  -3    1.37    3.09
   7  -3   3   -0.13    0.95
   3   4   3   -0.69    1.20
  -4   7   3    2.93    0.77
   3   4  -4    5.75    2.55
  -4   7  -4    7.35    3.23
   7  -3   4    6.03    2.30
   3   4   4    8.50    2.14
  -4   7   4    8.18    2.05
   3   4  -5    4.42    3.84
  -4   7  -5   -0.14    4.75
   7  -3   5    7.37    2.18
   3   4   5    5.63    2.55
  -4   7   5    3.30    1.35
   3   4  -6   78.92    8.76
  -4   7  -6   81.87   11.01
   7  -3   6   46.54   19.69
   3   4   6   44.06    9.59
  -4   7   6   51.43    4.85
   3   4  -7    7.44    6.82
  -4   7  -7    8.51    7.23
   7  -3   7    4.61    4.30
   3   4   7   -5.73    3.89
  -4   7   7    2.36    2.31
   7  -2   0   31.25    4.01
   2   5   0   38.93    7.05
  -5   7   0   33.00    6.69
   2   5  -1  262.32   13.06
  -5   7  -1  243.03   12.35
   7  -2   1  237.97   11.11
   2   5   1  242.48   12.15
  -5   7   1  233.13   11.10
   2   5  -2  715.19   33.31
  -5   7  -2  691.25   32.79
   7  -2   2  600.15   27.36
   2   5   2  588.30   27.38
  -5   7   2  593.26   26.86
   2   5  -3  261.99   14.02
  -5   7  -3  248.53   14.34
   7  -2   3  213.73   11.14
   2   5   3  202.06   10.70
  -5   7   3  197.07    9.57
   2   5  -4    8.23    3.52
  -5   7  -4    9.90    4.70
   7  -2   4    7.13    1.56
   2   5   4    9.26    2.70
  -5   7   4    5.28    1.35
   2   5  -5  203.69   15.45
  -5   7  -5  218.65   17.72
   7  -2   5  144.80   27.50
  -5   7   5  147.86    9.73
   2   5  -6  361.25   25.41
  -5   7  -6  372.59   27.26
   7  -2   6  287.53   36.16
  -5   7   6  266.29   16.91
   2   5  -7  151.11   21.56
  -5   7  -7  182.08   25.26
   7  -2   7  118.47   26.29
   2   5   7   96.23   13.42
   7  -1   0  332.57   15.31
   1   6   0  340.23   16.46
  -6   7   0  333.64   15.89
   1   6  -1  266.57   13.32
   7  -1  -1  279.56   13.06
  -6   7  -1  282.42   14.46
   7  -1   1  246.10   11.63
   1   6   1  254.00   12.64
  -6   7   1  249.38   11.74
   1   6  -2   41.13    4.37
   7  -1  -2   46.28    4.32
  -6   7  -2   39.09    4.79
   7  -1   2   35.68    6.61
  -6   7   2   37.73    2.87
   1   6  -3  255.37   12.85
   7  -1  -3  270.98   13.39
  -6   7  -3  275.82   15.82
   7  -1   3  205.29    9.76
   1   6   3  190.28    9.39
  -6   7   3  218.06    9.37
   1   6  -4  325.09   16.60
  -6   7  -4  339.22   19.38
   7  -1   4  245.45   12.14
   1   6   4  252.67   12.23
   1   6  -5  217.14   16.41
  -6   7  -5  240.85   19.06
   7  -1   5  142.01   28.92
   1   6   5  150.43   10.79
   1   6  -6   13.39    4.71
  -6   7  -6   12.40    6.62
   7  -1   6    9.85    3.13
   1   6   6   17.26    3.70
   1   6  -7  144.63   21.41
   6  -7   7   75.85   20.44
   7  -1   7   89.31   22.22
   1   6   7   77.92   10.74
   7   0   0   32.72    5.22
   0   7   0   30.52    3.27
   7   0  -1    4.98    1.21
  -7   7  -1    9.99    3.89
   7   0   1    6.77    1.28
   0   7   1    8.24    2.04
   0   7  -2   77.16    5.29
   7   0  -2   78.80    4.66
  -7   7  -2   93.76    8.87
   7   0   2   60.80    3.71
   0   7   2   55.66    3.94
   0   7  -3    1.54    2.72
  -7   7  -3   -1.66    3.81
   7   0   3    3.96    2.01
   0   7   3    1.11    0.99
   0   7  -4   20.48    4.14
   7   0  -4   22.15    4.18
  -7   7  -4   25.04    5.36
   7   0   4   17.88    3.46
   0   7   4   17.38    2.82
   0   7  -5    8.93    4.48
  -7   7  -5   17.31    8.33
   7   0   5   10.37    3.40
   0   7   5    5.32    2.09
   0   7  -6   29.78    6.55
   7  -7   6   27.73    6.41
   7   0   6   19.74    6.79
   0   7   6   24.26    3.79
   7   1   0  129.29    6.27
  -1   8   0  126.78    6.80
   7   1  -1   32.91    5.23
  -1   8  -1   41.08    3.12
   7   1   1   36.10    6.44
  -1   8   1   40.00    2.97
  -1   8  -2  151.89   22.18
   7   1  -2  147.81    7.53
   8  -7   2   81.71   15.20
   7   1   2  122.58    6.26
  -1   8   2  135.19    7.25
  -1   8  -3   28.96    4.72
   7   1  -3   26.84    4.53
   8  -7   3   19.11    5.50
   7   1   3   26.58    6.10
  -1   8   3   24.30    2.97
   7   1  -4  121.22    9.98
   8  -7   4   95.54   17.24
   7   1   4   89.49    6.98
  -1   8   4   88.86    6.88
   7   1  -5   26.87    5.25
   8  -7   5   22.79    6.33
   7   1   5   22.02    3.77
  -1   8   5   26.52    3.33
  -1   8  -6   98.52   15.70
   8  -7   6   48.38   15.57
   7   1   6   49.85   13.47
  -1   8   6   60.13    8.43
   6   2   0  144.34    7.66
  -2   8   0  144.94    7.99
   6   2  -1   39.74    5.95
  -2   8  -1   45.03    4.44
   6   2   1   37.94    3.53
  -2   8   1   37.27    3.51
   6   2  -2    7.32    1.35
  -2   8  -2    6.52    3.41
   8  -6   2    1.85    1.12
   6   2   2    5.17    1.74
  -2   8   2    2.75    1.57
  -2   8  -3   66.65    6.12
   6   2  -3   66.13    5.19
   8  -6   3   41.07    7.56
   6   2   3   47.81    6.02
  -2   8   3   52.26    3.92
  -2   8  -4  121.24   10.31
   6   2  -4  118.46    9.60
   8  -6   4   75.92   18.48
   6   2   4   81.04    6.64
  -2   8   4   90.80    6.87
  -2   8  -5   28.82    4.98
   6   2  -5   22.89    4.21
   8  -6   5   16.79    2.46
   6   2   5   23.22    3.62
  -2   8   5   19.02    2.55
  -2   8  -6    6.39    5.38
   6   2  -6    4.25    4.70
   8  -6   6    1.18    2.25
   6   2   6   -0.51    3.11
  -2   8   6    1.60    3.41
   5   3   0   20.43    4.32
  -3   8   0   17.61    2.40
   5   3  -1   14.97    3.17
  -3   8  -1   16.23    3.21
   5   3   1   15.38    2.89
  -3   8   1   11.72    1.98
   5   3  -2  322.10   14.59
  -3   8  -2  316.03   14.77
   8  -5   2  272.02   12.14
   5   3   2  259.90   11.72
  -3   8   2  268.67   11.84
   5   3  -3   19.33    3.49
  -3   8  -3   13.46    2.81
   8  -5   3   11.30    2.76
   5   3   3   12.04    2.02
  -3   8   3   14.07    2.27
   5   3  -4   13.48    3.12
  -3   8  -4   18.17    4.22
   8  -5   4   12.91    3.32
   5   3   4   12.54    2.36
  -3   8   4   13.39    2.34
   5   3  -5   10.29    4.17
  -3   8  -5   28.05    6.70
   8  -5   5    3.86    3.80
   5   3   5    9.96    3.36
  -3   8   5    6.28    2.08
   5   3  -6  206.21   26.63
  -3   8  -6  201.94   26.26
   8  -5   6  110.01   27.03
   5   3   6  148.80   19.13
  -3   8   6  144.09   17.64
   4   4   0  984.27   44.57
  -4   8   0 1038.18   74.27
   4   4  -1    9.66    1.83
  -4   8  -1   13.79    2.29
   4   4   1   14.70    2.35
  -4   8   1   10.23    1.60
   4   4  -2   83.34    5.56
  -4   8  -2   79.14    5.59
   8  -4   2   67.70    5.40
   4   4   2   66.04   12.00
  -4   8   2   60.08    6.27
   4   4  -3   -0.28    2.13
  -4   8  -3    3.69    2.98
   8  -4   3    1.22    1.25
   4   4   3    0.36    1.75
  -4   8   3    0.31    1.09
   4   4  -4 1011.86   18.20
  -4   8  -4  960.85   41.97
   8  -4   4  736.19   32.10
   4   4   4  722.17   30.32
  -4   8   4  737.17   30.21
   4   4  -5   10.51    4.29
  -4   8  -5    3.67    4.71
   8  -4   5   11.16    3.22
   4   4   5    9.18    2.79
  -4   8   5    9.14    1.99
   4   4  -6   36.69    7.73
  -4   8  -6   44.50    8.95
   8  -4   6   29.74    7.37
   4   4   6   31.99    5.46
  -4   8   6   26.28    5.40
   3   5   0   11.38    2.26
  -5   8   0    7.33    1.14
   3   5  -1   23.65    3.20
  -5   8  -1   16.47    2.47
   3   5   1   16.73    2.24
  -5   8   1   15.33    1.68
   3   5  -2  226.00   11.00
  -5   8  -2  219.07   11.21
   8  -3   2  202.10    8.97
   3   5   2  192.08   14.24
  -5   8   2  190.38    8.56
   3   5  -3   16.30    2.92
  -5   8  -3   17.70    4.01
   8  -3   3   14.17    2.62
   3   5   3    9.35    2.07
  -5   8   3   14.19    1.92
   8  -3   4    7.33    1.18
   3   5   4    2.48    2.12
  -5   8   4    3.81    1.16
   3   5  -5   19.70    4.52
  -5   8  -5   24.76    6.51
   8  -3   5    5.54    2.77
   3   5   5   12.73    4.02
  -5   8   5   13.82    2.14
   3   5  -6  142.18   19.18
  -5   8  -6  152.37   21.08
   8  -3   6  104.59   28.38
   3   5   6  105.57   14.05
  -5   8   6  107.13   13.38
   2   6   0  192.11   10.17
  -6   8   0  177.53    9.24
   2   6  -1   88.83    5.71
  -6   8  -1   86.52    5.77
   8  -2   1   84.93    4.67
   2   6   1   78.61   14.20
  -6   8   1   83.62    4.75
   2   6  -2   10.11    2.70
  -6   8  -2    9.31    2.90
   8  -2   2    7.77    1.61
   2   6   2    7.75    1.83
  -6   8   2    5.71    1.07
   2   6  -3  105.88    6.98
  -6   8  -3   88.53    7.89
   8  -2   3   68.31    8.77
   2   6   3   70.56    5.02
  -6   8   3   72.70    4.04
   2   6  -4  208.36   14.71
  -6   8  -4  223.10   17.12
   8  -2   4  171.27   12.31
   2   6   4  162.97   11.19
   2   6  -5   71.53    7.74
  -6   8  -5   67.50    8.29
   8  -2   5   47.03   10.35
   2   6  -6    8.89    5.59
  -6   8  -6    5.22    6.13
   8  -2   6    1.72    1.86
   2   6   6    2.31    2.01
   8  -1   0  360.45   14.84
   1   7   0  362.92   16.03
   1   7  -1   16.12    3.77
  -7   8  -1   20.27    3.43
   8  -1   1   16.85    2.89
   1   7   1   22.31    4.58
   1   7  -2   10.32    2.80
  -7   8  -2   10.84    3.66
   8  -1   2    8.75    1.39
   1   7  -3    3.63    3.02
  -7   8  -3    3.47    3.54
   8  -1   3    9.52    2.00
   1   7   3    4.73    1.86
   1   7  -4  315.38   20.91
  -7   8  -4  367.08   25.83
   8  -1   4  249.04   18.98
   1   7   4  245.58   16.01
   1   7  -5   12.03    4.12
  -7   8  -5   25.07    6.56
   8  -1   5   17.57    3.69
   1   7   5   17.03    2.81
   1   7  -6   23.23    8.23
  -7   8  -6    3.59    5.88
   8  -1   6   11.06    3.74
   1   7   6    6.03    2.77
   8   0   0  253.42   11.01
   0   8   0  250.58   11.85
   0   8  -1    2.20    1.98
   8   0  -1    1.19    0.95
   8   0   1    0.58    0.94
   0   8   1    1.70    1.83
   8   0   2  546.03   22.59
   0   8   2  562.40   23.78
   0   8  -3    4.09    2.82
  -8   8  -3    5.02    4.13
   8   0   3    2.19    1.39
   0   8   3   -1.78    1.62
   0   8  -4  229.22   16.68
  -8   8  -4  274.98   21.89
   8   0   4  151.04   10.44
   0   8   4  154.33   19.85
   0   8  -5    2.55    4.55
   8  -8   5    4.74    2.40
   8   0   5    1.95    3.39
   0   8   5    2.82    2.28
   8   1   0    6.81    1.13
  -1   9   0   14.75    2.73
   8   1  -1    0.62    1.09
  -1   9  -1    3.14    2.15
   8   1   1    0.53    0.47
  -1   9   1   -0.69    1.62
  -1   9  -2  127.40    9.60
   8   1  -2  117.66    8.22
   8   1   2  104.94    7.31
  -1   9   2   87.72   17.10
  -1   9  -3    5.48    4.08
   8   1   3    3.16    1.81
  -1   9   3    7.42    2.12
  -1   9  -4    3.60    3.53
   8   1   4    0.80    0.69
  -1   9   4    3.53    2.24
   8   1   5    3.08    1.44
  -1   9   5    1.34    1.81
   7   2   0  163.58    7.98
  -2   9   0  164.23    9.01
   7   2  -1  128.66    6.72
  -2   9  -1  124.12    7.22
   7   2   1  104.26    5.65
  -2   9   1  115.52    6.41
   7   2  -2    0.05    0.73
  -2   9  -2    4.47    2.41
   7   2   2    4.43    1.68
  -2   9   2    2.39    1.21
   7   2  -3  100.94    7.87
  -2   9  -3  115.57    9.62
   7   2   3   93.53    6.83
  -2   9   3   87.43    6.70
  -2   9  -4  142.52   11.54
   7   2  -4  147.61   11.44
   7   2   4  109.66    8.26
  -2   9   4  110.59    8.13
  -2   9  -5  106.78   15.12
   7   2   5   57.37   16.47
  -2   9   5   57.44   16.30
   6   3   0   52.89    3.94
  -3   9   0   46.41    9.14
   6   3  -1  138.86    7.19
  -3   9  -1  133.82    7.42
   6   3   1  127.83    6.73
  -3   9   1  125.38    6.59
   6   3  -2  213.15   10.46
  -3   9  -2  197.12   10.42
   6   3   2  179.11    8.80
  -3   9   2  168.13    8.31
   6   3  -3  105.13    8.04
  -3   9  -3   94.48    8.18
   6   3   3   79.35    6.13
  -3   9   3   67.13   13.13
   6   3  -4   49.80    5.60
  -3   9  -4   50.32    6.31
   9  -6   4   26.18    5.84
   6   3   4   30.68    3.00
  -3   9   4   31.09    5.82
   6   3  -5  102.51   14.03
  -3   9  -5  109.06   15.98
   9  -6   5   57.37   15.27
   6   3   5   66.82   19.28
  -3   9   5   67.92   10.15
   5   4   0   87.48    5.38
  -4   9   0   94.83    5.48
   5   4  -1    3.42    0.70
  -4   9  -1    5.46    1.57
   5   4   1    5.70    1.84
  -4   9   1    6.09    1.52
   5   4  -2  362.80   16.33
  -4   9  -2  345.99   16.26
   5   4   2  312.30   14.08
  -4   9   2  278.00   12.33
   5   4  -3    2.23    1.83
  -4   9  -3    4.89    2.93
   5   4   3    2.91    1.88
  -4   9   3    0.87    1.34
   5   4  -4   70.71   11.97
  -4   9  -4   58.51    6.57
   9  -5   4   43.08    9.57
   5   4   4   46.59    4.79
  -4   9   4   45.29    3.93
   5   4  -5    8.92    5.21
  -4   9  -5    0.63    4.55
   9  -5   5    4.01    1.65
   5   4   5    6.93    2.44
  -4   9   5    3.98    1.00
   5   4  -6  270.71   33.89
  -4   9  -6  292.54   37.04
   9  -5   6  158.14   41.96
   5   4   6  157.98   37.04
  -4   9   6  201.00   24.31
   4   5   0   18.65    2.54
  -5   9   0   22.06    2.88
   4   5  -1   13.95    2.95
  -5   9  -1   17.40    2.82
   4   5   1   12.88    2.80
  -5   9   1   12.36    3.58
   4   5  -2  280.15   13.25
  -5   9  -2  287.28   14.09
   4   5   2  227.28   10.68
  -5   9   2  256.57   11.44
   4   5  -3    9.89    3.01
  -5   9  -3   10.60    3.41
   9  -4   3    5.37    1.50
   4   5   3    6.61    1.88
  -5   9   3    5.40    1.06
   4   5  -4   23.40    3.72
  -5   9  -4   23.34    5.10
   9  -4   4   16.49    6.56
   4   5   4   16.76    3.19
  -5   9   4   13.96    3.87
   4   5  -5   14.90    4.78
  -5   9  -5    7.47    4.97
   9  -4   5    9.73    2.31
   4   5   5    9.22    2.55
  -5   9   5    5.75    2.11
   4   5  -6  187.96   25.18
  -5   9  -6  162.85   22.34
   9  -4   6  106.73   28.30
   4   5   6  127.66   16.48
   3   6   0   15.28    2.65
  -6   9   0    9.76    1.96
   3   6  -1  102.44    6.42
  -6   9  -1   99.36    6.12
   3   6   1   92.45    5.45
  -6   9   1   94.72    5.13
   3   6  -2  304.20   14.39
  -6   9  -2  296.36   14.68
   3   6   2  246.43   11.67
  -6   9   2  271.46   11.88
   3   6  -3   73.57    6.71
  -6   9  -3   55.58    6.60
   9  -3   3   49.17    4.09
   3   6   3   53.29   11.51
  -6   9   3   39.36    9.89
   3   6  -4   16.89    3.34
  -6   9  -4   12.28    3.68
   9  -3   4   14.84    2.88
   3   6   4   12.58    2.97
   3   6  -5   85.82   12.86
  -6   9  -5  101.57   15.25
   9  -3   5   47.81   12.13
   3   6   5   63.25    8.84
   2   7   0  117.20    6.87
  -7   9   0  124.57    6.90
   2   7  -1   46.00   10.36
  -7   9  -1   48.92    4.44
   2   7   1   48.44    4.07
   2   7  -2    0.64    2.22
  -7   9  -2    1.14    2.41
   9  -2   2    1.41    1.21
   2   7   2    0.36    1.81
   2   7  -3   74.82    6.99
  -7   9  -3   77.50    8.38
   9  -2   3   48.09    9.31
   2   7   3   54.46    8.61
   2   7  -4   94.46    8.41
  -7   9  -4  116.46   11.63
   9  -2   4   68.88   17.35
   2   7  -5   23.59    4.85
  -7   9  -5   29.34    6.10
   9  -2   5   23.95    4.58
   1   8   0   28.04    3.42
   1   8  -1   -0.49    1.95
   1   8  -2  308.66   19.72
   9  -1   2  271.84   16.41
   1   8  -3    7.48    2.85
  -8   9  -3    8.49    4.37
   9  -1   3    1.62    1.21
   1   8   3    4.65    1.07
   1   8  -4   28.93    5.14
  -8   9  -4   45.92    9.01
   9  -1   4   28.26    6.10
   1   8   4   23.16    3.31
   1   8  -5    8.62    4.65
  -8   9  -5   -0.88    5.21
   9  -1   5    1.63    2.46
   1   8   5    4.64    2.53
   0   9   0  416.95   25.41
   0   9  -1   15.21    3.27
   9   0   1    3.09    1.16
   0   9   1    3.90    1.69
   9   0   2    1.46    0.72
   0   9   2   -0.74    1.83
   0   9  -3    2.93    3.15
   9   0   3    6.89    1.86
   0   9   3    5.12    2.56
   0   9  -4  372.91   44.73
   9   0   4  293.42   34.60
   0   9   4  291.43   34.47
  -1  10   0   24.84    6.55
  -1  10  -1   43.60    6.70
   9   1   1   37.18    5.04
  -1  10   1   37.81    5.53
  -1  10  -2    5.30    2.59
   9   1   2    4.89    1.55
  -1  10   2    4.09    1.96
  -1  10  -3   67.28    9.87
   9   1   3   29.60    8.52
  -1  10   3   46.44    6.67
   8   2   0   26.95    2.53
  -2  10   0   20.64    4.67
   8   2  -1   75.23    5.84
  -2  10  -1   75.22    6.45
   8   2   1   55.66   11.24
  -2  10   1   72.99    5.79
   8   2  -2  195.40   12.98
  -2  10  -2  181.05   12.67
   8   2   2  141.91    9.43
  -2  10   2  128.35    9.00
  -2  10  -3   76.89   10.67
   8   2   3   50.32   15.02
  -2  10   3   64.57    8.46
  -2  10  -4   19.72    4.87
   8   2   4   16.46    3.01
  -2  10   4   13.51    3.68
   7   3   0  177.58   11.43
  -3  10   0  186.87   12.32
   7   3  -1  230.06   14.57
  -3  10  -1  204.81   16.30
   7   3   1  194.27   12.56
  -3  10   1  209.79   13.45
   7   3  -2   10.06    2.16
  -3  10  -2   11.06    3.08
   7   3   2    6.25    2.10
  -3  10   2    6.91    1.49
   7   3  -3  248.53   29.69
  -3  10  -3  244.23   29.60
   7   3   3  188.33   23.56
  -3  10   3  192.69   22.86
   7   3  -4  159.93   20.10
  -3  10  -4  159.04   20.23
   7   3   4  121.77   15.29
  -3  10   4  102.94   16.43
   6   4   0   28.60    2.70
  -4  10   0   28.93    2.81
   6   4  -1    4.56    1.92
  -4  10  -1    7.16    2.26
   6   4   1    4.79    1.41
  -4  10   1    3.72    1.78
   6   4  -2    7.11    1.89
  -4  10  -2   10.29    3.34
   6   4   2    3.56    0.93
  -4  10   2    3.97    1.23
   6   4  -3    3.21    2.26
  -4  10  -3    6.82    4.25
   6   4   3    2.52    0.98
  -4  10   3    2.16    0.92
   6   4  -4   42.17    6.71
  -4  10  -4   44.23    7.42
   6   4   4   29.75    3.59
  -4  10   4   21.11    6.09
   6   4  -5    6.57    3.39
  -4  10  -5   -0.06    4.15
   6   4   5    7.57    2.63
  -4  10   5    2.87    1.65
   5   5   0  120.40    8.29
  -5  10   0  118.74   13.36
   5   5  -1   79.11    6.18
  -5  10  -1   64.78    5.59
   5   5   1   56.81   10.72
  -5  10   1   49.66   11.47
   5   5  -2  101.93    7.65
  -5  10  -2   96.21    7.92
   5   5   2   83.95    6.39
  -5  10   2   93.25    6.68
   5   5  -3   61.17    5.72
  -5  10  -3   59.92    6.48
   5   5   3   40.99    3.49
  -5  10   3   35.10    9.37
   5   5  -4  110.77   14.50
  -5  10  -4   91.44   13.02
   5   5   4   69.02    9.18
  -5  10   4   70.10    8.80
   5   5  -5   63.75   10.11
  -5  10  -5   41.48    8.18
   5   5   5   45.34    7.01
   4   6   0  110.10    7.93
  -6  10   0  111.68    7.99
   4   6  -1   49.80    8.93
  -6  10  -1   62.97    5.68
   4   6   1   52.59    4.49
  -6  10   1   50.76    4.24
   4   6  -2   -1.63    2.06
  -6  10  -2    2.66    2.20
   4   6   2    0.39    1.81
  -6  10   2    0.22    0.90
   4   6  -3   53.49    5.65
  -6  10  -3   35.93    4.89
   4   6   3   31.84    6.09
   4   6  -4   91.26   12.80
  -6  10  -4   81.90   12.03
   4   6   4   62.73    8.51
   4   6  -5   38.04    6.82
  -6  10  -5   47.55    9.27
   4   6   5   34.68    4.37
   3   7   0  125.42    9.01
  -7  10   0  121.15    8.61
   3   7  -1  211.19   13.76
  -7  10  -1  223.75   14.91
   3   7   1  204.54   13.36
   3   7  -2    6.57    2.16
  -7  10  -2   10.91    4.07
   3   7   2    5.75    1.45
   3   7  -3  183.81   22.58
  -7  10  -3  191.29   23.96
   3   7   3  134.33   16.43
   3   7  -4  131.76   17.10
  -7  10  -4  139.60   18.96
   3   7   4   84.59   13.71
   2   8   0   26.11    2.88
   2   8  -1   39.66    4.03
   2   8   1   36.66    3.18
   2   8  -2  193.40   13.55
   2   8   2  177.60   11.93
   2   8  -3   50.14    7.47
   2   8   3   35.32    3.28
   2   8  -4   31.14    6.13
   1   9   0   10.72    2.41
   1   9  -1   34.33    3.86
   1   9  -2   37.31    6.00
   1   9   2   32.06    3.54
   1   9  -3   33.50    4.52
   1   9   3   26.27    2.98
   0  10   0   38.84    5.80
   0  10  -1    1.70    2.42
   0  10   1    7.78    2.65
   0  10   2    6.43    2.86
   0  10   3    4.22    2.50
  -1  11   0    4.93    2.23
  -1  11  -1  210.66   25.52
  -1  11   1  193.48   23.35
  -2  11   0   71.00    9.45
  -2  11  -1   24.09    4.13
  -2  11   1   34.07    3.41
  -2  11  -2    7.94    3.05
   9   2   2    0.67    0.54
  -2  11   2    0.18    1.70
   8   3   0   15.53    2.08
  -3  11   0   14.32    2.30
   8   3  -1    8.84    2.10
  -3  11  -1    7.92    1.95
   8   3   1   10.02    2.51
  -3  11   1   11.76    2.54
   8   3  -2   19.71    3.21
  -3  11  -2   21.42    3.62
   8   3   2   15.06    2.20
  -3  11   2   14.57    2.66
  -3  11  -3   23.29    4.03
   8   3   3   17.07    2.44
  -3  11   3   14.92    3.90
   7   4   0   51.91    6.89
  -4  11   0   53.16    7.32
   7   4  -1    0.30    1.45
  -4  11  -1    3.05    2.08
   7   4   1   -0.19    1.35
   7   4  -2   61.77   16.26
  -4  11  -2   84.45   11.32
   7   4   2   73.41    9.42
  -4  11   2   76.51    9.73
   7   4  -3    4.35    2.32
  -4  11  -3    6.22    2.75
   7   4   3    0.92    1.65
  -4  11   3    3.77    1.83
   6   5   0   98.99   12.34
  -5  11   0   93.15    7.21
   6   5  -1  154.66   19.46
  -5  11  -1  139.83   17.12
   6   5   1  118.54   20.70
  -5  11   1  150.95   18.24
   6   5  -2    1.25    2.08
  -5  11  -2    3.54    2.42
   6   5   2    6.27    1.99
  -5  11   2    4.58    1.50
   6   5  -3  152.21   19.14
  -5  11  -3  163.50   20.70
   6   5   3  121.29   14.87
  -5  11   3  116.43   14.14
   5   6   0  162.69   11.04
  -6  11   0  166.55   11.49
   5   6  -1  137.74   16.83
  -6  11  -1  129.31   16.06
   5   6   1  115.83   14.23
  -6  11   1  124.29   15.16
   5   6  -2    9.43    1.96
  -6  11  -2    9.30    2.53
   5   6   2   13.18    2.74
  -6  11   2   10.47    2.16
   5   6  -3  102.70   13.29
  -6  11  -3  110.26   14.90
   5   6   3   54.22   13.23
   4   7   0   82.77   10.67
   4   7  -1   22.49    3.52
  -7  11  -1   16.01    3.25
   4   7   1   17.18    2.93
   4   7  -2   49.71   11.58
  -7  11  -2   62.45    9.04
   4   7   2   50.97    7.06
   4   7  -3   25.44    3.63
  -7  11  -3   18.14    3.84
   4   7   3   14.05    2.45
   3   8   0    6.67    2.13
   3   8  -1   14.44    3.17
   3   8   1   16.29    2.80
   3   8  -2   15.45    3.85
   3   8   2   11.73    3.54
   3   8  -3   11.03    3.02
   3   8   3    8.35    3.22
   2   9   0  111.82   25.64
   2   9  -1  149.35   18.48
   2   9   1  124.28   15.44
   2   9  -2    6.47    3.23
   2   9   2    9.15    2.12
   1  10  -1   97.85   12.80
   8   4   0   70.31    9.07
  -4  12   0   68.52    9.06
   8   4  -1    2.10    2.45
  -4  12  -1    1.68    2.16
   8   4   1    1.56    1.40
  -4  12   1    2.60    1.72
   7   5   0   27.04    3.58
  -5  12   0   18.48    4.16
   7   5  -1    6.21    2.42
  -5  12  -1    9.64    2.78
   7   5   1    8.36    2.38
  -5  12   1    9.10    2.43
   6   6   0    4.02    1.82
  -6  12   0    4.58    2.81
   6   6  -1   45.06    6.67
  -6  12  -1   44.75    6.86
   6   6   1   39.45    5.90
   5   7   0    0.16    1.79
   5   7  -1   13.72    2.98
   5   7   1   14.22    2.35
   4   8   0   42.57    6.51
   4   8  -1    5.82    2.37
   4   8   1   11.37    2.28
   0   0   0    0.00    0.00
;
_shelx_hkl_checksum              57200
loop_
_space_group_symop_operation_xyz
'x, y, z'
'-y, x-y, z'
'-x+y, -x, z'
'-x, -y, z+1/2'
'y, -x+y, z+1/2'
'x-y, x, z+1/2'
'-x, -y, -z'
'y, -x+y, -z'
'x-y, x, -z'
'x, y, -z-1/2'
'-y, x-y, -z-1/2'
'-x+y, -x, -z-1/2'
loop_
_atom_site_label
_atom_site_type_symbol
_atom_site_fract_x
_atom_site_fract_y
_atom_site_fract_z
_atom_site_U_iso_or_equiv
_atom_site_adp_type
_atom_site_occupancy
_atom_site_site_symmetry_order
_atom_site_calc_flag
_atom_site_refinement_flags_posn
_atom_site_refinement_flags_adp
_atom_site_refinement_flags_occupancy
_atom_site_disorder_assembly
_atom_site_disorder_group
Tb1 Tb -0.00417(7) 0.75862(6) 0.2500 0.0109(3) Uani 1 2 d S T P . .
Tb2 Tb 0.3333 0.6667 -0.00172(16) 0.0116(3) Uani 0.828(4) 3 d S T . . .
Si3 Si 0.3731(4) 0.9713(4) 0.2500 0.0097(7) Uani 1 2 d S T P . .
O1 O -0.1658(9) 0.3268(11) 0.2500 0.018(2) Uani 1 2 d S T P . .
O2 O 0.0000 1.0000 0.2500 0.047(7) Uani 1 6 d S T P . .
O3 O 0.4730(9) 0.8726(9) 0.2500 0.019(2) Uani 1 2 d S T P . .
O4 O 0.2538(7) 0.9086(7) 0.0605(11) 0.0220(16) Uani 1 1 d . . . . .
loop_
_atom_site_aniso_label
_atom_site_aniso_U_11
_atom_site_aniso_U_22
_atom_site_aniso_U_33
_atom_site_aniso_U_23
_atom_site_aniso_U_13
_atom_site_aniso_U_12
Tb1 0.0110(4) 0.0126(4) 0.0070(4) 0.000 0.000 0.0044(2)
Tb2 0.0147(4) 0.0147(4) 0.0054(5) 0.000 0.000 0.0073(2)
Si3 0.0117(15) 0.0115(15) 0.0045(17) 0.000 0.000 0.0049(13)
O1 0.005(4) 0.034(5) 0.010(5) 0.000 0.000 0.005(3)
O2 0.025(5) 0.025(5) 0.09(2) 0.000 0.000 0.013(3)
O3 0.020(4) 0.015(4) 0.024(7) 0.000 0.000 0.009(4)
O4 0.018(3) 0.021(3) 0.008(3) 0.008(3) -0.004(3) -0.004(2)
loop_
_atom_type_symbol
_atom_type_description
_atom_type_scat_dispersion_real
_atom_type_scat_dispersion_imag
_atom_type_scat_source
B B 0.0013 0.0007 'International Tables Vol C Tables 4.2.6.8 and 6.1.1.4'
O O 0.0106 0.0060 'International Tables Vol C Tables 4.2.6.8 and 6.1.1.4'
Si Si 0.0817 0.0704 'International Tables Vol C Tables 4.2.6.8 and 6.1.1.4'
Tb Tb -0.1723 4.1537 'International Tables Vol C Tables 4.2.6.8 and 6.1.1.4'
loop_
_geom_angle_atom_site_label_1
_geom_angle_atom_site_label_2
_geom_angle_atom_site_label_3
_geom_angle
_geom_angle_site_symmetry_1
_geom_angle_site_symmetry_3
O2 Tb1 O4 104.55(15) . 8_455
O2 Tb1 O4 104.55(15) . 5_455
O4 Tb1 O4 133.4(3) 8_455 5_455
O2 Tb1 O3 152.17(18) . 2_665
O4 Tb1 O3 85.44(15) 8_455 2_665
O4 Tb1 O3 85.44(15) 5_455 2_665
O2 Tb1 O4 84.67(14) . .
O4 Tb1 O4 78.74(13) 8_455 .
O4 Tb1 O4 139.5(2) 5_455 .
O3 Tb1 O4 71.7(2) 2_665 .
O2 Tb1 O4 84.68(14) . 10_556
O4 Tb1 O4 139.5(2) 8_455 10_556
O4 Tb1 O4 78.74(13) 5_455 10_556
O3 Tb1 O4 71.7(2) 2_665 10_556
O4 Tb1 O4 62.7(3) . 10_556
O2 Tb1 O1 108.71(16) . 2_565
O4 Tb1 O1 68.28(16) 8_455 2_565
O4 Tb1 O1 68.28(16) 5_455 2_565
O3 Tb1 O1 99.1(2) 2_665 2_565
O4 Tb1 O1 146.48(16) . 2_565
O4 Tb1 O1 146.48(16) 10_556 2_565
O2 Tb1 Si3 84.94(6) . .
O4 Tb1 Si3 109.07(15) 8_455 .
O4 Tb1 Si3 109.07(15) 5_455 .
O3 Tb1 Si3 67.24(19) 2_665 .
O4 Tb1 Si3 31.38(16) . .
O4 Tb1 Si3 31.38(16) 10_556 .
O1 Tb1 Si3 166.36(17) 2_565 .
O2 Tb1 Si3 79.84(6) . 3_465
O4 Tb1 Si3 75.13(14) 8_455 3_465
O4 Tb1 Si3 75.13(14) 5_455 3_465
O3 Tb1 Si3 127.99(19) 2_665 3_465
O4 Tb1 Si3 145.00(16) . 3_465
O4 Tb1 Si3 145.00(16) 10_556 3_465
O1 Tb1 Si3 28.87(16) 2_565 3_465
Si3 Tb1 Si3 164.77(7) . 3_465
O2 Tb1 Tb1 30.0 . 3_465
O4 Tb1 Tb1 93.71(14) 8_455 3_465
O4 Tb1 Tb1 93.71(14) 5_455 3_465
O3 Tb1 Tb1 177.83(18) 2_665 3_465
O4 Tb1 Tb1 110.12(14) . 3_465
O4 Tb1 Tb1 110.12(14) 10_556 3_465
O1 Tb1 Tb1 78.70(16) 2_565 3_465
Si3 Tb1 Tb1 114.94(6) . 3_465
Si3 Tb1 Tb1 49.84(6) 3_465 3_465
O2 Tb1 Tb1 30.0 . 2_675
O4 Tb1 Tb1 111.74(17) 8_455 2_675
O4 Tb1 Tb1 111.74(17) 5_455 2_675
O3 Tb1 Tb1 122.17(18) 2_665 2_675
O4 Tb1 Tb1 59.68(15) . 2_675
O4 Tb1 Tb1 59.68(15) 10_556 2_675
O1 Tb1 Tb1 138.71(16) 2_565 2_675
Si3 Tb1 Tb1 54.94(6) . 2_675
Si3 Tb1 Tb1 109.84(6) 3_465 2_675
Tb1 Tb1 Tb1 60.0 3_465 2_675
O1 Tb2 O1 73.4(2) 7_565 9_665
O1 Tb2 O1 73.4(2) 7_565 8
O1 Tb2 O1 73.4(2) 9_665 8
O1 Tb2 O3 126.4(3) 7_565 .
O1 Tb2 O3 93.04(19) 9_665 .
O1 Tb2 O3 152.5(3) 8 .
O1 Tb2 O3 93.04(19) 7_565 2_665
O1 Tb2 O3 152.5(3) 9_665 2_665
O1 Tb2 O3 126.4(3) 8 2_665
O3 Tb2 O3 75.6(2) . 2_665
O1 Tb2 O3 152.5(3) 7_565 3_565
O1 Tb2 O3 126.4(3) 9_665 3_565
O1 Tb2 O3 93.04(19) 8 3_565
O3 Tb2 O3 75.6(2) . 3_565
O3 Tb2 O3 75.6(2) 2_665 3_565
O1 Tb2 O4 67.9(2) 7_565 .
O1 Tb2 O4 86.6(2) 9_665 .
O1 Tb2 O4 140.1(2) 8 .
O3 Tb2 O4 59.6(2) . .
O3 Tb2 O4 65.9(2) 2_665 .
O3 Tb2 O4 126.1(2) 3_565 .
O1 Tb2 O4 86.6(2) 7_565 2_665
O1 Tb2 O4 140.1(2) 9_665 2_665
O1 Tb2 O4 67.9(2) 8 2_665
O3 Tb2 O4 126.1(2) . 2_665
O3 Tb2 O4 59.6(2) 2_665 2_665
O3 Tb2 O4 65.9(2) 3_565 2_665
O4 Tb2 O4 117.70(8) . 2_665
O1 Tb2 O4 140.1(2) 7_565 3_565
O1 Tb2 O4 67.9(2) 9_665 3_565
O1 Tb2 O4 86.6(2) 8 3_565
O3 Tb2 O4 65.9(2) . 3_565
O3 Tb2 O4 126.1(2) 2_665 3_565
O3 Tb2 O4 59.6(2) 3_565 3_565
O4 Tb2 O4 117.70(8) . 3_565
O4 Tb2 O4 117.70(8) 2_665 3_565
O1 Tb2 Si3 93.04(17) 7_565 2_665
O1 Tb2 Si3 165.48(17) 9_665 2_665
O1 Tb2 Si3 98.1(2) 8 2_665
O3 Tb2 Si3 99.36(15) . 2_665
O3 Tb2 Si3 29.60(18) 2_665 2_665
O3 Tb2 Si3 64.70(18) 3_565 2_665
O4 Tb2 Si3 93.09(13) . 2_665
O4 Tb2 Si3 30.33(14) 2_665 2_665
O4 Tb2 Si3 124.30(14) 3_565 2_665
O1 Tb2 Si3 165.48(17) 7_565 3_565
O1 Tb2 Si3 98.1(2) 9_665 3_565
O1 Tb2 Si3 93.04(17) 8 3_565
O3 Tb2 Si3 64.70(18) . 3_565
O3 Tb2 Si3 99.36(15) 2_665 3_565
O3 Tb2 Si3 29.60(18) 3_565 3_565
O4 Tb2 Si3 124.30(14) . 3_565
O4 Tb2 Si3 93.09(13) 2_665 3_565
O4 Tb2 Si3 30.33(14) 3_565 3_565
Si3 Tb2 Si3 94.03(5) 2_665 3_565
O1 Tb2 Si3 98.1(2) 7_565 .
O1 Tb2 Si3 93.04(17) 9_665 .
O1 Tb2 Si3 165.48(17) 8 .
O3 Tb2 Si3 29.60(18) . .
O3 Tb2 Si3 64.70(18) 2_665 .
O3 Tb2 Si3 99.36(15) 3_565 .
O4 Tb2 Si3 30.33(14) . .
O4 Tb2 Si3 124.30(14) 2_665 .
O4 Tb2 Si3 93.09(13) 3_565 .
Si3 Tb2 Si3 94.03(5) 2_665 .
Si3 Tb2 Si3 94.03(5) 3_565 .
O1 Si3 O4 112.4(3) 3_565 .
O1 Si3 O4 112.4(3) 3_565 10_556
O4 Si3 O4 105.8(5) . 10_556
O1 Si3 O3 112.3(5) 3_565 .
O4 Si3 O3 106.7(3) . .
O4 Si3 O3 106.7(3) 10_556 .
O1 Si3 Tb1 131.7(4) 3_565 .
O4 Si3 Tb1 53.0(2) . .
O4 Si3 Tb1 53.0(2) 10_556 .
O3 Si3 Tb1 116.0(3) . .
O1 Si3 Tb2 136.6(2) 3_565 .
O4 Si3 Tb2 59.8(2) . .
O4 Si3 Tb2 110.6(2) 10_556 .
O3 Si3 Tb2 47.6(2) . .
Tb1 Si3 Tb2 80.64(7) . .
O1 Si3 Tb2 136.6(2) 3_565 10_556
O4 Si3 Tb2 110.6(2) . 10_556
O4 Si3 Tb2 59.8(2) 10_556 10_556
O3 Si3 Tb2 47.6(2) . 10_556
Tb1 Si3 Tb2 80.64(7) . 10_556
Tb2 Si3 Tb2 64.72(8) . 10_556
O1 Si3 Tb1 56.5(3) 3_565 2_675
O4 Si3 Tb1 79.7(3) . 2_675
O4 Si3 Tb1 79.7(3) 10_556 2_675
O3 Si3 Tb1 168.8(3) . 2_675
Tb1 Si3 Tb1 75.23(7) . 2_675
Tb2 Si3 Tb1 139.47(7) . 2_675
Tb2 Si3 Tb1 139.47(7) 10_556 2_675
Si3 O1 Tb2 128.9(2) 2_665 7_565
Si3 O1 Tb2 128.9(2) 2_665 4_565
Tb2 O1 Tb2 92.7(3) 7_565 4_565
Si3 O1 Tb1 94.6(4) 2_665 3_455
Tb2 O1 Tb1 103.5(2) 7_565 3_455
Tb2 O1 Tb1 103.5(2) 4_565 3_455
Tb1 O2 Tb1 120.0 . 2_675
Tb1 O2 Tb1 120.0 . 3_465
Tb1 O2 Tb1 120.0 2_675 3_465
Si3 O3 Tb1 123.2(4) . 3_565
Si3 O3 Tb2 102.8(3) . .
Tb1 O3 Tb2 116.2(2) 3_565 .
Si3 O3 Tb2 102.8(3) . 10_556
Tb1 O3 Tb2 116.2(2) 3_565 10_556
Tb2 O3 Tb2 89.9(3) . 10_556
Si3 O4 Tb1 139.6(3) . 9_665
Si3 O4 Tb1 95.6(3) . .
Tb1 O4 Tb1 117.3(2) 9_665 .
Si3 O4 Tb2 89.8(3) . .
Tb1 O4 Tb2 104.4(3) 9_665 .
Tb1 O4 Tb2 101.67(19) . .
loop_
_geom_bond_atom_site_label_1
_geom_bond_atom_site_label_2
_geom_bond_distance
_geom_bond_site_symmetry_2
Tb1 O2 2.2718(11) .
Tb1 O4 2.317(7) 8_455
Tb1 O4 2.317(7) 5_455
Tb1 O3 2.386(8) 2_665
Tb1 O4 2.495(6) .
Tb1 O4 2.495(6) 10_556
Tb1 O1 2.786(9) 2_565
Tb1 Si3 3.110(3) .
Tb1 Si3 3.331(3) 3_465
Tb1 Tb1 3.9349(19) 3_465
Tb1 Tb1 3.9349(19) 2_675
Tb2 O1 2.351(6) 7_565
Tb2 O1 2.351(6) 9_665
Tb2 O1 2.351(6) 8
Tb2 O3 2.442(5) .
Tb2 O3 2.442(5) 2_665
Tb2 O3 2.442(5) 3_565
Tb2 O4 2.786(7) .
Tb2 O4 2.786(7) 2_665
Tb2 O4 2.786(7) 3_565
Tb2 Si3 3.223(3) 2_665
Tb2 Si3 3.223(3) 3_565
Tb2 Si3 3.223(3) .
Si3 O1 1.613(8) 3_565
Si3 O4 1.628(7) .
Si3 O4 1.627(7) 10_556
Si3 O3 1.632(8) .
Si3 Tb2 3.223(3) 10_556
Si3 Tb1 3.331(3) 2_675
O1 Si3 1.613(8) 2_665
O1 Tb2 2.351(6) 7_565
O1 Tb2 2.351(6) 4_565
O1 Tb1 2.786(9) 3_455
O2 Tb1 2.2718(11) 2_675
O2 Tb1 2.2718(11) 3_465
O3 Tb1 2.386(8) 3_565
O3 Tb2 2.442(5) 10_556
O4 Tb1 2.317(7) 9_665
