#------------------------------------------------------------------------------
#$Date: 2021-01-05 10:57:12 +0200 (Tue, 05 Jan 2021) $
#$Revision: 260528 $
#$URL: file:///home/coder/svn-repositories/cod/cif/1/55/99/1559950.cif $
#------------------------------------------------------------------------------
#
# This file is available in the Crystallography Open Database (COD),
# http://www.crystallography.net/
#
# All data on this site have been placed in the public domain by the
# contributors.
#
data_1559950
loop_
_publ_author_name
'Bryntse, Ingrid'
_publ_section_title
;
 Synthesis and Structure of the Perovskite-Type Phase Ba4CuYW2O12
;
_journal_name_full               'Acta Chemica Scandinavica'
_journal_page_first              855
_journal_page_last               856
_journal_paper_doi               10.3891/acta.chem.scand.44-0855
_journal_volume                  44
_journal_year                    1990
_chemical_formula_moiety         'Cu O12 W2 Y, 4(Ba)'
_chemical_formula_sum            'Ba4 Cu O12 W2 Y'
_chemical_formula_weight         1261.43
_chemical_name_common
;
Ba4CuYW2O12
;
_space_group_IT_number           225
_space_group_name_Hall           '-F 4 2 3'
_space_group_name_H-M_alt        'F m -3 m'
_symmetry_cell_setting           cubic
_symmetry_Int_Tables_number      225
_symmetry_space_group_name_Hall  '-F 4 2 3'
_symmetry_space_group_name_H-M   'F m -3 m'
_cell_angle_alpha                90.
_cell_angle_beta                 90.
_cell_angle_gamma                90.
_cell_formula_units_Z            2
_cell_length_a                   8.3065(6)
_cell_length_b                   8.3065(6)
_cell_length_c                   8.3065(6)
_cell_volume                     573.13(7)
_diffrn_ambient_temperature      298
_diffrn_radiation_probe          x-ray
_diffrn_radiation_type           CuK\a
_diffrn_radiation_wavelength     1.540598
_exptl_absorpt_coefficient_mu    150.059
_exptl_crystal_density_diffrn    7.310
_exptl_crystal_F_000             1072
_pd_proc_ls_prof_R_factor        0.046
_pd_proc_ls_prof_wR_factor       0.060
_refine_ls_R_Fsqd_factor         0.068
_refine_ls_R_I_factor            0.048
_cod_data_source_file            Acta-Chem-Scand-1990-44-855.cif
_cod_data_source_block           1
_cod_original_cell_volume        573.13(12)
_cod_database_code               1559950
loop_
_space_group_symop_id
_space_group_symop_operation_xyz
1 x,y,z
2 -y,x,z
3 -x,-y,z
4 y,-x,z
5 x,-y,-z
6 y,x,-z
7 -x,y,-z
8 -y,-x,-z
9 z,x,y
10 -x,z,y
11 -z,-x,y
12 x,-z,y
13 z,-x,-y
14 x,z,-y
15 -z,x,-y
16 -x,-z,-y
17 y,z,x
18 -z,-y,-x
19 -z,y,x
20 z,y,-x
21 z,-y,x
22 y,-z,-x
23 -y,-z,x
24 -y,z,-x
25 -x,-y,-z
26 y,-x,-z
27 x,y,-z
28 -y,x,-z
29 -x,y,z
30 -y,-x,z
31 x,-y,z
32 y,x,z
33 -z,-x,-y
34 x,-z,-y
35 z,x,-y
36 -x,z,-y
37 -z,x,y
38 -x,-z,y
39 z,-x,y
40 x,z,y
41 -y,-z,-x
42 z,y,x
43 z,-y,-x
44 -z,-y,x
45 -z,y,-x
46 -y,z,x
47 y,z,-x
48 y,-z,x
49 x,1/2+y,1/2+z
50 -y,1/2+x,1/2+z
51 -x,1/2-y,1/2+z
52 y,1/2-x,1/2+z
53 x,1/2-y,1/2-z
54 y,1/2+x,1/2-z
55 -x,1/2+y,1/2-z
56 -y,1/2-x,1/2-z
57 z,1/2+x,1/2+y
58 -x,1/2+z,1/2+y
59 -z,1/2-x,1/2+y
60 x,1/2-z,1/2+y
61 z,1/2-x,1/2-y
62 x,1/2+z,1/2-y
63 -z,1/2+x,1/2-y
64 -x,1/2-z,1/2-y
65 y,1/2+z,1/2+x
66 -z,1/2-y,1/2-x
67 -z,1/2+y,1/2+x
68 z,1/2+y,1/2-x
69 z,1/2-y,1/2+x
70 y,1/2-z,1/2-x
71 -y,1/2-z,1/2+x
72 -y,1/2+z,1/2-x
73 -x,1/2-y,1/2-z
74 y,1/2-x,1/2-z
75 x,1/2+y,1/2-z
76 -y,1/2+x,1/2-z
77 -x,1/2+y,1/2+z
78 -y,1/2-x,1/2+z
79 x,1/2-y,1/2+z
80 y,1/2+x,1/2+z
81 -z,1/2-x,1/2-y
82 x,1/2-z,1/2-y
83 z,1/2+x,1/2-y
84 -x,1/2+z,1/2-y
85 -z,1/2+x,1/2+y
86 -x,1/2-z,1/2+y
87 z,1/2-x,1/2+y
88 x,1/2+z,1/2+y
89 -y,1/2-z,1/2-x
90 z,1/2+y,1/2+x
91 z,1/2-y,1/2-x
92 -z,1/2-y,1/2+x
93 -z,1/2+y,1/2-x
94 -y,1/2+z,1/2+x
95 y,1/2+z,1/2-x
96 y,1/2-z,1/2+x
97 1/2+x,y,1/2+z
98 1/2-y,x,1/2+z
99 1/2-x,-y,1/2+z
100 1/2+y,-x,1/2+z
101 1/2+x,-y,1/2-z
102 1/2+y,x,1/2-z
103 1/2-x,y,1/2-z
104 1/2-y,-x,1/2-z
105 1/2+z,x,1/2+y
106 1/2-x,z,1/2+y
107 1/2-z,-x,1/2+y
108 1/2+x,-z,1/2+y
109 1/2+z,-x,1/2-y
110 1/2+x,z,1/2-y
111 1/2-z,x,1/2-y
112 1/2-x,-z,1/2-y
113 1/2+y,z,1/2+x
114 1/2-z,-y,1/2-x
115 1/2-z,y,1/2+x
116 1/2+z,y,1/2-x
117 1/2+z,-y,1/2+x
118 1/2+y,-z,1/2-x
119 1/2-y,-z,1/2+x
120 1/2-y,z,1/2-x
121 1/2-x,-y,1/2-z
122 1/2+y,-x,1/2-z
123 1/2+x,y,1/2-z
124 1/2-y,x,1/2-z
125 1/2-x,y,1/2+z
126 1/2-y,-x,1/2+z
127 1/2+x,-y,1/2+z
128 1/2+y,x,1/2+z
129 1/2-z,-x,1/2-y
130 1/2+x,-z,1/2-y
131 1/2+z,x,1/2-y
132 1/2-x,z,1/2-y
133 1/2-z,x,1/2+y
134 1/2-x,-z,1/2+y
135 1/2+z,-x,1/2+y
136 1/2+x,z,1/2+y
137 1/2-y,-z,1/2-x
138 1/2+z,y,1/2+x
139 1/2+z,-y,1/2-x
140 1/2-z,-y,1/2+x
141 1/2-z,y,1/2-x
142 1/2-y,z,1/2+x
143 1/2+y,z,1/2-x
144 1/2+y,-z,1/2+x
145 1/2+x,1/2+y,z
146 1/2-y,1/2+x,z
147 1/2-x,1/2-y,z
148 1/2+y,1/2-x,z
149 1/2+x,1/2-y,-z
150 1/2+y,1/2+x,-z
151 1/2-x,1/2+y,-z
152 1/2-y,1/2-x,-z
153 1/2+z,1/2+x,y
154 1/2-x,1/2+z,y
155 1/2-z,1/2-x,y
156 1/2+x,1/2-z,y
157 1/2+z,1/2-x,-y
158 1/2+x,1/2+z,-y
159 1/2-z,1/2+x,-y
160 1/2-x,1/2-z,-y
161 1/2+y,1/2+z,x
162 1/2-z,1/2-y,-x
163 1/2-z,1/2+y,x
164 1/2+z,1/2+y,-x
165 1/2+z,1/2-y,x
166 1/2+y,1/2-z,-x
167 1/2-y,1/2-z,x
168 1/2-y,1/2+z,-x
169 1/2-x,1/2-y,-z
170 1/2+y,1/2-x,-z
171 1/2+x,1/2+y,-z
172 1/2-y,1/2+x,-z
173 1/2-x,1/2+y,z
174 1/2-y,1/2-x,z
175 1/2+x,1/2-y,z
176 1/2+y,1/2+x,z
177 1/2-z,1/2-x,-y
178 1/2+x,1/2-z,-y
179 1/2+z,1/2+x,-y
180 1/2-x,1/2+z,-y
181 1/2-z,1/2+x,y
182 1/2-x,1/2-z,y
183 1/2+z,1/2-x,y
184 1/2+x,1/2+z,y
185 1/2-y,1/2-z,-x
186 1/2+z,1/2+y,x
187 1/2+z,1/2-y,-x
188 1/2-z,1/2-y,x
189 1/2-z,1/2+y,-x
190 1/2-y,1/2+z,x
191 1/2+y,1/2+z,-x
192 1/2+y,1/2-z,x
loop_
_atom_site_label
_atom_site_type_symbol
_atom_site_thermal_displace_type
_atom_site_fract_x
_atom_site_fract_y
_atom_site_fract_z
_atom_site_occupancy
_atom_site_U_iso_or_equiv
_atom_site_calc_flag
_atom_site_refinement_flags
_atom_site_disorder_assembly
_atom_site_disorder_group
W W Uiso 0.00000 0.00000 0.00000 0.998 0.013(3) . . . .
Ba Ba Uiso 0.25000 0.25000 0.25000 1.00 0.0051(13) . . . .
Y Y Uiso 0.50000 0.50000 0.50000 0.499 0.036(4) . . . .
Cu Cu Uiso 0.50000 0.50000 0.50000 0.499 0.036(4) . . . .
O O Uiso 0.232(3) 0.00000 0.00000 1.000 0.022(5) . . . -32
loop_
_atom_type_symbol
_atom_type_description
_atom_type_scat_dispersion_real
_atom_type_scat_dispersion_imag
_atom_type_scat_source
Ba Ba -1.0456 8.4617 ' International Tables Vol C Tables 4.2.6.8 and 6.1.1.4'
Cu Cu -1.9646 0.5888 ' International Tables Vol C Tables 4.2.6.8 and 6.1.1.4'
O O 0.0492 0.0322 ' International Tables Vol C Tables 4.2.6.8 and 6.1.1.4'
W W -5.4734 5.5774 ' International Tables Vol C Tables 4.2.6.8 and 6.1.1.4'
Y Y -0.2670 2.0244 ' International Tables Vol C Tables 4.2.6.8 and 6.1.1.4'
loop_
_geom_angle_atom_site_label_1
_geom_angle_atom_site_label_2
_geom_angle_atom_site_label_3
_geom_angle
_geom_angle_site_symmetry_1
_geom_angle_site_symmetry_2
_geom_angle_site_symmetry_3
_geom_angle_publ_flag
O W O 90.00 . . 2_555 yes
O W O 180.00 . . 3_555 yes
O W O 90.00 . . 4_555 yes
O W O 90.00 . . 17_555 yes
O W O 90.00 . . 18_555 yes
O W O 90.00 2_555 . 3_555 yes
O W O 180.00 2_555 . 4_555 yes
O W O 90.00 2_555 . 17_555 yes
O W O 90.00 2_555 . 18_555 yes
O W O 90.00 3_555 . 4_555 yes
O W O 90.00 3_555 . 17_555 yes
O W O 90.00 3_555 . 18_555 yes
O W O 90.00 4_555 . 17_555 yes
O W O 90.00 4_555 . 18_555 yes
O W O 180.00 17_555 . 18_555 yes
loop_
_geom_bond_atom_site_label_1
_geom_bond_atom_site_label_2
_geom_bond_distance
_geom_bond_site_symmetry_1
_geom_bond_site_symmetry_2
_geom_bond_publ_flag
W O 1.93(2) . . yes
W O 1.93(2) . 2_555 yes
W O 1.93(2) . 3_555 yes
W O 1.93(2) . 4_555 yes
W O 1.93(2) . 17_555 yes
W O 1.93(2) . 18_555 yes
