#------------------------------------------------------------------------------
#$Date: 2020-12-06 16:25:06 +0200 (Sun, 06 Dec 2020) $
#$Revision: 259603 $
#$URL: file:///home/coder/svn-repositories/cod/cif/1/55/92/1559217.cif $
#------------------------------------------------------------------------------
#
# This file is available in the Crystallography Open Database (COD),
# http://www.crystallography.net/
#
# All data on this site have been placed in the public domain by the
# contributors.
#
data_1559217
loop_
_publ_author_name
'Yang, Ning'
'Zhu, Cheng'
'Chen, Yihua'
'Zai, Huachao'
'Wang, Chenyue'
'Wang, Xi'
'Wang, Hao'
'Ma, Sai'
'Gao, Ziyan'
'Wang, Xueyun'
'Hong, Jiawang'
'Bai, Yang'
'Zhou, Huanping'
'Cui, Bin-Bin'
'Chen, Qi'
_publ_section_title
;
 An in situ cross-linked 1D/3D perovskite heterostructure improves the
 stability of hybrid perovskite solar cells for over 3000 h operation
;
_journal_issue                   11
_journal_name_full               'Energy &amp; Environmental Science'
_journal_page_first              4344
_journal_page_last               4352
_journal_paper_doi               10.1039/D0EE01736A
_journal_volume                  13
_journal_year                    2020
_chemical_formula_moiety         '0.5(I6 Pb2), 1(C)'
_chemical_formula_sum            'C I3 Pb'
_chemical_formula_weight         458.93
_space_group_crystal_system      trigonal
_space_group_IT_number           163
_space_group_name_Hall           '-P 3 2c'
_space_group_name_H-M_alt        'P -3 1 c'
_atom_sites_solution_primary     dual
_audit_block_doi                 10.5517/ccdc.csd.cc21r443
_audit_creation_date             2018-10-16
_audit_creation_method
;
Olex2 1.2
(compiled 2018.05.29 svn.r3508 for OlexSys, GUI svn.r5506)
;
_audit_update_record
;
2020-08-28 deposited with the CCDC.	2020-09-24 downloaded from the CCDC.
;
_cell_angle_alpha                90
_cell_angle_beta                 90
_cell_angle_gamma                120
_cell_formula_units_Z            2
_cell_length_a                   8.7795(12)
_cell_length_b                   8.7795(12)
_cell_length_c                   8.1964(16)
_cell_measurement_temperature    153(2)
_cell_volume                     547.13(15)
_computing_molecular_graphics    'Olex2 (Dolomanov et al., 2009)'
_computing_publication_material  'Olex2 (Dolomanov et al., 2009)'
_computing_structure_refinement  'ShelXL (Sheldrick, 2015)'
_computing_structure_solution    'ShelXT (Sheldrick, 2015)'
_diffrn_ambient_temperature      153.15
_diffrn_measured_fraction_theta_full 0.979
_diffrn_measured_fraction_theta_max 0.983
_diffrn_measurement_device_type  'multiwire proportional'
_diffrn_measurement_method       'phi and omega scans'
_diffrn_radiation_monochromator  graphite
_diffrn_radiation_type           MoK\a
_diffrn_radiation_wavelength     0.71073
_diffrn_reflns_av_R_equivalents  0.0566
_diffrn_reflns_av_unetI/netI     0.0329
_diffrn_reflns_Laue_measured_fraction_full 0.979
_diffrn_reflns_Laue_measured_fraction_max 0.983
_diffrn_reflns_limit_h_max       11
_diffrn_reflns_limit_h_min       -11
_diffrn_reflns_limit_k_max       11
_diffrn_reflns_limit_k_min       -8
_diffrn_reflns_limit_l_max       10
_diffrn_reflns_limit_l_min       -9
_diffrn_reflns_number            2235
_diffrn_reflns_point_group_measured_fraction_full 0.979
_diffrn_reflns_point_group_measured_fraction_max 0.983
_diffrn_reflns_theta_full        25.242
_diffrn_reflns_theta_max         27.408
_diffrn_reflns_theta_min         2.679
_exptl_absorpt_coefficient_mu    26.287
_exptl_absorpt_correction_type   none
_exptl_crystal_density_diffrn    2.786
_exptl_crystal_F_000             386
_refine_diff_density_max         5.078
_refine_diff_density_min         -3.165
_refine_diff_density_rms         0.647
_refine_ls_extinction_method     none
_refine_ls_goodness_of_fit_ref   1.251
_refine_ls_hydrogen_treatment    undef
_refine_ls_matrix_type           full
_refine_ls_number_parameters     10
_refine_ls_number_reflns         414
_refine_ls_number_restraints     0
_refine_ls_restrained_S_all      1.251
_refine_ls_R_factor_all          0.0974
_refine_ls_R_factor_gt           0.0954
_refine_ls_shift/su_max          0.000
_refine_ls_shift/su_mean         0.000
_refine_ls_structure_factor_coef Fsqd
_refine_ls_weighting_details
'w=1/[\s^2^(Fo^2^)+(0.1736P)^2^+5.4826P] where P=(Fo^2^+2Fc^2^)/3'
_refine_ls_weighting_scheme      calc
_refine_ls_wR_factor_gt          0.2868
_refine_ls_wR_factor_ref         0.2902
_reflns_Friedel_coverage         0.000
_reflns_number_gt                394
_reflns_number_total             414
_reflns_threshold_expression     'I > 2\s(I)'
_iucr_refine_instructions_details
;
TITL bwn18304_a.res in P-31c
    bwn18304.res
    created by SHELXL-2018/3 at 13:56:26 on 16-Oct-2018
CELL 0.71073 8.7795 8.7795 8.1964 90 90 120
ZERR 2 0.0012 0.0012 0.0016 0 0 0
LATT 1
SYMM -Y,+X-Y,+Z
SYMM +Y-X,-X,+Z
SYMM -Y,-X,0.5-Z
SYMM +Y-X,+Y,0.5-Z
SYMM +X,+X-Y,0.5-Z
SFAC I C Pb
UNIT 6 2 2

L.S. 4
PLAN  20
TEMP -120
ACTA
CONF
list 4
fmap 2
OMIT -2 4 2
OMIT 2 2 2
OMIT 0 0 2
OMIT 0 2 0
REM <olex2.extras>
REM <HklSrc "%.\\bwn18304.hkl">
REM </olex2.extras>

WGHT    0.173600    5.482600
FVAR       0.40206
PB01  3    1.000000    1.000000    0.500000    10.16667    0.05920    0.05920 =
         0.05359    0.00000    0.00000    0.02960
BR02  1    0.836382    0.672764    0.250000    10.50000    0.08994    0.03077 =
         0.07709    0.00000    0.00053    0.01539
C1    2    0.333333    0.666667    0.389259    10.16667    0.11340
HKLF 4




REM  bwn18304_a.res in P-31c
REM wR2 = 0.2902, GooF = S = 1.251, Restrained GooF = 1.251 for all data
REM R1 = 0.0954 for 394 Fo > 4sig(Fo) and 0.0974 for all 414 data
REM 10 parameters refined using 0 restraints

END  
     
WGHT      0.1737      5.4823 

REM Highest difference peak  5.078,  deepest hole -3.165,  1-sigma level  0.647
Q1    1   0.0000  0.5000  0.5000  10.50000  0.05    2.13
Q2    1   0.3631  0.5955  0.3735  11.00000  0.05    0.88
Q3    1   0.4005  0.5995  0.2500  10.50000  0.05    0.85
Q4    1   0.8453  0.4226  0.2500  10.50000  0.05    0.82
Q5    1   1.0541  0.6421  0.2355  11.00000  0.05    0.76
Q6    1   0.6758  0.4869  0.2078  11.00000  0.05    0.61
Q7    1   0.8425  0.6646 -0.0041  11.00000  0.05    0.52
Q8    1   0.7972  0.5185  0.1143  11.00000  0.05    0.45
Q9    1   0.2788  0.8653  0.4994  11.00000  0.05    0.37
Q10   1   0.8846  0.9423  0.2500  10.50000  0.05    0.33
Q11   1   0.6855  0.4874  0.1070  11.00000  0.05    0.33
Q12   1   0.9317  0.8635  0.2500  10.50000  0.05    0.28
Q13   1   0.5798  0.6400  0.4018  11.00000  0.05    0.26
Q14   1   0.6063  0.4222  0.1460  11.00000  0.05    0.24
Q15   1   0.5189  0.7561  0.5052  11.00000  0.05    0.23

  REM The information below was added by Olex2.
  REM
  REM R1 = 0.0954 for 394 Fo > 4sig(Fo) and 0.0974 for all 2406 data
  REM n/a parameters refined using n/a restraints
  REM Highest difference peak 5.08, deepest hole -3.16
  REM Mean Shift 0, Max Shift 0.000.

  REM +++ Tabular Listing of Refinement Information +++
  REM R1_all = 0.0974
  REM R1_gt = 0.0954
  REM wR_ref = 0.2902
  REM GOOF = 1.251
  REM Shift_max = 0.000
  REM Shift_mean = 0
  REM Reflections_all = 2406
  REM Reflections_gt = 394
  REM Parameters = n/a
  REM Hole = -3.16
  REM Peak = 5.08
  REM Flack = n/a

  
;
_cod_data_source_file            d0ee01736a2.cif
_cod_data_source_block           bwn18304
_cod_depositor_comments          'Adding full bibliography for 1559217.cif.'
_cod_original_cell_volume        547.13(18)
_cod_database_code               1559217
_shelx_shelxl_version_number     2018/3
_shelx_space_group_comment
;
The symmetry employed for this shelxl refinement is uniquely defined
by the following loop, which should always be used as a source of
symmetry information in preference to the above space-group names.
They are only intended as comments.
;
_olex2_refinement_description
;
1. Others
 Fixed Sof: C1(0.16667)
;
_olex2_submission_special_instructions 'No special instructions were received'
loop_
_space_group_symop_operation_xyz
'x, y, z'
'-y, x-y, z'
'-x+y, -x, z'
'-y, -x, -z+1/2'
'-x+y, y, -z+1/2'
'x, x-y, -z+1/2'
'-x, -y, -z'
'y, -x+y, -z'
'x-y, x, -z'
'y, x, z-1/2'
'x-y, -y, z-1/2'
'-x, -x+y, z-1/2'
loop_
_atom_site_label
_atom_site_type_symbol
_atom_site_fract_x
_atom_site_fract_y
_atom_site_fract_z
_atom_site_U_iso_or_equiv
_atom_site_adp_type
_atom_site_occupancy
_atom_site_site_symmetry_order
_atom_site_calc_flag
_atom_site_refinement_flags_posn
_atom_site_refinement_flags_adp
_atom_site_refinement_flags_occupancy
_atom_site_disorder_assembly
_atom_site_disorder_group
Pb01 Pb 1.000000 1.000000 0.500000 0.0573(9) Uani 1 6 d S T P . .
I02 I 0.83638(14) 0.6728(3) 0.250000 0.0725(12) Uani 1 2 d S T P . .
C1 C 0.333333 0.666667 0.389(19) 0.11(4) Uiso 0.5 3 d S T P . .
loop_
_atom_site_aniso_label
_atom_site_aniso_U_11
_atom_site_aniso_U_22
_atom_site_aniso_U_33
_atom_site_aniso_U_23
_atom_site_aniso_U_13
_atom_site_aniso_U_12
Pb01 0.0592(11) 0.0592(11) 0.0536(12) 0.000 0.000 0.0296(5)
I02 0.090(2) 0.0308(13) 0.077(2) 0.000 0.0005(14) 0.0154(6)
loop_
_atom_type_symbol
_atom_type_description
_atom_type_scat_dispersion_real
_atom_type_scat_dispersion_imag
_atom_type_scat_source
I I -0.2901 2.4595 'International Tables Vol C Tables 4.2.6.8 and 6.1.1.4'
C C 0.0033 0.0016 'International Tables Vol C Tables 4.2.6.8 and 6.1.1.4'
Pb Pb -3.3944 10.1111 'International Tables Vol C Tables 4.2.6.8 and 6.1.1.4'
loop_
_geom_angle_atom_site_label_1
_geom_angle_atom_site_label_2
_geom_angle_atom_site_label_3
_geom_angle
_geom_angle_site_symmetry_1
_geom_angle_site_symmetry_3
_geom_angle_publ_flag
I02 Pb01 I02 180.0 7_776 . ?
I02 Pb01 I02 83.90(4) 3_675 2_765 ?
I02 Pb01 I02 96.10(4) 3_675 8_566 ?
I02 Pb01 I02 83.90(4) 7_776 9_656 ?
I02 Pb01 I02 96.10(4) . 8_566 ?
I02 Pb01 I02 96.10(4) . 9_656 ?
I02 Pb01 I02 96.10(4) 9_656 2_765 ?
I02 Pb01 I02 96.10(4) 7_776 3_675 ?
I02 Pb01 I02 83.90(4) 7_776 8_566 ?
I02 Pb01 I02 83.90(4) . 3_675 ?
I02 Pb01 I02 83.90(4) 9_656 8_566 ?
I02 Pb01 I02 180.0 9_656 3_675 ?
I02 Pb01 I02 180.0 2_765 8_566 ?
I02 Pb01 I02 96.10(4) 7_776 2_765 ?
I02 Pb01 I02 83.90(4) . 2_765 ?
Pb01 I02 Pb01 78.95(5) . 4_775 ?
loop_
_geom_bond_atom_site_label_1
_geom_bond_atom_site_label_2
_geom_bond_distance
_geom_bond_site_symmetry_2
_geom_bond_publ_flag
Pb01 I02 3.2232(17) 7_776 ?
Pb01 I02 3.2232(17) 2_765 ?
Pb01 I02 3.2232(17) 3_675 ?
Pb01 I02 3.2232(17) . ?
Pb01 I02 3.2232(17) 8_566 ?
Pb01 I02 3.2232(17) 9_656 ?
loop_
_refln_index_h
_refln_index_k
_refln_index_l
_refln_F_squared_meas
_refln_F_squared_sigma
0 0 1 0.92 0.33
0 0 -1 -0.46 0.41
0 0 -1 -0.11 0.3
0 0 1 1.8 0.3
0 0 2 2061.06 38.13
0 0 -2 2111.95 38.9
0 0 -2 2057.51 37.82
0 0 3 3.09 1.51
0 0 -3 -0.01 1.11
0 0 4 7628.27 140.33
0 0 -4 7960.67 250.88
0 0 -4 7925.17 146.22
0 0 5 0.81 1.71
0 0 -5 1.4 1.29
0 0 6 20.9 4.44
0 0 -6 23.48 3.73
0 0 7 -0.84 2.28
0 0 -7 4.49 2.27
0 0 8 756.61 57.31
0 0 -8 674.23 50.84
0 0 9 1.77 1.11
0 0 10 16.57 4.69
0 1 0 2245.19 40.96
1 0 1 355.12 7
-1 0 -1 336.55 6.67
0 1 1 359.04 7.05
-1 0 1 345.47 6.5
0 -1 -1 333.68 6.55
-1 1 1 339.34 6.65
1 -1 -1 359.48 7
1 -1 -1 357.1 8.3
-1 1 1 347.72 7.14
1 -1 2 1144.71 21.56
0 -1 2 1099.11 20.62
-1 1 -2 1206.77 22.82
0 1 -2 1146.78 21.62
1 0 2 1152.52 22.3
-1 0 -2 1052.24 19.97
-1 0 2 1176.37 21.9
0 1 2 1077.1 20.4
0 -1 -2 1200.16 22.56
1 0 -2 1117.5 20.72
-1 1 2 1068.16 20.06
1 -1 -2 1116.46 20.92
0 1 2 1149.17 22.06
1 -1 -2 1107.31 21.55
-1 1 2 1113.97 21.74
1 -1 3 422.12 9.04
0 -1 3 424.78 9.08
1 0 3 417.88 8.8
0 1 -3 428.79 8.65
-1 0 3 427.76 9.32
-1 0 -3 413.16 8.59
0 1 3 474.86 9.9
-1 1 3 399.03 8.29
0 -1 -3 394.57 8.2
1 0 -3 414.78 8.27
1 -1 -3 421.94 8.63
0 -1 -3 404.82 8.73
1 -1 -3 411.65 8.99
0 1 3 450.19 9.34
-1 1 3 427.38 9.07
1 0 3 438.67 8.42
1 0 -3 429.05 9.12
1 -1 4 2111.45 41.1
0 -1 4 2312.39 45.42
1 0 4 2138.77 41.56
-1 0 4 2266.91 43.78
0 1 4 2176.28 42.18
0 1 -4 2345.51 44.23
-1 1 4 2322.12 43.63
1 0 -4 2073.29 38.6
-1 0 -4 2184.9 40.99
0 -1 -4 2184.51 41.84
1 -1 -4 2136.13 41.23
0 1 4 2243.99 42
1 0 -4 2082.42 39.16
-1 1 -4 2173.85 40.04
-1 1 4 2277.71 42.89
1 -1 5 100.6 6.52
0 -1 5 113.74 6.45
1 0 5 93.96 7.46
-1 0 5 94.2 4.36
0 1 5 108.24 5.13
-1 1 5 103.31 5.04
-1 0 -5 96.63 3.92
0 -1 -5 105 6.28
1 -1 -5 109.45 13.38
-1 1 -5 102.51 4.06
1 0 -5 112.33 7.56
0 1 -5 106.15 4.96
0 1 5 105.37 4.56
1 -1 6 348.19 12.83
0 -1 6 347.28 12.61
1 0 6 329.46 12.47
-1 0 6 345.33 12.96
0 1 6 338.55 12.65
-1 0 -6 381.27 12.72
0 -1 -6 377.95 14.15
1 -1 -6 372.83 13.72
-1 1 -6 365.37 12.93
1 0 -6 380.22 14.07
0 1 -6 332.58 11.78
1 -1 7 9.86 2.27
0 -1 7 12.13 3.05
1 0 7 19.84 3.7
-1 0 7 12.17 2.43
0 1 7 9.84 2.04
-1 1 7 12.47 2.5
0 -1 -7 10.96 2.36
1 -1 -7 18.77 3.6
-1 1 -7 8.61 2.1
1 0 -7 15.65 2.52
0 1 -7 12.56 2.05
1 -1 8 260.4 20.9
0 -1 8 224.79 17.92
-1 0 8 227.21 29.5
-1 1 8 225 19.43
1 -1 -8 258.87 20.75
1 0 -8 244.94 19.39
0 1 -8 230.85 19.01
0 -1 9 4.54 2.4
1 0 9 2.59 2.23
-1 0 9 -2.52 2.32
0 1 9 5.34 2.62
-1 1 9 2.25 1.48
1 -1 -9 2.85 1.47
1 0 -9 5.05 2.12
1 -1 10 27.62 5.07
0 -1 10 24.75 8.64
1 0 10 28.23 6.41
-1 0 10 24.74 6.4
0 1 10 30.36 7.59
-1 1 10 38.98 8.93
1 1 0 721.98 13.35
-1 -1 0 722.28 13.37
-1 2 0 773.32 14.82
1 -2 0 736.66 14.08
2 -1 0 737.15 14.52
-2 1 0 760.19 14.59
-2 1 -1 1.16 0.6
1 1 -1 3.33 0.38
-1 -1 -1 5.17 0.8
-1 2 1 3.27 1.44
1 -2 -1 8.76 1.9
-2 1 1 4.38 0.89
2 -1 -1 5.03 1.86
1 1 -1 1.51 0.27
-1 2 1 2.16 0.91
2 -1 1 1.42 1.19
2 -1 -1 -0.06 1.33
-2 1 1 4.13 1.52
-2 1 -1 3.41 1.13
-1 2 -2 4768.25 87.18
2 -1 2 5626.88 103.34
-1 -1 2 4858.74 88.55
-2 1 -2 5319.21 97.62
1 1 2 5097.36 93.63
-1 -1 -2 4738.73 86.71
-1 2 2 5059.9 92.56
-2 1 2 5026.9 91.77
1 -2 -2 5221.71 95.48
2 -1 -2 5314.66 96.97
-1 2 2 5945.09 109.29
2 -1 -2 5218.71 96.41
-2 1 2 4812.98 88.38
2 -1 3 1.28 0.61
-1 2 -3 3.05 1.27
-1 -1 3 0.72 1.22
-2 1 -3 2.1 1.09
1 1 3 -1.89 1.52
1 1 -3 -0.04 0.58
-1 -1 -3 2.44 0.89
-1 2 3 1.86 1.4
-2 1 3 1.08 1.08
1 -2 -3 -0.09 1.06
2 -1 -3 1.63 0.85
1 -2 -3 -1.29 1.77
1 1 3 0.5 0.69
-1 2 3 2.83 1.2
1 -2 4 236.9 6
2 -1 4 257.37 6.34
-1 -1 4 252.87 6.45
1 1 4 246.53 6.15
-2 1 4 245.85 6
1 1 -4 227.06 5.06
-1 2 4 231.82 5.86
2 -1 -4 238.17 5.5
1 -2 -4 235.26 6.46
1 1 4 235.48 8.87
-1 2 4 230.93 10.86
2 -1 -4 244.25 7.58
2 -1 5 3.2 2.64
-1 -1 5 0.76 1.88
1 1 5 2.05 1.68
-2 1 5 5.32 3.27
-1 2 5 0.43 1.97
1 -2 -5 -1.49 1.96
2 -1 -5 2.76 2.33
1 1 5 2.74 0.84
1 1 -5 2.39 1.76
1 -2 6 927.75 31.88
2 -1 6 920.63 31.7
-1 -1 6 932.38 31.57
1 1 6 951.4 32.48
-2 1 6 937.41 32.38
-1 2 6 930.82 32.45
1 -2 -6 998.55 34
2 -1 -6 987.44 34.26
1 1 -6 1044.41 34.43
-1 2 -6 969.36 31.41
1 1 6 843.84 27.3
1 -2 7 1.24 2.1
2 -1 7 1.18 2.89
-1 -1 7 1.57 1.33
1 1 7 2.7 1.56
-2 1 7 1.9 1.52
-1 2 7 5.12 2.54
1 -2 -7 9.25 1.99
2 -1 -7 0.4 2.27
-1 2 -7 4.56 1.34
1 1 -7 1.89 1.85
1 -2 8 81.08 15.9
2 -1 8 84.44 11.1
-1 -1 8 89.36 13.66
1 1 8 87.05 12.33
-2 1 8 102.04 12.28
-1 2 8 91.1 13.07
1 -2 -8 120.62 10.69
2 -1 -8 82.83 12.64
1 1 -8 101.76 11.04
1 -2 9 -1.16 2.15
2 -1 9 2.8 1.57
-1 -1 9 4.25 2.7
1 1 9 5.43 2.42
-2 1 9 1.75 1.69
-1 2 9 5 2.13
2 -1 -9 1.37 1.74
1 1 -9 2.77 1.39
1 -2 10 55.93 9.02
2 -1 10 55.35 13.22
-1 -1 10 38.26 10.53
1 1 10 54.85 12.02
-2 1 10 56.01 13.55
-1 2 10 57.8 14.53
-2 0 0 31.04 2.12
0 -2 0 29.35 1.51
-2 2 0 23.43 1.59
2 -2 0 29.13 4.76
-2 2 0 37.81 3.93
-2 0 -1 5518.73 100.79
0 2 1 6334.59 115.51
0 -2 -1 5641.15 102.94
-2 2 1 6500.05 118.74
-2 0 1 5782.45 105.09
2 -2 -1 6319.69 115.41
0 2 -1 5250.71 95.63
-2 2 -1 6031.21 110.43
2 -2 -1 6767.86 124.76
-2 2 1 5726.74 105.6
-2 2 -2 6018.69 110.69
0 2 -2 7150.59 130.38
2 0 2 6680.98 122.53
-2 0 -2 5637.74 103.23
0 2 2 6288.73 114.89
-2 0 2 6769.49 123.19
0 -2 -2 6419.92 117.41
-2 2 2 5671.12 103.63
2 0 -2 6760.96 122.95
2 -2 -2 6134.03 113.74
-2 2 2 6251.99 115.72
-2 2 -3 2424.78 45.48
0 2 -3 2507.67 46.43
-2 0 -3 2422.21 45.24
-2 0 3 2587.4 47.74
0 2 3 2575.33 47.93
-2 2 3 2636.46 49.05
0 -2 -3 2543.8 47.53
2 -2 -3 2553.61 47.35
0 2 3 2462.74 46.54
-2 2 3 2490.46 48.2
2 -2 5 893.49 31.03
0 -2 5 849.47 28.32
2 0 5 954.53 32.02
-2 0 5 827.16 28.6
0 2 5 880.99 29.5
-2 2 5 899.85 29.64
2 -2 -5 826.28 29.03
0 2 5 842.92 28.85
2 0 -5 813.66 26.91
-2 2 -5 868.17 27.64
2 -2 6 1156.99 40.89
0 -2 6 1078.79 37.91
2 0 6 1285.08 44.24
-2 0 6 1085.57 36.86
0 2 6 1218.04 40.97
-2 2 6 1320.13 43.49
2 -2 -6 1198.97 41.19
-2 2 -6 1147.62 36.84
2 0 -6 1125.2 40.12
0 -2 7 182.43 11.37
2 0 7 192.01 12.01
-2 0 7 168.78 10.83
0 2 7 165.41 10.2
-2 2 7 196.06 15.11
2 -2 -7 173.98 13.84
-2 2 -7 173.69 10.44
2 0 -7 203 18.37
0 2 -7 172.24 10.47
0 -2 8 53.28 8.06
2 0 8 67.03 12.13
-2 0 8 51.68 12.28
0 2 8 58.45 11.27
-2 2 8 61.92 9.78
2 -2 -8 42.76 9.86
2 0 -8 55.43 11.69
0 2 -8 47.81 8.39
2 -2 9 29.21 5.87
0 -2 9 19.04 5.06
2 0 9 21.31 3.7
-2 0 9 28.62 6.81
0 2 9 22.17 3.89
-2 2 9 17.39 3.62
2 -2 -9 16.44 6.51
2 0 -9 13.85 4.22
2 -2 10 65.59 10.02
0 -2 10 59.68 9.25
-2 0 10 45.67 10.56
0 2 10 49.38 11.56
-2 2 10 43.21 13.96
-2 -1 0 2579.24 47.17
1 2 0 2384.98 43.63
-1 -2 0 2615.05 47.9
-2 3 0 2576.81 47.95
1 -3 0 2515.41 46.56
-2 3 0 2795.27 52.48
3 -2 0 2464.39 47.13
-3 2 0 2589.35 48.42
3 -1 0 2544.11 47.44
-3 1 -1 414.88 8.54
2 1 1 387.41 7.96
-2 -1 -1 383.4 7.76
1 2 1 362.85 7.31
-1 -2 -1 396.23 8.05
-1 3 1 390.51 8.19
1 2 -1 411.12 7.8
-2 3 1 406.09 8.69
1 -3 -1 421.55 8.68
-3 2 1 405.99 8.73
2 -3 -1 348.39 7.66
-3 1 1 394.95 8.08
-1 3 -1 372.58 7.83
3 -2 -1 368.9 7.68
-2 3 1 423.99 9.34
3 -2 1 404.93 9.4
3 -2 -1 388.03 9.31
-3 2 -1 398.03 8.45
-3 2 1 396.47 8.89
3 -1 1 398.03 8.36
3 -1 -1 399.84 9.21
-3 2 -2 1030.55 20.41
-2 -1 2 1151.17 21.1
1 2 -2 1131.59 21.09
-3 1 -2 1045.5 20.27
2 1 2 1041.34 20.21
1 2 2 1074.84 20.58
-2 -1 -2 1005.9 19.37
-1 -2 -2 1085.42 20.84
-1 3 2 1047.28 20.23
-2 3 2 1042.69 20.12
-3 1 2 1059.8 20.06
-3 2 2 1058.04 20.32
1 -3 -2 1026.22 19.81
2 1 -2 1054.74 19.27
2 -3 -2 1016.25 19.56
3 -2 -2 1070.69 20.45
3 -1 -2 1059.54 19.96
2 -3 -2 1078.99 21.81
-1 3 2 1050.65 20.35
-2 3 2 1019.31 20.63
3 -2 -2 1059.67 21.65
-3 2 -2 1093.67 21.1
3 -1 2 1080.64 20.65
-3 2 2 1015.69 20.06
3 -1 -2 1055.91 21.12
3 -1 3 311.81 8.01
-1 3 -3 271.39 6.05
-2 -1 3 310 6.43
1 2 -3 315.18 6.46
1 2 3 307.87 7.17
-1 3 3 303.54 6.96
-3 1 3 313.32 6.85
-2 3 3 350.78 7.77
2 1 -3 295.1 5.82
-3 2 3 292.08 6.57
3 -1 -3 308.76 6.65
3 -2 -3 293.55 6.42
2 -3 -3 305.37 12.16
3 -1 3 319.55 6.24
-1 3 3 305.03 7.61
3 -2 -3 321.08 8.44
3 -1 -3 289.97 7.71
-3 2 -3 301.12 5.85
3 -1 4 1309.71 26.65
-2 -1 4 1344.35 26.57
2 1 4 1259.03 25.37
1 2 4 1284.72 26.32
1 2 -4 1337.04 25.16
-3 1 4 1323.29 25.57
-1 3 4 1336 26.14
-2 3 4 1352.36 26.45
-3 2 4 1260.5 24.52
2 1 -4 1320.73 24.74
3 -1 -4 1262.06 24
2 -3 -4 1332.83 28.3
2 1 4 1380.51 26.67
1 2 4 1267.11 25.29
3 -2 -4 1338.73 27.92
3 -1 -4 1272.44 26.71
3 -2 5 92.89 5.11
-1 -2 5 94.07 4.43
3 -1 5 72.61 9.05
-2 -1 5 81.54 3.91
2 1 5 96.29 11.61
1 2 5 93.87 8.63
-3 1 5 97.53 4.6
1 2 -5 78.62 3.34
-1 3 5 84.58 4.62
-3 2 5 79.62 4.11
-2 3 5 80.31 4.39
2 1 -5 80.42 3.37
2 -3 -5 95.31 13.38
1 2 5 80.72 5.33
3 -2 -5 107.36 8.08
2 1 5 81.92 4.93
3 -1 -5 100.84 10.19
3 -2 6 343.69 22.1
-1 -2 6 359.73 21.12
3 -1 6 336.3 19.77
-2 -1 6 331.07 20.48
2 1 6 332.47 19.38
1 2 6 327.98 19.05
-3 1 6 348.42 20.17
-1 3 6 412.63 23.97
-3 2 6 367.07 21.06
-2 3 6 341.06 19.72
2 -3 -6 356.21 22.21
3 -2 -6 336.61 20.19
3 -1 -6 383.59 23
1 2 6 312.65 18.05
2 1 6 344.82 19.21
2 1 -6 354.47 20.63
3 -2 7 20.39 3.36
-1 -2 7 15.87 3.28
3 -1 7 13.17 3.21
-2 -1 7 15.48 2.71
2 1 7 15.42 3.09
1 2 7 15.97 2.61
-3 1 7 13 2.15
-1 3 7 15.46 3.22
-3 2 7 14.79 2.79
-2 3 7 19.48 3.3
2 -3 -7 7.84 2.66
3 -2 -7 18.96 4.81
3 -1 -7 18.2 3.78
2 1 -7 11.84 2.44
-2 3 -7 18.38 1.81
1 2 -7 13.6 2.22
-1 3 -7 11.07 1.8
3 -2 8 152.15 12.71
-1 -2 8 121.87 18.11
3 -1 8 161.94 19.96
-2 -1 8 115.15 18.86
2 1 8 153.73 19.28
1 2 8 170.4 15.32
-3 1 8 138.69 17.45
-1 3 8 146.39 18.43
-3 2 8 166.7 20.3
-2 3 8 155.26 17.73
2 -3 -8 168.69 14.24
3 -2 -8 119.14 12.11
3 -1 -8 132.46 14.97
2 1 -8 132.83 15.02
-1 3 -8 127.49 9.99
1 2 -8 147.67 12.09
3 -2 9 3.46 2.36
-1 -2 9 3.91 1.42
3 -1 9 7.19 3.86
-2 -1 9 1.11 1.48
2 1 9 5.78 3.97
1 2 9 10.75 3.36
-3 1 9 5.91 2.84
-3 2 9 3 2.09
-1 3 9 2.55 2.13
-2 3 9 5.81 3.94
3 -2 -9 -0.46 2.14
3 -1 -9 2.07 1.82
2 1 -9 1.95 1.55
1 2 -9 -0.56 0.91
-1 -2 10 24.75 4.55
3 -1 10 37.44 8.1
-2 -1 10 14.11 5.59
2 1 10 24.26 8.51
1 2 10 37.47 7.86
-3 1 10 25.85 5.93
-3 2 10 33.13 7.62
-1 3 10 25.64 8.57
-2 3 10 31.42 9.55
-3 0 0 810.64 15.41
0 3 0 767.36 14.76
0 -3 0 731.84 14.15
-3 3 0 849.64 16.94
3 -3 0 741.06 15.47
-3 3 0 738.77 15.15
3 0 1 12.46 1.22
-3 0 -1 17.78 1.98
0 3 1 16.77 1.68
0 -3 -1 14.69 1.2
-3 3 1 14.56 1.6
0 3 -1 16.36 1.78
-3 0 1 15.07 1.02
3 -3 -1 15.64 1.39
3 -3 -1 19.26 3.85
-3 3 -1 20.88 2.39
-3 3 1 18.72 3.6
3 0 2 2742.16 51.65
-3 0 -2 2412 45.42
-3 0 2 2804.33 51.3
0 -3 -2 2649.31 49.21
-3 3 2 2924.78 54.55
-3 3 -2 2743.03 52.36
3 -3 -2 2574.97 50.65
0 3 -3 9.58 1.87
3 0 3 14.5 3.58
-3 0 3 12.44 1.16
0 3 3 14.84 2.17
-3 3 3 12.96 2.15
3 0 -3 10.87 1.02
0 3 3 18.31 1.83
-3 3 -3 13.94 2.52
3 -3 -3 37.33 4.67
3 0 4 376.59 13.32
0 3 -4 336.13 11.31
-3 0 4 326.03 11.25
0 3 4 348.74 12.24
-3 3 4 367.39 12.8
3 0 -4 329.09 10.88
-3 3 -4 388.97 12.73
3 0 4 314.79 10.5
3 0 -4 370.7 13.65
3 0 5 11.23 3.66
-3 0 5 8.73 2.2
0 3 5 8.89 2.5
-3 3 5 6 1.99
3 0 -5 4.58 1.13
3 -3 -5 15.08 2.56
3 0 -5 12.44 2.44
3 0 6 546.21 33.95
-3 0 6 468.09 27.54
0 3 6 595.83 33.79
-3 3 6 512.75 29.06
-3 3 -6 607.02 33.32
3 -3 -6 532 30.78
-3 3 -6 511.75 28.06
3 0 -6 547.38 31.21
3 0 7 6.91 4.98
-3 0 7 5.63 2.66
0 3 7 6 2.23
-3 3 7 7.59 2.91
3 -3 -7 8.27 4.5
3 0 -7 6.49 3.4
3 0 8 83.34 18.06
-3 0 8 69.17 14.12
0 3 8 101.64 13.78
-3 3 8 84.33 12.64
3 -3 -8 83.65 8.87
3 0 -8 92.64 11.88
0 3 -8 93.18 7.94
3 0 9 3.1 2.26
0 3 9 5.08 1.9
-3 3 9 3.59 1.98
3 -3 -9 5.9 2.85
3 0 -9 1.1 1.76
3 0 10 32.82 8.48
-3 0 10 24.12 5.77
0 3 10 38.11 12.38
-3 3 10 31.63 10.16
2 2 0 9562.1 300.82
-2 -2 0 8601.57 270.55
2 -4 0 7740.64 141.6
4 -2 0 9999 315.66
-4 2 0 9514.25 299.77
2 2 -1 0.82 0.28
2 2 1 1.42 0.86
-2 -2 -1 1.44 0.47
-2 4 1 0.4 2.19
-4 2 1 2.62 2.08
-2 4 -1 2.81 2.19
4 -2 1 2.78 1.57
4 -2 -1 9.75 3.56
2 2 2 343.62 8.51
-2 -2 -2 329.24 7.32
-2 4 2 328.89 7.61
-4 2 2 371.54 8.45
4 -2 -2 308.3 6.72
4 -2 2 313.29 7.13
4 -2 -2 357.19 9.09
2 2 3 4.25 1.06
2 2 -3 0.99 0.27
-2 4 3 0.81 1.97
-4 2 3 3.25 1.33
4 -2 -3 0.23 1.01
4 -2 -3 5.83 2.35
2 2 4 3470.86 111.86
2 2 -4 4030.49 220.19
-2 4 4 3420.91 108.79
-4 2 4 3902.53 123.8
4 -2 -4 3963.61 218.88
2 2 5 -0.17 2.23
-4 2 5 11.24 2.41
-2 4 5 1.12 2.19
2 2 -5 1.47 0.82
2 2 5 -0.07 0.82
4 -2 -5 4.06 2.49
4 -2 6 7.74 1.55
-2 -2 6 9.74 2.18
2 2 6 10.48 2.26
-4 2 6 9.21 2.41
-2 4 6 15.09 2.91
2 2 6 3.31 1.22
4 -2 -6 7.54 3.73
4 -2 7 4.43 2.03
-2 -2 7 4.5 1.36
2 2 7 3.44 1.72
-4 2 7 8.4 3.38
-2 4 7 3.37 2.31
4 -2 -7 3.28 1.47
2 2 -7 5.49 1.96
4 -2 8 311.92 24.47
-2 -2 8 282.18 21.71
2 2 8 324.97 60.72
-4 2 8 354.01 66.31
-2 4 8 308.15 31.91
4 -2 -8 349.58 65.91
2 2 -8 315.62 24.3
-2 -2 9 3.5 2.06
2 2 9 3.74 2.57
-4 2 9 6.29 2.71
4 -2 -9 1.95 1.86
2 2 -9 1.69 0.94
-3 -1 0 2539.58 46.7
1 3 0 2575.11 47.42
-1 4 0 2747.76 51.15
-1 -3 0 2347.91 43.38
-3 4 0 2371.41 44.7
1 -4 0 2517.65 46.96
-4 3 0 2282.83 42.87
-3 4 0 2556.29 49.35
4 -3 0 2495.01 49.83
-4 3 0 2421.26 45.92
4 -1 0 2495.91 47.07
3 1 2 516.78 11.02
-3 -1 -2 479.31 10.18
1 3 2 426.96 9.05
-1 4 2 480.83 10.46
-1 -3 -2 462.64 9.96
-3 4 2 483.58 10.84
-4 1 2 460.72 9.5
-4 3 2 471.76 10.44
1 3 -2 502.99 9.86
-1 4 -2 447.44 9.52
4 -3 -2 448.39 11.92
-4 3 -2 476.97 10.38
4 -1 2 467.52 9.95
4 -1 -2 453.45 10.73
4 -1 3 228.83 5.88
-3 -1 3 250.39 5.11
3 1 3 267.81 6.81
1 3 -3 239.78 5.41
1 3 3 267.41 6.56
-1 4 3 238.12 6.34
-4 1 3 269.57 6.2
-3 4 3 230.69 6.46
3 1 -3 252.26 4.94
4 -1 -3 247.53 5.63
3 -4 -3 258.87 8.91
4 -3 -3 246.9 12.98
-4 3 -3 239.14 5.46
4 -1 3 245.92 5.87
4 -1 -3 260.61 7.96
4 -1 4 1272.27 41.91
-3 -1 4 1168.46 37.66
3 1 4 1265.18 41.89
1 3 -4 1190.16 38.45
1 3 4 1313.54 42.66
-1 4 4 1167.48 38.11
-4 1 4 1084.14 34.94
-3 4 4 1210.44 39.52
-4 3 4 1202.96 39.16
3 1 -4 1256.72 39.88
4 -1 -4 1125.07 36.04
3 -4 -4 1052.96 35.8
4 -3 -4 1246.75 46.11
4 -1 -4 1160.37 38.46
-4 3 -4 1176.84 37.25
4 -1 5 81.48 10.95
-3 -1 5 67.94 5.92
3 1 5 100.1 11.54
1 3 -5 63.67 2.87
-4 1 5 72.43 4.09
-1 4 5 66.52 3.85
-3 4 5 66.4 4.51
-4 3 5 72.01 4.28
3 1 -5 64.65 2.82
3 -4 -5 69.46 11.45
3 1 5 57.31 5.33
4 -3 -5 68.94 14.62
4 -1 -5 77.71 12.45
4 -1 6 195.21 12.34
-3 -1 6 155.1 9.71
3 1 6 228.31 21.65
1 3 6 189.47 14.8
-4 1 6 156.48 9.97
-1 4 6 185.45 11.56
-4 3 6 172.08 10.74
-3 4 6 181.28 11.28
3 -4 -6 158.11 10.65
4 -3 -6 212.09 14.12
4 -1 -6 179.74 17.59
3 1 -6 182.89 11.74
4 -1 7 16.64 4.95
-3 -1 7 15.71 3.23
3 1 7 14.75 3.86
1 3 7 19.45 3.53
-4 1 7 14.97 2.64
-1 4 7 13.44 3.23
-4 3 7 22.01 4
3 -4 -7 10.85 2.23
4 -3 -7 7.43 3.92
4 -1 -7 11.98 5.03
3 1 -7 9.06 3.55
4 -1 8 132.35 15.53
-3 -1 8 122.77 9.94
3 1 8 161.86 17.98
1 3 8 130.45 22
-4 1 8 110.82 18.35
-1 4 8 145.31 16.71
-4 3 8 137.81 19.01
-3 4 8 199.74 16.66
4 -3 -8 145.94 24.14
4 -1 -8 157.11 13.94
3 1 -8 147.5 12.72
1 3 -8 137.44 11.36
4 -1 9 2.98 1.35
3 1 9 3.13 1.97
-4 1 9 3.4 1.94
1 3 9 3.56 2.45
-1 4 9 1.14 1.63
-4 3 9 1.74 2.53
-3 4 9 3.23 2.03
4 -3 -9 1.3 1.93
4 -1 -9 4.9 2.56
3 1 -9 5.06 2.51
1 3 -9 6.16 2.06
-4 0 0 88.88 4.04
0 4 0 69.19 2.74
0 -4 0 73 2.76
-4 4 0 81.71 3.65
4 -4 0 85.41 4.94
-4 0 1 2095.67 38.89
-4 0 -1 1840.5 34.94
0 4 1 2076.32 38.89
0 4 -1 1878.87 35.04
0 -4 -1 1878.81 35.53
-4 4 1 2011.71 38.45
-4 0 1 1982.46 36.75
4 -4 -1 1944.37 39.48
-4 4 -1 1898.79 36.53
4 0 2 3055.32 57.75
0 4 2 2588.91 48.28
-4 0 2 2685.59 49.26
-4 4 2 2706.93 51.01
0 4 -2 2777.14 51.48
4 -4 -2 2653.74 53.48
-4 4 -2 2597.58 49.75
0 4 -3 894.69 29.32
4 0 3 1119.9 36.64
-4 0 3 1053.59 33.59
0 4 3 1041.97 33.77
-4 4 3 1037.04 33.86
4 -4 -3 1049.14 36.12
-4 4 -3 1176.02 38.45
4 0 4 120.07 10.14
-4 0 4 117.63 4.65
0 4 4 98.95 4.9
-4 4 4 110.82 5.53
4 0 -4 111.52 4.25
4 -4 -4 106.82 8.67
-4 4 -4 137.59 6.04
4 0 -4 108.92 5.84
4 0 5 347.39 12.82
-4 0 5 318.93 18.59
0 4 5 389.41 22.5
4 0 -5 366.39 12.32
4 -4 -5 382.44 23.25
-4 4 -5 360.51 20.56
4 0 -5 353.03 13.75
4 0 6 565.57 32.47
-4 0 6 493.01 27.96
0 4 6 669.45 37.94
-4 4 6 509.44 29.14
4 -4 -6 498.43 29.64
4 0 -6 486.2 27.97
4 0 7 92.96 12.33
0 4 7 99.1 12.76
-4 4 7 72.93 7.03
4 -4 -7 71.86 16.28
4 0 -7 66.6 13.34
4 0 8 43.62 8.83
-4 0 8 35.61 7.45
0 4 8 43.35 7
-4 4 8 43.63 4.99
4 -4 -8 39.81 11
4 0 -8 34.52 10.27
4 0 9 9.9 2.82
0 4 9 4.95 2.55
-4 4 9 15.07 4.35
4 -4 -9 9.15 3.06
4 0 -9 13.99 4.55
3 2 0 1632.13 31.23
2 3 0 1630.77 30.33
-3 -2 0 1577.02 29.38
-2 -3 0 1580.64 29.61
-2 5 0 1672.8 32.32
-3 5 0 1585.49 31
-5 3 0 1648.73 31.8
3 2 1 42.93 4.18
2 3 1 45.55 2.28
2 3 -1 41.63 1.3
-3 -2 -1 28.2 1.56
-2 -3 -1 28.07 1.7
-2 5 1 40.4 3.03
-3 5 1 36.5 2.79
-2 5 -1 41.6 2.67
-5 3 1 41.46 3.55
-5 2 1 33.19 2.38
-3 5 -1 35.99 2.72
5 -3 1 31.96 6.42
5 -3 -1 44.96 6.55
5 -2 1 43.61 6.27
5 -2 -1 44.41 8.52
-5 3 -1 44.92 2.67
2 3 -2 410.22 13.01
3 2 2 440.26 14.96
2 3 2 406.4 13.76
-2 5 2 413.14 14.11
-3 5 2 417.35 14.39
-5 3 2 410.21 14.07
-5 2 2 393.11 13.33
-2 5 -2 419.11 14.28
5 -3 2 434.02 15.54
5 -3 -2 439.74 16.21
5 -2 2 456.76 17.63
5 -2 -2 449.62 16.34
-5 3 -2 447.65 14.83
3 2 3 30.15 3.48
2 3 3 26.3 4.55
2 3 -3 25.06 1.02
-3 5 3 23.13 2.89
-5 2 3 24.36 2.08
2 3 -3 31.53 1.31
5 -2 -3 27.76 1.99
5 -2 3 23.22 3.59
5 -3 -3 30.62 5.41
5 -2 -3 32.57 6.21
3 2 4 779.38 26.9
2 3 4 806.21 29.52
2 3 -4 816.12 25.97
-2 5 4 746.11 24.98
-5 2 4 737.06 24.33
-3 5 4 768.2 25.86
-5 3 4 764.02 25.46
3 2 -4 741.02 23.42
5 -3 -4 805.04 30.06
5 -2 -4 753.42 31.42
3 2 5 2.46 1.92
2 3 5 8.63 1.64
2 3 -5 3.22 0.67
-2 5 5 4.85 1.95
-5 2 5 5.83 1.65
-3 5 5 4.51 3.68
-5 3 5 9.05 2.69
3 2 -5 5.52 0.91
5 -3 -5 5.92 3.75
5 -2 -5 -1.13 3.5
3 2 6 127.77 11.77
2 3 6 137.69 15.26
-5 2 6 147.38 12.14
-2 5 6 131.18 10.91
-5 3 6 136.28 11.18
-3 5 6 153.84 12.7
5 -3 -6 156.52 23.13
5 -2 -6 158.3 18.46
3 2 7 4.22 2.05
2 3 7 1.81 1.78
-5 2 7 2.76 2.16
-2 5 7 0.55 2.22
-5 3 7 -0.33 2.21
-3 5 7 2.44 2.35
5 -3 -7 -1.79 2.72
5 -2 -7 4.57 2.95
3 2 -7 4.5 2.28
3 2 8 115.83 13.81
2 3 8 104.83 19.68
-5 2 8 89.12 13.95
-5 3 8 120.81 11.16
-2 5 8 121.27 11.26
-3 5 8 109.47 9.77
5 -3 -8 76.16 19.54
5 -2 -8 98.96 17.52
3 2 -8 91.21 8.72
2 3 -8 96.58 8.62
3 2 9 7.94 2.46
2 3 9 1.79 1.66
-5 2 9 2.35 1.87
-5 3 9 1.75 1.59
-2 5 9 5.19 1.87
-3 5 9 5.85 1.79
5 -3 -9 2.31 1.96
5 -2 -9 4.28 2.12
3 2 -9 1.71 1.64
2 3 -9 2.25 2.14
-5 1 0 211.23 5.1
-4 -1 0 204.66 4.93
-1 5 0 211.88 5.82
-1 -4 0 190.78 6.9
-4 5 0 221.1 6.99
-5 4 0 212.61 6.88
4 1 1 14.05 2.94
-5 1 -1 9.55 1.78
-4 -1 -1 9.74 1.46
-4 -1 1 11.39 0.76
1 4 1 13.76 1.92
1 4 -1 12.59 1.4
-1 5 1 13.91 1.86
-1 -4 -1 12.74 1.58
-4 5 1 13.68 2.81
-1 5 -1 9.86 1.8
-5 4 1 8.94 1.72
-5 1 1 12.47 1.64
-4 5 -1 11.64 2.57
-4 -1 1 10.53 0.84
5 -4 1 12.87 3.81
5 -4 -1 18.73 3.44
5 -1 -1 20.06 2.99
5 -1 1 10.69 1.94
4 1 2 1657.28 54.43
1 4 2 1701.27 54.35
-1 5 2 1854.67 59.46
-4 5 2 1730.74 55.81
1 4 -2 1867.2 59.15
-5 1 2 1860.89 59.27
-5 4 2 1626.5 52.53
-1 5 -2 1626.4 52.12
5 -4 -2 1765.46 59.86
-5 4 -2 1652.13 53.32
5 -1 2 1704.73 54.74
5 -1 -2 1673.69 54.29
1 4 -3 5.39 0.91
4 1 3 8.05 1.55
1 4 3 13.04 2.26
-1 5 3 7.68 1.93
-5 1 3 6.49 1.22
-4 5 3 6.86 3.91
-5 4 3 8.39 3.41
1 4 -3 7.7 1.41
-1 5 -3 8.21 1.64
4 -5 -3 6.88 3.97
5 -4 -3 9.72 4.03
-5 4 -3 7.47 1.73
5 -1 3 11.86 1.71
5 -1 -3 5.01 2.29
-4 -1 4 133.47 4.53
4 1 4 138.59 7.14
1 4 -4 112.99 4.56
1 4 4 145.14 6.2
-1 5 4 135.43 6.42
-5 1 4 141.8 5.78
-4 5 4 165.56 7.73
-5 4 4 154.29 7
5 -1 -4 135.77 5.25
4 -5 -4 183.56 11.3
-4 5 -4 136.67 5.71
5 -4 -4 159.97 22.52
5 -1 4 151.24 5.78
-5 4 -4 130.08 4.81
5 -1 -4 128.24 7.44
5 -1 5 2.43 1.71
-4 -1 5 6.02 1.08
4 1 5 4.32 3.17
1 4 -5 1.42 0.69
1 4 5 8.17 2.42
-5 1 5 6.26 1.53
-1 5 5 8.14 2.95
-4 5 5 11.62 3.62
-5 4 5 6 3.03
4 1 -5 1.82 0.94
4 -5 -5 8.56 3.43
5 -4 -5 13.8 4.99
5 -1 -5 5.74 3.04
5 -1 6 369.88 28.26
-4 -1 6 291.59 22.18
4 1 6 380.36 29.15
1 4 6 370.47 29.53
-5 1 6 312.62 24.01
-1 5 6 394.95 30.17
-4 5 6 331.24 25.43
-5 4 6 354.45 26.99
4 -5 -6 361.17 28.27
5 -4 -6 555.84 48.7
5 -1 -6 325.86 25.79
4 1 -6 370.76 28.51
5 -1 7 4.34 2.19
4 1 7 1.79 2.04
-5 1 7 1.78 1.55
1 4 7 4.98 2.16
-1 5 7 7.12 3.62
-5 4 7 3.99 1.95
-4 5 7 8.44 3.82
5 -4 -7 2.55 3.73
5 -1 -7 3.76 2.57
4 1 -7 2.74 2.54
5 -1 8 37.74 7.91
4 1 8 49.92 13.74
-5 1 8 27.93 7.69
1 4 8 33.02 9.22
-1 5 8 48.18 11.11
-5 4 8 57.55 11.88
-4 5 8 57.81 11.78
5 -4 -8 39.17 13.75
5 -1 -8 38.62 11.36
4 1 -8 37.26 8.13
5 -1 9 6.86 2.74
4 1 9 0.13 2.01
1 4 9 5.48 2.63
-1 5 9 2.77 1.4
-5 4 9 -0.37 1.99
-4 5 9 1.51 2.11
5 -4 -9 4.32 2.65
5 -1 -9 2.49 1.76
4 1 -9 4.18 1.55
1 4 -9 2.14 2.08
-5 0 0 571.79 18.82
0 5 0 603.04 19.75
-5 5 0 648.75 21.97
-5 0 1 13.75 2.32
-5 0 -1 13.43 1.81
0 5 1 18.33 2.38
0 5 -1 22.83 2.08
-5 5 1 16.55 2.84
-5 0 1 23.85 1.84
5 -5 -1 27.4 4.62
-5 0 2 686.13 22.07
0 5 2 615.37 20.42
-5 0 2 568.92 18.3
-5 5 2 678.84 23.2
0 5 -2 625.86 20.56
5 -5 -2 620.52 22.73
5 0 3 16.91 2.34
0 5 3 13.1 1.82
-5 0 3 13.71 0.95
-5 5 3 15.64 3.31
0 5 -3 17.55 2.41
5 -5 -3 25.2 6.13
-5 5 -3 10.08 3.13
5 0 -3 15.79 3.07
5 0 4 358.22 22.72
-5 0 4 296.28 16.55
0 5 4 292.83 16.93
-5 5 4 346.26 20.72
0 5 -4 273.23 15.62
5 -5 -4 305.91 19.38
-5 5 -4 319.51 18.54
5 0 -4 301.2 17.97
5 0 5 7.42 2.1
-5 0 5 3.13 0.94
0 5 5 6.04 2.52
-5 5 5 11.35 3.55
5 -5 -5 13.71 3.56
5 0 -5 8.45 4.21
5 0 6 208.81 16.88
0 5 6 283.92 22.47
-5 5 6 194.06 15.6
5 -5 -6 214.47 17.78
5 0 -6 221.96 18.16
5 0 7 3.29 2.34
0 5 7 2.28 2.03
-5 5 7 3.62 2.34
5 -5 -7 4.3 2.83
5 0 -7 0.41 2.23
5 0 8 45.55 13.2
0 5 8 40.36 11.43
-5 5 8 50.73 10.24
5 -5 -8 31.13 11.59
5 0 -8 41.05 10.77
5 0 9 3.62 2.03
0 5 9 2.63 1.86
-5 5 9 2.18 2.17
5 -5 -9 1.31 2.09
5 0 -9 2.89 2.55
3 3 0 43.21 2.95
-3 -3 0 35.68 1.92
-3 6 0 49.41 4.09
6 -3 0 62.74 8.96
3 3 -1 0.09 0.24
3 3 1 -0.2 1.18
-3 -3 -1 3.85 1.4
-3 6 1 4.68 4.19
-3 6 -1 3.46 2.75
-6 3 1 30.42 4.93
6 -3 1 -0.09 2.77
6 -3 -1 1.03 2.63
3 3 2 1590.23 52.25
-3 6 2 1674.91 54.41
-6 3 2 1627.97 52.65
-3 6 -2 1809.66 58.58
6 -3 2 1584.12 55.64
6 -3 -2 1683.42 57.17
3 3 3 1.87 1.18
-3 6 3 9.15 3.35
-6 3 3 6.12 3.08
6 -3 3 6.67 1.91
6 -3 -3 5.12 3.82
3 3 4 50.01 7.77
-3 6 4 47.96 4.95
-6 3 4 48.48 4.58
6 -3 -4 57.72 12.01
3 3 5 3.79 1.65
-3 6 5 3.95 2.19
-6 3 5 4.82 2.05
6 -3 -5 -1.19 3.85
3 3 6 335.74 25.8
-6 3 6 306.96 23.55
-3 6 6 316.33 24.62
6 -3 -6 315.92 32.16
3 3 7 2.95 1.44
-6 3 7 -0.83 1.51
-3 6 7 7.84 3.26
6 -3 -7 5.27 2.86
3 3 8 27.86 7.52
-6 3 8 31.57 6.89
-3 6 8 21.78 5.38
6 -3 -8 10.55 4.25
3 3 -8 25.28 5.46
3 3 9 0.87 1.94
-6 3 9 1.7 0.9
-3 6 9 5.93 2.57
6 -3 -9 8.03 3.89
3 3 -9 2.12 2.48
2 4 0 65.27 3.04
-4 -2 0 58.84 2.6
-2 -4 0 49.05 2.57
-4 6 0 64.47 4.59
-6 4 0 63.42 4.71
6 -4 0 60.35 10.63
6 -2 0 79.23 5.88
4 2 1 714.23 23.89
2 4 1 789.24 25.65
2 4 -1 743.46 23.76
-4 -2 -1 613.64 20.15
-2 6 1 724.87 24.25
-2 -4 -1 636.96 20.95
-4 6 1 726.53 24.79
-2 6 -1 709.19 23.64
-6 4 1 730.66 25.06
-4 6 -1 710.58 24.2
-6 2 1 710.99 23.52
6 -4 1 778.78 27.1
6 -4 -1 683.93 23.94
6 -2 1 668.7 23.65
6 -2 -1 670.75 24.49
4 2 2 1506.84 49.01
2 4 2 1758.36 56.53
2 4 -2 1661.68 52.48
-2 6 2 1472.01 47.83
-4 6 2 1525.82 49.97
-6 4 2 1404.04 45.96
-6 2 2 1420.49 45.92
-2 6 -2 1388.53 45.11
-4 6 -2 1356.32 44.48
6 -4 2 1328.61 45.16
6 -4 -2 1285.57 49.21
6 -2 2 1456.87 48.17
6 -2 -2 1192.66 44.03
4 2 3 451.99 16.05
2 4 -3 379.2 12.62
2 4 3 394.6 16.96
-2 6 3 419.36 15.14
2 4 -3 457.34 14.58
-4 6 3 368.94 13.42
-6 2 3 332.49 11.57
-6 4 3 390.32 14.24
-2 6 -3 394.95 14.02
6 -4 -3 411.13 16.53
6 -2 3 413.49 15.21
6 -2 -3 400.65 15.36
-6 4 -3 371.3 12.51
4 2 4 66.42 6.45
2 4 4 81.02 9.55
2 4 -4 68.49 3.98
-2 6 4 60.73 5.15
-6 2 4 67.5 4.91
-4 6 4 61.43 5.03
-6 4 4 54.22 4.51
2 4 -4 64.67 3.86
6 -2 4 56.6 6.85
6 -4 -4 76.11 16.66
6 -2 -4 65.14 11.51
4 2 5 141.51 14.05
2 4 5 125.99 10.55
-2 6 5 134.46 9.1
-6 2 5 132.92 8.5
-4 6 5 187.82 12.04
-6 4 5 140.05 9.33
2 4 -5 129.87 7.52
6 -4 -5 142.42 11.87
6 -2 -5 143.25 19.77
4 2 6 377 29.15
2 4 6 320.82 24.77
-6 2 6 294.65 22.57
-2 6 6 301.57 23.39
-4 6 6 348.88 27.06
-6 4 6 301.33 23.45
6 -4 -6 321.9 27.37
6 -2 -6 314.57 29.29
4 2 7 22.91 7.39
2 4 7 41.7 8.25
-6 2 7 36.32 4.07
-2 6 7 22.76 3.4
-6 4 7 33.59 4.03
-4 6 7 38.32 4.85
6 -4 -7 26.77 10.04
6 -2 -7 32.85 5.33
4 2 -7 32.01 4.51
4 2 8 29.46 6.89
2 4 8 20.97 5.05
-2 6 8 40.52 8.6
-6 4 8 29.51 6.97
6 -4 -8 20.34 9.06
6 -2 -8 26.66 7.31
4 2 -8 28.21 6.83
-5 -1 0 724.38 23.43
1 5 0 936.21 30.35
-1 6 0 831.26 27.34
-5 6 0 887.2 29.97
-1 -5 0 655.87 21.55
-6 5 0 929.21 31.58
6 -5 0 746.34 27.77
6 -1 0 911.47 30.62
-6 1 1 188.2 7.85
-5 -1 -1 190.48 7.05
-5 -1 1 182.34 6.17
1 5 1 231.4 8.46
1 5 -1 213.26 7.45
-1 6 1 228.33 8.62
-1 6 -1 232.3 8.9
-5 6 1 189.04 8.58
-6 5 1 224.82 10.06
-6 1 1 222.51 8.28
-5 6 -1 207.91 9.14
-5 -1 1 230.36 7.73
-6 5 -1 214.64 9.29
6 -5 -1 211.28 10.75
6 -1 1 222.39 8.83
6 -1 -1 211.43 9.23
5 1 2 253.62 9.21
1 5 2 255.53 9.3
-1 6 2 283.73 10.72
1 5 -2 251.54 8.78
-5 6 2 221.65 9.68
-6 1 2 231.55 8.39
-6 5 2 196.83 8.86
-1 6 -2 225.9 8.67
-5 6 -2 284.14 11.77
6 -5 -2 217.86 14
6 -1 2 257.47 10.09
6 -1 -2 261.73 11.01
1 5 -3 103.58 6.05
5 1 3 140.7 9.4
1 5 3 123.28 8.03
-1 6 3 129.76 8.69
-6 1 3 131.5 8.03
-5 6 3 135.05 8.99
-6 5 3 111.08 7.73
1 5 -3 138.33 8.21
-1 6 -3 116.09 7.33
6 -5 -3 116.17 13.74
6 -1 3 110.05 6.91
6 -1 -3 157.42 10.95
5 1 4 375.77 21.76
1 5 4 419.28 24.11
-1 6 4 396.84 22.77
-6 1 4 387.81 21.79
-5 6 4 496.96 28.9
-6 5 4 344.39 20.23
1 5 -4 422.29 23.61
-1 6 -4 382.84 21.74
6 -5 -4 416.16 25.05
6 -1 4 381.09 21.97
6 -1 -4 379.27 22.23
5 1 5 36.36 5.85
1 5 5 52.48 5.41
-6 1 5 30.97 3.02
-1 6 5 40.59 4.49
-5 6 5 34.29 4.42
-6 5 5 45.98 5.2
1 5 -5 50.06 4.68
6 -5 -5 42.61 13.47
6 -1 -5 45.91 6.73
5 1 -5 49.65 5.29
5 1 6 82.78 12.87
1 5 6 98.66 17.4
-6 1 6 76.89 11.72
-1 6 6 105.32 9.37
-6 5 6 91.37 8.21
6 -5 -6 98.39 19.1
6 -1 -6 83.97 12.65
5 1 -6 138.7 12.08
5 1 7 10.05 2.79
1 5 7 20 4.05
-1 6 7 10.07 2.9
-5 6 7 17.3 3.51
-6 5 7 16.88 3.64
6 -5 -7 12.33 3.91
6 -1 -7 5.24 2.88
5 1 -7 10.91 2.89
5 1 8 28.17 9.92
1 5 8 48.97 12.06
-1 6 8 41.76 10.95
-6 5 8 44.78 9.64
-5 6 8 42.29 8.84
6 -5 -8 31.39 8.69
6 -1 -8 35.89 13.58
5 1 -8 50.36 10.49
-6 0 0 1710.46 54.94
0 6 0 2365.41 75.63
-6 6 0 2400.82 78.04
-6 0 1 2.2 0.78
0 6 1 2.64 1.69
0 6 -1 5.63 2.1
-6 6 1 -0.2 3.62
-6 0 1 5.65 1.4
-6 6 -1 15.52 5.25
-6 0 2 10.39 1.73
0 6 2 17.76 2.41
-6 0 2 15.21 1.45
0 6 -2 18.28 2.3
-6 6 2 17.98 3.59
6 -6 -2 24.26 4.49
-6 0 3 1.73 0.37
-6 0 3 1.64 0.7
0 6 3 4.7 2.58
-6 6 3 4.96 2.67
0 6 -3 3.06 1.14
6 -6 -3 5.31 4.25
6 0 -3 4.46 3.3
0 6 4 803.14 44.83
0 6 -4 897.54 49.73
6 -6 -4 875.97 51.07
6 0 -4 1029.22 57.97
6 0 4 853.65 47.2
6 0 5 1.2 1.46
0 6 5 4.95 2.84
-6 6 5 14.58 4.38
0 6 -5 11.47 3.19
6 -6 -5 7.83 4.45
6 0 -5 3.79 3.04
6 0 6 8.44 2.59
0 6 6 12.32 2.42
-6 6 6 10.86 3.63
0 6 -6 9.11 1.84
6 -6 -6 7.61 3.5
6 0 -6 9.1 3.1
6 0 7 5.05 2.34
0 6 7 2.92 2.24
-6 6 7 -0.57 1.71
6 -6 -7 3.89 2.57
6 0 -7 2.32 2.66
6 0 8 88.05 12.76
0 6 8 71.42 15.98
-6 6 8 65.26 9.93
6 -6 -8 88.12 13.79
6 0 -8 63.04 15.94
4 3 0 397.29 13.89
3 4 0 362.36 13.25
-4 -3 0 342.44 11.47
-3 7 0 442.09 16.16
-4 7 0 384.92 14.37
-7 4 0 453.09 16.31
-7 3 0 447.78 15.88
7 -4 0 368.36 15.87
7 -3 0 424.48 16.58
4 3 1 40.02 4.02
3 4 -1 33.54 2.45
3 4 1 38.48 3.53
-4 -3 -1 28.49 2.47
-3 7 1 40.12 4.15
-3 -4 -1 28.02 2.54
-4 7 1 43.29 4.93
-3 7 -1 42.23 4.32
-4 7 -1 35.9 4.54
-7 4 1 43.64 4.37
-7 3 1 33.83 3.67
7 -4 1 43.25 7.12
7 -4 -1 41.64 9.73
7 -3 1 57.9 7.94
7 -3 -1 36.59 8.35
4 3 2 371.22 21.19
3 4 2 319.52 18.39
-3 7 2 293.97 17.52
-4 7 2 294.69 17.36
-7 4 2 335 19.86
-7 3 2 319.61 18.58
-3 7 -2 317.86 18.73
-4 7 -2 331.97 19.97
7 -4 2 297.19 22.11
7 -3 2 326.89 19.88
7 -4 -2 309.47 19.26
7 -3 -2 296.36 18.4
4 3 3 29.47 4.65
3 4 3 19.51 2.97
-3 7 3 29.21 3.76
-4 7 3 21.79 2.93
-7 3 3 27.71 3.24
-7 4 3 24.92 3.63
-3 7 -3 24.57 3.25
-4 7 -3 24.85 3.8
7 -4 3 26.24 3.03
7 -3 3 26.33 5.44
7 -4 -3 37.93 5.46
7 -3 -3 29.66 6.57
4 3 4 189.51 15.6
3 4 4 179.96 15.36
-3 7 4 215.85 17.31
-4 7 4 235.37 18.64
-7 3 4 206.33 16.57
-7 4 4 186.36 14.85
-3 7 -4 191.7 15.18
7 -4 -4 238.52 27.31
7 -3 -4 222.73 26.76
4 3 5 7.68 3.3
3 4 5 15.09 2.88
-3 7 5 9.55 2.63
-7 3 5 10.31 3.02
-4 7 5 19.33 3.85
-7 4 5 14.95 3.13
7 -4 -5 16 5.64
7 -3 -5 11.81 2.7
4 3 6 121.8 13.02
3 4 6 84.72 16.29
-3 7 6 110.35 9.58
-4 7 6 110.36 9.94
-7 4 6 90.02 7.91
7 -4 -6 95.03 22.08
7 -3 -6 120.97 24.67
4 3 7 4.31 2.6
3 4 7 2.35 1.62
-7 3 7 3.07 2.07
-3 7 7 7.45 3.34
-7 4 7 3.27 2.32
-4 7 7 7.38 3.91
7 -4 -7 5.51 2.68
7 -3 -7 1.51 4.32
4 3 8 18.01 7.59
3 4 8 24.82 5.71
-7 4 8 29.49 6.15
-3 7 8 31.39 5.63
-4 7 8 37.22 6.22
7 -4 -8 26.02 7.27
7 -3 -8 25.52 7.31
4 3 -8 23.78 4.24
2 5 0 370.5 20.78
-5 -2 0 243.87 13.74
-2 7 0 354.38 20.53
-5 7 0 345.75 20.95
-2 -5 0 250.56 14.38
7 -5 0 282.46 17.52
7 -2 0 302.83 18.57
2 5 1 6.59 1.5
2 5 -1 9.02 1.31
-5 -2 -1 6.53 1.41
-2 7 1 8.03 2.15
-2 7 -1 5.1 2.54
-5 7 1 20.68 4.58
-7 5 1 8.01 3.85
-5 7 -1 9.7 4.09
-7 2 1 5.79 2.59
-7 5 -1 15.72 3.61
7 -5 1 13.58 3.76
7 -2 1 13.16 2.75
7 -2 -1 6.17 3.12
5 2 2 348.27 19.93
2 5 2 376.67 21.49
2 5 -2 337.85 18.69
-2 7 2 351.56 20.66
-5 7 2 305.03 18
-7 5 2 290.01 17.57
-7 2 2 325.59 18.74
-2 7 -2 297.78 17.34
-5 7 -2 331.91 19.84
7 -5 -2 488.1 31.01
7 -2 2 308.88 19.33
7 -2 -2 287.14 17.45
2 5 3 6.14 1.29
2 5 -3 5.32 0.61
-2 7 3 3.94 2.43
-5 7 3 5.44 2.54
-7 2 3 6.77 1.35
-7 5 3 1.81 2.61
-2 7 -3 5.77 3.43
-5 7 -3 13.07 4.3
7 -5 -3 7.3 4.32
7 -2 3 6.78 1.91
7 -2 -3 7.4 2.51
5 2 4 150.95 12.09
2 5 4 168.26 20.78
-2 7 4 174.2 13.92
-7 2 4 188.99 14.62
-5 7 4 173.46 14.12
-7 5 4 145.9 11.99
-2 7 -4 170.9 13.57
7 -5 -4 172.42 16.95
7 -2 -4 179.38 20.13
5 2 5 5.82 3.29
2 5 5 5.37 2.03
-2 7 5 12.13 3.67
-7 2 5 0.55 1.15
-5 7 5 11.75 3.03
-7 5 5 3.45 2.33
-2 7 -5 14.18 2.97
7 -5 -5 10.96 4.51
7 -2 -5 9.52 4.5
5 2 6 89.7 11.33
2 5 6 86.72 16.17
-2 7 6 81.3 7.25
-5 7 6 83.02 7.84
-7 5 6 78.47 7.62
7 -5 -6 116.99 24.87
7 -2 -6 73.41 15.32
5 2 7 2.8 1.21
2 5 7 -0.18 1.3
-2 7 7 1.37 1.9
-7 5 7 4.33 2.98
-5 7 7 3.74 2.17
7 -5 -7 3.95 1.91
7 -2 -7 1.72 2.61
5 2 -7 0.26 2.24
5 2 8 24.04 7.56
2 5 8 25.47 8.85
-2 7 8 34.06 6.47
-7 5 8 32.32 5.93
-5 7 8 42.51 7.27
7 -5 -8 19.03 7.63
7 -2 -8 36.08 7.25
5 2 -8 40.79 6.91
1 6 0 592.57 32.98
-1 7 0 554.6 31.08
-6 7 0 452.26 26.43
-7 6 0 608.83 34.79
7 -6 0 545 32.09
7 -1 0 590.28 33.59
-6 -1 1 31.76 2.14
1 6 1 45.4 3.74
1 6 -1 46.96 3.53
-1 7 1 45.95 3.99
-1 7 -1 43.49 3.89
-6 7 1 48.27 5.33
-7 6 1 36.32 4.32
-6 -1 1 42.21 2.79
-7 1 1 51.23 3.88
-6 7 -1 55.98 6.05
-7 6 -1 50.72 5.53
7 -1 1 46.57 4.17
7 -1 -1 59.44 5.59
1 6 2 84.77 5.53
-1 7 2 81.55 5.87
1 6 -2 106.52 6.83
-6 7 2 67.87 5.54
-7 1 2 104.45 6.69
-1 7 -2 89.27 6.34
-6 7 -2 79.12 6.48
7 -6 -2 76.21 15.36
7 -1 2 91.76 7.12
7 -1 -2 91.36 8.16
1 6 3 27.74 3.66
-1 7 3 20.03 3.31
-7 1 3 33.38 3.09
1 6 -3 24.68 2.53
-6 7 3 20.58 3.45
-7 6 3 21.11 3.55
-1 7 -3 29.64 3.55
7 -6 -3 29.19 5.4
7 -1 3 28.15 3.24
7 -1 -3 20.72 4.92
6 1 4 292.54 22.37
1 6 4 275.5 21.18
-1 7 4 266.19 20.48
-6 7 4 256.81 20.28
-7 6 4 236.07 18.61
-1 7 -4 276.87 21.15
7 -6 -4 295.23 24
7 -1 -4 252.85 20.15
6 1 5 6.28 2.6
1 6 5 8.13 2.26
-1 7 5 13.11 3.22
-6 7 5 10.55 2.84
-7 6 5 10.19 3.26
-1 7 -5 3.68 3.02
7 -6 -5 11.38 3.21
7 -1 -5 13.46 4.33
6 1 -5 12.17 3.79
6 1 6 33.98 5.7
1 6 6 35.72 6.09
-1 7 6 40.43 5.7
-6 7 6 37.92 4.85
-7 6 6 46.16 5.75
-1 7 -6 30.83 3.62
7 -6 -6 33.91 8.27
7 -1 -6 41.56 8.86
6 1 -6 42.78 5.76
6 1 7 0.88 0.9
1 6 7 4.86 1.52
-1 7 7 0.32 2.36
-6 7 7 7.27 3.78
-7 6 7 1.26 2.19
7 -6 -7 7.32 5.02
7 -1 -7 5.59 2.13
6 1 -7 2.59 2.79
0 7 0 269.11 15.65
-7 7 0 243.36 15.78
0 7 1 24.44 3.48
0 7 -1 11.24 2.09
-7 7 1 15.76 3.97
-7 0 1 11.47 1.82
-7 7 -1 12.16 3.57
7 0 -1 9.5 3.1
0 7 2 192.86 15.2
0 7 -2 190.24 14.74
-7 7 2 174.06 14.83
-7 7 -2 164.64 13.99
7 0 -2 173.25 14.16
0 7 3 11.72 3.46
-7 7 3 6.16 3.23
0 7 -3 16.33 2.83
7 0 3 6.7 2.58
0 7 4 128.84 10.7
-7 7 4 136.69 11.53
0 7 -4 148.65 11.8
7 -7 -4 143.44 14.39
7 0 4 132.64 10.73
7 0 -4 128.34 11.62
0 7 5 2.9 1.76
-7 7 5 5.45 2.6
7 -7 -5 3.83 3.41
7 0 -5 5.75 3.93
0 7 6 57.49 11.61
-7 7 6 40.13 8.27
7 -7 -6 49.44 11.11
7 0 -6 55.42 11.73
0 7 7 -0.1 1.83
-7 7 7 3.76 3.26
7 0 -7 4.41 2.94
4 4 0 932.1 51.44
-4 8 0 1030.68 76.88
-8 4 0 1390.78 103.66
8 -4 0 1028.79 58.81
4 4 1 0.5 1.23
-4 8 1 2.16 3
-4 8 -1 5.14 2.68
-8 4 1 -1.52 2.52
8 -4 1 -1.76 2.9
8 -4 -1 -0.95 3.55
4 4 2 3.67 1.28
-4 8 2 15.54 4.37
-8 4 2 5.2 2.76
-4 8 -2 8.08 2.98
8 -4 2 7.15 4.29
8 -4 -2 5.96 3.19
4 4 3 2.23 0.98
-4 8 3 3.5 3.22
-8 4 3 4.49 3.06
-4 8 -3 14.09 4.63
8 -4 -3 4.89 2.82
4 4 4 415.46 31.73
-4 8 4 500.78 38.38
-8 4 4 395.7 30.1
-4 8 -4 503.15 38.6
8 -4 -4 399.7 40.77
4 4 5 2.1 1.56
-4 8 5 2.37 2.54
-8 4 5 -0.3 1.51
-4 8 -5 7.26 3.24
8 -4 -5 6.72 4.72
4 4 6 8.72 2.79
-4 8 6 6.92 2.74
-8 4 6 14.92 3.94
8 -4 -6 10.94 4.52
4 4 7 4.73 2
-4 8 7 2.64 2.41
8 -4 -7 10.29 4.4
3 5 0 504.65 28.55
-3 8 0 442.65 25.53
-5 8 0 504.06 29.31
-8 5 0 535.33 31.11
-8 3 0 473.57 27.07
8 -5 0 435.76 27
8 -3 0 412.15 24.7
5 3 1 74.93 8.48
3 5 -1 73.92 4.79
3 5 1 88.19 8.59
-3 8 1 98.76 8.99
-5 8 1 84.41 7.67
-3 8 -1 70.53 6.71
-5 8 -1 72.51 6.99
-8 5 1 83.37 6.74
-8 3 1 111.16 10.47
-8 5 -1 79.09 7.25
8 -5 1 70.94 11.83
8 -5 -1 86.73 11.56
8 -3 1 86.03 14.19
8 -3 -1 85.33 12.57
5 3 2 52.95 5.47
3 5 2 64.9 6.7
-3 8 2 58.27 6.08
-5 8 2 60.11 6.05
-8 3 2 65.97 6.78
-8 5 2 60.38 5.97
-3 8 -2 67.1 6.84
-5 8 -2 78.63 8.45
8 -5 2 76.34 15.63
8 -5 -2 64.94 16.31
8 -3 2 58.08 11.72
5 3 3 46.8 8.61
3 5 3 43.41 7.23
-3 8 3 49.84 5.57
-5 8 3 51.62 6.46
-8 3 3 44.27 4.66
-8 5 3 52.68 6.36
-3 8 -3 40.82 4.54
-5 8 -3 65.51 7.69
8 -5 -3 48.03 8.34
8 -3 -3 44.87 6.9
5 3 4 224.98 17.64
3 5 4 164.28 13.89
-3 8 4 218.27 17.59
-5 8 4 186.29 15.06
-3 8 -4 211.58 16.9
-5 8 -4 221.97 18.11
8 -5 -4 200.33 20.34
8 -3 -4 200.87 30.52
5 3 5 17.45 4.39
3 5 5 14.5 3.15
-3 8 5 24.88 4.06
-8 3 5 12.31 2.37
-5 8 5 13.8 3.29
-8 5 5 8.36 3.13
-3 8 -5 18.11 4.02
8 -5 -5 16.49 4.8
8 -3 -5 12.06 4.79
5 3 6 13.85 5.32
3 5 6 29.13 7.11
-3 8 6 32.41 7.09
-5 8 6 25.74 5.76
-8 5 6 33.81 7.57
-3 8 -6 26.75 6.15
8 -5 -6 17.51 8.59
8 -3 -6 36.28 8.55
5 3 7 3.2 1.87
3 5 7 1.34 1.13
-3 8 7 -0.01 1.82
-5 8 7 16.45 4.59
-8 5 7 3.58 1.96
8 -5 -7 32.26 25.16
8 -3 -7 7.89 2.84
5 3 -7 5.4 2.21
2 6 0 45.89 4.12
-2 8 0 53.53 5.11
-6 8 0 61.16 6.23
-8 6 0 53.94 6
-8 2 0 62.45 6.42
8 -6 0 48.11 12.04
8 -2 0 55.18 11.76
2 6 1 192.53 14.9
2 6 -1 167.3 12.75
-2 8 1 140.77 11.63
-2 8 -1 163.03 13.13
-6 8 1 166.28 14.1
-8 6 1 167.49 13.67
-6 8 -1 162.88 14.01
-8 2 1 208.21 16.5
-8 6 -1 187.79 15.63
8 -6 1 165.36 14.72
8 -6 -1 149.35 19.17
8 -2 1 159.19 20.34
8 -2 -1 158.85 19.16
2 6 2 404.39 30.58
-2 8 2 341.18 26.12
-6 8 2 310.04 24.54
-2 8 -2 264.22 20.37
-8 6 2 286.51 22.25
-6 8 -2 325.3 25.71
8 -6 -2 256.47 29.41
8 -2 2 303.52 24.15
6 2 3 93.58 7.79
2 6 3 114.39 9.66
-2 8 3 93.96 8.38
-8 2 3 91.87 7.75
-6 8 3 102.36 9.82
-8 6 3 92.52 8.5
-2 8 -3 90.77 7.85
-6 8 -3 110.84 10.59
8 -6 -3 83.97 12.97
8 -2 3 74.76 13.44
8 -2 -3 111.78 20.33
6 2 4 30.9 7.47
2 6 4 38.33 6.49
-2 8 4 50.93 5.63
-6 8 4 42.64 5.15
-8 6 4 45.88 5.64
-2 8 -4 43.48 4.95
-6 8 -4 54.5 7.25
8 -6 -4 38.9 9.57
8 -2 -4 36.35 5.43
6 2 5 28.33 8.3
2 6 5 37.89 8.86
-2 8 5 34.4 4.66
-6 8 5 33.93 5.27
-8 6 5 30.75 4.67
-2 8 -5 24.5 3.74
8 -6 -5 34.87 10.89
8 -2 -5 42.52 8.27
6 2 6 53.5 16.22
2 6 6 53.1 17.08
-2 8 6 75.9 14.98
-6 8 6 83.23 16.59
-8 6 6 60.95 12.42
-2 8 -6 72.3 14.23
8 -6 -6 44.09 17.85
8 -2 -6 65.59 15.08
6 2 -6 77.92 15.68
6 2 7 0.03 1.11
2 6 7 5.35 1.9
-2 8 7 11.13 3.55
-8 6 7 12.73 3.95
8 -6 -7 1.88 4.16
8 -2 -7 10.08 4.85
6 2 -7 17.89 4.95
1 7 0 19.79 2.39
-1 8 0 16.22 2.45
-7 8 0 21 4.9
-8 7 0 22.06 5.66
8 -1 0 14.93 3.43
1 7 1 14.41 3.04
1 7 -1 4.17 1.25
-1 8 1 1.52 1.92
-1 8 -1 8.28 2.48
-7 8 1 8.34 5.31
-8 7 1 4.24 3.36
-8 1 1 3.05 1.44
-7 8 -1 11 5.59
-8 7 -1 8.44 4
8 -1 1 4.53 2.57
8 -1 -1 1.99 2.85
1 7 2 364.45 27.55
-1 8 2 417.84 31.86
-1 8 -2 394.79 29.97
-7 8 2 348.84 27.25
-8 7 2 361.7 28.19
-7 8 -2 393.04 30.58
-8 7 -2 353.06 27.66
8 -7 -2 333.24 27.1
8 -1 2 303.82 23.22
1 7 3 2.87 1.67
-1 8 3 9.83 3.38
-7 8 3 9 3.88
-8 7 3 11.57 4.42
-1 8 -3 15.84 4.02
-7 8 -3 3.18 3.41
8 -7 -3 6.81 4.39
8 -1 3 0.45 1.47
8 -1 -3 7.71 2.6
1 7 4 11.31 2.44
-1 8 4 17.69 3.41
-7 8 4 10.65 3.08
-8 7 4 15.96 3.14
-1 8 -4 21.06 3.27
-7 8 -4 15.04 2.86
8 -7 -4 19 5.61
8 -1 -4 12.39 3.86
7 1 -4 11.34 3.88
1 7 5 10.17 3.6
-1 8 5 0.37 1.59
-8 7 5 4.1 2.18
8 -7 -5 10.75 4.34
8 -1 -5 11.63 4.18
7 1 -5 3.96 2.54
1 7 6 58.76 13.48
-1 8 6 81.33 11.67
-7 8 6 68.08 10.15
-8 7 6 59.61 9.12
8 -7 -6 58.97 17.42
8 -1 -6 55.56 11.2
7 1 -6 88.46 13.43
0 8 0 22.24 2.87
-8 8 0 32.73 6.65
8 0 0 17.81 3.06
0 8 1 58.26 5.67
0 8 -1 73.39 6.68
-8 8 1 48.05 6.16
-8 8 -1 97.35 10.53
8 0 -1 76.53 7.67
8 0 1 58.7 5.84
0 8 2 269.77 20.73
0 8 -2 275.84 21.08
-8 8 2 220.47 17.66
-8 8 -2 289.41 23.54
8 0 -2 293.9 23.43
8 0 2 267.15 20.85
0 8 3 41.46 4.79
-8 8 -3 32.42 4.78
8 0 3 32.04 4.17
8 0 -3 25.12 4.09
0 8 4 15.88 4.24
-8 8 4 9.29 2.94
8 0 -4 15.88 4.85
0 8 5 3.99 2.11
-8 8 5 4.45 2.28
8 0 -5 8.71 3.56
0 8 6 76.09 11.54
-8 8 6 50.27 8.01
8 0 -6 59.11 9.84
-4 9 0 157.57 13.38
-5 9 0 144.57 12.44
-9 5 0 175.42 14.47
-9 4 0 208.21 17.08
9 -5 0 135.65 23.09
9 -4 0 113.15 22.82
4 5 1 1.56 0.88
-4 9 1 9.14 3.5
-5 9 1 9.52 4.55
-4 9 -1 4.48 2.61
-5 9 -1 0.91 2.65
-9 5 1 5.03 3.08
-9 4 1 1.98 2.59
-9 5 -1 3.8 2.89
-9 4 -1 7.47 4.93
9 -5 1 4.04 2.02
9 -5 -1 5.4 3.74
9 -4 1 2.36 2.72
9 -4 -1 2.48 2.42
5 4 2 62.5 7.18
4 5 2 64.46 8.57
-4 9 2 70.69 6.45
-5 9 2 66.76 8.05
-9 5 2 82.66 8.13
-9 4 2 85.76 7.81
-4 9 -2 69.4 7.01
-5 9 -2 64.09 6.53
9 -5 2 64.71 13.31
9 -4 2 58.24 11.13
9 -5 -2 67.59 14.47
9 -4 -2 54.57 12.59
5 4 3 2.13 1.7
4 5 3 2.78 1.08
-4 9 3 5.67 2.89
-5 9 3 1.6 2.64
-9 4 3 1.96 2.1
-9 5 3 2.23 2.5
-4 9 -3 4.4 4.36
-5 9 -3 4.79 3.09
9 -5 3 6.34 2.56
9 -4 3 4.31 2.14
9 -5 -3 10.32 4.13
9 -4 -3 3.06 3.38
5 4 4 84.73 8.47
4 5 4 61.43 15.53
-4 9 4 81.36 8.17
-5 9 4 99.29 9.02
-9 4 4 92.84 8.42
-9 5 4 77.58 7.37
-4 9 -4 89.38 17.43
-5 9 -4 93.94 9.44
9 -5 -4 79.24 18.31
9 -4 -4 65.3 13.07
5 4 5 1.88 1.55
4 5 5 0.71 1.24
-4 9 5 4.56 2.24
-5 9 5 2.93 2.18
-9 5 5 5.43 2.74
-4 9 -5 -2.6 2.78
-5 9 -5 3.59 2.95
9 -5 -5 4.93 3.13
9 -4 -5 4.67 2.67
5 4 6 18.68 4.82
4 5 6 13.31 4.33
-4 9 6 28.92 5.65
-5 9 6 26.87 5.82
-9 5 6 19.92 4.29
-4 9 -6 31.48 6.17
-5 9 -6 24.25 4.72
9 -5 -6 21.93 8.24
9 -4 -6 32.65 9.74
-3 9 0 37.87 4.71
-6 9 0 55.3 6.57
-9 6 0 48.94 6.24
-9 3 0 60.11 6.36
9 -6 0 36.1 9.07
9 -3 0 46.42 8.34
3 6 1 4.2 1.4
-3 9 1 2.8 2.02
-3 9 -1 4.51 2.42
-6 9 1 0.33 3.27
-6 9 -1 3.28 3.82
-9 6 1 2.64 2.7
-9 3 1 -1.12 2.17
-9 6 -1 10.39 4.31
9 -6 1 8.92 3.23
9 -6 -1 2.49 2.78
9 -3 1 0.24 1.82
9 -3 -1 -0.3 3.02
3 6 2 196.76 15.54
-3 9 2 176.48 14.24
-6 9 2 155.16 12.87
-9 3 2 180.19 14.38
-3 9 -2 143.5 11.83
-9 6 2 183.93 15.22
-6 9 -2 172 14.95
-9 6 -2 195.45 16.47
9 -6 -2 149.41 29.8
9 -3 2 126.96 15.79
9 -3 -2 156.9 29.05
6 3 3 0.08 0.91
3 6 3 5.87 2.58
-3 9 3 0.53 1.99
-6 9 3 5.49 2.41
-9 3 3 4.61 2.24
-9 6 3 10.34 4.25
-3 9 -3 2.61 2.41
-6 9 -3 17.87 5.69
9 -6 -3 10.73 4.33
9 -3 3 1.4 2.07
9 -3 -3 5.39 2.56
6 3 4 22.15 8.26
3 6 4 27.33 7.47
-3 9 4 32.95 7.37
-6 9 4 31.84 7.5
-9 6 4 33.09 7.48
-3 9 -4 36.46 7.69
-6 9 -4 47.22 10.04
9 -6 -4 31.16 9.03
9 -3 -4 31.6 8.88
6 3 5 2.91 1.27
3 6 5 5.34 3
-3 9 5 1.99 2.46
-6 9 5 2.52 2.45
-9 6 5 4.38 2.14
-3 9 -5 7.05 3.27
-6 9 -5 3.06 2.76
9 -6 -5 3.62 2.11
9 -3 -5 4.68 2.88
6 3 6 22.62 8.33
3 6 6 27.9 8.04
-3 9 6 48.28 7.6
-6 9 6 52.21 8.6
-9 6 6 28.59 5.46
-3 9 -6 35.57 6.04
-6 9 -6 33.72 6.42
9 -6 -6 31.29 14.24
9 -3 -6 17.07 8.34
-2 9 0 45.95 4.66
-7 9 0 60.8 7.05
-9 7 0 55.45 6.99
-9 2 0 65.6 6.75
9 -2 0 47.94 8.59
2 7 1 5.96 2.15
-2 9 1 5.43 2.57
-2 9 -1 1.71 1.82
-7 9 1 21.65 6.66
-9 7 1 1.84 2.83
-7 9 -1 4.82 3.47
-9 2 1 4.17 2.41
9 -7 -1 6.23 3.27
9 -2 1 5.44 2.23
9 -2 -1 2.63 2.73
2 7 2 181.92 14.92
-2 9 2 111.92 9.54
-7 9 2 120.42 10.83
-2 9 -2 123.66 10.32
-7 9 -2 132.73 12.99
-9 7 -2 141.02 12.54
9 -7 -2 91.48 23.43
9 -2 2 93.76 15.35
9 -2 -2 98.77 20.06
2 7 3 2.25 2.22
-2 9 3 2.5 2.26
-7 9 3 -0.59 2.81
-9 7 3 3.22 2.15
-2 9 -3 3.14 2.01
-7 9 -3 4.82 3.9
9 -7 -3 2.69 2.79
9 -2 3 4.81 2.18
9 -2 -3 9 2.63
2 7 4 23.38 5.85
-2 9 4 32.71 7.33
-7 9 4 29.67 7.24
-9 7 4 19.81 4.94
-2 9 -4 22.59 5.24
-7 9 -4 39.66 9.6
9 -7 -4 35.93 10.49
9 -2 -4 22.49 7.92
2 7 5 3.74 1.89
-2 9 5 3.97 2.06
-7 9 5 1.83 2.91
-9 7 5 -1.72 2.35
-7 9 -5 6.7 2.81
9 -7 -5 4.76 3.51
9 -2 -5 12.51 4.5
7 2 -5 1.76 2.13
-1 9 0 92.82 8.15
-8 9 0 91.71 8.67
-9 8 0 84.04 9.03
9 -1 0 83.15 7.78
1 8 1 27.59 3.49
-1 9 1 34.99 4.33
-1 9 -1 24.06 3.36
-8 9 1 23.2 5.31
-9 8 1 30.82 5.31
-8 9 -1 31.99 5.15
-9 8 -1 33.07 5.15
9 -1 1 23.07 3.96
9 -1 -1 22.2 3.36
1 8 2 57.36 11.45
-1 9 2 37.74 7.67
-1 9 -2 58.1 11.29
-8 9 2 55.03 11.36
-9 8 2 46 9.89
-8 9 -2 46.02 9.69
-9 8 -2 76.08 16.3
9 -1 -2 47.2 9.85
8 1 -2 43.18 8.99
1 8 3 20.71 4.97
-1 9 3 13.42 3.62
-8 9 3 21.52 6.04
-9 8 3 18.76 5.71
-8 9 -3 22.96 6.54
-9 8 -3 17.16 5.85
9 -1 -3 13.93 4.55
8 1 -3 7.23 2.75
1 8 4 66.65 13.25
-1 9 4 49.21 10.07
-8 9 4 41.29 9.03
-9 8 4 28.99 7.16
-8 9 -4 36.27 8.04
-9 8 -4 37.89 8.86
9 -8 -4 54.28 13.28
9 -1 -4 58.84 12.91
8 1 -4 38.46 8.43
1 8 5 4.5 2.13
-1 9 5 12.59 3.32
-8 9 5 5.91 2.69
-9 8 5 5.67 3.26
-8 9 -5 6.34 3
9 -8 -5 -4.75 3.04
9 -1 -5 9.84 2.63
8 1 -5 2.81 2.75
-9 9 0 121.2 23.94
9 0 0 84.21 16.62
0 9 1 1.47 1.55
-9 9 1 4.14 3.57
-9 9 -1 -1.61 3.57
9 0 -1 3.16 2.19
9 0 1 1.43 2.03
0 9 2 15.07 3.94
-9 9 2 21.23 5.91
-9 9 -2 17.19 4.85
9 0 2 12.77 3.81
9 0 -2 19.23 5.6
0 9 3 4.38 2.28
-9 9 3 2.64 2.46
-9 9 -3 3.73 4.63
0 9 4 60.74 9.12
-9 9 4 32.5 5.66
-9 9 -4 43.8 7.78
9 0 -4 54.66 9.16
-5 10 0 13.36 3.88
-10 5 0 17.38 5.36
10 -5 0 -0.98 3.43
-5 10 1 4.19 3.2
-5 10 -1 7.6 3.03
-10 5 1 3.09 2.87
-10 5 -1 1.78 3.26
10 -5 1 7.83 4.51
10 -5 -1 5.27 4.12
-5 10 2 127.32 24.27
-10 5 2 170.5 23.41
-5 10 -2 155.91 21.92
10 -5 2 115.22 25.78
10 -5 -2 114.48 31.44
-5 10 3 3.69 2.85
-10 5 3 3.34 3.18
-5 10 -3 4.68 3.84
10 -5 -3 5.27 2.83
5 5 4 1.72 2.27
-5 10 4 1.42 2.51
-10 5 4 6.88 3.05
-5 10 -4 8.73 3.9
10 -5 -4 4.91 3.49
5 5 5 2.36 2.69
-5 10 5 1.32 2.45
-5 10 -5 0.29 2.35
10 -5 -5 8.15 3.46
-4 10 0 13.53 4.34
-6 10 0 25.51 7.12
-10 6 0 10.9 3.77
-10 4 0 18.21 5.38
10 -6 0 16.97 5.38
10 -4 0 9.82 5.92
-4 10 1 28.21 6.65
-6 10 1 23.97 6.6
-4 10 -1 22.13 5.52
-6 10 -1 25.42 6.64
-10 6 1 33 7.87
-10 4 1 19.58 4.99
-10 6 -1 31.05 7.44
-10 4 -1 22.33 5.26
10 -6 1 26.62 8.14
10 -6 -1 26.56 7.85
10 -4 1 20.16 7.26
10 -4 -1 17.78 6.78
-4 10 2 119.71 23
-6 10 2 96.54 18.9
-10 4 2 112.39 21.68
-10 6 2 119.68 23.13
-4 10 -2 97.81 18.91
-6 10 -2 137.77 26.41
-10 6 -2 145.67 27.94
10 -6 2 103.31 20.35
10 -6 -2 82.94 23.61
10 -4 2 56.63 16.59
10 -4 -2 80.26 23
-4 10 3 22.64 5.64
-6 10 3 16.26 4.32
-10 6 3 13.25 3.89
-4 10 -3 20.5 5.17
-6 10 -3 28.63 7.21
10 -6 -3 16.71 6.34
10 -4 -3 13.26 4.41
4 6 4 9.87 3
-4 10 4 13.38 3.86
-6 10 4 8.49 2.65
-10 6 4 9.98 3.49
-4 10 -4 4.99 2.38
-6 10 -4 17.98 4.55
10 -6 -4 14.51 5.49
10 -4 -4 7.73 4.06
-3 10 0 66.11 12.93
-7 10 0 103.33 20.64
-10 7 0 105.97 20.78
-10 3 0 95.87 18.69
10 -7 0 82 16.99
10 -3 0 48.67 19.07
-3 10 1 26.33 6.29
-3 10 -1 10.77 3.35
-7 10 1 27.09 6.45
-7 10 -1 23.96 6.68
-10 7 1 27.59 6.51
-10 7 -1 39.35 9.44
10 -7 -1 17.89 5.15
10 -3 1 24.97 6.46
10 -3 -1 21.28 6.44
-3 10 2 30.38 7.1
-7 10 2 24.77 5.78
-3 10 -2 27.28 6.32
-10 7 2 39.19 9.38
-7 10 -2 38.13 8.97
-10 7 -2 23.67 6.24
10 -7 -2 17.06 7.78
10 -3 2 21.36 6.53
10 -3 -2 22.78 5.66
-3 10 3 15.75 4.12
-7 10 3 12.52 4.26
-10 7 3 16.86 4.96
-3 10 -3 8.07 2.72
-7 10 -3 23.38 6.49
-10 7 -3 12.16 3.99
10 -7 -3 14.43 4.67
10 -3 -3 8.68 3.73
-3 10 4 38.68 6.81
-7 10 4 47.97 8.4
-10 7 4 37.51 6.24
-3 10 -4 26.87 4.88
-7 10 -4 46.42 7.58
10 -7 -4 31.73 10.18
10 -3 -4 21.02 7.22
-2 10 0 142 26.87
-8 10 0 174.02 24.23
-10 8 0 170.91 24.1
10 -2 0 116.58 27.1
-2 10 1 10.06 4.02
-2 10 -1 7.02 2.52
-8 10 1 2.04 3.23
-10 8 1 3.56 2.88
-8 10 -1 13.52 4.87
-10 8 -1 -4.55 3.15
10 -2 1 3.53 2.76
10 -2 -1 4.52 2.98
-2 10 2 6.95 2.39
-2 10 -2 0.67 1.63
-8 10 2 10.28 4.85
-10 8 2 5.94 4.08
-8 10 -2 0.94 3.42
-10 8 -2 16.03 5.99
10 -8 -2 13.08 5.03
10 -2 2 3.9 2.28
10 -2 -2 3.61 1.89
2 8 3 2.59 1.76
-2 10 3 3.45 2.07
-8 10 3 2.27 2.68
-10 8 3 -1.43 2.27
-8 10 -3 3.06 3.34
-10 8 -3 9.35 3.73
10 -8 -3 10.75 4.9
10 -2 -3 4.33 2.03
-1 10 0 79.2 11.55
-9 10 0 73.35 11.72
10 -1 0 76.81 11.41
9 1 0 60.31 9.27
-1 10 1 0.69 1.47
-9 10 1 5.8 3.9
-10 9 1 18.71 5.12
-9 10 -1 0.11 3.76
-10 9 -1 29.98 8.05
10 -1 1 6.17 2.73
10 -1 -1 10.23 3.57
9 1 -1 12.43 4.2
9 1 1 5.29 2
-1 10 2 10.45 3.01
-9 10 2 11.95 5.69
-10 9 2 15.01 4.63
-9 10 -2 5.78 3.71
-10 9 -2 4.86 5
10 -1 -2 6.42 2.64
9 1 -2 5.77 3.04
9 1 2 6.19 2.63
-5 11 0 25.65 4.54
-6 11 0 28.53 5.27
-11 6 0 29.76 5.67
11 -6 0 15.04 4.28
11 -5 0 19.38 8.99
-5 11 1 5.02 2.78
-6 11 1 10.84 4.19
-5 11 -1 3.89 2.51
-6 11 -1 5.73 3.26
-11 6 1 3.76 2.37
-11 5 1 3.74 2.31
-11 6 -1 5.41 4.23
-11 5 -1 8.91 4.32
11 -6 1 7.04 2.97
11 -6 -1 8.89 3.83
11 -5 1 5.35 3.3
11 -5 -1 4.39 3.13
-5 11 2 44.44 7.81
-6 11 2 20.37 4.18
-11 6 2 51.96 9.07
-5 11 -2 20.12 4.23
-6 11 -2 22.75 4.3
-11 6 -2 35.01 6.79
-11 5 -2 38.9 7.06
11 -6 -2 34.41 9.64
11 -5 -2 20.38 9.63
-4 11 0 33.03 6.01
-7 11 0 37.87 7.12
-11 7 0 49.08 8.53
11 -7 0 24.41 5.37
-4 11 1 6.66 3.48
-4 11 -1 5.31 2.74
-7 11 1 2.85 2.97
-7 11 -1 8.07 4.14
-11 7 1 3.53 2.32
-11 7 -1 6.66 4.65
-11 4 -1 10.51 5.01
11 -7 1 1.1 3.09
11 -7 -1 3.02 2.06
11 -4 1 -0.81 2.76
11 -4 -1 2.01 2.62
-4 11 2 15.19 3.69
-7 11 2 7.82 3.91
-11 7 2 11.02 3.04
-7 11 -2 11.56 3.19
-11 7 -2 34.83 7.8
11 -7 -2 12.48 3.36
11 -4 -2 9.66 3.46
-3 11 0 29.45 5.53
-8 11 0 42.51 7.91
-11 8 0 52.82 9.02
11 -3 0 26.44 7.19
