#------------------------------------------------------------------------------
#$Date: 2021-02-23 11:59:26 +0200 (Tue, 23 Feb 2021) $
#$Revision: 262157 $
#$URL: file:///home/coder/svn-repositories/cod/cif/1/56/05/1560577.cif $
#------------------------------------------------------------------------------
#
# This file is available in the Crystallography Open Database (COD),
# http://www.crystallography.net/
#
# All data on this site have been placed in the public domain by the
# contributors.
#
data_1560577
loop_
_publ_author_name
'Gong, Pifu'
'Luo, Siyang'
'Huang, Qian'
'Yang, Yi'
'Jiang, Xingxing'
'Liang, Fei'
'Chen, Chuangtian'
'Lin, Zheshuai'
_publ_section_title
;
 An alkaline tin(II) halide compound Na 3 Sn 2 F 6 Cl: Synthesis,
 structure, and characterization
;
_journal_name_full               'Journal of Solid State Chemistry'
_journal_page_first              104
_journal_page_last               108
_journal_paper_doi               10.1016/j.jssc.2017.01.023
_journal_volume                  248
_journal_year                    2017
_chemical_formula_sum            'Cl F6 Na3 Sn2'
_chemical_formula_weight         455.80
_space_group_crystal_system      trigonal
_space_group_IT_number           167
_space_group_name_Hall           '-R 3 2"c'
_space_group_name_H-M_alt        'R -3 c :H'
_atom_sites_solution_hydrogens   .
_cell_angle_alpha                90
_cell_angle_beta                 90
_cell_angle_gamma                120
_cell_formula_units_Z            6
_cell_length_a                   5.7407(3)
_cell_length_b                   5.7407(3)
_cell_length_c                   43.503(3)
_cell_measurement_reflns_used    1141
_cell_measurement_temperature    296(2)
_cell_measurement_theta_max      25.11
_cell_measurement_theta_min      2.81
_cell_volume                     1241.59(13)
_computing_structure_refinement  'SHELXL-2014/7 (Sheldrick, 2014)'
_diffrn_ambient_temperature      296(2)
_diffrn_measured_fraction_theta_full 1.000
_diffrn_measured_fraction_theta_max 1.000
_diffrn_measurement_device_type  CCD
_diffrn_radiation_type           MoK\a
_diffrn_radiation_wavelength     0.71073
_diffrn_reflns_av_R_equivalents  0.0307
_diffrn_reflns_av_unetI/netI     0.0143
_diffrn_reflns_Laue_measured_fraction_full 1.000
_diffrn_reflns_Laue_measured_fraction_max 1.000
_diffrn_reflns_limit_h_max       6
_diffrn_reflns_limit_h_min       -6
_diffrn_reflns_limit_k_max       6
_diffrn_reflns_limit_k_min       -6
_diffrn_reflns_limit_l_max       42
_diffrn_reflns_limit_l_min       -51
_diffrn_reflns_number            2277
_diffrn_reflns_point_group_measured_fraction_full 1.000
_diffrn_reflns_point_group_measured_fraction_max 1.000
_diffrn_reflns_theta_full        25.108
_diffrn_reflns_theta_max         25.108
_diffrn_reflns_theta_min         2.809
_exptl_absorpt_coefficient_mu    6.550
_exptl_absorpt_correction_type   multi-scan
_exptl_absorpt_process_details   sadabs
_exptl_crystal_colour            colorless
_exptl_crystal_density_diffrn    3.658
_exptl_crystal_description       block
_exptl_crystal_F_000             1224
_exptl_crystal_size_max          0.120
_exptl_crystal_size_mid          0.100
_exptl_crystal_size_min          0.080
_exptl_transmission_factor_max   0.864
_exptl_transmission_factor_min   0.864
_refine_diff_density_max         0.683
_refine_diff_density_min         -3.777
_refine_diff_density_rms         0.518
_refine_ls_extinction_coef       .
_refine_ls_extinction_method     none
_refine_ls_goodness_of_fit_ref   1.268
_refine_ls_hydrogen_treatment    undef
_refine_ls_matrix_type           full
_refine_ls_number_parameters     20
_refine_ls_number_reflns         254
_refine_ls_number_restraints     0
_refine_ls_restrained_S_all      1.268
_refine_ls_R_factor_all          0.0468
_refine_ls_R_factor_gt           0.0454
_refine_ls_shift/su_max          0.001
_refine_ls_shift/su_mean         0.000
_refine_ls_structure_factor_coef Fsqd
_refine_ls_weighting_details
'w=1/[\s^2^(Fo^2^)+(0.0755P)^2^+6.2630P] where P=(Fo^2^+2Fc^2^)/3'
_refine_ls_weighting_scheme      calc
_refine_ls_wR_factor_gt          0.1137
_refine_ls_wR_factor_ref         0.1153
_reflns_Friedel_coverage         0.000
_reflns_Friedel_fraction_full    .
_reflns_Friedel_fraction_max     .
_reflns_number_gt                231
_reflns_number_total             254
_reflns_threshold_expression     'I > 2\s(I)'
_cod_data_source_file            JSSC-2017-249-104.cif
_cod_data_source_block           1_a
_cod_original_cell_volume        1241.60(15)
_cod_database_code               1560577
_shelx_space_group_comment
;
The symmetry employed for this shelxl refinement is uniquely defined
by the following loop, which should always be used as a source of
symmetry information in preference to the above space-group names.
They are only intended as comments.
;
_shelx_estimated_absorpt_t_min   0.507
_shelx_estimated_absorpt_t_max   0.622
_shelx_res_file
;

    1_a.res created by SHELXL-2014/7

TITL 1_a.res in R-3c
CELL  0.71073   5.7407   5.7407  43.5034   90.000   90.000  120.000
ZERR   6.000   0.0003   0.0003   0.0029    0.000    0.000    0.000
LATT 3
SYMM -Y, X-Y, Z
SYMM -X+Y, -X, Z
SYMM Y, X, 1/2-Z
SYMM X-Y, -Y, 1/2-Z
SYMM -X, -X+Y, 1/2-Z
SFAC F  Na Cl Sn
UNIT 36 18 6 12
L.S. 20
ACTA
BOND $H
FMAP 2
size 0.12 0.1 0.08
conf
PLAN 20
LIST 6
TEMP 23.000
WGHT    0.075500    6.263000
FVAR       0.19862
SN01  4    0.333333    0.666667    0.558110    10.33333    0.01790    0.01790 =
         0.01174    0.00000    0.00000    0.00895
CL1   3    0.666667    0.333333    0.583333    10.16667    0.04161    0.04161 =
         0.01840    0.00000    0.00000    0.02080
NA2   2    0.000000    0.000000    0.500000    10.16667    0.01446    0.01446 =
         0.02181    0.00000    0.00000    0.00723
NA1   2    0.666667    0.333333    0.518449    10.33333    0.02448    0.02448 =
         0.01813    0.00000    0.00000    0.01224
F005  1    0.287943    0.375651    0.526885    11.00000    0.02306    0.01643 =
         0.02412   -0.00596   -0.00454    0.01053
HKLF 4

REM  1_a.res in R-3c
REM R1 =  0.0454 for     231 Fo > 4sig(Fo)  and  0.0468 for all     254 data
REM     20 parameters refined using      0 restraints

END

WGHT      0.0695      3.1683

REM Highest difference peak  0.683,  deepest hole -3.777,  1-sigma level  0.518
Q1    1   0.8061  0.1995  0.5122  11.00000  0.05    0.68
Q2    1   0.2330  0.4520  0.5874  11.00000  0.05    0.66
Q3    1   0.3164  0.1206  0.5365  11.00000  0.05    0.64
Q4    1   0.1468  0.1622  0.5585  11.00000  0.05    0.59
Q5    1   0.3333  0.6667  0.5979  10.33333  0.05    0.58
Q6    1   0.2928  0.2050  0.5348  11.00000  0.05    0.57
Q7    1   0.4805  0.3585  0.5433  11.00000  0.05    0.55
Q8    1   0.4384  0.1706  0.5359  11.00000  0.05    0.54
Q9    1  -0.0151  0.1379  0.5609  11.00000  0.05    0.52
Q10   1   0.5532  0.0881  0.6139  11.00000  0.05    0.48
Q11   1   0.1875  0.3363  0.5443  11.00000  0.05    0.45
Q12   1   0.6631  0.8600  0.5665  11.00000  0.05    0.43
Q13   1   0.6250  0.7330  0.5646  11.00000  0.05    0.37
Q14   1   0.4938  0.4843  0.5664  11.00000  0.05    0.36
Q15   1   0.4413  0.2261  0.5967  11.00000  0.05    0.36
Q16   1   0.5697  0.5816  0.5428  11.00000  0.05    0.35
Q17   1   0.2648  0.4020  0.5099  11.00000  0.05    0.34
Q18   1   0.5426  0.0864  0.5110  11.00000  0.05    0.33
Q19   1   0.4297  0.5524  0.5042  11.00000  0.05    0.31
Q20   1   0.8223  0.4795  0.4914  11.00000  0.05    0.31
;
_shelx_res_checksum              28399
_shelx_hkl_file
;
  -3   0   0 9079.29  142.49
   3   0   0 9711.03  154.08
   3   0   0 9490.35  147.89
   5  -1   0 4073.29   81.39
   5  -1   0 3983.90   86.39
  -5   1   0 3927.01   72.89
   2  -1   0 8102.89  123.19
   2  -1   0 7883.61  121.59
  -2   1   0 7565.24  123.19
  -1  -1   0 9043.50  140.49
   1   1   0 9127.29  142.19
   4   1   0 4022.40   77.99
   4   1   0 4073.69   87.19
   4  -2   0 6426.46  112.89
   4  -2   0 6478.35  115.19
  -4   2   0 6280.97  113.89
  -1   2   0 7854.61  124.79
  -2  -2   0 6397.96  106.09
   2   2   0 6662.13  109.69
   6  -3   0 2578.94   65.89
   6  -3   0 2617.14   69.49
  -6   3   0 2564.24   64.29
   3  -3   0 9999.00  168.78
  -3   3   0 9772.22  166.28
   0  -3   0 8877.31  145.79
   3   3   0 2482.95   63.89
   3   3   0 2397.56   55.69
   5  -4   0 3930.81   90.79
  -5   4   0 4011.00   91.29
  -2   4   0 6275.87  116.69
  -1  -4   0 3798.82   78.69
   1   4   0 3829.92   78.59
  -4   5   0 4041.30   93.79
  -1   5   0 3940.31   86.59
  -3   6   0 2407.06   69.19
  -1   6  -1    5.20    6.20
  -4   6  -1   24.20   10.60
   1   5  -1    4.00    4.70
   1   5  -1    8.00    5.10
  -2   5  -1   15.70    7.00
  -5   5  -1    0.70    5.70
   5  -5   1    0.50    5.10
   0   4  -1   -1.10    2.80
  -3   4  -1  144.19   16.10
  -6   4  -1   14.00    8.10
   6  -4   1   19.80    7.60
   6  -4   1   15.10    7.80
   2   3  -1   20.60    5.90
  -2  -3   1   23.80    5.80
  -1   3  -1  417.86   18.00
  -4   3  -1  146.09   16.10
   4  -3   1  140.19   16.20
   4  -3   1  147.59   13.80
   4   2  -1   33.40    7.50
   4   2  -1   19.30    6.90
  -2   2  -1    2.80    2.90
   2  -2   1   -0.10    1.80
  -5   2  -1    1.50    2.30
   5  -2   1   17.20    6.60
   5  -2   1    6.60    4.90
   3   1  -1  160.18   14.70
   3   1  -1  151.38   10.60
  -3  -1   1  150.08    8.00
   0   1  -1    0.10    0.80
   0  -1   1    2.00    1.10
   3  -1   1  394.46   15.50
   3  -1   1  417.86   16.80
   6  -1   1    8.20    5.20
   6  -1   1    0.80    5.30
   5   0  -1    3.00    4.70
   5   0  -1    1.10    3.70
   2   0  -1    2.40    1.80
   2   0  -1    1.60    1.60
   2   0  -1   -0.40    1.30
  -2   0   1    1.20    1.00
  -1   0  -1    0.00    0.30
  -1   0  -1    0.20    0.60
   1   0   1    0.30    0.80
   1   0   1    0.00    0.80
   1   0   1    0.40    0.60
  -4   0  -1    3.10    2.10
   4   0   1    1.00    2.90
   4   0   1    2.00    3.30
   4  -1  -1  124.49   12.40
   4  -1  -1  157.08   14.50
  -4   1   1  158.28   10.20
   1  -1  -1   -0.30    0.90
   1  -1  -1    0.40    0.60
   1  -1  -1    1.30    1.30
  -1   1   1    1.60    1.30
  -1   1   1   -0.60    0.80
  -1   1   1    0.40    0.80
  -2  -1  -1  418.06   12.90
   2   1   1  415.76   13.90
   2   1   1  416.26   16.50
   5   1   1    4.90    5.30
   5   1   1    6.60    5.30
   6  -2  -1   32.70    9.20
   6  -2  -1   19.70    7.90
   3  -2  -1  418.06   16.00
   3  -2  -1  400.56   18.60
  -3   2   1  438.06   19.00
   0  -2  -1   -1.40    1.40
  -3  -2  -1   20.90    4.60
   3   2   1   11.70    4.40
   3   2   1   11.30    5.20
   5  -3  -1   12.20    6.40
   5  -3  -1   13.90    5.80
  -5   3   1   17.50    6.80
   2  -3  -1  410.66   20.60
  -2   3   1  479.75   20.30
  -1  -3  -1  171.28   11.80
   1   3   1  150.58   11.00
   4  -4  -1   -3.70    2.80
  -4   4   1    0.40    4.30
  -1   4   1  157.88   15.50
  -2  -4  -1   19.70    6.20
   2   4   1   24.40    6.80
   2   4   1   13.50    6.20
   6  -5  -1    4.70    5.90
  -6   5   1   10.00    8.40
  -3   5   1   15.10    6.90
   0   5   1    1.70    4.10
  -5   6   1    5.50    7.10
  -2   6   1   21.10    9.00
  -2   6  -2   92.39   16.00
  -5   6  -2   67.09   14.70
   0   5  -2    1.80    4.50
  -3   5  -2   -0.70    4.50
  -6   5  -2   51.89   13.60
   6  -5   2   61.69   13.70
   2   4  -2  121.59   13.20
   2   4  -2   87.19   12.30
  -1   4  -2   59.89   10.00
  -4   4  -2    7.60    5.60
   4  -4   2    3.90    5.10
   1   3  -2   57.49    8.30
  -1  -3   2   11.50    3.90
  -2   3  -2  111.29   12.40
  -5   3  -2   -1.80    4.20
   5  -3   2    2.40    4.30
   5  -3   2    4.60    4.30
   3   2  -2    1.50    2.80
   3   2  -2    2.90    3.20
  -3  -2   2    4.70    2.80
   0  -2   2  126.99    8.00
  -3   2  -2  138.49   13.10
   3  -2   2  107.89   11.40
   3  -2   2  111.29   10.30
  -6   2  -2  105.09   12.60
   6  -2   2  117.29   15.50
   6  -2   2  117.69   17.10
   5   1  -2   69.09   13.00
   5   1  -2   46.20    9.30
   2   1  -2  125.09    8.20
  -2  -1   2  126.89    6.30
  -1   1  -2   23.00    3.60
  -1   1  -2   21.10    3.50
  -1   1  -2   30.00    3.50
   1  -1   2    9.60    2.20
   1  -1   2    9.50    2.40
  -4   1  -2   72.59    8.70
   4  -1   2   40.20    7.10
   4  -1   2   67.89   10.10
   4   0  -2    2.20    3.30
   4   0  -2    0.10    2.90
  -4   0   2    1.30    1.80
   1   0  -2   16.20    1.70
   1   0  -2   12.80    2.10
  -1   0   2   13.60    2.10
  -1   0   2   18.00    1.60
  -2   0  -2  139.59    6.60
   2   0   2  121.49    6.50
   2   0   2  128.19    8.20
   5   0   2    2.30    4.20
   5   0   2   11.10    6.00
   6  -1  -2   74.79   13.70
   6  -1  -2   41.80    9.90
   3  -1  -2  133.59    9.80
   3  -1  -2  114.99   10.50
  -3   1   2  132.19    8.80
   0  -1  -2   16.10    2.60
  -3  -1  -2   59.49    6.60
   3   1   2   55.49    9.00
   3   1   2   52.19    6.70
   5  -2  -2    1.00    4.00
   5  -2  -2   -1.50    3.10
  -5   2   2    2.00    3.40
   2  -2  -2  138.49   12.60
   2  -2  -2  147.59    7.30
  -2   2   2  138.49    9.50
  -1  -2  -2  109.49    8.00
   1   2   2  125.69    7.90
   4   2   2  107.29   11.90
   4   2   2   93.09   14.20
   4  -3  -2   48.00   10.00
  -4   3   2   62.59   10.60
   1  -3  -2  122.79   11.80
  -2  -3  -2   -0.70    2.60
   2   3   2   -2.20    3.10
   2   3   2    3.40    3.30
   6  -4  -2   84.09   12.60
   6  -4  -2  112.89   16.80
  -6   4   2   96.09   15.80
   3  -4  -2   31.70    8.60
  -3   4   2   61.19   10.90
   0  -4  -2   -3.70    2.50
   5  -5  -2    7.40    5.70
  -5   5   2    1.50    5.40
  -2   5   2   -1.00    3.50
   1   5   2   60.69   10.90
   1   5   2   53.49   10.40
  -4   6   2  135.09   19.30
  -1   6   2   53.89   12.30
  -3   6  -3    2.40    5.70
  -1   5  -3   31.40    9.00
  -4   5  -3   20.70    8.70
   1   4  -3   28.90    7.20
   1   4  -3   22.70    6.70
  -2   4  -3   16.00    6.10
  -5   4  -3   11.10    7.20
   5  -4   3    9.50    6.60
   3   3  -3   -3.80    3.00
   3   3  -3   -1.60    3.20
   0   3  -3    2.70    2.60
  -3   3  -3   -2.10    3.20
   3  -3   3   -1.50    2.40
  -6   3  -3    2.40    4.90
   6  -3   3    8.50    5.90
   6  -3   3    0.20    4.20
   2   2  -3    8.30    3.80
  -2  -2   3   10.50    3.20
  -1   2  -3  344.77   14.30
  -4   2  -3   18.80    6.40
   4  -2   3    7.30    4.20
   4  -2   3   11.30    4.80
   4   1  -3   21.50    6.70
   4   1  -3   14.10    5.20
   1   1  -3  342.17    9.10
   1   1  -3  323.87   11.40
  -1  -1   3  338.57    9.20
  -2   1  -3  314.77   13.40
   2  -1   3  315.07   12.20
   2  -1   3  329.57   12.90
  -5   1  -3   31.80    6.30
   5  -1   3   21.10    6.10
   5  -1   3   30.90    8.20
   3   0  -3    0.80    2.20
   3   0  -3    0.50    2.20
  -3   0   3    0.50    1.10
   0   0  -3   -0.10    0.20
   0   0  -3    0.40    0.30
   0   0   3    0.20    0.30
   0   0   3    0.00    0.20
  -3   0  -3   -1.10    1.50
   3   0   3   -1.90    2.00
   3   0   3   -0.80    2.00
   5  -1  -3   13.50    5.70
   5  -1  -3   19.40    6.50
  -5   1   3   14.70    4.10
   2  -1  -3  311.67   12.60
   2  -1  -3  331.57   11.00
  -1  -1  -3  326.07   10.70
   1   1   3  313.37    9.60
   1   1   3  322.37   11.60
  -4  -1  -3   29.10    5.30
   4   1   3   31.10    8.60
   4   1   3   30.30    6.30
   4  -2  -3   15.10    5.40
   4  -2  -3   15.70    4.70
  -4   2   3   14.00    5.30
   1  -2  -3  326.27   13.70
   1  -2  -3  334.47   15.10
  -2  -2  -3   10.20    3.50
   2   2   3    8.70    3.30
   2   2   3   24.60    5.70
   6  -3  -3   -3.70    3.50
   6  -3  -3    3.20    4.50
  -6   3   3   -1.50    3.10
   3  -3  -3    2.10    3.30
  -3   3   3   -2.00    2.80
   0  -3  -3   -1.30    1.90
   3   3   3    2.90    4.60
   3   3   3    1.60    3.30
   5  -4  -3   25.20    6.10
   5  -4  -3   19.30    7.50
  -5   4   3   22.40    8.20
  -2   4   3    7.70    4.60
  -1  -4  -3   17.60    5.90
   1   4   3   15.40    5.50
  -4   5   3   30.80    9.00
  -1   5   3   11.60    5.70
  -3   6   3   -4.90    4.00
  -1   6  -4  565.94   30.80
  -4   6  -4  572.84   33.80
   1   5  -4  522.55   26.40
   1   5  -4  558.24   27.40
  -2   5  -4 1286.67   44.10
  -5   5  -4  916.61   41.60
   0   4  -4 2767.62   62.19
  -3   4  -4 2778.02   68.49
  -6   4  -4  631.54   32.50
   6  -4   4  656.63   32.70
   6  -4   4  635.74   29.70
   2   3  -4 1295.87   37.50
  -2  -3   4 1275.67   33.60
  -1   3  -4 2157.68   49.20
  -4   3  -4 2709.13   65.99
   4  -3   4 2675.33   63.99
   4  -3   4 2733.03   59.99
   4   2  -4  617.14   29.20
   4   2  -4  587.34   25.40
   1   2  -4 2180.88   45.20
  -1  -2   4 2171.18   42.20
  -2   2  -4 2793.32   57.79
   2  -2   4 2776.42   57.19
  -5   2  -4 1294.77   37.90
   5  -2   4 1272.87   41.50
   5  -2   4 1292.77   39.50
   3   1  -4 2622.54   57.39
   3   1  -4 2519.05   52.99
  -3  -1   4 2560.14   43.50
   0   1  -4 4341.87   67.89
   0  -1   4 4258.87   66.99
  -3   1  -4 2146.89   45.50
   3  -1   4 2243.28   45.00
   3  -1   4 2213.98   48.40
   6  -1   4  536.85   30.00
   5   0  -4 1010.40   34.50
   5   0  -4 1005.90   37.40
   2   0  -4 2541.25   41.70
   2   0  -4 2623.34   47.50
  -2   0   4 2579.44   40.30
  -1   0  -4 4306.27   67.19
  -1   0  -4 4262.47   65.69
   1   0   4 4303.67   69.29
   1   0   4 4362.96   67.39
   1   0   4 4381.16   66.19
  -4   0  -4 2872.01   55.29
   4   0   4 2854.11   65.99
   4   0   4 2824.52   56.99
   4  -1  -4 2548.45   56.29
   4  -1  -4 2618.84   56.99
  -4   1   4 2535.65   48.80
   1  -1  -4 4546.25   71.89
   1  -1  -4 4484.85   66.59
   1  -1  -4 4685.03   74.09
  -1   1   4 4446.96   68.09
  -1   1   4 4543.95   73.89
   2   1   4 2044.30   45.20
   2   1   4 2154.18   39.00
   5   1   4  509.05   29.00
   6  -2  -4  633.94   30.30
   6  -2  -4  652.53   30.40
   3  -2  -4 2155.48   49.70
  -3   2   4 2215.38   48.10
   0  -2  -4 2714.33   51.49
  -3  -2  -4 1226.28   31.80
   3   2   4 1220.48   39.30
   3   2   4 1227.48   31.80
   5  -3  -4 1324.77   44.20
   5  -3  -4 1318.87   38.10
  -5   3   4 1311.77   41.70
   2  -3  -4 2262.77   53.99
  -2   3   4 2184.58   49.50
  -1  -3  -4 2491.95   53.79
   4  -4  -4 2858.51   71.79
  -4   4   4 2837.72   68.99
   1  -4  -4 2568.54   60.39
   2   4   4  663.63   29.60
   2   4   4  605.14   25.30
   6  -5  -4  519.05   31.40
  -6   5   4  523.75   31.50
  -3   5   4 1372.16   45.70
   0  -5  -4  936.71   36.00
   0   5   4  958.90   35.20
  -5   6   4  572.94   33.30
  -2   6   4  724.83   35.30
  -2   6  -5    5.90    6.20
  -5   6  -5   12.60    9.30
   0   5  -5    8.70    5.20
  -3   5  -5   95.89   15.20
  -6   5  -5   17.30   10.10
   2   4  -5    2.30    4.30
  -1   4  -5   -1.10    2.90
  -4   4  -5    0.50    5.60
   1   3  -5   -0.70    2.40
   1   3  -5    2.80    2.80
  -2   3  -5  283.87   16.90
  -5   3  -5  115.39   15.80
   5  -3   5   95.89   13.50
   5  -3   5   81.59   12.60
   3   2  -5  116.69   12.70
   0   2  -5    0.90    1.80
  -3   2  -5  252.47   15.90
   3  -2   5  233.18   13.80
   3  -2   5  233.38   14.00
  -6   2  -5    1.30    3.10
   6  -2   5    3.60    5.00
   6  -2   5   12.00    6.60
   5   1  -5    9.90    5.40
   5   1  -5   17.10    7.60
   2   1  -5  236.28    7.00
  -2  -1   5  249.08    7.50
  -1   1  -5    3.50    2.00
  -4   1  -5    5.30    3.10
   4  -1   5    1.70    2.60
   4  -1   5   -2.90    2.30
   4   0  -5   -2.70    2.30
   4   0  -5    3.20    3.40
  -4   0   5    2.10    1.60
   1   0  -5    1.30    1.10
  -1   0   5    2.90    0.60
  -1   0   5    2.90    0.50
  -2   0  -5    1.70    1.10
  -2   0  -5    1.20    1.50
   2   0   5   -0.30    1.00
   2   0   5   -0.10    1.40
  -5   0  -5    0.60    2.80
   5   0   5    0.90    3.40
   5   0   5   -0.50    3.90
   6  -1  -5   18.00    7.20
   6  -1  -5   12.80    7.10
   3  -1  -5  267.57   12.60
   3  -1  -5  229.88   13.00
  -3   1   5  247.28   11.40
   0  -1  -5    1.80    1.30
   0  -1  -5   -0.10    1.00
   0   1   5    4.30    1.20
   0   1   5    4.40    1.60
  -3  -1  -5    1.60    2.20
   3   1   5    5.30    2.70
   3   1   5    0.10    3.10
   5  -2  -5  101.69   12.30
   5  -2  -5   94.29   13.00
  -5   2   5   95.59   11.30
   2  -2  -5    0.60    2.40
   2  -2  -5    1.10    1.10
  -2   2   5    2.70    1.20
  -2   2   5    2.20    2.00
  -1  -2  -5  243.88   12.00
   4   2   5    6.40    5.30
   4  -3  -5   -3.70    3.00
   4  -3  -5    2.20    2.60
  -4   3   5    0.30    3.90
   1  -3  -5  277.37   15.00
  -2  -3  -5  110.09   11.90
   2   3   5   94.59   12.20
   2   3   5  102.39   10.70
   6  -4  -5    5.90    5.60
   6  -4  -5    1.00    4.10
  -6   4   5   -0.80    5.10
   3  -4  -5    3.40    4.40
  -3   4   5    0.80    4.00
   0  -4  -5    1.60    3.60
   5  -5  -5    2.50    5.40
  -5   5   5   -1.50    5.00
  -2   5   5  131.49   16.20
  -1  -5  -5   18.30    7.40
   1   5   5    6.10    5.00
   1   5   5   13.10    5.50
  -4   6   5   -0.10    5.40
  -1   6   5    5.90    6.20
  -3   6  -6  415.46   28.20
  -1   5  -6  571.74   28.20
  -4   5  -6  370.46   26.70
   1   4  -6  562.34   24.10
   1   4  -6  559.44   25.20
  -2   4  -6 1034.60   36.30
  -5   4  -6  392.66   25.90
   5  -4   6  395.56   24.90
   3   3  -6  389.46   21.10
   0   3  -6  533.75   20.60
  -3   3  -6 1013.40   35.00
  -6   3  -6  376.96   23.60
   6  -3   6  396.56   25.30
   6  -3   6  377.96   23.10
   2   2  -6  970.60   28.80
  -1   2  -6 2818.72   55.79
  -4   2  -6 1048.10   33.50
   4  -2   6  994.60   31.80
   4  -2   6  960.30   32.70
   4   1  -6  328.87   19.90
   4   1  -6  380.06   19.10
   1   1  -6 2768.32   42.80
   1   1  -6 2669.33   43.60
  -2   1  -6 2563.64   51.19
   2  -1   6 2707.03   49.00
   2  -1   6 2690.83   51.79
  -5   1  -6  574.14   22.40
   5  -1   6  632.34   24.30
   5  -1   6  570.54   28.70
   3   0  -6  921.01   26.70
   3   0  -6  887.81   18.00
   3   0  -6  881.01   26.10
  -3   0   6  903.71   17.10
   0   0  -6  492.55   10.00
   0   0  -6  496.45   10.60
   0   0   6  497.65   10.60
   0   0   6  494.75    9.90
   3   0   6  477.25   15.30
   3   0   6  494.85   20.80
   5  -1  -6  395.06   21.70
   5  -1  -6  401.36   21.40
   2  -1  -6 2786.62   52.39
   2  -1  -6 2764.02   47.10
  -1  -1  -6 2789.32   49.20
   1   1   6 2753.22   44.20
   1   1   6 2664.63   49.50
  -4  -1  -6  601.14   21.30
   4   1   6  561.24   27.30
   4   1   6  605.74   20.90
   4  -2  -6  943.61   27.70
   4  -2  -6  952.70   32.00
   1  -2  -6 2934.51   56.79
   1  -2  -6 2756.92   53.59
  -2  -2  -6  988.10   27.80
   2   2   6 1008.20   25.40
   2   2   6  966.20   30.20
   6  -3  -6  391.96   25.30
   6  -3  -6  413.96   22.70
  -6   3   6  414.76   23.00
   3  -3  -6  508.25   23.90
  -3   3   6  518.55   21.80
   0  -3  -6  899.81   27.90
  -3  -3  -6  351.06   18.40
   3   3   6  398.76   18.10
   3   3   6  412.56   24.60
   5  -4  -6  593.54   22.30
   5  -4  -6  564.04   30.40
  -5   4   6  546.75   27.90
  -2   4   6  943.61   32.10
  -1  -4  -6  359.16   20.00
   1   4   6  373.06   19.70
   4  -5  -6  595.64   32.10
  -4   5   6  629.44   30.50
   1  -5  -6  346.67   21.80
  -1   5   6  365.46   21.50
  -3   6   6  385.56   26.60
  -1   6  -7   -0.60    5.70
  -4   6  -7    2.20    6.30
   1   5  -7    8.30    5.50
   1   5  -7    4.70    4.70
  -2   5  -7   19.20    8.10
  -5   5  -7   -1.70    5.10
   0   4  -7   -0.90    3.40
  -3   4  -7  114.89   15.90
  -6   4  -7   -0.50    4.80
   6  -4   7    7.70    5.90
   6  -4   7    1.70    5.30
   2   3  -7   15.20    5.40
   2   3  -7   20.30    5.20
  -1   3  -7   22.80    6.10
  -4   3  -7  139.29   16.70
   4  -3   7  156.38   16.40
   4  -3   7  125.19   13.70
   4   2  -7    8.00    5.10
   4   2  -7    7.10    5.50
   1   2  -7   22.70    4.80
   1   2  -7   24.00    4.30
  -2   2  -7    0.40    2.60
  -5   2  -7   17.80    6.20
   5  -2   7   23.90    6.70
   5  -2   7   25.50    8.20
   3   1  -7  126.39   11.70
   0   1  -7    3.30    1.70
   0  -1   7    2.90    1.50
  -3   1  -7   27.00    5.20
   3  -1   7   24.70    4.70
   3  -1   7   26.60    5.80
   6  -1   7   -0.20    4.50
   5   0  -7    0.40    3.40
   5   0  -7    1.80    3.90
   2   0  -7    1.10    1.70
  -1   0  -7    1.90    1.40
   1   0   7    0.60    1.60
  -4   0  -7   -1.10    1.90
   4   0   7   -3.50    2.60
   4   0   7    1.00    2.50
   4  -1  -7  126.09   12.90
   4  -1  -7  167.18   15.40
  -4   1   7  131.59    8.20
   1  -1  -7    1.20    1.50
   1  -1  -7    3.20    1.50
  -2  -1  -7   29.10    5.00
   2   1   7   30.30    3.80
   2   1   7   25.00    5.50
   5   1   7   -5.50    3.40
   6  -2  -7    7.40    5.30
   6  -2  -7   14.80    6.80
   3  -2  -7   24.30    4.20
   3  -2  -7   25.90    5.90
  -3   2   7   30.20    5.70
   0  -2  -7    1.80    1.70
  -3  -2  -7   27.50    6.10
   3   2   7   37.40    5.90
   3   2   7   29.30    7.90
   5  -3  -7   29.70    8.60
  -5   3   7   16.80    6.50
   2  -3  -7   21.50    5.60
   2  -3  -7   21.50    6.40
  -2   3   7   36.80    3.90
  -1  -3  -7  143.19   13.60
   1   3   7  121.99   12.20
   4  -4  -7   -2.60    3.50
  -4   4   7   -1.20    3.40
   1  -4  -7  139.09   15.30
  -2  -4  -7    2.20    4.00
   2   4   7    6.00    5.30
   2   4   7   10.00    4.60
   6  -5  -7    2.20    5.80
  -6   5   7   -1.50    6.30
  -3   5   7   19.70    7.90
   0  -5  -7    5.60    4.50
  -5   6   7   -0.20    5.90
  -2   6   7    9.20    6.50
  -2   6  -8  847.42   39.60
  -5   6  -8  582.94   36.70
   0   5  -8  517.95   26.20
   0   5  -8  526.95   27.00
  -3   5  -8  897.51   39.40
  -6   5  -8  612.14   35.40
   2   4  -8  854.91   33.50
  -1   4  -8 2749.72   64.29
  -4   4  -8 2357.06   65.59
   1   3  -8 2623.54   58.09
   1   3  -8 2649.14   54.69
  -2   3  -8 2784.92   63.69
  -5   3  -8  828.52   34.80
   5  -3   8  806.22   33.00
   5  -3   8  860.21   33.20
   3   2  -8  811.22   28.60
   0   2  -8 1763.52   38.20
  -3   2  -8 2713.53   60.19
   3  -2   8 2756.32   57.29
   3  -2   8 2645.84   57.89
  -6   2  -8  828.92   31.30
   6  -2   8  860.41   32.90
   6  -2   8  855.31   37.60
   5   1  -8  565.04   29.10
   5   1  -8  561.64   26.50
   2   1  -8 2609.64   51.99
  -1   1  -8 4891.51   81.39
  -4   1  -8 2764.32   57.59
   4  -1   8 2576.74   62.39
   4  -1   8 2706.43   54.89
   4   0  -8 2128.49   51.59
   4   0  -8 2124.49   50.79
   1   0  -8 5438.66   82.39
   1   0  -8 5593.34   86.69
  -1   0   8 5458.95   81.69
  -2   0  -8 1718.13   28.70
  -2   0  -8 1703.23   35.30
   2   0   8 1723.23   29.60
   2   0   8 1714.93   38.80
  -5   0  -8  510.35   21.10
   5   0   8  568.54   29.90
   6  -1  -8  607.04   29.90
   6  -1  -8  621.44   30.60
   3  -1  -8 2695.23   51.89
   3  -1  -8 2711.63   56.19
  -3   1   8 2737.73   49.90
   0  -1  -8 5539.65   79.89
   0  -1  -8 5288.17   84.59
   0   1   8 5134.99   82.39
   0   1   8 5252.87   81.09
   3   1   8 2640.64   48.20
   3   1   8 2634.94   60.49
   5  -2  -8  804.02   31.90
   5  -2  -8  835.72   29.40
  -5   2   8  841.82   27.40
   2  -2  -8 1795.82   38.80
   2  -2  -8 1752.12   29.70
   2  -2  -8 1752.52   41.50
  -1  -2  -8 2706.33   54.19
   1   2   8 2714.23   53.29
   4   2   8  811.52   36.00
   4  -3  -8 2720.13   66.19
   4  -3  -8 2743.53   53.59
  -4   3   8 2641.44   61.19
   1  -3  -8 2733.33   58.29
  -2  -3  -8  772.52   27.50
   2   3   8  829.82   30.90
   2   3   8  782.22   24.60
   6  -4  -8  930.81   32.50
   6  -4  -8  851.41   40.50
  -6   4   8  896.61   37.40
   3  -4  -8 2742.93   68.69
  -3   4   8 2692.03   63.49
   0  -4  -8 2173.38   54.59
   5  -5  -8  402.66   27.20
  -5   5   8  513.65   28.50
  -2   5   8  807.42   33.00
  -1  -5  -8  592.64   29.20
   1   5   8  564.34   25.50
   1   5   8  543.05   26.50
  -4   6   8  903.01   40.30
  -1   6   8  560.54   30.20
  -3   6  -9    6.30    7.20
  -1   5  -9    0.40    4.80
  -4   5  -9    5.00    6.30
   1   4  -9    2.60    4.10
   1   4  -9    2.00    4.20
  -2   4  -9   54.29   10.60
  -5   4  -9   -3.50    4.20
   3   3  -9   -1.80    2.90
   0   3  -9   -2.20    2.50
  -3   3  -9    0.30    3.90
  -6   3  -9   -5.10    3.70
   6  -3   9   -1.90    4.20
   6  -3   9    1.00    4.50
   2   2  -9   42.00    5.10
   2   2  -9   30.40    6.20
  -1   2  -9 1059.99   29.60
  -4   2  -9   47.90    9.30
   4  -2   9   46.80    8.00
   4  -2   9   42.80    8.80
   4   1  -9   -0.90    3.00
   4   1  -9    0.90    3.50
   1   1  -9 1112.89   20.90
   1   1  -9 1063.39   19.60
   1   1  -9 1114.69   26.80
  -2   1  -9 1098.79   28.50
   2  -1   9 1118.29   25.30
   2  -1   9 1102.79   29.70
  -5   1  -9    6.90    3.80
   5  -1   9    0.90    3.40
   5  -1   9    1.00    4.20
   3   0  -9    2.10    2.30
   0   0  -9    1.60    1.10
   0   0  -9   -0.60    0.50
   0   0   9    2.40    1.20
   0   0   9   -0.50    0.60
  -3   0  -9    1.10    2.10
   3   0   9    0.40    1.40
   3   0   9   -0.30    2.70
   5  -1  -9    0.90    3.20
   5  -1  -9   -5.80    3.00
   2  -1  -9 1078.49   27.40
  -2   1   9 1061.29   22.60
  -1  -1  -9 1129.69   26.20
   1   1   9 1045.00   21.20
   1   1   9 1086.09   26.20
  -4  -1  -9    1.10    2.80
   4   1   9    1.80    4.20
   4   1   9    1.40    2.70
   4  -2  -9   43.60    8.80
   4  -2  -9   43.50    6.70
  -4   2   9   50.59    8.20
   1  -2  -9 1121.89   30.00
   1  -2  -9 1115.89   28.00
  -1   2   9 1084.29   18.30
  -2  -2  -9   38.30    6.70
   2   2   9   44.40    5.70
   2   2   9   44.10    7.90
   6  -3  -9    2.90    4.10
   6  -3  -9    4.30    5.40
  -6   3   9    2.40    4.80
   3  -3  -9   -2.30    2.50
  -3   3   9   -1.60    2.00
   0  -3  -9   -1.20    2.10
   0   3   9    0.70    1.80
  -3  -3  -9   -1.00    2.30
   3   3   9    1.30    4.50
   5  -4  -9    2.80    3.20
   5  -4  -9    5.90    5.20
  -5   4   9    1.80    3.90
   2  -4  -9   45.10    9.20
  -1  -4  -9    1.10    3.50
   1   4   9    0.20    3.10
   4  -5  -9    9.20    6.80
  -4   5   9    1.40    4.20
   1  -5  -9    0.20    4.40
  -3   6   9    0.00    5.10
  -1   6 -10 1158.48   45.40
  -4   6 -10 1251.67   51.39
   1   5 -10 1193.58   43.10
  -2   5 -10 2796.32   72.79
  -5   5 -10 2036.20   65.69
   0   4 -10 1756.32   47.50
  -3   4 -10 2363.46   63.79
  -6   4 -10 1170.48   46.00
   6  -4  10 1187.88   43.00
   2   3 -10 2668.93   53.39
   2   3 -10 2672.73   62.09
  -1   3 -10 4910.91   93.49
  -4   3 -10 2379.96   61.79
   4  -3  10 2312.57   56.79
   4   2 -10 1212.48   39.30
   4   2 -10 1206.78   42.00
   1   2 -10 4694.73   79.99
   1   2 -10 4873.11   86.39
  -2   2 -10 7443.26  128.19
  -5   2 -10 2669.83   64.59
   5  -2  10 2932.41   71.29
   5  -2  10 2792.42   62.39
   3   1 -10 2310.27   51.79
   0   1 -10 4755.42   77.59
   0   1 -10 4770.42   76.79
  -3   1 -10 4832.72   87.39
   3  -1  10 4709.23   81.59
   3  -1  10 4912.61   91.49
   6  -1  10 1164.98   47.40
   5   0 -10 2039.70   54.49
   5   0 -10 2018.60   55.59
   2   0 -10 7573.34  121.89
  -1   0 -10 4245.28   69.79
   1   0  10 4208.28   72.59
  -4   0 -10 1805.52   42.80
   4   0  10 1780.52   50.09
   4   0  10 1686.93   36.80
   4  -1 -10 2334.97   51.69
   4  -1 -10 2304.57   54.99
  -4   1  10 2302.77   42.80
   1  -1 -10 4728.93   75.99
  -2  -1 -10 4737.13   83.09
   2   1  10 4800.02   73.69
   2   1  10 4840.22   87.59
   5   1  10 1243.68   47.40
   6  -2 -10 1224.28   41.10
   6  -2 -10 1260.47   44.90
   3  -2 -10 4869.81   79.59
   3  -2 -10 4860.31   91.09
  -3   2  10 4924.41   85.59
   0  -2 -10 7536.15  123.29
   0   2  10 7583.74  116.79
  -3  -2 -10 2861.81   60.39
   3   2  10 2752.32   52.79
   3   2  10 2918.31   68.29
   5  -3 -10 2869.71   71.99
   5  -3 -10 2818.52   60.39
  -5   3  10 2852.41   65.59
   2  -3 -10 4954.80   92.79
   2  -3 -10 5084.79   96.99
  -1  -3 -10 2274.67   52.99
   1   3  10 2312.67   51.39
   4  -4 -10 1845.72   54.99
  -4   4  10 1734.93   49.40
   1  -4 -10 2287.57   56.59
  -2  -4 -10 1154.28   38.40
   2   4  10 1142.79   40.60
   2   4  10 1193.88   34.60
   6  -5 -10 1187.68   48.70
  -6   5  10 1152.58   45.30
  -3   5  10 2950.30   72.49
   0  -5 -10 1931.81   55.89
   0   5  10 1931.51   48.40
   5  -6 -10 1163.48   49.70
  -5   6  10 1146.79   46.50
  -2   6  10 1173.08   44.90
  -2   6 -11    8.80    7.90
  -5   6 -11    1.10    6.60
   0   5 -11   -0.50    3.90
   0   5 -11    3.80    5.20
  -3   5 -11   43.00   11.50
  -6   5 -11    6.30    7.50
   2   4 -11    4.20    4.90
  -1   4 -11  122.09   14.70
  -4   4 -11    3.10    5.10
   1   3 -11  121.99   13.50
   1   3 -11  127.99   12.30
  -2   3 -11    7.90    4.90
  -5   3 -11   34.20    9.40
   5  -3  11   31.30    8.30
   5  -3  11   40.10    9.70
   3   2 -11   24.70    6.80
   0   2 -11    1.30    2.50
   0   2 -11    0.50    1.70
  -3   2 -11    2.70    3.90
   3  -2  11    2.00    3.10
  -6   2 -11    3.30    4.70
   6  -2  11    6.20    6.10
   5   1 -11    1.30    4.90
   5   1 -11   13.60    6.10
   2   1 -11    2.60    2.60
  -1   1 -11    4.10    2.70
  -4   1 -11  118.69   12.90
   4  -1  11  100.39   13.60
   4  -1  11  121.09   11.10
   4   0 -11    1.20    2.90
   4   0 -11    0.10    2.80
   1   0 -11    0.60    1.40
   1   0 -11    1.10    1.00
  -1   0  11   -0.20    0.80
  -2   0 -11    0.00    1.60
  -2   0 -11    0.80    0.60
   2   0  11    0.40    0.80
   2   0  11    1.80    2.30
  -5   0 -11    0.40    2.80
   5   0  11    1.30    4.60
   6  -1 -11    1.40    5.30
   6  -1 -11    9.30    5.70
   3  -1 -11    3.00    2.90
   3  -1 -11    0.30    1.50
  -3   1  11    5.10    2.50
   0  -1 -11    0.80    0.90
   0  -1 -11    1.80    1.30
   0  -1 -11   -0.10    1.50
   0   1  11   -0.80    1.20
   0   1  11   -0.90    0.90
  -3  -1 -11  107.59   11.20
   3   1  11   97.29   13.00
   3   1  11  120.29    6.90
   5  -2 -11   41.90    9.50
   5  -2 -11   23.00    6.40
  -5   2  11   44.40    7.60
   2  -2 -11   -0.60    0.70
   2  -2 -11   -0.50    1.70
   2  -2 -11    2.70    2.70
  -1  -2 -11    7.70    3.40
   1   2  11    8.10    3.70
  -4  -2 -11   14.80    5.40
   4   2  11    3.00    5.30
   4  -3 -11  106.29   14.20
   4  -3 -11  121.39   10.10
  -4   3  11  108.99   13.00
   1  -3 -11   12.00    4.40
   1  -3 -11    2.20    2.90
  -1   3  11    7.50    2.10
  -2  -3 -11   36.20    7.70
   2   3  11   38.00    6.20
   2   3  11   22.40    6.70
   6  -4 -11    0.10    5.50
  -6   4  11    0.80    5.30
   3  -4 -11  114.99   15.20
  -3   4  11  143.29   15.30
   0  -4 -11   -0.40    3.50
   0   4  11    1.80    2.90
   5  -5 -11   20.60    8.30
  -5   5  11   -2.00    4.10
   2  -5 -11   41.70    9.90
  -1  -5 -11    2.60    5.00
   1   5  11    3.70    4.70
   1   5  11    6.00    3.90
  -4   6  11    8.40    6.80
   1  -6 -11    2.40    4.60
  -1   6  11    0.80    4.20
  -3   6 -12   13.40    9.10
  -1   5 -12   43.20   10.40
  -4   5 -12    7.90    7.20
   1   4 -12   85.89   11.80
   1   4 -12   67.19   11.60
  -2   4 -12   22.30    8.10
  -5   4 -12   13.50    7.20
   3   3 -12   17.50    6.90
   0   3 -12   65.99    9.50
  -3   3 -12  268.27   23.20
   6  -3  12    6.10    5.70
   6  -3  12   19.80    8.30
   2   2 -12   17.80    5.20
   2   2 -12   16.80    2.70
   2   2 -12   22.60    3.70
  -1   2 -12   26.50    5.80
  -4   2 -12   18.50    6.30
   4  -2  12   14.40    5.90
   4  -2  12   31.60    7.10
   4   1 -12    0.20    4.00
   4   1 -12    5.90    4.20
   1   1 -12   25.80    4.70
   1   1 -12   25.30    3.00
  -1  -1  12   38.10    3.70
  -2   1 -12   27.30    5.40
   2  -1  12   28.00    5.90
  -5   1 -12   62.09   10.00
   5  -1  12   42.70   10.70
   5  -1  12   61.09    8.70
   3   0 -12  217.58   13.30
   0   0 -12  718.13   16.00
   0   0 -12  717.43   17.10
  -3   0 -12   53.59    7.80
  -3   0 -12   46.80    4.10
   3   0  12   50.19    9.20
   3   0  12   55.39    5.10
   5  -1 -12    5.20    3.90
   5  -1 -12    7.90    5.30
   2  -1 -12   29.40    5.40
   2  -1 -12   25.50    3.80
  -1  -1 -12   23.70    4.60
   1   1  12   31.40    5.40
   1   1  12   26.30    2.80
  -4  -1 -12   64.79    9.60
   4   1  12   79.29   13.30
   4  -2 -12   37.80    8.50
  -4   2  12   29.10    6.10
   1  -2 -12   22.60    4.90
   1  -2 -12   32.40    5.90
  -1   2  12   39.60    2.60
  -2  -2 -12   13.10    4.70
   2   2  12   16.70    5.40
   2   2  12   16.60    3.40
   6  -3 -12   19.10    8.80
   6  -3 -12    8.40    5.10
   3  -3 -12   41.70    8.90
  -3   3  12   31.30    6.40
   0  -3 -12  225.28   14.40
   0   3  12  238.88   11.90
  -3  -3 -12    5.90    4.20
   3   3  12    8.00    6.40
   5  -4 -12   45.50   11.10
  -5   4  12   58.89   10.90
   2  -4 -12   11.50    5.10
   2  -4 -12    8.20    4.90
  -2   4  12   20.70    2.60
  -1  -4 -12    2.60    3.90
   1   4  12    8.30    4.70
   4  -5 -12   34.00    9.90
  -4   5  12   91.29   14.60
   1  -5 -12   13.10    6.30
  -1   5  12   10.10    3.90
  -3   6  12   10.00    6.80
  -1   6 -13    4.40    6.40
  -4   6 -13   -1.40    6.10
   1   5 -13   12.30    6.50
  -2   5 -13   81.49   15.10
  -5   5 -13   -0.70    6.10
   0   4 -13    2.30    3.10
   0   4 -13    3.50    4.30
  -3   4 -13   -4.30    3.80
  -6   4 -13    1.80    6.50
   6  -4  13    6.30    5.50
   2   3 -13   66.99   10.70
  -1   3 -13  148.29   14.70
  -4   3 -13   -2.30    4.20
   4  -3  13   -0.30    3.70
   4   2 -13    6.00    5.10
   1   2 -13  163.18   11.60
   1   2 -13  160.28    9.90
  -2   2 -13    0.60    3.30
  -5   2 -13  100.39   13.80
   5  -2  13   97.99   11.90
   5  -2  13   78.79   14.10
   3   1 -13    2.50    3.20
   0   1 -13    3.20    2.10
   0   1 -13    0.00    1.20
  -3   1 -13  147.79   13.40
   3  -1  13  140.89   14.60
  -6   1 -13   11.70    5.40
   6  -1  13    2.00    5.70
   5   0 -13    0.50    4.00
   5   0 -13    2.50    4.30
   2   0 -13    0.00    2.10
  -1   0 -13   -0.30    1.40
  -1   0 -13    0.10    0.60
   1   0  13    3.30    2.50
  -4   0 -13    1.70    2.70
   4   0  13    1.20    2.40
   4   0  13   -1.30    3.80
   4  -1 -13   -2.10    2.10
   4  -1 -13    3.70    3.90
  -4   1  13   -0.20    1.90
   1  -1 -13   -0.90    1.30
   1  -1 -13    1.60    1.50
  -2  -1 -13  151.68   10.30
   2   1  13  153.08    5.80
   2   1  13  150.78   13.90
   2   1  13  149.19    4.90
   5   1  13    5.50    6.80
   6  -2 -13   -1.40    3.90
   6  -2 -13    0.10    5.60
   3  -2 -13  146.09   13.80
   3  -2 -13  152.58    7.70
  -3   2  13  159.68   10.20
   0  -2 -13   -0.10    2.20
   0  -2 -13    0.60    1.10
   0   2  13   -0.10    1.60
  -3  -2 -13   74.39   10.30
   3   2  13   76.69   12.40
   5  -3 -13   93.09   14.40
   5  -3 -13   86.29   10.10
   2  -3 -13  167.78   16.60
   2  -3 -13  183.18   12.90
  -1  -3 -13   -1.30    2.80
   1   3  13    4.20    3.60
   4  -4 -13    1.60    4.60
  -4   4  13    0.30    4.00
   1  -4 -13   -1.00    2.70
  -1   4  13   -0.40    1.90
  -2  -4 -13   -1.80    3.40
   2   4  13    0.70    4.70
   6  -5 -13    6.30    6.40
  -6   5  13   17.90    8.80
   3  -5 -13  103.59   16.30
  -3   5  13   95.09   14.30
   0  -5 -13    0.30    3.80
   0   5  13   -2.10    3.40
   5  -6 -13   16.20    9.70
  -5   6  13   11.00    7.30
   2  -6 -13   11.40    7.10
  -2   6  13    5.20    5.50
  -2   6 -14 1877.51   61.99
  -5   6 -14 1755.92   65.09
   0   5 -14 2009.10   57.69
   0   5 -14 1987.10   57.49
  -3   5 -14 3052.59   81.19
  -6   5 -14 1704.43   60.89
   2   4 -14 1812.62   53.19
  -1   4 -14 3560.14   80.29
  -4   4 -14 2561.54   71.29
   1   3 -14 3428.26   72.09
   1   3 -14 3291.87   66.09
  -2   3 -14 6914.61  127.79
  -5   3 -14 3180.78   76.79
   5  -3  14 3064.49   75.99
   3   2 -14 3020.70   67.99
   0   2 -14 7814.82  128.59
   0   2 -14 7941.31  129.59
  -3   2 -14 6559.44  119.99
   3  -2  14 6658.93  119.79
  -6   2 -14 1920.61   54.29
   6  -2  14 2023.40   63.59
   5   1 -14 1712.93   51.09
   5   1 -14 1676.03   51.99
   2   1 -14 7021.10  119.39
  -1   1 -14 6953.60  112.89
  -4   1 -14 3463.65   72.19
   4  -1  14 3597.74   79.59
   4  -1  14 3446.66   63.79
   4   0 -14 2193.88   52.99
   4   0 -14 2320.67   55.59
   1   0 -14 7548.54  114.69
   1   0 -14 6839.92  108.09
  -1   0  14 7271.57  110.39
  -2   0 -14 7769.52  125.59
   2   0  14 7592.64  130.69
  -5   0 -14 2115.99   52.89
   5   0  14 2085.59   63.59
   6  -1 -14 1677.53   51.09
   6  -1 -14 1625.64   52.59
   3  -1 -14 6842.52  116.89
  -3   1  14 6571.94  104.69
   0  -1 -14 7363.36  109.29
   0   1  14 6790.92  110.79
  -3  -1 -14 3486.05   69.49
   3   1  14 3431.56   54.59
   3   1  14 3456.15   75.99
   5  -2 -14 3059.49   73.99
   5  -2 -14 3145.19   65.79
  -5   2  14 3065.99   61.89
   2  -2 -14 8241.98  119.99
   2  -2 -14 8362.06  134.19
   2  -2 -14 8344.67  138.19
  -1  -2 -14 6739.03  116.09
   1   2  14 6846.71  115.09
  -4  -2 -14 1260.27   38.20
   4  -3 -14 3478.45   79.59
   4  -3 -14 3570.64   62.39
  -4   3  14 3496.55   72.29
   1  -3 -14 6671.43  119.19
   1  -3 -14 6895.71  120.89
  -1   3  14 6871.51  104.39
  -2  -3 -14 3044.30   67.59
   2   3  14 3070.59   57.59
   2   3  14 3070.99   70.29
   6  -4 -14 1977.80   63.89
  -6   4  14 1926.61   55.49
   3  -4 -14 3465.75   76.89
   3  -4 -14 3581.04   82.09
   0  -4 -14 2261.77   56.89
   0   4  14 2177.28   49.10
   5  -5 -14 1928.51   62.49
  -5   5  14 1942.31   57.59
   2  -5 -14 3056.19   75.39
  -1  -5 -14 1676.83   51.99
   1   5  14 1568.14   48.30
   1   5  14 1590.64   45.80
  -4   6  14 1954.60   61.79
   1  -6 -14 1631.24   55.19
  -3   6 -15   -1.50    6.00
  -1   5 -15   10.50    7.10
  -4   5 -15   27.50   11.10
   1   4 -15   13.50    6.00
   1   4 -15    7.50    5.50
  -2   4 -15    5.50    5.70
  -5   4 -15   22.80    9.40
   3   3 -15   -4.20    2.90
   0   3 -15    0.80    2.80
   0   3 -15   -0.10    3.10
  -3   3 -15   -1.20    4.00
  -6   3 -15    1.00    4.90
   6  -3  15    0.90    6.00
   2   2 -15    8.80    4.30
   2   2 -15   12.10    2.40
   2   2 -15   11.90    2.00
  -1   2 -15  300.37   15.70
  -4   2 -15    8.30    5.20
   4  -2  15   21.90    7.80
   4   1 -15   21.20    6.50
   1   1 -15  265.27    8.80
   1   1 -15  262.57   13.00
  -1  -1  15  276.27    9.70
  -2   1 -15  266.47   14.40
   2  -1  15  235.78   14.50
  -5   1 -15    6.20    4.20
   5  -1  15   15.30    7.70
   3   0 -15    0.90    2.70
   0   0 -15   -0.20    1.40
   0   0 -15   -1.10    1.00
  -3   0 -15    0.40    2.00
   3   0  15   -2.60    2.60
   5  -1 -15   23.00    6.80
   5  -1 -15   15.40    6.60
   2  -1 -15  227.98   12.40
   2  -1 -15  270.27   10.40
  -1  -1 -15  260.97   12.80
   1   1  15  260.87   13.70
   1   1  15  260.57    6.70
  -4  -1 -15   10.70    4.90
   4   1  15    6.60    5.60
   4  -2 -15    9.20    5.20
   4  -2 -15   12.70    3.90
  -4   2  15   16.60    4.60
   1  -2 -15  299.17   14.10
  -2  -2 -15   13.90    4.80
   2   2  15   13.70    3.00
   2   2  15   11.10    4.90
   6  -3 -15   -1.10    3.70
   6  -3 -15    4.00    5.60
   3  -3 -15   -1.30    2.80
   3  -3 -15    0.80    2.90
   0  -3 -15    0.10    2.60
   0   3  15    4.20    2.70
  -3  -3 -15    1.20    3.50
   3   3  15    4.30    5.50
   5  -4 -15    4.40    5.40
  -5   4  15    6.40    5.30
   2  -4 -15    7.30    4.90
   2  -4 -15   10.40    5.10
  -1  -4 -15   22.40    7.20
   1   4  15   21.00    6.70
   4  -5 -15   14.10    7.50
  -4   5  15    4.90    5.00
   1  -5 -15   22.80    7.70
  -1   5  15   16.60    4.90
  -3   6  15    4.40    5.90
  -1   6 -16   30.60    8.70
  -1   6 -16   29.60   10.80
  -4   6 -16   -3.50    5.90
   1   5 -16   14.20    7.10
  -2   5 -16  325.97   28.60
  -5   5 -16  231.28   27.50
   0   4 -16  264.57   19.00
   0   4 -16  200.58   18.60
  -3   4 -16  220.98   23.50
  -6   4 -16   20.00    8.80
   2   3 -16  258.57   17.60
  -1   3 -16  358.56   20.00
  -4   3 -16  218.48   21.80
   4   2 -16   13.40    6.00
   1   2 -16  403.26   14.50
   1   2 -16  366.56   17.90
  -2   2 -16 1578.44   42.20
  -5   2 -16  282.87   20.10
   5  -2  16  301.77   27.00
   3   1 -16  198.18   17.40
   0   1 -16  911.61   23.90
   0   1 -16  916.11   22.80
  -3   1 -16  390.96   18.80
   3  -1  16  418.66   21.70
  -6   1 -16   26.70    7.60
   6  -1  16   30.80   10.50
   5   0 -16  221.68   21.40
   5   0 -16  210.48   20.00
   2   0 -16 1449.06   25.10
   2   0 -16 1501.65   36.40
  -2   0  16 1501.45   25.40
  -1   0 -16  840.12   16.20
  -1   0 -16  865.71   23.60
   1   0  16  899.51   26.20
  -4   0 -16  233.68   15.60
   4   0  16  227.98   21.50
   4  -1 -16  179.98   12.10
   4  -1 -16  171.08   16.40
  -4   1  16  191.98    8.40
   1  -1 -16  902.31   23.90
   1  -1 -16  936.01   23.20
  -2  -1 -16  372.96   16.90
   2   1  16  374.56   19.20
  -5  -1 -16    3.20    3.60
   5   1  16   21.70    9.10
   6  -2 -16   12.70    5.60
   6  -2 -16   10.50    6.40
   3  -2 -16  366.86   19.20
   3  -2 -16  346.07   15.30
   3  -2 -16  346.37   11.40
   0  -2 -16 1510.25   35.10
   0  -2 -16 1567.54   38.10
   0   2  16 1537.55   34.00
  -3  -2 -16  307.57   17.90
   3   2  16  330.97   22.20
   5  -3 -16  274.77   25.40
   5  -3 -16  327.57   16.00
  -5   3  16  308.27   18.40
   2  -3 -16  379.36   18.80
   2  -3 -16  378.96   20.50
  -1  -3 -16  188.58   17.50
   1   3  16  184.38   15.40
   4  -4 -16  224.68   23.10
  -4   4  16  227.38   20.20
   1  -4 -16  205.28   18.60
  -1   4  16  177.88   10.00
  -2  -4 -16    6.80    4.90
   2   4  16   11.40    6.60
   6  -5 -16   23.30   10.40
  -6   5  16   17.60    8.20
   3  -5 -16  243.08   24.30
   3  -5 -16  312.07   22.10
   0  -5 -16  214.48   22.20
   0   5  16  253.97   19.30
   5  -6 -16   13.80    8.20
  -5   6  16   12.30    7.60
   2  -6 -16   15.10    8.10
  -2   6 -17    3.50    7.10
  -5   6 -17    1.20    7.30
   0   5 -17    1.20    4.20
   0   5 -17   -6.10    4.20
  -3   5 -17    2.30    6.00
  -6   5 -17    2.40    7.80
   2   4 -17   13.60    6.80
  -1   4 -17  100.59   14.40
  -4   4 -17   -0.70    5.30
   1   3 -17   79.29   11.40
   1   3 -17   85.49   10.20
  -2   3 -17  216.38   20.30
  -5   3 -17   -0.10    5.30
   5  -3  17    3.90    5.80
   3   2 -17    7.70    5.00
   0   2 -17    1.90    2.70
   0   2 -17   -1.60    1.90
  -3   2 -17  178.48   16.30
   3  -2  17  170.08   16.00
  -6   2 -17    8.70    5.70
   6  -2  17   12.30    6.90
   5   1 -17    0.60    4.10
   5   1 -17    2.90    5.20
   2   1 -17  196.88   13.10
  -1   1 -17   -1.50    2.00
  -1   1 -17    0.90    1.40
  -4   1 -17  114.99   13.90
   4  -1  17  102.29   14.70
   4   0 -17    2.80    3.70
   1   0 -17   -0.40    1.40
   1   0 -17    0.60    1.20
  -2   0 -17   -0.40    2.10
   2   0  17   -0.40    2.90
  -5   0 -17    3.60    3.50
   5   0  17   -6.90    3.90
   6  -1 -17   17.60    8.30
   6  -1 -17   -0.60    4.40
   3  -1 -17  187.28   13.40
  -3   1  17  200.38    8.90
   0  -1 -17    0.40    1.20
   0  -1 -17   -2.20    1.30
   0   1  17    0.80    2.00
  -3  -1 -17  107.99   12.10
   3   1  17   84.99   12.60
   5  -2 -17    4.00    3.60
   5  -2 -17    6.50    5.30
   2  -2 -17    0.60    1.90
   2  -2 -17   -0.80    2.30
  -1  -2 -17  193.08   12.80
   1   2  17  189.48   12.90
  -4  -2 -17   28.20    7.30
   4   2  17   15.40    7.70
   4  -3 -17  108.49   14.80
   4  -3 -17  117.39    9.00
  -4   3  17   91.79   11.40
   1  -3 -17  180.38   16.00
   1  -3 -17  210.28   14.40
  -1   3  17  189.18    8.60
  -2  -3 -17    2.00    3.50
   2   3  17    1.30    4.50
   6  -4 -17   12.80    8.00
  -6   4  17    6.10    5.90
   3  -4 -17   79.99   13.40
   3  -4 -17  126.89   15.20
   0  -4 -17   -3.50    2.70
   0   4  17   -1.10    3.00
   5  -5 -17   -2.20    3.70
  -5   5  17    1.90    4.40
   2  -5 -17    0.70    4.70
  -1  -5 -17    2.20    4.40
   1   5  17   -0.60    4.40
   4  -6 -17   19.80    8.60
  -4   6  17   15.60    7.90
   1  -6 -17   12.20    7.50
  -3   6 -18 1226.18   51.79
  -1   5 -18 1385.96   48.20
  -4   5 -18 1489.25   55.79
   1   4 -18 1429.16   46.00
   1   4 -18 1407.26   40.90
  -2   4 -18 2710.63   70.59
  -5   4 -18 1556.74   54.59
   3   3 -18 1092.99   39.70
   0   3 -18 2035.50   49.50
   0   3 -18 1979.30   49.90
  -3   3 -18 2011.40   56.19
  -6   3 -18 1290.87   46.80
   6  -3  18 1200.98   47.70
   2   2 -18 2519.75   58.19
   2   2 -18 2428.36   38.40
  -1   2 -18 5656.43  101.69
  -4   2 -18 2521.45   62.39
   4  -2  18 2516.55   64.99
   4   1 -18 1308.07   41.50
   1   1 -18 5549.34   86.39
   1   1 -18 5524.35   96.09
  -2   1 -18 5390.26   96.09
   2  -1  18 5244.78   99.59
  -5   1 -18 1391.06   42.90
   5  -1  18 1383.26   50.09
   3   0 -18 1867.71   46.60
   0   0 -18  978.90   22.50
   0   0 -18  938.41   23.70
  -3   0 -18 1997.30   48.50
   3   0  18 2036.30   54.29
   5  -1 -18 1446.46   41.70
   5  -1 -18 1384.06   45.90
   2  -1 -18 5663.43   99.39
   2  -1 -18 5673.73   91.79
  -1  -1 -18 5383.26   92.39
   1   1  18 5187.48   77.49
   1   1  18 5135.19   93.69
  -4  -1 -18 1458.05   42.40
   4   1  18 1387.36   48.60
   4  -2 -18 2583.64   63.39
   4  -2 -18 2524.05   50.69
  -4   2  18 2590.74   52.59
   1  -2 -18 5436.56   97.09
   1  -2 -18 5614.94   82.89
   1  -2 -18 5619.34   97.59
  -2  -2 -18 2629.64   59.29
   2   2  18 2594.64   42.70
   2   2  18 2586.14   61.39
   6  -3 -18 1171.08   46.60
   3  -3 -18 2002.40   53.59
   3  -3 -18 2032.50   49.60
   0  -3 -18 2011.10   49.80
   0   3  18 1906.71   42.90
  -3  -3 -18 1156.98   39.10
   3   3  18 1180.88   44.40
   5  -4 -18 1337.47   49.60
  -5   4  18 1369.16   42.80
   2  -4 -18 2556.64   65.39
   2  -4 -18 2686.13   64.49
  -1  -4 -18 1445.96   45.10
   1   4  18 1326.07   41.40
   4  -5 -18 1362.06   50.29
  -4   5  18 1389.66   46.40
   1  -5 -18 1361.26   46.60
  -3   6  18 1307.47   48.90
  -4   6 -19   14.80   10.70
  -2   5 -19   31.60   10.40
  -5   5 -19    5.30    7.00
   0   4 -19   -1.60    4.50
   0   4 -19   -1.30    3.10
  -3   4 -19   96.69   16.00
  -6   4 -19    8.90    7.80
   2   3 -19   29.30    8.10
  -1   3 -19  269.17   18.50
  -4   3 -19   92.19   14.60
   4   2 -19   13.70    6.90
   1   2 -19  258.57   15.50
   1   2 -19  253.47   11.50
  -2   2 -19    5.20    4.10
  -5   2 -19   15.80    7.40
   5  -2  19    4.90    6.50
   3   1 -19   77.99   11.30
   0   1 -19    3.40    2.20
   0   1 -19   -0.90    1.70
  -3   1 -19  237.28   15.70
   3  -1  19  219.78   19.90
   5   0 -19    4.50    4.80
   5   0 -19   -0.60    3.40
   2   0 -19    1.60    1.40
   2   0 -19    0.50    2.50
  -2   0  19   -0.20    1.20
  -1   0 -19    0.00    0.90
  -1   0 -19    0.50    2.30
   1   0  19   -1.80    2.50
  -4   0 -19   -0.40    3.00
   4   0  19    6.50    6.00
   4  -1 -19   68.69    9.00
   4  -1 -19   62.29   10.20
   1  -1 -19   -0.30    1.60
   1  -1 -19    2.80    2.30
  -2  -1 -19  238.68   14.30
   2   1  19  237.88   16.30
   6  -2 -19   16.00    8.20
   6  -2 -19   19.30    6.60
   3  -2 -19  239.78   13.20
   3  -2 -19  255.07   16.40
   3  -2 -19  241.68    9.20
   0  -2 -19   -0.90    1.70
   0  -2 -19   -0.70    2.30
   0   2  19   -2.10    1.90
  -3  -2 -19   14.30    5.60
   3   2  19   18.20    7.40
   5  -3 -19   19.40    5.00
   5  -3 -19   17.80    7.60
  -5   3  19   20.00    6.30
   2  -3 -19  249.88   16.60
   2  -3 -19  216.48   14.80
  -1  -3 -19  100.39   12.80
   1   3  19  102.99   12.30
   4  -4 -19   -1.00    3.50
  -4   4  19   -3.00    2.50
   1  -4 -19   72.99   11.80
  -1   4  19   85.59    8.10
  -2  -4 -19   18.60    7.50
   2   4  19   27.40    8.80
   3  -5 -19   12.30    6.70
   3  -5 -19   18.20    7.00
   0  -5 -19    2.40    5.00
   0   5  19   -2.90    3.80
   2  -6 -19   10.30    7.30
  -2   6 -20  266.27   28.50
   0   5 -20  719.83   33.70
   0   5 -20  739.73   34.00
  -3   5 -20  912.51   42.20
   2   4 -20  228.58   22.30
  -1   4 -20 1064.39   39.50
  -4   4 -20 1333.07   49.20
   1   3 -20 1037.10   35.90
   1   3 -20 1007.10   29.00
  -2   3 -20 1445.46   44.70
  -5   3 -20 1034.10   40.50
   5  -3  20  980.20   40.00
   3   2 -20  977.10   35.80
   0   2 -20 3018.60   59.79
   0   2 -20 3019.80   62.29
  -6   2 -20  255.77   23.50
   6  -2  20  236.38   26.90
   2   1 -20 1394.16   38.50
  -1   1 -20 2910.61   52.79
  -4   1 -20 1096.99   36.70
   4  -1  20 1135.09   42.20
   4   0 -20 1206.88   39.80
   1   0 -20 2777.52   49.50
   1   0 -20 2761.42   53.99
  -2   0 -20 3016.50   61.59
   2   0  20 2826.92   65.19
  -5   0 -20  838.22   33.10
   5   0  20  831.72   40.40
   3  -1 -20 1336.47   28.80
   0  -1 -20 2921.81   52.19
   0  -1 -20 2842.82   56.69
  -3  -1 -20 1089.19   34.80
   3   1  20 1069.59   39.40
   5  -2 -20  543.05   21.80
   2  -2 -20 2984.40   62.99
   2  -2 -20 2991.80   59.69
  -1  -2 -20 1453.45   39.40
   1   2  20 1424.76   39.30
  -4  -2 -20  243.58   21.20
   4   2  20  252.17   25.90
   4  -3 -20 1072.99   24.20
   4  -3 -20 1050.09   38.80
  -4   3  20 1093.09   32.70
   1  -3 -20 1459.95   40.40
   1  -3 -20 1372.96   39.30
  -1   3  20 1398.36   28.30
  -2  -3 -20  946.71   34.90
   2   3  20  960.40   36.40
   6  -4 -20  197.48   24.10
   3  -4 -20 1077.09   40.40
   3  -4 -20 1013.90   36.70
   0  -4 -20 1208.98   40.90
   0   4  20 1248.78   35.10
   5  -5 -20  764.82   39.40
  -5   5  20  798.12   35.10
   2  -5 -20  990.00   39.30
   4  -6 -20  225.08   25.80
  -4   6  20  235.58   25.80
  -3   6 -21   -1.70    6.30
  -1   5 -21   12.70    8.60
  -1   5 -21   15.10    7.50
  -4   5 -21    8.90    8.70
   1   4 -21   10.20    5.70
  -2   4 -21    1.50    5.80
  -5   4 -21    6.30    6.60
   3   3 -21    3.10    4.50
   0   3 -21   -2.30    3.20
   0   3 -21    0.30    2.70
  -3   3 -21   -1.90    4.00
  -6   3 -21   -3.90    4.00
   6  -3  21   -6.10    5.00
   2   2 -21    0.40    3.50
  -1   2 -21   70.99    8.50
  -1   2 -21   65.29    9.20
  -4   2 -21    1.80    4.00
   4  -2  21    0.20    4.80
   4   1 -21   11.00    6.00
   1   1 -21   74.69    9.20
   1   1 -21   80.49    6.70
  -2   1 -21   86.59    5.80
  -2   1 -21   87.59   10.60
   2  -1  21   85.59   11.30
  -5   1 -21   33.50    8.60
   5  -1  21    1.60    5.60
   3   0 -21    0.80    2.60
   0   0 -21    0.00    1.60
   0   0 -21    0.90    1.50
  -3   0 -21    0.50    2.80
   3   0  21    1.40    4.30
   5  -1 -21    9.90    4.80
   5  -1 -21   18.90    7.60
   2  -1 -21   83.09   10.00
   2  -1 -21   83.69    7.80
  -1  -1 -21   76.99    4.90
  -1  -1 -21   75.69    9.30
   1   1  21   74.69   10.10
   1   1  21   80.69    4.00
  -4  -1 -21   18.50    6.50
   4   1  21    8.60    6.60
   4  -2 -21   -0.40    3.60
   4  -2 -21    7.60    3.10
  -4   2  21    6.70    3.60
   1  -2 -21   80.99   10.00
   1  -2 -21   74.99    5.10
   1  -2 -21   79.89    9.50
  -2  -2 -21    6.70    4.20
   2   2  21    8.60    4.90
   6  -3 -21   -2.90    4.70
   3  -3 -21    0.00    3.10
   3  -3 -21   -0.10    2.80
   0  -3 -21   -0.20    2.90
   0   3  21    0.30    2.90
  -3  -3 -21    0.30    4.10
   3   3  21    3.50    5.50
   5  -4 -21    6.80    6.80
  -5   4  21   20.70    7.40
   2  -4 -21    4.40    4.70
   2  -4 -21    2.80    3.80
  -1  -4 -21   20.10    7.40
   1   4  21   21.00    6.80
   4  -5 -21    7.50    6.30
  -4   5  21   32.00    9.60
   1  -5 -21    9.10    6.00
   3  -6 -21   -1.70    5.90
  -4   6 -22  684.83   41.30
  -2   5 -22  845.42   39.20
  -5   5 -22  609.84   36.60
   0   4 -22  436.26   23.90
   0   4 -22  511.65   25.50
  -3   4 -22  862.91   37.90
  -6   4 -22  591.24   34.10
   2   3 -22  788.32   32.80
  -1   3 -22 2067.69   50.19
  -1   3 -22 2043.90   53.09
  -4   3 -22  807.22   34.60
   4   2 -22  641.14   31.40
   1   2 -22 2117.69   51.29
   1   2 -22 2056.29   41.40
  -2   2 -22 2349.86   55.69
  -5   2 -22  827.72   34.30
   5  -2  22  826.22   38.10
   3   1 -22  771.62   30.00
   0   1 -22 1971.40   41.30
   0   1 -22 1959.10   42.60
  -3   1 -22 2068.29   52.09
  -3   1 -22 2111.59   36.20
   5   0 -22  584.74   26.50
   5   0 -22  592.44   30.40
   2   0 -22 2415.36   42.40
  -1   0 -22 1968.60   44.40
  -1   0 -22 1966.00   35.30
  -4   0 -22  492.95   24.50
   4   0  22  471.75   27.90
   4  -1 -22  855.51   32.70
   1  -1 -22 1980.60   42.20
   1  -1 -22 1936.01   42.50
  -2  -1 -22 2001.40   49.10
   2   1  22 2024.90   52.89
   6  -2 -22  687.03   28.50
   6  -2 -22  633.24   34.10
   3  -2 -22 2069.79   45.10
   3  -2 -22 1991.40   52.09
   0  -2 -22 2326.57   49.10
   0  -2 -22 2454.15   54.49
   0   2  22 2395.96   50.49
  -3  -2 -22  813.12   31.60
   3   2  22  859.31   36.70
   5  -3 -22  757.22   35.00
  -5   3  22  817.22   28.60
   2  -3 -22 2026.80   53.09
   2  -3 -22 2053.59   50.79
  -1  -3 -22  799.12   31.00
   1   3  22  815.02   30.20
   4  -4 -22  477.75   28.20
  -4   4  22  482.75   23.70
   1  -4 -22  884.91   34.00
  -1   4  22  808.72   22.60
  -2  -4 -22  677.33   31.80
   2   4  22  673.13   32.90
   3  -5 -22  846.62   36.60
   3  -5 -22  801.92   36.80
   0  -5 -22  557.74   29.30
   2  -6 -22  625.24   34.70
  -2   6 -23   -1.00    7.10
   0   5 -23   -1.50    6.20
   0   5 -23    6.20    5.90
  -3   5 -23   48.70   12.70
   2   4 -23    4.50    5.20
  -1   4 -23    6.50    6.10
  -1   4 -23    0.50    3.10
  -4   4 -23    1.80    6.10
   1   3 -23    1.40    3.60
   1   3 -23    3.50    4.60
  -2   3 -23  114.89   15.20
  -5   3 -23   55.69   12.30
   3   2 -23   57.69   11.20
   0   2 -23    3.20    3.10
   0   2 -23   -1.40    2.50
  -6   2 -23    1.20    4.60
   6  -2  23    5.90    7.60
   2   1 -23  114.49    5.20
   2   1 -23  101.39   12.30
  -2  -1  23  107.69    5.50
  -1   1 -23    0.40    1.90
  -1   1 -23   -0.60    1.90
  -4   1 -23   -1.10    3.50
   4  -1  23    5.10    6.10
   4   0 -23    4.00    4.60
   1   0 -23    5.30    2.20
   1   0 -23   -0.20    1.90
  -2   0 -23    2.10    2.80
   2   0  23   -3.60    3.00
  -5   0 -23    4.30    4.10
   5   0  23   -8.80    3.90
   3  -1 -23   85.89   11.40
   3  -1 -23  116.49    7.90
   0  -1 -23    5.60    3.20
   0  -1 -23   -1.50    1.30
  -3  -1 -23    1.70    3.30
   3   1  23    1.20    5.20
   5  -2 -23   38.10    7.10
   5  -2 -23   48.10   11.00
   2  -2 -23    1.20    1.60
   2  -2 -23   -2.60    2.10
   2  -2 -23   -1.70    2.30
  -1  -2 -23  112.69   13.10
   1   2  23  111.39   12.70
  -4  -2 -23    9.50    5.60
   4   2  23   10.30    7.90
   4  -3 -23    6.90    5.80
  -4   3  23    1.90    3.40
   1  -3 -23  115.49   13.50
   1  -3 -23  124.09   13.70
  -2  -3 -23   55.39   10.90
   2   3  23   57.09   11.20
   6  -4 -23    3.10    6.50
   3  -4 -23    2.50    4.70
   3  -4 -23   -2.10    3.30
   0  -4 -23    0.40    3.60
   0   4  23    0.00    3.80
   5  -5 -23    2.20    6.10
  -5   5  23    8.80    6.00
   2  -5 -23   37.70    9.90
   4  -6 -23    4.30    6.30
  -4   6  23    1.10    5.60
  -3   6 -24  617.14   37.70
  -1   5 -24  825.02   37.80
  -1   5 -24  778.92   35.20
  -4   5 -24 1093.49   47.90
   1   4 -24  836.12   36.00
  -2   4 -24 1383.46   47.80
  -5   4 -24 1102.99   45.40
   3   3 -24  546.65   29.00
   0   3 -24 2433.36   59.79
   0   3 -24 2542.35   57.19
  -3   3 -24 1982.50   56.79
  -6   3 -24  587.44   32.50
   6  -3  24  567.94   34.20
   2   2 -24 1353.66   41.60
  -1   2 -24 2195.48   50.89
  -1   2 -24 2132.59   48.00
  -4   2 -24 1435.16   46.10
   4  -2  24 1453.65   49.60
   4   1 -24  976.70   37.50
   1   1 -24 2189.08   49.80
   1   1 -24 2193.68   42.20
  -2   1 -24 2286.77   42.40
  -5   1 -24  907.11   36.50
   5  -1  24  831.32   40.30
   3   0 -24 2031.40   51.99
   0   0 -24 5670.83   92.99
   0   0 -24 5496.75   95.59
  -3   0 -24 2519.55   60.29
   3   0  24 2460.45   65.39
   5  -1 -24  976.90   32.80
   5  -1 -24  987.00   39.70
   2  -1 -24 2234.98   51.29
   2  -1 -24 2136.09   44.30
  -1  -1 -24 2177.98   38.80
  -1  -1 -24 2109.39   49.70
   1   1  24 2207.58   52.69
   1   1  24 2144.69   37.80
  -4  -1 -24  895.01   34.50
   4   1  24  836.02   39.40
   4  -2 -24 1351.76   32.10
   4  -2 -24 1436.66   45.20
  -4   2  24 1340.17   33.80
   1  -2 -24 2189.68   50.49
   1  -2 -24 2219.78   49.60
  -2  -2 -24 1491.05   44.50
   2   2  24 1506.05   47.20
   6  -3 -24  587.24   33.70
   3  -3 -24 2501.35   58.09
   3  -3 -24 2548.95   63.99
   0  -3 -24 2159.58   55.19
   0   3  24 2127.39   49.00
  -3  -3 -24  624.44   30.20
   3   3  24  661.03   35.00
   5  -4 -24  754.22   37.80
  -5   4  24  823.92   31.90
   2  -4 -24 1414.36   45.30
   2  -4 -24 1350.56   43.50
  -1  -4 -24  980.60   38.00
   1   4  24 1054.49   37.70
   4  -5 -24  791.72   35.20
   4  -5 -24  787.82   38.20
  -4   5  24  811.32   34.60
   1  -5 -24 1061.19   41.80
   3  -6 -24  582.14   33.20
  -2   5 -25    3.60    7.50
  -5   5 -25   -4.80    5.50
   0   4 -25   -2.10    4.40
   0   4 -25   -0.50    3.60
  -3   4 -25   53.89   12.70
   2   3 -25    7.00    4.70
  -1   3 -25   18.60    6.70
  -1   3 -25   19.50    5.90
  -4   3 -25   60.99   12.10
   1   2 -25   33.90    7.60
   1   2 -25   15.50    4.00
  -2   2 -25    1.00    3.70
  -2   2 -25    1.50    2.00
  -5   2 -25    0.40    5.10
   5  -2  25    5.60    6.40
   3   1 -25   50.19    9.90
   0   1 -25    1.20    2.60
   0   1 -25    2.30    2.60
  -3   1 -25   28.10    3.40
  -3   1 -25   22.70    6.80
   3  -1  25   22.30    7.50
   5   0 -25    2.90    4.80
   5   0 -25   -2.80    3.10
   2   0 -25   -0.60    1.50
   2   0 -25   -3.80    2.20
  -1   0 -25    3.90    3.30
  -1   0 -25    0.70    1.40
  -4   0 -25    0.90    3.60
   4   0  25   -2.10    5.40
   4  -1 -25   47.40   10.00
   1  -1 -25    3.20    2.80
   1  -1 -25    2.30    2.70
  -2  -1 -25   28.40    7.30
   2   1  25   19.90    7.60
   3  -2 -25   32.50    6.40
   3  -2 -25   27.10    7.50
   0  -2 -25    0.40    2.40
   0  -2 -25   -0.70    2.30
   0   2  25    3.60    3.30
  -3  -2 -25    4.70    4.60
   3   2  25    2.80    5.80
   5  -3 -25    3.10    5.20
  -5   3  25    2.60    3.40
   2  -3 -25   27.40    7.50
   2  -3 -25   20.30    6.40
  -1  -3 -25   68.79   11.60
   1   3  25   52.39   10.10
   4  -4 -25   -4.30    3.50
   4  -4 -25   -5.40    3.60
   1  -4 -25   67.69   11.50
   1  -4 -25   67.99   11.70
   3  -5 -25    4.30    5.30
   3  -5 -25    4.60    5.30
   0  -5 -25   -0.60    4.80
   0   5 -26  468.65   28.00
  -3   5 -26  551.74   34.30
  -1   4 -26  288.57   24.60
  -1   4 -26  349.27   21.10
  -4   4 -26  327.67   29.60
   1   3 -26  285.57   19.70
   1   3 -26  296.67   14.60
  -2   3 -26  828.22   33.30
  -5   3 -26  576.94   32.10
   3   2 -26  585.74   28.80
   0   2 -26 1946.51   45.10
   0   2 -26 1954.90   48.60
  -3   2 -26  851.51   33.30
   2   1 -26  847.82   30.80
   2   1 -26  826.82   18.30
  -1   1 -26  862.81   23.90
  -1   1 -26  874.01   28.20
  -4   1 -26  264.47   18.80
   4  -1  26  322.67   28.00
   4   0 -26  276.37   19.70
   1   0 -26  770.12   25.40
   1   0 -26  825.02   22.90
  -2   0 -26 1860.71   48.00
   2   0  26 1873.01   52.29
  -5   0 -26  503.45   27.50
   5   0  26  490.65   33.40
   3  -1 -26  795.22   30.60
   3  -1 -26  838.52   22.40
   0  -1 -26  799.52   22.90
   0  -1 -26  845.42   26.90
  -3  -1 -26  343.07   20.70
   3   1  26  347.57   23.80
   5  -2 -26  619.94   23.20
   5  -2 -26  611.14   32.10
   2  -2 -26 1890.91   48.10
   2  -2 -26 1801.72   43.90
  -1  -2 -26  872.21   31.40
   1   2  26  841.42   31.60
   4  -3 -26  366.06   19.30
   4  -3 -26  300.17   21.30
   1  -3 -26  831.92   30.70
   1  -3 -26  814.52   29.90
  -2  -3 -26  603.84   28.70
   2   3  26  616.64   31.40
   3  -4 -26  322.27   20.80
   3  -4 -26  307.07   27.20
   0  -4 -26  271.47   19.70
   0   4  26  254.87   17.30
   5  -5 -26  480.85   31.90
  -5   5  26  487.05   27.50
   2  -5 -26  601.24   31.50
   2  -5 -26  634.54   31.60
  -1   5 -27    5.10    6.70
  -1   5 -27    3.20    4.50
  -4   5 -27   -3.30    5.50
   1   4 -27    5.40    5.60
  -2   4 -27   16.00    5.90
  -2   4 -27   19.80    8.00
  -5   4 -27   -0.40    6.10
   0   3 -27    0.40    3.40
   0   3 -27    2.50    3.90
  -3   3 -27    6.30    5.50
   2   2 -27   15.10    6.40
  -1   2 -27  316.87   16.30
  -1   2 -27  297.17   17.80
  -4   2 -27   13.20    6.70
   4  -2  27   23.90    8.60
   4   1 -27    1.60    4.80
   1   1 -27  306.77   13.00
   1   1 -27  293.67   16.40
  -2   1 -27  285.87   17.60
  -2   1 -27  298.77   11.70
  -5   1 -27    1.00    4.20
   5  -1  27   -0.50    5.70
   3   0 -27    4.80    4.20
   0   0 -27    1.20    2.20
   0   0 -27   -0.60    2.20
  -3   0 -27   -0.80    3.00
   3   0  27   12.20    6.80
   5  -1 -27   -1.30    4.50
   5  -1 -27   -0.10    2.80
   2  -1 -27  288.07   17.00
   2  -1 -27  311.77   14.20
  -1  -1 -27  294.27   10.90
  -1  -1 -27  317.27   17.20
   1   1  27  309.37   18.40
  -4  -1 -27    7.10    5.20
   4   1  27    1.60    5.90
   4  -2 -27   14.10    4.00
   4  -2 -27   26.50    8.00
  -4   2  27   16.20    4.40
   1  -2 -27  334.57   17.70
   1  -2 -27  291.47   15.90
  -2  -2 -27   14.70    6.30
   2   2  27   23.30    7.90
   3  -3 -27    5.30    4.00
   3  -3 -27    1.20    3.90
   0  -3 -27    1.90    3.30
   0   3  27   -1.20    3.70
   5  -4 -27    1.00    5.10
  -5   4  27   -1.40    3.60
   2  -4 -27   17.00    6.60
   2  -4 -27   15.50    6.60
  -1  -4 -27   -0.80    3.70
   1   4  27   -2.40    4.60
   4  -5 -27    5.40    5.60
   4  -5 -27    1.50    5.80
   1  -5 -27    2.00    4.70
  -2   5 -28 1754.32   59.29
  -2   5 -28 1772.12   54.99
  -5   5 -28 1349.77   55.39
   0   4 -28 3282.67   79.19
   0   4 -28 3230.68   72.89
  -3   4 -28 3980.90   95.29
   2   3 -28 1740.13   53.49
  -1   3 -28 4420.16   89.79
  -1   3 -28 4326.37   87.99
  -4   3 -28 4021.70   93.69
   1   2 -28 4341.77   88.39
   1   2 -28 4312.67   75.89
  -2   2 -28 4321.57   79.39
  -2   2 -28 4306.67   89.09
  -5   2 -28 1882.01   58.19
   5  -2  28 1879.01   62.59
   3   1 -28 3780.32   84.09
   0   1 -28 7514.45  126.09
   0   1 -28 7693.03  127.99
  -3   1 -28 4146.59   65.29
  -3   1 -28 4282.87   88.29
   3  -1  28 4096.59   93.59
   5   0 -28 1223.68   46.40
   2   0 -28 4073.39   70.79
   2   0 -28 4256.47   83.19
  -1   0 -28 7480.25  116.49
  -1   0 -28 7377.06  128.69
  -4   0 -28 3442.96   81.49
   4   0  28 3566.84   90.69
   4  -1 -28 3737.43   84.49
   1  -1 -28 7459.95  128.99
   1  -1 -28 7985.80  130.49
  -2  -1 -28 4364.96   89.89
   2   1  28 4494.85   96.19
   3  -2 -28 4204.38   79.09
   3  -2 -28 4206.98   88.89
   0  -2 -28 4176.08   77.39
   0  -2 -28 4160.88   83.89
  -3  -2 -28 1913.91   55.89
   3   2  28 1908.31   60.69
   5  -3 -28 1828.92   58.69
   2  -3 -28 4319.97   88.79
   2  -3 -28 4487.05   91.99
  -1  -3 -28 3816.02   85.59
   1   3  28 3923.51   84.49
   4  -4 -28 3362.76   77.49
   4  -4 -28 3406.96   86.89
   1  -4 -28 3935.81   83.99
   1  -4 -28 3715.73   85.99
   3  -5 -28 1775.82   58.29
   3  -5 -28 1858.61   57.29
   0  -5 -28 1225.58   46.50
  -3   5 -29   20.10   10.50
  -1   4 -29   44.80   10.60
  -1   4 -29   30.30    8.40
  -4   4 -29    5.00    5.90
   1   3 -29   34.80    9.10
   1   3 -29   38.30    6.80
  -2   3 -29    2.70    3.40
  -2   3 -29    0.30    4.00
   3   2 -29   31.40    9.60
   0   2 -29    2.60    3.50
   0   2 -29    2.30    3.00
  -3   2 -29    2.10    2.20
  -3   2 -29   -2.10    4.00
   2   1 -29   -1.90    1.70
   2   1 -29    0.50    3.60
  -1   1 -29   -0.60    1.70
  -1   1 -29   -2.80    2.50
  -4   1 -29   35.60    9.00
   4  -1  29   36.70   10.90
   4   0 -29   -1.20    3.90
   1   0 -29   -0.90    2.00
   1   0 -29    0.20    2.70
  -2   0 -29   -0.40    3.00
   2   0  29   -1.50    3.50
   3  -1 -29    0.50    3.30
   3  -1 -29   -1.70    2.00
   0  -1 -29   -2.50    2.50
   0  -1 -29   -1.90    1.70
  -3  -1 -29   41.50    9.50
   3   1  29   40.60   11.50
   5  -2 -29   23.30    8.60
   5  -2 -29   14.20    5.40
   2  -2 -29    1.60    3.40
   2  -2 -29   -0.80    2.60
   1   2  29   19.70    7.20
   4  -3 -29   36.50   10.20
   4  -3 -29   45.10    8.50
   1  -3 -29    1.70    3.20
   1  -3 -29   -0.10    3.10
  -2  -3 -29   20.00    7.30
   2   3  29   23.20    8.80
   3  -4 -29   35.80    9.20
   3  -4 -29   23.50    8.50
   0  -4 -29   -0.10    3.90
   2  -5 -29   22.90    8.00
   2  -5 -29   22.90    8.30
  -1   5 -30   30.60    9.00
  -1   5 -30   24.50    9.10
  -4   5 -30   92.59   17.80
   1   4 -30   30.60    9.30
  -2   4 -30   85.79   14.40
  -2   4 -30   99.99   13.90
  -5   4 -30   93.29   17.30
   0   3 -30  148.29   14.80
   0   3 -30  127.39   15.60
  -3   3 -30   42.40   10.20
  -3   3 -30   42.10    7.90
   2   2 -30   99.89   14.20
  -1   2 -30  372.16   18.60
  -1   2 -30  382.26   20.10
  -4   2 -30  112.59   16.30
   4   1 -30   79.89   13.80
   1   1 -30  335.37   18.30
   1   1 -30  321.97   14.20
  -2   1 -30  340.77   13.00
  -2   1 -30  337.67   19.20
  -5   1 -30   32.70    9.30
   5  -1  30   25.00   10.90
   3   0 -30   31.80    8.10
   0   0 -30   68.29    9.30
   0   0 -30   82.99    9.20
  -3   0 -30  120.49   15.20
   3   0  30  141.29   18.70
   5  -1 -30   72.99   10.40
   5  -1 -30   95.19   15.40
   2  -1 -30  320.57   18.30
   2  -1 -30  366.96   16.30
  -1  -1 -30  324.77   12.20
  -1  -1 -30  346.37   18.90
   1   1  30  354.06   20.50
  -4  -1 -30   27.50    8.50
   4   1  30   15.00   10.00
   4  -2 -30  116.99   11.70
   4  -2 -30  102.09   14.80
   1  -2 -30  381.56   19.50
   1  -2 -30  328.77   17.60
  -2  -2 -30   83.29   13.50
   2   2  30   87.09   14.40
   3  -3 -30  132.09   16.20
   3  -3 -30  136.29   14.90
   0  -3 -30   43.50    7.90
   0  -3 -30   53.09   10.40
   0   3  30   49.90    8.50
   5  -4 -30   27.80   10.40
  -5   4  30   26.20    7.60
   2  -4 -30  107.89   15.30
   2  -4 -30  103.59   15.00
  -1  -4 -30   81.69   14.40
   1   4  30   79.09   13.30
   4  -5 -30   23.90    9.10
   4  -5 -30   35.60   11.60
   1  -5 -30   70.99   14.10
  -2   5 -31   44.30   11.00
  -2   5 -31   22.30    9.90
   0   4 -31   -5.80    4.00
   0   4 -31    7.40    6.00
  -3   4 -31   -2.20    4.70
   2   3 -31   26.20    8.50
  -1   3 -31   48.30    9.80
  -1   3 -31   36.50    8.60
  -4   3 -31   -2.40    4.60
   1   2 -31   31.50    5.80
   1   2 -31   34.40    8.00
  -2   2 -31    2.40    3.90
  -2   2 -31    0.80    2.40
  -5   2 -31   37.30   10.20
   5  -2  31   17.50    8.70
   3   1 -31    2.20    4.30
   0   1 -31    1.20    2.90
   0   1 -31    2.00    2.80
  -3   1 -31   23.20    7.30
   2   0 -31    0.00    2.30
   2   0 -31   -0.60    3.00
  -1   0 -31    1.00    3.50
  -1   0 -31   -2.00    1.40
  -4   0 -31    3.20    4.70
   4   0  31   -0.30    5.30
   4  -1 -31   -3.50    3.70
   1  -1 -31    1.50    2.70
   1  -1 -31    0.60    2.50
  -2  -1 -31   16.10    6.40
   2   1  31   34.30    9.70
   3  -2 -31   30.00    8.30
   3  -2 -31   33.80    6.80
   0  -2 -31    1.10    3.10
   0  -2 -31   -0.40    2.20
  -3  -2 -31   27.30    8.50
   3   2  31   41.50   11.50
   5  -3 -31   22.90    9.20
   2  -3 -31   25.40    7.50
   2  -3 -31   23.50    7.20
  -1  -3 -31    2.50    4.50
   1   3  31    3.00    5.00
   4  -4 -31   -3.20    4.10
   4  -4 -31   -0.20    4.60
   1  -4 -31   -4.30    3.00
   1  -4 -31    0.20    3.70
   3  -5 -31   34.10   10.60
   3  -5 -31   34.40   10.00
  -3   5 -32  587.54   30.10
  -3   5 -32  614.44   35.30
  -1   4 -32 1037.00   39.50
  -1   4 -32 1122.29   40.00
  -4   4 -32 1226.98   48.40
   1   3 -32 1042.50   39.20
  -2   3 -32  976.80   32.90
  -2   3 -32  920.61   36.20
  -5   3 -32  591.24   32.60
   3   2 -32  506.25   28.10
   0   2 -32 1069.89   32.10
   0   2 -32 1060.69   34.80
  -3   2 -32  942.51   26.80
  -3   2 -32  975.20   37.40
   2   1 -32  942.31   34.20
   2   1 -32  933.81   23.00
  -1   1 -32 1977.40   49.60
  -1   1 -32 1989.70   44.10
  -4   1 -32 1141.29   43.10
   4  -1  32 1243.28   49.10
   4   0 -32 1149.48   42.40
   1   0 -32 1918.71   47.40
   1   0 -32 2026.00   45.00
  -2   0 -32 1052.49   36.50
   3  -1 -32  938.81   26.20
   3  -1 -32  953.20   35.90
   0  -1 -32 2071.59   45.00
   0  -1 -32 1925.81   49.20
  -3  -1 -32 1054.69   39.70
   3   1  32 1180.88   46.70
   5  -2 -32  575.24   32.20
   2  -2 -32 1076.49   36.40
   2  -2 -32 1125.59   34.20
  -1  -2 -32 1009.80   36.60
   1   2  32  997.00   36.60
   4  -3 -32 1045.50   35.30
   4  -3 -32 1130.09   43.20
   1  -3 -32  976.00   34.50
   1  -3 -32 1015.20   36.10
  -2  -3 -32  635.34   31.00
   2   3  32  590.14   32.50
   3  -4 -32 1182.28   45.20
   3  -4 -32 1175.48   41.60
   0  -4 -32 1183.28   43.50
   2  -5 -32  591.54   31.00
   2  -5 -32  553.44   31.20
  -1   5 -33   -5.10    5.10
  -1   5 -33    2.10    5.10
  -4   5 -33    1.10    7.10
   1   4 -33   -3.90    3.60
  -2   4 -33    2.30    5.90
  -2   4 -33    1.00    4.20
  -5   4 -33    1.30    5.90
   0   3 -33   -1.90    3.40
   0   3 -33    4.40    4.90
  -3   3 -33    8.30    6.10
  -3   3 -33   -1.80    2.70
   2   2 -33    6.10    5.50
  -1   2 -33   72.79   10.30
  -1   2 -33   82.59   11.60
  -4   2 -33   -3.40    4.60
   4   1 -33    2.40    5.80
   1   1 -33   85.59   11.80
   1   1 -33   81.19    9.20
  -2   1 -33   67.59   11.40
  -2   1 -33   74.19    8.00
  -5   1 -33    3.10    5.10
   5  -1  33    2.10    7.50
   3   0 -33   -4.80    3.60
   0   0 -33    1.40    2.80
   0   0 -33    0.40    2.60
  -3   0 -33    1.10    4.00
   3   0  33   -0.50    5.50
   5  -1 -33    9.30    4.60
   5  -1 -33   -1.10    4.80
   2  -1 -33   87.59   12.20
   2  -1 -33   88.39   10.20
  -1  -1 -33   81.39    7.70
  -1  -1 -33   47.50    9.20
  -4  -1 -33   -0.80    4.50
   4   1  33   -5.40    5.00
   4  -2 -33    9.00    4.40
   4  -2 -33   -1.90    4.20
   1  -2 -33   86.99   11.30
   1  -2 -33   78.89   11.30
  -2  -2 -33    8.00    6.00
   2   2  33   13.40    7.70
   3  -3 -33   -0.40    3.70
   3  -3 -33   -3.00    2.30
   0  -3 -33    1.80    3.40
   0  -3 -33   -1.20    3.50
   0   3  33   -2.70    3.40
   5  -4 -33    0.80    5.40
  -5   4  33    6.70    5.30
   2  -4 -33    8.10    5.10
   2  -4 -33    5.00    5.20
  -1  -4 -33   11.00    6.20
   4  -5 -33    6.10    6.30
   4  -5 -33    4.80    7.30
   1  -5 -33    1.30    5.40
  -2   5 -34  300.47   26.90
  -2   5 -34  304.07   28.70
   0   4 -34  272.97   25.40
   0   4 -34  231.38   19.90
  -3   4 -34  286.87   27.20
  -3   4 -34  293.07   19.70
   2   3 -34  311.37   27.50
  -1   3 -34  449.76   23.70
  -1   3 -34  447.76   24.20
  -4   3 -34  258.67   25.70
   1   2 -34  441.36   24.00
   1   2 -34  444.76   18.10
  -2   2 -34  961.60   35.70
  -2   2 -34  904.51   29.00
  -5   2 -34  300.07   27.60
   3   1 -34  260.97   23.40
   0   1 -34  662.53   24.70
   0   1 -34  618.14   24.20
  -3   1 -34  439.36   25.20
   2   0 -34  867.61   32.30
   2   0 -34  930.11   25.70
  -1   0 -34  659.33   20.70
  -1   0 -34  681.53   27.50
  -4   0 -34  287.57   27.10
   4   0  34  264.37   28.10
   4  -1 -34  243.48   23.30
   1  -1 -34  648.94   24.70
   1  -1 -34  648.64   24.90
  -2  -1 -34  484.95   25.10
   2   1  34  440.66   27.60
   3  -2 -34  436.46   24.70
   3  -2 -34  417.96   19.60
   0  -2 -34 1006.50   30.40
   0  -2 -34  995.20   35.40
  -3  -2 -34  347.47   24.00
   3   2  34  380.96   33.20
   5  -3 -34  310.07   28.90
   2  -3 -34  421.36   23.90
   2  -3 -34  466.25   24.00
  -1  -3 -34  247.28   23.20
   1   3  34  302.07   24.80
   4  -4 -34  281.57   24.20
   4  -4 -34  262.17   27.20
   1  -4 -34  275.87   25.30
   3  -5 -34  331.97   23.90
   3  -5 -34  367.76   26.30
  -3   5 -35    2.60    4.70
  -3   5 -35    1.20    6.70
  -1   4 -35   26.50    9.00
  -1   4 -35   36.80    9.60
  -4   4 -35   -1.30    5.60
  -4   4 -35    8.40    4.70
   1   3 -35   40.80   10.20
  -2   3 -35   25.60    7.10
  -2   3 -35   40.60    9.90
  -5   3 -35    9.10    6.90
   3   2 -35    2.60    5.10
   0   2 -35   -2.30    2.30
   0   2 -35    1.10    3.10
  -3   2 -35   36.80    6.60
  -3   2 -35   47.80   10.60
   2   1 -35   34.60    8.80
  -1   1 -35   -2.70    1.90
  -1   1 -35   -2.30    3.30
  -4   1 -35   29.40    9.20
   4  -1  35   35.40   12.00
   4   0 -35    3.80    5.00
   1   0 -35    5.40    3.60
   1   0 -35    2.80    3.00
  -2   0 -35   -1.50    3.50
   3  -1 -35   33.30    6.20
   3  -1 -35   35.40    9.50
   0  -1 -35   -3.20    2.60
   0  -1 -35    1.40    2.50
  -3  -1 -35   44.30   10.90
   3   1  35   22.30    9.20
   5  -2 -35    2.40    5.60
   2  -2 -35    0.90    3.50
   2  -2 -35    0.30    3.00
  -1  -2 -35   34.50    8.90
   1   2  35   60.89   11.40
   4  -3 -35   17.40    7.80
   4  -3 -35   41.70    9.00
   1  -3 -35   34.30    8.20
   1  -3 -35   25.20    7.40
  -2  -3 -35    4.10    5.10
   2   3  35    5.20    6.90
   3  -4 -35   27.10    9.40
   3  -4 -35   20.20    7.90
   0  -4 -35    4.50    5.50
   2  -5 -35   -2.80    4.10
   2  -5 -35   -0.60    4.50
  -2   4 -36 1438.06   49.60
  -2   4 -36 1407.66   46.60
   0   3 -36 2088.69   51.99
   0   3 -36 2139.99   59.09
  -3   3 -36 2371.96   56.29
  -3   3 -36 2300.07   66.49
   2   2 -36 1396.66   47.70
  -1   2 -36 2085.59   51.59
  -1   2 -36 2046.10   53.89
  -4   2 -36 1454.05   50.69
   1   1 -36 1990.50   46.10
   1   1 -36 2048.50   53.59
  -2   1 -36 2091.29   43.80
  -2   1 -36 2120.09   57.39
   3   0 -36 2158.78   60.59
   0   0 -36 5282.17   99.79
   0   0 -36 5204.48   95.29
  -3   0 -36 2257.37   63.09
   3   0  36 2157.28   67.19
   2  -1 -36 1965.70   46.90
   2  -1 -36 2028.90   53.79
  -1  -1 -36 1954.60   41.00
  -1  -1 -36 2051.09   54.49
   4  -2 -36 1387.06   48.90
   1  -2 -36 1929.71   49.60
   1  -2 -36 1923.61   51.29
  -2  -2 -36 1451.05   49.10
   2   2  36 1431.16   50.99
   3  -3 -36 2186.88   55.89
   3  -3 -36 2098.09   60.89
   0  -3 -36 2237.28   61.59
   2  -4 -36 1354.86   47.40
   2  -4 -36 1410.16   47.50
   0   4 -37    5.60    5.60
  -3   4 -37   19.90    9.10
  -3   4 -37   17.10    6.50
  -1   3 -37   76.89   12.30
  -1   3 -37   62.29   11.30
  -4   3 -37   40.20   11.60
   1   2 -37   61.09    8.60
   1   2 -37   52.29   10.90
  -2   2 -37   -0.40    1.70
  -2   2 -37   -4.30    3.30
   3   1 -37   16.90    7.90
   0   1 -37    2.00    3.50
   0   1 -37    0.30    3.00
  -3   1 -37   75.09   13.30
   2   0 -37    0.20    2.50
   2   0 -37    9.50    5.00
  -1   0 -37    2.20    2.80
  -1   0 -37    0.10    4.00
  -4   0 -37   -0.60    4.40
   4   0  37   -6.70    6.00
   4  -1 -37    7.10    6.10
   1  -1 -37    0.10    3.20
   1  -1 -37    2.10    3.30
  -2  -1 -37   48.10   10.70
   2   1  37   53.19   12.40
   3  -2 -37   61.09    9.60
   3  -2 -37   51.09   10.90
   0  -2 -37    3.70    4.50
   0  -2 -37   -2.10    2.50
   2  -3 -37   62.29   11.20
   2  -3 -37   71.99   12.60
  -1  -3 -37   25.80    8.90
   1   3  37   12.20    6.90
   4  -4 -37    7.50    6.50
   4  -4 -37   -2.00    4.10
   1  -4 -37   10.40    6.40
   1  -4 -37   18.90    6.90
  -1   4 -38 1051.09   41.60
  -1   4 -38  990.70   39.00
  -4   4 -38  662.23   37.40
  -4   4 -38  708.93   30.10
   1   3 -38  940.51   38.90
  -2   3 -38 1660.53   48.00
  -2   3 -38 1625.54   51.99
   0   2 -38 1329.17   42.20
   0   2 -38 1402.46   39.60
  -3   2 -38 1638.84   52.69
   2   1 -38 1594.14   49.80
  -1   1 -38 2066.99   54.09
  -1   1 -38 1981.00   47.20
  -4   1 -38 1031.70   42.70
   4   0 -38  558.24   30.80
   1   0 -38 1979.90   50.89
   1   0 -38 1912.71   47.20
  -2   0 -38 1380.26   45.70
   3  -1 -38 1582.94   38.60
   3  -1 -38 1450.45   47.90
   0  -1 -38 2025.50   47.80
   0  -1 -38 1986.00   53.19
  -3  -1 -38  979.10   40.60
   3   1  38 1064.29   47.20
   2  -2 -38 1387.06   41.30
   2  -2 -38 1360.06   44.20
  -1  -2 -38 1701.53   52.79
   4  -3 -38  971.70   34.60
   4  -3 -38 1039.60   43.30
   1  -3 -38  801.22   31.90
   3  -4 -38  945.21   37.90
   3  -4 -38  937.71   41.30
   0  -4 -38  660.03   33.70
  -2   4 -39    2.40    4.70
  -2   4 -39    5.90    6.80
   0   3 -39   -0.10    3.90
   0   3 -39    2.00    4.10
  -3   3 -39    0.10    2.40
  -3   3 -39    2.90    5.90
   2   2 -39    1.90    4.80
  -1   2 -39   12.60    4.90
  -1   2 -39    7.60    5.30
  -4   2 -39    2.20    4.80
   1   1 -39    9.00    4.20
   1   1 -39    3.90    3.60
  -2   1 -39   12.20    6.00
  -2   1 -39   12.00    4.00
   3   0 -39   -3.80    3.80
   0   0 -39   -1.00    2.80
   0   0 -39   -1.90    2.70
  -3   0 -39   -1.30    3.80
   2  -1 -39   12.80    5.80
   2  -1 -39    2.80    3.40
  -1  -1 -39    1.60    4.20
   4  -2 -39   -0.60    5.60
   1  -2 -39    3.90    4.80
   1  -2 -39    5.00    4.10
  -2  -2 -39   -0.10    5.10
   2   2  39    1.20    6.00
   3  -3 -39   -0.10    4.00
   3  -3 -39   -5.50    3.50
   0  -3 -39   -3.80    3.60
   2  -4 -39   -1.80    4.60
   2  -4 -39   -1.40    4.20
  -3   4 -40  413.86   24.20
  -3   4 -40  366.76   32.20
  -1   3 -40  331.67   21.10
  -1   3 -40  339.47   21.70
  -4   3 -40  355.96   25.90
   1   2 -40  320.77   17.00
   1   2 -40  334.27   22.10
   3   1 -40  380.96   25.10
   0   1 -40  687.93   27.50
   0   1 -40  700.43   27.80
  -3   1 -40  317.47   22.90
   2   0 -40  446.56   19.00
   2   0 -40  431.46   24.50
  -1   0 -40  730.03   23.90
  -1   0 -40  741.53   31.30
   4  -1 -40  343.47   30.50
   1  -1 -40  733.63   28.70
   1  -1 -40  728.33   28.70
  -2  -1 -40  313.57   22.60
   3  -2 -40  325.87   23.30
   3  -2 -40  368.56   19.50
   0  -2 -40  395.46   23.30
   0  -2 -40  440.66   20.30
   2  -3 -40  295.87   20.70
   2  -3 -40  301.27   21.20
  -1  -3 -40  325.57   23.40
   1  -4 -40  363.26   24.50
  -1   4 -41    5.60    6.10
  -1   4 -41    0.90    4.80
   1   3 -41   -0.60    5.00
  -2   3 -41   29.50    9.70
  -2   3 -41   35.30    8.70
   0   2 -41   -0.80    3.90
   0   2 -41   -0.50    3.70
  -3   2 -41   19.10    7.90
   2   1 -41   18.60    7.60
  -1   1 -41    1.20    2.50
  -1   1 -41   -0.70    3.70
  -4   1 -41    2.30    6.10
   1   0 -41   -2.40    2.80
   1   0 -41    0.90    3.30
  -2   0 -41   -4.00    3.10
   3  -1 -41   32.20    9.20
   0  -1 -41   -2.50    2.50
   0  -1 -41    3.30    3.90
  -3  -1 -41   -3.10    4.30
   3   1  41    4.70    6.60
   2  -2 -41    0.60    3.60
   2  -2 -41   -0.70    3.80
  -1  -2 -41   43.60   10.90
   4  -3 -41   -2.80    3.90
   4  -3 -41    2.40    5.20
   1  -3 -41    2.20    3.00
   1  -3 -41   19.00    7.50
   3  -4 -41    0.60    4.70
   3  -4 -41    4.20    5.50
  -2   4 -42 1355.36   49.80
  -2   4 -42 1315.27   47.00
   0   3 -42 1128.39   36.80
   0   3 -42 1107.69   42.10
  -3   3 -42 1273.17   47.20
  -3   3 -42 1000.30   35.00
   2   2 -42 1157.68   44.40
  -1   2 -42 2314.07   60.19
  -1   2 -42 2281.57   57.19
  -4   2 -42 1186.28   47.30
   1   1 -42 2275.37   60.19
   1   1 -42 2241.18   52.89
  -2   1 -42 2276.67   63.39
   3   0 -42 1207.68   44.80
   0   0 -42 1588.54   46.20
   0   0 -42 1568.04   43.00
  -3   0 -42 1213.58   46.40
   2  -1 -42 2099.59   52.09
   2  -1 -42 2198.48   58.99
  -1  -1 -42 2346.67   63.59
   4  -2 -42 1387.56   51.59
   1  -2 -42 2243.08   57.19
   1  -2 -42 2187.38   58.59
  -2  -2 -42 1253.17   48.60
   2   2  42 1383.16   50.49
   3  -3 -42 1169.98   44.90
   3  -3 -42 1145.09   40.00
   0  -3 -42 1295.27   46.60
   2  -4 -42 1284.37   46.80
   2  -4 -42 1249.18   46.90
  -1   3 -43    3.40    5.60
  -1   3 -43    5.00    5.20
   1   2 -43    5.60    5.50
  -2   2 -43   -1.60    4.00
  -2   2 -43   -3.80    2.50
   0   1 -43    5.70    4.70
   0   1 -43    4.60    4.30
  -3   1 -43    5.00    6.00
   2   0 -43   -1.90    3.60
   2   0 -43    1.70    3.00
  -1   0 -43    2.90    2.90
  -1   0 -43   -0.60    4.50
   1  -1 -43   -0.50    3.60
   1  -1 -43   -0.80    3.50
  -2  -1 -43   14.00    7.20
   3  -2 -43    8.50    6.30
   3  -2 -43   11.90    5.60
   0  -2 -43    2.10    4.20
   2  -3 -43    0.50    4.50
   2  -3 -43    6.80    5.50
  -2   3 -44  273.77   25.70
  -2   3 -44  311.67   20.40
   0   2 -44  167.78   18.60
   0   2 -44  210.98   19.40
  -3   2 -44  274.97   26.70
   2   1 -44  262.47   24.80
   1   0 -44  538.15   26.30
   1   0 -44  494.45   23.60
  -2   0 -44  202.98   22.30
   3  -1 -44  272.47   25.40
   0  -1 -44  491.45   26.10
   0  -1 -44  488.45   22.30
   2  -2 -44  215.88   19.90
   2  -2 -44  194.28   20.60
  -1  -2 -44  337.37   23.60
   1  -3 -44  292.37   26.70
   1  -3 -44  286.57   20.30
  -1   2 -45   48.50   10.50
  -1   2 -45   50.79   10.20
   1   1 -45   53.29   11.00
   1   1 -45   48.40    8.90
  -2   1 -45   70.69   13.70
   0   0 -45    2.20    3.60
   0   0 -45    3.00    4.10
   2  -1 -45   37.80    9.70
   2  -1 -45   61.89   10.20
  -1  -1 -45   41.60   10.10
   1  -2 -45   53.19   10.40
   1  -2 -45   60.69   11.70
  -1   3 -46 1057.29   39.70
  -1   3 -46 1038.90   40.10
   1   2 -46  998.40   41.20
  -2   2 -46 1424.76   50.29
  -2   2 -46 1520.65   44.30
   0   1 -46 1030.70   37.30
   0   1 -46 1060.29   37.10
  -3   1 -46 1054.79   44.60
   2   0 -46 1345.17   46.40
  -1   0 -46 1044.80   40.20
   1  -1 -46 1038.40   37.60
   1  -1 -46 1049.99   37.40
  -2  -1 -46  992.10   42.20
   3  -2 -46 1042.40   35.80
   3  -2 -46  976.10   41.70
   0  -2 -46 1409.46   47.90
   2  -3 -46 1053.39   40.60
   2  -3 -46 1057.19   42.10
   0   2 -47    3.80    5.30
   0   2 -47   -2.00    3.80
  -1   1 -47    0.50    2.40
  -1   1 -47    1.20    5.00
   1   0 -47    5.40    4.60
   1   0 -47   -2.70    3.50
  -2   0 -47    4.20    5.50
   0  -1 -47   -1.20    3.40
   0  -1 -47    6.30    5.40
   2  -2 -47    3.00    4.50
   2  -2 -47    0.10    4.40
  -1   2 -48  493.35   25.60
  -1   2 -48  445.86   26.00
   1   1 -48  444.76   26.20
   1   1 -48  489.95   23.20
  -2   1 -48  456.25   28.00
   0   0 -48  376.96   21.30
   0   0 -48  435.26   24.80
   2  -1 -48  465.25   27.40
   2  -1 -48  457.65   23.40
  -1  -1 -48  551.24   31.00
   1  -2 -48  469.75   25.60
   1  -2 -48  473.25   26.90
   0   1 -49   -0.10    3.70
   0   1 -49    1.60    4.50
  -1   0 -49   -2.20    4.10
   1  -1 -49    4.30    4.60
   1  -1 -49   -1.40    4.00
  -1   1 -50 1321.57   47.10
   1   0 -50 1231.78   40.90
   1   0 -50 1240.88   43.50
   0  -1 -50 1161.28   43.60
   0   0 -51    4.40    5.10
   0   0 -51   -3.60    3.90
   0   0   0    0.00    0.00

_computing_structure_solution     'SHELXT 2014/5 (Sheldrick, 2014)'
;
_shelx_hkl_checksum              33775
loop_
_space_group_symop_operation_xyz
'x, y, z'
'-y, x-y, z'
'-x+y, -x, z'
'y, x, -z+1/2'
'x-y, -y, -z+1/2'
'-x, -x+y, -z+1/2'
'x+2/3, y+1/3, z+1/3'
'-y+2/3, x-y+1/3, z+1/3'
'-x+y+2/3, -x+1/3, z+1/3'
'y+2/3, x+1/3, -z+5/6'
'x-y+2/3, -y+1/3, -z+5/6'
'-x+2/3, -x+y+1/3, -z+5/6'
'x+1/3, y+2/3, z+2/3'
'-y+1/3, x-y+2/3, z+2/3'
'-x+y+1/3, -x+2/3, z+2/3'
'y+1/3, x+2/3, -z+7/6'
'x-y+1/3, -y+2/3, -z+7/6'
'-x+1/3, -x+y+2/3, -z+7/6'
'-x, -y, -z'
'y, -x+y, -z'
'x-y, x, -z'
'-y, -x, z-1/2'
'-x+y, y, z-1/2'
'x, x-y, z-1/2'
'-x+2/3, -y+1/3, -z+1/3'
'y+2/3, -x+y+1/3, -z+1/3'
'x-y+2/3, x+1/3, -z+1/3'
'-y+2/3, -x+1/3, z-1/6'
'-x+y+2/3, y+1/3, z-1/6'
'x+2/3, x-y+1/3, z-1/6'
'-x+1/3, -y+2/3, -z+2/3'
'y+1/3, -x+y+2/3, -z+2/3'
'x-y+1/3, x+2/3, -z+2/3'
'-y+1/3, -x+2/3, z+1/6'
'-x+y+1/3, y+2/3, z+1/6'
'x+1/3, x-y+2/3, z+1/6'
loop_
_atom_site_label
_atom_site_type_symbol
_atom_site_fract_x
_atom_site_fract_y
_atom_site_fract_z
_atom_site_U_iso_or_equiv
_atom_site_adp_type
_atom_site_occupancy
_atom_site_site_symmetry_order
_atom_site_calc_flag
_atom_site_refinement_flags_posn
_atom_site_refinement_flags_adp
_atom_site_refinement_flags_occupancy
_atom_site_disorder_assembly
_atom_site_disorder_group
Sn01 Sn 0.3333 0.6667 0.55811(2) 0.0158(5) Uani 1 3 d S T P . .
Cl1 Cl 0.6667 0.3333 0.5833 0.0339(13) Uani 1 6 d S T P . .
Na2 Na 0.0000 0.0000 0.5000 0.0169(15) Uani 1 6 d S T P . .
Na1 Na 0.6667 0.3333 0.51845(13) 0.0224(13) Uani 1 3 d S T P . .
F005 F 0.2879(6) 0.3757(6) 0.52689(7) 0.0209(8) Uani 1 1 d . . . . .
loop_
_atom_site_aniso_label
_atom_site_aniso_U_11
_atom_site_aniso_U_22
_atom_site_aniso_U_33
_atom_site_aniso_U_23
_atom_site_aniso_U_13
_atom_site_aniso_U_12
Sn01 0.0179(6) 0.0179(6) 0.0117(7) 0.000 0.000 0.0089(3)
Cl1 0.0416(19) 0.0416(19) 0.018(3) 0.000 0.000 0.0208(10)
Na2 0.014(2) 0.014(2) 0.022(4) 0.000 0.000 0.0072(10)
Na1 0.0245(19) 0.0245(19) 0.018(3) 0.000 0.000 0.0122(9)
F005 0.0231(18) 0.0164(16) 0.0241(17) -0.0060(12) -0.0045(13) 0.0105(13)
loop_
_atom_type_symbol
_atom_type_description
_atom_type_scat_dispersion_real
_atom_type_scat_dispersion_imag
_atom_type_scat_source
F F 0.0171 0.0103 'International Tables Vol C Tables 4.2.6.8 and 6.1.1.4'
Na Na 0.0362 0.0249 'International Tables Vol C Tables 4.2.6.8 and 6.1.1.4'
Cl Cl 0.1484 0.1585 'International Tables Vol C Tables 4.2.6.8 and 6.1.1.4'
Sn Sn -0.6537 1.4246 'International Tables Vol C Tables 4.2.6.8 and 6.1.1.4'
loop_
_geom_angle_atom_site_label_1
_geom_angle_atom_site_label_2
_geom_angle_atom_site_label_3
_geom_angle
_geom_angle_site_symmetry_1
_geom_angle_site_symmetry_3
F005 Sn01 F005 81.47(13) . 2_665
F005 Sn01 F005 81.47(13) . 3_565
F005 Sn01 F005 81.47(13) 2_665 3_565
F005 Sn01 Na1 48.89(8) . 19_666
F005 Sn01 Na1 48.89(9) 2_665 19_666
F005 Sn01 Na1 48.89(8) 3_565 19_666
F005 Sn01 Na1 66.39(10) . 1_455
F005 Sn01 Na1 108.52(12) 2_665 1_455
F005 Sn01 Na1 34.12(10) 3_565 1_455
Na1 Sn01 Na1 62.50(8) 19_666 1_455
F005 Sn01 Na1 108.52(12) . 1_565
F005 Sn01 Na1 34.12(10) 2_665 1_565
F005 Sn01 Na1 66.39(10) 3_565 1_565
Na1 Sn01 Na1 62.50(8) 19_666 1_565
Na1 Sn01 Na1 100.38(10) 1_455 1_565
F005 Sn01 Na1 34.12(10) . .
F005 Sn01 Na1 66.39(10) 2_665 .
F005 Sn01 Na1 108.52(12) 3_565 .
Na1 Sn01 Na1 62.50(8) 19_666 .
Na1 Sn01 Na1 100.38(10) 1_455 .
Na1 Sn01 Na1 100.38(10) 1_565 .
Na1 Cl1 Na1 180.0 16_545 .
F005 Na2 F005 180.00(12) 21_556 3
F005 Na2 F005 95.99(10) 21_556 19_556
F005 Na2 F005 84.01(10) 3 19_556
F005 Na2 F005 95.99(10) 21_556 20_556
F005 Na2 F005 84.01(10) 3 20_556
F005 Na2 F005 95.99(10) 19_556 20_556
F005 Na2 F005 84.01(10) 21_556 2
F005 Na2 F005 95.99(10) 3 2
F005 Na2 F005 84.01(10) 19_556 2
F005 Na2 F005 180.0 20_556 2
F005 Na2 F005 84.01(10) 21_556 .
F005 Na2 F005 95.99(10) 3 .
F005 Na2 F005 180.00(12) 19_556 .
F005 Na2 F005 84.01(10) 20_556 .
F005 Na2 F005 95.99(10) 2 .
F005 Na2 Na1 107.88(9) 21_556 .
F005 Na2 Na1 72.12(9) 3 .
F005 Na2 Na1 137.04(9) 19_556 .
F005 Na2 Na1 47.45(11) 20_556 .
F005 Na2 Na1 132.55(11) 2 .
F005 Na2 Na1 42.96(9) . .
F005 Na2 Na1 72.12(9) 21_556 19_556
F005 Na2 Na1 107.88(9) 3 19_556
F005 Na2 Na1 42.96(9) 19_556 19_556
F005 Na2 Na1 132.54(11) 20_556 19_556
F005 Na2 Na1 47.46(11) 2 19_556
F005 Na2 Na1 137.04(9) . 19_556
Na1 Na2 Na1 180.0 . 19_556
F005 Na2 Na1 42.96(9) 21_556 19_666
F005 Na2 Na1 137.04(9) 3 19_666
F005 Na2 Na1 132.55(11) 19_556 19_666
F005 Na2 Na1 72.12(9) 20_556 19_666
F005 Na2 Na1 107.88(9) 2 19_666
F005 Na2 Na1 47.46(11) . 19_666
Na1 Na2 Na1 65.36(7) . 19_666
Na1 Na2 Na1 114.64(7) 19_556 19_666
F005 Na2 Na1 137.04(9) 21_556 1_445
F005 Na2 Na1 42.96(9) 3 1_445
F005 Na2 Na1 47.45(11) 19_556 1_445
F005 Na2 Na1 107.88(9) 20_556 1_445
F005 Na2 Na1 72.12(9) 2 1_445
F005 Na2 Na1 132.54(11) . 1_445
Na1 Na2 Na1 114.64(7) . 1_445
Na1 Na2 Na1 65.36(7) 19_556 1_445
Na1 Na2 Na1 180.0 19_666 1_445
F005 Na2 Na1 47.46(11) 21_556 1_455
F005 Na2 Na1 132.54(11) 3 1_455
F005 Na2 Na1 107.88(9) 19_556 1_455
F005 Na2 Na1 137.04(9) 20_556 1_455
F005 Na2 Na1 42.96(9) 2 1_455
F005 Na2 Na1 72.12(9) . 1_455
Na1 Na2 Na1 114.64(7) . 1_455
Na1 Na2 Na1 65.36(7) 19_556 1_455
Na1 Na2 Na1 65.36(7) 19_666 1_455
Na1 Na2 Na1 114.64(7) 1_445 1_455
F005 Na2 Na1 132.54(11) 21_556 19_656
F005 Na2 Na1 47.46(11) 3 19_656
F005 Na2 Na1 72.12(9) 19_556 19_656
F005 Na2 Na1 42.96(9) 20_556 19_656
F005 Na2 Na1 137.04(9) 2 19_656
F005 Na2 Na1 107.88(9) . 19_656
Na1 Na2 Na1 65.36(7) . 19_656
Na1 Na2 Na1 114.64(7) 19_556 19_656
Na1 Na2 Na1 114.64(7) 19_666 19_656
Na1 Na2 Na1 65.36(7) 1_445 19_656
Na1 Na2 Na1 180.00(19) 1_455 19_656
F005 Na1 F005 117.58(8) 2_655 3_665
F005 Na1 F005 117.58(8) 2_655 .
F005 Na1 F005 117.58(8) 3_665 .
F005 Na1 F005 137.3(2) 2_655 19_666
F005 Na1 F005 77.83(15) 3_665 19_666
F005 Na1 F005 81.17(14) . 19_666
F005 Na1 F005 81.17(14) 2_655 20_556
F005 Na1 F005 137.3(2) 3_665 20_556
F005 Na1 F005 77.84(15) . 20_556
F005 Na1 F005 64.90(17) 19_666 20_556
F005 Na1 F005 77.83(15) 2_655 21_656
F005 Na1 F005 81.17(14) 3_665 21_656
F005 Na1 F005 137.3(2) . 21_656
F005 Na1 F005 64.90(17) 19_666 21_656
F005 Na1 F005 64.90(17) 20_556 21_656
F005 Na1 Cl1 80.96(16) 2_655 .
F005 Na1 Cl1 80.96(16) 3_665 .
F005 Na1 Cl1 80.95(16) . .
F005 Na1 Cl1 141.71(10) 19_666 .
F005 Na1 Cl1 141.71(10) 20_556 .
F005 Na1 Cl1 141.71(10) 21_656 .
F005 Na1 Sn01 99.05(16) 2_655 19_666
F005 Na1 Sn01 99.04(16) 3_665 19_666
F005 Na1 Sn01 99.05(16) . 19_666
F005 Na1 Sn01 38.29(10) 19_666 19_666
F005 Na1 Sn01 38.29(10) 20_556 19_666
F005 Na1 Sn01 38.29(10) 21_656 19_666
Cl1 Na1 Sn01 180.0 . 19_666
F005 Na1 Na2 41.67(8) 2_655 1_655
F005 Na1 Na2 87.10(8) 3_665 1_655
F005 Na1 Na2 155.31(9) . 1_655
F005 Na1 Na2 106.72(16) 19_666 1_655
F005 Na1 Na2 84.41(12) 20_556 1_655
F005 Na1 Na2 41.89(7) 21_656 1_655
Cl1 Na1 Na2 103.61(9) . 1_655
Sn01 Na1 Na2 76.39(9) 19_666 1_655
F005 Na1 Na2 87.10(8) 2_655 .
F005 Na1 Na2 155.31(8) 3_665 .
F005 Na1 Na2 41.67(8) . .
F005 Na1 Na2 84.41(12) 19_666 .
F005 Na1 Na2 41.89(7) 20_556 .
F005 Na1 Na2 106.72(16) 21_656 .
Cl1 Na1 Na2 103.61(9) . .
Sn01 Na1 Na2 76.39(9) 19_666 .
Na2 Na1 Na2 114.64(7) 1_655 .
F005 Na1 Na2 155.31(9) 2_655 1_665
F005 Na1 Na2 41.67(7) 3_665 1_665
F005 Na1 Na2 87.10(8) . 1_665
F005 Na1 Na2 41.89(7) 19_666 1_665
F005 Na1 Na2 106.72(16) 20_556 1_665
F005 Na1 Na2 84.41(12) 21_656 1_665
Cl1 Na1 Na2 103.61(9) . 1_665
Sn01 Na1 Na2 76.39(9) 19_666 1_665
Na2 Na1 Na2 114.64(7) 1_655 1_665
Na2 Na1 Na2 114.64(7) . 1_665
F005 Na1 Na1 142.61(15) 2_655 19_666
F005 Na1 Na1 98.61(8) 3_665 19_666
F005 Na1 Na1 42.39(7) . 19_666
F005 Na1 Na1 38.78(11) 19_666 19_666
F005 Na1 Na1 64.98(15) 20_556 19_666
F005 Na1 Na1 100.1(2) 21_656 19_666
Cl1 Na1 Na1 115.84(16) . 19_666
Sn01 Na1 Na1 64.16(16) 19_666 19_666
Na2 Na1 Na1 140.5(3) 1_655 19_666
Na2 Na1 Na1 57.32(4) . 19_666
Na2 Na1 Na1 57.32(4) 1_665 19_666
Sn01 F005 Na2 147.32(16) . .
Sn01 F005 Na1 116.11(16) . .
Na2 F005 Na1 95.37(13) . .
Sn01 F005 Na1 92.82(14) . 19_666
Na2 F005 Na1 90.65(12) . 19_666
Na1 F005 Na1 98.83(14) . 19_666
loop_
_geom_bond_atom_site_label_1
_geom_bond_atom_site_label_2
_geom_bond_distance
_geom_bond_site_symmetry_2
Sn01 F005 2.066(3) .
Sn01 F005 2.066(3) 2_665
Sn01 F005 2.066(3) 3_565
Sn01 Na1 3.331(6) 19_666
Sn01 Na1 3.737(3) 1_455
Sn01 Na1 3.737(3) 1_565
Sn01 Na1 3.737(3) .
Cl1 Na1 2.823(6) 16_545
Cl1 Na1 2.823(6) .
Na2 F005 2.277(3) 21_556
Na2 F005 2.277(3) 3
Na2 F005 2.277(3) 19_556
Na2 F005 2.277(3) 20_556
Na2 F005 2.277(3) 2
Na2 F005 2.277(3) .
Na2 Na1 3.4102(14) .
Na2 Na1 3.4102(14) 19_556
Na2 Na1 3.4102(14) 19_666
Na2 Na1 3.4102(14) 1_445
Na2 Na1 3.4102(14) 1_455
Na2 Na1 3.4102(14) 19_656
Na1 F005 2.334(3) 2_655
Na1 F005 2.334(3) 3_665
Na1 F005 2.334(3) .
Na1 F005 2.513(5) 19_666
Na1 F005 2.513(5) 20_556
Na1 F005 2.513(5) 21_656
Na1 Sn01 3.330(6) 19_666
Na1 Na2 3.4102(14) 1_655
Na1 Na2 3.4102(14) 1_665
Na1 Na1 3.683(5) 19_666
F005 Na1 2.513(5) 19_666
