#------------------------------------------------------------------------------
#$Date: 2021-03-06 12:44:33 +0200 (Sat, 06 Mar 2021) $
#$Revision: 262812 $
#$URL: file:///home/coder/svn-repositories/cod/cif/1/56/08/1560879.cif $
#------------------------------------------------------------------------------
#
# This file is available in the Crystallography Open Database (COD),
# http://www.crystallography.net/
#
# All data on this site have been placed in the public domain by the
# contributors.
#
data_1560879
loop_
_publ_author_name
'Cramer, Alisha J.'
'Cole, Jacqueline M.'
_publ_section_title
;
 Host-guest prospects of neodymium and gadolinium ultraphosphate
 frameworks for nuclear waste storage: Multi-temperature topological
 analysis of nanoporous cages in RP5O14
;
_journal_name_full               'Journal of Solid State Chemistry'
_journal_page_first              250
_journal_page_last               257
_journal_paper_doi               10.1016/j.jssc.2018.07.020
_journal_volume                  266
_journal_year                    2018
_chemical_formula_sum            'Gd O14 P5'
_chemical_formula_weight         536.10
_space_group_IT_number           53
_space_group_name_Hall           '-P 2ac 2'
_space_group_name_H-M_alt        'P m n a'
_symmetry_cell_setting           orthorhombic
_symmetry_space_group_name_H-M   'P m n a'
_atom_sites_solution_hydrogens   none
_atom_sites_solution_primary     direct
_atom_sites_solution_secondary   difmap
_audit_creation_method           SHELXL-97
_cell_angle_alpha                90.00
_cell_angle_beta                 90.00
_cell_angle_gamma                90.00
_cell_formula_units_Z            4
_cell_length_a                   12.944(3)
_cell_length_b                   8.7160(17)
_cell_length_c                   8.9160(18)
_cell_measurement_reflns_used    512
_cell_measurement_temperature    350(2)
_cell_measurement_theta_max      28.28
_cell_measurement_theta_min      2.0
_cell_volume                     1005.9(4)
_computing_cell_refinement
;
Rigaku CrystalClear-SM Expert 2.0
;
_computing_data_collection       'Rigaku CrystalClear-SM Expert 2.0'
_computing_data_reduction
;
Rigaku CrystalClear-SM Expert 2.0
;
_computing_molecular_graphics
;
SHELXTL-PLUS (Sheldrick, 1995)
;
_computing_publication_material  'SHELXL-97 (Sheldrick, 1997)'
_computing_structure_refinement  'SHELXL-97 (Sheldrick, 1997)'
_computing_structure_solution    'SHELXS-97 (Sheldrick, 1990)'
_diffrn_ambient_temperature      350(2)
_diffrn_measured_fraction_theta_full 0.841
_diffrn_measured_fraction_theta_max 0.841
_diffrn_measurement_device_type  'Rigaku Saturn 724+ CCD'
_diffrn_measurement_method       '\w scans'
_diffrn_radiation_monochromator  graphite
_diffrn_radiation_source         'fine-focus sealed tube'
_diffrn_radiation_type           MoK\a
_diffrn_radiation_wavelength     0.71073
_diffrn_reflns_av_R_equivalents  0.1038
_diffrn_reflns_av_sigmaI/netI    0.0702
_diffrn_reflns_limit_h_max       17
_diffrn_reflns_limit_h_min       -17
_diffrn_reflns_limit_k_max       7
_diffrn_reflns_limit_k_min       -11
_diffrn_reflns_limit_l_max       12
_diffrn_reflns_limit_l_min       -6
_diffrn_reflns_number            3695
_diffrn_reflns_theta_full        30.75
_diffrn_reflns_theta_max         30.75
_diffrn_reflns_theta_min         3.63
_diffrn_standards_decay_%        0
_diffrn_standards_interval_count 0
_diffrn_standards_interval_time  0
_diffrn_standards_number         0
_exptl_absorpt_coefficient_mu    7.478
_exptl_absorpt_correction_T_max  0.105
_exptl_absorpt_correction_T_min  0.069
_exptl_absorpt_correction_type   empirical
_exptl_absorpt_process_details
;
T. Higashi, ABSCOR, empirical absorption correction
;
_exptl_crystal_colour            colourless
_exptl_crystal_density_diffrn    3.540
_exptl_crystal_density_method    'not measured'
_exptl_crystal_description       block
_exptl_crystal_F_000             1004
_exptl_crystal_size_max          0.4
_exptl_crystal_size_mid          0.4
_exptl_crystal_size_min          0.3
_refine_diff_density_max         1.788
_refine_diff_density_min         -1.893
_refine_diff_density_rms         0.348
_refine_ls_extinction_coef       0.0187(15)
_refine_ls_extinction_expression Fc^*^=kFc[1+0.001xFc^2^\l^3^/sin(2\q)]^-1/4^
_refine_ls_extinction_method     SHELXL
_refine_ls_goodness_of_fit_ref   1.196
_refine_ls_hydrogen_treatment    none
_refine_ls_matrix_type           full
_refine_ls_number_parameters     99
_refine_ls_number_reflns         1381
_refine_ls_number_restraints     0
_refine_ls_restrained_S_all      1.196
_refine_ls_R_factor_all          0.0506
_refine_ls_R_factor_gt           0.0472
_refine_ls_shift/su_max          0.219
_refine_ls_shift/su_mean         0.002
_refine_ls_structure_factor_coef Fsqd
_refine_ls_weighting_details
'calc w=1/[\s^2^(Fo^2^)+(0.0644P)^2^+6.5011P] where P=(Fo^2^+2Fc^2^)/3'
_refine_ls_weighting_scheme      calc
_refine_ls_wR_factor_gt          0.1315
_refine_ls_wR_factor_ref         0.1332
_reflns_number_gt                1294
_reflns_number_total             1381
_reflns_threshold_expression     >2sigma(I)
_cod_data_source_file            2gd350i2-2bortho.cif
_cod_data_source_block           2gd350i2-2b
_cod_original_cell_volume        1005.9(3)
_cod_original_sg_symbol_H-M      Pmna
_cod_database_code               1560879
loop_
_symmetry_equiv_pos_as_xyz
'x, y, z'
'-x+1/2, -y, z+1/2'
'-x+1/2, y, -z+1/2'
'x, -y, -z'
'-x, -y, -z'
'x-1/2, y, -z-1/2'
'x-1/2, -y, z-1/2'
'-x, y, z'
loop_
_atom_site_label
_atom_site_type_symbol
_atom_site_fract_x
_atom_site_fract_y
_atom_site_fract_z
_atom_site_U_iso_or_equiv
_atom_site_adp_type
_atom_site_occupancy
_atom_site_symmetry_multiplicity
_atom_site_calc_flag
_atom_site_refinement_flags
_atom_site_disorder_assembly
_atom_site_disorder_group
Gd1 Gd 0.0000 0.27726(6) 0.19023(4) 0.0087(2) Uani 1 2 d S . .
P1 P -0.16524(14) 0.7638(2) 0.45114(19) 0.0099(4) Uani 1 1 d . . .
P2 P 0.0000 0.6852(3) 0.2453(3) 0.0086(4) Uani 1 2 d S . .
P3 P -0.32788(18) 1.0000 0.5000 0.0092(5) Uani 1 2 d S . .
P4 P 0.20223(19) 0.5000 0.0000 0.0119(5) Uani 1 2 d S . .
O1 O -0.0941(5) 0.7855(7) 0.3121(5) 0.0170(12) Uani 1 1 d . . .
O2 O 0.0000 0.5308(9) 0.3130(7) 0.0139(15) Uani 1 2 d S . .
O3 O 0.0000 0.2927(11) -0.0818(8) 0.0199(17) Uani 1 2 d S . .
O4 O -0.1128(5) 0.2270(7) 0.4045(6) 0.0209(12) Uani 1 1 d . . .
O5 O 0.1488(4) 0.4145(7) 0.1170(5) 0.0188(11) Uani 1 1 d . . .
O6 O -0.2473(5) 0.8867(8) 0.4170(6) 0.0298(15) Uani 1 1 d . . .
O7 O 0.1172(4) 0.0822(6) 0.1199(5) 0.0169(10) Uani 1 1 d . . .
O8 O -0.2185(5) 0.6097(8) 0.4140(6) 0.0300(16) Uani 1 1 d . . .
loop_
_atom_site_aniso_label
_atom_site_aniso_U_11
_atom_site_aniso_U_22
_atom_site_aniso_U_33
_atom_site_aniso_U_23
_atom_site_aniso_U_13
_atom_site_aniso_U_12
Gd1 0.0096(3) 0.0089(4) 0.0076(3) -0.00014(15) 0.000 0.000
P1 0.0101(7) 0.0100(8) 0.0096(7) -0.0007(6) 0.0003(5) 0.0020(6)
P2 0.0110(9) 0.0075(10) 0.0074(9) -0.0021(9) 0.000 0.000
P3 0.0085(9) 0.0079(11) 0.0111(8) -0.0018(8) 0.000 0.000
P4 0.0110(9) 0.0114(11) 0.0131(9) 0.0010(9) 0.000 0.000
O1 0.017(3) 0.016(3) 0.018(3) 0.0049(19) 0.0038(18) 0.008(2)
O2 0.024(4) 0.000(3) 0.018(3) 0.001(2) 0.000 0.000
O3 0.025(4) 0.028(5) 0.006(3) 0.006(3) 0.000 0.000
O4 0.028(3) 0.026(3) 0.009(2) 0.0014(19) 0.008(2) 0.002(2)
O5 0.016(2) 0.025(3) 0.016(2) 0.000(2) 0.0038(18) -0.006(2)
O6 0.032(3) 0.045(4) 0.0126(19) -0.003(2) -0.002(2) 0.024(3)
O7 0.021(2) 0.012(2) 0.018(2) -0.0018(19) -0.0008(19) 0.005(2)
O8 0.036(3) 0.030(4) 0.024(2) -0.021(2) 0.018(2) -0.028(3)
loop_
_atom_type_symbol
_atom_type_description
_atom_type_scat_dispersion_real
_atom_type_scat_dispersion_imag
_atom_type_scat_source
O O 0.0106 0.0060 'International Tables Vol C Tables 4.2.6.8 and 6.1.1.4'
P P 0.1023 0.0942 'International Tables Vol C Tables 4.2.6.8 and 6.1.1.4'
Gd Gd -0.1653 3.9035 'International Tables Vol C Tables 4.2.6.8 and 6.1.1.4'
loop_
_geom_angle_atom_site_label_1
_geom_angle_atom_site_label_2
_geom_angle_atom_site_label_3
_geom_angle
_geom_angle_site_symmetry_1
_geom_angle_site_symmetry_3
O5 Gd1 O5 109.4(3) . 8
O5 Gd1 O7 144.63(18) . 8
O5 Gd1 O7 76.5(2) 8 8
O5 Gd1 O7 76.5(2) . .
O5 Gd1 O7 144.63(18) 8 .
O7 Gd1 O7 79.9(3) 8 .
O5 Gd1 O3 72.28(16) . .
O5 Gd1 O3 72.28(16) 8 .
O7 Gd1 O3 77.0(2) 8 .
O7 Gd1 O3 77.0(2) . .
O5 Gd1 O4 79.60(19) . 8
O5 Gd1 O4 142.65(19) 8 8
O7 Gd1 O4 117.50(19) 8 8
O7 Gd1 O4 72.22(19) . 8
O3 Gd1 O4 142.22(16) . 8
O5 Gd1 O4 142.65(19) . .
O5 Gd1 O4 79.60(19) 8 .
O7 Gd1 O4 72.22(19) 8 .
O7 Gd1 O4 117.50(19) . .
O3 Gd1 O4 142.22(16) . .
O4 Gd1 O4 73.4(3) 8 .
O5 Gd1 O2 70.65(16) . .
O5 Gd1 O2 70.65(16) 8 .
O7 Gd1 O2 139.67(13) 8 .
O7 Gd1 O2 139.67(13) . .
O3 Gd1 O2 113.2(3) . .
O4 Gd1 O2 79.27(18) 8 .
O4 Gd1 O2 79.27(18) . .
O4 P1 O6 117.3(3) 4_566 .
O4 P1 O8 116.4(4) 4_566 .
O6 P1 O8 104.8(5) . .
O4 P1 O1 114.9(4) 4_566 .
O6 P1 O1 99.6(3) . .
O8 P1 O1 101.5(3) . .
O3 P2 O2 121.7(5) 5_565 .
O3 P2 O1 107.2(3) 5_565 8
O2 P2 O1 110.1(3) . 8
O3 P2 O1 107.2(3) 5_565 .
O2 P2 O1 110.1(3) . .
O1 P2 O1 98.1(5) 8 .
O7 P3 O7 122.2(4) 7_566 6_566
O7 P3 O6 106.0(3) 7_566 4_576
O7 P3 O6 110.3(3) 6_566 4_576
O7 P3 O6 110.3(3) 7_566 .
O7 P3 O6 106.0(3) 6_566 .
O6 P3 O6 99.6(5) 4_576 .
O5 P4 O5 123.3(5) . 4_565
O5 P4 O8 105.5(3) . 6_656
O5 P4 O8 110.0(3) 4_565 6_656
O5 P4 O8 110.0(3) . 7_665
O5 P4 O8 105.5(3) 4_565 7_665
O8 P4 O8 100.1(6) 6_656 7_665
P1 O1 P2 132.5(4) . .
P2 O2 Gd1 129.5(4) . .
P2 O3 Gd1 175.7(6) 5_565 .
P1 O4 Gd1 163.5(4) 4_566 .
P4 O5 Gd1 147.7(3) . .
P1 O6 P3 141.3(4) . .
P3 O7 Gd1 148.6(3) 6_646 .
P1 O8 P4 134.7(3) . 6_556
loop_
_geom_bond_atom_site_label_1
_geom_bond_atom_site_label_2
_geom_bond_distance
_geom_bond_site_symmetry_2
Gd1 O5 2.359(5) .
Gd1 O5 2.359(5) 8
Gd1 O7 2.364(5) 8
Gd1 O7 2.364(5) .
Gd1 O3 2.429(8) .
Gd1 O4 2.444(5) 8
Gd1 O4 2.444(5) .
Gd1 O2 2.466(8) .
P1 O4 1.458(6) 4_566
P1 O6 1.539(6) .
P1 O8 1.545(6) .
P1 O1 1.556(6) .
P2 O3 1.470(8) 5_565
P2 O2 1.475(8) .
P2 O1 1.613(6) 8
P2 O1 1.613(6) .
P3 O7 1.470(5) 7_566
P3 O7 1.470(5) 6_566
P3 O6 1.616(6) 4_576
P3 O6 1.616(6) .
P4 O5 1.457(5) .
P4 O5 1.457(5) 4_565
P4 O8 1.599(6) 6_656
P4 O8 1.599(6) 7_665
O3 P2 1.470(8) 5_565
O4 P1 1.458(6) 4_566
O7 P3 1.470(5) 6_646
O8 P4 1.599(6) 6_556

_cod_database_fobs_code 1560879
