#------------------------------------------------------------------------------
#$Date: 2021-03-03 10:12:29 +0200 (Wed, 03 Mar 2021) $
#$Revision: 262382 $
#$URL: file:///home/coder/svn-repositories/cod/cif/1/56/07/1560770.cif $
#------------------------------------------------------------------------------
#
# This file is available in the Crystallography Open Database (COD),
# http://www.crystallography.net/
#
# All data on this site have been placed in the public domain by the
# contributors.
#
data_1560770
loop_
_publ_author_name
'Smaha, Rebecca W.'
'He, Wei'
'Sheckelton, John P.'
'Wen, Jiajia'
'Lee, Young S.'
_publ_section_title
;
 Synthesis-dependent properties of barlowite and Zn-substituted barlowite
;
_journal_name_full               'Journal of Solid State Chemistry'
_journal_page_first              123
_journal_page_last               129
_journal_paper_doi               10.1016/j.jssc.2018.08.016
_journal_volume                  268
_journal_year                    2018
_chemical_formula_iupac
;
;
_chemical_formula_moiety
;
;
_chemical_formula_structural     'Cu3 Zn F Br O6 H6'
_chemical_formula_sum            'Br Cu3 F O6 Zn'
_chemical_formula_weight         450.91
_chemical_name_systematic
;
Zn-substituted barlowite
;
_space_group_crystal_system      hexagonal
_space_group_IT_number           194
_space_group_name_Hall           '-P 6c 2c'
_space_group_name_H-M_alt        'P 63/m m c'
_cell_angle_alpha                90.0
_cell_angle_beta                 90.0
_cell_angle_gamma                120.0
_cell_formula_units_Z            2
_cell_length_a                   6.675920(31)
_cell_length_b                   6.675920(31)
_cell_length_c                   9.322265(14)
_cell_measurement_temperature    298
_cell_volume                     359.811(2)
_computing_structure_refinement
'GSAS-II (Toby & Von Dreele, J. Appl. Cryst. 46, 544-549, 2013)'
_diffrn_ambient_temperature      295
_diffrn_detector                 11-BM
_diffrn_measurement_device_type  11-BM
_diffrn_radiation_monochromator  none
_diffrn_radiation_type           synchrotron
_diffrn_radiation_wavelength     0.41273
_diffrn_source                   synchrotron
_exptl_crystal_density_method    'not measured'
_pd_char_colour                  green
_pd_instr_location               ' ?'
_pd_meas_2theta_range_max        39.9971
_pd_meas_2theta_range_min        0.5
_pd_proc_info_excluded_regions
;'One region (2theta=11.9329-12.0842) was excluded as it arises from the 
cryostat'            
;
_pd_proc_ls_background_function
; Background function: "chebyschev" function with 11 terms:
    81.18(24), 2.9(15), 17(4), 2(18), -662(18), 1.5(7)e2, 1984(23), 
    -4.3(10)e2, -2167(20), 2.9(5)e2, 798(17), 
;
_pd_proc_ls_pref_orient_corr     none
_pd_proc_ls_profile_function
; Finger-Cox-Jephcoat function parameters U, V, W, X, Y, SH/L:
  peak variance(Gauss) = Utan(Th)^2^+Vtan(Th)+W:
  peak HW(Lorentz) = X/cos(Th)+Ytan(Th); SH/L = S/L+H/L
  U, V, W in (centideg)^2^, X & Y in centideg
    1.163, -0.126, 0.063, -0.30(6), 4.77(18), 0.00279(5), 
;
_pd_proc_ls_prof_R_factor        0.08518
_pd_proc_ls_prof_wR_expected     0.05883
_pd_proc_ls_prof_wR_factor       0.11472
_pd_spec_mounting                ' kapton capillary'
_refine_ls_extinction_method     none
_refine_ls_goodness_of_fit_all   1.951
_refine_ls_hydrogen_treatment    noref
_refine_ls_matrix_type           fullcycle
_refine_ls_number_parameters     35
_refine_ls_structure_factor_coef Inet
_refine_ls_weighting_details     1/[Y~i~+\s(Y~i~)]
_refine_ls_weighting_scheme      sigma
_reflns_d_resolution_high        0.604
_reflns_d_resolution_low         5.781
_reflns_number_total             769
_cod_data_source_file            JSSC-2018-268-123.cif
_cod_data_source_block           znbarlowite
_cod_original_cell_volume        359.8109(20)
_cod_database_code               1560770
loop_
_symmetry_equiv_pos_site_id
_symmetry_equiv_pos_as_xyz
1 x,y,z
2 x-y,x,1/2+z
3 -y,x-y,z
4 -x,-y,1/2+z
5 y-x,-x,z
6 y,y-x,1/2+z
7 y-x,y,z
8 -x,y-x,1/2+z
9 -y,-x,z
10 x-y,-y,1/2+z
11 x,x-y,z
12 y,x,1/2+z
13 -x,-y,-z
14 y-x,-x,1/2-z
15 y,y-x,-z
16 x,y,1/2-z
17 x-y,x,-z
18 -y,x-y,1/2-z
19 x-y,-y,-z
20 x,x-y,1/2-z
21 y,x,-z
22 y-x,y,1/2-z
23 -x,y-x,-z
24 -y,-x,1/2-z
loop_
_atom_site_label
_atom_site_type_symbol
_atom_site_fract_x
_atom_site_fract_y
_atom_site_fract_z
_atom_site_occupancy
_atom_site_adp_type
_atom_site_U_iso_or_equiv
_atom_site_symmetry_multiplicity
Br1 Br 0.66667 0.33333 0.75000 1.000 Uiso 0.01478(19) 2
Cu1 Cu 0.50000 0.00000 0.50000 1.000 Uiso 0.00825(8) 6
Zn1 Zn 0.66667 0.33333 0.25000 1.000 Uiso 0.01388(24) 2
O1 O 0.79959(9) 0.20041 0.40469(12) 1.000 Uiso 0.00515(31) 12
F1 F 1.00000 0.00000 0.75000 1.000 Uiso 0.0143(6) 2
loop_
_atom_type_symbol
_atom_type_number_in_cell
Br 2
Cu 6
F 2
O 12
Zn 2
loop_
_geom_bond_atom_site_label_1
_geom_bond_atom_site_label_2
_geom_bond_distance
_geom_bond_site_symmetry_1
_geom_bond_site_symmetry_2
_geom_bond_publ_flag
Cu1 O1 1.9758(7) 1_555 1_555 yes
Cu1 O1 1.9758(5) 1_555 5_665 yes
Cu1 O1 1.9758(7) 1_555 13_656 yes
Cu1 O1 1.9758(5) 1_555 17_546 yes
Zn1 O1 2.1075(9) 1_555 1_555 yes
Zn1 O1 2.1076(9) 1_555 3_655 yes
Zn1 O1 2.1076(9) 1_555 5_665 yes
Zn1 O1 2.1076(9) 1_555 14_666 yes
Zn1 O1 2.1075(9) 1_555 16_556 yes
Zn1 O1 2.1076(9) 1_555 18_656 yes
O1 Cu1 1.9758(7) 1_555 1_555 yes
O1 Cu1 1.9758(5) 1_555 3_655 yes
O1 Zn1 2.1075(9) 1_555 1_555 yes
O1 Zn1 2.1076(9) 1_555 3_655 yes
O1 Zn1 2.1076(9) 1_555 5_665 yes
loop_
_pd_proc_wavelength
0.41273
loop_
_pd_refln_phase_id
_refln_index_h
_refln_index_k
_refln_index_l
_refln_F_squared_meas
_refln_F_squared_calc
_refln_phase_calc
_pd_refln_d_spacing
_gsas_i100_meas
0 1 0 0 11068.8192 11195.0349 180.0 5.781 78.96
0 1 0 1 224.0053 188.3066 0.0 4.913 2.43
0 0 0 2 3235.9233 3265.6261 -0.0 4.661 6.19
0 1 0 2 162.1813 144.1527 180.0 3.629 1.03
0 1 1 0 3918.5465 3522.9100 0.0 3.338 9.36
0 2 0 0 6074.8446 5666.5407 0.0 2.891 10.85
0 2 0 1 1457.2042 1156.2789 0.0 2.761 4.83
0 1 0 3 1233.9988 1299.1785 -0.0 2.737 4.64
0 1 1 2 29707.1583 28866.4384 180.0 2.714 100.00
0 2 0 2 27069.0588 27190.1172 0.0 2.457 73.73
0 0 0 4 35348.1654 39472.0752 -0.0 2.330 16.94
0 2 1 0 2279.0404 2197.3157 180.0 2.185 4.67
0 1 0 4 5813.4673 5825.3847 180.0 2.161 13.91
0 2 1 1 35.1482 27.9497 -180.0 2.127 0.14
0 2 0 3 1540.8413 1252.0920 -0.0 2.116 3.24
0 2 1 2 5.1751 11.7089 -0.0 1.978 0.02
0 3 0 0 1174.7148 1177.9640 -0.0 1.927 0.94
0 1 1 4 4493.2081 4344.5443 0.0 1.911 8.06
0 3 0 1 482.1000 463.5456 -180.0 1.887 0.74
0 2 0 4 9865.8496 10697.7530 0.0 1.814 15.73
0 2 1 3 18.2277 21.9018 0.0 1.787 0.05
0 3 0 2 21287.3152 20292.3456 180.0 1.781 29.79
0 1 0 5 2.2879 2.7309 -180.0 1.774 0.00
0 2 2 0 56315.0080 52834.0177 -0.0 1.669 33.81
0 3 0 3 1314.5942 1047.2037 180.0 1.638 1.60
0 3 1 0 6208.8606 6012.3130 180.0 1.603 6.87
0 2 1 4 7251.2732 7340.2072 -180.0 1.594 17.37
0 3 1 1 32.4285 24.1995 0.0 1.580 0.07
0 2 2 2 1253.5056 969.5386 -0.0 1.571 1.36
0 2 0 5 111.4428 86.1563 -0.0 1.567 0.14
0 0 0 6 518.8325 290.8385 180.0 1.554 0.11
0 3 1 2 161.4682 78.6227 180.0 1.516 0.33
0 1 0 6 13.2863 9.0519 -180.0 1.500 0.02
0 3 0 4 4043.5295 3788.2973 0.0 1.485 4.15
0 4 0 0 6363.5033 5123.0014 0.0 1.445 2.86
0 4 0 1 296.1585 206.0487 -180.0 1.428 0.26
0 3 1 3 22.0878 19.5014 -180.0 1.425 0.04
0 2 1 5 20.1131 22.4214 180.0 1.418 0.04
0 1 1 6 10992.9296 11221.5723 -180.0 1.409 11.14
0 4 0 2 17303.2664 15995.0978 0.0 1.380 14.45
0 2 0 6 18457.3651 19915.4748 -0.0 1.369 17.47
0 2 2 4 26149.5092 25580.6043 -0.0 1.357 22.19
0 3 0 5 22.6413 14.9741 180.0 1.340 0.02
0 3 2 0 5835.9554 5648.8532 180.0 1.326 4.44
0 3 1 4 2950.8713 2858.7022 180.0 1.321 4.73
0 3 2 1 82.9769 94.4083 0.0 1.313 0.12
0 4 0 3 110.9096 107.6261 180.0 1.310 0.09
0 1 0 7 102.5973 78.4397 -180.0 1.298 0.09
0 3 2 2 136.8175 95.3192 180.0 1.276 0.20
0 2 1 6 393.4955 438.5682 180.0 1.266 0.62
0 4 1 0 1596.4100 1540.4975 -0.0 1.262 1.10
0 4 1 1 137.1673 68.8263 0.0 1.250 0.19
0 4 0 4 4308.1024 4176.4219 0.0 1.228 2.96
0 3 2 3 732.8801 750.5105 -0.0 1.220 0.97
0 4 1 2 10177.1517 9869.8002 180.0 1.218 13.23
0 3 1 5 22.4578 22.8931 -0.0 1.216 0.03
0 3 0 6 6987.1996 7253.4914 -180.0 1.210 4.99
0 2 0 7 580.8594 602.8744 -180.0 1.210 0.44
0 4 1 3 127.1221 173.1994 -0.0 1.169 0.15
0 0 0 8 20672.2389 23373.2902 0.0 1.165 2.50
0 5 0 0 383.2438 473.3835 180.0 1.156 0.11
0 3 2 4 1978.4493 1795.8546 180.0 1.153 2.39
0 5 0 1 15.2713 22.4200 0.0 1.147 0.01
0 4 0 5 43.3781 43.9026 180.0 1.142 0.03
0 1 0 8 2659.2711 2685.1530 -180.0 1.142 1.84
0 2 2 6 14.1419 15.2620 0.0 1.137 0.01
0 2 1 7 21.4569 23.1101 0.0 1.137 0.03
0 5 0 2 44.7888 53.6079 -0.0 1.122 0.02
0 3 1 6 5.7621 4.7595 -0.0 1.116 0.01
0 3 3 0 2757.8499 2691.8727 0.0 1.113 0.74
0 4 1 4 1339.0772 1362.0657 0.0 1.109 1.49
0 1 1 8 1494.0103 1211.2413 -0.0 1.100 0.94
0 3 0 7 250.6269 312.9964 0.0 1.096 0.15
0 4 2 0 3172.2139 2505.9708 0.0 1.093 1.65
0 4 2 1 16.9687 19.7931 -0.0 1.085 0.02
0 5 0 3 21.5744 22.0296 -180.0 1.084 0.01
0 3 3 2 6399.2712 6538.4309 -180.0 1.082 3.29
0 3 2 5 2.9846 3.3283 -180.0 1.081 0.00
0 2 0 8 2662.8706 2936.2354 -0.0 1.081 1.61
0 4 2 2 9896.5166 9378.8160 0.0 1.064 9.84
0 4 0 6 9826.6902 9918.9333 -0.0 1.058 5.23
0 4 1 5 5.8214 2.9364 -0.0 1.045 0.01
0 5 1 0 2668.0002 2353.3111 180.0 1.038 1.25
0 5 0 4 4285.7524 4343.0116 -180.0 1.036 2.07
0 5 1 1 148.4924 126.0798 -180.0 1.032 0.14
0 4 2 3 28.9331 25.2442 180.0 1.031 0.03
0 2 1 8 2329.6484 2018.2062 180.0 1.028 2.51
0 3 1 7 25.6502 22.9682 -180.0 1.024 0.03
0 1 0 9 255.9885 182.2235 180.0 1.020 0.14
0 5 1 2 23.6733 13.3297 180.0 1.013 0.02
0 3 2 6 77.5060 51.0498 -0.0 1.009 0.07
0 3 3 4 479.0741 431.8879 -0.0 1.004 0.22
0 3 0 8 1174.1528 897.2250 -0.0 0.997 0.59
0 4 2 4 3196.8627 2849.3726 0.0 0.989 2.82
0 5 1 3 32.1657 39.6166 180.0 0.985 0.03
0 5 0 5 16.1125 20.5132 -0.0 0.983 0.01
0 4 1 6 5621.8310 5609.5337 -180.0 0.979 5.08
0 4 0 7 188.5465 188.1538 0.0 0.979 0.09
0 2 0 9 80.5079 81.3485 180.0 0.975 0.04
0 6 0 0 14701.6849 13903.5872 -0.0 0.964 2.98
0 6 0 1 30.0328 37.0514 0.0 0.958 0.01
0 2 2 8 13608.5941 14273.8861 0.0 0.955 6.21
0 4 3 0 906.1861 853.1121 180.0 0.950 0.36
0 5 1 4 1757.3540 1630.8618 180.0 0.948 1.42
0 4 3 1 19.9713 18.8800 180.0 0.946 0.02
0 6 0 2 254.8864 228.2983 0.0 0.944 0.10
0 4 2 5 20.1238 19.0357 0.0 0.943 0.02
0 3 1 8 1848.2294 1739.1973 -180.0 0.943 1.64
0 3 2 7 115.7768 101.1420 -180.0 0.940 0.10
0 2 1 9 22.0674 18.8430 -180.0 0.936 0.02
0 0 0 10 1263.5538 1431.6963 0.0 0.932 0.10
0 4 3 2 2.4303 3.1785 -0.0 0.931 0.00
0 5 0 6 631.9689 548.8163 180.0 0.928 0.25
0 5 2 0 335.8489 306.3319 0.0 0.926 0.13
0 5 2 1 94.2352 81.2057 -180.0 0.921 0.07
0 6 0 3 117.7581 99.9608 -0.0 0.920 0.04
0 1 0 10 20.9566 17.1693 -180.0 0.920 0.01
0 4 1 7 69.8134 73.2461 -180.0 0.916 0.06
0 3 0 9 143.3433 157.8807 -0.0 0.912 0.06
0 4 3 3 20.6535 19.6018 -0.0 0.909 0.02
0 5 2 2 5137.6411 5188.4934 180.0 0.908 3.74
0 5 1 5 32.8004 32.9815 180.0 0.907 0.02
0 4 0 8 1963.7361 1974.3281 -0.0 0.907 0.80
0 3 3 6 6328.8107 6277.3320 180.0 0.905 2.42
0 1 1 10 4951.3485 5132.8712 -180.0 0.898 2.12
0 4 2 6 6863.8833 6967.8313 -0.0 0.894 5.12
0 6 0 4 12095.8593 11801.4494 0.0 0.890 4.31
0 5 2 3 218.9628 221.0384 180.0 0.887 0.15
0 2 0 10 4845.8724 4843.5150 -0.0 0.887 2.02
0 6 1 0 1617.9955 1755.2722 180.0 0.882 0.55
0 4 3 4 2107.4714 2112.5160 -180.0 0.880 1.47
0 6 1 1 17.1962 18.0731 0.0 0.878 0.01
0 3 2 8 1441.4032 1446.1545 -180.0 0.875 1.08
0 5 0 7 19.5371 17.1019 -180.0 0.873 0.01
0 3 1 9 22.3697 15.9287 0.0 0.870 0.02
0 6 1 2 35.8986 16.9904 180.0 0.866 0.02
0 5 1 6 2.0428 1.5624 -180.0 0.863 0.00
0 5 2 4 922.0277 948.5384 0.0 0.860 0.61
0 2 1 10 85.7118 67.8523 0.0 0.857 0.07
0 6 0 5 2.2165 1.8956 -0.0 0.856 0.00
0 4 1 8 663.0337 566.4955 -0.0 0.856 0.47
0 6 1 3 13.5936 14.8208 -180.0 0.848 0.01
0 4 3 5 17.0702 15.8269 -180.0 0.847 0.01
0 4 2 7 15.4224 13.7569 180.0 0.845 0.01
0 4 0 9 5.2446 8.7117 -0.0 0.842 0.00
0 3 0 10 4263.9909 4780.3205 -180.0 0.839 1.56
0 1 0 11 38.7479 43.8108 0.0 0.838 0.01
0 4 4 0 8729.8110 8639.6888 0.0 0.834 1.34
0 5 2 5 3.8485 4.2521 180.0 0.829 0.00
0 7 0 0 1884.4805 1830.9543 180.0 0.826 0.28
0 5 3 0 1900.0458 1844.2303 180.0 0.826 0.57
0 6 1 4 1005.7971 975.5933 180.0 0.825 0.62
0 7 0 1 16.9590 15.9247 0.0 0.823 0.01
0 5 3 1 150.7924 141.4822 0.0 0.823 0.09
0 4 4 2 196.2151 164.7005 0.0 0.821 0.06
0 5 0 8 1222.0695 1042.5101 180.0 0.821 0.40
0 6 0 6 294.7115 249.5663 -0.0 0.819 0.09
0 5 1 7 154.6240 130.8546 0.0 0.819 0.10
0 3 2 9 265.6105 215.7029 180.0 0.816 0.18
0 2 2 10 419.9384 589.2119 0.0 0.814 0.14
0 7 0 2 27.6632 32.3192 180.0 0.813 0.01
0 5 3 2 28.2399 32.9522 180.0 0.813 0.02
0 2 0 11 0.3046 0.3475 0.0 0.813 0.00
0 4 3 6 137.4310 141.6503 180.0 0.811 0.08
0 3 1 10 41.5220 42.3642 -180.0 0.806 0.03
0 3 3 8 504.4817 483.3891 0.0 0.805 0.16
0 6 2 0 2657.9324 2347.1606 -0.0 0.802 0.75
0 4 1 9 46.7312 42.5846 180.0 0.801 0.03
0 6 2 1 13.4286 13.1830 180.0 0.799 0.01
0 5 3 3 92.6163 95.9195 -0.0 0.798 0.05
0 7 0 3 267.7982 277.5875 -0.0 0.798 0.08
0 6 1 5 13.4468 13.7064 -0.0 0.797 0.01
0 4 2 8 1356.7727 1381.1092 -0.0 0.797 0.83
0 5 2 6 2314.5183 2299.3964 -180.0 0.795 1.36
0 6 2 2 5426.9667 4911.5167 -0.0 0.790 3.01
0 2 1 11 14.5997 13.0629 -0.0 0.790 0.01
0 4 4 4 8686.6794 8347.7505 0.0 0.786 2.42
0 4 0 10 4142.1374 4150.4217 -0.0 0.783 1.29
0 6 0 7 58.1250 53.1633 -180.0 0.781 0.02
0 7 0 4 693.2471 633.1449 180.0 0.778 0.19
0 5 3 4 688.3688 627.8272 180.0 0.778 0.38
0 0 0 12 10649.1383 9645.5723 -0.0 0.777 0.58
0 6 2 3 14.6375 13.1864 -0.0 0.776 0.01
0 3 0 11 18.1895 15.7675 -180.0 0.776 0.01
0 5 1 8 1101.0306 957.8798 -180.0 0.775 0.64
0 4 3 7 15.9983 11.6250 -0.0 0.774 0.01
0 5 0 9 17.8600 12.1809 0.0 0.771 0.01
0 1 0 12 1244.4565 976.1277 180.0 0.770 0.40
0 6 1 6 0.5771 0.3835 -0.0 0.767 0.00
0 7 1 0 861.2390 833.3478 0.0 0.766 0.22
0 7 1 1 0.0096 0.0084 -180.0 0.763 0.00
0 3 2 10 107.3422 104.7635 -180.0 0.763 0.06
0 5 2 7 95.7023 121.0681 0.0 0.760 0.05
0 6 2 4 850.2984 762.6359 -0.0 0.758 0.44
0 1 1 12 310.5995 262.7390 0.0 0.757 0.10
0 7 1 2 2342.0505 2211.3381 -180.0 0.756 1.19
0 7 0 5 2.7511 2.4172 -180.0 0.755 0.00
0 5 3 5 31.3057 27.5265 -0.0 0.755 0.02
0 4 2 9 10.1369 12.5655 -0.0 0.752 0.01
0 2 0 12 814.7824 878.7807 0.0 0.750 0.25
0 4 1 10 2444.5106 2587.4839 -180.0 0.750 1.39
0 3 1 11 10.6310 10.6717 180.0 0.749 0.01
0 7 1 3 0.0220 0.0235 180.0 0.743 0.00
0 6 0 8 6244.1759 6424.9631 -0.0 0.743 1.65
0 5 4 0 897.2958 858.2270 180.0 0.740 0.22
0 5 4 1 1.1957 1.1986 0.0 0.738 0.00
0 6 2 5 11.6983 10.1321 -180.0 0.737 0.01
0 4 3 8 874.9690 756.6713 180.0 0.737 0.45
0 4 4 6 365.2455 288.3596 -0.0 0.735 0.09
0 6 1 7 13.8023 10.9028 -180.0 0.735 0.01
0 5 1 9 9.4456 8.4746 -0.0 0.733 0.00
0 2 1 12 582.0392 488.9279 -180.0 0.732 0.33
0 5 4 2 11.9019 8.9204 180.0 0.731 0.01
0 4 0 11 1.2679 0.9551 -0.0 0.731 0.00
0 5 3 6 26.6426 17.1935 -0.0 0.729 0.01
0 7 0 6 25.1365 16.2088 -0.0 0.729 0.01
0 6 3 0 213.0393 175.1977 -0.0 0.728 0.05
0 7 1 4 127.3482 99.6641 -0.0 0.727 0.06
0 6 3 1 0.0718 0.0521 -180.0 0.726 0.00
0 5 0 10 269.7762 188.7710 0.0 0.726 0.07
0 5 2 8 418.0178 258.5238 -0.0 0.725 0.21
0 8 0 0 1010.6534 631.7862 0.0 0.723 0.12
0 8 0 1 20.0525 15.5880 -180.0 0.720 0.00
0 3 0 12 180.0002 139.2350 0.0 0.720 0.05
0 5 4 3 119.7001 101.8322 -0.0 0.720 0.06
0 6 3 2 2547.9438 2250.8931 180.0 0.720 1.18
0 3 3 10 1480.0896 1337.5164 180.0 0.715 0.38
0 8 0 2 3026.0140 2851.7139 0.0 0.714 0.69
0 3 2 11 46.4158 43.0990 0.0 0.714 0.02
0 6 2 6 2441.0262 2257.4082 0.0 0.712 1.15
0 1 0 13 20.4388 19.8107 0.0 0.712 0.01
0 6 3 3 0.1437 0.1476 180.0 0.709 0.00
0 4 2 10 2665.1662 2724.0376 -0.0 0.709 1.34
0 7 1 5 0.0005 0.0005 180.0 0.708 0.00
0 7 2 0 280.7064 308.6790 -180.0 0.706 0.06
0 5 4 4 620.9501 652.3694 180.0 0.705 0.28
0 6 0 9 32.3752 34.0049 180.0 0.705 0.01
0 7 2 1 7.8240 8.5682 0.0 0.704 0.00
0 2 2 12 5693.1350 6151.3015 -0.0 0.704 1.49
0 8 0 3 194.1542 212.6907 180.0 0.704 0.04
0 4 1 11 4.2781 4.6722 0.0 0.703 0.00
0 6 1 8 600.9444 686.0757 -180.0 0.703 0.28
0 5 3 7 149.4703 173.6608 -180.0 0.702 0.07
0 7 0 7 43.7481 50.9496 -180.0 0.702 0.01
0 4 3 9 8.6475 8.6256 180.0 0.700 0.00
0 3 1 12 850.8350 773.4486 180.0 0.699 0.44
0 7 2 2 0.1768 0.1398 -0.0 0.698 0.00
0 2 0 13 211.5076 205.0820 0.0 0.696 0.06
0 6 3 4 329.0834 305.6246 0.0 0.695 0.14
0 5 1 10 29.1464 15.3402 -180.0 0.694 0.01
0 8 0 4 1489.0520 1285.6666 0.0 0.690 0.32
0 5 2 9 91.7292 78.4184 -0.0 0.690 0.04
0 7 2 3 8.3901 7.2630 -180.0 0.689 0.00
0 5 4 5 2.9165 3.0323 -180.0 0.688 0.00
0 7 1 6 2458.4387 2492.7969 180.0 0.687 1.07
0 6 2 7 6.9041 6.9950 -0.0 0.687 0.00
0 4 0 12 772.8880 881.5064 0.0 0.684 0.19
0 5 0 11 8.8831 7.2423 180.0 0.684 0.00
0 2 1 13 7.8526 7.3749 -180.0 0.681 0.00
0 6 3 5 0.0031 0.0030 180.0 0.678 0.00
0 4 4 8 4765.0071 4596.1098 -0.0 0.678 1.05
0 8 1 0 759.3543 760.2061 180.0 0.677 0.16
0 7 2 4 870.0036 904.6723 -180.0 0.676 0.36
0 8 1 1 6.1769 6.0638 180.0 0.675 0.00
0 8 0 5 0.9196 0.9180 0.0 0.674 0.00
0 7 0 8 601.0753 598.0045 -180.0 0.674 0.13
0 5 3 8 602.7394 598.4737 -180.0 0.674 0.26
0 3 0 13 171.6023 126.1530 -180.0 0.672 0.04
0 6 1 9 8.3722 6.1073 0.0 0.671 0.00
0 3 2 12 904.9959 779.4526 180.0 0.670 0.42
0 6 0 10 151.6343 139.1099 -0.0 0.670 0.03
0 8 1 2 18.6240 16.6993 180.0 0.670 0.01
0 4 2 11 7.7242 6.8634 -180.0 0.670 0.00
0 5 4 6 6.9775 4.8119 -180.0 0.668 0.00
0 5 5 0 1014.9448 839.1650 0.0 0.668 0.10
0 0 0 14 56.6072 25.8043 -0.0 0.666 0.00
0 4 3 10 47.1950 25.4583 0.0 0.666 0.02
0 7 1 7 0.0260 0.0144 0.0 0.664 0.00
0 6 4 0 1037.7031 775.2545 -0.0 0.663 0.20
0 6 4 1 2.4473 2.0845 -180.0 0.661 0.00
0 4 1 12 183.6147 154.6432 0.0 0.661 0.08
0 1 0 14 6.6220 5.4986 180.0 0.661 0.00
0 8 1 3 7.9863 7.2545 -0.0 0.661 0.00
0 5 5 2 1138.6874 1103.3776 -180.0 0.661 0.22
0 7 2 5 6.0186 6.0392 -0.0 0.660 0.00
0 6 2 8 862.8149 862.8974 0.0 0.660 0.36
0 6 3 6 1244.2463 1278.4417 -180.0 0.659 0.50
0 5 2 10 1994.0815 1998.8606 -180.0 0.657 0.85
0 6 4 2 2321.7395 2298.6339 0.0 0.657 0.90
0 5 1 11 0.2415 0.2378 -0.0 0.657 0.00
0 8 0 6 3075.0792 2938.9435 -0.0 0.655 0.61
0 3 1 13 7.2606 6.2796 0.0 0.655 0.00
0 1 1 14 1721.1266 1318.1701 180.0 0.653 0.40
0 7 3 0 906.7757 835.0114 180.0 0.650 0.17
0 8 1 4 421.7638 393.5661 180.0 0.650 0.16
0 7 3 1 67.5158 69.2644 -180.0 0.649 0.03
0 2 0 14 2677.4852 2560.6676 0.0 0.649 0.62
0 6 4 3 78.6988 77.2174 180.0 0.649 0.03
0 5 4 7 17.7478 10.9608 -180.0 0.647 0.01
0 7 0 9 203.0697 108.7776 180.0 0.646 0.04
0 5 3 9 71.5122 38.2728 180.0 0.646 0.03
0 5 0 12 296.7812 159.7235 -180.0 0.645 0.06
0 7 3 2 59.3285 27.9910 180.0 0.644 0.02
0 7 2 6 172.5593 97.7385 180.0 0.643 0.07
0 9 0 0 206.8583 128.0403 0.0 0.642 0.02
0 4 0 13 124.1497 75.0707 -180.0 0.642 0.03
0 5 5 4 2.7952 1.4714 -0.0 0.642 0.00
0 9 0 1 26.3550 12.5448 -180.0 0.641 0.00
0 6 1 10 58.4030 32.5848 -180.0 0.641 0.02
0 7 1 8 237.5336 153.6800 0.0 0.640 0.09
0 6 3 7 0.1315 0.0925 0.0 0.639 0.00
0 6 4 4 981.3272 783.8045 0.0 0.638 0.36
0 3 3 12 321.6642 277.9941 -0.0 0.637 0.07
0 2 1 14 57.3326 48.9016 -180.0 0.637 0.03
0 7 3 3 71.7360 64.3511 180.0 0.637 0.03
0 9 0 2 1460.3730 1297.8141 180.0 0.636 0.27
0 6 0 11 4.5602 3.9832 0.0 0.636 0.00
0 8 1 5 5.7276 4.6273 -180.0 0.636 0.00
0 8 0 7 89.8735 51.0508 0.0 0.635 0.02
0 6 2 9 8.7539 4.9640 180.0 0.634 0.00
0 4 2 12 755.9764 631.2259 0.0 0.633 0.31
0 4 3 11 6.1848 4.7207 0.0 0.633 0.00
0 8 2 0 3202.0020 2767.1919 0.0 0.631 0.57
0 3 2 13 82.9194 68.7649 0.0 0.631 0.03
0 8 2 1 45.2121 34.7084 0.0 0.629 0.02
0 3 0 14 1380.9361 1005.9004 180.0 0.629 0.30
0 9 0 3 49.9491 35.9601 180.0 0.629 0.01
0 7 3 4 388.8205 256.7223 180.0 0.626 0.14
0 8 2 2 182.4452 105.8024 0.0 0.625 0.06
0 5 2 11 16.0725 9.2670 -180.0 0.625 0.01
0 6 4 5 2.2459 1.3121 0.0 0.625 0.00
0 5 4 8 728.9627 424.0601 -180.0 0.625 0.27
0 7 2 7 9.4932 4.3679 -180.0 0.624 0.00
0 4 1 13 99.3991 39.4728 0.0 0.623 0.04
0 5 1 12 780.7080 441.0058 180.0 0.622 0.31
0 4 4 10 162.3435 91.4779 -0.0 0.622 0.03
0 8 1 6 0.1137 0.0334 -180.0 0.620 0.00
0 9 0 4 263.7397 121.0246 0.0 0.619 0.05
0 2 2 14 141.3767 75.8059 -0.0 0.618 0.03
0 8 2 3 163.8056 99.6176 -0.0 0.618 0.06
0 7 0 10 133.3881 79.3799 -180.0 0.618 0.03
0 5 3 10 137.5465 81.2877 -180.0 0.618 0.05
0 1 0 15 43.9505 21.7658 -0.0 0.618 0.01
0 6 3 8 229.2561 105.2171 -0.0 0.618 0.08
0 7 1 9 0.0407 0.0098 -0.0 0.616 0.00
0 3 1 14 6.1187 2.1871 180.0 0.615 0.00
0 7 3 5 17.8017 11.5730 180.0 0.614 0.01
0 8 0 8 987.0168 639.5704 -0.0 0.614 0.18
0 5 5 6 2839.9611 2093.1855 180.0 0.613 0.50
0 6 1 11 5.0256 3.5091 180.0 0.611 0.00
0 6 4 6 1966.9732 1838.7944 -0.0 0.610 0.68
0 5 0 13 3.8835 3.5648 0.0 0.609 0.00
0 8 2 4 3604.4736 3530.4577 0.0 0.609 1.22
0 6 2 10 2506.0303 2421.0202 0.0 0.608 0.91
0 2 0 15 6.3882 5.8403 -0.0 0.608 0.00
0 9 0 5 0.8564 0.7528 180.0 0.607 0.00
0 6 5 0 427.6440 418.6644 180.0 0.606 0.07
0 9 1 0 407.8889 400.0004 180.0 0.606 0.07
0 6 5 1 2.7683 3.2334 0.0 0.605 0.00
0 9 1 1 23.1523 27.1125 0.0 0.605 0.01
0 6 0 12 2467.8882 2855.6691 0.0 0.605 0.46
0 4 0 14 1520.7427 1740.8522 0.0 0.605 0.30
0 7 2 8 296.1768 344.2513 180.0 0.604 0.10
1 2 0 0 1372.0677 304.4623 -180.0 5.104 0.00
1 1 1 0 5671.7100 5059.3010 -0.0 4.275 0.03
1 2 1 0 580.8024 426.1932 180.0 3.461 0.00
1 3 1 0 5983.6420 5268.3584 180.0 2.758 0.01
1 2 0 1 3870.4346 4094.5588 90.0 2.661 0.01
1 0 1 1 545.4467 317.1873 90.0 2.599 0.00
1 4 0 0 8324.1986 6055.7636 180.0 2.552 0.01
1 1 1 1 7055.1372 5780.5474 90.0 2.519 0.02
1 0 2 0 1409.8974 2101.7745 -0.0 2.354 0.00
1 2 1 1 788.2867 1055.9778 90.0 2.316 0.00
1 1 2 0 182.7427 168.7684 180.0 2.294 0.00
1 4 1 0 3214.4578 2232.0739 -0.0 2.244 0.00
1 2 2 0 194.0678 191.7985 -180.0 2.138 0.00
1 3 1 1 4953.0339 1444.7553 90.0 2.066 0.01
1 4 0 1 535.8033 706.5540 -90.0 1.975 0.00
1 3 2 0 410.6764 207.6534 -180.0 1.936 0.00
1 5 1 0 1568.5878 1215.4993 180.0 1.873 0.00
1 1 2 1 1232.1598 1007.0210 90.0 1.848 0.00
1 4 1 1 157.5155 225.3897 -90.0 1.821 0.00
1 2 2 1 7492.6310 8493.2158 90.0 1.763 0.01
1 4 2 0 7990.0822 6211.3818 180.0 1.730 0.01
1 6 0 0 2196.7196 1557.5103 -0.0 1.701 0.00
1 3 2 1 927.2506 850.2169 -90.0 1.645 0.00
1 5 1 1 5474.7785 5598.8749 -90.0 1.606 0.01
1 6 1 0 154.8496 168.3865 0.0 1.600 0.00
1 0 0 2 16201.2029 11214.6741 -0.0 1.559 0.01
1 1 3 0 2358.4565 1231.9679 -0.0 1.551 0.00
1 5 2 0 2220.6986 972.9215 -0.0 1.542 0.00
1 4 2 1 1013.6385 497.4692 -90.0 1.513 0.00
1 2 3 0 2665.9641 1695.5208 180.0 1.500 0.00
1 6 0 1 7815.1484 8090.9642 -90.0 1.494 0.00
1 2 0 2 183.3611 175.6951 -180.0 1.491 0.00
1 1 1 2 3470.1734 2209.3609 -0.0 1.465 0.00
1 3 3 0 4756.6454 3925.3252 180.0 1.425 0.00
1 6 1 1 8.6377 7.1475 -90.0 1.424 0.00
1 2 1 2 232.3887 213.1540 180.0 1.421 0.00
1 0 3 1 1227.4974 1451.6507 90.0 1.402 0.00
1 7 1 0 3832.2767 4389.0995 -0.0 1.393 0.00
1 1 3 1 1230.0503 1438.8228 90.0 1.389 0.00
1 5 2 1 13.4213 13.1518 -90.0 1.382 0.00
1 6 2 0 955.8537 926.4728 -0.0 1.379 0.00
1 3 1 2 2692.2202 2730.8093 180.0 1.357 0.00
1 2 3 1 357.0610 417.6761 -90.0 1.352 0.00
1 4 3 0 19.6322 16.2509 -180.0 1.337 0.00
1 4 0 2 3043.8311 3180.4150 180.0 1.330 0.00
1 0 2 2 2129.9553 1569.8389 0.0 1.300 0.00
1 3 3 1 1788.3739 1369.4919 90.0 1.296 0.00
1 1 2 2 196.7977 138.1279 180.0 1.289 0.00
1 4 1 2 921.8209 645.8656 -0.0 1.280 0.00
1 8 0 0 1435.8974 1001.5139 -0.0 1.276 0.00
1 7 1 1 185.4840 147.9245 -90.0 1.272 0.00
1 6 2 1 1294.9209 1111.8381 -90.0 1.261 0.00
1 2 2 2 108.3092 84.3644 -180.0 1.260 0.00
1 5 3 0 436.4549 135.5466 180.0 1.244 0.00
1 7 2 0 482.1597 163.4300 -0.0 1.240 0.00
1 8 1 0 10.6490 9.2983 0.0 1.232 0.00
1 4 3 1 1089.3299 1015.4645 -90.0 1.229 0.00
1 3 2 2 100.9594 115.6081 -180.0 1.214 0.00
1 5 1 2 541.3517 580.4162 180.0 1.198 0.00
1 8 0 1 1278.8467 1288.2467 90.0 1.181 0.00
1 0 4 0 2561.8100 2686.8038 -0.0 1.177 0.00
1 1 4 0 1266.8479 1688.1086 180.0 1.169 0.00
1 4 2 2 2292.2580 3084.5840 180.0 1.158 0.00
1 5 3 1 1215.6602 1395.3225 -90.0 1.156 0.00
1 6 3 0 810.9846 793.2543 -0.0 1.154 0.00
1 7 2 1 288.3860 275.5522 90.0 1.152 0.00
1 6 0 2 673.2199 800.1519 -0.0 1.149 0.00
1 2 4 0 28.2501 38.7035 -180.0 1.147 0.00
1 8 1 1 60.7332 83.2326 90.0 1.146 0.00
1 8 2 0 2834.6433 2871.8751 -0.0 1.122 0.00
1 6 1 2 110.6781 85.2804 -0.0 1.117 0.00
1 3 4 0 530.6926 504.0392 -180.0 1.112 0.00
1 9 1 0 0.3841 0.3635 -0.0 1.103 0.00
1 1 3 2 833.2902 689.0907 -0.0 1.100 0.00
1 5 2 2 446.7691 494.1799 -0.0 1.096 0.00
1 1 4 1 256.2325 261.3624 90.0 1.095 0.00
1 6 3 1 301.6069 311.2691 90.0 1.082 0.00
1 2 3 2 838.2019 899.4676 180.0 1.081 0.00
1 2 4 1 920.0351 1035.2452 90.0 1.076 0.00
1 4 4 0 813.7910 995.8418 180.0 1.069 0.00
1 7 3 0 1484.0296 1861.5701 -0.0 1.068 0.00
1 8 2 1 854.1795 871.9557 90.0 1.056 0.00
1 3 3 2 2220.1048 2024.5181 180.0 1.052 0.00
1 3 4 1 1237.6412 892.3689 -90.0 1.048 0.00
1 9 1 1 2655.4993 2279.0192 90.0 1.040 0.00
1 7 1 2 2787.2926 2407.5032 -0.0 1.039 0.00
1 6 2 2 571.4627 507.9826 -0.0 1.033 0.00
1 9 2 0 559.1734 478.0766 180.0 1.022 0.00
1 10 0 0 1720.8760 1397.7431 -180.0 1.021 0.00
1 5 4 0 1074.1093 773.9560 0.0 1.020 0.00
1 2 0 3 2579.9816 1535.3155 90.0 1.018 0.00
1 0 1 3 135.8768 76.7607 90.0 1.015 0.00
1 4 3 2 5.0037 2.8273 180.0 1.015 0.00
1 4 4 1 310.6357 155.5280 -90.0 1.011 0.00
1 7 3 1 136.5962 71.8406 -90.0 1.011 0.00
1 1 1 3 2502.8493 1482.4938 90.0 1.010 0.00
1 10 1 0 49.8457 37.6405 -180.0 0.998 0.00
1 2 1 3 152.0691 112.7916 90.0 0.995 0.00
1 8 3 0 608.3530 545.3975 180.0 0.990 0.00
1 8 0 2 672.2569 630.4816 -0.0 0.987 0.00
1 3 1 3 535.7511 452.5690 90.0 0.972 0.00
1 5 3 2 101.3321 85.6147 180.0 0.972 0.00
1 9 2 1 10.2824 8.6129 -90.0 0.971 0.00
1 7 2 2 100.9034 83.3390 -0.0 0.970 0.00
1 10 0 1 1326.3586 1095.1823 90.0 0.970 0.00
1 5 4 1 335.7224 290.8958 -90.0 0.969 0.00
1 6 4 0 221.9161 197.1013 0.0 0.968 0.00
1 8 1 2 2.7374 2.6454 -0.0 0.966 0.00
1 4 0 3 215.1184 202.0370 -90.0 0.962 0.00
1 10 1 1 407.3612 380.7921 -90.0 0.950 0.00
1 1 2 3 259.1497 241.2396 90.0 0.947 0.00
1 8 3 1 483.3998 435.6048 90.0 0.944 0.00
1 4 1 3 75.4708 68.8614 -90.0 0.943 0.00
1 0 4 2 1668.2755 1509.9462 -0.0 0.939 0.00
1 1 5 0 467.4769 408.5155 -0.0 0.938 0.00
1 10 2 0 1043.0989 890.9544 180.0 0.937 0.00
1 1 4 2 1125.3471 948.5879 -180.0 0.935 0.00
1 2 2 3 2762.0027 2292.6259 90.0 0.935 0.00
1 6 3 2 548.5296 459.2855 -0.0 0.927 0.00
1 2 5 0 1450.3554 1231.5695 180.0 0.926 0.00
1 6 4 1 1570.1624 1182.6729 -90.0 0.924 0.00
1 2 4 2 32.4353 22.2073 -180.0 0.924 0.00
1 9 3 0 36.2086 26.2593 -0.0 0.919 0.00
1 7 4 0 1.8851 1.7843 180.0 0.916 0.00
1 3 2 3 265.7454 248.1407 -90.0 0.916 0.00
1 8 2 2 1457.2226 1645.9124 -0.0 0.911 0.00
1 11 1 0 1743.4036 1967.5466 180.0 0.911 0.00
1 5 1 3 1712.7347 1691.2990 -90.0 0.909 0.00
1 3 5 0 166.8310 166.9081 -180.0 0.908 0.00
1 3 4 2 291.5660 296.0365 180.0 0.905 0.00
1 0 5 1 1141.7148 1313.1924 90.0 0.901 0.00
1 9 1 2 0.2161 0.2718 -0.0 0.900 0.00
1 1 5 1 398.3965 414.3903 90.0 0.898 0.00
1 10 2 1 646.1422 668.4846 90.0 0.897 0.00
1 4 2 3 162.3507 158.2476 -90.0 0.891 0.00
1 2 5 1 4.4265 4.3681 -90.0 0.888 0.00
1 6 0 3 2342.4593 2325.9891 -90.0 0.887 0.00
1 4 5 0 208.7687 218.3753 -0.0 0.883 0.00
1 9 3 1 1435.5518 1492.1919 90.0 0.882 0.00
1 4 4 2 583.6805 602.8815 180.0 0.882 0.00
1 7 3 2 1098.8860 1118.0117 -0.0 0.881 0.00
1 7 4 1 1167.1010 1169.9025 90.0 0.879 0.00
1 11 1 1 15.0607 13.7462 -90.0 0.874 0.00
1 6 1 3 0.5980 0.4749 -90.0 0.872 0.00
1 3 5 1 24.3461 18.7875 90.0 0.871 0.00
1 0 3 3 957.7618 479.7926 90.0 0.866 0.00
1 8 4 0 543.5080 306.6333 -0.0 0.865 0.00
1 11 2 0 7.9552 5.9113 -0.0 0.863 0.00
1 1 3 3 671.2088 501.2124 90.0 0.863 0.00
1 5 2 3 7.4323 6.8460 -90.0 0.862 0.00
1 10 3 0 216.5155 184.9879 -180.0 0.856 0.00
1 5 5 0 174.3123 147.9224 180.0 0.855 0.00
1 9 2 2 348.0960 288.7977 180.0 0.855 0.00
1 2 3 3 139.2305 114.1505 -90.0 0.854 0.00
1 10 0 2 1061.5137 858.5591 -180.0 0.854 0.00
1 5 4 2 619.5238 475.3144 -0.0 0.853 0.00
1 12 0 0 960.1701 844.6764 180.0 0.851 0.00
1 4 5 1 1069.0813 987.0239 -90.0 0.850 0.00
1 10 1 2 17.9766 22.8483 -180.0 0.840 0.00
1 3 3 3 387.4041 443.7555 90.0 0.840 0.00
1 12 1 0 0.3090 0.3805 -180.0 0.837 0.00
1 8 3 2 315.2817 331.1775 180.0 0.836 0.00
1 8 4 1 312.6961 298.3237 90.0 0.834 0.00
1 7 1 3 53.7034 52.1286 -90.0 0.833 0.00
1 11 2 1 231.6338 219.2464 -90.0 0.832 0.00
1 6 2 3 488.7607 436.9540 -90.0 0.830 0.00
1 10 3 1 55.6332 52.2206 -90.0 0.825 0.00
1 5 5 1 628.3480 597.5965 -90.0 0.825 0.00
1 6 5 0 776.2844 736.7870 -0.0 0.824 0.00
1 6 4 2 135.9070 122.2635 0.0 0.822 0.00
1 12 0 1 1099.2375 932.3560 -90.0 0.821 0.00
1 4 3 3 433.3552 364.1817 -90.0 0.820 0.00
1 9 4 0 636.6833 549.7940 180.0 0.817 0.00
1 12 1 1 40.3393 21.8197 -90.0 0.809 0.00
1 8 0 3 489.8370 462.9315 90.0 0.806 0.00
1 1 5 2 282.6718 258.5626 -0.0 0.803 0.00
1 10 2 2 633.7106 555.2185 180.0 0.803 0.00
1 12 2 0 126.6695 117.0132 180.0 0.800 0.00
1 11 3 0 573.7084 560.2830 180.0 0.799 0.00
1 5 3 3 520.3510 523.9425 -90.0 0.798 0.00
1 6 5 1 198.7003 198.0857 90.0 0.797 0.00
1 7 2 3 106.5857 105.9749 90.0 0.796 0.00
1 2 5 2 785.4413 775.9537 -180.0 0.796 0.00
1 8 1 3 29.2481 29.2100 90.0 0.794 0.00
1 9 3 2 17.2184 16.6345 -0.0 0.792 0.00
1 7 5 0 367.7638 335.3111 -0.0 0.791 0.00
1 9 4 1 28.0601 24.9707 90.0 0.790 0.00
1 7 4 2 1.3833 1.2042 180.0 0.790 0.00
1 11 1 2 1314.4287 1254.8773 180.0 0.786 0.00
1 0 6 0 140.1376 133.6745 -0.0 0.785 0.00
1 3 5 2 110.8230 106.5234 -180.0 0.784 0.00
1 1 6 0 398.1354 372.2176 180.0 0.782 0.00
1 0 0 4 2350.5329 1999.9014 -0.0 0.779 0.00
1 1 4 3 114.9926 103.1431 90.0 0.777 0.00
1 2 6 0 5.3051 4.5776 -180.0 0.776 0.00
1 12 2 1 834.3539 714.5825 -90.0 0.775 0.00
1 13 1 0 114.8103 97.1073 0.0 0.775 0.00
1 11 3 1 55.4023 42.7553 -90.0 0.774 0.00
1 6 3 3 173.2532 117.7179 90.0 0.772 0.00
1 10 4 0 434.3306 312.8341 -180.0 0.771 0.00
1 2 0 4 44.7841 33.7968 180.0 0.770 0.00
1 2 4 3 526.1301 404.6942 90.0 0.770 0.00
1 4 5 2 197.5784 139.8933 -0.0 0.769 0.00
1 1 1 4 655.6519 457.4715 -0.0 0.767 0.00
1 7 5 1 37.1736 25.9746 -90.0 0.767 0.00
1 3 6 0 255.3592 178.9143 -180.0 0.765 0.00
1 8 2 3 389.8354 345.7028 90.0 0.762 0.00
1 2 1 4 40.3536 43.2331 180.0 0.760 0.00
1 3 4 3 351.0216 353.3748 -90.0 0.759 0.00
1 1 6 1 652.3675 618.9947 90.0 0.759 0.00
1 8 5 0 203.0720 173.5854 180.0 0.758 0.00
1 8 4 2 231.6865 199.2563 -0.0 0.756 0.00
1 9 1 3 1032.8019 898.9283 90.0 0.756 0.00
1 11 2 2 4.1459 3.7332 0.0 0.755 0.00
1 2 6 1 142.2420 148.8040 90.0 0.753 0.00
1 13 1 1 710.5352 823.1640 -90.0 0.752 0.00
1 10 3 2 113.2374 120.9739 180.0 0.750 0.00
1 4 6 0 150.4067 159.6883 180.0 0.750 0.00
1 3 1 4 578.0035 613.6726 180.0 0.750 0.00
1 5 5 2 92.4236 96.5006 180.0 0.750 0.00
1 10 4 1 188.6578 189.7482 90.0 0.749 0.00
1 12 3 0 316.9538 334.6335 -0.0 0.748 0.00
1 12 0 2 533.7192 554.3483 180.0 0.747 0.00
1 4 0 4 752.0861 729.9923 180.0 0.745 0.00
1 4 4 3 65.5295 65.2012 -90.0 0.745 0.00
1 13 2 0 96.0946 97.5496 -0.0 0.745 0.00
1 7 3 3 27.8144 28.3385 -90.0 0.745 0.00
1 3 6 1 586.8681 593.9747 -90.0 0.743 0.00
1 0 2 4 445.3317 398.5202 0.0 0.740 0.00
1 1 2 4 39.2078 35.6832 180.0 0.738 0.00
1 12 1 2 0.3979 0.3665 -180.0 0.738 0.00
1 4 1 4 147.6692 123.2894 -0.0 0.736 0.00
1 8 5 1 425.3141 354.8607 90.0 0.736 0.00
1 5 6 0 1202.9770 966.7866 -0.0 0.732 0.00
1 2 2 4 26.5732 21.4702 -180.0 0.732 0.00
1 4 6 1 14.1625 9.5054 -90.0 0.729 0.00
1 14 0 0 1085.9387 731.6219 -0.0 0.729 0.00
1 11 4 0 5.8459 4.2246 -0.0 0.729 0.00
1 9 2 3 5.2535 3.8912 -90.0 0.729 0.00
1 6 5 2 650.7642 492.3930 -0.0 0.728 0.00
1 10 0 3 600.1205 454.6497 90.0 0.728 0.00
1 5 4 3 158.7887 118.8045 -90.0 0.728 0.00
1 12 3 1 117.0112 85.0854 -90.0 0.727 0.00
1 13 2 1 0.6250 0.3389 90.0 0.725 0.00
1 9 5 0 30.4975 16.3839 -180.0 0.725 0.00
1 9 4 2 763.5434 365.9455 180.0 0.723 0.00
1 3 2 4 50.0187 27.3141 -180.0 0.723 0.00
1 14 1 0 1.6088 1.2188 0.0 0.721 0.00
1 10 1 3 194.5277 160.0968 -90.0 0.720 0.00
1 5 1 4 167.3106 137.2369 180.0 0.720 0.00
1 8 3 3 245.9726 187.2490 90.0 0.717 0.00
1 5 6 1 56.3269 50.7809 -90.0 0.713 0.00
1 6 6 0 46.8181 42.9761 0.0 0.713 0.00
1 12 2 2 81.3658 77.2893 180.0 0.712 0.00
1 11 3 2 363.5025 371.3365 180.0 0.711 0.00
1 4 2 4 735.2932 752.5391 180.0 0.711 0.00
1 14 0 1 15.1038 14.9932 -90.0 0.710 0.00
1 11 4 1 345.3130 341.7718 -90.0 0.710 0.00
1 6 0 4 198.0147 197.2984 -0.0 0.709 0.00
1 6 4 3 509.3803 503.9888 -90.0 0.708 0.00
1 9 5 1 136.3460 142.8491 90.0 0.706 0.00
1 7 5 2 214.4566 223.8692 -0.0 0.705 0.00
1 13 3 0 35.6701 38.5822 0.0 0.702 0.00
1 14 1 1 11.3757 12.4121 90.0 0.702 0.00
1 0 6 2 88.5340 90.9721 -0.0 0.701 0.00
1 6 1 4 24.0789 24.3643 0.0 0.701 0.00
1 1 6 2 277.6255 250.6109 180.0 0.699 0.00
1 0 5 3 714.6515 578.2251 90.0 0.698 0.00
1 14 2 0 631.8150 546.3327 -0.0 0.697 0.00
1 1 3 4 200.2333 176.4939 -0.0 0.696 0.00
1 1 5 3 195.0861 178.6150 90.0 0.696 0.00
1 10 2 3 314.2389 288.8164 90.0 0.696 0.00
1 5 2 4 139.9575 127.5071 -0.0 0.696 0.00
1 6 6 1 84.0436 56.2120 -90.0 0.695 0.00
1 2 6 2 5.4927 3.2986 -180.0 0.694 0.00
1 13 1 2 121.6804 66.0681 0.0 0.694 0.00
1 10 5 0 512.1365 299.5142 180.0 0.692 0.00
1 2 3 4 363.3940 239.5184 180.0 0.692 0.00
1 2 5 3 2.7939 1.9484 -90.0 0.691 0.00
1 10 4 2 303.2998 215.7243 180.0 0.691 0.00
1 7 6 0 129.6193 95.3229 -0.0 0.691 0.00
1 12 4 0 286.2981 226.7861 180.0 0.689 0.00
1 9 3 3 722.6899 661.2184 90.0 0.689 0.00
1 7 4 3 525.2731 520.8310 90.0 0.687 0.00
1 3 6 2 121.5679 119.9862 180.0 0.686 0.00
1 13 3 1 518.1578 565.9461 -90.0 0.685 0.00
1 11 1 3 5.4366 6.0176 -90.0 0.685 0.00
1 3 3 4 586.3653 541.7758 180.0 0.684 0.00
1 3 5 3 8.9643 7.4806 90.0 0.684 0.00
1 8 5 2 133.1973 118.1343 180.0 0.681 0.00
1 7 1 4 701.0558 648.9843 -0.0 0.680 0.00
1 14 2 1 283.9233 257.1769 -90.0 0.680 0.00
1 6 2 4 147.5217 139.1512 -0.0 0.679 0.00
1 4 6 2 111.8910 110.3462 180.0 0.676 0.00
1 10 5 1 381.7916 372.3047 -90.0 0.676 0.00
1 7 6 1 375.9181 362.6237 90.0 0.675 0.00
1 12 3 2 241.3226 233.0942 -0.0 0.674 0.00
1 15 1 0 559.5687 513.3605 -0.0 0.674 0.00
1 4 3 4 0.9273 0.8136 180.0 0.673 0.00
1 12 4 1 226.6752 194.4517 -90.0 0.673 0.00
1 4 5 3 535.4610 445.2168 -90.0 0.673 0.00
1 13 2 2 90.2676 66.9678 -0.0 0.672 0.00
1 1 7 0 0.1461 0.1118 -180.0 0.671 0.00
1 8 6 0 88.1980 63.3409 -0.0 0.668 0.00
1 2 7 0 1054.6034 623.8166 180.0 0.667 0.00
1 8 0 4 320.9788 174.1110 -0.0 0.665 0.00
1 8 4 3 257.3579 135.0502 90.0 0.665 0.00
1 11 2 3 189.5487 101.0923 -90.0 0.664 0.00
1 5 6 2 960.0491 679.2964 -0.0 0.663 0.00
1 14 3 0 50.7287 43.2477 -0.0 0.661 0.00
1 11 5 0 369.4984 331.9175 180.0 0.661 0.00
1 10 3 3 23.7759 22.3836 -90.0 0.661 0.00
1 5 3 4 25.6142 24.2527 180.0 0.661 0.00
1 14 0 2 534.6154 506.7520 -0.0 0.661 0.00
1 5 5 3 297.3467 284.3052 -90.0 0.660 0.00
1 11 4 2 3.1635 3.0336 -0.0 0.660 0.00
1 7 2 4 25.9610 25.2923 0.0 0.660 0.00
1 3 7 0 61.3682 59.8593 -180.0 0.660 0.00
1 8 1 4 0.8747 0.8417 0.0 0.659 0.00
1 15 1 1 127.9581 125.4952 90.0 0.658 0.00
1 12 0 3 432.5629 429.3600 -90.0 0.658 0.00
1 0 7 1 598.6696 609.8716 90.0 0.657 0.00
1 9 5 2 12.3716 12.2019 -180.0 0.657 0.00
1 1 7 1 9.6652 8.9811 90.0 0.656 0.00
1 14 1 2 0.8493 0.6905 0.0 0.654 0.00
1 15 2 0 61.5889 48.3815 -180.0 0.654 0.00
1 8 6 1 26.4765 20.2572 90.0 0.654 0.00
1 13 4 0 515.7581 393.0042 -0.0 0.653 0.00
1 2 7 1 21.0594 16.1446 -90.0 0.652 0.00
1 12 1 3 15.1789 11.5194 -90.0 0.652 0.00
1 4 7 0 76.4008 66.6763 -0.0 0.650 0.00
1 0 4 4 505.5883 449.1113 0.0 0.650 0.00
1 1 4 4 317.9928 285.5588 -180.0 0.649 0.00
1 6 6 2 37.4362 30.7305 0.0 0.648 0.00
1 14 3 1 349.0934 210.0225 90.0 0.647 0.00
1 11 5 1 4.8038 2.6271 90.0 0.647 0.00
1 6 3 4 247.1918 131.9666 -0.0 0.646 0.00
1 6 5 3 177.2701 94.3126 90.0 0.646 0.00
1 3 7 1 89.9200 47.6979 90.0 0.646 0.00
1 9 6 0 1025.8725 542.1667 -180.0 0.645 0.00
1 2 4 4 10.5917 5.7015 -180.0 0.645 0.00
1 9 4 3 23.8148 13.5641 90.0 0.642 0.00
1 13 3 2 46.3565 27.2948 0.0 0.640 0.00
1 8 2 4 834.8227 512.1163 -0.0 0.640 0.00
1 15 2 1 129.4952 81.5444 90.0 0.640 0.00
1 13 4 1 103.6035 68.7884 90.0 0.639 0.00
1 5 7 0 0.2136 0.1461 0.0 0.639 0.00
1 3 4 4 134.1778 93.8985 180.0 0.638 0.00
1 16 0 0 94.5977 69.0536 -0.0 0.638 0.00
1 4 7 1 532.7971 441.9974 -90.0 0.637 0.00
1 9 1 4 0.0824 0.0678 -0.0 0.636 0.00
1 14 2 2 519.4732 388.9009 -0.0 0.636 0.00
1 12 2 3 588.4697 348.3021 -90.0 0.634 0.00
1 11 3 3 29.5949 21.4000 -90.0 0.633 0.00
1 10 5 2 288.8249 214.2316 180.0 0.633 0.00
1 16 1 0 142.1216 96.5704 180.0 0.632 0.00
1 9 6 1 5.0224 3.3052 -90.0 0.632 0.00
1 7 6 2 103.8099 69.7083 -0.0 0.632 0.00
1 12 5 0 336.6500 244.6423 -0.0 0.631 0.00
1 12 4 2 210.1933 163.7157 180.0 0.631 0.00
1 4 4 4 267.5511 187.8180 180.0 0.630 0.00
1 7 3 4 507.0645 354.9353 -0.0 0.630 0.00
1 7 5 3 19.2019 13.4401 -90.0 0.629 0.00
1 5 7 1 1.2668 0.6929 -90.0 0.626 0.00
1 6 7 0 737.9979 409.5212 -0.0 0.625 0.00
1 16 0 1 979.5638 547.2644 90.0 0.625 0.00
1 1 6 3 558.5277 311.8268 90.0 0.625 0.00
1 15 3 0 599.9500 308.7725 0.0 0.624 0.00
1 10 6 0 82.8544 41.6747 -180.0 0.622 0.00
1 2 6 3 150.9463 72.8989 90.0 0.622 0.00
1 13 1 3 1003.2728 403.4358 -90.0 0.621 0.00
1 14 4 0 666.4924 247.2997 0.0 0.620 0.00
1 9 2 4 245.0260 94.2609 180.0 0.620 0.00
1 16 1 1 6.6497 2.6010 90.0 0.620 0.00
1 10 0 4 700.1205 285.9146 180.0 0.619 0.00
1 10 4 3 219.0625 93.2986 90.0 0.619 0.00
1 5 4 4 346.9745 149.0672 -0.0 0.619 0.00
1 2 0 5 670.8150 297.7707 90.0 0.619 0.00
1 12 5 1 174.2780 81.7353 -90.0 0.619 0.00
1 15 1 2 731.0463 368.8549 -0.0 0.618 0.00
1 0 1 5 34.7757 17.3844 90.0 0.618 0.00
1 1 1 5 1107.4300 295.9104 90.0 0.617 0.00
1 1 7 2 0.7099 0.1526 -180.0 0.616 0.00
1 3 6 3 1245.2375 292.4655 -90.0 0.616 0.00
1 16 2 0 40.9770 9.8022 -0.0 0.616 0.00
1 8 6 2 86.3367 45.4706 -0.0 0.614 0.00
1 10 1 4 12.8592 7.1401 -180.0 0.614 0.00
1 2 1 5 38.9408 24.9522 90.0 0.614 0.00
1 6 7 1 132.2876 86.3962 90.0 0.613 0.00
1 2 7 2 704.8140 450.7590 -180.0 0.613 0.00
1 8 3 4 203.7390 112.4363 180.0 0.612 0.00
1 15 3 1 79.1504 44.0298 90.0 0.612 0.00
1 8 5 3 313.4002 174.4666 90.0 0.612 0.00
1 7 7 0 26.4541 19.1287 0.0 0.611 0.00
1 10 6 1 57.7653 49.2296 90.0 0.610 0.00
1 14 3 2 34.8090 31.9926 -0.0 0.609 0.00
1 11 5 2 267.9308 244.0472 180.0 0.609 0.00
1 4 6 3 4.7614 4.3775 -90.0 0.608 0.00
1 3 1 5 100.7242 92.6042 90.0 0.608 0.00
1 14 4 1 7.1032 6.5706 -90.0 0.608 0.00
1 3 7 2 48.6602 44.2851 -180.0 0.608 0.00
1 6 4 4 45.3122 39.7011 0.0 0.607 0.00
1 12 3 3 47.7265 41.7662 -90.0 0.607 0.00
1 4 0 5 46.2586 45.3753 -90.0 0.606 0.00
1 13 2 3 0.0968 0.0980 90.0 0.605 0.00
1 16 2 1 287.6137 325.4736 90.0 0.604 0.00
