#------------------------------------------------------------------------------
#$Date: 2021-02-23 11:51:09 +0200 (Tue, 23 Feb 2021) $
#$Revision: 262156 $
#$URL: file:///home/coder/svn-repositories/cod/cif/1/56/05/1560575.cif $
#------------------------------------------------------------------------------
#
# This file is available in the Crystallography Open Database (COD),
# http://www.crystallography.net/
#
# All data on this site have been placed in the public domain by the
# contributors.
#
data_1560575
loop_
_publ_author_name
'Ludwig, Jennifer'
'Nordlund, Dennis'
'Doeff, Marca M.'
'Nilges, Tom'
_publ_section_title
;
 Synthesis and characterization of metastable, 20 nm-sized Pna 2 1 -LiCoPO
 4 nanospheres
;
_journal_name_full               'Journal of Solid State Chemistry'
_journal_page_first              9
_journal_page_last               17
_journal_paper_doi               10.1016/j.jssc.2017.01.015
_journal_volume                  248
_journal_year                    2017
_chemical_absolute_configuration .
_chemical_formula_analytical     'Co1 Li1 O4 P1'
_chemical_formula_structural     'Co1 Li1 O4 P1'
_chemical_formula_sum            'Co Li O4 P'
_chemical_formula_weight         160.8
_chemical_name_common            'lithium cobalt phosphate'
_space_group_IT_number           62
_space_group_name_Hall           '-P 2ac 2n'
_space_group_name_H-M_alt        'P n m a'
_symmetry_cell_setting           orthorhombic
_symmetry_Int_Tables_number      62
_symmetry_space_group_name_Hall  '-P 2ac 2n'
_symmetry_space_group_name_H-M   'P n m a'
_cell_angle_alpha                90
_cell_angle_beta                 90
_cell_angle_gamma                90
_cell_formula_units_Z            4
_cell_length_a                   10.2114(3)
_cell_length_b                   5.92985(16)
_cell_length_c                   4.70439(13)
_cell_measurement_temperature    298
_cell_volume                     284.861(14)
_diffrn_ambient_temperature      298
_diffrn_detector                 'linear PSD'
_diffrn_detector_type            'Dectris MYTHEN DCS 1K'
_diffrn_measurement_device       'X-ray powder diffractometer'
_diffrn_measurement_device_type  'Stoe STADI P'
_diffrn_radiation_monochromator  Ge(111)
_diffrn_radiation_probe          x-ray
_diffrn_radiation_type           'Mo K\a1'
_diffrn_radiation_wavelength     0.70930
_exptl_absorpt_coefficient_mu    6.36
_exptl_absorpt_correction_type   cylinder
_exptl_absorpt_process_details
'Cromer, D. T.; Liberman, D. A., Acta Crystallogr., Sect. A 1981, A37, (2), 267-268.'
_exptl_crystal_density_diffrn    3.7504
_exptl_crystal_F_000             308
_pd_char_colour                  'dark violet'
_pd_char_particle_morphology     'fine powder'
_pd_instr_location
;Technical University of Munich
Department of Chemistry 
Lichtenbergstr. 4 
85747 Garching 
Germany 
;
_pd_meas_2theta_range_inc        0.015
_pd_meas_2theta_range_max        60.039
_pd_meas_2theta_range_min        2.994
_pd_meas_number_of_points        3804
_pd_meas_scan_method             step
_pd_proc_2theta_range_inc        0.015
_pd_proc_2theta_range_max        60.039
_pd_proc_2theta_range_min        2.994
_pd_proc_ls_background_function  '35 Chebyshev polynoms'
_pd_proc_ls_pref_orient_corr     none
_pd_proc_ls_profile_function     Pseudo-Voigt
_pd_proc_ls_prof_R_factor        0.0319
_pd_proc_ls_prof_wR_expected     0.0221
_pd_proc_ls_prof_wR_factor       0.0434
_pd_spec_mounting                'sealed 0.5 mm capillary'
_pd_spec_mount_mode              transmission
_pd_spec_shape                   cylinder
_refine_ls_goodness_of_fit_all   1.96
_refine_ls_number_constraints    0
_refine_ls_number_parameters     62
_refine_ls_number_restraints     0
_refine_ls_R_factor_all          0.0257
_refine_ls_R_factor_gt           0.0257
_refine_ls_shift/su_max          0.0488
_refine_ls_shift/su_mean         0.0059
_refine_ls_weighting_scheme      sigma
_refine_ls_wR_factor_all         0.0298
_refine_ls_wR_factor_gt          0.0298
_cod_data_source_file            JSSC-2017-248-9.cif
_cod_data_source_block           after_TGA_of_nano-sized_Pna21-LiCoPO4_argon
_cod_depositor_comments
;
The following automatic conversions were performed:

data item '_diffrn_radiation_probe' value 'X-ray' was changed to
'x-ray' in accordance with the built-in table derived from the CIF
Core dictionary named 'cif_core.dic' version 2.4.5 last updated on
2014-11-21.

Automatic conversion script
Id: cif_fix_values 8369 2020-08-20 11:38:08Z andrius 
;
_cod_original_cell_volume        284.861(13)
_cod_original_sg_symbol_Hall     '-P -2xabc;-2yb;-2zac'
_cod_original_formula_sum        'Co1 Li1 O4 P1'
_cod_database_code               1560575
loop_
_space_group_symop_id
_space_group_symop_operation_xyz
1 x,y,z
2 -x+1/2,-y,z+1/2
3 -x,y+1/2,-z
4 x+1/2,-y+1/2,-z+1/2
5 -x,-y,-z
6 x+1/2,y,-z+1/2
7 x,-y+1/2,z
8 -x+1/2,y+1/2,z+1/2
loop_
_atom_site_label
_atom_site_type_symbol
_atom_site_fract_x
_atom_site_fract_y
_atom_site_fract_z
_atom_site_adp_type
_atom_site_U_iso_or_equiv
_atom_site_site_symmetry_multiplicity
_atom_site_occupancy
_atom_site_calc_flag
_atom_site_refinement_flags
_atom_site_disorder_assembly
_atom_site_disorder_group
Li1 Li 0 0 0 Uiso 0.0139 4 1 d . . .
Co1 Co 0.22111(15) 0.25 0.5210(4) Uiso 0.0077(5) 4 1 d . . .
P1 P 0.4050(3) 0.25 0.0815(7) Uiso 0.0047(9) 4 1 d . . .
O1 O 0.4041(8) 0.25 0.7654(15) Uiso 0.005(2) 4 1 d . . .
O2 O 0.0451(8) 0.25 0.2934(14) Uiso 0.006(2) 4 1 d . . .
O3 O 0.3355(6) 0.0484(9) 0.2166(10) Uiso 0.004(2) 8 1 d . . .
loop_
_atom_type_symbol
_atom_type_scat_dispersion_real
_atom_type_scat_dispersion_imag
_atom_type_scat_source
Co 0.3505 0.9773 'International Tables Vol C tables 4.2.6.8 and 6.1.1.1'
Li 0.0000 0.0001 'International Tables Vol C tables 4.2.6.8 and 6.1.1.1'
O 0.0113 0.0062 'International Tables Vol C tables 4.2.6.8 and 6.1.1.1'
P 0.1037 0.0957 'International Tables Vol C tables 4.2.6.8 and 6.1.1.1'
loop_
_geom_angle_atom_site_label_1
_geom_angle_atom_site_label_2
_geom_angle_atom_site_label_3
_geom_angle_site_symmetry_1
_geom_angle_site_symmetry_2
_geom_angle_site_symmetry_3
_geom_angle
O1 Li1 O1 2_554 . 4_455 180.0(5)
O1 Li1 O2 2_554 . . 90.3(2)
O1 Li1 O2 2_554 . 3_545 89.7(2)
O1 Li1 O3 2_554 . 2_554 85.0(2)
O1 Li1 O3 2_554 . 6_455 95.0(2)
O1 Li1 O2 4_455 . . 89.7(2)
O1 Li1 O2 4_455 . 3_545 90.3(2)
O1 Li1 O3 4_455 . 2_554 95.0(2)
O1 Li1 O3 4_455 . 6_455 85.0(2)
O2 Li1 O2 . . 3_545 180.0(5)
O2 Li1 O3 . . 2_554 109.4(3)
O2 Li1 O3 . . 6_455 70.6(3)
O2 Li1 O3 3_545 . 2_554 70.6(3)
O2 Li1 O3 3_545 . 6_455 109.4(3)
O3 Li1 O3 2_554 . 6_455 180.0(5)
O1 Co1 O2 . . . 179.2(3)
O1 Co1 O3 . . . 83.6(2)
O1 Co1 O3 . . 2_555 90.27(19)
O1 Co1 O3 . . 7_555 83.6(2)
O1 Co1 O3 . . 8_555 90.27(19)
O2 Co1 O3 . . . 97.1(2)
O2 Co1 O3 . . 2_555 89.29(19)
O2 Co1 O3 . . 7_555 97.1(2)
O2 Co1 O3 . . 8_555 89.29(19)
O3 Co1 O3 . . 2_555 88.5(2)
O3 Co1 O3 . . 7_555 65.8(2)
O3 Co1 O3 . . 8_555 154.0(2)
O3 Co1 O3 2_555 . 7_555 154.0(2)
O3 Co1 O3 2_555 . 8_555 116.9(2)
O3 Co1 O3 7_555 . 8_555 88.5(2)
O1 P1 O2 1_554 . 4_555 112.7(5)
O1 P1 O3 1_554 . . 114.4(3)
O1 P1 O3 1_554 . 7_555 114.4(3)
O2 P1 O3 4_555 . . 105.7(3)
O2 P1 O3 4_555 . 7_555 105.7(3)
O3 P1 O3 . . 7_555 102.9(3)
loop_
_geom_bond_atom_site_label_1
_geom_bond_atom_site_label_2
_geom_bond_site_symmetry_1
_geom_bond_site_symmetry_2
_geom_bond_distance
Li1 O1 . 2_554 2.172(5)
Li1 O1 . 4_455 2.172(5)
Li1 O2 . . 2.077(5)
Li1 O2 . 3_545 2.077(5)
Li1 O3 . 2_554 2.164(5)
Li1 O3 . 6_455 2.164(5)
Co1 O1 . . 2.194(8)
Co1 O2 . . 2.092(8)
Co1 O3 . . 2.201(5)
Co1 O3 . 2_555 2.077(5)
Co1 O3 . 7_555 2.201(5)
Co1 O3 . 8_555 2.077(5)
P1 O1 . 1_554 1.487(8)
P1 O2 . 4_555 1.547(9)
P1 O3 . . 1.529(6)
P1 O3 . 7_555 1.529(6)
