#------------------------------------------------------------------------------
#$Date: 2021-02-11 10:47:03 +0200 (Thu, 11 Feb 2021) $
#$Revision: 261884 $
#$URL: file:///home/coder/svn-repositories/cod/cif/1/56/03/1560327.cif $
#------------------------------------------------------------------------------
#
# This file is available in the Crystallography Open Database (COD),
# http://www.crystallography.net/
#
# All data on this site have been placed in the public domain by the
# contributors.
#
data_1560327
loop_
_publ_author_name
'L\"u, Minfeng'
'Jo, Hongil'
'Oh, Seung-Jin'
'Ok, Kang Min'
_publ_section_title
;
 New quaternary alkali metal cadmium selenites, A 2 Cd(SeO 3 ) 2 (A = K,
 Rb, and Cs) and Li 2 Cd 3 (SeO 3 ) 4
;
_journal_name_full               'Journal of Solid State Chemistry'
_journal_page_first              213
_journal_page_last               218
_journal_paper_doi               10.1016/j.jssc.2017.09.014
_journal_volume                  256
_journal_year                    2017
_chemical_formula_moiety         'O6  K2  Se2  Cd1'
_chemical_formula_sum            'Cd K2 O6 Se2'
_chemical_formula_weight         444.52
_space_group_IT_number           166
_space_group_name_Hall           '-R 3 2"'
_space_group_name_H-M_alt        'R -3 m :H'
_symmetry_cell_setting           trigonal
_symmetry_Int_Tables_number      166
_symmetry_space_group_name_Hall  '-R 3 2"'
_symmetry_space_group_name_H-M   'R -3 m :H'
_atom_sites_solution_primary     direct
_atom_sites_solution_secondary   difmap
_cell_angle_alpha                90
_cell_angle_beta                 90
_cell_angle_gamma                120
_cell_formula_units_Z            3
_cell_length_a                   5.69750(10)
_cell_length_b                   5.69750(10)
_cell_length_c                   18.9486(3)
_cell_measurement_reflns_used    2191
_cell_measurement_temperature    298.0(2)
_cell_measurement_theta_max      25.242
_cell_measurement_theta_min      4.268
_cell_volume                     532.692(16)
_computing_structure_refinement  'SHELXL-97 (Sheldrick, 1997)'
_diffrn_ambient_temperature      298.0(2)
_diffrn_measured_fraction_theta_full 0.993
_diffrn_measured_fraction_theta_max 0.995
_diffrn_measurement_device_type  'Bruker SMART BREEZE'
_diffrn_measurement_method       CCD
_diffrn_radiation_probe          x-ray
_diffrn_radiation_type           MoK\a
_diffrn_radiation_wavelength     0.71073
_diffrn_reflns_av_R_equivalents  0.0316
_diffrn_reflns_Laue_measured_fraction_full 0.993
_diffrn_reflns_Laue_measured_fraction_max 0.995
_diffrn_reflns_limit_h_max       7
_diffrn_reflns_limit_h_min       -7
_diffrn_reflns_limit_k_max       7
_diffrn_reflns_limit_k_min       -7
_diffrn_reflns_limit_l_max       24
_diffrn_reflns_limit_l_min       -24
_diffrn_reflns_number            2191
_diffrn_reflns_point_group_measured_fraction_full 0.993
_diffrn_reflns_point_group_measured_fraction_max 0.995
_diffrn_reflns_theta_full        25.242
_diffrn_reflns_theta_max         28.279
_diffrn_reflns_theta_min         4.268
_exptl_absorpt_coefficient_mu    14.471
_exptl_absorpt_correction_T_max  0.67
_exptl_absorpt_correction_T_min  0.33
_exptl_absorpt_correction_type   empirical
_exptl_absorpt_process_details
; 
 SADABS(Blessing, 1995) 
;
_exptl_crystal_colour            Colorless
_exptl_crystal_density_diffrn    4.157
_exptl_crystal_density_method    'not measured'
_exptl_crystal_description       'Hexagonal Plate'
_exptl_crystal_F_000             606.0
_exptl_crystal_size_max          0.074
_exptl_crystal_size_mid          0.074
_exptl_crystal_size_min          0.030
_refine_diff_density_max         0.725
_refine_diff_density_min         -0.88
_refine_diff_density_rms         0.152
_refine_ls_extinction_coef       0.0010(3)
_refine_ls_extinction_expression Fc^*^=kFc[1+0.001xFc^2^\l^3^/sin(2\q)]^-1/4^
_refine_ls_extinction_method     SHELXL
_refine_ls_goodness_of_fit_ref   1.284
_refine_ls_hydrogen_treatment    undef
_refine_ls_matrix_type           full
_refine_ls_number_constraints    0
_refine_ls_number_parameters     16
_refine_ls_number_reflns         196
_refine_ls_number_restraints     0
_refine_ls_restrained_S_all      1.284
_refine_ls_R_factor_all          0.0205
_refine_ls_R_factor_gt           0.0196
_refine_ls_shift/su_max          0
_refine_ls_shift/su_mean         0
_refine_ls_structure_factor_coef Fsqd
_refine_ls_weighting_details
'w=1/[\s^2^(Fo^2^)+(0.0066P)^2^+8.7635P] where P=(Fo^2^+2Fc^2^)/3'
_refine_ls_weighting_scheme      calc
_refine_ls_wR_factor_gt          0.0469
_refine_ls_wR_factor_ref         0.0471
_reflns_number_gt                185
_reflns_number_total             196
_reflns_threshold_expression     'I > 2\s(I)'
_cod_data_source_file            JSSC-2017-256-213.cif
_cod_data_source_block           K2CdSe2O6
_cod_depositor_comments
;
The following automatic conversions were performed:

data item '_exptl_absorpt_correction_type' value 'EMPIRICAL' was
changed to 'empirical' in accordance with the built-in table derived
from the CIF Core dictionary named 'cif_core.dic' version 2.4.5 last
updated on 2014-11-21.

Automatic conversion script
Id: cif_fix_values 8369 2020-08-20 11:38:08Z andrius 
;
_cod_original_cell_volume        532.69(2)
_cod_original_sg_symbol_H-M      'R -3 m'
_cod_original_formula_sum        'Cd1 K2 O6 Se2'
_cod_database_code               1560327
loop_
_symmetry_equiv_pos_as_xyz
'x, y, z'
'-y, x-y, z'
'-x+y, -x, z'
'y, x, -z'
'x-y, -y, -z'
'-x, -x+y, -z'
'x+2/3, y+1/3, z+1/3'
'-y+2/3, x-y+1/3, z+1/3'
'-x+y+2/3, -x+1/3, z+1/3'
'y+2/3, x+1/3, -z+1/3'
'x-y+2/3, -y+1/3, -z+1/3'
'-x+2/3, -x+y+1/3, -z+1/3'
'x+1/3, y+2/3, z+2/3'
'-y+1/3, x-y+2/3, z+2/3'
'-x+y+1/3, -x+2/3, z+2/3'
'y+1/3, x+2/3, -z+2/3'
'x-y+1/3, -y+2/3, -z+2/3'
'-x+1/3, -x+y+2/3, -z+2/3'
'-x, -y, -z'
'y, -x+y, -z'
'x-y, x, -z'
'-y, -x, z'
'-x+y, y, z'
'x, x-y, z'
'-x+2/3, -y+1/3, -z+1/3'
'y+2/3, -x+y+1/3, -z+1/3'
'x-y+2/3, x+1/3, -z+1/3'
'-y+2/3, -x+1/3, z+1/3'
'-x+y+2/3, y+1/3, z+1/3'
'x+2/3, x-y+1/3, z+1/3'
'-x+1/3, -y+2/3, -z+2/3'
'y+1/3, -x+y+2/3, -z+2/3'
'x-y+1/3, x+2/3, -z+2/3'
'-y+1/3, -x+2/3, z+2/3'
'-x+y+1/3, y+2/3, z+2/3'
'x+1/3, x-y+2/3, z+2/3'
loop_
_atom_site_label
_atom_site_type_symbol
_atom_site_fract_x
_atom_site_fract_y
_atom_site_fract_z
_atom_site_U_iso_or_equiv
_atom_site_adp_type
_atom_site_occupancy
_atom_site_calc_flag
_atom_site_disorder_assembly
_atom_site_disorder_group
K1 K 0.6667 0.3333 0.13726(10) 0.0232(5) Uani 1 d . .
Cd1 Cd 0 0 0 0.0146(3) Uani 1 d . .
Se1 Se -0.3333 0.3333 -0.04270(4) 0.0121(3) Uani 1 d . .
O1 O -0.1781(4) 0.1781(4) -0.07994(18) 0.0211(8) Uani 1 d . .
loop_
_atom_site_aniso_label
_atom_site_aniso_U_11
_atom_site_aniso_U_22
_atom_site_aniso_U_33
_atom_site_aniso_U_23
_atom_site_aniso_U_13
_atom_site_aniso_U_12
K1 0.0271(7) 0.0271(7) 0.0155(9) 0 0 0.0135(3)
Cd1 0.0141(3) 0.0141(3) 0.0155(5) 0 0 0.00703(17)
Se1 0.0114(3) 0.0114(3) 0.0134(4) 0 0 0.00569(16)
O1 0.0269(16) 0.0269(16) 0.0201(18) -0.0010(7) 0.0010(7) 0.0214(17)
loop_
_atom_type_symbol
_atom_type_description
_atom_type_scat_dispersion_real
_atom_type_scat_dispersion_imag
_atom_type_scat_source
O O 0.0106 0.006 'International Tables Vol C Tables 4.2.6.8 and 6.1.1.4'
K K 0.2009 0.2494 'International Tables Vol C Tables 4.2.6.8 and 6.1.1.4'
Se Se -0.0929 2.2259 'International Tables Vol C Tables 4.2.6.8 and 6.1.1.4'
Cd Cd -0.8075 1.2024 'International Tables Vol C Tables 4.2.6.8 and 6.1.1.4'
loop_
_geom_angle_atom_site_label_1
_geom_angle_atom_site_label_2
_geom_angle_atom_site_label_3
_geom_angle
_geom_angle_site_symmetry_1
_geom_angle_site_symmetry_3
O1 K1 O1 65.43(13) 9 8
O1 K1 O1 65.43(13) 9 7
O1 K1 O1 65.43(13) 8 7
O1 K1 O1 107.53(7) 9 21_655
O1 K1 O1 76.23(12) 8 21_655
O1 K1 O1 140.47(5) 7 21_655
O1 K1 O1 76.23(12) 9 20_655
O1 K1 O1 107.53(7) 8 20_655
O1 K1 O1 140.47(5) 7 20_655
O1 K1 O1 59.85(14) 21_655 20_655
O1 K1 O1 140.47(5) 9 19
O1 K1 O1 76.23(12) 8 19
O1 K1 O1 107.53(7) 7 19
O1 K1 O1 51.56(14) 21_655 19
O1 K1 O1 108.05(7) 20_655 19
O1 K1 O1 76.23(12) 9 19_665
O1 K1 O1 140.47(5) 8 19_665
O1 K1 O1 107.53(7) 7 19_665
O1 K1 O1 108.05(7) 21_655 19_665
O1 K1 O1 51.56(14) 20_655 19_665
O1 K1 O1 138.05(14) 19 19_665
O1 K1 O1 140.47(5) 9 20
O1 K1 O1 107.53(7) 8 20
O1 K1 O1 76.23(12) 7 20
O1 K1 O1 108.05(7) 21_655 20
O1 K1 O1 138.05(14) 20_655 20
O1 K1 O1 59.85(14) 19 20
O1 K1 O1 108.05(7) 19_665 20
O1 K1 O1 107.53(7) 9 21_665
O1 K1 O1 140.47(5) 8 21_665
O1 K1 O1 76.23(12) 7 21_665
O1 K1 O1 138.05(14) 21_655 21_665
O1 K1 O1 108.05(7) 20_655 21_665
O1 K1 O1 108.05(7) 19 21_665
O1 K1 O1 59.85(14) 19_665 21_665
O1 K1 O1 51.55(14) 20 21_665
O1 K1 Se1 141.39(8) 9 1_655
O1 K1 Se1 141.39(8) 8 1_655
O1 K1 Se1 141.39(8) 7 1_655
O1 K1 Se1 69.14(7) 21_655 1_655
O1 K1 Se1 69.14(7) 20_655 1_655
O1 K1 Se1 69.14(7) 19 1_655
O1 K1 Se1 69.14(7) 19_665 1_655
O1 K1 Se1 69.14(7) 20 1_655
O1 K1 Se1 69.14(7) 21_665 1_655
O1 K1 K1 56.89(4) 9 25_655
O1 K1 K1 56.89(4) 8 25_655
O1 K1 K1 109.90(11) 7 25_655
O1 K1 K1 50.64(7) 21_655 25_655
O1 K1 K1 50.64(7) 20_655 25_655
O1 K1 K1 94.55(7) 19 25_655
O1 K1 K1 94.55(7) 19_665 25_655
O1 K1 K1 153.85(7) 20 25_655
O1 K1 K1 153.85(7) 21_665 25_655
Se1 K1 K1 108.71(6) 1_655 25_655
O1 K1 K1 56.89(4) 9 25_665
O1 K1 K1 109.90(11) 8 25_665
O1 K1 K1 56.89(4) 7 25_665
O1 K1 K1 153.85(7) 21_655 25_665
O1 K1 K1 94.54(7) 20_655 25_665
O1 K1 K1 153.85(7) 19 25_665
O1 K1 K1 50.64(7) 19_665 25_665
O1 K1 K1 94.54(7) 20 25_665
O1 K1 K1 50.64(7) 21_665 25_665
Se1 K1 K1 108.71(6) 1_655 25_665
K1 K1 K1 110.22(6) 25_655 25_665
O1 Cd1 O1 81.99(13) 19 20
O1 Cd1 O1 98.01(13) 19 2
O1 Cd1 O1 180.0(2) 20 2
O1 Cd1 O1 81.99(13) 19 21
O1 Cd1 O1 81.99(13) 20 21
O1 Cd1 O1 98.01(13) 2 21
O1 Cd1 O1 98.01(13) 19 3
O1 Cd1 O1 98.01(13) 20 3
O1 Cd1 O1 81.99(13) 2 3
O1 Cd1 O1 180.00(13) 21 3
O1 Cd1 O1 180.00(15) 19 .
O1 Cd1 O1 98.01(13) 20 .
O1 Cd1 O1 81.99(13) 2 .
O1 Cd1 O1 98.01(13) 21 .
O1 Cd1 O1 81.99(13) 3 .
O1 Cd1 K1 130.76(9) 19 13_444
O1 Cd1 K1 130.76(9) 20 13_444
O1 Cd1 K1 49.24(9) 2 13_444
O1 Cd1 K1 130.76(9) 21 13_444
O1 Cd1 K1 49.24(9) 3 13_444
O1 Cd1 K1 49.24(9) . 13_444
O1 Cd1 K1 49.24(9) 19 25
O1 Cd1 K1 49.24(9) 20 25
O1 Cd1 K1 130.76(9) 2 25
O1 Cd1 K1 49.24(9) 21 25
O1 Cd1 K1 130.76(9) 3 25
O1 Cd1 K1 130.76(9) . 25
K1 Cd1 K1 180 13_444 25
O1 Cd1 K1 45.41(3) 19 .
O1 Cd1 K1 45.41(3) 20 .
O1 Cd1 K1 134.59(3) 2 .
O1 Cd1 K1 100.91(9) 21 .
O1 Cd1 K1 79.09(9) 3 .
O1 Cd1 K1 134.59(3) . .
K1 Cd1 K1 128.33(2) 13_444 .
K1 Cd1 K1 51.67(2) 25 .
O1 Cd1 K1 134.59(3) 19 19
O1 Cd1 K1 134.59(3) 20 19
O1 Cd1 K1 45.41(3) 2 19
O1 Cd1 K1 79.09(9) 21 19
O1 Cd1 K1 100.91(9) 3 19
O1 Cd1 K1 45.41(3) . 19
K1 Cd1 K1 51.67(2) 13_444 19
K1 Cd1 K1 128.33(2) 25 19
K1 Cd1 K1 180 . 19
O1 Cd1 K1 134.59(3) 19 19_665
O1 Cd1 K1 79.09(9) 20 19_665
O1 Cd1 K1 100.91(9) 2 19_665
O1 Cd1 K1 134.59(3) 21 19_665
O1 Cd1 K1 45.41(3) 3 19_665
O1 Cd1 K1 45.41(3) . 19_665
K1 Cd1 K1 51.67(2) 13_444 19_665
K1 Cd1 K1 128.33(2) 25 19_665
K1 Cd1 K1 94.42(3) . 19_665
K1 Cd1 K1 85.58(3) 19 19_665
O1 Cd1 K1 45.41(3) 19 1_445
O1 Cd1 K1 100.91(9) 20 1_445
O1 Cd1 K1 79.09(9) 2 1_445
O1 Cd1 K1 45.41(3) 21 1_445
O1 Cd1 K1 134.59(3) 3 1_445
O1 Cd1 K1 134.59(3) . 1_445
K1 Cd1 K1 128.33(2) 13_444 1_445
K1 Cd1 K1 51.67(2) 25 1_445
K1 Cd1 K1 85.58(3) . 1_445
K1 Cd1 K1 94.42(3) 19 1_445
K1 Cd1 K1 180.00(4) 19_665 1_445
O1 Se1 O1 103.74(14) 3_455 2_565
O1 Se1 O1 103.73(14) 3_455 .
O1 Se1 O1 103.73(14) 2_565 .
O1 Se1 K1 114.73(12) 3_455 1_455
O1 Se1 K1 114.73(12) 2_565 1_455
O1 Se1 K1 114.73(12) . 1_455
O1 Se1 K1 53.21(4) 3_455 19_565
O1 Se1 K1 53.21(4) 2_565 19_565
O1 Se1 K1 126.69(13) . 19_565
K1 Se1 K1 118.58(3) 1_455 19_565
O1 Se1 K1 53.20(4) 3_455 19
O1 Se1 K1 126.69(13) 2_565 19
O1 Se1 K1 53.20(4) . 19
K1 Se1 K1 118.58(3) 1_455 19
K1 Se1 K1 99.02(4) 19_565 19
O1 Se1 K1 126.69(13) 3_455 19_665
O1 Se1 K1 53.20(4) 2_565 19_665
O1 Se1 K1 53.20(4) . 19_665
K1 Se1 K1 118.58(3) 1_455 19_665
K1 Se1 K1 99.02(4) 19_565 19_665
K1 Se1 K1 99.02(4) 19 19_665
Se1 O1 Cd1 114.51(17) . .
Se1 O1 K1 153.35(19) . 13_444
Cd1 O1 K1 92.15(12) . 13_444
Se1 O1 K1 100.52(8) . 19
Cd1 O1 K1 101.80(8) . 19
K1 O1 K1 72.47(7) 13_444 19
Se1 O1 K1 100.52(8) . 19_665
Cd1 O1 K1 101.80(8) . 19_665
K1 O1 K1 72.47(7) 13_444 19_665
K1 O1 K1 138.05(14) 19 19_665
loop_
_geom_bond_atom_site_label_1
_geom_bond_atom_site_label_2
_geom_bond_distance
_geom_bond_site_symmetry_2
K1 O1 2.816(4) 9
K1 O1 2.816(4) 8
K1 O1 2.816(4) 7
K1 O1 3.0509(14) 21_655
K1 O1 3.0509(14) 20_655
K1 O1 3.0509(14) 19
K1 O1 3.0509(14) 19_665
K1 O1 3.0509(14) 20
K1 O1 3.0509(14) 21_665
K1 Se1 3.410(2) 1_655
K1 K1 3.4731(13) 25_655
K1 K1 3.4730(13) 25_665
Cd1 O1 2.320(4) 19
Cd1 O1 2.320(4) 20
Cd1 O1 2.320(4) 2
Cd1 O1 2.320(4) 21
Cd1 O1 2.320(4) 3
Cd1 O1 2.320(4) .
Cd1 K1 3.715(2) 13_444
Cd1 K1 3.715(2) 25
Cd1 K1 4.1935(12) 19
Cd1 K1 4.1935(12) 19_665
Cd1 K1 4.1935(12) 1_445
Se1 O1 1.687(4) 3_455
Se1 O1 1.687(4) 2_565
Se1 O1 1.687(4) .
Se1 K1 3.410(2) 1_455
Se1 K1 3.7459(10) 19_565
Se1 K1 3.7459(10) 19
Se1 K1 3.7459(10) 19_665
O1 K1 2.816(4) 13_444
O1 K1 3.0509(14) 19
O1 K1 3.0509(14) 19_665
