#------------------------------------------------------------------------------
#$Date: 2021-02-23 11:51:09 +0200 (Tue, 23 Feb 2021) $
#$Revision: 262156 $
#$URL: file:///home/coder/svn-repositories/cod/cif/1/56/05/1560576.cif $
#------------------------------------------------------------------------------
#
# This file is available in the Crystallography Open Database (COD),
# http://www.crystallography.net/
#
# All data on this site have been placed in the public domain by the
# contributors.
#
data_1560576
loop_
_publ_author_name
'Ludwig, Jennifer'
'Nordlund, Dennis'
'Doeff, Marca M.'
'Nilges, Tom'
_publ_section_title
;
 Synthesis and characterization of metastable, 20 nm-sized Pna 2 1 -LiCoPO
 4 nanospheres
;
_journal_name_full               'Journal of Solid State Chemistry'
_journal_page_first              9
_journal_page_last               17
_journal_paper_doi               10.1016/j.jssc.2017.01.015
_journal_volume                  248
_journal_year                    2017
_chemical_absolute_configuration .
_chemical_formula_analytical     'Co1 Li1 O4 P1'
_chemical_formula_structural     'Co1 Li1 O4 P1'
_chemical_formula_sum            'Co Li O4 P'
_chemical_formula_weight         160.8
_chemical_name_common            'lithium cobalt phosphate'
_space_group_IT_number           62
_space_group_name_Hall           '-P 2ac 2n'
_space_group_name_H-M_alt        'P n m a'
_symmetry_cell_setting           orthorhombic
_symmetry_Int_Tables_number      62
_symmetry_space_group_name_Hall  '-P 2ac 2n'
_symmetry_space_group_name_H-M   'P n m a'
_cell_angle_alpha                90
_cell_angle_beta                 90
_cell_angle_gamma                90
_cell_formula_units_Z            4
_cell_length_a                   10.2155(6)
_cell_length_b                   5.9163(3)
_cell_length_c                   4.7025(2)
_cell_measurement_temperature    298
_cell_volume                     284.21(3)
_diffrn_ambient_temperature      298
_diffrn_detector                 'linear PSD'
_diffrn_detector_type            'Dectris MYTHEN DCS 1K'
_diffrn_measurement_device       'X-ray powder diffractometer'
_diffrn_measurement_device_type  'Stoe STADI P'
_diffrn_radiation_monochromator  Ge(111)
_diffrn_radiation_probe          x-ray
_diffrn_radiation_type           'Mo K\a1'
_diffrn_radiation_wavelength     0.70930
_exptl_absorpt_coefficient_mu    6.374
_exptl_absorpt_correction_type   cylinder
_exptl_absorpt_process_details
'Cromer, D. T.; Liberman, D. A., Acta Crystallogr., Sect. A 1981, A37, (2), 267-268.'
_exptl_crystal_density_diffrn    3.759
_exptl_crystal_F_000             308
_pd_char_colour                  'dark violet'
_pd_char_particle_morphology     'fine powder'
_pd_instr_location
;Technical University of Munich
Department of Chemistry 
Lichtenbergstr. 4 
85747 Garching 
Germany 
;
_pd_meas_2theta_range_inc        0.015
_pd_meas_2theta_range_max        60.082
_pd_meas_2theta_range_min        2.992
_pd_meas_number_of_points        3807
_pd_meas_scan_method             step
_pd_proc_2theta_range_inc        0.015
_pd_proc_2theta_range_max        60.082
_pd_proc_2theta_range_min        2.992
_pd_proc_ls_background_function  '35 Chebyshev polynoms'
_pd_proc_ls_pref_orient_corr     none
_pd_proc_ls_profile_function     Pseudo-Voigt
_pd_proc_ls_prof_R_factor        0.0363
_pd_proc_ls_prof_wR_expected     0.0261
_pd_proc_ls_prof_wR_factor       0.0471
_pd_spec_mounting                'sealed 0.5 mm capillary'
_pd_spec_mount_mode              transmission
_pd_spec_shape                   cylinder
_refine_ls_goodness_of_fit_all   1.81
_refine_ls_number_constraints    0
_refine_ls_number_parameters     62
_refine_ls_number_restraints     0
_refine_ls_R_factor_all          0.0229
_refine_ls_R_factor_gt           0.0229
_refine_ls_shift/su_max          0.0375
_refine_ls_shift/su_mean         0.0055
_refine_ls_weighting_scheme      sigma
_refine_ls_wR_factor_all         0.0299
_refine_ls_wR_factor_gt          0.0299
_cod_data_source_file            JSSC-2017-248-9.cif
_cod_data_source_block           after_TGA_of_micron-sized_Pna21-LiCoPO4_air
_cod_depositor_comments
;
The following automatic conversions were performed:

data item '_diffrn_radiation_probe' value 'X-ray' was changed to
'x-ray' in accordance with the built-in table derived from the CIF
Core dictionary named 'cif_core.dic' version 2.4.5 last updated on
2014-11-21.

Automatic conversion script
Id: cif_fix_values 8369 2020-08-20 11:38:08Z andrius 
;
_cod_original_sg_symbol_Hall     '-P -2xabc;-2yb;-2zac'
_cod_original_formula_sum        'Co1 Li1 O4 P1'
_cod_database_code               1560576
loop_
_space_group_symop_id
_space_group_symop_operation_xyz
1 x,y,z
2 -x+1/2,-y,z+1/2
3 -x,y+1/2,-z
4 x+1/2,-y+1/2,-z+1/2
5 -x,-y,-z
6 x+1/2,y,-z+1/2
7 x,-y+1/2,z
8 -x+1/2,y+1/2,z+1/2
loop_
_atom_site_label
_atom_site_type_symbol
_atom_site_fract_x
_atom_site_fract_y
_atom_site_fract_z
_atom_site_adp_type
_atom_site_U_iso_or_equiv
_atom_site_site_symmetry_multiplicity
_atom_site_occupancy
_atom_site_calc_flag
_atom_site_refinement_flags
_atom_site_disorder_assembly
_atom_site_disorder_group
Li1 Li 0 0 0 Uiso 0.0139 4 1 d . . .
Co1 Co 0.22136(19) 0.25 0.5214(5) Uiso 0.0089(7) 4 1 d . . .
P1 P 0.4044(5) 0.25 0.0814(9) Uiso 0.0075(12) 4 1 d . . .
O1 O 0.4050(12) 0.25 0.7563(19) Uiso 0.006(3) 4 1 d . . .
O2 O 0.0464(11) 0.25 0.2888(18) Uiso 0.004(3) 4 1 d . . .
O3 O 0.3336(8) 0.0424(11) 0.2198(11) Uiso 0.003(2) 8 1 d . . .
loop_
_atom_type_symbol
_atom_type_scat_dispersion_real
_atom_type_scat_dispersion_imag
_atom_type_scat_source
Co 0.3505 0.9773 'International Tables Vol C tables 4.2.6.8 and 6.1.1.1'
Li 0.0000 0.0001 'International Tables Vol C tables 4.2.6.8 and 6.1.1.1'
O 0.0113 0.0062 'International Tables Vol C tables 4.2.6.8 and 6.1.1.1'
P 0.1037 0.0957 'International Tables Vol C tables 4.2.6.8 and 6.1.1.1'
loop_
_geom_angle_atom_site_label_1
_geom_angle_atom_site_label_2
_geom_angle_atom_site_label_3
_geom_angle_site_symmetry_1
_geom_angle_site_symmetry_2
_geom_angle_site_symmetry_3
_geom_angle
O1 Li1 O1 2_554 . 4_455 180.0(5)
O1 Li1 O2 2_554 . . 91.2(3)
O1 Li1 O2 2_554 . 3_545 88.8(3)
O1 Li1 O3 2_554 . 2_554 84.6(3)
O1 Li1 O3 2_554 . 6_455 95.4(3)
O1 Li1 O2 4_455 . . 88.8(3)
O1 Li1 O2 4_455 . 3_545 91.2(3)
O1 Li1 O3 4_455 . 2_554 95.4(3)
O1 Li1 O3 4_455 . 6_455 84.6(3)
O2 Li1 O2 . . 3_545 180.0(5)
O2 Li1 O3 . . 2_554 107.7(3)
O2 Li1 O3 . . 6_455 72.3(3)
O2 Li1 O3 3_545 . 2_554 72.3(3)
O2 Li1 O3 3_545 . 6_455 107.7(3)
O3 Li1 O3 2_554 . 6_455 180.0(5)
O1 Co1 O2 . . . 179.0(4)
O1 Co1 O3 . . . 83.0(3)
O1 Co1 O3 . . 2_555 90.3(3)
O1 Co1 O3 . . 7_555 83.0(3)
O1 Co1 O3 . . 8_555 90.3(3)
O2 Co1 O3 . . . 96.2(3)
O2 Co1 O3 . . 2_555 90.2(3)
O2 Co1 O3 . . 7_555 96.2(3)
O2 Co1 O3 . . 8_555 90.2(3)
O3 Co1 O3 . . 2_555 88.0(3)
O3 Co1 O3 . . 7_555 67.9(3)
O3 Co1 O3 . . 8_555 155.5(3)
O3 Co1 O3 2_555 . 7_555 155.5(3)
O3 Co1 O3 2_555 . 8_555 115.6(3)
O3 Co1 O3 7_555 . 8_555 88.0(3)
O1 P1 O2 1_554 . 4_555 112.6(6)
O1 P1 O3 1_554 . . 114.6(4)
O1 P1 O3 1_554 . 7_555 114.6(4)
O2 P1 O3 4_555 . . 105.3(4)
O2 P1 O3 4_555 . 7_555 105.3(4)
O3 P1 O3 . . 7_555 103.2(4)
loop_
_geom_bond_atom_site_label_1
_geom_bond_atom_site_label_2
_geom_bond_site_symmetry_1
_geom_bond_site_symmetry_2
_geom_bond_distance
Li1 O1 . 2_554 2.141(8)
Li1 O1 . 4_455 2.141(8)
Li1 O2 . . 2.063(6)
Li1 O2 . 3_545 2.063(6)
Li1 O3 . 2_554 2.165(8)
Li1 O3 . 6_455 2.165(8)
Co1 O1 . . 2.177(12)
Co1 O2 . . 2.096(11)
Co1 O3 . . 2.199(7)
Co1 O3 . 2_555 2.044(7)
Co1 O3 . 7_555 2.199(7)
Co1 O3 . 8_555 2.044(7)
P1 O1 . 1_554 1.529(10)
P1 O2 . 4_555 1.573(12)
P1 O3 . . 1.567(7)
P1 O3 . 7_555 1.567(7)
