#------------------------------------------------------------------------------
#$Date: 2021-04-12 12:26:45 +0300 (Mon, 12 Apr 2021) $
#$Revision: 264059 $
#$URL: file:///home/coder/svn-repositories/cod/cif/1/56/16/1561665.cif $
#------------------------------------------------------------------------------
#
# This file is available in the Crystallography Open Database (COD),
# http://www.crystallography.net/
#
# All data on this site have been placed in the public domain by the
# contributors.
#
data_1561665
loop_
_publ_author_name
'Mao, Yuanlv'
'Fang, Yuqiang'
'Pan, Jie'
'Wang, Dong'
'Bu, Kejun'
'Che, Xiangli'
'Zhao, Wei'
'Huang, Fuqiang'
_publ_section_title
;
 Synthesis, crystal structures and physical properties of A(H2O) MoS2
 (A&#x00A0;=&#x00A0;K, Rb, Cs)
;
_journal_name_full               'Journal of Solid State Chemistry'
_journal_page_first              120937
_journal_paper_doi               10.1016/j.jssc.2019.120937
_journal_volume                  279
_journal_year                    2019
_chemical_formula_sum            'H1.64 K0.38 Mo O0.82 S2'
_chemical_formula_weight         189.69
_space_group_crystal_system      monoclinic
_space_group_IT_number           11
_space_group_name_Hall           '-P 2yb'
_space_group_name_H-M_alt        'P 1 21/m 1'
_atom_sites_solution_hydrogens   .
_cell_angle_alpha                90
_cell_angle_beta                 100.616(6)
_cell_angle_gamma                90
_cell_formula_units_Z            2
_cell_length_a                   5.6942(10)
_cell_length_b                   3.2433(6)
_cell_length_c                   9.3601(16)
_cell_measurement_reflns_used    1635
_cell_measurement_temperature    298(2)
_cell_measurement_theta_max      15
_cell_measurement_theta_min      7
_cell_volume                     169.90(5)
_computing_structure_refinement  'SHELXL-2014/7 (Sheldrick, 2014)'
_diffrn_ambient_temperature      298(2)
_diffrn_measured_fraction_theta_full 0.989
_diffrn_measured_fraction_theta_max 0.989
_diffrn_measurement_device_type  'CCD area detector'
_diffrn_measurement_method       'phi and omega scans'
_diffrn_radiation_type           MoK\a
_diffrn_radiation_wavelength     0.71073
_diffrn_reflns_av_R_equivalents  0.0392
_diffrn_reflns_av_unetI/netI     0.0342
_diffrn_reflns_Laue_measured_fraction_full 0.989
_diffrn_reflns_Laue_measured_fraction_max 0.989
_diffrn_reflns_limit_h_max       6
_diffrn_reflns_limit_h_min       -5
_diffrn_reflns_limit_k_max       3
_diffrn_reflns_limit_k_min       -3
_diffrn_reflns_limit_l_max       11
_diffrn_reflns_limit_l_min       -11
_diffrn_reflns_number            1635
_diffrn_reflns_point_group_measured_fraction_full 0.989
_diffrn_reflns_point_group_measured_fraction_max 0.989
_diffrn_reflns_theta_full        24.979
_diffrn_reflns_theta_max         24.979
_diffrn_reflns_theta_min         3.640
_exptl_absorpt_coefficient_mu    5.286
_exptl_absorpt_correction_type   multi-scan
_exptl_crystal_colour            black
_exptl_crystal_density_diffrn    3.708
_exptl_crystal_description       plate
_exptl_crystal_F_000             179
_exptl_crystal_size_max          0.07
_exptl_crystal_size_mid          0.035
_exptl_crystal_size_min          0.035
_exptl_transmission_factor_max   0.831
_exptl_transmission_factor_min   0.801
_refine_diff_density_max         0.775
_refine_diff_density_min         -0.697
_refine_diff_density_rms         0.203
_refine_ls_extinction_coef       .
_refine_ls_extinction_method     none
_refine_ls_goodness_of_fit_ref   1.169
_refine_ls_hydrogen_treatment    undef
_refine_ls_matrix_type           full
_refine_ls_number_parameters     33
_refine_ls_number_reflns         350
_refine_ls_number_restraints     1
_refine_ls_restrained_S_all      1.167
_refine_ls_R_factor_all          0.0486
_refine_ls_R_factor_gt           0.0421
_refine_ls_shift/su_max          0.007
_refine_ls_shift/su_mean         0.001
_refine_ls_structure_factor_coef Fsqd
_refine_ls_weighting_details
'w=1/[\s^2^(Fo^2^)+(0.0522P)^2^+0.8930P] where P=(Fo^2^+2Fc^2^)/3'
_refine_ls_weighting_scheme      calc
_refine_ls_wR_factor_gt          0.0965
_refine_ls_wR_factor_ref         0.0995
_reflns_Friedel_coverage         0.000
_reflns_Friedel_fraction_full    .
_reflns_Friedel_fraction_max     .
_reflns_number_gt                321
_reflns_number_total             350
_reflns_threshold_expression     'I > 2\s(I)'
_cod_data_source_file            JSSC-2019-279-120937.cif
_cod_data_source_block           K
_cod_original_sg_symbol_H-M      'P 21/m'
_cod_database_code               1561665
_shelx_space_group_comment
;
The symmetry employed for this shelxl refinement is uniquely defined
by the following loop, which should always be used as a source of
symmetry information in preference to the above space-group names.
They are only intended as comments.
;
_shelx_res_file
;

    K.res created by SHELXL-2014/7


TITL 12-14-1_a.res in P2(1)/m
REM Old TITL 12-14-1 in P2(1)

REM SHELXT solution in P2(1)/m
REM R1 0.103,  Rweak 0.018,  Alpha 0.023,  Orientation as input
REM Formula found by SHELXT:  Mo S2

CELL  0.71073   5.6942   3.2433   9.3601   90.000  100.616   90.000
ZERR    2.000   0.0010   0.0006   0.0016    0.000    0.006    0.000
LATT  1
SYMM -X, 1/2+Y, -Z
SFAC K Mo S O H
UNIT 0.76 2 4 1.64 3.28
TEMP 0
L.S. 10
BOND
LIST 4
ACTA
FMAP 2
PLAN 20
OMIT -2 50.0
omit -2 2 2
omit 0 0 2
OMIT 0 0 1
OMIT 0 0 3
sump 0.38 0.0001 1.0 2 1.0 3
WGHT    0.052200    0.893000
FVAR       1.00939   0.18141   0.19860
MO    2    0.300088    0.750000    0.994151    10.50000    0.02307    0.03008 =
         0.03580    0.00000    0.00539    0.00000
part 1
K1    1    0.329395    0.750000    1.462509    20.50000    0.16616    0.18814 =
         0.05892    0.00000    0.03612    0.00000
part 2
K2    1    0.153855    0.750000    1.473420    30.50000    0.25818    0.25807 =
         0.03164    0.00000   -0.02788    0.00000
part 0
S1    3    0.127761    0.250000    1.143412    10.50000    0.02521    0.03130 =
         0.03924    0.00000    0.00775    0.00000
S2    3    0.643438    0.750000    1.184363    10.50000    0.02704    0.03176 =
         0.03952    0.00000    0.00762    0.00000
HKLF 4

REM  12-14-1_a.res in P2(1)/m
REM R1 =  0.0421 for     321 Fo > 4sig(Fo)  and  0.0486 for all     350 data
REM     33 parameters refined using      1 restraints

END

WGHT      0.0522      0.8929

REM Highest difference peak  0.775,  deepest hole -0.697,  1-sigma level  0.203
Q1    1   0.1846  0.9237  0.9862  11.00000  0.05    0.78
Q2    1   0.1065  0.2500  1.0151  10.50000  0.05    0.77
Q3    1   0.3174  0.7500  1.0937  10.50000  0.05    0.72
Q4    1   0.4119  0.7500  1.2000  10.50000  0.05    0.68
Q5    1   0.1757  0.2500  1.2530  10.50000  0.05    0.65
Q6    1   0.6569  0.2500  1.2963  10.50000  0.05    0.63
Q7    1   0.3180  1.1626  0.9909  11.00000  0.05    0.61
Q8    1   0.1626  0.7500  1.2706  10.50000  0.05    0.59
Q9    1   0.2438  0.7500  0.8804  10.50000  0.05    0.55
Q10   1   0.4832  0.7500  0.9652  10.50000  0.05    0.55
Q11   1   0.8622  0.7500  1.1673  10.50000  0.05    0.54
Q12   1   0.0000  1.0000  1.5000  10.50000  0.05    0.54
Q13   1   0.5000  1.0000  1.5000  10.50000  0.05    0.50
Q14   1  -0.0859  0.2500  1.1834  10.50000  0.05    0.49
Q15   1  -0.1001  0.7500  1.3447  10.50000  0.05    0.43
Q16   1   0.3635  0.2500  1.1250  10.50000  0.05    0.43
Q17   1   0.6509  0.8842  1.3025  11.00000  0.05    0.42
Q18   1   0.7191  0.9672  1.2049  11.00000  0.05    0.40
Q19   1   0.7876  0.7500  1.2444  10.50000  0.05    0.40
Q20   1   0.2213  0.9252  1.3390  11.00000  0.05    0.38
;
_shelx_res_checksum              56169
_shelx_hkl_file
;
   1   0   0  446.66   18.50
   2   0   0 3952.20  114.89
   3   0   0 2022.10   71.59
   3   0   0 2000.20   65.89
   4   0   0  248.48   30.40
   4   0   0  197.68   20.40
   4   0   0  165.28   20.30
   5   0   0 1201.68   46.00
   5   0   0 1205.78   47.50
   6   0   0  222.28   23.90
   6   0   0  199.68   22.80
   7   0   0  222.68   27.60
   7   0   0  169.38   24.30
   8   0   0   68.59   25.90
   8   0   0   12.40   32.40
   8   0   0   86.89   24.40
   0  -1   0   -6.20   19.30
   0  -1   0    5.40   11.30
   0  -1   0  -10.30    9.00
   0  -1   0   11.50   13.40
   0   1   0   19.40   13.20
   0   1   0    5.10   12.90
   0   1   0    1.30    8.40
  -1  -1   0 1067.09   39.70
   1  -1   0  947.81   53.19
  -1  -1   0 1058.69   39.30
   1  -1   0 1070.69   35.90
  -1  -1   0  962.50   40.70
   1  -1   0 1055.69   36.80
  -1   1   0 1065.19   36.00
   1   1   0 1011.10   38.50
   1   1   0 1072.99   42.80
   1   1   0 1027.80   38.80
  -1   1   0 1049.09   37.90
   2  -1   0 1003.10   37.30
  -2  -1   0  992.60   41.30
  -2  -1   0 1102.79   45.10
   2  -1   0  992.50   37.30
   2  -1   0 1010.60   56.39
   2   1   0 1041.40   39.40
  -2   1   0 1063.99   40.40
   3  -1   0 1848.22   75.19
  -3  -1   0 1817.32   63.59
   3  -1   0 1898.61   60.19
   3   1   0 1784.82   59.99
   3   1   0 1746.93   62.49
   4  -1   0  741.63   47.50
  -4  -1   0  778.02   47.90
   4  -1   0  700.93   37.40
   4   1   0  795.82   35.90
   4   1   0  765.32   33.60
   5  -1   0  263.97   35.90
   5  -1   0  267.37   27.00
   5   1   0  263.57   22.30
   5   1   0  247.28   23.20
   6  -1   0  319.27   34.10
   6  -1   0  352.36   27.30
   6  -1   0  312.47   32.00
   6  -1   0  300.07   41.70
   6   1   0  305.27   26.90
   6   1   0  310.27   26.90
   7  -1   0  228.58   29.60
   7  -1   0  176.28   28.10
   7  -1   0  168.48   34.40
   7  -1   0  212.48   26.60
   7   1   0  240.68   27.30
   7   1   0  253.77   27.70
   8  -1   0  144.09   31.80
   8  -1   0   86.19   24.20
   8   1   0  106.49   25.50
   8   1   0  136.69   29.00
   0  -2   0 5186.58  154.88
   0  -2   0 5196.98  150.58
   0  -2   0 5193.08  163.58
   0   2   0 5465.35  150.78
   0   2   0 5220.58  154.58
   0   2   0 5084.59  153.78
  -1  -2   0  155.68   30.00
   1  -2   0  148.89   21.20
  -1  -2   0  184.28   26.70
  -1  -2   0  130.69   23.40
   1  -2   0  116.69   27.90
   1  -2   0  176.48   21.50
   1  -2   0  184.48   31.30
   1   2   0  173.88   24.40
  -1   2   0  183.28   22.10
   1   2   0  152.18   20.20
   1   2   0  210.78   31.70
  -1   2   0  176.38   26.80
  -2  -2   0 1088.49   50.29
   2  -2   0 1102.69   41.50
  -2  -2   0 1097.99   48.00
   2  -2   0 1137.69   42.60
   2  -2   0  999.70   56.69
   2  -2   0 1088.59   54.99
  -2  -2   0  998.50   48.90
   2   2   0 1053.09   43.30
   2   2   0 1104.79   45.80
   2   2   0 1099.29   54.09
  -2   2   0 1084.19   45.70
   3  -2   0  674.53   34.00
   3  -2   0  724.73   49.99
   3  -2   0  709.83   49.99
   3  -2   0  723.03   31.90
   3   2   0  697.43   34.70
   3   2   0  719.43   35.50
  -3   2   0  696.43   39.20
   4  -2   0  145.79   31.90
   4  -2   0   55.99   24.40
   4  -2   0  106.09   19.70
   4   2   0  132.79   20.50
   4   2   0  139.89   22.20
   5  -2   0  572.74   44.80
   5  -2   0  616.64   32.00
   5  -2   0  630.74   50.19
   5   2   0  654.43   34.20
   5   2   0  641.94   35.20
   6  -2   0  157.98   22.50
   6  -2   0  156.08   38.20
   6   2   0  142.19   24.70
   6   2   0  133.29   22.10
   7  -2   0  136.99   32.70
   7  -2   0   66.99   35.00
   7  -2   0  147.69   37.00
   7   2   0  136.89   28.40
   7   2   0  127.59   23.40
   0  -3   0  -31.10   25.60
   0   3   0   28.30   17.20
  -1  -3   0   79.79   27.30
   1  -3   0  158.98   29.50
   1   3   0   73.69   23.00
   1   3   0  121.09   19.60
  -1   3   0  118.39   38.00
  -1   3   0  119.09   20.90
  -2  -3   0  229.98   30.80
   2  -3   0  251.37   37.90
   2  -3   0  246.28   31.00
   2   3   0  160.08   23.60
   2   3   0  212.18   30.10
  -2   3   0  297.87   37.80
   3  -3   0  362.96   36.60
   3  -3   0  424.66   27.00
   3   3   0  421.26   29.80
  -3   3   0  373.46   50.09
   3   3   0  403.16   33.80
   4  -3   0  272.27   40.30
   4  -3   0  212.48   22.70
   4   3   0  260.87   31.30
   4   3   0  221.28   26.20
   5  -3   0   69.09   39.10
   5   3   0  119.19   22.40
   5   3   0   88.89   27.80
   6  -3   0  128.19   44.30
   6   3   0  165.18   25.50
   6   3   0  154.78   31.90
   0  -4   0  764.62   53.39
   0   4   0  728.13   39.20
   1  -4   0   24.10   31.80
  -1  -4   0   37.40   31.50
  -1   4   0   24.40   24.40
   1   4   0   35.40   20.90
   2  -4   0  157.98   36.20
  -2  -4   0  145.09   31.50
   2   4   0  155.48   23.60
   2   4   0  178.78   31.20
   3  -4   0  144.49   35.90
   3   4   0  173.58   25.80
   3   4   0  127.69   31.70
   4  -4   0    4.50   35.90
   4   4   0   16.70   30.70
   4   4   0   17.80   22.70
   5  -4   0  109.29   46.20
   5   4   0  140.19   27.20
   5   4   0  264.87   39.40
   8   0  -1   60.49   22.20
   8   0  -1   85.89   30.40
   8   0  -1   37.40   31.80
   7   0  -1  168.68   26.20
   7   0  -1  160.28   25.60
   6   0  -1   20.50   17.30
   6   0  -1   20.70   19.20
   5   0  -1 1013.90   42.50
   4   0  -1   86.19   20.20
   3   0  -1 1534.85   58.79
   3   0  -1 1765.02   58.29
   2   0  -1  216.88   20.90
   1   0  -1  539.35   22.60
  -1   0   1  566.64   23.80
  -1   0   1  553.14   20.70
   1   0  -1  575.24   21.10
   0   0   1 3552.14   99.59
  -1   0  -1  208.38   12.80
   1   0   1  199.78   10.40
   1   0   1  203.18   12.20
   2   0   1 7503.45  207.28
   2   0   1 7601.64  209.98
   3   0   1 1095.49   39.40
   3   0   1 1062.89   41.00
   4   0   1   59.59   14.60
   4   0   1   57.99   13.80
   5   0   1 1110.19   42.70
   5   0   1 1132.79   44.30
   5   0   1 1192.58   51.19
   6   0   1  358.16   25.30
   6   0   1  344.47   27.00
   7   0   1  318.37   37.20
   7   0   1  296.67   30.00
   7   0   1  353.56   28.20
   8   0   1   96.09   30.40
   8   0   1   86.49   23.80
   8   0   1  100.89   36.30
   8  -1  -1   94.69   30.30
   8  -1  -1  116.59   25.70
   8   1  -1  130.39   26.10
   8   1  -1  116.39   28.20
   7  -1  -1  466.95   44.70
   7  -1  -1  417.96   33.00
   7  -1  -1  472.55   33.20
   7  -1  -1  499.15   37.10
   7   1  -1  474.95   33.00
   7   1  -1  494.65   32.80
   6  -1  -1  481.85   38.70
   6  -1  -1  462.35   39.90
   6  -1  -1  415.46   31.60
   6   1  -1  488.15   29.60
   6   1  -1  463.15   29.80
   5  -1  -1   38.40   26.60
   5  -1  -1   23.60   21.50
   5   1  -1   63.49   18.50
   5   1  -1   46.40   15.30
   4  -1  -1  972.30   52.29
   4  -1  -1 1024.80   38.90
  -4  -1   1 1026.30   54.79
   4   1  -1 1043.00   53.39
   4   1  -1  998.40   41.80
   4   1  -1 1008.60   43.00
   3  -1  -1 3244.08  107.49
   3  -1  -1 3199.18   89.29
  -3  -1   1 3224.88   98.99
   3   1  -1 3038.00  102.09
   3   1  -1 3039.80   95.29
   3   1  -1 2956.80   97.89
   2  -1  -1 1154.58   42.70
  -2  -1   1 1108.09   44.40
   2  -1  -1 1052.69   55.39
   2   1  -1 1109.49   48.30
   2   1  -1 1132.89   43.90
   2   1  -1 1152.68   42.60
  -1  -1   1 3469.25  100.29
   1  -1  -1 3294.27  111.99
  -1  -1   1 3309.27  103.59
   1  -1  -1 3498.45   99.99
  -1  -1   1 3630.64  102.19
  -1   1   1 3125.19   99.79
   1   1  -1 3380.36  100.09
  -1   1   1 3401.06   95.59
   1   1  -1 3414.26  100.39
  -1   1   1 3263.57  113.49
   1   1  -1 3305.47  103.69
   0  -1   1    0.40   13.80
   0  -1  -1   17.30   16.00
   0  -1  -1   -5.70   17.50
   0  -1   1    5.50   12.30
   0  -1   1   16.10    8.60
   0  -1  -1   26.70   11.80
   0   1   1    4.30    9.60
   0   1   1    2.40   12.20
   0   1   1   12.50   19.80
   0   1  -1   -1.30   15.40
   0   1  -1   23.10   12.80
   0   1  -1   13.60    8.10
   1  -1   1  125.69   19.70
  -1  -1  -1  106.79   19.40
   1  -1   1  124.79   19.80
  -1  -1  -1  160.88   19.80
  -1  -1  -1  149.49   19.10
   1   1   1  121.59   21.00
  -1   1  -1  151.18   21.30
   1   1   1  120.19   17.00
   1   1   1  166.58   19.20
   2  -1   1 1372.66   49.90
  -2  -1  -1 1450.15   53.09
  -2  -1  -1 1401.16   48.50
   2   1   1 1386.36   48.60
  -2   1  -1 1365.06   53.19
   2   1   1 1316.27   48.90
  -3  -1  -1  190.98   26.10
   3  -1   1  210.18   24.70
   3   1   1  177.28   18.90
   3   1   1  175.58   18.50
   4  -1   1  836.52   37.80
  -4  -1  -1  773.32   46.50
   4  -1   1  754.62   52.29
   4   1   1  790.32   35.80
   4   1   1  783.92   34.00
   5  -1   1  306.57   29.80
   5  -1   1  231.38   21.00
   5  -1   1  236.58   34.90
   5   1   1  226.58   23.10
   5   1   1  215.68   21.60
   6  -1   1  191.98   34.80
   6  -1   1  204.38   22.30
   6  -1   1  213.08   28.40
   6  -1   1  212.48   28.50
   6   1   1  158.58   22.20
   6   1   1  217.98   23.80
   7  -1   1   26.60   36.40
   7  -1   1   40.10   26.80
   7  -1   1   34.60   18.80
   7  -1   1   -7.10   22.60
   7   1   1    2.20   20.00
   7   1   1   -7.90   21.20
   8   1   1  146.39   33.90
   7  -2  -1   56.29   40.60
   7   2  -1  107.69   26.80
   7   2  -1   65.19   21.60
   6  -2  -1   29.40   30.00
   6   2  -1   21.50   22.30
   6   2  -1   14.80   16.80
   5  -2  -1  493.25   47.70
   5   2  -1  546.65   33.00
   5   2  -1  490.85   30.70
   4  -2  -1   57.19   27.30
   4  -2  -1   53.49   28.30
   4   2  -1   71.89   17.80
   3  -2  -1  711.43   28.20
   3  -2  -1  700.53   48.50
   3  -2  -1  672.23   38.30
   3   2  -1  688.63   34.80
   3   2  -1  719.23   36.00
   2  -2  -1   83.39   21.90
   2  -2  -1   93.99   27.40
  -2  -2   1   75.99   26.80
  -2  -2   1   79.89   26.60
  -2  -2   1  133.29   28.50
   2  -2  -1  146.49   33.00
   2   2  -1   94.79   30.10
   2   2  -1  102.49   17.30
  -2   2   1  110.09   21.20
   2   2  -1  124.69   21.50
   1  -2  -1  182.48   25.80
  -1  -2   1  215.98   25.30
   1  -2  -1  181.48   30.30
  -1  -2   1  180.48   32.00
   1  -2  -1  273.47   36.70
  -1  -2   1  209.98   29.10
   1   2  -1  170.68   24.00
  -1   2   1  229.98   27.80
   1   2  -1  202.18   32.90
  -1   2   1  156.88   21.50
   1   2  -1  192.18   19.10
   0  -2   1 3042.30   95.19
   0  -2  -1 2889.01   97.09
   0  -2   1 2878.61   95.69
   0  -2   1 2987.50   90.49
   0  -2  -1 2952.80   92.89
   0  -2   1 2904.91  105.79
   0  -2  -1 2868.41  101.69
   0   2  -1 3047.90   95.69
   0   2   1 2942.71   95.29
   0   2  -1 3064.39   89.69
   0   2   1 3056.69   92.79
   0   2  -1 3006.00   97.49
   1  -2   1   56.19   14.40
   1  -2   1   59.09   27.40
  -1  -2  -1   69.99   19.80
   1  -2   1   43.10   16.50
  -1  -2  -1   63.09   22.30
  -1  -2  -1   36.10   25.80
   1  -2   1   76.19   27.80
  -1   2  -1   48.40   23.80
  -1   2  -1   39.80   15.00
   1   2   1   44.10   25.80
   1   2   1   48.40   18.20
   1   2   1   64.79   14.10
   2  -2   1 2346.07   70.59
  -2  -2  -1 2287.17   81.59
  -2  -2  -1 2287.97   77.89
  -2  -2  -1 2271.07   79.79
   2  -2   1 2463.65   75.39
   2  -2   1 2454.75   84.29
   2  -2   1 2335.37   93.59
   2   2   1 2438.66   79.19
  -2   2  -1 2291.27   80.19
   2   2   1 2423.36   78.89
   2   2   1 2236.48   84.19
   3  -2   1  459.05   45.30
   3  -2   1  412.76   44.40
  -3  -2  -1  352.66   45.10
   3  -2   1  439.76   26.20
   3  -2   1  458.05   26.40
   3   2   1  470.85   30.10
   3   2   1  485.45   28.00
  -3   2  -1  454.55   39.00
   4  -2   1   13.00   18.70
   4  -2   1   16.50   17.10
   4  -2   1   62.09   31.20
   4   2   1   49.90   19.20
   4   2   1   27.80   14.50
   5  -2   1  629.84   51.29
   5  -2   1  497.45   51.49
   5  -2   1  609.84   33.60
   5   2   1  608.94   33.20
   5   2   1  673.13   35.10
   6  -2   1  234.18   39.80
   6  -2   1  199.88   23.10
   6   2   1  189.98   25.20
   6   2   1  225.08   28.80
   7  -2   1  161.08   44.00
   7  -2   1  155.08   33.60
   7   2   1  206.98   29.80
   7   2   1  215.18   26.80
   6  -3  -1  183.68   43.70
   6   3  -1  192.58   26.30
   6   3  -1  166.88   31.20
   5  -3  -1   76.59   32.20
   5   3  -1    4.60   24.60
   5   3  -1   -7.90   17.90
   4  -3  -1  357.16   45.20
   4   3  -1  247.88   25.40
   4   3  -1  336.17   32.60
   3  -3  -1  734.73   50.49
  -3   3   1  704.03   51.99
   3   3  -1  716.73   37.70
   3   3  -1  710.63   41.20
   2  -3  -1  234.98   33.30
  -2  -3   1  267.47   33.60
   2  -3  -1  224.78   35.50
   2   3  -1  234.18   30.70
  -2   3   1  325.37   38.90
   2   3  -1  242.28   24.50
  -1  -3   1  602.24   43.30
   1  -3  -1  686.93   44.10
  -1   3   1  586.74   48.10
   1   3  -1  585.74   37.30
  -1   3   1  633.94   34.60
   1   3  -1  589.14   31.40
   0  -3   1   15.60   26.20
   0  -3   1   19.40   26.40
   0  -3  -1  -25.10   25.30
   0   3  -1  -15.60   15.20
   0   3   1  -12.30   16.20
   0   3  -1  -18.00   19.70
   1  -3   1   62.19   30.50
   1  -3   1   48.60   18.90
  -1  -3  -1   34.00   25.60
   1  -3   1   93.89   24.20
   1   3   1   40.10   15.80
  -1   3  -1   55.09   19.60
   1   3   1   71.39   22.60
  -2  -3  -1  269.47   32.90
   2  -3   1  279.17   41.20
   2  -3   1  260.77   29.10
   2  -3   1  256.87   24.40
   2   3   1  215.48   29.10
  -2   3  -1  322.47   41.20
   2   3   1  257.37   24.80
   3  -3   1   52.39   20.50
   3  -3   1   80.49   21.00
   3  -3   1   27.70   31.00
  -3   3  -1   77.79   48.10
   3   3   1   45.50   18.50
   3   3   1   52.59   25.10
   4  -3   1  267.77   44.20
   4  -3   1  219.88   28.40
   4   3   1  270.37   31.80
   4   3   1  279.37   27.20
   5  -3   1  129.99   41.60
   5  -3   1   74.29   39.00
   5   3   1   94.29   21.50
   5   3   1  133.99   27.90
   6  -3   1   50.89   44.50
   6   3   1   71.99   29.80
   6   3   1   89.09   23.50
   5  -4  -1  106.59   49.00
   5   4  -1  163.68   28.20
   5   4  -1  170.38   37.20
   4  -4  -1    9.80   40.20
   4   4  -1   48.20   32.10
   4   4  -1   29.40   22.50
   3  -4  -1  130.89   38.60
   3   4  -1  116.79   30.10
   3   4  -1  134.09   24.10
   2  -4  -1   -3.60   34.50
  -2  -4   1    1.80   31.20
   2   4  -1   17.50   25.80
   2   4  -1   46.80   20.90
  -1  -4   1   46.40   32.60
   1  -4  -1   21.60   31.60
   1   4  -1    0.40   21.20
  -1   4   1    0.70   24.30
   0  -4   1  487.35   43.00
   0  -4  -1  411.96   43.00
   0   4   1  418.86   33.10
   0   4  -1  385.26   30.60
  -1  -4  -1    5.50   29.10
   1  -4   1   52.49   34.90
  -1   4  -1   25.00   23.50
   1   4   1   27.90   19.70
   2  -4   1  480.85   49.70
  -2  -4  -1  369.26   39.80
   2   4   1  388.36   32.20
   3  -4   1   30.20   39.00
   3   4   1   74.69   22.50
   3   4   1   99.29   29.50
   4  -4   1  -22.30   45.10
   4   4   1  -13.20   21.20
   4   4   1   15.70   31.10
   5  -4   1  242.78   52.99
   5   4   1  191.38   37.30
   5   4   1  137.79   27.70
   8   0  -2  242.18   30.50
   8   0  -2  274.27   33.70
   7   0  -2  188.78   27.20
   7   0  -2  210.98   27.20
   6   0  -2   59.79   34.00
   6   0  -2   43.10   21.40
   5   0  -2 1023.00   47.30
   5   0  -2 1014.50   44.10
   4   0  -2  264.17   26.10
   4   0  -2  204.18   25.50
   4   0  -2  254.77   25.10
   3   0  -2 1647.64   56.29
  -3   0   2 1777.02   64.39
   3   0  -2 1686.03   60.39
   3   0  -2 1614.84   57.69
  -2   0   2   80.99   20.90
   2   0  -2  109.89   18.00
   1   0  -2  430.76   24.00
   1   0  -2  417.76   20.40
  -1   0   2  427.56   20.90
  -1   0   2  404.26   24.10
   0   0   2 5127.79  150.08
   0   0  -2 5197.28  150.88
   0   0  -2 5210.58  150.28
   0   0   2 5338.47  151.18
   0   0  -2 5589.84  146.59
   0   0   2 5114.99  145.99
  -1   0  -2   56.29   10.00
   1   0   2   47.10    9.30
  -2   0  -2 4193.58  138.49
   2   0   2 5556.24  138.79
   3   0   2  543.85   23.50
   3   0   2  521.75   26.00
   4   0   2  722.23   30.10
   4   0   2  676.63   30.70
   5   0   2  682.83   30.50
   5   0   2  658.03   31.30
   6   0   2  193.58   25.20
   6   0   2  156.58   30.90
   6   0   2  164.78   22.50
   7   0   2  352.06   28.60
   7   0   2  373.96   39.00
   7   0   2  392.96   29.60
   8   0   2  241.88   40.60
   8   0   2  204.18   32.10
   8  -1  -2   73.79   29.20
   8  -1  -2   66.99   25.50
   8   1  -2   91.99   23.50
   8   1  -2   68.49   26.80
   7  -1  -2  347.27   41.50
   7  -1  -2  372.36   37.80
   7   1  -2  380.56   30.00
   7   1  -2  342.87   33.80
   6  -1  -2  463.05   37.70
   6  -1  -2  446.76   29.50
   6  -1  -2  484.25   31.40
   6  -1  -2  416.56   41.40
   6   1  -2  460.35   30.30
   6   1  -2  482.15   32.10
   5  -1  -2  345.07   36.90
   5   1  -2  324.37   25.60
   5   1  -2  330.27   25.60
   4  -1  -2 1049.20   53.09
  -4  -1   2 1079.89   57.19
   4   1  -2 1139.89   44.60
   4   1  -2 1100.89   56.59
   4   1  -2 1119.59   46.60
  -3  -1   2 1374.66   56.79
   3  -1  -2 1462.45   60.19
   3   1  -2 1312.27   52.39
  -3   1   2 1388.46   73.69
   3   1  -2 1290.27   58.19
   3   1  -2 1382.36   50.79
  -2  -1   2 1488.15   53.89
   2  -1  -2 1333.97   62.29
   2  -1  -2 1594.74   55.09
   2   1  -2 1514.85   57.79
   2   1  -2 1531.65   51.89
  -2   1   2 1500.85   69.29
  -1  -1   2 9930.21  272.47
   1  -1  -2 9999.00  269.77
   1  -1  -2 9564.34  277.27
  -1  -1   2 9540.55  267.17
  -1   1   2 9452.25  269.57
  -1   1   2 9665.73  279.37
   1   1  -2 9457.95  267.67
   1   1  -2 9954.60  272.57
   1   1  -2 9610.44  267.67
   0  -1  -2  162.18   26.50
   0  -1   2  167.08   21.60
   0  -1   2  162.88   18.00
   0  -1  -2  182.88   20.00
   0  -1  -2  168.18   22.60
   0   1  -2  172.18   13.60
   0   1   2  183.18   18.10
   0   1   2  181.98   30.90
   0   1  -2  229.08   26.10
   0   1  -2  157.58   18.10
  -1  -1  -2 2587.74   77.39
   1  -1   2 2493.15   81.49
  -1  -1  -2 2533.85   81.19
   1  -1   2 2451.85   76.59
  -1  -1  -2 2551.54   80.19
   1   1   2 2488.75   79.49
  -1   1  -2 2550.44   83.39
   1   1   2 2540.65   78.09
   1   1   2 2490.15   82.59
  -2  -1  -2 1087.09   44.80
  -2  -1  -2 1118.79   41.10
   2  -1   2 1139.89   42.10
   2  -1   2 1014.00   45.10
  -2  -1  -2 1076.79   45.00
   2   1   2 1066.49   41.60
  -2   1  -2 1081.09   50.99
   2   1   2 1047.40   44.70
   2   1   2 1079.79   40.00
  -3  -1  -2  -14.70   22.10
   3  -1   2   24.10   16.70
   3  -1   2   24.30   10.10
  -3  -1  -2   35.30   18.90
   3   1   2    3.00   11.30
   3   1   2    7.30   14.40
   4  -1   2 1142.59   48.10
  -4  -1  -2 1210.88   52.89
   4  -1   2 1149.19   40.60
   4   1   2 1133.79   42.30
   4   1   2 1185.68   45.60
   5  -1   2   16.90   20.30
   5  -1   2   15.80   12.50
   5  -1   2   22.80   23.20
   5   1   2    8.10   16.00
   5   1   2   27.00   14.70
   6  -1   2  201.48   37.00
   6  -1   2  191.48   22.50
   6  -1   2  201.98   25.90
   6  -1   2  205.18   29.50
   6   1   2  199.28   22.70
   6   1   2  207.68   23.60
   7  -1   2   -3.70   18.70
   7  -1   2   -9.20   37.50
   7  -1   2   14.80   25.80
   7  -1   2   52.89   25.10
   7   1   2   15.00   19.40
   7   1   2    8.20   23.50
   8   1   2   -6.40   24.00
   8  -2  -2  131.29   40.20
   8  -2  -2  166.98   46.20
   8   2  -2  131.89   26.20
   8   2  -2  157.58   34.30
   7  -2  -2  114.09   38.00
   7   2  -2  133.99   23.60
   7   2  -2  110.79   26.00
   6  -2  -2   96.39   34.60
   6   2  -2    3.30   16.60
   6   2  -2   39.00   22.00
   5  -2  -2  500.95   45.80
   5   2  -2  540.35   32.70
   5   2  -2  535.75   32.30
   4  -2  -2  174.78   35.50
   4  -2  -2  146.99   29.90
   4   2  -2  145.19   22.90
   4   2  -2  126.69   21.50
   3  -2  -2  686.33   40.10
   3  -2  -2  646.84   44.40
   3   2  -2  690.03   36.00
   3   2  -2  720.03   34.70
   2  -2  -2   77.79   23.70
  -2  -2   2   57.09   25.10
  -2  -2   2  105.49   27.40
   2  -2  -2  111.79   25.10
   2   2  -2   93.69   19.00
   2   2  -2   87.49   16.80
  -2   2   2  110.09   17.90
   2   2  -2   26.60   30.20
   1  -2  -2  138.59   32.10
  -1  -2   2  122.99   22.20
  -1  -2   2  130.49   27.20
   1  -2  -2  131.59   27.00
   1  -2  -2  131.89   24.50
  -1   2   2  123.89   45.10
   1   2  -2  130.09   32.60
  -1   2   2  133.59   22.70
  -1   2   2  116.79   19.40
   1   2  -2  160.98   23.00
   1   2  -2  117.89   16.30
   0  -2  -2  765.92   42.80
   0  -2   2  806.92   33.90
   0  -2  -2  819.82   40.20
   0  -2  -2  741.13   45.20
   0  -2   2  723.93   37.30
   0  -2   2  755.62   41.40
   0   2  -2  755.92   38.70
   0   2   2  812.32   41.30
   0   2  -2  776.72   31.90
   0   2  -2  766.82   46.90
   0   2   2  761.12   35.40
   0   2   2  772.12   59.29
  -1  -2  -2   68.79   27.10
   1  -2   2   57.99   13.30
  -1  -2  -2   76.99   21.80
  -1  -2  -2   81.19   28.30
   1  -2   2   56.19   16.40
   1  -2   2   58.79   27.40
   1   2   2   57.59   18.30
   1   2   2   81.99   28.00
   1   2   2   43.40   35.50
  -1   2  -2   12.50   29.90
  -1   2  -2   55.39   14.00
   1   2   2   38.90   14.40
  -2  -2  -2 2040.60   72.89
   2  -2   2 2069.29   73.59
  -2  -2  -2 1931.71   71.09
   2  -2   2 2044.60   68.99
  -2   2  -2 2034.10   77.49
   2   2   2 2202.18   71.49
   2   2   2 2059.89   70.49
   2   2   2 2077.89   79.49
   3  -2   2  227.58   37.60
   3  -2   2  219.48   23.30
  -3  -2  -2  298.47   39.00
   3   2   2  241.28   23.00
   3   2   2  271.47   26.40
  -3   2  -2  269.37   43.10
   4  -2   2  378.26   28.50
   4  -2   2  342.17   46.80
   4   2   2  340.37   26.50
   4   2   2  328.97   28.70
   5  -2   2  352.26   30.20
   5  -2   2  387.36   47.70
   5   2   2  426.46   28.70
   5   2   2  407.36   31.20
   6  -2   2   68.29   38.70
   6  -2   2   88.39   26.30
   6   2   2  156.98   22.60
   6   2   2  126.19   25.60
   7  -2   2  171.68   45.70
   7  -2   2  232.68   51.39
   7   2   2  211.78   31.10
   7   2   2  254.57   36.30
   7  -3  -2  122.99   48.30
   7   3  -2  164.88   35.40
   7   3  -2  204.88   31.00
   6  -3  -2  159.38   44.30
   6   3  -2  138.09   30.10
   6   3  -2  173.08   25.80
   5  -3  -2   92.99   37.60
   5   3  -2  139.59   22.80
   5   3  -2  161.58   27.90
   4  -3  -2  349.87   43.80
   4   3  -2  295.27   26.50
   4   3  -2  273.07   31.30
   3  -3  -2  324.67   40.00
   3   3  -2  410.66   33.30
   3   3  -2  324.97   26.10
   2  -3  -2  308.07   39.60
  -2  -3   2  330.37   35.80
   2   3  -2  286.27   25.80
  -2   3   2  274.47   33.80
   2   3  -2  274.97   30.70
  -1  -3   2 1368.16   61.69
   1  -3  -2 1366.46   63.59
  -1   3   2 1345.67   61.59
   1   3  -2 1326.17   49.20
   1   3  -2 1343.87   56.99
  -1   3   2 1368.36   53.99
   0  -3   2   27.70   25.60
   0  -3  -2   61.49   25.80
   0  -3   2   12.70   28.50
   0  -3   2   32.30   19.10
   0   3  -2   28.10   14.90
   0   3  -2   45.00   21.60
   0   3   2   12.50   17.20
   1  -3   2  312.27   27.90
   1  -3   2  376.96   30.00
   1  -3   2  318.47   42.70
  -1  -3  -2  335.37   34.90
  -1   3  -2  290.67   23.50
   1   3   2  348.47   27.10
  -2  -3  -2  209.48   28.70
   2  -3   2  254.37   41.80
   2  -3   2  189.68   27.00
   2   3   2  272.67   29.50
   2   3   2  282.07   24.30
   3  -3   2   12.50   20.00
   3  -3   2    2.40   33.10
  -3  -3  -2  -16.40   23.10
   3   3   2   31.20   23.00
   3   3   2   21.20   16.00
   4  -3   2  308.37   46.50
   4  -3   2  358.06   29.30
   4   3   2  328.27   28.20
   4   3   2  361.36   35.50
   5  -3   2   24.70   38.90
   5  -3   2   18.80   24.40
   5   3   2   53.99   29.60
   5   3   2   20.20   20.50
   6  -3   2   35.50   44.40
   6   3   2   74.59   24.70
   6   3   2  200.08   36.90
   5  -4  -2  105.79   47.70
   5   4  -2   66.19   37.20
   5   4  -2  157.68   29.10
   4  -4  -2   57.59   39.70
   4   4  -2   30.00   23.00
   4   4  -2  107.79   35.20
   3  -4  -2  219.48   39.30
  -3  -4   2   88.19   53.19
   3   4  -2  156.88   24.40
   3   4  -2  130.79   34.20
  -2  -4   2   31.40   33.60
   2  -4  -2   47.10   34.10
   2   4  -2    8.30   18.10
   2   4  -2   32.00   26.20
   1  -4  -2  -28.30   30.90
  -1  -4   2   68.19   33.00
  -1   4   2   54.09   23.80
   1   4  -2   20.00   25.90
   1   4  -2   10.80   19.90
   0  -4  -2   57.39   30.90
   0  -4   2   49.80   34.30
   0   4  -2  113.39   22.50
   0   4   2  116.79   25.00
   1  -4   2   36.40   34.90
  -1  -4  -2    7.70   31.90
  -1   4  -2   55.49   23.10
   1   4   2   17.90   21.60
   2  -4   2  395.76   49.50
  -2  -4  -2  355.36   37.60
   2   4   2  324.37   33.20
   3  -4   2   97.89   41.30
   3  -4   2  -14.10   26.60
   3   4   2   55.39   23.80
   4  -4   2   40.60   45.60
   4   4   2  101.29   33.00
   4   4   2   78.49   26.50
   8   0  -3  399.76   35.00
   8   0  -3  512.85   38.90
   7   0  -3  176.48   27.90
   7   0  -3  154.38   27.50
   6   0  -3    9.30   34.70
   6   0  -3   73.59   20.50
   5   0  -3 1063.59   47.00
   5   0  -3 1118.19   48.30
   4   0  -3  951.60   40.30
   4   0  -3  868.91   41.30
  -4   0   3 1102.29   52.99
   4   0  -3  946.51   44.20
   3   0  -3 1871.61   67.89
   3   0  -3 1919.41   64.59
  -3   0   3 1938.91   70.19
   3   0  -3 1920.91   62.59
  -2   0   3 1283.67   50.49
   2   0  -3 1076.09   44.70
  -2   0   3 1231.48   44.10
   2   0  -3 1286.07   47.90
   2   0  -3 1431.46   49.60
   1   0  -3   64.49   18.50
  -1   0   3   94.29   16.00
   1   0  -3   82.09   17.40
  -1   0   3   97.09   22.50
   1   0  -3   81.19   16.90
   0   0   3   56.19   18.30
   0   0   3   34.70   20.70
   0   0  -3   64.19   19.80
   0   0  -3   66.79   12.90
   0   0  -3   53.39   16.80
   0   0   3   51.89   10.70
   0   0  -3   55.59   11.30
   1   0   3  912.41   44.40
   1   0   3  882.41   43.70
  -1   0  -3  890.51   32.30
   1   0   3  889.51   32.40
   2   0   3 1644.84   53.69
   2   0   3 1649.23   63.99
  -2   0  -3 1707.83   54.69
   3   0   3  443.66   23.30
   4   0   3  809.32   30.80
   4   0   3  853.61   33.80
   5   0   3  297.57   34.40
   5   0   3  237.68   20.60
   5   0   3  247.48   19.40
   6   0   3   29.70   17.40
   6   0   3   -2.10   15.90
   6   0   3   28.90   27.20
   7   0   3  238.48   37.90
   7   0   3  247.88   26.70
   8   0   3  228.38   44.00
   8  -1  -3   68.89   29.80
   8   1  -3   63.09   24.30
   8   1  -3   50.29   25.90
   7  -1  -3  127.39   31.30
   7  -1  -3  104.29   30.10
   7   1  -3  139.69   25.50
   7   1  -3  103.69   22.20
   6  -1  -3  313.47   35.30
   6  -1  -3  376.46   36.70
   6   1  -3  411.66   29.20
   6   1  -3  369.56   31.20
   5  -1  -3  395.86   35.50
   5   1  -3  418.96   29.90
   5   1  -3  428.76   29.90
   4  -1  -3  769.12   43.70
   4   1  -3  729.13   48.00
   4   1  -3  767.82   37.90
   4   1  -3  732.33   37.00
   3  -1  -3   90.89   22.50
  -3  -1   3   92.19   30.00
   3   1  -3   49.99   17.30
  -3   1   3   84.89   39.30
   3   1  -3   23.90   26.40
   2  -1  -3 1009.00   46.20
   2  -1  -3 1057.09   45.80
  -2  -1   3  985.30   43.90
  -2  -1   3 1012.80   42.60
  -2  -1   3 1038.60   43.70
   2   1  -3  993.10   40.30
  -2   1   3  942.51   58.29
   2   1  -3 1003.30   46.90
  -1  -1   3 5010.20  150.38
  -1  -1   3 4958.40  145.99
   1  -1  -3 5338.47  155.88
   1  -1  -3 4990.40  149.19
   1   1  -3 5096.19  152.48
   1   1  -3 5094.59  146.19
  -1   1   3 5041.40  159.08
  -1   1   3 5146.59  149.88
   0  -1   3  255.27   26.00
   0  -1  -3  318.17   29.10
   0  -1  -3  304.07   26.00
   0  -1  -3  305.67   24.10
   0  -1   3  268.57   21.30
   0   1  -3  265.67   20.40
   0   1  -3  282.87   30.60
   0   1   3  328.97   35.00
   0   1   3  337.37   22.50
  -1  -1  -3 4299.37  122.09
  -1  -1  -3 4438.26  129.09
  -1  -1  -3 4089.69  125.39
   1  -1   3 4306.47  120.59
   1  -1   3 4000.90  128.79
  -1   1  -3 4392.36  132.39
  -1   1  -3 4148.48  120.99
   1   1   3 4127.59  125.39
   1   1   3 4381.06  131.19
  -2  -1  -3  478.75   31.50
   2  -1   3  414.96   29.10
  -2  -1  -3  472.75   26.00
   2  -1   3  418.56   25.60
  -2  -1  -3  467.65   31.90
   2   1   3  474.85   25.80
  -2   1  -3  452.35   41.10
   2   1   3  477.65   34.50
   2   1   3  442.96   26.40
   3  -1   3  164.48   25.10
  -3  -1  -3  154.48   27.60
  -3  -1  -3  173.88   22.10
   3  -1   3  194.48   22.40
   3   1   3  175.28   28.50
   3   1   3  151.08   18.40
   3   1   3  132.29   19.40
  -4  -1  -3 1175.28   49.90
   4  -1   3 1257.97   51.59
   4  -1   3 1150.08   39.40
   4   1   3 1248.78   46.70
   4   1   3 1218.18   42.80
   5  -1   3   88.79   23.20
   5  -1   3   65.09   13.50
   5  -1   3  120.09   20.60
   5   1   3   67.99   16.10
   5   1   3   77.79   18.30
   6  -1   3  318.97   25.90
   6  -1   3  390.56   24.50
   6  -1   3  294.67   49.20
   6  -1   3  346.07   35.00
   6   1   3  411.16   27.50
   6   1   3  360.06   28.40
   7  -1   3   47.70   40.30
   7  -1   3  -14.80   30.00
   7   1   3   75.79   21.90
   8  -2  -3  243.18   48.20
   8  -2  -3  239.68   42.20
   8   2  -3  278.97   35.00
   8   2  -3  267.27   33.00
   7  -2  -3  129.39   38.20
   7   2  -3  105.69   25.90
   7   2  -3  101.79   23.30
   6  -2  -3    2.00   32.30
   6   2  -3   22.10   17.80
   6   2  -3   34.40   21.10
   5  -2  -3  522.25   45.90
   5   2  -3  544.75   32.80
   5   2  -3  508.45   31.10
   4  -2  -3  511.55   41.20
   4   2  -3  446.96   29.50
   4   2  -3  481.75   30.90
   3  -2  -3  742.43   47.10
   3  -2  -3  659.23   44.50
   3   2  -3  789.02   36.10
   3   2  -3  782.02   37.30
  -2  -2   3  449.66   31.10
   2  -2  -3  489.55   39.80
   2  -2  -3  518.85   37.30
   2   2  -3  449.16   30.30
   2   2  -3  437.26   27.40
   1  -2  -3   63.59   32.50
   1  -2  -3   28.60   21.80
  -1  -2   3  111.39   26.40
  -1  -2   3   60.29   19.60
   1  -2  -3   63.99   23.40
  -1   2   3  107.89   45.40
  -1   2   3   83.39   20.10
  -1   2   3   89.29   21.70
   1   2  -3   53.89   15.20
   1   2  -3   34.00   17.80
   1   2  -3   90.59   31.60
   0  -2  -3  186.78   32.30
   0  -2  -3  179.88   27.50
   0  -2  -3  196.58   28.90
   0  -2   3  156.68   22.50
   0  -2   3  135.89   25.80
   0   2  -3  182.18   33.30
   0   2  -3  140.59   18.10
   0   2   3  178.08   21.50
   0   2   3  170.08   43.20
   0   2  -3  185.78   28.00
  -1  -2  -3  198.98   32.40
  -1  -2  -3  233.88   30.80
  -1  -2  -3  218.18   26.30
   1  -2   3  236.08   31.60
   1  -2   3  172.88   22.70
   1   2   3  218.28   21.80
   1   2   3  273.37   42.30
  -1   2  -3  270.67   38.20
  -2  -2  -3  600.34   34.50
   2  -2   3  600.84   33.40
  -2  -2  -3  580.84   40.90
   2  -2   3  616.64   40.20
  -2   2  -3  644.34   55.89
   2   2   3  568.84   32.40
   2   2   3  595.04   51.39
   2   2   3  554.24   30.80
   3  -2   3  218.58   26.60
   3  -2   3  213.58   35.30
  -3  -2  -3  218.88   28.80
  -3  -2  -3  296.77   35.20
   3   2   3  254.57   37.80
  -3   2  -3  256.17   45.80
   3   2   3  225.58   26.90
   3   2   3  265.17   23.50
   4  -2   3  422.56   51.09
   4  -2   3  426.46   30.90
   4   2   3  398.96   28.40
   4   2   3  410.96   30.60
   5  -2   3  168.48   39.80
   5  -2   3  130.79   23.30
   5   2   3  138.59   21.60
   5   2   3  163.68   25.40
   6  -2   3  -34.50   24.50
   6   2   3   16.80   20.00
   6   2   3  -37.00   25.30
   7  -2   3   91.09   45.90
   7   2   3  213.28   28.80
   7   3  -3   94.69   31.90
   6  -3  -3  139.99   41.80
   6   3  -3  200.78   30.20
   6   3  -3  145.29   26.30
   5  -3  -3  141.49   38.00
   5   3  -3  179.18   24.60
   5   3  -3  207.08   28.90
   4  -3  -3  250.07   38.60
   4   3  -3  184.88   24.80
   4   3  -3  235.98   30.60
   3  -3  -3   11.30   28.40
   3   3  -3   36.20   21.90
   3   3  -3   11.60   16.80
  -2  -3   3  257.97   33.70
   2  -3  -3  240.58   36.00
  -2   3   3  307.87   33.70
   2   3  -3  258.37   24.10
   2   3  -3  223.98   30.00
  -1  -3   3 1024.80   46.60
  -1  -3   3  939.51   53.99
   1  -3  -3  983.20   53.29
   1   3  -3  963.70   48.10
  -1   3   3  949.71   51.79
  -1   3   3  947.91   44.70
   1   3  -3 1021.50   39.70
   0  -3   3   90.89   33.00
   0  -3   3   82.29   21.30
   0  -3  -3   80.19   26.50
   0   3  -3   93.69   24.70
   0   3  -3  111.39   16.90
   0   3   3   93.69   20.20
   1  -3   3  981.50   61.89
   1  -3   3  985.10   45.70
  -1  -3  -3  972.30   48.80
   1   3   3  963.40   44.00
   2  -3   3  116.69   22.50
  -2  -3  -3  114.59   27.40
   2  -3   3   93.39   35.50
   2   3   3   91.19   19.40
   3  -3   3   29.00   20.40
  -3  -3  -3  -30.30   23.10
   3  -3   3  -21.70   34.80
   3   3   3   25.30   22.60
   3   3   3    7.90   16.00
   4  -3   3  368.66   31.60
   4  -3   3  352.26   51.49
   4   3   3  359.26   29.60
   4   3   3  354.76   34.50
   5  -3   3   21.70   25.40
   5  -3   3   59.29   41.60
   5   3   3   -4.40   27.20
   5   3   3   34.30   20.70
   6  -3   3   86.19   47.80
   6   3   3  193.18   34.90
   6   3   3  161.98   26.80
   5  -4  -3  168.48   45.80
   5   4  -3  198.18   38.20
   5   4  -3  126.59   28.00
   4  -4  -3   92.39   38.50
   4   4  -3  155.38   35.60
   4   4  -3  138.09   26.30
   3  -4  -3  171.88   37.70
   3   4  -3  155.78   32.90
   3   4  -3  168.38   24.80
  -2  -4   3   82.49   34.20
   2  -4  -3   70.09   32.80
   2   4  -3   71.19   28.70
   2   4  -3   83.19   22.00
   1  -4  -3   18.90   30.30
  -1  -4   3  -30.90   33.50
   1   4  -3   32.00   26.50
  -1   4   3   28.70   23.60
   1   4  -3  -19.40   19.60
   0  -4   3   11.90   34.20
   0  -4  -3    7.00   31.80
   0   4  -3   28.20   19.80
   0   4   3  -17.60   24.20
   1  -4   3   31.50   36.40
  -1  -4  -3   64.29   31.10
   1  -4   3   48.90   23.70
   1   4   3   57.29   21.20
   2  -4   3  168.08   26.30
   2  -4   3   45.40   37.90
  -2  -4  -3  108.89   33.70
   2   4   3  131.19   25.10
   3  -4   3   90.59   43.10
   3  -4   3   -4.70   25.70
   3   4   3   46.70   24.10
   4  -4   3   47.10   46.80
   4   4   3  125.99   27.00
   8   0  -4  450.05   36.00
   8   0  -4  356.86   39.80
   7   0  -4  148.09   28.10
   6   0  -4  337.77   41.50
   6   0  -4  312.77   29.40
   5   0  -4  823.42   42.20
   5   0  -4  776.52   40.60
   5   0  -4  823.82   36.50
  -4   0   4  458.35   45.50
   4   0  -4  450.85   32.60
   4   0  -4  573.44   32.20
   4   0  -4  488.85   33.50
  -3   0   4 2174.68   79.19
   3   0  -4 2214.58   70.69
  -3   0   4 2236.58   69.49
   3   0  -4 2172.48   75.39
   3   0  -4 2092.59   73.09
   2   0  -4 3409.26  103.79
   2   0  -4 3458.95  107.19
  -2   0   4 3362.76  102.29
   2   0  -4 3410.66  106.59
  -2   0   4 3617.14  110.89
   1   0  -4 1024.50   44.10
  -1   0   4  988.10   41.30
  -1   0   4  984.60   48.10
   1   0  -4  932.71   39.40
   1   0  -4  959.30   46.70
   0   0   4 2223.98   77.69
   0   0  -4 2295.67   70.79
   0   0  -4 2223.08   78.49
   0   0  -4 2223.18   67.69
   0   0   4 2339.07   81.09
  -1   0  -4  457.85   24.10
   1   0   4  411.36   31.50
   1   0   4  394.66   21.90
   1   0   4  380.16   40.50
  -2   0  -4  391.76   23.50
   2   0   4  354.86   30.00
   2   0   4  283.27   43.60
   2   0   4  332.17   20.70
   3   0   4  928.21   54.69
   3   0   4  915.01   45.50
   3   0   4  874.71   34.40
   4   0   4  291.97   31.10
   4   0   4  249.68   20.70
   4   0   4  319.07   50.49
   5   0   4  197.48   30.60
   5   0   4  187.18   21.40
   6   0   4  -59.69   28.00
   6   0   4   42.00   18.80
   7   0   4   61.89   22.70
   7   0   4   19.80   35.10
   8  -1  -4   38.60   30.60
   8   1  -4   73.49   30.20
   8   1  -4  115.79   24.70
   7  -1  -4  -23.20   29.80
   7  -1  -4   22.70   30.30
   7   1  -4   36.70   23.80
   7   1  -4  -12.20   19.00
   6  -1  -4  366.06   36.40
   6  -1  -4  367.46   37.20
   6   1  -4  389.26   31.70
   6   1  -4  370.16   30.20
   5  -1  -4   51.89   24.60
   5   1  -4   71.19   22.30
   4  -1  -4  632.64   39.80
   4   1  -4  640.94   36.00
  -4   1   4  748.63   65.59
   4   1  -4  628.64   46.50
  -3  -1   4   74.09   29.10
   3  -1  -4   42.80   24.10
   3  -1  -4   78.39   20.70
  -3  -1   4   66.09   20.60
  -3   1   4   35.80   40.50
   3   1  -4   54.99   30.20
   3   1  -4   70.19   20.20
  -2  -1   4  544.85   35.50
  -2  -1   4  496.35   30.50
   2  -1  -4  550.44   37.00
   2  -1  -4  498.55   33.60
  -2  -1   4  513.65   39.40
  -2   1   4  444.86   48.70
   2   1  -4  515.15   29.10
   2   1  -4  509.85   39.40
   1  -1  -4 1631.94   60.39
  -1  -1   4 1575.94   56.39
  -1  -1   4 1651.53   60.79
   1  -1  -4 1618.84   61.09
  -1   1   4 1629.14   56.69
   1   1  -4 1705.43   55.19
  -1   1   4 1662.23   58.49
  -1   1   4 1624.94   71.19
   1   1  -4 1588.94   64.69
   0  -1  -4  365.96   28.60
   0  -1   4  392.56   27.10
   0  -1   4  399.46   24.70
   0  -1  -4  391.76   29.60
   0   1   4  402.56   42.10
   0   1   4  407.16   25.60
   0   1  -4  403.76   23.90
   0   1  -4  415.36   36.90
   1  -1   4 4653.73  143.79
  -1  -1  -4 4760.02  142.19
  -1  -1  -4 4722.53  133.99
  -1  -1  -4 4620.04  139.39
   1  -1   4 4797.32  131.59
   1   1   4 4722.63  145.59
  -1   1  -4 4749.72  132.89
   1   1   4 4574.64  138.39
  -1   1  -4 4663.23  147.29
  -2  -1  -4   24.00   23.10
  -2  -1  -4   33.30   16.20
   2  -1   4   23.50   19.10
   2   1   4  -23.70   29.60
  -2   1  -4  -21.20   33.30
   2   1   4    8.00   11.90
   3  -1   4  753.62   40.20
  -3  -1  -4  731.13   44.70
  -3  -1  -4  743.93   32.90
   3   1   4  775.32   34.50
   3   1   4  765.62   32.20
   3   1   4  724.83   51.19
   4  -1   4  734.13   39.60
   4   1   4  710.13   31.00
   4   1   4  682.73   34.10
   4   1   4  649.83   54.19
   5  -1   4   51.99   24.60
   5   1   4   19.90   16.40
   5   1   4   70.69   18.60
   6  -1   4  493.65   28.10
   6  -1   4  562.04   38.80
   6   1   4  470.65   31.50
   6   1   4  557.04   32.80
   7  -1   4   48.10   43.10
   7  -1   4   64.09   32.10
   7   1   4  117.09   25.30
   7  -2  -4   16.50   35.50
   7   2  -4   78.99   22.10
   7   2  -4  114.69   25.50
   6  -2  -4  250.57   36.00
   6   2  -4  209.88   25.90
   6   2  -4  233.78   29.70
   5  -2  -4  425.76   40.40
   5   2  -4  392.36   31.20
   5   2  -4  394.16   28.90
   4  -2  -4  210.38   34.40
   4   2  -4  238.18   24.40
   4   2  -4  247.08   25.80
   3  -2  -4 1011.00   52.49
  -3  -2   4 1066.39   48.80
   3   2  -4 1007.10   44.40
   3   2  -4 1065.69   43.70
  -2  -2   4 1376.46   55.39
   2  -2  -4 1351.46   59.59
   2   2  -4 1334.17   49.30
   2   2  -4 1314.97   52.29
  -1  -2   4  252.67   35.20
   1  -2  -4  266.47   30.30
   1  -2  -4  346.97   40.30
  -1  -2   4  299.07   26.60
   1  -2  -4  249.48   34.50
  -1   2   4  274.07   25.90
   1   2  -4  290.67   19.70
   1   2  -4  271.97   26.30
  -1   2   4  248.78   51.69
   0  -2  -4  390.96   43.80
   0  -2   4  454.35   31.10
   0  -2  -4  464.95   34.20
   0  -2  -4  344.87   53.69
   0  -2   4  454.25   36.60
   0   2  -4  500.05   31.50
   0   2   4  483.45   29.10
   0   2  -4  464.85   21.90
   0   2  -4  503.55   47.40
   0   2   4  420.16   58.09
  -1  -2  -4  263.17   33.40
   1  -2   4  250.17   25.10
  -1  -2  -4  212.68   28.70
   1  -2   4  214.08   30.80
   1   2   4  225.68   42.80
  -1   2  -4  217.58   25.10
   1   2   4  275.77   23.80
  -1   2  -4  314.17   43.70
   2  -2   4  174.88   28.50
  -2  -2  -4  202.98   29.00
  -2  -2  -4  173.48   25.30
   2  -2   4  146.19   23.30
   2   2   4  164.58   20.70
   2   2   4  112.59   41.80
   3  -2   4  360.46   38.80
   3  -2   4  398.76   30.30
  -3  -2  -4  347.07   37.70
   3   2   4  390.46   27.00
   3   2   4  434.06   54.29
   3   2   4  357.96   28.20
   4  -2   4  173.58   28.10
   4  -2   4  127.29   37.60
   4   2   4  135.19   21.30
   4   2   4  146.09   23.50
   5  -2   4  126.39   25.20
   5   2   4  124.49   25.60
   5   2   4  131.09   21.30
   6  -2   4  -21.50   26.80
   6  -2   4    9.60   42.70
   6   2   4   29.80   22.00
   6   2   4   31.80   29.60
   7  -2   4  -29.30   48.10
   7   2   4   71.59   27.10
   6  -3  -4  112.79   39.30
   6   3  -4  117.49   30.00
   5  -3  -4   28.80   32.80
   5   3  -4  -14.40   20.30
   5   3  -4   11.90   23.60
   4  -3  -4  201.18   34.90
   4   3  -4  233.18   30.50
   4   3  -4  211.68   25.10
  -3  -3   4   -6.90   25.40
   3  -3  -4   49.10   27.20
   3   3  -4   28.20   22.10
   3   3  -4   20.90   17.90
  -2  -3   4  126.09   24.40
  -2  -3   4   40.10   30.10
   2  -3  -4  115.29   27.50
   2   3  -4   86.79   17.90
  -2   3   4  153.68   31.40
   2   3  -4   98.09   26.10
   1  -3  -4  358.76   38.10
  -1  -3   4  262.57   28.40
  -1   3   4  247.28   28.80
   1   3  -4  326.27   33.90
  -1   3   4  292.27   41.80
   1   3  -4  268.77   22.80
   0  -3   4   99.99   22.90
   0  -3  -4   74.99   27.30
   0   3  -4   78.89   24.40
   0   3  -4   67.99   15.00
   0   3   4   69.99   20.50
   1  -3   4  990.70   44.50
  -1  -3  -4  911.51   46.40
   1   3   4  908.71   43.00
  -2  -3  -4   -9.60   25.00
   2  -3   4   24.00   20.40
   2   3   4  -23.30   17.20
   3  -3   4  197.48   42.50
  -3  -3  -4  218.88   33.40
   3  -3   4  212.28   27.90
   3   3   4  212.88   25.60
   4  -3   4  207.38   30.80
   4  -3   4  102.99   40.60
   4   3   4  217.38   27.00
   5  -3   4    0.70   27.80
   5  -3   4  -10.10   43.80
   5   3   4   -6.10   28.70
   5   3   4   37.20   20.10
   6  -3   4  147.99   50.59
   6   3   4  220.78   31.40
   5  -4  -4  119.09   42.40
   5   4  -4  100.69   29.30
   5   4  -4   94.79   33.60
   4  -4  -4   40.40   36.70
   4   4  -4   80.79   34.00
   4   4  -4   71.99   25.40
   3  -4  -4  199.78   37.00
   3   4  -4  256.97   37.80
   3   4  -4  214.08   29.70
   2  -4  -4  251.77   37.70
  -2  -4   4  184.18   37.80
   2   4  -4  168.88   26.50
   2   4  -4  186.68   31.80
   1  -4  -4   54.89   30.10
  -1  -4   4  -28.40   35.10
  -1   4   4   57.49   26.30
   1   4  -4   34.80   26.80
   0  -4   4   21.50   23.00
   0  -4  -4   97.59   31.70
   0  -4   4   26.40   36.00
   0   4  -4   61.09   22.30
   0   4   4   59.79   25.10
  -1  -4  -4   37.40   31.40
   1  -4   4   77.99   39.20
   1  -4   4   96.99   25.00
   1   4   4   59.99   22.90
  -2  -4  -4   -0.30   31.20
   2  -4   4    1.00   24.60
   2  -4   4   -8.40   40.40
   2   4   4    0.10   23.90
   3  -4   4  133.79   30.40
   3  -4   4   90.49   44.10
   3   4   4  129.09   27.30
   4  -4   4  -22.10   46.50
   4   4   4   41.00   27.50
   8   0  -5  154.88   32.10
   8   0  -5  176.38   29.00
   7   0  -5   93.29   27.80
   6   0  -5  460.65   33.30
   5   0  -5  468.85   37.80
   5   0  -5  443.86   32.50
   5   0  -5  425.66   30.10
  -5   0   5  427.06   56.59
   4   0  -5   31.40   22.70
   4   0  -5   16.00   18.50
  -4   0   5   27.90   34.10
   4   0  -5   17.20   17.80
  -3   0   5 1588.84   56.59
   3   0  -5 1537.75   58.19
   3   0  -5 1643.84   58.89
  -3   0   5 1658.93   69.69
   3   0  -5 1682.23   62.79
   2   0  -5 2888.51   91.99
   2   0  -5 2591.44   88.99
  -2   0   5 2825.12   87.99
   2   0  -5 2895.31   91.19
  -2   0   5 2903.21   96.79
  -1   0   5  887.31   52.79
   1   0  -5 1049.89   47.30
   1   0  -5 1101.29   42.20
  -1   0   5 1069.09   45.80
   1   0  -5 1070.99   43.90
   1   0  -5 1083.59   49.90
   0   0  -5 2628.44   80.99
   0   0   5 2510.65   85.99
   0   0   5 2676.03   93.49
   0   0  -5 2489.05   89.39
   0   0  -5 2559.94   75.69
  -1   0  -5  245.78   22.30
   1   0   5  282.77   42.90
   1   0   5  231.68   20.40
   1   0   5  232.58   29.10
   2   0   5  379.86   49.80
   2   0   5  297.27   31.70
  -2   0  -5  311.27   25.90
   2   0   5  343.27   21.60
   3   0   5 1137.19   54.09
   3   0   5 1139.59   67.09
  -3   0  -5 1133.99   45.80
   3   0   5 1096.29   40.10
   4   0   5   23.60   25.90
   4   0   5   45.10   14.60
   5   0   5  372.76   24.40
   5   0   5  376.16   36.90
   6   0   5   23.80   18.90
   6   0   5   -3.80   30.80
   7   0   5   14.90   37.50
   8  -1  -5  -11.20   29.40
   8   1  -5   38.70   24.50
   8   1  -5   10.80   29.00
   7  -1  -5    2.90   29.70
   7  -1  -5   56.09   31.20
   7   1  -5   13.70   22.10
   7   1  -5  -12.70   20.20
   6  -1  -5  422.86   36.90
   6  -1  -5  426.56   40.20
   6   1  -5  481.75   34.20
   6   1  -5  432.06   32.40
   5  -1  -5   80.39   24.30
   5   1  -5   42.20   20.80
   4  -1  -5  834.82   44.60
   4   1  -5  873.31   41.40
   4   1  -5  856.21   53.79
  -3  -1   5   52.79   17.60
   3  -1  -5   19.40   19.80
  -3  -1   5   47.80   29.40
   3  -1  -5   18.20   26.70
  -3  -1   5   30.10   31.90
   3   1  -5    5.50   32.50
  -3   1   5  -15.60   41.80
   3   1  -5   15.80   18.00
  -2  -1   5  241.28   34.20
  -2  -1   5  213.28   33.80
   2  -1  -5  173.28   25.80
  -2  -1   5  162.88   23.20
   2  -1  -5  230.88   31.90
   2   1  -5  153.28   20.40
   2   1  -5  214.08   33.00
  -2   1   5  187.48   41.30
  -2   1   5  162.98   19.90
   1  -1  -5  221.08   29.00
   1  -1  -5  157.98   24.40
  -1  -1   5  166.08   24.60
  -1  -1   5  196.08   34.80
  -1  -1   5  169.58   24.70
   1   1  -5  179.38   18.60
  -1   1   5  130.69   36.20
  -1   1   5  175.18   27.90
   1   1  -5  135.99   31.40
   0  -1  -5   -4.00   17.00
   0  -1   5  -14.20   15.90
   0  -1  -5   18.20   21.80
   0  -1   5    8.60   15.80
   0   1  -5   16.50   15.10
   0   1   5  -62.19   32.40
   0   1  -5   20.90   32.00
   0   1   5   10.80   13.90
  -1  -1  -5 1620.84   59.99
   1  -1   5 1459.95   60.79
   1  -1   5 1561.44   49.40
  -1  -1  -5 1581.74   52.79
  -1  -1  -5 1581.94   64.09
  -1   1  -5 1549.74   50.49
   1   1   5 1537.45   68.19
   1   1   5 1532.65   55.59
  -1   1  -5 1534.55   72.49
  -2  -1  -5    8.80   26.10
  -2  -1  -5   22.40   15.60
   2  -1   5    9.40   19.30
   2   1   5  -13.10   35.40
   2   1   5   25.10   15.00
   3  -1   5 1059.99   47.50
   3   1   5  982.90   64.69
   3   1   5  938.51   40.00
   4  -1   5  124.99   26.50
   4   1   5  157.78   21.10
   4   1   5  161.58   46.90
   5  -1   5   12.80   25.30
   5   1   5   23.30   17.70
   6  -1   5  333.97   37.30
   6   1   5  393.26   28.90
   7  -1   5   52.39   34.10
   7  -1   5  -48.30   49.30
   7   1   5  117.99   37.50
   7   1   5   93.09   25.60
   7  -2  -5   96.09   37.60
   7   2  -5   49.30   21.70
   7   2  -5   85.89   27.60
   6  -2  -5  318.67   40.80
   6   2  -5  318.27   31.60
   6   2  -5  286.37   29.20
   5  -2  -5  258.77   38.50
   5   2  -5  213.28   27.20
   5   2  -5  218.68   24.90
   4  -2  -5   52.09   26.00
   4   2  -5   37.70   21.60
  -3  -2   5  725.93   38.90
  -3  -2   5  652.33   51.59
   3  -2  -5  653.93   42.60
   3   2  -5  718.33   36.40
   3   2  -5  673.83   34.60
  -2  -2   5 1123.09   49.90
   2  -2  -5 1109.29   52.69
  -2   2   5 1016.10   38.50
   2   2  -5 1030.00   45.10
  -2   2   5 1075.19   40.10
   2   2  -5 1064.49   42.70
  -1  -2   5  582.54   41.80
  -1  -2   5  524.85   34.00
   1  -2  -5  582.84   37.80
   1   2  -5  549.25   32.80
   1   2  -5  578.94   26.70
  -1   2   5  638.14   34.70
   0  -2  -5 1192.98   60.39
   0  -2   5 1188.98   52.09
   0  -2  -5 1300.27   56.39
   0  -2   5 1246.98   52.79
   0   2   5 1244.68   50.69
   0   2  -5 1303.27   49.90
   1  -2   5   51.89   21.40
  -1  -2  -5   34.60   30.10
   1  -2   5  100.49   27.00
  -1  -2  -5   91.69   24.00
   1   2   5   72.79   17.90
   1   2   5   98.59   51.59
  -1   2  -5   62.59   20.00
   2  -2   5  161.78   27.90
  -2  -2  -5  173.18   29.80
  -2  -2  -5  175.98   26.70
   2  -2   5  138.89   25.50
   2   2   5  132.29   20.70
   2   2   5  166.78   50.79
  -3  -2  -5  653.13   45.60
   3  -2   5  576.54   37.50
   3  -2   5  581.94   36.30
   3   2   5  608.94   33.20
   3   2   5  609.54   66.79
   4  -2   5   10.90   22.00
   4   2   5   24.40   16.00
   5  -2   5  212.28   30.70
   5   2   5  182.38   26.10
   6  -2   5   50.39   47.20
   6  -2   5  -15.20   29.00
   6   2   5   23.40   22.80
   6  -3  -5  159.08   42.00
   6   3  -5  204.58   29.60
   6   3  -5  163.88   32.10
   5  -3  -5   68.79   35.00
   5   3  -5  -19.90   25.80
   5   3  -5    6.50   21.50
   4  -3  -5  312.67   40.70
   4   3  -5  266.17   31.40
   4   3  -5  268.47   27.50
  -3  -3   5  -14.90   29.30
   3  -3  -5  -36.00   26.20
   3   3  -5    1.90   18.80
   3   3  -5   -6.00   20.80
  -2  -3   5   50.19   22.10
   2  -3  -5   22.30   26.40
   2   3  -5   76.49   23.70
   2   3  -5   37.00   16.90
  -2   3   5   29.30   34.30
   1  -3  -5   68.29   28.00
  -1  -3   5   30.60   21.60
   1   3  -5   62.09   26.20
  -1   3   5   68.29   21.60
   1   3  -5   18.40   15.40
  -1   3   5   31.00   37.50
   0  -3   5   24.80   20.30
   0  -3  -5   -3.90   25.10
   0   3  -5   -1.80   14.60
   0   3  -5   20.90   24.00
  -1  -3  -5  428.56   37.90
   1  -3   5  438.66   31.90
   1   3   5  380.66   29.40
  -2  -3  -5  -12.70   24.50
   2  -3   5   14.40   21.60
   2   3   5  -15.00   18.20
  -3  -3  -5  305.47   39.40
   3  -3   5  285.57   30.90
   3   3   5  277.87   29.10
   4  -3   5   50.69   45.70
   4  -3   5   76.49   28.70
   4   3   5   73.09   22.80
   5  -3   5   17.00   46.40
   5  -3   5    6.00   31.60
   5   3   5   18.70   22.40
   4  -4  -5   -3.10   39.30
   4   4  -5   55.59   32.70
   4   4  -5   48.20   26.10
   3  -4  -5  101.49   35.30
   3   4  -5  126.69   35.80
   3   4  -5  146.39   25.30
  -2  -4   5  207.78   39.40
   2  -4  -5  172.28   35.70
   2   4  -5  175.58   35.10
   2   4  -5  247.08   26.40
  -1  -4   5  107.59   27.00
   1  -4  -5  104.69   34.00
  -1  -4   5   79.69   38.90
   1   4  -5   78.89   29.80
   1   4  -5  147.79   22.30
  -1   4   5   91.09   22.50
   0  -4   5  178.68   40.60
   0  -4   5  216.68   31.00
   0  -4  -5  173.58   33.50
   0   4   5  223.08   31.80
  -1  -4  -5   22.00   33.90
   1  -4   5  -77.19   41.00
   1  -4   5   27.30   24.70
   1   4   5   27.30   25.50
  -2  -4  -5   -1.50   35.00
   2  -4   5   -2.00   28.40
   2  -4   5   31.80   44.00
   2   4   5   47.90   24.80
   3  -4   5  175.78   32.80
   3  -4   5  133.59   48.20
   3   4   5   98.49   28.50
   8   0  -6   91.99   31.40
   7   0  -6  149.09   29.10
   6   0  -6  285.97   29.30
   6   0  -6  225.58   31.20
  -5   0   6  280.87   53.19
   5   0  -6  240.58   28.10
   5   0  -6  207.38   28.90
   5   0  -6  293.47   37.20
   4   0  -6  152.68   26.40
   4   0  -6  190.18   31.40
  -4   0   6  147.09   46.60
   4   0  -6  183.98   27.00
   3   0  -6  550.24   33.90
  -3   0   6  568.04   29.00
   3   0  -6  566.24   37.80
   3   0  -6  550.94   34.60
  -3   0   6  609.04   56.19
   2   0  -6  728.53   45.00
  -2   0   6  805.32   36.50
  -2   0   6  792.62   51.79
   2   0  -6  826.92   42.40
   2   0  -6  790.02   41.90
   1   0  -6 1364.86   55.19
  -1   0   6 1312.77   53.59
  -1   0   6 1330.17   65.79
   1   0  -6 1440.36   62.59
   1   0  -6 1339.67   54.39
   1   0  -6 1394.06   49.70
   0   0  -6 3664.13  107.89
   0   0   6 3548.55  113.99
   0   0  -6 3506.05  101.99
   1   0   6  144.89   25.90
  -1   0  -6  138.19   21.20
   1   0   6  138.69   17.20
   1   0   6  261.07   42.10
   2   0   6  774.82   31.90
  -2   0  -6  799.92   37.30
   2   0   6  764.22   44.10
   2   0   6  655.93   65.29
  -3   0  -6  633.54   37.10
   3   0   6  640.64   28.60
   3   0   6  597.54   41.60
   4   0   6   29.80   16.60
   4   0   6  -55.89   25.30
   5   0   6  670.23   32.20
   5   0   6  617.14   45.50
   6   0   6   22.10   34.60
   6   0   6  -25.60   20.00
   7   0   6   18.80   43.40
   8  -1  -6  -48.70   30.60
   8   1  -6  -70.09   28.40
   8   1  -6   22.10   25.60
   7  -1  -6  180.68   34.50
   7  -1  -6  154.88   33.10
   7   1  -6  188.88   28.60
   7   1  -6  210.38   30.20
   6  -1  -6  275.17   36.00
   6  -1  -6  295.27   38.20
   6   1  -6  290.27   31.50
   5  -1  -6   75.79   24.60
   5   1  -6   47.20   22.40
  -4  -1   6 1200.18   62.99
   4  -1  -6 1182.88   53.19
  -4  -1   6 1170.58   48.40
   4   1  -6 1098.09   48.90
  -3  -1   6  374.36   50.19
   3  -1  -6  429.86   34.00
  -3  -1   6  436.66   30.30
   3   1  -6  400.06   29.80
   3   1  -6  423.46   43.90
   2  -1  -6  357.86   45.80
  -2  -1   6  503.85   49.70
  -2  -1   6  528.45   42.40
  -2  -1   6  472.65   31.30
   2  -1  -6  496.85   33.30
  -2   1   6  463.95   29.00
   2   1  -6  513.35   46.10
  -2   1   6  479.95   58.19
   2   1  -6  477.15   28.00
  -1  -1   6  255.17   27.80
  -1  -1   6  263.47   32.30
   1  -1  -6  265.47   36.00
   1  -1  -6  285.37   29.20
  -1  -1   6  326.77   45.80
   1   1  -6  253.27   22.90
  -1   1   6  299.57   30.60
   1   1  -6  307.87   42.50
  -1   1   6  248.48   44.80
   0  -1   6   41.40   18.30
   0  -1   6   92.89   22.40
   0  -1  -6   32.10   20.10
   0  -1  -6   12.90   24.00
   0  -1   6   58.99   38.50
   0   1   6    8.70   36.70
   0   1   6   34.70   16.00
   0   1  -6   25.70   38.00
   0   1   6   42.30   21.70
   0   1  -6   30.80   16.00
   0   1  -6   30.60   16.80
  -1  -1  -6  455.45   37.10
  -1  -1  -6  434.46   29.10
  -1  -1  -6  472.65   36.00
   1  -1   6  520.55   34.60
   1   1   6  468.25   28.30
   1   1   6  442.96   51.39
   1   1   6  458.85   35.90
  -2  -1  -6   44.50   41.40
   2  -1   6  109.69   22.60
   2   1   6   46.20   44.50
   2   1   6  124.09   19.60
   3  -1   6  592.64   38.30
   3   1   6  554.24   31.10
   4  -1   6   50.59   24.70
   4   1   6   16.20   16.80
   5  -1   6   51.19   27.20
   5   1   6   31.00   30.20
   5   1   6   71.79   20.00
   6  -1   6  155.48   32.40
   6   1   6   89.89   32.40
   6   1   6  128.19   24.20
   7  -2  -6   22.10   36.10
   7  -2  -6   82.69   38.00
   7   2  -6   87.69   27.10
   7   2  -6  108.39   25.00
   6  -2  -6  140.39   33.90
   6   2  -6  166.88   24.90
   6   2  -6  185.38   27.30
   5  -2  -6  134.69   30.40
   5   2  -6  102.89   23.30
   5   2  -6   97.59   20.50
   4  -2  -6   91.79   27.90
   4   2  -6  115.69   22.70
   4   2  -6   92.39   20.40
  -3  -2   6  330.77   30.30
   3  -2  -6  268.17   33.80
  -3  -2   6  332.57   54.19
   3   2  -6  273.87   25.10
   3   2  -6  287.17   27.10
  -2  -2   6  328.97   30.00
   2  -2  -6  423.56   33.60
  -2  -2   6  328.97   53.99
   2   2  -6  362.96   24.70
   2   2  -6  301.27   27.90
  -2   2   6  402.26   30.80
  -1  -2   6  530.55   33.50
   1  -2  -6  529.85   39.80
  -1   2   6  449.36   30.30
   1   2  -6  555.94   26.00
   1   2  -6  511.45   31.10
   0  -2  -6 1380.76   57.69
   0  -2   6 1426.76   56.19
   0  -2  -6 1122.49   63.39
   0  -2   6 1333.97   54.99
   0   2   6 1393.36   54.39
   0   2  -6 1236.18   50.89
   1  -2   6    9.70   26.30
  -1  -2  -6   32.00   31.40
  -1  -2  -6   38.20   23.70
   1  -2   6   68.49   22.50
   1   2   6   56.09   17.00
  -1   2  -6   30.00   20.20
   2  -2   6  414.86   33.40
  -2  -2  -6  287.77   38.50
  -2  -2  -6  321.37   36.70
   2  -2   6  372.46   33.40
   2   2   6  328.77   26.80
   3  -2   6  306.77   42.20
  -3  -2  -6  289.37   44.90
   3  -2   6  323.77   32.40
   3   2   6  337.47   28.10
   4  -2   6   -9.10   22.80
   4   2   6   15.50   19.50
   5  -2   6  312.07   34.40
   5   2   6  363.16   30.10
   6  -2   6   -9.10   31.40
   6   2   6   19.80   24.60
   6  -3  -6   63.89   41.70
   6   3  -6  122.79   25.60
   6   3  -6  118.99   31.00
   5  -3  -6   -6.30   33.80
   5   3  -6   19.80   26.70
   5   3  -6   21.90   21.00
   4  -3  -6  359.96   41.70
   4   3  -6  382.06   29.80
   4   3  -6  347.67   34.30
  -3  -3   6  107.99   25.60
   3  -3  -6   96.29   29.10
   3   3  -6  125.99   21.00
   3   3  -6  113.39   27.50
  -2  -3   6  151.18   24.20
   2  -3  -6   97.69   29.30
   2   3  -6  146.89   25.80
   2   3  -6   86.99   19.20
  -1  -3   6   80.09   24.00
   1  -3  -6   51.49   25.90
   1   3  -6   43.30   26.70
   1   3  -6   55.89   16.50
  -1   3   6   53.89   19.10
   0  -3  -6   44.10   27.80
   0  -3   6   17.50   21.30
   0   3   6   30.40   20.10
   0   3  -6  -19.70   25.10
   1  -3   6  105.39   23.30
  -1  -3  -6   84.59   27.70
   1   3   6  116.99   21.50
  -2  -3  -6   32.40   28.00
   2  -3   6   32.90   22.80
   2   3   6   46.80   22.20
   3  -3   6  137.89   25.90
  -3  -3  -6  127.69   35.30
   3   3   6  201.28   28.50
   4  -3   6   -3.40   28.60
   4   3   6   50.69   26.30
   5  -3   6    7.60   34.50
   5  -3   6  -22.70   51.09
   5   3   6   -7.80   26.30
   4  -4  -6   18.60   40.10
   4   4  -6   78.59   33.20
   4   4  -6   -3.70   26.60
   3  -4  -6   65.69   36.70
   3   4  -6   52.39   24.30
   3   4  -6   57.89   35.00
  -2  -4   6  -28.60   40.30
   2  -4  -6   39.70   34.40
   2   4  -6   81.39   33.70
   2   4  -6   62.99   21.40
   1  -4  -6   79.09   33.00
  -1  -4   6  122.79   41.70
  -1  -4   6   82.79   26.90
   1   4  -6   91.89   30.80
  -1   4   6   51.79   22.10
   0  -4  -6  252.97   43.50
   0  -4   6  215.38   33.00
   0  -4   6  137.79   44.80
   0   4   6  259.87   34.60
  -1  -4  -6    3.40   35.20
   1  -4   6   30.30   28.20
   1   4   6  -12.40   24.30
   2  -4   6   -4.70   48.00
  -2  -4  -6   61.59   36.20
   2  -4   6   82.39   31.20
   2   4   6   50.19   27.30
   3  -4   6   50.79   50.19
   3  -4   6   50.89   33.60
   3   4   6  102.39   28.20
   8   0  -7   48.60   32.10
   7   0  -7  160.08   29.90
   6   0  -7   84.29   22.30
   6   0  -7    8.40   28.30
   5   0  -7  353.56   35.50
   5   0  -7  351.86   30.80
   5   0  -7  359.56   43.30
   4   0  -7   99.69   23.20
   4   0  -7   63.79   24.60
   4   0  -7  103.79   33.40
  -4   0   7  124.19   53.59
  -4   0   7   83.09   18.30
  -3   0   7  227.78   22.60
   3   0  -7  223.78   26.40
   3   0  -7  224.38   36.00
   3   0  -7  198.68   28.00
  -3   0   7  156.88   51.09
   2   0  -7  167.78   36.00
   2   0  -7  106.29   20.10
  -2   0   7   70.59   41.00
  -2   0   7   98.69   20.20
   2   0  -7   73.69   25.80
  -1   0   7  167.48   25.50
  -1   0   7  161.78   44.50
   1   0  -7  128.99   28.30
   1   0  -7  200.58   20.50
   1   0  -7  200.28   39.60
   0   0   7 1336.27   56.29
   0   0  -7 1353.56   44.60
   0   0  -7 1427.66   54.69
  -1   0  -7  146.99   23.70
   1   0   7  108.69   24.10
   2   0   7  965.80   38.20
   2   0   7  924.51   48.60
  -2   0  -7  959.20   45.90
   3   0   7  111.19   28.10
  -3   0  -7   68.29   28.10
   3   0   7  127.49   20.00
   4   0   7   52.19   29.70
   4   0   7   61.59   18.70
   5   0   7  548.25   45.10
   5   0   7  496.35   30.70
   6   0   7   24.40   38.20
   8  -1  -7  -31.10   31.40
   8   1  -7  -27.20   30.30
   8   1  -7   18.70   27.10
   7  -1  -7  353.86   43.60
   7  -1  -7  362.06   41.00
   7   1  -7  318.27   34.20
   7   1  -7  375.56   36.20
   6  -1  -7  104.89   28.90
   6  -1  -7   92.49   30.10
   6   1  -7  150.58   27.60
   5  -1  -7   -1.10   25.10
   5  -1  -7    8.40   25.40
   5   1  -7   22.70   21.60
   4  -1  -7  888.51   46.10
  -4  -1   7  880.41   41.20
  -4  -1   7  879.21   67.69
   4   1  -7  875.81   42.90
   3  -1  -7  582.54   38.90
  -3  -1   7  533.05   33.90
  -3  -1   7  511.55   58.89
  -3   1   7  576.44   27.40
   3   1  -7  564.34   33.60
  -2  -1   7  924.31   43.20
   2  -1  -7  916.41   46.80
  -2  -1   7  909.01   65.19
  -2   1   7  876.91   38.70
   2   1  -7  922.31   39.30
  -1  -1   7  647.64   35.80
   1  -1  -7  565.84   37.30
   1   1  -7  608.84   29.50
  -1   1   7  598.44   34.40
   0  -1  -7   20.30   23.20
   0  -1   7   20.40   19.40
   0   1   7  -34.70   22.10
   0   1  -7   26.50   18.10
   0   1   7   32.50   14.20
   0   1  -7   32.10   16.70
  -1  -1  -7  234.88   26.40
   1  -1   7  283.17   29.60
  -1  -1  -7  217.88   28.70
   1   1   7  225.58   30.90
   1   1   7  235.18   24.30
   2  -1   7  450.85   34.70
   2   1   7  454.95   36.70
   2   1   7  459.35   28.10
   3  -1   7  207.08   30.00
   3   1   7  160.58   31.70
   3   1   7  160.08   24.90
   4  -1   7  115.19   28.30
   4   1   7  101.09   21.70
   4   1   7  126.59   28.70
   5  -1   7   75.69   30.60
   5   1   7   -9.40   22.70
   5   1   7   26.60   30.70
   6  -1   7   28.70   33.90
   6   1   7   25.00   38.00
   6   1   7   16.50   27.90
   7  -2  -7  162.88   39.50
   7  -2  -7   63.89   37.50
   7   2  -7  113.29   29.80
   7   2  -7  165.58   27.20
   6  -2  -7   84.79   33.20
   6   2  -7   -7.30   21.10
   6   2  -7   -1.10   24.50
   5  -2  -7  241.78   36.00
   5   2  -7  216.88   26.90
   5   2  -7  168.18   26.70
   4  -2  -7   53.79   26.50
  -4  -2   7   66.89   21.00
   4   2  -7   43.90   21.80
   4   2  -7   41.00   19.10
  -3  -2   7   76.89   22.80
   3  -2  -7  111.49   27.70
   3   2  -7   57.29   20.30
   3   2  -7  102.29   20.20
   2  -2  -7   61.59   26.30
  -2  -2   7   92.19   22.00
  -2   2   7   34.00   22.00
   2   2  -7   23.00   19.40
   2   2  -7   55.79   17.50
  -1  -2   7  124.39   24.20
   1  -2  -7  101.59   25.60
  -1   2   7  147.29   22.30
   1   2  -7  104.89   21.90
   1   2  -7  123.39   18.30
  -1   2   7   71.59   22.80
   0  -2   7  684.43   43.70
   0  -2   7  722.83   39.70
   0  -2  -7  672.23   41.40
   0   2  -7  709.83   36.60
   0   2   7  695.13   37.90
  -1  -2  -7   68.69   35.00
   1  -2   7   92.39   24.40
  -1  -2  -7  142.29   27.30
   1  -2   7  136.29   29.10
   1   2   7  131.89   22.30
  -2  -2  -7  579.34   42.30
   2  -2   7  541.95   37.80
   2  -2   7  538.55   35.50
   2   2   7  540.05   32.70
   3  -2   7   81.49   26.00
   3   2   7   79.49   20.20
   4  -2   7    2.00   28.70
   4   2   7   92.79   22.90
   5  -2   7  337.17   37.40
   5   2   7  303.17   35.70
   6  -3  -7   72.29   40.30
   6   3  -7   91.69   31.60
   6   3  -7   29.10   25.00
   5  -3  -7   25.80   34.00
   5   3  -7   -7.30   21.70
   5   3  -7   -4.60   27.80
   4  -3  -7  319.87   39.80
   4   3  -7  299.57   28.60
   4   3  -7  290.87   34.20
  -3  -3   7  129.69   26.10
   3  -3  -7  230.88   35.70
   3   3  -7  212.78   26.60
   3   3  -7  163.58   28.20
   2  -3  -7  287.77   36.90
  -2  -3   7  222.98   30.90
  -2   3   7  224.58   29.70
   2   3  -7  304.97   25.30
   2   3  -7  305.37   32.10
  -1  -3   7  143.29   25.30
   1  -3  -7  157.08   30.50
   1   3  -7  207.78   30.70
  -1   3   7  113.69   22.00
   1   3  -7  111.29   17.50
   0  -3   7  -30.10   22.20
   0  -3  -7   12.60   28.10
   0   3   7   11.90   20.50
   0   3  -7    8.10   26.50
   1  -3   7   62.99   23.60
  -1  -3  -7   35.70   28.40
   1   3   7   37.60   23.70
  -2  -3  -7  121.19   33.10
   2  -3   7  206.88   31.40
   2   3   7  159.98   26.20
   3  -3   7   66.49   29.50
   3   3   7   55.59   24.50
   4  -3   7   28.00   30.60
   4   3   7   43.10   25.80
   3  -4  -7   44.70   35.80
   3   4  -7   33.00   35.20
   3   4  -7   10.50   26.60
  -2  -4   7    1.60   43.40
   2  -4  -7    1.20   36.20
  -2  -4   7  -26.70   28.00
   2   4  -7   64.99   34.90
  -1  -4   7  -15.90   48.20
  -1  -4   7    5.20   25.70
   1  -4  -7   56.79   36.90
   1   4  -7   53.59   32.20
  -1   4   7    9.10   22.50
   0  -4   7  143.49   30.60
   0  -4   7  212.08   52.69
   0  -4  -7  107.59   36.40
   0   4   7  120.39   29.10
   1  -4   7   43.60   31.30
  -1  -4  -7   33.00   34.70
   1  -4   7   -3.70   52.99
   1   4   7   60.09   27.50
   2  -4   7  101.79   33.80
   2  -4   7  111.49   55.29
  -2  -4  -7   31.20   39.90
   2   4   7  126.19   32.40
   8   0  -8  111.49   34.20
   7   0  -8  125.19   29.60
   6   0  -8   -2.90   29.70
   6   0  -8   14.90   24.30
   5   0  -8  546.85   35.10
   5   0  -8  600.34   40.70
   4   0  -8   23.70   20.20
   4   0  -8   17.80   25.30
  -4   0   8   42.20   19.50
   4   0  -8   33.50   40.40
  -3   0   8  246.18   24.70
   3   0  -8  274.47   44.30
   3   0  -8  240.78   32.20
   3   0  -8  287.87   27.70
  -2   0   8   24.20   19.80
   2   0  -8   25.20   40.70
   2   0  -8   56.69   18.60
   1   0  -8   76.59   28.90
  -1   0   8    2.10   21.30
   1   0  -8   -0.20   16.40
   0   0  -8  507.15   25.40
   0   0   8  542.45   36.00
   0   0  -8  486.05   37.00
  -1   0  -8   54.09   26.40
   1   0   8   72.19   25.30
  -2   0  -8  551.84   43.40
   2   0   8  591.04   28.60
   2   0   8  581.74   38.50
   3   0   8   30.50   17.60
  -3   0  -8   -5.80   31.50
   3   0   8   18.90   26.00
   4   0   8   63.39   19.60
   4   0   8   80.49   29.60
   5   0   8  182.78   35.60
   6   0   8   63.49   37.80
   7  -1  -8  259.07   38.80
   7   1  -8  292.17   36.90
   6  -1  -8   77.19   32.70
   6  -1  -8   12.20   28.20
   6   1  -8  112.29   27.90
   5  -1  -8  179.78   31.30
   5  -1  -8  100.09   27.90
   5   1  -8  132.59   25.90
  -4  -1   8  342.37   29.00
   4  -1  -8  295.87   37.20
   4   1  -8  311.67   31.10
   3  -1  -8  204.48   30.60
   3   1  -8  193.98   26.60
  -3   1   8  200.38   23.70
  -2  -1   8  955.60   45.60
   2  -1  -8 1027.30   49.20
  -2   1   8 1060.79   42.30
   2   1  -8  980.10   41.70
  -1  -1   8  762.02   40.30
   1  -1  -8  783.22   43.70
  -1   1   8  748.83   38.50
   1   1  -8  684.13   41.30
   1   1  -8  743.53   33.10
   0  -1  -8  176.68   29.20
   0  -1   8  180.38   26.80
   0   1   8  207.28   22.10
   0   1   8  190.48   31.50
   0   1  -8  193.68   21.50
   0   1  -8  209.58   25.40
   1  -1   8  344.47   32.90
   1   1   8  319.27   28.00
   1   1   8  363.66   36.60
   2  -1   8  235.18   29.20
   2   1   8  246.68   25.50
   3  -1   8   86.99   25.00
   3   1   8   65.99   19.80
   3   1   8  113.39   31.10
   4  -1   8  302.07   35.30
   4   1   8  268.27   41.10
   4   1   8  300.67   30.00
   5  -1   8   49.10   30.70
   5   1   8   19.40   35.00
   5   1   8   41.60   25.80
   6  -1   8   34.40   32.30
   6   1   8   -3.10   43.10
   6   1   8   58.79   39.60
   7  -2  -8   -1.80   34.50
   7  -2  -8  111.19   41.10
   7   2  -8   59.69   27.10
   7   2  -8   33.80   29.00
   6  -2  -8   11.60   35.70
   6   2  -8   10.60   22.10
   6   2  -8   37.00   27.60
   5  -2  -8  345.57   43.30
   5   2  -8  341.77   33.40
   5   2  -8  351.56   31.90
  -4  -2   8  -46.80   20.80
   4  -2  -8  -28.60   27.90
   4   2  -8   11.70   19.80
   4   2  -8   17.60   22.70
  -3  -2   8  143.49   26.50
   3  -2  -8  131.79   27.70
   3   2  -8  127.89   23.90
   3   2  -8  133.09   22.70
  -2  -2   8  -12.90   19.70
   2  -2  -8   -7.50   24.80
  -2   2   8    1.70   19.20
   2   2  -8   33.90   21.40
   2   2  -8   26.00   17.60
  -1  -2   8   -9.40   21.20
   1  -2  -8    2.40   26.20
   1   2  -8   -6.90   14.50
   1   2  -8   -1.50   20.30
  -1   2   8   -3.00   25.40
   0  -2   8  242.58   28.20
   0  -2   8  156.88   35.40
   0  -2  -8  214.28   33.00
   0   2   8  206.58   30.60
   0   2  -8  251.77   30.00
   0   2   8  205.38   27.50
   1  -2   8  -15.50   45.80
  -1  -2  -8   28.10   29.10
   1  -2   8    7.20   21.10
  -1  -2  -8   55.69   37.90
   1   2   8   18.30   19.80
   1   2   8  -10.00   26.70
   2  -2   8  384.16   36.80
   2   2   8  377.26   30.70
   3  -2   8    7.30   25.80
   3   2   8  -15.30   20.40
   4  -2   8   60.79   31.00
   4   2   8   77.39   25.90
   4   2   8  -72.19   34.00
   5  -2   8  168.98   39.50
   5   2   8  172.88   30.80
   5   2   8   85.69   39.40
   5  -3  -8   14.10   37.80
   5   3  -8   88.69   25.30
   5   3  -8   25.40   29.80
   4  -3  -8   20.00   32.00
   4   3  -8  114.39   28.00
   4   3  -8  106.79   23.00
   3  -3  -8   31.00   32.70
  -3  -3   8   33.60   24.80
   3   3  -8   70.69   20.40
   3   3  -8   22.20   27.00
  -2  -3   8  306.87   35.40
   2  -3  -8  393.36   41.20
   2   3  -8  326.07   35.40
   2   3  -8  314.07   27.80
  -2   3   8  328.07   37.40
  -1  -3   8  269.77   33.30
   1  -3  -8  219.78   37.30
  -1   3   8  252.97   32.80
  -1   3   8  231.98   26.90
   1   3  -8  180.18   32.40
   0  -3  -8   67.59   31.80
   0  -3   8   63.19   25.60
   0   3   8   26.40   22.70
   0   3  -8   41.40   28.90
   1  -3   8   90.59   26.00
  -1  -3  -8  102.29   31.40
   1   3   8  121.49   25.00
   2  -3   8  111.09   27.50
  -2  -3  -8  134.39   35.60
   2   3   8   82.09   25.80
   3  -3   8   17.30   30.30
   3   3   8   74.59   26.30
   4  -3   8   39.30   34.30
   4   3   8   84.09   28.20
   2  -4  -8   26.40   39.90
  -2  -4   8   23.20   29.70
  -2  -4   8  -46.60   50.59
   2   4  -8   21.50   38.60
   1  -4  -8  -48.90   37.40
  -1  -4   8  -26.90   27.80
   1   4  -8  -22.60   34.10
   0  -4  -8   73.19   41.30
   0  -4   8   59.39   31.80
   0   4   8   47.30   23.20
  -1  -4  -8  -53.69   39.90
   1  -4   8   26.00   34.00
   7   0  -9    9.90   29.10
   6   0  -9   20.10   25.00
   5   0  -9  479.85   37.40
   5   0  -9  518.15   34.70
  -4   0   9   55.29   21.90
   4   0  -9   98.39   51.99
   4   0  -9   25.00   24.40
   4   0  -9   38.80   21.60
  -3   0   9  549.45   32.80
   3   0  -9  597.54   33.10
  -2   0   9  130.19   24.10
   2   0  -9  115.19   20.50
   1   0  -9  -25.50   15.80
  -1   0   9   20.60   22.10
   0   0   9  257.57   30.10
   1   0   9   71.79   25.30
  -1   0  -9  141.09   32.50
  -2   0  -9  261.67   38.60
   2   0   9  297.17   32.80
   3   0   9  -22.70   16.30
   3   0   9   24.30   26.80
   4   0   9   84.49   29.40
   4   0   9   47.10   23.10
   5   0   9   16.90   32.00
   7  -1  -9   81.49   32.50
   7  -1  -9   50.19   38.40
   7   1  -9   89.09   29.30
   6  -1  -9   33.70   31.40
   6  -1  -9   95.99   31.70
   6   1  -9   69.19   27.10
  -5  -1   9  134.59   26.40
   5  -1  -9  171.68   30.50
   5  -1  -9   91.29   30.60
   5   1  -9  114.99   25.50
   4  -1  -9   73.29   26.30
  -4  -1   9   80.39   24.50
   4  -1  -9   66.29   23.70
   4   1  -9   60.79   22.50
   3  -1  -9   -6.90   24.10
  -3  -1   9   12.60   21.50
   3   1  -9   14.20   18.70
  -3   1   9   28.20   19.60
  -2  -1   9  332.07   33.00
   2  -1  -9  356.46   35.50
  -2   1   9  377.46   29.20
   2   1  -9  364.56   26.90
   1  -1  -9  371.86   36.10
  -1  -1   9  416.16   33.10
   1   1  -9  409.56   26.40
  -1   1   9  339.27   32.00
   1   1  -9  285.27   38.50
   0  -1  -9  305.37   39.20
   0  -1  -9  332.67   32.20
   0  -1   9  264.97   29.80
   0   1   9  308.97   31.70
   0   1  -9  296.57   33.10
   0   1  -9  296.77   23.30
   1  -1   9  468.75   34.50
   1   1   9  431.76   28.80
   1   1   9  425.76   41.10
   2  -1   9   41.00   24.30
   2   1   9   35.20   22.40
   2   1   9   15.00   29.10
   3  -1   9   52.39   25.70
   3   1   9   44.40   31.60
   4  -1   9  256.87   35.30
   4   1   9  351.56   44.60
   4   1   9  336.77   33.80
   5  -1   9  -12.40   31.40
   5   1   9  -12.60   40.70
   5   1   9   47.80   27.60
   6  -2  -9   55.89   39.90
   6   2  -9   21.70   27.20
   6   2  -9   18.10   24.70
   5  -2  -9  411.06   43.40
   5   2  -9  385.06   33.40
   5   2  -9  385.06   34.30
   4  -2  -9    8.60   30.80
  -4  -2   9   29.60   23.50
   4   2  -9   26.80   23.40
   4   2  -9   28.10   21.60
  -3  -2   9  338.97   34.80
   3  -2  -9  329.67   39.00
   3   2  -9  316.77   29.60
   3   2  -9  336.17   29.70
   2  -2  -9   39.80   25.10
  -2  -2   9   38.90   23.10
  -2   2   9   16.90   21.20
   2   2  -9   54.49   22.00
   2   2  -9   48.00   19.20
  -1  -2   9   62.59   24.10
   1  -2  -9   31.20   25.70
  -1   2   9    9.30   26.00
   1   2  -9   11.20   22.70
   1   2  -9  -14.80   15.50
   0  -2   9  100.39   23.90
   0  -2  -9   98.39   30.00
   0   2   9  111.89   20.60
   0   2  -9  110.49   27.40
   0   2   9  142.29   31.00
   1  -2   9   -6.50   22.90
  -1  -2  -9   72.59   29.50
   1   2   9  -37.20   20.70
   1   2   9   13.40   30.00
   2   2   9  100.39   30.10
   3  -2   9    7.00   28.90
   3   2   9  -14.30   24.30
   3   2   9   14.60   31.60
   4  -2   9  106.39   35.50
   4   2   9   24.60   26.30
   4   2   9   68.89   36.10
   5  -3  -9   -1.60   38.70
   5   3  -9   16.20   26.00
   5   3  -9   11.50   31.70
  -4  -3   9   -7.70   28.20
   4  -3  -9   26.70   35.40
   4   3  -9    7.10   24.70
   4   3  -9    9.30   28.40
  -3  -3   9   17.30   26.60
   3  -3  -9   32.50   32.40
   3   3  -9  -39.50   25.80
   3   3  -9   27.30   21.40
   2  -3  -9  113.79   34.80
  -2  -3   9  111.49   29.20
   2   3  -9  124.59   23.00
   2   3  -9  112.99   31.10
  -1  -3   9  207.98   32.90
   1  -3  -9  107.99   34.90
   1   3  -9  117.49   34.20
  -1   3   9  165.48   36.30
   0  -3   9  118.89   27.90
   0  -3  -9  109.19   33.00
   0   3   9   97.39   21.30
   0   3   9  113.79   30.90
   0   3  -9   91.89   30.20
   1  -3   9  118.49   28.00
  -1  -3  -9   70.69   36.20
   1   3   9  110.19   27.80
   1   3   9  110.39   34.40
   2  -3   9   29.10   27.80
  -2  -3  -9   15.50   34.20
   2   3   9   29.50   26.50
   2   3   9   -2.50   36.30
   3  -3   9   54.09   33.40
   3   3   9   52.09   31.40
   3   3   9   -9.40   39.60
   7   0 -10    7.60   30.50
   6   0 -10  108.99   28.40
  -5   0  10  241.38   30.40
   5   0 -10  245.78   32.40
   4   0 -10   33.60   22.50
  -4   0  10   30.60   22.40
  -3   0  10  628.74   35.50
   3   0 -10  715.33   36.80
  -2   0  10  119.49   24.70
  -1   0  10  173.58   28.90
   1   0 -10  195.48   23.70
   0   0  10  200.48   29.90
   1   0  10   71.39   24.90
   2   0  10  145.09   28.10
   3   0  10  102.99   29.50
   4   0  10   26.40   32.50
   5   0  10    2.20   35.10
   7  -1 -10  -19.30   45.80
   7  -1 -10   15.00   32.10
   7   1 -10   36.80   31.00
   6  -1 -10   82.79   31.70
   6  -1 -10  113.09   36.50
   6   1 -10  188.58   30.00
   5  -1 -10   12.90   30.10
   5  -1 -10   71.19   31.20
  -5  -1  10   -9.50   23.70
   5   1 -10   56.19   25.10
   4  -1 -10   27.40   27.30
  -4  -1  10   76.79   25.10
   4  -1 -10  109.19   29.50
   4   1 -10   34.00   21.20
  -4   1  10   31.50   20.50
   3  -1 -10   13.30   28.80
   3  -1 -10  -23.60   24.90
  -3  -1  10   38.30   22.70
  -3   1  10  -12.50   21.80
   3   1 -10   24.80   21.10
  -2  -1  10   32.10   24.10
   2  -1 -10   -0.80   22.70
   2  -1 -10   63.69   27.60
  -2   1  10   56.79   22.40
   2   1 -10   68.69   20.00
  -1  -1  10  200.78   28.60
   1  -1 -10  111.59   25.10
   1  -1 -10  132.69   24.20
  -1   1  10  194.98   28.20
   1   1 -10  115.89   20.20
   0  -1  10  232.28   30.00
   0  -1 -10  148.59   21.90
   0   1  10  197.68   31.00
   1  -1  10  283.67   31.00
   1   1  10  298.67   34.70
   2  -1  10   19.20   26.60
   2   1  10  -32.70   32.10
   2   1  10   21.50   18.80
   3  -1  10  111.89   28.80
   3   1  10   49.40   35.30
   3   1  10   99.59   26.40
   4  -1  10  109.79   31.00
   4   1  10   55.49   28.20
   4   1  10  166.18   41.20
   6  -2 -10   67.09   40.20
   6  -2 -10   46.40   35.50
   6   2 -10   80.09   29.30
   6   2 -10   16.30   28.50
   5  -2 -10  118.29   39.50
  -5  -2  10  149.79   30.30
   5   2 -10  136.49   27.40
   5   2 -10  146.49   30.10
   4  -2 -10   26.40   31.00
  -4  -2  10  -11.30   24.70
   4   2 -10   -7.50   22.40
   4   2 -10    2.90   23.10
  -3  -2  10  354.36   35.60
   3  -2 -10  390.66   40.70
   3   2 -10  396.96   32.80
   2  -2 -10   61.69   28.80
  -2  -2  10  143.69   27.00
   2   2 -10   71.29   24.20
  -2   2  10   69.59   23.30
   2   2 -10   61.19   20.80
  -1  -2  10   71.39   25.20
   1  -2 -10   30.80   28.80
   1   2 -10   66.79   23.80
  -1   2  10  107.09   26.70
   1   2 -10   74.79   18.10
   0  -2 -10  103.59   32.30
   0  -2  10  116.89   26.90
   0   2  10  147.79   34.10
   0   2 -10   92.19   27.30
   1  -2  10   72.69   26.80
  -1  -2 -10   50.59   29.90
   1   2  10   42.40   19.60
   1   2  10   55.49   33.50
   2  -2  10   52.39   30.90
   2   2  10  108.29   28.10
   2   2  10  103.89   36.10
   3  -2  10   88.49   34.50
   3   2  10   72.69   28.40
   3   2  10  -16.30   36.70
   4  -2  10   44.40   38.20
   4   2  10   28.70   42.30
   4   2  10   51.09   31.30
   4  -3 -10  -29.40   37.30
   4   3 -10   -9.30   26.70
   4   3 -10    5.30   30.60
   3  -3 -10   -1.50   37.90
  -3  -3  10  -10.70   28.40
   3   3 -10    3.50   29.30
   3   3 -10   17.90   30.20
  -2  -3  10   18.40   30.80
   2  -3 -10  -45.90   32.50
   2   3 -10    8.80   33.10
  -1  -3  10   56.29   27.80
   1  -3 -10   50.49   34.20
   1   3 -10   26.70   33.20
  -1   3  10   33.90   39.60
   0  -3 -10   82.79   36.50
   0  -3  10  114.79   29.90
   0   3  10   58.39   37.70
   0   3  10   51.59   24.50
   0   3 -10   68.59   31.80
   1  -3  10   55.09   30.10
  -1  -3 -10   14.90   38.90
   1   3  10  116.09   26.10
   1   3  10   85.49   39.60
   2  -3  10   65.59   30.80
   2   3  10  -28.20   29.90
   2   3  10    0.30   39.00
   6   0 -11  107.89   30.30
  -5   0  11   47.50   25.70
   5   0 -11   59.59   26.30
  -4   0  11   26.10   25.20
   4   0 -11   22.80   23.30
   3   0 -11  353.56   30.50
  -3   0  11  300.17   30.20
  -2   0  11   91.09   25.80
   2   0 -11   91.29   23.10
  -1   0  11  266.37   30.30
   1   0 -11  304.07   25.70
   0   0  11  239.98   32.40
   1   0  11   23.20   25.00
   2   0  11  120.79   30.10
   3   0  11  146.59   34.10
   4   0  11   21.80   34.20
   6  -1 -11  144.79   32.30
   6  -1 -11  172.88   41.80
   6   1 -11  169.28   31.00
   5  -1 -11  -11.20   29.70
  -5  -1  11    7.90   27.30
   5  -1 -11   45.50   36.30
   5   1 -11   -8.60   25.70
   4  -1 -11  128.79   31.50
  -4  -1  11  162.68   30.10
   4  -1 -11  130.09   35.20
   4   1 -11  247.68   31.80
   3  -1 -11   58.09   25.70
   3  -1 -11    8.90   30.80
  -3  -1  11   17.20   23.80
   3   1 -11   26.90   22.00
  -3   1  11  -18.80   24.10
  -2  -1  11   14.40   25.60
   2  -1 -11   12.10   25.20
   2  -1 -11   -8.70   25.30
   2   1 -11  -32.00   20.50
  -2   1  11   31.90   23.70
   1  -1 -11   66.59   24.40
  -1  -1  11  100.99   26.40
   1   1 -11   93.49   20.60
  -1   1  11   66.29   25.90
   0  -1  11   26.40   26.60
   0   1  11  -17.10   26.20
   1  -1  11  188.58   30.90
   1   1  11  132.79   30.50
   2  -1  11    0.20   27.20
   2   1  11  -56.69   28.70
   3  -1  11   28.20   30.90
   3   1  11   16.40   24.40
   4  -1  11   23.30   35.30
   4   1  11  113.49   39.90
   5  -2 -11   25.30   37.10
  -5  -2  11   30.90   31.00
   5  -2 -11    8.00   38.10
   5   2 -11   64.09   28.80
   5   2 -11   20.10   27.60
  -4  -2  11   23.30   28.30
   4  -2 -11   41.80   34.70
   4   2 -11   26.60   25.90
   4   2 -11   -7.00   25.00
  -3  -2  11  189.88   31.40
   3  -2 -11  124.39   32.30
   3   2 -11  193.98   28.90
  -2  -2  11   29.20   26.50
   2  -2 -11   82.89   31.80
  -2   2  11   73.29   26.80
   2   2 -11    2.40   22.10
   2   2 -11   57.89   25.80
  -1  -2  11  245.98   33.90
   1  -2 -11  160.58   35.00
  -1   2  11  222.08   33.50
   1   2 -11  226.88   32.50
   0  -2  11   86.49   27.70
   0  -2 -11   81.99   30.10
   0   2  11  106.49   30.40
   1  -2  11   -1.40   29.40
   1   2  11   37.20   22.20
   1   2  11  -10.90   37.50
   2  -2  11   43.90   31.50
   2   2  11   69.89   23.50
   2   2  11  142.09   41.10
   3  -2  11   44.00   39.10
   3   2  11  175.58   33.20
   3   2  11  109.79   44.20
  -3  -3  11   66.79   32.40
   3  -3 -11   26.20   37.10
   3   3 -11   29.50   32.60
  -2  -3  11  -49.90   32.60
   2  -3 -11   23.50   38.00
   2   3 -11   45.20   34.80
   1  -3 -11    6.80   37.10
  -1  -3  11    0.70   31.40
   1   3 -11  -48.10   37.90
   0  -3 -11  -24.50   40.20
   0  -3  11   65.99   31.70
   0   3  11  -75.09   42.80
   6   0 -12    5.40   32.70
   5   0 -12   -3.60   28.40
   4   0 -12   12.50   26.50
  -4   0  12  -18.00   26.00
  -3   0  12   91.89   25.30
   3   0 -12   92.59   26.40
  -2   0  12    7.30   25.80
   2   0 -12   18.10   22.80
   1   0 -12  247.28   27.10
  -1   0  12  270.47   33.40
   0   0  12   84.89   28.30
   1   0  12   19.00   27.80
   2   0  12   78.69   31.30
   3   0  12   28.40   30.90
  -5  -1  12   29.10   30.30
   5  -1 -12   38.50   30.60
   5  -1 -12   22.70   39.30
   5   1 -12   42.10   28.70
   4  -1 -12  309.87   46.90
   4  -1 -12  320.87   37.90
  -4  -1  12  281.37   37.60
   4   1 -12  254.87   35.70
   3  -1 -12   10.70   27.10
   3  -1 -12  -14.60   28.90
  -3  -1  12   24.10   26.50
  -3   1  12   57.69   26.20
   3   1 -12   -9.50   23.20
  -2  -1  12   62.39   29.30
   2  -1 -12   51.69   26.10
   2   1 -12   41.70   23.70
  -2   1  12  103.49   27.30
   1  -1 -12   55.19   22.00
  -1  -1  12   33.00   29.00
  -1   1  12   33.70   28.30
   1   1 -12   33.90   23.70
   0  -1  12   -2.20   30.20
   0   1  12   -5.10   27.10
   1  -1  12  144.99   30.00
   1   1  12   82.59   31.20
   2  -1  12  -48.70   27.70
   2   1  12    0.20   32.30
   3  -1  12  116.19   35.40
   3   1  12   -6.80   36.00
   4  -2 -12   32.40   35.90
   4  -2 -12   65.39   39.90
  -4  -2  12    2.90   31.00
   4   2 -12    8.80   28.80
   4   2 -12  -33.10   28.00
   3  -2 -12   42.60   39.40
  -3  -2  12    6.60   30.30
   3   2 -12   41.10   26.40
   3   2 -12   49.40   29.10
   2  -2 -12  -42.80   35.30
  -2  -2  12  -10.60   28.90
   2   2 -12   40.70   27.80
  -1  -2  12  256.87   37.30
   1  -2 -12  181.68   39.10
   0  -2  12   -7.20   30.00
   0   2  12   26.70   31.00
   1  -2  12   -0.40   32.90
   1   2  12   -8.20   34.90
   5   0 -13   71.89   32.70
  -4   0  13   24.00   30.50
   4   0 -13   64.39   29.00
   3   0 -13   47.40   27.70
  -3   0  13  -62.89   28.40
   2   0 -13    0.60   24.40
  -2   0  13   64.69   31.70
  -1   0  13   96.79   32.30
   0   0  13   49.40   28.50
   1   0  13  -18.40   31.20
   2   0  13   44.60   34.50
  -4  -1  13  111.39   32.90
   4   1 -13   91.39   27.90
   3  -1 -13  -24.10   26.80
  -3  -1  13   54.99   30.20
   3   1 -13  -25.60   27.50
   2  -1 -13  109.59   26.50
  -2  -1  13  105.99   28.60
  -2   1  13  122.69   33.10
   2   1 -13   63.89   32.10
  -1  -1  13  -11.10   31.30
  -1   1  13  122.59   33.60
   0  -1  13  -30.30   29.90
   0   1  13   38.50   30.90
   1  -1  13  106.09   34.20
   1   1  13   74.69   32.20
   2  -2 -13   45.30   36.40
   2  -2 -13   72.59   62.49
  -2  -2  13   81.59   33.20
  -1  -2  13   61.09   32.40
  -1   2  13   25.00   43.80
  -3   0  14   33.50   33.70
  -2   0  14  -29.00   33.90
  -1   0  14  -51.09   35.10
   0   0  14   26.80   33.80
  -2  -1  14  104.09   34.80
  -2   1  14   59.59   36.90
  -1  -1  14   48.60   36.00
  -1   1  14   15.70   33.20
   0   0   0    0.00    0.00

_computing_structure_solution     'SHELXT 2014/5 (Sheldrick, 2014)'
;
_shelx_hkl_checksum              61288
loop_
_space_group_symop_operation_xyz
'x, y, z'
'-x, y+1/2, -z'
'-x, -y, -z'
'x, -y-1/2, z'
loop_
_atom_site_label
_atom_site_type_symbol
_atom_site_fract_x
_atom_site_fract_y
_atom_site_fract_z
_atom_site_U_iso_or_equiv
_atom_site_adp_type
_atom_site_occupancy
_atom_site_site_symmetry_order
_atom_site_calc_flag
_atom_site_refinement_flags_posn
_atom_site_refinement_flags_adp
_atom_site_refinement_flags_occupancy
_atom_site_disorder_assembly
_atom_site_disorder_group
Mo Mo 0.30009(18) 0.7500 0.99415(11) 0.0297(4) Uani 1 2 d S T P A .
K1 K 0.329(8) 0.7500 1.463(4) 0.136(17) Uani 0.181(3) 2 d S T P A 1
K2 K 0.154(9) 0.7500 1.473(3) 0.19(2) Uani 0.199(3) 2 d S T P A 2
S1 S 0.1278(5) 0.2500 1.1434(3) 0.0317(7) Uani 1 2 d S T P . .
S2 S 0.6434(5) 0.7500 1.1844(3) 0.0326(7) Uani 1 2 d S T P . .
loop_
_atom_site_aniso_label
_atom_site_aniso_U_11
_atom_site_aniso_U_22
_atom_site_aniso_U_33
_atom_site_aniso_U_23
_atom_site_aniso_U_13
_atom_site_aniso_U_12
Mo 0.0231(6) 0.0301(6) 0.0358(7) 0.000 0.0054(4) 0.000
K1 0.17(4) 0.19(4) 0.059(18) 0.000 0.04(3) 0.000
K2 0.26(7) 0.26(6) 0.032(15) 0.000 -0.03(3) 0.000
S1 0.0252(14) 0.0313(16) 0.0392(16) 0.000 0.0078(12) 0.000
S2 0.0270(14) 0.0318(16) 0.0395(17) 0.000 0.0076(12) 0.000
loop_
_atom_type_symbol
_atom_type_description
_atom_type_scat_dispersion_real
_atom_type_scat_dispersion_imag
_atom_type_scat_source
K K 0.2009 0.2494 'International Tables Vol C Tables 4.2.6.8 and 6.1.1.4'
Mo Mo -1.6832 0.6857 'International Tables Vol C Tables 4.2.6.8 and 6.1.1.4'
S S 0.1246 0.1234 'International Tables Vol C Tables 4.2.6.8 and 6.1.1.4'
O O 0.0106 0.0060 'International Tables Vol C Tables 4.2.6.8 and 6.1.1.4'
H H 0.0000 0.0000 'International Tables Vol C Tables 4.2.6.8 and 6.1.1.4'
loop_
_geom_angle_atom_site_label_1
_geom_angle_atom_site_label_2
_geom_angle_atom_site_label_3
_geom_angle
_geom_angle_site_symmetry_1
_geom_angle_site_symmetry_3
S2 Mo S2 108.88(8) . 3_667
S2 Mo S2 108.88(9) . 3_677
S2 Mo S2 85.35(11) 3_667 3_677
S2 Mo S1 86.22(9) . 1_565
S2 Mo S1 164.30(10) 3_667 1_565
S2 Mo S1 93.95(8) 3_677 1_565
S2 Mo S1 86.22(9) . .
S2 Mo S1 93.95(8) 3_667 .
S2 Mo S1 164.30(10) 3_677 .
S1 Mo S1 82.50(10) 1_565 .
S2 Mo S1 162.84(11) . 3_567
S2 Mo S1 83.43(9) 3_667 3_567
S2 Mo S1 83.43(9) 3_677 3_567
S1 Mo S1 80.91(10) 1_565 3_567
S1 Mo S1 80.91(10) . 3_567
S2 Mo Mo 54.49(6) . 3_677
S2 Mo Mo 102.03(8) 3_667 3_677
S2 Mo Mo 54.39(7) 3_677 3_677
S1 Mo Mo 90.15(6) 1_565 3_677
S1 Mo Mo 140.49(9) . 3_677
S1 Mo Mo 136.27(6) 3_567 3_677
S2 Mo Mo 54.49(6) . 3_667
S2 Mo Mo 54.39(7) 3_667 3_667
S2 Mo Mo 102.03(8) 3_677 3_667
S1 Mo Mo 140.49(9) 1_565 3_667
S1 Mo Mo 90.15(6) . 3_667
S1 Mo Mo 136.27(6) 3_567 3_667
Mo Mo Mo 71.34(5) 3_677 3_667
K1 K1 K1 80(3) 3_678 3_668
K1 K1 K1 50.1(14) 3_678 1_565
K1 K1 K1 129.9(14) 3_668 1_565
K1 K1 K1 129.9(14) 3_678 1_545
K1 K1 K1 50.1(14) 3_668 1_545
K1 K1 K1 180.0(16) 1_565 1_545
K1 K1 S1 132(2) 3_678 .
K1 K1 S1 93.2(14) 3_668 .
K1 K1 S1 118.4(3) 1_565 .
K1 K1 S1 61.6(3) 1_545 .
K1 K1 S1 93.2(13) 3_678 1_565
K1 K1 S1 132(2) 3_668 1_565
K1 K1 S1 61.6(3) 1_565 1_565
K1 K1 S1 118.4(3) 1_545 1_565
S1 K1 S1 56.9(7) . 1_565
K1 K1 S2 74.2(15) 3_678 .
K1 K1 S2 74.2(15) 3_668 .
K1 K1 S2 90.000(6) 1_565 .
K1 K1 S2 90.000(4) 1_545 .
S1 K1 S2 58.1(6) . .
S1 K1 S2 58.1(6) 1_565 .
K1 K1 S2 64.1(14) 3_678 3_678
K1 K1 S2 98(2) 3_668 3_678
K1 K1 S2 63.7(3) 1_565 3_678
K1 K1 S2 116.3(3) 1_545 3_678
S1 K1 S2 162.6(14) . 3_678
S1 K1 S2 122.2(4) 1_565 3_678
S2 K1 S2 138.3(11) . 3_678
K1 K1 S2 98(2) 3_678 3_668
K1 K1 S2 64.1(14) 3_668 3_668
K1 K1 S2 116.3(3) 1_565 3_668
K1 K1 S2 63.7(3) 1_545 3_668
S1 K1 S2 122.2(4) . 3_668
S1 K1 S2 162.6(14) 1_565 3_668
S2 K1 S2 138.3(11) . 3_668
S2 K1 S2 52.6(5) 3_678 3_668
K1 K1 K1 149(2) 3_678 3_568
K1 K1 K1 111.4(11) 3_668 3_568
K1 K1 K1 112.4(4) 1_565 3_568
K1 K1 K1 67.6(4) 1_545 3_568
S1 K1 K1 78.4(11) . 3_568
S1 K1 K1 99.3(16) 1_565 3_568
S2 K1 K1 136.5(16) . 3_568
S2 K1 K1 84.9(10) 3_678 3_568
S2 K1 K1 64.8(8) 3_668 3_568
K1 K1 K1 111.4(11) 3_678 3_578
K1 K1 K1 149(2) 3_668 3_578
K1 K1 K1 67.6(4) 1_565 3_578
K1 K1 K1 112.4(4) 1_545 3_578
S1 K1 K1 99.3(16) . 3_578
S1 K1 K1 78.4(11) 1_565 3_578
S2 K1 K1 136.5(16) . 3_578
S2 K1 K1 64.8(8) 3_678 3_578
S2 K1 K1 84.9(10) 3_668 3_578
K1 K1 K1 44.7(9) 3_568 3_578
K2 K2 K2 81(3) 3_568 3_578
K2 K2 K2 49.6(15) 3_568 1_545
K2 K2 K2 130.4(15) 3_578 1_545
K2 K2 K2 130.4(15) 3_568 1_565
K2 K2 K2 49.6(15) 3_578 1_565
K2 K2 K2 180.0 1_545 1_565
K2 K2 S1 87.6(12) 3_568 .
K2 K2 S1 124(2) 3_578 .
K2 K2 S1 62.1(2) 1_545 .
K2 K2 S1 117.9(2) 1_565 .
K2 K2 S1 124(2) 3_568 1_565
K2 K2 S1 87.6(12) 3_578 1_565
K2 K2 S1 117.9(2) 1_545 1_565
K2 K2 S1 62.1(2) 1_565 1_565
S1 K2 S1 55.8(5) . 1_565
K2 K2 S2 103.7(17) 3_568 3_678
K2 K2 S2 69.6(12) 3_578 3_678
K2 K2 S2 116.9(2) 1_545 3_678
K2 K2 S2 63.1(2) 1_565 3_678
S1 K2 S2 164.0(16) . 3_678
S1 K2 S2 122.6(4) 1_565 3_678
K2 K2 S2 69.6(12) 3_568 3_668
K2 K2 S2 103.7(17) 3_578 3_668
K2 K2 S2 63.1(2) 1_545 3_668
K2 K2 S2 116.9(2) 1_565 3_668
S1 K2 S2 122.6(4) . 3_668
S1 K2 S2 164.0(16) 1_565 3_668
S2 K2 S2 53.8(5) 3_678 3_668
K2 K2 S2 69.5(17) 3_568 1_455
K2 K2 S2 69.5(17) 3_578 1_455
K2 K2 S2 90.000(10) 1_545 1_455
K2 K2 S2 90.000(3) 1_565 1_455
S1 K2 S2 55.4(5) . 1_455
S1 K2 S2 55.4(5) 1_565 1_455
S2 K2 S2 139.1(12) 3_678 1_455
S2 K2 S2 139.1(12) 3_668 1_455
K2 K2 K2 154(2) 3_568 3_678
K2 K2 K2 113.7(11) 3_578 3_678
K2 K2 K2 112.7(5) 1_545 3_678
K2 K2 K2 67.3(6) 1_565 3_678
S1 K2 K2 99.9(15) . 3_678
S1 K2 K2 79.1(10) 1_565 3_678
S2 K2 K2 65.1(7) 3_678 3_678
S2 K2 K2 85.9(11) 3_668 3_678
S2 K2 K2 134.5(12) 1_455 3_678
K2 K2 K2 113.7(11) 3_568 3_668
K2 K2 K2 154(2) 3_578 3_668
K2 K2 K2 67.3(5) 1_545 3_668
K2 K2 K2 112.7(5) 1_565 3_668
S1 K2 K2 79.1(10) . 3_668
S1 K2 K2 99.9(15) 1_565 3_668
S2 K2 K2 85.9(11) 3_678 3_668
S2 K2 K2 65.1(7) 3_668 3_668
S2 K2 K2 134.5(12) 1_455 3_668
K2 K2 K2 45.4(11) 3_678 3_668
Mo S1 Mo 82.50(10) . 1_545
Mo S1 Mo 99.09(10) . 3_567
Mo S1 Mo 99.09(10) 1_545 3_567
Mo S1 K1 135.0(7) . 1_545
Mo S1 K1 94.5(4) 1_545 1_545
Mo S1 K1 125.6(7) 3_567 1_545
Mo S1 K1 94.5(4) . .
Mo S1 K1 135.0(7) 1_545 .
Mo S1 K1 125.6(7) 3_567 .
K1 S1 K1 56.9(7) 1_545 .
Mo S1 K2 149.1(7) . 1_545
Mo S1 K2 104.0(5) 1_545 1_545
Mo S1 K2 109.4(8) 3_567 1_545
Mo S1 K2 104.0(5) . .
Mo S1 K2 149.1(7) 1_545 .
Mo S1 K2 109.4(8) 3_567 .
K2 S1 K2 55.8(5) 1_545 .
Mo S2 Mo 71.12(8) . 3_667
Mo S2 Mo 71.12(8) . 3_677
Mo S2 Mo 85.35(11) 3_667 3_677
Mo S2 K1 95.5(8) . .
Mo S2 K1 133.5(3) 3_667 .
Mo S2 K1 133.5(3) 3_677 .
Mo S2 K2 138.6(7) . 3_678
Mo S2 K2 150.2(7) 3_667 3_678
Mo S2 K2 104.8(4) 3_677 3_678
Mo S2 K2 138.6(7) . 3_668
Mo S2 K2 104.8(4) 3_667 3_668
Mo S2 K2 150.2(7) 3_677 3_668
K2 S2 K2 53.8(5) 3_678 3_668
Mo S2 K2 179.2(7) . 1_655
Mo S2 K2 109.4(5) 3_667 1_655
Mo S2 K2 109.4(5) 3_677 1_655
K2 S2 K2 40.9(12) 3_678 1_655
K2 S2 K2 40.9(12) 3_668 1_655
Mo S2 K1 124.4(7) . 3_678
Mo S2 K1 160.5(5) 3_667 3_678
Mo S2 K1 110.0(3) 3_677 3_678
K1 S2 K1 41.7(11) . 3_678
Mo S2 K1 124.4(7) . 3_668
Mo S2 K1 110.0(3) 3_667 3_668
Mo S2 K1 160.5(5) 3_677 3_668
K1 S2 K1 41.7(11) . 3_668
K1 S2 K1 52.6(5) 3_678 3_668
loop_
_geom_bond_atom_site_label_1
_geom_bond_atom_site_label_2
_geom_bond_distance
_geom_bond_site_symmetry_2
Mo S2 2.390(3) .
Mo S2 2.392(2) 3_667
Mo S2 2.392(2) 3_677
Mo S1 2.460(2) 1_565
Mo S1 2.460(2) .
Mo S1 2.537(3) 3_567
Mo Mo 2.7809(17) 3_677
Mo Mo 2.7809(17) 3_667
K1 K1 2.53(7) 3_678
K1 K1 2.53(7) 3_668
K1 K1 3.2433(9) 1_565
K1 K1 3.2433(8) 1_545
K1 S1 3.41(4) .
K1 S1 3.41(4) 1_565
K1 S2 3.42(4) .
K1 S2 3.66(3) 3_678
K1 S2 3.66(3) 3_668
K1 K1 4.26(8) 3_568
K1 K1 4.26(8) 3_578
K2 K2 2.50(8) 3_568
K2 K2 2.50(8) 3_578
K2 K2 3.2433(8) 1_545
K2 K2 3.2433(8) 1_565
K2 S1 3.47(3) .
K2 S1 3.47(3) 1_565
K2 S2 3.59(3) 3_678
K2 S2 3.59(3) 3_668
K2 S2 3.59(4) 1_455
K2 K2 4.21(9) 3_678
K2 K2 4.21(9) 3_668
S1 Mo 2.460(2) 1_545
S1 Mo 2.537(3) 3_567
S1 K1 3.41(4) 1_545
S1 K2 3.47(3) 1_545
S2 Mo 2.392(2) 3_667
S2 Mo 2.392(2) 3_677
S2 K2 3.59(3) 3_678
S2 K2 3.59(3) 3_668
S2 K2 3.59(4) 1_655
S2 K1 3.66(3) 3_678
S2 K1 3.66(3) 3_668
