#------------------------------------------------------------------------------
#$Date: 2021-04-14 13:12:51 +0300 (Wed, 14 Apr 2021) $
#$Revision: 264160 $
#$URL: file:///home/coder/svn-repositories/cod/cif/1/56/17/1561765.cif $
#------------------------------------------------------------------------------
#
# This file is available in the Crystallography Open Database (COD),
# http://www.crystallography.net/
#
# All data on this site have been placed in the public domain by the
# contributors.
#
data_1561765
loop_
_publ_author_name
'Bykova, E.'
'Gou, H.'
'Bykov, M.'
'Hanfland, M.'
'Dubrovinsky, L.'
'Dubrovinskaia, N.'
_publ_section_title
;
 Crystal structures and compressibility of novel iron borides Fe2B7 and Fe
 B50 synthesized at high pressure and high temperature
;
_journal_name_full               'Journal of Solid State Chemistry'
_journal_page_first              102
_journal_page_last               109
_journal_paper_doi               10.1016/j.jssc.2015.06.040
_journal_volume                  230
_journal_year                    2015
_chemical_absolute_configuration .
_chemical_compound_source
;
high-pressure high-temperature synthesis
;
_chemical_formula_moiety         'B7 Fe2'
_chemical_formula_sum            'B7 Fe2'
_chemical_formula_weight         187.4
_chemical_name_common            'diiron heptaboride'
_chemical_name_systematic        'diiron heptaboride'
_space_group_IT_number           55
_space_group_name_Hall           '-P 2 2ab'
_space_group_name_H-M_alt        'P b a m'
_symmetry_cell_setting           orthorhombic
_symmetry_Int_Tables_number      55
_symmetry_space_group_name_Hall  '-P 2 2ab'
_symmetry_space_group_name_H-M   'P b a m'
_cell_angle_alpha                90
_cell_angle_beta                 90
_cell_angle_gamma                90
_cell_formula_units_Z            8
_cell_length_a                   16.1256(17)
_cell_length_b                   10.3762(3)
_cell_length_c                   2.75850(10)
_cell_measurement_reflns_used    418
_cell_measurement_temperature    293
_cell_measurement_theta_max      18.6920
_cell_measurement_theta_min      4.5210
_cell_volume                     461.56(5)
_computing_cell_refinement
;
CrysAlisPro, Agilent Technologies,
Version 1.171.37.35 (release 13-08-2014 CrysAlis171 .NET)
(compiled Aug 13 2014,18:06:01)
;
_computing_data_collection
;
CrysAlisPro, Agilent Technologies,
Version 1.171.37.35 (release 13-08-2014 CrysAlis171 .NET)
(compiled Aug 13 2014,18:06:01)
;
_computing_data_reduction
;
CrysAlisPro, Agilent Technologies,
Version 1.171.37.35 (release 13-08-2014 CrysAlis171 .NET)
(compiled Aug 13 2014,18:06:01)
;
_computing_structure_refinement  'Jana2006 (Petricek, 2014)'
_computing_structure_solution    'SHELXS-2013 (Sheldrick, 2013)'
_diffrn_ambient_pressure         41100000
_diffrn_ambient_temperature      293
_diffrn_detector                 'MAR555 flatpanel detector'
_diffrn_measured_fraction_theta_full 0.87
_diffrn_measured_fraction_theta_max 0.52
_diffrn_measurement_device
;
customized omega-circle diffractometer
;
_diffrn_measurement_device_type  'ESRF, beamline ID09A diffractometer'
_diffrn_measurement_method       '\w scans'
_diffrn_radiation_monochromator  synchrotron
_diffrn_radiation_probe          x-ray
_diffrn_radiation_source         synchrotron
_diffrn_radiation_type           synchrotron
_diffrn_radiation_wavelength     0.41441
_diffrn_reflns_av_R_equivalents  0.0422
_diffrn_reflns_av_unetI/netI     0.0353
_diffrn_reflns_limit_h_max       16
_diffrn_reflns_limit_h_min       -16
_diffrn_reflns_limit_k_max       14
_diffrn_reflns_limit_k_min       -15
_diffrn_reflns_limit_l_max       3
_diffrn_reflns_limit_l_min       -3
_diffrn_reflns_number            1625
_diffrn_reflns_theta_full        13.04
_diffrn_reflns_theta_max         19.25
_diffrn_reflns_theta_min         1.87
_diffrn_source                   synchrotron
_exptl_absorpt_coefficient_mu    2.534
_exptl_absorpt_correction_T_max  1.00000
_exptl_absorpt_correction_T_min  0.23796
_exptl_absorpt_correction_type   multi-scan
_exptl_absorpt_process_details
;
CrysAlisPro, Agilent Technologies,
Version 1.171.37.35 (release 13-08-2014 CrysAlis171 .NET)
(compiled Aug 13 2014,18:06:01)
Empirical absorption correction using spherical harmonics,
 implemented in SCALE3 ABSPACK scaling algorithm.
;
_exptl_crystal_colour            black
_exptl_crystal_density_diffrn    5.3908
_exptl_crystal_description       plate
_exptl_crystal_F_000             696
_exptl_crystal_size_max          0.025
_exptl_crystal_size_mid          0.025
_exptl_crystal_size_min          0.005
_refine_diff_density_max         0.99
_refine_diff_density_min         -1.30
_refine_ls_extinction_method     none
_refine_ls_goodness_of_fit_gt    1.88
_refine_ls_goodness_of_fit_ref   1.81
_refine_ls_number_constraints    0
_refine_ls_number_parameters     67
_refine_ls_number_reflns         599
_refine_ls_number_restraints     0
_refine_ls_R_factor_all          0.0474
_refine_ls_R_factor_gt           0.0413
_refine_ls_shift/su_max          0.0002
_refine_ls_shift/su_mean         0.0000
_refine_ls_structure_factor_coef Fsqd
_refine_ls_weighting_details     w=1/(\s^2^(I)+0.0004I^2^)
_refine_ls_weighting_scheme      sigma
_refine_ls_wR_factor_gt          0.0889
_refine_ls_wR_factor_ref         0.0939
_reflns_number_gt                512
_reflns_number_total             599
_reflns_threshold_expression     I>2\s(I)
_cod_data_source_file            Fe2B7_41.1GPa.cif
_cod_data_source_block           Fe2B7_41.1GPa
_cod_depositor_comments
;
The following automatic conversions were performed:

data item '_diffrn_radiation_probe' value 'X-ray' was changed to
'x-ray' in accordance with the built-in table derived from the CIF
Core dictionary named 'cif_core.dic' version 2.4.5 last updated on
2014-11-21.

Automatic conversion script
Id: cif_fix_values 8369 2020-08-20 11:38:08Z andrius 
;
_cod_database_code               1561765
loop_
_symmetry_equiv_pos_site_id
_symmetry_equiv_pos_as_xyz
1 x,y,z
2 -x,-y,z
3 -x+1/2,y+1/2,-z
4 x+1/2,-y+1/2,-z
5 -x,-y,-z
6 x,y,-z
7 x+1/2,-y+1/2,z
8 -x+1/2,y+1/2,z
loop_
_atom_site_label
_atom_site_type_symbol
_atom_site_fract_x
_atom_site_fract_y
_atom_site_fract_z
_atom_site_adp_type
_atom_site_U_iso_or_equiv
_atom_site_site_symmetry_multiplicity
_atom_site_occupancy
_atom_site_calc_flag
_atom_site_refinement_flags
_atom_site_disorder_assembly
_atom_site_disorder_group
Fe1 Fe 0.22063(10) 0.46703(9) 0.5 Uani 0.0068(4) 4 1 d . . .
Fe2 Fe 0.12088(10) 0.17837(9) 0 Uani 0.0062(4) 4 1 d . . .
Fe3 Fe 0.46399(10) 0.10536(9) 0.5 Uani 0.0062(4) 4 1 d . . .
Fe4 Fe 0.39022(10) 0.26665(9) 0 Uani 0.0059(4) 4 1 d . . .
B1 B 0.3677(7) 0.0498(7) 0 Uiso 0.0056(15) 4 1 d . . .
B2 B 0.0470(7) 0.4613(7) 0 Uiso 0.0072(16) 4 1 d . . .
B3 B 0.3027(8) 0.3905(7) 0 Uiso 0.0063(15) 4 1 d . . .
B4 B 0.1394(7) 0.3756(7) 0 Uiso 0.0041(15) 4 1 d . . .
B5 B 0.4434(8) 0.4031(7) 0.5 Uiso 0.0059(16) 4 1 d . . .
B6 B 0.2022(8) 0.0446(7) 0 Uiso 0.0058(15) 4 1 d . . .
B7 B 0.2895(7) 0.2874(7) 0.5 Uiso 0.0071(16) 4 1 d . . .
B8 B 0.0329(8) 0.3051(7) 0 Uiso 0.0064(16) 4 1 d . . .
B9 B 0.3981(7) 0.4763(7) 0 Uiso 0.0033(15) 4 1 d . . .
B10 B 0.0534(7) 0.0596(7) 0.5 Uiso 0.0062(16) 4 1 d . . .
B11 B 0.0173(7) 0.2114(7) 0.5 Uiso 0.0048(15) 4 1 d . . .
B12 B 0.3390(7) 0.1396(7) 0.5 Uiso 0.0065(16) 4 1 d . . .
B13 B 0.2192(7) 0.1451(8) 0.5 Uiso 0.0068(16) 4 1 d . . .
B14 B 0.1786(8) 0.2907(8) 0.5 Uiso 0.0101(17) 4 1 d . . .
loop_
_atom_site_aniso_label
_atom_site_aniso_type_symbol
_atom_site_aniso_U_11
_atom_site_aniso_U_22
_atom_site_aniso_U_33
_atom_site_aniso_U_12
_atom_site_aniso_U_13
_atom_site_aniso_U_23
Fe1 Fe 0.0081(11) 0.0040(4) 0.0082(5) 0.0003(5) 0 0
Fe2 Fe 0.0080(11) 0.0055(4) 0.0051(5) 0.0002(5) 0 0
Fe3 Fe 0.0093(11) 0.0053(4) 0.0039(5) 0.0003(5) 0 0
Fe4 Fe 0.0076(10) 0.0055(4) 0.0048(5) 0.0004(5) 0 0
loop_
_atom_type_symbol
_atom_type_scat_dispersion_real
_atom_type_scat_dispersion_imag
_atom_type_scat_source
B -0.0003 0.0002 'International Tables Vol C tables 4.2.6.8 and 6.1.1.1'
Fe 0.1991 0.3104 'International Tables Vol C tables 4.2.6.8 and 6.1.1.1'
loop_
_geom_angle_atom_site_label_1
_geom_angle_atom_site_label_2
_geom_angle_atom_site_label_3
_geom_angle_site_symmetry_1
_geom_angle_site_symmetry_2
_geom_angle_site_symmetry_3
_geom_angle
Fe1 Fe1 Fe1 1_554 . 1_556 180.0(5)
Fe1 Fe1 B1 1_554 . 3_555 50.34(19)
Fe1 Fe1 B1 1_554 . 3_556 129.7(2)
Fe1 Fe1 B3 1_554 . . 48.2(2)
Fe1 Fe1 B3 1_554 . 1_556 131.8(2)
Fe1 Fe1 B4 1_554 . . 49.56(18)
Fe1 Fe1 B4 1_554 . 1_556 130.44(19)
Fe1 Fe1 B6 1_554 . 3_555 47.1(2)
Fe1 Fe1 B6 1_554 . 3_556 132.9(2)
Fe1 Fe1 B7 1_554 . . 90.00(3)
Fe1 Fe1 B12 1_554 . 3_556 90.00(3)
Fe1 Fe1 B13 1_554 . 3_556 90.00(3)
Fe1 Fe1 B14 1_554 . . 90.00(3)
Fe1 Fe1 B1 1_556 . 3_555 129.7(2)
Fe1 Fe1 B1 1_556 . 3_556 50.34(19)
Fe1 Fe1 B3 1_556 . . 131.8(2)
Fe1 Fe1 B3 1_556 . 1_556 48.2(2)
Fe1 Fe1 B4 1_556 . . 130.44(19)
Fe1 Fe1 B4 1_556 . 1_556 49.56(18)
Fe1 Fe1 B6 1_556 . 3_555 132.9(2)
Fe1 Fe1 B6 1_556 . 3_556 47.1(2)
Fe1 Fe1 B7 1_556 . . 90.00(3)
Fe1 Fe1 B12 1_556 . 3_556 90.00(3)
Fe1 Fe1 B13 1_556 . 3_556 90.00(3)
Fe1 Fe1 B14 1_556 . . 90.00(3)
B1 Fe1 B1 3_555 . 3_556 79.3(3)
B1 Fe1 B3 3_555 . . 98.6(3)
B1 Fe1 B3 3_555 . 1_556 177.9(3)
B1 Fe1 B4 3_555 . . 50.0(3)
B1 Fe1 B4 3_555 . 1_556 100.7(4)
B1 Fe1 B6 3_555 . 3_555 79.2(4)
B1 Fe1 B6 3_555 . 3_556 133.0(3)
B1 Fe1 B7 3_555 . . 132.8(2)
B1 Fe1 B12 3_555 . 3_556 48.6(2)
B1 Fe1 B13 3_555 . 3_556 87.4(3)
B1 Fe1 B14 3_555 . . 98.2(4)
B1 Fe1 B3 3_556 . . 177.9(3)
B1 Fe1 B3 3_556 . 1_556 98.6(3)
B1 Fe1 B4 3_556 . . 100.7(4)
B1 Fe1 B4 3_556 . 1_556 50.0(3)
B1 Fe1 B6 3_556 . 3_555 133.0(3)
B1 Fe1 B6 3_556 . 3_556 79.2(4)
B1 Fe1 B7 3_556 . . 132.8(2)
B1 Fe1 B12 3_556 . 3_556 48.6(2)
B1 Fe1 B13 3_556 . 3_556 87.4(3)
B1 Fe1 B14 3_556 . . 98.2(4)
B3 Fe1 B3 . . 1_556 83.5(3)
B3 Fe1 B4 . . . 77.9(4)
B3 Fe1 B4 . . 1_556 130.9(3)
B3 Fe1 B6 . . 3_555 46.0(3)
B3 Fe1 B6 . . 3_556 102.3(4)
B3 Fe1 B7 . . . 48.9(2)
B3 Fe1 B12 . . 3_556 129.8(2)
B3 Fe1 B13 . . 3_556 92.4(3)
B3 Fe1 B14 . . . 82.1(4)
B3 Fe1 B4 1_556 . . 130.9(3)
B3 Fe1 B4 1_556 . 1_556 77.9(4)
B3 Fe1 B6 1_556 . 3_555 102.3(4)
B3 Fe1 B6 1_556 . 3_556 46.0(3)
B3 Fe1 B7 1_556 . . 48.9(2)
B3 Fe1 B12 1_556 . 3_556 129.8(2)
B3 Fe1 B13 1_556 . 3_556 92.4(3)
B3 Fe1 B14 1_556 . . 82.1(4)
B4 Fe1 B4 . . 1_556 80.9(3)
B4 Fe1 B6 . . 3_555 96.6(3)
B4 Fe1 B6 . . 3_556 176.6(2)
B4 Fe1 B7 . . . 86.1(3)
B4 Fe1 B12 . . 3_556 95.8(3)
B4 Fe1 B13 . . 3_556 133.0(2)
B4 Fe1 B14 . . . 50.7(3)
B4 Fe1 B6 1_556 . 3_555 176.6(2)
B4 Fe1 B6 1_556 . 3_556 96.6(3)
B4 Fe1 B7 1_556 . . 86.1(3)
B4 Fe1 B12 1_556 . 3_556 95.8(3)
B4 Fe1 B13 1_556 . 3_556 133.0(2)
B4 Fe1 B14 1_556 . . 50.7(3)
B6 Fe1 B6 3_555 . 3_556 85.9(3)
B6 Fe1 B7 3_555 . . 91.5(3)
B6 Fe1 B12 3_555 . 3_556 86.6(3)
B6 Fe1 B13 3_555 . 3_556 50.4(2)
B6 Fe1 B14 3_555 . . 125.9(3)
B6 Fe1 B7 3_556 . . 91.5(3)
B6 Fe1 B12 3_556 . 3_556 86.6(3)
B6 Fe1 B13 3_556 . 3_556 50.4(2)
B6 Fe1 B14 3_556 . . 125.9(3)
B7 Fe1 B12 . . 3_556 177.4(4)
B7 Fe1 B13 . . 3_556 121.5(4)
B7 Fe1 B14 . . . 51.1(5)
B12 Fe1 B13 3_556 . 3_556 55.9(4)
B12 Fe1 B14 3_556 . . 131.4(5)
B13 Fe1 B14 3_556 . . 172.6(5)
Fe2 Fe2 Fe2 1_554 . 1_556 180.0(5)
Fe2 Fe2 B4 1_554 . . 90.00(3)
Fe2 Fe2 B6 1_554 . . 90.00(4)
Fe2 Fe2 B8 1_554 . . 90.00(4)
Fe2 Fe2 B9 1_554 . 3_545 90.00(3)
Fe2 Fe2 B10 1_554 . 1_554 50.00(17)
Fe2 Fe2 B10 1_554 . . 130.00(18)
Fe2 Fe2 B11 1_554 . 1_554 51.03(19)
Fe2 Fe2 B11 1_554 . . 129.0(2)
Fe2 Fe2 B13 1_554 . 1_554 49.6(2)
Fe2 Fe2 B13 1_554 . . 130.4(2)
Fe2 Fe2 B14 1_554 . 1_554 47.2(2)
Fe2 Fe2 B14 1_554 . . 132.8(2)
Fe2 Fe2 B4 1_556 . . 90.00(3)
Fe2 Fe2 B6 1_556 . . 90.00(4)
Fe2 Fe2 B8 1_556 . . 90.00(4)
Fe2 Fe2 B9 1_556 . 3_545 90.00(3)
Fe2 Fe2 B10 1_556 . 1_554 130.00(18)
Fe2 Fe2 B10 1_556 . . 50.00(17)
Fe2 Fe2 B11 1_556 . 1_554 129.0(2)
Fe2 Fe2 B11 1_556 . . 51.03(19)
Fe2 Fe2 B13 1_556 . 1_554 130.4(2)
Fe2 Fe2 B13 1_556 . . 49.6(2)
Fe2 Fe2 B14 1_556 . 1_554 132.8(2)
Fe2 Fe2 B14 1_556 . . 47.2(2)
B4 Fe2 B6 . . . 128.3(5)
B4 Fe2 B8 . . . 55.4(4)
B4 Fe2 B9 . . 3_545 180.0(5)
B4 Fe2 B10 . . 1_554 129.9(3)
B4 Fe2 B10 . . . 129.9(3)
B4 Fe2 B11 . . 1_554 87.4(3)
B4 Fe2 B11 . . . 87.4(3)
B4 Fe2 B13 . . 1_554 93.1(3)
B4 Fe2 B13 . . . 93.1(3)
B4 Fe2 B14 . . 1_554 50.7(3)
B4 Fe2 B14 . . . 50.7(3)
B6 Fe2 B8 . . . 176.2(4)
B6 Fe2 B9 . . 3_545 51.7(4)
B6 Fe2 B10 . . 1_554 86.0(4)
B6 Fe2 B10 . . . 86.0(4)
B6 Fe2 B11 . . 1_554 129.5(3)
B6 Fe2 B11 . . . 129.5(3)
B6 Fe2 B13 . . 1_554 51.0(3)
B6 Fe2 B13 . . . 51.0(3)
B6 Fe2 B14 . . 1_554 95.9(4)
B6 Fe2 B14 . . . 95.9(4)
B8 Fe2 B9 . . 3_545 124.5(4)
B8 Fe2 B10 . . 1_554 91.1(4)
B8 Fe2 B10 . . . 91.1(4)
B8 Fe2 B11 . . 1_554 48.3(2)
B8 Fe2 B11 . . . 48.3(2)
B8 Fe2 B13 . . 1_554 131.0(2)
B8 Fe2 B13 . . . 131.0(2)
B8 Fe2 B14 . . 1_554 86.9(4)
B8 Fe2 B14 . . . 86.9(4)
B9 Fe2 B10 3_545 . 1_554 50.1(2)
B9 Fe2 B10 3_545 . . 50.1(2)
B9 Fe2 B11 3_545 . 1_554 92.6(3)
B9 Fe2 B11 3_545 . . 92.6(3)
B9 Fe2 B13 3_545 . 1_554 87.0(3)
B9 Fe2 B13 3_545 . . 87.0(3)
B9 Fe2 B14 3_545 . 1_554 129.3(3)
B9 Fe2 B14 3_545 . . 129.3(3)
B10 Fe2 B10 1_554 . . 80.0(2)
B10 Fe2 B11 1_554 . 1_554 45.5(3)
B10 Fe2 B11 1_554 . . 96.2(3)
B10 Fe2 B13 1_554 . 1_554 82.4(3)
B10 Fe2 B13 1_554 . . 134.5(3)
B10 Fe2 B14 1_554 . 1_554 97.2(3)
B10 Fe2 B14 1_554 . . 176.5(4)
B10 Fe2 B11 . . 1_554 96.2(3)
B10 Fe2 B11 . . . 45.5(3)
B10 Fe2 B13 . . 1_554 134.5(3)
B10 Fe2 B13 . . . 82.4(3)
B10 Fe2 B14 . . 1_554 176.5(4)
B10 Fe2 B14 . . . 97.2(3)
B11 Fe2 B11 1_554 . . 77.9(3)
B11 Fe2 B13 1_554 . 1_554 100.7(3)
B11 Fe2 B13 1_554 . . 178.5(3)
B11 Fe2 B14 1_554 . 1_554 80.3(4)
B11 Fe2 B14 1_554 . . 133.3(3)
B11 Fe2 B13 . . 1_554 178.5(3)
B11 Fe2 B13 . . . 100.7(3)
B11 Fe2 B14 . . 1_554 133.3(3)
B11 Fe2 B14 . . . 80.3(4)
B13 Fe2 B13 1_554 . . 80.7(3)
B13 Fe2 B14 1_554 . 1_554 46.6(3)
B13 Fe2 B14 1_554 . . 101.1(4)
B13 Fe2 B14 . . 1_554 101.1(4)
B13 Fe2 B14 . . . 46.6(3)
B14 Fe2 B14 1_554 . . 85.5(3)
Fe3 Fe3 Fe3 1_554 . 1_556 180.0(5)
Fe3 Fe3 Fe3 1_554 . 2_655 90.00(3)
Fe3 Fe3 Fe4 1_554 . . 56.11(3)
Fe3 Fe3 Fe4 1_554 . 1_556 123.89(5)
Fe3 Fe3 B1 1_554 . . 50.2(2)
Fe3 Fe3 B1 1_554 . 1_556 129.8(2)
Fe3 Fe3 B2 1_554 . 3_545 47.49(14)
Fe3 Fe3 B2 1_554 . 3_546 132.51(15)
Fe3 Fe3 B2 1_554 . 4_555 47.5(2)
Fe3 Fe3 B2 1_554 . 4_556 132.5(2)
Fe3 Fe3 B8 1_554 . 4_555 46.4(2)
Fe3 Fe3 B8 1_554 . 4_556 133.6(2)
Fe3 Fe3 B11 1_554 . 4_556 90.00(3)
Fe3 Fe3 B12 1_554 . . 90.00(4)
Fe3 Fe3 Fe3 1_556 . 2_655 90.00(3)
Fe3 Fe3 Fe4 1_556 . . 123.89(5)
Fe3 Fe3 Fe4 1_556 . 1_556 56.11(3)
Fe3 Fe3 B1 1_556 . . 129.8(2)
Fe3 Fe3 B1 1_556 . 1_556 50.2(2)
Fe3 Fe3 B2 1_556 . 3_545 132.51(15)
Fe3 Fe3 B2 1_556 . 3_546 47.49(14)
Fe3 Fe3 B2 1_556 . 4_555 132.5(2)
Fe3 Fe3 B2 1_556 . 4_556 47.5(2)
Fe3 Fe3 B8 1_556 . 4_555 133.6(2)
Fe3 Fe3 B8 1_556 . 4_556 46.4(2)
Fe3 Fe3 B11 1_556 . 4_556 90.00(3)
Fe3 Fe3 B12 1_556 . . 90.00(4)
Fe3 Fe3 Fe4 2_655 . . 145.40(2)
Fe3 Fe3 Fe4 2_655 . 1_556 145.40(2)
Fe3 Fe3 B1 2_655 . . 95.8(2)
Fe3 Fe3 B1 2_655 . 1_556 95.8(2)
Fe3 Fe3 B2 2_655 . 3_545 52.7(2)
Fe3 Fe3 B2 2_655 . 3_546 52.7(2)
Fe3 Fe3 B2 2_655 . 4_555 52.66(18)
Fe3 Fe3 B2 2_655 . 4_556 52.66(18)
Fe3 Fe3 B8 2_655 . 4_555 98.6(3)
Fe3 Fe3 B8 2_655 . 4_556 98.6(3)
Fe3 Fe3 B11 2_655 . 4_556 127.7(3)
Fe3 Fe3 B12 2_655 . . 128.0(2)
Fe4 Fe3 Fe4 . . 1_556 67.78(4)
Fe4 Fe3 B1 . . . 58.5(2)
Fe4 Fe3 B1 . . 1_556 101.0(2)
Fe4 Fe3 B2 . . 3_545 94.4(2)
Fe4 Fe3 B2 . . 3_546 146.2(3)
Fe4 Fe3 B2 . . 4_555 99.65(18)
Fe4 Fe3 B2 . . 4_556 157.0(2)
Fe4 Fe3 B8 . . 4_555 64.4(3)
Fe4 Fe3 B8 . . 4_556 109.7(2)
Fe4 Fe3 B11 . . 4_556 65.3(2)
Fe4 Fe3 B12 . . . 53.78(16)
Fe4 Fe3 B1 1_556 . . 101.0(2)
Fe4 Fe3 B1 1_556 . 1_556 58.5(2)
Fe4 Fe3 B2 1_556 . 3_545 146.2(3)
Fe4 Fe3 B2 1_556 . 3_546 94.4(2)
Fe4 Fe3 B2 1_556 . 4_555 157.0(2)
Fe4 Fe3 B2 1_556 . 4_556 99.65(18)
Fe4 Fe3 B8 1_556 . 4_555 109.7(2)
Fe4 Fe3 B8 1_556 . 4_556 64.4(3)
Fe4 Fe3 B11 1_556 . 4_556 65.3(2)
Fe4 Fe3 B12 1_556 . . 53.78(16)
B1 Fe3 B1 . . 1_556 79.6(3)
B1 Fe3 B2 . . 3_545 46.3(4)
B1 Fe3 B2 . . 3_546 100.0(3)
B1 Fe3 B2 . . 4_555 87.1(3)
B1 Fe3 B2 . . 4_556 144.4(3)
B1 Fe3 B8 . . 4_555 94.8(3)
B1 Fe3 B8 . . 4_556 165.0(4)
B1 Fe3 B11 . . 4_556 122.7(3)
B1 Fe3 B12 . . . 48.5(3)
B1 Fe3 B2 1_556 . 3_545 100.0(3)
B1 Fe3 B2 1_556 . 3_546 46.3(4)
B1 Fe3 B2 1_556 . 4_555 144.4(3)
B1 Fe3 B2 1_556 . 4_556 87.1(3)
B1 Fe3 B8 1_556 . 4_555 165.0(4)
B1 Fe3 B8 1_556 . 4_556 94.8(3)
B1 Fe3 B11 1_556 . 4_556 122.7(3)
B1 Fe3 B12 1_556 . . 48.5(3)
B2 Fe3 B2 3_545 . 3_546 85.0(2)
B2 Fe3 B2 3_545 . 4_555 49.6(4)
B2 Fe3 B2 3_545 . 4_556 105.4(3)
B2 Fe3 B8 3_545 . 4_555 85.5(3)
B2 Fe3 B8 3_545 . 4_556 148.6(4)
B2 Fe3 B11 3_545 . 4_556 134.6(2)
B2 Fe3 B12 3_545 . . 92.4(4)
B2 Fe3 B2 3_546 . 4_555 105.4(3)
B2 Fe3 B2 3_546 . 4_556 49.6(4)
B2 Fe3 B8 3_546 . 4_555 148.6(4)
B2 Fe3 B8 3_546 . 4_556 85.5(3)
B2 Fe3 B11 3_546 . 4_556 134.6(2)
B2 Fe3 B12 3_546 . . 92.4(4)
B2 Fe3 B2 4_555 . 4_556 85.0(3)
B2 Fe3 B8 4_555 . 4_555 47.7(3)
B2 Fe3 B8 4_555 . 4_556 105.0(4)
B2 Fe3 B11 4_555 . 4_556 92.2(3)
B2 Fe3 B12 4_555 . . 134.7(3)
B2 Fe3 B8 4_556 . 4_555 105.0(4)
B2 Fe3 B8 4_556 . 4_556 47.7(3)
B2 Fe3 B11 4_556 . 4_556 92.2(3)
B2 Fe3 B12 4_556 . . 134.7(3)
B8 Fe3 B8 4_555 . 4_556 87.2(3)
B8 Fe3 B11 4_555 . 4_556 49.3(2)
B8 Fe3 B12 4_555 . . 117.8(3)
B8 Fe3 B11 4_556 . 4_556 49.3(2)
B8 Fe3 B12 4_556 . . 117.8(3)
B11 Fe3 B12 4_556 . . 104.4(4)
Fe3 Fe4 Fe3 1_554 . . 67.78(4)
Fe3 Fe4 Fe4 1_554 . 1_554 56.11(3)
Fe3 Fe4 Fe4 1_554 . 1_556 123.89(5)
Fe3 Fe4 B1 1_554 . . 53.7(2)
Fe3 Fe4 B3 1_554 . . 144.21(10)
Fe3 Fe4 B5 1_554 . 1_554 84.1(2)
Fe3 Fe4 B5 1_554 . . 127.6(3)
Fe3 Fe4 B7 1_554 . 1_554 94.2(2)
Fe3 Fe4 B7 1_554 . . 142.4(2)
Fe3 Fe4 B9 1_554 . . 130.4(2)
Fe3 Fe4 B12 1_554 . 1_554 52.6(3)
Fe3 Fe4 B12 1_554 . . 97.6(2)
Fe3 Fe4 Fe4 . . 1_554 123.89(5)
Fe3 Fe4 Fe4 . . 1_556 56.11(3)
Fe3 Fe4 B1 . . . 53.7(2)
Fe3 Fe4 B3 . . . 144.21(10)
Fe3 Fe4 B5 . . 1_554 127.6(3)
Fe3 Fe4 B5 . . . 84.1(2)
Fe3 Fe4 B7 . . 1_554 142.4(2)
Fe3 Fe4 B7 . . . 94.2(2)
Fe3 Fe4 B9 . . . 130.4(2)
Fe3 Fe4 B12 . . 1_554 97.6(2)
Fe3 Fe4 B12 . . . 52.6(3)
Fe4 Fe4 Fe4 1_554 . 1_556 180.0(5)
Fe4 Fe4 B1 1_554 . . 90.00(3)
Fe4 Fe4 B3 1_554 . . 90.00(4)
Fe4 Fe4 B5 1_554 . 1_554 50.20(15)
Fe4 Fe4 B5 1_554 . . 129.80(16)
Fe4 Fe4 B7 1_554 . 1_554 49.9(2)
Fe4 Fe4 B7 1_554 . . 130.1(2)
Fe4 Fe4 B9 1_554 . . 90.00(3)
Fe4 Fe4 B12 1_554 . 1_554 48.45(17)
Fe4 Fe4 B12 1_554 . . 131.55(17)
Fe4 Fe4 B1 1_556 . . 90.00(3)
Fe4 Fe4 B3 1_556 . . 90.00(4)
Fe4 Fe4 B5 1_556 . 1_554 129.80(16)
Fe4 Fe4 B5 1_556 . . 50.20(15)
Fe4 Fe4 B7 1_556 . 1_554 130.1(2)
Fe4 Fe4 B7 1_556 . . 49.9(2)
Fe4 Fe4 B9 1_556 . . 90.00(3)
Fe4 Fe4 B12 1_556 . 1_554 131.55(17)
Fe4 Fe4 B12 1_556 . . 48.45(17)
B1 Fe4 B3 . . . 123.2(4)
B1 Fe4 B5 . . 1_554 135.4(2)
B1 Fe4 B5 . . . 135.4(2)
B1 Fe4 B7 . . 1_554 88.8(3)
B1 Fe4 B7 . . . 88.8(3)
B1 Fe4 B9 . . . 174.2(4)
B1 Fe4 B12 . . 1_554 46.4(2)
B1 Fe4 B12 . . . 46.4(2)
B3 Fe4 B5 . . 1_554 81.5(4)
B3 Fe4 B5 . . . 81.5(4)
B3 Fe4 B7 . . 1_554 51.1(3)
B3 Fe4 B7 . . . 51.1(3)
B3 Fe4 B9 . . . 51.0(4)
B3 Fe4 B12 . . 1_554 97.6(4)
B3 Fe4 B12 . . . 97.6(4)
B5 Fe4 B5 1_554 . . 79.6(2)
B5 Fe4 B7 1_554 . 1_554 79.8(4)
B5 Fe4 B7 1_554 . . 130.4(3)
B5 Fe4 B9 1_554 . . 47.2(2)
B5 Fe4 B12 1_554 . 1_554 98.6(2)
B5 Fe4 B12 1_554 . . 178.1(2)
B5 Fe4 B7 . . 1_554 130.4(3)
B5 Fe4 B7 . . . 79.8(4)
B5 Fe4 B9 . . . 47.2(2)
B5 Fe4 B12 . . 1_554 178.1(2)
B5 Fe4 B12 . . . 98.6(2)
B7 Fe4 B7 1_554 . . 80.2(3)
B7 Fe4 B9 1_554 . . 86.8(3)
B7 Fe4 B12 1_554 . 1_554 48.3(3)
B7 Fe4 B12 1_554 . . 100.9(4)
B7 Fe4 B9 . . . 86.8(3)
B7 Fe4 B12 . . 1_554 100.9(4)
B7 Fe4 B12 . . . 48.3(3)
B9 Fe4 B12 . . 1_554 131.0(2)
B9 Fe4 B12 . . . 131.0(2)
B12 Fe4 B12 1_554 . . 83.1(2)
Fe1 B1 Fe1 3_545 . 3_546 79.3(4)
Fe1 B1 Fe3 3_545 . 1_554 99.95(5)
Fe1 B1 Fe3 3_545 . . 171.8(5)
Fe1 B1 Fe4 3_545 . . 119.8(3)
Fe1 B1 B2 3_545 . 3_545 109.1(4)
Fe1 B1 B4 3_545 . 3_545 64.0(4)
Fe1 B1 B12 3_545 . 1_554 61.8(4)
Fe1 B1 B12 3_545 . . 123.1(7)
Fe1 B1 Fe3 3_546 . 1_554 171.8(5)
Fe1 B1 Fe3 3_546 . . 99.95(5)
Fe1 B1 Fe4 3_546 . . 119.8(3)
Fe1 B1 B2 3_546 . 3_545 109.1(4)
Fe1 B1 B4 3_546 . 3_545 64.0(4)
Fe1 B1 B12 3_546 . 1_554 123.1(7)
Fe1 B1 B12 3_546 . . 61.8(4)
Fe3 B1 Fe3 1_554 . . 79.6(4)
Fe3 B1 Fe4 1_554 . . 67.7(2)
Fe3 B1 B2 1_554 . 3_545 63.2(4)
Fe3 B1 B4 1_554 . 3_545 108.2(5)
Fe3 B1 B12 1_554 . 1_554 62.5(4)
Fe3 B1 B12 1_554 . . 124.1(6)
Fe3 B1 Fe4 . . . 67.7(2)
Fe3 B1 B2 . . 3_545 63.2(4)
Fe3 B1 B4 . . 3_545 108.2(5)
Fe3 B1 B12 . . 1_554 124.1(6)
Fe3 B1 B12 . . . 62.5(4)
Fe4 B1 B2 . . 3_545 114.6(6)
Fe4 B1 B4 . . 3_545 174.5(8)
Fe4 B1 B12 . . 1_554 60.7(3)
Fe4 B1 B12 . . . 60.7(3)
B2 B1 B4 3_545 . 3_545 59.9(6)
B2 B1 B12 3_545 . 1_554 121.5(5)
B2 B1 B12 3_545 . . 121.5(5)
B4 B1 B12 3_545 . 1_554 121.4(4)
B4 B1 B12 3_545 . . 121.4(4)
B12 B1 B12 1_554 . . 105.9(6)
Fe3 B2 Fe3 3_555 . 3_556 85.0(3)
Fe3 B2 Fe3 3_555 . 4_455 74.6(2)
Fe3 B2 Fe3 3_555 . 4_456 130.4(6)
Fe3 B2 B1 3_555 . 3_555 70.5(3)
Fe3 B2 B2 3_555 . 2_565 65.2(3)
Fe3 B2 B4 3_555 . . 116.7(5)
Fe3 B2 B8 3_555 . . 135.5(3)
Fe3 B2 Fe3 3_556 . 4_455 130.4(6)
Fe3 B2 Fe3 3_556 . 4_456 74.6(2)
Fe3 B2 B1 3_556 . 3_555 70.5(3)
Fe3 B2 B2 3_556 . 2_565 65.2(3)
Fe3 B2 B4 3_556 . . 116.7(5)
Fe3 B2 B8 3_556 . . 135.5(3)
Fe3 B2 Fe3 4_455 . 4_456 85.0(4)
Fe3 B2 B1 4_455 . 3_555 137.13(19)
Fe3 B2 B2 4_455 . 2_565 65.2(4)
Fe3 B2 B4 4_455 . . 112.9(4)
Fe3 B2 B8 4_455 . . 64.8(4)
Fe3 B2 B1 4_456 . 3_555 137.13(19)
Fe3 B2 B2 4_456 . 2_565 65.2(4)
Fe3 B2 B4 4_456 . . 112.9(4)
Fe3 B2 B8 4_456 . . 64.8(4)
B1 B2 B2 3_555 . 2_565 118.4(6)
B1 B2 B4 3_555 . . 64.6(6)
B1 B2 B8 3_555 . . 131.7(9)
B2 B2 B4 2_565 . . 177.1(7)
B2 B2 B8 2_565 . . 110.0(8)
B4 B2 B8 . . . 67.1(6)
Fe1 B3 Fe1 1_554 . . 83.5(4)
Fe1 B3 Fe4 1_554 . . 136.99(17)
Fe1 B3 B6 1_554 . 3_555 65.5(4)
Fe1 B3 B7 1_554 . 1_554 68.5(4)
Fe1 B3 B7 1_554 . . 132.7(8)
Fe1 B3 B9 1_554 . . 111.2(4)
Fe1 B3 Fe4 . . . 136.99(17)
Fe1 B3 B6 . . 3_555 65.5(4)
Fe1 B3 B7 . . 1_554 132.7(8)
Fe1 B3 B7 . . . 68.5(4)
Fe1 B3 B9 . . . 111.2(4)
Fe4 B3 B6 . . 3_555 135.2(8)
Fe4 B3 B7 . . 1_554 71.4(4)
Fe4 B3 B7 . . . 71.4(4)
Fe4 B3 B9 . . . 72.4(5)
B6 B3 B7 3_555 . 1_554 127.0(3)
B6 B3 B7 3_555 . . 127.0(3)
B6 B3 B9 3_555 . . 62.8(6)
B7 B3 B7 1_554 . . 103.3(5)
B7 B3 B9 1_554 . . 114.2(6)
B7 B3 B9 . . . 114.2(6)
Fe1 B4 Fe1 1_554 . . 80.9(4)
Fe1 B4 Fe2 1_554 . . 122.0(3)
Fe1 B4 B1 1_554 . 3_555 66.0(4)
Fe1 B4 B2 1_554 . . 107.5(4)
Fe1 B4 B14 1_554 . 1_554 59.5(4)
Fe1 B4 B14 1_554 . . 120.8(7)
Fe1 B4 Fe2 . . . 122.0(3)
Fe1 B4 B1 . . 3_555 66.0(4)
Fe1 B4 B2 . . . 107.5(4)
Fe1 B4 B14 . . 1_554 120.8(7)
Fe1 B4 B14 . . . 59.5(4)
Fe2 B4 B1 . . 3_555 168.1(8)
Fe2 B4 B2 . . . 112.6(6)
Fe2 B4 B14 . . 1_554 63.6(3)
Fe2 B4 B14 . . . 63.6(3)
B1 B4 B2 3_555 . . 55.5(5)
B1 B4 B14 3_555 . 1_554 121.6(4)
B1 B4 B14 3_555 . . 121.6(4)
B2 B4 B14 . . 1_554 124.5(5)
B2 B4 B14 . . . 124.5(5)
B14 B4 B14 1_554 . . 103.7(6)
Fe4 B5 Fe4 . . 1_556 79.6(3)
Fe4 B5 B9 . . . 67.1(3)
Fe4 B5 B9 . . 1_556 129.0(7)
Fe4 B5 B10 . . 3_556 132.0(4)
Fe4 B5 B10 . . 4_556 121.9(4)
Fe4 B5 B11 . . 4_556 79.5(4)
Fe4 B5 B9 1_556 . . 129.0(7)
Fe4 B5 B9 1_556 . 1_556 67.1(3)
Fe4 B5 B10 1_556 . 3_556 132.0(4)
Fe4 B5 B10 1_556 . 4_556 121.9(4)
Fe4 B5 B11 1_556 . 4_556 79.5(4)
B9 B5 B9 . . 1_556 105.3(6)
B9 B5 B10 . . 3_556 64.9(4)
B9 B5 B10 . . 4_556 108.5(5)
B9 B5 B11 . . 4_556 127.4(4)
B9 B5 B10 1_556 . 3_556 64.9(4)
B9 B5 B10 1_556 . 4_556 108.5(5)
B9 B5 B11 1_556 . 4_556 127.4(4)
B10 B5 B10 3_556 . 4_556 75.9(6)
B10 B5 B11 3_556 . 4_556 133.1(9)
B10 B5 B11 4_556 . 4_556 57.2(6)
Fe1 B6 Fe1 3_545 . 3_546 85.9(4)
Fe1 B6 Fe2 3_545 . . 135.33(18)
Fe1 B6 B3 3_545 . 3_545 68.5(4)
Fe1 B6 B9 3_545 . 3_545 113.8(4)
Fe1 B6 B13 3_545 . 1_554 66.6(4)
Fe1 B6 B13 3_545 . . 132.6(8)
Fe1 B6 Fe2 3_546 . . 135.33(18)
Fe1 B6 B3 3_546 . 3_545 68.5(4)
Fe1 B6 B9 3_546 . 3_545 113.8(4)
Fe1 B6 B13 3_546 . 1_554 132.6(8)
Fe1 B6 B13 3_546 . . 66.6(4)
Fe2 B6 B3 . . 3_545 133.8(8)
Fe2 B6 B9 . . 3_545 70.3(5)
Fe2 B6 B13 . . 1_554 71.0(4)
Fe2 B6 B13 . . . 71.0(4)
B3 B6 B9 3_545 . 3_545 63.5(6)
B3 B6 B13 3_545 . 1_554 127.0(3)
B3 B6 B13 3_545 . . 127.0(3)
B9 B6 B13 3_545 . 1_554 112.5(6)
B9 B6 B13 3_545 . . 112.5(6)
B13 B6 B13 1_554 . . 104.0(5)
Fe1 B7 Fe4 . . . 118.3(3)
Fe1 B7 Fe4 . . 1_556 118.3(3)
Fe1 B7 B3 . . . 62.6(4)
Fe1 B7 B3 . . 1_556 62.6(4)
Fe1 B7 B12 . . . 176.7(8)
Fe1 B7 B13 . . . 111.7(7)
Fe1 B7 B14 . . . 58.1(4)
Fe4 B7 Fe4 . . 1_556 80.2(4)
Fe4 B7 B3 . . . 57.6(4)
Fe4 B7 B3 . . 1_556 118.3(7)
Fe4 B7 B12 . . . 63.9(4)
Fe4 B7 B13 . . . 112.4(4)
Fe4 B7 B14 . . . 139.5(2)
Fe4 B7 B3 1_556 . . 118.3(7)
Fe4 B7 B3 1_556 . 1_556 57.6(4)
Fe4 B7 B12 1_556 . . 63.9(4)
Fe4 B7 B13 1_556 . . 112.4(4)
Fe4 B7 B14 1_556 . . 139.5(2)
B3 B7 B3 . . 1_556 103.3(5)
B3 B7 B12 . . . 118.9(5)
B3 B7 B13 . . . 123.8(5)
B3 B7 B14 . . . 96.3(6)
B3 B7 B12 1_556 . . 118.9(5)
B3 B7 B13 1_556 . . 123.8(5)
B3 B7 B14 1_556 . . 96.3(6)
B12 B7 B13 . . . 65.0(6)
B12 B7 B14 . . . 118.6(7)
B13 B7 B14 . . . 53.6(5)
Fe2 B8 Fe3 . . 4_455 136.32(19)
Fe2 B8 Fe3 . . 4_456 136.32(19)
Fe2 B8 B2 . . . 124.9(8)
Fe2 B8 B11 . . 1_554 73.8(5)
Fe2 B8 B11 . . . 73.8(5)
Fe3 B8 Fe3 4_455 . 4_456 87.2(4)
Fe3 B8 B2 4_455 . . 67.5(4)
Fe3 B8 B11 4_455 . 1_554 68.0(3)
Fe3 B8 B11 4_455 . . 137.7(8)
Fe3 B8 B2 4_456 . . 67.5(4)
Fe3 B8 B11 4_456 . 1_554 137.7(8)
Fe3 B8 B11 4_456 . . 68.0(3)
B2 B8 B11 . . 1_554 125.8(3)
B2 B8 B11 . . . 125.8(3)
B11 B8 B11 1_554 . . 107.9(5)
Fe2 B9 Fe4 3_555 . . 168.4(6)
Fe2 B9 B3 3_555 . . 111.8(6)
Fe2 B9 B5 3_555 . 1_554 119.6(3)
Fe2 B9 B5 3_555 . . 119.6(3)
Fe2 B9 B6 3_555 . 3_555 58.0(4)
Fe2 B9 B10 3_555 . 3_555 65.7(3)
Fe2 B9 B10 3_555 . 3_556 65.7(3)
Fe4 B9 B3 . . . 56.6(4)
Fe4 B9 B5 . . 1_554 65.7(3)
Fe4 B9 B5 . . . 65.7(3)
Fe4 B9 B6 . . 3_555 110.3(6)
Fe4 B9 B10 . . 3_555 120.2(4)
Fe4 B9 B10 . . 3_556 120.2(4)
B3 B9 B5 . . 1_554 98.3(5)
B3 B9 B5 . . . 98.3(5)
B3 B9 B6 . . 3_555 53.8(5)
B3 B9 B10 . . 3_555 127.9(5)
B3 B9 B10 . . 3_556 127.9(5)
B5 B9 B5 1_554 . . 105.3(6)
B5 B9 B6 1_554 . 3_555 124.1(5)
B5 B9 B10 1_554 . 3_555 54.6(4)
B5 B9 B10 1_554 . 3_556 129.4(9)
B5 B9 B6 . . 3_555 124.1(5)
B5 B9 B10 . . 3_555 129.4(9)
B5 B9 B10 . . 3_556 54.6(4)
B6 B9 B10 3_555 . 3_555 101.8(5)
B6 B9 B10 3_555 . 3_556 101.8(5)
B10 B9 B10 3_555 . 3_556 99.6(6)
Fe2 B10 Fe2 . . 1_556 80.0(3)
Fe2 B10 B5 . . 3_546 123.9(5)
Fe2 B10 B5 . . 4_456 111.9(4)
Fe2 B10 B9 . . 3_545 64.2(3)
Fe2 B10 B9 . . 3_546 123.1(7)
Fe2 B10 B11 . . . 68.7(4)
Fe2 B10 B5 1_556 . 3_546 123.9(5)
Fe2 B10 B5 1_556 . 4_456 111.9(4)
Fe2 B10 B9 1_556 . 3_545 123.1(7)
Fe2 B10 B9 1_556 . 3_546 64.2(3)
Fe2 B10 B11 1_556 . . 68.7(4)
B5 B10 B5 3_546 . 4_456 104.1(7)
B5 B10 B9 3_546 . 3_545 60.5(4)
B5 B10 B9 3_546 . 3_546 60.5(4)
B5 B10 B11 3_546 . . 161.5(10)
B5 B10 B9 4_456 . 3_545 121.7(5)
B5 B10 B9 4_456 . 3_546 121.7(5)
B5 B10 B11 4_456 . . 57.4(6)
B9 B10 B9 3_545 . 3_546 99.6(6)
B9 B10 B11 3_545 . . 126.8(3)
B9 B10 B11 3_546 . . 126.8(3)
Fe2 B11 Fe2 . . 1_556 77.9(4)
Fe2 B11 Fe3 . . 4_456 117.1(3)
Fe2 B11 B5 . . 4_456 115.4(4)
Fe2 B11 B8 . . . 57.9(4)
Fe2 B11 B8 . . 1_556 119.0(7)
Fe2 B11 B10 . . . 65.8(4)
Fe2 B11 Fe3 1_556 . 4_456 117.1(3)
Fe2 B11 B5 1_556 . 4_456 115.4(4)
Fe2 B11 B8 1_556 . . 119.0(7)
Fe2 B11 B8 1_556 . 1_556 57.9(4)
Fe2 B11 B10 1_556 . . 65.8(4)
Fe3 B11 B5 4_456 . 4_456 110.6(7)
Fe3 B11 B8 4_456 . . 62.7(4)
Fe3 B11 B8 4_456 . 1_556 62.7(4)
Fe3 B11 B10 4_456 . . 175.9(8)
B5 B11 B8 4_456 . . 120.5(5)
B5 B11 B8 4_456 . 1_556 120.5(5)
B5 B11 B10 4_456 . . 65.4(6)
B8 B11 B8 . . 1_556 107.9(5)
B8 B11 B10 . . . 118.9(5)
B8 B11 B10 1_556 . . 118.9(5)
Fe1 B12 Fe3 3_546 . . 108.2(4)
Fe1 B12 Fe4 3_546 . . 138.31(15)
Fe1 B12 Fe4 3_546 . 1_556 138.31(15)
Fe1 B12 B1 3_546 . . 69.6(4)
Fe1 B12 B1 3_546 . 1_556 69.6(4)
Fe1 B12 B7 3_546 . . 124.3(7)
Fe3 B12 Fe4 . . . 73.6(4)
Fe3 B12 Fe4 . . 1_556 73.6(4)
Fe3 B12 B1 . . . 69.0(5)
Fe3 B12 B1 . . 1_556 69.0(5)
Fe3 B12 B7 . . . 127.5(6)
Fe4 B12 Fe4 . . 1_556 83.1(3)
Fe4 B12 B1 . . . 72.9(3)
Fe4 B12 B1 . . 1_556 139.9(8)
Fe4 B12 B7 . . . 67.7(3)
Fe4 B12 B1 1_556 . . 139.9(8)
Fe4 B12 B1 1_556 . 1_556 72.9(3)
Fe4 B12 B7 1_556 . . 67.7(3)
B1 B12 B1 . . 1_556 105.9(6)
B1 B12 B7 . . . 127.0(3)
B1 B12 B7 1_556 . . 127.0(3)
Fe1 B13 Fe2 3_546 . . 119.3(3)
Fe1 B13 Fe2 3_546 . 1_556 119.3(3)
Fe1 B13 B6 3_546 . . 63.0(4)
Fe1 B13 B6 3_546 . 1_556 63.0(4)
Fe1 B13 B7 3_546 . . 114.8(7)
Fe1 B13 B14 3_546 . . 175.8(8)
Fe2 B13 Fe2 . . 1_556 80.7(4)
Fe2 B13 B6 . . . 58.0(4)
Fe2 B13 B6 . . 1_556 119.3(7)
Fe2 B13 B7 . . . 108.9(4)
Fe2 B13 B14 . . . 63.6(4)
Fe2 B13 B6 1_556 . . 119.3(7)
Fe2 B13 B6 1_556 . 1_556 58.0(4)
Fe2 B13 B7 1_556 . . 108.9(4)
Fe2 B13 B14 1_556 . . 63.6(4)
B6 B13 B6 . . 1_556 104.0(5)
B6 B13 B7 . . . 124.6(5)
B6 B13 B14 . . . 118.9(5)
B6 B13 B7 1_556 . . 124.6(5)
B6 B13 B14 1_556 . . 118.9(5)
B7 B13 B14 . . . 60.9(6)
Fe1 B14 Fe2 . . . 134.2(2)
Fe1 B14 Fe2 . . 1_556 134.2(2)
Fe1 B14 B4 . . . 69.8(4)
Fe1 B14 B4 . . 1_556 69.8(4)
Fe1 B14 B7 . . . 70.8(5)
Fe1 B14 B13 . . . 136.2(9)
Fe2 B14 Fe2 . . 1_556 85.5(4)
Fe2 B14 B4 . . . 65.7(3)
Fe2 B14 B4 . . 1_556 131.1(8)
Fe2 B14 B7 . . . 116.5(4)
Fe2 B14 B13 . . . 69.9(4)
Fe2 B14 B4 1_556 . . 131.1(8)
Fe2 B14 B4 1_556 . 1_556 65.7(3)
Fe2 B14 B7 1_556 . . 116.5(4)
Fe2 B14 B13 1_556 . . 69.9(4)
B4 B14 B4 . . 1_556 103.7(6)
B4 B14 B7 . . . 111.7(6)
B4 B14 B13 . . . 127.2(3)
B4 B14 B7 1_556 . . 111.7(6)
B4 B14 B13 1_556 . . 127.2(3)
B7 B14 B13 . . . 65.5(6)
loop_
_geom_bond_atom_site_label_1
_geom_bond_atom_site_label_2
_geom_bond_site_symmetry_1
_geom_bond_site_symmetry_2
_geom_bond_distance
Fe1 Fe1 . 1_554 2.7585(2)
Fe1 Fe1 . 1_556 2.7585(2)
Fe1 B1 . 3_555 2.161(9)
Fe1 B1 . 3_556 2.161(9)
Fe1 B3 . . 2.071(9)
Fe1 B3 . 1_556 2.071(9)
Fe1 B4 . . 2.126(8)
Fe1 B4 . 1_556 2.126(8)
Fe1 B6 . 3_555 2.025(8)
Fe1 B6 . 3_556 2.025(8)
Fe1 B7 . . 2.169(9)
Fe1 B12 . 3_556 2.032(9)
Fe1 B13 . 3_556 2.087(9)
Fe1 B14 . . 1.951(9)
Fe2 Fe2 . 1_554 2.7585(2)
Fe2 Fe2 . 1_556 2.7585(2)
Fe2 B4 . . 2.068(7)
Fe2 B6 . . 1.909(10)
Fe2 B8 . . 1.934(10)
Fe2 B9 . 3_545 2.119(7)
Fe2 B10 . 1_554 2.146(8)
Fe2 B10 . . 2.146(8)
Fe2 B11 . 1_554 2.193(9)
Fe2 B11 . . 2.193(9)
Fe2 B13 . 1_554 2.130(9)
Fe2 B13 . . 2.130(9)
Fe2 B14 . 1_554 2.031(8)
Fe2 B14 . . 2.031(8)
Fe3 Fe3 . 1_554 2.7585(2)
Fe3 Fe3 . 1_556 2.7585(2)
Fe3 Fe3 . 2_655 2.4758(15)
Fe3 Fe4 . . 2.4735(14)
Fe3 Fe4 . 1_556 2.4735(14)
Fe3 B1 . . 2.155(9)
Fe3 B1 . 1_556 2.155(9)
Fe3 B2 . 3_545 2.041(6)
Fe3 B2 . 3_546 2.041(6)
Fe3 B2 . 4_555 2.042(8)
Fe3 B2 . 4_556 2.042(8)
Fe3 B8 . 4_555 2.000(8)
Fe3 B8 . 4_556 2.000(8)
Fe3 B11 . 4_556 2.087(8)
Fe3 B12 . . 2.047(12)
Fe4 Fe4 . 1_554 2.7585(2)
Fe4 Fe4 . 1_556 2.7585(2)
Fe4 B1 . . 2.279(8)
Fe4 B3 . . 1.908(11)
Fe4 B5 . 1_554 2.155(7)
Fe4 B5 . . 2.155(7)
Fe4 B7 . 1_554 2.142(9)
Fe4 B7 . . 2.142(9)
Fe4 B9 . . 2.179(7)
Fe4 B12 . 1_554 2.080(7)
Fe4 B12 . . 2.080(7)
B1 B2 . 3_545 1.654(15)
B1 B4 . 3_545 1.811(10)
B1 B12 . 1_554 1.728(7)
B1 B12 . . 1.728(7)
B2 B2 . 2_565 1.714(16)
B2 B4 . . 1.735(15)
B2 B8 . . 1.636(11)
B3 B6 . 3_555 1.602(10)
B3 B7 . 1_554 1.758(7)
B3 B7 . . 1.758(7)
B3 B9 . . 1.777(16)
B4 B14 . 1_554 1.754(8)
B4 B14 . . 1.754(8)
B5 B9 . . 1.736(8)
B5 B9 . 1_556 1.736(8)
B5 B10 . 3_556 1.625(10)
B5 B10 . 4_556 1.816(17)
B5 B11 . 4_556 1.683(14)
B6 B9 . 3_545 1.766(16)
B6 B13 . 1_554 1.751(7)
B6 B13 . . 1.751(7)
B7 B12 . . 1.730(12)
B7 B13 . . 1.861(13)
B7 B14 . . 1.788(17)
B8 B11 . 1_554 1.706(6)
B8 B11 . . 1.706(6)
B9 B10 . 3_555 1.806(9)
B9 B10 . 3_556 1.806(9)
B10 B11 . . 1.679(11)
B13 B14 . . 1.647(13)
loop_
_refln_index_h
_refln_index_k
_refln_index_l
_refln_F_squared_calc
_refln_F_squared_meas
_refln_F_squared_sigma
_refln_observed_status
0 0 1 0.55 3.47 3.12 <
0 0 3 8.71 6.06 14.21 <
0 2 1 27642.00 24789.90 288.63 o
0 2 2 385.35 298.74 27.47 o
0 2 3 6090.28 5944.58 207.38 o
0 4 0 1183.61 1217.78 37.27 o
0 4 1 5372.80 5585.33 135.00 o
0 4 2 427.71 423.38 41.05 o
0 6 0 392.62 399.96 26.25 o
0 6 1 1072.26 1032.84 58.82 o
0 6 2 214.52 155.27 24.49 o
0 8 0 22.58 27.56 8.19 o
0 8 1 1147.02 1264.06 67.43 o
0 8 2 12.15 8.24 4.92 <
0 10 0 39.54 38.87 12.30 o
0 10 1 1482.94 1571.79 86.70 o
0 10 2 32.02 19.55 7.45 o
0 12 0 1424.39 1525.84 90.32 o
0 12 1 2852.62 3513.65 149.49 o
0 12 2 985.85 1086.44 71.55 o
1 1 1 6416.54 6348.52 69.49 o
1 1 2 753.11 670.22 28.35 o
1 1 3 1499.10 1728.20 82.60 o
1 2 1 604.76 544.66 25.29 o
1 2 2 127.14 83.98 11.21 o
1 2 3 105.26 62.27 13.68 o
1 3 1 6306.76 6637.70 99.99 o
1 3 2 992.83 886.72 44.87 o
1 3 3 1543.69 1545.04 155.15 o
1 4 0 4323.50 3690.98 113.54 o
1 4 1 213.24 195.90 15.13 o
1 4 2 1776.58 1621.67 65.67 o
1 4 3 38.27 10.24 10.99 <
1 5 0 15805.20 15519.30 221.30 o
1 5 1 14.20 14.24 4.10 o
1 5 2 7143.22 7170.19 144.87 o
1 5 3 1.05 1.10 4.73 <
1 6 0 6744.48 6725.95 93.58 o
1 6 1 9032.07 9022.00 104.63 o
1 6 2 3012.09 2928.01 109.79 o
1 6 3 2978.00 3345.42 225.00 o
1 7 0 1343.18 1213.46 39.60 o
1 7 1 76.45 74.70 9.11 o
1 7 2 719.72 692.40 44.34 o
1 7 3 7.40 2.28 9.19 <
1 8 0 40.87 32.31 6.69 o
1 8 1 6922.57 7204.15 114.28 o
1 8 2 64.29 65.52 13.04 o
1 8 3 2326.73 2549.05 191.02 o
1 9 0 997.36 1053.87 40.58 o
1 9 1 1975.58 1876.88 61.52 o
1 9 2 554.96 571.18 39.04 o
1 9 3 858.74 1062.35 117.10 o
1 10 0 10112.10 10378.50 180.84 o
1 10 1 592.81 660.76 43.81 o
1 10 2 6115.52 6526.58 133.42 o
1 10 3 351.78 248.76 54.02 o
1 11 0 84.75 61.30 15.85 o
1 11 1 369.84 399.26 38.21 o
1 11 2 55.75 33.09 9.14 o
1 12 0 23.66 26.42 12.05 o
1 12 1 2457.37 2794.27 117.71 o
1 12 2 16.05 11.30 6.27 <
1 13 0 2598.75 2530.40 123.64 o
1 13 1 16.87 13.93 9.06 <
1 13 2 1852.85 1977.76 123.14 o
1 14 0 787.90 792.27 74.61 o
1 14 1 187.10 154.93 42.84 o
1 14 2 573.74 602.52 97.72 o
2 0 1 714.30 816.21 30.80 o
2 0 2 172.89 134.95 14.79 o
2 0 3 78.59 84.07 32.96 o
2 1 0 331.49 379.01 22.25 o
2 1 1 239.20 281.92 14.50 o
2 1 2 160.73 147.52 12.59 o
2 1 3 61.74 49.88 13.61 o
2 2 0 4113.12 4671.31 109.26 o
2 2 1 91.52 56.74 7.15 o
2 2 2 1538.81 1348.56 43.94 o
2 2 3 6.03 -5.50 5.89 <
2 3 1 4791.27 5122.26 77.72 o
2 3 2 406.02 389.52 30.09 o
2 3 3 1268.79 1104.23 96.18 o
2 4 1 13823.10 13943.60 136.89 o
2 4 2 2768.11 2736.41 82.78 o
2 4 3 3677.53 3539.70 216.95 o
2 5 1 18611.30 19700.60 217.07 o
2 5 2 2883.27 2818.38 88.05 o
2 5 3 5625.06 5748.92 269.94 o
2 6 1 4829.47 4800.56 80.66 o
2 6 2 2480.13 2569.18 91.74 o
2 6 3 1706.58 1728.46 148.63 o
2 7 0 24275.00 23092.90 215.04 o
2 7 1 1585.02 1638.17 48.18 o
2 7 2 12268.00 12739.30 188.52 o
2 7 3 499.09 600.57 85.41 o
2 8 0 382.44 417.76 41.25 o
2 8 1 569.54 618.41 40.16 o
2 8 2 173.56 163.96 20.20 o
2 8 3 213.89 274.59 55.17 o
2 9 0 1447.43 1466.33 70.46 o
2 9 1 5274.40 5373.43 120.78 o
2 9 2 875.47 916.02 49.53 o
2 9 3 2142.10 2569.52 164.78 o
2 10 0 3748.83 3542.59 111.82 o
2 10 1 3464.24 3400.39 103.86 o
2 10 2 2336.82 2378.12 79.85 o
2 10 3 1562.65 1761.60 134.08 o
2 11 0 2.92 5.44 4.43 <
2 11 1 123.62 109.32 19.53 o
2 11 2 0.58 0.16 3.04 <
2 12 0 1019.79 912.33 61.25 o
2 12 1 550.84 534.94 50.90 o
2 12 2 651.62 596.32 43.93 o
2 13 0 29.20 12.86 7.07 <
2 13 1 609.59 680.01 62.30 o
2 13 2 16.30 13.02 8.88 <
2 14 0 35.12 39.96 15.14 o
2 14 1 23.05 20.93 12.39 <
2 14 2 35.26 27.67 14.84 <
2 15 1 975.61 1198.53 134.62 o
3 1 0 1336.56 1444.00 47.97 o
3 1 1 2108.50 2545.69 44.16 o
3 1 2 551.23 511.67 25.98 o
3 1 3 419.36 307.29 31.82 o
3 2 0 10787.30 10660.00 165.03 o
3 2 1 2148.65 2184.56 43.49 o
3 2 2 4256.78 4023.55 81.27 o
3 2 3 524.57 452.49 58.20 o
3 3 0 12114.10 12593.70 224.97 o
3 3 1 94.25 101.26 9.05 o
3 3 2 4932.18 4863.91 99.38 o
3 3 3 32.14 11.35 5.87 <
3 4 0 1173.73 1182.67 114.05 o
3 4 1 7820.21 8120.79 96.58 o
3 4 2 474.23 416.18 28.67 o
3 4 3 2034.76 2079.83 154.07 o
3 5 1 15256.20 15620.20 166.94 o
3 5 2 68.88 54.73 9.63 o
3 5 3 4669.24 4965.70 231.71 o
3 6 0 274.13 273.20 20.26 o
3 6 1 4078.23 4246.11 91.17 o
3 6 2 104.46 105.93 17.75 o
3 6 3 1417.60 1649.31 131.71 o
3 7 0 448.08 417.38 21.67 o
3 7 1 581.13 550.74 30.31 o
3 7 2 221.77 216.36 25.22 o
3 7 3 249.19 318.60 56.44 o
3 8 0 2807.71 2365.86 72.87 o
3 8 1 658.23 655.77 43.20 o
3 8 2 1322.10 1426.83 62.68 o
3 8 3 291.76 371.34 60.23 o
3 9 0 1002.64 994.07 77.77 o
3 9 1 1599.93 1594.78 70.58 o
3 9 2 571.28 613.21 41.62 o
3 9 3 662.60 767.69 82.44 o
3 10 0 908.21 911.94 64.73 o
3 10 1 11999.70 12381.20 213.13 o
3 10 2 628.68 651.17 42.49 o
3 10 3 5396.34 6152.17 234.76 o
3 11 0 2054.92 1858.88 91.27 o
3 11 1 440.30 446.27 40.24 o
3 11 2 1341.92 1384.59 66.21 o
3 12 0 6149.08 6364.18 165.55 o
3 12 1 55.98 69.19 15.90 o
3 12 2 4085.81 4458.06 153.54 o
3 13 0 4.93 2.84 2.11 <
3 13 1 1.74 4.47 4.68 <
3 14 0 531.48 464.84 52.22 o
3 14 1 617.26 674.28 66.94 o
3 14 2 401.18 437.19 72.43 o
3 15 1 309.78 262.95 63.40 o
4 0 1 77457.90 71049.50 437.90 o
4 0 2 801.95 713.73 47.25 o
4 0 3 18603.10 19268.90 388.44 o
4 1 0 4195.88 4477.95 104.05 o
4 1 1 1168.10 1301.05 31.43 o
4 1 2 1728.10 1656.88 48.05 o
4 1 3 275.38 255.71 36.78 o
4 2 0 29537.10 31070.80 308.63 o
4 2 1 2233.95 2274.91 38.86 o
4 2 2 11839.10 11735.60 137.61 o
4 2 3 619.77 683.38 75.25 o
4 3 0 4210.99 4415.61 126.72 o
4 3 1 10784.60 10928.60 102.33 o
4 3 2 1696.84 1519.98 51.55 o
4 3 3 2840.60 2811.02 155.03 o
4 4 0 1795.83 1989.18 137.33 o
4 4 1 1681.32 1626.26 43.16 o
4 4 2 853.66 853.51 36.88 o
4 4 3 427.86 463.08 69.92 o
4 5 0 2857.35 2887.37 193.05 o
4 5 1 39.28 31.94 6.76 o
4 5 2 1237.95 1164.47 49.93 o
4 5 3 37.39 28.23 18.04 <
4 6 0 504.82 478.99 84.31 o
4 6 1 12.09 15.17 7.37 o
4 6 2 268.19 241.59 24.52 o
4 6 3 9.44 25.17 17.89 <
4 7 0 1036.94 979.86 46.98 o
4 7 1 17.19 13.84 10.37 <
4 7 2 615.77 598.94 44.15 o
4 7 3 0.56 2.07 6.05 <
4 8 0 256.78 269.16 18.71 o
4 8 1 17.75 6.52 6.55 <
4 8 2 117.89 137.00 19.89 o
4 8 3 12.96 8.56 7.20 <
4 9 0 1339.33 1085.80 46.90 o
4 9 1 30.45 14.64 7.05 o
4 9 2 767.16 764.30 48.60 o
4 9 3 33.93 25.19 11.32 o
4 10 1 12.27 9.59 5.84 <
4 10 2 611.77 606.33 44.29 o
4 10 3 2.10 -0.99 3.50 <
4 11 1 3039.71 3052.09 105.29 o
4 11 2 998.80 1086.57 61.64 o
4 12 0 3078.51 3111.23 128.54 o
4 12 1 0.13 6.12 4.26 <
4 12 2 2048.74 2423.68 134.28 o
4 13 0 1408.10 1319.02 84.78 o
4 13 1 1560.69 1696.43 86.05 o
4 13 2 1016.86 1078.44 90.61 o
4 14 0 6.96 -0.33 3.47 <
4 14 1 3867.44 3970.43 152.60 o
4 14 2 3.13 6.21 6.42 <
4 15 1 183.47 154.23 42.42 o
5 1 0 13082.10 12887.00 232.18 o
5 1 1 3255.87 3501.06 59.18 o
5 1 2 5203.51 4689.18 92.97 o
5 1 3 744.78 715.44 63.71 o
5 2 0 109.09 86.10 17.23 o
5 2 1 5830.20 6075.03 72.66 o
5 2 2 69.55 73.78 11.06 o
5 2 3 1599.69 1643.99 96.20 o
5 3 0 1024.17 1129.49 66.43 o
5 3 1 12362.30 12278.10 107.62 o
5 3 2 498.11 583.78 30.78 o
5 3 3 3236.08 3209.12 145.43 o
5 4 0 615.96 572.93 52.03 o
5 4 1 802.56 759.22 30.79 o
5 4 2 307.32 287.32 21.46 o
5 4 3 182.81 189.91 44.27 o
5 5 0 6592.51 6888.15 290.41 o
5 5 1 8160.15 8146.24 123.77 o
5 5 2 3031.92 3045.87 73.09 o
5 5 3 2994.34 3160.10 180.65 o
5 6 0 7812.18 7999.52 349.65 o
5 6 1 651.12 668.48 39.44 o
5 6 2 3893.19 3959.58 101.49 o
5 6 3 100.39 83.98 25.13 o
5 7 0 645.53 583.91 101.98 o
5 7 1 1193.01 1228.94 57.92 o
5 7 2 319.36 329.22 31.87 o
5 7 3 434.44 497.52 68.56 o
5 8 0 9759.34 8944.36 156.43 o
5 8 1 1073.60 1002.60 69.47 o
5 8 2 5433.57 5378.20 160.93 o
5 8 3 371.03 384.73 58.26 o
5 9 0 146.18 127.80 13.39 o
5 9 1 17.90 10.80 9.14 <
5 9 2 91.97 91.66 17.10 o
5 9 3 8.08 -0.12 5.79 <
5 10 1 2301.92 2212.72 92.43 o
5 10 2 505.64 563.46 46.27 o
5 10 3 1031.56 1227.52 107.20 o
5 11 1 91.37 76.25 15.86 o
5 11 2 0.17 4.38 9.21 <
5 12 1 1249.72 1376.28 71.92 o
5 12 2 186.57 145.95 31.77 o
5 13 1 3295.50 3518.12 118.67 o
5 13 2 70.47 60.27 25.51 o
5 14 1 318.55 215.28 33.69 o
5 14 2 20.94 22.45 18.85 <
5 15 1 1.92 1.14 8.59 <
6 0 1 1337.07 1393.58 75.63 o
6 0 2 1237.88 1143.28 62.57 o
6 0 3 403.45 433.02 89.54 o
6 1 0 507.02 431.03 55.09 o
6 1 1 577.48 622.54 29.81 o
6 1 2 261.29 268.25 21.48 o
6 1 3 178.07 177.45 30.15 o
6 2 0 38.29 75.24 18.19 o
6 2 1 5995.81 6116.13 94.32 o
6 2 2 3.27 -5.73 5.02 <
6 2 3 1594.05 1650.60 110.80 o
6 3 0 3746.70 4102.18 132.65 o
6 3 1 167.51 154.48 14.00 o
6 3 2 1767.98 1862.49 57.60 o
6 3 3 25.21 12.12 10.84 <
6 4 0 5163.40 5573.22 169.90 o
6 4 1 172.92 162.85 15.69 o
6 4 2 2359.29 2362.69 68.54 o
6 4 3 90.71 86.47 22.96 o
6 5 0 30296.40 31328.80 457.41 o
6 5 1 2869.05 2812.33 77.08 o
6 5 2 14721.30 15191.30 164.63 o
6 5 3 1248.74 1243.04 113.09 o
6 6 0 2.95 -11.48 20.39 <
6 6 1 457.85 485.82 34.66 o
6 6 2 2.00 19.71 17.09 <
6 6 3 126.95 143.96 35.20 o
6 7 0 3301.26 3014.11 231.59 o
6 7 1 21534.60 23013.70 271.78 o
6 7 2 2035.65 1947.79 79.93 o
6 7 3 7420.25 8807.67 289.49 o
6 8 0 6.57 104.13 55.74 <
6 8 1 347.37 347.11 36.08 o
6 8 2 3.42 -0.58 7.32 <
6 8 3 147.18 214.11 41.71 o
6 9 0 13016.00 11523.00 188.18 o
6 9 1 33.46 20.27 9.75 o
6 9 2 7806.22 8185.42 206.67 o
6 9 3 6.50 5.56 7.74 <
6 10 0 975.08 757.11 33.81 o
6 10 1 77.79 80.58 17.33 o
6 10 2 616.80 698.05 99.96 o
6 10 3 33.51 20.06 17.93 <
6 11 1 68.68 68.89 16.04 o
6 11 2 198.86 148.48 34.71 o
6 12 1 192.67 200.39 27.35 o
6 12 2 108.94 134.54 43.66 o
6 13 1 11.94 8.30 6.33 <
6 13 2 1507.36 1943.34 159.85 o
6 14 1 90.15 77.18 27.95 o
6 15 1 40.39 17.93 9.63 <
7 1 0 1711.12 1303.74 112.33 o
7 1 1 2349.64 2176.72 95.43 o
7 1 2 734.40 731.33 37.26 o
7 1 3 580.85 550.40 71.18 o
7 2 0 1357.07 1271.14 78.81 o
7 2 1 11913.50 12326.80 171.76 o
7 2 2 632.48 555.36 30.51 o
7 2 3 3571.28 3535.68 161.68 o
7 3 0 791.20 913.84 63.67 o
7 3 1 8950.98 9022.23 128.73 o
7 3 2 316.13 286.20 24.26 o
7 3 3 2561.07 2607.53 138.55 o
7 4 0 6305.65 6901.22 197.72 o
7 4 1 258.66 266.61 25.29 o
7 4 2 2984.37 2998.58 80.70 o
7 4 3 71.04 56.51 23.05 o
7 5 0 5831.73 6146.92 201.98 o
7 5 1 1.25 6.67 7.27 <
7 5 2 2936.21 2882.61 74.17 o
7 5 3 2.41 3.25 47.85 <
7 6 0 279.92 329.88 51.79 o
7 6 1 1151.18 1232.35 56.06 o
7 6 2 157.12 151.05 17.84 o
7 6 3 441.32 564.02 76.84 o
7 7 1 37.23 52.21 13.14 o
7 7 2 1.25 9.90 9.05 <
7 7 3 11.47 9.86 12.58 <
7 8 0 4110.58 4523.86 310.85 o
7 8 1 634.47 639.89 47.31 o
7 8 2 2343.03 2346.09 113.02 o
7 8 3 217.33 239.13 54.87 o
7 9 0 731.48 720.12 132.82 o
7 9 1 36.81 90.02 32.54 o
7 9 2 429.67 423.82 73.97 o
7 9 3 23.25 6.30 9.32 <
7 10 0 8344.05 7278.27 151.85 o
7 10 1 1934.71 2113.59 106.80 o
7 10 2 5398.37 6166.76 299.84 o
7 11 0 69.60 54.11 9.81 o
7 11 1 1501.31 1555.87 86.14 o
7 12 1 6415.17 6912.05 173.74 o
7 13 1 1379.20 1320.17 73.46 o
7 13 2 428.45 518.64 88.05 o
7 14 1 1042.15 1197.71 113.09 o
7 15 1 333.28 365.34 65.96 o
8 0 2 3245.88 3098.78 121.46 o
8 0 3 5594.81 5609.18 326.20 o
8 1 0 2.18 -15.24 15.27 <
8 1 1 8299.81 8034.46 277.83 o
8 1 2 0.74 1.42 4.43 <
8 1 3 2545.23 2569.86 219.88 o
8 2 0 8833.96 9322.65 231.01 o
8 2 1 6581.79 6771.88 164.92 o
8 2 2 4077.34 3898.14 86.52 o
8 2 3 1894.04 2020.92 189.94 o
8 3 0 23162.70 26056.10 374.24 o
8 3 1 4822.38 4916.34 123.04 o
8 3 2 10883.30 10689.10 139.57 o
8 3 3 1614.11 1692.53 117.76 o
8 4 0 2308.35 2341.47 114.49 o
8 4 1 29.61 38.97 9.23 o
8 4 2 1153.73 1078.28 50.18 o
8 4 3 6.25 14.76 13.64 <
8 5 0 364.76 404.65 52.19 o
8 5 1 2821.21 3116.95 87.07 o
8 5 2 261.54 246.50 21.37 o
8 5 3 744.04 756.76 77.02 o
8 6 0 1416.10 1411.36 105.79 o
8 6 1 0.20 24.69 10.83 o
8 6 2 804.98 719.08 40.80 o
8 6 3 0.87 -3.09 6.14 <
8 7 0 934.49 968.10 124.37 o
8 7 1 1153.96 1401.71 79.44 o
8 7 2 428.27 402.35 38.30 o
8 7 3 585.71 666.40 100.42 o
8 8 0 284.36 374.18 87.86 o
8 8 1 184.98 154.54 27.91 o
8 8 2 154.72 187.62 31.63 o
8 8 3 74.10 20.73 17.64 <
8 9 0 375.26 318.55 98.62 o
8 9 1 4056.74 3793.51 155.06 o
8 9 2 214.32 228.30 54.19 o
8 9 3 1794.64 1926.15 185.45 o
8 10 0 446.58 397.38 108.16 o
8 11 0 1451.53 1259.59 61.60 o
8 12 0 733.85 518.53 27.24 o
8 12 1 718.04 916.03 95.68 o
8 13 1 1640.31 1787.28 118.48 o
9 1 1 6253.25 5664.30 268.28 o
9 1 2 39.96 44.19 13.55 o
9 1 3 1886.10 1975.99 185.58 o
9 2 0 8173.16 7906.14 248.28 o
9 2 1 1634.93 1468.96 85.39 o
9 2 2 3935.07 3853.24 94.16 o
9 2 3 615.49 592.93 101.96 o
9 3 0 21947.90 24105.50 401.84 o
9 3 1 439.29 436.75 41.75 o
9 3 2 10610.60 10540.00 151.49 o
9 3 3 184.71 123.55 47.68 o
9 4 0 30.12 16.18 15.25 <
9 4 1 1381.05 1463.60 68.05 o
9 4 2 14.25 15.57 7.58 o
9 4 3 400.27 379.83 56.40 o
9 5 0 1401.54 1403.18 101.05 o
9 5 1 9272.04 10478.50 190.95 o
9 5 2 881.75 834.14 45.62 o
9 5 3 3210.24 3280.87 168.82 o
9 6 0 54.41 78.11 17.33 o
9 6 1 600.27 715.49 45.12 o
9 6 2 25.85 22.47 7.70 o
9 6 3 223.44 134.78 34.49 o
9 7 0 947.47 910.61 79.35 o
9 7 1 726.59 821.82 58.73 o
9 7 2 503.69 592.22 55.79 o
9 7 3 324.23 342.24 49.85 o
9 8 0 1126.61 1301.46 160.76 o
9 8 1 1687.30 1897.10 101.24 o
9 8 2 737.87 809.07 65.00 o
9 8 3 808.75 903.77 134.51 o
9 9 0 1744.35 1775.13 200.99 o
9 9 1 905.63 975.56 75.95 o
9 9 2 1122.07 1373.91 112.08 o
9 9 3 417.12 475.10 107.36 o
9 10 1 1296.18 942.72 49.71 o
9 12 0 1381.06 1096.62 53.95 o
9 13 1 119.79 119.68 32.20 o
10 0 2 760.98 613.59 65.18 o
10 1 1 1196.21 1187.91 151.93 o
10 1 2 127.50 100.10 19.85 o
10 2 0 3695.43 3091.57 186.21 o
10 2 1 1241.71 1102.75 80.23 o
10 2 2 1895.00 1785.26 71.87 o
10 2 3 294.21 148.95 47.01 o
10 3 0 340.59 260.27 48.11 o
10 3 1 211.68 190.86 30.24 o
10 3 2 152.72 126.64 20.06 o
10 3 3 90.53 39.85 27.67 <
10 4 0 8870.36 9364.96 262.85 o
10 4 1 130.66 128.57 23.69 o
10 4 2 4846.70 5018.71 121.54 o
10 4 3 52.50 27.65 16.33 <
10 5 0 766.13 789.97 73.41 o
10 5 1 9169.97 10283.70 194.52 o
10 5 2 530.61 519.69 45.66 o
10 5 3 3320.15 3456.09 181.69 o
10 6 0 87.26 84.68 30.47 o
10 6 1 2461.14 2741.52 106.91 o
10 6 2 57.63 38.86 13.59 o
10 6 3 1033.11 999.70 97.28 o
10 7 0 18240.80 21250.30 463.13 o
10 7 1 170.76 155.47 30.41 o
10 7 2 10476.80 11447.20 239.95 o
10 7 3 56.67 38.95 18.63 o
10 8 0 2.92 45.23 46.21 <
10 8 1 991.34 1157.52 76.24 o
10 8 2 2.25 1.38 6.23 <
10 8 3 467.64 560.01 77.17 o
10 9 0 210.00 291.74 77.48 o
10 9 1 7663.86 7103.03 154.37 o
10 9 2 117.31 138.88 36.19 o
10 10 1 99.87 82.91 14.10 o
10 10 2 576.88 630.87 74.34 o
10 12 0 21.84 33.25 12.16 o
11 1 2 4049.41 3703.35 140.87 o
11 2 0 2126.88 1775.89 167.04 o
11 2 1 0.35 -5.41 13.79 <
11 2 2 1108.12 951.88 60.22 o
11 3 0 3198.47 2976.79 175.96 o
11 3 1 34.29 42.35 15.36 o
11 3 2 1661.36 1784.95 81.09 o
11 3 3 4.24 6.22 7.83 <
11 4 0 394.01 363.82 57.49 o
11 4 1 126.92 163.71 27.04 o
11 4 2 182.71 169.99 24.21 o
11 4 3 46.76 1.47 11.94 <
11 5 0 547.72 650.37 69.80 o
11 5 1 19.83 3.14 10.20 <
11 5 2 319.39 317.21 34.33 o
11 5 3 15.26 11.77 11.98 <
11 6 0 2071.78 2499.00 144.18 o
11 6 1 1054.78 1278.45 73.23 o
11 6 2 1169.60 1265.63 98.09 o
11 6 3 421.41 473.25 72.39 o
11 7 0 0.39 -11.19 17.51 <
11 7 1 213.00 223.89 32.60 o
11 7 2 0.13 0.82 4.87 <
11 7 3 87.61 32.26 19.73 <
11 8 0 43.34 22.49 21.59 <
11 8 1 7909.52 9777.18 329.29 o
11 8 2 29.24 21.08 13.97 <
11 8 3 3746.25 4598.59 282.76 o
11 9 0 1464.60 1767.24 205.77 o
11 9 2 1005.01 933.75 92.00 o
11 10 1 2453.24 2202.02 86.09 o
11 10 2 2998.89 3233.83 175.14 o
11 11 1 899.92 693.55 44.05 o
12 1 2 1187.37 1052.78 103.61 o
12 2 0 2.38 -23.54 29.87 <
12 2 1 6131.19 5481.66 217.46 o
12 2 2 2.49 -11.89 10.46 <
12 3 0 374.47 750.90 116.57 o
12 3 1 5689.38 5522.73 200.10 o
12 3 2 234.29 210.49 31.93 o
12 4 0 97.65 82.40 33.40 o
12 4 1 613.14 542.77 56.97 o
12 4 2 66.77 75.05 20.76 o
12 4 3 282.13 194.88 56.26 o
12 5 0 4721.95 4988.24 213.52 o
12 5 1 195.24 221.64 32.59 o
12 5 2 2608.85 2728.32 151.29 o
12 5 3 103.64 73.59 31.40 o
12 6 0 5.73 6.94 25.36 <
12 6 1 1675.15 1885.50 94.19 o
12 6 2 8.37 6.85 9.14 <
12 6 3 776.43 719.95 110.17 o
12 7 0 678.23 947.21 97.18 o
12 7 1 4223.82 4856.67 157.27 o
12 7 2 468.73 522.78 63.69 o
12 7 3 1870.72 2065.16 186.17 o
12 8 0 276.27 298.91 57.94 o
12 8 2 185.32 175.73 38.13 o
12 8 3 753.69 708.77 111.32 o
12 9 2 3095.59 3273.86 174.88 o
12 10 2 113.59 118.97 34.11 o
12 11 1 203.61 199.02 25.47 o
13 2 0 45.74 -11.79 12.77 <
13 2 1 1953.85 1957.16 201.20 o
13 2 2 27.74 10.88 12.49 <
13 3 0 48.83 66.72 43.45 <
13 3 1 8460.53 7827.87 253.94 o
13 4 0 2044.85 1984.87 157.21 o
13 4 1 1.07 -38.09 20.81 <
13 4 2 1067.68 1171.39 112.22 o
13 5 0 8357.37 9563.38 321.25 o
13 5 1 134.05 128.62 26.25 o
13 5 2 4862.67 5263.42 223.04 o
13 6 0 207.36 187.07 43.63 o
13 6 1 3220.43 3082.56 128.30 o
13 6 2 179.31 172.68 38.82 o
13 6 3 1500.19 1343.11 151.92 o
13 7 0 72.39 73.36 18.44 o
13 7 1 547.44 593.80 62.61 o
13 7 2 42.33 50.54 19.27 o
13 7 3 253.08 193.96 54.76 o
13 8 2 6.92 10.59 8.79 <
13 8 3 33.83 14.98 18.60 <
13 9 2 716.72 849.45 85.30 o
14 2 1 907.33 313.83 92.63 o
14 3 0 28.94 -18.95 12.24 <
14 3 1 70.84 17.59 12.63 <
14 4 0 124.34 130.45 56.73 o
14 4 1 9046.05 9103.81 281.20 o
14 5 0 2013.48 1969.77 163.60 o
14 5 1 30.59 37.83 20.02 <
14 6 0 2317.33 2637.17 176.61 o
14 6 1 637.35 600.38 67.35 o
14 7 0 1376.50 1792.55 140.65 o
14 7 2 971.74 1214.97 104.52 o
14 7 3 1718.37 1887.24 186.11 o
14 8 2 417.73 524.84 68.07 o
14 8 3 65.77 33.73 27.61 <
14 9 2 300.31 321.69 53.75 o
15 3 0 618.80 548.71 122.58 o
15 3 1 25.77 42.55 28.05 <
15 4 0 194.95 109.10 60.62 <
15 4 1 4511.07 4027.08 201.96 o
15 5 0 795.49 613.64 103.98 o
15 5 1 783.57 692.70 88.66 o
15 6 0 476.12 539.13 83.69 o
15 9 2 13.12 17.34 11.92 <
16 3 0 406.13 1318.27 242.12 o
16 3 1 1976.39 1506.17 169.61 o
16 4 0 15.15 23.56 32.03 <
16 5 0 549.68 358.80 76.13 o
