#------------------------------------------------------------------------------
#$Date: 2021-04-06 11:52:34 +0300 (Tue, 06 Apr 2021) $
#$Revision: 263892 $
#$URL: file:///home/coder/svn-repositories/cod/cif/1/56/14/1561483.cif $
#------------------------------------------------------------------------------
#
# This file is available in the Crystallography Open Database (COD),
# http://www.crystallography.net/
#
# All data on this site have been placed in the public domain by the
# contributors.
#
data_1561483
loop_
_publ_author_name
'Koffi, Agbelenko'
'Ade, Martin'
'Hillebrecht, Harald'
_publ_section_title
;
 Single crystal studies of binary compounds Ta/Ga -- A system with
 experimental and crystallographic peculiarities
;
_journal_name_full               'Journal of Solid State Chemistry'
_journal_page_first              88
_journal_page_last               102
_journal_paper_doi               10.1016/j.jssc.2016.03.014
_journal_volume                  238
_journal_year                    2016
_chemical_formula_sum            'Ga2 Ta3'
_chemical_formula_weight         682.29
_space_group_crystal_system      tetragonal
_space_group_IT_number           127
_space_group_name_Hall           '-P 4 2ab'
_space_group_name_H-M_alt        'P 4/m b m'
_atom_sites_solution_hydrogens   .
_cell_angle_alpha                90
_cell_angle_beta                 90
_cell_angle_gamma                90
_cell_formula_units_Z            2
_cell_length_a                   6.8388(4)
_cell_length_b                   6.8388(4)
_cell_length_c                   3.4933(2)
_cell_measurement_reflns_used    2363
_cell_measurement_temperature    293(2)
_cell_measurement_theta_max      32.3
_cell_measurement_theta_min      4.15
_cell_volume                     163.379(16)
_computing_cell_refinement       'Software for IPDS-II, Fa. Stoe'
_computing_data_collection       'Software for IPDS-II, Fa. Stoe'
_computing_data_reduction        'Software for IPDS-II, Fa. Stoe'
_computing_molecular_graphics    'Diamond (Crystal impact, 2005)'
_computing_publication_material  'SHELXL-97_(Sheldrick, 2008)'
_computing_structure_refinement  'SHELXL-2013 (Sheldrick, 2013)'
_computing_structure_solution    'SHELXS-97 (Sheldrick, 2008)'
_diffrn_ambient_temperature      293(2)
_diffrn_measured_fraction_theta_full 1.000
_diffrn_measured_fraction_theta_max 0.994
_diffrn_measurement_details
; 
0 degree < omega < 180 degree
psi = 0
delta omega 2 degree
exposure time 240s 
;
_diffrn_measurement_device       '2-circle goniometer'
_diffrn_measurement_device_type  'STOE IPDS 2'
_diffrn_measurement_method       'rotation method'
_diffrn_radiation_collimation    '0.5 mm diameter, multiple pinhole'
_diffrn_radiation_monochromator  'plane graphite'
_diffrn_radiation_polarisn_norm  0
_diffrn_radiation_type           MoK\a
_diffrn_radiation_wavelength     0.71073
_diffrn_reflns_av_R_equivalents  0.102
_diffrn_reflns_av_unetI/netI     0.0292
_diffrn_reflns_Laue_measured_fraction_full 1.000
_diffrn_reflns_Laue_measured_fraction_max 0.994
_diffrn_reflns_limit_h_max       10
_diffrn_reflns_limit_h_min       -10
_diffrn_reflns_limit_k_max       10
_diffrn_reflns_limit_k_min       -10
_diffrn_reflns_limit_l_max       5
_diffrn_reflns_limit_l_min       -4
_diffrn_reflns_number            3958
_diffrn_reflns_point_group_measured_fraction_full 1.000
_diffrn_reflns_point_group_measured_fraction_max 0.994
_diffrn_reflns_theta_full        25.242
_diffrn_reflns_theta_max         31.740
_diffrn_reflns_theta_min         4.214
_diffrn_source
'sealed X-ray tube, 12 x 0.4 mm long-fine focus'
_diffrn_source_current           40
_diffrn_source_power             2.00
_diffrn_source_voltage           50
_exptl_absorpt_coefficient_mu    116.049
_exptl_absorpt_correction_T_max  0.0717
_exptl_absorpt_correction_T_min  0.0178
_exptl_absorpt_correction_type   numerical
_exptl_absorpt_process_details   'X-Red and X-SHAPE  (Stoe & Cie, 1999)'
_exptl_crystal_colour            metallic
_exptl_crystal_density_diffrn    13.869
_exptl_crystal_description       platelet
_exptl_crystal_F_000             562
_exptl_crystal_size_max          0.1
_exptl_crystal_size_mid          0.07
_exptl_crystal_size_min          0.05
_refine_diff_density_max         3.076
_refine_diff_density_min         -2.629
_refine_diff_density_rms         0.504
_refine_ls_extinction_coef       0.0195(12)
_refine_ls_extinction_expression Fc^*^=kFc[1+0.001xFc^2^\l^3^/sin(2\q)]^-1/4^
_refine_ls_extinction_method     SHELXL
_refine_ls_goodness_of_fit_ref   0.894
_refine_ls_hydrogen_treatment    undef
_refine_ls_matrix_type           full
_refine_ls_number_parameters     13
_refine_ls_number_reflns         178
_refine_ls_number_restraints     0
_refine_ls_restrained_S_all      0.894
_refine_ls_R_factor_all          0.0294
_refine_ls_R_factor_gt           0.0204
_refine_ls_shift/su_max          0.005
_refine_ls_shift/su_mean         0.001
_refine_ls_structure_factor_coef Fsqd
_refine_ls_weighting_details
'w=1/[\s^2^(Fo^2^)+(0.0287P)^2^] where P=(Fo^2^+2Fc^2^)/3'
_refine_ls_weighting_scheme      calc
_refine_ls_wR_factor_gt          0.0413
_refine_ls_wR_factor_ref         0.0428
_reflns_Friedel_coverage         0.000
_reflns_Friedel_fraction_full    .
_reflns_Friedel_fraction_max     .
_reflns_number_gt                151
_reflns_number_total             178
_reflns_threshold_expression     'I > 2\s(I)'
_cod_data_source_file            Ta3Ga2_HH.cif
_cod_data_source_block           Ta3Ga2
_cod_original_cell_volume        163.38(2)
_cod_database_code               1561483
_shelx_space_group_comment
;
The symmetry employed for this shelxl refinement is uniquely defined
by the following loop, which should always be used as a source of
symmetry information in preference to the above space-group names.
They are only intended as comments.
;
_shelxl_version_number           2013-4
_shelx_res_file
;
TITL yVGaZn3-21 in P4/mbm
CELL 0.71073   6.8388   6.8388   3.4933  90.000  90.000  90.000
ZERR    2.00   0.0004   0.0004   0.0002   0.000   0.000   0.000
LATT  1
SYMM -X, -Y, Z
SYMM -Y, X, Z
SYMM Y, -X, Z
SYMM 0.5-X, 0.5+Y, -Z
SYMM 0.5+X, 0.5-Y, -Z
SYMM 0.5+Y, 0.5+X, -Z
SYMM 0.5-Y, 0.5-X, -Z
SFAC TA GA
UNIT 6 4
L.S. 4
BOND
OMIT 0 8 3
ACTA
LIST 2
FMAP 2
PLAN 20
WGHT    0.028700
EXTI    0.019507
FVAR       0.34085
TA1   1    0.674613    0.174613    0.000000    10.25000    0.00474    0.00474 =
         0.00569    0.00000    0.00000   -0.00071
TA2   1    1.000000    0.000000   -0.500000    10.12500    0.00278    0.00278 =
         0.00732    0.00000    0.00000    0.00000
GA    2    0.373650    0.126350   -0.500000     0.23489    0.00404    0.00404 =
         0.00773    0.00000    0.00000    0.00049
HKLF 4

REM  yVGaZn3-21 in P4/mbm
REM R1 =  0.0204 for     151 Fo > 4sig(Fo)  and  0.0294 for all     178 data
REM     13 parameters refined using      0 restraints

END

WGHT      0.0262      0.0000

REM Highest difference peak  3.076,  deepest hole -2.629,  1-sigma level  0.504
Q1    1   0.5956  0.0956  0.0000  10.25000  0.05    3.08
Q2    1   0.8358  0.0158  0.0000  10.50000  0.05    2.03
Q3    1   1.0000  0.0000 -0.7733  10.25000  0.05    1.86
Q4    1   0.9012  0.0765 -0.5000  10.50000  0.05    1.82
Q5    1   0.2553  0.2447 -0.5000  10.25000  0.05    1.76
Q6    1   0.6643  0.1643  0.2709  10.50000  0.05    1.59
Q7    1   0.9114  0.0617  0.0000  10.50000  0.05    1.57
Q8    1   0.7371  0.1329 -0.5000  10.50000  0.05    1.51
Q9    1   0.7571  0.1017  0.0609  11.00000  0.05    1.30
Q10   1   0.6149  0.1149 -0.5000  10.25000  0.05    1.29
Q11   1   0.7828  0.2828  0.0000  10.25000  0.05    1.29
Q12   1   0.5000  0.0000 -0.5000  10.12500  0.05    1.17
Q13   1   0.8974  0.3145  0.0000  10.50000  0.05    1.08
Q14   1   0.4614  0.2129 -0.5000  10.50000  0.05    1.03
Q15   1   0.8614  0.1618  0.0000  10.50000  0.05    0.91
Q16   1   0.1735  0.1499 -0.5000  10.50000  0.05    0.85
Q17   1   0.5000  0.0000  0.0000  10.12500  0.05    0.80
Q18   1   1.1163  0.0631 -0.6467  11.00000  0.05    0.71
Q19   1   0.2165 -0.0006 -0.5000  10.50000  0.05    0.64
Q20   1   0.3709  0.1291 -0.7701  10.50000  0.05    0.62
;
_shelx_res_checksum              87866
_shelx_hkl_file
;
   0   1   0    4.04   67.98   0
   1   1   0  133.93   62.05   0
   0   2   0   85.06   60.45   0
   1   2   0 1240.59   62.08   0
   2   2   0 3411.88   59.81   0
   0   3   0   32.07   39.82   0
   1   3   0 5327.90   58.74   0
   2   3   0  724.87   45.40   0
   3   3   0 2079.07   42.39   0
   0   4   0  182.07   35.17   0
   1   4   0 2922.05   46.35   0
   2   4   0 2027.28   42.99   0
   3   4   0  109.19   33.02   0
   4   4   0 3229.42   39.47   0
   0   5   0   14.30   30.05   0
   1   5   0  529.35   33.89   0
   2   5   0  364.91   32.64   0
   3   5   0 3118.15   40.30   0
   4   5   0 1405.62   31.59   0
   5   5   0   42.67   25.66   0
   0   6   0 5625.63   44.28   0
   1   6   0  817.31   32.85   0
   2   6   0   19.29   26.43   0
   3   6   0  146.62   28.08   0
   4   6   0  140.94   25.99   0
   5   6   0  525.66   24.31   0
   6   6   0 3821.35   34.97   0
   0   7   0   16.74   23.77   0
   1   7   0  186.85   26.54   0
   2   7   0 2355.28   33.89   0
   3   7   0 1672.78   31.15   0
   4   7   0 1830.15   31.24   0
   5   7   0  621.13   26.60   0
   6   7   0   27.11   22.78   0
   7   7   0  199.17   24.18   0
   0   8   0   13.68   25.80   0
   1   8   0  566.57   28.47   0
   2   8   0 1804.42   29.84   0
   3   8   0   34.16   24.35   0
   4   8   0  397.52   28.17   0
   5   8   0  274.16   25.40   0
   6   8   0   75.41   24.64   0
   0   9   0   21.96   27.74   0
   1   9   0  965.40   28.64   0
   2   9   0  571.87   26.89   0
   3   9   0   73.65   26.73   0
   4   9   0  226.92   26.13   0
   0  10   0  312.12   27.57   0
   1  10   0 1463.35   30.52   0
   0   0   1  227.15   74.64   0
   0   1   1   32.52   64.60   0
   1   1   1 1507.92   65.67   0
   0   2   1 4600.43   63.34   0
   1   2   1 4180.83   61.64   0
   2   2   1  185.88   40.75   0
   0   3   1   50.46   43.40   0
   1   3   1  301.17   41.15   0
   2   3   1   93.32   36.37   0
   3   3   1 5489.70   53.58   0
   0   4   1  930.65   39.37   0
   1   4   1 2705.23   45.75   0
   2   4   1  453.51   38.49   0
   3   4   1   76.45   32.95   0
   4   4   1 1967.03   36.10   0
   0   5   1   21.60   33.15   0
   1   5   1 3081.85   41.25   0
   2   5   1 2199.91   37.90   0
   3   5   1  402.13   31.00   0
   4   5   1 1328.57   30.84   0
   5   5   1 1737.73   30.72   0
   0   6   1  539.28   31.71   0
   1   6   1   11.76   28.83   0
   2   6   1 2919.71   38.26   0
   3   6   1  213.93   28.06   0
   4   6   1 1505.01   28.30   0
   5   6   1   12.57   23.48   0
   6   6   1  291.63   24.64   0
   0   7   1   23.04   28.68   0
   1   7   1  402.60   29.22   0
   2   7   1  773.99   28.34   0
   3   7   1  640.18   29.32   0
   4   7   1 1667.31   31.20   0
   5   7   1 1219.85   27.45   0
   6   7   1  421.77   26.78   0
   7   7   1  173.18   26.68   0
   0   8   1 4568.87   37.42   0
   1   8   1  611.01   28.76   0
   2   8   1   25.18   26.94   0
   3   8   1   34.35   27.69   0
   4   8   1   32.94   25.66   0
   5   8   1  290.33   25.74   0
   0   9   1   27.11   26.04   0
   1   9   1   15.02   27.67   0
   2   9   1   34.21   28.04   0
   3   9   1 3155.91   34.47   0
   4   9   1  216.68   27.81   0
   0   0   2 9999.99   72.45   0
   0   1   2   16.74   38.01   0
   1   1   2   78.97   35.40   0
   0   2   2   50.80   39.41   0
   1   2   2  934.41   38.89   0
   2   2   2 2575.63   42.10   0
   0   3   2   31.92   37.88   0
   1   3   2 4153.27   48.44   0
   2   3   2  521.29   35.00   0
   3   3   2 1447.00   33.39   0
   0   4   2  121.82   32.28   0
   1   4   2 2144.42   39.21   0
   2   4   2 1512.92   34.42   0
   3   4   2   75.76   26.74   0
   4   4   2 2211.94   33.03   0
   0   5   2    2.04   30.50   0
   1   5   2  362.14   30.27   0
   2   5   2  307.95   28.89   0
   3   5   2 2501.78   33.05   0
   4   5   2 1030.69   28.34   0
   5   5   2   45.32   25.71   0
   0   6   2 4426.55   39.62   0
   1   6   2  599.92   30.26   0
   2   6   2   27.41   26.67   0
   3   6   2  104.06   24.96   0
   4   6   2   95.70   24.13   0
   5   6   2  405.69   24.75   0
   6   6   2 3056.93   31.70   0
   0   7   2   37.03   24.92   0
   1   7   2  147.58   27.55   0
   2   7   2 1780.81   32.64   0
   3   7   2 1228.51   29.17   0
   4   7   2 1456.19   29.62   0
   5   7   2  474.80   24.09   0
   6   7   2   26.86   25.14   0
   0   8   2   26.74   26.15   0
   1   8   2  460.92   26.38   0
   2   8   2 1402.00   30.67   0
   3   8   2   27.96   25.88   0
   4   8   2  308.98   26.67   0
   0   9   2   16.65   28.36   0
   1   9   2  809.92   29.08   0
   2   9   2  440.49   27.83   0
   0   0   3  125.85   28.00   0
   0   1   3    9.27   29.58   0
   1   1   3  852.61   33.20   0
   0   2   3 2896.57   40.55   0
   1   2   3 2475.52   37.52   0
   2   2   3   78.37   26.23   0
   0   3   3   27.94   29.25   0
   1   3   3  135.98   26.59   0
   2   3   3   48.45   24.85   0
   3   3   3 3712.59   34.85   0
   0   4   3  609.17   30.66   0
   1   4   3 1693.69   34.34   0
   2   4   3  239.75   24.77   0
   3   4   3   49.03   22.69   0
   4   4   3 1072.33   28.07   0
   0   5   3   20.81   28.03   0
   1   5   3 1949.81   32.16   0
   2   5   3 1356.87   30.99   0
   3   5   3  247.25   24.24   0
   4   5   3  844.27   25.51   0
   5   5   3 1149.97   26.64   0
   0   6   3  370.36   28.66   0
   1   6   3   19.07   27.37   0
   2   6   3 1931.02   32.91   0
   3   6   3  116.52   23.97   0
   4   6   3  952.34   27.75   0
   5   6   3   18.65   22.77   0
   0   7   3   16.01   26.43   0
   1   7   3  272.70   26.48   0
   2   7   3  540.64   28.48   0
   3   7   3  372.93   26.32   0
   4   7   3 1076.27   28.86   0
   0   8   3 2417.90   34.07   0
   1   8   3  367.84   29.14   0
   2   8   3   15.53   28.83   0
   0   0   4 5724.33   44.06   0
   0   1   4   18.11   26.47   0
   1   1   4   44.96   26.02   0
   0   2   4   31.63   25.36   0
   1   2   4  487.12   27.16   0
   2   2   4 1237.30   27.92   0
   0   3   4   11.38   25.48   0
   1   3   4 2029.95   30.75   0
   2   3   4  204.99   22.82   0
   3   3   4  705.81   24.49   0
   0   4   4   42.22   26.93   0
   1   4   4 1134.54   29.17   0
   2   4   4  759.87   25.07   0
   3   4   4   46.72   22.70   0
   4   4   4 1119.96   27.68   0
   0   5   4   22.64   25.21   0
   1   5   4  160.05   26.11   0
   2   5   4  200.28   24.10   0
   3   5   4 1426.57   28.50   0
   4   5   4  554.49   27.01   0
   0   6   4 2613.25   34.51   0
   1   6   4  300.92   25.39   0
   2   6   4   10.11   25.71   0
   0   0   5   93.69   24.82   0
   0   1   5   12.02   26.89   0
   1   1   5  356.51   26.81   0
   0   2   5 1271.76   31.97   0
   1   2   5  993.28   30.62   0
;
_shelx_hkl_checksum              90610
loop_
_space_group_symop_operation_xyz
'x, y, z'
'-x, -y, z'
'-y, x, z'
'y, -x, z'
'-x+1/2, y+1/2, -z'
'x+1/2, -y+1/2, -z'
'y+1/2, x+1/2, -z'
'-y+1/2, -x+1/2, -z'
'-x, -y, -z'
'x, y, -z'
'y, -x, -z'
'-y, x, -z'
'x-1/2, -y-1/2, z'
'-x-1/2, y-1/2, z'
'-y-1/2, -x-1/2, z'
'y-1/2, x-1/2, z'
loop_
_atom_site_label
_atom_site_type_symbol
_atom_site_fract_x
_atom_site_fract_y
_atom_site_fract_z
_atom_site_U_iso_or_equiv
_atom_site_adp_type
_atom_site_occupancy
_atom_site_site_symmetry_order
_atom_site_calc_flag
_atom_site_refinement_flags_posn
_atom_site_refinement_flags_adp
_atom_site_refinement_flags_occupancy
_atom_site_disorder_assembly
_atom_site_disorder_group
Ta1 Ta 0.67461(7) 0.17461(7) 0.0000 0.0051(2) Uani 1 4 d S T P . .
Ta2 Ta 1.0000 0.0000 -0.5000 0.0043(2) Uani 1 8 d S T P . .
Ga Ga 0.3736(2) 0.1264(2) -0.5000 0.0053(7) Uani 0.940(14) 4 d S T . . .
loop_
_atom_site_aniso_label
_atom_site_aniso_U_11
_atom_site_aniso_U_22
_atom_site_aniso_U_33
_atom_site_aniso_U_23
_atom_site_aniso_U_13
_atom_site_aniso_U_12
Ta1 0.0047(3) 0.0047(3) 0.0057(3) 0.000 0.000 -0.00071(18)
Ta2 0.0028(3) 0.0028(3) 0.0073(4) 0.000 0.000 0.000
Ga 0.0040(8) 0.0040(8) 0.0077(9) 0.000 0.000 0.0005(6)
loop_
_atom_type_symbol
_atom_type_description
_atom_type_scat_dispersion_real
_atom_type_scat_dispersion_imag
_atom_type_scat_source
Ta Ta -0.7052 6.5227 'International Tables Vol C Tables 4.2.6.8 and 6.1.1.4'
Ga Ga 0.2307 1.6083 'International Tables Vol C Tables 4.2.6.8 and 6.1.1.4'
loop_
_geom_angle_atom_site_label_1
_geom_angle_atom_site_label_2
_geom_angle_atom_site_label_3
_geom_angle
_geom_angle_site_symmetry_1
_geom_angle_site_symmetry_3
Ga Ta1 Ga 84.44(6) 3_656 3_655
Ga Ta1 Ga 153.06(3) 3_656 9_654
Ga Ta1 Ga 91.62(3) 3_655 9_654
Ga Ta1 Ga 91.62(3) 3_656 9_655
Ga Ta1 Ga 153.06(3) 3_655 9_655
Ga Ta1 Ga 79.92(3) 9_654 9_655
Ga Ta1 Ga 91.62(3) 3_656 1_556
Ga Ta1 Ga 153.06(3) 3_655 1_556
Ga Ta1 Ga 103.23(4) 9_654 1_556
Ga Ta1 Ga 53.40(7) 9_655 1_556
Ga Ta1 Ga 153.06(3) 3_656 .
Ga Ta1 Ga 91.62(3) 3_655 .
Ga Ta1 Ga 53.40(7) 9_654 .
Ga Ta1 Ga 103.23(4) 9_655 .
Ga Ta1 Ga 79.92(3) 1_556 .
Ga Ta1 Ta2 56.076(11) 3_656 5_655
Ga Ta1 Ta2 101.91(2) 3_655 5_655
Ga Ta1 Ta2 150.07(4) 9_654 5_655
Ga Ta1 Ta2 97.81(3) 9_655 5_655
Ga Ta1 Ta2 55.13(3) 1_556 5_655
Ga Ta1 Ta2 99.15(4) . 5_655
Ga Ta1 Ta2 56.077(11) 3_656 1_556
Ga Ta1 Ta2 101.91(2) 3_655 1_556
Ga Ta1 Ta2 99.15(4) 9_654 1_556
Ga Ta1 Ta2 55.13(3) 9_655 1_556
Ga Ta1 Ta2 97.81(3) 1_556 1_556
Ga Ta1 Ta2 150.07(4) . 1_556
Ta2 Ta1 Ta2 103.892(8) 5_655 1_556
Ga Ta1 Ta2 101.91(2) 3_656 .
Ga Ta1 Ta2 56.077(11) 3_655 .
Ga Ta1 Ta2 55.13(3) 9_654 .
Ga Ta1 Ta2 99.15(4) 9_655 .
Ga Ta1 Ta2 150.07(4) 1_556 .
Ga Ta1 Ta2 97.81(3) . .
Ta2 Ta1 Ta2 152.53(2) 5_655 .
Ta2 Ta1 Ta2 69.338(6) 1_556 .
Ga Ta1 Ta2 101.91(2) 3_656 5_654
Ga Ta1 Ta2 56.076(11) 3_655 5_654
Ga Ta1 Ta2 97.81(3) 9_654 5_654
Ga Ta1 Ta2 150.07(4) 9_655 5_654
Ga Ta1 Ta2 99.15(4) 1_556 5_654
Ga Ta1 Ta2 55.13(3) . 5_654
Ta2 Ta1 Ta2 69.338(6) 5_655 5_654
Ta2 Ta1 Ta2 152.53(2) 1_556 5_654
Ta2 Ta1 Ta2 103.892(8) . 5_654
Ga Ta2 Ga 180.0 9_654 1_655
Ga Ta2 Ga 90.0 9_654 11_654
Ga Ta2 Ga 90.0 1_655 11_654
Ga Ta2 Ga 90.0 9_654 3_655
Ga Ta2 Ga 90.0 1_655 3_655
Ga Ta2 Ga 180.0 11_654 3_655
Ga Ta2 Ta1 55.81(3) 9_654 .
Ga Ta2 Ta1 124.19(3) 1_655 .
Ga Ta2 Ta1 126.91(3) 11_654 .
Ga Ta2 Ta1 53.09(3) 3_655 .
Ga Ta2 Ta1 53.09(3) 9_654 3_644
Ga Ta2 Ta1 126.91(3) 1_655 3_644
Ga Ta2 Ta1 55.81(3) 11_654 3_644
Ga Ta2 Ta1 124.19(3) 3_655 3_644
Ta1 Ta2 Ta1 108.879(3) . 3_644
Ga Ta2 Ta1 126.91(3) 9_654 11_665
Ga Ta2 Ta1 53.09(3) 1_655 11_665
Ga Ta2 Ta1 124.19(3) 11_654 11_665
Ga Ta2 Ta1 55.81(3) 3_655 11_665
Ta1 Ta2 Ta1 71.121(3) . 11_665
Ta1 Ta2 Ta1 180.0 3_644 11_665
Ga Ta2 Ta1 124.19(3) 9_654 9_755
Ga Ta2 Ta1 55.81(3) 1_655 9_755
Ga Ta2 Ta1 53.09(3) 11_654 9_755
Ga Ta2 Ta1 126.91(3) 3_655 9_755
Ta1 Ta2 Ta1 110.663(6) . 9_755
Ta1 Ta2 Ta1 108.879(3) 3_644 9_755
Ta1 Ta2 Ta1 71.121(3) 11_665 9_755
Ga Ta2 Ta1 55.81(3) 9_654 1_554
Ga Ta2 Ta1 124.19(3) 1_655 1_554
Ga Ta2 Ta1 126.91(3) 11_654 1_554
Ga Ta2 Ta1 53.09(3) 3_655 1_554
Ta1 Ta2 Ta1 69.338(6) . 1_554
Ta1 Ta2 Ta1 71.121(3) 3_644 1_554
Ta1 Ta2 Ta1 108.879(3) 11_665 1_554
Ta1 Ta2 Ta1 180.0 9_755 1_554
Ga Ta2 Ta1 126.91(3) 9_654 11_664
Ga Ta2 Ta1 53.09(3) 1_655 11_664
Ga Ta2 Ta1 124.19(3) 11_654 11_664
Ga Ta2 Ta1 55.81(3) 3_655 11_664
Ta1 Ta2 Ta1 108.878(3) . 11_664
Ta1 Ta2 Ta1 110.663(6) 3_644 11_664
Ta1 Ta2 Ta1 69.337(6) 11_665 11_664
Ta1 Ta2 Ta1 108.879(3) 9_755 11_664
Ta1 Ta2 Ta1 71.121(3) 1_554 11_664
Ga Ta2 Ta1 53.09(3) 9_654 3_645
Ga Ta2 Ta1 126.91(3) 1_655 3_645
Ga Ta2 Ta1 55.81(3) 11_654 3_645
Ga Ta2 Ta1 124.19(3) 3_655 3_645
Ta1 Ta2 Ta1 71.122(3) . 3_645
Ta1 Ta2 Ta1 69.337(6) 3_644 3_645
Ta1 Ta2 Ta1 110.663(6) 11_665 3_645
Ta1 Ta2 Ta1 71.121(3) 9_755 3_645
Ta1 Ta2 Ta1 108.879(3) 1_554 3_645
Ta1 Ta2 Ta1 180.0 11_664 3_645
Ga Ta2 Ta1 124.19(3) 9_654 9_754
Ga Ta2 Ta1 55.81(3) 1_655 9_754
Ga Ta2 Ta1 53.09(3) 11_654 9_754
Ga Ta2 Ta1 126.91(3) 3_655 9_754
Ta1 Ta2 Ta1 180.0 . 9_754
Ta1 Ta2 Ta1 71.121(3) 3_644 9_754
Ta1 Ta2 Ta1 108.879(3) 11_665 9_754
Ta1 Ta2 Ta1 69.337(6) 9_755 9_754
Ta1 Ta2 Ta1 110.663(6) 1_554 9_754
Ta1 Ta2 Ta1 71.121(3) 11_664 9_754
Ta1 Ta2 Ta1 108.879(3) 3_645 9_754
Ga Ga Ta1 137.78(3) 9_654 11_565
Ga Ga Ta1 137.78(3) 9_654 11_564
Ta1 Ga Ta1 84.44(6) 11_565 11_564
Ga Ga Ta2 116.32(4) 9_654 5_654
Ta1 Ga Ta2 70.83(3) 11_565 5_654
Ta1 Ga Ta2 70.83(3) 11_564 5_654
Ga Ga Ta2 116.32(4) 9_654 1_455
Ta1 Ga Ta2 70.83(3) 11_565 1_455
Ta1 Ga Ta2 70.83(3) 11_564 1_455
Ta2 Ga Ta2 127.37(7) 5_654 1_455
Ga Ga Ta1 63.30(4) 9_654 9_654
Ta1 Ga Ta1 139.85(3) 11_565 9_654
Ta1 Ga Ta1 84.330(12) 11_564 9_654
Ta2 Ga Ta1 139.097(9) 5_654 9_654
Ta2 Ga Ta1 69.060(10) 1_455 9_654
Ga Ga Ta1 63.30(4) 9_654 9_655
Ta1 Ga Ta1 84.330(12) 11_565 9_655
Ta1 Ga Ta1 139.85(3) 11_564 9_655
Ta2 Ga Ta1 139.097(9) 5_654 9_655
Ta2 Ga Ta1 69.060(10) 1_455 9_655
Ta1 Ga Ta1 79.92(3) 9_654 9_655
Ga Ga Ta1 63.30(4) 9_654 1_554
Ta1 Ga Ta1 139.85(3) 11_565 1_554
Ta1 Ga Ta1 84.330(12) 11_564 1_554
Ta2 Ga Ta1 69.060(10) 5_654 1_554
Ta2 Ga Ta1 139.096(9) 1_455 1_554
Ta1 Ga Ta1 76.77(4) 9_654 1_554
Ta1 Ga Ta1 126.60(7) 9_655 1_554
Ga Ga Ta1 63.30(4) 9_654 .
Ta1 Ga Ta1 84.330(12) 11_565 .
Ta1 Ga Ta1 139.85(3) 11_564 .
Ta2 Ga Ta1 69.059(10) 5_654 .
Ta2 Ga Ta1 139.097(9) 1_455 .
Ta1 Ga Ta1 126.60(7) 9_654 .
Ta1 Ga Ta1 76.77(4) 9_655 .
Ta1 Ga Ta1 79.92(3) 1_554 .
loop_
_geom_bond_atom_site_label_1
_geom_bond_atom_site_label_2
_geom_bond_distance
_geom_bond_site_symmetry_2
Ta1 Ga 2.5993(15) 3_656
Ta1 Ga 2.5993(15) 3_655
Ta1 Ga 2.7196(9) 9_654
Ta1 Ga 2.7196(9) 9_655
Ta1 Ga 2.7196(9) 1_556
Ta1 Ga 2.7196(9) .
Ta1 Ta2 3.0706(2) 5_655
Ta1 Ta2 3.0706(2) 1_556
Ta1 Ta2 3.0706(2) .
Ta1 Ta2 3.0706(2) 5_654
Ta2 Ga 2.6975(9) 9_654
Ta2 Ga 2.6975(9) 1_655
Ta2 Ga 2.6975(9) 11_654
Ta2 Ga 2.6975(9) 3_655
Ta2 Ta1 3.0706(2) 3_644
Ta2 Ta1 3.0706(2) 11_665
Ta2 Ta1 3.0706(2) 9_755
Ta2 Ta1 3.0706(2) 1_554
Ta2 Ta1 3.0706(2) 11_664
Ta2 Ta1 3.0706(2) 3_645
Ta2 Ta1 3.0706(2) 9_754
Ga Ga 2.444(4) 9_654
Ga Ta1 2.5993(15) 11_565
Ga Ta1 2.5993(15) 11_564
Ga Ta2 2.6975(9) 5_654
Ga Ta2 2.6975(9) 1_455
Ga Ta1 2.7195(9) 9_654
Ga Ta1 2.7195(9) 9_655
Ga Ta1 2.7195(9) 1_554
