#------------------------------------------------------------------------------
#$Date: 2021-04-15 10:48:38 +0300 (Thu, 15 Apr 2021) $
#$Revision: 264191 $
#$URL: file:///home/coder/svn-repositories/cod/cif/1/56/18/1561800.cif $
#------------------------------------------------------------------------------
#
# This file is available in the Crystallography Open Database (COD),
# http://www.crystallography.net/
#
# All data on this site have been placed in the public domain by the
# contributors.
#
data_1561800
loop_
_publ_author_name
'Seibel, Elizabeth M.'
'Xie, Weiwei'
'Gibson, Quinn D.'
'Cava, R.J.'
_publ_section_title
;
 Structure and magnetic properties of the REAuBi2 (RE=La--Nd, Sm) phases
;
_journal_name_full               'Journal of Solid State Chemistry'
_journal_page_first              318
_journal_page_last               324
_journal_paper_doi               10.1016/j.jssc.2015.07.013
_journal_volume                  230
_journal_year                    2015
_chemical_formula_sum            'Au Bi2 Nd'
_chemical_formula_weight         759.17
_space_group_crystal_system      tetragonal
_space_group_IT_number           129
_space_group_name_Hall           '-P 4a 2a'
_space_group_name_H-M_alt        'P 4/n m m :2'
_atom_sites_solution_hydrogens   .
_audit_creation_method           SHELXL-2013
_cell_angle_alpha                90
_cell_angle_beta                 90
_cell_angle_gamma                90
_cell_formula_units_Z            2
_cell_length_a                   4.602(2)
_cell_length_b                   4.602(2)
_cell_length_c                   9.859(4)
_cell_measurement_reflns_used    1432
_cell_measurement_temperature    100(2)
_cell_measurement_theta_max      27.60
_cell_measurement_theta_min      6.06
_cell_volume                     208.80(15)
_computing_cell_refinement       'Bruker SAINT'
_computing_data_collection       'Bruker APEX2'
_computing_data_reduction        'Bruker SAINT'
_computing_molecular_graphics    'Bruker SHELXTL'
_computing_publication_material  'Bruker SHELXTL'
_computing_structure_refinement  'SHELXL-2013 (Sheldrick, 2013)'
_computing_structure_solution    'SHELXS-97 (Sheldrick 2008)'
_diffrn_ambient_temperature      100(2)
_diffrn_measured_fraction_theta_full 1.000
_diffrn_measured_fraction_theta_max 1.000
_diffrn_measurement_device_type  'Bruker APEX-II CCD'
_diffrn_measurement_method       '\f and \w scans'
_diffrn_radiation_type           MoK\a
_diffrn_radiation_wavelength     0.71073
_diffrn_reflns_av_R_equivalents  0.1146
_diffrn_reflns_av_unetI/netI     0.0606
_diffrn_reflns_Laue_measured_fraction_full 1.000
_diffrn_reflns_Laue_measured_fraction_max 1.000
_diffrn_reflns_limit_h_max       6
_diffrn_reflns_limit_h_min       -3
_diffrn_reflns_limit_k_max       6
_diffrn_reflns_limit_k_min       -5
_diffrn_reflns_limit_l_max       13
_diffrn_reflns_limit_l_min       -13
_diffrn_reflns_number            1553
_diffrn_reflns_point_group_measured_fraction_full 1.000
_diffrn_reflns_point_group_measured_fraction_max 1.000
_diffrn_reflns_theta_full        25.242
_diffrn_reflns_theta_max         28.281
_diffrn_reflns_theta_min         2.066
_exptl_absorpt_coefficient_mu    131.029
_exptl_absorpt_correction_T_max  0.6809
_exptl_absorpt_correction_T_min  0.0656
_exptl_absorpt_correction_type   integration
_exptl_crystal_colour            Metallic
_exptl_crystal_density_diffrn    12.074
_exptl_crystal_density_method    'Not measured'
_exptl_crystal_description       Irregular
_exptl_crystal_F_000             610
_exptl_crystal_size_max          0.012
_exptl_crystal_size_mid          0.010
_exptl_crystal_size_min          0.006
_refine_diff_density_max         6.207
_refine_diff_density_min         -5.357
_refine_diff_density_rms         1.257
_refine_ls_extinction_coef       .
_refine_ls_extinction_method     none
_refine_ls_goodness_of_fit_ref   1.150
_refine_ls_hydrogen_treatment    undef
_refine_ls_matrix_type           full
_refine_ls_number_parameters     11
_refine_ls_number_reflns         190
_refine_ls_number_restraints     0
_refine_ls_restrained_S_all      1.150
_refine_ls_R_factor_all          0.0611
_refine_ls_R_factor_gt           0.0473
_refine_ls_shift/su_max          0.000
_refine_ls_shift/su_mean         0.000
_refine_ls_structure_factor_coef Fsqd
_refine_ls_weighting_details
'w=1/[\s^2^(Fo^2^)+(0.0242P)^2^+1.5674P] where P=(Fo^2^+2Fc^2^)/3'
_refine_ls_weighting_scheme      calc
_refine_ls_wR_factor_gt          0.1110
_refine_ls_wR_factor_ref         0.1144
_reflns_Friedel_coverage         0.000
_reflns_Friedel_fraction_full    .
_reflns_Friedel_fraction_max     .
_reflns_number_gt                164
_reflns_number_total             190
_reflns_threshold_expression     'I > 2\s(I)'
_cod_data_source_file            JSSC-2015-230-318.cif
_cod_data_source_block           mo_Liz442_NdAuBi2_0m
_cod_depositor_comments
;
The following automatic conversions were performed:

data item '_exptl_crystal_density_meas' value 'None' was changed to
'?' -- the value is perceived as not measured.

Automatic conversion script
Id: cif_fix_values 8369 2020-08-20 11:38:08Z andrius 
;
_cod_original_cell_volume        208.8(2)
_cod_original_sg_symbol_H-M      'P 4/n m m'
_cod_database_code               1561800
_shelx_space_group_comment
; 
The symmetry employed for this shelxl refinement is uniquely defined 
by the following loop, which should always be used as a source of 
symmetry information in preference to the above space-group names. 
They are only intended as comments. 
;
_shelxl_version_number           2013-4
_shelx_res_file
; 
TITL mo_Liz442_NdAuBi2_0m in P4/nmm 
CELL 0.71073   4.60200   4.60200   9.85950  90.0000  90.0000  90.0000 
ZERR    2.00   0.00210   0.00210   0.00440   0.0000   0.0000   0.0000 
LATT  1 
SYMM 0.5-X, 0.5-Y, Z 
SYMM 0.5-Y, X, Z 
SYMM Y, 0.5-X, Z 
SYMM -X, 0.5+Y, -Z 
SYMM 0.5+X, -Y, -Z 
SYMM 0.5+Y, 0.5+X, -Z 
SYMM -Y, -X, -Z 
SFAC ND AU BI 
UNIT 2 2 4 
TEMP -173.140 
  
L.S. 10 
ACTA 
  
WGHT    0.024200    1.567400 
FVAR       0.06437 
MOLE   1 
BI1   3    0.250000    0.250000    0.817436    10.12500    0.00103    0.00103 = 
         0.01818    0.00000    0.00000    0.00000 
ND2   1   -0.250000   -0.250000    0.761745    10.12500    0.00505    0.00505 = 
         0.00620    0.00000    0.00000    0.00000 
BI3   3    0.750000    0.250000    0.500000    10.12500    0.00262    0.00262 = 
         0.00668    0.00000    0.00000    0.00000 
AU4   2    0.750000    0.250000    0.000000    10.11779    0.00905    0.00905 = 
         0.00927    0.00000    0.00000    0.00000 
  
HKLF 4 
  
REM  mo_Liz442_NdAuBi2_0m in P4/nmm 
REM R1 =  0.0473 for     164 Fo > 4sig(Fo)  and  0.0611 for all     190 data 
REM     11 parameters refined using      0 restraints 
  
END 
  
WGHT      0.0232      1.6502 
  
REM Highest difference peak  6.207,  deepest hole -5.357,  1-sigma level  1.257 
Q1    1   0.2500  0.2500  0.9152  10.12500  0.05    6.21 
Q2    1   0.7500  0.2500  0.4014  10.25000  0.05    6.05 
Q3    1   0.7500  0.2500 -0.0994  10.25000  0.05    5.90 
Q4    1   0.2500  0.2500  1.0244  10.12500  0.05    4.02 
Q5    1  -0.2500 -0.2500  0.8598  10.12500  0.05    3.69 
Q6    1   0.5464  0.0464  0.5000  10.50000  0.05    3.25 
Q7    1   0.5619  0.0719  0.5451  11.00000  0.05    3.23 
Q8    1   0.4470  0.0530  0.7815  10.50000  0.05    3.14 
Q9    1   0.4363  0.0637  0.8577  10.50000  0.05    2.89 
Q10   1   0.5266  0.0765 -0.0232  11.00000  0.05    2.86 
Q11   1   0.3473  0.2500  0.7021  10.50000  0.05    2.82 
Q12   1  -0.4355 -0.0645  0.8015  10.50000  0.05    2.74 
Q13   1  -0.2500 -0.2500  0.6794  10.12500  0.05    2.66 
Q14   1  -0.4410 -0.0590  0.7201  10.50000  0.05    2.52 
Q15   1   0.7500  0.2500  0.3138  10.25000  0.05    2.48 
Q16   1   0.2500  0.2500  0.5951  10.12500  0.05    2.36 
Q17   1   0.3335  0.2500  0.8045  10.50000  0.05    2.11 
Q18   1  -0.5306  0.0306  0.6673  10.50000  0.05    2.00 
Q19   1   0.6371  0.2500  0.4971  10.50000  0.05    1.91 
Q20   1  -0.3516 -0.2500  0.7640  10.50000  0.05    1.86 
;
_shelx_res_checksum              65151
_shelx_hkl_file
; 
   0   0  -1    9.45    3.80 
   0   0  -1   27.11    3.40 
   0   0  -1    9.28    4.09 
   0   0   1   10.44    3.10 
   0   0   1   18.09    3.99 
   0   0  -2   24.53    4.89 
   0   0  -2   42.43    4.96 
   0   0  -2   15.27    4.73 
   0   0   2   24.78    4.20 
   0   0   2   30.46    4.65 
   0   0  -3   81.16    6.26 
   0   0  -3  132.48    7.30 
   0   0  -3   89.78    6.64 
   0   0   3  101.11    5.79 
   0   0   3  129.67    6.72 
   0   0  -4  308.65    8.73 
   0   0  -4  424.48   10.02 
   0   0   4  410.57    9.39 
   0   0   4  471.28    9.37 
   0   0  -5   44.89    4.94 
   0   0  -5   54.41    5.80 
   0   0  -5   47.61    4.92 
   0   0   5   67.26    4.81 
   0   0   5   60.22    4.90 
   0   0  -6  173.24    7.04 
   0   0  -6  187.92    7.73 
   0   0  -6  116.48    6.55 
   0   0   6  214.21    7.32 
   0   0  -7   14.07    3.61 
   0   0  -7   12.13    3.57 
   0   0   7   20.30    3.40 
   0   0  -8   93.89    6.17 
   0   0  -8   68.80    6.46 
   0   0   8   98.64    5.88 
   0   0  -9    5.45    3.49 
   0   0  -9    1.15    3.54 
   0   0   9   -2.80    2.21 
   0   0 -10   83.45    6.45 
   0   0 -10   78.10    7.20 
   0   0  10   96.86    6.21 
   0   0 -11    0.46    3.35 
   0   0 -11   -2.26    3.84 
   0   0  11    3.27    2.87 
   0   0 -12  129.41    7.73 
   0   0 -12  117.79    8.66 
   0   0  12  133.24    7.50 
   0   0 -13   -3.01    3.48 
   0   0 -13   -0.36    4.51 
   0   0  13    1.17    3.32 
   0   1   0    1.02    0.62 
   0   1   0    0.19    0.78 
   1   0   0    1.34    0.64 
   0  -1   1    5.25    1.69 
   0   1  -1    2.44    0.64 
   0   1  -1    5.59    1.07 
   0   1   1    2.42    0.82 
   0   1   1    3.73    0.92 
   1   0  -1    3.40    0.94 
   1   0   1    2.55    0.69 
  -1   0  -2   73.11    6.95 
   0  -1   2   36.41    3.98 
   0   1  -2   24.37    1.49 
   0   1  -2   33.34    2.25 
   0   1   2   18.58    1.90 
   0   1   2   43.41    2.12 
   1   0  -2   25.48    2.00 
   1   0  -2   45.43    2.12 
   1   0   2   22.29    1.40 
   1   0   2   67.41    6.08 
  -1   0  -3   19.55    4.55 
  -1   0   3   10.75    1.85 
   0  -1  -3   19.23    2.18 
   0  -1   3   17.34    3.78 
   0   1  -3   11.48    1.56 
   0   1  -3   12.12    1.94 
   0   1   3    6.13    1.82 
   0   1   3   16.11    1.87 
   1   0  -3   11.35    2.01 
   1   0   3    7.49    1.32 
   1   0   3   13.08    2.18 
  -1   0  -4   40.18    4.88 
  -1   0   4   23.06    3.09 
   0  -1  -4   45.19    3.67 
   0  -1   4   19.36    2.41 
   0  -1   4   40.41    6.16 
   0   1  -4   28.05    2.84 
   0   1  -4   30.85    3.43 
   0   1   4   22.02    3.39 
   0   1   4   45.60    3.37 
   1   0  -4   29.80    3.53 
   1   0  -4   57.95    6.88 
   1   0   4   17.73    2.24 
   1   0   4   24.34    3.14 
  -1   0  -5   75.37    6.18 
  -1   0   5   51.80    5.92 
  -1   0   5   96.96    4.34 
   0  -1  -5   95.55    5.52 
   0  -1   5   39.81    4.04 
   0  -1   5   99.17    8.39 
   0   1  -5   57.76    4.60 
   0   1  -5   77.91    5.28 
   0   1   5   46.49    6.00 
   0   1   5  107.52    5.41 
   1   0  -5   59.98    6.54 
   1   0  -5   94.53    7.58 
   1   0   5   40.19    4.06 
   1   0   5   51.01    5.46 
  -1   0  -6    2.63    3.09 
  -1   0   6   -1.90    5.06 
   0  -1  -6    4.34    5.41 
   0  -1  -6    3.69    3.65 
   0  -1   6    0.21    3.58 
   0  -1   6    3.82    3.70 
   0   1  -6    0.42    4.09 
   0   1  -6    3.71    3.69 
   0   1   6    1.73    4.29 
   0   1   6    2.98    3.40 
   1   0  -6   -3.41    5.61 
   1   0  -6    1.86    3.52 
   1   0   6    3.38    3.77 
  -1   0  -7  130.12    9.58 
  -1   0  -7   75.69    6.43 
  -1   0   7  122.23    9.11 
   0  -1  -7   92.16    8.07 
   0  -1  -7  123.91   10.41 
   0  -1   7  106.75    9.05 
   0   1  -7  154.65   10.45 
   0   1  -7  187.67   11.70 
   0   1   7   89.38    7.31 
   0   1   7  180.05   11.10 
   1   0  -7   68.13    8.30 
   1   0  -7   78.92    6.78 
   1   0   7   77.75    7.42 
  -1   0  -8   16.00    4.89 
  -1   0  -8    8.86    3.72 
  -1   0   8   12.76    4.05 
   0  -1  -8   13.98    4.45 
   0  -1  -8   12.35    5.53 
   0  -1   8    9.64    4.14 
   0   1  -8   29.10    5.72 
   0   1  -8   20.65    6.27 
   0   1   8    7.04    3.46 
   1   0  -8   17.35    4.90 
   1   0  -8   17.06    4.31 
   1   0   8   10.30    3.91 
  -1   0  -9   49.25    6.09 
  -1   0  -9   28.67    5.00 
  -1   0   9   55.87    6.13 
   0  -1  -9   49.80    6.21 
   0  -1  -9   42.65    6.41 
   0  -1   9   64.49    6.40 
   0   1  -9   67.55    6.83 
   0   1  -9   65.18    7.58 
   0   1   9   49.06    5.69 
   1   0  -9   46.58    6.24 
   1   0  -9   40.06    5.50 
   1   0   9   47.14    5.30 
  -1   0 -10   47.82    5.91 
  -1   0 -10   36.28    5.38 
  -1   0  10   33.63    4.88 
   0  -1 -10   42.00    5.84 
   0  -1 -10   27.86    5.77 
   0  -1  10   49.01    5.85 
   0   1 -10   48.64    6.14 
   0   1 -10   60.16    7.37 
   0   1  10   30.87    4.57 
   1   0 -10   31.28    5.29 
   1   0 -10   30.49    5.18 
   1   0  10   24.69    4.10 
  -1   0 -11    7.77    4.09 
  -1   0 -11    3.47    4.19 
  -1   0  11    8.07    3.53 
   0  -1 -11    8.59    4.11 
   0  -1 -11    3.54    4.51 
   0  -1  11    8.72    3.74 
   0   1 -11    7.58    4.08 
   0   1 -11    7.20    4.69 
   0   1  11    5.11    3.15 
   1   0 -11    5.45    3.82 
   1   0 -11    4.40    4.26 
   1   0  11    5.83    3.17 
  -1   0 -12   28.08    5.09 
  -1   0 -12   26.35    5.55 
  -1   0  12   26.11    4.53 
   0  -1 -12   26.01    5.24 
   0  -1 -12   24.90    5.45 
   0  -1  12   25.94    4.62 
   0   1 -12   31.92    5.41 
   0   1 -12   32.85    6.14 
   0   1  12   27.90    4.73 
   1   0 -12   27.60    5.32 
   1   0 -12   23.64    5.48 
   1   0  12   18.52    4.00 
  -1   1   0    3.47    0.65 
   1  -1   0    3.91    0.69 
   1   1   0    4.41    0.96 
   1   1   0    5.62    0.99 
  -1   1   1   19.65    1.93 
   1  -1  -1   18.55    2.00 
   1  -1   1   22.90    5.49 
   1   1  -1   31.57    1.75 
   1   1  -1   40.64    1.85 
   1   1   1   27.79    1.69 
   1   1   1   36.22    1.83 
  -1  -1   2 1113.51    8.87 
  -1   1   2  610.64   10.44 
   1  -1  -2  399.85    9.02 
   1  -1   2  545.97   14.40 
   1   1  -2  788.57    6.88 
   1   1  -2  886.71    6.88 
   1   1   2  637.94    6.34 
   1   1   2 1016.61    7.82 
  -1  -1  -3   91.38    3.54 
  -1  -1   3   88.42    3.48 
  -1   1  -3   79.03    5.30 
  -1   1  -3   55.39    3.10 
  -1   1   3   63.69    7.28 
   1  -1  -3   38.40    6.37 
   1  -1   3   59.59    4.42 
   1  -1   3   68.98    9.24 
   1   1  -3   59.58    2.61 
   1   1  -3   60.55    2.94 
   1   1  -3   86.68    4.11 
   1   1   3   44.45    2.31 
   1   1   3   82.89    3.18 
  -1  -1  -4  134.55    4.77 
  -1  -1   4  123.83    4.52 
  -1   1  -4  117.14    5.62 
  -1   1  -4  102.61    4.61 
  -1   1   4  121.16    7.58 
  -1   1   4  137.91    5.27 
   1  -1  -4   58.43    6.62 
   1  -1  -4  120.08    5.17 
   1  -1   4   99.36    4.90 
   1  -1   4   80.93    9.52 
   1   1  -4   84.08    3.50 
   1   1  -4   87.95    3.91 
   1   1  -4  112.76    4.23 
   1   1   4   62.13    2.96 
   1   1   4  131.88    4.53 
  -1  -1  -5   97.25    5.32 
  -1  -1   5   97.92    5.06 
  -1   1  -5   91.43    5.27 
  -1   1  -5  100.25    6.04 
  -1   1   5   83.34    5.99 
  -1   1   5  123.94    7.00 
   1  -1  -5   43.86    5.34 
   1  -1  -5  101.48    6.82 
   1  -1   5   71.26    4.39 
   1  -1   5   72.79    7.76 
   1   1  -5   58.04    3.75 
   1   1  -5   67.97    4.42 
   1   1  -5   77.63    4.68 
   1   1   5   37.99    2.89 
   1   1   5  106.26    5.22 
   1   1   5   57.36    4.84 
  -1  -1  -6  184.59    8.36 
  -1   1  -6  155.28    6.34 
  -1   1  -6  240.43   10.20 
  -1   1   6  146.41    6.96 
   1  -1  -6   79.15    5.93 
   1  -1  -6  195.44   10.87 
   1  -1   6  140.00    5.61 
   1  -1   6  154.02    8.59 
   1   1  -6  103.18    5.56 
   1   1  -6  135.50    6.76 
   1   1   6   78.51    4.67 
   1   1   6  231.90    8.74 
  -1  -1  -7    9.02    5.20 
  -1   1  -7    6.22    2.97 
  -1   1  -7   14.22    5.99 
  -1   1   7    4.28    2.90 
   1  -1  -7    2.51    3.15 
   1  -1  -7    7.81    4.74 
   1  -1   7    7.02    2.65 
   1   1  -7    5.75    3.93 
   1   1  -7    8.55    4.62 
   1   1   7    3.73    2.93 
   1   1   7    7.15    4.87 
  -1  -1  -8  216.06   13.21 
  -1   1  -8  181.43    7.24 
  -1   1  -8  265.69   11.98 
  -1   1   8  170.18    7.71 
   1  -1  -8  109.17    6.93 
   1  -1  -8  125.67    8.38 
   1  -1   8  180.60    6.77 
   1   1  -8  208.34   12.65 
   1   1  -8  293.69   15.24 
   1   1   8  132.28   10.12 
  -1  -1  -9    3.15    6.84 
  -1  -1  -9   -1.52    5.00 
  -1   1  -9    2.19    3.17 
  -1   1  -9    9.71    4.79 
  -1   1   9    1.99    2.65 
   1  -1  -9   -1.52    3.18 
   1  -1  -9    2.07    4.23 
   1  -1   9    2.27    2.62 
   1   1  -9   -0.56    6.45 
   1   1  -9    2.08    6.04 
   1   1   9    3.53    5.22 
  -1  -1 -10  105.58    9.78 
  -1  -1 -10   81.76    8.73 
  -1   1 -10  139.46    9.47 
  -1   1  10   96.36    6.60 
   1  -1 -10   76.45    6.47 
   1  -1 -10   71.84    7.48 
   1  -1  10   79.59    6.32 
   1   1 -10  136.12   10.43 
   1   1 -10  153.95   10.86 
   1   1  10   95.96    9.00 
  -1  -1 -11    3.01    4.76 
  -1  -1 -11    0.56    4.49 
  -1   1 -11    6.30    4.69 
  -1   1  11    2.64    3.02 
   1  -1 -11    2.31    3.52 
   1  -1 -11    4.16    4.29 
   1   1 -11    2.83    4.74 
   1   1 -11    6.88    5.24 
   1   1  11    4.09    3.93 
  -1  -1 -12   30.45    6.02 
  -1  -1 -12   17.21    5.48 
  -1   1 -12   31.53    6.11 
  -1   1  12   17.38    4.06 
   1  -1 -12   20.91    4.98 
   1  -1 -12   26.30    5.59 
   1   1 -12   31.77    6.23 
   1   1 -12   31.67    6.47 
   1   1  12   21.34    4.61 
   1   2   0    0.68    0.96 
   1   2   0    0.43    1.08 
   2  -1   0    0.92    0.68 
   1   2  -1    3.37    1.15 
   1   2  -1    5.51    1.42 
   1   2   1    3.35    1.20 
   1   2   1    3.57    1.29 
   2  -1  -1    3.24    1.00 
   2  -1   1    1.94    0.61 
   1   2  -2   25.32    2.01 
   1   2  -2   34.77    2.44 
   1   2   2   19.97    1.87 
   1   2   2   33.97    2.42 
   2  -1  -2   19.16    1.97 
   2  -1   2   14.73    1.07 
   2  -1   2   24.11    3.41 
  -2   1   3    6.85    1.70 
  -1  -2   3   15.87    2.53 
   1   2  -3   11.24    1.65 
   1   2  -3   10.99    1.83 
   1   2   3    8.05    1.50 
   1   2   3   11.34    1.83 
   2  -1  -3    6.55    1.77 
   2  -1   3    4.11    0.97 
   2  -1   3    8.72    3.14 
  -2   1   4   23.78    3.00 
  -1  -2  -4   37.80    3.30 
  -1  -2   4   34.37    3.83 
   1   2  -4   27.85    2.39 
   1   2  -4   31.68    2.90 
   1   2   4   17.62    2.15 
   1   2   4   35.67    2.99 
   2  -1  -4   18.22    2.94 
   2  -1   4   12.87    1.86 
   2  -1   4   17.45    4.10 
  -2   1  -5   76.57    5.46 
  -2   1   5   52.70    5.14 
  -1  -2  -5   71.18    4.35 
  -1  -2   5   69.25    5.20 
   1   2  -5   49.22    3.26 
   1   2  -5   60.87    3.98 
   1   2   5   32.38    2.85 
   1   2   5   76.69    4.23 
   2  -1  -5   36.17    4.84 
   2  -1   5   36.75    4.29 
   2  -1   5   52.59    6.73 
  -2   1  -6    0.61    3.81 
  -2   1   6    2.97    4.09 
  -1  -2  -6    4.77    2.54 
   1   2  -6    3.68    2.08 
   1   2  -6    3.27    2.49 
   1   2   6    0.99    1.72 
   1   2   6    2.60    2.35 
   2  -1  -6    2.67    4.57 
   2  -1   6    3.37    4.33 
  -2   1  -7  159.18   11.47 
  -2   1   7  110.06   11.53 
  -1  -2  -7   98.96    6.63 
   1   2  -7   62.19    4.94 
   1   2  -7   72.05    5.89 
   1   2   7   41.53    4.61 
   1   2   7  111.82    6.63 
   2  -1  -7   61.53   10.55 
  -2   1  -8   14.50    5.53 
  -2   1   8   13.00    4.94 
  -1  -2  -8   15.47    4.84 
   1   2  -8    7.26    3.73 
   1   2  -8   11.16    4.45 
   1   2   8    3.64    3.19 
   1   2   8   12.79    4.42 
   2  -1  -8    7.35    5.21 
   2  -1  -8    8.82    3.77 
  -2   1  -9   61.00    7.32 
  -2   1   9   44.88    6.09 
  -1  -2  -9   62.20    8.57 
   1   2  -9   48.18    7.12 
   1   2  -9   51.93    7.66 
   1   2   9   21.52    6.31 
   1   2   9   63.94    8.26 
   2  -1  -9   29.67    6.26 
   2  -1  -9   25.27    4.66 
  -2   1 -10   42.69    6.58 
  -2   1  10   26.06    4.98 
  -1  -2 -10   52.35   11.82 
  -1  -2 -10   56.23   10.67 
   1   2 -10   53.41    9.73 
   1   2 -10   67.54   11.01 
   1   2  10   26.76    8.86 
   1   2  10   56.90   10.26 
   2  -1 -10   24.84    5.54 
   2  -1 -10   22.56    4.80 
  -2   1 -11   11.27    5.14 
  -2   1  11    4.69    3.47 
  -1  -2 -11    9.78    6.83 
  -1  -2 -11    4.14    6.90 
   1   2 -11    7.26    7.57 
   1   2 -11   15.83    8.80 
   1   2  11    4.10    4.96 
   2  -1 -11    6.87    4.25 
   2  -1 -11    2.91    4.28 
  -2   1 -12   40.12    6.59 
  -2   1  12   17.66    4.62 
  -1  -2 -12   36.76    7.51 
  -1  -2 -12   20.09    7.14 
   1   2 -12   42.03    8.72 
   1   2  12   11.78    5.02 
   2  -1 -12   17.35    5.07 
   2  -1 -12   24.15    6.53 
   0   2   0  634.43    5.66 
   0   2   0 1110.94    8.71 
   2   0   0  866.22    6.91 
   0  -2   1  298.15    5.21 
   0   2   1    5.83    1.18 
   0   2   1    8.12    1.47 
   2   0  -1    8.10    1.32 
   0  -2   2   26.21    3.07 
   0   2  -2   12.83    1.33 
   0   2  -2   20.88    2.21 
   0   2   2   11.78    1.65 
   0   2   2   22.52    2.16 
   2   0  -2   16.34    1.90 
   2   0   2   14.29    1.45 
   0  -2   3   94.95    5.25 
   0   2  -3   75.03    2.36 
   0   2  -3   99.07    3.60 
   0   2   3   48.45    2.91 
   0   2   3  112.84    3.67 
   2   0  -3   70.92    3.21 
   2   0   3   62.62    2.35 
   0  -2  -4  398.50    7.03 
   0  -2   4  333.75    9.64 
   0   2  -4  246.42    4.33 
   0   2  -4  321.44    6.38 
   0   2   4  156.06    5.31 
   0   2   4  396.94    6.86 
   2   0  -4  233.69    5.85 
   2   0   4  185.03    4.15 
  -2   0  -5   38.31    4.66 
   0  -2  -5   51.85    3.88 
   0  -2   5   54.41    6.80 
   0   2  -5   33.95    2.59 
   0   2  -5   43.92    3.77 
   0   2   5   26.27    3.67 
   0   2   5   56.80    3.76 
   2   0  -5   32.11    3.70 
   2   0   5   24.52    2.42 
   2   0   5   32.29    3.69 
  -2   0  -6  146.85    7.46 
   0  -2  -6  202.20    6.82 
   0  -2   6  251.91   15.21 
   0   2  -6  144.00    4.93 
   0   2  -6  165.85    6.42 
   0   2   6  108.33    7.32 
   0   2   6  218.49    6.91 
   2   0  -6  114.50    6.46 
   2   0   6   90.17    4.41 
  -2   0  -7   10.62    3.80 
   0  -2  -7   20.48    4.17 
   0   2  -7   18.02    3.42 
   0   2  -7   18.08    4.10 
   0   2   7    7.76    5.25 
   0   2   7   17.72    3.86 
   2   0  -7   11.48    5.09 
   2   0  -7   14.16    6.63 
   2   0   7    7.68    2.98 
  -2   0  -8   69.88    6.81 
  -2   0   8   53.88    8.83 
   0  -2  -8   85.64   11.04 
   0  -2  -8   93.88    8.31 
   0   2  -8   99.89    7.07 
   0   2  -8  113.33    8.64 
   0   2   8   51.03    8.28 
   0   2   8  127.25    8.76 
   2   0  -8   80.72   11.39 
   2   0  -8   87.98    8.94 
   2   0   8   66.22    7.63 
  -2   0  -9   12.60    7.33 
  -2   0  -9   -0.26    3.73 
  -2   0   9   -1.25    5.84 
   0  -2  -9    3.38    5.24 
   0  -2  -9    9.71    6.41 
   0   2  -9   10.18   11.45 
   0   2  -9    3.19    6.09 
   0   2   9    1.52    4.09 
   0   2   9    3.83    6.15 
   2   0  -9    2.98    6.94 
   2   0  -9   -1.20    4.51 
   2   0   9   -0.35    4.85 
  -2   0 -10   94.38    9.49 
  -2   0 -10   61.24    7.25 
   0  -2 -10   71.52    8.06 
   0  -2 -10   89.04   11.85 
   0   2 -10  177.07   16.05 
   0   2  10   70.06    7.48 
   2   0 -10   64.74    8.84 
   2   0 -10   75.46    7.95 
   2   0  10   65.11    7.46 
  -2   0 -11    1.79    4.26 
   0  -2 -11    3.09    4.20 
   0  -2 -11    1.91    6.46 
   0   2 -11    9.49    7.22 
   0   2  11   -4.02    2.91 
   2   0 -11   -6.48    3.91 
   2   0 -11    1.00    4.48 
  -2   0 -12   97.46    8.69 
   0  -2 -12   91.65    8.18 
   0  -2 -12   80.50   10.02 
   0   2 -12  197.13   12.85 
   0   2  12  101.76    7.78 
   2   0 -12   96.92    8.57 
   2   0 -12  100.12    8.68 
  -1   2   0   -0.93    2.53 
  -1   2   0    1.19    1.04 
   2   1   0   -0.34    0.85 
  -1   2  -1    3.43    1.21 
  -1   2   1    1.50    4.00 
  -1   2   1    4.31    1.17 
   2   1  -1    4.68    1.21 
   2   1   1    4.07    1.12 
  -1   2  -2   28.64    2.32 
  -1   2   2   23.90    6.60 
  -1   2   2   27.39    2.15 
   1  -2   2   19.70    6.46 
   2   1  -2   26.59    2.18 
   2   1   2   23.54    1.87 
  -2  -1  -3   14.08    2.07 
  -1   2  -3    9.09    1.71 
  -1   2   3    6.89    4.31 
  -1   2   3    9.82    1.60 
   1  -2  -3   -0.37    4.81 
   1  -2   3    6.55    8.98 
   2   1  -3   10.15    1.77 
   2   1  -3   15.97    2.61 
   2   1   3    9.20    1.50 
   2   1   3   11.44    1.80 
  -2  -1  -4   37.73    3.63 
  -1   2  -4   15.28    1.77 
  -1   2  -4   29.43    3.00 
  -1   2   4   28.96    4.79 
  -1   2   4   34.89    2.92 
   1  -2  -4   12.19    4.66 
   1  -2  -4   36.79    3.07 
   1  -2   4   35.80    7.09 
   2   1  -4   27.25    2.72 
   2   1   4   22.05    2.11 
   2   1   4   40.59    3.38 
  -2  -1  -5   73.24    5.39 
  -1   2  -5   59.11    4.09 
  -1   2   5   57.98    5.94 
  -1   2   5   74.30    4.16 
   1  -2  -5   34.69    5.50 
   1  -2  -5   64.02    4.08 
   1  -2   5   71.75    7.94 
   2   1  -5   48.66    3.61 
   2   1   5   37.69    2.77 
   2   1   5   78.78    5.12 
  -2  -1  -6    4.77    3.83 
  -1   2  -6    2.47    2.50 
  -1   2   6    3.35    3.04 
  -1   2   6    2.25    2.50 
   1  -2  -6    0.76    3.53 
   1  -2  -6    3.87    2.75 
   1  -2   6    3.91    3.75 
   2   1  -6    1.28    2.15 
   2   1  -6   -0.07    2.38 
   2   1   6    1.66    1.55 
   2   1   6    4.42    3.33 
  -2  -1  -7  116.47   10.65 
  -1   2  -7  105.75    7.13 
  -1   2   7   76.69    6.15 
  -1   2   7  118.01    7.50 
   1  -2  -7   43.43    5.74 
   1  -2  -7   80.50    6.87 
   2   1  -7   56.60    5.40 
   2   1  -7   57.75    6.08 
   2   1   7   46.36    4.14 
   2   1   7  153.52   10.84 
  -2  -1  -8   10.66    6.39 
  -1   2  -8   14.57    5.41 
  -1   2   8    7.55    3.18 
  -1   2   8   18.97    5.79 
   1  -2  -8    4.37    3.70 
   1  -2  -8    9.27    5.65 
   2   1  -8   11.19    4.71 
   2   1  -8   10.78    5.34 
   2   1   8    4.15    2.84 
  -2  -1  -9   34.82    6.74 
  -1   2  -9   87.40   10.15 
  -1   2   9   45.06    5.58 
   1  -2  -9   35.99    5.71 
   1  -2  -9   53.30    9.61 
   2   1  -9   38.84    8.33 
   2   1  -9   60.71    9.99 
   2   1   9   16.51    5.04 
  -2  -1 -10   31.73    6.34 
  -1   2 -10   87.75   11.25 
  -1   2  10   23.25    4.29 
   1  -2 -10   23.49    4.98 
   1  -2 -10   34.05    7.51 
   2   1 -10   64.31   13.68 
   2   1 -10   52.62   10.04 
   2   1  10   19.80    7.21 
  -2  -1 -11   14.66    7.96 
  -2  -1 -11    2.57    4.87 
  -1   2 -11    5.41    6.54 
  -1   2  11    4.05    3.20 
   1  -2 -11    4.44    4.01 
   1  -2 -11   -0.91    5.29 
   2   1 -11    2.59    6.69 
   2   1 -11   12.05    6.82 
   2   1  11    0.66    5.62 
  -2  -1 -12   30.68    7.60 
  -2  -1 -12    9.98    5.36 
  -1   2 -12   46.08    8.07 
  -1   2  12   20.37    4.55 
   1  -2 -12   16.69    4.85 
   1  -2 -12    6.57    5.33 
   2   1 -12   30.11    7.35 
   2   1 -12   25.88    6.99 
   2   1  12   16.73    5.62 
   2   2   0  843.29    9.23 
   2   2   0 1225.31   10.07 
   2  -2  -1    4.12    1.09 
   2   2  -1    8.29    1.62 
   2   2  -1   10.21    1.62 
   2   2   1    7.10    1.52 
   2   2   1   10.11    1.69 
  -2   2   2   11.74    1.83 
   2  -2  -2    7.04    1.74 
   2  -2   2   23.17   10.99 
   2   2  -2   19.41    2.18 
   2   2  -2   17.38    2.17 
   2   2   2   13.04    1.82 
   2   2   2   19.14    2.09 
  -2   2   3   65.44    4.13 
   2  -2  -3   39.16    3.73 
   2  -2   3   55.42   10.12 
   2   2  -3   75.12    3.51 
   2   2  -3   91.76    3.52 
   2   2   3   63.13    3.14 
   2   2   3   99.49    3.83 
  -2  -2  -4  349.54    7.31 
  -2   2   4  235.73    8.59 
   2  -2  -4  134.91    7.19 
   2  -2   4  204.46   13.16 
   2   2  -4  245.24    6.03 
   2   2  -4  286.12    6.06 
   2   2   4  189.81    5.30 
   2   2   4  329.78    6.94 
  -2  -2  -5   39.91    4.12 
  -2   2  -5   35.66    3.63 
  -2   2   5   25.36    5.43 
   2  -2  -5   14.76    5.32 
   2  -2   5   35.09    7.14 
   2   2  -5   29.17    3.30 
   2   2  -5   34.87    3.51 
   2   2   5   23.43    2.69 
   2   2   5   48.28    3.93 
  -2  -2  -6  177.54    7.17 
  -2   2  -6  166.59    6.56 
  -2   2   6  188.28   10.72 
   2  -2  -6   84.00    8.98 
   2  -2   6  145.60   10.28 
   2   2  -6  122.43    5.49 
   2   2  -6  135.65    5.75 
   2   2   6   85.08    4.48 
   2   2   6  198.74    7.22 
  -2  -2  -7   16.63    4.14 
  -2   2  -7   21.80    4.24 
  -2   2   7   16.23    4.39 
   2  -2  -7    7.29    4.65 
   2   2  -7   17.40    3.64 
   2   2  -7    8.80    3.19 
   2   2   7    6.20    2.33 
   2   2   7   21.21    4.03 
  -2  -2  -8   80.29    8.71 
  -2   2  -8  113.35    8.90 
  -2   2   8   73.90    6.74 
   2  -2  -8   36.78    5.93 
   2  -2  -8   51.53    7.81 
   2   2  -8   56.41    5.75 
   2   2  -8   61.01    6.51 
   2   2   8   29.90    4.26 
   2   2   8   94.69    8.31 
  -2  -2  -9   -2.60    6.00 
  -2   2  -9    7.89    6.43 
  -2   2   9    1.72    3.23 
   2  -2  -9   -3.88    3.66 
   2  -2  -9   11.23    5.08 
   2   2  -9    3.16    4.34 
   2   2  -9    0.36    4.67 
   2   2   9   -0.21    2.99 
   2   2   9   11.41    5.98 
  -2  -2 -10   78.63   11.98 
  -2   2 -10  173.14   14.50 
  -2   2  10   75.36    6.82 
   2  -2 -10   32.70    5.89 
   2  -2 -10   29.81    6.78 
   2   2 -10   70.78    9.49 
   2   2 -10   72.06    9.85 
   2   2  10   36.29    6.66 
  -2  -2 -11    3.19    7.26 
  -2   2 -11    1.70    6.54 
  -2   2  11   -1.40    3.16 
   2  -2 -11   -0.42    3.91 
   2   2 -11   -3.60    8.48 
   2   2 -11    4.69   10.04 
   2   2  11    1.83    6.45 
   2   3   0   -0.11    1.25 
   2   3   0   -1.01    1.40 
   2   3  -1    3.72    1.58 
   2   3  -1    4.34    1.84 
   2   3   1    3.44    1.57 
   2   3   1    5.41    1.80 
   3  -2   1    7.01    4.54 
   2   3  -2   23.03    2.74 
   2   3  -2   31.55    3.20 
   2   3   2   17.55    2.43 
   2   3   2   24.91    2.85 
   3  -2   2   13.12    5.19 
   2   3  -3    8.40    2.10 
   2   3  -3   10.34    2.38 
   2   3   3    3.89    1.60 
   2   3   3    9.49    2.26 
   3  -2  -3    6.22    1.89 
   3  -2   3    7.30    5.66 
   2   3  -4   24.48    3.11 
   2   3  -4   31.25    3.48 
   2   3   4   17.31    2.59 
   2   3   4   26.50    3.15 
   3  -2  -4   19.11    2.90 
   3  -2   4   17.14    7.25 
  -2  -3  -5   55.19    4.99 
   2   3  -5   41.25    3.92 
   2   3  -5   48.72    4.34 
   2   3   5   25.82    3.15 
   2   3   5   53.35    4.50 
   3  -2  -5   32.78    4.26 
   3  -2   5   25.24    9.17 
  -3   2   6    2.37    3.30 
  -2  -3  -6    4.98    3.02 
   2   3  -6   -0.11    2.31 
   2   3  -6    1.48    2.62 
   2   3   6    0.49    1.87 
   2   3   6    3.05    2.46 
   3  -2  -6    0.45    3.44 
   3  -2   6   -6.04    9.55 
  -3   2   7   44.20    6.50 
  -2  -3  -7   73.31    6.62 
   2   3  -7   49.18    4.93 
   2   3  -7   59.57    5.64 
   2   3   7   28.49    3.90 
   2   3   7   77.95    6.28 
   3  -2  -7   38.86    7.35 
  -3   2   8    3.57    6.04 
  -2  -3  -8    7.38    4.18 
   2   3  -8   12.69    3.86 
   2   3  -8   12.29    4.10 
   2   3   8    4.24    2.88 
   2   3   8    9.47    4.03 
   3  -2  -8   12.22    7.91 
  -3   2   9   33.95    6.92 
  -2  -3  -9   43.78    6.94 
   2   3  -9   31.88    5.43 
   2   3  -9   28.56    5.59 
   2   3   9   15.27    4.27 
   2   3   9   42.46    6.48 
   3  -2  -9   19.40    7.35 
  -3   2  10    8.72    4.92 
  -2  -3 -10   32.03    7.78 
   2   3 -10   29.06    6.38 
   2   3 -10   27.94    6.69 
   2   3  10   19.97    5.27 
   2   3  10   25.76    7.01 
   3  -2 -10   15.59    6.14 
   1   3   0    2.84    1.30 
   1   3   0    4.53    1.67 
   3  -1   0    1.25    0.88 
   1   3  -1   21.54    2.26 
   1   3  -1   30.65    2.94 
   1   3   1   17.48    2.10 
   1   3   1   27.73    2.84 
   3  -1  -1   16.59    1.80 
   3  -1   1   14.69    1.40 
   1   3  -2  407.08    6.50 
   1   3  -2  631.08    8.99 
   1   3   2  366.15    6.77 
   1   3   2  625.52    9.07 
   3  -1  -2  372.61    6.08 
  -1  -3   3   48.30    4.29 
   1   3  -3   36.84    2.65 
   1   3  -3   51.21    3.49 
   1   3   3   30.13    2.65 
   1   3   3   52.93    3.63 
   3  -1  -3   38.39    2.91 
   3  -1   3   31.00    4.12 
  -1  -3   4  105.25    5.78 
   1   3  -4   58.40    3.28 
   1   3  -4   80.03    4.35 
   1   3   4   43.44    3.27 
   1   3   4   95.35    4.55 
   3  -1  -4   53.59    3.73 
   3  -1   4   48.23    5.28 
  -1  -3  -5   70.95    4.92 
  -1  -3   5   69.23    6.37 
   1   3  -5   52.23    3.49 
   1   3  -5   65.16    4.52 
   1   3   5   31.12    3.36 
   1   3   5   67.76    4.50 
   3  -1  -5   41.31    4.21 
   3  -1   5   40.90    5.61 
  -1  -3  -6  115.60    6.13 
   1   3  -6   90.84    4.63 
   1   3  -6  106.70    5.73 
   1   3   6   52.74    4.43 
   1   3   6  125.33    5.99 
   3  -1  -6   64.55    5.61 
  -3   1  -7    5.54    5.95 
  -1  -3  -7    8.07    3.53 
   1   3  -7    3.61    2.49 
   1   3  -7    3.54    3.00 
   1   3   7    1.77    2.58 
   1   3   7    5.98    2.97 
   3  -1  -7   -0.76    4.05 
  -3   1  -8  224.88   13.18 
  -1  -3  -8  138.81    8.22 
   1   3  -8  131.61    7.76 
   1   3   8   61.59    6.59 
   1   3   8  157.65    8.29 
   3  -1  -8   81.48   10.23 
  -3   1  -9   -0.51    5.21 
  -1  -3  -9   -1.03    4.26 
   1   3  -9   -2.82    4.22 
   1   3   9   -1.32    4.16 
   1   3   9   -4.55    3.92 
   3  -1  -9   -2.43    8.08 
  -3   1 -10  110.94   10.49 
  -1  -3 -10   88.13   10.55 
   1   3 -10  102.09   10.65 
   1   3  10   45.83    9.10 
   1   3  10  114.67   11.06 
   3  -1 -10   52.66    9.46 
  -3   1 -11    4.60    5.73 
  -1  -3 -11   20.04    9.70 
  -1  -3 -11    0.37    7.76 
   1   3 -11    2.51    8.16 
   1   3  11    2.65    6.93 
   1   3  11    2.14    7.82 
   3  -1 -11    8.45    5.64 
   0   3   0    1.18    0.99 
   0   3   0    0.51    1.47 
   3   0   0    0.71    0.99 
   0  -3   1    3.34    1.82 
   0   3  -1    1.52    1.09 
   0   3  -1    3.79    1.65 
   0   3   1    2.53    1.19 
   0   3   1    4.86    1.64 
   3   0  -1    2.35    1.25 
   3   0   1    3.17    1.10 
   0  -3   2   27.16    3.13 
   0   3  -2   14.61    1.71 
   0   3  -2   27.57    3.10 
   0   3   2   10.68    1.82 
   0   3   2   27.98    2.89 
   3   0  -2   21.43    2.25 
   3   0   2   17.17    1.71 
   0  -3   3   13.58    3.18 
   0   3  -3    4.32    1.18 
   0   3  -3    8.99    2.04 
   0   3   3    4.86    1.75 
   0   3   3    6.80    1.95 
   3   0  -3    6.20    1.75 
   3   0   3    4.72    1.25 
   0  -3   4   26.70    4.35 
   0   3  -4   31.85    3.39 
   0   3   4   11.53    2.42 
   0   3   4   35.56    3.36 
   3   0  -4   25.13    2.99 
   3   0   4   19.66    2.09 
   0  -3  -5   64.43    4.57 
   0  -3   5   47.35    6.18 
   0   3  -5   50.96    4.21 
   0   3   5   21.15    3.49 
   0   3   5   64.67    4.28 
   3   0  -5   37.02    3.77 
   3   0   5   28.81    2.57 
   0  -3  -6    5.70    2.76 
   0  -3   6    7.14    7.11 
   0   3  -6    4.71    2.64 
   0   3   6    0.86    2.88 
   0   3   6    2.55    2.29 
   3   0  -6    2.18    2.61 
   3   0   6    1.00    1.65 
  -3   0  -7   65.26    6.65 
   0  -3  -7   74.85    6.08 
   0   3  -7   72.54    5.84 
   0   3   7   42.16    6.64 
   0   3   7   85.05    6.02 
   3   0  -7   47.26    5.81 
   3   0   7   30.23    3.58 
  -3   0  -8    5.60    3.96 
   0  -3  -8   14.13    4.30 
   0   3  -8   11.66    4.20 
   0   3   8   12.71    6.92 
   0   3   8   15.97    4.25 
   3   0  -8    8.34    4.89 
  -3   0  -9   29.02    5.18 
   0  -3  -9   48.01   10.37 
   0  -3  -9   43.13    6.52 
   0   3  -9   50.15    6.72 
   0   3   9   22.07    7.35 
   0   3   9   41.41    6.26 
   3   0  -9   30.22    8.06 
  -3   0 -10   27.50    5.39 
   0  -3 -10   24.84    7.48 
   0  -3 -10   33.78    7.73 
   0   3 -10   45.93    8.30 
   0   3  10   13.29    5.57 
   0   3  10   41.35    7.73 
   3   0 -10   20.23   11.00 
  -3   0 -11    7.17    4.76 
   0  -3 -11    4.50    5.47 
   0  -3 -11    7.60    8.66 
   0   3 -11    6.42    8.64 
   0   3  11    3.80    4.18 
   0   3  11   10.82    8.67 
   3   0 -11    2.89    6.87 
  -1   3   0    2.64    1.46 
   3   1   0    2.92    1.27 
  -1   3  -1   24.86    2.66 
  -1   3   1    9.91    2.46 
  -1   3   1   23.29    2.57 
   3   1  -1   20.49    2.23 
   3   1   1   18.75    2.05 
  -1   3  -2  555.96    8.02 
  -1   3   2  305.40    9.17 
  -1   3   2  574.41    8.13 
   1  -3   2  340.65    8.31 
   3   1  -2  461.65    7.63 
   3   1   2  428.67    6.95 
  -1   3  -3   45.56    3.31 
  -1   3   3   24.68    5.06 
  -1   3   3   39.75    3.21 
   1  -3   3   31.03    5.04 
   3   1  -3   40.68    3.13 
   3   1   3   31.28    2.43 
  -1   3  -4   79.70    4.23 
  -1   3   4   44.33    7.69 
  -1   3   4   86.81    4.21 
   1  -3   4   64.65    8.24 
   3   1  -4   62.20    3.84 
   3   1   4   51.55    3.05 
  -1   3  -5   58.73    4.38 
  -1   3   5   31.99    6.59 
  -1   3   5   68.40    4.33 
   1  -3  -5   30.45    7.49 
   1  -3  -5   59.36    4.45 
   1  -3   5   59.65   11.04 
   3   1  -5   44.40    3.92 
   3   1   5   39.41    3.00 
  -1   3  -6  103.99    5.72 
  -1   3   6   97.00    8.61 
  -1   3   6  121.29    5.77 
   1  -3  -6   50.02    7.65 
   1  -3  -6  109.32    5.78 
   1  -3   6  139.42   14.08 
   3   1  -6   75.37    5.09 
   3   1   6   59.91    3.81 
  -3  -1  -7    5.38    6.08 
  -1   3  -7    2.04    3.07 
  -1   3   7    1.07    3.50 
  -1   3   7    7.08    3.26 
   1  -3  -7   -5.21    4.20 
   1  -3  -7    1.84    3.21 
   3   1  -7    2.36    2.94 
   3   1   7    3.48    2.05 
  -3  -1  -8  122.33   10.36 
  -1   3  -8  153.70    8.41 
  -1   3   8  113.09    7.97 
  -1   3   8  160.95    8.75 
   1  -3  -8   67.16    7.38 
   1  -3  -8  128.12    8.28 
   3   1  -8   75.73    6.65 
   3   1   8   65.49    5.10 
  -3  -1  -9   -0.02    4.59 
  -1   3  -9    1.87    4.71 
  -1   3   9    0.73    3.31 
  -1   3   9    1.02    4.90 
   1  -3  -9    2.04    4.23 
   1  -3  -9   -1.54    5.05 
   3   1  -9   -1.45    4.58 
   3   1   9   -0.02    2.96 
  -3  -1 -10   52.31    7.04 
  -1   3 -10  147.09   12.17 
  -1   3  10   64.21    6.92 
  -1   3  10  132.04   13.28 
   1  -3 -10   58.98    7.45 
   1  -3 -10   83.36   10.56 
   3   1 -10   66.15   11.12 
   3   1  10   42.64    6.81 
  -3  -1 -11    0.47    4.71 
  -1   3 -11   10.26    8.77 
  -1   3  11   -0.57    3.09 
   1  -3 -11    6.96    4.72 
   1  -3 -11    5.87    8.82 
   3   1 -11   -0.19   12.01 
   3   1  11    2.63    6.35 
   3   2   0   -0.61    1.20 
   3   2  -1    3.14    1.54 
   3   2   1    4.22    1.50 
   3   2  -2   21.00    2.64 
   3   2   2   17.62    2.33 
  -2   3  -3    7.57    1.97 
   2  -3   3    3.63    7.93 
   3   2  -3    7.03    2.00 
   3   2   3    5.99    1.73 
   3   2   3    5.96    1.84 
  -3  -2  -4   30.55    3.51 
  -2   3  -4   24.20    2.91 
  -2   3   4   10.21    4.95 
   2  -3  -4    2.73    5.21 
   2  -3   4   27.79    8.36 
   3   2  -4   23.56    3.19 
   3   2   4   15.79    2.35 
   3   2   4   28.10    3.36 
  -3  -2  -5   51.31    4.92 
  -2   3  -5   43.79    4.05 
  -2   3   5   33.51    5.61 
   2  -3  -5   30.76    6.13 
   2  -3   5   51.56    7.79 
   3   2  -5   38.84    4.01 
   3   2   5   32.45    3.17 
   3   2   5   53.03    4.63 
  -3  -2  -6    1.36    3.09 
  -2   3  -6    4.54    2.64 
  -2   3   6   -0.59    3.31 
   2  -3  -6   -2.05    3.60 
   2  -3   6    7.25    4.92 
   3   2  -6    2.91    2.45 
   3   2   6   -0.09    1.66 
   3   2   6    2.14    2.80 
  -3  -2  -7   77.01    7.90 
  -2   3  -7   72.48    5.88 
  -2   3   7   60.78    6.47 
   2  -3  -7   26.17    5.16 
   3   2  -7   51.87    5.23 
   3   2   7   36.73    4.01 
   3   2   7   85.53    7.60 
  -3  -2  -8   12.74    5.97 
  -2   3  -8    8.18    3.99 
  -2   3   8    6.06    3.56 
   2  -3  -8    5.56    4.23 
   3   2  -8    6.28    3.81 
   3   2   8    3.54    2.53 
   3   2   8    6.34    5.27 
  -3  -2  -9   48.43    9.97 
  -2   3  -9   45.87    6.74 
  -2   3   9   21.56    4.29 
   2  -3  -9   12.10    4.63 
   3   2  -9   21.88    5.37 
   3   2   9   12.88    3.68 
   3   2   9   35.80    8.44 
  -3  -2 -10   36.54    9.61 
  -2   3 -10   43.10    8.13 
  -2   3  10   16.43    4.20 
   2  -3 -10   15.35    5.07 
   3   2 -10   22.79    6.85 
   3   2  10   13.47    4.50 
   3   3   0    1.08    1.58 
   3   3   0    0.43    1.64 
   3   3  -1   20.26    2.89 
   3   3  -1   26.80    3.03 
   3   3   1   20.76    2.95 
   3   3   1   21.35    2.86 
   3   3  -2  350.60    8.13 
   3   3  -2  442.35    8.17 
   3   3   2  305.76    7.55 
   3   3   2  455.77    8.62 
   3  -3   3   24.79    7.38 
   3   3  -3   30.53    3.67 
   3   3  -3   32.82    3.64 
   3   3   3   23.84    3.04 
   3   3   3   34.83    3.70 
  -3  -3  -4   72.21    5.21 
   3  -3   4   43.66    7.52 
   3   3  -4   48.17    4.22 
   3   3  -4   67.13    4.44 
   3   3   4   39.11    3.60 
   3   3   4   58.84    4.49 
  -3  -3  -5   51.45    5.37 
   3  -3   5   36.86    7.03 
   3   3  -5   42.26    4.31 
   3   3  -5   48.94    4.36 
   3   3   5   33.75    3.71 
   3   3   5   56.44    4.91 
  -3  -3  -6   84.03    6.60 
   3  -3   6   64.96    8.26 
   3   3  -6   61.02    5.11 
   3   3  -6   72.86    5.29 
   3   3   6   49.29    4.44 
   3   3   6   82.45    6.00 
  -3  -3  -7    1.58    3.85 
   3   3  -7    1.65    2.98 
   3   3  -7    4.03    3.13 
   3   3   7    2.08    2.24 
   3   3   7    3.17    3.29 
  -3  -3  -8  119.80    9.36 
   3  -3  -8   58.36   11.28 
   3   3  -8   77.61    6.51 
   3   3  -8   86.91    7.35 
   3   3   8   54.63    5.47 
   3   3   8  133.49    9.14 
  -3  -3  -9   -0.25    5.64 
  -3   3   9    2.00    4.76 
   3  -3  -9    1.70    5.56 
   3   3  -9    2.63    3.96 
   3   3   9    0.36    3.02 
   3   3   9   -3.81    4.67 
   3   4   0    1.66    2.12 
   3   4   0    0.02    1.96 
   3   4  -1    2.82    2.27 
   3   4  -1    1.33    2.33 
   3   4   1    1.71    2.02 
   3   4   1    4.11    2.37 
   3   4  -2   16.76    3.20 
   3   4  -2   18.87    3.54 
   3   4   2    7.87    2.48 
   3   4   2   17.39    3.36 
   3   4  -3    3.91    2.43 
   3   4  -3    5.35    2.72 
   3   4   3    1.41    2.04 
   3   4   3    8.19    2.77 
  -3  -4  -4   21.98    4.07 
   3   4  -4   17.00    3.41 
   3   4  -4   19.18    3.47 
   3   4   4   12.48    3.01 
   3   4   4   15.59    3.34 
  -3  -4  -5   42.87    5.38 
   3   4  -5   27.56    4.09 
   3   4  -5   36.62    4.46 
   3   4   5   16.27    3.40 
   3   4   5   33.41    4.45 
  -3  -4  -6    0.91    3.50 
   3   4  -6    0.50    2.85 
   3   4  -6    2.13    3.18 
   3   4   6    1.86    2.46 
   3   4   6    3.35    3.06 
  -3  -4  -7   49.40    6.11 
   3   4  -7   37.47    5.09 
   3   4  -7   51.92    6.05 
   3   4   7   20.00    3.92 
   3   4   7   54.28    6.54 
   2   4   0  364.10    8.20 
   2   4   0  562.06   10.17 
   2   4   1    4.55    2.02 
   2   4   1    7.07    2.38 
   2   4  -2   10.67    2.34 
   2   4  -2   11.84    2.87 
   2   4   2    8.21    2.25 
   2   4   2   10.29    2.78 
   4  -2   2   12.15    4.60 
   2   4  -3   43.47    3.62 
   2   4  -3   63.22    4.87 
   2   4   3   36.48    3.74 
   2   4   3   65.61    4.80 
   4  -2   3   27.13    6.01 
   2   4  -4  150.93    5.93 
   2   4  -4  205.61    7.29 
   2   4   4  108.59    5.46 
   2   4   4  193.14    7.12 
   4  -2   4   92.33   10.04 
  -2  -4  -5   28.12    4.31 
   2   4  -5   22.93    3.48 
   2   4  -5   31.16    4.30 
   2   4   5   13.77    3.04 
   2   4   5   29.07    4.03 
   4  -2   5    5.93    6.78 
  -2  -4  -6  119.05    7.27 
   2   4  -6   87.33    5.46 
   2   4  -6  105.24    6.53 
   2   4   6   53.75    5.00 
   2   4   6  120.25    6.88 
  -2  -4  -7   10.41    4.09 
   2   4  -7   13.55    4.05 
   2   4   7    4.63    2.82 
   2   4   7   10.54    3.75 
   4  -2  -7    6.36    4.37 
  -2  -4  -8   54.61    6.62 
   2   4  -8   43.58    5.94 
   2   4   8   20.64    4.34 
   2   4   8   59.33    7.04 
   4  -2  -8   31.11    6.37 
   2   4  -9   -2.22    4.35 
   1   4   0   -0.27    1.36 
   1   4   0    1.07    1.99 
   1   4  -1    2.03    1.49 
   1   4  -1    3.46    2.32 
   1   4   1    0.40    1.47 
   1   4   1    3.57    2.11 
   1   4  -2   13.18    2.17 
   1   4  -2   23.21    3.33 
   1   4   2   13.62    2.36 
   1   4   2   24.38    3.32 
   4  -1  -2   13.25    2.11 
   1   4  -3    5.56    2.06 
   1   4  -3    8.23    2.71 
   1   4   3    3.12    1.88 
   1   4   3    5.83    2.44 
   4  -1  -3    2.91    1.81 
   4  -1   3    3.57    3.22 
   1   4  -4   26.89    4.07 
   1   4   4   10.85    2.61 
   1   4   4   23.91    3.40 
   4  -1  -4   16.60    2.77 
   4  -1   4   11.78    3.95 
  -1  -4  -5   46.78    5.18 
   1   4  -5   48.28    4.82 
   1   4   5   19.14    3.29 
   1   4   5   45.21    4.77 
   4  -1  -5   31.65    4.00 
  -1  -4  -6    2.34    3.22 
   1   4  -6    0.70    2.86 
   1   4   6    1.50    2.25 
   1   4   6    1.53    2.79 
   4  -1  -6    2.72    2.84 
  -1  -4  -7   69.26    6.53 
   1   4  -7   50.16    5.91 
   1   4   7   25.25    4.51 
   1   4   7   68.74    6.24 
   4  -1  -7   39.61    5.68 
  -1  -4  -8   12.32    4.36 
   1   4  -8   10.46    4.16 
   1   4   8    5.61    3.84 
   1   4   8   11.15    4.04 
   4  -1  -8    6.75    4.86 
  -1  -4  -9   34.89    6.31 
   1   4  -9   22.67    5.45 
   1   4   9   16.80    5.73 
   1   4   9   29.98    5.75 
   4  -1  -9   23.28    7.17 
   0   4   0  600.92    9.82 
   4   0   0  428.91    7.30 
   0   4  -1   18.62    2.86 
   0   4   1    2.10    1.63 
   0   4   1    6.53    2.32 
   4   0  -1    5.26    1.73 
   4   0   1    8.91    1.95 
   0  -4   2   10.11    2.64 
   0   4  -2   14.47    2.86 
   0   4   2    4.69    1.85 
   0   4   2   13.31    2.75 
   4   0  -2    9.39    2.07 
   4   0   2    7.83    1.64 
   0  -4   3   52.39    4.78 
   0   4  -3   64.09    4.83 
   0   4   3   22.50    3.13 
   0   4   3   73.21    4.68 
   4   0  -3   53.62    3.75 
   4   0   3   40.39    2.84 
   0  -4   4  162.09    7.37 
   0   4  -4  219.66    7.10 
   0   4   4   89.43    5.28 
   0   4   4  230.88    7.19 
   4   0  -4  161.10    5.91 
   0  -4  -5   30.21    4.09 
   0  -4   5   13.67    4.49 
   0   4  -5   37.83    4.62 
   0   4   5   13.27    3.48 
   0   4   5   28.99    3.78 
   4   0  -5   24.32    3.68 
   0  -4  -6  134.30    6.95 
   0   4  -6  118.24    6.61 
   0   4   6   54.59    6.38 
   0   4   6  128.07    6.63 
   4   0  -6   75.09    5.60 
   0  -4  -7   13.33    4.03 
   0   4  -7   10.00    3.70 
   0   4   7    0.16    4.10 
   0   4   7   12.21    3.62 
   4   0  -7    7.97    3.86 
   0  -4  -8   54.91    6.74 
   0   4  -8   57.47    6.72 
   0   4   8   25.67    7.92 
   0   4   8   71.14    7.00 
   4   0  -8   41.14    6.24 
   0  -4  -9    1.49    9.24 
   0  -4  -9    4.42    4.68 
   0   4  -9    1.86    4.34 
   0   4   9    9.31    7.55 
   0   4   9   -0.71    4.08 
   4   0  -9    1.67    5.09 
  -1   4   0   -0.37    1.80 
   4   1   0   -0.13    1.43 
  -1   4  -1    2.72    2.05 
  -1   4   1    2.40    1.99 
   4   1  -1    1.66    1.68 
   4   1   1    1.82    1.51 
  -1   4  -2   22.63    2.99 
  -1   4   2   13.89    2.64 
   4   1  -2   17.01    2.73 
   4   1   2   12.57    2.22 
  -1   4  -3    6.41    2.59 
  -1   4   3    2.94    2.18 
   1  -4   3    3.23    3.11 
   4   1  -3    4.28    2.06 
   4   1   3    5.41    1.79 
  -1   4  -4   21.60    3.33 
  -1   4   4   21.97    3.22 
   1  -4   4   12.59    4.15 
   4   1  -4   21.35    3.22 
   4   1   4   12.42    2.31 
  -1   4  -5   37.34    4.52 
  -1   4   5   22.47    8.38 
  -1   4   5   45.17    4.59 
   1  -4  -5   43.23    4.80 
   1  -4   5   25.18    6.26 
   4   1  -5   34.68    4.10 
   4   1   5   25.84    3.10 
  -1   4  -6    1.02    2.89 
  -1   4   6    0.15    4.89 
  -1   4   6    3.43    2.82 
   1  -4  -6   -4.58    5.82 
   1  -4  -6    0.13    3.01 
   1  -4   6    5.14    7.38 
   4   1  -6    3.74    2.85 
   4   1   6    0.78    1.81 
  -1   4  -7   60.37    6.08 
  -1   4   7   33.74    6.36 
  -1   4   7   62.11    6.06 
   1  -4  -7   23.61    6.82 
   1  -4  -7   57.17    6.14 
   4   1  -7   40.74    5.38 
   4   1   7   23.01    3.27 
  -1   4  -8    7.56    4.08 
  -1   4   8    5.35    4.24 
  -1   4   8    2.79    3.84 
   1  -4  -8   10.81    5.48 
   1  -4  -8    7.17    4.37 
   4   1  -8    4.29    3.95 
  -1   4  -9   38.79    6.33 
  -1   4   9   17.75    4.86 
  -1   4   9   23.98    5.60 
   1  -4  -9   23.55    6.12 
   4   1  -9   21.92    5.77 
   4   2   0  404.70    8.64 
  -2   4  -1   11.38    2.38 
   4   2  -1    2.49    1.85 
  -2   4  -2    9.94    2.42 
   4   2  -2    7.75    2.34 
   4   2   2    8.55    2.11 
  -2   4  -3   58.97    4.35 
   2  -4   3   26.38    4.86 
   4   2  -3   48.90    4.15 
   4   2   3   44.32    3.56 
  -2   4  -4  182.73    6.46 
   2  -4   4   91.81    9.24 
   4   2  -4  139.64    6.18 
   4   2   4  127.51    5.50 
  -2   4  -5   28.27    3.75 
   2  -4   5   14.35    7.82 
   4   2  -5   21.47    3.69 
   4   2   5   17.41    2.90 
  -2   4  -6  102.34    6.19 
   2  -4   6  111.25   14.01 
   4   2  -6   76.55    5.70 
   4   2   6   64.86    4.63 
  -2   4  -7   10.96    3.70 
   4   2  -7   11.44    3.75 
   4   2   7    5.39    2.56 
  -2   4  -8   57.90    6.57 
   4   2  -8   30.19    5.44 
   4   2   8   20.09    3.73 
  -2   4  -9    3.57    4.40 
   4   2   9   -1.56    2.66 
   4   3   0   -0.80    1.74 
   4   3  -1    2.33    2.08 
   4   3   1    0.33    1.86 
   4   3  -2   15.43    3.12 
   4   3   2   12.83    2.78 
   4   3  -3    5.54    2.66 
   4   3   3    2.69    2.14 
   4   3  -4   12.58    3.41 
   4   3   4   15.17    3.01 
   4   3  -5   32.25    4.57 
   4   3   5   20.20    3.40 
   4   3  -6    1.14    2.85 
   4   3   6    0.18    2.19 
   4   3  -7   36.15    5.32 
   4   3   7   24.03    4.09 
   4   4   0  286.55    9.06 
   4   4  -1    2.10    2.51 
   4   4   1    4.94    2.58 
   4   4  -2    4.63    2.79 
   4   4   2    5.06    2.60 
   4   4  -3   41.03    5.09 
   4   4   3   30.26    4.22 
   4   4  -4   92.54    6.30 
   4   4   4   82.93    5.77 
   4   4  -5   13.24    3.85 
   3   5   0   -0.92    2.01 
   3   5   0    4.96    2.70 
   3   5  -1    7.95    2.75 
   3   5  -1   17.57    3.72 
   3   5   1   10.43    3.13 
   3   5   1   21.23    4.01 
   3   5  -2  178.03    7.64 
   3   5  -2  259.22    9.04 
   3   5   2  161.98    7.32 
   3   5   2  246.36    9.07 
   3   5  -3   17.80    3.69 
   3   5  -3   25.41    4.67 
   3   5   3   12.07    3.22 
   3   5   3   22.42    4.20 
   3   5  -4   23.98    4.16 
   3   5  -4   39.47    5.16 
   3   5   4   22.97    4.10 
   3   5   4   33.78    4.75 
   2   5   0   -1.17    1.81 
   2   5   0    1.88    2.54 
   2   5  -1    1.25    2.00 
   2   5  -1    6.21    3.09 
   2   5   1    0.65    2.04 
   2   5   1    0.45    2.55 
   2   5  -2   17.18    3.73 
   2   5   2    8.40    2.65 
   2   5   2   16.17    3.55 
   2   5  -3    6.58    3.16 
   2   5   3    4.17    2.32 
   2   5   3    3.86    2.93 
   2   5  -4   19.42    4.07 
   2   5   4    5.07    2.57 
   2   5   4   16.37    3.75 
  -2  -5  -5   33.14    5.15 
   2   5  -5   29.49    4.79 
   2   5   5   13.62    3.50 
   2   5   5   34.28    4.77 
  -2  -5  -6    2.37    4.27 
   2   5  -6    4.03    3.31 
   2   5   6    1.50    2.81 
   2   5   6    1.80    3.68 
   1   5   0    2.72    2.54 
   1   5  -1   20.39    3.70 
   1   5   1   16.41    3.42 
   1   5  -2  319.79    9.18 
   1   5   2  324.33    9.33 
   1   5  -3   31.17    4.46 
   1   5   3    8.52    2.74 
   1   5   3   27.19    4.15 
   5  -1   3   10.29    4.16 
   1   5  -4   44.58    5.37 
   1   5   4   20.95    3.77 
   1   5   4   47.03    5.40 
   1   5  -5   45.22    5.22 
   1   5   5   14.83    3.61 
   1   5   5   44.60    5.54 
  -1  -5  -6   61.77    6.57 
   1   5  -6   61.34    6.47 
   1   5   6   21.00    4.26 
   1   5   6   77.75    6.70 
   5  -1  -6   45.95    6.79 
  -1  -5  -7    3.56    4.75 
   1   5  -7    3.11    4.37 
   1   5   7   -0.44    3.20 
   1   5   7    3.59    3.93 
   5  -1  -7    3.45    3.38 
   0   5   0    2.48    2.61 
   0   5  -1    4.01    2.72 
   0   5   1    2.27    2.60 
   5   0  -1    1.91    1.87 
   0   5  -2   17.12    3.64 
   0   5   2   15.93    3.49 
   5   0  -2   10.82    2.63 
   0   5  -3    5.39    3.12 
   0   5   3    5.70    2.99 
   5   0  -3    3.03    2.22 
   0   5  -4   24.50    4.18 
   0   5   4   14.96    3.55 
   5   0  -4   11.94    2.97 
   0   5  -5   36.90    4.98 
   0   5   5   32.89    4.46 
   5   0  -5   22.98    3.77 
   0  -5  -6    2.19    3.71 
   0   5  -6    1.60    3.51 
   0   5   6    2.45    3.26 
   5   0  -6    0.55    2.71 
   0  -5  -7   45.78    6.02 
   0   5   7   18.95    7.30 
   0   5   7   53.63    6.62 
   5   0  -7   31.78    5.10 
  -1   5   0    2.79    2.53 
   5   1   0   -1.00    1.75 
  -1   5   1   20.33    3.41 
   5   1  -1   13.71    2.73 
   5   1   1   11.71    2.57 
  -1   5  -2  300.71    8.65 
  -1   5   2  313.74    8.63 
   5   1  -2  228.57    7.37 
   5   1   2  203.77    6.58 
  -1   5  -3   27.26    4.11 
  -1   5   3   24.62    3.93 
   5   1  -3   20.49    3.42 
   5   1   3   12.24    2.54 
  -1   5  -4   42.13    4.80 
  -1   5   4   43.44    5.07 
   5   1  -4   35.64    4.35 
   5   1   4   27.60    3.98 
  -1   5  -5   41.35    5.04 
  -1   5   5   34.81    4.53 
   1  -5  -5   39.11    5.04 
   5   1  -5   31.64    4.42 
  -1   5  -6   66.06    6.30 
  -1   5   6   59.15    6.20 
   1  -5  -6   53.41    6.27 
   5   1  -6   43.07    5.39 
  -1   5  -7   -0.98    3.48 
  -1   5   7    1.82    3.53 
   1  -5  -7    7.26    4.01 
   5   1  -7    1.69    3.26 
   5   2   0   -0.06    1.76 
   5   2  -1    0.15    2.26 
   5   2   1    0.72    1.93 
   5   2  -2    6.89    2.73 
   5   2   2    8.92    2.60 
  -2   5  -3    4.16    5.41 
   5   2  -3    3.71    2.65 
   5   2   3    0.07    2.01 
  -2   5  -4   11.85    5.32 
   5   2  -4   15.56    3.70 
   5   2   4   12.38    2.88 
  -2   5  -5   29.02    5.49 
   5   2  -5   26.83    4.45 
   5   2   5   20.30    3.38 
  -2   5  -6   -0.69    4.12 
   5   2  -6   -0.82    2.99 
   5   2   6    0.12    2.14 
   5   3   0    0.62    2.26 
   5   3  -1   12.95    3.30 
   5   3   1   10.90    3.04 
   5   3  -2  188.99    8.00 
   5   3   2  171.37    7.30 
   5   3  -3   19.56    3.96 
   5   3   3   14.65    3.37 
   5   3   4   26.42    4.24 
   1   6   0    2.90    4.45 
   0   6   0  302.88    9.94 
   0   6  -1    8.52    3.38 
   0   6   1    4.29    3.30 
   0   6  -2    4.55    3.43 
   0   6   2    6.00    3.43 
  -1   6   0    1.91    2.93 
  -1   6  -1    3.45    3.11 
  -1   6   1    3.98    3.10 
   6   1  -1    2.61    2.38 
   0   0   0    0.00    0.00 
;
_shelx_hkl_checksum              58922
loop_
_space_group_symop_operation_xyz
'x, y, z'
'-x+1/2, -y+1/2, z'
'-y+1/2, x, z'
'y, -x+1/2, z'
'-x, y+1/2, -z'
'x+1/2, -y, -z'
'y+1/2, x+1/2, -z'
'-y, -x, -z'
'-x, -y, -z'
'x-1/2, y-1/2, -z'
'y-1/2, -x, -z'
'-y, x-1/2, -z'
'x, -y-1/2, z'
'-x-1/2, y, z'
'-y-1/2, -x-1/2, z'
'y, x, z'
loop_
_atom_site_label
_atom_site_type_symbol
_atom_site_fract_x
_atom_site_fract_y
_atom_site_fract_z
_atom_site_U_iso_or_equiv
_atom_site_adp_type
_atom_site_occupancy
_atom_site_site_symmetry_order
_atom_site_calc_flag
_atom_site_refinement_flags_posn
_atom_site_refinement_flags_adp
_atom_site_refinement_flags_occupancy
_atom_site_disorder_assembly
_atom_site_disorder_group
Bi1 Bi 0.2500 0.2500 0.8174(2) 0.0067(6) Uani 1 8 d S T P . .
Nd2 Nd -0.2500 -0.2500 0.7617(3) 0.0054(6) Uani 1 8 d S T P . .
Bi3 Bi 0.7500 0.2500 0.5000 0.0040(5) Uani 1 8 d S T P . .
Au4 Au 0.7500 0.2500 0.0000 0.0091(6) Uani 1 8 d S T P . .
loop_
_atom_site_aniso_label
_atom_site_aniso_U_11
_atom_site_aniso_U_22
_atom_site_aniso_U_33
_atom_site_aniso_U_23
_atom_site_aniso_U_13
_atom_site_aniso_U_12
Bi1 0.0010(6) 0.0010(6) 0.0182(13) 0.000 0.000 0.000
Nd2 0.0051(8) 0.0051(8) 0.0062(13) 0.000 0.000 0.000
Bi3 0.0026(6) 0.0026(6) 0.0067(10) 0.000 0.000 0.000
Au4 0.0090(7) 0.0090(7) 0.0093(12) 0.000 0.000 0.000
loop_
_atom_type_symbol
_atom_type_description
_atom_type_scat_dispersion_real
_atom_type_scat_dispersion_imag
_atom_type_scat_source
Nd Nd -0.1943 3.0179 'International Tables Vol C Tables 4.2.6.8 and 6.1.1.4'
Au Au -2.0133 8.8022 'International Tables Vol C Tables 4.2.6.8 and 6.1.1.4'
Bi Bi -4.1077 10.2566 'International Tables Vol C Tables 4.2.6.8 and 6.1.1.4'
loop_
_geom_angle_atom_site_label_1
_geom_angle_atom_site_label_2
_geom_angle_atom_site_label_3
_geom_angle
_geom_angle_site_symmetry_1
_geom_angle_site_symmetry_3
Au4 Bi1 Au4 67.69(4) 9_666 1_556
Au4 Bi1 Au4 103.93(7) 9_666 9_656
Au4 Bi1 Au4 67.69(4) 1_556 9_656
Au4 Bi1 Au4 67.69(4) 9_666 1_456
Au4 Bi1 Au4 103.93(7) 1_556 1_456
Au4 Bi1 Au4 67.69(4) 9_656 1_456
Au4 Bi1 Nd2 130.67(5) 9_666 .
Au4 Bi1 Nd2 130.67(5) 1_556 .
Au4 Bi1 Nd2 63.47(4) 9_656 .
Au4 Bi1 Nd2 63.47(4) 1_456 .
Au4 Bi1 Nd2 63.47(4) 9_666 1_665
Au4 Bi1 Nd2 63.47(4) 1_556 1_665
Au4 Bi1 Nd2 130.67(5) 9_656 1_665
Au4 Bi1 Nd2 130.67(5) 1_456 1_665
Nd2 Bi1 Nd2 160.84(11) . 1_665
Au4 Bi1 Nd2 130.67(5) 9_666 1_655
Au4 Bi1 Nd2 63.47(4) 1_556 1_655
Au4 Bi1 Nd2 63.47(4) 9_656 1_655
Au4 Bi1 Nd2 130.67(5) 1_456 1_655
Nd2 Bi1 Nd2 88.414(18) . 1_655
Nd2 Bi1 Nd2 88.413(18) 1_665 1_655
Au4 Bi1 Nd2 63.47(4) 9_666 1_565
Au4 Bi1 Nd2 130.67(5) 1_556 1_565
Au4 Bi1 Nd2 130.67(5) 9_656 1_565
Au4 Bi1 Nd2 63.47(4) 1_456 1_565
Nd2 Bi1 Nd2 88.414(18) . 1_565
Nd2 Bi1 Nd2 88.413(18) 1_665 1_565
Nd2 Bi1 Nd2 160.84(11) 1_655 1_565
Au4 Nd2 Au4 59.31(4) 9_656 1_456
Au4 Nd2 Au4 88.82(7) 9_656 9_556
Au4 Nd2 Au4 59.31(4) 1_456 9_556
Au4 Nd2 Au4 59.31(4) 9_656 1_446
Au4 Nd2 Au4 88.82(7) 1_456 1_446
Au4 Nd2 Au4 59.31(4) 9_556 1_446
Au4 Nd2 Bi1 52.64(3) 9_656 .
Au4 Nd2 Bi1 52.64(3) 1_456 .
Au4 Nd2 Bi1 111.66(7) 9_556 .
Au4 Nd2 Bi1 111.66(7) 1_446 .
Au4 Nd2 Bi1 111.66(7) 9_656 1_445
Au4 Nd2 Bi1 111.66(7) 1_456 1_445
Au4 Nd2 Bi1 52.64(3) 9_556 1_445
Au4 Nd2 Bi1 52.64(3) 1_446 1_445
Bi1 Nd2 Bi1 160.84(11) . 1_445
Au4 Nd2 Bi1 52.64(3) 9_656 1_545
Au4 Nd2 Bi1 111.66(7) 1_456 1_545
Au4 Nd2 Bi1 111.66(7) 9_556 1_545
Au4 Nd2 Bi1 52.64(3) 1_446 1_545
Bi1 Nd2 Bi1 88.414(18) . 1_545
Bi1 Nd2 Bi1 88.414(18) 1_445 1_545
Au4 Nd2 Bi1 111.66(7) 9_656 1_455
Au4 Nd2 Bi1 52.64(3) 1_456 1_455
Au4 Nd2 Bi1 52.64(3) 9_556 1_455
Au4 Nd2 Bi1 111.66(7) 1_446 1_455
Bi1 Nd2 Bi1 88.414(18) . 1_455
Bi1 Nd2 Bi1 88.414(18) 1_445 1_455
Bi1 Nd2 Bi1 160.84(11) 1_545 1_455
Au4 Nd2 Bi3 122.22(2) 9_656 1_445
Au4 Nd2 Bi3 177.31(6) 1_456 1_445
Au4 Nd2 Bi3 122.22(2) 9_556 1_445
Au4 Nd2 Bi3 93.87(4) 1_446 1_445
Bi1 Nd2 Bi3 126.03(6) . 1_445
Bi1 Nd2 Bi3 70.13(4) 1_445 1_445
Bi1 Nd2 Bi3 70.13(4) 1_545 1_445
Bi1 Nd2 Bi3 126.03(6) 1_455 1_445
Au4 Nd2 Bi3 177.31(6) 9_656 9_556
Au4 Nd2 Bi3 122.22(2) 1_456 9_556
Au4 Nd2 Bi3 93.87(4) 9_556 9_556
Au4 Nd2 Bi3 122.22(2) 1_446 9_556
Bi1 Nd2 Bi3 126.03(6) . 9_556
Bi1 Nd2 Bi3 70.13(4) 1_445 9_556
Bi1 Nd2 Bi3 126.03(6) 1_545 9_556
Bi1 Nd2 Bi3 70.13(4) 1_455 9_556
Bi3 Nd2 Bi3 56.14(4) 1_445 9_556
Au4 Nd2 Bi3 93.87(4) 9_656 9_656
Au4 Nd2 Bi3 122.22(2) 1_456 9_656
Au4 Nd2 Bi3 177.31(6) 9_556 9_656
Au4 Nd2 Bi3 122.22(2) 1_446 9_656
Bi1 Nd2 Bi3 70.13(4) . 9_656
Bi1 Nd2 Bi3 126.03(6) 1_445 9_656
Bi1 Nd2 Bi3 70.13(4) 1_545 9_656
Bi1 Nd2 Bi3 126.03(6) 1_455 9_656
Bi3 Nd2 Bi3 56.14(4) 1_445 9_656
Bi3 Nd2 Bi3 83.44(7) 9_556 9_656
Au4 Nd2 Bi3 122.22(2) 9_656 1_455
Au4 Nd2 Bi3 93.87(4) 1_456 1_455
Au4 Nd2 Bi3 122.22(2) 9_556 1_455
Au4 Nd2 Bi3 177.31(6) 1_446 1_455
Bi1 Nd2 Bi3 70.13(4) . 1_455
Bi1 Nd2 Bi3 126.03(6) 1_445 1_455
Bi1 Nd2 Bi3 126.03(6) 1_545 1_455
Bi1 Nd2 Bi3 70.13(4) 1_455 1_455
Bi3 Nd2 Bi3 83.44(7) 1_445 1_455
Bi3 Nd2 Bi3 56.14(4) 9_556 1_455
Bi3 Nd2 Bi3 56.14(4) 9_656 1_455
Bi3 Bi3 Bi3 180.0 9_766 9_656
Bi3 Bi3 Bi3 90.0 9_766 9_666
Bi3 Bi3 Bi3 90.0 9_656 9_666
Bi3 Bi3 Bi3 90.0 9_766 9_756
Bi3 Bi3 Bi3 90.0 9_656 9_756
Bi3 Bi3 Bi3 180.0 9_666 9_756
Bi3 Bi3 Nd2 118.07(2) 9_766 9_556
Bi3 Bi3 Nd2 61.93(2) 9_656 9_556
Bi3 Bi3 Nd2 61.93(2) 9_666 9_556
Bi3 Bi3 Nd2 118.07(2) 9_756 9_556
Bi3 Bi3 Nd2 61.93(2) 9_766 1_665
Bi3 Bi3 Nd2 118.07(2) 9_656 1_665
Bi3 Bi3 Nd2 61.93(2) 9_666 1_665
Bi3 Bi3 Nd2 118.07(2) 9_756 1_665
Nd2 Bi3 Nd2 123.86(4) 9_556 1_665
Bi3 Bi3 Nd2 118.07(2) 9_766 1_655
Bi3 Bi3 Nd2 61.93(2) 9_656 1_655
Bi3 Bi3 Nd2 118.07(2) 9_666 1_655
Bi3 Bi3 Nd2 61.93(2) 9_756 1_655
Nd2 Bi3 Nd2 123.86(4) 9_556 1_655
Nd2 Bi3 Nd2 83.44(7) 1_665 1_655
Bi3 Bi3 Nd2 61.93(2) 9_766 9_656
Bi3 Bi3 Nd2 118.07(2) 9_656 9_656
Bi3 Bi3 Nd2 118.07(2) 9_666 9_656
Bi3 Bi3 Nd2 61.93(2) 9_756 9_656
Nd2 Bi3 Nd2 83.44(7) 9_556 9_656
Nd2 Bi3 Nd2 123.86(4) 1_665 9_656
Nd2 Bi3 Nd2 123.86(4) 1_655 9_656
Bi1 Au4 Bi1 112.31(4) 9_666 1_554
Bi1 Au4 Bi1 112.31(4) 9_666 1_654
Bi1 Au4 Bi1 103.93(7) 1_554 1_654
Bi1 Au4 Bi1 103.93(7) 9_666 9_656
Bi1 Au4 Bi1 112.31(4) 1_554 9_656
Bi1 Au4 Bi1 112.31(4) 1_654 9_656
Bi1 Au4 Au4 56.155(18) 9_666 9_765
Bi1 Au4 Au4 123.845(19) 1_554 9_765
Bi1 Au4 Au4 56.155(18) 1_654 9_765
Bi1 Au4 Au4 123.845(18) 9_656 9_765
Bi1 Au4 Au4 123.845(18) 9_666 9_655
Bi1 Au4 Au4 56.155(18) 1_554 9_655
Bi1 Au4 Au4 123.845(18) 1_654 9_655
Bi1 Au4 Au4 56.155(18) 9_656 9_655
Au4 Au4 Au4 180.0 9_765 9_655
Bi1 Au4 Au4 56.155(18) 9_666 9_665
Bi1 Au4 Au4 56.155(18) 1_554 9_665
Bi1 Au4 Au4 123.845(18) 1_654 9_665
Bi1 Au4 Au4 123.845(18) 9_656 9_665
Au4 Au4 Au4 90.0 9_765 9_665
Au4 Au4 Au4 90.0 9_655 9_665
Bi1 Au4 Au4 123.845(18) 9_666 9_755
Bi1 Au4 Au4 123.845(18) 1_554 9_755
Bi1 Au4 Au4 56.155(18) 1_654 9_755
Bi1 Au4 Au4 56.155(18) 9_656 9_755
Au4 Au4 Au4 90.0 9_765 9_755
Au4 Au4 Au4 90.0 9_655 9_755
Au4 Au4 Au4 180.0 9_665 9_755
Bi1 Au4 Nd2 172.44(4) 9_666 1_654
Bi1 Au4 Nd2 63.89(3) 1_554 1_654
Bi1 Au4 Nd2 63.89(3) 1_654 1_654
Bi1 Au4 Nd2 83.63(6) 9_656 1_654
Au4 Au4 Nd2 119.66(2) 9_765 1_654
Au4 Au4 Nd2 60.34(2) 9_655 1_654
Au4 Au4 Nd2 119.66(2) 9_665 1_654
Au4 Au4 Nd2 60.34(2) 9_755 1_654
Bi1 Au4 Nd2 63.89(3) 9_666 9_656
Bi1 Au4 Nd2 172.44(4) 1_554 9_656
Bi1 Au4 Nd2 83.63(6) 1_654 9_656
Bi1 Au4 Nd2 63.89(3) 9_656 9_656
Au4 Au4 Nd2 60.34(2) 9_765 9_656
Au4 Au4 Nd2 119.66(2) 9_655 9_656
Au4 Au4 Nd2 119.66(2) 9_665 9_656
Au4 Au4 Nd2 60.34(2) 9_755 9_656
Nd2 Au4 Nd2 120.69(4) 1_654 9_656
Bi1 Au4 Nd2 83.63(6) 9_666 1_664
Bi1 Au4 Nd2 63.89(3) 1_554 1_664
Bi1 Au4 Nd2 63.89(3) 1_654 1_664
Bi1 Au4 Nd2 172.44(4) 9_656 1_664
Au4 Au4 Nd2 60.34(2) 9_765 1_664
Au4 Au4 Nd2 119.66(2) 9_655 1_664
Au4 Au4 Nd2 60.34(2) 9_665 1_664
Au4 Au4 Nd2 119.66(2) 9_755 1_664
Nd2 Au4 Nd2 88.81(7) 1_654 1_664
Nd2 Au4 Nd2 120.69(4) 9_656 1_664
Bi1 Au4 Nd2 63.89(3) 9_666 9_556
Bi1 Au4 Nd2 83.63(6) 1_554 9_556
Bi1 Au4 Nd2 172.44(4) 1_654 9_556
Bi1 Au4 Nd2 63.89(3) 9_656 9_556
Au4 Au4 Nd2 119.66(2) 9_765 9_556
Au4 Au4 Nd2 60.34(2) 9_655 9_556
Au4 Au4 Nd2 60.34(2) 9_665 9_556
Au4 Au4 Nd2 119.66(2) 9_755 9_556
Nd2 Au4 Nd2 120.69(4) 1_654 9_556
Nd2 Au4 Nd2 88.81(7) 9_656 9_556
Nd2 Au4 Nd2 120.69(4) 1_664 9_556
loop_
_geom_bond_atom_site_label_1
_geom_bond_atom_site_label_2
_geom_bond_distance
_geom_bond_site_symmetry_2
Bi1 Au4 2.9214(15) 9_666
Bi1 Au4 2.9214(15) 1_556
Bi1 Au4 2.9214(15) 9_656
Bi1 Au4 2.9214(15) 1_456
Bi1 Nd2 3.3001(16) .
Bi1 Nd2 3.3001(16) 1_665
Bi1 Nd2 3.3001(16) 1_655
Bi1 Nd2 3.3001(16) 1_565
Nd2 Au4 3.288(2) 9_656
Nd2 Au4 3.288(2) 1_456
Nd2 Au4 3.288(2) 9_556
Nd2 Au4 3.288(2) 1_446
Nd2 Bi1 3.3001(16) 1_445
Nd2 Bi1 3.3001(16) 1_545
Nd2 Bi1 3.3001(16) 1_455
Nd2 Bi3 3.458(2) 1_445
Nd2 Bi3 3.458(2) 9_556
Nd2 Bi3 3.458(2) 9_656
Nd2 Bi3 3.458(2) 1_455
Bi3 Bi3 3.2541(15) 9_766
Bi3 Bi3 3.2541(15) 9_656
Bi3 Bi3 3.2541(15) 9_666
Bi3 Bi3 3.2541(15) 9_756
Bi3 Nd2 3.457(2) 9_556
Bi3 Nd2 3.457(2) 1_665
Bi3 Nd2 3.457(2) 1_655
Bi3 Nd2 3.457(2) 9_656
Au4 Bi1 2.9214(15) 9_666
Au4 Bi1 2.9214(15) 1_554
Au4 Bi1 2.9214(15) 1_654
Au4 Bi1 2.9214(15) 9_656
Au4 Au4 3.2541(15) 9_765
Au4 Au4 3.2541(15) 9_655
Au4 Au4 3.2541(15) 9_665
Au4 Au4 3.2541(15) 9_755
Au4 Nd2 3.288(2) 1_654
Au4 Nd2 3.288(2) 9_656
Au4 Nd2 3.288(2) 1_664
Au4 Nd2 3.288(2) 9_556
