#------------------------------------------------------------------------------
#$Date: 2021-03-31 11:56:00 +0300 (Wed, 31 Mar 2021) $
#$Revision: 263486 $
#$URL: file:///home/coder/svn-repositories/cod/cif/1/56/13/1561386.cif $
#------------------------------------------------------------------------------
#
# This file is available in the Crystallography Open Database (COD),
# http://www.crystallography.net/
#
# All data on this site have been placed in the public domain by the
# contributors.
#
data_1561386
loop_
_publ_author_name
'Stegemann, Frank'
'Benndorf, Christopher'
'Touzani, Rachid St.'
'Fokwa, Boniface P.T.'
'Janka, Oliver'
_publ_section_title
;
 Experimental and theoretical investigations of the polar intermetallics
 SrPt3Al2 and Sr2Pd2Al
;
_journal_name_full               'Journal of Solid State Chemistry'
_journal_page_first              143
_journal_page_last               150
_journal_paper_doi               10.1016/j.jssc.2016.07.019
_journal_volume                  242
_journal_year                    2016
_chemical_formula_sum            'Al Pd2 Sr2'
_chemical_formula_weight         415
_space_group_IT_number           43
_space_group_name_Hall           'F 2 -2d'
_space_group_name_H-M_alt        'F d d 2'
_symmetry_cell_setting           orthorhombic
_symmetry_Int_Tables_number      43
_symmetry_space_group_name_Hall  'F 2 -2d'
_symmetry_space_group_name_H-M   'F d d 2'
_cell_angle_alpha                90
_cell_angle_beta                 90
_cell_angle_gamma                90
_cell_formula_units_Z            8
_cell_length_a                   10.4145(5)
_cell_length_b                   15.5824(7)
_cell_length_c                   6.0437(3)
_cell_measurement_temperature    293
_cell_volume                     980.79(8)
_diffrn_ambient_temperature      293
_diffrn_measured_fraction_theta_full 1
_diffrn_measured_fraction_theta_max 1
_diffrn_measurement_device       'four-circle diffractometer'
_diffrn_measurement_device_type  'IPDS Stoe'
_diffrn_measurement_method       '??integration method??'
_diffrn_radiation_monochromator  graphite
_diffrn_radiation_probe          x-ray
_diffrn_radiation_source         'X-ray tube'
_diffrn_radiation_type           'Mo K\a'
_diffrn_radiation_wavelength     0.71073
_diffrn_reflns_av_R_equivalents  0.0705
_diffrn_reflns_av_unetI/netI     0.0281
_diffrn_reflns_limit_h_max       15
_diffrn_reflns_limit_h_min       -15
_diffrn_reflns_limit_k_max       22
_diffrn_reflns_limit_k_min       -22
_diffrn_reflns_limit_l_max       8
_diffrn_reflns_limit_l_min       -8
_diffrn_reflns_number            8684
_diffrn_reflns_theta_full        31.85
_diffrn_reflns_theta_max         31.85
_diffrn_reflns_theta_min         4.11
_exptl_absorpt_coefficient_mu    28.833
_exptl_absorpt_correction_T_max  0.7573
_exptl_absorpt_correction_T_min  0.4822
_exptl_absorpt_correction_type   gaussian
_exptl_absorpt_process_details   Jana2006
_exptl_crystal_colour            silver
_exptl_crystal_density_diffrn    5.6213
_exptl_crystal_description       block
_exptl_crystal_F_000             1448
_exptl_crystal_size_max          0.040
_exptl_crystal_size_mid          0.030
_exptl_crystal_size_min          0.020
_refine_diff_density_max         0.59
_refine_diff_density_min         -0.61
_refine_ls_abs_structure_details
'  388 of Friedel pairs used in the refinement'
_refine_ls_abs_structure_Flack   -0.011(10)
_refine_ls_extinction_coef       1900(90)
_refine_ls_extinction_method
'B-C type 1 Lorentzian isotropic (Becker & Coppens, 1974)'
_refine_ls_goodness_of_fit_gt    1.03
_refine_ls_goodness_of_fit_ref   0.98
_refine_ls_number_constraints    1
_refine_ls_number_parameters     25
_refine_ls_number_reflns         844
_refine_ls_number_restraints     0
_refine_ls_R_factor_all          0.0262
_refine_ls_R_factor_gt           0.0174
_refine_ls_shift/su_max          0.0020
_refine_ls_shift/su_mean         0.0005
_refine_ls_structure_factor_coef Fsqd
_refine_ls_weighting_details     w=1/(\s^2^(I)+0.000144I^2^)
_refine_ls_weighting_scheme      sigma
_refine_ls_wR_factor_gt          0.0279
_refine_ls_wR_factor_ref         0.0291
_reflns_number_gt                700
_reflns_number_total             844
_reflns_threshold_expression     I>3\s(I)
_cod_data_source_file            JSSC-2016-242-143.cif
_cod_data_source_block           I
_cod_depositor_comments
;
The following automatic conversions were performed:

data item '_diffrn_radiation_probe' value 'X-ray' was changed to
'x-ray' in accordance with the built-in table derived from the CIF
Core dictionary named 'cif_core.dic' version 2.4.5 last updated on
2014-11-21.

data item '_exptl_absorpt_correction_type' value 'Gaussian' was
changed to 'gaussian' in accordance with the built-in table derived
from the CIF Core dictionary named 'cif_core.dic' version 2.4.5 last
updated on 2014-11-21.

Automatic conversion script
Id: cif_fix_values 8369 2020-08-20 11:38:08Z andrius 
;
_cod_original_sg_symbol_Hall     'F -2xuvw;-2yuvw;2z'
_cod_original_formula_sum        'Al1 Pd2 Sr2'
_cod_database_code               1561386
loop_
_space_group_symop_id
_space_group_symop_operation_xyz
1 x,y,z
2 -x,-y,z
3 x+1/4,-y+1/4,z+1/4
4 -x+1/4,y+1/4,z+1/4
5 x,y+1/2,z+1/2
6 -x,-y+1/2,z+1/2
7 x+1/4,-y+3/4,z+3/4
8 -x+1/4,y+3/4,z+3/4
9 x+1/2,y,z+1/2
10 -x+1/2,-y,z+1/2
11 x+3/4,-y+1/4,z+3/4
12 -x+3/4,y+1/4,z+3/4
13 x+1/2,y+1/2,z
14 -x+1/2,-y+1/2,z
15 x+3/4,-y+3/4,z+1/4
16 -x+3/4,y+3/4,z+1/4
loop_
_atom_site_label
_atom_site_type_symbol
_atom_site_fract_x
_atom_site_fract_y
_atom_site_fract_z
_atom_site_adp_type
_atom_site_U_iso_or_equiv
_atom_site_site_symmetry_multiplicity
_atom_site_occupancy
_atom_site_calc_flag
_atom_site_refinement_flags
_atom_site_disorder_assembly
_atom_site_disorder_group
Sr Sr 0.16761(4) 0.04936(2) 0.52335(13) Uani 0.01162(10) 16 1 d . . .
Pd Pd 0.16129(3) 0.12229(2) 0.03 Uani 0.01250(8) 16 1 d . . .
Al Al 0 0 0.0000(4) Uani 0.0111(5) 8 1 d . . .
loop_
_atom_site_aniso_label
_atom_site_aniso_type_symbol
_atom_site_aniso_U_11
_atom_site_aniso_U_22
_atom_site_aniso_U_33
_atom_site_aniso_U_12
_atom_site_aniso_U_13
_atom_site_aniso_U_23
Sr Sr 0.01154(15) 0.01240(19) 0.01093(16) -0.00019(15) 0.00071(15) 0.0017(3)
Pd Pd 0.01325(13) 0.01084(16) 0.01340(14) -0.00135(12) 0.00012(12) -0.0020(3)
Al Al 0.0113(7) 0.0103(9) 0.0117(10) 0.0005(6) 0 0
loop_
_atom_type_symbol
_atom_type_scat_dispersion_real
_atom_type_scat_dispersion_imag
_atom_type_scat_source
Al 0.0645 0.0514 'International Tables Vol C tables 4.2.6.8 and 6.1.1.1'
Pd -0.9988 1.0072 'International Tables Vol C tables 4.2.6.8 and 6.1.1.1'
Sr -1.5307 3.2498 'International Tables Vol C tables 4.2.6.8 and 6.1.1.1'
loop_
_exptl_crystal_face_index_h
_exptl_crystal_face_index_k
_exptl_crystal_face_index_l
_exptl_crystal_face_perp_dist
-10 -7 2 0.0127
12 30 -7 0.0085
-3 -30 -7 0.012
30 13 -27 0.005
-30 1 30 0.0068
11 30 0 0.0126
7 -30 1 0.0131
30 7 -8 0.0139
-15 10 4 0.0091
2 -10 7 0.011
-12 -29 30 0.0084
-30 -5 -3 0.0195
-5 17 30 0.0123
loop_
_geom_bond_atom_site_label_1
_geom_bond_atom_site_label_2
_geom_bond_site_symmetry_1
_geom_bond_site_symmetry_2
_geom_bond_distance
Sr Sr . 2_555 3.8152(7)
Sr Sr . 10_554 3.8003(10)
Sr Sr . 10_555 3.8003(10)
Sr Sr . 3_555 3.8235(7)
Sr Sr . 11_454 3.8235(7)
Sr Pd . . 3.1916(8)
Sr Pd . 1_556 3.2668(8)
Sr Pd . 10_555 3.2141(5)
Sr Pd . 3_555 3.1771(6)
Sr Pd . 11_455 3.3201(6)
Sr Pd . 8_545 3.2702(6)
Sr Al . . 3.694(2)
Sr Al . 1_556 3.455(2)
Sr Al . 9_555 3.5488(5)
Sr Al . 3_555 3.6387(11)
Pd Pd . 3_555 3.0115(5)
Pd Pd . 11_454 3.0115(5)
Pd Al . . 2.5467(4)
Pd Al . 3_555 2.5655(12)
loop_
_refln_index_h
_refln_index_k
_refln_index_l
_refln_F_squared_calc
_refln_F_squared_meas
_refln_F_squared_sigma
_refln_observed_status
4 0 0 238943.00 236299.00 1704.92 o
8 0 0 42660.50 43943.00 967.33 o
12 0 0 197265.00 196599.00 1232.51 o
2 2 0 18848.50 18450.20 1260.94 o
4 2 0 438092.00 433485.00 1480.32 o
6 2 0 137979.00 140863.00 878.06 o
8 2 0 245418.00 242634.00 868.65 o
10 2 0 3349.91 2473.84 630.36 o
12 2 0 6989.76 6938.94 682.57 o
14 2 0 2937.39 3017.38 852.62 o
0 4 0 155624.00 152168.00 2583.64 o
2 4 0 178037.00 178290.00 1474.09 o
4 4 0 103780.00 102637.00 1019.31 o
6 4 0 86.68 334.24 676.08 <
8 4 0 6937.71 6676.58 622.75 o
10 4 0 47139.70 47263.20 667.47 o
12 4 0 13958.30 13589.40 693.07 o
14 4 0 17573.00 16315.90 893.05 o
2 6 0 24866.20 24879.40 947.83 o
4 6 0 4039.33 4265.19 733.54 o
6 6 0 6660.18 6051.93 654.47 o
8 6 0 10268.20 10917.80 631.01 o
10 6 0 6768.62 8158.09 655.40 o
12 6 0 9932.97 10345.40 809.22 o
14 6 0 2487.31 3103.22 938.16 o
0 8 0 62160.90 60294.40 1555.83 o
2 8 0 20648.60 21441.30 895.06 o
4 8 0 5609.64 5938.85 778.93 o
6 8 0 140.17 -403.81 650.10 <
8 8 0 5560.38 5134.86 618.95 o
10 8 0 8186.37 8843.36 716.30 o
12 8 0 6695.52 7342.49 796.14 o
14 8 0 2371.97 2065.05 1012.93 <
2 10 0 36705.00 36689.40 937.57 o
4 10 0 94506.70 94711.90 963.57 o
6 10 0 30003.70 31863.40 763.04 o
8 10 0 77972.10 78598.30 841.82 o
10 10 0 8640.32 9251.14 744.32 o
12 10 0 5800.48 5102.77 832.06 o
0 12 0 321941.00 320695.00 2577.32 o
2 12 0 5413.19 5403.52 861.91 o
4 12 0 126684.00 129284.00 1075.13 o
6 12 0 85.36 552.54 787.63 <
8 12 0 36752.90 37954.40 837.40 o
10 12 0 2916.85 2609.50 855.84 o
12 12 0 71791.00 72241.30 1041.66 o
2 14 0 15508.70 15915.20 911.82 o
4 14 0 179561.00 179345.00 1126.34 o
6 14 0 11712.60 11408.40 841.11 o
8 14 0 137565.00 137080.00 989.32 o
10 14 0 6294.63 6345.57 922.51 o
12 14 0 3474.44 3365.85 1088.22 o
0 16 0 133738.00 131057.00 2193.77 o
2 16 0 62948.80 63729.70 1315.40 o
4 16 0 22009.10 21634.00 997.53 o
6 16 0 1.34 -867.18 874.38 <
8 16 0 2089.82 2536.89 907.74 <
10 16 0 27254.70 27595.10 1065.79 o
2 18 0 6428.05 6753.65 1688.11 o
4 18 0 5329.99 4765.61 1130.90 o
6 18 0 46607.20 47755.50 1164.38 o
8 18 0 9757.42 9986.71 1131.69 o
0 20 0 863.54 989.21 2255.92 <
2 20 0 2727.19 3718.56 2076.44 <
4 20 0 4875.08 4470.68 1571.30 <
6 20 0 45.13 -976.33 1365.74 <
2 22 0 184.34 1086.30 1876.33 <
4 22 0 5310.91 3547.13 2156.60 <
1 1 1 43180.30 42646.00 1541.13 o
1 1 -1 35506.90 34292.70 1680.01 o
3 1 1 5535.73 5982.88 912.37 o
3 1 -1 4527.42 4734.70 952.39 o
5 1 1 18799.80 17605.20 783.15 o
5 1 -1 27912.80 27958.40 845.98 o
7 1 1 10258.10 10257.70 594.23 o
7 1 -1 12341.60 12013.40 710.49 o
9 1 1 4875.12 5022.92 617.76 o
9 1 -1 10086.80 9974.75 560.89 o
11 1 1 11675.40 12010.80 625.36 o
11 1 -1 6576.85 6703.42 703.73 o
13 1 1 3406.32 3226.87 749.52 o
13 1 -1 3867.39 4303.68 778.67 o
15 1 1 3689.27 4340.45 1060.82 o
15 1 -1 1351.45 554.31 967.84 <
1 3 1 39317.20 38822.40 1312.33 o
1 3 -1 56074.70 56170.40 1513.65 o
3 3 1 258775.00 249676.00 1356.02 o
3 3 -1 259948.00 258930.00 1407.57 o
5 3 1 20648.60 19403.80 729.08 o
5 3 -1 10591.90 10367.90 767.34 o
7 3 1 27260.50 27480.40 609.88 o
7 3 -1 16782.00 16828.90 677.46 o
9 3 1 81728.60 81321.50 728.61 o
9 3 -1 80062.60 79544.60 757.79 o
11 3 1 1588.11 1407.74 678.87 <
11 3 -1 5266.24 4861.27 651.00 o
13 3 1 8108.77 6951.30 795.41 o
13 3 -1 12778.90 11283.40 773.41 o
15 3 1 20975.30 20438.30 1035.22 o
15 3 -1 22180.80 21576.10 988.92 o
1 5 1 254446.00 258594.00 1627.04 o
1 5 -1 246742.00 249742.00 2432.23 o
3 5 1 111940.00 107168.00 978.12 o
3 5 -1 112595.00 109782.00 1117.62 o
5 5 1 175628.00 172765.00 960.09 o
5 5 -1 176695.00 180790.00 907.66 o
7 5 1 109625.00 109317.00 824.70 o
7 5 -1 116301.00 116314.00 768.56 o
9 5 1 36590.20 36688.10 682.23 o
9 5 -1 35791.30 36591.70 708.99 o
11 5 1 52235.90 51506.30 796.55 o
11 5 -1 52804.20 52141.70 692.94 o
13 5 1 30348.80 30895.60 860.93 o
13 5 -1 25757.20 26338.70 775.09 o
15 5 1 8793.61 4580.69 1720.16 <
15 5 -1 9326.07 6305.66 2805.32 <
1 7 1 268783.00 266197.00 1479.44 o
1 7 -1 261782.00 263714.00 1603.55 o
3 7 1 97353.40 98235.70 885.18 o
3 7 -1 98153.70 94108.60 1111.28 o
5 7 1 164531.00 163413.00 902.59 o
5 7 -1 166121.00 167802.00 962.45 o
7 7 1 112679.00 114768.00 811.68 o
7 7 -1 119489.00 121433.00 817.78 o
9 7 1 38181.30 38924.20 705.46 o
9 7 -1 34916.50 36233.80 735.46 o
11 7 1 57558.90 59268.40 742.53 o
11 7 -1 58004.80 57798.80 802.43 o
13 7 1 37281.80 38152.90 927.67 o
13 7 -1 33106.10 32445.90 910.78 o
1 9 1 89720.20 88366.80 1061.93 o
1 9 -1 102254.00 103721.00 1217.41 o
3 9 1 178094.00 178371.00 1070.99 o
3 9 -1 178027.00 178334.00 1553.13 o
5 9 1 55292.30 54495.10 777.26 o
5 9 -1 46073.90 46276.20 864.77 o
7 9 1 57750.10 56534.80 718.06 o
7 9 -1 50077.90 51321.30 754.24 o
9 9 1 76537.00 77230.40 735.71 o
9 9 -1 72614.20 72766.80 880.01 o
11 9 1 13515.90 12362.10 736.21 o
11 9 -1 18348.40 17933.50 839.95 o
13 9 1 18718.00 18791.90 901.03 o
13 9 -1 22146.80 23719.00 973.24 o
1 11 1 62723.30 63310.60 1036.50 o
1 11 -1 54045.50 56226.20 1165.72 o
3 11 1 2407.23 2574.93 742.49 o
3 11 -1 411.05 1093.11 875.13 <
5 11 1 57816.30 57875.80 811.43 o
5 11 -1 65827.90 65688.70 911.30 o
7 11 1 27116.00 27404.30 714.27 o
7 11 -1 32793.90 33076.60 833.55 o
9 11 1 944.28 673.57 691.17 <
9 11 -1 4180.91 3418.70 840.08 o
11 11 1 27243.80 27692.40 819.84 o
11 11 -1 23010.00 24630.60 896.74 o
13 11 1 7426.13 7040.41 993.60 o
13 11 -1 5214.52 5166.65 1081.82 o
1 13 1 633.64 117.59 1133.08 <
1 13 -1 2552.30 3091.66 992.03 o
3 13 1 12232.70 12477.50 765.56 o
3 13 -1 11573.70 11811.70 856.68 o
5 13 1 50.14 -628.60 733.37 <
5 13 -1 1379.68 1355.35 803.22 <
7 13 1 3730.35 4146.05 733.33 o
7 13 -1 967.51 1271.54 857.96 <
9 13 1 4962.25 5424.44 828.65 o
9 13 -1 7356.33 7145.75 854.42 o
11 13 1 1923.78 1727.64 952.78 <
11 13 -1 437.65 1473.55 949.31 <
1 15 1 6081.19 6139.95 969.93 o
1 15 -1 13472.00 14781.10 1092.49 o
3 15 1 7740.51 9047.30 847.91 o
3 15 -1 7610.72 7931.49 1043.76 o
5 15 1 4981.35 4129.42 745.35 o
5 15 -1 1410.45 1941.79 1062.90 <
7 15 1 9747.04 9703.01 769.55 o
7 15 -1 4043.74 4599.97 937.28 o
9 15 1 5085.13 5346.37 901.99 o
9 15 -1 4943.46 4212.83 1032.01 o
11 15 1 882.51 567.05 1092.92 <
11 15 -1 2453.97 2899.64 1139.54 <
1 17 1 42285.30 42511.00 1264.79 o
1 17 -1 33378.10 34427.10 1333.71 o
3 17 1 3658.33 3418.96 1011.53 o
3 17 -1 3678.05 5437.74 1124.75 o
5 17 1 26417.40 25438.80 1055.97 o
5 17 -1 32561.10 31413.90 1118.25 o
7 17 1 21274.00 20970.00 934.38 o
7 17 -1 28572.10 28299.90 1184.02 o
9 17 1 2196.08 2396.69 1063.37 <
9 17 -1 2917.13 4997.41 1162.88 o
1 19 1 30705.00 27570.20 1411.79 o
1 19 -1 34642.80 34023.90 1455.60 o
3 19 1 39390.40 38497.40 1213.84 o
3 19 -1 40591.70 40618.80 1389.32 o
5 19 1 31256.00 31762.60 1147.92 o
5 19 -1 26133.30 26795.60 1391.17 o
7 19 1 22009.90 22732.30 1168.76 o
7 19 -1 19441.30 20997.10 1238.89 o
1 21 1 14771.50 14402.90 1719.87 o
1 21 -1 15708.40 14812.80 1779.12 o
3 21 1 57225.10 53002.70 1893.63 o
3 21 -1 57568.60 60320.60 2216.19 o
5 21 1 12348.70 11195.10 2174.66 o
5 21 -1 10593.00 10526.80 1506.29 o
2 0 2 170748.00 166681.00 2142.17 o
2 0 -2 166939.00 166559.00 1640.17 o
6 0 2 628939.00 614490.00 1887.54 o
6 0 -2 628094.00 604588.00 1917.24 o
10 0 2 78383.30 77136.00 949.23 o
10 0 -2 76151.10 74869.30 1104.83 o
14 0 2 6140.25 5269.82 1418.06 o
14 0 -2 5594.71 7308.43 1243.67 o
0 2 2 215992.00 224286.00 2226.57 o
0 2 -2 218540.00 228950.00 2969.44 o
2 2 2 515960.00 504401.00 1865.90 o
2 2 -2 513750.00 526695.00 2016.91 o
4 2 2 11491.00 12143.40 745.19 o
4 2 -2 10050.10 11095.70 799.59 o
6 2 2 5626.43 6128.19 637.95 o
6 2 -2 5607.77 4865.51 689.58 o
8 2 2 8072.63 7827.35 560.70 o
8 2 -2 7014.25 5947.24 638.43 o
10 2 2 88230.70 85315.40 724.61 o
10 2 -2 87363.10 88290.40 784.81 o
12 2 2 34526.20 33186.10 788.84 o
12 2 -2 35337.00 33344.60 757.33 o
14 2 2 62205.80 60336.00 1014.51 o
14 2 -2 61442.60 61260.40 951.93 o
2 4 2 50082.20 49162.10 893.11 o
2 4 -2 50583.50 49665.30 998.96 o
4 4 2 113549.00 111244.00 901.77 o
4 4 -2 113012.00 116208.00 888.74 o
6 4 2 53098.10 50733.40 704.73 o
6 4 -2 54783.30 55319.10 771.11 o
8 4 2 56112.70 55808.50 734.89 o
8 4 -2 55719.10 57143.60 713.17 o
10 4 2 40156.10 40717.60 745.92 o
10 4 -2 40746.00 40898.10 700.08 o
12 4 2 97.14 -361.03 794.02 <
12 4 -2 100.47 527.75 790.42 <
14 4 2 107.58 -1302.17 982.32 <
14 4 -2 0.25 -106.75 865.59 <
0 6 2 12302.10 12151.40 1312.55 o
0 6 -2 10721.70 10811.10 1564.68 o
2 6 2 12362.10 10998.70 766.44 o
2 6 -2 16856.90 15435.20 990.35 o
4 6 2 15739.90 14806.90 710.46 o
4 6 -2 16173.80 16217.80 766.41 o
6 6 2 7177.76 7125.60 652.84 o
6 6 -2 7202.64 7851.26 685.66 o
8 6 2 8160.75 7782.94 646.01 o
8 6 -2 8505.47 7954.70 643.98 o
10 6 2 501.96 647.02 709.41 <
10 6 -2 1900.90 1858.81 708.10 <
12 6 2 2659.20 1574.38 788.19 <
12 6 -2 2199.26 3096.51 752.23 o
14 6 2 3295.76 3493.78 1052.33 o
14 6 -2 4546.29 3086.25 991.02 o
2 8 2 311.72 123.99 769.93 <
2 8 -2 1899.64 2100.34 1227.50 <
4 8 2 16062.20 15849.20 708.21 o
4 8 -2 16688.80 16164.00 801.83 o
6 8 2 23235.40 23416.60 717.97 o
6 8 -2 24683.40 24634.40 661.11 o
8 8 2 7783.03 8428.09 676.76 o
8 8 -2 8272.38 10561.80 739.15 o
10 8 2 6727.38 6900.21 677.02 o
10 8 -2 7549.15 6626.76 784.98 o
12 8 2 176.49 137.14 808.42 <
12 8 -2 173.23 1032.72 884.39 <
14 8 2 4752.51 4343.53 950.39 o
14 8 -2 5084.19 3353.85 1094.35 o
0 10 2 41360.80 40245.50 1384.76 o
0 10 -2 40551.10 41359.70 1434.22 o
2 10 2 121426.00 120534.00 1044.64 o
2 10 -2 120748.00 124723.00 1147.73 o
4 10 2 22022.20 21283.70 705.87 o
4 10 -2 23433.70 24385.20 993.38 o
6 10 2 3748.59 4043.35 687.23 o
6 10 -2 3752.79 4644.84 720.41 o
8 10 2 17903.80 17877.10 708.79 o
8 10 -2 18891.90 18857.90 736.75 o
10 10 2 22837.80 22320.90 735.74 o
10 10 -2 22577.20 24052.30 894.85 o
12 10 2 10871.80 10219.00 874.06 o
12 10 -2 10677.10 9855.36 995.34 o
2 12 2 91841.40 91102.40 1037.23 o
2 12 -2 92325.70 93668.20 1082.95 o
4 12 2 4851.50 4244.30 693.78 o
4 12 -2 5342.71 4138.95 1013.43 o
6 12 2 184825.00 179283.00 976.20 o
6 12 -2 180607.00 180532.00 1131.72 o
8 12 2 2201.00 1710.45 741.45 <
8 12 -2 2602.63 2945.67 768.61 o
10 12 2 59438.40 59197.70 880.25 o
10 12 -2 59319.00 59800.30 1014.17 o
12 12 2 128.77 1320.18 977.94 <
12 12 -2 126.08 1490.50 1023.12 <
0 14 2 16065.10 15748.50 1244.49 o
0 14 -2 14567.30 15532.30 1455.96 o
2 14 2 205016.00 198842.00 1336.63 o
2 14 -2 203233.00 208705.00 1348.12 o
4 14 2 11836.90 12427.00 718.26 o
4 14 -2 11959.90 12208.20 1039.10 o
6 14 2 2024.51 1377.63 763.00 <
6 14 -2 2007.51 2143.86 899.37 <
8 14 2 6799.13 6590.21 812.17 o
8 14 -2 6942.90 7116.10 934.62 o
10 14 2 62371.70 60994.50 973.98 o
10 14 -2 61704.00 62216.80 1123.63 o
2 16 2 11675.20 11819.40 980.02 o
2 16 -2 11268.90 11955.40 1094.65 o
4 16 2 51016.60 49273.50 878.89 o
4 16 -2 50057.20 51088.90 1253.72 o
6 16 2 80449.20 79463.90 972.20 o
6 16 -2 81212.60 80287.50 1209.68 o
8 16 2 33033.80 32491.40 964.90 o
8 16 -2 32186.40 32291.40 1086.70 o
10 16 2 16479.70 16239.30 1041.86 o
10 16 -2 16211.10 16391.10 1325.78 o
0 18 2 57025.40 56401.20 1654.22 o
0 18 -2 57167.20 56750.00 1966.26 o
2 18 2 9590.85 9818.04 1005.42 o
2 18 -2 10884.50 11963.90 1199.99 o
4 18 2 6267.86 5215.53 1008.06 o
4 18 -2 5543.57 4825.39 1329.87 o
6 18 2 2023.15 2142.18 1015.30 <
6 18 -2 2025.38 2441.72 1155.68 <
8 18 2 3956.57 3629.43 1070.23 o
8 18 -2 3501.83 3220.49 1408.27 <
2 20 2 958.95 423.03 1383.45 <
2 20 -2 918.03 647.36 1479.04 <
4 20 2 1920.67 2630.02 1182.45 <
4 20 -2 2124.67 1851.88 1620.34 <
6 20 2 178.35 -813.74 1369.96 <
6 20 -2 1789.41 365.83 1449.73 <
0 22 2 4489.06 5808.41 2339.37 <
0 22 -2 6012.38 5489.24 2576.02 <
2 22 2 8505.80 7064.61 1572.09 o
2 22 -2 8621.63 9657.50 2043.40 o
1 1 3 13555.10 12982.00 911.74 o
1 1 -3 20032.50 20059.80 870.91 o
3 1 3 5972.34 5765.45 806.56 o
3 1 -3 12926.50 13358.80 783.12 o
5 1 3 20651.30 20465.10 701.12 o
5 1 -3 13849.30 14791.50 737.17 o
7 1 3 9616.76 10462.40 609.29 o
7 1 -3 8785.48 9509.52 762.30 o
9 1 3 3025.69 2678.52 659.43 o
9 1 -3 1910.33 1388.63 683.52 <
11 1 3 5217.18 5329.44 696.74 o
11 1 -3 9434.94 11112.80 826.83 o
13 1 3 2257.69 1640.78 841.38 <
13 1 -3 2384.90 2438.11 905.34 <
1 3 3 26750.80 27249.00 860.17 o
1 3 -3 14859.90 14835.20 860.01 o
3 3 3 155443.00 152626.00 1024.11 o
3 3 -3 154762.00 157377.00 1010.19 o
5 3 3 11794.60 11713.40 688.65 o
5 3 -3 20524.30 20820.50 760.09 o
7 3 3 19500.50 19210.00 655.08 o
7 3 -3 28023.00 28913.90 681.56 o
9 3 3 64329.20 62178.00 727.70 o
9 3 -3 65966.90 66367.60 779.13 o
11 3 3 3545.12 2357.11 737.32 o
11 3 -3 988.86 983.06 825.48 <
13 3 3 8818.61 8262.00 866.36 o
13 3 -3 4557.65 3500.64 872.66 o
1 5 3 186109.00 190997.00 1230.71 o
1 5 -3 190004.00 192408.00 1243.15 o
3 5 3 69297.80 69301.50 871.40 o
3 5 -3 69078.30 68442.40 927.94 o
5 5 3 106007.00 104848.00 794.52 o
5 5 -3 102660.00 106481.00 870.68 o
7 5 3 72436.40 71168.60 777.21 o
7 5 -3 65004.60 65599.00 782.02 o
9 5 3 26903.20 27417.60 745.61 o
9 5 -3 27704.30 28731.80 773.22 o
11 5 3 48797.30 47988.60 797.03 o
11 5 -3 47432.20 49604.20 840.93 o
13 5 3 26755.60 27315.00 935.00 o
13 5 -3 30277.20 32437.00 958.34 o
1 7 3 153606.00 152714.00 1078.25 o
1 7 -3 157268.00 159246.00 1254.38 o
3 7 3 70983.40 71566.00 857.21 o
3 7 -3 67344.30 67984.60 900.52 o
5 7 3 133741.00 130806.00 843.74 o
5 7 -3 131070.00 131268.00 940.17 o
7 7 3 99025.90 97814.80 790.14 o
7 7 -3 92563.40 93332.20 908.45 o
9 7 3 29311.60 27925.30 700.81 o
9 7 -3 30411.00 31527.90 758.89 o
11 7 3 42017.40 41091.60 779.14 o
11 7 -3 40472.50 41880.00 940.42 o
13 7 3 24902.90 24353.00 986.08 o
13 7 -3 27916.50 28275.50 1204.21 o
1 9 3 59964.30 60707.80 891.27 o
1 9 -3 51237.50 53023.90 1100.78 o
3 9 3 134152.00 133078.00 905.20 o
3 9 -3 128395.00 128815.00 1119.62 o
5 9 3 39926.40 40254.10 748.41 o
5 9 -3 48857.10 49728.50 849.34 o
7 9 3 42021.30 41446.00 743.53 o
7 9 -3 48958.90 51457.20 849.41 o
9 9 3 60489.70 60533.50 783.39 o
9 9 -3 60477.20 61263.40 779.36 o
11 9 3 11396.10 11687.50 831.45 o
11 9 -3 8034.80 8824.62 971.00 o
13 9 3 16330.80 15081.40 1035.19 o
13 9 -3 13422.90 11670.30 1237.26 o
1 11 3 53749.70 54012.40 950.90 o
1 11 -3 61850.40 62856.30 1104.28 o
3 11 3 764.58 -183.97 706.28 <
3 11 -3 2188.35 2407.91 984.44 <
5 11 3 37942.90 37206.20 748.71 o
5 11 -3 31765.40 32044.50 1040.98 o
7 11 3 18322.40 17870.80 723.24 o
7 11 -3 14065.70 14697.10 810.14 o
9 11 3 3409.57 3191.44 764.47 o
9 11 -3 563.70 -216.77 878.67 <
11 11 3 23681.20 22677.40 925.57 o
11 11 -3 27734.40 29947.30 1166.44 o
1 13 3 661.45 796.03 863.60 <
1 13 -3 172.87 669.34 901.65 <
3 13 3 7574.00 7951.63 770.98 o
3 13 -3 9869.99 11075.00 1046.15 o
5 13 3 934.64 1111.99 770.92 <
5 13 -3 1008.19 1545.42 1004.02 <
7 13 3 3136.92 3247.00 747.34 o
7 13 -3 6508.82 6539.91 1005.06 o
9 13 3 4826.05 3883.17 824.31 o
9 13 -3 3858.43 3987.64 982.81 o
11 13 3 465.91 133.16 1003.32 <
11 13 -3 2247.21 1777.22 1313.42 <
1 15 3 5579.73 4626.92 946.10 o
1 15 -3 1440.97 1018.64 1003.44 <
3 15 3 6674.44 6534.06 819.36 o
3 15 -3 6261.81 5799.47 1025.53 o
5 15 3 3506.73 3082.07 826.34 o
5 15 -3 8246.65 8586.56 1096.72 o
7 15 3 5035.00 4578.71 812.48 o
7 15 -3 11042.60 11735.30 1086.85 o
9 15 3 4699.11 3848.95 956.34 o
9 15 -3 4475.59 4330.44 1430.81 o
1 17 3 26836.70 25855.80 1021.02 o
1 17 -3 33945.20 34452.20 1145.53 o
3 17 3 3630.16 3606.72 930.78 o
3 17 -3 4631.97 4585.25 1281.90 o
5 17 3 28007.20 27491.80 993.28 o
5 17 -3 22397.10 20339.30 1308.93 o
7 17 3 21958.10 21978.90 1023.03 o
7 17 -3 15758.30 16224.70 1166.38 o
9 17 3 1679.83 1771.42 1128.03 <
9 17 -3 1691.77 2679.54 1375.96 <
1 19 3 30478.70 29345.60 1167.92 o
1 19 -3 25782.30 28549.60 1492.64 o
3 19 3 31451.50 30287.00 1122.38 o
3 19 -3 31250.80 33620.70 1436.34 o
5 19 3 21043.50 20248.20 1243.40 o
5 19 -3 24142.00 27051.20 1487.35 o
7 19 3 16244.30 15618.30 1277.43 o
7 19 -3 17414.80 17792.80 1554.51 o
1 21 3 15238.80 15172.80 1321.85 o
1 21 -3 13751.80 15791.90 1827.50 o
3 21 3 47114.40 45847.80 1317.41 o
3 21 -3 46038.20 45417.20 1861.37 o
0 0 4 631530.00 675740.00 3478.47 o
0 0 -4 629491.00 654629.00 3289.34 o
4 0 4 113147.00 108281.00 1205.81 o
4 0 -4 107481.00 107414.00 1205.33 o
8 0 4 29746.80 30420.90 954.38 o
8 0 -4 27001.80 27617.60 1038.36 o
12 0 4 125986.00 125270.00 1265.46 o
12 0 -4 124960.00 126241.00 1564.18 o
2 2 4 11932.90 12656.00 861.62 o
2 2 -4 9569.64 9915.05 724.96 o
4 2 4 193542.00 186057.00 937.50 o
4 2 -4 190573.00 191023.00 1004.81 o
6 2 4 69004.80 69008.70 727.13 o
6 2 -4 71809.90 72242.70 805.54 o
8 2 4 142193.00 138809.00 769.63 o
8 2 -4 139586.00 143582.00 894.65 o
10 2 4 3479.54 4373.45 731.44 o
10 2 -4 2565.01 2001.35 753.51 <
12 2 4 4645.05 5680.94 818.36 o
12 2 -4 4595.18 4988.47 985.13 o
0 4 4 64125.10 66225.10 1327.47 o
0 4 -4 67576.80 71389.00 1344.80 o
2 4 4 78072.20 77743.70 932.06 o
2 4 -4 77155.90 79586.30 931.11 o
4 4 4 41433.80 40516.90 757.47 o
4 4 -4 42596.60 43724.00 834.32 o
6 4 4 52.02 103.55 671.68 <
6 4 -4 55.01 255.48 694.07 <
8 4 4 3030.45 3796.28 662.31 o
8 4 -4 3010.52 2444.87 728.70 o
10 4 4 30482.40 31291.60 736.71 o
10 4 -4 30102.20 30867.70 884.33 o
12 4 4 11081.60 11162.40 836.17 o
12 4 -4 12321.70 12573.20 990.10 o
2 6 4 9869.52 10222.70 767.84 o
2 6 -4 10598.00 11600.90 811.33 o
4 6 4 805.23 1109.21 778.69 <
4 6 -4 5706.98 6057.05 746.14 o
6 6 4 6697.96 7151.06 656.13 o
6 6 -4 5130.01 6493.13 715.06 o
8 6 4 4943.02 4939.87 689.57 o
8 6 -4 9234.38 10541.20 826.46 o
10 6 4 3457.47 4218.33 771.51 o
10 6 -4 3715.10 3539.52 846.28 o
12 6 4 6694.71 6567.79 849.33 o
12 6 -4 6764.01 7099.43 1106.96 o
0 8 4 22029.40 23119.70 1110.15 o
0 8 -4 25106.10 24564.60 1365.43 o
2 8 4 11524.20 12061.00 731.43 o
2 8 -4 12627.00 12979.80 850.34 o
4 8 4 4671.24 4655.37 769.96 o
4 8 -4 6848.22 6788.35 800.94 o
6 8 4 89.31 360.23 677.28 <
6 8 -4 86.45 718.46 815.21 <
8 8 4 2831.73 2850.29 707.97 o
8 8 -4 4172.30 4503.99 901.84 o
10 8 4 5417.60 5777.73 785.27 o
10 8 -4 5875.99 5490.26 930.44 o
12 8 4 3509.92 4278.56 937.55 o
12 8 -4 4622.91 4746.06 1143.02 o
2 10 4 18911.70 19299.80 840.41 o
2 10 -4 21212.80 19512.70 962.95 o
4 10 4 52821.50 52321.20 812.17 o
4 10 -4 51975.00 54657.70 1045.30 o
6 10 4 22167.20 22910.20 758.34 o
6 10 -4 21422.20 22249.10 880.14 o
8 10 4 49354.20 48924.10 789.92 o
8 10 -4 48644.10 50644.50 903.69 o
10 10 4 5129.09 4743.71 862.49 o
10 10 -4 6203.14 7738.85 975.61 o
12 10 4 3982.94 3777.56 1003.88 o
12 10 -4 3997.36 4981.82 1196.26 o
0 12 4 197765.00 196222.00 2116.92 o
0 12 -4 189368.00 192175.00 1931.23 o
2 12 4 3459.28 4308.10 757.62 o
2 12 -4 4355.90 5792.88 961.95 o
4 12 4 71502.80 70018.70 837.39 o
4 12 -4 71633.40 73988.30 1233.45 o
6 12 4 66.12 287.46 762.84 <
6 12 -4 63.76 871.58 960.74 <
8 12 4 21840.60 21331.70 822.21 o
8 12 -4 22440.50 23113.50 1006.59 o
10 12 4 1887.06 1754.72 866.57 <
10 12 -4 2284.12 1581.53 1099.67 <
2 14 4 8119.22 8214.99 991.61 o
2 14 -4 8369.41 8975.98 1065.72 o
4 14 4 114597.00 113178.00 1001.24 o
4 14 -4 112354.00 113014.00 1303.87 o
6 14 4 9827.48 9436.27 882.72 o
6 14 -4 8122.18 7981.53 1070.58 o
8 14 4 92583.20 91473.40 1033.85 o
8 14 -4 90370.80 93296.70 1540.56 o
10 14 4 3597.76 4001.40 1058.64 o
10 14 -4 3614.74 3487.14 1387.42 <
0 16 4 80686.80 80214.60 1551.96 o
0 16 -4 82138.60 88467.40 1904.76 o
2 16 4 41211.90 41600.20 1210.68 o
2 16 -4 39391.40 40149.50 1215.78 o
4 16 4 17132.80 16393.70 1077.62 o
4 16 -4 16514.80 17801.70 1366.16 o
6 16 4 0.39 570.92 985.12 <
6 16 -4 5.41 -1012.71 1182.63 <
8 16 4 2300.35 1880.24 1065.28 <
8 16 -4 2013.85 1811.93 1369.25 <
2 18 4 6034.18 5233.52 1121.58 o
2 18 -4 4918.21 6436.42 1456.28 o
4 18 4 3349.81 3991.55 1187.99 o
4 18 -4 5041.61 4932.56 1468.21 o
6 18 4 29446.40 28477.60 1256.01 o
6 18 -4 29418.50 30381.20 1408.97 o
0 20 4 391.28 1405.36 1879.28 <
0 20 -4 3641.68 3687.99 2634.85 <
2 20 4 2126.17 1232.07 1328.04 <
2 20 -4 2490.51 1304.87 1700.37 <
1 1 5 11157.20 12284.30 771.47 o
1 1 -5 8251.90 9124.18 672.50 o
3 1 5 2019.19 1278.00 779.44 <
3 1 -5 5463.78 5862.93 713.87 o
5 1 5 5758.98 5533.85 688.23 o
5 1 -5 10505.20 10296.60 720.98 o
7 1 5 2354.13 1177.21 698.80 <
7 1 -5 4118.96 4162.30 737.04 o
9 1 5 4589.01 3966.51 747.60 o
9 1 -5 9999.82 10338.70 761.19 o
11 1 5 6827.24 7380.18 847.88 o
11 1 -5 3601.47 3331.74 872.14 o
1 3 5 18523.50 18283.90 787.38 o
1 3 -5 26901.50 28128.40 898.62 o
3 3 5 80375.70 79666.80 943.16 o
3 3 -5 81130.70 81431.60 896.55 o
5 3 5 7309.71 7282.23 707.11 o
5 3 -5 2631.82 3023.26 743.91 o
7 3 5 11223.20 10935.00 734.09 o
7 3 -5 5124.10 5908.90 722.95 o
9 3 5 35211.40 35943.00 781.52 o
9 3 -5 34116.60 35193.40 794.44 o
11 3 5 2170.91 2328.02 818.41 <
11 3 -5 5227.52 6185.50 928.94 o
1 5 5 72099.20 71415.00 874.99 o
1 5 -5 65495.20 65369.00 875.85 o
3 5 5 33834.20 32310.40 782.09 o
3 5 -5 34323.40 34880.50 794.49 o
5 5 5 82354.50 81064.90 864.46 o
5 5 -5 82128.90 84089.80 812.71 o
7 5 5 61091.20 61508.50 827.36 o
7 5 -5 64567.90 65510.30 810.96 o
9 5 5 15953.00 15832.80 858.51 o
9 5 -5 15471.70 15744.20 832.12 o
11 5 5 25619.10 26968.20 896.84 o
11 5 -5 24663.40 26959.00 1045.21 o
1 7 5 104124.00 105264.00 932.16 o
1 7 -5 99543.60 98264.70 989.56 o
3 7 5 42443.10 40813.80 800.25 o
3 7 -5 40974.00 41942.20 930.65 o
5 7 5 62333.50 61103.10 812.05 o
5 7 -5 61303.80 62777.90 841.13 o
7 7 5 47337.70 47804.20 782.10 o
7 7 -5 49895.90 49972.20 854.62 o
9 7 5 22524.00 22658.50 745.46 o
9 7 -5 19418.30 19514.60 906.75 o
11 7 5 33476.00 33227.50 935.25 o
11 7 -5 33417.30 35003.20 1104.90 o
1 9 5 37140.70 37272.90 826.63 o
1 9 -5 44714.80 43902.00 895.17 o
3 9 5 82684.40 80682.00 886.78 o
3 9 -5 78765.30 81029.00 1155.33 o
5 9 5 19147.60 20562.50 764.85 o
5 9 -5 14696.60 14780.80 855.86 o
7 9 5 23236.90 22791.70 790.34 o
7 9 -5 18992.10 20745.10 878.84 o
9 9 5 44534.30 44832.30 880.52 o
9 9 -5 39851.20 40930.40 1017.82 o
11 9 5 8157.42 8346.67 1019.02 o
11 9 -5 11839.80 11548.80 1180.32 o
1 11 5 20615.80 21309.80 821.13 o
1 11 -5 15852.40 16668.30 1058.98 o
3 11 5 1685.51 1681.69 837.65 <
3 11 -5 583.80 249.53 1014.11 <
5 11 5 33803.80 32185.40 835.36 o
5 11 -5 39390.30 37480.00 1046.14 o
7 11 5 18024.10 17555.20 912.74 o
7 11 -5 22283.50 23251.80 1055.06 o
9 11 5 961.70 1784.43 903.41 <
9 11 -5 2995.08 2862.48 1095.97 <
1 13 5 2039.58 2709.52 959.17 <
1 13 -5 4427.98 4506.90 1145.72 o
3 13 5 4111.59 3428.48 897.62 o
3 13 -5 5017.48 4994.59 1094.76 o
5 13 5 192.46 281.51 860.91 <
5 13 -5 1496.54 1228.23 1160.66 <
7 13 5 1760.11 1672.05 940.38 <
7 13 -5 372.30 487.05 1255.62 <
9 13 5 2456.30 1876.72 1030.76 <
9 13 -5 4806.56 4366.55 1308.08 o
1 15 5 4666.08 4748.99 1083.70 o
1 15 -5 10309.90 9603.38 1223.67 o
3 15 5 5337.60 5345.51 1083.58 o
3 15 -5 4818.52 4132.66 1381.29 <
5 15 5 654.50 832.80 1087.48 <
5 15 -5 33.27 1598.53 1154.72 <
7 15 5 3383.65 3491.00 1089.96 o
7 15 -5 870.62 329.15 1218.61 <
1 17 5 22102.70 22454.80 1220.52 o
1 17 -5 16611.10 15853.00 1355.05 o
3 17 5 2559.64 2848.25 1235.76 <
3 17 -5 3327.90 -42.39 1639.25 <
5 17 5 14025.10 13780.10 1280.51 o
5 17 -5 17331.70 16501.10 1476.52 o
1 19 5 17691.10 19106.20 1621.26 o
1 19 -5 19020.40 19357.40 1704.45 o
2 0 6 52077.70 50999.80 1266.12 o
2 0 -6 47357.30 46479.70 1108.70 o
6 0 6 199980.00 191113.00 1321.01 o
6 0 -6 197656.00 196546.00 1445.32 o
10 0 6 38643.70 40770.10 1389.67 o
10 0 -6 35425.20 35518.60 1311.43 o
0 2 6 50456.50 52512.80 1191.16 o
0 2 -6 53636.60 54891.00 1479.67 o
2 2 6 130684.00 130059.00 986.91 o
2 2 -6 127102.00 128703.00 935.34 o
4 2 6 6442.70 4879.46 788.84 o
4 2 -6 4756.42 3459.63 811.40 o
6 2 6 1819.99 845.75 746.58 <
6 2 -6 1794.49 2842.37 755.78 o
8 2 6 5473.54 5006.84 818.34 o
8 2 -6 4175.19 3965.29 807.62 o
10 2 6 38146.50 37891.00 954.62 o
10 2 -6 36707.70 37903.70 974.00 o
2 4 6 9224.22 11679.50 788.96 o
2 4 -6 9785.35 9191.94 805.32 o
4 4 6 37493.60 35091.20 814.29 o
4 4 -6 36759.10 37803.90 837.05 o
6 4 6 23288.60 23181.70 788.93 o
6 4 -6 25896.00 26419.80 862.47 o
8 4 6 22919.20 23728.10 843.43 o
8 4 -6 22307.10 22826.10 858.99 o
10 4 6 14370.80 14666.90 946.81 o
10 4 -6 15199.30 15412.80 988.37 o
0 6 6 7386.03 6611.49 1174.26 o
0 6 -6 5579.16 5409.63 1160.92 o
2 6 6 2745.39 4006.75 795.67 o
2 6 -6 8632.02 9365.37 824.28 o
4 6 6 3552.39 3013.92 839.18 o
4 6 -6 4026.24 5159.87 797.52 o
6 6 6 2625.45 3106.53 816.62 o
6 6 -6 2660.41 3036.14 845.42 o
8 6 6 2184.41 2776.10 886.58 o
8 6 -6 2583.39 2586.49 875.36 <
10 6 6 232.91 -332.71 955.75 <
10 6 -6 2566.81 2356.91 1141.47 <
2 8 6 1216.53 1201.86 816.71 <
2 8 -6 3301.39 2092.48 937.28 <
4 8 6 6624.67 6697.96 848.25 o
4 8 -6 7520.30 7812.69 888.22 o
6 8 6 5423.82 4440.50 851.05 o
6 8 -6 7889.47 8352.05 900.85 o
8 8 6 3640.82 2935.40 915.54 o
8 8 -6 4416.30 4854.13 1045.06 o
10 8 6 4906.48 5457.14 1072.47 o
10 8 -6 6307.14 7720.17 1169.57 o
0 10 6 20699.00 21062.80 1245.33 o
0 10 -6 20055.20 19708.70 1510.87 o
2 10 6 42628.00 40500.50 938.16 o
2 10 -6 41616.70 41239.90 1040.28 o
4 10 6 7458.19 7056.33 968.03 o
4 10 -6 9336.15 9391.66 1047.92 o
6 10 6 1520.00 2071.30 862.51 <
6 10 -6 1527.68 1034.86 1072.85 <
8 10 6 6307.65 5683.45 978.58 o
8 10 -6 7633.86 10027.10 1131.72 o
2 12 6 31488.80 30597.20 986.37 o
2 12 -6 31827.40 31033.40 1204.54 o
4 12 6 2224.75 1689.27 962.61 <
4 12 -6 3003.52 4811.23 1257.69 o
6 12 6 87249.90 84538.90 1080.34 o
6 12 -6 80899.80 84189.10 1363.84 o
8 12 6 1094.58 206.73 1118.43 <
8 12 -6 1776.13 1155.16 1277.12 <
0 14 6 9405.90 9207.97 1560.73 o
0 14 -6 7302.74 4896.12 1793.72 <
2 14 6 87127.20 87157.20 1223.07 o
2 14 -6 84134.50 85597.40 1499.03 o
4 14 6 3612.38 3730.69 1099.45 o
4 14 -6 3699.07 4059.89 1452.62 <
6 14 6 903.17 1017.18 1170.72 <
6 14 -6 874.95 1451.42 1577.37 <
2 16 6 7532.83 5815.80 1356.23 o
2 16 -6 7069.67 7577.85 1508.85 o
4 16 6 22929.60 23243.30 1427.15 o
4 16 -6 21306.00 19160.30 1732.63 o
1 1 7 2411.78 2895.53 920.51 o
1 1 -7 5140.45 5533.22 868.61 o
3 1 7 2963.46 3673.14 943.89 o
3 1 -7 7789.66 7897.41 903.84 o
5 1 7 5626.13 4878.26 812.64 o
5 1 -7 3100.44 2945.01 896.86 o
7 1 7 2248.03 1247.65 892.55 <
7 1 -7 2291.01 1637.54 893.75 <
9 1 7 296.16 824.07 993.61 <
9 1 -7 1019.02 1790.38 1009.54 <
1 3 7 6532.68 7495.05 845.40 o
1 3 -7 2242.49 1780.08 841.83 <
3 3 7 35076.70 34287.10 879.63 o
3 3 -7 34535.10 33548.20 952.32 o
5 3 7 6671.55 6705.65 819.69 o
5 3 -7 11112.60 12974.70 910.56 o
7 3 7 9915.92 10036.20 913.51 o
7 3 -7 14213.00 14462.30 967.99 o
9 3 7 21361.60 22529.30 1051.50 o
9 3 -7 21957.90 22833.80 1096.71 o
1 5 7 54785.10 55327.20 1033.72 o
1 5 -7 56226.40 56188.70 978.46 o
3 5 7 15014.10 14988.60 902.51 o
3 5 -7 14883.60 14600.90 900.19 o
5 5 7 29987.50 30692.90 889.08 o
5 5 -7 26804.80 27010.40 992.40 o
7 5 7 22643.20 23035.00 967.87 o
7 5 -7 17906.10 18153.00 1008.05 o
9 5 7 7939.45 7823.04 1173.48 o
9 5 -7 8281.99 7435.53 1178.24 o
1 7 7 38218.20 38847.40 899.54 o
1 7 -7 37980.10 37596.40 1042.07 o
3 7 7 24529.30 23941.80 930.76 o
3 7 -7 22091.20 20372.60 987.22 o
5 7 7 42596.80 40856.80 974.95 o
5 7 -7 41208.10 40763.00 1067.41 o
7 7 7 33699.20 33278.70 963.32 o
7 7 -7 30600.30 30558.50 1067.22 o
1 9 7 13622.30 12859.80 963.75 o
1 9 -7 10276.80 9253.21 1123.82 o
3 9 7 47242.80 45636.90 1064.22 o
3 9 -7 42670.10 43317.60 1102.31 o
5 9 7 12748.80 11936.60 988.61 o
5 9 -7 17106.90 17088.70 1143.70 o
7 9 7 13978.80 14368.40 1141.95 o
7 9 -7 17137.30 17936.10 1261.82 o
1 11 7 19735.80 20171.70 1001.11 o
1 11 -7 23987.20 24015.50 1207.00 o
3 11 7 781.33 245.52 1123.22 <
3 11 -7 1606.46 1705.31 1137.94 <
5 11 7 10766.80 10337.20 1063.05 o
5 11 -7 7699.63 6460.08 1235.10 o
1 13 7 637.18 354.25 1121.12 <
1 13 -7 644.29 332.66 1538.15 <
3 13 7 1971.54 1658.99 1255.44 <
3 13 -7 3899.57 4036.83 1847.87 <
0 0 8 129725.00 127117.00 2342.80 o
0 0 -8 126504.00 125026.00 2737.65 o
4 0 8 33484.60 34350.80 1448.57 o
4 0 -8 29948.50 30149.60 1829.66 o
2 2 8 4966.96 5545.40 1099.08 o
2 2 -8 3721.64 3340.85 1007.22 o
4 2 8 48137.40 47872.30 1034.73 o
4 2 -8 45813.60 46515.40 1197.20 o
6 2 8 15749.10 15366.40 1061.07 o
6 2 -8 17199.10 17379.30 1199.97 o
0 4 8 19138.80 19164.70 1528.61 o
0 4 -8 21848.30 19050.60 1481.73 o
2 4 8 19595.40 18840.90 1048.68 o
2 4 -8 18925.50 18653.10 1028.72 o
4 4 8 7348.00 7269.56 1013.47 o
4 4 -8 8070.10 8192.87 1194.24 o
6 4 8 17.78 -698.46 1073.88 <
6 4 -8 20.38 1183.83 1203.42 <
2 6 8 1315.63 1012.87 1087.65 <
2 6 -8 1650.18 1515.46 1108.01 <
4 6 8 488.70 321.97 1008.31 <
4 6 -8 4285.41 4587.20 1222.27 o
0 8 8 3147.02 1535.75 1531.34 <
0 8 -8 5896.29 7143.58 1695.31 o
2 8 8 3580.07 3209.76 1159.91 <
2 8 -8 4415.86 3816.70 1115.45 o
4 8 8 2758.53 2679.39 1105.91 <
4 8 -8 4407.24 5078.52 1353.31 o
2 10 8 4127.10 4492.52 1355.24 o
2 10 -8 5552.81 4327.25 1911.45 <
loop_
_twin_individual_id
_twin_individual_mass_fraction_refined
_twin_individual_twin_matrix_11
_twin_individual_twin_matrix_12
_twin_individual_twin_matrix_13
_twin_individual_twin_matrix_21
_twin_individual_twin_matrix_22
_twin_individual_twin_matrix_23
_twin_individual_twin_matrix_31
_twin_individual_twin_matrix_32
_twin_individual_twin_matrix_33
1 1.011(10) 1 0 0 0 1 0 0 0 1
2 -0.011(10) -1 0 0 0 -1 0 0 0 -1
