#------------------------------------------------------------------------------
#$Date: 2021-04-14 13:07:23 +0300 (Wed, 14 Apr 2021) $
#$Revision: 264157 $
#$URL: file:///home/coder/svn-repositories/cod/cif/1/56/17/1561762.cif $
#------------------------------------------------------------------------------
#
# This file is available in the Crystallography Open Database (COD),
# http://www.crystallography.net/
#
# All data on this site have been placed in the public domain by the
# contributors.
#
data_1561762
loop_
_publ_author_name
'Bykova, E.'
'Gou, H.'
'Bykov, M.'
'Hanfland, M.'
'Dubrovinsky, L.'
'Dubrovinskaia, N.'
_publ_section_title
;
 Crystal structures and compressibility of novel iron borides Fe2B7 and Fe
 B50 synthesized at high pressure and high temperature
;
_journal_name_full               'Journal of Solid State Chemistry'
_journal_page_first              102
_journal_page_last               109
_journal_paper_doi               10.1016/j.jssc.2015.06.040
_journal_volume                  230
_journal_year                    2015
_chemical_absolute_configuration .
_chemical_compound_source
;
high-pressure high-temperature synthesis
;
_chemical_formula_moiety         'B7 Fe2'
_chemical_formula_sum            'B7 Fe2'
_chemical_formula_weight         187.4
_chemical_name_common            'diiron heptaboride'
_chemical_name_systematic        'diiron heptaboride'
_space_group_IT_number           55
_space_group_name_Hall           '-P 2 2ab'
_space_group_name_H-M_alt        'P b a m'
_symmetry_cell_setting           orthorhombic
_symmetry_Int_Tables_number      55
_symmetry_space_group_name_Hall  '-P 2 2ab'
_symmetry_space_group_name_H-M   'P b a m'
_cell_angle_alpha                90
_cell_angle_beta                 90
_cell_angle_gamma                90
_cell_formula_units_Z            8
_cell_length_a                   16.363(2)
_cell_length_b                   10.4485(3)
_cell_length_c                   2.79480(10)
_cell_measurement_reflns_used    475
_cell_measurement_temperature    293
_cell_measurement_theta_max      18.4410
_cell_measurement_theta_min      4.4610
_cell_volume                     477.82(6)
_computing_cell_refinement
;
CrysAlisPro, Agilent Technologies,
Version 1.171.37.35 (release 13-08-2014 CrysAlis171 .NET)
(compiled Aug 13 2014,18:06:01)
;
_computing_data_collection
;
CrysAlisPro, Agilent Technologies,
Version 1.171.37.35 (release 13-08-2014 CrysAlis171 .NET)
(compiled Aug 13 2014,18:06:01)
;
_computing_data_reduction
;
CrysAlisPro, Agilent Technologies,
Version 1.171.37.35 (release 13-08-2014 CrysAlis171 .NET)
(compiled Aug 13 2014,18:06:01)
;
_computing_structure_refinement  'Jana2006 (Petricek, 2014)'
_computing_structure_solution    'SHELXS-2013 (Sheldrick, 2013)'
_diffrn_ambient_pressure         28000000
_diffrn_ambient_temperature      293
_diffrn_detector                 'MAR555 flatpanel detector'
_diffrn_measured_fraction_theta_full 0.88
_diffrn_measured_fraction_theta_max 0.53
_diffrn_measurement_device
;
customized omega-circle diffractometer
;
_diffrn_measurement_device_type  'ESRF, beamline ID09A diffractometer'
_diffrn_measurement_method       '\w scans'
_diffrn_radiation_monochromator  synchrotron
_diffrn_radiation_probe          x-ray
_diffrn_radiation_source         synchrotron
_diffrn_radiation_type           synchrotron
_diffrn_radiation_wavelength     0.41441
_diffrn_reflns_av_R_equivalents  0.0425
_diffrn_reflns_av_unetI/netI     0.0323
_diffrn_reflns_limit_h_max       17
_diffrn_reflns_limit_h_min       -17
_diffrn_reflns_limit_k_max       14
_diffrn_reflns_limit_k_min       -15
_diffrn_reflns_limit_l_max       3
_diffrn_reflns_limit_l_min       -3
_diffrn_reflns_number            3060
_diffrn_reflns_theta_full        13.21
_diffrn_reflns_theta_max         19.44
_diffrn_reflns_theta_min         1.84
_diffrn_source                   synchrotron
_exptl_absorpt_coefficient_mu    2.448
_exptl_absorpt_correction_T_max  1.00000
_exptl_absorpt_correction_T_min  0.57201
_exptl_absorpt_correction_type   multi-scan
_exptl_absorpt_process_details
;
CrysAlisPro, Agilent Technologies,
Version 1.171.37.35 (release 13-08-2014 CrysAlis171 .NET)
(compiled Aug 13 2014,18:06:01)
Empirical absorption correction using spherical harmonics,
 implemented in SCALE3 ABSPACK scaling algorithm.
;
_exptl_crystal_colour            black
_exptl_crystal_density_diffrn    5.2073
_exptl_crystal_description       plate
_exptl_crystal_F_000             696
_exptl_crystal_size_max          0.025
_exptl_crystal_size_mid          0.025
_exptl_crystal_size_min          0.005
_refine_diff_density_max         1.26
_refine_diff_density_min         -1.18
_refine_ls_extinction_method     none
_refine_ls_goodness_of_fit_gt    2.02
_refine_ls_goodness_of_fit_ref   1.92
_refine_ls_number_constraints    0
_refine_ls_number_parameters     67
_refine_ls_number_reflns         649
_refine_ls_number_restraints     0
_refine_ls_R_factor_all          0.0505
_refine_ls_R_factor_gt           0.0404
_refine_ls_shift/su_max          0.0002
_refine_ls_shift/su_mean         0.0000
_refine_ls_structure_factor_coef Fsqd
_refine_ls_weighting_details     w=1/(\s^2^(I)+0.0004I^2^)
_refine_ls_weighting_scheme      sigma
_refine_ls_wR_factor_gt          0.0891
_refine_ls_wR_factor_ref         0.0944
_reflns_number_gt                535
_reflns_number_total             649
_reflns_threshold_expression     I>2\s(I)
_cod_data_source_file            Fe2B7_28.0GPa.cif
_cod_data_source_block           Fe2B7_28.0GPa
_cod_depositor_comments
;
The following automatic conversions were performed:

data item '_diffrn_radiation_probe' value 'X-ray' was changed to
'x-ray' in accordance with the built-in table derived from the CIF
Core dictionary named 'cif_core.dic' version 2.4.5 last updated on
2014-11-21.

Automatic conversion script
Id: cif_fix_values 8369 2020-08-20 11:38:08Z andrius 
;
_cod_database_code               1561762
loop_
_symmetry_equiv_pos_site_id
_symmetry_equiv_pos_as_xyz
1 x,y,z
2 -x,-y,z
3 -x+1/2,y+1/2,-z
4 x+1/2,-y+1/2,-z
5 -x,-y,-z
6 x,y,-z
7 x+1/2,-y+1/2,z
8 -x+1/2,y+1/2,z
loop_
_atom_site_label
_atom_site_type_symbol
_atom_site_fract_x
_atom_site_fract_y
_atom_site_fract_z
_atom_site_adp_type
_atom_site_U_iso_or_equiv
_atom_site_site_symmetry_multiplicity
_atom_site_occupancy
_atom_site_calc_flag
_atom_site_refinement_flags
_atom_site_disorder_assembly
_atom_site_disorder_group
Fe1 Fe 0.22094(9) 0.46715(9) 0.5 Uani 0.0067(4) 4 1 d . . .
Fe2 Fe 0.12101(9) 0.17865(9) 0 Uani 0.0062(4) 4 1 d . . .
Fe3 Fe 0.46455(9) 0.10567(9) 0.5 Uani 0.0062(4) 4 1 d . . .
Fe4 Fe 0.38981(9) 0.26646(9) 0 Uani 0.0061(4) 4 1 d . . .
B1 B 0.3677(7) 0.0510(7) 0 Uiso 0.0054(15) 4 1 d . . .
B2 B 0.0479(7) 0.4612(7) 0 Uiso 0.0071(16) 4 1 d . . .
B3 B 0.3023(7) 0.3917(7) 0 Uiso 0.0068(16) 4 1 d . . .
B4 B 0.1396(7) 0.3752(7) 0 Uiso 0.0042(15) 4 1 d . . .
B5 B 0.4439(7) 0.4045(7) 0.5 Uiso 0.0066(16) 4 1 d . . .
B6 B 0.2011(7) 0.0443(8) 0 Uiso 0.0084(16) 4 1 d . . .
B7 B 0.2886(7) 0.2866(7) 0.5 Uiso 0.0082(16) 4 1 d . . .
B8 B 0.0334(7) 0.3043(7) 0 Uiso 0.0063(16) 4 1 d . . .
B9 B 0.3980(7) 0.4760(6) 0 Uiso 0.0047(15) 4 1 d . . .
B10 B 0.0540(7) 0.0586(7) 0.5 Uiso 0.0061(15) 4 1 d . . .
B11 B 0.0167(7) 0.2107(7) 0.5 Uiso 0.0040(14) 4 1 d . . .
B12 B 0.3391(7) 0.1385(7) 0.5 Uiso 0.0043(14) 4 1 d . . .
B13 B 0.2195(7) 0.1448(7) 0.5 Uiso 0.0085(16) 4 1 d . . .
B14 B 0.1799(7) 0.2921(8) 0.5 Uiso 0.0102(17) 4 1 d . . .
loop_
_atom_site_aniso_label
_atom_site_aniso_type_symbol
_atom_site_aniso_U_11
_atom_site_aniso_U_22
_atom_site_aniso_U_33
_atom_site_aniso_U_12
_atom_site_aniso_U_13
_atom_site_aniso_U_23
Fe1 Fe 0.0069(10) 0.0040(4) 0.0093(5) 0.0007(4) 0 0
Fe2 Fe 0.0065(10) 0.0058(4) 0.0063(5) 0.0003(4) 0 0
Fe3 Fe 0.0074(10) 0.0056(4) 0.0055(5) 0.0003(4) 0 0
Fe4 Fe 0.0074(9) 0.0052(4) 0.0055(5) 0.0004(5) 0 0
loop_
_atom_type_symbol
_atom_type_scat_dispersion_real
_atom_type_scat_dispersion_imag
_atom_type_scat_source
B -0.0003 0.0002 'International Tables Vol C tables 4.2.6.8 and 6.1.1.1'
Fe 0.1991 0.3104 'International Tables Vol C tables 4.2.6.8 and 6.1.1.1'
loop_
_geom_angle_atom_site_label_1
_geom_angle_atom_site_label_2
_geom_angle_atom_site_label_3
_geom_angle_site_symmetry_1
_geom_angle_site_symmetry_2
_geom_angle_site_symmetry_3
_geom_angle
Fe1 Fe1 Fe1 1_554 . 1_556 180.0(5)
Fe1 Fe1 B1 1_554 . 3_555 50.48(17)
Fe1 Fe1 B1 1_554 . 3_556 129.52(18)
Fe1 Fe1 B3 1_554 . . 47.9(2)
Fe1 Fe1 B3 1_554 . 1_556 132.1(2)
Fe1 Fe1 B4 1_554 . . 49.58(17)
Fe1 Fe1 B4 1_554 . 1_556 130.42(18)
Fe1 Fe1 B6 1_554 . 3_555 47.2(2)
Fe1 Fe1 B6 1_554 . 3_556 132.8(2)
Fe1 Fe1 B7 1_554 . . 90.00(3)
Fe1 Fe1 B12 1_554 . 3_556 90.00(3)
Fe1 Fe1 B13 1_554 . 3_556 90.00(3)
Fe1 Fe1 B14 1_554 . . 90.00(3)
Fe1 Fe1 B1 1_556 . 3_555 129.52(18)
Fe1 Fe1 B1 1_556 . 3_556 50.48(17)
Fe1 Fe1 B3 1_556 . . 132.1(2)
Fe1 Fe1 B3 1_556 . 1_556 47.9(2)
Fe1 Fe1 B4 1_556 . . 130.42(18)
Fe1 Fe1 B4 1_556 . 1_556 49.58(17)
Fe1 Fe1 B6 1_556 . 3_555 132.8(2)
Fe1 Fe1 B6 1_556 . 3_556 47.2(2)
Fe1 Fe1 B7 1_556 . . 90.00(3)
Fe1 Fe1 B12 1_556 . 3_556 90.00(3)
Fe1 Fe1 B13 1_556 . 3_556 90.00(3)
Fe1 Fe1 B14 1_556 . . 90.00(3)
B1 Fe1 B1 3_555 . 3_556 79.0(2)
B1 Fe1 B3 3_555 . . 98.4(3)
B1 Fe1 B3 3_555 . 1_556 177.4(2)
B1 Fe1 B4 3_555 . . 50.0(3)
B1 Fe1 B4 3_555 . 1_556 100.5(3)
B1 Fe1 B6 3_555 . 3_555 79.7(4)
B1 Fe1 B6 3_555 . 3_556 133.3(3)
B1 Fe1 B7 3_555 . . 132.7(2)
B1 Fe1 B12 3_555 . 3_556 48.1(2)
B1 Fe1 B13 3_555 . 3_556 87.4(3)
B1 Fe1 B14 3_555 . . 98.5(3)
B1 Fe1 B3 3_556 . . 177.4(2)
B1 Fe1 B3 3_556 . 1_556 98.4(3)
B1 Fe1 B4 3_556 . . 100.5(3)
B1 Fe1 B4 3_556 . 1_556 50.0(3)
B1 Fe1 B6 3_556 . 3_555 133.3(3)
B1 Fe1 B6 3_556 . 3_556 79.7(4)
B1 Fe1 B7 3_556 . . 132.7(2)
B1 Fe1 B12 3_556 . 3_556 48.1(2)
B1 Fe1 B13 3_556 . 3_556 87.4(3)
B1 Fe1 B14 3_556 . . 98.5(3)
B3 Fe1 B3 . . 1_556 84.2(3)
B3 Fe1 B4 . . . 77.9(3)
B3 Fe1 B4 . . 1_556 131.3(3)
B3 Fe1 B6 . . 3_555 45.3(3)
B3 Fe1 B6 . . 3_556 102.0(4)
B3 Fe1 B7 . . . 49.5(2)
B3 Fe1 B12 . . 3_556 129.7(2)
B3 Fe1 B13 . . 3_556 92.2(3)
B3 Fe1 B14 . . . 82.2(3)
B3 Fe1 B4 1_556 . . 131.3(3)
B3 Fe1 B4 1_556 . 1_556 77.9(3)
B3 Fe1 B6 1_556 . 3_555 102.0(4)
B3 Fe1 B6 1_556 . 3_556 45.3(3)
B3 Fe1 B7 1_556 . . 49.5(2)
B3 Fe1 B12 1_556 . 3_556 129.7(2)
B3 Fe1 B13 1_556 . 3_556 92.2(3)
B3 Fe1 B14 1_556 . . 82.2(3)
B4 Fe1 B4 . . 1_556 80.8(2)
B4 Fe1 B6 . . 3_555 96.7(3)
B4 Fe1 B6 . . 3_556 176.5(3)
B4 Fe1 B7 . . . 85.9(3)
B4 Fe1 B12 . . 3_556 95.4(3)
B4 Fe1 B13 . . 3_556 133.0(2)
B4 Fe1 B14 . . . 50.9(2)
B4 Fe1 B6 1_556 . 3_555 176.5(3)
B4 Fe1 B6 1_556 . 3_556 96.7(3)
B4 Fe1 B7 1_556 . . 85.9(3)
B4 Fe1 B12 1_556 . 3_556 95.4(3)
B4 Fe1 B13 1_556 . 3_556 133.0(2)
B4 Fe1 B14 1_556 . . 50.9(2)
B6 Fe1 B6 3_555 . 3_556 85.6(3)
B6 Fe1 B7 3_555 . . 91.4(3)
B6 Fe1 B12 3_555 . 3_556 87.4(3)
B6 Fe1 B13 3_555 . 3_556 50.5(2)
B6 Fe1 B14 3_555 . . 125.6(3)
B6 Fe1 B7 3_556 . . 91.4(3)
B6 Fe1 B12 3_556 . 3_556 87.4(3)
B6 Fe1 B13 3_556 . 3_556 50.5(2)
B6 Fe1 B14 3_556 . . 125.6(3)
B7 Fe1 B12 . . 3_556 178.3(4)
B7 Fe1 B13 . . 3_556 121.9(4)
B7 Fe1 B14 . . . 50.5(4)
B12 Fe1 B13 3_556 . 3_556 56.5(4)
B12 Fe1 B14 3_556 . . 131.1(5)
B13 Fe1 B14 3_556 . . 172.4(5)
Fe2 Fe2 Fe2 1_554 . 1_556 180.0(5)
Fe2 Fe2 B4 1_554 . . 90.00(3)
Fe2 Fe2 B6 1_554 . . 90.00(4)
Fe2 Fe2 B8 1_554 . . 90.00(4)
Fe2 Fe2 B9 1_554 . 3_545 90.00(3)
Fe2 Fe2 B10 1_554 . 1_554 50.00(16)
Fe2 Fe2 B10 1_554 . . 130.00(17)
Fe2 Fe2 B11 1_554 . 1_554 51.23(18)
Fe2 Fe2 B11 1_554 . . 128.77(19)
Fe2 Fe2 B13 1_554 . 1_554 49.7(2)
Fe2 Fe2 B13 1_554 . . 130.3(2)
Fe2 Fe2 B14 1_554 . 1_554 47.56(19)
Fe2 Fe2 B14 1_554 . . 132.44(19)
Fe2 Fe2 B4 1_556 . . 90.00(3)
Fe2 Fe2 B6 1_556 . . 90.00(4)
Fe2 Fe2 B8 1_556 . . 90.00(4)
Fe2 Fe2 B9 1_556 . 3_545 90.00(3)
Fe2 Fe2 B10 1_556 . 1_554 130.00(17)
Fe2 Fe2 B10 1_556 . . 50.00(16)
Fe2 Fe2 B11 1_556 . 1_554 128.77(19)
Fe2 Fe2 B11 1_556 . . 51.23(18)
Fe2 Fe2 B13 1_556 . 1_554 130.3(2)
Fe2 Fe2 B13 1_556 . . 49.7(2)
Fe2 Fe2 B14 1_556 . 1_554 132.44(19)
Fe2 Fe2 B14 1_556 . . 47.56(19)
B4 Fe2 B6 . . . 128.5(4)
B4 Fe2 B8 . . . 56.0(4)
B4 Fe2 B9 . . 3_545 179.9(4)
B4 Fe2 B10 . . 1_554 130.1(2)
B4 Fe2 B10 . . . 130.1(2)
B4 Fe2 B11 . . 1_554 87.9(3)
B4 Fe2 B11 . . . 87.9(3)
B4 Fe2 B13 . . 1_554 93.0(3)
B4 Fe2 B13 . . . 93.0(3)
B4 Fe2 B14 . . 1_554 50.6(2)
B4 Fe2 B14 . . . 50.6(2)
B6 Fe2 B8 . . . 175.5(4)
B6 Fe2 B9 . . 3_545 51.4(4)
B6 Fe2 B10 . . 1_554 85.6(3)
B6 Fe2 B10 . . . 85.6(3)
B6 Fe2 B11 . . 1_554 129.2(2)
B6 Fe2 B11 . . . 129.2(2)
B6 Fe2 B13 . . 1_554 51.1(3)
B6 Fe2 B13 . . . 51.1(3)
B6 Fe2 B14 . . 1_554 95.8(4)
B6 Fe2 B14 . . . 95.8(4)
B8 Fe2 B9 . . 3_545 124.1(4)
B8 Fe2 B10 . . 1_554 91.0(3)
B8 Fe2 B10 . . . 91.0(3)
B8 Fe2 B11 . . 1_554 48.3(2)
B8 Fe2 B11 . . . 48.3(2)
B8 Fe2 B13 . . 1_554 131.3(2)
B8 Fe2 B13 . . . 131.3(2)
B8 Fe2 B14 . . 1_554 87.5(4)
B8 Fe2 B14 . . . 87.5(4)
B9 Fe2 B10 3_545 . 1_554 49.9(2)
B9 Fe2 B10 3_545 . . 49.9(2)
B9 Fe2 B11 3_545 . 1_554 92.2(3)
B9 Fe2 B11 3_545 . . 92.2(3)
B9 Fe2 B13 3_545 . 1_554 86.9(3)
B9 Fe2 B13 3_545 . . 86.9(3)
B9 Fe2 B14 3_545 . 1_554 129.3(2)
B9 Fe2 B14 3_545 . . 129.3(2)
B10 Fe2 B10 1_554 . . 80.0(2)
B10 Fe2 B11 1_554 . 1_554 45.4(3)
B10 Fe2 B11 1_554 . . 95.9(3)
B10 Fe2 B13 1_554 . 1_554 82.3(3)
B10 Fe2 B13 1_554 . . 134.2(3)
B10 Fe2 B14 1_554 . 1_554 97.5(2)
B10 Fe2 B14 1_554 . . 177.1(4)
B10 Fe2 B11 . . 1_554 95.9(3)
B10 Fe2 B11 . . . 45.4(3)
B10 Fe2 B13 . . 1_554 134.2(3)
B10 Fe2 B13 . . . 82.3(3)
B10 Fe2 B14 . . 1_554 177.1(4)
B10 Fe2 B14 . . . 97.5(2)
B11 Fe2 B11 1_554 . . 77.5(3)
B11 Fe2 B13 1_554 . 1_554 101.0(3)
B11 Fe2 B13 1_554 . . 178.2(3)
B11 Fe2 B14 1_554 . 1_554 81.2(3)
B11 Fe2 B14 1_554 . . 133.8(3)
B11 Fe2 B13 . . 1_554 178.2(3)
B11 Fe2 B13 . . . 101.0(3)
B11 Fe2 B14 . . 1_554 133.8(3)
B11 Fe2 B14 . . . 81.2(3)
B13 Fe2 B13 1_554 . . 80.5(3)
B13 Fe2 B14 1_554 . 1_554 46.4(3)
B13 Fe2 B14 1_554 . . 100.5(4)
B13 Fe2 B14 . . 1_554 100.5(4)
B13 Fe2 B14 . . . 46.4(3)
B14 Fe2 B14 1_554 . . 84.9(3)
Fe3 Fe3 Fe3 1_554 . 1_556 180.0(5)
Fe3 Fe3 Fe3 1_554 . 2_655 90.00(3)
Fe3 Fe3 Fe4 1_554 . . 56.08(3)
Fe3 Fe3 Fe4 1_554 . 1_556 123.92(5)
Fe3 Fe3 B1 1_554 . . 50.33(18)
Fe3 Fe3 B1 1_554 . 1_556 129.67(19)
Fe3 Fe3 B2 1_554 . 3_545 47.47(14)
Fe3 Fe3 B2 1_554 . 3_546 132.53(15)
Fe3 Fe3 B2 1_554 . 4_555 47.6(2)
Fe3 Fe3 B2 1_554 . 4_556 132.4(2)
Fe3 Fe3 B8 1_554 . 4_555 46.4(2)
Fe3 Fe3 B8 1_554 . 4_556 133.6(2)
Fe3 Fe3 B11 1_554 . 4_556 90.00(3)
Fe3 Fe3 B12 1_554 . . 90.00(4)
Fe3 Fe3 Fe3 1_556 . 2_655 90.00(3)
Fe3 Fe3 Fe4 1_556 . . 123.92(5)
Fe3 Fe3 Fe4 1_556 . 1_556 56.08(3)
Fe3 Fe3 B1 1_556 . . 129.67(19)
Fe3 Fe3 B1 1_556 . 1_556 50.33(18)
Fe3 Fe3 B2 1_556 . 3_545 132.53(15)
Fe3 Fe3 B2 1_556 . 3_546 47.47(14)
Fe3 Fe3 B2 1_556 . 4_555 132.4(2)
Fe3 Fe3 B2 1_556 . 4_556 47.6(2)
Fe3 Fe3 B8 1_556 . 4_555 133.6(2)
Fe3 Fe3 B8 1_556 . 4_556 46.4(2)
Fe3 Fe3 B11 1_556 . 4_556 90.00(3)
Fe3 Fe3 B12 1_556 . . 90.00(4)
Fe3 Fe3 Fe4 2_655 . . 145.19(2)
Fe3 Fe3 Fe4 2_655 . 1_556 145.19(2)
Fe3 Fe3 B1 2_655 . . 96.1(2)
Fe3 Fe3 B1 2_655 . 1_556 96.1(2)
Fe3 Fe3 B2 2_655 . 3_545 53.1(2)
Fe3 Fe3 B2 2_655 . 3_546 53.1(2)
Fe3 Fe3 B2 2_655 . 4_555 52.84(18)
Fe3 Fe3 B2 2_655 . 4_556 52.84(18)
Fe3 Fe3 B8 2_655 . 4_555 98.8(3)
Fe3 Fe3 B8 2_655 . 4_556 98.8(3)
Fe3 Fe3 B11 2_655 . 4_556 128.3(3)
Fe3 Fe3 B12 2_655 . . 127.2(2)
Fe4 Fe3 Fe4 . . 1_556 67.84(4)
Fe4 Fe3 B1 . . . 57.67(19)
Fe4 Fe3 B1 . . 1_556 100.2(2)
Fe4 Fe3 B2 . . 3_545 93.7(2)
Fe4 Fe3 B2 . . 3_546 145.0(3)
Fe4 Fe3 B2 . . 4_555 99.85(18)
Fe4 Fe3 B2 . . 4_556 157.4(2)
Fe4 Fe3 B8 . . 4_555 64.9(3)
Fe4 Fe3 B8 . . 4_556 110.2(2)
Fe4 Fe3 B11 . . 4_556 65.5(2)
Fe4 Fe3 B12 . . . 53.68(15)
Fe4 Fe3 B1 1_556 . . 100.2(2)
Fe4 Fe3 B1 1_556 . 1_556 57.67(19)
Fe4 Fe3 B2 1_556 . 3_545 145.0(3)
Fe4 Fe3 B2 1_556 . 3_546 93.7(2)
Fe4 Fe3 B2 1_556 . 4_555 157.4(2)
Fe4 Fe3 B2 1_556 . 4_556 99.85(18)
Fe4 Fe3 B8 1_556 . 4_555 110.2(2)
Fe4 Fe3 B8 1_556 . 4_556 64.9(3)
Fe4 Fe3 B11 1_556 . 4_556 65.5(2)
Fe4 Fe3 B12 1_556 . . 53.68(15)
B1 Fe3 B1 . . 1_556 79.3(3)
B1 Fe3 B2 . . 3_545 46.1(4)
B1 Fe3 B2 . . 3_546 99.8(3)
B1 Fe3 B2 . . 4_555 87.6(3)
B1 Fe3 B2 . . 4_556 144.9(3)
B1 Fe3 B8 . . 4_555 94.8(3)
B1 Fe3 B8 . . 4_556 164.6(4)
B1 Fe3 B11 . . 4_556 122.2(3)
B1 Fe3 B12 . . . 47.8(2)
B1 Fe3 B2 1_556 . 3_545 99.8(3)
B1 Fe3 B2 1_556 . 3_546 46.1(4)
B1 Fe3 B2 1_556 . 4_555 144.9(3)
B1 Fe3 B2 1_556 . 4_556 87.6(3)
B1 Fe3 B8 1_556 . 4_555 164.6(4)
B1 Fe3 B8 1_556 . 4_556 94.8(3)
B1 Fe3 B11 1_556 . 4_556 122.2(3)
B1 Fe3 B12 1_556 . . 47.8(2)
B2 Fe3 B2 3_545 . 3_546 85.1(2)
B2 Fe3 B2 3_545 . 4_555 50.5(4)
B2 Fe3 B2 3_545 . 4_556 105.9(3)
B2 Fe3 B8 3_545 . 4_555 85.9(3)
B2 Fe3 B8 3_545 . 4_556 149.3(4)
B2 Fe3 B11 3_545 . 4_556 135.0(2)
B2 Fe3 B12 3_545 . . 91.3(3)
B2 Fe3 B2 3_546 . 4_555 105.9(3)
B2 Fe3 B2 3_546 . 4_556 50.5(4)
B2 Fe3 B8 3_546 . 4_555 149.3(4)
B2 Fe3 B8 3_546 . 4_556 85.9(3)
B2 Fe3 B11 3_546 . 4_556 135.0(2)
B2 Fe3 B12 3_546 . . 91.3(3)
B2 Fe3 B2 4_555 . 4_556 84.7(3)
B2 Fe3 B8 4_555 . 4_555 47.6(3)
B2 Fe3 B8 4_555 . 4_556 104.8(4)
B2 Fe3 B11 4_555 . 4_556 92.3(3)
B2 Fe3 B12 4_555 . . 134.8(2)
B2 Fe3 B8 4_556 . 4_555 104.8(4)
B2 Fe3 B8 4_556 . 4_556 47.6(3)
B2 Fe3 B11 4_556 . 4_556 92.3(3)
B2 Fe3 B12 4_556 . . 134.8(2)
B8 Fe3 B8 4_555 . 4_556 87.2(3)
B8 Fe3 B11 4_555 . 4_556 49.5(2)
B8 Fe3 B12 4_555 . . 118.1(3)
B8 Fe3 B11 4_556 . 4_556 49.5(2)
B8 Fe3 B12 4_556 . . 118.1(3)
B11 Fe3 B12 4_556 . . 104.5(4)
Fe3 Fe4 Fe3 1_554 . . 67.84(4)
Fe3 Fe4 Fe4 1_554 . 1_554 56.08(3)
Fe3 Fe4 Fe4 1_554 . 1_556 123.92(5)
Fe3 Fe4 B1 1_554 . . 54.2(2)
Fe3 Fe4 B3 1_554 . . 144.40(9)
Fe3 Fe4 B5 1_554 . 1_554 83.6(2)
Fe3 Fe4 B5 1_554 . . 126.8(3)
Fe3 Fe4 B7 1_554 . 1_554 94.49(19)
Fe3 Fe4 B7 1_554 . . 142.6(2)
Fe3 Fe4 B9 1_554 . . 129.8(2)
Fe3 Fe4 B12 1_554 . 1_554 52.8(3)
Fe3 Fe4 B12 1_554 . . 97.9(2)
Fe3 Fe4 Fe4 . . 1_554 123.92(5)
Fe3 Fe4 Fe4 . . 1_556 56.08(3)
Fe3 Fe4 B1 . . . 54.2(2)
Fe3 Fe4 B3 . . . 144.40(9)
Fe3 Fe4 B5 . . 1_554 126.8(3)
Fe3 Fe4 B5 . . . 83.6(2)
Fe3 Fe4 B7 . . 1_554 142.6(2)
Fe3 Fe4 B7 . . . 94.49(19)
Fe3 Fe4 B9 . . . 129.8(2)
Fe3 Fe4 B12 . . 1_554 97.9(2)
Fe3 Fe4 B12 . . . 52.8(3)
Fe4 Fe4 Fe4 1_554 . 1_556 180.0(5)
Fe4 Fe4 B1 1_554 . . 90.00(3)
Fe4 Fe4 B3 1_554 . . 90.00(4)
Fe4 Fe4 B5 1_554 . 1_554 50.45(15)
Fe4 Fe4 B5 1_554 . . 129.55(15)
Fe4 Fe4 B7 1_554 . 1_554 50.1(2)
Fe4 Fe4 B7 1_554 . . 129.9(2)
Fe4 Fe4 B9 1_554 . . 90.00(3)
Fe4 Fe4 B12 1_554 . 1_554 48.39(15)
Fe4 Fe4 B12 1_554 . . 131.61(16)
Fe4 Fe4 B1 1_556 . . 90.00(3)
Fe4 Fe4 B3 1_556 . . 90.00(4)
Fe4 Fe4 B5 1_556 . 1_554 129.55(15)
Fe4 Fe4 B5 1_556 . . 50.45(15)
Fe4 Fe4 B7 1_556 . 1_554 129.9(2)
Fe4 Fe4 B7 1_556 . . 50.1(2)
Fe4 Fe4 B9 1_556 . . 90.00(3)
Fe4 Fe4 B12 1_556 . 1_554 131.61(16)
Fe4 Fe4 B12 1_556 . . 48.39(15)
B1 Fe4 B3 . . . 123.3(4)
B1 Fe4 B5 . . 1_554 135.47(19)
B1 Fe4 B5 . . . 135.47(19)
B1 Fe4 B7 . . 1_554 88.6(3)
B1 Fe4 B7 . . . 88.6(3)
B1 Fe4 B9 . . . 174.3(4)
B1 Fe4 B12 . . 1_554 46.39(19)
B1 Fe4 B12 . . . 46.39(19)
B3 Fe4 B5 . . 1_554 81.6(3)
B3 Fe4 B5 . . . 81.6(3)
B3 Fe4 B7 . . 1_554 51.2(3)
B3 Fe4 B7 . . . 51.2(3)
B3 Fe4 B9 . . . 51.1(4)
B3 Fe4 B12 . . 1_554 97.9(3)
B3 Fe4 B12 . . . 97.9(3)
B5 Fe4 B5 1_554 . . 79.1(2)
B5 Fe4 B7 1_554 . 1_554 80.5(3)
B5 Fe4 B7 1_554 . . 130.7(3)
B5 Fe4 B9 1_554 . . 47.1(2)
B5 Fe4 B12 1_554 . 1_554 98.8(2)
B5 Fe4 B12 1_554 . . 177.9(2)
B5 Fe4 B7 . . 1_554 130.7(3)
B5 Fe4 B7 . . . 80.5(3)
B5 Fe4 B9 . . . 47.1(2)
B5 Fe4 B12 . . 1_554 177.9(2)
B5 Fe4 B12 . . . 98.8(2)
B7 Fe4 B7 1_554 . . 79.9(3)
B7 Fe4 B9 1_554 . . 87.1(3)
B7 Fe4 B12 1_554 . 1_554 48.3(3)
B7 Fe4 B12 1_554 . . 100.8(3)
B7 Fe4 B9 . . . 87.1(3)
B7 Fe4 B12 . . 1_554 100.8(3)
B7 Fe4 B12 . . . 48.3(3)
B9 Fe4 B12 . . 1_554 131.1(2)
B9 Fe4 B12 . . . 131.1(2)
B12 Fe4 B12 1_554 . . 83.2(2)
Fe1 B1 Fe1 3_545 . 3_546 79.0(3)
Fe1 B1 Fe3 3_545 . 1_554 100.14(5)
Fe1 B1 Fe3 3_545 . . 171.3(4)
Fe1 B1 Fe4 3_545 . . 119.9(3)
Fe1 B1 B2 3_545 . 3_545 108.8(4)
Fe1 B1 B4 3_545 . 3_545 63.8(3)
Fe1 B1 B12 3_545 . 1_554 61.3(3)
Fe1 B1 B12 3_545 . . 123.0(7)
Fe1 B1 Fe3 3_546 . 1_554 171.3(4)
Fe1 B1 Fe3 3_546 . . 100.14(5)
Fe1 B1 Fe4 3_546 . . 119.9(3)
Fe1 B1 B2 3_546 . 3_545 108.8(4)
Fe1 B1 B4 3_546 . 3_545 63.8(3)
Fe1 B1 B12 3_546 . 1_554 123.0(7)
Fe1 B1 B12 3_546 . . 61.3(3)
Fe3 B1 Fe3 1_554 . . 79.3(4)
Fe3 B1 Fe4 1_554 . . 68.1(2)
Fe3 B1 B2 1_554 . 3_545 63.1(4)
Fe3 B1 B4 1_554 . 3_545 107.9(4)
Fe3 B1 B12 1_554 . 1_554 62.8(4)
Fe3 B1 B12 1_554 . . 124.9(5)
Fe3 B1 Fe4 . . . 68.1(2)
Fe3 B1 B2 . . 3_545 63.1(4)
Fe3 B1 B4 . . 3_545 107.9(4)
Fe3 B1 B12 . . 1_554 124.9(5)
Fe3 B1 B12 . . . 62.8(4)
Fe4 B1 B2 . . 3_545 115.1(6)
Fe4 B1 B4 . . 3_545 174.6(7)
Fe4 B1 B12 . . 1_554 61.5(3)
Fe4 B1 B12 . . . 61.5(3)
B2 B1 B4 3_545 . 3_545 59.5(5)
B2 B1 B12 3_545 . 1_554 121.3(5)
B2 B1 B12 3_545 . . 121.3(5)
B4 B1 B12 3_545 . 1_554 120.6(4)
B4 B1 B12 3_545 . . 120.6(4)
B12 B1 B12 1_554 . . 107.4(5)
Fe3 B2 Fe3 3_555 . 3_556 85.1(3)
Fe3 B2 Fe3 3_555 . 4_455 74.07(19)
Fe3 B2 Fe3 3_555 . 4_456 129.5(5)
Fe3 B2 B1 3_555 . 3_555 70.8(3)
Fe3 B2 B2 3_555 . 2_565 65.0(3)
Fe3 B2 B4 3_555 . . 117.4(5)
Fe3 B2 B8 3_555 . . 135.1(3)
Fe3 B2 Fe3 3_556 . 4_455 129.5(5)
Fe3 B2 Fe3 3_556 . 4_456 74.07(19)
Fe3 B2 B1 3_556 . 3_555 70.8(3)
Fe3 B2 B2 3_556 . 2_565 65.0(3)
Fe3 B2 B4 3_556 . . 117.4(5)
Fe3 B2 B8 3_556 . . 135.1(3)
Fe3 B2 Fe3 4_455 . 4_456 84.7(4)
Fe3 B2 B1 4_455 . 3_555 137.16(18)
Fe3 B2 B2 4_455 . 2_565 64.6(4)
Fe3 B2 B4 4_455 . . 113.1(3)
Fe3 B2 B8 4_455 . . 64.7(4)
Fe3 B2 B1 4_456 . 3_555 137.16(18)
Fe3 B2 B2 4_456 . 2_565 64.6(4)
Fe3 B2 B4 4_456 . . 113.1(3)
Fe3 B2 B8 4_456 . . 64.7(4)
B1 B2 B2 3_555 . 2_565 118.4(6)
B1 B2 B4 3_555 . . 65.1(6)
B1 B2 B8 3_555 . . 132.4(8)
B2 B2 B4 2_565 . . 176.5(7)
B2 B2 B8 2_565 . . 109.1(8)
B4 B2 B8 . . . 67.4(6)
Fe1 B3 Fe1 1_554 . . 84.2(4)
Fe1 B3 Fe4 1_554 . . 136.58(17)
Fe1 B3 B6 1_554 . 3_555 66.4(4)
Fe1 B3 B7 1_554 . 1_554 68.2(4)
Fe1 B3 B7 1_554 . . 132.5(7)
Fe1 B3 B9 1_554 . . 111.8(3)
Fe1 B3 Fe4 . . . 136.58(17)
Fe1 B3 B6 . . 3_555 66.4(4)
Fe1 B3 B7 . . 1_554 132.5(7)
Fe1 B3 B7 . . . 68.2(4)
Fe1 B3 B9 . . . 111.8(3)
Fe4 B3 B6 . . 3_555 134.4(8)
Fe4 B3 B7 . . 1_554 71.3(4)
Fe4 B3 B7 . . . 71.3(4)
Fe4 B3 B9 . . . 71.8(5)
B6 B3 B7 3_555 . 1_554 127.5(3)
B6 B3 B7 3_555 . . 127.5(3)
B6 B3 B9 3_555 . . 62.6(6)
B7 B3 B7 1_554 . . 102.5(5)
B7 B3 B9 1_554 . . 114.2(6)
B7 B3 B9 . . . 114.2(6)
Fe1 B4 Fe1 1_554 . . 80.8(3)
Fe1 B4 Fe2 1_554 . . 122.1(3)
Fe1 B4 B1 1_554 . 3_555 66.1(3)
Fe1 B4 B2 1_554 . . 107.5(3)
Fe1 B4 B14 1_554 . 1_554 58.5(4)
Fe1 B4 B14 1_554 . . 120.0(7)
Fe1 B4 Fe2 . . . 122.1(3)
Fe1 B4 B1 . . 3_555 66.1(3)
Fe1 B4 B2 . . . 107.5(3)
Fe1 B4 B14 . . 1_554 120.0(7)
Fe1 B4 B14 . . . 58.5(4)
Fe2 B4 B1 . . 3_555 167.8(7)
Fe2 B4 B2 . . . 112.4(6)
Fe2 B4 B14 . . 1_554 64.5(3)
Fe2 B4 B14 . . . 64.5(3)
B1 B4 B2 3_555 . . 55.4(5)
B1 B4 B14 3_555 . 1_554 120.9(4)
B1 B4 B14 3_555 . . 120.9(4)
B2 B4 B14 . . 1_554 124.8(5)
B2 B4 B14 . . . 124.8(5)
B14 B4 B14 1_554 . . 104.1(6)
Fe4 B5 Fe4 . . 1_556 79.1(3)
Fe4 B5 B9 . . . 66.4(3)
Fe4 B5 B9 . . 1_556 127.9(7)
Fe4 B5 B10 . . 3_556 131.7(4)
Fe4 B5 B10 . . 4_556 122.1(4)
Fe4 B5 B11 . . 4_556 79.4(3)
Fe4 B5 B9 1_556 . . 127.9(7)
Fe4 B5 B9 1_556 . 1_556 66.4(3)
Fe4 B5 B10 1_556 . 3_556 131.7(4)
Fe4 B5 B10 1_556 . 4_556 122.1(4)
Fe4 B5 B11 1_556 . 4_556 79.4(3)
B9 B5 B9 . . 1_556 105.6(6)
B9 B5 B10 . . 3_556 65.4(4)
B9 B5 B10 . . 4_556 109.3(5)
B9 B5 B11 . . 4_556 127.2(3)
B9 B5 B10 1_556 . 3_556 65.4(4)
B9 B5 B10 1_556 . 4_556 109.3(5)
B9 B5 B11 1_556 . 4_556 127.2(3)
B10 B5 B10 3_556 . 4_556 76.7(6)
B10 B5 B11 3_556 . 4_556 134.1(9)
B10 B5 B11 4_556 . 4_556 57.4(5)
Fe1 B6 Fe1 3_545 . 3_546 85.6(4)
Fe1 B6 Fe2 3_545 . . 135.23(19)
Fe1 B6 B3 3_545 . 3_545 68.2(4)
Fe1 B6 B9 3_545 . 3_545 114.2(4)
Fe1 B6 B13 3_545 . 1_554 65.9(4)
Fe1 B6 B13 3_545 . . 131.5(7)
Fe1 B6 Fe2 3_546 . . 135.23(19)
Fe1 B6 B3 3_546 . 3_545 68.2(4)
Fe1 B6 B9 3_546 . 3_545 114.2(4)
Fe1 B6 B13 3_546 . 1_554 131.5(7)
Fe1 B6 B13 3_546 . . 65.9(4)
Fe2 B6 B3 . . 3_545 135.0(8)
Fe2 B6 B9 . . 3_545 70.7(5)
Fe2 B6 B13 . . 1_554 71.5(4)
Fe2 B6 B13 . . . 71.5(4)
B3 B6 B9 3_545 . 3_545 64.3(6)
B3 B6 B13 3_545 . 1_554 126.7(3)
B3 B6 B13 3_545 . . 126.7(3)
B9 B6 B13 3_545 . 1_554 113.2(6)
B9 B6 B13 3_545 . . 113.2(6)
B13 B6 B13 1_554 . . 104.0(5)
Fe1 B7 Fe4 . . . 117.9(3)
Fe1 B7 Fe4 . . 1_556 117.9(3)
Fe1 B7 B3 . . . 62.3(4)
Fe1 B7 B3 . . 1_556 62.3(4)
Fe1 B7 B12 . . . 177.7(7)
Fe1 B7 B14 . . . 57.7(4)
Fe4 B7 Fe4 . . 1_556 79.9(4)
Fe4 B7 B3 . . . 57.6(4)
Fe4 B7 B3 . . 1_556 117.7(7)
Fe4 B7 B12 . . . 63.7(4)
Fe4 B7 B14 . . . 139.8(2)
Fe4 B7 B3 1_556 . . 117.7(7)
Fe4 B7 B3 1_556 . 1_556 57.6(4)
Fe4 B7 B12 1_556 . . 63.7(4)
Fe4 B7 B14 1_556 . . 139.8(2)
B3 B7 B3 . . 1_556 102.5(5)
B3 B7 B12 . . . 118.8(5)
B3 B7 B14 . . . 96.0(6)
B3 B7 B12 1_556 . . 118.8(5)
B3 B7 B14 1_556 . . 96.0(6)
B12 B7 B14 . . . 120.0(7)
Fe2 B8 Fe3 . . 4_455 136.34(18)
Fe2 B8 Fe3 . . 4_456 136.34(18)
Fe2 B8 B2 . . . 124.2(8)
Fe2 B8 B11 . . 1_554 74.6(4)
Fe2 B8 B11 . . . 74.6(4)
Fe3 B8 Fe3 4_455 . 4_456 87.2(4)
Fe3 B8 B2 4_455 . . 67.7(4)
Fe3 B8 B11 4_455 . 1_554 67.5(3)
Fe3 B8 B11 4_455 . . 137.1(7)
Fe3 B8 B2 4_456 . . 67.7(4)
Fe3 B8 B11 4_456 . 1_554 137.1(7)
Fe3 B8 B11 4_456 . . 67.5(3)
B2 B8 B11 . . 1_554 125.6(3)
B2 B8 B11 . . . 125.6(3)
B11 B8 B11 1_554 . . 108.0(5)
Fe2 B9 Fe4 3_555 . . 168.2(6)
Fe2 B9 B3 3_555 . . 111.0(6)
Fe2 B9 B5 3_555 . 1_554 118.9(3)
Fe2 B9 B5 3_555 . . 118.9(3)
Fe2 B9 B6 3_555 . 3_555 57.9(4)
Fe2 B9 B10 3_555 . 3_555 66.0(3)
Fe2 B9 B10 3_555 . 3_556 66.0(3)
Fe4 B9 B3 . . . 57.2(3)
Fe4 B9 B5 . . 1_554 66.5(3)
Fe4 B9 B5 . . . 66.5(3)
Fe4 B9 B6 . . 3_555 110.3(6)
Fe4 B9 B10 . . 3_555 120.0(3)
Fe4 B9 B10 . . 3_556 120.0(3)
B3 B9 B5 . . 1_554 99.5(5)
B3 B9 B5 . . . 99.5(5)
B3 B9 B6 . . 3_555 53.1(5)
B3 B9 B10 . . 3_555 127.5(4)
B3 B9 B10 . . 3_556 127.5(4)
B5 B9 B5 1_554 . . 105.6(6)
B5 B9 B6 1_554 . 3_555 124.3(5)
B5 B9 B10 1_554 . 3_555 53.5(4)
B5 B9 B10 1_554 . 3_556 128.9(8)
B5 B9 B6 . . 3_555 124.3(5)
B5 B9 B10 . . 3_555 128.9(8)
B5 B9 B10 . . 3_556 53.5(4)
B6 B9 B10 3_555 . 3_555 101.8(5)
B6 B9 B10 3_555 . 3_556 101.8(5)
B10 B9 B10 3_555 . 3_556 100.2(5)
Fe2 B10 Fe2 . . 1_556 80.0(3)
Fe2 B10 B5 . . 3_546 124.5(5)
Fe2 B10 B5 . . 4_456 111.9(4)
Fe2 B10 B9 . . 3_545 64.1(3)
Fe2 B10 B9 . . 3_546 123.3(7)
Fe2 B10 B11 . . . 69.1(3)
Fe2 B10 B5 1_556 . 3_546 124.5(5)
Fe2 B10 B5 1_556 . 4_456 111.9(4)
Fe2 B10 B9 1_556 . 3_545 123.3(7)
Fe2 B10 B9 1_556 . 3_546 64.1(3)
Fe2 B10 B11 1_556 . . 69.1(3)
B5 B10 B5 3_546 . 4_456 103.3(7)
B5 B10 B9 3_546 . 3_545 61.1(4)
B5 B10 B9 3_546 . 3_546 61.1(4)
B5 B10 B11 3_546 . . 160.2(9)
B5 B10 B9 4_456 . 3_545 121.4(5)
B5 B10 B9 4_456 . 3_546 121.4(5)
B5 B10 B11 4_456 . . 56.9(5)
B9 B10 B9 3_545 . 3_546 100.2(5)
B9 B10 B11 3_545 . . 126.7(3)
B9 B10 B11 3_546 . . 126.7(3)
Fe2 B11 Fe2 . . 1_556 77.5(4)
Fe2 B11 Fe3 . . 4_456 116.6(3)
Fe2 B11 B5 . . 4_456 115.5(4)
Fe2 B11 B8 . . . 57.1(4)
Fe2 B11 B8 . . 1_556 118.1(6)
Fe2 B11 B10 . . . 65.5(4)
Fe2 B11 Fe3 1_556 . 4_456 116.6(3)
Fe2 B11 B5 1_556 . 4_456 115.5(4)
Fe2 B11 B8 1_556 . . 118.1(6)
Fe2 B11 B8 1_556 . 1_556 57.1(4)
Fe2 B11 B10 1_556 . . 65.5(4)
Fe3 B11 B5 4_456 . 4_456 111.4(6)
Fe3 B11 B8 4_456 . . 63.1(4)
Fe3 B11 B8 4_456 . 1_556 63.1(4)
Fe3 B11 B10 4_456 . . 177.1(7)
B5 B11 B8 4_456 . . 120.9(5)
B5 B11 B8 4_456 . 1_556 120.9(5)
B5 B11 B10 4_456 . . 65.7(6)
B8 B11 B8 . . 1_556 108.0(5)
B8 B11 B10 . . . 118.1(5)
B8 B11 B10 1_556 . . 118.1(5)
Fe1 B12 Fe3 3_546 . . 109.3(4)
Fe1 B12 Fe4 3_546 . . 138.30(14)
Fe1 B12 Fe4 3_546 . 1_556 138.30(14)
Fe1 B12 B1 3_546 . . 70.6(4)
Fe1 B12 B1 3_546 . 1_556 70.6(4)
Fe1 B12 B7 3_546 . . 123.1(7)
Fe3 B12 Fe4 . . . 73.5(3)
Fe3 B12 Fe4 . . 1_556 73.5(3)
Fe3 B12 B1 . . . 69.3(5)
Fe3 B12 B1 . . 1_556 69.3(5)
Fe3 B12 B7 . . . 127.6(6)
Fe4 B12 Fe4 . . 1_556 83.2(3)
Fe4 B12 B1 . . . 72.2(3)
Fe4 B12 B1 . . 1_556 139.8(7)
Fe4 B12 B7 . . . 68.0(3)
Fe4 B12 B1 1_556 . . 139.8(7)
Fe4 B12 B1 1_556 . 1_556 72.2(3)
Fe4 B12 B7 1_556 . . 68.0(3)
B1 B12 B1 . . 1_556 107.4(5)
B1 B12 B7 . . . 126.3(3)
B1 B12 B7 1_556 . . 126.3(3)
Fe1 B13 Fe2 3_546 . . 119.5(3)
Fe1 B13 Fe2 3_546 . 1_556 119.5(3)
Fe1 B13 B6 3_546 . . 63.6(4)
Fe1 B13 B6 3_546 . 1_556 63.6(4)
Fe1 B13 B14 3_546 . . 175.0(8)
Fe2 B13 Fe2 . . 1_556 80.5(4)
Fe2 B13 B6 . . . 57.4(4)
Fe2 B13 B6 . . 1_556 118.7(7)
Fe2 B13 B14 . . . 63.9(4)
Fe2 B13 B6 1_556 . . 118.7(7)
Fe2 B13 B6 1_556 . 1_556 57.4(4)
Fe2 B13 B14 1_556 . . 63.9(4)
B6 B13 B6 . . 1_556 104.0(5)
B6 B13 B14 . . . 118.7(5)
B6 B13 B14 1_556 . . 118.7(5)
Fe1 B14 Fe2 . . . 134.3(2)
Fe1 B14 Fe2 . . 1_556 134.3(2)
Fe1 B14 B4 . . . 70.6(4)
Fe1 B14 B4 . . 1_556 70.6(4)
Fe1 B14 B7 . . . 71.7(5)
Fe1 B14 B13 . . . 137.1(8)
Fe2 B14 Fe2 . . 1_556 84.9(4)
Fe2 B14 B4 . . . 64.9(3)
Fe2 B14 B4 . . 1_556 129.7(7)
Fe2 B14 B7 . . . 116.5(4)
Fe2 B14 B13 . . . 69.7(4)
Fe2 B14 B4 1_556 . . 129.7(7)
Fe2 B14 B4 1_556 . 1_556 64.9(3)
Fe2 B14 B7 1_556 . . 116.5(4)
Fe2 B14 B13 1_556 . . 69.7(4)
B4 B14 B4 . . 1_556 104.1(6)
B4 B14 B7 . . . 112.8(5)
B4 B14 B13 . . . 126.6(3)
B4 B14 B7 1_556 . . 112.8(5)
B4 B14 B13 1_556 . . 126.6(3)
B7 B14 B13 . . . 65.4(6)
loop_
_geom_bond_atom_site_label_1
_geom_bond_atom_site_label_2
_geom_bond_site_symmetry_1
_geom_bond_site_symmetry_2
_geom_bond_distance
Fe1 Fe1 . 1_554 2.7948(2)
Fe1 Fe1 . 1_556 2.7948(2)
Fe1 B1 . 3_555 2.196(8)
Fe1 B1 . 3_556 2.196(8)
Fe1 B3 . . 2.084(8)
Fe1 B3 . 1_556 2.084(8)
Fe1 B4 . . 2.155(7)
Fe1 B4 . 1_556 2.155(7)
Fe1 B6 . 3_555 2.057(8)
Fe1 B6 . 3_556 2.057(8)
Fe1 B7 . . 2.187(9)
Fe1 B12 . 3_556 2.042(8)
Fe1 B13 . 3_556 2.096(9)
Fe1 B14 . . 1.948(9)
Fe2 Fe2 . 1_554 2.7948(2)
Fe2 Fe2 . 1_556 2.7948(2)
Fe2 B4 . . 2.077(7)
Fe2 B6 . . 1.920(10)
Fe2 B8 . . 1.944(10)
Fe2 B9 . 3_545 2.140(7)
Fe2 B10 . 1_554 2.174(7)
Fe2 B10 . . 2.174(7)
Fe2 B11 . 1_554 2.232(9)
Fe2 B11 . . 2.232(9)
Fe2 B13 . 1_554 2.162(9)
Fe2 B13 . . 2.162(9)
Fe2 B14 . 1_554 2.071(7)
Fe2 B14 . . 2.071(7)
Fe3 Fe3 . 1_554 2.7948(2)
Fe3 Fe3 . 1_556 2.7948(2)
Fe3 Fe3 . 2_655 2.4945(15)
Fe3 Fe4 . . 2.5041(13)
Fe3 Fe4 . 1_556 2.5041(13)
Fe3 B1 . . 2.189(8)
Fe3 B1 . 1_556 2.189(8)
Fe3 B2 . 3_545 2.067(6)
Fe3 B2 . 3_546 2.067(6)
Fe3 B2 . 4_555 2.074(8)
Fe3 B2 . 4_556 2.074(8)
Fe3 B8 . 4_555 2.027(7)
Fe3 B8 . 4_556 2.027(7)
Fe3 B11 . 4_556 2.099(8)
Fe3 B12 . . 2.081(11)
Fe4 Fe4 . 1_554 2.7948(2)
Fe4 Fe4 . 1_556 2.7948(2)
Fe4 B1 . . 2.280(7)
Fe4 B3 . . 1.940(10)
Fe4 B5 . 1_554 2.195(7)
Fe4 B5 . . 2.195(7)
Fe4 B7 . 1_554 2.177(9)
Fe4 B7 . . 2.177(9)
Fe4 B9 . . 2.194(7)
Fe4 B12 . 1_554 2.104(6)
Fe4 B12 . . 2.104(6)
B1 B2 . 3_545 1.670(14)
B1 B4 . 3_545 1.840(10)
B1 B12 . 1_554 1.734(7)
B1 B12 . . 1.734(7)
B2 B2 . 2_565 1.766(15)
B2 B4 . . 1.749(14)
B2 B8 . . 1.656(10)
B3 B6 . 3_555 1.596(11)
B3 B7 . 1_554 1.791(7)
B3 B7 . . 1.791(7)
B3 B9 . . 1.796(15)
B4 B14 . 1_554 1.773(8)
B4 B14 . . 1.773(8)
B5 B9 . . 1.754(8)
B5 B9 . 1_556 1.754(8)
B5 B10 . 3_556 1.611(10)
B5 B10 . 4_556 1.843(16)
B5 B11 . 4_556 1.693(13)
B6 B9 . 3_545 1.771(16)
B6 B13 . 1_554 1.773(7)
B6 B13 . . 1.773(7)
B7 B12 . . 1.754(12)
B7 B14 . . 1.779(17)
B8 B11 . 1_554 1.727(6)
B8 B11 . . 1.727(6)
B9 B10 . 3_555 1.821(8)
B9 B10 . 3_556 1.821(8)
B10 B11 . . 1.703(11)
B13 B14 . . 1.670(12)
loop_
_refln_index_h
_refln_index_k
_refln_index_l
_refln_F_squared_calc
_refln_F_squared_meas
_refln_F_squared_sigma
_refln_observed_status
0 0 1 0.59 -0.09 2.12 <
0 0 2 102893.00 102580.00 1241.33 o
0 0 3 9.42 -0.08 15.32 <
0 2 1 27849.40 27259.20 206.87 o
0 2 2 402.24 372.26 29.74 o
0 2 3 6034.01 5780.74 167.88 o
0 4 0 1242.07 1208.51 41.93 o
0 4 1 5494.55 5652.41 124.21 o
0 4 2 462.27 455.65 34.17 o
0 4 3 1653.76 1105.02 74.53 o
0 6 0 417.57 404.60 25.98 o
0 6 1 921.48 964.75 50.59 o
0 6 2 225.61 179.33 25.87 o
0 8 0 27.54 30.73 6.54 o
0 8 1 1195.92 1380.97 67.71 o
0 8 2 14.03 12.42 14.18 <
0 10 0 43.74 39.85 5.40 o
0 10 1 1446.43 1585.66 83.42 o
0 10 2 31.57 9.73 5.59 <
0 12 0 1491.01 1661.29 74.68 o
0 12 1 3055.56 3375.59 132.13 o
0 12 2 1036.58 1015.96 70.73 o
0 14 0 7809.77 6473.72 260.86 o
0 14 1 48.00 37.26 16.00 o
0 14 2 5522.88 5557.19 493.19 o
1 1 1 6342.15 6453.00 61.60 o
1 1 2 742.77 732.55 25.11 o
1 1 3 1403.65 1383.67 58.00 o
1 2 1 604.72 532.97 17.30 o
1 2 2 121.27 99.76 10.66 o
1 2 3 98.02 68.49 11.09 o
1 3 1 6380.97 6502.39 67.00 o
1 3 2 938.82 907.73 32.91 o
1 3 3 1525.65 1458.90 67.56 o
1 4 0 4382.61 4445.28 143.68 o
1 4 1 197.78 176.23 12.75 o
1 4 2 1797.70 1663.23 52.74 o
1 4 3 35.55 -1.29 10.84 <
1 5 0 16015.80 16592.50 146.22 o
1 5 1 12.21 4.29 2.85 <
1 5 2 7142.28 6909.19 109.25 o
1 5 3 1.02 2.64 11.37 <
1 6 0 6812.96 6804.54 102.40 o
1 6 1 9127.46 8739.29 99.07 o
1 6 2 3040.67 2904.11 74.86 o
1 6 3 2931.64 2964.52 190.92 o
1 7 0 1447.48 1331.56 42.29 o
1 7 1 59.73 54.41 7.43 o
1 7 2 781.08 672.43 35.89 o
1 7 3 2.73 13.00 22.74 <
1 8 0 31.31 19.73 4.89 o
1 8 1 6899.04 6837.43 109.54 o
1 8 2 55.88 50.52 11.42 o
1 8 3 2232.45 2246.62 161.42 o
1 9 0 1047.19 1109.12 37.68 o
1 9 1 2058.56 1949.27 60.78 o
1 9 2 559.51 511.83 32.23 o
1 9 3 861.19 890.02 94.52 o
1 10 0 10024.50 10856.50 136.55 o
1 10 1 621.94 634.09 35.53 o
1 10 2 5979.03 5928.32 111.73 o
1 10 3 364.12 361.77 105.70 o
1 11 0 68.08 62.00 9.86 o
1 11 1 356.99 446.36 33.11 o
1 11 2 42.08 13.69 10.38 <
1 12 0 24.16 56.45 14.31 o
1 12 1 2556.05 2932.73 89.96 o
1 12 2 14.83 14.18 10.71 <
1 13 0 2636.89 2896.12 104.96 o
1 13 1 26.50 2.59 10.06 <
1 13 2 1854.79 1742.91 157.61 o
1 14 0 913.18 979.01 60.48 o
1 14 1 177.07 179.08 24.96 o
1 14 2 656.88 465.24 90.70 o
1 15 1 3651.75 3527.69 300.84 o
1 15 2 53.37 31.73 41.25 <
2 0 1 694.53 752.84 28.04 o
2 0 2 159.35 143.78 15.41 o
2 0 3 83.89 52.48 14.59 o
2 1 0 320.85 350.40 18.18 o
2 1 1 238.26 257.40 13.46 o
2 1 2 161.67 157.25 12.47 o
2 1 3 54.86 18.66 7.47 o
2 2 0 4103.17 4414.07 75.30 o
2 2 1 98.79 64.24 7.09 o
2 2 2 1542.42 1487.04 40.24 o
2 2 3 8.56 18.78 8.52 o
2 3 0 914.30 858.39 60.21 o
2 3 1 4706.36 4920.13 55.28 o
2 3 2 413.33 406.58 22.79 o
2 3 3 1225.90 1144.23 57.98 o
2 4 1 13949.80 14071.30 106.22 o
2 4 2 2771.60 2878.25 61.61 o
2 4 3 3582.53 3432.96 116.04 o
2 5 1 18628.90 18560.90 150.89 o
2 5 2 2906.23 2723.40 66.38 o
2 5 3 5576.83 5520.60 253.13 o
2 6 0 5177.05 4881.87 128.16 o
2 6 1 4799.03 4545.28 71.06 o
2 6 2 2434.12 2432.05 63.44 o
2 6 3 1634.85 1736.45 136.08 o
2 7 0 24764.70 25815.60 291.19 o
2 7 1 1642.24 1649.36 43.26 o
2 7 2 12397.90 12255.30 157.49 o
2 7 3 503.11 558.96 77.40 o
2 8 0 379.63 404.50 46.21 o
2 8 1 557.59 622.59 33.27 o
2 8 2 160.73 138.71 16.24 o
2 8 3 195.80 202.26 44.88 o
2 9 0 1553.50 1571.91 85.39 o
2 9 1 5224.32 5296.17 102.49 o
2 9 2 937.23 912.68 43.48 o
2 9 3 2015.15 2185.65 141.81 o
2 10 0 3660.30 3533.60 120.79 o
2 10 1 3455.57 3430.07 87.39 o
2 10 2 2230.21 2133.33 69.13 o
2 10 3 1502.98 1555.60 196.73 o
2 11 0 18.38 3.85 7.33 <
2 11 1 162.90 135.80 16.49 o
2 11 2 9.75 10.89 10.73 <
2 12 0 927.76 922.75 62.20 o
2 12 1 559.85 540.33 41.21 o
2 12 2 576.24 522.99 36.97 o
2 13 0 29.67 11.93 8.49 <
2 13 1 528.66 681.44 55.59 o
2 13 2 16.87 20.50 25.41 <
2 14 0 28.96 67.12 16.62 o
2 14 1 18.91 32.93 8.05 o
2 14 2 27.99 14.27 24.28 <
2 15 1 906.97 1136.04 174.33 o
3 1 0 1369.87 1443.12 42.72 o
3 1 1 2099.68 2420.19 42.77 o
3 1 2 538.60 539.99 23.85 o
3 1 3 424.80 383.56 26.02 o
3 2 0 10828.90 10957.40 134.54 o
3 2 1 2112.18 2159.64 40.98 o
3 2 2 4228.57 4250.42 77.91 o
3 2 3 501.25 417.52 41.00 o
3 3 0 12067.00 12074.10 154.73 o
3 3 1 92.65 101.65 8.57 o
3 3 2 4868.48 4941.19 85.51 o
3 3 3 38.83 10.74 8.53 <
3 4 0 1118.01 1043.36 76.48 o
3 4 1 7711.09 7861.78 75.93 o
3 4 2 456.06 445.95 25.09 o
3 4 3 1911.06 1928.04 79.36 o
3 5 0 161.86 143.16 13.51 o
3 5 1 15595.00 15414.80 128.83 o
3 5 2 64.50 51.61 8.19 o
3 5 3 4628.79 4824.90 224.37 o
3 6 0 309.29 320.22 20.82 o
3 6 1 4048.04 3853.62 77.06 o
3 6 2 121.22 97.87 15.90 o
3 6 3 1394.09 1530.44 121.54 o
3 7 0 470.22 403.18 24.92 o
3 7 1 649.17 585.55 32.20 o
3 7 2 233.00 220.52 23.78 o
3 7 3 271.25 223.91 43.43 o
3 8 0 2870.84 2805.22 94.52 o
3 8 1 561.77 601.84 39.37 o
3 8 2 1361.30 1272.07 54.61 o
3 8 3 239.12 273.16 45.95 o
3 9 0 1110.78 1042.49 88.71 o
3 9 1 1575.72 1621.69 72.49 o
3 9 2 622.32 629.18 45.57 o
3 9 3 598.62 653.43 71.35 o
3 10 0 833.96 843.51 75.91 o
3 10 1 12374.20 12737.70 181.95 o
3 10 2 573.78 607.14 43.45 o
3 10 3 5395.14 4914.32 330.34 o
3 11 0 2011.47 1993.70 107.27 o
3 11 1 407.55 366.08 33.68 o
3 11 2 1308.87 1239.55 66.73 o
3 12 0 6295.05 6669.39 180.72 o
3 12 1 59.55 40.63 10.96 o
3 12 2 4091.60 4436.69 182.99 o
3 13 0 3.75 11.64 7.57 <
3 13 1 2.36 3.55 7.38 <
3 14 0 579.75 604.91 50.60 o
3 14 1 618.46 640.48 52.51 o
3 14 2 435.56 438.90 104.33 o
3 15 1 284.91 182.68 70.02 o
4 0 1 79625.50 79197.10 433.72 o
4 0 2 781.75 666.35 36.99 o
4 0 3 18592.80 18142.50 295.79 o
4 1 0 4129.20 4009.89 80.79 o
4 1 1 1202.71 1255.77 32.21 o
4 1 2 1665.68 1719.84 48.72 o
4 1 3 263.20 211.99 18.82 o
4 2 1 2292.96 2303.41 40.34 o
4 2 2 11926.70 12236.30 146.32 o
4 2 3 627.95 555.52 38.82 o
4 3 0 4183.49 4544.75 101.10 o
4 3 1 10537.00 10903.20 102.88 o
4 3 2 1631.47 1580.40 48.00 o
4 3 3 2675.59 2713.20 86.30 o
4 4 0 1884.20 2092.37 74.78 o
4 4 1 1764.63 1684.82 40.18 o
4 4 2 875.18 986.69 38.58 o
4 4 3 467.92 394.66 40.11 o
4 5 0 2664.07 2668.38 136.74 o
4 5 1 32.95 31.49 5.04 o
4 5 2 1147.64 1134.79 41.48 o
4 5 3 26.91 15.01 9.48 <
4 6 0 462.09 463.52 30.41 o
4 6 1 16.71 10.93 5.93 <
4 6 2 236.19 210.14 17.64 o
4 6 3 13.65 5.73 11.22 <
4 7 0 970.84 867.17 38.38 o
4 7 1 22.84 14.04 7.01 o
4 7 2 569.22 555.16 35.78 o
4 7 3 0.16 -10.35 11.63 <
4 8 0 296.15 286.93 20.79 o
4 8 1 20.71 25.82 19.68 <
4 8 2 128.68 123.35 20.57 o
4 8 3 12.28 11.48 10.80 <
4 9 0 1323.92 1182.86 56.61 o
4 9 1 42.77 16.09 17.40 <
4 9 2 739.49 756.97 47.90 o
4 9 3 43.86 40.05 20.92 <
4 10 1 11.01 2.54 5.76 <
4 10 2 673.28 622.56 43.52 o
4 10 3 2.49 -10.14 30.06 <
4 11 1 3034.70 3214.67 103.84 o
4 11 2 964.92 990.59 61.16 o
4 12 0 3163.79 3302.62 158.74 o
4 12 1 0.24 5.66 6.29 <
4 12 2 2068.66 2312.81 115.57 o
4 13 0 1412.03 1321.52 87.43 o
4 13 1 1519.52 1567.33 79.94 o
4 13 2 1008.77 1101.58 144.18 o
4 14 0 9.41 1.32 5.76 <
4 14 1 3972.57 4352.06 142.66 o
4 14 2 4.36 -45.26 65.06 <
4 15 1 166.51 130.02 60.33 o
5 1 0 13263.60 12471.50 165.90 o
5 1 1 3445.06 3526.86 63.53 o
5 1 2 5255.51 5101.22 89.55 o
5 1 3 770.18 701.77 39.72 o
5 2 0 83.33 61.19 12.42 o
5 2 1 5811.44 6065.68 77.29 o
5 2 2 51.33 48.94 9.52 o
5 2 3 1506.37 1520.03 55.32 o
5 3 0 1095.84 1171.48 55.51 o
5 3 1 12216.00 12434.60 115.32 o
5 3 2 525.79 575.45 29.76 o
5 3 3 3112.19 3189.05 92.65 o
5 4 0 555.43 542.61 39.68 o
5 4 1 843.03 839.81 33.62 o
5 4 2 271.01 260.51 18.03 o
5 4 3 186.02 147.97 26.80 o
5 5 0 6490.95 6731.70 155.28 o
5 5 1 8304.27 8364.77 147.19 o
5 5 2 2971.92 3093.40 69.34 o
5 5 3 2960.69 2918.61 125.31 o
5 6 0 8154.84 8379.20 268.05 o
5 6 1 683.35 705.35 38.87 o
5 6 2 3984.51 4044.17 86.96 o
5 6 3 84.21 40.34 13.83 o
5 7 0 635.93 630.24 38.96 o
5 7 1 1219.88 1212.07 46.96 o
5 7 2 310.96 308.21 25.66 o
5 7 3 447.55 465.65 62.26 o
5 8 0 9591.74 8594.48 145.49 o
5 8 1 1044.97 982.20 69.39 o
5 8 2 5264.90 5391.37 141.47 o
5 8 3 342.65 406.19 57.30 o
5 9 0 169.88 154.59 15.32 o
5 9 1 16.07 37.58 16.54 o
5 9 2 102.41 82.72 17.02 o
5 9 3 8.88 -2.36 10.57 <
5 10 0 767.95 678.50 41.28 o
5 10 1 2387.80 2280.21 88.87 o
5 10 2 508.84 519.73 42.56 o
5 10 3 1052.83 1025.50 179.08 o
5 11 1 74.69 51.82 15.74 o
5 11 2 0.93 7.80 12.73 <
5 12 1 1304.77 1490.60 72.25 o
5 12 2 193.81 150.76 31.50 o
5 13 1 3289.76 3532.40 120.64 o
5 13 2 91.27 63.22 41.03 <
5 14 1 430.53 398.51 40.48 o
5 14 2 19.20 -15.20 26.02 <
5 15 1 1.74 -12.74 19.46 <
6 0 1 1302.96 1347.24 76.61 o
6 0 2 1154.73 1099.31 63.13 o
6 0 3 399.68 358.49 40.15 o
6 1 0 489.05 419.40 35.09 o
6 1 1 600.31 625.11 35.65 o
6 1 2 238.32 241.91 20.13 o
6 1 3 175.89 127.48 17.16 o
6 2 0 56.04 104.60 17.34 o
6 2 1 5972.75 6022.75 117.32 o
6 2 2 6.99 1.03 6.77 <
6 2 3 1576.44 1568.21 61.02 o
6 3 0 3873.92 4037.36 110.31 o
6 3 1 180.49 138.94 15.02 o
6 3 2 1808.67 2122.36 64.35 o
6 3 3 35.17 33.85 11.55 o
6 4 0 5559.01 5967.35 139.98 o
6 4 1 97.60 111.03 11.50 o
6 4 2 2531.28 2667.63 65.51 o
6 4 3 57.20 24.63 17.61 <
6 5 0 30669.60 32431.50 356.08 o
6 5 1 2922.04 2824.37 78.25 o
6 5 2 14766.70 15910.90 170.97 o
6 5 3 1237.39 1283.67 86.42 o
6 6 0 0.22 13.51 12.26 <
6 6 1 488.13 582.88 42.94 o
6 6 2 0.58 25.41 11.23 o
6 6 3 128.24 98.25 23.87 o
6 7 0 3205.60 2891.52 173.69 o
6 7 1 22259.40 23257.10 228.68 o
6 7 2 1942.56 1972.14 65.15 o
6 7 3 7376.10 8841.30 227.96 o
6 8 0 3.70 13.74 10.66 <
6 8 1 375.26 359.62 27.65 o
6 8 2 1.60 7.77 9.79 <
6 8 3 158.85 125.31 44.60 o
6 9 0 13200.70 11966.10 186.22 o
6 9 1 16.23 7.21 5.50 <
6 9 2 7774.84 8368.62 215.07 o
6 9 3 1.82 -0.47 9.73 <
6 10 0 1070.95 860.13 38.18 o
6 10 1 101.16 83.31 16.39 o
6 10 2 669.42 478.77 61.09 o
6 10 3 40.47 -50.90 48.31 <
6 11 1 34.13 31.13 13.07 o
6 11 2 196.64 194.57 35.70 o
6 12 1 174.88 140.26 21.36 o
6 12 2 116.50 62.59 31.73 <
6 13 1 14.71 7.39 8.53 <
6 13 2 1461.71 1714.54 264.09 o
6 14 1 76.04 23.90 23.58 <
6 14 2 306.19 165.85 70.58 o
6 15 1 40.65 24.82 25.65 <
7 1 0 1679.42 1162.99 63.08 o
7 1 1 2182.75 1927.96 79.03 o
7 1 2 724.82 784.29 38.90 o
7 1 3 515.55 517.36 39.72 o
7 2 0 1426.98 1273.23 63.85 o
7 2 1 12136.90 11278.00 241.81 o
7 2 2 651.97 646.64 33.12 o
7 2 3 3524.47 3588.91 115.68 o
7 3 0 761.96 836.88 54.44 o
7 3 1 9079.71 9370.43 123.12 o
7 3 2 303.98 282.87 23.85 o
7 3 3 2495.63 2625.77 134.11 o
7 4 0 6502.37 7054.35 162.22 o
7 4 1 244.21 283.48 23.17 o
7 4 2 3003.91 3268.76 85.04 o
7 4 3 64.58 49.61 19.33 o
7 5 0 6553.95 6801.72 168.27 o
7 5 1 0.27 2.22 10.50 <
7 5 2 3289.87 3431.71 81.56 o
7 5 3 1.05 -7.48 19.33 <
7 6 0 309.44 356.84 41.18 o
7 6 1 1126.42 1209.95 52.61 o
7 6 2 170.06 197.93 22.08 o
7 6 3 405.91 480.70 50.35 o
7 7 0 2.73 -10.07 22.10 <
7 7 1 47.92 54.76 11.32 o
7 7 2 3.57 10.77 13.87 <
7 7 3 13.19 -4.00 17.01 <
7 8 0 3899.23 4288.18 234.48 o
7 8 1 624.02 642.45 41.94 o
7 8 2 2174.49 2291.45 78.11 o
7 8 3 223.64 267.17 35.31 o
7 9 0 745.09 784.03 74.49 o
7 9 1 27.87 15.70 12.17 <
7 9 2 429.72 449.74 64.60 o
7 9 3 19.45 -11.04 33.72 <
7 10 0 8932.70 7754.81 148.50 o
7 10 1 1736.22 1835.42 92.14 o
7 10 2 5693.17 6217.05 284.99 o
7 10 3 837.09 910.79 192.30 o
7 11 0 55.23 8.95 9.42 <
7 11 1 1418.61 1436.05 77.61 o
7 12 1 6566.48 6747.18 168.00 o
7 13 1 1305.59 1169.87 69.41 o
7 13 2 454.80 341.28 120.18 o
7 14 1 1131.46 1340.48 208.18 o
7 15 1 294.60 233.82 80.17 o
8 0 2 3632.02 3629.03 132.45 o
8 0 3 5360.26 5592.28 282.28 o
8 1 0 12.27 8.56 13.77 <
8 1 1 8575.07 7721.49 184.85 o
8 1 2 3.66 27.72 11.35 o
8 1 3 2568.33 2641.29 134.83 o
8 2 0 9186.58 9090.88 179.16 o
8 2 1 7107.51 6927.01 134.12 o
8 2 2 4205.50 4316.39 94.54 o
8 2 3 1976.14 2138.30 128.89 o
8 3 0 23518.10 24744.30 306.09 o
8 3 1 5135.91 5211.80 100.36 o
8 3 2 10913.10 11440.80 154.29 o
8 3 3 1651.01 1774.21 117.67 o
8 4 0 2348.46 2358.96 98.98 o
8 4 1 46.33 42.21 10.09 o
8 4 2 1163.56 1210.38 54.39 o
8 4 3 11.36 -18.42 25.47 <
8 5 0 354.80 364.68 39.87 o
8 5 1 2813.59 3003.34 72.91 o
8 5 2 257.46 287.91 25.17 o
8 5 3 715.93 728.83 72.22 o
8 6 0 1319.02 1378.91 81.10 o
8 6 1 0.48 -12.19 6.39 <
8 6 2 730.18 718.96 37.02 o
8 6 3 1.63 0.67 13.14 <
8 7 0 870.65 900.60 70.22 o
8 7 1 1205.10 1393.08 54.27 o
8 7 2 396.65 354.23 26.41 o
8 7 3 577.77 674.59 61.58 o
8 8 0 238.46 550.06 112.52 o
8 8 1 206.76 186.48 20.51 o
8 8 2 124.06 144.12 25.58 o
8 8 3 80.13 67.73 16.28 o
8 9 0 403.31 486.42 102.09 o
8 9 1 4134.37 4128.72 104.30 o
8 9 2 234.40 287.60 34.79 o
8 9 3 1809.42 1738.12 324.82 o
8 10 0 399.34 383.97 41.90 o
8 10 1 5.14 28.90 38.23 <
8 11 0 1626.42 1365.98 59.96 o
8 11 1 2598.96 2489.16 282.19 o
8 12 0 727.74 475.98 29.63 o
8 12 1 747.27 793.80 83.35 o
8 13 1 1586.95 1550.98 110.72 o
9 1 1 6610.09 5749.01 172.80 o
9 1 2 24.52 20.08 14.66 <
9 1 3 1937.99 1995.81 160.11 o
9 2 0 8601.05 7749.97 177.38 o
9 2 1 1710.66 1505.85 68.63 o
9 2 2 4076.52 4235.61 97.78 o
9 2 3 614.04 657.04 91.97 o
9 3 0 22629.30 22202.50 306.18 o
9 3 1 442.97 440.46 31.71 o
9 3 2 10858.10 11443.30 166.30 o
9 3 3 186.96 168.69 35.06 o
9 4 0 35.37 17.13 13.07 <
9 4 1 1317.34 1416.07 56.44 o
9 4 2 16.55 9.36 10.46 <
9 4 3 339.90 356.52 49.40 o
9 5 0 1466.22 1473.73 85.90 o
9 5 1 9364.34 10885.70 160.70 o
9 5 2 915.09 994.72 48.88 o
9 5 3 3109.87 3498.13 169.29 o
9 6 0 92.44 106.60 23.17 o
9 6 1 725.65 859.31 52.93 o
9 6 2 41.22 11.51 24.31 <
9 6 3 253.78 204.72 39.49 o
9 7 0 970.11 1206.67 82.94 o
9 7 1 773.82 895.32 48.22 o
9 7 2 506.74 569.08 32.72 o
9 7 3 344.74 354.11 48.44 o
9 8 0 1168.65 1323.26 92.85 o
9 8 1 1805.72 2025.38 69.05 o
9 8 2 743.47 840.14 60.71 o
9 8 3 823.70 895.74 149.69 o
9 9 0 1811.89 1816.64 175.67 o
9 9 1 864.14 926.18 50.64 o
9 9 2 1163.69 1289.77 91.29 o
9 9 3 380.18 336.48 91.05 o
9 10 0 1.65 5.24 37.97 <
9 10 1 1457.46 1278.27 60.52 o
9 10 2 1.58 5.58 9.60 <
9 11 0 106.72 66.48 19.27 o
9 12 0 1496.17 1185.67 54.62 o
9 13 1 120.28 88.81 49.37 <
10 0 2 711.82 832.52 91.05 o
10 1 1 1246.35 1136.57 125.66 o
10 1 2 87.19 45.19 16.19 o
10 1 3 396.97 352.43 63.25 o
10 2 0 3782.68 3074.99 122.96 o
10 2 1 1132.23 1024.22 59.65 o
10 2 2 1936.54 1909.11 74.44 o
10 2 3 263.91 225.72 47.86 o
10 3 0 283.84 227.74 37.17 o
10 3 1 250.16 248.31 25.61 o
10 3 2 127.09 87.59 20.61 o
10 3 3 95.30 57.78 27.69 o
10 4 0 8705.66 8735.38 212.60 o
10 4 1 117.64 105.40 18.49 o
10 4 2 4702.30 4900.11 124.63 o
10 4 3 48.12 14.88 24.36 <
10 5 0 813.85 809.31 64.76 o
10 5 1 9832.33 10838.10 166.86 o
10 5 2 563.52 568.90 33.19 o
10 5 3 3449.75 3889.52 193.63 o
10 6 0 62.51 54.02 22.38 o
10 6 1 2379.97 2788.98 86.61 o
10 6 2 38.48 32.80 20.61 <
10 6 3 967.43 1100.31 95.38 o
10 7 0 19403.20 23397.40 378.59 o
10 7 1 195.76 174.20 23.91 o
10 7 2 10928.90 12425.00 187.35 o
10 7 3 60.14 12.39 34.14 <
10 8 0 2.06 48.35 28.11 <
10 8 1 1038.98 1120.84 55.51 o
10 8 2 2.00 3.51 14.08 <
10 8 3 483.49 355.84 105.63 o
10 9 0 184.03 220.31 67.86 o
10 9 1 8151.74 8893.81 167.92 o
10 9 2 99.29 74.83 17.03 o
10 9 3 3668.17 3880.30 366.80 o
10 10 0 775.48 830.09 126.67 o
10 10 1 76.53 60.78 10.08 o
10 10 2 488.42 605.28 56.48 o
10 12 0 40.43 27.87 11.62 o
11 1 2 4085.47 3876.33 160.71 o
11 2 0 2402.32 1893.98 107.42 o
11 2 1 0.26 -0.06 13.16 <
11 2 2 1201.40 1125.12 64.30 o
11 2 3 1.40 5.38 15.80 <
11 3 0 3522.00 3247.24 135.33 o
11 3 1 30.26 31.05 15.33 o
11 3 2 1801.42 1904.53 79.57 o
11 3 3 3.89 -10.50 24.31 <
11 4 0 383.74 349.57 45.17 o
11 4 1 174.59 163.26 22.91 o
11 4 2 177.33 149.74 40.43 o
11 4 3 56.74 42.49 45.92 <
11 5 0 570.59 641.94 61.48 o
11 5 1 4.47 12.73 11.39 <
11 5 2 319.33 351.46 62.32 o
11 5 3 4.47 -19.37 30.19 <
11 6 0 2165.28 2499.31 121.62 o
11 6 1 1138.43 1411.58 64.66 o
11 6 2 1193.03 1357.41 63.59 o
11 6 3 408.33 455.46 58.29 o
11 7 0 0.74 -1.63 15.92 <
11 7 1 240.07 241.93 28.72 o
11 7 2 0.59 -2.94 7.98 <
11 7 3 100.61 43.53 46.63 <
11 8 0 43.24 18.72 19.29 <
11 8 1 8147.17 10067.20 188.74 o
11 8 2 28.15 21.81 14.30 <
11 8 3 3767.38 3866.66 461.44 o
11 9 0 1394.17 1675.46 117.98 o
11 9 1 4.14 -26.86 19.07 <
11 9 2 930.52 1063.92 77.32 o
11 9 3 0.42 19.70 51.81 <
11 10 0 4492.34 5054.17 321.63 o
11 10 1 2512.41 2080.92 78.33 o
11 10 2 2995.92 3541.45 146.28 o
11 11 1 840.93 661.90 36.45 o
12 0 2 20154.20 18108.80 839.12 o
12 1 2 1230.31 1183.95 132.07 o
12 2 0 5.16 28.70 36.95 <
12 2 1 6574.22 5889.76 156.65 o
12 2 2 1.48 -2.54 13.81 <
12 3 0 534.28 431.58 54.50 o
12 3 1 6241.77 6121.92 158.89 o
12 3 2 321.31 320.09 33.13 o
12 3 3 2235.76 2651.10 188.23 o
12 4 0 77.68 41.28 21.52 <
12 4 1 690.63 665.24 45.64 o
12 4 2 47.92 42.02 13.17 o
12 4 3 287.03 199.14 43.53 o
12 5 0 4848.41 4870.60 176.74 o
12 5 1 174.88 163.49 24.55 o
12 5 2 2654.84 2694.15 90.00 o
12 5 3 88.66 13.24 21.24 <
12 6 0 13.33 -9.92 24.24 <
12 6 1 1650.69 1827.01 76.86 o
12 6 2 15.48 19.78 10.69 <
12 6 3 728.21 631.31 55.53 o
12 7 0 729.74 893.03 78.88 o
12 7 1 4058.22 4977.95 128.64 o
12 7 2 495.02 580.51 62.94 o
12 7 3 1759.31 2015.85 257.21 o
12 8 0 266.20 291.36 48.56 o
12 8 1 1553.25 2136.42 100.40 o
12 8 2 180.63 156.01 26.04 o
12 8 3 724.31 688.27 153.90 o
12 9 0 4893.66 5681.92 219.41 o
12 9 2 3238.84 3672.58 145.41 o
12 10 2 123.69 122.96 24.87 o
12 11 1 284.58 226.34 23.29 o
13 2 1 2165.26 1934.31 122.91 o
13 2 2 57.58 40.48 25.61 <
13 3 0 22.84 -1.15 21.25 <
13 3 1 9105.97 8529.67 194.31 o
13 3 2 15.60 -29.80 21.51 <
13 4 0 2249.66 2086.44 121.18 o
13 4 1 0.69 -6.39 13.78 <
13 4 2 1158.22 1220.07 78.52 o
13 4 3 0.53 2.73 32.52 <
13 5 0 8748.20 9088.57 254.11 o
13 5 1 113.33 151.22 25.95 o
13 5 2 4932.61 5345.30 148.11 o
13 5 3 46.91 12.48 17.27 <
13 6 0 220.58 244.22 46.48 o
13 6 1 2950.89 3050.27 102.72 o
13 6 2 187.20 225.90 42.03 o
13 6 3 1324.02 561.41 134.56 o
13 7 0 61.90 91.81 29.13 o
13 7 1 662.57 755.06 63.63 o
13 7 2 32.64 49.37 20.02 o
13 7 3 303.44 193.07 78.96 o
13 8 0 13.96 -1.51 20.27 <
13 8 1 67.33 78.55 27.33 o
13 8 2 1.89 -4.70 11.61 <
13 8 3 18.52 34.66 9.05 o
13 9 0 1131.44 1481.59 162.03 o
13 9 2 738.79 790.19 68.71 o
13 10 2 835.48 869.94 137.39 o
14 2 2 3494.98 2795.00 269.86 o
14 3 0 15.44 20.28 20.48 <
14 3 1 76.81 1.05 19.23 <
14 3 2 3.28 1.57 17.23 <
14 4 0 172.72 358.68 70.25 o
14 4 1 9680.22 9547.42 216.07 o
14 5 0 2355.84 2072.00 129.55 o
14 5 1 36.64 9.39 15.61 <
14 6 0 2393.39 2531.86 146.01 o
14 6 1 624.15 631.56 55.48 o
14 6 2 1455.86 1706.78 233.92 o
14 6 3 284.07 237.51 84.66 o
14 7 0 1353.73 1548.90 112.27 o
14 7 1 4307.16 4999.65 156.32 o
14 7 2 937.82 1075.68 95.60 o
14 7 3 1988.79 2069.68 283.61 o
14 8 0 682.39 802.91 83.56 o
14 8 2 446.97 475.87 58.51 o
14 8 3 76.13 11.83 16.36 <
14 9 2 373.69 385.79 49.37 o
15 3 0 649.92 484.62 102.09 o
15 3 1 56.26 49.33 21.24 o
15 4 0 182.62 88.07 39.40 o
15 4 1 4508.42 4032.19 148.76 o
15 5 0 800.79 485.51 73.23 o
15 5 1 953.23 876.75 67.77 o
15 6 0 540.13 574.20 73.35 o
15 6 1 1725.02 1600.38 92.79 o
15 7 0 8.41 -0.07 28.24 <
15 7 3 33.51 1.75 10.35 <
15 8 3 1.01 13.98 23.40 <
15 9 2 28.92 7.00 17.25 <
16 3 0 536.50 313.40 96.88 o
16 3 1 1884.58 1540.29 100.85 o
16 4 0 0.40 6.21 22.20 <
16 4 1 394.49 278.95 50.67 o
16 5 0 533.54 408.58 64.28 o
16 5 1 2461.02 2155.87 113.11 o
16 6 0 391.16 374.80 63.83 o
17 4 0 1.27 -17.20 26.31 <
17 4 1 627.42 455.61 100.91 o
17 5 0 3.46 -11.08 27.91 <
