#------------------------------------------------------------------------------
#$Date: 2021-04-14 13:04:00 +0300 (Wed, 14 Apr 2021) $
#$Revision: 264155 $
#$URL: file:///home/coder/svn-repositories/cod/cif/1/56/17/1561760.cif $
#------------------------------------------------------------------------------
#
# This file is available in the Crystallography Open Database (COD),
# http://www.crystallography.net/
#
# All data on this site have been placed in the public domain by the
# contributors.
#
data_1561760
loop_
_publ_author_name
'Bykova, E.'
'Gou, H.'
'Bykov, M.'
'Hanfland, M.'
'Dubrovinsky, L.'
'Dubrovinskaia, N.'
_publ_section_title
;
 Crystal structures and compressibility of novel iron borides Fe2B7 and Fe
 B50 synthesized at high pressure and high temperature
;
_journal_name_full               'Journal of Solid State Chemistry'
_journal_page_first              102
_journal_page_last               109
_journal_paper_doi               10.1016/j.jssc.2015.06.040
_journal_volume                  230
_journal_year                    2015
_chemical_absolute_configuration .
_chemical_formula_moiety         'B7 Fe2'
_chemical_formula_sum            'B7 Fe2'
_chemical_formula_weight         187.4
_chemical_name_common            'diiron heptaboride'
_chemical_name_systematic        'diiron heptaboride'
_space_group_IT_number           55
_space_group_name_Hall           '-P 2 2ab'
_space_group_name_H-M_alt        'P b a m'
_symmetry_cell_setting           orthorhombic
_symmetry_Int_Tables_number      55
_symmetry_space_group_name_Hall  '-P 2 2ab'
_symmetry_space_group_name_H-M   'P b a m'
_cell_angle_alpha                90
_cell_angle_beta                 90
_cell_angle_gamma                90
_cell_formula_units_Z            8
_cell_length_a                   16.5418(13)
_cell_length_b                   10.5067(2)
_cell_length_c                   2.82180(10)
_cell_measurement_reflns_used    360
_cell_measurement_temperature    293
_cell_measurement_theta_max      18.2670
_cell_measurement_theta_min      4.4190
_cell_volume                     490.43(4)
_computing_cell_refinement
;
CrysAlisPro, Agilent Technologies,
Version 1.171.37.35 (release 13-08-2014 CrysAlis171 .NET)
(compiled Aug 13 2014,18:06:01)
;
_computing_data_collection
;
CrysAlisPro, Agilent Technologies,
Version 1.171.37.35 (release 13-08-2014 CrysAlis171 .NET)
(compiled Aug 13 2014,18:06:01)
;
_computing_data_reduction
;
CrysAlisPro, Agilent Technologies,
Version 1.171.37.35 (release 13-08-2014 CrysAlis171 .NET)
(compiled Aug 13 2014,18:06:01)
;
_computing_structure_refinement  'Jana2006 (Petricek, 2014)'
_computing_structure_solution    'SHELXS-2013 (Sheldrick, 2013)'
_diffrn_ambient_pressure         19200000
_diffrn_ambient_temperature      293
_diffrn_detector                 'MAR555 flatpanel detector'
_diffrn_measured_fraction_theta_full 0.88
_diffrn_measured_fraction_theta_max 0.64
_diffrn_measurement_device
;
customized omega-circle diffractometer
;
_diffrn_measurement_device_type  'ESRF, beamline ID09A diffractometer'
_diffrn_measurement_method       '\w scans'
_diffrn_radiation_monochromator  synchrotron
_diffrn_radiation_probe          x-ray
_diffrn_radiation_source         synchrotron
_diffrn_radiation_type           synchrotron
_diffrn_radiation_wavelength     0.41441
_diffrn_reflns_av_R_equivalents  0.043
_diffrn_reflns_av_unetI/netI     0.0327
_diffrn_reflns_limit_h_max       21
_diffrn_reflns_limit_h_min       -19
_diffrn_reflns_limit_k_max       15
_diffrn_reflns_limit_k_min       -15
_diffrn_reflns_limit_l_max       4
_diffrn_reflns_limit_l_min       -4
_diffrn_reflns_number            3249
_diffrn_reflns_theta_full        13.22
_diffrn_reflns_theta_max         19.49
_diffrn_reflns_theta_min         1.83
_diffrn_source                   synchrotron
_exptl_absorpt_coefficient_mu    2.385
_exptl_absorpt_correction_T_max  1.00000
_exptl_absorpt_correction_T_min  0.29579
_exptl_absorpt_correction_type   multi-scan
_exptl_absorpt_process_details
;
CrysAlisPro, Agilent Technologies,
Version 1.171.37.35 (release 13-08-2014 CrysAlis171 .NET)
(compiled Aug 13 2014,18:06:01)
Empirical absorption correction using spherical harmonics,
 implemented in SCALE3 ABSPACK scaling algorithm.
;
_exptl_crystal_colour            black
_exptl_crystal_density_diffrn    5.0735
_exptl_crystal_description       plate
_exptl_crystal_F_000             696
_exptl_crystal_size_max          0.025
_exptl_crystal_size_mid          0.025
_exptl_crystal_size_min          0.005
_refine_ls_extinction_method     none
_refine_ls_goodness_of_fit_gt    1.90
_refine_ls_goodness_of_fit_ref   1.84
_refine_ls_number_constraints    0
_refine_ls_number_parameters     67
_refine_ls_number_reflns         802
_refine_ls_number_restraints     0
_refine_ls_R_factor_all          0.0471
_refine_ls_R_factor_gt           0.0393
_refine_ls_shift/su_max          0.0003
_refine_ls_shift/su_mean         0.0000
_refine_ls_structure_factor_coef Fsqd
_refine_ls_weighting_details     w=1/(\s^2^(I)+0.0004I^2^)
_refine_ls_weighting_scheme      sigma
_refine_ls_wR_factor_gt          0.0847
_refine_ls_wR_factor_ref         0.0905
_reflns_number_gt                670
_reflns_number_total             802
_reflns_threshold_expression     I>2\s(I)
_cod_data_source_file            Fe2B7_19.2GPa.cif
_cod_data_source_block           Fe2B7_19.2GPa
_cod_depositor_comments
;
The following automatic conversions were performed:

data item '_diffrn_radiation_probe' value 'X-ray' was changed to
'x-ray' in accordance with the built-in table derived from the CIF
Core dictionary named 'cif_core.dic' version 2.4.5 last updated on
2014-11-21.

Automatic conversion script
Id: cif_fix_values 8369 2020-08-20 11:38:08Z andrius 
;
_cod_database_code               1561760
loop_
_symmetry_equiv_pos_site_id
_symmetry_equiv_pos_as_xyz
1 x,y,z
2 -x,-y,z
3 -x+1/2,y+1/2,-z
4 x+1/2,-y+1/2,-z
5 -x,-y,-z
6 x,y,-z
7 x+1/2,-y+1/2,z
8 -x+1/2,y+1/2,z
loop_
_atom_site_label
_atom_site_type_symbol
_atom_site_fract_x
_atom_site_fract_y
_atom_site_fract_z
_atom_site_adp_type
_atom_site_U_iso_or_equiv
_atom_site_site_symmetry_multiplicity
_atom_site_occupancy
_atom_site_calc_flag
_atom_site_refinement_flags
_atom_site_disorder_assembly
_atom_site_disorder_group
Fe1 Fe 0.22100(6) 0.46720(7) 0.5 Uani 0.0060(3) 4 1 d . . .
Fe2 Fe 0.12123(6) 0.17885(7) 0 Uani 0.0054(3) 4 1 d . . .
Fe3 Fe 0.46505(6) 0.10581(7) 0.5 Uani 0.0049(3) 4 1 d . . .
Fe4 Fe 0.38952(6) 0.26636(7) 0 Uani 0.0053(3) 4 1 d . . .
B1 B 0.3671(4) 0.0502(5) 0 Uiso 0.0039(11) 4 1 d . . .
B2 B 0.0479(5) 0.4614(5) 0 Uiso 0.0041(10) 4 1 d . . .
B3 B 0.3029(5) 0.3908(5) 0 Uiso 0.0056(11) 4 1 d . . .
B4 B 0.1406(5) 0.3755(5) 0 Uiso 0.0038(10) 4 1 d . . .
B5 B 0.4440(5) 0.4026(5) 0.5 Uiso 0.0057(11) 4 1 d . . .
B6 B 0.1996(5) 0.0443(6) 0 Uiso 0.0062(11) 4 1 d . . .
B7 B 0.2892(5) 0.2871(6) 0.5 Uiso 0.0065(11) 4 1 d . . .
B8 B 0.0329(5) 0.3038(5) 0 Uiso 0.0056(11) 4 1 d . . .
B9 B 0.3992(5) 0.4755(5) 0 Uiso 0.0040(11) 4 1 d . . .
B10 B 0.0540(5) 0.0592(5) 0.5 Uiso 0.0052(11) 4 1 d . . .
B11 B 0.0172(5) 0.2111(6) 0.5 Uiso 0.0061(11) 4 1 d . . .
B12 B 0.3379(5) 0.1382(5) 0.5 Uiso 0.0050(10) 4 1 d . . .
B13 B 0.2199(5) 0.1449(6) 0.5 Uiso 0.0071(11) 4 1 d . . .
B14 B 0.1797(5) 0.2917(6) 0.5 Uiso 0.0059(11) 4 1 d . . .
loop_
_atom_site_aniso_label
_atom_site_aniso_type_symbol
_atom_site_aniso_U_11
_atom_site_aniso_U_22
_atom_site_aniso_U_33
_atom_site_aniso_U_12
_atom_site_aniso_U_13
_atom_site_aniso_U_23
Fe1 Fe 0.0046(6) 0.0030(4) 0.0103(4) 0.0002(3) 0 0
Fe2 Fe 0.0047(6) 0.0043(4) 0.0070(3) 0.0004(3) 0 0
Fe3 Fe 0.0045(6) 0.0044(4) 0.0057(3) -0.0003(3) 0 0
Fe4 Fe 0.0051(6) 0.0043(4) 0.0063(3) 0.0007(3) 0 0
loop_
_atom_type_symbol
_atom_type_scat_dispersion_real
_atom_type_scat_dispersion_imag
_atom_type_scat_source
B -0.0003 0.0002 'International Tables Vol C tables 4.2.6.8 and 6.1.1.1'
Fe 0.1991 0.3104 'International Tables Vol C tables 4.2.6.8 and 6.1.1.1'
loop_
_geom_angle_atom_site_label_1
_geom_angle_atom_site_label_2
_geom_angle_atom_site_label_3
_geom_angle_site_symmetry_1
_geom_angle_site_symmetry_2
_geom_angle_site_symmetry_3
_geom_angle
Fe1 Fe1 Fe1 1_554 . 1_556 180.0(5)
Fe1 Fe1 B1 1_554 . 3_555 50.29(12)
Fe1 Fe1 B1 1_554 . 3_556 129.71(12)
Fe1 Fe1 B3 1_554 . . 48.14(13)
Fe1 Fe1 B3 1_554 . 1_556 131.86(14)
Fe1 Fe1 B4 1_554 . . 49.34(12)
Fe1 Fe1 B4 1_554 . 1_556 130.66(12)
Fe1 Fe1 B6 1_554 . 3_555 47.56(14)
Fe1 Fe1 B6 1_554 . 3_556 132.44(14)
Fe1 Fe1 B7 1_554 . . 90.00(2)
Fe1 Fe1 B12 1_554 . 3_556 90.00(2)
Fe1 Fe1 B13 1_554 . 3_556 90.00(2)
Fe1 Fe1 B14 1_554 . . 90.00(2)
Fe1 Fe1 B1 1_556 . 3_555 129.71(12)
Fe1 Fe1 B1 1_556 . 3_556 50.29(12)
Fe1 Fe1 B3 1_556 . . 131.86(14)
Fe1 Fe1 B3 1_556 . 1_556 48.14(13)
Fe1 Fe1 B4 1_556 . . 130.66(12)
Fe1 Fe1 B4 1_556 . 1_556 49.34(12)
Fe1 Fe1 B6 1_556 . 3_555 132.44(14)
Fe1 Fe1 B6 1_556 . 3_556 47.56(14)
Fe1 Fe1 B7 1_556 . . 90.00(2)
Fe1 Fe1 B12 1_556 . 3_556 90.00(2)
Fe1 Fe1 B13 1_556 . 3_556 90.00(2)
Fe1 Fe1 B14 1_556 . . 90.00(2)
B1 Fe1 B1 3_555 . 3_556 79.43(17)
B1 Fe1 B3 3_555 . . 98.43(17)
B1 Fe1 B3 3_555 . 1_556 177.85(17)
B1 Fe1 B4 3_555 . . 49.8(2)
B1 Fe1 B4 3_555 . 1_556 100.8(2)
B1 Fe1 B6 3_555 . 3_555 80.2(2)
B1 Fe1 B6 3_555 . 3_556 133.8(2)
B1 Fe1 B7 3_555 . . 132.64(15)
B1 Fe1 B12 3_555 . 3_556 48.56(16)
B1 Fe1 B13 3_555 . 3_556 87.5(2)
B1 Fe1 B14 3_555 . . 98.1(2)
B1 Fe1 B3 3_556 . . 177.85(17)
B1 Fe1 B3 3_556 . 1_556 98.43(17)
B1 Fe1 B4 3_556 . . 100.8(2)
B1 Fe1 B4 3_556 . 1_556 49.8(2)
B1 Fe1 B6 3_556 . 3_555 133.8(2)
B1 Fe1 B6 3_556 . 3_556 80.2(2)
B1 Fe1 B7 3_556 . . 132.64(15)
B1 Fe1 B12 3_556 . 3_556 48.56(16)
B1 Fe1 B13 3_556 . 3_556 87.5(2)
B1 Fe1 B14 3_556 . . 98.1(2)
B3 Fe1 B3 . . 1_556 83.71(19)
B3 Fe1 B4 . . . 77.9(2)
B3 Fe1 B4 . . 1_556 131.3(2)
B3 Fe1 B6 . . 3_555 45.1(2)
B3 Fe1 B6 . . 3_556 101.2(2)
B3 Fe1 B7 . . . 49.14(16)
B3 Fe1 B12 . . 3_556 129.72(17)
B3 Fe1 B13 . . 3_556 92.2(2)
B3 Fe1 B14 . . . 82.3(2)
B3 Fe1 B4 1_556 . . 131.3(2)
B3 Fe1 B4 1_556 . 1_556 77.9(2)
B3 Fe1 B6 1_556 . 3_555 101.2(2)
B3 Fe1 B6 1_556 . 3_556 45.1(2)
B3 Fe1 B7 1_556 . . 49.14(16)
B3 Fe1 B12 1_556 . 3_556 129.72(17)
B3 Fe1 B13 1_556 . 3_556 92.2(2)
B3 Fe1 B14 1_556 . . 82.3(2)
B4 Fe1 B4 . . 1_556 81.32(17)
B4 Fe1 B6 . . 3_555 96.81(18)
B4 Fe1 B6 . . 3_556 176.4(2)
B4 Fe1 B7 . . . 86.1(2)
B4 Fe1 B12 . . 3_556 95.6(2)
B4 Fe1 B13 . . 3_556 132.78(15)
B4 Fe1 B14 . . . 50.90(17)
B4 Fe1 B6 1_556 . 3_555 176.4(2)
B4 Fe1 B6 1_556 . 3_556 96.81(18)
B4 Fe1 B7 1_556 . . 86.1(2)
B4 Fe1 B12 1_556 . 3_556 95.6(2)
B4 Fe1 B13 1_556 . 3_556 132.78(15)
B4 Fe1 B14 1_556 . . 50.90(17)
B6 Fe1 B6 3_555 . 3_556 84.9(2)
B6 Fe1 B7 3_555 . . 90.6(2)
B6 Fe1 B12 3_555 . 3_556 87.6(2)
B6 Fe1 B13 3_555 . 3_556 50.61(17)
B6 Fe1 B14 3_555 . . 125.56(19)
B6 Fe1 B7 3_556 . . 90.6(2)
B6 Fe1 B12 3_556 . 3_556 87.6(2)
B6 Fe1 B13 3_556 . 3_556 50.61(17)
B6 Fe1 B14 3_556 . . 125.56(19)
B7 Fe1 B12 . . 3_556 177.6(3)
B7 Fe1 B13 . . 3_556 121.5(3)
B7 Fe1 B14 . . . 51.1(3)
B12 Fe1 B13 3_556 . 3_556 56.1(3)
B12 Fe1 B14 3_556 . . 131.2(3)
B13 Fe1 B14 3_556 . . 172.7(3)
Fe2 Fe2 Fe2 1_554 . 1_556 180.0(5)
Fe2 Fe2 B4 1_554 . . 90.00(2)
Fe2 Fe2 B6 1_554 . . 90.00(2)
Fe2 Fe2 B8 1_554 . . 90.00(2)
Fe2 Fe2 B9 1_554 . 3_545 90.00(2)
Fe2 Fe2 B10 1_554 . 1_554 49.95(11)
Fe2 Fe2 B10 1_554 . . 130.05(12)
Fe2 Fe2 B11 1_554 . 1_554 51.18(12)
Fe2 Fe2 B11 1_554 . . 128.82(13)
Fe2 Fe2 B13 1_554 . 1_554 49.81(13)
Fe2 Fe2 B13 1_554 . . 130.19(14)
Fe2 Fe2 B14 1_554 . 1_554 47.33(13)
Fe2 Fe2 B14 1_554 . . 132.67(13)
Fe2 Fe2 B4 1_556 . . 90.00(2)
Fe2 Fe2 B6 1_556 . . 90.00(2)
Fe2 Fe2 B8 1_556 . . 90.00(2)
Fe2 Fe2 B9 1_556 . 3_545 90.00(2)
Fe2 Fe2 B10 1_556 . 1_554 130.05(12)
Fe2 Fe2 B10 1_556 . . 49.95(11)
Fe2 Fe2 B11 1_556 . 1_554 128.82(13)
Fe2 Fe2 B11 1_556 . . 51.18(12)
Fe2 Fe2 B13 1_556 . 1_554 130.19(14)
Fe2 Fe2 B13 1_556 . . 49.81(13)
Fe2 Fe2 B14 1_556 . 1_554 132.67(13)
Fe2 Fe2 B14 1_556 . . 47.33(13)
B4 Fe2 B6 . . . 128.7(3)
B4 Fe2 B8 . . . 56.9(3)
B4 Fe2 B9 . . 3_545 179.8(3)
B4 Fe2 B10 . . 1_554 130.10(17)
B4 Fe2 B10 . . . 130.10(17)
B4 Fe2 B11 . . 1_554 88.2(2)
B4 Fe2 B11 . . . 88.2(2)
B4 Fe2 B13 . . 1_554 92.7(2)
B4 Fe2 B13 . . . 92.7(2)
B4 Fe2 B14 . . 1_554 50.64(17)
B4 Fe2 B14 . . . 50.64(17)
B6 Fe2 B8 . . . 174.5(3)
B6 Fe2 B9 . . 3_545 51.5(3)
B6 Fe2 B10 . . 1_554 85.4(2)
B6 Fe2 B10 . . . 85.4(2)
B6 Fe2 B11 . . 1_554 128.88(19)
B6 Fe2 B11 . . . 128.88(19)
B6 Fe2 B13 . . 1_554 51.34(19)
B6 Fe2 B13 . . . 51.34(19)
B6 Fe2 B14 . . 1_554 96.1(2)
B6 Fe2 B14 . . . 96.1(2)
B8 Fe2 B9 . . 3_545 123.0(3)
B8 Fe2 B10 . . 1_554 90.3(2)
B8 Fe2 B10 . . . 90.3(2)
B8 Fe2 B11 . . 1_554 47.99(17)
B8 Fe2 B11 . . . 47.99(17)
B8 Fe2 B13 . . 1_554 131.62(17)
B8 Fe2 B13 . . . 131.62(17)
B8 Fe2 B14 . . 1_554 88.0(2)
B8 Fe2 B14 . . . 88.0(2)
B9 Fe2 B10 3_545 . 1_554 49.81(17)
B9 Fe2 B10 3_545 . . 49.81(17)
B9 Fe2 B11 3_545 . 1_554 91.7(2)
B9 Fe2 B11 3_545 . . 91.7(2)
B9 Fe2 B13 3_545 . 1_554 87.4(2)
B9 Fe2 B13 3_545 . . 87.4(2)
B9 Fe2 B14 3_545 . 1_554 129.44(17)
B9 Fe2 B14 3_545 . . 129.44(17)
B10 Fe2 B10 1_554 . . 80.10(16)
B10 Fe2 B11 1_554 . 1_554 45.2(2)
B10 Fe2 B11 1_554 . . 95.9(2)
B10 Fe2 B13 1_554 . 1_554 82.5(2)
B10 Fe2 B13 1_554 . . 134.4(2)
B10 Fe2 B14 1_554 . 1_554 97.25(17)
B10 Fe2 B14 1_554 . . 176.9(2)
B10 Fe2 B11 . . 1_554 95.9(2)
B10 Fe2 B11 . . . 45.2(2)
B10 Fe2 B13 . . 1_554 134.4(2)
B10 Fe2 B13 . . . 82.5(2)
B10 Fe2 B14 . . 1_554 176.9(2)
B10 Fe2 B14 . . . 97.25(17)
B11 Fe2 B11 1_554 . . 77.65(18)
B11 Fe2 B13 1_554 . 1_554 100.98(18)
B11 Fe2 B13 1_554 . . 178.4(2)
B11 Fe2 B14 1_554 . 1_554 81.0(2)
B11 Fe2 B14 1_554 . . 134.0(2)
B11 Fe2 B13 . . 1_554 178.4(2)
B11 Fe2 B13 . . . 100.98(18)
B11 Fe2 B14 . . 1_554 134.0(2)
B11 Fe2 B14 . . . 81.0(2)
B13 Fe2 B13 1_554 . . 80.37(19)
B13 Fe2 B14 1_554 . 1_554 46.3(2)
B13 Fe2 B14 1_554 . . 100.6(2)
B13 Fe2 B14 . . 1_554 100.6(2)
B13 Fe2 B14 . . . 46.3(2)
B14 Fe2 B14 1_554 . . 85.35(18)
Fe3 Fe3 Fe3 1_554 . 1_556 180.0(5)
Fe3 Fe3 Fe3 1_554 . 2_655 90.00(2)
Fe3 Fe3 Fe4 1_554 . . 56.10(2)
Fe3 Fe3 Fe4 1_554 . 1_556 123.90(3)
Fe3 Fe3 B1 1_554 . . 50.67(12)
Fe3 Fe3 B1 1_554 . 1_556 129.33(12)
Fe3 Fe3 B2 1_554 . 3_545 47.36(11)
Fe3 Fe3 B2 1_554 . 3_546 132.64(11)
Fe3 Fe3 B2 1_554 . 4_555 47.54(14)
Fe3 Fe3 B2 1_554 . 4_556 132.46(14)
Fe3 Fe3 B8 1_554 . 4_555 46.20(14)
Fe3 Fe3 B8 1_554 . 4_556 133.80(14)
Fe3 Fe3 B11 1_554 . 4_556 90.00(2)
Fe3 Fe3 B12 1_554 . . 90.00(3)
Fe3 Fe3 Fe3 1_556 . 2_655 90.00(2)
Fe3 Fe3 Fe4 1_556 . . 123.90(3)
Fe3 Fe3 Fe4 1_556 . 1_556 56.10(2)
Fe3 Fe3 B1 1_556 . . 129.33(12)
Fe3 Fe3 B1 1_556 . 1_556 50.67(12)
Fe3 Fe3 B2 1_556 . 3_545 132.64(11)
Fe3 Fe3 B2 1_556 . 3_546 47.36(11)
Fe3 Fe3 B2 1_556 . 4_555 132.46(14)
Fe3 Fe3 B2 1_556 . 4_556 47.54(14)
Fe3 Fe3 B8 1_556 . 4_555 133.80(14)
Fe3 Fe3 B8 1_556 . 4_556 46.20(14)
Fe3 Fe3 B11 1_556 . 4_556 90.00(2)
Fe3 Fe3 B12 1_556 . . 90.00(3)
Fe3 Fe3 Fe4 2_655 . . 145.049(16)
Fe3 Fe3 Fe4 2_655 . 1_556 145.049(16)
Fe3 Fe3 B1 2_655 . . 95.92(16)
Fe3 Fe3 B1 2_655 . 1_556 95.92(16)
Fe3 Fe3 B2 2_655 . 3_545 53.22(16)
Fe3 Fe3 B2 2_655 . 3_546 53.22(16)
Fe3 Fe3 B2 2_655 . 4_555 52.96(13)
Fe3 Fe3 B2 2_655 . 4_556 52.96(13)
Fe3 Fe3 B8 2_655 . 4_555 99.17(18)
Fe3 Fe3 B8 2_655 . 4_556 99.17(18)
Fe3 Fe3 B11 2_655 . 4_556 128.3(2)
Fe3 Fe3 B12 2_655 . . 126.68(16)
Fe4 Fe3 Fe4 . . 1_556 67.81(3)
Fe4 Fe3 B1 . . . 57.45(14)
Fe4 Fe3 B1 . . 1_556 99.73(16)
Fe4 Fe3 B2 . . 3_545 93.27(14)
Fe4 Fe3 B2 . . 3_546 144.4(2)
Fe4 Fe3 B2 . . 4_555 99.95(13)
Fe4 Fe3 B2 . . 4_556 157.80(16)
Fe4 Fe3 B8 . . 4_555 64.9(2)
Fe4 Fe3 B8 . . 4_556 110.32(16)
Fe4 Fe3 B11 . . 4_556 66.04(16)
Fe4 Fe3 B12 . . . 53.54(12)
Fe4 Fe3 B1 1_556 . . 99.73(16)
Fe4 Fe3 B1 1_556 . 1_556 57.45(14)
Fe4 Fe3 B2 1_556 . 3_545 144.4(2)
Fe4 Fe3 B2 1_556 . 3_546 93.27(14)
Fe4 Fe3 B2 1_556 . 4_555 157.80(16)
Fe4 Fe3 B2 1_556 . 4_556 99.95(13)
Fe4 Fe3 B8 1_556 . 4_555 110.32(16)
Fe4 Fe3 B8 1_556 . 4_556 64.9(2)
Fe4 Fe3 B11 1_556 . 4_556 66.04(16)
Fe4 Fe3 B12 1_556 . . 53.54(12)
B1 Fe3 B1 . . 1_556 78.65(17)
B1 Fe3 B2 . . 3_545 46.0(3)
B1 Fe3 B2 . . 3_546 99.4(2)
B1 Fe3 B2 . . 4_555 87.8(2)
B1 Fe3 B2 . . 4_556 144.7(2)
B1 Fe3 B8 . . 4_555 94.85(19)
B1 Fe3 B8 . . 4_556 164.1(3)
B1 Fe3 B11 . . 4_556 122.50(19)
B1 Fe3 B12 . . . 47.43(17)
B1 Fe3 B2 1_556 . 3_545 99.4(2)
B1 Fe3 B2 1_556 . 3_546 46.0(3)
B1 Fe3 B2 1_556 . 4_555 144.7(2)
B1 Fe3 B2 1_556 . 4_556 87.8(2)
B1 Fe3 B8 1_556 . 4_555 164.1(3)
B1 Fe3 B8 1_556 . 4_556 94.85(19)
B1 Fe3 B11 1_556 . 4_556 122.50(19)
B1 Fe3 B12 1_556 . . 47.43(17)
B2 Fe3 B2 3_545 . 3_546 85.28(15)
B2 Fe3 B2 3_545 . 4_555 50.5(3)
B2 Fe3 B2 3_545 . 4_556 106.2(2)
B2 Fe3 B8 3_545 . 4_555 85.84(19)
B2 Fe3 B8 3_545 . 4_556 149.9(3)
B2 Fe3 B11 3_545 . 4_556 134.97(15)
B2 Fe3 B12 3_545 . . 90.8(2)
B2 Fe3 B2 3_546 . 4_555 106.2(2)
B2 Fe3 B2 3_546 . 4_556 50.5(3)
B2 Fe3 B8 3_546 . 4_555 149.9(3)
B2 Fe3 B8 3_546 . 4_556 85.84(19)
B2 Fe3 B11 3_546 . 4_556 134.97(15)
B2 Fe3 B12 3_546 . . 90.8(2)
B2 Fe3 B2 4_555 . 4_556 84.92(19)
B2 Fe3 B8 4_555 . 4_555 47.9(2)
B2 Fe3 B8 4_555 . 4_556 105.3(3)
B2 Fe3 B11 4_555 . 4_556 92.3(2)
B2 Fe3 B12 4_555 . . 134.54(16)
B2 Fe3 B8 4_556 . 4_555 105.3(3)
B2 Fe3 B8 4_556 . 4_556 47.9(2)
B2 Fe3 B11 4_556 . 4_556 92.3(2)
B2 Fe3 B12 4_556 . . 134.54(16)
B8 Fe3 B8 4_555 . 4_556 87.6(2)
B8 Fe3 B11 4_555 . 4_556 49.39(16)
B8 Fe3 B12 4_555 . . 118.0(2)
B8 Fe3 B11 4_556 . 4_556 49.39(16)
B8 Fe3 B12 4_556 . . 118.0(2)
B11 Fe3 B12 4_556 . . 105.0(3)
Fe3 Fe4 Fe3 1_554 . . 67.81(3)
Fe3 Fe4 Fe4 1_554 . 1_554 56.10(2)
Fe3 Fe4 Fe4 1_554 . 1_556 123.90(3)
Fe3 Fe4 B1 1_554 . . 54.65(14)
Fe3 Fe4 B3 1_554 . . 144.54(6)
Fe3 Fe4 B5 1_554 . 1_554 82.77(15)
Fe3 Fe4 B5 1_554 . . 126.1(2)
Fe3 Fe4 B7 1_554 . 1_554 94.66(14)
Fe3 Fe4 B7 1_554 . . 143.17(16)
Fe3 Fe4 B9 1_554 . . 129.01(14)
Fe3 Fe4 B12 1_554 . 1_554 53.6(2)
Fe3 Fe4 B12 1_554 . . 98.40(15)
Fe3 Fe4 Fe4 . . 1_554 123.90(3)
Fe3 Fe4 Fe4 . . 1_556 56.10(2)
Fe3 Fe4 B1 . . . 54.65(14)
Fe3 Fe4 B3 . . . 144.54(6)
Fe3 Fe4 B5 . . 1_554 126.1(2)
Fe3 Fe4 B5 . . . 82.77(15)
Fe3 Fe4 B7 . . 1_554 143.17(16)
Fe3 Fe4 B7 . . . 94.66(14)
Fe3 Fe4 B9 . . . 129.01(14)
Fe3 Fe4 B12 . . 1_554 98.40(15)
Fe3 Fe4 B12 . . . 53.6(2)
Fe4 Fe4 Fe4 1_554 . 1_556 180.0(5)
Fe4 Fe4 B1 1_554 . . 90.00(2)
Fe4 Fe4 B3 1_554 . . 90.00(3)
Fe4 Fe4 B5 1_554 . 1_554 50.18(11)
Fe4 Fe4 B5 1_554 . . 129.82(11)
Fe4 Fe4 B7 1_554 . 1_554 49.86(13)
Fe4 Fe4 B7 1_554 . . 130.14(14)
Fe4 Fe4 B9 1_554 . . 90.00(2)
Fe4 Fe4 B12 1_554 . 1_554 48.49(11)
Fe4 Fe4 B12 1_554 . . 131.51(12)
Fe4 Fe4 B1 1_556 . . 90.00(2)
Fe4 Fe4 B3 1_556 . . 90.00(3)
Fe4 Fe4 B5 1_556 . 1_554 129.82(11)
Fe4 Fe4 B5 1_556 . . 50.18(11)
Fe4 Fe4 B7 1_556 . 1_554 130.14(14)
Fe4 Fe4 B7 1_556 . . 49.86(13)
Fe4 Fe4 B9 1_556 . . 90.00(2)
Fe4 Fe4 B12 1_556 . 1_554 131.51(12)
Fe4 Fe4 B12 1_556 . . 48.49(11)
B1 Fe4 B3 . . . 123.1(3)
B1 Fe4 B5 . . 1_554 135.02(14)
B1 Fe4 B5 . . . 135.02(14)
B1 Fe4 B7 . . 1_554 88.6(2)
B1 Fe4 B7 . . . 88.6(2)
B1 Fe4 B9 . . . 174.9(3)
B1 Fe4 B12 . . 1_554 46.47(14)
B1 Fe4 B12 . . . 46.47(14)
B3 Fe4 B5 . . 1_554 82.2(2)
B3 Fe4 B5 . . . 82.2(2)
B3 Fe4 B7 . . 1_554 51.18(18)
B3 Fe4 B7 . . . 51.18(18)
B3 Fe4 B9 . . . 51.8(3)
B3 Fe4 B12 . . 1_554 97.5(2)
B3 Fe4 B12 . . . 97.5(2)
B5 Fe4 B5 1_554 . . 79.65(15)
B5 Fe4 B7 1_554 . 1_554 80.4(2)
B5 Fe4 B7 1_554 . . 131.2(2)
B5 Fe4 B9 1_554 . . 47.32(16)
B5 Fe4 B12 1_554 . 1_554 98.67(16)
B5 Fe4 B12 1_554 . . 178.31(15)
B5 Fe4 B7 . . 1_554 131.2(2)
B5 Fe4 B7 . . . 80.4(2)
B5 Fe4 B9 . . . 47.32(16)
B5 Fe4 B12 . . 1_554 178.31(15)
B5 Fe4 B12 . . . 98.67(16)
B7 Fe4 B7 1_554 . . 80.29(19)
B7 Fe4 B9 1_554 . . 87.5(2)
B7 Fe4 B12 1_554 . 1_554 48.1(2)
B7 Fe4 B12 1_554 . . 100.7(2)
B7 Fe4 B9 . . . 87.5(2)
B7 Fe4 B12 . . 1_554 100.7(2)
B7 Fe4 B12 . . . 48.1(2)
B9 Fe4 B12 . . 1_554 131.28(16)
B9 Fe4 B12 . . . 131.28(16)
B12 Fe4 B12 1_554 . . 83.02(16)
Fe1 B1 Fe1 3_545 . 3_546 79.4(2)
Fe1 B1 Fe3 3_545 . 1_554 100.31(4)
Fe1 B1 Fe3 3_545 . . 171.4(3)
Fe1 B1 Fe4 3_545 . . 119.8(2)
Fe1 B1 B2 3_545 . 3_545 109.4(3)
Fe1 B1 B4 3_545 . 3_545 63.9(2)
Fe1 B1 B12 3_545 . 1_554 60.8(2)
Fe1 B1 B12 3_545 . . 122.7(4)
Fe1 B1 Fe3 3_546 . 1_554 171.4(3)
Fe1 B1 Fe3 3_546 . . 100.31(4)
Fe1 B1 Fe4 3_546 . . 119.8(2)
Fe1 B1 B2 3_546 . 3_545 109.4(3)
Fe1 B1 B4 3_546 . 3_545 63.9(2)
Fe1 B1 B12 3_546 . 1_554 122.7(4)
Fe1 B1 B12 3_546 . . 60.8(2)
Fe3 B1 Fe3 1_554 . . 78.7(2)
Fe3 B1 Fe4 1_554 . . 67.91(17)
Fe3 B1 B2 1_554 . 3_545 62.5(3)
Fe3 B1 B4 1_554 . 3_545 108.2(3)
Fe3 B1 B12 1_554 . 1_554 63.4(3)
Fe3 B1 B12 1_554 . . 124.9(4)
Fe3 B1 Fe4 . . . 67.91(17)
Fe3 B1 B2 . . 3_545 62.5(3)
Fe3 B1 B4 . . 3_545 108.2(3)
Fe3 B1 B12 . . 1_554 124.9(4)
Fe3 B1 B12 . . . 63.4(3)
Fe4 B1 B2 . . 3_545 114.3(4)
Fe4 B1 B4 . . 3_545 174.7(5)
Fe4 B1 B12 . . 1_554 61.6(2)
Fe4 B1 B12 . . . 61.6(2)
B2 B1 B4 3_545 . 3_545 60.4(4)
B2 B1 B12 3_545 . 1_554 121.4(3)
B2 B1 B12 3_545 . . 121.4(3)
B4 B1 B12 3_545 . 1_554 120.4(3)
B4 B1 B12 3_545 . . 120.4(3)
B12 B1 B12 1_554 . . 107.0(4)
Fe3 B2 Fe3 3_555 . 3_556 85.3(2)
Fe3 B2 Fe3 3_555 . 4_455 73.82(13)
Fe3 B2 Fe3 3_555 . 4_456 129.5(4)
Fe3 B2 B1 3_555 . 3_555 71.5(2)
Fe3 B2 B2 3_555 . 2_565 65.0(2)
Fe3 B2 B4 3_555 . . 117.3(3)
Fe3 B2 B8 3_555 . . 134.84(19)
Fe3 B2 Fe3 3_556 . 4_455 129.5(4)
Fe3 B2 Fe3 3_556 . 4_456 73.82(13)
Fe3 B2 B1 3_556 . 3_555 71.5(2)
Fe3 B2 B2 3_556 . 2_565 65.0(2)
Fe3 B2 B4 3_556 . . 117.3(3)
Fe3 B2 B8 3_556 . . 134.84(19)
Fe3 B2 Fe3 4_455 . 4_456 84.9(3)
Fe3 B2 B1 4_455 . 3_555 137.16(13)
Fe3 B2 B2 4_455 . 2_565 64.5(3)
Fe3 B2 B4 4_455 . . 113.2(3)
Fe3 B2 B8 4_455 . . 64.5(3)
Fe3 B2 B1 4_456 . 3_555 137.16(13)
Fe3 B2 B2 4_456 . 2_565 64.5(3)
Fe3 B2 B4 4_456 . . 113.2(3)
Fe3 B2 B8 4_456 . . 64.5(3)
B1 B2 B2 3_555 . 2_565 119.3(4)
B1 B2 B4 3_555 . . 64.1(4)
B1 B2 B8 3_555 . . 132.1(6)
B2 B2 B4 2_565 . . 176.6(5)
B2 B2 B8 2_565 . . 108.6(5)
B4 B2 B8 . . . 68.0(4)
Fe1 B3 Fe1 1_554 . . 83.7(3)
Fe1 B3 Fe4 1_554 . . 136.82(13)
Fe1 B3 B6 1_554 . 3_555 66.7(3)
Fe1 B3 B7 1_554 . 1_554 68.0(2)
Fe1 B3 B7 1_554 . . 132.3(5)
Fe1 B3 B9 1_554 . . 112.0(3)
Fe1 B3 Fe4 . . . 136.82(13)
Fe1 B3 B6 . . 3_555 66.7(3)
Fe1 B3 B7 . . 1_554 132.3(5)
Fe1 B3 B7 . . . 68.0(2)
Fe1 B3 B9 . . . 112.0(3)
Fe4 B3 B6 . . 3_555 133.9(5)
Fe4 B3 B7 . . 1_554 71.6(3)
Fe4 B3 B7 . . . 71.6(3)
Fe4 B3 B9 . . . 71.6(3)
B6 B3 B7 3_555 . 1_554 127.1(2)
B6 B3 B7 3_555 . . 127.1(2)
B6 B3 B9 3_555 . . 62.3(4)
B7 B3 B7 1_554 . . 103.5(4)
B7 B3 B9 1_554 . . 113.9(4)
B7 B3 B9 . . . 113.9(4)
Fe1 B4 Fe1 1_554 . . 81.3(2)
Fe1 B4 Fe2 1_554 . . 122.3(2)
Fe1 B4 B1 1_554 . 3_555 66.3(2)
Fe1 B4 B2 1_554 . . 107.7(3)
Fe1 B4 B14 1_554 . 1_554 58.8(2)
Fe1 B4 B14 1_554 . . 120.8(4)
Fe1 B4 Fe2 . . . 122.3(2)
Fe1 B4 B1 . . 3_555 66.3(2)
Fe1 B4 B2 . . . 107.7(3)
Fe1 B4 B14 . . 1_554 120.8(4)
Fe1 B4 B14 . . . 58.8(2)
Fe2 B4 B1 . . 3_555 167.2(5)
Fe2 B4 B2 . . . 111.7(4)
Fe2 B4 B14 . . 1_554 64.4(2)
Fe2 B4 B14 . . . 64.4(2)
B1 B4 B2 3_555 . . 55.5(4)
B1 B4 B14 3_555 . 1_554 121.1(3)
B1 B4 B14 3_555 . . 121.1(3)
B2 B4 B14 . . 1_554 124.2(3)
B2 B4 B14 . . . 124.2(3)
B14 B4 B14 1_554 . . 104.5(4)
Fe4 B5 Fe4 . . 1_556 79.6(2)
Fe4 B5 B9 . . . 66.3(2)
Fe4 B5 B9 . . 1_556 128.4(5)
Fe4 B5 B10 . . 3_556 131.2(3)
Fe4 B5 B10 . . 4_556 122.6(3)
Fe4 B5 B11 . . 4_556 80.5(3)
Fe4 B5 B9 1_556 . . 128.4(5)
Fe4 B5 B9 1_556 . 1_556 66.3(2)
Fe4 B5 B10 1_556 . 3_556 131.2(3)
Fe4 B5 B10 1_556 . 4_556 122.6(3)
Fe4 B5 B11 1_556 . 4_556 80.5(3)
B9 B5 B9 . . 1_556 105.9(4)
B9 B5 B10 . . 3_556 64.9(3)
B9 B5 B10 . . 4_556 108.5(4)
B9 B5 B11 . . 4_556 127.1(2)
B9 B5 B10 1_556 . 3_556 64.9(3)
B9 B5 B10 1_556 . 4_556 108.5(4)
B9 B5 B11 1_556 . 4_556 127.1(2)
B10 B5 B10 3_556 . 4_556 76.4(4)
B10 B5 B11 3_556 . 4_556 133.5(6)
B10 B5 B11 4_556 . 4_556 57.0(4)
Fe1 B6 Fe1 3_545 . 3_546 84.9(3)
Fe1 B6 Fe2 3_545 . . 135.24(14)
Fe1 B6 B3 3_545 . 3_545 68.2(3)
Fe1 B6 B9 3_545 . 3_545 114.7(3)
Fe1 B6 B13 3_545 . 1_554 65.2(2)
Fe1 B6 B13 3_545 . . 129.9(5)
Fe1 B6 Fe2 3_546 . . 135.24(14)
Fe1 B6 B3 3_546 . 3_545 68.2(3)
Fe1 B6 B9 3_546 . 3_545 114.7(3)
Fe1 B6 B13 3_546 . 1_554 129.9(5)
Fe1 B6 B13 3_546 . . 65.2(2)
Fe2 B6 B3 . . 3_545 136.0(5)
Fe2 B6 B9 . . 3_545 71.3(3)
Fe2 B6 B13 . . 1_554 72.1(3)
Fe2 B6 B13 . . . 72.1(3)
B3 B6 B9 3_545 . 3_545 64.6(4)
B3 B6 B13 3_545 . 1_554 126.4(2)
B3 B6 B13 3_545 . . 126.4(2)
B9 B6 B13 3_545 . 1_554 114.2(4)
B9 B6 B13 3_545 . . 114.2(4)
B13 B6 B13 1_554 . . 103.7(4)
Fe1 B7 Fe4 . . . 118.3(2)
Fe1 B7 Fe4 . . 1_556 118.3(2)
Fe1 B7 B3 . . . 62.8(3)
Fe1 B7 B3 . . 1_556 62.8(3)
Fe1 B7 B12 . . . 176.4(5)
Fe1 B7 B14 . . . 57.6(3)
Fe4 B7 Fe4 . . 1_556 80.3(3)
Fe4 B7 B3 . . . 57.2(3)
Fe4 B7 B3 . . 1_556 118.1(4)
Fe4 B7 B12 . . . 64.2(3)
Fe4 B7 B14 . . . 139.49(14)
Fe4 B7 B3 1_556 . . 118.1(4)
Fe4 B7 B3 1_556 . 1_556 57.2(3)
Fe4 B7 B12 1_556 . . 64.2(3)
Fe4 B7 B14 1_556 . . 139.49(14)
B3 B7 B3 . . 1_556 103.5(4)
B3 B7 B12 . . . 118.8(3)
B3 B7 B14 . . . 96.3(4)
B3 B7 B12 1_556 . . 118.8(3)
B3 B7 B14 1_556 . . 96.3(4)
B12 B7 B14 . . . 118.8(5)
Fe2 B8 Fe3 . . 4_455 136.17(13)
Fe2 B8 Fe3 . . 4_456 136.17(13)
Fe2 B8 B2 . . . 123.4(5)
Fe2 B8 B11 . . 1_554 74.7(3)
Fe2 B8 B11 . . . 74.7(3)
Fe3 B8 Fe3 4_455 . 4_456 87.6(3)
Fe3 B8 B2 4_455 . . 67.7(3)
Fe3 B8 B11 4_455 . 1_554 67.4(2)
Fe3 B8 B11 4_455 . . 138.0(5)
Fe3 B8 B2 4_456 . . 67.7(3)
Fe3 B8 B11 4_456 . 1_554 138.0(5)
Fe3 B8 B11 4_456 . . 67.4(2)
B2 B8 B11 . . 1_554 125.3(2)
B2 B8 B11 . . . 125.3(2)
B11 B8 B11 1_554 . . 109.0(4)
Fe2 B9 Fe4 3_555 . . 166.9(4)
Fe2 B9 B3 3_555 . . 110.2(4)
Fe2 B9 B5 3_555 . 1_554 119.5(3)
Fe2 B9 B5 3_555 . . 119.5(3)
Fe2 B9 B6 3_555 . 3_555 57.2(3)
Fe2 B9 B10 3_555 . 3_555 65.9(2)
Fe2 B9 B10 3_555 . 3_556 65.9(2)
Fe4 B9 B3 . . . 56.7(3)
Fe4 B9 B5 . . 1_554 66.3(2)
Fe4 B9 B5 . . . 66.3(2)
Fe4 B9 B6 . . 3_555 109.7(4)
Fe4 B9 B10 . . 3_555 120.6(3)
Fe4 B9 B10 . . 3_556 120.6(3)
B3 B9 B5 . . 1_554 98.9(3)
B3 B9 B5 . . . 98.9(3)
B3 B9 B6 . . 3_555 53.1(4)
B3 B9 B10 . . 3_555 127.1(3)
B3 B9 B10 . . 3_556 127.1(3)
B5 B9 B5 1_554 . . 105.9(4)
B5 B9 B6 1_554 . 3_555 124.0(3)
B5 B9 B10 1_554 . 3_555 54.3(3)
B5 B9 B10 1_554 . 3_556 130.1(5)
B5 B9 B6 . . 3_555 124.0(3)
B5 B9 B10 . . 3_555 130.1(5)
B5 B9 B10 . . 3_556 54.3(3)
B6 B9 B10 3_555 . 3_555 101.1(3)
B6 B9 B10 3_555 . 3_556 101.1(3)
B10 B9 B10 3_555 . 3_556 100.6(4)
Fe2 B10 Fe2 . . 1_556 80.1(2)
Fe2 B10 B5 . . 3_546 124.3(3)
Fe2 B10 B5 . . 4_456 111.8(3)
Fe2 B10 B9 . . 3_545 64.3(2)
Fe2 B10 B9 . . 3_546 123.7(4)
Fe2 B10 B11 . . . 69.2(3)
Fe2 B10 B5 1_556 . 3_546 124.3(3)
Fe2 B10 B5 1_556 . 4_456 111.8(3)
Fe2 B10 B9 1_556 . 3_545 123.7(4)
Fe2 B10 B9 1_556 . 3_546 64.3(2)
Fe2 B10 B11 1_556 . . 69.2(3)
B5 B10 B5 3_546 . 4_456 103.6(5)
B5 B10 B9 3_546 . 3_545 60.8(3)
B5 B10 B9 3_546 . 3_546 60.8(3)
B5 B10 B11 3_546 . . 160.3(6)
B5 B10 B9 4_456 . 3_545 121.0(3)
B5 B10 B9 4_456 . 3_546 121.0(3)
B5 B10 B11 4_456 . . 56.7(4)
B9 B10 B9 3_545 . 3_546 100.6(4)
B9 B10 B11 3_545 . . 126.8(2)
B9 B10 B11 3_546 . . 126.8(2)
Fe2 B11 Fe2 . . 1_556 77.6(2)
Fe2 B11 Fe3 . . 4_456 116.8(2)
Fe2 B11 B5 . . 4_456 116.0(3)
Fe2 B11 B8 . . . 57.3(3)
Fe2 B11 B8 . . 1_556 118.7(5)
Fe2 B11 B10 . . . 65.6(3)
Fe2 B11 Fe3 1_556 . 4_456 116.8(2)
Fe2 B11 B5 1_556 . 4_456 116.0(3)
Fe2 B11 B8 1_556 . . 118.7(5)
Fe2 B11 B8 1_556 . 1_556 57.3(3)
Fe2 B11 B10 1_556 . . 65.6(3)
Fe3 B11 B5 4_456 . 4_456 110.4(4)
Fe3 B11 B8 4_456 . . 63.2(3)
Fe3 B11 B8 4_456 . 1_556 63.2(3)
Fe3 B11 B10 4_456 . . 176.7(5)
B5 B11 B8 4_456 . . 120.1(3)
B5 B11 B8 4_456 . 1_556 120.1(3)
B5 B11 B10 4_456 . . 66.2(4)
B8 B11 B8 . . 1_556 109.0(4)
B8 B11 B10 . . . 118.1(3)
B8 B11 B10 1_556 . . 118.1(3)
Fe1 B12 Fe3 3_546 . . 109.3(3)
Fe1 B12 Fe4 3_546 . . 138.34(11)
Fe1 B12 Fe4 3_546 . 1_556 138.34(11)
Fe1 B12 B1 3_546 . . 70.6(3)
Fe1 B12 B1 3_546 . 1_556 70.6(3)
Fe1 B12 B7 3_546 . . 124.3(5)
Fe3 B12 Fe4 . . . 72.9(2)
Fe3 B12 Fe4 . . 1_556 72.9(2)
Fe3 B12 B1 . . . 69.1(3)
Fe3 B12 B1 . . 1_556 69.1(3)
Fe3 B12 B7 . . . 126.4(4)
Fe4 B12 Fe4 . . 1_556 83.0(2)
Fe4 B12 B1 . . . 71.9(2)
Fe4 B12 B1 . . 1_556 139.1(5)
Fe4 B12 B7 . . . 67.7(2)
Fe4 B12 B1 1_556 . . 139.1(5)
Fe4 B12 B1 1_556 . 1_556 71.9(2)
Fe4 B12 B7 1_556 . . 67.7(2)
B1 B12 B1 . . 1_556 107.0(4)
B1 B12 B7 . . . 126.5(2)
B1 B12 B7 1_556 . . 126.5(2)
Fe1 B13 Fe2 3_546 . . 119.4(2)
Fe1 B13 Fe2 3_546 . 1_556 119.4(2)
Fe1 B13 B6 3_546 . . 64.2(3)
Fe1 B13 B6 3_546 . 1_556 64.2(3)
Fe1 B13 B14 3_546 . . 175.7(5)
Fe2 B13 Fe2 . . 1_556 80.4(3)
Fe2 B13 B6 . . . 56.6(3)
Fe2 B13 B6 . . 1_556 117.7(4)
Fe2 B13 B14 . . . 63.6(3)
Fe2 B13 B6 1_556 . . 117.7(4)
Fe2 B13 B6 1_556 . 1_556 56.6(3)
Fe2 B13 B14 1_556 . . 63.6(3)
B6 B13 B6 . . 1_556 103.7(4)
B6 B13 B14 . . . 117.8(4)
B6 B13 B14 1_556 . . 117.8(4)
Fe1 B14 Fe2 . . . 134.09(16)
Fe1 B14 Fe2 . . 1_556 134.09(16)
Fe1 B14 B4 . . . 70.3(3)
Fe1 B14 B4 . . 1_556 70.3(3)
Fe1 B14 B7 . . . 71.2(3)
Fe1 B14 B13 . . . 136.4(5)
Fe2 B14 Fe2 . . 1_556 85.3(2)
Fe2 B14 B4 . . . 65.0(2)
Fe2 B14 B4 . . 1_556 130.4(5)
Fe2 B14 B7 . . . 116.7(3)
Fe2 B14 B13 . . . 70.2(3)
Fe2 B14 B4 1_556 . . 130.4(5)
Fe2 B14 B4 1_556 . 1_556 65.0(2)
Fe2 B14 B7 1_556 . . 116.7(3)
Fe2 B14 B13 1_556 . . 70.2(3)
B4 B14 B4 . . 1_556 104.5(4)
B4 B14 B7 . . . 112.1(4)
B4 B14 B13 . . . 126.6(2)
B4 B14 B7 1_556 . . 112.1(4)
B4 B14 B13 1_556 . . 126.6(2)
B7 B14 B13 . . . 65.2(4)
loop_
_geom_bond_atom_site_label_1
_geom_bond_atom_site_label_2
_geom_bond_site_symmetry_1
_geom_bond_site_symmetry_2
_geom_bond_distance
Fe1 Fe1 . 1_554 2.8218(2)
Fe1 Fe1 . 1_556 2.8218(2)
Fe1 B1 . 3_555 2.208(5)
Fe1 B1 . 3_556 2.208(5)
Fe1 B3 . . 2.114(5)
Fe1 B3 . 1_556 2.114(5)
Fe1 B4 . . 2.165(5)
Fe1 B4 . 1_556 2.165(5)
Fe1 B6 . 3_555 2.091(6)
Fe1 B6 . 3_556 2.091(6)
Fe1 B7 . . 2.203(7)
Fe1 B12 . 3_556 2.044(6)
Fe1 B13 . 3_556 2.107(7)
Fe1 B14 . . 1.966(6)
Fe2 Fe2 . 1_554 2.8218(2)
Fe2 Fe2 . 1_556 2.8218(2)
Fe2 B4 . . 2.091(6)
Fe2 B6 . . 1.918(7)
Fe2 B8 . . 1.964(7)
Fe2 B9 . 3_545 2.163(6)
Fe2 B10 . 1_554 2.193(5)
Fe2 B10 . . 2.193(5)
Fe2 B11 . 1_554 2.250(6)
Fe2 B11 . . 2.250(6)
Fe2 B13 . 1_554 2.187(6)
Fe2 B13 . . 2.187(6)
Fe2 B14 . 1_554 2.082(5)
Fe2 B14 . . 2.082(5)
Fe3 Fe3 . 1_554 2.8218(2)
Fe3 Fe3 . 1_556 2.8218(2)
Fe3 Fe3 . 2_655 2.5060(11)
Fe3 Fe4 . . 2.5294(10)
Fe3 Fe4 . 1_556 2.5294(10)
Fe3 B1 . . 2.226(6)
Fe3 B1 . 1_556 2.226(6)
Fe3 B2 . 3_545 2.083(4)
Fe3 B2 . 3_546 2.083(4)
Fe3 B2 . 4_555 2.090(5)
Fe3 B2 . 4_556 2.090(5)
Fe3 B8 . 4_555 2.038(5)
Fe3 B8 . 4_556 2.038(5)
Fe3 B11 . 4_556 2.108(6)
Fe3 B12 . . 2.131(8)
Fe4 Fe4 . 1_554 2.8218(2)
Fe4 Fe4 . 1_556 2.8218(2)
Fe4 B1 . . 2.301(6)
Fe4 B3 . . 1.940(7)
Fe4 B5 . 1_554 2.203(5)
Fe4 B5 . . 2.203(5)
Fe4 B7 . 1_554 2.188(6)
Fe4 B7 . . 2.188(6)
Fe4 B9 . . 2.203(5)
Fe4 B12 . 1_554 2.129(5)
Fe4 B12 . . 2.129(5)
B1 B2 . 3_545 1.687(10)
B1 B4 . 3_545 1.840(8)
B1 B12 . 1_554 1.755(5)
B1 B12 . . 1.755(5)
B2 B2 . 2_565 1.781(10)
B2 B4 . . 1.779(10)
B2 B8 . . 1.675(8)
B3 B6 . 3_555 1.613(8)
B3 B7 . 1_554 1.797(5)
B3 B7 . . 1.797(5)
B3 B9 . . 1.824(10)
B4 B14 . 1_554 1.784(6)
B4 B14 . . 1.784(6)
B5 B9 . . 1.768(6)
B5 B9 . 1_556 1.768(6)
B5 B10 . 3_556 1.645(8)
B5 B10 . 4_556 1.863(11)
B5 B11 . 4_556 1.702(10)
B6 B9 . 3_545 1.787(11)
B6 B13 . 1_554 1.794(5)
B6 B13 . . 1.794(5)
B7 B12 . . 1.759(9)
B7 B14 . . 1.813(11)
B8 B11 . 1_554 1.734(5)
B8 B11 . . 1.734(5)
B9 B10 . 3_555 1.834(6)
B9 B10 . 3_556 1.834(6)
B10 B11 . . 1.708(9)
B13 B14 . . 1.680(9)
loop_
_refln_index_h
_refln_index_k
_refln_index_l
_refln_F_squared_calc
_refln_F_squared_meas
_refln_F_squared_sigma
_refln_observed_status
0 0 1 0.59 -0.13 1.42 <
0 0 2 104126.00 97259.40 769.89 o
0 0 3 9.41 5.33 12.59 <
0 2 1 27735.90 26351.80 189.19 o
0 2 2 407.02 403.00 24.05 o
0 2 3 5751.32 5687.36 128.36 o
0 4 0 1270.56 1265.28 36.70 o
0 4 1 5720.36 5753.51 107.44 o
0 4 2 464.90 472.41 28.54 o
0 4 3 1744.97 1389.77 74.31 o
0 4 4 68.10 23.62 12.99 <
0 6 0 413.02 417.43 25.31 o
0 6 1 930.91 882.25 42.70 o
0 6 2 229.61 138.31 27.03 o
0 6 4 98.93 75.83 32.15 o
0 8 0 38.81 55.06 11.76 o
0 8 1 1324.08 1458.41 55.42 o
0 8 2 18.51 10.79 6.21 <
0 10 0 55.08 55.90 11.72 o
0 10 1 1580.20 1626.74 61.44 o
0 10 2 40.35 22.62 9.54 o
0 12 0 1729.83 1916.83 62.72 o
0 12 1 3198.82 3640.29 91.56 o
0 12 2 1242.82 1173.08 86.60 o
0 14 0 8933.21 9422.32 241.79 o
0 14 1 67.48 92.94 34.54 o
0 14 2 6282.75 5760.30 296.58 o
1 1 1 6355.66 6189.03 51.67 o
1 1 2 760.49 731.97 21.74 o
1 1 3 1374.87 1315.62 46.88 o
1 2 1 607.38 512.40 14.58 o
1 2 2 117.25 94.67 8.28 o
1 2 3 96.69 44.01 8.97 o
1 2 4 30.69 17.72 10.83 <
1 3 1 6413.12 6276.25 56.46 o
1 3 2 938.15 892.57 26.89 o
1 3 3 1546.81 1475.54 59.91 o
1 3 4 168.69 161.86 41.98 o
1 4 0 4434.65 4696.01 89.82 o
1 4 1 188.44 177.83 11.30 o
1 4 2 1775.80 1807.20 46.42 o
1 4 3 28.12 8.44 6.87 <
1 4 4 301.92 276.90 35.87 o
1 5 0 16106.30 16423.30 109.85 o
1 5 1 12.33 10.31 4.40 o
1 5 2 7137.30 7342.09 97.13 o
1 5 3 0.81 -5.12 7.41 <
1 5 4 1878.17 1938.38 112.76 o
1 6 0 6815.19 6710.24 63.89 o
1 6 1 9466.20 9400.59 86.72 o
1 6 2 3037.53 3059.15 65.56 o
1 6 3 3107.62 3056.04 134.40 o
1 6 4 734.35 762.34 108.82 o
1 7 0 1474.85 1477.96 35.04 o
1 7 1 69.79 60.99 6.71 o
1 7 2 774.38 776.40 33.19 o
1 7 3 3.80 3.13 28.16 <
1 8 0 32.71 28.26 5.25 o
1 8 1 7031.26 7130.09 82.43 o
1 8 2 66.63 43.25 7.27 o
1 8 3 2175.67 2418.64 236.98 o
1 9 0 1138.89 1169.24 33.89 o
1 9 1 2129.80 2140.70 50.83 o
1 9 2 615.14 602.73 29.58 o
1 9 3 914.77 1063.95 160.21 o
1 10 0 10644.80 11142.00 118.39 o
1 10 1 636.93 646.30 28.16 o
1 10 2 6326.75 6387.20 96.27 o
1 10 3 365.34 298.67 72.02 o
1 11 0 62.56 57.52 7.33 o
1 11 1 399.20 447.91 23.26 o
1 11 2 36.63 19.22 12.30 <
1 11 3 204.40 23.05 36.34 <
1 12 0 31.55 36.84 7.33 o
1 12 1 2800.00 3033.21 62.18 o
1 12 2 17.21 15.42 12.02 <
1 13 0 2793.92 2819.99 91.12 o
1 13 1 37.10 31.49 12.74 o
1 13 2 1971.78 1972.75 112.05 o
1 14 0 981.59 982.89 77.64 o
1 14 1 203.28 229.98 39.27 o
1 14 2 697.19 650.65 76.44 o
1 15 1 3867.41 4470.21 196.18 o
1 15 2 51.27 22.60 22.72 <
2 0 1 677.63 727.66 25.78 o
2 0 2 154.42 140.24 12.41 o
2 0 3 82.41 40.31 11.65 o
2 1 0 317.02 332.31 15.60 o
2 1 1 229.48 231.93 11.32 o
2 1 2 155.21 157.15 11.08 o
2 1 3 51.54 23.46 9.98 o
2 2 0 4067.44 4448.84 112.82 o
2 2 1 111.03 66.92 5.78 o
2 2 2 1479.85 1445.46 34.48 o
2 2 3 5.30 13.64 7.55 <
2 2 4 219.46 283.86 41.02 o
2 3 0 935.60 933.75 38.89 o
2 3 1 4701.60 4745.71 50.65 o
2 3 2 411.02 421.31 19.13 o
2 3 3 1221.31 1169.52 46.58 o
2 3 4 66.53 55.68 21.32 o
2 4 1 14320.50 14316.70 96.46 o
2 4 2 2844.39 2966.86 52.95 o
2 4 3 3719.96 3603.52 100.11 o
2 4 4 563.79 642.76 92.57 o
2 5 1 18891.50 18805.20 128.79 o
2 5 2 2867.72 2935.39 61.57 o
2 5 3 5554.80 5614.54 181.94 o
2 5 4 803.95 824.35 95.75 o
2 6 0 5339.59 5074.70 76.86 o
2 6 1 4920.66 4739.31 63.16 o
2 6 2 2511.43 2584.47 58.11 o
2 6 3 1697.57 1701.17 95.59 o
2 6 4 703.99 755.11 103.12 o
2 7 0 25465.50 23178.10 217.69 o
2 7 1 1739.85 1728.59 38.94 o
2 7 2 12723.10 13036.40 142.35 o
2 7 3 511.92 603.30 76.77 o
2 7 4 3763.22 4578.11 330.79 o
2 8 0 428.68 403.62 32.17 o
2 8 1 633.84 682.73 29.72 o
2 8 2 185.37 168.10 15.59 o
2 8 3 233.13 221.29 69.93 o
2 9 0 1753.87 1760.72 67.39 o
2 9 1 5519.16 5688.30 87.67 o
2 9 2 1046.33 1076.72 39.71 o
2 9 3 2070.67 2341.91 222.86 o
2 10 0 3827.33 3712.86 103.05 o
2 10 1 3566.76 3618.68 70.41 o
2 10 2 2306.06 2274.04 59.21 o
2 10 3 1512.04 1562.09 177.23 o
2 11 0 19.80 13.01 6.56 <
2 11 1 197.66 198.84 15.94 o
2 11 2 9.89 6.66 9.96 <
2 12 0 987.76 970.44 56.90 o
2 12 1 609.41 550.17 27.91 o
2 12 2 617.47 572.24 50.65 o
2 13 0 34.82 21.06 8.72 o
2 13 1 584.25 570.09 90.37 o
2 13 2 17.04 7.26 8.55 <
2 14 0 50.08 35.55 19.19 <
2 14 1 37.43 32.30 22.60 <
2 14 2 52.04 17.91 18.54 <
2 15 1 1090.54 1314.04 124.82 o
2 15 2 412.49 157.68 44.42 o
3 1 0 1407.17 1545.54 50.66 o
3 1 1 2072.80 2393.80 39.03 o
3 1 2 573.79 560.04 21.21 o
3 1 3 417.07 360.69 20.95 o
3 2 0 10698.80 11673.80 276.58 o
3 2 1 2072.64 2181.36 37.09 o
3 2 2 4177.94 4283.24 70.93 o
3 2 3 496.31 562.38 28.50 o
3 2 4 846.13 1064.38 84.97 o
3 3 0 12393.50 12439.80 293.90 o
3 3 1 97.30 101.03 6.99 o
3 3 2 4978.67 4940.88 76.92 o
3 3 3 36.68 16.81 20.19 <
3 3 4 1010.88 1295.68 120.31 o
3 4 0 1097.65 1083.84 47.76 o
3 4 1 7888.77 7901.79 71.79 o
3 4 2 439.03 410.74 19.96 o
3 4 3 1948.89 1916.41 64.78 o
3 4 4 76.78 58.71 31.01 <
3 5 0 160.56 136.71 10.59 o
3 5 1 16026.90 16445.20 116.00 o
3 5 2 66.34 48.72 7.77 o
3 5 3 4735.88 4620.01 162.81 o
3 5 4 10.52 2.45 7.76 <
3 6 0 350.54 343.09 20.57 o
3 6 1 4184.08 4066.86 65.19 o
3 6 2 134.25 112.24 13.82 o
3 6 3 1474.99 1241.33 67.74 o
3 6 4 16.16 12.33 7.06 <
3 7 0 514.63 490.61 23.33 o
3 7 1 683.17 623.30 32.11 o
3 7 2 249.69 225.69 20.41 o
3 7 3 292.88 241.38 45.66 o
3 7 4 72.77 37.72 20.59 <
3 8 0 2943.23 3014.27 62.69 o
3 8 1 565.98 557.38 34.07 o
3 8 2 1342.02 1336.96 51.07 o
3 8 3 236.83 228.26 68.68 o
3 9 0 1142.27 1099.76 56.79 o
3 9 1 1640.01 1682.54 58.13 o
3 9 2 636.52 638.31 36.11 o
3 9 3 619.17 688.28 116.69 o
3 10 0 888.60 834.01 49.54 o
3 10 1 12832.20 13321.80 168.19 o
3 10 2 613.89 538.48 32.52 o
3 10 3 5506.17 6136.39 330.98 o
3 11 0 2108.34 2040.55 80.19 o
3 11 1 437.87 432.00 29.69 o
3 11 2 1352.54 1284.46 84.74 o
3 12 0 6748.66 6542.06 152.20 o
3 12 1 70.37 59.85 11.89 o
3 12 2 4322.44 5027.00 230.58 o
3 13 0 9.69 3.12 7.31 <
3 13 1 3.65 6.14 12.03 <
3 13 2 11.16 57.54 67.45 <
3 14 0 647.13 526.00 78.35 o
3 14 1 695.04 542.64 96.64 o
3 14 2 484.03 498.79 68.97 o
3 15 1 308.59 226.75 54.25 o
4 0 1 81231.20 78277.10 747.86 o
4 0 2 751.14 702.08 34.04 o
4 0 3 18744.20 18629.60 276.38 o
4 0 4 215.79 197.55 30.91 o
4 1 0 4080.74 4394.85 123.07 o
4 1 1 1183.38 1237.18 26.31 o
4 1 2 1671.60 1593.26 40.02 o
4 1 3 281.99 264.92 18.06 o
4 1 4 344.45 620.18 47.66 o
4 2 0 30296.50 33117.10 757.12 o
4 2 1 2285.21 2268.60 34.20 o
4 2 2 12088.30 12805.10 134.57 o
4 2 3 603.22 597.42 28.70 o
4 2 4 2419.33 3475.77 146.37 o
4 3 0 4214.86 4886.73 135.41 o
4 3 1 10358.60 10676.70 93.55 o
4 3 2 1638.46 1660.49 42.89 o
4 3 3 2601.75 2713.92 67.62 o
4 3 4 368.27 457.81 65.53 o
4 4 0 2081.03 2290.70 77.25 o
4 4 1 1732.81 1703.89 32.50 o
4 4 2 976.71 1061.04 34.53 o
4 4 3 425.84 424.34 30.30 o
4 4 4 287.46 280.09 59.50 o
4 5 0 2603.40 2759.17 96.34 o
4 5 1 35.08 32.54 4.26 o
4 5 2 1099.92 1072.34 33.19 o
4 5 3 30.90 9.79 8.97 <
4 5 4 232.16 135.38 46.02 o
4 6 0 463.33 532.97 26.24 o
4 6 1 22.10 17.08 3.26 o
4 6 2 238.22 226.08 15.35 o
4 6 3 17.02 6.54 11.97 <
4 6 4 80.97 30.14 19.71 <
4 7 0 950.48 910.84 36.74 o
4 7 1 17.31 6.73 4.92 <
4 7 2 566.81 526.90 29.06 o
4 7 3 0.30 -7.67 10.65 <
4 8 0 358.78 348.15 20.55 o
4 8 1 24.53 72.64 17.45 o
4 8 2 162.13 135.93 17.72 o
4 8 3 16.33 11.42 10.67 <
4 9 0 1410.79 1147.89 36.65 o
4 9 1 25.88 13.22 5.92 o
4 9 2 773.74 824.53 41.96 o
4 9 3 35.90 12.85 10.99 <
4 10 1 11.26 0.89 5.42 <
4 10 2 692.39 618.93 37.19 o
4 10 3 2.93 9.42 8.67 <
4 11 1 3350.49 3430.13 98.82 o
4 11 2 1081.86 1152.29 122.25 o
4 12 0 3370.95 3361.11 109.67 o
4 12 1 0.07 1.31 5.70 <
4 12 2 2170.74 2466.11 170.54 o
4 13 0 1495.52 1227.85 111.54 o
4 13 1 1563.29 1573.56 111.89 o
4 13 2 1056.35 1014.76 109.86 o
4 14 0 6.14 -0.22 7.88 <
4 14 1 4614.99 3995.94 187.80 o
4 14 2 2.61 -11.59 14.96 <
4 15 0 2.10 15.90 10.19 <
4 15 1 189.09 156.22 48.42 o
5 1 0 13766.60 14114.90 339.43 o
5 1 1 3616.64 3675.74 55.47 o
5 1 2 5403.03 5366.06 88.12 o
5 1 3 820.24 792.16 33.04 o
5 1 4 1079.56 1224.34 66.36 o
5 2 0 80.28 63.83 9.68 o
5 2 1 5934.70 6053.80 65.79 o
5 2 2 52.75 41.40 6.36 o
5 2 3 1576.13 1625.93 50.40 o
5 2 4 18.55 5.21 10.63 <
5 3 0 1149.93 1190.00 51.39 o
5 3 1 12189.20 12746.70 114.60 o
5 3 2 557.49 592.42 26.37 o
5 3 3 3029.21 3101.76 77.04 o
5 3 4 153.01 149.22 27.53 o
5 4 0 522.90 531.42 32.75 o
5 4 1 879.02 903.33 21.95 o
5 4 2 251.79 270.83 16.45 o
5 4 3 177.78 191.95 20.80 o
5 4 4 69.78 36.57 16.01 o
5 5 0 6427.62 6887.90 190.44 o
5 5 1 8566.61 8546.96 90.39 o
5 5 2 2941.10 3042.18 56.02 o
5 5 3 3016.15 2975.73 84.44 o
5 5 4 789.97 809.72 110.34 o
5 6 0 8591.09 8959.11 248.45 o
5 6 1 629.96 711.82 23.81 o
5 6 2 4229.33 4180.69 67.92 o
5 6 3 56.60 33.45 7.78 o
5 6 4 1243.31 1156.47 133.95 o
5 7 0 683.94 695.67 34.90 o
5 7 1 1298.50 1379.86 31.89 o
5 7 2 340.31 318.37 18.33 o
5 7 3 442.23 363.98 39.44 o
5 8 0 10187.00 9991.03 136.50 o
5 8 1 1026.50 1060.69 44.73 o
5 8 2 5594.57 5590.39 113.47 o
5 8 3 312.40 260.04 34.42 o
5 9 0 218.79 189.60 16.58 o
5 9 1 6.31 36.64 15.45 o
5 9 2 137.05 109.52 15.89 o
5 9 3 2.90 7.23 11.63 <
5 10 0 794.78 636.94 25.46 o
5 10 1 2486.56 2468.04 86.00 o
5 10 2 519.70 605.32 40.76 o
5 10 3 1053.63 1089.02 137.59 o
5 11 1 85.33 54.43 12.46 o
5 11 2 0.15 22.49 26.42 <
5 12 1 1394.58 1384.05 63.53 o
5 12 2 252.70 172.47 43.28 o
5 13 1 3547.19 3143.28 160.25 o
5 13 2 112.95 17.75 22.45 <
5 14 1 483.26 456.44 61.83 o
5 14 2 27.46 19.33 22.91 <
5 15 1 3.31 -20.17 26.48 <
6 0 1 1257.03 1382.91 49.46 o
6 0 2 991.16 989.06 49.45 o
6 0 3 379.65 402.32 36.03 o
6 0 4 154.87 161.55 34.14 o
6 1 0 497.20 429.03 30.92 o
6 1 1 652.03 652.74 21.67 o
6 1 2 244.90 228.26 15.81 o
6 1 3 198.53 171.09 15.23 o
6 1 4 50.40 34.55 10.26 o
6 2 0 66.22 152.22 18.21 o
6 2 1 5927.19 5918.69 73.21 o
6 2 2 9.87 4.17 4.63 <
6 2 3 1542.86 1527.59 49.52 o
6 2 4 6.54 -0.15 6.82 <
6 3 0 4015.08 4231.35 128.44 o
6 3 1 182.49 163.74 9.46 o
6 3 2 1861.29 1971.59 50.02 o
6 3 3 27.30 17.80 28.54 <
6 3 4 537.97 614.80 51.57 o
6 4 0 5771.55 6393.06 180.05 o
6 4 1 84.70 89.67 9.35 o
6 4 2 2609.48 2639.49 53.82 o
6 4 3 57.31 35.56 9.10 o
6 4 4 725.05 851.38 70.11 o
6 5 0 32032.70 32414.40 745.81 o
6 5 1 2936.81 3012.13 49.64 o
6 5 2 15431.30 15536.90 149.72 o
6 5 3 1286.09 1235.94 52.38 o
6 5 4 4526.75 4636.47 214.51 o
6 6 0 0.97 0.83 3.27 <
6 6 1 551.59 534.70 23.66 o
6 6 2 0.16 7.77 3.93 <
6 6 3 140.49 106.90 20.83 o
6 7 0 3197.94 3260.71 125.41 o
6 7 1 23342.30 24401.60 252.92 o
6 7 2 2003.31 1986.90 47.53 o
6 7 3 7466.01 7784.28 192.72 o
6 8 0 2.43 2.05 4.86 <
6 8 1 400.97 438.18 22.43 o
6 8 2 1.10 -5.28 3.15 <
6 8 3 163.25 111.44 25.49 o
6 9 0 13983.20 13109.00 169.61 o
6 9 1 4.18 4.00 3.14 <
6 9 2 8209.90 8527.48 161.77 o
6 9 3 0.03 2.94 9.62 <
6 10 0 1198.67 939.56 36.89 o
6 10 1 137.91 133.35 20.24 o
6 10 2 751.68 601.33 50.79 o
6 10 3 58.97 59.42 31.58 <
6 11 1 43.80 33.12 11.99 o
6 11 2 253.45 325.68 64.61 o
6 12 1 206.59 184.72 22.61 o
6 12 2 124.12 101.31 56.74 <
6 13 1 23.47 13.24 16.01 <
6 13 2 1548.65 1625.40 206.94 o
6 14 1 79.85 8.71 14.86 <
6 14 2 303.62 270.19 78.09 o
6 15 1 32.78 13.64 16.01 <
7 1 0 1629.48 1294.69 61.35 o
7 1 1 2133.59 1920.47 53.66 o
7 1 2 679.40 738.32 31.07 o
7 1 3 492.10 481.82 32.29 o
7 1 4 43.34 44.99 15.32 o
7 2 0 1509.36 1393.55 64.73 o
7 2 1 12463.40 12008.80 136.12 o
7 2 2 680.09 664.94 27.28 o
7 2 3 3588.29 3665.13 88.82 o
7 2 4 171.16 181.94 46.80 o
7 3 0 779.72 853.32 47.38 o
7 3 1 9610.92 9565.02 122.23 o
7 3 2 312.22 298.86 17.72 o
7 3 3 2625.42 2871.61 83.39 o
7 3 4 71.53 46.94 14.06 o
7 4 0 6870.73 7253.86 203.82 o
7 4 1 263.82 261.70 14.79 o
7 4 2 3204.90 3306.28 63.14 o
7 4 3 81.26 56.47 10.91 o
7 4 4 895.34 978.97 73.03 o
7 5 0 7004.23 7273.52 207.91 o
7 5 1 0.06 0.32 4.00 <
7 5 2 3478.08 3468.27 65.53 o
7 5 3 0.79 -8.24 6.23 <
7 5 4 1030.83 1028.33 123.81 o
7 6 0 321.23 360.78 31.22 o
7 6 1 1238.99 1199.95 33.78 o
7 6 2 188.65 196.50 14.58 o
7 6 3 463.17 444.30 41.72 o
7 7 0 2.41 2.09 3.29 <
7 7 1 77.81 81.46 9.51 o
7 7 2 2.61 6.88 3.98 <
7 7 3 24.54 13.52 14.25 <
7 8 0 3976.00 4473.96 167.57 o
7 8 1 639.07 674.91 28.31 o
7 8 2 2179.34 2256.77 52.17 o
7 8 3 227.63 196.38 34.63 o
7 9 0 857.38 910.79 47.22 o
7 9 1 17.82 8.21 6.45 <
7 9 2 495.77 540.02 32.57 o
7 9 3 12.20 2.28 11.77 <
7 10 0 9214.08 8024.97 131.16 o
7 10 1 1786.97 1954.10 77.30 o
7 10 2 5769.97 5792.72 417.80 o
7 11 0 53.05 30.53 7.07 o
7 11 1 1615.35 1654.05 72.59 o
7 11 2 53.83 28.63 28.66 <
7 12 1 7219.26 6314.60 225.39 o
7 13 1 1352.96 1157.32 93.78 o
7 13 2 437.36 376.38 102.21 o
7 14 1 1247.37 1174.58 146.46 o
7 15 1 303.16 165.48 58.98 o
8 0 2 3676.63 3639.14 107.68 o
8 0 3 5387.36 5185.61 181.85 o
8 0 4 800.10 1038.89 123.71 o
8 1 0 12.34 5.22 3.39 <
8 1 1 8893.29 9052.19 259.30 o
8 1 2 3.81 3.13 3.61 <
8 1 3 2639.79 2512.86 76.22 o
8 1 4 1.03 -0.57 15.49 <
8 2 0 9549.19 9898.88 266.50 o
8 2 1 7880.78 7804.26 183.96 o
8 2 2 4330.18 4324.46 73.51 o
8 2 3 2220.60 2312.33 78.02 o
8 3 0 24221.80 25167.40 602.78 o
8 3 1 5470.72 5719.18 122.46 o
8 3 2 11211.60 11405.20 132.94 o
8 3 3 1778.95 1838.83 67.97 o
8 3 4 3100.99 3566.77 145.31 o
8 4 0 2426.99 2510.88 98.18 o
8 4 1 76.62 92.73 9.89 o
8 4 2 1182.94 1217.83 36.98 o
8 4 3 19.76 18.13 7.20 o
8 4 4 351.08 430.08 67.79 o
8 5 0 352.13 368.09 33.14 o
8 5 1 2844.31 2868.00 61.40 o
8 5 2 263.38 277.86 16.85 o
8 5 3 681.70 680.63 52.37 o
8 6 0 1211.36 1249.93 65.81 o
8 6 1 0.02 -2.36 2.06 <
8 6 2 674.80 704.36 27.91 o
8 6 3 1.21 -6.23 12.36 <
8 7 0 806.97 822.51 52.39 o
8 7 1 1230.46 1364.60 39.38 o
8 7 2 343.93 348.05 18.73 o
8 7 3 596.81 668.34 87.19 o
8 8 0 279.05 353.81 42.26 o
8 8 1 219.34 202.85 16.38 o
8 8 2 141.52 150.36 15.83 o
8 8 3 88.81 56.85 20.01 o
8 9 0 431.47 422.84 49.31 o
8 9 1 4389.00 4317.94 94.67 o
8 9 2 246.73 265.84 25.67 o
8 10 0 408.59 414.93 28.11 o
8 10 1 10.50 12.12 26.20 <
8 10 2 272.45 317.34 60.00 o
8 11 0 1818.04 1374.54 54.04 o
8 11 1 2944.78 3114.28 145.12 o
8 12 1 788.12 817.53 107.19 o
8 13 1 1778.65 1613.81 144.33 o
9 1 1 6915.65 6728.50 213.85 o
9 1 2 14.44 2.06 4.08 <
9 1 3 2008.04 1852.06 89.76 o
9 1 4 34.64 -5.40 26.90 <
9 2 0 9133.07 9015.56 252.24 o
9 2 1 1785.52 1720.97 67.99 o
9 2 2 4331.67 4307.59 74.60 o
9 2 3 651.09 649.23 43.03 o
9 2 4 1255.85 1461.88 137.98 o
9 3 0 23280.10 22784.00 560.42 o
9 3 1 437.55 437.74 25.47 o
9 3 2 11095.50 11201.30 132.99 o
9 3 3 199.78 168.67 20.48 o
9 3 4 3065.20 3279.00 202.17 o
9 4 0 43.35 38.21 11.32 o
9 4 1 1414.31 1403.65 51.71 o
9 4 2 20.20 10.49 3.24 o
9 4 3 353.15 351.87 40.97 o
9 5 0 1560.44 1537.95 77.21 o
9 5 1 9455.89 10849.00 209.70 o
9 5 2 981.41 1024.67 31.82 o
9 5 3 3031.67 3208.01 124.56 o
9 6 0 108.44 142.96 20.05 o
9 6 1 792.79 808.88 30.74 o
9 6 2 49.81 44.34 7.46 o
9 6 3 257.12 238.77 38.91 o
9 7 0 1023.07 1124.75 64.58 o
9 7 1 826.69 849.87 30.83 o
9 7 2 529.41 601.96 29.16 o
9 7 3 356.55 329.49 77.68 o
9 8 0 1249.87 1338.37 75.61 o
9 8 1 2101.91 2168.98 54.40 o
9 8 2 809.37 876.91 42.27 o
9 8 3 959.30 1052.69 132.93 o
9 9 0 1828.81 1907.62 103.48 o
9 9 1 842.64 917.30 38.31 o
9 9 2 1168.24 1156.72 54.36 o
9 9 3 379.23 366.82 86.94 o
9 10 0 1.92 -16.02 6.65 <
9 10 1 1625.20 1877.85 117.10 o
9 10 2 2.10 5.24 12.39 <
9 11 0 98.02 87.54 14.36 o
9 12 0 1844.42 1364.83 81.05 o
9 13 1 152.26 146.22 43.63 o
10 0 2 707.24 733.29 52.86 o
10 0 3 2505.83 2157.60 162.06 o
10 0 4 152.85 173.17 66.44 o
10 1 1 1287.91 1224.68 135.19 o
10 1 2 64.03 45.63 8.51 o
10 1 3 435.21 294.86 36.30 o
10 1 4 17.05 24.68 21.33 <
10 2 0 3789.42 3542.58 130.93 o
10 2 1 1188.26 1055.03 53.22 o
10 2 2 1944.93 1896.87 47.77 o
10 2 3 257.86 214.11 28.56 o
10 3 0 276.84 272.39 30.98 o
10 3 1 312.91 322.48 23.08 o
10 3 2 123.03 127.16 11.83 o
10 3 3 106.73 72.44 16.97 o
10 4 0 8880.78 8889.87 264.45 o
10 4 1 113.21 101.86 13.16 o
10 4 2 4767.64 4933.51 82.23 o
10 4 3 51.58 37.33 14.41 o
10 5 0 889.68 870.85 57.42 o
10 5 1 10442.70 11585.70 227.38 o
10 5 2 624.41 645.34 28.54 o
10 5 3 3542.25 3748.26 188.16 o
10 6 0 54.51 40.85 17.17 o
10 6 1 2452.10 2718.85 80.02 o
10 6 2 35.88 21.21 5.11 o
10 6 3 996.13 1245.85 145.08 o
10 7 0 21244.60 23935.90 593.13 o
10 7 1 216.05 189.32 18.05 o
10 7 2 11833.10 13230.00 200.88 o
10 7 3 66.56 43.55 31.17 <
10 8 0 2.72 1.59 4.17 <
10 8 1 1088.72 1144.50 39.03 o
10 8 2 2.57 9.32 5.19 <
10 8 3 502.45 516.81 93.76 o
10 9 0 191.40 197.42 28.11 o
10 9 1 9269.82 9447.61 162.82 o
10 9 2 107.39 114.78 21.12 o
10 9 3 4150.00 3990.05 277.42 o
10 10 0 802.96 856.11 73.11 o
10 10 1 73.64 51.71 10.63 o
10 10 2 497.61 570.05 51.76 o
10 11 0 78.53 54.68 33.50 <
10 11 1 142.82 211.43 52.21 o
10 11 2 43.90 8.63 10.20 <
10 12 0 54.46 44.04 14.16 o
11 1 2 4281.07 4174.94 87.75 o
11 1 3 408.90 198.41 28.60 o
11 2 0 2719.88 2476.91 109.55 o
11 2 1 5.77 7.24 5.15 <
11 2 2 1365.91 1370.94 41.27 o
11 2 3 6.24 0.23 3.81 <
11 3 0 4127.32 3944.72 145.67 o
11 3 1 24.52 13.74 5.61 o
11 3 2 2144.53 2106.66 57.95 o
11 3 3 2.45 13.99 20.36 <
11 4 0 341.58 306.53 35.11 o
11 4 1 202.21 188.29 18.77 o
11 4 2 146.27 133.51 14.19 o
11 4 3 64.20 26.92 15.14 <
11 5 0 601.79 700.03 54.65 o
11 5 1 0.58 -0.15 4.61 <
11 5 2 345.25 364.43 20.95 o
11 5 3 4.36 -3.78 18.62 <
11 6 0 2479.86 2567.84 113.82 o
11 6 1 1281.06 1484.68 58.31 o
11 6 2 1372.14 1402.37 47.89 o
11 6 3 486.55 559.04 100.21 o
11 7 0 2.68 -1.77 3.82 <
11 7 1 242.32 237.83 20.77 o
11 7 2 2.39 -4.47 7.08 <
11 7 3 110.20 45.22 30.59 <
11 8 0 36.00 27.99 10.05 o
11 8 1 8819.16 9748.04 203.76 o
11 8 2 25.72 27.20 10.24 o
11 8 3 4003.46 4691.84 276.48 o
11 9 0 1387.26 1553.29 88.53 o
11 9 1 7.33 7.34 3.84 <
11 9 2 903.47 1003.31 72.54 o
11 9 3 0.77 22.04 23.99 <
11 10 0 4730.37 5043.52 284.90 o
11 10 1 2740.14 2723.94 82.67 o
11 10 2 3108.88 3580.08 135.41 o
11 11 1 988.94 920.08 69.61 o
11 11 2 957.71 1449.20 141.58 o
11 12 1 377.38 539.09 97.11 o
12 0 2 21047.70 20152.60 420.37 o
12 1 2 1440.67 1565.46 90.93 o
12 1 3 245.99 102.86 22.95 o
12 2 0 26.95 21.94 18.96 <
12 2 1 7219.55 7049.35 188.49 o
12 2 2 9.52 8.61 10.85 <
12 3 0 676.45 587.34 49.52 o
12 3 1 7005.81 6675.86 178.09 o
12 3 2 411.85 400.76 29.94 o
12 3 3 2466.81 2333.97 163.71 o
12 4 0 50.89 40.25 13.11 o
12 4 1 796.90 776.78 40.52 o
12 4 2 33.70 29.21 7.75 o
12 4 3 343.00 317.29 91.05 o
12 5 0 4902.20 5038.89 186.49 o
12 5 1 148.79 160.42 18.18 o
12 5 2 2618.33 2698.29 80.97 o
12 5 3 75.75 1.76 16.94 <
12 6 0 13.27 16.28 6.25 o
12 6 1 1635.46 1762.65 68.07 o
12 6 2 17.17 2.02 5.73 <
12 6 3 715.66 685.47 129.17 o
12 7 0 870.19 931.38 66.36 o
12 7 1 4214.52 4582.01 121.53 o
12 7 2 592.91 666.82 38.66 o
12 7 3 1788.93 1817.26 188.11 o
12 8 0 257.52 310.03 36.41 o
12 8 1 1705.57 2049.16 83.32 o
12 8 2 176.32 138.18 27.98 o
12 8 3 803.04 912.49 119.66 o
12 9 0 5114.98 5440.87 193.48 o
12 9 1 3.71 1.45 3.84 <
12 9 2 3372.91 3890.09 159.62 o
12 10 0 189.30 207.79 47.94 o
12 10 1 544.64 571.55 33.31 o
12 10 2 133.16 343.70 51.68 o
12 11 1 336.15 368.43 42.29 o
12 11 2 286.52 260.30 54.84 o
12 12 2 40.78 28.38 26.68 <
13 2 1 2605.30 2432.62 123.46 o
13 2 2 76.05 38.15 11.63 o
13 3 0 22.45 17.05 8.99 <
13 3 1 9902.97 9214.80 230.00 o
13 3 2 14.43 0.95 4.01 <
13 4 0 2628.94 2441.04 116.17 o
13 4 1 1.22 -2.42 5.59 <
13 4 2 1353.72 1256.64 54.82 o
13 4 3 0.05 6.36 33.74 <
13 5 0 9463.99 9741.27 303.73 o
13 5 1 154.08 133.47 17.34 o
13 5 2 5257.90 5375.44 136.99 o
13 5 3 70.90 31.19 31.86 <
13 6 0 301.26 301.91 46.95 o
13 6 1 2863.79 2955.53 97.23 o
13 6 2 260.73 278.99 24.21 o
13 6 3 1241.09 1025.49 155.20 o
13 7 0 113.93 163.89 28.22 o
13 7 1 669.17 712.99 50.95 o
13 7 2 61.75 70.72 12.22 o
13 7 3 292.36 215.27 67.09 o
13 8 0 11.90 14.41 7.78 <
13 8 1 68.19 69.34 14.93 o
13 8 2 0.91 -4.69 7.35 <
13 8 3 17.67 11.31 18.40 <
13 9 0 1243.36 1310.87 125.78 o
13 9 1 2217.67 2705.45 119.39 o
13 9 2 807.49 850.03 70.77 o
13 10 1 596.07 653.98 59.30 o
13 10 2 974.90 1131.88 82.96 o
13 11 1 795.32 991.88 113.11 o
13 11 2 728.30 1029.99 119.52 o
13 12 2 560.95 870.47 133.40 o
14 2 2 3721.13 3644.15 255.14 o
14 2 3 433.96 228.14 35.89 o
14 3 0 0.81 2.25 7.22 <
14 3 1 82.31 63.54 14.56 o
14 3 2 0.49 -6.96 5.77 <
14 3 3 21.54 2.53 8.01 <
14 4 0 227.44 346.94 44.56 o
14 4 1 10605.40 9803.43 206.76 o
14 4 2 91.96 95.13 20.04 o
14 5 0 2501.42 2529.40 127.88 o
14 5 1 38.09 19.54 7.39 o
14 5 2 1406.06 1646.26 107.78 o
14 5 3 16.93 55.30 80.89 <
14 6 0 2800.12 2829.51 143.05 o
14 6 1 639.40 644.97 42.55 o
14 6 2 1686.17 1804.43 78.13 o
14 6 3 296.46 161.62 67.56 o
14 7 0 1510.06 1711.02 103.32 o
14 7 1 5310.33 5656.56 174.05 o
14 7 2 1066.07 1105.41 58.29 o
14 7 3 2427.56 1990.17 215.85 o
14 8 0 807.16 825.24 67.80 o
14 8 1 161.18 209.09 33.50 o
14 8 2 519.00 598.70 43.43 o
14 8 3 83.29 23.77 14.36 <
14 9 0 869.11 952.83 108.64 o
14 9 1 30.77 14.13 7.14 <
14 9 2 522.81 575.30 49.11 o
14 10 1 2650.06 3124.95 206.99 o
14 10 2 1110.52 1371.76 132.04 o
14 11 2 312.27 382.22 69.35 o
14 12 2 739.43 1269.58 155.62 o
15 3 0 791.02 631.92 89.73 o
15 3 1 71.12 58.03 14.92 o
15 3 2 548.83 422.04 41.86 o
15 4 0 183.56 128.50 28.60 o
15 4 1 4611.71 4145.86 137.54 o
15 4 2 105.54 64.06 17.80 o
15 5 0 883.04 839.51 72.10 o
15 5 1 1144.86 1080.37 54.56 o
15 5 2 578.45 581.44 63.01 o
15 6 0 660.48 681.40 65.20 o
15 6 1 1879.86 1893.34 89.43 o
15 6 2 366.24 429.11 53.20 o
15 6 3 851.40 692.07 131.09 o
15 7 0 6.77 -5.49 5.81 <
15 7 1 86.13 66.06 19.58 o
15 7 2 2.34 -1.55 7.32 <
15 7 3 40.36 21.97 29.61 <
15 8 0 4110.41 4287.77 269.34 o
15 8 1 2.76 8.11 11.61 <
15 8 2 2659.55 2957.01 105.78 o
15 8 3 0.06 -0.89 5.12 <
15 9 1 2800.19 3263.18 146.62 o
15 9 2 49.66 46.67 11.28 o
15 10 1 4794.73 5626.42 312.16 o
15 10 2 656.03 766.68 100.94 o
15 11 2 1043.12 1315.47 143.51 o
16 3 0 692.17 586.95 96.05 o
16 3 1 2065.19 1840.04 91.33 o
16 3 2 416.47 298.43 45.39 o
16 4 0 7.76 7.87 9.01 <
16 4 1 392.48 360.78 43.12 o
16 4 2 10.21 4.04 4.74 <
16 5 0 492.00 435.57 50.42 o
16 5 1 2720.68 2595.63 102.64 o
16 5 2 292.46 319.65 49.49 o
16 6 0 449.50 442.48 54.78 o
16 6 1 315.68 256.33 35.30 o
16 6 2 274.32 242.42 41.39 o
16 7 0 4570.45 4522.03 293.31 o
16 7 1 179.15 179.51 30.66 o
16 7 2 3096.81 3923.30 147.28 o
16 8 1 0.71 -3.18 8.95 <
16 8 2 1645.03 2036.68 100.05 o
16 9 1 1420.20 1717.19 158.37 o
16 9 2 391.14 524.22 53.19 o
16 10 2 47.07 30.36 15.99 <
16 11 2 2.16 -10.22 8.43 <
17 4 0 8.52 11.50 11.60 <
17 4 1 768.63 669.52 63.21 o
17 4 2 4.81 3.07 5.71 <
17 5 0 23.69 27.99 11.19 o
17 5 1 7171.96 6624.62 327.15 o
17 5 2 24.20 20.85 9.72 o
17 6 0 10976.30 9918.52 464.48 o
17 6 1 170.36 232.55 34.49 o
17 6 2 7499.98 7867.19 345.32 o
17 7 1 263.04 302.73 39.79 o
17 7 2 142.37 144.62 34.13 o
17 8 1 861.56 923.20 112.85 o
17 8 2 984.94 1186.40 75.10 o
17 9 1 300.31 309.20 69.07 o
17 9 2 187.73 237.34 33.16 o
17 10 2 631.57 841.10 75.06 o
18 4 1 13.44 11.16 16.60 <
18 4 2 3597.80 3070.58 181.57 o
18 5 0 888.62 720.41 93.11 o
18 5 1 260.81 266.49 52.84 o
18 5 2 600.62 559.68 71.88 o
18 6 1 1127.87 1116.55 80.66 o
18 6 2 132.93 142.48 36.95 o
18 7 1 2118.66 2069.70 159.95 o
18 7 2 23.88 8.09 9.39 <
18 8 1 466.99 422.82 75.65 o
18 8 2 5.65 -0.79 5.37 <
18 9 2 726.54 1048.07 75.09 o
18 10 2 1944.43 2510.08 199.58 o
19 4 1 214.98 153.40 47.83 o
19 4 2 3170.94 2544.81 165.73 o
19 5 1 757.61 569.89 87.13 o
19 5 2 105.87 78.27 25.83 o
19 6 2 96.81 46.81 27.99 <
19 7 1 4.40 -0.46 10.85 <
19 7 2 799.37 775.37 89.09 o
19 8 2 254.34 326.28 52.00 o
19 9 2 1432.14 2017.27 164.73 o
20 5 2 291.77 139.01 38.52 o
20 6 2 1099.82 1102.48 109.17 o
20 7 2 457.19 360.44 64.64 o
21 5 2 613.59 495.41 74.35 o
