#------------------------------------------------------------------------------
#$Date: 2021-04-14 12:57:25 +0300 (Wed, 14 Apr 2021) $
#$Revision: 264151 $
#$URL: file:///home/coder/svn-repositories/cod/cif/1/56/17/1561756.cif $
#------------------------------------------------------------------------------
#
# This file is available in the Crystallography Open Database (COD),
# http://www.crystallography.net/
#
# All data on this site have been placed in the public domain by the
# contributors.
#
data_1561756
loop_
_publ_author_name
'Bykova, E.'
'Gou, H.'
'Bykov, M.'
'Hanfland, M.'
'Dubrovinsky, L.'
'Dubrovinskaia, N.'
_publ_section_title
;
 Crystal structures and compressibility of novel iron borides Fe2B7 and Fe
 B50 synthesized at high pressure and high temperature
;
_journal_name_full               'Journal of Solid State Chemistry'
_journal_page_first              102
_journal_page_last               109
_journal_paper_doi               10.1016/j.jssc.2015.06.040
_journal_volume                  230
_journal_year                    2015
_chemical_absolute_configuration .
_chemical_compound_source
;
high-pressure high-temperature synthesis
;
_chemical_formula_moiety         'B7 Fe2'
_chemical_formula_sum            'B7 Fe2'
_chemical_formula_weight         187.4
_chemical_name_common            'diiron heptaboride'
_chemical_name_systematic        'diiron heptaboride'
_space_group_IT_number           55
_space_group_name_Hall           '-P 2 2ab'
_space_group_name_H-M_alt        'P b a m'
_symmetry_cell_setting           orthorhombic
_symmetry_Int_Tables_number      55
_symmetry_space_group_name_Hall  '-P 2 2ab'
_symmetry_space_group_name_H-M   'P b a m'
_cell_angle_alpha                90
_cell_angle_beta                 90
_cell_angle_gamma                90
_cell_formula_units_Z            8
_cell_length_a                   16.9005(10)
_cell_length_b                   10.6248(2)
_cell_length_c                   2.88340(10)
_cell_measurement_reflns_used    339
_cell_measurement_temperature    293
_cell_measurement_theta_max      18.67
_cell_measurement_theta_min      4.33
_cell_volume                     517.76(4)
_computing_cell_refinement
;
CrysAlisPro, Agilent Technologies,
Version 1.171.37.35 (release 13-08-2014 CrysAlis171 .NET)
(compiled Aug 13 2014,18:06:01)
;
_computing_data_collection
;
CrysAlisPro, Agilent Technologies,
Version 1.171.37.35 (release 13-08-2014 CrysAlis171 .NET)
(compiled Aug 13 2014,18:06:01)
;
_computing_data_reduction
;
CrysAlisPro, Agilent Technologies,
Version 1.171.37.35 (release 13-08-2014 CrysAlis171 .NET)
(compiled Aug 13 2014,18:06:01)
;
_computing_structure_refinement  'Jana2006 (Petricek, 2014)'
_computing_structure_solution    'SHELXS-2013 (Sheldrick, 2013)'
_diffrn_ambient_pressure         3400000
_diffrn_ambient_temperature      293
_diffrn_detector                 'MAR555 flatpanel detector'
_diffrn_measured_fraction_theta_full 0.87
_diffrn_measured_fraction_theta_max 0.61
_diffrn_measurement_device
;
customized omega-circle diffractometer
;
_diffrn_measurement_device_type  'ESRF, beamline ID09A diffractometer'
_diffrn_measurement_method       '\w scans'
_diffrn_radiation_monochromator  synchrotron
_diffrn_radiation_probe          x-ray
_diffrn_radiation_source         synchrotron
_diffrn_radiation_type           synchrotron
_diffrn_radiation_wavelength     0.41441
_diffrn_reflns_av_R_equivalents  0.0467
_diffrn_reflns_av_unetI/netI     0.0348
_diffrn_reflns_limit_h_max       22
_diffrn_reflns_limit_h_min       -20
_diffrn_reflns_limit_k_max       15
_diffrn_reflns_limit_k_min       -15
_diffrn_reflns_limit_l_max       4
_diffrn_reflns_limit_l_min       -4
_diffrn_reflns_number            3809
_diffrn_reflns_theta_full        14.07
_diffrn_reflns_theta_max         19.86
_diffrn_reflns_theta_min         1.8
_diffrn_source                   synchrotron
_exptl_absorpt_coefficient_mu    2.259
_exptl_absorpt_correction_T_max  1
_exptl_absorpt_correction_T_min  0.374
_exptl_absorpt_correction_type   multi-scan
_exptl_absorpt_process_details
;
CrysAlisPro, Agilent Technologies,
Version 1.171.37.35 (release 13-08-2014 CrysAlis171 .NET)
(compiled Aug 13 2014,18:06:01)
Empirical absorption correction using spherical harmonics,
 implemented in SCALE3 ABSPACK scaling algorithm.
;
_exptl_crystal_colour            black
_exptl_crystal_density_diffrn    4.8057
_exptl_crystal_description       plate
_exptl_crystal_F_000             696
_exptl_crystal_size_max          0.025
_exptl_crystal_size_mid          0.025
_exptl_crystal_size_min          0.005
_refine_diff_density_max         0.95
_refine_diff_density_min         -0.92
_refine_ls_extinction_method     none
_refine_ls_goodness_of_fit_gt    1.87
_refine_ls_goodness_of_fit_ref   1.95
_refine_ls_number_constraints    0
_refine_ls_number_parameters     67
_refine_ls_number_reflns         849
_refine_ls_number_restraints     0
_refine_ls_R_factor_all          0.0427
_refine_ls_R_factor_gt           0.0359
_refine_ls_shift/su_max          0.0003
_refine_ls_shift/su_mean         0.0000
_refine_ls_structure_factor_coef Fsqd
_refine_ls_weighting_details     w=1/(\s^2^(I)+0.0004I^2^)
_refine_ls_weighting_scheme      sigma
_refine_ls_wR_factor_gt          0.0895
_refine_ls_wR_factor_ref         0.1010
_reflns_number_gt                735
_reflns_number_total             849
_reflns_threshold_expression     I>2\s(I)
_cod_data_source_file            Fe2B7_03.4GPa.cif
_cod_data_source_block           Fe2B7_3.4GPa
_cod_depositor_comments
;
The following automatic conversions were performed:

data item '_diffrn_radiation_probe' value 'X-ray' was changed to
'x-ray' in accordance with the built-in table derived from the CIF
Core dictionary named 'cif_core.dic' version 2.4.5 last updated on
2014-11-21.

Automatic conversion script
Id: cif_fix_values 8369 2020-08-20 11:38:08Z andrius 
;
_cod_database_code               1561756
loop_
_symmetry_equiv_pos_site_id
_symmetry_equiv_pos_as_xyz
1 x,y,z
2 -x,-y,z
3 -x+1/2,y+1/2,-z
4 x+1/2,-y+1/2,-z
5 -x,-y,-z
6 x,y,-z
7 x+1/2,-y+1/2,z
8 -x+1/2,y+1/2,z
loop_
_atom_site_label
_atom_site_type_symbol
_atom_site_fract_x
_atom_site_fract_y
_atom_site_fract_z
_atom_site_adp_type
_atom_site_U_iso_or_equiv
_atom_site_site_symmetry_multiplicity
_atom_site_occupancy
_atom_site_calc_flag
_atom_site_refinement_flags
_atom_site_disorder_assembly
_atom_site_disorder_group
Fe1 Fe 0.22157(6) 0.46733(7) 0.5 Uani 0.0058(2) 4 1 d . . .
Fe2 Fe 0.12149(5) 0.17928(7) 0 Uani 0.0045(2) 4 1 d . . .
Fe3 Fe 0.46592(5) 0.10627(7) 0.5 Uani 0.0046(2) 4 1 d . . .
Fe4 Fe 0.38863(5) 0.26581(7) 0 Uani 0.0047(2) 4 1 d . . .
B1 B 0.3668(4) 0.0506(5) 0 Uiso 0.0039(9) 4 1 d . . .
B2 B 0.0480(4) 0.4604(5) 0 Uiso 0.0048(10) 4 1 d . . .
B3 B 0.3032(4) 0.3912(5) 0 Uiso 0.0050(10) 4 1 d . . .
B4 B 0.1412(4) 0.3744(5) 0 Uiso 0.0041(10) 4 1 d . . .
B5 B 0.4458(4) 0.4040(6) 0.5 Uiso 0.0060(10) 4 1 d . . .
B6 B 0.1998(4) 0.0449(5) 0 Uiso 0.0026(9) 4 1 d . . .
B7 B 0.2881(4) 0.2886(5) 0.5 Uiso 0.0045(10) 4 1 d . . .
B8 B 0.0336(4) 0.3046(6) 0 Uiso 0.0051(10) 4 1 d . . .
B9 B 0.3985(4) 0.4754(5) 0 Uiso 0.0030(10) 4 1 d . . .
B10 B 0.0543(4) 0.0576(6) 0.5 Uiso 0.0064(10) 4 1 d . . .
B11 B 0.0182(4) 0.2125(5) 0.5 Uiso 0.0046(10) 4 1 d . . .
B12 B 0.3387(4) 0.1363(5) 0.5 Uiso 0.0043(9) 4 1 d . . .
B13 B 0.2190(4) 0.1437(6) 0.5 Uiso 0.0073(10) 4 1 d . . .
B14 B 0.1801(4) 0.2930(5) 0.5 Uiso 0.0044(9) 4 1 d . . .
loop_
_atom_site_aniso_label
_atom_site_aniso_type_symbol
_atom_site_aniso_U_11
_atom_site_aniso_U_22
_atom_site_aniso_U_33
_atom_site_aniso_U_12
_atom_site_aniso_U_13
_atom_site_aniso_U_23
Fe1 Fe 0.0066(6) 0.0014(4) 0.0094(3) -0.0010(3) 0 0
Fe2 Fe 0.0051(5) 0.0018(3) 0.0065(3) 0.0001(3) 0 0
Fe3 Fe 0.0071(5) 0.0023(3) 0.0044(3) -0.0004(3) 0 0
Fe4 Fe 0.0058(5) 0.0031(4) 0.0051(3) 0.0008(3) 0 0
loop_
_atom_type_symbol
_atom_type_scat_dispersion_real
_atom_type_scat_dispersion_imag
_atom_type_scat_source
B -0.0003 0.0002 'International Tables Vol C tables 4.2.6.8 and 6.1.1.1'
Fe 0.1991 0.3104 'International Tables Vol C tables 4.2.6.8 and 6.1.1.1'
loop_
_geom_angle_atom_site_label_1
_geom_angle_atom_site_label_2
_geom_angle_atom_site_label_3
_geom_angle_site_symmetry_1
_geom_angle_site_symmetry_2
_geom_angle_site_symmetry_3
_geom_angle
B3 Fe1 B3 . . 1_556 84.13(17)
B3 Fe1 B6 . . 3_555 44.9(2)
B3 Fe1 B6 . . 3_556 101.8(2)
B3 Fe1 B12 . . 3_556 130.07(15)
B3 Fe1 B13 . . 3_556 91.9(2)
B3 Fe1 B14 . . . 82.8(2)
B3 Fe1 B6 1_556 . 3_555 101.8(2)
B3 Fe1 B6 1_556 . 3_556 44.9(2)
B3 Fe1 B12 1_556 . 3_556 130.07(15)
B3 Fe1 B13 1_556 . 3_556 91.9(2)
B3 Fe1 B14 1_556 . . 82.8(2)
B6 Fe1 B6 3_555 . 3_556 85.78(16)
B6 Fe1 B12 3_555 . 3_556 88.4(2)
B6 Fe1 B13 3_555 . 3_556 50.69(15)
B6 Fe1 B14 3_555 . . 125.62(16)
B6 Fe1 B12 3_556 . 3_556 88.4(2)
B6 Fe1 B13 3_556 . 3_556 50.69(15)
B6 Fe1 B14 3_556 . . 125.62(16)
B12 Fe1 B13 3_556 . 3_556 57.6(2)
B12 Fe1 B14 3_556 . . 129.6(3)
B13 Fe1 B14 3_556 . . 172.8(3)
B4 Fe2 B6 . . . 128.2(3)
B4 Fe2 B8 . . . 57.0(2)
B4 Fe2 B14 . . 1_554 50.79(15)
B4 Fe2 B14 . . . 50.79(15)
B6 Fe2 B8 . . . 174.8(3)
B6 Fe2 B14 . . 1_554 95.7(2)
B6 Fe2 B14 . . . 95.7(2)
B8 Fe2 B14 . . 1_554 88.1(2)
B8 Fe2 B14 . . . 88.1(2)
B14 Fe2 B14 1_554 . . 85.74(15)
Fe3 Fe3 Fe4 2_655 . . 144.611(16)
Fe3 Fe3 Fe4 2_655 . 1_556 144.611(16)
Fe3 Fe3 B2 2_655 . 3_545 53.18(14)
Fe3 Fe3 B2 2_655 . 3_546 53.18(14)
Fe3 Fe3 B2 2_655 . 4_555 53.57(13)
Fe3 Fe3 B2 2_655 . 4_556 53.57(13)
Fe3 Fe3 B8 2_655 . 4_555 98.95(17)
Fe3 Fe3 B8 2_655 . 4_556 98.95(17)
Fe3 Fe3 B11 2_655 . 4_556 128.02(17)
Fe3 Fe3 B12 2_655 . . 125.63(14)
Fe4 Fe3 Fe4 . . 1_556 67.95(2)
Fe4 Fe3 B2 . . 3_545 92.61(13)
Fe4 Fe3 B2 . . 3_546 143.28(18)
Fe4 Fe3 B2 . . 4_555 99.76(11)
Fe4 Fe3 B2 . . 4_556 158.34(15)
Fe4 Fe3 B8 . . 4_555 65.84(17)
Fe4 Fe3 B8 . . 4_556 111.63(15)
Fe4 Fe3 B11 . . 4_556 67.51(14)
Fe4 Fe3 B12 . . . 53.25(10)
Fe4 Fe3 B2 1_556 . 3_545 143.28(18)
Fe4 Fe3 B2 1_556 . 3_546 92.61(13)
Fe4 Fe3 B2 1_556 . 4_555 158.34(15)
Fe4 Fe3 B2 1_556 . 4_556 99.76(11)
Fe4 Fe3 B8 1_556 . 4_555 111.63(15)
Fe4 Fe3 B8 1_556 . 4_556 65.84(17)
Fe4 Fe3 B11 1_556 . 4_556 67.51(14)
Fe4 Fe3 B12 1_556 . . 53.25(10)
B2 Fe3 B2 3_545 . 3_546 85.14(14)
B2 Fe3 B2 3_545 . 4_555 50.8(2)
B2 Fe3 B2 3_545 . 4_556 106.75(19)
B2 Fe3 B8 3_545 . 4_555 85.55(17)
B2 Fe3 B8 3_545 . 4_556 149.8(2)
B2 Fe3 B11 3_545 . 4_556 134.94(13)
B2 Fe3 B12 3_545 . . 90.1(2)
B2 Fe3 B2 3_546 . 4_555 106.75(19)
B2 Fe3 B2 3_546 . 4_556 50.8(2)
B2 Fe3 B8 3_546 . 4_555 149.8(2)
B2 Fe3 B8 3_546 . 4_556 85.55(17)
B2 Fe3 B11 3_546 . 4_556 134.94(13)
B2 Fe3 B12 3_546 . . 90.1(2)
B2 Fe3 B2 4_555 . 4_556 85.67(17)
B2 Fe3 B8 4_555 . 4_555 47.0(2)
B2 Fe3 B8 4_555 . 4_556 105.3(2)
B2 Fe3 B11 4_555 . 4_556 91.5(2)
B2 Fe3 B12 4_555 . . 134.08(14)
B2 Fe3 B8 4_556 . 4_555 105.3(2)
B2 Fe3 B8 4_556 . 4_556 47.0(2)
B2 Fe3 B11 4_556 . 4_556 91.5(2)
B2 Fe3 B12 4_556 . . 134.08(14)
B8 Fe3 B8 4_555 . 4_556 88.22(17)
B8 Fe3 B11 4_555 . 4_556 49.61(14)
B8 Fe3 B12 4_555 . . 118.63(19)
B8 Fe3 B11 4_556 . 4_556 49.61(14)
B8 Fe3 B12 4_556 . . 118.63(19)
B11 Fe3 B12 4_556 . . 106.4(2)
Fe3 Fe4 Fe3 1_554 . . 67.95(2)
Fe3 Fe4 B3 1_554 . . 144.80(5)
Fe3 Fe4 B12 1_554 . 1_554 53.66(17)
Fe3 Fe4 B12 1_554 . . 98.82(14)
Fe3 Fe4 B3 . . . 144.80(5)
Fe3 Fe4 B12 . . 1_554 98.82(14)
Fe3 Fe4 B12 . . . 53.66(17)
B3 Fe4 B12 . . 1_554 98.2(2)
B3 Fe4 B12 . . . 98.2(2)
B12 Fe4 B12 1_554 . . 83.72(14)
Fe3 B2 Fe3 3_555 . 3_556 85.14(19)
Fe3 B2 Fe3 3_555 . 4_455 73.25(11)
Fe3 B2 Fe3 3_555 . 4_456 129.2(3)
Fe3 B2 B8 3_555 . . 134.86(17)
Fe3 B2 Fe3 3_556 . 4_455 129.2(3)
Fe3 B2 Fe3 3_556 . 4_456 73.25(11)
Fe3 B2 B8 3_556 . . 134.86(17)
Fe3 B2 Fe3 4_455 . 4_456 85.7(2)
Fe3 B2 B8 4_455 . . 65.0(2)
Fe3 B2 B8 4_456 . . 65.0(2)
Fe1 B3 Fe1 1_554 . . 84.1(2)
Fe1 B3 Fe4 1_554 . . 136.57(12)
Fe1 B3 B6 1_554 . 3_555 66.5(2)
Fe1 B3 Fe4 . . . 136.57(12)
Fe1 B3 B6 . . 3_555 66.5(2)
Fe4 B3 B6 . . 3_555 134.6(5)
Fe1 B6 Fe1 3_545 . 3_546 85.8(2)
Fe1 B6 Fe2 3_545 . . 134.97(12)
Fe1 B6 B3 3_545 . 3_545 68.6(2)
Fe1 B6 Fe2 3_546 . . 134.97(12)
Fe1 B6 B3 3_546 . 3_545 68.6(2)
Fe2 B6 B3 . . 3_545 135.1(5)
Fe2 B8 Fe3 . . 4_455 135.84(12)
Fe2 B8 Fe3 . . 4_456 135.84(12)
Fe2 B8 B2 . . . 123.7(4)
Fe3 B8 Fe3 4_455 . 4_456 88.2(2)
Fe3 B8 B2 4_455 . . 68.1(2)
Fe3 B8 B2 4_456 . . 68.1(2)
Fe1 B12 Fe3 3_546 . . 111.0(2)
Fe1 B12 Fe4 3_546 . . 138.10(10)
Fe1 B12 Fe4 3_546 . 1_556 138.10(10)
Fe3 B12 Fe4 . . . 73.09(19)
Fe3 B12 Fe4 . . 1_556 73.09(19)
Fe4 B12 Fe4 . . 1_556 83.7(2)
Fe1 B14 Fe2 . . . 134.04(14)
Fe1 B14 Fe2 . . 1_556 134.04(14)
Fe2 B14 Fe2 . . 1_556 85.7(2)
loop_
_geom_bond_atom_site_label_1
_geom_bond_atom_site_label_2
_geom_bond_site_symmetry_1
_geom_bond_site_symmetry_2
_geom_bond_distance
Fe1 B3 . . 2.152(5)
Fe1 B3 . 1_556 2.152(5)
Fe1 B6 . 3_555 2.118(5)
Fe1 B6 . 3_556 2.118(5)
Fe1 B12 . 3_556 2.070(6)
Fe1 B13 . 3_556 2.124(6)
Fe1 B14 . . 1.989(6)
Fe2 B4 . . 2.098(5)
Fe2 B6 . . 1.957(6)
Fe2 B8 . . 1.994(6)
Fe2 B14 . 1_554 2.119(4)
Fe2 B14 . . 2.119(4)
Fe3 Fe3 . 2_655 2.5364(10)
Fe3 Fe4 . . 2.5797(9)
Fe3 Fe4 . 1_556 2.5797(9)
Fe3 B2 . 3_545 2.131(4)
Fe3 B2 . 3_546 2.131(4)
Fe3 B2 . 4_555 2.121(5)
Fe3 B2 . 4_556 2.121(5)
Fe3 B8 . 4_555 2.071(5)
Fe3 B8 . 4_556 2.071(5)
Fe3 B11 . 4_556 2.123(6)
Fe3 B12 . . 2.172(7)
Fe4 B3 . . 1.964(6)
Fe4 B12 . 1_554 2.160(4)
Fe4 B12 . . 2.160(4)
B2 B8 . . 1.671(8)
B3 B6 . 3_555 1.631(8)
B5 B10 . 3_556 1.639(8)
loop_
_refln_index_h
_refln_index_k
_refln_index_l
_refln_F_squared_calc
_refln_F_squared_meas
_refln_F_squared_sigma
_refln_observed_status
0 0 1 0.48 0.00 0.56 <
0 0 3 7.88 -0.29 4.17 <
0 2 1 28513.10 27999.70 469.21 o
0 2 2 446.73 460.18 21.62 o
0 2 3 6387.17 6675.80 130.25 o
0 2 4 128.41 152.21 24.57 o
0 4 0 1315.94 1398.24 59.86 o
0 4 1 6027.96 6993.95 198.48 o
0 4 2 522.17 523.03 31.06 o
0 4 3 1968.68 2018.07 66.94 o
0 4 4 94.72 91.63 20.90 o
0 6 0 428.83 456.88 32.17 o
0 6 1 856.66 937.72 53.12 o
0 6 2 255.31 291.88 35.82 o
0 6 3 317.65 254.19 44.29 o
0 6 4 126.30 76.57 24.60 o
0 8 0 51.85 71.99 13.37 o
0 8 1 1591.22 1606.94 76.58 o
0 8 2 27.55 14.06 9.60 <
0 10 0 67.06 54.92 13.34 o
0 10 1 1862.10 1841.74 86.10 o
0 10 2 51.38 34.30 12.52 o
0 12 0 1935.28 2030.47 103.48 o
0 12 1 4096.96 4168.29 154.03 o
0 12 2 1438.47 1527.21 93.89 o
0 14 0 10892.70 11215.30 391.55 o
0 14 1 74.83 118.58 26.71 o
0 14 2 7855.06 7423.16 257.95 o
1 1 1 6356.20 6422.99 79.31 o
1 1 2 813.30 804.84 18.23 o
1 1 3 1557.86 1577.10 37.20 o
1 2 1 650.77 512.68 15.90 o
1 2 2 118.04 101.04 7.14 o
1 2 3 123.21 98.62 8.73 o
1 2 4 32.54 8.35 5.19 <
1 3 1 6608.06 6460.21 93.27 o
1 3 2 878.73 925.93 28.63 o
1 3 3 1692.91 1677.64 43.73 o
1 3 4 158.60 139.64 19.13 o
1 4 0 4465.03 5176.71 194.39 o
1 4 1 162.46 170.36 12.43 o
1 4 2 1860.94 2059.72 56.39 o
1 4 3 27.44 11.78 3.39 o
1 4 4 313.09 323.04 31.67 o
1 5 0 16561.00 15731.30 366.01 o
1 5 1 7.20 6.81 2.25 o
1 5 2 7707.56 8333.72 149.96 o
1 5 3 0.00 0.55 2.72 <
1 5 4 2229.19 2213.61 94.67 o
1 6 0 6878.45 6673.93 138.66 o
1 6 1 10200.50 10282.10 184.71 o
1 6 2 3208.63 3446.79 90.62 o
1 6 3 3567.77 3802.40 130.87 o
1 6 4 851.71 854.33 57.10 o
1 7 0 1636.27 1591.10 55.30 o
1 7 1 56.82 47.57 7.12 o
1 7 2 888.07 935.92 42.67 o
1 7 3 3.32 -7.03 16.61 <
1 7 4 309.54 307.56 50.94 o
1 8 0 12.40 15.60 4.28 o
1 8 1 7397.27 7102.06 126.98 o
1 8 2 42.90 54.32 9.20 o
1 9 0 1322.47 1236.88 48.98 o
1 9 1 2387.80 2457.14 60.20 o
1 9 2 737.58 781.15 38.43 o
1 10 0 10999.50 10978.10 268.88 o
1 10 1 759.81 730.85 36.00 o
1 10 2 6696.69 7472.95 155.10 o
1 11 0 52.91 45.43 8.54 o
1 11 1 489.37 466.87 29.71 o
1 11 2 36.28 14.82 5.45 o
1 12 0 43.71 49.83 9.00 o
1 12 1 3269.32 3610.99 101.26 o
1 12 2 26.00 5.47 4.16 <
1 13 0 3056.49 3267.72 152.48 o
1 13 1 120.57 110.40 13.44 o
1 13 2 2216.70 2264.73 85.41 o
1 14 0 1244.08 1291.06 82.43 o
1 14 1 254.52 214.80 19.84 o
1 14 2 911.80 903.34 58.12 o
1 15 1 4291.84 4038.46 145.77 o
1 15 2 67.85 38.77 12.92 o
2 0 1 602.22 649.49 22.00 o
2 0 2 136.85 139.38 9.22 o
2 0 3 70.07 67.31 12.32 o
2 0 4 75.81 30.31 15.18 <
2 1 0 278.01 245.37 12.70 o
2 1 1 213.66 235.48 11.00 o
2 1 2 160.81 156.05 9.03 o
2 1 3 45.04 32.45 4.59 o
2 1 4 51.41 29.77 11.38 o
2 2 0 4059.52 4470.58 110.23 o
2 2 1 142.12 116.56 7.59 o
2 2 2 1571.47 1528.23 32.54 o
2 2 3 9.57 1.41 2.38 <
2 2 4 269.85 257.07 17.95 o
2 3 0 913.82 766.40 40.03 o
2 3 1 4768.52 4891.70 72.00 o
2 3 2 433.95 500.57 20.72 o
2 3 3 1356.41 1385.05 38.80 o
2 3 4 78.99 30.80 8.64 o
2 4 1 14562.30 15160.00 196.57 o
2 4 2 3143.37 3502.19 69.98 o
2 4 3 4033.81 4311.53 110.52 o
2 4 4 701.07 668.48 45.56 o
2 5 1 19522.40 19545.20 302.17 o
2 5 2 3115.55 3326.11 78.73 o
2 5 3 6061.82 6535.27 162.51 o
2 5 4 927.05 972.30 59.11 o
2 6 0 5484.11 5309.65 182.19 o
2 6 1 5178.58 5088.54 97.50 o
2 6 2 2679.49 2726.38 71.90 o
2 6 3 1878.57 1907.78 98.60 o
2 6 4 804.56 850.54 84.31 o
2 7 0 26985.10 27796.80 603.82 o
2 7 1 2044.54 2132.40 54.27 o
2 7 2 14012.80 15204.10 263.60 o
2 7 3 650.43 744.51 61.90 o
2 7 4 4474.52 4339.69 235.63 o
2 8 0 527.74 539.47 29.66 o
2 8 1 767.32 776.72 35.61 o
2 8 2 255.95 239.90 21.13 o
2 8 3 303.63 375.45 59.24 o
2 9 0 2118.18 2119.00 71.00 o
2 9 1 6252.13 6480.10 139.52 o
2 9 2 1294.63 1376.03 53.89 o
2 9 3 2479.93 3001.20 184.71 o
2 10 0 3935.75 3957.18 173.76 o
2 10 1 3653.17 3836.97 99.64 o
2 10 2 2450.95 2663.88 78.31 o
2 10 3 1608.25 1911.78 139.44 o
2 11 0 42.97 46.42 12.95 o
2 11 1 265.45 286.28 23.85 o
2 11 2 23.63 22.67 6.31 o
2 11 3 150.40 173.43 37.64 o
2 12 0 1089.82 1081.56 75.99 o
2 12 1 626.39 612.21 38.56 o
2 12 2 712.85 658.71 35.96 o
2 13 0 34.28 27.41 8.94 o
2 13 1 524.63 593.76 39.57 o
2 13 2 16.05 7.87 5.57 <
2 14 0 64.30 86.19 20.71 o
2 14 1 44.23 40.58 13.78 o
2 14 2 66.15 44.44 15.08 o
2 15 0 609.14 638.66 58.63 o
2 15 1 1359.01 1304.19 110.28 o
2 15 2 455.57 211.20 33.70 o
3 1 0 1517.93 1794.87 52.01 o
3 1 1 2059.50 2310.09 46.46 o
3 1 2 657.69 620.84 19.50 o
3 1 3 430.92 431.45 19.14 o
3 1 4 203.04 240.84 25.72 o
3 2 0 10744.00 10244.70 232.07 o
3 2 1 2112.85 2184.51 45.10 o
3 2 2 4399.22 4359.76 85.22 o
3 2 3 560.36 529.05 21.24 o
3 2 4 968.39 915.16 46.78 o
3 3 0 12761.20 12153.90 281.00 o
3 3 1 84.45 94.12 6.47 o
3 3 2 5353.91 5952.94 109.45 o
3 3 3 31.32 18.39 4.13 o
3 3 4 1157.92 1139.29 60.18 o
3 4 0 932.20 940.19 48.23 o
3 4 1 8053.89 8044.40 110.30 o
3 4 2 392.54 400.20 18.51 o
3 4 3 2094.03 2187.06 73.21 o
3 4 4 68.45 37.27 8.80 o
3 5 0 165.28 129.15 13.21 o
3 5 1 16763.40 17414.40 256.20 o
3 5 2 77.61 50.28 7.92 o
3 5 3 5275.72 4906.04 145.22 o
3 5 4 17.91 1.89 5.62 <
3 6 0 465.58 469.09 28.56 o
3 6 1 4183.51 4159.84 94.39 o
3 6 2 181.87 173.38 18.04 o
3 6 3 1568.57 1486.17 86.28 o
3 6 4 21.49 3.29 7.26 <
3 7 0 547.54 461.17 30.13 o
3 7 1 811.53 835.88 44.02 o
3 7 2 279.61 261.86 20.21 o
3 7 3 364.38 388.50 42.41 o
3 7 4 90.64 62.10 27.71 o
3 8 0 3032.58 3009.69 117.28 o
3 8 1 440.65 510.44 29.30 o
3 8 2 1427.81 1521.66 56.39 o
3 8 3 203.34 228.81 46.39 o
3 9 1 1776.73 1744.08 70.73 o
3 9 2 681.54 725.60 37.81 o
3 9 3 709.65 814.26 86.91 o
3 10 0 770.18 871.61 74.01 o
3 10 1 13929.00 14156.60 316.68 o
3 10 2 542.09 609.00 38.71 o
3 10 3 6312.36 7058.49 316.85 o
3 11 0 2280.32 2275.01 130.07 o
3 11 1 412.45 391.58 38.35 o
3 11 2 1491.79 1456.34 61.62 o
3 11 3 209.75 238.20 40.09 o
3 12 0 7769.42 7309.08 301.42 o
3 12 1 77.01 89.54 18.31 o
3 12 2 5148.08 5368.62 172.48 o
3 13 0 38.18 11.31 7.56 <
3 13 1 2.54 0.57 2.67 <
3 13 2 36.60 12.34 7.91 <
3 14 0 763.90 835.34 71.43 o
3 14 1 747.77 752.56 57.19 o
3 14 2 583.16 597.29 59.05 o
3 15 0 1633.12 1500.72 106.81 o
3 15 1 373.94 379.95 56.44 o
4 0 2 725.63 656.77 24.10 o
4 0 3 20848.10 22657.00 474.93 o
4 0 4 211.04 191.42 32.71 o
4 1 0 3816.98 3189.76 87.97 o
4 1 1 1242.91 1306.36 32.81 o
4 1 2 1661.35 1549.03 38.30 o
4 1 3 307.51 280.38 15.14 o
4 1 4 378.02 426.34 33.55 o
4 2 0 31249.40 31229.90 669.35 o
4 2 1 2412.08 2356.90 40.41 o
4 2 2 13086.90 13616.60 209.83 o
4 2 3 693.99 710.78 25.08 o
4 2 4 2834.83 3119.07 103.13 o
4 3 0 4208.73 4271.30 114.14 o
4 3 1 10056.80 9993.93 131.89 o
4 3 2 1733.19 1622.57 46.53 o
4 3 3 2704.93 2957.41 70.40 o
4 3 4 445.66 478.31 35.87 o
4 4 0 2355.23 2026.58 72.38 o
4 4 1 1890.59 1810.92 39.28 o
4 4 2 1164.78 1176.09 33.81 o
4 4 3 512.55 520.98 32.23 o
4 4 4 376.47 289.07 44.52 o
4 5 0 2333.27 2599.00 95.26 o
4 5 1 38.57 32.39 4.81 o
4 5 2 1051.12 1082.95 33.34 o
4 5 3 37.51 15.41 6.15 o
4 5 4 260.77 221.68 39.32 o
4 6 0 463.04 573.70 40.31 o
4 6 1 37.33 19.12 4.26 o
4 6 2 244.14 229.51 19.53 o
4 6 3 29.77 12.09 13.17 <
4 6 4 86.50 32.75 19.39 <
4 7 0 917.17 916.86 48.01 o
4 7 1 13.01 3.56 3.28 <
4 7 2 553.65 516.47 33.34 o
4 7 3 1.27 -0.39 1.33 <
4 8 0 419.54 419.34 28.31 o
4 8 1 41.69 11.43 7.36 <
4 8 2 195.23 221.28 22.95 o
4 8 3 29.72 17.01 6.66 o
4 9 0 1539.25 1540.23 69.42 o
4 9 1 27.71 7.92 4.64 <
4 9 2 880.31 911.07 48.34 o
4 9 3 43.94 25.22 13.30 <
4 10 1 7.10 1.27 1.74 <
4 10 2 795.27 774.45 44.89 o
4 10 3 1.10 -2.07 7.32 <
4 11 1 3538.96 3713.75 137.90 o
4 11 2 1142.58 1267.82 57.95 o
4 12 1 0.08 -2.58 6.39 <
4 12 2 2675.80 2688.07 114.22 o
4 13 0 1601.56 1929.95 127.90 o
4 13 1 1684.69 1727.11 88.76 o
4 13 2 1154.25 1189.44 86.98 o
4 14 0 4.03 -0.69 2.42 <
4 14 1 5728.46 5307.43 186.84 o
4 14 2 1.80 -1.44 7.02 <
4 15 0 4.14 1.40 3.67 <
4 15 1 192.43 270.67 50.81 o
5 1 0 13670.40 13724.00 306.78 o
5 1 1 3768.36 3726.86 61.50 o
5 1 2 5630.53 5324.51 89.68 o
5 1 3 932.44 956.37 29.12 o
5 1 4 1197.11 1283.46 66.90 o
5 2 0 40.84 13.44 5.72 o
5 2 1 5784.85 5832.27 80.39 o
5 2 2 37.45 34.91 6.03 o
5 2 3 1636.10 1715.57 42.28 o
5 2 4 17.11 12.14 5.85 o
5 3 0 1159.97 1120.61 46.39 o
5 3 1 12005.80 11840.00 150.12 o
5 3 2 593.70 589.06 27.55 o
5 3 3 3184.86 3259.07 86.98 o
5 3 4 176.56 173.79 20.50 o
5 4 0 441.15 349.69 25.97 o
5 4 1 1048.05 1062.33 26.77 o
5 4 2 224.11 235.37 14.50 o
5 4 3 235.97 251.00 21.28 o
5 4 4 65.35 54.65 18.20 o
5 5 0 6326.34 6759.75 183.07 o
5 5 1 8814.65 8675.22 131.04 o
5 5 2 2980.11 3103.28 64.30 o
5 5 3 3268.44 3352.04 102.71 o
5 5 4 837.84 596.84 62.09 o
5 6 0 9051.27 9892.39 268.98 o
5 6 1 720.67 774.13 29.77 o
5 6 2 4599.65 4639.94 88.27 o
5 6 3 91.64 59.65 11.30 o
5 6 4 1430.41 1296.67 116.66 o
5 7 0 626.84 705.00 49.81 o
5 7 1 1351.17 1366.01 49.39 o
5 7 2 318.21 333.30 20.54 o
5 7 3 489.65 424.07 35.00 o
5 8 0 10459.80 10156.60 338.51 o
5 8 1 1052.66 978.89 57.00 o
5 8 2 5926.27 6270.57 184.19 o
5 8 3 355.28 366.24 30.29 o
5 9 0 267.43 250.90 22.22 o
5 9 1 0.29 1.58 3.33 <
5 9 2 177.72 171.17 20.71 o
5 9 3 0.99 9.42 8.38 <
5 10 0 1067.32 1057.46 52.78 o
5 10 1 2764.99 2630.07 111.32 o
5 10 2 720.28 707.95 42.94 o
5 10 3 1220.40 1296.97 106.62 o
5 11 1 107.20 101.91 19.87 o
5 11 2 4.82 8.03 7.97 <
5 12 1 1699.16 1746.65 88.91 o
5 12 2 321.24 435.51 49.82 o
5 13 1 3813.94 4364.92 159.27 o
5 13 2 193.22 143.00 27.60 o
5 14 1 657.01 698.51 55.51 o
5 14 2 47.34 14.02 9.75 <
5 15 1 9.23 0.75 7.64 <
6 0 1 1157.35 1176.45 48.62 o
6 0 2 853.03 880.75 46.42 o
6 0 3 390.46 395.11 33.92 o
6 0 4 126.69 209.55 36.27 o
6 1 0 399.63 380.75 22.97 o
6 1 1 712.51 692.68 21.94 o
6 1 2 211.85 222.92 14.76 o
6 1 3 250.63 241.99 14.39 o
6 1 4 41.70 24.86 8.39 o
6 2 0 113.63 225.72 18.93 o
6 2 1 5794.82 5706.96 91.24 o
6 2 2 20.50 17.80 4.59 o
6 2 3 1609.31 1613.05 50.17 o
6 2 4 9.63 1.33 3.93 <
6 3 0 4126.73 4392.24 122.77 o
6 3 1 182.50 183.87 10.41 o
6 3 2 2014.99 2023.67 56.59 o
6 3 3 26.68 15.88 5.66 o
6 3 4 636.90 705.05 53.21 o
6 4 0 6331.53 6024.68 161.56 o
6 4 1 23.57 15.20 3.11 o
6 4 2 2976.64 2904.84 60.43 o
6 4 3 26.18 23.54 6.75 o
6 4 4 893.77 882.35 65.42 o
6 5 0 33243.00 32665.00 726.49 o
6 5 1 3164.16 3173.59 62.61 o
6 5 2 16578.10 16875.10 235.46 o
6 5 3 1443.54 1533.82 63.93 o
6 5 4 5217.58 5099.33 201.13 o
6 6 0 9.91 7.47 4.51 <
6 6 1 643.49 636.14 27.37 o
6 6 2 4.14 1.79 3.18 <
6 6 3 186.32 121.08 16.06 o
6 7 0 2868.91 2703.90 116.00 o
6 7 1 24778.00 25915.30 405.25 o
6 7 2 1863.20 1902.76 53.34 o
6 7 3 8398.96 8682.57 174.47 o
6 8 0 1.56 2.94 4.56 <
6 8 1 504.45 417.72 39.19 o
6 8 2 0.99 -0.74 3.00 <
6 8 3 220.11 191.76 20.86 o
6 9 0 15443.70 14290.90 468.18 o
6 9 1 0.11 2.05 4.89 <
6 9 2 9361.57 9490.42 221.97 o
6 9 3 2.79 4.92 4.89 <
6 10 0 1423.08 1495.25 67.46 o
6 10 1 229.01 216.51 28.70 o
6 10 2 918.38 868.88 61.88 o
6 10 3 107.58 106.35 27.75 o
6 11 0 432.56 506.86 32.05 o
6 11 1 13.68 8.34 5.38 <
6 11 2 339.33 378.68 46.73 o
6 12 1 242.48 213.03 29.40 o
6 12 2 123.13 113.94 25.68 o
6 13 1 31.97 9.92 5.48 <
6 13 2 1624.55 1483.50 131.58 o
6 14 1 62.06 31.92 12.46 o
6 14 2 327.61 308.82 55.93 o
6 15 1 15.26 11.35 9.29 <
7 1 0 1404.22 1107.23 46.55 o
7 1 1 1867.65 1831.38 50.17 o
7 1 2 641.54 713.29 25.25 o
7 1 3 471.17 477.84 22.93 o
7 1 4 41.01 16.49 7.93 o
7 2 0 1484.92 1332.06 54.69 o
7 2 1 12888.70 13378.30 202.15 o
7 2 2 721.76 718.39 30.37 o
7 2 3 3905.50 3948.85 106.36 o
7 2 4 209.51 222.69 29.80 o
7 3 0 758.11 672.92 38.63 o
7 3 1 10290.40 10284.40 164.27 o
7 3 2 309.67 320.37 20.53 o
7 3 3 3008.48 3180.15 87.61 o
7 3 4 74.46 42.70 12.89 o
7 4 0 7181.64 7501.07 196.47 o
7 4 1 236.51 249.85 14.87 o
7 4 2 3465.42 3672.22 72.01 o
7 4 3 75.13 43.78 10.07 o
7 4 4 1039.77 1111.83 72.55 o
7 5 0 7909.39 7722.86 205.65 o
7 5 1 0.01 0.34 2.20 <
7 5 2 4024.42 4032.97 80.23 o
7 5 3 0.90 -8.59 5.59 <
7 5 4 1246.75 1148.78 105.43 o
7 6 0 335.71 359.73 31.68 o
7 6 1 1136.72 1093.21 38.65 o
7 6 2 198.30 219.79 16.22 o
7 6 3 490.94 467.60 36.12 o
7 7 0 8.21 2.07 4.42 <
7 7 1 121.75 125.71 14.40 o
7 7 2 6.63 3.41 3.11 <
7 7 3 40.10 34.65 8.95 o
7 8 0 3721.56 3503.22 147.66 o
7 8 1 636.06 695.64 34.93 o
7 8 2 2108.63 2197.64 61.16 o
7 8 3 223.37 226.35 20.42 o
7 9 0 881.23 978.63 55.27 o
7 9 1 2.88 -6.81 6.29 <
7 9 2 518.72 541.26 33.79 o
7 9 3 1.72 1.03 2.21 <
7 10 0 10581.20 10717.30 359.14 o
7 10 1 1602.73 1782.60 94.46 o
7 10 2 6857.78 6982.47 372.19 o
7 10 3 794.85 885.03 85.71 o
7 11 0 57.67 59.65 10.79 o
7 11 1 1779.55 1881.47 98.93 o
7 11 2 58.95 21.43 20.49 <
7 12 1 8020.07 8677.29 270.74 o
7 13 1 1248.40 1344.92 83.43 o
7 13 2 394.09 408.94 65.79 o
7 14 1 1542.01 988.59 80.44 o
7 14 2 1260.70 1351.26 118.69 o
8 0 2 4540.40 4509.66 134.33 o
8 0 3 5507.10 5758.22 172.08 o
8 0 4 1059.94 1279.26 110.40 o
8 1 0 24.74 7.30 5.68 <
8 1 1 8843.03 8497.15 225.09 o
8 1 2 9.81 9.86 2.63 o
8 1 3 2769.44 2999.62 86.19 o
8 1 4 0.41 6.08 6.37 <
8 2 0 9728.51 9153.29 227.89 o
8 2 1 8859.97 8275.10 175.58 o
8 2 2 4572.27 4407.95 81.00 o
8 2 3 2679.62 2701.07 80.24 o
8 2 4 1357.95 1663.82 125.23 o
8 3 0 24373.20 24257.30 547.72 o
8 3 1 6012.58 6134.77 118.26 o
8 3 2 11788.50 12359.60 178.53 o
8 3 3 2072.92 2069.09 75.03 o
8 3 4 3607.02 3947.98 152.30 o
8 4 0 2613.63 2611.55 92.43 o
8 4 1 179.33 186.34 13.07 o
8 4 2 1324.38 1349.92 48.75 o
8 4 3 58.38 36.89 8.36 o
8 4 4 424.98 462.25 66.32 o
8 5 0 300.10 292.70 27.66 o
8 5 1 2594.54 2594.19 61.81 o
8 5 2 230.32 259.01 15.98 o
8 5 3 647.68 644.75 41.80 o
8 6 0 977.87 855.27 51.83 o
8 6 1 2.85 -1.02 2.64 <
8 6 2 550.87 632.99 27.94 o
8 6 3 0.01 6.72 6.34 <
8 7 0 642.89 576.92 44.12 o
8 7 1 1363.34 1318.76 48.19 o
8 7 2 271.37 284.93 18.89 o
8 7 3 714.42 657.64 56.49 o
8 8 0 228.96 233.94 32.80 o
8 8 1 228.63 245.87 21.95 o
8 8 2 111.63 73.98 10.41 o
8 8 3 89.99 83.80 12.48 o
8 9 0 495.83 344.77 43.84 o
8 9 1 4714.96 4436.34 123.77 o
8 9 2 295.16 319.21 27.27 o
8 9 3 2131.87 2290.54 154.53 o
8 10 0 435.08 440.16 35.38 o
8 10 1 8.18 -11.09 13.60 <
8 10 2 298.10 285.92 66.52 o
8 10 3 3.54 0.31 3.81 <
8 11 0 2262.00 2427.63 102.07 o
8 11 1 3218.43 3214.18 173.62 o
8 12 0 1088.32 1127.57 54.36 o
8 12 1 1012.47 992.22 83.60 o
8 13 1 2091.76 1865.60 117.50 o
9 1 1 7466.41 7535.80 209.10 o
9 1 2 5.59 -1.02 3.08 <
9 1 3 2268.58 2252.35 86.12 o
9 1 4 31.89 6.46 6.05 <
9 2 0 9034.52 8294.48 215.71 o
9 2 1 1761.53 1705.34 58.37 o
9 2 2 4449.24 4672.10 85.49 o
9 2 3 699.19 715.58 41.82 o
9 2 4 1391.42 1731.48 129.31 o
9 3 0 23185.60 22657.30 518.25 o
9 3 1 444.59 419.58 22.06 o
9 3 2 11417.00 11865.10 176.56 o
9 3 3 215.42 189.42 21.27 o
9 3 4 3371.04 3364.56 201.87 o
9 4 0 86.01 79.55 13.12 o
9 4 1 1263.19 1211.57 42.20 o
9 4 2 43.68 14.57 4.83 o
9 4 3 331.89 345.43 29.31 o
9 5 0 1730.36 1546.65 71.20 o
9 5 1 9440.64 9761.22 182.76 o
9 5 2 1096.76 1132.17 37.86 o
9 5 3 3201.00 3358.50 106.60 o
9 6 0 206.48 231.35 24.93 o
9 6 1 921.00 989.69 36.81 o
9 6 2 106.59 78.19 9.78 o
9 6 3 299.96 241.76 28.11 o
9 7 0 1087.88 1019.88 61.58 o
9 7 1 882.40 941.39 38.73 o
9 7 2 600.10 628.20 32.58 o
9 7 3 387.80 419.58 46.34 o
9 8 0 1333.34 1305.97 76.22 o
9 8 1 2393.04 2466.35 77.34 o
9 8 2 903.05 872.42 45.70 o
9 8 3 1135.48 1281.49 55.49 o
9 9 0 1769.65 1761.45 101.57 o
9 9 1 886.59 863.56 45.26 o
9 9 2 1178.33 1131.34 56.59 o
9 9 3 419.67 314.58 36.92 o
9 10 0 0.03 1.00 6.51 <
9 10 1 2012.24 1997.75 104.26 o
9 10 2 0.34 -9.70 11.11 <
9 11 0 111.04 74.09 15.22 o
9 12 0 2410.10 2248.59 95.53 o
9 13 1 189.70 169.34 33.51 o
10 0 2 660.44 703.81 64.15 o
10 0 3 2526.43 2719.13 132.70 o
10 0 4 180.45 119.15 33.22 o
10 1 1 1281.16 1125.70 62.89 o
10 1 2 19.56 8.81 4.27 o
10 1 3 455.71 397.53 44.65 o
10 1 4 2.36 -3.27 3.64 <
10 2 0 3599.02 3400.15 112.53 o
10 2 1 980.35 925.14 41.48 o
10 2 2 1884.56 1719.93 50.10 o
10 2 3 210.90 220.14 23.02 o
10 3 0 289.06 286.04 26.42 o
10 3 1 469.18 471.53 24.66 o
10 3 2 131.79 140.44 12.45 o
10 3 3 178.41 186.36 21.99 o
10 4 0 8207.48 8137.60 221.85 o
10 4 1 61.37 51.73 8.17 o
10 4 2 4584.26 4850.82 100.22 o
10 4 3 29.77 10.34 7.04 <
10 5 0 943.94 819.79 50.51 o
10 5 1 11702.40 11865.70 217.40 o
10 5 2 661.65 679.68 28.58 o
10 5 3 4221.77 4302.38 148.67 o
10 6 0 35.85 15.36 6.81 o
10 6 1 2444.86 2264.64 68.48 o
10 6 2 23.52 8.06 5.31 <
10 6 3 1049.97 1131.46 82.01 o
10 7 0 23201.70 25549.40 607.41 o
10 7 1 162.98 120.56 14.12 o
10 7 2 13332.90 14354.70 254.70 o
10 7 3 52.57 31.60 11.07 o
10 8 0 10.08 -7.12 7.98 <
10 8 1 1059.15 1196.52 47.96 o
10 8 2 6.77 6.29 3.24 <
10 8 3 526.79 555.97 53.25 o
10 9 0 133.31 126.57 25.35 o
10 9 1 10598.60 11024.00 227.84 o
10 9 2 76.74 60.50 11.89 o
10 9 3 4996.74 4602.18 183.09 o
10 10 0 680.23 549.24 59.18 o
10 10 1 34.20 15.17 3.75 o
10 10 2 441.94 410.32 36.89 o
10 11 0 84.55 10.70 13.72 <
10 11 1 233.89 176.90 35.53 o
10 11 2 46.66 24.39 11.63 o
10 12 0 98.68 78.78 13.91 o
11 1 2 4177.37 3814.14 127.02 o
11 1 3 435.16 450.07 33.36 o
11 2 0 3090.65 3288.39 114.55 o
11 2 1 22.20 7.36 3.58 o
11 2 2 1605.07 1596.25 52.59 o
11 2 3 15.44 6.55 5.77 <
11 3 0 4605.95 4517.62 143.84 o
11 3 1 25.00 19.82 4.12 o
11 3 2 2452.71 2528.22 68.76 o
11 3 3 3.52 3.84 9.31 <
11 4 0 300.32 309.93 29.02 o
11 4 1 279.59 246.88 18.74 o
11 4 2 126.77 113.82 12.52 o
11 4 3 88.18 50.14 14.99 o
11 5 0 662.55 669.13 48.22 o
11 5 1 12.29 6.06 3.83 <
11 5 2 398.72 443.83 23.73 o
11 5 3 0.01 -0.25 5.90 <
11 6 0 2389.98 2320.78 101.68 o
11 6 1 1355.45 1457.66 53.15 o
11 6 2 1363.37 1445.19 50.56 o
11 6 3 545.91 554.80 61.35 o
11 7 0 32.02 5.62 5.05 <
11 7 1 266.29 221.04 20.09 o
11 7 2 22.67 16.44 6.33 o
11 7 3 132.05 104.16 24.56 o
11 8 0 32.88 11.91 5.42 o
11 8 1 8886.59 9148.43 193.24 o
11 8 2 24.51 6.24 6.08 <
11 8 3 4264.04 4280.64 187.59 o
11 9 0 1131.94 1158.60 76.63 o
11 9 1 10.34 2.07 6.24 <
11 9 2 749.02 800.12 54.47 o
11 9 3 1.49 -0.24 1.82 <
11 10 0 4728.39 4855.27 191.99 o
11 10 1 3131.03 3295.16 130.35 o
11 10 2 3184.14 2963.25 120.42 o
11 11 0 1649.18 1466.00 130.03 o
11 11 1 833.46 757.07 59.48 o
11 11 2 1138.12 1020.76 85.51 o
12 1 2 1522.05 1680.13 100.71 o
12 1 3 256.97 199.96 24.09 o
12 2 0 149.22 111.56 27.73 o
12 2 1 7480.98 8326.22 192.16 o
12 2 2 69.30 56.23 9.97 o
12 2 3 2573.53 2319.59 82.22 o
12 3 0 981.78 1003.04 57.28 o
12 3 1 7610.42 7145.55 170.47 o
12 3 2 596.48 662.16 35.01 o
12 3 3 2884.14 2825.45 139.81 o
12 4 0 9.13 0.39 2.16 <
12 4 1 1013.09 926.22 38.90 o
12 4 2 7.14 3.50 3.36 <
12 4 3 461.42 515.25 47.03 o
12 5 0 4806.58 5102.95 164.94 o
12 5 1 109.25 111.15 12.81 o
12 5 2 2633.05 2639.49 81.96 o
12 5 3 62.27 33.03 15.32 o
12 6 0 10.94 3.53 4.68 <
12 6 1 1377.35 1456.66 54.79 o
12 6 2 16.60 15.85 5.80 o
12 6 3 622.96 671.77 72.82 o
12 7 0 946.78 959.20 62.68 o
12 7 1 4032.97 4325.01 110.81 o
12 7 2 672.58 631.50 39.67 o
12 7 3 1778.91 1901.27 152.85 o
12 8 0 250.96 240.87 32.38 o
12 8 1 1860.63 1995.88 81.38 o
12 8 2 175.47 168.24 25.07 o
12 8 3 914.41 1015.38 99.65 o
12 9 0 5496.81 5551.38 197.32 o
12 9 1 1.87 7.53 9.04 <
12 9 2 3709.96 3793.01 147.80 o
12 9 3 7.86 -4.47 7.32 <
12 10 0 197.59 236.09 49.92 o
12 10 1 659.17 592.70 49.37 o
12 10 2 141.50 162.55 25.20 o
12 11 1 506.65 511.52 45.76 o
12 11 2 364.79 378.75 54.56 o
12 12 1 617.95 572.24 71.40 o
12 12 2 24.16 8.11 6.79 <
13 1 3 423.76 361.79 32.43 o
13 2 0 158.32 153.13 34.30 o
13 2 1 2845.82 2922.97 107.32 o
13 2 2 95.32 38.42 13.20 o
13 2 3 1129.44 820.35 46.54 o
13 3 0 16.58 28.22 10.89 o
13 3 1 9992.44 10277.50 229.94 o
13 3 2 9.65 2.61 5.01 <
13 3 3 3841.08 3182.63 115.73 o
13 4 0 2532.96 2496.95 102.29 o
13 4 1 2.82 3.17 3.43 <
13 4 2 1332.07 1427.92 56.28 o
13 4 3 0.34 15.85 18.73 <
13 5 0 9227.76 9945.25 273.95 o
13 5 1 89.75 125.49 14.62 o
13 5 2 5267.35 6080.68 162.41 o
13 5 3 43.88 24.15 19.39 <
13 6 0 366.20 421.89 40.82 o
13 6 1 2510.92 2578.72 78.48 o
13 6 2 307.11 318.77 24.18 o
13 6 3 1167.89 1186.23 128.57 o
13 7 0 154.60 204.81 27.19 o
13 7 1 701.08 612.08 36.50 o
13 7 2 87.45 85.48 12.80 o
13 7 3 332.92 308.03 59.75 o
13 8 0 12.27 8.47 9.00 <
13 8 1 42.99 16.22 7.39 o
13 8 2 24.41 9.94 5.80 <
13 8 3 9.93 5.67 6.45 <
13 9 0 1230.89 1290.56 83.70 o
13 9 1 2335.16 2705.64 122.74 o
13 9 2 820.16 896.55 60.60 o
13 10 0 1751.03 1879.35 150.65 o
13 10 1 504.81 449.65 51.17 o
13 10 2 1202.68 1321.44 79.29 o
13 11 1 805.10 796.48 87.31 o
13 11 2 821.68 697.49 78.45 o
13 12 2 539.99 522.37 69.00 o
14 2 1 915.81 1040.49 102.66 o
14 2 2 3670.84 3719.98 140.16 o
14 2 3 458.79 430.26 34.07 o
14 3 0 12.40 8.48 5.48 <
14 3 1 102.32 95.61 15.19 o
14 3 2 17.64 9.28 6.17 <
14 3 3 30.85 10.98 4.98 o
14 4 0 191.40 270.88 31.12 o
14 4 1 10494.80 10976.10 209.43 o
14 4 2 79.90 85.48 16.04 o
14 4 3 4683.38 5413.14 321.69 o
14 5 0 3162.53 3140.45 122.05 o
14 5 1 36.86 10.47 3.85 o
14 5 2 1835.44 1923.58 90.79 o
14 5 3 13.29 15.34 9.45 <
14 6 0 2909.42 3109.67 127.02 o
14 6 1 630.69 641.73 36.01 o
14 6 2 1813.17 2085.57 75.05 o
14 6 3 305.24 312.36 64.98 o
14 7 0 1542.45 1539.70 88.15 o
14 7 1 6766.93 7155.06 184.20 o
14 7 2 1113.41 1151.57 52.02 o
14 7 3 3271.52 3414.51 227.85 o
14 8 0 821.04 928.50 68.28 o
14 8 1 130.42 68.18 18.00 o
14 8 2 551.74 645.99 42.46 o
14 8 3 68.95 62.24 28.37 o
14 9 0 1238.58 1340.84 130.69 o
14 9 1 66.81 15.22 10.37 <
14 9 2 771.42 854.54 60.19 o
14 10 1 2648.87 3069.18 145.45 o
14 10 2 1176.77 1290.56 77.96 o
14 11 1 365.17 540.11 76.98 o
14 11 2 205.71 260.97 47.03 o
14 12 2 756.70 740.15 82.39 o
15 2 3 151.57 98.65 18.19 o
15 3 0 827.18 815.50 59.44 o
15 3 1 158.70 86.01 16.46 o
15 3 2 581.50 511.46 44.81 o
15 4 0 89.81 33.43 11.92 o
15 4 1 4225.85 3973.41 120.71 o
15 4 2 52.99 46.78 15.08 o
15 5 0 725.53 780.83 55.98 o
15 5 1 1288.81 1413.43 54.31 o
15 5 2 496.75 480.91 49.77 o
15 5 3 650.79 880.25 111.93 o
15 6 0 734.63 755.13 56.63 o
15 6 1 2157.30 2095.67 80.37 o
15 6 2 417.94 441.67 48.40 o
15 6 3 1025.76 1056.14 123.12 o
15 7 0 3.50 3.38 5.34 <
15 7 1 31.87 10.91 5.90 <
15 7 2 1.02 2.56 2.91 <
15 7 3 13.96 22.39 23.03 <
15 8 0 4578.73 4904.36 187.36 o
15 8 1 11.97 0.89 6.36 <
15 8 2 3055.37 3172.57 103.85 o
15 8 3 1.88 1.26 6.25 <
15 9 0 40.84 25.40 10.70 o
15 9 1 2587.15 3145.85 138.59 o
15 9 2 35.15 27.45 8.30 o
15 10 1 5031.77 5659.81 297.82 o
15 10 2 809.96 837.29 87.03 o
15 11 2 908.13 1053.25 104.37 o
15 12 2 2751.22 2989.29 189.61 o
16 3 0 926.25 917.37 97.31 o
16 3 1 1670.51 1683.24 78.01 o
16 3 2 562.84 543.13 54.22 o
16 4 0 70.30 52.40 14.63 o
16 4 1 317.83 348.22 30.99 o
16 4 2 61.71 22.23 11.78 <
16 5 0 459.31 476.93 44.87 o
16 5 1 2858.85 2629.65 92.20 o
16 5 2 295.12 301.60 38.87 o
16 6 0 391.35 369.31 39.93 o
16 6 1 223.99 198.11 22.58 o
16 6 2 244.65 272.12 38.44 o
16 6 3 84.34 9.84 7.77 <
16 7 0 4578.22 4835.32 178.66 o
16 7 1 155.03 106.38 21.14 o
16 7 2 3143.51 3592.59 130.15 o
16 7 3 82.60 37.12 22.11 <
16 8 0 2564.75 2375.19 178.87 o
16 8 1 3.97 7.21 7.17 <
16 8 2 1832.62 1925.97 90.22 o
16 8 3 5.18 6.23 12.60 <
16 9 1 1685.94 1858.06 100.22 o
16 9 2 482.91 364.85 39.33 o
16 10 1 19.61 2.44 13.13 <
16 10 2 94.66 73.48 25.35 o
16 11 2 27.47 -2.62 9.93 <
16 12 2 1646.30 1849.40 143.38 o
17 3 2 2667.31 2519.07 142.90 o
17 4 0 19.40 18.79 11.25 <
17 4 1 854.51 864.04 64.45 o
17 4 2 12.15 3.50 6.23 <
17 5 0 23.26 12.76 8.39 <
17 5 1 7793.52 8588.57 250.63 o
17 5 2 25.97 1.63 3.48 <
17 6 0 10515.70 9905.17 291.96 o
17 6 1 132.78 134.88 23.87 o
17 6 2 7382.22 7824.64 314.27 o
17 7 0 183.46 88.32 27.55 o
17 7 1 369.22 385.89 39.99 o
17 7 2 122.47 85.34 23.78 o
17 7 3 208.68 246.98 57.84 o
17 8 1 552.34 687.87 56.47 o
17 8 2 936.71 1054.38 64.53 o
17 9 1 335.81 299.78 54.75 o
17 9 2 313.58 339.42 39.60 o
17 10 2 524.49 428.14 48.45 o
17 11 2 684.46 778.65 84.78 o
18 4 0 5983.57 6999.53 335.82 o
18 4 1 12.18 -4.22 7.75 <
18 4 2 4016.53 3892.36 189.55 o
18 5 0 922.49 888.20 93.92 o
18 5 1 487.08 554.61 65.72 o
18 5 2 637.17 651.17 64.79 o
18 6 0 187.69 198.65 42.06 o
18 6 1 1265.75 1435.58 81.08 o
18 6 2 126.87 154.55 32.20 o
18 7 1 2082.60 2329.31 107.26 o
18 7 2 2.53 -2.48 6.29 <
18 8 1 605.85 656.39 75.22 o
18 8 2 3.77 7.16 7.39 <
18 9 2 831.98 895.64 63.54 o
18 10 2 2082.26 1243.13 78.90 o
18 11 2 422.34 572.81 72.40 o
19 4 1 114.71 248.22 49.92 o
19 4 2 2985.79 2976.23 165.16 o
19 5 0 244.85 347.45 63.94 o
19 5 1 746.71 798.20 84.90 o
19 5 2 162.10 109.07 26.54 o
19 6 1 60.17 23.16 9.79 o
19 6 2 185.65 198.32 36.00 o
19 7 1 0.16 -3.70 9.05 <
19 7 2 766.56 703.36 76.11 o
19 8 1 691.73 713.69 85.07 o
19 8 2 184.68 326.78 51.43 o
19 9 2 1374.85 1761.08 95.77 o
19 10 2 2966.03 3013.06 187.36 o
20 4 2 0.14 3.50 6.08 <
20 5 1 1348.25 1337.69 115.25 o
20 5 2 390.52 332.26 48.65 o
20 6 2 923.06 998.46 90.29 o
20 7 1 1959.71 1958.88 210.28 o
20 7 2 414.33 423.44 57.93 o
20 8 2 517.14 563.94 73.39 o
20 9 2 265.96 415.79 65.49 o
21 5 2 1031.35 960.66 86.65 o
21 6 2 971.84 1229.67 104.35 o
21 7 2 188.93 211.95 40.15 o
22 5 2 9.48 -1.12 3.24 <
