#------------------------------------------------------------------------------
#$Date: 2021-04-15 10:48:38 +0300 (Thu, 15 Apr 2021) $
#$Revision: 264191 $
#$URL: file:///home/coder/svn-repositories/cod/cif/1/56/17/1561798.cif $
#------------------------------------------------------------------------------
#
# This file is available in the Crystallography Open Database (COD),
# http://www.crystallography.net/
#
# All data on this site have been placed in the public domain by the
# contributors.
#
data_1561798
loop_
_publ_author_name
'Seibel, Elizabeth M.'
'Xie, Weiwei'
'Gibson, Quinn D.'
'Cava, R.J.'
_publ_section_title
;
 Structure and magnetic properties of the REAuBi2 (RE=La--Nd, Sm) phases
;
_journal_name_full               'Journal of Solid State Chemistry'
_journal_page_first              318
_journal_page_last               324
_journal_paper_doi               10.1016/j.jssc.2015.07.013
_journal_volume                  230
_journal_year                    2015
_chemical_formula_sum            'Au Bi2 Ce'
_chemical_formula_weight         755.05
_space_group_crystal_system      tetragonal
_space_group_IT_number           129
_space_group_name_Hall           '-P 4a 2a'
_space_group_name_H-M_alt        'P 4/n m m :2'
_atom_sites_solution_hydrogens   .
_audit_creation_method           SHELXL-2013
_cell_angle_alpha                90
_cell_angle_beta                 90
_cell_angle_gamma                90
_cell_formula_units_Z            2
_cell_length_a                   4.619(3)
_cell_length_b                   4.619(3)
_cell_length_c                   9.918(7)
_cell_measurement_reflns_used    288
_cell_measurement_temperature    100(2)
_cell_measurement_theta_max      27.49
_cell_measurement_theta_min      6.03
_cell_volume                     211.6(2)
_computing_cell_refinement       'Bruker SAINT'
_computing_data_collection       'Bruker APEX2'
_computing_data_reduction        'Bruker SAINT'
_computing_molecular_graphics    'Bruker SHELXTL'
_computing_publication_material  'Bruker SHELXTL'
_computing_structure_refinement  'SHELXL-2013 (Sheldrick, 2013)'
_computing_structure_solution    'SHELXS-97 (Sheldrick 2008)'
_diffrn_ambient_temperature      100(2)
_diffrn_measured_fraction_theta_full 1.000
_diffrn_measured_fraction_theta_max 0.984
_diffrn_measurement_device_type  'Bruker APEX-II CCD'
_diffrn_measurement_method       '\f and \w scans'
_diffrn_radiation_type           MoK\a
_diffrn_radiation_wavelength     0.71073
_diffrn_reflns_av_R_equivalents  0.0916
_diffrn_reflns_av_unetI/netI     0.0542
_diffrn_reflns_Laue_measured_fraction_full 1.000
_diffrn_reflns_Laue_measured_fraction_max 0.984
_diffrn_reflns_limit_h_max       6
_diffrn_reflns_limit_h_min       -4
_diffrn_reflns_limit_k_max       5
_diffrn_reflns_limit_k_min       -5
_diffrn_reflns_limit_l_max       12
_diffrn_reflns_limit_l_min       -12
_diffrn_reflns_number            1053
_diffrn_reflns_point_group_measured_fraction_full 1.000
_diffrn_reflns_point_group_measured_fraction_max 0.984
_diffrn_reflns_theta_full        25.242
_diffrn_reflns_theta_max         27.992
_diffrn_reflns_theta_min         2.053
_exptl_absorpt_coefficient_mu    127.781
_exptl_absorpt_correction_T_max  0.4661
_exptl_absorpt_correction_T_min  0.0244
_exptl_absorpt_correction_type   integration
_exptl_crystal_colour            Metallic
_exptl_crystal_density_diffrn    11.850
_exptl_crystal_density_method    'Not measured'
_exptl_crystal_description       Irregular
_exptl_crystal_F_000             606
_exptl_crystal_size_max          0.030
_exptl_crystal_size_mid          0.020
_exptl_crystal_size_min          0.012
_refine_diff_density_max         6.416
_refine_diff_density_min         -3.734
_refine_diff_density_rms         1.493
_refine_ls_extinction_coef       .
_refine_ls_extinction_method     none
_refine_ls_goodness_of_fit_ref   1.074
_refine_ls_hydrogen_treatment    undef
_refine_ls_matrix_type           full
_refine_ls_number_parameters     11
_refine_ls_number_reflns         184
_refine_ls_number_restraints     0
_refine_ls_restrained_S_all      1.074
_refine_ls_R_factor_all          0.0789
_refine_ls_R_factor_gt           0.0568
_refine_ls_shift/su_max          0.000
_refine_ls_shift/su_mean         0.000
_refine_ls_structure_factor_coef Fsqd
_refine_ls_weighting_details
'w=1/[\s^2^(Fo^2^)+(0.0707P)^2^] where P=(Fo^2^+2Fc^2^)/3'
_refine_ls_weighting_scheme      calc
_refine_ls_wR_factor_gt          0.1087
_refine_ls_wR_factor_ref         0.1194
_reflns_Friedel_coverage         0.000
_reflns_Friedel_fraction_full    .
_reflns_Friedel_fraction_max     .
_reflns_number_gt                151
_reflns_number_total             184
_reflns_threshold_expression     'I > 2\s(I)'
_cod_data_source_file            JSSC-2015-230-318.cif
_cod_data_source_block           mo_Liz440_CeAuBi2_0m
_cod_depositor_comments
;
The following automatic conversions were performed:

data item '_exptl_absorpt_correction_type' value 'Integration' was
changed to 'integration' in accordance with the built-in table
derived from the CIF Core dictionary named 'cif_core.dic' version
2.4.5 last updated on 2014-11-21.

data item '_exptl_crystal_density_meas' value 'None' was changed to
'?' -- the value is perceived as not measured.

Automatic conversion script
Id: cif_fix_values 8369 2020-08-20 11:38:08Z andrius 
;
_cod_original_cell_volume        211.6(3)
_cod_original_sg_symbol_H-M      'P 4/n m m'
_cod_database_code               1561798
_shelx_space_group_comment
; 
The symmetry employed for this shelxl refinement is uniquely defined 
by the following loop, which should always be used as a source of 
symmetry information in preference to the above space-group names. 
They are only intended as comments. 
;
_shelxl_version_number           2013-4
_shelx_res_file
; 
TITL mo_Liz440_CeAuBi2_0m in P4/nmm 
CELL 0.71073   4.61900   4.61900   9.91850  90.0000  90.0000  90.0000 
ZERR    2.00   0.00340   0.00340   0.00700   0.0000   0.0000   0.0000 
LATT  1 
SYMM 0.5-X, 0.5-Y, Z 
SYMM 0.5-Y, X, Z 
SYMM Y, 0.5-X, Z 
SYMM -X, 0.5+Y, -Z 
SYMM 0.5+X, -Y, -Z 
SYMM 0.5+Y, 0.5+X, -Z 
SYMM -Y, -X, -Z 
SFAC CE AU BI 
UNIT 2 2 4 
TEMP -173.140 
  
L.S. 10 
ACTA 
  
WGHT    0.070700 
FVAR       0.08838 
MOLE   1 
BI1   3    0.250000    0.250000    0.818941    10.12500    0.00293    0.00293 = 
         0.03306    0.00000    0.00000    0.00000 
CE2   1   -0.250000   -0.250000    0.761470    10.12500    0.00604    0.00604 = 
         0.02210    0.00000    0.00000    0.00000 
BI3   3    0.750000    0.250000    0.500000    10.12500    0.00384    0.00384 = 
         0.02093    0.00000    0.00000    0.00000 
AU4   2    0.750000    0.250000    0.000000    10.12500    0.00937    0.00937 = 
         0.01948    0.00000    0.00000    0.00000 
  
HKLF 4 
  
REM  mo_Liz440_CeAuBi2_0m in P4/nmm 
REM R1 =  0.0568 for     151 Fo > 4sig(Fo)  and  0.0789 for all     184 data 
REM     11 parameters refined using      0 restraints 
  
END 
  
WGHT      0.0703      0.0000 
  
REM Highest difference peak 6.416,  deepest hole -3.734,  1-sigma level  1.493 
Q1    1   0.7500  0.2500  0.5732  10.25000  0.05    6.42 
Q2    1   0.7500  0.2500 -0.0706  10.25000  0.05    6.12 
Q3    1   0.2500  0.2500  0.8845  10.12500  0.05    5.49 
Q4    1  -0.2500 -0.2500  0.6967  10.12500  0.05    5.19 
Q5    1  -0.2500 -0.2500  0.8290  10.12500  0.05    4.57 
Q6    1   0.2500  0.2500  0.7464  10.12500  0.05    4.53 
Q7    1   0.2500  0.2500  0.6508  10.12500  0.05    4.20 
Q8    1   0.7500  0.2500  0.3168  10.25000  0.05    4.04 
Q9    1   0.2500  0.2500  0.9800  10.12500  0.05    3.95 
Q10   1   0.4600  0.2500  0.9280  10.50000  0.05    3.73 
Q11   1   0.4132  0.2500  0.8158  10.50000  0.05    3.65 
Q12   1  -0.5233 -0.2500  0.6413  10.50000  0.05    3.55 
Q13   1   0.4727  0.2500  0.0221  10.50000  0.05    3.53 
Q14   1  -0.4836 -0.2500  0.6549  10.50000  0.05    3.50 
Q15   1  -0.2500 -0.2500  0.9358  10.12500  0.05    3.48 
Q16   1   0.5201  0.2500  0.6197  10.50000  0.05    3.41 
Q17   1   0.4619  0.0381  0.8730  10.50000  0.05    3.32 
Q18   1   0.5778  0.2500  0.4986  10.50000  0.05    3.30 
Q19   1   0.7500  0.2500  0.1853  10.25000  0.05    3.30 
Q20   1   0.5794  0.2500 -0.1339  10.50000  0.05    3.15 
;
_shelx_res_checksum              47155
_shelx_hkl_file
; 
   0   0  -1   23.78    6.22 
   0   0   1   10.95    5.78 
   0   0  -2   52.79    8.00 
   0   0   2   20.56    6.68 
   0   0  -3  164.64    9.20 
   0   0  -3  192.80   12.06 
   0   0   3  176.77   10.03 
   0   0   3  141.43   10.95 
   0   0  -4  608.19   14.28 
   0   0  -4  675.26   17.04 
   0   0   4  677.67   15.52 
   0   0   4  540.47   15.26 
   0   0  -5   94.78    7.44 
   0   0  -5   83.61    8.57 
   0   0   5   91.23    7.78 
   0   0   5   74.37    8.03 
   0   0  -6  336.62   11.36 
   0   0  -6  332.27   12.71 
   0   0   6  365.11   11.97 
   0   0   6  321.69   12.23 
   0   0  -7   15.24    4.17 
   0   0   7   24.16    5.22 
   0   0  -8  143.60    8.55 
   0   0   8  156.06    8.90 
   0   0  -9    1.71    3.65 
   0   0   9    6.41    4.31 
   0   0 -10  117.97    8.59 
   0   0  10  112.89    8.51 
   0   0 -11    3.81    5.47 
   1   0   0    0.79    0.94 
  -1   0  -1   12.32    1.66 
   0  -1  -1    2.90    7.74 
   0   1  -1    8.32    5.94 
   0   1   1   -1.65    9.40 
   1   0  -1   10.64    1.38 
   1   0   1   10.62    1.44 
   1   0   1   11.10    1.57 
  -1   0  -2   82.28    3.71 
   0  -1  -2   58.83   10.06 
   0  -1   2   46.00    8.43 
   0   1  -2   18.03   10.35 
   0   1   2   33.23   10.27 
   1   0  -2   74.09    3.17 
   1   0   2   73.11    3.16 
   1   0   2   78.54    3.39 
  -1   0  -3   24.12    3.05 
   0  -1  -3   44.26    7.08 
   0  -1  -3   23.90    6.20 
   0  -1  -3   25.08    4.53 
   0   1  -3    7.59    9.19 
   0   1   3   11.19    6.84 
   0   1   3   -0.10    6.28 
   1   0  -3   21.36    2.66 
   1   0   3   22.31    2.75 
   1   0   3   23.44    2.81 
  -1   0  -4   79.46    6.14 
   0  -1  -4  123.00   13.48 
   0  -1  -4   57.43    7.36 
   0  -1  -4   58.50    8.64 
   0  -1   4   22.05    5.59 
   0   1  -4   44.35    5.71 
   0   1  -4   52.82    8.38 
   0   1   4   65.85    8.43 
   0   1   4   25.82    5.47 
   1   0  -4   74.21   13.43 
   1   0  -4   66.96    5.23 
   1   0  -4   61.73    5.59 
   1   0   4   69.21    5.03 
   1   0   4   70.88    5.53 
  -1   0  -5  155.17    9.77 
   0  -1  -5  105.48    8.70 
   0  -1  -5   87.85   10.85 
   0  -1   5   91.27    7.05 
   0   1  -5  112.18    6.91 
   0   1  -5  115.11   10.36 
   0   1   5  122.37    9.52 
   0   1   5   87.74    7.87 
   1   0  -5  158.46   22.78 
   1   0  -5  108.18    7.90 
   1   0  -5   95.71    8.58 
   1   0   5  106.41    7.55 
   1   0   5  108.73    8.19 
  -1   0  -6    1.75    5.86 
   0  -1  -6    6.10    4.04 
   0  -1   6    5.78    3.66 
   0   1  -6    4.27    3.15 
   0   1  -6    4.68    4.40 
   0   1   6    5.56    4.58 
   1   0  -6   -3.18    4.52 
   1   0  -6   -1.28    5.97 
   1   0   6    5.98    5.28 
   0  -1  -7  127.89    9.08 
   0  -1   7  133.19    7.55 
   0   1  -7  123.97    7.31 
   0   1  -7  125.39    9.91 
   0   1   7  154.60    9.92 
   1   0  -7   29.78    8.63 
   1   0   7   41.64    9.60 
  -1   0   8   29.13    8.66 
   0  -1  -8   11.43    4.47 
   0   1   8   21.05    5.74 
   1   0  -8   17.07    6.96 
   1   0   8   15.78    7.13 
  -1   0   9   66.70    9.07 
   0  -1  -9   55.28    6.98 
   0   1   9   64.96    7.82 
   1   0  -9   39.88    7.13 
   1   0   9   43.70    7.56 
  -1   0  10   56.26    8.16 
   0  -1 -10   40.74    6.34 
   0   1  10   61.70    7.71 
   1   0 -10   31.46    6.39 
   1   0  10   46.09    7.51 
   0  -1 -11    4.19    4.22 
   0   1  11    4.20    4.73 
   1   0 -11    3.44    4.46 
   0  -1 -12   24.31    5.42 
   0   1  12   34.59    6.55 
   1  -1   0    9.06    1.60 
   1   1   0   17.08    2.65 
   1   1   0    8.58    1.42 
  -1   1  -1   61.84    2.80 
   1  -1  -1   62.49    3.69 
   1  -1   1   31.88    2.14 
   1   1  -1   40.99    2.03 
   1   1   1   55.94    3.01 
   1   1   1   45.44    2.56 
  -1  -1  -2 1603.55   11.38 
  -1   1  -2 1698.99   14.01 
   1  -1  -2 1453.40   16.44 
   1  -1   2 1206.76    8.34 
   1   1  -2 1289.26    8.58 
   1   1   2 1546.30   14.56 
   1   1   2 1566.03   11.17 
  -1  -1  -3  139.69    4.54 
  -1   1  -3  135.34    6.69 
   1  -1  -3  114.75    7.16 
   1  -1   3   98.67    3.20 
   1   1  -3  115.56    3.42 
   1   1   3  116.91    6.21 
   1   1   3  128.68    4.44 
  -1  -1  -4  181.97    8.88 
  -1  -1  -4  238.19    6.78 
  -1   1  -4  220.67   10.57 
   1  -1  -4  264.15   20.03 
   1  -1  -4  159.55   10.01 
   1  -1  -4  153.05    7.85 
   1  -1   4  183.14    4.81 
   1   1  -4  204.60    5.66 
   1   1  -4  221.70    9.18 
   1   1   4  169.76    8.83 
   1   1   4  195.22    6.36 
  -1  -1  -5   88.75    9.12 
  -1  -1  -5  132.71    6.83 
  -1   1  -5  114.07   11.58 
   1  -1  -5   58.79    8.91 
   1  -1  -5   33.42    6.92 
   1  -1   5  106.66    4.92 
   1   1  -5   96.71    5.90 
   1   1  -5  100.61    9.25 
   1   1   5   74.95    9.19 
   1   1   5   98.53    6.42 
  -1  -1  -6  153.10   13.97 
  -1   1  -6  184.16   17.56 
   1  -1  -6  284.34   18.01 
   1  -1  -6   34.70    9.10 
   1  -1   6  178.05    7.52 
   1   1  -6  107.20    8.89 
   1   1  -6  103.39   12.13 
   1   1   6   75.58   11.67 
  -1  -1  -7    8.54    7.02 
  -1   1  -7    6.53    6.75 
  -1   1   7   13.93   10.20 
   1  -1  -7    7.29    7.95 
   1  -1   7    4.43    4.69 
   1   1  -7   -1.16    6.07 
   1   1   7    4.00    7.30 
  -1  -1  -8  219.41   13.40 
  -1   1   8  231.08   15.48 
   1  -1  -8  134.34   12.62 
   1   1   8  156.89   12.38 
  -1  -1  -9   -0.34    4.65 
  -1   1   9   -0.77    5.95 
   1  -1  -9   -0.07    4.90 
   1   1   9    3.31    5.39 
  -1  -1 -10  136.88   10.48 
  -1   1  10  154.91   11.98 
   1  -1 -10  116.07   10.45 
   1   1  10  135.35   10.64 
  -1   1  11    0.60    5.20 
   1  -1 -11    4.72    4.66 
   1   1  11    8.05    5.41 
  -1   1  12   30.66    6.99 
   1  -1 -12   22.13   10.62 
   1  -1 -12   21.23    6.12 
   1   1  12   28.16    6.52 
   1   2   0    0.76    1.13 
   2  -1   0    1.40    1.41 
  -2   1  -1   10.36    1.86 
   1   2  -1    5.14    1.17 
   1   2   1   13.30    3.17 
   1   2   1   10.15    2.08 
   1   2   1    8.97    1.53 
   2  -1  -1    8.10    1.95 
   2  -1   1    6.60    1.79 
  -2   1  -2   56.15    3.63 
   1   2  -2   37.33    1.82 
   1   2   2   74.94    5.53 
   1   2   2   50.57    4.38 
   2  -1  -2   44.38    3.64 
   2  -1   2   43.07    3.15 
  -2   1  -3   20.81    2.91 
  -1  -2  -3   30.56    4.58 
  -1  -2  -3   23.04    4.27 
  -1  -2  -3   19.65    2.28 
   1   2   3   26.52    4.54 
   1   2   3   16.63    4.04 
   1   2   3   16.90    2.12 
   2  -1  -3   15.00    2.98 
   2  -1   3   11.45    2.12 
  -2   1  -4   58.00    4.88 
  -1  -2  -4   83.95    7.69 
  -1  -2  -4   48.94    6.97 
   1   2  -4   44.72    6.21 
   1   2   4   93.25    7.73 
   1   2   4   46.49    6.92 
   1   2   4   47.38    3.85 
   2  -1  -4   50.43    4.99 
   2  -1   4   47.30    3.52 
  -2   1  -5  117.14    7.23 
  -1  -2  -5  167.14   10.51 
  -1  -2  -5   72.35    9.89 
   1   2  -5   60.08    8.42 
   1   2   5  170.60   10.78 
   1   2   5   63.66   10.01 
   2  -1  -5   86.54    7.13 
   2  -1   5   97.73    5.11 
  -2   1  -6    2.19    3.88 
  -1  -2  -6   -6.89    6.78 
   1   2  -6    4.84    7.51 
   1   2   6    1.71    7.35 
   1   2   6   -2.05    8.62 
   2  -1  -6    3.32    4.15 
   2  -1   6    2.56    2.74 
  -2   1  -7  134.52   12.12 
  -1  -2  -7   75.14   11.37 
   1   2  -7   24.93   11.30 
   1   2   7   22.25    9.22 
   2  -1  -7   70.66    9.43 
   2  -1   7  108.46    7.52 
  -1  -2  -8   14.80    6.67 
   1   2   8   15.00    7.30 
   2  -1  -8   27.37   11.73 
   2  -1  -8   10.20    7.36 
  -1  -2  -9   42.08    7.71 
   1   2   9   43.57    8.24 
   2  -1  -9   72.86   13.31 
   2  -1  -9    2.77    8.84 
  -2   1  10   31.29   12.08 
  -1  -2 -10   40.20    7.48 
   1   2  10   40.26    7.96 
   2  -1 -10   52.99   12.02 
   2  -1 -10    5.20    8.43 
  -2   1  11   19.50    8.54 
  -1  -2 -11    0.88    4.54 
   1   2  11    4.23    5.44 
   2  -1 -11    6.87    6.52 
  -2   1  12   34.49    9.05 
   1   2  12   28.19    6.98 
   2  -1 -12   13.27    6.60 
   0  -2   0 1288.21   15.21 
   0   2   0 1474.05   16.41 
   2   0   0 2189.92   15.54 
   0  -2  -1   13.37    5.68 
   0   2   1   11.21    5.82 
   2   0  -1   20.23    2.50 
   2   0   1   23.68    2.50 
  -2   0  -2   49.39    3.53 
   0  -2  -2   23.81    9.21 
   0   2  -2   15.89   11.60 
   0   2   2   13.04    9.66 
   2   0  -2   44.55    3.06 
   2   0   2   46.18    3.24 
  -2   0  -3  194.85    6.17 
   0  -2  -3  250.63    9.22 
   0  -2  -3  115.94   14.88 
   0   2  -3   60.30   10.88 
   0   2   3   44.12   11.71 
   2   0  -3  160.88    5.45 
   2   0   3  172.18    5.64 
  -2   0  -4  620.40   11.40 
   0  -2  -4  882.68   17.52 
   0  -2  -4  435.34   17.82 
   0   2  -4  377.64   17.22 
   0   2   4  202.43   13.89 
   2   0  -4  522.48   10.28 
   2   0   4  554.04   10.47 
  -2   0  -5   85.86    5.97 
   0  -2  -5   57.12    8.08 
   0   2  -5   52.74    7.98 
   0   2   5   46.31    8.04 
   2   0  -5   87.65   13.69 
   2   0  -5   63.25    5.04 
   2   0   5   64.87    5.19 
  -2   0  -6  364.57   14.22 
   0  -2  -6  572.63   27.36 
   0  -2  -6  225.57   12.39 
   0   2  -6  261.10   13.59 
   0   2   6  221.18   12.57 
   2   0  -6  392.29   29.41 
   2   0  -6  287.28   10.52 
   2   0   6  278.94   10.36 
   0  -2  -7   36.70   21.99 
   0  -2  -7   14.02    5.05 
   0   2  -7   22.22    5.92 
   0   2   7   18.13    6.09 
   2   0  -7   -6.81   23.58 
   2   0  -7    9.67    4.62 
   2   0   7   15.25    5.45 
   0  -2  -8  107.73    9.42 
   0   2  -8   91.79   10.12 
   0   2   8  109.68    9.95 
   2   0  -8   68.42    9.52 
   2   0   8   81.88   10.43 
   0  -2  -9    3.21    4.37 
   0   2   9    9.17    5.36 
   2   0  -9   17.51   17.87 
   2   0  -9   -1.45    7.05 
   2   0   9    2.50    8.92 
  -2   0  10  101.62   17.42 
   0  -2 -10   84.06    8.89 
   0   2  10   84.80    9.03 
   2   0 -10  131.97   18.49 
   2   0 -10    7.60   10.46 
   2   0  10   45.47   10.67 
   0  -2 -11    3.59    4.25 
   0   2  11   -0.10    4.72 
   2   0 -11   14.01   12.96 
   2   0 -11   -4.35    6.16 
   0  -2 -12  121.65   10.21 
   0   2  12  140.29   10.79 
   1  -2   0   -0.90    3.46 
   2   1   0    0.23    1.24 
   1  -2  -1    5.85    4.73 
   1  -2   1    2.81    2.62 
   2   1  -1   16.93    3.55 
   2   1  -1    9.40    1.75 
   2   1   1    7.73    1.93 
   2   1   1    8.54    1.90 
  -1   2  -2   44.86    3.81 
   1  -2  -2   34.45    7.60 
   2   1  -2   44.59    2.89 
   2   1   2   55.46    3.67 
   2   1   2   48.66    3.38 
  -2  -1  -3   23.64    3.02 
  -1   2  -3   12.53    3.60 
   1  -2  -3   13.22    7.08 
   2   1  -3   28.03    4.70 
   2   1  -3   13.46    2.02 
   2   1   3   15.45    2.80 
   2   1   3   16.62    2.33 
  -2  -1  -4   55.04    4.40 
  -1   2  -4   39.16    6.42 
   1  -2  -4   17.52    8.47 
   2   1  -4   77.23    8.15 
   2   1  -4   46.65    3.40 
   2   1   4   50.95    4.86 
  -1   2  -5   72.46   10.24 
   1  -2  -5   11.05    9.06 
   2   1  -5  102.47    5.16 
   2   1   5   96.46    6.89 
  -1   2  -6   -0.22    8.90 
  -1   2   6   10.32    9.11 
   1  -2  -6    2.41    6.95 
   2   1  -6   -1.87    7.55 
   2   1  -6    2.64    2.53 
   2   1   6    0.10    4.06 
  -1   2  -7   83.60   10.98 
  -1   2   7  119.57   13.36 
   1  -2  -7  134.05   21.97 
   1  -2  -7   67.32   10.14 
   2   1  -7  108.06    7.79 
   2   1   7   92.38   10.95 
  -1   2  -8   10.58    6.00 
  -1   2   8   24.95    7.92 
   1  -2  -8    6.35   13.42 
   1  -2  -8   14.04    6.31 
   2   1  -8   11.00    5.75 
   2   1   8   10.43    8.78 
  -1   2   9   54.04    9.21 
   1  -2  -9   64.59   14.08 
   1  -2  -9   38.12    7.43 
   2   1   9   -5.56    8.99 
  -1   2  10   45.45    8.20 
   1  -2 -10   26.20    6.68 
   2   1  10   27.04    9.02 
  -1   2  11    9.55    5.91 
   1  -2 -11   10.72    5.49 
   2   1  11    1.85    6.34 
  -1   2  12   32.16    7.22 
   1  -2 -12   26.09    6.49 
   2   1  12   31.06    7.72 
   2  -2   0 1398.31   16.32 
   2   2   0 1264.20   12.97 
   2  -2  -1   15.87    3.44 
   2   2  -1  134.11    7.17 
   2   2   1   24.86    4.03 
   2   2   1   18.46    2.70 
   2   2   1   13.97    2.66 
  -2   2  -2   29.07    3.10 
   2  -2  -2   27.14    4.35 
   2  -2   2   20.24    2.78 
   2   2  -2   60.80    5.77 
   2   2  -2   27.97    2.38 
   2   2   2   47.76    5.70 
   2   2   2   32.89    3.53 
  -2   2  -3  124.06    5.42 
   2  -2  -3  111.97    7.79 
   2  -2   3   86.41    4.55 
   2   2  -3  107.90    3.90 
   2   2   3  200.53    8.21 
   2   2   3  125.60    6.25 
  -2   2  -4  420.78   10.38 
   2  -2  -4  315.35   13.25 
   2   2  -4  395.84    7.23 
   2   2   4  411.75   11.85 
  -2   2  -5   46.49    5.47 
   2  -2  -5   33.06    7.07 
   2   2   5   52.50    6.87 
  -2   2  -6  226.69   11.96 
   2  -2  -6  115.43   12.24 
   2   2  -6  223.84   12.04 
   2   2   6  184.28   12.22 
  -2   2  -7    7.62    5.96 
   2  -2  -7    4.91    7.64 
   2   2   7    6.31    7.21 
  -2   2  -8   51.04   11.31 
   2  -2  -8  139.02   16.21 
   2  -2  -8   13.40    9.76 
   2   2   8   25.77   11.62 
  -2   2   9   -3.66   10.62 
   2  -2  -9    6.66   11.09 
   2  -2  -9   -2.83    8.04 
   2   2   9   -8.30    8.65 
  -2   2  10   72.07   12.76 
   2  -2 -10   40.38   10.06 
   2   2  10   59.39   11.03 
  -2   2  11   -0.32    7.23 
   2  -2 -11    8.44   10.59 
   2  -2 -11    1.49    5.90 
   2   2  11   -3.71    6.14 
   2   3   0    0.57    3.91 
   2   3   0    0.77    1.64 
   3  -2   0    0.29    2.40 
   2   3  -1   12.46    4.56 
   2   3  -1    3.94    1.65 
   2   3   1   14.48    4.50 
   2   3   1    5.67    2.24 
   3  -2  -1    8.27    3.09 
   3  -2   1    6.17    2.72 
  -3   2  -2   36.01    3.71 
  -2  -3  -2   59.22    6.34 
   2   3   2   53.72    6.31 
   2   3   2   31.43    3.96 
   3  -2  -2   29.69    4.55 
   3  -2   2   26.62    3.80 
  -3   2  -3   13.60    2.84 
   2   3   3   15.23    5.12 
   2   3   3   13.94    3.60 
   3  -2  -3   12.70    3.92 
   3  -2   3    8.10    2.81 
  -3   2  -4   35.99    4.25 
   2   3   4   71.29    7.85 
   2   3   4   39.64    5.93 
   3  -2  -4   31.29    5.61 
   3  -2   4   33.54    4.52 
  -3   2  -5   65.19    6.12 
  -2  -3  -5  121.03   11.16 
   2   3  -5   74.95    9.12 
   2   3   5   66.53    8.41 
   3  -2  -5   53.32    7.31 
  -3   2  -6    3.58    3.76 
  -2  -3  -6    6.66    7.53 
   2   3  -6    4.37    5.70 
   2   3   6   -2.95    5.79 
   3  -2  -6   -2.52    4.36 
  -3   2  -7   80.62    9.11 
  -2  -3  -7  155.54   15.75 
   2   3   7   49.33   11.36 
   3  -2  -7   48.10    8.87 
   2   3   8    2.60   11.50 
   3  -2  -8   -0.03    6.45 
   2   3   9   -2.54   10.30 
   3  -2  -9   10.27    8.74 
   2   3  10   10.68    9.25 
   3  -2 -10  -11.97    8.49 
   1   3   0    6.20    1.63 
   3  -1   0    5.34    2.14 
   1   3  -1   30.87    2.30 
   1   3   1   39.95    3.61 
   3  -1  -1   35.74    3.69 
   3  -1   1   38.98    3.80 
  -3   1  -2 1111.46   13.62 
  -1  -3  -2 1216.90   16.08 
   1   3   2  771.05   14.04 
   3  -1  -2  856.39   14.08 
   3  -1   2  996.14   14.06 
  -3   1  -3   86.12    5.20 
   1   3  -3   57.43    7.26 
   1   3   3  110.61    7.87 
   1   3   3   67.19    6.64 
   3  -1  -3   72.29    5.21 
   3  -1   3   73.91    4.94 
  -3   1  -4  142.29    6.86 
  -1  -3  -4  211.09   10.61 
  -1  -3  -4  128.58   10.22 
   1   3  -4   85.06   10.28 
   1   3   4  114.52   10.03 
   3  -1  -4  127.40    7.22 
   3  -1   4  127.58    6.23 
  -3   1  -5   86.04    6.49 
  -1  -3  -5   67.68   10.72 
   1   3  -5   31.44    9.45 
   1   3   5  124.32   10.63 
   1   3   5   54.68   10.46 
   3  -1  -5   81.72    6.69 
   3  -1   5   80.81    5.82 
  -3   1  -6  154.64    8.91 
  -1  -3  -6  235.27   15.22 
  -1  -3  -6   78.84   14.15 
   1   3  -6   19.44   11.17 
   1   3   6   43.38   12.94 
   3  -1  -6  122.87    8.65 
   3  -1   6  146.39    7.85 
  -1  -3  -7   -3.94    8.26 
   1   3  -7   10.78   11.45 
   1   3   7    1.68    9.72 
   3  -1  -7    0.15    4.01 
   3  -1   7    8.96    4.50 
  -1  -3  -8  376.19   26.45 
  -1  -3  -8  131.23   13.76 
   1   3  -8   65.43   12.58 
   1   3   8   80.23   12.45 
   3  -1  -8  288.36   27.30 
   3  -1  -8  122.68   11.88 
  -1  -3  -9  -22.77   19.32 
  -1  -3  -9    1.01    5.62 
   1   3   9    0.50    6.66 
   3  -1  -9   -1.60    6.21 
  -1  -3 -10   73.29    9.88 
   1   3  10  171.69   40.71 
   1   3  10   91.59   11.26 
   3  -1 -10  148.98   17.73 
   3  -1 -10   22.72    9.53 
   1   3  11   -0.85    5.82 
   3  -1 -11   -2.49    9.35 
   0  -3   0    0.90    2.28 
   0   3   0   -0.30    1.98 
   3   0   0   -1.38    1.43 
   0  -3  -1    8.69    4.04 
   0   3   1   11.58    3.97 
   3   0  -1    7.60    2.10 
   3   0   1    5.50    2.05 
   0  -3  -2   31.01    7.71 
   0   3  -2   24.11    9.11 
   0   3   2   31.20    7.39 
   3   0  -2   44.16    3.83 
   3   0   2   50.75    4.01 
  -3   0  -3   15.39    3.04 
   0  -3  -3    7.58    9.02 
   0   3  -3   16.53    7.41 
   0   3   3    7.60    9.26 
   3   0  -3   13.49    2.70 
   3   0   3   13.75    2.86 
  -3   0  -4   50.06    5.04 
   0  -3  -4    9.44   11.82 
   0   3  -4   39.05    7.80 
   0   3   4   -2.37   11.25 
   3   0  -4   43.23    4.26 
   3   0   4   42.19    4.61 
   0  -3  -5   67.71   11.22 
   0   3  -5   62.65    8.56 
   0   3   5  147.48   12.49 
   0   3   5   23.02    9.24 
   3   0  -5   80.98    5.86 
   3   0   5   89.31    6.34 
   0  -3  -6   12.85    9.80 
   0  -3  -6    6.19    5.85 
   0   3  -6    5.56    5.28 
   0   3   6   -1.15    6.05 
   3   0  -6   11.53   14.26 
   3   0  -6    1.06    2.96 
   3   0   6    4.19    3.78 
   0  -3  -7  196.31   24.35 
   0  -3  -7   76.87    9.80 
   0   3  -7   68.49    8.38 
   0   3   7   74.99   10.11 
   3   0  -7   87.11    7.70 
   3   0   7   95.35    8.62 
   0  -3  -8   25.28   22.55 
   0  -3  -8   13.35    6.02 
   0   3  -8   14.80    5.69 
   0   3   8   13.32    6.38 
   3   0  -8   43.50   30.18 
   3   0  -8   12.80    5.29 
   3   0   8   11.47    6.40 
   0  -3  -9   29.28   36.58 
   0  -3  -9   35.98    7.02 
   0   3   9   43.76    8.07 
   3   0  -9   25.28    7.25 
   3   0   9   18.56    8.52 
   0  -3 -10   26.03    6.36 
   0   3  10   35.76    7.76 
   3   0 -10   17.52    8.48 
   3   0  10   10.55   11.94 
   0  -3 -11   12.21   17.65 
   0  -3 -11    3.77    4.79 
   0   3  11   13.04    6.30 
   3   0 -11    4.45    9.75 
   1  -3   0   17.76   20.40 
   3   1   0    3.75    1.81 
   1  -3  -1    9.36   17.42 
   3   1  -1   29.43    3.26 
   3   1   1   36.90    3.57 
  -1   3   2  663.94   38.41 
   1  -3  -2  158.83   23.93 
   3   1  -2  853.92   12.33 
   3   1   2  934.19   14.04 
  -1   3  -3   60.86    5.94 
  -1   3   3   61.17   15.52 
   1  -3  -3    9.88   10.74 
   3   1  -3   77.13    4.55 
   3   1   3   76.88    5.09 
  -1   3  -4   91.50    9.08 
  -1   3   4  118.46   15.25 
   1  -3  -4   61.75   12.27 
   3   1  -4  199.10   11.79 
   3   1  -4  130.64    5.87 
   3   1   4  138.91    7.09 
  -1   3  -5   54.14    9.42 
  -1   3   5   78.46   12.31 
   1  -3  -5   37.03    9.36 
   3   1  -5   87.14    5.39 
   3   1   5   81.83    6.79 
  -1   3  -6   87.63   13.68 
  -1   3   6  114.89   13.00 
   1  -3  -6   96.72   11.99 
   3   1  -6  218.20   16.58 
   3   1  -6  151.83    7.47 
   3   1   6  142.50    9.31 
  -1   3  -7    3.36    7.12 
  -1   3   7    4.46    6.57 
   1  -3  -7    2.22    5.51 
   3   1  -7   14.01   11.21 
   3   1  -7    0.16    3.17 
   3   1   7    0.43    4.90 
  -1   3  -8  120.26   12.94 
  -1   3   8  149.92   12.85 
   1  -3  -8  243.58   40.91 
   1  -3  -8  109.30   11.41 
   3   1  -8  257.50   25.79 
   3   1  -8  154.00    9.95 
   3   1   8  127.97   12.63 
  -1   3   9    6.69    6.06 
   1  -3  -9   -5.53   20.18 
   1  -3  -9    3.52    4.96 
   3   1  -9  -16.31   18.94 
   3   1   9   -0.12    8.36 
  -1   3  10   90.82   10.87 
   1  -3 -10  100.03   19.22 
   1  -3 -10   84.87   10.04 
   3   1  10    9.16   12.14 
  -1   3  11    5.31    6.06 
   1  -3 -11    0.71    4.76 
   3   1  11    4.33    9.35 
   2  -3   0   -2.04    4.33 
   3   2   0   -3.94    4.43 
   3   2   0   -0.56    1.58 
   2  -3  -1    4.99    5.22 
   3   2  -1   14.33    5.19 
   3   2  -1    6.81    2.19 
   3   2   1    9.86    4.82 
   3   2   1   10.89    2.62 
   2  -3  -2   23.19    7.29 
   3   2  -2   31.14    3.35 
   3   2   2   39.95    4.13 
  -2   3  -3   10.81    2.60 
   2  -3  -3    2.89    6.52 
   3   2  -3    8.05    2.28 
   3   2   3   14.92    3.41 
  -2   3  -4   35.24    4.29 
   2  -3  -4   24.69    8.82 
   3   2  -4   63.91    8.07 
   3   2  -4   35.41    3.69 
   3   2   4   41.72    5.32 
  -2   3  -5   56.64    6.73 
   2  -3  -5   19.41   10.33 
   3   2  -5   92.19   11.51 
   3   2  -5   70.21    4.98 
   3   2   5   63.54    6.86 
  -2   3  -6    4.30    4.65 
   2  -3  -6    3.75    9.64 
   3   2  -6    6.13    7.45 
   3   2   6    0.33    4.17 
  -2   3  -7   48.15    9.07 
  -2   3   7   74.36   17.54 
   2  -3  -7    5.58   11.15 
   3   2  -7  124.13   15.25 
   3   2   7   69.06    9.48 
  -2   3   8    7.05   10.16 
   2  -3  -8    7.81    8.47 
   3   2  -8   24.77   11.61 
   3   2   8    5.79    7.68 
  -2   3   9   38.57   10.77 
   2  -3  -9   12.63    7.93 
   3   2   9   13.90   10.56 
  -2   3  10   35.25    9.69 
   2  -3 -10   17.58    7.64 
   3   2  10    0.13   12.12 
   3  -3   0    5.74    3.98 
   3   3   0    6.58    2.36 
   3  -3  -1   16.27    5.08 
   3  -3   1   23.96    6.14 
   3   3  -1   52.67    7.63 
   3   3  -1   24.51    3.29 
   3  -3  -2  452.71   15.76 
   3   3  -2  951.80   18.56 
   3   3  -2  630.83   13.33 
   3   3   2  598.26   12.97 
  -3   3  -3   48.36    4.61 
   3  -3  -3   37.74    7.61 
   3   3  -3   93.25   10.18 
   3   3   3   44.25    5.30 
  -3   3  -4   86.23    5.87 
   3  -3  -4   60.00    9.53 
   3   3  -4  146.19   11.42 
   3   3   4  148.53   11.41 
   3   3   4   84.99    7.24 
   3  -3  -5   44.66    9.35 
   3   3   5   61.34    7.60 
   3  -3  -6   29.93    9.25 
   3   3   6   85.08    9.49 
   3  -3  -7   -0.95    8.38 
   3   3   7    3.35    6.05 
   3  -3  -8   20.78   11.43 
   3   3   8   81.23   13.44 
  -3   3   9    7.85   13.31 
   3  -3  -9    0.34    9.77 
   3   3   9   -5.87   10.24 
   4  -3   0    3.85    4.29 
   3   4   1    6.80    6.33 
   3   4   1    3.40    2.98 
   4  -3  -1    2.28    4.62 
   3   4   2   19.40    3.93 
   4  -3  -2   23.31    6.22 
   3   4   3    5.70    3.32 
   4  -3  -3    7.30    5.35 
   3   4   4   23.20    5.05 
   4  -3  -4   13.19    6.25 
   3   4  -5   61.46    9.88 
   3   4   5   71.89   11.03 
   3   4   5   47.27    7.41 
   4  -3  -5   25.64    7.85 
   3   4  -6    2.73    8.33 
   3   4   6    5.71    5.57 
   4  -3  -6    6.21    7.01 
   3   4  -7   68.93   11.97 
   3   4   7   59.28   10.63 
   4  -3  -7   23.44    9.24 
   4  -2   0  848.48   17.03 
   4  -2  -1   32.37    5.23 
   2   4   2   14.28    3.47 
   4  -2  -2   14.24    4.31 
   4  -2   2   18.29    4.12 
  -2  -4  -3  131.75   11.16 
   2   4   3   82.55    6.85 
   4  -2  -3   70.23    7.36 
   4  -2   3   74.30    6.71 
  -4   2  -4  284.38   11.02 
  -2  -4  -4  389.09   15.28 
   2   4   4  219.79   11.09 
   4  -2  -4  203.20   11.04 
   4  -2   4  232.13   13.44 
   2   4   5   59.86    9.88 
   2   4   5   28.98    6.89 
   4  -2  -5   28.35    6.10 
  -2  -4  -6  227.60   16.10 
   2   4   6  102.02   12.25 
   4  -2  -6  105.73   10.29 
   2   4   7   26.97   11.10 
   2   4   7    6.72    9.26 
   4  -2  -7    2.99    5.37 
  -2  -4  -8   85.17   15.32 
   2   4   8   27.49   14.60 
   4  -2  -8   28.43    8.25 
   4  -1   0   -1.48    2.10 
   4  -1  -1    6.16    2.86 
   4  -1   1    6.75    3.01 
   1   4  -2   17.36    8.26 
   1   4   2   26.34    4.38 
   4  -1  -2   26.82    4.32 
   4  -1   2   32.71    4.68 
   1   4  -3    7.07    9.00 
   1   4   3   15.07    5.97 
   1   4   3    6.14    4.31 
   4  -1  -3    4.45    2.92 
   4  -1   3   10.95    3.61 
  -4   1  -4   37.14    4.76 
   1   4  -4   -9.86   10.13 
   1   4   4   29.19    6.85 
   4  -1  -4   29.36    4.95 
   4  -1   4   30.18    4.94 
  -4   1  -5   69.08    6.67 
   1   4  -5   15.86   14.30 
   1   4   5  101.95   12.09 
   1   4   5   42.30    9.64 
   4  -1  -5   53.15    6.52 
   4  -1   5   68.08    6.88 
  -1  -4  -6   -5.23    9.19 
   1   4   6   -6.47   10.01 
   4  -1  -6    1.89    3.63 
   4  -1   6    1.00    3.89 
  -1  -4  -7  146.22   18.20 
  -1  -4  -7   37.75   16.67 
   1   4   7   15.30   16.33 
   4  -1  -7   46.54    7.33 
   4  -1   7   81.86   11.09 
  -1  -4  -8    1.10    9.54 
   1   4   8    2.40   10.55 
   4  -1  -8    9.52    5.49 
   1   4   9    9.78    8.97 
   4  -1  -9   18.61    7.22 
   4   0   0 1153.62   17.32 
   4   0  -1   47.15    4.84 
   4   0   1   10.36    3.07 
   0  -4  -2   14.28    5.50 
   0   4   2   19.52    5.75 
   4   0  -2   17.11    3.38 
   4   0   2   26.32    4.13 
   0  -4  -3   67.43   10.95 
   0   4  -3   59.95   13.63 
   0   4   3   57.98   10.33 
   4   0  -3   86.61    5.96 
   4   0   3  108.64    6.70 
   0  -4  -4  166.36   19.64 
   0   4  -4  172.06   15.98 
   0   4   4  144.07   18.32 
   4   0  -4  290.29   10.10 
   4   0   4  310.99   10.73 
   0  -4  -5   29.52   16.84 
   0   4  -5   23.08    7.59 
   0   4   5   12.24   15.11 
   4   0  -5   36.44    5.15 
   4   0   5   42.44    5.82 
   0  -4  -6  138.86   16.57 
   0   4   6   43.34   12.05 
   4   0  -6  177.07    9.54 
   4   0   6  175.68   10.14 
   0  -4  -7   13.95    8.05 
   0   4   7    7.91    7.97 
   4   0  -7    8.63    4.03 
   4   0   7   10.90    5.41 
   0  -4  -8  119.57   21.60 
   0  -4  -8   43.53    8.98 
   0   4   8   54.33   10.39 
   4   0  -8   53.40    7.51 
   4   0   8   71.04    9.49 
   0  -4  -9    3.54    5.66 
   0   4   9    0.10   24.97 
   0   4   9    4.75    6.78 
   4   0  -9    3.20    5.31 
   4   0   9    4.86    7.70 
   4   1   0   -0.07    2.02 
   4   1  -1    5.99    2.60 
   4   1   1    7.75    2.80 
  -1   4   2    2.30   20.60 
   1  -4  -2    9.84   21.20 
   4   1  -2   33.58    4.19 
   4   1   2   33.12    4.44 
  -1   4   3    1.44   10.56 
   1  -4  -3   11.07   11.16 
   4   1  -3   10.44    2.90 
   4   1   3   11.21    3.38 
  -1   4  -4   21.55    5.03 
  -1   4   4    3.33    8.09 
   1  -4  -4    7.04    8.47 
   4   1  -4   27.32    4.15 
   4   1   4   43.50    5.37 
  -1   4   5   54.89   10.79 
   1  -4  -5   44.73    9.92 
   4   1  -5   64.99    5.80 
   4   1   5   67.80    6.79 
  -1   4   6    3.97    7.13 
   1  -4  -6    2.25    6.43 
   4   1  -6   -0.71   10.50 
   4   1  -6    2.98    3.03 
   4   1   6    1.86    4.26 
  -1   4   7   48.98    9.80 
   1  -4  -7   56.41   10.03 
   4   1  -7   78.05    7.26 
   4   1   7   72.08    9.05 
  -1   4   8   18.93    7.67 
   1  -4  -8    5.24    6.21 
   4   1  -8   11.48   16.02 
   4   1  -8   10.81    4.68 
   4   1   8    9.57    6.73 
  -1   4   9   27.84    8.14 
   1  -4  -9   24.65    7.55 
   4   1   9   27.44    9.87 
   4   2   0  812.60   14.84 
   4   2   1    3.99    2.60 
   2  -4  -2    5.32   14.43 
   4   2  -2   18.35    3.54 
   4   2   2   20.03    3.87 
   2  -4  -3   16.95   14.78 
   4   2  -3   84.63    5.80 
   4   2   3   86.66    6.56 
  -2   4   4  145.65   24.23 
   2  -4  -4   13.74   14.57 
   4   2  -4  247.77    8.90 
   4   2   4  239.60   10.43 
  -2   4   5   17.14   11.69 
   2  -4  -5   10.56   10.26 
   4   2  -5   27.52    4.31 
   4   2   5   33.74    5.80 
  -2   4   6  111.22   15.81 
   2  -4  -6   57.76   12.49 
   4   2  -6  234.13   16.97 
   4   2   6  135.04   10.34 
  -2   4   7   20.60    9.58 
   2  -4  -7    6.18    7.94 
   4   2   7   10.76    6.15 
  -2   4   8   37.66   10.44 
   2  -4  -8   39.60    9.50 
   4   2   8   51.16   10.44 
   4   3   0   -0.70    6.64 
   4   3   0    1.04    2.34 
   4   3  -1    5.04    2.58 
   4   3   1    7.47    3.02 
   4   3  -2   19.73    3.69 
   4   3   2   25.58    4.45 
   3  -4  -3    2.66    9.46 
   4   3   3    5.54    3.44 
   3  -4  -4    8.13   10.31 
   4   3  -4   35.96    8.67 
   4   3   4   25.37    5.10 
   3  -4  -5    9.40   11.52 
   4   3  -5   76.63   11.14 
   4   3   5   43.98    6.66 
   3  -4  -6    6.70   12.15 
   4   3   6    1.40    4.19 
  -3   4   7   44.68   17.71 
   3  -4  -7   21.69   14.68 
   4   3   7   49.27    8.91 
   4   4  -1  265.55   14.98 
   4   4   1    7.57    7.31 
   4   4   1    2.79    3.58 
   4   4  -2   19.59    8.16 
   4   4   2    8.48    3.55 
   4  -4  -3   33.01   10.31 
   4   4   3   56.39    6.46 
   4  -4  -4   66.93   13.30 
   4   4   4  245.04   17.53 
   4   4   4  148.16    9.65 
   5  -3   0    6.24    5.45 
   5  -3  -1   14.15    6.28 
   3   5   2  440.42   19.01 
   5  -3  -2  255.18   14.29 
   3   5   3   42.50   10.34 
   5  -3  -3   26.58    7.35 
   5  -2   0    2.28    3.99 
   5  -2  -1    0.35    3.79 
   5  -2   1    8.23    4.42 
   5  -2  -2   18.16    5.42 
   5  -2   2   22.06    5.43 
   5  -2  -3    4.95    4.60 
   5  -2   3    4.58    4.37 
   5  -2  -4   16.58    5.85 
   2   5  -5   37.42    8.96 
   2   5   5   74.27   11.84 
   2   5   5   32.81    7.04 
   5  -2  -5   33.83    6.97 
   2   5   6    8.10   10.25 
   2   5   6    1.86    6.85 
   5  -2  -6    1.69    4.87 
   5  -1   0    3.42    3.29 
   5  -1  -1   26.33    5.14 
   5  -1   1   28.14    5.10 
   5  -1  -2  435.43   13.84 
   5  -1   2  485.48   14.58 
   5  -1  -3   39.89    6.02 
   5  -1   3   38.15    5.90 
   5  -1  -4   64.83    7.43 
   5  -1   4   67.92    7.62 
   1   5   5   46.80    9.61 
   5  -1  -5   44.81    6.69 
   5  -1   5   49.10    7.28 
  -1  -5  -6  118.42   13.83 
   1   5   6   48.12   12.52 
   5  -1  -6   69.45    8.65 
   5  -1   6   83.48    9.41 
   1   5   7    0.65   11.46 
   1   5   7   -1.37   13.46 
   5  -1  -7    1.75    4.85 
   5   0   0    1.03    2.80 
   5   0  -1    5.00    3.15 
   5   0   1    5.28    3.23 
   5   0  -2   19.74    4.21 
   5   0   2   27.17    4.89 
   5   0  -3    6.84    3.48 
   5   0   3   10.06    4.31 
   5   0  -4   23.30    4.76 
   5   0   4   29.01    5.65 
   0  -5  -5   29.41   15.47 
   0   5   5   22.29   13.28 
   5   0  -5   37.60    5.85 
   5   0   5   54.63    7.38 
   0  -5  -6    8.71   19.46 
   0   5   6  -11.85   16.75 
   5   0  -6    1.15    3.96 
   5   0   6    2.92    4.88 
   0  -5  -7   37.22   13.84 
   0   5   7    0.44   10.54 
   5   0  -7   54.23    7.48 
   5   0   7   68.09    9.45 
   5   1   0    1.91    2.69 
   5   1  -1   30.26    4.79 
   5   1   1   33.54    4.98 
   5   1  -2  436.89   12.92 
   5   1   2  487.55   13.97 
   5   1  -3   36.67    5.19 
   5   1   3   37.58    5.84 
   5   1  -4   56.03    6.22 
   5   1   4   77.40    7.59 
  -1   5   5   15.30   11.53 
   1  -5  -5   31.65   22.32 
   5   1  -5   56.38    6.48 
   5   1   5   56.17    7.51 
  -1   5   6   40.62   10.84 
   1  -5  -6   33.21   10.79 
   5   1  -6   74.20    7.37 
   5   1   6   83.12    9.23 
  -1   5   7    2.60    7.47 
   1  -5  -7    6.86    8.10 
   5   1  -7    0.00    3.77 
   5   1   7    7.66    5.65 
   5   2   0    2.37    2.80 
   5   2  -1    1.01    2.62 
   5   2   1    7.66    3.45 
   5   2  -2   17.80    4.08 
   5   2   2   17.12    4.27 
   5   2  -3    2.28    2.85 
   5   2   3    9.86    3.92 
   5   2  -4   18.60    4.28 
   5   2   4   24.00    5.43 
  -2   5   5   17.85   10.04 
   5   2  -5   38.19    5.57 
   5   2   5   41.17    6.67 
  -2   5   6    2.83    7.26 
   2  -5  -6    7.77    7.93 
   5   2   6    3.60    4.66 
   5   3   0    3.36    3.01 
   5   3  -1   23.80    4.68 
   5   3  -2  354.14   13.19 
   5   3   2  324.61   12.28 
   5   3   3   24.36    5.34 
   6  -1   0    2.85    4.03 
   6  -1  -1    4.36    4.31 
   6  -1   1    5.74    4.63 
   6   0   0  513.12   16.17 
   6   0  -1   26.12    5.19 
   6   0   1    2.26    3.81 
   6   0  -2   10.45    4.31 
   6   0   2   10.97    4.76 
   6   1   0    1.76    3.46 
   6   1  -1    9.62    4.00 
   6   1   1    6.88    4.04 
   0   0   0    0.00    0.00 
;
_shelx_hkl_checksum              92072
loop_
_space_group_symop_operation_xyz
'x, y, z'
'-x+1/2, -y+1/2, z'
'-y+1/2, x, z'
'y, -x+1/2, z'
'-x, y+1/2, -z'
'x+1/2, -y, -z'
'y+1/2, x+1/2, -z'
'-y, -x, -z'
'-x, -y, -z'
'x-1/2, y-1/2, -z'
'y-1/2, -x, -z'
'-y, x-1/2, -z'
'x, -y-1/2, z'
'-x-1/2, y, z'
'-y-1/2, -x-1/2, z'
'y, x, z'
loop_
_atom_site_label
_atom_site_type_symbol
_atom_site_fract_x
_atom_site_fract_y
_atom_site_fract_z
_atom_site_U_iso_or_equiv
_atom_site_adp_type
_atom_site_occupancy
_atom_site_site_symmetry_order
_atom_site_calc_flag
_atom_site_refinement_flags_posn
_atom_site_refinement_flags_adp
_atom_site_refinement_flags_occupancy
_atom_site_disorder_assembly
_atom_site_disorder_group
Bi1 Bi 0.2500 0.2500 0.8189(3) 0.0130(8) Uani 1 8 d S T P . .
Ce2 Ce -0.2500 -0.2500 0.7615(4) 0.0114(9) Uani 1 8 d S T P . .
Bi3 Bi 0.7500 0.2500 0.5000 0.0095(7) Uani 1 8 d S T P . .
Au4 Au 0.7500 0.2500 0.0000 0.0127(8) Uani 1 8 d S T P . .
loop_
_atom_site_aniso_label
_atom_site_aniso_U_11
_atom_site_aniso_U_22
_atom_site_aniso_U_33
_atom_site_aniso_U_23
_atom_site_aniso_U_13
_atom_site_aniso_U_12
Bi1 0.0029(8) 0.0029(8) 0.0331(19) 0.000 0.000 0.000
Ce2 0.0060(11) 0.0060(11) 0.022(2) 0.000 0.000 0.000
Bi3 0.0038(9) 0.0038(9) 0.0209(15) 0.000 0.000 0.000
Au4 0.0094(10) 0.0094(10) 0.0195(17) 0.000 0.000 0.000
loop_
_atom_type_symbol
_atom_type_description
_atom_type_scat_dispersion_real
_atom_type_scat_dispersion_imag
_atom_type_scat_source
Ce Ce -0.2486 2.6331 'International Tables Vol C Tables 4.2.6.8 and 6.1.1.4'
Au Au -2.0133 8.8022 'International Tables Vol C Tables 4.2.6.8 and 6.1.1.4'
Bi Bi -4.1077 10.2566 'International Tables Vol C Tables 4.2.6.8 and 6.1.1.4'
loop_
_geom_angle_atom_site_label_1
_geom_angle_atom_site_label_2
_geom_angle_atom_site_label_3
_geom_angle
_geom_angle_site_symmetry_1
_geom_angle_site_symmetry_3
Au4 Bi1 Au4 67.86(6) 9_666 1_556
Au4 Bi1 Au4 104.26(11) 9_666 9_656
Au4 Bi1 Au4 67.86(6) 1_556 9_656
Au4 Bi1 Au4 67.86(6) 9_666 1_456
Au4 Bi1 Au4 104.26(11) 1_556 1_456
Au4 Bi1 Au4 67.86(6) 9_656 1_456
Au4 Bi1 Ce2 130.95(7) 9_666 .
Au4 Bi1 Ce2 130.95(7) 1_556 .
Au4 Bi1 Ce2 63.62(6) 9_656 .
Au4 Bi1 Ce2 63.62(6) 1_456 .
Au4 Bi1 Ce2 63.62(6) 9_666 1_665
Au4 Bi1 Ce2 63.62(6) 1_556 1_665
Au4 Bi1 Ce2 130.95(7) 9_656 1_665
Au4 Bi1 Ce2 130.95(7) 1_456 1_665
Ce2 Bi1 Ce2 160.20(17) . 1_665
Au4 Bi1 Ce2 130.95(7) 9_666 1_655
Au4 Bi1 Ce2 63.62(6) 1_556 1_655
Au4 Bi1 Ce2 63.62(6) 9_656 1_655
Au4 Bi1 Ce2 130.95(7) 1_456 1_655
Ce2 Bi1 Ce2 88.31(3) . 1_655
Ce2 Bi1 Ce2 88.31(3) 1_665 1_655
Au4 Bi1 Ce2 63.62(6) 9_666 1_565
Au4 Bi1 Ce2 130.95(7) 1_556 1_565
Au4 Bi1 Ce2 130.95(7) 9_656 1_565
Au4 Bi1 Ce2 63.62(6) 1_456 1_565
Ce2 Bi1 Ce2 88.31(3) . 1_565
Ce2 Bi1 Ce2 88.31(3) 1_665 1_565
Ce2 Bi1 Ce2 160.20(17) 1_655 1_565
Au4 Ce2 Au4 59.20(7) 9_656 1_456
Au4 Ce2 Au4 88.62(11) 9_656 9_556
Au4 Ce2 Au4 59.20(7) 1_456 9_556
Au4 Ce2 Au4 59.20(7) 9_656 1_446
Au4 Ce2 Au4 88.62(11) 1_456 1_446
Au4 Ce2 Au4 59.20(7) 9_556 1_446
Au4 Ce2 Bi1 111.32(10) 9_656 1_445
Au4 Ce2 Bi1 111.32(10) 1_456 1_445
Au4 Ce2 Bi1 52.44(5) 9_556 1_445
Au4 Ce2 Bi1 52.44(5) 1_446 1_445
Au4 Ce2 Bi1 52.44(5) 9_656 1_545
Au4 Ce2 Bi1 111.32(10) 1_456 1_545
Au4 Ce2 Bi1 111.32(10) 9_556 1_545
Au4 Ce2 Bi1 52.44(5) 1_446 1_545
Bi1 Ce2 Bi1 88.31(3) 1_445 1_545
Au4 Ce2 Bi1 111.32(10) 9_656 1_455
Au4 Ce2 Bi1 52.44(5) 1_456 1_455
Au4 Ce2 Bi1 52.44(5) 9_556 1_455
Au4 Ce2 Bi1 111.32(10) 1_446 1_455
Bi1 Ce2 Bi1 88.31(3) 1_445 1_455
Bi1 Ce2 Bi1 160.20(17) 1_545 1_455
Au4 Ce2 Bi1 52.44(5) 9_656 .
Au4 Ce2 Bi1 52.44(5) 1_456 .
Au4 Ce2 Bi1 111.32(10) 9_556 .
Au4 Ce2 Bi1 111.32(10) 1_446 .
Bi1 Ce2 Bi1 160.20(17) 1_445 .
Bi1 Ce2 Bi1 88.31(3) 1_545 .
Bi1 Ce2 Bi1 88.31(3) 1_455 .
Au4 Ce2 Bi3 122.30(3) 9_656 1_445
Au4 Ce2 Bi3 177.38(9) 1_456 1_445
Au4 Ce2 Bi3 122.30(3) 9_556 1_445
Au4 Ce2 Bi3 94.00(6) 1_446 1_445
Bi1 Ce2 Bi3 70.44(6) 1_445 1_445
Bi1 Ce2 Bi3 70.44(6) 1_545 1_445
Bi1 Ce2 Bi3 126.27(9) 1_455 1_445
Bi1 Ce2 Bi3 126.27(9) . 1_445
Au4 Ce2 Bi3 177.38(9) 9_656 9_556
Au4 Ce2 Bi3 122.30(3) 1_456 9_556
Au4 Ce2 Bi3 94.00(6) 9_556 9_556
Au4 Ce2 Bi3 122.30(3) 1_446 9_556
Bi1 Ce2 Bi3 70.44(6) 1_445 9_556
Bi1 Ce2 Bi3 126.27(9) 1_545 9_556
Bi1 Ce2 Bi3 70.44(6) 1_455 9_556
Bi1 Ce2 Bi3 126.27(9) . 9_556
Bi3 Ce2 Bi3 56.10(6) 1_445 9_556
Au4 Ce2 Bi3 94.00(6) 9_656 9_656
Au4 Ce2 Bi3 122.30(3) 1_456 9_656
Au4 Ce2 Bi3 177.38(9) 9_556 9_656
Au4 Ce2 Bi3 122.30(3) 1_446 9_656
Bi1 Ce2 Bi3 126.27(9) 1_445 9_656
Bi1 Ce2 Bi3 70.44(6) 1_545 9_656
Bi1 Ce2 Bi3 126.27(9) 1_455 9_656
Bi1 Ce2 Bi3 70.44(6) . 9_656
Bi3 Ce2 Bi3 56.10(6) 1_445 9_656
Bi3 Ce2 Bi3 83.37(11) 9_556 9_656
Au4 Ce2 Bi3 122.30(3) 9_656 1_455
Au4 Ce2 Bi3 94.00(6) 1_456 1_455
Au4 Ce2 Bi3 122.30(3) 9_556 1_455
Au4 Ce2 Bi3 177.38(9) 1_446 1_455
Bi1 Ce2 Bi3 126.27(9) 1_445 1_455
Bi1 Ce2 Bi3 126.27(9) 1_545 1_455
Bi1 Ce2 Bi3 70.44(6) 1_455 1_455
Bi1 Ce2 Bi3 70.44(6) . 1_455
Bi3 Ce2 Bi3 83.37(11) 1_445 1_455
Bi3 Ce2 Bi3 56.10(6) 9_556 1_455
Bi3 Ce2 Bi3 56.10(6) 9_656 1_455
Bi3 Bi3 Bi3 180.0 9_766 9_656
Bi3 Bi3 Bi3 90.0 9_766 9_666
Bi3 Bi3 Bi3 90.0 9_656 9_666
Bi3 Bi3 Bi3 90.0 9_766 9_756
Bi3 Bi3 Bi3 90.0 9_656 9_756
Bi3 Bi3 Bi3 180.0 9_666 9_756
Bi3 Bi3 Ce2 118.05(3) 9_766 9_556
Bi3 Bi3 Ce2 61.95(3) 9_656 9_556
Bi3 Bi3 Ce2 61.95(3) 9_666 9_556
Bi3 Bi3 Ce2 118.05(3) 9_756 9_556
Bi3 Bi3 Ce2 61.95(3) 9_766 1_665
Bi3 Bi3 Ce2 118.05(3) 9_656 1_665
Bi3 Bi3 Ce2 61.95(3) 9_666 1_665
Bi3 Bi3 Ce2 118.05(3) 9_756 1_665
Ce2 Bi3 Ce2 123.90(6) 9_556 1_665
Bi3 Bi3 Ce2 118.05(3) 9_766 1_655
Bi3 Bi3 Ce2 61.95(3) 9_656 1_655
Bi3 Bi3 Ce2 118.05(3) 9_666 1_655
Bi3 Bi3 Ce2 61.95(3) 9_756 1_655
Ce2 Bi3 Ce2 123.90(6) 9_556 1_655
Ce2 Bi3 Ce2 83.37(11) 1_665 1_655
Bi3 Bi3 Ce2 61.95(3) 9_766 9_656
Bi3 Bi3 Ce2 118.05(3) 9_656 9_656
Bi3 Bi3 Ce2 118.05(3) 9_666 9_656
Bi3 Bi3 Ce2 61.95(3) 9_756 9_656
Ce2 Bi3 Ce2 83.37(11) 9_556 9_656
Ce2 Bi3 Ce2 123.90(6) 1_665 9_656
Ce2 Bi3 Ce2 123.90(6) 1_655 9_656
Bi1 Au4 Bi1 112.14(6) 9_666 1_554
Bi1 Au4 Bi1 112.14(6) 9_666 1_654
Bi1 Au4 Bi1 104.26(11) 1_554 1_654
Bi1 Au4 Bi1 104.26(11) 9_666 9_656
Bi1 Au4 Bi1 112.14(6) 1_554 9_656
Bi1 Au4 Bi1 112.14(6) 1_654 9_656
Bi1 Au4 Au4 56.07(3) 9_666 9_765
Bi1 Au4 Au4 123.93(3) 1_554 9_765
Bi1 Au4 Au4 56.07(3) 1_654 9_765
Bi1 Au4 Au4 123.93(3) 9_656 9_765
Bi1 Au4 Au4 123.93(3) 9_666 9_655
Bi1 Au4 Au4 56.07(3) 1_554 9_655
Bi1 Au4 Au4 123.93(3) 1_654 9_655
Bi1 Au4 Au4 56.07(3) 9_656 9_655
Au4 Au4 Au4 180.0 9_765 9_655
Bi1 Au4 Au4 56.07(3) 9_666 9_665
Bi1 Au4 Au4 56.07(3) 1_554 9_665
Bi1 Au4 Au4 123.93(3) 1_654 9_665
Bi1 Au4 Au4 123.93(3) 9_656 9_665
Au4 Au4 Au4 90.0 9_765 9_665
Au4 Au4 Au4 90.0 9_655 9_665
Bi1 Au4 Au4 123.93(3) 9_666 9_755
Bi1 Au4 Au4 123.93(3) 1_554 9_755
Bi1 Au4 Au4 56.07(3) 1_654 9_755
Bi1 Au4 Au4 56.07(3) 9_656 9_755
Au4 Au4 Au4 90.0 9_765 9_755
Au4 Au4 Au4 90.0 9_655 9_755
Au4 Au4 Au4 180.0 9_665 9_755
Bi1 Au4 Ce2 172.18(7) 9_666 1_654
Bi1 Au4 Ce2 63.94(5) 1_554 1_654
Bi1 Au4 Ce2 63.94(5) 1_654 1_654
Bi1 Au4 Ce2 83.56(9) 9_656 1_654
Au4 Au4 Ce2 119.60(3) 9_765 1_654
Au4 Au4 Ce2 60.40(3) 9_655 1_654
Au4 Au4 Ce2 119.60(3) 9_665 1_654
Au4 Au4 Ce2 60.40(3) 9_755 1_654
Bi1 Au4 Ce2 63.94(5) 9_666 9_656
Bi1 Au4 Ce2 172.18(7) 1_554 9_656
Bi1 Au4 Ce2 83.56(9) 1_654 9_656
Bi1 Au4 Ce2 63.94(5) 9_656 9_656
Au4 Au4 Ce2 60.40(3) 9_765 9_656
Au4 Au4 Ce2 119.60(3) 9_655 9_656
Au4 Au4 Ce2 119.60(3) 9_665 9_656
Au4 Au4 Ce2 60.40(3) 9_755 9_656
Ce2 Au4 Ce2 120.80(7) 1_654 9_656
Bi1 Au4 Ce2 83.56(9) 9_666 1_664
Bi1 Au4 Ce2 63.94(5) 1_554 1_664
Bi1 Au4 Ce2 63.94(5) 1_654 1_664
Bi1 Au4 Ce2 172.18(7) 9_656 1_664
Au4 Au4 Ce2 60.40(3) 9_765 1_664
Au4 Au4 Ce2 119.60(3) 9_655 1_664
Au4 Au4 Ce2 60.40(3) 9_665 1_664
Au4 Au4 Ce2 119.60(3) 9_755 1_664
Ce2 Au4 Ce2 88.62(11) 1_654 1_664
Ce2 Au4 Ce2 120.80(7) 9_656 1_664
Bi1 Au4 Ce2 63.94(5) 9_666 9_556
Bi1 Au4 Ce2 83.56(9) 1_554 9_556
Bi1 Au4 Ce2 172.18(7) 1_654 9_556
Bi1 Au4 Ce2 63.94(5) 9_656 9_556
Au4 Au4 Ce2 119.60(3) 9_765 9_556
Au4 Au4 Ce2 60.40(3) 9_655 9_556
Au4 Au4 Ce2 60.40(3) 9_665 9_556
Au4 Au4 Ce2 119.60(3) 9_755 9_556
Ce2 Au4 Ce2 120.80(7) 1_654 9_556
Ce2 Au4 Ce2 88.62(11) 9_656 9_556
Ce2 Au4 Ce2 120.80(7) 1_664 9_556
loop_
_geom_bond_atom_site_label_1
_geom_bond_atom_site_label_2
_geom_bond_distance
_geom_bond_site_symmetry_2
Bi1 Au4 2.926(2) 9_666
Bi1 Au4 2.926(2) 1_556
Bi1 Au4 2.926(2) 9_656
Bi1 Au4 2.926(2) 1_456
Bi1 Ce2 3.315(3) .
Bi1 Ce2 3.316(3) 1_665
Bi1 Ce2 3.316(3) 1_655
Bi1 Ce2 3.316(3) 1_565
Ce2 Au4 3.306(3) 9_656
Ce2 Au4 3.306(3) 1_456
Ce2 Au4 3.306(3) 9_556
Ce2 Au4 3.306(3) 1_446
Ce2 Bi1 3.315(3) 1_445
Ce2 Bi1 3.315(3) 1_545
Ce2 Bi1 3.315(3) 1_455
Ce2 Bi3 3.473(4) 1_445
Ce2 Bi3 3.473(4) 9_556
Ce2 Bi3 3.473(4) 9_656
Ce2 Bi3 3.473(4) 1_455
Bi3 Bi3 3.266(2) 9_766
Bi3 Bi3 3.266(2) 9_656
Bi3 Bi3 3.266(2) 9_666
Bi3 Bi3 3.266(2) 9_756
Bi3 Ce2 3.473(4) 9_556
Bi3 Ce2 3.473(4) 1_665
Bi3 Ce2 3.473(4) 1_655
Bi3 Ce2 3.473(4) 9_656
Au4 Bi1 2.926(2) 9_666
Au4 Bi1 2.926(2) 1_554
Au4 Bi1 2.926(2) 1_654
Au4 Bi1 2.926(2) 9_656
Au4 Au4 3.266(2) 9_765
Au4 Au4 3.266(2) 9_655
Au4 Au4 3.266(2) 9_665
Au4 Au4 3.266(2) 9_755
Au4 Ce2 3.306(3) 1_654
Au4 Ce2 3.306(3) 9_656
Au4 Ce2 3.306(3) 1_664
Au4 Ce2 3.306(3) 9_556
