#------------------------------------------------------------------------------
#$Date: 2021-04-14 13:17:28 +0300 (Wed, 14 Apr 2021) $
#$Revision: 264163 $
#$URL: file:///home/coder/svn-repositories/cod/cif/1/56/17/1561768.cif $
#------------------------------------------------------------------------------
#
# This file is available in the Crystallography Open Database (COD),
# http://www.crystallography.net/
#
# All data on this site have been placed in the public domain by the
# contributors.
#
data_1561768
loop_
_publ_author_name
'Bykova, E.'
'Gou, H.'
'Bykov, M.'
'Hanfland, M.'
'Dubrovinsky, L.'
'Dubrovinskaia, N.'
_publ_section_title
;
 Crystal structures and compressibility of novel iron borides Fe2B7 and Fe
 B50 synthesized at high pressure and high temperature
;
_journal_name_full               'Journal of Solid State Chemistry'
_journal_page_first              102
_journal_page_last               109
_journal_paper_doi               10.1016/j.jssc.2015.06.040
_journal_volume                  230
_journal_year                    2015
_chemical_absolute_configuration .
_chemical_formula_moiety         'B50 Fe1.01'
_chemical_formula_sum            'B50 Fe1.01'
_chemical_formula_weight         596.9
_chemical_name_common            'Iron Boron (1.01/50)'
_chemical_name_systematic        'Iron Boron (1.01/50)'
_space_group_IT_number           134
_space_group_name_Hall           '-P 4ac 2bc'
_space_group_name_H-M_alt        'P 42/n n m :2'
_symmetry_cell_setting           tetragonal
_symmetry_Int_Tables_number      134
_symmetry_space_group_name_Hall  '-P 4ac 2bc'
_symmetry_space_group_name_H-M   'P 42/n n m :2'
_cell_angle_alpha                90
_cell_angle_beta                 90
_cell_angle_gamma                90
_cell_formula_units_Z            1
_cell_length_a                   8.8731(2)
_cell_length_b                   8.8731(2)
_cell_length_c                   4.9970(2)
_cell_measurement_reflns_used    345
_cell_measurement_temperature    293
_cell_measurement_theta_max      18.33
_cell_measurement_theta_min      1.89
_cell_volume                     393.42(2)
_computing_cell_refinement
;
CrysAlisPro, Agilent Technologies,
Version 1.171.37.35 (release 13-08-2014 CrysAlis171 .NET)
(compiled Aug 13 2014,18:06:01)
;
_computing_data_collection
;
CrysAlisPro, Agilent Technologies,
Version 1.171.37.35 (release 13-08-2014 CrysAlis171 .NET)
(compiled Aug 13 2014,18:06:01)
;
_computing_data_reduction
;
CrysAlisPro, Agilent Technologies,
Version 1.171.37.35 (release 13-08-2014 CrysAlis171 .NET)
(compiled Aug 13 2014,18:06:01)
;
_computing_structure_refinement  'Jana2006 (Petricek, 2014)'
_computing_structure_solution    'SHELXS-2013 (Sheldrick, 2013)'
_diffrn_ambient_pressure         6600000
_diffrn_ambient_temperature      293
_diffrn_detector                 'MAR555 flatpanel detector'
_diffrn_measured_fraction_theta_full 0.95
_diffrn_measured_fraction_theta_max 0.66
_diffrn_measurement_device
;
customized omega-circle diffractometer
;
_diffrn_measurement_device_type  'ESRF, beamline ID09A diffractometer'
_diffrn_measurement_method       '\w scans'
_diffrn_radiation_monochromator  synchrotron
_diffrn_radiation_probe          x-ray
_diffrn_radiation_source         synchrotron
_diffrn_radiation_type           synchrotron
_diffrn_radiation_wavelength     0.41441
_diffrn_reflns_av_R_equivalents  0.0368
_diffrn_reflns_av_unetI/netI     0.0351
_diffrn_reflns_limit_h_max       9
_diffrn_reflns_limit_h_min       -7
_diffrn_reflns_limit_k_max       12
_diffrn_reflns_limit_k_min       -13
_diffrn_reflns_limit_l_max       7
_diffrn_reflns_limit_l_min       -6
_diffrn_reflns_number            924
_diffrn_reflns_theta_full        14.35
_diffrn_reflns_theta_max         19.61
_diffrn_reflns_theta_min         1.89
_diffrn_source                   synchrotron
_exptl_absorpt_coefficient_mu    0.235
_exptl_absorpt_correction_T_max  1
_exptl_absorpt_correction_T_min  0.283
_exptl_absorpt_correction_type   multi-scan
_exptl_absorpt_process_details
;
CrysAlisPro, Agilent Technologies,
Version 1.171.37.35 (release 13-08-2014 CrysAlis171 .NET)
(compiled Aug 13 2014,18:06:01)
Empirical absorption correction using spherical harmonics,
 implemented in SCALE3 ABSPACK scaling algorithm.
;
_exptl_crystal_colour            black
_exptl_crystal_density_diffrn    2.5186
_exptl_crystal_description       plate
_exptl_crystal_F_000             276
_exptl_crystal_size_max          0.020
_exptl_crystal_size_mid          0.020
_exptl_crystal_size_min          0.005
_refine_diff_density_max         0.69
_refine_diff_density_min         -0.38
_refine_ls_extinction_method     none
_refine_ls_goodness_of_fit_gt    2.62
_refine_ls_goodness_of_fit_ref   2.55
_refine_ls_number_constraints    0
_refine_ls_number_parameters     35
_refine_ls_number_reflns         313
_refine_ls_number_restraints     0
_refine_ls_R_factor_all          0.0581
_refine_ls_R_factor_gt           0.0532
_refine_ls_shift/su_max          0.0003
_refine_ls_shift/su_mean         0.0000
_refine_ls_structure_factor_coef Fsqd
_refine_ls_weighting_details     w=1/(\s^2^(I)+0.0004I^2^)
_refine_ls_weighting_scheme      sigma
_refine_ls_wR_factor_gt          0.1188
_refine_ls_wR_factor_ref         0.1224
_reflns_number_gt                283
_reflns_number_total             313
_reflns_threshold_expression     I>2\s(I)
_cod_data_source_file            feb50_06.6GPa.cif
_cod_data_source_block           Fe1.0B50_6.6GPa
_cod_depositor_comments
;
The following automatic conversions were performed:

data item '_diffrn_radiation_probe' value 'X-ray' was changed to
'x-ray' in accordance with the built-in table derived from the CIF
Core dictionary named 'cif_core.dic' version 2.4.5 last updated on
2014-11-21.

Automatic conversion script
Id: cif_fix_values 8369 2020-08-20 11:38:08Z andrius 
;
_cod_original_sg_symbol_H-M      'P 42/n n m'
_cod_database_code               1561768
loop_
_symmetry_equiv_pos_site_id
_symmetry_equiv_pos_as_xyz
1 x,y,z
2 -x+1/2,-y+1/2,z
3 -y+1/2,x,z+1/2
4 y,-x+1/2,z+1/2
5 -x+1/2,y,-z+1/2
6 x,-y+1/2,-z+1/2
7 y,x,-z
8 -y+1/2,-x+1/2,-z
9 -x,-y,-z
10 x+1/2,y+1/2,-z
11 y+1/2,-x,-z+1/2
12 -y,x+1/2,-z+1/2
13 x+1/2,-y,z+1/2
14 -x,y+1/2,z+1/2
15 -y,-x,z
16 y+1/2,x+1/2,z
loop_
_atom_site_label
_atom_site_type_symbol
_atom_site_fract_x
_atom_site_fract_y
_atom_site_fract_z
_atom_site_adp_type
_atom_site_U_iso_or_equiv
_atom_site_site_symmetry_multiplicity
_atom_site_occupancy
_atom_site_calc_flag
_atom_site_refinement_flags
_atom_site_disorder_assembly
_atom_site_disorder_group
Fe1 Fe -0.25 0.25 0.25 Uani 0.0108(4) 2 0.5049 d . . .
B4 B -0.0738(2) -0.1544(3) 0.1477(4) Uani 0.0080(6) 16 1 d . . .
B5 B -0.1681(2) 0.0220(2) 0.1630(4) Uani 0.0056(6) 16 1 d . . .
B2 B 0.1220(2) -0.1220(2) 0.1391(5) Uani 0.0059(6) 8 1 d . . .
B3 B 0.0034(2) -0.0034(2) 0.3352(5) Uani 0.0048(6) 8 1 d . . .
B1 B 0.25 -0.25 0.25 Uani 0.0062(12) 2 1 d . . .
loop_
_atom_site_aniso_label
_atom_site_aniso_type_symbol
_atom_site_aniso_U_11
_atom_site_aniso_U_22
_atom_site_aniso_U_33
_atom_site_aniso_U_12
_atom_site_aniso_U_13
_atom_site_aniso_U_23
Fe1 Fe 0.0031(6) 0.0031(6) 0.0261(9) 0 0 0
B4 B 0.0049(10) 0.0103(11) 0.0088(9) 0.0009(9) 0.0011(6) -0.0044(6)
B5 B 0.0053(10) 0.0060(10) 0.0056(8) -0.0009(9) -0.0003(6) -0.0004(6)
B2 B 0.0062(9) 0.0062(9) 0.0054(11) -0.0013(14) -0.0004(6) 0.0004(6)
B3 B 0.0053(10) 0.0053(10) 0.0040(11) -0.0004(13) 0.0003(6) -0.0003(6)
B1 B 0.0057(18) 0.0057(18) 0.007(2) 0 0 0
loop_
_atom_type_symbol
_atom_type_scat_dispersion_real
_atom_type_scat_dispersion_imag
_atom_type_scat_source
B -0.0003 0.0002 'International Tables Vol C tables 4.2.6.8 and 6.1.1.1'
Fe 0.1991 0.3104 'International Tables Vol C tables 4.2.6.8 and 6.1.1.1'
loop_
_geom_angle_atom_site_label_1
_geom_angle_atom_site_label_2
_geom_angle_atom_site_label_3
_geom_angle_site_symmetry_1
_geom_angle_site_symmetry_2
_geom_angle_site_symmetry_3
_geom_angle
B5 Fe1 B5 . . 2_455 157.13(7)
B5 Fe1 B5 . . 5_455 45.43(7)
B5 Fe1 B5 . . 6_555 141.30(7)
B5 Fe1 B5 . . 11_455 92.25(7)
B5 Fe1 B5 . . 12_555 92.25(7)
B5 Fe1 B5 . . 15_555 49.42(7)
B5 Fe1 B5 . . 16_455 124.89(7)
B5 Fe1 B2 . . 3_455 83.49(7)
B5 Fe1 B2 . . 4_555 114.78(7)
B5 Fe1 B2 . . 7_555 44.15(7)
B5 Fe1 B2 . . 8_455 114.32(7)
B5 Fe1 B1 . . 3_454 78.56(5)
B5 Fe1 B1 . . 3_455 101.44(5)
B5 Fe1 B5 2_455 . 5_455 141.30(7)
B5 Fe1 B5 2_455 . 6_555 45.43(7)
B5 Fe1 B5 2_455 . 11_455 92.25(7)
B5 Fe1 B5 2_455 . 12_555 92.25(7)
B5 Fe1 B5 2_455 . 15_555 124.89(7)
B5 Fe1 B5 2_455 . 16_455 49.42(7)
B5 Fe1 B2 2_455 . 3_455 114.78(7)
B5 Fe1 B2 2_455 . 4_555 83.49(7)
B5 Fe1 B2 2_455 . 7_555 114.32(7)
B5 Fe1 B2 2_455 . 8_455 44.15(7)
B5 Fe1 B1 2_455 . 3_454 78.56(5)
B5 Fe1 B1 2_455 . 3_455 101.44(5)
B5 Fe1 B5 5_455 . 6_555 157.13(7)
B5 Fe1 B5 5_455 . 11_455 49.42(7)
B5 Fe1 B5 5_455 . 12_555 124.89(7)
B5 Fe1 B5 5_455 . 15_555 92.25(7)
B5 Fe1 B5 5_455 . 16_455 92.25(7)
B5 Fe1 B2 5_455 . 3_455 44.15(7)
B5 Fe1 B2 5_455 . 4_555 114.32(7)
B5 Fe1 B2 5_455 . 7_555 83.49(7)
B5 Fe1 B2 5_455 . 8_455 114.78(7)
B5 Fe1 B1 5_455 . 3_454 101.44(5)
B5 Fe1 B1 5_455 . 3_455 78.56(5)
B5 Fe1 B5 6_555 . 11_455 124.89(7)
B5 Fe1 B5 6_555 . 12_555 49.42(7)
B5 Fe1 B5 6_555 . 15_555 92.25(7)
B5 Fe1 B5 6_555 . 16_455 92.25(7)
B5 Fe1 B2 6_555 . 3_455 114.32(7)
B5 Fe1 B2 6_555 . 4_555 44.15(7)
B5 Fe1 B2 6_555 . 7_555 114.78(7)
B5 Fe1 B2 6_555 . 8_455 83.49(7)
B5 Fe1 B1 6_555 . 3_454 101.44(5)
B5 Fe1 B1 6_555 . 3_455 78.56(5)
B5 Fe1 B5 11_455 . 12_555 157.13(7)
B5 Fe1 B5 11_455 . 15_555 141.30(7)
B5 Fe1 B5 11_455 . 16_455 45.43(7)
B5 Fe1 B2 11_455 . 3_455 44.15(7)
B5 Fe1 B2 11_455 . 4_555 114.32(7)
B5 Fe1 B2 11_455 . 7_555 114.78(7)
B5 Fe1 B2 11_455 . 8_455 83.49(7)
B5 Fe1 B1 11_455 . 3_454 101.44(5)
B5 Fe1 B1 11_455 . 3_455 78.56(5)
B5 Fe1 B5 12_555 . 15_555 45.43(7)
B5 Fe1 B5 12_555 . 16_455 141.30(7)
B5 Fe1 B2 12_555 . 3_455 114.32(7)
B5 Fe1 B2 12_555 . 4_555 44.15(7)
B5 Fe1 B2 12_555 . 7_555 83.49(7)
B5 Fe1 B2 12_555 . 8_455 114.78(7)
B5 Fe1 B1 12_555 . 3_454 101.44(5)
B5 Fe1 B1 12_555 . 3_455 78.56(5)
B5 Fe1 B5 15_555 . 16_455 157.13(7)
B5 Fe1 B2 15_555 . 3_455 114.78(7)
B5 Fe1 B2 15_555 . 4_555 83.49(7)
B5 Fe1 B2 15_555 . 7_555 44.15(7)
B5 Fe1 B2 15_555 . 8_455 114.32(7)
B5 Fe1 B1 15_555 . 3_454 78.56(5)
B5 Fe1 B1 15_555 . 3_455 101.44(5)
B5 Fe1 B2 16_455 . 3_455 83.49(7)
B5 Fe1 B2 16_455 . 4_555 114.78(7)
B5 Fe1 B2 16_455 . 7_555 114.32(7)
B5 Fe1 B2 16_455 . 8_455 44.15(7)
B5 Fe1 B1 16_455 . 3_454 78.56(5)
B5 Fe1 B1 16_455 . 3_455 101.44(5)
B2 Fe1 B2 3_455 . 4_555 79.12(7)
B2 Fe1 B2 3_455 . 7_555 126.47(7)
B2 Fe1 B2 3_455 . 8_455 126.47(7)
B2 Fe1 B1 3_455 . 3_454 140.44(5)
B2 Fe1 B1 3_455 . 3_455 39.56(5)
B2 Fe1 B2 4_555 . 7_555 126.47(7)
B2 Fe1 B2 4_555 . 8_455 126.47(7)
B2 Fe1 B1 4_555 . 3_454 140.44(5)
B2 Fe1 B1 4_555 . 3_455 39.56(5)
B2 Fe1 B2 7_555 . 8_455 79.12(7)
B2 Fe1 B1 7_555 . 3_454 39.56(5)
B2 Fe1 B1 7_555 . 3_455 140.44(5)
B2 Fe1 B1 8_455 . 3_454 39.56(5)
B2 Fe1 B1 8_455 . 3_455 140.44(5)
B1 Fe1 B1 3_454 . 3_455 180.0(5)
B4 B4 B4 6_545 . 7_555 140.18(16)
B4 B4 B5 6_545 . . 137.10(15)
B4 B4 B5 6_545 . 7_555 113.13(14)
B4 B4 B2 6_545 . . 98.76(14)
B4 B4 B3 6_545 . . 111.99(14)
B4 B4 B5 7_555 . . 59.69(12)
B4 B4 B5 7_555 . 7_555 59.79(12)
B4 B4 B2 7_555 . . 107.99(15)
B4 B4 B3 7_555 . . 106.78(16)
B5 B4 B5 . . 7_555 108.89(14)
B5 B4 B2 . . . 108.78(15)
B5 B4 B3 . . . 59.58(12)
B5 B4 B2 7_555 . . 61.14(13)
B5 B4 B3 7_555 . . 109.21(15)
B2 B4 B3 . . . 60.53(12)
Fe1 B5 B4 . . . 167.78(13)
Fe1 B5 B4 . . 7_555 129.66(12)
Fe1 B5 B5 . . 5_455 67.29(10)
Fe1 B5 B5 . . 15_555 65.29(9)
Fe1 B5 B2 . . 7_555 77.68(10)
Fe1 B5 B3 . . . 107.90(12)
B4 B5 B4 . . 7_555 60.52(12)
B4 B5 B5 . . 5_455 115.23(15)
B4 B5 B5 . . 15_555 106.85(14)
B4 B5 B2 . . 7_555 106.95(14)
B4 B5 B3 . . . 60.10(12)
B4 B5 B5 7_555 . 5_455 120.55(15)
B4 B5 B5 7_555 . 15_555 106.87(13)
B4 B5 B2 7_555 . 7_555 59.08(12)
B4 B5 B3 7_555 . . 107.84(15)
B5 B5 B5 5_455 . 15_555 127.36(15)
B5 B5 B2 5_455 . 7_555 128.78(15)
B5 B5 B3 5_455 . . 119.36(15)
B5 B5 B2 15_555 . 7_555 59.35(11)
B5 B5 B3 15_555 . . 58.67(11)
B2 B5 B3 7_555 . . 106.04(14)
Fe1 B2 B4 3_554 . . 112.92(13)
Fe1 B2 B4 3_554 . 15_555 112.92(13)
Fe1 B2 B5 3_554 . 7_555 58.17(9)
Fe1 B2 B5 3_554 . 9_555 58.17(9)
Fe1 B2 B3 3_554 . . 162.93(15)
Fe1 B2 B1 3_554 . . 69.47(7)
B4 B2 B4 . . 15_555 108.74(15)
B4 B2 B5 . . 7_555 59.78(12)
B4 B2 B5 . . 9_555 108.99(15)
B4 B2 B3 . . . 60.03(12)
B4 B2 B1 . . . 122.84(15)
B4 B2 B5 15_555 . 7_555 108.99(15)
B4 B2 B5 15_555 . 9_555 59.78(12)
B4 B2 B3 15_555 . . 60.03(12)
B4 B2 B1 15_555 . . 122.84(15)
B5 B2 B5 7_555 . 9_555 61.30(12)
B5 B2 B3 7_555 . . 107.74(15)
B5 B2 B1 7_555 . . 116.84(14)
B5 B2 B3 9_555 . . 107.74(15)
B5 B2 B1 9_555 . . 116.84(14)
B3 B2 B1 . . . 127.61(17)
B4 B3 B4 . . 15_555 107.78(16)
B4 B3 B5 . . . 60.32(12)
B4 B3 B5 . . 15_555 110.18(16)
B4 B3 B2 . . . 59.44(12)
B4 B3 B3 . . 7_556 122.78(16)
B4 B3 B5 15_555 . . 110.18(16)
B4 B3 B5 15_555 . 15_555 60.32(12)
B4 B3 B2 15_555 . . 59.44(12)
B4 B3 B3 15_555 . 7_556 122.78(16)
B5 B3 B5 . . 15_555 62.67(12)
B5 B3 B2 . . . 108.49(16)
B5 B3 B3 . . 7_556 116.78(16)
B5 B3 B2 15_555 . . 108.49(16)
B5 B3 B3 15_555 . 7_556 116.78(16)
B2 B3 B3 . . 7_556 126.37(17)
Fe1 B1 Fe1 3_554 . 3_555 180.0(5)
Fe1 B1 B2 3_554 . . 70.97(8)
Fe1 B1 B2 3_554 . 2_545 70.97(8)
Fe1 B1 B2 3_554 . 5_555 109.03(8)
Fe1 B1 B2 3_554 . 6_545 109.03(8)
Fe1 B1 B2 3_555 . . 109.03(8)
Fe1 B1 B2 3_555 . 2_545 109.03(8)
Fe1 B1 B2 3_555 . 5_555 70.97(8)
Fe1 B1 B2 3_555 . 6_545 70.97(8)
B2 B1 B2 . . 2_545 141.94(12)
B2 B1 B2 . . 5_555 96.10(10)
B2 B1 B2 . . 6_545 96.10(10)
B2 B1 B2 2_545 . 5_555 96.10(10)
B2 B1 B2 2_545 . 6_545 96.10(10)
B2 B1 B2 5_555 . 6_545 141.94(12)
loop_
_geom_bond_atom_site_label_1
_geom_bond_atom_site_label_2
_geom_bond_site_symmetry_1
_geom_bond_site_symmetry_2
_geom_bond_distance
Fe1 B5 . . 2.193(2)
Fe1 B5 . 2_455 2.193(2)
Fe1 B5 . 5_455 2.193(2)
Fe1 B5 . 6_555 2.193(2)
Fe1 B5 . 11_455 2.193(2)
Fe1 B5 . 12_555 2.193(2)
Fe1 B5 . 15_555 2.193(2)
Fe1 B5 . 16_455 2.193(2)
Fe1 B2 . 3_455 2.522(2)
Fe1 B2 . 4_555 2.522(2)
Fe1 B2 . 7_555 2.522(2)
Fe1 B2 . 8_455 2.522(2)
Fe1 B1 . 3_454 2.4985(2)
Fe1 B1 . 3_455 2.4985(2)
B4 B4 . 6_545 1.981(3)
B4 B4 . 7_555 1.789(3)
B4 B5 . . 1.776(3)
B4 B5 . 7_555 1.774(3)
B4 B2 . . 1.762(3)
B4 B3 . . 1.772(3)
B5 B5 . 5_455 1.694(3)
B5 B5 . 15_555 1.834(3)
B5 B2 . 7_555 1.798(3)
B5 B3 . . 1.763(3)
B2 B3 . . 1.781(3)
B2 B1 . . 1.699(2)
B3 B3 . 7_556 1.650(4)
loop_
_refln_index_h
_refln_index_k
_refln_index_l
_refln_F_squared_calc
_refln_F_squared_meas
_refln_F_squared_sigma
_refln_observed_status
1 0 1 246.54 273.12 6.07 o
1 0 3 265.43 244.66 9.00 o
1 0 5 30.23 32.21 4.17 o
1 0 7 26.98 26.89 5.99 o
1 1 0 1085.04 1128.95 18.83 o
1 1 1 734.40 858.35 15.73 o
1 1 2 529.78 502.34 10.48 o
1 1 3 390.57 404.15 9.05 o
1 1 4 171.07 174.45 5.88 o
1 1 5 14.05 13.06 1.78 o
1 1 6 52.97 64.26 4.81 o
1 1 7 132.26 200.08 11.58 o
2 0 0 474.62 440.70 8.74 o
2 0 2 69.52 98.36 2.97 o
2 0 4 660.74 558.02 18.00 o
2 0 6 506.47 675.82 24.99 o
2 1 1 164.56 191.13 3.41 o
2 1 2 8.26 9.29 0.93 o
2 1 3 56.48 54.72 1.63 o
2 1 4 21.85 17.56 1.18 o
2 1 5 21.76 22.16 1.62 o
2 1 6 42.97 45.77 2.94 o
2 1 7 21.42 40.81 6.86 o
2 2 0 308.36 400.45 9.30 o
2 2 1 0.07 -0.09 0.23 <
2 2 2 373.40 433.93 10.82 o
2 2 3 0.13 -0.02 0.27 <
2 2 4 275.29 275.08 9.42 o
2 2 5 0.07 0.15 0.89 <
2 2 6 86.37 91.55 5.71 o
2 2 7 0.00 -0.33 1.64 <
3 0 3 64.46 47.57 1.99 o
3 0 5 51.83 53.19 5.22 o
3 1 0 783.93 839.34 13.53 o
3 1 1 1043.44 1279.99 7.37 o
3 1 2 427.19 421.71 7.59 o
3 1 3 1319.87 1162.18 16.37 o
3 1 4 135.75 137.38 3.42 o
3 1 5 24.57 29.16 2.01 o
3 1 6 44.81 56.17 3.91 o
3 1 7 269.44 436.56 23.55 o
3 2 1 1.71 0.30 0.19 <
3 2 2 16.53 18.16 1.14 o
3 2 3 141.37 113.51 3.83 o
3 2 4 4.74 6.23 0.96 o
3 2 5 143.31 153.01 6.12 o
3 2 6 0.84 0.58 0.62 <
3 2 7 14.46 14.71 3.18 o
3 3 0 625.69 700.26 15.68 o
3 3 1 550.05 667.55 15.72 o
3 3 2 360.02 395.95 11.58 o
3 3 3 1264.77 1178.85 24.86 o
3 3 4 110.25 105.29 5.67 o
3 3 5 189.69 203.01 8.80 o
3 3 6 38.53 32.19 6.06 o
3 3 7 151.30 208.21 18.29 o
4 0 0 147.48 173.23 5.89 o
4 0 2 518.25 597.47 9.49 o
4 0 4 554.89 552.09 9.98 o
4 0 6 17.74 20.13 3.28 o
4 1 1 986.50 1137.66 12.57 o
4 1 2 66.86 64.71 1.96 o
4 1 3 19.27 30.71 1.54 o
4 1 4 3.17 2.68 0.53 o
4 1 5 64.18 65.64 3.13 o
4 1 6 23.15 30.32 4.16 o
4 2 0 747.11 824.91 18.25 o
4 2 1 1.47 1.26 0.40 o
4 2 2 350.56 332.23 6.18 o
4 2 3 0.51 0.63 0.32 <
4 2 4 69.87 64.42 2.64 o
4 2 5 1.66 1.46 0.58 o
4 2 6 34.62 34.81 3.38 o
4 2 7 0.83 1.24 1.42 <
4 3 1 237.79 244.80 6.24 o
4 3 2 636.25 626.75 11.49 o
4 3 3 91.11 92.28 3.86 o
4 3 4 246.29 248.49 6.87 o
4 3 5 4.44 5.38 0.88 o
4 3 6 29.72 43.34 3.77 o
4 3 7 3.68 3.50 1.78 <
4 4 0 1826.33 1653.86 46.77 o
4 4 1 13.22 21.02 2.43 o
4 4 2 460.44 376.16 12.46 o
4 4 3 9.51 13.57 2.16 o
4 4 4 14.80 18.15 2.51 o
4 4 5 11.39 10.77 1.98 o
4 4 6 4.59 6.26 1.77 o
4 4 7 12.38 21.51 5.97 o
5 0 1 1340.90 1280.66 17.62 o
5 0 3 6.53 6.63 0.96 o
5 0 5 228.45 189.12 6.24 o
5 1 0 336.37 334.62 7.94 o
5 1 1 72.50 83.32 2.23 o
5 1 2 336.00 322.72 5.40 o
5 1 3 96.17 92.07 3.03 o
5 1 4 204.31 196.56 5.89 o
5 1 5 4.07 2.78 0.68 o
5 1 6 32.55 37.02 3.44 o
5 2 1 569.42 561.60 9.10 o
5 2 2 865.50 802.11 11.70 o
5 2 3 72.47 71.86 3.14 o
5 2 4 228.05 232.15 5.74 o
5 2 5 20.82 19.30 1.77 o
5 2 6 102.89 120.08 6.42 o
5 3 0 396.75 415.08 12.50 o
5 3 1 1.07 0.31 0.32 <
5 3 2 271.58 301.07 6.57 o
5 3 3 6.74 7.12 0.92 o
5 3 4 107.93 111.38 3.92 o
5 3 5 55.50 60.92 3.57 o
5 3 6 35.43 38.30 3.55 o
5 3 7 4.98 8.46 2.88 o
5 4 1 264.80 217.04 6.51 o
5 4 2 41.42 36.55 2.65 o
5 4 3 231.35 231.57 8.19 o
5 4 4 13.37 12.95 1.34 o
5 4 5 658.58 691.72 14.44 o
5 4 6 3.63 4.75 1.34 o
5 4 7 50.83 70.93 10.10 o
5 5 1 6.05 7.56 1.86 o
5 5 2 206.95 212.23 9.95 o
5 5 3 1.92 1.03 0.59 <
5 5 4 0.35 3.72 2.41 <
5 5 5 14.37 15.53 2.85 o
5 5 6 20.39 22.94 5.56 o
6 0 0 240.93 214.48 7.96 o
6 0 2 0.29 8.51 1.06 o
6 0 4 598.19 613.14 14.78 o
6 0 6 785.87 732.01 24.94 o
6 1 2 484.40 477.07 7.49 o
6 1 3 165.31 168.07 4.08 o
6 1 4 100.25 87.52 3.58 o
6 1 5 423.62 428.58 9.92 o
6 1 6 85.08 58.65 3.96 o
6 2 0 2634.69 2514.93 47.07 o
6 2 1 13.28 10.31 1.13 o
6 2 2 794.06 729.09 11.39 o
6 2 3 6.97 6.84 0.91 o
6 2 4 35.60 37.11 2.61 o
6 2 5 20.62 18.61 1.72 o
6 2 6 163.46 185.82 9.12 o
6 3 1 656.19 587.61 11.83 o
6 3 2 277.01 262.80 7.63 o
6 3 3 4.59 4.43 0.80 o
6 3 4 72.56 71.64 3.95 o
6 3 5 88.18 83.65 3.68 o
6 3 6 39.91 47.30 4.73 o
6 4 0 83.02 83.38 5.71 o
6 4 1 0.04 -0.24 0.43 <
6 4 2 19.39 23.24 2.19 o
6 4 3 1.66 1.00 0.42 o
6 4 4 523.77 515.10 12.10 o
6 4 5 8.21 8.49 1.72 o
6 4 6 427.34 487.23 17.45 o
6 4 7 0.37 1.84 1.52 <
6 5 1 158.63 130.80 7.71 o
6 5 2 30.42 24.26 2.40 o
6 5 3 21.11 21.89 2.26 o
6 5 4 1.90 1.19 0.47 o
6 5 5 0.03 0.62 0.70 <
6 6 1 92.79 79.36 6.21 o
6 6 2 373.51 354.61 14.15 o
6 6 3 149.73 140.35 8.83 o
6 6 4 68.72 73.65 9.12 o
7 0 1 68.84 68.98 3.29 o
7 0 3 112.63 105.45 4.44 o
7 0 5 329.72 275.33 9.74 o
7 1 0 211.51 185.83 5.61 o
7 1 1 10.10 14.26 1.07 o
7 1 2 138.99 131.21 3.73 o
7 1 3 7.08 6.96 0.93 o
7 1 4 79.82 75.69 3.56 o
7 1 5 11.77 5.94 1.61 o
7 1 6 83.21 57.45 6.62 o
7 2 1 115.86 118.42 4.12 o
7 2 2 300.69 277.00 6.56 o
7 2 3 44.00 49.77 2.95 o
7 2 4 121.40 118.45 5.23 o
7 2 5 6.66 7.12 1.42 o
7 2 6 20.18 16.72 3.81 o
7 3 0 59.17 59.90 4.85 o
7 3 1 4.61 3.34 0.89 o
7 3 2 153.36 155.15 5.58 o
7 3 3 26.06 25.50 2.03 o
7 3 4 249.34 228.10 8.05 o
7 3 5 15.65 20.52 2.75 o
7 3 6 71.29 73.32 8.43 o
7 4 1 133.69 124.99 5.36 o
7 4 2 0.30 1.68 0.86 <
7 4 3 8.92 9.49 1.39 o
7 4 4 2.70 3.92 0.88 o
7 4 5 0.05 -0.57 0.67 <
7 4 6 1.28 0.34 0.69 <
7 5 0 210.62 205.58 10.17 o
7 5 1 90.98 112.05 7.20 o
7 5 2 180.84 180.72 8.26 o
7 5 3 191.53 153.20 9.21 o
7 5 4 91.34 80.02 4.90 o
7 5 5 0.07 1.81 2.27 <
7 6 1 451.00 443.57 16.90 o
7 6 2 76.64 78.72 5.36 o
7 6 3 21.58 14.93 2.95 o
8 0 0 776.16 849.22 21.40 o
8 0 2 280.89 277.48 7.78 o
8 0 4 1.29 1.21 0.37 o
8 1 1 152.98 157.71 3.94 o
8 1 2 11.33 8.95 1.03 o
8 1 3 44.08 53.18 2.54 o
8 1 4 35.83 38.66 3.77 o
8 1 5 0.26 0.59 0.45 <
8 1 6 8.73 10.73 3.28 o
8 2 0 59.26 46.40 3.52 o
8 2 1 9.85 8.90 1.18 o
8 2 2 112.72 111.83 4.24 o
8 2 3 38.20 41.96 3.31 o
8 2 4 176.41 184.62 7.74 o
8 2 5 10.85 12.03 1.86 o
8 2 6 86.34 60.04 8.01 o
8 3 1 227.96 226.19 7.57 o
8 3 2 10.61 8.85 1.22 o
8 3 3 16.08 12.76 1.84 o
8 3 4 2.37 2.98 0.99 o
8 3 5 8.55 16.99 4.65 o
8 3 6 1.87 0.13 1.62 <
8 4 0 168.61 144.76 8.78 o
8 4 1 107.28 97.54 4.99 o
8 4 2 188.35 177.04 8.09 o
8 4 3 234.00 234.53 10.25 o
8 4 4 122.06 141.90 7.16 o
8 5 1 2.31 0.23 0.74 <
8 5 2 241.67 248.72 17.05 o
8 5 4 119.93 122.54 7.71 o
8 6 0 115.23 129.83 11.71 o
8 6 1 0.75 2.21 2.08 <
9 0 1 8.87 8.87 1.35 o
9 0 3 180.66 192.61 8.23 o
9 1 0 995.65 1017.67 20.52 o
9 1 1 136.72 147.15 4.05 o
9 1 2 321.85 343.54 7.98 o
9 1 3 447.52 439.94 11.34 o
9 1 4 4.73 4.53 1.44 o
9 1 5 65.78 66.32 8.73 o
9 2 1 219.21 206.83 6.39 o
9 2 2 69.79 67.68 3.86 o
9 2 3 18.90 14.55 2.25 o
9 2 4 7.75 4.40 1.13 o
9 2 5 9.16 9.72 2.49 o
9 2 6 25.00 23.24 5.07 o
9 3 0 174.25 177.12 9.86 o
9 3 1 168.63 175.72 6.01 o
9 3 2 140.88 133.81 5.74 o
9 3 3 483.05 520.84 16.41 o
9 3 4 71.73 71.52 5.28 o
9 3 5 38.96 47.43 7.21 o
9 4 1 137.02 136.43 7.26 o
9 4 2 254.18 239.47 16.88 o
9 4 3 0.06 0.80 1.14 <
9 4 4 109.37 140.59 8.73 o
9 5 0 154.03 139.31 12.98 o
9 5 1 88.29 91.35 9.84 o
9 5 2 12.96 14.16 4.66 o
9 5 4 549.12 575.23 21.61 o
10 0 0 151.73 177.43 9.46 o
10 0 2 89.75 100.19 6.55 o
10 0 4 38.84 27.90 5.00 o
10 1 1 93.66 94.63 3.98 o
10 1 2 137.82 162.67 5.99 o
10 1 3 10.17 10.43 1.48 o
10 1 4 16.59 23.54 2.70 o
10 2 0 148.52 139.26 7.09 o
10 2 1 238.55 234.85 8.05 o
10 2 2 143.67 145.65 6.77 o
10 2 3 484.45 528.24 13.71 o
10 2 4 83.25 90.92 6.48 o
10 3 1 5.69 4.35 1.23 o
10 3 2 2.77 2.45 0.94 o
10 3 3 70.04 82.93 6.19 o
10 3 4 17.77 18.17 2.92 o
10 4 1 79.64 72.47 9.22 o
10 4 2 55.68 48.58 7.81 o
10 4 3 208.23 239.58 11.55 o
10 4 4 104.62 128.15 13.45 o
11 0 1 182.91 201.89 10.39 o
11 0 3 0.53 2.03 0.98 o
11 1 0 137.34 146.68 9.60 o
11 1 1 18.71 22.69 2.44 o
11 1 2 9.17 8.67 1.46 o
11 1 3 35.96 52.35 3.51 o
11 1 4 475.55 549.88 16.72 o
11 2 1 0.09 0.24 0.73 <
11 2 2 2.65 2.52 1.03 o
11 2 3 13.83 13.00 1.99 o
11 2 4 2.84 -0.60 0.93 <
11 3 1 6.29 3.47 2.55 <
11 3 2 141.02 135.22 8.70 o
11 3 3 22.09 21.28 3.37 o
11 3 4 4.09 2.15 1.56 <
11 4 3 66.26 81.84 8.76 o
12 0 2 341.49 388.60 15.57 o
12 1 1 58.71 61.74 8.30 o
12 1 2 44.36 52.27 4.49 o
12 1 3 10.86 9.17 1.60 o
12 2 1 116.02 136.24 12.88 o
12 2 2 1.77 9.82 4.07 o
12 2 3 257.68 280.82 12.89 o
12 3 1 14.13 16.77 4.45 o
12 3 2 5.54 7.05 3.48 o
12 3 3 50.25 71.62 8.53 o
12 4 3 19.57 34.38 6.07 o
13 0 3 1.51 -0.47 1.05 <
13 1 3 0.05 1.10 0.78 <
13 2 3 21.28 26.76 5.47 o
