#------------------------------------------------------------------------------
#$Date: 2021-04-14 12:47:21 +0300 (Wed, 14 Apr 2021) $
#$Revision: 264145 $
#$URL: file:///home/coder/svn-repositories/cod/cif/1/56/17/1561750.cif $
#------------------------------------------------------------------------------
#
# This file is available in the Crystallography Open Database (COD),
# http://www.crystallography.net/
#
# All data on this site have been placed in the public domain by the
# contributors.
#
data_1561750
loop_
_publ_author_name
'Bykova, E.'
'Gou, H.'
'Bykov, M.'
'Hanfland, M.'
'Dubrovinsky, L.'
'Dubrovinskaia, N.'
_publ_section_title
;
 Crystal structures and compressibility of novel iron borides Fe2B7 and Fe
 B50 synthesized at high pressure and high temperature
;
_journal_name_full               'Journal of Solid State Chemistry'
_journal_page_first              102
_journal_page_last               109
_journal_paper_doi               10.1016/j.jssc.2015.06.040
_journal_volume                  230
_journal_year                    2015
_chemical_absolute_configuration .
_chemical_formula_moiety         'B50 Fe1.324'
_chemical_formula_sum            'B50 Fe1.324'
_chemical_formula_weight         614.4
_chemical_name_common            'Iron Boron (1.324/50)'
_chemical_name_systematic        'Iron Boron (1.324/50)'
_space_group_IT_number           134
_space_group_name_Hall           '-P 4ac 2bc'
_space_group_name_H-M_alt        'P 42/n n m :2'
_symmetry_cell_setting           tetragonal
_symmetry_Int_Tables_number      134
_symmetry_space_group_name_Hall  '-P 4ac 2bc'
_symmetry_space_group_name_H-M   'P 42/n n m :2'
_cell_angle_alpha                90
_cell_angle_beta                 90
_cell_angle_gamma                90
_cell_formula_units_Z            1
_cell_length_a                   8.6807(3)
_cell_length_b                   8.6807(3)
_cell_length_c                   4.9043(2)
_cell_measurement_reflns_used    290
_cell_measurement_temperature    293
_cell_measurement_theta_max      18.26
_cell_measurement_theta_min      3.1
_cell_volume                     369.56(2)
_computing_cell_refinement
;
CrysAlisPro, Agilent Technologies,
Version 1.171.37.35 (release 13-08-2014 CrysAlis171 .NET)
(compiled Aug 13 2014,18:06:01)
;
_computing_data_collection
;
CrysAlisPro, Agilent Technologies,
Version 1.171.37.35 (release 13-08-2014 CrysAlis171 .NET)
(compiled Aug 13 2014,18:06:01)
;
_computing_data_reduction
;
CrysAlisPro, Agilent Technologies,
Version 1.171.37.35 (release 13-08-2014 CrysAlis171 .NET)
(compiled Aug 13 2014,18:06:01)
;
_computing_structure_refinement  'Jana2006 (Petricek, 2014)'
_computing_structure_solution    'SHELXS-2013 (Sheldrick, 2013)'
_diffrn_ambient_pressure         22100000
_diffrn_ambient_temperature      293
_diffrn_detector                 'MAR555 flatpanel detector'
_diffrn_measured_fraction_theta_full 0.92
_diffrn_measured_fraction_theta_max 0.66
_diffrn_measurement_device
;
customized omega-circle diffractometer
;
_diffrn_measurement_device_type  'ESRF, beamline ID09A diffractometer'
_diffrn_measurement_method       '\w scans'
_diffrn_radiation_monochromator  synchrotron
_diffrn_radiation_probe          x-ray
_diffrn_radiation_source         synchrotron
_diffrn_radiation_type           synchrotron
_diffrn_radiation_wavelength     0.41409
_diffrn_reflns_av_R_equivalents  0.054
_diffrn_reflns_av_unetI/netI     0.0355
_diffrn_reflns_limit_h_max       11
_diffrn_reflns_limit_h_min       -12
_diffrn_reflns_limit_k_max       8
_diffrn_reflns_limit_k_min       -6
_diffrn_reflns_limit_l_max       7
_diffrn_reflns_limit_l_min       -6
_diffrn_reflns_number            831
_diffrn_reflns_theta_full        13.88
_diffrn_reflns_theta_max         19.46
_diffrn_reflns_theta_min         2.73
_diffrn_source                   synchrotron
_exptl_absorpt_coefficient_mu    0.31
_exptl_absorpt_correction_T_max  1
_exptl_absorpt_correction_T_min  0.615
_exptl_absorpt_correction_type   multi-scan
_exptl_absorpt_process_details
;
CrysAlisPro, Agilent Technologies,
Version 1.171.37.35 (release 13-08-2014 CrysAlis171 .NET)
(compiled Aug 13 2014,18:06:01)
Empirical absorption correction using spherical harmonics,
 implemented in SCALE3 ABSPACK scaling algorithm.
;
_exptl_crystal_colour            black
_exptl_crystal_density_diffrn    2.76
_exptl_crystal_description       plate
_exptl_crystal_F_000             284
_exptl_crystal_size_max          0.020
_exptl_crystal_size_mid          0.010
_exptl_crystal_size_min          0.005
_refine_diff_density_max         0.65
_refine_diff_density_min         -0.60
_refine_ls_extinction_method     none
_refine_ls_goodness_of_fit_gt    2.82
_refine_ls_goodness_of_fit_ref   2.65
_refine_ls_number_constraints    0
_refine_ls_number_parameters     35
_refine_ls_number_reflns         289
_refine_ls_number_restraints     0
_refine_ls_R_factor_all          0.0633
_refine_ls_R_factor_gt           0.0595
_refine_ls_shift/su_max          0.0002
_refine_ls_shift/su_mean         0.0000
_refine_ls_structure_factor_coef Fsqd
_refine_ls_weighting_details     w=1/(\s^2^(I)+0.0004I^2^)
_refine_ls_weighting_scheme      sigma
_refine_ls_wR_factor_gt          0.1282
_refine_ls_wR_factor_ref         0.1295
_reflns_number_gt                255
_reflns_number_total             289
_reflns_threshold_expression     I>2\s(I)
_cod_data_source_file            fe1.32B50_22.1GPa.cif
_cod_data_source_block           Fe1.3B50_22.1GPa
_cod_depositor_comments
;
The following automatic conversions were performed:

data item '_diffrn_radiation_probe' value 'X-ray' was changed to
'x-ray' in accordance with the built-in table derived from the CIF
Core dictionary named 'cif_core.dic' version 2.4.5 last updated on
2014-11-21.

Automatic conversion script
Id: cif_fix_values 8369 2020-08-20 11:38:08Z andrius 
;
_cod_original_sg_symbol_H-M      'P 42/n n m'
_cod_database_code               1561750
loop_
_symmetry_equiv_pos_site_id
_symmetry_equiv_pos_as_xyz
1 x,y,z
2 -x+1/2,-y+1/2,z
3 -y+1/2,x,z+1/2
4 y,-x+1/2,z+1/2
5 -x+1/2,y,-z+1/2
6 x,-y+1/2,-z+1/2
7 y,x,-z
8 -y+1/2,-x+1/2,-z
9 -x,-y,-z
10 x+1/2,y+1/2,-z
11 y+1/2,-x,-z+1/2
12 -y,x+1/2,-z+1/2
13 x+1/2,-y,z+1/2
14 -x,y+1/2,z+1/2
15 -y,-x,z
16 y+1/2,x+1/2,z
loop_
_atom_site_label
_atom_site_type_symbol
_atom_site_fract_x
_atom_site_fract_y
_atom_site_fract_z
_atom_site_adp_type
_atom_site_U_iso_or_equiv
_atom_site_site_symmetry_multiplicity
_atom_site_occupancy
_atom_site_calc_flag
_atom_site_refinement_flags
_atom_site_disorder_assembly
_atom_site_disorder_group
Fe1 Fe -0.25 0.25 0.25 Uani 0.0140(4) 2 0.6621 d . . .
B4 B -0.0760(3) -0.1585(4) 0.1499(5) Uani 0.0121(8) 16 1 d . . .
B5 B -0.1681(3) 0.0211(3) 0.1621(5) Uani 0.0110(8) 16 1 d . . .
B2 B 0.1234(3) -0.1234(3) 0.1406(7) Uani 0.0107(8) 8 1 d . . .
B3 B 0.0035(3) -0.0035(3) 0.3359(7) Uani 0.0097(8) 8 1 d . . .
B1 B 0.25 -0.25 0.25 Uani 0.0102(16) 2 1 d . . .
loop_
_atom_site_aniso_label
_atom_site_aniso_type_symbol
_atom_site_aniso_U_11
_atom_site_aniso_U_22
_atom_site_aniso_U_33
_atom_site_aniso_U_12
_atom_site_aniso_U_13
_atom_site_aniso_U_23
Fe1 Fe 0.0086(7) 0.0086(7) 0.0247(9) 0 0 0
B4 B 0.0114(14) 0.0131(15) 0.0118(12) -0.0007(13) 0.0000(8) -0.0034(8)
B5 B 0.0115(14) 0.0140(15) 0.0075(11) -0.0007(14) 0.0012(8) -0.0005(8)
B2 B 0.0115(13) 0.0115(13) 0.0092(15) -0.0007(19) 0.0003(9) -0.0003(9)
B3 B 0.0105(13) 0.0105(13) 0.0082(15) -0.0015(18) 0.0009(8) -0.0009(8)
B1 B 0.011(3) 0.011(3) 0.009(3) 0 0 0
loop_
_atom_type_symbol
_atom_type_scat_dispersion_real
_atom_type_scat_dispersion_imag
_atom_type_scat_source
B -0.0003 0.0002 'International Tables Vol C tables 4.2.6.8 and 6.1.1.1'
Fe 0.1988 0.3099 'International Tables Vol C tables 4.2.6.8 and 6.1.1.1'
loop_
_geom_angle_atom_site_label_1
_geom_angle_atom_site_label_2
_geom_angle_atom_site_label_3
_geom_angle_site_symmetry_1
_geom_angle_site_symmetry_2
_geom_angle_site_symmetry_3
_geom_angle
B5 Fe1 B5 . . 2_455 156.91(9)
B5 Fe1 B5 . . 5_455 45.40(11)
B5 Fe1 B5 . . 6_555 141.47(11)
B5 Fe1 B5 . . 11_455 92.30(11)
B5 Fe1 B5 . . 12_555 92.30(11)
B5 Fe1 B5 . . 15_555 49.54(11)
B5 Fe1 B5 . . 16_455 124.66(11)
B5 Fe1 B2 . . 3_455 83.77(10)
B5 Fe1 B2 . . 4_555 114.80(10)
B5 Fe1 B2 . . 7_555 44.49(10)
B5 Fe1 B2 . . 8_455 113.74(10)
B5 Fe1 B1 . . 3_454 78.46(7)
B5 Fe1 B1 . . 3_455 101.54(7)
B5 Fe1 B5 2_455 . 5_455 141.47(11)
B5 Fe1 B5 2_455 . 6_555 45.40(11)
B5 Fe1 B5 2_455 . 11_455 92.30(11)
B5 Fe1 B5 2_455 . 12_555 92.30(11)
B5 Fe1 B5 2_455 . 15_555 124.66(11)
B5 Fe1 B5 2_455 . 16_455 49.54(11)
B5 Fe1 B2 2_455 . 3_455 114.80(10)
B5 Fe1 B2 2_455 . 4_555 83.77(10)
B5 Fe1 B2 2_455 . 7_555 113.74(10)
B5 Fe1 B2 2_455 . 8_455 44.49(10)
B5 Fe1 B1 2_455 . 3_454 78.46(7)
B5 Fe1 B1 2_455 . 3_455 101.54(7)
B5 Fe1 B5 5_455 . 6_555 156.91(9)
B5 Fe1 B5 5_455 . 11_455 49.54(11)
B5 Fe1 B5 5_455 . 12_555 124.66(11)
B5 Fe1 B5 5_455 . 15_555 92.30(11)
B5 Fe1 B5 5_455 . 16_455 92.30(11)
B5 Fe1 B2 5_455 . 3_455 44.49(10)
B5 Fe1 B2 5_455 . 4_555 113.74(10)
B5 Fe1 B2 5_455 . 7_555 83.77(10)
B5 Fe1 B2 5_455 . 8_455 114.80(10)
B5 Fe1 B1 5_455 . 3_454 101.54(7)
B5 Fe1 B1 5_455 . 3_455 78.46(7)
B5 Fe1 B5 6_555 . 11_455 124.66(11)
B5 Fe1 B5 6_555 . 12_555 49.54(11)
B5 Fe1 B5 6_555 . 15_555 92.30(11)
B5 Fe1 B5 6_555 . 16_455 92.30(11)
B5 Fe1 B2 6_555 . 3_455 113.74(10)
B5 Fe1 B2 6_555 . 4_555 44.49(10)
B5 Fe1 B2 6_555 . 7_555 114.80(10)
B5 Fe1 B2 6_555 . 8_455 83.77(10)
B5 Fe1 B1 6_555 . 3_454 101.54(7)
B5 Fe1 B1 6_555 . 3_455 78.46(7)
B5 Fe1 B5 11_455 . 12_555 156.91(9)
B5 Fe1 B5 11_455 . 15_555 141.47(11)
B5 Fe1 B5 11_455 . 16_455 45.40(11)
B5 Fe1 B2 11_455 . 3_455 44.49(10)
B5 Fe1 B2 11_455 . 4_555 113.74(10)
B5 Fe1 B2 11_455 . 7_555 114.80(10)
B5 Fe1 B2 11_455 . 8_455 83.77(10)
B5 Fe1 B1 11_455 . 3_454 101.54(7)
B5 Fe1 B1 11_455 . 3_455 78.46(7)
B5 Fe1 B5 12_555 . 15_555 45.40(11)
B5 Fe1 B5 12_555 . 16_455 141.47(11)
B5 Fe1 B2 12_555 . 3_455 113.74(10)
B5 Fe1 B2 12_555 . 4_555 44.49(10)
B5 Fe1 B2 12_555 . 7_555 83.77(10)
B5 Fe1 B2 12_555 . 8_455 114.80(10)
B5 Fe1 B1 12_555 . 3_454 101.54(7)
B5 Fe1 B1 12_555 . 3_455 78.46(7)
B5 Fe1 B5 15_555 . 16_455 156.91(9)
B5 Fe1 B2 15_555 . 3_455 114.80(10)
B5 Fe1 B2 15_555 . 4_555 83.77(10)
B5 Fe1 B2 15_555 . 7_555 44.49(10)
B5 Fe1 B2 15_555 . 8_455 113.74(10)
B5 Fe1 B1 15_555 . 3_454 78.46(7)
B5 Fe1 B1 15_555 . 3_455 101.54(7)
B5 Fe1 B2 16_455 . 3_455 83.77(10)
B5 Fe1 B2 16_455 . 4_555 114.80(10)
B5 Fe1 B2 16_455 . 7_555 113.74(10)
B5 Fe1 B2 16_455 . 8_455 44.49(10)
B5 Fe1 B1 16_455 . 3_454 78.46(7)
B5 Fe1 B1 16_455 . 3_455 101.54(7)
B2 Fe1 B2 3_455 . 4_555 78.10(10)
B2 Fe1 B2 3_455 . 7_555 127.09(10)
B2 Fe1 B2 3_455 . 8_455 127.09(10)
B2 Fe1 B1 3_455 . 3_454 140.95(7)
B2 Fe1 B1 3_455 . 3_455 39.05(7)
B2 Fe1 B2 4_555 . 7_555 127.09(10)
B2 Fe1 B2 4_555 . 8_455 127.09(10)
B2 Fe1 B1 4_555 . 3_454 140.95(7)
B2 Fe1 B1 4_555 . 3_455 39.05(7)
B2 Fe1 B2 7_555 . 8_455 78.10(10)
B2 Fe1 B1 7_555 . 3_454 39.05(7)
B2 Fe1 B1 7_555 . 3_455 140.95(7)
B2 Fe1 B1 8_455 . 3_454 39.05(7)
B2 Fe1 B1 8_455 . 3_455 140.95(7)
B1 Fe1 B1 3_454 . 3_455 180.0(5)
B4 B4 B4 6_545 . 7_555 140.7(2)
B4 B4 B5 6_545 . . 137.6(2)
B4 B4 B5 6_545 . 7_555 114.8(2)
B4 B4 B2 6_545 . . 99.3(2)
B4 B4 B3 6_545 . . 112.1(2)
B4 B4 B5 7_555 . . 59.26(15)
B4 B4 B5 7_555 . 7_555 59.45(16)
B4 B4 B2 7_555 . . 107.7(2)
B4 B4 B3 7_555 . . 106.1(2)
B5 B4 B5 . . 7_555 107.0(2)
B5 B4 B2 . . . 107.2(2)
B5 B4 B3 . . . 58.90(16)
B5 B4 B2 7_555 . . 60.73(17)
B5 B4 B3 7_555 . . 107.4(2)
B2 B4 B3 . . . 59.76(17)
Fe1 B5 B4 . . . 167.88(18)
Fe1 B5 B4 . . 7_555 129.46(17)
Fe1 B5 B5 . . 5_455 67.30(14)
Fe1 B5 B5 . . 15_555 65.23(13)
Fe1 B5 B2 . . 7_555 77.15(14)
Fe1 B5 B3 . . . 107.43(17)
B4 B5 B4 . . 7_555 61.29(16)
B4 B5 B5 . . 5_455 114.1(2)
B4 B5 B5 . . 15_555 107.8(2)
B4 B5 B2 . . 7_555 108.49(19)
B4 B5 B3 . . . 60.93(17)
B4 B5 B5 7_555 . 5_455 119.6(2)
B4 B5 B5 7_555 . 15_555 107.88(19)
B4 B5 B2 7_555 . 7_555 59.89(16)
B4 B5 B3 7_555 . . 109.3(2)
B5 B5 B5 5_455 . 15_555 127.2(2)
B5 B5 B2 5_455 . 7_555 128.4(2)
B5 B5 B3 5_455 . . 118.8(2)
B5 B5 B2 15_555 . 7_555 59.40(15)
B5 B5 B3 15_555 . . 58.55(16)
B2 B5 B3 7_555 . . 106.6(2)
Fe1 B2 B4 3_554 . . 112.43(18)
Fe1 B2 B4 3_554 . 15_555 112.43(18)
Fe1 B2 B5 3_554 . 7_555 58.36(13)
Fe1 B2 B5 3_554 . 9_555 58.36(13)
Fe1 B2 B3 3_554 . . 162.1(2)
Fe1 B2 B1 3_554 . . 69.99(11)
B4 B2 B4 . . 15_555 109.9(2)
B4 B2 B5 . . 7_555 59.37(16)
B4 B2 B5 . . 9_555 108.9(2)
B4 B2 B3 . . . 60.33(17)
B4 B2 B1 . . . 122.3(2)
B4 B2 B5 15_555 . 7_555 108.9(2)
B4 B2 B5 15_555 . 9_555 59.37(16)
B4 B2 B3 15_555 . . 60.33(17)
B4 B2 B1 15_555 . . 122.3(2)
B5 B2 B5 7_555 . 9_555 61.20(17)
B5 B2 B3 7_555 . . 106.8(2)
B5 B2 B1 7_555 . . 117.5(2)
B5 B2 B3 9_555 . . 106.8(2)
B5 B2 B1 9_555 . . 117.5(2)
B3 B2 B1 . . . 127.9(2)
B4 B3 B4 . . 15_555 109.2(2)
B4 B3 B5 . . . 60.17(17)
B4 B3 B5 . . 15_555 110.7(2)
B4 B3 B2 . . . 59.92(17)
B4 B3 B3 . . 7_556 122.0(2)
B4 B3 B5 15_555 . . 110.7(2)
B4 B3 B5 15_555 . 15_555 60.17(17)
B4 B3 B2 15_555 . . 59.92(17)
B4 B3 B3 15_555 . 7_556 122.0(2)
B5 B3 B5 . . 15_555 62.90(17)
B5 B3 B2 . . . 108.4(2)
B5 B3 B3 . . 7_556 117.0(2)
B5 B3 B2 15_555 . . 108.4(2)
B5 B3 B3 15_555 . 7_556 117.0(2)
B2 B3 B3 . . 7_556 126.1(2)
Fe1 B1 Fe1 3_554 . 3_555 180.0(5)
Fe1 B1 B2 3_554 . . 70.96(12)
Fe1 B1 B2 3_554 . 2_545 70.96(12)
Fe1 B1 B2 3_554 . 5_555 109.04(12)
Fe1 B1 B2 3_554 . 6_545 109.04(12)
Fe1 B1 B2 3_555 . . 109.04(12)
Fe1 B1 B2 3_555 . 2_545 109.04(12)
Fe1 B1 B2 3_555 . 5_555 70.96(12)
Fe1 B1 B2 3_555 . 6_545 70.96(12)
B2 B1 B2 . . 2_545 141.92(17)
B2 B1 B2 . . 5_555 96.11(15)
B2 B1 B2 . . 6_545 96.11(15)
B2 B1 B2 2_545 . 5_555 96.11(15)
B2 B1 B2 2_545 . 6_545 96.11(15)
B2 B1 B2 5_555 . 6_545 141.92(17)
loop_
_geom_bond_atom_site_label_1
_geom_bond_atom_site_label_2
_geom_bond_site_symmetry_1
_geom_bond_site_symmetry_2
_geom_bond_distance
Fe1 B5 . . 2.154(3)
Fe1 B5 . 2_455 2.154(3)
Fe1 B5 . 5_455 2.154(3)
Fe1 B5 . 6_555 2.154(3)
Fe1 B5 . 11_455 2.154(3)
Fe1 B5 . 12_555 2.154(3)
Fe1 B5 . 15_555 2.154(3)
Fe1 B5 . 16_455 2.154(3)
Fe1 B2 . 3_455 2.467(3)
Fe1 B2 . 4_555 2.467(3)
Fe1 B2 . 7_555 2.467(3)
Fe1 B2 . 8_455 2.467(3)
Fe1 B1 . 3_454 2.4522(2)
Fe1 B1 . 3_455 2.4522(2)
B4 B4 . 6_545 1.868(4)
B4 B4 . 7_555 1.785(4)
B4 B5 . . 1.753(4)
B4 B5 . 7_555 1.749(4)
B4 B2 . . 1.758(4)
B4 B3 . . 1.766(4)
B5 B5 . 5_455 1.663(4)
B5 B5 . 15_555 1.805(4)
B5 B2 . 7_555 1.773(4)
B5 B3 . . 1.730(4)
B2 B3 . . 1.756(4)
B2 B1 . . 1.644(3)
B3 B3 . 7_556 1.612(5)
loop_
_refln_index_h
_refln_index_k
_refln_index_l
_refln_F_squared_calc
_refln_F_squared_meas
_refln_F_squared_sigma
_refln_observed_status
1 0 1 492.61 535.81 8.43 o
1 0 3 390.12 382.76 10.36 o
1 0 5 56.07 43.87 4.58 o
1 1 2 776.53 730.26 10.78 o
1 1 3 352.77 356.75 11.94 o
1 1 4 254.18 198.86 6.45 o
1 1 5 5.13 3.16 0.98 o
1 1 6 77.89 45.67 3.95 o
1 1 7 93.96 66.13 6.98 o
2 0 0 129.23 108.33 3.87 o
2 0 2 208.41 247.76 4.16 o
2 0 4 726.91 694.95 13.29 o
2 0 6 459.02 374.18 11.40 o
2 1 1 378.58 395.88 4.30 o
2 1 2 5.14 8.17 0.83 o
2 1 3 146.66 162.52 4.96 o
2 1 4 16.68 14.96 1.95 o
2 1 5 49.76 41.82 3.97 o
2 1 6 25.25 18.89 2.13 o
2 1 7 26.19 14.02 3.88 o
2 2 0 520.84 570.43 11.05 o
2 2 1 0.06 0.39 0.20 <
2 2 2 571.23 630.24 11.84 o
2 2 3 0.61 1.74 0.63 o
2 2 4 385.16 483.26 12.45 o
2 2 5 0.91 1.15 0.66 <
2 2 6 120.57 124.46 9.76 o
2 2 7 0.02 -0.51 1.10 <
3 0 1 164.81 130.74 3.67 o
3 0 3 145.16 130.94 6.53 o
3 1 0 1155.00 1183.62 11.40 o
3 1 1 1004.64 1072.30 9.21 o
3 1 2 654.00 644.49 6.67 o
3 1 3 1244.37 1148.40 11.32 o
3 1 4 207.43 230.83 7.14 o
3 1 5 23.08 23.17 2.99 o
3 1 6 56.97 47.89 4.49 o
3 1 7 205.54 161.62 14.06 o
3 2 2 21.43 24.73 1.53 o
3 2 3 234.59 215.51 5.65 o
3 2 4 4.97 7.90 1.22 o
3 2 5 174.04 207.74 7.08 o
3 2 6 1.53 1.20 0.67 <
3 2 7 20.33 18.38 4.40 o
3 3 1 473.15 543.85 12.84 o
3 3 2 542.22 549.78 13.24 o
3 3 3 1046.91 1042.22 18.49 o
3 3 4 139.85 167.63 7.81 o
3 3 5 135.20 188.80 9.07 o
3 3 6 44.77 55.77 6.78 o
4 0 0 321.85 332.68 9.58 o
4 0 2 655.21 735.13 13.14 o
4 0 4 567.48 621.16 15.90 o
4 1 1 1347.28 1504.12 10.70 o
4 1 2 69.09 69.36 2.71 o
4 1 3 61.33 75.56 2.80 o
4 1 4 5.66 6.48 1.12 o
4 1 5 34.15 37.75 4.07 o
4 1 6 14.61 10.56 4.46 o
4 1 7 0.65 -2.08 2.26 <
4 2 0 897.58 927.57 16.92 o
4 2 1 0.29 0.08 0.26 <
4 2 2 490.05 465.84 9.50 o
4 2 3 0.01 0.18 0.26 <
4 2 4 133.02 135.07 5.14 o
4 2 5 0.84 1.61 0.58 o
4 2 6 47.94 60.46 5.08 o
4 2 7 0.19 1.67 1.57 <
4 3 1 361.00 346.49 9.52 o
4 3 2 568.81 555.33 8.86 o
4 3 3 156.14 161.98 4.66 o
4 3 4 215.31 256.41 7.22 o
4 3 5 18.45 26.08 2.38 o
4 3 6 23.27 29.91 2.99 o
4 3 7 0.06 0.31 0.35 <
4 4 1 19.06 17.46 2.79 o
4 4 2 601.54 562.51 15.90 o
4 4 3 20.00 21.75 2.99 o
4 4 4 0.88 0.71 0.56 <
4 4 5 4.63 7.96 1.75 o
4 4 6 0.32 -0.07 0.88 <
5 0 1 1530.73 1399.14 23.62 o
5 0 3 4.59 3.83 1.21 o
5 0 5 117.46 105.36 4.82 o
5 1 0 503.25 519.29 9.83 o
5 1 1 45.71 51.88 2.21 o
5 1 2 454.69 469.00 7.18 o
5 1 3 61.06 62.92 2.83 o
5 1 4 245.92 240.79 5.46 o
5 1 5 1.18 0.32 0.42 <
5 1 6 45.90 55.00 5.51 o
5 2 1 757.04 705.59 10.20 o
5 2 2 824.34 770.25 17.72 o
5 2 3 114.97 116.47 4.89 o
5 2 4 219.03 252.64 9.07 o
5 2 5 6.64 3.96 1.24 o
5 2 6 76.63 106.05 8.09 o
5 2 7 12.02 11.42 4.47 o
5 3 0 497.18 485.08 13.81 o
5 3 1 1.87 0.54 0.51 <
5 3 2 353.42 382.56 10.16 o
5 3 3 2.15 2.34 0.72 o
5 3 4 152.70 189.17 6.72 o
5 3 5 34.94 46.42 3.68 o
5 3 6 51.65 70.36 4.81 o
5 3 7 4.55 4.34 2.37 <
5 4 1 120.72 89.74 6.64 o
5 4 2 35.41 27.18 2.64 o
5 4 3 268.13 287.55 8.56 o
5 4 4 13.76 11.31 1.19 o
5 4 5 595.23 787.19 14.43 o
5 4 6 1.70 2.93 0.93 o
5 4 7 59.83 65.77 8.45 o
5 5 1 0.81 0.31 0.89 <
5 5 2 283.90 276.06 12.80 o
5 5 3 0.25 -0.25 0.76 <
5 5 4 12.33 12.25 1.86 o
5 5 5 10.51 14.10 2.64 o
5 5 6 25.83 32.59 4.36 o
6 0 0 132.92 123.63 7.30 o
6 0 2 18.41 29.48 2.69 o
6 0 4 683.01 674.85 19.38 o
6 1 1 32.17 19.89 1.56 o
6 1 2 336.63 341.35 6.63 o
6 1 3 215.27 227.67 6.31 o
6 1 4 65.64 72.99 3.36 o
6 1 5 419.58 362.11 7.89 o
6 1 6 52.85 52.84 3.91 o
6 2 0 2812.99 2627.57 30.00 o
6 2 1 13.66 11.21 1.35 o
6 2 2 898.84 860.03 11.92 o
6 2 3 8.82 11.20 1.56 o
6 2 4 11.08 13.89 2.04 o
6 2 5 12.61 10.10 1.64 o
6 2 6 91.36 135.51 10.38 o
6 3 1 736.07 672.95 12.59 o
6 3 2 217.37 206.94 7.02 o
6 3 3 29.67 29.98 2.70 o
6 3 4 57.98 48.53 4.13 o
6 3 5 34.04 44.83 4.33 o
6 3 6 23.23 38.36 4.97 o
6 4 0 7.70 14.31 2.71 o
6 4 1 0.32 0.33 0.74 <
6 4 2 61.94 63.90 5.87 o
6 4 3 4.12 2.61 0.86 o
6 4 4 461.58 525.85 12.18 o
6 4 5 4.73 3.48 0.95 o
6 4 6 318.95 483.77 14.70 o
6 5 1 220.13 197.83 11.24 o
6 5 2 13.31 12.15 2.50 o
6 5 3 48.89 49.74 3.92 o
6 5 4 0.83 0.06 0.43 <
6 5 5 3.08 2.49 1.38 <
6 5 6 13.19 21.54 3.68 o
6 6 2 355.53 335.80 15.47 o
6 6 3 81.05 85.86 7.63 o
6 6 4 93.19 110.14 13.79 o
6 6 5 5.88 3.48 3.99 <
7 0 1 0.47 0.09 0.41 <
7 0 3 139.54 123.21 6.01 o
7 0 5 236.17 203.87 7.80 o
7 1 0 304.45 294.06 10.68 o
7 1 1 7.63 8.08 1.05 o
7 1 2 204.58 198.83 5.29 o
7 1 3 6.66 6.86 1.37 o
7 1 4 109.39 104.14 5.61 o
7 1 5 5.13 3.30 0.70 o
7 2 1 166.28 156.05 5.22 o
7 2 2 206.17 213.39 6.37 o
7 2 3 81.08 87.26 4.30 o
7 2 4 90.01 111.58 5.08 o
7 2 5 18.88 13.89 2.31 o
7 3 0 89.81 74.88 6.42 o
7 3 1 8.17 5.64 1.38 o
7 3 2 191.88 189.36 7.39 o
7 3 3 29.95 32.07 3.41 o
7 3 4 269.62 325.47 9.87 o
7 3 5 7.27 8.27 2.01 o
7 3 6 78.21 106.04 10.56 o
7 4 1 144.83 137.96 6.43 o
7 4 2 4.09 8.82 1.90 o
7 4 3 32.87 31.95 3.46 o
7 4 4 4.04 3.95 1.25 o
7 4 5 10.53 10.77 3.50 o
7 4 6 0.03 -1.05 0.97 <
7 5 0 307.31 261.57 13.62 o
7 5 1 84.55 79.20 7.67 o
7 5 2 227.68 240.37 12.85 o
7 5 3 171.50 163.15 9.03 o
7 5 4 87.15 96.76 8.72 o
7 5 5 0.14 -0.09 1.29 <
7 5 6 16.24 18.80 4.87 o
7 6 1 465.97 414.81 17.78 o
7 6 2 67.59 76.44 11.87 o
7 6 3 31.20 25.29 4.76 o
7 6 4 19.26 13.67 3.25 o
8 0 0 763.46 878.71 22.64 o
8 0 2 323.09 341.52 10.56 o
8 0 4 16.61 15.27 3.44 o
8 1 1 175.58 188.46 5.51 o
8 1 2 3.19 3.28 0.71 o
8 1 3 76.98 87.53 4.12 o
8 1 4 16.44 18.96 2.68 o
8 1 5 8.49 4.51 1.21 o
8 2 0 130.40 116.88 6.25 o
8 2 1 8.85 9.99 1.43 o
8 2 2 154.21 174.68 6.65 o
8 2 3 32.48 33.91 3.11 o
8 2 4 150.06 151.51 7.68 o
8 2 5 7.23 17.86 5.95 o
8 3 1 334.29 326.91 9.38 o
8 3 2 21.50 19.36 2.25 o
8 3 3 23.83 23.59 3.09 o
8 3 4 7.63 6.24 1.77 o
8 3 5 6.13 2.96 2.21 <
8 4 0 181.48 149.69 10.39 o
8 4 1 89.34 90.70 6.66 o
8 4 2 205.91 197.41 10.05 o
8 4 3 190.21 205.60 11.84 o
8 4 4 145.36 136.57 9.05 o
8 4 5 0.62 1.11 0.82 <
8 5 1 1.66 1.97 2.66 <
8 5 2 187.56 195.60 18.50 o
8 5 3 43.54 30.87 5.61 o
8 5 4 84.69 62.77 7.13 o
8 5 5 97.11 107.91 14.12 o
8 6 4 68.08 28.14 5.17 o
9 0 1 0.12 0.32 0.63 <
9 0 3 177.22 193.25 9.95 o
9 0 5 161.17 171.57 11.68 o
9 1 0 991.11 1014.35 27.70 o
9 1 1 114.66 123.39 4.89 o
9 1 2 344.02 356.68 8.73 o
9 1 3 343.82 355.14 9.39 o
9 1 4 0.20 0.27 0.30 <
9 1 5 38.11 35.79 5.48 o
9 2 1 196.22 212.14 6.80 o
9 2 2 74.22 72.80 4.46 o
9 2 3 33.17 39.34 3.69 o
9 2 4 10.14 8.00 1.79 o
9 2 5 0.04 -0.76 0.98 <
9 3 0 161.29 157.91 10.80 o
9 3 1 140.50 151.27 7.53 o
9 3 2 145.30 136.94 10.05 o
9 3 3 377.85 470.94 16.99 o
9 3 4 91.99 91.90 6.94 o
9 4 1 173.00 144.84 16.15 o
9 4 2 197.46 191.53 12.62 o
9 4 3 7.37 5.00 2.24 o
9 4 4 76.79 71.14 7.01 o
9 5 3 137.90 107.24 11.63 o
9 5 4 394.05 267.84 15.16 o
10 0 0 139.34 128.34 13.84 o
10 0 2 101.39 103.87 8.30 o
10 0 4 60.61 66.30 8.43 o
10 1 1 115.63 119.22 6.73 o
10 1 2 65.40 77.32 5.07 o
10 1 3 23.51 24.38 2.63 o
10 1 4 8.48 7.44 1.99 o
10 2 0 162.23 142.83 10.83 o
10 2 1 181.27 197.06 10.32 o
10 2 2 144.12 146.15 7.22 o
10 2 3 362.36 431.62 11.73 o
10 2 4 79.88 108.07 8.37 o
10 2 5 0.00 0.28 0.51 <
10 3 1 0.55 0.13 0.81 <
10 3 2 5.47 2.42 1.14 o
10 3 3 71.74 71.20 6.81 o
10 3 4 5.28 3.20 1.35 o
10 4 2 71.50 53.97 10.64 o
10 4 3 108.42 98.87 11.89 o
10 5 3 18.90 10.83 4.57 o
11 0 1 148.63 154.65 16.13 o
11 0 3 10.61 8.60 2.34 o
11 1 2 22.14 17.67 2.96 o
11 1 3 11.06 7.55 2.13 o
11 1 4 338.30 394.39 12.72 o
11 2 1 9.34 4.82 3.39 <
11 2 2 6.73 5.30 2.27 o
11 2 3 22.29 17.25 2.72 o
11 2 4 2.77 2.27 1.02 o
11 3 2 138.55 133.07 15.66 o
11 3 3 17.30 7.54 3.40 o
11 4 2 14.91 8.15 4.34 <
11 4 3 54.74 39.93 7.68 o
11 5 3 0.01 -2.32 1.97 <
12 0 4 0.76 1.21 0.53 o
12 1 3 15.32 13.57 4.53 o
12 1 4 11.54 12.46 3.75 o
