#------------------------------------------------------------------------------
#$Date: 2021-04-14 12:58:58 +0300 (Wed, 14 Apr 2021) $
#$Revision: 264152 $
#$URL: file:///home/coder/svn-repositories/cod/cif/1/56/17/1561757.cif $
#------------------------------------------------------------------------------
#
# This file is available in the Crystallography Open Database (COD),
# http://www.crystallography.net/
#
# All data on this site have been placed in the public domain by the
# contributors.
#
data_1561757
loop_
_publ_author_name
'Bykova, E.'
'Gou, H.'
'Bykov, M.'
'Hanfland, M.'
'Dubrovinsky, L.'
'Dubrovinskaia, N.'
_publ_section_title
;
 Crystal structures and compressibility of novel iron borides Fe2B7 and Fe
 B50 synthesized at high pressure and high temperature
;
_journal_name_full               'Journal of Solid State Chemistry'
_journal_page_first              102
_journal_page_last               109
_journal_paper_doi               10.1016/j.jssc.2015.06.040
_journal_volume                  230
_journal_year                    2015
_chemical_absolute_configuration .
_chemical_compound_source
;
high-pressure high-temperature synthesis
;
_chemical_formula_moiety         'B7 Fe2'
_chemical_formula_sum            'B7 Fe2'
_chemical_formula_weight         187.4
_chemical_name_common            'diiron heptaboride'
_chemical_name_systematic        'diiron heptaboride'
_space_group_IT_number           55
_space_group_name_Hall           '-P 2 2ab'
_space_group_name_H-M_alt        'P b a m'
_symmetry_cell_setting           orthorhombic
_symmetry_Int_Tables_number      55
_symmetry_space_group_name_Hall  '-P 2 2ab'
_symmetry_space_group_name_H-M   'P b a m'
_cell_angle_alpha                90
_cell_angle_beta                 90
_cell_angle_gamma                90
_cell_length_a                   16.8460(8)
_cell_length_b                   10.61070(10)
_cell_length_c                   2.87510(10)
_cell_measurement_reflns_used    363
_cell_measurement_temperature    293
_cell_measurement_theta_max      18.7360
_cell_measurement_theta_min      4.3370
_cell_volume                     513.92(3)
_computing_cell_refinement
;
CrysAlisPro, Agilent Technologies,
Version 1.171.37.35 (release 13-08-2014 CrysAlis171 .NET)
(compiled Aug 13 2014,18:06:01)
;
_computing_data_collection
;
CrysAlisPro, Agilent Technologies,
Version 1.171.37.35 (release 13-08-2014 CrysAlis171 .NET)
(compiled Aug 13 2014,18:06:01)
;
_computing_data_reduction
;
CrysAlisPro, Agilent Technologies,
Version 1.171.37.35 (release 13-08-2014 CrysAlis171 .NET)
(compiled Aug 13 2014,18:06:01)
;
_computing_structure_refinement  'Jana2006 (Petricek, 2014)'
_computing_structure_solution    'SHELXS-2013 (Sheldrick, 2013)'
_diffrn_ambient_pressure         5650000
_diffrn_ambient_temperature      293
_diffrn_detector                 'MAR555 flatpanel detector'
_diffrn_measured_fraction_theta_full 0.85
_diffrn_measured_fraction_theta_max 0.61
_diffrn_measurement_device
;
customized omega-circle diffractometer
;
_diffrn_measurement_device_type  'ESRF, beamline ID09A diffractometer'
_diffrn_measurement_method       '\w scans'
_diffrn_radiation_monochromator  synchrotron
_diffrn_radiation_probe          x-ray
_diffrn_radiation_source         synchrotron
_diffrn_radiation_type           synchrotron
_diffrn_radiation_wavelength     0.41441
_diffrn_reflns_av_R_equivalents  0.0369
_diffrn_reflns_av_unetI/netI     0.0377
_diffrn_reflns_limit_h_max       21
_diffrn_reflns_limit_h_min       -20
_diffrn_reflns_limit_k_max       15
_diffrn_reflns_limit_k_min       -15
_diffrn_reflns_limit_l_max       4
_diffrn_reflns_limit_l_min       -4
_diffrn_reflns_number            2394
_diffrn_reflns_theta_full        14.3
_diffrn_reflns_theta_max         19.77
_diffrn_reflns_theta_min         1.8
_diffrn_source                   synchrotron
_exptl_absorpt_coefficient_mu    2.276
_exptl_absorpt_correction_T_max  1.00000
_exptl_absorpt_correction_T_min  0.08695
_exptl_absorpt_correction_type   multi-scan
_exptl_absorpt_process_details
;
CrysAlisPro, Agilent Technologies,
Version 1.171.37.35 (release 13-08-2014 CrysAlis171 .NET)
(compiled Aug 13 2014,18:06:01)
Empirical absorption correction using spherical harmonics,
 implemented in SCALE3 ABSPACK scaling algorithm.
;
_exptl_crystal_colour            black
_exptl_crystal_density_diffrn    4.8416
_exptl_crystal_description       plate
_exptl_crystal_F_000             696
_exptl_crystal_size_max          0.025
_exptl_crystal_size_mid          0.025
_exptl_crystal_size_min          0.005
_refine_ls_extinction_method     none
_refine_ls_goodness_of_fit_gt    1.48
_refine_ls_goodness_of_fit_ref   1.53
_refine_ls_number_constraints    0
_refine_ls_number_parameters     67
_refine_ls_number_reflns         834
_refine_ls_number_restraints     0
_refine_ls_R_factor_all          0.0347
_refine_ls_R_factor_gt           0.0295
_refine_ls_shift/su_max          0.0003
_refine_ls_shift/su_mean         0.0001
_refine_ls_structure_factor_coef Fsqd
_refine_ls_weighting_details     w=1/(\s^2^(I)+0.0004I^2^)
_refine_ls_weighting_scheme      sigma
_refine_ls_wR_factor_gt          0.0741
_refine_ls_wR_factor_ref         0.0827
_reflns_number_gt                726
_reflns_number_total             834
_reflns_threshold_expression     I>2\s(I)
_cod_data_source_file            Fe2B7_05.7GPa.cif
_cod_data_source_block           Fe2B7_5.65GPa
_cod_depositor_comments
;
The following automatic conversions were performed:

data item '_diffrn_radiation_probe' value 'X-ray' was changed to
'x-ray' in accordance with the built-in table derived from the CIF
Core dictionary named 'cif_core.dic' version 2.4.5 last updated on
2014-11-21.

Automatic conversion script
Id: cif_fix_values 8369 2020-08-20 11:38:08Z andrius 
;
_cod_database_code               1561757
loop_
_symmetry_equiv_pos_site_id
_symmetry_equiv_pos_as_xyz
1 x,y,z
2 -x,-y,z
3 -x+1/2,y+1/2,-z
4 x+1/2,-y+1/2,-z
5 -x,-y,-z
6 x,y,-z
7 x+1/2,-y+1/2,z
8 -x+1/2,y+1/2,z
loop_
_atom_site_label
_atom_site_type_symbol
_atom_site_fract_x
_atom_site_fract_y
_atom_site_fract_z
_atom_site_adp_type
_atom_site_U_iso_or_equiv
_atom_site_site_symmetry_multiplicity
_atom_site_occupancy
_atom_site_calc_flag
_atom_site_refinement_flags
_atom_site_disorder_assembly
_atom_site_disorder_group
Fe1 Fe 0.22146(5) 0.46729(6) 0.5 Uani 0.0047(2) 4 1 d . . .
Fe2 Fe 0.12153(5) 0.17913(6) 0 Uani 0.0038(2) 4 1 d . . .
Fe3 Fe 0.46570(5) 0.10623(6) 0.5 Uani 0.0037(2) 4 1 d . . .
Fe4 Fe 0.38876(5) 0.26591(6) 0 Uani 0.0042(2) 4 1 d . . .
B1 B 0.3672(4) 0.0502(5) 0 Uiso 0.0055(9) 4 1 d . . .
B2 B 0.0483(4) 0.4606(5) 0 Uiso 0.0044(8) 4 1 d . . .
B3 B 0.3027(4) 0.3922(5) 0 Uiso 0.0060(9) 4 1 d . . .
B4 B 0.1414(4) 0.3749(5) 0 Uiso 0.0055(9) 4 1 d . . .
B5 B 0.4454(4) 0.4034(5) 0.5 Uiso 0.0049(8) 4 1 d . . .
B6 B 0.1996(4) 0.0443(5) 0 Uiso 0.0034(8) 4 1 d . . .
B7 B 0.2886(4) 0.2885(5) 0.5 Uiso 0.0063(9) 4 1 d . . .
B8 B 0.0333(4) 0.3044(5) 0 Uiso 0.0055(9) 4 1 d . . .
B9 B 0.3988(4) 0.4754(5) 0 Uiso 0.0047(9) 4 1 d . . .
B10 B 0.0540(4) 0.0586(5) 0.5 Uiso 0.0040(8) 4 1 d . . .
B11 B 0.0183(3) 0.2114(4) 0.5 Uiso 0.0033(8) 4 1 d . . .
B12 B 0.3386(4) 0.1378(5) 0.5 Uiso 0.0054(8) 4 1 d . . .
B13 B 0.2196(4) 0.1442(5) 0.5 Uiso 0.0056(9) 4 1 d . . .
B14 B 0.1797(4) 0.2920(5) 0.5 Uiso 0.0055(9) 4 1 d . . .
loop_
_atom_site_aniso_label
_atom_site_aniso_type_symbol
_atom_site_aniso_U_11
_atom_site_aniso_U_22
_atom_site_aniso_U_33
_atom_site_aniso_U_12
_atom_site_aniso_U_13
_atom_site_aniso_U_23
Fe1 Fe 0.0034(5) 0.0016(3) 0.0091(3) -0.0001(2) 0 0
Fe2 Fe 0.0020(4) 0.0032(3) 0.0061(3) 0.0004(2) 0 0
Fe3 Fe 0.0037(4) 0.0031(3) 0.0042(3) 0.0001(2) 0 0
Fe4 Fe 0.0037(5) 0.0043(3) 0.0045(3) 0.0009(2) 0 0
loop_
_atom_type_symbol
_atom_type_scat_dispersion_real
_atom_type_scat_dispersion_imag
_atom_type_scat_source
B -0.0003 0.0002 'International Tables Vol C tables 4.2.6.8 and 6.1.1.1'
Fe 0.1991 0.3104 'International Tables Vol C tables 4.2.6.8 and 6.1.1.1'
loop_
_cell_formula_units_Z
8
loop_
_geom_angle_atom_site_label_1
_geom_angle_atom_site_label_2
_geom_angle_atom_site_label_3
_geom_angle_site_symmetry_1
_geom_angle_site_symmetry_2
_geom_angle_site_symmetry_3
_geom_angle
Fe1 Fe1 Fe1 1_554 . 1_556 180.0(5)
Fe1 Fe1 B1 1_554 . 3_555 50.34(10)
Fe1 Fe1 B1 1_554 . 3_556 129.66(10)
Fe1 Fe1 B3 1_554 . . 47.76(11)
Fe1 Fe1 B3 1_554 . 1_556 132.24(11)
Fe1 Fe1 B4 1_554 . . 49.23(10)
Fe1 Fe1 B4 1_554 . 1_556 130.77(10)
Fe1 Fe1 B6 1_554 . 3_555 47.35(11)
Fe1 Fe1 B6 1_554 . 3_556 132.65(11)
Fe1 Fe1 B7 1_554 . . 90.000(19)
Fe1 Fe1 B12 1_554 . 3_556 90.000(19)
Fe1 Fe1 B13 1_554 . 3_556 90.000(19)
Fe1 Fe1 B14 1_554 . . 90.000(18)
Fe1 Fe1 B1 1_556 . 3_555 129.66(10)
Fe1 Fe1 B1 1_556 . 3_556 50.34(10)
Fe1 Fe1 B3 1_556 . . 132.24(11)
Fe1 Fe1 B3 1_556 . 1_556 47.76(11)
Fe1 Fe1 B4 1_556 . . 130.77(10)
Fe1 Fe1 B4 1_556 . 1_556 49.23(10)
Fe1 Fe1 B6 1_556 . 3_555 132.65(11)
Fe1 Fe1 B6 1_556 . 3_556 47.35(11)
Fe1 Fe1 B7 1_556 . . 90.000(19)
Fe1 Fe1 B12 1_556 . 3_556 90.000(19)
Fe1 Fe1 B13 1_556 . 3_556 90.000(19)
Fe1 Fe1 B14 1_556 . . 90.000(18)
B1 Fe1 B1 3_555 . 3_556 79.32(14)
B1 Fe1 B3 3_555 . . 98.10(14)
B1 Fe1 B3 3_555 . 1_556 177.42(14)
B1 Fe1 B4 3_555 . . 49.52(18)
B1 Fe1 B4 3_555 . 1_556 100.63(19)
B1 Fe1 B6 3_555 . 3_555 80.39(19)
B1 Fe1 B6 3_555 . 3_556 134.25(18)
B1 Fe1 B7 3_555 . . 132.47(13)
B1 Fe1 B12 3_555 . 3_556 48.34(14)
B1 Fe1 B13 3_555 . 3_556 87.99(18)
B1 Fe1 B14 3_555 . . 97.52(19)
B1 Fe1 B3 3_556 . . 177.42(14)
B1 Fe1 B3 3_556 . 1_556 98.10(14)
B1 Fe1 B4 3_556 . . 100.63(19)
B1 Fe1 B4 3_556 . 1_556 49.52(18)
B1 Fe1 B6 3_556 . 3_555 134.25(18)
B1 Fe1 B6 3_556 . 3_556 80.39(19)
B1 Fe1 B7 3_556 . . 132.47(13)
B1 Fe1 B12 3_556 . 3_556 48.34(14)
B1 Fe1 B13 3_556 . 3_556 87.99(18)
B1 Fe1 B14 3_556 . . 97.52(19)
B3 Fe1 B3 . . 1_556 84.47(15)
B3 Fe1 B4 . . . 77.71(19)
B3 Fe1 B4 . . 1_556 131.68(19)
B3 Fe1 B6 . . 3_555 44.51(19)
B3 Fe1 B6 . . 3_556 101.40(19)
B3 Fe1 B7 . . . 49.64(14)
B3 Fe1 B12 . . 3_556 129.60(14)
B3 Fe1 B13 . . 3_556 91.72(19)
B3 Fe1 B14 . . . 82.99(19)
B3 Fe1 B4 1_556 . . 131.68(19)
B3 Fe1 B4 1_556 . 1_556 77.71(19)
B3 Fe1 B6 1_556 . 3_555 101.40(19)
B3 Fe1 B6 1_556 . 3_556 44.51(19)
B3 Fe1 B7 1_556 . . 49.64(14)
B3 Fe1 B12 1_556 . 3_556 129.60(14)
B3 Fe1 B13 1_556 . 3_556 91.72(19)
B3 Fe1 B14 1_556 . . 82.99(19)
B4 Fe1 B4 . . 1_556 81.54(14)
B4 Fe1 B6 . . 3_555 96.49(15)
B4 Fe1 B6 . . 3_556 176.17(17)
B4 Fe1 B7 . . . 86.04(18)
B4 Fe1 B12 . . 3_556 95.15(19)
B4 Fe1 B13 . . 3_556 132.85(13)
B4 Fe1 B14 . . . 50.71(14)
B4 Fe1 B6 1_556 . 3_555 176.17(17)
B4 Fe1 B6 1_556 . 3_556 96.49(15)
B4 Fe1 B7 1_556 . . 86.04(18)
B4 Fe1 B12 1_556 . 3_556 95.15(19)
B4 Fe1 B13 1_556 . 3_556 132.85(13)
B4 Fe1 B14 1_556 . . 50.71(14)
B6 Fe1 B6 3_555 . 3_556 85.29(15)
B6 Fe1 B7 3_555 . . 90.56(18)
B6 Fe1 B12 3_555 . 3_556 88.28(19)
B6 Fe1 B13 3_555 . 3_556 50.70(13)
B6 Fe1 B14 3_555 . . 125.57(15)
B6 Fe1 B7 3_556 . . 90.56(18)
B6 Fe1 B12 3_556 . 3_556 88.28(19)
B6 Fe1 B13 3_556 . 3_556 50.70(13)
B6 Fe1 B14 3_556 . . 125.57(15)
B7 Fe1 B12 . . 3_556 178.4(2)
B7 Fe1 B13 . . 3_556 121.3(2)
B7 Fe1 B14 . . . 51.5(2)
B12 Fe1 B13 3_556 . 3_556 57.1(2)
B12 Fe1 B14 3_556 . . 130.1(2)
B13 Fe1 B14 3_556 . . 172.8(2)
Fe2 Fe2 Fe2 1_554 . 1_556 180.0(5)
Fe2 Fe2 B4 1_554 . . 90.000(18)
Fe2 Fe2 B6 1_554 . . 90.000(19)
Fe2 Fe2 B8 1_554 . . 90.00(2)
Fe2 Fe2 B9 1_554 . 3_545 90.000(18)
Fe2 Fe2 B10 1_554 . 1_554 49.97(9)
Fe2 Fe2 B10 1_554 . . 130.03(9)
Fe2 Fe2 B11 1_554 . 1_554 50.95(9)
Fe2 Fe2 B11 1_554 . . 129.05(10)
Fe2 Fe2 B13 1_554 . 1_554 49.67(10)
Fe2 Fe2 B13 1_554 . . 130.33(11)
Fe2 Fe2 B14 1_554 . 1_554 47.12(10)
Fe2 Fe2 B14 1_554 . . 132.88(11)
Fe2 Fe2 B4 1_556 . . 90.000(18)
Fe2 Fe2 B6 1_556 . . 90.000(19)
Fe2 Fe2 B8 1_556 . . 90.00(2)
Fe2 Fe2 B9 1_556 . 3_545 90.000(18)
Fe2 Fe2 B10 1_556 . 1_554 130.03(9)
Fe2 Fe2 B10 1_556 . . 49.97(9)
Fe2 Fe2 B11 1_556 . 1_554 129.05(10)
Fe2 Fe2 B11 1_556 . . 50.95(9)
Fe2 Fe2 B13 1_556 . 1_554 130.33(11)
Fe2 Fe2 B13 1_556 . . 49.67(10)
Fe2 Fe2 B14 1_556 . 1_554 132.88(11)
Fe2 Fe2 B14 1_556 . . 47.12(10)
B4 Fe2 B6 . . . 128.3(2)
B4 Fe2 B8 . . . 57.4(2)
B4 Fe2 B9 . . 3_545 179.8(2)
B4 Fe2 B10 . . 1_554 130.23(14)
B4 Fe2 B10 . . . 130.23(14)
B4 Fe2 B11 . . 1_554 88.46(18)
B4 Fe2 B11 . . . 88.46(18)
B4 Fe2 B13 . . 1_554 92.66(19)
B4 Fe2 B13 . . . 92.66(19)
B4 Fe2 B14 . . 1_554 50.67(14)
B4 Fe2 B14 . . . 50.67(14)
B6 Fe2 B8 . . . 174.4(2)
B6 Fe2 B9 . . 3_545 51.6(2)
B6 Fe2 B10 . . 1_554 85.59(19)
B6 Fe2 B10 . . . 85.59(19)
B6 Fe2 B11 . . 1_554 128.76(14)
B6 Fe2 B11 . . . 128.76(14)
B6 Fe2 B13 . . 1_554 51.22(15)
B6 Fe2 B13 . . . 51.22(15)
B6 Fe2 B14 . . 1_554 95.9(2)
B6 Fe2 B14 . . . 95.9(2)
B8 Fe2 B9 . . 3_545 122.8(2)
B8 Fe2 B10 . . 1_554 90.12(19)
B8 Fe2 B10 . . . 90.12(19)
B8 Fe2 B11 . . 1_554 48.08(13)
B8 Fe2 B11 . . . 48.08(13)
B8 Fe2 B13 . . 1_554 131.74(14)
B8 Fe2 B13 . . . 131.74(14)
B8 Fe2 B14 . . 1_554 88.16(19)
B8 Fe2 B14 . . . 88.16(19)
B9 Fe2 B10 3_545 . 1_554 49.86(14)
B9 Fe2 B10 3_545 . . 49.86(14)
B9 Fe2 B11 3_545 . 1_554 91.67(17)
B9 Fe2 B11 3_545 . . 91.67(17)
B9 Fe2 B13 3_545 . 1_554 87.21(18)
B9 Fe2 B13 3_545 . . 87.21(18)
B9 Fe2 B14 3_545 . 1_554 129.25(14)
B9 Fe2 B14 3_545 . . 129.25(14)
B10 Fe2 B10 1_554 . . 80.07(13)
B10 Fe2 B11 1_554 . 1_554 45.00(18)
B10 Fe2 B11 1_554 . . 95.93(17)
B10 Fe2 B13 1_554 . 1_554 82.34(18)
B10 Fe2 B13 1_554 . . 134.37(19)
B10 Fe2 B14 1_554 . 1_554 97.06(14)
B10 Fe2 B14 1_554 . . 176.65(18)
B10 Fe2 B11 . . 1_554 95.93(17)
B10 Fe2 B11 . . . 45.00(18)
B10 Fe2 B13 . . 1_554 134.37(19)
B10 Fe2 B13 . . . 82.34(18)
B10 Fe2 B14 . . 1_554 176.65(18)
B10 Fe2 B14 . . . 97.06(14)
B11 Fe2 B11 1_554 . . 78.09(13)
B11 Fe2 B13 1_554 . 1_554 100.61(14)
B11 Fe2 B13 1_554 . . 178.27(17)
B11 Fe2 B14 1_554 . 1_554 80.78(18)
B11 Fe2 B14 1_554 . . 134.20(19)
B11 Fe2 B13 . . 1_554 178.27(17)
B11 Fe2 B13 . . . 100.61(14)
B11 Fe2 B14 . . 1_554 134.20(19)
B11 Fe2 B14 . . . 80.78(18)
B13 Fe2 B13 1_554 . . 80.66(14)
B13 Fe2 B14 1_554 . 1_554 46.30(19)
B13 Fe2 B14 1_554 . . 100.95(19)
B13 Fe2 B14 . . 1_554 100.95(19)
B13 Fe2 B14 . . . 46.30(19)
B14 Fe2 B14 1_554 . . 85.76(15)
Fe3 Fe3 Fe3 1_554 . 1_556 180.0(5)
Fe3 Fe3 Fe3 1_554 . 2_655 90.000(19)
Fe3 Fe3 Fe4 1_554 . . 56.025(17)
Fe3 Fe3 Fe4 1_554 . 1_556 123.98(3)
Fe3 Fe3 B1 1_554 . . 50.79(10)
Fe3 Fe3 B1 1_554 . 1_556 129.21(10)
Fe3 Fe3 B2 1_554 . 3_545 47.39(9)
Fe3 Fe3 B2 1_554 . 3_546 132.61(9)
Fe3 Fe3 B2 1_554 . 4_555 47.37(11)
Fe3 Fe3 B2 1_554 . 4_556 132.63(11)
Fe3 Fe3 B8 1_554 . 4_555 45.88(11)
Fe3 Fe3 B8 1_554 . 4_556 134.12(12)
Fe3 Fe3 B11 1_554 . 4_556 90.000(19)
Fe3 Fe3 B12 1_554 . . 90.00(2)
Fe3 Fe3 Fe3 1_556 . 2_655 90.000(19)
Fe3 Fe3 Fe4 1_556 . . 123.98(3)
Fe3 Fe3 Fe4 1_556 . 1_556 56.025(17)
Fe3 Fe3 B1 1_556 . . 129.21(10)
Fe3 Fe3 B1 1_556 . 1_556 50.79(10)
Fe3 Fe3 B2 1_556 . 3_545 132.61(9)
Fe3 Fe3 B2 1_556 . 3_546 47.39(9)
Fe3 Fe3 B2 1_556 . 4_555 132.63(11)
Fe3 Fe3 B2 1_556 . 4_556 47.37(11)
Fe3 Fe3 B8 1_556 . 4_555 134.12(12)
Fe3 Fe3 B8 1_556 . 4_556 45.88(11)
Fe3 Fe3 B11 1_556 . 4_556 90.000(19)
Fe3 Fe3 B12 1_556 . . 90.00(2)
Fe3 Fe3 Fe4 2_655 . . 144.684(15)
Fe3 Fe3 Fe4 2_655 . 1_556 144.684(15)
Fe3 Fe3 B1 2_655 . . 95.75(13)
Fe3 Fe3 B1 2_655 . 1_556 95.75(13)
Fe3 Fe3 B2 2_655 . 3_545 53.36(13)
Fe3 Fe3 B2 2_655 . 3_546 53.36(13)
Fe3 Fe3 B2 2_655 . 4_555 53.39(11)
Fe3 Fe3 B2 2_655 . 4_556 53.39(11)
Fe3 Fe3 B8 2_655 . 4_555 99.04(15)
Fe3 Fe3 B8 2_655 . 4_556 99.04(15)
Fe3 Fe3 B11 2_655 . 4_556 128.25(16)
Fe3 Fe3 B12 2_655 . . 126.05(13)
Fe4 Fe3 Fe4 . . 1_556 67.95(2)
Fe4 Fe3 B1 . . . 56.73(12)
Fe4 Fe3 B1 . . 1_556 99.08(13)
Fe4 Fe3 B2 . . 3_545 92.58(12)
Fe4 Fe3 B2 . . 3_546 143.28(17)
Fe4 Fe3 B2 . . 4_555 99.90(10)
Fe4 Fe3 B2 . . 4_556 158.25(14)
Fe4 Fe3 B8 . . 4_555 65.56(16)
Fe4 Fe3 B8 . . 4_556 111.37(14)
Fe4 Fe3 B11 . . 4_556 67.11(12)
Fe4 Fe3 B12 . . . 53.15(9)
Fe4 Fe3 B1 1_556 . . 99.08(13)
Fe4 Fe3 B1 1_556 . 1_556 56.73(12)
Fe4 Fe3 B2 1_556 . 3_545 143.28(17)
Fe4 Fe3 B2 1_556 . 3_546 92.58(12)
Fe4 Fe3 B2 1_556 . 4_555 158.25(14)
Fe4 Fe3 B2 1_556 . 4_556 99.90(10)
Fe4 Fe3 B8 1_556 . 4_555 111.37(14)
Fe4 Fe3 B8 1_556 . 4_556 65.56(16)
Fe4 Fe3 B11 1_556 . 4_556 67.11(12)
Fe4 Fe3 B12 1_556 . . 53.15(9)
B1 Fe3 B1 . . 1_556 78.41(14)
B1 Fe3 B2 . . 3_545 45.6(2)
B1 Fe3 B2 . . 3_546 99.01(17)
B1 Fe3 B2 . . 4_555 87.87(17)
B1 Fe3 B2 . . 4_556 144.98(18)
B1 Fe3 B8 . . 4_555 94.73(16)
B1 Fe3 B8 . . 4_556 164.3(2)
B1 Fe3 B11 . . 4_556 122.78(15)
B1 Fe3 B12 . . . 47.14(14)
B1 Fe3 B2 1_556 . 3_545 99.01(17)
B1 Fe3 B2 1_556 . 3_546 45.6(2)
B1 Fe3 B2 1_556 . 4_555 144.98(18)
B1 Fe3 B2 1_556 . 4_556 87.87(17)
B1 Fe3 B8 1_556 . 4_555 164.3(2)
B1 Fe3 B8 1_556 . 4_556 94.73(16)
B1 Fe3 B11 1_556 . 4_556 122.78(15)
B1 Fe3 B12 1_556 . . 47.14(14)
B2 Fe3 B2 3_545 . 3_546 85.21(13)
B2 Fe3 B2 3_545 . 4_555 51.0(2)
B2 Fe3 B2 3_545 . 4_556 106.75(18)
B2 Fe3 B8 3_545 . 4_555 85.66(16)
B2 Fe3 B8 3_545 . 4_556 150.1(2)
B2 Fe3 B11 3_545 . 4_556 135.06(12)
B2 Fe3 B12 3_545 . . 90.16(19)
B2 Fe3 B2 3_546 . 4_555 106.75(18)
B2 Fe3 B2 3_546 . 4_556 51.0(2)
B2 Fe3 B8 3_546 . 4_555 150.1(2)
B2 Fe3 B8 3_546 . 4_556 85.66(16)
B2 Fe3 B11 3_546 . 4_556 135.06(12)
B2 Fe3 B12 3_546 . . 90.16(19)
B2 Fe3 B2 4_555 . 4_556 85.26(16)
B2 Fe3 B8 4_555 . 4_555 47.19(19)
B2 Fe3 B8 4_555 . 4_556 105.3(2)
B2 Fe3 B11 4_555 . 4_556 91.76(18)
B2 Fe3 B12 4_555 . . 134.38(13)
B2 Fe3 B8 4_556 . 4_555 105.3(2)
B2 Fe3 B8 4_556 . 4_556 47.19(19)
B2 Fe3 B11 4_556 . 4_556 91.76(18)
B2 Fe3 B12 4_556 . . 134.38(13)
B8 Fe3 B8 4_555 . 4_556 88.23(16)
B8 Fe3 B11 4_555 . 4_556 49.65(13)
B8 Fe3 B12 4_555 . . 118.29(18)
B8 Fe3 B11 4_556 . 4_556 49.65(13)
B8 Fe3 B12 4_556 . . 118.29(18)
B11 Fe3 B12 4_556 . . 105.7(2)
Fe3 Fe4 Fe3 1_554 . . 67.95(2)
Fe3 Fe4 Fe4 1_554 . 1_554 56.025(17)
Fe3 Fe4 Fe4 1_554 . 1_556 123.98(3)
Fe3 Fe4 B1 1_554 . . 55.13(11)
Fe3 Fe4 B3 1_554 . . 144.79(4)
Fe3 Fe4 B5 1_554 . 1_554 81.77(12)
Fe3 Fe4 B5 1_554 . . 124.61(15)
Fe3 Fe4 B7 1_554 . 1_554 95.27(11)
Fe3 Fe4 B7 1_554 . . 144.33(14)
Fe3 Fe4 B9 1_554 . . 128.22(11)
Fe3 Fe4 B12 1_554 . 1_554 53.73(16)
Fe3 Fe4 B12 1_554 . . 98.93(13)
Fe3 Fe4 Fe4 . . 1_554 123.98(3)
Fe3 Fe4 Fe4 . . 1_556 56.025(17)
Fe3 Fe4 B1 . . . 55.13(11)
Fe3 Fe4 B3 . . . 144.79(4)
Fe3 Fe4 B5 . . 1_554 124.61(15)
Fe3 Fe4 B5 . . . 81.77(12)
Fe3 Fe4 B7 . . 1_554 144.33(14)
Fe3 Fe4 B7 . . . 95.27(11)
Fe3 Fe4 B9 . . . 128.22(11)
Fe3 Fe4 B12 . . 1_554 98.93(13)
Fe3 Fe4 B12 . . . 53.73(16)
Fe4 Fe4 Fe4 1_554 . 1_556 180.0(5)
Fe4 Fe4 B1 1_554 . . 90.000(18)
Fe4 Fe4 B3 1_554 . . 90.00(2)
Fe4 Fe4 B5 1_554 . 1_554 50.49(9)
Fe4 Fe4 B5 1_554 . . 129.51(9)
Fe4 Fe4 B7 1_554 . 1_554 49.86(10)
Fe4 Fe4 B7 1_554 . . 130.14(11)
Fe4 Fe4 B9 1_554 . . 90.000(18)
Fe4 Fe4 B12 1_554 . 1_554 48.06(10)
Fe4 Fe4 B12 1_554 . . 131.94(10)
Fe4 Fe4 B1 1_556 . . 90.000(18)
Fe4 Fe4 B3 1_556 . . 90.00(2)
Fe4 Fe4 B5 1_556 . 1_554 129.51(9)
Fe4 Fe4 B5 1_556 . . 50.49(9)
Fe4 Fe4 B7 1_556 . 1_554 130.14(11)
Fe4 Fe4 B7 1_556 . . 49.86(10)
Fe4 Fe4 B9 1_556 . . 90.000(18)
Fe4 Fe4 B12 1_556 . 1_554 131.94(10)
Fe4 Fe4 B12 1_556 . . 48.06(10)
B1 Fe4 B3 . . . 123.7(2)
B1 Fe4 B5 . . 1_554 134.73(12)
B1 Fe4 B5 . . . 134.73(12)
B1 Fe4 B7 . . 1_554 89.29(18)
B1 Fe4 B7 . . . 89.29(18)
B1 Fe4 B9 . . . 175.3(2)
B1 Fe4 B12 . . 1_554 46.73(12)
B1 Fe4 B12 . . . 46.73(12)
B3 Fe4 B5 . . 1_554 82.64(19)
B3 Fe4 B5 . . . 82.64(19)
B3 Fe4 B7 . . 1_554 51.05(15)
B3 Fe4 B7 . . . 51.05(15)
B3 Fe4 B9 . . . 51.6(2)
B3 Fe4 B12 . . 1_554 98.1(2)
B3 Fe4 B12 . . . 98.1(2)
B5 Fe4 B5 1_554 . . 79.02(12)
B5 Fe4 B7 1_554 . 1_554 80.80(18)
B5 Fe4 B7 1_554 . . 131.34(19)
B5 Fe4 B9 1_554 . . 47.49(13)
B5 Fe4 B12 1_554 . 1_554 98.54(13)
B5 Fe4 B12 1_554 . . 177.38(16)
B5 Fe4 B7 . . 1_554 131.34(19)
B5 Fe4 B7 . . . 80.80(18)
B5 Fe4 B9 . . . 47.49(13)
B5 Fe4 B12 . . 1_554 177.38(16)
B5 Fe4 B12 . . . 98.54(13)
B7 Fe4 B7 1_554 . . 80.28(15)
B7 Fe4 B9 1_554 . . 87.14(18)
B7 Fe4 B12 1_554 . 1_554 48.68(19)
B7 Fe4 B12 1_554 . . 101.62(19)
B7 Fe4 B9 . . . 87.14(18)
B7 Fe4 B12 . . 1_554 101.62(19)
B7 Fe4 B12 . . . 48.68(19)
B9 Fe4 B12 . . 1_554 131.27(13)
B9 Fe4 B12 . . . 131.27(13)
B12 Fe4 B12 1_554 . . 83.87(14)
Fe1 B1 Fe1 3_545 . 3_546 79.32(19)
Fe1 B1 Fe3 3_545 . 1_554 100.52(3)
Fe1 B1 Fe3 3_545 . . 171.7(3)
Fe1 B1 Fe4 3_545 . . 119.32(19)
Fe1 B1 B2 3_545 . 3_545 109.5(2)
Fe1 B1 B12 3_545 . 1_554 60.6(2)
Fe1 B1 B12 3_545 . . 122.7(4)
Fe1 B1 Fe3 3_546 . 1_554 171.7(3)
Fe1 B1 Fe3 3_546 . . 100.52(3)
Fe1 B1 Fe4 3_546 . . 119.32(19)
Fe1 B1 B2 3_546 . 3_545 109.5(2)
Fe1 B1 B12 3_546 . 1_554 122.7(4)
Fe1 B1 B12 3_546 . . 60.6(2)
Fe3 B1 Fe3 1_554 . . 78.41(19)
Fe3 B1 Fe4 1_554 . . 68.14(14)
Fe3 B1 B2 1_554 . 3_545 62.5(2)
Fe3 B1 B12 1_554 . 1_554 63.3(2)
Fe3 B1 B12 1_554 . . 124.9(3)
Fe3 B1 Fe4 . . . 68.14(14)
Fe3 B1 B2 . . 3_545 62.5(2)
Fe3 B1 B12 . . 1_554 124.9(3)
Fe3 B1 B12 . . . 63.3(2)
Fe4 B1 B2 . . 3_545 114.7(3)
Fe4 B1 B12 . . 1_554 61.7(2)
Fe4 B1 B12 . . . 61.7(2)
B2 B1 B12 3_545 . 1_554 121.1(3)
B2 B1 B12 3_545 . . 121.1(3)
B12 B1 B12 1_554 . . 107.8(3)
Fe3 B2 Fe3 3_555 . 3_556 85.21(18)
Fe3 B2 Fe3 3_555 . 4_455 73.25(11)
Fe3 B2 Fe3 3_555 . 4_456 129.0(3)
Fe3 B2 B1 3_555 . 3_555 71.8(2)
Fe3 B2 B2 3_555 . 2_565 64.45(18)
Fe3 B2 B4 3_555 . . 117.5(3)
Fe3 B2 B8 3_555 . . 134.64(16)
Fe3 B2 Fe3 3_556 . 4_455 129.0(3)
Fe3 B2 Fe3 3_556 . 4_456 73.25(11)
Fe3 B2 B1 3_556 . 3_555 71.8(2)
Fe3 B2 B2 3_556 . 2_565 64.45(18)
Fe3 B2 B4 3_556 . . 117.5(3)
Fe3 B2 B8 3_556 . . 134.64(16)
Fe3 B2 Fe3 4_455 . 4_456 85.3(2)
Fe3 B2 B1 4_455 . 3_555 136.94(11)
Fe3 B2 B2 4_455 . 2_565 64.5(2)
Fe3 B2 B4 4_455 . . 113.5(2)
Fe3 B2 B8 4_455 . . 64.6(2)
Fe3 B2 B1 4_456 . 3_555 136.94(11)
Fe3 B2 B2 4_456 . 2_565 64.5(2)
Fe3 B2 B4 4_456 . . 113.5(2)
Fe3 B2 B8 4_456 . . 64.6(2)
B1 B2 B2 3_555 . 2_565 119.1(4)
B1 B2 B4 3_555 . . 63.9(3)
B1 B2 B8 3_555 . . 132.4(5)
B2 B2 B4 2_565 . . 177.1(4)
B2 B2 B8 2_565 . . 108.5(4)
B4 B2 B8 . . . 68.5(3)
Fe1 B3 Fe1 1_554 . . 84.5(2)
Fe1 B3 Fe4 1_554 . . 136.28(12)
Fe1 B3 B6 1_554 . 3_555 67.2(2)
Fe1 B3 B7 1_554 . 1_554 67.2(2)
Fe1 B3 B7 1_554 . . 132.1(4)
Fe1 B3 B9 1_554 . . 112.5(2)
Fe1 B3 Fe4 . . . 136.28(12)
Fe1 B3 B6 . . 3_555 67.2(2)
Fe1 B3 B7 . . 1_554 132.1(4)
Fe1 B3 B7 . . . 67.2(2)
Fe1 B3 B9 . . . 112.5(2)
Fe4 B3 B6 . . 3_555 134.1(4)
Fe4 B3 B7 . . 1_554 71.7(2)
Fe4 B3 B7 . . . 71.7(2)
Fe4 B3 B9 . . . 71.4(3)
B6 B3 B7 3_555 . 1_554 126.8(2)
B6 B3 B7 3_555 . . 126.8(2)
B6 B3 B9 3_555 . . 62.7(3)
B7 B3 B7 1_554 . . 103.9(3)
B7 B3 B9 1_554 . . 113.8(3)
B7 B3 B9 . . . 113.8(3)
Fe1 B4 Fe1 1_554 . . 81.5(2)
Fe1 B4 Fe2 1_554 . . 122.50(19)
Fe1 B4 B2 1_554 . . 107.8(2)
Fe1 B4 B14 1_554 . 1_554 58.5(2)
Fe1 B4 B14 1_554 . . 121.2(4)
Fe1 B4 Fe2 . . . 122.50(19)
Fe1 B4 B2 . . . 107.8(2)
Fe1 B4 B14 . . 1_554 121.2(4)
Fe1 B4 B14 . . . 58.5(2)
Fe2 B4 B2 . . . 110.9(3)
Fe2 B4 B14 . . 1_554 64.9(2)
Fe2 B4 B14 . . . 64.9(2)
B2 B4 B14 . . 1_554 123.6(3)
B2 B4 B14 . . . 123.6(3)
B14 B4 B14 1_554 . . 105.6(3)
Fe4 B5 Fe4 . . 1_556 79.02(17)
Fe4 B5 B9 . . . 65.39(18)
Fe4 B5 B9 . . 1_556 126.5(4)
Fe4 B5 B10 . . 3_556 130.4(2)
Fe4 B5 B11 . . 4_556 81.1(2)
Fe4 B5 B9 1_556 . . 126.5(4)
Fe4 B5 B9 1_556 . 1_556 65.39(18)
Fe4 B5 B10 1_556 . 3_556 130.4(2)
Fe4 B5 B11 1_556 . 4_556 81.1(2)
B9 B5 B9 . . 1_556 105.3(3)
B9 B5 B10 . . 3_556 65.1(2)
B9 B5 B11 . . 4_556 127.3(2)
B9 B5 B10 1_556 . 3_556 65.1(2)
B9 B5 B11 1_556 . 4_556 127.3(2)
B10 B5 B11 3_556 . 4_556 134.4(5)
Fe1 B6 Fe1 3_545 . 3_546 85.3(2)
Fe1 B6 Fe2 3_545 . . 135.03(12)
Fe1 B6 B3 3_545 . 3_545 68.3(2)
Fe1 B6 B9 3_545 . 3_545 114.7(2)
Fe1 B6 B13 3_545 . 1_554 64.68(19)
Fe1 B6 B13 3_545 . . 130.1(4)
Fe1 B6 Fe2 3_546 . . 135.03(12)
Fe1 B6 B3 3_546 . 3_545 68.3(2)
Fe1 B6 B9 3_546 . 3_545 114.7(2)
Fe1 B6 B13 3_546 . 1_554 130.1(4)
Fe1 B6 B13 3_546 . . 64.68(19)
Fe2 B6 B3 . . 3_545 136.1(4)
Fe2 B6 B9 . . 3_545 71.2(3)
Fe2 B6 B13 . . 1_554 72.3(2)
Fe2 B6 B13 . . . 72.3(2)
B3 B6 B9 3_545 . 3_545 64.9(3)
B3 B6 B13 3_545 . 1_554 126.0(2)
B3 B6 B13 3_545 . . 126.0(2)
B9 B6 B13 3_545 . 1_554 113.9(3)
B9 B6 B13 3_545 . . 113.9(3)
B13 B6 B13 1_554 . . 104.5(3)
Fe1 B7 Fe4 . . . 118.67(19)
Fe1 B7 Fe4 . . 1_556 118.67(19)
Fe1 B7 B3 . . . 63.2(2)
Fe1 B7 B3 . . 1_556 63.2(2)
Fe1 B7 B12 . . . 177.0(4)
Fe1 B7 B14 . . . 58.0(2)
Fe4 B7 Fe4 . . 1_556 80.3(2)
Fe4 B7 B3 . . . 57.2(2)
Fe4 B7 B3 . . 1_556 118.3(3)
Fe4 B7 B12 . . . 63.4(2)
Fe4 B7 B14 . . . 139.37(11)
Fe4 B7 B3 1_556 . . 118.3(3)
Fe4 B7 B3 1_556 . 1_556 57.2(2)
Fe4 B7 B12 1_556 . . 63.4(2)
Fe4 B7 B14 1_556 . . 139.37(11)
B3 B7 B3 . . 1_556 103.9(3)
B3 B7 B12 . . . 118.2(3)
B3 B7 B14 . . . 96.8(3)
B3 B7 B12 1_556 . . 118.2(3)
B3 B7 B14 1_556 . . 96.8(3)
B12 B7 B14 . . . 119.0(4)
Fe2 B8 Fe3 . . 4_455 135.85(11)
Fe2 B8 Fe3 . . 4_456 135.85(11)
Fe2 B8 B2 . . . 123.2(4)
Fe2 B8 B11 . . 1_554 74.6(2)
Fe2 B8 B11 . . . 74.6(2)
Fe3 B8 Fe3 4_455 . 4_456 88.2(2)
Fe3 B8 B2 4_455 . . 68.2(2)
Fe3 B8 B11 4_455 . 1_554 67.04(18)
Fe3 B8 B11 4_455 . . 138.3(4)
Fe3 B8 B2 4_456 . . 68.2(2)
Fe3 B8 B11 4_456 . 1_554 138.3(4)
Fe3 B8 B11 4_456 . . 67.04(18)
B2 B8 B11 . . 1_554 125.11(19)
B2 B8 B11 . . . 125.11(19)
B11 B8 B11 1_554 . . 109.4(3)
Fe2 B9 Fe4 3_555 . . 166.7(3)
Fe2 B9 B3 3_555 . . 109.6(3)
Fe2 B9 B5 3_555 . 1_554 119.1(2)
Fe2 B9 B5 3_555 . . 119.1(2)
Fe2 B9 B6 3_555 . 3_555 57.2(2)
Fe4 B9 B3 . . . 57.0(2)
Fe4 B9 B5 . . 1_554 67.1(2)
Fe4 B9 B5 . . . 67.1(2)
Fe4 B9 B6 . . 3_555 109.4(3)
B3 B9 B5 . . 1_554 100.3(3)
B3 B9 B5 . . . 100.3(3)
B3 B9 B6 . . 3_555 52.4(3)
B5 B9 B5 1_554 . . 105.3(3)
B5 B9 B6 1_554 . 3_555 124.6(2)
B5 B9 B6 . . 3_555 124.6(2)
Fe2 B10 Fe2 . . 1_556 80.07(18)
Fe2 B10 B5 . . 3_546 124.7(3)
Fe2 B10 B11 . . . 68.9(2)
Fe2 B10 B5 1_556 . 3_546 124.7(3)
Fe2 B10 B11 1_556 . . 68.9(2)
B5 B10 B11 3_546 . . 160.0(5)
Fe2 B11 Fe2 . . 1_556 78.09(18)
Fe2 B11 Fe3 . . 4_456 116.99(18)
Fe2 B11 B5 . . 4_456 115.8(2)
Fe2 B11 B8 . . . 57.4(2)
Fe2 B11 B8 . . 1_556 119.3(3)
Fe2 B11 B10 . . . 66.1(2)
Fe2 B11 Fe3 1_556 . 4_456 116.99(18)
Fe2 B11 B5 1_556 . 4_456 115.8(2)
Fe2 B11 B8 1_556 . . 119.3(3)
Fe2 B11 B8 1_556 . 1_556 57.4(2)
Fe2 B11 B10 1_556 . . 66.1(2)
Fe3 B11 B5 4_456 . 4_456 110.2(3)
Fe3 B11 B8 4_456 . . 63.3(2)
Fe3 B11 B8 4_456 . 1_556 63.3(2)
Fe3 B11 B10 4_456 . . 175.8(4)
B5 B11 B8 4_456 . . 119.8(3)
B5 B11 B8 4_456 . 1_556 119.8(3)
B5 B11 B10 4_456 . . 65.6(3)
B8 B11 B8 . . 1_556 109.4(3)
B8 B11 B10 . . . 118.4(3)
B8 B11 B10 1_556 . . 118.4(3)
Fe1 B12 Fe3 3_546 . . 110.3(2)
Fe1 B12 Fe4 3_546 . . 137.99(9)
Fe1 B12 Fe4 3_546 . 1_556 137.99(9)
Fe1 B12 B1 3_546 . . 71.1(2)
Fe1 B12 B1 3_546 . 1_556 71.1(2)
Fe1 B12 B7 3_546 . . 123.0(4)
Fe3 B12 Fe4 . . . 73.13(18)
Fe3 B12 Fe4 . . 1_556 73.13(18)
Fe3 B12 B1 . . . 69.6(3)
Fe3 B12 B1 . . 1_556 69.6(3)
Fe3 B12 B7 . . . 126.7(3)
Fe4 B12 Fe4 . . 1_556 83.87(19)
Fe4 B12 B1 . . . 71.56(18)
Fe4 B12 B1 . . 1_556 139.8(4)
Fe4 B12 B7 . . . 67.94(19)
Fe4 B12 B1 1_556 . . 139.8(4)
Fe4 B12 B1 1_556 . 1_556 71.56(18)
Fe4 B12 B7 1_556 . . 67.94(19)
B1 B12 B1 . . 1_556 107.8(3)
B1 B12 B7 . . . 126.08(19)
B1 B12 B7 1_556 . . 126.08(19)
Fe1 B13 Fe2 3_546 . . 119.70(19)
Fe1 B13 Fe2 3_546 . 1_556 119.70(19)
Fe1 B13 B6 3_546 . . 64.6(2)
Fe1 B13 B6 3_546 . 1_556 64.6(2)
Fe1 B13 B14 3_546 . . 175.3(4)
Fe2 B13 Fe2 . . 1_556 80.7(2)
Fe2 B13 B6 . . . 56.5(2)
Fe2 B13 B6 . . 1_556 118.1(3)
Fe2 B13 B14 . . . 63.5(2)
Fe2 B13 B6 1_556 . . 118.1(3)
Fe2 B13 B6 1_556 . 1_556 56.5(2)
Fe2 B13 B14 1_556 . . 63.5(2)
B6 B13 B6 . . 1_556 104.5(3)
B6 B13 B14 . . . 117.6(3)
B6 B13 B14 1_556 . . 117.6(3)
Fe1 B14 Fe2 . . . 133.99(13)
Fe1 B14 Fe2 . . 1_556 133.99(13)
Fe1 B14 B4 . . . 70.8(2)
Fe1 B14 B4 . . 1_556 70.8(2)
Fe1 B14 B7 . . . 70.5(3)
Fe1 B14 B13 . . . 136.1(4)
Fe2 B14 Fe2 . . 1_556 85.8(2)
Fe2 B14 B4 . . . 64.42(18)
Fe2 B14 B4 . . 1_556 130.7(4)
Fe2 B14 B7 . . . 116.9(2)
Fe2 B14 B13 . . . 70.2(2)
Fe2 B14 B4 1_556 . . 130.7(4)
Fe2 B14 B4 1_556 . 1_556 64.42(18)
Fe2 B14 B7 1_556 . . 116.9(2)
Fe2 B14 B13 1_556 . . 70.2(2)
B4 B14 B4 . . 1_556 105.6(3)
B4 B14 B7 . . . 111.6(3)
B4 B14 B13 . . . 126.06(19)
B4 B14 B7 1_556 . . 111.6(3)
B4 B14 B13 1_556 . . 126.06(19)
B7 B14 B13 . . . 65.6(3)
loop_
_geom_bond_atom_site_label_1
_geom_bond_atom_site_label_2
_geom_bond_site_symmetry_1
_geom_bond_site_symmetry_2
_geom_bond_distance
Fe1 Fe1 . 1_554 2.8751(2)
Fe1 Fe1 . 1_556 2.8751(2)
Fe1 B1 . 3_555 2.252(5)
Fe1 B1 . 3_556 2.252(5)
Fe1 B3 . . 2.139(4)
Fe1 B3 . 1_556 2.139(4)
Fe1 B4 . . 2.201(4)
Fe1 B4 . 1_556 2.201(4)
Fe1 B6 . 3_555 2.122(4)
Fe1 B6 . 3_556 2.122(4)
Fe1 B7 . . 2.209(6)
Fe1 B12 . 3_556 2.073(5)
Fe1 B13 . 3_556 2.123(5)
Fe1 B14 . . 1.988(5)
Fe2 Fe2 . 1_554 2.8751(2)
Fe2 Fe2 . 1_556 2.8751(2)
Fe2 B4 . . 2.104(5)
Fe2 B6 . . 1.943(6)
Fe2 B8 . . 1.993(6)
Fe2 B9 . 3_545 2.188(5)
Fe2 B10 . 1_554 2.235(4)
Fe2 B10 . . 2.235(4)
Fe2 B11 . 1_554 2.282(5)
Fe2 B11 . . 2.282(5)
Fe2 B13 . 1_554 2.221(5)
Fe2 B13 . . 2.221(5)
Fe2 B14 . 1_554 2.113(4)
Fe2 B14 . . 2.113(4)
Fe3 Fe3 . 1_554 2.8751(2)
Fe3 Fe3 . 1_556 2.8751(2)
Fe3 Fe3 . 2_655 2.5332(9)
Fe3 Fe4 . . 2.5724(8)
Fe3 Fe4 . 1_556 2.5724(8)
Fe3 B1 . . 2.274(5)
Fe3 B1 . 1_556 2.274(5)
Fe3 B2 . 3_545 2.124(4)
Fe3 B2 . 3_546 2.124(4)
Fe3 B2 . 4_555 2.123(4)
Fe3 B2 . 4_556 2.123(4)
Fe3 B8 . 4_555 2.065(4)
Fe3 B8 . 4_556 2.065(4)
Fe3 B11 . 4_556 2.128(5)
Fe3 B12 . . 2.167(6)
Fe4 Fe4 . 1_554 2.8751(2)
Fe4 Fe4 . 1_556 2.8751(2)
Fe4 B1 . . 2.317(5)
Fe4 B3 . . 1.974(6)
Fe4 B5 . 1_554 2.259(4)
Fe4 B5 . . 2.259(4)
Fe4 B7 . 1_554 2.230(5)
Fe4 B7 . . 2.230(5)
Fe4 B9 . . 2.230(5)
Fe4 B12 . 1_554 2.151(4)
Fe4 B12 . . 2.151(4)
B1 B2 . 3_545 1.711(8)
B1 B12 . 1_554 1.779(4)
B1 B12 . . 1.779(4)
B2 B2 . 2_565 1.830(8)
B2 B4 . . 1.813(8)
B2 B8 . . 1.677(7)
B3 B6 . 3_555 1.614(7)
B3 B7 . 1_554 1.826(5)
B3 B7 . . 1.826(5)
B3 B9 . . 1.844(8)
B4 B14 . 1_554 1.804(5)
B4 B14 . . 1.804(5)
B5 B9 . . 1.808(5)
B5 B9 . 1_556 1.808(5)
B5 B10 . 3_556 1.647(7)
B5 B11 . 4_556 1.730(8)
B6 B9 . 3_545 1.811(8)
B6 B13 . 1_554 1.818(4)
B6 B13 . . 1.818(4)
B7 B12 . . 1.807(8)
B7 B14 . . 1.834(9)
B8 B11 . 1_554 1.762(4)
B8 B11 . . 1.762(4)
B10 B11 . . 1.729(7)
B13 B14 . . 1.707(7)
loop_
_refln_index_h
_refln_index_k
_refln_index_l
_refln_F_squared_calc
_refln_F_squared_meas
_refln_F_squared_sigma
_refln_observed_status
0 0 1 0.28 0.26 0.98 <
0 0 3 4.72 -1.21 8.24 <
0 2 1 28304.10 26090.10 386.28 o
0 2 2 453.27 453.56 25.00 o
0 2 3 6537.00 6946.91 148.41 o
0 2 4 140.87 143.51 26.04 o
0 4 0 1299.60 1370.89 54.54 o
0 4 1 6032.27 6341.87 165.43 o
0 4 2 517.71 413.05 33.46 o
0 4 3 2023.38 2077.79 80.19 o
0 4 4 96.35 94.04 22.97 o
0 6 0 410.08 402.97 30.66 o
0 6 1 851.67 755.65 49.65 o
0 6 2 251.38 254.35 35.37 o
0 6 3 317.39 297.87 65.82 o
0 6 4 134.22 105.41 27.12 o
0 8 0 43.01 56.91 12.79 o
0 8 1 1496.75 1556.12 75.79 o
0 8 2 22.37 29.62 10.89 o
0 10 0 59.73 65.04 14.41 o
0 10 1 1717.24 1652.69 83.25 o
0 10 2 44.69 18.25 10.39 <
0 12 0 1863.06 1831.49 92.31 o
0 12 1 3890.87 4310.06 176.24 o
0 12 2 1356.52 1363.65 68.63 o
0 14 0 10115.30 9888.60 289.26 o
0 14 1 68.21 108.95 29.93 o
0 14 2 7312.41 7283.39 250.91 o
1 1 1 6355.02 6082.94 78.07 o
1 1 2 795.55 819.22 21.66 o
1 1 3 1537.80 1550.28 47.74 o
1 2 1 638.61 523.74 17.80 o
1 2 2 124.89 123.38 9.42 o
1 2 3 119.28 99.25 10.50 o
1 2 4 40.22 21.15 6.27 o
1 3 1 6548.63 6409.97 87.66 o
1 3 2 915.33 928.10 30.71 o
1 3 3 1702.91 1760.06 50.81 o
1 3 4 182.37 174.09 21.16 o
1 4 0 4582.66 6170.44 223.18 o
1 4 1 171.63 166.02 12.46 o
1 4 2 1921.65 1959.01 56.10 o
1 4 3 31.36 19.76 4.79 o
1 4 4 349.01 351.35 32.57 o
1 5 0 16286.80 16578.70 444.40 o
1 5 1 7.67 4.46 2.14 o
1 5 2 7594.41 7721.85 134.83 o
1 5 3 0.03 -3.62 3.26 <
1 5 4 2218.14 2410.91 108.35 o
1 6 0 6883.33 6532.82 137.67 o
1 6 1 9972.18 9711.48 141.94 o
1 6 2 3218.34 3335.13 89.58 o
1 6 3 3413.73 3627.97 130.12 o
1 6 4 865.01 915.11 90.57 o
1 7 0 1601.78 1382.23 48.57 o
1 7 1 50.73 64.58 7.74 o
1 7 2 888.14 841.40 41.19 o
1 7 3 2.49 5.32 9.80 <
1 7 4 331.93 369.70 56.12 o
1 8 0 17.79 9.30 3.72 o
1 8 1 7340.68 7075.31 114.95 o
1 8 2 49.92 60.15 10.67 o
1 8 3 2473.59 2527.24 174.26 o
1 9 0 1284.58 1221.57 47.46 o
1 9 1 2284.08 2212.56 55.73 o
1 9 2 719.36 711.79 37.61 o
1 9 3 1053.92 952.27 103.95 o
1 10 0 10728.70 10727.90 218.32 o
1 10 1 625.73 714.55 37.88 o
1 10 2 6535.96 6908.32 137.79 o
1 11 0 44.98 55.67 9.43 o
1 11 1 443.15 430.71 32.81 o
1 11 2 32.80 18.73 6.28 o
1 12 0 27.29 42.39 8.91 o
1 12 1 3168.13 3312.78 114.04 o
1 12 2 17.10 14.46 5.63 o
1 13 0 2919.66 3218.64 139.25 o
1 13 1 91.85 87.32 15.61 o
1 13 2 2128.54 2293.98 88.01 o
1 14 0 1130.92 1302.57 82.58 o
1 14 1 224.79 231.18 29.04 o
1 14 2 834.74 907.28 55.16 o
1 15 1 4113.94 4635.58 152.68 o
1 15 2 40.30 11.36 5.47 o
2 0 1 605.80 660.44 24.24 o
2 0 2 150.42 156.03 12.42 o
2 0 3 65.03 65.33 15.25 o
2 1 0 285.23 278.11 13.96 o
2 1 1 217.21 232.63 11.65 o
2 1 2 165.00 159.20 10.44 o
2 1 3 41.08 42.54 6.20 o
2 2 0 4072.57 4248.79 129.78 o
2 2 1 137.96 112.09 7.86 o
2 2 2 1581.73 1502.81 36.73 o
2 2 3 10.12 2.77 3.21 <
2 2 4 278.88 271.79 20.59 o
2 3 1 4785.27 4739.27 70.40 o
2 3 2 456.66 451.26 23.66 o
2 3 3 1388.81 1427.79 47.41 o
2 3 4 97.20 94.32 15.05 o
2 4 1 14600.50 14725.30 175.43 o
2 4 2 3158.72 3172.57 72.36 o
2 4 3 4033.45 4172.61 117.69 o
2 4 4 708.22 737.73 48.95 o
2 5 1 19468.80 18566.00 234.92 o
2 5 2 3046.47 3033.66 74.27 o
2 5 3 6064.32 6133.27 146.18 o
2 5 4 909.07 1014.15 62.95 o
2 6 1 5149.66 4858.55 87.51 o
2 6 2 2689.51 2650.23 69.58 o
2 6 3 1888.16 1961.90 90.14 o
2 6 4 844.96 879.13 88.52 o
2 7 0 26375.80 22061.70 428.29 o
2 7 1 1979.96 1952.22 49.93 o
2 7 2 13800.80 14542.70 225.78 o
2 7 3 657.89 682.18 58.19 o
2 7 4 4546.81 4926.29 278.02 o
2 8 0 493.71 435.16 43.76 o
2 8 1 715.94 716.09 35.85 o
2 8 2 233.64 231.28 21.32 o
2 8 3 271.36 269.27 50.69 o
2 9 0 1942.81 1945.68 101.17 o
2 9 1 5956.37 6003.75 125.61 o
2 9 2 1189.14 1296.95 53.04 o
2 9 3 2398.17 2495.67 167.81 o
2 10 0 3971.06 4147.97 166.90 o
2 10 1 3749.95 3769.41 102.54 o
2 10 2 2496.76 2488.64 75.83 o
2 10 3 1699.15 1604.97 129.00 o
2 11 0 36.67 34.77 13.27 o
2 11 1 244.54 292.70 26.16 o
2 11 2 20.28 12.85 5.15 o
2 11 3 146.81 150.60 36.77 o
2 12 0 1005.03 1001.78 73.48 o
2 12 1 617.31 624.38 40.15 o
2 12 2 644.89 636.49 37.98 o
2 13 0 23.52 41.58 14.83 o
2 13 1 553.03 626.42 56.79 o
2 13 2 9.72 -0.01 3.64 <
2 14 0 46.33 75.09 19.11 o
2 14 1 36.45 25.74 13.31 <
2 14 2 49.51 8.76 6.16 <
2 15 1 1232.25 1560.58 124.14 o
2 15 2 430.55 266.83 41.80 o
3 1 0 1498.52 1756.43 57.51 o
3 1 1 2077.13 2469.41 48.61 o
3 1 2 652.80 647.22 22.64 o
3 1 3 440.41 448.57 22.26 o
3 1 4 205.15 204.60 38.12 o
3 2 0 10830.70 10675.40 294.66 o
3 2 1 2102.75 2274.61 46.38 o
3 2 2 4426.07 4410.65 89.02 o
3 2 3 552.03 521.36 27.99 o
3 2 4 979.21 927.47 54.59 o
3 3 0 12650.80 12691.40 361.21 o
3 3 1 87.91 105.24 7.72 o
3 3 2 5347.96 5436.82 104.27 o
3 3 3 32.19 19.48 4.85 o
3 3 4 1192.27 1161.26 91.48 o
3 4 0 998.06 987.16 76.90 o
3 4 1 8061.46 7924.87 115.03 o
3 4 2 428.50 449.86 22.65 o
3 4 3 2134.37 2216.42 83.00 o
3 4 4 85.38 73.69 13.87 o
3 5 1 16670.40 15417.60 200.19 o
3 5 2 79.76 58.30 8.80 o
3 5 3 5296.56 5373.18 165.79 o
3 5 4 20.02 6.51 11.65 <
3 6 1 4229.49 4116.79 89.18 o
3 6 2 177.11 164.75 17.51 o
3 6 3 1603.95 1485.13 63.94 o
3 6 4 22.37 6.22 8.02 <
3 7 1 819.31 748.36 33.91 o
3 7 2 257.84 264.13 22.49 o
3 7 3 387.29 401.19 43.49 o
3 7 4 77.16 52.38 19.66 o
3 8 1 451.38 467.93 36.91 o
3 8 2 1425.41 1485.65 62.30 o
3 8 3 216.09 268.88 50.04 o
3 9 0 1178.01 1045.56 78.10 o
3 9 1 1803.88 1834.16 82.49 o
3 9 2 680.29 715.70 43.67 o
3 9 3 728.52 674.39 84.01 o
3 10 0 759.88 794.07 67.52 o
3 10 1 13461.30 13998.00 317.58 o
3 10 2 544.34 561.07 38.53 o
3 10 3 6110.86 7039.06 303.08 o
3 11 0 2226.71 1957.70 111.20 o
3 11 1 416.86 395.66 40.35 o
3 11 2 1447.14 1380.03 63.46 o
3 11 3 217.10 234.72 46.95 o
3 12 0 7339.42 7266.63 266.30 o
3 12 1 61.54 100.71 19.60 o
3 12 2 4897.32 4906.31 131.40 o
3 13 0 31.88 37.62 16.30 o
3 13 1 2.13 1.45 5.37 <
3 13 2 30.85 16.59 6.61 o
3 14 0 674.92 802.29 71.64 o
3 14 1 656.20 835.68 71.68 o
3 14 2 522.85 622.90 63.94 o
3 15 0 1489.17 1666.30 108.18 o
3 15 1 353.80 455.14 67.47 o
3 15 2 1193.62 1174.33 134.85 o
4 0 2 729.13 740.73 29.82 o
4 0 3 21013.50 22224.70 463.88 o
4 0 4 200.19 195.11 41.98 o
4 1 0 3912.26 4091.41 122.29 o
4 1 1 1218.43 1362.02 34.41 o
4 1 2 1716.18 1697.79 44.38 o
4 1 3 303.25 327.86 19.52 o
4 1 4 407.13 431.67 50.54 o
4 2 1 2388.34 2471.26 42.20 o
4 2 2 13201.10 13549.40 204.14 o
4 2 3 722.18 734.32 30.11 o
4 2 4 2972.38 2788.34 112.02 o
4 3 0 4259.39 4249.21 134.71 o
4 3 1 10222.80 9882.22 133.72 o
4 3 2 1750.18 1739.17 51.43 o
4 3 3 2781.84 2914.51 84.70 o
4 3 4 448.74 461.59 36.17 o
4 4 0 2335.29 2209.71 118.07 o
4 4 1 1843.19 1762.46 40.24 o
4 4 2 1171.60 1190.54 37.32 o
4 4 3 499.91 495.73 38.57 o
4 4 4 401.27 369.13 51.48 o
4 5 0 2386.00 2224.44 131.55 o
4 5 1 30.13 33.06 5.47 o
4 5 2 1060.74 1036.46 36.81 o
4 5 3 36.19 24.17 8.01 o
4 5 4 249.24 234.12 41.56 o
4 6 0 452.58 418.24 30.22 o
4 6 1 27.93 22.06 4.22 o
4 6 2 234.52 225.33 19.25 o
4 6 3 25.94 17.80 9.58 <
4 6 4 79.09 41.08 19.31 o
4 7 0 933.01 999.94 44.63 o
4 7 1 9.03 2.70 2.77 <
4 7 2 581.08 553.31 33.66 o
4 7 3 2.42 2.28 2.74 <
4 8 0 409.18 433.49 27.24 o
4 8 1 40.23 32.67 9.97 o
4 8 2 191.16 215.17 23.49 o
4 8 3 29.70 21.84 12.30 <
4 9 1 19.24 9.33 9.81 <
4 9 2 908.59 920.54 49.70 o
4 9 3 32.14 20.03 13.09 <
4 10 1 7.88 2.67 3.93 <
4 10 2 773.52 772.83 46.00 o
4 10 3 1.35 -2.10 5.61 <
4 11 1 3496.14 3621.61 131.03 o
4 11 2 1197.61 1243.72 61.01 o
4 12 0 3935.16 3698.28 171.41 o
4 12 1 0.79 1.11 3.46 <
4 12 2 2651.51 2875.43 129.16 o
4 13 0 1563.30 1544.64 107.04 o
4 13 1 1684.93 1670.52 86.65 o
4 13 2 1136.35 1204.54 91.85 o
4 14 0 7.93 2.97 4.90 <
4 14 1 5342.31 5525.71 186.24 o
4 14 2 3.84 -2.15 5.28 <
4 15 0 5.90 -0.94 4.01 <
4 15 1 176.23 247.34 52.28 o
5 1 0 13722.80 14724.50 403.06 o
5 1 1 3772.30 4109.80 68.57 o
5 1 2 5669.39 5523.37 97.57 o
5 1 3 924.37 945.88 34.87 o
5 1 4 1225.12 1319.09 78.54 o
5 2 0 51.58 23.63 6.27 o
5 2 1 6000.67 6128.59 93.27 o
5 2 2 45.22 37.55 6.87 o
5 2 3 1738.24 1776.33 51.77 o
5 2 4 23.00 13.24 5.60 o
5 3 0 1195.99 1209.63 51.70 o
5 3 1 12265.10 12033.30 154.35 o
5 3 2 612.59 573.77 28.45 o
5 3 3 3325.82 3352.62 98.04 o
5 3 4 187.38 178.18 23.00 o
5 4 0 474.86 350.23 27.76 o
5 4 1 1029.50 1007.41 30.95 o
5 4 2 243.01 241.07 16.20 o
5 4 3 233.24 245.97 26.48 o
5 4 4 74.80 83.27 21.96 o
5 5 0 6267.61 6362.38 283.87 o
5 5 1 8747.41 8570.09 143.75 o
5 5 2 2949.30 2988.90 69.81 o
5 5 3 3252.31 3502.76 119.90 o
5 5 4 824.98 811.34 83.17 o
5 6 0 9006.73 8737.68 386.99 o
5 6 1 726.43 701.34 34.50 o
5 6 2 4554.31 4622.75 93.23 o
5 6 3 99.03 90.32 16.72 o
5 6 4 1395.11 1530.67 127.70 o
5 7 0 609.73 610.98 38.77 o
5 7 1 1310.74 1307.40 52.21 o
5 7 2 318.76 317.46 21.36 o
5 7 3 483.23 479.36 35.75 o
5 8 0 10562.20 9808.76 261.91 o
5 8 1 1093.25 1113.36 67.61 o
5 8 2 5997.91 6007.20 132.80 o
5 8 3 366.99 368.06 30.41 o
5 9 0 249.29 246.51 20.49 o
5 9 1 0.71 1.14 2.33 <
5 9 2 169.07 162.32 21.22 o
5 9 3 1.46 3.57 11.49 <
5 10 1 2655.19 2684.73 111.80 o
5 10 2 645.75 706.12 47.41 o
5 10 3 1166.32 1240.74 109.60 o
5 11 1 112.80 89.50 19.55 o
5 11 2 0.58 4.22 5.53 <
5 12 1 1533.93 1595.52 83.90 o
5 12 2 339.65 389.79 50.86 o
5 13 1 3705.82 3987.25 143.39 o
5 13 2 181.51 151.49 33.01 o
5 14 1 650.55 674.13 56.31 o
5 14 2 27.90 6.71 6.87 <
6 0 1 1168.48 1151.77 56.65 o
6 0 2 929.50 941.96 51.41 o
6 0 3 392.95 394.01 39.78 o
6 0 4 161.66 178.01 33.31 o
6 1 0 431.95 440.90 26.50 o
6 1 1 703.16 726.60 27.49 o
6 1 2 217.68 227.73 15.72 o
6 1 3 246.62 264.64 18.52 o
6 1 4 36.71 20.61 7.88 o
6 2 0 119.97 230.44 18.80 o
6 2 1 5883.46 6037.39 96.23 o
6 2 2 21.27 10.59 3.80 o
6 2 3 1664.75 1685.02 57.55 o
6 2 4 8.98 8.28 6.20 <
6 3 0 4180.20 4534.67 144.86 o
6 3 1 194.08 177.56 12.95 o
6 3 2 2060.70 2092.96 58.69 o
6 3 3 31.72 22.11 7.74 o
6 3 4 678.21 731.09 51.47 o
6 4 0 6183.50 6546.35 201.75 o
6 4 1 30.93 29.98 5.27 o
6 4 2 2894.05 3048.76 66.36 o
6 4 3 32.16 20.55 7.48 o
6 4 4 853.24 903.52 88.93 o
6 5 0 33256.00 32745.20 897.51 o
6 5 1 3044.80 3153.83 80.61 o
6 5 2 16609.20 16944.90 238.42 o
6 5 3 1376.49 1340.42 71.03 o
6 5 4 5262.40 4945.83 271.08 o
6 6 0 6.61 2.99 2.68 <
6 6 1 626.60 625.88 30.63 o
6 6 2 2.13 0.66 1.60 <
6 6 3 187.04 157.19 22.70 o
6 7 0 3012.25 2318.23 145.95 o
6 7 1 24922.00 24906.50 432.59 o
6 7 2 1926.88 1982.08 57.19 o
6 7 3 8686.41 8788.30 188.57 o
6 8 0 0.03 1.35 3.00 <
6 8 1 470.10 423.25 30.20 o
6 8 2 0.01 1.79 3.18 <
6 8 3 207.13 167.20 23.66 o
6 9 0 15210.10 15213.60 391.12 o
6 9 1 0.01 2.22 4.50 <
6 9 2 9261.52 10075.20 221.52 o
6 9 3 2.61 -1.81 4.30 <
6 10 0 1366.43 1385.26 56.38 o
6 10 1 197.87 177.19 27.46 o
6 10 2 892.86 897.11 58.54 o
6 10 3 94.23 103.03 30.60 o
6 11 1 28.29 10.86 6.40 <
6 11 2 313.94 381.18 50.10 o
6 12 1 217.68 211.21 28.96 o
6 12 2 116.52 96.73 24.53 o
6 13 1 21.48 15.87 9.55 <
6 13 2 1681.42 1883.08 157.13 o
6 14 1 76.21 84.37 18.52 o
6 14 2 320.23 358.91 67.48 o
6 15 1 9.06 10.57 12.07 <
7 1 0 1539.47 1292.11 56.54 o
7 1 1 1948.09 2002.98 61.49 o
7 1 2 709.00 747.57 29.49 o
7 1 3 466.20 462.71 28.37 o
7 1 4 56.83 36.14 11.27 o
7 2 0 1526.29 1436.55 61.27 o
7 2 1 13051.20 13351.00 224.68 o
7 2 2 746.11 712.77 32.66 o
7 2 3 3978.65 4045.82 109.69 o
7 2 4 224.51 209.69 29.99 o
7 3 0 773.35 791.69 42.35 o
7 3 1 10443.80 10485.70 169.68 o
7 3 2 313.10 298.74 20.38 o
7 3 3 3055.41 3298.44 104.58 o
7 3 4 72.24 48.65 15.76 o
7 4 0 7152.11 7738.63 236.20 o
7 4 1 246.68 233.92 15.18 o
7 4 2 3445.12 3539.96 74.66 o
7 4 3 81.56 86.84 15.28 o
7 4 4 1028.83 1044.90 96.79 o
7 5 0 7793.02 7765.83 244.20 o
7 5 1 0.01 -1.09 1.62 <
7 5 2 3991.37 3930.94 82.01 o
7 5 3 0.30 -0.35 2.17 <
7 5 4 1268.31 1422.07 120.32 o
7 6 0 327.75 396.84 38.53 o
7 6 1 1141.39 1157.36 42.65 o
7 6 2 187.37 214.87 17.70 o
7 6 3 471.32 482.90 40.90 o
7 7 0 8.34 6.39 6.87 <
7 7 1 103.27 116.27 13.46 o
7 7 2 7.20 6.14 3.71 <
7 7 3 32.49 31.82 8.08 o
7 8 0 3775.60 3654.96 208.42 o
7 8 1 642.97 661.17 33.33 o
7 8 2 2178.67 2198.18 67.02 o
7 8 3 234.93 245.81 25.34 o
7 9 0 899.20 988.16 53.93 o
7 9 1 7.62 -1.67 4.05 <
7 9 2 523.45 519.14 32.95 o
7 9 3 5.96 0.89 2.40 <
7 10 0 10143.30 9677.09 264.34 o
7 10 1 1634.92 1730.64 93.11 o
7 10 2 6587.24 7034.23 323.02 o
7 10 3 823.90 865.77 97.59 o
7 11 1 1709.80 1634.47 89.27 o
7 11 2 44.47 9.37 13.42 <
7 12 1 7785.17 8294.90 232.38 o
7 12 2 421.75 544.95 82.85 o
7 13 1 1322.96 1287.22 78.41 o
7 13 2 463.07 471.36 78.00 o
7 14 1 1389.10 792.54 65.74 o
7 15 1 363.67 340.41 62.19 o
8 0 2 4544.84 4374.86 135.64 o
8 0 3 5707.94 5743.43 216.68 o
8 0 4 1081.48 1242.35 104.43 o
8 1 0 22.43 5.20 5.32 <
8 1 1 9110.78 9732.12 293.06 o
8 1 2 9.18 7.46 3.03 o
8 1 3 2887.96 2901.79 90.70 o
8 1 4 0.29 -3.64 4.96 <
8 2 0 9965.19 10137.20 296.53 o
8 2 1 8956.65 9375.21 227.88 o
8 2 2 4758.73 4660.55 98.89 o
8 2 3 2728.00 2755.53 88.61 o
8 2 4 1499.90 1594.83 136.94 o
8 3 0 24672.60 25744.40 705.99 o
8 3 1 6054.38 5919.83 116.89 o
8 3 2 11968.80 11709.30 176.84 o
8 3 3 2064.96 2162.67 82.64 o
8 3 4 3706.20 3775.01 173.15 o
8 4 0 2595.74 2708.89 103.35 o
8 4 1 148.59 170.62 12.42 o
8 4 2 1327.91 1317.60 49.43 o
8 4 3 47.71 21.90 7.30 o
8 4 4 441.68 435.28 61.77 o
8 5 0 310.97 337.89 29.37 o
8 5 1 2707.16 2591.83 65.87 o
8 5 2 246.14 258.70 19.13 o
8 5 3 695.24 681.74 45.01 o
8 6 0 1127.00 1112.83 66.04 o
8 6 1 0.21 0.80 1.72 <
8 6 2 638.06 639.20 32.13 o
8 6 3 1.28 2.59 5.24 <
8 7 0 691.78 707.64 68.85 o
8 7 1 1310.68 1344.40 54.00 o
8 7 2 298.38 319.46 26.28 o
8 7 3 700.36 693.23 61.11 o
8 8 0 224.87 240.48 41.60 o
8 8 1 236.67 258.23 21.60 o
8 8 2 108.68 106.96 15.95 o
8 8 3 92.80 102.42 15.78 o
8 9 0 573.34 535.75 67.78 o
8 9 1 4687.23 4375.93 123.08 o
8 9 2 343.94 310.06 36.38 o
8 9 3 2121.42 2212.19 113.10 o
8 10 0 413.79 475.93 38.08 o
8 10 1 7.66 6.22 13.76 <
8 10 2 278.65 288.37 66.29 o
8 10 3 3.01 1.13 8.92 <
8 11 0 2189.53 2062.08 79.56 o
8 11 1 3182.56 3611.20 184.88 o
8 11 2 1376.40 1293.19 142.04 o
8 12 1 1008.60 1029.22 87.44 o
8 13 1 2045.25 2014.58 123.37 o
9 1 1 7571.08 8235.97 258.46 o
9 1 2 5.05 -0.91 2.46 <
9 1 3 2329.92 2298.04 103.75 o
9 1 4 26.21 8.58 7.00 <
9 2 0 9478.45 10031.40 298.16 o
9 2 1 1827.52 1954.51 68.39 o
9 2 2 4674.59 4836.76 97.66 o
9 2 3 724.44 680.28 45.20 o
9 2 4 1474.04 1489.19 130.88 o
9 3 0 23865.30 23914.00 662.54 o
9 3 1 435.35 470.65 23.81 o
9 3 2 11806.20 12218.40 190.74 o
9 3 3 204.38 203.93 24.31 o
9 3 4 3550.28 3637.50 221.92 o
9 4 0 82.95 67.92 12.20 o
9 4 1 1375.68 1330.60 46.41 o
9 4 2 43.27 28.82 6.46 o
9 4 3 382.77 391.04 33.28 o
9 5 0 1661.85 1679.22 78.96 o
9 5 1 9589.43 9813.39 213.75 o
9 5 2 1063.22 1136.83 45.11 o
9 5 3 3273.16 3361.27 111.16 o
9 6 0 186.46 183.47 25.33 o
9 6 1 940.38 973.21 41.49 o
9 6 2 98.39 78.10 13.49 o
9 6 3 307.36 289.99 33.48 o
9 7 0 1052.15 1056.19 73.57 o
9 7 1 877.39 898.74 42.62 o
9 7 2 575.57 568.19 37.42 o
9 7 3 414.17 420.76 48.87 o
9 8 0 1332.15 1313.48 107.76 o
9 8 1 2357.22 2503.81 84.96 o
9 8 2 904.92 855.90 54.70 o
9 8 3 1123.56 1178.58 62.66 o
9 9 0 1771.19 1505.28 123.19 o
9 9 1 878.00 914.36 46.66 o
9 9 2 1181.45 1158.21 61.62 o
9 9 3 411.80 435.02 52.04 o
9 10 0 0.06 -0.66 5.72 <
9 10 1 1977.53 1946.92 74.22 o
9 10 2 0.15 1.80 4.53 <
9 10 3 1030.36 1369.14 178.22 o
9 11 0 129.83 98.73 17.54 o
9 12 0 2257.98 1892.51 74.63 o
9 12 1 169.20 173.41 37.10 o
9 13 1 215.59 207.18 39.14 o
10 0 2 656.59 652.68 76.34 o
10 0 3 2729.55 2772.67 141.25 o
10 0 4 171.67 203.98 42.92 o
10 1 1 1301.44 1336.18 70.99 o
10 1 2 28.99 8.83 5.48 <
10 1 3 440.15 442.26 49.91 o
10 1 4 5.25 17.36 13.01 <
10 2 0 3667.27 3766.70 134.99 o
10 2 1 1054.77 989.14 46.52 o
10 2 2 1953.69 1949.69 70.49 o
10 2 3 243.75 229.49 27.46 o
10 3 0 279.29 320.85 28.77 o
10 3 1 446.43 490.05 25.79 o
10 3 2 125.95 131.48 16.23 o
10 3 3 183.65 192.17 24.41 o
10 4 0 8532.30 8899.02 275.24 o
10 4 1 75.19 85.98 10.05 o
10 4 2 4766.73 4752.85 114.86 o
10 4 3 34.58 18.15 7.71 o
10 5 0 935.91 782.73 51.89 o
10 5 1 11886.60 12604.70 267.39 o
10 5 2 659.92 620.31 40.06 o
10 5 3 4301.92 4264.95 152.17 o
10 6 0 40.44 22.93 10.32 o
10 6 1 2522.41 2484.05 87.89 o
10 6 2 26.99 10.71 7.00 <
10 6 3 1120.32 1137.11 91.54 o
10 7 0 23891.20 22964.40 677.12 o
10 7 1 200.81 176.24 20.30 o
10 7 2 13847.90 14509.40 273.03 o
10 7 3 63.59 25.76 14.39 <
10 8 0 5.86 2.37 6.23 <
10 8 1 1072.80 1035.43 50.56 o
10 8 2 5.02 0.31 2.80 <
10 8 3 523.72 565.35 65.21 o
10 9 0 137.75 112.76 31.76 o
10 9 1 10545.70 10818.20 253.73 o
10 9 2 75.96 67.50 12.78 o
10 9 3 4989.67 4767.62 229.44 o
10 10 0 758.44 745.20 85.74 o
10 10 1 50.69 47.60 9.75 o
10 10 2 500.43 464.91 35.93 o
10 11 0 84.43 21.34 14.91 <
10 11 1 186.87 211.79 41.64 o
10 11 2 47.86 15.69 8.22 <
10 12 0 73.70 72.67 13.81 o
11 1 2 4311.26 3920.67 142.50 o
11 1 3 526.54 460.69 38.06 o
11 2 0 3204.57 3206.55 123.13 o
11 2 1 17.03 3.39 3.47 <
11 2 2 1687.95 1573.51 66.05 o
11 2 3 15.32 7.22 5.21 <
11 3 0 4792.07 4949.72 172.04 o
11 3 1 20.09 18.51 5.28 o
11 3 2 2549.15 2361.15 84.66 o
11 3 3 1.91 -3.76 4.90 <
11 4 0 343.54 320.20 30.56 o
11 4 1 262.15 259.11 19.24 o
11 4 2 151.37 132.93 19.00 o
11 4 3 77.29 49.20 14.70 o
11 5 0 663.83 633.16 47.67 o
11 5 1 9.78 4.56 2.61 <
11 5 2 390.83 405.99 25.03 o
11 5 3 0.01 -2.95 7.74 <
11 6 0 2513.54 2430.96 110.12 o
11 6 1 1418.23 1452.65 55.55 o
11 6 2 1443.68 1506.09 57.62 o
11 6 3 571.06 596.34 75.29 o
11 7 0 22.65 12.55 8.96 <
11 7 1 264.99 249.25 22.82 o
11 7 2 15.26 12.91 6.31 o
11 7 3 129.34 99.53 28.72 o
11 8 0 33.62 10.20 6.15 <
11 8 1 9326.00 9020.33 257.18 o
11 8 2 25.08 25.21 8.04 o
11 8 3 4548.95 4148.50 236.50 o
11 9 0 1250.58 1293.88 111.67 o
11 9 1 7.05 2.67 3.80 <
11 9 2 843.35 873.27 54.42 o
11 9 3 0.33 -5.08 30.56 <
11 10 0 4541.76 4805.14 277.09 o
11 10 1 3126.26 3406.74 117.39 o
11 10 2 3053.73 3077.58 115.00 o
11 11 1 876.22 873.76 52.01 o
11 11 2 1080.67 956.28 85.28 o
12 0 2 23319.00 22911.10 756.75 o
12 1 2 1634.52 1672.71 82.67 o
12 1 3 249.80 194.91 24.14 o
12 2 0 127.51 116.68 28.63 o
12 2 1 7972.31 8999.88 235.05 o
12 2 2 59.47 47.04 9.28 o
12 2 3 2817.67 2663.39 100.99 o
12 3 0 948.49 1077.87 62.51 o
12 3 1 7859.75 8218.40 217.81 o
12 3 2 571.89 628.68 35.85 o
12 3 3 3045.28 2972.79 149.00 o
12 4 0 21.12 12.38 6.97 <
12 4 1 1057.18 1009.10 43.00 o
12 4 2 15.73 6.75 5.16 <
12 4 3 506.69 493.32 83.50 o
12 5 0 5059.37 5164.33 186.21 o
12 5 1 131.00 136.44 14.92 o
12 5 2 2807.36 2806.52 89.39 o
12 5 3 80.33 39.10 17.81 o
12 6 0 15.94 8.74 6.68 <
12 6 1 1564.87 1537.62 58.80 o
12 6 2 21.42 7.47 5.03 <
12 6 3 714.91 653.46 92.38 o
12 7 0 899.64 966.09 66.34 o
12 7 1 4152.78 4414.30 126.39 o
12 7 2 639.91 704.27 50.08 o
12 7 3 1852.54 1709.68 170.27 o
12 8 0 268.48 257.10 35.04 o
12 8 1 1873.55 1937.57 101.72 o
12 8 2 183.40 190.88 25.28 o
12 8 3 926.36 1010.29 113.41 o
12 9 0 5540.64 5861.01 309.98 o
12 9 1 0.33 3.13 6.46 <
12 9 2 3748.38 4016.62 143.60 o
12 9 3 1.59 0.28 3.26 <
12 10 0 202.15 196.71 45.58 o
12 10 1 628.45 716.21 49.64 o
12 10 2 144.20 151.23 22.22 o
12 11 1 529.17 509.37 38.78 o
12 11 2 352.70 325.97 47.48 o
12 12 1 689.29 657.10 80.92 o
12 12 2 25.18 15.42 11.05 <
13 1 3 455.02 380.82 33.94 o
13 2 0 159.68 129.91 31.91 o
13 2 1 2996.98 3184.96 138.14 o
13 2 2 94.53 104.75 15.89 o
13 2 3 1182.38 1153.41 62.93 o
13 3 0 16.77 26.94 8.48 o
13 3 1 10671.60 11584.50 295.15 o
13 3 2 10.03 3.99 4.02 <
13 3 3 4175.21 2751.19 135.35 o
13 4 0 2824.83 2843.64 121.01 o
13 4 1 0.07 0.11 3.48 <
13 4 2 1509.96 1372.64 58.30 o
13 4 3 0.81 9.13 14.73 <
13 5 0 10110.40 11149.60 350.44 o
13 5 1 130.84 162.91 16.97 o
13 5 2 5846.71 6053.78 173.88 o
13 5 3 61.53 10.55 19.04 <
13 6 0 336.79 375.64 37.64 o
13 6 1 2661.29 2675.62 86.04 o
13 6 2 279.53 303.33 25.27 o
13 6 3 1207.32 1038.13 137.29 o
13 7 0 160.11 195.39 28.02 o
13 7 1 703.45 633.53 38.22 o
13 7 2 98.07 108.04 19.97 o
13 7 3 333.91 331.56 67.00 o
13 8 0 1.37 -1.67 6.55 <
13 8 1 60.54 23.04 9.57 o
13 8 2 8.55 6.35 4.36 <
13 8 3 12.07 1.81 10.50 <
13 9 0 1352.45 1242.48 94.77 o
13 9 1 2366.26 2434.50 161.02 o
13 9 2 907.44 898.90 58.67 o
13 9 3 1316.43 1419.97 129.85 o
13 10 0 1785.23 1843.15 151.87 o
13 10 1 551.73 494.90 65.67 o
13 10 2 1228.20 1229.21 69.65 o
13 11 1 865.18 730.77 53.31 o
13 11 2 801.56 763.53 77.76 o
13 12 2 595.73 603.25 69.74 o
14 2 1 937.67 931.20 93.12 o
14 2 2 3961.63 3714.99 149.08 o
14 2 3 483.89 451.56 37.04 o
14 3 0 5.59 7.34 5.14 <
14 3 1 110.56 107.14 16.26 o
14 3 2 11.90 2.19 3.70 <
14 3 3 35.05 34.92 9.85 o
14 4 0 241.09 273.30 32.98 o
14 4 1 11095.40 11480.30 254.45 o
14 4 2 103.55 102.60 19.15 o
14 5 0 3266.28 3505.49 145.95 o
14 5 1 51.37 37.58 8.48 o
14 5 2 1891.43 1913.76 82.49 o
14 5 3 23.68 4.19 7.01 <
14 6 0 3108.80 3279.80 142.54 o
14 6 1 679.87 766.25 40.33 o
14 6 2 1968.43 2040.93 82.08 o
14 6 3 324.41 427.49 77.41 o
14 7 0 1627.02 1473.49 88.91 o
14 7 1 6918.88 7230.33 208.00 o
14 7 2 1182.92 1239.24 74.72 o
14 7 3 3347.25 3735.43 248.25 o
14 8 0 897.10 862.34 70.54 o
14 8 1 162.95 152.87 27.61 o
14 8 2 607.20 733.79 54.10 o
14 8 3 83.37 36.12 22.04 <
14 9 0 1251.10 1071.44 110.91 o
14 9 1 59.51 37.43 16.65 o
14 9 2 789.16 847.68 59.05 o
14 10 1 2957.60 3050.48 195.28 o
14 10 2 1232.97 1308.48 74.60 o
14 11 1 460.28 483.85 66.77 o
14 11 2 278.74 257.04 46.11 o
14 12 2 782.74 718.38 80.13 o
15 3 0 866.99 823.38 61.99 o
15 3 1 165.31 172.17 25.40 o
15 3 2 598.71 623.68 51.44 o
15 4 0 135.87 119.07 23.46 o
15 4 1 4724.04 4626.19 147.94 o
15 4 2 85.15 105.79 22.27 o
15 5 0 777.75 734.85 58.35 o
15 5 1 1371.78 1372.74 57.58 o
15 5 2 537.17 549.77 55.65 o
15 6 0 819.13 864.99 63.44 o
15 6 1 2232.48 2187.25 88.38 o
15 6 2 470.76 496.08 57.62 o
15 6 3 1067.07 1196.77 134.90 o
15 7 0 5.79 10.59 9.19 <
15 7 1 40.35 47.66 11.86 o
15 7 2 2.16 -0.77 4.41 <
15 7 3 20.78 4.11 4.86 <
15 8 0 4789.70 4563.25 272.23 o
15 8 1 9.30 -0.50 4.35 <
15 8 2 3221.76 3396.04 141.54 o
15 8 3 1.01 -1.19 7.04 <
15 9 0 54.99 40.91 23.19 <
15 9 1 2867.40 3230.59 200.80 o
15 9 2 44.31 60.09 17.13 o
15 10 1 5176.01 5042.34 281.98 o
15 10 2 832.06 982.39 89.03 o
15 11 2 1029.51 1048.57 96.07 o
15 12 2 2859.09 2768.08 182.35 o
16 3 0 953.05 913.33 98.46 o
16 3 1 1896.95 2266.18 94.23 o
16 3 2 598.96 556.64 57.68 o
16 4 0 68.41 51.35 14.76 o
16 4 1 325.16 362.16 33.32 o
16 4 2 63.11 54.24 16.08 o
16 5 0 518.26 446.22 44.51 o
16 5 1 3034.25 3101.57 111.42 o
16 5 2 338.52 324.93 42.18 o
16 6 0 462.94 403.47 44.19 o
16 6 1 296.39 282.48 33.33 o
16 6 2 292.46 270.45 41.80 o
16 7 0 4818.49 4745.38 194.25 o
16 7 1 158.66 155.80 25.67 o
16 7 2 3339.15 3470.00 149.11 o
16 7 3 88.74 70.53 34.24 o
16 8 0 2729.80 2425.93 178.99 o
16 8 1 0.21 6.16 6.82 <
16 8 2 1959.90 2238.98 146.40 o
16 8 3 1.54 10.40 12.06 <
16 9 1 1782.34 1655.86 108.27 o
16 9 2 408.31 411.61 57.75 o
16 10 1 13.86 3.48 4.66 <
16 10 2 89.40 103.63 27.05 o
16 11 2 18.11 4.23 4.31 <
16 12 2 1788.79 1610.87 130.62 o
17 3 2 3009.51 2908.85 168.59 o
17 4 0 8.82 1.83 3.52 <
17 4 1 994.53 1099.10 74.53 o
17 4 2 4.15 3.76 5.27 <
17 5 0 30.54 31.77 12.38 o
17 5 1 8475.92 9445.41 306.98 o
17 5 2 31.38 7.01 5.55 <
17 6 0 11218.90 10790.10 360.09 o
17 6 1 200.82 226.87 30.30 o
17 6 2 7841.50 7590.91 355.24 o
17 7 0 206.14 219.73 47.72 o
17 7 1 348.13 485.87 45.52 o
17 7 2 144.81 130.97 35.10 o
17 8 1 759.01 788.73 63.65 o
17 8 2 1050.54 1221.67 101.51 o
17 9 1 379.76 341.91 58.34 o
17 9 2 293.68 332.77 50.15 o
17 10 2 638.11 608.55 73.61 o
17 11 2 704.57 769.90 85.66 o
18 4 0 6427.55 6675.61 356.18 o
18 4 1 2.40 2.46 7.28 <
18 4 2 4317.81 4228.21 225.20 o
18 5 0 1069.64 1032.93 104.86 o
18 5 1 466.80 536.72 66.66 o
18 5 2 740.76 737.59 71.66 o
18 6 0 210.79 188.28 44.80 o
18 6 1 1396.06 1471.37 88.16 o
18 6 2 137.75 168.71 33.94 o
18 7 1 2457.14 2559.00 124.96 o
18 7 2 0.71 -4.41 9.69 <
18 8 1 673.30 566.63 74.53 o
18 8 2 7.31 6.46 5.27 <
18 9 2 935.35 980.92 93.05 o
18 10 2 2384.93 2630.24 176.02 o
19 4 1 172.15 257.33 51.30 o
19 4 2 3533.61 3485.25 200.22 o
19 5 0 326.56 359.73 66.43 o
19 5 1 842.41 848.13 90.25 o
19 5 2 227.97 220.70 38.60 o
19 6 1 78.14 80.43 21.24 o
19 6 2 161.74 165.46 33.25 o
19 7 1 3.51 1.02 7.86 <
19 7 2 759.11 632.68 79.41 o
19 8 1 735.71 725.40 87.15 o
19 8 2 225.53 258.34 59.12 o
19 9 2 1625.35 1827.54 141.08 o
19 10 2 3420.78 3324.41 209.14 o
20 4 2 0.49 1.11 3.41 <
20 5 2 441.64 370.23 52.99 o
20 6 2 1173.61 1139.10 104.10 o
20 7 2 463.77 364.16 59.44 o
20 8 2 545.82 523.08 83.61 o
20 9 2 292.34 301.18 52.80 o
21 5 2 1059.56 991.11 97.27 o
21 6 2 1151.76 1319.64 113.22 o
21 7 2 161.31 172.65 40.79 o
