#------------------------------------------------------------------------------
#$Date: 2021-04-12 12:26:45 +0300 (Mon, 12 Apr 2021) $
#$Revision: 264059 $
#$URL: file:///home/coder/svn-repositories/cod/cif/1/56/16/1561666.cif $
#------------------------------------------------------------------------------
#
# This file is available in the Crystallography Open Database (COD),
# http://www.crystallography.net/
#
# All data on this site have been placed in the public domain by the
# contributors.
#
data_1561666
loop_
_publ_author_name
'Mao, Yuanlv'
'Fang, Yuqiang'
'Pan, Jie'
'Wang, Dong'
'Bu, Kejun'
'Che, Xiangli'
'Zhao, Wei'
'Huang, Fuqiang'
_publ_section_title
;
 Synthesis, crystal structures and physical properties of A(H2O) MoS2
 (A&#x00A0;=&#x00A0;K, Rb, Cs)
;
_journal_name_full               'Journal of Solid State Chemistry'
_journal_page_first              120937
_journal_paper_doi               10.1016/j.jssc.2019.120937
_journal_volume                  279
_journal_year                    2019
_chemical_formula_sum            'H1.22 Mo O0.61 Rb0.27 S2'
_chemical_formula_weight         194.13
_space_group_crystal_system      monoclinic
_space_group_IT_number           11
_space_group_name_Hall           '-P 2yb'
_space_group_name_H-M_alt        'P 1 21/m 1'
_atom_sites_solution_hydrogens   .
_cell_angle_alpha                90
_cell_angle_beta                 100.26(4)
_cell_angle_gamma                90
_cell_formula_units_Z            2
_cell_length_a                   5.711(7)
_cell_length_b                   3.250(4)
_cell_length_c                   9.427(12)
_cell_measurement_reflns_used    1117
_cell_measurement_temperature    298(2)
_cell_measurement_theta_max      15
_cell_measurement_theta_min      7
_cell_volume                     172.2(4)
_computing_structure_refinement  'SHELXL-2014/7 (Sheldrick, 2014)'
_diffrn_ambient_temperature      298(2)
_diffrn_measured_fraction_theta_full 0.967
_diffrn_measured_fraction_theta_max 0.967
_diffrn_measurement_device_type  'CCD area detector'
_diffrn_measurement_method       'phi and omega scans'
_diffrn_radiation_type           MoK\a
_diffrn_radiation_wavelength     0.71073
_diffrn_reflns_av_R_equivalents  0.0490
_diffrn_reflns_av_unetI/netI     0.0487
_diffrn_reflns_Laue_measured_fraction_full 0.967
_diffrn_reflns_Laue_measured_fraction_max 0.967
_diffrn_reflns_limit_h_max       6
_diffrn_reflns_limit_h_min       -6
_diffrn_reflns_limit_k_max       3
_diffrn_reflns_limit_k_min       -3
_diffrn_reflns_limit_l_max       11
_diffrn_reflns_limit_l_min       -9
_diffrn_reflns_number            1117
_diffrn_reflns_point_group_measured_fraction_full 0.967
_diffrn_reflns_point_group_measured_fraction_max 0.967
_diffrn_reflns_theta_full        24.989
_diffrn_reflns_theta_max         24.989
_diffrn_reflns_theta_min         3.625
_exptl_absorpt_coefficient_mu    8.539
_exptl_absorpt_correction_type   multi-scan
_exptl_crystal_colour            black
_exptl_crystal_density_diffrn    3.744
_exptl_crystal_description       plate
_exptl_crystal_F_000             180
_exptl_crystal_size_max          0.09
_exptl_crystal_size_mid          0.07
_exptl_crystal_size_min          0.05
_exptl_transmission_factor_max   0.653
_exptl_transmission_factor_min   0.493
_refine_diff_density_max         1.454
_refine_diff_density_min         -1.026
_refine_diff_density_rms         0.307
_refine_ls_extinction_coef       .
_refine_ls_extinction_method     none
_refine_ls_goodness_of_fit_ref   1.195
_refine_ls_hydrogen_treatment    undef
_refine_ls_matrix_type           full
_refine_ls_number_parameters     33
_refine_ls_number_reflns         348
_refine_ls_number_restraints     1
_refine_ls_restrained_S_all      1.193
_refine_ls_R_factor_all          0.0500
_refine_ls_R_factor_gt           0.0409
_refine_ls_shift/su_max          0.000
_refine_ls_shift/su_mean         0.000
_refine_ls_structure_factor_coef Fsqd
_refine_ls_weighting_details
'w=1/[\s^2^(Fo^2^)+(0.0670P)^2^+0.4374P] where P=(Fo^2^+2Fc^2^)/3'
_refine_ls_weighting_scheme      calc
_refine_ls_wR_factor_gt          0.1153
_refine_ls_wR_factor_ref         0.1195
_reflns_Friedel_coverage         0.000
_reflns_Friedel_fraction_full    .
_reflns_Friedel_fraction_max     .
_reflns_number_gt                306
_reflns_number_total             348
_reflns_threshold_expression     'I > 2\s(I)'
_cod_data_source_file            JSSC-2019-279-120937.cif
_cod_data_source_block           Rb
_cod_original_sg_symbol_H-M      'P 21/m'
_cod_database_code               1561666
_shelx_space_group_comment
;
The symmetry employed for this shelxl refinement is uniquely defined
by the following loop, which should always be used as a source of
symmetry information in preference to the above space-group names.
They are only intended as comments.
;
_shelx_res_file
;

    Rb.res created by SHELXL-2014/7


TITL P21-1_a.res in P2(1)/m
REM Old TITL P21-1 in P2(1)
REM SHELXT solution in P2(1)/m
REM R1 0.090,  Rweak 0.008,  Alpha 0.042,  Orientation as input
REM Formula found by SHELXT:  Mo S3
CELL  0.71073   5.7111   3.2501   9.4270   90.000  100.258   90.000
ZERR    2.000   0.0072   0.0039   0.0121    0.000    0.036    0.000
LATT  1
SYMM -X, 1/2+Y, -Z
SFAC Rb Mo S H O
UNIT 0.54002 2 4 2.44 1.22
TEMP 0
L.S. 10
BOND
LIST 4
FMAP 2
OMIT -2 50.0
OMIT -2 2 7
omit 0 0 7
omit 0 0 5
ACTA
PLAN 20
sump 0.27 0.0001 1.0 2 1.0 3
WGHT    0.067000    0.437400
FVAR       0.92574   0.14312   0.12689
MO    2    0.300440    0.750000    0.993872    10.50000    0.00733    0.01321 =
         0.01692    0.00000    0.00179    0.00000
S1    3    0.124973    0.250000    1.141433    10.50000    0.00957    0.01014 =
         0.01931    0.00000    0.00420    0.00000
S2    3    0.640790    0.750000    1.183786    10.50000    0.01052    0.01094 =
         0.01788    0.00000    0.00218    0.00000
part 1
RB1   1    0.302700    0.750000    1.464481    20.50000    0.13002    0.08027 =
         0.02395    0.00000    0.03300    0.00000
part 2
RB2   1    0.141903    0.750000    1.474427    30.50000    0.07698    0.12243 =
         0.00813    0.00000   -0.00367    0.00000
part 0
HKLF 4

REM  P21-1_a.res in P2(1)/m
REM R1 =  0.0409 for     306 Fo > 4sig(Fo)  and  0.0500 for all     348 data
REM     33 parameters refined using      1 restraints

END

WGHT      0.0670      0.4374

REM Highest difference peak  1.454,  deepest hole -1.026,  1-sigma level  0.307
Q1    1   0.3938  0.9274  1.4800  11.00000  0.05    1.45
Q2    1   0.1789  0.2500  0.9997  10.50000  0.05    1.32
Q3    1   0.2411  0.7500  1.5043  10.50000  0.05    1.26
Q4    1   0.0441  0.9815  1.4884  11.00000  0.05    1.17
Q5    1   0.5146  0.7500  0.9793  10.50000  0.05    1.04
Q6    1   0.0920  0.7500  0.9955  10.50000  0.05    0.78
Q7    1   0.0801  0.7500  1.4190  10.50000  0.05    0.69
Q8    1   0.3261  0.7500  1.0840  10.50000  0.05    0.64
Q9    1   0.2954  0.7500  0.8586  10.50000  0.05    0.56
Q10   1   0.4161  0.7500  0.8441  10.50000  0.05    0.50
Q11   1   0.3409  1.0150  0.9186  11.00000  0.05    0.47
Q12   1   0.2988 -0.1274  1.1727  11.00000  0.05    0.44
Q13   1   0.4711  0.8734  1.1879  11.00000  0.05    0.39
Q14   1  -0.0482  0.2500  1.1347  10.50000  0.05    0.38
Q15   1   0.3982  0.2500  1.1878  10.50000  0.05    0.33
Q16   1   0.1528  0.2500  1.3179  10.50000  0.05    0.31
Q17   1   0.4618  1.0567  1.1006  11.00000  0.05    0.31
Q18   1   0.3750  0.2500  1.3248  10.50000  0.05    0.28
Q19   1   0.5626  0.7500  1.0829  10.50000  0.05    0.27
Q20   1   0.7026  0.7500  1.2843  10.50000  0.05    0.27
;
_shelx_res_checksum              8641
_shelx_hkl_file
;
   1   0   0  278.07   11.50
  -1   0   0  288.47   12.00
  -1   0   0  287.37   15.60
  -2   0   0 3141.29   93.09
  -2   0   0 3381.66  102.29
   2   0   0 3177.78   92.29
   3   0   0 1839.72   62.09
  -3   0   0 1901.11   74.99
  -3   0   0 1904.91   63.59
  -4   0   0  274.97   39.80
  -4   0   0  320.77   35.20
  -5   0   0 2051.49   81.59
  -5   0   0 1720.43   90.09
  -6   0   0  362.66   43.60
  -6   0   0  235.18   47.40
  -7   0   0  383.16   71.09
  -7   0   0  392.16   58.79
  -8   0   0   68.29   73.29
  -8   0   0  -28.50   73.49
   0  -1   0   -4.30   19.90
   0  -1   0   11.50   14.60
   0   1   0    5.70   12.30
   0   1   0    5.80   20.30
   1  -1   0 1430.56   58.89
  -1  -1   0 1283.07   48.30
  -1  -1   0 1477.85   68.39
   1  -1   0 1551.24   72.99
   1   1   0 1408.36   70.99
  -1   1   0 1390.96   58.69
  -1   1   0 1382.26   80.19
  -2  -1   0  933.81   38.60
  -2  -1   0  877.11   58.79
   2  -1   0  979.60   66.29
  -2   1   0  824.62   73.29
   2   1   0  885.81   35.90
   2   1   0  869.81   58.89
  -2   1   0  924.41   52.09
  -3  -1   0 1935.61   68.79
   3  -1   0 2057.09   97.99
   3   1   0 2054.69   94.89
  -3   1   0 1850.41   87.49
   3   1   0 1901.61   75.19
  -4  -1   0 1196.68   54.29
  -4  -1   0 1143.59   60.89
   4   1   0 1182.28   83.39
  -4   1   0 1166.88   70.99
  -5  -1   0  340.07   44.70
  -5  -1   0  306.27   36.70
  -5   1   0  366.46   55.99
   5   1   0  277.37   61.99
  -6  -1   0  622.94   67.19
  -6  -1   0  729.33   56.99
  -6   1   0  629.14   80.59
  -7  -1   0  450.95   70.09
  -7  -1   0  552.24   59.39
  -7   1   0  670.73   94.69
  -8  -1   0  272.17   78.79
  -8  -1   0  188.68   62.89
  -8   1   0  372.06   95.59
   0  -2   0 6223.98  180.68
   0  -2   0 5918.31  183.68
   0   2   0 6619.44  249.38
  -1  -2   0  171.38   39.10
  -1  -2   0  163.48   24.70
  -1   2   0  148.49   35.70
   1   2   0   81.59   46.30
  -1   2   0  183.68   61.19
  -2  -2   0 1418.46   61.09
  -2   2   0 1500.45  137.39
   2   2   0 1473.85  111.59
  -2   2   0 1445.26   86.99
  -3  -2   0  932.41   47.70
  -3   2   0 1021.10   72.69
   3   2   0 1011.20  101.09
  -4  -2   0  164.98   24.40
  -4   2   0  218.28   48.90
   4   2   0  118.19   53.89
  -5  -2   0 1191.08   62.59
   5   2   0 1060.69  121.09
  -5   2   0 1266.47   98.99
  -6  -2   0  195.18   47.60
  -6  -2   0  149.39   37.10
  -6   2   0  255.47   68.29
   6   2   0  254.37   92.49
  -7  -2   0  354.56   68.19
   7   2   0  329.37  131.39
  -7   2   0  296.27   86.69
   0  -3   0  -27.90   19.90
   0   3   0   23.10   66.59
   1  -3   0  125.19   30.20
  -1  -3   0  155.68   26.40
   1  -3   0  236.58   46.10
  -1   3   0  163.28   49.40
  -1   3   0  291.57   87.19
   1   3   0   73.49   65.99
  -2  -3   0  328.57   38.30
  -2   3   0  272.87   57.99
  -2   3   0  268.47   96.29
   2   3   0  297.07   83.59
  -3  -3   0  814.42   55.09
   3   3   0  749.13  125.99
  -3   3   0  862.91  145.89
  -3   3   0  936.61   95.79
  -4  -3   0  456.35   48.80
  -4   3   0  380.26   77.39
   4   3   0  510.55  104.39
  -5  -3   0  140.69   35.10
  -5   3   0  239.38   77.19
   5   3   0   44.90  106.29
  -6  -3   0  352.86   47.80
  -6   3   0  260.17   94.19
   6   3   0  275.47  132.99
   0  -4   0 1615.64   82.89
   0   4   0 1379.06  204.18
   1  -4   0   47.20   32.30
  -1  -4   0   14.40   30.60
  -1   4   0  -21.90  125.09
   1   4   0  -15.90  104.99
   2  -4   0  398.06   44.80
   2  -4   0  563.04   75.09
  -2  -4   0  359.36   47.50
  -2   4   0  357.36  149.99
   2   4   0  363.16  129.19
   3  -4   0  415.86   87.29
  -3  -4   0  242.68   43.50
  -3   4   0  485.05  107.89
   3   4   0   62.49  122.59
  -3   4   0  114.59  166.38
   4  -4   0   -6.10   92.39
  -4  -4   0   88.19   39.00
  -4   4   0   48.80   95.79
   4   4   0  195.08  146.39
   5  -4   0  402.16  125.69
  -5  -4   0  407.66   60.59
   5   4   0  299.07  161.48
  -5   4   0  590.24  124.59
  -8   0   1  175.18   73.49
  -8   0   1   56.29   67.39
  -7   0   1  363.76   55.89
  -7   0   1  255.17   58.89
  -6   0   1   -6.30   28.50
  -6   0   1   11.50   35.40
  -5   0   1 1516.65   67.09
  -5   0   1 1336.47   76.29
  -4   0   1    6.80   21.50
   4   0  -1   41.60   24.90
  -4   0   1   33.90   19.70
  -3   0   1 1837.42   72.49
   3   0  -1 1738.63   59.99
  -3   0   1 1861.91   59.29
   2   0  -1   37.80    8.80
   2   0  -1   39.90   17.50
   1   0  -1  434.76   20.00
  -1   0   1  423.96   20.70
   1   0   1  271.37   16.80
  -1   0  -1  244.58   17.40
   1   0   1  250.27   14.10
  -1   0  -1  244.28   15.10
   2   0   1 6257.87  176.68
  -2   0  -1 6207.08  178.98
  -2   0  -1 5978.00  171.78
   2   0   1 5961.90  169.88
  -3   0  -1 1242.98   50.79
  -3   0  -1 1224.28   59.39
  -4   0  -1   49.00   22.60
  -4   0  -1   61.89   29.00
  -5   0  -1 1844.72   78.29
  -5   0  -1 1746.83   90.09
  -6   0  -1  618.74   74.09
  -6   0  -1  656.43   68.69
  -7   0  -1  772.42   94.89
  -7   0  -1  679.83   95.89
  -8   0  -1  239.98   82.09
  -8   0  -1  276.67   83.89
  -8  -1   1  175.68   73.29
  -8  -1   1  261.27   60.59
  -8   1   1  317.27   85.69
  -7  -1   1 1105.19   94.69
  -7  -1   1 1048.60   78.49
  -7   1   1  971.00  107.59
  -6  -1   1  876.51   68.99
  -6  -1   1  717.53   58.39
  -6   1   1  864.71   84.69
   6   1  -1  978.40  107.49
  -5  -1   1   -0.20   18.90
  -5  -1   1   16.00   24.70
  -5   1   1  -31.20   28.60
   5   1  -1   -4.00   39.50
   4  -1  -1 1270.47  132.69
  -4  -1   1 1320.07   57.59
   4   1  -1 1471.35   83.39
  -4   1   1 1319.87   74.69
   3  -1  -1 3224.68  158.78
  -3  -1   1 3245.58  100.59
   3   1  -1 3209.18  122.69
   3   1  -1 3004.30  104.19
  -3   1   1 3073.09  117.89
  -2  -1   1 1135.79   45.10
   2  -1  -1 1215.98   94.79
  -2  -1   1 1130.49   44.60
   2  -1  -1 1054.59   54.09
  -2  -1   1 1018.40   64.69
  -2   1   1 1209.98   56.99
   2   1  -1 1134.59   62.79
   2   1  -1 1108.79   43.40
   1  -1  -1 2382.26  110.99
  -1  -1   1 2292.47   69.59
  -1  -1   1 2402.86   91.39
   1  -1  -1 2334.67   77.99
  -1   1   1 2281.27  116.29
   1   1  -1 2329.77   90.19
   1   1  -1 2256.77   70.99
  -1   1   1 2312.37   80.19
   0  -1  -1   21.30    7.70
   0  -1  -1   24.10   29.40
   0  -1   1    5.40   16.90
   0  -1   1   17.60   12.60
   0  -1   1   26.60   17.70
   0   1  -1   15.80   16.90
   0   1  -1    8.00   16.80
   0   1   1   39.20   29.90
   1  -1   1   13.20   18.30
  -1  -1  -1   21.30   27.10
   1  -1   1    8.00   20.50
  -1  -1  -1   12.00    8.40
   1   1   1    3.40   10.90
  -1   1  -1   12.20   17.10
  -1   1  -1  -17.00   23.30
   1   1   1   56.29   29.30
  -2  -1  -1 1552.94   77.99
   2  -1   1 1378.96   61.79
   2  -1   1 1613.54   64.39
  -2  -1  -1 1537.15   54.19
  -2   1  -1 1499.35   81.19
   2   1   1 1423.46   87.19
  -2   1  -1 1607.74   72.09
  -3  -1  -1  316.87   30.20
  -3  -1  -1  265.07   27.30
  -3  -1  -1  307.07   42.70
   3   1   1  220.98   47.10
  -3   1  -1  258.57   42.40
  -4  -1  -1 1093.69   51.19
  -4  -1  -1 1106.29   60.89
   4   1   1 1122.89   95.29
  -4   1  -1 1101.09   69.99
  -5  -1  -1  238.38   41.60
  -5  -1  -1  371.86   38.90
   5   1   1  405.56   74.89
  -5   1  -1  356.96   55.09
  -5   1  -1  376.16   59.09
  -6  -1  -1  321.27   54.69
  -6  -1  -1  349.67   42.90
  -6   1  -1  349.47   66.09
  -7  -1  -1   78.19   43.80
  -7  -1  -1   22.50   55.69
  -7   1  -1  156.58   70.99
  -8  -1  -1   86.59   86.49
  -8  -1  -1   80.79   63.79
  -8   1  -1  252.87   94.99
  -7  -2   1  245.38   46.50
  -7  -2   1  197.98   59.99
   7   2  -1  142.09  112.99
  -7   2   1  153.88   73.89
  -6  -2   1   22.10   27.50
  -6  -2   1   35.00   39.00
   6   2  -1 -114.09   74.09
  -6   2   1   29.80   56.99
  -5  -2   1  973.00   55.79
   5   2  -1  736.03  101.29
  -5   2   1  806.62   90.39
  -4  -2   1   46.50   19.40
  -4   2   1   32.30   37.90
   4   2  -1   52.49   43.50
  -3  -2   1 1017.80   49.70
   3   2  -1  945.71   54.09
  -3   2   1 1003.50   71.79
   3   2  -1 1034.00   93.69
  -2  -2   1   50.99   20.60
   2   2  -1   43.70   37.20
   2   2  -1   43.10   28.60
  -2   2   1   25.10   33.70
  -2   2   1   88.69   74.39
  -1  -2   1  214.48   28.50
  -1  -2   1  188.08   19.50
   1  -2  -1  147.99   21.10
  -1   2   1  209.08   74.99
   1   2  -1  219.68   53.39
  -1   2   1  191.28   35.90
   0  -2  -1 3015.00   94.69
   0  -2   1 2829.62   98.09
   0  -2  -1 2835.32  109.39
   0   2   1 3094.89  167.88
   0   2  -1 2876.41  143.79
  -1  -2  -1   71.39   16.40
   1  -2   1   42.50   29.80
  -1   2  -1   46.70   30.70
   1   2   1  106.49   59.49
  -1   2  -1  107.59   49.10
  -2  -2  -1 2991.80  100.39
  -2   2  -1 2978.20  166.28
  -2   2  -1 2978.60  127.19
   2   2   1 3038.90  167.88
  -3  -2  -1  607.24   38.60
   3   2   1  675.03  105.19
  -3   2  -1  655.33   66.99
  -3   2  -1  879.31  115.89
   4  -2   1   42.40   70.19
  -4  -2  -1   -1.40   17.60
  -4   2  -1   14.70   37.40
   4   2   1  -16.30   55.59
  -5  -2  -1 1119.39   63.29
  -5   2  -1 1002.90   96.19
   5   2   1  818.42  126.89
  -6  -2  -1  544.15   60.49
  -6   2  -1  545.15   86.59
   6   2   1  520.85  117.59
  -7  -2  -1  391.36   54.09
  -7   2  -1  259.87   91.29
  -6  -3   1  356.16   49.00
  -6   3   1  320.67   97.39
   6   3  -1  466.15  130.19
  -5  -3   1    9.60   28.80
  -5   3   1  -52.79   67.59
   5   3  -1  -41.40   90.49
  -4  -3   1  572.44   52.69
   4   3  -1  645.84  109.89
  -4   3   1  513.45   85.19
  -3  -3   1 1251.37   67.29
  -3   3   1 1306.17  104.39
   3   3  -1 1239.78  132.39
  -2  -3   1  329.37   41.70
  -2   3   1  342.17  101.49
   2   3  -1  287.27   76.89
  -2   3   1  379.16   61.19
  -1  -3   1  947.21   58.49
   1  -3  -1 1101.59   68.39
   1  -3  -1  921.11   54.89
   1   3  -1  845.92  113.49
  -1   3   1  958.10  142.69
  -1   3   1  915.31   90.59
   0  -3  -1   21.90   18.00
   0  -3   1   17.10   27.30
   0  -3   1  -15.80   22.50
   0   3   1   -7.40   67.29
   0   3  -1  -36.70   56.09
   1  -3   1   95.69   39.70
  -1  -3  -1   33.40   20.60
  -1   3  -1  -26.50   70.19
   1   3   1   89.59   71.59
   2  -3   1  342.57   58.29
  -2  -3  -1  481.25   41.10
   2   3   1  389.56   93.59
  -2   3  -1  495.05   72.19
  -2   3  -1  567.34  117.99
  -3  -3  -1   86.49   24.30
   3   3   1    3.70   74.79
  -3   3  -1 -135.59   90.09
  -3   3  -1  156.08   56.09
  -4  -3  -1  454.95   49.20
  -4   3  -1  480.95   81.69
   4   3   1  375.66  103.09
  -5  -3  -1  184.38   35.50
   5   3   1   67.79  114.19
  -5   3  -1  118.99   72.89
  -6  -3  -1  137.89   42.70
   6   3   1   54.69  151.18
  -6   3  -1  227.58   91.69
  -5  -4   1  328.67   54.89
   5   4  -1  320.47  158.38
  -5   4   1   91.29  112.19
  -4  -4   1   40.90   39.90
  -4   4   1  178.38   96.39
   4   4  -1   76.99  128.89
   3  -4  -1  414.76   90.79
  -3  -4   1  327.17   48.10
   3   4  -1  321.17  115.69
  -3   4   1  400.56  100.69
  -2  -4   1    9.30   33.30
   2  -4  -1   15.50   57.49
  -2   4   1 -154.48  117.69
   2   4  -1  -69.79  101.99
   1  -4  -1   23.80   31.60
  -1  -4   1   85.79   35.70
  -1   4   1  144.79  134.69
   1   4  -1  202.58  110.19
   0  -4   1  906.01   72.09
   0  -4  -1  941.01   63.89
   0   4  -1 1017.10  164.18
   0   4   1  649.54  156.28
   1  -4   1   -3.70   36.00
  -1  -4  -1    4.80   30.40
   1  -4   1   87.09   47.40
  -1   4  -1  -74.79  114.39
   1   4   1  162.98  122.09
  -2  -4  -1  961.50   70.59
   2  -4   1  915.51   88.39
   2  -4   1  783.72   78.79
   2   4   1  865.31  181.78
  -2   4  -1  848.22  164.98
   3  -4   1  120.19   75.39
  -3  -4  -1  233.58   41.60
  -3   4  -1  295.07  165.28
  -3   4  -1  273.47   97.39
   3   4   1  144.79  126.19
  -4  -4  -1   44.50   38.80
   4  -4   1   27.80   89.39
   4   4   1  -15.00  145.09
  -4   4  -1   49.50   93.39
   5  -4   1  550.34  127.09
  -5   4  -1  562.94  133.69
   5   4   1  378.86  180.68
  -8   0   2  561.34   86.59
  -7   0   2  426.16   66.69
  -6   0   2   64.89   33.40
  -6   0   2   61.49   36.10
  -5   0   2 1403.76   76.39
  -5   0   2 1368.56   63.79
   5   0  -2 1442.66   84.79
   4   0  -2  178.28   26.90
  -4   0   2  209.28   33.60
  -4   0   2  256.07   24.50
   2   0  -2  112.59   19.90
  -2   0   2  179.98   22.30
  -1   0   2  379.56   21.10
   1   0  -2  387.16   20.90
   0   0   2 5641.34  157.58
   0   0   2 5606.34  158.08
   0   0  -2 5685.63  159.08
   0   0  -2 5566.54  158.08
   1   0   2    5.90   10.70
  -1   0  -2   -5.00    9.30
   1   0   2    3.60   15.70
   1   0   2    4.10    8.80
  -1   0  -2   -1.10   11.50
  -2   0  -2 5940.91  176.28
  -2   0  -2 5933.81  171.48
   2   0   2 5944.10  172.58
   2   0   2 5743.13  167.78
  -3   0  -2  534.65   44.50
  -3   0  -2  504.75   38.80
  -4   0  -2  716.73   52.59
  -4   0  -2  772.52   61.89
  -5   0  -2 1240.18   78.79
  -5   0  -2 1200.38   70.09
  -6   0  -2  443.76   52.79
  -6   0  -2  355.46   62.49
  -7   0  -2  945.61  106.39
  -7   0  -2  696.13  107.89
  -8   0  -2  592.74   95.19
  -8   0  -2  683.73  113.79
  -8  -1   2   70.49   55.69
  -8  -1   2   97.39   68.29
  -8   1   2   36.60   70.99
  -7  -1   2  669.43   78.29
  -7  -1   2  644.94   71.39
  -7   1   2  598.64   93.49
   7   1  -2  834.72  115.99
  -6  -1   2  795.72   67.09
  -6  -1   2  743.43   57.89
  -6   1   2  697.53   77.79
   6   1  -2  950.50   96.39
  -5  -1   2  587.54   40.50
  -5   1   2  588.24   58.69
   5   1  -2  579.24   72.59
  -4  -1   2 1523.95   62.09
   4   1  -2 1415.36   85.19
  -4   1   2 1550.44   78.59
   3  -1  -2 1277.37  135.99
  -3  -1   2 1301.67   53.39
   3   1  -2 1258.17   72.79
  -3   1   2 1265.17   66.49
  -2  -1   2 1385.66   56.29
   2  -1  -2 1372.16   61.09
   2  -1  -2 1507.35   62.59
   2  -1  -2 1511.25  119.89
  -2  -1   2 1507.05   55.19
   2   1  -2 1526.35   74.69
  -2   1   2 1510.45   63.99
   2   1  -2 1479.25   54.59
   1  -1  -2 9881.51  269.17
  -1  -1   2 9643.04  267.97
   1  -1  -2 9382.16  268.37
   1  -1  -2 9736.63  323.27
   1   1  -2 9456.25  270.07
   1   1  -2 9801.72  288.37
  -1   1   2 9999.00  272.57
   0  -1  -2  252.07   15.40
   0  -1   2  242.98   23.40
   0  -1   2  240.78   36.70
   0  -1  -2  222.18   13.00
   0  -1   2  228.98   36.20
   0  -1  -2  245.48   51.69
   0   1   2  251.27   16.00
   0   1   2  238.38   17.20
   0   1  -2  254.47   32.00
   0   1   2  257.07   58.19
   0   1  -2  206.58   31.80
  -1  -1  -2 2787.62   83.19
  -1  -1  -2 2731.73  123.19
   1  -1   2 2570.84  100.19
   1  -1   2 2634.54   96.69
   1  -1   2 2764.12  103.49
  -1   1  -2 2864.41  100.89
   1   1   2 2694.53  134.39
  -1   1  -2 2814.12   97.89
   1   1   2 2698.73   83.79
  -2  -1  -2 1051.29   43.20
  -2  -1  -2 1064.89   75.59
   2   1   2  826.82   87.09
  -2   1  -2 1017.70   60.29
  -2   1  -2 1065.59   63.19
  -3  -1  -2  -13.60   14.80
  -3  -1  -2  -27.30   36.00
  -3   1  -2    9.90   24.70
   3   1   2   -9.10   47.70
  -4  -1  -2 1740.43  101.89
  -4  -1  -2 1745.53   70.99
   4   1   2 1754.52  128.29
  -4   1  -2 1719.33   91.59
  -5  -1  -2    1.00   22.20
  -5  -1  -2   28.70   37.00
  -5   1  -2  -34.70   37.30
  -6  -1  -2  309.87   53.89
  -6  -1  -2  363.06   45.90
  -6   1  -2  402.56   75.19
  -7  -1  -2   53.59   62.49
  -7  -1  -2   86.89   46.70
  -7   1  -2  -92.99   65.39
  -8  -1  -2  -57.29   66.69
  -8  -1  -2   -2.90   94.39
  -8   1  -2 -135.59   90.69
  -8  -2   2  280.47   76.99
  -8  -2   2  326.47   63.79
  -8   2   2  323.67  105.49
  -7  -2   2  221.08   57.19
  -7  -2   2  297.07   50.49
   7   2  -2  177.18  103.99
  -7   2   2  278.97   80.09
  -6  -2   2   39.30   28.90
   6   2  -2    1.70   66.59
  -6   2   2    6.10   55.79
  -5  -2   2  925.11   56.09
   5   2  -2  923.51   97.49
  -5   2   2  831.22   86.79
  -4  -2   2  202.68   28.50
  -4   2   2  114.19   41.50
   4   2  -2  172.58   47.50
  -3  -2   2  898.01   48.30
  -3  -2   2  818.02   49.20
   3   2  -2  853.91   73.69
  -3   2   2  742.13   70.59
  -2  -2   2   38.90   21.40
  -2  -2   2   72.49   19.50
   2   2  -2   77.39   38.90
  -2   2   2   44.00   35.50
   2   2  -2  139.49   38.90
  -1  -2   2  141.19   23.60
   1  -2  -2  127.69   26.30
  -1   2   2  121.69   34.40
  -1   2   2   74.49   72.39
   1   2  -2  160.98   44.70
   1   2  -2  102.19   40.40
   0  -2   2 1104.09   54.19
   0  -2  -2 1163.58   46.20
   0   2   2 1045.40  123.69
   0   2  -2 1121.49   85.89
   1  -2   2   69.59   30.90
  -1  -2  -2   19.50   13.50
  -1   2  -2   28.30   42.30
   1   2   2   54.19   56.79
  -1   2  -2   14.60   33.40
  -2  -2  -2 3036.40  100.59
  -2   2  -2 3073.89  157.28
   2   2   2 2884.61  180.88
  -3  -2  -2  309.27   30.40
  -3   2  -2  232.08   48.70
  -3   2  -2  224.18   86.89
   3   2   2  257.67   81.09
  -4  -2  -2  506.95   42.30
  -4   2  -2  567.34   76.39
   4   2   2  562.44   93.49
  -5  -2  -2  773.02   57.19
   5   2   2  815.52  121.89
  -5   2  -2  839.62   97.19
  -6  -2  -2  296.67   43.50
   6   2   2  283.27  121.19
  -6   2  -2  255.87   75.29
  -7  -2  -2  789.42   84.19
  -7   2  -2  586.04  114.19
   7   3  -2  261.77  154.88
  -6  -3   2  458.35   53.19
   6   3  -2  276.37  112.49
  -6   3   2  413.86   99.99
  -5  -3   2  293.77   42.80
  -5   3   2  319.97   86.39
   5   3  -2   75.09   84.09
  -4  -3   2  641.44   57.39
   4   3  -2  771.52  118.59
  -4   3   2  642.24   91.89
  -3  -3   2  468.25   52.49
   3   3  -2  551.24   90.39
  -3   3   2  642.64   84.49
  -2  -3   2  568.24   50.89
  -2   3   2  306.77  109.79
   2   3  -2  418.36   83.99
  -2   3   2  553.24   80.89
  -1  -3   2 2176.98   97.19
   1  -3  -2 2378.96   85.59
  -1  -3   2 2515.45   87.19
   1   3  -2 2111.59  149.79
  -1   3   2 2160.18  189.08
   0  -3  -2   47.60   18.30
   0  -3   2   19.40   31.20
   0   3   2  -12.60   74.49
   0   3  -2    4.30   56.79
   1  -3   2  624.34   59.79
  -1  -3  -2  623.44   40.90
   1   3   2  392.36  107.29
  -1   3  -2  459.15   95.59
   2  -3   2  443.76   57.79
  -2  -3  -2  448.86   39.30
  -2   3  -2  465.45   67.09
  -2   3  -2  243.98   90.59
   2   3   2  440.86  105.79
   3  -3   2   13.80   48.00
  -3  -3  -2   22.10   21.50
   3   3   2  -28.30   83.19
  -3   3  -2    2.40   50.49
  -3   3  -2 -108.29   93.89
  -4  -3  -2  690.93   56.39
   4  -3   2  761.32  101.59
   4   3   2  637.64  128.39
  -4   3  -2  655.93  102.99
  -5  -3  -2  -14.60   32.90
   5   3   2 -102.79  119.69
  -5   3  -2  -10.10   66.99
  -6  -3  -2  149.39   44.50
   6   3   2   90.49  165.08
  -6   3  -2  152.98   91.09
  -5  -4   2  315.97   57.39
   5   4  -2   64.29  131.19
  -5   4   2  162.48  120.19
  -4  -4   2  126.39   43.20
  -4   4   2   54.79   93.09
   4   4  -2  139.19  130.69
  -3  -4   2  398.26   50.89
   3  -4  -2  398.16   98.09
   3   4  -2  332.27  118.79
  -3   4   2  275.27  100.59
  -2  -4   2   26.40   37.20
   2  -4  -2  -42.10   71.59
  -2   4   2  153.18   92.09
   2   4  -2  103.89  104.99
  -2   4   2  -49.00  126.89
  -1  -4   2   25.20   37.80
   1  -4  -2   66.39   29.40
   1   4  -2  -89.69   99.29
  -1   4   2  -62.29  114.39
   0  -4   2  231.98   42.50
   0  -4   2  154.38   51.09
   0  -4  -2  268.07   34.50
   0   4  -2  184.48  112.39
   0   4   2  342.37  140.09
   1  -4   2  -62.19   46.00
  -1  -4  -2   48.10   29.80
   1  -4   2   53.59   39.70
   1   4   2   -0.30  118.39
  -1   4  -2   -2.60  106.29
  -2  -4  -2  973.30   69.29
   2  -4   2  935.61   89.59
   2   4   2  720.63  158.38
  -2   4  -2  837.22  168.68
   3  -4   2  146.79   71.69
  -3  -4  -2   72.79   35.40
  -3   4  -2  363.06  101.59
  -3   4  -2  -76.69  154.68
   3   4   2  215.78  138.79
  -4  -4  -2  180.98   44.70
   4  -4   2  431.76   95.29
   4   4   2  115.29  156.58
  -4   4  -2  162.88  108.79
  -8   0   3 1054.69  114.29
  -7   0   3  337.67   62.79
   7   0  -3  448.16   78.59
  -6   0   3   88.09   35.50
   6   0  -3   94.79   50.79
  -5   0   3 1409.86   76.29
   2   0  -3  816.32   42.10
  -2   0   3  939.21   43.80
  -1   0   3   37.90   12.70
   1   0  -3   37.40   11.50
   0   0   3   12.60   13.30
   0   0   3   11.60    9.60
   0   0  -3   31.20   15.10
   0   0  -3   31.10   13.00
   1   0   3 1051.49   47.10
  -1   0  -3 1100.19   48.30
   1   0   3 1089.69   49.50
   1   0   3 1064.69   44.90
  -2   0  -3 1724.33   66.29
   2   0   3 1651.43   65.99
  -2   0  -3 1500.45   68.09
  -3   0  -3  447.96   43.30
  -3   0  -3  454.55   49.20
  -4   0  -3 1191.98   64.09
  -4   0  -3 1329.67   81.19
  -5   0  -3  392.36   56.79
  -5   0  -3  477.35   57.89
  -6   0  -3   62.79   43.90
  -6   0  -3   60.29   51.59
  -7   0  -3  586.84   91.09
  -7   0  -3  605.44   78.39
  -8   0  -3  339.07  101.99
  -8   0  -3  539.15   98.29
  -8  -1   3   75.19   54.29
  -8  -1   3   99.59   60.99
  -8   1   3  107.39   74.49
  -7  -1   3  182.78   42.80
  -7  -1   3  136.39   52.99
  -7   1   3  126.99   58.09
   7   1  -3  194.68   67.09
  -6  -1   3  604.14   52.89
  -6  -1   3  714.13   62.69
   6   1  -3  616.74   76.39
  -6   1   3  644.44   72.39
  -5  -1   3  534.75   40.30
  -5   1   3  556.24   57.99
   5   1  -3  642.04   74.09
  -4  -1   3 1083.79   52.69
  -4   1   3 1058.49   63.39
   4   1  -3 1085.09   79.79
  -3  -1   3   62.89   25.20
  -3  -1   3   49.70   18.10
   3   1  -3   48.20   32.30
  -3   1   3   29.20   23.10
   2   1  -3  742.63   43.80
  -2   1   3 1026.30   48.70
   2   1  -3  977.60   66.19
   1  -1  -3 3271.27  179.78
   1  -1  -3 3945.51  116.79
  -1  -1   3 4061.99  120.49
  -1   1   3 4040.30  118.19
  -1   1   3 3886.51  118.59
   1   1  -3 3882.21  140.89
   1   1  -3 3748.02  121.99
   0  -1  -3  187.98   17.10
   0  -1  -3  117.59   60.59
   0  -1  -3  186.18   17.70
   0  -1   3  101.59   30.00
   0  -1   3  205.88   23.30
   0   1  -3  137.59   29.40
   0   1   3  175.98   17.60
   0   1   3  196.38   17.00
   0   1  -3  186.88   30.80
   1  -1   3 3632.44  126.39
  -1  -1  -3 3755.62  108.99
  -1  -1  -3 3295.57  160.18
   1   1   3 3543.85  105.19
   1   1   3 3395.56  169.08
  -1   1  -3 3710.63  123.19
  -1   1  -3 3736.63  126.49
  -2  -1  -3  714.93   36.90
  -2  -1  -3  597.64   83.59
   2   1   3  607.44   41.30
   2   1   3  708.13   96.49
  -2   1  -3  653.83   45.20
  -2   1  -3  644.24   53.39
  -3  -1  -3  109.79   51.59
  -3  -1  -3  165.08   23.60
   3   1   3  123.89   63.29
  -3   1  -3  166.78   41.20
  -4  -1  -3 1849.02  106.69
  -4  -1  -3 1868.91   77.49
  -4   1  -3 1804.12   99.79
  -5  -1  -3   60.49   26.80
  -5   1  -3   51.09   47.50
  -6  -1  -3  806.92   74.19
  -6   1  -3  605.14   90.39
  -7  -1  -3   80.29   74.49
  -7   1  -3  140.99   77.59
  -8  -2   3  538.35   85.79
  -8  -2   3  893.01  106.49
  -8   2   3  630.24  119.99
  -7  -2   3  212.68   56.59
  -7  -2   3  332.77   48.90
   7   2  -3  185.68   95.19
  -7   2   3  258.17   76.19
  -6  -2   3   29.80   28.90
  -6   2   3  103.49   56.19
   6   2  -3   54.19   63.89
  -5  -2   3  950.90   58.49
  -5   2   3  981.80   90.59
   5   2  -3 1036.40   96.09
  -4  -2   3  784.02   50.49
  -4   2   3  860.81   74.79
   4   2  -3  645.94   76.19
  -3  -2   3 1112.29   58.59
  -3  -2   3 1129.69   60.19
   3   2  -3 1153.48   83.89
  -3   2   3 1059.49   80.99
  -2  -2   3  478.15   38.00
  -2   2   3  511.15   62.09
   2   2  -3  531.05   65.59
  -1  -2   3   79.49   22.20
   1  -2  -3   29.10   21.40
   1   2  -3   75.29   38.60
  -1   2   3  133.89   78.19
   0  -2   3  147.39   29.40
   0  -2  -3  118.69   16.50
   0   2  -3   93.39   39.80
   0   2   3   94.59   63.59
   1  -2   3  341.27   45.10
  -1  -2  -3  306.17   29.10
   1   2   3  306.57   83.09
  -1   2  -3  271.77   52.69
  -1   2  -3  349.96   50.99
  -2  -2  -3  863.51   42.30
   2  -2   3  821.92   68.39
  -2   2  -3  811.72   63.09
  -2   2  -3  838.22   94.19
   2   2   3  657.53  113.39
   3  -2   3  323.07   62.89
  -3  -2  -3  294.57   33.30
  -3   2  -3  287.57   49.20
  -3   2  -3  336.97   82.99
   3   2   3   94.89   79.89
  -4  -2  -3  782.22   52.49
  -4   2  -3  760.52   84.79
   4   2   3  650.13  108.89
  -5  -2  -3  203.48   34.20
   5   2   3  208.98  100.19
   5   2   3  417.16   77.89
  -5   2  -3  283.67   69.89
  -6  -2  -3    0.00   35.30
  -6   2  -3  -51.29   67.89
   6   2   3  117.89   79.19
  -7  -2  -3  411.66   61.19
  -7   2  -3  349.57  105.09
  -6  -3   3  345.47   50.19
   6   3  -3  263.37  118.49
  -6   3   3  334.27   90.29
  -5  -3   3  296.47   44.60
   5   3  -3  316.67   87.39
  -5   3   3  320.87   79.59
  -4  -3   3  447.96   55.69
   4   3  -3  343.67   74.39
  -4   3   3  514.05   82.39
  -3  -3   3  -37.60   26.40
  -3  -3   3  -71.59   38.80
  -3   3   3  -51.29   57.69
   3   3  -3    5.80   54.49
  -2  -3   3  488.85   49.00
  -2  -3   3  346.07   44.30
  -2   3   3  516.95   80.89
   2   3  -3  356.46   74.29
   1  -3  -3 1731.63   67.29
  -1  -3   3 1630.74   75.39
  -1   3   3 1552.94  178.28
   1   3  -3 1808.22  134.29
   0  -3   3  123.39   36.20
   0  -3  -3  144.59   20.90
   0   3   3   66.89   87.69
   0   3  -3   90.79   57.49
  -1  -3  -3 1530.25   64.99
   1  -3   3 1555.04   80.29
   1   3   3 1509.35  173.18
  -1   3  -3 1611.44  134.99
  -2  -3  -3  192.28   27.20
   2  -3   3  213.18   48.30
   2   3   3   68.39   87.59
  -2   3  -3  153.48   55.89
  -2   3  -3  143.29   81.49
  -3  -3  -3   38.30   22.90
   3  -3   3  137.29   57.99
   3   3   3  129.79   95.19
  -3   3  -3   -9.20   53.69
  -3   3  -3  -14.20   98.09
   4  -3   3  970.70  105.79
  -4  -3  -3  929.31   68.09
   4   3   3 1221.58  192.68
  -4   3  -3 1054.59  151.38
  -4   3  -3 1014.80  114.09
  -5  -3  -3   61.39   35.90
   5  -3   3   55.19   81.29
   5   3   3  170.88  142.39
  -5   3  -3   64.59   76.99
   6  -3   3   77.99  107.29
  -6  -3  -3  304.67   52.59
   6   3   3  158.68  187.48
  -6   3  -3  432.16  108.29
  -5  -4   3  309.17   56.99
  -5   4   3  381.86  125.29
   5   4  -3  473.45  144.89
  -4  -4   3  303.57   56.09
   4   4  -3  284.97  117.29
  -4   4   3  171.58  111.69
  -3  -4   3  408.66   57.09
  -3   4   3  331.77  101.79
   3   4  -3  177.88  115.59
  -2  -4   3  161.78   47.30
   2   4  -3   69.29  102.89
  -2   4   3  292.17   98.99
  -1  -4   3  -38.70   39.30
   1  -4  -3  -16.90   28.00
   1   4  -3   65.49  100.79
  -1   4   3   38.70  132.89
   0  -4   3   69.49   43.30
   0  -4   3   57.99   40.90
   0  -4  -3   12.70   28.20
   0   4  -3  165.68  110.79
   0   4   3 -100.89  113.99
   1  -4   3   78.49   50.49
  -1  -4  -3  102.59   31.80
  -1   4  -3  -95.09  107.09
   1   4   3  285.27  143.49
  -2  -4  -3  271.87   40.80
   2  -4   3  248.38   65.49
  -2   4  -3  394.36  143.59
   2   4   3  160.98  136.29
   3  -4   3   61.59   70.09
  -3  -4  -3  113.69   37.10
   3   4   3  239.78  151.48
  -3   4  -3   71.19  163.48
   4  -4   3  255.47   89.19
  -4  -4  -3  320.17   51.69
  -4   4  -3  250.77  111.49
   4   4   3  120.89  178.68
  -8   0   4 1003.30  108.99
  -7   0   4  287.97   54.09
   7   0  -4  268.47   67.99
  -6   0   4  578.84   65.09
  -5   0   4 1081.89   66.19
  -3   0   4 2425.46   94.49
  -2   0   4 3450.35  113.49
  -1   0   4 1118.49   46.70
   1   0  -4 1022.40   46.80
  -1   0   4 1117.39   48.20
   0   0  -4 2849.61  100.39
   0   0   4 2850.31   94.49
   0   0   4 2864.21   94.59
   1   0   4  257.37   29.50
  -1   0  -4  233.88   27.70
  -2   0  -4  339.47   67.89
   2   0   4  389.46   45.40
   2   0   4  473.35   46.70
  -3   0  -4 1068.19   64.39
   3   0   4 1101.39   80.09
  -3   0  -4 1070.29   69.69
  -4   0  -4  382.56   51.49
  -4   0  -4  449.56   64.39
  -5   0  -4  275.87   51.29
  -5   0  -4  268.77   44.80
  -6   0  -4    6.50   53.29
  -6   0  -4   34.70   48.50
  -7   0  -4   39.70   68.79
  -7   0  -4  196.88   81.19
  -8  -1   4   47.50   59.39
  -8  -1   4   46.10   54.49
  -8   1   4   54.49   70.79
   8   1  -4  322.27  108.49
  -7  -1   4   -0.60   43.50
  -7  -1   4   36.60   38.80
   7   1  -4  -12.40   63.29
  -7   1   4   18.30   49.70
  -6  -1   4  722.33   56.09
   6   1  -4  788.92   87.19
  -6   1   4  817.52   77.49
  -5  -1   4  104.69   22.60
  -5   1   4   60.09   31.40
   5   1  -4  114.69   39.40
  -4  -1   4  900.11   52.09
  -4  -1   4  981.60   60.59
   4   1  -4  928.61   82.49
  -4   1   4  864.01   56.59
  -3  -1   4   40.90   23.10
  -3  -1   4   72.49   23.00
   3   1  -4   71.49   39.30
  -3   1   4   84.99   26.60
  -2  -1   4  599.14   38.80
  -2   1   4  602.74   42.80
  -2   1   4  573.44   41.80
  -1  -1   4 2082.19   76.99
   1  -1  -4 2022.00   70.89
  -1   1   4 2041.90   73.39
   0  -1  -4  614.64   36.20
   0  -1  -4  653.93   32.20
   0  -1   4  678.53   41.90
   0   1   4  656.93   30.70
   0   1   4  712.63   33.40
   1  -1   4 5602.34  182.38
  -1  -1  -4 5578.94  164.48
  -1   1  -4 5561.24  182.68
   1   1   4 5646.63  162.38
  -1   1  -4 5574.64  184.18
   2  -1   4   38.10   31.30
  -2  -1  -4   -9.90   15.20
  -2   1  -4   23.90   27.80
  -2   1  -4    6.80   21.20
   2   1   4    5.70   23.10
  -3  -1  -4  905.71   48.40
   3  -1   4  855.91   71.09
   3   1   4  892.01   65.29
  -3   1  -4  894.21   72.29
  -4  -1  -4 1190.08   63.49
  -4  -1  -4  840.92  113.79
  -4   1  -4 1202.28   85.69
   4   1   4 1104.29   91.39
  -5  -1  -4   94.59   32.90
   5   1   4  107.89   59.39
  -5   1  -4    3.30   48.50
  -6  -1  -4 1368.06   95.09
  -6   1  -4 1249.28  120.69
   6   1   4 1107.59  120.09
  -7  -1  -4  159.48   60.99
   7   1   4  432.06  111.69
  -7   1  -4  200.98   86.69
  -7  -2   4  149.39   44.00
  -7   2   4  164.68   73.99
   7   2  -4  112.09   87.79
  -6  -2   4  417.46   56.69
  -6   2   4  420.76   75.69
   6   2  -4  500.15   83.89
  -5  -2   4  775.02   57.29
   5   2  -4  761.02   89.69
  -5   2   4  750.02   83.59
  -4  -2   4  355.06   47.30
  -4  -2   4  342.87   43.20
   4   2  -4  438.76   68.59
  -4   2   4  351.06   56.29
  -3  -2   4 1516.55   71.59
  -3  -2   4 1434.96   72.79
   3   2  -4 1502.85  100.29
  -3   2   4 1612.14   93.09
  -2  -2   4 2053.19   84.89
   2   2  -4 2121.89  114.59
  -2   2   4 2282.07  104.19
  -1  -2   4  466.45   39.60
   1  -2  -4  454.85   37.60
   1   2  -4  408.66   60.69
   0  -2  -4  775.02   37.90
   0  -2   4  736.23   50.39
   0   2  -4  586.44   71.79
  -1  -2  -4  281.27   31.50
   1  -2   4  298.57   44.80
  -1   2  -4  287.77   53.39
   1   2   4  234.78   91.19
  -2  -2  -4  268.77   29.30
   2  -2   4  193.58   41.30
  -2   2  -4  142.69   44.20
  -2   2  -4  164.58   58.89
   2   2   4  179.68   69.09
  -3  -2  -4  651.63   44.80
   3  -2   4  586.54   68.09
  -3   2  -4  574.14   71.19
   3   2   4  505.55  100.39
  -3   2  -4  616.04   93.89
   4  -2   4  257.17   59.99
  -4  -2  -4  286.07   37.00
   4   2   4  319.87   99.39
  -4   2  -4  309.67   63.69
   5  -2   4  165.38   69.39
  -5  -2  -4  182.78   36.10
  -5   2  -4  192.58   62.69
  -6  -2  -4   72.69   41.50
   6  -2   4  -72.29   75.39
  -6   2  -4  115.09   75.99
  -7  -2  -4  119.29   60.29
   7  -2   4  119.89  112.19
  -7   2  -4   86.89   97.19
  -6  -3   4  457.55   54.99
  -6   3   4  263.77   90.29
   6   3  -4  561.34  125.69
  -5  -3   4  -16.80   33.90
   5   3  -4  -90.89   76.69
  -5   3   4  -54.59   70.59
  -4  -3   4  329.87   47.30
   4   3  -4  416.96   85.29
  -4   3   4  459.05   80.69
  -3  -3   4   37.30   31.50
  -3  -3   4   54.49   39.20
   3   3  -4  -32.10   52.49
  -3   3   4   -8.00   58.99
  -2  -3   4  168.08   41.60
  -2  -3   4  197.58   42.50
  -2   3   4  107.99   55.49
   2   3  -4  135.19   64.79
  -1  -3   4  535.45   50.99
   1   3  -4  506.85   83.99
   0  -3  -4   70.49   19.30
   0   3  -4  149.09   62.79
   0   3   4   70.49   86.39
   1  -3   4 1808.52   89.29
  -1  -3  -4 1807.82   71.99
   1   3   4 1518.15  181.58
  -1   3  -4 1678.43  137.69
   2  -3   4   26.40   37.80
  -2  -3  -4   -3.40   20.50
   2   3   4  199.58   98.09
  -2   3  -4  -16.70   75.39
  -3  -3  -4  399.56   49.70
   3  -3   4  464.85   74.09
  -3   3  -4  496.65   82.09
  -3   3  -4  293.07  111.89
   3   3   4  380.36  117.29
   4  -3   4  573.84   95.99
  -4  -3  -4  475.35   60.39
  -4   3  -4  494.15   85.69
  -4   3  -4  798.92  178.08
   4   3   4  383.86  142.29
  -5  -3  -4    9.40   38.20
   5  -3   4  -36.40   80.59
  -5   3  -4   87.79   76.99
  -6  -3  -4  616.14   71.19
   6  -3   4  504.75  118.09
  -6   3  -4  395.56  109.39
  -4  -4   4  180.18   51.59
   4   4  -4  147.99  119.69
  -4   4   4  -51.99  118.59
  -3  -4   4  694.93   84.59
   3   4  -4  613.54  132.29
  -3   4   4  377.46  108.79
  -2  -4   4  557.94   73.79
  -2  -4   4  626.44   84.69
   2   4  -4  606.24  135.59
  -1  -4   4  254.57   50.99
  -1  -4   4   49.90   48.40
   1   4  -4  128.99  106.19
   0  -4  -4   83.59   30.00
   0  -4   4  138.19   50.19
   0   4  -4  -54.29  102.19
   0   4   4  141.89  127.99
   1  -4   4   64.29   51.59
  -1  -4  -4  137.09   34.70
   1   4   4   74.09  135.29
  -1   4  -4  -36.60  119.59
  -2  -4  -4   73.09   36.20
   2  -4   4  156.08   58.09
  -2   4  -4  144.79  143.09
   2   4   4   85.09  141.29
  -3  -4  -4  219.98   43.90
   3  -4   4  247.38   77.89
  -3   4  -4  685.33  193.18
   3   4   4  264.27  185.58
   4  -4   4  112.99   85.69
  -4  -4  -4  234.98   55.29
   4   4   4  162.38  187.18
   8   0  -5  453.55  112.39
  -8   0   5  455.25   78.89
   7   0  -5  256.47   77.49
  -7   0   5  206.68   52.49
  -6   0   5 1042.30   75.99
  -3   0   5 1919.41   84.69
  -2   0   5 2704.63   97.39
  -1   0   5  857.11   50.49
  -1   0   5  943.51   46.00
   0   0   5 2398.86   86.69
  -1   0  -5  417.96   45.10
   1   0   5  491.95   38.70
  -2   0  -5  437.46   49.99
   2   0   5  419.26   50.29
   3   0   5 1750.52   94.99
  -3   0  -5 1651.43   87.89
  -3   0  -5 1582.84   79.79
  -4   0  -5   69.39   43.10
  -4   0  -5   30.00   31.80
   4   0   5  100.89   48.30
  -5   0  -5  568.24   77.09
  -5   0  -5  538.55   80.79
   5   0   5  619.24   88.49
   6   0   5   21.30   79.99
  -6   0  -5  -73.99   52.79
  -6   0  -5   85.69   64.29
  -7   0  -5  -99.19   73.39
   7   0   5   15.90  101.79
  -7   0  -5  143.69   88.39
  -8  -1   5   51.99   60.89
   8   1  -5   -1.30   94.99
  -8   1   5  111.09   70.49
  -7  -1   5   36.60   43.70
  -7  -1   5   93.59   41.60
   7   1  -5  117.49   69.39
  -7   1   5   74.19   53.49
  -6  -1   5  889.01   59.79
   6   1  -5  918.31   99.99
  -6   1   5  799.22   79.99
  -5  -1   5  106.39   24.70
   5   1  -5  155.08   48.20
  -5   1   5  127.59   34.70
  -4  -1   5 1514.95   67.79
  -4  -1   5 1313.67   70.79
   4   1  -5 1407.76   95.99
  -4   1   5 1430.86   75.39
  -3  -1   5   23.20   22.70
  -3   1   5   19.20   24.30
  -2  -1   5  200.28   30.50
  -2   1   5  156.98   26.60
  -2   1   5  202.58   35.30
  -1  -1   5   96.09   24.70
  -1   1   5  129.59   25.10
   0  -1   5   37.90   20.70
   0  -1  -5   50.89   28.40
   0  -1  -5   65.99   17.90
   0   1   5   48.80   17.30
  -1  -1  -5 1748.43   69.89
  -1  -1  -5 1650.53   90.19
   1  -1   5 1713.83   81.99
  -1   1  -5 1898.01   94.89
   1   1   5 1836.72   67.19
  -2  -1  -5   29.00   20.40
   2  -1   5   37.20   26.50
  -2   1  -5   25.70   29.10
   2   1   5  -22.50   22.70
  -2   1  -5   48.40   33.40
  -3  -1  -5 1527.95   71.99
   3  -1   5 1458.45   92.09
  -3   1  -5 1682.63   89.49
   3   1   5 1574.34   81.19
  -4  -1  -5  224.58   35.00
   4  -1   5  254.57   57.59
  -4   1  -5  150.48   49.10
   4   1   5  260.47   58.89
  -5  -1  -5   39.50   36.10
   5  -1   5  106.29   61.09
   5   1   5  -41.90   57.79
  -5   1  -5  -35.70   49.90
  -6  -1  -5  878.11   95.19
   6  -1   5  704.63  115.59
  -6   1  -5 1070.69  119.59
   6   1   5  801.42  115.29
  -7  -1  -5  314.37   71.79
   7  -1   5   58.89   97.99
  -7   1  -5  130.29   88.69
   7   1   5  182.78  107.09
  -7  -2   5  192.28   48.80
   7   2  -5  216.98   90.19
  -6  -2   5  748.03   67.49
   6   2  -5  773.62  112.19
  -6   2   5  829.52   99.59
  -5  -2   5  366.46   42.40
   5   2  -5  407.26   70.39
  -5   2   5  349.87   63.79
  -4  -2   5   27.70   31.70
  -4  -2   5   -5.80   24.80
   4   2  -5  -25.00   40.30
  -4   2   5   22.80   36.80
  -3  -2   5 1084.09   66.59
  -3  -2   5 1116.49   60.99
  -3   2   5  820.32   75.09
   3   2  -5 1101.69   90.29
  -2  -2   5 1743.53   78.09
  -2   2   5 1677.03   91.79
   2   2  -5 1661.73  107.39
  -1  -2   5  764.92   52.29
   1   2  -5  794.32   73.59
   0  -2  -5 1622.84   64.69
   0  -2   5 1783.32   82.49
   0   2  -5 1690.13  107.89
  -1  -2  -5  134.69   22.90
   1  -2   5  136.19   31.20
  -1   2  -5  150.18   50.59
  -2  -2  -5  168.58   24.70
   2  -2   5  251.97   45.00
  -2   2  -5  202.78   57.59
  -2   2  -5  128.19   45.50
  -3  -2  -5 1158.08   61.89
   3  -2   5 1100.69   85.39
  -3   2  -5  972.30  120.69
  -3   2  -5 1193.08   91.59
   4  -2   5   89.29   59.39
  -4  -2  -5   -9.60   26.20
  -4   2  -5   31.90   51.79
  -5  -2  -5  330.37   48.40
   5  -2   5  508.65   92.89
  -5   2  -5  396.26   80.09
   6  -2   5  -61.89   79.29
  -6  -2  -5    2.90   47.20
  -6   2  -5   93.49   82.39
  -6  -3   5  533.25   61.69
   6   3  -5  471.25  113.39
  -6   3   5  388.16  105.69
  -5  -3   5   17.60   37.60
  -5   3   5  -68.59   76.59
   5   3  -5   35.50   76.89
  -4  -3   5  583.74   68.09
  -4  -3   5  706.63   72.49
   4   3  -5  538.45   96.49
  -4   3   5  751.72  100.39
  -3  -3   5    7.20   36.50
  -3  -3   5   66.99   39.80
   3   3  -5  -54.09   55.39
  -3   3   5  -25.00   64.09
  -2  -3   5   54.59   33.50
   2   3  -5   66.19   58.29
  -1  -3   5   45.30   30.00
   1   3  -5   96.69   57.99
   0  -3   5   -1.50   29.80
   0  -3  -5   -4.80   19.10
   0   3  -5  -91.69   54.19
   1  -3   5  846.02   65.89
  -1  -3  -5  902.01   52.29
  -1   3  -5  750.82  112.49
   2  -3   5   37.70   38.20
  -2  -3  -5  -12.30   23.80
  -2   3  -5 -169.38   74.99
  -3  -3  -5  602.14   59.19
   3  -3   5  770.62   83.99
  -3   3  -5  660.83  124.69
  -3   3  -5  693.83   98.09
  -4  -3  -5  105.39   37.40
   4  -3   5  123.39   72.99
  -4   3  -5  133.59   76.79
   5  -3   5   59.19   80.59
  -5  -3  -5   64.49   44.30
  -5   3  -5  -66.79   88.59
  -4  -4   5  -19.10   52.39
   4   4  -5   35.90  109.79
  -4   4   5   98.49  117.09
  -3  -4   5  384.06   65.29
   3   4  -5  553.14  131.79
  -2  -4   5  562.54   77.59
  -2  -4   5  597.24   73.19
   2   4  -5  645.54  134.09
  -1  -4   5  237.18   57.09
  -1  -4   5  269.97   55.59
   1   4  -5  152.38  111.39
   0  -4   5  507.25   71.19
   0  -4  -5  405.86   44.70
   0   4  -5  573.74  136.09
  -1  -4  -5  -16.90   36.20
   1  -4   5  -57.39   51.29
  -1   4  -5 -154.78  115.69
   2  -4   5   11.70   59.29
  -2  -4  -5   68.29   41.10
  -2   4  -5   83.09  150.18
  -3  -4  -5  335.87   54.89
   3  -4   5  426.96   84.49
  -3   4  -5  247.68  193.18
  -8   0   6  132.99   62.19
   8   0  -6  -53.69   96.89
  -7   0   6  245.98   57.89
  -6   0   6  403.96   59.19
  -4   0   6  276.67   41.10
  -3   0   6  634.44   46.50
  -2   0   6 1006.70   55.19
  -2   0   6  846.02   57.79
  -1   0   6 1913.51   76.89
   0   0   6 5197.88  165.38
  -1   0  -6  266.07   36.50
   1   0   6  328.07   39.20
   2   0   6  996.20   64.59
  -2   0  -6  994.30   61.39
  -3   0  -6 1150.48   74.59
   3   0   6 1229.28   76.19
  -4   0  -6  -16.10   45.20
   4   0   6   20.60   41.80
  -4   0  -6  -25.70   35.20
  -5   0  -6 1234.28  100.79
   5   0   6 1350.46  108.99
  -5   0  -6 1132.29  101.09
   6   0   6  108.49   81.99
  -6   0  -6   -4.70   60.89
  -6   0  -6   -7.40   69.99
   7   0   6   77.49  102.79
  -7   0  -6 -132.09   80.49
  -7   0  -6  -47.60   94.69
  -8  -1   6   43.60   61.09
   8   1  -6   27.00  103.59
  -8   1   6  -65.89   66.29
  -7  -1   6  394.26   64.99
  -7   1   6  471.25   76.79
   7   1  -6  417.46   92.39
  -6  -1   6  628.94   59.39
  -6   1   6  673.13   75.49
   6   1  -6  556.14   91.59
  -5  -1   6   67.59   25.70
  -5   1   6   89.49   36.10
   5   1  -6   89.39   54.59
  -4  -1   6 1837.72   87.99
  -4  -1   6 1757.82   82.09
  -4   1   6 1688.13   86.59
  -3  -1   6  439.76   39.40
  -3   1   6  393.56   43.00
  -3   1   6  473.25   48.20
  -2  -1   6  775.32   50.59
  -2   1   6  706.93   54.59
  -1  -1   6  388.16   38.30
  -1   1   6  451.55   40.60
   0  -1  -6   32.10   22.50
   0  -1   6  -12.70   20.20
   0   1   6   -4.70   21.60
  -1  -1  -6  817.02   53.49
   1  -1   6  760.12   51.19
   1   1   6  771.52   46.60
   2  -1   6   93.59   32.40
  -2  -1  -6   93.99   22.70
  -2   1  -6  109.99   44.30
   2   1   6   80.49   29.90
   3  -1   6  867.91   73.39
  -3  -1  -6  856.31   61.99
  -3   1  -6  890.91   76.19
   3   1   6  888.21   69.29
   4  -1   6   87.69   45.60
  -4  -1  -6   88.39   34.10
  -4   1  -6   68.09   49.60
   4   1   6   19.70   42.20
   5  -1   6  172.88   71.09
  -5  -1  -6  104.49   45.10
   5   1   6  222.38   65.99
  -5   1  -6    7.90   60.89
   6  -1   6  188.68   89.79
  -6  -1  -6  336.57   65.69
   6   1   6  435.26   89.19
  -6   1  -6  353.06   82.49
  -7  -2   6  233.48   54.69
  -7   2   6  317.77   81.79
   7   2  -6  384.36   97.09
  -6  -2   6  388.86   52.19
  -6   2   6  438.36   74.69
   6   2  -6  306.07   88.59
  -5  -2   6  165.68   39.60
  -5  -2   6  191.38   48.40
  -5   2   6  193.58   54.79
   5   2  -6  217.48   67.69
  -4  -2   6  168.38   40.90
  -4  -2   6  278.87   46.10
  -4   2   6  151.88   45.20
   4   2  -6  112.39   51.79
  -3  -2   6  463.65   47.30
   3   2  -6  525.85   78.29
  -3   2   6  575.64   62.99
  -2  -2   6  671.63   47.20
   2   2  -6  662.93   78.79
  -1  -2   6 1045.50   58.59
   1   2  -6  964.80   89.49
   0  -2  -6 2109.19   98.49
   0  -2  -6 2326.67   86.99
   0  -2   6 2453.25  101.59
   0   2   6 2428.16   88.99
   0   2  -6 2435.56  126.49
  -1  -2  -6   89.39   21.00
   1  -2   6   64.79   30.20
  -1   2  -6  122.79   53.29
  -2  -2  -6  644.54   48.90
   2  -2   6  646.24   64.59
  -2   2  -6  646.14   88.29
  -3  -2  -6  705.23   58.39
   3  -2   6  759.02   76.39
  -3   2  -6  694.23  116.19
  -3   2  -6  647.44   91.19
   4  -2   6   98.39   56.19
  -4  -2  -6   37.60   32.10
  -4   2  -6   22.30   59.79
  -5  -2  -6  814.92   84.79
   5  -2   6  903.21  106.39
  -5   2  -6  604.94   97.69
   6  -2   6  -55.29   87.89
  -6  -2  -6   20.10   58.19
  -6  -3   6  262.77   55.59
   6   3  -6  278.77  108.69
  -6   3   6  168.78  100.79
  -5  -3   6   60.79   42.90
  -5   3   6  123.29   88.89
   5   3  -6   51.49   73.19
  -4  -3   6  915.61   80.89
  -4  -3   6 1078.39   87.99
   4   3  -6 1034.90  130.29
  -4   3   6  920.71  133.29
  -3  -3   6  300.37   46.80
  -3  -3   6  264.27   53.49
   3   3  -6  188.98   74.39
  -3   3   6  309.67   79.69
  -2  -3   6  243.58   42.10
   2   3  -6  259.57   78.49
  -1  -3   6   68.39   34.10
   1   3  -6  106.79   59.99
   0  -3   6    2.80   31.50
   0  -3  -6   15.20   24.00
   0   3  -6    2.90   62.99
   1  -3   6  357.36   54.79
  -1  -3  -6  236.08   34.00
  -1   3  -6  243.18   78.19
  -2  -3  -6   60.49   29.90
   2  -3   6   15.70   42.00
  -2   3  -6   55.59   79.09
   3  -3   6  455.05   80.79
  -3  -3  -6  306.67   44.10
  -3   3  -6  477.85  120.29
  -4  -3  -6  -28.70   40.70
   4  -3   6   27.50   66.69
  -4   3  -6  -31.30   82.59
   5  -3   6   58.09   89.89
  -5  -3  -6  -55.59   52.09
  -5   3  -6   77.69  100.69
  -4  -4   6   21.40   59.29
   4   4  -6  183.28  132.39
  -4   4   6   52.39  132.49
  -3  -4   6   70.69   59.99
   3   4  -6    9.10  108.39
  -2  -4   6  164.48   61.29
  -2  -4   6  264.97   63.29
   2   4  -6  146.19  119.89
  -1  -4   6  243.68   57.89
   1   4  -6  335.37  126.19
   0  -4   6  608.94   77.29
   0  -4  -6  743.93   74.09
   0   4  -6  547.45  136.39
  -1  -4  -6  -11.50   41.90
   1  -4   6   50.19   57.59
  -1   4  -6 -115.29  130.99
   2  -4   6  224.28   66.79
  -2  -4  -6  114.99   46.50
  -2   4  -6  232.38  161.88
   3  -4   6  204.08   82.59
  -3  -4  -6   63.49   51.99
  -3   4  -6  381.56  207.38
  -8   0   7   71.99   62.69
   8   0  -7  -67.99  112.09
  -7   0   7  317.77   62.29
  -6   0   7   33.70   37.00
  -4   0   7  112.89   34.50
  -3   0   7  266.77   37.70
  -2   0   7  143.89   26.50
  -1   0   7  159.68   29.80
   0   0   7 1988.00   83.89
   1   0   7   65.89   27.50
  -2   0  -7 1571.64   83.69
   2   0   7 1655.13   79.49
   3   0   7  226.68   43.60
  -3   0  -7  208.58   41.70
  -4   0  -7  173.28   47.20
   4   0   7  189.38   54.59
  -5   0  -7 1302.27  110.09
   5   0   7 1312.87  109.69
   6   0   7 -116.79   79.09
  -6   0  -7  -69.29   69.09
  -8  -1   7    4.20   61.59
   8   1  -7  143.89  110.19
  -8   1   7  -88.29   72.69
   7   1  -7  791.22  119.79
  -7   1   7  745.73   95.79
  -6  -1   7  267.17   41.90
   6   1  -7  270.17   83.09
  -5  -1   7  -30.30   36.70
  -5  -1   7    4.10   30.90
  -5   1   7   21.40   34.40
  -4  -1   7 1558.34   84.19
  -4  -1   7 1714.43   77.99
  -4   1   7 1575.94   85.39
  -3  -1   7  742.83   52.89
  -3   1   7  695.23   56.29
  -3   1   7  796.62   57.99
  -2  -1   7 1273.37   66.29
  -2   1   7 1326.37   71.39
  -1  -1   7  740.13   47.20
  -1   1   7  745.83   52.69
   0  -1  -7   57.89   28.10
   0  -1   7   89.99   23.30
   0   1   7   82.39   27.50
  -1  -1  -7  362.46   44.90
   1  -1   7  335.57   42.30
   1   1   7  403.56   42.40
   2  -1   7  833.42   64.29
  -2  -1  -7  912.41   63.49
   2   1   7  918.01   60.59
  -2   1  -7  767.02   85.09
   3  -1   7  427.46   65.09
  -3  -1  -7  293.17   43.20
   3   1   7  374.46   50.09
   4  -1   7  267.67   61.09
  -4  -1  -7   88.59   41.50
  -4   1  -7  122.69   58.69
   4   1   7  178.58   47.90
   5  -1   7  106.19   67.59
  -5  -1  -7   44.60   50.99
  -5   1  -7   13.80   69.99
   5   1   7  129.79   65.29
   6  -1   7   28.40   79.79
  -6  -1  -7   30.30   67.09
   6   1   7  -79.99   82.39
  -6   1  -7  172.78   90.59
  -7  -2   7  403.26   63.29
   7   2  -7  357.36  111.19
  -7   2   7  395.56   86.69
  -6  -2   7  -49.50   43.30
   6   2  -7  -16.90   74.59
  -6   2   7   -9.80   61.89
  -5  -2   7  400.56   51.89
  -5  -2   7  530.25   67.89
  -5   2   7  465.55   73.69
   5   2  -7  441.86   89.59
  -4  -2   7   95.69   36.80
  -4  -2   7   63.29   36.80
   4   2  -7  102.49   57.69
  -4   2   7  122.29   47.30
  -3  -2   7  145.39   36.60
  -3   2   7   76.99   40.10
   3   2  -7   84.09   53.79
  -2  -2   7  -14.00   26.30
   2   2  -7    9.50   45.80
  -1  -2   7  187.68   33.00
   1   2  -7  130.99   52.49
  -1   2   7  180.08   44.10
   0  -2  -7 1340.27   70.39
   0  -2   7 1345.87   75.29
   0   2  -7 1416.96  106.89
   0   2   7 1386.16   74.69
   1  -2   7  148.49   39.60
  -1  -2  -7  176.08   30.60
   1   2   7  176.58   40.60
  -1   2  -7  141.29   48.70
  -2  -2  -7 1021.80   66.19
   2  -2   7 1048.80   78.39
  -2   2  -7  992.50   99.09
   3  -2   7  195.98   55.59
  -3  -2  -7  107.89   36.50
  -3   2  -7  149.59   79.29
  -4  -2  -7   78.89   41.50
   4  -2   7   36.10   62.89
  -4   2  -7   49.90   68.19
   5  -2   7  897.31  114.09
  -5  -2  -7  937.71  102.89
  -6  -3   7   -9.50   53.59
   6   3  -7  166.58  105.29
  -6   3   7  -23.30  112.19
  -5  -3   7   82.79   64.29
  -5  -3   7   10.50   49.20
  -5   3   7  -29.20   95.99
   5   3  -7   47.70   85.69
  -4  -3   7  901.21   81.89
  -4  -3   7  889.71   93.19
  -4   3   7 1004.90  144.19
   4   3  -7  703.33  114.99
  -3  -3   7  291.87   54.19
  -3  -3   7  345.47   60.29
   3   3  -7  456.85   95.19
  -2  -3   7  598.14   60.29
   2   3  -7  583.04  102.19
  -1  -3   7  316.77   53.29
   1   3  -7  304.67   78.39
   0  -3  -7   -8.70   30.10
   0  -3   7  -64.99   39.50
   0   3  -7   -8.60   68.89
   1  -3   7  133.09   47.50
  -1  -3  -7  167.08   36.20
  -1   3  -7  255.87   83.69
   2  -3   7  283.67   57.79
  -2  -3  -7  248.98   41.20
  -2   3  -7  266.87   98.99
  -3  -3  -7  213.08   47.00
   3  -3   7   41.90   52.89
  -3   3  -7  113.99  118.79
   4  -3   7  116.29   73.59
  -4  -3  -7   61.49   51.29
  -3  -4   7  159.28   67.79
  -3  -4   7   33.10   74.99
   3   4  -7  108.49  129.19
  -2  -4   7    3.60   64.39
  -2  -4   7    7.30   65.29
   2   4  -7  -19.70  117.19
  -1  -4   7  -32.50   57.29
   1   4  -7   64.09  122.29
   0  -4   7  265.37   61.89
   0   4  -7  435.36  147.39
  -1  -4  -7  100.79   51.59
   1  -4   7   90.79   63.09
  -1   4  -7  143.69  145.29
  -2  -4  -7  311.77   61.79
   2  -4   7  213.78   75.89
  -2   4  -7  257.17  169.78
   8   0  -8  485.05  134.39
  -8   0   8  221.68   73.79
  -7   0   8  332.67   67.19
  -6   0   8   48.70   39.30
  -5   0   8 1121.09   79.49
  -4   0   8   35.50   37.20
  -3   0   8  284.97   41.10
  -2   0   8   45.70   24.40
  -1   0   8   74.79   23.00
   0   0   8  998.20   56.49
   1   0   8  169.08   32.50
   2   0   8  982.40   65.89
   3   0   8   18.20   34.40
  -3   0  -8   45.60   38.60
   4   0   8  224.18   55.99
  -4   0  -8  246.48   52.99
  -5   0  -8  441.26   68.49
   5   0   8  505.45   84.69
   6   0   8  -82.29   92.09
  -7   1   8  454.35   80.49
   7   1  -8  715.23  128.29
  -6   1   8   60.69   48.80
   6   1  -8  196.88   88.99
  -5  -1   8  357.06   45.10
  -5  -1   8  387.56   59.99
  -5   1   8  214.88   51.39
  -4  -1   8  579.94   56.99
  -4   1   8  497.25   56.99
  -3  -1   8  181.28   36.90
  -3   1   8  187.98   43.70
  -2  -1   8 1800.02   86.29
  -2   1   8 1858.21   84.59
  -1  -1   8 1281.87   67.89
  -1   1   8 1256.17   65.19
   0  -1  -8  478.05   59.49
   0  -1   8  413.36   43.20
   0   1   8  471.35   48.00
  -1  -1  -8  640.54   61.49
   1  -1   8  661.23   56.39
   1   1   8  680.73   53.19
  -2  -1  -8  467.35   63.89
   2  -1   8  515.25   56.99
  -2   1  -8  396.46   73.49
   2   1   8  563.24   49.20
  -3  -1  -8  152.08   43.10
   3  -1   8   92.99   46.10
   3   1   8  216.68   43.40
  -4  -1  -8  502.45   67.99
   4  -1   8  699.53   90.79
   4   1   8  806.12   77.79
   5  -1   8  -34.30   68.29
  -5  -1  -8   40.20   58.99
   5   1   8   94.39   68.19
  -5   1  -8  -29.40   87.19
  -6  -1  -8   80.89   81.49
   6  -1   8  154.88   96.59
  -6   1  -8   47.60  101.69
   6   1   8    8.70   88.09
  -7  -2   8  285.37   64.99
   7   2  -8  459.95  121.39
  -7   2   8  196.18   85.59
  -6  -2   8   15.50   50.79
   6   2  -8  -17.50   87.19
  -6   2   8  116.69   67.09
  -5  -2   8  939.71   85.59
  -5  -2   8  736.93   82.29
   5   2  -8  802.22  126.09
  -5   2   8  799.42   96.39
  -4  -2   8   10.30   41.30
  -4  -2   8  -13.10   38.50
  -4   2   8   30.10   47.00
   4   2  -8  -52.29   63.09
  -3  -2   8  260.17   42.90
   3   2  -8  298.47   74.49
  -2  -2   8   -4.60   29.80
  -1  -2   8   48.80   31.30
  -1   2   8   -2.60   47.30
   1   2  -8  -37.70   56.69
   0  -2   8  506.75   51.09
   0  -2  -8  476.25   57.49
   0   2  -8  321.77   69.79
   0   2   8  393.36   64.49
   1  -2   8   90.09   40.50
  -1  -2  -8   41.50   33.10
   1   2   8   38.60   41.70
  -1   2  -8  123.39   58.69
  -2  -2  -8  700.53   70.29
   2  -2   8  812.72   75.99
   2   2   8  782.32   72.49
  -2   2  -8  595.44   92.39
  -3  -2  -8   22.10   42.20
   3  -2   8  -38.10   42.70
   3   2   8  -14.50   52.59
  -3   2  -8    9.20   88.59
  -4  -2  -8  137.49   52.49
   4  -2   8  185.48   68.49
   5  -2   8  486.35   96.49
  -5  -2  -8  279.67   72.99
  -5  -3   8  155.18   60.19
  -5  -3   8  128.79   70.79
  -5   3   8  282.47  112.29
   5   3  -8  219.28  105.09
  -4  -3   8  256.37   63.59
  -4  -3   8  260.07   61.79
   4   3  -8  207.68   87.49
  -4   3   8  171.08   97.99
   3   3  -8   83.89   77.69
  -2  -3   8  810.72   71.19
   2   3  -8  854.81  134.19
  -1  -3   8  478.85   64.09
   1   3  -8  472.55  102.49
   0  -3  -8   70.99   40.20
   0  -3   8  145.19   45.10
   0   3  -8  151.38   82.79
   1  -3   8  236.48   56.19
  -1  -3  -8  242.58   45.80
  -1   3  -8  265.47   91.69
   2  -3   8  247.38   61.69
  -2  -3  -8  222.88   51.29
  -2   3  -8  308.07  103.79
  -3  -3  -8  -13.30   51.29
   3  -3   8   10.20   64.79
  -3   3  -8   97.49  159.48
  -4  -3  -8  224.48   70.89
   4  -3   8  331.97   92.49
  -2  -4   8   83.99   72.29
   2   4  -8  -46.50  128.69
  -1  -4   8   25.20   61.49
   1   4  -8  -22.20  131.39
   0  -4   8   79.29   59.99
   0   4  -8   84.29  141.89
  -1  -4  -8  -20.00   63.79
   1  -4   8  -33.50   64.69
  -1   4  -8 -101.79  157.38
  -7   0   9   65.89   55.19
  -5   0   9 1108.59   84.79
  -4   0   9   67.29   43.00
  -3   0   9  984.40   68.19
  -2   0   9  122.09   31.80
  -1   0   9    8.30   24.40
   0   0   9  337.87   41.10
   1   0   9  129.39   31.90
   2   0   9  686.13   59.29
   3   0   9   21.50   43.90
   4   0   9  173.68   57.39
   5   0   9   35.90   70.39
  -7   1   9  317.87   73.39
   7   1  -9  149.29  114.49
   6   1  -9  208.28  102.69
  -6   1   9   64.79   54.29
  -5  -1   9  345.07   66.89
  -5  -1   9  308.27   51.99
  -5   1   9  217.58   54.49
  -4  -1   9  217.08   47.30
  -4   1   9  107.99   38.50
  -4   1   9  183.48   49.50
  -3  -1   9   -7.00   30.50
  -3   1   9  -14.60   41.40
  -2  -1   9  578.84   52.89
  -2   1   9  637.34   56.39
  -1  -1   9  717.83   52.79
  -1   1   9  705.73   55.59
   0  -1   9  516.65   50.69
   0   1   9  519.05   49.20
  -1  -1  -9  785.62   75.79
   1  -1   9  730.93   62.39
   1   1   9  854.31   55.89
   2  -1   9  153.48   47.20
  -2  -1  -9  107.49   44.80
  -2   1  -9   68.89   55.59
   2   1   9  122.49   36.30
  -3  -1  -9  227.98   56.19
   3  -1   9  304.67   57.19
   3   1   9  290.67   50.99
  -3   1  -9  178.28   67.19
  -4  -1  -9  495.75   72.49
   4  -1   9  730.53   94.99
   4   1   9  874.31   85.49
   5  -1   9   -0.30   77.19
  -5  -1  -9   71.29   71.59
   5   1   9  -46.90   73.39
  -6  -2   9  133.49   62.39
   6   2  -9   27.10   98.99
  -6   2   9   43.70   73.29
  -5  -2   9  793.82   91.19
  -5  -2   9  859.61   98.89
  -5   2   9  895.41  105.49
   5   2  -9  748.83  122.89
  -4  -2   9  -51.79   41.80
   4   2  -9   16.40   71.89
  -4   2   9  -18.20   53.89
  -3  -2   9  679.63   65.09
   3   2  -9  741.73  115.29
  -2  -2   9   96.29   35.90
   2   2  -9   92.89   66.19
  -1  -2   9  -12.30   30.40
  -1   2   9   48.20   47.80
   1   2  -9  -15.70   62.49
   0  -2   9  377.36   53.49
   0  -2  -9  193.18   41.50
   0   2  -9  240.68   74.29
   0   2   9  246.38   53.99
   1  -2   9   61.89   40.30
  -1  -2  -9   48.80   41.40
   1   2   9   51.19   50.99
  -1   2  -9  106.89   66.49
  -2  -2  -9  350.16   54.29
  -2   2  -9  239.88   68.99
   2   2   9  268.37   64.19
   3  -2   9    9.20   55.69
  -3  -2  -9   33.60   53.39
   3   2   9   -3.90   67.89
  -3   2  -9    0.00   82.49
   4  -2   9   93.59   69.19
  -4  -2  -9  123.19   65.89
  -5  -3   9  150.38   68.49
  -5  -3   9   63.99   74.89
  -5   3   9  324.97  127.39
   5   3  -9  201.38  112.89
  -4  -3   9   52.89   60.29
  -4  -3   9   69.19   63.29
   4   3  -9   72.29   91.69
  -3  -3   9   60.59   52.09
   3   3  -9   79.39   81.49
  -2  -3   9  241.18   53.79
   2   3  -9  247.48   90.69
  -1  -3   9  227.88   45.90
   1   3  -9  360.26  107.29
   0  -3   9  248.48   52.89
   0  -3  -9  297.37   57.89
   0   3  -9  362.06   98.49
  -1  -3  -9  444.76   63.19
   1  -3   9  453.55   75.49
  -1   3  -9  400.46  109.49
  -2  -3  -9   58.49   58.49
   2  -3   9   77.29   66.59
  -2   3  -9 -143.59  109.89
  -3  -3  -9   90.19   70.29
   3  -3   9  120.79   76.89
  -7   0  10  -11.40   61.09
  -5   0  10  568.54   77.69
  -4   0  10  -69.69   44.20
  -3   0  10 1364.66   83.69
  -2   0  10  207.28   41.30
  -1   0  10  302.07   43.60
   0   0  10  474.35   48.80
   1   0  10  102.89   37.90
   2   0  10  403.86   60.59
   3   0  10   94.89   49.60
   4   0  10  122.29   65.09
   5   0  10  161.18   83.99
   7   1 -10  -84.99  118.29
  -7   1  10  109.79   75.49
  -6   1  10  274.07   65.39
   6   1 -10  409.96  126.39
  -5  -1  10   33.60   56.39
  -5  -1  10  160.18   54.69
  -5   1  10   80.19   53.99
  -4  -1  10  125.99   46.90
  -4   1  10  124.49   52.99
  -4   1  10  152.58   46.80
  -3  -1  10   48.70   38.30
  -3   1  10   26.10   45.80
  -2  -1  10  111.99   33.60
  -2   1  10  160.48   42.30
  -1  -1  10  197.18   37.90
  -1   1  10  352.06   51.99
   0  -1  10  701.73   61.29
   0   1  10  582.54   58.99
   1  -1  10  538.85   62.09
   1   1  10  556.84   57.39
  -2  -1 -10   23.20   50.29
   2  -1  10    5.50   39.60
  -2   1 -10  130.09   71.49
   2   1  10   35.90   40.30
   3  -1  10  269.47   65.39
  -3  -1 -10  184.08   62.59
   3   1  10  243.08   56.89
  -3   1 -10   93.89   82.59
  -4  -1 -10  350.26   76.99
   4  -1  10  222.78   70.59
   4   1  10  430.56   78.09
  -6  -2  10  222.38   73.09
  -6  -2  10   55.79   72.89
  -6   2  10  213.48   89.09
   6   2 -10  127.89  114.79
  -5  -2  10  428.96   71.69
  -5  -2  10  330.97   71.49
   5   2 -10  357.46  106.29
  -5   2  10  180.68   76.79
  -4  -2  10   24.10   51.29
   4   2 -10 -161.18   74.39
  -4   2  10   16.30   63.79
  -3  -2  10 1023.80   79.69
   3   2 -10 1028.70  138.79
  -2  -2  10   82.79   38.30
   2   2 -10  143.29   78.69
  -2   2  10  243.48   61.49
  -1  -2  10  184.48   41.50
  -1   2  10  168.18   62.49
   1   2 -10  166.08   79.29
   0  -2  10  195.38   48.70
   0  -2 -10  228.68   52.99
   0   2 -10  266.67   80.69
   0   2  10  263.37   54.99
  -1  -2 -10   29.10   54.29
   1  -2  10  142.99   49.20
   1   2  10   77.49   54.39
  -1   2 -10  115.19   75.19
   2  -2  10  232.18   51.99
  -2  -2 -10  213.58   64.09
   2   2  10  175.88   61.49
  -2   2 -10  321.27   83.29
   3  -2  10   95.69   59.79
  -3  -2 -10   85.29   67.09
  -4  -2 -10   98.99   81.69
   4  -2  10  102.59   84.19
  -4  -3  10   71.49   64.79
  -4  -3  10   26.80   70.39
   4   3 -10  137.69  103.19
  -3  -3  10   60.29   61.09
   3   3 -10   77.49   93.39
  -2  -3  10  123.89   54.19
   2   3 -10  175.18   93.59
  -1  -3  10   78.79   48.30
   1   3 -10  122.49  100.19
   0  -3  10  183.48   57.79
   0   3 -10   56.79  100.09
   1  -3  10  213.48   65.39
  -1  -3 -10  385.06   77.09
  -1   3 -10   -0.90  111.19
  -2  -3 -10  146.99   78.19
   2  -3  10   52.49   69.19
  -2   3 -10    9.50  135.69
  -5   0  11  156.18   60.79
  -4   0  11  113.79   57.79
  -3   0  11  898.31   75.19
  -2   0  11  168.38   41.40
  -1   0  11  562.24   59.39
   0   0  11  523.15   56.39
   1   0  11   34.70   41.20
   2   0  11  259.27   53.09
   3   0  11  340.97   64.69
   4   0  11   10.80   71.09
  -6  -1  11  330.27   80.69
   6   1 -11  536.75  141.89
  -6   1  11  374.46   76.89
  -5  -1  11   35.50   66.59
  -5  -1  11   29.40   65.19
  -5   1  11   -4.00   56.79
  -4  -1  11  376.66   64.99
  -4   1  11  276.67   57.29
  -4   1  11  425.66   69.09
  -3  -1  11   15.70   41.80
  -3   1  11   -6.90   53.49
  -2  -1  11   43.40   40.20
  -2   1  11  104.19   46.00
  -1  -1  11  156.58   38.40
  -1   1  11  285.67   52.59
   0  -1  11  -36.30   34.60
   0   1  11   16.10   42.20
   1  -1  11  544.35   66.19
   1   1  11  428.36   65.69
   2  -1  11  105.19   48.10
   2   1  11   91.99   50.29
  -2   1 -11  -49.99   76.89
  -3  -1 -11  122.99   69.69
   3  -1  11  190.08   61.69
   3   1  11  253.37   62.09
  -4  -1 -11  -36.00   82.69
   4  -1  11  133.49   81.59
   4   1  11   62.59   79.09
  -5  -2  11   86.29   70.49
  -5  -2  11   82.49   77.19
   5   2 -11   87.09  105.29
  -5   2  11   47.80   82.29
  -4  -2  11  -32.10   55.19
  -4   2  11  -51.69   74.39
   4   2 -11  -58.99   92.19
  -3  -2  11  581.44   71.59
   3   2 -11  510.95  108.79
  -2  -2  11  149.99   49.10
  -2   2  11  268.17   74.59
   2   2 -11  -15.80   79.09
  -1   2  11  619.54   97.19
   1   2 -11  539.15  109.59
   0  -2  11  264.27   54.69
   0   2 -11  303.37   91.59
   0   2  11  284.17   69.09
  -1  -2 -11   37.50   66.99
   1  -2  11  -62.79   49.60
  -1   2 -11  -26.10   87.59
   1   2  11   -7.10   64.69
   2  -2  11  121.19   63.09
  -2  -2 -11  317.07   75.39
  -2   2 -11  175.48   93.99
  -3  -2 -11  364.96   87.59
  -3  -3  11  130.99   69.49
   3   3 -11   87.59  113.29
  -2  -3  11   19.60   59.19
   2   3 -11   39.70  110.09
  -1  -3  11   68.69   58.59
   1   3 -11  -63.09  103.89
   0  -3  11   58.59   59.59
   0   3 -11    2.00  120.89
  -5   0  12   94.09   68.89
  -4   0  12    0.40   58.89
  -3   0  12  134.89   50.09
  -2   0  12  115.89   44.80
  -1   0  12  593.04   68.19
   0   0  12  202.28   45.90
   1   0  12   89.49   44.40
   2   0  12  264.87   58.49
   3   0  12  242.88   68.19
  -5  -1  12    7.90   71.29
  -5   1  12  -33.40   65.39
  -4  -1  12  632.94   84.39
  -4   1  12  705.93   94.19
  -4   1  12  744.13   93.09
  -3  -1  12   29.80   48.10
  -3   1  12  -80.59   64.39
  -2  -1  12  127.39   51.59
  -2   1  12  139.99   56.69
  -1  -1  12  105.49   42.00
  -1   1  12  191.68   56.19
   0  -1  12   52.29   38.10
   0   1  12   23.20   52.69
   1  -1  12  217.98   56.89
   1   1  12  348.57   63.29
   2  -1  12  110.79   56.79
  -2   1 -12   90.89   94.89
   2   1  12   -1.30   61.39
   3  -1  12  103.59   73.49
   3   1  12  124.59   72.99
  -4  -2  12 -137.19   67.19
   4   2 -12   -3.50  112.29
  -3  -2  12  139.69   58.59
   3   2 -12   71.09  110.59
  -2  -2  12  -24.00   45.80
  -2   2  12   19.50   81.79
   2   2 -12   66.29   95.69
  -1   2  12  591.84   97.09
   1   2 -12  415.46  112.69
   0   2  12  218.08   79.09
   0   2 -12  270.07  105.09
   1  -2  12   58.89   57.49
  -1   2 -12   21.70  101.89
   1   2  12  -23.90  107.49
  -5   0  13  218.38   79.79
  -4   0  13  -22.60   67.89
  -3   0  13   87.59   55.09
  -2   0  13  115.99   53.49
  -1   0  13  113.49   50.69
   0   0  13  240.38   56.69
   1   0  13  184.88   55.99
   2   0  13  164.28   66.89
  -4  -1  13  428.46   78.29
  -4   1  13  423.76   89.19
  -3  -1  13   32.80   58.19
  -3   1  13 -118.39   74.19
  -2  -1  13  354.46   62.49
  -1  -1  13   69.59   48.10
  -1   1  13  131.99   66.59
   0   1  13   -3.30   64.39
   1  -1  13  187.18   60.29
  -1   1 -13  216.28  120.09
   1   1  13  248.38   71.89
  -2  -2  13 -107.99   57.99
  -2   2  13  -59.09   99.89
   2   2 -13 -178.78  109.59
  -1   2  13  183.88  108.99
   1   2 -13  213.58  120.79
   0   2 -13   34.30  115.49
  -3   0  14   24.70   67.09
  -2   0  14  -59.09   63.49
  -1   0  14   25.10   63.49
   0   0  14  -29.90   64.49
  -2  -1  14  327.97   72.29
  -2   1  14  359.66   82.89
  -1  -1  14   13.60   60.99
  -1   1  14   43.30   76.49
   0   0   0    0.00    0.00

_computing_structure_solution     'SHELXT 2014/5 (Sheldrick, 2014)'
;
_shelx_hkl_checksum              57737
loop_
_space_group_symop_operation_xyz
'x, y, z'
'-x, y+1/2, -z'
'-x, -y, -z'
'x, -y-1/2, z'
loop_
_atom_site_label
_atom_site_type_symbol
_atom_site_fract_x
_atom_site_fract_y
_atom_site_fract_z
_atom_site_U_iso_or_equiv
_atom_site_adp_type
_atom_site_occupancy
_atom_site_site_symmetry_order
_atom_site_calc_flag
_atom_site_refinement_flags_posn
_atom_site_refinement_flags_adp
_atom_site_refinement_flags_occupancy
_atom_site_disorder_assembly
_atom_site_disorder_group
Mo Mo 0.3004(2) 0.7500 0.99387(12) 0.0125(5) Uani 1 2 d S T P A .
S1 S 0.1250(6) 0.2500 1.1414(4) 0.0128(8) Uani 1 2 d S T P . .
S2 S 0.6408(6) 0.7500 1.1838(4) 0.0132(8) Uani 1 2 d S T P . .
Rb1 Rb 0.303(5) 0.7500 1.4645(17) 0.076(7) Uani 0.143(3) 2 d S T P A 1
Rb2 Rb 0.142(4) 0.7500 1.4744(18) 0.071(7) Uani 0.127(3) 2 d S T P A 2
loop_
_atom_site_aniso_label
_atom_site_aniso_U_11
_atom_site_aniso_U_22
_atom_site_aniso_U_33
_atom_site_aniso_U_23
_atom_site_aniso_U_13
_atom_site_aniso_U_12
Mo 0.0073(7) 0.0132(8) 0.0169(7) 0.000 0.0018(5) 0.000
S1 0.0096(16) 0.0101(18) 0.0193(18) 0.000 0.0042(13) 0.000
S2 0.0105(16) 0.0109(18) 0.0179(18) 0.000 0.0022(13) 0.000
Rb1 0.13(2) 0.080(13) 0.024(8) 0.000 0.033(12) 0.000
Rb2 0.077(14) 0.122(19) 0.008(7) 0.000 -0.004(9) 0.000
loop_
_atom_type_symbol
_atom_type_description
_atom_type_scat_dispersion_real
_atom_type_scat_dispersion_imag
_atom_type_scat_source
Rb Rb -0.9393 2.9676 'International Tables Vol C Tables 4.2.6.8 and 6.1.1.4'
Mo Mo -1.6832 0.6857 'International Tables Vol C Tables 4.2.6.8 and 6.1.1.4'
S S 0.1246 0.1234 'International Tables Vol C Tables 4.2.6.8 and 6.1.1.4'
H H 0.0000 0.0000 'International Tables Vol C Tables 4.2.6.8 and 6.1.1.4'
O O 0.0106 0.0060 'International Tables Vol C Tables 4.2.6.8 and 6.1.1.4'
loop_
_geom_angle_atom_site_label_1
_geom_angle_atom_site_label_2
_geom_angle_atom_site_label_3
_geom_angle
_geom_angle_site_symmetry_1
_geom_angle_site_symmetry_3
S2 Mo S2 109.01(11) . 3_667
S2 Mo S2 109.01(11) . 3_677
S2 Mo S2 85.25(15) 3_667 3_677
S2 Mo S1 86.31(13) . .
S2 Mo S1 93.95(12) 3_667 .
S2 Mo S1 164.09(12) 3_677 .
S2 Mo S1 86.31(13) . 1_565
S2 Mo S1 164.09(12) 3_667 1_565
S2 Mo S1 93.95(12) 3_677 1_565
S1 Mo S1 82.48(14) . 1_565
S2 Mo S1 162.37(13) . 3_567
S2 Mo S1 83.65(11) 3_667 3_567
S2 Mo S1 83.65(11) 3_677 3_567
S1 Mo S1 80.47(12) . 3_567
S1 Mo S1 80.47(12) 1_565 3_567
S2 Mo Mo 54.56(9) . 3_677
S2 Mo Mo 102.06(11) 3_667 3_677
S2 Mo Mo 54.45(9) 3_677 3_677
S1 Mo Mo 140.65(11) . 3_677
S1 Mo Mo 90.22(10) 1_565 3_677
S1 Mo Mo 136.46(8) 3_567 3_677
S2 Mo Mo 54.56(9) . 3_667
S2 Mo Mo 54.45(9) 3_667 3_667
S2 Mo Mo 102.06(11) 3_677 3_667
S1 Mo Mo 90.22(10) . 3_667
S1 Mo Mo 140.65(11) 1_565 3_667
S1 Mo Mo 136.46(8) 3_567 3_667
Mo Mo Mo 71.39(11) 3_677 3_667
Mo S1 Mo 82.48(14) 1_545 .
Mo S1 Mo 99.53(12) 1_545 3_567
Mo S1 Mo 99.53(12) . 3_567
Mo S1 Rb1 95.9(2) 1_545 1_545
Mo S1 Rb1 136.5(4) . 1_545
Mo S1 Rb1 123.4(4) 3_567 1_545
Mo S1 Rb1 136.5(4) 1_545 .
Mo S1 Rb1 95.9(3) . .
Mo S1 Rb1 123.4(4) 3_567 .
Rb1 S1 Rb1 56.4(3) 1_545 .
Mo S1 Rb2 104.4(2) 1_545 1_545
Mo S1 Rb2 149.1(3) . 1_545
Mo S1 Rb2 108.7(4) 3_567 1_545
Mo S1 Rb2 149.1(3) 1_545 .
Mo S1 Rb2 104.4(2) . .
Mo S1 Rb2 108.7(4) 3_567 .
Rb2 S1 Rb2 55.0(3) 1_545 .
Mo S2 Mo 70.99(11) . 3_667
Mo S2 Mo 70.99(11) . 3_677
Mo S2 Mo 85.25(15) 3_667 3_677
Mo S2 Rb1 94.6(4) . .
Mo S2 Rb1 133.15(18) 3_667 .
Mo S2 Rb1 133.15(17) 3_677 .
Mo S2 Rb2 178.7(4) . 1_655
Mo S2 Rb2 109.9(3) 3_667 1_655
Mo S2 Rb2 109.9(3) 3_677 1_655
Mo S2 Rb2 140.2(3) . 3_678
Mo S2 Rb2 148.8(3) 3_667 3_678
Mo S2 Rb2 104.4(2) 3_677 3_678
Rb2 S2 Rb2 38.9(5) 1_655 3_678
Mo S2 Rb2 140.2(3) . 3_668
Mo S2 Rb2 104.4(2) 3_667 3_668
Mo S2 Rb2 148.8(3) 3_677 3_668
Rb2 S2 Rb2 38.9(5) 1_655 3_668
Rb2 S2 Rb2 53.3(3) 3_678 3_668
Mo S2 Rb1 127.3(4) . 3_678
Mo S2 Rb1 159.0(3) 3_667 3_678
Mo S2 Rb1 109.35(17) 3_677 3_678
Rb1 S2 Rb1 45.1(6) . 3_678
Mo S2 Rb1 127.3(4) . 3_668
Mo S2 Rb1 109.35(16) 3_667 3_668
Mo S2 Rb1 159.0(3) 3_677 3_668
Rb1 S2 Rb1 45.1(6) . 3_668
Rb1 S2 Rb1 52.8(2) 3_678 3_668
Rb1 Rb1 Rb1 72.1(13) 3_678 3_668
Rb1 Rb1 Rb1 54.0(6) 3_678 1_565
Rb1 Rb1 Rb1 126.0(6) 3_668 1_565
Rb1 Rb1 Rb1 126.0(6) 3_678 1_545
Rb1 Rb1 Rb1 54.0(6) 3_668 1_545
Rb1 Rb1 Rb1 180.0 1_565 1_545
Rb1 Rb1 S1 92.1(5) 3_678 1_565
Rb1 Rb1 S1 126.3(9) 3_668 1_565
Rb1 Rb1 S1 61.82(14) 1_565 1_565
Rb1 Rb1 S1 118.18(14) 1_545 1_565
Rb1 Rb1 S1 126.3(9) 3_678 .
Rb1 Rb1 S1 92.1(5) 3_668 .
Rb1 Rb1 S1 118.18(14) 1_565 .
Rb1 Rb1 S1 61.82(14) 1_545 .
S1 Rb1 S1 56.4(3) 1_565 .
Rb1 Rb1 S2 69.6(7) 3_678 .
Rb1 Rb1 S2 69.6(7) 3_668 .
Rb1 Rb1 S2 89.999(3) 1_565 .
Rb1 Rb1 S2 89.999(1) 1_545 .
S1 Rb1 S2 56.8(3) 1_565 .
S1 Rb1 S2 56.8(3) . .
Rb1 Rb1 S2 65.3(5) 3_678 3_678
Rb1 Rb1 S2 96.0(8) 3_668 3_678
Rb1 Rb1 S2 63.60(12) 1_565 3_678
Rb1 Rb1 S2 116.40(12) 1_545 3_678
S1 Rb1 S2 123.87(18) 1_565 3_678
S1 Rb1 S2 167.7(8) . 3_678
S2 Rb1 S2 134.9(6) . 3_678
Rb1 Rb1 S2 96.0(8) 3_678 3_668
Rb1 Rb1 S2 65.3(5) 3_668 3_668
Rb1 Rb1 S2 116.40(12) 1_565 3_668
Rb1 Rb1 S2 63.60(12) 1_545 3_668
S1 Rb1 S2 167.7(8) 1_565 3_668
S1 Rb1 S2 123.87(18) . 3_668
S2 Rb1 S2 134.9(6) . 3_668
S2 Rb1 S2 52.8(2) 3_678 3_668
Rb1 Rb1 Rb1 153.4(10) 3_678 3_568
Rb1 Rb1 Rb1 114.5(4) 3_668 3_568
Rb1 Rb1 Rb1 114.1(3) 1_565 3_568
Rb1 Rb1 Rb1 65.9(3) 1_545 3_568
S1 Rb1 Rb1 102.3(8) 1_565 3_568
S1 Rb1 Rb1 80.1(5) . 3_568
S2 Rb1 Rb1 136.9(6) . 3_568
S2 Rb1 Rb1 88.2(5) 3_678 3_568
S2 Rb1 Rb1 66.7(4) 3_668 3_568
Rb1 Rb1 Rb1 114.5(4) 3_678 3_578
Rb1 Rb1 Rb1 153.4(10) 3_668 3_578
Rb1 Rb1 Rb1 65.9(3) 1_565 3_578
Rb1 Rb1 Rb1 114.1(3) 1_545 3_578
S1 Rb1 Rb1 80.1(6) 1_565 3_578
S1 Rb1 Rb1 102.3(8) . 3_578
S2 Rb1 Rb1 136.9(6) . 3_578
S2 Rb1 Rb1 66.7(4) 3_678 3_578
S2 Rb1 Rb1 88.2(5) 3_668 3_578
Rb1 Rb1 Rb1 48.2(6) 3_568 3_578
Rb1 Rb1 Rb1 101.4(11) 3_678 3_658
Rb1 Rb1 Rb1 29.35(13) 3_668 3_658
Rb1 Rb1 Rb1 155.4(5) 1_565 3_658
Rb1 Rb1 Rb1 24.6(5) 1_545 3_658
S1 Rb1 Rb1 126.2(5) 1_565 3_658
S1 Rb1 Rb1 74.5(2) . 3_658
S2 Rb1 Rb1 79.7(5) . 3_658
S2 Rb1 Rb1 108.9(5) 3_678 3_658
S2 Rb1 Rb1 61.0(3) 3_668 3_658
Rb1 Rb1 Rb1 88.1(2) 3_568 3_658
Rb1 Rb1 Rb1 135.1(7) 3_578 3_658
Rb2 Rb2 Rb2 85.1(15) 3_568 3_578
Rb2 Rb2 Rb2 132.5(8) 3_568 1_565
Rb2 Rb2 Rb2 47.5(8) 3_578 1_565
Rb2 Rb2 Rb2 47.5(8) 3_568 1_545
Rb2 Rb2 Rb2 132.5(8) 3_578 1_545
Rb2 Rb2 Rb2 179.999(12) 1_565 1_545
Rb2 Rb2 S1 125.3(10) 3_568 1_565
Rb2 Rb2 S1 87.4(6) 3_578 1_565
Rb2 Rb2 S1 62.51(14) 1_565 1_565
Rb2 Rb2 S1 117.49(14) 1_545 1_565
Rb2 Rb2 S1 87.4(6) 3_568 .
Rb2 Rb2 S1 125.3(10) 3_578 .
Rb2 Rb2 S1 117.49(14) 1_565 .
Rb2 Rb2 S1 62.51(14) 1_545 .
S1 Rb2 S1 55.0(3) 1_565 .
Rb2 Rb2 S2 71.3(8) 3_568 1_455
Rb2 Rb2 S2 71.3(8) 3_578 1_455
Rb2 Rb2 S2 90.000(2) 1_565 1_455
Rb2 Rb2 S2 90.000(5) 1_545 1_455
S1 Rb2 S2 55.1(2) 1_565 1_455
S1 Rb2 S2 55.1(2) . 1_455
Rb2 Rb2 S2 105.1(10) 3_568 3_678
Rb2 Rb2 S2 69.8(7) 3_578 3_678
Rb2 Rb2 S2 63.36(12) 1_565 3_678
Rb2 Rb2 S2 116.64(12) 1_545 3_678
S1 Rb2 S2 122.4(2) 1_565 3_678
S1 Rb2 S2 161.8(7) . 3_678
S2 Rb2 S2 141.1(5) 1_455 3_678
Rb2 Rb2 S2 69.8(7) 3_568 3_668
Rb2 Rb2 S2 105.1(10) 3_578 3_668
Rb2 Rb2 S2 116.64(12) 1_565 3_668
Rb2 Rb2 S2 63.36(13) 1_545 3_668
S1 Rb2 S2 161.8(7) 1_565 3_668
S1 Rb2 S2 122.4(2) . 3_668
S2 Rb2 S2 141.1(5) 1_455 3_668
S2 Rb2 S2 53.3(2) 3_678 3_668
Rb2 Rb2 Rb2 152.3(10) 3_568 3_678
Rb2 Rb2 Rb2 112.3(6) 3_578 3_678
Rb2 Rb2 Rb2 68.1(2) 1_565 3_678
Rb2 Rb2 Rb2 111.9(2) 1_545 3_678
S1 Rb2 Rb2 78.6(5) 1_565 3_678
S1 Rb2 Rb2 98.5(7) . 3_678
S2 Rb2 Rb2 133.7(6) 1_455 3_678
S2 Rb2 Rb2 64.4(4) 3_678 3_678
S2 Rb2 Rb2 84.4(5) 3_668 3_678
Rb2 Rb2 Rb2 112.3(6) 3_568 3_668
Rb2 Rb2 Rb2 152.3(11) 3_578 3_668
Rb2 Rb2 Rb2 111.9(2) 1_565 3_668
Rb2 Rb2 Rb2 68.1(2) 1_545 3_668
S1 Rb2 Rb2 98.5(7) 1_565 3_668
S1 Rb2 Rb2 78.6(5) . 3_668
S2 Rb2 Rb2 133.7(6) 1_455 3_668
S2 Rb2 Rb2 84.4(5) 3_678 3_668
S2 Rb2 Rb2 64.4(4) 3_668 3_668
Rb2 Rb2 Rb2 43.9(5) 3_678 3_668
Rb2 Rb2 Rb2 27.5(3) 3_568 3_558
Rb2 Rb2 Rb2 112.6(13) 3_578 3_558
Rb2 Rb2 Rb2 160.0(5) 1_565 3_558
Rb2 Rb2 Rb2 20.0(5) 1_545 3_558
S1 Rb2 Rb2 123.9(5) 1_565 3_558
S1 Rb2 Rb2 71.9(3) . 3_558
S2 Rb2 Rb2 81.4(4) 1_455 3_558
S2 Rb2 Rb2 113.7(5) 3_678 3_558
S2 Rb2 Rb2 63.8(3) 3_668 3_558
Rb2 Rb2 Rb2 130.1(7) 3_678 3_558
Rb2 Rb2 Rb2 86.7(3) 3_668 3_558
loop_
_geom_bond_atom_site_label_1
_geom_bond_atom_site_label_2
_geom_bond_distance
_geom_bond_site_symmetry_2
Mo S2 2.397(4) .
Mo S2 2.400(3) 3_667
Mo S2 2.400(3) 3_677
Mo S1 2.465(3) .
Mo S1 2.465(3) 1_565
Mo S1 2.535(4) 3_567
Mo Mo 2.785(3) 3_677
Mo Mo 2.785(3) 3_667
S1 Mo 2.465(3) 1_545
S1 Mo 2.535(4) 3_567
S1 Rb1 3.442(16) 1_545
S1 Rb1 3.442(16) .
S1 Rb2 3.521(16) 1_545
S1 Rb2 3.521(16) .
S2 Mo 2.400(3) 3_667
S2 Mo 2.400(3) 3_677
S2 Rb1 3.543(19) .
S2 Rb2 3.592(19) 1_655
S2 Rb2 3.625(15) 3_678
S2 Rb2 3.625(15) 3_668
S2 Rb1 3.655(15) 3_678
S2 Rb1 3.655(15) 3_668
Rb1 Rb1 2.76(4) 3_678
Rb1 Rb1 2.76(4) 3_668
Rb1 Rb1 3.250(4) 1_565
Rb1 Rb1 3.250(4) 1_545
Rb1 S1 3.442(16) 1_565
Rb1 S2 3.655(15) 3_678
Rb1 S2 3.655(15) 3_668
Rb1 Rb1 3.98(5) 3_568
Rb1 Rb1 3.98(5) 3_578
Rb1 Rb1 5.36(2) 3_658
Rb2 Rb2 2.40(4) 3_568
Rb2 Rb2 2.40(4) 3_578
Rb2 Rb2 3.250(4) 1_565
Rb2 Rb2 3.250(4) 1_545
Rb2 S1 3.521(16) 1_565
Rb2 S2 3.592(19) 1_455
Rb2 S2 3.625(15) 3_678
Rb2 S2 3.625(15) 3_668
Rb2 Rb2 4.35(4) 3_678
Rb2 Rb2 4.35(4) 3_668
Rb2 Rb2 5.187(17) 3_558
