#------------------------------------------------------------------------------
#$Date: 2021-04-14 12:54:07 +0300 (Wed, 14 Apr 2021) $
#$Revision: 264149 $
#$URL: file:///home/coder/svn-repositories/cod/cif/1/56/17/1561754.cif $
#------------------------------------------------------------------------------
#
# This file is available in the Crystallography Open Database (COD),
# http://www.crystallography.net/
#
# All data on this site have been placed in the public domain by the
# contributors.
#
data_1561754
loop_
_publ_author_name
'Bykova, E.'
'Gou, H.'
'Bykov, M.'
'Hanfland, M.'
'Dubrovinsky, L.'
'Dubrovinskaia, N.'
_publ_section_title
;
 Crystal structures and compressibility of novel iron borides Fe2B7 and Fe
 B50 synthesized at high pressure and high temperature
;
_journal_name_full               'Journal of Solid State Chemistry'
_journal_page_first              102
_journal_page_last               109
_journal_paper_doi               10.1016/j.jssc.2015.06.040
_journal_volume                  230
_journal_year                    2015
_chemical_absolute_configuration .
_chemical_formula_moiety         'B50 Fe1.324'
_chemical_formula_sum            'B50 Fe1.324'
_chemical_formula_weight         614.4
_chemical_name_common            'Iron Boron (1.324/50)'
_chemical_name_systematic        'Iron Boron (1.324/50)'
_space_group_IT_number           134
_space_group_name_Hall           '-P 4ac 2bc'
_space_group_name_H-M_alt        'P 42/n n m :2'
_symmetry_cell_setting           tetragonal
_symmetry_Int_Tables_number      134
_symmetry_space_group_name_Hall  '-P 4ac 2bc'
_symmetry_space_group_name_H-M   'P 42/n n m :2'
_cell_angle_alpha                90
_cell_angle_beta                 90
_cell_angle_gamma                90
_cell_formula_units_Z            1
_cell_length_a                   8.4398(8)
_cell_length_b                   8.4398(8)
_cell_length_c                   4.7750(5)
_cell_measurement_reflns_used    258
_cell_measurement_temperature    293
_cell_measurement_theta_max      18.8
_cell_measurement_theta_min      2.81
_cell_volume                     340.12(6)
_computing_cell_refinement
;
CrysAlisPro, Agilent Technologies,
Version 1.171.37.35 (release 13-08-2014 CrysAlis171 .NET)
(compiled Aug 13 2014,18:06:01)
;
_computing_data_collection
;
CrysAlisPro, Agilent Technologies,
Version 1.171.37.35 (release 13-08-2014 CrysAlis171 .NET)
(compiled Aug 13 2014,18:06:01)
;
_computing_data_reduction
;
CrysAlisPro, Agilent Technologies,
Version 1.171.37.35 (release 13-08-2014 CrysAlis171 .NET)
(compiled Aug 13 2014,18:06:01)
;
_computing_structure_refinement  'Jana2006 (Petricek, 2014)'
_computing_structure_solution    'SHELXS-2013 (Sheldrick, 2013)'
_diffrn_ambient_pressure         47600000
_diffrn_ambient_temperature      293
_diffrn_detector                 'MAR555 flatpanel detector'
_diffrn_measured_fraction_theta_full 0.95
_diffrn_measured_fraction_theta_max 0.69
_diffrn_measurement_device
;
customized omega-circle diffractometer
;
_diffrn_measurement_device_type  'ESRF, beamline ID09A diffractometer'
_diffrn_measurement_method       '\w scans'
_diffrn_radiation_monochromator  synchrotron
_diffrn_radiation_probe          x-ray
_diffrn_radiation_source         synchrotron
_diffrn_radiation_type           synchrotron
_diffrn_radiation_wavelength     0.41409
_diffrn_reflns_av_R_equivalents  0.0731
_diffrn_reflns_av_unetI/netI     0.0739
_diffrn_reflns_limit_h_max       11
_diffrn_reflns_limit_h_min       -11
_diffrn_reflns_limit_k_max       6
_diffrn_reflns_limit_k_min       -8
_diffrn_reflns_limit_l_max       7
_diffrn_reflns_limit_l_min       -6
_diffrn_reflns_number            747
_diffrn_reflns_theta_full        12.01
_diffrn_reflns_theta_max         18.89
_diffrn_reflns_theta_min         1.99
_diffrn_source                   synchrotron
_exptl_absorpt_coefficient_mu    0.337
_exptl_absorpt_correction_T_max  1
_exptl_absorpt_correction_T_min  0.442
_exptl_absorpt_correction_type   multi-scan
_exptl_absorpt_process_details
;
CrysAlisPro, Agilent Technologies,
Version 1.171.37.35 (release 13-08-2014 CrysAlis171 .NET)
(compiled Aug 13 2014,18:06:01)
Empirical absorption correction using spherical harmonics,
 implemented in SCALE3 ABSPACK scaling algorithm.
;
_exptl_crystal_colour            black
_exptl_crystal_density_diffrn    2.9988
_exptl_crystal_description       plate
_exptl_crystal_F_000             284
_exptl_crystal_size_max          0.020
_exptl_crystal_size_mid          0.010
_exptl_crystal_size_min          0.005
_refine_diff_density_max         1.05
_refine_diff_density_min         -1.21
_refine_ls_extinction_method     none
_refine_ls_goodness_of_fit_gt    2.37
_refine_ls_goodness_of_fit_ref   2.21
_refine_ls_number_constraints    0
_refine_ls_number_parameters     18
_refine_ls_number_reflns         259
_refine_ls_number_restraints     0
_refine_ls_R_factor_all          0.0954
_refine_ls_R_factor_gt           0.0768
_refine_ls_shift/su_max          0.0001
_refine_ls_shift/su_mean         0.0000
_refine_ls_structure_factor_coef Fsqd
_refine_ls_weighting_details     w=1/(\s^2^(I)+0.0004I^2^)
_refine_ls_weighting_scheme      sigma
_refine_ls_wR_factor_gt          0.1576
_refine_ls_wR_factor_ref         0.1682
_reflns_number_gt                201
_reflns_number_total             259
_reflns_threshold_expression     I>2\s(I)
_cod_data_source_file            fe1.32B50_47.6GPa.cif
_cod_data_source_block           Fe1.3B50_47.6GPa
_cod_depositor_comments
;
The following automatic conversions were performed:

data item '_diffrn_radiation_probe' value 'X-ray' was changed to
'x-ray' in accordance with the built-in table derived from the CIF
Core dictionary named 'cif_core.dic' version 2.4.5 last updated on
2014-11-21.

Automatic conversion script
Id: cif_fix_values 8369 2020-08-20 11:38:08Z andrius 
;
_cod_original_sg_symbol_H-M      'P 42/n n m'
_cod_database_code               1561754
loop_
_symmetry_equiv_pos_site_id
_symmetry_equiv_pos_as_xyz
1 x,y,z
2 -x+1/2,-y+1/2,z
3 -y+1/2,x,z+1/2
4 y,-x+1/2,z+1/2
5 -x+1/2,y,-z+1/2
6 x,-y+1/2,-z+1/2
7 y,x,-z
8 -y+1/2,-x+1/2,-z
9 -x,-y,-z
10 x+1/2,y+1/2,-z
11 y+1/2,-x,-z+1/2
12 -y,x+1/2,-z+1/2
13 x+1/2,-y,z+1/2
14 -x,y+1/2,z+1/2
15 -y,-x,z
16 y+1/2,x+1/2,z
loop_
_atom_site_label
_atom_site_type_symbol
_atom_site_fract_x
_atom_site_fract_y
_atom_site_fract_z
_atom_site_adp_type
_atom_site_U_iso_or_equiv
_atom_site_site_symmetry_multiplicity
_atom_site_occupancy
_atom_site_calc_flag
_atom_site_refinement_flags
_atom_site_disorder_assembly
_atom_site_disorder_group
Fe1 Fe -0.25 0.25 0.25 Uani 0.0096(6) 2 0.6621 d . . .
B4 B -0.0782(6) -0.1608(6) 0.1515(8) Uiso 0.0073(9) 16 1 d . . .
B5 B -0.1694(6) 0.0213(5) 0.1596(9) Uiso 0.0052(9) 16 1 d . . .
B2 B 0.1237(6) -0.1237(6) 0.1403(11) Uiso 0.0062(13) 8 1 d . . .
B3 B 0.0030(5) -0.0030(5) 0.3370(12) Uiso 0.0041(12) 8 1 d . . .
B1 B 0.25 -0.25 0.25 Uiso 0.009(2) 2 1 d . . .
loop_
_atom_site_aniso_label
_atom_site_aniso_type_symbol
_atom_site_aniso_U_11
_atom_site_aniso_U_22
_atom_site_aniso_U_33
_atom_site_aniso_U_12
_atom_site_aniso_U_13
_atom_site_aniso_U_23
Fe1 Fe 0.0067(10) 0.0067(10) 0.0154(13) 0 0 0
loop_
_atom_type_symbol
_atom_type_scat_dispersion_real
_atom_type_scat_dispersion_imag
_atom_type_scat_source
B -0.0003 0.0002 'International Tables Vol C tables 4.2.6.8 and 6.1.1.1'
Fe 0.1988 0.3099 'International Tables Vol C tables 4.2.6.8 and 6.1.1.1'
loop_
_geom_angle_atom_site_label_1
_geom_angle_atom_site_label_2
_geom_angle_atom_site_label_3
_geom_angle_site_symmetry_1
_geom_angle_site_symmetry_2
_geom_angle_site_symmetry_3
_geom_angle
B5 Fe1 B5 . . 2_455 156.19(16)
B5 Fe1 B5 . . 5_455 45.30(17)
B5 Fe1 B5 . . 6_555 142.05(18)
B5 Fe1 B5 . . 11_455 92.44(18)
B5 Fe1 B5 . . 12_555 92.44(18)
B5 Fe1 B5 . . 15_555 50.00(18)
B5 Fe1 B5 . . 16_455 123.89(18)
B5 Fe1 B2 . . 3_455 83.95(16)
B5 Fe1 B2 . . 4_555 115.23(16)
B5 Fe1 B2 . . 7_555 44.32(16)
B5 Fe1 B2 . . 8_455 113.24(16)
B5 Fe1 B1 . . 3_454 78.09(11)
B5 Fe1 B1 . . 3_455 101.91(11)
B5 Fe1 B5 2_455 . 5_455 142.05(18)
B5 Fe1 B5 2_455 . 6_555 45.30(17)
B5 Fe1 B5 2_455 . 11_455 92.44(18)
B5 Fe1 B5 2_455 . 12_555 92.44(18)
B5 Fe1 B5 2_455 . 15_555 123.89(18)
B5 Fe1 B5 2_455 . 16_455 50.00(18)
B5 Fe1 B2 2_455 . 3_455 115.23(16)
B5 Fe1 B2 2_455 . 4_555 83.95(16)
B5 Fe1 B2 2_455 . 7_555 113.24(16)
B5 Fe1 B2 2_455 . 8_455 44.32(16)
B5 Fe1 B1 2_455 . 3_454 78.09(11)
B5 Fe1 B1 2_455 . 3_455 101.91(11)
B5 Fe1 B5 5_455 . 6_555 156.19(16)
B5 Fe1 B5 5_455 . 11_455 50.00(18)
B5 Fe1 B5 5_455 . 12_555 123.89(18)
B5 Fe1 B5 5_455 . 15_555 92.44(18)
B5 Fe1 B5 5_455 . 16_455 92.44(18)
B5 Fe1 B2 5_455 . 3_455 44.32(16)
B5 Fe1 B2 5_455 . 4_555 113.24(16)
B5 Fe1 B2 5_455 . 7_555 83.95(16)
B5 Fe1 B2 5_455 . 8_455 115.23(16)
B5 Fe1 B1 5_455 . 3_454 101.91(11)
B5 Fe1 B1 5_455 . 3_455 78.09(11)
B5 Fe1 B5 6_555 . 11_455 123.89(18)
B5 Fe1 B5 6_555 . 12_555 50.00(18)
B5 Fe1 B5 6_555 . 15_555 92.44(18)
B5 Fe1 B5 6_555 . 16_455 92.44(18)
B5 Fe1 B2 6_555 . 3_455 113.24(16)
B5 Fe1 B2 6_555 . 4_555 44.32(16)
B5 Fe1 B2 6_555 . 7_555 115.23(16)
B5 Fe1 B2 6_555 . 8_455 83.95(16)
B5 Fe1 B1 6_555 . 3_454 101.91(11)
B5 Fe1 B1 6_555 . 3_455 78.09(11)
B5 Fe1 B5 11_455 . 12_555 156.19(16)
B5 Fe1 B5 11_455 . 15_555 142.05(18)
B5 Fe1 B5 11_455 . 16_455 45.30(17)
B5 Fe1 B2 11_455 . 3_455 44.32(16)
B5 Fe1 B2 11_455 . 4_555 113.24(16)
B5 Fe1 B2 11_455 . 7_555 115.23(16)
B5 Fe1 B2 11_455 . 8_455 83.95(16)
B5 Fe1 B1 11_455 . 3_454 101.91(11)
B5 Fe1 B1 11_455 . 3_455 78.09(11)
B5 Fe1 B5 12_555 . 15_555 45.30(17)
B5 Fe1 B5 12_555 . 16_455 142.05(18)
B5 Fe1 B2 12_555 . 3_455 113.24(16)
B5 Fe1 B2 12_555 . 4_555 44.32(16)
B5 Fe1 B2 12_555 . 7_555 83.95(16)
B5 Fe1 B2 12_555 . 8_455 115.23(16)
B5 Fe1 B1 12_555 . 3_454 101.91(11)
B5 Fe1 B1 12_555 . 3_455 78.09(11)
B5 Fe1 B5 15_555 . 16_455 156.19(16)
B5 Fe1 B2 15_555 . 3_455 115.23(16)
B5 Fe1 B2 15_555 . 4_555 83.95(16)
B5 Fe1 B2 15_555 . 7_555 44.32(16)
B5 Fe1 B2 15_555 . 8_455 113.24(16)
B5 Fe1 B1 15_555 . 3_454 78.09(11)
B5 Fe1 B1 15_555 . 3_455 101.91(11)
B5 Fe1 B2 16_455 . 3_455 83.95(16)
B5 Fe1 B2 16_455 . 4_555 115.23(16)
B5 Fe1 B2 16_455 . 7_555 113.24(16)
B5 Fe1 B2 16_455 . 8_455 44.32(16)
B5 Fe1 B1 16_455 . 3_454 78.09(11)
B5 Fe1 B1 16_455 . 3_455 101.91(11)
B2 Fe1 B2 3_455 . 4_555 77.93(17)
B2 Fe1 B2 3_455 . 7_555 127.19(16)
B2 Fe1 B2 3_455 . 8_455 127.19(16)
B2 Fe1 B1 3_455 . 3_454 141.03(12)
B2 Fe1 B1 3_455 . 3_455 38.97(12)
B2 Fe1 B2 4_555 . 7_555 127.19(16)
B2 Fe1 B2 4_555 . 8_455 127.19(16)
B2 Fe1 B1 4_555 . 3_454 141.03(12)
B2 Fe1 B1 4_555 . 3_455 38.97(12)
B2 Fe1 B2 7_555 . 8_455 77.93(17)
B2 Fe1 B1 7_555 . 3_454 38.97(12)
B2 Fe1 B1 7_555 . 3_455 141.03(12)
B2 Fe1 B1 8_455 . 3_454 38.97(12)
B2 Fe1 B1 8_455 . 3_455 141.03(12)
B1 Fe1 B1 3_454 . 3_455 180.0(5)
B4 B4 B4 6_545 . 7_555 140.9(4)
B4 B4 B5 6_545 . . 138.2(3)
B4 B4 B5 6_545 . 7_555 115.1(3)
B4 B4 B2 6_545 . . 99.8(3)
B4 B4 B3 6_545 . . 112.3(3)
B4 B4 B5 7_555 . . 59.0(3)
B4 B4 B5 7_555 . 7_555 59.6(3)
B4 B4 B2 7_555 . . 107.1(3)
B4 B4 B3 7_555 . . 105.8(3)
B5 B4 B5 . . 7_555 106.1(3)
B5 B4 B2 . . . 106.2(3)
B5 B4 B3 . . . 58.7(3)
B5 B4 B2 7_555 . . 59.8(3)
B5 B4 B3 7_555 . . 106.4(3)
B2 B4 B3 . . . 59.4(3)
Fe1 B5 B4 . . . 167.2(3)
Fe1 B5 B4 . . 7_555 130.3(3)
Fe1 B5 B5 . . 5_455 67.3(2)
Fe1 B5 B5 . . 15_555 65.0(2)
Fe1 B5 B2 . . 7_555 77.3(2)
Fe1 B5 B3 . . . 106.7(3)
B4 B5 B4 . . 7_555 61.4(3)
B4 B5 B5 . . 5_455 113.0(3)
B4 B5 B5 . . 15_555 108.4(3)
B4 B5 B2 . . 7_555 109.3(3)
B4 B5 B3 . . . 61.2(3)
B4 B5 B5 7_555 . 5_455 120.1(4)
B4 B5 B5 7_555 . 15_555 108.5(3)
B4 B5 B2 7_555 . 7_555 60.8(3)
B4 B5 B3 7_555 . . 109.8(4)
B5 B5 B5 5_455 . 15_555 126.7(3)
B5 B5 B2 5_455 . 7_555 129.6(4)
B5 B5 B3 5_455 . . 117.2(3)
B5 B5 B2 15_555 . 7_555 59.0(3)
B5 B5 B3 15_555 . . 58.6(3)
B2 B5 B3 7_555 . . 106.5(3)
Fe1 B2 B4 3_554 . . 112.4(3)
Fe1 B2 B4 3_554 . 15_555 112.4(3)
Fe1 B2 B5 3_554 . 7_555 58.3(2)
Fe1 B2 B5 3_554 . 9_555 58.3(2)
Fe1 B2 B3 3_554 . . 162.1(3)
Fe1 B2 B1 3_554 . . 70.19(17)
B4 B2 B4 . . 15_555 110.7(3)
B4 B2 B5 . . 7_555 59.4(3)
B4 B2 B5 . . 9_555 109.7(3)
B4 B2 B3 . . . 60.5(3)
B4 B2 B1 . . . 121.7(3)
B4 B2 B5 15_555 . 7_555 109.7(3)
B4 B2 B5 15_555 . 9_555 59.4(3)
B4 B2 B3 15_555 . . 60.5(3)
B4 B2 B1 15_555 . . 121.7(3)
B5 B2 B5 7_555 . 9_555 62.0(3)
B5 B2 B3 7_555 . . 106.9(3)
B5 B2 B1 7_555 . . 117.4(3)
B5 B2 B3 9_555 . . 106.9(3)
B5 B2 B1 9_555 . . 117.4(3)
B3 B2 B1 . . . 127.7(4)
B4 B3 B4 . . 15_555 110.1(4)
B4 B3 B5 . . . 60.0(3)
B4 B3 B5 . . 15_555 110.8(4)
B4 B3 B2 . . . 60.1(3)
B4 B3 B3 . . 7_556 121.4(4)
B4 B3 B5 15_555 . . 110.8(4)
B4 B3 B5 15_555 . 15_555 60.0(3)
B4 B3 B2 15_555 . . 60.1(3)
B4 B3 B3 15_555 . 7_556 121.4(4)
B5 B3 B5 . . 15_555 62.8(3)
B5 B3 B2 . . . 107.9(4)
B5 B3 B3 . . 7_556 117.8(4)
B5 B3 B2 15_555 . . 107.9(4)
B5 B3 B3 15_555 . 7_556 117.8(4)
B2 B3 B3 . . 7_556 125.7(4)
Fe1 B1 Fe1 3_554 . 3_555 180.0(5)
Fe1 B1 B2 3_554 . . 70.84(19)
Fe1 B1 B2 3_554 . 2_545 70.84(19)
Fe1 B1 B2 3_554 . 5_555 109.16(19)
Fe1 B1 B2 3_554 . 6_545 109.16(19)
Fe1 B1 B2 3_555 . . 109.16(19)
Fe1 B1 B2 3_555 . 2_545 109.16(19)
Fe1 B1 B2 3_555 . 5_555 70.84(19)
Fe1 B1 B2 3_555 . 6_545 70.84(19)
B2 B1 B2 . . 2_545 141.7(3)
B2 B1 B2 . . 5_555 96.2(2)
B2 B1 B2 . . 6_545 96.2(2)
B2 B1 B2 2_545 . 5_555 96.2(2)
B2 B1 B2 2_545 . 6_545 96.2(2)
B2 B1 B2 5_555 . 6_545 141.7(3)
loop_
_geom_bond_atom_site_label_1
_geom_bond_atom_site_label_2
_geom_bond_site_symmetry_1
_geom_bond_site_symmetry_2
_geom_bond_distance
Fe1 B5 . . 2.091(4)
Fe1 B5 . 2_455 2.091(4)
Fe1 B5 . 5_455 2.091(4)
Fe1 B5 . 6_555 2.091(4)
Fe1 B5 . 11_455 2.091(4)
Fe1 B5 . 12_555 2.091(4)
Fe1 B5 . 15_555 2.091(4)
Fe1 B5 . 16_455 2.091(4)
Fe1 B2 . 3_455 2.397(5)
Fe1 B2 . 4_555 2.397(5)
Fe1 B2 . 7_555 2.397(5)
Fe1 B2 . 8_455 2.397(5)
Fe1 B1 . 3_454 2.3875(5)
Fe1 B1 . 3_455 2.3875(5)
B4 B4 . 6_545 1.776(7)
B4 B4 . 7_555 1.750(6)
B4 B5 . . 1.720(7)
B4 B5 . 7_555 1.708(6)
B4 B2 . . 1.733(7)
B4 B3 . . 1.740(7)
B5 B5 . 5_455 1.611(6)
B5 B5 . 15_555 1.768(6)
B5 B2 . 7_555 1.717(7)
B5 B3 . . 1.696(7)
B2 B3 . . 1.720(7)
B2 B1 . . 1.596(5)
B3 B3 . 7_556 1.559(8)
loop_
_refln_index_h
_refln_index_k
_refln_index_l
_refln_F_squared_calc
_refln_F_squared_meas
_refln_F_squared_sigma
_refln_observed_status
1 0 1 501.43 574.23 17.68 o
1 0 3 401.95 465.62 23.37 o
1 0 5 78.44 67.23 15.25 o
1 1 0 1469.31 1316.39 25.03 o
1 1 1 588.30 651.40 16.97 o
1 1 2 766.78 784.12 21.55 o
1 1 3 335.00 411.12 26.12 o
1 1 4 296.92 274.86 18.15 o
1 1 5 5.90 4.16 2.35 <
1 1 6 123.60 56.17 10.89 o
2 0 0 85.87 84.70 6.21 o
2 0 2 239.54 277.07 11.88 o
2 0 4 809.72 886.45 35.07 o
2 0 6 569.33 357.86 27.96 o
2 1 1 388.53 376.79 9.04 o
2 1 2 4.04 9.53 1.96 o
2 1 3 185.66 208.03 10.80 o
2 1 4 12.65 2.89 2.32 <
2 1 5 73.51 56.09 10.16 o
2 1 6 20.48 5.22 5.43 <
2 2 0 473.51 407.71 28.75 o
2 2 1 0.05 1.23 1.25 <
2 2 2 586.85 728.44 25.91 o
2 2 3 1.61 8.99 2.80 o
2 2 4 456.79 496.32 37.00 o
2 2 5 5.37 6.68 3.32 o
2 2 6 156.53 125.56 21.63 o
3 0 1 154.38 123.23 7.16 o
3 0 3 182.01 174.12 12.64 o
3 1 0 1121.36 1221.05 24.37 o
3 1 1 1027.34 1185.73 18.44 o
3 1 2 694.24 653.63 18.95 o
3 1 3 1335.19 1242.04 20.04 o
3 1 4 254.49 313.29 15.90 o
3 1 5 22.49 31.08 6.07 o
3 1 6 70.95 56.40 11.55 o
3 1 7 287.38 207.21 52.42 o
3 2 1 53.17 24.88 4.82 o
3 2 2 24.25 32.84 3.43 o
3 2 3 254.40 263.46 12.57 o
3 2 4 2.44 15.60 3.35 o
3 2 5 233.97 261.57 21.24 o
3 2 6 4.36 -0.28 2.26 <
3 3 1 471.12 502.51 27.09 o
3 3 2 539.44 585.16 29.08 o
3 3 3 1062.57 1269.72 43.21 o
3 3 4 138.70 202.21 17.29 o
3 3 5 120.12 201.64 26.06 o
3 3 6 70.87 56.92 12.49 o
4 0 0 340.85 328.26 18.18 o
4 0 2 649.15 621.45 21.05 o
4 0 4 593.81 856.27 43.13 o
4 0 6 64.18 29.55 5.98 o
4 1 1 1422.24 1587.66 24.38 o
4 1 2 65.76 70.44 5.84 o
4 1 3 58.11 70.26 5.91 o
4 1 4 8.76 16.58 3.02 o
4 1 5 36.07 33.75 12.72 o
4 1 6 13.19 3.54 2.67 <
4 1 7 0.96 -5.66 20.81 <
4 2 0 801.67 769.86 34.23 o
4 2 1 0.11 0.48 1.62 <
4 2 2 486.11 473.84 17.49 o
4 2 3 0.40 4.39 3.74 <
4 2 4 177.75 194.06 12.49 o
4 2 5 0.15 3.82 3.33 <
4 2 6 84.92 71.53 11.79 o
4 3 1 363.07 290.41 19.85 o
4 3 2 645.88 640.79 21.02 o
4 3 3 190.12 186.33 11.17 o
4 3 4 246.20 369.66 17.19 o
4 3 5 30.89 43.20 5.84 o
4 3 6 39.04 38.21 8.30 o
4 4 1 19.87 7.85 5.08 <
4 4 2 674.25 582.78 34.66 o
4 4 3 24.29 27.31 6.74 o
4 4 4 0.82 4.28 4.85 <
4 4 5 4.04 11.88 5.65 o
4 4 6 1.94 2.12 4.13 <
5 0 1 1568.74 1444.80 31.43 o
5 0 3 11.39 8.90 3.89 o
5 0 5 117.92 145.65 12.84 o
5 1 0 532.65 497.57 19.33 o
5 1 1 35.70 35.85 4.13 o
5 1 2 480.04 466.08 15.58 o
5 1 3 57.59 67.88 6.73 o
5 1 4 271.19 341.63 14.98 o
5 1 5 0.04 5.18 5.30 <
5 1 6 61.12 53.57 27.01 <
5 2 1 768.91 722.91 22.08 o
5 2 2 954.95 854.48 26.98 o
5 2 3 111.77 110.92 10.54 o
5 2 4 254.91 273.42 18.32 o
5 2 5 4.17 2.23 8.27 <
5 2 6 115.43 114.41 33.50 o
5 3 0 503.51 448.41 29.99 o
5 3 1 2.35 3.47 4.11 <
5 3 2 359.41 422.80 21.72 o
5 3 3 0.95 -0.19 2.93 <
5 3 4 173.01 243.61 16.53 o
5 3 5 31.04 30.96 5.44 o
5 3 6 80.46 113.94 15.24 o
5 4 1 132.83 79.01 13.86 o
5 4 2 44.64 23.06 6.99 o
5 4 3 310.67 340.79 16.68 o
5 4 4 17.96 11.76 2.64 o
5 4 5 754.11 1184.76 46.14 o
5 4 6 3.19 5.44 4.15 <
5 5 1 0.01 1.73 12.04 <
5 5 2 298.76 288.05 30.61 o
5 5 3 1.94 1.43 5.37 <
5 5 4 32.32 28.07 5.46 o
5 5 5 7.84 17.55 4.94 o
5 5 6 40.76 39.49 6.41 o
6 0 0 183.97 147.66 15.86 o
6 0 2 21.79 30.87 6.28 o
6 0 4 899.59 1136.23 46.63 o
6 1 1 48.14 26.62 3.65 o
6 1 2 327.32 298.24 14.28 o
6 1 3 254.29 222.65 14.25 o
6 1 4 81.16 92.76 8.16 o
6 1 5 578.17 569.80 28.10 o
6 2 0 2976.61 3023.98 68.40 o
6 2 1 12.96 7.23 5.61 <
6 2 2 941.07 903.32 29.97 o
6 2 3 6.28 14.58 5.87 o
6 2 4 19.61 8.77 8.22 <
6 2 5 18.89 5.56 4.94 <
6 3 1 761.53 740.49 29.87 o
6 3 2 228.08 190.53 14.64 o
6 3 3 37.59 34.87 8.89 o
6 3 4 53.46 42.96 15.04 o
6 3 5 32.53 39.95 6.83 o
6 3 6 37.06 52.34 13.67 o
6 4 0 10.94 6.86 5.88 <
6 4 1 2.99 12.86 12.98 <
6 4 2 59.72 68.53 12.06 o
6 4 3 10.20 6.05 4.09 <
6 4 4 536.80 649.64 35.59 o
6 4 5 1.83 1.53 8.03 <
6 4 6 443.95 665.91 50.35 o
6 5 1 228.39 179.29 26.39 o
6 5 2 7.54 20.55 10.90 <
6 5 3 60.63 57.18 10.94 o
6 5 4 1.82 0.79 2.78 <
6 5 5 6.82 9.16 20.36 <
6 5 6 12.91 6.66 8.94 <
6 6 2 362.38 261.37 33.10 o
6 6 3 108.01 80.11 15.82 o
6 6 4 98.15 142.96 32.42 o
7 0 1 0.36 1.42 2.05 <
7 0 3 164.21 93.38 17.06 o
7 0 5 293.64 296.05 23.10 o
7 1 0 270.71 241.49 23.00 o
7 1 1 5.77 6.22 2.64 o
7 1 2 204.01 201.83 12.14 o
7 1 3 3.17 8.54 6.54 <
7 1 4 144.57 142.46 14.70 o
7 1 5 8.90 6.95 3.41 o
7 2 1 179.55 180.56 13.59 o
7 2 2 202.43 242.94 14.31 o
7 2 3 90.15 94.19 10.79 o
7 2 4 111.31 149.22 13.50 o
7 2 5 26.41 8.22 8.18 <
7 3 0 62.49 65.36 12.53 o
7 3 1 17.72 13.90 6.25 o
7 3 2 193.21 203.67 16.05 o
7 3 3 53.45 49.79 8.98 o
7 3 4 353.40 427.53 29.89 o
7 3 5 6.63 14.40 4.99 o
7 4 1 114.62 111.70 15.86 o
7 4 2 13.44 16.77 7.35 o
7 4 3 45.87 50.12 8.79 o
7 4 4 5.49 5.51 7.31 <
7 4 5 32.48 25.05 14.97 <
7 5 0 354.12 272.40 50.72 o
7 5 1 106.64 64.64 13.23 o
7 5 2 249.68 278.94 29.48 o
7 5 3 233.00 184.43 28.79 o
7 5 4 87.72 79.43 16.42 o
7 5 5 0.83 2.37 18.17 <
7 6 1 566.06 431.57 63.44 o
7 6 2 93.95 93.97 29.94 o
7 6 3 24.78 20.84 19.68 <
7 6 4 22.27 -13.26 6.21 <
8 0 0 781.36 918.49 49.34 o
8 0 2 339.04 319.32 25.05 o
8 0 4 20.39 25.69 8.26 o
8 1 1 158.02 161.47 10.50 o
8 1 2 2.89 -2.67 2.77 <
8 1 3 100.96 100.24 9.68 o
8 1 4 10.58 13.02 5.24 o
8 1 5 20.74 36.26 13.29 o
8 2 0 158.88 145.48 16.58 o
8 2 1 16.94 13.34 4.22 o
8 2 2 167.26 166.58 12.07 o
8 2 3 52.21 57.83 9.57 o
8 2 4 159.13 218.53 23.74 o
8 2 5 5.70 16.39 22.78 <
8 3 1 421.67 441.33 23.96 o
8 3 2 27.44 21.78 5.41 o
8 3 3 16.60 18.15 5.73 o
8 3 4 9.50 15.11 4.41 o
8 3 5 12.33 6.70 15.70 <
8 4 0 169.49 142.09 22.21 o
8 4 1 113.83 95.76 11.60 o
8 4 2 222.36 238.02 24.70 o
8 4 3 260.41 251.83 34.24 o
8 4 4 184.07 225.54 24.59 o
8 4 5 1.95 5.89 16.03 <
8 5 1 0.60 3.16 12.98 <
8 5 3 55.14 9.78 18.82 <
8 5 4 111.48 106.33 28.45 o
9 0 1 0.26 -2.21 3.50 <
9 0 3 165.89 180.90 20.90 o
9 1 0 1199.42 1187.72 43.98 o
9 1 1 147.27 120.31 10.04 o
9 1 2 386.43 440.92 24.78 o
9 1 3 443.14 458.96 24.45 o
9 1 4 4.01 3.46 6.75 <
9 1 5 42.61 46.95 15.22 o
9 2 1 220.48 229.16 18.26 o
9 2 2 122.83 120.23 12.70 o
9 2 3 50.91 52.39 11.20 o
9 2 4 18.88 23.70 8.11 o
9 2 5 0.50 8.60 13.52 <
9 3 0 158.40 163.80 30.94 o
9 3 1 204.61 190.53 17.66 o
9 3 2 168.16 160.47 19.54 o
9 3 3 533.61 551.94 44.16 o
9 3 4 128.67 136.78 21.68 o
9 4 1 170.28 145.61 34.66 o
9 4 2 248.57 209.80 28.08 o
9 4 3 11.76 2.71 4.22 <
9 4 4 94.23 100.11 16.32 o
9 5 3 161.90 149.60 35.97 o
10 0 0 82.34 83.51 22.61 o
10 0 2 93.16 115.51 18.37 o
10 0 4 113.35 105.30 21.38 o
10 1 1 139.63 137.80 17.00 o
10 1 2 67.88 57.12 8.23 o
10 1 3 31.16 21.81 5.57 o
10 1 4 11.64 6.13 3.99 <
10 2 1 256.42 225.05 28.75 o
10 2 2 165.77 175.33 21.86 o
10 2 3 520.75 732.53 49.32 o
10 2 4 92.53 131.69 22.66 o
10 3 2 0.40 -11.06 12.08 <
10 3 3 76.92 63.27 13.41 o
10 3 4 10.28 8.51 9.95 <
10 4 2 65.37 63.73 33.75 <
10 4 3 150.22 123.44 26.49 o
10 5 3 27.39 58.68 18.85 o
11 0 3 16.19 24.81 16.71 <
11 1 2 17.89 5.66 3.04 <
11 1 3 6.97 2.90 4.23 <
11 1 4 457.82 492.70 31.95 o
11 4 3 55.61 43.52 16.25 o
11 5 3 0.07 -21.45 19.18 <
