#------------------------------------------------------------------------------
#$Date: 2021-04-09 11:39:07 +0300 (Fri, 09 Apr 2021) $
#$Revision: 264013 $
#$URL: file:///home/coder/svn-repositories/cod/cif/1/56/16/1561612.cif $
#------------------------------------------------------------------------------
#
# This file is available in the Crystallography Open Database (COD),
# http://www.crystallography.net/
#
# All data on this site have been placed in the public domain by the
# contributors.
#
data_1561612
loop_
_publ_author_name
'Liang, I-Chu'
'Bilc, Daniel I.'
'Manoli, Maria'
'Chang, Wei-Yun'
'Lin, Wen-Fu'
'Kyratsi, Theodora'
'Hsu, Kuei-Fang'
_publ_section_title
;
 Syntheses, crystal Structures and electronic Structures of new metal
 chalcoiodides Bi2CuSe3I and Bi6Cu3S10I
;
_journal_name_full               'Journal of Solid State Chemistry'
_journal_page_first              1
_journal_page_last               8
_journal_paper_doi               10.1016/j.jssc.2015.09.030
_journal_volume                  234
_journal_year                    2016
_chemical_formula_moiety         Bi2CuSe3I
_chemical_formula_sum            'Bi Cu0.5 I0.5 Se1.5'
_chemical_formula_weight         422.64
_space_group_IT_number           12
_space_group_name_Hall           '-C 2y'
_space_group_name_H-M_alt        'C 1 2/m 1'
_symmetry_cell_setting           monoclinic
_symmetry_space_group_name_H-M   'C 1 2/m 1'
_atom_sites_solution_primary     direct
_atom_sites_solution_secondary   difmap
_cell_angle_alpha                90.00
_cell_angle_beta                 116.095(2)
_cell_angle_gamma                90.00
_cell_formula_units_Z            8
_cell_length_a                   14.243(2)
_cell_length_b                   4.1937(7)
_cell_length_c                   14.647(2)
_cell_measurement_reflns_used    1664
_cell_measurement_temperature    296(2)
_cell_measurement_theta_max      28.16
_cell_measurement_theta_min      2.86
_cell_volume                     785.7(2)
_computing_cell_refinement       'Bruker SMART'
_computing_data_collection       'Bruker SMART'
_computing_data_reduction        'Bruker SMART'
_computing_molecular_graphics    'Bruker SHELXTL'
_computing_publication_material  'Bruker SHELXTL'
_computing_structure_refinement  'SHELXL-97 (Sheldrick, 1997)'
_computing_structure_solution    'SHELXS-97 (Sheldrick, 1990)'
_diffrn_ambient_temperature      296(2)
_diffrn_measured_fraction_theta_full 0.995
_diffrn_measured_fraction_theta_max 0.995
_diffrn_measurement_device_type  'CCD area detector'
_diffrn_measurement_method       'phi and omega scans'
_diffrn_radiation_monochromator  graphite
_diffrn_radiation_source         'fine-focus sealed tube'
_diffrn_radiation_type           MoK\a
_diffrn_radiation_wavelength     0.71073
_diffrn_reflns_av_R_equivalents  0.0225
_diffrn_reflns_av_sigmaI/netI    0.0258
_diffrn_reflns_limit_h_max       18
_diffrn_reflns_limit_h_min       -17
_diffrn_reflns_limit_k_max       5
_diffrn_reflns_limit_k_min       -5
_diffrn_reflns_limit_l_max       19
_diffrn_reflns_limit_l_min       -18
_diffrn_reflns_number            3057
_diffrn_reflns_theta_full        28.23
_diffrn_reflns_theta_max         28.23
_diffrn_reflns_theta_min         2.86
_exptl_absorpt_coefficient_mu    65.083
_exptl_absorpt_correction_T_max  0.7457
_exptl_absorpt_correction_T_min  0.3028
_exptl_absorpt_correction_type   multi-scan
_exptl_absorpt_process_details   SADABS
_exptl_crystal_colour            black
_exptl_crystal_density_diffrn    7.146
_exptl_crystal_density_method    'not measured'
_exptl_crystal_description       needle
_exptl_crystal_F_000             1400
_exptl_crystal_size_max          0.25
_exptl_crystal_size_mid          0.03
_exptl_crystal_size_min          0.03
_refine_diff_density_max         2.541
_refine_diff_density_min         -1.505
_refine_diff_density_rms         0.346
_refine_ls_extinction_coef       0.00080(8)
_refine_ls_extinction_expression Fc^*^=kFc[1+0.001xFc^2^\l^3^/sin(2\q)]^-1/4^
_refine_ls_extinction_method     SHELXL
_refine_ls_goodness_of_fit_ref   1.072
_refine_ls_matrix_type           full
_refine_ls_number_parameters     59
_refine_ls_number_reflns         1102
_refine_ls_number_restraints     1
_refine_ls_restrained_S_all      1.074
_refine_ls_R_factor_all          0.0353
_refine_ls_R_factor_gt           0.0305
_refine_ls_shift/su_max          0.000
_refine_ls_shift/su_mean         0.000
_refine_ls_structure_factor_coef Fsqd
_refine_ls_weighting_details
'calc w=1/[\s^2^(Fo^2^)+(0.0319P)^2^+26.4299P] where P=(Fo^2^+2Fc^2^)/3'
_refine_ls_weighting_scheme      calc
_refine_ls_wR_factor_gt          0.0712
_refine_ls_wR_factor_ref         0.0737
_reflns_d_resolution_high        0.7514
_reflns_number_gt                991
_reflns_number_total             1102
_reflns_threshold_expression     >2sigma(I)
_cod_data_source_file            JSSC-2016-234-1.cif
_cod_data_source_block           1
_cod_depositor_comments
;
The following automatic conversions were performed:

data item '_symmetry_cell_setting' value 'Monoclinic' was changed to
'monoclinic' in accordance with the built-in table derived from the
CIF Core dictionary named 'cif_core.dic' version 2.4.5 last updated
on 2014-11-21.

Automatic conversion script
Id: cif_fix_values 8369 2020-08-20 11:38:08Z andrius 
;
_cod_original_sg_symbol_H-M      C2/m
_cod_database_code               1561612
_shelx_title                     ' Bi2 in C2/m'
_shelx_refln_list_code           4
_shelx_f_calc_maximum            909.00
_shelx_f_squared_multiplier      1.000
loop_
_symmetry_equiv_pos_as_xyz
'x, y, z'
'-x, y, -z'
'x+1/2, y+1/2, z'
'-x+1/2, y+1/2, -z'
'-x, -y, -z'
'x, -y, z'
'-x+1/2, -y+1/2, -z'
'x+1/2, -y+1/2, z'
loop_
_atom_site_label
_atom_site_type_symbol
_atom_site_fract_x
_atom_site_fract_y
_atom_site_fract_z
_atom_site_U_iso_or_equiv
_atom_site_adp_type
_atom_site_occupancy
_atom_site_symmetry_multiplicity
_atom_site_calc_flag
_atom_site_refinement_flags
_atom_site_disorder_assembly
_atom_site_disorder_group
Bi1 Bi 0.33470(4) 0.5000 0.12785(4) 0.02811(17) Uani 1 2 d S . .
Bi2 Bi 0.23622(17) 0.0000 0.35693(14) 0.0320(4) Uani 0.635(5) 2 d SP . .
Bi2A Bi 0.2101(3) 0.0000 0.3699(3) 0.0320(4) Uani 0.365(5) 2 d SP . .
Cu1 Cu 0.5424(4) 0.5000 0.4535(5) 0.0592(16) Uani 0.482(8) 2 d SP . .
Cu2 Cu 0.5000 0.681(4) 0.5000 0.0592(16) Uani 0.146(6) 2 d SP . .
Cu3 Cu 0.4521(9) 0.0000 0.4159(12) 0.0592(16) Uani 0.185(6) 2 d SP . .
Cu4 Cu 0.0000 0.212(8) 0.0000 0.087(9) Uani 0.145(9) 2 d SP . .
Se1 Se 0.36118(10) 0.5000 0.34084(9) 0.0209(3) Uani 1 2 d S . .
Se2 Se 0.18901(10) 0.0000 0.08315(9) 0.0203(3) Uani 1 2 d S . .
Se3 Se 0.37406(9) 0.0000 0.55726(9) 0.0216(3) Uani 1 2 d S . .
I1 I 0.52278(6) 0.0000 0.16506(7) 0.0254(2) Uani 1 2 d S . .
loop_
_atom_site_aniso_label
_atom_site_aniso_U_11
_atom_site_aniso_U_22
_atom_site_aniso_U_33
_atom_site_aniso_U_23
_atom_site_aniso_U_13
_atom_site_aniso_U_12
Bi1 0.0281(3) 0.0230(3) 0.0304(3) 0.000 0.0103(2) 0.000
Bi2 0.0231(9) 0.0344(3) 0.0290(6) 0.000 0.0028(5) 0.000
Bi2A 0.0231(9) 0.0344(3) 0.0290(6) 0.000 0.0028(5) 0.000
Cu1 0.033(2) 0.042(2) 0.076(3) 0.000 -0.001(2) 0.000
Cu2 0.033(2) 0.042(2) 0.076(3) 0.000 -0.001(2) 0.000
Cu3 0.033(2) 0.042(2) 0.076(3) 0.000 -0.001(2) 0.000
Cu4 0.049(10) 0.17(2) 0.035(9) 0.000 0.015(7) 0.000
Se1 0.0261(6) 0.0194(5) 0.0163(6) 0.000 0.0085(5) 0.000
Se2 0.0220(6) 0.0180(5) 0.0232(6) 0.000 0.0121(5) 0.000
Se3 0.0195(6) 0.0192(5) 0.0216(6) 0.000 0.0048(5) 0.000
I1 0.0212(4) 0.0220(4) 0.0298(5) 0.000 0.0081(3) 0.000
loop_
_atom_type_symbol
_atom_type_description
_atom_type_scat_dispersion_real
_atom_type_scat_dispersion_imag
_atom_type_scat_source
Cu Cu 0.3201 1.2651 'International Tables Vol C Tables 4.2.6.8 and 6.1.1.4'
Se Se -0.0929 2.2259 'International Tables Vol C Tables 4.2.6.8 and 6.1.1.4'
I I -0.4742 1.8119 'International Tables Vol C Tables 4.2.6.8 and 6.1.1.4'
Bi Bi -4.1077 10.2566 'International Tables Vol C Tables 4.2.6.8 and 6.1.1.4'
loop_
_geom_angle_atom_site_label_1
_geom_angle_atom_site_label_2
_geom_angle_atom_site_label_3
_geom_angle
_geom_angle_site_symmetry_1
_geom_angle_site_symmetry_3
Se2 Bi1 Se2 96.20(4) . 1_565
Se2 Bi1 Se2 91.34(3) . 7
Se2 Bi1 Se2 91.34(3) 1_565 7
Se2 Bi1 Se1 89.10(3) . .
Se2 Bi1 Se1 89.10(3) 1_565 .
Se2 Bi1 Se1 179.34(4) 7 .
Se2 Bi1 I1 170.63(3) . 1_565
Se2 Bi1 I1 91.57(2) 1_565 1_565
Se2 Bi1 I1 83.23(3) 7 1_565
Se1 Bi1 I1 96.27(3) . 1_565
Se2 Bi1 I1 91.57(2) . .
Se2 Bi1 I1 170.63(3) 1_565 .
Se2 Bi1 I1 83.23(3) 7 .
Se1 Bi1 I1 96.27(3) . .
I1 Bi1 I1 80.25(3) 1_565 .
Se3 Bi2 Cu3 59.6(3) . .
Se3 Bi2 Se1 84.71(6) . .
Cu3 Bi2 Se1 51.71(12) . .
Se3 Bi2 Se1 84.71(6) . 1_545
Cu3 Bi2 Se1 51.71(12) . 1_545
Se1 Bi2 Se1 95.78(9) . 1_545
Se3 Bi2 Se3 79.74(6) . 7_546
Cu3 Bi2 Se3 122.8(2) . 7_546
Se1 Bi2 Se3 163.24(7) . 7_546
Se1 Bi2 Se3 89.00(3) 1_545 7_546
Se3 Bi2 Se3 79.74(6) . 7_556
Cu3 Bi2 Se3 122.8(2) . 7_556
Se1 Bi2 Se3 89.00(3) . 7_556
Se1 Bi2 Se3 163.24(7) 1_545 7_556
Se3 Bi2 Se3 82.17(7) 7_546 7_556
Se3 Bi2A Se3 86.42(9) . 7_546
Se3 Bi2A Se3 86.42(9) . 7_556
Se3 Bi2A Se3 94.93(11) 7_546 7_556
Se3 Bi2A Cu1 94.00(15) . 3_445
Se3 Bi2A Cu1 48.15(6) 7_546 3_445
Se3 Bi2A Cu1 48.15(6) 7_556 3_445
Se3 Bi2A Se1 78.59(8) . .
Se3 Bi2A Se1 164.19(13) 7_546 .
Se3 Bi2A Se1 89.18(3) 7_556 .
Cu1 Bi2A Se1 137.25(6) 3_445 .
Se3 Bi2A Se1 78.59(8) . 1_545
Se3 Bi2A Se1 89.18(3) 7_546 1_545
Se3 Bi2A Se1 164.19(13) 7_556 1_545
Cu1 Bi2A Se1 137.25(6) 3_445 1_545
Se1 Bi2A Se1 83.00(9) . 1_545
Se3 Bi2A Cu3 54.5(3) . .
Se3 Bi2A Cu3 120.80(17) 7_546 .
Se3 Bi2A Cu3 120.80(17) 7_556 .
Cu1 Bi2A Cu3 148.5(3) 3_445 .
Se1 Bi2A Cu3 45.32(12) . .
Se1 Bi2A Cu3 45.32(12) 1_545 .
Cu2 Cu1 Cu2 69.6(12) . 5_666
Cu2 Cu1 Cu1 34.8(6) . 5_666
Cu2 Cu1 Cu1 34.8(6) 5_666 5_666
Cu2 Cu1 Se1 75.9(2) . .
Cu2 Cu1 Se1 75.9(2) 5_666 .
Cu1 Cu1 Se1 72.7(2) 5_666 .
Cu2 Cu1 Cu3 107.4(7) . .
Cu2 Cu1 Cu3 45.5(6) 5_666 .
Cu1 Cu1 Cu3 75.8(4) 5_666 .
Se1 Cu1 Cu3 62.0(3) . .
Cu2 Cu1 Cu3 45.5(6) . 1_565
Cu2 Cu1 Cu3 107.4(7) 5_666 1_565
Cu1 Cu1 Cu3 75.8(4) 5_666 1_565
Se1 Cu1 Cu3 62.0(3) . 1_565
Cu3 Cu1 Cu3 122.3(6) . 1_565
Cu2 Cu1 Se3 83.6(6) . 5_666
Cu2 Cu1 Se3 149.8(6) 5_666 5_666
Cu1 Cu1 Se3 117.27(18) 5_666 5_666
Se1 Cu1 Se3 111.44(14) . 5_666
Cu3 Cu1 Se3 164.1(5) . 5_666
Cu3 Cu1 Se3 57.5(3) 1_565 5_666
Cu2 Cu1 Se3 149.8(6) . 5_656
Cu2 Cu1 Se3 83.6(6) 5_666 5_656
Cu1 Cu1 Se3 117.27(18) 5_666 5_656
Se1 Cu1 Se3 111.44(14) . 5_656
Cu3 Cu1 Se3 57.5(3) . 5_656
Cu3 Cu1 Se3 164.1(5) 1_565 5_656
Se3 Cu1 Se3 117.7(2) 5_666 5_656
Cu2 Cu1 Se1 63.4(3) . 5_666
Cu2 Cu1 Se1 63.4(3) 5_666 5_666
Cu1 Cu1 Se1 56.9(3) 5_666 5_666
Se1 Cu1 Se1 129.7(3) . 5_666
Cu3 Cu1 Se1 102.4(4) . 5_666
Cu3 Cu1 Se1 102.4(4) 1_565 5_666
Se3 Cu1 Se1 92.78(13) 5_666 5_666
Se3 Cu1 Se1 92.78(13) 5_656 5_666
Cu2 Cu1 Cu3 27.1(5) . 5_666
Cu2 Cu1 Cu3 87.7(7) 5_666 5_666
Cu1 Cu1 Cu3 55.5(3) 5_666 5_666
Se1 Cu1 Cu3 99.8(3) . 5_666
Cu3 Cu1 Cu3 131.3(3) . 5_666
Cu3 Cu1 Cu3 49.9(6) 1_565 5_666
Se3 Cu1 Cu3 62.4(3) 5_666 5_666
Se3 Cu1 Cu3 144.3(3) 5_656 5_666
Se1 Cu1 Cu3 52.8(3) 5_666 5_666
Cu2 Cu1 Cu3 87.7(7) . 5_656
Cu2 Cu1 Cu3 27.1(5) 5_666 5_656
Cu1 Cu1 Cu3 55.5(3) 5_666 5_656
Se1 Cu1 Cu3 99.8(3) . 5_656
Cu3 Cu1 Cu3 49.9(6) . 5_656
Cu3 Cu1 Cu3 131.3(3) 1_565 5_656
Se3 Cu1 Cu3 144.3(3) 5_666 5_656
Se3 Cu1 Cu3 62.4(3) 5_656 5_656
Se1 Cu1 Cu3 52.8(3) 5_666 5_656
Cu3 Cu1 Cu3 96.3(6) 5_666 5_656
Cu2 Cu1 Bi2A 143.0(6) . 3
Cu2 Cu1 Bi2A 143.0(6) 5_666 3
Cu1 Cu1 Bi2A 166.5(4) 5_666 3
Se1 Cu1 Bi2A 120.8(2) . 3
Cu3 Cu1 Bi2A 109.6(4) . 3
Cu3 Cu1 Bi2A 109.6(4) 1_565 3
Se3 Cu1 Bi2A 59.89(13) 5_666 3
Se3 Cu1 Bi2A 59.89(13) 5_656 3
Se1 Cu1 Bi2A 109.56(17) 5_666 3
Cu3 Cu1 Bi2A 117.9(3) 5_666 3
Cu3 Cu1 Bi2A 117.9(3) 5_656 3
Cu1 Cu2 Cu1 110.4(12) . 5_666
Cu1 Cu2 Cu2 55.2(6) . 5_666
Cu1 Cu2 Cu2 55.2(6) 5_666 5_666
Cu1 Cu2 Cu3 132.5(6) . 5_666
Cu1 Cu2 Cu3 101.6(6) 5_666 5_666
Cu2 Cu2 Cu3 140.2(5) 5_666 5_666
Cu1 Cu2 Cu3 101.6(6) . 1_565
Cu1 Cu2 Cu3 132.5(6) 5_666 1_565
Cu2 Cu2 Cu3 140.2(5) 5_666 1_565
Cu3 Cu2 Cu3 79.6(10) 5_666 1_565
Cu1 Cu2 Se1 72.0(4) . .
Cu1 Cu2 Se1 87.3(5) 5_666 .
Cu2 Cu2 Se1 71.8(4) 5_666 .
Cu3 Cu2 Se1 145.2(7) 5_666 .
Cu3 Cu2 Se1 70.1(3) 1_565 .
Cu1 Cu2 Se1 87.3(5) . 5_666
Cu1 Cu2 Se1 72.0(4) 5_666 5_666
Cu2 Cu2 Se1 71.8(4) 5_666 5_666
Cu3 Cu2 Se1 70.1(3) 5_666 5_666
Cu3 Cu2 Se1 145.2(7) 1_565 5_666
Se1 Cu2 Se1 143.5(7) . 5_666
Cu1 Cu2 Se3 166.7(3) . 1_565
Cu1 Cu2 Se3 66.6(3) 5_666 1_565
Cu2 Cu2 Se3 120.3(3) 5_666 1_565
Cu3 Cu2 Se3 59.8(5) 5_666 1_565
Cu3 Cu2 Se3 74.1(7) 1_565 1_565
Se1 Cu2 Se3 94.76(10) . 1_565
Se1 Cu2 Se3 103.47(11) 5_666 1_565
Cu1 Cu2 Se3 66.6(3) . 5_666
Cu1 Cu2 Se3 166.7(3) 5_666 5_666
Cu2 Cu2 Se3 120.3(3) 5_666 5_666
Cu3 Cu2 Se3 74.1(7) 5_666 5_666
Cu3 Cu2 Se3 59.8(5) 1_565 5_666
Se1 Cu2 Se3 103.47(11) . 5_666
Se1 Cu2 Se3 94.76(10) 5_666 5_666
Se3 Cu2 Se3 119.4(6) 1_565 5_666
Cu1 Cu2 Cu2 124.8(6) . 5_676
Cu1 Cu2 Cu2 124.8(6) 5_666 5_676
Cu2 Cu2 Cu2 180.000(13) 5_666 5_676
Cu3 Cu2 Cu2 39.8(5) 5_666 5_676
Cu3 Cu2 Cu2 39.8(5) 1_565 5_676
Se1 Cu2 Cu2 108.2(4) . 5_676
Se1 Cu2 Cu2 108.2(4) 5_666 5_676
Se3 Cu2 Cu2 59.7(3) 1_565 5_676
Se3 Cu2 Cu2 59.7(3) 5_666 5_676
Cu2 Cu3 Cu2 100.4(10) 5_666 1_545
Cu2 Cu3 Cu3 50.2(5) 5_666 5_656
Cu2 Cu3 Cu3 50.2(5) 1_545 5_656
Cu2 Cu3 Se3 79.9(4) 5_666 5_656
Cu2 Cu3 Se3 79.9(4) 1_545 5_656
Cu3 Cu3 Se3 74.0(6) 5_656 5_656
Cu2 Cu3 Cu1 32.9(3) 5_666 .
Cu2 Cu3 Cu1 120.4(7) 1_545 .
Cu3 Cu3 Cu1 74.9(4) 5_656 .
Se3 Cu3 Cu1 62.5(3) 5_656 .
Cu2 Cu3 Cu1 120.4(7) 5_666 1_545
Cu2 Cu3 Cu1 32.9(3) 1_545 1_545
Cu3 Cu3 Cu1 74.9(4) 5_656 1_545
Se3 Cu3 Cu1 62.5(3) 5_656 1_545
Cu1 Cu3 Cu1 122.3(6) . 1_545
Cu2 Cu3 Se1 159.7(9) 5_666 1_545
Cu2 Cu3 Se1 68.0(4) 1_545 1_545
Cu3 Cu3 Se1 116.1(5) 5_656 1_545
Se3 Cu3 Se1 112.8(4) 5_656 1_545
Cu1 Cu3 Se1 167.2(8) . 1_545
Cu1 Cu3 Se1 58.61(11) 1_545 1_545
Cu2 Cu3 Se1 68.0(3) 5_666 .
Cu2 Cu3 Se1 159.7(9) 1_545 .
Cu3 Cu3 Se1 116.1(5) 5_656 .
Se3 Cu3 Se1 112.8(4) 5_656 .
Cu1 Cu3 Se1 58.61(11) . .
Cu1 Cu3 Se1 167.2(8) 1_545 .
Se1 Cu3 Se1 117.3(5) 1_545 .
Cu2 Cu3 Se3 68.3(6) 5_666 .
Cu2 Cu3 Se3 68.3(6) 1_545 .
Cu3 Cu3 Se3 54.6(7) 5_656 .
Se3 Cu3 Se3 128.7(6) 5_656 .
Cu1 Cu3 Se3 100.4(5) . .
Cu1 Cu3 Se3 100.4(5) 1_545 .
Se1 Cu3 Se3 91.7(4) 1_545 .
Se1 Cu3 Se3 91.7(4) . .
Cu2 Cu3 Bi2 104.7(6) 5_666 .
Cu2 Cu3 Bi2 104.7(6) 1_545 .
Cu3 Cu3 Bi2 113.3(10) 5_656 .
Se3 Cu3 Bi2 172.7(8) 5_656 .
Cu1 Cu3 Bi2 118.4(3) . .
Cu1 Cu3 Bi2 118.4(3) 1_545 .
Se1 Cu3 Bi2 64.6(3) 1_545 .
Se1 Cu3 Bi2 64.6(3) . .
Se3 Cu3 Bi2 58.7(3) . .
Cu2 Cu3 Cu1 20.3(3) 5_666 5_666
Cu2 Cu3 Cu1 101.9(8) 1_545 5_666
Cu3 Cu3 Cu1 55.2(4) 5_656 5_666
Se3 Cu3 Cu1 100.1(4) 5_656 5_666
Cu1 Cu3 Cu1 48.7(3) . 5_666
Cu1 Cu3 Cu1 130.1(6) 1_545 5_666
Se1 Cu3 Cu1 142.3(7) 1_545 5_666
Se1 Cu3 Cu1 61.31(18) . 5_666
Se3 Cu3 Cu1 52.2(3) . 5_666
Bi2 Cu3 Cu1 84.7(4) . 5_666
Cu2 Cu3 Cu1 101.9(8) 5_666 5_656
Cu2 Cu3 Cu1 20.3(3) 1_545 5_656
Cu3 Cu3 Cu1 55.2(4) 5_656 5_656
Se3 Cu3 Cu1 100.1(4) 5_656 5_656
Cu1 Cu3 Cu1 130.1(6) . 5_656
Cu1 Cu3 Cu1 48.7(3) 1_545 5_656
Se1 Cu3 Cu1 61.31(18) 1_545 5_656
Se1 Cu3 Cu1 142.3(7) . 5_656
Se3 Cu3 Cu1 52.2(3) . 5_656
Bi2 Cu3 Cu1 84.7(4) . 5_656
Cu1 Cu3 Cu1 96.3(6) 5_666 5_656
Cu4 Cu4 Cu4 180.000(1) 5 5_565
Cu4 Cu4 Se2 69.8(7) 5 5
Cu4 Cu4 Se2 110.2(7) 5_565 5
Cu4 Cu4 Se2 69.8(7) 5 .
Cu4 Cu4 Se2 110.2(7) 5_565 .
Se2 Cu4 Se2 139.7(13) 5 .
Cu4 Cu4 I1 117.8(6) 5 3_455
Cu4 Cu4 I1 62.2(6) 5_565 3_455
Se2 Cu4 I1 106.13(12) 5 3_455
Se2 Cu4 I1 92.51(10) . 3_455
Cu4 Cu4 I1 117.8(6) 5 7
Cu4 Cu4 I1 62.2(6) 5_565 7
Se2 Cu4 I1 92.51(10) 5 7
Se2 Cu4 I1 106.13(12) . 7
I1 Cu4 I1 124.4(13) 3_455 7
Cu1 Se1 Cu2 32.1(2) . .
Cu1 Se1 Cu2 32.1(2) . 5_666
Cu2 Se1 Cu2 36.5(7) . 5_666
Cu1 Se1 Cu3 59.4(2) . 1_565
Cu2 Se1 Cu3 41.9(5) . 1_565
Cu2 Se1 Cu3 77.9(5) 5_666 1_565
Cu1 Se1 Cu3 59.4(2) . .
Cu2 Se1 Cu3 77.9(5) . .
Cu2 Se1 Cu3 41.9(5) 5_666 .
Cu3 Se1 Cu3 117.3(5) 1_565 .
Cu1 Se1 Cu1 50.3(3) . 5_666
Cu2 Se1 Cu1 29.4(2) . 5_666
Cu2 Se1 Cu1 29.4(2) 5_666 5_666
Cu3 Se1 Cu1 65.9(4) 1_565 5_666
Cu3 Se1 Cu1 65.9(4) . 5_666
Cu1 Se1 Bi2 118.28(10) . .
Cu2 Se1 Bi2 115.4(3) . .
Cu2 Se1 Bi2 88.0(3) 5_666 .
Cu3 Se1 Bi2 145.4(4) 1_565 .
Cu3 Se1 Bi2 63.7(3) . .
Cu1 Se1 Bi2 86.40(9) 5_666 .
Cu1 Se1 Bi2 118.28(10) . 1_565
Cu2 Se1 Bi2 88.0(3) . 1_565
Cu2 Se1 Bi2 115.4(3) 5_666 1_565
Cu3 Se1 Bi2 63.7(3) 1_565 1_565
Cu3 Se1 Bi2 145.4(4) . 1_565
Cu1 Se1 Bi2 86.40(9) 5_666 1_565
Bi2 Se1 Bi2 95.78(9) . 1_565
Cu1 Se1 Bi1 109.08(16) . .
Cu2 Se1 Bi1 133.10(13) . .
Cu2 Se1 Bi1 133.10(12) 5_666 .
Cu3 Se1 Bi1 105.6(4) 1_565 .
Cu3 Se1 Bi1 105.6(4) . .
Cu1 Se1 Bi1 159.41(13) 5_666 .
Bi2 Se1 Bi1 107.07(5) . .
Bi2 Se1 Bi1 107.07(5) 1_565 .
Cu1 Se1 Bi2A 120.14(12) . .
Cu2 Se1 Bi2A 113.2(2) . .
Cu2 Se1 Bi2A 88.8(3) 5_666 .
Cu3 Se1 Bi2A 139.6(4) 1_565 .
Cu3 Se1 Bi2A 68.3(3) . .
Cu1 Se1 Bi2A 83.84(11) 5_666 .
Bi2 Se1 Bi2A 6.70(4) . .
Bi2 Se1 Bi2A 89.42(8) 1_565 .
Bi1 Se1 Bi2A 111.17(7) . .
Cu1 Se1 Bi2A 120.14(12) . 1_565
Cu2 Se1 Bi2A 88.8(3) . 1_565
Cu2 Se1 Bi2A 113.2(2) 5_666 1_565
Cu3 Se1 Bi2A 68.3(3) 1_565 1_565
Cu3 Se1 Bi2A 139.6(4) . 1_565
Cu1 Se1 Bi2A 83.84(11) 5_666 1_565
Bi2 Se1 Bi2A 89.42(8) . 1_565
Bi2 Se1 Bi2A 6.70(4) 1_565 1_565
Bi1 Se1 Bi2A 111.17(7) . 1_565
Bi2A Se1 Bi2A 83.00(9) . 1_565
Cu4 Se2 Cu4 40.3(13) 5 .
Cu4 Se2 Bi1 151.2(7) 5 .
Cu4 Se2 Bi1 111.3(7) . .
Cu4 Se2 Bi1 111.3(7) 5 1_545
Cu4 Se2 Bi1 151.2(7) . 1_545
Bi1 Se2 Bi1 96.20(4) . 1_545
Cu4 Se2 Bi1 83.73(5) 5 7
Cu4 Se2 Bi1 83.73(5) . 7
Bi1 Se2 Bi1 88.66(3) . 7
Bi1 Se2 Bi1 88.66(3) 1_545 7
Cu3 Se3 Cu1 60.04(12) 5_656 5_666
Cu3 Se3 Cu1 60.04(12) 5_656 5_656
Cu1 Se3 Cu1 117.7(2) 5_666 5_656
Cu3 Se3 Cu2 40.3(3) 5_656 5_666
Cu1 Se3 Cu2 29.8(3) 5_666 5_666
Cu1 Se3 Cu2 89.8(3) 5_656 5_666
Cu3 Se3 Cu2 40.3(3) 5_656 1_545
Cu1 Se3 Cu2 89.8(3) 5_666 1_545
Cu1 Se3 Cu2 29.8(3) 5_656 1_545
Cu2 Se3 Cu2 60.6(6) 5_666 1_545
Cu3 Se3 Bi2A 123.3(4) 5_656 .
Cu1 Se3 Bi2A 99.29(13) 5_666 .
Cu1 Se3 Bi2A 99.29(13) 5_656 .
Cu2 Se3 Bi2A 94.65(8) 5_666 .
Cu2 Se3 Bi2A 94.65(8) 1_545 .
Cu3 Se3 Bi2 113.0(4) 5_656 .
Cu1 Se3 Bi2 94.08(14) 5_666 .
Cu1 Se3 Bi2 94.08(14) 5_656 .
Cu2 Se3 Bi2 85.79(6) 5_666 .
Cu2 Se3 Bi2 85.79(6) 1_545 .
Bi2A Se3 Bi2 10.27(5) . .
Cu3 Se3 Cu3 51.3(6) 5_656 .
Cu1 Se3 Cu3 65.32(17) 5_666 .
Cu1 Se3 Cu3 65.32(17) 5_656 .
Cu2 Se3 Cu3 37.6(3) 5_666 .
Cu2 Se3 Cu3 37.6(3) 1_545 .
Bi2A Se3 Cu3 72.0(3) . .
Bi2 Se3 Cu3 61.7(3) . .
Cu3 Se3 Bi2A 121.9(2) 5_656 7_556
Cu1 Se3 Bi2A 71.96(14) 5_666 7_556
Cu1 Se3 Bi2A 162.07(17) 5_656 7_556
Cu2 Se3 Bi2A 101.6(3) 5_666 7_556
Cu2 Se3 Bi2A 161.0(3) 1_545 7_556
Bi2A Se3 Bi2A 93.58(9) . 7_556
Bi2 Se3 Bi2A 100.45(9) . 7_556
Cu3 Se3 Bi2A 131.26(8) . 7_556
Cu3 Se3 Bi2A 121.9(2) 5_656 7_546
Cu1 Se3 Bi2A 162.07(17) 5_666 7_546
Cu1 Se3 Bi2A 71.96(14) 5_656 7_546
Cu2 Se3 Bi2A 161.0(3) 5_666 7_546
Cu2 Se3 Bi2A 101.6(3) 1_545 7_546
Bi2A Se3 Bi2A 93.58(9) . 7_546
Bi2 Se3 Bi2A 100.45(9) . 7_546
Cu3 Se3 Bi2A 131.26(8) . 7_546
Bi2A Se3 Bi2A 94.93(11) 7_556 7_546
Cu3 Se3 Bi2 127.2(2) 5_656 7_546
Cu1 Se3 Bi2 157.67(15) 5_666 7_546
Cu1 Se3 Bi2 78.48(13) 5_656 7_546
Cu2 Se3 Bi2 167.1(3) 5_666 7_546
Cu2 Se3 Bi2 108.1(3) 1_545 7_546
Bi2A Se3 Bi2 92.56(7) . 7_546
Bi2 Se3 Bi2 100.26(6) . 7_546
Cu3 Se3 Bi2 136.83(8) . 7_546
Bi2A Se3 Bi2 88.56(9) 7_556 7_546
Bi2A Se3 Bi2 6.52(4) 7_546 7_546
Cu3 Se3 Bi2 127.2(2) 5_656 7_556
Cu1 Se3 Bi2 78.48(13) 5_666 7_556
Cu1 Se3 Bi2 157.67(15) 5_656 7_556
Cu2 Se3 Bi2 108.1(3) 5_666 7_556
Cu2 Se3 Bi2 167.1(3) 1_545 7_556
Bi2A Se3 Bi2 92.56(7) . 7_556
Bi2 Se3 Bi2 100.26(6) . 7_556
Cu3 Se3 Bi2 136.83(8) . 7_556
Bi2A Se3 Bi2 6.52(4) 7_556 7_556
Bi2A Se3 Bi2 88.56(9) 7_546 7_556
Bi2 Se3 Bi2 82.17(7) 7_546 7_556
Cu4 I1 Cu4 55.6(13) 3_545 7
Cu4 I1 Bi1 77.7(4) 3_545 1_545
Cu4 I1 Bi1 112.8(4) 7 1_545
Cu4 I1 Bi1 112.8(4) 3_545 .
Cu4 I1 Bi1 77.7(4) 7 .
Bi1 I1 Bi1 80.25(3) 1_545 .
loop_
_geom_bond_atom_site_label_1
_geom_bond_atom_site_label_2
_geom_bond_distance
_geom_bond_site_symmetry_2
Bi1 Se2 2.8172(9) .
Bi1 Se2 2.8172(9) 1_565
Bi1 Se2 2.9575(14) 7
Bi1 Se1 2.9730(14) .
Bi1 I1 3.2537(8) 1_565
Bi1 I1 3.2537(8) .
Bi2 Se3 2.720(2) .
Bi2 Cu3 2.804(13) .
Bi2 Se1 2.8266(19) .
Bi2 Se1 2.8266(19) 1_545
Bi2 Se3 3.191(2) 7_546
Bi2 Se3 3.191(2) 7_556
Bi2A Se3 2.711(4) .
Bi2A Se3 2.846(3) 7_546
Bi2A Se3 2.846(3) 7_556
Bi2A Cu1 3.128(7) 3_445
Bi2A Se1 3.164(3) .
Bi2A Se1 3.164(3) 1_545
Bi2A Cu3 3.208(14) .
Cu1 Cu2 1.328(11) .
Cu1 Cu2 1.328(11) 5_666
Cu1 Cu1 2.181(13) 5_666
Cu1 Se1 2.374(5) .
Cu1 Cu3 2.394(6) .
Cu1 Cu3 2.394(6) 1_565
Cu1 Se3 2.450(3) 5_666
Cu1 Se3 2.450(3) 5_656
Cu1 Se1 2.705(6) 5_666
Cu1 Cu3 2.816(12) 5_666
Cu1 Cu3 2.816(12) 5_656
Cu1 Bi2A 3.128(7) 3
Cu2 Cu1 1.328(11) 5_666
Cu2 Cu2 1.52(3) 5_666
Cu2 Cu3 1.743(16) 5_666
Cu2 Cu3 1.743(16) 1_565
Cu2 Se1 2.421(5) .
Cu2 Se1 2.421(5) 5_666
Cu2 Se3 2.653(8) 1_565
Cu2 Se3 2.653(8) 5_666
Cu2 Cu2 2.68(3) 5_676
Cu3 Cu2 1.743(16) 5_666
Cu3 Cu2 1.743(16) 1_545
Cu3 Cu3 2.23(3) 5_656
Cu3 Se3 2.330(13) 5_656
Cu3 Cu1 2.394(6) 1_545
Cu3 Se1 2.455(7) 1_545
Cu3 Se1 2.455(7) .
Cu3 Se3 2.747(17) .
Cu3 Cu1 2.816(12) 5_666
Cu3 Cu1 2.816(12) 5_656
Cu4 Cu4 1.78(6) 5
Cu4 Cu4 2.42(6) 5_565
Cu4 Se2 2.576(11) 5
Cu4 Se2 2.576(11) .
Cu4 I1 2.592(15) 3_455
Cu4 I1 2.592(15) 7
Se1 Cu2 2.421(5) 5_666
Se1 Cu3 2.455(7) 1_565
Se1 Cu1 2.705(6) 5_666
Se1 Bi2 2.8266(19) 1_565
Se1 Bi2A 3.164(3) 1_565
Se2 Cu4 2.576(11) 5
Se2 Bi1 2.8172(9) 1_545
Se2 Bi1 2.9575(14) 7
Se3 Cu3 2.330(13) 5_656
Se3 Cu1 2.450(3) 5_666
Se3 Cu1 2.450(3) 5_656
Se3 Cu2 2.653(9) 5_666
Se3 Cu2 2.653(8) 1_545
Se3 Bi2A 2.846(3) 7_556
Se3 Bi2A 2.846(3) 7_546
Se3 Bi2 3.191(2) 7_546
Se3 Bi2 3.191(2) 7_556
I1 Cu4 2.592(15) 3_545
I1 Cu4 2.592(15) 7
I1 Bi1 3.2537(8) 1_545
loop_
_refln_index_h
_refln_index_k
_refln_index_l
_refln_F_squared_calc
_refln_F_squared_meas
_refln_F_squared_sigma
_refln_observed_status
2 0 0 70729.52 75513.83 1855.07 o
4 0 0 3942.03 3086.09 76.35 o
6 0 0 99951.77 102206.70 1381.88 o
8 0 0 7186.52 7587.02 160.31 o
10 0 0 11740.91 11129.57 335.08 o
12 0 0 166.25 268.97 186.85 o
14 0 0 1822.74 1677.17 295.67 o
16 0 0 268.05 122.42 227.92 o
1 1 0 6564.66 6484.33 136.68 o
3 1 0 369806.94 387149.88 5096.93 o
5 1 0 76113.30 75210.66 1448.50 o
7 1 0 14041.03 12964.49 249.26 o
9 1 0 19138.99 18591.73 301.68 o
11 1 0 17.89 62.26 86.11 o
13 1 0 17303.50 16896.80 309.06 o
15 1 0 4863.53 4790.50 448.18 o
0 2 0 826275.63 664262.00 15958.25 o
2 2 0 53334.36 50051.58 723.62 o
4 2 0 33.45 31.94 44.53 o
6 2 0 53313.17 56160.46 839.98 o
8 2 0 2310.31 2646.24 122.33 o
10 2 0 10364.23 10419.91 197.50 o
12 2 0 130.05 142.27 79.30 o
14 2 0 1904.41 2190.63 137.38 o
1 3 0 1304.76 1726.65 219.52 o
3 3 0 151398.33 142791.66 1964.93 o
5 3 0 26230.48 27039.46 473.75 o
7 3 0 6327.28 5440.26 182.01 o
9 3 0 12312.99 12497.74 424.54 o
11 3 0 2.92 85.69 69.15 o
13 3 0 7888.57 7830.16 286.95 o
0 4 0 231255.86 236434.53 4432.31 o
2 4 0 13597.22 14150.88 248.67 o
4 4 0 97.97 242.62 74.87 o
6 4 0 21978.50 21482.87 387.96 o
8 4 0 934.92 750.30 167.45 o
10 4 0 2967.68 3768.25 225.09 o
1 5 0 444.81 381.46 203.14 o
3 5 0 35496.40 37855.00 811.08 o
5 5 0 6638.55 6734.74 380.22 o
7 5 0 838.29 1046.63 150.45 o
-16 0 1 205.36 230.56 228.17 o
-14 0 1 6110.33 5943.25 451.95 o
-12 0 1 59745.13 54842.18 1636.70 o
-10 0 1 85258.15 79419.07 1118.20 o
-8 0 1 166171.61 168668.83 2264.68 o
-6 0 1 393847.16 414283.00 10020.94 o
-4 0 1 9542.29 9237.65 210.16 o
-2 0 1 1527.78 2057.95 96.68 o
2 0 1 20295.77 22074.01 961.62 o
4 0 1 18800.99 17917.27 390.82 o
6 0 1 607.50 418.25 163.41 o
8 0 1 2168.31 2415.02 173.89 o
10 0 1 30290.41 29783.98 693.71 o
12 0 1 6612.60 6579.98 430.14 o
14 0 1 7001.83 7731.79 526.66 o
16 0 1 4646.26 3791.62 460.58 o
-17 1 1 2565.29 2572.09 277.88 o
-15 1 1 2579.77 2559.74 338.24 o
-13 1 1 15809.06 15742.23 291.29 o
-11 1 1 23004.17 23159.94 366.13 o
-9 1 1 118721.99 113485.54 1608.14 o
-7 1 1 6929.33 5890.83 167.94 o
-5 1 1 58552.96 62716.42 886.76 o
-3 1 1 420916.00 442118.13 5219.91 o
-1 1 1 219.04 266.31 39.19 o
1 1 1 2931.84 2998.39 60.89 o
3 1 1 43.73 138.24 37.05 o
5 1 1 109940.80 111169.16 1091.38 o
7 1 1 94857.63 88093.00 1486.32 o
9 1 1 545.10 575.10 67.48 o
11 1 1 13120.08 12801.30 423.67 o
13 1 1 556.49 636.83 118.47 o
15 1 1 5018.04 5087.73 352.74 o
-16 2 1 108.01 64.43 174.95 o
-14 2 1 4581.46 4156.11 172.23 o
-12 2 1 43262.02 42635.15 544.76 o
-10 2 1 56263.12 56804.82 800.97 o
-8 2 1 108065.22 106399.45 1515.36 o
-6 2 1 239816.52 237438.27 3203.24 o
-4 2 1 6619.80 6069.53 127.04 o
-2 2 1 1181.25 1085.10 59.44 o
0 2 1 83.87 55.87 66.98 o
2 2 1 11814.94 11889.26 218.89 o
4 2 1 10580.46 10547.92 195.38 o
6 2 1 575.97 532.60 85.54 o
8 2 1 1702.01 2056.50 92.54 o
10 2 1 20003.83 19742.14 313.53 o
12 2 1 4476.69 4185.90 208.79 o
14 2 1 4716.64 4515.60 359.69 o
-13 3 1 7520.18 8468.95 209.94 o
-11 3 1 11523.26 11336.33 292.62 o
-9 3 1 54709.52 54528.70 886.09 o
-7 3 1 2835.23 3422.76 158.18 o
-5 3 1 26619.16 24818.09 441.57 o
-3 3 1 151032.27 150698.11 1859.12 o
-1 3 1 69.35 171.47 62.85 o
1 3 1 3605.79 2748.50 108.76 o
3 3 1 21.85 188.34 53.83 o
5 3 1 38151.51 39311.40 570.53 o
7 3 1 41953.57 39893.52 503.01 o
9 3 1 282.14 416.53 71.62 o
11 3 1 6371.33 6131.16 176.21 o
13 3 1 407.31 403.88 140.96 o
-12 4 1 17147.15 17573.20 359.89 o
-10 4 1 17989.22 19768.83 402.11 o
-8 4 1 36735.57 35539.60 1108.11 o
-6 4 1 72623.78 71984.35 1109.79 o
-4 4 1 3862.16 4578.42 225.59 o
-2 4 1 809.96 952.50 91.22 o
0 4 1 186.99 281.33 114.01 o
2 4 1 3524.56 3552.15 143.17 o
4 4 1 2739.45 2942.83 137.27 o
6 4 1 280.30 624.20 82.48 o
8 4 1 1043.98 1121.39 105.21 o
10 4 1 7209.56 7429.94 276.50 o
-7 5 1 1137.24 1602.14 178.64 o
-5 5 1 6274.61 7465.74 297.01 o
-3 5 1 38311.35 40116.66 858.09 o
-1 5 1 149.79 236.44 93.26 o
1 5 1 1761.28 1752.58 159.61 o
3 5 1 259.59 632.18 120.12 o
5 5 1 8149.63 7023.77 261.99 o
7 5 1 9282.98 10430.27 463.63 o
-16 0 2 44402.69 43774.01 1498.72 o
-14 0 2 11914.04 10954.58 590.58 o
-12 0 2 16060.97 15709.57 701.43 o
-10 0 2 10944.81 9869.49 192.92 o
-8 0 2 2863.58 4011.69 307.86 o
-6 0 2 179.20 327.15 67.24 o
-4 0 2 48419.99 48689.08 932.68 o
-2 0 2 38222.46 36283.40 589.96 o
0 0 2 1336.12 1818.64 162.48 o
2 0 2 36751.62 38388.46 746.81 o
4 0 2 140175.80 139962.67 2591.18 o
6 0 2 590.92 720.06 93.20 o
8 0 2 17703.85 16959.51 555.64 o
10 0 2 77.52 128.16 98.43 o
12 0 2 35859.05 34178.73 1183.16 o
14 0 2 5356.72 4705.97 466.89 o
16 0 2 5755.69 6813.57 552.23 o
-17 1 2 4871.29 5277.15 637.55 o
-15 1 2 13398.23 12546.42 478.47 o
-13 1 2 48573.51 46143.03 646.24 o
-11 1 2 32182.38 31183.28 557.55 o
-9 1 2 28348.32 28313.48 490.59 o
-7 1 2 54803.55 53468.21 789.22 o
-5 1 2 4726.78 4996.17 132.55 o
-3 1 2 131720.09 133305.09 1606.43 o
-1 1 2 72265.55 74633.11 817.45 o
1 1 2 118732.39 111187.23 1158.17 o
3 1 2 688.66 815.94 42.53 o
5 1 2 119354.50 116803.36 1145.73 o
7 1 2 14679.73 13660.20 219.79 o
9 1 2 2719.64 3229.46 160.98 o
11 1 2 161.23 420.42 100.73 o
13 1 2 14070.03 14209.18 392.24 o
15 1 2 2235.16 2591.46 274.89 o
-16 2 2 30498.34 30614.46 690.40 o
-14 2 2 9736.06 9744.73 375.87 o
-12 2 2 8757.94 9012.92 308.61 o
-10 2 2 5898.28 6059.42 208.15 o
-8 2 2 378.66 535.70 84.33 o
-6 2 2 333.96 339.04 92.56 o
-4 2 2 18108.25 17922.56 222.39 o
-2 2 2 33258.14 31080.28 592.72 o
0 2 2 123.86 59.78 65.82 o
2 2 2 12255.86 12269.75 200.70 o
4 2 2 101442.34 99241.79 1059.40 o
6 2 2 499.32 492.85 55.37 o
8 2 2 14684.50 14128.81 230.84 o
10 2 2 516.54 351.58 81.26 o
12 2 2 27663.28 25165.33 431.98 o
14 2 2 3063.70 2950.27 250.60 o
-15 3 2 7827.86 7135.44 207.29 o
-13 3 2 26524.47 27993.95 510.05 o
-11 3 2 15270.71 16095.59 385.48 o
-9 3 2 13573.24 12764.69 316.58 o
-7 3 2 28400.82 26327.07 482.93 o
-5 3 2 1603.52 1703.76 96.19 o
-3 3 2 40115.55 41664.20 481.99 o
-1 3 2 28645.55 27931.74 516.63 o
1 3 2 33121.51 34293.79 483.54 o
3 3 2 577.73 670.48 108.91 o
5 3 2 42794.02 44923.36 540.36 o
7 3 2 5486.04 5803.68 209.53 o
9 3 2 807.21 1005.28 87.31 o
11 3 2 111.02 177.57 92.41 o
13 3 2 7497.44 7922.85 319.59 o
-12 4 2 3384.26 3041.89 188.27 o
-10 4 2 3529.13 4222.00 196.76 o
-8 4 2 113.10 11.16 131.59 o
-6 4 2 68.24 141.77 90.62 o
-4 4 2 5240.55 5547.43 201.30 o
-2 4 2 9468.24 9779.66 183.49 o
0 4 2 2.99 25.57 51.92 o
2 4 2 3111.45 3310.21 128.70 o
4 4 2 28543.55 28224.34 430.57 o
6 4 2 371.50 493.74 92.24 o
8 4 2 3409.43 3431.23 253.36 o
10 4 2 281.67 429.03 129.36 o
-7 5 2 7580.66 8844.69 334.69 o
-5 5 2 20.47 93.68 130.38 o
-3 5 2 8921.46 9757.83 336.50 o
-1 5 2 4537.67 5391.08 327.74 o
1 5 2 6297.32 6888.54 240.30 o
3 5 2 60.92 -39.70 99.40 o
5 5 2 10312.17 11312.24 332.89 o
-18 0 3 512.73 628.44 273.67 o
-16 0 3 8440.20 8194.27 537.63 o
-14 0 3 126.65 106.46 194.34 o
-12 0 3 1331.79 1501.74 130.57 o
-10 0 3 26534.67 21930.98 796.72 o
-8 0 3 6991.73 8143.88 431.27 o
-6 0 3 55632.91 56001.57 962.00 o
-4 0 3 4680.58 4195.11 155.32 o
-2 0 3 85686.64 86560.75 1194.92 o
0 0 3 14360.82 13082.59 671.29 o
2 0 3 144277.45 156422.73 2880.90 o
4 0 3 8760.31 9002.81 261.05 o
6 0 3 149023.28 157172.45 2948.80 o
8 0 3 60448.93 58253.54 1207.40 o
10 0 3 20852.83 21219.53 567.74 o
12 0 3 5697.59 6013.05 448.91 o
14 0 3 26909.80 29710.70 1146.37 o
-17 1 3 69.43 125.06 166.69 o
-15 1 3 484.22 659.92 179.07 o
-13 1 3 1488.01 1136.76 191.28 o
-11 1 3 10612.70 10131.35 265.00 o
-9 1 3 33244.93 33245.62 554.15 o
-7 1 3 1203.79 1413.77 94.37 o
-5 1 3 137070.05 141089.05 1709.69 o
-3 1 3 8533.75 10591.02 158.46 o
-1 1 3 35576.09 37337.74 515.03 o
1 1 3 24629.70 25327.09 362.82 o
3 1 3 72946.77 73532.88 810.63 o
5 1 3 34426.58 30717.53 707.97 o
7 1 3 831.94 1044.55 205.84 o
9 1 3 110986.26 110145.84 1972.86 o
11 1 3 48073.34 46570.11 862.09 o
13 1 3 511.32 414.44 161.35 o
15 1 3 1498.10 1729.00 247.37 o
-16 2 3 6466.99 7112.94 314.26 o
-14 2 3 108.35 403.51 96.03 o
-12 2 3 851.69 1062.52 124.65 o
-10 2 3 17452.27 17368.71 369.18 o
-8 2 3 4655.01 5146.83 348.67 o
-6 2 3 34109.88 33448.58 536.58 o
-4 2 3 3143.29 3164.33 136.61 o
-2 2 3 43371.06 42837.73 547.07 o
0 2 3 8424.21 7344.52 114.52 o
2 2 3 75140.95 75819.01 835.95 o
4 2 3 5147.07 4954.84 102.09 o
6 2 3 92308.38 92847.34 1013.07 o
8 2 3 40705.34 38444.00 560.47 o
10 2 3 13662.80 13512.30 401.23 o
12 2 3 4165.22 3902.76 227.09 o
14 2 3 20374.26 20585.72 538.95 o
-15 3 3 407.03 323.92 90.58 o
-13 3 3 814.44 951.25 237.28 o
-11 3 3 4433.08 5061.14 217.95 o
-9 3 3 13558.19 13065.97 320.94 o
-7 3 3 571.74 640.10 137.54 o
-5 3 3 51403.71 47778.30 547.88 o
-3 3 3 1959.56 2580.39 89.23 o
-1 3 3 12658.50 12459.19 296.43 o
1 3 3 12956.32 11710.06 180.82 o
3 3 3 35208.46 32739.96 405.52 o
5 3 3 13787.01 14826.82 234.03 o
7 3 3 79.28 100.08 60.34 o
9 3 3 55856.84 54437.16 741.88 o
11 3 3 23230.96 23588.59 501.74 o
-12 4 3 304.14 357.61 142.41 o
-10 4 3 5695.70 5609.31 488.31 o
-8 4 3 1757.62 1531.91 142.30 o
-6 4 3 10946.50 11195.57 428.60 o
-4 4 3 774.81 1070.50 116.31 o
-2 4 3 10084.76 10930.89 237.85 o
0 4 3 3578.47 3749.49 132.26 o
2 4 3 18641.18 19265.87 316.16 o
4 4 3 1059.96 813.36 113.29 o
6 4 3 28122.57 28141.11 552.47 o
8 4 3 13377.32 13948.96 500.67 o
10 4 3 4733.49 5125.24 300.80 o
-7 5 3 191.68 302.40 132.45 o
-5 5 3 9649.71 10410.46 347.93 o
-3 5 3 355.30 311.65 129.06 o
-1 5 3 2114.95 2427.93 148.15 o
1 5 3 3767.58 3938.70 203.76 o
3 5 3 9282.10 10240.87 407.36 o
5 5 3 4095.82 4262.52 235.12 o
-18 0 4 935.55 1506.93 341.18 o
-16 0 4 201.07 373.90 215.10 o
-14 0 4 1599.42 1277.63 282.13 o
-12 0 4 13252.50 12040.83 603.75 o
-10 0 4 9209.79 7941.04 446.23 o
-8 0 4 26123.44 26099.40 529.03 o
-6 0 4 3300.29 2405.63 157.91 o
-4 0 4 64736.32 62944.51 899.58 o
-2 0 4 50250.63 51801.59 732.86 o
0 0 4 473093.59 503236.22 17838.52 o
2 0 4 219602.11 231899.13 4250.98 o
4 0 4 15999.80 17429.37 430.52 o
6 0 4 71081.38 74794.59 1491.16 o
8 0 4 26812.18 27993.77 677.17 o
10 0 4 53459.34 55569.32 1962.58 o
12 0 4 2069.13 1688.92 307.52 o
14 0 4 114.44 133.92 227.94 o
-17 1 4 114.33 433.58 187.84 o
-15 1 4 2090.42 2677.64 267.33 o
-13 1 4 916.50 1401.89 135.20 o
-11 1 4 24578.52 25871.52 496.67 o
-9 1 4 12764.52 11809.30 266.92 o
-7 1 4 4540.39 4271.61 132.12 o
-5 1 4 16505.35 15830.13 242.42 o
-3 1 4 250689.56 247535.45 3109.31 o
-1 1 4 6005.85 4631.12 234.60 o
1 1 4 93063.84 100995.66 1341.82 o
3 1 4 290351.94 298413.38 3983.46 o
5 1 4 40441.22 38122.98 1348.83 o
7 1 4 88.19 267.65 122.03 o
9 1 4 18.82 136.62 90.00 o
11 1 4 2777.37 2892.00 192.37 o
13 1 4 22160.31 21192.58 655.81 o
-16 2 4 294.41 441.99 134.37 o
-14 2 4 676.95 1182.03 145.34 o
-12 2 4 11147.06 10701.80 297.32 o
-10 2 4 9319.98 8738.77 259.25 o
-8 2 4 20999.08 20625.45 388.85 o
-6 2 4 5448.87 4757.72 134.70 o
-4 2 4 45398.70 42372.30 570.68 o
-2 2 4 18809.45 20155.68 370.57 o
0 2 4 300204.53 296310.59 2824.02 o
2 2 4 109134.57 110906.98 1099.25 o
4 2 4 6541.21 7039.10 124.87 o
6 2 4 60017.13 58130.04 670.37 o
8 2 4 14572.02 14598.65 368.59 o
10 2 4 34097.75 32704.51 666.85 o
12 2 4 2353.92 2785.55 472.12 o
-15 3 4 796.25 1279.57 143.43 o
-13 3 4 521.89 374.07 122.21 o
-11 3 4 10458.85 9640.88 392.94 o
-9 3 4 6283.55 6564.73 257.00 o
-7 3 4 1296.94 1237.62 205.73 o
-5 3 4 7529.54 7107.85 175.59 o
-3 3 4 94684.71 95914.49 1132.54 o
-1 3 4 1055.02 1383.59 77.15 o
1 3 4 43606.42 41868.42 489.31 o
3 3 4 110252.17 110106.13 1313.56 o
5 3 4 19823.45 19494.14 375.72 o
7 3 4 695.84 746.03 140.24 o
9 3 4 36.41 129.81 100.90 o
11 3 4 2272.38 2331.59 280.57 o
-12 4 4 3685.57 4380.58 276.97 o
-10 4 4 3358.39 3193.20 204.39 o
-8 4 4 5227.01 5311.04 223.00 o
-6 4 4 1895.25 1841.06 392.95 o
-4 4 4 10081.49 11432.09 336.59 o
-2 4 4 4951.67 5117.93 180.06 o
0 4 4 84553.50 85266.57 1262.50 o
2 4 4 32808.26 32346.68 581.73 o
4 4 4 3453.12 3330.87 183.27 o
6 4 4 23045.65 22063.90 478.14 o
8 4 4 5893.04 6565.95 260.82 o
-7 5 4 459.59 246.01 196.77 o
-5 5 4 1220.87 1626.86 186.17 o
-3 5 4 26307.05 25847.23 614.18 o
-1 5 4 344.09 301.10 108.07 o
1 5 4 10200.48 10637.31 304.97 o
3 5 4 27236.56 26930.15 553.01 o
5 5 4 4188.39 4660.74 371.45 o
-18 0 5 1782.22 1828.66 356.48 o
-16 0 5 1921.63 2201.31 356.50 o
-14 0 5 5309.62 6018.92 465.91 o
-12 0 5 19954.98 19479.88 800.12 o
-10 0 5 27101.70 26957.35 929.13 o
-8 0 5 144152.20 147064.92 2086.96 o
-6 0 5 295081.81 317461.34 5591.31 o
-4 0 5 392.67 637.31 198.60 o
-2 0 5 226981.55 232599.89 5695.13 o
0 0 5 7361.04 8703.93 381.44 o
2 0 5 25408.42 27844.57 629.07 o
4 0 5 94820.42 92681.03 1803.11 o
6 0 5 14188.09 14398.67 837.00 o
8 0 5 5286.75 6318.62 355.46 o
10 0 5 29931.99 30993.40 1110.79 o
12 0 5 4169.71 3703.85 420.94 o
14 0 5 11488.91 12647.44 730.08 o
-17 1 5 465.74 889.56 324.84 o
-15 1 5 10168.19 8942.78 671.17 o
-13 1 5 25930.16 26572.23 522.23 o
-11 1 5 13355.90 12952.59 312.00 o
-9 1 5 44090.77 46077.20 838.06 o
-7 1 5 66835.15 66696.66 1400.24 o
-5 1 5 106238.19 110309.88 1249.94 o
-3 1 5 154371.59 151767.64 1677.83 o
-1 1 5 33798.10 34941.53 981.40 o
1 1 5 48072.47 49759.16 709.99 o
3 1 5 6736.39 6120.83 165.62 o
5 1 5 7916.85 9097.64 225.87 o
7 1 5 186467.83 191526.41 4496.91 o
9 1 5 5453.17 5258.17 224.03 o
11 1 5 838.12 1048.27 222.95 o
13 1 5 4852.15 5526.33 404.44 o
-16 2 5 1426.26 1737.75 215.25 o
-14 2 5 3531.71 3643.65 246.76 o
-12 2 5 14366.58 14888.96 389.31 o
-10 2 5 17530.84 17835.50 374.67 o
-8 2 5 91521.93 89959.27 1301.57 o
-6 2 5 183606.39 175857.42 2496.62 o
-4 2 5 55.41 162.00 77.91 o
-2 2 5 136119.55 141516.17 1914.95 o
0 2 5 5297.49 5456.27 120.74 o
2 2 5 16001.95 16310.25 238.22 o
4 2 5 65038.18 61987.14 752.27 o
6 2 5 9647.44 8972.90 348.87 o
8 2 5 2921.92 3219.45 243.06 o
10 2 5 21177.83 20414.66 646.09 o
12 2 5 2588.15 2786.23 285.50 o
-15 3 5 5843.13 5960.99 282.72 o
-13 3 5 13745.70 12587.52 385.36 o
-11 3 5 6513.00 6241.42 258.47 o
-9 3 5 20560.39 17925.02 392.79 o
-7 3 5 29216.20 28482.92 920.27 o
-5 3 5 44454.91 47795.23 666.11 o
-3 3 5 61591.86 61090.73 1000.75 o
-1 3 5 10051.33 11370.42 199.95 o
1 3 5 22286.87 23309.91 341.78 o
3 3 5 860.24 1030.10 131.78 o
5 3 5 3594.01 3185.27 271.20 o
7 3 5 84501.84 85585.68 1880.87 o
9 3 5 2880.06 2852.56 291.54 o
11 3 5 305.00 330.73 184.74 o
-12 4 5 5967.31 6196.84 290.27 o
-10 4 5 5557.37 5420.22 253.41 o
-8 4 5 29288.71 27794.33 614.76 o
-6 4 5 58385.67 54331.09 1028.65 o
-4 4 5 130.31 124.27 100.96 o
-2 4 5 47657.14 49819.21 792.57 o
0 4 5 2453.68 2880.32 179.81 o
2 4 5 5280.92 5001.40 217.44 o
4 4 5 24572.51 22663.72 476.34 o
6 4 5 3102.25 2426.01 181.31 o
8 4 5 652.01 421.21 208.43 o
-7 5 5 6765.76 8312.24 361.20 o
-5 5 5 12465.39 12412.47 664.87 o
-3 5 5 13232.37 14837.78 447.48 o
-1 5 5 1877.42 1711.02 229.34 o
1 5 5 8263.01 7613.12 342.93 o
3 5 5 8.05 -124.36 124.36 o
-18 0 6 2192.22 1867.39 346.04 o
-16 0 6 31727.83 31297.16 1182.86 o
-14 0 6 42442.44 42796.25 1425.50 o
-12 0 6 276.78 432.42 265.49 o
-10 0 6 52801.73 51073.97 957.67 o
-8 0 6 49395.29 52540.78 810.33 o
-6 0 6 46744.75 47805.01 721.63 o
-4 0 6 21831.22 21100.75 342.77 o
-2 0 6 50206.43 52024.69 766.42 o
0 0 6 49858.99 55003.47 1120.32 o
2 0 6 3951.31 4537.35 218.06 o
4 0 6 163670.78 164145.77 3112.75 o
6 0 6 13277.27 13444.26 852.21 o
8 0 6 22211.03 22867.36 628.56 o
10 0 6 11.61 -98.58 179.12 o
12 0 6 5846.02 5235.84 498.41 o
-17 1 6 59.16 174.05 262.78 o
-15 1 6 791.04 857.28 198.56 o
-13 1 6 32031.71 32586.61 601.04 o
-11 1 6 65677.91 65325.28 1004.03 o
-9 1 6 10649.68 11295.03 225.12 o
-7 1 6 6641.01 6458.90 171.27 o
-5 1 6 93893.53 94716.58 1087.16 o
-3 1 6 110393.14 113042.56 1712.33 o
-1 1 6 128057.70 128515.95 2049.35 o
1 1 6 171477.58 175066.09 2310.72 o
3 1 6 3222.20 3654.35 295.37 o
5 1 6 2323.32 2467.23 142.46 o
7 1 6 49.04 157.26 83.05 o
9 1 6 31.36 161.51 101.45 o
11 1 6 4218.55 4215.11 244.93 o
13 1 6 1318.33 1347.43 357.33 o
-16 2 6 24792.20 25324.61 565.19 o
-14 2 6 27503.95 28155.33 572.80 o
-12 2 6 526.27 614.92 108.90 o
-10 2 6 43140.36 42421.17 709.11 o
-8 2 6 27828.76 28469.96 497.64 o
-6 2 6 22659.78 20680.76 336.39 o
-4 2 6 19467.06 19072.30 278.89 o
-2 2 6 23893.07 23496.36 440.20 o
0 2 6 21929.52 22856.07 482.77 o
2 2 6 4449.42 4304.55 193.54 o
4 2 6 92074.68 91935.60 2065.87 o
6 2 6 11660.72 11238.24 424.95 o
8 2 6 11336.66 10693.86 431.30 o
10 2 6 36.83 9.60 147.60 o
12 2 6 3215.64 3192.03 310.93 o
-15 3 6 331.20 174.81 125.66 o
-13 3 6 15365.09 16389.96 415.19 o
-11 3 6 33405.54 30771.08 595.49 o
-9 3 6 4055.36 4258.26 191.61 o
-7 3 6 3684.54 3810.53 169.28 o
-5 3 6 47874.13 48499.77 779.39 o
-3 3 6 44316.56 43813.91 2043.32 o
-1 3 6 47073.70 46045.29 1053.85 o
1 3 6 76534.05 73477.41 2542.40 o
3 3 6 3199.98 2919.79 246.30 o
5 3 6 1648.42 1826.14 219.07 o
7 3 6 52.35 852.06 525.78 o
9 3 6 11.68 81.99 211.60 o
-12 4 6 100.80 -23.00 120.97 o
-10 4 6 16513.11 16597.08 745.20 o
-8 4 6 11841.23 11992.35 362.60 o
-6 4 6 8254.71 7980.15 295.63 o
-4 4 6 5242.34 5311.03 206.89 o
-2 4 6 9946.25 9810.09 395.39 o
0 4 6 7025.66 6244.10 322.60 o
2 4 6 821.90 910.43 187.27 o
4 4 6 29633.33 30058.94 984.41 o
6 4 6 3186.70 3214.74 343.36 o
8 4 6 3297.83 3327.62 574.27 o
-7 5 6 2035.59 1907.84 204.84 o
-5 5 6 13768.38 14307.42 437.02 o
-3 5 6 8309.46 8883.64 349.53 o
-1 5 6 11393.91 11863.73 493.95 o
1 5 6 17563.85 18606.16 662.28 o
-18 0 7 8489.03 7348.82 585.42 o
-16 0 7 11683.91 10849.63 641.58 o
-14 0 7 3093.05 2560.25 377.69 o
-12 0 7 16382.76 13898.11 683.72 o
-10 0 7 1486.33 2136.85 131.59 o
-8 0 7 34618.62 34559.83 571.03 o
-6 0 7 71663.98 70299.02 1031.57 o
-4 0 7 13800.43 14285.16 256.96 o
-2 0 7 141988.14 136473.73 3242.54 o
0 0 7 143.00 749.35 194.35 o
2 0 7 22183.57 22264.75 566.65 o
4 0 7 45548.80 47146.66 1039.23 o
6 0 7 24279.55 24179.84 650.37 o
8 0 7 24332.07 24666.69 689.39 o
10 0 7 2309.98 2645.70 366.15 o
12 0 7 149.62 612.29 271.58 o
-17 1 7 9835.46 9730.57 474.24 o
-15 1 7 12813.52 12293.85 350.42 o
-13 1 7 14813.55 14658.72 360.31 o
-11 1 7 2182.49 2069.86 142.95 o
-9 1 7 122566.01 122047.37 1679.38 o
-7 1 7 13147.65 14007.01 230.38 o
-5 1 7 24543.90 24371.93 333.11 o
-3 1 7 526.56 499.27 68.05 o
-1 1 7 34848.71 36790.46 694.37 o
1 1 7 4632.78 4725.93 152.13 o
3 1 7 4002.53 4393.47 272.96 o
5 1 7 409.01 454.19 90.20 o
7 1 7 2246.94 2541.46 181.91 o
9 1 7 15639.00 16147.81 433.29 o
11 1 7 48190.82 46585.41 1173.45 o
-16 2 7 8483.21 8636.13 317.15 o
-14 2 7 2272.31 2036.25 172.87 o
-12 2 7 11434.90 10571.32 300.78 o
-10 2 7 1142.96 1549.34 304.56 o
-8 2 7 22719.87 21348.14 357.12 o
-6 2 7 42802.69 40623.62 575.67 o
-4 2 7 9307.44 9210.95 207.97 o
-2 2 7 83198.12 83007.54 1404.50 o
0 2 7 47.47 121.96 79.60 o
2 2 7 12849.33 13114.79 359.34 o
4 2 7 28560.15 28972.92 628.37 o
6 2 7 16515.88 14601.34 523.74 o
8 2 7 15941.95 16291.33 1250.21 o
10 2 7 1608.17 1597.52 514.04 o
-15 3 7 6840.23 7901.19 346.12 o
-13 3 7 8622.84 7221.15 282.10 o
-11 3 7 1247.21 1503.81 151.25 o
-9 3 7 55214.70 53986.14 1018.27 o
-7 3 7 5288.72 4948.66 218.14 o
-5 3 7 9133.65 9243.81 248.39 o
-3 3 7 329.65 594.39 220.03 o
-1 3 7 14392.65 14837.55 484.91 o
1 3 7 1812.54 2330.05 172.87 o
3 3 7 2248.20 2240.80 373.40 o
5 3 7 35.18 168.46 151.10 o
7 3 7 1018.95 936.95 200.25 o
9 3 7 6822.78 7073.47 470.69 o
-12 4 7 4561.00 3615.80 251.06 o
-10 4 7 472.07 347.93 140.49 o
-8 4 7 8418.70 7113.49 286.27 o
-6 4 7 12640.08 13256.48 390.33 o
-4 4 7 2836.47 2978.53 174.40 o
-2 4 7 23430.11 24268.91 701.46 o
0 4 7 45.06 -53.81 134.98 o
2 4 7 3089.65 3390.38 305.08 o
4 4 7 8176.06 7936.69 420.24 o
6 4 7 5616.02 5817.14 520.94 o
-7 5 7 931.75 517.48 156.49 o
-5 5 7 2227.03 1488.92 192.66 o
-3 5 7 330.51 403.55 147.16 o
-1 5 7 3919.88 3908.71 333.64 o
1 5 7 637.70 692.73 301.08 o
-18 0 8 6317.50 7974.59 607.85 o
-16 0 8 235.81 793.48 310.77 o
-14 0 8 1951.92 2249.69 383.34 o
-12 0 8 46949.75 50936.35 1002.28 o
-10 0 8 519.59 711.74 94.05 o
-8 0 8 6812.52 8426.04 324.58 o
-6 0 8 1228.16 1485.33 92.03 o
-4 0 8 45146.39 45649.17 687.72 o
-2 0 8 72038.72 71830.32 1991.80 o
0 0 8 22201.95 23442.14 580.31 o
2 0 8 41445.23 41680.31 937.59 o
4 0 8 3984.37 4279.12 256.07 o
6 0 8 12112.90 13575.66 466.16 o
8 0 8 26227.04 28415.39 782.47 o
10 0 8 6239.23 4970.28 486.46 o
12 0 8 3669.78 4341.75 509.13 o
-17 1 8 215.37 408.95 209.90 o
-15 1 8 8655.08 10100.81 335.74 o
-13 1 8 4247.93 4594.43 211.93 o
-11 1 8 12927.09 14135.14 286.25 o
-9 1 8 41.18 201.64 101.58 o
-7 1 8 1655.13 1654.12 89.24 o
-5 1 8 5899.72 6587.16 145.83 o
-3 1 8 6541.66 6790.16 243.54 o
-1 1 8 2957.02 2980.04 155.22 o
1 1 8 89577.38 87096.66 1278.13 o
3 1 8 86318.23 84860.82 1223.98 o
5 1 8 62072.63 66146.49 1455.46 o
7 1 8 14328.77 16436.39 601.83 o
9 1 8 629.36 795.33 194.55 o
11 1 8 155.57 86.57 175.78 o
-16 2 8 63.69 174.19 123.85 o
-14 2 8 984.41 1141.86 147.71 o
-12 2 8 28851.73 28699.72 559.30 o
-10 2 8 178.87 239.12 98.13 o
-8 2 8 2444.02 2588.23 124.48 o
-6 2 8 1632.43 2023.71 100.82 o
-4 2 8 22395.83 22312.15 442.00 o
-2 2 8 51868.89 51646.90 952.08 o
0 2 8 9828.45 10023.94 308.71 o
2 2 8 32270.36 32131.80 680.43 o
4 2 8 4879.88 4932.64 246.31 o
6 2 8 6495.02 6812.78 352.87 o
8 2 8 21511.20 20910.36 679.10 o
10 2 8 5978.95 6145.62 399.54 o
-15 3 8 4897.14 5100.66 286.25 o
-13 3 8 2625.88 3006.20 223.03 o
-11 3 8 6895.88 5231.69 244.14 o
-9 3 8 53.36 42.30 98.08 o
-7 3 8 978.39 670.00 119.66 o
-5 3 8 3411.24 3489.12 170.42 o
-3 3 8 3771.37 3855.35 588.44 o
-1 3 8 1366.65 1184.19 139.80 o
1 3 8 37229.61 35748.67 747.58 o
3 3 8 41246.60 38425.32 988.63 o
5 3 8 26246.16 25885.10 905.79 o
7 3 8 8107.69 7879.49 607.28 o
9 3 8 73.43 27.28 180.02 o
-12 4 8 10677.94 11492.97 709.12 o
-10 4 8 131.60 203.45 130.15 o
-8 4 8 744.02 700.54 174.53 o
-6 4 8 134.02 71.13 111.24 o
-4 4 8 7509.64 7437.94 253.76 o
-2 4 8 13595.29 13081.32 801.01 o
0 4 8 3140.93 2944.51 302.66 o
2 4 8 9445.82 9655.54 454.66 o
4 4 8 2031.33 2139.16 283.39 o
6 4 8 2658.00 2940.47 352.21 o
-5 5 8 732.93 959.32 176.25 o
-3 5 8 919.10 1067.68 183.72 o
-1 5 8 793.85 742.16 219.82 o
-18 0 9 2172.27 3346.15 484.87 o
-16 0 9 3497.70 3381.50 481.52 o
-14 0 9 1731.49 1809.13 364.91 o
-12 0 9 3321.65 4151.62 192.88 o
-10 0 9 4622.76 4272.43 258.95 o
-8 0 9 25038.04 27109.62 482.21 o
-6 0 9 26592.46 28301.79 475.56 o
-4 0 9 15618.07 16440.42 301.61 o
-2 0 9 99322.14 100132.41 1977.79 o
0 0 9 22400.58 22609.72 582.13 o
2 0 9 67.34 534.30 154.29 o
4 0 9 92920.59 97022.53 1980.62 o
6 0 9 3491.91 3311.15 270.38 o
8 0 9 30629.25 32391.06 1037.23 o
10 0 9 39953.19 40099.68 1433.46 o
-17 1 9 1364.70 1979.32 553.79 o
-15 1 9 6244.25 5809.80 262.76 o
-13 1 9 75.62 20.33 94.94 o
-11 1 9 4227.33 4192.42 161.51 o
-9 1 9 2823.75 3395.72 128.20 o
-7 1 9 13525.07 13652.37 240.50 o
-5 1 9 167932.02 160839.91 1816.00 o
-3 1 9 14014.90 14816.43 446.52 o
-1 1 9 10680.03 9986.60 402.26 o
1 1 9 32846.08 31342.00 777.98 o
3 1 9 14835.72 14516.52 412.89 o
5 1 9 10842.68 11831.28 790.78 o
7 1 9 51875.95 49319.35 1201.71 o
9 1 9 9274.02 8977.61 449.18 o
-16 2 9 2596.25 3045.28 222.21 o
-14 2 9 1166.24 1033.13 147.96 o
-12 2 9 2343.48 2648.58 210.02 o
-10 2 9 2782.92 2411.33 173.87 o
-8 2 9 16875.00 15942.50 279.07 o
-6 2 9 15816.85 16466.72 314.10 o
-4 2 9 10756.90 10887.34 256.71 o
-2 2 9 70303.31 68021.96 1222.17 o
0 2 9 14600.63 15033.80 413.38 o
2 2 9 60.52 301.99 116.54 o
4 2 9 67435.46 62202.10 4581.93 o
6 2 9 2011.85 1933.41 236.64 o
8 2 9 21648.13 21761.06 1535.01 o
-15 3 9 3124.45 3318.33 253.37 o
-13 3 9 28.85 162.08 122.27 o
-11 3 9 2421.27 1864.18 178.96 o
-9 3 9 1334.81 1092.25 166.57 o
-7 3 9 5802.56 6481.77 224.73 o
-5 3 9 76647.99 73538.63 1159.44 o
-3 3 9 5363.98 5437.70 372.83 o
-1 3 9 3558.61 3814.79 225.87 o
1 3 9 18872.00 17321.22 468.42 o
3 3 9 6046.09 6186.46 353.46 o
5 3 9 4520.91 4037.04 327.71 o
7 3 9 27320.25 26049.01 818.08 o
-12 4 9 701.98 895.67 164.82 o
-10 4 9 924.26 639.64 204.95 o
-8 4 9 5356.61 5051.10 261.27 o
-6 4 9 4755.04 3922.61 549.96 o
-4 4 9 3341.09 3019.62 537.60 o
-2 4 9 26945.89 26003.52 770.70 o
0 4 9 5329.87 5356.29 355.72 o
2 4 9 67.42 233.42 173.56 o
4 4 9 27601.27 27904.93 874.99 o
-18 0 10 179.98 678.22 347.98 o
-16 0 10 560.60 1584.91 402.13 o
-14 0 10 16376.00 17762.20 853.27 o
-12 0 10 14.05 -66.94 81.67 o
-10 0 10 21754.12 23518.70 461.08 o
-8 0 10 115654.44 117085.84 1700.93 o
-6 0 10 26177.26 25122.02 437.60 o
-4 0 10 50295.21 51125.52 777.37 o
-2 0 10 39106.46 39018.80 885.17 o
0 0 10 74493.35 74297.44 1533.86 o
2 0 10 69502.30 71328.73 1611.09 o
4 0 10 28926.64 29533.72 778.93 o
6 0 10 17577.04 17600.62 577.17 o
8 0 10 1312.90 1195.54 219.60 o
-17 1 10 572.45 597.09 163.99 o
-15 1 10 7489.87 7426.01 466.68 o
-13 1 10 10803.85 11198.89 325.52 o
-11 1 10 41693.82 42511.04 587.30 o
-9 1 10 5273.93 5407.69 166.64 o
-7 1 10 276.74 345.04 65.55 o
-5 1 10 42103.38 41045.01 705.18 o
-3 1 10 30499.70 30899.45 650.42 o
-1 1 10 76379.41 76954.76 1479.62 o
1 1 10 97015.77 98683.48 1711.39 o
3 1 10 81.21 -47.07 106.41 o
5 1 10 23624.45 23341.17 868.42 o
7 1 10 5313.41 5834.36 368.81 o
9 1 10 688.07 677.27 221.16 o
-16 2 10 284.14 553.73 143.70 o
-14 2 10 13095.67 12287.32 357.40 o
-12 2 10 120.99 342.83 115.98 o
-10 2 10 13198.10 12784.76 360.09 o
-8 2 10 86802.61 83515.03 1139.93 o
-6 2 10 21437.29 21038.37 382.80 o
-4 2 10 30488.42 30689.15 519.20 o
-2 2 10 32306.49 32322.15 1022.46 o
0 2 10 55160.09 54014.14 1120.53 o
2 2 10 41740.68 39850.04 854.11 o
4 2 10 22124.44 21584.82 674.81 o
6 2 10 9983.96 10477.01 470.78 o
8 2 10 1168.23 1067.91 229.55 o
-15 3 10 3667.62 4336.74 371.19 o
-13 3 10 5971.15 6097.84 290.03 o
-11 3 10 19349.13 18526.87 486.78 o
-9 3 10 2526.63 3179.88 216.57 o
-7 3 10 527.31 734.45 113.04 o
-5 3 10 21114.36 21625.73 412.94 o
-3 3 10 11995.21 11595.53 379.08 o
-1 3 10 36317.81 35979.30 785.37 o
1 3 10 45708.06 44528.96 925.93 o
3 3 10 48.01 226.76 159.90 o
5 3 10 13201.24 11593.45 531.29 o
7 3 10 2399.96 2557.99 308.51 o
-12 4 10 55.45 87.26 319.11 o
-10 4 10 5544.09 6395.53 329.34 o
-8 4 10 31768.71 30924.14 712.81 o
-6 4 10 7245.43 7050.32 618.26 o
-4 4 10 12989.14 11701.03 834.95 o
-2 4 10 11996.21 11317.06 752.96 o
0 4 10 17395.02 17168.79 626.56 o
2 4 10 14744.66 14800.85 590.22 o
-16 0 11 14479.96 14272.33 821.41 o
-14 0 11 6702.12 6953.48 577.81 o
-12 0 11 55339.55 59578.26 1182.88 o
-10 0 11 6330.40 7235.73 272.98 o
-8 0 11 61.41 267.74 82.42 o
-6 0 11 48473.98 46551.24 736.57 o
-4 0 11 39131.11 37309.85 602.29 o
-2 0 11 22159.85 23981.33 709.04 o
0 0 11 20676.75 21399.41 1041.63 o
2 0 11 374.31 369.70 131.24 o
4 0 11 10445.05 9872.68 405.60 o
6 0 11 1456.57 1792.18 341.24 o
8 0 11 10782.28 11874.48 738.70 o
-17 1 11 5566.60 6590.34 464.68 o
-15 1 11 13387.12 14613.36 402.36 o
-13 1 11 11580.54 11507.17 431.43 o
-11 1 11 12654.50 12814.24 265.80 o
-9 1 11 70038.01 67253.27 846.77 o
-7 1 11 64892.93 63081.60 788.30 o
-5 1 11 6959.54 6920.88 268.33 o
-3 1 11 23593.60 21092.05 512.22 o
-1 1 11 7948.39 7166.33 290.54 o
1 1 11 1873.21 2131.63 255.40 o
3 1 11 6663.03 7210.58 306.90 o
5 1 11 3336.45 3564.70 434.06 o
7 1 11 14833.98 15900.27 1183.00 o
9 1 11 282.97 584.03 335.70 o
-16 2 11 10348.01 10789.66 410.06 o
-14 2 11 4919.79 4686.43 371.60 o
-12 2 11 40526.39 38829.81 813.11 o
-10 2 11 4384.58 4492.06 170.17 o
-8 2 11 116.83 145.22 73.52 o
-6 2 11 33663.07 31931.01 530.41 o
-4 2 11 24437.34 25332.15 460.54 o
-2 2 11 15244.58 14887.75 440.17 o
0 2 11 12609.33 12562.88 415.64 o
2 2 11 335.79 175.56 184.18 o
4 2 11 6656.77 6812.71 382.10 o
6 2 11 979.76 1233.59 265.14 o
-15 3 11 7515.94 7916.04 351.79 o
-13 3 11 6252.76 6227.63 301.67 o
-11 3 11 7115.11 6216.60 282.51 o
-9 3 11 35085.04 31754.56 698.75 o
-7 3 11 30967.06 30464.11 589.71 o
-5 3 11 3236.31 2716.41 166.56 o
-3 3 11 12119.94 11587.38 396.21 o
-1 3 11 4070.73 4245.44 273.41 o
1 3 11 1122.05 1375.27 226.02 o
3 3 11 3027.06 2883.12 354.69 o
5 3 11 1411.26 1155.79 268.17 o
-10 4 11 2033.46 1377.61 193.01 o
-8 4 11 75.80 272.70 135.09 o
-6 4 11 11398.13 10900.57 386.80 o
-4 4 11 8067.20 7884.82 290.39 o
-2 4 11 4724.01 4725.96 412.95 o
0 4 11 3695.58 3777.37 342.82 o
2 4 11 364.01 89.79 183.24 o
-18 0 12 8022.65 8955.53 730.20 o
-16 0 12 24.77 395.32 338.46 o
-14 0 12 505.70 645.50 129.10 o
-12 0 12 15432.90 16336.65 398.55 o
-10 0 12 16100.79 16402.96 520.63 o
-8 0 12 3.77 615.43 97.23 o
-6 0 12 1592.17 2001.33 122.13 o
-4 0 12 431.50 454.91 73.08 o
-2 0 12 42444.51 45257.85 1026.14 o
0 0 12 762.32 1384.44 180.22 o
2 0 12 4501.66 4885.47 454.70 o
4 0 12 8508.51 9300.01 622.16 o
6 0 12 279.74 431.19 244.36 o
-17 1 12 488.57 846.83 169.28 o
-15 1 12 26100.95 26583.99 656.79 o
-13 1 12 22.40 101.46 105.63 o
-11 1 12 5781.90 6174.67 198.38 o
-9 1 12 2153.68 2051.49 165.61 o
-7 1 12 16.89 25.76 64.88 o
-5 1 12 172.35 818.86 151.39 o
-3 1 12 25067.02 24418.33 580.28 o
-1 1 12 973.35 1050.46 177.38 o
1 1 12 16614.34 17293.11 484.89 o
3 1 12 8025.71 7906.28 419.26 o
5 1 12 35818.43 35862.15 1162.86 o
7 1 12 20.10 376.81 206.10 o
-16 2 12 38.26 192.81 152.08 o
-14 2 12 214.37 28.69 130.96 o
-12 2 12 12161.93 12866.57 398.65 o
-10 2 12 9605.72 8139.17 232.09 o
-8 2 12 81.85 216.65 78.04 o
-6 2 12 440.14 543.97 92.61 o
-4 2 12 112.82 -9.27 75.60 o
-2 2 12 25338.82 26583.84 658.26 o
0 2 12 807.08 1119.47 253.71 o
2 2 12 2263.31 1636.75 326.47 o
4 2 12 5214.07 5397.18 817.98 o
6 2 12 300.78 433.68 279.17 o
-13 3 12 20.60 -121.56 121.56 o
-11 3 12 3331.16 3353.53 242.28 o
-9 3 12 894.35 1218.66 297.33 o
-7 3 12 28.15 34.29 87.70 o
-5 3 12 181.37 414.75 100.64 o
-3 3 12 12565.22 12659.70 437.71 o
-1 3 12 835.00 908.50 177.40 o
1 3 12 7718.35 7385.48 364.65 o
3 3 12 3325.83 3533.93 341.42 o
-10 4 12 3631.47 2642.18 237.94 o
-8 4 12 1.91 116.88 188.04 o
-6 4 12 108.89 50.63 136.48 o
-4 4 12 181.73 323.72 124.61 o
-2 4 12 9122.42 9676.25 490.45 o
0 4 12 202.98 196.85 189.91 o
-18 0 13 2947.43 4824.12 619.40 o
-16 0 13 33.78 287.15 346.45 o
-14 0 13 4386.87 5368.71 272.25 o
-12 0 13 2656.35 2823.70 196.47 o
-10 0 13 159.45 180.00 102.78 o
-8 0 13 9960.11 10232.39 371.59 o
-6 0 13 5727.15 5211.08 288.09 o
-4 0 13 4113.21 4545.52 256.07 o
-2 0 13 9084.19 8811.24 595.49 o
0 0 13 2232.21 2021.33 354.12 o
2 0 13 4312.83 3804.14 461.15 o
4 0 13 4088.39 3855.90 476.99 o
6 0 13 251.87 29.34 233.74 o
-17 1 13 896.82 1141.88 227.31 o
-15 1 13 81.43 218.24 134.58 o
-13 1 13 5204.43 4768.56 212.29 o
-11 1 13 34.62 185.94 83.79 o
-9 1 13 3466.79 3216.31 160.65 o
-7 1 13 3289.84 3540.56 252.43 o
-5 1 13 41266.85 40531.90 635.86 o
-3 1 13 10179.42 10556.24 363.40 o
-1 1 13 2970.22 2937.58 224.23 o
1 1 13 7243.50 6871.56 342.24 o
3 1 13 1183.23 1499.38 191.33 o
5 1 13 17702.01 17931.61 540.37 o
-16 2 13 15.09 -48.63 135.11 o
-14 2 13 3020.22 3647.42 266.10 o
-12 2 13 1691.33 1814.58 193.68 o
-10 2 13 152.40 224.13 86.64 o
-8 2 13 6324.71 6562.44 215.31 o
-6 2 13 3838.57 3998.53 278.42 o
-4 2 13 2487.37 3093.32 196.62 o
-2 2 13 5912.28 5996.50 312.71 o
0 2 13 1732.49 1634.50 208.95 o
2 2 13 2614.52 2426.20 384.96 o
4 2 13 3146.31 2706.02 313.22 o
-13 3 13 2626.66 2773.33 245.51 o
-11 3 13 20.64 -68.04 184.72 o
-9 3 13 1562.39 1374.06 175.09 o
-7 3 13 1850.24 2215.32 162.14 o
-5 3 13 19714.17 20087.68 425.66 o
-3 3 13 4547.14 4216.31 304.27 o
-1 3 13 1103.47 890.94 186.46 o
1 3 13 4639.10 4412.65 369.86 o
3 3 13 443.27 80.88 192.79 o
-8 4 13 2405.18 1727.16 214.28 o
-6 4 13 1758.02 2084.14 344.23 o
-4 4 13 940.24 1129.33 157.65 o
-16 0 14 3356.17 3288.38 519.19 o
-14 0 14 296.20 367.94 129.90 o
-12 0 14 3458.21 3456.84 218.55 o
-10 0 14 427.30 620.35 235.34 o
-8 0 14 27295.66 24030.23 667.41 o
-6 0 14 7.08 -108.24 176.07 o
-4 0 14 14137.75 14005.90 793.85 o
-2 0 14 13108.40 13664.68 767.79 o
0 0 14 14533.70 12999.73 740.37 o
2 0 14 89905.65 96082.12 3136.54 o
4 0 14 12317.67 12315.68 780.35 o
-17 1 14 1161.01 1368.49 234.64 o
-15 1 14 2273.29 2572.83 252.21 o
-13 1 14 735.17 631.63 163.90 o
-11 1 14 14285.98 13798.36 334.34 o
-9 1 14 4133.64 4437.10 185.80 o
-7 1 14 4348.30 4757.65 224.73 o
-5 1 14 2132.67 2234.20 136.05 o
-3 1 14 11551.55 12776.53 298.45 o
-1 1 14 32241.61 33418.16 846.40 o
1 1 14 7723.81 8209.24 376.69 o
3 1 14 136.22 230.42 185.61 o
5 1 14 21680.22 23287.47 1167.95 o
-16 2 14 2203.80 2175.88 299.32 o
-14 2 14 140.63 -107.52 138.54 o
-12 2 14 2059.44 2236.26 223.93 o
-10 2 14 189.07 295.26 95.09 o
-8 2 14 17546.87 15915.44 349.04 o
-6 2 14 28.82 120.38 89.84 o
-4 2 14 12132.49 13359.81 379.92 o
-2 2 14 8628.00 8001.77 364.27 o
0 2 14 8802.35 8152.50 384.06 o
2 2 14 66827.80 64866.97 1558.10 o
4 2 14 7844.19 6763.62 572.54 o
-13 3 14 338.94 479.87 170.58 o
-11 3 14 7648.53 7169.15 330.46 o
-9 3 14 2613.09 2584.31 221.97 o
-7 3 14 2375.90 2930.88 185.80 o
-5 3 14 1512.24 1760.41 158.81 o
-3 3 14 5958.51 5854.41 617.96 o
-1 3 14 16214.88 16543.95 618.56 o
1 3 14 4238.02 3886.65 379.49 o
-16 0 15 4366.37 5349.97 611.00 o
-14 0 15 5172.54 4885.24 342.19 o
-12 0 15 16964.19 17647.19 589.43 o
-10 0 15 23334.41 24024.81 1099.51 o
-8 0 15 3831.14 3372.78 446.87 o
-6 0 15 40021.70 40182.18 1609.79 o
-4 0 15 46845.52 48440.75 1833.95 o
-2 0 15 569.84 1054.93 295.44 o
0 0 15 675.01 743.67 279.59 o
2 0 15 537.71 589.02 259.39 o
4 0 15 2444.96 2817.90 439.65 o
-15 1 15 8512.73 9677.89 344.12 o
-13 1 15 3096.68 3108.43 188.59 o
-11 1 15 249.99 332.15 102.92 o
-9 1 15 11249.38 10770.31 280.56 o
-7 1 15 34092.23 35105.96 763.30 o
-5 1 15 166.99 227.70 153.58 o
-3 1 15 9249.17 8762.09 350.65 o
-1 1 15 42954.73 41147.29 1195.47 o
1 1 15 179.64 374.25 194.16 o
3 1 15 30.93 -148.67 167.05 o
-14 2 15 3484.78 3271.59 272.80 o
-12 2 15 12114.92 12558.08 367.30 o
-10 2 15 17866.83 16732.61 374.97 o
-8 2 15 2917.75 2599.39 167.86 o
-6 2 15 27558.18 27740.85 534.73 o
-4 2 15 34124.36 33707.52 590.61 o
-2 2 15 622.24 830.56 183.79 o
0 2 15 484.93 368.86 170.17 o
2 2 15 584.49 672.24 197.26 o
-11 3 15 134.39 369.81 158.20 o
-9 3 15 5978.70 5549.42 276.89 o
-7 3 15 18107.22 18048.03 412.73 o
-5 3 15 83.89 101.93 113.08 o
-3 3 15 4940.78 4683.92 250.85 o
-1 3 15 22915.25 21763.65 1295.37 o
-14 0 16 12263.13 12003.26 723.82 o
-12 0 16 7362.34 7047.86 562.18 o
-10 0 16 5185.54 5436.67 591.09 o
-8 0 16 4124.55 3670.66 484.12 o
-6 0 16 73.63 60.11 201.87 o
-4 0 16 2745.42 2689.07 417.79 o
-2 0 16 4012.75 4283.45 522.56 o
0 0 16 1031.98 869.29 304.47 o
2 0 16 840.70 828.18 307.83 o
-15 1 16 8841.34 9527.02 347.00 o
-13 1 16 6063.10 5152.46 290.57 o
-11 1 16 18381.23 17569.47 504.16 o
-9 1 16 12674.55 11923.10 399.85 o
-7 1 16 6107.31 5495.98 284.28 o
-5 1 16 11026.52 11438.73 544.63 o
-3 1 16 2435.03 2109.40 449.68 o
-1 1 16 2015.57 1846.22 278.48 o
1 1 16 5301.25 5332.73 428.77 o
-14 2 16 9493.78 9752.34 770.14 o
-12 2 16 4939.91 4502.87 336.56 o
-10 2 16 4242.92 4110.04 209.11 o
-8 2 16 3623.75 3997.31 203.09 o
-6 2 16 94.97 -89.79 110.98 o
-4 2 16 2609.71 3054.09 275.57 o
-2 2 16 3338.61 3923.88 355.73 o
0 2 16 556.97 632.65 191.10 o
-9 3 16 6999.57 7357.52 314.51 o
-7 3 16 3045.12 3111.34 204.70 o
-5 3 16 5978.00 6322.38 260.99 o
-14 0 17 7894.51 8015.97 621.00 o
-12 0 17 402.36 176.55 245.71 o
-10 0 17 834.01 1267.53 348.23 o
-8 0 17 4604.12 5460.60 624.14 o
-6 0 17 260.21 300.49 262.10 o
-4 0 17 557.83 1206.16 326.73 o
-2 0 17 496.09 634.10 283.09 o
0 0 17 874.63 1083.94 331.11 o
-15 1 17 67.64 -46.42 215.91 o
-13 1 17 117.04 303.49 160.06 o
-11 1 17 1213.59 1496.07 204.35 o
-9 1 17 4048.48 3709.07 361.08 o
-7 1 17 430.80 1026.12 230.52 o
-5 1 17 330.09 379.75 358.12 o
-3 1 17 3375.89 3213.27 597.29 o
-1 1 17 3193.70 3625.92 369.65 o
-12 2 17 240.90 55.57 162.85 o
-10 2 17 727.40 907.07 158.66 o
-8 2 17 3649.88 4065.98 294.67 o
-6 2 17 256.60 213.63 159.35 o
-4 2 17 318.57 568.25 170.84 o
-2 2 17 416.95 208.24 169.97 o
-14 0 18 87.70 -200.28 214.34 o
-12 0 18 1780.84 1602.37 387.51 o
-10 0 18 58.15 271.72 270.40 o
-8 0 18 263.85 290.50 272.56 o
-6 0 18 2049.84 2196.47 419.25 o
-4 0 18 319.69 656.40 294.49 o
-2 0 18 239.95 560.77 300.76 o
-13 1 18 894.39 1040.12 239.39 o
-11 1 18 734.50 669.01 216.69 o
-9 1 18 672.52 66.99 179.59 o
-7 1 18 1513.81 1366.90 373.53 o
-5 1 18 125.55 154.53 323.61 o
-3 1 18 369.73 327.14 207.88 o
-10 2 18 38.61 -91.60 220.23 o
-8 2 18 137.21 119.20 231.71 o
-6 2 18 1209.77 859.02 195.18 o
-10 0 19 7100.35 8335.79 738.59 o
-8 0 19 504.78 45.97 264.76 o
-6 0 19 7021.16 6374.49 684.19 o
-9 1 19 1056.92 1254.81 311.38 o
-7 1 19 5858.40 5437.34 589.04 o
