#------------------------------------------------------------------------------
#$Date: 2021-04-14 12:38:40 +0300 (Wed, 14 Apr 2021) $
#$Revision: 264142 $
#$URL: file:///home/coder/svn-repositories/cod/cif/1/56/17/1561747.cif $
#------------------------------------------------------------------------------
#
# This file is available in the Crystallography Open Database (COD),
# http://www.crystallography.net/
#
# All data on this site have been placed in the public domain by the
# contributors.
#
data_1561747
loop_
_publ_author_name
'Bykova, E.'
'Gou, H.'
'Bykov, M.'
'Hanfland, M.'
'Dubrovinsky, L.'
'Dubrovinskaia, N.'
_publ_section_title
;
 Crystal structures and compressibility of novel iron borides Fe2B7 and Fe
 B50 synthesized at high pressure and high temperature
;
_journal_name_full               'Journal of Solid State Chemistry'
_journal_page_first              102
_journal_page_last               109
_journal_paper_doi               10.1016/j.jssc.2015.06.040
_journal_volume                  230
_journal_year                    2015
_chemical_absolute_configuration .
_chemical_formula_moiety         'B50 Fe1.324'
_chemical_formula_sum            'B50 Fe1.324'
_chemical_formula_weight         614.4
_chemical_name_common            'Iron Boron (1.324/50)'
_chemical_name_systematic        'Iron Boron (1.324/50)'
_space_group_IT_number           134
_space_group_name_Hall           '-P 4ac 2bc'
_space_group_name_H-M_alt        'P 42/n n m :2'
_symmetry_cell_setting           tetragonal
_symmetry_Int_Tables_number      134
_symmetry_space_group_name_Hall  '-P 4ac 2bc'
_symmetry_space_group_name_H-M   'P 42/n n m :2'
_cell_angle_alpha                90
_cell_angle_beta                 90
_cell_angle_gamma                90
_cell_formula_units_Z            1
_cell_length_a                   8.8590(3)
_cell_length_b                   8.8590(3)
_cell_length_c                   5.0042(2)
_cell_measurement_reflns_used    390
_cell_measurement_temperature    293
_cell_measurement_theta_max      19.0390
_cell_measurement_theta_min      2.6830
_cell_volume                     392.74(2)
_computing_cell_refinement
;
CrysAlisPro, Agilent Technologies,
Version 1.171.37.35 (release 13-08-2014 CrysAlis171 .NET)
(compiled Aug 13 2014,18:06:01)
;
_computing_data_collection
;
CrysAlisPro, Agilent Technologies,
Version 1.171.37.35 (release 13-08-2014 CrysAlis171 .NET)
(compiled Aug 13 2014,18:06:01)
;
_computing_data_reduction
;
CrysAlisPro, Agilent Technologies,
Version 1.171.37.35 (release 13-08-2014 CrysAlis171 .NET)
(compiled Aug 13 2014,18:06:01)
;
_computing_structure_refinement  'Jana2006 (Petricek, 2014)'
_computing_structure_solution    'SHELXS-2013 (Sheldrick, 2013)'
_diffrn_ambient_pressure         6600000
_diffrn_ambient_temperature      293
_diffrn_detector                 'MAR555 flatpanel detector'
_diffrn_measured_fraction_theta_full 0.93
_diffrn_measured_fraction_theta_max 0.68
_diffrn_measurement_device
;
customized omega-circle diffractometer
;
_diffrn_measurement_device_type  'ESRF, beamline ID09A diffractometer'
_diffrn_measurement_method       '\w scans'
_diffrn_radiation_monochromator  synchrotron
_diffrn_radiation_probe          x-ray
_diffrn_radiation_source         synchrotron
_diffrn_radiation_type           synchrotron
_diffrn_radiation_wavelength     0.41441
_diffrn_reflns_av_R_equivalents  0.0297
_diffrn_reflns_av_unetI/netI     0.03
_diffrn_reflns_limit_h_max       12
_diffrn_reflns_limit_h_min       -12
_diffrn_reflns_limit_k_max       9
_diffrn_reflns_limit_k_min       -6
_diffrn_reflns_limit_l_max       7
_diffrn_reflns_limit_l_min       -6
_diffrn_reflns_number            946
_diffrn_reflns_theta_full        14.6
_diffrn_reflns_theta_max         19.41
_diffrn_reflns_theta_min         1.9
_diffrn_source                   synchrotron
_exptl_absorpt_coefficient_mu    0.293
_exptl_absorpt_correction_T_max  1.00000
_exptl_absorpt_correction_T_min  0.20635
_exptl_absorpt_correction_type   multi-scan
_exptl_absorpt_process_details
;
CrysAlisPro, Agilent Technologies,
Version 1.171.37.35 (release 13-08-2014 CrysAlis171 .NET)
(compiled Aug 13 2014,18:06:01)
Empirical absorption correction using spherical harmonics,
 implemented in SCALE3 ABSPACK scaling algorithm.
;
_exptl_crystal_colour            black
_exptl_crystal_density_diffrn    2.5971
_exptl_crystal_description       plate
_exptl_crystal_F_000             284
_exptl_crystal_size_max          0.020
_exptl_crystal_size_mid          0.010
_exptl_crystal_size_min          0.005
_refine_diff_density_max         0.46
_refine_diff_density_min         -0.51
_refine_ls_extinction_method     none
_refine_ls_goodness_of_fit_gt    2.31
_refine_ls_goodness_of_fit_ref   2.24
_refine_ls_number_constraints    0
_refine_ls_number_parameters     35
_refine_ls_number_reflns         313
_refine_ls_number_restraints     0
_refine_ls_R_factor_all          0.0425
_refine_ls_R_factor_gt           0.0394
_refine_ls_shift/su_max          0.0004
_refine_ls_shift/su_mean         0.0001
_refine_ls_structure_factor_coef Fsqd
_refine_ls_weighting_details     w=1/(\s^2^(I)+0.0004I^2^)
_refine_ls_weighting_scheme      sigma
_refine_ls_wR_factor_gt          0.0970
_refine_ls_wR_factor_ref         0.0991
_reflns_number_gt                285
_reflns_number_total             313
_reflns_threshold_expression     I>2\s(I)
_cod_data_source_file            fe1.32B50_06.6GPa.cif
_cod_data_source_block           Fe1.3B50_6.6GPa
_cod_depositor_comments
;
The following automatic conversions were performed:

data item '_diffrn_radiation_probe' value 'X-ray' was changed to
'x-ray' in accordance with the built-in table derived from the CIF
Core dictionary named 'cif_core.dic' version 2.4.5 last updated on
2014-11-21.

Automatic conversion script
Id: cif_fix_values 8369 2020-08-20 11:38:08Z andrius 
;
_cod_original_sg_symbol_H-M      'P 42/n n m'
_cod_database_code               1561747
loop_
_symmetry_equiv_pos_site_id
_symmetry_equiv_pos_as_xyz
1 x,y,z
2 -x+1/2,-y+1/2,z
3 -y+1/2,x,z+1/2
4 y,-x+1/2,z+1/2
5 -x+1/2,y,-z+1/2
6 x,-y+1/2,-z+1/2
7 y,x,-z
8 -y+1/2,-x+1/2,-z
9 -x,-y,-z
10 x+1/2,y+1/2,-z
11 y+1/2,-x,-z+1/2
12 -y,x+1/2,-z+1/2
13 x+1/2,-y,z+1/2
14 -x,y+1/2,z+1/2
15 -y,-x,z
16 y+1/2,x+1/2,z
loop_
_atom_site_label
_atom_site_type_symbol
_atom_site_fract_x
_atom_site_fract_y
_atom_site_fract_z
_atom_site_adp_type
_atom_site_U_iso_or_equiv
_atom_site_site_symmetry_multiplicity
_atom_site_occupancy
_atom_site_calc_flag
_atom_site_refinement_flags
_atom_site_disorder_assembly
_atom_site_disorder_group
Fe1 Fe -0.25 0.25 0.25 Uani 0.0109(3) 2 0.6621 d . . .
B4 B -0.0740(2) -0.1570(2) 0.1481(3) Uani 0.0070(5) 16 1 d . . .
B5 B -0.16736(19) 0.0205(2) 0.1626(3) Uani 0.0042(5) 16 1 d . . .
B2 B 0.1228(2) -0.1228(2) 0.1387(4) Uani 0.0040(5) 8 1 d . . .
B3 B 0.00343(19) -0.00343(19) 0.3356(4) Uani 0.0032(5) 8 1 d . . .
B1 B 0.25 -0.25 0.25 Uani 0.0049(9) 2 1 d . . .
loop_
_atom_site_aniso_label
_atom_site_aniso_type_symbol
_atom_site_aniso_U_11
_atom_site_aniso_U_22
_atom_site_aniso_U_33
_atom_site_aniso_U_12
_atom_site_aniso_U_13
_atom_site_aniso_U_23
Fe1 Fe 0.0027(4) 0.0027(4) 0.0274(6) 0 0 0
B4 B 0.0041(9) 0.0090(9) 0.0079(7) -0.0002(9) 0.0010(5) -0.0044(5)
B5 B 0.0037(9) 0.0053(9) 0.0038(7) -0.0012(8) 0.0006(5) -0.0003(5)
B2 B 0.0035(8) 0.0035(8) 0.0050(9) -0.0008(11) 0.0003(5) -0.0003(5)
B3 B 0.0039(8) 0.0039(8) 0.0019(8) -0.0003(11) 0.0000(4) 0.0000(4)
B1 B 0.0043(16) 0.0043(16) 0.0061(18) 0 0 0
loop_
_atom_type_symbol
_atom_type_scat_dispersion_real
_atom_type_scat_dispersion_imag
_atom_type_scat_source
B -0.0003 0.0002 'International Tables Vol C tables 4.2.6.8 and 6.1.1.1'
Fe 0.1991 0.3104 'International Tables Vol C tables 4.2.6.8 and 6.1.1.1'
loop_
_geom_angle_atom_site_label_1
_geom_angle_atom_site_label_2
_geom_angle_atom_site_label_3
_geom_angle_site_symmetry_1
_geom_angle_site_symmetry_2
_geom_angle_site_symmetry_3
_geom_angle
B5 Fe1 B5 . . 2_455 157.12(6)
B5 Fe1 B5 . . 5_455 45.52(6)
B5 Fe1 B5 . . 6_555 141.20(6)
B5 Fe1 B5 . . 11_455 92.25(6)
B5 Fe1 B5 . . 12_555 92.25(6)
B5 Fe1 B5 . . 15_555 49.32(6)
B5 Fe1 B5 . . 16_455 124.97(6)
B5 Fe1 B2 . . 3_455 83.63(6)
B5 Fe1 B2 . . 4_555 114.70(6)
B5 Fe1 B2 . . 7_555 44.31(6)
B5 Fe1 B2 . . 8_455 114.12(6)
B5 Fe1 B1 . . 3_454 78.56(4)
B5 Fe1 B1 . . 3_455 101.44(4)
B5 Fe1 B5 2_455 . 5_455 141.20(6)
B5 Fe1 B5 2_455 . 6_555 45.52(6)
B5 Fe1 B5 2_455 . 11_455 92.25(6)
B5 Fe1 B5 2_455 . 12_555 92.25(6)
B5 Fe1 B5 2_455 . 15_555 124.97(6)
B5 Fe1 B5 2_455 . 16_455 49.32(6)
B5 Fe1 B2 2_455 . 3_455 114.70(6)
B5 Fe1 B2 2_455 . 4_555 83.63(6)
B5 Fe1 B2 2_455 . 7_555 114.12(6)
B5 Fe1 B2 2_455 . 8_455 44.31(6)
B5 Fe1 B1 2_455 . 3_454 78.56(4)
B5 Fe1 B1 2_455 . 3_455 101.44(4)
B5 Fe1 B5 5_455 . 6_555 157.12(6)
B5 Fe1 B5 5_455 . 11_455 49.32(6)
B5 Fe1 B5 5_455 . 12_555 124.97(6)
B5 Fe1 B5 5_455 . 15_555 92.25(6)
B5 Fe1 B5 5_455 . 16_455 92.25(6)
B5 Fe1 B2 5_455 . 3_455 44.31(6)
B5 Fe1 B2 5_455 . 4_555 114.12(6)
B5 Fe1 B2 5_455 . 7_555 83.63(6)
B5 Fe1 B2 5_455 . 8_455 114.70(6)
B5 Fe1 B1 5_455 . 3_454 101.44(4)
B5 Fe1 B1 5_455 . 3_455 78.56(4)
B5 Fe1 B5 6_555 . 11_455 124.97(6)
B5 Fe1 B5 6_555 . 12_555 49.32(6)
B5 Fe1 B5 6_555 . 15_555 92.25(6)
B5 Fe1 B5 6_555 . 16_455 92.25(6)
B5 Fe1 B2 6_555 . 3_455 114.12(6)
B5 Fe1 B2 6_555 . 4_555 44.31(6)
B5 Fe1 B2 6_555 . 7_555 114.70(6)
B5 Fe1 B2 6_555 . 8_455 83.63(6)
B5 Fe1 B1 6_555 . 3_454 101.44(4)
B5 Fe1 B1 6_555 . 3_455 78.56(4)
B5 Fe1 B5 11_455 . 12_555 157.12(6)
B5 Fe1 B5 11_455 . 15_555 141.20(6)
B5 Fe1 B5 11_455 . 16_455 45.52(6)
B5 Fe1 B2 11_455 . 3_455 44.31(6)
B5 Fe1 B2 11_455 . 4_555 114.12(6)
B5 Fe1 B2 11_455 . 7_555 114.70(6)
B5 Fe1 B2 11_455 . 8_455 83.63(6)
B5 Fe1 B1 11_455 . 3_454 101.44(4)
B5 Fe1 B1 11_455 . 3_455 78.56(4)
B5 Fe1 B5 12_555 . 15_555 45.52(6)
B5 Fe1 B5 12_555 . 16_455 141.20(6)
B5 Fe1 B2 12_555 . 3_455 114.12(6)
B5 Fe1 B2 12_555 . 4_555 44.31(6)
B5 Fe1 B2 12_555 . 7_555 83.63(6)
B5 Fe1 B2 12_555 . 8_455 114.70(6)
B5 Fe1 B1 12_555 . 3_454 101.44(4)
B5 Fe1 B1 12_555 . 3_455 78.56(4)
B5 Fe1 B5 15_555 . 16_455 157.12(6)
B5 Fe1 B2 15_555 . 3_455 114.70(6)
B5 Fe1 B2 15_555 . 4_555 83.63(6)
B5 Fe1 B2 15_555 . 7_555 44.31(6)
B5 Fe1 B2 15_555 . 8_455 114.12(6)
B5 Fe1 B1 15_555 . 3_454 78.56(4)
B5 Fe1 B1 15_555 . 3_455 101.44(4)
B5 Fe1 B2 16_455 . 3_455 83.63(6)
B5 Fe1 B2 16_455 . 4_555 114.70(6)
B5 Fe1 B2 16_455 . 7_555 114.12(6)
B5 Fe1 B2 16_455 . 8_455 44.31(6)
B5 Fe1 B1 16_455 . 3_454 78.56(4)
B5 Fe1 B1 16_455 . 3_455 101.44(4)
B2 Fe1 B2 3_455 . 4_555 78.66(6)
B2 Fe1 B2 3_455 . 7_555 126.75(6)
B2 Fe1 B2 3_455 . 8_455 126.75(6)
B2 Fe1 B1 3_455 . 3_454 140.67(4)
B2 Fe1 B1 3_455 . 3_455 39.33(4)
B2 Fe1 B2 4_555 . 7_555 126.75(6)
B2 Fe1 B2 4_555 . 8_455 126.75(6)
B2 Fe1 B1 4_555 . 3_454 140.67(4)
B2 Fe1 B1 4_555 . 3_455 39.33(4)
B2 Fe1 B2 7_555 . 8_455 78.66(6)
B2 Fe1 B1 7_555 . 3_454 39.33(4)
B2 Fe1 B1 7_555 . 3_455 140.67(4)
B2 Fe1 B1 8_455 . 3_454 39.33(4)
B2 Fe1 B1 8_455 . 3_455 140.67(4)
B1 Fe1 B1 3_454 . 3_455 180.0(5)
B4 B4 B4 6_545 . 7_555 140.90(13)
B4 B4 B5 6_545 . . 136.93(12)
B4 B4 B5 6_545 . 7_555 114.73(12)
B4 B4 B2 6_545 . . 99.17(12)
B4 B4 B3 6_545 . . 111.75(12)
B4 B4 B5 7_555 . . 59.04(9)
B4 B4 B5 7_555 . 7_555 59.58(10)
B4 B4 B2 7_555 . . 107.98(13)
B4 B4 B3 7_555 . . 106.04(13)
B5 B4 B5 . . 7_555 107.59(12)
B5 B4 B2 . . . 107.94(13)
B5 B4 B3 . . . 58.98(10)
B5 B4 B2 7_555 . . 61.26(10)
B5 B4 B3 7_555 . . 108.62(13)
B2 B4 B3 . . . 60.42(10)
Fe1 B5 B4 . . . 167.97(11)
Fe1 B5 B4 . . 7_555 128.93(10)
Fe1 B5 B5 . . 5_455 67.24(8)
Fe1 B5 B5 . . 15_555 65.34(8)
Fe1 B5 B2 . . 7_555 77.02(9)
Fe1 B5 B3 . . . 107.45(10)
B4 B5 B4 . . 7_555 61.39(10)
B4 B5 B5 . . 5_455 114.86(13)
B4 B5 B5 . . 15_555 107.24(12)
B4 B5 B2 . . 7_555 107.95(11)
B4 B5 B3 . . . 60.82(10)
B4 B5 B5 7_555 . 5_455 119.71(13)
B4 B5 B5 7_555 . 15_555 107.34(11)
B4 B5 B2 7_555 . 7_555 59.41(10)
B4 B5 B3 7_555 . . 109.35(12)
B5 B5 B5 5_455 . 15_555 127.38(12)
B5 B5 B2 5_455 . 7_555 128.09(13)
B5 B5 B3 5_455 . . 119.14(12)
B5 B5 B2 15_555 . 7_555 59.33(9)
B5 B5 B3 15_555 . . 58.42(9)
B2 B5 B3 7_555 . . 106.52(12)
Fe1 B2 B4 3_554 . . 112.66(10)
Fe1 B2 B4 3_554 . 15_555 112.66(10)
Fe1 B2 B5 3_554 . 7_555 58.67(8)
Fe1 B2 B5 3_554 . 9_555 58.67(8)
Fe1 B2 B3 3_554 . . 162.71(12)
Fe1 B2 B1 3_554 . . 69.93(6)
B4 B2 B4 . . 15_555 109.65(13)
B4 B2 B5 . . 7_555 59.33(10)
B4 B2 B5 . . 9_555 108.90(13)
B4 B2 B3 . . . 60.32(10)
B4 B2 B1 . . . 122.31(12)
B4 B2 B5 15_555 . 7_555 108.90(13)
B4 B2 B5 15_555 . 9_555 59.33(10)
B4 B2 B3 15_555 . . 60.32(10)
B4 B2 B1 15_555 . . 122.31(12)
B5 B2 B5 7_555 . 9_555 61.35(10)
B5 B2 B3 7_555 . . 107.03(12)
B5 B2 B1 7_555 . . 117.72(12)
B5 B2 B3 9_555 . . 107.03(12)
B5 B2 B1 9_555 . . 117.72(12)
B3 B2 B1 . . . 127.36(13)
B4 B3 B4 . . 15_555 107.92(13)
B4 B3 B5 . . . 60.21(10)
B4 B3 B5 . . 15_555 110.49(13)
B4 B3 B2 . . . 59.26(10)
B4 B3 B3 . . 7_556 122.53(13)
B4 B3 B5 15_555 . . 110.49(13)
B4 B3 B5 15_555 . 15_555 60.21(10)
B4 B3 B2 15_555 . . 59.26(10)
B4 B3 B3 15_555 . 7_556 122.53(13)
B5 B3 B5 . . 15_555 63.16(10)
B5 B3 B2 . . . 107.99(13)
B5 B3 B3 . . 7_556 117.13(13)
B5 B3 B2 15_555 . . 107.99(13)
B5 B3 B3 15_555 . 7_556 117.13(13)
B2 B3 B3 . . 7_556 126.37(14)
Fe1 B1 Fe1 3_554 . 3_555 180.0(5)
Fe1 B1 B2 3_554 . . 70.74(7)
Fe1 B1 B2 3_554 . 2_545 70.74(7)
Fe1 B1 B2 3_554 . 5_555 109.26(7)
Fe1 B1 B2 3_554 . 6_545 109.26(7)
Fe1 B1 B2 3_555 . . 109.26(7)
Fe1 B1 B2 3_555 . 2_545 109.26(7)
Fe1 B1 B2 3_555 . 5_555 70.74(7)
Fe1 B1 B2 3_555 . 6_545 70.74(7)
B2 B1 B2 . . 2_545 141.48(10)
B2 B1 B2 . . 5_555 96.25(9)
B2 B1 B2 . . 6_545 96.25(9)
B2 B1 B2 2_545 . 5_555 96.25(9)
B2 B1 B2 2_545 . 6_545 96.25(9)
B2 B1 B2 5_555 . 6_545 141.48(10)
loop_
_geom_bond_atom_site_label_1
_geom_bond_atom_site_label_2
_geom_bond_site_symmetry_1
_geom_bond_site_symmetry_2
_geom_bond_distance
Fe1 B5 . . 2.2044(17)
Fe1 B5 . 2_455 2.2044(17)
Fe1 B5 . 5_455 2.2044(17)
Fe1 B5 . 6_555 2.2044(17)
Fe1 B5 . 11_455 2.2044(17)
Fe1 B5 . 12_555 2.2044(17)
Fe1 B5 . 15_555 2.2044(17)
Fe1 B5 . 16_455 2.2044(17)
Fe1 B2 . 3_455 2.5147(19)
Fe1 B2 . 4_555 2.5147(19)
Fe1 B2 . 7_555 2.5147(19)
Fe1 B2 . 8_455 2.5147(19)
Fe1 B1 . 3_454 2.5021(2)
Fe1 B1 . 3_455 2.5021(2)
B4 B4 . 6_545 1.938(3)
B4 B4 . 7_555 1.811(2)
B4 B5 . . 1.778(3)
B4 B5 . 7_555 1.768(2)
B4 B2 . . 1.770(3)
B4 B3 . . 1.789(3)
B5 B5 . 5_455 1.706(2)
B5 B5 . 15_555 1.839(2)
B5 B2 . 7_555 1.803(3)
B5 B3 . . 1.756(2)
B2 B3 . . 1.791(3)
B2 B1 . . 1.6883(18)
B3 B3 . 7_556 1.647(3)
loop_
_refln_index_h
_refln_index_k
_refln_index_l
_refln_F_squared_calc
_refln_F_squared_meas
_refln_F_squared_sigma
_refln_observed_status
1 0 1 495.62 502.24 9.26 o
1 0 3 420.37 417.66 11.87 o
1 0 5 53.89 51.05 3.94 o
1 0 7 22.75 26.15 3.89 o
1 1 0 1598.20 1346.18 24.32 o
1 1 1 712.27 773.20 13.29 o
1 1 2 804.90 757.02 13.77 o
1 1 3 383.98 416.60 13.35 o
1 1 4 260.71 235.86 6.15 o
1 1 5 13.23 11.28 1.24 o
1 1 6 79.21 52.74 3.38 o
1 1 7 131.69 125.95 9.23 o
2 0 0 184.06 186.94 4.87 o
2 0 2 194.48 223.72 3.69 o
2 0 4 826.37 785.23 13.29 o
2 0 6 602.78 578.19 17.34 o
2 1 1 381.32 364.28 4.52 o
2 1 2 7.71 10.85 0.84 o
2 1 3 135.51 137.73 3.46 o
2 1 4 24.45 21.49 1.93 o
2 1 5 45.36 34.20 1.62 o
2 1 6 43.37 32.26 2.45 o
2 1 7 31.09 31.71 3.07 o
2 2 0 558.80 520.99 12.85 o
2 2 1 0.04 -0.03 0.16 <
2 2 2 599.86 650.32 13.75 o
2 2 3 0.35 0.17 0.12 <
2 2 4 393.71 442.43 11.11 o
2 2 5 0.45 0.40 0.59 <
2 2 6 115.84 128.93 8.70 o
2 2 7 0.00 1.11 1.17 <
3 0 1 181.03 145.12 3.46 o
3 0 3 142.45 123.55 3.83 o
3 0 5 94.39 88.52 5.48 o
3 1 0 1215.84 1267.19 15.25 o
3 1 1 1068.90 1264.40 8.61 o
3 1 2 678.88 684.89 8.34 o
3 1 3 1370.92 1325.21 20.12 o
3 1 4 209.99 213.42 5.77 o
3 1 5 24.94 26.02 2.53 o
3 1 6 59.99 56.97 3.86 o
3 1 7 312.58 320.81 16.75 o
3 2 2 22.52 25.23 1.32 o
3 2 3 245.94 221.86 5.41 o
3 2 4 6.31 7.95 0.92 o
3 2 5 186.30 201.16 6.08 o
3 2 6 1.28 1.12 0.59 <
3 2 7 19.42 18.08 2.45 o
3 3 1 562.82 663.71 15.32 o
3 3 2 578.23 582.65 14.10 o
3 3 3 1322.12 1344.10 26.46 o
3 3 4 154.57 178.27 7.28 o
3 3 5 199.50 221.29 8.32 o
3 3 6 50.08 59.71 6.15 o
3 3 7 190.47 203.64 12.61 o
4 0 0 354.42 388.36 10.16 o
4 0 2 764.22 833.51 12.27 o
4 0 4 659.40 735.15 12.99 o
4 0 6 21.89 14.08 1.71 o
4 1 1 1422.04 1583.64 13.90 o
4 1 2 74.46 80.51 2.54 o
4 1 3 58.73 83.40 2.34 o
4 1 4 4.73 4.87 0.62 o
4 1 5 50.06 45.02 2.93 o
4 1 6 23.34 24.71 2.93 o
4 1 7 2.00 1.47 1.31 <
4 2 0 1067.37 1046.69 21.00 o
4 2 1 0.92 2.17 0.45 o
4 2 2 544.62 532.95 9.20 o
4 2 3 0.25 1.15 0.32 o
4 2 4 128.99 121.48 4.28 o
4 2 5 1.41 1.39 0.49 o
4 2 6 54.41 50.10 4.06 o
4 2 7 0.66 1.21 1.10 <
4 3 1 396.49 410.74 9.53 o
4 3 2 639.92 648.34 9.89 o
4 3 3 173.81 189.43 4.70 o
4 3 4 252.32 279.87 7.14 o
4 3 5 16.52 17.06 1.59 o
4 3 6 34.51 34.19 2.78 o
4 3 7 2.00 1.05 1.15 <
4 4 1 22.68 21.40 2.78 o
4 4 2 637.82 560.66 15.30 o
4 4 3 22.47 22.37 2.65 o
4 4 4 2.75 2.41 0.90 o
4 4 5 9.67 9.68 1.84 o
4 4 6 0.63 -0.09 0.49 <
4 4 7 17.54 19.16 4.04 o
5 0 1 1706.21 1619.10 21.00 o
5 0 3 0.60 0.73 0.39 <
5 0 5 180.55 175.79 5.34 o
5 1 0 522.55 535.34 9.52 o
5 1 1 61.09 74.53 2.18 o
5 1 2 502.48 539.88 7.49 o
5 1 3 80.51 84.41 2.67 o
5 1 4 296.86 314.57 5.52 o
5 1 5 3.78 2.30 0.48 o
5 1 6 52.50 50.61 3.81 o
5 1 7 34.18 34.88 5.50 o
5 2 1 856.48 787.10 11.48 o
5 2 2 932.80 902.44 14.03 o
5 2 3 135.94 142.19 4.56 o
5 2 4 248.20 270.89 6.68 o
5 2 5 13.66 11.14 1.63 o
5 2 6 117.11 125.11 7.00 o
5 2 7 33.96 33.57 5.57 o
5 3 0 596.92 618.24 16.19 o
5 3 1 1.02 0.11 0.20 <
5 3 2 413.42 463.96 9.35 o
5 3 3 8.55 10.08 1.33 o
5 3 4 168.75 197.72 6.48 o
5 3 5 62.88 71.75 3.66 o
5 3 6 55.69 57.81 3.95 o
5 3 7 3.70 8.18 2.75 o
5 4 1 152.09 129.94 7.00 o
5 4 2 43.88 34.72 2.79 o
5 4 3 333.41 347.64 7.58 o
5 4 4 15.85 15.38 1.26 o
5 4 5 788.83 867.70 15.85 o
5 4 6 3.76 3.43 0.83 o
5 4 7 72.45 69.96 8.56 o
5 5 1 3.03 3.40 1.56 o
5 5 2 333.87 328.89 12.76 o
5 5 3 0.01 0.82 0.70 <
5 5 4 5.82 6.65 1.20 o
5 5 5 18.22 19.45 3.01 o
5 5 6 30.13 29.62 3.64 o
6 0 0 156.31 171.95 7.41 o
6 0 2 15.39 26.99 2.03 o
6 0 4 816.78 840.48 16.00 o
6 1 1 36.89 27.28 1.44 o
6 1 2 436.09 459.33 6.72 o
6 1 3 260.50 277.57 6.16 o
6 1 4 85.12 95.36 3.04 o
6 1 5 530.50 503.14 8.29 o
6 1 6 87.04 76.39 4.35 o
6 2 0 3267.00 3308.27 39.48 o
6 2 1 20.33 18.75 1.38 o
6 2 2 1053.13 931.37 12.97 o
6 2 3 14.01 13.20 1.12 o
6 2 4 21.85 22.79 2.33 o
6 2 5 21.57 21.33 1.87 o
6 2 6 171.56 156.90 7.94 o
6 3 1 876.83 856.65 13.47 o
6 3 2 299.40 273.89 7.32 o
6 3 3 25.95 27.60 2.14 o
6 3 4 79.90 81.95 3.98 o
6 3 5 62.17 69.08 4.46 o
6 3 6 44.52 46.91 3.71 o
6 4 0 17.16 33.98 3.79 o
6 4 1 0.00 0.24 0.50 <
6 4 2 68.36 68.31 5.36 o
6 4 3 2.26 1.91 0.70 o
6 4 4 633.03 693.18 13.36 o
6 4 5 8.03 7.70 1.49 o
6 4 6 495.49 496.17 14.80 o
6 5 1 278.54 254.40 11.99 o
6 5 2 27.02 26.72 2.78 o
6 5 3 54.46 52.49 3.86 o
6 5 4 2.22 1.15 0.41 o
6 5 5 1.54 1.89 0.84 o
6 5 6 35.94 37.41 3.70 o
6 6 2 517.90 437.15 18.21 o
6 6 3 133.30 129.52 8.77 o
6 6 4 101.25 116.55 8.46 o
6 6 5 13.06 13.98 3.99 o
7 0 1 7.78 6.65 1.08 o
7 0 3 182.22 188.11 6.28 o
7 0 5 362.11 344.96 10.11 o
7 1 0 396.33 360.07 8.62 o
7 1 1 12.09 12.20 1.04 o
7 1 2 246.96 247.90 5.00 o
7 1 3 10.18 10.42 1.19 o
7 1 4 115.32 118.78 4.19 o
7 1 5 10.23 10.06 1.12 o
7 2 1 203.07 196.98 4.89 o
7 2 2 288.79 302.72 6.54 o
7 2 3 90.66 85.82 3.47 o
7 2 4 127.70 140.72 4.78 o
7 2 5 19.07 17.35 2.04 o
7 2 6 17.75 14.34 3.05 o
7 3 0 113.51 103.22 6.48 o
7 3 1 7.36 7.13 1.05 o
7 3 2 244.60 234.29 7.11 o
7 3 3 35.11 37.09 3.17 o
7 3 4 354.12 373.48 9.33 o
7 3 5 14.80 11.82 1.92 o
7 3 6 98.65 83.48 8.38 o
7 4 1 221.21 199.15 7.76 o
7 4 2 4.11 5.14 1.21 o
7 4 3 32.33 32.39 3.02 o
7 4 4 5.77 5.95 1.19 o
7 4 5 4.22 2.39 1.25 <
7 4 6 0.22 0.76 0.88 <
7 5 0 365.69 317.67 15.95 o
7 5 1 100.58 79.71 6.58 o
7 5 2 290.02 275.41 12.44 o
7 5 3 209.78 192.50 6.92 o
7 5 4 125.17 140.67 6.70 o
7 5 5 0.00 0.76 1.21 <
7 5 6 21.18 19.05 4.44 o
7 6 1 652.87 578.70 23.75 o
7 6 2 96.86 80.58 7.14 o
7 6 3 41.47 40.31 4.81 o
7 6 4 31.27 36.54 4.02 o
7 7 2 468.94 379.30 23.17 o
8 0 0 1034.87 1066.92 25.22 o
8 0 2 413.20 417.49 10.20 o
8 0 4 9.36 14.74 2.82 o
8 1 1 255.91 248.16 5.30 o
8 1 2 10.52 9.62 0.98 o
8 1 3 90.63 97.01 3.83 o
8 1 4 38.68 35.99 2.80 o
8 1 5 3.21 2.92 0.84 o
8 2 0 146.06 148.28 5.65 o
8 2 1 9.86 10.35 1.15 o
8 2 2 193.90 210.45 5.59 o
8 2 3 40.98 40.54 2.55 o
8 2 4 223.62 208.17 6.39 o
8 2 5 12.61 13.71 3.16 o
8 3 1 399.86 400.27 9.25 o
8 3 2 18.02 16.81 1.94 o
8 3 3 32.12 29.26 2.84 o
8 3 4 6.53 5.16 1.55 o
8 3 5 9.07 8.34 2.76 o
8 3 6 1.74 0.18 0.67 <
8 4 0 244.08 219.56 10.81 o
8 4 1 111.15 100.56 5.52 o
8 4 2 278.77 269.40 8.44 o
8 4 3 242.14 249.30 10.98 o
8 4 4 190.43 201.24 9.15 o
8 4 5 0.23 0.37 0.98 <
8 4 6 19.55 16.72 4.04 o
8 5 1 0.85 0.66 0.73 <
8 5 2 264.23 248.26 17.18 o
8 5 3 51.59 57.22 5.82 o
8 5 4 136.33 146.82 8.18 o
8 5 5 150.30 148.04 14.00 o
8 5 6 11.73 10.77 3.59 o
8 6 1 0.53 0.34 0.83 <
8 6 4 86.70 102.35 8.39 o
9 0 1 0.52 -0.19 0.27 <
9 0 3 254.83 271.01 10.75 o
9 0 5 210.94 235.04 12.74 o
9 1 0 1310.15 1317.51 21.81 o
9 1 1 150.63 161.65 4.44 o
9 1 2 454.67 463.84 8.94 o
9 1 3 498.62 522.82 11.66 o
9 1 4 1.22 1.44 0.53 o
9 1 5 70.66 76.01 5.21 o
9 2 1 280.36 302.56 6.85 o
9 2 2 74.57 83.06 3.87 o
9 2 3 44.90 45.03 3.27 o
9 2 4 5.87 6.81 1.26 o
9 2 5 1.01 0.12 0.28 <
9 3 0 231.27 205.09 10.77 o
9 3 1 201.28 213.19 7.01 o
9 3 2 203.88 197.48 7.80 o
9 3 3 577.72 606.54 17.73 o
9 3 4 124.42 134.23 7.36 o
9 4 1 234.30 204.04 9.52 o
9 4 2 308.81 314.63 12.76 o
9 4 3 4.31 4.28 1.83 o
9 4 4 129.85 148.15 9.56 o
9 4 5 1.31 8.99 1.85 o
9 5 0 80.48 65.00 8.47 o
9 5 1 96.56 78.55 9.50 o
9 5 3 265.78 260.35 14.66 o
9 5 4 652.15 792.62 26.87 o
10 0 0 224.14 200.18 10.41 o
10 0 2 148.71 146.94 8.35 o
10 0 4 75.88 82.35 8.16 o
10 1 1 137.43 137.84 4.83 o
10 1 2 124.11 125.43 5.47 o
10 1 3 29.91 29.10 2.58 o
10 1 4 12.71 10.49 1.67 o
10 1 5 4.74 3.23 1.67 <
10 2 0 222.58 210.15 8.98 o
10 2 1 279.27 283.75 8.00 o
10 2 2 208.77 209.44 7.39 o
10 2 3 570.22 593.57 15.05 o
10 2 4 120.96 128.31 6.05 o
10 2 5 0.50 2.03 1.75 <
10 3 1 0.67 0.57 0.62 <
10 3 2 6.79 6.52 1.58 o
10 3 3 109.79 110.51 7.40 o
10 3 4 14.34 14.76 2.53 o
10 4 2 109.44 107.15 7.54 o
10 4 3 192.42 175.30 9.53 o
10 4 4 145.87 154.66 10.90 o
10 5 3 23.28 25.95 4.78 o
11 0 1 277.56 291.48 18.42 o
11 0 3 8.25 4.68 1.49 o
11 1 1 15.47 13.55 2.71 o
11 1 2 30.32 27.50 3.07 o
11 1 3 30.48 21.58 2.37 o
11 1 4 599.73 623.26 15.57 o
11 2 1 7.80 5.95 2.40 o
11 2 2 14.91 12.86 2.07 o
11 2 3 29.36 29.70 3.08 o
11 2 4 8.64 8.84 1.74 o
11 3 2 206.92 211.15 14.77 o
11 3 3 29.30 37.19 5.38 o
11 3 4 0.56 0.23 0.58 <
11 4 2 11.01 11.93 3.47 o
11 4 3 106.09 103.92 9.77 o
11 5 3 0.00 -0.29 0.76 <
12 0 4 1.47 0.14 0.84 <
12 1 3 21.48 23.20 4.54 o
12 1 4 20.25 22.44 3.50 o
12 2 3 240.16 259.35 11.63 o
12 3 3 94.88 100.81 10.38 o
12 4 3 34.89 42.28 6.83 o
