#------------------------------------------------------------------------------
#$Date: 2021-04-14 13:08:44 +0300 (Wed, 14 Apr 2021) $
#$Revision: 264158 $
#$URL: file:///home/coder/svn-repositories/cod/cif/1/56/17/1561763.cif $
#------------------------------------------------------------------------------
#
# This file is available in the Crystallography Open Database (COD),
# http://www.crystallography.net/
#
# All data on this site have been placed in the public domain by the
# contributors.
#
data_1561763
loop_
_publ_author_name
'Bykova, E.'
'Gou, H.'
'Bykov, M.'
'Hanfland, M.'
'Dubrovinsky, L.'
'Dubrovinskaia, N.'
_publ_section_title
;
 Crystal structures and compressibility of novel iron borides Fe2B7 and Fe
 B50 synthesized at high pressure and high temperature
;
_journal_name_full               'Journal of Solid State Chemistry'
_journal_page_first              102
_journal_page_last               109
_journal_paper_doi               10.1016/j.jssc.2015.06.040
_journal_volume                  230
_journal_year                    2015
_chemical_absolute_configuration .
_chemical_compound_source
;
high-pressure high-temperature synthesis
;
_chemical_formula_moiety         'B7 Fe2'
_chemical_formula_sum            'B7 Fe2'
_chemical_formula_weight         187.4
_chemical_name_common            'diiron heptaboride'
_chemical_name_systematic        'diiron heptaboride'
_space_group_IT_number           55
_space_group_name_Hall           '-P 2 2ab'
_space_group_name_H-M_alt        'P b a m'
_symmetry_cell_setting           orthorhombic
_symmetry_Int_Tables_number      55
_symmetry_space_group_name_Hall  '-P 2 2ab'
_symmetry_space_group_name_H-M   'P b a m'
_cell_angle_alpha                90
_cell_angle_beta                 90
_cell_angle_gamma                90
_cell_formula_units_Z            8
_cell_length_a                   16.2755(14)
_cell_length_b                   10.4254(2)
_cell_length_c                   2.78310(10)
_cell_measurement_reflns_used    478
_cell_measurement_temperature    293
_cell_measurement_theta_max      18.5290
_cell_measurement_theta_min      4.4810
_cell_volume                     472.23(4)
_computing_cell_refinement
;
CrysAlisPro, Agilent Technologies,
Version 1.171.37.35 (release 13-08-2014 CrysAlis171 .NET)
(compiled Aug 13 2014,18:06:01)
;
_computing_data_collection
;
CrysAlisPro, Agilent Technologies,
Version 1.171.37.35 (release 13-08-2014 CrysAlis171 .NET)
(compiled Aug 13 2014,18:06:01)
;
_computing_data_reduction
;
CrysAlisPro, Agilent Technologies,
Version 1.171.37.35 (release 13-08-2014 CrysAlis171 .NET)
(compiled Aug 13 2014,18:06:01)
;
_computing_structure_refinement  'Jana2006 (Petricek, 2014)'
_computing_structure_solution    'SHELXS-2013 (Sheldrick, 2013)'
_diffrn_ambient_pressure         32100000
_diffrn_ambient_temperature      293
_diffrn_detector                 'MAR555 flatpanel detector'
_diffrn_measured_fraction_theta_full 0.86
_diffrn_measured_fraction_theta_max 0.54
_diffrn_measurement_device
;
customized omega-circle diffractometer
;
_diffrn_measurement_device_type  'ESRF, beamline ID09A diffractometer'
_diffrn_measurement_method       '\w scans'
_diffrn_radiation_monochromator  synchrotron
_diffrn_radiation_probe          x-ray
_diffrn_radiation_source         synchrotron
_diffrn_radiation_type           synchrotron
_diffrn_radiation_wavelength     0.41441
_diffrn_reflns_av_R_equivalents  0.0346
_diffrn_reflns_av_unetI/netI     0.035
_diffrn_reflns_limit_h_max       18
_diffrn_reflns_limit_h_min       -17
_diffrn_reflns_limit_k_max       14
_diffrn_reflns_limit_k_min       -15
_diffrn_reflns_limit_l_max       3
_diffrn_reflns_limit_l_min       -3
_diffrn_reflns_number            1825
_diffrn_reflns_theta_full        14.61
_diffrn_reflns_theta_max         19.48
_diffrn_reflns_theta_min         1.85
_diffrn_source                   synchrotron
_exptl_absorpt_coefficient_mu    2.477
_exptl_absorpt_correction_T_max  1.00000
_exptl_absorpt_correction_T_min  0.43580
_exptl_absorpt_correction_type   multi-scan
_exptl_absorpt_process_details
;
CrysAlisPro, Agilent Technologies,
Version 1.171.37.35 (release 13-08-2014 CrysAlis171 .NET)
(compiled Aug 13 2014,18:06:01)
Empirical absorption correction using spherical harmonics,
 implemented in SCALE3 ABSPACK scaling algorithm.
;
_exptl_crystal_colour            black
_exptl_crystal_density_diffrn    5.269
_exptl_crystal_description       plate
_exptl_crystal_F_000             696
_exptl_crystal_size_max          0.025
_exptl_crystal_size_mid          0.025
_exptl_crystal_size_min          0.005
_refine_diff_density_max         1.16
_refine_diff_density_min         -1.14
_refine_ls_extinction_method     none
_refine_ls_goodness_of_fit_gt    1.90
_refine_ls_goodness_of_fit_ref   1.80
_refine_ls_number_constraints    0
_refine_ls_number_parameters     67
_refine_ls_number_reflns         649
_refine_ls_number_restraints     0
_refine_ls_R_factor_all          0.0474
_refine_ls_R_factor_gt           0.0398
_refine_ls_shift/su_max          0.0001
_refine_ls_shift/su_mean         0.0000
_refine_ls_structure_factor_coef Fsqd
_refine_ls_weighting_details     w=1/(\s^2^(I)+0.0004I^2^)
_refine_ls_weighting_scheme      sigma
_refine_ls_wR_factor_gt          0.0856
_refine_ls_wR_factor_ref         0.0896
_reflns_number_gt                546
_reflns_number_total             649
_reflns_threshold_expression     I>2\s(I)
_cod_data_source_file            Fe2B7_32.1GPa.cif
_cod_data_source_block           Fe2B7_32.1GPa
_cod_depositor_comments
;
The following automatic conversions were performed:

data item '_diffrn_radiation_probe' value 'X-ray' was changed to
'x-ray' in accordance with the built-in table derived from the CIF
Core dictionary named 'cif_core.dic' version 2.4.5 last updated on
2014-11-21.

Automatic conversion script
Id: cif_fix_values 8369 2020-08-20 11:38:08Z andrius 
;
_cod_database_code               1561763
loop_
_symmetry_equiv_pos_site_id
_symmetry_equiv_pos_as_xyz
1 x,y,z
2 -x,-y,z
3 -x+1/2,y+1/2,-z
4 x+1/2,-y+1/2,-z
5 -x,-y,-z
6 x,y,-z
7 x+1/2,-y+1/2,z
8 -x+1/2,y+1/2,z
loop_
_atom_site_label
_atom_site_type_symbol
_atom_site_fract_x
_atom_site_fract_y
_atom_site_fract_z
_atom_site_adp_type
_atom_site_U_iso_or_equiv
_atom_site_site_symmetry_multiplicity
_atom_site_occupancy
_atom_site_calc_flag
_atom_site_refinement_flags
_atom_site_disorder_assembly
_atom_site_disorder_group
Fe1 Fe 0.22085(9) 0.46702(8) 0.5 Uani 0.0064(4) 4 1 d . . .
Fe2 Fe 0.12083(9) 0.17859(8) 0 Uani 0.0054(4) 4 1 d . . .
Fe3 Fe 0.46433(9) 0.10554(8) 0.5 Uani 0.0057(4) 4 1 d . . .
Fe4 Fe 0.38991(9) 0.26643(8) 0 Uani 0.0052(4) 4 1 d . . .
B1 B 0.3681(7) 0.0511(7) 0 Uiso 0.0080(14) 4 1 d . . .
B2 B 0.0482(7) 0.4617(6) 0 Uiso 0.0056(13) 4 1 d . . .
B3 B 0.3028(7) 0.3910(6) 0 Uiso 0.0032(13) 4 1 d . . .
B4 B 0.1390(7) 0.3752(6) 0 Uiso 0.0049(13) 4 1 d . . .
B5 B 0.4448(7) 0.4029(6) 0.5 Uiso 0.0045(13) 4 1 d . . .
B6 B 0.2010(7) 0.0449(6) 0 Uiso 0.0053(13) 4 1 d . . .
B7 B 0.2891(7) 0.2866(7) 0.5 Uiso 0.0081(14) 4 1 d . . .
B8 B 0.0335(7) 0.3037(6) 0 Uiso 0.0041(13) 4 1 d . . .
B9 B 0.3972(7) 0.4767(6) 0 Uiso 0.0040(13) 4 1 d . . .
B10 B 0.0535(7) 0.0585(6) 0.5 Uiso 0.0036(13) 4 1 d . . .
B11 B 0.0175(7) 0.2111(6) 0.5 Uiso 0.0055(13) 4 1 d . . .
B12 B 0.3381(7) 0.1393(6) 0.5 Uiso 0.0043(13) 4 1 d . . .
B13 B 0.2196(7) 0.1452(6) 0.5 Uiso 0.0051(13) 4 1 d . . .
B14 B 0.1806(7) 0.2925(7) 0.5 Uiso 0.0090(15) 4 1 d . . .
loop_
_atom_site_aniso_label
_atom_site_aniso_type_symbol
_atom_site_aniso_U_11
_atom_site_aniso_U_22
_atom_site_aniso_U_33
_atom_site_aniso_U_12
_atom_site_aniso_U_13
_atom_site_aniso_U_23
Fe1 Fe 0.0077(10) 0.0038(4) 0.0077(5) 0.0009(4) 0 0
Fe2 Fe 0.0069(9) 0.0049(4) 0.0045(4) 0.0004(4) 0 0
Fe3 Fe 0.0087(9) 0.0050(4) 0.0035(4) -0.0006(4) 0 0
Fe4 Fe 0.0066(9) 0.0048(4) 0.0042(4) 0.0008(4) 0 0
loop_
_atom_type_symbol
_atom_type_scat_dispersion_real
_atom_type_scat_dispersion_imag
_atom_type_scat_source
B -0.0003 0.0002 'International Tables Vol C tables 4.2.6.8 and 6.1.1.1'
Fe 0.1991 0.3104 'International Tables Vol C tables 4.2.6.8 and 6.1.1.1'
loop_
_geom_angle_atom_site_label_1
_geom_angle_atom_site_label_2
_geom_angle_atom_site_label_3
_geom_angle_site_symmetry_1
_geom_angle_site_symmetry_2
_geom_angle_site_symmetry_3
_geom_angle
Fe1 Fe1 Fe1 1_554 . 1_556 180.0(5)
Fe1 Fe1 B1 1_554 . 3_555 50.57(17)
Fe1 Fe1 B1 1_554 . 3_556 129.43(18)
Fe1 Fe1 B3 1_554 . . 48.11(18)
Fe1 Fe1 B3 1_554 . 1_556 131.89(19)
Fe1 Fe1 B4 1_554 . . 49.70(17)
Fe1 Fe1 B4 1_554 . 1_556 130.30(18)
Fe1 Fe1 B6 1_554 . 3_555 47.32(19)
Fe1 Fe1 B6 1_554 . 3_556 132.7(2)
Fe1 Fe1 B7 1_554 . . 90.00(3)
Fe1 Fe1 B12 1_554 . 3_556 90.00(3)
Fe1 Fe1 B13 1_554 . 3_556 90.00(3)
Fe1 Fe1 B14 1_554 . . 90.00(3)
Fe1 Fe1 B1 1_556 . 3_555 129.43(18)
Fe1 Fe1 B1 1_556 . 3_556 50.57(17)
Fe1 Fe1 B3 1_556 . . 131.89(19)
Fe1 Fe1 B3 1_556 . 1_556 48.11(18)
Fe1 Fe1 B4 1_556 . . 130.30(18)
Fe1 Fe1 B4 1_556 . 1_556 49.70(17)
Fe1 Fe1 B6 1_556 . 3_555 132.7(2)
Fe1 Fe1 B6 1_556 . 3_556 47.32(19)
Fe1 Fe1 B7 1_556 . . 90.00(3)
Fe1 Fe1 B12 1_556 . 3_556 90.00(3)
Fe1 Fe1 B13 1_556 . 3_556 90.00(3)
Fe1 Fe1 B14 1_556 . . 90.00(3)
B1 Fe1 B1 3_555 . 3_556 78.9(2)
B1 Fe1 B3 3_555 . . 98.7(2)
B1 Fe1 B3 3_555 . 1_556 177.5(2)
B1 Fe1 B4 3_555 . . 50.0(3)
B1 Fe1 B4 3_555 . 1_556 100.3(3)
B1 Fe1 B6 3_555 . 3_555 79.7(3)
B1 Fe1 B6 3_555 . 3_556 133.0(3)
B1 Fe1 B7 3_555 . . 132.9(2)
B1 Fe1 B12 3_555 . 3_556 48.4(2)
B1 Fe1 B13 3_555 . 3_556 87.2(3)
B1 Fe1 B14 3_555 . . 98.8(3)
B1 Fe1 B3 3_556 . . 177.5(2)
B1 Fe1 B3 3_556 . 1_556 98.7(2)
B1 Fe1 B4 3_556 . . 100.3(3)
B1 Fe1 B4 3_556 . 1_556 50.0(3)
B1 Fe1 B6 3_556 . 3_555 133.0(3)
B1 Fe1 B6 3_556 . 3_556 79.7(3)
B1 Fe1 B7 3_556 . . 132.9(2)
B1 Fe1 B12 3_556 . 3_556 48.4(2)
B1 Fe1 B13 3_556 . 3_556 87.2(3)
B1 Fe1 B14 3_556 . . 98.8(3)
B3 Fe1 B3 . . 1_556 83.8(3)
B3 Fe1 B4 . . . 78.2(3)
B3 Fe1 B4 . . 1_556 131.2(3)
B3 Fe1 B6 . . 3_555 45.7(3)
B3 Fe1 B6 . . 3_556 101.9(3)
B3 Fe1 B7 . . . 49.3(2)
B3 Fe1 B12 . . 3_556 129.6(2)
B3 Fe1 B13 . . 3_556 92.4(3)
B3 Fe1 B14 . . . 81.9(3)
B3 Fe1 B4 1_556 . . 131.2(3)
B3 Fe1 B4 1_556 . 1_556 78.2(3)
B3 Fe1 B6 1_556 . 3_555 101.9(3)
B3 Fe1 B6 1_556 . 3_556 45.7(3)
B3 Fe1 B7 1_556 . . 49.3(2)
B3 Fe1 B12 1_556 . 3_556 129.6(2)
B3 Fe1 B13 1_556 . 3_556 92.4(3)
B3 Fe1 B14 1_556 . . 81.9(3)
B4 Fe1 B4 . . 1_556 80.6(2)
B4 Fe1 B6 . . 3_555 97.0(3)
B4 Fe1 B6 . . 3_556 176.7(2)
B4 Fe1 B7 . . . 86.1(3)
B4 Fe1 B12 . . 3_556 95.8(3)
B4 Fe1 B13 . . 3_556 132.91(19)
B4 Fe1 B14 . . . 51.1(2)
B4 Fe1 B6 1_556 . 3_555 176.7(2)
B4 Fe1 B6 1_556 . 3_556 97.0(3)
B4 Fe1 B7 1_556 . . 86.1(3)
B4 Fe1 B12 1_556 . 3_556 95.8(3)
B4 Fe1 B13 1_556 . 3_556 132.91(19)
B4 Fe1 B14 1_556 . . 51.1(2)
B6 Fe1 B6 3_555 . 3_556 85.4(3)
B6 Fe1 B7 3_555 . . 91.5(3)
B6 Fe1 B12 3_555 . 3_556 86.7(3)
B6 Fe1 B13 3_555 . 3_556 50.4(2)
B6 Fe1 B14 3_555 . . 125.6(2)
B6 Fe1 B7 3_556 . . 91.5(3)
B6 Fe1 B12 3_556 . 3_556 86.7(3)
B6 Fe1 B13 3_556 . 3_556 50.4(2)
B6 Fe1 B14 3_556 . . 125.6(2)
B7 Fe1 B12 . . 3_556 177.5(4)
B7 Fe1 B13 . . 3_556 121.9(4)
B7 Fe1 B14 . . . 50.3(4)
B12 Fe1 B13 3_556 . 3_556 55.6(4)
B12 Fe1 B14 3_556 . . 132.1(4)
B13 Fe1 B14 3_556 . . 172.2(4)
Fe2 Fe2 Fe2 1_554 . 1_556 180.0(5)
Fe2 Fe2 B4 1_554 . . 90.00(3)
Fe2 Fe2 B6 1_554 . . 90.00(3)
Fe2 Fe2 B8 1_554 . . 90.00(3)
Fe2 Fe2 B9 1_554 . 3_545 90.00(2)
Fe2 Fe2 B10 1_554 . 1_554 50.08(14)
Fe2 Fe2 B10 1_554 . . 129.92(15)
Fe2 Fe2 B11 1_554 . 1_554 50.96(18)
Fe2 Fe2 B11 1_554 . . 129.04(19)
Fe2 Fe2 B13 1_554 . 1_554 49.78(19)
Fe2 Fe2 B13 1_554 . . 130.22(19)
Fe2 Fe2 B14 1_554 . 1_554 47.82(17)
Fe2 Fe2 B14 1_554 . . 132.18(18)
Fe2 Fe2 B4 1_556 . . 90.00(3)
Fe2 Fe2 B6 1_556 . . 90.00(3)
Fe2 Fe2 B8 1_556 . . 90.00(3)
Fe2 Fe2 B9 1_556 . 3_545 90.00(2)
Fe2 Fe2 B10 1_556 . 1_554 129.92(15)
Fe2 Fe2 B10 1_556 . . 50.08(14)
Fe2 Fe2 B11 1_556 . 1_554 129.04(19)
Fe2 Fe2 B11 1_556 . . 50.96(18)
Fe2 Fe2 B13 1_556 . 1_554 130.22(19)
Fe2 Fe2 B13 1_556 . . 49.78(19)
Fe2 Fe2 B14 1_556 . 1_554 132.18(18)
Fe2 Fe2 B14 1_556 . . 47.82(17)
B4 Fe2 B6 . . . 128.7(4)
B4 Fe2 B8 . . . 55.6(4)
B4 Fe2 B9 . . 3_545 179.8(4)
B4 Fe2 B10 . . 1_554 130.0(2)
B4 Fe2 B10 . . . 130.0(2)
B4 Fe2 B11 . . 1_554 87.5(3)
B4 Fe2 B11 . . . 87.5(3)
B4 Fe2 B13 . . 1_554 93.1(3)
B4 Fe2 B13 . . . 93.1(3)
B4 Fe2 B14 . . 1_554 50.6(2)
B4 Fe2 B14 . . . 50.6(2)
B6 Fe2 B8 . . . 175.7(4)
B6 Fe2 B9 . . 3_545 51.1(4)
B6 Fe2 B10 . . 1_554 85.6(3)
B6 Fe2 B10 . . . 85.6(3)
B6 Fe2 B11 . . 1_554 129.2(2)
B6 Fe2 B11 . . . 129.2(2)
B6 Fe2 B13 . . 1_554 51.1(2)
B6 Fe2 B13 . . . 51.1(2)
B6 Fe2 B14 . . 1_554 95.6(3)
B6 Fe2 B14 . . . 95.6(3)
B8 Fe2 B9 . . 3_545 124.6(4)
B8 Fe2 B10 . . 1_554 91.1(3)
B8 Fe2 B10 . . . 91.1(3)
B8 Fe2 B11 . . 1_554 48.3(2)
B8 Fe2 B11 . . . 48.3(2)
B8 Fe2 B13 . . 1_554 131.2(2)
B8 Fe2 B13 . . . 131.2(2)
B8 Fe2 B14 . . 1_554 87.6(3)
B8 Fe2 B14 . . . 87.6(3)
B9 Fe2 B10 3_545 . 1_554 50.1(2)
B9 Fe2 B10 3_545 . . 50.1(2)
B9 Fe2 B11 3_545 . 1_554 92.7(3)
B9 Fe2 B11 3_545 . . 92.7(3)
B9 Fe2 B13 3_545 . 1_554 86.7(3)
B9 Fe2 B13 3_545 . . 86.7(3)
B9 Fe2 B14 3_545 . 1_554 129.2(2)
B9 Fe2 B14 3_545 . . 129.2(2)
B10 Fe2 B10 1_554 . . 79.8(2)
B10 Fe2 B11 1_554 . 1_554 45.6(3)
B10 Fe2 B11 1_554 . . 96.2(3)
B10 Fe2 B13 1_554 . 1_554 82.5(3)
B10 Fe2 B13 1_554 . . 134.3(3)
B10 Fe2 B14 1_554 . 1_554 97.9(2)
B10 Fe2 B14 1_554 . . 177.3(3)
B10 Fe2 B11 . . 1_554 96.2(3)
B10 Fe2 B11 . . . 45.6(3)
B10 Fe2 B13 . . 1_554 134.3(3)
B10 Fe2 B13 . . . 82.5(3)
B10 Fe2 B14 . . 1_554 177.3(3)
B10 Fe2 B14 . . . 97.9(2)
B11 Fe2 B11 1_554 . . 78.1(3)
B11 Fe2 B13 1_554 . 1_554 100.7(3)
B11 Fe2 B13 1_554 . . 178.7(3)
B11 Fe2 B14 1_554 . 1_554 81.2(3)
B11 Fe2 B14 1_554 . . 133.8(3)
B11 Fe2 B13 . . 1_554 178.7(3)
B11 Fe2 B13 . . . 100.7(3)
B11 Fe2 B14 . . 1_554 133.8(3)
B11 Fe2 B14 . . . 81.2(3)
B13 Fe2 B13 1_554 . . 80.4(3)
B13 Fe2 B14 1_554 . 1_554 46.3(3)
B13 Fe2 B14 1_554 . . 100.1(3)
B13 Fe2 B14 . . 1_554 100.1(3)
B13 Fe2 B14 . . . 46.3(3)
B14 Fe2 B14 1_554 . . 84.4(2)
Fe3 Fe3 Fe3 1_554 . 1_556 180.0(5)
Fe3 Fe3 Fe3 1_554 . 2_655 90.00(3)
Fe3 Fe3 Fe4 1_554 . . 56.07(3)
Fe3 Fe3 Fe4 1_554 . 1_556 123.93(4)
Fe3 Fe3 B1 1_554 . . 50.13(19)
Fe3 Fe3 B1 1_554 . 1_556 129.87(19)
Fe3 Fe3 B2 1_554 . 3_545 47.40(12)
Fe3 Fe3 B2 1_554 . 3_546 132.60(13)
Fe3 Fe3 B2 1_554 . 4_555 47.81(19)
Fe3 Fe3 B2 1_554 . 4_556 132.2(2)
Fe3 Fe3 B8 1_554 . 4_555 46.59(18)
Fe3 Fe3 B8 1_554 . 4_556 133.41(19)
Fe3 Fe3 B11 1_554 . 4_556 90.00(3)
Fe3 Fe3 B12 1_554 . . 90.00(4)
Fe3 Fe3 Fe3 1_556 . 2_655 90.00(3)
Fe3 Fe3 Fe4 1_556 . . 123.93(4)
Fe3 Fe3 Fe4 1_556 . 1_556 56.07(3)
Fe3 Fe3 B1 1_556 . . 129.87(19)
Fe3 Fe3 B1 1_556 . 1_556 50.13(19)
Fe3 Fe3 B2 1_556 . 3_545 132.60(13)
Fe3 Fe3 B2 1_556 . 3_546 47.40(12)
Fe3 Fe3 B2 1_556 . 4_555 132.2(2)
Fe3 Fe3 B2 1_556 . 4_556 47.81(19)
Fe3 Fe3 B8 1_556 . 4_555 133.41(19)
Fe3 Fe3 B8 1_556 . 4_556 46.59(18)
Fe3 Fe3 B11 1_556 . 4_556 90.00(3)
Fe3 Fe3 B12 1_556 . . 90.00(4)
Fe3 Fe3 Fe4 2_655 . . 145.251(19)
Fe3 Fe3 Fe4 2_655 . 1_556 145.251(19)
Fe3 Fe3 B1 2_655 . . 96.0(2)
Fe3 Fe3 B1 2_655 . 1_556 96.0(2)
Fe3 Fe3 B2 2_655 . 3_545 53.2(2)
Fe3 Fe3 B2 2_655 . 3_546 53.2(2)
Fe3 Fe3 B2 2_655 . 4_555 52.64(16)
Fe3 Fe3 B2 2_655 . 4_556 52.64(16)
Fe3 Fe3 B8 2_655 . 4_555 98.8(2)
Fe3 Fe3 B8 2_655 . 4_556 98.8(2)
Fe3 Fe3 B11 2_655 . 4_556 127.8(3)
Fe3 Fe3 B12 2_655 . . 127.53(19)
Fe4 Fe3 Fe4 . . 1_556 67.85(3)
Fe4 Fe3 B1 . . . 57.84(18)
Fe4 Fe3 B1 . . 1_556 100.6(2)
Fe4 Fe3 B2 . . 3_545 93.70(19)
Fe4 Fe3 B2 . . 3_546 145.1(3)
Fe4 Fe3 B2 . . 4_555 99.96(16)
Fe4 Fe3 B2 . . 4_556 157.3(2)
Fe4 Fe3 B8 . . 4_555 64.7(3)
Fe4 Fe3 B8 . . 4_556 109.84(19)
Fe4 Fe3 B11 . . 4_556 65.6(2)
Fe4 Fe3 B12 . . . 53.68(13)
Fe4 Fe3 B1 1_556 . . 100.6(2)
Fe4 Fe3 B1 1_556 . 1_556 57.84(18)
Fe4 Fe3 B2 1_556 . 3_545 145.1(3)
Fe4 Fe3 B2 1_556 . 3_546 93.70(19)
Fe4 Fe3 B2 1_556 . 4_555 157.3(2)
Fe4 Fe3 B2 1_556 . 4_556 99.96(16)
Fe4 Fe3 B8 1_556 . 4_555 109.84(19)
Fe4 Fe3 B8 1_556 . 4_556 64.7(3)
Fe4 Fe3 B11 1_556 . 4_556 65.6(2)
Fe4 Fe3 B12 1_556 . . 53.68(13)
B1 Fe3 B1 . . 1_556 79.7(3)
B1 Fe3 B2 . . 3_545 45.8(4)
B1 Fe3 B2 . . 3_546 99.9(3)
B1 Fe3 B2 . . 4_555 87.5(3)
B1 Fe3 B2 . . 4_556 144.8(3)
B1 Fe3 B8 . . 4_555 94.8(3)
B1 Fe3 B8 . . 4_556 164.6(3)
B1 Fe3 B11 . . 4_556 122.4(3)
B1 Fe3 B12 . . . 48.2(2)
B1 Fe3 B2 1_556 . 3_545 99.9(3)
B1 Fe3 B2 1_556 . 3_546 45.8(4)
B1 Fe3 B2 1_556 . 4_555 144.8(3)
B1 Fe3 B2 1_556 . 4_556 87.5(3)
B1 Fe3 B8 1_556 . 4_555 164.6(3)
B1 Fe3 B8 1_556 . 4_556 94.8(3)
B1 Fe3 B11 1_556 . 4_556 122.4(3)
B1 Fe3 B12 1_556 . . 48.2(2)
B2 Fe3 B2 3_545 . 3_546 85.19(18)
B2 Fe3 B2 3_545 . 4_555 50.5(4)
B2 Fe3 B2 3_545 . 4_556 105.9(3)
B2 Fe3 B8 3_545 . 4_555 86.0(2)
B2 Fe3 B8 3_545 . 4_556 149.5(4)
B2 Fe3 B11 3_545 . 4_556 134.9(2)
B2 Fe3 B12 3_545 . . 91.4(3)
B2 Fe3 B2 3_546 . 4_555 105.9(3)
B2 Fe3 B2 3_546 . 4_556 50.5(4)
B2 Fe3 B8 3_546 . 4_555 149.5(4)
B2 Fe3 B8 3_546 . 4_556 86.0(2)
B2 Fe3 B11 3_546 . 4_556 134.9(2)
B2 Fe3 B12 3_546 . . 91.4(3)
B2 Fe3 B2 4_555 . 4_556 84.4(3)
B2 Fe3 B8 4_555 . 4_555 47.9(3)
B2 Fe3 B8 4_555 . 4_556 104.6(4)
B2 Fe3 B11 4_555 . 4_556 92.1(3)
B2 Fe3 B12 4_555 . . 135.0(2)
B2 Fe3 B8 4_556 . 4_555 104.6(4)
B2 Fe3 B8 4_556 . 4_556 47.9(3)
B2 Fe3 B11 4_556 . 4_556 92.1(3)
B2 Fe3 B12 4_556 . . 135.0(2)
B8 Fe3 B8 4_555 . 4_556 86.8(3)
B8 Fe3 B11 4_555 . 4_556 49.08(19)
B8 Fe3 B12 4_555 . . 118.0(3)
B8 Fe3 B11 4_556 . 4_556 49.08(19)
B8 Fe3 B12 4_556 . . 118.0(3)
B11 Fe3 B12 4_556 . . 104.6(3)
Fe3 Fe4 Fe3 1_554 . . 67.85(3)
Fe3 Fe4 Fe4 1_554 . 1_554 56.07(3)
Fe3 Fe4 Fe4 1_554 . 1_556 123.93(4)
Fe3 Fe4 B1 1_554 . . 53.9(2)
Fe3 Fe4 B3 1_554 . . 144.35(8)
Fe3 Fe4 B5 1_554 . 1_554 83.32(18)
Fe3 Fe4 B5 1_554 . . 126.6(3)
Fe3 Fe4 B7 1_554 . 1_554 94.30(18)
Fe3 Fe4 B7 1_554 . . 142.5(2)
Fe3 Fe4 B9 1_554 . . 130.2(2)
Fe3 Fe4 B12 1_554 . 1_554 53.2(3)
Fe3 Fe4 B12 1_554 . . 98.08(19)
Fe3 Fe4 Fe4 . . 1_554 123.93(4)
Fe3 Fe4 Fe4 . . 1_556 56.07(3)
Fe3 Fe4 B1 . . . 53.9(2)
Fe3 Fe4 B3 . . . 144.35(8)
Fe3 Fe4 B5 . . 1_554 126.6(3)
Fe3 Fe4 B5 . . . 83.32(18)
Fe3 Fe4 B7 . . 1_554 142.5(2)
Fe3 Fe4 B7 . . . 94.30(18)
Fe3 Fe4 B9 . . . 130.2(2)
Fe3 Fe4 B12 . . 1_554 98.08(19)
Fe3 Fe4 B12 . . . 53.2(3)
Fe4 Fe4 Fe4 1_554 . 1_556 180.0(5)
Fe4 Fe4 B1 1_554 . . 90.00(2)
Fe4 Fe4 B3 1_554 . . 90.00(3)
Fe4 Fe4 B5 1_554 . 1_554 50.36(13)
Fe4 Fe4 B5 1_554 . . 129.64(14)
Fe4 Fe4 B7 1_554 . 1_554 49.9(2)
Fe4 Fe4 B7 1_554 . . 130.1(2)
Fe4 Fe4 B9 1_554 . . 90.00(2)
Fe4 Fe4 B12 1_554 . 1_554 48.47(14)
Fe4 Fe4 B12 1_554 . . 131.53(15)
Fe4 Fe4 B1 1_556 . . 90.00(2)
Fe4 Fe4 B3 1_556 . . 90.00(3)
Fe4 Fe4 B5 1_556 . 1_554 129.64(14)
Fe4 Fe4 B5 1_556 . . 50.36(13)
Fe4 Fe4 B7 1_556 . 1_554 130.1(2)
Fe4 Fe4 B7 1_556 . . 49.9(2)
Fe4 Fe4 B9 1_556 . . 90.00(2)
Fe4 Fe4 B12 1_556 . 1_554 131.53(15)
Fe4 Fe4 B12 1_556 . . 48.47(14)
B1 Fe4 B3 . . . 123.5(4)
B1 Fe4 B5 . . 1_554 135.07(18)
B1 Fe4 B5 . . . 135.07(18)
B1 Fe4 B7 . . 1_554 88.7(3)
B1 Fe4 B7 . . . 88.7(3)
B1 Fe4 B9 . . . 174.1(4)
B1 Fe4 B12 . . 1_554 46.65(18)
B1 Fe4 B12 . . . 46.65(18)
B3 Fe4 B5 . . 1_554 82.0(3)
B3 Fe4 B5 . . . 82.0(3)
B3 Fe4 B7 . . 1_554 51.3(2)
B3 Fe4 B7 . . . 51.3(2)
B3 Fe4 B9 . . . 50.6(4)
B3 Fe4 B12 . . 1_554 97.5(3)
B3 Fe4 B12 . . . 97.5(3)
B5 Fe4 B5 1_554 . . 79.28(19)
B5 Fe4 B7 1_554 . 1_554 80.6(3)
B5 Fe4 B7 1_554 . . 131.2(3)
B5 Fe4 B9 1_554 . . 47.7(2)
B5 Fe4 B12 1_554 . 1_554 98.83(19)
B5 Fe4 B12 1_554 . . 178.09(18)
B5 Fe4 B7 . . 1_554 131.2(3)
B5 Fe4 B7 . . . 80.6(3)
B5 Fe4 B9 . . . 47.7(2)
B5 Fe4 B12 . . 1_554 178.09(18)
B5 Fe4 B12 . . . 98.83(19)
B7 Fe4 B7 1_554 . . 80.1(3)
B7 Fe4 B9 1_554 . . 86.8(3)
B7 Fe4 B12 1_554 . 1_554 47.9(3)
B7 Fe4 B12 1_554 . . 100.5(3)
B7 Fe4 B9 . . . 86.8(3)
B7 Fe4 B12 . . 1_554 100.5(3)
B7 Fe4 B12 . . . 47.9(3)
B9 Fe4 B12 . . 1_554 130.7(2)
B9 Fe4 B12 . . . 130.7(2)
B12 Fe4 B12 1_554 . . 83.1(2)
Fe1 B1 Fe1 3_545 . 3_546 78.9(3)
Fe1 B1 Fe3 3_545 . 1_554 100.03(5)
Fe1 B1 Fe3 3_545 . . 171.3(4)
Fe1 B1 Fe4 3_545 . . 119.9(3)
Fe1 B1 B2 3_545 . 3_545 108.6(4)
Fe1 B1 B4 3_545 . 3_545 63.9(3)
Fe1 B1 B12 3_545 . 1_554 61.1(3)
Fe1 B1 B12 3_545 . . 122.3(7)
Fe1 B1 Fe3 3_546 . 1_554 171.3(4)
Fe1 B1 Fe3 3_546 . . 100.03(5)
Fe1 B1 Fe4 3_546 . . 119.9(3)
Fe1 B1 B2 3_546 . 3_545 108.6(4)
Fe1 B1 B4 3_546 . 3_545 63.9(3)
Fe1 B1 B12 3_546 . 1_554 122.3(7)
Fe1 B1 B12 3_546 . . 61.1(3)
Fe3 B1 Fe3 1_554 . . 79.7(4)
Fe3 B1 Fe4 1_554 . . 68.2(2)
Fe3 B1 B2 1_554 . 3_545 63.4(4)
Fe3 B1 B4 1_554 . 3_545 107.8(4)
Fe3 B1 B12 1_554 . 1_554 63.3(4)
Fe3 B1 B12 1_554 . . 125.3(5)
Fe3 B1 Fe4 . . . 68.2(2)
Fe3 B1 B2 . . 3_545 63.4(4)
Fe3 B1 B4 . . 3_545 107.8(4)
Fe3 B1 B12 . . 1_554 125.3(5)
Fe3 B1 B12 . . . 63.3(4)
Fe4 B1 B2 . . 3_545 115.4(6)
Fe4 B1 B4 . . 3_545 174.6(7)
Fe4 B1 B12 . . 1_554 61.4(3)
Fe4 B1 B12 . . . 61.4(3)
B2 B1 B4 3_545 . 3_545 59.2(5)
B2 B1 B12 3_545 . 1_554 122.1(5)
B2 B1 B12 3_545 . . 122.1(5)
B4 B1 B12 3_545 . 1_554 120.7(4)
B4 B1 B12 3_545 . . 120.7(4)
B12 B1 B12 1_554 . . 106.4(5)
Fe3 B2 Fe3 3_555 . 3_556 85.2(2)
Fe3 B2 Fe3 3_555 . 4_455 74.13(19)
Fe3 B2 Fe3 3_555 . 4_456 129.5(5)
Fe3 B2 B1 3_555 . 3_555 70.7(3)
Fe3 B2 B2 3_555 . 2_565 65.2(3)
Fe3 B2 B4 3_555 . . 117.7(4)
Fe3 B2 B8 3_555 . . 135.0(3)
Fe3 B2 Fe3 3_556 . 4_455 129.5(5)
Fe3 B2 Fe3 3_556 . 4_456 74.13(19)
Fe3 B2 B1 3_556 . 3_555 70.7(3)
Fe3 B2 B2 3_556 . 2_565 65.2(3)
Fe3 B2 B4 3_556 . . 117.7(4)
Fe3 B2 B8 3_556 . . 135.0(3)
Fe3 B2 Fe3 4_455 . 4_456 84.4(4)
Fe3 B2 B1 4_455 . 3_555 137.31(17)
Fe3 B2 B2 4_455 . 2_565 64.3(4)
Fe3 B2 B4 4_455 . . 112.7(3)
Fe3 B2 B8 4_455 . . 64.6(4)
Fe3 B2 B1 4_456 . 3_555 137.31(17)
Fe3 B2 B2 4_456 . 2_565 64.3(4)
Fe3 B2 B4 4_456 . . 112.7(3)
Fe3 B2 B8 4_456 . . 64.6(4)
B1 B2 B2 3_555 . 2_565 118.7(5)
B1 B2 B4 3_555 . . 65.8(6)
B1 B2 B8 3_555 . . 132.6(8)
B2 B2 B4 2_565 . . 175.5(6)
B2 B2 B8 2_565 . . 108.7(7)
B4 B2 B8 . . . 66.9(5)
Fe1 B3 Fe1 1_554 . . 83.8(4)
Fe1 B3 Fe4 1_554 . . 136.78(15)
Fe1 B3 B6 1_554 . 3_555 66.1(4)
Fe1 B3 B7 1_554 . 1_554 68.3(3)
Fe1 B3 B7 1_554 . . 132.4(7)
Fe1 B3 B9 1_554 . . 111.2(3)
Fe1 B3 Fe4 . . . 136.78(15)
Fe1 B3 B6 . . 3_555 66.1(4)
Fe1 B3 B7 . . 1_554 132.4(7)
Fe1 B3 B7 . . . 68.3(3)
Fe1 B3 B9 . . . 111.2(3)
Fe4 B3 B6 . . 3_555 134.7(7)
Fe4 B3 B7 . . 1_554 71.3(4)
Fe4 B3 B7 . . . 71.3(4)
Fe4 B3 B9 . . . 72.7(5)
B6 B3 B7 3_555 . 1_554 127.3(3)
B6 B3 B7 3_555 . . 127.3(3)
B6 B3 B9 3_555 . . 62.0(5)
B7 B3 B7 1_554 . . 102.8(4)
B7 B3 B9 1_554 . . 114.6(5)
B7 B3 B9 . . . 114.6(5)
Fe1 B4 Fe1 1_554 . . 80.6(3)
Fe1 B4 Fe2 1_554 . . 121.9(3)
Fe1 B4 B1 1_554 . 3_555 66.1(3)
Fe1 B4 B2 1_554 . . 107.3(3)
Fe1 B4 B14 1_554 . 1_554 58.1(3)
Fe1 B4 B14 1_554 . . 119.2(7)
Fe1 B4 Fe2 . . . 121.9(3)
Fe1 B4 B1 . . 3_555 66.1(3)
Fe1 B4 B2 . . . 107.3(3)
Fe1 B4 B14 . . 1_554 119.2(7)
Fe1 B4 B14 . . . 58.1(3)
Fe2 B4 B1 . . 3_555 168.2(7)
Fe2 B4 B2 . . . 113.2(6)
Fe2 B4 B14 . . 1_554 64.7(3)
Fe2 B4 B14 . . . 64.7(3)
B1 B4 B2 3_555 . . 55.0(5)
B1 B4 B14 3_555 . 1_554 120.6(4)
B1 B4 B14 3_555 . . 120.6(4)
B2 B4 B14 . . 1_554 125.5(4)
B2 B4 B14 . . . 125.5(4)
B14 B4 B14 1_554 . . 103.5(5)
Fe4 B5 Fe4 . . 1_556 79.3(3)
Fe4 B5 B9 . . . 66.6(3)
Fe4 B5 B9 . . 1_556 127.3(6)
Fe4 B5 B10 . . 3_556 131.2(4)
Fe4 B5 B10 . . 4_556 123.0(4)
Fe4 B5 B11 . . 4_556 80.0(3)
Fe4 B5 B9 1_556 . . 127.3(6)
Fe4 B5 B9 1_556 . 1_556 66.6(3)
Fe4 B5 B10 1_556 . 3_556 131.2(4)
Fe4 B5 B10 1_556 . 4_556 123.0(4)
Fe4 B5 B11 1_556 . 4_556 80.0(3)
B9 B5 B9 . . 1_556 103.7(6)
B9 B5 B10 . . 3_556 64.7(3)
B9 B5 B10 . . 4_556 109.3(5)
B9 B5 B11 . . 4_556 128.1(3)
B9 B5 B10 1_556 . 3_556 64.7(3)
B9 B5 B10 1_556 . 4_556 109.3(5)
B9 B5 B11 1_556 . 4_556 128.1(3)
B10 B5 B10 3_556 . 4_556 76.2(6)
B10 B5 B11 3_556 . 4_556 134.2(8)
B10 B5 B11 4_556 . 4_556 58.0(5)
Fe1 B6 Fe1 3_545 . 3_546 85.4(4)
Fe1 B6 Fe2 3_545 . . 135.42(16)
Fe1 B6 B3 3_545 . 3_545 68.2(4)
Fe1 B6 B9 3_545 . 3_545 113.9(3)
Fe1 B6 B13 3_545 . 1_554 66.0(3)
Fe1 B6 B13 3_545 . . 131.4(7)
Fe1 B6 Fe2 3_546 . . 135.42(16)
Fe1 B6 B3 3_546 . 3_545 68.2(4)
Fe1 B6 B9 3_546 . 3_545 113.9(3)
Fe1 B6 B13 3_546 . 1_554 131.4(7)
Fe1 B6 B13 3_546 . . 66.0(3)
Fe2 B6 B3 . . 3_545 134.7(8)
Fe2 B6 B9 . . 3_545 70.9(5)
Fe2 B6 B13 . . 1_554 71.7(4)
Fe2 B6 B13 . . . 71.7(4)
B3 B6 B9 3_545 . 3_545 63.8(5)
B3 B6 B13 3_545 . 1_554 126.7(3)
B3 B6 B13 3_545 . . 126.7(3)
B9 B6 B13 3_545 . 1_554 113.4(5)
B9 B6 B13 3_545 . . 113.4(5)
B13 B6 B13 1_554 . . 103.9(4)
Fe1 B7 Fe4 . . . 118.0(3)
Fe1 B7 Fe4 . . 1_556 118.0(3)
Fe1 B7 B3 . . . 62.4(3)
Fe1 B7 B3 . . 1_556 62.4(3)
Fe1 B7 B12 . . . 176.9(7)
Fe1 B7 B13 . . . 112.0(6)
Fe1 B7 B14 . . . 57.4(4)
Fe4 B7 Fe4 . . 1_556 80.1(4)
Fe4 B7 B3 . . . 57.4(4)
Fe4 B7 B3 . . 1_556 117.8(6)
Fe4 B7 B12 . . . 64.1(4)
Fe4 B7 B13 . . . 112.6(3)
Fe4 B7 B14 . . . 139.6(2)
Fe4 B7 B3 1_556 . . 117.8(6)
Fe4 B7 B3 1_556 . 1_556 57.4(4)
Fe4 B7 B12 1_556 . . 64.1(4)
Fe4 B7 B13 1_556 . . 112.6(3)
Fe4 B7 B14 1_556 . . 139.6(2)
B3 B7 B3 . . 1_556 102.8(4)
B3 B7 B12 . . . 119.0(5)
B3 B7 B13 . . . 124.2(4)
B3 B7 B14 . . . 96.0(5)
B3 B7 B12 1_556 . . 119.0(5)
B3 B7 B13 1_556 . . 124.2(4)
B3 B7 B14 1_556 . . 96.0(5)
B12 B7 B13 . . . 64.9(5)
B12 B7 B14 . . . 119.5(6)
B13 B7 B14 . . . 54.5(5)
Fe2 B8 Fe3 . . 4_455 136.53(17)
Fe2 B8 Fe3 . . 4_456 136.53(17)
Fe2 B8 B2 . . . 124.3(7)
Fe2 B8 B11 . . 1_554 74.4(4)
Fe2 B8 B11 . . . 74.4(4)
Fe3 B8 Fe3 4_455 . 4_456 86.8(4)
Fe3 B8 B2 4_455 . . 67.5(3)
Fe3 B8 B11 4_455 . 1_554 67.7(3)
Fe3 B8 B11 4_455 . . 137.4(7)
Fe3 B8 B2 4_456 . . 67.5(3)
Fe3 B8 B11 4_456 . 1_554 137.4(7)
Fe3 B8 B11 4_456 . . 67.7(3)
B2 B8 B11 . . 1_554 125.4(2)
B2 B8 B11 . . . 125.4(2)
B11 B8 B11 1_554 . . 108.6(4)
Fe2 B9 Fe4 3_555 . . 168.9(6)
Fe2 B9 B3 3_555 . . 112.2(5)
Fe2 B9 B5 3_555 . 1_554 119.5(3)
Fe2 B9 B5 3_555 . . 119.5(3)
Fe2 B9 B6 3_555 . 3_555 58.1(3)
Fe2 B9 B10 3_555 . 3_555 66.2(3)
Fe2 B9 B10 3_555 . 3_556 66.2(3)
Fe4 B9 B3 . . . 56.7(3)
Fe4 B9 B5 . . 1_554 65.7(3)
Fe4 B9 B5 . . . 65.7(3)
Fe4 B9 B6 . . 3_555 110.9(5)
Fe4 B9 B10 . . 3_555 119.5(3)
Fe4 B9 B10 . . 3_556 119.5(3)
B3 B9 B5 . . 1_554 99.2(4)
B3 B9 B5 . . . 99.2(4)
B3 B9 B6 . . 3_555 54.1(5)
B3 B9 B10 . . 3_555 128.1(4)
B3 B9 B10 . . 3_556 128.1(4)
B5 B9 B5 1_554 . . 103.7(6)
B5 B9 B6 1_554 . 3_555 125.2(4)
B5 B9 B10 1_554 . 3_555 53.8(3)
B5 B9 B10 1_554 . 3_556 127.8(8)
B5 B9 B6 . . 3_555 125.2(4)
B5 B9 B10 . . 3_555 127.8(8)
B5 B9 B10 . . 3_556 53.8(3)
B6 B9 B10 3_555 . 3_555 102.2(4)
B6 B9 B10 3_555 . 3_556 102.2(4)
B10 B9 B10 3_555 . 3_556 99.9(5)
Fe2 B10 Fe2 . . 1_556 79.8(3)
Fe2 B10 B5 . . 3_546 124.7(4)
Fe2 B10 B5 . . 4_456 111.4(3)
Fe2 B10 B9 . . 3_545 63.7(3)
Fe2 B10 B9 . . 3_546 122.6(6)
Fe2 B10 B11 . . . 68.5(3)
Fe2 B10 B5 1_556 . 3_546 124.7(4)
Fe2 B10 B5 1_556 . 4_456 111.4(3)
Fe2 B10 B9 1_556 . 3_545 122.6(6)
Fe2 B10 B9 1_556 . 3_546 63.7(3)
Fe2 B10 B11 1_556 . . 68.5(3)
B5 B10 B5 3_546 . 4_456 103.8(7)
B5 B10 B9 3_546 . 3_545 61.6(3)
B5 B10 B9 3_546 . 3_546 61.6(3)
B5 B10 B11 3_546 . . 160.7(9)
B5 B10 B9 4_456 . 3_545 122.3(5)
B5 B10 B9 4_456 . 3_546 122.3(5)
B5 B10 B11 4_456 . . 56.9(5)
B9 B10 B9 3_545 . 3_546 99.9(5)
B9 B10 B11 3_545 . . 126.3(3)
B9 B10 B11 3_546 . . 126.3(3)
Fe2 B11 Fe2 . . 1_556 78.1(4)
Fe2 B11 Fe3 . . 4_456 117.0(3)
Fe2 B11 B5 . . 4_456 115.4(3)
Fe2 B11 B8 . . . 57.2(4)
Fe2 B11 B8 . . 1_556 118.8(6)
Fe2 B11 B10 . . . 65.9(4)
Fe2 B11 Fe3 1_556 . 4_456 117.0(3)
Fe2 B11 B5 1_556 . 4_456 115.4(3)
Fe2 B11 B8 1_556 . . 118.8(6)
Fe2 B11 B8 1_556 . 1_556 57.2(4)
Fe2 B11 B10 1_556 . . 65.9(4)
Fe3 B11 B5 4_456 . 4_456 110.8(6)
Fe3 B11 B8 4_456 . . 63.2(3)
Fe3 B11 B8 4_456 . 1_556 63.2(3)
Fe3 B11 B10 4_456 . . 175.9(7)
B5 B11 B8 4_456 . . 120.5(5)
B5 B11 B8 4_456 . 1_556 120.5(5)
B5 B11 B10 4_456 . . 65.1(5)
B8 B11 B8 . . 1_556 108.6(5)
B8 B11 B10 . . . 118.4(4)
B8 B11 B10 1_556 . . 118.4(4)
Fe1 B12 Fe3 3_546 . . 108.4(3)
Fe1 B12 Fe4 3_546 . . 138.28(13)
Fe1 B12 Fe4 3_546 . 1_556 138.28(13)
Fe1 B12 B1 3_546 . . 70.5(4)
Fe1 B12 B1 3_546 . 1_556 70.5(4)
Fe1 B12 B7 3_546 . . 124.5(7)
Fe3 B12 Fe4 . . . 73.2(3)
Fe3 B12 Fe4 . . 1_556 73.2(3)
Fe3 B12 B1 . . . 68.5(5)
Fe3 B12 B1 . . 1_556 68.5(5)
Fe3 B12 B7 . . . 127.2(6)
Fe4 B12 Fe4 . . 1_556 83.1(3)
Fe4 B12 B1 . . . 72.0(3)
Fe4 B12 B1 . . 1_556 138.7(7)
Fe4 B12 B7 . . . 68.0(3)
Fe4 B12 B1 1_556 . . 138.7(7)
Fe4 B12 B1 1_556 . 1_556 72.0(3)
Fe4 B12 B7 1_556 . . 68.0(3)
B1 B12 B1 . . 1_556 106.4(5)
B1 B12 B7 . . . 126.8(3)
B1 B12 B7 1_556 . . 126.8(3)
Fe1 B13 Fe2 3_546 . . 119.2(3)
Fe1 B13 Fe2 3_546 . 1_556 119.2(3)
Fe1 B13 B6 3_546 . . 63.6(3)
Fe1 B13 B6 3_546 . 1_556 63.6(3)
Fe1 B13 B7 3_546 . . 115.0(6)
Fe1 B13 B14 3_546 . . 174.9(7)
Fe2 B13 Fe2 . . 1_556 80.4(4)
Fe2 B13 B6 . . . 57.2(4)
Fe2 B13 B6 . . 1_556 118.4(6)
Fe2 B13 B7 . . . 109.0(3)
Fe2 B13 B14 . . . 64.3(4)
Fe2 B13 B6 1_556 . . 118.4(6)
Fe2 B13 B6 1_556 . 1_556 57.2(4)
Fe2 B13 B7 1_556 . . 109.0(3)
Fe2 B13 B14 1_556 . . 64.3(4)
B6 B13 B6 . . 1_556 103.9(4)
B6 B13 B7 . . . 125.0(4)
B6 B13 B14 . . . 118.8(5)
B6 B13 B7 1_556 . . 125.0(4)
B6 B13 B14 1_556 . . 118.8(5)
B7 B13 B14 . . . 59.9(5)
Fe1 B14 Fe2 . . . 134.3(2)
Fe1 B14 Fe2 . . 1_556 134.3(2)
Fe1 B14 B4 . . . 70.8(3)
Fe1 B14 B4 . . 1_556 70.8(3)
Fe1 B14 B7 . . . 72.2(4)
Fe1 B14 B13 . . . 137.8(8)
Fe2 B14 Fe2 . . 1_556 84.4(3)
Fe2 B14 B4 . . . 64.6(3)
Fe2 B14 B4 . . 1_556 128.8(7)
Fe2 B14 B7 . . . 116.7(4)
Fe2 B14 B13 . . . 69.5(3)
Fe2 B14 B4 1_556 . . 128.8(7)
Fe2 B14 B4 1_556 . 1_556 64.6(3)
Fe2 B14 B7 1_556 . . 116.7(4)
Fe2 B14 B13 1_556 . . 69.5(3)
B4 B14 B4 . . 1_556 103.5(6)
B4 B14 B7 . . . 113.6(5)
B4 B14 B13 . . . 126.6(3)
B4 B14 B7 1_556 . . 113.6(5)
B4 B14 B13 1_556 . . 126.6(3)
B7 B14 B13 . . . 65.5(6)
loop_
_geom_bond_atom_site_label_1
_geom_bond_atom_site_label_2
_geom_bond_site_symmetry_1
_geom_bond_site_symmetry_2
_geom_bond_distance
Fe1 Fe1 . 1_554 2.7831(2)
Fe1 Fe1 . 1_556 2.7831(2)
Fe1 B1 . 3_555 2.191(8)
Fe1 B1 . 3_556 2.191(8)
Fe1 B3 . . 2.084(7)
Fe1 B3 . 1_556 2.084(7)
Fe1 B4 . . 2.151(7)
Fe1 B4 . 1_556 2.151(7)
Fe1 B6 . 3_555 2.053(7)
Fe1 B6 . 3_556 2.053(7)
Fe1 B7 . . 2.184(9)
Fe1 B12 . 3_556 2.036(8)
Fe1 B13 . 3_556 2.095(8)
Fe1 B14 . . 1.933(8)
Fe2 Fe2 . 1_554 2.7831(2)
Fe2 Fe2 . 1_556 2.7831(2)
Fe2 B4 . . 2.071(6)
Fe2 B6 . . 1.909(9)
Fe2 B8 . . 1.929(9)
Fe2 B9 . 3_545 2.125(6)
Fe2 B10 . 1_554 2.168(6)
Fe2 B10 . . 2.168(6)
Fe2 B11 . 1_554 2.209(8)
Fe2 B11 . . 2.209(8)
Fe2 B13 . 1_554 2.155(8)
Fe2 B13 . . 2.155(8)
Fe2 B14 . 1_554 2.073(7)
Fe2 B14 . . 2.073(7)
Fe3 Fe3 . 1_554 2.7831(2)
Fe3 Fe3 . 1_556 2.7831(2)
Fe3 Fe3 . 2_655 2.4881(14)
Fe3 Fe4 . . 2.4933(13)
Fe3 Fe4 . 1_556 2.4933(13)
Fe3 B1 . . 2.171(8)
Fe3 B1 . 1_556 2.171(8)
Fe3 B2 . 3_545 2.056(5)
Fe3 B2 . 3_546 2.056(5)
Fe3 B2 . 4_555 2.072(8)
Fe3 B2 . 4_556 2.072(8)
Fe3 B8 . 4_555 2.025(7)
Fe3 B8 . 4_556 2.025(7)
Fe3 B11 . 4_556 2.098(7)
Fe3 B12 . . 2.085(11)
Fe4 Fe4 . 1_554 2.7831(2)
Fe4 Fe4 . 1_556 2.7831(2)
Fe4 B1 . . 2.273(7)
Fe4 B3 . . 1.923(9)
Fe4 B5 . 1_554 2.181(6)
Fe4 B5 . . 2.181(6)
Fe4 B7 . 1_554 2.162(9)
Fe4 B7 . . 2.162(9)
Fe4 B9 . . 2.196(6)
Fe4 B12 . 1_554 2.099(6)
Fe4 B12 . . 2.099(6)
B1 B2 . 3_545 1.650(14)
B1 B4 . 3_545 1.837(9)
B1 B12 . 1_554 1.738(7)
B1 B12 . . 1.738(7)
B2 B2 . 2_565 1.762(14)
B2 B4 . . 1.730(14)
B2 B8 . . 1.664(9)
B3 B6 . 3_555 1.606(9)
B3 B7 . 1_554 1.781(6)
B3 B7 . . 1.781(6)
B3 B9 . . 1.778(14)
B4 B14 . 1_554 1.772(8)
B4 B14 . . 1.772(8)
B5 B9 . . 1.769(8)
B5 B9 . 1_556 1.769(8)
B5 B10 . 3_556 1.623(9)
B5 B10 . 4_556 1.815(15)
B5 B11 . 4_556 1.677(13)
B6 B9 . 3_545 1.750(15)
B6 B13 . 1_554 1.767(6)
B6 B13 . . 1.767(6)
B7 B12 . . 1.730(11)
B7 B13 . . 1.858(12)
B7 B14 . . 1.766(16)
B8 B11 . 1_554 1.714(6)
B8 B11 . . 1.714(6)
B9 B10 . 3_555 1.818(8)
B9 B10 . 3_556 1.818(8)
B10 B11 . . 1.696(10)
B13 B14 . . 1.662(11)
loop_
_refln_index_h
_refln_index_k
_refln_index_l
_refln_F_squared_calc
_refln_F_squared_meas
_refln_F_squared_sigma
_refln_observed_status
0 0 1 0.46 0.88 2.25 <
0 0 3 7.60 12.23 11.08 <
0 2 1 28059.70 28410.40 193.07 o
0 2 2 410.47 356.42 23.89 o
0 2 3 6561.03 6267.16 157.54 o
0 4 0 1217.50 1317.46 41.62 o
0 4 1 5599.21 5988.17 118.38 o
0 4 2 440.58 448.50 34.96 o
0 4 3 1816.38 1614.02 157.15 o
0 6 0 410.20 391.52 26.73 o
0 6 1 964.80 1014.52 51.19 o
0 6 2 226.09 200.78 23.62 o
0 8 0 28.49 35.82 8.80 o
0 8 1 1177.95 1327.51 60.56 o
0 8 2 15.74 3.10 4.77 <
0 10 0 44.98 44.60 10.36 o
0 10 1 1396.63 1556.56 69.51 o
0 10 2 36.26 13.33 7.48 <
0 12 0 1475.62 1544.52 66.08 o
0 12 1 3099.57 3434.32 142.70 o
0 12 2 1033.16 981.19 53.24 o
0 14 1 54.25 45.36 15.89 o
0 14 2 6077.88 5690.68 257.76 o
1 1 1 6423.69 6657.81 57.76 o
1 1 2 752.78 719.41 24.29 o
1 1 3 1547.05 1529.81 53.14 o
1 2 1 613.40 545.94 18.13 o
1 2 2 129.86 106.73 10.54 o
1 2 3 100.85 50.36 9.97 o
1 3 1 6407.28 6610.69 68.33 o
1 3 2 979.45 897.90 32.74 o
1 3 3 1644.53 1574.32 64.39 o
1 4 1 207.20 203.94 12.93 o
1 4 2 1874.92 1748.90 52.47 o
1 4 3 37.08 37.66 10.41 o
1 5 0 15962.60 17468.80 132.05 o
1 5 1 12.06 8.34 2.49 o
1 5 2 7280.79 7246.97 111.12 o
1 5 3 0.76 28.09 19.91 <
1 6 0 6782.45 7255.42 86.60 o
1 6 1 9219.24 9215.09 91.75 o
1 6 2 3103.88 3000.00 72.05 o
1 6 3 3127.65 3379.38 197.82 o
1 7 0 1368.86 1349.75 39.50 o
1 7 1 69.24 76.44 8.04 o
1 7 2 747.21 705.16 34.69 o
1 7 3 5.53 6.74 11.72 <
1 8 0 37.50 28.78 5.89 o
1 8 1 6931.98 7124.50 99.67 o
1 8 2 64.36 54.82 8.77 o
1 8 3 2396.23 2490.46 162.93 o
1 9 0 1059.40 1110.34 37.52 o
1 9 1 2014.64 2045.91 55.21 o
1 9 2 606.40 566.09 31.36 o
1 9 3 908.74 1113.70 107.27 o
1 10 0 10265.80 10662.90 119.76 o
1 10 1 667.64 660.97 35.73 o
1 10 2 6297.83 6057.83 103.38 o
1 10 3 407.26 311.05 56.58 o
1 11 0 79.15 83.96 10.76 o
1 11 1 400.77 448.01 30.52 o
1 11 2 53.11 26.80 6.85 o
1 12 0 17.80 14.69 5.39 o
1 12 1 2619.15 2713.16 93.46 o
1 12 2 10.59 6.70 3.91 <
1 13 0 2642.31 2480.17 89.27 o
1 13 1 22.80 16.37 5.67 o
1 13 2 1909.32 1879.33 75.86 o
1 14 0 872.11 759.80 48.87 o
1 14 1 207.37 179.68 25.19 o
1 14 2 642.99 530.74 49.37 o
1 15 1 3820.23 3830.15 152.64 o
1 15 2 59.12 31.93 13.69 o
2 0 1 719.97 757.13 27.32 o
2 0 2 166.96 142.99 14.39 o
2 0 3 86.08 71.65 21.48 o
2 1 0 325.20 391.24 20.25 o
2 1 1 244.15 278.91 13.45 o
2 1 2 161.44 160.99 12.18 o
2 1 3 63.29 32.79 9.35 o
2 2 0 4079.72 4432.04 99.72 o
2 2 1 88.74 59.53 6.43 o
2 2 2 1568.44 1429.42 38.87 o
2 2 3 5.03 9.72 7.37 <
2 3 1 4734.54 5003.22 58.93 o
2 3 2 431.26 432.61 23.35 o
2 3 3 1300.68 1153.10 51.88 o
2 4 1 14048.20 14423.70 105.26 o
2 4 2 2822.42 2900.97 62.05 o
2 4 3 3866.72 3573.53 113.04 o
2 5 1 18741.60 19154.90 133.16 o
2 5 2 2894.93 2887.69 69.95 o
2 5 3 5804.37 5597.76 207.85 o
2 6 0 5224.47 4881.57 75.99 o
2 6 1 4937.58 4824.62 66.71 o
2 6 2 2542.15 2545.12 75.67 o
2 6 3 1829.18 1739.39 137.74 o
2 7 0 25255.80 24160.80 311.66 o
2 7 1 1709.61 1697.65 40.68 o
2 7 2 13141.90 12593.70 177.25 o
2 7 3 587.81 626.71 80.70 o
2 8 0 402.78 436.60 41.16 o
2 8 1 590.73 631.52 30.69 o
2 8 2 177.79 159.73 16.94 o
2 8 3 227.93 248.22 49.74 o
2 9 0 1595.98 1622.94 79.12 o
2 9 1 5322.81 5369.90 103.50 o
2 9 2 979.97 948.30 41.34 o
2 9 3 2201.41 2239.01 148.20 o
2 10 0 3835.61 3983.13 127.35 o
2 10 1 3542.56 3568.32 86.16 o
2 10 2 2422.32 2256.67 64.54 o
2 10 3 1647.94 1506.81 111.42 o
2 11 0 10.16 6.07 5.51 <
2 11 1 167.32 154.24 17.57 o
2 11 2 3.67 1.01 3.45 <
2 12 0 962.99 949.48 63.08 o
2 12 1 571.25 551.33 36.55 o
2 12 2 620.55 533.69 34.28 o
2 13 0 20.09 10.53 3.90 o
2 13 1 570.21 711.17 70.15 o
2 13 2 10.13 4.26 6.14 <
2 14 0 40.16 39.17 11.82 o
2 14 1 40.46 65.09 19.92 o
2 14 2 39.64 22.74 13.88 <
2 15 1 989.71 1159.87 89.27 o
3 1 0 1348.77 1394.17 45.96 o
3 1 1 2160.01 2605.83 43.77 o
3 1 2 578.77 572.48 25.57 o
3 1 3 482.48 437.96 26.74 o
3 2 0 10856.40 10464.80 153.19 o
3 2 1 2115.14 2180.64 42.23 o
3 2 2 4367.94 4406.10 77.06 o
3 2 3 522.11 467.56 31.68 o
3 3 0 11896.30 12081.70 279.08 o
3 3 1 92.99 103.05 9.09 o
3 3 2 4986.61 5164.29 92.20 o
3 3 3 36.04 18.77 10.92 <
3 4 0 1140.50 1105.24 103.05 o
3 4 1 7881.74 8130.78 84.56 o
3 4 2 477.66 449.34 24.74 o
3 4 3 2145.05 2103.00 95.10 o
3 5 0 157.78 154.55 13.94 o
3 5 1 15548.90 16069.20 146.49 o
3 5 2 67.30 48.28 8.36 o
3 5 3 4867.23 4774.65 190.62 o
3 6 0 318.96 309.95 19.40 o
3 6 1 4172.33 4154.23 72.77 o
3 6 2 123.29 134.33 16.43 o
3 6 3 1549.65 1576.31 127.92 o
3 7 0 477.30 466.23 24.95 o
3 7 1 627.03 609.67 42.07 o
3 7 2 244.27 234.39 21.56 o
3 7 3 282.63 298.24 54.92 o
3 8 1 616.09 657.54 43.42 o
3 8 2 1373.95 1344.39 53.22 o
3 8 3 271.53 239.36 46.40 o
3 9 0 1133.47 1122.10 74.78 o
3 9 1 1622.74 1695.76 72.15 o
3 9 2 660.64 603.15 36.11 o
3 9 3 682.55 621.94 72.81 o
3 10 0 920.18 929.47 66.49 o
3 10 1 12523.70 12942.30 202.81 o
3 10 2 647.77 645.16 38.15 o
3 10 3 5744.63 4927.54 196.28 o
3 11 0 2028.78 2168.25 106.45 o
3 11 1 446.95 442.34 38.23 o
3 11 2 1341.02 1385.59 57.45 o
3 12 0 6426.34 7129.96 195.73 o
3 12 1 72.25 79.01 14.52 o
3 12 2 4339.04 4414.38 161.06 o
3 13 0 6.92 1.70 4.38 <
3 13 1 11.12 0.42 5.26 <
3 14 0 607.57 637.79 55.38 o
3 14 1 601.93 685.78 72.79 o
3 14 2 464.28 435.84 75.14 o
3 15 1 299.86 343.69 50.94 o
4 0 2 775.39 772.02 46.33 o
4 0 3 19595.70 19426.80 281.71 o
4 1 0 4050.22 3899.36 90.07 o
4 1 1 1234.25 1278.87 29.50 o
4 1 2 1702.69 1750.28 45.66 o
4 1 3 315.97 311.84 23.06 o
4 2 0 29652.10 29400.50 272.78 o
4 2 1 2276.32 2302.15 36.87 o
4 2 2 12283.00 13029.40 135.49 o
4 2 3 659.22 605.96 37.91 o
4 3 0 4234.00 4466.07 119.44 o
4 3 1 10700.90 11107.70 95.70 o
4 3 2 1706.43 1721.54 50.69 o
4 3 3 2897.91 2934.74 85.19 o
4 4 0 1896.91 2002.31 129.01 o
4 4 1 1740.99 1699.10 40.95 o
4 4 2 920.70 961.49 35.78 o
4 4 3 456.88 481.85 45.72 o
4 5 0 2687.30 2620.64 177.12 o
4 5 1 46.73 37.29 10.54 o
4 5 2 1187.61 1183.00 40.96 o
4 5 3 43.64 32.18 17.90 <
4 6 0 501.68 513.95 50.00 o
4 6 1 17.71 2.83 9.68 <
4 6 2 271.30 221.01 17.41 o
4 6 3 12.08 -0.19 5.27 <
4 7 0 1008.93 895.41 36.75 o
4 7 1 18.13 8.60 6.38 <
4 7 2 606.44 580.51 36.92 o
4 7 3 0.60 1.80 8.81 <
4 8 0 277.35 311.19 21.65 o
4 8 1 21.91 20.43 8.29 o
4 8 2 128.86 135.78 16.85 o
4 8 3 16.04 12.74 10.48 <
4 9 0 1306.08 1130.81 40.44 o
4 9 1 40.59 33.99 10.12 o
4 9 2 753.26 803.25 42.92 o
4 9 3 44.43 21.52 15.44 <
4 10 1 12.36 5.88 6.47 <
4 10 2 651.55 691.89 39.82 o
4 10 3 2.66 2.07 7.17 <
4 11 0 1555.84 1607.12 95.46 o
4 11 1 3324.40 3335.78 108.51 o
4 11 2 997.47 1097.31 78.52 o
4 12 0 3314.21 3600.83 152.16 o
4 12 1 3.20 4.64 5.71 <
4 12 2 2254.03 2307.93 117.61 o
4 13 0 1407.92 1624.20 103.18 o
4 13 1 1626.28 1604.45 77.24 o
4 13 2 1029.96 1099.91 83.89 o
4 14 0 6.39 1.12 3.70 <
4 14 1 4122.56 4156.52 125.63 o
4 14 2 3.26 6.28 4.13 <
4 15 1 191.92 223.34 41.58 o
5 1 0 13047.00 12512.20 189.01 o
5 1 1 3443.27 3350.35 61.98 o
5 1 2 5322.48 5348.54 83.42 o
5 1 3 827.26 808.86 45.56 o
5 2 0 98.50 80.40 15.99 o
5 2 1 5843.10 5960.31 74.66 o
5 2 2 63.42 59.22 9.61 o
5 2 3 1655.72 1648.12 56.27 o
5 3 0 1106.13 1161.32 62.99 o
5 3 1 12267.40 12509.70 133.24 o
5 3 2 549.36 624.79 30.95 o
5 3 3 3308.41 3485.56 118.33 o
5 4 0 591.52 540.88 47.56 o
5 4 1 844.08 838.98 36.36 o
5 4 2 311.01 302.08 24.31 o
5 4 3 206.61 127.38 22.42 o
5 5 0 6703.16 6872.94 275.17 o
5 5 1 8373.96 8358.80 128.83 o
5 5 2 3184.02 3195.52 67.77 o
5 5 3 3153.26 3213.48 118.28 o
5 6 0 8072.68 7878.54 334.00 o
5 6 1 663.98 667.86 39.93 o
5 6 2 4059.67 4200.61 82.86 o
5 6 3 99.82 50.67 15.37 o
5 7 0 673.10 645.59 58.58 o
5 7 1 1171.81 1284.75 59.10 o
5 7 2 350.25 312.84 23.62 o
5 7 3 434.66 511.74 71.80 o
5 8 0 9504.81 8727.02 122.10 o
5 8 1 1074.36 1066.47 61.68 o
5 8 2 5341.69 5532.21 136.21 o
5 8 3 377.86 333.57 54.83 o
5 9 0 157.88 145.51 15.38 o
5 9 1 18.16 11.23 6.84 <
5 9 2 98.98 54.33 17.00 o
5 9 3 5.94 0.15 5.74 <
5 10 0 746.69 660.05 30.59 o
5 10 1 2388.92 2380.33 92.98 o
5 10 2 507.22 612.57 58.90 o
5 10 3 1104.13 901.91 82.46 o
5 11 1 88.47 47.68 13.13 o
5 11 2 0.17 1.86 5.60 <
5 12 1 1313.63 1487.18 75.31 o
5 12 2 227.24 141.23 32.42 o
5 13 1 3506.06 3639.23 118.89 o
5 13 2 84.56 16.16 19.58 <
5 14 0 23.09 23.17 13.32 <
5 14 1 439.22 492.18 66.11 o
5 14 2 18.40 11.70 12.45 <
5 15 1 1.32 1.68 5.71 <
6 0 1 1352.80 1221.56 70.22 o
6 0 2 1253.47 1143.60 59.65 o
6 0 3 415.54 417.29 52.62 o
6 1 0 473.94 383.67 40.30 o
6 1 1 597.56 602.50 32.24 o
6 1 2 247.16 271.23 20.58 o
6 1 3 181.78 168.07 21.21 o
6 2 0 37.99 104.84 20.73 o
6 2 1 5964.12 5721.35 98.36 o
6 2 2 3.21 5.21 10.82 <
6 2 3 1641.87 1745.03 64.87 o
6 3 0 3946.70 3909.22 121.95 o
6 3 1 177.70 149.24 14.51 o
6 3 2 1906.29 2032.83 56.59 o
6 3 3 35.93 36.37 18.45 <
6 4 0 5438.15 5787.60 161.53 o
6 4 1 117.33 144.46 15.82 o
6 4 2 2536.31 2796.09 60.49 o
6 4 3 66.98 54.09 19.23 o
6 5 0 31059.90 31428.00 436.90 o
6 5 1 2931.00 2882.13 73.98 o
6 5 2 15345.80 16884.70 160.76 o
6 5 3 1287.88 1337.68 84.11 o
6 6 0 0.01 4.14 23.85 <
6 6 1 477.96 532.75 33.59 o
6 6 2 0.05 4.04 7.79 <
6 6 3 134.07 99.93 22.47 o
6 7 0 3305.71 2876.59 213.12 o
6 7 1 22693.10 22797.10 248.92 o
6 7 2 2081.23 2047.84 60.94 o
6 7 3 8090.41 8687.70 214.98 o
6 8 0 7.39 -7.71 16.67 <
6 8 1 335.57 371.26 37.38 o
6 8 2 3.47 -3.33 14.63 <
6 8 3 149.77 157.40 36.76 o
6 9 0 13246.90 12128.20 154.05 o
6 9 1 14.04 3.64 3.81 <
6 9 2 8063.00 7880.79 287.86 o
6 9 3 1.99 1.39 8.99 <
6 10 0 1069.20 868.18 38.83 o
6 10 1 95.84 116.26 19.68 o
6 10 2 692.35 823.54 99.34 o
6 10 3 39.70 19.16 10.63 <
6 11 1 56.14 30.69 11.14 o
6 11 2 235.05 186.93 35.37 o
6 12 1 220.19 199.81 28.75 o
6 12 2 101.77 34.78 30.70 <
6 13 1 7.75 1.78 3.53 <
6 13 2 1659.21 1785.96 156.70 o
6 14 1 79.83 22.38 11.39 <
6 14 2 307.34 248.20 59.77 o
6 15 1 53.27 21.66 15.71 <
7 1 0 1780.29 1142.81 103.94 o
7 1 1 2220.54 2020.34 67.27 o
7 1 2 787.15 808.00 34.17 o
7 1 3 534.25 535.23 38.96 o
7 2 0 1363.63 1183.67 70.70 o
7 2 1 12106.80 11555.50 135.73 o
7 2 2 638.22 683.83 34.24 o
7 2 3 3770.72 3918.59 120.97 o
7 3 0 785.07 845.94 60.57 o
7 3 1 8811.66 8944.10 109.83 o
7 3 2 326.11 319.00 23.51 o
7 3 3 2581.51 2934.12 104.41 o
7 4 0 6525.87 6877.64 183.40 o
7 4 1 235.13 291.14 25.56 o
7 4 2 3158.05 3451.97 80.29 o
7 4 3 65.35 59.02 16.96 o
7 5 0 6304.42 6572.07 195.69 o
7 5 1 1.64 4.94 13.30 <
7 5 2 3257.90 3498.83 75.24 o
7 5 3 2.67 0.64 3.57 <
7 6 0 293.58 363.02 76.13 o
7 6 1 1110.17 1219.31 52.95 o
7 6 2 166.28 207.65 24.86 o
7 6 3 434.09 509.11 49.98 o
7 7 0 1.73 28.43 83.72 <
7 7 1 41.51 42.72 13.39 o
7 7 2 2.60 9.21 12.32 <
7 7 3 12.48 -0.29 4.90 <
7 8 0 3910.38 4235.06 282.72 o
7 8 1 634.82 638.62 47.25 o
7 8 2 2233.20 2332.44 86.82 o
7 8 3 230.14 284.82 38.29 o
7 9 0 745.19 632.45 39.93 o
7 9 1 37.76 11.30 25.60 <
7 9 2 448.31 516.90 44.11 o
7 9 3 29.56 16.63 9.90 <
7 10 0 8876.83 7749.90 129.57 o
7 10 1 1845.61 1968.66 88.69 o
7 10 2 5804.23 6368.77 284.02 o
7 11 0 52.98 44.23 9.09 o
7 11 1 1461.13 1553.99 80.95 o
7 12 1 6748.54 7399.84 179.20 o
7 13 1 1363.15 1314.39 77.56 o
7 13 2 512.94 430.75 85.34 o
7 14 1 1149.15 1431.75 130.57 o
7 15 1 291.96 406.58 70.77 o
8 0 2 3429.93 3019.25 139.05 o
8 0 3 5719.90 5717.19 216.45 o
8 1 0 14.35 8.56 24.12 <
8 1 1 8548.97 7205.35 216.81 o
8 1 2 6.37 0.54 3.45 <
8 1 3 2767.09 2792.75 124.85 o
8 2 0 8987.37 8686.55 206.56 o
8 2 1 7158.83 6672.65 153.76 o
8 2 2 4266.25 4396.90 112.54 o
8 2 3 2157.99 2325.95 97.37 o
8 3 0 23528.30 23966.60 340.59 o
8 3 1 4991.07 4946.24 113.61 o
8 3 2 11234.70 11886.60 156.25 o
8 3 3 1704.21 1967.65 86.62 o
8 4 0 2433.16 2362.81 112.58 o
8 4 1 40.05 37.03 15.33 o
8 4 2 1242.33 1264.51 61.70 o
8 4 3 10.33 5.71 6.74 <
8 5 0 387.66 389.29 51.26 o
8 5 1 2884.85 3052.79 85.93 o
8 5 2 286.80 280.88 27.07 o
8 5 3 780.24 814.85 67.23 o
8 6 0 1303.70 1373.10 100.68 o
8 6 1 0.02 -12.04 13.99 <
8 6 2 762.72 835.10 49.85 o
8 6 3 0.39 -1.69 4.97 <
8 7 0 905.42 993.23 123.14 o
8 7 1 1244.04 1336.09 71.15 o
8 7 2 418.93 459.29 39.09 o
8 7 3 638.93 754.19 62.75 o
8 8 1 180.49 177.46 32.64 o
8 8 2 133.98 161.05 26.14 o
8 8 3 76.91 63.19 26.42 o
8 9 0 372.67 425.90 129.77 o
8 9 1 4085.18 4041.53 146.72 o
8 9 2 223.71 287.52 35.73 o
8 10 0 414.72 413.03 35.54 o
8 10 1 8.02 67.38 47.98 <
8 11 0 1543.67 1357.59 56.03 o
8 12 1 760.26 834.04 80.59 o
8 13 1 1608.81 1877.32 121.55 o
9 1 1 6540.21 5105.83 200.54 o
9 1 2 29.78 17.19 7.79 o
9 1 3 2063.56 1904.98 110.40 o
9 2 0 8311.02 7258.20 207.90 o
9 2 1 1665.64 1379.87 77.62 o
9 2 2 4066.52 3768.02 94.15 o
9 2 3 628.18 666.54 90.18 o
9 3 0 22415.20 21615.70 344.86 o
9 3 1 445.95 424.47 35.81 o
9 3 2 11064.30 11434.70 161.24 o
9 3 3 197.92 206.66 35.84 o
9 4 0 38.76 19.35 17.35 <
9 4 1 1344.03 1433.42 64.25 o
9 4 2 19.04 22.05 16.35 <
9 4 3 403.52 446.30 52.38 o
9 5 0 1521.65 1428.49 96.28 o
9 5 1 9635.36 11021.90 193.55 o
9 5 2 965.86 1066.09 52.38 o
9 5 3 3448.04 3755.49 153.25 o
9 6 0 72.72 96.28 27.07 o
9 6 1 582.87 744.21 46.68 o
9 6 2 42.19 30.23 16.89 <
9 6 3 197.49 236.24 48.86 o
9 7 1 858.77 823.92 54.73 o
9 7 2 457.24 551.66 39.64 o
9 7 3 423.82 393.87 62.19 o
9 8 0 1232.64 1406.66 157.19 o
9 8 1 1736.09 1946.49 96.18 o
9 8 2 819.64 831.15 52.45 o
9 8 3 818.63 1055.48 102.69 o
9 9 0 1758.84 1931.10 201.10 o
9 9 1 868.87 903.84 69.01 o
9 9 2 1143.08 1385.55 83.97 o
9 9 3 412.40 663.11 83.49 o
9 10 0 2.04 69.65 75.61 <
9 10 1 1368.32 1282.79 93.54 o
9 10 2 1.97 4.94 5.35 <
9 11 0 111.68 98.10 19.89 o
9 12 0 1514.76 1170.54 52.31 o
9 13 1 136.62 117.01 33.67 o
10 0 2 793.78 743.95 84.21 o
10 1 1 1175.67 1017.61 132.69 o
10 1 2 112.54 70.58 18.80 o
10 1 3 418.01 475.72 73.12 o
10 2 0 3816.48 2832.18 146.30 o
10 2 1 1166.35 1053.23 72.03 o
10 2 2 1987.53 1790.14 68.46 o
10 2 3 279.14 296.25 56.16 o
10 3 0 295.22 233.62 42.07 o
10 3 1 249.54 235.04 35.13 o
10 3 2 135.80 140.60 19.87 o
10 3 3 104.96 52.30 24.60 o
10 4 0 8700.46 8672.79 240.13 o
10 4 1 136.29 124.79 23.62 o
10 4 2 4790.64 5058.46 114.88 o
10 4 3 64.12 36.45 19.89 <
10 5 0 907.65 807.86 75.11 o
10 5 1 9668.30 10622.40 190.65 o
10 5 2 632.65 564.58 44.85 o
10 5 3 3544.92 4051.59 211.41 o
10 6 0 63.85 42.94 24.68 <
10 6 1 2410.04 2850.38 104.34 o
10 6 2 42.26 49.09 17.38 o
10 6 3 1071.83 1127.39 111.11 o
10 7 0 19053.70 22827.80 453.48 o
10 7 1 188.24 170.98 35.94 o
10 7 2 11129.00 12601.80 204.25 o
10 7 3 58.96 28.34 21.33 <
10 8 0 0.75 -7.75 41.28 <
10 8 1 1086.15 1045.57 70.14 o
10 8 2 1.25 12.08 20.60 <
10 8 3 528.57 614.65 72.87 o
10 9 0 198.00 267.25 85.05 o
10 9 1 8528.09 8779.85 221.38 o
10 9 2 112.93 181.68 30.70 o
10 9 3 4124.64 5439.09 235.23 o
10 10 0 845.18 810.84 142.09 o
10 10 1 83.48 69.95 12.92 o
10 10 2 563.58 715.18 59.14 o
10 12 0 42.72 35.42 11.14 o
11 1 2 4030.31 3694.53 132.60 o
11 2 0 2245.08 1617.37 170.63 o
11 2 1 0.51 19.11 15.76 <
11 2 2 1164.02 1098.38 59.67 o
11 3 0 3378.71 2950.56 157.29 o
11 3 1 52.83 55.54 22.50 o
11 3 2 1782.04 1810.33 73.05 o
11 3 3 11.56 14.86 17.01 <
11 4 0 370.83 303.28 51.27 o
11 4 1 166.23 164.30 28.10 o
11 4 2 175.69 117.84 22.41 o
11 4 3 60.52 51.58 23.30 o
11 5 0 536.90 661.55 71.89 o
11 5 1 9.23 0.18 16.41 <
11 5 2 312.06 321.95 37.13 o
11 5 3 8.34 4.69 8.69 <
11 6 0 2073.03 2524.19 140.81 o
11 6 1 1184.31 1434.35 77.24 o
11 6 2 1181.44 1313.63 66.65 o
11 6 3 492.11 624.52 81.17 o
11 7 0 0.07 -29.13 31.32 <
11 7 1 243.36 242.48 37.75 o
11 7 2 0.09 24.29 15.51 <
11 7 3 106.94 53.25 21.04 o
11 8 0 61.01 34.50 30.35 <
11 8 1 8254.50 9864.45 270.21 o
11 8 2 43.09 28.08 12.51 o
11 8 3 4065.98 4730.19 210.08 o
11 9 0 1489.40 1699.01 197.76 o
11 9 1 8.82 8.08 17.58 <
11 9 2 1044.14 1118.60 79.94 o
11 10 0 4760.49 5000.48 362.65 o
11 10 2 3271.08 3894.32 143.57 o
11 11 1 868.74 597.44 34.22 o
12 0 2 21040.80 20663.70 473.19 o
12 1 2 1262.18 1227.94 78.83 o
12 2 0 3.65 0.27 35.05 <
12 2 1 6415.90 5734.80 187.04 o
12 2 2 1.03 -10.00 13.83 <
12 3 0 499.66 406.47 86.16 o
12 3 1 6151.26 6014.86 184.79 o
12 3 2 317.99 268.32 35.15 o
12 4 0 73.45 99.88 35.72 o
12 4 1 696.55 589.48 52.69 o
12 4 2 51.51 72.17 22.78 o
12 4 3 320.05 318.67 57.96 o
12 5 0 4961.98 4719.25 196.30 o
12 5 1 200.04 204.20 34.33 o
12 5 2 2804.14 2685.72 106.94 o
12 5 3 108.74 137.17 35.50 o
12 6 0 18.76 -0.90 29.53 <
12 6 1 1712.01 1870.68 91.05 o
12 6 2 19.85 10.38 20.34 <
12 6 3 820.76 824.78 94.00 o
12 7 0 744.99 927.11 94.86 o
12 7 1 4242.87 5067.22 156.26 o
12 7 2 517.86 531.43 59.55 o
12 7 3 1958.43 2071.99 152.21 o
12 8 0 260.53 296.11 60.93 o
12 8 1 1495.40 2023.74 141.78 o
12 8 2 178.95 180.21 31.57 o
12 8 3 753.29 882.15 94.54 o
12 9 0 4915.51 5409.18 348.60 o
12 9 1 10.18 15.74 35.84 <
12 9 2 3342.26 3455.31 141.84 o
12 10 0 174.96 181.41 73.99 o
12 10 1 481.97 384.28 35.75 o
12 10 2 136.48 171.05 29.72 o
12 11 1 211.12 181.63 21.71 o
13 2 1 2050.39 2008.55 209.70 o
13 2 2 55.01 74.53 36.76 o
13 3 0 23.40 14.18 23.39 <
13 3 1 8953.95 8404.61 231.33 o
13 3 2 14.46 -2.70 20.86 <
13 4 0 2213.46 2172.45 150.53 o
13 4 1 0.31 6.55 20.28 <
13 4 2 1203.49 1177.00 79.75 o
13 5 0 8524.88 8980.78 287.23 o
13 5 1 103.07 119.44 27.14 o
13 5 2 4973.17 5328.15 166.02 o
13 5 3 52.41 24.82 16.57 <
13 6 0 205.30 267.50 54.53 o
13 6 1 2972.50 3051.54 122.15 o
13 6 2 180.76 237.01 50.62 o
13 6 3 1363.20 1318.33 115.74 o
13 7 0 76.99 143.62 38.71 o
13 7 1 582.50 616.26 90.19 o
13 7 2 45.62 32.47 15.60 o
13 7 3 273.07 251.62 50.16 o
13 8 0 24.90 -0.34 41.57 <
13 8 1 45.57 -106.58 75.62 <
13 8 2 6.20 15.19 10.47 <
13 8 3 11.56 3.22 4.33 <
13 9 0 1106.81 1354.07 173.85 o
13 9 2 756.11 823.29 68.26 o
13 10 2 797.50 829.45 68.26 o
14 2 2 3626.33 2675.90 296.22 o
14 3 0 18.98 -26.17 26.78 <
14 3 1 88.92 70.41 34.93 o
14 3 2 5.45 33.88 35.38 <
14 4 1 9616.68 9745.50 259.72 o
14 4 2 60.12 66.76 40.07 <
14 5 0 2101.06 2015.00 152.88 o
14 5 1 53.08 39.59 21.14 <
14 5 2 1233.82 1318.11 140.31 o
14 6 0 2348.43 2610.44 165.90 o
14 6 1 634.09 640.78 68.86 o
14 6 2 1484.34 1565.16 117.89 o
14 6 3 319.89 327.66 60.18 o
14 7 0 1554.24 1698.41 134.48 o
14 7 1 4118.76 4821.50 183.53 o
14 7 2 1134.63 962.89 87.03 o
14 7 3 2058.06 2178.22 149.90 o
14 8 0 663.86 757.36 143.52 o
14 8 1 133.99 217.68 65.52 o
14 8 2 446.44 429.83 55.65 o
14 8 3 76.67 55.60 23.70 o
14 9 0 651.87 781.47 148.33 o
14 9 2 420.61 382.67 49.09 o
15 3 0 575.73 505.46 113.55 o
15 3 1 47.09 19.79 21.46 <
15 3 2 410.01 350.24 81.44 o
15 4 0 176.23 96.46 39.48 o
15 4 1 4562.21 4275.64 182.63 o
15 5 0 831.04 722.73 99.07 o
15 5 1 864.54 857.73 86.50 o
15 6 0 519.07 546.87 84.65 o
15 6 1 1649.66 1554.86 111.10 o
15 7 0 10.66 15.76 28.26 <
15 7 1 61.11 79.10 41.64 <
15 7 3 29.05 33.87 20.79 <
15 8 0 3384.18 4028.89 310.80 o
15 8 2 2289.82 2133.96 130.04 o
15 9 2 18.93 7.05 6.86 <
16 3 0 487.96 346.95 117.59 o
16 3 1 1967.81 1586.92 218.06 o
16 4 0 0.79 -1.81 40.99 <
16 4 1 397.36 343.32 70.86 o
16 5 0 573.08 375.14 74.37 o
16 5 1 2751.11 2733.72 246.27 o
16 6 0 369.78 510.56 87.99 o
16 6 1 339.56 274.54 60.35 o
16 7 0 4229.66 4225.27 339.87 o
17 4 0 3.87 19.36 42.29 <
17 4 1 679.80 640.31 121.92 o
17 5 0 0.46 -36.10 58.12 <
17 5 1 6219.97 6437.93 391.97 o
17 6 0 9889.20 8375.61 526.48 o
18 5 0 842.35 545.21 150.85 o
