#------------------------------------------------------------------------------
#$Date: 2021-04-01 11:39:30 +0300 (Thu, 01 Apr 2021) $
#$Revision: 263523 $
#$URL: file:///home/coder/svn-repositories/cod/cif/1/56/14/1561411.cif $
#------------------------------------------------------------------------------
#
# This file is available in the Crystallography Open Database (COD),
# http://www.crystallography.net/
#
# All data on this site have been placed in the public domain by the
# contributors.
#
data_1561411
loop_
_publ_author_name
'Heffernan, Karina M.'
'Ross, Nancy L.'
'Spencer, Elinor C.'
'Boatner, Lynn A.'
_publ_section_title
;
 The structural response of gadolinium phosphate to pressure
;
_journal_name_full               'Journal of Solid State Chemistry'
_journal_page_first              180
_journal_page_last               186
_journal_paper_doi               10.1016/j.jssc.2016.06.009
_journal_volume                  241
_journal_year                    2016
_chemical_formula_moiety         'Gd O4 P'
_chemical_formula_sum            'Gd O4 P'
_chemical_formula_weight         252.22
_space_group_crystal_system      monoclinic
_space_group_IT_number           14
_space_group_name_Hall           '-P 2yn'
_space_group_name_H-M_alt        'P 1 21/n 1'
_atom_sites_solution_hydrogens   .
_cell_angle_alpha                90
_cell_angle_beta                 104.023(2)
_cell_angle_gamma                90
_cell_formula_units_Z            4
_cell_length_a                   6.33571(12)
_cell_length_b                   6.84840(17)
_cell_length_c                   6.6516(3)
_cell_measurement_reflns_used    28
_cell_measurement_temperature    293(2)
_cell_measurement_theta_max      18.3000
_cell_measurement_theta_min      4.9665
_cell_volume                     280.008(16)
_computing_cell_refinement
;
CrysAlisPro, Agilent Technologies, Version 1.171.36.24 
(release 03-12-2012 CrysAlis171 .NET) 
(compiled Dec 3 2012,18:21:49)'
;
_computing_data_collection
;
CrysAlisPro, Agilent Technologies, Version 1.171.36.24 
(release 03-12-2012 CrysAlis171 .NET) 
(compiled Dec 3 2012,18:21:49)'
;
_computing_data_reduction
;
CrysAlisPro, Agilent Technologies, Version 1.171.36.24 
(release 03-12-2012 CrysAlis171 .NET) 
(compiled Dec 3 2012,18:21:49)

Average v2.2 (Angel, 2003)  

Absorb7 and Absorb-GUI, Angel and Gonzalez-Platas (2013) 
J. Appl. Cryst. 46:252-254
;
_computing_molecular_graphics    'CrystalMaker v2.0'
_computing_publication_material  'Olex2 (Dolomanov et al., 2009)'
_computing_structure_refinement  'ShelXL (Sheldrick, 2008)'
_computing_structure_solution    'SHELXS-97 (Sheldrick, 1990)'
_diffrn_ambient_temperature      293(2)
_diffrn_detector                 'CCD plate'
_diffrn_detector_area_resol_mean 8.2824
_diffrn_detector_type            'Sapphire2, large Be window'
_diffrn_measured_fraction_theta_full 0.470
_diffrn_measured_fraction_theta_max 0.343
_diffrn_measurement_details
;
#__ type_ start__ end____ width___ exp.time_
  1 omega  -40.00    0.00   1.0000  120.0000
omega____ theta____ kappa____ phi______ frames
    -      -40.0000    0.0000    0.0000 40

#__ type_ start__ end____ width___ exp.time_
  2 omega  -40.00   20.00   1.0000  120.0000
omega____ theta____ kappa____ phi______ frames
    -      -20.0000    0.0000    0.0000 60

#__ type_ start__ end____ width___ exp.time_
  3 omega  -20.00   40.00   1.0000  120.0000
omega____ theta____ kappa____ phi______ frames
    -       20.0000    0.0000    0.0000 60

#__ type_ start__ end____ width___ exp.time_
  4 omega    0.00   40.00   1.0000  120.0000
omega____ theta____ kappa____ phi______ frames
    -       40.0000    0.0000    0.0000 40

#__ type_ start__ end____ width___ exp.time_
  5 omega  -53.00  -13.00   1.0000  120.0000
omega____ theta____ kappa____ phi______ frames
    -      -40.0000   39.4600  -12.9000 40

#__ type_ start__ end____ width___ exp.time_
  6 omega  -13.00   27.00   1.0000  120.0000
omega____ theta____ kappa____ phi______ frames
    -       40.0000   39.4600  -12.9000 40

#__ type_ start__ end____ width___ exp.time_
  7 omega  -69.00  -19.00   1.0000  120.0000
omega____ theta____ kappa____ phi______ frames
    -      -40.0000   81.4000  -28.9000 50

#__ type_ start__ end____ width___ exp.time_
  8 omega  -15.00  -12.00   1.0000  120.0000
omega____ theta____ kappa____ phi______ frames
    -       40.0000   81.4000  -28.9000 3
;
_diffrn_measurement_device_type  'Xcalibur, Sapphire2, large Be window'
_diffrn_measurement_method       '\w scans'
_diffrn_radiation_monochromator  graphite
_diffrn_radiation_type           MoK\a
_diffrn_radiation_wavelength     0.71073
_diffrn_reflns_av_R_equivalents  0.059
_diffrn_reflns_limit_h_max       8
_diffrn_reflns_limit_h_min       -8
_diffrn_reflns_limit_k_max       8
_diffrn_reflns_limit_k_min       -8
_diffrn_reflns_limit_l_max       6
_diffrn_reflns_limit_l_min       -7
_diffrn_reflns_number            1022
_diffrn_reflns_reduction_process
; 
data averaged using Blessing (1987) criteria 
;
_diffrn_reflns_theta_full        30.00
_diffrn_reflns_theta_max         32.889
_diffrn_reflns_theta_min         3.986
_exptl_absorpt_coefficient_mu    24.020
_exptl_absorpt_correction_T_max  0.175
_exptl_absorpt_correction_T_min  0.074
_exptl_absorpt_correction_type   gaussian
_exptl_absorpt_process_details
;
Gaussian integration over a grid
of 16 x 16 x 16 points =  4096 total grid points
  Based upon method of Burnham (1966)

 Data corrected for diamond-anvil cell absorption
 Note that exptl_absorpt_correction_tmin and _tmax
 the total correction factors applied to the intensities
 The individual factors are: 
         range of dac transmission factors (min-max)      0.406     0.992
         range of gasket transmission (min-max)           0.904     1.000
         range of P media transmission (min-max)          1.000     1.000

    DAC transmission function via a table of values

    Gasket shadowing corrections were made based upon
    Gasket thickness = 115.0 microns, radius = 145.0 microns
    Gasket absorption coeff =       300.00 mm-1
    REFLECTION WAS CONSIDERED TOTALLY OBSCURED IF 
 FRACTION CRYSTAL ILLUMINATED WAS LESS THAN 0.20

    Non-absorbing pressure medium
;
_exptl_crystal_colour            colourless
_exptl_crystal_density_diffrn    5.983
_exptl_crystal_density_method    'not measured'
_exptl_crystal_description
;
 crystal was described in terms of coordinates of corners
 now back-transformed to potentially non-integer hkl
;
_exptl_crystal_F_000             444
_exptl_crystal_preparation       'mounted in a diamond-anvil cell '
_exptl_crystal_size_max          0.151
_exptl_crystal_size_mid          0.092
_exptl_crystal_size_min          0.077
_refine_diff_density_max         1.831
_refine_diff_density_min         -2.309
_refine_diff_density_rms         0.561
_refine_ls_extinction_coef       0.057(5)
_refine_ls_extinction_expression Fc^*^=kFc[1+0.001xFc^2^\l^3^/sin(2\q)]^-1/4^
_refine_ls_extinction_method     'SHELXL-2014/7 (Sheldrick 2014'
_refine_ls_goodness_of_fit_ref   1.073
_refine_ls_hydrogen_treatment    undef
_refine_ls_matrix_type           full
_refine_ls_number_parameters     26
_refine_ls_number_reflns         357
_refine_ls_number_restraints     0
_refine_ls_restrained_S_all      1.073
_refine_ls_R_factor_all          0.0518
_refine_ls_R_factor_gt           0.0451
_refine_ls_shift/su_max          0.000
_refine_ls_shift/su_mean         0.000
_refine_ls_structure_factor_coef Fsqd
_refine_ls_weighting_details
'w=1/[\s^2^(Fo^2^)+(0.0433P)^2^] where P=(Fo^2^+2Fc^2^)/3'
_refine_ls_weighting_scheme      calc
_refine_ls_wR_factor_gt          0.1016
_refine_ls_wR_factor_ref         0.1036
_reflns_number_gt                273
_reflns_number_total             368
_reflns_threshold_expression     'Fsqd > 3.0u(Fsqd)'
_cod_data_source_file            JSSC-2016-241-180.cif
_cod_data_source_block           GdPO4_1bar
_cod_depositor_comments
;
The following automatic conversions were performed:

data item '_exptl_absorpt_correction_type' value 'Gaussian' was
changed to 'gaussian' in accordance with the built-in table derived
from the CIF Core dictionary named 'cif_core.dic' version 2.4.5 last
updated on 2014-11-21.

Automatic conversion script
Id: cif_fix_values 8369 2020-08-20 11:38:08Z andrius 
;
_cod_original_cell_volume        280.008(14)
_cod_database_code               1561411
_shelx_space_group_comment
;
The symmetry employed for this shelxl refinement is uniquely defined
by the following loop, which should always be used as a source of
symmetry information in preference to the above space-group names.
They are only intended as comments.
;
_diffrn_reflns_uneti/neti        0.035
_olex2_refinement_description
;
;
loop_
_space_group_symop_operation_xyz
'x, y, z'
'-x+1/2, y+1/2, -z+1/2'
'-x, -y, -z'
'x-1/2, -y-1/2, z-1/2'
loop_
_atom_site_label
_atom_site_type_symbol
_atom_site_fract_x
_atom_site_fract_y
_atom_site_fract_z
_atom_site_U_iso_or_equiv
_atom_site_adp_type
_atom_site_occupancy
_atom_site_site_symmetry_order
_atom_site_calc_flag
_atom_site_refinement_flags_posn
_atom_site_refinement_flags_adp
_atom_site_refinement_flags_occupancy
_atom_site_disorder_assembly
_atom_site_disorder_group
Gd1 Gd 0.09679(14) 0.65534(10) 0.78136(14) 0.0030(4) Uiso 1 1 d . . . . .
O2 O 0.061(2) 1.0035(16) 0.746(2) 0.005(2) Uiso 1 1 d . . . . .
O3 O 0.215(2) 0.7924(18) 1.125(2) 0.007(2) Uiso 1 1 d . . . . .
P1 P -0.1125(7) 1.1616(5) 0.6971(8) 0.0013(8) Uiso 1 1 d . . . . .
O1 O -0.002(2) 1.3365(15) 0.615(3) 0.007(2) Uiso 1 1 d . . . . .
O4 O -0.312(2) 1.1029(16) 0.524(2) 0.007(2) Uiso 1 1 d . . . . .
loop_
_atom_type_symbol
_atom_type_description
_atom_type_scat_dispersion_real
_atom_type_scat_dispersion_imag
_atom_type_scat_source
O O 0.0106 0.0060 'International Tables Vol C Tables 4.2.6.8 and 6.1.1.4'
P P 0.1023 0.0942 'International Tables Vol C Tables 4.2.6.8 and 6.1.1.4'
Gd Gd -0.1653 3.9035 'International Tables Vol C Tables 4.2.6.8 and 6.1.1.4'
loop_
_exptl_crystal_face_index_h
_exptl_crystal_face_index_k
_exptl_crystal_face_index_l
_exptl_crystal_face_perp_dist
-1.0000 -104.6185 -124.8401 0.0000
1.0000 -8.0918 5.7570 0.0741
1.6018 1.0000 -1.1602 0.0263
-7.8090 -1.0000 2.7747 0.0776
1.0000 -8.0918 5.7570 0.0741
-7.8090 -1.0000 2.7747 0.0776
-1.0000 3.9991 -2.7136 0.0087
-1.0000 3.9991 -2.7136 0.0087
-7.8090 -1.0000 2.7747 0.0776
1.6018 1.0000 -1.1602 0.0263
-1.0000 3.9991 -2.7136 0.0087
1.0000 104.6186 124.8401 0.0770
1.0000 104.6190 124.8406 0.0770
1.0000 104.6185 124.8401 0.0770
1.0000 104.6184 124.8399 0.0770
loop_
_geom_angle_atom_site_label_1
_geom_angle_atom_site_label_2
_geom_angle_atom_site_label_3
_geom_angle
_geom_angle_site_symmetry_1
_geom_angle_site_symmetry_3
O2 Gd1 Gd1 151.0(2) . 2_546
O2 Gd1 Gd1 33.9(3) 2_546 2_546
O2 Gd1 O2 118.6(3) . 2_546
O2 Gd1 O3 73.0(5) . .
O2 Gd1 O3 75.5(5) . 4_575
O2 Gd1 P1 93.5(3) . 2_546
O2 Gd1 P1 155.6(3) 2_546 2_446
O2 Gd1 P1 85.4(3) . 2_446
O2 Gd1 P1 26.7(3) 2_546 2_546
O2 Gd1 O1 146.0(5) . 1_545
O2 Gd1 O1 55.1(3) 2_546 2_546
O2 Gd1 O1 74.0(4) 2_546 1_545
O2 Gd1 O1 83.3(4) . 3_576
O2 Gd1 O1 69.0(4) . 2_546
O2 Gd1 O1 85.6(5) 2_546 3_576
O2 Gd1 O4 97.6(3) . 2_446
O2 Gd1 O4 138.0(4) 2_546 2_446
O3 Gd1 Gd1 122.8(3) 4_575 2_546
O3 Gd1 Gd1 112.5(3) . 2_546
O3 Gd1 O2 147.4(5) 4_575 2_546
O3 Gd1 O2 99.0(5) . 2_546
O3 Gd1 O3 113.5(4) 4_575 .
O3 Gd1 P1 82.8(3) . 2_546
O3 Gd1 P1 28.5(3) 4_575 2_446
O3 Gd1 P1 155.7(3) 4_575 2_546
O3 Gd1 P1 92.0(3) . 2_446
O3 Gd1 O1 62.4(4) . 2_546
O3 Gd1 O1 143.9(4) 4_575 2_546
O3 Gd1 O1 66.0(4) 4_575 3_576
O3 Gd1 O1 139.2(5) . 1_545
O3 Gd1 O1 155.2(4) . 3_576
O3 Gd1 O1 79.5(5) 4_575 1_545
O3 Gd1 O4 58.0(5) 4_575 2_446
O3 Gd1 O4 70.2(4) . 2_446
P1 Gd1 Gd1 60.43(7) 2_546 2_546
P1 Gd1 Gd1 121.70(7) 2_446 2_546
P1 Gd1 P1 174.73(18) 2_446 2_546
O1 Gd1 Gd1 84.8(2) 3_576 2_546
O1 Gd1 Gd1 88.0(2) 2_546 2_546
O1 Gd1 Gd1 43.3(3) 1_545 2_546
O1 Gd1 P1 147.6(2) 2_546 2_446
O1 Gd1 P1 83.4(3) 1_545 2_446
O1 Gd1 P1 93.5(3) 3_576 2_446
O1 Gd1 P1 100.2(3) 1_545 2_546
O1 Gd1 P1 28.6(2) 2_546 2_546
O1 Gd1 P1 91.5(3) 3_576 2_546
O1 Gd1 O1 65.5(5) 1_545 3_576
O1 Gd1 O1 128.8(3) 1_545 2_546
O1 Gd1 O1 102.5(4) 3_576 2_546
O1 Gd1 O4 88.2(4) 1_545 2_446
O4 Gd1 Gd1 111.2(3) 2_446 2_546
O4 Gd1 Gd1 52.3(3) 4_676 2_546
O4 Gd1 O2 144.2(5) 4_676 .
O4 Gd1 O2 70.0(4) 4_676 2_546
O4 Gd1 O3 117.2(5) 4_676 4_575
O4 Gd1 O3 71.2(4) 4_676 .
O4 Gd1 P1 146.1(4) 2_446 2_546
O4 Gd1 P1 93.4(3) 4_676 2_446
O4 Gd1 P1 84.4(3) 4_676 2_546
O4 Gd1 P1 29.5(4) 2_446 2_446
O4 Gd1 O1 121.5(4) 2_446 3_576
O4 Gd1 O1 132.4(4) 4_676 3_576
O4 Gd1 O1 68.7(5) 4_676 1_545
O4 Gd1 O1 132.6(5) 2_446 2_546
O4 Gd1 O1 96.1(5) 4_676 2_546
O4 Gd1 O4 68.0(5) 4_676 2_446
Gd1 O2 Gd1 111.4(4) . 2_556
P1 O2 Gd1 106.8(5) . 2_556
P1 O2 Gd1 140.8(7) . .
Gd1 O3 Gd1 120.9(5) 4_676 .
P1 O3 Gd1 102.0(8) 3_577 4_676
P1 O3 Gd1 136.5(9) 3_577 .
Gd1 P1 Gd1 174.73(18) 2_456 2_556
O2 P1 Gd1 130.6(4) . 2_456
O2 P1 Gd1 46.5(4) . 2_556
O2 P1 O1 105.2(6) . .
O2 P1 O4 113.1(8) . .
O3 P1 Gd1 126.1(7) 3_577 2_556
O3 P1 Gd1 49.5(6) 3_577 2_456
O3 P1 O2 114.0(8) 3_577 .
O3 P1 O1 115.4(7) 3_577 .
O3 P1 O4 102.0(8) 3_577 .
O1 P1 Gd1 124.1(5) . 2_456
O1 P1 Gd1 59.4(5) . 2_556
O4 P1 Gd1 131.7(5) . 2_556
O4 P1 Gd1 52.6(4) . 2_456
O4 P1 O1 107.1(9) . .
Gd1 O1 Gd1 103.6(4) 3_576 2_556
Gd1 O1 Gd1 99.4(5) 1_565 2_556
Gd1 O1 Gd1 114.5(5) 1_565 3_576
P1 O1 Gd1 92.0(6) . 2_556
P1 O1 Gd1 128.0(8) . 1_565
P1 O1 Gd1 111.6(8) . 3_576
Gd1 O4 Gd1 112.0(5) 4_575 2_456
P1 O4 Gd1 136.3(7) . 4_575
P1 O4 Gd1 97.9(6) . 2_456
loop_
_geom_bond_atom_site_label_1
_geom_bond_atom_site_label_2
_geom_bond_distance
_geom_bond_site_symmetry_2
Gd1 Gd1 4.0076(7) 2_546
Gd1 O2 2.401(11) .
Gd1 O2 2.451(11) 2_546
Gd1 O3 2.416(16) .
Gd1 O3 2.415(15) 4_575
Gd1 P1 3.107(4) 2_446
Gd1 P1 3.236(4) 2_546
Gd1 O1 2.559(16) 3_576
Gd1 O1 2.786(14) 2_546
Gd1 O1 2.460(12) 1_545
Gd1 O4 2.368(13) 4_676
Gd1 O4 2.490(11) 2_446
O2 Gd1 2.451(11) 2_556
O2 P1 1.520(12) .
O3 Gd1 2.415(15) 4_676
O3 P1 1.516(13) 3_577
P1 Gd1 3.236(4) 2_556
P1 Gd1 3.107(4) 2_456
P1 O3 1.516(13) 3_577
P1 O1 1.550(12) .
P1 O4 1.545(17) .
O1 Gd1 2.559(16) 3_576
O1 Gd1 2.786(13) 2_556
O1 Gd1 2.460(12) 1_565
O4 Gd1 2.368(13) 4_575
O4 Gd1 2.490(11) 2_456
loop_
_geom_torsion_atom_site_label_1
_geom_torsion_atom_site_label_2
_geom_torsion_atom_site_label_3
_geom_torsion_atom_site_label_4
_geom_torsion
_geom_torsion_site_symmetry_1
_geom_torsion_site_symmetry_2
_geom_torsion_site_symmetry_3
_geom_torsion_site_symmetry_4
Gd1 O2 P1 Gd1 19.8(17) . . . 2_456
Gd1 O2 P1 Gd1 -174.1(2) 2_556 . . 2_456
Gd1 O2 P1 Gd1 -166.1(17) . . . 2_556
Gd1 O2 P1 O3 76.2(15) . . . 3_577
Gd1 O2 P1 O3 -117.7(7) 2_556 . . 3_577
Gd1 O2 P1 O1 9.7(10) 2_556 . . .
Gd1 O2 P1 O1 -156.3(12) . . . .
Gd1 O2 P1 O4 126.3(7) 2_556 . . .
Gd1 O2 P1 O4 -39.8(14) . . . .
Gd1 P1 O1 Gd1 -103.6(11) 2_556 . . 1_565
Gd1 P1 O1 Gd1 105.5(5) 2_556 . . 3_576
Gd1 P1 O1 Gd1 175.3(2) 2_456 . . 2_556
Gd1 P1 O1 Gd1 71.7(12) 2_456 . . 1_565
Gd1 P1 O1 Gd1 -79.2(6) 2_456 . . 3_576
Gd1 P1 O4 Gd1 -133.9(11) 2_456 . . 4_575
Gd1 P1 O4 Gd1 42.0(12) 2_556 . . 4_575
Gd1 P1 O4 Gd1 175.9(2) 2_556 . . 2_456
O2 P1 O1 Gd1 -111.8(10) . . . 1_565
O2 P1 O1 Gd1 97.3(8) . . . 3_576
O2 P1 O1 Gd1 -8.2(8) . . . 2_556
O2 P1 O4 Gd1 124.4(5) . . . 2_456
O2 P1 O4 Gd1 -9.5(12) . . . 4_575
O3 P1 O1 Gd1 14.8(14) 3_577 . . 1_565
O3 P1 O1 Gd1 118.4(8) 3_577 . . 2_556
O3 P1 O1 Gd1 -136.1(8) 3_577 . . 3_576
O3 P1 O4 Gd1 -132.4(9) 3_577 . . 4_575
O3 P1 O4 Gd1 1.5(7) 3_577 . . 2_456
O1 P1 O4 Gd1 105.9(9) . . . 4_575
O1 P1 O4 Gd1 -120.2(5) . . . 2_456
O4 P1 O1 Gd1 -128.8(6) . . . 2_556
O4 P1 O1 Gd1 -23.2(7) . . . 3_576
O4 P1 O1 Gd1 127.6(10) . . . 1_565
