#------------------------------------------------------------------------------
#$Date: 2021-04-14 11:22:28 +0300 (Wed, 14 Apr 2021) $
#$Revision: 264129 $
#$URL: file:///home/coder/svn-repositories/cod/cif/1/56/17/1561728.cif $
#------------------------------------------------------------------------------
#
# This file is available in the Crystallography Open Database (COD),
# http://www.crystallography.net/
#
# All data on this site have been placed in the public domain by the
# contributors.
#
data_1561728
loop_
_publ_author_name
'Ramachandran, Krishna K.'
'Genet, Cl\'ement'
'Mar, Arthur'
_publ_section_title
;
 Quaternary rare-earth arsenides REAg1&#x2212;Zn As2 (RE=La--Nd, Sm,
 Gd--Dy) with tetragonal SrZnBi2- and HfCuSi2-type structures
;
_journal_name_full               'Journal of Solid State Chemistry'
_journal_page_first              204
_journal_page_last               211
_journal_paper_doi               10.1016/j.jssc.2015.08.032
_journal_volume                  231
_journal_year                    2015
_chemical_formula_structural     'Pr Ag0.50 Zn0.50 As2'
_chemical_formula_sum            'Ag0.5 As2 Pr Zn0.5'
_chemical_formula_weight         377.37
_chemical_name_common
'praseodymium silver zinc arsenide (1/0.5/0.5/2)'
_chemical_name_systematic
'praseodymium silver zinc arsenide (1/0.5/0.5/2)'
_space_group_crystal_system      tetragonal
_space_group_IT_number           129
_space_group_name_Hall           '-P 4a 2a'
_space_group_name_H-M_alt        'P 4/n m m :2'
_atom_sites_solution_hydrogens   .
_atom_sites_solution_primary     direct
_atom_sites_solution_secondary   difmap
_audit_creation_method           SHELXL-2013
_cell_angle_alpha                90
_cell_angle_beta                 90
_cell_angle_gamma                90
_cell_formula_units_Z            2
_cell_length_a                   4.0536(4)
_cell_length_b                   4.0536(4)
_cell_length_c                   10.3542(9)
_cell_measurement_reflns_used    1969
_cell_measurement_temperature    296(2)
_cell_measurement_theta_max      32.91
_cell_measurement_theta_min      5.40
_cell_volume                     170.14(3)
_computing_cell_refinement       'Bruker SAINT 8.34A (Bruker, 2013)'
_computing_data_collection       'Bruker APEX 2 (Bruker, 2008)'
_computing_data_reduction        'Bruker SAINT 8.34A'
_computing_molecular_graphics    'ATOMS 5.1 (Dowty, 1999)'
_computing_publication_material  'Bruker SHELXTL'
_computing_structure_refinement  'SHELXL-2013 (Sheldrick, 2013)'
_computing_structure_solution    'SHELXS-97 (Sheldrick, 2008)'
_diffrn_ambient_temperature      296(2)
_diffrn_measured_fraction_theta_full 1.000
_diffrn_measured_fraction_theta_max 1.000
_diffrn_measurement_device_type  'Bruker PLATFORM/SMART APEX II CCD'
_diffrn_measurement_method       '\w and \f scans'
_diffrn_radiation_type           MoK\a
_diffrn_radiation_wavelength     0.71073
_diffrn_reflns_av_R_equivalents  0.0423
_diffrn_reflns_av_unetI/netI     0.0146
_diffrn_reflns_Laue_measured_fraction_full 1.000
_diffrn_reflns_Laue_measured_fraction_max 1.000
_diffrn_reflns_limit_h_max       6
_diffrn_reflns_limit_h_min       -6
_diffrn_reflns_limit_k_max       6
_diffrn_reflns_limit_k_min       -6
_diffrn_reflns_limit_l_max       15
_diffrn_reflns_limit_l_min       -15
_diffrn_reflns_number            2378
_diffrn_reflns_point_group_measured_fraction_full 1.000
_diffrn_reflns_point_group_measured_fraction_max 1.000
_diffrn_reflns_theta_full        25.242
_diffrn_reflns_theta_max         33.147
_diffrn_reflns_theta_min         1.967
_diffrn_source                   'fine-focus sealed tube'
_exptl_absorpt_coefficient_mu    39.556
_exptl_absorpt_correction_T_max  0.3105
_exptl_absorpt_correction_T_min  0.1706
_exptl_absorpt_correction_type   numerical
_exptl_absorpt_process_details   'Bruker SHELXTL (Sheldrick, 2013)'
_exptl_crystal_colour            black
_exptl_crystal_density_diffrn    7.366
_exptl_crystal_density_method    'not measured'
_exptl_crystal_description       irregular
_exptl_crystal_F_000             327
_exptl_crystal_size_max          0.077
_exptl_crystal_size_mid          0.057
_exptl_crystal_size_min          0.046
_refine_diff_density_max         1.809
_refine_diff_density_min         -1.489
_refine_diff_density_rms         0.219
_refine_ls_extinction_coef       0.0037(5)
_refine_ls_extinction_expression Fc^*^=kFc[1+0.001xFc^2^\l^3^/sin(2\q)]^-1/4^
_refine_ls_extinction_method     SHELXL
_refine_ls_goodness_of_fit_ref   1.170
_refine_ls_hydrogen_treatment    undef
_refine_ls_matrix_type           full
_refine_ls_number_parameters     12
_refine_ls_number_reflns         236
_refine_ls_number_restraints     0
_refine_ls_restrained_S_all      1.170
_refine_ls_R_factor_all          0.0174
_refine_ls_R_factor_gt           0.0167
_refine_ls_shift/su_max          0.000
_refine_ls_shift/su_mean         0.000
_refine_ls_structure_factor_coef Fsqd
_refine_ls_weighting_details
'w=1/[\s^2^(Fo^2^)+(0.0126P)^2^+0.8949P] where P=(Fo^2^+2Fc^2^)/3'
_refine_ls_weighting_scheme      calc
_refine_ls_wR_factor_gt          0.0364
_refine_ls_wR_factor_ref         0.0366
_reflns_Friedel_coverage         0.000
_reflns_Friedel_fraction_full    .
_reflns_Friedel_fraction_max     .
_reflns_number_gt                228
_reflns_number_total             236
_reflns_threshold_expression     'I > 2\s(I)'
_cod_data_source_file            JSSC-2015-231-204.cif
_cod_data_source_block           PrAgZnAs
_cod_original_cell_volume        170.14(4)
_cod_original_sg_symbol_H-M      'P 4/n m m'
_cod_original_formula_sum        'Ag0.50 As2 Pr Zn0.50'
_cod_database_code               1561728
_shelx_space_group_comment
;
The symmetry employed for this shelxl refinement is uniquely defined
by the following loop, which should always be used as a source of
symmetry information in preference to the above space-group names.
They are only intended as comments.
;
_shelx_estimated_absorpt_t_min   0.151
_shelx_estimated_absorpt_t_max   0.263
_shelxl_version_number           2013-4
_shelx_res_file
;
TITL PrAg0.5Zn0.5As2 P4/nmm lsf unsplit model
CELL 0.71073   4.05360   4.05360  10.35420  90.0000  90.0000  90.0000
ZERR    2.00   0.00040   0.00040   0.00090   0.0000   0.0000   0.0000
LATT  1
SYMM 0.5-X, 0.5-Y, Z
SYMM 0.5-Y, X, Z
SYMM Y, 0.5-X, Z
SYMM -X, 0.5+Y, -Z
SYMM 0.5+X, -Y, -Z
SYMM 0.5+Y, 0.5+X, -Z
SYMM -Y, -X, -Z
SFAC ZN AS AG PR
UNIT 1 4 1 2
TEMP 23
SIZE 0.046 0.057 0.077

L.S. 4
ACTA

EXYZ AG ZN
EADP AG ZN
WGHT    0.012600    0.894900
EXTI    0.003712
FVAR       0.14163
PR    4    0.250000    0.250000    0.226590    10.12500    0.00897    0.00897 =
         0.01175    0.00000    0.00000    0.00000
AG    3    0.750000    0.250000    0.500000    10.06250    0.01587    0.01587 =
         0.01303    0.00000    0.00000    0.00000
ZN    1    0.750000    0.250000    0.500000    10.06250    0.01587    0.01587 =
         0.01303    0.00000    0.00000    0.00000
AS1   2    0.250000    0.250000    0.670104    10.12500    0.01004    0.01004 =
         0.01907    0.00000    0.00000    0.00000
AS2   2    0.750000    0.250000    0.000000    10.12500    0.02102    0.02102 =
         0.00980    0.00000    0.00000    0.00000
HKLF 4

REM  PrAg0.5Zn0.5As2 P4/nmm lsf unsplit model
REM R1 =  0.0167 for     228 Fo > 4sig(Fo)  and  0.0174 for all     236 data
REM     12 parameters refined using      0 restraints

END

WGHT      0.0126      0.8949

REM Highest difference peak  1.809,  deepest hole -1.489,  1-sigma level  0.219
Q1    1   0.2500  0.2500  0.3154  10.12500  0.05    1.81
Q2    1   0.2500  0.2500  0.6089  10.12500  0.05    1.36
Q3    1   0.2500  0.2500  0.1615  10.12500  0.05    1.23
Q4    1   0.2500  0.2500  0.7728  10.12500  0.05    1.00
Q5    1   0.7500  0.2500  0.5922  10.25000  0.05    0.75
Q6    1   0.2500  0.2500  0.0663  10.12500  0.05    0.66
Q7    1   0.7500  0.2500  0.0624  10.25000  0.05    0.65
Q8    1   0.2500  0.2500 -0.0252  10.12500  0.05    0.64
Q9    1   0.2500  0.2500  0.8748  10.12500  0.05    0.62
Q10   1   0.3602  0.1398  0.2263  10.50000  0.05    0.62
Q11   1   0.4218  0.0782  0.0212  10.50000  0.05    0.62
Q12   1   0.4101  0.2500  0.3770  10.50000  0.05    0.59
Q13   1   0.2500 -0.0420  0.6393  10.50000  0.05    0.56
Q14   1   0.4871  0.0129  0.7181  10.50000  0.05    0.56
Q15   1   0.4651  0.0349  0.4367  10.50000  0.05    0.54
Q16   1   0.2500 -0.0139  0.2844  10.50000  0.05    0.53
Q17   1   0.7500  0.0750  0.5655  10.50000  0.05    0.53
Q18   1   0.3935  0.1065  0.4726  10.50000  0.05    0.50
Q19   1   0.5959  0.0959  0.5000  10.50000  0.05    0.50
Q20   1   0.7500  0.1029 -0.0177  10.50000  0.05    0.49
;
_shelx_res_checksum              65991
_shelx_hkl_file
;
   0  -2 -15    3.48    1.76
  -1  -1 -15    1.81    0.91
   0  -1 -15   10.36    1.46
   1  -1 -15    2.14    0.75
  -1   0 -15    9.32    1.42
   0   0 -15    5.41    1.11
   1   0 -15    9.07    1.33
  -1   1 -15    3.28    1.06
   0   1 -15    9.48    1.41
   1   1 -15    3.18    0.98
   0   2 -15    2.33    1.17
  -1  -2 -14   19.44    2.02
   0  -2 -14   27.44    2.24
   1  -2 -14   22.30    1.80
   2  -2 -14   21.19    2.53
  -2  -1 -14   24.55    1.77
  -1  -1 -14   17.33    1.46
   0  -1 -14   31.25    2.38
   1  -1 -14   17.60    1.31
  -2   0 -14   31.15    2.17
  -1   0 -14   27.99    1.99
   0   0 -14   40.91    2.13
   1   0 -14   29.69    1.54
  -2   1 -14   22.49    1.97
  -1   1 -14   17.40    1.76
   0   1 -14   29.18    1.53
   1   1 -14   19.88    1.44
   2   1 -14   27.91    1.93
  -2   2 -14   26.43    2.99
  -1   2 -14   23.93    1.95
   0   2 -14   29.57    1.89
   1   2 -14   22.60    1.93
  -1  -3 -13   14.07    1.78
   0  -3 -13    7.62    1.00
   1  -3 -13   16.49    1.62
   2  -3 -13    7.08    1.60
  -3  -2 -13    6.58    2.09
  -2  -2 -13   12.98    1.37
  -1  -2 -13   10.25    1.50
   0  -2 -13   15.98    1.70
   1  -2 -13   11.68    1.33
   2  -2 -13   11.11    1.82
   3  -2 -13    9.28    1.76
  -3  -1 -13   18.15    1.54
  -2  -1 -13   14.86    1.40
  -1  -1 -13   20.05    1.51
   0  -1 -13   14.60    1.61
   1  -1 -13   21.73    1.29
   2  -1 -13   13.62    1.81
   3  -1 -13   -0.93    9.70
  -3   0 -13   10.54    1.41
  -2   0 -13   15.35    1.62
  -1   0 -13   16.22    1.62
   0   0 -13   20.37    1.73
   1   0 -13   14.55    1.20
   3   0 -13   11.70    1.97
  -3   1 -13   18.80    1.91
  -2   1 -13   12.24    1.16
  -1   1 -13   21.99    1.45
   0   1 -13   15.78    1.45
   1   1 -13   22.44    1.57
   2   1 -13    9.66    1.28
   3   1 -13   15.00    1.59
  -2   2 -13   13.56    1.26
  -1   2 -13   12.56    1.43
   0   2 -13   15.96    1.54
   1   2 -13   11.13    1.35
   2   2 -13   13.08    1.20
  -1   3 -13   15.49    1.60
   0   3 -13    8.56    1.26
   1   3 -13   14.86    1.61
  -2  -3 -12   15.79    1.90
  -1  -3 -12   12.45    1.65
   0  -3 -12   14.41    1.28
   1  -3 -12   14.31    1.44
   2  -3 -12   15.35    1.54
  -3  -2 -12   14.56    1.40
  -2  -2 -12   36.88    1.89
  -1  -2 -12   17.55    1.80
   0  -2 -12   47.44    2.33
   1  -2 -12   22.36    1.65
   2  -2 -12   35.59    1.77
   3  -2 -12   15.24    2.20
  -3  -1 -12   16.88    1.77
  -2  -1 -12   19.70    1.79
  -1  -1 -12   24.76    1.71
   0  -1 -12   28.09    1.50
   1  -1 -12   24.29    1.82
   2  -1 -12   21.69    1.86
  -4   0 -12   23.21    2.66
  -3   0 -12   19.26    1.79
  -2   0 -12   50.90    2.23
  -1   0 -12   25.81    1.69
   0   0 -12   68.77    2.47
   1   0 -12   29.33    1.68
   2   0 -12   50.30    2.00
   3   0 -12   16.90    2.30
   4   0 -12   16.61    2.63
  -3   1 -12   15.10    1.33
  -2   1 -12   23.53    1.50
  -1   1 -12   24.64    1.28
   0   1 -12   25.16    1.42
   1   1 -12   27.78    1.55
   2   1 -12   22.19    1.54
   3   1 -12   12.39    1.39
  -3   2 -12   15.68    1.34
  -2   2 -12   36.27    1.58
  -1   2 -12   23.78    1.64
   0   2 -12   49.09    2.09
   1   2 -12   22.42    1.26
   2   2 -12   34.79    1.89
   3   2 -12   14.00    1.54
  -2   3 -12   15.38    1.62
  -1   3 -12   15.03    1.57
   0   3 -12   16.44    1.58
   1   3 -12   13.73    1.18
   2   3 -12   13.45    1.51
   0   4 -12   20.39    2.35
  -1  -4 -11    1.57    0.72
   0  -4 -11   39.24    1.88
   1  -4 -11    1.78    0.77
  -3  -3 -11   27.87    2.37
  -2  -3 -11    1.58    0.95
  -1  -3 -11   44.42    2.40
   0  -3 -11    3.32    0.67
   1  -3 -11   40.73    1.95
   2  -3 -11    2.07    0.72
   3  -3 -11   26.86    2.94
  -3  -2 -11    2.98    0.76
  -2  -2 -11   54.91    2.04
  -1  -2 -11    5.72    0.83
   0  -2 -11   63.98    2.54
   1  -2 -11    3.53    0.61
   2  -2 -11   56.64    2.07
   3  -2 -11    3.70    1.26
  -4  -1 -11    2.17    0.92
  -3  -1 -11   40.12    2.11
  -2  -1 -11    4.65    0.93
  -1  -1 -11   67.38    2.46
   0  -1 -11    5.29    0.71
   1  -1 -11   69.22    2.33
   2  -1 -11    4.15    0.67
   4  -1 -11    0.32    4.53
  -4   0 -11   38.57    2.13
  -3   0 -11    3.31    0.88
  -2   0 -11   67.36    2.46
  -1   0 -11    6.15    0.71
   0   0 -11   79.86    1.92
   1   0 -11    5.79    0.67
   2   0 -11   67.16    1.82
   3   0 -11    1.84    1.06
   4   0 -11   37.10    3.00
  -4   1 -11    1.58    0.82
  -3   1 -11   43.27    1.68
  -2   1 -11    4.96    0.69
  -1   1 -11   67.65    2.24
   0   1 -11    5.45    0.78
   1   1 -11   68.35    1.75
   2   1 -11    4.25    0.76
   3   1 -11   41.43    2.90
   4   1 -11    0.41    1.04
  -3   2 -11    3.08    0.69
  -2   2 -11   56.60    2.29
  -1   2 -11    4.72    0.83
   0   2 -11   64.40    1.75
   1   2 -11    3.64    0.69
   2   2 -11   54.90    2.19
   3   2 -11    2.63    0.78
   4   2 -11    6.85   22.36
  -3   3 -11   27.75    1.77
  -2   3 -11    3.07    0.82
  -1   3 -11   41.51    2.00
   0   3 -11    3.07    0.55
   1   3 -11   43.04    1.92
   2   3 -11    3.12    0.76
   3   3 -11   25.29    2.15
  -2   4 -11   37.72    2.91
  -1   4 -11    1.99    0.74
   0   4 -11   38.33    1.63
   1   4 -11    1.50    0.71
  -2  -4 -10    9.56    1.58
  -1  -4 -10    7.90    1.05
   0  -4 -10   11.74    1.18
   1  -4 -10    6.17    1.08
   2  -4 -10    8.91    1.26
  -3  -3 -10   28.51    1.87
  -2  -3 -10    9.09    1.38
  -1  -3 -10   47.87    2.38
   0  -3 -10    8.47    0.88
   1  -3 -10   48.18    2.02
   2  -3 -10   10.18    1.15
   3  -3 -10   27.45    2.87
  -4  -2 -10   11.57    1.52
  -3  -2 -10    8.63    1.07
  -2  -2 -10   21.61    1.51
  -1  -2 -10   14.23    1.17
   0  -2 -10   29.20    1.77
   1  -2 -10   11.92    0.95
   2  -2 -10   22.75    1.31
   3  -2 -10    8.37    1.52
   4  -2 -10    7.48    1.73
  -4  -1 -10    8.67    1.28
  -3  -1 -10   44.82    2.12
  -2  -1 -10   13.18    1.36
  -1  -1 -10   88.60    2.68
   0  -1 -10   17.66    1.15
   1  -1 -10   92.52    2.02
   2  -1 -10   12.80    1.06
   3  -1 -10   48.80    2.66
   4  -1 -10   -0.79    3.56
  -4   0 -10   12.10    1.42
  -3   0 -10   11.57    1.05
  -2   0 -10   32.68    1.30
  -1   0 -10   14.18    0.89
   0   0 -10   44.96    1.35
   1   0 -10   15.94    0.75
   2   0 -10   30.81    1.34
   3   0 -10    8.11    1.62
   4   0 -10    6.02    1.65
  -4   1 -10    9.14    1.36
  -3   1 -10   50.97    1.72
  -2   1 -10   14.09    1.06
  -1   1 -10   89.19    2.46
   0   1 -10   15.16    0.78
   1   1 -10   92.85    2.34
   2   1 -10   11.54    1.13
   3   1 -10   49.15    2.98
   4   1 -10    5.30    1.57
  -4   2 -10    8.87    1.36
  -3   2 -10   10.99    1.02
  -2   2 -10   22.93    1.55
  -1   2 -10   11.61    1.13
   0   2 -10   33.42    1.18
   1   2 -10   13.15    1.12
   2   2 -10   21.80    1.46
   3   2 -10    8.75    1.22
   4   2 -10    7.04    1.59
  -3   3 -10   28.26    2.16
  -2   3 -10   10.76    1.29
  -1   3 -10   46.57    1.54
   0   3 -10    9.64    0.88
   1   3 -10   47.36    1.95
   2   3 -10    8.78    1.12
   3   3 -10   27.01    2.14
  -2   4 -10    8.48    1.22
  -1   4 -10    8.76    0.93
   0   4 -10   11.85    1.08
   1   4 -10    7.46    1.10
   2   4 -10    7.68    1.16
  -1  -5  -9   41.17    2.99
   0  -5  -9    3.34    1.32
  -2  -4  -9   38.20    2.72
  -1  -4  -9    3.12    0.70
   0  -4  -9   48.55    1.83
   1  -4  -9    1.93    0.65
   2  -4  -9   34.96    1.96
  -4  -3  -9    3.03    1.13
  -3  -3  -9   63.71    2.26
  -2  -3  -9    3.06    0.89
  -1  -3  -9   81.55    2.94
   0  -3  -9    3.50    0.61
   1  -3  -9   80.86    2.49
   2  -3  -9    2.46    0.64
   3  -3  -9   60.25    3.38
   4  -3  -9    0.92    0.98
  -4  -2  -9   38.36    2.23
  -3  -2  -9    4.50    0.77
  -2  -2  -9   79.57    2.25
  -1  -2  -9    5.59    0.74
   0  -2  -9  102.13    2.86
   1  -2  -9    5.22    0.62
   2  -2  -9   76.19    2.25
   3  -2  -9    0.92    0.68
   4  -2  -9   36.43    2.72
  -4  -1  -9    3.34    0.88
  -3  -1  -9   84.12    2.71
  -2  -1  -9    7.39    0.96
  -1  -1  -9  133.91    3.16
   0  -1  -9    6.83    0.69
   1  -1  -9  126.91    2.30
   2  -1  -9    4.77    0.65
   3  -1  -9   87.46    3.40
   4  -1  -9    0.71    3.18
  -4   0  -9   48.81    1.76
  -3   0  -9    4.19    0.67
  -2   0  -9  103.72    2.18
  -1   0  -9    6.90    0.65
   0   0  -9  136.09    2.29
   1   0  -9    8.16    0.63
   2   0  -9  100.94    2.17
   3   0  -9   -0.99    3.09
   5   0  -9   -1.64    3.23
  -5   1  -9   40.91    3.40
  -4   1  -9    2.45    0.80
  -3   1  -9   84.01    2.11
  -2   1  -9    5.96    0.67
  -1   1  -9  131.40    2.92
   0   1  -9    7.78    0.60
   1   1  -9  130.97    2.69
   2   1  -9    4.56    1.08
   3   1  -9   81.45    3.83
   4   1  -9    2.19    1.26
  -4   2  -9   39.83    2.12
  -3   2  -9    3.56    0.62
  -2   2  -9   73.95    2.40
  -1   2  -9    4.70    0.55
   0   2  -9  101.96    2.01
   1   2  -9    5.83    0.75
   2   2  -9   78.34    2.45
   3   2  -9    2.36    0.92
   4   2  -9   39.02    3.05
  -3   3  -9   59.84    2.48
  -2   3  -9    3.73    0.77
  -1   3  -9   83.42    1.99
   0   3  -9    3.60    0.54
   1   3  -9   84.71    2.50
   2   3  -9    3.95    0.79
   3   3  -9   59.41    2.53
   4   3  -9   -4.92   23.59
  -2   4  -9   41.39    1.62
  -1   4  -9    1.62    0.49
   0   4  -9   46.06    1.64
   1   4  -9    1.94    0.65
   2   4  -9   43.35    2.12
   0   5  -9    2.44    0.64
  -2  -5  -8    7.16    2.00
  -1  -5  -8   10.30    1.61
   0  -5  -8    6.78    1.03
   1  -5  -8    9.20    1.37
  -3  -4  -8    6.47    1.95
  -2  -4  -8   26.77    2.21
  -1  -4  -8   10.20    1.05
   0  -4  -8   32.67    1.54
   1  -4  -8    9.84    1.20
   2  -4  -8   23.74    1.82
   3  -4  -8    5.52    1.06
  -4  -3  -8    8.17    1.44
  -3  -3  -8   21.25    1.56
  -2  -3  -8   10.73    1.09
  -1  -3  -8   39.63    2.01
   0  -3  -8   14.89    1.06
   1  -3  -8   38.67    1.32
   2  -3  -8   11.13    1.16
   3  -3  -8   17.93    2.24
   4  -3  -8    7.19    1.67
  -4  -2  -8   28.64    2.20
  -3  -2  -8   12.59    1.14
  -2  -2  -8   59.25    1.87
  -1  -2  -8   18.01    1.17
   0  -2  -8   81.45    1.89
   1  -2  -8   17.68    0.89
   2  -2  -8   61.46    1.90
   3  -2  -8   10.13    1.55
   4  -2  -8   24.08    2.54
  -5  -1  -8   11.99    2.29
  -4  -1  -8   10.78    1.31
  -3  -1  -8   38.11    1.79
  -2  -1  -8   17.85    1.42
  -1  -1  -8   82.04    2.30
   0  -1  -8   22.39    0.71
   1  -1  -8   81.30    1.68
   2  -1  -8   17.80    0.93
   3  -1  -8   37.14    2.16
   4  -1  -8   -2.93    5.78
   5  -1  -8   -4.28    9.68
  -5   0  -8    6.94    1.22
  -4   0  -8   34.10    1.44
  -3   0  -8   15.25    1.07
  -2   0  -8   82.31    1.85
  -1   0  -8   23.98    0.91
   0   0  -8  120.62    1.77
   1   0  -8   25.35    1.04
   2   0  -8   83.77    1.84
   5   0  -8   -0.20    3.50
  -5   1  -8   11.09    1.47
  -4   1  -8   14.03    1.55
  -3   1  -8   38.52    1.37
  -2   1  -8   15.34    0.97
  -1   1  -8   81.89    1.55
   0   1  -8   21.90    0.79
   1   1  -8   82.28    1.99
   2   1  -8   18.35    1.57
   3   1  -8   38.25    2.53
   4   1  -8    6.00    1.43
   5   1  -8    8.05    1.87
  -4   2  -8   27.62    1.89
  -3   2  -8   12.64    1.01
  -2   2  -8   61.64    2.07
  -1   2  -8   18.46    0.82
   0   2  -8   84.76    1.74
   1   2  -8   17.99    1.03
   2   2  -8   57.32    2.02
   3   2  -8   10.88    1.85
   4   2  -8   21.47    2.71
  -4   3  -8   10.78    2.20
  -3   3  -8   21.83    1.75
  -2   3  -8   11.65    0.92
  -1   3  -8   40.70    1.33
   0   3  -8   13.51    1.13
   1   3  -8   37.35    1.61
   2   3  -8   11.26    1.19
   3   3  -8   16.92    1.61
   4   3  -8    6.70    1.83
  -3   4  -8    8.68    1.92
  -2   4  -8   25.97    1.60
  -1   4  -8   10.25    0.94
   0   4  -8   32.93    1.35
   1   4  -8   10.04    1.17
   2   4  -8   26.92    1.66
   3   4  -8    7.75    1.29
  -1   5  -8   11.04    1.33
   0   5  -8    8.03    0.93
   1   5  -8    8.85    1.21
  -2  -5  -7   18.23    2.15
  -1  -5  -7   12.81    1.70
   0  -5  -7   19.65    1.44
   1  -5  -7   16.19    1.61
   2  -5  -7   15.33    1.68
  -3  -4  -7   22.17    2.96
  -2  -4  -7   39.71    2.37
  -1  -4  -7   33.17    1.54
   0  -4  -7   44.43    1.62
   1  -4  -7   29.45    1.76
   2  -4  -7   37.23    1.89
   3  -4  -7   17.51    1.66
  -4  -3  -7   23.49    2.14
  -3  -3  -7   27.54    1.58
  -2  -3  -7   38.63    1.61
  -1  -3  -7   43.22    1.96
   0  -3  -7   49.56    1.51
   1  -3  -7   47.12    1.42
   2  -3  -7   35.61    1.60
   3  -3  -7   27.90    1.52
   4  -3  -7   19.87    2.50
  -5  -2  -7   15.91    2.83
  -4  -2  -7   39.59    2.09
  -3  -2  -7   37.75    1.52
  -2  -2  -7   68.08    1.90
  -1  -2  -7   66.50    1.76
   0  -2  -7   85.53    1.82
   1  -2  -7   66.58    1.53
   2  -2  -7   67.65    1.92
   3  -2  -7   38.75    2.36
   4  -2  -7   40.77    2.72
   5  -2  -7   12.11    2.10
  -5  -1  -7   16.42    2.63
  -4  -1  -7   29.78    1.68
  -3  -1  -7   48.73    1.54
  -2  -1  -7   66.71    1.61
  -1  -1  -7   82.33    1.60
   0  -1  -7   89.44    1.37
   1  -1  -7   84.10    1.59
   2  -1  -7   67.28    1.70
   3  -1  -7   47.01    2.36
   4  -1  -7   31.41    2.27
   5  -1  -7   -0.53   10.10
  -5   0  -7   20.27    1.98
  -4   0  -7   45.82    1.63
  -3   0  -7   50.05    1.50
  -2   0  -7   86.15    1.82
  -1   0  -7   87.67    1.67
   0   0  -7  119.43    1.70
   2   0  -7   87.90    1.77
   3   0  -7   51.56    2.23
  -5   1  -7   19.32    1.92
  -4   1  -7   33.35    1.82
  -3   1  -7   48.11    1.45
  -2   1  -7   66.04    1.99
  -1   1  -7   83.76    1.50
   0   1  -7   87.00    1.54
   1   1  -7   85.66    1.95
   2   1  -7   63.31    2.80
   3   1  -7   45.91    2.69
   4   1  -7   30.32    2.46
   5   1  -7   13.46    2.24
  -5   2  -7   20.42    2.93
  -4   2  -7   41.86    2.06
  -3   2  -7   37.14    1.32
  -2   2  -7   70.29    1.62
  -1   2  -7   66.59    1.48
   0   2  -7   84.79    2.01
   1   2  -7   66.48    1.85
   2   2  -7   69.38    2.93
   3   2  -7   33.68    2.45
   4   2  -7   37.06    2.91
   5   2  -7   16.97    2.65
  -4   3  -7   29.82    3.41
  -3   3  -7   27.58    1.26
  -2   3  -7   38.42    1.31
  -1   3  -7   47.15    1.37
   0   3  -7   51.11    1.72
   1   3  -7   45.26    1.70
   2   3  -7   39.99    1.74
   3   3  -7   21.60    2.61
   4   3  -7   20.19    3.01
  -3   4  -7   24.09    1.95
  -2   4  -7   42.54    1.94
  -1   4  -7   31.41    1.28
   0   4  -7   44.14    1.84
   1   4  -7   31.28    1.60
   2   4  -7   39.98    1.92
   3   4  -7   15.10    1.58
  -2   5  -7   16.99    1.68
  -1   5  -7   19.59    1.74
   0   5  -7   20.49    1.71
   1   5  -7   19.32    1.71
   2   5  -7   14.21    1.51
  -2  -5  -6   17.06    1.89
  -1  -5  -6   26.36    2.28
   0  -5  -6   18.02    1.36
   1  -5  -6   27.05    1.90
   2  -5  -6   16.68    1.76
  -4  -4  -6    6.48    1.36
  -3  -4  -6   14.65    1.70
  -2  -4  -6   20.33    1.89
  -1  -4  -6   24.99    1.35
   0  -4  -6   27.25    1.30
   1  -4  -6   25.60    1.62
   2  -4  -6   19.87    1.65
   3  -4  -6   17.48    1.61
   4  -4  -6    1.92    5.21
  -4  -3  -6   18.03    1.87
  -3  -3  -6   40.94    2.16
  -2  -3  -6   34.81    1.47
  -1  -3  -6   76.38    1.95
   0  -3  -6   41.24    1.32
   1  -3  -6   77.27    1.75
   2  -3  -6   33.82    1.51
   3  -3  -6   41.16    1.81
   4  -3  -6   17.08    2.34
  -5  -2  -6   16.59    2.78
  -4  -2  -6   19.07    1.76
  -3  -2  -6   34.23    1.39
  -2  -2  -6   57.52    1.67
  -1  -2  -6   54.65    1.51
   0  -2  -6   84.71    1.72
   1  -2  -6   53.81    1.30
   2  -2  -6   54.43    1.69
   3  -2  -6   34.03    2.17
   4  -2  -6   18.80    2.17
   5  -2  -6   17.07    2.49
  -5  -1  -6   25.72    3.16
  -4  -1  -6   28.98    1.33
  -3  -1  -6   74.86    1.88
  -2  -1  -6   55.60    1.42
  -1  -1  -6  153.53    2.20
   0  -1  -6   75.40    1.14
   1  -1  -6  154.76    1.81
   2  -1  -6   51.49    1.14
   3  -1  -6   76.35    2.95
   4  -1  -6   26.66    2.07
  -5   0  -6   19.95    1.96
  -4   0  -6   25.62    1.57
  -3   0  -6   39.73    1.32
  -2   0  -6   84.95    1.72
  -1   0  -6   74.60    1.43
   0   0  -6  136.79    1.75
   2   0  -6   86.38    1.66
   3   0  -6   42.19    1.95
   5   0  -6    0.62   10.08
  -5   1  -6   27.77    2.02
  -4   1  -6   25.07    1.58
  -3   1  -6   77.04    1.77
  -2   1  -6   52.97    1.24
  -1   1  -6  155.60    2.10
   0   1  -6   76.12    1.59
   1   1  -6  153.06    3.70
   2   1  -6   56.86    2.47
   3   1  -6   69.92    3.30
   4   1  -6   26.44    2.82
   5   1  -6   23.50    2.86
  -5   2  -6   14.30    2.48
  -4   2  -6   17.12    1.59
  -3   2  -6   33.02    1.22
  -2   2  -6   54.39    1.38
  -1   2  -6   54.04    1.27
   0   2  -6   80.88    1.89
   1   2  -6   54.26    1.60
   2   2  -6   57.19    2.55
   3   2  -6   32.18    2.34
   4   2  -6   15.60    2.45
   5   2  -6   17.31    2.65
  -4   3  -6   17.00    2.52
  -3   3  -6   43.09    1.49
  -2   3  -6   33.56    1.19
  -1   3  -6   75.60    1.70
   0   3  -6   42.79    1.53
   1   3  -6   77.65    2.15
   2   3  -6   30.81    1.50
   3   3  -6   41.15    2.80
   4   3  -6   16.98    2.58
  -3   4  -6   19.50    1.69
  -2   4  -6   17.17    1.47
  -1   4  -6   28.28    1.16
   0   4  -6   25.04    1.37
   1   4  -6   26.22    1.42
   2   4  -6   15.96    1.41
   3   4  -6   15.44    1.60
   4   4  -6    6.69    1.61
  -2   5  -6   15.96    1.61
  -1   5  -6   25.40    1.88
   0   5  -6   21.39    1.72
   1   5  -6   25.10    1.71
   2   5  -6   13.29    1.50
  -2  -5  -5   31.37    2.43
  -1  -5  -5    6.39    1.21
   0  -5  -5   36.86    1.64
   1  -5  -5    7.26    1.12
   2  -5  -5   29.17    2.21
   3  -5  -5    5.16    1.65
  -4  -4  -5    0.62    0.89
  -3  -4  -5   38.67    2.46
  -2  -4  -5    1.89    0.76
  -1  -4  -5   56.04    1.75
   0  -4  -5    3.54    0.57
   1  -4  -5   53.73    1.61
   2  -4  -5    2.20    0.69
   3  -4  -5   33.97    1.87
   4  -4  -5    1.61    1.20
  -4  -3  -5   41.13    2.25
  -3  -3  -5    9.62    1.29
  -2  -3  -5   70.95    2.00
  -1  -3  -5   12.36    0.95
   0  -3  -5   91.32    1.91
   1  -3  -5   10.90    0.77
   2  -3  -5   71.96    2.20
   3  -3  -5    8.76    1.02
   4  -3  -5   33.25    2.71
  -5  -2  -5   30.50    3.63
  -4  -2  -5    2.11    0.70
  -3  -2  -5   73.51    1.90
  -2  -2  -5    7.13    0.73
  -1  -2  -5  120.94    2.19
   0  -2  -5    9.25    0.64
   1  -2  -5  119.23    1.90
   2  -2  -5    6.45    0.69
   3  -2  -5   71.75    2.05
   4  -2  -5    0.84    0.79
   5  -2  -5   30.89    3.10
  -5  -1  -5    6.69    1.17
  -4  -1  -5   56.47    1.78
  -3  -1  -5   11.99    0.91
  -2  -1  -5  123.14    2.14
  -1  -1  -5   21.73    0.71
   0  -1  -5  175.65    1.83
   1  -1  -5   21.95    0.57
   2  -1  -5  120.31    2.20
   3  -1  -5   12.34    1.43
   4  -1  -5   54.82    2.88
   5  -1  -5    2.81   10.71
  -5   0  -5   37.38    2.11
  -4   0  -5    3.99    0.78
  -3   0  -5   92.68    1.95
  -2   0  -5    9.85    0.68
  -1   0  -5  175.03    2.28
   0   0  -5   11.85    0.42
   2   0  -5    8.59    0.51
   3   0  -5   95.12    3.04
   4   0  -5    2.03    3.64
  -5   1  -5    8.00    1.23
  -4   1  -5   57.22    2.26
  -3   1  -5   13.50    0.69
  -2   1  -5  120.86    1.92
  -1   1  -5   21.01    0.65
   0   1  -5  176.86    2.58
   1   1  -5   20.52    1.20
   2   1  -5  124.13    2.11
   3   1  -5   12.33    1.78
   4   1  -5   55.09    3.22
   5   1  -5    5.77    1.50
  -5   2  -5   32.90    3.62
  -4   2  -5    2.52    0.68
  -3   2  -5   72.75    1.75
  -2   2  -5    6.77    0.59
  -1   2  -5  116.91    1.90
   0   2  -5    7.63    0.67
   1   2  -5  118.06    2.38
   2   2  -5    4.45    0.94
   3   2  -5   70.41    3.33
   4   2  -5    0.95    0.96
   5   2  -5   30.79    3.37
  -4   3  -5   40.68    2.01
  -3   3  -5   11.20    1.16
  -2   3  -5   71.85    1.69
  -1   3  -5   12.66    0.72
   0   3  -5   92.96    2.23
   1   3  -5   11.17    0.95
   2   3  -5   73.89    2.22
   3   3  -5   10.98    1.83
   4   3  -5   30.76    3.27
   5   3  -5    5.37    1.75
  -4   4  -5    1.34    0.76
  -3   4  -5   37.70    1.93
  -2   4  -5    2.68    0.70
  -1   4  -5   56.77    1.56
   0   4  -5    5.20    0.75
   1   4  -5   57.19    1.99
   2   4  -5    1.15    0.51
   3   4  -5   37.09    1.96
   4   4  -5    1.68    1.17
  -3   5  -5    8.03    1.92
  -2   5  -5   29.10    1.93
  -1   5  -5    8.80    1.16
   0   5  -5   35.38    1.79
   1   5  -5    6.49    0.97
   2   5  -5   32.80    2.75
   3   5  -5    0.73   18.26
   0  -6  -4   31.04    3.59
  -3  -5  -4   -0.11    1.40
  -2  -5  -4   24.30    2.19
  -1  -5  -4    0.29    0.73
   0  -5  -4   34.61    2.14
   1  -5  -4    2.63    0.80
   2  -5  -4   26.58    2.14
   3  -5  -4   -0.41    0.64
  -4  -4  -4   47.60    2.64
  -3  -4  -4   32.01    2.40
  -2  -4  -4   95.63    2.46
  -1  -4  -4   46.34    1.53
   0  -4  -4  123.69    2.45
   1  -4  -4   47.30    1.51
   2  -4  -4   90.99    2.82
   3  -4  -4   28.55    1.84
   4  -4  -4   42.48    3.32
  -5  -3  -4    1.02    1.27
  -4  -3  -4   32.72    2.16
  -3  -3  -4    5.58    1.04
  -2  -3  -4   63.29    1.79
  -1  -3  -4   14.86    0.92
   0  -3  -4   77.86    1.70
   1  -3  -4   13.81    0.84
   2  -3  -4   60.03    1.98
   3  -3  -4    1.73    0.55
   4  -3  -4   28.43    2.95
   5  -3  -4    0.61    0.94
  -5  -2  -4   26.16    3.43
  -4  -2  -4   97.20    3.01
  -3  -2  -4   62.14    1.47
  -2  -2  -4  226.76    2.69
  -1  -2  -4  109.52    1.98
   0  -2  -4  323.19    3.52
   1  -2  -4  108.95    1.70
   2  -2  -4  219.94    3.61
   3  -2  -4   59.44    1.86
   4  -2  -4   87.96    3.93
   5  -2  -4   21.70    2.58
  -5  -1  -4    0.37    0.58
  -4  -1  -4   49.26    1.61
  -3  -1  -4   13.54    0.96
  -2  -1  -4  106.19    1.94
  -1  -1  -4   41.24    0.94
   0  -1  -4  164.73    2.04
   1  -1  -4   41.83    0.88
   2  -1  -4  106.88    2.01
   3  -1  -4   15.37    1.59
   4  -1  -4   50.13    2.76
   5  -1  -4    0.17    0.69
  -6   0  -4   33.61    3.05
  -5   0  -4   31.59    2.11
  -4   0  -4  124.59    3.40
  -3   0  -4   80.94    1.46
  -2   0  -4  320.60    3.03
  -1   0  -4  163.24    2.07
   0   0  -4  532.25    4.57
   1   0  -4  164.13    3.02
   2   0  -4  326.29    3.68
   3   0  -4   79.90    2.79
   4   0  -4  119.04    3.92
  -5   1  -4    1.58    0.68
  -4   1  -4   47.82    2.05
  -3   1  -4   13.68    0.69
  -2   1  -4  107.63    1.78
  -1   1  -4   41.09    0.88
   0   1  -4  164.32    2.35
   1   1  -4   42.33    1.61
   2   1  -4  112.37    1.96
   3   1  -4   -1.24    9.56
   5   1  -4    0.31    0.77
  -5   2  -4   30.83    2.88
  -4   2  -4   93.92    2.25
  -3   2  -4   64.23    1.62
  -2   2  -4  224.14    3.01
  -1   2  -4  107.74    1.73
   0   2  -4  314.28    4.25
   1   2  -4  109.08    2.18
   2   2  -4  225.44    5.27
   3   2  -4   62.94    3.07
   4   2  -4   84.38    4.12
   5   2  -4   25.25    3.08
  -5   3  -4    0.03    0.96
  -4   3  -4   33.46    1.82
  -3   3  -4    3.32    0.69
  -2   3  -4   61.63    1.52
  -1   3  -4   12.59    0.73
   0   3  -4   82.22    2.01
   1   3  -4   11.91    0.94
   2   3  -4   62.97    2.80
   3   3  -4    3.45    1.18
   4   3  -4   31.10    3.34
   5   3  -4    1.36    1.20
  -4   4  -4   45.53    2.28
  -3   4  -4   29.04    1.70
  -2   4  -4   92.13    2.68
  -1   4  -4   49.22    1.84
   0   4  -4  122.58    2.83
   1   4  -4   48.95    1.77
   2   4  -4   92.59    2.61
   3   4  -4   30.30    1.84
   4   4  -4   51.60    3.56
  -3   5  -4    0.97    0.68
  -2   5  -4   22.88    1.84
  -1   5  -4    0.07    0.46
   0   5  -4   34.01    1.78
   1   5  -4    0.77    0.82
   2   5  -4   24.79    2.80
   3   5  -4    0.78    1.08
  -1  -6  -3   12.44    2.59
   0  -6  -3    0.05    1.01
  -3  -5  -3    0.81    1.39
  -2  -5  -3   27.56    3.33
  -1  -5  -3    2.03    0.84
   0  -5  -3   24.37    1.94
   1  -5  -3    0.80    0.69
   2  -5  -3   19.62    1.81
   3  -5  -3   -0.83    0.62
  -4  -4  -3    0.23    0.81
  -3  -4  -3   25.51    2.07
  -2  -4  -3    0.98    0.47
  -1  -4  -3   41.21    1.39
   0  -4  -3   -0.01    0.30
   1  -4  -3   38.47    1.35
   2  -4  -3    0.44    0.46
   3  -4  -3   26.57    1.94
   4  -4  -3    0.00    0.80
  -5  -3  -3    2.79    1.50
  -4  -3  -3   26.64    2.10
  -3  -3  -3    2.33    0.70
  -2  -3  -3   48.51    1.53
  -1  -3  -3    3.53    0.51
   0  -3  -3   64.96    1.48
   1  -3  -3    2.67    0.39
   2  -3  -3   46.66    1.76
   3  -3  -3    1.58    0.50
   4  -3  -3   22.17    2.56
   5  -3  -3    0.06    0.89
  -5  -2  -3   18.39    2.78
  -4  -2  -3    0.38    0.41
  -3  -2  -3   48.92    1.54
  -2  -2  -3    0.44    0.24
  -1  -2  -3   85.10    1.62
   0  -2  -3    0.43    0.15
   1  -2  -3   84.64    1.43
   2  -2  -3    0.18    0.25
   3  -2  -3   46.43    1.65
   4  -2  -3    0.70    0.73
   5  -2  -3   22.56    2.70
  -6  -1  -3   11.51    2.27
  -5  -1  -3    1.11    0.68
  -4  -1  -3   43.75    1.51
  -3  -1  -3    3.34    0.43
  -2  -1  -3   86.23    1.68
  -1  -1  -3    6.98    0.39
   0  -1  -3  129.73    1.63
   1  -1  -3    5.69    0.36
   2  -1  -3   87.11    1.74
   3  -1  -3    2.51    0.83
   4  -1  -3   39.34    2.51
   5  -1  -3    0.50    0.88
   6  -1  -3   -6.30   10.73
  -6   0  -3    0.13    0.68
  -5   0  -3   27.05    2.13
  -4   0  -3    0.22    0.44
  -3   0  -3   65.31    1.29
  -2   0  -3    0.23    0.16
  -1   0  -3  131.70    1.69
   0   0  -3    0.89    0.14
   1   0  -3  132.58    2.46
   2   0  -3    0.23    0.16
   3   0  -3   61.44    2.50
   4   0  -3   -0.22    0.58
   6   0  -3    5.88   15.19
  -5   1  -3    1.62    0.65
  -4   1  -3   37.35    1.40
  -3   1  -3    3.07    0.36
  -2   1  -3   83.62    1.48
  -1   1  -3    6.55    0.38
   0   1  -3  130.26    1.92
   1   1  -3    6.48    0.75
   2   1  -3   86.75    1.68
   3   1  -3    0.30    2.32
   5   1  -3   -0.11    0.70
   6   1  -3   10.82    1.95
  -5   2  -3   21.37    2.97
  -4   2  -3    0.34    0.44
  -3   2  -3   47.25    1.37
  -2   2  -3    0.52    0.23
  -1   2  -3   83.90    1.42
   0   2  -3    0.50    0.22
   1   2  -3   80.96    2.49
   2   2  -3    0.44    0.42
   3   2  -3   52.48    2.73
   4   2  -3    1.06    0.87
   5   2  -3   16.82    2.58
  -5   3  -3    1.20    0.80
  -4   3  -3   27.96    1.83
  -3   3  -3    2.33    0.59
  -2   3  -3   48.31    1.30
  -1   3  -3    2.59    0.38
   0   3  -3   63.51    1.69
   1   3  -3    2.48    0.45
   2   3  -3   49.61    2.38
   3   3  -3    0.98    0.80
   4   3  -3   23.98    2.88
   5   3  -3    3.35    1.41
  -4   4  -3    0.35    0.60
  -3   4  -3   28.51    1.66
  -2   4  -3    0.33    0.40
  -1   4  -3   39.05    1.59
   0   4  -3    0.15    0.33
   1   4  -3   39.28    1.54
   2   4  -3    0.07    0.33
   3   4  -3   28.29    2.98
   4   4  -3    0.27    0.94
  -3   5  -3    0.62    0.90
  -2   5  -3   20.23    2.44
  -1   5  -3    0.00    0.59
   0   5  -3   24.04    2.15
   1   5  -3    0.29    0.70
   2   5  -3   17.80    2.47
   3   5  -3   -0.10    0.96
   1   6  -3   -9.26   14.63
  -1  -6  -2    6.82    1.49
   0  -6  -2    2.28    0.95
  -3  -5  -2   89.31    4.87
  -2  -5  -2   15.79    2.50
  -1  -5  -2  148.42    3.98
   0  -5  -2   18.14    1.69
   1  -5  -2  143.19    3.84
   2  -5  -2   15.76    1.69
   3  -5  -2   91.43    3.40
  -4  -4  -2    6.18    1.22
  -3  -4  -2   19.72    1.87
  -2  -4  -2    4.22    0.67
  -1  -4  -2   27.00    1.70
   0  -4  -2    4.65    0.60
   1  -4  -2   28.08    1.16
   2  -4  -2    3.87    0.82
   3  -4  -2   20.92    1.80
   4  -4  -2    4.58    1.47
  -5  -3  -2   91.50    5.29
  -4  -3  -2   18.52    1.72
  -3  -3  -2  234.59    4.75
  -2  -3  -2   37.99    1.30
  -1  -3  -2  432.52    3.97
   0  -3  -2   49.80    0.98
   1  -3  -2  433.98    4.60
   2  -3  -2   35.05    1.52
   3  -3  -2  222.88    4.37
   4  -3  -2   21.29    2.63
   5  -3  -2   87.34    4.64
  -5  -2  -2   10.79    1.46
  -4  -2  -2    5.22    0.75
  -3  -2  -2   37.87    1.35
  -2  -2  -2    3.59    0.39
  -1  -2  -2   69.91    1.05
   0  -2  -2    1.93    0.23
   1  -2  -2   67.87    1.23
   2  -2  -2    2.41    0.51
   3  -2  -2   37.43    1.48
   4  -2  -2    5.79    1.34
   5  -2  -2   11.09    1.91
  -6  -1  -2    8.74    1.40
  -5  -1  -2  138.52    4.04
  -4  -1  -2   31.51    1.73
  -3  -1  -2  421.82    3.56
  -2  -1  -2   69.87    1.01
  -1  -1  -2  921.48    6.62
   0  -1  -2  116.11    1.40
   1  -1  -2  940.51    8.99
   2  -1  -2   68.25    1.53
   3  -1  -2  404.90    5.33
   4  -1  -2   31.76    2.25
   5  -1  -2  136.91    5.15
   6  -1  -2    0.33   12.58
  -6   0  -2    3.72    1.01
  -5   0  -2   17.97    1.74
  -4   0  -2    6.00    0.72
  -3   0  -2   50.10    1.11
  -2   0  -2    2.41    0.28
  -1   0  -2  113.44    1.20
   0   0  -2    0.56    0.15
   1   0  -2  117.08    1.45
   2   0  -2    1.96    0.52
   3   0  -2   50.21    2.27
   4   0  -2    2.67    0.92
   5   0  -2   -3.96    9.90
   6   0  -2    0.89    2.84
  -5   1  -2  141.98    3.91
  -4   1  -2   26.87    1.23
  -3   1  -2  410.12    4.85
  -2   1  -2   67.63    1.33
  -1   1  -2  917.38    7.69
   0   1  -2  116.67    1.68
   1   1  -2  916.56   12.95
   2   1  -2   70.43    1.85
   3   1  -2  424.41    7.48
   6   1  -2   -3.14   16.95
  -5   2  -2   16.54    1.69
  -4   2  -2    5.27    0.89
  -3   2  -2   37.36    1.20
  -2   2  -2    3.27    0.40
  -1   2  -2   67.98    1.21
   0   2  -2    1.59    0.30
   1   2  -2   66.29    2.14
   2   2  -2    2.28    0.63
   3   2  -2   37.65    2.24
   4   2  -2    5.62    1.31
   5   2  -2   11.54    2.15
  -5   3  -2   90.31    3.33
  -4   3  -2   18.31    1.68
  -3   3  -2  223.66    4.38
  -2   3  -2   35.49    1.46
  -1   3  -2  423.08    4.46
   0   3  -2   49.73    1.43
   1   3  -2  414.16    5.46
   2   3  -2   38.72    2.04
   3   3  -2  239.01    6.25
   4   3  -2   18.69    2.42
  -4   4  -2    4.18    0.93
  -3   4  -2   22.65    1.81
  -2   4  -2    3.78    0.74
  -1   4  -2   29.61    1.36
   0   4  -2    5.29    0.71
   1   4  -2   30.71    1.31
   2   4  -2    3.73    0.68
   3   4  -2   19.63    2.42
   4   4  -2    6.29    1.79
  -3   5  -2   93.40    4.47
  -2   5  -2   15.83    2.21
  -1   5  -2  137.97    4.95
   0   5  -2   14.35    2.00
   1   5  -2  146.91    5.03
   2   5  -2   12.77    2.04
   3   5  -2  101.41    4.84
   0   6  -2    3.13    1.30
   1   6  -2   12.71    2.22
  -1  -6  -1    6.95    1.34
   0  -6  -1    2.22    0.89
  -3  -5  -1   -0.65    1.24
  -2  -5  -1   12.71    2.24
  -1  -5  -1   -1.02    0.59
   0  -5  -1    9.79    1.27
   1  -5  -1    0.08    0.42
   2  -5  -1    9.43    1.32
   3  -5  -1   -0.05    0.70
  -4  -4  -1    0.99    0.89
  -3  -4  -1   11.33    1.45
  -2  -4  -1    2.25    0.59
  -1  -4  -1   16.34    0.98
   0  -4  -1    2.16    0.47
   1  -4  -1   13.86    0.98
   2  -4  -1    0.91    0.58
   3  -4  -1    9.27    1.21
   4  -4  -1    3.14    1.29
  -5  -3  -1    0.08    1.08
  -4  -3  -1   13.80    1.48
  -3  -3  -1   -0.25    0.48
  -2  -3  -1   19.11    0.77
  -1  -3  -1    0.54    0.22
   0  -3  -1   25.30    0.71
   1  -3  -1   -0.07    0.22
   2  -3  -1   18.11    1.34
   3  -3  -1   -0.21    0.43
   4  -3  -1   13.54    2.15
   5  -3  -1    0.14    0.91
  -5  -2  -1    9.41    1.38
  -4  -2  -1    1.30    0.51
  -3  -2  -1   19.82    1.03
  -2  -2  -1    4.66    0.41
  -1  -2  -1   33.87    0.72
   0  -2  -1    6.73    0.34
   1  -2  -1   34.12    0.86
   2  -2  -1    3.33    0.55
   3  -2  -1   20.58    1.22
   4  -2  -1    1.14    0.93
   5  -2  -1    8.98    1.90
  -6  -1  -1    5.47    1.16
  -5  -1  -1   -0.28    0.56
  -4  -1  -1   15.31    1.15
  -3  -1  -1    0.34    0.25
  -2  -1  -1   33.42    0.66
  -1  -1  -1    0.86    0.16
   0  -1  -1   53.95    0.79
   1  -1  -1    0.70    0.22
   2  -1  -1   32.42    1.07
   3  -1  -1    0.45    0.30
   4  -1  -1   15.31    1.90
   5  -1  -1    0.51    0.75
  -6   0  -1    1.27    0.80
  -5   0  -1   11.33    1.39
  -4   0  -1    2.49    0.54
  -3   0  -1   24.88    0.77
  -2   0  -1    7.50    0.45
  -1   0  -1   54.10    0.75
   0   0  -1   11.16    0.33
   1   0  -1   55.49    1.43
   2   0  -1    4.91    0.79
   3   0  -1   25.07    1.66
   4   0  -1    3.12    0.93
   5   0  -1    4.13   12.48
   6   0  -1   -0.05    2.52
  -5   1  -1    0.02    0.55
  -4   1  -1   16.15    1.15
  -3   1  -1    0.12    0.25
  -2   1  -1   31.94    0.90
  -1   1  -1    0.45    0.14
   0   1  -1   54.86    0.96
   1   1  -1    0.34    0.26
   2   1  -1   32.90    1.27
   3   1  -1    0.22    0.44
   4   1  -1    1.00   12.52
   5   1  -1   -0.12    2.33
   6   1  -1    0.01   18.94
  -5   2  -1    9.26    1.35
  -4   2  -1    1.31    0.57
  -3   2  -1   17.98    0.88
  -2   2  -1    4.44    0.42
  -1   2  -1   33.42    0.77
   0   2  -1    6.80    0.47
   1   2  -1   34.21    1.41
   2   2  -1    4.32    0.79
   3   2  -1   19.70    1.59
   4   2  -1    0.45    0.87
   5   2  -1   10.10    1.98
  -5   3  -1    0.85    0.77
  -4   3  -1   11.18    1.31
  -3   3  -1    0.08    0.41
  -2   3  -1   17.65    1.06
  -1   3  -1    0.12    0.18
   0   3  -1   25.51    0.97
   1   3  -1    0.00    0.22
   2   3  -1   17.51    1.42
   3   3  -1    0.31    0.49
   4   3  -1   10.06    1.79
   5   3  -1    4.04    6.31
  -4   4  -1    1.68    0.72
  -3   4  -1   11.29    1.25
  -2   4  -1    1.63    0.55
  -1   4  -1   14.99    1.08
   0   4  -1    2.43    0.50
   1   4  -1   16.45    1.04
   2   4  -1    0.54    0.66
   3   4  -1    9.80    1.70
   4   4  -1   10.10   19.73
  -3   5  -1    0.78    0.90
  -2   5  -1    9.17    1.76
  -1   5  -1    0.26    0.63
   0   5  -1    9.90    1.66
   1   5  -1    0.23    0.68
   2   5  -1    8.00    1.68
   3   5  -1   -0.81   20.19
  -1   6  -1    4.37    1.60
   0   6  -1    0.82    1.04
   1   6  -1    6.39    1.71
  -1  -6   0    0.60    0.90
   0  -6   0  112.02    3.76
  -3  -5   0   11.96    1.62
  -2  -5   0    0.06    0.93
  -1  -5   0   15.41    1.59
   0  -5   0    0.02    0.57
   1  -5   0   14.22    1.44
   2  -5   0    0.36    0.69
   3  -5   0    9.36    1.33
  -4  -4   0  140.05    4.12
  -3  -4   0    0.33    0.59
  -2  -4   0  281.52    4.09
  -1  -4   0   -0.40    0.27
   0  -4   0  369.81    4.50
   1  -4   0   -0.01    0.30
   2  -4   0  277.62    5.28
   3  -4   0    0.20    0.53
   4  -4   0  136.40    3.95
  -5  -3   0   12.31    2.55
  -4  -3   0   -0.58    0.38
  -3  -3   0   19.09    1.13
  -2  -3   0    0.19    0.24
  -1  -3   0   22.49    0.70
   0  -3   0   -0.28    0.16
   1  -3   0   21.37    0.87
   2  -3   0    0.02    0.35
   3  -3   0   19.99    1.53
   4  -3   0    0.19    0.76
   5  -3   0   10.98    2.15
  -5  -2   0    0.35    0.62
  -4  -2   0  266.48    4.12
  -3  -2   0    0.11    0.29
  -2  -2   0  679.41    5.45
  -1  -2   0   -0.40    0.13
   0  -2   0  958.59    6.68
   1  -2   0   -0.17    0.17
   2  -2   0  663.49    7.78
   3  -2   0    0.13    0.31
   4  -2   0  270.42    7.51
   5  -2   0   -0.11    0.86
  -6  -1   0    0.09    0.74
  -5  -1   0   16.44    1.68
  -4  -1   0    0.33    0.38
  -3  -1   0   22.69    0.81
  -2  -1   0   -0.14    0.18
  -1  -1   0   28.77    0.56
   0  -1   0   -0.60    0.12
   1  -1   0   28.90    0.61
   2  -1   0   -0.37    0.21
   3  -1   0   23.97    1.09
   4  -1   0    0.23    0.65
   5  -1   0   15.29    2.16
   6  -1   0   -0.86    0.88
  -6   0   0  101.81    5.41
  -5   0   0    0.09    0.40
  -4   0   0  345.52    4.87
  -3   0   0   -0.09    0.25
  -2   0   0  929.42    8.52
  -1   0   0   -0.22    0.21
   1   0   0   -0.50    0.19
   2   0   0  933.33    9.30
   3   0   0   -0.78    0.39
   4   0   0  355.99    8.03
   5   0   0    0.01    0.65
  -5   1   0   16.99    1.66
  -4   1   0    0.14    0.33
  -3   1   0   20.82    0.94
  -2   1   0   -0.46    0.17
  -1   1   0   28.21    0.62
   0   1   0   -0.79    0.14
   1   1   0   29.38    0.63
   2   1   0    0.23    0.28
   3   1   0   20.85    1.48
   4   1   0    0.14    0.56
   5   1   0   -8.25   13.39
   6   1   0    7.77   21.94
  -5   2   0   -0.17    0.59
  -4   2   0  266.96    5.18
  -3   2   0   -0.13    0.34
  -2   2   0  657.91    6.34
  -1   2   0    0.09    0.15
   0   2   0  950.21    9.28
   1   2   0   -0.18    0.12
   2   2   0  667.02    7.00
   3   2   0    0.24    0.43
   4   2   0  262.06    6.86
   5   2   0   -0.71    3.74
  -5   3   0   12.09    1.58
  -4   3   0    0.35    0.52
  -3   3   0   20.26    1.38
  -2   3   0    0.28    0.32
  -1   3   0   22.54    1.02
   0   3   0   -0.03    0.20
   1   3   0   21.75    0.88
   2   3   0   -0.46    0.32
   3   3   0   18.53    1.63
   4   3   0    0.90    4.31
   5   3   0   -1.42   13.80
  -4   4   0  137.16    3.93
  -3   4   0   -0.21    0.46
  -2   4   0  267.89    4.82
  -1   4   0   -0.19    0.47
   0   4   0  355.83    7.55
   1   4   0    0.47    0.51
   2   4   0  261.14    6.50
   3   4   0    0.44    0.65
  -3   5   0   12.25    2.18
  -2   5   0    0.19    0.71
  -1   5   0   11.51    1.88
   0   5   0   -0.46    0.60
   1   5   0   13.55    1.97
   2   5   0   -0.07    0.73
   3   5   0    3.19   17.06
  -1   6   0    0.67    0.90
   0   6   0  109.27    4.91
   1   6   0    0.32    1.06
  -1  -6   1    6.29    1.33
   0  -6   1    1.33    0.91
  -3  -5   1   -0.01    0.68
  -2  -5   1    7.70    1.77
  -1  -5   1    0.66    0.65
   0  -5   1   11.09    1.32
   1  -5   1    0.31    0.56
   2  -5   1    9.78    1.37
   3  -5   1    0.55    0.76
  -4  -4   1    2.24    0.84
  -3  -4   1   11.80    1.36
  -2  -4   1    1.68    0.64
  -1  -4   1   15.86    1.06
   0  -4   1    1.89    0.59
   1  -4   1   15.55    1.07
   2  -4   1    1.72    0.65
   3  -4   1   11.56    1.40
   4  -4   1    1.60    0.79
  -5  -3   1    0.83    0.80
  -4  -3   1   12.06    1.11
  -3  -3   1   -0.09    0.32
  -2  -3   1   19.16    0.77
  -1  -3   1    0.85    0.30
   0  -3   1   24.68    0.72
   1  -3   1    0.35    0.19
   2  -3   1   20.02    0.92
   3  -3   1    0.48    0.46
   4  -3   1   11.75    1.33
   5  -3   1    0.69    0.86
  -5  -2   1    8.65    1.32
  -4  -2   1    1.88    0.67
  -3  -2   1   17.47    1.01
  -2  -2   1    5.01    0.41
  -1  -2   1   34.78    0.58
   0  -2   1    6.44    0.35
   1  -2   1   34.28    0.91
   2  -2   1    4.40    0.43
   3  -2   1   17.47    1.33
   4  -2   1    3.18    1.18
   5  -2   1    9.63    1.99
  -6  -1   1    6.21    1.25
  -5  -1   1    0.33    0.48
  -4  -1   1   13.79    1.11
  -3  -1   1    0.28    0.24
  -2  -1   1   34.25    0.82
  -1  -1   1    0.63    0.15
   0  -1   1   55.00    0.71
   1  -1   1    0.70    0.17
   2  -1   1   35.27    1.22
   3  -1   1    0.33    0.37
   4  -1   1   17.51    2.03
   5  -1   1    0.74    0.77
   6  -1   1    4.13    1.40
  -6   0   1    2.51    1.33
  -5   0   1   10.65    1.08
  -4   0   1    2.82    0.54
  -3   0   1   24.27    1.05
  -2   0   1    6.06    0.52
  -1   0   1   54.37    0.94
   0   0   1   11.42    0.19
   1   0   1   52.86    1.08
   2   0   1    7.43    0.62
   3   0   1   24.33    1.03
   4   0   1    2.77    0.94
   5   0   1    8.58    1.63
   6   0   1   -0.58    2.38
  -6   1   1    7.69    1.79
  -5   1   1    0.20    0.54
  -4   1   1   15.71    1.12
  -3   1   1    0.40    0.29
  -2   1   1   32.22    0.92
  -1   1   1    0.60    0.23
   0   1   1   54.93    0.68
   1   1   1    0.67    0.16
   2   1   1   34.75    1.02
   3   1   1    0.42    0.43
   4   1   1   14.79    1.74
   5   1   1    0.27    1.94
  -5   2   1    9.34    1.34
  -4   2   1    2.78    0.73
  -3   2   1   19.51    1.23
  -2   2   1    4.07    0.59
  -1   2   1   33.76    1.06
   0   2   1    6.48    0.40
   1   2   1   33.95    0.86
   2   2   1    3.66    0.42
   3   2   1   18.39    1.35
   4   2   1   -0.30    3.64
   5   2   1   -4.28   10.61
  -5   3   1    0.55    0.67
  -4   3   1   12.24    1.46
  -3   3   1    0.63    0.44
  -2   3   1   20.64    1.14
  -1   3   1    0.40    0.28
   0   3   1   24.75    0.89
   1   3   1    0.18    0.23
   2   3   1   19.10    1.34
   3   3   1    0.45    0.53
   4   3   1   -7.11   12.11
   5   3   1   -2.47    5.62
  -4   4   1    1.49    1.01
  -3   4   1    8.03    1.59
  -2   4   1    1.21    0.72
  -1   4   1   16.78    1.82
   0   4   1    1.59    0.70
   1   4   1   16.05    1.71
   2   4   1    1.57    0.68
   3   4   1   -0.59    4.82
   4   4   1    1.78    6.80
  -3   5   1   -0.28    0.74
  -2   5   1    9.33    1.71
  -1   5   1    0.27    0.67
   0   5   1    8.29    1.54
   1   5   1    0.79    0.75
   2   5   1   -2.69   13.32
   3   5   1    9.26   24.15
  -1   6   1    9.17    2.01
   0   6   1    0.93    1.07
   1   6   1    2.14   19.25
   0  -6   2    3.95    1.13
  -3  -5   2   92.04    4.78
  -2  -5   2   17.01    1.64
  -1  -5   2  142.82    3.86
   0  -5   2   15.44    1.53
   1  -5   2  142.72    3.64
   2  -5   2   18.48    2.74
   3  -5   2   90.19    3.44
  -4  -4   2    5.99    1.08
  -3  -4   2   18.32    1.69
  -2  -4   2    4.31    0.79
  -1  -4   2   29.69    1.22
   0  -4   2    4.65    0.60
   1  -4   2   27.81    1.20
   2  -4   2    3.96    0.84
   3  -4   2   16.86    1.67
   4  -4   2    4.38    1.02
  -5  -3   2   85.76    3.50
  -4  -3   2   18.26    1.31
  -3  -3   2  226.66    3.65
  -2  -3   2   37.06    1.03
  -1  -3   2  436.15    4.78
   0  -3   2   48.80    1.05
   1  -3   2  437.22    4.01
   2  -3   2   38.12    1.20
   3  -3   2  230.12    4.67
   4  -3   2   18.66    1.73
   5  -3   2   94.32    4.87
  -5  -2   2   10.57    1.45
  -4  -2   2    4.81    0.91
  -3  -2   2   36.42    1.27
  -2  -2   2    2.69    0.33
  -1  -2   2   70.43    1.15
   0  -2   2    2.23    0.26
   1  -2   2   70.46    1.13
   2  -2   2    3.50    0.43
   3  -2   2   36.87    1.61
   4  -2   2    5.35    1.34
   5  -2   2   14.87    2.41
  -6  -1   2    7.40    1.85
  -5  -1   2  136.23    3.24
  -4  -1   2   29.16    1.37
  -3  -1   2  417.49    4.18
  -2  -1   2   71.06    1.22
  -1  -1   2  941.90    6.53
   0  -1   2  117.01    1.41
   1  -1   2  904.57    7.46
   2  -1   2   69.81    1.30
   3  -1   2  408.46    5.83
   4  -1   2   29.08    2.22
   5  -1   2  131.04    5.29
   6  -1   2    9.63    1.95
  -6   0   2    5.48    1.21
  -5   0   2   18.90    1.41
  -4   0   2    4.26    0.65
  -3   0   2   50.48    1.48
  -2   0   2    1.78    0.34
  -1   0   2  116.44    1.22
   0   0   2    0.71    0.10
   1   0   2  113.74    1.89
   2   0   2    2.15    0.42
   3   0   2   51.54    1.57
   4   0   2    2.43    0.91
   5   0   2   22.47    2.65
   6   0   2   -1.25    2.84
  -6   1   2    7.30    1.75
  -5   1   2  129.69    3.88
  -4   1   2   23.74    1.65
  -3   1   2  401.99    4.92
  -2   1   2   70.27    1.37
  -1   1   2  917.88    9.61
   0   1   2  116.62    1.60
   1   1   2  899.70    7.13
   2   1   2   69.62    1.18
   3   1   2  411.05    8.06
   4   1   2   31.30    2.17
  -5   2   2   13.67    1.56
  -4   2   2    3.67    0.89
  -3   2   2   36.68    1.68
  -2   2   2    3.05    0.52
  -1   2   2   69.01    1.60
   0   2   2    2.39    0.34
   1   2   2   67.66    1.32
   2   2   2    3.07    0.40
   3   2   2   36.32    1.29
   4   2   2    1.80    4.22
   5   2   2    6.23   14.76
  -5   3   2   92.71    3.41
  -4   3   2   16.01    1.67
  -3   3   2  224.92    4.54
  -2   3   2   36.99    1.52
  -1   3   2  417.87    7.98
   0   3   2   50.86    2.05
   1   3   2  426.00    5.14
   2   3   2   38.85    1.84
   4   3   2   -2.58   11.32
  -4   4   2    7.06    1.86
  -3   4   2   21.58    2.62
  -2   4   2    4.27    1.07
  -1   4   2   28.52    1.97
   0   4   2    3.52    0.99
   1   4   2   28.66    1.82
   2   4   2    2.93    0.89
   3   4   2    2.10   12.33
   4   4   2    0.65    6.28
  -3   5   2   88.43    4.45
  -2   5   2   12.94    2.12
  -1   5   2  142.17    5.04
   0   5   2   18.53    2.29
   1   5   2  139.40    4.78
   2   5   2   -0.63   13.85
  -1   6   2    8.88    2.01
   0   6   2    5.57    1.70
   0  -6   3   -0.04    0.82
  -3  -5   3    1.23    0.85
  -2  -5   3   22.65    1.90
  -1  -5   3    1.52    0.76
   0  -5   3   22.93    1.89
   1  -5   3    1.18    0.67
   2  -5   3   20.49    2.86
   3  -5   3    0.53    0.80
  -4  -4   3    1.14    0.78
  -3  -4   3   24.14    1.41
  -2  -4   3    0.10    0.43
  -1  -4   3   40.91    1.43
   0  -4   3    0.38    0.30
   1  -4   3   38.99    1.41
   2  -4   3    0.06    0.46
   3  -4   3   30.55    2.09
   4  -4   3    0.13    0.68
  -5  -3   3    1.33    0.81
  -4  -3   3   24.66    1.43
  -3  -3   3    2.55    0.53
  -2  -3   3   49.18    1.44
  -1  -3   3    2.59    0.46
   0  -3   3   64.30    1.40
   1  -3   3    2.78    0.37
   2  -3   3   48.64    1.41
   3  -3   3    1.79    0.62
   4  -3   3   27.23    2.09
   5  -3   3    0.73    1.13
  -5  -2   3   16.83    1.79
  -4  -2   3   -0.20    0.39
  -3  -2   3   49.51    1.47
  -2  -2   3    0.36    0.20
  -1  -2   3   86.72    1.34
   0  -2   3    0.55    0.17
   1  -2   3   86.59    1.33
   2  -2   3   -0.02    0.22
   3  -2   3   47.95    1.92
   4  -2   3    0.00    0.63
   5  -2   3   23.68    2.94
  -6  -1   3   15.22    1.69
  -5  -1   3    1.03    0.57
  -4  -1   3   37.29    1.55
  -3  -1   3    3.26    0.43
  -2  -1   3   86.68    1.40
  -1  -1   3    6.96    0.37
   0  -1   3  131.36    1.40
   1  -1   3    7.20    0.48
   2  -1   3   87.54    1.56
   3  -1   3    2.75    0.61
   4  -1   3   35.55    2.59
   5  -1   3    0.65    0.83
   6  -1   3   14.61    2.42
  -6   0   3    0.47    1.17
  -5   0   3   22.24    1.46
  -4   0   3    0.07    0.31
  -3   0   3   66.55    1.70
  -2   0   3    0.12    0.19
  -1   0   3  133.03    1.09
   0   0   3    1.28    0.14
   1   0   3  130.38    1.75
   2   0   3    0.99    0.35
   3   0   3   64.39    1.88
   4   0   3    0.36    0.70
   5   0   3   26.02    2.72
  -5   1   3    1.25    0.73
  -4   1   3   38.22    1.95
  -3   1   3    3.20    0.48
  -2   1   3   87.48    1.52
  -1   1   3    6.55    0.30
   0   1   3  129.92    2.57
   1   1   3    6.96    0.55
   2   1   3   87.16    1.34
   3   1   3    3.06    0.44
   4   1   3   37.74    2.48
   5   1   3    1.14    4.07
  -5   2   3   24.94    2.17
  -4   2   3    0.30    0.51
  -3   2   3   47.38    1.95
  -2   2   3    0.34    0.35
  -1   2   3   89.21    1.83
   0   2   3    0.17    0.21
   1   2   3   84.43    1.51
   2   2   3    0.34    0.21
   3   2   3   49.73    2.26
   4   2   3    2.22    4.98
   5   2   3    7.44   17.69
  -5   3   3    1.02    0.79
  -4   3   3   24.89    2.04
  -3   3   3    2.21    0.65
  -2   3   3   49.49    2.56
  -1   3   3    2.27    0.79
   0   3   3   63.10    2.33
   1   3   3    2.34    0.42
   2   3   3   49.36    1.39
   3   3   3    1.41    4.26
   5   3   3    0.22    6.00
  -4   4   3    0.55    1.10
  -3   4   3   30.60    2.54
  -2   4   3   -0.32    0.50
  -1   4   3   38.84    2.36
   0   4   3    0.04    0.46
   1   4   3   38.43    2.06
   2   4   3   -1.90    4.32
   3   4   3   -4.27   14.85
   4   4   3   -3.88    5.80
  -3   5   3    0.87    1.05
  -2   5   3   25.45    2.94
  -1   5   3    1.25    0.84
   0   5   3   24.29    2.57
   1   5   3   -1.91   12.99
   2   5   3    0.26   12.69
   3   5   3    3.13   21.99
  -1   6   3   15.59    2.46
  -3  -5   4   -0.10    0.72
  -2  -5   4   27.14    1.90
  -1  -5   4    1.16    0.75
   0  -5   4   28.43    2.07
   1  -5   4    2.05    0.77
   2  -5   4   24.71    3.29
   3  -5   4    0.83    0.82
  -4  -4   4   45.23    1.98
  -3  -4   4   31.23    1.56
  -2  -4   4   94.29    2.89
  -1  -4   4   47.71    1.57
   0  -4   4  124.36    2.46
   1  -4   4   48.53    1.98
   2  -4   4   94.74    3.04
   3  -4   4   29.18    2.27
   4  -4   4   46.87    2.55
  -5  -3   4   -0.15    0.72
  -4  -3   4   31.58    1.95
  -3  -3   4    3.50    0.61
  -2  -3   4   60.94    1.65
  -1  -3   4   14.48    0.95
   0  -3   4   79.07    1.40
   1  -3   4   13.79    0.71
   2  -3   4   59.70    1.62
   3  -3   4    5.07    0.98
   4  -3   4   28.97    2.25
   5  -3   4    0.62    1.17
  -5  -2   4   20.91    1.93
  -4  -2   4   86.48    2.97
  -3  -2   4   63.44    1.70
  -2  -2   4  226.02    2.58
  -1  -2   4  110.43    1.62
   0  -2   4  322.68    3.02
   1  -2   4  110.97    1.57
   2  -2   4  224.62    3.06
   3  -2   4   62.83    2.20
   4  -2   4   92.35    2.94
   5  -2   4   21.48    2.75
  -5  -1   4    1.57    0.57
  -4  -1   4   46.37    1.72
  -3  -1   4   12.07    0.74
  -2  -1   4  111.11    1.28
  -1  -1   4   43.10    0.64
   0  -1   4  163.62    1.74
   1  -1   4   40.38    1.00
   2  -1   4  108.11    1.93
   3  -1   4   11.86    1.11
   4  -1   4   44.87    2.91
   5  -1   4    1.22    0.97
  -5   0   4   24.49    2.07
  -4   0   4  115.03    2.64
  -3   0   4   80.33    1.89
  -2   0   4  321.82    3.08
  -1   0   4  165.93    1.37
   0   0   4  527.25    3.56
   1   0   4  161.63    2.16
   2   0   4  319.38    4.52
   3   0   4   82.70    2.20
   4   0   4  119.02    4.52
   5   0   4   31.10    2.63
   6   0   4   35.83    3.57
  -5   1   4    1.79    0.76
  -4   1   4   48.99    2.20
  -3   1   4   12.33    0.80
  -2   1   4  107.31    1.78
  -1   1   4   42.76    0.73
   0   1   4  161.31    1.94
   1   1   4   40.41    1.17
   2   1   4  110.63    2.32
   3   1   4   15.58    1.05
   4   1   4   49.00    2.89
   5   1   4   -0.31    0.84
  -5   2   4   24.51    2.12
  -4   2   4   92.12    3.09
  -3   2   4   64.29    2.25
  -2   2   4  227.25    3.94
  -1   2   4  112.01    2.03
   0   2   4  324.21    4.10
   1   2   4  106.58    1.81
   2   2   4  225.60    4.94
   3   2   4   65.99    2.79
  -5   3   4    1.08    1.05
  -4   3   4   28.47    1.97
  -3   3   4    4.75    1.35
  -2   3   4   60.20    2.97
  -1   3   4   14.98    1.70
   0   3   4   81.94    1.94
   1   3   4   13.58    0.76
   2   3   4   61.03    2.40
   3   3   4   -0.66    3.40
   4   3   4    1.43   15.75
   5   3   4   -1.96    6.02
  -4   4   4   46.79    3.61
  -3   4   4   30.59    2.66
  -2   4   4   89.06    3.87
  -1   4   4   49.08    2.65
   0   4   4  121.53    3.91
   1   4   4   48.12    2.34
   3   4   4    0.82   13.30
  -3   5   4    0.73    0.98
  -2   5   4   26.84    2.88
  -1   5   4    1.44    1.06
   0   5   4   33.84    2.45
   1   5   4    0.22    5.29
   2   5   4    0.60   15.97
   3   5   4   -3.06   19.08
  -3  -5   5    5.67    1.61
  -2  -5   5   30.15    2.00
  -1  -5   5    7.47    0.96
   0  -5   5   36.24    2.21
   1  -5   5    7.63    1.22
   2  -5   5   26.59    3.40
  -4  -4   5    0.47    0.61
  -3  -4   5   37.26    1.67
  -2  -4   5    3.16    0.78
  -1  -4   5   54.34    1.71
   0  -4   5    2.32    0.52
   1  -4   5   57.41    2.21
   2  -4   5    2.72    0.61
   3  -4   5   39.00    2.22
   4  -4   5    2.36    0.96
  -5  -3   5    5.02    1.69
  -4  -3   5   35.50    2.06
  -3  -3   5    8.77    0.89
  -2  -3   5   73.75    1.88
  -1  -3   5   14.56    0.95
   0  -3   5   92.67    1.97
   1  -3   5   13.61    0.75
   2  -3   5   72.40    1.88
   3  -3   5   10.20    1.32
   4  -3   5   39.78    2.23
  -5  -2   5   27.05    2.25
  -4  -2   5    2.54    0.72
  -3  -2   5   71.25    1.84
  -2  -2   5    7.80    0.69
  -1  -2   5  119.30    1.79
   0  -2   5    8.82    0.48
   1  -2   5  122.23    2.11
   2  -2   5    6.49    0.65
   3  -2   5   72.48    2.42
   4  -2   5    3.51    0.84
   5  -2   5   33.31    3.51
  -5  -1   5    7.75    0.97
  -4  -1   5   51.33    1.85
  -3  -1   5   12.80    0.79
  -2  -1   5  121.92    1.46
  -1  -1   5   21.38    0.50
   0  -1   5  176.30    1.94
   1  -1   5   21.37    0.81
   2  -1   5  121.19    2.17
   3  -1   5   13.62    1.25
   4  -1   5   58.21    3.43
   5  -1   5    7.54    1.63
  -5   0   5   31.21    2.15
  -4   0   5    2.84    0.54
  -3   0   5   93.64    2.08
  -2   0   5    8.97    0.55
  -1   0   5  177.12    1.52
   0   0   5   12.61    0.47
   1   0   5  172.89    2.39
   2   0   5    8.92    0.89
   3   0   5   97.11    2.57
   4   0   5    5.49    1.32
   5   0   5   31.52    2.69
  -5   1   5    8.97    1.38
  -4   1   5   55.99    2.43
  -3   1   5   12.51    1.24
  -2   1   5  124.66    1.97
  -1   1   5   21.17    0.55
   0   1   5  175.65    2.14
   1   1   5   21.72    0.93
   2   1   5  119.45    2.60
   3   1   5   13.32    1.18
   4   1   5   60.89    3.29
   5   1   5    7.55    1.73
  -5   2   5   31.13    2.22
  -4   2   5    2.05    0.75
  -3   2   5   74.33    2.46
  -2   2   5    6.19    0.80
  -1   2   5  122.32    2.13
   0   2   5    9.02    0.64
   1   2   5  115.77    3.18
   2   2   5    6.84    1.02
   3   2   5   71.24    3.09
   4   2   5    3.25    1.12
  -5   3   5    3.19   13.62
  -4   3   5   43.30    3.32
  -3   3   5    8.31    1.86
  -2   3   5   74.82    3.45
  -1   3   5   12.32    1.53
   0   3   5   95.88    2.19
   1   3   5   12.34    1.31
   2   3   5   70.14    2.78
   3   3   5    0.90    4.28
  -4   4   5    2.67    1.27
  -3   4   5   36.83    2.98
  -2   4   5    2.95    1.16
  -1   4   5   57.00    2.94
   0   4   5    4.65    1.18
   1   4   5   54.61    2.62
   2   4   5    0.22    4.84
   3   4   5    4.40   17.33
   4   4   5   -0.81    7.33
  -3   5   5    5.93    1.85
  -2   5   5   28.68    3.21
  -1   5   5    5.95    1.54
   0   5   5    5.91   17.64
   1   5   5   -0.47    5.14
   2   5   5   -1.21   15.02
   3   5   5    0.48    7.78
  -2  -5   6   15.76    1.68
  -1  -5   6   26.34    1.83
   0  -5   6   15.92    1.68
   1  -5   6   28.20    2.20
   2  -5   6   17.19    2.94
  -4  -4   6    6.01    1.69
  -3  -4   6   15.74    1.29
  -2  -4   6   18.10    1.60
  -1  -4   6   25.14    1.36
   0  -4   6   27.22    1.38
   1  -4   6   25.58    1.35
   2  -4   6   18.42    1.32
   3  -4   6   18.06    1.83
   4  -4   6    6.26    1.23
  -4  -3   6   15.32    1.64
  -3  -3   6   41.04    1.60
  -2  -3   6   33.62    1.32
  -1  -3   6   72.84    1.85
   0  -3   6   43.28    1.40
   1  -3   6   75.58    1.56
   2  -3   6   33.81    1.34
   3  -3   6   41.68    2.10
   4  -3   6   18.98    1.87
  -5  -2   6   14.68    1.75
  -4  -2   6   11.31    1.37
  -3  -2   6   31.33    1.29
  -2  -2   6   55.08    1.53
  -1  -2   6   54.58    1.22
   0  -2   6   87.74    1.41
   1  -2   6   53.04    1.41
   2  -2   6   55.41    1.58
   3  -2   6   33.13    1.33
   4  -2   6   19.42    1.81
   5  -2   6   19.10    2.76
  -5  -1   6   20.10    1.56
  -4  -1   6   25.26    1.40
  -3  -1   6   74.42    1.61
  -2  -1   6   55.86    1.00
  -1  -1   6  157.76    1.64
   0  -1   6   77.23    1.26
   1  -1   6  150.21    2.37
   2  -1   6   55.50    1.49
   3  -1   6   74.60    2.46
   4  -1   6   29.57    1.82
   5  -1   6   24.22    2.91
  -5   0   6   14.64    1.66
  -4   0   6   23.57    1.30
  -3   0   6   40.89    1.40
  -2   0   6   85.92    1.47
  -1   0   6   76.36    0.97
   0   0   6  137.70    2.02
   1   0   6   72.67    1.54
   2   0   6   83.40    2.32
   3   0   6   40.08    1.77
   4   0   6   24.09    2.69
   5   0   6   18.49    2.63
  -5   1   6   23.44    2.07
  -4   1   6   24.80    1.76
  -3   1   6   79.54    2.49
  -2   1   6   54.59    1.29
  -1   1   6  150.95    1.77
   0   1   6   76.33    1.32
   1   1   6  153.00    2.86
   2   1   6   54.50    1.83
   3   1   6   77.06    2.36
   4   1   6   28.06    2.42
   5   1   6   24.06    2.87
  -5   2   6   13.55    1.67
  -4   2   6   17.86    1.75
  -3   2   6   32.15    1.70
  -2   2   6   56.64    1.79
  -1   2   6   53.07    1.67
   0   2   6   84.00    1.89
   1   2   6   57.03    2.23
   2   2   6   56.02    2.45
   3   2   6   32.59    2.23
   4   2   6   18.06    2.33
  -4   3   6   17.94    2.82
  -3   3   6   46.63    3.23
  -2   3   6   31.74    2.49
  -1   3   6   74.51    3.22
   0   3   6   42.19    1.46
   1   3   6   77.01    2.90
   2   3   6   36.36    2.12
   3   3   6   40.89    2.52
  -4   4   6   -0.64   17.47
  -3   4   6   17.04    2.75
  -2   4   6   15.37    2.39
  -1   4   6   26.21    2.15
   1   4   6   25.33    1.89
   2   4   6   -4.71   10.17
   3   4   6    0.14   16.76
   4   4   6    1.61    8.62
  -2   5   6   19.87    2.56
  -1   5   6    1.07   14.11
   0   5   6    0.34    6.18
   1   5   6   -2.55   17.55
   2   5   6    1.80    6.87
  -2  -5   7   13.29    1.60
  -1  -5   7   16.96    1.67
   0  -5   7   18.30    1.82
   1  -5   7   17.98    1.92
   2  -5   7   15.99    3.00
  -3  -4   7   19.37    1.44
  -2  -4   7   37.43    2.01
  -1  -4   7   31.28    1.51
   0  -4   7   44.62    1.67
   1  -4   7   32.36    2.02
   2  -4   7   38.55    2.15
   3  -4   7   22.36    2.16
  -4  -3   7   17.55    1.75
  -3  -3   7   28.01    1.45
  -2  -3   7   38.89    1.47
  -1  -3   7   45.21    1.53
   0  -3   7   50.77    1.59
   1  -3   7   47.12    1.48
   2  -3   7   40.42    1.52
   3  -3   7   26.70    2.12
   4  -3   7   19.95    1.98
  -5  -2   7   13.59    1.63
  -4  -2   7   39.31    2.14
  -3  -2   7   36.62    1.42
  -2  -2   7   66.20    1.75
  -1  -2   7   67.99    1.43
   0  -2   7   87.55    1.51
   1  -2   7   67.51    1.67
   2  -2   7   68.56    1.82
   3  -2   7   39.96    1.51
   4  -2   7   38.77    2.09
   5  -2   7   18.23    2.72
  -5  -1   7   14.86    1.35
  -4  -1   7   30.31    1.55
  -3  -1   7   47.65    1.58
  -2  -1   7   66.16    1.17
  -1  -1   7   84.63    1.21
   0  -1   7   89.00    1.46
   1  -1   7   81.34    1.77
   2  -1   7   67.68    1.75
   3  -1   7   47.26    2.05
   4  -1   7   32.13    1.81
   5  -1   7   19.77    2.72
  -5   0   7   15.95    1.79
  -4   0   7   47.39    2.21
  -3   0   7   50.82    1.56
  -2   0   7   89.24    1.33
  -1   0   7   90.48    1.14
   0   0   7  121.93    2.00
   1   0   7   89.45    1.83
   2   0   7   87.84    2.50
   3   0   7   48.63    2.04
   4   0   7   42.10    3.03
   5   0   7   19.33    2.65
  -5   1   7   16.32    1.75
  -4   1   7   34.04    1.95
  -3   1   7   46.75    1.96
  -2   1   7   67.39    1.50
  -1   1   7   85.28    1.51
   0   1   7   89.19    1.50
   1   1   7   80.35    2.12
   2   1   7   66.14    2.12
   3   1   7   48.41    1.99
   4   1   7   35.19    2.74
   5   1   7   20.15    2.82
  -5   2   7   12.16    2.60
  -4   2   7   40.69    2.18
  -3   2   7   39.18    1.84
  -2   2   7   70.81    3.46
  -1   2   7   66.93    1.93
   0   2   7   86.46    1.98
   1   2   7   65.21    2.57
   2   2   7   68.70    2.88
   3   2   7   40.09    2.55
   4   2   7   43.45    3.07
  -4   3   7   22.20    3.19
  -3   3   7   31.32    3.26
  -2   3   7   38.40    2.77
  -1   3   7   47.92    2.72
   0   3   7   48.10    2.37
   1   3   7   50.55    2.45
   2   3   7   38.29    2.32
   3   3   7   27.26    2.19
  -3   4   7   20.22    2.77
  -2   4   7   42.08    3.18
   1   4   7   35.87    2.31
   2   4   7   42.14    2.61
   3   4   7   -3.73   13.21
  -2   5   7    8.02    8.19
  -1   5   7    1.38   13.62
   0   5   7    4.76   15.39
   1   5   7   -2.50   13.46
   2   5   7    5.47   21.09
  -1  -5   8   11.50    1.40
   0  -5   8    5.33    1.18
   1  -5   8   11.09    1.55
  -3  -4   8    6.25    1.15
  -2  -4   8   27.52    1.92
  -1  -4   8    8.16    0.95
   0  -4   8   33.69    1.59
   1  -4   8    8.85    1.28
   2  -4   8   24.55    2.05
   3  -4   8    8.08    1.31
  -4  -3   8    7.37    1.22
  -3  -3   8   17.44    1.34
  -2  -3   8   10.18    0.99
  -1  -3   8   40.78    1.51
   0  -3   8   13.43    1.09
   1  -3   8   38.04    1.93
   2  -3   8   10.01    0.94
   3  -3   8   22.31    2.00
   4  -3   8    6.78    1.26
  -4  -2   8   18.14    1.70
  -3  -2   8   10.68    0.97
  -2  -2   8   58.60    1.72
  -1  -2   8   16.32    1.06
   0  -2   8   84.19    1.55
   1  -2   8   16.72    0.99
   2  -2   8   60.61    1.80
   3  -2   8   11.50    1.06
   4  -2   8   28.25    2.25
  -5  -1   8    7.93    1.31
  -4  -1   8   10.72    1.08
  -3  -1   8   34.90    1.42
  -2  -1   8   15.58    0.95
  -1  -1   8   82.24    1.27
   0  -1   8   21.94    0.81
   1  -1   8   81.70    1.87
   2  -1   8   16.79    1.14
   3  -1   8   36.96    1.91
   4  -1   8   11.30    1.42
   5  -1   8   10.36    2.13
  -5   0   8    5.99    1.19
  -4   0   8   31.30    2.06
  -3   0   8   12.88    1.02
  -2   0   8   85.01    1.37
  -1   0   8   22.91    0.61
   0   0   8  117.61    2.10
   1   0   8   20.02    0.97
   2   0   8   81.60    2.50
   3   0   8   11.73    1.33
   4   0   8   32.93    2.76
   5   0   8    5.49    1.68
  -5   1   8    9.47    1.42
  -4   1   8    7.52    1.15
  -3   1   8   37.52    1.79
  -2   1   8   18.13    1.13
  -1   1   8   82.74    1.36
   0   1   8   23.66    0.78
   1   1   8   80.69    2.23
   2   1   8   15.79    1.36
   3   1   8   36.29    1.84
   4   1   8    8.03    1.75
   5   1   8    8.21    2.02
  -4   2   8   26.88    3.33
  -3   2   8   10.20    2.01
  -2   2   8   60.64    3.29
  -1   2   8   18.33    1.16
   0   2   8   84.04    3.03
   1   2   8   16.46    1.37
   2   2   8   61.96    2.18
   3   2   8   11.11    1.75
   4   2   8   26.58    2.98
  -4   3   8    5.09    1.94
  -3   3   8   23.98    3.05
  -2   3   8    9.78    1.93
   0   3   8   11.50    1.52
   1   3   8   38.02    2.27
   2   3   8   11.18    1.67
   3   3   8   20.31    2.34
   4   3   8   -0.45    6.22
  -3   4   8    6.77    1.88
  -2   4   8   21.84    3.02
  -1   4   8    0.87    5.25
   1   4   8    9.22    1.58
   2   4   8   20.75    2.39
   3   4   8    0.69    6.05
  -1   5   8    0.07    5.13
   0   5   8   -1.10    5.82
   1   5   8    1.41    6.60
  -1  -5   9   44.50    3.32
   0  -5   9    3.00    1.00
  -3  -4   9    1.63    1.35
  -2  -4   9   40.43    2.20
  -1  -4   9    0.78    0.65
   0  -4   9   51.84    1.92
   1  -4   9    2.14    0.92
   2  -4   9   39.27    2.39
  -3  -3   9   56.02    2.07
  -2  -3   9    3.46    0.84
  -1  -3   9   80.97    2.21
   0  -3   9    4.63    0.71
   1  -3   9   84.71    2.96
   2  -3   9    3.94    0.73
   3  -3   9   57.57    2.68
   4  -3   9    1.05    0.82
  -4  -2   9   35.60    2.14
  -3  -2   9    3.88    0.68
  -2  -2   9   78.85    2.07
  -1  -2   9    4.88    0.68
   0  -2   9  102.80    2.36
   1  -2   9    5.37    0.68
   2  -2   9   77.31    2.14
   3  -2   9    2.17    0.62
   4  -2   9   33.67    2.52
  -4  -1   9    1.45    0.55
  -3  -1   9   80.28    2.22
  -2  -1   9    5.53    0.65
  -1  -1   9  132.74    1.97
   0  -1   9    7.31    0.58
   1  -1   9  130.42    2.52
   2  -1   9    5.82    0.75
   3  -1   9   85.88    2.96
   4  -1   9    3.56    0.91
  -5   0   9    2.33    1.20
  -4   0   9   46.40    2.34
  -3   0   9    4.00    0.60
  -2   0   9  103.17    1.61
  -1   0   9    7.99    0.47
   0   0   9  133.84    2.39
   1   0   9    5.85    0.69
   2   0   9   95.99    2.87
   3   0   9    3.42    0.84
   4   0   9   44.42    2.36
   5   0   9    0.05    5.82
  -5   1   9   39.94    3.42
  -4   1   9    2.09    0.78
  -3   1   9   85.24    2.70
  -2   1   9    7.08    0.86
  -1   1   9  132.01    1.86
   0   1   9    5.67    0.75
   1   1   9  124.93    2.99
   2   1   9    4.23    0.80
   3   1   9   87.08    2.92
   4   1   9    0.16    0.81
  -4   2   9   39.27    3.33
  -3   2   9    1.87    1.28
  -2   2   9   75.58    3.68
  -1   2   9    3.90    0.69
   0   2   9  101.71    3.53
   1   2   9    6.14    1.14
   2   2   9   79.97    2.63
   3   2   9    2.18    0.96
   4   2   9   39.23    3.22
  -4   3   9    1.68    1.41
  -3   3   9   59.84    4.02
  -2   3   9    2.54    1.37
   0   3   9    3.08    0.93
   1   3   9   85.87    3.55
   2   3   9    1.54    0.85
   3   3   9   61.35    3.55
  -3   4   9    1.90    1.28
  -2   4   9    0.67   17.47
  -1   4   9   -2.61    5.00
   0   4   9   47.41    2.87
   1   4   9    3.25    1.14
   2   4   9   39.76    2.89
   0   5   9    0.78    6.51
  -2  -4  10    7.86    1.33
  -1  -4  10    7.23    1.22
   0  -4  10   11.97    1.18
   1  -4  10    7.77    1.36
   2  -4  10    7.92    1.32
  -3  -3  10   24.07    1.63
  -2  -3  10    8.68    1.21
  -1  -3  10   44.45    1.74
   0  -3  10   11.37    1.10
   1  -3  10   47.76    2.33
   2  -3  10   10.19    1.08
   3  -3  10   29.61    2.16
  -4  -2  10    6.89    1.25
  -3  -2  10    7.27    1.12
  -2  -2  10   21.96    1.30
  -1  -2  10   11.12    1.01
   0  -2  10   30.41    1.37
   1  -2  10   11.30    0.97
   2  -2  10   21.95    1.45
   3  -2  10    9.77    1.12
   4  -2  10   10.78    1.52
  -4  -1  10    7.74    1.17
  -3  -1  10   46.96    2.12
  -2  -1  10   13.98    1.08
  -1  -1  10   91.52    2.16
   0  -1  10   15.94    0.93
   1  -1  10   87.80    2.13
   2  -1  10   11.97    1.08
   3  -1  10   50.12    2.36
   4  -1  10    8.34    1.27
  -4   0  10    9.43    1.37
  -3   0  10   10.57    1.23
  -2   0  10   31.46    0.93
  -1   0  10   14.80    0.76
   0   0  10   45.99    1.43
   1   0  10   16.15    1.03
   2   0  10   28.99    1.77
   3   0  10    9.91    1.30
   4   0  10   12.51    1.56
  -4   1  10    7.92    1.26
  -3   1  10   50.18    2.15
  -2   1  10   11.71    1.66
  -1   1  10   89.65    1.92
   0   1  10   14.87    1.22
   1   1  10   88.07    2.60
   2   1  10   13.85    1.43
   3   1  10   50.39    2.36
   4   1  10    4.57    1.55
  -4   2  10    6.96    1.97
  -3   2  10   12.03    2.38
  -2   2  10   20.87    2.41
  -1   2  10   11.33    1.53
   0   2  10   28.67    1.96
   1   2  10   13.55    1.65
   2   2  10   22.94    1.87
   3   2  10    8.73    1.82
   4   2  10    7.46    1.92
  -3   3  10   25.04    3.18
  -2   3  10   -6.38   15.35
   0   3  10    9.63    1.58
   1   3  10   44.79    2.76
   2   3  10   11.74    1.91
   3   3  10   28.04    2.98
  -2   4  10   -0.14    4.87
  -1   4  10   -0.20    4.68
   0   4  10    9.12    1.67
   1   4  10    6.24    1.56
   2   4  10    8.37    1.81
  -1  -4  11    1.20    0.83
   0  -4  11   36.16    1.94
   1  -4  11    1.50    0.90
   2  -4  11   34.84    3.52
  -3  -3  11   23.54    2.15
  -2  -3  11    2.81    0.88
  -1  -3  11   41.34    2.20
   0  -3  11    2.11    0.68
   1  -3  11   43.19    2.39
   2  -3  11    2.85    0.94
   3  -3  11   26.42    2.30
  -3  -2  11    2.27    0.78
  -2  -2  11   54.46    2.39
  -1  -2  11    3.93    0.65
   0  -2  11   66.51    2.08
   1  -2  11    4.17    0.68
   2  -2  11   54.22    1.94
   3  -2  11    1.75    0.70
   4  -2  11   36.35    4.50
  -4  -1  11    0.05    0.99
  -3  -1  11   38.57    1.97
  -2  -1  11    3.87    0.66
  -1  -1  11   69.14    1.95
   0  -1  11    5.39    0.69
   1  -1  11   69.36    1.99
   2  -1  11    4.61    0.75
   3  -1  11   43.73    2.29
   4  -1  11    2.70    0.92
  -4   0  11   41.95    2.36
  -3   0  11    4.48    0.92
  -2   0  11   67.04    1.63
  -1   0  11    5.85    0.69
   0   0  11   82.37    2.06
   1   0  11    5.44    0.83
   2   0  11   65.66    2.52
   3   0  11    4.43    0.93
   4   0  11   36.89    2.38
  -4   1  11    1.34    1.27
  -3   1  11   43.03    3.25
  -2   1  11    4.75    1.26
  -1   1  11   65.94    2.12
   0   1  11    5.18    0.85
   1   1  11   66.17    2.39
   2   1  11    3.62    0.83
   3   1  11   39.58    2.21
   4   1  11    1.78    1.09
  -3   2  11    3.26    1.28
  -1   2  11    3.65    1.07
   0   2  11   60.43    2.97
   1   2  11    1.52    0.84
   2   2  11   54.38    2.42
   3   2  11    0.41    0.94
  -3   3  11   17.64   11.11
  -2   3  11    1.28    6.08
   0   3  11    2.21    0.94
   1   3  11   39.22    2.70
   2   3  11    2.61    1.15
   3   3  11   26.49    3.02
  -1   4  11    0.43    4.83
   0   4  11   36.13    2.77
   1   4  11    1.83    1.08
   2   4  11   31.94    3.65
   0  -4  12   14.99    2.77
  -2  -3  12   12.92    1.64
  -1  -3  12   13.04    1.52
   0  -3  12   15.98    1.82
   1  -3  12   11.11    1.55
   2  -3  12   15.05    1.87
  -3  -2  12   14.89    1.63
  -2  -2  12   37.90    2.30
  -1  -2  12   21.19    1.50
   0  -2  12   46.19    2.36
   1  -2  12   21.32    2.10
   2  -2  12   37.11    1.78
   3  -2  12   15.59    1.44
  -3  -1  12   11.47    1.36
  -2  -1  12   22.16    1.89
  -1  -1  12   24.85    1.35
   0  -1  12   29.13    1.41
   1  -1  12   24.14    1.39
   2  -1  12   20.59    1.51
   3  -1  12   14.46    1.68
  -4   0  12   18.23    2.59
  -3   0  12   18.90    1.66
  -2   0  12   50.14    2.03
  -1   0  12   25.69    1.24
   0   0  12   66.98    1.97
   1   0  12   28.17    1.70
   2   0  12   51.39    2.33
   3   0  12   19.03    1.87
   4   0  12   18.59    2.76
  -3   1  12   12.41    2.20
  -2   1  12   18.98   10.12
  -1   1  12   26.17    1.54
   0   1  12   24.89    1.55
   1   1  12   23.55    1.65
   2   1  12   20.42    1.85
   3   1  12    9.46    1.45
  -3   2  12    0.35   16.35
  -1   2  12   19.50    2.12
   0   2  12   47.31    2.76
   1   2  12   20.78    2.21
   2   2  12   40.57    2.87
   3   2  12   14.57    2.49
  -2   3  12   -1.35   17.80
  -1   3  12    3.98   18.59
   0   3  12   15.05    2.01
   1   3  12   17.47    2.28
   2   3  12   10.30    1.92
   0   4  12    5.81   22.01
  -1  -3  13   14.63    1.71
   0  -3  13    7.96    1.42
   1  -3  13   11.67    1.72
  -2  -2  13   12.86    1.61
  -1  -2  13   12.48    1.27
   0  -2  13   15.09    1.76
   1  -2  13   14.29    1.69
   2  -2  13   10.70    1.19
  -3  -1  13   16.65    1.68
  -2  -1  13   10.68    1.49
  -1  -1  13   21.74    1.92
   0  -1  13   16.79    1.73
   1  -1  13   24.09    1.45
   2  -1  13   13.64    1.60
   3  -1  13   14.33    1.70
  -1   0  13   14.79    1.15
   0   0  13   21.22    1.48
   1   0  13   13.86    1.41
   2   0  13   14.69    1.60
   3   0  13   12.42    1.60
  -3   1  13   -0.78   13.79
  -2   1  13   14.59    9.53
  -1   1  13   22.68    1.96
   0   1  13   12.11    1.31
   1   1  13   22.32    1.87
   2   1  13   10.59    1.43
   3   1  13   15.32    1.80
  -2   2  13    8.93    6.41
  -1   2  13   10.84    1.74
   0   2  13   16.08    2.12
   1   2  13   12.96    1.85
   2   2  13   13.84    2.14
  -2   3  13   -0.48   18.51
   0   3  13    5.76    1.36
   1   3  13   13.30    2.16
  -2  -2  14   18.38    2.99
  -1  -2  14   22.32    3.18
   0  -2  14   23.86    2.23
   1  -2  14   24.21    2.27
  -2  -1  14   20.29    2.62
  -1  -1  14   17.29    1.84
   0  -1  14   28.88    2.36
   1  -1  14   16.60    1.38
   2  -1  14   23.75    2.10
  -1   0  14   29.12    2.98
   0   0  14   37.87    2.03
   1   0  14   27.77    1.91
   2   0  14   28.82    2.31
  -1   1  14   21.23    2.28
   0   1  14   30.79    1.93
   1   1  14   17.41    1.78
   2   1  14   21.21    2.06
  -2   2  14   19.42   12.06
  -1   2  14   23.62    2.60
   0   2  14   29.88    2.46
   1   2  14   21.01    2.61
   0  -2  15    4.33    1.69
  -1  -1  15    2.74    1.67
   0  -1  15    7.88    1.44
   1  -1  15    2.59    1.06
  -1   0  15   12.11    2.12
   0   0  15    4.76    0.97
   1   0  15    8.21    1.22
  -1   1  15    2.51    1.03
   0   1  15    8.20    1.21
   1   1  15    2.20    0.84
   0   2  15   -2.53    5.87
   0   0   0    0.00    0.00
;
_shelx_hkl_checksum              12336
loop_
_space_group_symop_operation_xyz
'x, y, z'
'-x+1/2, -y+1/2, z'
'-y+1/2, x, z'
'y, -x+1/2, z'
'-x, y+1/2, -z'
'x+1/2, -y, -z'
'y+1/2, x+1/2, -z'
'-y, -x, -z'
'-x, -y, -z'
'x-1/2, y-1/2, -z'
'y-1/2, -x, -z'
'-y, x-1/2, -z'
'x, -y-1/2, z'
'-x-1/2, y, z'
'-y-1/2, -x-1/2, z'
'y, x, z'
loop_
_atom_site_label
_atom_site_type_symbol
_atom_site_fract_x
_atom_site_fract_y
_atom_site_fract_z
_atom_site_U_iso_or_equiv
_atom_site_adp_type
_atom_site_occupancy
_atom_site_site_symmetry_order
_atom_site_calc_flag
_atom_site_refinement_flags_posn
_atom_site_refinement_flags_adp
_atom_site_refinement_flags_occupancy
_atom_site_disorder_assembly
_atom_site_disorder_group
Pr Pr 0.2500 0.2500 0.22659(4) 0.00990(14) Uani 1 8 d S T P . .
Ag Ag 0.7500 0.2500 0.5000 0.01492(19) Uani 0.5 8 d S T P . .
Zn Zn 0.7500 0.2500 0.5000 0.01492(19) Uani 0.5 8 d S T P . .
As1 As 0.2500 0.2500 0.67010(8) 0.0130(2) Uani 1 8 d S T P . .
As2 As 0.7500 0.2500 0.0000 0.0173(2) Uani 1 8 d S T P . .
loop_
_atom_site_aniso_label
_atom_site_aniso_U_11
_atom_site_aniso_U_22
_atom_site_aniso_U_33
_atom_site_aniso_U_23
_atom_site_aniso_U_13
_atom_site_aniso_U_12
Pr 0.00897(16) 0.00897(16) 0.0117(2) 0.000 0.000 0.000
Ag 0.0159(3) 0.0159(3) 0.0130(3) 0.000 0.000 0.000
Zn 0.0159(3) 0.0159(3) 0.0130(3) 0.000 0.000 0.000
As1 0.0100(3) 0.0100(3) 0.0191(4) 0.000 0.000 0.000
As2 0.0210(3) 0.0210(3) 0.0098(3) 0.000 0.000 0.000
loop_
_atom_type_symbol
_atom_type_description
_atom_type_scat_dispersion_real
_atom_type_scat_dispersion_imag
_atom_type_scat_source
Zn Zn 0.2839 1.4301 'International Tables Vol C Tables 4.2.6.8 and 6.1.1.4'
As As 0.0499 2.0058 'International Tables Vol C Tables 4.2.6.8 and 6.1.1.4'
Ag Ag -0.8971 1.1015 'International Tables Vol C Tables 4.2.6.8 and 6.1.1.4'
Pr Pr -0.2180 2.8214 'International Tables Vol C Tables 4.2.6.8 and 6.1.1.4'
loop_
_geom_angle_atom_site_label_1
_geom_angle_atom_site_label_2
_geom_angle_atom_site_label_3
_geom_angle
_geom_angle_site_symmetry_1
_geom_angle_site_symmetry_3
As1 Pr As1 139.07(3) 9_666 9_556
As1 Pr As1 82.979(11) 9_666 9_566
As1 Pr As1 82.979(11) 9_556 9_566
As1 Pr As1 82.979(11) 9_666 9_656
As1 Pr As1 82.979(11) 9_556 9_656
As1 Pr As1 139.07(3) 9_566 9_656
As1 Pr As2 134.239(14) 9_666 9_655
As1 Pr As2 80.299(15) 9_556 9_655
As1 Pr As2 134.239(14) 9_566 9_655
As1 Pr As2 80.299(15) 9_656 9_655
As1 Pr As2 134.239(14) 9_666 1_455
As1 Pr As2 80.299(15) 9_556 1_455
As1 Pr As2 80.299(15) 9_566 1_455
As1 Pr As2 134.239(14) 9_656 1_455
As2 Pr As2 55.065(8) 9_655 1_455
As1 Pr As2 80.299(15) 9_666 9_665
As1 Pr As2 134.239(14) 9_556 9_665
As1 Pr As2 80.299(15) 9_566 9_665
As1 Pr As2 134.239(14) 9_656 9_665
As2 Pr As2 81.646(13) 9_655 9_665
As2 Pr As2 55.065(8) 1_455 9_665
As1 Pr As2 80.299(15) 9_666 .
As1 Pr As2 134.239(14) 9_556 .
As1 Pr As2 134.239(14) 9_566 .
As1 Pr As2 80.299(15) 9_656 .
As2 Pr As2 55.065(8) 9_655 .
As2 Pr As2 81.646(13) 1_455 .
As2 Pr As2 55.065(7) 9_665 .
As1 Pr Ag 47.938(14) 9_666 .
As1 Pr Ag 95.818(18) 9_556 .
As1 Pr Ag 95.818(18) 9_566 .
As1 Pr Ag 47.938(14) 9_656 .
As2 Pr Ag 127.973(5) 9_655 .
As2 Pr Ag 174.777(9) 1_455 .
As2 Pr Ag 127.973(5) 9_665 .
As2 Pr Ag 103.576(7) . .
As1 Pr Ag 47.938(14) 9_666 9_666
As1 Pr Ag 95.818(18) 9_556 9_666
As1 Pr Ag 47.938(14) 9_566 9_666
As1 Pr Ag 95.818(18) 9_656 9_666
As2 Pr Ag 174.777(9) 9_655 9_666
As2 Pr Ag 127.973(5) 1_455 9_666
As2 Pr Ag 103.576(7) 9_665 9_666
As2 Pr Ag 127.973(5) . 9_666
Ag Pr Ag 48.614(7) . 9_666
As1 Pr Zn 47.938(14) 9_666 9_666
As1 Pr Zn 95.818(18) 9_556 9_666
As1 Pr Zn 47.938(14) 9_566 9_666
As1 Pr Zn 95.818(18) 9_656 9_666
As2 Pr Zn 174.777(9) 9_655 9_666
As2 Pr Zn 127.973(5) 1_455 9_666
As2 Pr Zn 103.576(7) 9_665 9_666
As2 Pr Zn 127.973(5) . 9_666
Ag Pr Zn 48.614(7) . 9_666
Ag Pr Zn 0.0 9_666 9_666
As1 Ag As1 115.484(16) . 9_656
As1 Ag As1 98.02(3) . 1_655
As1 Ag As1 115.484(16) 9_656 1_655
As1 Ag As1 115.484(16) . 9_666
As1 Ag As1 98.02(3) 9_656 9_666
As1 Ag As1 115.484(16) 1_655 9_666
As1 Ag Zn 122.258(8) . 9_766
As1 Ag Zn 122.258(8) 9_656 9_766
As1 Ag Zn 57.742(8) 1_655 9_766
As1 Ag Zn 57.742(8) 9_666 9_766
As1 Ag Zn 57.742(8) . 9_656
As1 Ag Zn 57.742(8) 9_656 9_656
As1 Ag Zn 122.258(8) 1_655 9_656
As1 Ag Zn 122.258(8) 9_666 9_656
Zn Ag Zn 180.0 9_766 9_656
As1 Ag Ag 57.742(8) . 9_656
As1 Ag Ag 57.742(8) 9_656 9_656
As1 Ag Ag 122.258(8) 1_655 9_656
As1 Ag Ag 122.258(8) 9_666 9_656
Zn Ag Ag 180.0 9_766 9_656
Zn Ag Ag 0.0 9_656 9_656
As1 Ag Ag 122.258(8) . 9_766
As1 Ag Ag 122.258(8) 9_656 9_766
As1 Ag Ag 57.742(8) 1_655 9_766
As1 Ag Ag 57.742(8) 9_666 9_766
Zn Ag Ag 0.0 9_766 9_766
Zn Ag Ag 180.0 9_656 9_766
Ag Ag Ag 180.0 9_656 9_766
As1 Ag Zn 57.742(8) . 9_666
As1 Ag Zn 122.258(8) 9_656 9_666
As1 Ag Zn 122.258(8) 1_655 9_666
As1 Ag Zn 57.742(8) 9_666 9_666
Zn Ag Zn 90.0 9_766 9_666
Zn Ag Zn 90.0 9_656 9_666
Ag Ag Zn 90.0 9_656 9_666
Ag Ag Zn 90.0 9_766 9_666
As1 Ag Ag 57.742(8) . 9_666
As1 Ag Ag 122.258(8) 9_656 9_666
As1 Ag Ag 122.258(8) 1_655 9_666
As1 Ag Ag 57.742(8) 9_666 9_666
Zn Ag Ag 90.0 9_766 9_666
Zn Ag Ag 90.0 9_656 9_666
Ag Ag Ag 90.0 9_656 9_666
Ag Ag Ag 90.0 9_766 9_666
Zn Ag Ag 0.0 9_666 9_666
As1 Ag Ag 122.258(8) . 9_756
As1 Ag Ag 57.742(8) 9_656 9_756
As1 Ag Ag 57.742(8) 1_655 9_756
As1 Ag Ag 122.258(8) 9_666 9_756
Zn Ag Ag 90.0 9_766 9_756
Zn Ag Ag 90.0 9_656 9_756
Ag Ag Ag 90.0 9_656 9_756
Ag Ag Ag 90.0 9_766 9_756
Zn Ag Ag 180.0 9_666 9_756
Ag Ag Ag 180.0 9_666 9_756
As1 Ag Zn 122.258(8) . 9_756
As1 Ag Zn 57.742(8) 9_656 9_756
As1 Ag Zn 57.742(8) 1_655 9_756
As1 Ag Zn 122.258(8) 9_666 9_756
Zn Ag Zn 90.0 9_766 9_756
Zn Ag Zn 90.0 9_656 9_756
Ag Ag Zn 90.0 9_656 9_756
Ag Ag Zn 90.0 9_766 9_756
Zn Ag Zn 180.0 9_666 9_756
Ag Ag Zn 180.0 9_666 9_756
Ag Ag Zn 0.0 9_756 9_756
Zn As1 Zn 64.516(16) 9_656 1_455
Zn As1 Ag 0.0 9_656 9_656
Zn As1 Ag 64.516(16) 1_455 9_656
Zn As1 Ag 64.516(16) 9_656 1_455
Zn As1 Ag 0.0 1_455 1_455
Ag As1 Ag 64.516(16) 9_656 1_455
Zn As1 Zn 98.02(3) 9_656 9_666
Zn As1 Zn 64.516(16) 1_455 9_666
Ag As1 Zn 98.02(3) 9_656 9_666
Ag As1 Zn 64.516(16) 1_455 9_666
Zn As1 Ag 64.516(16) 9_656 .
Zn As1 Ag 98.02(3) 1_455 .
Ag As1 Ag 64.516(16) 9_656 .
Ag As1 Ag 98.02(3) 1_455 .
Zn As1 Ag 64.516(16) 9_666 .
Zn As1 Ag 98.02(3) 9_656 9_666
Zn As1 Ag 64.516(16) 1_455 9_666
Ag As1 Ag 98.02(3) 9_656 9_666
Ag As1 Ag 64.516(16) 1_455 9_666
Zn As1 Ag 0.0 9_666 9_666
Ag As1 Ag 64.516(16) . 9_666
Zn As1 Pr 136.834(14) 9_656 9_666
Zn As1 Pr 136.834(14) 1_455 9_666
Ag As1 Pr 136.834(14) 9_656 9_666
Ag As1 Pr 136.834(14) 1_455 9_666
Zn As1 Pr 74.293(8) 9_666 9_666
Ag As1 Pr 74.293(8) . 9_666
Ag As1 Pr 74.293(8) 9_666 9_666
Zn As1 Pr 74.293(8) 9_656 9_556
Zn As1 Pr 74.293(8) 1_455 9_556
Ag As1 Pr 74.293(8) 9_656 9_556
Ag As1 Pr 74.293(8) 1_455 9_556
Zn As1 Pr 136.834(14) 9_666 9_556
Ag As1 Pr 136.834(14) . 9_556
Ag As1 Pr 136.834(14) 9_666 9_556
Pr As1 Pr 139.07(3) 9_666 9_556
Zn As1 Pr 136.834(14) 9_656 9_566
Zn As1 Pr 74.293(8) 1_455 9_566
Ag As1 Pr 136.834(14) 9_656 9_566
Ag As1 Pr 74.293(8) 1_455 9_566
Zn As1 Pr 74.293(8) 9_666 9_566
Ag As1 Pr 136.834(14) . 9_566
Ag As1 Pr 74.293(8) 9_666 9_566
Pr As1 Pr 82.979(11) 9_666 9_566
Pr As1 Pr 82.979(11) 9_556 9_566
Zn As1 Pr 74.293(8) 9_656 9_656
Zn As1 Pr 136.834(14) 1_455 9_656
Ag As1 Pr 74.293(8) 9_656 9_656
Ag As1 Pr 136.834(14) 1_455 9_656
Zn As1 Pr 136.834(14) 9_666 9_656
Ag As1 Pr 74.293(8) . 9_656
Ag As1 Pr 136.834(14) 9_666 9_656
Pr As1 Pr 82.979(11) 9_666 9_656
Pr As1 Pr 82.979(11) 9_556 9_656
Pr As1 Pr 139.07(3) 9_566 9_656
As2 As2 As2 180.0 9_765 9_655
As2 As2 As2 90.0 9_765 9_665
As2 As2 As2 90.0 9_655 9_665
As2 As2 As2 90.0 9_765 9_755
As2 As2 As2 90.0 9_655 9_755
As2 As2 As2 180.0 9_665 9_755
As2 As2 Pr 117.533(4) 9_765 .
As2 As2 Pr 62.467(4) 9_655 .
As2 As2 Pr 62.467(4) 9_665 .
As2 As2 Pr 117.533(4) 9_755 .
As2 As2 Pr 62.468(4) 9_765 1_655
As2 As2 Pr 117.532(4) 9_655 1_655
As2 As2 Pr 117.532(4) 9_665 1_655
As2 As2 Pr 62.468(4) 9_755 1_655
Pr As2 Pr 81.646(12) . 1_655
As2 As2 Pr 117.532(4) 9_765 9_655
As2 As2 Pr 62.468(4) 9_655 9_655
As2 As2 Pr 117.532(4) 9_665 9_655
As2 As2 Pr 62.468(4) 9_755 9_655
Pr As2 Pr 124.935(8) . 9_655
Pr As2 Pr 124.935(8) 1_655 9_655
As2 As2 Pr 62.468(4) 9_765 9_665
As2 As2 Pr 117.532(4) 9_655 9_665
As2 As2 Pr 62.468(4) 9_665 9_665
As2 As2 Pr 117.532(4) 9_755 9_665
Pr As2 Pr 124.935(8) . 9_665
Pr As2 Pr 124.935(8) 1_655 9_665
Pr As2 Pr 81.646(12) 9_655 9_665
loop_
_geom_bond_atom_site_label_1
_geom_bond_atom_site_label_2
_geom_bond_distance
_geom_bond_site_symmetry_2
Pr As1 3.0594(4) 9_666
Pr As1 3.0594(4) 9_556
Pr As1 3.0594(4) 9_566
Pr As1 3.0594(4) 9_656
Pr As2 3.1004(4) 9_655
Pr As2 3.1004(4) 1_455
Pr As2 3.1004(4) 9_665
Pr As2 3.1004(4) .
Pr Ag 3.4817(4) .
Pr Ag 3.4817(4) 9_666
Pr Zn 3.4817(4) 9_666
Ag As1 2.6852(6) .
Ag As1 2.6852(6) 9_656
Ag As1 2.6852(6) 1_655
Ag As1 2.6852(6) 9_666
Ag Zn 2.8663(3) 9_766
Ag Zn 2.8663(3) 9_656
Ag Ag 2.8663(3) 9_656
Ag Ag 2.8663(3) 9_766
Ag Zn 2.8663(3) 9_666
Ag Ag 2.8663(3) 9_666
Ag Ag 2.8663(3) 9_756
Ag Zn 2.8663(3) 9_756
As1 Zn 2.6852(6) 9_656
As1 Zn 2.6852(6) 1_455
As1 Ag 2.6852(6) 9_656
As1 Ag 2.6852(6) 1_455
As1 Zn 2.6852(6) 9_666
As1 Ag 2.6852(6) 9_666
As1 Pr 3.0594(4) 9_666
As1 Pr 3.0594(4) 9_556
As1 Pr 3.0594(4) 9_566
As1 Pr 3.0594(4) 9_656
As2 As2 2.8663(3) 9_765
As2 As2 2.8663(3) 9_655
As2 As2 2.8663(3) 9_665
As2 As2 2.8663(3) 9_755
As2 Pr 3.1004(4) 1_655
As2 Pr 3.1004(4) 9_655
As2 Pr 3.1004(4) 9_665
