#------------------------------------------------------------------------------
#$Date: 2021-04-15 10:48:38 +0300 (Thu, 15 Apr 2021) $
#$Revision: 264191 $
#$URL: file:///home/coder/svn-repositories/cod/cif/1/56/18/1561801.cif $
#------------------------------------------------------------------------------
#
# This file is available in the Crystallography Open Database (COD),
# http://www.crystallography.net/
#
# All data on this site have been placed in the public domain by the
# contributors.
#
data_1561801
loop_
_publ_author_name
'Seibel, Elizabeth M.'
'Xie, Weiwei'
'Gibson, Quinn D.'
'Cava, R.J.'
_publ_section_title
;
 Structure and magnetic properties of the REAuBi2 (RE=La--Nd, Sm) phases
;
_journal_name_full               'Journal of Solid State Chemistry'
_journal_page_first              318
_journal_page_last               324
_journal_paper_doi               10.1016/j.jssc.2015.07.013
_journal_volume                  230
_journal_year                    2015
_chemical_formula_sum            'Au Bi2 Pr'
_chemical_formula_weight         755.84
_space_group_crystal_system      tetragonal
_space_group_IT_number           129
_space_group_name_Hall           '-P 4a 2a'
_space_group_name_H-M_alt        'P 4/n m m :2'
_atom_sites_solution_hydrogens   .
_audit_creation_method           SHELXL-2013
_cell_angle_alpha                90
_cell_angle_beta                 90
_cell_angle_gamma                90
_cell_formula_units_Z            2
_cell_length_a                   4.6206(3)
_cell_length_b                   4.6206(3)
_cell_length_c                   9.8624(6)
_cell_measurement_reflns_used    836
_cell_measurement_temperature    296(2)
_cell_measurement_theta_max      28.26
_cell_measurement_theta_min      4.13
_cell_volume                     210.56(2)
_computing_cell_refinement       'Bruker SAINT'
_computing_data_collection       'Bruker APEX2'
_computing_data_reduction        'Bruker SAINT'
_computing_molecular_graphics    'Bruker SHELXTL'
_computing_publication_material  'Bruker SHELXTL'
_computing_structure_refinement  'SHELXL-2013 (Sheldrick, 2013)'
_computing_structure_solution    'SHELXS-97 (Sheldrick 2008)'
_diffrn_ambient_temperature      296(2)
_diffrn_measured_fraction_theta_full 1.000
_diffrn_measured_fraction_theta_max 1.000
_diffrn_measurement_device_type  'Bruker APEX-II CCD'
_diffrn_measurement_method       '\f and \w scans'
_diffrn_radiation_type           MoK\a
_diffrn_radiation_wavelength     0.71073
_diffrn_reflns_av_R_equivalents  0.1194
_diffrn_reflns_av_unetI/netI     0.0568
_diffrn_reflns_Laue_measured_fraction_full 1.000
_diffrn_reflns_Laue_measured_fraction_max 1.000
_diffrn_reflns_limit_h_max       6
_diffrn_reflns_limit_h_min       -4
_diffrn_reflns_limit_k_max       5
_diffrn_reflns_limit_k_min       -6
_diffrn_reflns_limit_l_max       13
_diffrn_reflns_limit_l_min       -13
_diffrn_reflns_number            1261
_diffrn_reflns_point_group_measured_fraction_full 1.000
_diffrn_reflns_point_group_measured_fraction_max 1.000
_diffrn_reflns_theta_full        25.242
_diffrn_reflns_theta_max         28.280
_diffrn_reflns_theta_min         2.065
_exptl_absorpt_coefficient_mu    129.178
_exptl_absorpt_correction_T_max  0.4634
_exptl_absorpt_correction_T_min  0.0289
_exptl_absorpt_correction_type   integration
_exptl_crystal_colour            Metallic
_exptl_crystal_density_diffrn    11.921
_exptl_crystal_density_method    'Not measured'
_exptl_crystal_description       Irregular
_exptl_crystal_F_000             608
_exptl_crystal_size_max          0.025
_exptl_crystal_size_mid          0.018
_exptl_crystal_size_min          0.012
_refine_diff_density_max         5.694
_refine_diff_density_min         -3.230
_refine_diff_density_rms         0.746
_refine_ls_extinction_coef       0.0021(5)
_refine_ls_extinction_expression Fc^*^=kFc[1+0.001xFc^2^\l^3^/sin(2\q)]^-1/4^
_refine_ls_extinction_method     SHELXL
_refine_ls_goodness_of_fit_ref   1.252
_refine_ls_hydrogen_treatment    undef
_refine_ls_matrix_type           full
_refine_ls_number_parameters     12
_refine_ls_number_reflns         192
_refine_ls_number_restraints     0
_refine_ls_restrained_S_all      1.252
_refine_ls_R_factor_all          0.0371
_refine_ls_R_factor_gt           0.0323
_refine_ls_shift/su_max          0.000
_refine_ls_shift/su_mean         0.000
_refine_ls_structure_factor_coef Fsqd
_refine_ls_weighting_details
'w=1/[\s^2^(Fo^2^)+(0.0287P)^2^+3.8776P] where P=(Fo^2^+2Fc^2^)/3'
_refine_ls_weighting_scheme      calc
_refine_ls_wR_factor_gt          0.0789
_refine_ls_wR_factor_ref         0.0810
_reflns_Friedel_coverage         0.000
_reflns_Friedel_fraction_full    .
_reflns_Friedel_fraction_max     .
_reflns_number_gt                178
_reflns_number_total             192
_reflns_threshold_expression     'I > 2\s(I)'
_cod_data_source_file            JSSC-2015-230-318.cif
_cod_data_source_block           mo_Liz_newPr_0m
_cod_depositor_comments
;
The following automatic conversions were performed:

data item '_exptl_absorpt_correction_type' value 'Integration' was
changed to 'integration' in accordance with the built-in table
derived from the CIF Core dictionary named 'cif_core.dic' version
2.4.5 last updated on 2014-11-21.

data item '_exptl_crystal_density_meas' value 'None' was changed to
'?' -- the value is perceived as not measured.

Automatic conversion script
Id: cif_fix_values 8369 2020-08-20 11:38:08Z andrius 
;
_cod_original_cell_volume        210.56(3)
_cod_original_sg_symbol_H-M      'P 4/n m m'
_cod_original_formula_sum        'Au1 Bi2 Pr1'
_cod_database_code               1561801
_shelx_space_group_comment
; 
The symmetry employed for this shelxl refinement is uniquely defined 
by the following loop, which should always be used as a source of 
symmetry information in preference to the above space-group names. 
They are only intended as comments. 
;
_shelxl_version_number           2013-4
_shelx_res_file
; 
TITL mo_Liz373_Pr_0m in P4/nmm 
CELL 0.71073   4.62060   4.62060   9.86240  90.0000  90.0000  90.0000 
ZERR    1.00   0.00030   0.00030   0.00060   0.0000   0.0000   0.0000 
LATT  1 
SYMM 0.5-X, 0.5-Y, Z 
SYMM 0.5-Y, X, Z 
SYMM Y, 0.5-X, Z 
SYMM -X, 0.5+Y, -Z 
SYMM 0.5+X, -Y, -Z 
SYMM 0.5+Y, 0.5+X, -Z 
SYMM -Y, -X, -Z 
SFAC PR AU BI 
UNIT 2 2 4 
TEMP 23.000 
  
L.S. 10 
ACTA 
  
WGHT    0.028700    3.877600 
EXTI    0.002119 
FVAR       0.16615 
MOLE   1 
BI1   3    0.250000    0.250000    0.818243    10.12500    0.00805    0.00805 = 
         0.02975    0.00000    0.00000    0.00000 
PR2   1   -0.250000   -0.250000    0.762498    10.12500    0.00974    0.00974 = 
         0.01377    0.00000    0.00000    0.00000 
BI3   3    0.750000    0.250000    0.500000    10.12500    0.01095    0.01095 = 
         0.01325    0.00000    0.00000    0.00000 
AU4   2    0.750000    0.250000    0.000000    10.12500    0.02011    0.02011 = 
         0.01676    0.00000    0.00000    0.00000 
  
HKLF 4 
  
REM  mo_Liz373_Pr_0m in P4/nmm 
REM R1 =  0.0323 for     178 Fo > 4sig(Fo)  and  0.0371 for all     192 data 
REM     12 parameters refined using      0 restraints 
  
END 
  
WGHT      0.0285      4.1179 
  
REM Highest difference peak  5.694,  deepest hole -3.230,  1-sigma level  0.746 
Q1    1   0.7500  0.2500  0.4373  10.25000  0.05    5.69 
Q2    1   0.2500  0.2500  0.8893  10.12500  0.05    4.64 
Q3    1   0.7500  0.2500 -0.0690  10.25000  0.05    4.05 
Q4    1   0.6222  0.1222  0.5000  10.50000  0.05    3.37 
Q5    1   0.2500  0.2500  0.7592  10.12500  0.05    2.87 
Q6    1   0.3876  0.1125  0.8201  10.50000  0.05    2.65 
Q7    1  -0.2500 -0.2500  0.8376  10.12500  0.05    2.52 
Q8    1  -0.2500 -0.2500  0.6925  10.12500  0.05    2.28 
Q9    1   0.6195  0.1195  0.0000  10.50000  0.05    1.77 
Q10   1  -0.3816 -0.1184  0.6395  10.50000  0.05    1.73 
Q11   1   0.7500  0.0078  0.0865  10.50000  0.05    1.73 
Q12   1  -0.4554 -0.0446  0.6513  10.50000  0.05    1.68 
Q13   1   0.4940  0.2500  0.7443  10.50000  0.05    1.56 
Q14   1   0.6465  0.1546  0.6811  11.00000  0.05    1.51 
Q15   1   0.3839  0.1161  0.7068  10.50000  0.05    1.43 
Q16   1  -0.2500 -0.7500  0.7418  10.25000  0.05    1.42 
Q17   1  -0.3901 -0.1099  0.7576  10.50000  0.05    1.38 
Q18   1  -0.2500 -0.1428  0.6089  10.50000  0.05    1.37 
Q19   1   0.2500  0.2500  0.5843  10.12500  0.05    1.27 
Q20   1   0.3716  0.1284  0.5071  10.50000  0.05    1.24 
;
_shelx_res_checksum              70333
_shelx_hkl_file
; 
   0   0  -1   54.26    4.25 
   0   0   1   -0.15    1.02 
   0   0  -2  132.53    6.82 
   0   0   2    2.82    1.71 
   0   0  -3  692.16    9.51 
   0   0  -3  733.49   12.02 
   0   0   3  842.39   12.62 
   0   0   3   -0.89    0.97 
   0   0  -4 2026.05   15.91 
   0   0  -4 2231.68   20.52 
   0   0  -4 2117.05   20.01 
   0   0   4 2427.53   21.22 
   0   0  -5  296.68    6.45 
   0   0  -5  324.11    8.65 
   0   0  -5  301.48    8.24 
   0   0   5  328.65    8.62 
   0   0  -6 1194.35   12.52 
   0   0  -6 1242.50   16.08 
   0   0  -6 1197.32   15.71 
   0   0   6 1328.46   16.54 
   0   0  -7   95.71    4.05 
   0   0  -7   92.49    5.41 
   0   0  -7   94.25    5.14 
   0   0   7  104.25    5.53 
   0   0  -8  544.46   11.35 
   0   0   8  560.87   11.47 
   0   0  -9   20.18    3.32 
   0   0   9   19.85    3.38 
   0   0 -10  394.33   10.33 
   0   0  10  402.84   10.40 
   0   0 -11    1.04    2.20 
   0   0  11    2.99    2.51 
   0   0 -12  566.88   12.89 
   0   0  12  579.11   12.96 
   0   0 -13    1.73    2.60 
   0   0  13    3.08    2.72 
   1   0   0    3.89    0.68 
  -1   0  -1   23.49    1.02 
   0  -1  -1   35.79    3.16 
   0  -1  -1   26.57    0.98 
   0  -1   1   23.15    1.01 
   0   1   1   24.87    1.60 
   1   0  -1   25.16    1.13 
   1   0   1   27.76    1.50 
   1   0   1   24.19    1.01 
  -1   0  -2  253.57    4.46 
  -1   0  -2  218.87    3.10 
  -1   0  -2  211.58    3.03 
  -1   0   2  223.42    6.42 
   0  -1  -2  264.97    7.17 
   0  -1  -2  231.47    5.04 
   0  -1  -2  228.29    4.47 
   0  -1   2  220.06    3.11 
   0   1  -2  242.91    7.86 
   0   1   2  185.39    6.24 
   1   0  -2  222.89    2.73 
   1   0   2  228.62    4.24 
   1   0   2  169.50    2.69 
  -1   0  -3   89.62    3.76 
  -1   0  -3   91.98    2.75 
  -1   0  -3   85.81    2.65 
  -1   0   3   65.06    7.54 
   0  -1  -3   71.98    5.32 
   0  -1  -3   67.11    5.97 
   0  -1  -3   63.28    4.95 
   0  -1   3   90.68    2.73 
   0   1  -3   81.66    8.48 
   0   1   3   78.59    8.12 
   1   0  -3   96.96    2.29 
   1   0   3   79.32    3.55 
   1   0   3   73.67    5.24 
   1   0   3    1.48    0.59 
  -1   0  -4  188.04    6.37 
  -1   0  -4  227.86    5.24 
  -1   0  -4  213.73    5.08 
  -1   0   4  186.18    8.09 
   0  -1  -4  139.78    7.44 
   0  -1  -4  169.48   11.10 
   0  -1  -4  134.90    9.29 
   0  -1   4  234.12    5.31 
   0   1  -4  189.42    7.73 
   0   1   4  192.42    7.85 
   1   0  -4  259.83    4.36 
   1   0   4  151.09    5.88 
   1   0   4  192.48    6.99 
   1   0   4  221.86    5.36 
  -1   0  -5  270.47    9.30 
  -1   0  -5  440.78    9.10 
  -1   0  -5  420.75    8.92 
  -1   0   5  400.99    9.93 
   0  -1  -5  170.71    9.13 
   0  -1  -5  400.38   11.38 
   0  -1  -5  381.78   11.16 
   0  -1   5  403.00    5.13 
   0  -1   5  483.21    9.49 
   0   1  -5  414.39    9.86 
   1   0  -5  512.95    7.72 
   1   0   5  153.26    7.57 
   1   0   5  419.36    9.66 
  -1   0  -6    9.25    3.20 
  -1   0  -6    8.90    3.22 
  -1   0  -6    5.76    2.78 
  -1   0   6    8.96    2.56 
   0  -1  -6    1.92    2.27 
   0  -1  -6    7.85    2.82 
   0  -1  -6    8.68    2.65 
   0  -1   6   10.41    3.10 
   0   1  -6   11.16    2.81 
   0   1  -6   11.31    2.47 
   1   0  -6    6.78    2.23 
   1   0  -6    9.84    3.69 
   1   0   6    4.58    2.75 
   1   0   6    8.93    2.57 
  -1   0  -7  433.66   10.01 
  -1   0  -7  312.47   13.07 
  -1   0  -7  301.90   12.82 
  -1   0   7  510.46   10.95 
   0  -1  -7  333.78    9.08 
   0  -1  -7  493.88   11.31 
   0  -1  -7  476.47   11.05 
   0   1  -7  484.43   10.62 
   0   1  -7  470.64   10.42 
   1   0  -7  478.56   16.60 
   1   0   7  383.14    9.54 
   1   0   7  479.48   10.52 
  -1   0  -8   75.32    4.71 
  -1   0  -8   58.90    7.27 
  -1   0   8   79.68    5.39 
   0  -1  -8   68.95    4.65 
   0  -1  -8   80.83    5.56 
   0  -1  -8   80.75    5.64 
   0  -1   8   68.60    7.37 
   0   1  -8   80.78    5.34 
   0   1  -8   78.99    5.66 
   1   0   8   68.37    4.56 
   1   0   8   80.29    5.43 
  -1   0  -9  171.97    8.83 
  -1   0   9  200.14    7.66 
   0  -1  -9  186.90    6.73 
   0  -1  -9  203.14    7.87 
   0  -1   9  167.55    8.74 
   0   1  -9  209.10    7.69 
   0   1   9  195.53    9.26 
   1   0   9  205.46    7.73 
  -1   0 -10  160.67    8.21 
  -1   0  10  192.40    7.72 
   0  -1 -10  173.76    7.58 
   0  -1  10  159.95    8.19 
   0   1 -10  179.36    7.47 
   0   1  10  178.18    8.60 
   1   0 -10  168.80    8.47 
   1   0  10  184.37    7.57 
  -1   0 -11   26.93    4.39 
  -1   0  11   22.67    3.74 
   0  -1 -11   25.94    4.09 
   0  -1  11   21.78    3.98 
   0   1 -11   26.30    3.82 
   0   1  11   18.08    3.94 
   1   0 -11   24.62    4.34 
   1   0  11   22.37    3.73 
  -1   0 -12  118.65    7.37 
  -1   0  12  112.62    6.68 
   0  -1 -12  114.91    6.86 
   0  -1  12  113.24    7.16 
   0   1 -12  116.61    6.75 
   0   1  12  119.49    7.36 
   1   0 -12  111.02    7.22 
   1   0  12  120.20    6.82 
  -1  -1   0   22.85    2.33 
   1  -1   0   20.86    1.48 
  -1  -1  -1  180.56    6.10 
  -1  -1   1  178.76    2.36 
  -1   1  -1  185.65    2.07 
   1  -1  -1  215.75    3.64 
   1  -1   1  207.96    3.31 
   1  -1   1  187.62    2.26 
   1  -1   1  191.84    2.26 
   1   1   1  178.19    2.47 
  -1  -1  -2 2050.59   24.01 
  -1  -1  -2 3809.86   12.60 
  -1  -1   2 4073.36   12.74 
  -1   1  -2 4501.72   15.79 
  -1   1  -2 4333.07   17.53 
   1  -1  -2 4891.70   18.15 
   1  -1   2 4509.04   15.38 
   1  -1   2 4448.55   19.51 
   1  -1   2 4613.87   17.38 
   1   1   2 4155.34   13.37 
  -1  -1  -3  207.27   12.08 
  -1  -1  -3  413.64    5.25 
  -1  -1  -3  389.42    4.99 
  -1  -1   3  428.34    5.22 
  -1   1  -3  431.80    5.30 
  -1   1  -3  427.92    5.46 
   1  -1  -3  485.50    6.62 
   1  -1   3  443.09    5.41 
   1  -1   3  439.91    5.46 
   1  -1   3    0.66    0.89 
   1   1   3  408.82    5.23 
  -1  -1  -4  530.75   12.50 
  -1  -1  -4  679.26    8.17 
  -1  -1  -4  663.46    7.95 
  -1  -1   4  718.90    8.37 
  -1   1  -4  696.87    8.84 
  -1   1  -4  651.81    8.87 
   1  -1  -4  810.73    9.65 
   1  -1   4  685.00    7.57 
   1  -1   4  737.24    9.01 
   1  -1   4  667.23   11.20 
  -1  -1  -5  397.98   10.03 
  -1  -1  -5  458.18    8.49 
  -1  -1  -5  443.16    8.18 
  -1  -1   5  500.76    8.89 
  -1   1  -5  425.34    9.19 
  -1   1  -5  390.70    9.14 
   1  -1  -5  532.30    9.10 
   1  -1  -5  496.23   14.09 
   1  -1   5  443.30    7.22 
   1  -1   5  458.42    9.29 
  -1  -1  -6  735.81   12.84 
  -1  -1  -6  758.93   13.61 
  -1  -1  -6  744.22   13.22 
  -1  -1   6  815.77   14.29 
  -1   1  -6  566.01   13.53 
  -1   1  -6  510.97   13.27 
   1  -1  -6  846.70   13.21 
   1  -1  -6  725.58   18.84 
   1  -1   6  662.85   10.44 
   1  -1   6  666.25   14.07 
  -1  -1  -7   28.30    3.56 
  -1  -1  -7   17.72    4.29 
  -1  -1  -7   15.06    3.76 
  -1  -1   7   23.82    4.80 
  -1   1  -7   16.71    5.07 
  -1   1  -7   17.24    4.49 
   1  -1  -7   26.33    3.96 
   1  -1  -7   27.15    4.34 
   1  -1   7   16.37    3.33 
   1  -1   7   13.97    4.69 
   1   1  -7   26.03    5.37 
  -1  -1  -8  773.24   12.84 
  -1  -1   8  586.81   19.44 
  -1   1  -8  671.98   15.70 
   1  -1  -8  429.58   13.07 
   1  -1   8  565.77   15.65 
  -1  -1  -9    1.77    1.90 
  -1  -1  -9    0.14    3.83 
  -1  -1   9    2.39    3.47 
  -1   1  -9    3.21    2.81 
  -1   1   9    3.95    2.92 
   1  -1  -9    5.51    2.86 
   1  -1   9    5.72    3.24 
   1   1   9    4.19    1.99 
   1   1   9    1.91    3.27 
  -1  -1 -10  475.55   10.33 
  -1  -1 -10  478.39   14.04 
  -1  -1  10  451.41   13.17 
  -1   1 -10  486.50   12.42 
  -1   1  10  528.41   12.78 
   1  -1 -10  494.67   12.11 
   1  -1  10  461.23   12.52 
   1   1 -10  456.47   13.15 
   1   1  10  480.88   10.39 
   1   1  10  519.10   13.45 
  -1  -1 -11   14.65    4.01 
  -1  -1  11   16.13    3.94 
  -1   1 -11   17.38    3.96 
  -1   1  11   17.02    3.80 
   1  -1 -11   16.36    3.64 
   1  -1  11   15.10    3.75 
   1   1 -11   13.59    3.84 
   1   1  11   14.01    3.79 
  -1  -1 -12  111.65    7.60 
  -1  -1  12  114.08    7.45 
  -1   1 -12  114.08    7.18 
  -1   1  12  122.19    7.27 
   1  -1 -12  130.96    7.28 
   1  -1  12  116.69    7.24 
   1   1 -12  122.72    7.68 
   1   1  12  117.42    7.42 
  -1  -2   0    3.05    3.81 
   2  -1   0    1.56    0.90 
  -1  -2  -1    7.38    6.54 
  -1  -2   1   19.03    3.19 
   1   2   1   20.90    1.11 
   2  -1  -1   22.86    1.84 
   2  -1   1   22.20    1.83 
   2  -1   1   18.41    1.16 
  -1  -2  -2  106.50    8.83 
  -1  -2  -2  149.11    2.70 
  -1  -2   2  138.49    4.04 
   1   2   2  155.08    2.92 
   2  -1  -2  160.53    3.78 
   2  -1   2  167.02    4.09 
   2  -1   2  152.84    2.38 
   2  -1   2  154.81    3.02 
  -2   1  -3   56.07    2.09 
  -1  -2  -3   50.63    5.89 
  -1  -2  -3   55.93    2.06 
  -1  -2   3   56.97    2.25 
   1   2   3   57.04    2.27 
   2  -1  -3   65.34    2.77 
   2  -1   3   59.02    2.92 
   2  -1   3   59.84    2.11 
  -2   1  -4  164.50    3.88 
  -1  -2  -4  137.78    7.38 
  -1  -2  -4  173.54    4.14 
  -1  -2  -4  167.96    3.92 
  -1  -2   4  166.99    4.03 
   2  -1  -4  188.89    4.56 
   2  -1   4  174.45    5.02 
   2  -1   4  174.55    4.26 
  -2   1  -5  351.34    6.32 
  -2   1  -5  339.81    6.36 
  -1  -2  -5  289.90    9.63 
  -1  -2  -5  359.21    6.94 
  -1  -2  -5  357.78    6.70 
  -1  -2   5  369.93    6.70 
   2  -1  -5  385.92    6.84 
   2  -1   5  354.65    7.89 
   2  -1   5  365.53    7.69 
  -2   1  -6    8.58    1.88 
  -2   1  -6   18.46    2.44 
  -1  -2  -6    6.04    2.60 
  -1  -2  -6    6.45    2.16 
  -1  -2  -6   10.57    2.12 
  -1  -2   6   10.18    2.00 
   2  -1  -6    9.61    1.94 
   2  -1   6    9.12    2.60 
   2  -1   6    6.00    2.61 
  -2   1  -7  392.40    9.53 
  -2   1  -7  395.27    9.85 
  -2   1   7  420.81   11.03 
  -1  -2  -7  365.61   10.36 
  -1  -2  -7  413.22   11.38 
  -1  -2  -7  420.85   11.07 
  -1  -2   7  436.89   10.01 
   1   2  -7  449.24   15.49 
   2  -1  -7  479.84    9.49 
   2  -1   7  273.85    9.77 
   2  -1   7  255.40   10.79 
  -2   1  -8   60.50    6.03 
  -2   1   8   68.37    5.54 
  -1  -2  -8   55.55    5.07 
  -1  -2  -8   42.04    6.34 
  -1  -2   8   62.01    5.92 
   2  -1   8   20.94    5.12 
   2  -1   8   24.10    5.48 
  -2   1  -9  108.68    9.11 
  -2   1   9  175.69    7.53 
  -1  -2  -9  165.65    7.40 
  -1  -2  -9  129.67   13.58 
  -1  -2   9  152.43    9.98 
   2  -1   9  116.72    8.15 
  -2   1 -10   75.37    9.53 
  -2   1  10  152.87    7.35 
  -1  -2 -10  141.17    6.89 
  -1  -2 -10  137.06   11.10 
  -1  -2  10   80.97   10.33 
   1   2 -10  144.21    8.68 
   2  -1  10  132.34    8.05 
  -2   1 -11    9.96    4.97 
  -2   1  11   17.58    3.55 
  -1  -2 -11   19.85    3.58 
  -1  -2 -11   14.13    4.72 
  -1  -2  11   10.02    5.85 
   1   2 -11   21.83    4.44 
   2  -1 -11   20.26    5.14 
   2  -1  11   16.45    3.90 
  -2   1 -12   88.27    8.20 
  -2   1  12  104.51    6.77 
  -1  -2 -12   96.90    8.17 
  -1  -2  12   85.42    8.87 
   1   2 -12   94.38    7.16 
   1   2  12   95.05    9.08 
   2  -1 -12   95.35    7.84 
   2  -1  12   89.36    6.81 
   0  -2   0 5455.41   29.38 
   2   0   0 4333.87   16.70 
   0  -2  -1   61.15    4.47 
   0  -2   1   65.07    3.79 
   2   0  -1   50.78    1.99 
   2   0   1   48.34    2.27 
   2   0   1   41.81    1.62 
   0  -2  -2  137.15    6.56 
   0  -2  -2  110.04    2.03 
   0  -2   2  149.23    4.60 
   0  -2   2  103.94    2.60 
   0   2   2   95.46    4.80 
   2   0  -2  103.87    2.60 
   2   0   2  114.63    3.63 
   2   0   2   70.19    5.91 
  -2   0  -3  556.13    6.22 
  -2   0   3  675.24    8.23 
   0  -2  -3  629.78   13.58 
   0  -2  -3  626.85    7.15 
   0  -2  -3  586.80    6.37 
   0  -2   3  721.10    8.56 
   0  -2   3  559.98    6.30 
   0   2  -3  520.27   14.59 
   0   2   3  533.12   14.06 
   2   0  -3  567.71    5.71 
   2   0   3  571.74    8.65 
   2   0   3  387.21   10.70 
  -2   0  -4 1698.33   12.16 
  -2   0   4 1814.75   19.37 
   0  -2  -4 1506.80   22.46 
   0  -2  -4 1860.76   16.90 
   0  -2  -4 1760.58   15.23 
   0  -2   4 1792.59   12.59 
   0   2  -4 1448.00   18.71 
   0   2   4 1641.43   19.83 
   2   0  -4 1862.08   10.80 
   2   0   4 1669.79   16.98 
   2   0   4 1429.20   17.49 
  -2   0  -5  229.54    5.33 
  -2   0  -5  229.16    5.37 
  -2   0   5  189.95   10.12 
   0  -2  -5  150.46    8.82 
   0  -2  -5  217.79    8.90 
   0  -2  -5  222.57    8.18 
   0  -2   5  238.02    5.52 
   0   2  -5  207.97    7.33 
   2   0  -5  247.15    4.48 
   2   0   5  183.33    7.32 
   2   0   5  204.12    7.33 
  -2   0  -6  971.90   12.38 
  -2   0  -6  937.82   12.26 
  -2   0   6  793.46   17.42 
   0  -2  -6  419.98   14.73 
   0  -2  -6  815.40   21.08 
   0  -2  -6  784.23   19.23 
   0  -2   6 1008.60   12.76 
   0   2  -6  918.49   14.05 
   0   2  -6  866.65   13.88 
   2   0   6  503.03   13.67 
   2   0   6  897.19   14.20 
  -2   0  -7   80.70    5.14 
  -2   0   7   72.80    6.10 
   0  -2  -7   31.26    5.20 
   0  -2  -7   73.55    8.08 
   0  -2  -7   75.09    8.38 
   0  -2   7   87.83    5.41 
   0   2  -7   81.73    5.35 
   0   2  -7   82.65    5.23 
   2   0   7   16.08    4.95 
   2   0   7   79.31    5.44 
  -2   0  -8  382.75   11.69 
  -2   0   8  417.95   11.05 
   0  -2  -8  245.78    9.98 
   0  -2  -8  421.46   12.61 
   0  -2   8  411.80   12.20 
   0   2  -8  425.58   10.21 
   2   0   8  284.77   10.48 
   2   0   8  424.04   10.43 
  -2   0  -9    6.56    4.28 
  -2   0   9   11.56    3.12 
   0  -2  -9   11.19    3.34 
   0  -2  -9   11.58    3.61 
   0  -2   9    5.42    4.18 
   0   2  -9   10.26    2.94 
   2   0   9   10.66    3.37 
   2   0   9   13.66    3.14 
  -2   0 -10  191.22   14.72 
  -2   0  10  328.14    9.98 
   0  -2 -10  258.65    9.30 
   0  -2 -10  328.93   10.66 
   0  -2  10  183.41   14.27 
   0   2 -10  326.46    9.50 
   2   0  10  325.86    9.73 
  -2   0 -11   -0.06    4.07 
  -2   0  11    1.12    2.45 
   0  -2 -11   -0.05    2.35 
   0  -2 -11    2.63    2.74 
   0  -2  11   -3.42    3.93 
   0   2 -11    1.03    2.30 
   2   0  11    1.67    2.41 
  -2   0 -12  437.41   14.75 
  -2   0  12  484.31   12.27 
   0  -2 -12  482.32   12.70 
   0  -2  12  411.46   14.43 
   0   2 -12  471.53   11.87 
   0   2  12  470.61   15.17 
   2   0 -12  431.05   14.44 
   2   0  12  470.93   11.99 
   1  -2   0    1.66    1.15 
   2   1   0    1.42    0.83 
  -2  -1  -1   25.22    2.31 
   1  -2  -1   24.95    2.40 
   1  -2   1   26.50    2.16 
   2   1  -1   20.52    1.43 
   2   1   1   20.09    2.10 
  -2  -1  -2  167.84    5.41 
  -2  -1   2  153.76    2.58 
  -1   2  -2  157.24    2.24 
   1  -2  -2  193.61    5.20 
   1  -2  -2  161.73    8.35 
   1  -2   2  183.84    4.22 
   1  -2   2  155.53    3.04 
   1  -2   2  149.69    7.42 
   2   1  -2  143.37    2.69 
   2   1   2  156.53    5.22 
  -2  -1  -3   58.32    4.46 
  -2  -1  -3   56.31    2.29 
  -2  -1   3   57.13    2.02 
  -1   2  -3   61.76    2.05 
  -1   2  -3   58.88    2.07 
   1  -2  -3   73.88    3.88 
   1  -2  -3   48.57    5.95 
   1  -2   3   65.27    2.82 
   1  -2   3   57.11    2.18 
   1  -2   3   50.43    5.40 
   2   1  -3   53.84    1.63 
   2   1   3   50.17    4.27 
  -2  -1  -4  114.80    7.00 
  -2  -1  -4  166.12    4.06 
  -2  -1   4  173.35    3.95 
  -1   2  -4  183.06    4.40 
  -1   2  -4  170.57    4.53 
   1  -2  -4  205.74    6.36 
   1  -2  -4  151.94    6.64 
   1  -2   4  190.65    4.51 
   1  -2   4  168.14    3.99 
   1  -2   4  141.90    6.85 
   2   1  -4  168.37    2.65 
   2   1   4  102.03    6.73 
  -2  -1  -5  152.65    9.82 
  -2  -1  -5  354.97    6.63 
  -2  -1  -5  353.04    6.58 
  -2  -1   5  378.08    6.95 
  -1   2  -5  343.12    7.76 
  -1   2  -5  306.72    7.87 
   1  -2  -5  410.02    9.65 
   1  -2  -5  336.81    8.98 
   1  -2   5  367.89    6.52 
   1  -2   5  362.94    6.63 
   2   1   5  122.33    9.36 
  -2  -1  -6    4.85    3.54 
  -2  -1  -6    9.70    1.97 
  -2  -1  -6    7.92    1.82 
  -2  -1   6   12.28    2.44 
  -1   2  -6    8.13    2.97 
  -1   2  -6    4.56    2.65 
   1  -2  -6   10.73    2.90 
   1  -2  -6   11.50    3.02 
   1  -2  -6    8.13    2.45 
   1  -2   6    8.39    1.91 
   2   1   6    0.34    3.37 
  -2  -1  -7  338.44   11.04 
  -2  -1  -7  396.53    9.56 
  -2  -1   7  413.49   11.61 
  -1   2  -7  209.77   10.92 
  -1   2  -7  209.73   11.14 
   1  -2  -7  398.46   12.08 
   1  -2  -7  413.75   10.41 
   1  -2  -7  392.92    9.83 
   1  -2   7  429.40   10.14 
   2   1   7  336.78   11.09 
  -2  -1  -8   67.88    5.70 
  -2  -1  -8   68.90    6.09 
  -2  -1   8   48.41    6.75 
  -1   2  -8   50.64    6.15 
   1  -2  -8   51.39    6.49 
   1  -2  -8   70.34    5.52 
   1  -2   8   63.86    6.22 
   2   1   8   64.42    5.65 
  -2  -1  -9  170.10    7.51 
  -2  -1  -9  133.91    9.51 
  -2  -1   9  127.82   12.30 
  -1   2  -9  159.43    8.24 
   1  -2  -9   87.64    8.79 
   1  -2  -9  164.59    7.30 
   1  -2   9  103.00    9.06 
   2   1   9  166.80    7.47 
   2   1   9  172.70    8.83 
  -2  -1 -10  150.47    7.07 
  -2  -1 -10   74.08   10.21 
  -2  -1  10  117.66    9.39 
  -1   2 -10  140.87    7.66 
   1  -2 -10   59.53    7.17 
   1  -2 -10  151.03    7.21 
   1  -2  10   54.94    8.91 
   2   1  10  143.99    6.95 
   2   1  10  151.42    8.07 
  -2  -1 -11   17.13    3.48 
  -2  -1 -11   14.00    6.39 
  -2  -1  11   14.65    4.37 
  -1   2 -11   16.36    3.70 
  -1   2  11   14.30    5.09 
   1  -2 -11   22.10    3.80 
   1  -2  11    8.64    4.68 
   2   1  11   21.33    3.79 
   2   1  11   19.71    3.99 
  -2  -1 -12   80.68    9.01 
  -2  -1  12   93.43    7.76 
  -1   2 -12  101.95    6.89 
  -1   2  12   93.62    8.42 
   1  -2 -12   99.17    6.65 
   1  -2  12   79.26    8.09 
   2   1  12   98.88    7.02 
  -2  -2   0 3700.71   21.96 
   2  -2   0 4164.43   21.32 
   2  -2   0 3835.25   11.79 
   2   2   0 3789.39   22.16 
  -2  -2  -1   33.57    3.43 
  -2  -2   1   38.46    2.27 
   2  -2  -1   33.92    2.50 
   2  -2   1   35.80    2.50 
   2  -2   1    8.89    0.89 
   2   2  -1   36.60    2.23 
   2   2   1   27.17    3.18 
  -2  -2  -2   61.81    5.20 
   2  -2  -2   78.96    3.50 
   2  -2   2   81.21    3.47 
   2  -2   2   77.76    2.34 
   2   2  -2   70.86    2.30 
   2   2   2   59.50    5.34 
  -2  -2  -3  266.19   11.28 
  -2  -2   3  439.82    5.72 
  -2   2  -3  445.45    5.06 
   2  -2  -3  525.52    8.50 
   2  -2   3  507.07    8.04 
   2  -2   3  448.03    5.45 
   2  -2   3  502.02    6.80 
   2   2   3  309.46   12.13 
  -2  -2  -4 1318.52   11.10 
  -2  -2   4 1318.12   10.76 
  -2   2  -4 1322.65   10.02 
   2  -2  -4 1504.65   14.87 
   2  -2   4 1458.29   14.22 
   2  -2   4 1323.91   10.48 
   2   2   4  754.05   21.84 
  -2  -2  -5  128.20    8.77 
  -2  -2  -5  174.02    4.77 
  -2  -2   5  174.83    4.67 
  -2   2  -5  170.93    4.31 
  -2   2  -5  179.70    4.55 
   2  -2  -5  196.06    6.10 
   2  -2   5  188.01    6.05 
   2  -2   5  171.49    4.55 
   2   2   5  131.89    8.93 
  -2  -2  -6  667.94   15.53 
  -2  -2  -6  769.49   10.83 
  -2  -2   6  793.40   10.85 
  -2   2  -6  771.02   10.29 
  -2   2  -6  766.98   10.72 
   2  -2  -6  845.84   13.06 
   2  -2  -6  796.19   18.13 
   2  -2   6  767.73   12.63 
   2  -2   6  790.86   10.92 
   2   2   6  674.25   15.57 
  -2  -2  -7   71.17    5.98 
  -2  -2  -7   76.96    4.87 
  -2  -2   7   80.87    4.91 
  -2   2  -7   75.28    4.69 
  -2   2  -7   67.52    4.71 
   2  -2  -7   82.88    5.43 
   2  -2  -7   67.66    8.81 
   2  -2   7   80.69    4.96 
   2   2   7   74.49    5.99 
  -2  -2  -8  327.97   10.37 
  -2  -2  -8  347.28   10.42 
  -2  -2   8  381.72   10.83 
  -2   2  -8  301.53    9.83 
   2  -2  -8  374.96   11.08 
   2  -2   8  319.85   10.32 
   2   2   8  331.18   10.40 
  -2  -2  -9    6.91    2.88 
  -2  -2  -9   12.40    4.26 
  -2  -2   9   13.64    4.31 
  -2   2  -9    2.85    3.45 
   2  -2  -9    9.27    3.64 
   2  -2   9    7.48    4.01 
   2   2   9   13.83    3.24 
  -2  -2 -10  255.56    9.17 
  -2  -2 -10  189.33   13.24 
  -2  -2  10  214.53   13.61 
  -2   2 -10  113.45   11.47 
  -2   2  10  261.91   11.39 
   2  -2 -10  241.15    9.96 
   2  -2  10   99.04   10.89 
   2   2  10  258.50    9.21 
  -2  -2 -11    2.55    2.42 
  -2  -2 -11   -9.44    6.74 
  -2  -2  11   -8.13    6.24 
  -2   2 -11   -5.87    3.77 
  -2   2  11   -2.30    3.33 
   2  -2 -11    1.38    2.96 
   2  -2  11   -3.27    4.23 
   2   2  11    1.78    2.59 
   2   2  11   -2.72    4.37 
  -2  -3   0   -0.04    1.63 
   3  -2   0    0.78    1.33 
  -2  -3  -1   10.64    3.41 
  -2  -3   1   20.04    2.57 
   2   3  -1   16.58    2.48 
   3  -2  -1   20.30    2.52 
   3  -2   1   20.40    2.60 
  -2  -3  -2   67.25    7.96 
   3  -2  -2  102.76    4.28 
   3  -2   2  104.51    4.57 
  -2  -3  -3   22.18    7.23 
   3  -2  -3   39.17    3.15 
   3  -2   3   38.78    3.53 
  -2  -3  -4   82.43    9.20 
   3  -2  -4  119.54    4.85 
   3  -2   4  116.84    5.52 
  -3   2  -5  231.89    5.22 
  -2  -3  -5  214.69   10.74 
  -2  -3  -5  224.15    5.40 
  -2  -3   5  230.33    5.73 
   3  -2  -5  258.21    7.07 
   3  -2   5  247.54    8.10 
  -2  -3  -6    5.21    3.26 
  -2  -3   6    6.34    1.80 
   3  -2  -6    7.37    2.29 
   3  -2   6    8.26    3.22 
  -2  -3  -7  258.64   10.24 
  -2  -3   7  295.31    7.94 
   3  -2  -7  316.52    8.76 
   3  -2   7  247.13   10.45 
  -2  -3  -8   46.30    5.62 
  -2  -3   8   53.83    4.88 
   3  -2  -8   49.10    5.01 
  -2  -3  -9  127.61    7.70 
  -2  -3   9  126.65    7.63 
   2   3   9  128.25    7.54 
  -2  -3 -10  110.68    7.27 
  -2  -3  10  117.75    9.04 
   2   3  10  104.38    7.20 
  -1  -3   0   -5.39    6.45 
   1   3   0    3.85    0.68 
   3  -1   0    7.58    1.55 
  -1  -3  -1   50.32    9.68 
  -1  -3   1   55.71    7.79 
   1   3   1  123.42    2.77 
   3  -1  -1  125.44    3.96 
   3  -1   1  126.79    4.24 
  -1  -3  -2 1333.70   28.66 
  -1  -3   2 1163.64   19.73 
   3  -1  -2 2524.98   16.41 
   3  -1   2 2477.61   18.06 
  -1  -3  -3  129.43    9.58 
   3  -1  -3  224.76    5.25 
   3  -1   3  219.61    6.11 
  -1  -3  -4  255.14   11.45 
  -1  -3  -4  366.31    5.44 
  -1  -3   4  361.69    6.39 
   3  -1  -4  388.78    6.93 
   3  -1   4  387.58    8.65 
  -3   1  -5  295.86    6.08 
  -1  -3  -5  223.64   10.18 
  -1  -3  -5  305.74    5.82 
  -1  -3   5  304.14    6.44 
   3  -1  -5  336.08    6.80 
   3  -1   5  311.41    8.80 
  -1  -3  -6  369.58   12.23 
  -1  -3  -6  490.02    8.91 
  -1  -3   6  469.09    8.71 
   1   3  -6  535.04   15.62 
   3  -1  -6  517.70    8.78 
   3  -1   6  437.03   11.59 
  -1  -3  -7   14.55    3.85 
  -1  -3  -7   15.14    3.07 
  -1  -3   7   12.95    2.46 
   3  -1   7   11.11    4.09 
  -1  -3  -8  464.92   13.09 
  -1  -3  -8  570.14   14.24 
  -1  -3   8  560.57   12.16 
   3  -1   8  234.38   12.54 
  -1  -3  -9    3.03    2.81 
  -1  -3  -9    1.53    4.35 
  -1  -3   9    1.43    2.85 
   3  -1   9   -2.59    4.80 
  -1  -3 -10  317.05   10.91 
  -1  -3 -10  269.91   19.03 
  -1  -3  10  309.09   13.23 
  -3   1 -11    3.27    5.47 
  -1  -3 -11   15.16    3.86 
  -1  -3 -11    9.61    6.77 
  -1  -3  11    4.92    5.90 
   0  -3   0    3.34    2.80 
   3   0   0    1.82    1.03 
   0  -3  -1   20.13    4.03 
   0  -3   1   25.58    4.26 
   3   0  -1   18.51    1.89 
   3   0   1   21.26    2.18 
   0  -3  -2  155.08    8.53 
   0  -3   2  152.76    7.96 
   3   0  -2  112.63    3.37 
   3   0   2  120.29    4.37 
   0  -3  -3   52.89    6.57 
   3   0  -3   43.24    2.35 
   3   0   3   45.60    3.54 
  -3   0  -4  133.80    3.96 
   0  -3  -4  108.83    8.43 
   0  -3   4  126.39    3.88 
   3   0  -4  132.67    3.68 
   3   0   4  135.32    5.83 
  -3   0  -5  271.90    6.04 
   0  -3  -5  197.01   11.17 
   0  -3   5  278.65    6.13 
   3   0  -5  288.96    5.38 
   3   0   5  261.98    8.86 
   0  -3  -6    5.41    4.56 
   0  -3  -6   10.60    2.96 
   0  -3   6    6.38    1.69 
   3   0   6    2.42    3.18 
   0  -3  -7  130.88   10.98 
   0  -3  -7  332.32   12.74 
   0  -3   7  335.27    8.37 
   3   0   7  144.52   10.39 
   0  -3  -8   23.57    5.53 
   0  -3  -8   51.78    9.51 
   0  -3   8   55.09    4.81 
   3   0   8   12.12    5.42 
   3   0   8   49.73    5.66 
   0  -3  -9   83.25    7.69 
   0  -3  -9  149.07   12.18 
   0  -3   9  141.26    8.17 
   3   0   9   97.48    8.26 
   3   0   9  139.70    7.84 
   0  -3 -10   96.64    7.61 
   0  -3 -10  125.86    9.52 
   0  -3  10  107.95    9.32 
   3   0  10  103.21    7.51 
  -3   0 -11    3.18    5.82 
   0  -3 -11   13.54    3.91 
   0  -3 -11   15.06    4.39 
   0  -3  11    5.79    6.09 
   1  -3   0    6.97    1.95 
   3   1   0    4.66    1.26 
   1  -3  -1  168.96    6.13 
   1  -3   1  168.83    5.80 
   3   1  -1  120.89    3.49 
   3   1   1  126.79    4.33 
   1  -3  -2 3085.56   25.44 
   1  -3   2 3087.33   22.85 
   3   1  -2 2320.08   13.37 
   3   1   2 2520.65   19.99 
   1  -3  -3  285.53    8.60 
   1  -3   3  272.05    7.30 
   3   1  -3  198.22    3.90 
   3   1   3  215.18    7.07 
   1  -3  -4  462.65   11.46 
   1  -3   4  370.17    6.34 
   3   1   4  348.46   10.22 
   1  -3  -5  366.71   11.21 
   1  -3   5  314.53    6.43 
   3   1   5  250.59   10.74 
   1  -3  -6  514.78   14.16 
   1  -3   6  477.52    8.69 
   3   1   6  209.68   11.94 
   1  -3  -7   10.41    4.08 
   1  -3   7   17.34    2.77 
   3   1   7    4.65    5.18 
   1  -3  -8  397.95   15.27 
   1  -3   8  568.22   12.19 
   3   1   8  405.70   14.31 
   3   1   8  550.26   13.20 
   1  -3  -9    5.61    4.82 
   1  -3   9    8.21    3.39 
   3   1   9    1.42    3.18 
   3   1   9    9.07    3.27 
   1  -3 -10  128.12   11.35 
   1  -3  10  282.90   12.70 
   3   1  10  311.23   10.99 
   3   1  10  345.42   10.72 
   1  -3 -11    9.76    4.49 
   1  -3  11   -0.53    5.14 
   3   1  11   11.54    3.72 
   3   1  11   12.58    3.61 
   2  -3   0    0.67    1.48 
   3   2   0    1.01    1.16 
  -3  -2  -1   16.79    2.45 
   2  -3  -1   17.57    2.55 
   2  -3   1   22.68    2.94 
   3   2  -1   17.08    1.95 
   3   2   1   16.32    2.36 
  -3  -2  -2   99.69    5.27 
   2  -3  -2  113.12    5.06 
   2  -3   2  114.32    4.93 
   3   2  -2   98.39    3.18 
   3   2   2   98.10    5.29 
  -3  -2  -3   32.05    4.18 
   2  -3  -3   39.11    3.72 
   2  -3   3   41.18    3.65 
   3   2   3   39.33    4.77 
  -3  -2  -4   82.45    7.22 
   2  -3  -4  131.70    5.95 
   2  -3   4  137.56    6.01 
   3   2   4   92.29    7.54 
  -3  -2  -5  115.20    9.68 
   2  -3  -5  262.99    8.46 
   2  -3   5  279.88    9.08 
   2  -3   5  239.05    5.63 
   3   2   5  128.55   10.23 
  -3  -2  -6   -0.57    4.86 
   2  -3  -6    8.05    2.88 
   2  -3   6    4.50    1.62 
   3   2   6    2.28    5.12 
  -3  -2  -7  221.51   11.42 
   2  -3  -7  316.45   10.80 
   2  -3   7  294.73    7.71 
   3   2   7  218.32   11.49 
  -3  -2  -8   48.06    6.45 
   2  -3  -8   47.53    6.06 
   2  -3   8   50.69    4.64 
   3   2   8   45.46    5.94 
  -3  -2  -9  125.81    8.02 
   2  -3  -9  116.68    9.02 
   2  -3   9  119.79    7.29 
   3   2   9  119.31    7.94 
  -3  -2 -10   97.87    7.06 
   2  -3 -10   84.67    9.26 
   2  -3  10   91.63    8.35 
   3   2  10  106.56    7.30 
  -3  -3   0    0.53    1.44 
   3  -3   0    2.97    1.93 
   3   3   0    0.76    1.45 
  -3  -3  -1  106.58    5.57 
   3  -3  -1  108.46    5.20 
   3  -3   1  117.82    5.44 
   3   3   1  103.01    5.52 
  -3  -3  -2 1524.07   21.40 
   3  -3  -2 1809.65   18.92 
   3  -3   2 1825.91   19.32 
   3   3   2 1564.05   21.67 
  -3  -3  -3  121.26    8.16 
   3  -3  -3  141.71    5.98 
   3  -3   3  153.19    6.60 
   3   3   3  111.78    8.09 
  -3  -3  -4  129.69   10.40 
   3  -3  -4  252.21    7.86 
   3  -3   4  267.58    8.76 
   3   3   4  155.11   11.29 
  -3  -3  -5   93.51   11.85 
   3  -3  -5  268.02    8.47 
   3  -3   5  260.51    9.37 
   3   3   5  144.47   13.87 
  -3  -3  -6  217.92   12.76 
   3  -3  -6  336.87    9.93 
   3   3   6  236.42   13.35 
  -3  -3  -7    7.21    4.02 
  -3  -3   7    6.32    2.15 
   3  -3  -7    7.25    2.96 
   3   3   7    8.77    4.20 
  -3  -3  -8  336.08   12.63 
   3  -3  -8  414.40   12.45 
   3   3   8  352.12   13.03 
  -3  -3  -9    0.01    2.84 
   3  -3  -9    1.87    3.46 
   3   3   9    4.28    3.48 
   4  -3   0   -0.22    1.94 
   3   4   1   12.80    3.41 
   4  -3  -1   10.22    2.75 
   4  -3   1    9.98    2.75 
  -3  -4  -2   50.80    6.33 
   3   4   2   54.81    6.61 
   4  -3  -2   62.37    4.85 
   4  -3   2   65.16    5.39 
  -3  -4  -3   16.01    5.00 
   3   4   3   18.54    5.50 
   4  -3  -3   23.94    3.56 
   4  -3   3   25.39    4.14 
  -3  -4  -4   31.96    7.70 
   3   4   4   40.82    8.74 
   4  -3  -4   75.57    5.36 
   4  -3   4   79.44    6.35 
  -3  -4  -5   68.99   11.55 
   3   4   5  117.45   13.99 
   4  -3  -5  157.03    7.17 
   4  -3   5  147.41    8.59 
  -3  -4  -6    5.70    4.49 
   3   4   6    5.90    4.85 
   4  -3  -6    2.69    2.60 
   4  -3   6    2.31    3.84 
  -3  -4  -7  155.72   10.57 
   3   4   7  185.15   11.29 
   4  -3  -7  199.80    8.63 
   4  -2   0 2014.01   19.20 
  -2  -4  -1    9.12    4.42 
   4  -2  -1    9.33    2.24 
   4  -2   1   15.04    2.62 
  -2  -4  -2   15.40    6.40 
   4  -2  -2   24.22    3.05 
   4  -2   2   32.13    3.80 
  -2  -4  -3  171.32   17.87 
   4  -2  -3  298.51    7.82 
   4  -2   3  302.74    8.77 
  -2  -4  -4  540.71   19.13 
   4  -2  -4  730.41   12.01 
   4  -2   4  726.10   13.84 
  -2  -4  -5   71.38    8.00 
   4  -2  -5   90.22    5.00 
   4  -2   5   87.57    6.44 
  -2  -4  -6  352.06   13.31 
   4  -2  -6  436.27   10.03 
   4  -2   6  395.79   12.71 
  -2  -4  -7   53.39    6.78 
   4  -2  -7   59.52    5.01 
   4  -2   7   42.18    6.79 
  -2  -4  -8  168.04    9.43 
   4  -2   8  100.71   10.66 
  -2  -4  -9   11.11    3.83 
  -2  -4   9   10.65    3.37 
  -1  -4   0    5.73    9.73 
   4  -1   0    0.42    1.44 
  -1  -4  -1    4.40    7.45 
   4  -1  -1   13.53    2.23 
   4  -1   1   13.78    2.38 
  -1  -4  -2   45.95    9.06 
   4  -1  -2   83.99    4.13 
   4  -1   2   83.55    4.58 
  -1  -4  -3   15.05    5.50 
   4  -1  -3   28.87    2.95 
   4  -1   3   31.37    3.70 
  -1  -4  -4   62.13    8.28 
   4  -1  -4   92.68    4.34 
   4  -1   4   91.20    5.65 
  -1  -4  -5  139.89    9.87 
   4  -1  -5  200.40    6.10 
   4  -1   5  194.39    8.33 
  -1  -4  -6    1.23    3.35 
   4  -1  -6    5.17    2.05 
   4  -1   6    6.94    3.64 
  -1  -4  -7  190.49   10.33 
  -1  -4   7  230.64    7.53 
   4  -1   7  178.92   10.68 
  -1  -4  -8   31.27    5.47 
  -1  -4   8   39.55    4.55 
   4  -1   8   15.92    6.40 
  -1  -4  -9  101.33    8.07 
  -1  -4   9  118.66    7.45 
   4  -1   9   17.48    7.07 
   0  -4   0 2293.25   38.05 
   4   0   0 2244.66   17.71 
   0  -4  -1   19.21    6.17 
   0  -4   1   21.24    6.36 
   4   0  -1   21.46    2.64 
   4   0   1   15.43    2.37 
   0  -4  -2   41.31    7.15 
   4   0  -2   35.56    2.87 
   4   0   2   35.62    3.62 
   0  -4  -3  294.67   14.97 
   4   0  -3  321.58    6.44 
   4   0   3  340.21    8.80 
   0  -4  -4  657.85   21.35 
   4   0  -4  838.20   10.11 
   4   0   4  825.35   14.51 
   0  -4  -5   69.38    9.34 
   4   0   5   99.06    6.73 
   0  -4  -6  259.16   15.70 
   4   0   6  406.74   13.66 
   0  -4  -7   24.79    7.29 
   0  -4   7   64.23    4.62 
   4   0   7   35.37    6.76 
   0  -4  -8   97.15   10.15 
   0  -4   8  234.81    8.38 
   4   0   8   46.02    9.19 
   0  -4  -9    2.71    3.94 
   0  -4   9   10.50    3.50 
   4   0   9   -0.97    5.00 
   0  -4 -10  131.46    9.67 
   1  -4   0   -0.21    2.43 
   4   1   0   -0.32    1.32 
   1  -4  -1   24.96    4.57 
   1  -4   1   20.77    4.29 
   4   1  -1   13.70    1.99 
   4   1   1   16.10    2.50 
   1  -4  -2  100.32    7.25 
   1  -4   2  114.36    7.90 
   4   1  -2   82.37    3.50 
   4   1   2   81.64    4.77 
   1  -4  -3   39.30    5.52 
   4   1   3   29.99    3.80 
   1  -4  -4  106.39    8.17 
   4   1   4   92.85    6.18 
   1  -4  -5  220.13   11.08 
   4   1   5  175.08    9.18 
   1  -4  -6    5.37    4.17 
   4   1   6    5.67    4.16 
   1  -4  -7  198.57   12.44 
   1  -4   7  243.52    7.55 
   4   1   7   82.07   10.33 
   1  -4  -8   27.79    6.77 
   1  -4   8   45.70    4.77 
   4   1   8   13.54    6.92 
   1  -4  -9   43.43    8.49 
   1  -4   9  112.36    7.21 
   4   1   9   77.41    9.14 
   2  -4   0 2430.74   25.37 
   4   2   0 1910.56   17.08 
   2  -4  -1   11.78    3.10 
   2  -4   1   18.58    3.58 
   4   2  -1   12.75    1.96 
   4   2   1    7.94    2.13 
   2  -4  -2   33.55    4.36 
   2  -4   2   34.47    4.57 
   4   2   2   27.45    3.47 
   2  -4  -3  347.05   10.71 
   2  -4   3  360.73   11.08 
   4   2   3  288.56    9.53 
   2  -4  -4  818.10   16.48 
   4   2   4  659.10   15.64 
   2  -4  -5  108.27    7.42 
   4   2   5   72.31    8.10 
   2  -4  -6  464.81   14.15 
   4   2   6  217.04   13.58 
   2  -4  -7   59.76    7.44 
   4   2   7   13.04    7.59 
   2  -4  -8  181.71   11.33 
   2  -4   8  182.70    7.42 
   4   2   8  124.27   11.15 
   2  -4  -9   11.11    5.27 
   2  -4   9   13.66    3.40 
   4   2   9    5.30    4.56 
   3  -4   0    1.88    2.43 
   3  -4  -1   14.57    3.38 
   3  -4   1   14.29    3.35 
   4   3   1   10.44    2.49 
   3  -4  -2   67.59    5.47 
   3  -4   2   79.22    6.09 
   4   3   2   59.00    5.18 
   3  -4  -3   25.31    4.01 
   3  -4   3   28.74    4.72 
   4   3   3   18.96    4.02 
  -4  -3  -4   54.32    6.92 
   3  -4  -4   78.76    6.11 
   3  -4   4   90.42    7.27 
   4   3   4   58.58    7.06 
  -4  -3  -5   96.14    9.89 
   3  -4  -5  155.24    8.24 
   4   3   5  100.86   10.19 
  -4  -3  -6   -0.48    5.54 
   3  -4  -6    7.06    3.44 
   4   3   6   -1.21    6.08 
  -4  -3  -7   92.52   11.36 
   3  -4  -7  208.07   10.18 
   4   3   7  101.91   12.20 
   4  -4   0 1296.71   20.25 
   4  -4  -1    6.86    3.13 
   4  -4   1   10.28    3.42 
   4  -4  -2   12.15    3.43 
   4  -4   2   13.97    3.87 
   4   4   2   11.98    3.47 
  -4  -4  -3  188.10   10.11 
   4  -4  -3  210.26    9.05 
   4  -4   3  231.15   10.18 
   4   4   3  187.92   10.16 
  -4  -4  -4  330.75   14.75 
   4  -4  -4  455.26   12.77 
   4  -4   4  443.55   14.40 
   4   4   4  367.94   15.45 
  -4  -4  -5   14.67    6.47 
   4  -4  -5   50.29    6.05 
   4   4   5   38.90    8.32 
   5  -3   0    0.59    2.53 
   5  -3  -1   69.14    5.85 
   5  -3   1   76.09    6.23 
   5  -3  -2  870.75   15.96 
   5  -3   2  860.32   16.92 
  -3  -5  -3   38.26    7.82 
   3   5   3   45.94    8.54 
   5  -3  -3   60.13    5.74 
   5  -3   3   64.97    6.71 
  -3  -5  -4   46.22   10.09 
   3   5   4   87.54   13.01 
   5  -3  -4  115.99    6.94 
   5  -3   4  101.65    8.18 
   5  -2   0    0.58    2.21 
   5  -2  -1   11.09    2.87 
   5  -2   1    9.26    2.93 
  -2  -5  -2   28.72    8.83 
   5  -2  -2   54.63    4.66 
   5  -2   2   55.41    5.17 
  -2  -5  -3    3.93    9.15 
   5  -2  -3   19.52    3.40 
   5  -2   3   21.43    3.98 
  -2  -5  -4   39.02    8.24 
   5  -2  -4   62.40    5.13 
   5  -2   4   62.44    6.14 
  -2  -5  -5   91.93    9.69 
   5  -2  -5  124.10    6.41 
   5  -2   5  119.97    8.47 
  -2  -5  -6    1.31    3.88 
   5  -2  -6    4.40    2.59 
   5  -2   6    0.40    3.90 
   5  -1   0    0.51    1.94 
  -1  -5  -1   36.84   14.26 
   5  -1  -1   84.18    5.01 
   5  -1   1   79.09    5.11 
  -1  -5  -2  685.52   26.73 
   5  -1  -2 1122.95   14.75 
   5  -1   2 1105.11   16.40 
  -1  -5  -3   61.63    9.71 
   5  -1  -3   87.14    4.96 
   5  -1   3   81.12    5.97 
  -1  -5  -4  115.78   11.11 
   5  -1  -4  151.36    6.08 
   5  -1   4  148.12    7.80 
  -1  -5  -5  128.30   10.65 
   5  -1  -5  199.55    7.28 
   5  -1   5  194.42    9.61 
  -1  -5  -6  162.79   11.04 
   5  -1   6  185.23   10.46 
  -1  -5  -7    3.36    3.80 
   5  -1   7    1.63    4.68 
   0  -5   0    0.12    7.73 
   5   0   0   -0.85    1.67 
   0  -5  -1    8.25    7.71 
   5   0  -1   10.41    2.48 
   5   0   1   13.30    2.80 
   0  -5  -2   52.81   10.54 
   5   0  -2   58.80    4.05 
   5   0   2   59.43    4.84 
   0  -5  -3   14.43    7.43 
   5   0  -3   19.24    2.87 
   5   0   3   18.51    3.62 
   0  -5  -4   41.94    9.65 
   5   0   4   70.33    6.28 
   0  -5  -5   62.51   11.12 
   5   0   5  130.04    8.40 
   0  -5  -6   -0.72    5.81 
   5   0   6    6.41    4.26 
   0  -5  -7   93.87   11.60 
   5   0   7  124.28   11.27 
   1  -5   0    2.07    4.66 
   5   1   0    1.27    1.85 
   1  -5  -1   99.77   10.32 
   5   1  -1   76.31    4.35 
   5   1   1   75.42    4.93 
   1  -5  -2 1405.61   29.62 
   5   1   2 1120.31   16.38 
   1  -5  -3   94.62   10.11 
   5   1   3   84.94    6.18 
   1  -5  -4  163.49   12.25 
   5   1   4  156.32    8.31 
   1  -5  -5  164.98   12.80 
   5   1   5  182.27   10.01 
   1  -5  -6  175.08   13.41 
   5   1   6  174.71   11.29 
   1  -5  -7   -0.10    5.25 
   5   1   7    0.57    5.48 
   2  -5   0    1.89    3.43 
   5   2   0   -1.10    1.71 
   2  -5  -1   16.89    4.59 
   2  -5   1   15.00    4.76 
   5   2   1    6.37    2.43 
   2  -5  -2   62.84    7.30 
   5   2   2   50.20    4.98 
   2  -5  -3   25.00    5.42 
   5   2   3   18.84    3.93 
   2  -5  -4   60.89    7.56 
   5   2   4   62.04    6.67 
   2  -5  -5  140.26   10.26 
   5   2   5  108.66    9.00 
   2  -5  -6    2.18    4.29 
   5   2   6    4.76    5.03 
   3  -5   0    2.47    3.36 
   3  -5  -1   76.96    7.41 
   3  -5   1   82.83    7.87 
   3  -5  -2  951.55   20.07 
   3  -5   2  975.12   21.54 
   5   3   2  776.26   15.13 
   3  -5  -3   68.16    7.11 
   5   3   3   57.22    6.27 
   3  -5  -4  125.68    8.96 
   5   3   4  103.05    8.48 
   6  -1   0   -1.35    2.36 
   6  -1  -1    7.63    2.94 
   6  -1   1    9.07    3.14 
   6  -1  -2   35.73    4.44 
   6  -1   2   34.47    4.95 
   6   0   0  943.87   15.50 
   6   0  -1    3.28    2.50 
   6   0   1    4.87    2.84 
   0  -6  -2    6.72   10.31 
   6   0  -2    8.09    2.75 
   6   0   2    4.70    3.09 
   6   1   0   -1.77    2.14 
   1  -6  -1    7.39    7.99 
   6   1   1    4.80    2.78 
   1  -6  -2   47.69   10.88 
   6   1   2   31.67    4.63 
   0   0   0    0.00    0.00 
;
_shelx_hkl_checksum              41187
loop_
_space_group_symop_operation_xyz
'x, y, z'
'-x+1/2, -y+1/2, z'
'-y+1/2, x, z'
'y, -x+1/2, z'
'-x, y+1/2, -z'
'x+1/2, -y, -z'
'y+1/2, x+1/2, -z'
'-y, -x, -z'
'-x, -y, -z'
'x-1/2, y-1/2, -z'
'y-1/2, -x, -z'
'-y, x-1/2, -z'
'x, -y-1/2, z'
'-x-1/2, y, z'
'-y-1/2, -x-1/2, z'
'y, x, z'
loop_
_atom_site_label
_atom_site_type_symbol
_atom_site_fract_x
_atom_site_fract_y
_atom_site_fract_z
_atom_site_U_iso_or_equiv
_atom_site_adp_type
_atom_site_occupancy
_atom_site_site_symmetry_order
_atom_site_calc_flag
_atom_site_refinement_flags_posn
_atom_site_refinement_flags_adp
_atom_site_refinement_flags_occupancy
_atom_site_disorder_assembly
_atom_site_disorder_group
Bi1 Bi 0.2500 0.2500 0.81824(12) 0.0153(4) Uani 1 8 d S T P . .
Pr2 Pr -0.2500 -0.2500 0.76250(15) 0.0111(4) Uani 1 8 d S T P . .
Bi3 Bi 0.7500 0.2500 0.5000 0.0117(4) Uani 1 8 d S T P . .
Au4 Au 0.7500 0.2500 0.0000 0.0190(4) Uani 1 8 d S T P . .
loop_
_atom_site_aniso_label
_atom_site_aniso_U_11
_atom_site_aniso_U_22
_atom_site_aniso_U_33
_atom_site_aniso_U_23
_atom_site_aniso_U_13
_atom_site_aniso_U_12
Bi1 0.0081(4) 0.0081(4) 0.0297(7) 0.000 0.000 0.000
Pr2 0.0097(6) 0.0097(6) 0.0138(8) 0.000 0.000 0.000
Bi3 0.0109(5) 0.0109(5) 0.0133(5) 0.000 0.000 0.000
Au4 0.0201(6) 0.0201(6) 0.0168(7) 0.000 0.000 0.000
loop_
_atom_type_symbol
_atom_type_description
_atom_type_scat_dispersion_real
_atom_type_scat_dispersion_imag
_atom_type_scat_source
Pr Pr -0.2180 2.8214 'International Tables Vol C Tables 4.2.6.8 and 6.1.1.4'
Au Au -2.0133 8.8022 'International Tables Vol C Tables 4.2.6.8 and 6.1.1.4'
Bi Bi -4.1077 10.2566 'International Tables Vol C Tables 4.2.6.8 and 6.1.1.4'
loop_
_geom_angle_atom_site_label_1
_geom_angle_atom_site_label_2
_geom_angle_atom_site_label_3
_geom_angle
_geom_angle_site_symmetry_1
_geom_angle_site_symmetry_3
Au4 Bi1 Au4 67.93(2) 9_666 1_556
Au4 Bi1 Au4 104.38(4) 9_666 9_656
Au4 Bi1 Au4 67.93(2) 1_556 9_656
Au4 Bi1 Au4 67.93(2) 9_666 1_456
Au4 Bi1 Au4 104.38(4) 1_556 1_456
Au4 Bi1 Au4 67.93(2) 9_656 1_456
Au4 Bi1 Pr2 130.74(3) 9_666 .
Au4 Bi1 Pr2 130.74(3) 1_556 .
Au4 Bi1 Pr2 63.31(2) 9_656 .
Au4 Bi1 Pr2 63.31(2) 1_456 .
Au4 Bi1 Pr2 63.31(2) 9_666 1_665
Au4 Bi1 Pr2 63.31(2) 1_556 1_665
Au4 Bi1 Pr2 130.74(3) 9_656 1_665
Au4 Bi1 Pr2 130.74(3) 1_456 1_665
Pr2 Bi1 Pr2 160.90(7) . 1_665
Au4 Bi1 Pr2 130.74(3) 9_666 1_655
Au4 Bi1 Pr2 63.31(2) 1_556 1_655
Au4 Bi1 Pr2 63.31(2) 9_656 1_655
Au4 Bi1 Pr2 130.74(3) 1_456 1_655
Pr2 Bi1 Pr2 88.422(11) . 1_655
Pr2 Bi1 Pr2 88.422(11) 1_665 1_655
Au4 Bi1 Pr2 63.31(2) 9_666 1_565
Au4 Bi1 Pr2 130.74(3) 1_556 1_565
Au4 Bi1 Pr2 130.74(3) 9_656 1_565
Au4 Bi1 Pr2 63.31(2) 1_456 1_565
Pr2 Bi1 Pr2 88.422(11) . 1_565
Pr2 Bi1 Pr2 88.422(11) 1_665 1_565
Pr2 Bi1 Pr2 160.90(7) 1_655 1_565
Au4 Pr2 Au4 59.54(2) 9_656 1_456
Au4 Pr2 Au4 89.21(4) 9_656 9_556
Au4 Pr2 Au4 59.54(2) 1_456 9_556
Au4 Pr2 Au4 59.54(2) 9_656 1_446
Au4 Pr2 Au4 89.21(4) 1_456 1_446
Au4 Pr2 Au4 59.54(2) 9_556 1_446
Au4 Pr2 Bi1 52.569(19) 9_656 .
Au4 Pr2 Bi1 52.569(19) 1_456 .
Au4 Pr2 Bi1 111.81(4) 9_556 .
Au4 Pr2 Bi1 111.81(4) 1_446 .
Au4 Pr2 Bi1 111.81(4) 9_656 1_445
Au4 Pr2 Bi1 111.81(4) 1_456 1_445
Au4 Pr2 Bi1 52.569(19) 9_556 1_445
Au4 Pr2 Bi1 52.569(19) 1_446 1_445
Bi1 Pr2 Bi1 160.90(7) . 1_445
Au4 Pr2 Bi1 52.569(19) 9_656 1_545
Au4 Pr2 Bi1 111.81(4) 1_456 1_545
Au4 Pr2 Bi1 111.81(4) 9_556 1_545
Au4 Pr2 Bi1 52.569(19) 1_446 1_545
Bi1 Pr2 Bi1 88.422(11) . 1_545
Bi1 Pr2 Bi1 88.422(11) 1_445 1_545
Au4 Pr2 Bi1 111.81(4) 9_656 1_455
Au4 Pr2 Bi1 52.569(19) 1_456 1_455
Au4 Pr2 Bi1 52.569(19) 9_556 1_455
Au4 Pr2 Bi1 111.81(4) 1_446 1_455
Bi1 Pr2 Bi1 88.422(11) . 1_455
Bi1 Pr2 Bi1 88.422(11) 1_445 1_455
Bi1 Pr2 Bi1 160.90(7) 1_545 1_455
Au4 Pr2 Bi3 122.086(4) 9_656 1_445
Au4 Pr2 Bi3 177.14(4) 1_456 1_445
Au4 Pr2 Bi3 122.086(4) 9_556 1_445
Au4 Pr2 Bi3 93.649(5) 1_446 1_445
Bi1 Pr2 Bi3 126.02(3) . 1_445
Bi1 Pr2 Bi3 70.09(2) 1_445 1_445
Bi1 Pr2 Bi3 70.09(2) 1_545 1_445
Bi1 Pr2 Bi3 126.02(3) 1_455 1_445
Au4 Pr2 Bi3 177.14(4) 9_656 9_556
Au4 Pr2 Bi3 122.086(4) 1_456 9_556
Au4 Pr2 Bi3 93.649(5) 9_556 9_556
Au4 Pr2 Bi3 122.086(4) 1_446 9_556
Bi1 Pr2 Bi3 126.02(3) . 9_556
Bi1 Pr2 Bi3 70.09(2) 1_445 9_556
Bi1 Pr2 Bi3 126.02(3) 1_545 9_556
Bi1 Pr2 Bi3 70.09(2) 1_455 9_556
Bi3 Pr2 Bi3 56.17(2) 1_445 9_556
Au4 Pr2 Bi3 93.649(6) 9_656 9_656
Au4 Pr2 Bi3 122.086(4) 1_456 9_656
Au4 Pr2 Bi3 177.14(4) 9_556 9_656
Au4 Pr2 Bi3 122.086(4) 1_446 9_656
Bi1 Pr2 Bi3 70.09(2) . 9_656
Bi1 Pr2 Bi3 126.02(3) 1_445 9_656
Bi1 Pr2 Bi3 70.09(2) 1_545 9_656
Bi1 Pr2 Bi3 126.02(3) 1_455 9_656
Bi3 Pr2 Bi3 56.17(2) 1_445 9_656
Bi3 Pr2 Bi3 83.49(3) 9_556 9_656
Au4 Pr2 Bi3 122.086(4) 9_656 1_455
Au4 Pr2 Bi3 93.649(6) 1_456 1_455
Au4 Pr2 Bi3 122.086(4) 9_556 1_455
Au4 Pr2 Bi3 177.14(4) 1_446 1_455
Bi1 Pr2 Bi3 70.09(2) . 1_455
Bi1 Pr2 Bi3 126.02(3) 1_445 1_455
Bi1 Pr2 Bi3 126.02(3) 1_545 1_455
Bi1 Pr2 Bi3 70.09(2) 1_455 1_455
Bi3 Pr2 Bi3 83.49(3) 1_445 1_455
Bi3 Pr2 Bi3 56.17(2) 9_556 1_455
Bi3 Pr2 Bi3 56.17(2) 9_656 1_455
Bi3 Bi3 Bi3 180.0 9_766 9_656
Bi3 Bi3 Bi3 90.0 9_766 9_666
Bi3 Bi3 Bi3 90.0 9_656 9_666
Bi3 Bi3 Bi3 90.0 9_766 9_756
Bi3 Bi3 Bi3 90.0 9_656 9_756
Bi3 Bi3 Bi3 180.0 9_666 9_756
Bi3 Bi3 Pr2 118.087(10) 9_766 9_556
Bi3 Bi3 Pr2 61.913(10) 9_656 9_556
Bi3 Bi3 Pr2 61.913(10) 9_666 9_556
Bi3 Bi3 Pr2 118.087(10) 9_756 9_556
Bi3 Bi3 Pr2 61.913(10) 9_766 1_665
Bi3 Bi3 Pr2 118.087(10) 9_656 1_665
Bi3 Bi3 Pr2 61.913(10) 9_666 1_665
Bi3 Bi3 Pr2 118.087(10) 9_756 1_665
Pr2 Bi3 Pr2 123.83(2) 9_556 1_665
Bi3 Bi3 Pr2 118.087(10) 9_766 1_655
Bi3 Bi3 Pr2 61.913(10) 9_656 1_655
Bi3 Bi3 Pr2 118.087(10) 9_666 1_655
Bi3 Bi3 Pr2 61.913(10) 9_756 1_655
Pr2 Bi3 Pr2 123.83(2) 9_556 1_655
Pr2 Bi3 Pr2 83.49(3) 1_665 1_655
Bi3 Bi3 Pr2 61.913(10) 9_766 9_656
Bi3 Bi3 Pr2 118.087(10) 9_656 9_656
Bi3 Bi3 Pr2 118.087(10) 9_666 9_656
Bi3 Bi3 Pr2 61.913(10) 9_756 9_656
Pr2 Bi3 Pr2 83.49(3) 9_556 9_656
Pr2 Bi3 Pr2 123.83(2) 1_665 9_656
Pr2 Bi3 Pr2 123.83(2) 1_655 9_656
Bi1 Au4 Bi1 112.07(2) 9_666 1_554
Bi1 Au4 Bi1 112.07(2) 9_666 1_654
Bi1 Au4 Bi1 104.38(4) 1_554 1_654
Bi1 Au4 Bi1 104.38(4) 9_666 9_656
Bi1 Au4 Bi1 112.07(2) 1_554 9_656
Bi1 Au4 Bi1 112.07(2) 1_654 9_656
Bi1 Au4 Au4 56.036(10) 9_666 9_765
Bi1 Au4 Au4 123.964(10) 1_554 9_765
Bi1 Au4 Au4 56.036(10) 1_654 9_765
Bi1 Au4 Au4 123.964(10) 9_656 9_765
Bi1 Au4 Au4 123.964(10) 9_666 9_655
Bi1 Au4 Au4 56.036(10) 1_554 9_655
Bi1 Au4 Au4 123.964(10) 1_654 9_655
Bi1 Au4 Au4 56.036(10) 9_656 9_655
Au4 Au4 Au4 180.0 9_765 9_655
Bi1 Au4 Au4 56.036(10) 9_666 9_665
Bi1 Au4 Au4 56.036(10) 1_554 9_665
Bi1 Au4 Au4 123.964(10) 1_654 9_665
Bi1 Au4 Au4 123.964(10) 9_656 9_665
Au4 Au4 Au4 90.0 9_765 9_665
Au4 Au4 Au4 90.0 9_655 9_665
Bi1 Au4 Au4 123.964(10) 9_666 9_755
Bi1 Au4 Au4 123.964(10) 1_554 9_755
Bi1 Au4 Au4 56.036(10) 1_654 9_755
Bi1 Au4 Au4 56.036(10) 9_656 9_755
Au4 Au4 Au4 90.0 9_765 9_755
Au4 Au4 Au4 90.0 9_655 9_755
Au4 Au4 Au4 180.0 9_665 9_755
Bi1 Au4 Pr2 172.41(3) 9_666 1_654
Bi1 Au4 Pr2 64.123(15) 1_554 1_654
Bi1 Au4 Pr2 64.123(15) 1_654 1_654
Bi1 Au4 Pr2 83.20(3) 9_656 1_654
Au4 Au4 Pr2 119.772(11) 9_765 1_654
Au4 Au4 Pr2 60.228(11) 9_655 1_654
Au4 Au4 Pr2 119.771(11) 9_665 1_654
Au4 Au4 Pr2 60.229(11) 9_755 1_654
Bi1 Au4 Pr2 64.123(15) 9_666 9_656
Bi1 Au4 Pr2 172.41(3) 1_554 9_656
Bi1 Au4 Pr2 83.20(3) 1_654 9_656
Bi1 Au4 Pr2 64.123(15) 9_656 9_656
Au4 Au4 Pr2 60.229(11) 9_765 9_656
Au4 Au4 Pr2 119.772(11) 9_655 9_656
Au4 Au4 Pr2 119.771(11) 9_665 9_656
Au4 Au4 Pr2 60.229(11) 9_755 9_656
Pr2 Au4 Pr2 120.46(2) 1_654 9_656
Bi1 Au4 Pr2 83.20(3) 9_666 1_664
Bi1 Au4 Pr2 64.123(15) 1_554 1_664
Bi1 Au4 Pr2 64.123(15) 1_654 1_664
Bi1 Au4 Pr2 172.41(3) 9_656 1_664
Au4 Au4 Pr2 60.229(11) 9_765 1_664
Au4 Au4 Pr2 119.771(11) 9_655 1_664
Au4 Au4 Pr2 60.229(11) 9_665 1_664
Au4 Au4 Pr2 119.771(11) 9_755 1_664
Pr2 Au4 Pr2 89.21(4) 1_654 1_664
Pr2 Au4 Pr2 120.46(2) 9_656 1_664
Bi1 Au4 Pr2 64.123(15) 9_666 9_556
Bi1 Au4 Pr2 83.20(3) 1_554 9_556
Bi1 Au4 Pr2 172.41(3) 1_654 9_556
Bi1 Au4 Pr2 64.123(15) 9_656 9_556
Au4 Au4 Pr2 119.771(11) 9_765 9_556
Au4 Au4 Pr2 60.229(11) 9_655 9_556
Au4 Au4 Pr2 60.229(11) 9_665 9_556
Au4 Au4 Pr2 119.771(11) 9_755 9_556
Pr2 Au4 Pr2 120.46(2) 1_654 9_556
Pr2 Au4 Pr2 89.21(4) 9_656 9_556
Pr2 Au4 Pr2 120.46(2) 1_664 9_556
loop_
_geom_bond_atom_site_label_1
_geom_bond_atom_site_label_2
_geom_bond_distance
_geom_bond_site_symmetry_2
Bi1 Au4 2.9242(8) 9_666
Bi1 Au4 2.9242(8) 1_556
Bi1 Au4 2.9242(8) 9_656
Bi1 Au4 2.9242(8) 1_456
Bi1 Pr2 3.3132(4) .
Bi1 Pr2 3.3132(4) 1_665
Bi1 Pr2 3.3132(4) 1_655
Bi1 Pr2 3.3132(4) 1_565
Pr2 Au4 3.2900(11) 9_656
Pr2 Au4 3.2900(11) 1_456
Pr2 Au4 3.2900(11) 9_556
Pr2 Au4 3.2900(11) 1_446
Pr2 Bi1 3.3132(4) 1_445
Pr2 Bi1 3.3132(4) 1_545
Pr2 Bi1 3.3132(4) 1_455
Pr2 Bi3 3.4698(11) 1_445
Pr2 Bi3 3.4698(11) 9_556
Pr2 Bi3 3.4698(11) 9_656
Pr2 Bi3 3.4698(11) 1_455
Bi3 Bi3 3.2673(2) 9_766
Bi3 Bi3 3.2673(2) 9_656
Bi3 Bi3 3.2673(2) 9_666
Bi3 Bi3 3.2673(2) 9_756
Bi3 Pr2 3.4698(11) 9_556
Bi3 Pr2 3.4698(11) 1_665
Bi3 Pr2 3.4698(11) 1_655
Bi3 Pr2 3.4698(11) 9_656
Au4 Bi1 2.9242(8) 9_666
Au4 Bi1 2.9242(8) 1_554
Au4 Bi1 2.9242(8) 1_654
Au4 Bi1 2.9242(8) 9_656
Au4 Au4 3.2673(2) 9_765
Au4 Au4 3.2673(2) 9_655
Au4 Au4 3.2673(2) 9_665
Au4 Au4 3.2673(2) 9_755
Au4 Pr2 3.2900(11) 1_654
Au4 Pr2 3.2900(11) 9_656
Au4 Pr2 3.2900(11) 1_664
Au4 Pr2 3.2900(11) 9_556
