#------------------------------------------------------------------------------
#$Date: 2021-03-17 10:47:03 +0200 (Wed, 17 Mar 2021) $
#$Revision: 263079 $
#$URL: file:///home/coder/svn-repositories/cod/cif/1/56/10/1561057.cif $
#------------------------------------------------------------------------------
#
# This file is available in the Crystallography Open Database (COD),
# http://www.crystallography.net/
#
# All data on this site have been placed in the public domain by the
# contributors.
#
data_1561057
loop_
_publ_author_name
'Wang, Jingrui'
'Li, Peng'
'Cai, Ting'
'Yang, Dan-Dan'
'Xiong, Wei-Wei'
_publ_section_title
;
 Four two-dimensional ternary selenides based on group 13 and 14 metals:
 Syntheses, crystal structures, and electrochemical properties
;
_journal_name_full               'Journal of Solid State Chemistry'
_journal_page_first              88
_journal_page_last               93
_journal_paper_doi               10.1016/j.jssc.2018.04.018
_journal_volume                  263
_journal_year                    2018
_chemical_formula_moiety         'H4 In N Se4 Sn'
_chemical_formula_sum            'H4 In N Se4 Sn'
_chemical_formula_weight         567.39
_space_group_crystal_system      tetragonal
_space_group_IT_number           140
_space_group_name_Hall           '-I 4 2c'
_space_group_name_H-M_alt        'I 4/m c m'
_atom_sites_solution_hydrogens   none
_atom_sites_solution_primary     direct
_atom_sites_solution_secondary   difmap
_cell_angle_alpha                90
_cell_angle_beta                 90
_cell_angle_gamma                90
_cell_formula_units_Z            2
_cell_length_a                   8.3731(9)
_cell_length_b                   8.3731(9)
_cell_length_c                   6.7188(10)
_cell_measurement_reflns_used    84
_cell_measurement_temperature    293(2)
_cell_measurement_theta_max      19.1680
_cell_measurement_theta_min      4.8540
_cell_volume                     471.05(10)
_computing_cell_refinement       'CrysAlisPro 1.171.38.41 (Rigaku OD, 2015)'
_computing_data_collection       'CrysAlisPro 1.171.38.41 (Rigaku OD, 2015)'
_computing_data_reduction        'CrysAlisPro 1.171.38.41 (Rigaku OD, 2015)'
_computing_molecular_graphics    'DIAMOND. Version 3.0. Crystal Impact'
_computing_structure_refinement  'SHELXL-2016/6 (Sheldrick, 2016)'
_computing_structure_solution    'SHELXL-2016/6 (Sheldrick, 2016)'
_diffrn_ambient_temperature      293(2)
_diffrn_measured_fraction_theta_full 1.000
_diffrn_measured_fraction_theta_max 0.986
_diffrn_measurement_device_type  'Xcalibur, Eos'
_diffrn_measurement_method       '\w scans'
_diffrn_radiation_type           MoK\a
_diffrn_radiation_wavelength     0.71073
_diffrn_reflns_av_R_equivalents  0.1077
_diffrn_reflns_av_unetI/netI     0.1015
_diffrn_reflns_Laue_measured_fraction_full 1.000
_diffrn_reflns_Laue_measured_fraction_max 0.986
_diffrn_reflns_limit_h_max       8
_diffrn_reflns_limit_h_min       -10
_diffrn_reflns_limit_k_max       9
_diffrn_reflns_limit_k_min       -7
_diffrn_reflns_limit_l_max       8
_diffrn_reflns_limit_l_min       -4
_diffrn_reflns_number            565
_diffrn_reflns_point_group_measured_fraction_full 1.000
_diffrn_reflns_point_group_measured_fraction_max 0.986
_diffrn_reflns_theta_full        25.242
_diffrn_reflns_theta_max         25.938
_diffrn_reflns_theta_min         3.441
_exptl_absorpt_coefficient_mu    20.466
_exptl_absorpt_correction_T_max  1.00000
_exptl_absorpt_correction_T_min  0.80720
_exptl_absorpt_correction_type   multi-scan
_exptl_crystal_colour            yellow
_exptl_crystal_density_diffrn    4.000
_exptl_crystal_density_method    'not measured'
_exptl_crystal_description       prismatic
_exptl_crystal_F_000             492
_exptl_crystal_size_max          0.18
_exptl_crystal_size_mid          0.15
_exptl_crystal_size_min          0.13
_refine_diff_density_max         1.466
_refine_diff_density_min         -1.454
_refine_diff_density_rms         0.428
_refine_ls_extinction_coef       .
_refine_ls_extinction_method     none
_refine_ls_goodness_of_fit_ref   1.063
_refine_ls_hydrogen_treatment    undef
_refine_ls_matrix_type           full
_refine_ls_number_parameters     9
_refine_ls_number_reflns         144
_refine_ls_number_restraints     0
_refine_ls_restrained_S_all      1.063
_refine_ls_R_factor_all          0.0980
_refine_ls_R_factor_gt           0.0591
_refine_ls_shift/su_max          0.000
_refine_ls_shift/su_mean         0.000
_refine_ls_structure_factor_coef Fsqd
_refine_ls_weighting_details
'w=1/[\s^2^(Fo^2^)+(0.0473P)^2^] where P=(Fo^2^+2Fc^2^)/3'
_refine_ls_weighting_scheme      calc
_refine_ls_wR_factor_gt          0.1195
_refine_ls_wR_factor_ref         0.1392
_reflns_Friedel_coverage         0.000
_reflns_Friedel_fraction_full    .
_reflns_Friedel_fraction_max     .
_reflns_number_gt                95
_reflns_number_total             144
_reflns_threshold_expression     'I > 2\s(I)'
_cod_data_source_file            JSSC-2018-263-88.cif
_cod_data_source_block           compound-8
_cod_depositor_comments
;
The following automatic conversions were performed:

data item '_exptl_absorpt_correction_type' value 'Multi-scan' was
changed to 'multi-scan' in accordance with the built-in table derived
from the CIF Core dictionary named 'cif_core.dic' version 2.4.5 last
updated on 2014-11-21.

Automatic conversion script
Id: cif_fix_values 8369 2020-08-20 11:38:08Z andrius 
;
_cod_original_cell_volume        471.05(12)
_cod_database_code               1561057
_shelx_space_group_comment
;
The symmetry employed for this shelxl refinement is uniquely defined
by the following loop, which should always be used as a source of
symmetry information in preference to the above space-group names.
They are only intended as comments.
;
_shelx_res_file
;
TITL x in I4/mcm
    x.res
    created by SHELXL-2016/6 at 15:37:30 on 08-Jan-2018
CELL 0.71073   8.3731   8.3731   6.7188  90.000  90.000  90.000
ZERR    2.00   0.0009   0.0009   0.0010   0.000   0.000   0.000
LATT  2
SYMM -X, -Y, Z
SYMM -Y, X, Z
SYMM Y, -X, Z
SYMM -X, Y, 0.5-Z
SYMM X, -Y, 0.5-Z
SYMM Y, X, 0.5-Z
SYMM -Y, -X, 0.5-Z
SFAC C H N SE IN SN
UNIT 0 8 2 8 2 2

OMIT -2 52

eadp Sn1 In1
exyz Sn1 In1

L.S. 20
acta
BOND
FMAP 2
PLAN 20

WGHT    0.047300
FVAR       0.30296
SN1   6    0.000000    0.500000    0.250000    10.06250    0.04032    0.04032 =
         0.01297    0.00000    0.00000    0.00000
IN1   5    0.000000    0.500000    0.250000    10.06250    0.04032    0.04032 =
         0.01297    0.00000    0.00000    0.00000
SE1   4    0.164432    0.335568    0.000000    10.25000    0.03713    0.03713 =
         0.02397    0.00000    0.00000    0.00731
N1    3    0.000000    0.000000    0.250000    10.06250    0.02376    0.02376 =
         0.16431    0.00000    0.00000    0.00000
HKLF 4




REM  x in I4/mcm
REM R1 =  0.0591 for      95 Fo > 4sig(Fo)  and  0.0980 for all     144 data
REM      9 parameters refined using      0 restraints

END

WGHT      0.0480      0.0000

REM Highest difference peak  1.466,  deepest hole -1.454,  1-sigma level  0.428
Q1    1   0.1890  0.1975  0.0000  10.50000  0.05    1.47
Q2    1   0.0000  0.0605  0.2500  10.50000  0.05    1.33
Q3    1   0.2420  0.3977  0.0802  11.00000  0.05    1.31
Q4    1   0.3341  0.1659  0.0000  10.25000  0.05    1.17
Q5    1   0.0769  0.4231  0.3498  10.50000  0.05    1.08
Q6    1   0.0930  0.4070  0.0885  10.50000  0.05    1.04
Q7    1   0.1790  0.0915  0.0000  10.50000  0.05    0.95
Q8    1   0.2568  0.2717  0.0788  11.00000  0.05    0.91
Q9    1   0.0284  0.1441  0.1206  11.00000  0.05    0.88
Q10   1   0.0723  0.4277  0.1653  10.50000  0.05    0.82
Q11   1   0.0000  0.0000  0.3582  10.25000  0.05    0.72
Q12   1   0.2203  0.4074  0.3769  11.00000  0.05    0.69
Q13   1   0.1676  0.5000  0.2500  10.50000  0.05    0.59
Q14   1   0.1524  0.4751  0.0000  10.50000  0.05    0.54
Q15   1   0.0313  0.0680  0.0000  10.50000  0.05    0.43
Q16   1   0.0000  0.2868  0.2500  10.50000  0.05    0.36
Q17   1   0.0090  0.2556  0.2006  11.00000  0.05    0.33
Q18   1   0.1687  0.3313  0.1986  10.50000  0.05    0.24
Q19   1   0.2531  0.4726  0.0000  10.50000  0.05    0.21
Q20   1   0.1844  0.1312  0.2802  11.00000  0.05    0.16
;
_shelx_res_checksum              91653
_shelx_hkl_file
;
   0   0   2  292.60   63.50
   0   0   4 7072.79  450.92
   0   0   6   37.17   20.93
   0   0   6    6.81   27.33
   0   0   8 1300.84  278.98
   0   1  -1   17.57   18.80
  -1   0   1    9.24   12.93
   0  -1   1   14.66   20.07
   1   0  -1   14.15    8.80
   1   0  -1   17.88   14.53
   0  -1   3    9.24   16.48
   0   1  -3   25.96   25.67
   0  -1   3    3.45   12.21
  -1   0   3  -25.61   21.29
  -1   0   3    3.42   15.64
   1   0   5    2.10   20.70
  -1   0   5   14.26   25.65
   0   1   5    3.59   20.07
  -1   0   5   63.20   45.86
   0  -1   5   13.13   28.59
   0  -1   5  -25.48   22.22
   0  -1   7   -8.30   27.99
  -1   0   7   17.88   38.63
   0   1   7  -34.91   46.07
   1   0   7   23.32   42.58
   0   1   7   17.05   30.93
   1  -1   0 4257.95  183.31
  -1   1   0 4437.25  181.50
   1  -1   0 4124.96  186.71
  -1   1   0 4314.82  188.52
   1   1  -2  705.42   77.69
  -1   1   2  804.98  108.68
  -1  -1   2  657.74   73.35
  -1  -1   2 1066.71  135.37
   1   1  -2  949.22  127.54
   1  -1   2  803.21  119.24
  -1  -1   4 2547.73  281.98
  -1   1   4 2292.48  231.98
  -1   1   4 2285.09  220.52
   1  -1   4 2325.73  272.84
  -1  -1   4 2205.12  182.69
  -1   1   6  365.04  114.88
   1  -1   6  423.90  141.39
   1   1   6  368.93  119.62
  -1  -1   6  213.16   99.77
  -1   1   6  298.79   99.15
  -1  -1   6  331.87   86.02
   1  -1   6  313.26   76.39
   1  -1   8  570.87  196.42
   1   1   8  307.30  147.99
   2   0   0  519.94   65.66
  -2   0   0  446.60   61.78
  -2   0   2 7527.60  357.89
   2   0  -2 8173.15  383.51
   2   0  -2 8082.71  333.61
   0   2  -2 6942.80  421.70
   0  -2   2 7065.43  434.76
   0  -2   4  171.54   33.68
  -2   0   4  230.88   74.25
   0  -2   4  230.41   90.63
  -2   0   4  161.16   55.36
   0  -2   6 1518.49  280.42
   2   0   6 1652.95  276.55
   0   2   6 1449.31  231.30
  -2   0   6 1414.59  202.46
  -2   0   6 2032.81  284.09
   2   0   8  330.76  168.71
   0  -2   8   83.43   84.53
  -2  -1   1 3184.63  181.79
  -1   2  -1 2426.54  123.93
   1   2  -1 2580.27  145.76
   2  -1   1 2389.62  144.38
   2   1  -1 3465.79  186.83
   1  -2   1 2643.14  214.83
  -2   1   1 2366.67  183.87
   2  -1  -1 2677.92  204.77
  -1   2  -1 2553.55  207.56
  -2   1  -1 2250.31  139.51
  -1  -2   3 1551.24  226.25
   2   1  -3 2019.41  180.07
  -1  -2   3 1393.96  107.06
  -2   1   3 1767.87  191.75
   2  -1   3 1365.36  192.08
   2   1  -3 2275.62  218.93
  -2  -1   3 1833.70  162.43
  -2   1   3 1624.51  140.74
   1  -2   3 1467.55  208.41
   2  -1   3 1504.86  123.54
   1  -2   5  710.91   82.26
  -2  -1   5  652.10  114.04
  -1   2   5  881.18  167.01
   2  -1   5  837.60  184.71
  -1  -2   5  736.31   93.73
  -2   1   5  779.63  139.43
  -1   2   5  863.63  148.40
   1  -2   5  835.74  193.08
  -1  -2   5  871.22  194.84
  -2  -1   5 1019.25  195.65
  -2   1   5  817.96  154.38
  -1  -2   7  360.92  146.79
   2   1   7  223.33  110.65
  -1   2   7  292.87  116.63
   1  -2   7  347.11  146.70
  -2   1   7  108.21   68.34
   2  -1   7   97.76   81.05
   1   2   7  243.48  109.38
  -2  -1   7  303.97  127.58
   2  -2   0 3747.20  234.10
   2  -2   0 3922.97  226.36
  -2   2   0 3937.34  235.59
   2   2   0 4277.05  238.46
  -2   2   0 4265.05  229.18
   2  -2   2  884.07   78.46
   2   2  -2 1246.38  116.53
   2  -2   2  919.26  147.74
  -2   2  -2  857.36   72.56
  -2   2   2  973.81  141.06
  -2  -2   2 1105.03  112.56
  -2   2   4 1761.75  227.67
   2  -2   4 1515.19  240.19
  -2  -2   4 1632.65  151.09
   2  -2   4 1835.62  121.79
  -2   2   4 1963.93  176.49
   2  -2   6  267.12  123.78
  -2   2   6  300.99   95.02
  -2   2   6  204.17   89.30
  -2  -2   6  255.85  113.19
   2   2   8  162.31  104.04
   2  -2   8  376.97  169.02
  -3   0  -1  -12.80   15.39
   3   0  -1  -19.54   19.44
  -3   0   1   15.18   17.55
   3   0   1  -14.92   16.29
  -3   0   3   37.04   28.66
   3   0   3  -17.26   17.99
   0  -3   3  -13.77   27.66
   3   0  -3   -1.05    9.96
   3   0   5   11.34   28.93
   0  -3   5    6.31   28.79
  -3   0   5  -56.66   41.75
   0  -3   7  -15.01   43.29
  -3   0   7   80.65   52.71
   0   3   7  -72.67   57.33
   3   0   7  -28.53   49.89
   3  -1   0   46.21   30.50
  -3   1   0   95.45   34.82
   3   1   0   66.19   32.52
  -1   3   0   91.26   41.86
  -3  -1   0   33.73   22.39
   3   1   2 4295.40  285.86
  -3  -1   2 4765.08  286.31
   1  -3   2 4099.12  354.55
   3  -1   2 4083.94  242.21
  -3   1   2 4226.37  300.70
   1   3  -2 4024.16  194.17
  -3  -1   4   96.50   45.40
  -1  -3   4   95.98   53.17
  -3   1   4  150.53   64.48
   3  -1   4   64.47   51.23
   3  -1   4   63.81   31.58
  -1  -3   4   84.33   23.84
   1  -3   4  221.53   99.67
  -3   1   6 1233.24  211.04
   1  -3   6 1179.51  259.62
  -1  -3   6 1243.85  278.31
   3   1   6 1380.50  261.58
  -3  -1   6 1309.96  183.33
  -1   3   6 1165.95  191.03
  -1   3   6 1467.26  251.05
   3  -1   6 1336.00  268.37
   1  -3   8  175.84  123.01
   3   1   8  331.12  151.84
  -1   3   8   17.30   40.37
  -1  -3   8  261.78  140.96
  -2   3   1  -16.71   22.07
   3  -2   1  -16.03   16.92
  -2   3  -1    9.62   12.65
   2   3  -1   -0.64   10.10
  -2   3   1   22.03   17.43
   3  -2  -1   -2.22    7.92
  -3   2  -1   19.72   16.94
   3   2  -1   -0.51   10.81
  -3   2   1    0.23   15.34
   2  -3   1    4.86   15.13
   3  -2   1    6.01   16.09
  -2   3  -1   24.35   25.08
  -3  -2   1   17.89   21.83
   3   2  -3   45.46   34.51
   2   3  -3    6.20   13.27
  -2   3   3   91.66   53.12
   3  -2   3   29.65   18.56
  -2  -3   3   -4.25   10.46
   2  -3   3    3.86   26.74
  -3  -2   3   -8.95   16.19
  -3   2   3  -60.31   42.95
   3  -2   3   20.22   37.89
  -2   3   5    1.81   13.19
  -2   3   5   30.39   39.16
  -3  -2   5  -34.59   27.94
   2  -3   5  -27.90   44.37
  -2  -3   5  -15.65   17.17
  -3   2   5  -18.73   31.24
   3  -2   5   33.37   44.80
  -3   2   5   13.40   17.44
  -3   2   7    1.65   33.08
   3  -2   7   66.03   74.03
   3   2   7    1.82   26.34
   2  -3   7  -14.97   43.32
  -2   3   7  -54.07   58.72
  -3   3   0 7060.03  396.01
  -3   3   0 7508.45  375.83
   3  -3   0 7282.04  386.92
   3  -3   0 6710.79  394.34
  -3  -3   2  129.75   48.14
   3  -3   2  171.53   73.09
   3  -3   2  198.05   49.66
   3   3  -2  171.17   52.75
  -3   3   2  142.54   66.70
  -3   3  -2  120.73   34.46
   3  -3   4 3515.58  412.67
  -3   3   4 2639.43  152.91
  -3  -3   4 3916.61  272.42
  -3   3   4 3685.57  365.42
   3  -3   4 3117.17  173.33
   3  -3   6   97.10   81.69
  -3   3   6   93.50   68.16
  -3   3   8 1099.43  247.42
   3   3   8  993.46  256.97
  -4   0   0   90.96   41.54
  -4   0   2 4247.06  304.77
  -4   0   4   74.33   45.82
   4   0  -4   73.32   36.93
   0  -4   6 1204.73  281.76
  -4   0   6 1312.25  211.00
   4   0   6  910.39  229.31
   0   4   8  -71.36   77.15
  -4   1   1 1087.01  146.05
  -4   1  -1 1134.70  136.06
  -4  -1   1 1214.63  151.30
   4   1  -3 1138.48  161.72
  -4   1   3  890.25  155.30
   1  -4   3  609.57  162.65
   1   4  -3  732.80   72.50
  -4  -1   3 1252.01  166.24
  -4   1   5  575.98  141.40
  -4  -1   5  612.67  125.66
   4  -1   5  469.53  150.32
   1  -4   5  474.29  173.05
   1  -4   7  161.23  111.86
  -4   1   7  118.73   74.09
   4   1   7  220.14  117.59
   4  -1   7  313.54  145.99
  -1   4   7  155.10   94.93
  -2   4   0 3017.87  265.70
   4  -2   0 2394.54  201.11
  -2   4   0 2474.33  227.41
  -4   2   0 2461.66  217.26
   2   4  -2  438.94   73.30
  -4   2   2  431.65  105.06
   4  -2   2  393.30   78.61
  -2   4  -2  312.98   48.76
   4  -2   2  449.87  115.26
  -4  -2   2  480.85   95.48
   2  -4   2  416.49  122.22
  -4   2  -2  351.25   70.02
  -2   4   2  542.28  126.50
   2  -4   4 1169.06  241.00
  -2   4   4 1404.86  234.42
   2   4  -4 1122.80  123.32
  -4   2   4 1550.02  233.47
   4  -2   4 1204.27  138.98
  -4  -2   4 1384.01  178.44
   4  -2   4 1189.34  227.94
   4  -2   6  169.16  102.17
  -4   2   6  137.13   91.42
   2  -4   6  173.39  108.67
  -4  -2   6  141.67   63.87
  -2   4   6  208.12  103.59
  -4   2   8  229.21  113.34
  -3   4   1   71.76   45.21
  -3   4   1   15.27   18.83
   4  -3   1   -3.80   19.17
  -4   3   1    3.75   16.55
  -3   4  -1    4.57   15.71
  -4   3  -1   -0.59   16.86
   3  -4   1   66.35   44.86
   4  -3   3  -21.00   35.27
  -4   3   3  -21.01   32.47
   4  -3   3  -21.49   22.49
  -3   4  -3   -9.59    9.74
   3  -4   3    0.99   22.08
  -3   4   3   17.19   26.48
  -3   4   3   26.73   12.13
  -4  -3   3   19.56   24.18
   4  -3   5  -69.90   67.94
  -4  -3   5   11.05   22.49
  -4   3   5   -9.09   30.87
  -3   4   5   22.57   39.99
  -3   4   7   24.80   38.31
   3  -4   7  -62.01   76.91
  -4   3   7  -26.39   43.13
   4  -3   7   94.26   92.23
   4  -4   0 1524.97  188.47
  -4   4   0 1310.57  180.26
  -4   4   2  394.52  113.43
  -4   4  -2  243.73   60.10
   4  -4   2  253.24   98.94
   4  -4   2  304.66   79.35
  -4   4   4 1029.18  215.26
  -4  -4   4  840.48  138.34
   4  -4   4  605.96  179.24
  -4   4   6   73.12   68.32
   4  -4   6  131.96  101.44
  -5   0   1  -43.77   33.40
  -5   0  -1   11.15   18.09
   5   0  -3    4.92   12.62
  -5   0   3  -14.97   24.93
  -5   0   5   -7.95   25.45
  -5   0   7 -216.11   93.13
   5   0   7  -38.30   51.53
  -5   1   0 1101.16  156.57
  -5  -1   0 1407.37  177.21
  -5   1  -2  115.51   47.14
  -5   1   2  375.29  104.09
  -1   5  -2  276.02   54.72
  -5  -1   2  468.83  109.28
   1   5  -2  291.81   56.06
   1  -5   4 1025.68  243.45
  -5   1   4  857.66  172.44
  -5  -1   4 1084.90  178.31
   5  -1   4 1039.18  220.07
   1  -5   6  163.07  110.82
  -5   1   6  160.15   82.65
  -5  -1   6  183.72   80.55
   5  -1   6  207.33  116.65
   5  -2   1  802.43  145.91
   5  -2  -1  722.93   93.99
  -2   5   1  931.90  170.01
  -2   5  -1  964.76  132.34
  -5   2   1  876.58  148.80
  -5   2  -1  832.63  131.07
  -5  -2   1  960.23  151.22
  -2   5   1 1041.77  170.49
  -5   2   3  702.98  154.54
   2   5  -3  461.70   74.81
  -5  -2   3  880.21  150.81
   5  -2   3  629.06  159.74
   2  -5   3  803.93  199.36
   5  -2   5  127.78  100.02
   2  -5   5  482.35  180.07
  -5   2   5  357.87  121.15
  -5  -2   5  504.29  126.55
  -2   5   5  215.42  108.96
  -5   2   7  307.79  124.44
  -2   5   7  256.19  126.72
  -3   5   0  141.04   63.14
   5  -3   0  199.43   65.68
  -5   3   0  109.71   51.83
   5  -3   2 1638.31  244.65
  -3   5   2 1684.30  174.58
   3  -5   2 1564.77  261.25
  -5   3   2 1330.24  208.28
  -3   5   2 1524.74  239.78
  -3   5  -2 1423.98  138.77
  -5   3  -2 1324.26  162.10
  -5  -3   2 1409.44  189.43
  -5   3   4  124.47   73.18
   3  -5   4   68.35   65.98
  -5  -3   4   35.35   34.38
  -3   5   4   83.15   65.72
   5  -3   4  112.72   82.70
   5  -3   6  585.75  206.68
  -5   3   6  511.50  158.22
   3  -5   6  650.30  216.62
  -3   5   6  725.72  201.88
  -4   5   1  764.07  160.84
  -5   4   1  618.05  138.33
  -4   5  -1  561.29  112.86
  -5   4  -1  492.68  106.43
  -4   5   1  686.77  112.05
   5  -4   1  543.46  135.61
   4  -5   1  581.49  146.01
  -4   5   3  418.50  137.62
  -5   4   3  541.02  150.84
   4  -5   3  597.54  171.98
   5  -4   3  525.37  159.24
  -4   5  -3  431.11   69.21
  -5   4  -3  263.76   65.97
  -4   5   5  237.92  116.02
   4  -5   5  210.59  123.18
  -5   4   5  320.33  133.82
   5  -4   5  373.59  159.81
  -5   5   0  549.12  128.44
  -5   5   2  212.79   95.28
   5  -5   2  231.02  102.93
  -5   5  -2  171.57   61.70
  -5   5   4  325.26  131.18
   5  -5   4  422.06  161.29
  -6   0   0 3506.54  310.09
  -6   0   2   48.47   41.07
  -6   0   4 2860.76  318.95
  -6   0   6  114.39   72.77
   6   0   6   17.79   43.14
  -6  -1  -1   57.94   40.56
  -6   1   1   -7.12   25.49
  -6  -1   1   -1.51   19.03
  -6   1  -1  -25.81   28.03
  -6   1   3  -20.46   30.92
  -6  -1   3  -36.92   38.12
  -6   1   5  -69.82   54.00
   6  -1   5   20.17   44.23
  -6  -1   5   16.17   32.54
  -6   1   7 -170.78   91.28
  -6  -2   0  129.96   61.62
  -6   2   0   62.54   46.03
  -2   6   0  103.44   57.81
   6  -2   2 1210.69  215.41
  -2   6  -2 1496.09  153.99
  -6   2   2 1305.68  206.02
  -6  -2   2 1315.12  195.79
  -6   2  -2 1254.00  172.11
  -6   2   4    8.44   28.91
   6  -2   4  -50.71   55.32
  -6  -2   4   26.42   28.86
  -2   6   4   21.62   42.71
   2  -6   4   73.80   73.88
  -6   2   6  459.96  150.59
  -6  -2   6  694.65  161.08
   2  -6   6  574.41  229.21
   6  -2   6  736.57  228.82
  -2   6   6  521.72  187.80
  -3   6  -1    4.92   21.40
  -6   3   1  -11.67   23.51
   6  -3  -1    4.78   12.64
  -6   3  -1   23.69   29.85
   6  -3   1   -1.66   21.91
  -3   6   1   61.45   42.17
  -6   3  -3   27.52   27.75
   3  -6   3   -0.44   24.56
  -6   3   3   43.43   46.52
   6  -3   3   14.92   34.89
  -6  -3   3  -42.85   40.77
  -3   6   3  -12.27   35.08
   6  -3   5   32.57   57.84
  -6   3   5   16.85   40.94
  -6  -3   5   76.56   52.64
  -3   6   5  -75.81   68.54
  -4   6   0   23.57   33.18
  -6   4   0   10.93   21.40
   6  -4   0  -24.28   31.79
  -4   6   2 1189.58  230.46
  -6   4   2 1125.26  212.91
   6  -4   2  945.43  206.97
   4  -6   2 1081.55  235.20
  -4   6  -2  866.25  127.05
  -6   4  -2 1077.16  161.07
  -4   6   4   42.84   54.62
  -6  -4   4    0.52   16.35
  -6   4   4   74.19   66.08
   6  -4   4   43.67   57.60
   4  -6   4    0.27   39.94
  -5   6   1   41.02   42.55
  -6   5   1  -13.71   31.22
  -5   6  -1  -38.56   36.80
   6  -5   1   20.45   33.10
  -6   5  -1   44.17   39.47
   5  -6   3  -11.68   33.13
  -5   6   3  -79.83   70.03
  -6   5   3  -33.23   43.78
   6  -5   3  -80.23   70.12
  -5   6   5  103.02   89.12
  -6   5   5   50.31   57.63
   5  -6   5  -91.64   95.97
   6  -5   5   -9.69   45.44
  -6   6   0 1203.22  210.98
  -6   6   2  149.23   86.60
   6  -6   2   35.76   46.64
  -6   6   4  598.00  182.77
   6  -6   4  725.78  228.54
  -7   0  -1   57.48   43.70
  -7   0   1   -3.70   20.69
  -7   0   3  -10.53   37.27
  -7   0   5  -40.35   45.07
  -7   1   0  628.65  140.02
  -7  -1   0  559.18  136.81
  -7   1  -2   71.13   45.22
  -7   1   2   74.44   54.57
  -7  -1   2   70.82   52.68
  -1   7  -2  125.84   53.00
  -7   1   4  608.27  167.79
  -7  -1   4  697.33  169.42
  -7   1   6  103.23   75.36
  -7  -1   6    0.90   29.46
   7  -2  -1  241.10   73.21
  -7   2   1  228.83   91.69
  -7   2  -1  396.07  109.41
  -2   7   1  443.67  138.09
  -2   7  -1  404.57  110.59
  -7  -2   1  292.15  101.02
  -7   2   3  374.67  122.63
   7  -2   3   93.01   69.66
  -7  -2   3  255.78   99.81
  -7   2   5  153.73   93.61
   7  -2   5  215.13  120.62
  -7  -2   5  251.89  103.62
  -2   7   5   98.48  103.66
  -3   7   0   33.37   39.37
  -7   3   0    6.40   22.17
   7  -3   0   65.01   46.92
  -7  -3   2  731.51  165.37
  -7   3   2  991.16  194.99
   7  -3   2  714.23  182.69
  -7   3  -2  826.24  155.11
  -3   7   2 1114.23  230.78
  -7   3   4   -6.49   29.41
  -7  -3   4  -37.27   42.64
   7  -3   4   40.50   55.29
  -3   7   4  -66.24   67.13
  -4   7   1  214.81   96.14
  -4   7  -1  273.14   88.70
   7  -4   1  327.54  113.67
  -7   4   1  331.90  113.03
  -7   4  -1  169.89   75.99
  -4   7   3  133.53   87.94
  -7   4  -3  107.51   54.39
   7  -4   3  204.38  106.03
  -7   4   3  156.60   88.03
   7  -4   5  116.27   96.08
   4  -7   5  215.48  136.18
  -5   7   0  466.04  132.35
  -7   5   0  446.87  130.15
  -5   7   2   49.36   57.08
  -7   5   2  -16.44   34.17
  -7   5  -2  -32.55   36.93
   7  -5   2   34.63   48.81
  -5   7   4  198.70  118.72
   5  -7   4  289.49  151.33
  -7   5   4  274.55  126.28
   7  -5   4  487.51  185.04
  -6   7   1   24.68   42.56
  -7   6   1   16.33   37.31
  -6   7  -1  104.50   62.04
  -7   6  -1  -12.08   32.08
  -6   7   3   69.65   68.57
  -7   6   3   83.90   74.40
   7  -6   3  -38.83   58.23
   6  -7   3  133.05   98.81
  -7   7   0  156.33   84.09
  -7   7   2  129.50   90.17
  -8   0   0   68.85   53.72
  -8   0   2  651.29  163.57
  -8   0   4  -45.96   51.49
  -8   1   1  252.63  106.06
  -8  -1   1  255.36  101.12
  -8   1  -1  296.93  103.38
  -8   1   3  326.69  123.93
  -8  -1   3  241.38  102.41
  -8   1   5  251.79  118.16
   8  -1   5  164.56  109.21
  -8  -1   5  312.24  122.21
   8  -2   0  243.40   90.77
  -8   2   0  291.03  100.97
  -2   8   0  373.41  121.39
  -8   2  -2  107.24   62.59
   8  -2   2  134.68   98.88
  -8   2   2  162.02   86.69
  -2   8   2  159.36   99.69
  -8  -2   2   45.63   48.66
  -8   2   4  198.03  101.41
   8  -2   4  167.37  106.32
  -8  -2   4  261.66  107.84
  -2   8   4  229.41  120.96
  -3   8  -1  -42.65   42.07
  -8   3   1   27.67   39.37
  -8   3  -1   96.49   61.79
   8  -3   1   19.84   33.56
  -3   8   1  120.33   75.99
  -8   3   3  -11.82   32.41
   8  -3   3   95.47   79.60
  -3   8   3   85.57   75.23
  -8  -3   3  -52.19   49.18
  -8  -3   5  -88.12   69.36
  -4   8   0  425.07  133.20
  -8   4   0  418.27  131.36
  -4   8   2  157.77   95.45
   8  -4   2   61.62   64.82
  -8   4   2   42.92   49.84
  -8   4  -2   46.95   45.66
  -8  -4   4  201.21   95.55
   8  -4   4  127.01  106.05
  -5   8   1  201.00  102.58
  -8   5   1  221.43  103.31
  -8   5  -1  196.69   87.99
  -5   8   3  143.38   98.32
  -8   5   3  111.27   80.12
   8  -5   3  121.78   93.85
  -6   8   0  -11.94   34.80
  -8   6   0  -95.40   70.62
  -6   8   2  418.64  154.82
  -8   6   2  164.17   99.26
  -7   8   1  -36.47   49.04
  -8   7   1  102.84   73.01
  -9   0  -1   31.96   41.55
  -9   0   1  -32.48   47.37
  -9   0   3   -7.82   33.15
  -9  -1   0  -55.30   55.90
  -9   1   0 -121.79   74.21
  -9   1   2  374.36  135.55
  -9  -1   2  329.87  128.90
   9  -1   4   34.34   55.55
  -9  -1   4  -67.08   68.10
  -9  -2   1   66.43   59.70
  -9   2   1    8.84   42.05
  -2   9   1   -6.48   31.97
  -9   2  -1  -25.42   38.77
  -2   9   3  -23.11   53.61
  -9  -2   3   35.10   49.62
  -3   9   0  931.83  203.33
  -9   3   0  844.05  192.01
  -9  -3   2   29.81   33.13
  -9   3   2    8.64   36.47
  -3   9   2   50.30   58.66
  -9   3  -2   29.22   39.25
   9  -3   4  548.80  205.23
  -4   9   1  -42.65   54.70
  -9   4   1  -32.51   50.65
  -9   4  -1   -7.44   20.58
   9  -4   3   59.62   72.08
  -9   5   0   -1.40   25.27
  -5   9   2  152.82  101.23
  -6   9   1 -108.46   85.68
 -10   0   0  -48.29   55.30
 -10   1  -1  -87.87   70.34
 -10   1   1  -61.18   62.24
 -10   2   0  121.38   80.46
 -10   2  -2   -9.65   31.90
  -2  10   2 -167.19  108.31
  -3  10   1   31.39   57.34
 -10   3  -1    8.45   34.18
   0   0   0    0.00    0.00
;
_shelx_hkl_checksum              90485
loop_
_space_group_symop_operation_xyz
'x, y, z'
'-x, -y, z'
'-y, x, z'
'y, -x, z'
'-x, y, -z+1/2'
'x, -y, -z+1/2'
'y, x, -z+1/2'
'-y, -x, -z+1/2'
'x+1/2, y+1/2, z+1/2'
'-x+1/2, -y+1/2, z+1/2'
'-y+1/2, x+1/2, z+1/2'
'y+1/2, -x+1/2, z+1/2'
'-x+1/2, y+1/2, -z+1'
'x+1/2, -y+1/2, -z+1'
'y+1/2, x+1/2, -z+1'
'-y+1/2, -x+1/2, -z+1'
'-x, -y, -z'
'x, y, -z'
'y, -x, -z'
'-y, x, -z'
'x, -y, z-1/2'
'-x, y, z-1/2'
'-y, -x, z-1/2'
'y, x, z-1/2'
'-x+1/2, -y+1/2, -z+1/2'
'x+1/2, y+1/2, -z+1/2'
'y+1/2, -x+1/2, -z+1/2'
'-y+1/2, x+1/2, -z+1/2'
'x+1/2, -y+1/2, z'
'-x+1/2, y+1/2, z'
'-y+1/2, -x+1/2, z'
'y+1/2, x+1/2, z'
loop_
_atom_site_label
_atom_site_type_symbol
_atom_site_fract_x
_atom_site_fract_y
_atom_site_fract_z
_atom_site_U_iso_or_equiv
_atom_site_adp_type
_atom_site_occupancy
_atom_site_site_symmetry_order
_atom_site_calc_flag
_atom_site_refinement_flags_posn
_atom_site_refinement_flags_adp
_atom_site_refinement_flags_occupancy
_atom_site_disorder_assembly
_atom_site_disorder_group
Sn1 Sn 0.000000 0.500000 0.250000 0.0312(11) Uani 0.5 8 d S T P . .
In1 In 0.000000 0.500000 0.250000 0.0312(11) Uani 0.5 8 d S T P . .
Se1 Se 0.1644(3) 0.3356(3) 0.000000 0.0327(11) Uani 1 4 d S T P . .
N1 N 0.000000 0.000000 0.250000 0.07(3) Uani 0.5 8 d S T P . .
loop_
_atom_site_aniso_label
_atom_site_aniso_U_11
_atom_site_aniso_U_22
_atom_site_aniso_U_33
_atom_site_aniso_U_23
_atom_site_aniso_U_13
_atom_site_aniso_U_12
Sn1 0.0403(15) 0.0403(15) 0.0130(14) 0.000 0.000 0.000
In1 0.0403(15) 0.0403(15) 0.0130(14) 0.000 0.000 0.000
Se1 0.0371(14) 0.0371(14) 0.0240(16) 0.000 0.000 0.0073(18)
N1 0.02(3) 0.02(3) 0.16(10) 0.000 0.000 0.000
loop_
_atom_type_symbol
_atom_type_description
_atom_type_scat_dispersion_real
_atom_type_scat_dispersion_imag
_atom_type_scat_source
C C 0.0033 0.0016 'International Tables Vol C Tables 4.2.6.8 and 6.1.1.4'
H H 0.0000 0.0000 'International Tables Vol C Tables 4.2.6.8 and 6.1.1.4'
N N 0.0061 0.0033 'International Tables Vol C Tables 4.2.6.8 and 6.1.1.4'
Se Se -0.0929 2.2259 'International Tables Vol C Tables 4.2.6.8 and 6.1.1.4'
In In -0.7276 1.3100 'International Tables Vol C Tables 4.2.6.8 and 6.1.1.4'
Sn Sn -0.6537 1.4246 'International Tables Vol C Tables 4.2.6.8 and 6.1.1.4'
loop_
_geom_angle_atom_site_label_1
_geom_angle_atom_site_label_2
_geom_angle_atom_site_label_3
_geom_angle
_geom_angle_site_symmetry_1
_geom_angle_site_symmetry_3
Se1 Sn1 Se1 115.26(6) 11 17_565
Se1 Sn1 Se1 98.43(11) 11 27_455
Se1 Sn1 Se1 115.26(6) 17_565 27_455
Se1 Sn1 Se1 115.26(6) 11 .
Se1 Sn1 Se1 98.43(11) 17_565 .
Se1 Sn1 Se1 115.26(6) 27_455 .
Sn1 Se1 Sn1 81.57(11) 17_565 .
loop_
_geom_bond_atom_site_label_1
_geom_bond_atom_site_label_2
_geom_bond_distance
_geom_bond_site_symmetry_2
Sn1 Se1 2.571(3) 11
Sn1 Se1 2.571(3) 17_565
Sn1 Se1 2.571(3) 27_455
Sn1 Se1 2.571(3) .
