#------------------------------------------------------------------------------
#$Date: 2021-04-14 12:50:33 +0300 (Wed, 14 Apr 2021) $
#$Revision: 264147 $
#$URL: file:///home/coder/svn-repositories/cod/cif/1/56/17/1561752.cif $
#------------------------------------------------------------------------------
#
# This file is available in the Crystallography Open Database (COD),
# http://www.crystallography.net/
#
# All data on this site have been placed in the public domain by the
# contributors.
#
data_1561752
loop_
_publ_author_name
'Bykova, E.'
'Gou, H.'
'Bykov, M.'
'Hanfland, M.'
'Dubrovinsky, L.'
'Dubrovinskaia, N.'
_publ_section_title
;
 Crystal structures and compressibility of novel iron borides Fe2B7 and Fe
 B50 synthesized at high pressure and high temperature
;
_journal_name_full               'Journal of Solid State Chemistry'
_journal_page_first              102
_journal_page_last               109
_journal_paper_doi               10.1016/j.jssc.2015.06.040
_journal_volume                  230
_journal_year                    2015
_chemical_absolute_configuration .
_chemical_formula_moiety         'B50 Fe1.324'
_chemical_formula_sum            'B50 Fe1.324'
_chemical_formula_weight         614.4
_chemical_name_common            'Iron Boron (1.324/50)'
_chemical_name_systematic        'Iron Boron (1.324/50)'
_space_group_IT_number           134
_space_group_name_Hall           '-P 4ac 2bc'
_space_group_name_H-M_alt        'P 42/n n m :2'
_symmetry_cell_setting           tetragonal
_symmetry_Int_Tables_number      134
_symmetry_space_group_name_Hall  '-P 4ac 2bc'
_symmetry_space_group_name_H-M   'P 42/n n m :2'
_cell_angle_alpha                90
_cell_angle_beta                 90
_cell_angle_gamma                90
_cell_formula_units_Z            1
_cell_length_a                   8.5287(4)
_cell_length_b                   8.5287(4)
_cell_length_c                   4.8182(3)
_cell_measurement_reflns_used    286
_cell_measurement_temperature    293
_cell_measurement_theta_max      18.1
_cell_measurement_theta_min      1.96
_cell_volume                     350.47(3)
_computing_cell_refinement
;
CrysAlisPro, Agilent Technologies,
Version 1.171.37.35 (release 13-08-2014 CrysAlis171 .NET)
(compiled Aug 13 2014,18:06:01)
;
_computing_data_collection
;
CrysAlisPro, Agilent Technologies,
Version 1.171.37.35 (release 13-08-2014 CrysAlis171 .NET)
(compiled Aug 13 2014,18:06:01)
;
_computing_data_reduction
;
CrysAlisPro, Agilent Technologies,
Version 1.171.37.35 (release 13-08-2014 CrysAlis171 .NET)
(compiled Aug 13 2014,18:06:01)
;
_computing_structure_refinement  'Jana2006 (Petricek, 2014)'
_computing_structure_solution    'SHELXS-2013 (Sheldrick, 2013)'
_diffrn_ambient_pressure         34100000
_diffrn_ambient_temperature      293
_diffrn_detector                 'MAR555 flatpanel detector'
_diffrn_measured_fraction_theta_full 0.94
_diffrn_measured_fraction_theta_max 0.67
_diffrn_measurement_device
;
customized omega-circle diffractometer
;
_diffrn_measurement_device_type  'ESRF, beamline ID09A diffractometer'
_diffrn_measurement_method       '\w scans'
_diffrn_radiation_monochromator  synchrotron
_diffrn_radiation_probe          x-ray
_diffrn_radiation_source         synchrotron
_diffrn_radiation_type           synchrotron
_diffrn_radiation_wavelength     0.41409
_diffrn_reflns_av_R_equivalents  0.0591
_diffrn_reflns_av_unetI/netI     0.0509
_diffrn_reflns_limit_h_max       6
_diffrn_reflns_limit_h_min       -8
_diffrn_reflns_limit_k_max       11
_diffrn_reflns_limit_k_min       -11
_diffrn_reflns_limit_l_max       6
_diffrn_reflns_limit_l_min       -7
_diffrn_reflns_number            787
_diffrn_reflns_theta_full        14.13
_diffrn_reflns_theta_max         19.27
_diffrn_reflns_theta_min         1.97
_diffrn_source                   synchrotron
_exptl_absorpt_coefficient_mu    0.327
_exptl_absorpt_correction_T_max  1
_exptl_absorpt_correction_T_min  0.726
_exptl_absorpt_correction_type   multi-scan
_exptl_absorpt_process_details
;
CrysAlisPro, Agilent Technologies,
Version 1.171.37.35 (release 13-08-2014 CrysAlis171 .NET)
(compiled Aug 13 2014,18:06:01)
Empirical absorption correction using spherical harmonics,
 implemented in SCALE3 ABSPACK scaling algorithm.
;
_exptl_crystal_colour            black
_exptl_crystal_density_diffrn    2.9103
_exptl_crystal_description       plate
_exptl_crystal_F_000             284
_exptl_crystal_size_max          0.020
_exptl_crystal_size_mid          0.010
_exptl_crystal_size_min          0.005
_refine_diff_density_max         0.70
_refine_diff_density_min         -0.63
_refine_ls_extinction_method     none
_refine_ls_goodness_of_fit_gt    2.46
_refine_ls_goodness_of_fit_ref   2.29
_refine_ls_number_constraints    0
_refine_ls_number_parameters     35
_refine_ls_number_reflns         275
_refine_ls_number_restraints     0
_refine_ls_R_factor_all          0.0740
_refine_ls_R_factor_gt           0.0636
_refine_ls_shift/su_max          0.0002
_refine_ls_shift/su_mean         0.0000
_refine_ls_structure_factor_coef Fsqd
_refine_ls_weighting_details     w=1/(\s^2^(I)+0.0004I^2^)
_refine_ls_weighting_scheme      sigma
_refine_ls_wR_factor_gt          0.1337
_refine_ls_wR_factor_ref         0.1374
_reflns_number_gt                231
_reflns_number_total             275
_reflns_threshold_expression     I>2\s(I)
_cod_data_source_file            fe1.32B50_34.1GPa.cif
_cod_data_source_block           Fe1.3B50_34.1GPa
_cod_depositor_comments
;
The following automatic conversions were performed:

data item '_diffrn_radiation_probe' value 'X-ray' was changed to
'x-ray' in accordance with the built-in table derived from the CIF
Core dictionary named 'cif_core.dic' version 2.4.5 last updated on
2014-11-21.

Automatic conversion script
Id: cif_fix_values 8369 2020-08-20 11:38:08Z andrius 
;
_cod_original_sg_symbol_H-M      'P 42/n n m'
_cod_database_code               1561752
loop_
_symmetry_equiv_pos_site_id
_symmetry_equiv_pos_as_xyz
1 x,y,z
2 -x+1/2,-y+1/2,z
3 -y+1/2,x,z+1/2
4 y,-x+1/2,z+1/2
5 -x+1/2,y,-z+1/2
6 x,-y+1/2,-z+1/2
7 y,x,-z
8 -y+1/2,-x+1/2,-z
9 -x,-y,-z
10 x+1/2,y+1/2,-z
11 y+1/2,-x,-z+1/2
12 -y,x+1/2,-z+1/2
13 x+1/2,-y,z+1/2
14 -x,y+1/2,z+1/2
15 -y,-x,z
16 y+1/2,x+1/2,z
loop_
_atom_site_label
_atom_site_type_symbol
_atom_site_fract_x
_atom_site_fract_y
_atom_site_fract_z
_atom_site_adp_type
_atom_site_U_iso_or_equiv
_atom_site_site_symmetry_multiplicity
_atom_site_occupancy
_atom_site_calc_flag
_atom_site_refinement_flags
_atom_site_disorder_assembly
_atom_site_disorder_group
Fe1 Fe -0.25 0.25 0.25 Uani 0.0132(5) 2 0.6621 d . . .
B4 B -0.0775(4) -0.1589(4) 0.1500(6) Uani 0.0115(9) 16 1 d . . .
B5 B -0.1686(4) 0.0210(4) 0.1617(6) Uani 0.0101(9) 16 1 d . . .
B2 B 0.1231(4) -0.1231(4) 0.1410(9) Uani 0.0114(9) 8 1 d . . .
B3 B 0.0033(4) -0.0033(4) 0.3358(8) Uani 0.0100(10) 8 1 d . . .
B1 B 0.25 -0.25 0.25 Uani 0.010(2) 2 1 d . . .
loop_
_atom_site_aniso_label
_atom_site_aniso_type_symbol
_atom_site_aniso_U_11
_atom_site_aniso_U_22
_atom_site_aniso_U_33
_atom_site_aniso_U_12
_atom_site_aniso_U_13
_atom_site_aniso_U_23
Fe1 Fe 0.0077(8) 0.0077(8) 0.0242(10) 0 0 0
B4 B 0.0102(16) 0.0117(18) 0.0126(13) 0.0005(16) 0.0016(10) -0.0030(11)
B5 B 0.0115(16) 0.0110(16) 0.0078(14) -0.0002(17) 0.0010(9) 0.0008(9)
B2 B 0.0109(16) 0.0109(16) 0.0122(17) -0.004(2) 0.0005(11) -0.0005(11)
B3 B 0.0113(16) 0.0113(16) 0.0075(18) -0.001(2) -0.0001(9) 0.0001(9)
B1 B 0.008(3) 0.008(3) 0.016(4) 0 0 0
loop_
_atom_type_symbol
_atom_type_scat_dispersion_real
_atom_type_scat_dispersion_imag
_atom_type_scat_source
B -0.0003 0.0002 'International Tables Vol C tables 4.2.6.8 and 6.1.1.1'
Fe 0.1988 0.3099 'International Tables Vol C tables 4.2.6.8 and 6.1.1.1'
loop_
_geom_angle_atom_site_label_1
_geom_angle_atom_site_label_2
_geom_angle_atom_site_label_3
_geom_angle_site_symmetry_1
_geom_angle_site_symmetry_2
_geom_angle_site_symmetry_3
_geom_angle
B5 Fe1 B5 . . 2_455 156.80(11)
B5 Fe1 B5 . . 5_455 45.26(13)
B5 Fe1 B5 . . 6_555 141.70(13)
B5 Fe1 B5 . . 11_455 92.32(13)
B5 Fe1 B5 . . 12_555 92.32(13)
B5 Fe1 B5 . . 15_555 49.76(13)
B5 Fe1 B5 . . 16_455 124.41(13)
B5 Fe1 B2 . . 3_455 83.73(12)
B5 Fe1 B2 . . 4_555 114.92(12)
B5 Fe1 B2 . . 7_555 44.45(12)
B5 Fe1 B2 . . 8_455 113.68(12)
B5 Fe1 B1 . . 3_454 78.40(8)
B5 Fe1 B1 . . 3_455 101.60(8)
B5 Fe1 B5 2_455 . 5_455 141.70(13)
B5 Fe1 B5 2_455 . 6_555 45.26(13)
B5 Fe1 B5 2_455 . 11_455 92.32(13)
B5 Fe1 B5 2_455 . 12_555 92.32(13)
B5 Fe1 B5 2_455 . 15_555 124.41(13)
B5 Fe1 B5 2_455 . 16_455 49.76(13)
B5 Fe1 B2 2_455 . 3_455 114.92(12)
B5 Fe1 B2 2_455 . 4_555 83.73(12)
B5 Fe1 B2 2_455 . 7_555 113.68(12)
B5 Fe1 B2 2_455 . 8_455 44.45(12)
B5 Fe1 B1 2_455 . 3_454 78.40(8)
B5 Fe1 B1 2_455 . 3_455 101.60(8)
B5 Fe1 B5 5_455 . 6_555 156.80(11)
B5 Fe1 B5 5_455 . 11_455 49.76(13)
B5 Fe1 B5 5_455 . 12_555 124.41(13)
B5 Fe1 B5 5_455 . 15_555 92.32(13)
B5 Fe1 B5 5_455 . 16_455 92.32(13)
B5 Fe1 B2 5_455 . 3_455 44.45(12)
B5 Fe1 B2 5_455 . 4_555 113.68(12)
B5 Fe1 B2 5_455 . 7_555 83.73(12)
B5 Fe1 B2 5_455 . 8_455 114.92(12)
B5 Fe1 B1 5_455 . 3_454 101.60(8)
B5 Fe1 B1 5_455 . 3_455 78.40(8)
B5 Fe1 B5 6_555 . 11_455 124.41(13)
B5 Fe1 B5 6_555 . 12_555 49.76(13)
B5 Fe1 B5 6_555 . 15_555 92.32(13)
B5 Fe1 B5 6_555 . 16_455 92.32(13)
B5 Fe1 B2 6_555 . 3_455 113.68(12)
B5 Fe1 B2 6_555 . 4_555 44.45(12)
B5 Fe1 B2 6_555 . 7_555 114.92(12)
B5 Fe1 B2 6_555 . 8_455 83.73(12)
B5 Fe1 B1 6_555 . 3_454 101.60(8)
B5 Fe1 B1 6_555 . 3_455 78.40(8)
B5 Fe1 B5 11_455 . 12_555 156.80(11)
B5 Fe1 B5 11_455 . 15_555 141.70(13)
B5 Fe1 B5 11_455 . 16_455 45.26(13)
B5 Fe1 B2 11_455 . 3_455 44.45(12)
B5 Fe1 B2 11_455 . 4_555 113.68(12)
B5 Fe1 B2 11_455 . 7_555 114.92(12)
B5 Fe1 B2 11_455 . 8_455 83.73(12)
B5 Fe1 B1 11_455 . 3_454 101.60(8)
B5 Fe1 B1 11_455 . 3_455 78.40(8)
B5 Fe1 B5 12_555 . 15_555 45.26(13)
B5 Fe1 B5 12_555 . 16_455 141.70(13)
B5 Fe1 B2 12_555 . 3_455 113.68(12)
B5 Fe1 B2 12_555 . 4_555 44.45(12)
B5 Fe1 B2 12_555 . 7_555 83.73(12)
B5 Fe1 B2 12_555 . 8_455 114.92(12)
B5 Fe1 B1 12_555 . 3_454 101.60(8)
B5 Fe1 B1 12_555 . 3_455 78.40(8)
B5 Fe1 B5 15_555 . 16_455 156.80(11)
B5 Fe1 B2 15_555 . 3_455 114.92(12)
B5 Fe1 B2 15_555 . 4_555 83.73(12)
B5 Fe1 B2 15_555 . 7_555 44.45(12)
B5 Fe1 B2 15_555 . 8_455 113.68(12)
B5 Fe1 B1 15_555 . 3_454 78.40(8)
B5 Fe1 B1 15_555 . 3_455 101.60(8)
B5 Fe1 B2 16_455 . 3_455 83.73(12)
B5 Fe1 B2 16_455 . 4_555 114.92(12)
B5 Fe1 B2 16_455 . 7_555 113.68(12)
B5 Fe1 B2 16_455 . 8_455 44.45(12)
B5 Fe1 B1 16_455 . 3_454 78.40(8)
B5 Fe1 B1 16_455 . 3_455 101.60(8)
B2 Fe1 B2 3_455 . 4_555 78.17(13)
B2 Fe1 B2 3_455 . 7_555 127.05(13)
B2 Fe1 B2 3_455 . 8_455 127.05(13)
B2 Fe1 B1 3_455 . 3_454 140.92(9)
B2 Fe1 B1 3_455 . 3_455 39.08(9)
B2 Fe1 B2 4_555 . 7_555 127.05(13)
B2 Fe1 B2 4_555 . 8_455 127.05(13)
B2 Fe1 B1 4_555 . 3_454 140.92(9)
B2 Fe1 B1 4_555 . 3_455 39.08(9)
B2 Fe1 B2 7_555 . 8_455 78.17(13)
B2 Fe1 B1 7_555 . 3_454 39.08(9)
B2 Fe1 B1 7_555 . 3_455 140.92(9)
B2 Fe1 B1 8_455 . 3_454 39.08(9)
B2 Fe1 B1 8_455 . 3_455 140.92(9)
B1 Fe1 B1 3_454 . 3_455 180.0(5)
B4 B4 B4 6_545 . 7_555 140.7(3)
B4 B4 B5 6_545 . . 137.8(2)
B4 B4 B5 6_545 . 7_555 114.7(3)
B4 B4 B2 6_545 . . 99.3(2)
B4 B4 B3 6_545 . . 112.1(2)
B4 B4 B5 7_555 . . 59.57(19)
B4 B4 B5 7_555 . 7_555 59.44(19)
B4 B4 B2 7_555 . . 107.5(3)
B4 B4 B3 7_555 . . 106.2(3)
B5 B4 B5 . . 7_555 107.0(2)
B5 B4 B2 . . . 106.8(3)
B5 B4 B3 . . . 58.9(2)
B5 B4 B2 7_555 . . 60.4(2)
B5 B4 B3 7_555 . . 107.0(3)
B2 B4 B3 . . . 59.3(2)
Fe1 B5 B4 . . . 167.9(2)
Fe1 B5 B4 . . 7_555 129.9(2)
Fe1 B5 B5 . . 5_455 67.37(16)
Fe1 B5 B5 . . 15_555 65.12(15)
Fe1 B5 B2 . . 7_555 77.28(17)
Fe1 B5 B3 . . . 107.21(19)
B4 B5 B4 . . 7_555 60.99(19)
B4 B5 B5 . . 5_455 113.7(2)
B4 B5 B5 . . 15_555 108.1(2)
B4 B5 B2 . . 7_555 108.5(2)
B4 B5 B3 . . . 61.2(2)
B4 B5 B5 7_555 . 5_455 119.8(3)
B4 B5 B5 7_555 . 15_555 108.1(2)
B4 B5 B2 7_555 . 7_555 60.23(19)
B4 B5 B3 7_555 . . 109.2(3)
B5 B5 B5 5_455 . 15_555 127.1(2)
B5 B5 B2 5_455 . 7_555 128.8(3)
B5 B5 B3 5_455 . . 118.5(2)
B5 B5 B2 15_555 . 7_555 59.27(19)
B5 B5 B3 15_555 . . 58.46(19)
B2 B5 B3 7_555 . . 106.4(3)
Fe1 B2 B4 3_554 . . 112.3(2)
Fe1 B2 B4 3_554 . 15_555 112.3(2)
Fe1 B2 B5 3_554 . 7_555 58.27(16)
Fe1 B2 B5 3_554 . 9_555 58.27(16)
Fe1 B2 B3 3_554 . . 162.1(3)
Fe1 B2 B1 3_554 . . 69.86(13)
B4 B2 B4 . . 15_555 110.2(3)
B4 B2 B5 . . 7_555 59.32(19)
B4 B2 B5 . . 9_555 109.1(3)
B4 B2 B3 . . . 60.4(2)
B4 B2 B1 . . . 122.2(3)
B4 B2 B5 15_555 . 7_555 109.1(3)
B4 B2 B5 15_555 . 9_555 59.32(19)
B4 B2 B3 15_555 . . 60.4(2)
B4 B2 B1 15_555 . . 122.2(3)
B5 B2 B5 7_555 . 9_555 61.5(2)
B5 B2 B3 7_555 . . 106.9(3)
B5 B2 B1 7_555 . . 117.2(3)
B5 B2 B3 9_555 . . 106.9(3)
B5 B2 B1 9_555 . . 117.2(3)
B3 B2 B1 . . . 128.1(3)
B4 B3 B4 . . 15_555 109.8(3)
B4 B3 B5 . . . 59.9(2)
B4 B3 B5 . . 15_555 110.8(3)
B4 B3 B2 . . . 60.2(2)
B4 B3 B3 . . 7_556 121.7(3)
B4 B3 B5 15_555 . . 110.8(3)
B4 B3 B5 15_555 . 15_555 59.9(2)
B4 B3 B2 15_555 . . 60.2(2)
B4 B3 B3 15_555 . 7_556 121.7(3)
B5 B3 B5 . . 15_555 63.1(2)
B5 B3 B2 . . . 108.3(3)
B5 B3 B3 . . 7_556 117.2(3)
B5 B3 B2 15_555 . . 108.3(3)
B5 B3 B3 15_555 . 7_556 117.2(3)
B2 B3 B3 . . 7_556 125.9(3)
Fe1 B1 Fe1 3_554 . 3_555 180.0(5)
Fe1 B1 B2 3_554 . . 71.05(15)
Fe1 B1 B2 3_554 . 2_545 71.05(15)
Fe1 B1 B2 3_554 . 5_555 108.95(15)
Fe1 B1 B2 3_554 . 6_545 108.95(15)
Fe1 B1 B2 3_555 . . 108.95(15)
Fe1 B1 B2 3_555 . 2_545 108.95(15)
Fe1 B1 B2 3_555 . 5_555 71.05(15)
Fe1 B1 B2 3_555 . 6_545 71.05(15)
B2 B1 B2 . . 2_545 142.1(2)
B2 B1 B2 . . 5_555 96.05(19)
B2 B1 B2 . . 6_545 96.05(19)
B2 B1 B2 2_545 . 5_555 96.05(19)
B2 B1 B2 2_545 . 6_545 96.05(19)
B2 B1 B2 5_555 . 6_545 142.1(2)
loop_
_geom_bond_atom_site_label_1
_geom_bond_atom_site_label_2
_geom_bond_site_symmetry_1
_geom_bond_site_symmetry_2
_geom_bond_distance
Fe1 B5 . . 2.116(3)
Fe1 B5 . 2_455 2.116(3)
Fe1 B5 . 5_455 2.116(3)
Fe1 B5 . 6_555 2.116(3)
Fe1 B5 . 11_455 2.116(3)
Fe1 B5 . 12_555 2.116(3)
Fe1 B5 . 15_555 2.116(3)
Fe1 B5 . 16_455 2.116(3)
Fe1 B2 . 3_455 2.427(4)
Fe1 B2 . 4_555 2.427(4)
Fe1 B2 . 7_555 2.427(4)
Fe1 B2 . 8_455 2.427(4)
Fe1 B1 . 3_454 2.4091(3)
Fe1 B1 . 3_455 2.4091(3)
B4 B4 . 6_545 1.828(5)
B4 B4 . 7_555 1.747(4)
B4 B5 . . 1.721(5)
B4 B5 . 7_555 1.723(4)
B4 B2 . . 1.739(5)
B4 B3 . . 1.743(5)
B5 B5 . 5_455 1.628(5)
B5 B5 . 15_555 1.781(5)
B5 B2 . 7_555 1.742(5)
B5 B3 . . 1.702(5)
B2 B3 . . 1.723(5)
B2 B1 . . 1.618(4)
B3 B3 . 7_556 1.584(6)
loop_
_refln_index_h
_refln_index_k
_refln_index_l
_refln_F_squared_calc
_refln_F_squared_meas
_refln_F_squared_sigma
_refln_observed_status
1 0 1 501.43 544.46 10.46 o
1 0 3 372.72 437.58 14.21 o
1 0 5 50.15 54.83 6.45 o
1 1 0 1487.81 1326.27 17.95 o
1 1 1 618.80 646.97 12.26 o
1 1 2 760.86 715.65 13.27 o
1 1 3 327.00 437.99 17.97 o
1 1 4 251.12 233.00 9.41 o
1 1 5 5.23 3.95 1.43 o
1 1 6 69.31 39.90 4.27 o
2 0 0 110.06 107.33 5.22 o
2 0 2 206.46 218.79 6.84 o
2 0 4 686.04 697.50 19.69 o
2 1 1 372.40 380.45 5.80 o
2 1 2 4.24 9.11 1.21 o
2 1 3 153.27 161.23 6.42 o
2 1 4 16.26 7.13 2.03 o
2 1 5 55.66 44.69 5.17 o
2 1 6 18.94 10.30 2.35 o
2 2 0 523.52 560.02 25.01 o
2 2 1 0.36 0.50 0.52 <
2 2 2 559.66 655.06 17.55 o
2 2 3 1.12 3.37 0.90 o
2 2 4 359.66 445.81 23.53 o
2 2 5 0.24 3.71 1.22 o
2 2 6 101.69 95.94 12.21 o
3 0 1 164.57 128.63 5.27 o
3 0 3 149.71 121.51 6.97 o
3 1 0 1149.67 1162.95 16.47 o
3 1 1 978.85 1114.32 12.91 o
3 1 2 635.73 589.46 10.85 o
3 1 3 1209.14 1111.43 16.49 o
3 1 4 188.35 245.57 9.36 o
3 1 5 23.38 18.96 3.85 o
3 1 6 48.99 38.77 5.41 o
3 1 7 184.31 131.23 18.00 o
3 2 1 53.41 30.10 3.55 o
3 2 2 21.56 29.53 2.42 o
3 2 3 228.97 219.25 7.99 o
3 2 4 4.30 9.23 1.42 o
3 2 5 174.99 206.52 12.64 o
3 2 6 1.35 0.52 0.44 <
3 3 1 439.12 543.76 21.06 o
3 3 2 531.83 552.07 20.20 o
3 3 3 997.76 983.15 25.65 o
3 3 4 129.11 163.09 10.24 o
3 3 5 130.73 223.99 21.37 o
3 3 6 39.81 45.32 9.13 o
4 0 0 314.85 315.57 13.33 o
4 0 2 642.08 613.27 14.31 o
4 0 4 521.74 570.74 23.80 o
4 0 6 28.28 15.52 3.09 o
4 1 1 1358.33 1516.68 15.58 o
4 1 2 60.48 69.04 4.25 o
4 1 3 56.62 67.04 4.18 o
4 1 4 5.82 11.37 2.16 o
4 1 5 31.39 22.93 7.71 o
4 1 6 9.92 2.21 1.92 <
4 1 7 0.10 -1.14 5.01 <
4 2 0 867.15 919.07 26.95 o
4 2 1 0.02 -0.53 0.85 <
4 2 2 475.58 487.46 14.24 o
4 2 3 0.07 1.27 1.47 <
4 2 4 130.61 139.62 7.11 o
4 2 5 0.50 1.78 0.76 o
4 2 6 46.07 53.18 6.74 o
4 3 1 358.15 365.89 18.37 o
4 3 2 584.32 534.55 13.05 o
4 3 3 156.69 153.98 7.33 o
4 3 4 213.45 274.77 10.32 o
4 3 5 18.05 29.04 3.00 o
4 3 6 24.66 28.22 4.97 o
4 4 1 21.00 13.53 4.10 o
4 4 2 596.34 535.69 23.54 o
4 4 3 21.07 21.30 2.77 o
4 4 4 0.98 0.55 1.43 <
4 4 5 5.46 6.84 1.61 o
4 4 6 0.54 2.44 2.10 <
5 0 1 1500.01 1413.42 26.91 o
5 0 3 7.49 4.79 1.61 o
5 0 5 95.78 90.11 5.54 o
5 1 0 528.09 500.72 16.13 o
5 1 1 43.58 47.80 3.18 o
5 1 2 448.29 436.28 11.48 o
5 1 3 57.49 57.26 3.95 o
5 1 4 216.96 249.24 9.50 o
5 1 5 0.79 0.98 1.60 <
5 1 6 37.31 30.35 9.84 o
5 1 7 11.80 -3.18 5.23 <
5 2 1 742.99 723.00 16.11 o
5 2 2 844.23 813.90 18.61 o
5 2 3 114.78 122.04 8.52 o
5 2 4 212.77 231.39 11.70 o
5 2 5 5.04 2.02 1.63 <
5 2 6 73.01 77.75 16.96 o
5 3 0 482.63 476.82 23.60 o
5 3 1 2.11 0.54 2.30 <
5 3 2 349.33 383.51 14.51 o
5 3 3 2.15 -0.07 1.36 <
5 3 4 153.74 191.96 11.09 o
5 3 5 32.05 34.10 4.30 o
5 3 6 46.21 65.04 7.62 o
5 4 1 119.15 79.24 10.88 o
5 4 2 38.73 26.42 5.04 o
5 4 3 259.51 278.06 10.35 o
5 4 4 12.60 8.05 1.30 o
5 4 5 564.30 760.69 22.41 o
5 4 6 3.08 2.08 1.68 <
5 5 1 1.06 0.18 5.85 <
5 5 2 281.75 264.40 20.73 o
5 5 3 0.16 0.46 1.46 <
5 5 4 15.91 16.27 2.73 o
5 5 5 9.57 14.46 3.38 o
5 5 6 24.61 22.85 3.60 o
6 0 0 122.55 135.74 11.26 o
6 0 2 19.79 25.58 3.66 o
6 0 4 667.79 647.80 22.09 o
6 1 1 36.89 22.00 2.32 o
6 1 2 313.91 318.65 9.92 o
6 1 3 223.56 206.58 8.64 o
6 1 4 67.66 62.58 4.87 o
6 1 5 424.65 473.16 15.42 o
6 1 6 36.24 20.23 5.08 o
6 2 0 2718.82 2741.16 44.88 o
6 2 1 10.58 9.77 1.63 o
6 2 2 875.47 855.31 16.80 o
6 2 3 5.70 8.84 2.19 o
6 2 4 9.42 9.00 1.41 o
6 2 5 9.79 6.55 3.13 o
6 2 6 87.70 68.16 17.79 o
6 3 1 738.08 703.24 20.54 o
6 3 2 195.97 193.32 10.50 o
6 3 3 27.76 27.49 4.20 o
6 3 4 53.90 41.22 5.71 o
6 3 5 30.94 37.45 4.84 o
6 3 6 16.39 30.56 6.10 o
6 4 0 4.87 8.70 3.61 o
6 4 1 1.04 3.72 5.66 <
6 4 2 62.97 60.79 8.09 o
6 4 3 6.32 3.59 1.40 o
6 4 4 434.24 482.94 16.03 o
6 4 5 3.71 -0.25 2.01 <
6 4 6 295.50 403.18 17.71 o
6 5 1 213.85 191.41 19.33 o
6 5 2 13.35 13.19 5.22 o
6 5 3 44.76 48.63 6.27 o
6 5 4 1.47 1.12 1.60 <
6 5 5 3.57 2.54 3.11 <
6 5 6 12.99 8.96 2.63 o
6 6 2 346.86 301.31 36.20 o
6 6 3 83.63 79.64 10.80 o
6 6 4 79.14 103.34 11.75 o
6 6 5 3.51 11.26 8.12 <
6 6 6 0.53 2.84 5.10 <
7 0 1 0.24 0.81 1.34 <
7 0 3 128.02 112.38 8.10 o
7 0 5 220.67 178.72 10.55 o
7 1 0 281.77 245.02 15.43 o
7 1 1 7.24 7.61 1.44 o
7 1 2 198.33 176.90 7.60 o
7 1 3 5.26 4.62 1.79 o
7 1 4 116.42 116.93 8.13 o
7 1 5 5.55 3.48 0.94 o
7 2 1 174.66 167.01 8.15 o
7 2 2 208.02 222.91 8.91 o
7 2 3 69.34 81.06 6.12 o
7 2 4 86.90 94.41 7.02 o
7 2 5 15.05 8.04 1.39 o
7 3 0 77.54 87.44 10.26 o
7 3 1 10.80 7.64 2.35 o
7 3 2 186.48 183.64 12.77 o
7 3 3 34.55 36.99 5.79 o
7 3 4 270.24 328.18 16.64 o
7 3 5 5.64 10.30 3.10 o
7 4 1 128.01 132.50 10.25 o
7 4 2 4.62 6.56 2.22 o
7 4 3 42.78 43.79 5.72 o
7 4 4 3.50 3.04 1.94 <
7 4 5 18.63 13.01 3.67 o
7 5 0 338.48 298.81 24.98 o
7 5 1 78.21 70.41 11.40 o
7 5 2 228.30 252.40 19.66 o
7 5 3 157.08 135.41 10.34 o
7 5 4 70.84 50.67 7.75 o
7 5 5 0.34 -0.89 2.13 <
7 6 1 446.24 450.38 48.44 o
7 6 2 63.02 67.89 17.36 o
7 6 3 33.91 19.69 5.72 o
7 6 4 20.32 11.76 4.73 o
7 6 5 27.10 37.83 11.53 o
8 0 0 767.17 929.42 35.33 o
8 0 2 311.67 334.43 14.58 o
8 0 4 13.65 13.81 3.98 o
8 1 1 166.23 174.86 7.73 o
8 1 2 2.02 3.04 1.24 o
8 1 3 75.63 79.99 5.48 o
8 1 4 15.80 9.26 2.35 o
8 1 5 8.55 8.36 2.89 o
8 2 0 150.59 141.76 10.06 o
8 2 1 10.45 10.91 1.99 o
8 2 2 157.47 170.39 8.53 o
8 2 3 36.54 36.33 4.53 o
8 2 4 132.66 125.83 11.93 o
8 2 5 6.93 6.76 8.14 <
8 3 1 337.58 363.80 14.83 o
8 3 2 26.34 22.98 3.58 o
8 3 3 24.09 18.24 4.11 o
8 3 4 6.19 4.85 1.06 o
8 3 5 4.41 3.26 3.04 <
8 4 0 174.58 165.24 17.08 o
8 4 1 105.35 93.40 8.52 o
8 4 2 206.36 197.71 14.97 o
8 4 3 216.71 232.28 17.65 o
8 4 4 142.20 138.79 14.53 o
8 4 5 0.45 0.12 1.66 <
8 5 1 2.04 3.20 4.79 <
8 5 2 168.76 222.38 26.31 o
8 5 3 41.31 30.08 8.24 o
8 5 4 78.66 58.16 10.10 o
8 5 5 95.90 68.60 16.20 o
8 6 4 77.15 40.78 8.70 o
9 0 1 0.12 2.20 1.65 <
9 0 3 167.45 176.82 13.97 o
9 0 5 146.35 187.42 18.32 o
9 1 0 1042.32 1090.30 29.72 o
9 1 1 103.32 114.86 6.80 o
9 1 2 353.16 361.37 13.03 o
9 1 3 318.24 330.32 13.65 o
9 1 4 0.50 1.44 1.70 <
9 1 5 38.25 32.30 4.69 o
9 2 1 190.52 204.95 11.13 o
9 2 2 84.59 89.08 7.21 o
9 2 3 39.09 40.76 5.60 o
9 2 4 10.15 8.11 2.23 o
9 2 5 0.19 2.51 2.97 <
9 3 0 174.87 152.71 21.40 o
9 3 1 144.85 159.69 11.38 o
9 3 2 149.29 154.11 12.47 o
9 3 3 369.03 451.55 26.07 o
9 3 4 83.79 95.00 10.81 o
9 4 1 163.78 179.37 27.39 o
9 4 2 198.85 180.66 18.49 o
9 4 3 6.56 4.84 3.66 <
9 4 4 75.29 78.76 11.99 o
9 5 3 118.97 95.76 17.24 o
9 5 4 400.15 301.85 24.87 o
10 0 0 117.50 105.36 17.64 o
10 0 2 104.86 98.70 11.60 o
10 0 4 80.21 77.06 9.14 o
10 1 1 121.44 116.28 11.44 o
10 1 2 60.86 60.00 6.51 o
10 1 3 21.64 22.34 3.65 o
10 1 4 6.83 4.90 2.10 o
10 1 5 2.49 3.40 4.08 <
10 2 0 161.48 143.13 22.60 o
10 2 1 190.58 180.07 14.05 o
10 2 2 147.21 146.94 11.98 o
10 2 3 374.54 411.11 22.84 o
10 2 4 81.81 166.68 15.80 o
10 2 5 0.07 0.77 2.44 <
10 3 2 2.19 1.46 0.80 <
10 3 3 73.98 67.25 13.06 o
10 3 4 6.44 3.72 2.36 <
10 4 2 72.00 47.01 12.73 o
10 4 3 112.08 96.21 16.02 o
10 4 4 93.05 86.80 14.60 o
10 5 3 21.80 19.94 7.43 o
11 0 3 14.98 10.28 5.70 <
11 1 2 21.46 9.64 5.11 <
11 1 3 6.09 8.06 4.04 <
11 1 4 327.66 369.87 17.90 o
11 2 2 4.70 2.29 1.72 <
11 2 3 23.64 17.17 11.00 <
11 2 4 2.48 1.30 2.48 <
11 3 3 18.74 -0.98 6.04 <
