#------------------------------------------------------------------------------
#$Date: 2021-04-14 12:36:29 +0300 (Wed, 14 Apr 2021) $
#$Revision: 264141 $
#$URL: file:///home/coder/svn-repositories/cod/cif/1/56/17/1561746.cif $
#------------------------------------------------------------------------------
#
# This file is available in the Crystallography Open Database (COD),
# http://www.crystallography.net/
#
# All data on this site have been placed in the public domain by the
# contributors.
#
data_1561746
loop_
_publ_author_name
'Bykova, E.'
'Gou, H.'
'Bykov, M.'
'Hanfland, M.'
'Dubrovinsky, L.'
'Dubrovinskaia, N.'
_publ_section_title
;
 Crystal structures and compressibility of novel iron borides Fe2B7 and Fe
 B50 synthesized at high pressure and high temperature
;
_journal_name_full               'Journal of Solid State Chemistry'
_journal_page_first              102
_journal_page_last               109
_journal_paper_doi               10.1016/j.jssc.2015.06.040
_journal_volume                  230
_journal_year                    2015
_chemical_absolute_configuration .
_chemical_formula_moiety         'B50 Fe1.324'
_chemical_formula_sum            'B50 Fe1.324'
_chemical_formula_weight         614.4
_chemical_name_common            'Iron Boron (1.324/50)'
_chemical_name_systematic        'Iron Boron (1.324/50)'
_space_group_IT_number           134
_space_group_name_Hall           '-P 4ac 2bc'
_space_group_name_H-M_alt        'P 42/n n m :2'
_symmetry_cell_setting           tetragonal
_symmetry_Int_Tables_number      134
_symmetry_space_group_name_Hall  '-P 4ac 2bc'
_symmetry_space_group_name_H-M   'P 42/n n m :2'
_cell_angle_alpha                90
_cell_angle_beta                 90
_cell_angle_gamma                90
_cell_formula_units_Z            1
_cell_length_a                   8.9175(3)
_cell_length_b                   8.9175(3)
_cell_length_c                   5.0364(3)
_cell_measurement_reflns_used    295
_cell_measurement_temperature    293
_cell_measurement_theta_max      19.11
_cell_measurement_theta_min      2.71
_cell_volume                     400.50(3)
_computing_cell_refinement
;
CrysAlisPro, Agilent Technologies,
Version 1.171.37.35 (release 13-08-2014 CrysAlis171 .NET)
(compiled Aug 13 2014,18:06:01)
;
_computing_data_collection
;
CrysAlisPro, Agilent Technologies,
Version 1.171.37.35 (release 13-08-2014 CrysAlis171 .NET)
(compiled Aug 13 2014,18:06:01)
;
_computing_data_reduction
;
CrysAlisPro, Agilent Technologies,
Version 1.171.37.35 (release 13-08-2014 CrysAlis171 .NET)
(compiled Aug 13 2014,18:06:01)
;
_computing_structure_refinement  'Jana2006 (Petricek, 2014)'
_computing_structure_solution    'SHELXS-2013 (Sheldrick, 2013)'
_diffrn_ambient_pressure         2800000
_diffrn_ambient_temperature      293
_diffrn_detector                 'MAR555 flatpanel detector'
_diffrn_measured_fraction_theta_full 0.92
_diffrn_measured_fraction_theta_max 0.68
_diffrn_measurement_device
;
customized omega-circle diffractometer
;
_diffrn_measurement_device_type  'ESRF, beamline ID09A diffractometer'
_diffrn_measurement_method       '\w scans'
_diffrn_radiation_monochromator  synchrotron
_diffrn_radiation_probe          x-ray
_diffrn_radiation_source         synchrotron
_diffrn_radiation_type           synchrotron
_diffrn_radiation_wavelength     0.41441
_diffrn_reflns_av_R_equivalents  0.0336
_diffrn_reflns_av_unetI/netI     0.0362
_diffrn_reflns_limit_h_max       12
_diffrn_reflns_limit_h_min       -12
_diffrn_reflns_limit_k_max       5
_diffrn_reflns_limit_k_min       -9
_diffrn_reflns_limit_l_max       6
_diffrn_reflns_limit_l_min       -7
_diffrn_reflns_number            873
_diffrn_reflns_theta_full        14.5
_diffrn_reflns_theta_max         19.35
_diffrn_reflns_theta_min         2.66
_diffrn_source                   synchrotron
_exptl_absorpt_coefficient_mu    0.287
_exptl_absorpt_correction_T_max  1
_exptl_absorpt_correction_T_min  0.35
_exptl_absorpt_correction_type   multi-scan
_exptl_absorpt_process_details
;
CrysAlisPro, Agilent Technologies,
Version 1.171.37.35 (release 13-08-2014 CrysAlis171 .NET)
(compiled Aug 13 2014,18:06:01)
Empirical absorption correction using spherical harmonics,
 implemented in SCALE3 ABSPACK scaling algorithm.
;
_exptl_crystal_colour            black
_exptl_crystal_density_diffrn    2.5467
_exptl_crystal_description       plate
_exptl_crystal_F_000             284
_exptl_crystal_size_max          0.020
_exptl_crystal_size_mid          0.010
_exptl_crystal_size_min          0.005
_refine_diff_density_max         0.33
_refine_diff_density_min         -0.32
_refine_ls_extinction_method     none
_refine_ls_goodness_of_fit_gt    2.08
_refine_ls_goodness_of_fit_ref   2.01
_refine_ls_number_constraints    0
_refine_ls_number_parameters     36
_refine_ls_number_reflns         319
_refine_ls_number_restraints     0
_refine_ls_R_factor_all          0.0424
_refine_ls_R_factor_gt           0.0382
_refine_ls_shift/su_max          0.0003
_refine_ls_shift/su_mean         0.0001
_refine_ls_structure_factor_coef Fsqd
_refine_ls_weighting_details     w=1/(\s^2^(I)+0.0004I^2^)
_refine_ls_weighting_scheme      sigma
_refine_ls_wR_factor_gt          0.0951
_refine_ls_wR_factor_ref         0.0991
_reflns_number_gt                280
_reflns_number_total             319
_reflns_threshold_expression     I>2\s(I)
_cod_data_source_file            fe1.32B50_02.8GPa.cif
_cod_data_source_block           1
_cod_depositor_comments
;
The following automatic conversions were performed:

data item '_diffrn_radiation_probe' value 'X-ray' was changed to
'x-ray' in accordance with the built-in table derived from the CIF
Core dictionary named 'cif_core.dic' version 2.4.5 last updated on
2014-11-21.

Automatic conversion script
Id: cif_fix_values 8369 2020-08-20 11:38:08Z andrius 
;
_cod_original_sg_symbol_H-M      'P 42/n n m'
_cod_database_code               1561746
loop_
_symmetry_equiv_pos_site_id
_symmetry_equiv_pos_as_xyz
1 x,y,z
2 -x+1/2,-y+1/2,z
3 -y+1/2,x,z+1/2
4 y,-x+1/2,z+1/2
5 -x+1/2,y,-z+1/2
6 x,-y+1/2,-z+1/2
7 y,x,-z
8 -y+1/2,-x+1/2,-z
9 -x,-y,-z
10 x+1/2,y+1/2,-z
11 y+1/2,-x,-z+1/2
12 -y,x+1/2,-z+1/2
13 x+1/2,-y,z+1/2
14 -x,y+1/2,z+1/2
15 -y,-x,z
16 y+1/2,x+1/2,z
loop_
_atom_site_label
_atom_site_type_symbol
_atom_site_fract_x
_atom_site_fract_y
_atom_site_fract_z
_atom_site_adp_type
_atom_site_U_iso_or_equiv
_atom_site_site_symmetry_multiplicity
_atom_site_occupancy
_atom_site_calc_flag
_atom_site_refinement_flags
_atom_site_disorder_assembly
_atom_site_disorder_group
Fe1 Fe -0.25 0.25 0.25 Uani 0.0118(3) 2 0.662(5) d . . .
B4 B -0.0735(2) -0.1564(2) 0.1477(3) Uani 0.0080(5) 16 1 d . . .
B5 B -0.1672(2) 0.0205(2) 0.1631(3) Uani 0.0051(5) 16 1 d . . .
B2 B 0.1225(2) -0.1225(2) 0.1378(4) Uani 0.0049(5) 8 1 d . . .
B3 B 0.00377(19) -0.00377(19) 0.3356(4) Uani 0.0045(5) 8 1 d . . .
B1 B 0.25 -0.25 0.25 Uani 0.0049(10) 2 1 d . . .
loop_
_atom_site_aniso_label
_atom_site_aniso_type_symbol
_atom_site_aniso_U_11
_atom_site_aniso_U_22
_atom_site_aniso_U_33
_atom_site_aniso_U_12
_atom_site_aniso_U_13
_atom_site_aniso_U_23
Fe1 Fe 0.0037(5) 0.0037(5) 0.0281(7) 0 0 0
B4 B 0.0057(9) 0.0111(10) 0.0072(7) -0.0001(9) 0.0009(5) -0.0041(5)
B5 B 0.0056(9) 0.0062(9) 0.0034(7) -0.0006(8) 0.0008(5) -0.0005(5)
B2 B 0.0055(9) 0.0055(9) 0.0036(9) -0.0007(11) 0.0003(5) -0.0003(5)
B3 B 0.0060(9) 0.0060(9) 0.0015(9) 0.0000(12) 0.0003(5) -0.0003(5)
B1 B 0.0049(16) 0.0049(16) 0.0050(19) 0 0 0
loop_
_atom_type_symbol
_atom_type_scat_dispersion_real
_atom_type_scat_dispersion_imag
_atom_type_scat_source
B -0.0003 0.0002 'International Tables Vol C tables 4.2.6.8 and 6.1.1.1'
Fe 0.1991 0.3104 'International Tables Vol C tables 4.2.6.8 and 6.1.1.1'
loop_
_geom_angle_atom_site_label_1
_geom_angle_atom_site_label_2
_geom_angle_atom_site_label_3
_geom_angle_site_symmetry_1
_geom_angle_site_symmetry_2
_geom_angle_site_symmetry_3
_geom_angle
B5 Fe1 B5 . . 2_455 157.25(6)
B5 Fe1 B5 . . 5_455 45.49(6)
B5 Fe1 B5 . . 6_555 141.15(6)
B5 Fe1 B5 . . 11_455 92.23(6)
B5 Fe1 B5 . . 12_555 92.23(6)
B5 Fe1 B5 . . 15_555 49.29(6)
B5 Fe1 B5 . . 16_455 125.06(6)
B5 Fe1 B2 . . 3_455 83.52(6)
B5 Fe1 B2 . . 4_555 114.67(6)
B5 Fe1 B2 . . 7_555 44.25(6)
B5 Fe1 B2 . . 8_455 114.32(6)
B5 Fe1 B1 . . 3_454 78.62(4)
B5 Fe1 B1 . . 3_455 101.38(4)
B5 Fe1 B5 2_455 . 5_455 141.15(6)
B5 Fe1 B5 2_455 . 6_555 45.49(6)
B5 Fe1 B5 2_455 . 11_455 92.23(6)
B5 Fe1 B5 2_455 . 12_555 92.23(6)
B5 Fe1 B5 2_455 . 15_555 125.06(6)
B5 Fe1 B5 2_455 . 16_455 49.29(6)
B5 Fe1 B2 2_455 . 3_455 114.67(6)
B5 Fe1 B2 2_455 . 4_555 83.52(6)
B5 Fe1 B2 2_455 . 7_555 114.32(6)
B5 Fe1 B2 2_455 . 8_455 44.25(6)
B5 Fe1 B1 2_455 . 3_454 78.62(4)
B5 Fe1 B1 2_455 . 3_455 101.38(4)
B5 Fe1 B5 5_455 . 6_555 157.25(6)
B5 Fe1 B5 5_455 . 11_455 49.29(6)
B5 Fe1 B5 5_455 . 12_555 125.06(6)
B5 Fe1 B5 5_455 . 15_555 92.23(6)
B5 Fe1 B5 5_455 . 16_455 92.23(6)
B5 Fe1 B2 5_455 . 3_455 44.25(6)
B5 Fe1 B2 5_455 . 4_555 114.32(6)
B5 Fe1 B2 5_455 . 7_555 83.52(6)
B5 Fe1 B2 5_455 . 8_455 114.67(6)
B5 Fe1 B1 5_455 . 3_454 101.38(4)
B5 Fe1 B1 5_455 . 3_455 78.62(4)
B5 Fe1 B5 6_555 . 11_455 125.06(6)
B5 Fe1 B5 6_555 . 12_555 49.29(6)
B5 Fe1 B5 6_555 . 15_555 92.23(6)
B5 Fe1 B5 6_555 . 16_455 92.23(6)
B5 Fe1 B2 6_555 . 3_455 114.32(6)
B5 Fe1 B2 6_555 . 4_555 44.25(6)
B5 Fe1 B2 6_555 . 7_555 114.67(6)
B5 Fe1 B2 6_555 . 8_455 83.52(6)
B5 Fe1 B1 6_555 . 3_454 101.38(4)
B5 Fe1 B1 6_555 . 3_455 78.62(4)
B5 Fe1 B5 11_455 . 12_555 157.25(6)
B5 Fe1 B5 11_455 . 15_555 141.15(6)
B5 Fe1 B5 11_455 . 16_455 45.49(6)
B5 Fe1 B2 11_455 . 3_455 44.25(6)
B5 Fe1 B2 11_455 . 4_555 114.32(6)
B5 Fe1 B2 11_455 . 7_555 114.67(6)
B5 Fe1 B2 11_455 . 8_455 83.52(6)
B5 Fe1 B1 11_455 . 3_454 101.38(4)
B5 Fe1 B1 11_455 . 3_455 78.62(4)
B5 Fe1 B5 12_555 . 15_555 45.49(6)
B5 Fe1 B5 12_555 . 16_455 141.15(6)
B5 Fe1 B2 12_555 . 3_455 114.32(6)
B5 Fe1 B2 12_555 . 4_555 44.25(6)
B5 Fe1 B2 12_555 . 7_555 83.52(6)
B5 Fe1 B2 12_555 . 8_455 114.67(6)
B5 Fe1 B1 12_555 . 3_454 101.38(4)
B5 Fe1 B1 12_555 . 3_455 78.62(4)
B5 Fe1 B5 15_555 . 16_455 157.25(6)
B5 Fe1 B2 15_555 . 3_455 114.67(6)
B5 Fe1 B2 15_555 . 4_555 83.52(6)
B5 Fe1 B2 15_555 . 7_555 44.25(6)
B5 Fe1 B2 15_555 . 8_455 114.32(6)
B5 Fe1 B1 15_555 . 3_454 78.62(4)
B5 Fe1 B1 15_555 . 3_455 101.38(4)
B5 Fe1 B2 16_455 . 3_455 83.52(6)
B5 Fe1 B2 16_455 . 4_555 114.67(6)
B5 Fe1 B2 16_455 . 7_555 114.32(6)
B5 Fe1 B2 16_455 . 8_455 44.25(6)
B5 Fe1 B1 16_455 . 3_454 78.62(4)
B5 Fe1 B1 16_455 . 3_455 101.38(4)
B2 Fe1 B2 3_455 . 4_555 78.95(6)
B2 Fe1 B2 3_455 . 7_555 126.57(6)
B2 Fe1 B2 3_455 . 8_455 126.57(6)
B2 Fe1 B1 3_455 . 3_454 140.53(4)
B2 Fe1 B1 3_455 . 3_455 39.47(4)
B2 Fe1 B2 4_555 . 7_555 126.57(6)
B2 Fe1 B2 4_555 . 8_455 126.57(6)
B2 Fe1 B1 4_555 . 3_454 140.53(4)
B2 Fe1 B1 4_555 . 3_455 39.47(4)
B2 Fe1 B2 7_555 . 8_455 78.95(6)
B2 Fe1 B1 7_555 . 3_454 39.47(4)
B2 Fe1 B1 7_555 . 3_455 140.53(4)
B2 Fe1 B1 8_455 . 3_454 39.47(4)
B2 Fe1 B1 8_455 . 3_455 140.53(4)
B1 Fe1 B1 3_454 . 3_455 180.0(5)
B4 B4 B4 6_545 . 7_555 140.86(14)
B4 B4 B5 6_545 . . 136.75(12)
B4 B4 B5 6_545 . 7_555 114.57(13)
B4 B4 B2 6_545 . . 99.19(12)
B4 B4 B3 6_545 . . 111.60(12)
B4 B4 B5 7_555 . . 59.11(10)
B4 B4 B5 7_555 . 7_555 59.57(10)
B4 B4 B2 7_555 . . 107.95(13)
B4 B4 B3 7_555 . . 106.23(13)
B5 B4 B5 . . 7_555 107.88(12)
B5 B4 B2 . . . 108.16(13)
B5 B4 B3 . . . 59.18(10)
B5 B4 B2 7_555 . . 61.33(11)
B5 B4 B3 7_555 . . 108.94(13)
B2 B4 B3 . . . 60.49(10)
Fe1 B5 B4 . . . 168.02(11)
Fe1 B5 B4 . . 7_555 128.80(10)
Fe1 B5 B5 . . 5_455 67.25(8)
Fe1 B5 B5 . . 15_555 65.36(8)
Fe1 B5 B2 . . 7_555 77.02(9)
Fe1 B5 B3 . . . 107.62(10)
B4 B5 B4 . . 7_555 61.32(10)
B4 B5 B5 . . 5_455 115.12(13)
B4 B5 B5 . . 15_555 107.06(12)
B4 B5 B2 . . 7_555 107.67(12)
B4 B5 B3 . . . 60.65(10)
B4 B5 B5 7_555 . 5_455 119.74(13)
B4 B5 B5 7_555 . 15_555 107.14(12)
B4 B5 B2 7_555 . 7_555 59.23(10)
B4 B5 B3 7_555 . . 109.13(13)
B5 B5 B5 5_455 . 15_555 127.46(12)
B5 B5 B2 5_455 . 7_555 128.05(13)
B5 B5 B3 5_455 . . 119.41(12)
B5 B5 B2 15_555 . 7_555 59.29(9)
B5 B5 B3 15_555 . . 58.45(9)
B2 B5 B3 7_555 . . 106.39(12)
Fe1 B2 B4 3_554 . . 112.82(11)
Fe1 B2 B4 3_554 . 15_555 112.82(11)
Fe1 B2 B5 3_554 . 7_555 58.73(8)
Fe1 B2 B5 3_554 . 9_555 58.73(8)
Fe1 B2 B3 3_554 . . 163.12(12)
Fe1 B2 B1 3_554 . . 69.88(6)
B4 B2 B4 . . 15_555 109.56(13)
B4 B2 B5 . . 7_555 59.44(10)
B4 B2 B5 . . 9_555 109.03(13)
B4 B2 B3 . . . 60.33(10)
B4 B2 B1 . . . 122.29(12)
B4 B2 B5 15_555 . 7_555 109.03(13)
B4 B2 B5 15_555 . 9_555 59.44(10)
B4 B2 B3 15_555 . . 60.33(10)
B4 B2 B1 15_555 . . 122.29(12)
B5 B2 B5 7_555 . 9_555 61.43(10)
B5 B2 B3 7_555 . . 107.32(12)
B5 B2 B1 7_555 . . 117.71(12)
B5 B2 B3 9_555 . . 107.32(12)
B5 B2 B1 9_555 . . 117.71(12)
B3 B2 B1 . . . 127.00(14)
B4 B3 B4 . . 15_555 107.70(13)
B4 B3 B5 . . . 60.17(10)
B4 B3 B5 . . 15_555 110.34(13)
B4 B3 B2 . . . 59.18(10)
B4 B3 B3 . . 7_556 122.79(13)
B4 B3 B5 15_555 . . 110.34(13)
B4 B3 B5 15_555 . 15_555 60.17(10)
B4 B3 B2 15_555 . . 59.18(10)
B4 B3 B3 15_555 . 7_556 122.79(13)
B5 B3 B5 . . 15_555 63.11(10)
B5 B3 B2 . . . 107.90(13)
B5 B3 B3 . . 7_556 116.78(13)
B5 B3 B2 15_555 . . 107.90(13)
B5 B3 B3 15_555 . 7_556 116.78(13)
B2 B3 B3 . . 7_556 126.94(14)
Fe1 B1 Fe1 3_554 . 3_555 180.0(5)
Fe1 B1 B2 3_554 . . 70.64(7)
Fe1 B1 B2 3_554 . 2_545 70.64(7)
Fe1 B1 B2 3_554 . 5_555 109.36(7)
Fe1 B1 B2 3_554 . 6_545 109.36(7)
Fe1 B1 B2 3_555 . . 109.36(7)
Fe1 B1 B2 3_555 . 2_545 109.36(7)
Fe1 B1 B2 3_555 . 5_555 70.64(7)
Fe1 B1 B2 3_555 . 6_545 70.64(7)
B2 B1 B2 . . 2_545 141.29(10)
B2 B1 B2 . . 5_555 96.31(9)
B2 B1 B2 . . 6_545 96.31(9)
B2 B1 B2 2_545 . 5_555 96.31(9)
B2 B1 B2 2_545 . 6_545 96.31(9)
B2 B1 B2 5_555 . 6_545 141.29(10)
loop_
_geom_bond_atom_site_label_1
_geom_bond_atom_site_label_2
_geom_bond_site_symmetry_1
_geom_bond_site_symmetry_2
_geom_bond_distance
Fe1 B5 . . 2.2193(17)
Fe1 B5 . 2_455 2.2193(17)
Fe1 B5 . 5_455 2.2193(17)
Fe1 B5 . 6_555 2.2193(17)
Fe1 B5 . 11_455 2.2193(17)
Fe1 B5 . 12_555 2.2193(17)
Fe1 B5 . 15_555 2.2193(17)
Fe1 B5 . 16_455 2.2193(17)
Fe1 B2 . 3_455 2.530(2)
Fe1 B2 . 4_555 2.530(2)
Fe1 B2 . 7_555 2.530(2)
Fe1 B2 . 8_455 2.530(2)
Fe1 B1 . 3_454 2.5182(3)
Fe1 B1 . 3_455 2.5182(3)
B4 B4 . 6_545 1.963(3)
B4 B4 . 7_555 1.818(3)
B4 B5 . . 1.786(3)
B4 B5 . 7_555 1.778(2)
B4 B2 . . 1.774(3)
B4 B3 . . 1.795(3)
B5 B5 . 5_455 1.716(2)
B5 B5 . 15_555 1.851(2)
B5 B2 . 7_555 1.812(3)
B5 B3 . . 1.768(2)
B2 B3 . . 1.798(3)
B2 B1 . . 1.7049(19)
B3 B3 . 7_556 1.659(3)
loop_
_refln_index_h
_refln_index_k
_refln_index_l
_refln_F_squared_calc
_refln_F_squared_meas
_refln_F_squared_sigma
_refln_observed_status
1 0 1 498.69 478.29 10.22 o
1 0 3 435.88 426.11 13.63 o
1 0 5 55.23 61.40 4.48 o
1 0 7 30.03 32.87 3.85 o
1 1 1 729.19 792.88 15.80 o
1 1 2 807.80 727.40 15.34 o
1 1 3 394.35 455.48 15.85 o
1 1 4 260.77 245.46 7.00 o
1 1 5 14.77 11.54 1.40 o
1 1 6 81.04 75.91 4.04 o
1 1 7 141.61 136.51 9.07 o
2 0 0 200.43 176.59 5.25 o
2 0 2 189.67 234.54 6.68 o
2 0 4 840.68 852.90 24.99 o
2 0 6 623.88 690.40 22.62 o
2 1 1 379.36 400.76 6.09 o
2 1 2 8.41 11.94 0.92 o
2 1 3 128.86 130.95 3.63 o
2 1 4 27.73 28.03 2.30 o
2 1 5 42.32 43.28 3.28 o
2 1 6 51.87 55.63 3.88 o
2 1 7 32.45 26.77 2.85 o
2 2 1 0.02 -0.05 0.11 <
2 2 2 602.31 679.85 16.09 o
2 2 3 0.36 0.32 0.36 <
2 2 4 393.49 413.88 11.61 o
2 2 5 0.68 0.26 0.79 <
2 2 6 116.31 111.25 8.70 o
2 2 7 0.00 -0.18 0.10 <
3 0 1 188.86 154.03 3.99 o
3 0 3 136.18 118.05 4.14 o
3 1 0 1215.81 1185.97 17.36 o
3 1 1 1066.06 1240.36 9.45 o
3 1 2 680.92 691.34 9.46 o
3 1 3 1365.41 1313.03 19.10 o
3 1 4 211.03 216.09 8.09 o
3 1 5 23.23 27.22 2.96 o
3 1 6 59.45 59.79 4.57 o
3 1 7 326.33 306.31 16.50 o
3 2 1 58.73 34.08 2.38 o
3 2 2 22.13 24.46 1.54 o
3 2 3 248.08 221.95 5.95 o
3 2 4 6.43 8.05 1.01 o
3 2 5 187.72 193.59 8.43 o
3 2 6 1.17 0.36 0.37 <
3 2 7 17.72 15.65 3.38 o
3 3 1 567.21 721.99 26.58 o
3 3 2 570.71 629.22 17.35 o
3 3 3 1341.41 1362.07 30.80 o
3 3 4 153.80 163.04 7.73 o
3 3 5 211.44 225.34 9.24 o
3 3 6 52.92 49.40 6.42 o
3 3 7 191.44 196.03 14.10 o
4 0 0 355.93 405.91 11.48 o
4 0 2 776.40 870.11 14.88 o
4 0 4 676.74 759.84 15.06 o
4 0 6 20.37 14.71 2.24 o
4 1 1 1399.18 1503.88 15.73 o
4 1 2 75.88 78.04 2.72 o
4 1 3 57.67 84.35 2.72 o
4 1 4 4.34 4.71 0.64 o
4 1 5 50.36 47.20 3.69 o
4 1 6 26.62 24.62 4.32 o
4 1 7 1.97 2.58 1.77 <
4 2 0 1094.65 1164.51 27.08 o
4 2 1 1.02 2.43 0.53 o
4 2 2 552.50 545.06 10.71 o
4 2 3 0.32 0.80 0.46 <
4 2 4 125.89 117.15 5.21 o
4 2 5 1.46 2.49 0.92 o
4 2 6 51.77 49.34 6.26 o
4 2 7 0.81 0.10 0.64 <
4 3 1 402.49 374.54 13.69 o
4 3 2 621.45 606.13 11.87 o
4 3 3 173.72 185.11 5.29 o
4 3 4 248.90 272.71 8.05 o
4 3 5 14.46 15.86 1.84 o
4 3 6 33.09 37.13 4.38 o
4 3 7 3.64 3.08 1.77 <
4 4 1 22.07 20.76 4.13 o
4 4 2 617.15 559.36 18.82 o
4 4 3 20.96 21.44 2.20 o
4 4 4 3.28 2.81 1.15 o
4 4 5 11.21 9.56 2.04 o
4 4 6 0.29 -0.08 0.92 <
5 0 1 1677.77 1541.19 23.62 o
5 0 3 0.21 0.39 0.39 <
5 0 5 187.70 180.71 5.93 o
5 1 0 519.89 541.51 10.81 o
5 1 1 63.42 79.33 2.45 o
5 1 2 504.55 518.65 8.71 o
5 1 3 82.75 84.06 3.29 o
5 1 4 301.47 307.42 6.05 o
5 1 5 4.85 3.43 0.65 o
5 1 6 51.75 45.73 6.66 o
5 1 7 38.93 33.71 5.75 o
5 2 1 848.41 783.35 12.14 o
5 2 2 912.72 928.01 14.34 o
5 2 3 136.81 129.91 4.10 o
5 2 4 238.72 239.89 6.81 o
5 2 5 14.14 13.40 2.28 o
5 2 6 123.43 110.34 6.50 o
5 2 7 38.43 33.95 5.66 o
5 3 0 596.08 635.39 21.19 o
5 3 1 0.94 0.52 0.50 <
5 3 2 411.05 449.16 10.33 o
5 3 3 9.48 9.91 1.29 o
5 3 4 166.59 175.34 7.40 o
5 3 5 68.74 70.44 4.70 o
5 3 6 56.04 50.77 4.84 o
5 3 7 4.69 4.84 2.49 <
5 4 1 148.99 118.14 10.51 o
5 4 2 42.19 35.24 3.44 o
5 4 3 328.35 355.08 10.07 o
5 4 4 16.46 16.17 1.45 o
5 4 5 783.85 844.97 20.47 o
5 4 6 3.02 2.48 0.86 o
5 4 7 69.78 59.87 9.40 o
5 5 1 4.26 3.97 2.16 <
5 5 2 322.81 325.57 19.51 o
5 5 3 0.43 0.46 0.86 <
5 5 4 4.76 4.24 1.12 o
5 5 5 17.73 18.40 3.60 o
5 5 6 31.25 32.85 5.00 o
6 0 0 142.56 156.77 7.62 o
6 0 2 15.38 27.94 2.33 o
6 0 4 785.35 816.46 17.76 o
6 0 6 998.31 841.25 27.31 o
6 1 1 34.74 24.39 1.42 o
6 1 2 448.71 420.38 7.26 o
6 1 3 256.80 275.89 6.94 o
6 1 4 85.98 83.88 3.17 o
6 1 5 521.98 501.85 10.47 o
6 1 6 97.01 86.33 4.70 o
6 2 0 3172.67 2984.25 49.65 o
6 2 1 20.50 21.53 1.62 o
6 2 2 1029.09 951.94 15.24 o
6 2 3 13.16 12.49 1.24 o
6 2 4 19.93 22.39 2.48 o
6 2 5 25.76 24.06 2.71 o
6 2 6 167.12 167.48 8.91 o
6 3 1 854.70 844.58 16.64 o
6 3 2 289.14 261.71 8.05 o
6 3 3 24.74 25.01 2.26 o
6 3 4 76.02 89.03 4.49 o
6 3 5 62.99 70.39 4.91 o
6 3 6 45.90 52.70 5.17 o
6 4 0 17.07 28.56 5.43 o
6 4 1 0.02 0.25 0.62 <
6 4 2 67.86 68.72 6.19 o
6 4 3 1.79 1.89 0.68 o
6 4 4 631.60 681.75 14.83 o
6 4 5 8.13 5.83 1.39 o
6 4 6 497.16 499.52 15.27 o
6 5 1 277.48 276.09 18.39 o
6 5 2 26.91 26.89 3.83 o
6 5 3 52.91 51.67 4.70 o
6 5 4 2.22 0.25 0.56 <
6 5 5 0.99 0.35 0.53 <
6 5 6 37.39 45.96 4.59 o
6 6 2 516.28 506.18 26.66 o
6 6 3 126.35 138.57 12.66 o
6 6 4 101.91 102.89 6.78 o
6 6 5 15.58 16.51 4.70 o
6 6 6 13.24 21.48 5.21 o
7 0 1 8.91 5.55 1.05 o
7 0 3 180.33 184.99 7.87 o
7 0 5 362.21 395.27 12.47 o
7 1 0 395.57 349.56 9.51 o
7 1 1 11.93 12.96 1.11 o
7 1 2 241.33 234.69 5.39 o
7 1 3 10.70 11.54 1.39 o
7 1 4 108.85 99.83 4.26 o
7 1 5 9.20 9.08 1.06 o
7 1 6 105.11 88.76 7.78 o
7 2 1 197.02 188.26 5.45 o
7 2 2 292.53 295.37 7.54 o
7 2 3 90.68 88.36 3.94 o
7 2 4 132.68 138.12 5.17 o
7 2 5 19.31 17.20 1.97 o
7 2 6 17.36 18.96 3.92 o
7 3 0 117.54 109.43 7.75 o
7 3 1 6.06 4.91 1.06 o
7 3 2 247.42 250.01 8.22 o
7 3 3 31.09 32.37 3.23 o
7 3 4 351.28 358.49 10.45 o
7 3 5 15.04 17.28 2.15 o
7 3 6 93.40 84.61 9.23 o
7 4 1 229.41 202.77 9.49 o
7 4 2 3.01 4.25 1.15 o
7 4 3 27.86 29.68 3.31 o
7 4 4 4.73 3.23 0.78 o
7 4 5 1.98 0.66 0.99 <
7 4 6 0.30 -0.37 0.47 <
7 5 0 352.22 327.42 21.62 o
7 5 1 91.45 80.65 9.94 o
7 5 2 284.48 260.87 14.96 o
7 5 3 187.87 178.86 7.55 o
7 5 4 126.92 130.22 6.28 o
7 5 5 0.15 0.44 0.66 <
7 5 6 20.66 21.33 5.27 o
7 6 1 615.33 567.88 30.76 o
7 6 2 94.03 80.46 10.16 o
7 6 3 41.33 43.91 5.21 o
7 6 4 30.01 34.09 3.61 o
7 6 5 64.94 80.33 10.83 o
7 6 6 13.81 10.55 4.04 o
7 7 2 441.24 409.84 26.42 o
7 7 3 171.29 183.13 16.73 o
8 0 0 1015.86 1066.62 28.39 o
8 0 2 408.90 420.36 11.35 o
8 0 4 9.46 11.32 2.94 o
8 1 1 261.56 258.56 5.91 o
8 1 2 12.91 10.29 1.16 o
8 1 3 88.84 95.43 4.39 o
8 1 4 41.95 42.11 3.57 o
8 1 5 2.02 0.75 0.73 <
8 2 0 143.50 144.16 6.05 o
8 2 1 8.62 8.41 1.05 o
8 2 2 191.68 206.47 6.49 o
8 2 3 38.23 38.18 2.73 o
8 2 4 222.42 218.57 7.85 o
8 2 5 13.91 19.03 3.20 o
8 3 1 370.47 366.53 10.31 o
8 3 2 14.55 14.20 1.98 o
8 3 3 29.82 30.06 2.94 o
8 3 4 5.74 3.70 1.09 o
8 3 5 7.97 9.36 2.97 o
8 4 0 242.23 217.80 13.86 o
8 4 1 102.30 96.74 6.67 o
8 4 2 272.59 265.78 9.40 o
8 4 3 222.80 221.75 10.87 o
8 4 4 184.20 190.10 8.66 o
8 4 5 0.11 -0.07 1.26 <
8 5 1 0.97 1.02 1.63 <
8 5 2 247.58 267.66 19.72 o
8 5 3 49.17 57.32 5.55 o
8 5 4 132.25 137.11 8.45 o
8 5 5 142.56 145.73 14.67 o
8 5 6 10.31 10.25 3.17 o
8 6 1 0.50 0.39 0.60 <
8 6 4 75.46 64.07 5.81 o
9 0 1 0.93 0.73 0.64 <
9 0 3 250.03 269.15 11.11 o
9 0 5 203.60 214.76 13.98 o
9 1 0 1238.27 1253.14 23.76 o
9 1 1 137.48 146.62 4.64 o
9 1 2 435.16 431.16 9.15 o
9 1 3 460.95 493.51 12.88 o
9 1 4 0.77 0.46 0.68 <
9 1 5 68.64 72.48 5.50 o
9 2 1 281.90 295.46 7.48 o
9 2 2 63.67 64.46 4.09 o
9 2 3 41.44 44.27 3.57 o
9 2 4 3.66 3.30 1.03 o
9 2 5 2.11 0.98 1.08 <
9 3 0 229.10 209.74 12.26 o
9 3 1 183.43 197.49 7.72 o
9 3 2 199.76 197.32 8.95 o
9 3 3 534.63 564.44 19.12 o
9 3 4 119.66 129.54 8.65 o
9 4 1 211.06 220.80 12.27 o
9 4 2 287.85 301.22 13.98 o
9 4 3 4.46 3.40 1.67 o
9 4 4 121.43 146.18 11.10 o
9 4 5 0.77 -0.37 0.78 <
9 5 0 68.01 64.67 9.76 o
9 5 1 89.32 76.78 11.27 o
9 5 3 245.44 230.66 14.13 o
9 5 4 617.72 666.30 26.57 o
9 5 5 13.82 16.88 5.18 o
9 6 4 13.42 15.77 3.20 o
10 0 0 224.83 220.52 12.01 o
10 0 2 147.17 125.92 9.00 o
10 0 4 71.28 82.73 9.34 o
10 1 1 128.69 125.70 5.26 o
10 1 2 114.14 122.26 6.21 o
10 1 3 28.02 30.32 3.39 o
10 1 4 11.01 6.94 1.89 o
10 1 5 4.37 1.70 0.93 <
10 2 0 208.22 204.22 9.41 o
10 2 1 257.83 259.28 9.52 o
10 2 2 196.01 183.61 8.18 o
10 2 3 525.94 559.45 15.90 o
10 2 4 116.64 122.91 7.07 o
10 2 5 0.89 0.19 0.83 <
10 3 1 0.48 -0.31 0.84 <
10 3 2 6.24 3.87 1.25 o
10 3 3 104.45 102.80 7.66 o
10 3 4 15.57 11.84 2.50 o
10 4 2 108.33 113.54 10.49 o
10 4 3 180.77 185.36 13.12 o
10 4 4 138.85 139.03 11.61 o
10 5 3 21.92 24.82 4.47 o
10 5 4 0.36 0.21 0.75 <
11 0 1 265.88 295.67 20.61 o
11 0 3 6.36 1.41 1.05 <
11 1 1 14.97 16.49 4.31 o
11 1 2 30.83 26.72 3.29 o
11 1 3 29.84 23.22 3.25 o
11 1 4 573.64 640.24 22.16 o
11 1 5 0.07 0.34 0.55 <
11 2 1 6.44 5.84 2.52 o
11 2 2 12.15 14.55 2.92 o
11 2 3 26.77 28.33 3.44 o
11 2 4 6.92 9.18 2.06 o
11 2 5 69.70 74.19 9.72 o
11 3 2 193.71 195.47 15.08 o
11 3 3 26.35 32.82 5.51 o
11 3 4 0.48 -0.07 0.29 <
11 4 2 7.06 5.54 2.36 o
11 4 3 104.01 111.06 10.75 o
11 4 4 5.93 0.56 1.24 <
11 5 3 0.06 0.34 0.87 <
12 0 4 0.26 0.53 1.64 <
12 1 3 20.13 25.35 5.51 o
12 1 4 19.91 23.64 5.41 o
12 2 3 234.31 229.46 17.21 o
12 2 4 262.36 273.01 16.76 o
