#------------------------------------------------------------------------------
#$Date: 2021-04-13 11:37:02 +0300 (Tue, 13 Apr 2021) $
#$Revision: 264080 $
#$URL: file:///home/coder/svn-repositories/cod/cif/1/56/16/1561681.cif $
#------------------------------------------------------------------------------
#
# This file is available in the Crystallography Open Database (COD),
# http://www.crystallography.net/
#
# All data on this site have been placed in the public domain by the
# contributors.
#
data_1561681
loop_
_publ_author_name
'Fukina, D.G.'
'Suleimanov, E.V.'
'Nezhdanov, A.V.'
'Istomin, L.A.'
_publ_section_title
;
 The new tellurium compounds: Na1.5Te2Mo0.5O6.25 and K6(Te94+Te6+)Mo6O42
;
_journal_name_full               'Journal of Solid State Chemistry'
_journal_page_first              337
_journal_page_last               345
_journal_paper_doi               10.1016/j.jssc.2019.06.024
_journal_volume                  277
_journal_year                    2019
_chemical_formula_sum            'Mo0.5 Na1.5 O6.25 Te2'
_chemical_formula_weight         437.65
_space_group_crystal_system      cubic
_space_group_IT_number           225
_space_group_name_Hall           '-F 4 2 3'
_space_group_name_H-M_alt        'F m -3 m'
_atom_sites_solution_hydrogens   .
_atom_sites_solution_primary     dual
_atom_sites_solution_secondary   difmap
_cell_angle_alpha                90
_cell_angle_beta                 90
_cell_angle_gamma                90
_cell_formula_units_Z            1
_cell_length_a                   5.4087(3)
_cell_length_b                   5.4087(3)
_cell_length_c                   5.4087(3)
_cell_measurement_reflns_used    9999
_cell_measurement_temperature    100(2)
_cell_measurement_theta_max      6.534
_cell_measurement_theta_min      6.534
_cell_volume                     158.226(15)
_computing_cell_refinement       SAINT
_computing_data_collection       APEX3
_computing_data_reduction        SAINT
_computing_structure_refinement  'SHELXL-2014/7 (Sheldrick, 2014)'
_computing_structure_solution    'SHELXT 2014/5'
_diffrn_ambient_temperature      100(2)
_diffrn_measured_fraction_theta_full 1.000
_diffrn_measured_fraction_theta_max 1.000
_diffrn_measurement_device_type  'Bruker D8 Quest (CMOS)'
_diffrn_measurement_method       '\w scans'
_diffrn_radiation_type           MoK\a
_diffrn_radiation_wavelength     0.71073
_diffrn_reflns_av_R_equivalents  0.0477
_diffrn_reflns_av_unetI/netI     0.0145
_diffrn_reflns_Laue_measured_fraction_full 1.000
_diffrn_reflns_Laue_measured_fraction_max 1.000
_diffrn_reflns_limit_h_max       9
_diffrn_reflns_limit_h_min       -9
_diffrn_reflns_limit_k_max       9
_diffrn_reflns_limit_k_min       -9
_diffrn_reflns_limit_l_max       9
_diffrn_reflns_limit_l_min       -9
_diffrn_reflns_number            1245
_diffrn_reflns_point_group_measured_fraction_full 1.000
_diffrn_reflns_point_group_measured_fraction_max 1.000
_diffrn_reflns_theta_full        25.242
_diffrn_reflns_theta_max         38.812
_diffrn_reflns_theta_min         6.534
_diffrn_source                   'microfocus tube'
_exptl_absorpt_coefficient_mu    10.237
_exptl_absorpt_correction_T_max  0.6508
_exptl_absorpt_correction_T_min  0.2126
_exptl_absorpt_correction_type   multi-scan
_exptl_absorpt_process_details
;
 SADABS 2016/2: Krause, L., Herbst-Irmer, R., Sheldrick G.M. & Stalke D.,
 J. Appl. Cryst. 48 (2015) 3-10
;
_exptl_crystal_colour            light-yellow
_exptl_crystal_density_diffrn    4.593
_exptl_crystal_description       plate
_exptl_crystal_F_000             192
_exptl_crystal_size_max          0.090
_exptl_crystal_size_mid          0.050
_exptl_crystal_size_min          0.020
_refine_diff_density_max         1.789
_refine_diff_density_min         -2.168
_refine_diff_density_rms         0.318
_refine_ls_extinction_coef       .
_refine_ls_extinction_method     none
_refine_ls_goodness_of_fit_ref   1.202
_refine_ls_hydrogen_treatment    undef
_refine_ls_matrix_type           full
_refine_ls_number_parameters     5
_refine_ls_number_reflns         40
_refine_ls_number_restraints     18
_refine_ls_restrained_S_all      0.977
_refine_ls_R_factor_all          0.0600
_refine_ls_R_factor_gt           0.0600
_refine_ls_shift/su_max          0.001
_refine_ls_shift/su_mean         0.000
_refine_ls_structure_factor_coef Fsqd
_refine_ls_weighting_details
'w=1/[\s^2^(Fo^2^)+(0.1180P)^2^+1.5028P] where P=(Fo^2^+2Fc^2^)/3'
_refine_ls_weighting_scheme      calc
_refine_ls_wR_factor_gt          0.1791
_refine_ls_wR_factor_ref         0.1791
_reflns_Friedel_coverage         0.000
_reflns_Friedel_fraction_full    .
_reflns_Friedel_fraction_max     .
_reflns_number_gt                40
_reflns_number_total             40
_reflns_threshold_expression     'I > 2\s(I)'
_cod_data_source_file            JSSC-2019-277-337.cif
_cod_data_source_block           natemo1
_cod_original_cell_volume        158.23(3)
_cod_original_formula_sum        'Mo0.50 Na1.50 O6.25 Te2'
_cod_database_code               1561681
_shelx_space_group_comment
;
The symmetry employed for this shelxl refinement is uniquely defined
by the following loop, which should always be used as a source of
symmetry information in preference to the above space-group names.
They are only intended as comments.
;
_shelx_estimated_absorpt_t_min   0.459
_shelx_estimated_absorpt_t_max   0.821
_shelx_res_file
;

    natemo1.res created by SHELXL-2014/7


TITL natemo1_a.res in Fm-3m
REM Old TITL natemo1 in Fm-3m

REM SHELXT solution in Fm-3m
REM R1 0.070,  Rweak 0.535,  Alpha 0.013,  Orientation as input
REM Formula found by SHELXT:  Te

CELL  0.71073   5.4087   5.4087   5.4087   90.000   90.000   90.000
ZERR    1.000   0.0003   0.0003   0.0003    0.000    0.000    0.000
LATT  4
SYMM -X, -Y, Z
SYMM -X, Y, -Z
SYMM X, -Y, -Z
SYMM Z, X, Y
SYMM Z, -X, -Y
SYMM -Z, -X, Y
SYMM -Z, X, -Y
SYMM Y, Z, X
SYMM -Y, Z, -X
SYMM Y, -Z, -X
SYMM -Y, -Z, X
SYMM Y, X, -Z
SYMM -Y, -X, -Z
SYMM Y, -X, Z
SYMM -Y, X, Z
SYMM X, Z, -Y
SYMM -X, Z, Y
SYMM -X, -Z, -Y
SYMM X, -Z, Y
SYMM Z, Y, -X
SYMM Z, -Y, X
SYMM -Z, Y, X
SYMM -Z, -Y, -X
SFAC O NA MO TE
UNIT 6.25 1.5 0.5 2

TEMP -173.000
SIZE 0.09 0.05 0.02



ISOR 0.0001 mo1
ISOR 0.0001 na1
ISOR 0.0001  o1

ACTA

L.S. 500
BOND $H
LIST 3
FMAP 2
PLAN 20

WGHT    0.118000    1.502800
FVAR       0.89439
TE1   4    0.000000    0.000000    0.000000    10.01040    0.05063    0.05063 =
         0.05063    0.00000    0.00000    0.00000
MO1   3    0.000000    0.000000    0.000000    10.00260    0.03573    0.03573 =
         0.03573    0.00000    0.00000    0.00000
NA1   2    0.000000    0.000000    0.000000    10.00780    0.04462    0.04462 =
         0.04462    0.00000    0.00000    0.00000
O1    1   -0.250000   -0.250000   -0.250000    10.03255    0.12221    0.12221 =
         0.12221    0.00000    0.00000    0.00000
HKLF 4

REM  natemo1_a.res in Fm-3m
REM R1 =  0.0600 for      40 Fo > 4sig(Fo)  and  0.0600 for all      40 data
REM      5 parameters refined using     18 restraints

END

WGHT      0.1137      1.5842

REM Highest difference peak  1.789,  deepest hole -2.168,  1-sigma level  0.318
Q1    1   0.0000  0.0000  0.1196  10.12500  0.05    1.79
Q2    1  -0.2588 -0.1831  0.0000  10.50000  0.05    0.28
Q3    1  -0.3353 -0.1647 -0.1171  10.50000  0.05    0.25
Q4    1  -0.0836 -0.2500 -0.2500  10.25000  0.05    0.24
Q5    1  -0.5000  0.0000  0.0000  10.02083  0.05    0.23
Q6    1  -0.3340  0.0000  0.0000  10.12500  0.05    0.13
Q7    1  -0.3994 -0.5000 -0.3552  10.50000  0.05    0.11
;
_shelx_res_checksum              15037
_shelx_hkl_file
;
  -1  -1  -1 9528.65  398.36
   1  -1   1 9563.04  398.86
   1  -1   1 9207.18  397.06
   1   1  -1 9410.56  396.86
  -1   1   1 9802.82  397.96
  -1   1   1 9888.51  400.86
  -1   1  -1 9431.46  395.06
   1  -1  -1 9999.00  401.16
   1  -1  -1 9697.43  398.86
  -1  -1   1 8958.90  398.06
  -1  -1   1 9922.61  398.76
   1   1   1 9713.93  398.26
  -2   0   0 4181.18  238.88
   0  -2   0 5358.46  217.58
   0  -2   0 5538.25  217.58
   0   2   0 5372.96  217.88
   0   2   0 5419.66  216.78
   2   0   0 4296.07  227.98
   2   0   0 4847.51  222.18
  -2  -2   0 6837.52  288.87
  -2  -2   0 6947.30  292.77
  -2   0  -2 5909.81  289.97
  -2   0  -2 6200.88  285.57
  -2   0   2 5630.44  292.97
  -2   2   0 6980.40  295.97
  -2   2   0 6670.53  285.77
   0  -2  -2 6350.27  282.57
   0  -2   2 6194.88  279.57
   0  -2   2 6535.85  279.97
   0   2  -2 6182.48  276.77
   0   2  -2 6504.05  279.67
   0   2   2 6262.47  281.77
   2  -2   0 6826.32  293.37
   2  -2   0 7063.19  294.77
   2   0  -2 7034.10  293.67
   2   0  -2 7137.19  285.57
   2   0   2 7166.58  291.07
   2   0   2 6550.34  283.07
   2   2   0 6836.02  293.87
   2   2   0 7027.60  290.97
  -2  -2  -2 2991.00  144.09
   2   2  -2 3118.69  140.39
   2  -2   2 2851.31  144.29
  -2   2   2 2991.30  142.09
  -2   2   2 2913.31  122.09
  -2   2   2 3026.50  147.89
  -2   2  -2 3056.99  136.59
   2  -2  -2 2780.82  120.49
   2  -2  -2 2860.91  146.89
   2  -2  -2 3148.98  142.99
  -2   2  -2 3079.29  144.49
  -2  -2   2 3140.09  146.89
  -2  -2   2 2922.21  143.29
  -2   2  -2 2906.61  120.69
  -2   2  -2 2884.01  121.39
   2   2   2 3040.40  143.49
  -3  -1  -1 3768.42  186.28
  -3  -1  -1 3733.53  186.88
   1   3  -1 3962.10  176.28
  -1   3   1 3944.41  180.78
   1  -1   3 3454.45  161.68
   1  -1   3 3864.91  159.68
  -3   1   1 4021.70  203.78
  -3   1   1 3718.53  190.18
  -1  -3  -1 3848.81  178.38
  -1  -3  -1 3998.30  174.88
   3   1  -1 4020.60  197.38
   3   1  -1 3453.55  179.78
  -1  -1  -3 3805.22  163.38
  -1  -1  -3 4043.20  162.28
   1   1  -3 3982.80  160.38
   1   1  -3 3422.26  162.78
  -1   3   1 3864.21  174.98
   1  -3   1 3882.01  176.48
   3  -1   1 3346.07  181.68
  -1   1   3 3685.23  154.88
  -1   1   3 4116.89  167.18
  -1   1   3 4191.68  166.38
   1   1  -3 3663.43  154.28
   1   3  -1 3964.40  174.88
  -1   3   1 3782.82  154.48
   1  -3   1 3875.51  177.38
  -1   3  -1 3689.03  154.18
   1  -3  -1 3835.12  177.58
   1  -3  -1 3893.11  176.98
  -1   1  -3 3828.42  159.38
  -1   1  -3 3267.87  153.68
   1  -1  -3 3541.75  168.18
   1  -1  -3 3878.11  162.58
  -3   1  -1 4033.90  200.88
  -3   1  -1 3296.17  181.08
  -1   3  -1 3805.72  177.48
  -1  -1   3 3689.83  167.68
  -1  -1   3 3979.90  162.78
   1   1   3 3833.32  163.88
   1   1   3 4045.40  165.58
  -1   3  -1 3755.22  170.88
  -3  -1   1 3625.14  197.78
   1   3   1 3740.83  153.98
   1   3   1 3795.52  177.58
   1   3   1 3854.11  176.28
   3  -1  -1 3446.66  185.28
   3  -1  -1 4066.99  183.88
  -1   1  -3 3318.57  159.58
  -3  -1   1 3564.74  186.68
  -1  -3   1 3875.81  177.28
  -1  -3   1 3887.51  175.38
   3   1   1 3966.80  199.28
   3   1   1 3381.96  178.28
  -3  -3  -1 1437.26   59.19
  -3  -3  -1 1542.35   88.99
  -3  -3  -1 1465.75   95.49
   1   3  -3 1481.35   61.99
   1   3  -3 1402.46   75.79
   3  -1   3 1464.65   59.59
  -3  -1  -3 1492.65   59.49
  -3  -1  -3 1231.78   82.39
  -3  -1  -3 1476.15   85.49
   3   1  -3 1429.06   60.89
   3   1  -3 1606.54   84.19
   3   1  -3 1575.24   85.79
   3  -3   1 1427.76   59.29
   3  -3   1 1313.67   90.89
   3  -3   1 1543.25   97.69
  -3   1   3 1594.74   62.49
  -3   1   3 1512.35   92.29
   1  -3   3 1464.15   81.09
   3  -1   3 1519.45   85.99
   3  -1   3 1502.85   78.69
   3   1  -3 1424.16   59.19
  -3   3   1 1504.85   61.89
  -3   3   1 1518.25  100.59
  -3   3   1 1580.44   89.29
  -1  -3  -3 1417.56   59.09
  -1  -3  -3 1481.15   84.49
  -1  -3  -3 1517.65   79.09
   3   3  -1 1430.86   59.09
   3   3  -1 1418.16   61.29
   3   3  -1 1507.95   92.29
   1  -3   3 1480.45   80.59
   1   3  -3 1530.85   81.59
  -1   3   3 1486.65   82.79
  -1   3   3 1514.35   86.29
  -1   3   3 1475.65   62.09
  -1   3  -3 1402.16   72.99
  -1   3  -3 1472.65   79.89
   1  -3  -3 1411.36   59.59
   1  -3  -3 1432.26   85.19
   1  -3  -3 1271.37   78.09
  -3   3  -1 1413.86   59.49
  -1   3  -3 1477.15   59.59
  -3  -3   1 1423.66   59.29
  -3  -3   1 1502.75   92.09
  -1   3  -3 1522.35   61.39
   1   3   3 1488.15   61.19
   1   3   3 1343.77   82.69
   1   3   3 1466.45   83.69
   3  -3  -1 1468.65   59.39
   3  -3  -1 1514.75   96.89
   3  -3  -1 1572.34   98.79
  -3   1  -3 1461.65   59.89
  -3   1  -3 1421.46   85.59
  -3   1  -3 1322.17   82.59
   3  -1  -3 1418.96   59.39
   3  -1  -3 1242.68   87.99
   3  -1  -3 1571.14   81.89
  -3  -3   1 1488.95   93.99
  -3   3  -1 1397.36   61.09
  -3   3  -1 1471.85   98.19
  -3   3  -1 1433.56   83.09
  -3  -1   3 1471.85   59.19
  -3  -1   3 1307.77   95.79
  -3  -1   3 1501.75   88.09
   3   1   3 1482.05   59.79
   3   1   3 1602.34   87.99
   3   1   3 1367.06   83.39
  -1  -3   3 1437.36   59.49
  -1  -3   3 1428.46   80.89
  -1  -3   3 1518.45   81.69
   3   3   1 1394.76   59.39
   3   3   1 1565.14   60.39
   3   3   1 1344.47   98.39
  -3  -3  -3  674.33   27.20
  -3  -3  -3  626.24   59.29
   3   3  -3  646.54   51.69
   3   3  -3  682.43   60.59
   3   3  -3  681.03   26.90
   3   3  -3  604.24   30.20
   3  -3   3  636.94   27.30
   3  -3   3  551.24   57.09
   3  -3   3  643.04   54.09
  -3   3   3  648.24   63.49
  -3   3   3  773.02   60.29
   3  -3  -3  546.75   62.69
   3  -3  -3  715.13   57.29
  -3   3  -3  714.63   29.00
  -3   3  -3  669.93   58.29
  -3   3  -3  679.73   50.79
  -3  -3   3  672.73   59.89
  -3   3  -3  716.23   28.10
  -3  -3   3  680.33   27.30
  -3  -3   3  639.24   63.09
   3   3   3  667.83   27.80
   3   3   3  613.84   60.59
   3   3   3  630.44   58.39
  -4   0   0 2311.07   98.29
  -4   0   0 2636.04   99.09
  -4   0   0 2476.65  174.18
  -4   0   0 2100.59  146.49
   0  -4   0 2456.25   98.39
   0  -4   0 2403.16   98.29
   0  -4   0 2255.47  125.79
   0  -4   0 2547.05  128.69
   0   0  -4 2406.26   98.59
   0   0  -4 2356.26   98.39
   0   0  -4 2581.34   99.99
   0   4   0 2374.26  100.69
   0   4   0 2296.47  123.69
   0   4   0 2533.55  129.19
   4   0   0 2497.55   98.49
   4   0   0 2661.63  144.99
   2   0   4 1344.67   54.49
   2   0   4 1345.37   65.09
   2   0   4 1372.76   63.09
   4  -2   0 1340.27   54.19
   4  -2   0 1132.39   89.69
   4  -2   0 1447.46   97.29
   4   2   0 1312.07   54.09
   4   2   0 1336.27   54.89
   4   2   0 1246.38   89.69
   0   4   2 1320.47   56.89
   0   4   2 1321.37   82.19
   0   4   2 1344.37   84.29
   2   0  -4 1317.57   54.19
   2   0  -4 1354.46   55.99
   2   0  -4 1458.05   68.29
   2   0  -4 1398.16   65.39
   0  -4   2 1338.27   54.29
   0  -4   2 1345.07   82.49
   0  -4   2 1367.96   81.69
   0   4  -2 1341.37   56.39
   0   4  -2 1282.87   75.29
   0   4  -2 1319.27   80.59
   0  -4  -2 1353.96   54.39
   0  -4  -2 1332.37   53.79
   0  -4  -2 1337.17   83.99
   0  -4  -2 1322.97   79.69
  -2   0   4 1341.27   53.89
  -2   0   4 1514.05   75.69
  -2   0   4 1311.37   72.19
  -2   0  -4 1373.36   54.49
  -2   0  -4 1325.77   66.89
  -2   0  -4 1381.26   65.49
  -4   2   0 1236.38   90.09
  -4   2   0 1312.97  115.89
  -4   2   0 1114.89   54.49
  -4   2   0 1336.77   55.79
  -4  -2   0 1311.77   95.39
  -4  -2   0 1190.88   95.49
  -4  -2   0 1319.77   53.99
   4   0   2 1464.25   83.59
   4   0   2 1330.37   54.99
   4   0   2 1458.05   91.19
   4   0  -2 1603.74   99.29
   4   0  -2 1571.74   88.29
   4   0  -2 1284.27   54.79
   2   4   0 1328.37   85.39
   2   4   0 1324.97   54.59
   2   4   0 1376.06   56.69
   2   4   0 1312.77   87.29
   2  -4   0 1335.97   54.59
   2  -4   0 1324.27   86.39
   2  -4   0 1347.77   91.29
   0   2   4 1283.17   56.99
   0   2   4 1336.37   69.59
   0   2   4 1399.46   72.29
   2  -4   0 1310.27   54.79
   0  -2   4 1378.86   63.79
   0   2  -4 1385.56   54.79
   0   2  -4 1360.46   54.89
   0   2  -4 1200.88   57.09
   0   2  -4 1338.07   60.19
   0   2  -4 1441.86   64.49
  -2   4   0 1324.87   91.39
  -2   4   0 1265.77   79.09
   0  -2  -4 1341.67   55.09
   0  -2  -4 1377.56   54.69
   0  -2  -4 1331.07   71.69
   0  -2  -4 1359.26   66.79
   0  -2   4 1390.66   64.69
  -4   0  -2 1289.87   54.99
  -4   0  -2 1165.68   93.99
  -4   0  -2 1420.16   94.19
  -4   0   2 1290.97   54.49
  -4   0   2 1292.77  115.49
  -4   0   2 1196.18   98.39
  -2  -4   0 1337.07   54.69
  -2  -4   0 1375.36   89.49
  -2  -4   0 1347.57   84.19
  -2   4   0 1316.37   57.49
  -4  -2  -2  941.21   37.60
  -4  -2  -2  906.31   71.99
  -4  -2  -2  797.52   73.89
   4   2  -2  789.82   69.49
   2  -4   2  893.71   68.59
   2   4  -2  974.10   40.40
   2   4  -2  876.81   63.99
   2   4  -2  988.40   70.59
  -2   4   2  943.21   66.59
  -4   2   2  949.60   40.10
  -4   2   2  967.00   89.09
  -4   2   2  926.61   78.39
  -2  -4  -2  957.80   38.10
  -2  -4  -2  933.11   37.50
  -2  -4  -2  919.91   72.39
  -2  -4  -2  941.51   64.39
   4  -2   2 1024.50   71.59
   4   2  -2  906.01   37.40
   4   2  -2  934.01   39.40
  -2  -2  -4  952.10   38.30
  -2  -2  -4  940.31   37.70
  -2  -2  -4  955.80   59.09
  -2  -2  -4  983.20   56.29
   2   2  -4  915.41   40.30
   2   2  -4  928.91   52.39
   2   2  -4  895.91   58.09
   2  -2   4  925.61   37.70
   4  -2   2  943.01   37.80
   4  -2   2  838.62   73.49
   2   2  -4  946.21   37.50
  -2   2   4  875.41   41.80
  -2   2   4  947.21   63.29
  -2   2   4  932.51   59.29
   2  -2   4  831.12   57.59
   2  -2   4  902.31   53.59
   2  -4   2  927.61   37.40
  -2   4   2  928.71   41.20
  -2   4   2  939.31   75.49
   4   2  -2 1095.09   81.29
   2  -4   2  858.41   68.99
   2  -4  -2  950.30   37.10
   2  -4  -2  924.71   72.69
  -4   2  -2  788.82   67.39
  -2   4  -2  906.61   58.99
  -4  -2   2  839.42   87.39
   2  -4  -2  941.31   37.90
   2  -2  -4  922.41   37.90
   2  -2  -4  906.31   55.29
  -2   2  -4  961.50   38.10
  -2   4  -2  916.01   39.90
  -2   4  -2  892.11   68.99
  -2   2  -4  782.42   51.89
  -2  -2   4  911.51   37.60
  -2  -2   4  780.72   60.99
  -2  -2   4  928.71   57.49
   2   2   4  886.51   57.99
   2   2   4  896.91   60.39
  -4  -2   2  858.41   75.39
  -4   2  -2  968.30   38.40
  -4   2  -2  933.31   80.09
   2   4   2  948.71   39.50
   2   4   2  928.71   73.19
   2   4   2  991.90   71.19
   4  -2  -2  937.91   37.80
   4  -2  -2  840.82   77.39
   4  -2  -2  970.90   72.09
  -2   2  -4  914.81   39.60
  -2   2  -4  892.91   52.89
  -2  -4   2  958.40   37.70
  -2  -4   2  810.52   66.89
  -2  -4   2  899.31   67.49
   2  -4  -2  972.60   70.09
  -4  -2   2  919.41   37.50
   4   2   2  919.61   37.90
   4   2   2  960.20   82.09
   4   2   2  875.41   72.99
  -4  -4   0  440.86   17.80
  -4  -4   0  429.46   57.19
  -4  -4   0  390.76   67.89
  -4   0  -4  434.76   18.50
  -4   0  -4  349.67   49.20
  -4   0  -4  414.66   50.29
  -4   0   4  420.96   17.40
  -4   0   4  436.26   68.79
  -4   0   4  374.66   52.19
  -4   4   0  423.96   17.80
  -4   4   0  356.46   22.40
  -4   4   0  384.26   74.79
  -4   4   0  412.16   52.49
   0  -4  -4  434.26   18.40
   0  -4  -4  460.45   17.60
   0  -4  -4  370.16   48.80
   0  -4  -4  406.76   41.80
   0  -4   4  439.36   18.30
   0  -4   4  458.75   44.10
   0  -4   4  543.05   59.29
   0   4  -4  427.36   21.10
   0   4  -4  404.46   35.90
   0   4  -4  440.16   42.90
   0   4   4  434.26   21.80
   0   4   4  412.66   48.00
   0   4   4  389.16   50.09
   4  -4   0  431.56   18.60
   4  -4   0  349.27   61.89
   4  -4   0  478.85   75.09
   4   0  -4  446.76   48.40
   4   0  -4  501.15   44.60
   4   0   4  438.46   18.30
   4   0   4  430.86   44.40
   4   4   0  441.76   17.70
   4   4   0  400.76   19.80
   4   4   0  398.86   79.29
   4   4   0  413.86   57.69
  -4  -4  -2  294.47   12.60
  -4  -4  -2  297.27   63.69
   4   4  -2  295.37   12.20
   4   4  -2  249.38   15.40
  -4  -2  -4  292.97   12.90
   4  -2   4  298.27   12.90
   4   2  -4  296.07   12.50
  -4   2   4  312.57   17.80
   4  -4   2  290.47   12.80
   4  -4   2  361.46   65.19
   2   4  -4  250.77   16.00
  -4   4   2  294.87   17.00
  -4   4   2  324.47   74.89
  -2  -4  -4  303.27   13.50
  -2  -4  -4  315.37   13.00
   4   2  -4  293.37   14.80
   4   4  -2  246.58   52.49
  -2   4   4  278.87   17.70
  -2  -4   4  293.17   12.90
  -2   4  -4  298.77   13.20
  -4   4  -2  308.27   47.90
   2   4   4  307.37   15.10
   4  -4  -2  310.27   13.10
   4  -4  -2  254.47   64.49
  -4   4  -2  282.67   13.30
  -4   4  -2  294.37   15.40
   4  -2  -4  290.77   12.90
  -4  -2   4  301.47   12.50
  -4   2  -4  302.47   13.40
   2  -4  -4  297.77   13.10
   4   2   4  295.27   13.30
  -4  -4   2  294.17   12.60
  -4  -4   2  265.47   64.29
  -2   4  -4  306.07   15.40
   4   4   2  295.57   13.00
   4   4   2  294.27   60.49
  -4  -4  -4   78.09    4.30
   4   4  -4   82.29    7.80
   4  -4   4   73.29    4.60
  -4   4   4   85.59   11.40
  -4   4  -4   87.69    6.90
   4  -4  -4   83.29    4.90
  -4   4  -4   85.89    5.70
  -4  -4   4   85.09    4.40
   4   4   4   80.59    5.20
  -5  -1  -1  770.52   30.80
  -5  -1  -1  690.93   85.09
   5  -1   1  829.22   73.79
   5  -1   1  744.93   64.59
   5   1  -1  756.42   30.70
   5   1  -1  729.33   84.09
   5   1  -1  797.02   68.79
   1   5  -1  676.93   63.19
  -5   1   1  766.62   31.00
  -5   1   1  950.90  131.29
  -5   1   1  642.34   86.69
  -1  -5  -1  742.43   30.90
  -1  -5  -1  755.42   30.50
  -1  -5  -1  741.83   69.29
  -1  -5  -1  722.73   61.79
   1   5  -1  729.63   34.60
   1   5  -1  702.63   60.79
   1  -5   1  770.52   30.50
  -1  -1  -5  766.12   31.20
  -1  -1  -5  752.12   30.80
   1   1  -5  830.72   33.00
  -1   5   1  776.02   62.09
   1  -5   1  759.22   30.70
  -1   1   5  715.43   35.20
  -1   1   5  726.53   39.70
  -1   1   5  744.43   38.10
   1  -5   1  696.73   65.09
   5  -1   1  622.84   31.80
  -1   5   1  779.42   71.09
   1   1  -5  772.32   30.80
   1  -5   1  841.62   66.19
  -1   1  -5  783.92   31.00
   1  -5  -1  772.52   67.29
   1  -5  -1  746.33   67.09
  -1   5  -1  681.33   56.89
  -1   1  -5  860.41   32.50
   1  -5  -1  759.72   30.90
  -1   5  -1  725.93   68.49
   1  -1  -5  751.52   31.00
   1  -1  -5  745.93   30.40
   1  -1  -5  779.52   36.20
   1  -1  -5  730.03   34.90
  -1  -5   1  685.43   64.19
  -1  -1   5  741.83   30.70
   1   1   5  803.92   32.70
  -1  -5   1  761.32   31.10
  -1  -5   1  704.33   64.49
  -5   1  -1  700.33   83.29
   1   5   1  745.83   33.50
   1   5   1  639.44   63.29
   1   5   1  735.33   64.19
   5  -1  -1  674.73   31.10
   5  -1  -1  743.43   75.99
   5  -1  -1  792.02   70.59
   1  -5  -1  758.72   30.40
  -5  -1   1  712.93   30.50
  -5  -1   1  619.54   95.99
  -5  -1   1  621.74   87.69
  -5   1  -1  716.33   31.10
   5   1   1  697.33   75.89
   5   1   1  780.02   67.09
   3  -1   5  352.06   14.90
   3  -1   5  335.17   29.70
   3   1  -5  344.57   14.50
  -5  -3  -1  336.17   14.40
  -3   1   5  349.67   21.30
  -1  -5  -3  337.87   15.00
  -1  -5  -3  354.26   14.10
   5  -3   1  350.36   14.70
   5  -3   1  314.37   82.09
   5  -3   1  375.96   65.59
   5   3  -1  359.46   14.40
   5   3  -1  334.57   15.90
   5   3  -1  311.27   88.29
   5   3  -1  286.37   63.29
   1  -5   3  340.87   14.90
   1   5  -3  336.87   17.80
  -3  -1  -5  321.07   40.30
  -5  -3  -1  245.88   60.39
  -5   3   1  372.26   90.99
  -1   5   3  312.77   19.00
  -5   3   1  279.67   69.49
  -5   3   1  319.97   14.30
  -5  -3  -1  337.87   69.09
  -5   3   1  347.97   18.10
  -1  -5  -3  286.27   56.89
  -3  -1  -5  347.07   15.00
   5  -3  -1  315.17   74.19
   3  -1  -5  319.97   33.30
   3  -1  -5  346.47   14.70
   1  -5  -3  363.86   14.10
   1  -5  -3  304.77   54.69
   5   3   1  339.17   14.60
   5   3   1  225.98   68.09
   5  -3  -1  330.57   73.49
   5  -3  -1  347.97   14.70
  -1  -5   3  341.97   14.70
  -1   5  -3  331.27   17.40
   3   1   5  310.17   32.90
   1  -5  -3  343.37   14.90
   5   3   1  322.97   64.49
  -3  -1   5  347.37   14.20
  -3   1  -5  352.96   15.10
  -3   1  -5  346.47   32.70
  -5  -3   1  334.17   76.99
  -5   3  -1  325.87   16.80
  -5   3  -1  337.77   61.89
  -5  -3   1  348.97   14.40
  -5  -3   1  428.26   79.09
   1   5   3  321.97   56.49
   1   5   3  345.67   18.20
   3   1   5  345.97   15.10
   5   1  -3  352.96   16.00
   5   1  -3  368.66   59.39
  -1  -3  -5  344.87   14.30
   5   1  -3  295.67   14.50
   5  -1   3  352.66   14.70
  -3  -5  -1  341.17   14.20
  -1   3   5  306.57   36.20
  -5   1   3  332.17   87.09
   3   5  -1  385.56   64.29
  -3  -5  -1  279.67   61.19
   3  -5   1  346.07   14.40
  -3   5   1  337.77   18.70
  -3   5   1  327.97   68.79
  -3   5   1  316.67   50.79
  -1  -3  -5  382.26   15.00
   3  -5   1  338.77   14.30
   1  -3   5  274.47   34.80
   3  -5   1  289.67   75.19
   3  -5   1  269.87   65.19
   3   5  -1  359.16   17.40
   3   5  -1  331.97   58.79
  -5  -1  -3  336.87   14.60
   1  -3   5  318.47   31.70
   1   3  -5  324.37   17.70
  -1   3   5  303.47   18.90
  -5   1   3  349.07   17.20
  -1  -3  -5  348.97   33.30
   1   3  -5  306.57   34.40
   1  -3   5  319.27   14.10
   5  -1  -3  344.67   61.39
  -1   3  -5  307.77   25.40
  -1   3  -5  347.87   28.80
   3   5   1  354.96   16.50
   1   3   5  338.77   17.20
   3   5   1  278.67   66.69
  -1  -3   5  340.67   14.60
  -1  -3   5  336.07   32.50
  -1   3  -5  346.27   14.70
  -1   3  -5  304.87   17.30
  -5  -1   3  333.17   14.00
  -5  -1   3  384.86  108.29
  -5   1  -3  329.07   14.90
   3   5   1  333.57   58.89
   1  -3  -5  344.27   14.80
   1  -3  -5  332.57   33.30
   3   5   1  352.46   14.40
  -3  -5   1  350.36   14.30
  -3  -5   1  273.97   59.99
  -3  -5   1  331.57   58.09
  -3   5  -1  324.77   17.50
  -3   5  -1  319.47   43.40
   1   3   5  296.07   38.60
   3  -5  -1  355.46   13.90
   3  -5  -1  245.08   59.09
   3  -5  -1  377.86   69.89
   5   1   3  348.17   14.70
   5  -1  -3  339.57   14.50
  -5  -3  -3  155.78    7.10
   5   3  -3  150.88    9.20
   3  -3   5  137.29    7.10
  -5   3   3  155.68   11.50
  -3  -5  -3  153.68    6.80
   5  -3   3  153.98    7.40
  -3  -3  -5  161.98    7.20
   3   5  -3  126.09   10.40
   3   3  -5  153.58   10.00
   5   3  -3  150.18    6.70
  -3   3   5  149.29   14.80
  -3   5   3  143.49   12.50
  -3   5  -3  143.19    9.80
   3  -5  -3  153.88    7.50
   3  -3  -5  150.48    7.50
  -3   3  -5  132.99   10.00
  -3   3  -5  160.48    7.80
   3   3   5  145.69    7.80
  -3  -3   5  149.79    7.10
   3   5   3  145.99    7.50
   3   5   3  156.68    9.00
   5  -3  -3  157.78    7.40
  -3  -5   3  153.28    7.10
  -5   3  -3  163.78    8.30
  -5  -3   3  152.88    6.90
   5   3   3  151.58    7.50
  -5  -5  -1   86.09    4.50
   5  -1   5   89.19    5.20
  -5  -1  -5   89.29    5.30
   5   1  -5   82.29    6.80
  -5   1   5   81.39   11.50
   5   5  -1   71.39    7.40
  -5   5   1   85.79   11.60
  -1  -5  -5   83.89    5.40
   5   1  -5   82.59    4.50
   1   5  -5   72.69    8.80
  -1   5   5   78.09   12.70
   5  -5   1   87.69    4.90
   1  -5   5   89.79    5.70
   1  -5  -5   88.19    5.30
   1   5   5   79.59    9.60
   5  -5  -1   86.59    5.10
  -1   5  -5   77.89    8.50
   5  -1  -5   85.19    4.80
  -5  -5   1   86.29    4.50
  -1  -5   5   83.39    5.20
  -5   1  -5   83.39    5.40
   5   1   5   88.39    5.30
  -5   5  -1   94.99    9.30
   5   5   1   84.99    4.60
  -5  -5  -3   40.20    3.00
   3   5  -5   39.60    9.00
  -5  -3  -5   41.10    3.50
   5   3  -5   44.30    6.30
   5  -5   3   35.50    3.30
  -5   3   5   31.80   10.20
   5  -3   5   44.50    3.40
   5   5  -3   39.30    7.00
  -5   5   3   41.90    9.90
  -3  -5  -5   41.30    2.90
  -3   5   5   33.00   11.50
  -3  -5   5   41.10    3.40
   3  -5  -5   44.50    4.00
  -5  -5   3   41.50    3.10
   3   5   5   43.70    4.10
   5  -5  -3   44.20    3.90
  -5   3  -5   35.30    4.50
   5  -3  -5   45.00    3.60
  -5   5  -3   31.60    5.00
  -5  -3   5   39.30    2.70
   5   3   5   39.70    4.10
  -3   5  -5   41.70    7.20
   5   5   3   45.80    3.60
  -5  -5  -5   16.60    2.40
   5   5  -5   13.60    5.50
  -5   5   5    7.00   17.20
  -5   5  -5   16.50    3.50
   5  -5  -5   17.10    3.10
  -5  -5   5    9.70    3.10
   5   5   5   13.50    3.30
  -6   0   0  374.96   95.69
  -6   0   0  395.16   91.39
   0  -6   0  361.26   15.60
   0  -6   0  369.76   15.50
   0  -6   0  321.57   63.29
   0  -6   0  317.27   61.89
   0   0  -6  365.06   16.00
   0   0  -6  370.16   15.60
   0   0  -6  394.76   17.90
   0   6   0  357.76   19.30
   0   6   0  265.97   52.89
   0   6   0  391.26   67.59
   6   0   0  385.46   16.00
   6   0   0  410.56   72.49
   6   0   0  420.86   57.59
   6   2   0  193.28   48.80
   0  -6  -2  258.57   65.19
   0  -6   2  244.88   11.00
   0   6  -2  240.08   14.30
   0   6   2  241.28   15.40
   0   6   2  240.98   57.49
   2   0  -6  244.48   11.00
   2   0  -6  255.07   13.30
   2   0   6  236.58   11.40
   6  -2   0  262.67   11.20
   6   2   0  255.27   11.00
  -6   2   0  233.48   13.70
  -6   2   0  206.38   67.49
  -2   0  -6  256.37   11.20
  -2   0   6  249.88   10.60
   0  -6  -2  251.27   10.50
  -6   2   0  246.98   12.50
  -6  -2   0  247.58   10.80
  -6  -2   0  244.78   81.89
   0  -6  -4   86.69    5.40
   0  -6   4   84.79    5.20
   0   6  -4   78.79    8.80
   0   6   4   79.79   11.10
   4   0  -6   84.99    4.80
   4   0   6   88.79    5.40
   6   4   0   88.69    4.60
  -6  -4   0   88.49    4.60
   6  -4   0   83.19    5.00
  -6   4   0   79.19   10.10
  -4   0  -6   90.09    5.30
   0  -2  -6  243.78   11.50
  -6   0   2  241.78   10.80
   2  -6   0  255.57   10.90
   2  -6   0  224.18   59.19
   2   6   0  275.97   14.50
   6   0  -2  253.67   11.10
  -6   0  -2  239.98   11.40
  -6   0   2  259.47   13.10
  -6   0   2  206.98   92.89
  -2  -6   0  247.48   10.90
  -2  -6   0  254.97   63.09
  -2   6   0  235.78   15.30
  -2   6   0  221.98   50.19
   2  -6   0  245.38   11.10
   0  -2  -6  242.08   10.70
   0   2  -6  261.17   13.50
   0   2   6  262.37   14.90
   6   0   2  251.87   11.30
   6   0  -2  283.67   68.19
   6   2  -2  171.08    9.00
   2   6  -2  168.28   11.40
  -2   6   2  142.89   84.89
   6   2  -2  165.58    7.60
  -6  -2  -2  175.08    8.00
   6  -2   2  175.98    8.20
  -2  -2  -6  167.78    8.50
  -2  -2  -6  170.08    8.00
  -2  -2  -6  125.89   25.90
   2   2  -6  182.98   10.50
   2   2  -6  174.88    7.80
  -2  -6  -2  173.58    7.50
  -2   2   6  145.69   14.90
  -6   2   2  176.98   11.40
  -2   6   2  161.28   13.40
   2  -6   2  169.38    8.00
   2  -2   6  169.28    8.60
  -2   6  -2  169.18   11.30
  -6   2  -2  176.78    9.00
   2  -2  -6  166.08    8.20
  -2   2  -6  156.78   11.00
  -2   2  -6  170.68    8.20
  -2  -2   6  167.48    7.80
   2   2   6  156.28   22.50
  -6  -2   2  167.48    7.60
   2   6   2  171.18   11.10
   6  -2  -2  175.48    8.10
   6  -2  -2  125.89   58.99
  -2  -6   2  165.58    7.80
   2  -6  -2  162.48    8.20
   2  -6  -2  106.89   48.40
   6   2   2  170.38    8.10
  -4  -2  -6   47.50    4.10
  -6  -4  -2   56.89    3.60
   2   6  -4   53.69    9.10
  -4   2   6   50.19   12.20
  -2  -6  -4   53.19    4.60
  -2  -6  -4   57.39    3.10
   4   2  -6   57.29    6.20
   6  -4   2   52.49    4.00
  -2   6   4   53.09   10.70
  -6   4   2   54.29   11.40
   2  -6   4   56.29    4.90
   6   4  -2   55.49    5.40
   4  -2   6   57.79    3.90
   2   6   4   65.09    7.50
  -2  -6   4   52.29    3.90
  -6   4  -2   47.90    5.90
   2  -6  -4   57.39    4.30
   4  -2  -6   59.09    4.00
   6  -4  -2   60.99    4.50
   6   4   2   52.99    3.80
   4   2   6   56.79    4.80
  -4  -2   6   53.09    3.20
  -2   6  -4   59.09    8.00
  -4   2  -6   59.99    4.50
  -6  -4   2   58.09    3.50
   0   4  -6   83.99    8.50
   0  -4   6   83.19    5.50
   0  -4  -6   87.09    5.40
   6   0   4   91.19    5.30
  -6   0  -4   86.39    5.60
  -4  -6   0   85.59    4.50
  -4   6   0   91.89   10.80
  -6   0   4  101.19    9.30
   0   4   6   78.59   10.80
   4  -6   0   83.49    5.00
   4   6   0   83.49    7.80
   6   0  -4   83.49    4.80
   6  -2   4   57.99    4.10
   6   2  -4   55.29    3.40
   6   2  -4   57.19    5.80
   4  -6   2   57.89    4.10
  -2  -4  -6   56.69    4.70
  -2  -4  -6   51.59    3.60
  -6  -2  -4   56.29    4.10
   2   4  -6   56.89    7.40
  -6   2   4   73.39   10.60
  -4  -6  -2   61.29    3.40
   4   6  -2   51.19    8.20
  -2   4   6   47.10   12.10
  -4   6   2   50.19   12.10
  -2  -4   6   52.39    4.00
  -2   4  -6   40.40    7.10
   4   6   2   52.59    3.90
   2  -4  -6   55.39    4.30
  -6  -2   4   54.59    3.10
  -6   2  -4   58.49    4.70
   4  -6  -2   50.69    4.10
   6   2   4   54.59    4.40
  -4  -6   2   57.49    3.60
  -4   6  -2   66.99    8.10
   6  -2  -4   57.59    4.00
  -6  -4  -4   24.30    3.10
  -4   4   6   31.00   23.50
   4   4  -6   27.10    6.10
  -6   4   4   26.60   10.40
  -4  -6  -4   24.70    2.70
   4  -6   4   22.60    4.00
  -4  -4  -6   27.30    3.30
   6  -4   4   21.00    3.10
   6   4  -4   22.90    4.60
   4   6  -4   17.30    6.90
  -4   6   4   44.20   15.70
   4  -6  -4   30.40    3.80
  -4  -6   4   29.40    3.20
   4  -4  -6   25.70    4.10
  -6   4  -4   24.80    4.30
   4   4   6   30.30    4.60
  -6  -4   4   20.90    2.60
   4   6   4   24.40    4.10
   6  -4  -4   26.70    4.10
  -4  -4   6   17.90    2.90
  -4   4  -6   30.00    4.20
   6   4   4   24.80    3.80
  -6  -6   0   21.80    2.80
  -6   0  -6   23.90    4.00
  -6   0   6   42.20   10.60
  -6   6   0   18.90    7.70
   0  -6  -6   24.70    4.00
   0  -6   6   22.80    3.50
   0   6  -6   20.90    8.90
   0   6   6    7.00    8.10
   6  -6   0   19.80    3.10
   6   0  -6   22.90    3.20
   6   0   6   20.30    3.60
  -6  -6  -2   21.60    3.00
   6   6  -2   11.30    4.30
  -6  -2  -6   14.20    2.80
   6  -2   6   16.70    4.80
  -6   2   6   18.70   16.20
   2   6  -6   14.50    8.10
  -6   6   2   20.70    9.60
  -2  -6  -6   13.70    3.20
   2  -6   6   14.50    3.50
  -2   6   6  -10.70   14.10
  -2   6  -6   15.20    7.70
   2  -6  -6   12.20    3.10
  -2  -6   6   14.80    2.80
   6  -6  -2   14.00    3.00
   6  -2  -6   21.50    3.50
  -6   2  -6   15.90    3.00
   6   2   6   12.70    3.20
  -6  -6   2   12.30    2.10
   6   6   2   10.10    2.70
   4  -6   6   11.50    3.90
  -6  -4  -6    9.10    3.00
  -4   6   6  -14.60   39.50
  -6   6   4   -6.10   18.00
  -4  -6  -6    8.60    3.20
   6   6  -4   -0.90    5.80
   4   6  -6   12.70   10.50
   6  -6   4   17.50    4.50
   6   4  -6    2.10    5.50
   4  -6  -6    7.10    3.70
   4   6   6    2.30    3.40
   6  -6  -4    4.40    3.20
  -6   4  -6    7.70    3.60
   6  -4  -6   13.60    3.30
  -6  -6   4    5.70    2.10
   6   4   6    8.80    4.00
  -4  -6   6    5.50    2.70
   6   6   4    2.60    3.10
  -7  -1  -1  109.89    6.00
   7  -1   1  118.39    6.40
   7   1  -1  111.09    5.90
  -7   1   1  124.29    7.20
  -1  -7  -1  113.29    5.50
   1   1  -7  112.99    6.00
  -1  -1  -7  112.79    6.40
  -1  -1  -7  114.89    5.80
   1   7  -1  117.09   10.20
   1  -1   7  119.99    6.30
  -1   7   1  119.69   12.10
   1  -7   1  116.19    5.80
   1   1  -7  114.99    8.10
  -1   1  -7  118.49    7.40
  -1   7  -1  113.09   10.40
   1  -7  -1  115.89    5.40
  -1   1  -7  119.99    6.00
  -1  -7   1  117.19    5.80
   1  -1  -7  118.39    6.30
   1   1   7  124.39    8.30
  -1  -1   7  111.99    5.80
   1   7   1  117.19   10.70
   7  -1  -1  129.39    6.30
  -7  -1   1  110.19    5.70
  -7   1  -1  111.79    6.60
   7   1   1  120.59    6.20
   7  -3   1   66.29    4.50
  -3  -1  -7   56.09    4.20
  -1   7   3   59.09   13.70
  -3   1   7   84.89   14.40
   1  -7   3   63.79    4.40
   1   7  -3   66.89   10.30
   7   3  -1   59.69    3.60
  -7   3   1   49.90    8.40
   3  -1   7   56.49    4.30
   3   1  -7   57.19    4.00
   3   1  -7   52.19    6.40
  -1  -7  -3   54.19    4.50
  -1  -7  -3   56.39    3.20
  -7  -3  -1   59.99    3.90
   1   7   3   68.79    9.50
   7   3   1   59.29    3.90
  -7   3  -1   42.40    6.80
   3  -1  -7   57.09    4.10
  -1   7  -3   62.49    9.10
  -3   1  -7   59.89    4.40
   1  -7  -3   56.39    4.50
  -1  -7   3   55.89    4.10
   7  -3  -1   62.29    4.50
   3   1   7   59.19    5.00
  -7  -3   1   56.29    3.60
  -5   1   7   48.80   16.90
  -7  -5  -1   17.90    2.40
  -1   7   5   18.70   11.20
   1  -7   5   21.70    3.60
  -5  -1  -7   15.00    2.70
  -7   5   1   28.00    9.10
   7  -5   1   18.70    5.20
   1   7  -5   28.70    9.20
  -5   1  -7   22.90    3.10
   7  -5  -1   25.20    4.00
   5   1   7   18.00    3.30
   1  -7  -5   17.90    3.40
   7   5   1   21.80    3.30
   1   7   5   19.50    6.80
   5  -1  -7   18.20    3.20
  -1  -7   5   16.20    2.90
  -7  -5   1   13.30    2.10
  -1   7  -5   19.40    7.20
   7  -1   3   58.39    4.50
  -3  -7  -1   56.89    3.50
  -7   1   3   63.89    9.60
  -1   3   7   53.69   12.10
   3  -7   1   58.79    3.80
   3   7  -1   60.69    8.90
   1   3  -7   61.19    7.00
  -7  -1  -3   54.89    4.50
  -3   7   1   66.39   13.50
  -1  -3  -7   56.79    4.60
   7   1  -3   56.79    3.80
   1  -3   7   60.29    4.50
   3  -7  -1   51.09    4.30
  -3  -7   1   63.19    3.80
   3   7   1   61.99    7.50
  -7  -1   3   69.19    7.60
  -7   1  -3   55.09    4.90
   1   3   7   51.19    9.60
   7   1   3   60.89    4.50
  -1   3  -7   64.99    6.80
  -3   7  -1   64.09    9.80
   1  -3  -7   58.89    4.40
   7  -1  -3   59.19    4.20
  -1  -3   7   58.49    4.40
  -3   3   7   32.40   17.60
   3   7  -3   36.50    9.00
   7  -3   3   34.70    3.50
   3   3  -7   29.20    5.80
  -7   3   3   26.30    8.70
  -3  -7  -3   30.60    2.50
  -3   7   3   32.80   12.80
  -7  -3  -3   28.30    3.40
   3  -7   3   27.40    4.50
   7   3  -3   24.10    4.80
  -3  -3  -7   30.40    3.50
   7   3   3   29.50    3.70
  -3  -7   3   30.70    2.90
   3  -7  -3   29.00    3.90
  -7  -3   3   28.90    2.60
   3  -3  -7   29.40    3.80
  -7   3  -3   32.90    4.50
   3   3   7   32.00    4.20
  -3   7  -3   40.20    9.60
   3   7   3   26.60    3.90
   7  -3  -3   34.60    3.90
  -3  -3   7   21.00    2.90
  -3   3  -7   27.30    4.00
   7  -5   3   10.00    2.90
   3   7  -5   19.40   12.00
   3  -7   5   11.80    4.20
   5   3  -7    8.70    6.60
  -5  -3  -7   10.20    2.80
  -5   3   7    8.20   33.50
  -7  -5  -3   13.40    2.60
   7   5  -3    7.00    4.80
  -3   7   5    1.40   23.80
  -7   5   3    9.60   10.80
   5  -3  -7   12.70    3.00
  -7  -5   3    8.20    1.90
   3   7   5   16.10    3.50
  -3   7  -5   16.80    7.00
  -5   3  -7    3.50    3.20
   7  -5  -3   12.70    3.50
  -7   5  -3    4.30    5.80
  -3  -7   5    9.40    2.70
   7   5   3    6.90    2.60
   5   3   7    9.20    3.60
   3  -7  -5   10.20    3.20
  -5   7   1   24.20   10.20
   1  -5   7   21.30    3.40
   5   7  -1    9.00    5.50
  -1   5   7    3.40   11.50
   7  -1   5   19.00    3.00
  -7   1   5   20.80   10.40
  -5  -7  -1   19.30    2.40
   1   5  -7   14.40    6.00
  -1  -5  -7   25.40    3.80
  -7  -1  -5   19.30    3.30
   7   1  -5   17.60    2.60
  -5   7  -1   23.90    7.40
  -1  -5   7   18.00    3.20
   7  -1  -5   22.10    3.30
   1  -5  -7   21.90    3.40
   7   1   5   19.70    3.20
  -5  -7   1   21.40    2.70
   5  -7  -1   29.40    4.20
  -7   1  -5   18.20    3.40
   7   3  -5    8.40    4.40
   3  -5   7   10.50    3.00
   7  -3   5    7.00    2.60
   5  -7   3   13.30    3.80
   5   7  -3   10.30    6.70
  -7   3   5    3.80   13.30
  -5   7   3   17.90   16.30
  -7  -3  -5    9.70    2.90
  -5  -7  -3    9.80    2.00
   3   5  -7   17.10    8.20
   7   3   5    8.60    3.20
   5  -7  -3    8.70    3.10
  -3  -5   7    7.10    2.50
  -7   3  -5   13.30    3.20
   7  -3  -5   15.40    3.00
   3  -5  -7    8.90    3.30
  -5  -7   3   10.60    2.30
  -5   7  -3   16.50    6.50
  -8   0   0   48.40    4.30
   0  -8   0   51.09    3.40
   0   0  -8   47.90    4.20
   0   8   0   64.49   12.20
   8   0   0   56.59    4.20
   0   8  -2   53.59   10.80
   0   8   2   55.99   13.80
   2   0  -8   31.10    3.70
   2   0   8   42.50    4.30
   8  -2   0   41.50    4.90
   8   2   0   36.60    3.50
  -8  -2   0   38.50    3.50
  -2   0  -8   40.00    3.80
   0  -8   2   40.40    3.70
   8   4   0   22.00    3.40
   8  -4   0   20.30    3.20
  -8  -4   0   16.20    2.20
  -4   0  -8   14.40    2.70
   0  -8   4   11.30    3.00
   0   8  -4   30.60   10.70
   4   0   8   14.60    3.00
   4   0  -8   14.30    3.00
   0   8   4   29.70    9.60
  -2  -8   0   38.70    3.00
  -8   0  -2   38.00    4.60
   0  -2   8   37.90    3.80
   0   2   8   26.50    6.20
   2   8   0   44.10   10.80
   8   0  -2   40.70    3.70
   8   0   2   48.20    6.60
   0  -2  -8   41.60    4.20
   0   2  -8   36.80    5.90
  -2   8   0   64.99   16.10
  -2  -8  -2   29.50    2.60
   2   8  -2   33.90   10.90
  -8  -2  -2   29.00    4.60
   8   2  -2   27.10    3.10
   2   2  -8   27.30    6.20
  -8   2   2   29.30    9.20
  -2   2   8   50.49   11.90
   8  -2   2   29.90    4.00
  -2   8   2   46.30   12.90
   2  -8   2   30.10    3.70
  -2  -8   2   25.20    3.20
  -2   2  -8   26.40    3.90
  -8   2  -2   30.80    4.20
  -8  -2   2   27.40    2.90
   8  -2  -2   37.70    4.10
   2  -2  -8   30.50    6.00
   8   2   2   27.30    3.60
   2   8   2   47.00   10.20
   4   2  -8   13.30    7.10
  -4  -2  -8    8.10    2.70
  -4   2   8   20.70   22.80
  -8  -4  -2   16.90    2.90
  -2   8   4   27.60   16.50
   2  -8   4   11.70    3.90
   2   8  -4   24.40   12.60
   8  -4   2   12.50    2.90
   8   4   2   11.20    2.60
   4  -2  -8   12.70    3.10
   8  -4  -2   11.10    3.60
  -4   2  -8    7.50    2.90
   4   2   8   11.40    4.30
  -2  -8   4    8.10    2.70
   2  -8  -4   13.00    3.90
  -2   8  -4   24.70    9.30
  -8  -4   2   13.20    2.20
  -8   0   4   11.90    8.80
   0   4  -8   10.60    4.60
   8   0   4   18.30    3.20
  -4  -8   0   16.40    2.30
  -8   0  -4   19.00    3.30
   0  -4   8   16.10    3.10
   0  -4  -8   19.50    3.50
   8   0  -4   24.70    3.30
  -4   8   0   36.20   10.80
  -2   4   8  -12.30   15.90
   2   4  -8   13.40    6.90
   4   8  -2   19.60    8.30
  -4  -8  -2    9.50    1.80
   8  -2   4   11.70    2.90
  -8  -2  -4   13.00    3.30
   2  -4   8   12.90    2.90
  -8   2   4   -6.40    9.30
  -4   8   2   31.60   17.70
  -4   8  -2   20.60    8.50
  -2  -4   8    7.90    2.80
   8   2   4    9.70    3.10
   2  -4  -8   11.10    3.30
  -8   2  -4   13.60    3.20
  -4  -8   2   10.40    2.20
   8  -2  -4   16.90    3.20
  -9  -1  -1   19.00    3.20
   9   1  -1   20.50    3.50
  -1  -9  -1   16.90    2.20
   1  -1   9   28.90    4.40
  -1   1   9   22.90    8.90
   9  -1   1   21.80    3.60
   1  -9   1   16.10    2.50
   1   9  -1   24.00   10.50
  -1  -9   1   15.00    2.30
   1  -1  -9   15.20    3.30
   1   9   1   22.70    8.70
   9  -1  -1   26.80    4.40
  -9   1  -1   17.00    4.30
   9   1   1   16.10    2.90
   9  -3   1    7.20    3.30
   1   9  -3   29.80   15.20
  -3   1   9   25.40   15.60
  -9  -3  -1   12.30    2.80
  -3  -1  -9   10.20    4.90
  -1   9   3   35.80   15.20
   1  -9   3    5.90    3.30
   3  -1  -9    6.80    3.30
  -1   9  -3   19.40   14.00
   9  -3  -1   14.80    3.40
  -3   1  -9    7.30    3.00
   1   9   3    9.00    9.80
  -1  -9   3   12.50    2.70
   3   1   9    6.90    4.00
  -9  -3   1    6.50    2.70
   9   3   1   11.70    2.70
  -3  -9  -1    9.20    2.10
   9   1  -3   13.80    3.00
   3   9  -1   23.70    9.70
  -1  -3  -9    4.50    3.30
   9  -1   3   10.60    3.40
   1  -3   9   13.90    3.40
   1   3  -9    6.50    4.60
  -1   3   9   -1.00   14.00
  -9  -1  -3   11.40    3.60
   1  -3  -9    6.40    3.30
   9  -1  -3    8.40    2.90
  -3  -9   1    9.60    2.30
  -9   1  -3   12.50    3.60
   9   1   3   11.20    3.40
   0   0   0    0.00    0.00

_computing_structure_solution     'SHELXT 2014/5 (Sheldrick, 2014)'
;
_shelx_hkl_checksum              28972
loop_
_space_group_symop_operation_xyz
'x, y, z'
'-x, -y, z'
'-x, y, -z'
'x, -y, -z'
'z, x, y'
'z, -x, -y'
'-z, -x, y'
'-z, x, -y'
'y, z, x'
'-y, z, -x'
'y, -z, -x'
'-y, -z, x'
'y, x, -z'
'-y, -x, -z'
'y, -x, z'
'-y, x, z'
'x, z, -y'
'-x, z, y'
'-x, -z, -y'
'x, -z, y'
'z, y, -x'
'z, -y, x'
'-z, y, x'
'-z, -y, -x'
'x, y+1/2, z+1/2'
'-x, -y+1/2, z+1/2'
'-x, y+1/2, -z+1/2'
'x, -y+1/2, -z+1/2'
'z, x+1/2, y+1/2'
'z, -x+1/2, -y+1/2'
'-z, -x+1/2, y+1/2'
'-z, x+1/2, -y+1/2'
'y, z+1/2, x+1/2'
'-y, z+1/2, -x+1/2'
'y, -z+1/2, -x+1/2'
'-y, -z+1/2, x+1/2'
'y, x+1/2, -z+1/2'
'-y, -x+1/2, -z+1/2'
'y, -x+1/2, z+1/2'
'-y, x+1/2, z+1/2'
'x, z+1/2, -y+1/2'
'-x, z+1/2, y+1/2'
'-x, -z+1/2, -y+1/2'
'x, -z+1/2, y+1/2'
'z, y+1/2, -x+1/2'
'z, -y+1/2, x+1/2'
'-z, y+1/2, x+1/2'
'-z, -y+1/2, -x+1/2'
'x+1/2, y, z+1/2'
'-x+1/2, -y, z+1/2'
'-x+1/2, y, -z+1/2'
'x+1/2, -y, -z+1/2'
'z+1/2, x, y+1/2'
'z+1/2, -x, -y+1/2'
'-z+1/2, -x, y+1/2'
'-z+1/2, x, -y+1/2'
'y+1/2, z, x+1/2'
'-y+1/2, z, -x+1/2'
'y+1/2, -z, -x+1/2'
'-y+1/2, -z, x+1/2'
'y+1/2, x, -z+1/2'
'-y+1/2, -x, -z+1/2'
'y+1/2, -x, z+1/2'
'-y+1/2, x, z+1/2'
'x+1/2, z, -y+1/2'
'-x+1/2, z, y+1/2'
'-x+1/2, -z, -y+1/2'
'x+1/2, -z, y+1/2'
'z+1/2, y, -x+1/2'
'z+1/2, -y, x+1/2'
'-z+1/2, y, x+1/2'
'-z+1/2, -y, -x+1/2'
'x+1/2, y+1/2, z'
'-x+1/2, -y+1/2, z'
'-x+1/2, y+1/2, -z'
'x+1/2, -y+1/2, -z'
'z+1/2, x+1/2, y'
'z+1/2, -x+1/2, -y'
'-z+1/2, -x+1/2, y'
'-z+1/2, x+1/2, -y'
'y+1/2, z+1/2, x'
'-y+1/2, z+1/2, -x'
'y+1/2, -z+1/2, -x'
'-y+1/2, -z+1/2, x'
'y+1/2, x+1/2, -z'
'-y+1/2, -x+1/2, -z'
'y+1/2, -x+1/2, z'
'-y+1/2, x+1/2, z'
'x+1/2, z+1/2, -y'
'-x+1/2, z+1/2, y'
'-x+1/2, -z+1/2, -y'
'x+1/2, -z+1/2, y'
'z+1/2, y+1/2, -x'
'z+1/2, -y+1/2, x'
'-z+1/2, y+1/2, x'
'-z+1/2, -y+1/2, -x'
'-x, -y, -z'
'x, y, -z'
'x, -y, z'
'-x, y, z'
'-z, -x, -y'
'-z, x, y'
'z, x, -y'
'z, -x, y'
'-y, -z, -x'
'y, -z, x'
'-y, z, x'
'y, z, -x'
'-y, -x, z'
'y, x, z'
'-y, x, -z'
'y, -x, -z'
'-x, -z, y'
'x, -z, -y'
'x, z, y'
'-x, z, -y'
'-z, -y, x'
'-z, y, -x'
'z, -y, -x'
'z, y, x'
'-x, -y+1/2, -z+1/2'
'x, y+1/2, -z+1/2'
'x, -y+1/2, z+1/2'
'-x, y+1/2, z+1/2'
'-z, -x+1/2, -y+1/2'
'-z, x+1/2, y+1/2'
'z, x+1/2, -y+1/2'
'z, -x+1/2, y+1/2'
'-y, -z+1/2, -x+1/2'
'y, -z+1/2, x+1/2'
'-y, z+1/2, x+1/2'
'y, z+1/2, -x+1/2'
'-y, -x+1/2, z+1/2'
'y, x+1/2, z+1/2'
'-y, x+1/2, -z+1/2'
'y, -x+1/2, -z+1/2'
'-x, -z+1/2, y+1/2'
'x, -z+1/2, -y+1/2'
'x, z+1/2, y+1/2'
'-x, z+1/2, -y+1/2'
'-z, -y+1/2, x+1/2'
'-z, y+1/2, -x+1/2'
'z, -y+1/2, -x+1/2'
'z, y+1/2, x+1/2'
'-x+1/2, -y, -z+1/2'
'x+1/2, y, -z+1/2'
'x+1/2, -y, z+1/2'
'-x+1/2, y, z+1/2'
'-z+1/2, -x, -y+1/2'
'-z+1/2, x, y+1/2'
'z+1/2, x, -y+1/2'
'z+1/2, -x, y+1/2'
'-y+1/2, -z, -x+1/2'
'y+1/2, -z, x+1/2'
'-y+1/2, z, x+1/2'
'y+1/2, z, -x+1/2'
'-y+1/2, -x, z+1/2'
'y+1/2, x, z+1/2'
'-y+1/2, x, -z+1/2'
'y+1/2, -x, -z+1/2'
'-x+1/2, -z, y+1/2'
'x+1/2, -z, -y+1/2'
'x+1/2, z, y+1/2'
'-x+1/2, z, -y+1/2'
'-z+1/2, -y, x+1/2'
'-z+1/2, y, -x+1/2'
'z+1/2, -y, -x+1/2'
'z+1/2, y, x+1/2'
'-x+1/2, -y+1/2, -z'
'x+1/2, y+1/2, -z'
'x+1/2, -y+1/2, z'
'-x+1/2, y+1/2, z'
'-z+1/2, -x+1/2, -y'
'-z+1/2, x+1/2, y'
'z+1/2, x+1/2, -y'
'z+1/2, -x+1/2, y'
'-y+1/2, -z+1/2, -x'
'y+1/2, -z+1/2, x'
'-y+1/2, z+1/2, x'
'y+1/2, z+1/2, -x'
'-y+1/2, -x+1/2, z'
'y+1/2, x+1/2, z'
'-y+1/2, x+1/2, -z'
'y+1/2, -x+1/2, -z'
'-x+1/2, -z+1/2, y'
'x+1/2, -z+1/2, -y'
'x+1/2, z+1/2, y'
'-x+1/2, z+1/2, -y'
'-z+1/2, -y+1/2, x'
'-z+1/2, y+1/2, -x'
'z+1/2, -y+1/2, -x'
'z+1/2, y+1/2, x'
loop_
_atom_site_label
_atom_site_type_symbol
_atom_site_fract_x
_atom_site_fract_y
_atom_site_fract_z
_atom_site_U_iso_or_equiv
_atom_site_adp_type
_atom_site_occupancy
_atom_site_site_symmetry_order
_atom_site_calc_flag
_atom_site_refinement_flags_posn
_atom_site_refinement_flags_adp
_atom_site_refinement_flags_occupancy
_atom_site_disorder_assembly
_atom_site_disorder_group
Te1 Te 0.0000 0.0000 0.0000 0.0506(3) Uani 0.4992 48 d S T P . .
Mo1 Mo 0.0000 0.0000 0.0000 0.03573(3) Uani 0.1248 48 d S TU P . .
Na1 Na 0.0000 0.0000 0.0000 0.04462(3) Uani 0.3744 48 d S TU P . .
O1 O -0.2500 -0.2500 -0.2500 0.12221(3) Uani 0.7812 24 d S TU P . .
loop_
_atom_site_aniso_label
_atom_site_aniso_U_11
_atom_site_aniso_U_22
_atom_site_aniso_U_33
_atom_site_aniso_U_23
_atom_site_aniso_U_13
_atom_site_aniso_U_12
Te1 0.0506(3) 0.0506(3) 0.0506(3) 0.000 0.000 0.000
Mo1 0.03573(3) 0.03573(3) 0.03573(3) 0.000 0.000 0.000
Na1 0.04462(3) 0.04462(3) 0.04462(3) 0.000 0.000 0.000
O1 0.12221(3) 0.12221(3) 0.12221(3) 0.000 0.000 0.000
loop_
_atom_type_symbol
_atom_type_description
_atom_type_scat_dispersion_real
_atom_type_scat_dispersion_imag
_atom_type_scat_source
O O 0.0106 0.0060 'International Tables Vol C Tables 4.2.6.8 and 6.1.1.4'
Na Na 0.0362 0.0249 'International Tables Vol C Tables 4.2.6.8 and 6.1.1.4'
Mo Mo -1.6832 0.6857 'International Tables Vol C Tables 4.2.6.8 and 6.1.1.4'
Te Te -0.5308 1.6751 'International Tables Vol C Tables 4.2.6.8 and 6.1.1.4'
loop_
_geom_angle_atom_site_label_1
_geom_angle_atom_site_label_2
_geom_angle_atom_site_label_3
_geom_angle
_geom_angle_site_symmetry_1
_geom_angle_site_symmetry_3
O1 Te1 O1 180.0 97 .
O1 Te1 O1 109.5 97 169_445
O1 Te1 O1 70.5 . 169_445
O1 Te1 O1 70.5 97 49
O1 Te1 O1 109.5 . 49
O1 Te1 O1 70.5 169_445 49
O1 Te1 O1 70.5 97 73
O1 Te1 O1 109.5 . 73
O1 Te1 O1 180.0 169_445 73
O1 Te1 O1 109.5 49 73
O1 Te1 O1 70.5 97 25
O1 Te1 O1 109.5 . 25
O1 Te1 O1 70.5 169_445 25
O1 Te1 O1 109.5 49 25
O1 Te1 O1 109.5 73 25
O1 Te1 O1 109.5 97 121_544
O1 Te1 O1 70.5 . 121_544
O1 Te1 O1 109.5 169_445 121_544
O1 Te1 O1 70.5 49 121_544
O1 Te1 O1 70.5 73 121_544
O1 Te1 O1 180.0 25 121_544
O1 Te1 O1 109.5 97 145_454
O1 Te1 O1 70.5 . 145_454
O1 Te1 O1 109.5 169_445 145_454
O1 Te1 O1 180.0 49 145_454
O1 Te1 O1 70.5 73 145_454
O1 Te1 O1 70.5 25 145_454
O1 Te1 O1 109.5 121_544 145_454
O1 Mo1 O1 180.0 97 .
O1 Mo1 O1 109.5 97 169_445
O1 Mo1 O1 70.5 . 169_445
O1 Mo1 O1 70.5 97 49
O1 Mo1 O1 109.5 . 49
O1 Mo1 O1 70.5 169_445 49
O1 Mo1 O1 70.5 97 73
O1 Mo1 O1 109.5 . 73
O1 Mo1 O1 180.0 169_445 73
O1 Mo1 O1 109.5 49 73
O1 Mo1 O1 70.5 97 25
O1 Mo1 O1 109.5 . 25
O1 Mo1 O1 70.5 169_445 25
O1 Mo1 O1 109.5 49 25
O1 Mo1 O1 109.5 73 25
O1 Mo1 O1 109.5 97 121_544
O1 Mo1 O1 70.5 . 121_544
O1 Mo1 O1 109.5 169_445 121_544
O1 Mo1 O1 70.5 49 121_544
O1 Mo1 O1 70.5 73 121_544
O1 Mo1 O1 180.0 25 121_544
O1 Mo1 O1 109.5 97 145_454
O1 Mo1 O1 70.5 . 145_454
O1 Mo1 O1 109.5 169_445 145_454
O1 Mo1 O1 180.0 49 145_454
O1 Mo1 O1 70.5 73 145_454
O1 Mo1 O1 70.5 25 145_454
O1 Mo1 O1 109.5 121_544 145_454
O1 Na1 O1 180.0 97 .
O1 Na1 O1 109.5 97 169_445
O1 Na1 O1 70.5 . 169_445
O1 Na1 O1 109.5 97 145_454
O1 Na1 O1 70.5 . 145_454
O1 Na1 O1 109.5 169_445 145_454
O1 Na1 O1 109.5 97 121_544
O1 Na1 O1 70.5 . 121_544
O1 Na1 O1 109.5 169_445 121_544
O1 Na1 O1 109.5 145_454 121_544
O1 Na1 O1 70.5 97 73
O1 Na1 O1 109.5 . 73
O1 Na1 O1 180.0 169_445 73
O1 Na1 O1 70.5 145_454 73
O1 Na1 O1 70.5 121_544 73
O1 Na1 O1 70.5 97 49
O1 Na1 O1 109.5 . 49
O1 Na1 O1 70.5 169_445 49
O1 Na1 O1 180.0 145_454 49
O1 Na1 O1 70.5 121_544 49
O1 Na1 O1 109.5 73 49
O1 Na1 O1 70.5 97 25
O1 Na1 O1 109.5 . 25
O1 Na1 O1 70.5 169_445 25
O1 Na1 O1 70.5 145_454 25
O1 Na1 O1 180.0 121_544 25
O1 Na1 O1 109.5 73 25
O1 Na1 O1 109.5 49 25
O1 Na1 Na1 35.3 97 25
O1 Na1 Na1 144.7 . 25
O1 Na1 Na1 90.0 169_445 25
O1 Na1 Na1 90.0 145_454 25
O1 Na1 Na1 144.7 121_544 25
O1 Na1 Na1 90.0 73 25
O1 Na1 Na1 90.0 49 25
O1 Na1 Na1 35.3 25 25
O1 Na1 Na1 35.3 97 49
O1 Na1 Na1 144.7 . 49
O1 Na1 Na1 90.0 169_445 49
O1 Na1 Na1 144.7 145_454 49
O1 Na1 Na1 90.0 121_544 49
O1 Na1 Na1 90.0 73 49
O1 Na1 Na1 35.3 49 49
O1 Na1 Na1 90.0 25 49
Na1 Na1 Na1 60.0 25 49
O1 Na1 Na1 144.7 97 73_445
O1 Na1 Na1 35.3 . 73_445
O1 Na1 Na1 35.3 169_445 73_445
O1 Na1 Na1 90.0 145_454 73_445
O1 Na1 Na1 90.0 121_544 73_445
O1 Na1 Na1 144.7 73 73_445
O1 Na1 Na1 90.0 49 73_445
O1 Na1 Na1 90.0 25 73_445
Na1 Na1 Na1 120.0 25 73_445
Na1 Na1 Na1 120.0 49 73_445
O1 Na1 Na1 144.7 97 25_544
O1 Na1 Na1 35.3 . 25_544
O1 Na1 Na1 90.0 169_445 25_544
O1 Na1 Na1 90.0 145_454 25_544
O1 Na1 Na1 35.3 121_544 25_544
O1 Na1 Na1 90.0 73 25_544
O1 Na1 Na1 90.0 49 25_544
O1 Na1 Na1 144.7 25 25_544
Na1 Na1 Na1 180.0 25 25_544
Na1 Na1 Na1 120.0 49 25_544
Na1 Na1 Na1 60.0 73_445 25_544
Na1 O1 Te1 0.0 . .
Na1 O1 Mo1 0.0 . .
Te1 O1 Mo1 0.0 . .
Na1 O1 Na1 109.5 . 73_445
Te1 O1 Na1 109.5 . 73_445
Mo1 O1 Na1 109.5 . 73_445
Na1 O1 Te1 109.5 . 25_544
Te1 O1 Te1 109.5 . 25_544
Mo1 O1 Te1 109.5 . 25_544
Na1 O1 Te1 109.5 73_445 25_544
Na1 O1 Te1 109.5 . 49_454
Te1 O1 Te1 109.5 . 49_454
Mo1 O1 Te1 109.5 . 49_454
Na1 O1 Te1 109.5 73_445 49_454
Te1 O1 Te1 109.5 25_544 49_454
Na1 O1 Te1 109.5 . 73_445
Te1 O1 Te1 109.5 . 73_445
Mo1 O1 Te1 109.5 . 73_445
Na1 O1 Te1 0.0 73_445 73_445
Te1 O1 Te1 109.5 25_544 73_445
Te1 O1 Te1 109.5 49_454 73_445
Na1 O1 Mo1 109.5 . 25_544
Te1 O1 Mo1 109.5 . 25_544
Mo1 O1 Mo1 109.5 . 25_544
Na1 O1 Mo1 109.5 73_445 25_544
Te1 O1 Mo1 0.0 25_544 25_544
Te1 O1 Mo1 109.5 49_454 25_544
Te1 O1 Mo1 109.5 73_445 25_544
Na1 O1 Mo1 109.5 . 49_454
Te1 O1 Mo1 109.5 . 49_454
Mo1 O1 Mo1 109.5 . 49_454
Na1 O1 Mo1 109.5 73_445 49_454
Te1 O1 Mo1 109.5 25_544 49_454
Te1 O1 Mo1 0.0 49_454 49_454
Te1 O1 Mo1 109.5 73_445 49_454
Mo1 O1 Mo1 109.5 25_544 49_454
Na1 O1 Mo1 109.5 . 73_445
Te1 O1 Mo1 109.5 . 73_445
Mo1 O1 Mo1 109.5 . 73_445
Na1 O1 Mo1 0.0 73_445 73_445
Te1 O1 Mo1 109.5 25_544 73_445
Te1 O1 Mo1 109.5 49_454 73_445
Te1 O1 Mo1 0.0 73_445 73_445
Mo1 O1 Mo1 109.5 25_544 73_445
Mo1 O1 Mo1 109.5 49_454 73_445
Na1 O1 Na1 109.5 . 25_544
Te1 O1 Na1 109.5 . 25_544
Mo1 O1 Na1 109.5 . 25_544
Na1 O1 Na1 109.5 73_445 25_544
Te1 O1 Na1 0.0 25_544 25_544
Te1 O1 Na1 109.5 49_454 25_544
Te1 O1 Na1 109.5 73_445 25_544
Mo1 O1 Na1 0.0 25_544 25_544
Mo1 O1 Na1 109.5 49_454 25_544
Mo1 O1 Na1 109.5 73_445 25_544
Na1 O1 Na1 109.5 . 49_454
Te1 O1 Na1 109.5 . 49_454
Mo1 O1 Na1 109.5 . 49_454
Na1 O1 Na1 109.5 73_445 49_454
Te1 O1 Na1 109.5 25_544 49_454
Te1 O1 Na1 0.0 49_454 49_454
Te1 O1 Na1 109.5 73_445 49_454
Mo1 O1 Na1 109.5 25_544 49_454
Mo1 O1 Na1 0.0 49_454 49_454
Mo1 O1 Na1 109.5 73_445 49_454
Na1 O1 Na1 109.5 25_544 49_454
loop_
_geom_bond_atom_site_label_1
_geom_bond_atom_site_label_2
_geom_bond_distance
_geom_bond_site_symmetry_2
Te1 O1 2.34204(13) 97
Te1 O1 2.34204(13) .
Te1 O1 2.34204(13) 169_445
Te1 O1 2.34204(13) 49
Te1 O1 2.34204(13) 73
Te1 O1 2.34204(13) 25
Te1 O1 2.34204(13) 121_544
Te1 O1 2.34204(13) 145_454
Mo1 O1 2.34204(13) 97
Mo1 O1 2.34204(13) .
Mo1 O1 2.34204(13) 169_445
Mo1 O1 2.34204(13) 49
Mo1 O1 2.34204(13) 73
Mo1 O1 2.34204(13) 25
Mo1 O1 2.34204(13) 121_544
Mo1 O1 2.34204(13) 145_454
Na1 O1 2.34204(13) 97
Na1 O1 2.34204(13) .
Na1 O1 2.34204(13) 169_445
Na1 O1 2.34204(13) 145_454
Na1 O1 2.34204(13) 121_544
Na1 O1 2.34204(13) 73
Na1 O1 2.34204(13) 49
Na1 O1 2.34204(13) 25
Na1 Na1 3.8245(2) 25
Na1 Na1 3.8245(2) 49
Na1 Na1 3.8245(2) 73_445
Na1 Na1 3.8245(2) 25_544
O1 Na1 2.34204(13) 73_445
O1 Te1 2.34204(13) 25_544
O1 Te1 2.34204(13) 49_454
O1 Te1 2.34204(13) 73_445
O1 Mo1 2.34204(13) 25_544
O1 Mo1 2.34204(13) 49_454
O1 Mo1 2.34204(13) 73_445
O1 Na1 2.34204(13) 25_544
O1 Na1 2.34204(13) 49_454
