#------------------------------------------------------------------------------
#$Date: 2021-03-31 11:56:00 +0300 (Wed, 31 Mar 2021) $
#$Revision: 263486 $
#$URL: file:///home/coder/svn-repositories/cod/cif/1/56/13/1561387.cif $
#------------------------------------------------------------------------------
#
# This file is available in the Crystallography Open Database (COD),
# http://www.crystallography.net/
#
# All data on this site have been placed in the public domain by the
# contributors.
#
data_1561387
loop_
_publ_author_name
'Stegemann, Frank'
'Benndorf, Christopher'
'Touzani, Rachid St.'
'Fokwa, Boniface P.T.'
'Janka, Oliver'
_publ_section_title
;
 Experimental and theoretical investigations of the polar intermetallics
 SrPt3Al2 and Sr2Pd2Al
;
_journal_name_full               'Journal of Solid State Chemistry'
_journal_page_first              143
_journal_page_last               150
_journal_paper_doi               10.1016/j.jssc.2016.07.019
_journal_volume                  242
_journal_year                    2016
_chemical_absolute_configuration .
_chemical_formula_sum            'Al2 Pt3 Sr'
_chemical_formula_weight         726.8
_space_group_IT_number           191
_space_group_name_Hall           '-P 6 2'
_space_group_name_H-M_alt        'P 6/m m m'
_symmetry_cell_setting           hexagonal
_symmetry_Int_Tables_number      191
_symmetry_space_group_name_Hall  '-P 6 2'
_symmetry_space_group_name_H-M   'P 6/m m m'
_cell_angle_alpha                90
_cell_angle_beta                 90
_cell_angle_gamma                120
_cell_formula_units_Z            1
_cell_length_a                   5.6629(3)
_cell_length_b                   5.6629(3)
_cell_length_c                   3.8939(3)
_cell_measurement_temperature    293
_cell_volume                     108.142(12)
_diffrn_ambient_temperature      293
_diffrn_measured_fraction_theta_full 1
_diffrn_measured_fraction_theta_max 1
_diffrn_measurement_device       'four-circle diffractometer'
_diffrn_measurement_device_type  'IPDS Stoe'
_diffrn_measurement_method       '??integration method??'
_diffrn_radiation_monochromator  graphite
_diffrn_radiation_probe          x-ray
_diffrn_radiation_source         'X-ray tube'
_diffrn_radiation_type           'Mo K\a'
_diffrn_radiation_wavelength     0.71073
_diffrn_reflns_av_R_equivalents  0.0432
_diffrn_reflns_av_unetI/netI     0.0043
_diffrn_reflns_limit_h_max       8
_diffrn_reflns_limit_h_min       -9
_diffrn_reflns_limit_k_max       9
_diffrn_reflns_limit_k_min       -8
_diffrn_reflns_limit_l_max       6
_diffrn_reflns_limit_l_min       -6
_diffrn_reflns_number            3238
_diffrn_reflns_theta_full        34.59
_diffrn_reflns_theta_max         34.59
_diffrn_reflns_theta_min         4.16
_exptl_absorpt_coefficient_mu    109.17
_exptl_absorpt_correction_T_max  0.5358
_exptl_absorpt_correction_T_min  0.2751
_exptl_absorpt_correction_type   gaussian
_exptl_absorpt_process_details   Jana2006
_exptl_crystal_colour            silver
_exptl_crystal_density_diffrn    11.1605
_exptl_crystal_description       block
_exptl_crystal_F_000             298
_exptl_crystal_size_max          0.015
_exptl_crystal_size_mid          0.010
_exptl_crystal_size_min          0.010
_refine_diff_density_max         1.45
_refine_diff_density_min         -2.89
_refine_ls_extinction_coef       2070(80)
_refine_ls_extinction_method
'B-C type 1 Lorentzian isotropic (Becker & Coppens, 1974)'
_refine_ls_goodness_of_fit_gt    1.36
_refine_ls_goodness_of_fit_ref   1.36
_refine_ls_number_constraints    0
_refine_ls_number_parameters     9
_refine_ls_number_reflns         121
_refine_ls_number_restraints     0
_refine_ls_R_factor_all          0.0085
_refine_ls_R_factor_gt           0.0085
_refine_ls_shift/su_max          0.0000
_refine_ls_shift/su_mean         0.0000
_refine_ls_structure_factor_coef Fsqd
_refine_ls_weighting_details     w=1/(\s^2^(I)+0.000144I^2^)
_refine_ls_weighting_scheme      sigma
_refine_ls_wR_factor_gt          0.0202
_refine_ls_wR_factor_ref         0.0202
_reflns_number_gt                121
_reflns_number_total             121
_reflns_threshold_expression     I>3\s(I)
_cod_data_source_file            JSSC-2016-242-143.cif
_cod_data_source_block           II
_cod_depositor_comments
;
The following automatic conversions were performed:

data item '_diffrn_radiation_probe' value 'X-ray' was changed to
'x-ray' in accordance with the built-in table derived from the CIF
Core dictionary named 'cif_core.dic' version 2.4.5 last updated on
2014-11-21.

data item '_exptl_absorpt_correction_type' value 'Gaussian' was
changed to 'gaussian' in accordance with the built-in table derived
from the CIF Core dictionary named 'cif_core.dic' version 2.4.5 last
updated on 2014-11-21.

Automatic conversion script
Id: cif_fix_values 8369 2020-08-20 11:38:08Z andrius 
;
_cod_original_sg_symbol_Hall     '-P 6;-2'
_cod_original_formula_sum        'Al2 Pt3 Sr1'
_cod_database_code               1561387
loop_
_space_group_symop_id
_space_group_symop_operation_xyz
1 x,y,z
2 -y,x-y,z
3 -x+y,-x,z
4 -x,-y,z
5 y,-x+y,z
6 x-y,x,z
7 y,x,-z
8 x-y,-y,-z
9 -x,-x+y,-z
10 -y,-x,-z
11 -x+y,y,-z
12 x,x-y,-z
13 -x,-y,-z
14 y,-x+y,-z
15 x-y,x,-z
16 x,y,-z
17 -y,x-y,-z
18 -x+y,-x,-z
19 -y,-x,z
20 -x+y,y,z
21 x,x-y,z
22 y,x,z
23 x-y,-y,z
24 -x,-x+y,z
loop_
_atom_site_label
_atom_site_type_symbol
_atom_site_fract_x
_atom_site_fract_y
_atom_site_fract_z
_atom_site_adp_type
_atom_site_U_iso_or_equiv
_atom_site_site_symmetry_multiplicity
_atom_site_occupancy
_atom_site_calc_flag
_atom_site_refinement_flags
_atom_site_disorder_assembly
_atom_site_disorder_group
Sr Sr 0 0 0 Uani 0.0079(2) 1 1 d . . .
Pt Pt 0.5 0 0.5 Uani 0.00390(8) 3 1 d . . .
Al Al 0.666667 0.333333 0 Uani 0.0058(5) 2 1 d . . .
loop_
_atom_site_aniso_label
_atom_site_aniso_type_symbol
_atom_site_aniso_U_11
_atom_site_aniso_U_22
_atom_site_aniso_U_33
_atom_site_aniso_U_12
_atom_site_aniso_U_13
_atom_site_aniso_U_23
Sr Sr 0.0055(2) 0.0055(2) 0.0127(4) 0.00277(12) 0 0
Pt Pt 0.00392(11) 0.00183(11) 0.00526(11) 0.00092(5) 0 0
Al Al 0.0071(6) 0.0071(6) 0.0033(7) 0.0036(3) 0 0
loop_
_atom_type_symbol
_atom_type_scat_dispersion_real
_atom_type_scat_dispersion_imag
_atom_type_scat_source
Al 0.0645 0.0514 'International Tables Vol C tables 4.2.6.8 and 6.1.1.1'
Pt -1.7033 8.3905 'International Tables Vol C tables 4.2.6.8 and 6.1.1.1'
Sr -1.5307 3.2498 'International Tables Vol C tables 4.2.6.8 and 6.1.1.1'
loop_
_exptl_crystal_face_index_h
_exptl_crystal_face_index_k
_exptl_crystal_face_index_l
_exptl_crystal_face_perp_dist
-5 -30 -7 0.0058
-30 5 -1 0.0049
-7 30 3 0.0056
30 -6 5 0.0043
17 -30 -1 0.0047
-15 13 -1 0.0031
10 -4 -1 0.0043
19 -13 -30 0.0068
2 -15 30 0.0082
-30 17 12 0.0045
-11 30 22 0.0072
15 -12 2 0.0035
-4 -30 5 0.0075
loop_
_geom_bond_atom_site_label_1
_geom_bond_atom_site_label_2
_geom_bond_site_symmetry_1
_geom_bond_site_symmetry_2
_geom_bond_distance
Pt1 Pt1 . 1_554 3.8939(6)
Pt1 Pt1 . 1_556 3.8939(6)
Pt1 Pt1 . 2_545 2.8314(5)
Pt1 Pt1 . 2_655 2.8314(5)
Pt1 Pt1 . 3_655 2.8314(3)
Pt1 Pt1 . 3_665 2.8314(3)
Pt1 Sr1 . 1_554 3.4362(3)
Pt1 Sr1 . . 3.4362(3)
Pt1 Sr1 . 1_654 3.4362(3)
Pt1 Sr1 . 1_655 3.4362(3)
Pt1 Al1 . 1_554 2.5422(3)
Pt1 Al1 . . 2.5422(3)
Pt1 Al1 . 4_654 2.5422(3)
Pt1 Al1 . 4_655 2.5422(3)
Sr1 Sr1 . 1_554 3.8939(6)
Sr1 Sr1 . 1_556 3.8939(6)
Sr1 Al1 . 1_445 3.2695(5)
Sr1 Al1 . 1_455 3.26947(17)
Sr1 Al1 . . 3.2695(5)
Sr1 Al1 . 4_555 3.2695(5)
Sr1 Al1 . 4_655 3.26947(17)
Sr1 Al1 . 4_665 3.2695(5)
Al1 Al1 . 1_554 3.8939(6)
Al1 Al1 . 1_556 3.8939(6)
Al1 Al1 . 4_655 3.2695(5)
Al1 Al1 . 4_665 3.26948(17)
Al1 Al1 . 4_765 3.2695(5)
loop_
_refln_index_h
_refln_index_k
_refln_index_l
_refln_F_squared_calc
_refln_F_squared_meas
_refln_F_squared_sigma
_refln_observed_status
0 1 0 2565.48 2526.67 78.26 o
-1 2 0 366.81 430.17 45.90 o
0 2 0 44757.80 43843.60 110.70 o
-1 3 0 1718.61 1709.96 24.11 o
0 3 0 275.84 325.35 31.01 o
-2 4 0 36676.20 36367.50 66.23 o
-1 4 0 1447.09 1481.72 20.79 o
0 4 0 25118.30 25127.80 54.57 o
-2 5 0 1013.68 1044.11 20.79 o
-1 5 0 277.94 297.87 17.27 o
0 5 0 783.15 835.39 25.73 o
-3 6 0 340.23 335.05 26.51 o
-2 6 0 17505.60 17369.00 32.25 o
-1 6 0 910.45 919.27 17.43 o
0 6 0 17194.40 17453.40 47.55 o
-3 7 0 635.59 647.83 18.52 o
-2 7 0 160.98 184.20 18.89 o
-1 7 0 653.39 663.91 20.33 o
0 7 0 387.68 381.72 30.04 o
-4 8 0 13008.90 13001.60 41.00 o
-3 8 0 712.20 731.55 21.17 o
-2 8 0 10259.80 10258.00 32.00 o
-1 8 0 293.84 286.04 24.51 o
-4 9 0 347.76 331.71 26.98 o
0 0 1 25222.50 27476.10 153.50 o
0 1 1 7593.13 7392.55 36.80 o
-1 2 1 11582.40 11208.80 37.91 o
0 2 1 27191.20 26324.30 49.17 o
-1 3 1 5174.87 5079.32 17.58 o
0 3 1 7887.68 7716.37 27.56 o
-2 4 1 13864.10 13557.20 33.49 o
-1 4 1 4140.88 4145.55 15.78 o
0 4 1 16347.60 16119.40 31.93 o
-2 5 1 3094.33 3117.63 15.56 o
-1 5 1 5040.69 5114.02 15.56 o
0 5 1 2489.18 2498.75 20.21 o
-3 6 1 4441.19 4471.44 24.12 o
-2 6 1 11577.70 11466.30 18.47 o
-1 6 1 2539.85 2594.47 14.16 o
0 6 1 7588.90 7527.37 24.30 o
-3 7 1 1944.02 1967.55 14.59 o
-2 7 1 2665.29 2659.09 15.27 o
-1 7 1 1858.63 1892.59 14.74 o
0 7 1 1304.84 1353.50 22.62 o
-4 8 1 6100.37 5955.08 25.41 o
-3 8 1 1848.55 1862.61 17.11 o
-2 8 1 6936.79 6846.14 20.85 o
-1 8 1 2145.84 2140.58 19.14 o
0 0 2 47615.00 50195.50 123.90 o
0 1 2 1728.53 1700.75 18.05 o
-1 2 2 325.34 390.81 17.61 o
0 2 2 30552.00 30364.20 38.21 o
-1 3 2 1352.49 1371.71 12.70 o
0 3 2 251.46 269.62 17.69 o
-2 4 2 28033.50 27982.80 34.75 o
-1 4 2 1187.23 1222.31 12.42 o
0 4 2 19865.10 19910.50 30.25 o
-2 5 2 857.60 846.02 12.46 o
-1 5 2 262.24 281.93 12.91 o
0 5 2 677.89 691.64 17.75 o
-3 6 2 319.21 333.26 18.00 o
-2 6 2 14526.90 14511.30 19.94 o
-1 6 2 796.41 804.43 13.19 o
0 6 2 14424.50 14646.90 29.50 o
-3 7 2 565.48 586.50 14.38 o
-2 7 2 157.87 145.99 14.38 o
-1 7 2 585.26 587.54 15.56 o
0 7 2 353.08 328.05 24.18 o
-4 8 2 11102.70 11118.70 30.19 o
-3 8 2 640.19 640.31 17.02 o
-2 8 2 8823.92 8657.54 23.11 o
0 0 3 13032.10 13121.40 52.40 o
0 1 3 3538.65 3535.28 16.90 o
-1 2 3 5814.78 5799.13 18.85 o
0 2 3 15639.40 15448.40 25.12 o
-1 3 3 2899.76 2885.24 12.85 o
0 3 3 4529.06 4522.13 21.83 o
-2 4 3 9306.32 9255.96 22.65 o
-1 4 3 2559.48 2569.39 12.56 o
0 4 3 11119.70 11029.10 23.34 o
-2 5 3 2017.51 2044.82 12.62 o
-1 5 3 3255.11 3270.48 14.23 o
0 5 3 1677.82 1716.57 19.24 o
-3 6 3 2965.97 2969.30 20.34 o
-2 6 3 8454.10 8335.99 17.15 o
-1 6 3 1758.83 1741.29 14.63 o
0 6 3 5809.89 5812.96 25.35 o
-3 7 3 1365.11 1377.80 15.69 o
-2 7 3 1846.67 1859.12 16.52 o
-1 7 3 1325.21 1328.67 17.36 o
0 0 4 20916.30 20710.10 64.08 o
0 1 4 939.97 925.48 15.11 o
-1 2 4 253.28 249.51 14.42 o
0 2 4 15012.20 14982.50 23.70 o
-1 3 4 804.70 827.46 11.37 o
0 3 4 213.93 217.81 15.68 o
-2 4 4 15154.40 15029.80 25.04 o
-1 4 4 750.15 771.80 12.20 o
0 4 4 11364.80 11379.60 24.79 o
-2 5 4 573.63 601.26 12.90 o
-1 5 4 226.04 230.11 12.97 o
0 5 4 473.30 496.80 20.13 o
-3 6 4 266.80 285.63 20.62 o
-2 6 4 8902.96 8876.26 19.21 o
-1 6 4 563.42 582.32 16.01 o
0 6 4 8983.38 8629.17 33.26 o
0 0 5 6499.92 6532.97 49.92 o
0 1 5 1510.40 1573.28 17.07 o
-1 2 5 2427.15 2447.14 18.08 o
0 2 5 7809.73 7726.70 21.38 o
-1 3 5 1331.85 1341.47 12.69 o
0 3 5 2014.13 2065.09 19.73 o
-2 4 5 5253.29 5237.48 22.89 o
-1 4 5 1235.86 1263.51 15.19 o
0 4 5 6167.87 6073.08 25.08 o
-2 5 5 1004.38 1003.36 17.12 o
-1 5 5 1583.44 1577.81 17.58 o
0 0 6 8752.68 8831.70 63.20 o
0 1 6 490.91 505.60 22.04 o
-1 2 6 191.57 159.93 22.45 o
0 2 6 6691.49 6527.70 26.81 o
