#------------------------------------------------------------------------------
#$Date: 2021-04-14 13:05:32 +0300 (Wed, 14 Apr 2021) $
#$Revision: 264156 $
#$URL: file:///home/coder/svn-repositories/cod/cif/1/56/17/1561761.cif $
#------------------------------------------------------------------------------
#
# This file is available in the Crystallography Open Database (COD),
# http://www.crystallography.net/
#
# All data on this site have been placed in the public domain by the
# contributors.
#
data_1561761
loop_
_publ_author_name
'Bykova, E.'
'Gou, H.'
'Bykov, M.'
'Hanfland, M.'
'Dubrovinsky, L.'
'Dubrovinskaia, N.'
_publ_section_title
;
 Crystal structures and compressibility of novel iron borides Fe2B7 and Fe
 B50 synthesized at high pressure and high temperature
;
_journal_name_full               'Journal of Solid State Chemistry'
_journal_page_first              102
_journal_page_last               109
_journal_paper_doi               10.1016/j.jssc.2015.06.040
_journal_volume                  230
_journal_year                    2015
_chemical_absolute_configuration .
_chemical_compound_source
;
high-pressure high-temperature synthesis
;
_chemical_formula_moiety         'B7 Fe2'
_chemical_formula_sum            'B7 Fe2'
_chemical_formula_weight         187.4
_chemical_name_common            'diiron heptaboride'
_chemical_name_systematic        'diiron heptaboride'
_space_group_IT_number           55
_space_group_name_Hall           '-P 2 2ab'
_space_group_name_H-M_alt        'P b a m'
_symmetry_cell_setting           orthorhombic
_symmetry_Int_Tables_number      55
_symmetry_space_group_name_Hall  '-P 2 2ab'
_symmetry_space_group_name_H-M   'P b a m'
_cell_angle_alpha                90
_cell_angle_beta                 90
_cell_angle_gamma                90
_cell_formula_units_Z            8
_cell_length_a                   16.4469(8)
_cell_length_b                   10.47850(10)
_cell_length_c                   2.80890(10)
_cell_measurement_reflns_used    304
_cell_measurement_temperature    293
_cell_measurement_theta_max      19.5750
_cell_measurement_theta_min      2.4460
_cell_volume                     484.08(3)
_computing_cell_refinement
;
CrysAlisPro, Agilent Technologies,
Version 1.171.37.35 (release 13-08-2014 CrysAlis171 .NET)
(compiled Aug 13 2014,18:06:01)
;
_computing_data_collection
;
CrysAlisPro, Agilent Technologies,
Version 1.171.37.35 (release 13-08-2014 CrysAlis171 .NET)
(compiled Aug 13 2014,18:06:01)
;
_computing_data_reduction
;
CrysAlisPro, Agilent Technologies,
Version 1.171.37.35 (release 13-08-2014 CrysAlis171 .NET)
(compiled Aug 13 2014,18:06:01)
;
_computing_structure_refinement  'Jana2006 (Petricek, 2014)'
_computing_structure_solution    'SHELXS-2013 (Sheldrick, 2013)'
_diffrn_ambient_pressure         23500000
_diffrn_ambient_temperature      293
_diffrn_detector                 'MAR555 flatpanel detector'
_diffrn_measured_fraction_theta_full 0.86
_diffrn_measured_fraction_theta_max 0.52
_diffrn_measurement_device
;
customized omega-circle diffractometer
;
_diffrn_measurement_device_type  'ESRF, beamline ID09A diffractometer'
_diffrn_measurement_method       '\w scans'
_diffrn_radiation_monochromator  synchrotron
_diffrn_radiation_probe          x-ray
_diffrn_radiation_source         synchrotron
_diffrn_radiation_type           synchrotron
_diffrn_radiation_wavelength     0.41441
_diffrn_reflns_av_R_equivalents  0.0516
_diffrn_reflns_av_unetI/netI     0.0281
_diffrn_reflns_limit_h_max       17
_diffrn_reflns_limit_h_min       -17
_diffrn_reflns_limit_k_max       15
_diffrn_reflns_limit_k_min       -15
_diffrn_reflns_limit_l_max       3
_diffrn_reflns_limit_l_min       -3
_diffrn_reflns_number            2982
_diffrn_reflns_theta_full        13.31
_diffrn_reflns_theta_max         19.4
_diffrn_reflns_theta_min         1.84
_diffrn_source                   synchrotron
_exptl_absorpt_coefficient_mu    2.416
_exptl_absorpt_correction_T_max  1.00000
_exptl_absorpt_correction_T_min  0.48281
_exptl_absorpt_correction_type   multi-scan
_exptl_absorpt_process_details
;
CrysAlisPro, Agilent Technologies,
Version 1.171.37.35 (release 13-08-2014 CrysAlis171 .NET)
(compiled Aug 13 2014,18:06:01)
Empirical absorption correction using spherical harmonics,
 implemented in SCALE3 ABSPACK scaling algorithm.
;
_exptl_crystal_colour            black
_exptl_crystal_density_diffrn    5.14
_exptl_crystal_description       plate
_exptl_crystal_F_000             696
_exptl_crystal_size_max          0.025
_exptl_crystal_size_mid          0.025
_exptl_crystal_size_min          0.005
_refine_diff_density_max         1.10
_refine_diff_density_min         -1.15
_refine_ls_extinction_method     none
_refine_ls_goodness_of_fit_gt    2.23
_refine_ls_goodness_of_fit_ref   2.13
_refine_ls_number_constraints    0
_refine_ls_number_parameters     67
_refine_ls_number_reflns         634
_refine_ls_number_restraints     0
_refine_ls_R_factor_all          0.0457
_refine_ls_R_factor_gt           0.0404
_refine_ls_shift/su_max          0.0001
_refine_ls_shift/su_mean         0.0000
_refine_ls_structure_factor_coef Fsqd
_refine_ls_weighting_details     w=1/(\s^2^(I)+0.0004I^2^)
_refine_ls_weighting_scheme      sigma
_refine_ls_wR_factor_gt          0.0918
_refine_ls_wR_factor_ref         0.0949
_reflns_number_gt                552
_reflns_number_total             634
_reflns_threshold_expression     I>2\s(I)
_cod_data_source_file            Fe2B7_23.5GPa.cif
_cod_data_source_block           Fe2B7_23.5GPa
_cod_depositor_comments
;
The following automatic conversions were performed:

data item '_diffrn_radiation_probe' value 'X-ray' was changed to
'x-ray' in accordance with the built-in table derived from the CIF
Core dictionary named 'cif_core.dic' version 2.4.5 last updated on
2014-11-21.

Automatic conversion script
Id: cif_fix_values 8369 2020-08-20 11:38:08Z andrius 
;
_cod_database_code               1561761
loop_
_symmetry_equiv_pos_site_id
_symmetry_equiv_pos_as_xyz
1 x,y,z
2 -x,-y,z
3 -x+1/2,y+1/2,-z
4 x+1/2,-y+1/2,-z
5 -x,-y,-z
6 x,y,-z
7 x+1/2,-y+1/2,z
8 -x+1/2,y+1/2,z
loop_
_atom_site_label
_atom_site_type_symbol
_atom_site_fract_x
_atom_site_fract_y
_atom_site_fract_z
_atom_site_adp_type
_atom_site_U_iso_or_equiv
_atom_site_site_symmetry_multiplicity
_atom_site_occupancy
_atom_site_calc_flag
_atom_site_refinement_flags
_atom_site_disorder_assembly
_atom_site_disorder_group
Fe1 Fe 0.22100(8) 0.46725(8) 0.5 Uani 0.0074(4) 4 1 d . . .
Fe2 Fe 0.12116(8) 0.17875(8) 0 Uani 0.0067(4) 4 1 d . . .
Fe3 Fe 0.46471(8) 0.10574(8) 0.5 Uani 0.0069(4) 4 1 d . . .
Fe4 Fe 0.38970(8) 0.26646(8) 0 Uani 0.0064(3) 4 1 d . . .
B1 B 0.3679(6) 0.0497(6) 0 Uiso 0.0037(12) 4 1 d . . .
B2 B 0.0481(6) 0.4609(6) 0 Uiso 0.0053(13) 4 1 d . . .
B3 B 0.3027(6) 0.3916(6) 0 Uiso 0.0068(14) 4 1 d . . .
B4 B 0.1395(6) 0.3754(6) 0 Uiso 0.0035(12) 4 1 d . . .
B5 B 0.4437(6) 0.4028(6) 0.5 Uiso 0.0052(13) 4 1 d . . .
B6 B 0.2007(6) 0.0449(6) 0 Uiso 0.0063(13) 4 1 d . . .
B7 B 0.2896(6) 0.2879(6) 0.5 Uiso 0.0069(14) 4 1 d . . .
B8 B 0.0337(6) 0.3045(6) 0 Uiso 0.0066(14) 4 1 d . . .
B9 B 0.3972(6) 0.4761(6) 0 Uiso 0.0034(13) 4 1 d . . .
B10 B 0.0544(6) 0.0591(6) 0.5 Uiso 0.0056(13) 4 1 d . . .
B11 B 0.0170(6) 0.2110(6) 0.5 Uiso 0.0049(13) 4 1 d . . .
B12 B 0.3387(6) 0.1382(6) 0.5 Uiso 0.0049(13) 4 1 d . . .
B13 B 0.2196(6) 0.1441(6) 0.5 Uiso 0.0063(14) 4 1 d . . .
B14 B 0.1792(6) 0.2919(7) 0.5 Uiso 0.0103(15) 4 1 d . . .
loop_
_atom_site_aniso_label
_atom_site_aniso_type_symbol
_atom_site_aniso_U_11
_atom_site_aniso_U_22
_atom_site_aniso_U_33
_atom_site_aniso_U_12
_atom_site_aniso_U_13
_atom_site_aniso_U_23
Fe1 Fe 0.0106(9) 0.0025(4) 0.0089(5) 0.0001(4) 0 0
Fe2 Fe 0.0104(9) 0.0038(4) 0.0060(5) 0.0004(4) 0 0
Fe3 Fe 0.0114(9) 0.0041(4) 0.0051(5) 0.0002(4) 0 0
Fe4 Fe 0.0102(9) 0.0041(4) 0.0050(5) 0.0000(4) 0 0
loop_
_atom_type_symbol
_atom_type_scat_dispersion_real
_atom_type_scat_dispersion_imag
_atom_type_scat_source
B -0.0003 0.0002 'International Tables Vol C tables 4.2.6.8 and 6.1.1.1'
Fe 0.1991 0.3104 'International Tables Vol C tables 4.2.6.8 and 6.1.1.1'
loop_
_geom_angle_atom_site_label_1
_geom_angle_atom_site_label_2
_geom_angle_atom_site_label_3
_geom_angle_site_symmetry_1
_geom_angle_site_symmetry_2
_geom_angle_site_symmetry_3
_geom_angle
Fe1 Fe1 Fe1 1_554 . 1_556 180.0(5)
Fe1 Fe1 B1 1_554 . 3_555 50.42(15)
Fe1 Fe1 B1 1_554 . 3_556 129.58(15)
Fe1 Fe1 B3 1_554 . . 48.00(18)
Fe1 Fe1 B3 1_554 . 1_556 132.00(18)
Fe1 Fe1 B4 1_554 . . 49.60(15)
Fe1 Fe1 B4 1_554 . 1_556 130.40(16)
Fe1 Fe1 B6 1_554 . 3_555 47.32(18)
Fe1 Fe1 B6 1_554 . 3_556 132.68(18)
Fe1 Fe1 B7 1_554 . . 90.00(3)
Fe1 Fe1 B12 1_554 . 3_556 90.00(3)
Fe1 Fe1 B13 1_554 . 3_556 90.00(3)
Fe1 Fe1 B14 1_554 . . 90.00(3)
Fe1 Fe1 B1 1_556 . 3_555 129.58(15)
Fe1 Fe1 B1 1_556 . 3_556 50.42(15)
Fe1 Fe1 B3 1_556 . . 132.00(18)
Fe1 Fe1 B3 1_556 . 1_556 48.00(18)
Fe1 Fe1 B4 1_556 . . 130.40(16)
Fe1 Fe1 B4 1_556 . 1_556 49.60(15)
Fe1 Fe1 B6 1_556 . 3_555 132.68(18)
Fe1 Fe1 B6 1_556 . 3_556 47.32(18)
Fe1 Fe1 B7 1_556 . . 90.00(3)
Fe1 Fe1 B12 1_556 . 3_556 90.00(3)
Fe1 Fe1 B13 1_556 . 3_556 90.00(3)
Fe1 Fe1 B14 1_556 . . 90.00(3)
B1 Fe1 B1 3_555 . 3_556 79.2(2)
B1 Fe1 B3 3_555 . . 98.4(2)
B1 Fe1 B3 3_555 . 1_556 177.6(2)
B1 Fe1 B4 3_555 . . 49.5(2)
B1 Fe1 B4 3_555 . 1_556 100.2(3)
B1 Fe1 B6 3_555 . 3_555 80.0(3)
B1 Fe1 B6 3_555 . 3_556 133.7(3)
B1 Fe1 B7 3_555 . . 132.67(18)
B1 Fe1 B12 3_555 . 3_556 48.50(19)
B1 Fe1 B13 3_555 . 3_556 87.9(3)
B1 Fe1 B14 3_555 . . 97.7(3)
B1 Fe1 B3 3_556 . . 177.6(2)
B1 Fe1 B3 3_556 . 1_556 98.4(2)
B1 Fe1 B4 3_556 . . 100.2(3)
B1 Fe1 B4 3_556 . 1_556 49.5(2)
B1 Fe1 B6 3_556 . 3_555 133.7(3)
B1 Fe1 B6 3_556 . 3_556 80.0(3)
B1 Fe1 B7 3_556 . . 132.67(18)
B1 Fe1 B12 3_556 . 3_556 48.50(19)
B1 Fe1 B13 3_556 . 3_556 87.9(3)
B1 Fe1 B14 3_556 . . 97.7(3)
B3 Fe1 B3 . . 1_556 84.0(3)
B3 Fe1 B4 . . . 78.1(3)
B3 Fe1 B4 . . 1_556 131.4(2)
B3 Fe1 B6 . . 3_555 45.3(3)
B3 Fe1 B6 . . 3_556 101.8(3)
B3 Fe1 B7 . . . 49.21(19)
B3 Fe1 B12 . . 3_556 129.7(2)
B3 Fe1 B13 . . 3_556 92.0(3)
B3 Fe1 B14 . . . 82.6(3)
B3 Fe1 B4 1_556 . . 131.4(2)
B3 Fe1 B4 1_556 . 1_556 78.1(3)
B3 Fe1 B6 1_556 . 3_555 101.8(3)
B3 Fe1 B6 1_556 . 3_556 45.3(3)
B3 Fe1 B7 1_556 . . 49.21(19)
B3 Fe1 B12 1_556 . 3_556 129.7(2)
B3 Fe1 B13 1_556 . 3_556 92.0(3)
B3 Fe1 B14 1_556 . . 82.6(3)
B4 Fe1 B4 . . 1_556 80.8(2)
B4 Fe1 B6 . . 3_555 96.9(2)
B4 Fe1 B6 . . 3_556 176.6(2)
B4 Fe1 B7 . . . 86.4(3)
B4 Fe1 B12 . . 3_556 95.3(3)
B4 Fe1 B13 . . 3_556 132.96(18)
B4 Fe1 B14 . . . 50.7(2)
B4 Fe1 B6 1_556 . 3_555 176.6(2)
B4 Fe1 B6 1_556 . 3_556 96.9(2)
B4 Fe1 B7 1_556 . . 86.4(3)
B4 Fe1 B12 1_556 . 3_556 95.3(3)
B4 Fe1 B13 1_556 . 3_556 132.96(18)
B4 Fe1 B14 1_556 . . 50.7(2)
B6 Fe1 B6 3_555 . 3_556 85.4(3)
B6 Fe1 B7 3_555 . . 91.0(3)
B6 Fe1 B12 3_555 . 3_556 87.4(3)
B6 Fe1 B13 3_555 . 3_556 50.41(19)
B6 Fe1 B14 3_555 . . 125.9(2)
B6 Fe1 B7 3_556 . . 91.0(3)
B6 Fe1 B12 3_556 . 3_556 87.4(3)
B6 Fe1 B13 3_556 . 3_556 50.41(19)
B6 Fe1 B14 3_556 . . 125.9(2)
B7 Fe1 B12 . . 3_556 177.7(4)
B7 Fe1 B13 . . 3_556 121.2(4)
B7 Fe1 B14 . . . 51.5(4)
B12 Fe1 B13 3_556 . 3_556 56.5(4)
B12 Fe1 B14 3_556 . . 130.8(4)
B13 Fe1 B14 3_556 . . 172.7(4)
Fe2 Fe2 Fe2 1_554 . 1_556 180.0(5)
Fe2 Fe2 B4 1_554 . . 90.00(2)
Fe2 Fe2 B6 1_554 . . 90.00(3)
Fe2 Fe2 B8 1_554 . . 90.00(3)
Fe2 Fe2 B9 1_554 . 3_545 90.00(2)
Fe2 Fe2 B10 1_554 . 1_554 49.87(14)
Fe2 Fe2 B10 1_554 . . 130.13(15)
Fe2 Fe2 B11 1_554 . 1_554 51.19(16)
Fe2 Fe2 B11 1_554 . . 128.81(17)
Fe2 Fe2 B13 1_554 . 1_554 49.76(17)
Fe2 Fe2 B13 1_554 . . 130.24(17)
Fe2 Fe2 B14 1_554 . 1_554 47.30(17)
Fe2 Fe2 B14 1_554 . . 132.70(17)
Fe2 Fe2 B4 1_556 . . 90.00(2)
Fe2 Fe2 B6 1_556 . . 90.00(3)
Fe2 Fe2 B8 1_556 . . 90.00(3)
Fe2 Fe2 B9 1_556 . 3_545 90.00(2)
Fe2 Fe2 B10 1_556 . 1_554 130.13(15)
Fe2 Fe2 B10 1_556 . . 49.87(14)
Fe2 Fe2 B11 1_556 . 1_554 128.81(17)
Fe2 Fe2 B11 1_556 . . 51.19(16)
Fe2 Fe2 B13 1_556 . 1_554 130.24(17)
Fe2 Fe2 B13 1_556 . . 49.76(17)
Fe2 Fe2 B14 1_556 . 1_554 132.70(17)
Fe2 Fe2 B14 1_556 . . 47.30(17)
B4 Fe2 B6 . . . 128.7(4)
B4 Fe2 B8 . . . 55.8(4)
B4 Fe2 B9 . . 3_545 179.7(4)
B4 Fe2 B10 . . 1_554 129.9(2)
B4 Fe2 B10 . . . 129.9(2)
B4 Fe2 B11 . . 1_554 87.8(3)
B4 Fe2 B11 . . . 87.8(3)
B4 Fe2 B13 . . 1_554 93.3(3)
B4 Fe2 B13 . . . 93.3(3)
B4 Fe2 B14 . . 1_554 50.7(2)
B4 Fe2 B14 . . . 50.7(2)
B6 Fe2 B8 . . . 175.5(4)
B6 Fe2 B9 . . 3_545 51.1(4)
B6 Fe2 B10 . . 1_554 85.6(3)
B6 Fe2 B10 . . . 85.6(3)
B6 Fe2 B11 . . 1_554 129.2(2)
B6 Fe2 B11 . . . 129.2(2)
B6 Fe2 B13 . . 1_554 50.9(2)
B6 Fe2 B13 . . . 50.9(2)
B6 Fe2 B14 . . 1_554 96.0(3)
B6 Fe2 B14 . . . 96.0(3)
B8 Fe2 B9 . . 3_545 124.4(4)
B8 Fe2 B10 . . 1_554 91.0(3)
B8 Fe2 B10 . . . 91.0(3)
B8 Fe2 B11 . . 1_554 48.3(2)
B8 Fe2 B11 . . . 48.3(2)
B8 Fe2 B13 . . 1_554 131.5(2)
B8 Fe2 B13 . . . 131.5(2)
B8 Fe2 B14 . . 1_554 87.3(3)
B8 Fe2 B14 . . . 87.3(3)
B9 Fe2 B10 3_545 . 1_554 50.2(2)
B9 Fe2 B10 3_545 . . 50.2(2)
B9 Fe2 B11 3_545 . 1_554 92.4(3)
B9 Fe2 B11 3_545 . . 92.4(3)
B9 Fe2 B13 3_545 . 1_554 86.5(3)
B9 Fe2 B13 3_545 . . 86.5(3)
B9 Fe2 B14 3_545 . 1_554 129.2(2)
B9 Fe2 B14 3_545 . . 129.2(2)
B10 Fe2 B10 1_554 . . 80.3(2)
B10 Fe2 B11 1_554 . 1_554 45.4(3)
B10 Fe2 B11 1_554 . . 96.1(3)
B10 Fe2 B13 1_554 . 1_554 82.1(3)
B10 Fe2 B13 1_554 . . 134.1(3)
B10 Fe2 B14 1_554 . 1_554 97.1(2)
B10 Fe2 B14 1_554 . . 176.9(3)
B10 Fe2 B11 . . 1_554 96.1(3)
B10 Fe2 B11 . . . 45.4(3)
B10 Fe2 B13 . . 1_554 134.1(3)
B10 Fe2 B13 . . . 82.1(3)
B10 Fe2 B14 . . 1_554 176.9(3)
B10 Fe2 B14 . . . 97.1(2)
B11 Fe2 B11 1_554 . . 77.6(2)
B11 Fe2 B13 1_554 . 1_554 100.9(2)
B11 Fe2 B13 1_554 . . 178.2(3)
B11 Fe2 B14 1_554 . 1_554 80.8(3)
B11 Fe2 B14 1_554 . . 133.7(3)
B11 Fe2 B13 . . 1_554 178.2(3)
B11 Fe2 B13 . . . 100.9(2)
B11 Fe2 B14 . . 1_554 133.7(3)
B11 Fe2 B14 . . . 80.8(3)
B13 Fe2 B13 1_554 . . 80.5(2)
B13 Fe2 B14 1_554 . 1_554 46.7(3)
B13 Fe2 B14 1_554 . . 101.0(3)
B13 Fe2 B14 . . 1_554 101.0(3)
B13 Fe2 B14 . . . 46.7(3)
B14 Fe2 B14 1_554 . . 85.4(2)
Fe3 Fe3 Fe3 1_554 . 1_556 180.0(5)
Fe3 Fe3 Fe3 1_554 . 2_655 90.00(3)
Fe3 Fe3 Fe4 1_554 . . 56.07(3)
Fe3 Fe3 Fe4 1_554 . 1_556 123.93(4)
Fe3 Fe3 B1 1_554 . . 50.38(15)
Fe3 Fe3 B1 1_554 . 1_556 129.62(16)
Fe3 Fe3 B2 1_554 . 3_545 47.49(12)
Fe3 Fe3 B2 1_554 . 3_546 132.51(12)
Fe3 Fe3 B2 1_554 . 4_555 47.62(17)
Fe3 Fe3 B2 1_554 . 4_556 132.38(18)
Fe3 Fe3 B8 1_554 . 4_555 46.38(18)
Fe3 Fe3 B8 1_554 . 4_556 133.62(18)
Fe3 Fe3 B11 1_554 . 4_556 90.00(3)
Fe3 Fe3 B12 1_554 . . 90.00(4)
Fe3 Fe3 Fe3 1_556 . 2_655 90.00(3)
Fe3 Fe3 Fe4 1_556 . . 123.93(4)
Fe3 Fe3 Fe4 1_556 . 1_556 56.07(3)
Fe3 Fe3 B1 1_556 . . 129.62(16)
Fe3 Fe3 B1 1_556 . 1_556 50.38(15)
Fe3 Fe3 B2 1_556 . 3_545 132.51(12)
Fe3 Fe3 B2 1_556 . 3_546 47.49(12)
Fe3 Fe3 B2 1_556 . 4_555 132.38(18)
Fe3 Fe3 B2 1_556 . 4_556 47.62(17)
Fe3 Fe3 B8 1_556 . 4_555 133.62(18)
Fe3 Fe3 B8 1_556 . 4_556 46.38(18)
Fe3 Fe3 B11 1_556 . 4_556 90.00(3)
Fe3 Fe3 B12 1_556 . . 90.00(4)
Fe3 Fe3 Fe4 2_655 . . 145.127(18)
Fe3 Fe3 Fe4 2_655 . 1_556 145.127(18)
Fe3 Fe3 B1 2_655 . . 95.69(18)
Fe3 Fe3 B1 2_655 . 1_556 95.69(18)
Fe3 Fe3 B2 2_655 . 3_545 53.1(2)
Fe3 Fe3 B2 2_655 . 3_546 53.1(2)
Fe3 Fe3 B2 2_655 . 4_555 52.96(15)
Fe3 Fe3 B2 2_655 . 4_556 52.96(15)
Fe3 Fe3 B8 2_655 . 4_555 98.7(2)
Fe3 Fe3 B8 2_655 . 4_556 98.7(2)
Fe3 Fe3 B11 2_655 . 4_556 128.2(3)
Fe3 Fe3 B12 2_655 . . 126.95(18)
Fe4 Fe3 Fe4 . . 1_556 67.86(3)
Fe4 Fe3 B1 . . . 57.87(16)
Fe4 Fe3 B1 . . 1_556 100.37(19)
Fe4 Fe3 B2 . . 3_545 93.55(17)
Fe4 Fe3 B2 . . 3_546 144.7(3)
Fe4 Fe3 B2 . . 4_555 99.84(15)
Fe4 Fe3 B2 . . 4_556 157.42(19)
Fe4 Fe3 B8 . . 4_555 65.1(3)
Fe4 Fe3 B8 . . 4_556 110.43(19)
Fe4 Fe3 B11 . . 4_556 65.8(2)
Fe4 Fe3 B12 . . . 53.69(13)
Fe4 Fe3 B1 1_556 . . 100.37(19)
Fe4 Fe3 B1 1_556 . 1_556 57.87(16)
Fe4 Fe3 B2 1_556 . 3_545 144.7(3)
Fe4 Fe3 B2 1_556 . 3_546 93.55(17)
Fe4 Fe3 B2 1_556 . 4_555 157.42(19)
Fe4 Fe3 B2 1_556 . 4_556 99.84(15)
Fe4 Fe3 B8 1_556 . 4_555 110.43(19)
Fe4 Fe3 B8 1_556 . 4_556 65.1(3)
Fe4 Fe3 B11 1_556 . 4_556 65.8(2)
Fe4 Fe3 B12 1_556 . . 53.69(13)
B1 Fe3 B1 . . 1_556 79.2(2)
B1 Fe3 B2 . . 3_545 45.7(3)
B1 Fe3 B2 . . 3_546 99.4(3)
B1 Fe3 B2 . . 4_555 87.5(3)
B1 Fe3 B2 . . 4_556 144.7(2)
B1 Fe3 B8 . . 4_555 94.9(2)
B1 Fe3 B8 . . 4_556 165.0(3)
B1 Fe3 B11 . . 4_556 122.6(2)
B1 Fe3 B12 . . . 47.9(2)
B1 Fe3 B2 1_556 . 3_545 99.4(3)
B1 Fe3 B2 1_556 . 3_546 45.7(3)
B1 Fe3 B2 1_556 . 4_555 144.7(2)
B1 Fe3 B2 1_556 . 4_556 87.5(3)
B1 Fe3 B8 1_556 . 4_555 165.0(3)
B1 Fe3 B8 1_556 . 4_556 94.9(2)
B1 Fe3 B11 1_556 . 4_556 122.6(2)
B1 Fe3 B12 1_556 . . 47.9(2)
B2 Fe3 B2 3_545 . 3_546 85.01(17)
B2 Fe3 B2 3_545 . 4_555 50.7(3)
B2 Fe3 B2 3_545 . 4_556 106.1(3)
B2 Fe3 B8 3_545 . 4_555 85.9(2)
B2 Fe3 B8 3_545 . 4_556 149.3(4)
B2 Fe3 B11 3_545 . 4_556 135.06(18)
B2 Fe3 B12 3_545 . . 91.0(3)
B2 Fe3 B2 3_546 . 4_555 106.1(3)
B2 Fe3 B2 3_546 . 4_556 50.7(3)
B2 Fe3 B8 3_546 . 4_555 149.3(4)
B2 Fe3 B8 3_546 . 4_556 85.9(2)
B2 Fe3 B11 3_546 . 4_556 135.06(18)
B2 Fe3 B12 3_546 . . 91.0(3)
B2 Fe3 B2 4_555 . 4_556 84.8(2)
B2 Fe3 B8 4_555 . 4_555 47.4(3)
B2 Fe3 B8 4_555 . 4_556 104.7(3)
B2 Fe3 B11 4_555 . 4_556 92.1(3)
B2 Fe3 B12 4_555 . . 134.7(2)
B2 Fe3 B8 4_556 . 4_555 104.7(3)
B2 Fe3 B8 4_556 . 4_556 47.4(3)
B2 Fe3 B11 4_556 . 4_556 92.1(3)
B2 Fe3 B12 4_556 . . 134.7(2)
B8 Fe3 B8 4_555 . 4_556 87.2(3)
B8 Fe3 B11 4_555 . 4_556 49.50(19)
B8 Fe3 B12 4_555 . . 118.4(3)
B8 Fe3 B11 4_556 . 4_556 49.50(19)
B8 Fe3 B12 4_556 . . 118.4(3)
B11 Fe3 B12 4_556 . . 104.8(3)
Fe3 Fe4 Fe3 1_554 . . 67.86(3)
Fe3 Fe4 Fe4 1_554 . 1_554 56.07(3)
Fe3 Fe4 Fe4 1_554 . 1_556 123.93(4)
Fe3 Fe4 B1 1_554 . . 54.21(17)
Fe3 Fe4 B3 1_554 . . 144.46(8)
Fe3 Fe4 B5 1_554 . 1_554 83.10(17)
Fe3 Fe4 B5 1_554 . . 126.5(2)
Fe3 Fe4 B7 1_554 . 1_554 94.58(17)
Fe3 Fe4 B7 1_554 . . 143.19(19)
Fe3 Fe4 B9 1_554 . . 129.86(18)
Fe3 Fe4 B12 1_554 . 1_554 53.1(3)
Fe3 Fe4 B12 1_554 . . 98.03(18)
Fe3 Fe4 Fe4 . . 1_554 123.93(4)
Fe3 Fe4 Fe4 . . 1_556 56.07(3)
Fe3 Fe4 B1 . . . 54.21(17)
Fe3 Fe4 B3 . . . 144.46(8)
Fe3 Fe4 B5 . . 1_554 126.5(2)
Fe3 Fe4 B5 . . . 83.10(17)
Fe3 Fe4 B7 . . 1_554 143.19(19)
Fe3 Fe4 B7 . . . 94.58(17)
Fe3 Fe4 B9 . . . 129.86(18)
Fe3 Fe4 B12 . . 1_554 98.03(18)
Fe3 Fe4 B12 . . . 53.1(3)
Fe4 Fe4 Fe4 1_554 . 1_556 180.0(5)
Fe4 Fe4 B1 1_554 . . 90.00(2)
Fe4 Fe4 B3 1_554 . . 90.00(3)
Fe4 Fe4 B5 1_554 . 1_554 50.15(12)
Fe4 Fe4 B5 1_554 . . 129.85(13)
Fe4 Fe4 B7 1_554 . 1_554 49.78(17)
Fe4 Fe4 B7 1_554 . . 130.22(18)
Fe4 Fe4 B9 1_554 . . 90.00(2)
Fe4 Fe4 B12 1_554 . 1_554 48.45(13)
Fe4 Fe4 B12 1_554 . . 131.55(14)
Fe4 Fe4 B1 1_556 . . 90.00(2)
Fe4 Fe4 B3 1_556 . . 90.00(3)
Fe4 Fe4 B5 1_556 . 1_554 129.85(13)
Fe4 Fe4 B5 1_556 . . 50.15(12)
Fe4 Fe4 B7 1_556 . 1_554 130.22(18)
Fe4 Fe4 B7 1_556 . . 49.78(17)
Fe4 Fe4 B9 1_556 . . 90.00(2)
Fe4 Fe4 B12 1_556 . 1_554 131.55(14)
Fe4 Fe4 B12 1_556 . . 48.45(13)
B1 Fe4 B3 . . . 123.5(3)
B1 Fe4 B5 . . 1_554 135.00(16)
B1 Fe4 B5 . . . 135.00(16)
B1 Fe4 B7 . . 1_554 89.1(3)
B1 Fe4 B7 . . . 89.1(3)
B1 Fe4 B9 . . . 174.2(4)
B1 Fe4 B12 . . 1_554 46.46(17)
B1 Fe4 B12 . . . 46.46(17)
B3 Fe4 B5 . . 1_554 81.9(3)
B3 Fe4 B5 . . . 81.9(3)
B3 Fe4 B7 . . 1_554 51.1(2)
B3 Fe4 B7 . . . 51.1(2)
B3 Fe4 B9 . . . 50.7(4)
B3 Fe4 B12 . . 1_554 97.9(3)
B3 Fe4 B12 . . . 97.9(3)
B5 Fe4 B5 1_554 . . 79.70(18)
B5 Fe4 B7 1_554 . 1_554 80.0(3)
B5 Fe4 B7 1_554 . . 130.8(3)
B5 Fe4 B9 1_554 . . 47.66(19)
B5 Fe4 B12 1_554 . 1_554 98.61(18)
B5 Fe4 B12 1_554 . . 178.30(18)
B5 Fe4 B7 . . 1_554 130.8(3)
B5 Fe4 B7 . . . 80.0(3)
B5 Fe4 B9 . . . 47.66(19)
B5 Fe4 B12 . . 1_554 178.30(18)
B5 Fe4 B12 . . . 98.61(18)
B7 Fe4 B7 1_554 . . 80.4(2)
B7 Fe4 B9 1_554 . . 86.5(3)
B7 Fe4 B12 1_554 . 1_554 48.5(3)
B7 Fe4 B12 1_554 . . 101.2(3)
B7 Fe4 B9 . . . 86.5(3)
B7 Fe4 B12 . . 1_554 101.2(3)
B7 Fe4 B12 . . . 48.5(3)
B9 Fe4 B12 . . 1_554 131.0(2)
B9 Fe4 B12 . . . 131.0(2)
B12 Fe4 B12 1_554 . . 83.09(19)
Fe1 B1 Fe1 3_545 . 3_546 79.2(3)
Fe1 B1 Fe3 3_545 . 1_554 100.24(4)
Fe1 B1 Fe3 3_545 . . 172.1(4)
Fe1 B1 Fe4 3_545 . . 119.4(3)
Fe1 B1 B2 3_545 . 3_545 109.3(3)
Fe1 B1 B4 3_545 . 3_545 64.2(3)
Fe1 B1 B12 3_545 . 1_554 60.9(3)
Fe1 B1 B12 3_545 . . 122.4(6)
Fe1 B1 Fe3 3_546 . 1_554 172.1(4)
Fe1 B1 Fe3 3_546 . . 100.24(4)
Fe1 B1 Fe4 3_546 . . 119.4(3)
Fe1 B1 B2 3_546 . 3_545 109.3(3)
Fe1 B1 B4 3_546 . 3_545 64.2(3)
Fe1 B1 B12 3_546 . 1_554 122.4(6)
Fe1 B1 B12 3_546 . . 60.9(3)
Fe3 B1 Fe3 1_554 . . 79.2(3)
Fe3 B1 Fe4 1_554 . . 67.9(2)
Fe3 B1 B2 1_554 . 3_545 63.2(3)
Fe3 B1 B4 1_554 . 3_545 108.3(4)
Fe3 B1 B12 1_554 . 1_554 63.0(3)
Fe3 B1 B12 1_554 . . 124.7(5)
Fe3 B1 Fe4 . . . 67.9(2)
Fe3 B1 B2 . . 3_545 63.2(3)
Fe3 B1 B4 . . 3_545 108.3(4)
Fe3 B1 B12 . . 1_554 124.7(5)
Fe3 B1 B12 . . . 63.0(3)
Fe4 B1 B2 . . 3_545 115.0(5)
Fe4 B1 B4 . . 3_545 174.9(6)
Fe4 B1 B12 . . 1_554 61.3(3)
Fe4 B1 B12 . . . 61.3(3)
B2 B1 B4 3_545 . 3_545 59.9(5)
B2 B1 B12 3_545 . 1_554 121.6(4)
B2 B1 B12 3_545 . . 121.6(4)
B4 B1 B12 3_545 . 1_554 120.7(3)
B4 B1 B12 3_545 . . 120.7(3)
B12 B1 B12 1_554 . . 106.7(5)
Fe3 B2 Fe3 3_555 . 3_556 85.0(2)
Fe3 B2 Fe3 3_555 . 4_455 73.89(17)
Fe3 B2 Fe3 3_555 . 4_456 129.3(5)
Fe3 B2 B1 3_555 . 3_555 71.1(3)
Fe3 B2 B2 3_555 . 2_565 64.8(3)
Fe3 B2 B4 3_555 . . 117.5(4)
Fe3 B2 B8 3_555 . . 135.1(2)
Fe3 B2 Fe3 3_556 . 4_455 129.3(5)
Fe3 B2 Fe3 3_556 . 4_456 73.89(17)
Fe3 B2 B1 3_556 . 3_555 71.1(3)
Fe3 B2 B2 3_556 . 2_565 64.8(3)
Fe3 B2 B4 3_556 . . 117.5(4)
Fe3 B2 B8 3_556 . . 135.1(2)
Fe3 B2 Fe3 4_455 . 4_456 84.8(3)
Fe3 B2 B1 4_455 . 3_555 137.15(16)
Fe3 B2 B2 4_455 . 2_565 64.5(3)
Fe3 B2 B4 4_455 . . 113.2(3)
Fe3 B2 B8 4_455 . . 64.8(3)
Fe3 B2 B1 4_456 . 3_555 137.15(16)
Fe3 B2 B2 4_456 . 2_565 64.5(3)
Fe3 B2 B4 4_456 . . 113.2(3)
Fe3 B2 B8 4_456 . . 64.8(3)
B1 B2 B2 3_555 . 2_565 118.7(5)
B1 B2 B4 3_555 . . 64.8(5)
B1 B2 B8 3_555 . . 132.2(7)
B2 B2 B4 2_565 . . 176.6(6)
B2 B2 B8 2_565 . . 109.1(7)
B4 B2 B8 . . . 67.4(5)
Fe1 B3 Fe1 1_554 . . 84.0(4)
Fe1 B3 Fe4 1_554 . . 136.64(15)
Fe1 B3 B6 1_554 . 3_555 66.4(4)
Fe1 B3 B7 1_554 . 1_554 68.1(3)
Fe1 B3 B7 1_554 . . 132.7(6)
Fe1 B3 B9 1_554 . . 111.7(3)
Fe1 B3 Fe4 . . . 136.64(15)
Fe1 B3 B6 . . 3_555 66.4(4)
Fe1 B3 B7 . . 1_554 132.7(6)
Fe1 B3 B7 . . . 68.1(3)
Fe1 B3 B9 . . . 111.7(3)
Fe4 B3 B6 . . 3_555 134.5(7)
Fe4 B3 B7 . . 1_554 71.2(4)
Fe4 B3 B7 . . . 71.2(4)
Fe4 B3 B9 . . . 72.2(4)
B6 B3 B7 3_555 . 1_554 127.1(3)
B6 B3 B7 3_555 . . 127.1(3)
B6 B3 B9 3_555 . . 62.3(5)
B7 B3 B7 1_554 . . 103.5(4)
B7 B3 B9 1_554 . . 113.9(5)
B7 B3 B9 . . . 113.9(5)
Fe1 B4 Fe1 1_554 . . 80.8(3)
Fe1 B4 Fe2 1_554 . . 122.0(3)
Fe1 B4 B1 1_554 . 3_555 66.3(3)
Fe1 B4 B2 1_554 . . 107.7(3)
Fe1 B4 B14 1_554 . 1_554 58.6(3)
Fe1 B4 B14 1_554 . . 120.2(6)
Fe1 B4 Fe2 . . . 122.0(3)
Fe1 B4 B1 . . 3_555 66.3(3)
Fe1 B4 B2 . . . 107.7(3)
Fe1 B4 B14 . . 1_554 120.2(6)
Fe1 B4 B14 . . . 58.6(3)
Fe2 B4 B1 . . 3_555 167.9(6)
Fe2 B4 B2 . . . 112.5(5)
Fe2 B4 B14 . . 1_554 64.3(3)
Fe2 B4 B14 . . . 64.3(3)
B1 B4 B2 3_555 . . 55.4(4)
B1 B4 B14 3_555 . 1_554 121.0(3)
B1 B4 B14 3_555 . . 121.0(3)
B2 B4 B14 . . 1_554 124.6(4)
B2 B4 B14 . . . 124.6(4)
B14 B4 B14 1_554 . . 104.3(5)
Fe4 B5 Fe4 . . 1_556 79.7(2)
Fe4 B5 B9 . . . 66.4(3)
Fe4 B5 B9 . . 1_556 127.9(6)
Fe4 B5 B10 . . 3_556 131.2(3)
Fe4 B5 B11 . . 4_556 80.2(3)
Fe4 B5 B9 1_556 . . 127.9(6)
Fe4 B5 B9 1_556 . 1_556 66.4(3)
Fe4 B5 B10 1_556 . 3_556 131.2(3)
Fe4 B5 B11 1_556 . 4_556 80.2(3)
B9 B5 B9 . . 1_556 104.6(5)
B9 B5 B10 . . 3_556 64.9(3)
B9 B5 B11 . . 4_556 127.7(3)
B9 B5 B10 1_556 . 3_556 64.9(3)
B9 B5 B11 1_556 . 4_556 127.7(3)
B10 B5 B11 3_556 . 4_556 133.7(7)
Fe1 B6 Fe1 3_545 . 3_546 85.4(4)
Fe1 B6 Fe2 3_545 . . 135.33(16)
Fe1 B6 B3 3_545 . 3_545 68.2(4)
Fe1 B6 B9 3_545 . 3_545 114.0(3)
Fe1 B6 B13 3_545 . 1_554 65.5(3)
Fe1 B6 B13 3_545 . . 131.1(6)
Fe1 B6 Fe2 3_546 . . 135.33(16)
Fe1 B6 B3 3_546 . 3_545 68.2(4)
Fe1 B6 B9 3_546 . 3_545 114.0(3)
Fe1 B6 B13 3_546 . 1_554 131.1(6)
Fe1 B6 B13 3_546 . . 65.5(3)
Fe2 B6 B3 . . 3_545 135.0(7)
Fe2 B6 B9 . . 3_545 71.1(4)
Fe2 B6 B13 . . 1_554 72.0(4)
Fe2 B6 B13 . . . 72.0(4)
B3 B6 B9 3_545 . 3_545 63.9(5)
B3 B6 B13 3_545 . 1_554 126.3(3)
B3 B6 B13 3_545 . . 126.3(3)
B9 B6 B13 3_545 . 1_554 113.5(5)
B9 B6 B13 3_545 . . 113.5(5)
B13 B6 B13 1_554 . . 104.6(4)
Fe1 B7 Fe4 . . . 118.6(3)
Fe1 B7 Fe4 . . 1_556 118.6(3)
Fe1 B7 B3 . . . 62.7(3)
Fe1 B7 B3 . . 1_556 62.7(3)
Fe1 B7 B12 . . . 176.2(6)
Fe1 B7 B14 . . . 57.7(3)
Fe4 B7 Fe4 . . 1_556 80.4(3)
Fe4 B7 B3 . . . 57.7(3)
Fe4 B7 B3 . . 1_556 118.6(6)
Fe4 B7 B12 . . . 64.0(3)
Fe4 B7 B14 . . . 139.35(18)
Fe4 B7 B3 1_556 . . 118.6(6)
Fe4 B7 B3 1_556 . 1_556 57.7(3)
Fe4 B7 B12 1_556 . . 64.0(3)
Fe4 B7 B14 1_556 . . 139.35(18)
B3 B7 B3 . . 1_556 103.5(4)
B3 B7 B12 . . . 119.0(4)
B3 B7 B14 . . . 96.1(5)
B3 B7 B12 1_556 . . 119.0(4)
B3 B7 B14 1_556 . . 96.1(5)
B12 B7 B14 . . . 118.5(6)
Fe2 B8 Fe3 . . 4_455 136.30(17)
Fe2 B8 Fe3 . . 4_456 136.30(17)
Fe2 B8 B2 . . . 124.2(7)
Fe2 B8 B11 . . 1_554 74.7(4)
Fe2 B8 B11 . . . 74.7(4)
Fe3 B8 Fe3 4_455 . 4_456 87.2(4)
Fe3 B8 B2 4_455 . . 67.8(3)
Fe3 B8 B11 4_455 . 1_554 67.3(3)
Fe3 B8 B11 4_455 . . 137.0(7)
Fe3 B8 B2 4_456 . . 67.8(3)
Fe3 B8 B11 4_456 . 1_554 137.0(7)
Fe3 B8 B11 4_456 . . 67.3(3)
B2 B8 B11 . . 1_554 125.6(3)
B2 B8 B11 . . . 125.6(3)
B11 B8 B11 1_554 . . 108.2(5)
Fe2 B9 Fe4 3_555 . . 168.7(5)
Fe2 B9 B3 3_555 . . 111.6(5)
Fe2 B9 B5 3_555 . 1_554 119.3(3)
Fe2 B9 B5 3_555 . . 119.3(3)
Fe2 B9 B6 3_555 . 3_555 57.8(3)
Fe2 B9 B10 3_555 . 3_555 65.9(3)
Fe2 B9 B10 3_555 . 3_556 65.9(3)
Fe4 B9 B3 . . . 57.1(3)
Fe4 B9 B5 . . 1_554 65.9(3)
Fe4 B9 B5 . . . 65.9(3)
Fe4 B9 B6 . . 3_555 110.9(5)
Fe4 B9 B10 . . 3_555 119.9(3)
Fe4 B9 B10 . . 3_556 119.9(3)
B3 B9 B5 . . 1_554 99.2(4)
B3 B9 B5 . . . 99.2(4)
B3 B9 B6 . . 3_555 53.8(4)
B3 B9 B10 . . 3_555 127.7(4)
B3 B9 B10 . . 3_556 127.7(4)
B5 B9 B5 1_554 . . 104.6(5)
B5 B9 B6 1_554 . 3_555 124.8(4)
B5 B9 B10 1_554 . 3_555 54.0(3)
B5 B9 B10 1_554 . 3_556 128.6(7)
B5 B9 B6 . . 3_555 124.8(4)
B5 B9 B10 . . 3_555 128.6(7)
B5 B9 B10 . . 3_556 54.0(3)
B6 B9 B10 3_555 . 3_555 101.7(4)
B6 B9 B10 3_555 . 3_556 101.7(4)
B10 B9 B10 3_555 . 3_556 100.0(5)
Fe2 B10 Fe2 . . 1_556 80.3(3)
Fe2 B10 B5 . . 3_546 124.5(4)
Fe2 B10 B9 . . 3_545 63.9(3)
Fe2 B10 B9 . . 3_546 123.2(6)
Fe2 B10 B11 . . . 69.2(3)
Fe2 B10 B5 1_556 . 3_546 124.5(4)
Fe2 B10 B9 1_556 . 3_545 123.2(6)
Fe2 B10 B9 1_556 . 3_546 63.9(3)
Fe2 B10 B11 1_556 . . 69.2(3)
B5 B10 B9 3_546 . 3_545 61.2(3)
B5 B10 B9 3_546 . 3_546 61.2(3)
B5 B10 B11 3_546 . . 159.9(8)
B9 B10 B9 3_545 . 3_546 100.0(5)
B9 B10 B11 3_545 . . 126.8(3)
B9 B10 B11 3_546 . . 126.8(3)
Fe2 B11 Fe2 . . 1_556 77.6(3)
Fe2 B11 Fe3 . . 4_456 116.8(3)
Fe2 B11 B5 . . 4_456 115.9(3)
Fe2 B11 B8 . . . 57.1(4)
Fe2 B11 B8 . . 1_556 118.2(6)
Fe2 B11 B10 . . . 65.4(3)
Fe2 B11 Fe3 1_556 . 4_456 116.8(3)
Fe2 B11 B5 1_556 . 4_456 115.9(3)
Fe2 B11 B8 1_556 . . 118.2(6)
Fe2 B11 B8 1_556 . 1_556 57.1(4)
Fe2 B11 B10 1_556 . . 65.4(3)
Fe3 B11 B5 4_456 . 4_456 110.6(6)
Fe3 B11 B8 4_456 . . 63.2(3)
Fe3 B11 B8 4_456 . 1_556 63.2(3)
Fe3 B11 B10 4_456 . . 177.0(7)
B5 B11 B8 4_456 . . 120.7(4)
B5 B11 B8 4_456 . 1_556 120.7(4)
B5 B11 B10 4_456 . . 66.4(5)
B8 B11 B8 . . 1_556 108.2(4)
B8 B11 B10 . . . 118.0(4)
B8 B11 B10 1_556 . . 118.0(4)
Fe1 B12 Fe3 3_546 . . 109.4(3)
Fe1 B12 Fe4 3_546 . . 138.35(12)
Fe1 B12 Fe4 3_546 . 1_556 138.35(12)
Fe1 B12 B1 3_546 . . 70.6(3)
Fe1 B12 B1 3_546 . 1_556 70.6(3)
Fe1 B12 B7 3_546 . . 124.1(6)
Fe3 B12 Fe4 . . . 73.2(3)
Fe3 B12 Fe4 . . 1_556 73.2(3)
Fe3 B12 B1 . . . 69.1(4)
Fe3 B12 B1 . . 1_556 69.1(4)
Fe3 B12 B7 . . . 126.5(5)
Fe4 B12 Fe4 . . 1_556 83.1(3)
Fe4 B12 B1 . . . 72.2(3)
Fe4 B12 B1 . . 1_556 139.4(6)
Fe4 B12 B7 . . . 67.4(3)
Fe4 B12 B1 1_556 . . 139.4(6)
Fe4 B12 B1 1_556 . 1_556 72.2(3)
Fe4 B12 B7 1_556 . . 67.4(3)
B1 B12 B1 . . 1_556 106.7(5)
B1 B12 B7 . . . 126.6(3)
B1 B12 B7 1_556 . . 126.6(3)
Fe1 B13 Fe2 3_546 . . 119.7(3)
Fe1 B13 Fe2 3_546 . 1_556 119.7(3)
Fe1 B13 B6 3_546 . . 64.1(3)
Fe1 B13 B6 3_546 . 1_556 64.1(3)
Fe1 B13 B14 3_546 . . 175.4(7)
Fe2 B13 Fe2 . . 1_556 80.5(3)
Fe2 B13 B6 . . . 57.1(3)
Fe2 B13 B6 . . 1_556 118.6(6)
Fe2 B13 B14 . . . 63.4(3)
Fe2 B13 B6 1_556 . . 118.6(6)
Fe2 B13 B6 1_556 . 1_556 57.1(3)
Fe2 B13 B14 1_556 . . 63.4(3)
B6 B13 B6 . . 1_556 104.6(4)
B6 B13 B14 . . . 118.0(4)
B6 B13 B14 1_556 . . 118.0(4)
Fe1 B14 Fe2 . . . 134.2(2)
Fe1 B14 Fe2 . . 1_556 134.2(2)
Fe1 B14 B4 . . . 70.6(3)
Fe1 B14 B4 . . 1_556 70.6(3)
Fe1 B14 B7 . . . 70.8(4)
Fe1 B14 B13 . . . 136.3(7)
Fe2 B14 Fe2 . . 1_556 85.4(3)
Fe2 B14 B4 . . . 65.0(3)
Fe2 B14 B4 . . 1_556 130.4(6)
Fe2 B14 B7 . . . 116.6(4)
Fe2 B14 B13 . . . 69.9(3)
Fe2 B14 B4 1_556 . . 130.4(6)
Fe2 B14 B4 1_556 . 1_556 65.0(3)
Fe2 B14 B7 1_556 . . 116.6(4)
Fe2 B14 B13 1_556 . . 69.9(3)
B4 B14 B4 . . 1_556 104.3(5)
B4 B14 B7 . . . 112.2(5)
B4 B14 B13 . . . 126.6(3)
B4 B14 B7 1_556 . . 112.2(5)
B4 B14 B13 1_556 . . 126.6(3)
B7 B14 B13 . . . 65.5(5)
loop_
_geom_bond_atom_site_label_1
_geom_bond_atom_site_label_2
_geom_bond_site_symmetry_1
_geom_bond_site_symmetry_2
_geom_bond_distance
Fe1 Fe1 . 1_554 2.8089(2)
Fe1 Fe1 . 1_556 2.8089(2)
Fe1 B1 . 3_555 2.204(7)
Fe1 B1 . 3_556 2.204(7)
Fe1 B3 . . 2.099(7)
Fe1 B3 . 1_556 2.099(7)
Fe1 B4 . . 2.167(7)
Fe1 B4 . 1_556 2.167(7)
Fe1 B6 . 3_555 2.072(7)
Fe1 B6 . 3_556 2.072(7)
Fe1 B7 . . 2.192(8)
Fe1 B12 . 3_556 2.042(7)
Fe1 B13 . 3_556 2.095(8)
Fe1 B14 . . 1.962(8)
Fe2 Fe2 . 1_554 2.8089(2)
Fe2 Fe2 . 1_556 2.8089(2)
Fe2 B4 . . 2.082(6)
Fe2 B6 . . 1.918(9)
Fe2 B8 . . 1.951(9)
Fe2 B9 . 3_545 2.144(6)
Fe2 B10 . 1_554 2.179(6)
Fe2 B10 . . 2.179(6)
Fe2 B11 . 1_554 2.241(8)
Fe2 B11 . . 2.241(8)
Fe2 B13 . 1_554 2.174(7)
Fe2 B13 . . 2.174(7)
Fe2 B14 . 1_554 2.071(7)
Fe2 B14 . . 2.071(7)
Fe3 Fe3 . 1_554 2.8089(2)
Fe3 Fe3 . 1_556 2.8089(2)
Fe3 Fe3 . 2_655 2.5016(13)
Fe3 Fe4 . . 2.5161(12)
Fe3 Fe4 . 1_556 2.5161(12)
Fe3 B1 . . 2.203(7)
Fe3 B1 . 1_556 2.203(7)
Fe3 B2 . 3_545 2.079(5)
Fe3 B2 . 3_546 2.079(5)
Fe3 B2 . 4_555 2.084(7)
Fe3 B2 . 4_556 2.084(7)
Fe3 B8 . 4_555 2.036(7)
Fe3 B8 . 4_556 2.036(7)
Fe3 B11 . 4_556 2.104(7)
Fe3 B12 . . 2.101(10)
Fe4 Fe4 . 1_554 2.8089(2)
Fe4 Fe4 . 1_556 2.8089(2)
Fe4 B1 . . 2.299(6)
Fe4 B3 . . 1.941(9)
Fe4 B5 . 1_554 2.192(6)
Fe4 B5 . . 2.192(6)
Fe4 B7 . 1_554 2.175(8)
Fe4 B7 . . 2.175(8)
Fe4 B9 . . 2.201(6)
Fe4 B12 . 1_554 2.118(6)
Fe4 B12 . . 2.118(6)
B1 B2 . 3_545 1.665(12)
B1 B4 . 3_545 1.831(9)
B1 B12 . 1_554 1.750(6)
B1 B12 . . 1.750(6)
B2 B2 . 2_565 1.782(13)
B2 B4 . . 1.750(13)
B2 B8 . . 1.656(9)
B3 B6 . 3_555 1.607(9)
B3 B7 . 1_554 1.789(6)
B3 B7 . . 1.789(6)
B3 B9 . . 1.789(13)
B4 B14 . 1_554 1.779(7)
B4 B14 . . 1.779(7)
B5 B9 . . 1.775(7)
B5 B9 . 1_556 1.775(7)
B5 B10 . 3_556 1.638(9)
B5 B11 . 4_556 1.696(12)
B6 B9 . 3_545 1.764(14)
B6 B13 . 1_554 1.775(6)
B6 B13 . . 1.775(6)
B7 B12 . . 1.764(10)
B7 B14 . . 1.817(15)
B8 B11 . 1_554 1.734(6)
B8 B11 . . 1.734(6)
B9 B10 . 3_555 1.834(7)
B9 B10 . 3_556 1.834(7)
B10 B11 . . 1.706(10)
B13 B14 . . 1.685(11)
loop_
_refln_index_h
_refln_index_k
_refln_index_l
_refln_F_squared_calc
_refln_F_squared_meas
_refln_F_squared_sigma
_refln_observed_status
0 0 1 0.74 0.89 1.94 <
0 0 3 12.25 26.67 19.53 <
0 2 1 27963.20 27204.70 241.14 o
0 2 2 396.78 340.38 21.56 o
0 2 3 6153.44 5823.57 143.46 o
0 4 0 1226.38 1263.95 40.23 o
0 4 1 5709.46 5685.87 108.69 o
0 4 2 468.47 508.71 28.17 o
0 4 3 1806.74 1694.37 134.24 o
0 6 0 392.15 395.63 24.84 o
0 6 1 940.73 910.24 42.89 o
0 6 2 218.61 166.45 21.89 o
0 8 0 34.43 41.98 8.29 o
0 8 1 1359.41 1432.28 56.21 o
0 8 2 18.47 16.60 9.60 <
0 10 0 56.32 65.41 10.25 o
0 10 1 1594.70 1639.36 62.96 o
0 10 2 36.74 2.15 6.91 <
0 12 0 1634.48 1846.30 61.97 o
0 12 1 3328.72 3798.45 101.59 o
0 12 2 1156.78 1094.26 47.99 o
0 14 0 9096.08 10224.10 190.14 o
0 14 1 49.17 64.13 13.98 o
0 14 2 6519.58 6184.46 178.38 o
1 1 1 6345.00 6269.81 52.64 o
1 1 2 760.91 708.63 21.44 o
1 1 3 1425.49 1364.14 48.97 o
1 2 1 606.91 535.45 14.34 o
1 2 2 123.74 100.51 8.29 o
1 2 3 102.62 63.93 9.21 o
1 3 1 6411.32 6493.52 59.06 o
1 3 2 979.17 891.56 25.96 o
1 3 3 1573.64 1380.00 55.30 o
1 4 0 4374.06 4180.48 121.25 o
1 4 1 186.83 177.28 10.33 o
1 4 2 1812.97 1717.61 42.20 o
1 4 3 36.60 18.48 9.49 <
1 5 0 16178.60 16403.70 159.27 o
1 5 1 14.20 12.05 3.48 o
1 5 2 7308.33 7384.76 101.39 o
1 5 3 2.06 5.82 7.11 <
1 6 0 6894.82 7081.09 85.46 o
1 6 1 9395.92 9070.49 92.12 o
1 6 2 3114.65 3068.20 64.05 o
1 6 3 3104.42 2965.76 159.91 o
1 7 0 1490.55 1449.36 37.30 o
1 7 1 71.84 67.79 6.20 o
1 7 2 807.58 740.63 31.33 o
1 7 3 5.13 3.47 13.51 <
1 8 0 27.19 18.44 2.69 o
1 8 1 7253.68 6974.75 80.10 o
1 8 2 54.58 66.02 10.57 o
1 8 3 2391.77 2173.57 133.08 o
1 9 0 1102.11 1148.87 33.68 o
1 9 1 2141.44 2094.09 50.38 o
1 9 2 590.39 580.71 28.37 o
1 9 3 926.43 867.28 80.82 o
1 10 0 10553.80 10648.50 136.15 o
1 10 1 664.46 677.49 27.29 o
1 10 2 6359.62 6426.70 99.76 o
1 10 3 395.44 337.90 47.42 o
1 11 0 60.76 47.45 5.35 o
1 11 1 414.31 469.11 23.43 o
1 11 2 36.94 19.98 7.18 o
1 11 3 211.21 112.31 30.22 o
1 12 0 26.56 44.96 7.11 o
1 12 1 2890.32 3136.02 65.47 o
1 12 2 15.83 3.87 5.99 <
1 13 0 2831.69 2811.16 85.89 o
1 13 1 30.71 8.73 4.81 <
1 13 2 2020.73 1965.56 64.60 o
1 14 0 1037.88 1103.57 51.54 o
1 14 1 205.40 224.67 18.32 o
1 14 2 758.42 659.60 42.89 o
1 15 1 3982.50 4744.54 113.71 o
1 15 2 48.42 21.48 12.95 <
2 0 1 681.86 755.97 24.37 o
2 0 2 154.32 137.08 11.95 o
2 0 3 86.63 52.96 13.23 o
2 1 0 313.09 384.39 15.63 o
2 1 1 242.79 252.36 11.38 o
2 1 2 164.84 142.25 10.22 o
2 1 3 55.36 28.50 6.95 o
2 2 0 4180.91 5264.53 99.15 o
2 2 1 112.44 59.84 5.78 o
2 2 2 1569.90 1306.81 31.38 o
2 2 3 9.78 11.70 7.87 <
2 3 1 4750.47 4825.65 51.59 o
2 3 2 430.42 406.20 18.83 o
2 3 3 1268.69 1052.76 46.73 o
2 4 1 14116.40 13866.40 109.22 o
2 4 2 2864.13 2985.63 52.48 o
2 4 3 3716.02 3544.11 128.14 o
2 5 2 2964.00 2887.68 57.92 o
2 5 3 5785.92 5767.56 227.97 o
2 6 0 5332.51 5131.17 83.00 o
2 6 1 4932.58 4621.25 63.35 o
2 6 2 2549.60 2529.67 55.26 o
2 6 3 1725.97 1533.76 114.72 o
2 7 0 25332.10 25495.60 338.90 o
2 7 1 1714.61 1676.70 37.92 o
2 7 2 12821.00 13162.80 148.20 o
2 7 3 528.92 511.96 62.78 o
2 8 0 428.55 418.27 37.57 o
2 8 1 596.39 672.96 28.97 o
2 8 2 190.48 185.43 16.21 o
2 8 3 212.81 149.05 30.64 o
2 9 0 1690.95 1756.72 76.65 o
2 9 1 5639.08 5538.73 88.78 o
2 9 2 1022.45 1017.26 37.19 o
2 9 3 2245.02 2100.73 127.09 o
2 10 0 3813.55 3480.02 113.66 o
2 10 1 3631.22 3587.62 69.96 o
2 10 2 2350.91 2264.31 57.94 o
2 10 3 1613.65 1419.71 103.64 o
2 11 0 10.13 3.75 1.75 o
2 11 1 179.21 181.91 14.43 o
2 11 2 4.40 5.90 6.07 <
2 12 0 1012.45 921.80 56.42 o
2 12 1 600.34 546.53 27.09 o
2 12 2 642.00 589.21 29.33 o
2 13 0 38.49 20.73 9.27 o
2 13 1 581.09 678.90 40.98 o
2 13 2 21.46 12.85 7.87 <
2 14 0 43.28 68.38 14.19 o
2 14 1 24.56 49.45 8.96 o
2 14 2 42.99 31.80 11.11 o
2 15 1 1147.18 1392.32 80.98 o
3 1 0 1433.69 1516.38 39.71 o
3 1 1 2101.64 2306.86 38.48 o
3 1 2 572.06 558.47 21.95 o
3 1 3 428.16 379.61 21.44 o
3 2 0 10620.60 12963.10 205.25 o
3 2 1 2115.34 2082.15 36.62 o
3 2 2 4193.47 4018.70 66.87 o
3 2 3 510.56 422.25 24.55 o
3 3 0 12240.20 14608.60 238.86 o
3 3 1 92.45 106.07 7.02 o
3 3 2 5016.94 4860.14 89.82 o
3 3 3 32.53 12.53 8.29 <
3 4 0 1121.10 1205.96 71.44 o
3 4 1 7823.01 7901.99 78.06 o
3 4 2 461.15 437.65 20.90 o
3 4 3 1998.99 1985.23 75.75 o
3 5 0 159.61 156.61 10.81 o
3 5 1 15822.70 15526.60 152.32 o
3 5 2 62.23 54.59 7.53 o
3 5 3 4770.43 5177.64 218.15 o
3 6 0 348.47 320.70 19.06 o
3 6 1 4131.50 4042.73 63.51 o
3 6 2 140.04 123.45 12.99 o
3 6 3 1478.98 1536.93 117.13 o
3 7 0 527.22 483.06 24.54 o
3 7 1 669.55 649.72 28.41 o
3 7 2 265.82 224.42 18.12 o
3 7 3 284.64 283.76 49.46 o
3 8 0 3007.14 2883.19 84.73 o
3 8 1 576.04 585.48 31.88 o
3 8 2 1435.92 1337.24 46.98 o
3 8 3 248.70 256.30 42.87 o
3 9 0 1102.95 1091.46 66.09 o
3 9 1 1657.41 1614.93 56.05 o
3 9 2 625.37 644.31 35.39 o
3 9 3 651.48 691.54 71.04 o
3 10 0 910.30 898.57 56.22 o
3 10 1 12781.20 13020.00 189.05 o
3 10 2 639.93 626.95 33.79 o
3 10 3 5690.69 5887.39 207.64 o
3 11 0 2129.48 2103.02 89.46 o
3 11 1 409.73 433.24 29.66 o
3 11 2 1381.26 1362.42 49.84 o
3 12 0 6909.53 6676.62 174.07 o
3 12 1 67.56 57.64 8.19 o
3 12 2 4534.32 4753.13 120.79 o
3 13 0 5.79 9.23 7.37 <
3 13 1 1.02 -7.01 6.55 <
3 14 0 611.34 556.43 43.87 o
3 14 1 704.43 684.26 42.09 o
3 14 2 467.88 453.76 41.67 o
3 15 1 345.37 352.80 39.54 o
4 0 2 813.27 679.86 32.71 o
4 0 3 19176.40 18693.30 279.19 o
4 1 0 4025.27 4161.03 83.27 o
4 1 1 1172.06 1172.56 26.23 o
4 1 2 1672.20 1625.49 42.13 o
4 1 3 263.25 249.05 19.60 o
4 2 1 2246.02 2297.11 34.76 o
4 2 2 12073.60 12014.90 144.37 o
4 2 3 626.18 608.12 33.64 o
4 3 0 4129.16 5329.81 113.62 o
4 3 1 10476.70 10845.20 97.66 o
4 3 2 1646.58 1536.11 40.36 o
4 3 3 2746.51 2712.12 87.08 o
4 4 0 2017.23 2418.60 104.14 o
4 4 1 1770.27 1756.29 33.69 o
4 4 2 959.81 1005.69 33.17 o
4 4 3 473.32 444.07 40.64 o
4 5 0 2610.24 2875.47 127.21 o
4 5 1 37.61 30.14 4.12 o
4 5 2 1130.23 1118.26 35.20 o
4 5 3 32.89 0.49 8.81 <
4 6 0 478.63 478.31 24.89 o
4 6 1 11.51 10.02 3.85 o
4 6 2 244.50 216.80 15.31 o
4 6 3 10.66 6.22 11.99 <
4 7 0 1023.26 943.45 33.49 o
4 7 1 18.46 11.64 5.95 <
4 7 2 612.18 556.74 28.37 o
4 7 3 0.06 -1.04 15.50 <
4 8 0 336.15 337.09 21.00 o
4 8 1 25.13 64.69 15.23 o
4 8 2 151.08 122.11 16.89 o
4 8 3 16.89 14.13 5.97 o
4 9 0 1441.36 1237.26 43.03 o
4 9 1 23.66 11.10 3.28 o
4 9 2 821.14 794.13 38.84 o
4 9 3 29.18 25.34 13.71 <
4 10 1 8.47 11.15 6.10 <
4 10 2 670.15 588.93 33.07 o
4 10 3 2.25 -7.09 11.80 <
4 11 0 1673.07 1802.60 86.31 o
4 11 1 3297.24 3234.25 96.87 o
4 11 2 1051.55 1086.86 47.22 o
4 12 0 3356.21 3367.47 122.95 o
4 12 1 0.82 -3.52 3.87 <
4 12 2 2207.59 2506.09 98.77 o
4 13 0 1531.30 1347.31 76.00 o
4 13 1 1655.58 1603.85 66.37 o
4 13 2 1104.13 1109.38 68.92 o
4 14 0 5.56 5.08 7.86 <
4 14 1 4589.35 4516.00 115.93 o
4 14 2 2.07 17.28 16.48 <
4 15 1 182.91 149.69 27.01 o
5 1 0 13068.70 13841.00 223.92 o
5 1 1 3504.58 3627.45 50.74 o
5 1 2 5240.80 5067.95 83.00 o
5 1 3 805.01 853.91 49.11 o
5 2 0 84.88 78.90 10.66 o
5 2 1 5775.76 5994.61 64.09 o
5 2 2 52.91 55.99 8.09 o
5 2 3 1540.70 1634.45 68.38 o
5 3 0 1065.91 1321.75 50.01 o
5 3 1 12178.50 12686.30 109.95 o
5 3 2 517.12 577.70 25.03 o
5 3 3 3191.13 3295.38 97.22 o
5 4 0 544.79 567.97 34.35 o
5 4 1 874.07 897.14 24.27 o
5 4 2 263.45 237.10 14.08 o
5 4 3 189.60 204.52 30.17 o
5 5 0 6440.28 7639.98 232.85 o
5 5 1 8406.59 8704.73 94.83 o
5 5 2 2979.48 3004.85 60.91 o
5 5 3 3057.83 3197.21 113.90 o
5 6 0 8224.09 9143.02 280.11 o
5 6 1 660.79 691.12 26.46 o
5 6 2 4096.40 4212.98 73.68 o
5 6 3 80.85 60.68 13.27 o
5 7 0 619.30 593.31 29.28 o
5 7 1 1262.30 1295.19 33.34 o
5 7 2 307.21 321.34 19.11 o
5 7 3 458.49 380.26 47.60 o
5 8 0 9996.48 9672.44 151.54 o
5 8 1 1043.26 1067.63 43.59 o
5 8 2 5547.20 5712.74 114.91 o
5 8 3 328.89 396.48 57.64 o
5 9 0 199.42 179.18 15.46 o
5 9 1 12.85 27.27 9.72 o
5 9 2 126.39 92.97 14.43 o
5 9 3 8.94 16.43 16.52 <
5 10 0 815.48 688.10 30.76 o
5 10 1 2534.29 2375.41 83.33 o
5 10 2 543.04 600.02 35.02 o
5 10 3 1131.31 1193.35 86.47 o
5 11 1 91.42 54.13 11.10 o
5 11 2 0.17 -3.97 6.80 <
5 12 1 1362.30 1493.98 65.82 o
5 12 2 249.48 241.74 28.64 o
5 13 1 3516.91 3477.75 102.82 o
5 13 2 96.69 58.00 18.55 o
5 14 0 37.10 22.61 9.98 o
5 14 1 465.53 474.79 37.57 o
5 14 2 29.42 2.38 23.88 <
5 15 0 4884.62 4613.87 172.26 o
5 15 1 4.91 -2.23 7.37 <
6 0 1 1265.26 1364.89 50.09 o
6 0 2 1109.96 993.30 50.22 o
6 0 3 384.61 448.10 46.06 o
6 1 0 477.79 470.00 28.98 o
6 1 1 628.52 648.52 23.07 o
6 1 2 235.25 223.65 15.60 o
6 1 3 197.58 219.64 25.74 o
6 2 0 68.50 121.93 14.15 o
6 2 1 5948.30 6110.28 68.24 o
6 2 2 8.95 3.62 5.80 <
6 2 3 1594.75 1713.28 69.77 o
6 3 0 3796.49 4538.80 108.10 o
6 3 1 175.68 154.09 9.35 o
6 3 2 1778.06 1854.21 49.77 o
6 3 3 31.90 14.79 8.56 <
6 4 0 5486.44 6816.56 148.27 o
6 4 1 101.86 105.76 8.65 o
6 4 2 2527.18 2567.61 53.72 o
6 4 3 63.70 62.04 20.37 o
6 5 1 2947.86 2926.19 54.41 o
6 5 2 15163.40 14991.10 147.93 o
6 5 3 1319.60 1331.27 71.87 o
6 6 1 513.10 566.74 25.66 o
6 6 2 0.40 6.83 8.29 <
6 6 3 139.38 105.67 16.91 o
6 7 0 3197.01 2927.00 148.51 o
6 7 1 22295.30 24075.20 234.54 o
6 7 2 1984.43 1951.66 52.00 o
6 7 3 7464.90 8482.03 190.26 o
6 8 0 3.35 20.37 9.72 o
6 8 1 395.62 391.19 24.16 o
6 8 2 1.62 0.46 4.95 <
6 8 3 170.28 158.23 35.49 o
6 9 0 13847.10 12828.00 192.61 o
6 9 1 10.89 -0.20 9.94 <
6 9 2 8310.41 8984.18 190.09 o
6 9 3 0.60 -3.24 4.77 <
6 10 0 1143.19 950.21 37.89 o
6 10 1 113.45 123.81 15.23 o
6 10 2 718.89 561.33 44.37 o
6 10 3 47.01 51.83 25.11 o
6 11 1 49.36 20.06 9.27 o
6 11 2 226.40 241.51 30.53 o
6 12 1 205.05 184.74 22.41 o
6 12 2 115.14 94.81 27.28 o
6 13 1 25.89 18.61 10.37 <
6 13 2 1560.50 1676.30 128.59 o
6 14 1 77.04 27.19 11.14 o
6 14 2 316.89 347.92 57.96 o
6 15 1 35.39 18.71 8.29 o
7 1 0 1580.63 1348.39 55.37 o
7 1 1 2028.36 2008.40 50.34 o
7 1 2 686.06 747.50 32.96 o
7 1 3 486.02 526.77 38.93 o
7 2 0 1403.33 1306.65 51.82 o
7 2 1 11879.20 11633.20 128.83 o
7 2 2 650.03 635.69 30.05 o
7 2 3 3491.31 3653.91 106.83 o
7 3 0 778.21 865.97 42.86 o
7 3 1 9214.04 9159.58 102.12 o
7 3 2 317.40 290.86 19.90 o
7 3 3 2625.02 2961.71 112.46 o
7 4 0 6485.98 7838.13 167.75 o
7 4 1 261.82 269.88 15.10 o
7 4 2 3026.85 3200.28 62.65 o
7 4 3 75.38 58.95 15.04 o
7 5 0 6742.01 7637.83 171.55 o
7 5 1 0.49 4.35 6.59 <
7 5 2 3412.72 3335.47 65.64 o
7 5 3 1.45 11.97 10.81 <
7 6 0 311.17 365.07 33.63 o
7 6 1 1126.94 1153.33 36.19 o
7 6 2 171.59 189.51 14.43 o
7 6 3 415.96 421.78 37.15 o
7 7 0 3.11 11.88 12.86 <
7 7 1 64.60 69.67 9.37 o
7 7 2 3.52 19.84 9.88 o
7 7 3 19.55 10.37 7.33 <
7 8 0 3920.55 4109.18 190.44 o
7 8 1 643.90 635.40 29.68 o
7 8 2 2215.01 2391.70 67.44 o
7 8 3 237.83 258.14 27.97 o
7 9 0 778.61 796.01 37.05 o
7 9 1 20.55 16.68 9.58 <
7 9 2 454.14 492.73 40.66 o
7 9 3 12.97 9.98 3.27 o
7 10 0 9123.08 8423.08 147.66 o
7 10 1 1829.28 1848.20 69.99 o
7 10 2 5865.16 6472.42 270.60 o
7 10 3 905.71 1169.85 84.49 o
7 11 0 64.39 52.67 7.42 o
7 11 1 1527.60 1558.67 67.71 o
7 12 1 6954.20 7067.20 158.68 o
7 13 1 1293.17 1238.80 63.48 o
7 13 2 443.32 342.45 56.90 o
7 14 1 1223.30 1273.29 93.03 o
7 15 1 344.73 307.88 46.76 o
8 0 2 3574.11 3484.96 107.76 o
8 0 3 5430.05 5693.16 221.85 o
8 1 1 8412.10 7835.44 175.65 o
8 1 2 2.17 7.40 6.18 <
8 1 3 2583.58 2618.17 104.47 o
8 2 0 8846.44 8990.08 177.78 o
8 2 1 7073.64 6968.93 125.85 o
8 2 2 4100.67 4303.76 79.56 o
8 2 3 2016.19 2273.72 103.66 o
8 3 0 23099.70 24736.60 396.04 o
8 3 1 5075.65 5160.24 78.85 o
8 3 2 10861.40 10747.10 134.46 o
8 3 3 1671.14 1914.33 92.22 o
8 4 0 2366.97 2637.46 87.44 o
8 4 1 60.07 64.52 7.80 o
8 4 2 1188.74 1151.74 39.08 o
8 4 3 15.45 -6.52 12.04 <
8 5 0 352.17 403.71 33.60 o
8 5 1 2721.42 2915.60 57.73 o
8 5 2 259.84 264.26 16.81 o
8 5 3 701.83 769.43 56.06 o
8 6 0 1302.77 1375.53 66.78 o
8 6 1 0.07 3.98 5.22 <
8 6 2 731.90 699.30 27.71 o
8 6 3 0.82 7.67 13.67 <
8 7 0 808.85 888.94 77.74 o
8 7 1 1220.02 1323.70 42.52 o
8 7 2 368.35 386.06 22.37 o
8 7 3 599.23 671.34 49.80 o
8 8 0 245.82 279.77 46.94 o
8 8 1 190.44 201.89 17.44 o
8 8 2 126.16 151.25 17.90 o
8 8 3 72.53 72.61 19.48 o
8 9 0 447.43 388.52 62.01 o
8 9 1 4299.65 4056.93 84.04 o
8 9 2 261.33 285.42 30.75 o
8 9 3 1933.29 2361.22 127.71 o
8 10 0 411.02 446.78 30.08 o
8 10 2 273.67 214.44 55.41 o
8 11 0 1759.66 1537.50 54.94 o
8 11 1 2709.38 2559.64 104.25 o
8 12 0 773.19 567.07 26.67 o
8 12 1 757.41 927.20 69.26 o
8 13 1 1713.63 1959.38 116.36 o
9 1 1 6476.64 5565.28 147.97 o
9 1 2 22.82 8.54 5.43 <
9 1 3 1960.26 1962.27 126.58 o
9 2 0 8267.80 7582.69 165.32 o
9 2 1 1679.77 1464.81 53.00 o
9 2 2 3953.66 4098.60 80.82 o
9 2 3 617.87 650.26 57.83 o
9 3 0 21802.50 21820.50 362.52 o
9 3 1 454.71 419.59 23.14 o
9 3 2 10554.20 10845.90 130.92 o
9 3 3 202.09 212.43 28.83 o
9 4 0 49.84 36.18 11.62 o
9 4 1 1259.82 1358.91 43.64 o
9 4 2 24.07 13.07 6.91 <
9 4 3 337.05 366.19 38.43 o
9 5 0 1511.90 1604.73 71.44 o
9 5 1 9149.59 10128.80 151.33 o
9 5 2 956.55 967.61 34.00 o
9 5 3 3105.44 3550.93 128.68 o
9 6 0 97.03 141.91 21.87 o
9 6 1 716.80 789.19 31.80 o
9 6 2 43.78 38.73 5.70 o
9 6 3 257.48 245.78 25.82 o
9 7 0 975.12 1168.18 66.05 o
9 7 1 788.39 832.67 35.12 o
9 7 2 510.59 588.13 37.62 o
9 7 3 363.63 378.36 33.87 o
9 8 0 1168.15 1273.24 99.66 o
9 8 1 1884.62 1962.76 57.79 o
9 8 2 753.49 888.09 53.10 o
9 8 3 874.61 1098.51 60.74 o
9 9 0 1740.61 1736.72 126.32 o
9 9 1 824.23 843.20 37.19 o
9 9 2 1124.82 1272.06 64.29 o
9 9 3 363.98 520.86 43.92 o
9 10 0 1.42 14.16 19.90 <
9 10 2 1.30 16.01 11.57 <
9 11 0 105.81 101.54 13.74 o
9 12 0 1709.65 1334.55 53.43 o
9 13 1 133.35 156.00 35.18 o
10 0 2 677.13 594.10 45.17 o
10 1 1 1146.93 1101.51 97.53 o
10 1 2 83.56 63.89 11.35 o
10 1 3 365.88 344.89 53.94 o
10 2 0 3559.07 3078.88 99.93 o
10 2 1 1045.32 940.16 44.49 o
10 2 2 1847.32 1730.30 48.30 o
10 2 3 244.57 244.83 41.00 o
10 3 0 273.40 225.51 25.61 o
10 3 1 249.68 251.02 18.93 o
10 3 2 125.20 115.76 11.35 o
10 3 3 93.89 89.87 18.71 o
10 4 0 8405.61 8632.90 190.80 o
10 4 1 110.39 87.67 11.92 o
10 4 2 4602.27 4660.09 82.27 o
10 4 3 43.93 33.34 11.50 o
10 5 0 870.76 841.09 52.55 o
10 5 1 9672.56 10246.20 155.26 o
10 5 2 614.48 571.89 28.04 o
10 5 3 3463.37 3762.18 121.66 o
10 6 0 56.02 68.95 16.16 o
10 6 1 2411.70 2618.71 69.77 o
10 6 2 36.28 26.17 6.52 o
10 6 3 1007.93 1151.95 62.70 o
10 7 1 200.49 159.60 20.69 o
10 7 2 10591.50 12190.20 236.42 o
10 7 3 66.27 43.05 10.85 o
10 8 0 4.16 6.10 12.58 <
10 8 1 1036.34 1074.28 44.67 o
10 8 2 3.60 5.36 6.44 <
10 8 3 490.11 578.24 43.51 o
10 9 0 174.47 191.96 42.35 o
10 9 1 8457.00 8464.10 141.71 o
10 9 2 96.17 124.59 17.09 o
10 9 3 3896.25 5195.50 152.86 o
10 10 1 65.28 53.50 7.92 o
10 10 2 496.04 632.93 45.05 o
10 12 0 53.92 48.60 9.75 o
11 1 2 3930.49 3888.41 93.02 o
11 2 0 2298.59 2009.85 85.35 o
11 2 1 2.01 4.87 7.40 <
11 2 2 1173.63 1158.92 40.98 o
11 2 3 3.02 0.57 11.55 <
11 3 0 3531.21 3224.91 105.32 o
11 3 1 29.69 35.08 10.15 o
11 3 2 1850.37 1914.36 56.41 o
11 3 3 3.81 7.07 15.09 <
11 4 0 323.02 293.20 30.57 o
11 4 1 153.33 178.02 17.17 o
11 4 2 144.87 126.17 14.05 o
11 4 3 48.99 34.91 10.26 o
11 5 0 532.63 608.66 45.80 o
11 5 1 0.20 -0.89 6.68 <
11 5 2 297.59 330.61 24.00 o
11 5 3 1.16 1.05 7.59 <
11 6 0 2126.30 2520.52 99.80 o
11 6 1 1146.59 1281.34 48.85 o
11 6 2 1197.52 1314.68 73.72 o
11 6 3 442.20 547.09 42.29 o
11 7 0 0.61 5.25 9.77 <
11 7 1 202.66 209.20 20.57 o
11 7 2 0.38 2.65 13.71 <
11 7 3 85.54 57.67 12.82 o
11 8 0 41.13 28.54 13.22 o
11 8 1 8008.23 9017.62 188.06 o
11 8 2 28.63 10.25 6.05 <
11 8 3 3754.16 4546.82 138.78 o
11 9 0 1302.36 1447.75 115.50 o
11 9 1 4.76 1.43 4.31 <
11 9 2 869.63 992.91 56.28 o
11 9 3 0.36 6.59 5.02 <
11 10 1 2618.23 2433.40 77.09 o
11 10 2 2984.87 3773.89 116.04 o
11 11 1 894.98 712.57 34.22 o
12 0 2 19545.00 20943.10 489.61 o
12 1 2 1281.44 1355.31 66.54 o
12 2 0 5.13 14.01 15.85 <
12 2 1 6063.85 5702.97 136.32 o
12 2 2 1.15 -2.34 7.90 <
12 3 0 534.22 429.81 39.23 o
12 3 1 5957.48 5436.16 125.57 o
12 3 2 320.95 315.22 27.65 o
12 3 3 2173.06 2474.54 155.48 o
12 4 0 52.92 61.86 16.33 o
12 4 1 696.97 591.46 31.96 o
12 4 2 32.97 16.79 8.44 <
12 4 3 307.70 277.72 43.94 o
12 5 0 4579.08 4486.86 136.90 o
12 5 1 156.52 146.65 16.60 o
12 5 2 2525.87 2712.27 139.23 o
12 5 3 83.06 41.60 13.98 o
12 6 0 6.24 1.30 9.58 <
12 6 1 1514.29 1537.47 55.07 o
12 6 2 9.29 12.88 12.82 <
12 6 3 675.13 787.66 56.60 o
12 7 0 691.07 894.32 61.95 o
12 7 1 3919.28 4336.56 100.53 o
12 7 2 470.78 599.34 58.92 o
12 7 3 1738.37 2092.97 96.83 o
12 8 0 265.09 282.29 36.06 o
12 8 2 182.70 137.17 23.04 o
12 8 3 760.74 906.49 69.84 o
12 9 2 3192.47 3263.26 118.49 o
12 10 1 504.05 520.73 35.81 o
12 10 2 125.18 156.49 20.48 o
12 11 1 266.98 241.87 21.25 o
13 2 0 98.18 14.78 21.57 <
13 2 1 2061.00 1829.05 95.69 o
13 2 2 60.33 48.33 11.74 o
13 3 0 19.49 8.03 9.48 <
13 3 1 8284.31 7306.76 157.69 o
13 3 2 12.86 1.46 7.71 <
13 4 0 2042.89 1895.60 85.28 o
13 4 1 0.16 -7.60 7.38 <
13 4 2 1053.84 1256.49 97.96 o
13 4 3 0.43 20.90 20.42 <
13 5 0 8254.43 8323.22 203.65 o
13 5 1 116.92 120.33 15.71 o
13 5 2 4722.03 5021.14 198.97 o
13 5 3 50.34 26.61 9.13 o
13 6 0 252.27 265.25 34.19 o
13 6 1 2725.94 2592.33 74.04 o
13 6 2 213.27 207.42 33.18 o
13 6 3 1264.26 1174.37 83.46 o
13 7 0 84.29 141.41 26.97 o
13 7 1 574.97 556.84 39.74 o
13 7 2 48.40 32.73 15.19 o
13 7 3 261.66 257.31 35.80 o
13 8 0 5.19 4.63 13.24 <
13 8 2 0.38 -0.62 14.69 <
13 8 3 16.92 4.70 9.67 <
13 9 2 654.00 758.26 58.69 o
13 10 2 877.57 1083.62 64.00 o
13 11 1 742.40 739.93 42.20 o
14 2 1 820.72 629.98 92.91 o
14 3 0 4.39 4.95 11.12 <
14 3 1 61.13 33.46 12.45 o
14 4 0 122.14 158.24 27.59 o
14 4 1 8975.58 8269.53 206.95 o
14 5 0 2178.47 1912.56 90.43 o
14 5 1 32.68 16.86 9.18 <
14 5 2 1275.19 1600.34 102.63 o
14 5 3 17.24 30.99 42.21 <
14 6 0 2276.28 2371.46 103.72 o
14 6 1 572.95 552.77 33.96 o
14 6 2 1398.81 1669.59 110.62 o
14 6 3 268.13 224.20 38.11 o
14 7 0 1273.93 1413.93 80.91 o
14 7 2 898.46 1046.82 82.60 o
14 7 3 1945.82 2252.66 121.68 o
14 8 2 434.71 492.33 50.13 o
14 8 3 61.88 46.46 17.41 o
14 9 2 376.15 415.73 44.69 o
15 3 0 677.58 508.70 85.16 o
15 4 0 167.99 118.32 25.50 o
15 4 1 4023.26 3368.74 106.80 o
15 5 0 692.21 551.23 51.47 o
15 5 1 879.05 780.36 46.27 o
15 6 0 486.89 519.05 50.55 o
15 7 3 33.87 10.39 8.17 <
15 8 2 2110.83 2301.61 117.34 o
15 8 3 0.36 -3.31 7.94 <
15 9 2 26.11 26.78 12.39 o
16 3 0 490.84 352.20 84.56 o
16 3 1 1688.11 1282.67 91.35 o
16 4 0 1.46 7.55 12.47 <
16 4 1 343.36 290.88 38.05 o
16 5 0 445.28 331.81 40.35 o
17 4 0 4.41 -4.31 13.39 <
