#------------------------------------------------------------------------------
#$Date: 2021-04-14 12:44:01 +0300 (Wed, 14 Apr 2021) $
#$Revision: 264143 $
#$URL: file:///home/coder/svn-repositories/cod/cif/1/56/17/1561748.cif $
#------------------------------------------------------------------------------
#
# This file is available in the Crystallography Open Database (COD),
# http://www.crystallography.net/
#
# All data on this site have been placed in the public domain by the
# contributors.
#
data_1561748
loop_
_publ_author_name
'Bykova, E.'
'Gou, H.'
'Bykov, M.'
'Hanfland, M.'
'Dubrovinsky, L.'
'Dubrovinskaia, N.'
_publ_section_title
;
 Crystal structures and compressibility of novel iron borides Fe2B7 and Fe
 B50 synthesized at high pressure and high temperature
;
_journal_name_full               'Journal of Solid State Chemistry'
_journal_page_first              102
_journal_page_last               109
_journal_paper_doi               10.1016/j.jssc.2015.06.040
_journal_volume                  230
_journal_year                    2015
_chemical_absolute_configuration .
_chemical_formula_moiety         'B50 Fe1.324'
_chemical_formula_sum            'B50 Fe1.324'
_chemical_formula_weight         614.4
_chemical_name_common            'Iron Boron (1.324/50)'
_chemical_name_systematic        'Iron Boron (1.324/50)'
_space_group_IT_number           134
_space_group_name_Hall           '-P 4ac 2bc'
_space_group_name_H-M_alt        'P 42/n n m :2'
_symmetry_cell_setting           tetragonal
_symmetry_Int_Tables_number      134
_symmetry_space_group_name_Hall  '-P 4ac 2bc'
_symmetry_space_group_name_H-M   'P 42/n n m :2'
_cell_angle_alpha                90
_cell_angle_beta                 90
_cell_angle_gamma                90
_cell_formula_units_Z            1
_cell_length_a                   8.8178(2)
_cell_length_b                   8.8178(2)
_cell_length_c                   4.9820(2)
_cell_measurement_reflns_used    381
_cell_measurement_temperature    293
_cell_measurement_theta_max      19.14
_cell_measurement_theta_min      2.74
_cell_volume                     387.37(2)
_computing_cell_refinement
;
CrysAlisPro, Agilent Technologies,
Version 1.171.37.35 (release 13-08-2014 CrysAlis171 .NET)
(compiled Aug 13 2014,18:06:01)
;
_computing_data_collection
;
CrysAlisPro, Agilent Technologies,
Version 1.171.37.35 (release 13-08-2014 CrysAlis171 .NET)
(compiled Aug 13 2014,18:06:01)
;
_computing_data_reduction
;
CrysAlisPro, Agilent Technologies,
Version 1.171.37.35 (release 13-08-2014 CrysAlis171 .NET)
(compiled Aug 13 2014,18:06:01)
;
_computing_structure_refinement  'Jana2006 (Petricek, 2014)'
_computing_structure_solution    'SHELXS-2013 (Sheldrick, 2013)'
_diffrn_ambient_pressure         9800000
_diffrn_ambient_temperature      293
_diffrn_detector                 'MAR555 flatpanel detector'
_diffrn_measured_fraction_theta_full 0.93
_diffrn_measured_fraction_theta_max 0.7
_diffrn_measurement_device
;
customized omega-circle diffractometer
;
_diffrn_measurement_device_type  'ESRF, beamline ID09A diffractometer'
_diffrn_measurement_method       '\w scans'
_diffrn_radiation_monochromator  synchrotron
_diffrn_radiation_probe          x-ray
_diffrn_radiation_source         synchrotron
_diffrn_radiation_type           synchrotron
_diffrn_radiation_wavelength     0.41441
_diffrn_reflns_av_R_equivalents  0.0346
_diffrn_reflns_av_unetI/netI     0.0314
_diffrn_reflns_limit_h_max       12
_diffrn_reflns_limit_h_min       -12
_diffrn_reflns_limit_k_max       8
_diffrn_reflns_limit_k_min       -6
_diffrn_reflns_limit_l_max       7
_diffrn_reflns_limit_l_min       -6
_diffrn_reflns_number            912
_diffrn_reflns_theta_full        13.59
_diffrn_reflns_theta_max         19.16
_diffrn_reflns_theta_min         1.9
_diffrn_source                   synchrotron
_exptl_absorpt_coefficient_mu    0.297
_exptl_absorpt_correction_T_max  1
_exptl_absorpt_correction_T_min  0.164
_exptl_absorpt_correction_type   multi-scan
_exptl_absorpt_process_details
;
CrysAlisPro, Agilent Technologies,
Version 1.171.37.35 (release 13-08-2014 CrysAlis171 .NET)
(compiled Aug 13 2014,18:06:01)
Empirical absorption correction using spherical harmonics,
 implemented in SCALE3 ABSPACK scaling algorithm.
;
_exptl_crystal_colour            black
_exptl_crystal_density_diffrn    2.6331
_exptl_crystal_description       plate
_exptl_crystal_F_000             284
_exptl_crystal_size_max          0.020
_exptl_crystal_size_mid          0.010
_exptl_crystal_size_min          0.005
_refine_diff_density_max         0.68
_refine_diff_density_min         -0.58
_refine_ls_extinction_method     none
_refine_ls_goodness_of_fit_gt    2.68
_refine_ls_goodness_of_fit_ref   2.58
_refine_ls_number_constraints    0
_refine_ls_number_parameters     32
_refine_ls_number_reflns         304
_refine_ls_number_restraints     0
_refine_ls_R_factor_all          0.0505
_refine_ls_R_factor_gt           0.0482
_refine_ls_shift/su_max          0.0002
_refine_ls_shift/su_mean         0.0000
_refine_ls_structure_factor_coef Fsqd
_refine_ls_weighting_details     w=1/(\s^2^(I)+0.0004I^2^)
_refine_ls_weighting_scheme      sigma
_refine_ls_wR_factor_gt          0.1155
_refine_ls_wR_factor_ref         0.1168
_reflns_number_gt                278
_reflns_number_total             304
_reflns_threshold_expression     I>2\s(I)
_cod_data_source_file            fe1.32B50_09.8GPa.cif
_cod_data_source_block           Fe1.3B50_9.8GPa
_cod_depositor_comments
;
The following automatic conversions were performed:

data item '_diffrn_radiation_probe' value 'X-ray' was changed to
'x-ray' in accordance with the built-in table derived from the CIF
Core dictionary named 'cif_core.dic' version 2.4.5 last updated on
2014-11-21.

Automatic conversion script
Id: cif_fix_values 8369 2020-08-20 11:38:08Z andrius 
;
_cod_original_sg_symbol_H-M      'P 42/n n m'
_cod_database_code               1561748
loop_
_symmetry_equiv_pos_site_id
_symmetry_equiv_pos_as_xyz
1 x,y,z
2 -x+1/2,-y+1/2,z
3 -y+1/2,x,z+1/2
4 y,-x+1/2,z+1/2
5 -x+1/2,y,-z+1/2
6 x,-y+1/2,-z+1/2
7 y,x,-z
8 -y+1/2,-x+1/2,-z
9 -x,-y,-z
10 x+1/2,y+1/2,-z
11 y+1/2,-x,-z+1/2
12 -y,x+1/2,-z+1/2
13 x+1/2,-y,z+1/2
14 -x,y+1/2,z+1/2
15 -y,-x,z
16 y+1/2,x+1/2,z
loop_
_atom_site_label
_atom_site_type_symbol
_atom_site_fract_x
_atom_site_fract_y
_atom_site_fract_z
_atom_site_adp_type
_atom_site_U_iso_or_equiv
_atom_site_site_symmetry_multiplicity
_atom_site_occupancy
_atom_site_calc_flag
_atom_site_refinement_flags
_atom_site_disorder_assembly
_atom_site_disorder_group
Fe1 Fe -0.25 0.25 0.25 Uani 0.0107(3) 2 0.6621 d . . .
B4 B -0.0742(2) -0.1573(3) 0.1486(4) Uani 0.0071(6) 16 1 d . . .
B5 B -0.1678(2) 0.0205(2) 0.1628(3) Uani 0.0050(6) 16 1 d . . .
B2 B 0.1227(2) -0.1227(2) 0.1387(5) Uani 0.0051(6) 8 1 d . . .
B3 B 0.0039(2) -0.0039(2) 0.3352(5) Uiso 0.0035(6) 8 1 d . . .
B1 B 0.25 -0.25 0.25 Uani 0.0053(11) 2 1 d . . .
loop_
_atom_site_aniso_label
_atom_site_aniso_type_symbol
_atom_site_aniso_U_11
_atom_site_aniso_U_22
_atom_site_aniso_U_33
_atom_site_aniso_U_12
_atom_site_aniso_U_13
_atom_site_aniso_U_23
Fe1 Fe 0.0040(5) 0.0040(5) 0.0241(7) 0 0 0
B4 B 0.0051(10) 0.0094(11) 0.0068(8) 0.0001(10) 0.0013(6) -0.0034(6)
B5 B 0.0058(10) 0.0069(11) 0.0022(8) -0.0005(10) 0.0009(5) -0.0003(6)
B2 B 0.0052(9) 0.0052(9) 0.0049(10) -0.0005(13) -0.0005(6) 0.0005(6)
B1 B 0.0048(19) 0.0048(19) 0.006(2) 0 0 0
loop_
_atom_type_symbol
_atom_type_scat_dispersion_real
_atom_type_scat_dispersion_imag
_atom_type_scat_source
B -0.0003 0.0002 'International Tables Vol C tables 4.2.6.8 and 6.1.1.1'
Fe 0.1991 0.3104 'International Tables Vol C tables 4.2.6.8 and 6.1.1.1'
loop_
_geom_angle_atom_site_label_1
_geom_angle_atom_site_label_2
_geom_angle_atom_site_label_3
_geom_angle_site_symmetry_1
_geom_angle_site_symmetry_2
_geom_angle_site_symmetry_3
_geom_angle
B5 Fe1 B5 . . 2_455 157.16(6)
B5 Fe1 B5 . . 5_455 45.30(7)
B5 Fe1 B5 . . 6_555 141.42(8)
B5 Fe1 B5 . . 11_455 92.25(8)
B5 Fe1 B5 . . 12_555 92.25(8)
B5 Fe1 B5 . . 15_555 49.54(8)
B5 Fe1 B5 . . 16_455 124.79(7)
B5 Fe1 B2 . . 3_455 83.54(7)
B5 Fe1 B2 . . 4_555 114.75(7)
B5 Fe1 B2 . . 7_555 44.36(7)
B5 Fe1 B2 . . 8_455 114.12(7)
B5 Fe1 B1 . . 3_454 78.58(5)
B5 Fe1 B1 . . 3_455 101.42(5)
B5 Fe1 B5 2_455 . 5_455 141.42(8)
B5 Fe1 B5 2_455 . 6_555 45.30(7)
B5 Fe1 B5 2_455 . 11_455 92.25(8)
B5 Fe1 B5 2_455 . 12_555 92.25(8)
B5 Fe1 B5 2_455 . 15_555 124.79(7)
B5 Fe1 B5 2_455 . 16_455 49.54(8)
B5 Fe1 B2 2_455 . 3_455 114.75(7)
B5 Fe1 B2 2_455 . 4_555 83.54(7)
B5 Fe1 B2 2_455 . 7_555 114.12(7)
B5 Fe1 B2 2_455 . 8_455 44.36(7)
B5 Fe1 B1 2_455 . 3_454 78.58(5)
B5 Fe1 B1 2_455 . 3_455 101.42(5)
B5 Fe1 B5 5_455 . 6_555 157.16(6)
B5 Fe1 B5 5_455 . 11_455 49.54(8)
B5 Fe1 B5 5_455 . 12_555 124.79(7)
B5 Fe1 B5 5_455 . 15_555 92.25(8)
B5 Fe1 B5 5_455 . 16_455 92.25(8)
B5 Fe1 B2 5_455 . 3_455 44.36(7)
B5 Fe1 B2 5_455 . 4_555 114.12(7)
B5 Fe1 B2 5_455 . 7_555 83.54(7)
B5 Fe1 B2 5_455 . 8_455 114.75(7)
B5 Fe1 B1 5_455 . 3_454 101.42(5)
B5 Fe1 B1 5_455 . 3_455 78.58(5)
B5 Fe1 B5 6_555 . 11_455 124.79(7)
B5 Fe1 B5 6_555 . 12_555 49.54(8)
B5 Fe1 B5 6_555 . 15_555 92.25(8)
B5 Fe1 B5 6_555 . 16_455 92.25(8)
B5 Fe1 B2 6_555 . 3_455 114.12(7)
B5 Fe1 B2 6_555 . 4_555 44.36(7)
B5 Fe1 B2 6_555 . 7_555 114.75(7)
B5 Fe1 B2 6_555 . 8_455 83.54(7)
B5 Fe1 B1 6_555 . 3_454 101.42(5)
B5 Fe1 B1 6_555 . 3_455 78.58(5)
B5 Fe1 B5 11_455 . 12_555 157.16(6)
B5 Fe1 B5 11_455 . 15_555 141.42(8)
B5 Fe1 B5 11_455 . 16_455 45.30(7)
B5 Fe1 B2 11_455 . 3_455 44.36(7)
B5 Fe1 B2 11_455 . 4_555 114.12(7)
B5 Fe1 B2 11_455 . 7_555 114.75(7)
B5 Fe1 B2 11_455 . 8_455 83.54(7)
B5 Fe1 B1 11_455 . 3_454 101.42(5)
B5 Fe1 B1 11_455 . 3_455 78.58(5)
B5 Fe1 B5 12_555 . 15_555 45.30(7)
B5 Fe1 B5 12_555 . 16_455 141.42(8)
B5 Fe1 B2 12_555 . 3_455 114.12(7)
B5 Fe1 B2 12_555 . 4_555 44.36(7)
B5 Fe1 B2 12_555 . 7_555 83.54(7)
B5 Fe1 B2 12_555 . 8_455 114.75(7)
B5 Fe1 B1 12_555 . 3_454 101.42(5)
B5 Fe1 B1 12_555 . 3_455 78.58(5)
B5 Fe1 B5 15_555 . 16_455 157.16(6)
B5 Fe1 B2 15_555 . 3_455 114.75(7)
B5 Fe1 B2 15_555 . 4_555 83.54(7)
B5 Fe1 B2 15_555 . 7_555 44.36(7)
B5 Fe1 B2 15_555 . 8_455 114.12(7)
B5 Fe1 B1 15_555 . 3_454 78.58(5)
B5 Fe1 B1 15_555 . 3_455 101.42(5)
B5 Fe1 B2 16_455 . 3_455 83.54(7)
B5 Fe1 B2 16_455 . 4_555 114.75(7)
B5 Fe1 B2 16_455 . 7_555 114.12(7)
B5 Fe1 B2 16_455 . 8_455 44.36(7)
B5 Fe1 B1 16_455 . 3_454 78.58(5)
B5 Fe1 B1 16_455 . 3_455 101.42(5)
B2 Fe1 B2 3_455 . 4_555 78.69(7)
B2 Fe1 B2 3_455 . 7_555 126.73(7)
B2 Fe1 B2 3_455 . 8_455 126.73(7)
B2 Fe1 B1 3_455 . 3_454 140.66(5)
B2 Fe1 B1 3_455 . 3_455 39.34(5)
B2 Fe1 B2 4_555 . 7_555 126.73(7)
B2 Fe1 B2 4_555 . 8_455 126.73(7)
B2 Fe1 B1 4_555 . 3_454 140.66(5)
B2 Fe1 B1 4_555 . 3_455 39.34(5)
B2 Fe1 B2 7_555 . 8_455 78.69(7)
B2 Fe1 B1 7_555 . 3_454 39.34(5)
B2 Fe1 B1 7_555 . 3_455 140.66(5)
B2 Fe1 B1 8_455 . 3_454 39.34(5)
B2 Fe1 B1 8_455 . 3_455 140.66(5)
B1 Fe1 B1 3_454 . 3_455 180.0(5)
B4 B4 B4 6_545 . 7_555 140.86(16)
B4 B4 B5 6_545 . . 136.97(14)
B4 B4 B5 6_545 . 7_555 114.67(15)
B4 B4 B2 6_545 . . 99.30(14)
B4 B4 B3 6_545 . . 111.83(14)
B4 B4 B5 7_555 . . 59.05(11)
B4 B4 B5 7_555 . 7_555 59.51(11)
B4 B4 B2 7_555 . . 107.83(15)
B4 B4 B3 7_555 . . 106.07(15)
B5 B4 B5 . . 7_555 107.60(14)
B5 B4 B2 . . . 107.87(15)
B5 B4 B3 . . . 59.17(12)
B5 B4 B2 7_555 . . 61.23(12)
B5 B4 B3 7_555 . . 108.44(15)
B2 B4 B3 . . . 60.14(12)
Fe1 B5 B4 . . . 167.86(13)
Fe1 B5 B4 . . 7_555 128.92(12)
Fe1 B5 B5 . . 5_455 67.35(10)
Fe1 B5 B5 . . 15_555 65.23(9)
Fe1 B5 B2 . . 7_555 77.04(10)
Fe1 B5 B3 . . . 107.53(12)
B4 B5 B4 . . 7_555 61.43(11)
B4 B5 B5 . . 5_455 114.84(15)
B4 B5 B5 . . 15_555 107.21(14)
B4 B5 B2 . . 7_555 107.87(14)
B4 B5 B3 . . . 60.62(12)
B4 B5 B5 7_555 . 5_455 119.83(15)
B4 B5 B5 7_555 . 15_555 107.29(13)
B4 B5 B2 7_555 . 7_555 59.37(11)
B4 B5 B3 7_555 . . 109.08(15)
B5 B5 B5 5_455 . 15_555 127.34(15)
B5 B5 B2 5_455 . 7_555 128.31(15)
B5 B5 B3 5_455 . . 119.27(14)
B5 B5 B2 15_555 . 7_555 59.24(11)
B5 B5 B3 15_555 . . 58.40(11)
B2 B5 B3 7_555 . . 106.23(15)
Fe1 B2 B4 3_554 . . 112.67(12)
Fe1 B2 B4 3_554 . 15_555 112.67(12)
Fe1 B2 B5 3_554 . 7_555 58.60(9)
Fe1 B2 B5 3_554 . 9_555 58.60(9)
Fe1 B2 B3 3_554 . . 162.79(14)
Fe1 B2 B1 3_554 . . 69.91(7)
B4 B2 B4 . . 15_555 109.85(16)
B4 B2 B5 . . 7_555 59.40(11)
B4 B2 B5 . . 9_555 109.15(15)
B4 B2 B3 . . . 60.38(12)
B4 B2 B1 . . . 122.19(15)
B4 B2 B5 15_555 . 7_555 109.15(15)
B4 B2 B5 15_555 . 9_555 59.40(11)
B4 B2 B3 15_555 . . 60.38(12)
B4 B2 B1 15_555 . . 122.19(15)
B5 B2 B5 7_555 . 9_555 61.52(12)
B5 B2 B3 7_555 . . 107.19(15)
B5 B2 B1 7_555 . . 117.57(14)
B5 B2 B3 9_555 . . 107.19(15)
B5 B2 B1 9_555 . . 117.57(14)
B3 B2 B1 . . . 127.30(16)
B4 B3 B4 . . 15_555 108.38(15)
B4 B3 B5 . . . 60.21(12)
B4 B3 B5 . . 15_555 110.67(15)
B4 B3 B2 . . . 59.48(12)
B4 B3 B3 . . 7_556 122.48(16)
B4 B3 B5 15_555 . . 110.67(15)
B4 B3 B5 15_555 . 15_555 60.21(12)
B4 B3 B2 15_555 . . 59.48(12)
B4 B3 B3 15_555 . 7_556 122.48(16)
B5 B3 B5 . . 15_555 63.19(12)
B5 B3 B2 . . . 108.17(15)
B5 B3 B3 . . 7_556 116.58(15)
B5 B3 B2 15_555 . . 108.17(15)
B5 B3 B3 15_555 . 7_556 116.58(15)
B2 B3 B3 . . 7_556 126.84(16)
Fe1 B1 Fe1 3_554 . 3_555 180.0(5)
Fe1 B1 B2 3_554 . . 70.75(8)
Fe1 B1 B2 3_554 . 2_545 70.75(8)
Fe1 B1 B2 3_554 . 5_555 109.25(8)
Fe1 B1 B2 3_554 . 6_545 109.25(8)
Fe1 B1 B2 3_555 . . 109.25(8)
Fe1 B1 B2 3_555 . 2_545 109.25(8)
Fe1 B1 B2 3_555 . 5_555 70.75(8)
Fe1 B1 B2 3_555 . 6_545 70.75(8)
B2 B1 B2 . . 2_545 141.50(11)
B2 B1 B2 . . 5_555 96.24(10)
B2 B1 B2 . . 6_545 96.24(10)
B2 B1 B2 2_545 . 5_555 96.24(10)
B2 B1 B2 2_545 . 6_545 96.24(10)
B2 B1 B2 5_555 . 6_545 141.50(11)
loop_
_geom_bond_atom_site_label_1
_geom_bond_atom_site_label_2
_geom_bond_site_symmetry_1
_geom_bond_site_symmetry_2
_geom_bond_distance
Fe1 B5 . . 2.193(2)
Fe1 B5 . 2_455 2.193(2)
Fe1 B5 . 5_455 2.193(2)
Fe1 B5 . 6_555 2.193(2)
Fe1 B5 . 11_455 2.193(2)
Fe1 B5 . 12_555 2.193(2)
Fe1 B5 . 15_555 2.193(2)
Fe1 B5 . 16_455 2.193(2)
Fe1 B2 . 3_455 2.504(2)
Fe1 B2 . 4_555 2.504(2)
Fe1 B2 . 7_555 2.504(2)
Fe1 B2 . 8_455 2.504(2)
Fe1 B1 . 3_454 2.4910(2)
Fe1 B1 . 3_455 2.4910(2)
B4 B4 . 6_545 1.923(3)
B4 B4 . 7_555 1.807(3)
B4 B5 . . 1.773(3)
B4 B5 . 7_555 1.764(3)
B4 B2 . . 1.764(3)
B4 B3 . . 1.780(3)
B5 B5 . 5_455 1.689(3)
B5 B5 . 15_555 1.838(3)
B5 B2 . 7_555 1.797(3)
B5 B3 . . 1.754(3)
B2 B3 . . 1.776(3)
B2 B1 . . 1.682(2)
B3 B3 . 7_556 1.645(3)
loop_
_refln_index_h
_refln_index_k
_refln_index_l
_refln_F_squared_calc
_refln_F_squared_meas
_refln_F_squared_sigma
_refln_observed_status
1 0 1 497.81 508.04 12.49 o
1 0 3 435.89 429.14 13.77 o
1 0 5 58.72 61.35 4.88 o
1 0 7 21.65 20.83 3.48 o
1 1 2 807.70 758.48 15.58 o
1 1 3 396.97 432.14 15.21 o
1 1 4 277.78 258.12 7.24 o
1 1 5 9.97 8.27 1.27 o
1 1 6 91.60 73.25 4.12 o
1 1 7 153.32 171.11 11.42 o
2 0 0 174.73 162.93 4.68 o
2 0 2 194.29 226.43 3.82 o
2 0 6 619.03 684.34 21.65 o
2 1 1 385.69 367.10 4.80 o
2 1 2 7.19 10.05 0.76 o
2 1 3 143.96 145.97 3.63 o
2 1 4 25.73 20.63 2.02 o
2 1 5 52.86 45.50 2.46 o
2 1 6 43.58 37.69 2.82 o
2 1 7 38.66 37.51 3.47 o
2 2 0 544.06 572.80 13.15 o
2 2 1 0.05 0.08 0.12 <
2 2 2 601.19 664.24 15.04 o
2 2 3 0.65 0.27 0.21 <
2 2 4 429.85 435.21 11.41 o
2 2 5 0.65 0.44 0.63 <
2 2 6 150.72 145.48 9.22 o
2 2 7 0.12 -0.18 0.77 <
3 0 1 188.45 156.43 3.64 o
3 0 3 151.31 130.05 4.06 o
3 0 5 105.83 104.85 5.23 o
3 1 0 1206.67 1254.02 19.33 o
3 1 1 1055.67 1268.17 7.94 o
3 1 2 686.39 685.01 8.77 o
3 1 3 1363.08 1312.48 19.25 o
3 1 4 220.28 230.01 6.29 o
3 1 5 25.85 29.30 2.80 o
3 1 6 65.37 54.86 4.18 o
3 1 7 306.82 355.34 19.69 o
3 2 1 55.52 34.68 2.36 o
3 2 2 22.39 25.27 1.26 o
3 2 3 252.02 227.81 5.52 o
3 2 4 5.70 7.71 0.89 o
3 2 5 208.35 212.46 6.34 o
3 2 6 1.19 1.69 0.63 o
3 2 7 26.90 26.28 4.55 o
3 3 1 544.78 617.19 14.75 o
3 3 2 575.05 572.93 14.45 o
3 3 3 1315.39 1319.27 28.66 o
3 3 4 159.94 173.61 7.09 o
3 3 5 213.42 222.84 8.19 o
3 3 6 57.89 64.51 6.16 o
3 3 7 189.34 207.39 12.73 o
4 0 0 361.74 385.02 10.54 o
4 0 2 764.59 837.85 13.47 o
4 0 4 678.05 745.19 14.78 o
4 0 6 31.22 17.11 1.71 o
4 1 1 1404.56 1599.64 16.91 o
4 1 2 75.69 81.64 2.48 o
4 1 3 61.13 87.65 2.40 o
4 1 4 4.87 5.17 0.60 o
4 1 5 45.70 44.52 2.90 o
4 1 6 24.07 24.53 3.02 o
4 1 7 1.20 1.58 1.37 <
4 2 0 1026.07 993.27 21.52 o
4 2 1 0.71 1.60 0.33 o
4 2 2 546.51 541.89 9.82 o
4 2 3 0.15 0.23 0.25 <
4 2 4 134.85 136.69 4.46 o
4 2 5 1.36 1.26 0.48 o
4 2 6 47.76 57.95 4.36 o
4 2 7 0.51 0.51 0.77 <
4 3 1 399.11 381.23 9.07 o
4 3 2 624.23 627.34 10.02 o
4 3 3 179.16 192.90 5.39 o
4 3 4 254.32 286.66 7.18 o
4 3 5 17.60 18.41 1.62 o
4 3 6 35.34 37.90 2.68 o
4 3 7 1.51 1.73 0.55 o
4 4 1 23.39 23.48 2.47 o
4 4 2 639.58 555.12 15.26 o
4 4 3 23.66 23.94 2.60 o
4 4 4 1.68 2.48 0.76 o
4 4 5 9.97 9.64 1.76 o
4 4 6 0.04 1.36 0.70 <
4 4 7 18.60 23.95 4.10 o
5 0 1 1661.09 1604.30 23.48 o
5 0 3 1.18 1.85 0.61 o
5 0 5 169.41 168.69 5.47 o
5 1 0 516.41 540.25 10.06 o
5 1 1 57.13 70.22 2.06 o
5 1 2 502.58 553.02 7.87 o
5 1 3 75.41 84.10 2.64 o
5 1 4 302.36 322.65 5.78 o
5 1 5 3.13 1.87 0.33 o
5 1 6 55.04 52.63 4.37 o
5 1 7 25.90 27.51 6.32 o
5 2 1 838.18 762.66 11.70 o
5 2 2 926.76 942.35 15.57 o
5 2 3 138.77 139.63 4.58 o
5 2 4 254.75 272.31 6.82 o
5 2 5 11.45 11.79 1.50 o
5 2 6 117.95 120.04 6.85 o
5 2 7 31.55 31.58 5.75 o
5 3 0 573.99 592.67 15.52 o
5 3 1 1.27 0.29 0.27 <
5 3 2 405.35 456.07 9.45 o
5 3 3 6.91 8.24 1.05 o
5 3 4 177.00 201.96 6.24 o
5 3 5 62.51 70.65 3.53 o
5 3 6 63.57 70.69 4.05 o
5 3 7 6.55 13.66 3.74 o
5 4 1 147.85 111.76 6.00 o
5 4 2 42.24 35.43 2.95 o
5 4 3 326.94 336.31 7.25 o
5 4 4 15.70 15.74 1.23 o
5 4 5 802.86 893.17 16.87 o
5 4 6 3.86 3.57 0.77 o
5 4 7 86.58 90.08 8.93 o
5 5 1 2.38 3.55 1.14 o
5 5 2 329.52 311.92 11.98 o
5 5 3 0.08 0.25 0.42 <
5 5 4 7.62 8.65 1.42 o
5 5 5 13.67 17.42 2.68 o
5 5 6 34.50 35.02 3.68 o
6 0 0 153.45 159.65 7.10 o
6 0 2 16.05 28.60 2.05 o
6 0 4 816.88 784.24 17.19 o
6 1 1 37.98 26.48 1.37 o
6 1 2 432.39 428.14 6.55 o
6 1 3 258.88 280.92 6.19 o
6 1 4 93.12 100.80 3.17 o
6 1 5 562.29 480.74 10.54 o
6 1 6 81.58 66.71 3.78 o
6 2 0 3186.36 3083.92 61.84 o
6 2 1 19.83 18.97 1.29 o
6 2 2 1039.48 944.23 13.32 o
6 2 3 12.94 14.95 1.39 o
6 2 4 17.89 21.95 2.28 o
6 2 5 22.18 18.48 1.85 o
6 2 6 156.29 157.80 10.53 o
6 3 1 839.04 796.25 14.37 o
6 3 2 270.29 264.82 7.04 o
6 3 3 29.43 31.09 2.25 o
6 3 4 72.47 92.78 4.18 o
6 3 5 56.65 64.79 4.30 o
6 3 6 41.47 50.97 4.57 o
6 4 0 18.37 27.04 2.95 o
6 4 1 0.00 0.79 0.56 <
6 4 2 62.10 68.36 4.96 o
6 4 3 2.39 2.10 0.56 o
6 4 4 618.26 691.14 13.12 o
6 4 5 7.35 8.68 1.39 o
6 4 6 512.11 569.08 15.68 o
6 5 1 274.49 211.29 9.88 o
6 5 2 20.90 20.13 2.37 o
6 5 3 56.19 55.20 3.65 o
6 5 4 2.56 0.85 0.56 <
6 5 5 1.80 1.11 0.61 <
6 5 6 31.11 40.62 3.63 o
6 6 2 500.24 399.65 15.93 o
6 6 3 127.57 120.64 7.93 o
6 6 4 113.06 126.50 8.23 o
6 6 5 11.43 17.73 4.77 o
7 0 1 5.11 3.37 0.78 o
7 0 3 171.12 170.35 5.96 o
7 0 5 362.62 334.54 11.17 o
7 1 0 384.18 370.67 8.88 o
7 1 1 9.74 11.68 0.96 o
7 1 2 243.58 245.80 4.96 o
7 1 3 7.97 10.52 1.13 o
7 1 4 120.29 121.32 4.35 o
7 1 5 9.51 6.85 1.00 o
7 2 1 188.77 185.76 4.64 o
7 2 2 281.20 299.52 6.33 o
7 2 3 92.21 97.78 3.64 o
7 2 4 138.45 162.45 5.27 o
7 2 5 22.06 22.76 3.04 o
7 2 6 15.82 11.89 2.80 o
7 3 0 103.26 91.99 5.72 o
7 3 1 8.32 6.60 0.96 o
7 3 2 235.84 228.14 6.94 o
7 3 3 34.43 36.99 3.03 o
7 3 4 360.20 408.62 10.18 o
7 3 5 12.66 12.51 1.86 o
7 3 6 106.90 127.18 11.15 o
7 4 1 210.94 178.20 6.57 o
7 4 2 4.63 6.60 1.31 o
7 4 3 36.28 33.41 2.88 o
7 4 4 5.34 4.88 0.98 o
7 4 5 6.51 6.51 1.76 o
7 4 6 0.03 -1.08 1.17 <
7 5 0 352.58 287.96 13.12 o
7 5 1 101.16 74.14 5.70 o
7 5 2 278.95 267.34 11.62 o
7 5 3 207.78 170.99 6.53 o
7 5 4 121.72 118.80 7.20 o
7 5 5 0.02 -1.67 2.61 <
7 5 6 23.14 25.89 5.17 o
7 6 1 600.29 481.57 19.04 o
7 6 2 96.46 70.32 6.15 o
7 6 3 39.20 35.02 4.57 o
7 6 4 30.33 23.53 3.32 o
8 0 0 981.22 1073.93 26.98 o
8 0 2 403.21 425.95 10.21 o
8 0 4 14.56 19.04 3.45 o
8 1 1 243.60 258.43 5.33 o
8 1 2 8.99 8.05 0.86 o
8 1 3 93.64 99.34 3.67 o
8 1 4 39.35 35.78 3.05 o
8 1 5 3.72 3.87 1.15 o
8 2 0 139.45 128.24 5.23 o
8 2 1 9.11 11.61 1.17 o
8 2 2 184.19 203.17 5.33 o
8 2 3 36.82 40.73 2.51 o
8 2 4 211.19 207.85 7.73 o
8 2 5 10.69 5.17 2.08 o
8 3 1 388.27 393.24 9.04 o
8 3 2 19.35 18.46 1.82 o
8 3 3 29.29 30.04 2.80 o
8 3 4 6.28 7.50 1.82 o
8 3 5 8.17 6.80 2.73 o
8 4 0 243.87 195.35 9.60 o
8 4 1 107.71 91.34 4.59 o
8 4 2 275.54 262.78 8.21 o
8 4 3 238.85 222.22 10.23 o
8 4 4 190.04 220.44 11.12 o
8 4 5 0.32 -0.12 1.22 <
8 4 6 23.56 26.07 6.22 o
8 5 1 0.44 -0.16 0.43 <
8 5 2 251.95 209.23 15.45 o
8 5 3 50.23 49.44 5.63 o
8 5 4 132.16 120.22 8.22 o
8 5 5 159.87 158.98 16.10 o
8 6 1 0.52 0.64 1.14 <
8 6 4 86.72 50.15 5.39 o
9 0 1 0.14 -0.25 0.33 <
9 0 3 246.54 262.88 10.44 o
9 0 5 222.34 277.60 15.57 o
9 1 0 1235.34 1333.24 23.21 o
9 1 1 145.94 155.80 4.24 o
9 1 2 430.07 440.65 8.75 o
9 1 3 481.65 519.16 11.53 o
9 1 4 0.89 0.62 0.50 <
9 1 5 67.77 70.30 4.89 o
9 2 1 278.31 298.69 6.79 o
9 2 2 72.81 78.60 3.68 o
9 2 3 46.00 50.04 3.34 o
9 2 4 5.55 7.54 1.76 o
9 2 5 1.20 1.07 0.78 <
9 3 0 219.69 179.65 9.49 o
9 3 1 191.03 200.85 7.33 o
9 3 2 198.93 192.18 7.19 o
9 3 3 550.76 604.52 18.62 o
9 3 4 123.65 136.78 7.15 o
9 4 1 202.27 174.35 8.09 o
9 4 2 287.33 284.38 12.67 o
9 4 3 4.66 3.68 1.30 o
9 4 4 125.60 149.41 9.58 o
9 5 1 85.38 63.12 9.02 o
9 5 3 241.62 167.90 11.73 o
9 5 4 620.08 542.08 21.79 o
10 0 0 185.81 197.94 10.08 o
10 0 2 134.04 142.40 7.83 o
10 0 4 81.66 100.61 9.50 o
10 1 1 131.18 137.74 4.77 o
10 1 2 104.88 113.33 4.93 o
10 1 3 29.69 30.00 2.47 o
10 1 4 11.30 11.49 1.74 o
10 1 5 4.89 4.97 2.10 o
10 2 0 221.63 203.36 8.69 o
10 2 1 261.79 265.78 8.39 o
10 2 2 202.34 195.72 6.85 o
10 2 3 537.72 603.41 14.85 o
10 2 4 117.69 140.40 8.00 o
10 2 5 0.46 0.35 0.63 <
10 3 1 0.27 -0.37 1.01 <
10 3 2 8.58 6.73 1.58 o
10 3 3 99.95 107.78 7.08 o
10 3 4 12.06 9.86 2.04 o
10 4 2 98.44 108.54 7.78 o
10 4 3 174.86 162.25 9.21 o
10 5 3 24.58 24.97 4.31 o
11 0 1 254.02 224.74 15.90 o
11 0 3 10.35 5.78 1.67 o
11 1 1 13.50 9.44 2.17 o
11 1 2 27.64 29.87 2.97 o
11 1 3 26.66 17.57 2.06 o
11 1 4 567.62 648.57 16.94 o
11 2 1 7.19 5.60 2.16 o
11 2 2 13.22 13.18 2.02 o
11 2 3 26.42 28.36 2.83 o
11 2 4 6.20 7.38 1.85 o
11 3 2 197.99 214.05 14.74 o
11 3 3 31.95 32.37 4.92 o
11 3 4 0.22 -0.07 0.83 <
11 4 2 12.64 13.75 3.63 o
11 4 3 95.49 96.56 8.97 o
11 5 3 0.00 -0.39 1.10 <
12 0 4 1.85 0.52 0.86 <
12 1 3 20.38 22.47 4.14 o
12 1 4 21.67 23.34 3.48 o
12 2 3 221.49 247.02 14.82 o
12 3 3 89.81 101.39 9.75 o
