#------------------------------------------------------------------------------
#$Date: 2021-04-14 12:55:41 +0300 (Wed, 14 Apr 2021) $
#$Revision: 264150 $
#$URL: file:///home/coder/svn-repositories/cod/cif/1/56/17/1561755.cif $
#------------------------------------------------------------------------------
#
# This file is available in the Crystallography Open Database (COD),
# http://www.crystallography.net/
#
# All data on this site have been placed in the public domain by the
# contributors.
#
data_1561755
loop_
_publ_author_name
'Bykova, E.'
'Gou, H.'
'Bykov, M.'
'Hanfland, M.'
'Dubrovinsky, L.'
'Dubrovinskaia, N.'
_publ_section_title
;
 Crystal structures and compressibility of novel iron borides Fe2B7 and Fe
 B50 synthesized at high pressure and high temperature
;
_journal_name_full               'Journal of Solid State Chemistry'
_journal_page_first              102
_journal_page_last               109
_journal_paper_doi               10.1016/j.jssc.2015.06.040
_journal_volume                  230
_journal_year                    2015
_chemical_formula_moiety         'B50 Fe1.04'
_chemical_formula_sum            'B50 Fe1.04'
_chemical_formula_weight         598.58
_chemical_name_common            'Iron Boron (1.04/50)'
_chemical_name_systematic        'Iron Boron (1.04/50)'
_space_group_crystal_system      tetragonal
_space_group_IT_number           134
_space_group_name_Hall           '-P 4ac 2bc'
_space_group_name_H-M_alt        'P 42/n n m :2'
_atom_sites_solution_hydrogens   .
_atom_sites_solution_primary     direct
_atom_sites_solution_secondary   difmap
_audit_creation_method           SHELXL-2014/7
_cell_angle_alpha                90
_cell_angle_beta                 90
_cell_angle_gamma                90
_cell_formula_units_Z            1
_cell_length_a                   8.9731(3)
_cell_length_b                   8.9731(3)
_cell_length_c                   5.0587(3)
_cell_measurement_reflns_used    795
_cell_measurement_temperature    296(2)
_cell_measurement_theta_max      32.8270
_cell_measurement_theta_min      3.2060
_cell_volume                     407.31(3)
_computing_cell_refinement
;
CrysAlisPro, Agilent Technologies,
Version 1.171.36.28 (release 01-02-2013 CrysAlis171 .NET)
(compiled Feb  1 2013,16:14:44)
;
_computing_data_collection
;
CrysAlisPro, Agilent Technologies,
Version 1.171.36.28 (release 01-02-2013 CrysAlis171 .NET)
(compiled Feb  1 2013,16:14:44)
;
_computing_data_reduction
;
CrysAlisPro, Agilent Technologies,
Version 1.171.36.28 (release 01-02-2013 CrysAlis171 .NET)
(compiled Feb  1 2013,16:14:44)
;
_computing_structure_refinement  'SHELXL-2014/7 (Sheldrick, 2014)'
_computing_structure_solution    'SHELXS-2013 (Sheldrick, 2013)'
_diffrn_ambient_temperature      296(2)
_diffrn_detector_area_resol_mean 8.3370
_diffrn_measured_fraction_theta_full 1.000
_diffrn_measured_fraction_theta_max 0.980
_diffrn_measurement_device_type  'Xcalibur, Sapphire2, large Be window'
_diffrn_measurement_method       '\w scans'
_diffrn_radiation_monochromator  graphite
_diffrn_radiation_probe          x-ray
_diffrn_radiation_type           MoK\a
_diffrn_radiation_wavelength     0.71073
_diffrn_reflns_av_R_equivalents  0.0440
_diffrn_reflns_av_unetI/netI     0.0475
_diffrn_reflns_Laue_measured_fraction_full 1.000
_diffrn_reflns_Laue_measured_fraction_max 0.980
_diffrn_reflns_limit_h_max       9
_diffrn_reflns_limit_h_min       -10
_diffrn_reflns_limit_k_max       9
_diffrn_reflns_limit_k_min       -13
_diffrn_reflns_limit_l_max       7
_diffrn_reflns_limit_l_min       -5
_diffrn_reflns_number            1719
_diffrn_reflns_point_group_measured_fraction_full 1.000
_diffrn_reflns_point_group_measured_fraction_max 0.980
_diffrn_reflns_theta_full        25.000
_diffrn_reflns_theta_max         33.706
_diffrn_reflns_theta_min         3.211
_diffrn_source                   'Enhance (Mo) X-ray Source'
_exptl_absorpt_coefficient_mu    0.972
_exptl_absorpt_correction_T_max  1.00000
_exptl_absorpt_correction_T_min  0.97740
_exptl_absorpt_correction_type   multi-scan
_exptl_absorpt_process_details
;
CrysAlisPro, Agilent Technologies,
Version 1.171.36.28 (release 01-02-2013 CrysAlis171 .NET)
(compiled Feb  1 2013,16:14:44)
Empirical absorption correction using spherical harmonics,
 implemented in SCALE3 ABSPACK scaling algorithm.
;
_exptl_crystal_colour            black
_exptl_crystal_density_diffrn    2.440
_exptl_crystal_description       prism
_exptl_crystal_F_000             277
_exptl_crystal_size_max          0.110
_exptl_crystal_size_mid          0.100
_exptl_crystal_size_min          0.040
_refine_diff_density_max         0.772
_refine_diff_density_min         -0.288
_refine_diff_density_rms         0.112
_refine_ls_extinction_coef       .
_refine_ls_extinction_method     none
_refine_ls_goodness_of_fit_ref   1.154
_refine_ls_hydrogen_treatment    .
_refine_ls_matrix_type           full
_refine_ls_number_parameters     36
_refine_ls_number_reflns         431
_refine_ls_number_restraints     0
_refine_ls_restrained_S_all      1.154
_refine_ls_R_factor_all          0.0617
_refine_ls_R_factor_gt           0.0448
_refine_ls_shift/su_max          0.000
_refine_ls_shift/su_mean         0.000
_refine_ls_structure_factor_coef Fsqd
_refine_ls_weighting_details
'w=1/[\s^2^(Fo^2^)+(0.0540P)^2^+0.1238P] where P=(Fo^2^+2Fc^2^)/3'
_refine_ls_weighting_scheme      calc
_refine_ls_wR_factor_gt          0.1076
_refine_ls_wR_factor_ref         0.1151
_reflns_Friedel_coverage         0.000
_reflns_Friedel_fraction_full    .
_reflns_Friedel_fraction_max     .
_reflns_number_gt                344
_reflns_number_total             431
_reflns_threshold_expression     'I > 2\s(I)'
_cod_data_source_file            Fe1_04B50_300K.cif
_cod_data_source_block           Fe1.04B50
_cod_original_cell_volume        407.31(4)
_cod_original_sg_symbol_H-M      'P 42/n n m'
_cod_database_code               1561755
_shelx_shelxl_version_number     2014/7
_shelx_space_group_comment
;
The symmetry employed for this shelxl refinement is uniquely defined
by the following loop, which should always be used as a source of
symmetry information in preference to the above space-group names.
They are only intended as comments.
;
_shelx_estimated_absorpt_t_min   0.901
_shelx_estimated_absorpt_t_max   0.962
_shelx_res_file
;

    dc_FeB_t50_2.res created by SHELXL-2014/7

TITL dc_FeB_t50_2 in P4(2)/nnm
CELL 0.71073 8.9731 8.9731 5.0587 90.000 90.000 90.000
ZERR 1.0000 0.0003 0.0003 0.0003 0.000 0.000 0.000
LATT 1
SYMM 0.5-Y, X, 0.5+Z
SYMM 0.5-X, 0.5-Y, Z
SYMM Y, 0.5-X, 0.5+Z
SYMM X, 0.5-Y, 0.5-Z
SYMM 0.5-X, Y, 0.5-Z
SYMM Y, X, -Z
SYMM 0.5-Y, 0.5-X, -Z
SFAC B FE
UNIT 50 1.04
MERG 2
FMAP 2
GRID
PLAN 20
TEMP 23
SIZE 0.11 0.1 0.04
L.S. 10
ACTA 50
WGHT    0.054000    0.123800
FVAR       2.35120   0.51894
FE1   2   -0.250000    0.250000    0.250000    20.12500    0.00467    0.00467 =
         0.03368    0.00000    0.00000    0.00000
B1    1    0.250000   -0.250000    0.250000    10.12500    0.00713    0.00713 =
         0.00795    0.00000    0.00000    0.00000
B2    1    0.122137   -0.122137    0.138234    10.50000    0.00680    0.00680 =
         0.00730   -0.00027    0.00027    0.00022
B3    1    0.003337   -0.003337    0.335292    10.50000    0.00572    0.00572 =
         0.00661   -0.00063    0.00063    0.00086
B4    1   -0.072780   -0.154614    0.146947    11.00000    0.00627    0.01257 =
         0.01093   -0.00642    0.00117   -0.00107
B5    1   -0.167690    0.021556    0.164036    11.00000    0.00704    0.00802 =
         0.00643    0.00002    0.00041   -0.00144
HKLF 4

REM  dc_FeB_t50_2 in P4(2)/nnm
REM R1 =  0.0448 for     344 Fo > 4sig(Fo)  and  0.0617 for all     431 data
REM     36 parameters refined using      0 restraints

END

WGHT      0.0540      0.1238

REM Highest difference peak  0.772,  deepest hole -0.288,  1-sigma level  0.112
Q1    1  -0.1329 -0.2500  0.2500  10.50000  0.05    0.77
Q2    1   0.3158 -0.3158  0.2487  10.50000  0.05    0.44
Q3    1  -0.0624 -0.2500  0.2500  10.50000  0.05    0.37
Q4    1   0.0159 -0.1303  0.2065  11.00000  0.05    0.35
Q5    1   0.0000  0.0000  0.5000  10.25000  0.05    0.33
Q6    1  -0.2500  0.0165  0.2500  10.50000  0.05    0.33
Q7    1  -0.2996  0.2996  0.2186  10.50000  0.05    0.32
Q8    1  -0.0798  0.0318  0.2415  11.00000  0.05    0.30
Q9    1  -0.0483  0.0483  0.2443  10.50000  0.05    0.27
Q10   1  -0.0951 -0.0591  0.2539  11.00000  0.05    0.27
Q11   1  -0.1287 -0.1287  0.0000  10.50000  0.05    0.25
Q12   1   0.1116 -0.1116 -0.0486  10.50000  0.05    0.25
Q13   1  -0.1519  0.0261 -0.0253  11.00000  0.05    0.24
Q14   1  -0.1171 -0.0517  0.0858  11.00000  0.05    0.23
Q15   1  -0.1175  0.1175  0.2060  10.50000  0.05    0.23
Q16   1  -0.1720 -0.1427  0.2763  11.00000  0.05    0.21
Q17   1  -0.1629 -0.0810  0.1697  11.00000  0.05    0.21
Q18   1  -0.2228  0.2772  0.0441  10.50000  0.05    0.21
Q19   1   0.2500 -0.2500  0.1454  10.25000  0.05    0.20
Q20   1  -0.0726 -0.1857  0.0081  11.00000  0.05    0.17
;
_shelx_res_checksum              10511
_shelx_hkl_file
;
   0   0   1 16.2772 9.96422   1
   0   0  -1 12.4840 9.55967   6
   0   0  -2 33130.2 286.889   6
   0   0   2 32944.5 290.684   1
   0   0   3 28.9875 19.6408   1
   0   0  -3 6.43184 16.4646   6
   0   0   4 7438.24 203.763   1
   0   0  -4 7590.38 202.472   6
   0   0   6 8264.14 279.534   3
   0   0   7 18.9887 33.4541   3
  -1   0   0 0.01955 5.61219   6
   0   1   0 2.28402 5.79965   2
  -1   0  -1 1550.86 47.5251   6
   0   1  -1 1546.34 41.2255   6
   1   0   1 1514.38 42.4201   1
  -1   0   1 1509.19 46.7903   1
   0   1   1 1548.67 48.3187   1
   0  -1  -1 1528.14 47.3138   6
   0   1   2 0.13823 14.6186   1
   0  -1  -2 3.71871 12.8950   6
   1   0   2 9.04523 14.4813   1
  -1   0  -2-7.82122 13.7517   6
  -1   0   2 5.54921 13.4271   1
   0   1  -2-5.34136 12.1030   6
   0   1   3 1602.08 82.0236   1
  -1   0  -3 1352.57 75.0028   6
   1   0   3 1509.75 77.1789   1
   0   1  -3 1382.05 72.0031   6
  -1   0   3 1491.03 80.0325   1
   0  -1  -3 1483.51 79.1321   6
  -1   0   4 5.27598 21.4577   1
   0   1   4-24.8754 26.8634   1
  -1   0  -4 5.00251 17.3603   6
   0  -1   4 16.0445 23.6275   3
   1   0   4-0.14162 16.6399   1
   0  -1  -4-11.3828 22.4643   6
   0  -1   5 149.662 37.3122   3
   1   0   5 74.7956 30.5054   1
  -1   0  -5 209.752 45.1454   6
   0  -1   6 23.7721 30.4045   3
   1   0   6 49.2184 34.6588   3
   1   0   7 234.297 63.9924   3
  -1   0   7 226.107 56.7067   3
   0   1   7 362.596 75.5015   3
   0  -1   7 146.591 57.3135   3
   1   1   0 6047.75 74.4336   2
  -1  -1   0 6021.85 75.6846   6
  -1   1   0 5993.16 60.6731   6
  -1   1  -1 4652.52 73.4540   6
  -1  -1  -1 4541.37 87.3354   6
  -1   1   1 4613.72 82.5885   1
  -1   1   2 2784.46 88.6798   1
  -1   1  -2 2882.84 82.6574   6
  -1  -1  -2 3069.57 93.3581   6
   1  -1   2 2779.86 82.6466   1
   1   1   2 2783.75 86.1936   1
  -1  -1  -3 2338.36 99.5297   6
  -1   1  -3 2374.83 94.7127   6
   1   1   3 2328.38 97.1848   1
   1  -1   3 2267.01 94.1166   1
  -1   1   3 2253.56 99.2059   1
  -1  -1  -4 836.938 71.0150   6
  -1   1  -4 755.811 64.5470   6
   1  -1   4 820.595 70.4069   3
  -1   1   4 841.588 73.8722   1
   1   1   4 792.353 68.8589   1
   1  -1   5 37.2928 29.9724   3
  -1  -1   5 20.5835 23.0316   3
  -1   1  -5 102.518 32.6239   6
   1  -1   6 231.707 56.9090   3
  -1  -1   6 196.644 46.2146   3
  -1  -1   7 637.009 92.7932   3
  -1   1   7 609.277 90.2486   3
   1   1   7 547.967 85.5416   3
   1  -1   7 661.437 95.1091   3
   0   2   0 2500.24 59.2553   2
   0  -2   0 2486.99 34.0493   6
   2   0   0 2523.70 35.9073   2
  -2   0   0 2372.14 61.1078   6
   2   0   1 4.43432 9.78915   1
  -2   0  -1 2.44682 12.8012   6
   0  -2  -1-6.54737 11.0714   6
   2   0   2 545.662 37.3671   1
  -2   0  -2 561.333 42.1268   6
  -2   0   2 472.568 38.9962   1
   0   2   2 485.193 39.7476   1
   0  -2  -2 489.481 39.4534   6
  -2   0  -3-0.42904 17.9203   6
   0   2   3 8.15679 17.9439   1
   0  -2  -3-18.7998 16.8439   6
  -2   0   3-18.7597 15.3577   1
   2   0   3 9.98004 17.0986   1
  -2   0  -4 3568.38 142.078   6
   0   2   4 3278.01 139.940   1
   0  -2  -4 3587.83 145.862   6
   0  -2   4 3396.72 139.387   3
   2   0   4 3490.58 135.729   1
   0  -2   5-12.2812 26.6833   3
   2   0   5 71.2881 35.7370   1
   2   0   5-11.1465 27.8638   3
   0  -2   6 2574.06 158.683   3
   2   0   6 2326.51 152.554   3
   0  -2   7 55.0897 41.9529   3
  -2   0   7 39.3794 40.1284   3
   2   0   7-12.7826 35.9088   3
   2   1   0-0.84990 8.81154   2
  -1  -2   0-3.02898 8.38286   6
  -2   1   0-8.58700 11.6471   6
   1   2   0 11.7545 11.9749   2
  -2  -1   0 0.04466 12.1325   6
  -2   1  -1 947.558 40.9644   6
  -1   2   1 1010.96 44.5568   1
  -1  -2  -1 1045.01 46.0447   6
  -1   2  -1 1078.14 31.6908   6
  -2   1   1 1020.32 41.2876   1
  -2  -1  -1 973.270 47.4221   6
   1   2   2 72.6030 19.2000   1
  -1   2   2 40.8344 14.2476   1
  -1   2  -2 55.9863 14.5563   6
   2   1   2 51.9914 15.8934   1
   1  -2  -2 66.2952 18.3819   6
   2  -1   2 57.7213 13.5895   1
  -2   1   2 32.8634 15.7796   1
  -2  -1  -2 48.2079 19.5993   6
  -2   1  -2 40.7185 12.7254   6
  -1  -2  -2 52.4302 16.4957   6
  -1  -2  -3 315.660 41.2705   6
   1  -2   3 277.154 38.4267   3
  -1   2   3 312.439 42.4615   1
  -2   1  -3 271.178 35.0887   6
   2  -1   3 268.417 32.8489   1
   2  -1   3 327.684 40.4858   3
   1   2   3 383.132 44.0030   1
  -1   2  -3 266.667 33.6920   6
   2   1   3 281.086 35.3450   1
  -2  -1  -3 272.710 38.7506   6
  -2   1   3 255.778 36.8579   1
   1  -2  -3 262.836 38.5191   6
   2  -1   4 190.236 39.8068   3
  -2   1   4 86.5987 31.0968   1
  -2  -1  -4 82.6689 27.4437   6
   2   1   4 118.305 28.2055   1
   1  -2   4 123.308 34.3750   3
  -1   2  -4 128.879 29.4696   6
   1   2   4 101.330 33.0705   1
  -1  -2  -4 120.867 32.1667   6
  -2   1  -4 98.8823 27.6155   6
  -1   2   4 210.321 41.7622   1
  -1  -2   4 143.861 33.7268   3
   2   1   5 100.052 37.1647   1
   2  -1   5 150.219 38.4198   3
  -1  -2   5 136.464 42.4452   3
   1  -2   5 130.293 42.2952   3
  -2   1  -5 87.2729 32.6404   6
   2   1   6 234.995 56.5953   3
  -1  -2   6 322.885 63.7973   3
   2  -1   6 258.816 56.1446   3
   1  -2   6 232.981 52.1220   3
  -2  -1   6 205.762 47.6581   3
  -2  -1   7 42.9416 36.6022   3
   2   1   7 54.8617 37.2771   3
  -1  -2   7 64.5885 48.6583   3
   2  -1   7 74.5863 49.6818   3
   1  -2   7 156.885 53.3697   3
   2   2   0 2032.37 62.4605   2
  -2  -2   0 2096.43 63.9200   6
  -2   2   0 2136.15 51.4671   6
  -2   2  -1 0.14551 8.85957   6
  -2  -2  -1 4.03567 14.3769   6
  -2   2   1 30.8763 13.4503   1
   2   2   2 2321.03 84.0504   1
  -2   2  -2 2442.11 75.9825   6
  -2  -2  -2 2332.87 89.4505   6
  -2   2   2 2369.30 85.7294   1
  -2  -2  -3 18.8071 17.7248   6
   2  -2   3 48.3681 24.6488   3
   2   2   3 20.0970 20.2518   1
  -2   2   3-26.0173 19.0715   1
  -2   2  -3-6.54455 15.8976   6
   2  -2   4 1437.36 95.0538   3
  -2  -2   4 1587.15 93.4602   3
   2   2   4 1688.81 100.148   1
  -2  -2  -4 1552.26 99.5296   6
  -2   2  -4 1637.06 93.8263   6
  -2   2   4 1645.70 102.083   1
  -2  -2   5-26.9377 22.1545   3
   2  -2   5-3.09425 23.9434   3
  -2  -2   6 326.023 60.3554   3
   2  -2   6 478.320 73.2477   3
  -2  -2   7 12.6580 47.2047   3
   2  -2   7 27.0746 34.9459   3
   2   2   7 36.3158 46.0143   3
   3   0   0-5.53138 6.47151   2
   0  -3   0 4.62718 5.11539   6
   0   3   0-11.4168 12.5197   2
  -3   0   0-19.0319 17.3554   6
   0  -3  -1 236.051 22.7292   6
  -3   0  -1 281.930 30.4070   6
   3   0   1 277.694 18.6218   1
   0   3  -1 258.361 26.9631   2
   0  -3  -2-10.2067 12.2671   6
  -3   0  -2 29.2701 17.3631   6
   3   0   2-8.88697 10.6502   1
   0   3   2-15.0994 16.3786   1
   3   0   3 313.697 36.1768   1
   3   0   3 217.270 36.0592   3
  -3   0  -3 243.680 37.3941   6
   0  -3  -3 201.189 33.5311   6
   0  -3   3 257.488 36.8495   3
   0   3   3 200.421 36.4197   1
   0  -3   4 6.48092 19.8621   3
   3   0   4 50.7514 27.9563   3
  -3   0  -4 5.09165 20.5030   6
   0   3   4 51.1448 25.8502   1
   3   0   4-1.63585 18.0675   1
   0  -3  -4-3.90160 18.0979   6
   0  -3   5 214.547 48.8479   3
   3   0   5 231.341 49.9058   3
   3   0   6-6.51356 32.4236   3
   0  -3   6 14.0783 27.5635   3
   3   0   7 107.891 47.8870   3
   0  -3   7 124.960 48.3111   3
  -3   0   7 57.5457 40.1553   3
  -3  -1   0 4517.79 107.355   6
  -1  -3   0 4819.93 80.3492   6
   1   3   0 4611.76 104.368   2
   3   1   0 4603.15 81.1909   2
  -3   1   0 4838.70 102.436   6
  -3  -1  -1 6777.66 137.945   6
  -1  -3   1 6828.08 100.347   6
  -1  -3  -1 6980.34 121.411   6
  -3  -1   1 7023.96 140.561   6
  -1   3  -1 7131.88 122.592   2
   1   3  -1 6802.94 135.062   2
  -3   1  -1 6749.37 124.801   6
  -3   1   1 6930.49 107.787   1
  -1   3  -1 6753.82 65.7599   6
  -1   3  -2 2535.40 70.1463   6
  -3   1   2 2342.52 84.9741   1
   3   1   2 2464.41 80.3712   1
   1   3   2 2482.47 93.7896   1
   1  -3  -2 2405.27 86.8130   6
  -1   3   2 2320.55 89.2858   1
  -3  -1  -2 2279.47 92.0409   6
  -3   1  -2 2413.49 86.6631   6
  -1  -3  -2 2245.03 85.9691   6
   3  -1   2 2534.72 73.1629   1
  -3   1  -3 6915.40 171.076   6
  -3   1   3 6792.34 174.968   1
   3   1   3 6698.15 160.994   1
   3  -1   3 6997.00 177.257   3
   1  -3  -3 6836.40 175.977   6
  -3  -1  -3 6732.49 177.944   6
   1  -3   3 6713.22 177.257   3
  -1  -3  -3 6630.51 175.923   6
  -1   3   3 6587.28 175.402   1
   1   3   3 6711.89 176.588   1
   3  -1   3 6809.61 154.626   1
  -3   1   4 658.924 65.9829   1
  -1  -3   4 631.847 63.3870   3
  -3  -1  -4 683.389 67.5042   6
  -3   1  -4 687.720 64.0661   6
  -1   3   4 717.058 71.0252   1
   1  -3   4 734.704 69.1790   3
   3   1   4 534.723 55.5100   1
   1   3   4 720.864 69.1948   1
   3  -1   4 616.038 63.8343   3
  -1  -3  -4 605.939 64.4829   6
   3  -1   5 126.764 41.2398   3
   3   1   5 154.046 43.2930   3
  -1  -3   5 61.3663 26.5857   3
  -3   1  -5 61.1853 27.2933   6
   1  -3   5 208.421 49.5459   3
   3   1   5 67.0806 29.7106   1
  -1  -3   6 153.318 50.4917   3
   3  -1   6 143.978 48.2612   3
   1  -3   6 219.464 55.8439   3
   3   1   6 245.151 58.2420   3
  -3  -1   6 204.815 50.5350   3
   3   1   7 1536.57 142.280   3
   1  -3   7 1141.89 122.250   3
  -1  -3   7 1244.20 124.647   3
   3  -1   7 1381.46 136.084   3
  -3   2   0-2.12572 4.57999   1
  -2  -3   0-17.6798 11.8046   6
  -3  -2   0 12.4972 14.8248   6
   2   3   0 11.7487 15.7290   2
  -3   2   0-2.03529 11.6598   6
  -2   3   0 1.19116 7.31535   6
   3   2   0 8.82227 10.3038   2
  -2   3  -1 5.43370 6.30183   6
  -3   2   1 17.3096 11.3656   1
   2   3  -1 18.0924 14.3227   2
  -3   2  -1 17.4320 10.9412   6
  -3  -2   1 3.82817 13.2698   6
  -2   3  -1 22.1031 10.7590   2
  -2  -3   1-1.90580 10.1669   6
  -2  -3  -1 1.74409 11.6709   6
  -3  -2  -1 18.3089 13.3196   6
  -3   2  -2 116.072 21.4193   6
  -2   3   2 105.328 23.1585   1
   3   2   2 96.5370 21.2870   1
  -2  -3  -2 49.7890 18.9161   6
  -3  -2  -2 69.5243 20.4208   6
  -3   2   2 106.193 23.4695   1
  -2   3  -2 98.5170 17.5410   6
  -2   3   3 682.848 59.0543   1
  -3   2   3 567.498 54.7084   1
   2  -3   3 604.347 57.5719   3
   3  -2   3 627.512 57.1511   3
   2   3   3 637.241 56.9818   1
   3   2   3 654.322 54.6176   1
  -3  -2  -3 640.291 59.0295   6
  -2  -3  -3 591.384 55.7400   6
  -3   2  -3 675.536 53.7954   6
  -3  -2  -4 58.3074 25.8899   6
  -3  -2   4 23.5347 18.6706   3
  -2  -3   4 16.7070 20.1815   3
   2  -3   4 59.8975 27.9772   3
  -3   2   4 31.0409 25.9334   1
  -2   3   4 30.2885 24.0042   1
   3   2   4 21.7201 23.4218   1
   3  -2   4 51.8924 27.7962   3
  -2  -3  -4 9.17129 23.2100   6
   2   3   4 62.1219 31.2999   1
  -2  -3   5 764.940 78.4482   3
   3  -2   5 689.973 78.1719   3
   2  -3   5 605.871 73.7841   3
   2  -3   6 7.86188 37.1481   3
   3  -2   6-15.1055 30.9045   3
   3   2   6 78.1040 44.1920   3
  -2  -3   6 42.7619 31.4333   3
   3  -2   7 17.4220 45.4433   3
  -2  -3   7 68.3488 41.3485   3
   2  -3   7 54.9249 41.4491   3
   3   2   7 37.9912 47.4362   3
  -3   3   0 3905.62 85.4907   6
   3   3   0 3881.42 104.708   2
  -3  -3   0 3871.59 106.369   6
  -3  -3  -1 3738.02 111.978   6
  -3   3  -1 3802.23 75.5381   2
   3   3  -1 3868.84 112.590   2
  -3   3   1 3771.99 91.1370   1
  -3  -3   1 3805.84 107.219   6
  -3   3  -1 3800.29 82.6499   6
  -3   3   2 2313.04 89.3003   1
  -3  -3  -2 2177.83 96.3630   6
  -3   3   3 7058.75 184.908   1
   3   3   3 6852.84 180.684   1
   3  -3   3 6831.40 190.541   3
  -3  -3  -3 7047.47 193.835   6
   3  -3   4 635.361 67.2736   3
  -3  -3  -4 549.590 64.1021   6
  -3   3   4 743.572 73.4082   1
   3   3   4 707.098 68.7285   1
   3  -3   5 1111.56 99.5751   3
   3  -3   6 212.598 58.7615   3
   3   3   7 821.197 109.711   3
   3  -3   7 740.686 102.650   3
   0  -4   0 1050.07 30.1103   6
   4   0   0 1139.17 33.7796   2
  -4   0   0 1062.07 59.9060   6
   0   4   0 1042.99 55.5984   2
   0   4  -1 2.06926 14.5377   2
   0  -4   1-3.76546 4.11516   6
   0  -4  -1 2.13219 8.99077   6
  -4   0  -1 2.56800 15.0048   6
  -4   0   1-13.8430 16.7037   6
   4   0   1 1.50120 6.79713   1
   0  -4  -2 3393.28 106.888   6
   4   0   2 3608.40 88.3879   1
  -4   0  -2 3475.94 117.710   6
   0  -4  -3-8.05980 17.7519   6
   0   4   3 48.9677 23.8955   1
   4   0   3-12.7767 18.2875   3
   0  -4   3-4.69877 18.4560   3
  -4   0  -3 66.0950 28.7058   6
   0  -4  -4 3142.44 143.756   6
   4   0   4 2984.16 136.322   3
  -4   0  -4 3014.03 138.469   6
   0  -4   4 3224.76 143.944   3
   0   4   4 3062.61 142.802   1
   4   0   5-2.09552 23.5961   3
   0  -4   5 17.3023 24.2892   3
   0  -4   6 46.2021 33.6350   3
   4   0   6 77.6234 43.7093   3
   4   0   7 50.6447 42.7833   3
   0  -4   7 48.7386 43.1519   3
  -4   1   0 1.00735 14.5191   6
   4   1   0-5.80872 8.94518   2
  -4  -1   0 31.0360 17.4268   6
   1   4   0-22.5335 15.3146   2
  -1  -4   0 0.44297 9.20854   6
   1   4  -1 6645.85 149.485   2
  -4  -1   1 6507.89 152.297   6
  -1   4  -1 6539.14 134.322   2
  -4   1  -1 6747.43 144.002   6
  -1  -4   1 6539.81 99.0247   6
  -4  -1  -1 6642.86 154.081   6
  -1  -4  -1 6488.67 124.743   6
   4   1   2 413.738 34.4252   1
   1  -4  -2 348.836 36.2290   6
  -4  -1  -2 356.282 42.1062   6
  -4   1   2 326.830 33.9578   1
  -4   1  -2 386.270 40.4053   6
  -1  -4  -2 285.127 33.3453   6
  -1   4   2 345.040 39.9425   1
  -1  -4  -3 194.427 33.1912   6
  -1  -4   3 167.852 31.5903   3
   4   1   3 197.572 30.8726   1
  -1   4   3 196.555 38.3083   1
   4   1   3 171.859 32.2705   3
  -4   1  -3 195.017 36.9272   6
   1  -4   3 205.431 37.2021   3
   4  -1   3 165.156 32.8745   3
  -4  -1  -3 190.368 36.0619   6
  -4   1   3 200.839 32.3795   1
   1  -4  -3 184.363 32.2040   6
   1   4   3 175.808 35.0330   1
   1  -4   4-1.20772 19.6893   3
  -1  -4  -4-21.7329 20.8032   6
  -4   1  -4 32.1664 22.2153   6
  -4  -1  -4 45.4809 25.3365   6
   4   1   4 52.5023 33.6520   3
   1   4   4 27.0328 22.5769   1
   4  -1   4 18.5298 22.2689   3
  -1  -4   4 11.7093 19.7609   3
  -1   4   4 46.0188 34.4723   1
   4   1   5 347.246 57.4964   3
   1  -4   5 307.093 55.8445   3
  -1  -4   5 366.781 56.7747   3
   4  -1   5 344.996 58.4143   3
  -1  -4   6 110.109 44.9114   3
   4   1   6 89.6696 44.3845   3
   4  -1   6 154.025 51.2627   3
   1  -4   6 151.071 48.4479   3
   4  -1   7 11.7322 50.3097   3
   4   1   7-23.3309 46.0715   3
   1  -4   7-21.8792 40.5425   3
  -1  -4   7 20.4286 36.4872   3
  -4   2   0 4675.19 114.974   6
   2   4   0 4376.00 120.667   2
  -2  -4   0 4647.95 102.710   6
   4   2   0 4635.13 104.726   2
  -4  -2   0 4578.96 127.989   6
  -2   4   0 4559.99 68.2883   6
  -2  -4  -1 24.5900 12.9158   6
  -4  -2  -1 28.9276 17.9750   6
  -4  -2   1 20.5866 20.2200   6
   2   4  -1 23.3203 16.7090   2
  -4   2   1-8.66054 12.1354   1
  -4   2  -1 16.7186 11.9100   6
  -2  -4   1 24.6431 12.9240   6
  -2   4  -1 28.4129 12.3058   2
  -2   4   2 2009.83 88.5372   1
   4   2   2 1844.21 77.1060   1
   2  -4   2 1841.62 90.4777   3
  -4  -2  -2 1921.76 94.3178   6
  -2  -4  -2 1956.46 88.4283   6
  -4   2   2 1951.49 80.7892   1
  -4   2  -2 1910.86 81.4430   6
  -4   2  -3-16.0386 14.7771   6
  -4  -2  -3 9.87918 22.5451   6
   4   2   3 4.46971 20.1119   1
   2   4   3 3.01296 18.0433   1
  -2  -4  -3-23.8601 17.7705   6
  -2  -4   3-12.3794 16.7510   3
   2  -4   3-16.8169 20.3013   3
  -2   4   3-24.6766 25.7259   1
  -4   2   3-37.1588 25.9089   1
   2  -4   3 33.1111 20.9347   5
   4  -2   3-16.6231 22.1597   3
   2   4   4 329.809 51.2011   1
  -2   4   4 291.515 47.7861   1
  -2  -4   4 331.228 48.5789   3
   2  -4   4 424.857 56.3997   5
  -4  -2  -4 413.887 57.3859   6
   4   2   4 337.247 47.1330   1
  -2  -4  -4 288.249 46.8978   6
   4  -2   4 371.457 51.2282   3
  -4   2   4 418.674 56.0140   1
   2  -4   4 249.902 46.4882   3
   4  -2   5-9.56258 25.7799   3
  -2  -4   5 1.78138 26.7834   3
   2  -4   5-33.3920 35.1877   3
   4   2   6 164.378 49.4344   3
   4  -2   6 117.484 45.1337   3
   2  -4   6 136.229 45.8929   3
   4  -2   7-24.0375 35.8813   3
   2  -4   7 58.0225 51.0300   3
   4   2   7-18.1901 39.8225   3
  -4  -3   0-21.0758 19.2686   6
  -3  -4   0-4.97344 14.0305   6
   3   4   0-4.02441 14.4579   2
  -4   3   0 5.43981 12.8749   6
   4   3   0 9.65728 13.8392   2
   3   4  -1 1398.19 75.6730   2
  -4   3  -1 1502.44 62.8983   6
  -3  -4   1 1356.04 66.2903   6
  -4  -3   1 1379.65 73.8385   6
  -3   4   1 1473.37 64.3612   1
  -4  -3  -1 1511.45 79.7491   6
  -3  -4  -1 1474.05 73.4554   6
   4   3  -1 1323.61 69.7976   2
   4  -3   2 3349.65 121.798   3
   3  -4   2 3143.78 122.151   3
  -3  -4   2 3467.39 114.191   6
  -3  -4  -2 3374.52 123.680   6
  -4  -3  -2 3085.11 122.686   6
  -3   4   2 3367.75 113.615   1
  -4  -3   2 3191.03 119.667   6
  -4   3   2 3189.95 106.193   1
   4   3   3 521.070 52.8534   1
   4  -3   3 528.785 58.5476   3
   3   4   3 514.755 56.2112   1
  -4   3   3 520.529 54.0401   1
   3  -4   3 513.510 57.5846   3
  -3   4   3 563.612 56.9789   1
   3  -4   3 502.422 52.6336   5
  -3  -4  -3 518.040 56.7029   6
  -4  -3  -3 469.179 55.6185   6
  -3  -4  -4 1327.65 97.7697   6
  -4  -3  -4 1219.80 94.5230   6
   3  -4   4 1385.19 103.318   3
  -4   3   4 1191.36 90.9175   1
   3   4   4 1505.13 101.868   1
   4  -3   4 1281.42 97.3796   3
  -3   4   4 1341.27 98.2852   1
   4   3   4 1383.70 93.9174   1
   3  -4   5 34.7399 33.7615   3
   4  -3   5 56.4790 31.8247   3
   4  -3   6 171.315 49.5036   3
   3  -4   6 159.366 50.8415   3
   4   3   7 17.7284 39.6085   3
   4  -3   7 33.2130 42.5497   3
   4   4   0 9809.25 194.616   2
  -4  -4   0 9423.70 193.438   6
   4   4  -1 100.444 25.3651   2
  -4  -4   1 108.793 26.1612   6
   4  -4   1 124.146 28.9050   3
  -4  -4  -1 132.448 29.5384   6
   4  -4   2 1955.97 100.647   3
  -4  -4   2 2134.82 98.8202   6
  -4  -4  -2 2154.14 105.348   6
  -4  -4  -3 102.669 30.9440   6
   4  -4   3 176.953 41.9052   3
  -4   4   3 114.246 32.4901   1
   4   4   3 100.129 27.0101   1
   4   4   4 96.4945 37.3067   1
   4  -4   4 129.203 41.5620   3
  -4   4   4 132.533 40.5994   1
   4  -4   5 155.350 46.0120   3
   4  -4   6 24.1734 32.8107   3
   4   4   7 17.6873 43.8901   3
   4  -4   7 90.4852 46.8156   3
  -5   0   0 10.2069 17.2592   6
   0   5   0 15.5461 18.5029   2
  -5   0  -1 7182.23 172.187   6
   0  -5  -1 7266.86 128.320   6
  -5   0   1 7044.76 173.488   6
   0   5  -1 7132.15 163.882   2
   0  -5  -2-27.6190 15.2979   6
   0   5  -2-1.86253 14.9805   2
   0  -5   2-17.8435 23.0087   5
  -5   0  -2-20.6002 19.6670   6
   0  -5   2 10.3088 17.4799   3
   0  -5   3 90.4238 34.0201   5
   0   5   3 29.2705 19.6359   1
   0  -5  -3 36.4057 19.6229   6
   5   0   3 52.6362 23.2093   3
   0  -5   3 83.3984 28.3839   3
  -5   0  -3 57.5527 26.1143   6
   0  -5  -4 55.3786 31.0439   6
   0  -5   4 26.8456 25.8986   3
   0   5   4 23.8836 28.6789   1
   5   0   4-1.32855 19.5188   3
  -5   0  -4-30.5547 27.5104   6
   5   0   5 1096.36 99.4008   3
   0  -5   5 1220.45 103.415   3
   5   0   6 60.1523 46.5347   3
   0  -5   6-8.59947 35.1167   3
   5   0   7 34.0935 40.1327   3
   0  -5   7 33.7901 47.0080   3
  -5  -1   0 1833.44 89.0856   6
   1   5   0 1839.75 84.6193   2
  -5   1   0 1810.50 84.2575   6
   5   1   0 1869.33 60.0217   2
  -1  -5   0 1848.89 56.6634   6
  -1  -5  -1 445.586 35.1379   6
  -5   1   1 460.660 46.7068   6
  -5   1  -1 486.417 45.5962   6
  -5  -1  -1 499.872 49.3920   6
  -5  -1   1 454.183 46.7477   6
  -1   5  -1 462.278 41.1188   2
   1   5  -1 433.388 44.3994   2
   1  -5   2 1767.36 91.2995   3
  -1  -5   2 1929.92 100.923   5
  -1  -5  -2 1798.90 83.4675   6
  -5  -1  -2 1964.70 100.057   6
  -1   5  -2 1904.24 89.3437   2
   1  -5  -2 2011.54 84.4873   6
   1  -5   2 2028.92 102.750   5
  -1  -5  -2 1807.12 91.6013   4
   1   5  -2 1862.58 95.7005   2
  -5   1  -2 1903.42 92.4717   6
   1  -5  -3 483.341 51.6204   6
  -1  -5  -3 436.185 49.8789   6
  -5   1  -3 500.177 55.2843   6
  -1   5   3 369.948 48.2578   1
   1   5   3 476.260 56.4926   1
   5  -1   3 450.182 51.0333   3
  -5  -1  -3 431.201 52.4934   6
   1  -5   3 465.858 54.9616   3
  -1  -5   3 582.520 56.6437   3
   1  -5   3 438.478 53.1383   5
  -1  -5  -4 1204.08 92.5613   6
   5   1   4 1081.86 83.6792   3
  -1  -5   4 1015.86 84.1044   3
  -1   5   4 1184.95 94.2685   1
   1   5   4 1176.01 93.8843   1
   1  -5   4 1130.21 95.0306   5
  -5   1  -4 1111.72 86.2762   6
   5  -1   4 1147.39 88.4659   3
  -5  -1  -4 1120.83 92.3829   6
   1  -5   4 957.775 83.9159   3
   1  -5   5 51.4379 33.2766   3
   5   1   5 23.4655 28.4137   3
   5  -1   5 4.88233 24.5697   3
   1  -5   5 45.7466 23.6590   5
  -1  -5   5 56.9145 29.8664   3
   5   1   6 128.526 42.1831   3
   5  -1   6 126.343 49.8450   3
  -1  -5   6 131.473 35.6930   3
   1  -5   6 97.8792 44.9521   3
   5   1   7 225.556 67.5985   3
   5  -1   7 140.986 57.9349   3
  -1  -5   7 149.856 51.6302   3
   1  -5   7 162.211 61.9206   3
  -5   2   0-7.12198 13.6881   6
  -5  -2   0 10.3517 16.5751   6
   2   5   0 28.5000 20.3834   2
  -2  -5   0 4.60962 10.4309   6
   5   2   0-3.31085 10.7399   2
   5   2  -1 3035.15 98.9670   2
  -5  -2  -1 2815.47 114.282   6
  -5   2  -1 2983.95 104.567   6
  -2  -5  -1 3207.18 100.654   6
  -5  -2   1 3045.35 118.522   6
   2  -5  -1 3066.12 115.076   3
  -2  -5  -1 3234.03 123.097   4
  -5   2   1 3067.15 112.629   6
  -2   5  -1 3076.31 99.0246   2
   2   5  -1 3155.58 117.254   2
  -2  -5  -2 4286.58 134.161   6
   2  -5   2 4458.07 148.887   3
  -5  -2   2 4258.18 149.126   6
   2   5  -2 4474.60 150.574   2
   2  -5   2 4387.45 149.520   5
  -2  -5   2 4335.15 152.956   5
  -2   5   2 4426.05 140.125   1
  -5  -2  -2 4417.60 153.419   6
  -5   2  -2 4456.15 136.142   6
  -2   5  -2 4569.66 131.967   2
  -2  -5  -3 335.901 46.5362   6
  -5   2  -3 345.677 45.2215   6
   2  -5   3 434.676 54.9699   3
  -2   5   3 423.931 52.9641   1
  -5  -2  -3 453.842 56.0136   6
   2  -5   3 316.841 46.6005   5
   2   5   3 324.236 47.0339   1
   5  -2   3 378.963 48.0562   3
  -2  -5  -4 1308.06 97.2630   6
  -2   5   4 1289.86 97.7017   1
   5  -2   4 1295.66 98.7674   3
   2  -5   4 1295.32 101.382   3
   2  -5   4 1148.36 91.7725   5
  -5   2   4 1157.64 89.8023   1
   5  -2   5 122.862 37.1802   3
   5   2   5 71.5147 27.7238   3
   2  -5   5 168.894 47.9100   3
   5   2   6 617.702 89.3976   3
   5  -2   6 509.002 81.4266   3
   2  -5   6 486.062 81.5882   3
   5  -2   7 206.404 68.4659   3
   5   2   7 207.009 69.5382   3
   2  -5   7 282.673 69.2984   3
  -5   3   0 2667.07 97.6520   6
  -5  -3   0 2487.11 108.369   6
   3  -5   0 2514.83 107.406   3
  -3  -5   0 2621.68 111.858   4
   3   5   0 2617.34 108.318   2
   5   3   0 2614.78 94.2806   2
  -3  -5   0 2507.73 90.7865   6
   3   5  -1-13.3181 16.0668   2
   3  -5   1-5.54281 18.9148   3
  -5  -3  -1 22.5613 21.1949   6
   3  -5  -1-15.0800 18.2824   3
  -5   3   1 10.3820 17.5077   6
  -5  -3   1 31.9399 19.6589   6
   5   3  -1-6.81964 13.8265   2
  -3  -5  -1 1.41402 17.8192   6
  -3  -5   1 16.7087 14.4782   6
  -3  -5  -2 1568.09 86.9173   6
   3   5  -2 1679.86 96.5929   2
  -5  -3  -2 1710.34 98.2096   6
   3  -5   2 1672.80 95.0485   3
  -3   5   2 1631.33 85.2183   1
   5  -3   2 1599.32 88.0484   3
   3  -5   2 1553.40 89.8275   5
  -5  -3   2 1665.58 94.6619   6
  -3  -5  -3 93.1270 29.5023   6
  -5  -3  -3 82.1839 29.4261   6
   3   5   3 76.5024 29.6487   1
  -3   5   3 56.5735 24.9782   1
   3  -5   3 41.5319 18.6245   5
   5  -3   3 42.8515 25.2833   3
   3  -5   3 24.8242 21.5534   3
   5  -3   4 544.986 65.5488   3
   3  -5   4 608.748 73.8651   3
  -3   5   4 544.120 66.3954   1
   5  -3   5 350.141 62.0761   3
   3  -5   5 330.896 65.2219   3
   5  -3   6 222.827 57.8034   3
   3  -5   6 152.105 59.1115   3
   5  -3   7 70.3597 59.7806   3
   3  -5   7 23.5225 47.1550   3
   4   5   0 27.8396 17.9798   2
   5   4   0-2.85005 16.1503   2
   5  -4   0 32.2322 22.1889   3
   4  -5   0 3.91051 16.9789   3
  -4  -5   0 9.04923 14.7246   6
  -5  -4   0 24.0530 23.6957   6
   5   4  -1 1121.24 73.3132   2
  -5  -4   1 1227.27 80.2404   6
  -4  -5   1 1035.80 67.6208   6
   4  -5   1 1116.72 76.8917   3
   4  -5  -1 1121.47 77.7078   3
   5  -4  -1 1014.63 69.4152   3
  -5  -4  -1 1088.78 75.7818   6
  -4  -5   1 993.428 70.1941   4
  -4  -5  -1 1143.54 73.9750   6
   4   5  -1 1126.04 76.4597   2
   5  -4   1 1005.24 69.7333   3
  -5  -4  -2 173.162 35.5886   6
  -5  -4   2 203.968 37.9700   6
   4  -5   2 191.010 33.8535   5
  -4  -5  -2 244.891 40.1415   6
   4   5  -2 164.882 35.6835   2
   5   4  -2 116.476 31.5012   2
   5  -4   2 210.359 39.7936   3
   4  -5   2 223.217 38.3788   3
   5  -4   3 1197.70 91.0773   3
  -4  -5  -3 1261.97 92.7024   6
  -5  -4  -3 1245.54 93.0655   6
   4  -5   3 1223.78 93.1522   3
   5   4   3 1379.83 89.9608   1
   4   5   3 1222.77 88.5906   1
  -5  -4   3 1339.53 93.8897   6
   5  -4   4 114.253 41.2492   3
   4  -5   4 147.404 44.6353   3
   5  -4   5 3380.62 184.118   3
   4  -5   5 3080.16 177.094   3
   4  -5   6 56.7611 33.2962   3
   5  -4   6-20.6608 39.3025   3
  -5  -5   0 4108.33 145.115   6
   5  -5   0 4635.33 156.236   3
   5   5   0 4506.04 151.181   2
  -5  -5   1 39.2838 22.2810   4
  -5  -5  -1 68.7479 26.7712   6
  -5  -5   1 60.9035 27.4840   6
   5  -5   1-16.4972 19.3544   3
   5  -5  -1 46.5852 24.3546   3
   5   5  -1 48.1427 22.2925   2
   5   5  -2 1100.33 82.3849   2
  -5  -5  -2 1343.33 92.6766   6
   5  -5   2 1239.78 87.0765   3
  -5  -5  -3-34.6889 24.9549   6
   5  -5   3 35.0085 29.3202   3
   5   5   3 43.4781 27.6743   1
   5  -5   4 34.7511 39.2584   3
   5  -5   5 114.880 45.3013   3
   5  -5   6 129.522 54.5952   3
   0  -6   0 1280.95 79.9191   4
  -6   0   0 1267.37 80.9030   6
   0  -6   1 10.2793 23.1623   4
  -6   0  -1 9.61479 17.7500   6
  -6   0   1 5.15147 22.5986   6
   0  -6   1-6.24206 19.7638   3
   0   6  -1-20.5688 18.5599   2
   0  -6   1-13.8249 18.7812   5
   0  -6  -1 4.23100 20.8834   3
   0  -6  -1-13.4334 20.7224   4
   0  -6   2 11.5030 16.3819   3
  -6   0  -2 43.5759 24.2862   6
  -6   0   2 93.9556 30.2412   6
   0   6  -2 10.2740 20.9271   2
   0  -6   2-0.31159 20.2545   5
   0  -6   2 29.3686 21.3774   4
   0  -6  -2 16.7718 19.1705   4
  -6   0  -3 36.8691 27.3726   6
   0  -6   3 18.2235 25.2456   5
   0  -6  -3 25.1123 17.6370   6
   0  -6   3 9.07456 19.8628   3
   0   6   3-8.54492 24.8561   1
   0  -6   4 2948.74 147.903   3
   0  -6   4 3108.36 163.716   5
   0  -6  -4 3071.15 148.200   6
   0  -6   5-9.58885 30.5771   5
   0  -6   5-7.36733 28.7149   3
   6   0   6 4546.08 222.488   3
   0  -6   6 4123.59 214.542   3
   0  -6   6 4214.86 229.265   5
   0  -6   7 101.602 60.8406   5
   0  -6   7 3.14497 37.6279   3
   1   6   0 39.5613 21.9864   2
  -6  -1   0 6.05701 19.1792   6
  -6   1   0 4.75115 18.6032   6
   1  -6   0 5.25109 17.6235   3
  -1  -6   0-6.01672 19.5285   5
   1  -6   0 8.67670 21.1765   4
  -1  -6   0 9.80952 19.9618   4
  -6  -1  -1 394.942 49.4473   6
   1  -6   1 354.108 44.7726   3
  -6   1   1 339.073 42.3154   6
  -6  -1   1 305.117 43.7455   6
   1  -6   1 379.986 48.0937   5
  -1  -6   1 351.549 44.8526   5
  -6   1  -1 310.707 41.0440   6
   1  -6  -1 304.631 41.5009   3
   1  -6   1 366.901 46.8242   4
   1  -6  -1 289.402 40.8252   4
  -1  -6   1 278.004 40.2964   4
  -1   6  -1 343.792 40.2278   2
   1   6  -1 351.398 44.1103   2
  -1  -6  -1 356.246 43.9134   4
  -1   6  -2 2458.70 109.747   2
   1   6  -2 2354.77 115.127   2
   1  -6  -2 2491.56 111.885   4
   1  -6   2 2419.38 112.795   3
  -1  -6   2 2846.83 114.030   3
  -6   1   2 2181.07 115.262   6
   1  -6   2 2692.48 127.406   5
  -1  -6   2 2484.14 123.115   5
  -6   1  -2 2514.55 115.934   6
  -6  -1   2 2616.87 125.837   6
  -1  -6   2 2491.25 114.790   4
  -1  -6  -2 2414.82 114.991   4
  -6  -1  -2 2423.69 119.353   6
  -1  -6  -3 955.333 73.9679   6
  -6   1  -3 954.147 77.9242   6
  -6  -1  -3 861.181 77.1643   6
  -1   6  -3 917.910 74.8041   2
  -1  -6   3 924.376 84.4909   5
   1  -6   3 1014.70 86.7931   5
  -1   6   3 1006.15 81.4516   1
   1   6   3 855.056 76.2980   1
   1  -6   3 1034.08 83.6074   3
  -1  -6   3 942.542 75.2184   3
  -6   1  -4 505.869 63.6850   6
   6  -1   4 523.396 63.9986   3
  -1  -6   4 559.896 65.2648   3
   1  -6   4 426.769 62.9625   5
  -1  -6   4 426.559 66.5062   5
   1  -6   4 524.885 67.5128   3
   6  -1   5 2278.77 143.840   3
  -1  -6   5 2111.30 137.385   3
   1  -6   5 2240.14 149.745   5
   1  -6   5 2368.72 151.370   3
   1  -6   6 456.867 79.2568   5
   6  -1   6 469.006 78.8072   3
   1  -6   6 501.021 78.2188   3
  -1  -6   7 253.728 67.7889   5
   6  -1   7 176.698 57.9652   3
   1  -6   7 110.911 49.5959   3
  -6  -2   0 14592.7 278.708   6
  -6   2   0 14346.2 257.022   6
   2  -6   0 14321.6 265.504   3
   2  -6   0 14569.8 271.934   4
  -2  -6   0 14590.7 275.579   4
   2   6   0 14408.1 267.747   2
  -2   6  -1 74.2449 19.9698   2
  -6   2  -1 67.0406 24.4048   6
  -6  -2   1 62.3789 27.5982   6
  -6   2   1 79.8252 28.5231   6
   2  -6   1 63.3439 26.8529   5
  -2  -6   1 88.4181 28.0662   5
   2  -6  -1 65.5519 26.8810   3
  -6  -2  -1 103.247 31.3265   6
   2  -6   1 102.484 29.1192   3
   2  -6  -1 98.5936 28.7233   4
  -2  -6   1 86.4507 29.6113   4
   2   6  -1 113.715 31.0486   2
  -2  -6  -1 82.1136 26.9915   4
   2   6  -2 3594.87 144.677   2
  -2  -6  -2 3813.67 131.184   6
  -6  -2  -2 3787.95 151.666   6
  -6   2  -2 3725.64 136.534   6
   2  -6   2 3932.40 148.196   3
  -6  -2   2 3836.60 154.179   6
   2  -6   2 3968.21 154.780   5
  -2  -6   2 3837.22 154.165   5
  -2  -6   2 3787.71 141.035   4
  -2  -6  -2 3686.09 148.230   4
  -2  -6  -3 37.7397 23.1036   4
  -6  -2   3 172.706 40.5225   6
  -2  -6  -3 90.1577 29.8105   6
  -2  -6   3 101.541 37.0417   5
   2   6  -3 52.7836 27.5890   2
  -6  -2  -3 59.5635 28.8120   6
   2  -6   3 99.0334 32.9437   5
   6  -2   3 70.0251 25.7224   3
  -2   6   3 46.6401 27.7080   1
   2   6   3 60.4587 31.0003   1
   2  -6   3 57.8101 27.0657   3
   2  -6   4 174.093 44.7127   5
   6  -2   4 139.149 43.3828   3
   2  -6   4 292.459 55.1338   3
   2  -6   5 117.308 40.0803   5
   6  -2   5 220.068 53.2462   3
   2  -6   5 162.075 44.2738   3
   6  -2   6 979.321 109.809   3
   2  -6   6 930.893 108.186   3
   6  -2   7 37.5543 40.6758   3
  -6  -3   0-18.1589 20.3071   6
   3   6   0 25.0441 16.6336   2
  -6   3   0 27.1075 18.6392   6
   3  -6   0 13.5414 20.2204   3
  -3  -6   0 12.6905 20.3863   4
   6   3  -1 3531.49 122.499   2
  -6  -3  -1 3396.84 141.170   6
   6  -3   1 3568.88 124.525   3
   3  -6   1 3466.36 138.298   3
   3  -6  -1 3355.83 136.048   3
  -3  -6   1 3136.77 128.984   5
  -6  -3   1 3464.43 141.644   6
  -6   3   1 3467.10 130.638   6
  -3  -6   1 3292.42 133.578   4
  -3  -6  -1 3328.67 141.564   4
   3   6  -1 3255.32 134.657   2
  -6  -3   2 1270.64 90.4371   6
   3   6  -2 1444.46 96.7819   2
  -3  -6  -2 1500.92 87.6494   6
  -6  -3  -2 1477.27 99.0903   6
   6  -3   2 1427.46 86.5238   3
   3  -6   2 1476.97 96.1850   3
   3  -6   2 1553.98 98.9124   5
  -3  -6   2 1508.31 98.4552   5
  -3   6   2 1539.62 89.5016   1
  -3  -6   2 1402.09 88.6637   4
  -3  -6  -3 4.15538 20.7387   6
  -6  -3  -3 66.9106 33.8948   6
  -6  -3   3 18.7391 22.9148   6
  -3   6   3-20.6016 24.9332   1
   3  -6   3 7.18069 25.5389   5
   3   6  -3 51.5473 28.1863   2
   6  -3   3 16.7514 20.8473   3
   3  -6   3 14.1844 23.6319   3
   3  -6   4 397.163 63.3761   5
   6  -3   4 360.820 57.2334   3
   3  -6   4 393.114 59.6756   3
   6  -3   5 474.489 72.0184   3
   3  -6   5 494.745 77.5009   3
   6  -3   6 353.085 77.7424   3
   3  -6   6 190.270 56.9686   3
  -6  -4   0 583.007 60.6658   6
   6  -4   0 423.642 47.5986   3
   4  -6   0 398.968 50.4854   3
  -4  -6   0 396.896 53.5588   4
   4   6   0 425.207 50.5002   2
   6   4   0 467.182 47.8401   2
   6  -4   1 39.3479 28.7569   3
   4  -6   1 34.8663 23.7804   3
  -4  -6  -1-14.1253 14.8503   6
  -6  -4  -1-4.59336 20.2345   6
  -6  -4   1-17.4214 22.2959   6
   6   4  -1-0.51770 16.7932   2
  -4  -6   1 16.4557 20.6753   5
   4   6  -1 52.6769 30.0173   2
   4  -6  -1-4.55079 21.7133   3
   6  -4  -1-14.0826 20.9234   3
  -4  -6   1 5.19306 22.2301   4
   6  -4   2 125.343 32.5181   3
   4  -6   2 152.730 35.2436   3
  -4  -6  -2 120.810 32.0269   6
  -6  -4  -2 95.3347 29.4892   6
  -6  -4   2 161.869 39.7398   6
   4   6  -2 157.389 40.5180   2
   4  -6   2 149.514 36.0675   5
   6   4  -2 123.036 32.7035   2
  -4  -6   2 183.959 40.1347   5
  -6  -4   3 19.3725 25.9129   6
  -4  -6  -3 29.4724 25.4695   6
   4  -6   3 38.1255 26.9915   5
   6  -4   3 6.72745 26.9154   3
   4  -6   3 43.5224 24.6722   3
   6  -4   4 2782.88 155.234   3
   4  -6   4 2828.85 159.883   3
   6  -4   5 134.813 46.6474   3
   4  -6   5 156.250 53.5600   3
   6  -4   6 2111.65 162.277   3
   4  -6   6 2270.31 172.788   3
  -5  -6   0 25.4320 24.2982   4
   6   5   0 12.2692 20.9153   2
  -6  -5   0-15.0619 20.6223   6
   6  -5   0 13.0864 19.6125   3
   5  -6   0 33.8854 23.3235   3
   5   6   0 30.3524 27.6008   2
  -5  -6  -1 995.166 77.0722   6
  -6  -5  -1 911.204 78.8757   6
   6  -5   1 740.524 67.6980   3
   5  -6   1 794.250 72.5680   3
   5  -6  -1 864.089 75.5466   3
   6  -5  -1 882.190 73.1218   3
  -6  -5   1 1012.24 81.9213   6
  -5  -6   1 983.030 79.8837   4
   5   6  -1 955.912 78.9621   2
   6   5  -1 874.821 71.7517   2
   6  -5   2 142.817 34.9671   3
   5  -6   2 120.081 33.5351   3
  -5  -6  -2 176.931 40.2682   6
  -6  -5  -2 182.159 41.7268   6
  -6  -5   2 145.876 35.9588   6
   5   6  -2 195.571 42.6279   2
   6   5  -2 184.551 40.3845   2
  -5  -6   2 188.160 41.9460   5
   6  -5   3 82.7909 36.1221   3
   5  -6   3 66.9180 36.2982   3
   6  -5   4 71.9965 34.5500   3
   5  -6   4-14.1483 25.3741   3
   6  -5   5-2.86473 32.4708   3
   5  -6   5-12.8427 35.2624   3
   6  -5   6 228.340 67.2559   3
   5  -6   6 292.071 69.6821   3
  -6  -6   0 3029.97 138.375   6
   6  -6   0 2758.63 136.168   3
  -6  -6  -1 458.632 58.5747   6
   6  -6   1 423.971 56.6688   3
   6  -6  -1 328.922 50.2750   3
  -6  -6   1 413.063 57.4973   4
   6   6  -1 455.233 57.0141   2
  -6  -6  -2 2210.78 129.437   6
   6  -6   2 2280.76 131.320   3
   6  -6   3 719.256 81.4944   3
   6  -6   4 371.989 66.7336   3
   6  -6   5 79.2910 42.0501   3
   6  -6   6 67.7113 41.5295   3
  -7   0   0 7.00545 18.7335   6
   0  -7   0 56.4197 25.5434   3
   0  -7   0 13.8420 23.4222   4
   0  -7   1 408.597 50.1788   3
  -7   0  -1 262.517 43.5559   6
  -7   0   1 330.673 50.7255   6
   0  -7   1 351.850 50.8941   5
   0  -7  -1 312.926 45.9276   3
   0  -7   1 296.500 46.6534   4
   0   7  -1 324.905 45.8542   2
   0  -7  -1 318.872 47.2012   4
   0  -7   2 18.1904 22.5993   3
  -7   0  -2 28.0436 23.7369   6
  -7   0   2 21.4491 20.5076   6
   0   7  -2 25.0694 21.7344   2
   0  -7   2-19.2358 25.1539   5
   0  -7   2-2.78212 24.8293   4
   0  -7  -2-6.83384 22.5993   4
   0   7  -3 514.653 62.6799   2
  -7   0  -3 627.004 70.6073   6
   0  -7   3 620.678 66.7495   3
   0  -7   3 558.076 68.8513   5
   0   7   3 544.011 67.2061   1
   0  -7   4 18.9069 30.5326   5
   0  -7   4 5.03905 24.2117   3
   0  -7   5 1753.85 132.305   3
   0  -7   5 2017.47 151.619   5
   0  -7   6 6.84263 32.5127   5
   0  -7   6 9.20599 34.2069   3
  -7  -1   0 1200.82 87.3693   6
   1  -7   0 1225.13 83.0539   3
  -1  -7   0 1263.53 78.5989   3
   1  -7   0 1243.97 88.4265   4
  -1  -7   0 1164.78 86.0998   4
  -7   1   0 986.960 76.2739   6
   1  -7   1 73.3620 31.4106   3
  -1   7  -1 110.811 29.3925   2
  -1  -7   1 128.967 28.9578   3
  -7   1  -1 67.0698 29.1128   6
   1   7  -1 105.482 29.5738   2
  -7  -1   1 79.5874 27.8312   6
  -7   1   1 69.6114 27.1521   6
   1  -7   1 10.7323 22.7957   5
  -1  -7   1 117.946 35.7891   5
   1  -7  -1 8.83025 22.2720   3
   1  -7   1 31.3764 27.3975   4
   1  -7  -1 79.7043 26.1855   4
  -1  -7   1 110.659 34.4179   4
  -1  -7  -1 40.0534 22.8029   4
  -7  -1  -1 74.0843 28.7086   6
   1   7  -2 721.832 69.8062   2
  -7  -1  -2 699.908 71.9725   6
  -7   1  -2 738.998 70.9642   6
   1  -7   2 651.191 65.4662   3
  -1  -7   2 608.941 57.7156   3
  -7   1   2 767.264 75.1440   6
   1  -7   2 737.281 74.8456   5
  -1  -7   2 489.452 62.8573   5
  -7  -1   2 663.007 70.9146   6
  -1  -7   2 701.127 69.1084   4
   1  -7  -2 747.148 69.3934   4
  -1  -7  -2 684.265 67.3203   4
  -1   7  -2 658.344 61.5289   2
  -7  -1  -3 45.4477 29.7459   6
  -1   7  -3 132.542 34.2684   2
  -7   1  -3 91.8676 32.6952   6
   1   7  -3-7.07750 25.3774   2
   1  -7   3 62.6190 29.7481   5
  -1  -7   3 8.68627 23.7673   5
  -1   7   3 79.4256 29.5992   1
   1  -7   3 29.6316 24.3587   3
  -1  -7   3 39.3384 23.5510   3
   1  -7   4 356.850 63.3171   5
  -1  -7   4 359.174 66.4830   5
  -1  -7   4 430.402 60.7077   3
   1  -7   4 287.870 56.5927   3
   1  -7   5 71.0582 36.7263   5
  -1  -7   5-2.38234 35.8461   5
   1  -7   5 5.57511 32.7802   3
   1  -7   6 400.936 79.4661   5
  -1  -7   6 266.727 67.6628   5
   1  -7   6 229.312 63.6398   3
  -7  -2   0 20.5196 26.9711   6
  -7   2   0-21.3650 20.2451   6
   2  -7   0 10.1093 19.8944   3
  -2  -7   0 24.6165 24.3128   5
   2  -7   0 19.1329 24.9190   4
  -2  -7   0-9.22455 21.0996   4
  -7  -2  -1 639.801 67.1073   6
  -7   2  -1 685.055 63.7022   6
  -7   2   1 547.968 60.4429   6
   2  -7   1 638.840 64.0723   3
   2  -7   1 543.276 64.2622   5
   2  -7  -1 536.216 58.3742   3
  -2  -7   1 637.902 64.8599   5
  -7  -2   1 668.626 69.0378   6
   2  -7  -1 715.898 67.1260   4
  -2  -7   1 631.227 63.8957   4
   2   7  -1 583.493 61.6133   2
  -2  -7  -1 484.765 55.6889   4
   2   7  -2 1565.99 103.896   2
  -7  -2  -2 1574.99 106.529   6
  -7  -2   2 1708.07 111.318   6
   2  -7   2 1554.16 102.239   3
  -7   2   2 1470.68 100.558   6
   2  -7   2 1641.80 108.904   5
  -2  -7   2 1449.19 103.573   5
  -2  -7   2 1611.80 101.292   4
  -2  -7  -2 1492.55 102.055   4
  -2  -7  -3 268.653 49.8781   4
  -2   7   3 311.119 52.1460   1
   2  -7   3 249.125 48.1115   5
  -2  -7   3 243.653 49.3831   5
   2  -7   3 353.063 55.7947   3
   2  -7   4 584.983 76.3758   3
  -2  -7   4 686.868 88.9019   5
   2  -7   4 504.557 72.1115   5
   2  -7   5 66.1348 38.1668   5
  -2  -7   5 46.0486 36.7730   5
   2  -7   5 31.2582 39.6934   3
  -2  -7   6 85.0076 49.8088   5
   2  -7   6 189.861 57.8302   3
   3  -7   0 400.278 55.3405   3
  -7  -3   0 325.307 49.0361   6
  -3  -7   0 297.392 47.2551   4
   3   7  -1-14.0510 23.8569   2
   3  -7   1 48.9657 25.8736   3
  -7  -3  -1 34.9539 27.1637   6
  -7   3   1 13.2368 19.6651   6
  -3  -7   1 51.2045 24.4845   5
   3  -7  -1 0.33092 27.0268   3
  -7  -3   1 55.6414 30.2850   6
  -3  -7   1 50.9146 28.1135   4
  -3  -7  -1 30.8271 29.8670   4
   3   7  -2 872.778 80.8711   2
  -7  -3  -2 843.637 82.4780   6
  -7  -3   2 822.028 79.5473   6
   3  -7   2 782.549 74.6623   3
  -7   3   2 822.395 76.3277   6
   3  -7   2 900.480 83.1998   5
  -3  -7   2 820.155 79.4316   5
  -3  -7   2 714.207 69.2827   4
  -3  -7  -2 861.500 82.7371   4
  -3  -7  -3 130.545 38.8140   4
   3  -7   3 83.3944 35.8731   5
  -3   7   3 130.959 39.8990   1
  -3  -7   3 130.060 40.0865   5
   3  -7   3 187.443 45.1601   3
   7  -3   4 1341.88 107.972   3
   3  -7   4 1167.11 106.599   3
   3  -7   4 1099.93 101.711   5
  -3  -7   4 1242.67 114.141   5
  -3  -7   5 83.9519 33.5309   5
   7  -3   5 38.1204 30.1525   3
   3  -7   5 83.0366 42.4210   3
  -3  -7   6 333.282 79.2474   5
   7  -3   6 456.408 82.6550   3
   3  -7   6 443.178 86.6538   3
  -7  -4   0 2.35484 23.0094   6
   4  -7   0-20.4869 23.6264   3
  -4  -7   0 0.18250 22.3635   4
  -7  -4  -1 822.801 78.9203   6
  -7  -4   1 848.121 80.3377   6
   4  -7   1 804.411 75.4597   3
   4  -7  -1 755.795 75.5009   3
  -4  -7   1 745.343 72.2772   4
  -4  -7  -1 733.555 76.3897   4
   4   7  -1 872.358 78.9427   2
  -4  -7  -2 13.3945 28.0551   4
   4  -7   2 19.5093 24.7232   3
  -7  -4  -2 67.9803 35.7346   6
  -7  -4   2 37.9270 26.3113   6
  -4  -7   2 6.51982 26.2703   5
   4  -7   3 78.6206 34.7984   3
   4  -7   3 55.3368 29.9863   5
  -4  -7   3 56.7760 34.6041   5
   7  -4   3 85.9884 32.1775   3
  -4  -7   4 36.2517 44.9358   5
   7  -4   4 43.9077 31.9168   3
   4  -7   4 18.0243 26.2877   3
   7  -4   5-14.8953 33.2729   3
   4  -7   5 23.8183 36.9573   3
   7  -4   6-58.3416 49.4588   3
   4  -7   6-5.64513 38.2226   3
  -7  -5   0 1259.70 97.2036   6
   5  -7   0 1200.05 93.9517   3
  -5  -7   0 1056.90 92.1580   4
  -7  -5  -1 599.724 70.2717   6
   7  -5   1 545.428 63.0452   3
   5  -7   1 450.516 59.8442   3
  -7  -5   1 369.115 53.6208   6
   5  -7  -1 414.745 58.6803   3
  -5  -7   1 503.981 64.9792   4
  -5  -7  -1 489.897 68.4437   4
   5   7  -1 573.385 67.0433   2
   7   5  -2 922.576 82.2329   2
  -7  -5   2 1100.33 94.5270   6
   7  -5   2 977.637 84.0478   3
   5  -7   2 1055.52 93.0744   3
  -5  -7   2 1017.21 88.6248   5
   7  -5   3 965.226 89.6900   3
   5  -7   3 1121.01 99.7006   3
  -5  -7   3 964.627 95.5120   5
   7  -5   4 555.491 77.1234   3
   5  -7   4 551.609 77.6232   3
   7  -5   5-181.143 52.3310   3
   5  -7   5-50.0563 41.9708   3
   7  -5   6-13.0063 36.6589   3
   5  -7   6 43.9192 41.5047   3
  -6  -7   0-18.9595 25.3872   4
  -7  -6   0 4.64257 22.9195   6
   6  -7   0 2.73744 22.6236   3
   7  -6   0-16.9477 20.6435   3
   7  -6   1 2750.40 142.841   3
   6  -7   1 2386.94 138.487   3
   6  -7  -1 2529.17 140.194   3
   7  -6  -1 2585.84 136.100   3
  -6  -7   1 2562.39 140.222   4
   7   6  -1 2777.88 140.529   2
   6  -7   2 395.918 63.7025   3
   7  -6   2 510.135 67.1533   3
   7  -6   3 110.747 35.1962   3
   6  -7   3 75.9116 33.3267   3
  -6  -7   3 204.388 52.2190   5
   6  -7   4 118.887 43.2924   3
   7  -6   4 116.028 40.5985   3
   7  -6   5 314.730 64.1890   3
   6  -7   5 383.782 73.6250   3
   7  -7   0 6678.26 230.838   3
  -7  -7   0 6215.00 238.462   4
   7  -7   1 501.995 67.8805   3
   7  -7  -1 623.110 76.7925   3
   7  -7   2 1929.26 133.125   3
   7  -7   3 876.042 96.9174   3
   7  -7   4 98.8040 46.4671   3
   7  -7   5 1.66065 46.3290   3
  -8   0   0 4830.86 185.340   6
   0  -8   0 4619.95 165.639   3
   0  -8   0 4631.32 181.247   4
   0   8  -1-25.3759 23.4288   2
  -8   0  -1-6.76233 21.7680   6
   0  -8   1 9.62156 20.6943   3
  -8   0   1 29.7011 29.9701   6
   0  -8   1 11.5862 26.0140   5
   0  -8   1 26.2002 25.0730   4
   0  -8  -1 4.59418 22.4025   4
  -8   0  -2 1503.46 107.506   6
  -8   0   2 1614.83 116.100   6
   0  -8   2 1535.77 102.943   3
   0  -8   2 1426.96 108.611   5
   0  -8   2 1456.34 104.690   4
   0  -8  -2 1380.80 99.9879   4
   0   8  -2 1621.89 107.064   2
   0  -8   3 40.9530 34.1175   3
   0  -8   3-35.7529 25.2386   5
   0  -8   4 3.00722 33.6397   5
   0  -8   4 5.42519 25.2872   3
   0  -8   5 3.82007 34.9799   5
   0  -8   5-53.0741 42.2453   3
   0  -8   6 47.6386 42.7277   5
   0  -8   6-26.4575 36.5391   3
  -8  -1   0-23.1105 30.9448   6
  -8   1   0 7.83692 19.7292   6
   1  -8   0 19.4306 20.2039   3
  -1  -8   0 13.3708 19.7870   3
   1  -8   0 0.54930 24.0522   4
  -1  -8   0 33.7949 29.0646   4
  -8  -1  -1 863.030 81.5429   6
  -8   1  -1 938.574 80.4412   6
  -8  -1   1 982.935 87.4666   6
  -8   1   1 1020.07 87.7145   6
   1  -8   1 804.837 75.2219   3
  -1  -8   1 909.495 75.0329   3
   1  -8   1 943.042 86.8363   5
   1  -8  -1 1003.09 82.7207   3
  -1  -8   1 926.267 83.3296   5
   1  -8   1 1069.57 88.9113   4
   1  -8  -1 903.904 80.4516   4
  -1  -8   1 1009.62 86.4119   4
  -1  -8  -1 1065.54 90.5750   4
  -1   8  -1 829.627 72.3121   2
   1   8  -1 996.031 82.8196   2
   1  -8   2 48.4798 28.2194   3
  -8  -1  -2 11.1341 25.5794   6
  -8   1  -2 72.1399 31.8105   6
  -1   8  -2 4.60091 19.4783   2
  -8   1   2 104.249 35.4158   6
   1   8  -2 32.0833 20.7102   2
   1  -8   2 147.925 45.4609   5
  -1  -8   2 76.6053 33.3756   5
  -1  -8   2 96.0381 38.8103   4
   1  -8  -2 61.8575 30.7343   4
  -1  -8  -2 57.0071 27.7986   4
   1  -8   3 285.677 52.1959   3
   1  -8   3 334.823 61.4967   5
  -1  -8   3 150.862 45.7656   5
   1  -8   4 290.886 65.4092   5
  -1  -8   4 250.240 56.4946   5
   1  -8   4 229.687 52.5723   3
   1  -8   5 8.42004 39.5802   5
  -1  -8   5 5.19771 32.4096   5
   1  -8   5-39.2525 37.3994   3
  -1  -8   6 63.9055 46.7127   5
   1  -8   6 8.37625 39.5909   3
  -8  -2   0 278.000 50.9936   6
  -8   2   0 299.763 47.9893   6
   2  -8   0 303.151 49.4359   3
   2  -8   0 306.872 53.1850   4
  -2  -8   0 226.853 45.5828   4
   2   8  -1 107.718 34.8274   2
   2  -8   1 25.8134 31.0878   3
  -8  -2  -1 1.76706 22.1939   6
  -8   2  -1 37.7238 22.8856   6
  -8  -2   1 9.74035 26.9860   6
  -8   2   1 51.8047 33.4395   6
  -2  -8   1 18.0133 23.0959   5
   2  -8  -1 45.1292 29.5062   3
   2  -8  -1 49.4515 29.3677   4
  -2  -8   1 43.9560 26.4889   4
  -2  -8  -1 92.9886 34.7172   4
  -8   2   2 756.290 81.0882   6
   2  -8   2 626.492 70.5779   3
  -2  -8   2 698.457 78.4909   5
   2  -8   2 420.312 62.1103   5
  -2  -8   2 642.203 69.6130   4
  -2  -8  -2 688.368 78.1505   4
   2  -8   3 167.372 42.3659   3
   2  -8   3 152.683 43.9900   5
  -2  -8   3 223.530 54.7547   5
  -2  -8  -3 290.378 57.5016   4
   2  -8   4 834.846 91.3944   3
   2  -8   4 808.993 94.3803   5
  -2  -8   4 972.696 108.867   5
   2  -8   5 102.871 49.0793   5
  -2  -8   5 37.5871 41.0281   5
   2  -8   5 86.5664 35.4981   3
  -2  -8   6 404.581 87.7832   5
   2  -8   6 278.157 67.0517   3
  -8  -3   0-9.55888 21.8401   6
   3  -8   0 14.8552 26.0281   3
  -3  -8   0-3.16641 24.0682   4
  -8  -3  -1 1269.44 102.027   6
  -8  -3   1 1325.63 106.083   6
  -8   3   1 1355.38 99.5684   6
   3  -8   1 1377.70 103.748   3
   3  -8  -1 1319.89 100.166   3
  -3  -8   1 1133.13 92.6841   5
  -3  -8   1 1227.78 97.0798   4
  -3  -8  -1 1314.34 104.289   4
   3   8  -1 1261.28 98.6976   2
   3  -8   2 26.2440 31.2047   3
  -8   3   2 43.9389 28.2526   6
   3  -8   2 26.2466 23.7415   5
  -3  -8   2 50.9767 32.9970   5
  -3  -8   2 54.7263 27.7664   4
  -3  -8  -2 57.5233 31.8989   4
   3  -8   3 19.8760 33.5143   3
   3  -8   3 126.895 44.1841   5
  -3  -8   3 164.400 50.3506   5
  -3  -8  -3 48.5550 28.7055   4
   3  -8   4 33.1877 40.5099   5
  -3  -8   4-6.97467 33.9703   5
   3  -8   4 45.4906 34.8335   3
  -3  -8   5 9.56693 33.5180   5
   3  -8   5 62.3444 43.5374   3
  -3  -8   6-67.7645 58.7957   5
   3  -8   6 17.5367 38.4321   3
   4  -8   0 816.479 80.3024   3
  -4  -8   0 885.822 87.1002   4
   4  -8   1 611.519 73.5981   3
   4  -8  -1 467.121 66.3171   3
  -4  -8   1 466.244 62.8972   4
  -4  -8  -1 359.426 57.9431   4
   4  -8   2 1178.13 102.195   3
  -4  -8   2 1038.90 95.1646   5
  -4  -8  -2 1069.20 101.326   4
   4  -8   3 973.238 98.1316   3
   4  -8   3 1051.68 100.181   5
  -4  -8   3 1104.26 108.442   5
  -4  -8  -3 961.361 97.5948   4
   4  -8   4 631.412 85.2404   3
  -4  -8   4 540.193 83.8323   5
  -4  -8   5 57.6943 55.1765   5
   4  -8   5-39.6607 43.0698   3
   5  -8   0 31.0624 36.9957   3
  -5  -8   0 36.2941 27.9162   4
  -5  -8  -1 21.6423 33.3528   4
   5  -8   1 48.1091 31.5657   3
   5  -8  -1 56.5964 30.6234   3
  -5  -8   1 8.97852 26.4771   4
   5  -8   2 1203.99 106.142   3
  -5  -8  -2 1349.00 115.639   4
  -5  -8  -3 151.824 50.8274   4
   5  -8   3 124.183 47.1052   3
  -5  -8   3 215.621 61.7795   5
   5  -8   4 621.829 91.1211   3
  -5  -8   4 657.942 94.1305   5
  -5  -8  -4 706.710 93.1377   4
  -5  -8   5 543.378 97.6726   5
   8  -5   5 445.512 73.9861   3
   5  -8   5 417.361 79.6464   3
   6  -8   0 635.082 77.5052   3
  -6  -8   0 590.683 78.0991   4
  -6  -8  -1 21.8714 28.1104   4
   6  -8   1 12.3340 25.5641   3
   6  -8  -1-6.78763 27.3379   3
  -6  -8   1 2.26938 24.7493   4
  -6  -8  -2 275.084 58.4889   4
   6  -8   2 484.673 73.3111   3
  -6  -8  -3 22.8874 33.9465   4
   8  -6   3-17.2333 30.8254   3
   6  -8   3 23.2006 29.7550   3
   8  -6   4 130.885 51.5353   3
  -6  -8  -4 134.154 56.2297   4
   6  -8   4 138.471 49.7378   3
  -6  -8   4 198.355 59.4705   5
   6  -8   5 38.9886 40.2016   3
  -6  -8   5 51.2566 51.9633   5
   8  -6   5 30.3512 36.0434   3
  -7  -8   0 37.6811 35.3061   4
   7  -8   0 50.6451 37.0042   3
  -7  -8  -1 4.75476 34.0428   4
   8  -7   1 9.75518 28.5869   3
   7  -8   1 10.3501 37.3974   3
   7  -8  -1 8.37345 28.8147   3
  -7  -8   1 10.9566 30.1583   4
   8  -7   2 985.863 100.094   3
   7  -8   2 958.551 100.560   3
   8  -7   3 415.284 73.7387   3
   7  -8   3 365.785 74.1988   3
   8  -7   4 548.216 84.3135   3
   7  -8   4 406.692 75.9121   3
   8  -7   5 370.781 89.1318   3
   7  -8   5 344.245 78.4923   3
   8  -8   0 3285.98 178.590   3
  -8  -8   0 3196.22 187.335   4
   8  -8  -1 712.024 89.1588   3
   8  -8   1 617.840 80.1419   3
  -8  -8  -1 643.640 91.3104   4
   8  -8   2 1075.79 110.661   3
   8  -8   3 1849.21 149.901   3
   8  -8   4 34.8300 46.7699   3
   0  -9   0 23.5846 22.0622   3
   0  -9   0 22.0404 25.8322   4
   0   9  -1 23.1611 24.5401   2
   0  -9   1 26.8203 30.7207   3
   0  -9   1 2.64851 28.5235   5
   0  -9   1 73.8799 39.9225   4
   0  -9  -1 38.0621 37.2512   4
   0  -9   2 73.8475 33.7922   3
   0  -9   2-8.81143 31.5719   5
   0  -9  -2 56.4886 37.4100   4
   0  -9   3 993.674 93.8582   3
   0  -9   3 1103.63 110.213   5
   0  -9   4-10.1461 27.7956   3
   0  -9   4-45.3551 37.7837   5
   0  -9   5 849.247 112.605   5
  -9   1   0 5421.56 208.688   6
   1  -9   0 5582.71 201.619   3
  -1  -9   0 5738.11 192.594   3
   1  -9   0 5342.64 209.413   4
  -1  -9   0 5048.64 205.055   4
  -9   1  -1 710.427 78.1262   6
   1  -9   1 726.735 75.9901   3
  -1  -9   1 806.732 84.0898   5
   1  -9  -1 745.319 78.8501   3
   1  -9   1 803.441 86.1523   4
   1  -9  -1 661.117 75.5052   4
  -1  -9   1 748.305 81.4262   4
  -1  -9  -1 704.545 80.3722   4
   1  -9   2 1486.83 111.692   3
   1  -9   2 1712.38 127.042   5
  -1  -9   2 1810.60 130.662   5
  -1  -9   2 1565.53 116.331   4
   1  -9  -2 1643.36 117.987   4
  -1  -9  -2 1859.02 127.483   4
   1  -9   3 2350.37 144.764   3
   1  -9   3 2492.31 159.815   5
  -1  -9   3 2402.18 158.287   5
   1  -9   4 10.3816 31.6991   3
   1  -9   4 86.9657 39.9663   5
  -1  -9   4 53.7588 43.1590   5
   1  -9   5 326.182 67.5721   3
   1  -9   5 381.240 76.5771   5
  -1  -9   5 496.010 92.1276   5
   1  -9   6 125.282 48.8591   5
  -9   2   0 20.9959 23.5565   6
   2  -9   0 18.5103 26.4349   3
   2  -9   0-20.0902 28.5628   4
  -2  -9   0-7.31182 25.9451   4
   2  -9   1 1100.72 96.3283   3
   2  -9  -1 1177.37 97.4365   3
  -2  -9   1 1308.69 106.420   5
   2  -9  -1 1017.68 93.8699   4
  -2  -9   1 1144.98 100.131   4
  -2  -9  -1 1136.77 100.430   4
   2  -9   2 307.625 57.8667   3
   2  -9   2 313.858 58.4889   5
  -2  -9   2 414.571 64.3671   5
  -2  -9   2 278.073 53.5225   4
  -2  -9  -2 287.254 57.2233   4
   2  -9   3 65.0748 29.9156   3
   2  -9   3 121.532 46.0866   5
  -2  -9   3 133.093 48.5245   5
  -2  -9  -3 59.3193 36.0184   4
   2  -9   4 15.2334 29.5220   3
   2  -9   4-13.4253 39.2890   5
  -2  -9   4 33.8227 38.2366   5
   2  -9   5 102.508 41.5038   3
   2  -9   5 58.3959 48.4400   5
  -2  -9   5 75.6563 41.8438   5
   3  -9   0 960.904 90.6583   3
  -3  -9   0 837.698 89.1620   4
   3  -9   1 981.579 93.4978   3
   3  -9  -1 953.952 93.0826   3
  -3  -9   1 914.988 90.4481   5
  -3  -9   1 1005.41 95.0372   4
  -3  -9  -1 887.884 93.6678   4
   3  -9   2 724.593 84.0346   3
  -3  -9   2 598.954 77.8801   5
  -3  -9   2 675.991 77.8204   4
  -3  -9  -2 725.734 89.5949   4
   3  -9   3 2660.49 163.332   3
   3  -9   3 2325.14 157.371   5
  -3  -9   3 2852.17 175.651   5
  -3  -9  -3 2748.89 167.012   4
   3  -9   4 243.773 59.9264   3
   3  -9   4 360.313 66.4010   5
  -3  -9   4 254.061 58.6778   5
   3  -9   5 214.091 61.7426   3
  -3  -9   5 294.470 76.1400   5
   4  -9   0-26.5725 27.7273   3
  -4  -9   0 64.8394 37.5189   4
   4  -9   1 748.060 83.7088   3
   4  -9  -1 807.671 88.7027   3
  -4  -9   1 733.520 84.5307   4
  -4  -9  -1 830.335 92.9701   4
   4  -9   2 1520.40 122.278   3
  -4  -9   2 1525.41 121.315   5
  -4  -9  -2 1225.79 111.755   4
   4  -9   3-19.5964 38.9411   3
   4  -9   3 13.6903 30.1560   5
  -4  -9   3-26.7089 34.7275   5
  -4  -9  -3-25.9894 29.5038   4
   4  -9   4 503.942 79.7672   3
  -4  -9   4 623.898 96.3152   5
   4  -9   5 4.43262 34.6864   3
  -4  -9   5 0.37900 42.9407   5
   5  -9   0 621.710 81.0587   3
  -5  -9   0 693.196 86.7981   4
   5  -9   1 482.447 73.1437   3
   5  -9  -1 606.503 79.2119   3
  -5  -9   1 588.541 77.4382   4
  -5  -9  -1 498.811 74.8572   4
  -5  -9  -2 67.7703 37.4249   4
   5  -9   2 70.4163 33.2229   3
   5  -9   3 1453.42 130.608   3
  -5  -9   3 1499.09 130.033   5
  -5  -9  -3 1201.88 122.214   4
   5  -9   4 2789.75 186.269   3
  -5  -9   4 2637.80 186.395   5
  -5  -9  -4 2742.82 184.963   4
   5  -9   5 107.610 48.2987   3
  -5  -9   5 86.6666 58.2854   5
   6  -9   0-11.3663 27.4878   3
  -6  -9   0-28.1780 31.6169   4
   6  -9   1 2.35519 33.6328   3
   6  -9  -1 48.8830 34.1218   3
  -6  -9   1 55.4997 35.9240   4
  -6  -9  -1-28.7472 27.4145   4
  -6  -9  -2 37.1190 39.1125   4
   6  -9   2-18.7189 37.8629   3
  -6  -9  -3 260.157 68.4752   4
   6  -9   3 176.492 56.5350   3
  -6  -9  -4 9.74163 45.3062   4
   6  -9   4 102.099 49.3692   3
  -6  -9   4 55.7090 42.0512   5
  -6  -9   5 238.133 79.5068   5
   7  -9   0 143.039 49.9608   3
  -7  -9   0 113.842 42.5005   4
  -7  -9  -1-20.9576 35.5938   4
   7  -9   1 11.3168 28.7518   3
   7  -9  -1 4.04997 33.3545   3
  -7  -9   1 8.74486 35.2127   4
  -7  -9  -2 335.334 72.7143   4
   7  -9   2 234.733 63.5945   3
  -7  -9  -3 138.239 53.3546   4
   7  -9   3 235.412 63.0770   3
  -7  -9  -4 434.562 87.2164   4
   7  -9   4 442.819 85.5981   3
  -9  -8   0-46.5072 32.9993   4
   8  -9   0-7.06022 36.5626   3
  -8  -9   0-12.7417 36.9076   4
  -8  -9  -1 1.99129 41.1752   4
   8  -9   1-18.3768 33.7036   3
  -8  -9  -2 66.9432 39.4642   4
   8  -9   2 208.686 57.6634   3
  -8  -9  -3 255.266 70.3805   4
   8  -9   3 198.099 53.2738   3
   8  -9   4-11.6743 47.0899   3
  -9  -9   0 1760.76 152.067   4
  -9  -9  -1 45.8803 49.0764   4
  -9  -9  -2 592.802 101.899   4
   9  -9   2 498.591 85.7439   3
  -9  -9  -3-42.4578 46.1003   4
   9  -9   3 184.048 58.8828   3
   0 -10   0 903.289 87.9952   3
   0 -10   0 903.124 97.1889   4
   0 -10   1 20.4889 28.5403   4
   0 -10  -1-40.3654 27.7466   4
   0 -10   2 521.783 72.1469   3
   0 -10   2 608.563 83.5391   5
   0 -10  -2 491.875 73.5017   4
   0 -10   3 8.69386 31.7866   5
   0 -10   4 178.676 58.9616   5
   0 -10   5 11.7592 50.9285   5
   1 -10   0 26.6688 26.9506   3
   1 -10   0 25.9014 28.4846   4
  -1 -10   0-15.4967 34.3728   4
   1 -10   1 571.412 73.3757   3
  -1 -10   1 488.227 71.1146   5
   1 -10  -1 387.558 64.7840   4
  -1 -10   1 478.371 71.1080   4
  -1 -10  -1 290.018 57.9483   4
   1 -10   2 733.889 84.6337   3
   1 -10   2 611.359 84.8179   5
  -1 -10   2 717.855 88.4224   5
  -1 -10   2 871.997 96.0279   4
   1 -10  -2 794.412 92.5626   4
  -1 -10  -2 739.449 89.1193   4
   1 -10   3 43.6947 40.1163   3
   1 -10   3 95.2138 48.3053   5
  -1 -10   3-3.00402 30.4065   5
   1 -10   4 81.8561 31.0291   3
   1 -10   4 67.0796 46.0132   5
  -1 -10   4 62.4059 42.6042   5
   1 -10   5 57.7556 46.7443   3
   1 -10   5 108.668 55.1414   5
  -1 -10   5 77.6793 57.5671   5
   2 -10   0 937.949 95.2871   3
  -2 -10   0 788.211 89.8187   4
   2 -10   1 1235.11 106.725   3
  -2 -10   1 1168.27 108.413   5
   2 -10  -1 1311.22 113.132   3
   2 -10  -1 1233.49 108.574   4
  -2 -10   1 1341.94 117.219   4
  -2 -10  -1 1153.86 108.900   4
   2 -10   2 864.344 95.6083   3
  -2 -10   2 793.819 95.2216   5
  -2 -10   2 714.514 84.6424   4
  -2 -10  -2 723.532 91.3327   4
   2 -10   3 2646.33 167.916   3
   2 -10   3 2430.18 168.708   5
  -2 -10   3 2694.60 177.592   5
  -2 -10  -3 2737.16 171.917   4
   2 -10   4 424.827 73.1653   3
   2 -10   4 417.882 81.2569   5
  -2 -10   4 526.393 92.4725   5
   2 -10   5-5.78746 38.5012   3
   2 -10   5-23.7726 40.5311   5
  -2 -10   5 101.939 61.3843   5
   3 -10   0 1.21342 28.4088   3
  -3 -10   0 65.5503 40.5790   4
   3 -10   1 59.4633 35.0607   3
  -3 -10   1 21.5105 23.9753   5
   3 -10  -1 13.1405 29.7024   3
  -3 -10   1 63.4040 31.9347   4
  -3 -10  -1 31.2003 29.6721   4
   3 -10   2 43.0379 35.8077   3
  -3 -10   2-6.80366 26.6430   5
  -3 -10   2 11.1313 26.8914   4
  -3 -10  -2-17.8577 45.8783   4
   3 -10   3 325.729 62.2274   3
   3 -10   3 425.489 78.0910   5
  -3 -10   3 381.745 74.6495   5
  -3 -10  -3 305.026 61.6582   4
   3 -10   4 152.998 55.5765   3
   3 -10   4 87.4626 49.5342   5
  -3 -10   4 170.764 61.6670   5
   3 -10   5 554.488 92.7713   3
   3 -10   5 350.022 79.5051   5
  -3 -10   5 703.066 111.920   5
   4 -10   0 124.883 44.0287   3
  -4 -10   0 184.915 49.9456   4
   4 -10   1 443.883 72.7215   3
   4 -10  -1 323.595 66.3322   3
  -4 -10   1 330.677 63.4624   4
  -4 -10  -1 242.195 57.6049   4
   4 -10   2 266.390 60.5117   3
  -4 -10   2 253.382 58.2512   5
  -4 -10  -2 369.667 67.0993   4
   4 -10   3 983.941 111.338   3
  -4 -10   3 1085.90 115.097   5
  -4 -10  -3 1055.56 115.481   4
   4 -10   4 469.427 83.3273   3
   4 -10   4 550.975 91.8730   5
  -4 -10   4 616.460 106.159   5
   5 -10   0 44.0065 44.7472   3
  -5 -10   0 30.9194 33.2881   4
   5 -10   1 1181.75 114.717   3
   5 -10  -1 1249.42 117.267   3
  -5 -10   1 1267.09 117.963   4
  -5 -10  -1 1222.14 122.089   4
   5 -10   2 144.138 44.2313   3
  -5 -10  -2 160.831 52.7203   4
   5 -10   3 82.5715 44.5248   3
  -5 -10   3 73.9205 54.6868   5
  -5 -10  -3 14.7801 40.0822   4
   5 -10   4-13.2336 42.7489   3
  -5 -10   4 73.7507 52.8918   5
  -5 -10  -4 58.2692 37.7667   4
   6 -10   0 3038.07 184.070   3
  -6 -10   0 3161.66 193.626   4
   6 -10   1 595.518 85.6583   3
  -6 -10   1 763.627 96.9891   4
   6 -10  -1 514.395 78.5793   3
  -6 -10  -1 560.182 84.8761   4
   6 -10   2 1069.14 116.433   3
  -6 -10  -2 1305.25 132.003   4
   6 -10   3 914.695 108.345   3
  -6 -10  -3 877.923 113.524   4
   6 -10   4 95.6586 58.9099   3
  -6 -10  -4-12.7105 54.3386   4
   7 -10   0-70.5393 40.7131   3
  -7 -10   0-9.57751 33.1100   4
   7 -10   1 184.280 58.1199   3
  -7 -10   1 161.507 58.0853   4
  -7 -10  -1 111.301 53.6012   4
   7 -10   2 820.923 106.017   3
  -7 -10  -2 575.557 89.5640   4
  -7 -10  -3 35.0582 46.5501   4
   7 -10   3 90.9349 43.1711   3
 -10  -8   0 19.3441 33.8608   4
  -8 -10   0-51.9883 40.8837   4
   8 -10   1-6.46151 31.8375   3
  -8 -10  -1 41.1753 48.3908   4
  -8 -10  -2 129.295 61.1267   4
   8 -10   2 146.101 46.9796   3
   8 -10   3 70.0629 44.6347   3
   9 -10   0 12.8727 44.1966   3
  -9 -10   0 8.67409 39.1187   4
 -10  -9  -1 134.134 70.2404   4
   9 -10   1 135.016 57.4783   3
  -9 -10  -1 165.002 69.1031   4
   9 -10   2 365.646 78.9731   3
   0 -11   0 19.6322 32.7605   3
   0 -11   0 87.4661 45.9353   4
   0 -11   1 854.943 99.4837   4
   0 -11  -1 1044.15 110.137   4
   0 -11   2-155.310 51.6313   5
   0 -11  -2-28.6829 29.2245   4
   0 -11   3-0.67294 33.3372   5
   0 -11   4 24.1883 47.0176   5
   1 -11   0 782.073 90.2956   3
   1 -11   0 753.962 92.8796   4
  -1 -11   0 758.832 96.0745   4
   1 -11   1 130.197 45.1611   3
   1 -11  -1 147.772 48.4434   4
  -1 -11   1 126.857 43.3222   4
  -1 -11  -1 118.236 43.1519   4
   1 -11   2 115.232 44.5217   3
  -1 -11   2 35.7144 41.9133   5
  -1 -11   2 38.8942 40.4026   4
   1 -11  -2 1.40617 29.8475   4
  -1 -11  -2 71.5231 31.5191   4
   1 -11   3 305.067 69.4451   3
   1 -11   3 154.451 52.8526   5
  -1 -11   3 214.675 63.7178   5
   1 -11   4 2271.07 168.137   3
   1 -11   4 2455.15 188.177   5
  -1 -11   4 2077.65 175.432   5
   2 -11   0 23.0145 31.0230   3
  -2 -11   0-4.98015 37.7754   4
   2 -11   1 13.8104 32.8309   3
  -2 -11   1-10.1586 28.3506   4
  -2 -11  -1-50.9891 39.2114   4
   2 -11   2-1.69582 31.7443   3
  -2 -11   2 45.5029 40.6779   5
  -2 -11   2 6.41510 32.6350   4
  -2 -11  -2 53.4670 41.1505   4
   2 -11   3-7.30874 32.9268   3
   2 -11   3 26.2613 42.4184   5
  -2 -11   3 73.0419 43.7121   5
  -2 -11  -3 82.4825 43.2698   4
   2 -11   4-29.2007 43.8450   3
   2 -11   4 22.3205 44.6312   5
  -2 -11   4 84.2291 51.7351   5
   3 -11   0 2715.39 170.743   3
  -3 -11   0 2892.53 182.963   4
   3 -11   1-5.58901 32.8998   3
  -3 -11   1 53.0888 34.5191   4
  -3 -11  -1 78.1150 50.0719   4
   3 -11   2 891.046 104.762   3
  -3 -11   2 673.754 94.3055   5
  -3 -11   2 803.194 99.4569   4
  -3 -11  -2 591.225 88.0014   4
   3 -11   3 95.8534 44.2417   3
  -3 -11  -3 43.4942 31.6384   4
   3 -11   4 18.5553 43.8701   3
   3 -11   4 139.698 62.9302   5
  -3 -11   4 96.6790 61.7563   5
   4 -11   0-6.64452 30.6181   3
  -4 -11   0 17.0760 39.9367   4
   4 -11   1 290.215 62.2141   3
  -4 -11   1 383.072 74.1069   4
  -4 -11  -1 218.896 57.6731   4
   4 -11   2 44.9932 39.9171   3
  -4 -11  -2 19.7869 34.9136   4
   4 -11   3 257.966 67.0937   3
  -4 -11   3 452.123 86.5669   5
  -4 -11  -3 397.006 77.4140   4
   4 -11   4 72.3961 52.2944   3
  -4 -11   4-10.4538 42.6143   5
   5 -11   0 4536.88 229.862   3
  -5 -11   0 4735.17 241.970   4
   5 -11   1 8.04295 36.0208   3
  -5 -11   1 33.7920 32.3622   4
  -5 -11  -1 27.6602 38.4506   4
   5 -11   2 1270.31 129.215   3
  -5 -11  -2 1285.89 133.480   4
   5 -11   3 2.82259 40.4437   3
  -5 -11  -3 22.0736 50.1899   4
  -5 -11   4 36.8599 40.0127   5
   6 -11   0 14.9915 36.1043   3
  -6 -11   0-6.41976 29.8320   4
   6 -11   1 103.748 44.6060   3
  -6 -11   1 73.2333 36.8242   4
  -6 -11  -1 105.218 62.4630   4
   6 -11   2-68.6541 48.6346   3
  -6 -11  -2-19.0031 53.6480   4
   6 -11   3 343.657 78.0743   3
  -6 -11  -3 249.406 68.5685   4
   7 -11   0 307.861 79.6471   3
  -7 -11   0 454.233 86.2465   4
   7 -11   1-2.72437 40.1361   3
  -7 -11  -1-62.8061 59.3261   4
   7 -11   2 566.720 98.7943   3
  -7 -11  -2 447.142 90.0449   4
   8 -11   0 43.0170 46.7443   3
  -8 -11   0 2.99396 46.4138   4
   8 -11   1 2382.81 184.007   3
  -8 -11  -1 2409.32 190.538   4
   0 -12   0 4414.22 232.881   4
   0 -12   1 4.54214 36.5676   4
   0 -12  -1-5.78936 31.8615   4
   0 -12  -2 1994.96 158.445   4
   0 -12   3 35.3929 42.5841   5
   1 -12   0-20.5041 34.9765   3
   1 -12   0 39.4637 35.4958   4
  -1 -12   0 5.19469 31.3379   4
   1 -12   1 394.634 73.9408   3
   1 -12  -1 377.736 74.1425   4
  -1 -12   1 356.009 73.4519   4
  -1 -12  -1 307.026 65.9751   4
   1 -12   2 205.973 60.7832   3
   1 -12  -2 145.238 50.8128   4
  -1 -12  -2 190.300 60.1676   4
   1 -12   3 62.4201 44.9915   5
  -1 -12   3 62.1022 42.2409   5
   2 -12   0 196.731 58.8353   3
  -2 -12   0 183.119 61.2888   4
   2 -12   1 511.281 79.7797   3
  -2 -12  -1 641.466 96.8726   4
  -2 -12   1 627.525 93.6982   4
   2 -12   2 63.1558 45.2401   3
  -2 -12   2 2.41673 35.7765   5
  -2 -12   2-7.57079 33.5722   4
  -2 -12  -2-42.1026 42.8517   4
   2 -12   3 1360.06 139.011   3
  -2 -12   3 1525.02 154.224   5
  -2 -12  -3 1538.25 149.279   4
   3 -12   0 2.78014 34.1339   3
  -3 -12   0 104.800 50.7097   4
   3 -12   1 30.3127 31.0817   3
  -3 -12  -1 5.87368 39.8028   4
   3 -12   2 83.3140 47.0638   3
  -3 -12   2 115.966 50.5319   5
  -3 -12   2 18.9740 42.1816   4
  -3 -12  -2 109.090 51.2820   4
   3 -12   3 236.790 70.3008   3
  -3 -12   3 255.869 64.6794   5
  -3 -12  -3 339.508 80.2419   4
   4 -12   0 3930.12 224.092   3
  -4 -12   0 4149.53 236.838   4
   4 -12   1 17.3720 37.0516   3
  -4 -12   1 43.9727 42.4223   4
  -4 -12  -1 1.07328 37.3885   4
   4 -12   2 1391.03 137.245   3
  -4 -12  -2 1011.41 125.936   4
  -4 -12   3 89.9909 47.6885   5
  -4 -12  -3 14.4425 44.4261   4
   5 -12   0 109.140 58.8797   3
  -5 -12   0-10.8625 43.5193   4
   5 -12   1 647.234 97.2710   3
  -5 -12   1 680.472 100.031   4
  -5 -12  -1 820.693 111.631   4
   5 -12   2 43.1965 47.4381   3
  -5 -12  -2-28.8114 49.9369   4
   6 -12   0 310.685 80.0834   3
  -6 -12   0 154.861 63.7258   4
   6 -12   1-17.2601 47.9355   3
  -6 -12   1-35.8655 50.0885   4
  -6 -12  -1-74.9175 61.9349   4
   7 -12   0 42.5204 55.7796   3
  -7 -12   0-13.7183 43.1258   4
   0 -13   0 134.169 63.5562   4
   0 -13  -1 1408.56 145.535   4
   0 -13  -2 14.5248 40.6073   4
   1 -13   0 1370.85 131.033   3
  -1 -13   0 1557.42 154.883   4
   1 -13   1-14.5483 41.0499   3
   1 -13  -1 126.450 62.0351   4
  -1 -13   1-16.0854 51.2389   4
  -1 -13  -1-31.2484 53.7588   4
   1 -13  -2 652.463 105.198   4
  -1 -13  -2 649.248 101.480   4
   2 -13   0 6.23920 44.4023   3
  -2 -13   0-10.0294 44.0821   4
   2 -13   1 46.4295 51.6704   3
  -2 -13   1 77.9465 46.8562   4
  -2 -13  -1 22.1760 41.6223   4
   2 -13   2 40.9097 36.0135   3
  -2 -13  -2 65.2047 39.6993   4
   3 -13   0 488.194 87.0383   3
  -3 -13   0 537.148 93.7623   4
   3 -13   1 32.2892 36.4525   3
  -3 -13   1 40.8714 47.4296   4
  -3 -13  -1-20.1279 47.0458   4
   3 -13   2 450.897 85.5735   3
  -3 -13   2 395.885 86.1192   4
  -3 -13  -2 370.495 86.7265   4
   4 -13   0 45.9614 41.7512   3
  -4 -13   0 70.0140 53.4686   4
   4 -13   1 6.17092 37.4507   3
  -4 -13   1 117.438 56.9366   4
  -4 -13  -1-17.9116 45.5306   4
   0   0   0    0.00    0.00   0
TITL dc_FeB_t50_2 in P4(2)/nnm
REM P4(2)/nnm (#134 in standard setting)
CELL 0.71073   8.973106   8.973106   5.058695  90.0000  90.0000  90.0000
ZERR    1.00   0.000283   0.000283   0.000340   0.0000   0.0000   0.0000
LATT  1
SYMM -x+1/2,-y+1/2, z
SYMM -y+1/2, x, z+1/2
SYMM  y,-x+1/2, z+1/2
SYMM -x+1/2, y,-z+1/2
SYMM  x,-y+1/2,-z+1/2
SYMM  y, x,-z
SYMM -y+1/2,-x+1/2,-z
SFAC B Fe
UNIT 50.00 1.00
TREF
HKLF 4
END
;
_shelx_hkl_checksum              70277
loop_
_space_group_symop_operation_xyz
'x, y, z'
'-y+1/2, x, z+1/2'
'-x+1/2, -y+1/2, z'
'y, -x+1/2, z+1/2'
'x, -y+1/2, -z+1/2'
'-x+1/2, y, -z+1/2'
'y, x, -z'
'-y+1/2, -x+1/2, -z'
'-x, -y, -z'
'y-1/2, -x, -z-1/2'
'x-1/2, y-1/2, -z'
'-y, x-1/2, -z-1/2'
'-x, y-1/2, z-1/2'
'x-1/2, -y, z-1/2'
'-y, -x, z'
'y-1/2, x-1/2, z'
loop_
_atom_site_label
_atom_site_type_symbol
_atom_site_fract_x
_atom_site_fract_y
_atom_site_fract_z
_atom_site_U_iso_or_equiv
_atom_site_adp_type
_atom_site_occupancy
_atom_site_site_symmetry_order
_atom_site_calc_flag
_atom_site_refinement_flags_posn
_atom_site_refinement_flags_adp
_atom_site_refinement_flags_occupancy
_atom_site_disorder_assembly
_atom_site_disorder_group
Fe1 Fe -0.2500 0.2500 0.2500 0.0143(4) Uani 0.519(4) 8 d S T P . .
B1 B 0.2500 -0.2500 0.2500 0.0074(8) Uani 1 8 d S T P . .
B2 B 0.12214(18) -0.12214(18) 0.1382(5) 0.0070(5) Uani 1 2 d S T P . .
B3 B 0.00334(18) -0.00334(18) 0.3353(5) 0.0060(5) Uani 1 2 d S T P . .
B4 B -0.07278(19) -0.1546(2) 0.1469(4) 0.0099(4) Uani 1 1 d . . . . .
B5 B -0.16769(17) 0.02156(19) 0.1640(3) 0.0072(4) Uani 1 1 d . . . . .
loop_
_atom_site_aniso_label
_atom_site_aniso_U_11
_atom_site_aniso_U_22
_atom_site_aniso_U_33
_atom_site_aniso_U_23
_atom_site_aniso_U_13
_atom_site_aniso_U_12
Fe1 0.0047(4) 0.0047(4) 0.0337(8) 0.000 0.000 0.000
B1 0.0071(12) 0.0071(12) 0.0080(18) 0.000 0.000 0.000
B2 0.0068(6) 0.0068(6) 0.0073(10) -0.0003(6) 0.0003(6) 0.0002(8)
B3 0.0057(6) 0.0057(6) 0.0066(9) -0.0006(5) 0.0006(5) 0.0009(7)
B4 0.0063(7) 0.0126(8) 0.0109(8) -0.0064(6) 0.0012(6) -0.0011(6)
B5 0.0070(7) 0.0080(7) 0.0064(6) 0.0000(6) 0.0004(5) -0.0014(6)
loop_
_atom_type_symbol
_atom_type_description
_atom_type_scat_dispersion_real
_atom_type_scat_dispersion_imag
_atom_type_scat_source
B B 0.0013 0.0007 'International Tables Vol C Tables 4.2.6.8 and 6.1.1.4'
Fe Fe 0.3463 0.8444 'International Tables Vol C Tables 4.2.6.8 and 6.1.1.4'
loop_
_geom_angle_atom_site_label_1
_geom_angle_atom_site_label_2
_geom_angle_atom_site_label_3
_geom_angle
_geom_angle_site_symmetry_1
_geom_angle_site_symmetry_3
B5 Fe1 B5 141.17(8) . 5
B5 Fe1 B5 92.196(16) . 12_566
B5 Fe1 B5 49.33(8) 5 12_566
B5 Fe1 B5 45.38(8) . 6_455
B5 Fe1 B5 157.43(8) 5 6_455
B5 Fe1 B5 125.11(8) 12_566 6_455
B5 Fe1 B5 92.195(16) . 10_556
B5 Fe1 B5 125.11(8) 5 10_556
B5 Fe1 B5 157.43(8) 12_566 10_556
B5 Fe1 B5 49.33(8) 6_455 10_556
B5 Fe1 B5 125.11(8) . 16_565
B5 Fe1 B5 92.195(16) 5 16_565
B5 Fe1 B5 141.17(8) 12_566 16_565
B5 Fe1 B5 92.195(16) 6_455 16_565
B5 Fe1 B5 45.38(8) 10_556 16_565
B5 Fe1 B5 49.33(8) . 15
B5 Fe1 B5 92.195(16) 5 15
B5 Fe1 B5 45.38(8) 12_566 15
B5 Fe1 B5 92.195(16) 6_455 15
B5 Fe1 B5 141.17(8) 10_556 15
B5 Fe1 B5 157.43(8) 16_565 15
B5 Fe1 B5 157.43(8) . 3_455
B5 Fe1 B5 45.38(8) 5 3_455
B5 Fe1 B5 92.195(16) 12_566 3_455
B5 Fe1 B5 141.17(8) 6_455 3_455
B5 Fe1 B5 92.195(16) 10_556 3_455
B5 Fe1 B5 49.33(8) 16_565 3_455
B5 Fe1 B5 125.11(8) 15 3_455
B5 Fe1 B1 78.71(4) . 9
B5 Fe1 B1 101.29(4) 5 9
B5 Fe1 B1 101.29(4) 12_566 9
B5 Fe1 B1 101.29(4) 6_455 9
B5 Fe1 B1 101.29(4) 10_556 9
B5 Fe1 B1 78.71(4) 16_565 9
B5 Fe1 B1 78.71(4) 15 9
B5 Fe1 B1 78.71(4) 3_455 9
B5 Fe1 B1 101.29(4) . 9_556
B5 Fe1 B1 78.71(4) 5 9_556
B5 Fe1 B1 78.71(4) 12_566 9_556
B5 Fe1 B1 78.71(4) 6_455 9_556
B5 Fe1 B1 78.71(4) 10_556 9_556
B5 Fe1 B1 101.29(4) 16_565 9_556
B5 Fe1 B1 101.29(4) 15 9_556
B5 Fe1 B1 101.29(4) 3_455 9_556
B1 Fe1 B1 180.0 9 9_556
B5 Fe1 B2 114.63(4) . 4
B5 Fe1 B2 44.26(6) 5 4
B5 Fe1 B2 44.26(6) 12_566 4
B5 Fe1 B2 114.48(6) 6_455 4
B5 Fe1 B2 114.48(6) 10_556 4
B5 Fe1 B2 114.63(4) 16_565 4
B5 Fe1 B2 83.40(5) 15 4
B5 Fe1 B2 83.40(5) 3_455 4
B1 Fe1 B2 140.44(5) 9 4
B1 Fe1 B2 39.56(5) 9_556 4
B5 Fe1 B2 114.48(6) . 11_565
B5 Fe1 B2 83.40(5) 5 11_565
B5 Fe1 B2 114.63(4) 12_566 11_565
B5 Fe1 B2 114.63(4) 6_455 11_565
B5 Fe1 B2 83.40(5) 10_556 11_565
B5 Fe1 B2 44.26(6) 16_565 11_565
B5 Fe1 B2 114.48(6) 15 11_565
B5 Fe1 B2 44.26(6) 3_455 11_565
B1 Fe1 B2 39.56(5) 9 11_565
B1 Fe1 B2 140.44(5) 9_556 11_565
B2 Fe1 B2 126.46(6) 4 11_565
B2 B1 B2 96.22(5) . 10_656
B2 B1 B2 96.22(5) . 12_556
B2 B1 B2 141.58(16) 10_656 12_556
B2 B1 B2 141.58(16) . 3_545
B2 B1 B2 96.22(5) 10_656 3_545
B2 B1 B2 96.22(5) 12_556 3_545
B2 B1 Fe1 109.21(8) . 9_556
B2 B1 Fe1 70.79(8) 10_656 9_556
B2 B1 Fe1 70.79(8) 12_556 9_556
B2 B1 Fe1 109.21(8) 3_545 9_556
B2 B1 Fe1 70.79(8) . 9
B2 B1 Fe1 109.21(8) 10_656 9
B2 B1 Fe1 109.21(8) 12_556 9
B2 B1 Fe1 70.79(8) 3_545 9
Fe1 B1 Fe1 180.0 9_556 9
B1 B2 B4 122.72(9) . 15
B1 B2 B4 122.72(9) . .
B4 B2 B4 108.87(17) 15 .
B1 B2 B3 127.31(15) . .
B4 B2 B3 60.10(9) 15 .
B4 B2 B3 60.10(9) . .
B1 B2 B5 117.20(12) . 7
B4 B2 B5 108.87(14) 15 7
B4 B2 B5 59.70(9) . 7
B3 B2 B5 107.64(13) . 7
B1 B2 B5 117.20(12) . 9
B4 B2 B5 59.70(9) 15 9
B4 B2 B5 108.87(14) . 9
B3 B2 B5 107.64(13) . 9
B5 B2 B5 61.18(13) 7 9
B1 B2 Fe1 69.65(8) . 9
B4 B2 Fe1 112.91(10) 15 9
B4 B2 Fe1 112.91(10) . 9
B3 B2 Fe1 163.04(14) . 9
B5 B2 Fe1 58.34(8) 7 9
B5 B2 Fe1 58.34(8) 9 9
B3 B3 B5 116.84(18) 9_556 15
B3 B3 B5 116.84(18) 9_556 .
B5 B3 B5 62.93(13) 15 .
B3 B3 B4 122.96(11) 9_556 15
B5 B3 B4 60.47(9) 15 15
B5 B3 B4 110.30(15) . 15
B3 B3 B4 122.96(11) 9_556 .
B5 B3 B4 110.30(15) 15 .
B5 B3 B4 60.47(9) . .
B4 B3 B4 107.11(16) 15 .
B3 B3 B2 126.4(2) 9_556 .
B5 B3 B2 108.34(14) 15 .
B5 B3 B2 108.34(14) . .
B4 B3 B2 59.02(9) 15 .
B4 B3 B2 59.02(9) . .
B2 B4 B5 61.49(11) . 7
B2 B4 B3 60.88(11) . .
B5 B4 B3 109.65(12) 7 .
B2 B4 B5 108.90(12) . .
B5 B4 B5 108.90(12) 7 .
B3 B4 B5 59.29(10) . .
B2 B4 B4 108.20(11) . 7
B5 B4 B4 59.84(11) 7 7
B3 B4 B4 106.45(12) . 7
B5 B4 B4 59.44(10) . 7
B2 B4 B4 98.81(9) . 5_545
B5 B4 B4 113.65(12) 7 5_545
B3 B4 B4 111.72(15) . 5_545
B5 B4 B4 136.55(12) . 5_545
B4 B4 B4 140.56(10) 7 5_545
B5 B5 B3 119.80(16) 6_455 .
B5 B5 B4 120.15(13) 6_455 7
B3 B5 B4 108.21(13) . 7
B5 B5 B4 115.63(8) 6_455 .
B3 B5 B4 60.24(9) . .
B4 B5 B4 60.72(12) 7 .
B5 B5 B2 128.25(13) 6_455 9
B3 B5 B2 106.13(11) . 9
B4 B5 B2 58.80(9) 7 9
B4 B5 B2 106.79(12) . 9
B5 B5 B5 127.54(5) 6_455 15
B3 B5 B5 58.54(7) . 15
B4 B5 B5 106.74(7) 7 15
B4 B5 B5 106.67(7) . 15
B2 B5 B5 59.41(6) 9 15
B5 B5 Fe1 67.31(4) 6_455 .
B3 B5 Fe1 107.92(10) . .
B4 B5 Fe1 129.05(10) 7 .
B4 B5 Fe1 168.01(10) . .
B2 B5 Fe1 77.40(9) 9 .
B5 B5 Fe1 65.34(4) 15 .
loop_
_geom_bond_atom_site_label_1
_geom_bond_atom_site_label_2
_geom_bond_distance
_geom_bond_site_symmetry_2
Fe1 B5 2.2218(17) .
Fe1 B5 2.2218(17) 5
Fe1 B5 2.2218(17) 12_566
Fe1 B5 2.2218(17) 6_455
Fe1 B5 2.2218(17) 10_556
Fe1 B5 2.2218(17) 16_565
Fe1 B5 2.2218(17) 15
Fe1 B5 2.2218(17) 3_455
Fe1 B1 2.52935(15) 9
Fe1 B1 2.52935(15) 9_556
Fe1 B2 2.548(2) 4
Fe1 B2 2.548(2) 11_565
B1 B2 1.718(2) .
B1 B2 1.718(2) 10_656
B1 B2 1.718(2) 12_556
B1 B2 1.718(2) 3_545
B1 Fe1 2.52935(15) 9_556
B1 Fe1 2.52935(15) 9
B2 B4 1.774(2) 15
B2 B4 1.774(2) .
B2 B3 1.807(3) .
B2 B5 1.822(3) 7
B2 B5 1.822(3) 9
B2 Fe1 2.548(2) 9
B3 B3 1.669(5) 9_556
B3 B5 1.776(3) 15
B3 B5 1.776(3) .
B3 B4 1.794(2) 15
B3 B4 1.794(2) .
B4 B5 1.790(2) 7
B4 B5 1.798(2) .
B4 B4 1.814(4) 7
B4 B4 2.004(4) 5_545
B5 B5 1.714(3) 6_455
B5 B4 1.790(2) 7
B5 B2 1.822(3) 9
B5 B5 1.854(3) 15
