#------------------------------------------------------------------------------
#$Date: 2021-04-14 13:15:56 +0300 (Wed, 14 Apr 2021) $
#$Revision: 264162 $
#$URL: file:///home/coder/svn-repositories/cod/cif/1/56/17/1561767.cif $
#------------------------------------------------------------------------------
#
# This file is available in the Crystallography Open Database (COD),
# http://www.crystallography.net/
#
# All data on this site have been placed in the public domain by the
# contributors.
#
data_1561767
loop_
_publ_author_name
'Bykova, E.'
'Gou, H.'
'Bykov, M.'
'Hanfland, M.'
'Dubrovinsky, L.'
'Dubrovinskaia, N.'
_publ_section_title
;
 Crystal structures and compressibility of novel iron borides Fe2B7 and Fe
 B50 synthesized at high pressure and high temperature
;
_journal_name_full               'Journal of Solid State Chemistry'
_journal_page_first              102
_journal_page_last               109
_journal_paper_doi               10.1016/j.jssc.2015.06.040
_journal_volume                  230
_journal_year                    2015
_chemical_absolute_configuration .
_chemical_formula_moiety         'B50 Fe1.01'
_chemical_formula_sum            'B50 Fe1.01'
_chemical_formula_weight         596.9
_chemical_name_common            'Iron Boron (1.01/50)'
_chemical_name_systematic        'Iron Boron (1.01/50)'
_space_group_IT_number           134
_space_group_name_Hall           '-P 4ac 2bc'
_space_group_name_H-M_alt        'P 42/n n m :2'
_symmetry_cell_setting           tetragonal
_symmetry_Int_Tables_number      134
_symmetry_space_group_name_Hall  '-P 4ac 2bc'
_symmetry_space_group_name_H-M   'P 42/n n m :2'
_cell_angle_alpha                90
_cell_angle_beta                 90
_cell_angle_gamma                90
_cell_formula_units_Z            1
_cell_length_a                   8.9324(3)
_cell_length_b                   8.9324(3)
_cell_length_c                   5.0278(3)
_cell_measurement_reflns_used    261
_cell_measurement_temperature    293
_cell_measurement_theta_max      17.94
_cell_measurement_theta_min      3.02
_cell_volume                     401.16(3)
_computing_cell_refinement
;
CrysAlisPro, Agilent Technologies,
Version 1.171.37.35 (release 13-08-2014 CrysAlis171 .NET)
(compiled Aug 13 2014,18:06:01)
;
_computing_data_collection
;
CrysAlisPro, Agilent Technologies,
Version 1.171.37.35 (release 13-08-2014 CrysAlis171 .NET)
(compiled Aug 13 2014,18:06:01)
;
_computing_data_reduction
;
CrysAlisPro, Agilent Technologies,
Version 1.171.37.35 (release 13-08-2014 CrysAlis171 .NET)
(compiled Aug 13 2014,18:06:01)
;
_computing_structure_refinement  'Jana2006 (Petricek, 2014)'
_computing_structure_solution    'SHELXS-2013 (Sheldrick, 2013)'
_diffrn_ambient_pressure         2800000
_diffrn_ambient_temperature      293
_diffrn_detector                 'MAR555 flatpanel detector'
_diffrn_measured_fraction_theta_full 0.97
_diffrn_measured_fraction_theta_max 0.67
_diffrn_measurement_device
;
customized omega-circle diffractometer
;
_diffrn_measurement_device_type  'ESRF, beamline ID09A diffractometer'
_diffrn_measurement_method       '\w scans'
_diffrn_radiation_monochromator  synchrotron
_diffrn_radiation_probe          x-ray
_diffrn_radiation_source         synchrotron
_diffrn_radiation_type           synchrotron
_diffrn_radiation_wavelength     0.41441
_diffrn_reflns_av_R_equivalents  0.0375
_diffrn_reflns_av_unetI/netI     0.0427
_diffrn_reflns_limit_h_max       9
_diffrn_reflns_limit_h_min       -7
_diffrn_reflns_limit_k_max       12
_diffrn_reflns_limit_k_min       -13
_diffrn_reflns_limit_l_max       7
_diffrn_reflns_limit_l_min       -6
_diffrn_reflns_number            912
_diffrn_reflns_theta_full        9.44
_diffrn_reflns_theta_max         19.47
_diffrn_reflns_theta_min         1.88
_diffrn_source                   synchrotron
_exptl_absorpt_coefficient_mu    0.23
_exptl_absorpt_correction_T_max  1
_exptl_absorpt_correction_T_min  0.173
_exptl_absorpt_correction_type   multi-scan
_exptl_absorpt_process_details
;
CrysAlisPro, Agilent Technologies,
Version 1.171.37.35 (release 13-08-2014 CrysAlis171 .NET)
(compiled Aug 13 2014,18:06:01)
Empirical absorption correction using spherical harmonics,
 implemented in SCALE3 ABSPACK scaling algorithm.
;
_exptl_crystal_colour            black
_exptl_crystal_density_diffrn    2.47
_exptl_crystal_description       plate
_exptl_crystal_F_000             276
_exptl_crystal_size_max          0.020
_exptl_crystal_size_mid          0.020
_exptl_crystal_size_min          0.005
_refine_diff_density_max         0.61
_refine_diff_density_min         -0.47
_refine_ls_extinction_method     none
_refine_ls_goodness_of_fit_gt    2.55
_refine_ls_goodness_of_fit_ref   2.46
_refine_ls_number_constraints    0
_refine_ls_number_parameters     36
_refine_ls_number_reflns         320
_refine_ls_number_restraints     0
_refine_ls_R_factor_all          0.0626
_refine_ls_R_factor_gt           0.0544
_refine_ls_shift/su_max          0.0003
_refine_ls_shift/su_mean         0.0000
_refine_ls_structure_factor_coef Fsqd
_refine_ls_weighting_details     w=1/(\s^2^(I)+0.0004I^2^)
_refine_ls_weighting_scheme      sigma
_refine_ls_wR_factor_gt          0.1260
_refine_ls_wR_factor_ref         0.1336
_reflns_number_gt                271
_reflns_number_total             320
_reflns_threshold_expression     I>2\s(I)
_cod_data_source_file            feb50_02.8GPa.cif
_cod_data_source_block           Fe1.0B50_2.8GPa
_cod_depositor_comments
;
The following automatic conversions were performed:

data item '_diffrn_radiation_probe' value 'X-ray' was changed to
'x-ray' in accordance with the built-in table derived from the CIF
Core dictionary named 'cif_core.dic' version 2.4.5 last updated on
2014-11-21.

Automatic conversion script
Id: cif_fix_values 8369 2020-08-20 11:38:08Z andrius 
;
_cod_original_sg_symbol_H-M      'P 42/n n m'
_cod_database_code               1561767
loop_
_symmetry_equiv_pos_site_id
_symmetry_equiv_pos_as_xyz
1 x,y,z
2 -x+1/2,-y+1/2,z
3 -y+1/2,x,z+1/2
4 y,-x+1/2,z+1/2
5 -x+1/2,y,-z+1/2
6 x,-y+1/2,-z+1/2
7 y,x,-z
8 -y+1/2,-x+1/2,-z
9 -x,-y,-z
10 x+1/2,y+1/2,-z
11 y+1/2,-x,-z+1/2
12 -y,x+1/2,-z+1/2
13 x+1/2,-y,z+1/2
14 -x,y+1/2,z+1/2
15 -y,-x,z
16 y+1/2,x+1/2,z
loop_
_atom_site_label
_atom_site_type_symbol
_atom_site_fract_x
_atom_site_fract_y
_atom_site_fract_z
_atom_site_adp_type
_atom_site_U_iso_or_equiv
_atom_site_site_symmetry_multiplicity
_atom_site_occupancy
_atom_site_calc_flag
_atom_site_refinement_flags
_atom_site_disorder_assembly
_atom_site_disorder_group
Fe1 Fe -0.25 0.25 0.25 Uani 0.0116(6) 2 0.505(5) d . . .
B4 B -0.0729(3) -0.1543(3) 0.1473(5) Uani 0.0082(7) 16 1 d . . .
B5 B -0.1674(3) 0.0225(3) 0.1624(5) Uani 0.0058(7) 16 1 d . . .
B2 B 0.1223(3) -0.1223(3) 0.1386(6) Uani 0.0054(7) 8 1 d . . .
B3 B 0.0029(3) -0.0029(3) 0.3353(6) Uani 0.0045(7) 8 1 d . . .
B1 B 0.25 -0.25 0.25 Uani 0.0064(15) 2 1 d . . .
loop_
_atom_site_aniso_label
_atom_site_aniso_type_symbol
_atom_site_aniso_U_11
_atom_site_aniso_U_22
_atom_site_aniso_U_33
_atom_site_aniso_U_12
_atom_site_aniso_U_13
_atom_site_aniso_U_23
Fe1 Fe 0.0033(8) 0.0033(8) 0.0284(12) 0 0 0
B4 B 0.0058(13) 0.0133(14) 0.0055(12) 0.0004(13) 0.0015(8) -0.0045(8)
B5 B 0.0061(13) 0.0067(13) 0.0045(11) -0.0018(12) 0.0012(7) -0.0008(8)
B2 B 0.0067(12) 0.0067(12) 0.0029(15) -0.0026(18) -0.0004(7) 0.0004(7)
B3 B 0.0059(12) 0.0059(12) 0.0016(13) 0.0005(16) 0.0009(7) -0.0009(7)
B1 B 0.008(2) 0.008(2) 0.004(3) 0 0 0
loop_
_atom_type_symbol
_atom_type_scat_dispersion_real
_atom_type_scat_dispersion_imag
_atom_type_scat_source
B -0.0003 0.0002 'International Tables Vol C tables 4.2.6.8 and 6.1.1.1'
Fe 0.1991 0.3104 'International Tables Vol C tables 4.2.6.8 and 6.1.1.1'
loop_
_geom_angle_atom_site_label_1
_geom_angle_atom_site_label_2
_geom_angle_atom_site_label_3
_geom_angle_site_symmetry_1
_geom_angle_site_symmetry_2
_geom_angle_site_symmetry_3
_geom_angle
B5 Fe1 B5 . . 2_455 156.98(8)
B5 Fe1 B5 . . 5_455 45.82(9)
B5 Fe1 B5 . . 6_555 140.95(9)
B5 Fe1 B5 . . 11_455 92.28(9)
B5 Fe1 B5 . . 12_555 92.28(9)
B5 Fe1 B5 . . 15_555 49.04(9)
B5 Fe1 B5 . . 16_455 125.17(9)
B5 Fe1 B2 . . 3_455 83.66(8)
B5 Fe1 B2 . . 4_555 114.71(8)
B5 Fe1 B2 . . 7_555 44.02(9)
B5 Fe1 B2 . . 8_455 114.29(9)
B5 Fe1 B1 . . 3_454 78.49(6)
B5 Fe1 B1 . . 3_455 101.51(6)
B5 Fe1 B5 2_455 . 5_455 140.95(9)
B5 Fe1 B5 2_455 . 6_555 45.82(9)
B5 Fe1 B5 2_455 . 11_455 92.28(9)
B5 Fe1 B5 2_455 . 12_555 92.28(9)
B5 Fe1 B5 2_455 . 15_555 125.17(9)
B5 Fe1 B5 2_455 . 16_455 49.04(9)
B5 Fe1 B2 2_455 . 3_455 114.71(8)
B5 Fe1 B2 2_455 . 4_555 83.66(8)
B5 Fe1 B2 2_455 . 7_555 114.29(9)
B5 Fe1 B2 2_455 . 8_455 44.02(9)
B5 Fe1 B1 2_455 . 3_454 78.49(6)
B5 Fe1 B1 2_455 . 3_455 101.51(6)
B5 Fe1 B5 5_455 . 6_555 156.98(8)
B5 Fe1 B5 5_455 . 11_455 49.04(9)
B5 Fe1 B5 5_455 . 12_555 125.17(9)
B5 Fe1 B5 5_455 . 15_555 92.28(9)
B5 Fe1 B5 5_455 . 16_455 92.28(9)
B5 Fe1 B2 5_455 . 3_455 44.02(9)
B5 Fe1 B2 5_455 . 4_555 114.29(9)
B5 Fe1 B2 5_455 . 7_555 83.66(8)
B5 Fe1 B2 5_455 . 8_455 114.71(8)
B5 Fe1 B1 5_455 . 3_454 101.51(6)
B5 Fe1 B1 5_455 . 3_455 78.49(6)
B5 Fe1 B5 6_555 . 11_455 125.17(9)
B5 Fe1 B5 6_555 . 12_555 49.04(9)
B5 Fe1 B5 6_555 . 15_555 92.28(9)
B5 Fe1 B5 6_555 . 16_455 92.28(9)
B5 Fe1 B2 6_555 . 3_455 114.29(9)
B5 Fe1 B2 6_555 . 4_555 44.02(9)
B5 Fe1 B2 6_555 . 7_555 114.71(8)
B5 Fe1 B2 6_555 . 8_455 83.66(8)
B5 Fe1 B1 6_555 . 3_454 101.51(6)
B5 Fe1 B1 6_555 . 3_455 78.49(6)
B5 Fe1 B5 11_455 . 12_555 156.98(8)
B5 Fe1 B5 11_455 . 15_555 140.95(9)
B5 Fe1 B5 11_455 . 16_455 45.82(9)
B5 Fe1 B2 11_455 . 3_455 44.02(9)
B5 Fe1 B2 11_455 . 4_555 114.29(9)
B5 Fe1 B2 11_455 . 7_555 114.71(8)
B5 Fe1 B2 11_455 . 8_455 83.66(8)
B5 Fe1 B1 11_455 . 3_454 101.51(6)
B5 Fe1 B1 11_455 . 3_455 78.49(6)
B5 Fe1 B5 12_555 . 15_555 45.82(9)
B5 Fe1 B5 12_555 . 16_455 140.95(9)
B5 Fe1 B2 12_555 . 3_455 114.29(9)
B5 Fe1 B2 12_555 . 4_555 44.02(9)
B5 Fe1 B2 12_555 . 7_555 83.66(8)
B5 Fe1 B2 12_555 . 8_455 114.71(8)
B5 Fe1 B1 12_555 . 3_454 101.51(6)
B5 Fe1 B1 12_555 . 3_455 78.49(6)
B5 Fe1 B5 15_555 . 16_455 156.98(8)
B5 Fe1 B2 15_555 . 3_455 114.71(8)
B5 Fe1 B2 15_555 . 4_555 83.66(8)
B5 Fe1 B2 15_555 . 7_555 44.02(9)
B5 Fe1 B2 15_555 . 8_455 114.29(9)
B5 Fe1 B1 15_555 . 3_454 78.49(6)
B5 Fe1 B1 15_555 . 3_455 101.51(6)
B5 Fe1 B2 16_455 . 3_455 83.66(8)
B5 Fe1 B2 16_455 . 4_555 114.71(8)
B5 Fe1 B2 16_455 . 7_555 114.29(9)
B5 Fe1 B2 16_455 . 8_455 44.02(9)
B5 Fe1 B1 16_455 . 3_454 78.49(6)
B5 Fe1 B1 16_455 . 3_455 101.51(6)
B2 Fe1 B2 3_455 . 4_555 79.10(9)
B2 Fe1 B2 3_455 . 7_555 126.48(8)
B2 Fe1 B2 3_455 . 8_455 126.48(8)
B2 Fe1 B1 3_455 . 3_454 140.45(6)
B2 Fe1 B1 3_455 . 3_455 39.55(6)
B2 Fe1 B2 4_555 . 7_555 126.48(8)
B2 Fe1 B2 4_555 . 8_455 126.48(8)
B2 Fe1 B1 4_555 . 3_454 140.45(6)
B2 Fe1 B1 4_555 . 3_455 39.55(6)
B2 Fe1 B2 7_555 . 8_455 79.10(9)
B2 Fe1 B1 7_555 . 3_454 39.55(6)
B2 Fe1 B1 7_555 . 3_455 140.45(6)
B2 Fe1 B1 8_455 . 3_454 39.55(6)
B2 Fe1 B1 8_455 . 3_455 140.45(6)
B1 Fe1 B1 3_454 . 3_455 180.0(5)
B4 B4 B4 6_545 . 7_555 140.35(19)
B4 B4 B5 6_545 . . 137.06(18)
B4 B4 B5 6_545 . 7_555 113.36(17)
B4 B4 B2 6_545 . . 98.71(17)
B4 B4 B3 6_545 . . 112.03(17)
B4 B4 B5 7_555 . . 59.30(14)
B4 B4 B5 7_555 . 7_555 60.04(14)
B4 B4 B2 7_555 . . 108.19(19)
B4 B4 B3 7_555 . . 106.40(19)
B5 B4 B5 . . 7_555 108.71(17)
B5 B4 B2 . . . 108.85(18)
B5 B4 B3 . . . 59.20(14)
B5 B4 B2 7_555 . . 61.09(15)
B5 B4 B3 7_555 . . 109.40(18)
B2 B4 B3 . . . 61.06(15)
Fe1 B5 B4 . . . 167.82(16)
Fe1 B5 B4 . . 7_555 129.62(15)
Fe1 B5 B5 . . 5_455 67.09(12)
Fe1 B5 B5 . . 15_555 65.48(11)
Fe1 B5 B2 . . 7_555 77.68(12)
Fe1 B5 B3 . . . 107.92(14)
B4 B5 B4 . . 7_555 60.66(14)
B4 B5 B5 . . 5_455 115.24(18)
B4 B5 B5 . . 15_555 106.85(17)
B4 B5 B2 . . 7_555 107.14(17)
B4 B5 B3 . . . 60.15(14)
B4 B5 B5 7_555 . 5_455 120.34(18)
B4 B5 B5 7_555 . 15_555 106.98(16)
B4 B5 B2 7_555 . 7_555 59.13(14)
B4 B5 B3 7_555 . . 108.23(18)
B5 B5 B5 5_455 . 15_555 127.39(18)
B5 B5 B2 5_455 . 7_555 128.50(18)
B5 B5 B3 5_455 . . 119.16(18)
B5 B5 B2 15_555 . 7_555 59.47(14)
B5 B5 B3 15_555 . . 58.78(13)
B2 B5 B3 7_555 . . 106.49(17)
Fe1 B2 B4 3_554 . . 112.98(16)
Fe1 B2 B4 3_554 . 15_555 112.98(16)
Fe1 B2 B5 3_554 . 7_555 58.30(11)
Fe1 B2 B5 3_554 . 9_555 58.30(11)
Fe1 B2 B3 3_554 . . 162.81(18)
Fe1 B2 B1 3_554 . . 69.60(9)
B4 B2 B4 . . 15_555 108.60(18)
B4 B2 B5 . . 7_555 59.77(14)
B4 B2 B5 . . 9_555 108.77(18)
B4 B2 B3 . . . 59.92(14)
B4 B2 B1 . . . 122.86(18)
B4 B2 B5 15_555 . 7_555 108.77(18)
B4 B2 B5 15_555 . 9_555 59.77(14)
B4 B2 B3 15_555 . . 59.92(14)
B4 B2 B1 15_555 . . 122.86(18)
B5 B2 B5 7_555 . 9_555 61.07(15)
B5 B2 B3 7_555 . . 107.48(18)
B5 B2 B1 7_555 . . 117.16(17)
B5 B2 B3 9_555 . . 107.48(18)
B5 B2 B1 9_555 . . 117.16(17)
B3 B2 B1 . . . 127.6(2)
B4 B3 B4 . . 15_555 107.13(19)
B4 B3 B5 . . . 60.65(15)
B4 B3 B5 . . 15_555 110.11(19)
B4 B3 B2 . . . 59.02(14)
B4 B3 B3 . . 7_556 122.76(19)
B4 B3 B5 15_555 . . 110.11(19)
B4 B3 B5 15_555 . 15_555 60.65(15)
B4 B3 B2 15_555 . . 59.02(14)
B4 B3 B3 15_555 . 7_556 122.76(19)
B5 B3 B5 . . 15_555 62.44(15)
B5 B3 B2 . . . 108.37(19)
B5 B3 B3 . . 7_556 117.45(18)
B5 B3 B2 15_555 . . 108.37(19)
B5 B3 B3 15_555 . 7_556 117.45(18)
B2 B3 B3 . . 7_556 125.8(2)
Fe1 B1 Fe1 3_554 . 3_555 180.0(5)
Fe1 B1 B2 3_554 . . 70.85(10)
Fe1 B1 B2 3_554 . 2_545 70.85(10)
Fe1 B1 B2 3_554 . 5_555 109.15(10)
Fe1 B1 B2 3_554 . 6_545 109.15(10)
Fe1 B1 B2 3_555 . . 109.15(10)
Fe1 B1 B2 3_555 . 2_545 109.15(10)
Fe1 B1 B2 3_555 . 5_555 70.85(10)
Fe1 B1 B2 3_555 . 6_545 70.85(10)
B2 B1 B2 . . 2_545 141.70(14)
B2 B1 B2 . . 5_555 96.18(12)
B2 B1 B2 . . 6_545 96.18(12)
B2 B1 B2 2_545 . 5_555 96.18(12)
B2 B1 B2 2_545 . 6_545 96.18(12)
B2 B1 B2 5_555 . 6_545 141.70(14)
loop_
_geom_bond_atom_site_label_1
_geom_bond_atom_site_label_2
_geom_bond_site_symmetry_1
_geom_bond_site_symmetry_2
_geom_bond_distance
Fe1 B5 . . 2.206(3)
Fe1 B5 . 2_455 2.206(3)
Fe1 B5 . 5_455 2.206(3)
Fe1 B5 . 6_555 2.206(3)
Fe1 B5 . 11_455 2.206(3)
Fe1 B5 . 12_555 2.206(3)
Fe1 B5 . 15_555 2.206(3)
Fe1 B5 . 16_455 2.206(3)
Fe1 B2 . 3_455 2.534(3)
Fe1 B2 . 4_555 2.534(3)
Fe1 B2 . 7_555 2.534(3)
Fe1 B2 . 8_455 2.534(3)
Fe1 B1 . 3_454 2.5139(3)
Fe1 B1 . 3_455 2.5139(3)
B4 B4 . 6_545 1.997(4)
B4 B4 . 7_555 1.804(4)
B4 B5 . . 1.793(4)
B4 B5 . 7_555 1.779(3)
B4 B2 . . 1.767(4)
B4 B3 . . 1.784(4)
B5 B5 . 5_455 1.718(3)
B5 B5 . 15_555 1.831(3)
B5 B2 . 7_555 1.802(4)
B5 B3 . . 1.767(3)
B2 B3 . . 1.804(4)
B2 B1 . . 1.708(3)
B3 B3 . 7_556 1.658(4)
loop_
_refln_index_h
_refln_index_k
_refln_index_l
_refln_F_squared_calc
_refln_F_squared_meas
_refln_F_squared_sigma
_refln_observed_status
1 0 1 243.09 200.09 8.87 o
1 0 3 262.06 258.69 9.65 o
1 0 5 29.21 38.56 5.67 o
1 0 7 36.28 67.75 12.66 o
1 1 0 1124.22 1157.78 12.83 o
1 1 1 753.40 889.98 11.59 o
1 1 2 531.60 485.04 10.16 o
1 1 3 407.67 443.98 9.04 o
1 1 4 167.18 179.36 6.96 o
1 1 5 18.18 16.83 2.68 o
1 1 6 54.81 80.27 7.73 o
2 0 0 495.96 475.79 8.46 o
2 0 2 65.60 94.73 3.75 o
2 0 4 684.72 616.89 17.24 o
2 0 6 557.84 575.97 22.31 o
2 1 1 165.75 198.10 3.62 o
2 1 2 9.19 10.47 1.16 o
2 1 3 52.64 50.79 3.14 o
2 1 4 21.73 16.90 2.02 o
2 1 5 16.04 20.33 2.18 o
2 1 6 50.56 52.47 3.64 o
2 1 7 17.69 37.05 7.62 o
2 2 0 320.25 420.73 11.05 o
2 2 1 0.01 0.09 0.12 <
2 2 2 385.61 443.30 11.83 o
2 2 3 0.02 0.08 0.22 <
2 2 4 281.52 279.95 15.08 o
2 2 5 0.10 -1.42 1.68 <
2 2 6 81.53 106.87 11.57 o
2 2 7 0.11 0.63 1.84 <
3 0 1 55.01 36.57 2.16 o
3 0 3 59.30 47.69 2.66 o
3 0 5 53.68 48.18 6.23 o
3 1 0 776.14 867.45 12.83 o
3 1 1 1054.71 1322.99 10.74 o
3 1 2 426.74 414.17 5.66 o
3 1 3 1355.07 1204.96 13.58 o
3 1 4 132.68 140.53 6.32 o
3 1 5 22.40 31.08 3.27 o
3 1 6 41.61 80.69 9.81 o
3 1 7 333.98 472.78 27.21 o
3 2 1 2.88 0.56 0.33 <
3 2 2 15.17 19.26 1.59 o
3 2 3 146.38 114.10 4.84 o
3 2 4 3.73 8.52 1.39 o
3 2 5 143.57 134.17 8.79 o
3 2 6 0.73 -1.52 1.65 <
3 2 7 9.57 10.18 3.48 o
3 3 0 624.73 714.24 17.69 o
3 3 1 565.07 725.10 18.06 o
3 3 2 361.35 405.92 13.15 o
3 3 3 1313.97 1264.14 24.11 o
3 3 4 111.86 100.61 7.10 o
3 3 5 198.54 211.65 13.50 o
3 3 6 38.70 43.93 8.05 o
3 3 7 184.12 234.40 21.51 o
4 0 0 151.43 152.60 6.82 o
4 0 2 520.04 576.34 11.25 o
4 0 4 567.43 533.98 12.05 o
4 0 6 16.38 18.77 4.29 o
4 1 1 972.96 1132.71 12.21 o
4 1 2 69.95 59.71 2.59 o
4 1 3 16.12 34.87 1.96 o
4 1 4 3.99 3.89 0.84 o
4 1 5 73.95 83.10 6.15 o
4 1 6 28.79 52.37 9.08 o
4 2 0 758.75 850.77 18.67 o
4 2 1 1.86 1.37 0.49 o
4 2 2 351.65 341.60 7.32 o
4 2 3 0.79 0.74 0.46 <
4 2 4 67.02 65.13 4.25 o
4 2 5 2.14 0.27 0.67 <
4 2 6 35.56 39.41 5.86 o
4 2 7 1.64 -0.09 3.09 <
4 3 1 230.19 237.73 7.84 o
4 3 2 655.87 617.77 12.64 o
4 3 3 86.38 84.14 3.91 o
4 3 4 252.48 249.06 8.45 o
4 3 5 2.97 1.75 1.08 <
4 3 6 39.87 36.08 5.23 o
4 3 7 5.65 1.52 1.31 <
4 4 0 1763.87 1723.29 44.64 o
4 4 1 12.90 17.36 3.33 o
4 4 2 438.57 385.66 15.14 o
4 4 3 10.99 12.29 2.49 o
4 4 4 19.51 18.87 3.38 o
4 4 5 10.40 15.99 3.34 o
4 4 6 5.73 3.98 2.52 <
4 4 7 17.20 20.27 6.59 o
5 0 1 1375.76 1310.23 16.39 o
5 0 3 10.59 9.99 1.76 o
5 0 5 289.31 275.39 9.35 o
5 1 0 319.61 335.58 8.84 o
5 1 1 73.15 90.81 3.24 o
5 1 2 329.16 310.95 6.41 o
5 1 3 103.12 92.19 3.71 o
5 1 4 212.55 214.15 6.09 o
5 1 5 3.38 1.70 0.52 o
5 1 6 35.65 44.08 7.87 o
5 2 1 575.26 566.63 10.34 o
5 2 2 851.55 783.12 12.07 o
5 2 3 66.88 64.40 3.65 o
5 2 4 222.67 229.50 7.22 o
5 2 5 26.54 27.86 3.62 o
5 2 6 124.14 121.69 12.72 o
5 3 0 415.72 452.49 16.23 o
5 3 1 0.68 0.16 1.96 <
5 3 2 273.08 293.79 8.06 o
5 3 3 9.41 10.17 1.44 o
5 3 4 101.74 112.72 6.19 o
5 3 5 67.23 71.10 5.31 o
5 3 6 35.14 39.65 5.17 o
5 3 7 6.96 3.47 2.74 <
5 4 1 256.42 198.34 9.60 o
5 4 2 37.02 35.46 4.19 o
5 4 3 236.58 228.79 7.39 o
5 4 4 12.74 15.71 2.34 o
5 4 5 686.53 709.88 16.92 o
5 4 6 3.31 0.19 1.13 <
5 4 7 45.62 77.94 9.72 o
5 5 1 5.45 8.30 2.79 o
5 5 2 201.24 218.74 13.25 o
5 5 3 0.73 1.63 1.41 <
5 5 4 0.06 1.50 2.80 <
5 5 5 21.89 18.62 3.77 o
5 5 6 16.99 19.82 4.48 o
5 5 7 6.82 7.93 4.05 <
6 0 0 237.54 207.82 9.86 o
6 0 2 0.32 4.79 1.01 o
6 0 4 611.81 602.73 15.37 o
6 0 6 839.65 719.16 27.89 o
6 1 1 90.41 63.48 2.98 o
6 1 2 483.19 466.18 8.71 o
6 1 3 164.90 164.01 5.39 o
6 1 4 91.34 96.61 5.28 o
6 1 5 429.86 515.62 13.50 o
6 1 6 114.84 123.32 8.80 o
6 2 0 2627.50 2598.47 38.29 o
6 2 1 14.48 10.84 1.57 o
6 2 2 793.00 709.87 12.29 o
6 2 3 8.66 7.23 1.22 o
6 2 4 43.33 42.61 3.35 o
6 2 5 21.91 22.69 3.11 o
6 2 6 198.49 250.05 17.42 o
6 3 1 663.49 581.29 13.72 o
6 3 2 312.16 293.88 9.40 o
6 3 3 3.96 4.18 1.22 o
6 3 4 89.77 75.98 5.30 o
6 3 5 107.15 105.39 6.82 o
6 3 6 45.20 62.91 6.53 o
6 4 0 78.21 96.28 8.64 o
6 4 1 0.15 0.29 0.60 <
6 4 2 20.41 21.32 3.31 o
6 4 3 0.86 0.66 0.53 <
6 4 4 540.04 517.41 12.01 o
6 4 5 8.49 7.12 1.89 o
6 4 6 457.31 471.47 18.65 o
6 5 1 142.27 144.17 11.21 o
6 5 2 31.76 29.51 3.54 o
6 5 3 22.39 22.32 3.13 o
6 5 4 0.78 1.17 0.76 <
6 5 5 0.14 -0.29 0.62 <
6 5 6 37.75 37.07 9.37 o
6 6 1 96.97 99.07 9.45 o
6 6 2 377.15 377.87 18.98 o
6 6 3 155.73 143.57 11.88 o
6 6 4 63.19 62.31 7.93 o
6 6 5 13.79 18.16 5.75 o
7 0 1 78.11 71.00 4.69 o
7 0 3 120.11 115.61 6.79 o
7 0 5 355.58 306.41 12.11 o
7 1 0 216.39 189.46 7.80 o
7 1 1 9.69 15.32 1.56 o
7 1 2 141.55 122.41 4.84 o
7 1 3 7.17 7.23 1.28 o
7 1 4 77.29 72.00 6.10 o
7 1 5 11.18 13.22 2.47 o
7 1 6 79.60 44.03 7.71 o
7 2 1 115.72 119.53 5.40 o
7 2 2 285.18 274.90 8.23 o
7 2 3 43.55 44.31 3.92 o
7 2 4 121.69 113.53 7.03 o
7 2 5 6.33 5.69 1.46 o
7 2 6 22.99 16.02 5.52 o
7 3 0 61.74 64.18 6.91 o
7 3 1 4.31 3.96 1.28 o
7 3 2 153.63 152.10 7.32 o
7 3 3 23.09 24.85 2.68 o
7 3 4 252.01 248.30 9.48 o
7 3 5 13.83 17.48 3.14 o
7 3 6 74.27 90.21 12.38 o
7 4 1 147.17 142.59 7.65 o
7 4 2 0.08 1.15 0.96 <
7 4 3 8.07 8.54 1.77 o
7 4 4 2.11 4.24 1.35 o
7 4 5 0.45 0.15 0.81 <
7 4 6 1.59 -1.34 1.78 <
7 5 0 209.99 213.15 14.01 o
7 5 1 87.69 110.08 10.19 o
7 5 2 183.22 189.84 11.12 o
7 5 3 190.33 204.91 14.12 o
7 5 4 93.14 97.05 6.26 o
7 5 5 0.02 -0.81 2.66 <
7 5 6 14.81 12.79 5.52 o
7 6 1 456.25 476.55 22.72 o
7 6 2 77.97 90.03 8.00 o
7 6 3 20.19 19.32 4.59 o
7 6 4 24.48 30.21 7.95 o
7 7 2 340.95 378.08 29.29 o
8 0 0 767.68 833.67 23.86 o
8 0 2 284.93 281.01 10.96 o
8 0 4 1.64 0.35 0.57 <
8 1 1 154.14 162.19 5.74 o
8 1 2 13.67 10.61 1.51 o
8 1 3 44.57 48.47 3.52 o
8 1 4 37.90 57.42 5.86 o
8 1 5 0.05 -0.51 0.66 <
8 1 6 9.84 11.06 4.32 o
8 2 0 50.09 44.80 4.64 o
8 2 1 11.36 9.63 1.63 o
8 2 2 101.44 109.76 5.66 o
8 2 3 42.07 42.16 4.01 o
8 2 4 179.54 182.03 9.19 o
8 2 5 10.90 11.07 2.44 o
8 2 6 104.28 79.74 12.42 o
8 3 1 221.02 221.30 9.65 o
8 3 2 7.22 5.04 1.27 o
8 3 3 13.47 12.46 2.42 o
8 3 4 1.33 1.75 1.00 <
8 3 5 10.61 10.29 5.07 o
8 3 6 1.90 1.15 1.26 <
8 4 0 176.25 148.12 11.87 o
8 4 1 99.35 99.63 6.79 o
8 4 2 194.94 188.21 11.18 o
8 4 3 216.95 224.61 12.82 o
8 4 4 119.36 133.65 9.66 o
8 4 5 0.01 0.17 1.08 <
8 5 1 1.26 0.11 1.56 <
8 5 2 226.60 260.20 23.83 o
8 5 3 23.23 25.45 8.55 o
8 5 4 112.10 124.39 9.84 o
8 6 0 107.21 138.18 17.20 o
8 6 1 0.86 1.72 1.88 <
9 0 1 2.65 5.56 1.46 o
9 0 3 192.82 207.43 11.39 o
9 1 0 983.91 934.27 20.36 o
9 1 1 137.08 143.32 5.74 o
9 1 2 313.39 324.23 9.30 o
9 1 3 459.82 481.65 12.86 o
9 1 4 7.22 5.53 2.21 o
9 1 5 68.56 75.45 8.47 o
9 2 1 197.30 204.67 8.29 o
9 2 2 62.42 61.67 4.94 o
9 2 3 14.63 14.43 3.08 o
9 2 4 6.20 1.21 0.95 <
9 2 5 9.65 8.60 3.04 o
9 3 0 167.90 177.96 12.81 o
9 3 1 156.95 175.86 7.98 o
9 3 2 135.29 126.26 7.36 o
9 3 3 460.10 502.09 19.08 o
9 3 4 68.38 69.67 7.16 o
9 3 5 39.33 43.39 7.21 o
9 3 6 21.09 25.73 7.51 o
9 4 1 146.90 144.65 9.80 o
9 4 2 252.54 240.33 22.26 o
9 4 3 0.06 1.11 1.17 <
9 4 4 112.49 134.93 11.82 o
9 5 0 150.58 149.32 18.86 o
9 5 1 96.02 99.60 14.74 o
9 5 4 575.06 634.47 24.75 o
10 0 0 171.90 185.66 13.27 o
10 0 2 97.15 95.02 8.44 o
10 0 4 33.04 34.99 7.01 o
10 1 1 85.79 86.15 5.16 o
10 1 2 140.89 169.37 8.39 o
10 1 3 10.76 8.78 1.97 o
10 1 4 16.50 24.19 4.21 o
10 2 0 160.34 153.50 9.86 o
10 2 1 234.43 224.45 10.16 o
10 2 2 141.02 140.09 8.89 o
10 2 3 486.77 521.05 16.81 o
10 2 4 70.22 96.97 9.08 o
10 2 5 0.69 0.38 1.41 <
10 3 1 2.67 2.51 1.54 <
10 3 2 2.62 2.32 1.31 <
10 3 3 67.31 72.37 7.80 o
10 3 4 17.62 21.18 4.13 o
10 4 1 78.42 82.79 13.44 o
10 4 2 57.78 53.58 6.77 o
10 4 3 202.98 221.74 13.85 o
10 4 4 110.54 136.30 11.13 o
11 0 1 192.80 192.03 13.64 o
11 0 3 0.29 0.27 0.70 <
11 1 0 124.80 152.65 17.71 o
11 1 1 21.47 27.16 4.56 o
11 1 2 10.26 7.93 1.92 o
11 1 3 46.77 54.30 5.26 o
11 1 4 481.72 625.60 23.81 o
11 2 1 0.21 -0.21 1.08 <
11 2 2 4.64 1.87 1.42 <
11 2 3 14.64 6.81 2.12 o
11 2 4 3.40 1.34 1.21 <
11 3 1 3.80 2.11 1.26 <
11 3 2 131.99 131.98 11.27 o
11 3 3 17.80 15.22 4.61 o
11 3 4 4.08 3.85 3.42 <
11 4 3 69.54 70.27 9.80 o
12 0 2 320.76 302.74 25.75 o
12 0 4 0.74 2.46 2.98 <
12 1 2 31.76 49.82 7.24 o
12 1 3 11.04 9.16 3.30 o
12 1 4 13.70 -0.80 2.13 <
12 2 2 1.44 -3.64 2.07 <
12 2 3 255.42 297.71 18.01 o
12 3 2 3.75 8.12 4.00 o
12 3 3 50.77 55.03 10.21 o
12 4 3 20.51 27.69 6.60 o
13 1 3 0.35 0.40 2.42 <
13 2 3 21.08 20.61 6.31 o
13 3 3 14.98 8.32 4.33 <
