#------------------------------------------------------------------------------
#$Date: 2021-03-23 10:18:35 +0200 (Tue, 23 Mar 2021) $
#$Revision: 263238 $
#$URL: file:///home/coder/svn-repositories/cod/cif/1/56/11/1561193.cif $
#------------------------------------------------------------------------------
#
# This file is available in the Crystallography Open Database (COD),
# http://www.crystallography.net/
#
# All data on this site have been placed in the public domain by the
# contributors.
#
data_1561193
loop_
_publ_author_name
'Colmont, Marie'
'Mentr\'e, Olivier'
'Henry, Natacha'
'Pautrat, Alain'
'Leclercq, Bastien'
'Capet, Fr\'ed\'eric'
'Djelal, Nora'
'Roussel, Pascal'
_publ_section_title
;
 Undulated oxo-centered layers in PbLn3O4(VO4) (Ln= La and Nd) and
 relationship with Nd4O4(GeO4)
;
_journal_name_full               'Journal of Solid State Chemistry'
_journal_page_first              101
_journal_page_last               105
_journal_paper_doi               10.1016/j.jssc.2018.01.016
_journal_volume                  260
_journal_year                    2018
_chemical_absolute_configuration .
_chemical_formula_sum            'La3 O8 Pb V'
_chemical_formula_weight         802.8
_space_group_IT_number           63
_space_group_name_Hall           '-C 2c 2'
_space_group_name_H-M_alt        'C m c m'
_symmetry_cell_setting           orthorhombic
_symmetry_Int_Tables_number      63
_symmetry_space_group_name_Hall  '-C 2c 2'
_symmetry_space_group_name_H-M   'C m c m'
_cell_angle_alpha                90
_cell_angle_beta                 90
_cell_angle_gamma                90
_cell_formula_units_Z            4
_cell_length_a                   5.8708(4)
_cell_length_b                   17.8771(12)
_cell_length_c                   7.8989(5)
_cell_measurement_reflns_used    2694
_cell_measurement_temperature    100
_cell_measurement_theta_max      27.477
_cell_measurement_theta_min      3.442
_cell_volume                     829.01(10)
_diffrn_ambient_temperature      100
_diffrn_measured_fraction_theta_full 1
_diffrn_measured_fraction_theta_max 1
_diffrn_measurement_device       'four-circle diffractometer'
_diffrn_measurement_device_type  'Bruker CCD'
_diffrn_radiation_monochromator  graphite
_diffrn_radiation_probe          x-ray
_diffrn_radiation_source         'X-ray tube'
_diffrn_radiation_type           'Mo K\a'
_diffrn_radiation_wavelength     0.71073
_diffrn_reflns_av_R_equivalents  0.0309
_diffrn_reflns_av_unetI/netI     0.0176
_diffrn_reflns_limit_h_max       7
_diffrn_reflns_limit_h_min       -7
_diffrn_reflns_limit_k_max       19
_diffrn_reflns_limit_k_min       -22
_diffrn_reflns_limit_l_max       9
_diffrn_reflns_limit_l_min       -8
_diffrn_reflns_number            3959
_diffrn_reflns_theta_full        26.39
_diffrn_reflns_theta_max         26.39
_diffrn_reflns_theta_min         2.28
_exptl_absorpt_coefficient_mu    36.458
_exptl_absorpt_correction_T_max  0.7456
_exptl_absorpt_correction_T_min  0.4733
_exptl_absorpt_correction_type   multi-scan
_exptl_absorpt_process_details
;
SADABS-2012/1 (Bruker,2012) 
;
_exptl_crystal_colour            orange
_exptl_crystal_density_diffrn    6.4325
_exptl_crystal_description       block
_exptl_crystal_F_000             1360
_exptl_crystal_size_max          0.072
_exptl_crystal_size_mid          0.047
_exptl_crystal_size_min          0.023
_refine_diff_density_max         0.71
_refine_diff_density_min         -0.83
_refine_ls_extinction_method     none
_refine_ls_goodness_of_fit_gt    1.50
_refine_ls_goodness_of_fit_ref   1.49
_refine_ls_number_constraints    0
_refine_ls_number_parameters     42
_refine_ls_number_reflns         505
_refine_ls_number_restraints     0
_refine_ls_R_factor_all          0.0175
_refine_ls_R_factor_gt           0.0169
_refine_ls_shift/su_max          0.0184
_refine_ls_shift/su_mean         0.0015
_refine_ls_structure_factor_coef F
_refine_ls_weighting_details     w=1/(\s^2^(F)+0.0001F^2^)
_refine_ls_weighting_scheme      sigma
_refine_ls_wR_factor_gt          0.0231
_refine_ls_wR_factor_ref         0.0234
_reflns_number_gt                488
_reflns_number_total             505
_reflns_threshold_expression     I>3\s(I)
_cod_data_source_file            JSSC-2018-260-101.cif
_cod_data_source_block           II
_cod_depositor_comments
;
The following automatic conversions were performed:

data item '_diffrn_radiation_probe' value 'X-ray' was changed to
'x-ray' in accordance with the built-in table derived from the CIF
Core dictionary named 'cif_core.dic' version 2.4.5 last updated on
2014-11-21.

Automatic conversion script
Id: cif_fix_values 8369 2020-08-20 11:38:08Z andrius 
;
_cod_original_sg_symbol_Hall     '-C -2x;-2yc;-2zc'
_cod_original_formula_sum        'La3 O8 Pb1 V1'
_cod_database_code               1561193
loop_
_space_group_symop_id
_space_group_symop_operation_xyz
1 x,y,z
2 -x,-y,z+1/2
3 -x,y,-z+1/2
4 x,-y,-z
5 -x,-y,-z
6 x,y,-z+1/2
7 x,-y,z+1/2
8 -x,y,z
9 x+1/2,y+1/2,z
10 -x+1/2,-y+1/2,z+1/2
11 -x+1/2,y+1/2,-z+1/2
12 x+1/2,-y+1/2,-z
13 -x+1/2,-y+1/2,-z
14 x+1/2,y+1/2,-z+1/2
15 x+1/2,-y+1/2,z+1/2
16 -x+1/2,y+1/2,z
loop_
_atom_site_label
_atom_site_type_symbol
_atom_site_fract_x
_atom_site_fract_y
_atom_site_fract_z
_atom_site_adp_type
_atom_site_U_iso_or_equiv
_atom_site_site_symmetry_multiplicity
_atom_site_occupancy
_atom_site_calc_flag
_atom_site_refinement_flags
_atom_site_disorder_assembly
_atom_site_disorder_group
Pb Pb 0 0.289747(18) 0.25 Uani 0.00369(12) 4 1 d . . .
La1 La 0 0.49345(3) 0.25 Uani 0.00234(18) 4 1 d . . .
La2 La 0.5 0.39488(2) 0.48943(5) Uani 0.00206(15) 8 1 d . . .
V1 V 1 0.31236(9) 0.75 Uani 0.0026(4) 4 1 d . . .
O1 O 1 0.2582(3) 0.5749(5) Uani 0.0071(14) 8 1 d . . .
O2 O 0.2564(7) 0.5 0.5 Uani 0.0046(14) 8 1 d . . .
O3 O 0.2472(7) 0.3813(2) 0.25 Uani 0.0032(13) 8 1 d . . .
O4 O 0.7646(7) 0.3723(3) 0.75 Uani 0.0067(13) 8 1 d . . .
loop_
_atom_site_aniso_label
_atom_site_aniso_type_symbol
_atom_site_aniso_U_11
_atom_site_aniso_U_22
_atom_site_aniso_U_33
_atom_site_aniso_U_12
_atom_site_aniso_U_13
_atom_site_aniso_U_23
Pb Pb 0.00219(18) 0.0032(2) 0.0057(2) 0 0 0
La1 La 0.0011(3) 0.0026(3) 0.0033(3) 0 0 0
La2 La 0.0011(2) 0.0026(3) 0.0025(3) 0 0 0.00006(13)
V1 V 0.0027(7) 0.0006(8) 0.0044(8) 0 0 0
O1 O 0.003(2) 0.012(3) 0.007(2) 0 0 -0.001(2)
O2 O 0.004(2) 0.008(3) 0.002(2) 0 0 0.0009(18)
O3 O 0.003(2) 0.003(2) 0.004(2) -0.0004(17) 0 0
O4 O 0.007(2) 0.010(2) 0.004(2) -0.0009(19) 0 0
loop_
_atom_type_symbol
_atom_type_scat_dispersion_real
_atom_type_scat_dispersion_imag
_atom_type_scat_source
La -0.2871 2.4523 'International Tables Vol C tables 4.2.6.8 and 6.1.1.1'
O 0.0106 0.0060 'International Tables Vol C tables 4.2.6.8 and 6.1.1.1'
Pb -3.3944 10.1111 'International Tables Vol C tables 4.2.6.8 and 6.1.1.1'
V 0.3005 0.5294 'International Tables Vol C tables 4.2.6.8 and 6.1.1.1'
loop_
_geom_angle_atom_site_label_1
_geom_angle_atom_site_label_2
_geom_angle_atom_site_label_3
_geom_angle_site_symmetry_1
_geom_angle_site_symmetry_2
_geom_angle_site_symmetry_3
_geom_angle
La1 Pb La2 . . 1_455 61.710(7)
La1 Pb La2 . . . 61.710(7)
La1 Pb La2 . . 10_554 148.053(6)
La1 Pb La2 . . 3_555 61.710(7)
La1 Pb La2 . . 3_655 61.710(7)
La1 Pb La2 . . 12_456 148.053(6)
La1 Pb V1 . . 10_554 121.88(2)
La1 Pb V1 . . 10_654 121.88(2)
La1 Pb O1 . . 1_455 102.41(10)
La1 Pb O1 . . 3_655 102.41(10)
La1 Pb O3 . . . 41.57(11)
La1 Pb O3 . . 3_555 41.57(11)
La2 Pb La2 1_455 . . 95.500(9)
La2 Pb La2 1_455 . 10_554 130.883(6)
La2 Pb La2 1_455 . 3_555 56.969(8)
La2 Pb La2 1_455 . 3_655 123.419(11)
La2 Pb La2 1_455 . 12_456 98.616(7)
La2 Pb V1 1_455 . 10_554 67.77(2)
La2 Pb V1 1_455 . 10_654 151.506(5)
La2 Pb O1 1_455 . 1_455 68.66(6)
La2 Pb O1 1_455 . 3_655 124.59(4)
La2 Pb O3 1_455 . . 97.85(10)
La2 Pb O3 1_455 . 3_555 32.25(5)
La2 Pb La2 . . 10_554 130.883(6)
La2 Pb La2 . . 3_555 123.419(11)
La2 Pb La2 . . 3_655 56.969(8)
La2 Pb La2 . . 12_456 98.616(7)
La2 Pb V1 . . 10_554 151.506(5)
La2 Pb V1 . . 10_654 67.77(2)
La2 Pb O1 . . 1_455 68.66(6)
La2 Pb O1 . . 3_655 124.59(4)
La2 Pb O3 . . . 32.25(5)
La2 Pb O3 . . 3_555 97.85(10)
La2 Pb La2 10_554 . 3_555 98.616(7)
La2 Pb La2 10_554 . 3_655 98.616(7)
La2 Pb La2 10_554 . 12_456 63.894(10)
La2 Pb V1 10_554 . 10_554 63.38(2)
La2 Pb V1 10_554 . 10_654 63.38(2)
La2 Pb O1 10_554 . 1_455 109.54(10)
La2 Pb O1 10_554 . 3_655 45.64(10)
La2 Pb O3 10_554 . . 129.41(8)
La2 Pb O3 10_554 . 3_555 129.41(8)
La2 Pb La2 3_555 . 3_655 95.500(9)
La2 Pb La2 3_555 . 12_456 130.883(6)
La2 Pb V1 3_555 . 10_554 67.77(2)
La2 Pb V1 3_555 . 10_654 151.506(5)
La2 Pb O1 3_555 . 1_455 124.59(4)
La2 Pb O1 3_555 . 3_655 68.66(6)
La2 Pb O3 3_555 . . 97.85(10)
La2 Pb O3 3_555 . 3_555 32.25(5)
La2 Pb La2 3_655 . 12_456 130.883(6)
La2 Pb V1 3_655 . 10_554 151.506(5)
La2 Pb V1 3_655 . 10_654 67.77(2)
La2 Pb O1 3_655 . 1_455 124.59(4)
La2 Pb O1 3_655 . 3_655 68.66(6)
La2 Pb O3 3_655 . . 32.25(5)
La2 Pb O3 3_655 . 3_555 97.85(10)
La2 Pb V1 12_456 . 10_554 63.38(2)
La2 Pb V1 12_456 . 10_654 63.38(2)
La2 Pb O1 12_456 . 1_455 45.64(10)
La2 Pb O1 12_456 . 3_655 109.54(10)
La2 Pb O3 12_456 . . 129.41(8)
La2 Pb O3 12_456 . 3_555 129.41(8)
V1 Pb V1 10_554 . 10_654 116.25(4)
V1 Pb O1 10_554 . 1_455 83.48(5)
V1 Pb O1 10_554 . 3_655 83.48(5)
V1 Pb O3 10_554 . . 163.45(11)
V1 Pb O3 10_554 . 3_555 80.30(11)
V1 Pb O1 10_654 . 1_455 83.48(5)
V1 Pb O1 10_654 . 3_655 83.48(5)
V1 Pb O3 10_654 . . 80.30(11)
V1 Pb O3 10_654 . 3_555 163.45(11)
O1 Pb O1 1_455 . 3_655 155.18(14)
O1 Pb O3 1_455 . . 99.25(7)
O1 Pb O3 1_455 . 3_555 99.25(7)
O1 Pb O3 3_655 . . 99.25(7)
O1 Pb O3 3_655 . 3_555 99.25(7)
O3 Pb O3 . . 3_555 83.14(16)
Pb La1 La1 . . 2_564 93.392(11)
Pb La1 La1 . . 2_565 93.392(11)
Pb La1 La2 . . 1_455 63.222(9)
Pb La1 La2 . . . 63.222(9)
Pb La1 La2 . . 2_564 119.111(8)
Pb La1 La2 . . 2_664 119.111(8)
Pb La1 La2 . . 3_555 63.222(9)
Pb La1 La2 . . 3_655 63.222(9)
Pb La1 La2 . . 4_466 119.111(8)
Pb La1 La2 . . 4_566 119.111(8)
Pb La1 V1 . . 2_664 180.0(5)
Pb La1 O2 . . . 92.699(13)
Pb La1 O2 . . 2_564 92.699(13)
Pb La1 O2 . . 5_566 92.699(13)
Pb La1 O2 . . 6_555 92.699(13)
Pb La1 O3 . . . 35.90(10)
Pb La1 O3 . . 3_555 35.90(10)
Pb La1 O4 . . 2_664 150.06(9)
Pb La1 O4 . . 4_466 150.06(9)
La1 La1 La1 2_564 . 2_565 173.216(19)
La1 La1 La2 2_564 . 1_455 120.620(8)
La1 La1 La2 2_564 . . 120.620(8)
La1 La1 La2 2_564 . 2_564 58.029(7)
La1 La1 La2 2_564 . 2_664 58.029(7)
La1 La1 La2 2_564 . 3_555 62.869(7)
La1 La1 La2 2_564 . 3_655 62.869(7)
La1 La1 La2 2_564 . 4_466 118.159(10)
La1 La1 La2 2_564 . 4_566 118.159(10)
La1 La1 V1 2_564 . 2_664 86.608(11)
La1 La1 O2 2_564 . . 142.21(8)
La1 La1 O2 2_564 . 2_564 37.27(8)
La1 La1 O2 2_564 . 5_566 142.21(8)
La1 La1 O2 2_564 . 6_555 37.27(8)
La1 La1 O3 2_564 . . 92.747(9)
La1 La1 O3 2_564 . 3_555 92.747(9)
La1 La1 O4 2_564 . 2_664 87.061(10)
La1 La1 O4 2_564 . 4_466 87.061(10)
La1 La1 La2 2_565 . 1_455 62.869(7)
La1 La1 La2 2_565 . . 62.869(7)
La1 La1 La2 2_565 . 2_564 118.159(10)
La1 La1 La2 2_565 . 2_664 118.159(10)
La1 La1 La2 2_565 . 3_555 120.620(8)
La1 La1 La2 2_565 . 3_655 120.620(8)
La1 La1 La2 2_565 . 4_466 58.029(7)
La1 La1 La2 2_565 . 4_566 58.029(7)
La1 La1 V1 2_565 . 2_664 86.608(11)
La1 La1 O2 2_565 . . 37.27(8)
La1 La1 O2 2_565 . 2_564 142.21(8)
La1 La1 O2 2_565 . 5_566 37.27(8)
La1 La1 O2 2_565 . 6_555 142.21(8)
La1 La1 O3 2_565 . . 92.747(9)
La1 La1 O3 2_565 . 3_555 92.747(9)
La1 La1 O4 2_565 . 2_664 87.061(10)
La1 La1 O4 2_565 . 4_466 87.061(10)
La2 La1 La2 1_455 . . 97.263(11)
La2 La1 La2 1_455 . 2_564 85.690(7)
La2 La1 La2 1_455 . 2_664 176.940(12)
La2 La1 La2 1_455 . 3_555 57.833(9)
La2 La1 La2 1_455 . 3_655 126.444(16)
La2 La1 La2 1_455 . 4_466 55.930(8)
La2 La1 La2 1_455 . 4_566 120.898(8)
La2 La1 V1 1_455 . 2_664 116.778(9)
La2 La1 O2 1_455 . . 95.25(7)
La2 La1 O2 1_455 . 2_564 87.18(7)
La2 La1 O2 1_455 . 5_566 35.18(4)
La2 La1 O2 1_455 . 6_555 149.29(5)
La2 La1 O3 1_455 . . 94.31(9)
La2 La1 O3 1_455 . 3_555 36.39(6)
La2 La1 O4 1_455 . 2_664 139.91(6)
La2 La1 O4 1_455 . 4_466 90.91(8)
La2 La1 La2 . . 2_564 176.940(12)
La2 La1 La2 . . 2_664 85.690(7)
La2 La1 La2 . . 3_555 126.444(16)
La2 La1 La2 . . 3_655 57.833(9)
La2 La1 La2 . . 4_466 120.898(8)
La2 La1 La2 . . 4_566 55.930(8)
La2 La1 V1 . . 2_664 116.778(9)
La2 La1 O2 . . . 35.18(4)
La2 La1 O2 . . 2_564 149.29(5)
La2 La1 O2 . . 5_566 95.25(7)
La2 La1 O2 . . 6_555 87.18(7)
La2 La1 O3 . . . 36.39(6)
La2 La1 O3 . . 3_555 94.31(9)
La2 La1 O4 . . 2_664 90.91(8)
La2 La1 O4 . . 4_466 139.91(6)
La2 La1 La2 2_564 . 2_664 91.345(10)
La2 La1 La2 2_564 . 3_555 55.930(8)
La2 La1 La2 2_564 . 3_655 120.898(8)
La2 La1 La2 2_564 . 4_466 60.209(9)
La2 La1 La2 2_564 . 4_566 121.779(15)
La2 La1 V1 2_564 . 2_664 60.889(8)
La2 La1 O2 2_564 . . 143.97(4)
La2 La1 O2 2_564 . 2_564 31.29(4)
La2 La1 O2 2_564 . 5_566 86.69(7)
La2 La1 O2 2_564 . 6_555 90.68(7)
La2 La1 O3 2_564 . . 144.44(5)
La2 La1 O3 2_564 . 3_555 88.54(8)
La2 La1 O4 2_564 . 2_664 86.30(8)
La2 La1 O4 2_564 . 4_466 38.87(5)
La2 La1 La2 2_664 . 3_555 120.898(8)
La2 La1 La2 2_664 . 3_655 55.930(8)
La2 La1 La2 2_664 . 4_466 121.779(15)
La2 La1 La2 2_664 . 4_566 60.209(9)
La2 La1 V1 2_664 . 2_664 60.889(8)
La2 La1 O2 2_664 . . 86.69(7)
La2 La1 O2 2_664 . 2_564 90.68(7)
La2 La1 O2 2_664 . 5_566 143.97(4)
La2 La1 O2 2_664 . 6_555 31.29(4)
La2 La1 O3 2_664 . . 88.54(8)
La2 La1 O3 2_664 . 3_555 144.44(5)
La2 La1 O4 2_664 . 2_664 38.87(5)
La2 La1 O4 2_664 . 4_466 86.30(8)
La2 La1 La2 3_555 . 3_655 97.263(11)
La2 La1 La2 3_555 . 4_466 85.690(7)
La2 La1 La2 3_555 . 4_566 176.940(12)
La2 La1 V1 3_555 . 2_664 116.778(9)
La2 La1 O2 3_555 . . 149.29(5)
La2 La1 O2 3_555 . 2_564 35.18(4)
La2 La1 O2 3_555 . 5_566 87.18(7)
La2 La1 O2 3_555 . 6_555 95.25(7)
La2 La1 O3 3_555 . . 94.31(9)
La2 La1 O3 3_555 . 3_555 36.39(6)
La2 La1 O4 3_555 . 2_664 139.91(6)
La2 La1 O4 3_555 . 4_466 90.91(8)
La2 La1 La2 3_655 . 4_466 176.940(12)
La2 La1 La2 3_655 . 4_566 85.690(7)
La2 La1 V1 3_655 . 2_664 116.778(9)
La2 La1 O2 3_655 . . 87.18(7)
La2 La1 O2 3_655 . 2_564 95.25(7)
La2 La1 O2 3_655 . 5_566 149.29(5)
La2 La1 O2 3_655 . 6_555 35.18(4)
La2 La1 O3 3_655 . . 36.39(6)
La2 La1 O3 3_655 . 3_555 94.31(9)
La2 La1 O4 3_655 . 2_664 90.91(8)
La2 La1 O4 3_655 . 4_466 139.91(6)
La2 La1 La2 4_466 . 4_566 91.345(10)
La2 La1 V1 4_466 . 2_664 60.889(8)
La2 La1 O2 4_466 . . 90.68(7)
La2 La1 O2 4_466 . 2_564 86.69(7)
La2 La1 O2 4_466 . 5_566 31.29(4)
La2 La1 O2 4_466 . 6_555 143.97(4)
La2 La1 O3 4_466 . . 144.44(5)
La2 La1 O3 4_466 . 3_555 88.54(8)
La2 La1 O4 4_466 . 2_664 86.30(8)
La2 La1 O4 4_466 . 4_466 38.87(5)
La2 La1 V1 4_566 . 2_664 60.889(8)
La2 La1 O2 4_566 . . 31.29(4)
La2 La1 O2 4_566 . 2_564 143.97(4)
La2 La1 O2 4_566 . 5_566 90.68(7)
La2 La1 O2 4_566 . 6_555 86.69(7)
La2 La1 O3 4_566 . . 88.54(8)
La2 La1 O3 4_566 . 3_555 144.44(5)
La2 La1 O4 4_566 . 2_664 38.87(5)
La2 La1 O4 4_566 . 4_466 86.30(8)
V1 La1 O2 2_664 . . 87.301(13)
V1 La1 O2 2_664 . 2_564 87.301(13)
V1 La1 O2 2_664 . 5_566 87.301(13)
V1 La1 O2 2_664 . 6_555 87.301(13)
V1 La1 O3 2_664 . . 144.10(10)
V1 La1 O3 2_664 . 3_555 144.10(10)
V1 La1 O4 2_664 . 2_664 29.94(9)
V1 La1 O4 2_664 . 4_466 29.94(9)
O2 La1 O2 . . 2_564 174.60(3)
O2 La1 O2 . . 5_566 74.54(11)
O2 La1 O2 . . 6_555 105.20(11)
O2 La1 O3 . . . 71.52(7)
O2 La1 O3 . . 3_555 113.16(6)
O2 La1 O4 . . 2_664 69.94(6)
O2 La1 O4 . . 4_466 105.16(6)
O2 La1 O2 2_564 . 5_566 105.20(11)
O2 La1 O2 2_564 . 6_555 74.54(11)
O2 La1 O3 2_564 . . 113.16(6)
O2 La1 O3 2_564 . 3_555 71.52(7)
O2 La1 O4 2_564 . 2_664 105.16(6)
O2 La1 O4 2_564 . 4_466 69.94(6)
O2 La1 O2 5_566 . 6_555 174.60(3)
O2 La1 O3 5_566 . . 113.16(6)
O2 La1 O3 5_566 . 3_555 71.52(7)
O2 La1 O4 5_566 . 2_664 105.16(6)
O2 La1 O4 5_566 . 4_466 69.94(6)
O2 La1 O3 6_555 . . 71.52(7)
O2 La1 O3 6_555 . 3_555 113.16(6)
O2 La1 O4 6_555 . 2_664 69.94(6)
O2 La1 O4 6_555 . 4_466 105.16(6)
O3 La1 O3 . . 3_555 71.80(14)
O3 La1 O4 . . 2_664 114.16(13)
O3 La1 O4 . . 4_466 174.04(13)
O3 La1 O4 3_555 . 2_664 174.04(13)
O3 La1 O4 3_555 . 4_466 114.16(13)
O4 La1 O4 2_664 . 4_466 59.88(12)
Pb La2 Pb . . 1_655 95.500(10)
Pb La2 Pb . . 10_555 81.384(8)
Pb La2 La1 . . . 55.069(9)
Pb La2 La1 . . 1_655 122.577(10)
Pb La2 La1 . . 2_565 86.575(6)
Pb La2 La1 . . 2_665 177.869(8)
Pb La2 La2 . . 3_655 61.515(6)
Pb La2 La2 . . 3_656 118.485(7)
Pb La2 La2 . . 4_566 119.646(8)
Pb La2 O1 . . 12_456 56.42(4)
Pb La2 O2 . . . 86.89(7)
Pb La2 O2 . . 5_666 147.32(5)
Pb La2 O3 . . . 28.89(9)
Pb La2 O3 . . 3_655 91.93(9)
Pb La2 O4 . . . 138.03(10)
Pb La2 O4 . . 3_656 82.09(8)
Pb La2 Pb 1_655 . 10_555 81.384(8)
Pb La2 La1 1_655 . . 122.577(10)
Pb La2 La1 1_655 . 1_655 55.069(9)
Pb La2 La1 1_655 . 2_565 177.869(8)
Pb La2 La1 1_655 . 2_665 86.575(6)
Pb La2 La2 1_655 . 3_655 61.515(6)
Pb La2 La2 1_655 . 3_656 118.485(7)
Pb La2 La2 1_655 . 4_566 119.646(8)
Pb La2 O1 1_655 . 12_456 56.42(4)
Pb La2 O2 1_655 . . 147.32(5)
Pb La2 O2 1_655 . 5_666 86.89(7)
Pb La2 O3 1_655 . . 91.93(9)
Pb La2 O3 1_655 . 3_655 28.89(9)
Pb La2 O4 1_655 . . 82.09(8)
Pb La2 O4 1_655 . 3_656 138.03(10)
Pb La2 La1 10_555 . . 129.654(8)
Pb La2 La1 10_555 . 1_655 129.654(8)
Pb La2 La1 10_555 . 2_565 98.477(10)
Pb La2 La1 10_555 . 2_665 98.477(10)
Pb La2 La2 10_555 . 3_655 121.947(11)
Pb La2 La2 10_555 . 3_656 58.053(8)
Pb La2 La2 10_555 . 4_566 145.510(12)
Pb La2 O1 10_555 . 12_456 42.48(9)
Pb La2 O2 10_555 . . 131.01(5)
Pb La2 O2 10_555 . 5_666 131.01(5)
Pb La2 O3 10_555 . . 109.20(10)
Pb La2 O3 10_555 . 3_655 109.20(10)
Pb La2 O4 10_555 . . 56.75(10)
Pb La2 O4 10_555 . 3_656 56.75(10)
La1 La2 La1 . . 1_655 97.263(11)
La1 La2 La1 . . 2_565 59.102(6)
La1 La2 La1 . . 2_665 124.070(14)
La1 La2 La2 . . 3_655 61.084(6)
La1 La2 La2 . . 3_656 118.916(7)
La1 La2 La2 . . 4_566 64.619(9)
La1 La2 O1 . . 12_456 110.77(5)
La1 La2 O2 . . . 37.31(5)
La1 La2 O2 . . 5_666 96.49(7)
La1 La2 O3 . . . 37.43(10)
La1 La2 O3 . . 3_655 97.34(8)
La1 La2 O4 . . . 153.84(9)
La1 La2 O4 . . 3_656 90.24(8)
La1 La2 La1 1_655 . 2_565 124.070(14)
La1 La2 La1 1_655 . 2_665 59.102(6)
La1 La2 La2 1_655 . 3_655 61.084(6)
La1 La2 La2 1_655 . 3_656 118.916(7)
La1 La2 La2 1_655 . 4_566 64.619(9)
La1 La2 O1 1_655 . 12_456 110.77(5)
La1 La2 O2 1_655 . . 96.49(7)
La1 La2 O2 1_655 . 5_666 37.31(5)
La1 La2 O3 1_655 . . 97.34(8)
La1 La2 O3 1_655 . 3_655 37.43(10)
La1 La2 O4 1_655 . . 90.24(8)
La1 La2 O4 1_655 . 3_656 153.84(9)
La1 La2 La1 2_565 . 2_665 91.345(10)
La1 La2 La2 2_565 . 3_655 120.104(7)
La1 La2 La2 2_565 . 3_656 59.896(6)
La1 La2 La2 2_565 . 4_566 59.451(9)
La1 La2 O1 2_565 . 12_456 124.75(4)
La1 La2 O2 2_565 . . 33.12(4)
La1 La2 O2 2_565 . 5_666 91.62(7)
La1 La2 O3 2_565 . . 90.13(9)
La1 La2 O3 2_565 . 3_655 151.75(10)
La1 La2 O4 2_565 . . 96.05(8)
La1 La2 O4 2_565 . 3_656 41.73(10)
La1 La2 La2 2_665 . 3_655 120.104(7)
La1 La2 La2 2_665 . 3_656 59.896(6)
La1 La2 La2 2_665 . 4_566 59.451(9)
La1 La2 O1 2_665 . 12_456 124.75(4)
La1 La2 O2 2_665 . . 91.62(7)
La1 La2 O2 2_665 . 5_666 33.12(4)
La1 La2 O3 2_665 . . 151.75(10)
La1 La2 O3 2_665 . 3_655 90.13(9)
La1 La2 O4 2_665 . . 41.73(10)
La1 La2 O4 2_665 . 3_656 96.05(8)
La2 La2 La2 3_655 . 3_656 180.0(5)
La2 La2 La2 3_655 . 4_566 92.543(11)
La2 La2 O1 3_655 . 12_456 79.47(9)
La2 La2 O2 3_655 . . 92.024(11)
La2 La2 O2 3_655 . 5_666 92.024(11)
La2 La2 O3 3_655 . . 38.49(8)
La2 La2 O3 3_655 . 3_655 38.49(8)
La2 La2 O4 3_655 . . 142.05(7)
La2 La2 O4 3_655 . 3_656 142.05(7)
La2 La2 La2 3_656 . 4_566 87.457(10)
La2 La2 O1 3_656 . 12_456 100.53(9)
La2 La2 O2 3_656 . . 87.976(10)
La2 La2 O2 3_656 . 5_666 87.976(10)
La2 La2 O3 3_656 . . 141.51(8)
La2 La2 O3 3_656 . 3_655 141.51(8)
La2 La2 O4 3_656 . . 37.95(7)
La2 La2 O4 3_656 . 3_656 37.95(7)
La2 La2 O1 4_566 . 12_456 172.01(9)
La2 La2 O2 4_566 . . 37.24(8)
La2 La2 O2 4_566 . 5_666 37.24(8)
La2 La2 O3 4_566 . . 97.77(10)
La2 La2 O3 4_566 . 3_655 97.77(10)
La2 La2 O4 4_566 . . 96.85(11)
La2 La2 O4 4_566 . 3_656 96.85(11)
O1 La2 O2 12_456 . . 142.03(8)
O1 La2 O2 12_456 . 5_666 142.03(8)
O1 La2 O3 12_456 . . 76.00(12)
O1 La2 O3 12_456 . 3_655 76.00(12)
O1 La2 O4 12_456 . . 89.56(13)
O1 La2 O4 12_456 . 3_656 89.56(13)
O2 La2 O2 . . 5_666 74.48(12)
O2 La2 O3 . . . 74.69(11)
O2 La2 O3 . . 3_655 118.64(10)
O2 La2 O4 . . . 117.07(10)
O2 La2 O4 . . 3_656 74.61(11)
O2 La2 O3 5_666 . . 118.64(10)
O2 La2 O3 5_666 . 3_655 74.69(11)
O2 La2 O4 5_666 . . 74.61(11)
O2 La2 O4 5_666 . 3_656 117.07(10)
O3 La2 O3 . . 3_655 75.78(11)
O3 La2 O4 . . . 165.31(15)
O3 La2 O4 . . 3_656 103.66(10)
O3 La2 O4 3_655 . . 103.66(10)
O3 La2 O4 3_655 . 3_656 165.31(15)
O4 La2 O4 . . 3_656 73.06(10)
Pb V1 Pb 10_555 . 10_655 116.25(5)
Pb V1 La1 10_555 . 2_665 121.88(2)
Pb V1 O1 10_555 . . 72.36(8)
Pb V1 O1 10_555 . 3_756 72.36(8)
Pb V1 O4 10_555 . . 69.69(15)
Pb V1 O4 10_555 . 3_756 174.06(16)
Pb V1 La1 10_655 . 2_665 121.88(2)
Pb V1 O1 10_655 . . 72.36(8)
Pb V1 O1 10_655 . 3_756 72.36(8)
Pb V1 O4 10_655 . . 174.06(16)
Pb V1 O4 10_655 . 3_756 69.69(15)
La1 V1 O1 2_665 . . 125.03(16)
La1 V1 O1 2_665 . 3_756 125.03(16)
La1 V1 O4 2_665 . . 52.19(16)
La1 V1 O4 2_665 . 3_756 52.19(16)
O1 V1 O1 . . 3_756 109.9(2)
O1 V1 O4 . . . 110.60(11)
O1 V1 O4 . . 3_756 110.60(11)
O1 V1 O4 3_756 . . 110.60(11)
O1 V1 O4 3_756 . 3_756 110.60(11)
O4 V1 O4 . . 3_756 104.4(2)
Pb O1 La2 1_655 . 12_556 91.88(13)
Pb O1 V1 1_655 . . 132.6(2)
La2 O1 V1 12_556 . . 135.6(2)
La1 O2 La1 . . 2_565 105.46(15)
La1 O2 La2 . . . 107.517(13)
La1 O2 La2 . . 4_566 115.594(14)
La1 O2 La2 2_565 . . 115.594(14)
La1 O2 La2 2_565 . 4_566 107.517(13)
La2 O2 La2 . . 4_566 105.52(16)
Pb O3 La1 . . . 102.53(16)
Pb O3 La2 . . . 118.86(12)
Pb O3 La2 . . 3_655 118.86(12)
La1 O3 La2 . . . 106.18(13)
La1 O3 La2 . . 3_655 106.18(13)
La2 O3 La2 . . 3_655 103.03(15)
La1 O4 La2 2_665 . . 99.40(13)
La1 O4 La2 2_665 . 3_656 99.40(13)
La1 O4 V1 2_665 . . 97.87(18)
La2 O4 La2 . . 3_656 104.11(14)
La2 O4 V1 . . . 124.39(11)
La2 O4 V1 3_656 . . 124.39(11)
loop_
_geom_bond_atom_site_label_1
_geom_bond_atom_site_label_2
_geom_bond_site_symmetry_1
_geom_bond_site_symmetry_2
_geom_bond_distance
Pb La1 . . 3.6417(8)
Pb La2 . 1_455 3.9656(4)
Pb La2 . . 3.9656(4)
Pb La2 . 10_554 3.8897(6)
Pb La2 . 3_555 3.9656(4)
Pb La2 . 3_655 3.9656(4)
Pb La2 . 12_456 3.8897(6)
Pb V1 . 10_554 3.4567(10)
Pb V1 . 10_654 3.4567(10)
Pb O1 . 1_455 2.628(4)
Pb O1 . 3_655 2.628(4)
Pb O3 . . 2.188(4)
Pb O3 . 3_555 2.188(4)
La1 La1 . 2_564 3.9564(5)
La1 La1 . 2_565 3.9564(5)
La1 La2 . 1_455 3.9114(5)
La1 La2 . . 3.9114(5)
La1 La2 . 2_564 4.1034(5)
La1 La2 . 2_664 4.1034(5)
La1 La2 . 3_555 3.9114(5)
La1 La2 . 3_655 3.9114(5)
La1 La2 . 4_466 4.1034(5)
La1 La2 . 4_566 4.1034(5)
La1 V1 . 2_664 3.4715(18)
La1 O2 . . 2.486(3)
La1 O2 . 2_564 2.486(3)
La1 O2 . 5_566 2.486(3)
La1 O2 . 6_555 2.486(3)
La1 O3 . . 2.475(4)
La1 O3 . 3_555 2.475(4)
La1 O4 . 2_664 2.769(5)
La1 O4 . 4_466 2.769(5)
La2 La2 . 3_655 3.7825(7)
La2 La2 . 3_656 4.1164(7)
La2 La2 . 4_566 3.7622(7)
La2 O1 . 12_456 2.783(4)
La2 O2 . . 2.363(3)
La2 O2 . 5_666 2.363(3)
La2 O3 . . 2.416(3)
La2 O3 . 3_655 2.416(3)
La2 O4 . . 2.610(3)
La2 O4 . 3_656 2.610(3)
V1 O1 . . 1.689(4)
V1 O1 . 3_756 1.689(4)
V1 O4 . . 1.749(4)
V1 O4 . 3_756 1.749(4)
loop_
_refln_index_h
_refln_index_k
_refln_index_l
_refln_F_squared_calc
_refln_F_squared_meas
_refln_F_squared_sigma
_refln_observed_status
2 0 0 662090.00 688053.00 11527.10 o
4 0 0 669641.00 730540.00 15763.80 o
6 0 0 284838.00 299457.00 6610.90 o
1 1 0 129.56 255.80 23.98 o
3 1 0 216.41 327.75 39.97 o
5 1 0 69.53 119.91 55.96 <
7 1 0 185.82 175.86 95.93 <
0 2 0 518.82 511.61 31.98 o
2 2 0 12362.80 13877.30 207.84 o
4 2 0 550.66 759.41 71.94 o
6 2 0 1853.27 2254.26 143.89 o
1 3 0 5516.85 6379.08 95.93 o
3 3 0 6197.42 7178.46 127.90 o
5 3 0 2221.83 2446.11 119.91 o
7 3 0 3902.05 4164.79 263.80 o
0 4 0 207.61 111.91 47.96 <
2 4 0 8344.93 9184.91 167.87 o
4 4 0 244.25 311.76 47.96 o
6 4 0 1297.60 1446.88 135.90 o
1 5 0 800545.00 741324.00 10048.20 o
3 5 0 572405.00 593326.00 7114.51 o
5 5 0 343988.00 347212.00 5379.85 o
7 5 0 242973.00 242173.00 4188.77 o
0 6 0 2114.14 2134.35 111.91 o
2 6 0 11972.60 12918.00 207.84 o
4 6 0 1484.53 1582.78 103.92 o
6 6 0 3526.94 3277.47 191.85 o
1 7 0 9648.29 9744.48 191.85 o
3 7 0 7878.85 7674.08 175.86 o
5 7 0 4200.02 4412.59 175.86 o
0 8 0 111627.00 125559.00 2198.30 o
2 8 0 9253.24 9552.63 167.87 o
4 8 0 50577.10 50624.90 879.32 o
6 8 0 8687.88 8145.71 287.78 o
1 9 0 1139.31 959.26 63.95 o
3 9 0 828.67 991.23 87.93 o
5 9 0 766.57 711.45 111.91 o
0 10 0 474701.00 497184.00 8465.47 o
2 10 0 327420.00 323958.00 4716.36 o
4 10 0 299689.00 301871.00 4772.32 o
6 10 0 176275.00 169469.00 2989.69 o
1 11 0 7410.31 7282.38 191.85 o
3 11 0 4489.76 4748.33 191.85 o
5 11 0 5423.13 5595.68 287.78 o
0 12 0 13362.00 14245.00 447.65 o
2 12 0 4896.32 4756.33 167.87 o
4 12 0 8884.04 9096.98 335.74 o
6 12 0 3676.03 3549.26 223.83 o
1 13 0 60767.80 60217.50 1055.19 o
3 13 0 54512.20 52959.10 1159.11 o
5 13 0 36271.80 34685.20 863.33 o
0 14 0 595.98 799.38 127.90 o
2 14 0 1167.69 1239.04 111.91 o
4 14 0 565.69 663.49 159.88 o
1 15 0 197361.00 195345.00 3485.31 o
3 15 0 166003.00 160564.00 3213.52 o
5 15 0 130217.00 127837.00 3061.64 o
0 16 0 871.23 855.34 167.87 o
2 16 0 14243.50 13621.50 439.66 o
4 16 0 1148.64 1223.06 207.84 o
1 17 0 9689.59 9760.47 391.70 o
3 17 0 8739.42 8233.64 359.72 o
0 18 0 82038.60 96525.50 4044.88 o
2 18 0 54687.80 54302.10 1414.91 o
4 18 0 63304.50 58642.70 1934.51 o
1 19 0 1195.93 1630.74 231.82 o
3 19 0 842.29 695.46 183.86 o
0 20 0 80937.80 90018.50 3813.06 o
2 20 0 86288.40 89882.60 2725.90 o
1 21 0 6601.07 7578.15 455.65 o
0 22 0 9315.54 9864.39 735.43 o
1 1 1 30808.70 31024.10 271.79 o
3 1 1 26991.10 28306.20 279.78 o
5 1 1 17090.50 17490.50 247.81 o
7 1 1 13736.50 12870.10 279.78 o
0 2 1 16124.60 14940.50 199.85 o
2 2 1 13149.90 13589.50 151.88 o
4 2 1 10048.20 10240.10 151.88 o
6 2 1 6103.27 6259.17 151.88 o
1 3 1 25371.40 24892.80 255.80 o
3 3 1 17771.00 18337.80 191.85 o
5 3 1 14530.20 15076.40 223.83 o
7 3 1 8555.19 8201.67 215.83 o
0 4 1 10881.60 9920.34 151.88 o
2 4 1 14196.50 14117.10 159.88 o
4 4 1 8429.03 8433.49 143.89 o
6 4 1 7387.75 7034.57 167.87 o
1 5 1 18961.80 18953.40 199.85 o
3 5 1 12175.60 12446.40 159.88 o
5 5 1 10150.70 10871.60 191.85 o
7 5 1 5297.56 5715.59 231.82 o
0 6 1 58446.10 54893.60 695.46 o
2 6 1 50191.50 50145.30 495.62 o
4 6 1 35465.60 35508.60 471.64 o
6 6 1 25937.70 24653.00 399.69 o
1 7 1 5619.33 5323.89 87.93 o
3 7 1 3681.77 3885.00 79.94 o
5 7 1 3305.57 3381.39 119.91 o
0 8 1 42077.60 41647.90 551.57 o
2 8 1 26002.00 25500.30 271.79 o
4 8 1 25324.30 24956.70 343.73 o
6 8 1 13946.10 13373.70 263.80 o
1 9 1 2309.18 2270.25 63.95 o
3 9 1 1445.70 1510.83 63.95 o
5 9 1 1792.81 2046.42 119.91 o
0 10 1 59270.00 60201.50 823.36 o
2 10 1 52137.20 52279.60 663.49 o
4 10 1 38657.30 38202.50 519.60 o
6 10 1 25455.00 24541.10 415.68 o
1 11 1 58940.20 57875.30 607.53 o
3 11 1 48694.20 48890.30 631.51 o
5 11 1 33832.90 33030.50 607.53 o
0 12 1 807.89 903.30 87.93 o
2 12 1 29.71 111.91 39.97 <
4 12 1 534.26 527.59 79.94 o
6 12 1 11.20 143.89 95.93 <
1 13 1 30544.90 29385.30 415.68 o
3 13 1 26687.20 26155.80 503.61 o
5 13 1 17182.10 16507.30 359.72 o
0 14 1 1277.43 1318.98 111.91 o
2 14 1 1035.21 1095.15 71.94 o
4 14 1 803.07 935.28 127.90 o
1 15 1 81723.10 82272.50 991.23 o
3 15 1 67757.30 64334.30 991.23 o
5 15 1 52130.20 51376.30 999.23 o
0 16 1 36140.80 36108.10 751.42 o
2 16 1 45334.40 44485.70 727.44 o
4 16 1 27497.80 26795.30 607.53 o
1 17 1 1122.33 1231.05 127.90 o
3 17 1 662.36 647.50 111.91 o
0 18 1 18419.80 19664.80 759.41 o
2 18 1 16475.40 16994.90 423.67 o
4 18 1 13617.60 13925.20 415.68 o
1 19 1 8013.31 8089.75 319.75 o
3 19 1 7132.67 6506.98 287.78 o
0 20 1 87319.40 93479.80 2797.84 o
2 20 1 66081.60 68555.10 1518.83 o
1 21 1 23297.10 24860.80 663.49 o
0 22 1 2028.80 2366.17 295.77 o
0 0 2 38046.90 34333.50 783.40 o
2 0 2 8176.83 6930.65 143.89 o
4 0 2 17554.50 18106.00 359.72 o
6 0 2 5512.15 6315.12 231.82 o
1 1 2 349911.00 353935.00 3061.64 o
3 1 2 222309.00 235099.00 2078.40 o
5 1 2 159298.00 166264.00 1790.62 o
7 1 2 92580.00 92792.40 1462.87 o
0 2 2 51025.80 49953.40 727.44 o
2 2 2 15042.00 14956.50 151.88 o
4 2 2 25135.40 26075.90 359.72 o
6 2 2 9026.08 9488.67 191.85 o
1 3 2 45243.10 45708.70 439.66 o
3 3 2 29956.00 31159.90 319.75 o
5 3 2 20539.10 20943.80 303.77 o
7 3 2 11910.70 11583.10 303.77 o
0 4 2 235719.00 218152.00 2757.87 o
2 4 2 473113.00 482444.00 4196.76 o
4 4 2 163487.00 169373.00 1894.54 o
6 4 2 187829.00 190269.00 2230.28 o
1 5 2 17190.70 15532.00 191.85 o
3 5 2 13671.70 13685.40 167.87 o
5 5 2 7827.91 7730.03 167.87 o
7 5 2 5647.90 5875.46 335.74 o
0 6 2 169174.00 166368.00 2094.38 o
2 6 2 208660.00 212188.00 2030.43 o
4 6 2 99637.40 102481.00 1302.99 o
6 6 2 87105.30 85981.60 1071.17 o
1 7 2 16259.40 15276.20 183.86 o
3 7 2 15960.70 15611.90 215.83 o
5 7 2 7610.30 7634.11 167.87 o
0 8 2 28314.80 27171.00 391.70 o
2 8 2 45656.90 46516.10 551.57 o
4 8 2 17776.00 17922.20 279.78 o
6 8 2 17849.80 16946.90 311.76 o
1 9 2 345103.00 332024.00 3389.38 o
3 9 2 263425.00 262933.00 3405.37 o
5 9 2 203264.00 199270.00 2462.10 o
0 10 2 4890.51 4668.40 127.90 o
2 10 2 10907.60 10983.50 199.85 o
4 10 2 3244.92 3325.43 135.90 o
6 10 2 4246.96 3908.98 159.88 o
1 11 2 67393.10 66660.50 799.38 o
3 11 2 55170.60 57307.80 815.37 o
5 11 2 37708.40 39225.70 655.49 o
0 12 2 23069.30 21759.20 471.64 o
2 12 2 863.77 895.31 63.95 o
4 12 2 12443.80 12942.00 287.78 o
6 12 2 943.52 887.32 111.91 o
1 13 2 18343.80 18225.90 303.77 o
3 13 2 14374.30 14133.10 327.75 o
5 13 2 10890.80 10623.80 303.77 o
0 14 2 246555.00 239919.00 4236.73 o
2 14 2 278322.00 267905.00 3013.67 o
4 14 2 183549.00 181604.00 2949.72 o
1 15 2 415.33 519.60 79.94 o
3 15 2 204.00 255.80 79.94 o
5 15 2 394.42 439.66 151.88 <
0 16 2 15909.80 16515.30 543.58 o
2 16 2 8900.89 9376.76 271.79 o
4 16 2 11498.70 11143.40 351.73 o
1 17 2 478.61 711.45 103.92 o
3 17 2 517.52 711.45 111.91 o
0 18 2 7299.90 7258.40 343.73 o
2 18 2 4363.02 4228.74 223.83 o
4 18 2 5459.30 5395.83 279.78 o
1 19 2 178982.00 184226.00 3717.13 o
3 19 2 159621.00 161691.00 2997.69 o
0 20 2 8146.44 8649.32 463.64 o
2 20 2 341.32 87.93 119.91 <
1 21 2 592.74 647.50 135.90 o
1 1 3 78034.30 78299.60 743.43 o
3 1 3 59762.10 61248.70 599.54 o
5 1 3 36489.20 36148.10 487.62 o
0 2 3 938.10 663.49 47.96 o
2 2 3 876.62 847.35 31.98 o
4 2 3 931.67 967.25 55.96 o
6 2 3 518.98 543.58 71.94 o
1 3 3 14337.00 14189.00 167.87 o
3 3 3 9013.47 8865.16 127.90 o
5 3 3 6739.54 6594.91 151.88 o
0 4 3 23615.90 23006.20 343.73 o
2 4 3 25486.50 25900.00 271.79 o
4 4 3 16112.80 16187.50 215.83 o
6 4 3 12900.40 11966.80 239.82 o
1 5 3 26170.80 26707.40 303.77 o
3 5 3 16421.50 16555.20 231.82 o
5 5 3 12113.90 11966.80 215.83 o
0 6 3 89394.20 88339.80 1223.06 o
2 6 3 78075.60 77963.80 863.33 o
4 6 3 56087.40 56636.30 647.50 o
6 6 3 40747.70 38802.00 567.56 o
1 7 3 3464.06 3069.63 79.94 o
3 7 3 2416.08 2621.98 87.93 o
5 7 3 908.16 815.37 71.94 o
0 8 3 18672.10 17714.30 303.77 o
2 8 3 10532.70 10567.80 183.86 o
4 8 3 11218.10 11055.50 231.82 o
6 8 3 5660.10 5907.44 183.86 o
1 9 3 1341.40 1422.90 55.96 o
3 9 3 1098.14 1239.04 71.94 o
5 9 3 1632.09 1718.67 103.92 o
0 10 3 47796.00 46500.10 735.43 o
2 10 3 42498.60 42063.50 543.58 o
4 10 3 31677.80 31000.10 495.62 o
6 10 3 21118.30 20624.10 423.67 o
1 11 3 66642.70 65365.50 815.37 o
3 11 3 57630.80 57315.80 863.33 o
5 11 3 42423.40 41823.70 695.46 o
0 12 3 4060.43 4412.59 215.83 o
2 12 3 7600.67 7490.22 167.87 o
4 12 3 2659.55 2741.88 143.89 o
1 13 3 8452.07 8321.58 183.86 o
3 13 3 8122.03 7897.90 215.83 o
5 13 3 5136.35 5180.00 247.81 o
0 14 3 1574.06 1406.91 143.89 o
2 14 3 1304.49 1446.88 111.91 o
4 14 3 936.93 975.25 143.89 o
1 15 3 49649.60 48818.30 831.36 o
3 15 3 42030.10 42183.40 703.46 o
0 16 3 48584.90 48730.40 1279.01 o
2 16 3 58255.90 59082.40 999.23 o
4 16 3 38029.80 38874.00 847.35 o
1 17 3 5565.75 5555.71 231.82 o
3 17 3 4245.90 4636.42 231.82 o
0 18 3 6248.67 6786.76 343.73 o
2 18 3 5494.33 5539.72 247.81 o
1 19 3 5615.52 5707.59 263.80 o
3 19 3 5081.96 4788.30 319.75 o
0 20 3 55661.70 54398.00 1726.67 o
2 20 3 40834.40 41480.00 1007.22 o
1 21 3 41461.20 43190.70 1031.20 o
0 0 4 785697.00 726247.00 12294.50 o
2 0 4 391120.00 377325.00 5132.04 o
4 0 4 450328.00 452227.00 6467.01 o
6 0 4 214369.00 213307.00 4188.77 o
1 1 4 40.02 95.93 23.98 o
3 1 4 85.35 199.85 31.98 o
5 1 4 35.59 71.94 47.96 <
0 2 4 1812.69 2102.38 63.95 o
2 2 4 1684.68 1678.70 55.96 o
4 2 4 899.71 943.27 55.96 o
6 2 4 594.60 671.48 87.93 o
1 3 4 4165.91 4460.56 71.94 o
3 3 4 5099.27 5443.80 95.93 o
5 3 4 2229.69 2382.16 103.92 o
0 4 4 1134.96 1398.92 63.95 o
2 4 4 1243.91 1159.11 47.96 o
4 4 4 393.36 383.70 47.96 o
6 4 4 423.18 487.62 87.93 o
1 5 4 492651.00 479374.00 4828.27 o
3 5 4 401947.00 407821.00 4660.40 o
5 5 4 268650.00 269496.00 3101.61 o
0 6 4 57.56 79.94 39.97 <
2 6 4 2041.37 2126.36 71.94 o
4 6 4 54.97 95.93 39.97 <
6 6 4 1043.43 1199.07 111.91 o
1 7 4 4892.63 4668.40 95.93 o
3 7 4 4392.01 4364.63 111.91 o
5 7 4 2682.25 2629.97 111.91 o
0 8 4 48789.00 48746.40 807.38 o
2 8 4 3888.87 4236.73 127.90 o
4 8 4 29873.20 29761.00 447.65 o
6 8 4 4636.25 4916.21 271.79 o
1 9 4 662.35 687.47 63.95 o
3 9 4 568.02 599.54 55.96 o
5 9 4 583.42 623.52 71.94 o
0 10 4 370739.00 361161.00 5116.05 o
2 10 4 274444.00 273653.00 3485.31 o
4 10 4 256112.00 256090.00 3517.29 o
1 11 4 3215.77 3165.56 111.91 o
3 11 4 2054.03 2182.32 143.89 o
5 11 4 2959.98 2797.84 159.88 o
0 12 4 14565.60 14564.80 415.68 o
2 12 4 6853.45 7034.57 223.83 o
4 12 4 9853.46 9792.44 311.76 o
1 13 4 40647.80 40432.80 655.49 o
3 13 4 38103.00 37690.90 823.36 o
5 13 4 26301.10 23893.60 711.45 o
0 14 4 1262.02 1287.01 183.86 o
2 14 4 574.57 727.44 111.91 o
4 14 4 966.91 1015.22 159.88 o
1 15 4 167600.00 163618.00 2486.08 o
3 15 4 143751.00 143465.00 2406.14 o
0 16 4 1478.11 1382.93 183.86 o
2 16 4 13661.00 13333.70 383.70 o
4 16 4 1503.83 1550.80 215.83 o
1 17 4 10240.00 10248.10 311.76 o
3 17 4 9189.25 9576.61 391.70 o
0 18 4 71685.70 69882.10 1782.62 o
2 18 4 48961.90 47779.10 1031.20 o
1 19 4 577.68 471.64 119.91 o
0 20 4 62621.50 58850.60 1854.57 o
1 1 5 8326.27 8201.67 151.88 o
3 1 5 8423.04 8337.56 159.88 o
5 1 5 5771.33 6203.21 183.86 o
0 2 5 29447.40 28873.70 391.70 o
2 2 5 26396.00 25684.20 319.75 o
4 2 5 21382.40 20959.80 327.75 o
6 2 5 14443.50 13685.40 319.75 o
1 3 5 35684.80 35164.90 431.67 o
3 3 5 28717.50 28362.10 327.75 o
5 3 5 23516.70 23685.70 431.67 o
0 4 5 2942.76 2933.74 95.93 o
2 4 5 4075.68 3885.00 103.92 o
4 4 5 2601.32 2741.88 103.92 o
6 4 5 2584.63 2446.11 175.86 o
1 5 5 12700.90 12782.10 183.86 o
3 5 5 9609.61 9696.52 151.88 o
5 5 5 8536.53 8769.23 231.82 o
0 6 5 18613.30 18441.80 311.76 o
2 6 5 17081.00 17066.80 271.79 o
4 6 5 13382.80 13117.90 231.82 o
6 6 5 10630.50 10943.60 343.73 o
1 7 5 18254.10 18337.80 247.81 o
3 7 5 14564.40 14860.50 239.82 o
5 7 5 11968.30 11695.00 279.78 o
0 8 5 46886.40 46532.10 735.43 o
2 8 5 35397.00 34837.10 519.60 o
4 8 5 33219.70 32023.30 511.61 o
1 9 5 594.31 679.47 55.96 o
3 9 5 394.91 543.58 95.93 o
5 9 5 552.31 471.64 95.93 o
0 10 5 46423.20 46875.80 823.36 o
2 10 5 42472.80 42095.50 671.48 o
4 10 5 34288.30 33749.90 615.53 o
1 11 5 22779.00 22838.40 447.65 o
3 11 5 19948.60 20616.10 527.59 o
5 11 5 14565.00 13469.60 735.43 o
0 12 5 8045.89 8569.38 375.71 o
2 12 5 3947.68 4508.52 223.83 o
4 12 5 6033.47 6251.17 295.77 o
1 13 5 37082.30 37139.30 671.48 o
3 13 5 33411.00 32966.60 687.47 o
0 14 5 1467.97 1231.05 191.85 o
2 14 5 1241.71 1031.20 135.90 o
4 14 5 1055.55 855.34 183.86 o
1 15 5 74300.10 73615.20 1207.07 o
3 15 5 64188.60 64366.30 1199.07 o
0 16 5 13663.90 14261.00 543.58 o
2 16 5 18718.50 19808.70 503.61 o
1 17 5 698.91 767.41 143.89 o
0 18 5 22950.20 23477.90 759.41 o
2 18 5 21169.50 20128.50 575.56 o
1 19 5 6592.69 6251.17 351.73 o
0 0 6 31570.00 29888.90 671.48 o
2 0 6 15362.50 15412.10 375.71 o
4 0 6 19153.60 19712.80 527.59 o
1 1 6 159192.00 158694.00 2054.41 o
3 1 6 126041.00 129020.00 1718.67 o
5 1 6 103404.00 104391.00 1518.83 o
0 2 6 32923.40 31479.70 519.60 o
2 2 6 16483.60 16187.50 263.80 o
4 2 6 20733.50 20776.00 391.70 o
1 3 6 21377.10 21895.10 303.77 o
3 3 6 16657.10 17074.80 311.76 o
5 3 6 13060.40 13517.60 303.77 o
0 4 6 162712.00 159133.00 2158.33 o
2 4 6 262484.00 250087.00 3421.36 o
4 4 6 123546.00 122737.00 1750.65 o
1 5 6 13683.20 14021.20 199.85 o
3 5 6 11581.60 11782.90 255.80 o
5 5 6 7842.97 8145.71 231.82 o
0 6 6 67912.40 69330.50 1063.18 o
2 6 6 88031.80 89107.20 1135.12 o
4 6 6 51690.30 52279.60 871.33 o
1 7 6 11122.90 11199.40 191.85 o
3 7 6 10889.40 11559.10 255.80 o
5 7 6 6055.96 6387.07 231.82 o
0 8 6 8180.54 8641.33 223.83 o
2 8 6 14637.80 14956.50 335.74 o
4 8 6 6517.77 6483.00 223.83 o
1 9 6 208498.00 206960.00 2853.80 o
3 9 6 173550.00 174353.00 2805.83 o
5 9 6 143374.00 132010.00 3245.49 o
0 10 6 1934.44 2262.25 215.83 o
2 10 6 4462.38 4836.27 231.82 o
4 10 6 1626.40 1782.62 159.88 o
1 11 6 33671.40 34029.70 623.52 o
3 11 6 30083.00 30224.70 703.46 o
0 12 6 7964.64 8081.76 383.70 o
2 12 6 802.15 767.41 127.90 o
4 12 6 5542.41 5092.07 247.81 o
1 13 6 7061.25 6842.72 287.78 o
3 13 6 5984.71 5699.60 279.78 o
0 14 6 145683.00 143441.00 3421.36 o
2 14 6 166550.00 170476.00 3085.62 o
1 15 6 226.30 287.78 119.91 <
3 15 6 184.75 151.88 127.90 <
0 16 6 12917.40 13125.90 535.59 o
2 16 6 8086.50 8409.51 343.73 o
1 17 6 542.78 479.63 143.89 o
1 1 7 42552.60 42567.10 567.56 o
3 1 7 38320.90 37531.00 655.49 o
5 1 7 28059.60 29329.40 535.59 o
0 2 7 1801.40 1758.64 103.92 o
2 2 7 1664.98 1662.72 127.90 o
4 2 7 1213.48 1263.03 103.92 o
1 3 7 320.35 519.60 71.94 o
3 3 7 343.93 407.68 79.94 o
5 3 7 282.96 439.66 95.93 o
0 4 7 19273.10 18881.40 431.67 o
2 4 7 20105.70 20304.30 407.68 o
4 4 7 14998.90 14940.50 367.72 o
1 5 7 5675.70 5771.54 183.86 o
3 5 7 4325.74 4620.43 199.85 o
0 6 7 64071.90 63367.10 1175.09 o
2 6 7 59805.10 60089.60 919.29 o
4 6 7 48395.60 46620.00 855.34 o
1 7 7 5389.81 5867.47 191.85 o
3 7 7 4941.40 5076.08 199.85 o
0 8 7 1662.21 1686.70 199.85 o
2 8 7 816.04 1007.22 103.92 o
4 8 7 1270.18 1422.90 151.88 o
1 9 7 4475.99 4652.41 199.85 o
3 9 7 3523.25 3421.36 215.83 o
0 10 7 17777.90 18449.80 631.51 o
2 10 7 16777.90 17626.40 447.65 o
4 10 7 13941.10 14932.50 631.51 o
1 11 7 68332.50 67028.30 1119.14 o
3 11 7 61011.50 62751.60 1143.12 o
0 12 7 8356.23 8201.67 415.68 o
2 12 7 11359.60 11367.20 359.72 o
1 13 7 2152.61 2038.43 183.86 o
0 14 7 178.59 271.79 159.88 <
2 14 7 162.14 95.93 127.90 <
1 15 7 26875.30 27514.80 639.51 o
0 0 8 301146.00 295948.00 11695.00 o
2 0 8 186675.00 183011.00 4140.80 o
4 0 8 226944.00 226921.00 5092.07 o
1 1 8 136.78 375.71 103.92 o
3 1 8 83.43 239.82 87.93 <
0 2 8 1012.03 1095.15 255.80 o
2 2 8 500.43 503.61 143.89 o
4 2 8 824.10 615.53 143.89 o
1 3 8 2261.77 2550.03 183.86 o
3 3 8 2754.57 2486.08 159.88 o
0 4 8 215.71 495.62 135.90 o
2 4 8 917.03 1031.20 111.91 o
4 4 8 195.83 239.82 95.93 <
1 5 8 222945.00 220206.00 3964.94 o
3 5 8 201199.00 196592.00 3133.58 o
0 6 8 221.11 263.80 143.89 <
2 6 8 196.82 399.69 103.92 o
1 7 8 2220.54 2166.33 183.86 o
3 7 8 2137.42 2374.17 151.88 o
0 8 8 19043.20 17698.30 631.51 o
2 8 8 2292.86 2006.45 183.86 o
1 9 8 974.34 1063.18 135.90 o
3 9 8 835.36 775.40 127.90 o
0 10 8 186904.00 186752.00 4396.61 o
2 10 8 147890.00 151259.00 3181.54 o
1 11 8 989.52 751.42 159.88 o
0 12 8 7865.61 8105.74 439.66 o
1 1 9 3590.93 4092.84 263.80 o
3 1 9 3499.50 3509.29 271.79 o
0 2 9 29607.50 29745.00 1079.17 o
2 2 9 27734.10 26259.70 751.42 o
1 3 9 40602.00 41112.30 1007.22 o
0 4 9 683.34 799.38 191.85 o
2 4 9 901.25 1247.04 191.85 o
1 5 9 11720.30 11431.20 423.67 o
0 6 9 4674.32 4916.21 399.69 o
2 6 9 4384.52 4556.48 303.77 o
1 7 9 15941.10 15500.00 511.61 o
0 8 9 40024.00 39489.50 1374.94 o
