#------------------------------------------------------------------------------
#$Date: 2021-04-06 11:58:30 +0300 (Tue, 06 Apr 2021) $
#$Revision: 263896 $
#$URL: file:///home/coder/svn-repositories/cod/cif/1/56/14/1561487.cif $
#------------------------------------------------------------------------------
#
# This file is available in the Crystallography Open Database (COD),
# http://www.crystallography.net/
#
# All data on this site have been placed in the public domain by the
# contributors.
#
data_1561487
loop_
_publ_author_name
'Koffi, Agbelenko'
'Ade, Martin'
'Hillebrecht, Harald'
_publ_section_title
;
 Single crystal studies of binary compounds Ta/Ga -- A system with
 experimental and crystallographic peculiarities
;
_journal_name_full               'Journal of Solid State Chemistry'
_journal_page_first              88
_journal_page_last               102
_journal_paper_doi               10.1016/j.jssc.2016.03.014
_journal_volume                  238
_journal_year                    2016
_chemical_formula_sum            'Ga3 Ta5'
_chemical_formula_weight         1113.91
_space_group_crystal_system      tetragonal
_space_group_IT_number           140
_space_group_name_Hall           '-I 4 2c'
_space_group_name_H-M_alt        'I 4/m c m'
_atom_sites_solution_hydrogens   .
_cell_angle_alpha                90
_cell_angle_beta                 90
_cell_angle_gamma                90
_cell_formula_units_Z            4
_cell_length_a                   6.5986(9)
_cell_length_b                   6.5986(9)
_cell_length_c                   11.931(2)
_cell_measurement_reflns_used    4987
_cell_measurement_temperature    293(2)
_cell_measurement_theta_max      32.0
_cell_measurement_theta_min      4.1
_cell_volume                     519.49(13)
_computing_cell_refinement       'Software for IPDS-II, Fa. Stoe'
_computing_data_collection       'Software for IPDS-II, Fa. Stoe'
_computing_data_reduction        'Software for IPDS-II, Fa. Stoe'
_computing_molecular_graphics    'Diamond (Crystal impact, 2005)'
_computing_publication_material  'SHELXL-97_(Sheldrick, 2008)'
_computing_structure_refinement  'SHELXL-2013 (Sheldrick, 2013)'
_computing_structure_solution    'SHELXS-97 (Sheldrick, 2008)'
_diffrn_ambient_temperature      293(2)
_diffrn_measured_fraction_theta_full 1.000
_diffrn_measured_fraction_theta_max 0.988
_diffrn_measurement_details
; 
0 degree < omega < 180 degree
psi = 0, 111
delta omega 2 degree
exposure time 240s 
;
_diffrn_measurement_device       '2-circle goniometer'
_diffrn_measurement_device_type  'STOE IPDS 2'
_diffrn_measurement_method       'rotation method'
_diffrn_radiation_collimation    '0.5 mm diameter, multiple pinhole'
_diffrn_radiation_monochromator  'plane graphite'
_diffrn_radiation_polarisn_norm  0
_diffrn_radiation_type           MoK\a
_diffrn_radiation_wavelength     0.71073
_diffrn_reflns_av_R_equivalents  0.1520
_diffrn_reflns_av_unetI/netI     0.0822
_diffrn_reflns_Laue_measured_fraction_full 1.000
_diffrn_reflns_Laue_measured_fraction_max 0.988
_diffrn_reflns_limit_h_max       9
_diffrn_reflns_limit_h_min       -9
_diffrn_reflns_limit_k_max       9
_diffrn_reflns_limit_k_min       -9
_diffrn_reflns_limit_l_max       17
_diffrn_reflns_limit_l_min       -17
_diffrn_reflns_number            6201
_diffrn_reflns_point_group_measured_fraction_full 1.000
_diffrn_reflns_point_group_measured_fraction_max 0.988
_diffrn_reflns_theta_full        25.242
_diffrn_reflns_theta_max         31.857
_diffrn_reflns_theta_min         3.415
_diffrn_source
'sealed X-ray tube, 12 x 0.4 mm long-fine focus'
_diffrn_source_current           40
_diffrn_source_power             2.00
_diffrn_source_voltage           50
_exptl_absorpt_coefficient_mu    119.963
_exptl_absorpt_correction_T_max  0.1719
_exptl_absorpt_correction_T_min  0.0213
_exptl_absorpt_correction_type   numerical
_exptl_absorpt_process_details   'X-Red and X-SHAPE  (Stoe & Cie, 1999)'
_exptl_crystal_colour            metallic
_exptl_crystal_density_diffrn    14.242
_exptl_crystal_description       flat_needle
_exptl_crystal_F_000             1832
_exptl_crystal_size_max          0.4
_exptl_crystal_size_mid          0.05
_exptl_crystal_size_min          0.02
_refine_diff_density_max         2.458
_refine_diff_density_min         -2.060
_refine_diff_density_rms         0.574
_refine_ls_extinction_coef       0.00051(5)
_refine_ls_extinction_expression Fc^*^=kFc[1+0.001xFc^2^\l^3^/sin(2\q)]^-1/4^
_refine_ls_extinction_method     SHELXL
_refine_ls_goodness_of_fit_ref   0.742
_refine_ls_hydrogen_treatment    undef
_refine_ls_matrix_type           full
_refine_ls_number_parameters     19
_refine_ls_number_reflns         257
_refine_ls_number_restraints     0
_refine_ls_restrained_S_all      0.742
_refine_ls_R_factor_all          0.0659
_refine_ls_R_factor_gt           0.0233
_refine_ls_shift/su_max          0.000
_refine_ls_shift/su_mean         0.000
_refine_ls_structure_factor_coef Fsqd
_refine_ls_weighting_details
'w=1/[\s^2^(Fo^2^)+(0.0128P)^2^] where P=(Fo^2^+2Fc^2^)/3'
_refine_ls_weighting_scheme      calc
_refine_ls_wR_factor_gt          0.0396
_refine_ls_wR_factor_ref         0.0435
_reflns_Friedel_coverage         0.000
_reflns_Friedel_fraction_full    .
_reflns_Friedel_fraction_max     .
_reflns_number_gt                159
_reflns_number_total             257
_reflns_threshold_expression     'I > 2\s(I)'
_cod_data_source_file            Ta5Ga3-x-Cr5B3_HH.cif
_cod_data_source_block           Ta5Ga3-x-Cr5B3
_cod_original_cell_volume        519.49(18)
_cod_database_code               1561487
_shelx_space_group_comment
;
The symmetry employed for this shelxl refinement is uniquely defined
by the following loop, which should always be used as a source of
symmetry information in preference to the above space-group names.
They are only intended as comments.
;
_shelxl_version_number           2013-4
_shelx_res_file
;
TITL xNbGa9-19 in I4/mcm
CELL 0.71073   6.5986   6.5986  11.9310  90.000  90.000  90.000
ZERR    4.00   0.0009   0.0009   0.0024   0.000   0.000   0.000
LATT  2
SYMM -X, -Y, Z
SYMM -Y, X, Z
SYMM Y, -X, Z
SYMM -X, Y, 0.5-Z
SYMM X, -Y, 0.5-Z
SYMM Y, X, 0.5-Z
SYMM -Y, -X, 0.5-Z
SFAC GA TA
UNIT 12 20
L.S. 4
BOND
FMAP 2
OMIT 3 9 4
OMIT 5 8 3
PLAN 20
ACTA
WGHT    0.012800
EXTI    0.000506
FVAR       0.11460   0.61616
TA1   2    0.336423    0.163577    0.349201    10.50000    0.00976    0.00976 =
         0.01098    0.00046   -0.00046   -0.00032
TA2   2    0.500000    0.500000    0.500000    10.12500    0.00906    0.00906 =
         0.01059    0.00000    0.00000    0.00000
GA1   1    0.000000    0.000000    0.250000     0.10484    0.00705    0.00705 =
         0.01229    0.00000    0.00000    0.00000
GA2   1    0.867949    0.632051    0.500000     0.15404    0.00526    0.00526 =
         0.00932    0.00000    0.00000    0.00285
HKLF 4

REM  xNbGa9-19 in I4/mcm
REM R1 =  0.0233 for     159 Fo > 4sig(Fo)  and  0.0659 for all     257 data
REM     19 parameters refined using      0 restraints

END

WGHT      0.0075      0.0000

REM Highest difference peak  2.458,  deepest hole -2.060,  1-sigma level  0.574
Q1    1   0.5775  0.6619  0.5000  10.50000  0.05    2.46
Q2    1   0.2502  0.2498  0.4112  10.50000  0.05    1.84
Q3    1   0.1105  0.0558  0.1907  11.00000  0.05    1.84
Q4    1   0.4042  0.0020  0.3462  11.00000  0.05    1.71
Q5    1   0.4374  0.0626  0.3130  10.50000  0.05    1.65
Q6    1   0.5009  0.2489  0.3401  11.00000  0.05    1.63
Q7    1   0.9817  0.7277  0.5331  11.00000  0.05    1.61
Q8    1   0.4135  0.6642  0.5000  10.50000  0.05    1.61
Q9    1   1.0000  0.5000  0.4672  10.25000  0.05    1.56
Q10   1   0.1229  0.1229  0.2500  10.50000  0.05    1.56
Q11   1   0.3199  0.0340  0.2793  11.00000  0.05    1.51
Q12   1   0.5000  0.5000  0.5377  10.25000  0.05    1.51
Q13   1   0.2400  0.1714  0.2808  11.00000  0.05    1.47
Q14   1   0.1785  0.2606  0.3509  11.00000  0.05    1.41
Q15   1   0.4132  0.5759  0.5611  11.00000  0.05    1.39
Q16   1   0.8430  0.6570  0.5596  10.50000  0.05    1.37
Q17   1   0.3273  0.3069  0.2901  11.00000  0.05    1.37
Q18   1   0.4134  0.2234  0.2892  11.00000  0.05    1.33
Q19   1   0.3489  0.3269  0.3118  11.00000  0.05    1.27
Q20   1   0.3234  0.3061  0.4161  11.00000  0.05    1.26
;
_shelx_res_checksum              69734
_shelx_hkl_file
;
   1   1   0   15.90   97.44   0
   0   2   0  274.98   84.36   0
   2   2   0 3292.90   90.53   0
  -1   3   0 7697.23  108.61   0
   1   3   0 7591.55  102.17   0
   3   3   0 4149.64   89.89   0
  -2   4   0 2636.70   75.91   0
   0   4   0  960.73   69.58   0
   2   4   0 2734.18   70.97   0
   4   4   0 3255.08   75.36   0
  -3   5   0 2435.45   70.14   0
  -1   5   0  162.41   56.38   0
   1   5   0  180.05   64.02   0
   3   5   0 2492.71   68.54   0
   5   5   0   96.55   63.09   0
  -4   6   0  238.47   56.84   0
  -2   6   0  120.98   58.25   0
   0   6   0 8370.84   93.63   0
   2   6   0   86.10   61.22   0
   4   6   0  259.84   57.58   0
   6   6   0 3795.19   88.05   0
  -5   7   0   53.46   68.29   0
  -3   7   0 3175.90   72.21   0
  -1   7   0   62.74   63.82   0
   1   7   0    9.05   60.25   0
   3   7   0 3288.66   82.37   0
   5   7   0   71.47   77.02   0
  -4   8   0  403.26   76.77   0
  -2   8   0  635.87   70.17   0
   0   8   0   52.27   69.55   0
   2   8   0  588.55   66.26   0
   4   8   0  360.05   82.90   0
  -3   9   0  573.77   71.72   0
  -1   9   0 1131.02   84.88   0
   1   9   0 1027.19   77.37   0
   3   9   0  527.19   86.27   0
   0   1   1    2.38  115.27   0
  -1   2   1 1418.30   92.45   0
   1   2   1 1477.87   94.26   0
  -2   3   1   41.95   59.68   0
   0   3   1   10.59   68.64   0
   2   3   1   51.21   67.29   0
  -3   4   1   20.13   59.06   0
  -1   4   1 1220.23   75.35   0
   1   4   1 1207.30   66.07   0
   3   4   1   42.18   59.86   0
  -4   5   1  794.19   62.22   0
  -2   5   1  762.64   66.69   0
   0   5   1   19.29   62.66   0
   2   5   1  783.49   59.05   0
   4   5   1  789.87   61.49   0
  -5   6   1    9.61   72.65   0
  -3   6   1   43.48   60.39   0
  -1   6   1   29.67   61.29   0
   1   6   1   16.13   59.65   0
   3   6   1   45.82   58.19   0
   5   6   1   16.81   69.25   0
  -6   7   1   36.86   71.29   0
  -4   7   1  436.15   75.38   0
  -2   7   1  744.40   68.59   0
   0   7   1   37.52   58.17   0
   2   7   1  774.43   66.59   0
   4   7   1  425.71   69.09   0
   6   7   1   34.11   86.34   0
  -5   8   1  313.96   78.67   0
  -3   8   1   26.45   65.01   0
  -1   8   1  516.76   71.75   0
   1   8   1  450.07   68.03   0
   3   8   1   34.37   75.40   0
   5   8   1  285.46   86.75   0
  -2   9   1   43.00   71.40   0
   0   9   1   39.49   78.22   0
   2   9   1   50.47   85.63   0
   0   0   2    7.12  458.65   0
   1   1   2  501.87  116.17   0
   0   2   2 1066.86  100.13   0
   2   2   2  109.89   72.46   0
  -1   3   2   51.40   67.68   0
   1   3   2   53.32   61.70   0
   3   3   2 1213.65   66.08   0
  -2   4   2  103.03   73.79   0
   0   4   2  418.99   60.65   0
   2   4   2   77.79   65.76   0
   4   4   2  208.62   67.06   0
  -3   5   2    8.37   57.43   0
  -1   5   2  502.93   65.30   0
   1   5   2  473.49   62.57   0
   3   5   2   14.22   52.73   0
   5   5   2  157.41   60.08   0
  -4   6   2  389.01   66.58   0
  -2   6   2  443.34   61.31   0
   0   6   2   61.74   66.55   0
   2   6   2  463.63   59.76   0
   4   6   2  368.89   69.14   0
   6   6   2   42.27   70.30   0
  -5   7   2  252.00   72.88   0
  -3   7   2   25.47   58.43   0
  -1   7   2  171.83   58.97   0
   1   7   2  163.91   62.36   0
   3   7   2   30.01   65.21   0
   5   7   2  236.61   73.51   0
  -4   8   2   16.97   70.85   0
  -2   8   2   48.35   62.94   0
   0   8   2  429.50   68.86   0
   2   8   2   45.82   70.65   0
   4   8   2   44.67   74.18   0
  -3   9   2  401.46   90.08   0
  -1   9   2   -8.83   71.72   0
   1   9   2   20.08   76.53   0
   3   9   2  381.59   89.82   0
   0   1   3   56.42  154.78   0
  -1   2   3 6813.38  124.52   0
   1   2   3 6962.54  118.80   0
  -2   3   3  150.46   68.42   0
   0   3   3   13.28   70.89   0
   2   3   3  147.75   68.27   0
  -3   4   3   62.91   62.25   0
  -1   4   3 3395.32   83.85   0
   1   4   3 3417.70   82.04   0
   3   4   3   48.28   64.92   0
  -4   5   3 2221.92   70.61   0
  -2   5   3 3964.25   74.73   0
   0   5   3    9.82   68.72   0
   2   5   3 3974.53   78.92   0
   4   5   3 2241.92   74.10   0
  -5   6   3  138.00   74.11   0
  -3   6   3   38.39   55.89   0
  -1   6   3  178.56   59.93   0
   1   6   3  171.95   63.28   0
   3   6   3   54.13   61.81   0
   5   6   3  124.21   66.29   0
  -6   7   3   37.91   74.61   0
  -4   7   3  972.52   72.23   0
  -2   7   3 1307.95   65.08   0
   0   7   3   31.26   58.91   0
   2   7   3 1278.66   74.63   0
   4   7   3 1001.67   77.98   0
   6   7   3   34.69   84.56   0
  -5   8   3  899.84   83.68   0
  -3   8   3   19.24   69.97   0
  -1   8   3 1578.46   76.26   0
   1   8   3 1578.03   82.19   0
   3   8   3   14.80   78.64   0
   5   8   3  820.12   92.97   0
  -2   9   3  129.03   81.73   0
   0   9   3   52.25   84.77   0
   2   9   3  118.93   86.49   0
   0   0   4 1226.83  233.90   0
   1   1   4 2705.28  134.75   0
   0   2   4 4957.38  130.20   0
   2   2   4  241.97   81.71   0
  -1   3   4   34.63   67.88   0
   1   3   4   41.02   69.59   0
   3   3   4 6918.76   96.05   0
  -2   4   4  151.45   64.82   0
   0   4   4 3024.66   86.84   0
   2   4   4  146.40   67.83   0
   4   4   4  223.34   66.45   0
  -3   5   4   35.68   60.52   0
  -1   5   4 1569.19   72.32   0
   1   5   4 1637.60   71.98   0
   3   5   4   46.33   61.51   0
   5   5   4  667.04   73.41   0
  -4   6   4 1783.47   62.07   0
  -2   6   4 2061.66   72.73   0
   0   6   4  800.35   66.56   0
   2   6   4 1978.56   72.68   0
   4   6   4 1772.27   77.64   0
   6   6   4  426.22   78.70   0
  -5   7   4  665.78   73.05   0
  -3   7   4   -5.03   69.86   0
  -1   7   4  905.73   70.89   0
   1   7   4  900.33   70.00   0
   3   7   4   28.01   66.91   0
   5   7   4  672.47   82.22   0
  -4   8   4   13.62   70.27   0
  -2   8   4  101.10   71.91   0
   0   8   4 1336.25   76.86   0
   2   8   4   97.53   71.84   0
   4   8   4   51.55   84.88   0
  -3   9   4 1428.72   91.90   0
  -1   9   4   19.03   81.12   0
   1   9   4   47.77   84.15   0
   3   9   4 1363.70  102.41   0
   0   1   5   23.61  142.63   0
  -1   2   5   69.99   95.06   0
   1   2   5   67.53   90.36   0
  -2   3   5   39.34   67.72   0
   0   3   5    2.40   81.71   0
   2   3   5   42.69   79.37   0
  -3   4   5   -6.46   64.60   0
  -1   4   5   51.16   65.68   0
   1   4   5   14.07   69.72   0
   3   4   5   46.37   73.00   0
  -4   5   5   23.68   60.55   0
  -2   5   5   43.13   60.29   0
   0   5   5    5.46   61.54   0
   2   5   5   36.67   66.93   0
   4   5   5   19.21   70.67   0
  -5   6   5   64.96   73.60   0
  -3   6   5   33.77   65.04   0
  -1   6   5   31.45   67.79   0
   1   6   5   37.64   65.92   0
   3   6   5   40.02   68.91   0
   5   6   5   21.95   78.92   0
  -6   7   5   33.94   85.65   0
  -4   7   5   31.26   69.11   0
  -2   7   5   33.27   67.22   0
   0   7   5   21.92   65.58   0
   2   7   5   23.44   73.05   0
   4   7   5   37.40   78.67   0
   6   7   5   22.15   85.66   0
  -3   8   5   -9.67   71.60   0
  -1   8   5   33.14   67.67   0
   1   8   5   20.66   74.79   0
   3   8   5   35.21   87.29   0
  -2   9   5   41.62   83.80   0
   0   9   5   29.10   91.17   0
   2   9   5   56.94   88.15   0
   0   0   6 9999.99  180.37   0
   1   1   6  123.01  110.46   0
   0   2   6  426.00  100.76   0
   2   2   6  883.61   96.02   0
  -1   3   6 3034.36  100.02   0
   1   3   6 3091.92  101.35   0
   3   3   6 3024.12   86.83   0
  -2   4   6  939.53   70.96   0
   0   4   6 1050.79   82.72   0
   2   4   6  908.51   76.78   0
   4   4   6 1394.18   72.78   0
  -3   5   6  932.56   67.70   0
  -1   5   6   41.51   68.81   0
   1   5   6   35.11   71.29   0
   3   5   6  893.69   77.10   0
   5   5   6   17.76   62.33   0
  -4   6   6  289.24   62.75   0
  -2   6   6  175.27   75.18   0
   0   6   6 3953.06   89.44   0
   2   6   6  180.46   70.82   0
   4   6   6  259.56   72.94   0
   6   6   6 1664.35   87.73   0
  -5   7   6   57.62   72.79   0
  -3   7   6 1498.55   80.77   0
  -1   7   6   85.29   70.25   0
   1   7   6   80.69   64.81   0
   3   7   6 1468.52   82.67   0
   5   7   6   42.63   99.66   0
  -4   8   6  130.60   82.17   0
  -2   8   6  196.83   83.02   0
   0   8   6   26.66   84.52   0
   2   8   6  182.94   85.70   0
   4   8   6   88.70   93.92   0
  -1   9   6  449.05   96.54   0
   1   9   6  436.52  100.38   0
   0   1   7   63.02  118.28   0
  -1   2   7 2631.28  107.84   0
   1   2   7 2727.85  125.50   0
  -2   3   7   30.44   77.52   0
   0   3   7   31.31   88.29   0
   2   3   7   36.72   77.85   0
  -3   4   7    5.49   65.29   0
  -1   4   7 2220.80   79.57   0
   1   4   7 2126.25   91.36   0
   3   4   7    9.27   80.46   0
  -4   5   7 1638.82   75.29   0
  -2   5   7 1789.70   74.94   0
   0   5   7   19.34   69.66   0
   2   5   7 1777.11   78.66   0
   4   5   7 1557.35   88.06   0
  -5   6   7   19.01   72.75   0
  -3   6   7   58.01   68.03   0
  -1   6   7    2.46   65.13   0
   1   6   7   29.51   77.55   0
   3   6   7   19.19   81.53   0
   5   6   7   43.81   86.55   0
  -4   7   7  765.84   78.08   0
  -2   7   7 1281.56   80.96   0
   0   7   7   18.83   80.54   0
   2   7   7 1261.49   92.06   0
   4   7   7  722.14   97.98   0
  -3   8   7   65.25   92.06   0
  -1   8   7 1030.76   85.40   0
   1   8   7 1035.19   93.38   0
   3   8   7   45.28   99.70   0
   0   9   7   64.76   98.73   0
   0   0   8 3496.24  106.05   0
   1   1   8  336.11  121.17   0
   0   2   8  242.00   99.57   0
   2   2   8  895.46   99.51   0
  -1   3   8 1519.84   91.72   0
   1   3   8 1584.94  103.89   0
   3   3   8   10.37   77.43   0
  -2   4   8  756.08   71.96   0
   0   4   8   58.82   90.96   0
   2   4   8  758.16   83.64   0
   4   4   8  956.72   72.62   0
  -3   5   8  596.57   73.85   0
  -1   5   8  413.84   70.93   0
   1   5   8  390.36   78.78   0
   3   5   8  538.76   84.14   0
   5   5   8  163.27   79.21   0
  -4   6   8  102.56   81.87   0
  -2   6   8  186.51   71.77   0
   0   6   8 1353.21   81.13   0
   2   6   8  148.86   85.53   0
   4   6   8   44.54   77.40   0
   6   6   8  449.74   87.81   0
  -5   7   8  146.48   89.97   0
  -3   7   8  601.31   91.09   0
  -1   7   8   81.02   72.74   0
   1   7   8  117.56   83.43   0
   3   7   8  647.93   95.31   0
   5   7   8  147.39   95.77   0
  -2   8   8  238.42   85.37   0
   0   8   8  206.80   89.75   0
   2   8   8  226.14  106.42   0
   0   1   9   47.29   88.90   0
  -1   2   9 1653.56   98.53   0
   1   2   9 1587.18  110.07   0
  -2   3   9   83.89   79.38   0
   0   3   9   28.18   87.46   0
   2   3   9   84.31   87.95   0
  -3   4   9   16.83   68.18   0
  -1   4   9  877.34   74.29   0
   1   4   9  813.56   97.96   0
   3   4   9   13.15   84.62   0
  -4   5   9  636.53   71.25   0
  -2   5   9 1249.63   76.86   0
   0   5   9   -0.36   70.88   0
   2   5   9 1148.34   95.53   0
   4   5   9  635.96   87.40   0
  -5   6   9   67.41   78.10   0
  -3   6   9   46.39   72.57   0
  -1   6   9   96.54   65.64   0
   1   6   9   86.40   80.72   0
   3   6   9   54.19   98.79   0
   5   6   9   73.43   88.36   0
  -4   7   9  193.11   81.48   0
  -2   7   9  339.88   80.53   0
   0   7   9   54.03   78.69   0
   2   7   9  295.61  100.34   0
   4   7   9  218.52  102.42   0
  -1   8   9  377.48   91.66   0
   1   8   9  440.93  102.58   0
   0   0  10 2573.69   82.67   0
   1   1  10  729.93   81.00   0
   0   2  10 1817.65   97.68   0
   2   2  10   22.31   85.34   0
  -1   3  10  371.91   79.19   0
   1   3  10  342.30   96.07   0
   3   3  10 4141.47   92.00   0
  -2   4  10   93.50   67.45   0
   0   4  10 1370.63   93.02   0
   2   4  10   87.71   85.35   0
   4   4  10   41.73   78.17   0
  -3   5  10  246.54   73.72   0
  -1   5  10  579.85   73.50   0
   1   5  10  550.45   88.18   0
   3   5  10  255.54   86.58   0
   5   5  10  181.94   83.30   0
  -4   6  10  978.51   84.94   0
  -2   6  10  978.70   75.98   0
   0   6  10 1584.12   90.02   0
   2   6  10  915.45  101.14   0
   4   6  10  829.47   95.74   0
  -3   7  10  201.19   87.18   0
  -1   7  10  393.20   89.75   0
   1   7  10  330.35   89.66   0
   3   7  10  159.27  115.13   0
   0   8  10  509.17  100.48   0
   0   1  11   -6.04   74.88   0
  -1   2  11  997.49   85.07   0
   1   2  11  981.88   84.96   0
  -2   3  11   60.27   79.35   0
   0   3  11   23.74   81.15   0
   2   3  11   58.23   91.73   0
  -3   4  11    2.53   73.98   0
  -1   4  11  590.20   77.45   0
   1   4  11  523.79   94.97   0
   3   4  11   34.18   86.69   0
  -4   5  11  352.53   84.01   0
  -2   5  11  737.19   81.31   0
   0   5  11   16.16   79.74   0
   2   5  11  694.97  104.43   0
   4   5  11  345.34   91.58   0
  -3   6  11   15.79   80.01   0
  -1   6  11   66.62   85.89   0
   1   6  11   70.19   85.58   0
   3   6  11   54.56  102.48   0
  -2   7  11  175.00   93.43   0
   0   7  11   17.87   89.76   0
   2   7  11  137.23  103.08   0
   0   0  12 2488.07   72.24   0
   1   1  12  120.86   67.36   0
   0   2  12  102.10   71.93   0
   2   2  12  526.03   78.80   0
  -1   3  12 1052.59   89.96   0
   1   3  12  999.05   86.57   0
   3   3  12   -0.77   83.02   0
  -2   4  12  483.53   87.70   0
   0   4  12   48.47   81.09   0
   2   4  12  469.59   93.24   0
   4   4  12  685.12   88.81   0
  -3   5  12  389.13   86.60   0
  -1   5  12  230.36   73.85   0
   1   5  12  233.56   98.39   0
   3   5  12  322.29   99.68   0
   5   5  12  120.98   93.92   0
  -4   6  12   68.38  105.20   0
  -2   6  12  114.44   82.89   0
   0   6  12  972.20   91.37   0
   2   6  12   87.04  107.26   0
   4   6  12   10.95  130.46   0
  -1   7  12   62.41   95.51   0
   1   7  12   82.22   97.30   0
   0   1  13   24.33   58.15   0
  -1   2  13 1245.07   76.18   0
   1   2  13 1261.61   74.67   0
  -2   3  13   56.39   79.92   0
   0   3  13   26.11   72.84   0
   2   3  13   17.48   76.51   0
  -3   4  13   18.20   81.50   0
  -1   4  13 1100.68   91.80   0
   1   4  13 1019.50   87.23   0
   3   4  13   66.88   84.68   0
  -4   5  13  678.45   90.95   0
  -2   5  13  959.86   88.94   0
   0   5  13   31.36   80.98   0
   2   5  13  850.54   94.58   0
   4   5  13  627.15   95.13   0
  -1   6  13   48.05   91.51   0
   1   6  13   73.95   99.99   0
   0   0  14 3121.10   70.50   0
   1   1  14   15.43   57.33   0
   0   2  14  111.66   64.33   0
   2   2  14  311.40   68.97   0
  -1   3  14  946.18   75.12   0
   1   3  14  922.22   70.90   0
   3   3  14  833.25   80.21   0
  -2   4  14  294.17   82.26   0
   0   4  14  249.55   80.15   0
   2   4  14  274.55   80.83   0
   4   4  14  369.41   87.88   0
  -3   5  14  287.47   92.20   0
  -1   5  14   22.69   79.00   0
   1   5  14   38.70   86.66   0
   3   5  14  251.45  103.21   0
   0   1  15   10.63   59.65   0
  -1   2  15   78.15   66.63   0
   1   2  15   48.90   67.03   0
  -2   3  15   40.71   77.91   0
   0   3  15   30.99   72.32   0
   2   3  15   36.94   75.25   0
  -3   4  15   78.32   77.02   0
  -1   4  15   15.68   71.92   0
   1   4  15   37.14   79.98   0
   3   4  15   28.26   82.11   0
   0   5  15   23.90   84.87   0
   0   0  16  346.04   57.56   0
   1   1  16  524.16   68.27   0
   0   2  16  965.04   65.26   0
   2   2  16   22.59   73.61   0
  -1   3  16   26.07   73.58   0
   1   3  16   11.63   72.64   0
   0   4  16  594.76   85.33   0
   0   1  17   28.49   64.10   0
  -1   2  17  866.82   78.53   0
   1   2  17  877.23   67.45   0
;
_shelx_hkl_checksum              61933
loop_
_space_group_symop_operation_xyz
'x, y, z'
'-x, -y, z'
'-y, x, z'
'y, -x, z'
'-x, y, -z+1/2'
'x, -y, -z+1/2'
'y, x, -z+1/2'
'-y, -x, -z+1/2'
'x+1/2, y+1/2, z+1/2'
'-x+1/2, -y+1/2, z+1/2'
'-y+1/2, x+1/2, z+1/2'
'y+1/2, -x+1/2, z+1/2'
'-x+1/2, y+1/2, -z+1'
'x+1/2, -y+1/2, -z+1'
'y+1/2, x+1/2, -z+1'
'-y+1/2, -x+1/2, -z+1'
'-x, -y, -z'
'x, y, -z'
'y, -x, -z'
'-y, x, -z'
'x, -y, z-1/2'
'-x, y, z-1/2'
'-y, -x, z-1/2'
'y, x, z-1/2'
'-x+1/2, -y+1/2, -z+1/2'
'x+1/2, y+1/2, -z+1/2'
'y+1/2, -x+1/2, -z+1/2'
'-y+1/2, x+1/2, -z+1/2'
'x+1/2, -y+1/2, z'
'-x+1/2, y+1/2, z'
'-y+1/2, -x+1/2, z'
'y+1/2, x+1/2, z'
loop_
_atom_site_label
_atom_site_type_symbol
_atom_site_fract_x
_atom_site_fract_y
_atom_site_fract_z
_atom_site_U_iso_or_equiv
_atom_site_adp_type
_atom_site_occupancy
_atom_site_site_symmetry_order
_atom_site_calc_flag
_atom_site_refinement_flags_posn
_atom_site_refinement_flags_adp
_atom_site_refinement_flags_occupancy
_atom_site_disorder_assembly
_atom_site_disorder_group
Ta1 Ta 0.33642(8) 0.16358(8) 0.34920(6) 0.0102(2) Uani 1 2 d S T P . .
Ta2 Ta 0.5000 0.5000 0.5000 0.0096(3) Uani 1 8 d S T P . .
Ga1 Ga 0.0000 0.0000 0.2500 0.0088(16) Uani 0.84(2) 8 d S T . . .
Ga2 Ga 0.8679(5) 0.6321(5) 0.5000 0.0066(17) Uani 0.616(18) 4 d S T . . .
loop_
_atom_site_aniso_label
_atom_site_aniso_U_11
_atom_site_aniso_U_22
_atom_site_aniso_U_33
_atom_site_aniso_U_23
_atom_site_aniso_U_13
_atom_site_aniso_U_12
Ta1 0.0098(2) 0.0098(2) 0.0110(3) 0.0005(3) -0.0005(3) -0.0003(3)
Ta2 0.0091(5) 0.0091(5) 0.0106(7) 0.000 0.000 0.000
Ga1 0.0070(18) 0.0070(18) 0.012(3) 0.000 0.000 0.000
Ga2 0.005(2) 0.005(2) 0.009(2) 0.000 0.000 0.0028(15)
loop_
_atom_type_symbol
_atom_type_description
_atom_type_scat_dispersion_real
_atom_type_scat_dispersion_imag
_atom_type_scat_source
Ga Ga 0.2307 1.6083 'International Tables Vol C Tables 4.2.6.8 and 6.1.1.4'
Ta Ta -0.7052 6.5227 'International Tables Vol C Tables 4.2.6.8 and 6.1.1.4'
loop_
_geom_angle_atom_site_label_1
_geom_angle_atom_site_label_2
_geom_angle_atom_site_label_3
_geom_angle
_geom_angle_site_symmetry_1
_geom_angle_site_symmetry_3
Ga2 Ta1 Ga2 87.32(6) 17_666 19_566
Ga2 Ta1 Ga2 87.32(6) 17_666 3_645
Ga2 Ta1 Ga2 55.15(17) 19_566 3_645
Ga2 Ta1 Ga1 94.73(4) 17_666 .
Ga2 Ta1 Ga1 148.84(9) 19_566 .
Ga2 Ta1 Ga1 93.82(8) 3_645 .
Ga2 Ta1 Ga1 94.73(4) 17_666 25
Ga2 Ta1 Ga1 93.82(8) 19_566 25
Ga2 Ta1 Ga1 148.84(9) 3_645 25
Ga1 Ta1 Ga1 116.91(3) . 25
Ga2 Ta1 Ta1 99.06(8) 17_666 25
Ga2 Ta1 Ta1 151.82(9) 19_566 25
Ga2 Ta1 Ta1 151.82(9) 3_645 25
Ga1 Ta1 Ta1 58.454(14) . 25
Ga1 Ta1 Ta1 58.454(14) 25 25
Ga2 Ta1 Ta1 136.67(7) 17_666 2_655
Ga2 Ta1 Ta1 55.01(3) 19_566 2_655
Ga2 Ta1 Ta1 55.01(3) 3_645 2_655
Ga1 Ta1 Ta1 107.133(15) . 2_655
Ga1 Ta1 Ta1 107.133(15) 25 2_655
Ta1 Ta1 Ta1 124.27(3) 25 2_655
Ga2 Ta1 Ta2 53.40(2) 17_666 .
Ga2 Ta1 Ta2 53.11(6) 19_566 .
Ga2 Ta1 Ta2 96.13(8) 3_645 .
Ga1 Ta1 Ta2 145.87(3) . .
Ga1 Ta1 Ta2 61.705(13) 25 .
Ta1 Ta1 Ta2 109.76(3) 25 .
Ta1 Ta1 Ta2 105.310(14) 2_655 .
Ga2 Ta1 Ta2 53.40(2) 17_666 13_545
Ga2 Ta1 Ta2 96.13(8) 19_566 13_545
Ga2 Ta1 Ta2 53.11(6) 3_645 13_545
Ga1 Ta1 Ta2 61.705(13) . 13_545
Ga1 Ta1 Ta2 145.87(3) 25 13_545
Ta1 Ta1 Ta2 109.76(3) 25 13_545
Ta1 Ta1 Ta2 105.310(14) 2_655 13_545
Ta2 Ta1 Ta2 99.60(2) . 13_545
Ga2 Ta1 Ta1 148.61(3) 17_666 28_545
Ga2 Ta1 Ta1 116.53(4) 19_566 28_545
Ga2 Ta1 Ta1 90.32(5) 3_645 28_545
Ga1 Ta1 Ta1 54.187(16) . 28_545
Ga1 Ta1 Ta1 103.12(3) 25 28_545
Ta1 Ta1 Ta1 69.98(3) 25 28_545
Ta1 Ta1 Ta1 61.543(14) 2_655 28_545
Ta2 Ta1 Ta1 157.658(14) . 28_545
Ta2 Ta1 Ta1 101.368(19) 13_545 28_545
Ga2 Ta1 Ta1 148.61(3) 17_666 27
Ga2 Ta1 Ta1 90.32(5) 19_566 27
Ga2 Ta1 Ta1 116.53(4) 3_645 27
Ga1 Ta1 Ta1 103.12(3) . 27
Ga1 Ta1 Ta1 54.187(16) 25 27
Ta1 Ta1 Ta1 69.98(3) 25 27
Ta1 Ta1 Ta1 61.543(14) 2_655 27
Ta2 Ta1 Ta1 101.368(19) . 27
Ta2 Ta1 Ta1 157.658(14) 13_545 27
Ta1 Ta1 Ta1 56.91(3) 28_545 27
Ga2 Ta2 Ga2 180.0 . 17_666
Ga2 Ta2 Ga2 90.000(1) . 19_566
Ga2 Ta2 Ga2 90.000(1) 17_666 19_566
Ga2 Ta2 Ga2 90.000(1) . 3_655
Ga2 Ta2 Ga2 90.0 17_666 3_655
Ga2 Ta2 Ga2 180.0 19_566 3_655
Ga2 Ta2 Ga1 90.0 . 25
Ga2 Ta2 Ga1 90.0 17_666 25
Ga2 Ta2 Ga1 90.0 19_566 25
Ga2 Ta2 Ga1 90.0 3_655 25
Ga2 Ta2 Ga1 90.0 . 9
Ga2 Ta2 Ga1 90.0 17_666 9
Ga2 Ta2 Ga1 90.0 19_566 9
Ga2 Ta2 Ga1 90.0 3_655 9
Ga1 Ta2 Ga1 180.0 25 9
Ga2 Ta2 Ta1 125.32(6) . .
Ga2 Ta2 Ta1 54.68(6) 17_666 .
Ga2 Ta2 Ta1 55.62(6) 19_566 .
Ga2 Ta2 Ta1 124.38(6) 3_655 .
Ga1 Ta2 Ta1 53.912(13) 25 .
Ga1 Ta2 Ta1 126.087(13) 9 .
Ga2 Ta2 Ta1 54.68(6) . 17_666
Ga2 Ta2 Ta1 125.32(6) 17_666 17_666
Ga2 Ta2 Ta1 124.38(6) 19_566 17_666
Ga2 Ta2 Ta1 55.62(6) 3_655 17_666
Ga1 Ta2 Ta1 126.088(13) 25 17_666
Ga1 Ta2 Ta1 53.912(13) 9 17_666
Ta1 Ta2 Ta1 180.0 . 17_666
Ga2 Ta2 Ta1 124.38(6) . 4_565
Ga2 Ta2 Ta1 55.62(6) 17_666 4_565
Ga2 Ta2 Ta1 125.32(6) 19_566 4_565
Ga2 Ta2 Ta1 54.68(6) 3_655 4_565
Ga1 Ta2 Ta1 53.912(13) 25 4_565
Ga1 Ta2 Ta1 126.088(13) 9 4_565
Ta1 Ta2 Ta1 69.699(14) . 4_565
Ta1 Ta2 Ta1 110.301(14) 17_666 4_565
Ga2 Ta2 Ta1 55.62(6) . 20_656
Ga2 Ta2 Ta1 124.38(6) 17_666 20_656
Ga2 Ta2 Ta1 54.68(6) 19_566 20_656
Ga2 Ta2 Ta1 125.32(6) 3_655 20_656
Ga1 Ta2 Ta1 126.088(13) 25 20_656
Ga1 Ta2 Ta1 53.912(13) 9 20_656
Ta1 Ta2 Ta1 110.301(14) . 20_656
Ta1 Ta2 Ta1 69.699(14) 17_666 20_656
Ta1 Ta2 Ta1 180.0 4_565 20_656
Ga2 Ta2 Ta1 54.68(6) . 2_665
Ga2 Ta2 Ta1 125.32(6) 17_666 2_665
Ga2 Ta2 Ta1 124.38(6) 19_566 2_665
Ga2 Ta2 Ta1 55.62(6) 3_655 2_665
Ga1 Ta2 Ta1 53.912(13) 25 2_665
Ga1 Ta2 Ta1 126.088(13) 9 2_665
Ta1 Ta2 Ta1 107.82(3) . 2_665
Ta1 Ta2 Ta1 72.18(3) 17_666 2_665
Ta1 Ta2 Ta1 69.699(14) 4_565 2_665
Ta1 Ta2 Ta1 110.301(14) 20_656 2_665
Ga2 Ta2 Ta1 125.32(6) . 18_556
Ga2 Ta2 Ta1 54.68(6) 17_666 18_556
Ga2 Ta2 Ta1 55.62(6) 19_566 18_556
Ga2 Ta2 Ta1 124.38(6) 3_655 18_556
Ga1 Ta2 Ta1 126.088(13) 25 18_556
Ga1 Ta2 Ta1 53.912(13) 9 18_556
Ta1 Ta2 Ta1 72.18(3) . 18_556
Ta1 Ta2 Ta1 107.82(3) 17_666 18_556
Ta1 Ta2 Ta1 110.301(14) 4_565 18_556
Ta1 Ta2 Ta1 69.699(14) 20_656 18_556
Ta1 Ta2 Ta1 180.000(14) 2_665 18_556
Ta1 Ga1 Ta1 133.56(3) 26_445 3
Ta1 Ga1 Ta1 79.227(12) 26_445 27_455
Ta1 Ga1 Ta1 63.09(3) 3 27_455
Ta1 Ga1 Ta1 63.09(3) 26_445 2
Ta1 Ga1 Ta1 79.227(12) 3 2
Ta1 Ga1 Ta1 71.62(3) 27_455 2
Ta1 Ga1 Ta1 128.77(3) 26_445 25
Ta1 Ga1 Ta1 71.62(3) 3 25
Ta1 Ga1 Ta1 79.227(12) 27_455 25
Ta1 Ga1 Ta1 145.73(3) 2 25
Ta1 Ga1 Ta1 71.62(3) 26_445 4
Ta1 Ga1 Ta1 128.77(3) 3 4
Ta1 Ga1 Ta1 145.73(3) 27_455 4
Ta1 Ga1 Ta1 79.227(12) 2 4
Ta1 Ga1 Ta1 133.56(3) 25 4
Ta1 Ga1 Ta1 79.227(12) 26_445 28_545
Ta1 Ga1 Ta1 145.73(3) 3 28_545
Ta1 Ga1 Ta1 128.77(3) 27_455 28_545
Ta1 Ga1 Ta1 133.56(3) 2 28_545
Ta1 Ga1 Ta1 79.227(12) 25 28_545
Ta1 Ga1 Ta1 63.09(3) 4 28_545
Ta1 Ga1 Ta1 145.73(3) 26_445 .
Ta1 Ga1 Ta1 79.226(12) 3 .
Ta1 Ga1 Ta1 133.56(3) 27_455 .
Ta1 Ga1 Ta1 128.77(3) 2 .
Ta1 Ga1 Ta1 63.09(3) 25 .
Ta1 Ga1 Ta1 79.227(12) 4 .
Ta1 Ga1 Ta1 71.63(3) 28_545 .
Ta1 Ga1 Ta2 115.616(15) 26_445 13_545
Ta1 Ga1 Ta2 64.384(15) 3 13_545
Ta1 Ga1 Ta2 115.616(15) 27_455 13_545
Ta1 Ga1 Ta2 64.384(15) 2 13_545
Ta1 Ga1 Ta2 115.616(15) 25 13_545
Ta1 Ga1 Ta2 64.384(15) 4 13_545
Ta1 Ga1 Ta2 115.616(15) 28_545 13_545
Ta1 Ga1 Ta2 64.383(15) . 13_545
Ta1 Ga1 Ta2 64.384(15) 26_445 9_444
Ta1 Ga1 Ta2 115.616(15) 3 9_444
Ta1 Ga1 Ta2 64.384(15) 27_455 9_444
Ta1 Ga1 Ta2 115.616(15) 2 9_444
Ta1 Ga1 Ta2 64.384(15) 25 9_444
Ta1 Ga1 Ta2 115.616(15) 4 9_444
Ta1 Ga1 Ta2 64.384(15) 28_545 9_444
Ta1 Ga1 Ta2 115.617(15) . 9_444
Ta2 Ga1 Ta2 180.0 13_545 9_444
Ga2 Ga2 Ta2 115.26(9) 17_766 .
Ga2 Ga2 Ta2 115.26(9) 17_766 13_655
Ta2 Ga2 Ta2 129.48(18) . 13_655
Ga2 Ga2 Ta1 136.67(7) 17_766 17_666
Ta2 Ga2 Ta1 71.92(8) . 17_666
Ta2 Ga2 Ta1 71.92(8) 13_655 17_666
Ga2 Ga2 Ta1 136.67(7) 17_766 2_665
Ta2 Ga2 Ta1 71.92(8) . 2_665
Ta2 Ga2 Ta1 71.92(8) 13_655 2_665
Ta1 Ga2 Ta1 86.66(13) 17_666 2_665
Ga2 Ga2 Ta1 62.42(9) 17_766 3_655
Ta2 Ga2 Ta1 71.271(14) . 3_655
Ta2 Ga2 Ta1 135.737(19) 13_655 3_655
Ta1 Ga2 Ta1 143.18(8) 17_666 3_655
Ta1 Ga2 Ta1 82.70(3) 2_665 3_655
Ga2 Ga2 Ta1 62.42(9) 17_766 19_666
Ta2 Ga2 Ta1 135.737(19) . 19_666
Ta2 Ga2 Ta1 71.271(14) 13_655 19_666
Ta1 Ga2 Ta1 82.70(3) 17_666 19_666
Ta1 Ga2 Ta1 143.18(8) 2_665 19_666
Ta1 Ga2 Ta1 124.85(17) 3_655 19_666
Ga2 Ga2 Ta1 62.42(9) 17_766 4_665
Ta2 Ga2 Ta1 135.737(19) . 4_665
Ta2 Ga2 Ta1 71.271(14) 13_655 4_665
Ta1 Ga2 Ta1 143.18(8) 17_666 4_665
Ta1 Ga2 Ta1 82.70(3) 2_665 4_665
Ta1 Ga2 Ta1 69.98(7) 3_655 4_665
Ta1 Ga2 Ta1 85.05(9) 19_666 4_665
Ga2 Ga2 Ta1 62.42(9) 17_766 20_656
Ta2 Ga2 Ta1 71.271(14) . 20_656
Ta2 Ga2 Ta1 135.737(19) 13_655 20_656
Ta1 Ga2 Ta1 82.70(3) 17_666 20_656
Ta1 Ga2 Ta1 143.18(8) 2_665 20_656
Ta1 Ga2 Ta1 85.05(9) 3_655 20_656
Ta1 Ga2 Ta1 69.98(7) 19_666 20_656
Ta1 Ga2 Ta1 124.85(17) 4_665 20_656
loop_
_geom_bond_atom_site_label_1
_geom_bond_atom_site_label_2
_geom_bond_distance
_geom_bond_site_symmetry_2
Ta1 Ga2 2.622(3) 17_666
Ta1 Ga2 2.662(2) 19_566
Ta1 Ga2 2.662(2) 3_645
Ta1 Ga1 2.7375(5) .
Ta1 Ga1 2.7375(5) 25
Ta1 Ta1 2.8644(15) 25
Ta1 Ta1 3.0529(16) 2_655
Ta1 Ta2 3.0545(6) .
Ta1 Ta2 3.0545(6) 13_545
Ta1 Ta1 3.2036(14) 28_545
Ta1 Ta1 3.2036(14) 27
Ta2 Ga2 2.5796(19) .
Ta2 Ga2 2.5796(19) 17_666
Ta2 Ga2 2.5796(19) 19_566
Ta2 Ga2 2.5796(19) 3_655
Ta2 Ga1 2.9827(6) 25
Ta2 Ga1 2.9827(6) 9
Ta2 Ta1 3.0546(6) 17_666
Ta2 Ta1 3.0546(6) 4_565
Ta2 Ta1 3.0546(6) 20_656
Ta2 Ta1 3.0546(6) 2_665
Ta2 Ta1 3.0546(6) 18_556
Ga1 Ta1 2.7375(5) 26_445
Ga1 Ta1 2.7375(5) 3
Ga1 Ta1 2.7375(5) 27_455
Ga1 Ta1 2.7375(5) 2
Ga1 Ta1 2.7375(5) 25
Ga1 Ta1 2.7375(5) 4
Ga1 Ta1 2.7375(5) 28_545
Ga1 Ta2 2.9827(6) 13_545
Ga1 Ta2 2.9827(6) 9_444
Ga2 Ga2 2.465(9) 17_766
Ga2 Ta2 2.5796(19) 13_655
Ga2 Ta1 2.622(3) 17_666
Ga2 Ta1 2.622(3) 2_665
Ga2 Ta1 2.662(2) 3_655
Ga2 Ta1 2.662(2) 19_666
Ga2 Ta1 2.662(2) 4_665
Ga2 Ta1 2.662(2) 20_656
