#------------------------------------------------------------------------------
#$Date: 2021-04-15 10:48:38 +0300 (Thu, 15 Apr 2021) $
#$Revision: 264191 $
#$URL: file:///home/coder/svn-repositories/cod/cif/1/56/17/1561799.cif $
#------------------------------------------------------------------------------
#
# This file is available in the Crystallography Open Database (COD),
# http://www.crystallography.net/
#
# All data on this site have been placed in the public domain by the
# contributors.
#
data_1561799
loop_
_publ_author_name
'Seibel, Elizabeth M.'
'Xie, Weiwei'
'Gibson, Quinn D.'
'Cava, R.J.'
_publ_section_title
;
 Structure and magnetic properties of the REAuBi2 (RE=La--Nd, Sm) phases
;
_journal_name_full               'Journal of Solid State Chemistry'
_journal_page_first              318
_journal_page_last               324
_journal_paper_doi               10.1016/j.jssc.2015.07.013
_journal_volume                  230
_journal_year                    2015
_chemical_formula_sum            'Au Bi2 La'
_chemical_formula_weight         753.84
_space_group_crystal_system      tetragonal
_space_group_IT_number           129
_space_group_name_Hall           '-P 4a 2a'
_space_group_name_H-M_alt        'P 4/n m m :2'
_atom_sites_solution_hydrogens   .
_audit_creation_method           SHELXL-2013
_cell_angle_alpha                90
_cell_angle_beta                 90
_cell_angle_gamma                90
_cell_formula_units_Z            2
_cell_length_a                   4.623(3)
_cell_length_b                   4.623(3)
_cell_length_c                   9.936(6)
_cell_measurement_reflns_used    100
_cell_measurement_temperature    100(2)
_cell_measurement_theta_max      27.46
_cell_measurement_theta_min      4.86
_cell_volume                     212.4(2)
_computing_cell_refinement       'Bruker SAINT'
_computing_data_collection       'Bruker APEX2'
_computing_data_reduction        'Bruker SAINT'
_computing_molecular_graphics    'Bruker SHELXTL'
_computing_publication_material  'Bruker SHELXTL'
_computing_structure_refinement  'SHELXL-2013 (Sheldrick, 2013)'
_computing_structure_solution    'SHELXS-97 (Sheldrick 2008)'
_diffrn_ambient_temperature      100(2)
_diffrn_measured_fraction_theta_full 1.000
_diffrn_measured_fraction_theta_max 0.984
_diffrn_measurement_device_type  'Bruker APEX-II CCD'
_diffrn_measurement_method       '\f and \w scans'
_diffrn_radiation_type           MoK\a
_diffrn_radiation_wavelength     0.71073
_diffrn_reflns_av_R_equivalents  0.1224
_diffrn_reflns_av_unetI/netI     0.0766
_diffrn_reflns_Laue_measured_fraction_full 1.000
_diffrn_reflns_Laue_measured_fraction_max 0.984
_diffrn_reflns_limit_h_max       5
_diffrn_reflns_limit_h_min       -5
_diffrn_reflns_limit_k_max       6
_diffrn_reflns_limit_k_min       -6
_diffrn_reflns_limit_l_max       12
_diffrn_reflns_limit_l_min       -13
_diffrn_reflns_number            866
_diffrn_reflns_point_group_measured_fraction_full 1.000
_diffrn_reflns_point_group_measured_fraction_max 0.984
_diffrn_reflns_theta_full        25.242
_diffrn_reflns_theta_max         28.117
_diffrn_reflns_theta_min         2.050
_exptl_absorpt_coefficient_mu    126.664
_exptl_absorpt_correction_T_max  0.7457
_exptl_absorpt_correction_T_min  0.1746
_exptl_absorpt_correction_type   multi-scan
_exptl_crystal_colour            Metallic
_exptl_crystal_density_diffrn    11.788
_exptl_crystal_density_method    'Not measured'
_exptl_crystal_description       Irregular
_exptl_crystal_F_000             604
_exptl_crystal_size_max          0.040
_exptl_crystal_size_mid          0.025
_exptl_crystal_size_min          0.018
_refine_diff_density_max         5.203
_refine_diff_density_min         -5.502
_refine_diff_density_rms         1.164
_refine_ls_extinction_coef       0.0018(7)
_refine_ls_extinction_expression Fc^*^=kFc[1+0.001xFc^2^\l^3^/sin(2\q)]^-1/4^
_refine_ls_extinction_method     SHELXL
_refine_ls_goodness_of_fit_ref   1.101
_refine_ls_hydrogen_treatment    undef
_refine_ls_matrix_type           full
_refine_ls_number_parameters     12
_refine_ls_number_reflns         188
_refine_ls_number_restraints     0
_refine_ls_restrained_S_all      1.101
_refine_ls_R_factor_all          0.0689
_refine_ls_R_factor_gt           0.0529
_refine_ls_shift/su_max          0.000
_refine_ls_shift/su_mean         0.000
_refine_ls_structure_factor_coef Fsqd
_refine_ls_weighting_details
'w=1/[\s^2^(Fo^2^)+34.1326P] where P=(Fo^2^+2Fc^2^)/3'
_refine_ls_weighting_scheme      calc
_refine_ls_wR_factor_gt          0.1232
_refine_ls_wR_factor_ref         0.1286
_reflns_Friedel_coverage         0.000
_reflns_Friedel_fraction_full    .
_reflns_Friedel_fraction_max     .
_reflns_number_gt                171
_reflns_number_total             188
_reflns_threshold_expression     'I > 2\s(I)'
_cod_data_source_file            JSSC-2015-230-318.cif
_cod_data_source_block           mo_Liz_LaAuBi2_square_0m
_cod_depositor_comments
;
The following automatic conversions were performed:

data item '_exptl_absorpt_correction_type' value 'Multi-scan' was
changed to 'multi-scan' in accordance with the built-in table derived
from the CIF Core dictionary named 'cif_core.dic' version 2.4.5 last
updated on 2014-11-21.

data item '_exptl_crystal_density_meas' value 'None' was changed to
'?' -- the value is perceived as not measured.

Automatic conversion script
Id: cif_fix_values 8369 2020-08-20 11:38:08Z andrius 
;
_cod_original_cell_volume        212.4(3)
_cod_original_sg_symbol_H-M      'P 4/n m m'
_cod_database_code               1561799
_shelx_space_group_comment
; 
The symmetry employed for this shelxl refinement is uniquely defined 
by the following loop, which should always be used as a source of 
symmetry information in preference to the above space-group names. 
They are only intended as comments. 
;
_shelxl_version_number           2013-4
_shelx_res_file
; 
TITL mo_Liz30-CeAuBi2_0m in P4/nmm 
CELL 0.71073   4.62330   4.62330   9.93560  90.0000  90.0000  90.0000 
ZERR    2.00   0.00280   0.00280   0.00610   0.0000   0.0000   0.0000 
LATT  1 
SYMM 0.5-X, 0.5-Y, Z 
SYMM 0.5-Y, X, Z 
SYMM Y, 0.5-X, Z 
SYMM -X, 0.5+Y, -Z 
SYMM 0.5+X, -Y, -Z 
SYMM 0.5+Y, 0.5+X, -Z 
SYMM -Y, -X, -Z 
SFAC LA AU BI 
UNIT 2 2 4 
TEMP -173.140 
  
L.S. 10 
ACTA 
  
WGHT    0.000000   34.132584 
EXTI    0.001760 
FVAR       0.09658 
MOLE   1 
BI1   3    0.250000    0.250000    0.818040    10.12500    0.00626    0.00626 = 
         0.02089    0.00000    0.00000    0.00000 
LA2   1   -0.250000   -0.250000    0.762249    10.12500    0.00600    0.00600 = 
         0.01280    0.00000    0.00000    0.00000 
BI3   3    0.750000    0.250000    0.500000    10.12500    0.00669    0.00669 = 
         0.01547    0.00000    0.00000    0.00000 
AU4   2    0.750000    0.250000    0.000000    10.12500    0.01045    0.01045 = 
         0.01623    0.00000    0.00000    0.00000 
HKLF 4 
  
REM  mo_Liz30-CeAuBi2_0m in P4/nmm 
REM R1 =  0.0529 for     171 Fo > 4sig(Fo)  and  0.0689 for all     188 data 
REM     12 parameters refined using      0 restraints 
  
END 
  
WGHT      0.0000     34.2519 
  
REM Highest difference peak  5.203,  deepest hole -5.502,  1-sigma level  1.164 
Q1    1   0.2500  0.2500  0.9397  10.12500  0.05    5.20 
Q2    1  -0.2500 -0.2500  0.8691  10.12500  0.05    4.36 
Q3    1   0.7500  0.2500 -0.1219  10.25000  0.05    4.12 
Q4    1  -0.2500 -0.2500  0.9604  10.12500  0.05    4.08 
Q5    1   0.7500  0.2500  0.3785  10.25000  0.05    3.89 
Q6    1  -0.3950 -0.2500  0.7227  10.50000  0.05    3.42 
Q7    1  -0.3647 -0.1353  0.7030  10.50000  0.05    2.89 
Q8    1   0.5708  0.2500 -0.0568  10.50000  0.05    2.86 
Q9    1  -0.3248 -0.1243  0.8015  11.00000  0.05    2.79 
Q10   1   0.5971  0.2500  0.5366  10.50000  0.05    2.73 
Q11   1  -0.4053 -0.2500  0.7966  10.50000  0.05    2.59 
Q12   1   0.2500  0.2500  0.6934  10.12500  0.05    2.47 
Q13   1   0.5863  0.2500  0.0381  10.50000  0.05    2.44 
Q14   1   0.7500  0.2500 -0.2090  10.25000  0.05    2.25 
Q15   1   0.3512  0.2500  0.5475  10.50000  0.05    2.16 
Q16   1  -0.4229 -0.2500  0.6146  10.50000  0.05    2.13 
Q17   1   0.4185  0.2500  0.7873  10.50000  0.05    2.08 
Q18   1   0.3953  0.1047  0.8829  10.50000  0.05    1.96 
Q19   1   0.3192  0.1196  0.7855  11.00000  0.05    1.94 
Q20   1   0.5941  0.1704  0.4471  11.00000  0.05    1.92 
;
_shelx_res_checksum              13227
_shelx_hkl_file
; 
   0   0  -1    4.15    3.59 
   0   0   1   -0.53    3.51 
   0   0   1   20.33    3.97 
   0   0  -2   64.54    7.46 
   0   0  -2   38.55    5.32 
   0   0   2    7.39    4.60 
   0   0  -3  261.95    8.32 
   0   0  -3  233.33    8.16 
   0   0  -4  918.95   11.83 
   0   0  -4  830.81   11.00 
   0   0   4   46.79    4.76 
   0   0  -5  131.11    5.83 
   0   0  -5  124.84    5.79 
   0   0   5   15.33    3.61 
   0   0  -6  517.14    9.23 
   0   0  -6  498.16    8.87 
   0   0   6   97.31    6.08 
   0   0  -7   28.05    3.54 
   0   0  -7   30.33    3.58 
   0   0   7   13.11    3.34 
   0   0  -8  219.89    6.81 
   0   0  -8  200.83    6.49 
   0   0   8   64.15    5.68 
   0   0  -9    6.03    2.86 
   0   0  -9    6.05    2.87 
   0   0   9    5.56    3.14 
   0   0 -10  180.76    6.69 
   0   0 -10  163.86    6.31 
   0   0  10   76.24    6.23 
   0   0 -11    4.53    3.08 
   0   0 -11    4.02    2.98 
   0   0  11    5.89    3.36 
   0   0  12  136.05    7.41 
  -1   0   0    0.82    0.64 
  -1   0   0    1.23    0.72 
   0  -1   0    2.21    0.69 
   0  -1   0    1.14    0.66 
   0   1   0    7.73   18.42 
   1   0   0    4.99    3.40 
  -1   0  -1   12.76    2.09 
  -1   0   1    9.01    0.95 
  -1   0   1    6.62    0.64 
   0  -1  -1   10.86    1.30 
   0  -1  -1   15.79    1.33 
   0  -1   1   11.23    1.40 
   0  -1   1    9.96    1.03 
   0   1  -1    3.46    9.51 
   0   1   1    9.20   16.05 
   1   0  -1   18.12    3.37 
   1   0  -1   17.07    3.20 
   1   0   1    8.33    0.89 
   1   0   1   20.02    4.12 
  -1   0  -2  124.81    7.06 
  -1   0   2   69.95    2.45 
  -1   0   2   77.17    1.95 
   0  -1  -2   71.09    2.17 
   0  -1  -2   74.68    2.45 
   0  -1   2   83.65    2.86 
   0   1  -2   60.27    2.40 
   0   1  -2   41.29    5.42 
   0   1   2   13.64   12.39 
   1   0  -2  137.77    9.72 
   1   0  -2   73.59    4.03 
   1   0   2   63.55    2.12 
   1   0   2   84.24    6.67 
  -1   0  -3   70.22    8.41 
  -1   0   3   27.28    3.16 
  -1   0   3   42.80    4.14 
   0  -1  -3   29.71    2.44 
   0  -1  -3   29.83    2.57 
   0  -1   3    9.50    7.68 
   0  -1   3   36.03    3.28 
   0   1  -3   22.65    2.80 
   0   1   3    0.50    3.93 
   0   1   3    3.75    7.75 
   1   0  -3   55.89    8.79 
   1   0  -3   40.34    3.46 
   1   0   3   23.64    2.56 
   1   0   3   39.26    5.27 
  -1   0  -4  207.26   15.56 
  -1   0   4   88.96    5.38 
  -1   0   4  129.15    8.70 
   0  -1  -4  104.07    4.37 
   0  -1  -4   99.66    4.51 
   0  -1   4   20.19    4.39 
   0  -1   4  112.80    5.65 
   0   1  -4   45.75    4.11 
   0   1   4    7.85    3.62 
   0   1   4    3.79    4.76 
   1   0  -4  137.37    9.94 
   1   0  -4   68.45    4.83 
   1   0   4   70.95    4.20 
   1   0   4   95.98    8.28 
  -1   0  -5  292.68   11.80 
  -1   0  -5  122.02    5.26 
  -1   0   5  174.69    8.52 
  -1   0   5  150.69    7.84 
  -1   0   5  196.21    6.26 
   0  -1  -5  233.34    7.57 
   0  -1  -5  227.77    7.58 
   0  -1   5   33.08    4.33 
   0  -1   5  278.06    9.85 
   0   1  -5   51.67    5.60 
   0   1   5   16.91    3.59 
   0   1   5    0.01    3.31 
   1   0  -5  200.08    7.89 
   1   0   5  132.66    6.66 
   1   0   5  170.91    8.03 
  -1   0  -6   11.27    3.94 
  -1   0  -6    4.34    2.56 
  -1   0   6    4.00    5.51 
   0  -1  -6    9.91    4.81 
   0  -1  -6    7.03    4.66 
   0  -1   6    0.64    3.01 
   0  -1   6    8.89    5.98 
   0   1  -6   -0.02    4.19 
   0   1   6    0.73    2.86 
   0   1   6   -0.44    2.67 
   1   0  -6    5.64    2.91 
   1   0  -6    4.51    2.98 
   1   0   6    3.31    4.54 
   1   0   6    3.75    2.62 
  -1   0  -7  251.28    8.10 
  -1   0  -7  184.31    5.61 
  -1   0   7   38.45    8.23 
   0  -1  -7  412.83   14.54 
   0  -1  -7  402.60   14.41 
   0  -1   7   61.41    5.53 
   0  -1   7  404.97   18.64 
   0   1  -7   14.36    6.50 
   0   1   7   53.59    5.55 
   0   1   7   11.02    2.88 
   1   0  -7  173.02    5.97 
   1   0  -7  212.55    7.13 
   1   0   7   97.34   11.64 
  -1   0  -8   36.99    4.43 
  -1   0  -8   29.38    3.35 
  -1   0   8   -3.38    5.57 
   0  -1  -8   50.50    6.73 
   0  -1  -8   41.01    6.25 
   0  -1   8   16.24    3.68 
   0  -1   8   30.77    6.49 
   0   1  -8    3.35    5.03 
   0   1   8   13.20    3.63 
   1   0  -8   23.20    3.25 
   1   0  -8   24.53    3.77 
   1   0   8    8.64    6.11 
  -1   0  -9  105.66    6.16 
  -1   0   9   -2.23    4.33 
   0  -1  -9  122.74    7.22 
   0  -1  -9  113.83    7.11 
   0  -1   9   38.21    4.46 
   0   1  -9   53.06    6.06 
   0   1  -9   46.90    5.86 
   0   1   9   38.49    4.59 
   1   0  -9   85.18    5.03 
   1   0  -9   86.49    5.66 
   1   0   9   26.07    5.43 
  -1   0 -10   83.71    5.95 
  -1   0  10    9.03    4.41 
   0  -1 -10   97.00    6.30 
   0  -1 -10   84.05    6.09 
   0  -1  10   33.50    4.30 
   0   1 -10   64.66    6.60 
   0   1 -10   56.44    6.31 
   0   1  10   38.50    4.58 
   1   0 -10   71.37    5.43 
   1   0  10   24.84    4.82 
  -1   0 -11   10.70    3.43 
  -1   0  11    3.01    3.92 
   0  -1 -11   12.95    3.46 
   0  -1  11    7.85    3.52 
   0   1 -11   10.47    4.03 
   0   1 -11    5.06    3.68 
   0   1  11    8.28    3.74 
   1   0 -11   10.10    3.33 
   1   0  11    7.84    3.89 
  -1   0 -12   58.86    5.59 
  -1   0  12   20.72    4.55 
   0  -1  12   38.87    4.93 
   0   1 -12   60.09    6.41 
   0   1 -12   40.89    4.93 
   0   1  12   35.82    4.80 
   1   0 -12   48.20    5.29 
   1   0  12   31.72    4.98 
   0   1 -13    4.46    3.89 
   1  -1   0  275.13    2.93 
   1  -1   0 1011.92   16.12 
  -1  -1  -1   56.32    2.14 
  -1  -1   1   44.64    1.56 
  -1   1   1   45.28    1.66 
   1  -1  -1   50.71    2.35 
   1  -1  -1  100.84   10.72 
   1  -1   1   37.81    1.49 
   1  -1   1   72.18    5.50 
   1  -1   1   43.80    1.44 
   1  -1   1   84.12    9.46 
   1   1  -1   48.38    3.54 
   1   1  -1   54.98    5.49 
   1   1   1   69.13    9.18 
  -1  -1  -2 1680.84    8.95 
  -1  -1   2 1888.90    9.15 
  -1  -1   2 1413.80    6.73 
  -1   1   2 1569.47    7.73 
  -1   1   2 2214.84   20.92 
   1  -1  -2 1624.98    9.39 
   1  -1   2 1409.22    6.77 
   1  -1   2 2527.25   24.01 
   1  -1   2 1370.13    6.11 
   1  -1   2 2523.53   20.66 
   1   1  -2 1022.10   11.62 
   1   1  -2 1305.06    9.26 
   1   1   2 1577.93    6.81 
   1   1   2  919.10   20.35 
  -1  -1  -3  182.41    4.59 
  -1  -1   3  202.65    5.67 
  -1  -1   3  162.67    3.38 
  -1   1  -3  142.31    2.97 
  -1   1   3  190.70    4.96 
  -1   1   3  233.96   11.13 
   1  -1  -3  143.75    2.39 
   1  -1  -3  181.59    5.05 
   1  -1   3  148.91    3.76 
   1  -1   3  282.91   14.39 
   1  -1   3  264.67   10.24 
   1   1  -3   79.38    7.58 
   1   1  -3  136.73    3.68 
   1   1   3  158.90    3.97 
   1   1   3  178.23   16.38 
  -1  -1  -4  305.80    6.77 
  -1  -1   4  296.62    8.58 
  -1  -1   4  287.42    4.86 
  -1   1  -4  202.08    3.96 
  -1   1   4  306.16    7.43 
  -1   1   4  295.14   10.68 
   1  -1  -4  296.01    4.53 
   1  -1  -4  307.60    7.44 
   1  -1   4  254.39    5.49 
   1  -1   4  436.63   18.74 
   1  -1   4  426.47   11.03 
   1   1  -4   21.44    5.79 
   1   1   4  246.59    5.67 
   1   1   4   75.91    7.97 
  -1  -1  -5  208.00    7.65 
  -1  -1   5  120.03    9.22 
  -1  -1   5  184.45    5.31 
  -1   1  -5   90.32    4.07 
  -1   1   5  155.40    8.53 
  -1   1   5  119.09    8.67 
   1  -1  -5  199.98    5.92 
   1  -1  -5  191.97    8.18 
   1  -1   5  135.10    6.03 
   1  -1   5  147.05   11.04 
   1  -1   5  219.31    9.06 
   1   1  -5    8.69    6.19 
   1   1   5  123.03    6.52 
   1   1   5   46.00    5.28 
  -1  -1  -6  469.62   12.95 
  -1  -1   6  101.34   11.57 
  -1  -1   6  454.49   10.02 
  -1   1  -6  210.22    9.29 
  -1   1  -6  114.31    5.94 
  -1   1   6  214.54   12.11 
  -1   1   6  140.35    9.23 
   1  -1  -6  475.57   10.83 
   1  -1  -6  478.75   13.80 
   1  -1   6  262.73    9.70 
   1   1  -6   20.44    5.99 
   1   1   6  208.19   10.07 
   1   1   6   88.85    5.30 
  -1  -1  -7   23.98    7.34 
  -1  -1  -7   26.05    5.65 
  -1  -1   7    2.58    6.55 
  -1  -1   7   20.26    5.52 
  -1   1  -7   10.21    4.01 
  -1   1  -7   -3.26    3.98 
  -1   1   7    7.24    7.40 
  -1   1   7    0.50    5.03 
   1  -1  -7   28.49    6.10 
   1  -1  -7   21.54    7.27 
   1  -1   7    2.82    5.60 
   1   1  -7    2.98    4.27 
   1   1   7   -4.48    6.55 
   1   1   7    5.40    2.63 
  -1  -1  -8  788.62   22.52 
  -1  -1   8    1.44    4.43 
  -1  -1   8  703.94   20.27 
  -1   1  -8  298.55    9.21 
  -1   1  -8   12.39    6.83 
  -1   1   8    1.61    5.63 
   1  -1  -8  528.45   14.81 
   1  -1   8  229.75   14.54 
   1   1  -8  206.91    8.54 
   1   1   8  133.40   12.22 
  -1  -1  -9    1.74    4.60 
  -1  -1   9   -0.81    4.01 
  -1  -1   9   -2.08    5.62 
  -1   1  -9    2.22    3.61 
  -1   1  -9   -0.34    4.56 
  -1   1   9   -1.45    4.63 
   1  -1  -9    4.15    3.93 
   1  -1   9    6.77    5.18 
   1   1  -9   -1.01    3.42 
   1   1   9    9.34    4.95 
  -1  -1 -10  272.58    9.64 
  -1  -1  10   50.62    5.53 
  -1   1 -10  196.62    7.91 
  -1   1  10   34.09    5.50 
   1  -1 -10  243.74    8.66 
   1  -1  10   92.46    7.99 
   1   1 -10  154.00    8.77 
   1   1 -10  181.45    7.76 
   1   1  10   79.46    7.78 
  -1  -1 -11   11.84    3.88 
  -1  -1  11   -0.76    3.71 
  -1   1 -11   10.41    3.91 
  -1   1  11    3.29    4.05 
   1  -1 -11    9.92    3.54 
   1  -1  11   14.63    4.29 
   1   1 -11    9.08    4.16 
   1   1 -11   10.76    3.85 
   1   1  11   13.52    4.22 
  -1  -1 -12   58.19    6.04 
  -1  -1  12   24.09    4.66 
  -1   1 -12   52.96    6.26 
  -1   1  12   26.94    5.05 
   1  -1 -12   57.00    5.56 
   1  -1  12   28.43    4.99 
   1   1 -12   45.14    5.26 
   1   1  12   30.45    5.09 
  -2   1   0    0.55    0.94 
  -2   1   0    3.80    2.96 
  -1  -2   0    0.67    0.98 
   1   2   0    0.17    1.09 
   1   2   0    5.59    6.26 
   2  -1   0    0.93    0.95 
   2  -1   0    3.48    4.09 
  -2   1  -1    8.58    1.22 
  -2   1  -1   24.02    7.79 
  -2   1   1    6.71    1.22 
  -1  -2  -1   11.01    1.41 
  -1  -2  -1    9.90    1.29 
  -1  -2   1   10.25    1.33 
   1   2  -1   12.59    1.76 
   1   2  -1   14.35    5.03 
   1   2   1   12.32    8.60 
   2  -1  -1    8.72    1.49 
   2  -1  -1    9.81    4.57 
   2  -1   1    6.95    1.02 
   2  -1   1   16.55    5.02 
  -2   1  -2  167.81   18.13 
  -2   1   2   48.21    2.34 
  -1  -2  -2   53.71    2.48 
  -1  -2  -2   51.17    1.97 
  -1  -2   2   53.92    2.26 
   1   2  -2   48.82    3.09 
   1   2  -2   37.59    4.46 
   1   2   2   16.51   12.73 
   2  -1  -2   51.21    2.93 
   2  -1  -2   66.31    6.93 
   2  -1   2   44.83    2.15 
   2  -1   2   43.43    1.52 
   2  -1   2   70.70    7.58 
  -2   1  -3   47.80   10.06 
  -2   1   3   18.92    1.85 
  -1  -2  -3   21.07    2.30 
  -1  -2  -3   16.37    1.61 
  -1  -2   3   16.39    1.98 
   1   2  -3   19.98    2.71 
   1   2  -3   12.68    2.68 
   1   2   3    1.71    5.71 
   2  -1  -3   23.01    2.84 
   2  -1  -3   25.58    4.93 
   2  -1   3   17.78    2.00 
   2  -1   3   16.90    1.39 
   2  -1   3   35.48    6.09 
  -2   1  -4   85.87    8.03 
  -2   1  -4   52.08    2.17 
  -2   1   4   63.38    3.53 
  -1  -2  -4   64.65    3.38 
  -1  -2  -4   52.84    2.21 
  -1  -2   4   42.70    6.86 
  -1  -2   4   59.67    2.96 
   1   2  -4   43.70    4.13 
   1   2  -4   42.06    2.97 
   1   2   4    7.18    4.52 
   2  -1  -4   69.22    5.30 
   2  -1  -4   62.22    7.04 
   2  -1   4   55.54    2.98 
   2  -1   4   93.98    9.33 
  -2   1  -5  151.49    7.84 
  -2   1  -5   95.22    3.25 
  -2   1   5  137.35    5.39 
  -2   1   5  175.40    8.22 
  -1  -2  -5  132.91    4.92 
  -1  -2  -5  111.45    3.30 
  -1  -2   5   15.13    7.31 
  -1  -2   5  143.95    4.52 
   1   2  -5   63.01    5.74 
   1   2   5   20.14    4.44 
   2  -1  -5  160.12    8.30 
   2  -1   5  118.04    4.35 
   2  -1   5  209.80   12.55 
  -2   1  -6    5.45    3.74 
  -2   1  -6    1.21    2.22 
  -2   1   6    4.22    3.11 
  -2   1   6    9.43    4.50 
  -1  -2  -6    4.13    2.92 
  -1  -2  -6    5.24    1.95 
  -1  -2   6    0.75    4.67 
  -1  -2   6    4.31    2.53 
   1   2  -6    2.53    3.96 
   1   2   6    3.88    4.02 
   1   2   6    1.67    3.33 
   2  -1  -6    7.89    5.17 
   2  -1   6    4.09    2.47 
  -2   1  -7  182.93    7.83 
  -2   1   7  188.59    9.54 
  -2   1   7  180.10    9.23 
  -1  -2  -7  198.81    8.53 
  -1  -2   7   -1.41    3.71 
  -1  -2   7  221.82    7.83 
   1   2  -7   21.68    6.13 
   1   2   7   96.62   10.96 
   1   2   7   45.30    4.97 
   2  -1  -7  260.68   14.29 
   2  -1   7  156.79    7.34 
  -2   1  -8   24.89    4.41 
  -2   1   8   25.04    6.86 
  -1  -2  -8   35.10    6.65 
  -1  -2   8    4.57    3.77 
  -1  -2   8   35.18    5.87 
   1   2  -8    5.48    6.97 
   1   2   8    9.97    9.05 
   1   2   8    6.46    3.32 
   2  -1  -8   38.80    8.51 
   2  -1   8   13.73    4.96 
  -2   1  -9   72.83    6.31 
  -2   1   9   37.30    9.39 
  -1  -2  -9  127.13   12.11 
  -1  -2   9   18.81    4.24 
  -1  -2   9  131.19   11.27 
   1   2  -9    2.32    6.88 
   1   2   9   26.04    6.88 
   2  -1  -9   93.16    8.42 
   2  -1   9   59.97    8.47 
  -2   1 -10   64.56    6.20 
  -2   1  10   -1.08    9.63 
  -1  -2 -10  155.15   15.63 
  -1  -2  10   26.44    4.47 
  -1  -2  10  134.68   14.59 
   1   2 -10   22.29    6.35 
   1   2  10   22.04    5.59 
   2  -1 -10   74.55    6.89 
   2  -1  10   45.62   10.28 
  -2   1 -11    7.42    3.83 
  -2   1  11   -6.97    6.08 
  -1  -2 -11   12.82    6.04 
  -1  -2  11    4.07    3.85 
  -1  -2  11   17.25    8.36 
   1   2 -11    5.10    4.86 
   1   2  11   16.95    4.89 
   2  -1 -11    9.68    3.75 
   2  -1  11    4.99    6.97 
  -1  -2 -12   68.36    7.82 
  -1  -2  12   29.81    4.79 
   1   2 -12   30.11    7.11 
   1   2  12   28.70    5.10 
  -2   0   0 1591.77    7.55 
  -2   0   0 1537.84    6.52 
   0  -2   0 1908.39    8.85 
   0  -2   0 1836.08    8.59 
   0   2   0  576.41   47.94 
   2   0   0 1797.01    8.17 
   2   0   0 2140.89   16.38 
  -2   0  -1   12.04    1.47 
  -2   0  -1   27.22    2.27 
  -2   0   1   43.97    2.14 
   0  -2  -1   16.44    1.76 
   0  -2  -1   22.03    1.88 
   0  -2   1   31.05    2.15 
   0  -2   1   30.96    2.05 
   0   2  -1   45.40   13.26 
   0   2   1   22.71   18.73 
   2   0  -1   55.82    3.75 
   2   0  -1   63.82    5.33 
   2   0   1   39.01    4.94 
  -2   0  -2   54.97    3.85 
  -2   0   2   42.65    2.24 
  -2   0   2   31.24    1.10 
   0  -2  -2   39.93    1.94 
   0  -2  -2   41.13    2.02 
   0  -2   2   52.03    2.48 
   0   2  -2   43.24    2.24 
   0   2  -2   -7.05    9.02 
   0   2   2   -0.92   13.41 
   2   0  -2   62.67    5.77 
   2   0  -2   42.65    4.25 
   2   0   2   39.57    2.11 
   2   0   2   71.56    6.47 
  -2   0  -3  250.72    8.19 
  -2   0   3  180.35    4.00 
  -2   0   3  180.13    2.67 
   0  -2  -3  173.03    3.49 
   0  -2  -3  172.02    3.66 
   0  -2   3  209.99    4.63 
   0   2  -3  163.67    3.91 
   0   2  -3    0.71    5.59 
   0   2   3    4.52    8.37 
   2   0  -3  308.69   11.38 
   2   0  -3  183.11    5.63 
   2   0   3  163.27    3.74 
   2   0   3  227.76    9.93 
  -2   0  -4 1087.50   18.74 
  -2   0   4  662.22    7.57 
  -2   0   4  884.52    8.33 
   0  -2  -4  635.20    6.61 
   0  -2  -4  628.68    6.92 
   0  -2   4  762.90    9.01 
   0   2  -4  503.45    6.84 
   0   2   4   -0.33    5.72 
   2   0  -4 1165.58   21.97 
   2   0  -4  554.69    8.01 
   2   0   4  583.70    6.68 
   2   0   4  842.30   16.44 
  -2   0  -5  184.30   14.10 
  -2   0   5   97.71    4.84 
  -2   0   5  154.64    7.70 
   0  -2  -5   89.53    3.79 
   0  -2  -5   87.14    3.92 
   0  -2   5   62.23    8.93 
   0  -2   5  118.34    5.40 
   0   2  -5   67.48    4.03 
   0   2   5   12.43    4.05 
   0   2   5   -0.04    4.66 
   2   0  -5  192.24   14.73 
   2   0  -5   77.32    4.93 
   2   0   5   84.11    4.13 
   2   0   5  143.13   11.72 
  -2   0  -6 1073.67   29.02 
  -2   0   6  436.26    9.54 
   0  -2  -6  432.27    7.92 
   0  -2  -6  431.91    8.27 
   0  -2   6  185.82    9.30 
   0  -2   6  548.24   11.35 
   0   2  -6  232.72    7.12 
   0   2   6   80.24    6.38 
   0   2   6    2.95    4.31 
   2   0  -6  503.83   13.28 
   2   0  -6  317.17    7.78 
   2   0   6  390.69    8.15 
   2   0   6  310.82    9.45 
  -2   0  -7   47.07    7.50 
  -2   0   7   30.79    5.41 
   0  -2  -7   29.32    4.38 
   0  -2  -7   31.26    4.61 
   0  -2   7    9.95    4.06 
   0  -2   7   39.39    6.28 
   0   2  -7    7.35    3.95 
   0   2   7    9.97    3.64 
   0   2   7   -0.18    3.66 
   2   0  -7   33.53    4.87 
   2   0   7   19.11    4.18 
  -2   0  -8  227.68    9.64 
  -2   0   8  163.72   11.68 
   0  -2  -8  240.13    9.92 
   0  -2  -8  231.20   10.28 
   0  -2   8   73.18    6.56 
   0  -2   8  305.59   14.14 
   0   2  -8   21.59    5.80 
   0   2   8   51.09    6.08 
   0   2   8    6.49    3.56 
   2   0  -8  170.18    7.51 
   2   0   8  148.90    9.70 
  -2   0  -9    9.95    4.12 
  -2   0   9    4.57    8.00 
   0  -2  -9    0.26    5.78 
   0  -2  -9    6.25    6.19 
   0  -2   9    6.88    3.50 
   0  -2   9    8.26    9.09 
   0   2  -9    3.27    6.41 
   0   2   9    5.12    3.48 
   2   0  -9    3.06    3.16 
   2   0   9    1.64    6.61 
  -2   0 -10  175.16    7.92 
  -2   0  10   -5.47    9.63 
   0  -2  10   73.67    6.66 
   0  -2  10  230.82   15.00 
   0   2 -10    2.77    7.76 
   0   2  10   68.63    6.66 
   2   0 -10  138.02    6.88 
   2   0  10   72.09   11.84 
  -2   0 -11    6.90    3.62 
  -2   0  11   -7.20    6.16 
   0  -2  11    6.15    3.58 
   0   2 -11    0.74    5.77 
   0   2 -11    0.31    5.47 
   0   2  11    5.20    3.61 
   2   0 -11    4.74    3.21 
   2   0  11    5.78    6.67 
   0  -2  12  131.78    7.59 
   0   2 -12  188.96   10.43 
   0   2 -12  147.98    9.45 
   0   2  12  126.34    7.61 
  -2  -1   0    0.46    0.88 
  -2  -1   0    0.97    0.94 
  -1   2   0   10.93   10.75 
   1  -2   0    1.09    1.27 
   1  -2   0    0.75    0.89 
   2   1   0    2.48    3.53 
  -2  -1  -1    7.99    1.11 
  -2  -1  -1   11.02    1.42 
  -2  -1   1    5.63    1.18 
  -2  -1   1    7.38    1.04 
  -1   2  -1   12.04   11.68 
  -1   2   1   17.11    9.74 
   1  -2  -1   10.96    1.36 
   1  -2  -1    9.59    1.31 
   1  -2   1   12.54    1.99 
   1  -2   1    9.30    1.23 
   2   1  -1   12.00   11.23 
   2   1  -1   13.69    3.39 
   2   1   1   13.36    4.97 
  -2  -1  -2   55.76    2.75 
  -2  -1   2   52.56    2.40 
  -2  -1   2   37.89    1.64 
  -1   2  -2   91.99   16.01 
  -1   2   2   65.47   10.54 
   1  -2  -2   46.20    1.74 
   1  -2  -2   48.66    2.59 
   1  -2   2   67.23    4.07 
   1  -2   2   47.86    2.08 
   2   1  -2    5.93    7.11 
   2   1  -2   44.91    4.05 
   2   1   2   46.54    2.11 
   2   1   2   64.36    7.68 
  -2  -1  -3   23.59    2.47 
  -2  -1   3   20.42    2.51 
  -2  -1   3   18.11    1.59 
  -1   2  -3   15.80    1.90 
  -1   2  -3   24.68   10.06 
  -1   2   3   25.40    8.17 
   1  -2  -3   16.89    1.46 
   1  -2  -3   21.23    2.14 
   1  -2   3   30.05    3.67 
   2   1  -3    9.17    5.31 
   2   1  -3   18.67    2.65 
   2   1   3   17.63    2.07 
   2   1   3   22.45    7.29 
  -2  -1  -4   69.72    4.43 
  -2  -1   4   69.09    3.88 
  -2  -1   4   58.72    2.44 
  -1   2  -4   48.52    2.64 
  -1   2  -4   62.23    5.77 
  -1   2   4   33.68    8.25 
   1  -2  -4   51.85    2.12 
   1  -2  -4   63.80    3.62 
   1  -2   4   62.34    3.18 
   1  -2   4   98.69    6.70 
   2   1  -4   35.41    5.74 
   2   1  -4   52.51    3.26 
   2   1   4   58.78    3.07 
   2   1   4  104.76   12.85 
  -2  -1  -5  149.77    7.13 
  -2  -1   5  152.55    5.86 
  -2  -1   5  142.56    4.03 
  -1   2  -5   97.03    3.74 
  -1   2   5  126.29   10.00 
  -1   2   5   51.71    8.53 
   1  -2  -5  116.60    3.18 
   1  -2  -5  132.14    5.24 
   1  -2   5  128.31    5.18 
   1  -2   5  213.25   10.17 
   2   1  -5   91.14    7.22 
   2   1  -5   99.64    3.72 
   2   1   5  120.79    4.47 
   2   1   5   97.58    9.80 
  -2  -1  -6    3.95    4.64 
  -2  -1   6    5.60    3.58 
  -2  -1   6    6.90    2.54 
  -1   2  -6    2.36    2.10 
  -1   2   6   -0.33    6.97 
  -1   2   6    5.13    6.73 
   1  -2  -6    5.95    3.07 
   1  -2   6    2.05    3.15 
   1  -2   6    7.76    6.37 
   2   1  -6    4.50    3.62 
   2   1   6    6.40    2.65 
   2   1   6    0.32    3.64 
  -2  -1  -7  265.58   13.49 
  -2  -1   7  180.38   10.34 
  -2  -1   7  247.06    8.53 
  -1   2  -7   91.32    5.51 
  -1   2   7    1.16    7.15 
  -1   2   7    6.72    7.16 
   1  -2  -7  200.63    9.10 
   1  -2   7  147.20    9.49 
   1  -2   7  318.75   16.80 
   2   1  -7  123.61    7.13 
   2   1   7  143.95    7.48 
   2   1   7   76.17    5.87 
  -2  -1  -8   43.33   10.18 
  -2  -1   8   17.15    7.24 
  -1   2  -8   11.20    4.12 
  -1   2   8   -2.70    4.80 
  -1   2   8   -5.63    6.32 
   1  -2  -8   30.39    6.60 
   1  -2   8   22.01    7.48 
   1  -2   8   36.33   10.29 
   2   1  -8   20.48    4.12 
   2   1   8   17.20    5.43 
  -2  -1  -9  147.82   13.35 
  -2  -1   9   14.14    9.00 
  -1   2  -9   47.49    7.93 
  -1   2  -9   14.04    5.47 
  -1   2   9    6.40    4.56 
   1  -2  -9  125.01   12.23 
   1  -2   9   51.41    8.73 
   2   1  -9   71.61    6.15 
   2   1   9   45.83    8.28 
  -2  -1 -10  104.30    9.12 
  -2  -1  10   -5.93    7.52 
  -1   2 -10   42.05    6.86 
  -1   2 -10    4.77    7.21 
  -1   2  10   14.00    4.70 
   1  -2 -10  112.96   11.50 
   1  -2  10   38.18    6.42 
   2   1 -10   52.64    5.81 
   2   1  10   29.17   10.54 
  -2  -1 -11   12.95    4.57 
  -2  -1  11   -3.41    5.59 
  -1   2 -11    4.79    4.88 
  -1   2  11    3.46    4.05 
   1  -2 -11   11.95    5.02 
   1  -2  11    9.57    4.77 
   2   1 -11    6.64    3.59 
   2   1  11    7.46    7.32 
  -1   2  12   29.31    5.17 
   1  -2 -12   66.24    6.81 
  -2  -2   0 1395.80    8.95 
  -2   2   0 1295.28    7.26 
   2  -2   0 2012.70   21.76 
   2  -2   0 1262.54    8.33 
   2  -2   0 2315.49   31.07 
   2   2   0 1300.57   11.88 
   2   2   0 1213.09   17.35 
  -2  -2  -1   14.76    1.77 
  -2  -2   1   29.61    2.13 
  -2   2  -1    4.24    1.48 
   2  -2   1   29.39    6.90 
   2  -2   1   20.00    1.90 
   2  -2   1   41.95   10.04 
   2   2  -1   20.96    3.41 
   2   2  -1   21.69    4.15 
   2   2   1   27.89    6.25 
  -2  -2  -2   34.01    2.54 
  -2  -2   2   33.57    2.09 
  -2   2   2   33.13    2.34 
  -2   2   2   44.00    7.52 
   2  -2  -2   32.49    2.66 
   2  -2   2   29.98    2.02 
   2  -2   2   72.99   10.54 
   2  -2   2   31.13    1.95 
   2  -2   2   87.31   12.57 
   2   2  -2   23.32    4.21 
   2   2  -2   31.55    3.87 
   2   2   2   29.83    8.09 
  -2  -2  -3  154.68    4.39 
  -2  -2   3  132.22    3.39 
  -2   2   3  155.27    4.08 
  -2   2   3  193.54   11.32 
   2  -2  -3  146.94    4.53 
   2  -2   3  138.88    3.48 
   2  -2   3  305.44   17.84 
   2  -2   3  138.28    3.17 
   2  -2   3  299.97   18.89 
   2   2  -3   71.44    7.64 
   2   2  -3  128.22    5.26 
   2   2   3  125.99   14.92 
  -2  -2  -4  512.94    7.80 
  -2  -2   4  639.50    9.29 
  -2  -2   4  483.01    6.07 
  -2   2  -4  407.28    5.22 
  -2   2   4  545.38    7.58 
  -2   2   4  573.79   15.26 
   2  -2  -4  478.30    7.99 
   2  -2   4  480.27    6.11 
   2  -2   4  942.77   28.36 
   2  -2   4  989.63   29.24 
   2   2  -4   87.85    9.01 
   2   2  -4  386.89    6.58 
   2   2   4  293.47   16.08 
  -2  -2  -5   72.96    4.70 
  -2  -2   5   81.18    6.66 
  -2  -2   5   78.40    3.54 
  -2   2  -5   55.12    2.98 
  -2   2   5   85.25    5.48 
  -2   2   5   86.90    9.92 
   2  -2  -5   71.35    4.96 
   2  -2   5   67.18    3.70 
   2  -2   5   88.88   11.97 
   2  -2   5   52.41    6.78 
   2   2  -5    4.38    6.18 
   2   2   5   67.55    3.78 
   2   2   5   31.28    6.09 
  -2  -2  -6  352.74    9.21 
  -2  -2   6  389.55   12.55 
  -2  -2   6  366.02    6.98 
  -2   2  -6  239.55    5.41 
  -2   2   6  375.58   10.18 
  -2   2   6  292.51   13.00 
   2  -2  -6  346.77    9.77 
   2  -2   6  318.63    7.13 
   2  -2   6  285.81   12.66 
   2   2  -6   21.91    8.46 
   2   2   6  324.48    7.19 
   2   2   6  107.36    7.64 
  -2  -2  -7   30.43    5.25 
  -2  -2   7   15.78    7.18 
  -2  -2   7   29.82    3.77 
  -2   2  -7   16.86    5.66 
  -2   2  -7   13.82    2.81 
  -2   2   7   23.80    6.17 
  -2   2   7   20.27    6.80 
   2  -2  -7   29.15    5.64 
   2  -2   7   19.20    3.72 
   2   2  -7   -1.19    6.79 
   2   2   7   19.43    3.95 
   2   2   7   10.25    3.87 
  -2  -2  -8  175.30   11.11 
  -2  -2   8   34.83    9.76 
  -2  -2   8  196.68    8.23 
  -2   2  -8  116.31    8.59 
  -2   2   8  118.25   12.78 
   2  -2  -8  181.97   11.60 
   2  -2   8  152.71    8.67 
   2   2  -8   29.50    6.51 
   2   2   8  132.88    9.06 
   2   2   8   57.20    5.92 
  -2  -2  -9    9.24    7.81 
  -2  -2   9   -2.88    7.25 
  -2  -2   9    7.26    5.39 
  -2   2  -9    4.28    4.50 
  -2   2   9  -15.72    8.58 
   2  -2  -9    8.56    7.50 
   2  -2   9    2.87    5.57 
   2   2  -9    0.50    4.60 
   2   2   9    4.99    6.70 
  -2  -2 -10  272.21   18.71 
  -2  -2  10   -2.15    5.47 
  -2   2 -10  116.09    8.15 
  -2   2  10   -4.60    7.72 
   2  -2 -10  191.01   13.53 
   2  -2  10  122.25   13.78 
   2   2 -10   94.26    7.96 
   2   2  10   81.98   11.93 
  -2  -2 -11    5.17    6.87 
  -2  -2  11   -2.59    4.77 
  -2   2  11    3.35    6.14 
   2  -2 -11    5.56    4.85 
   2  -2  11    4.64    8.74 
   2   2 -11   -1.40    3.96 
   2   2  11   12.28    9.22 
  -3   2   0   -1.06    1.29 
  -2  -3   0    1.11    1.51 
   2   3   0    0.45    1.94 
   2   3   0   -3.20    5.72 
   3  -2   0   -0.37    1.28 
   3  -2   0    1.26    6.89 
  -3   2  -1    7.08    1.54 
  -3   2   1    6.09    1.58 
  -2  -3  -1   10.21    1.96 
  -2  -3   1    8.89    1.79 
   2   3  -1    6.63    2.47 
   2   3  -1    6.22    5.02 
   2   3   1    7.06    2.03 
   2   3   1    5.16    7.71 
   3  -2  -1    6.99    1.74 
   3  -2  -1   15.64    7.30 
   3  -2   1    6.50    1.43 
   3  -2   1   16.45    8.28 
  -3   2  -2   28.65    2.65 
  -3   2  -2   55.79   12.34 
  -3   2   2   32.72    2.84 
  -2  -3  -2   35.97    2.94 
  -2  -3   2   36.48    2.76 
   2   3  -2   33.29    4.02 
   2   3  -2   28.01    4.96 
   2   3   2   22.76   10.76 
   3  -2  -2   38.02    3.29 
   3  -2  -2   58.67    9.04 
   3  -2   2   31.84    2.20 
   3  -2   2   68.78   11.23 
  -3   2  -3   23.51    9.99 
  -3   2   3   14.72    2.19 
  -2  -3  -3   12.60    2.27 
  -2  -3   3   12.20    2.05 
   2   3  -3    8.12    3.58 
   2   3  -3   10.62    3.65 
   2   3   3    3.48   13.63 
   3  -2  -3   10.50    2.45 
   3  -2  -3   18.84    7.56 
   3  -2   3   10.83    1.64 
   3  -2   3   30.84   11.03 
  -3   2  -4   54.07    7.68 
  -3   2   4   39.88    3.87 
  -3   2   4   65.56    8.50 
  -2  -3  -4   44.61    3.68 
  -2  -3   4   42.22    3.18 
   2   3  -4   24.94    4.73 
   2   3   4   21.39    8.52 
   3  -2  -4   41.91    4.37 
   3  -2   4   38.80    3.30 
   3  -2   4   90.99   15.14 
  -3   2  -5   97.60    8.75 
  -3   2   5   89.85    5.14 
  -3   2   5  114.13   10.92 
  -2  -3  -5   89.07    4.86 
  -2  -3   5   90.98    4.22 
   2   3  -5   36.43    6.04 
   2   3   5   17.85    6.54 
   3  -2  -5   81.33    5.82 
   3  -2   5   83.85    4.28 
   3  -2   5   96.84   10.70 
  -3   2  -6    5.04    4.63 
  -3   2   6    5.15    3.39 
  -3   2   6    7.62    6.33 
  -2  -3  -6    0.78    2.86 
  -2  -3   6    3.69    2.42 
   2   3  -6    0.60    5.11 
   2   3   6    3.27    4.76 
   3  -2  -6    1.75    3.70 
   3  -2   6    2.57    2.51 
  -3   2  -7  137.98    8.51 
  -3   2   7  141.48    8.35 
  -3   2   7  148.35   11.61 
  -2  -3  -7  126.01    7.27 
  -2  -3   7  132.98    5.99 
   2   3  -7    8.13    6.42 
   2   3   7   43.88    6.01 
   3  -2  -7  130.89    9.39 
   3  -2   7  126.19    6.24 
  -3   2  -8   19.54    4.96 
  -3   2   8   15.67    5.91 
  -2  -3  -8    9.69    4.91 
  -2  -3   8   22.18    4.26 
   2   3  -8    9.40    7.76 
   2   3   8    2.14    4.03 
   3  -2  -8   24.92    7.08 
   3  -2   8   21.30    4.36 
  -3   2  -9   68.40    7.42 
  -3   2   9   59.43    9.15 
  -2  -3  -9   89.42    9.60 
  -2  -3   9   85.61    7.91 
   2   3  -9    2.02    8.43 
   2   3   9   21.88    4.83 
   3  -2  -9   73.78   10.56 
   3  -2   9   63.17    6.89 
  -3   2 -10   55.74    6.38 
  -3   2  10   28.81    9.65 
  -2  -3 -10   74.88   10.51 
  -2  -3  10   85.65    9.80 
   3  -2  10   45.62    7.47 
  -3   1  -1   25.65    2.86 
  -3   1  -1   48.76    3.48 
  -3   1   1   43.25    2.79 
  -1  -3  -1   44.07    2.86 
  -1  -3  -1   49.83    2.75 
  -1  -3   1   47.40    2.72 
   1   3  -1   47.37    3.01 
   1   3  -1   21.38    7.05 
   1   3   1    4.80   11.16 
   3  -1  -1   52.99    2.89 
   3  -1  -1   68.95    7.16 
   3  -1   1   42.42    1.92 
   3  -1   1   65.28    8.06 
  -3   1  -2  773.10    7.32 
  -3   1  -2 1062.47   13.69 
  -3   1   2  847.47    7.79 
  -1  -3  -2  900.72    8.45 
  -1  -3  -2  922.98    7.87 
  -1  -3   2 1012.78    8.98 
   1   3  -2  857.66    9.21 
   1   3  -2  237.73   10.58 
   1   3   2  150.81   22.75 
   3  -1  -2  891.83    9.10 
   3  -1  -2  921.80   14.80 
   3  -1   2 1177.65   19.70 
  -3   1  -3  126.68   10.23 
  -3   1   3   86.36    3.70 
  -1  -3  -3   83.22    3.51 
  -1  -3  -3   83.47    3.09 
  -1  -3   3   98.03    3.73 
   1   3  -3   81.66    4.22 
   1   3  -3   45.97    5.37 
   1   3   3   11.46    6.93 
   3  -1  -3   94.93    4.73 
   3  -1  -3  106.99    7.79 
   3  -1   3   88.42    3.50 
   3  -1   3  137.24   11.12 
  -3   1  -4  311.69   18.73 
  -3   1   4  159.59    4.73 
  -1  -3  -4  148.18    4.51 
  -1  -3  -4  143.19    3.79 
  -1  -3   4  164.55    4.71 
   1   3  -4  127.90    5.28 
   1   3   4   12.05    5.57 
   3  -1  -4  169.56    6.90 
   3  -1  -4  154.02    8.65 
   3  -1   4  137.58    4.30 
   3  -1   4  257.56   14.32 
  -3   1  -5  284.17   25.50 
  -3   1   5  104.88    4.85 
  -1  -3  -5   92.19    4.38 
  -1  -3  -5   92.27    3.61 
  -1  -3   5  107.78    4.56 
   1   3  -5   66.70    5.22 
   1   3   5    8.65    4.87 
   3  -1  -5  110.99    7.87 
   3  -1  -5   85.95    8.12 
   3  -1   5   90.23    4.33 
   3  -1   5  163.91   15.54 
  -3   1  -6  386.06   17.82 
  -3   1   6  215.37    6.98 
  -1  -3  -6  197.51    6.38 
  -1  -3   6  228.55    6.69 
   1   3  -6  114.42    6.82 
   1   3   6   32.64    5.66 
   3  -1  -6  227.81   11.62 
   3  -1  -6  161.35    9.15 
   3  -1   6  186.23    6.02 
   3  -1   6  155.81    9.71 
  -3   1  -7   10.18    5.73 
  -3   1   7    7.44    3.74 
  -1  -3  -7    7.75    3.35 
  -1  -3   7   11.12    3.45 
   1   3  -7    4.38    4.01 
   1   3   7    1.30    4.08 
   3  -1  -7    7.22    7.07 
   3  -1   7    4.52    3.00 
  -3   1  -8  316.84   11.33 
  -3   1   8  300.54   11.05 
  -1  -3  -8  283.73   10.05 
  -1  -3   8  345.46   10.36 
   1   3  -8   51.67    7.20 
   1   3   8   60.83    6.33 
   3  -1  -8  405.69   19.30 
   3  -1   8  262.05    9.28 
  -3   1  -9    3.85    4.19 
  -3   1   9   -1.54    5.92 
  -1  -3  -9    0.71    5.05 
  -1  -3   9    3.36    5.03 
   1   3  -9   -0.41    6.15 
   1   3   9   -3.31    3.56 
   3  -1  -9   -2.01    5.70 
   3  -1   9   -1.15    4.64 
  -3   1 -10  172.57    8.60 
  -3   1  10  140.11   14.47 
  -1  -3 -10  241.21   13.92 
  -1  -3  10  282.48   14.53 
   1   3 -10    5.35    8.39 
   3  -1 -10  179.84   10.02 
   3  -1  10  140.65   12.06 
  -1  -3 -11    3.94    8.71 
  -1  -3  11   22.66   10.06 
  -3   0   0   -2.40    1.28 
  -3   0   0    0.39    0.94 
   0  -3   0    1.23    1.31 
   0  -3   0    1.07    1.23 
   0   3   0  -11.42   25.60 
   3   0   0    1.40    3.75 
  -3   0  -1    7.52    1.60 
  -3   0  -1    8.65    1.51 
  -3   0   1    6.88    1.54 
  -3   0   1    7.30    0.96 
   0  -3  -1    7.44    1.54 
   0  -3  -1    7.68    1.49 
   0  -3   1   11.19    1.80 
   0  -3   1    9.77    1.63 
   0   3  -1    3.84   14.84 
   0   3   1   14.56   14.03 
   3   0  -1   10.47    2.05 
   3   0  -1    9.64    3.71 
   3   0   1   13.64    4.89 
  -3   0  -2   33.26    2.49 
  -3   0  -2   40.20    2.99 
  -3   0   2   36.81    2.62 
   0  -3  -2   41.29    2.44 
   0  -3  -2   40.24    2.50 
   0  -3   2   44.48    2.80 
   0   3  -2   35.00    2.52 
   0   3  -2    1.17    9.17 
   0   3   2   10.15   10.16 
   3   0  -2   44.04    4.52 
   3   0  -2   46.29    5.07 
   3   0   2   62.01    7.39 
  -3   0  -3   17.87    3.26 
  -3   0   3   14.71    2.05 
   0  -3  -3   14.28    1.84 
   0  -3  -3   14.91    1.89 
   0  -3   3   19.35    2.40 
   0   3  -3   11.86    1.93 
   0   3  -3   -2.04    6.59 
   0   3   3   -0.02    7.59 
   3   0  -3   14.52    4.28 
   3   0  -3   15.04    3.64 
   3   0   3   14.79    2.00 
   3   0   3   17.06    6.04 
  -3   0  -4   67.03    6.87 
  -3   0   4   46.49    3.49 
   0  -3  -4   48.92    2.89 
   0  -3  -4   45.65    3.04 
   0  -3   4   59.14    3.91 
   0   3  -4   43.82    3.31 
   0   3  -4    0.57    4.85 
   0   3   4    5.71    6.84 
   3   0  -4   70.15    7.93 
   3   0  -4   45.38    5.02 
   3   0   4   43.41    3.26 
   3   0   4   83.34   10.12 
  -3   0  -5  145.45   10.63 
  -3   0   5  109.81    4.92 
   0  -3  -5   96.83    3.91 
   0  -3  -5   98.21    4.23 
   0  -3   5  126.64    5.53 
   0   3  -5   72.64    4.24 
   0   3   5    0.03    5.97 
   3   0  -5  152.90   13.06 
   3   0  -5   90.29    5.94 
   3   0   5   98.34    4.38 
   3   0   5  149.82   14.84 
  -3   0  -6    6.77    8.36 
  -3   0   6    5.47    2.92 
   0  -3  -6    2.08    2.12 
   0  -3  -6    4.10    2.52 
   0  -3   6    2.74    3.06 
   0   3  -6    2.44    2.45 
   0   3   6   -2.17    5.09 
   3   0  -6    6.25    8.57 
   3   0  -6    7.09    3.81 
   3   0   6    3.66    2.44 
   3   0   6    8.08    5.54 
  -3   0  -7  314.97   21.51 
  -3   0   7  154.70    7.76 
   0  -3  -7  141.14    5.92 
   0  -3  -7  148.40    6.59 
   0  -3   7  198.92    8.82 
   0   3  -7   81.57    5.98 
   0   3   7   -0.14    4.73 
   3   0  -7  174.00   11.76 
   3   0   7  140.24    6.57 
   3   0   7   88.27    7.63 
  -3   0  -8   56.45   11.30 
  -3   0   8   28.88    5.41 
   0  -3  -8   22.76    4.49 
   0  -3  -8   22.61    4.71 
   0  -3   8   33.82    6.53 
   0   3  -8   10.62    4.17 
   0   3   8    1.31    4.54 
   3   0  -8   20.76    5.16 
   3   0   8   14.22    4.17 
  -3   0  -9  101.02    9.99 
  -3   0   9   64.52    8.13 
   0  -3   9  116.75   11.90 
   0   3  -9   17.73    5.63 
   3   0  -9   70.95    6.92 
   3   0   9   57.41    6.84 
  -3   0 -10   73.41    7.94 
  -3   0  10   40.73    9.21 
   0  -3  10  128.48   14.30 
   0   3 -10    8.21    6.55 
   3   0 -10   62.38    6.35 
   3   0  10   41.92    8.10 
   0   3 -11    0.07    8.18 
  -1   3   0   35.73   17.65 
  -3  -1  -1   28.68    2.67 
  -3  -1  -1   40.30    2.42 
  -3  -1   1   52.61    2.75 
  -3  -1   1   35.23    1.95 
  -1   3  -1   59.77   22.89 
  -1   3   1   39.25   14.54 
   1  -3  -1   44.29    2.72 
   1  -3  -1   34.91    2.56 
   1  -3   1   46.55    3.15 
   1  -3   1   42.24    2.52 
   3   1  -1   61.97    7.03 
   3   1  -1   64.31    5.61 
   3   1   1   64.27    7.59 
  -3  -1  -2  798.56    7.20 
  -3  -1  -2  862.27    8.29 
  -3  -1   2  904.20    7.99 
  -3  -1   2  715.25    5.71 
  -1   3  -2  902.75   24.88 
  -1   3   2  524.41   25.22 
   1  -3  -2  889.81    7.50 
   1  -3  -2  848.60    8.23 
   1  -3   2 1123.10   11.27 
   1  -3   2  859.98    7.94 
   3   1  -2 1428.25   25.68 
   3   1  -2  847.71   11.65 
   3   1   2 1001.80   18.62 
  -3  -1  -3   94.28    4.19 
  -3  -1   3   87.17    3.70 
  -3  -1   3   66.12    2.41 
  -1   3  -3   98.04    8.83 
  -1   3   3   37.68   12.43 
   1  -3  -3   76.30    2.77 
   1  -3  -3   82.29    3.63 
   1  -3   3  112.71    5.31 
   3   1  -3  167.09   18.18 
   3   1  -3   87.27    5.32 
   3   1   3   97.78    3.47 
   3   1   3  105.16   11.47 
  -3  -1  -4  166.49    5.95 
  -3  -1   4  163.79    4.91 
  -1   3  -4  128.83    4.09 
  -1   3  -4  146.73    7.85 
  -1   3   4   30.52   11.35 
   1  -3  -4  141.22    3.56 
   1  -3  -4  146.64    4.77 
   1  -3   4  219.98    7.39 
   3   1  -4  222.16   14.62 
   3   1  -4  132.14    5.37 
   3   1   4  144.67    4.28 
   3   1   4  201.13   15.43 
  -3  -1  -5  121.11    6.78 
  -3  -1   5  105.50    5.18 
  -1   3  -5   78.42    3.91 
  -1   3   5   19.93   10.23 
   1  -3  -5   92.18    4.69 
   1  -3   5  148.52    7.80 
   3   1  -5  118.37    9.31 
   3   1  -5   81.21    4.85 
   3   1   5   93.72    4.28 
   3   1   5  178.21   18.29 
  -3  -1  -6  240.75   10.37 
  -3  -1   6  224.56    7.53 
  -1   3  -6  141.66    5.28 
  -1   3   6    6.09    9.73 
   1  -3  -6  186.22    6.64 
   1  -3   6  216.16    6.75 
   1  -3   6  302.71   11.49 
   3   1  -6  196.05    9.36 
   3   1   6  184.48    5.97 
   3   1   6  137.24   10.22 
  -3  -1  -7    7.71    6.44 
  -3  -1   7    8.35    4.11 
  -1   3  -7    5.61    2.80 
  -1   3   7   -2.06    8.72 
   1  -3  -7    4.34    3.51 
   1  -3   7    6.24    3.86 
   1  -3   7   24.56    7.04 
   3   1  -7    7.75    4.01 
   3   1   7    8.37    3.25 
   3   1   7    6.19    4.30 
  -3  -1  -8  428.93   19.24 
  -3  -1   8  310.58   12.16 
  -1   3  -8  144.69    7.06 
  -1   3   8    5.09    7.01 
   1  -3  -8  283.69   10.69 
   1  -3   8  298.21   12.17 
   1  -3   8  469.57   19.02 
   3   1  -8  230.94    9.00 
   3   1   8  244.98    9.12 
  -3  -1  -9    2.15   11.01 
  -3  -1   9   -5.14    6.31 
  -1   3  -9    0.70    4.03 
   1  -3  -9   -3.92    5.22 
   1  -3   9   12.57   10.51 
   3   1  -9    1.24    3.42 
   3   1   9   -1.88    4.94 
  -3  -1 -10  282.74   16.13 
  -3  -1  10  104.28   12.09 
  -1   3 -10   29.74    6.55 
   1  -3 -10  247.06   14.63 
   1  -3  10  259.50   18.46 
   3   1 -10  147.19    7.58 
   3   1  10  122.74   12.41 
  -1   3 -11    1.43    7.30 
   1  -3 -11   19.98    9.80 
  -3  -2   0   -1.00    1.34 
  -3  -2   0   -0.08    1.27 
  -2   3   0   -7.51    9.32 
   2  -3   0   -1.37    2.70 
   2  -3   0    2.21    1.42 
   3   2   0    7.48    4.56 
  -3  -2  -1    5.98    1.51 
  -3  -2  -1    7.60    1.70 
  -3  -2   1    5.54    1.65 
  -3  -2   1    5.89    1.49 
  -2   3  -1   -6.64   10.62 
  -2   3   1   20.29    9.89 
   2  -3  -1    5.42    1.63 
   2  -3   1   10.69    3.73 
   2  -3   1    8.54    1.66 
   3   2  -1   28.44   17.30 
   3   2  -1   12.93    4.16 
   3   2   1   10.62    5.59 
  -3  -2  -2   34.12    2.60 
  -3  -2  -2   30.92    2.85 
  -3  -2   2   43.13    3.07 
  -3  -2   2   29.71    2.34 
  -2   3  -2   11.48   13.11 
  -2   3   2   37.86   10.10 
   2  -3  -2   35.71    3.07 
   2  -3   2   56.69    6.91 
   2  -3   2   32.41    2.69 
   3   2  -2   15.99   11.47 
   3   2  -2   39.64    4.83 
   3   2   2   38.01    8.46 
  -3  -2  -3   10.46    1.81 
  -3  -2  -3    7.74    2.28 
  -3  -2   3   15.27    2.34 
  -3  -2   3   11.56    1.78 
  -2   3  -3    8.92   10.69 
  -2   3   3   15.00    8.77 
   2  -3  -3   11.49    2.34 
   2  -3   3   22.02    6.33 
   2  -3   3   11.00    1.95 
   3   2  -3    8.97    7.66 
   3   2  -3   17.38    3.68 
   3   2   3   13.37    8.84 
  -3  -2  -4   41.42    4.08 
  -3  -2   4   44.98    4.29 
  -3  -2   4   36.19    2.80 
  -2   3  -4   32.20    2.93 
  -2   3  -4   37.46    6.35 
  -2   3   4   35.55    9.07 
   2  -3  -4   40.05    3.81 
   2  -3   4   89.77   10.23 
   3   2  -4   12.86    6.30 
   3   2  -4   36.86    4.55 
   3   2   4   39.79    3.29 
   3   2   4   46.99   12.33 
  -3  -2  -5   88.79    5.48 
  -3  -2   5  105.31    5.91 
  -3  -2   5   82.63    3.61 
  -2   3  -5   68.87    3.65 
  -2   3   5   52.08    9.81 
   2  -3  -5   80.56    5.01 
   2  -3   5   87.42    3.94 
   2  -3   5  177.31   14.64 
   3   2  -5   50.47    7.46 
   3   2   5   82.76    4.19 
   3   2   5   73.94   11.11 
  -3  -2  -6    1.92    3.55 
  -3  -2   6    1.17    3.72 
  -2   3  -6    3.49    2.16 
  -2   3   6    0.30    7.67 
   2  -3  -6    3.14    3.01 
   2  -3   6    2.93    2.24 
   2  -3   6    7.62    9.21 
   3   2  -6    1.79    4.67 
   3   2   6    3.86    2.54 
   3   2   6    3.22    5.24 
  -3  -2  -7  146.73    8.99 
  -3  -2   7  148.43    9.83 
  -2   3  -7   88.85    4.94 
  -2   3   7   33.48    9.19 
   2  -3  -7  116.79    7.56 
   2  -3   7  138.27    6.37 
   2  -3   7  265.86   21.55 
   3   2  -7   85.59    8.08 
   3   2   7  118.47    6.18 
   3   2   7   65.01    7.43 
  -3  -2  -8   18.46    6.77 
  -3  -2   8   18.43    7.11 
  -2   3  -8    9.40    3.32 
  -2   3   8    6.80    8.38 
   2  -3  -8   18.10    5.38 
   2  -3   8   15.73    4.20 
   2  -3   8   33.78    9.42 
   3   2  -8   16.30    4.99 
   3   2   8   16.19    4.29 
   3   2   8   10.64    4.39 
  -3  -2  -9   80.55   10.92 
  -3  -2   9   49.21    9.95 
  -2   3  -9   46.36    8.61 
   2  -3  -9   85.31   10.40 
   2  -3   9   63.74    7.32 
   3   2  -9   42.89    5.71 
   3   2   9   50.90    6.62 
  -3  -2  10   11.19   10.57 
   2  -3 -10   87.68   11.43 
   3   2  10   38.95    7.85 
  -3   3   0   31.98   11.40 
   3   3   0   23.69    6.49 
  -3  -3  -1   30.68    3.25 
  -3  -3   1   35.88    3.18 
  -3   3  -1   25.84    2.80 
  -3   3  -1   41.35   12.63 
  -3   3   1   34.11   10.41 
   3  -3  -1   29.72    3.23 
   3  -3   1   35.93    2.96 
   3   3  -1   37.18    6.16 
   3   3   1   30.16    7.86 
  -3  -3  -2  633.47    8.62 
  -3  -3   2  607.73    7.70 
  -3   3  -2  569.79    6.68 
  -3   3   2  629.79    7.60 
  -3   3   2  621.95   20.92 
   3  -3  -2  590.24    8.38 
   3  -3   2  608.86    7.35 
   3   3  -2  181.17   12.37 
   3   3  -2  528.53   11.84 
   3   3   2  460.82   18.63 
  -3  -3  -3   53.37    4.08 
  -3  -3   3   55.93    3.48 
  -3   3  -3   51.05    3.29 
  -3   3   3   51.92    9.94 
   3  -3  -3   56.52    4.32 
   3  -3   3   61.10    3.50 
   3  -3   3  108.08   20.25 
   3   3  -3   19.77    7.41 
   3   3  -3   50.29    5.92 
   3   3   3   54.59   12.71 
  -3  -3  -4  105.30    5.09 
  -3  -3   4  106.21    4.13 
  -3   3   4  116.66    5.27 
  -3   3   4  122.78   13.38 
   3  -3  -4  101.22    5.24 
   3  -3   4   71.24    9.59 
   3  -3   4  103.40    3.95 
   3  -3   4  103.51   13.31 
   3   3  -4    7.80    7.57 
   3   3   4   89.11   16.55 
  -3  -3  -5   69.58    5.13 
  -3  -3   5   72.56    4.11 
  -3   3  -5   49.09    8.05 
  -3   3   5   80.35    6.01 
  -3   3   5   51.68    9.45 
   3  -3  -5   65.05    5.39 
   3  -3   5   76.30    4.36 
   3   3  -5   12.09    8.89 
   3   3   5   19.21    8.28 
  -3  -3  -6  134.74    7.01 
  -3  -3   6  140.29    5.49 
  -3   3  -6  111.01   10.09 
  -3   3   6  111.39   12.97 
   3  -3  -6  121.03    7.11 
   3  -3   6  142.52    5.70 
   3   3  -6   21.60   10.71 
   3   3   6   51.78    8.06 
  -3  -3  -7    3.56    4.00 
  -3  -3   7    4.71    2.94 
  -3   3  -7    1.89    5.28 
  -3   3   7   10.22    7.80 
   3  -3  -7    4.89    4.30 
   3  -3   7    5.82    3.06 
   3   3  -7    2.27    7.21 
   3   3   7    5.21    4.93 
  -3  -3  -8  207.97   10.91 
  -3   3  -8  178.40   10.34 
  -3   3   8  117.56   13.14 
   3  -3  -8  202.47   11.14 
   3  -3   8  204.02    8.24 
   3   3  -8   64.07    8.70 
   3   3   8   78.36    7.57 
  -3   3  -9    1.65    4.79 
   3  -3   9   -1.02    4.38 
   3   3   9    4.73    4.28 
  -4   3   0   -1.48    1.99 
  -3  -4   0    0.68    2.03 
   3   4   0    3.46    7.15 
   4  -3   0    1.68    2.09 
   4  -3   0    0.90   11.75 
  -4   3  -1    3.78    2.13 
  -4   3   1    6.49    2.27 
  -3  -4  -1    7.82    2.58 
  -3  -4   1    7.32    2.41 
   3   4  -1    4.35    6.17 
   3   4   1    3.61    8.55 
   4  -3  -1    6.12    2.39 
   4  -3  -1   12.10   10.64 
   4  -3   1    8.26    2.23 
   4  -3   1   21.67   13.61 
  -4   3  -2   20.98    2.70 
  -4   3   2   25.15    2.98 
  -4   3   2   31.27   10.73 
  -3  -4  -2   27.17    3.40 
  -3  -4   2   28.13    3.20 
   3   4  -2   17.50    5.77 
   3   4   2   14.48   11.28 
   4  -3  -2   22.79    3.15 
   4  -3   2   40.49   16.34 
  -4   3  -3    5.40    2.17 
  -4   3   3    7.68    2.63 
  -4   3   3   11.27    9.60 
  -3  -4  -3    5.82    2.67 
  -3  -4   3   10.08    2.56 
   3   4  -3    3.39    5.80 
   3   4   3    8.48   12.88 
   4  -3  -3    5.41    2.75 
   4  -3   3   12.06   16.99 
  -4   3  -4   23.49    2.88 
  -4   3   4   30.27    3.73 
  -4   3   4   29.01    9.53 
  -3  -4  -4   23.81    3.62 
  -3  -4   4   32.22    3.58 
   3   4  -4    7.55    6.59 
   3   4   4   17.75   16.58 
   4  -3  -4   28.08    4.03 
   4  -3   4   19.53   14.65 
  -4   3  -5   45.29    4.47 
  -4   3   5   60.67    6.13 
  -4   3   5   53.27   10.46 
  -3  -4  -5   52.02    5.32 
  -3  -4   5   62.91    4.82 
   3   4  -5   11.27    7.69 
   3   4   5   13.55    8.91 
   4  -3  -5   56.03    5.86 
  -4   3   6    1.22    8.16 
  -3  -4  -6   -0.47    3.29 
  -3  -4   6    1.41    2.89 
   3   4  -6    8.01    8.32 
   3   4   6    0.75    6.67 
   4  -3  -6    0.16    3.71 
  -4   3   7   47.47    9.54 
  -3  -4   7   93.78    6.36 
   3   4  -7   17.77    9.88 
   4  -3   7   79.19    6.34 
  -4   2   0  728.00    8.51 
  -2  -4   0  871.70   10.04 
   2   4   0  782.10   10.98 
   2   4   0  417.38   18.70 
   4  -2   0  686.47    7.68 
   4  -2   0  998.01   23.82 
  -4   2  -1    5.77    2.04 
  -2  -4  -1   13.50    2.43 
  -2  -4   1   11.66    2.37 
   2   4  -1   10.50    3.01 
   2   4  -1    6.10    6.86 
   2   4   1   15.37   11.11 
   4  -2  -1  109.76   12.80 
   4  -2   1   15.57    9.34 
  -4   2  -2   11.17    2.23 
  -4   2   2   19.96    2.55 
  -2  -4  -2   15.40    2.58 
  -2  -4   2   21.57    2.80 
   2   4  -2   19.14    3.77 
   2   4  -2   19.46    6.07 
   2   4   2   13.12   13.61 
   4  -2  -2   19.74    2.75 
   4  -2  -2   24.58    8.20 
   4  -2   2   18.16   10.67 
  -4   2  -3   72.29    4.21 
  -4   2   3   95.09    4.69 
  -2  -4  -3   90.38    4.57 
  -2  -4   3  100.72    4.59 
   2   4  -3   76.38    6.17 
   2   4   3   45.50   20.28 
   4  -2  -3   84.54    4.93 
   4  -2  -3  108.65   12.41 
   4  -2   3  153.26   18.79 
  -4   2  -4  243.83    6.13 
  -4   2   4  298.22    7.05 
  -2  -4  -4  270.87    6.93 
  -2  -4   4  310.00    7.02 
   2   4  -4  205.39    8.73 
   2   4   4   57.13   11.50 
   4  -2  -4  288.16    7.84 
   4  -2  -4  279.11   14.22 
   4  -2   4  481.93   25.96 
  -4   2   5   42.89    5.14 
  -2  -4  -5   38.52    4.15 
  -2  -4   5   43.90    4.37 
   2   4  -5   26.50    5.45 
   2   4   5    8.33    6.85 
   4  -2  -5   43.25    5.12 
   4  -2  -5   32.92    8.57 
   4  -2   5   48.95   11.77 
  -4   2  -6  347.02   21.20 
  -4   2   6  206.98    7.83 
  -4   2   6  248.23   13.80 
  -2  -4  -6  190.71    7.36 
  -2  -4   6  219.86    7.07 
   2   4  -6   80.18    8.84 
   2   4   6   56.85    8.49 
   4  -2  -6  194.91    9.30 
   4  -2   6  193.22    6.66 
  -4   2  -7   21.75    7.26 
  -4   2   7   24.34    4.94 
  -4   2   7   15.63    7.18 
  -2  -4  -7   10.80    3.99 
  -2  -4   7   21.18    4.07 
   2   4  -7    8.70    5.87 
   2   4   7    8.00    5.50 
   4  -2  -7   20.68    6.04 
   4  -2   7   20.98    3.85 
  -4   2  -8  113.31    9.91 
  -4   2   8  100.34    9.38 
  -2  -4  -8   86.91    7.98 
  -2  -4   8  106.05    7.21 
   2   4  -8   13.62    7.04 
   2   4   8   30.41    6.16 
   4  -2  -8   99.26   11.47 
   4  -2   8   92.46    7.19 
  -4   1   0   -0.88    1.71 
  -1  -4   0    1.38    1.72 
   1   4   0    1.93    1.79 
   1   4   0    6.58   11.03 
   4  -1   0   10.54    5.60 
  -4   1  -1    6.63    1.90 
  -4   1   1    6.62    1.89 
  -1  -4  -1    7.30    1.91 
  -1  -4  -1    7.19    2.11 
  -1  -4   1    8.20    2.06 
   1   4  -1    6.17    2.11 
   1   4  -1    8.17    8.68 
   1   4   1   -1.86   14.17 
   4  -1  -1    9.19    2.03 
   4  -1  -1   10.41    5.55 
   4  -1   1   15.13    7.01 
  -4   1  -2   25.60    2.53 
  -4   1   2   26.29    3.21 
  -1  -4  -2   31.59    3.10 
  -1  -4  -2   31.66    3.25 
  -1  -4   2   35.75    3.32 
   1   4  -2   29.50    3.18 
   1   4  -2   12.82    7.19 
   1   4   2   26.46   21.83 
   4  -1  -2   33.02    3.23 
   4  -1  -2   33.05    6.18 
   4  -1   2   45.02    8.80 
  -4   1  -3    7.31    2.05 
  -4   1   3    9.21    2.26 
  -1  -4  -3   10.43    2.27 
  -1  -4  -3   10.91    2.36 
  -1  -4   3   10.57    2.42 
   1   4  -3    8.68    2.68 
   1   4  -3    1.59    5.44 
   1   4   3   -1.43    8.54 
   4  -1  -3    7.20    2.87 
   4  -1  -3   11.04    5.55 
   4  -1   3   25.01    9.37 
  -4   1  -4   31.15    3.66 
  -4   1  -4   36.23    6.04 
  -4   1   4   32.69    4.04 
  -1  -4  -4   35.22    3.56 
  -1  -4  -4   33.79    3.46 
  -1  -4   4   37.25    3.90 
   1   4  -4   30.76    3.77 
   1   4   4    0.89    6.82 
   4  -1  -4   36.92    4.47 
   4  -1  -4   40.23    6.76 
   4  -1   4   40.89   11.29 
  -4   1  -5   93.51   11.56 
  -4   1   5   78.78    5.15 
  -1  -4  -5   68.75    4.51 
  -1  -4   5   91.19    5.08 
   1   4  -5   60.37    5.32 
   1   4   5   13.47    6.59 
   4  -1  -5   71.71    7.34 
   4  -1  -5   73.73    8.69 
   4  -1   5   71.93    4.66 
   4  -1   5  156.94   19.07 
  -4   1  -6   12.75   10.64 
  -4   1   6    0.90    3.05 
  -1  -4  -6    3.67    2.74 
  -1  -4   6    6.92    3.10 
   1   4  -6    4.11    3.39 
   1   4   6    1.85    5.37 
   4  -1  -6    3.13    5.30 
   4  -1  -6    4.98    5.99 
   4  -1   6    3.99    2.82 
   4  -1   6    0.99    6.52 
  -4   1  -7  276.33   28.05 
  -4   1   7  116.70    7.46 
  -1  -4  -7  105.57    6.33 
  -1  -4   7  139.38    7.17 
   1   4  -7   65.58    7.02 
   1   4   7   21.18    5.91 
   4  -1  -7  127.01   12.52 
   4  -1   7  110.46    6.51 
  -4   1  -8   29.68   10.72 
  -4   1   8   19.14    5.21 
  -1  -4  -8   14.34    4.43 
  -1  -4   8   23.47    5.12 
   1   4  -8    7.37    5.03 
   1   4   8    4.89    4.90 
   4  -1  -8   19.50    9.21 
   4  -1   8   11.60    4.09 
  -4   1  -9   93.86   10.63 
  -1  -4  -9   50.25    6.84 
  -1  -4   9   81.20    8.77 
   1   4   9   14.70    5.31 
   4  -1  -9   98.30   15.27 
  -4   0   0  817.38    8.49 
   0  -4   0  974.56    9.96 
   0  -4   0  912.30    9.48 
   0   4   0    6.23   23.05 
   4   0   0  950.46   16.99 
  -4   0  -1    4.38    1.96 
   0  -4  -1   23.76    2.91 
   0  -4  -1   27.30    2.97 
   0  -4   1   11.28    2.17 
   0  -4   1   11.69    2.11 
   0   4  -1    4.78   14.92 
   0   4   1   15.18   18.17 
   4   0  -1   87.84    7.62 
   4   0   1   21.80    6.05 
  -4   0  -2   15.74    2.45 
  -4   0  -2   25.09    2.99 
  -4   0   2   19.64    2.38 
   0  -4  -2   24.58    2.77 
   0  -4  -2   23.27    2.89 
   0  -4   2   27.95    3.03 
   0   4  -2   22.31    2.59 
   0   4  -2   -5.06   10.56 
   0   4   2   -1.85   10.35 
   4   0  -2   27.91    3.36 
   4   0  -2   25.87    5.18 
   4   0   2   36.43    7.95 
  -4   0  -3   88.30    4.20 
  -4   0  -3  102.11    4.81 
  -4   0   3  108.43    4.56 
   0  -4  -3  102.42    4.04 
   0  -4  -3   96.46    4.12 
   0  -4   3  118.64    4.95 
   0   4  -3   87.79    4.24 
   0   4  -3   -1.21    8.12 
   0   4   3    1.95    9.12 
   4   0  -3  111.89    6.71 
   4   0  -3   99.41    7.19 
   4   0   3  131.27   12.85 
  -4   0  -4  351.82    8.78 
  -4   0   4  333.84    6.98 
   0  -4  -4  324.48    6.45 
   0  -4  -4  337.74    6.84 
   0  -4   4  399.71    8.33 
   0   4  -4  279.44    6.70 
   0   4   4   -1.10    7.19 
   4   0  -4  397.85   12.17 
   4   0  -4  295.34    9.56 
   4   0   4  479.00   20.09 
  -4   0  -5   60.96    6.64 
  -4   0   5   48.22    4.59 
   0  -4  -5   43.86    3.72 
   0  -4  -5   42.96    4.09 
   0  -4   5   55.55    5.08 
   0   4  -5   35.20    4.13 
   0   4   5    1.83    6.59 
   4   0  -5   61.06    8.47 
   4   0  -5   46.51    5.86 
   4   0   5   51.94    4.33 
   4   0   5   65.03   13.62 
  -4   0  -6  310.67   14.00 
  -4   0   6  236.87    7.53 
   0  -4  -6  208.56    6.30 
   0  -4  -6  222.68    7.04 
   0  -4   6  294.83    9.11 
   0   4  -6  159.80    6.49 
   0   4   6    1.78    6.06 
   4   0  -6  287.57   16.51 
   4   0   6  220.60    6.82 
   4   0   6  203.33   13.54 
  -4   0  -7   29.59   10.84 
  -4   0   7   19.75    4.14 
   0  -4  -7   19.41    4.16 
   0  -4   7   26.73    5.15 
   0   4  -7   10.73    3.57 
   0   4   7    4.45    5.91 
   4   0  -7   19.39   10.22 
   4   0   7   17.44    3.73 
   4   0   7   11.93    5.66 
  -4   0  -8  225.28   22.92 
  -4   0   8  112.70    8.45 
   0  -4   8  144.06    9.91 
   0   4  -8   63.34    6.72 
   0   4   8   -1.01    5.27 
   4   0  -8  124.51   13.33 
   4   0   8   91.03    7.31 
  -4   0  -9   22.65   14.31 
  -4   0   9    0.93    5.51 
   0  -4   9    2.40    6.22 
   0   4  -9    6.30    4.81 
   0   4   9    3.31    5.10 
   4   0  -9    7.10    5.37 
   4   0   9    2.92    4.65 
  -4  -1   0    0.30    1.71 
  -4  -1   0    1.53    1.29 
  -1   4   0   19.89   31.99 
   1  -4   0   -0.58    1.74 
   1  -4   0    0.55    1.58 
   4   1   0    6.47    4.71 
  -4  -1  -1    7.06    1.89 
  -4  -1  -1    6.78    1.69 
  -4  -1   1    9.10    1.96 
  -1   4  -1   15.59   18.10 
  -1   4   1    3.78   23.69 
   1  -4  -1    6.59    1.98 
   1  -4  -1    7.40    1.93 
   1  -4   1    8.51    2.30 
   1  -4   1    9.73    1.96 
   4   1  -1    6.84    4.36 
   4   1   1    9.41    5.75 
  -4  -1  -2   26.58    2.58 
  -4  -1  -2   24.82    2.59 
  -4  -1   2   27.88    3.34 
  -1   4  -2   19.77   10.70 
  -1   4   2   27.59   19.88 
   1  -4  -2   26.66    2.95 
   1  -4  -2   28.45    3.17 
   1  -4   2   38.03    3.82 
   1  -4   2   27.72    3.06 
   4   1  -2   38.40    5.55 
   4   1   2   42.13    8.35 
  -4  -1  -3    9.27    2.10 
  -4  -1  -3    7.94    2.47 
  -4  -1   3    7.51    2.25 
  -1   4  -3    9.45    2.22 
  -1   4  -3    3.71    8.28 
  -1   4   3   -5.72   15.14 
   1  -4  -3    9.21    2.34 
   1  -4   3   10.10    3.25 
   4   1  -3    7.65    7.08 
   4   1  -3    9.38    4.07 
   4   1   3   10.43    7.89 
  -4  -1  -4   31.21    3.55 
  -4  -1  -4   35.78    3.96 
  -4  -1   4   37.19    4.18 
  -1   4  -4   29.79    3.51 
  -1   4   4   13.25   14.98 
   1  -4  -4   34.11    3.82 
   1  -4   4   49.05    5.74 
   4   1  -4   48.60   10.83 
   4   1  -4   32.68    4.90 
   4   1   4   54.95   12.67 
  -4  -1  -5   76.30    6.17 
  -4  -1   5   85.10    5.30 
  -1   4  -5   57.38    4.28 
  -1   4   5   19.43   14.16 
   1  -4  -5   72.78    4.93 
   1  -4   5  101.67    7.44 
   4   1  -5  138.78   16.47 
   4   1  -5   60.06    5.87 
   4   1   5   69.68    4.60 
   4   1   5  110.68   17.08 
  -4  -1  -6   -0.70    4.52 
  -4  -1   6    4.04    3.11 
  -1   4  -6    2.72    2.62 
  -1   4   6   -0.35   10.27 
   1  -4  -6    3.65    3.02 
   1  -4   6    3.62    4.76 
   4   1  -6   -1.84    8.28 
   4   1   6    5.12    2.87 
   4   1   6   -2.91    6.91 
  -4  -1  -7  124.40   11.38 
  -4  -1   7  107.49    7.64 
  -1   4  -7   75.67    5.58 
  -1   4   7    9.39    8.97 
   1  -4  -7   99.44    6.86 
   1  -4   7  160.62   11.25 
   4   1  -7  122.31   10.38 
   4   1   7   97.89    6.32 
   4   1   7   73.94    8.42 
  -4  -1  -8   20.27    9.04 
  -4  -1   8   19.33    5.44 
  -1   4  -8   11.58    3.93 
  -1   4   8    2.12    7.47 
   1  -4  -8   19.60    5.14 
   1  -4   8   31.23    8.49 
   4   1  -8   22.84    5.58 
   4   1   8   13.80    4.24 
  -4  -1  -9   88.53   15.21 
  -4  -1   9   62.46    8.07 
  -1   4  -9   25.52    5.06 
  -1   4   9   -2.05    6.45 
   1  -4  -9   65.08    8.23 
   4   1  -9   50.83    6.35 
   4   1   9   45.37    6.15 
  -4  -2   0  772.89    8.48 
  -4  -2   0  658.01    7.65 
  -2   4   0  540.90   33.36 
   2  -4   0  746.62    9.14 
   4   2   0  793.28   16.85 
  -4  -2  -1    4.93    2.10 
  -4  -2  -1   10.96    2.14 
  -4  -2   1   38.05    2.79 
  -2   4  -1   14.09   22.03 
  -2   4   1   14.99   14.58 
   2  -4   1    8.54    2.20 
   4   2  -1   35.04    5.77 
   4   2   1   23.45    7.31 
  -4  -2  -2   14.74    2.37 
  -4  -2  -2   15.50    2.55 
  -4  -2   2   19.19    2.58 
  -2   4  -2   17.21   16.66 
  -2   4   2   17.79   12.63 
   2  -4  -2   13.97    2.55 
   2  -4   2   27.19    5.19 
   2  -4   2   20.00    2.56 
   4   2  -2   22.94    5.05 
   4   2   2   22.57    8.50 
  -4  -2  -3   87.91    4.18 
  -4  -2  -3   87.11    4.60 
  -4  -2   3  101.79    4.88 
  -2   4  -3   84.90   10.84 
  -2   4   3   36.56   12.88 
   2  -4  -3   84.77    4.64 
   2  -4   3  129.99    9.07 
   2  -4   3   92.73    4.28 
   4   2  -3   91.22    6.93 
   4   2   3   89.44   12.12 
  -4  -2  -4  267.96    6.05 
  -4  -2  -4  287.77    7.46 
  -4  -2   4  326.16    7.49 
  -2   4  -4  239.82    5.94 
  -2   4   4   90.66   14.44 
   2  -4  -4  267.48    7.20 
   2  -4   4  459.53   14.99 
   4   2  -4  237.15    8.22 
   4   2   4  300.51   20.36 
  -4  -2  -5   33.78    4.04 
  -4  -2  -5   36.98    4.65 
  -4  -2   5   40.87    4.27 
  -2   4  -5   34.97    3.92 
  -2   4   5    2.04   10.06 
   2  -4  -5   35.40    4.14 
   2  -4   5   83.94   10.60 
   4   2  -5   42.57    7.29 
   4   2   5   63.14   17.03 
  -4  -2  -6  206.68    8.84 
  -4  -2   6  232.24    8.68 
  -2   4  -6  150.16    5.83 
  -2   4   6   25.39   11.12 
   2  -4  -6  186.69    7.70 
   2  -4   6  373.04   18.22 
   4   2  -6  188.93   10.41 
   4   2   6  190.62    6.64 
   4   2   6  101.97   11.98 
  -4  -2  -7   19.37    5.80 
  -4  -2   7   19.12    5.21 
  -2   4  -7    9.69    3.14 
  -2   4   7   -1.64    9.96 
   2  -4  -7   15.94    4.42 
   2  -4   7   24.87   10.74 
   4   2  -7   19.71    5.39 
   4   2   7   16.91    3.84 
   4   2   7   16.06    6.01 
  -4  -2  -8  100.87   11.04 
  -4  -2   8  103.28   10.41 
  -2   4  -8   53.28    5.69 
  -2   4   8    5.93   10.43 
   2  -4  -8   89.93    8.54 
   2  -4   8  184.52   20.73 
   4   2  -8   75.72    7.93 
   4   2   8   78.30    7.20 
   4   2   8   40.39    6.33 
  -2   4   9    1.78    9.22 
   4   2   9    0.26    4.70 
  -4  -3   0   -0.45    1.89 
  -3   4   0    4.32   13.06 
   3  -4   0    1.35    2.09 
   4   3   0    3.48    5.98 
  -4  -3  -1    6.23    2.33 
  -4  -3   1    4.31    2.16 
  -3   4  -1   -7.74   13.67 
  -3   4   1    4.03   12.25 
   3  -4  -1    5.57    2.41 
   3  -4   1    8.11    2.42 
   4   3  -1    7.09    5.38 
   4   3   1    5.29    7.34 
  -4  -3  -2   22.54    3.11 
  -4  -3   2   23.06    2.84 
  -3   4  -2   27.04   17.16 
  -3   4   2   14.38   11.95 
   3  -4  -2   23.71    3.22 
   3  -4   2   25.79    3.01 
   4   3  -2   22.09    5.45 
   4   3   2   19.69    9.09 
  -4  -3  -3    7.39    2.75 
  -4  -3   3    6.01    2.24 
  -3   4  -3    8.35    9.63 
  -3   4   3   -1.82   10.07 
   3  -4  -3    7.31    2.74 
   3  -4   3    6.36    2.36 
   4   3  -3    8.28    4.56 
   4   3   3    0.92    9.34 
  -4  -3  -4   28.18    3.89 
  -3   4   4   18.31   10.64 
   3  -4  -4   24.54    3.70 
   4   3   4   23.07   12.79 
  -4  -3  -5   47.12    5.54 
  -3   4  -5   42.82    4.11 
  -3   4   5   28.66   10.52 
   3  -4  -5   50.33    5.41 
   4   3   5   36.52   12.76 
  -4  -3  -6    1.40    3.76 
  -3   4   6   -1.48    9.55 
   3  -4  -6    0.26    3.39 
   4   3  -6    1.29    5.14 
   4   3   6    5.26    6.88 
  -3   4  -7   63.18   10.28 
  -3   4   7   23.63   10.38 
   4   3  -7   64.93    7.81 
   4   3   7   42.18    7.85 
  -4  -4   0  502.27    8.89 
  -4   4   0  349.53   25.41 
   4  -4   0  486.07    8.65 
   4   4   0  473.36   16.95 
  -4  -4  -1    8.69    2.84 
  -4   4  -1    8.39   15.35 
  -4   4   1   26.39   13.56 
   4  -4   1    5.99    2.62 
   4   4  -1    9.84    6.26 
   4   4   1    4.60    8.13 
  -4  -4  -2   11.55    3.10 
  -4  -4   2   10.39    2.87 
  -4   4  -2   13.21   16.47 
  -4   4   2    4.67   11.33 
   4  -4  -2    9.55    3.05 
   4   4  -2    8.46    5.60 
   4   4   2    7.07    9.92 
  -4  -4  -3   58.77    5.08 
  -4  -4   3   67.44    4.72 
  -4   4  -3   30.40   15.95 
  -4   4   3   46.87   12.91 
   4  -4  -3   67.98    5.44 
   4   4   3   55.64   14.21 
  -4  -4   4  193.09    6.45 
  -5   3   0    3.22    2.63 
  -3  -5   0   -0.47    2.56 
   3   5   0    3.83    8.67 
   5  -3   0   11.68   13.59 
  -5   3   1   18.21    3.25 
  -3  -5  -1   20.98    4.05 
  -3  -5   1   25.93    3.71 
   3   5  -1   26.10    8.36 
   3   5   1    9.17   10.38 
   5  -3   1   45.20   15.93 
  -5   3  -2  320.04    7.88 
  -5   3   2  357.44    8.42 
   3   5   2  198.03   23.99 
   5  -3   2  580.24   33.67 
  -5   3  -3   24.10    3.49 
   5  -3   3   57.65   22.41 
  -5   3  -4   53.12    5.36 
  -5   3   4   66.68    6.89 
   5  -3  -4   53.80    5.87 
   5  -3   4   97.36   22.71 
  -5   2   0    0.36    2.41 
  -2  -5   0    1.56    2.45 
   2   5   0    0.22   10.33 
   5  -2   0    4.75    9.98 
  -5   2  -1    4.75    2.49 
  -5   2   1    3.49    2.47 
  -2  -5  -1    6.11    2.66 
  -2  -5   1    7.35    2.67 
   2   5  -1    6.77    3.51 
   2   5  -1   -0.18    8.50 
   2   5   1   -5.25   12.49 
   5  -2  -1   -0.48    8.80 
   5  -2   1   12.35   10.63 
  -5   2  -2   16.39    2.87 
  -5   2   2   19.74    3.17 
  -2  -5  -2   20.56    3.25 
  -2  -5   2   27.01    3.53 
   2   5  -2   16.32    4.17 
   2   5   2   -2.20   15.78 
   5  -2  -2   30.21   10.17 
   5  -2   2   43.77   13.27 
  -5   2  -3    5.48    2.59 
  -5   2   3    5.95    2.80 
  -2  -5  -3    6.46    2.78 
  -2  -5   3    9.91    3.07 
   2   5  -3    5.19    3.93 
   2   5   3  -17.10   21.30 
   5  -2  -3   11.58    9.05 
   5  -2   3   16.92   14.73 
  -5   2  -4   22.94    3.35 
  -5   2   4   21.63    3.59 
  -2  -5  -4   25.42    3.76 
  -2  -5   4   29.83    4.03 
   2   5  -4   23.30    5.26 
   2   5   4   -8.81    9.77 
   5  -2  -4   20.34    3.95 
   5  -2  -4   30.89    9.57 
   5  -2   4   59.75   18.93 
  -5   2  -5   49.80    5.24 
  -5   2   5   52.52    6.11 
  -2  -5  -5   48.60    5.22 
  -2  -5   5   54.54    5.97 
   2   5  -5   38.58    6.44 
   5  -2  -5   51.61    5.79 
   5  -2  -5   57.31   10.51 
   5  -2   5   64.57   14.22 
  -5   2   6   -5.87    8.00 
   5  -2  -6    3.42    4.48 
  -5   1   0    1.03    2.26 
  -1  -5   0    3.64    2.30 
   1   5   0    1.27    2.37 
   1   5   0    4.00   13.40 
   5  -1   0   10.78    7.35 
  -5   1  -1   20.37    2.93 
  -5   1   1   22.71    3.04 
  -1  -5  -1   23.70    3.11 
  -1  -5   1   27.55    3.39 
   1   5  -1   20.64    3.32 
   1   5  -1    6.34   10.91 
   1   5   1   -4.54   17.20 
   5  -1  -1   25.93    7.65 
   5  -1   1   31.47    9.67 
  -5   1  -2  405.11    7.91 
  -5   1   2  446.56    8.23 
  -1  -5  -2  474.77    8.80 
  -1  -5  -2  493.75    9.15 
  -1  -5   2  530.19    9.51 
   1   5  -2  425.78    9.26 
   1   5  -2  145.54   14.63 
   1   5   2  119.35   29.10 
   5  -1  -2  478.03   15.71 
   5  -1   2  620.31   22.12 
  -5   1  -3   35.56    4.37 
  -5   1   3   42.06    4.61 
  -1  -5  -3   36.38    4.01 
  -1  -5  -3   39.16    4.47 
  -1  -5   3   45.22    4.60 
   1   5  -3   40.06    4.51 
   1   5   3   10.89   11.52 
   5  -1  -3   51.78    8.30 
   5  -1   3   73.55   14.04 
  -5   1  -4   63.26    5.00 
  -5   1   4   86.81    5.51 
  -1  -5  -4   81.79    5.01 
  -1  -5   4   96.25    5.78 
   1   5  -4   65.44    5.89 
   1   5   4    9.12    8.24 
   5  -1  -4   93.63   10.03 
   5  -1   4  149.17   19.46 
  -5   1  -5   54.92    5.08 
  -5   1   5   61.88    5.76 
  -1  -5  -5   50.91    4.85 
  -1  -5   5   73.45    5.89 
   1   5  -5   50.71    5.44 
   1   5   5   10.08    7.31 
   5  -1  -5   61.74    6.41 
   5  -1  -5   60.39    8.93 
   5  -1   5   91.77   18.74 
  -5   1  -6   81.98    5.94 
  -5   1   6  104.28    7.04 
  -1  -5  -6   93.58    6.08 
  -1  -5   6  124.79    7.32 
   1   5  -6   64.58    6.77 
   1   5   6   18.97    7.15 
   5  -1  -6   99.23    9.45 
   5  -1  -6   96.08   11.24 
   5  -1   6   93.98   12.21 
  -1  -5  -7    0.67    3.46 
   5  -1  -7    5.48    6.80 
  -5   0   0    1.02    2.23 
   0  -5   0    0.99    2.26 
   0  -5   0    1.69    2.19 
   0   5   0   -5.91   21.81 
   5   0   0    9.18    6.56 
  -5   0  -1    4.60    2.30 
  -5   0   1    4.94    2.36 
   0  -5  -1    7.22    2.59 
   0  -5  -1    6.13    2.44 
   0  -5   1    8.40    2.76 
   0   5  -1    4.92   16.25 
   0   5   1   -2.50   34.13 
   5   0  -1    5.04    5.71 
   5   0   1   11.83    7.68 
  -5   0  -2   18.36    2.80 
  -5   0   2   25.28    3.17 
   0  -5  -2   23.28    3.15 
   0  -5  -2   24.90    3.25 
   0  -5   2   28.80    3.63 
   0   5  -2   20.71    3.22 
   0   5  -2   -1.69   11.89 
   0   5   2   -9.85   13.08 
   5   0  -2   26.20    6.50 
   5   0   2   35.95    9.87 
  -5   0  -3    7.03    2.42 
  -5   0   3    5.87    2.70 
   0  -5  -3    7.20    2.54 
   0  -5  -3    8.19    2.77 
   0  -5   3    5.45    2.94 
   0   5  -3    7.51    2.71 
   0   5   3    8.84   10.23 
   5   0  -3    4.91    5.45 
   5   0   3    5.01    9.38 
  -5   0  -4   26.81    3.28 
  -5   0   4   27.59    3.62 
   0  -5  -4   29.31    3.63 
   0  -5  -4   25.97    3.70 
   0  -5   4   36.54    4.62 
   0   5  -4   26.16    3.75 
   0   5   4    3.27    8.45 
   5   0  -4   23.95    6.31 
   5   0   4   44.62   13.14 
  -5   0  -5   47.29    4.93 
  -5   0   5   54.50    5.51 
   0  -5  -5   60.93    5.37 
   0  -5   5   80.54    6.62 
   0   5  -5   49.64    5.19 
   0   5   5    3.54    7.77 
   5   0  -5   58.98    7.60 
   5   0   5   76.81   17.01 
  -5   0  -6    0.58    2.83 
  -5   0   6    0.71    3.39 
   0  -5  -6    1.34    3.36 
   0  -5   6    1.03    4.01 
   0   5  -6   -0.23    3.14 
   0   5   6   -3.56    6.96 
   5   0  -6   -1.33    7.07 
   5   0   6   -3.83    8.11 
  -5   0  -7   86.61   10.31 
   5   0  -7  102.41   13.56 
  -5  -1   0    2.73    2.23 
  -1   5   0   26.97   63.25 
   1  -5   0    2.40    2.52 
   1  -5   0    3.37    2.17 
   5   1   0    6.80    6.23 
  -5  -1  -1   16.91    2.81 
  -5  -1   1   20.74    2.92 
  -1   5  -1   13.29   32.23 
  -1   5   1    5.67   29.85 
   1  -5  -1   29.89    3.37 
   1  -5   1   23.37    3.67 
   1  -5   1   22.48    2.99 
   5   1  -1   29.50    6.66 
   5   1   1   37.75    8.90 
  -5  -1  -2  426.82    7.97 
  -5  -1   2  459.60    8.36 
  -1   5  -2    0.85   20.79 
  -1   5   2   -7.73   20.61 
   1  -5  -2  464.35    8.74 
   1  -5   2  574.58   11.18 
   1  -5   2  509.40    8.96 
   5   1  -2  443.46   13.19 
   5   1   2  564.13   20.01 
  -5  -1  -3   32.53    3.39 
  -5  -1   3   42.74    4.72 
  -1   5  -3   36.28    4.16 
  -1   5   3    4.01   15.92 
   1  -5  -3   33.64    4.17 
   1  -5   3   53.30    6.04 
   5   1  -3   34.64    6.28 
   5   1   3   41.38   11.26 
  -5  -1  -4   67.13    5.03 
  -5  -1   4   89.61    5.64 
  -1   5  -4   72.11    4.94 
  -1   5   4   -0.99   12.14 
   1  -5  -4   82.53    5.39 
   1  -5   4  115.41    7.75 
   5   1  -4   70.83    7.77 
   5   1   4  100.70   16.21 
  -5  -1  -5   55.89    5.09 
  -5  -1  -5   61.87    6.34 
  -5  -1   5   61.04    5.88 
  -1   5  -5   50.24    4.97 
  -1   5   5   11.65   10.77 
   1  -5  -5   59.43    5.58 
   1  -5   5   90.49    8.21 
   5   1   5   88.41   18.79 
  -5  -1  -6   90.96    6.05 
  -5  -1  -6  103.72    7.93 
  -5  -1   6  106.72    7.14 
  -1   5  -6   75.20    5.79 
  -1   5   6    1.37    9.63 
   1  -5  -6  109.73    7.12 
   1  -5   6  150.65   10.41 
   5   1   6   93.47   13.67 
  -5  -1  -7    7.15    6.05 
   1  -5  -7   -2.28    4.14 
   5   1   7    4.16    6.50 
  -5  -2   0    2.23    2.44 
  -2   5   0    9.52   30.55 
   2  -5   0    1.17    2.21 
   5   2   0    7.13    6.63 
  -5  -2  -1    3.88    2.41 
  -5  -2   1    3.17    2.54 
  -2   5  -1   15.13   29.86 
  -2   5   1  -11.51   20.61 
   2  -5  -1    4.96    2.48 
   2  -5   1    6.96    2.45 
   5   2  -1    5.11    5.88 
   5   2   1    4.97    7.20 
  -5  -2  -2   15.49    2.87 
  -5  -2   2   20.49    3.25 
  -2   5  -2    5.26   13.44 
  -2   5   2    7.17   17.48 
   2  -5  -2   18.86    3.13 
   2  -5   2   26.76    3.39 
   5   2  -2   22.59    6.07 
   5   2   2   12.88    8.77 
  -5  -2  -3    4.45    2.61 
  -5  -2  -3    4.51    2.75 
  -5  -2   3    4.80    2.91 
  -2   5   3    4.98   15.81 
   2  -5  -3    6.13    2.72 
   5   2  -3    6.94    5.08 
   5   2   3    3.54    9.76 
  -5  -2  -4   22.86    3.39 
  -5  -2  -4   22.41    3.81 
  -5  -2   4   25.12    3.94 
  -2   5  -4   18.25    3.30 
  -2   5   4    2.29   14.84 
   2  -5  -4   26.33    3.98 
   2  -5   4   43.15    8.22 
   5   2   4   20.98   12.91 
  -5  -2  -5   45.19    5.00 
  -5  -2  -5   48.42    5.90 
  -5  -2   5   56.47    5.28 
  -2   5  -5   41.81    4.85 
   2  -5  -5   44.17    5.10 
   2  -5   5   94.93   11.05 
   5   2   5   77.25   18.37 
  -5  -2  -6    3.16    3.10 
  -5  -2   6    0.20    4.07 
   2  -5   6    5.64    8.15 
  -3   5   0    8.63   17.49 
   3  -5   0    2.27    2.61 
   5   3   0   -0.30    6.54 
  -5  -3  -1   15.81    3.03 
  -3   5  -1   29.81   21.46 
  -3   5   1    2.39   15.39 
   3  -5  -1   18.49    3.36 
   3  -5   1   36.83    4.51 
   5   3  -1   20.93    6.92 
   5   3   1   17.85    8.80 
  -5  -3  -2  322.15    7.73 
  -3   5  -2  203.71   22.25 
   3  -5   2  377.54    8.38 
   5   3  -2  316.36   12.46 
  -5  -3  -3   30.64    4.07 
   3  -5   3   34.79    3.97 
   1   6   0    1.72    3.39 
   1   6   0   -6.58   15.31 
   1   6   1    5.64    3.52 
   0  -6   0  503.33   10.88 
   0   6   0   20.87   22.94 
   0  -6  -1    9.72    3.49 
   0  -6   1    1.85    3.32 
   0   6  -1   -7.39   16.65 
  -1   6  -1  -19.22   25.42 
   0   0   0    0.00    0.00 
;
_shelx_hkl_checksum              51833
loop_
_space_group_symop_operation_xyz
'x, y, z'
'-x+1/2, -y+1/2, z'
'-y+1/2, x, z'
'y, -x+1/2, z'
'-x, y+1/2, -z'
'x+1/2, -y, -z'
'y+1/2, x+1/2, -z'
'-y, -x, -z'
'-x, -y, -z'
'x-1/2, y-1/2, -z'
'y-1/2, -x, -z'
'-y, x-1/2, -z'
'x, -y-1/2, z'
'-x-1/2, y, z'
'-y-1/2, -x-1/2, z'
'y, x, z'
loop_
_atom_site_label
_atom_site_type_symbol
_atom_site_fract_x
_atom_site_fract_y
_atom_site_fract_z
_atom_site_U_iso_or_equiv
_atom_site_adp_type
_atom_site_occupancy
_atom_site_site_symmetry_order
_atom_site_calc_flag
_atom_site_refinement_flags_posn
_atom_site_refinement_flags_adp
_atom_site_refinement_flags_occupancy
_atom_site_disorder_assembly
_atom_site_disorder_group
Bi1 Bi 0.2500 0.2500 0.8180(2) 0.0111(8) Uani 1 8 d S T P . .
La2 La -0.2500 -0.2500 0.7622(3) 0.0083(8) Uani 1 8 d S T P . .
Bi3 Bi 0.7500 0.2500 0.5000 0.0096(7) Uani 1 8 d S T P . .
Au4 Au 0.7500 0.2500 0.0000 0.0124(7) Uani 1 8 d S T P . .
loop_
_atom_site_aniso_label
_atom_site_aniso_U_11
_atom_site_aniso_U_22
_atom_site_aniso_U_33
_atom_site_aniso_U_23
_atom_site_aniso_U_13
_atom_site_aniso_U_12
Bi1 0.0063(8) 0.0063(8) 0.0209(15) 0.000 0.000 0.000
La2 0.0060(9) 0.0060(9) 0.0128(18) 0.000 0.000 0.000
Bi3 0.0067(8) 0.0067(8) 0.0155(12) 0.000 0.000 0.000
Au4 0.0105(8) 0.0105(8) 0.0162(14) 0.000 0.000 0.000
loop_
_atom_type_symbol
_atom_type_description
_atom_type_scat_dispersion_real
_atom_type_scat_dispersion_imag
_atom_type_scat_source
La La -0.2871 2.4523 'International Tables Vol C Tables 4.2.6.8 and 6.1.1.4'
Au Au -2.0133 8.8022 'International Tables Vol C Tables 4.2.6.8 and 6.1.1.4'
Bi Bi -4.1077 10.2566 'International Tables Vol C Tables 4.2.6.8 and 6.1.1.4'
loop_
_geom_angle_atom_site_label_1
_geom_angle_atom_site_label_2
_geom_angle_atom_site_label_3
_geom_angle
_geom_angle_site_symmetry_1
_geom_angle_site_symmetry_3
Au4 Bi1 Au4 67.70(5) 9_666 1_556
Au4 Bi1 Au4 103.94(9) 9_666 9_656
Au4 Bi1 Au4 67.70(5) 1_556 9_656
Au4 Bi1 Au4 67.70(5) 9_666 1_456
Au4 Bi1 Au4 103.94(9) 1_556 1_456
Au4 Bi1 Au4 67.70(5) 9_656 1_456
Au4 Bi1 La2 63.50(5) 9_666 1_665
Au4 Bi1 La2 63.50(5) 1_556 1_665
Au4 Bi1 La2 130.70(6) 9_656 1_665
Au4 Bi1 La2 130.70(6) 1_456 1_665
Au4 Bi1 La2 63.50(5) 9_666 1_565
Au4 Bi1 La2 130.70(6) 1_556 1_565
Au4 Bi1 La2 130.70(6) 9_656 1_565
Au4 Bi1 La2 63.50(5) 1_456 1_565
La2 Bi1 La2 88.40(2) 1_665 1_565
Au4 Bi1 La2 130.70(6) 9_666 1_655
Au4 Bi1 La2 63.50(5) 1_556 1_655
Au4 Bi1 La2 63.50(5) 9_656 1_655
Au4 Bi1 La2 130.70(6) 1_456 1_655
La2 Bi1 La2 88.40(2) 1_665 1_655
La2 Bi1 La2 160.75(14) 1_565 1_655
Au4 Bi1 La2 130.70(6) 9_666 .
Au4 Bi1 La2 130.70(6) 1_556 .
Au4 Bi1 La2 63.50(5) 9_656 .
Au4 Bi1 La2 63.50(5) 1_456 .
La2 Bi1 La2 160.75(14) 1_665 .
La2 Bi1 La2 88.40(2) 1_565 .
La2 Bi1 La2 88.40(2) 1_655 .
Au4 La2 Au4 59.28(6) 9_656 1_456
Au4 La2 Au4 88.76(10) 9_656 9_556
Au4 La2 Au4 59.28(6) 1_456 9_556
Au4 La2 Au4 59.28(6) 9_656 1_446
Au4 La2 Au4 88.76(10) 1_456 1_446
Au4 La2 Au4 59.28(6) 9_556 1_446
Au4 La2 Bi1 111.60(9) 9_656 1_445
Au4 La2 Bi1 111.60(9) 1_456 1_445
Au4 La2 Bi1 52.62(4) 9_556 1_445
Au4 La2 Bi1 52.62(4) 1_446 1_445
Au4 La2 Bi1 52.62(4) 9_656 .
Au4 La2 Bi1 52.62(4) 1_456 .
Au4 La2 Bi1 111.60(9) 9_556 .
Au4 La2 Bi1 111.60(9) 1_446 .
Bi1 La2 Bi1 160.75(14) 1_445 .
Au4 La2 Bi1 52.62(4) 9_656 1_545
Au4 La2 Bi1 111.60(9) 1_456 1_545
Au4 La2 Bi1 111.60(9) 9_556 1_545
Au4 La2 Bi1 52.62(4) 1_446 1_545
Bi1 La2 Bi1 88.40(2) 1_445 1_545
Bi1 La2 Bi1 88.40(2) . 1_545
Au4 La2 Bi1 111.60(9) 9_656 1_455
Au4 La2 Bi1 52.62(4) 1_456 1_455
Au4 La2 Bi1 52.62(4) 9_556 1_455
Au4 La2 Bi1 111.60(9) 1_446 1_455
Bi1 La2 Bi1 88.40(2) 1_445 1_455
Bi1 La2 Bi1 88.40(2) . 1_455
Bi1 La2 Bi1 160.75(14) 1_545 1_455
Au4 La2 Bi3 177.20(8) 9_656 9_556
Au4 La2 Bi3 122.32(3) 1_456 9_556
Au4 La2 Bi3 94.04(5) 9_556 9_556
Au4 La2 Bi3 122.32(3) 1_446 9_556
Bi1 La2 Bi3 70.27(5) 1_445 9_556
Bi1 La2 Bi3 126.00(7) . 9_556
Bi1 La2 Bi3 126.00(7) 1_545 9_556
Bi1 La2 Bi3 70.27(5) 1_455 9_556
Au4 La2 Bi3 122.32(3) 9_656 1_445
Au4 La2 Bi3 177.20(8) 1_456 1_445
Au4 La2 Bi3 122.32(3) 9_556 1_445
Au4 La2 Bi3 94.04(5) 1_446 1_445
Bi1 La2 Bi3 70.27(5) 1_445 1_445
Bi1 La2 Bi3 126.00(7) . 1_445
Bi1 La2 Bi3 70.27(5) 1_545 1_445
Bi1 La2 Bi3 126.00(7) 1_455 1_445
Bi3 La2 Bi3 55.97(5) 9_556 1_445
Au4 La2 Bi3 122.32(3) 9_656 1_455
Au4 La2 Bi3 94.04(5) 1_456 1_455
Au4 La2 Bi3 122.32(3) 9_556 1_455
Au4 La2 Bi3 177.20(8) 1_446 1_455
Bi1 La2 Bi3 126.00(7) 1_445 1_455
Bi1 La2 Bi3 70.27(5) . 1_455
Bi1 La2 Bi3 126.00(7) 1_545 1_455
Bi1 La2 Bi3 70.27(5) 1_455 1_455
Bi3 La2 Bi3 55.97(5) 9_556 1_455
Bi3 La2 Bi3 83.16(9) 1_445 1_455
Au4 La2 Bi3 94.04(5) 9_656 9_656
Au4 La2 Bi3 122.32(3) 1_456 9_656
Au4 La2 Bi3 177.20(8) 9_556 9_656
Au4 La2 Bi3 122.32(3) 1_446 9_656
Bi1 La2 Bi3 126.00(7) 1_445 9_656
Bi1 La2 Bi3 70.27(5) . 9_656
Bi1 La2 Bi3 70.27(5) 1_545 9_656
Bi1 La2 Bi3 126.00(7) 1_455 9_656
Bi3 La2 Bi3 83.16(9) 9_556 9_656
Bi3 La2 Bi3 55.97(5) 1_445 9_656
Bi3 La2 Bi3 55.97(5) 1_455 9_656
Bi3 Bi3 Bi3 180.0 9_766 9_656
Bi3 Bi3 Bi3 90.0 9_766 9_666
Bi3 Bi3 Bi3 90.0 9_656 9_666
Bi3 Bi3 Bi3 90.0 9_766 9_756
Bi3 Bi3 Bi3 90.0 9_656 9_756
Bi3 Bi3 Bi3 180.0 9_666 9_756
Bi3 Bi3 La2 117.99(3) 9_766 9_556
Bi3 Bi3 La2 62.01(3) 9_656 9_556
Bi3 Bi3 La2 62.01(3) 9_666 9_556
Bi3 Bi3 La2 117.99(3) 9_756 9_556
Bi3 Bi3 La2 62.01(3) 9_766 1_665
Bi3 Bi3 La2 117.99(3) 9_656 1_665
Bi3 Bi3 La2 62.01(3) 9_666 1_665
Bi3 Bi3 La2 117.99(3) 9_756 1_665
La2 Bi3 La2 124.03(5) 9_556 1_665
Bi3 Bi3 La2 117.99(3) 9_766 1_655
Bi3 Bi3 La2 62.01(3) 9_656 1_655
Bi3 Bi3 La2 117.99(3) 9_666 1_655
Bi3 Bi3 La2 62.01(3) 9_756 1_655
La2 Bi3 La2 124.03(5) 9_556 1_655
La2 Bi3 La2 83.16(9) 1_665 1_655
Bi3 Bi3 La2 62.01(3) 9_766 9_656
Bi3 Bi3 La2 117.99(3) 9_656 9_656
Bi3 Bi3 La2 117.99(3) 9_666 9_656
Bi3 Bi3 La2 62.01(3) 9_756 9_656
La2 Bi3 La2 83.16(9) 9_556 9_656
La2 Bi3 La2 124.03(5) 1_665 9_656
La2 Bi3 La2 124.03(5) 1_655 9_656
Bi1 Au4 Bi1 112.30(5) 9_666 1_554
Bi1 Au4 Bi1 112.30(5) 9_666 1_654
Bi1 Au4 Bi1 103.94(9) 1_554 1_654
Bi1 Au4 Bi1 103.94(9) 9_666 9_656
Bi1 Au4 Bi1 112.30(5) 1_554 9_656
Bi1 Au4 Bi1 112.30(5) 1_654 9_656
Bi1 Au4 Au4 56.15(2) 9_666 9_765
Bi1 Au4 Au4 123.85(2) 1_554 9_765
Bi1 Au4 Au4 56.15(2) 1_654 9_765
Bi1 Au4 Au4 123.85(2) 9_656 9_765
Bi1 Au4 Au4 123.85(2) 9_666 9_655
Bi1 Au4 Au4 56.15(2) 1_554 9_655
Bi1 Au4 Au4 123.85(2) 1_654 9_655
Bi1 Au4 Au4 56.15(2) 9_656 9_655
Au4 Au4 Au4 180.0 9_765 9_655
Bi1 Au4 Au4 56.15(2) 9_666 9_665
Bi1 Au4 Au4 56.15(2) 1_554 9_665
Bi1 Au4 Au4 123.85(2) 1_654 9_665
Bi1 Au4 Au4 123.85(2) 9_656 9_665
Au4 Au4 Au4 90.0 9_765 9_665
Au4 Au4 Au4 90.0 9_655 9_665
Bi1 Au4 Au4 123.85(2) 9_666 9_755
Bi1 Au4 Au4 123.85(2) 1_554 9_755
Bi1 Au4 Au4 56.15(2) 1_654 9_755
Bi1 Au4 Au4 56.15(2) 9_656 9_755
Au4 Au4 Au4 90.0 9_765 9_755
Au4 Au4 Au4 90.0 9_655 9_755
Au4 Au4 Au4 180.0 9_665 9_755
Bi1 Au4 La2 172.41(5) 9_666 1_654
Bi1 Au4 La2 63.88(4) 1_554 1_654
Bi1 Au4 La2 63.88(4) 1_654 1_654
Bi1 Au4 La2 83.65(7) 9_656 1_654
Au4 Au4 La2 119.64(3) 9_765 1_654
Au4 Au4 La2 60.36(3) 9_655 1_654
Au4 Au4 La2 119.64(3) 9_665 1_654
Au4 Au4 La2 60.36(3) 9_755 1_654
Bi1 Au4 La2 63.88(4) 9_666 9_656
Bi1 Au4 La2 172.41(5) 1_554 9_656
Bi1 Au4 La2 83.65(7) 1_654 9_656
Bi1 Au4 La2 63.88(4) 9_656 9_656
Au4 Au4 La2 60.36(3) 9_765 9_656
Au4 Au4 La2 119.64(3) 9_655 9_656
Au4 Au4 La2 119.64(3) 9_665 9_656
Au4 Au4 La2 60.36(3) 9_755 9_656
La2 Au4 La2 120.72(6) 1_654 9_656
Bi1 Au4 La2 83.65(7) 9_666 1_664
Bi1 Au4 La2 63.88(4) 1_554 1_664
Bi1 Au4 La2 63.88(4) 1_654 1_664
Bi1 Au4 La2 172.41(5) 9_656 1_664
Au4 Au4 La2 60.36(3) 9_765 1_664
Au4 Au4 La2 119.64(3) 9_655 1_664
Au4 Au4 La2 60.36(3) 9_665 1_664
Au4 Au4 La2 119.64(3) 9_755 1_664
La2 Au4 La2 88.76(10) 1_654 1_664
La2 Au4 La2 120.72(6) 9_656 1_664
Bi1 Au4 La2 63.88(4) 9_666 9_556
Bi1 Au4 La2 83.65(7) 1_554 9_556
Bi1 Au4 La2 172.41(5) 1_654 9_556
Bi1 Au4 La2 63.88(4) 9_656 9_556
Au4 Au4 La2 119.64(3) 9_765 9_556
Au4 Au4 La2 60.36(3) 9_655 9_556
Au4 Au4 La2 60.36(3) 9_665 9_556
Au4 Au4 La2 119.64(3) 9_755 9_556
La2 Au4 La2 120.72(6) 1_654 9_556
La2 Au4 La2 88.76(10) 9_656 9_556
La2 Au4 La2 120.72(6) 1_664 9_556
loop_
_geom_bond_atom_site_label_1
_geom_bond_atom_site_label_2
_geom_bond_distance
_geom_bond_site_symmetry_2
Bi1 Au4 2.9346(19) 9_666
Bi1 Au4 2.9346(19) 1_556
Bi1 Au4 2.9346(19) 9_656
Bi1 Au4 2.9346(19) 1_456
Bi1 La2 3.316(2) 1_665
Bi1 La2 3.316(2) 1_565
Bi1 La2 3.316(2) 1_655
Bi1 La2 3.316(2) .
La2 Au4 3.305(3) 9_656
La2 Au4 3.305(3) 1_456
La2 Au4 3.305(3) 9_556
La2 Au4 3.305(3) 1_446
La2 Bi1 3.316(2) 1_445
La2 Bi1 3.316(2) 1_545
La2 Bi1 3.316(2) 1_455
La2 Bi3 3.483(3) 9_556
La2 Bi3 3.483(3) 1_445
La2 Bi3 3.483(3) 1_455
La2 Bi3 3.483(3) 9_656
Bi3 Bi3 3.269(2) 9_766
Bi3 Bi3 3.269(2) 9_656
Bi3 Bi3 3.269(2) 9_666
Bi3 Bi3 3.269(2) 9_756
Bi3 La2 3.483(3) 9_556
Bi3 La2 3.483(3) 1_665
Bi3 La2 3.483(3) 1_655
Bi3 La2 3.483(3) 9_656
Au4 Bi1 2.9347(19) 9_666
Au4 Bi1 2.9347(19) 1_554
Au4 Bi1 2.9347(19) 1_654
Au4 Bi1 2.9347(19) 9_656
Au4 Au4 3.269(2) 9_765
Au4 Au4 3.269(2) 9_655
Au4 Au4 3.269(2) 9_665
Au4 Au4 3.269(2) 9_755
Au4 La2 3.305(3) 1_654
Au4 La2 3.305(3) 9_656
Au4 La2 3.305(3) 1_664
Au4 La2 3.305(3) 9_556
