#------------------------------------------------------------------------------
#$Date: 2021-04-14 13:23:20 +0300 (Wed, 14 Apr 2021) $
#$Revision: 264167 $
#$URL: file:///home/coder/svn-repositories/cod/cif/1/56/17/1561772.cif $
#------------------------------------------------------------------------------
#
# This file is available in the Crystallography Open Database (COD),
# http://www.crystallography.net/
#
# All data on this site have been placed in the public domain by the
# contributors.
#
data_1561772
loop_
_publ_author_name
'Bykova, E.'
'Gou, H.'
'Bykov, M.'
'Hanfland, M.'
'Dubrovinsky, L.'
'Dubrovinskaia, N.'
_publ_section_title
;
 Crystal structures and compressibility of novel iron borides Fe2B7 and Fe
 B50 synthesized at high pressure and high temperature
;
_journal_name_full               'Journal of Solid State Chemistry'
_journal_page_first              102
_journal_page_last               109
_journal_paper_doi               10.1016/j.jssc.2015.06.040
_journal_volume                  230
_journal_year                    2015
_chemical_absolute_configuration .
_chemical_formula_moiety         'B50 Fe1.01'
_chemical_formula_sum            'B50 Fe1.01'
_chemical_formula_weight         596.9
_chemical_name_common            'Iron Boron (1.01/50)'
_chemical_name_systematic        'Iron Boron (1.01/50)'
_space_group_IT_number           134
_space_group_name_Hall           '-P 4ac 2bc'
_space_group_name_H-M_alt        'P 42/n n m :2'
_symmetry_cell_setting           tetragonal
_symmetry_Int_Tables_number      134
_symmetry_space_group_name_Hall  '-P 4ac 2bc'
_symmetry_space_group_name_H-M   'P 42/n n m :2'
_cell_angle_alpha                90
_cell_angle_beta                 90
_cell_angle_gamma                90
_cell_formula_units_Z            1
_cell_length_a                   8.6077(5)
_cell_length_b                   8.6077(5)
_cell_length_c                   4.8556(3)
_cell_measurement_reflns_used    265
_cell_measurement_temperature    293
_cell_measurement_theta_max      18.37
_cell_measurement_theta_min      2.81
_cell_volume                     359.76(4)
_computing_cell_refinement
;
CrysAlisPro, Agilent Technologies,
Version 1.171.37.35 (release 13-08-2014 CrysAlis171 .NET)
(compiled Aug 13 2014,18:06:01)
;
_computing_data_collection
;
CrysAlisPro, Agilent Technologies,
Version 1.171.37.35 (release 13-08-2014 CrysAlis171 .NET)
(compiled Aug 13 2014,18:06:01)
;
_computing_data_reduction
;
CrysAlisPro, Agilent Technologies,
Version 1.171.37.35 (release 13-08-2014 CrysAlis171 .NET)
(compiled Aug 13 2014,18:06:01)
;
_computing_structure_refinement  'Jana2006 (Petricek, 2014)'
_computing_structure_solution    'SHELXS-2013 (Sheldrick, 2013)'
_diffrn_ambient_pressure         27600000
_diffrn_ambient_temperature      293
_diffrn_detector                 'MAR555 flatpanel detector'
_diffrn_measured_fraction_theta_full 0.93
_diffrn_measured_fraction_theta_max 0.67
_diffrn_measurement_device
;
customized omega-circle diffractometer
;
_diffrn_measurement_device_type  'ESRF, beamline ID09A diffractometer'
_diffrn_measurement_method       '\w scans'
_diffrn_radiation_monochromator  synchrotron
_diffrn_radiation_probe          x-ray
_diffrn_radiation_source         synchrotron
_diffrn_radiation_type           synchrotron
_diffrn_radiation_wavelength     0.41409
_diffrn_reflns_av_R_equivalents  0.0668
_diffrn_reflns_av_unetI/netI     0.052
_diffrn_reflns_limit_h_max       9
_diffrn_reflns_limit_h_min       -4
_diffrn_reflns_limit_k_max       12
_diffrn_reflns_limit_k_min       -12
_diffrn_reflns_limit_l_max       7
_diffrn_reflns_limit_l_min       -6
_diffrn_reflns_number            632
_diffrn_reflns_theta_full        13.79
_diffrn_reflns_theta_max         19.18
_diffrn_reflns_theta_min         2.76
_diffrn_source                   synchrotron
_exptl_absorpt_coefficient_mu    0.257
_exptl_absorpt_correction_T_max  1
_exptl_absorpt_correction_T_min  0.458
_exptl_absorpt_correction_type   multi-scan
_exptl_absorpt_process_details
;
CrysAlisPro, Agilent Technologies,
Version 1.171.37.35 (release 13-08-2014 CrysAlis171 .NET)
(compiled Aug 13 2014,18:06:01)
Empirical absorption correction using spherical harmonics,
 implemented in SCALE3 ABSPACK scaling algorithm.
;
_exptl_crystal_colour            black
_exptl_crystal_density_diffrn    2.7542
_exptl_crystal_description       plate
_exptl_crystal_F_000             276
_exptl_crystal_size_max          0.020
_exptl_crystal_size_mid          0.020
_exptl_crystal_size_min          0.005
_refine_diff_density_max         0.66
_refine_diff_density_min         -0.56
_refine_ls_extinction_method     none
_refine_ls_goodness_of_fit_gt    2.72
_refine_ls_goodness_of_fit_ref   2.50
_refine_ls_number_constraints    0
_refine_ls_number_parameters     35
_refine_ls_number_reflns         274
_refine_ls_number_restraints     0
_refine_ls_R_factor_all          0.0844
_refine_ls_R_factor_gt           0.0760
_refine_ls_shift/su_max          0.0002
_refine_ls_shift/su_mean         0.0000
_refine_ls_structure_factor_coef Fsqd
_refine_ls_weighting_details     w=1/(\s^2^(I)+0.0004I^2^)
_refine_ls_weighting_scheme      sigma
_refine_ls_wR_factor_gt          0.1527
_refine_ls_wR_factor_ref         0.1561
_reflns_number_gt                228
_reflns_number_total             274
_reflns_threshold_expression     I>2\s(I)
_cod_data_source_file            feb50_27.6GPa.cif
_cod_data_source_block           Fe1.0B50_27.6GPa
_cod_depositor_comments
;
The following automatic conversions were performed:

data item '_diffrn_radiation_probe' value 'X-ray' was changed to
'x-ray' in accordance with the built-in table derived from the CIF
Core dictionary named 'cif_core.dic' version 2.4.5 last updated on
2014-11-21.

Automatic conversion script
Id: cif_fix_values 8369 2020-08-20 11:38:08Z andrius 
;
_cod_original_sg_symbol_H-M      'P 42/n n m'
_cod_database_code               1561772
loop_
_symmetry_equiv_pos_site_id
_symmetry_equiv_pos_as_xyz
1 x,y,z
2 -x+1/2,-y+1/2,z
3 -y+1/2,x,z+1/2
4 y,-x+1/2,z+1/2
5 -x+1/2,y,-z+1/2
6 x,-y+1/2,-z+1/2
7 y,x,-z
8 -y+1/2,-x+1/2,-z
9 -x,-y,-z
10 x+1/2,y+1/2,-z
11 y+1/2,-x,-z+1/2
12 -y,x+1/2,-z+1/2
13 x+1/2,-y,z+1/2
14 -x,y+1/2,z+1/2
15 -y,-x,z
16 y+1/2,x+1/2,z
loop_
_atom_site_label
_atom_site_type_symbol
_atom_site_fract_x
_atom_site_fract_y
_atom_site_fract_z
_atom_site_adp_type
_atom_site_U_iso_or_equiv
_atom_site_site_symmetry_multiplicity
_atom_site_occupancy
_atom_site_calc_flag
_atom_site_refinement_flags
_atom_site_disorder_assembly
_atom_site_disorder_group
Fe1 Fe -0.25 0.25 0.25 Uani 0.0178(6) 2 0.5049 d . . .
B4 B -0.0771(4) -0.1583(4) 0.1494(6) Uani 0.0160(9) 16 1 d . . .
B5 B -0.1687(4) 0.0224(4) 0.1614(6) Uani 0.0151(9) 16 1 d . . .
B2 B 0.1230(4) -0.1230(4) 0.1416(9) Uani 0.0154(10) 8 1 d . . .
B3 B 0.0031(4) -0.0031(4) 0.3341(9) Uani 0.0143(10) 8 1 d . . .
B1 B 0.25 -0.25 0.25 Uani 0.0139(19) 2 1 d . . .
loop_
_atom_site_aniso_label
_atom_site_aniso_type_symbol
_atom_site_aniso_U_11
_atom_site_aniso_U_22
_atom_site_aniso_U_33
_atom_site_aniso_U_12
_atom_site_aniso_U_13
_atom_site_aniso_U_23
Fe1 Fe 0.0108(9) 0.0108(9) 0.0320(13) 0 0 0
B4 B 0.0130(16) 0.0156(17) 0.0194(15) 0.0000(18) 0.0011(10) -0.0028(11)
B5 B 0.0135(16) 0.0156(17) 0.0160(13) 0.002(2) 0.0017(10) -0.0003(10)
B2 B 0.0137(17) 0.0137(17) 0.019(2) -0.001(3) 0.0014(10) -0.0014(10)
B3 B 0.0133(16) 0.0133(16) 0.0162(19) 0.004(3) 0.0018(10) -0.0018(10)
B1 B 0.012(3) 0.012(3) 0.019(4) 0 0 0
loop_
_atom_type_symbol
_atom_type_scat_dispersion_real
_atom_type_scat_dispersion_imag
_atom_type_scat_source
B -0.0003 0.0002 'International Tables Vol C tables 4.2.6.8 and 6.1.1.1'
Fe 0.1991 0.3106 'International Tables Vol C tables 4.2.6.8 and 6.1.1.1'
loop_
_geom_angle_atom_site_label_1
_geom_angle_atom_site_label_2
_geom_angle_atom_site_label_3
_geom_angle_site_symmetry_1
_geom_angle_site_symmetry_2
_geom_angle_site_symmetry_3
_geom_angle
B5 Fe1 B5 . . 2_455 156.63(11)
B5 Fe1 B5 . . 5_455 45.51(12)
B5 Fe1 B5 . . 6_555 141.51(12)
B5 Fe1 B5 . . 11_455 92.35(12)
B5 Fe1 B5 . . 12_555 92.35(12)
B5 Fe1 B5 . . 15_555 49.54(12)
B5 Fe1 B5 . . 16_455 124.53(12)
B5 Fe1 B2 . . 3_455 83.84(11)
B5 Fe1 B2 . . 4_555 114.93(11)
B5 Fe1 B2 . . 7_555 44.31(12)
B5 Fe1 B2 . . 8_455 113.66(12)
B5 Fe1 B1 . . 3_454 78.32(8)
B5 Fe1 B1 . . 3_455 101.68(8)
B5 Fe1 B5 2_455 . 5_455 141.51(12)
B5 Fe1 B5 2_455 . 6_555 45.51(12)
B5 Fe1 B5 2_455 . 11_455 92.35(12)
B5 Fe1 B5 2_455 . 12_555 92.35(12)
B5 Fe1 B5 2_455 . 15_555 124.53(12)
B5 Fe1 B5 2_455 . 16_455 49.54(12)
B5 Fe1 B2 2_455 . 3_455 114.93(11)
B5 Fe1 B2 2_455 . 4_555 83.84(11)
B5 Fe1 B2 2_455 . 7_555 113.66(12)
B5 Fe1 B2 2_455 . 8_455 44.31(12)
B5 Fe1 B1 2_455 . 3_454 78.32(8)
B5 Fe1 B1 2_455 . 3_455 101.68(8)
B5 Fe1 B5 5_455 . 6_555 156.63(11)
B5 Fe1 B5 5_455 . 11_455 49.54(12)
B5 Fe1 B5 5_455 . 12_555 124.53(12)
B5 Fe1 B5 5_455 . 15_555 92.35(12)
B5 Fe1 B5 5_455 . 16_455 92.35(12)
B5 Fe1 B2 5_455 . 3_455 44.31(12)
B5 Fe1 B2 5_455 . 4_555 113.66(12)
B5 Fe1 B2 5_455 . 7_555 83.84(11)
B5 Fe1 B2 5_455 . 8_455 114.93(11)
B5 Fe1 B1 5_455 . 3_454 101.68(8)
B5 Fe1 B1 5_455 . 3_455 78.32(8)
B5 Fe1 B5 6_555 . 11_455 124.53(12)
B5 Fe1 B5 6_555 . 12_555 49.54(12)
B5 Fe1 B5 6_555 . 15_555 92.35(12)
B5 Fe1 B5 6_555 . 16_455 92.35(12)
B5 Fe1 B2 6_555 . 3_455 113.66(12)
B5 Fe1 B2 6_555 . 4_555 44.31(12)
B5 Fe1 B2 6_555 . 7_555 114.93(11)
B5 Fe1 B2 6_555 . 8_455 83.84(11)
B5 Fe1 B1 6_555 . 3_454 101.68(8)
B5 Fe1 B1 6_555 . 3_455 78.32(8)
B5 Fe1 B5 11_455 . 12_555 156.63(11)
B5 Fe1 B5 11_455 . 15_555 141.51(12)
B5 Fe1 B5 11_455 . 16_455 45.51(12)
B5 Fe1 B2 11_455 . 3_455 44.31(12)
B5 Fe1 B2 11_455 . 4_555 113.66(12)
B5 Fe1 B2 11_455 . 7_555 114.93(11)
B5 Fe1 B2 11_455 . 8_455 83.84(11)
B5 Fe1 B1 11_455 . 3_454 101.68(8)
B5 Fe1 B1 11_455 . 3_455 78.32(8)
B5 Fe1 B5 12_555 . 15_555 45.51(12)
B5 Fe1 B5 12_555 . 16_455 141.51(12)
B5 Fe1 B2 12_555 . 3_455 113.66(12)
B5 Fe1 B2 12_555 . 4_555 44.31(12)
B5 Fe1 B2 12_555 . 7_555 83.84(11)
B5 Fe1 B2 12_555 . 8_455 114.93(11)
B5 Fe1 B1 12_555 . 3_454 101.68(8)
B5 Fe1 B1 12_555 . 3_455 78.32(8)
B5 Fe1 B5 15_555 . 16_455 156.63(11)
B5 Fe1 B2 15_555 . 3_455 114.93(11)
B5 Fe1 B2 15_555 . 4_555 83.84(11)
B5 Fe1 B2 15_555 . 7_555 44.31(12)
B5 Fe1 B2 15_555 . 8_455 113.66(12)
B5 Fe1 B1 15_555 . 3_454 78.32(8)
B5 Fe1 B1 15_555 . 3_455 101.68(8)
B5 Fe1 B2 16_455 . 3_455 83.84(11)
B5 Fe1 B2 16_455 . 4_555 114.93(11)
B5 Fe1 B2 16_455 . 7_555 113.66(12)
B5 Fe1 B2 16_455 . 8_455 44.31(12)
B5 Fe1 B1 16_455 . 3_454 78.32(8)
B5 Fe1 B1 16_455 . 3_455 101.68(8)
B2 Fe1 B2 3_455 . 4_555 78.24(12)
B2 Fe1 B2 3_455 . 7_555 127.01(12)
B2 Fe1 B2 3_455 . 8_455 127.01(12)
B2 Fe1 B1 3_455 . 3_454 140.88(9)
B2 Fe1 B1 3_455 . 3_455 39.12(9)
B2 Fe1 B2 4_555 . 7_555 127.01(12)
B2 Fe1 B2 4_555 . 8_455 127.01(12)
B2 Fe1 B1 4_555 . 3_454 140.88(9)
B2 Fe1 B1 4_555 . 3_455 39.12(9)
B2 Fe1 B2 7_555 . 8_455 78.24(12)
B2 Fe1 B1 7_555 . 3_454 39.12(9)
B2 Fe1 B1 7_555 . 3_455 140.88(9)
B2 Fe1 B1 8_455 . 3_454 39.12(9)
B2 Fe1 B1 8_455 . 3_455 140.88(9)
B1 Fe1 B1 3_454 . 3_455 180.0(5)
B4 B4 B4 6_545 . 7_555 140.6(3)
B4 B4 B5 6_545 . . 137.8(2)
B4 B4 B5 6_545 . 7_555 114.4(2)
B4 B4 B2 6_545 . . 99.2(2)
B4 B4 B3 6_545 . . 112.3(2)
B4 B4 B5 7_555 . . 59.54(18)
B4 B4 B5 7_555 . 7_555 59.91(18)
B4 B4 B2 7_555 . . 107.7(2)
B4 B4 B3 7_555 . . 106.1(2)
B5 B4 B5 . . 7_555 107.3(2)
B5 B4 B2 . . . 106.9(2)
B5 B4 B3 . . . 58.71(18)
B5 B4 B2 7_555 . . 60.3(2)
B5 B4 B3 7_555 . . 106.8(2)
B2 B4 B3 . . . 59.4(2)
Fe1 B5 B4 . . . 167.9(2)
Fe1 B5 B4 . . 7_555 130.3(2)
Fe1 B5 B5 . . 5_455 67.24(16)
Fe1 B5 B5 . . 15_555 65.23(15)
Fe1 B5 B2 . . 7_555 77.78(17)
Fe1 B5 B3 . . . 107.65(19)
B4 B5 B4 . . 7_555 60.55(18)
B4 B5 B5 . . 5_455 113.7(2)
B4 B5 B5 . . 15_555 108.1(2)
B4 B5 B2 . . 7_555 108.1(2)
B4 B5 B3 . . . 60.84(19)
B4 B5 B5 7_555 . 5_455 119.9(2)
B4 B5 B5 7_555 . 15_555 108.2(2)
B4 B5 B2 7_555 . 7_555 60.18(19)
B4 B5 B3 7_555 . . 108.5(2)
B5 B5 B5 5_455 . 15_555 127.0(2)
B5 B5 B2 5_455 . 7_555 129.1(2)
B5 B5 B3 5_455 . . 118.6(2)
B5 B5 B2 15_555 . 7_555 59.46(18)
B5 B5 B3 15_555 . . 58.70(18)
B2 B5 B3 7_555 . . 106.3(2)
Fe1 B2 B4 3_554 . . 112.2(2)
Fe1 B2 B4 3_554 . 15_555 112.2(2)
Fe1 B2 B5 3_554 . 7_555 57.91(16)
Fe1 B2 B5 3_554 . 9_555 57.91(16)
Fe1 B2 B3 3_554 . . 161.8(3)
Fe1 B2 B1 3_554 . . 69.68(13)
B4 B2 B4 . . 15_555 110.0(2)
B4 B2 B5 . . 7_555 59.52(19)
B4 B2 B5 . . 9_555 109.0(2)
B4 B2 B3 . . . 60.36(19)
B4 B2 B1 . . . 122.4(2)
B4 B2 B5 15_555 . 7_555 109.0(2)
B4 B2 B5 15_555 . 9_555 59.52(19)
B4 B2 B3 15_555 . . 60.36(19)
B4 B2 B1 15_555 . . 122.4(2)
B5 B2 B5 7_555 . 9_555 61.1(2)
B5 B2 B3 7_555 . . 107.0(2)
B5 B2 B1 7_555 . . 116.8(2)
B5 B2 B3 9_555 . . 107.0(2)
B5 B2 B1 9_555 . . 116.8(2)
B3 B2 B1 . . . 128.6(3)
B4 B3 B4 . . 15_555 109.8(3)
B4 B3 B5 . . . 60.5(2)
B4 B3 B5 . . 15_555 110.9(3)
B4 B3 B2 . . . 60.3(2)
B4 B3 B3 . . 7_556 121.6(2)
B4 B3 B5 15_555 . . 110.9(3)
B4 B3 B5 15_555 . 15_555 60.5(2)
B4 B3 B2 15_555 . . 60.3(2)
B4 B3 B3 15_555 . 7_556 121.6(2)
B5 B3 B5 . . 15_555 62.6(2)
B5 B3 B2 . . . 109.0(3)
B5 B3 B3 . . 7_556 117.2(2)
B5 B3 B2 15_555 . . 109.0(3)
B5 B3 B3 15_555 . 7_556 117.2(2)
B2 B3 B3 . . 7_556 125.3(3)
Fe1 B1 Fe1 3_554 . 3_555 180.0(5)
Fe1 B1 B2 3_554 . . 71.20(14)
Fe1 B1 B2 3_554 . 2_545 71.20(14)
Fe1 B1 B2 3_554 . 5_555 108.80(14)
Fe1 B1 B2 3_554 . 6_545 108.80(14)
Fe1 B1 B2 3_555 . . 108.80(14)
Fe1 B1 B2 3_555 . 2_545 108.80(14)
Fe1 B1 B2 3_555 . 5_555 71.20(14)
Fe1 B1 B2 3_555 . 6_545 71.20(14)
B2 B1 B2 . . 2_545 142.4(2)
B2 B1 B2 . . 5_555 95.96(17)
B2 B1 B2 . . 6_545 95.96(17)
B2 B1 B2 2_545 . 5_555 95.96(17)
B2 B1 B2 2_545 . 6_545 95.96(17)
B2 B1 B2 5_555 . 6_545 142.4(2)
loop_
_geom_bond_atom_site_label_1
_geom_bond_atom_site_label_2
_geom_bond_site_symmetry_1
_geom_bond_site_symmetry_2
_geom_bond_distance
Fe1 B5 . . 2.125(3)
Fe1 B5 . 2_455 2.125(3)
Fe1 B5 . 5_455 2.125(3)
Fe1 B5 . 6_555 2.125(3)
Fe1 B5 . 11_455 2.125(3)
Fe1 B5 . 12_555 2.125(3)
Fe1 B5 . 15_555 2.125(3)
Fe1 B5 . 16_455 2.125(3)
Fe1 B2 . 3_455 2.451(4)
Fe1 B2 . 4_555 2.451(4)
Fe1 B2 . 7_555 2.451(4)
Fe1 B2 . 8_455 2.451(4)
Fe1 B1 . 3_454 2.4278(3)
Fe1 B1 . 3_455 2.4278(3)
B4 B4 . 6_545 1.856(5)
B4 B4 . 7_555 1.756(4)
B4 B5 . . 1.744(5)
B4 B5 . 7_555 1.738(4)
B4 B2 . . 1.749(5)
B4 B3 . . 1.751(5)
B5 B5 . 5_455 1.644(4)
B5 B5 . 15_555 1.780(5)
B5 B2 . 7_555 1.752(5)
B5 B3 . . 1.714(5)
B2 B3 . . 1.733(5)
B2 B1 . . 1.634(3)
B3 B3 . 7_556 1.613(6)
loop_
_refln_index_h
_refln_index_k
_refln_index_l
_refln_F_squared_calc
_refln_F_squared_meas
_refln_F_squared_sigma
_refln_observed_status
1 0 1 235.45 254.69 4.87 o
1 0 3 197.86 192.41 7.95 o
1 0 5 18.54 26.50 3.75 o
1 1 1 635.96 818.63 11.65 o
1 1 2 473.64 435.30 8.71 o
1 1 3 301.16 317.58 7.24 o
1 1 4 137.59 122.18 5.05 o
1 1 5 6.07 3.66 0.89 o
1 1 6 31.48 36.19 3.31 o
1 1 7 50.87 84.82 9.03 o
2 0 0 325.23 288.85 6.03 o
2 0 2 72.39 91.02 3.41 o
2 0 4 433.86 387.19 14.89 o
2 0 6 235.65 273.17 14.34 o
2 1 1 161.93 187.30 6.88 o
2 1 2 3.90 6.64 0.97 o
2 1 3 56.44 53.30 2.48 o
2 1 4 11.60 8.52 0.94 o
2 1 5 17.75 17.54 1.71 o
2 1 6 12.04 13.90 1.59 o
2 1 7 8.85 11.35 3.15 o
2 2 1 0.03 0.38 0.46 <
2 2 2 344.98 457.14 12.71 o
2 2 3 0.14 0.26 0.50 <
2 2 4 235.08 300.73 10.41 o
2 2 5 0.04 0.25 1.26 <
2 2 6 52.09 64.55 8.38 o
2 2 7 0.03 -0.81 1.05 <
3 0 1 41.23 30.28 1.84 o
3 0 3 60.43 52.46 3.51 o
3 1 0 732.98 730.72 9.93 o
3 1 1 961.05 1073.45 11.36 o
3 1 2 384.32 362.58 9.00 o
3 1 3 1079.40 1037.82 14.78 o
3 1 4 102.39 107.71 4.32 o
3 1 5 18.90 15.92 3.14 o
3 1 6 22.91 25.15 3.89 o
3 2 1 2.77 0.74 0.51 <
3 2 2 15.89 17.58 1.79 o
3 2 3 121.72 98.40 5.04 o
3 2 4 3.33 4.72 0.93 o
3 2 5 92.14 102.20 8.05 o
3 2 6 0.52 1.15 1.24 <
3 2 7 6.11 11.94 2.86 o
3 3 1 428.27 603.89 28.94 o
3 3 2 318.79 310.81 19.02 o
3 3 3 858.54 998.84 24.72 o
3 3 4 66.71 78.93 6.26 o
3 3 5 91.78 125.21 7.80 o
3 3 6 18.13 18.79 5.15 o
3 3 7 49.89 79.68 11.81 o
4 0 0 130.22 146.88 6.13 o
4 0 2 403.97 394.83 10.95 o
4 0 4 362.30 324.33 13.45 o
4 1 1 933.86 988.59 9.90 o
4 1 2 59.88 58.32 2.77 o
4 1 3 14.99 24.54 1.83 o
4 1 4 4.46 3.52 0.76 o
4 1 5 39.33 43.61 3.97 o
4 1 6 8.39 5.46 2.93 <
4 2 0 561.41 642.98 26.18 o
4 2 1 0.00 0.27 0.28 <
4 2 2 272.39 275.85 8.04 o
4 2 3 0.21 0.27 0.51 <
4 2 4 58.07 51.66 3.75 o
4 2 5 0.40 0.59 0.63 <
4 2 6 20.50 38.17 4.47 o
4 2 7 0.01 0.30 1.48 <
4 3 1 197.54 194.26 15.40 o
4 3 2 541.76 518.71 15.88 o
4 3 3 67.30 70.27 5.58 o
4 3 4 171.01 182.96 8.13 o
4 3 5 2.93 8.35 1.64 o
4 3 6 15.20 26.35 3.77 o
4 3 7 0.40 -0.77 1.53 <
4 4 1 17.11 16.53 5.64 o
4 4 2 409.05 332.61 23.13 o
4 4 3 16.26 11.07 3.46 o
4 4 4 8.25 4.95 2.08 o
4 4 5 2.89 3.81 1.63 o
4 4 6 3.13 7.96 3.00 o
4 4 7 4.19 2.75 3.80 <
5 0 1 1133.65 1021.52 13.51 o
5 0 3 0.54 0.40 0.21 <
5 0 5 109.67 83.24 4.34 o
5 1 0 308.71 313.77 8.90 o
5 1 1 43.64 52.48 2.28 o
5 1 2 263.83 260.26 6.13 o
5 1 3 56.16 59.06 3.26 o
5 1 4 122.25 107.81 6.85 o
5 1 5 0.08 0.03 0.22 <
5 1 6 18.17 28.93 3.90 o
5 2 1 478.94 418.86 11.36 o
5 2 2 750.71 751.67 14.76 o
5 2 3 45.22 43.59 4.12 o
5 2 4 157.61 167.77 6.38 o
5 2 5 11.73 8.99 1.32 o
5 2 6 48.64 76.77 6.96 o
5 3 0 323.11 294.89 21.79 o
5 3 1 3.43 1.31 1.71 <
5 3 2 215.48 216.36 8.57 o
5 3 3 0.74 0.47 0.51 <
5 3 4 75.71 91.07 6.19 o
5 3 5 26.76 27.88 3.21 o
5 3 6 17.23 29.33 4.24 o
5 4 1 209.45 171.62 17.35 o
5 4 2 33.04 24.22 4.60 o
5 4 3 150.71 150.25 7.91 o
5 4 4 11.11 5.99 1.79 o
5 4 5 345.45 458.74 19.62 o
5 4 6 0.98 0.74 1.25 <
5 5 1 1.49 1.10 3.03 <
5 5 2 148.96 150.93 16.45 o
5 5 3 0.04 -1.01 1.65 <
5 5 4 5.92 19.85 4.69 o
5 5 5 8.69 4.16 1.69 o
6 0 0 213.95 210.28 9.01 o
6 0 2 0.44 5.70 1.16 o
6 0 4 403.96 313.07 10.84 o
6 0 6 341.84 466.19 15.39 o
6 1 1 92.59 69.48 2.97 o
6 1 2 304.70 322.64 8.10 o
6 1 3 123.57 126.19 5.03 o
6 1 4 51.99 50.53 3.14 o
6 1 5 240.65 222.67 9.44 o
6 1 6 29.53 36.11 4.67 o
6 2 0 2217.34 2103.53 40.83 o
6 2 1 7.91 12.56 2.39 o
6 2 2 625.18 606.87 14.61 o
6 2 3 3.54 4.23 1.25 o
6 2 4 20.23 30.10 3.67 o
6 2 5 6.70 5.86 1.56 o
6 2 6 64.05 84.70 8.01 o
6 3 1 502.41 477.44 20.64 o
6 3 2 182.58 195.29 9.45 o
6 3 3 4.80 3.95 1.05 o
6 3 4 46.61 40.58 4.52 o
6 3 5 36.70 39.70 5.59 o
6 3 6 9.47 22.90 4.46 o
6 4 0 43.22 56.40 11.19 o
6 4 1 0.61 0.91 1.55 <
6 4 2 17.53 14.25 4.36 o
6 4 3 3.39 1.03 1.15 <
6 4 4 278.18 312.38 14.32 o
6 4 5 1.70 0.76 1.15 <
6 4 6 158.61 253.26 16.57 o
6 5 1 107.44 121.51 17.35 o
6 5 2 10.68 9.13 3.62 o
6 5 3 13.98 16.43 4.07 o
6 5 4 0.51 0.19 0.59 <
6 6 1 51.73 84.52 16.53 o
6 6 2 221.15 196.46 22.00 o
6 6 3 74.34 65.98 12.98 o
7 0 1 21.93 24.11 2.41 o
7 0 3 63.86 66.69 4.75 o
7 0 5 127.22 87.89 5.97 o
7 1 0 157.63 137.73 5.91 o
7 1 1 5.55 7.64 1.03 o
7 1 2 107.27 102.54 4.43 o
7 1 3 3.40 3.27 0.80 o
7 1 4 59.96 46.92 3.63 o
7 1 5 4.27 1.83 0.83 o
7 1 6 37.66 33.24 5.30 o
7 2 1 87.44 80.98 5.23 o
7 2 2 181.80 184.40 7.46 o
7 2 3 31.37 37.75 4.56 o
7 2 4 60.13 50.13 6.35 o
7 2 5 4.20 2.36 1.04 o
7 2 6 6.77 5.80 2.25 o
7 3 0 26.76 30.42 7.01 o
7 3 1 6.52 5.51 1.77 o
7 3 2 99.53 106.89 6.68 o
7 3 3 23.82 25.87 3.52 o
7 3 4 159.72 155.12 12.70 o
7 3 5 6.55 3.35 1.39 o
7 3 6 35.26 46.41 7.23 o
7 4 1 65.84 64.12 8.39 o
7 4 2 2.07 4.36 1.97 o
7 4 3 10.67 8.29 1.95 o
7 4 4 1.60 -2.57 3.63 <
7 4 5 2.89 1.56 1.51 <
7 5 0 225.63 200.94 24.25 o
7 5 1 75.32 71.92 12.67 o
7 5 2 141.52 133.64 17.46 o
7 5 3 141.32 112.19 16.82 o
7 5 4 33.26 19.68 2.80 o
8 0 0 517.05 638.38 20.10 o
8 0 2 200.74 208.41 8.57 o
8 0 4 6.72 4.67 1.71 o
8 1 1 79.91 92.55 3.82 o
8 1 2 2.40 1.53 0.53 o
8 1 3 32.79 29.52 3.29 o
8 1 4 10.06 10.38 1.78 o
8 1 5 2.20 1.16 0.84 <
8 2 0 64.69 55.90 5.70 o
8 2 1 11.60 11.89 1.98 o
8 2 2 76.29 83.90 5.55 o
8 2 3 37.04 33.33 4.23 o
8 2 4 70.24 35.11 5.31 o
8 2 5 5.86 1.67 1.28 <
8 2 6 28.50 29.67 6.08 o
8 3 1 209.42 220.00 10.34 o
8 3 2 17.39 13.42 2.50 o
8 3 3 4.60 2.77 1.19 o
8 3 4 3.88 1.15 2.29 <
8 3 5 9.78 4.67 3.50 <
8 3 6 1.53 -1.63 1.14 <
8 4 0 105.03 104.69 15.37 o
8 4 1 76.05 86.22 9.84 o
8 4 2 124.96 88.59 17.10 o
8 4 3 137.00 122.26 9.37 o
8 5 1 0.37 -2.11 3.48 <
8 5 4 53.83 35.35 4.56 o
9 0 1 7.71 9.79 1.66 o
9 0 3 97.79 93.29 7.97 o
9 1 0 742.91 852.48 17.14 o
9 1 1 97.08 114.78 4.56 o
9 1 2 219.95 246.63 8.56 o
9 1 3 269.47 269.11 10.99 o
9 1 4 3.47 2.10 0.75 o
9 2 1 110.84 145.68 7.80 o
9 2 2 80.64 79.74 6.60 o
9 2 3 9.38 14.89 3.58 o
9 2 4 9.26 6.74 2.84 o
9 2 5 1.47 8.18 4.75 <
9 3 0 99.41 110.72 14.80 o
9 3 1 117.75 122.87 9.42 o
9 3 2 81.10 82.18 8.34 o
9 3 3 279.57 299.92 15.27 o
9 3 4 40.58 30.01 8.04 o
9 4 1 90.87 96.88 15.96 o
9 4 2 153.61 140.17 11.57 o
9 4 3 1.03 13.10 5.12 o
9 5 3 94.21 83.85 8.75 o
10 0 0 68.90 84.16 8.26 o
10 0 2 53.47 58.57 7.30 o
10 0 4 31.28 31.62 4.58 o
10 1 1 72.30 76.67 5.05 o
10 1 2 58.05 79.54 5.94 o
10 1 3 4.30 2.24 1.11 o
10 1 4 7.82 5.08 1.41 o
10 2 0 95.08 85.39 9.97 o
10 2 1 161.97 183.24 12.17 o
10 2 2 84.42 91.49 8.48 o
10 2 3 292.39 332.41 17.15 o
10 2 4 40.97 41.64 7.52 o
10 3 1 5.02 3.77 2.58 <
10 3 2 2.24 1.38 1.67 <
10 3 3 36.81 30.57 5.03 o
10 3 4 4.40 3.84 2.58 <
10 4 2 27.09 30.12 5.96 o
10 4 3 75.65 82.43 10.54 o
10 5 3 7.27 4.48 2.19 o
11 0 1 75.05 112.58 16.22 o
11 0 3 1.88 1.63 1.21 <
11 1 1 3.48 1.53 1.75 <
11 1 2 7.13 4.80 1.60 o
11 1 3 8.04 7.13 1.84 o
11 1 4 194.26 221.44 14.29 o
11 2 1 0.74 -1.62 2.14 <
11 2 2 1.52 7.31 6.08 <
11 2 3 8.23 5.27 2.17 o
11 2 4 1.05 1.85 1.55 <
11 3 1 3.51 1.50 1.80 <
11 3 2 71.29 84.64 12.55 o
11 3 3 10.70 11.04 4.18 o
11 3 4 0.24 0.27 0.69 <
11 4 2 16.01 13.08 4.63 o
11 4 3 22.30 19.08 4.73 o
12 1 2 24.61 41.55 10.17 o
12 1 3 5.19 3.34 1.81 <
12 2 2 1.42 1.41 2.61 <
12 3 2 0.42 -0.57 0.94 <
12 3 3 25.22 33.65 8.06 o
