#------------------------------------------------------------------------------
#$Date: 2021-04-14 13:00:42 +0300 (Wed, 14 Apr 2021) $
#$Revision: 264153 $
#$URL: file:///home/coder/svn-repositories/cod/cif/1/56/17/1561758.cif $
#------------------------------------------------------------------------------
#
# This file is available in the Crystallography Open Database (COD),
# http://www.crystallography.net/
#
# All data on this site have been placed in the public domain by the
# contributors.
#
data_1561758
loop_
_publ_author_name
'Bykova, E.'
'Gou, H.'
'Bykov, M.'
'Hanfland, M.'
'Dubrovinsky, L.'
'Dubrovinskaia, N.'
_publ_section_title
;
 Crystal structures and compressibility of novel iron borides Fe2B7 and Fe
 B50 synthesized at high pressure and high temperature
;
_journal_name_full               'Journal of Solid State Chemistry'
_journal_page_first              102
_journal_page_last               109
_journal_paper_doi               10.1016/j.jssc.2015.06.040
_journal_volume                  230
_journal_year                    2015
_chemical_absolute_configuration .
_chemical_compound_source
;
high-pressure high-temperature synthesis
;
_chemical_formula_moiety         'B7 Fe2'
_chemical_formula_sum            'B7 Fe2'
_chemical_formula_weight         187.4
_chemical_name_common            'diiron heptaboride'
_chemical_name_systematic        'diiron heptaboride'
_space_group_IT_number           55
_space_group_name_Hall           '-P 2 2ab'
_space_group_name_H-M_alt        'P b a m'
_symmetry_cell_setting           orthorhombic
_symmetry_Int_Tables_number      55
_symmetry_space_group_name_Hall  '-P 2 2ab'
_symmetry_space_group_name_H-M   'P b a m'
_cell_angle_alpha                90
_cell_angle_beta                 90
_cell_angle_gamma                90
_cell_formula_units_Z            8
_cell_length_a                   16.6754(10)
_cell_length_b                   10.5521(2)
_cell_length_c                   2.84640(10)
_cell_measurement_reflns_used    444
_cell_measurement_temperature    293
_cell_measurement_theta_max      18.1340
_cell_measurement_theta_min      4.3790
_cell_volume                     500.85(4)
_computing_cell_refinement
;
CrysAlisPro, Agilent Technologies,
Version 1.171.37.35 (release 13-08-2014 CrysAlis171 .NET)
(compiled Aug 13 2014,18:06:01)
;
_computing_data_collection
;
CrysAlisPro, Agilent Technologies,
Version 1.171.37.35 (release 13-08-2014 CrysAlis171 .NET)
(compiled Aug 13 2014,18:06:01)
;
_computing_data_reduction
;
CrysAlisPro, Agilent Technologies,
Version 1.171.37.35 (release 13-08-2014 CrysAlis171 .NET)
(compiled Aug 13 2014,18:06:01)
;
_computing_structure_refinement  'Jana2006 (Petricek, 2014)'
_computing_structure_solution    'SHELXS-2013 (Sheldrick, 2013)'
_diffrn_ambient_pressure         12500000
_diffrn_ambient_temperature      293
_diffrn_detector                 'MAR555 flatpanel detector'
_diffrn_measured_fraction_theta_full 0.87
_diffrn_measured_fraction_theta_max 0.54
_diffrn_measurement_device
;
customized omega-circle diffractometer
;
_diffrn_measurement_device_type  'ESRF, beamline ID09A diffractometer'
_diffrn_measurement_method       '\w scans'
_diffrn_radiation_monochromator  synchrotron
_diffrn_radiation_probe          x-ray
_diffrn_radiation_source         synchrotron
_diffrn_radiation_type           synchrotron
_diffrn_radiation_wavelength     0.41441
_diffrn_reflns_av_R_equivalents  0.0445
_diffrn_reflns_av_unetI/netI     0.0313
_diffrn_reflns_limit_h_max       18
_diffrn_reflns_limit_h_min       -18
_diffrn_reflns_limit_k_max       15
_diffrn_reflns_limit_k_min       -15
_diffrn_reflns_limit_l_max       3
_diffrn_reflns_limit_l_min       -3
_diffrn_reflns_number            2085
_diffrn_reflns_theta_full        12.97
_diffrn_reflns_theta_max         19.54
_diffrn_reflns_theta_min         1.82
_diffrn_source                   synchrotron
_exptl_absorpt_coefficient_mu    2.335
_exptl_absorpt_correction_T_max  1.00000
_exptl_absorpt_correction_T_min  0.02486
_exptl_absorpt_correction_type   multi-scan
_exptl_absorpt_process_details
;
CrysAlisPro, Agilent Technologies,
Version 1.171.37.35 (release 13-08-2014 CrysAlis171 .NET)
(compiled Aug 13 2014,18:06:01)
Empirical absorption correction using spherical harmonics,
 implemented in SCALE3 ABSPACK scaling algorithm.
;
_exptl_crystal_colour            black
_exptl_crystal_density_diffrn    4.9679
_exptl_crystal_description       plate
_exptl_crystal_F_000             696
_exptl_crystal_size_max          0.025
_exptl_crystal_size_mid          0.025
_exptl_crystal_size_min          0.005
_refine_ls_extinction_method     none
_refine_ls_goodness_of_fit_gt    1.92
_refine_ls_goodness_of_fit_ref   1.92
_refine_ls_number_constraints    0
_refine_ls_number_parameters     67
_refine_ls_number_reflns         697
_refine_ls_number_restraints     0
_refine_ls_R_factor_all          0.0415
_refine_ls_R_factor_gt           0.0364
_refine_ls_shift/su_max          0.0003
_refine_ls_shift/su_mean         0.0000
_refine_ls_structure_factor_coef Fsqd
_refine_ls_weighting_details     w=1/(\s^2^(I)+0.0004I^2^)
_refine_ls_weighting_scheme      sigma
_refine_ls_wR_factor_gt          0.0843
_refine_ls_wR_factor_ref         0.0915
_reflns_number_gt                602
_reflns_number_total             697
_reflns_threshold_expression     I>2\s(I)
_cod_data_source_file            Fe2B7_12.5GPa.cif
_cod_data_source_block           Fe2B7_12.5GPa
_cod_depositor_comments
;
The following automatic conversions were performed:

data item '_diffrn_radiation_probe' value 'X-ray' was changed to
'x-ray' in accordance with the built-in table derived from the CIF
Core dictionary named 'cif_core.dic' version 2.4.5 last updated on
2014-11-21.

Automatic conversion script
Id: cif_fix_values 8369 2020-08-20 11:38:08Z andrius 
;
_cod_database_code               1561758
loop_
_symmetry_equiv_pos_site_id
_symmetry_equiv_pos_as_xyz
1 x,y,z
2 -x,-y,z
3 -x+1/2,y+1/2,-z
4 x+1/2,-y+1/2,-z
5 -x,-y,-z
6 x,y,-z
7 x+1/2,-y+1/2,z
8 -x+1/2,y+1/2,z
loop_
_atom_site_label
_atom_site_type_symbol
_atom_site_fract_x
_atom_site_fract_y
_atom_site_fract_z
_atom_site_adp_type
_atom_site_U_iso_or_equiv
_atom_site_site_symmetry_multiplicity
_atom_site_occupancy
_atom_site_calc_flag
_atom_site_refinement_flags
_atom_site_disorder_assembly
_atom_site_disorder_group
Fe1 Fe 0.22120(7) 0.46728(8) 0.5 Uani 0.0050(3) 4 1 d . . .
Fe2 Fe 0.12137(6) 0.17901(8) 0 Uani 0.0037(3) 4 1 d . . .
Fe3 Fe 0.46530(7) 0.10603(8) 0.5 Uani 0.0040(3) 4 1 d . . .
Fe4 Fe 0.38917(6) 0.26612(8) 0 Uani 0.0042(3) 4 1 d . . .
B1 B 0.3669(5) 0.0501(6) 0 Uiso 0.0059(13) 4 1 d . . .
B2 B 0.0474(5) 0.4596(6) 0 Uiso 0.0062(13) 4 1 d . . .
B3 B 0.3041(5) 0.3916(6) 0 Uiso 0.0042(12) 4 1 d . . .
B4 B 0.1408(5) 0.3733(6) 0 Uiso 0.0043(12) 4 1 d . . .
B5 B 0.4451(5) 0.4032(6) 0.5 Uiso 0.0042(12) 4 1 d . . .
B6 B 0.1995(5) 0.0463(6) 0 Uiso 0.0031(12) 4 1 d . . .
B7 B 0.2890(5) 0.2883(6) 0.5 Uiso 0.0021(12) 4 1 d . . .
B8 B 0.0334(6) 0.3035(7) 0 Uiso 0.0083(13) 4 1 d . . .
B9 B 0.3984(5) 0.4759(6) 0 Uiso 0.0046(13) 4 1 d . . .
B10 B 0.0528(5) 0.0584(6) 0.5 Uiso 0.0041(12) 4 1 d . . .
B11 B 0.0179(5) 0.2133(6) 0.5 Uiso 0.0037(12) 4 1 d . . .
B12 B 0.3379(5) 0.1383(6) 0.5 Uiso 0.0048(12) 4 1 d . . .
B13 B 0.2208(5) 0.1447(6) 0.5 Uiso 0.0052(13) 4 1 d . . .
B14 B 0.1794(5) 0.2910(6) 0.5 Uiso 0.0031(12) 4 1 d . . .
loop_
_atom_site_aniso_label
_atom_site_aniso_type_symbol
_atom_site_aniso_U_11
_atom_site_aniso_U_22
_atom_site_aniso_U_33
_atom_site_aniso_U_12
_atom_site_aniso_U_13
_atom_site_aniso_U_23
Fe1 Fe 0.0055(7) 0.0013(4) 0.0084(4) 0.0009(3) 0 0
Fe2 Fe 0.0041(7) 0.0015(4) 0.0056(4) 0.0005(3) 0 0
Fe3 Fe 0.0053(7) 0.0020(4) 0.0046(4) -0.0001(3) 0 0
Fe4 Fe 0.0052(7) 0.0026(4) 0.0049(4) 0.0002(3) 0 0
loop_
_atom_type_symbol
_atom_type_scat_dispersion_real
_atom_type_scat_dispersion_imag
_atom_type_scat_source
B -0.0003 0.0002 'International Tables Vol C tables 4.2.6.8 and 6.1.1.1'
Fe 0.1991 0.3104 'International Tables Vol C tables 4.2.6.8 and 6.1.1.1'
loop_
_geom_angle_atom_site_label_1
_geom_angle_atom_site_label_2
_geom_angle_atom_site_label_3
_geom_angle_site_symmetry_1
_geom_angle_site_symmetry_2
_geom_angle_site_symmetry_3
_geom_angle
Fe1 Fe1 Fe1 1_554 . 1_556 180.0(5)
Fe1 Fe1 B1 1_554 . 3_555 50.23(14)
Fe1 Fe1 B1 1_554 . 3_556 129.77(14)
Fe1 Fe1 B3 1_554 . . 48.28(15)
Fe1 Fe1 B3 1_554 . 1_556 131.72(15)
Fe1 Fe1 B4 1_554 . . 49.51(13)
Fe1 Fe1 B4 1_554 . 1_556 130.49(14)
Fe1 Fe1 B6 1_554 . 3_555 47.68(15)
Fe1 Fe1 B6 1_554 . 3_556 132.32(15)
Fe1 Fe1 B7 1_554 . . 90.00(3)
Fe1 Fe1 B12 1_554 . 3_556 90.00(2)
Fe1 Fe1 B13 1_554 . 3_556 90.00(2)
Fe1 Fe1 B14 1_554 . . 90.00(2)
Fe1 Fe1 B1 1_556 . 3_555 129.77(14)
Fe1 Fe1 B1 1_556 . 3_556 50.23(14)
Fe1 Fe1 B3 1_556 . . 131.72(15)
Fe1 Fe1 B3 1_556 . 1_556 48.28(15)
Fe1 Fe1 B4 1_556 . . 130.49(14)
Fe1 Fe1 B4 1_556 . 1_556 49.51(13)
Fe1 Fe1 B6 1_556 . 3_555 132.32(15)
Fe1 Fe1 B6 1_556 . 3_556 47.68(15)
Fe1 Fe1 B7 1_556 . . 90.00(3)
Fe1 Fe1 B12 1_556 . 3_556 90.00(2)
Fe1 Fe1 B13 1_556 . 3_556 90.00(2)
Fe1 Fe1 B14 1_556 . . 90.00(2)
B1 Fe1 B1 3_555 . 3_556 79.5(2)
B1 Fe1 B3 3_555 . . 98.5(2)
B1 Fe1 B3 3_555 . 1_556 177.98(19)
B1 Fe1 B4 3_555 . . 50.1(2)
B1 Fe1 B4 3_555 . 1_556 100.9(3)
B1 Fe1 B6 3_555 . 3_555 80.1(3)
B1 Fe1 B6 3_555 . 3_556 133.5(2)
B1 Fe1 B7 3_555 . . 132.56(17)
B1 Fe1 B12 3_555 . 3_556 48.59(19)
B1 Fe1 B13 3_555 . 3_556 87.4(3)
B1 Fe1 B14 3_555 . . 97.8(3)
B1 Fe1 B3 3_556 . . 177.98(19)
B1 Fe1 B3 3_556 . 1_556 98.5(2)
B1 Fe1 B4 3_556 . . 100.9(3)
B1 Fe1 B4 3_556 . 1_556 50.1(2)
B1 Fe1 B6 3_556 . 3_555 133.5(2)
B1 Fe1 B6 3_556 . 3_556 80.1(3)
B1 Fe1 B7 3_556 . . 132.56(17)
B1 Fe1 B12 3_556 . 3_556 48.59(19)
B1 Fe1 B13 3_556 . 3_556 87.4(3)
B1 Fe1 B14 3_556 . . 97.8(3)
B3 Fe1 B3 . . 1_556 83.4(2)
B3 Fe1 B4 . . . 78.1(3)
B3 Fe1 B4 . . 1_556 131.2(2)
B3 Fe1 B6 . . 3_555 45.2(2)
B3 Fe1 B6 . . 3_556 101.0(3)
B3 Fe1 B7 . . . 49.28(17)
B3 Fe1 B12 . . 3_556 129.61(18)
B3 Fe1 B13 . . 3_556 92.0(2)
B3 Fe1 B14 . . . 82.9(2)
B3 Fe1 B4 1_556 . . 131.2(2)
B3 Fe1 B4 1_556 . 1_556 78.1(3)
B3 Fe1 B6 1_556 . 3_555 101.0(3)
B3 Fe1 B6 1_556 . 3_556 45.2(2)
B3 Fe1 B7 1_556 . . 49.28(17)
B3 Fe1 B12 1_556 . 3_556 129.61(18)
B3 Fe1 B13 1_556 . 3_556 92.0(2)
B3 Fe1 B14 1_556 . . 82.9(2)
B4 Fe1 B4 . . 1_556 80.97(19)
B4 Fe1 B6 . . 3_555 97.1(2)
B4 Fe1 B6 . . 3_556 176.3(2)
B4 Fe1 B7 . . . 85.7(2)
B4 Fe1 B12 . . 3_556 96.0(3)
B4 Fe1 B13 . . 3_556 133.05(17)
B4 Fe1 B14 . . . 50.34(19)
B4 Fe1 B6 1_556 . 3_555 176.3(2)
B4 Fe1 B6 1_556 . 3_556 97.1(2)
B4 Fe1 B7 1_556 . . 85.7(2)
B4 Fe1 B12 1_556 . 3_556 96.0(3)
B4 Fe1 B13 1_556 . 3_556 133.05(17)
B4 Fe1 B14 1_556 . . 50.34(19)
B6 Fe1 B6 3_555 . 3_556 84.6(2)
B6 Fe1 B7 3_555 . . 91.0(2)
B6 Fe1 B12 3_555 . 3_556 87.3(3)
B6 Fe1 B13 3_555 . 3_556 50.40(17)
B6 Fe1 B14 3_555 . . 126.07(19)
B6 Fe1 B7 3_556 . . 91.0(2)
B6 Fe1 B12 3_556 . 3_556 87.3(3)
B6 Fe1 B13 3_556 . 3_556 50.40(17)
B6 Fe1 B14 3_556 . . 126.07(19)
B7 Fe1 B12 . . 3_556 177.7(3)
B7 Fe1 B13 . . 3_556 121.8(3)
B7 Fe1 B14 . . . 51.4(3)
B12 Fe1 B13 3_556 . 3_556 56.0(3)
B12 Fe1 B14 3_556 . . 130.8(3)
B13 Fe1 B14 3_556 . . 173.2(3)
Fe2 Fe2 Fe2 1_554 . 1_556 180.0(5)
Fe2 Fe2 B4 1_554 . . 90.00(2)
Fe2 Fe2 B6 1_554 . . 90.00(3)
Fe2 Fe2 B8 1_554 . . 90.00(3)
Fe2 Fe2 B9 1_554 . 3_545 90.00(2)
Fe2 Fe2 B10 1_554 . 1_554 50.24(12)
Fe2 Fe2 B10 1_554 . . 129.76(13)
Fe2 Fe2 B11 1_554 . 1_554 51.08(13)
Fe2 Fe2 B11 1_554 . . 128.92(14)
Fe2 Fe2 B13 1_554 . 1_554 50.02(14)
Fe2 Fe2 B13 1_554 . . 129.98(14)
Fe2 Fe2 B14 1_554 . 1_554 47.01(13)
Fe2 Fe2 B14 1_554 . . 132.99(14)
Fe2 Fe2 B4 1_556 . . 90.00(2)
Fe2 Fe2 B6 1_556 . . 90.00(3)
Fe2 Fe2 B8 1_556 . . 90.00(3)
Fe2 Fe2 B9 1_556 . 3_545 90.00(2)
Fe2 Fe2 B10 1_556 . 1_554 129.76(13)
Fe2 Fe2 B10 1_556 . . 50.24(12)
Fe2 Fe2 B11 1_556 . 1_554 128.92(14)
Fe2 Fe2 B11 1_556 . . 51.08(13)
Fe2 Fe2 B13 1_556 . 1_554 129.98(14)
Fe2 Fe2 B13 1_556 . . 50.02(14)
Fe2 Fe2 B14 1_556 . 1_554 132.99(14)
Fe2 Fe2 B14 1_556 . . 47.01(13)
B4 Fe2 B6 . . . 128.1(3)
B4 Fe2 B8 . . . 57.2(3)
B4 Fe2 B9 . . 3_545 179.7(3)
B4 Fe2 B10 . . 1_554 130.18(19)
B4 Fe2 B10 . . . 130.18(19)
B4 Fe2 B11 . . 1_554 87.8(2)
B4 Fe2 B11 . . . 87.8(2)
B4 Fe2 B13 . . 1_554 92.6(3)
B4 Fe2 B13 . . . 92.6(3)
B4 Fe2 B14 . . 1_554 50.84(18)
B4 Fe2 B14 . . . 50.84(18)
B6 Fe2 B8 . . . 174.8(3)
B6 Fe2 B9 . . 3_545 51.7(3)
B6 Fe2 B10 . . 1_554 86.1(3)
B6 Fe2 B10 . . . 86.1(3)
B6 Fe2 B11 . . 1_554 129.47(19)
B6 Fe2 B11 . . . 129.47(19)
B6 Fe2 B13 . . 1_554 51.0(2)
B6 Fe2 B13 . . . 51.0(2)
B6 Fe2 B14 . . 1_554 95.7(3)
B6 Fe2 B14 . . . 95.7(3)
B8 Fe2 B9 . . 3_545 123.1(3)
B8 Fe2 B10 . . 1_554 89.9(3)
B8 Fe2 B10 . . . 89.9(3)
B8 Fe2 B11 . . 1_554 47.63(19)
B8 Fe2 B11 . . . 47.63(19)
B8 Fe2 B13 . . 1_554 131.82(19)
B8 Fe2 B13 . . . 131.82(19)
B8 Fe2 B14 . . 1_554 88.1(3)
B8 Fe2 B14 . . . 88.1(3)
B9 Fe2 B10 3_545 . 1_554 49.96(19)
B9 Fe2 B10 3_545 . . 49.96(19)
B9 Fe2 B11 3_545 . 1_554 92.4(2)
B9 Fe2 B11 3_545 . . 92.4(2)
B9 Fe2 B13 3_545 . 1_554 87.2(2)
B9 Fe2 B13 3_545 . . 87.2(2)
B9 Fe2 B14 3_545 . 1_554 129.04(18)
B9 Fe2 B14 3_545 . . 129.04(18)
B10 Fe2 B10 1_554 . . 79.51(18)
B10 Fe2 B11 1_554 . 1_554 45.5(2)
B10 Fe2 B11 1_554 . . 95.9(2)
B10 Fe2 B13 1_554 . 1_554 83.1(2)
B10 Fe2 B13 1_554 . . 134.6(2)
B10 Fe2 B14 1_554 . 1_554 97.22(18)
B10 Fe2 B14 1_554 . . 176.2(2)
B10 Fe2 B11 . . 1_554 95.9(2)
B10 Fe2 B11 . . . 45.5(2)
B10 Fe2 B13 . . 1_554 134.6(2)
B10 Fe2 B13 . . . 83.1(2)
B10 Fe2 B14 . . 1_554 176.2(2)
B10 Fe2 B14 . . . 97.22(18)
B11 Fe2 B11 1_554 . . 77.84(19)
B11 Fe2 B13 1_554 . 1_554 101.09(19)
B11 Fe2 B13 1_554 . . 178.9(2)
B11 Fe2 B14 1_554 . 1_554 80.4(2)
B11 Fe2 B14 1_554 . . 133.7(2)
B11 Fe2 B13 . . 1_554 178.9(2)
B11 Fe2 B13 . . . 101.09(19)
B11 Fe2 B14 . . 1_554 133.7(2)
B11 Fe2 B14 . . . 80.4(2)
B13 Fe2 B13 1_554 . . 80.0(2)
B13 Fe2 B14 1_554 . 1_554 46.2(2)
B13 Fe2 B14 1_554 . . 100.6(3)
B13 Fe2 B14 . . 1_554 100.6(3)
B13 Fe2 B14 . . . 46.2(2)
B14 Fe2 B14 1_554 . . 85.98(19)
Fe3 Fe3 Fe3 1_554 . 1_556 180.0(5)
Fe3 Fe3 Fe3 1_554 . 2_655 90.00(3)
Fe3 Fe3 Fe4 1_554 . . 56.04(2)
Fe3 Fe3 Fe4 1_554 . 1_556 123.96(4)
Fe3 Fe3 B1 1_554 . . 50.77(14)
Fe3 Fe3 B1 1_554 . 1_556 129.23(15)
Fe3 Fe3 B2 1_554 . 3_545 47.62(12)
Fe3 Fe3 B2 1_554 . 3_546 132.38(13)
Fe3 Fe3 B2 1_554 . 4_555 47.17(16)
Fe3 Fe3 B2 1_554 . 4_556 132.83(17)
Fe3 Fe3 B8 1_554 . 4_555 46.19(16)
Fe3 Fe3 B8 1_554 . 4_556 133.81(17)
Fe3 Fe3 B11 1_554 . 4_556 90.00(2)
Fe3 Fe3 B12 1_554 . . 90.00(3)
Fe3 Fe3 Fe3 1_556 . 2_655 90.00(3)
Fe3 Fe3 Fe4 1_556 . . 123.96(4)
Fe3 Fe3 Fe4 1_556 . 1_556 56.04(2)
Fe3 Fe3 B1 1_556 . . 129.23(15)
Fe3 Fe3 B1 1_556 . 1_556 50.77(14)
Fe3 Fe3 B2 1_556 . 3_545 132.38(13)
Fe3 Fe3 B2 1_556 . 3_546 47.62(12)
Fe3 Fe3 B2 1_556 . 4_555 132.83(17)
Fe3 Fe3 B2 1_556 . 4_556 47.17(16)
Fe3 Fe3 B8 1_556 . 4_555 133.81(17)
Fe3 Fe3 B8 1_556 . 4_556 46.19(16)
Fe3 Fe3 B11 1_556 . 4_556 90.00(2)
Fe3 Fe3 B12 1_556 . . 90.00(3)
Fe3 Fe3 Fe4 2_655 . . 144.871(19)
Fe3 Fe3 Fe4 2_655 . 1_556 144.871(19)
Fe3 Fe3 B1 2_655 . . 95.86(18)
Fe3 Fe3 B1 2_655 . 1_556 95.86(18)
Fe3 Fe3 B2 2_655 . 3_545 52.86(19)
Fe3 Fe3 B2 2_655 . 3_546 52.86(19)
Fe3 Fe3 B2 2_655 . 4_555 53.52(16)
Fe3 Fe3 B2 2_655 . 4_556 53.52(16)
Fe3 Fe3 B8 2_655 . 4_555 99.1(2)
Fe3 Fe3 B8 2_655 . 4_556 99.1(2)
Fe3 Fe3 B11 2_655 . 4_556 127.9(2)
Fe3 Fe3 B12 2_655 . . 126.45(18)
Fe4 Fe3 Fe4 . . 1_556 67.92(3)
Fe4 Fe3 B1 . . . 57.13(17)
Fe4 Fe3 B1 . . 1_556 99.43(18)
Fe4 Fe3 B2 . . 3_545 93.35(17)
Fe4 Fe3 B2 . . 3_546 144.2(2)
Fe4 Fe3 B2 . . 4_555 99.54(15)
Fe4 Fe3 B2 . . 4_556 157.72(19)
Fe4 Fe3 B8 . . 4_555 65.2(2)
Fe4 Fe3 B8 . . 4_556 110.7(2)
Fe4 Fe3 B11 . . 4_556 66.81(18)
Fe4 Fe3 B12 . . . 53.35(13)
Fe4 Fe3 B1 1_556 . . 99.43(18)
Fe4 Fe3 B1 1_556 . 1_556 57.13(17)
Fe4 Fe3 B2 1_556 . 3_545 144.2(2)
Fe4 Fe3 B2 1_556 . 3_546 93.35(17)
Fe4 Fe3 B2 1_556 . 4_555 157.72(19)
Fe4 Fe3 B2 1_556 . 4_556 99.54(15)
Fe4 Fe3 B8 1_556 . 4_555 110.7(2)
Fe4 Fe3 B8 1_556 . 4_556 65.2(2)
Fe4 Fe3 B11 1_556 . 4_556 66.81(18)
Fe4 Fe3 B12 1_556 . . 53.35(13)
B1 Fe3 B1 . . 1_556 78.5(2)
B1 Fe3 B2 . . 3_545 46.3(3)
B1 Fe3 B2 . . 3_546 99.3(2)
B1 Fe3 B2 . . 4_555 87.7(3)
B1 Fe3 B2 . . 4_556 145.1(3)
B1 Fe3 B8 . . 4_555 95.0(2)
B1 Fe3 B8 . . 4_556 164.2(3)
B1 Fe3 B11 . . 4_556 122.9(2)
B1 Fe3 B12 . . . 47.28(19)
B1 Fe3 B2 1_556 . 3_545 99.3(2)
B1 Fe3 B2 1_556 . 3_546 46.3(3)
B1 Fe3 B2 1_556 . 4_555 145.1(3)
B1 Fe3 B2 1_556 . 4_556 87.7(3)
B1 Fe3 B8 1_556 . 4_555 164.2(3)
B1 Fe3 B8 1_556 . 4_556 95.0(2)
B1 Fe3 B11 1_556 . 4_556 122.9(2)
B1 Fe3 B12 1_556 . . 47.28(19)
B2 Fe3 B2 3_545 . 3_546 84.77(18)
B2 Fe3 B2 3_545 . 4_555 50.6(3)
B2 Fe3 B2 3_545 . 4_556 106.4(2)
B2 Fe3 B8 3_545 . 4_555 85.9(2)
B2 Fe3 B8 3_545 . 4_556 149.5(3)
B2 Fe3 B11 3_545 . 4_556 134.97(17)
B2 Fe3 B12 3_545 . . 90.9(3)
B2 Fe3 B2 3_546 . 4_555 106.4(2)
B2 Fe3 B2 3_546 . 4_556 50.6(3)
B2 Fe3 B8 3_546 . 4_555 149.5(3)
B2 Fe3 B8 3_546 . 4_556 85.9(2)
B2 Fe3 B11 3_546 . 4_556 134.97(17)
B2 Fe3 B12 3_546 . . 90.9(3)
B2 Fe3 B2 4_555 . 4_556 85.7(2)
B2 Fe3 B8 4_555 . 4_555 47.3(3)
B2 Fe3 B8 4_555 . 4_556 105.2(3)
B2 Fe3 B11 4_555 . 4_556 91.5(3)
B2 Fe3 B12 4_555 . . 134.31(19)
B2 Fe3 B8 4_556 . 4_555 105.2(3)
B2 Fe3 B8 4_556 . 4_556 47.3(3)
B2 Fe3 B11 4_556 . 4_556 91.5(3)
B2 Fe3 B12 4_556 . . 134.31(19)
B8 Fe3 B8 4_555 . 4_556 87.6(2)
B8 Fe3 B11 4_555 . 4_556 49.25(18)
B8 Fe3 B12 4_555 . . 118.2(3)
B8 Fe3 B11 4_556 . 4_556 49.25(18)
B8 Fe3 B12 4_556 . . 118.2(3)
B11 Fe3 B12 4_556 . . 105.6(3)
Fe3 Fe4 Fe3 1_554 . . 67.92(3)
Fe3 Fe4 Fe4 1_554 . 1_554 56.04(2)
Fe3 Fe4 Fe4 1_554 . 1_556 123.96(4)
Fe3 Fe4 B1 1_554 . . 54.94(16)
Fe3 Fe4 B3 1_554 . . 144.75(6)
Fe3 Fe4 B5 1_554 . 1_554 82.26(16)
Fe3 Fe4 B5 1_554 . . 125.3(2)
Fe3 Fe4 B7 1_554 . 1_554 95.01(14)
Fe3 Fe4 B7 1_554 . . 143.87(17)
Fe3 Fe4 B9 1_554 . . 128.82(16)
Fe3 Fe4 B12 1_554 . 1_554 53.8(2)
Fe3 Fe4 B12 1_554 . . 98.79(17)
Fe3 Fe4 Fe4 . . 1_554 123.96(4)
Fe3 Fe4 Fe4 . . 1_556 56.04(2)
Fe3 Fe4 B1 . . . 54.94(16)
Fe3 Fe4 B3 . . . 144.75(6)
Fe3 Fe4 B5 . . 1_554 125.3(2)
Fe3 Fe4 B5 . . . 82.26(16)
Fe3 Fe4 B7 . . 1_554 143.87(17)
Fe3 Fe4 B7 . . . 95.01(14)
Fe3 Fe4 B9 . . . 128.82(16)
Fe3 Fe4 B12 . . 1_554 98.79(17)
Fe3 Fe4 B12 . . . 53.8(2)
Fe4 Fe4 Fe4 1_554 . 1_556 180.0(5)
Fe4 Fe4 B1 1_554 . . 90.00(2)
Fe4 Fe4 B3 1_554 . . 90.00(3)
Fe4 Fe4 B5 1_554 . 1_554 50.41(12)
Fe4 Fe4 B5 1_554 . . 129.59(12)
Fe4 Fe4 B7 1_554 . 1_554 49.85(14)
Fe4 Fe4 B7 1_554 . . 130.15(14)
Fe4 Fe4 B9 1_554 . . 90.00(2)
Fe4 Fe4 B12 1_554 . 1_554 48.30(13)
Fe4 Fe4 B12 1_554 . . 131.70(13)
Fe4 Fe4 B1 1_556 . . 90.00(2)
Fe4 Fe4 B3 1_556 . . 90.00(3)
Fe4 Fe4 B5 1_556 . 1_554 129.59(12)
Fe4 Fe4 B5 1_556 . . 50.41(12)
Fe4 Fe4 B7 1_556 . 1_554 130.15(14)
Fe4 Fe4 B7 1_556 . . 49.85(14)
Fe4 Fe4 B9 1_556 . . 90.00(2)
Fe4 Fe4 B12 1_556 . 1_554 131.70(13)
Fe4 Fe4 B12 1_556 . . 48.30(13)
B1 Fe4 B3 . . . 123.8(3)
B1 Fe4 B5 . . 1_554 134.94(16)
B1 Fe4 B5 . . . 134.94(16)
B1 Fe4 B7 . . 1_554 89.0(2)
B1 Fe4 B7 . . . 89.0(2)
B1 Fe4 B9 . . . 174.7(3)
B1 Fe4 B12 . . 1_554 46.64(16)
B1 Fe4 B12 . . . 46.64(16)
B3 Fe4 B5 . . 1_554 82.2(3)
B3 Fe4 B5 . . . 82.2(3)
B3 Fe4 B7 . . 1_554 51.26(19)
B3 Fe4 B7 . . . 51.26(19)
B3 Fe4 B9 . . . 51.0(3)
B3 Fe4 B12 . . 1_554 97.9(3)
B3 Fe4 B12 . . . 97.9(3)
B5 Fe4 B5 1_554 . . 79.17(17)
B5 Fe4 B7 1_554 . 1_554 80.6(2)
B5 Fe4 B7 1_554 . . 131.2(2)
B5 Fe4 B9 1_554 . . 47.54(18)
B5 Fe4 B12 1_554 . 1_554 98.71(17)
B5 Fe4 B12 1_554 . . 177.86(19)
B5 Fe4 B7 . . 1_554 131.2(2)
B5 Fe4 B7 . . . 80.6(2)
B5 Fe4 B9 . . . 47.54(18)
B5 Fe4 B12 . . 1_554 177.86(19)
B5 Fe4 B12 . . . 98.71(17)
B7 Fe4 B7 1_554 . . 80.30(19)
B7 Fe4 B9 1_554 . . 86.9(2)
B7 Fe4 B12 1_554 . 1_554 48.3(2)
B7 Fe4 B12 1_554 . . 101.1(3)
B7 Fe4 B9 . . . 86.9(2)
B7 Fe4 B12 . . 1_554 101.1(3)
B7 Fe4 B12 . . . 48.3(2)
B9 Fe4 B12 . . 1_554 131.05(18)
B9 Fe4 B12 . . . 131.05(18)
B12 Fe4 B12 1_554 . . 83.40(18)
Fe1 B1 Fe1 3_545 . 3_546 79.5(3)
Fe1 B1 Fe3 3_545 . 1_554 100.37(4)
Fe1 B1 Fe3 3_545 . . 171.5(4)
Fe1 B1 Fe4 3_545 . . 119.6(3)
Fe1 B1 B2 3_545 . 3_545 109.3(3)
Fe1 B1 B12 3_545 . 1_554 60.7(3)
Fe1 B1 B12 3_545 . . 122.7(5)
Fe1 B1 Fe3 3_546 . 1_554 171.5(4)
Fe1 B1 Fe3 3_546 . . 100.37(4)
Fe1 B1 Fe4 3_546 . . 119.6(3)
Fe1 B1 B2 3_546 . 3_545 109.3(3)
Fe1 B1 B12 3_546 . 1_554 122.7(5)
Fe1 B1 B12 3_546 . . 60.7(3)
Fe3 B1 Fe3 1_554 . . 78.5(3)
Fe3 B1 Fe4 1_554 . . 67.9(2)
Fe3 B1 B2 1_554 . 3_545 62.6(3)
Fe3 B1 B12 1_554 . 1_554 63.4(3)
Fe3 B1 B12 1_554 . . 124.8(4)
Fe3 B1 Fe4 . . . 67.9(2)
Fe3 B1 B2 . . 3_545 62.6(3)
Fe3 B1 B12 . . 1_554 124.8(4)
Fe3 B1 B12 . . . 63.4(3)
Fe4 B1 B2 . . 3_545 114.5(5)
Fe4 B1 B12 . . 1_554 61.6(3)
Fe4 B1 B12 . . . 61.6(3)
B2 B1 B12 3_545 . 1_554 121.3(4)
B2 B1 B12 3_545 . . 121.3(4)
B12 B1 B12 1_554 . . 107.2(5)
Fe3 B2 Fe3 3_555 . 3_556 84.8(2)
Fe3 B2 Fe3 3_555 . 4_455 73.62(15)
Fe3 B2 Fe3 3_555 . 4_456 129.4(4)
Fe3 B2 B1 3_555 . 3_555 71.2(3)
Fe3 B2 B2 3_555 . 2_565 64.2(3)
Fe3 B2 B4 3_555 . . 117.2(4)
Fe3 B2 B8 3_555 . . 135.3(2)
Fe3 B2 Fe3 3_556 . 4_455 129.4(4)
Fe3 B2 Fe3 3_556 . 4_456 73.62(15)
Fe3 B2 B1 3_556 . 3_555 71.2(3)
Fe3 B2 B2 3_556 . 2_565 64.2(3)
Fe3 B2 B4 3_556 . . 117.2(4)
Fe3 B2 B8 3_556 . . 135.3(2)
Fe3 B2 Fe3 4_455 . 4_456 85.7(3)
Fe3 B2 B1 4_455 . 3_555 136.71(16)
Fe3 B2 B2 4_455 . 2_565 65.2(3)
Fe3 B2 B4 4_455 . . 113.4(3)
Fe3 B2 B8 4_455 . . 65.2(3)
Fe3 B2 B1 4_456 . 3_555 136.71(16)
Fe3 B2 B2 4_456 . 2_565 65.2(3)
Fe3 B2 B4 4_456 . . 113.4(3)
Fe3 B2 B8 4_456 . . 65.2(3)
B1 B2 B2 3_555 . 2_565 117.9(5)
B1 B2 B4 3_555 . . 64.1(5)
B1 B2 B8 3_555 . . 131.9(7)
B2 B2 B4 2_565 . . 178.0(6)
B2 B2 B8 2_565 . . 110.2(6)
B4 B2 B8 . . . 67.8(5)
Fe1 B3 Fe1 1_554 . . 83.4(3)
Fe1 B3 Fe4 1_554 . . 136.66(14)
Fe1 B3 B6 1_554 . 3_555 66.6(3)
Fe1 B3 B7 1_554 . 1_554 67.2(3)
Fe1 B3 B7 1_554 . . 131.2(5)
Fe1 B3 B9 1_554 . . 112.2(3)
Fe1 B3 Fe4 . . . 136.66(14)
Fe1 B3 B6 . . 3_555 66.6(3)
Fe1 B3 B7 . . 1_554 131.2(5)
Fe1 B3 B7 . . . 67.2(3)
Fe1 B3 B9 . . . 112.2(3)
Fe4 B3 B6 . . 3_555 135.1(6)
Fe4 B3 B7 . . 1_554 72.0(3)
Fe4 B3 B7 . . . 72.0(3)
Fe4 B3 B9 . . . 72.5(4)
B6 B3 B7 3_555 . 1_554 126.6(3)
B6 B3 B7 3_555 . . 126.6(3)
B6 B3 B9 3_555 . . 62.6(4)
B7 B3 B7 1_554 . . 103.7(4)
B7 B3 B9 1_554 . . 114.7(4)
B7 B3 B9 . . . 114.7(4)
Fe1 B4 Fe1 1_554 . . 81.0(3)
Fe1 B4 Fe2 1_554 . . 122.9(3)
Fe1 B4 B2 1_554 . . 107.4(3)
Fe1 B4 B14 1_554 . 1_554 58.9(3)
Fe1 B4 B14 1_554 . . 121.2(5)
Fe1 B4 Fe2 . . . 122.9(3)
Fe1 B4 B2 . . . 107.4(3)
Fe1 B4 B14 . . 1_554 121.2(5)
Fe1 B4 B14 . . . 58.9(3)
Fe2 B4 B2 . . . 111.3(5)
Fe2 B4 B14 . . 1_554 64.9(3)
Fe2 B4 B14 . . . 64.9(3)
B2 B4 B14 . . 1_554 123.8(3)
B2 B4 B14 . . . 123.8(3)
B14 B4 B14 1_554 . . 105.6(4)
Fe4 B5 Fe4 . . 1_556 79.2(2)
Fe4 B5 B9 . . . 65.8(2)
Fe4 B5 B9 . . 1_556 126.9(5)
Fe4 B5 B10 . . 3_556 131.0(3)
Fe4 B5 B10 . . 4_556 123.4(3)
Fe4 B5 B11 . . 4_556 80.4(3)
Fe4 B5 B9 1_556 . . 126.9(5)
Fe4 B5 B9 1_556 . 1_556 65.8(2)
Fe4 B5 B10 1_556 . 3_556 131.0(3)
Fe4 B5 B10 1_556 . 4_556 123.4(3)
Fe4 B5 B11 1_556 . 4_556 80.4(3)
B9 B5 B9 . . 1_556 104.9(5)
B9 B5 B10 . . 3_556 65.3(3)
B9 B5 B10 . . 4_556 109.2(4)
B9 B5 B11 . . 4_556 127.5(3)
B9 B5 B10 1_556 . 3_556 65.3(3)
B9 B5 B10 1_556 . 4_556 109.2(4)
B9 B5 B11 1_556 . 4_556 127.5(3)
B10 B5 B10 3_556 . 4_556 76.1(5)
B10 B5 B11 3_556 . 4_556 134.1(6)
B10 B5 B11 4_556 . 4_556 58.1(4)
Fe1 B6 Fe1 3_545 . 3_546 84.6(3)
Fe1 B6 Fe2 3_545 . . 135.62(14)
Fe1 B6 B3 3_545 . 3_545 68.2(3)
Fe1 B6 B9 3_545 . 3_545 114.0(3)
Fe1 B6 B13 3_545 . 1_554 64.6(3)
Fe1 B6 B13 3_545 . . 129.6(5)
Fe1 B6 Fe2 3_546 . . 135.62(14)
Fe1 B6 B3 3_546 . 3_545 68.2(3)
Fe1 B6 B9 3_546 . 3_545 114.0(3)
Fe1 B6 B13 3_546 . 1_554 129.6(5)
Fe1 B6 B13 3_546 . . 64.6(3)
Fe2 B6 B3 . . 3_545 135.0(6)
Fe2 B6 B9 . . 3_545 71.5(4)
Fe2 B6 B13 . . 1_554 73.2(3)
Fe2 B6 B13 . . . 73.2(3)
B3 B6 B9 3_545 . 3_545 63.5(4)
B3 B6 B13 3_545 . 1_554 125.8(3)
B3 B6 B13 3_545 . . 125.8(3)
B9 B6 B13 3_545 . 1_554 114.8(4)
B9 B6 B13 3_545 . . 114.8(4)
B13 B6 B13 1_554 . . 104.7(4)
Fe1 B7 Fe4 . . . 118.7(2)
Fe1 B7 Fe4 . . 1_556 118.7(2)
Fe1 B7 B3 . . . 63.6(3)
Fe1 B7 B3 . . 1_556 63.6(3)
Fe1 B7 B12 . . . 176.4(5)
Fe1 B7 B14 . . . 58.2(3)
Fe4 B7 Fe4 . . 1_556 80.3(3)
Fe4 B7 B3 . . . 56.7(3)
Fe4 B7 B3 . . 1_556 117.7(5)
Fe4 B7 B12 . . . 63.8(3)
Fe4 B7 B14 . . . 139.33(15)
Fe4 B7 B3 1_556 . . 117.7(5)
Fe4 B7 B3 1_556 . 1_556 56.7(3)
Fe4 B7 B12 1_556 . . 63.8(3)
Fe4 B7 B14 1_556 . . 139.33(15)
B3 B7 B3 . . 1_556 103.7(4)
B3 B7 B12 . . . 118.1(4)
B3 B7 B14 . . . 97.5(4)
B3 B7 B12 1_556 . . 118.1(4)
B3 B7 B14 1_556 . . 97.5(4)
B12 B7 B14 . . . 118.1(5)
Fe2 B8 Fe3 . . 4_455 136.16(16)
Fe2 B8 Fe3 . . 4_456 136.16(16)
Fe2 B8 B2 . . . 123.8(6)
Fe2 B8 B11 . . 1_554 75.2(4)
Fe2 B8 B11 . . . 75.2(4)
Fe3 B8 Fe3 4_455 . 4_456 87.6(3)
Fe3 B8 B2 4_455 . . 67.5(3)
Fe3 B8 B11 4_455 . 1_554 66.7(3)
Fe3 B8 B11 4_455 . . 137.9(6)
Fe3 B8 B2 4_456 . . 67.5(3)
Fe3 B8 B11 4_456 . 1_554 137.9(6)
Fe3 B8 B11 4_456 . . 66.7(3)
B2 B8 B11 . . 1_554 124.4(3)
B2 B8 B11 . . . 124.4(3)
B11 B8 B11 1_554 . . 110.6(5)
Fe2 B9 Fe4 3_555 . . 167.3(4)
Fe2 B9 B3 3_555 . . 110.8(4)
Fe2 B9 B5 3_555 . 1_554 119.3(3)
Fe2 B9 B5 3_555 . . 119.3(3)
Fe2 B9 B6 3_555 . 3_555 56.8(3)
Fe2 B9 B10 3_555 . 3_555 66.6(3)
Fe2 B9 B10 3_555 . 3_556 66.6(3)
Fe4 B9 B3 . . . 56.5(3)
Fe4 B9 B5 . . 1_554 66.6(3)
Fe4 B9 B5 . . . 66.6(3)
Fe4 B9 B6 . . 3_555 110.5(4)
Fe4 B9 B10 . . 3_555 119.9(3)
Fe4 B9 B10 . . 3_556 119.9(3)
B3 B9 B5 . . 1_554 99.6(4)
B3 B9 B5 . . . 99.6(4)
B3 B9 B6 . . 3_555 54.0(4)
B3 B9 B10 . . 3_555 127.8(3)
B3 B9 B10 . . 3_556 127.8(3)
B5 B9 B5 1_554 . . 104.9(5)
B5 B9 B6 1_554 . 3_555 124.9(3)
B5 B9 B10 1_554 . 3_555 53.3(3)
B5 B9 B10 1_554 . 3_556 128.2(6)
B5 B9 B6 . . 3_555 124.9(3)
B5 B9 B10 . . 3_555 128.2(6)
B5 B9 B10 . . 3_556 53.3(3)
B6 B9 B10 3_555 . 3_555 101.8(4)
B6 B9 B10 3_555 . 3_556 101.8(4)
B10 B9 B10 3_555 . 3_556 100.1(4)
Fe2 B10 Fe2 . . 1_556 79.5(2)
Fe2 B10 B5 . . 3_546 124.1(4)
Fe2 B10 B5 . . 4_456 112.0(3)
Fe2 B10 B9 . . 3_545 63.4(2)
Fe2 B10 B9 . . 3_546 122.2(5)
Fe2 B10 B11 . . . 68.5(3)
Fe2 B10 B5 1_556 . 3_546 124.1(4)
Fe2 B10 B5 1_556 . 4_456 112.0(3)
Fe2 B10 B9 1_556 . 3_545 122.2(5)
Fe2 B10 B9 1_556 . 3_546 63.4(2)
Fe2 B10 B11 1_556 . . 68.5(3)
B5 B10 B5 3_546 . 4_456 103.9(5)
B5 B10 B9 3_546 . 3_545 61.4(3)
B5 B10 B9 3_546 . 3_546 61.4(3)
B5 B10 B11 3_546 . . 161.6(7)
B5 B10 B9 4_456 . 3_545 122.1(4)
B5 B10 B9 4_456 . 3_546 122.1(4)
B5 B10 B11 4_456 . . 57.7(4)
B9 B10 B9 3_545 . 3_546 100.1(4)
B9 B10 B11 3_545 . . 126.1(3)
B9 B10 B11 3_546 . . 126.1(3)
Fe2 B11 Fe2 . . 1_556 77.8(3)
Fe2 B11 Fe3 . . 4_456 117.6(2)
Fe2 B11 B5 . . 4_456 114.9(3)
Fe2 B11 B8 . . . 57.2(3)
Fe2 B11 B8 . . 1_556 119.4(5)
Fe2 B11 B10 . . . 66.1(3)
Fe2 B11 Fe3 1_556 . 4_456 117.6(2)
Fe2 B11 B5 1_556 . 4_456 114.9(3)
Fe2 B11 B8 1_556 . . 119.4(5)
Fe2 B11 B8 1_556 . 1_556 57.2(3)
Fe2 B11 B10 1_556 . . 66.1(3)
Fe3 B11 B5 4_456 . 4_456 110.6(5)
Fe3 B11 B8 4_456 . . 64.1(3)
Fe3 B11 B8 4_456 . 1_556 64.1(3)
Fe3 B11 B10 4_456 . . 174.9(6)
B5 B11 B8 4_456 . . 119.7(4)
B5 B11 B8 4_456 . 1_556 119.7(4)
B5 B11 B10 4_456 . . 64.2(4)
B8 B11 B8 . . 1_556 110.6(4)
B8 B11 B10 . . . 117.9(4)
B8 B11 B10 1_556 . . 117.9(4)
Fe1 B12 Fe3 3_546 . . 109.5(3)
Fe1 B12 Fe4 3_546 . . 138.16(12)
Fe1 B12 Fe4 3_546 . 1_556 138.16(12)
Fe1 B12 B1 3_546 . . 70.7(3)
Fe1 B12 B1 3_546 . 1_556 70.7(3)
Fe1 B12 B7 3_546 . . 124.1(5)
Fe3 B12 Fe4 . . . 72.8(2)
Fe3 B12 Fe4 . . 1_556 72.8(2)
Fe3 B12 B1 . . . 69.3(4)
Fe3 B12 B1 . . 1_556 69.3(4)
Fe3 B12 B7 . . . 126.4(5)
Fe4 B12 Fe4 . . 1_556 83.4(3)
Fe4 B12 B1 . . . 71.7(2)
Fe4 B12 B1 . . 1_556 139.3(5)
Fe4 B12 B7 . . . 67.8(3)
Fe4 B12 B1 1_556 . . 139.3(5)
Fe4 B12 B1 1_556 . 1_556 71.7(2)
Fe4 B12 B7 1_556 . . 67.8(3)
B1 B12 B1 . . 1_556 107.2(5)
B1 B12 B7 . . . 126.4(3)
B1 B12 B7 1_556 . . 126.4(3)
Fe1 B13 Fe2 3_546 . . 119.3(2)
Fe1 B13 Fe2 3_546 . 1_556 119.3(2)
Fe1 B13 B6 3_546 . . 65.0(3)
Fe1 B13 B6 3_546 . 1_556 65.0(3)
Fe1 B13 B14 3_546 . . 176.8(6)
Fe2 B13 Fe2 . . 1_556 80.0(3)
Fe2 B13 B6 . . . 55.8(3)
Fe2 B13 B6 . . 1_556 117.1(5)
Fe2 B13 B14 . . . 62.9(3)
Fe2 B13 B6 1_556 . . 117.1(5)
Fe2 B13 B6 1_556 . 1_556 55.8(3)
Fe2 B13 B14 1_556 . . 62.9(3)
B6 B13 B6 . . 1_556 104.7(4)
B6 B13 B14 . . . 116.5(4)
B6 B13 B14 1_556 . . 116.5(4)
Fe1 B14 Fe2 . . . 133.84(16)
Fe1 B14 Fe2 . . 1_556 133.84(16)
Fe1 B14 B4 . . . 70.8(3)
Fe1 B14 B4 . . 1_556 70.8(3)
Fe1 B14 B7 . . . 70.3(3)
Fe1 B14 B13 . . . 135.3(5)
Fe2 B14 Fe2 . . 1_556 86.0(3)
Fe2 B14 B4 . . . 64.2(2)
Fe2 B14 B4 . . 1_556 130.7(5)
Fe2 B14 B7 . . . 117.0(3)
Fe2 B14 B13 . . . 70.9(3)
Fe2 B14 B4 1_556 . . 130.7(5)
Fe2 B14 B4 1_556 . 1_556 64.2(2)
Fe2 B14 B7 1_556 . . 117.0(3)
Fe2 B14 B13 1_556 . . 70.9(3)
B4 B14 B4 . . 1_556 105.6(4)
B4 B14 B7 . . . 111.5(4)
B4 B14 B13 . . . 126.2(2)
B4 B14 B7 1_556 . . 111.5(4)
B4 B14 B13 1_556 . . 126.2(2)
B7 B14 B13 . . . 65.0(4)
loop_
_geom_bond_atom_site_label_1
_geom_bond_atom_site_label_2
_geom_bond_site_symmetry_1
_geom_bond_site_symmetry_2
_geom_bond_distance
Fe1 Fe1 . 1_554 2.8464(2)
Fe1 Fe1 . 1_556 2.8464(2)
Fe1 B1 . 3_555 2.225(6)
Fe1 B1 . 3_556 2.225(6)
Fe1 B3 . . 2.138(6)
Fe1 B3 . 1_556 2.138(6)
Fe1 B4 . . 2.192(6)
Fe1 B4 . 1_556 2.192(6)
Fe1 B6 . 3_555 2.114(6)
Fe1 B6 . 3_556 2.114(6)
Fe1 B7 . . 2.201(7)
Fe1 B12 . 3_556 2.056(7)
Fe1 B13 . 3_556 2.107(7)
Fe1 B14 . . 1.987(7)
Fe2 Fe2 . 1_554 2.8464(2)
Fe2 Fe2 . 1_556 2.8464(2)
Fe2 B4 . . 2.076(6)
Fe2 B6 . . 1.913(7)
Fe2 B8 . . 1.969(8)
Fe2 B9 . 3_545 2.168(6)
Fe2 B10 . 1_554 2.225(6)
Fe2 B10 . . 2.225(6)
Fe2 B11 . 1_554 2.265(6)
Fe2 B11 . . 2.265(6)
Fe2 B13 . 1_554 2.215(6)
Fe2 B13 . . 2.215(6)
Fe2 B14 . 1_554 2.087(5)
Fe2 B14 . . 2.087(5)
Fe3 Fe3 . 1_554 2.8464(2)
Fe3 Fe3 . 1_556 2.8464(2)
Fe3 Fe3 . 2_655 2.5192(13)
Fe3 Fe4 . . 2.5477(11)
Fe3 Fe4 . 1_556 2.5477(11)
Fe3 B1 . . 2.251(7)
Fe3 B1 . 1_556 2.251(7)
Fe3 B2 . 3_545 2.111(5)
Fe3 B2 . 3_546 2.111(5)
Fe3 B2 . 4_555 2.093(6)
Fe3 B2 . 4_556 2.093(6)
Fe3 B8 . 4_555 2.056(6)
Fe3 B8 . 4_556 2.056(6)
Fe3 B11 . 4_556 2.098(7)
Fe3 B12 . . 2.152(9)
Fe4 Fe4 . 1_554 2.8464(2)
Fe4 Fe4 . 1_556 2.8464(2)
Fe4 B1 . . 2.309(7)
Fe4 B3 . . 1.941(8)
Fe4 B5 . 1_554 2.233(6)
Fe4 B5 . . 2.233(6)
Fe4 B7 . 1_554 2.207(6)
Fe4 B7 . . 2.207(6)
Fe4 B9 . . 2.219(6)
Fe4 B12 . 1_554 2.139(5)
Fe4 B12 . . 2.139(5)
B1 B2 . 3_545 1.718(12)
B1 B12 . 1_554 1.768(6)
B1 B12 . . 1.768(6)
B2 B2 . 2_565 1.797(12)
B2 B4 . . 1.804(12)
B2 B8 . . 1.664(10)
B3 B6 . 3_555 1.633(9)
B3 B7 . 1_554 1.810(6)
B3 B7 . . 1.810(6)
B3 B9 . . 1.807(11)
B4 B14 . 1_554 1.787(6)
B4 B14 . . 1.787(6)
B5 B9 . . 1.795(7)
B5 B9 . 1_556 1.795(7)
B5 B10 . 3_556 1.638(9)
B5 B10 . 4_556 1.841(12)
B5 B11 . 4_556 1.728(11)
B6 B9 . 3_545 1.793(12)
B6 B13 . 1_554 1.797(6)
B6 B13 . . 1.797(6)
B7 B12 . . 1.781(10)
B7 B14 . . 1.828(11)
B8 B11 . 1_554 1.731(6)
B8 B11 . . 1.731(6)
B9 B10 . 3_555 1.856(7)
B9 B10 . 3_556 1.856(7)
B10 B11 . . 1.735(9)
B13 B14 . . 1.691(10)
loop_
_refln_index_h
_refln_index_k
_refln_index_l
_refln_F_squared_calc
_refln_F_squared_meas
_refln_F_squared_sigma
_refln_observed_status
0 0 1 0.05 0.04 0.57 <
0 0 3 0.80 2.62 5.37 <
0 2 1 28292.30 29034.80 240.61 o
0 2 2 462.16 415.90 23.47 o
0 2 3 6330.74 7558.68 181.66 o
0 4 0 1310.75 1294.15 43.68 o
0 4 1 5728.97 6206.73 125.40 o
0 4 2 516.33 514.11 33.22 o
0 4 3 1761.92 1184.86 51.74 o
0 6 0 461.90 401.75 28.44 o
0 6 1 918.67 934.44 51.83 o
0 6 2 265.55 243.64 34.03 o
0 8 0 43.67 52.43 12.00 o
0 8 1 1557.09 1604.61 72.12 o
0 8 2 21.09 9.75 6.14 <
0 10 0 50.95 72.89 14.48 o
0 10 1 1811.69 1766.53 84.10 o
0 10 2 38.91 41.84 12.14 o
0 12 0 1749.26 1860.84 79.91 o
0 12 1 4062.75 3937.15 152.47 o
0 12 2 1292.33 1351.93 66.15 o
0 14 0 10051.50 8539.18 157.66 o
0 14 1 62.37 87.84 26.14 o
0 14 2 7224.11 7316.57 234.02 o
1 1 1 6431.38 6275.06 57.52 o
1 1 2 759.61 791.59 24.33 o
1 1 3 1536.46 1693.31 55.48 o
1 2 1 644.38 583.55 17.83 o
1 2 2 121.96 101.10 8.43 o
1 2 3 128.77 109.57 13.08 o
1 3 1 6581.43 6311.97 66.00 o
1 3 2 938.88 951.37 30.68 o
1 3 3 1687.81 1633.06 65.03 o
1 4 0 4465.04 3959.40 115.89 o
1 4 1 189.75 180.23 12.79 o
1 4 2 1867.12 1841.56 51.04 o
1 4 3 29.79 15.26 5.62 o
1 5 0 16461.00 15801.40 224.90 o
1 5 1 11.83 18.83 3.95 o
1 5 2 7579.29 8041.23 111.95 o
1 5 3 1.80 5.84 3.91 <
1 6 0 6968.97 6959.09 92.40 o
1 6 1 9980.06 10094.90 119.61 o
1 6 2 3266.96 3462.63 79.65 o
1 6 3 3573.71 3144.60 129.38 o
1 7 0 1583.28 1617.70 45.47 o
1 7 1 66.78 66.64 8.60 o
1 7 2 877.40 865.09 41.18 o
1 7 3 5.08 1.50 43.79 <
1 8 0 26.61 21.31 5.08 o
1 8 1 7266.66 7791.85 105.44 o
1 8 2 63.52 66.44 11.41 o
1 8 3 2389.74 2744.37 170.83 o
1 9 0 1249.44 1265.89 42.97 o
1 9 1 2285.30 2388.08 54.26 o
1 9 2 695.09 715.77 38.14 o
1 9 3 1002.98 1247.80 114.95 o
1 10 0 11433.30 10840.20 128.56 o
1 10 1 698.65 759.18 38.91 o
1 10 2 7037.99 7413.66 123.25 o
1 10 3 389.58 240.20 49.77 o
1 11 0 53.96 48.11 9.32 o
1 11 1 515.88 479.37 33.69 o
1 11 2 34.76 22.81 6.72 o
1 12 0 53.11 53.09 9.41 o
1 12 1 3265.18 3327.23 107.64 o
1 12 2 31.87 21.12 6.67 o
1 13 0 3020.68 2861.71 106.08 o
1 13 1 107.20 71.80 29.50 o
1 13 2 2160.56 2321.84 88.98 o
1 14 0 1184.89 1048.57 63.43 o
1 14 1 272.55 210.37 28.04 o
1 14 2 866.99 838.33 56.03 o
1 15 1 4472.35 3868.44 124.65 o
1 15 2 65.96 17.89 10.72 <
2 0 1 650.05 703.19 23.78 o
2 0 2 126.44 133.60 11.55 o
2 0 3 84.09 85.51 23.54 o
2 1 0 294.07 360.33 16.00 o
2 1 1 233.38 233.06 11.56 o
2 1 2 154.44 160.91 10.87 o
2 1 3 50.85 25.78 5.96 o
2 2 0 4059.88 4323.15 129.79 o
2 2 1 122.99 91.65 7.37 o
2 2 2 1556.60 1506.48 41.41 o
2 2 3 7.51 2.49 2.98 <
2 3 1 4794.75 4876.04 56.91 o
2 3 2 431.91 489.70 24.39 o
2 3 3 1334.08 1264.36 52.61 o
2 4 1 14542.50 14201.10 117.82 o
2 4 2 3054.80 3214.72 63.74 o
2 4 3 4004.40 3846.63 101.64 o
2 5 1 19609.60 19444.80 162.83 o
2 5 2 2995.92 3144.97 69.39 o
2 5 3 6061.60 5886.49 152.57 o
2 6 0 5633.32 4986.15 161.62 o
2 6 1 5179.51 4989.93 72.10 o
2 6 2 2759.51 2857.90 68.22 o
2 6 3 1885.65 1855.85 97.71 o
2 7 0 26716.50 24863.00 221.16 o
2 7 1 2025.21 2041.57 47.50 o
2 7 2 13874.60 15142.90 174.50 o
2 7 3 664.49 638.45 60.39 o
2 8 0 535.88 476.37 47.55 o
2 8 1 695.43 732.63 35.53 o
2 8 2 259.04 242.96 21.97 o
2 8 3 259.87 343.63 57.22 o
2 9 0 1934.53 1981.83 94.57 o
2 9 1 6128.89 6241.61 111.53 o
2 9 2 1168.58 1267.71 50.99 o
2 9 3 2453.63 2792.35 165.17 o
2 10 0 3954.79 4167.97 138.41 o
2 10 1 3754.19 4012.33 95.87 o
2 10 2 2443.23 2618.01 76.01 o
2 10 3 1669.24 1690.54 122.47 o
2 11 0 13.36 27.44 10.76 o
2 11 1 196.17 251.35 27.09 o
2 11 2 5.75 1.11 2.48 <
2 11 3 108.18 129.10 30.33 o
2 12 0 1106.67 1016.41 68.51 o
2 12 1 643.99 675.94 66.50 o
2 12 2 743.86 721.42 41.16 o
2 13 0 22.41 26.77 10.86 o
2 13 1 598.63 632.20 57.30 o
2 13 2 9.89 5.15 4.83 <
2 14 0 75.31 98.57 22.15 o
2 14 1 60.02 79.78 24.66 o
2 14 2 72.61 79.16 21.79 o
2 15 1 1361.15 1454.78 110.08 o
2 15 2 504.75 246.30 40.90 o
3 1 0 1462.68 1523.92 43.08 o
3 1 1 2142.08 2396.65 40.37 o
3 1 2 610.63 596.73 23.54 o
3 1 3 475.53 439.61 24.47 o
3 2 0 10590.20 10797.40 191.60 o
3 2 1 2085.14 2135.43 39.02 o
3 2 2 4343.19 4383.64 74.24 o
3 2 3 523.45 500.53 29.68 o
3 3 0 12666.40 12227.80 318.06 o
3 3 1 86.82 103.02 8.20 o
3 3 2 5288.73 5406.69 92.89 o
3 3 3 30.85 11.99 5.13 o
3 4 1 8064.71 7941.55 83.32 o
3 4 2 422.57 452.98 26.91 o
3 4 3 2133.05 2044.83 85.67 o
3 5 1 16241.90 16513.90 131.20 o
3 5 2 83.32 65.66 9.94 o
3 5 3 5019.74 5118.83 160.34 o
3 6 0 418.80 414.09 23.39 o
3 6 1 4197.51 4111.71 76.00 o
3 6 2 185.65 178.39 18.39 o
3 6 3 1612.25 1230.52 58.57 o
3 7 0 571.49 538.11 28.77 o
3 7 1 845.61 737.07 34.07 o
3 7 2 285.42 258.16 23.02 o
3 7 3 387.48 388.97 64.50 o
3 8 0 3067.24 3231.92 92.25 o
3 8 1 580.44 608.36 41.45 o
3 8 2 1462.52 1495.47 61.24 o
3 8 3 262.42 276.75 53.37 o
3 9 0 1199.99 1105.66 82.36 o
3 9 1 1786.18 1766.34 78.64 o
3 9 2 679.27 726.11 43.52 o
3 9 3 716.11 752.44 83.60 o
3 10 0 819.16 849.91 71.46 o
3 10 1 13887.40 14414.20 226.63 o
3 10 2 563.65 685.24 43.29 o
3 10 3 6327.92 6569.43 228.68 o
3 11 0 2432.73 2106.02 109.91 o
3 11 1 493.36 463.79 63.88 o
3 11 2 1593.06 1553.08 66.44 o
3 12 0 8045.92 8042.21 211.06 o
3 12 1 115.08 105.49 20.61 o
3 12 2 5375.96 5133.99 125.59 o
3 13 0 34.62 32.85 13.70 o
3 13 1 0.11 1.99 4.68 <
3 13 2 31.47 21.12 13.06 <
3 14 0 703.60 911.12 74.70 o
3 14 1 751.02 814.12 67.59 o
3 14 2 541.35 573.59 62.40 o
3 15 1 410.19 452.64 65.08 o
4 0 2 731.75 726.42 36.06 o
4 0 3 20629.30 20762.40 302.57 o
4 1 0 3955.62 4058.54 88.78 o
4 1 1 1189.92 1309.94 28.17 o
4 1 2 1707.65 1623.45 40.55 o
4 1 3 286.26 291.95 18.38 o
4 2 0 30944.70 32574.70 514.72 o
4 2 1 2360.00 2502.84 36.73 o
4 2 2 12903.70 13104.50 139.65 o
4 2 3 697.85 597.59 35.80 o
4 3 0 4238.15 4778.83 112.59 o
4 3 1 10432.90 10325.40 97.18 o
4 3 2 1729.74 1679.30 46.72 o
4 3 3 2808.82 2846.26 78.04 o
4 4 0 2206.94 2273.44 108.57 o
4 4 1 1819.85 1787.34 39.19 o
4 4 2 1059.13 1119.20 37.06 o
4 4 3 495.50 508.38 37.78 o
4 5 0 2551.27 2502.34 129.09 o
4 5 1 30.29 30.05 5.42 o
4 5 2 1141.38 1081.11 37.15 o
4 5 3 34.20 25.31 9.88 o
4 6 0 531.05 418.69 25.63 o
4 6 1 16.37 25.80 4.89 o
4 6 2 284.15 243.97 20.44 o
4 6 3 12.27 2.44 4.09 <
4 7 0 987.14 911.59 39.19 o
4 7 1 9.41 3.75 3.33 <
4 7 2 577.60 594.52 34.61 o
4 7 3 2.63 1.82 7.02 <
4 8 0 427.38 399.27 25.98 o
4 8 1 39.48 32.39 11.59 o
4 8 2 204.12 182.46 22.04 o
4 8 3 23.30 13.55 12.52 <
4 9 0 1519.08 1518.56 61.37 o
4 9 1 27.25 14.18 6.03 o
4 9 2 874.49 901.77 50.25 o
4 9 3 34.90 24.33 15.59 <
4 10 1 7.67 6.05 7.23 <
4 10 2 731.52 740.87 45.96 o
4 10 3 1.16 -4.47 5.94 <
4 11 0 1810.34 1756.83 110.58 o
4 11 1 3669.36 3511.91 115.32 o
4 11 2 1161.27 1276.64 62.83 o
4 12 0 3959.73 3885.86 162.06 o
4 12 1 0.50 -1.45 3.43 <
4 12 2 2670.35 2798.50 123.51 o
4 13 0 1611.32 1840.34 110.92 o
4 13 1 1785.72 1826.88 90.65 o
4 13 2 1163.95 1301.96 90.72 o
4 14 0 2.35 2.68 7.12 <
4 14 1 5482.36 5474.55 168.38 o
4 14 2 0.60 -2.20 7.52 <
4 15 0 9.88 -3.47 8.39 <
4 15 1 201.01 263.13 53.59 o
5 1 0 13639.40 14694.10 256.16 o
5 1 1 3635.51 3888.76 55.76 o
5 1 2 5565.13 5611.99 88.43 o
5 1 3 899.15 900.46 37.43 o
5 2 0 80.79 58.06 9.98 o
5 2 1 5948.17 6106.60 67.86 o
5 2 2 56.19 59.24 8.66 o
5 2 3 1642.85 1543.62 46.36 o
5 3 0 1157.85 1201.79 49.84 o
5 3 1 12115.30 12063.70 116.38 o
5 3 2 570.42 619.72 28.92 o
5 3 3 3280.59 3471.49 100.14 o
5 4 0 495.27 440.20 32.00 o
5 4 1 929.72 937.86 28.93 o
5 4 2 245.30 275.16 18.05 o
5 4 3 220.05 224.67 27.35 o
5 5 0 6484.51 6499.32 231.14 o
5 5 1 8834.03 8776.94 112.97 o
5 5 2 3052.88 3034.71 64.66 o
5 5 3 3257.98 3359.05 108.85 o
5 6 0 8865.34 8462.91 297.36 o
5 6 1 705.88 754.71 35.61 o
5 6 2 4443.54 4598.91 82.45 o
5 6 3 96.11 90.35 17.83 o
5 7 0 619.71 608.86 40.66 o
5 7 1 1334.01 1314.52 51.60 o
5 7 2 308.56 323.58 22.44 o
5 7 3 488.97 561.90 78.46 o
5 8 0 10501.40 11015.10 140.90 o
5 8 1 1134.03 1127.66 82.22 o
5 8 2 5913.40 6021.20 137.51 o
5 8 3 384.90 383.81 63.71 o
5 9 0 242.13 260.92 20.80 o
5 9 1 4.71 1.74 3.48 <
5 9 2 152.03 151.39 21.07 o
5 9 3 3.77 -0.14 3.50 <
5 10 1 2697.11 2667.83 101.18 o
5 10 2 701.63 721.49 47.99 o
5 10 3 1214.35 1134.87 100.43 o
5 11 1 106.21 103.76 19.70 o
5 11 2 0.76 1.30 8.40 <
5 12 1 1543.48 1653.65 81.78 o
5 12 2 345.72 347.39 46.58 o
5 13 1 3934.29 4353.31 137.39 o
5 13 2 166.17 156.86 30.76 o
5 14 1 609.18 687.26 58.49 o
5 14 2 30.66 29.89 20.24 <
5 15 0 5562.81 7190.09 254.46 o
5 15 1 3.66 -5.31 8.86 <
6 0 1 1177.66 1117.60 54.64 o
6 0 2 937.11 1031.46 54.50 o
6 0 3 375.31 434.56 40.86 o
6 1 0 469.50 426.99 28.27 o
6 1 1 687.20 690.26 26.68 o
6 1 2 250.11 231.04 16.53 o
6 1 3 210.35 189.74 17.32 o
6 2 0 76.98 167.86 18.04 o
6 2 1 5990.40 5947.36 76.88 o
6 2 2 12.86 2.38 2.52 <
6 2 3 1710.96 1708.70 62.39 o
6 3 0 4040.86 4486.85 115.69 o
6 3 1 170.37 183.85 13.10 o
6 3 2 1920.14 2035.14 54.45 o
6 3 3 31.83 14.73 5.54 o
6 4 0 5923.80 6199.72 149.96 o
6 4 1 69.13 64.81 8.52 o
6 4 2 2747.12 2940.15 59.27 o
6 4 3 53.26 37.26 11.22 o
6 5 0 33345.70 33803.40 809.84 o
6 5 1 2991.67 2964.53 68.92 o
6 5 2 16563.70 16555.50 170.32 o
6 5 3 1333.77 1388.50 69.62 o
6 6 0 8.80 2.03 8.50 <
6 6 1 663.51 586.23 37.00 o
6 6 2 3.79 1.23 2.72 <
6 6 3 192.40 182.51 24.25 o
6 7 0 2935.11 2735.50 158.71 o
6 7 1 25062.70 24025.60 378.01 o
6 7 2 1861.78 1924.91 56.20 o
6 7 3 8739.71 9729.52 232.63 o
6 8 0 1.61 1.43 4.50 <
6 8 1 442.56 414.30 27.65 o
6 8 2 0.76 2.13 3.06 <
6 8 3 185.81 217.94 46.07 o
6 9 0 15096.60 14310.80 170.43 o
6 9 1 4.72 -0.23 3.23 <
6 9 2 9203.78 9619.11 193.75 o
6 9 3 0.12 1.86 4.04 <
6 10 0 1255.18 1256.35 47.74 o
6 10 1 157.60 171.91 27.09 o
6 10 2 813.00 925.01 61.72 o
6 10 3 77.98 84.75 30.78 o
6 11 1 41.69 23.47 9.38 o
6 11 2 364.96 381.62 50.74 o
6 12 1 240.03 217.15 30.04 o
6 12 2 150.49 148.86 30.66 o
6 13 1 40.72 15.78 9.26 <
6 13 2 1847.90 2114.68 158.91 o
6 14 1 76.49 52.41 15.85 o
6 14 2 363.34 418.45 72.25 o
6 15 1 33.17 26.39 17.98 <
7 1 0 1629.93 1311.15 58.78 o
7 1 1 2042.84 1705.60 61.39 o
7 1 2 733.82 760.28 34.51 o
7 1 3 505.92 495.14 34.81 o
7 2 0 1438.94 1270.78 55.67 o
7 2 1 12647.30 11828.60 153.10 o
7 2 2 677.37 660.22 28.21 o
7 2 3 3779.52 4052.06 100.94 o
7 3 0 773.94 803.05 44.76 o
7 3 1 10113.40 10009.40 118.42 o
7 3 2 326.28 306.04 21.61 o
7 3 3 3018.09 3099.25 92.97 o
7 4 0 7024.44 7386.52 173.03 o
7 4 1 261.45 257.03 19.35 o
7 4 2 3395.64 3439.51 76.45 o
7 4 3 87.94 74.93 16.91 o
7 5 0 7261.02 7649.22 185.85 o
7 5 1 1.20 0.29 2.67 <
7 5 2 3705.46 3756.97 72.35 o
7 5 3 2.99 -0.54 4.59 <
7 6 0 322.43 335.23 45.68 o
7 6 1 1234.65 1116.65 42.86 o
7 6 2 178.21 196.91 17.95 o
7 6 3 513.78 550.26 54.57 o
7 7 0 6.89 -0.24 7.07 <
7 7 1 103.74 104.77 12.84 o
7 7 2 5.14 4.10 3.17 <
7 7 3 38.39 19.52 10.77 <
7 8 0 3961.72 3878.76 207.22 o
7 8 1 657.93 644.55 35.59 o
7 8 2 2216.76 2172.34 66.13 o
7 8 3 253.60 284.38 41.41 o
7 9 0 851.03 839.89 52.93 o
7 9 1 7.51 3.23 3.66 <
7 9 2 508.24 519.79 41.98 o
7 9 3 4.88 -4.23 8.66 <
7 10 0 10188.50 10276.40 147.84 o
7 10 1 1801.07 1879.05 91.23 o
7 10 2 6568.58 7077.65 314.99 o
7 10 3 906.63 1065.38 124.00 o
7 11 0 55.50 57.88 10.44 o
7 11 1 1854.46 1706.63 89.71 o
7 11 2 56.20 20.82 13.56 <
7 12 1 8251.34 8835.72 197.57 o
7 12 2 464.45 642.75 94.16 o
7 13 1 1287.68 1479.87 82.28 o
7 13 2 504.78 589.79 87.48 o
7 14 1 1343.40 887.77 70.49 o
7 15 1 351.97 336.15 63.85 o
8 0 2 4071.93 3958.65 120.23 o
8 0 3 5678.24 5836.70 191.31 o
8 1 0 14.12 0.86 3.38 <
8 1 1 8774.43 8873.02 208.10 o
8 1 2 5.07 3.64 3.04 <
8 1 3 2656.22 2877.86 87.71 o
8 2 0 9623.66 9983.93 211.61 o
8 2 1 8354.07 8245.52 154.11 o
8 2 2 4520.01 4568.52 89.56 o
8 2 3 2554.05 2636.72 91.32 o
8 3 0 24604.90 25774.10 450.22 o
8 3 1 5659.46 5425.34 87.62 o
8 3 2 11850.80 11970.60 155.24 o
8 3 3 1975.76 2073.27 77.92 o
8 4 0 2605.20 2607.07 92.91 o
8 4 1 124.32 111.89 10.69 o
8 4 2 1312.23 1231.56 48.03 o
8 4 3 40.60 22.17 7.90 o
8 5 0 385.47 340.67 32.65 o
8 5 1 2719.52 2915.02 71.71 o
8 5 2 284.75 281.69 20.17 o
8 5 3 682.54 699.62 51.35 o
8 6 0 1332.29 1221.70 91.84 o
8 6 1 2.18 0.84 2.60 <
8 6 2 774.82 673.02 35.67 o
8 6 3 0.03 2.74 5.36 <
8 7 0 762.70 812.83 82.60 o
8 7 1 1326.11 1446.50 55.53 o
8 7 2 352.98 348.49 26.19 o
8 7 3 682.78 721.41 64.47 o
8 8 0 229.80 284.61 53.68 o
8 8 1 252.99 247.01 22.48 o
8 8 2 113.96 129.45 17.29 o
8 8 3 108.82 99.91 23.44 o
8 9 0 443.14 471.46 71.42 o
8 9 1 4764.50 4324.18 112.17 o
8 9 2 272.17 282.13 29.60 o
8 9 3 2221.25 2037.56 172.90 o
8 10 0 431.45 460.05 37.15 o
8 10 1 12.80 3.03 14.47 <
8 10 2 297.51 292.63 65.29 o
8 10 3 7.36 1.71 7.59 <
8 11 0 2211.08 2132.73 69.32 o
8 11 1 3018.97 3305.96 159.83 o
8 12 1 896.56 1153.82 94.98 o
8 13 1 2143.75 2354.21 130.53 o
9 1 1 7063.84 7177.32 192.87 o
9 1 2 7.49 3.11 3.89 <
9 1 3 2178.21 2170.24 115.73 o
9 2 0 9236.08 9240.56 210.14 o
9 2 1 1859.02 1740.57 62.74 o
9 2 2 4541.01 4477.94 95.22 o
9 2 3 710.40 719.12 48.74 o
9 3 0 23540.90 23846.50 431.08 o
9 3 1 449.84 451.87 25.20 o
9 3 2 11695.60 11080.00 141.00 o
9 3 3 226.25 185.61 23.80 o
9 4 0 57.57 56.33 13.42 o
9 4 1 1447.43 1435.31 48.33 o
9 4 2 35.35 14.76 5.80 o
9 4 3 401.56 362.67 33.36 o
9 5 0 1664.51 1614.82 76.79 o
9 5 1 9611.35 9650.27 140.94 o
9 5 2 1075.28 1067.82 43.64 o
9 5 3 3204.82 3543.06 158.03 o
9 6 0 140.05 171.90 24.56 o
9 6 1 789.30 867.44 39.96 o
9 6 2 64.80 55.93 9.46 o
9 6 3 240.94 284.43 42.69 o
9 7 0 1119.57 1007.78 90.57 o
9 7 1 866.27 928.48 45.80 o
9 7 2 618.68 618.75 42.56 o
9 7 3 380.51 410.67 52.42 o
9 8 0 1352.17 1292.29 111.54 o
9 8 1 2251.10 2466.21 78.65 o
9 8 2 924.58 943.30 46.92 o
9 8 3 1067.86 1217.27 88.83 o
9 9 0 1830.75 2036.54 151.76 o
9 9 1 971.83 954.03 50.13 o
9 9 2 1216.87 1205.27 61.98 o
9 9 3 480.78 492.17 61.14 o
9 10 0 0.86 1.45 7.80 <
9 10 1 1919.26 1940.94 110.56 o
9 10 2 1.68 2.08 5.03 <
9 11 0 107.32 110.40 18.72 o
9 12 0 2266.45 1978.38 65.67 o
9 12 1 94.79 2.92 8.04 <
9 13 1 167.74 220.09 43.80 o
10 0 2 699.05 682.57 75.28 o
10 0 3 2718.55 2278.16 159.56 o
10 1 1 1296.64 1167.19 99.86 o
10 1 2 52.80 34.67 10.77 o
10 1 3 457.94 414.33 51.93 o
10 2 0 3711.87 3603.67 122.48 o
10 2 1 1078.26 1036.83 50.01 o
10 2 2 1960.83 1771.50 58.96 o
10 2 3 229.39 209.30 30.47 o
10 3 0 311.18 293.06 31.59 o
10 3 1 368.80 380.24 24.90 o
10 3 2 157.04 138.89 16.74 o
10 3 3 129.36 141.97 22.09 o
10 4 0 8760.06 8851.37 212.73 o
10 4 1 97.57 93.69 11.83 o
10 4 2 4871.70 4882.84 103.49 o
10 4 3 49.19 29.89 14.88 o
10 5 0 921.41 902.32 56.84 o
10 5 1 11149.70 11960.00 190.37 o
10 5 2 644.76 641.46 39.55 o
10 5 3 4018.31 4284.58 181.13 o
10 6 0 30.13 52.25 13.11 o
10 6 1 2495.10 2618.72 89.96 o
10 6 2 20.52 20.74 7.28 o
10 6 3 1084.99 1115.69 92.04 o
10 7 0 22526.50 25098.00 685.69 o
10 7 1 205.88 203.03 19.98 o
10 7 2 12976.10 14072.00 210.91 o
10 7 3 68.20 20.88 12.06 <
10 8 0 2.04 5.16 8.44 <
10 8 1 1148.56 1248.40 57.57 o
10 8 2 1.49 1.51 3.22 <
10 8 3 541.60 625.12 71.82 o
10 9 0 191.23 194.76 40.56 o
10 9 1 10231.30 10942.30 199.35 o
10 9 2 119.42 107.00 25.76 o
10 9 3 4882.03 5921.29 282.54 o
10 10 0 841.59 904.46 106.07 o
10 10 1 70.12 60.01 13.76 o
10 10 2 539.83 562.89 53.64 o
10 11 0 46.20 18.35 6.30 o
10 12 0 62.67 82.65 16.14 o
11 1 2 4168.15 3730.97 124.37 o
11 1 3 458.97 227.18 32.85 o
11 2 0 2851.10 2743.29 115.59 o
11 2 1 4.43 6.35 4.26 <
11 2 2 1483.61 1288.55 57.29 o
11 2 3 4.00 0.49 1.91 <
11 3 0 4370.93 4219.36 139.07 o
11 3 1 30.72 14.43 5.95 o
11 3 2 2361.74 2194.93 77.52 o
11 3 3 7.94 7.96 12.64 <
11 4 0 342.38 349.04 34.94 o
11 4 1 261.73 224.71 19.63 o
11 4 2 155.25 112.61 13.41 o
11 4 3 93.37 66.32 24.57 o
11 5 0 703.62 713.87 52.26 o
11 5 1 4.88 -1.17 4.63 <
11 5 2 424.06 395.44 32.24 o
11 5 3 0.02 -0.58 8.54 <
11 6 0 2486.11 2697.81 111.55 o
11 6 1 1311.49 1494.93 57.72 o
11 6 2 1412.92 1484.79 55.55 o
11 6 3 556.00 608.55 73.49 o
11 7 0 17.32 4.26 4.14 <
11 7 1 265.14 254.44 27.98 o
11 7 2 14.50 5.04 3.71 <
11 7 3 131.28 94.30 25.87 o
11 8 0 31.04 6.65 7.35 <
11 8 1 9197.21 10388.70 267.03 o
11 8 2 23.49 26.24 9.40 o
11 8 3 4414.86 4216.31 225.16 o
11 9 0 1387.80 1539.94 130.66 o
11 9 1 4.66 -0.91 4.50 <
11 9 2 923.56 1027.75 79.07 o
11 9 3 1.13 -15.44 56.49 <
11 10 0 4983.35 5137.21 268.11 o
11 10 1 3283.82 3548.54 115.24 o
11 10 2 3387.65 3813.42 147.89 o
11 11 1 1063.68 1047.44 47.29 o
12 0 2 22127.00 17515.80 409.50 o
12 1 2 1524.46 1153.54 79.95 o
12 2 0 58.68 23.30 19.10 <
12 2 1 7530.49 7372.57 169.91 o
12 2 2 24.73 7.26 6.24 <
12 3 0 751.13 650.78 55.13 o
12 3 1 7358.10 7666.81 170.49 o
12 3 2 468.61 445.33 28.36 o
12 3 3 2826.94 3215.20 224.51 o
12 4 0 36.39 24.76 10.39 o
12 4 1 916.75 889.66 42.36 o
12 4 2 24.43 9.10 4.35 o
12 4 3 401.18 547.99 86.88 o
12 5 0 4610.61 5170.37 162.35 o
12 5 1 166.54 138.42 15.96 o
12 5 2 2515.89 2790.08 84.49 o
12 5 3 87.22 90.57 29.05 o
12 6 0 20.49 9.98 7.69 <
12 6 1 1694.21 1705.49 63.04 o
12 6 2 23.54 15.34 7.04 o
12 6 3 772.45 719.72 95.48 o
12 7 0 921.52 962.31 67.56 o
12 7 1 4373.35 4738.29 137.21 o
12 7 2 636.49 721.38 50.25 o
12 7 3 1997.89 1906.76 167.83 o
12 8 0 356.00 266.50 49.48 o
12 8 1 1787.46 2237.59 109.03 o
12 8 2 246.34 200.23 39.68 o
12 8 3 867.99 1139.53 110.69 o
12 9 0 5460.33 6136.79 289.31 o
12 9 1 0.65 4.11 10.08 <
12 9 2 3705.78 4236.23 169.41 o
12 9 3 2.50 0.16 6.33 <
12 10 0 204.70 246.98 52.41 o
12 10 1 622.44 780.18 58.16 o
12 10 2 146.78 200.74 34.55 o
12 11 1 462.95 479.18 39.11 o
13 2 1 2814.15 2638.26 127.84 o
13 2 2 89.06 51.11 12.27 o
13 3 0 18.06 11.23 8.06 <
13 3 1 10290.20 9950.75 211.50 o
13 3 2 10.90 0.57 3.16 <
13 4 0 2564.01 2791.47 117.35 o
13 4 1 2.56 -1.12 2.60 <
13 4 2 1355.44 1287.58 56.12 o
13 4 3 0.03 0.48 6.79 <
13 5 0 9779.77 10562.30 262.87 o
13 5 1 133.65 155.34 18.56 o
13 5 2 5628.34 5863.11 142.61 o
13 5 3 57.49 46.92 24.37 <
13 6 0 292.11 317.26 38.38 o
13 6 1 2720.41 2971.16 87.24 o
13 6 2 241.70 295.13 36.13 o
13 6 3 1263.77 1139.58 147.20 o
13 7 0 157.96 175.26 27.79 o
13 7 1 678.80 706.86 42.92 o
13 7 2 96.46 115.24 21.69 o
13 7 3 323.10 304.56 61.29 o
13 8 0 1.95 -5.89 5.85 <
13 8 1 54.87 37.89 13.76 o
13 8 2 1.33 0.13 4.06 <
13 8 3 12.67 8.66 8.97 <
13 9 0 1326.42 1402.50 130.38 o
13 9 1 2282.72 2989.23 177.92 o
13 9 2 896.94 1010.41 88.68 o
13 10 2 1137.16 1308.99 94.98 o
13 11 1 820.78 1005.02 70.92 o
14 2 2 3678.36 3051.21 213.78 o
14 3 0 0.65 1.66 2.05 <
14 3 1 83.83 47.53 14.23 o
14 3 2 3.64 -2.63 4.68 <
14 4 0 225.44 278.18 41.02 o
14 4 1 10635.10 11628.80 206.22 o
14 4 2 100.03 71.76 17.47 o
14 5 0 2748.38 2955.48 125.25 o
14 5 1 51.58 26.95 7.79 o
14 5 2 1599.31 1726.01 83.97 o
14 5 3 22.35 4.88 9.79 <
14 6 0 3042.29 3076.91 131.67 o
14 6 1 613.92 668.47 41.73 o
14 6 2 1914.60 2358.62 112.13 o
14 6 3 292.84 317.14 66.95 o
14 7 0 1660.48 1728.02 97.22 o
14 7 1 5870.53 6321.02 162.98 o
14 7 2 1204.06 1315.03 118.22 o
14 7 3 2861.56 3066.18 205.42 o
14 8 0 940.85 922.70 72.71 o
14 8 1 151.35 203.42 41.36 o
14 8 2 630.95 801.28 86.53 o
14 8 3 76.07 103.67 36.03 o
14 9 0 1139.07 1077.69 116.87 o
14 9 1 56.03 39.90 19.27 o
14 9 2 727.50 793.38 79.90 o
14 10 2 1188.50 1395.36 103.11 o
15 3 0 793.13 652.20 126.85 o
15 3 1 98.59 49.54 13.69 o
15 3 2 545.41 366.14 52.07 o
15 4 0 140.02 97.02 25.84 o
15 4 1 4622.07 4671.42 142.16 o
15 4 2 85.62 36.95 15.44 o
15 5 0 760.65 781.01 66.83 o
15 5 1 1121.99 1211.27 57.62 o
15 5 2 512.47 578.43 65.86 o
15 6 0 732.38 761.13 63.58 o
15 6 1 1999.06 2100.47 87.62 o
15 6 3 957.54 1092.19 136.81 o
15 7 0 2.33 1.99 8.03 <
15 7 1 40.03 14.15 8.60 <
15 7 2 0.37 1.51 2.09 <
15 7 3 22.37 38.24 22.30 <
15 8 0 4656.28 4785.31 252.78 o
15 8 1 1.05 -2.94 4.92 <
15 8 2 3151.79 4119.66 221.06 o
15 8 3 0.26 -3.02 7.59 <
15 9 2 63.17 57.91 23.71 o
16 3 0 733.28 459.27 91.36 o
16 3 1 1962.75 1665.17 103.52 o
16 3 2 445.18 179.60 37.49 o
16 4 0 18.94 8.14 8.40 <
16 4 1 388.91 342.37 47.91 o
16 4 2 18.25 0.97 10.28 <
16 5 0 532.57 484.77 54.84 o
16 5 1 2832.02 2896.97 111.74 o
16 6 0 475.57 444.05 50.09 o
16 6 1 306.95 296.87 39.20 o
16 7 0 4787.52 5053.78 261.47 o
16 7 1 140.16 136.07 27.31 o
16 7 3 69.50 76.30 35.98 o
16 8 0 2517.00 2567.45 187.80 o
16 8 3 0.88 1.32 7.74 <
16 9 2 460.85 639.97 89.94 o
17 4 0 5.14 0.38 4.08 <
17 4 1 785.63 742.49 77.78 o
17 5 0 32.49 9.49 9.69 <
17 5 1 7929.65 7932.25 331.62 o
17 6 0 10925.20 10756.60 426.81 o
17 6 1 165.90 207.90 34.29 o
17 7 0 165.30 187.18 44.31 o
18 4 0 5674.55 4638.45 298.39 o
18 4 1 18.87 0.36 13.27 <
18 5 0 983.96 922.28 127.56 o
18 5 1 315.49 392.51 69.93 o
18 6 0 219.16 145.84 46.26 o
