#------------------------------------------------------------------------------
#$Date: 2021-04-14 13:24:29 +0300 (Wed, 14 Apr 2021) $
#$Revision: 264168 $
#$URL: file:///home/coder/svn-repositories/cod/cif/1/56/17/1561773.cif $
#------------------------------------------------------------------------------
#
# This file is available in the Crystallography Open Database (COD),
# http://www.crystallography.net/
#
# All data on this site have been placed in the public domain by the
# contributors.
#
data_1561773
loop_
_publ_author_name
'Bykova, E.'
'Gou, H.'
'Bykov, M.'
'Hanfland, M.'
'Dubrovinsky, L.'
'Dubrovinskaia, N.'
_publ_section_title
;
 Crystal structures and compressibility of novel iron borides Fe2B7 and Fe
 B50 synthesized at high pressure and high temperature
;
_journal_name_full               'Journal of Solid State Chemistry'
_journal_page_first              102
_journal_page_last               109
_journal_paper_doi               10.1016/j.jssc.2015.06.040
_journal_volume                  230
_journal_year                    2015
_chemical_absolute_configuration .
_chemical_formula_moiety         'B50 Fe1.01'
_chemical_formula_sum            'B50 Fe1.01'
_chemical_formula_weight         596.9
_chemical_name_common            'Iron Boron (1.01/50)'
_chemical_name_systematic        'Iron Boron (1.01/50)'
_space_group_IT_number           134
_space_group_name_Hall           '-P 4ac 2bc'
_space_group_name_H-M_alt        'P 42/n n m :2'
_symmetry_cell_setting           tetragonal
_symmetry_Int_Tables_number      134
_symmetry_space_group_name_Hall  '-P 4ac 2bc'
_symmetry_space_group_name_H-M   'P 42/n n m :2'
_cell_angle_alpha                90
_cell_angle_beta                 90
_cell_angle_gamma                90
_cell_formula_units_Z            1
_cell_length_a                   8.5446(3)
_cell_length_b                   8.5446(3)
_cell_length_c                   4.8209(3)
_cell_measurement_reflns_used    408
_cell_measurement_temperature    293
_cell_measurement_theta_max      18.52
_cell_measurement_theta_min      2.78
_cell_volume                     351.97(3)
_computing_cell_refinement
;
CrysAlisPro, Agilent Technologies,
Version 1.171.37.35 (release 13-08-2014 CrysAlis171 .NET)
(compiled Aug 13 2014,18:06:01)
;
_computing_data_collection
;
CrysAlisPro, Agilent Technologies,
Version 1.171.37.35 (release 13-08-2014 CrysAlis171 .NET)
(compiled Aug 13 2014,18:06:01)
;
_computing_data_reduction
;
CrysAlisPro, Agilent Technologies,
Version 1.171.37.35 (release 13-08-2014 CrysAlis171 .NET)
(compiled Aug 13 2014,18:06:01)
;
_computing_structure_refinement  'Jana2006 (Petricek, 2014)'
_computing_structure_solution    'SHELXS-2013 (Sheldrick, 2013)'
_diffrn_ambient_pressure         34200000
_diffrn_ambient_temperature      293
_diffrn_detector                 'MAR555 flatpanel detector'
_diffrn_measured_fraction_theta_full 0.95
_diffrn_measured_fraction_theta_max 0.66
_diffrn_measurement_device
;
customized omega-circle diffractometer
;
_diffrn_measurement_device_type  'ESRF, beamline ID09A diffractometer'
_diffrn_measurement_method       '\w scans'
_diffrn_radiation_monochromator  synchrotron
_diffrn_radiation_probe          x-ray
_diffrn_radiation_source         synchrotron
_diffrn_radiation_type           synchrotron
_diffrn_radiation_wavelength     0.41409
_diffrn_reflns_av_R_equivalents  0.0464
_diffrn_reflns_av_unetI/netI     0.048
_diffrn_reflns_limit_h_max       12
_diffrn_reflns_limit_h_min       -11
_diffrn_reflns_limit_k_max       7
_diffrn_reflns_limit_k_min       -9
_diffrn_reflns_limit_l_max       6
_diffrn_reflns_limit_l_min       -7
_diffrn_reflns_number            827
_diffrn_reflns_theta_full        14.12
_diffrn_reflns_theta_max         19.44
_diffrn_reflns_theta_min         1.97
_diffrn_source                   synchrotron
_exptl_absorpt_coefficient_mu    0.263
_exptl_absorpt_correction_T_max  1
_exptl_absorpt_correction_T_min  0.001
_exptl_absorpt_correction_type   multi-scan
_exptl_absorpt_process_details
;
CrysAlisPro, Agilent Technologies,
Version 1.171.37.35 (release 13-08-2014 CrysAlis171 .NET)
(compiled Aug 13 2014,18:06:01)
Empirical absorption correction using spherical harmonics,
 implemented in SCALE3 ABSPACK scaling algorithm.
;
_exptl_crystal_colour            black
_exptl_crystal_density_diffrn    2.8152
_exptl_crystal_description       plate
_exptl_crystal_F_000             276
_exptl_crystal_size_max          0.020
_exptl_crystal_size_mid          0.020
_exptl_crystal_size_min          0.005
_refine_diff_density_max         1.20
_refine_diff_density_min         -0.94
_refine_ls_extinction_method     none
_refine_ls_goodness_of_fit_gt    2.76
_refine_ls_goodness_of_fit_ref   2.64
_refine_ls_number_constraints    0
_refine_ls_number_parameters     18
_refine_ls_number_reflns         279
_refine_ls_number_restraints     0
_refine_ls_R_factor_all          0.0823
_refine_ls_R_factor_gt           0.0764
_refine_ls_shift/su_max          0.0002
_refine_ls_shift/su_mean         0.0001
_refine_ls_structure_factor_coef Fsqd
_refine_ls_weighting_details     w=1/(\s^2^(I)+0.0004I^2^)
_refine_ls_weighting_scheme      sigma
_refine_ls_wR_factor_gt          0.1457
_refine_ls_wR_factor_ref         0.1492
_reflns_number_gt                245
_reflns_number_total             279
_reflns_threshold_expression     I>2\s(I)
_cod_data_source_file            feb50_34.2GPa.cif
_cod_data_source_block           Fe1.0B50_34.2GPa
_cod_depositor_comments
;
The following automatic conversions were performed:

data item '_diffrn_radiation_probe' value 'X-ray' was changed to
'x-ray' in accordance with the built-in table derived from the CIF
Core dictionary named 'cif_core.dic' version 2.4.5 last updated on
2014-11-21.

Automatic conversion script
Id: cif_fix_values 8369 2020-08-20 11:38:08Z andrius 
;
_cod_original_sg_symbol_H-M      'P 42/n n m'
_cod_database_code               1561773
loop_
_symmetry_equiv_pos_site_id
_symmetry_equiv_pos_as_xyz
1 x,y,z
2 -x+1/2,-y+1/2,z
3 -y+1/2,x,z+1/2
4 y,-x+1/2,z+1/2
5 -x+1/2,y,-z+1/2
6 x,-y+1/2,-z+1/2
7 y,x,-z
8 -y+1/2,-x+1/2,-z
9 -x,-y,-z
10 x+1/2,y+1/2,-z
11 y+1/2,-x,-z+1/2
12 -y,x+1/2,-z+1/2
13 x+1/2,-y,z+1/2
14 -x,y+1/2,z+1/2
15 -y,-x,z
16 y+1/2,x+1/2,z
loop_
_atom_site_label
_atom_site_type_symbol
_atom_site_fract_x
_atom_site_fract_y
_atom_site_fract_z
_atom_site_adp_type
_atom_site_U_iso_or_equiv
_atom_site_site_symmetry_multiplicity
_atom_site_occupancy
_atom_site_calc_flag
_atom_site_refinement_flags
_atom_site_disorder_assembly
_atom_site_disorder_group
Fe1 Fe -0.25 0.25 0.25 Uani 0.0053(5) 2 0.5049 d . . .
B4 B -0.0775(3) -0.1584(3) 0.1501(6) Uiso 0.0048(7) 16 1 d . . .
B5 B -0.1692(3) 0.0223(3) 0.1613(6) Uiso 0.0045(7) 16 1 d . . .
B2 B 0.1231(3) -0.1231(3) 0.1427(8) Uiso 0.0038(8) 8 1 d . . .
B3 B 0.0032(3) -0.0032(3) 0.3359(8) Uiso 0.0037(9) 8 1 d . . .
B1 B 0.25 -0.25 0.25 Uiso 0.0024(14) 2 1 d . . .
loop_
_atom_site_aniso_label
_atom_site_aniso_type_symbol
_atom_site_aniso_U_11
_atom_site_aniso_U_22
_atom_site_aniso_U_33
_atom_site_aniso_U_12
_atom_site_aniso_U_13
_atom_site_aniso_U_23
Fe1 Fe 0.0029(8) 0.0029(8) 0.0102(11) 0 0 0
loop_
_atom_type_symbol
_atom_type_scat_dispersion_real
_atom_type_scat_dispersion_imag
_atom_type_scat_source
B -0.0003 0.0002 'International Tables Vol C tables 4.2.6.8 and 6.1.1.1'
Fe 0.1991 0.3106 'International Tables Vol C tables 4.2.6.8 and 6.1.1.1'
loop_
_geom_angle_atom_site_label_1
_geom_angle_atom_site_label_2
_geom_angle_atom_site_label_3
_geom_angle_site_symmetry_1
_geom_angle_site_symmetry_2
_geom_angle_site_symmetry_3
_geom_angle
B5 Fe1 B5 . . 2_455 156.58(11)
B5 Fe1 B5 . . 5_455 45.30(10)
B5 Fe1 B5 . . 6_555 141.79(10)
B5 Fe1 B5 . . 11_455 92.36(10)
B5 Fe1 B5 . . 12_555 92.36(10)
B5 Fe1 B5 . . 15_555 49.81(10)
B5 Fe1 B5 . . 16_455 124.26(10)
B5 Fe1 B2 . . 3_455 83.83(10)
B5 Fe1 B2 . . 4_555 115.01(10)
B5 Fe1 B2 . . 7_555 44.43(11)
B5 Fe1 B2 . . 8_455 113.50(11)
B5 Fe1 B1 . . 3_454 78.29(8)
B5 Fe1 B1 . . 3_455 101.71(8)
B5 Fe1 B5 2_455 . 5_455 141.79(10)
B5 Fe1 B5 2_455 . 6_555 45.30(10)
B5 Fe1 B5 2_455 . 11_455 92.36(10)
B5 Fe1 B5 2_455 . 12_555 92.36(10)
B5 Fe1 B5 2_455 . 15_555 124.26(10)
B5 Fe1 B5 2_455 . 16_455 49.81(10)
B5 Fe1 B2 2_455 . 3_455 115.01(10)
B5 Fe1 B2 2_455 . 4_555 83.83(10)
B5 Fe1 B2 2_455 . 7_555 113.50(11)
B5 Fe1 B2 2_455 . 8_455 44.43(11)
B5 Fe1 B1 2_455 . 3_454 78.29(8)
B5 Fe1 B1 2_455 . 3_455 101.71(8)
B5 Fe1 B5 5_455 . 6_555 156.58(11)
B5 Fe1 B5 5_455 . 11_455 49.81(10)
B5 Fe1 B5 5_455 . 12_555 124.26(10)
B5 Fe1 B5 5_455 . 15_555 92.36(10)
B5 Fe1 B5 5_455 . 16_455 92.36(10)
B5 Fe1 B2 5_455 . 3_455 44.43(11)
B5 Fe1 B2 5_455 . 4_555 113.50(11)
B5 Fe1 B2 5_455 . 7_555 83.83(10)
B5 Fe1 B2 5_455 . 8_455 115.01(10)
B5 Fe1 B1 5_455 . 3_454 101.71(8)
B5 Fe1 B1 5_455 . 3_455 78.29(8)
B5 Fe1 B5 6_555 . 11_455 124.26(10)
B5 Fe1 B5 6_555 . 12_555 49.81(10)
B5 Fe1 B5 6_555 . 15_555 92.36(10)
B5 Fe1 B5 6_555 . 16_455 92.36(10)
B5 Fe1 B2 6_555 . 3_455 113.50(11)
B5 Fe1 B2 6_555 . 4_555 44.43(11)
B5 Fe1 B2 6_555 . 7_555 115.01(10)
B5 Fe1 B2 6_555 . 8_455 83.83(10)
B5 Fe1 B1 6_555 . 3_454 101.71(8)
B5 Fe1 B1 6_555 . 3_455 78.29(8)
B5 Fe1 B5 11_455 . 12_555 156.58(11)
B5 Fe1 B5 11_455 . 15_555 141.79(10)
B5 Fe1 B5 11_455 . 16_455 45.30(10)
B5 Fe1 B2 11_455 . 3_455 44.43(11)
B5 Fe1 B2 11_455 . 4_555 113.50(11)
B5 Fe1 B2 11_455 . 7_555 115.01(10)
B5 Fe1 B2 11_455 . 8_455 83.83(10)
B5 Fe1 B1 11_455 . 3_454 101.71(8)
B5 Fe1 B1 11_455 . 3_455 78.29(8)
B5 Fe1 B5 12_555 . 15_555 45.30(10)
B5 Fe1 B5 12_555 . 16_455 141.79(10)
B5 Fe1 B2 12_555 . 3_455 113.50(11)
B5 Fe1 B2 12_555 . 4_555 44.43(11)
B5 Fe1 B2 12_555 . 7_555 83.83(10)
B5 Fe1 B2 12_555 . 8_455 115.01(10)
B5 Fe1 B1 12_555 . 3_454 101.71(8)
B5 Fe1 B1 12_555 . 3_455 78.29(8)
B5 Fe1 B5 15_555 . 16_455 156.58(11)
B5 Fe1 B2 15_555 . 3_455 115.01(10)
B5 Fe1 B2 15_555 . 4_555 83.83(10)
B5 Fe1 B2 15_555 . 7_555 44.43(11)
B5 Fe1 B2 15_555 . 8_455 113.50(11)
B5 Fe1 B1 15_555 . 3_454 78.29(8)
B5 Fe1 B1 15_555 . 3_455 101.71(8)
B5 Fe1 B2 16_455 . 3_455 83.83(10)
B5 Fe1 B2 16_455 . 4_555 115.01(10)
B5 Fe1 B2 16_455 . 7_555 113.50(11)
B5 Fe1 B2 16_455 . 8_455 44.43(11)
B5 Fe1 B1 16_455 . 3_454 78.29(8)
B5 Fe1 B1 16_455 . 3_455 101.71(8)
B2 Fe1 B2 3_455 . 4_555 78.02(11)
B2 Fe1 B2 3_455 . 7_555 127.14(10)
B2 Fe1 B2 3_455 . 8_455 127.14(10)
B2 Fe1 B1 3_455 . 3_454 140.99(8)
B2 Fe1 B1 3_455 . 3_455 39.01(8)
B2 Fe1 B2 4_555 . 7_555 127.14(10)
B2 Fe1 B2 4_555 . 8_455 127.14(10)
B2 Fe1 B1 4_555 . 3_454 140.99(8)
B2 Fe1 B1 4_555 . 3_455 39.01(8)
B2 Fe1 B2 7_555 . 8_455 78.02(11)
B2 Fe1 B1 7_555 . 3_454 39.01(8)
B2 Fe1 B1 7_555 . 3_455 140.99(8)
B2 Fe1 B1 8_455 . 3_454 39.01(8)
B2 Fe1 B1 8_455 . 3_455 140.99(8)
B1 Fe1 B1 3_454 . 3_455 180.0(5)
B4 B4 B4 6_545 . 7_555 140.5(2)
B4 B4 B5 6_545 . . 138.0(2)
B4 B4 B5 6_545 . 7_555 114.2(2)
B4 B4 B2 6_545 . . 99.1(2)
B4 B4 B3 6_545 . . 112.3(2)
B4 B4 B5 7_555 . . 59.58(16)
B4 B4 B5 7_555 . 7_555 59.81(16)
B4 B4 B2 7_555 . . 107.7(2)
B4 B4 B3 7_555 . . 106.3(2)
B5 B4 B5 . . 7_555 107.3(2)
B5 B4 B2 . . . 107.0(2)
B5 B4 B3 . . . 58.97(16)
B5 B4 B2 7_555 . . 60.39(18)
B5 B4 B3 7_555 . . 107.0(2)
B2 B4 B3 . . . 59.28(17)
Fe1 B5 B4 . . . 167.66(19)
Fe1 B5 B4 . . 7_555 130.46(18)
Fe1 B5 B5 . . 5_455 67.35(14)
Fe1 B5 B5 . . 15_555 65.10(13)
Fe1 B5 B2 . . 7_555 77.82(15)
Fe1 B5 B3 . . . 107.42(17)
B4 B5 B4 . . 7_555 60.61(17)
B4 B5 B5 . . 5_455 113.6(2)
B4 B5 B5 . . 15_555 108.07(19)
B4 B5 B2 . . 7_555 108.1(2)
B4 B5 B3 . . . 60.80(16)
B4 B5 B5 7_555 . 5_455 120.2(2)
B4 B5 B5 7_555 . 15_555 108.12(19)
B4 B5 B2 7_555 . 7_555 60.14(17)
B4 B5 B3 7_555 . . 108.6(2)
B5 B5 B5 5_455 . 15_555 126.9(2)
B5 B5 B2 5_455 . 7_555 129.4(2)
B5 B5 B3 5_455 . . 118.2(2)
B5 B5 B2 15_555 . 7_555 59.41(16)
B5 B5 B3 15_555 . . 58.74(16)
B2 B5 B3 7_555 . . 106.3(2)
Fe1 B2 B4 3_554 . . 112.15(19)
Fe1 B2 B4 3_554 . 15_555 112.15(19)
Fe1 B2 B5 3_554 . 7_555 57.76(14)
Fe1 B2 B5 3_554 . 9_555 57.76(14)
Fe1 B2 B3 3_554 . . 161.7(2)
Fe1 B2 B1 3_554 . . 69.63(11)
B4 B2 B4 . . 15_555 109.9(2)
B4 B2 B5 . . 7_555 59.47(17)
B4 B2 B5 . . 9_555 109.0(2)
B4 B2 B3 . . . 60.42(17)
B4 B2 B1 . . . 122.5(2)
B4 B2 B5 15_555 . 7_555 109.0(2)
B4 B2 B5 15_555 . 9_555 59.47(17)
B4 B2 B3 15_555 . . 60.42(17)
B4 B2 B1 15_555 . . 122.5(2)
B5 B2 B5 7_555 . 9_555 61.17(18)
B5 B2 B3 7_555 . . 107.2(2)
B5 B2 B1 7_555 . . 116.6(2)
B5 B2 B3 9_555 . . 107.2(2)
B5 B2 B1 9_555 . . 116.6(2)
B3 B2 B1 . . . 128.6(3)
B4 B3 B4 . . 15_555 109.7(2)
B4 B3 B5 . . . 60.23(17)
B4 B3 B5 . . 15_555 110.6(2)
B4 B3 B2 . . . 60.29(18)
B4 B3 B3 . . 7_556 121.7(2)
B4 B3 B5 15_555 . . 110.6(2)
B4 B3 B5 15_555 . 15_555 60.23(17)
B4 B3 B2 15_555 . . 60.29(18)
B4 B3 B3 15_555 . 7_556 121.7(2)
B5 B3 B5 . . 15_555 62.53(17)
B5 B3 B2 . . . 108.8(3)
B5 B3 B3 . . 7_556 117.3(2)
B5 B3 B2 15_555 . . 108.8(3)
B5 B3 B3 15_555 . 7_556 117.3(2)
B2 B3 B3 . . 7_556 125.5(2)
Fe1 B1 Fe1 3_554 . 3_555 180.0(5)
Fe1 B1 B2 3_554 . . 71.36(13)
Fe1 B1 B2 3_554 . 2_545 71.36(13)
Fe1 B1 B2 3_554 . 5_555 108.64(13)
Fe1 B1 B2 3_554 . 6_545 108.64(13)
Fe1 B1 B2 3_555 . . 108.64(13)
Fe1 B1 B2 3_555 . 2_545 108.64(13)
Fe1 B1 B2 3_555 . 5_555 71.36(13)
Fe1 B1 B2 3_555 . 6_545 71.36(13)
B2 B1 B2 . . 2_545 142.71(19)
B2 B1 B2 . . 5_555 95.87(15)
B2 B1 B2 . . 6_545 95.87(15)
B2 B1 B2 2_545 . 5_555 95.87(15)
B2 B1 B2 2_545 . 6_545 95.87(15)
B2 B1 B2 5_555 . 6_545 142.71(19)
loop_
_geom_bond_atom_site_label_1
_geom_bond_atom_site_label_2
_geom_bond_site_symmetry_1
_geom_bond_site_symmetry_2
_geom_bond_distance
Fe1 B5 . . 2.108(3)
Fe1 B5 . 2_455 2.108(3)
Fe1 B5 . 5_455 2.108(3)
Fe1 B5 . 6_555 2.108(3)
Fe1 B5 . 11_455 2.108(3)
Fe1 B5 . 12_555 2.108(3)
Fe1 B5 . 15_555 2.108(3)
Fe1 B5 . 16_455 2.108(3)
Fe1 B2 . 3_455 2.436(4)
Fe1 B2 . 4_555 2.436(4)
Fe1 B2 . 7_555 2.436(4)
Fe1 B2 . 8_455 2.436(4)
Fe1 B1 . 3_454 2.4104(3)
Fe1 B1 . 3_455 2.4104(3)
B4 B4 . 6_545 1.838(4)
B4 B4 . 7_555 1.747(4)
B4 B5 . . 1.733(4)
B4 B5 . 7_555 1.729(4)
B4 B2 . . 1.740(4)
B4 B3 . . 1.743(4)
B5 B5 . 5_455 1.624(4)
B5 B5 . 15_555 1.776(4)
B5 B2 . 7_555 1.745(5)
B5 B3 . . 1.711(4)
B2 B3 . . 1.723(5)
B2 B1 . . 1.619(3)
B3 B3 . 7_556 1.584(6)
loop_
_refln_index_h
_refln_index_k
_refln_index_l
_refln_F_squared_calc
_refln_F_squared_meas
_refln_F_squared_sigma
_refln_observed_status
1 0 1 242.21 300.85 7.49 o
1 0 3 265.15 249.26 10.68 o
1 0 5 59.19 67.04 8.76 o
1 1 1 622.14 550.97 12.30 o
1 1 2 542.89 531.78 11.65 o
1 1 3 374.67 403.48 9.77 o
1 1 4 237.69 230.57 9.62 o
1 1 5 5.66 6.89 2.08 o
1 1 6 107.60 120.71 10.23 o
2 0 0 316.55 282.83 6.94 o
2 0 2 97.25 123.24 4.05 o
2 0 4 706.43 696.18 19.59 o
2 0 6 598.04 630.21 22.99 o
2 1 1 173.12 190.73 3.65 o
2 1 2 5.31 7.04 0.91 o
2 1 3 85.04 86.53 4.10 o
2 1 4 11.81 10.63 1.62 o
2 1 5 40.97 32.86 2.63 o
2 1 6 29.85 33.62 3.39 o
2 2 0 259.57 360.14 9.92 o
2 2 1 0.08 0.20 0.46 <
2 2 2 393.11 516.64 12.96 o
2 2 3 0.70 0.30 0.35 <
2 2 4 378.24 430.72 15.14 o
2 2 5 0.61 0.10 1.92 <
2 2 6 156.81 157.87 15.24 o
3 0 1 51.79 35.04 2.23 o
3 0 3 104.54 83.79 4.91 o
3 0 5 101.26 117.41 9.21 o
3 1 0 753.48 830.25 12.91 o
3 1 1 1033.79 1233.02 10.48 o
3 1 2 457.76 466.77 6.68 o
3 1 3 1385.64 1388.51 17.57 o
3 1 4 184.66 184.80 8.40 o
3 1 5 29.19 45.52 5.77 o
3 1 6 76.31 102.02 11.44 o
3 2 1 2.10 0.05 0.30 <
3 2 2 18.84 24.51 1.77 o
3 2 3 161.20 145.92 6.03 o
3 2 4 4.70 7.49 1.32 o
3 2 5 200.57 199.59 11.34 o
3 2 6 1.25 1.47 1.11 <
3 2 7 39.22 45.47 10.48 o
3 3 0 702.01 654.00 18.33 o
3 3 1 481.57 576.59 15.34 o
3 3 2 376.78 450.97 14.48 o
3 3 3 1101.04 994.35 22.89 o
3 3 4 118.48 128.15 9.27 o
3 3 5 143.79 196.65 12.66 o
3 3 6 71.91 59.95 9.52 o
4 0 0 142.82 175.84 8.00 o
4 0 2 455.99 526.61 11.09 o
4 0 4 592.98 618.31 14.02 o
4 0 6 90.25 82.78 13.11 o
4 1 1 1047.62 1225.22 11.44 o
4 1 2 71.51 74.53 3.14 o
4 1 3 25.15 42.02 2.48 o
4 1 4 7.36 8.71 1.52 o
4 1 5 59.91 87.34 7.24 o
4 1 6 22.45 40.35 8.56 o
4 2 0 597.69 602.16 15.90 o
4 2 1 0.00 0.10 0.30 <
4 2 2 349.32 357.25 8.00 o
4 2 3 0.07 0.15 0.35 <
4 2 4 126.28 107.54 6.03 o
4 2 5 0.34 1.57 1.32 <
4 2 6 75.15 81.77 8.96 o
4 2 7 0.05 0.91 1.37 <
4 3 1 220.12 215.79 7.70 o
4 3 2 665.54 684.99 13.42 o
4 3 3 109.10 112.25 4.76 o
4 3 4 266.53 309.46 10.48 o
4 3 5 15.98 12.96 2.08 o
4 3 6 39.91 50.07 6.23 o
4 3 7 0.04 -0.30 1.11 <
4 4 1 17.84 16.46 3.19 o
4 4 2 555.14 481.15 16.96 o
4 4 3 17.94 22.48 3.75 o
4 4 4 8.15 9.57 2.53 o
4 4 5 10.18 6.08 2.38 o
4 4 6 7.00 12.15 3.70 o
5 0 1 1316.11 1265.73 17.57 o
5 0 3 0.16 0.35 0.71 <
5 0 5 211.11 237.05 13.06 o
5 1 0 362.91 385.35 9.57 o
5 1 1 46.80 60.25 2.73 o
5 1 2 350.31 352.29 7.85 o
5 1 3 80.20 79.19 4.05 o
5 1 4 232.20 245.51 7.09 o
5 1 5 0.01 -0.35 1.06 <
5 2 1 554.13 503.38 10.43 o
5 2 2 960.78 952.63 14.58 o
5 2 3 70.79 72.81 4.61 o
5 2 4 277.61 320.75 10.38 o
5 2 5 10.24 16.86 3.44 o
5 2 6 124.95 364.14 30.48 o
5 2 7 9.08 26.18 14.68 <
5 3 0 357.98 304.14 13.77 o
5 3 1 3.29 0.91 0.71 <
5 3 2 277.09 284.55 9.16 o
5 3 3 0.30 0.71 0.71 <
5 3 4 154.57 155.39 6.73 o
5 3 5 37.54 49.72 4.91 o
5 3 6 75.87 93.57 10.28 o
5 3 7 11.97 15.29 8.15 <
5 4 1 263.54 170.22 9.32 o
5 4 2 44.04 33.37 3.70 o
5 4 3 229.15 250.22 8.40 o
5 4 4 18.04 14.83 2.13 o
5 4 5 775.82 936.63 23.34 o
5 5 1 0.65 0.30 1.42 <
5 5 2 225.87 210.63 12.96 o
5 5 3 0.00 0.30 1.72 <
5 5 4 12.69 8.56 1.42 o
5 5 5 5.88 9.06 3.24 o
5 5 6 36.26 24.71 5.01 o
6 0 0 277.44 266.93 12.40 o
6 0 2 2.37 7.04 1.47 o
6 0 4 778.53 765.24 19.64 o
6 1 1 119.96 84.35 3.59 o
6 1 2 393.98 386.11 8.96 o
6 1 3 187.95 184.65 7.04 o
6 1 4 112.04 115.54 5.22 o
6 1 5 557.61 639.02 16.51 o
6 2 0 2668.23 2506.80 32.20 o
6 2 1 10.60 7.14 1.62 o
6 2 2 810.44 730.71 14.58 o
6 2 3 5.60 6.43 1.27 o
6 2 4 32.43 37.37 3.49 o
6 2 5 18.58 12.76 2.13 o
6 2 6 125.01 514.11 75.19 o
6 3 1 635.33 569.45 14.33 o
6 3 2 252.12 239.99 9.42 o
6 3 3 10.52 10.99 2.13 o
6 3 4 70.88 78.33 5.82 o
6 3 5 70.84 81.52 7.80 o
6 3 6 39.86 63.59 19.29 o
6 4 0 55.21 47.80 6.28 o
6 4 1 1.46 0.76 0.66 <
6 4 2 25.27 27.39 3.85 o
6 4 3 6.98 9.77 2.03 o
6 4 4 536.59 608.18 15.29 o
6 4 5 3.40 4.20 1.72 o
6 4 6 510.98 896.27 46.38 o
6 5 1 152.13 128.60 11.85 o
6 5 2 15.34 13.16 2.73 o
6 5 3 31.16 27.04 3.54 o
6 5 4 0.38 2.13 1.47 <
6 5 5 1.62 1.11 1.47 <
6 5 6 20.82 27.95 7.04 o
6 6 1 74.18 82.93 14.23 o
6 6 2 328.02 265.41 17.06 o
6 6 3 138.01 114.43 11.24 o
6 6 4 125.69 104.91 15.29 o
7 0 1 30.54 22.58 2.84 o
7 0 3 99.92 90.43 6.58 o
7 0 5 300.12 313.31 13.57 o
7 1 0 181.52 173.82 7.65 o
7 1 1 7.38 8.15 1.22 o
7 1 2 144.34 141.26 5.77 o
7 1 3 6.22 5.62 1.32 o
7 1 4 120.70 113.92 6.53 o
7 1 5 8.09 8.05 1.87 o
7 2 1 105.91 106.48 5.47 o
7 2 2 245.91 259.99 8.25 o
7 2 3 56.25 50.23 4.51 o
7 2 4 119.50 133.82 9.06 o
7 2 5 16.88 13.16 1.62 o
7 3 0 34.69 32.51 4.81 o
7 3 1 11.38 6.48 1.72 o
7 3 2 150.36 142.38 7.39 o
7 3 3 42.77 49.62 4.81 o
7 3 4 339.66 335.94 13.62 o
7 3 5 12.21 14.33 2.84 o
7 3 6 136.28 196.04 33.37 o
7 4 1 82.54 67.90 5.72 o
7 4 2 5.58 4.81 0.96 o
7 4 3 22.55 24.45 3.24 o
7 4 4 2.66 3.85 0.86 o
7 4 5 12.18 8.46 3.90 o
7 4 6 0.31 5.87 5.32 <
7 5 0 272.08 195.59 15.44 o
7 5 1 116.64 82.93 8.61 o
7 5 2 198.85 176.55 12.71 o
7 5 3 262.99 236.35 15.59 o
7 5 4 83.22 89.41 8.61 o
7 5 5 0.84 3.49 7.04 <
7 6 1 464.05 319.53 27.54 o
7 6 2 91.67 70.88 12.40 o
7 6 3 13.74 13.52 6.73 o
7 6 4 27.06 34.78 9.11 o
8 0 0 704.71 751.06 25.47 o
8 0 2 306.19 335.08 13.37 o
8 0 4 14.97 9.01 3.29 o
8 1 1 100.96 117.77 4.91 o
8 1 2 1.95 2.23 1.22 <
8 1 3 59.80 54.18 5.27 o
8 1 4 14.59 14.18 2.23 o
8 1 5 11.65 9.11 2.08 o
8 2 0 88.77 83.95 6.53 o
8 2 1 14.77 14.02 2.13 o
8 2 2 123.26 124.25 6.03 o
8 2 3 50.76 48.10 5.06 o
8 2 4 168.21 163.08 12.15 o
8 2 5 9.31 4.30 1.62 o
8 3 1 302.95 293.36 10.23 o
8 3 2 23.26 23.44 2.94 o
8 3 3 7.57 12.10 2.28 o
8 3 4 7.56 13.01 4.20 o
8 3 5 18.78 16.40 6.43 o
8 4 0 130.70 97.01 9.72 o
8 4 1 126.67 88.45 7.04 o
8 4 2 180.70 159.39 10.23 o
8 4 3 291.93 327.38 20.61 o
8 4 4 175.55 237.01 14.99 o
8 4 5 1.31 -1.37 3.34 <
8 5 1 1.91 0.41 1.01 <
8 5 3 35.51 43.29 8.46 o
8 5 4 132.45 198.52 17.72 o
9 0 1 16.92 10.23 1.87 o
9 0 3 147.28 167.08 13.11 o
9 1 0 1100.69 1121.68 23.14 o
9 1 1 153.60 154.07 6.13 o
9 1 2 353.37 342.27 10.78 o
9 1 3 466.99 471.07 16.51 o
9 1 4 5.85 1.82 1.32 <
9 2 1 187.67 176.15 8.00 o
9 2 2 141.07 128.15 7.75 o
9 2 3 30.11 25.62 4.61 o
9 2 4 26.20 18.89 4.10 o
9 2 5 1.26 7.09 3.85 <
9 3 0 144.60 111.79 10.68 o
9 3 1 197.49 158.58 8.76 o
9 3 2 146.45 116.86 9.52 o
9 3 3 545.47 623.67 25.06 o
9 3 4 113.50 139.49 12.20 o
9 3 5 32.49 36.10 8.40 o
9 4 1 144.47 85.97 15.59 o
9 4 2 270.65 202.12 15.34 o
9 4 3 1.83 11.75 5.82 o
9 4 4 103.68 193.61 20.35 o
9 5 3 192.78 230.88 21.16 o
10 0 0 96.12 92.10 13.97 o
10 0 2 87.23 94.48 9.97 o
10 0 4 84.17 82.93 14.28 o
10 1 1 118.39 126.63 8.25 o
10 1 2 94.79 105.77 7.39 o
10 1 3 13.77 10.48 2.48 o
10 1 4 21.09 18.18 4.51 o
10 2 0 150.59 121.62 11.19 o
10 2 1 278.24 228.90 12.30 o
10 2 2 148.85 145.82 8.61 o
10 2 3 591.57 589.65 35.34 o
10 2 4 104.42 132.76 13.67 o
10 3 1 8.33 5.32 3.04 <
10 3 2 2.62 1.16 1.47 <
10 3 3 65.61 82.02 12.20 o
10 3 4 9.57 10.94 4.56 o
10 4 2 54.94 52.66 10.18 o
10 4 3 185.74 219.28 21.52 o
10 5 3 14.83 19.59 7.59 o
11 0 1 105.53 131.84 16.91 o
11 0 3 6.92 9.72 4.56 o
11 1 1 6.70 4.05 4.05 <
11 1 2 9.78 9.32 2.89 o
11 1 3 16.97 13.11 2.84 o
11 1 4 539.45 660.03 39.90 o
11 2 1 0.63 0.71 1.72 <
11 2 2 5.86 38.38 11.49 o
11 2 3 15.43 11.90 4.15 o
11 3 1 7.13 3.19 2.38 <
11 3 2 163.63 162.73 19.49 o
11 3 3 25.81 31.75 7.54 o
11 4 2 40.85 38.68 10.38 o
11 4 3 49.15 59.14 11.80 o
12 1 3 9.52 13.97 7.14 <
12 2 3 194.26 262.02 28.71 o
12 3 3 76.79 112.20 19.39 o
12 4 3 18.28 25.77 9.92 o
