#------------------------------------------------------------------------------
#$Date: 2021-04-14 13:25:36 +0300 (Wed, 14 Apr 2021) $
#$Revision: 264169 $
#$URL: file:///home/coder/svn-repositories/cod/cif/1/56/17/1561774.cif $
#------------------------------------------------------------------------------
#
# This file is available in the Crystallography Open Database (COD),
# http://www.crystallography.net/
#
# All data on this site have been placed in the public domain by the
# contributors.
#
data_1561774
loop_
_publ_author_name
'Bykova, E.'
'Gou, H.'
'Bykov, M.'
'Hanfland, M.'
'Dubrovinsky, L.'
'Dubrovinskaia, N.'
_publ_section_title
;
 Crystal structures and compressibility of novel iron borides Fe2B7 and Fe
 B50 synthesized at high pressure and high temperature
;
_journal_name_full               'Journal of Solid State Chemistry'
_journal_page_first              102
_journal_page_last               109
_journal_paper_doi               10.1016/j.jssc.2015.06.040
_journal_volume                  230
_journal_year                    2015
_chemical_absolute_configuration .
_chemical_formula_moiety         'B50 Fe1.01'
_chemical_formula_sum            'B50 Fe1.01'
_chemical_formula_weight         596.9
_chemical_name_common            'Iron Boron (1.01/50)'
_chemical_name_systematic        'Iron Boron (1.01/50)'
_space_group_IT_number           134
_space_group_name_Hall           '-P 4ac 2bc'
_space_group_name_H-M_alt        'P 42/n n m :2'
_symmetry_cell_setting           tetragonal
_symmetry_Int_Tables_number      134
_symmetry_space_group_name_Hall  '-P 4ac 2bc'
_symmetry_space_group_name_H-M   'P 42/n n m :2'
_cell_angle_alpha                90
_cell_angle_beta                 90
_cell_angle_gamma                90
_cell_formula_units_Z            1
_cell_length_a                   8.4765(5)
_cell_length_b                   8.4765(5)
_cell_length_c                   4.7855(4)
_cell_measurement_reflns_used    240
_cell_measurement_temperature    293
_cell_measurement_theta_max      18.69
_cell_measurement_theta_min      2.85
_cell_volume                     343.84(4)
_computing_cell_refinement
;
CrysAlisPro, Agilent Technologies,
Version 1.171.37.35 (release 13-08-2014 CrysAlis171 .NET)
(compiled Aug 13 2014,18:06:01)
;
_computing_data_collection
;
CrysAlisPro, Agilent Technologies,
Version 1.171.37.35 (release 13-08-2014 CrysAlis171 .NET)
(compiled Aug 13 2014,18:06:01)
;
_computing_data_reduction
;
CrysAlisPro, Agilent Technologies,
Version 1.171.37.35 (release 13-08-2014 CrysAlis171 .NET)
(compiled Aug 13 2014,18:06:01)
;
_computing_structure_refinement  'Jana2006 (Petricek, 2014)'
_computing_structure_solution    'SHELXS-2013 (Sheldrick, 2013)'
_diffrn_ambient_pressure         40700000
_diffrn_ambient_temperature      293
_diffrn_detector                 'MAR555 flatpanel detector'
_diffrn_measured_fraction_theta_full 0.94
_diffrn_measured_fraction_theta_max 0.65
_diffrn_measurement_device
;
customized omega-circle diffractometer
;
_diffrn_measurement_device_type  'ESRF, beamline ID09A diffractometer'
_diffrn_measurement_method       '\w scans'
_diffrn_radiation_monochromator  synchrotron
_diffrn_radiation_probe          x-ray
_diffrn_radiation_source         synchrotron
_diffrn_radiation_type           synchrotron
_diffrn_radiation_wavelength     0.41409
_diffrn_reflns_av_R_equivalents  0.0344
_diffrn_reflns_av_unetI/netI     0.0633
_diffrn_reflns_limit_h_max       4
_diffrn_reflns_limit_h_min       -9
_diffrn_reflns_limit_k_max       12
_diffrn_reflns_limit_k_min       -12
_diffrn_reflns_limit_l_max       7
_diffrn_reflns_limit_l_min       -6
_diffrn_reflns_number            611
_diffrn_reflns_theta_full        13.22
_diffrn_reflns_theta_max         19.22
_diffrn_reflns_theta_min         2.8
_diffrn_source                   synchrotron
_exptl_absorpt_coefficient_mu    0.269
_exptl_absorpt_correction_T_max  1
_exptl_absorpt_correction_T_min  0.171
_exptl_absorpt_correction_type   multi-scan
_exptl_absorpt_process_details
;
CrysAlisPro, Agilent Technologies,
Version 1.171.37.35 (release 13-08-2014 CrysAlis171 .NET)
(compiled Aug 13 2014,18:06:01)
Empirical absorption correction using spherical harmonics,
 implemented in SCALE3 ABSPACK scaling algorithm.
;
_exptl_crystal_colour            black
_exptl_crystal_density_diffrn    2.8817
_exptl_crystal_description       plate
_exptl_crystal_F_000             276
_exptl_crystal_size_max          0.020
_exptl_crystal_size_mid          0.020
_exptl_crystal_size_min          0.005
_refine_diff_density_max         0.79
_refine_diff_density_min         -0.66
_refine_ls_extinction_method     none
_refine_ls_goodness_of_fit_gt    2.27
_refine_ls_goodness_of_fit_ref   2.11
_refine_ls_number_constraints    0
_refine_ls_number_parameters     18
_refine_ls_number_reflns         260
_refine_ls_number_restraints     0
_refine_ls_R_factor_all          0.0841
_refine_ls_R_factor_gt           0.0719
_refine_ls_shift/su_max          0.0002
_refine_ls_shift/su_mean         0.0000
_refine_ls_structure_factor_coef Fsqd
_refine_ls_weighting_details     w=1/(\s^2^(I)+0.0004I^2^)
_refine_ls_weighting_scheme      sigma
_refine_ls_wR_factor_gt          0.1389
_refine_ls_wR_factor_ref         0.1416
_reflns_number_gt                218
_reflns_number_total             260
_reflns_threshold_expression     I>2\s(I)
_cod_data_source_file            feb50_40.7GPa.cif
_cod_data_source_block           Fe1.0B50_40.7GPa
_cod_depositor_comments
;
The following automatic conversions were performed:

data item '_diffrn_radiation_probe' value 'X-ray' was changed to
'x-ray' in accordance with the built-in table derived from the CIF
Core dictionary named 'cif_core.dic' version 2.4.5 last updated on
2014-11-21.

Automatic conversion script
Id: cif_fix_values 8369 2020-08-20 11:38:08Z andrius 
;
_cod_original_sg_symbol_H-M      'P 42/n n m'
_cod_database_code               1561774
loop_
_symmetry_equiv_pos_site_id
_symmetry_equiv_pos_as_xyz
1 x,y,z
2 -x+1/2,-y+1/2,z
3 -y+1/2,x,z+1/2
4 y,-x+1/2,z+1/2
5 -x+1/2,y,-z+1/2
6 x,-y+1/2,-z+1/2
7 y,x,-z
8 -y+1/2,-x+1/2,-z
9 -x,-y,-z
10 x+1/2,y+1/2,-z
11 y+1/2,-x,-z+1/2
12 -y,x+1/2,-z+1/2
13 x+1/2,-y,z+1/2
14 -x,y+1/2,z+1/2
15 -y,-x,z
16 y+1/2,x+1/2,z
loop_
_atom_site_label
_atom_site_type_symbol
_atom_site_fract_x
_atom_site_fract_y
_atom_site_fract_z
_atom_site_adp_type
_atom_site_U_iso_or_equiv
_atom_site_site_symmetry_multiplicity
_atom_site_occupancy
_atom_site_calc_flag
_atom_site_refinement_flags
_atom_site_disorder_assembly
_atom_site_disorder_group
Fe1 Fe -0.25 0.25 0.25 Uani 0.0049(5) 2 0.5049 d . . .
B4 B -0.0782(4) -0.1589(4) 0.1502(7) Uiso 0.0039(7) 16 1 d . . .
B5 B -0.1688(4) 0.0225(4) 0.1603(6) Uiso 0.0031(7) 16 1 d . . .
B2 B 0.1234(4) -0.1234(4) 0.1427(8) Uiso 0.0036(9) 8 1 d . . .
B3 B 0.0031(4) -0.0031(4) 0.3345(9) Uiso 0.0031(9) 8 1 d . . .
B1 B 0.25 -0.25 0.25 Uiso 0.0048(17) 2 1 d . . .
loop_
_atom_site_aniso_label
_atom_site_aniso_type_symbol
_atom_site_aniso_U_11
_atom_site_aniso_U_22
_atom_site_aniso_U_33
_atom_site_aniso_U_12
_atom_site_aniso_U_13
_atom_site_aniso_U_23
Fe1 Fe 0.0037(8) 0.0037(8) 0.0074(11) 0 0 0
loop_
_atom_type_symbol
_atom_type_scat_dispersion_real
_atom_type_scat_dispersion_imag
_atom_type_scat_source
B -0.0003 0.0002 'International Tables Vol C tables 4.2.6.8 and 6.1.1.1'
Fe 0.1991 0.3106 'International Tables Vol C tables 4.2.6.8 and 6.1.1.1'
loop_
_geom_angle_atom_site_label_1
_geom_angle_atom_site_label_2
_geom_angle_atom_site_label_3
_geom_angle_site_symmetry_1
_geom_angle_site_symmetry_2
_geom_angle_site_symmetry_3
_geom_angle
B5 Fe1 B5 . . 2_455 156.31(11)
B5 Fe1 B5 . . 5_455 45.64(12)
B5 Fe1 B5 . . 6_555 141.58(12)
B5 Fe1 B5 . . 11_455 92.42(12)
B5 Fe1 B5 . . 12_555 92.42(12)
B5 Fe1 B5 . . 15_555 49.56(12)
B5 Fe1 B5 . . 16_455 124.36(12)
B5 Fe1 B2 . . 3_455 84.05(11)
B5 Fe1 B2 . . 4_555 115.03(11)
B5 Fe1 B2 . . 7_555 44.32(11)
B5 Fe1 B2 . . 8_455 113.33(11)
B5 Fe1 B1 . . 3_454 78.15(8)
B5 Fe1 B1 . . 3_455 101.85(8)
B5 Fe1 B5 2_455 . 5_455 141.58(12)
B5 Fe1 B5 2_455 . 6_555 45.64(12)
B5 Fe1 B5 2_455 . 11_455 92.42(12)
B5 Fe1 B5 2_455 . 12_555 92.42(12)
B5 Fe1 B5 2_455 . 15_555 124.36(12)
B5 Fe1 B5 2_455 . 16_455 49.56(12)
B5 Fe1 B2 2_455 . 3_455 115.03(11)
B5 Fe1 B2 2_455 . 4_555 84.05(11)
B5 Fe1 B2 2_455 . 7_555 113.33(11)
B5 Fe1 B2 2_455 . 8_455 44.32(11)
B5 Fe1 B1 2_455 . 3_454 78.15(8)
B5 Fe1 B1 2_455 . 3_455 101.85(8)
B5 Fe1 B5 5_455 . 6_555 156.31(11)
B5 Fe1 B5 5_455 . 11_455 49.56(12)
B5 Fe1 B5 5_455 . 12_555 124.36(12)
B5 Fe1 B5 5_455 . 15_555 92.42(12)
B5 Fe1 B5 5_455 . 16_455 92.42(12)
B5 Fe1 B2 5_455 . 3_455 44.32(11)
B5 Fe1 B2 5_455 . 4_555 113.33(11)
B5 Fe1 B2 5_455 . 7_555 84.05(11)
B5 Fe1 B2 5_455 . 8_455 115.03(11)
B5 Fe1 B1 5_455 . 3_454 101.85(8)
B5 Fe1 B1 5_455 . 3_455 78.15(8)
B5 Fe1 B5 6_555 . 11_455 124.36(12)
B5 Fe1 B5 6_555 . 12_555 49.56(12)
B5 Fe1 B5 6_555 . 15_555 92.42(12)
B5 Fe1 B5 6_555 . 16_455 92.42(12)
B5 Fe1 B2 6_555 . 3_455 113.33(11)
B5 Fe1 B2 6_555 . 4_555 44.32(11)
B5 Fe1 B2 6_555 . 7_555 115.03(11)
B5 Fe1 B2 6_555 . 8_455 84.05(11)
B5 Fe1 B1 6_555 . 3_454 101.85(8)
B5 Fe1 B1 6_555 . 3_455 78.15(8)
B5 Fe1 B5 11_455 . 12_555 156.31(11)
B5 Fe1 B5 11_455 . 15_555 141.58(12)
B5 Fe1 B5 11_455 . 16_455 45.64(12)
B5 Fe1 B2 11_455 . 3_455 44.32(11)
B5 Fe1 B2 11_455 . 4_555 113.33(11)
B5 Fe1 B2 11_455 . 7_555 115.03(11)
B5 Fe1 B2 11_455 . 8_455 84.05(11)
B5 Fe1 B1 11_455 . 3_454 101.85(8)
B5 Fe1 B1 11_455 . 3_455 78.15(8)
B5 Fe1 B5 12_555 . 15_555 45.64(12)
B5 Fe1 B5 12_555 . 16_455 141.58(12)
B5 Fe1 B2 12_555 . 3_455 113.33(11)
B5 Fe1 B2 12_555 . 4_555 44.32(11)
B5 Fe1 B2 12_555 . 7_555 84.05(11)
B5 Fe1 B2 12_555 . 8_455 115.03(11)
B5 Fe1 B1 12_555 . 3_454 101.85(8)
B5 Fe1 B1 12_555 . 3_455 78.15(8)
B5 Fe1 B5 15_555 . 16_455 156.31(11)
B5 Fe1 B2 15_555 . 3_455 115.03(11)
B5 Fe1 B2 15_555 . 4_555 84.05(11)
B5 Fe1 B2 15_555 . 7_555 44.32(11)
B5 Fe1 B2 15_555 . 8_455 113.33(11)
B5 Fe1 B1 15_555 . 3_454 78.15(8)
B5 Fe1 B1 15_555 . 3_455 101.85(8)
B5 Fe1 B2 16_455 . 3_455 84.05(11)
B5 Fe1 B2 16_455 . 4_555 115.03(11)
B5 Fe1 B2 16_455 . 7_555 113.33(11)
B5 Fe1 B2 16_455 . 8_455 44.32(11)
B5 Fe1 B1 16_455 . 3_454 78.15(8)
B5 Fe1 B1 16_455 . 3_455 101.85(8)
B2 Fe1 B2 3_455 . 4_555 77.85(12)
B2 Fe1 B2 3_455 . 7_555 127.24(11)
B2 Fe1 B2 3_455 . 8_455 127.24(11)
B2 Fe1 B1 3_455 . 3_454 141.07(8)
B2 Fe1 B1 3_455 . 3_455 38.93(8)
B2 Fe1 B2 4_555 . 7_555 127.24(11)
B2 Fe1 B2 4_555 . 8_455 127.24(11)
B2 Fe1 B1 4_555 . 3_454 141.07(8)
B2 Fe1 B1 4_555 . 3_455 38.93(8)
B2 Fe1 B2 7_555 . 8_455 77.85(12)
B2 Fe1 B1 7_555 . 3_454 38.93(8)
B2 Fe1 B1 7_555 . 3_455 141.07(8)
B2 Fe1 B1 8_455 . 3_454 38.93(8)
B2 Fe1 B1 8_455 . 3_455 141.07(8)
B1 Fe1 B1 3_454 . 3_455 180.0(5)
B4 B4 B4 6_545 . 7_555 140.6(2)
B4 B4 B5 6_545 . . 138.2(2)
B4 B4 B5 6_545 . 7_555 114.5(2)
B4 B4 B2 6_545 . . 99.1(2)
B4 B4 B3 6_545 . . 112.4(2)
B4 B4 B5 7_555 . . 59.58(18)
B4 B4 B5 7_555 . 7_555 59.83(18)
B4 B4 B2 7_555 . . 107.6(2)
B4 B4 B3 7_555 . . 106.2(2)
B5 B4 B5 . . 7_555 106.9(2)
B5 B4 B2 . . . 106.5(2)
B5 B4 B3 . . . 58.75(18)
B5 B4 B2 7_555 . . 60.0(2)
B5 B4 B3 7_555 . . 106.3(2)
B2 B4 B3 . . . 59.07(19)
Fe1 B5 B4 . . . 167.7(2)
Fe1 B5 B4 . . 7_555 130.7(2)
Fe1 B5 B5 . . 5_455 67.18(15)
Fe1 B5 B5 . . 15_555 65.22(14)
Fe1 B5 B2 . . 7_555 77.85(16)
Fe1 B5 B3 . . . 107.49(19)
B4 B5 B4 . . 7_555 60.59(18)
B4 B5 B5 . . 5_455 113.2(2)
B4 B5 B5 . . 15_555 108.5(2)
B4 B5 B2 . . 7_555 108.6(2)
B4 B5 B3 . . . 60.96(19)
B4 B5 B5 7_555 . 5_455 120.0(2)
B4 B5 B5 7_555 . 15_555 108.5(2)
B4 B5 B2 7_555 . 7_555 60.55(18)
B4 B5 B3 7_555 . . 108.7(2)
B5 B5 B5 5_455 . 15_555 126.9(2)
B5 B5 B2 5_455 . 7_555 129.3(2)
B5 B5 B3 5_455 . . 118.0(2)
B5 B5 B2 15_555 . 7_555 59.49(18)
B5 B5 B3 15_555 . . 58.82(18)
B2 B5 B3 7_555 . . 106.6(2)
Fe1 B2 B4 3_554 . . 112.1(2)
Fe1 B2 B4 3_554 . 15_555 112.1(2)
Fe1 B2 B5 3_554 . 7_555 57.83(15)
Fe1 B2 B5 3_554 . 9_555 57.83(15)
Fe1 B2 B3 3_554 . . 161.4(2)
Fe1 B2 B1 3_554 . . 69.76(12)
B4 B2 B4 . . 15_555 110.0(2)
B4 B2 B5 . . 7_555 59.42(18)
B4 B2 B5 . . 9_555 108.8(2)
B4 B2 B3 . . . 60.35(19)
B4 B2 B1 . . . 122.4(2)
B4 B2 B5 15_555 . 7_555 108.8(2)
B4 B2 B5 15_555 . 9_555 59.42(18)
B4 B2 B3 15_555 . . 60.35(19)
B4 B2 B1 15_555 . . 122.4(2)
B5 B2 B5 7_555 . 9_555 61.0(2)
B5 B2 B3 7_555 . . 106.8(2)
B5 B2 B1 7_555 . . 116.8(2)
B5 B2 B3 9_555 . . 106.8(2)
B5 B2 B1 9_555 . . 116.8(2)
B3 B2 B1 . . . 128.8(3)
B4 B3 B4 . . 15_555 110.4(3)
B4 B3 B5 . . . 60.29(19)
B4 B3 B5 . . 15_555 110.8(3)
B4 B3 B2 . . . 60.58(19)
B4 B3 B3 . . 7_556 121.4(3)
B4 B3 B5 15_555 . . 110.8(3)
B4 B3 B5 15_555 . 15_555 60.29(19)
B4 B3 B2 15_555 . . 60.58(19)
B4 B3 B3 15_555 . 7_556 121.4(3)
B5 B3 B5 . . 15_555 62.37(19)
B5 B3 B2 . . . 109.0(3)
B5 B3 B3 . . 7_556 117.3(3)
B5 B3 B2 15_555 . . 109.0(3)
B5 B3 B3 15_555 . 7_556 117.3(3)
B2 B3 B3 . . 7_556 125.2(3)
Fe1 B1 Fe1 3_554 . 3_555 180.0(5)
Fe1 B1 B2 3_554 . . 71.31(14)
Fe1 B1 B2 3_554 . 2_545 71.31(14)
Fe1 B1 B2 3_554 . 5_555 108.69(14)
Fe1 B1 B2 3_554 . 6_545 108.69(14)
Fe1 B1 B2 3_555 . . 108.69(14)
Fe1 B1 B2 3_555 . 2_545 108.69(14)
Fe1 B1 B2 3_555 . 5_555 71.31(14)
Fe1 B1 B2 3_555 . 6_545 71.31(14)
B2 B1 B2 . . 2_545 142.6(2)
B2 B1 B2 . . 5_555 95.89(17)
B2 B1 B2 . . 6_545 95.89(17)
B2 B1 B2 2_545 . 5_555 95.89(17)
B2 B1 B2 2_545 . 6_545 95.89(17)
B2 B1 B2 5_555 . 6_545 142.6(2)
loop_
_geom_bond_atom_site_label_1
_geom_bond_atom_site_label_2
_geom_bond_site_symmetry_1
_geom_bond_site_symmetry_2
_geom_bond_distance
Fe1 B5 . . 2.092(3)
Fe1 B5 . 2_455 2.092(3)
Fe1 B5 . 5_455 2.092(3)
Fe1 B5 . 6_555 2.092(3)
Fe1 B5 . 11_455 2.092(3)
Fe1 B5 . 12_555 2.092(3)
Fe1 B5 . 15_555 2.092(3)
Fe1 B5 . 16_455 2.092(3)
Fe1 B2 . 3_455 2.416(4)
Fe1 B2 . 4_555 2.416(4)
Fe1 B2 . 7_555 2.416(4)
Fe1 B2 . 8_455 2.416(4)
Fe1 B1 . 3_454 2.3928(4)
Fe1 B1 . 3_455 2.3928(4)
B4 B4 . 6_545 1.815(5)
B4 B4 . 7_555 1.733(5)
B4 B5 . . 1.720(4)
B4 B5 . 7_555 1.716(4)
B4 B2 . . 1.735(5)
B4 B3 . . 1.731(5)
B5 B5 . 5_455 1.622(4)
B5 B5 . 15_555 1.753(4)
B5 B2 . 7_555 1.727(5)
B5 B3 . . 1.693(5)
B2 B3 . . 1.709(5)
B2 B1 . . 1.602(3)
B3 B3 . 7_556 1.585(6)
loop_
_refln_index_h
_refln_index_k
_refln_index_l
_refln_F_squared_calc
_refln_F_squared_meas
_refln_F_squared_sigma
_refln_observed_status
1 0 1 242.66 282.29 7.59 o
1 0 3 265.58 268.99 12.80 o
1 0 5 63.82 74.69 11.71 o
1 1 1 630.84 789.07 13.25 o
1 1 2 540.04 526.98 12.75 o
1 1 3 374.65 447.02 12.13 o
1 1 4 245.98 243.05 11.32 o
1 1 5 8.95 6.80 2.16 o
1 1 6 117.70 180.85 16.08 o
2 0 0 301.16 284.04 8.15 o
2 0 2 95.72 114.96 6.41 o
2 0 4 703.46 755.55 27.66 o
2 0 6 626.92 941.23 44.96 o
2 1 1 175.19 184.98 5.72 o
2 1 2 3.82 6.05 1.06 o
2 1 3 95.82 90.25 4.60 o
2 1 4 12.00 10.55 2.93 o
2 1 5 52.41 43.91 4.05 o
2 1 6 25.33 25.58 9.09 o
2 2 1 0.04 0.34 1.09 <
2 2 2 411.28 470.44 15.16 o
2 2 3 0.79 0.80 1.09 <
2 2 4 411.84 434.55 17.24 o
2 2 5 0.83 2.36 2.50 <
2 2 6 168.18 223.13 28.15 o
3 0 1 45.60 30.12 2.39 o
3 0 3 115.26 90.76 7.17 o
3 1 0 740.22 759.07 12.21 o
3 1 1 1025.54 1235.23 14.90 o
3 1 2 458.74 444.78 10.00 o
3 1 3 1403.19 1404.11 19.42 o
3 1 4 192.02 189.38 11.81 o
3 1 5 33.40 49.47 11.06 o
3 1 6 81.43 103.80 19.12 o
3 2 1 2.76 0.80 0.88 <
3 2 2 20.10 22.95 2.34 o
3 2 3 168.74 136.84 7.95 o
3 2 4 4.54 6.39 1.77 o
3 2 5 219.91 230.49 12.57 o
3 2 6 1.64 0.18 1.09 <
3 2 7 51.15 99.75 26.17 o
3 3 1 469.58 623.64 34.77 o
3 3 2 377.40 384.01 23.92 o
3 3 3 1095.80 1127.02 30.82 o
3 3 4 119.03 127.41 10.29 o
3 3 5 146.00 185.86 13.32 o
3 3 6 75.14 67.31 14.67 o
4 0 0 131.09 170.00 9.09 o
4 0 2 453.90 507.42 14.42 o
4 0 4 618.30 657.80 26.36 o
4 1 1 1053.10 1203.76 13.76 o
4 1 2 72.95 75.97 4.34 o
4 1 3 25.46 39.50 3.40 o
4 1 4 8.68 8.96 2.18 o
4 1 5 57.15 73.19 8.88 o
4 1 6 21.12 30.30 15.66 <
4 2 0 572.66 594.37 28.93 o
4 2 1 0.03 -0.28 0.81 <
4 2 2 331.43 329.50 10.46 o
4 2 3 0.25 -0.05 0.75 <
4 2 4 119.48 113.07 8.29 o
4 2 5 0.32 2.72 1.46 <
4 2 6 80.08 111.95 23.94 o
4 2 7 0.00 10.70 8.88 <
4 3 1 218.18 211.44 19.22 o
4 3 2 687.13 644.29 19.48 o
4 3 3 113.22 94.37 6.33 o
4 3 4 272.14 301.28 13.99 o
4 3 5 19.54 19.86 3.64 o
4 3 6 49.55 51.14 7.09 o
4 3 7 0.67 2.80 11.37 <
4 4 1 17.10 19.71 6.98 o
4 4 2 560.47 442.52 31.40 o
4 4 3 17.92 18.80 5.89 o
4 4 4 5.41 5.89 3.01 <
4 4 5 8.89 8.73 4.00 o
4 4 6 6.03 8.37 7.19 <
5 0 1 1298.32 1210.41 19.84 o
5 0 3 0.08 1.48 0.85 <
5 0 5 196.70 194.91 10.96 o
5 1 0 361.86 354.56 10.70 o
5 1 1 43.23 50.62 3.09 o
5 1 2 345.88 337.82 9.51 o
5 1 3 78.87 83.96 5.06 o
5 1 4 226.99 225.65 8.62 o
5 1 5 0.32 2.20 1.63 <
5 1 6 66.47 58.93 8.99 o
5 2 1 561.34 501.12 13.79 o
5 2 2 984.69 992.68 22.13 o
5 2 3 69.63 63.76 6.34 o
5 2 4 286.46 314.63 12.26 o
5 2 5 10.29 13.82 3.07 o
5 2 6 135.59 162.07 17.09 o
5 3 0 345.18 330.86 25.81 o
5 3 1 3.66 0.80 1.98 <
5 3 2 268.97 271.91 11.20 o
5 3 3 0.29 -1.04 1.54 <
5 3 4 155.07 148.18 8.36 o
5 3 5 42.19 49.35 6.18 o
5 3 6 80.97 79.24 11.72 o
5 4 1 275.44 198.33 21.92 o
5 4 2 46.86 34.90 6.54 o
5 4 3 242.91 205.16 11.50 o
5 4 4 18.68 11.38 3.30 o
5 4 5 846.91 938.48 30.54 o
5 5 1 0.28 -0.39 2.98 <
5 5 2 215.41 175.71 21.73 o
5 5 3 0.50 0.63 1.85 <
5 5 4 17.55 41.27 9.32 o
5 5 5 9.15 16.18 8.34 <
6 0 0 297.80 255.12 13.97 o
6 0 2 1.58 8.72 2.15 o
6 0 4 807.78 866.40 27.65 o
6 1 1 124.24 81.91 4.44 o
6 1 2 376.74 373.73 10.99 o
6 1 3 199.11 200.18 10.21 o
6 1 4 107.76 121.28 6.42 o
6 1 5 611.24 698.77 21.69 o
6 1 6 57.12 76.95 12.25 o
6 2 0 2669.49 2334.77 46.72 o
6 2 1 9.19 19.97 4.94 o
6 2 2 815.05 731.52 18.51 o
6 2 3 4.24 6.39 2.16 o
6 2 4 34.44 40.82 5.59 o
6 2 5 17.66 10.08 2.60 o
6 2 6 136.05 235.85 25.71 o
6 3 1 638.64 566.14 25.63 o
6 3 2 260.05 210.65 11.81 o
6 3 3 11.18 9.87 2.55 o
6 3 4 73.16 66.84 7.77 o
6 3 5 68.95 89.57 11.72 o
6 3 6 43.64 50.61 12.34 o
6 4 0 55.86 52.10 11.56 o
6 4 1 2.45 0.36 2.13 <
6 4 2 22.20 28.73 7.19 o
6 4 3 9.99 10.13 3.55 o
6 4 4 521.66 515.74 23.12 o
6 4 5 3.20 3.68 4.76 <
6 4 6 526.95 708.87 51.47 o
6 5 1 150.67 149.28 22.70 o
6 5 2 14.88 8.78 4.26 o
6 5 3 33.52 24.73 6.49 o
6 5 4 0.35 1.61 3.63 <
6 6 1 69.80 53.16 16.51 o
6 6 2 315.70 249.83 31.68 o
7 0 1 26.41 19.55 2.94 o
7 0 3 108.17 97.94 8.86 o
7 0 5 321.21 434.92 24.15 o
7 1 0 160.15 150.93 8.13 o
7 1 1 8.85 8.41 1.38 o
7 1 2 137.34 139.20 7.11 o
7 1 3 7.37 6.37 2.59 o
7 1 4 132.36 140.75 9.32 o
7 1 5 10.97 11.01 4.08 o
7 2 1 104.92 108.84 7.94 o
7 2 2 246.54 243.65 11.35 o
7 2 3 56.81 48.69 6.59 o
7 2 4 122.03 135.98 12.13 o
7 2 5 19.76 15.71 4.13 o
7 2 6 15.91 28.91 11.35 o
7 3 0 30.51 29.52 8.26 o
7 3 1 11.18 13.32 4.60 o
7 3 2 142.84 125.85 8.64 o
7 3 3 43.20 38.43 4.76 o
7 3 4 335.62 315.46 23.51 o
7 3 5 14.12 18.02 6.07 o
7 3 6 139.79 217.83 30.60 o
7 4 1 75.41 67.41 9.69 o
7 4 2 5.80 23.79 14.96 <
7 4 3 26.94 19.38 4.18 o
7 4 4 2.52 8.46 8.02 <
7 4 5 20.09 7.95 5.71 <
7 5 0 277.42 240.82 27.24 o
7 5 1 116.80 91.47 18.23 o
7 5 2 195.32 159.33 23.56 o
7 5 3 270.70 223.05 30.69 o
7 5 4 73.71 72.92 10.16 o
7 6 4 28.41 17.37 4.46 o
8 0 0 684.65 681.82 26.90 o
8 0 2 303.12 282.79 15.11 o
8 0 4 17.23 13.84 2.50 o
8 1 1 93.78 107.93 5.42 o
8 1 2 2.46 2.33 1.64 <
8 1 3 62.88 65.21 7.01 o
8 1 4 15.06 22.86 6.33 o
8 1 5 15.98 18.80 6.18 o
8 2 0 82.41 82.76 8.42 o
8 2 1 18.80 16.39 3.14 o
8 2 2 110.94 120.55 8.54 o
8 2 3 61.54 60.09 7.48 o
8 2 4 152.60 93.36 14.12 o
8 2 5 8.60 8.08 4.47 <
8 3 1 309.64 295.23 14.08 o
8 3 2 29.11 25.71 4.33 o
8 3 3 7.76 9.01 2.85 o
8 3 4 9.83 24.43 14.90 <
8 3 5 17.58 43.84 17.29 o
8 4 0 122.02 115.20 18.81 o
8 4 1 131.77 107.99 13.51 o
8 4 2 179.00 154.00 22.64 o
8 4 3 306.18 279.31 21.32 o
8 5 1 2.07 10.51 9.85 <
8 5 4 139.74 234.85 25.53 o
9 0 1 15.32 13.97 3.22 o
9 0 3 146.08 178.93 19.53 o
9 1 0 1120.16 1069.67 25.89 o
9 1 1 160.32 147.93 6.86 o
9 1 2 347.45 362.02 14.00 o
9 1 3 494.86 544.62 26.80 o
9 1 4 10.53 17.14 4.36 o
9 2 1 175.44 178.47 12.88 o
9 2 2 155.63 149.66 14.25 o
9 2 3 32.21 32.30 6.36 o
9 2 4 30.40 40.35 14.08 o
9 2 5 0.26 2.44 5.56 <
9 3 0 125.69 109.57 19.69 o
9 3 1 206.05 172.24 13.24 o
9 3 2 134.99 130.70 13.85 o
9 3 3 574.44 703.52 33.78 o
9 3 4 114.15 120.31 26.44 o
9 4 2 276.39 214.04 18.05 o
9 4 3 2.24 5.29 4.47 <
9 5 3 191.98 139.45 15.53 o
10 0 0 87.78 86.98 15.94 o
10 0 2 78.08 82.33 13.32 o
10 0 4 75.77 110.34 18.42 o
10 1 1 125.23 118.22 9.04 o
10 1 2 90.61 101.78 9.45 o
10 1 3 14.43 27.29 6.96 o
10 1 4 19.45 32.04 7.64 o
10 2 0 131.64 120.21 14.03 o
10 2 1 291.41 210.61 23.84 o
10 2 2 141.12 155.61 15.11 o
10 2 3 624.82 734.28 36.78 o
10 2 4 111.81 135.77 24.93 o
10 3 1 9.12 7.61 5.85 <
10 3 2 1.22 0.52 3.63 <
10 3 3 67.70 79.44 12.78 o
10 3 4 10.55 -2.44 6.16 <
10 4 2 47.43 48.13 10.47 o
10 4 3 198.07 151.37 18.44 o
10 5 3 16.29 14.29 5.64 o
11 0 1 98.75 105.39 19.01 o
11 0 3 8.95 11.98 5.94 o
11 1 1 5.44 2.20 4.44 <
11 1 2 7.06 11.32 4.11 o
11 1 3 15.17 20.13 7.01 o
11 1 4 543.25 740.01 58.66 o
11 2 1 0.14 1.82 0.52 o
11 2 2 5.40 -11.42 9.74 <
11 2 4 0.68 -3.01 8.15 <
11 3 1 7.60 14.23 9.17 <
11 3 2 152.79 146.47 19.97 o
11 3 3 29.11 26.23 8.99 o
11 4 2 51.36 32.70 10.05 o
11 4 3 46.09 41.32 10.99 o
12 1 3 10.52 18.80 10.55 <
12 2 2 1.29 -2.57 5.33 <
12 3 2 0.55 -8.93 7.12 <
12 3 3 82.27 72.48 15.92 o
