#------------------------------------------------------------------------------
#$Date: 2021-03-31 11:41:00 +0300 (Wed, 31 Mar 2021) $
#$Revision: 263484 $
#$URL: file:///home/coder/svn-repositories/cod/cif/1/56/13/1561383.cif $
#------------------------------------------------------------------------------
#
# This file is available in the Crystallography Open Database (COD),
# http://www.crystallography.net/
#
# All data on this site have been placed in the public domain by the
# contributors.
#
data_1561383
loop_
_publ_author_name
'Tillard, Monique'
_publ_section_title
;
 A phase width for CaGaSn. Crystal structure of mixed intermetallic
 Ca4Ga4+xSn4&#x2212;x and SmGaxSn3&#x2212;x, stability, geometry and
 electronic structure
;
_journal_name_full               'Journal of Solid State Chemistry'
_journal_page_first              63
_journal_page_last               70
_journal_paper_doi               10.1016/j.jssc.2016.07.018
_journal_volume                  242
_journal_year                    2016
_chemical_formula_sum            'Ca Ga1.14 Sn0.86'
_chemical_formula_weight         221.65
_space_group_crystal_system      hexagonal
_space_group_IT_number           194
_space_group_name_Hall           '-P 6c 2c'
_space_group_name_H-M_alt        'P 63/m m c'
_atom_sites_solution_hydrogens   .
_cell_angle_alpha                90
_cell_angle_beta                 90
_cell_angle_gamma                120
_cell_formula_units_Z            4
_cell_length_a                   4.4233(9)
_cell_length_b                   4.4233(9)
_cell_length_c                   17.601(7)
_cell_measurement_reflns_used    25
_cell_measurement_temperature    295(2)
_cell_measurement_theta_max      29.877
_cell_measurement_theta_min      2.314
_cell_volume                     298.24(15)
_computing_structure_refinement  'SHELXL-2013 (Sheldrick, 2013)'
_diffrn_ambient_temperature      295(2)
_diffrn_measured_fraction_theta_full 0.978
_diffrn_measured_fraction_theta_max 0.981
_diffrn_measurement_device_type  'Nonius CAD4'
_diffrn_measurement_method       \w/\q
_diffrn_radiation_type           MoK\a
_diffrn_radiation_wavelength     0.71069
_diffrn_reflns_av_R_equivalents  0.0475
_diffrn_reflns_av_unetI/netI     0.0305
_diffrn_reflns_Laue_measured_fraction_full 0.978
_diffrn_reflns_Laue_measured_fraction_max 0.981
_diffrn_reflns_limit_h_max       0
_diffrn_reflns_limit_h_min       -3
_diffrn_reflns_limit_k_max       6
_diffrn_reflns_limit_k_min       0
_diffrn_reflns_limit_l_max       24
_diffrn_reflns_limit_l_min       0
_diffrn_reflns_number            742
_diffrn_reflns_point_group_measured_fraction_full 0.978
_diffrn_reflns_point_group_measured_fraction_max 0.981
_diffrn_reflns_theta_full        25.240
_diffrn_reflns_theta_max         29.877
_diffrn_reflns_theta_min         2.314
_diffrn_standards_decay_%        0
_diffrn_standards_interval_count 100
_diffrn_standards_number         3
_exptl_absorpt_coefficient_mu    18.941
_exptl_absorpt_correction_T_max  0.39
_exptl_absorpt_correction_T_min  0.28
_exptl_absorpt_correction_type   numerical
_exptl_absorpt_process_details   'correction uses the indexed faces'
_exptl_crystal_colour            'shiny grey'
_exptl_crystal_density_diffrn    4.937
_exptl_crystal_density_method    'not measured'
_exptl_crystal_description       'triangular platelet'
_exptl_crystal_F_000             393
_exptl_crystal_size_max          0.100
_exptl_crystal_size_mid          0.100
_exptl_crystal_size_min          0.050
_refine_diff_density_max         3.600
_refine_diff_density_min         -2.456
_refine_diff_density_rms         0.320
_refine_ls_extinction_coef       .
_refine_ls_extinction_method     none
_refine_ls_goodness_of_fit_ref   1.183
_refine_ls_hydrogen_treatment    undef
_refine_ls_matrix_type           full
_refine_ls_number_parameters     13
_refine_ls_number_reflns         204
_refine_ls_number_restraints     0
_refine_ls_restrained_S_all      1.183
_refine_ls_R_factor_all          0.0673
_refine_ls_R_factor_gt           0.0419
_refine_ls_shift/su_max          0.000
_refine_ls_shift/su_mean         0.000
_refine_ls_structure_factor_coef Fsqd
_refine_ls_weighting_details
;
 w=1/[\s^2^(Fo^2^)+(0.0553P)^2^+2.4400P]
 where P=(Fo^2^+2Fc^2^)/3
;
_refine_ls_weighting_scheme      calc
_refine_ls_wR_factor_gt          0.1042
_refine_ls_wR_factor_ref         0.1142
_reflns_Friedel_coverage         0.000
_reflns_Friedel_fraction_full    .
_reflns_Friedel_fraction_max     .
_reflns_number_gt                158
_reflns_number_total             204
_reflns_threshold_expression     'I > 2\s(I)'
_cod_data_source_file            JSSC-2016-242-63.cif
_cod_data_source_block           1
_cod_original_cell_volume        298.24(17)
_cod_database_code               1561383
_shelx_space_group_comment
;
The symmetry employed for this shelxl refinement is uniquely defined
by the following loop, which should always be used as a source of
symmetry information in preference to the above space-group names.
They are only intended as comments.
;
_shelx_estimated_absorpt_t_min   0.253
_shelx_estimated_absorpt_t_max   0.451
_shelxl_version_number           2013-2
_shelx_res_file
;
TITL 194
CELL    .71069    4.4233  4.4233   17.6011  90.00  90.00  120.
ZERR    1      0.0009 0.0009 0.007 0. 0. 0.
LATT 1
SYMM  -Y,X-Y,Z
SYMM Y-X,-X,Z
SYMM Y,X,-Z
SYMM -X,Y-X,-Z
SYMM X-Y,-Y,-Z
SYMM -X,-Y,0.5+Z
SYMM Y,Y-X,0.5+Z
SYMM X-Y,X,0.5+Z
SYMM -Y,-X,0.5-Z
SYMM X,X-Y,0.5-Z
SYMM Y-X,Y,0.5-Z
SFAC GA SN CA
UNIT  4   4  4
REM OMIT 0 1 8
FMAP 2
L.S. 20
acta
size 0.1 0.1 0.05
REM TWIN
BOND
TEMP 22
EADP SN SN*
EXYZ SN SN*
EADP GA GA*
EXYZ GA GA*
rem  EXTI    0.002869
WGHT    0.055330    2.440000
FVAR       9.12250   0.82120   0.96444   0.97277   0.98692
SN    2    0.333333    0.666667    0.384964    20.16667    0.00560    0.00560 =
         0.01202    0.00000    0.00000    0.00280
SN*   1    0.333333    0.666667    0.384964   -20.16667    0.00560    0.00560 =
         0.01202    0.00000    0.00000    0.00280
GA    1    0.666667    0.333333    0.341400    30.16667    0.01008    0.01008 =
         0.05557    0.00000    0.00000    0.00504
GA*   2    0.666667    0.333333    0.341400   -30.16667    0.01008    0.01008 =
         0.05557    0.00000    0.00000    0.00504
CA1   3    0.000000    0.000000    0.500000    10.08330    0.01242    0.01242 =
         0.01350    0.00000    0.00000    0.00621
CA2   3    0.000000    0.000000    0.250000    10.08330    0.01691    0.01691 =
         0.00788    0.00000    0.00000    0.00846
HKLF 3

REM  194
REM R1 =  0.0418 for     158 Fo > 4sig(Fo)  and  0.0672 for all     204 data
REM     15 parameters refined using      0 restraints

END

WGHT      0.0561      2.6081

REM Highest difference peak  3.665,  deepest hole -2.537,  1-sigma level  0.325
Q1    1   0.6667  0.3333  0.3819  10.16667  0.05    3.67
Q2    1   0.1999 -0.1999  0.2500  10.25000  0.05    1.28
Q3    1  -0.2019  0.2019  0.2500  10.25000  0.05    0.94
Q4    1   0.3333  0.6667  0.3481  10.16667  0.05    0.93
Q5    1   0.3333  0.6667  0.4513  10.16667  0.05    0.82
Q6    1   0.7325  0.7877  0.3839  11.00000  0.05    0.77
Q7    1   0.5081  1.0163  0.3753  10.50000  0.05    0.68
Q8    1   0.7884  0.5767  0.4178  10.50000  0.05    0.65
Q9    1  -0.3530  0.0676  0.2500  10.50000  0.05    0.62
Q10   1   0.3333  0.6667  0.5015  10.16667  0.05    0.60
Q11   1   0.6233  0.8117  0.3155  10.50000  0.05    0.60
Q12   1   0.2489  0.2070  0.3309  11.00000  0.05    0.54
Q13   1   0.3555  0.3555  0.5000  10.50000  0.05    0.54
Q14   1   0.4122  0.2927  0.2960  11.00000  0.05    0.52
Q15   1   0.4534  0.5466  0.2741  10.50000  0.05    0.52
Q16   1   0.3162  0.4252  0.3235  11.00000  0.05    0.50
Q17   1   0.5386  0.4614  0.4619  10.50000  0.05    0.49
Q18   1   0.0614 -0.0614  0.3915  10.50000  0.05    0.44
Q19   1  -0.2161  0.2161  0.5044  10.50000  0.05    0.44
Q20   1   0.9153  0.4576  0.2935  10.50000  0.05    0.44
;
_shelx_res_checksum              12986
_shelx_hkl_file
;
   0   5   8   81.25   21.09
   0   5   7  600.83   19.17
   0   5   6   69.73   62.73
   0   5   5   59.84   75.14
   0   5   4  534.43   19.50
   0   5   3  394.42   13.34
   0   5   2   75.82   58.14
   0   5   1  112.12   13.42
   0   5   0  304.63   15.20
   0   4   0  396.54   16.26
   0   4   1   95.32   31.48
   0   4   2   81.58   40.12
   0   4   3  478.51   15.74
   0   4   4  709.65   15.42
   0   4   7  763.53   15.88
   0   4   8   53.17   73.58
   0   4  11  729.54   17.47
   0   4  12  291.66   15.71
   0   4  14  214.23   10.82
   0   4  15  531.56   19.20
   0   4  16  108.40   42.96
   0   3  20   69.45   65.98
   0   3  19  116.78   39.58
   0   3  18  618.84   17.99
   0   3  17   71.56   52.00
   0   3  16  338.74   13.51
   0   3  15   81.28   35.22
   0   3  14  446.87   17.41
   0   3  13   98.11   30.63
   0   3  12   64.52   49.46
   0   3  11   84.29   33.41
   0   3   8  971.20   13.61
   0   3   6  196.02    9.70
   0   3   5   49.56   18.80
   0   3   4 1013.71   12.52
   0   3   2  133.75   10.64
   0   3   1   42.11   22.17
   0   3   0 1884.59   12.11
   0   2   0  583.09    9.97
   0   2   1   92.74    6.78
   0   2   2   93.57    6.94
   0   2   3  732.11   10.07
   0   2   4 1254.03   10.04
   0   2   5  146.95    5.40
   0   2   6  113.04    7.02
   0   2   7 1151.93   10.95
   0   2   9   74.47   30.81
   0   2  11 1095.44   12.07
   0   2  12  440.65   14.01
   0   2  13   82.30   39.77
   0   2  14  271.01   11.68
   0   2  15  745.53   14.21
   0   2  16  154.12    9.10
   0   2  17   88.52   40.82
   0   2  18  338.36   13.25
   0   2  19  395.94   18.58
   0   2  20  266.97    9.89
   0   2  21  164.89   11.46
   0   2  22  270.90   13.92
   0   1  24  106.58   16.64
   0   1  23  293.00   14.87
   0   1  22  287.03   15.68
   0   1  21  158.56   11.00
   0   1  20  283.46   15.93
   0   1  19  435.38   18.09
   0   1  18  327.80   13.56
   0   1  16  183.14   10.55
   0   1  15  888.10   13.92
   0   1  14  300.10   12.08
   0   1  13   75.94   39.10
   0   1  12  505.77   13.01
   0   1  11 1254.80   10.83
   0   1   9   54.33   30.33
   0   1   8   64.49   29.26
   0   1   7 1316.49    8.49
   0   1   6  124.91    5.04
   0   1   5  221.86    9.70
   0   1   4 1511.85    7.53
   0   1   3  859.32    7.45
   0   1   2  117.40    7.77
   0   1   1  116.65    4.56
   0   1   0  668.07    6.72
   0   0   2  266.26    5.52
   0   0   4 1474.03    6.25
   0   0   6  288.92   10.02
   0   0   8 1571.79    8.94
   0   0  10  113.51    6.34
   0   0  12   58.00   41.99
   0   0  14  640.10   12.61
   0   0  16  445.94   14.59
   0   0  18  746.86   14.52
   0   0  22  608.33   17.33
   0   0  24  275.80   13.72
   0   1  23  212.98   10.21
   0   1  22  234.48   10.01
   0   1  21  120.58   44.61
   0   1  20  237.52    9.61
   0   1  19  418.45   18.63
   0   1  18  340.58   14.03
   0   1  15  835.80   13.34
   0   1  14  262.87   10.75
   0   1  13   71.51   15.46
   0   1  12  518.67   12.73
   0   1  11 1239.36   11.12
   0   1   8   65.21    9.43
   0   1   7 1321.24    9.00
   0   1   6  131.59    7.87
   0   1   5  204.98   10.03
   0   1   4 1441.57    7.53
   0   1   3  812.38    7.25
   0   1   2  106.50    5.35
   0   1   1  128.88    6.82
   0   1   0  649.52    6.82
   0   2   0  565.39   10.12
   0   2   1   78.06    7.86
   0   2   2   56.92   31.43
   0   2   3  685.15   10.05
   0   2   4 1180.96    9.96
   0   2   5  144.70    8.07
   0   2   6  108.09    6.61
   0   2   7 1135.12   10.87
   0   2   9   68.31   30.09
   0   2  11 1099.17   12.69
   0   2  12  430.33   14.22
   0   2  13   45.14   72.48
   0   2  14  271.57   12.43
   0   2  15  722.02   14.82
   0   2  16  142.86    9.60
   0   2  18  358.44   17.84
   0   2  19  389.88   13.04
   0   2  20  252.61   14.15
   0   2  21  108.77   48.12
   0   2  22  265.91   11.27
   0   3  20   69.57   54.88
   0   3  18  590.70   18.26
   0   3  17   56.79   59.24
   0   3  16  353.92   12.82
   0   3  14  442.47   17.73
   0   3  12  118.97   10.28
   0   3  10  121.09   10.18
   0   3   9   51.40   23.59
   0   3   8  971.70   13.66
   0   3   6  188.84   10.77
   0   3   5   40.56   23.83
   0   3   4  986.85   12.69
   0   3   2  112.46    8.95
   0   3   0 1838.34   12.19
   0   4   0  358.92   16.57
   0   4   1   98.13   33.19
   0   4   3  466.50   15.54
   0   4   4  706.62   15.38
   0   4   7  692.28   16.02
   0   4   8  104.64   36.97
   0   4   9   92.03   38.68
   0   4  10   60.92   19.53
   0   4  11  764.01   16.98
   0   4  12  285.55   14.02
   0   4  14  186.74   11.86
   0   4  15  510.35   18.69
   0   4  16   65.45   24.69
   0   5   9   91.50   42.77
   0   5   8   76.36   61.64
   0   5   7  561.71   18.70
   0   5   5   81.64   47.26
   0   5   4  514.55   18.89
   0   5   3  371.81   17.99
   0   5   2   56.93   63.76
   0   5   1  102.81   15.54
   0   5   0  253.14   11.72
  -1   5  10  131.37   12.58
  -1   5   8  648.23   19.21
  -1   5   7  102.97   40.85
  -1   5   6   68.01   49.50
  -1   5   4  671.38   18.47
  -1   5   2   74.55   18.87
  -1   5   0 1239.74   17.03
  -1   4   0  398.77   15.89
  -1   4   1  102.93   10.65
  -1   4   2   82.80   32.85
  -1   4   3  486.02   15.81
  -1   4   4  777.93   15.06
  -1   4   5   80.76   13.46
  -1   4   6   49.74   62.68
  -1   4   7  826.69   15.21
  -1   4   8  129.89   13.89
  -1   4  11  833.57   16.01
  -1   4  12  311.21   15.00
  -1   4  13   55.58   70.08
  -1   4  14  214.79    8.57
  -1   4  15  547.63   18.17
  -1   4  16  117.03   35.79
  -1   4  17   84.26   48.78
  -1   4  18  261.03    9.19
  -1   3  21  118.36   38.28
  -1   3  20  241.92   11.71
  -1   3  19  363.05   13.60
  -1   3  18  299.47   14.55
  -1   3  17   35.46   32.82
  -1   3  16  125.09   39.06
  -1   3  15  638.42   15.46
  -1   3  14  249.18   10.87
  -1   3  13   84.68   37.43
  -1   3  12  411.13   15.06
  -1   3  11  979.22   13.86
  -1   3   9   44.66   59.20
  -1   3   7 1005.15   12.70
  -1   3   5  131.43    7.95
  -1   3   4 1060.86   12.04
  -1   3   3  637.51   12.28
  -1   3   2   71.95   33.75
  -1   3   1  107.67    8.18
  -1   3   0  542.59   12.06
  -1   2   0 2545.29    9.13
  -1   2   2  179.85    8.79
  -1   2   4 1252.65    9.73
  -1   2   6  245.65   12.06
  -1   2   8 1250.21   11.00
  -1   2  10  118.09    8.05
  -1   2  12   65.88   14.17
  -1   2  14  521.08   14.31
  -1   2  16  397.26   15.45
  -1   2  18  651.60   15.74
  -1   2  20  103.84   34.25
  -1   2  22  553.29   18.71
   0   1  23  231.12   10.46
   0   1  22  261.15   12.63
   0   1  21   62.63   78.15
   0   1  20  265.04   11.43
   0   1  19  404.35   18.23
   0   1  18  338.24   14.15
   0   1  16  103.19   40.83
   0   1  15  829.22   13.71
   0   1  14  221.15   10.87
   0   1  13   77.60   14.46
   0   1  12  495.39   12.82
   0   1  11 1229.05   11.42
   0   1   8   67.74   25.87
   0   1   7 1313.64    9.45
   0   1   6  122.04    5.96
   0   1   5  191.02    9.26
   0   1   4 1483.50    7.91
   0   1   3  821.28    7.66
   0   1   2  111.61    7.45
   0   1   1  119.47    6.73
   0   1   0  672.77    6.86
   0   1   0  664.39    6.44
   0   1   1  116.85    5.08
   0   1   2  107.05    4.60
   0   1   3  858.12    7.06
   0   1   4 1510.09    7.39
   0   1   5  223.18    9.81
   0   1   6  138.50    4.38
   0   1   7 1360.20    8.80
   0   1   8   32.07   62.14
   0   1  10   36.02   59.74
   0   1  11 1297.88   11.27
   0   1  12  534.21   12.87
   0   1  13   85.39   37.01
   0   1  14  293.77   12.20
   0   1  15  840.27   14.14
   0   1  16  171.57    8.63
   0   1  17   57.26   48.41
   0   1  18  355.03   12.88
   0   1  19  453.48   18.39
   0   1  20  284.01   12.69
   0   1  21  168.35   10.94
   0   1  22  314.04   15.13
   0   1  23  231.46   15.78
  -1   2  22  590.26   21.05
  -1   2  18  766.23   16.77
  -1   2  16  404.49   17.16
  -1   2  14  587.44   14.85
  -1   2  10  133.46    7.22
  -1   2   8 1325.31   10.65
  -1   2   6  274.59   11.06
  -1   2   4 1297.19    9.19
  -1   2   2  161.23    7.66
  -1   2   0 2479.83    8.71
  -1   3   0  507.12   12.01
  -1   3   1   95.85    9.44
  -1   3   3  636.76   12.17
  -1   3   4 1091.44   11.96
  -1   3   5  127.69    7.82
  -1   3   6   78.60   38.98
  -1   3   7 1041.42   12.39
  -1   3  11 1004.92   13.85
  -1   3  12  390.28   16.79
  -1   3  13   86.39   14.31
  -1   3  14  247.57    9.72
  -1   3  15  703.99   16.32
  -1   3  16  144.23   10.64
  -1   3  18  328.35   15.15
  -1   3  19  375.95   15.51
  -1   3  20  302.33   15.36
  -1   3  21  185.05   15.13
  -1   4  18  287.13   11.34
  -1   4  17   87.06   58.95
  -1   4  15  607.53   18.29
  -1   4  14  214.03    9.89
  -1   4  12  310.31   14.83
  -1   4  11  824.99   16.77
  -1   4  10   87.61   40.95
  -1   4   8   98.64   39.37
  -1   4   7  855.81   15.13
  -1   4   5   97.86   37.35
  -1   4   4  813.17   14.95
  -1   4   3  543.50   14.65
  -1   4   2   77.62   32.09
  -1   4   1   99.53   10.60
  -1   4   0  425.93   14.57
  -1   5   0 1234.95   16.83
  -1   5   1   64.64   70.39
  -1   5   3   65.26   58.74
  -1   5   4  700.63   17.46
  -1   5   5  104.75   37.82
  -1   5   6  111.14   36.74
  -1   5   8  692.90   19.36
  -1   5   9   92.35   43.33
  -1   5  10  137.52   12.98
  -1   5  12   82.29   59.93
  -2   6   0  301.23   16.14
  -2   6   1  129.25   38.75
  -2   6   2   53.22   28.49
  -2   6   3  339.46   16.41
  -2   6   4  493.01   21.26
  -2   5  14  137.00   56.73
  -2   5  13   95.12   47.56
  -2   5  12  302.30   11.55
  -2   5  11  715.27   18.74
  -2   5  10   62.44   23.04
  -2   5   8  100.31   46.39
  -2   5   7  692.71   18.11
  -2   5   5   90.83   34.94
  -2   5   4  632.90   17.45
  -2   5   3  420.49   18.17
  -2   5   2   63.86   19.25
  -2   5   1  116.08   10.99
  -2   5   0  375.08   13.25
  -2   4   0 1703.25   13.61
  -2   4   2  118.14    8.63
  -2   4   4  911.39   13.93
  -2   4   6  137.40    8.87
  -2   4   8  898.57   14.46
  -2   4  10   92.36   38.62
  -2   4  12   81.02   47.47
  -2   4  14  450.88   18.67
  -2   4  16  350.73   14.77
  -2   4  18  559.34   20.80
  -1   3  21  168.09   12.10
  -1   3  20  274.82   13.49
  -1   3  19  402.17   19.39
  -1   3  18  352.44   13.12
  -1   3  17   94.89   37.69
  -1   3  16  126.06   41.45
  -1   3  15  732.09   15.57
  -1   3  14  260.06   13.55
  -1   3  13   55.61   69.28
  -1   3  12  427.92   16.16
  -1   3  11 1055.95   13.55
  -1   3  10   68.03   44.80
  -1   3   7 1084.45   12.23
  -1   3   6  103.05    9.03
  -1   3   5  142.56    6.93
  -1   3   4 1071.04   11.49
  -1   3   3  647.15   11.58
  -1   3   2   79.03    9.39
  -1   3   1   57.49   42.93
  -1   3   0  496.64   12.17
   0   2   0  583.99    9.60
   0   2   1   90.95    6.68
   0   2   2   96.22    6.79
   0   2   3  760.55    9.79
   0   2   4 1254.37    9.78
   0   2   5  159.97    8.57
   0   2   6  110.25    9.19
   0   2   7 1206.09   10.68
   0   2  10   50.04   45.70
   0   2  11 1122.20   11.98
   0   2  12  425.42   14.04
   0   2  13  111.04    9.65
   0   2  14  270.21   11.97
   0   2  15  725.47   14.39
   0   2  16   63.04   65.43
   0   2  17   72.14   38.98
   0   2  18  338.73   13.14
   0   2  19  407.33   18.27
   0   2  20  260.48    8.38
   0   2  21  180.68   12.38
   0   2  22  257.48   10.19
  -1   2  22  526.94   17.55
  -1   2  20   38.39   32.24
  -1   2  18  693.23   15.56
  -1   2  16  381.55   17.21
  -1   2  14  567.24   14.32
  -1   2  12   87.85   27.67
  -1   2  10   80.50   32.37
  -1   2   8 1234.15   10.52
  -1   2   6  241.97   11.82
  -1   2   4 1271.60    8.91
  -1   2   2  164.07    8.49
  -1   2   0 2495.20    8.28
   0   2   0  587.46    9.72
   0   2   1  101.58    7.52
   0   2   2   89.14    6.88
   0   2   3  750.37    9.95
   0   2   4 1244.38   10.00
   0   2   5  145.67    8.03
   0   2   6   67.45   35.68
   0   2   7 1195.39   11.25
   0   2   8   26.66   31.16
   0   2  11 1096.81   12.42
   0   2  12  425.35   13.55
   0   2  13   88.63   28.57
   0   2  14  239.95    9.27
   0   2  15  698.01   14.18
   0   2  16  122.80   10.72
   0   2  17   80.95   33.52
   0   2  18  315.93   12.79
   0   2  19  347.75   12.77
   0   2  20  252.71   12.91
   0   2  21  147.74   10.64
   0   2  22  263.67   12.55
  -1   3  21  151.88   10.27
  -1   3  20  229.65    8.50
  -1   3  19  349.45   13.38
  -1   3  18  311.28   12.90
  -1   3  16  121.36   11.17
  -1   3  15  662.46   15.14
  -1   3  14  242.99   13.63
  -1   3  12  384.36   15.24
  -1   3  11  958.48   13.41
  -1   3  10   62.22   42.17
  -1   3   9   43.09   51.52
  -1   3   8  129.53    7.84
  -1   3   7 1038.23   12.48
  -1   3   6   99.50   10.25
  -1   3   5  118.32    8.24
  -1   3   4 1073.83   11.99
  -1   3   3  684.99   11.91
  -1   3   2   79.49    9.80
  -1   3   1   91.79   29.50
  -1   3   0  557.71   12.41
  -2   4   0 1764.03   13.68
  -2   4   2  100.65   33.39
  -2   4   4  926.89   14.17
  -2   4   6  151.19   12.36
  -2   4   8  864.24   14.61
  -2   4  10  107.38   11.21
  -2   4  14  420.19   18.70
  -2   4  16  319.23   13.01
  -2   4  18  497.90   19.25
  -2   5  14  180.82   10.36
  -2   5  13   83.10   51.09
  -2   5  12  272.62   15.98
  -2   5  11  656.29   18.07
  -2   5   9   56.35   71.24
  -2   5   7  671.67   17.44
  -2   5   5   47.31   26.61
  -2   5   4  676.68   17.04
  -2   5   3  481.27   16.76
  -2   5   1  122.00   11.46
  -2   5   0  405.20   17.71
  -2   6   0  281.10   12.35
  -2   6   1   94.42   19.12
  -2   6   3  344.65   17.74
  -2   6   4  503.24   21.14
  -3   6   0 1071.52   19.22
  -3   6   4  575.58   20.18
  -3   6   6  101.79   36.04
  -2   5  14  182.79   10.58
  -2   5  12  264.25   13.28
  -2   5  11  664.10   17.70
  -2   5  10   64.89   61.82
  -2   5   8   81.40   16.58
  -2   5   7  669.96   17.38
  -2   5   5   62.82   56.85
  -2   5   4  649.51   17.27
  -2   5   3  420.14   18.80
  -2   5   1  102.38   13.43
  -2   5   0  367.78   13.73
  -1   4   0  450.57   15.23
  -1   4   1   83.00   38.33
  -1   4   2   61.71   49.82
  -1   4   3  542.88   14.90
  -1   4   4  816.94   14.32
  -1   4   5   68.04   46.14
  -1   4   6   68.46   50.55
  -1   4   7  835.78   14.96
  -1   4   8   90.90   12.90
  -1   4  10   65.89   42.30
  -1   4  11  798.02   15.74
  -1   4  12  290.59   15.23
  -1   4  14  237.24   12.09
  -1   4  15  546.67   18.43
  -1   4  16  103.00   41.24
  -1   4  18  249.03   12.41
   0   3  19   65.51   65.79
   0   3  18  557.89   18.15
   0   3  17   62.68   49.68
   0   3  16  376.26   17.11
   0   3  14  453.12   15.98
   0   3  10  125.80    9.07
   0   3   9   65.73   40.26
   0   3   8  980.55   13.58
   0   3   7   63.89   36.80
   0   3   6  189.30   10.71
   0   3   4 1011.27   12.55
   0   3   2  119.94    8.42
   0   3   1   57.81   44.00
   0   3   0 1933.53   11.91
  -1   3   0  506.14   11.82
  -1   3   1   85.89   26.82
  -1   3   3  640.82   11.55
  -1   3   4 1048.84   11.21
  -1   3   5  129.78    8.54
  -1   3   6  112.89    8.18
  -1   3   7 1039.90   12.06
  -1   3  10   63.09   49.82
  -1   3  11 1010.88   13.90
  -1   3  12  433.92   15.49
  -1   3  13   98.02   30.10
  -1   3  14  226.97   12.13
  -1   3  15  666.10   15.96
  -1   3  17   61.71   59.08
  -1   3  18  326.38   12.62
  -1   3  19  354.43   13.31
  -1   3  20  229.76   12.72
  -1   3  21  154.36   11.28
  -1   3  21  162.54   11.32
  -1   3  20  255.81   14.12
  -1   3  19  362.06   14.36
  -1   3  18  313.06   14.73
  -1   3  17   84.80   45.06
  -1   3  16  149.16   10.57
  -1   3  15  697.07   16.16
  -1   3  14  263.37   12.28
  -1   3  13  101.18   10.52
  -1   3  12  423.70   14.62
  -1   3  11  968.31   13.55
  -1   3   9   43.09   19.42
  -1   3   8   77.46   12.71
  -1   3   7 1040.54   11.81
  -1   3   6  107.02    7.77
  -1   3   5  140.98    7.55
  -1   3   4 1054.28   10.97
  -1   3   3  646.28   10.80
  -1   3   1   76.88   27.15
  -1   3   0  499.15   11.11
   0   3   0 1886.41   11.38
   0   3   1   44.48   54.14
   0   3   2  123.55    7.43
   0   3   3   50.18   45.76
   0   3   4  988.84   11.58
   0   3   6  173.37    8.03
   0   3   8  967.46   12.39
   0   3  10  145.13    6.87
   0   3  13   62.11   42.60
   0   3  14  481.59   15.08
   0   3  15   98.29   32.56
   0   3  16  357.79   12.35
   0   3  18  613.15   18.44
  -1   4  18  284.45   12.92
  -1   4  16   94.42   15.37
  -1   4  15  581.95   17.02
  -1   4  14  211.35    8.00
  -1   4  13   84.16   45.28
  -1   4  12  301.14   13.97
  -1   4  11  785.18   15.20
  -1   4   8   47.12   67.77
  -1   4   7  819.94   14.16
  -1   4   5   94.45   29.68
  -1   4   4  785.06   13.76
  -1   4   3  481.86   13.76
  -1   4   2   50.87   37.29
  -1   4   1   95.07   31.50
  -1   4   0  389.13   15.21
  -2   5   0  334.87   12.93
  -2   5   1  110.06   11.14
  -2   5   3  424.05   16.50
  -2   5   4  640.46   15.83
  -2   5   5   67.66   51.90
  -2   5   7  691.32   16.38
  -2   5  10   64.19   20.67
  -2   5  11  704.64   17.70
  -2   5  12  262.96   11.03
  -2   5  14  173.91   11.54
  -3   6   6   78.92   57.58
  -3   6   4  553.32   19.56
  -3   6   0  991.15   17.86
  -2   6   0  258.56   11.43
  -2   6   1  127.25   11.95
  -2   6   3  324.65   17.31
  -2   6   4  501.85   18.87
  -1   5  12   57.09   75.37
  -1   5  10  115.75   12.53
  -1   5   8  607.79   17.82
  -1   5   7   38.95   29.85
  -1   5   6   53.19   63.04
  -1   5   5   52.88   73.10
  -1   5   4  657.20   16.60
  -1   5   0 1204.04   15.55
   0   4   0  342.33   16.64
   0   4   1   53.26   51.01
   0   4   3  456.35   14.72
   0   4   4  730.82   14.07
   0   4   7  718.64   14.51
   0   4   8   93.62   31.02
   0   4  10   58.27   61.25
   0   4  11  712.68   15.94
   0   4  12  269.36   14.25
   0   4  14  206.51    8.20
   0   4  15  541.53   17.33
   0   4  16   74.71   57.29
  -1   4  18  260.45   11.42
  -1   4  16   81.54   44.20
  -1   4  15  555.43   17.86
  -1   4  14  210.42    8.24
  -1   4  13  100.98   35.21
  -1   4  12  349.31   16.91
  -1   4  11  802.54   15.51
  -1   4  10   48.75   64.60
  -1   4   7  817.42   13.58
  -1   4   6   58.10   44.46
  -1   4   5   95.62   31.73
  -1   4   4  774.01   13.36
  -1   4   3  471.62   13.61
  -1   4   1  112.31    8.31
  -1   4   0  389.77   14.63
  -2   4   0 1663.41   12.50
  -2   4   2  112.74    8.80
  -2   4   4  870.77   13.41
  -2   4   6  149.53    7.52
  -2   4   8  880.26   14.19
  -2   4  10  137.08    8.70
  -2   4  12   74.32   16.84
  -2   4  14  461.86   18.50
  -2   4  16  351.80   14.20
  -2   4  18  556.84   19.78
  -1   4  18  247.02   13.10
  -1   4  15  562.49   17.81
  -1   4  14  189.95   11.88
  -1   4  13   94.65   13.24
  -1   4  12  327.39   14.09
  -1   4  11  831.44   15.97
  -1   4   7  816.37   14.59
  -1   4   6  101.81    9.31
  -1   4   5   71.48   39.85
  -1   4   4  792.04   13.67
  -1   4   3  490.96   14.86
  -1   4   1   69.23   45.62
  -1   4   0  442.88   14.25
   0   4   0  381.64   16.44
   0   4   1   80.68   41.51
   0   4   2   64.13   46.48
   0   4   3  486.98   15.78
   0   4   4  726.21   15.75
   0   4   5   62.24   18.25
   0   4   6   79.89   46.68
   0   4   7  756.26   15.96
   0   4   8   61.44   58.33
   0   4  11  730.55   16.75
   0   4  12  299.47   14.22
   0   4  13   91.84   45.16
   0   4  14  197.59   11.36
   0   4  15  510.45   17.58
   0   4  16  102.00   47.00
  -1   5  10  100.75   44.37
  -1   5   8  649.31   17.88
  -1   5   7  109.00   38.01
  -1   5   6  103.47   41.46
  -1   5   5   63.66   19.99
  -1   5   4  737.38   17.37
  -1   5   2   56.51   59.05
  -1   5   0 1270.51   17.24
  -2   6   0  292.13   11.19
  -2   6   1   73.15   62.09
  -2   6   2   89.00   48.26
  -2   6   3  375.94   14.76
  -2   6   4  529.37   19.80
   0   5   8   68.56   23.36
   0   5   7  604.23   19.26
   0   5   4  557.05   19.46
   0   5   3  381.31   14.61
   0   5   1   67.36   60.55
   0   5   0  275.66   13.02
  -1   5   0 1216.31   16.14
  -1   5   2   22.18   54.00
  -1   5   3   76.75   49.59
  -1   5   4  683.94   17.41
  -1   5   7   65.37   55.48
  -1   5   8  673.27   18.19
  -1   5   9   68.02   57.74
  -1   5  10  140.26   11.74
  -2   5  14  123.10   46.90
  -2   5  13   86.15   39.44
  -2   5  12  311.82   12.56
  -2   5  11  667.33   17.93
  -2   5   8   83.46   41.73
  -2   5   7  668.01   16.79
  -2   5   4  638.10   16.71
  -2   5   3  427.96   16.98
  -2   5   2   92.85   33.45
  -2   5   1   86.72   13.07
  -2   5   0  352.97   16.23
  -2   5   0  354.93   16.81
  -2   5   1   63.42   55.53
  -2   5   2   56.97   45.00
  -2   5   3  393.26   16.26
  -2   5   4  616.22   15.85
  -2   5   6   93.79   37.57
  -2   5   7  656.78   16.16
  -2   5   8   73.06   17.07
  -2   5  11  661.00   17.61
  -2   5  12  264.49   11.15
  -2   5  14  191.00   10.21
  -1   5  12   54.18   26.09
  -1   5  10  129.41   11.72
  -1   5   8  666.49   15.91
  -1   5   6   90.21   41.57
  -1   5   4  653.28   15.62
  -1   5   2   92.17   33.20
  -1   5   0 1169.61   15.10
   0   5   0  255.76   12.72
   0   5   1  116.26   14.32
   0   5   2   88.65   36.70
   0   5   3  337.64   12.93
   0   5   4  516.53   18.25
   0   5   5   54.93   57.37
   0   5   6   90.50   37.45
   0   5   7  544.69   18.06
   0   5   8   65.22   51.52
  -2   6   0  240.62   11.88
  -2   6   1  102.57   39.03
  -2   6   2   92.14   29.42
  -2   6   3  323.23   13.82
  -2   6   4  453.03   18.66
  -3   6   4  536.74   19.11
  -3   6   0  971.69   17.18
  -2   6   0  273.23   14.13
  -2   6   1   67.48   67.48
  -2   6   3  361.98   14.92
  -2   6   4  446.88   21.44

;
_shelx_hkl_checksum              1302
loop_
_space_group_symop_operation_xyz
'x, y, z'
'-y, x-y, z'
'-x+y, -x, z'
'y, x, -z'
'-x, -x+y, -z'
'x-y, -y, -z'
'-x, -y, z+1/2'
'y, -x+y, z+1/2'
'x-y, x, z+1/2'
'-y, -x, -z+1/2'
'x, x-y, -z+1/2'
'-x+y, y, -z+1/2'
'-x, -y, -z'
'y, -x+y, -z'
'x-y, x, -z'
'-y, -x, z'
'x, x-y, z'
'-x+y, y, z'
'x, y, -z-1/2'
'-y, x-y, -z-1/2'
'-x+y, -x, -z-1/2'
'y, x, z-1/2'
'-x, -x+y, z-1/2'
'x-y, -y, z-1/2'
loop_
_atom_site_label
_atom_site_type_symbol
_atom_site_fract_x
_atom_site_fract_y
_atom_site_fract_z
_atom_site_U_iso_or_equiv
_atom_site_adp_type
_atom_site_occupancy
_atom_site_site_symmetry_order
_atom_site_calc_flag
_atom_site_refinement_flags_posn
_atom_site_refinement_flags_adp
_atom_site_refinement_flags_occupancy
_atom_site_disorder_assembly
_atom_site_disorder_group
Sn Sn 0.3333 0.6667 0.38496(6) 0.0077(4) Uani 0.82(6) 6 d S T P . .
SN* Ga 0.3333 0.6667 0.38496(6) 0.0077(4) Uani 0.18(6) 6 d S T P . .
Ga Ga 0.6667 0.3333 0.34140(17) 0.0252(8) Uani 0.96(4) 6 d S T P . .
GA* Sn 0.6667 0.3333 0.34140(17) 0.0252(8) Uani 0.04(4) 6 d S T P . .
Ca1 Ca 0.0000 0.0000 0.5000 0.0128(12) Uani 1 12 d S T P . .
Ca2 Ca 0.0000 0.0000 0.2500 0.0139(12) Uani 1 12 d S T P . .
loop_
_atom_site_aniso_label
_atom_site_aniso_U_11
_atom_site_aniso_U_22
_atom_site_aniso_U_33
_atom_site_aniso_U_23
_atom_site_aniso_U_13
_atom_site_aniso_U_12
Sn 0.0056(5) 0.0056(5) 0.0120(6) 0.000 0.000 0.0028(2)
SN* 0.0056(5) 0.0056(5) 0.0120(6) 0.000 0.000 0.0028(2)
Ga 0.0101(7) 0.0101(7) 0.0556(16) 0.000 0.000 0.0050(4)
GA* 0.0101(7) 0.0101(7) 0.0556(16) 0.000 0.000 0.0050(4)
Ca1 0.0124(15) 0.0124(15) 0.0135(19) 0.000 0.000 0.0062(7)
Ca2 0.0169(16) 0.0169(16) 0.0079(17) 0.000 0.000 0.0085(8)
loop_
_atom_type_symbol
_atom_type_description
_atom_type_scat_dispersion_real
_atom_type_scat_dispersion_imag
_atom_type_scat_source
Ga Ga 0.2307 1.6083 'International Tables Vol C Tables 4.2.6.8 and 6.1.1.4'
Sn Sn -0.6537 1.4246 'International Tables Vol C Tables 4.2.6.8 and 6.1.1.4'
Ca Ca 0.2262 0.3064 'International Tables Vol C Tables 4.2.6.8 and 6.1.1.4'
loop_
_geom_angle_atom_site_label_1
_geom_angle_atom_site_label_2
_geom_angle_atom_site_label_3
_geom_angle
_geom_angle_site_symmetry_1
_geom_angle_site_symmetry_3
Ga Sn GA* 112.08(6) . 1_455
Ga Sn Ga 112.08(6) . 1_455
GA* Sn Ga 0.0 1_455 1_455
Ga Sn GA* 112.08(6) . 1_565
GA* Sn GA* 112.08(6) 1_455 1_565
Ga Sn GA* 112.08(6) 1_455 1_565
Ga Sn Ga 112.08(6) . 1_565
GA* Sn Ga 112.08(6) 1_455 1_565
Ga Sn Ga 112.08(6) 1_455 1_565
GA* Sn Ga 0.00(12) 1_565 1_565
Ga Sn Ca1 78.66(5) . 1_665
GA* Sn Ca1 158.30(7) 1_455 1_665
Ga Sn Ca1 158.30(7) 1_455 1_665
GA* Sn Ca1 78.66(5) 1_565 1_665
Ga Sn Ca1 78.66(5) 1_565 1_665
Ga Sn Ca1 158.30(7) . 1_565
GA* Sn Ca1 78.66(5) 1_455 1_565
Ga Sn Ca1 78.66(5) 1_455 1_565
GA* Sn Ca1 78.66(5) 1_565 1_565
Ga Sn Ca1 78.66(5) 1_565 1_565
Ca1 Sn Ca1 85.47(3) 1_665 1_565
Ga Sn Ca1 78.66(5) . .
GA* Sn Ca1 78.66(5) 1_455 .
Ga Sn Ca1 78.66(5) 1_455 .
GA* Sn Ca1 158.30(7) 1_565 .
Ga Sn Ca1 158.30(7) 1_565 .
Ca1 Sn Ca1 85.47(3) 1_665 .
Ca1 Sn Ca1 85.47(3) 1_565 .
Ga Sn Ca2 56.87(4) . .
GA* Sn Ca2 56.87(4) 1_455 .
Ga Sn Ca2 56.87(4) 1_455 .
GA* Sn Ca2 120.36(7) 1_565 .
Ga Sn Ca2 120.36(7) 1_565 .
Ca1 Sn Ca2 135.236(9) 1_665 .
Ca1 Sn Ca2 135.236(9) 1_565 .
Ca1 Sn Ca2 81.34(3) . .
Ga Sn Ca2 120.36(7) . 1_565
GA* Sn Ca2 56.87(4) 1_455 1_565
Ga Sn Ca2 56.87(4) 1_455 1_565
GA* Sn Ca2 56.87(4) 1_565 1_565
Ga Sn Ca2 56.87(4) 1_565 1_565
Ca1 Sn Ca2 135.236(9) 1_665 1_565
Ca1 Sn Ca2 81.34(3) 1_565 1_565
Ca1 Sn Ca2 135.236(9) . 1_565
Ca2 Sn Ca2 78.71(3) . 1_565
Ga Sn Ca2 56.87(4) . 1_665
GA* Sn Ca2 120.36(7) 1_455 1_665
Ga Sn Ca2 120.36(7) 1_455 1_665
GA* Sn Ca2 56.87(4) 1_565 1_665
Ga Sn Ca2 56.87(4) 1_565 1_665
Ca1 Sn Ca2 81.34(3) 1_665 1_665
Ca1 Sn Ca2 135.236(9) 1_565 1_665
Ca1 Sn Ca2 135.236(9) . 1_665
Ca2 Sn Ca2 78.71(3) . 1_665
Ca2 Sn Ca2 78.71(3) 1_565 1_665
Sn Ga SN* 112.08(6) . 1_655
Sn Ga Sn 112.08(6) . 1_655
SN* Ga Sn 0.00(4) 1_655 1_655
Sn Ga SN* 112.08(6) . 1_545
SN* Ga SN* 112.08(6) 1_655 1_545
Sn Ga SN* 112.08(6) 1_655 1_545
Sn Ga Sn 112.08(6) . 1_545
SN* Ga Sn 112.08(6) 1_655 1_545
Sn Ga Sn 112.08(6) 1_655 1_545
SN* Ga Sn 0.0 1_545 1_545
Sn Ga Ca2 164.50(11) . 1_655
SN* Ga Ca2 75.41(2) 1_655 1_655
Sn Ga Ca2 75.41(2) 1_655 1_655
SN* Ga Ca2 75.41(2) 1_545 1_655
Sn Ga Ca2 75.41(2) 1_545 1_655
Sn Ga Ca2 75.41(2) . .
SN* Ga Ca2 164.50(11) 1_655 .
Sn Ga Ca2 164.50(11) 1_655 .
SN* Ga Ca2 75.41(2) 1_545 .
Sn Ga Ca2 75.41(2) 1_545 .
Ca2 Ga Ca2 94.24(7) 1_655 .
Sn Ga Ca2 75.41(2) . 1_665
SN* Ga Ca2 75.41(2) 1_655 1_665
Sn Ga Ca2 75.41(2) 1_655 1_665
SN* Ga Ca2 164.50(11) 1_545 1_665
Sn Ga Ca2 164.50(11) 1_545 1_665
Ca2 Ga Ca2 94.24(7) 1_655 1_665
Ca2 Ga Ca2 94.24(7) . 1_665
SN* Ca1 SN* 180.0 13_666 1_445
SN* Ca1 Sn 0.00(3) 13_666 13_666
SN* Ca1 Sn 180.0 1_445 13_666
SN* Ca1 Sn 180.0 13_666 1_445
SN* Ca1 Sn 0.0 1_445 1_445
Sn Ca1 Sn 180.0 13_666 1_445
SN* Ca1 SN* 85.47(3) 13_666 13_556
SN* Ca1 SN* 94.53(3) 1_445 13_556
Sn Ca1 SN* 85.47(3) 13_666 13_556
Sn Ca1 SN* 94.53(3) 1_445 13_556
SN* Ca1 Sn 85.47(3) 13_666 13_556
SN* Ca1 Sn 94.53(3) 1_445 13_556
Sn Ca1 Sn 85.47(3) 13_666 13_556
Sn Ca1 Sn 94.53(3) 1_445 13_556
SN* Ca1 Sn 0.0 13_556 13_556
SN* Ca1 SN* 85.47(3) 13_666 13_566
SN* Ca1 SN* 94.53(3) 1_445 13_566
Sn Ca1 SN* 85.47(3) 13_666 13_566
Sn Ca1 SN* 94.53(3) 1_445 13_566
SN* Ca1 SN* 85.47(3) 13_556 13_566
Sn Ca1 SN* 85.47(3) 13_556 13_566
SN* Ca1 Sn 94.53(3) 13_666 1_545
SN* Ca1 Sn 85.47(3) 1_445 1_545
Sn Ca1 Sn 94.53(3) 13_666 1_545
Sn Ca1 Sn 85.47(3) 1_445 1_545
SN* Ca1 Sn 94.53(3) 13_556 1_545
Sn Ca1 Sn 94.53(3) 13_556 1_545
SN* Ca1 Sn 180.00(3) 13_566 1_545
SN* Ca1 Sn 85.47(3) 13_666 13_566
SN* Ca1 Sn 94.53(3) 1_445 13_566
Sn Ca1 Sn 85.47(3) 13_666 13_566
Sn Ca1 Sn 94.53(3) 1_445 13_566
SN* Ca1 Sn 85.47(3) 13_556 13_566
Sn Ca1 Sn 85.47(3) 13_556 13_566
SN* Ca1 Sn 0.00(3) 13_566 13_566
Sn Ca1 Sn 180.00(3) 1_545 13_566
SN* Ca1 SN* 94.53(3) 13_666 1_545
SN* Ca1 SN* 85.47(3) 1_445 1_545
Sn Ca1 SN* 94.53(3) 13_666 1_545
Sn Ca1 SN* 85.47(3) 1_445 1_545
SN* Ca1 SN* 94.53(3) 13_556 1_545
Sn Ca1 SN* 94.53(3) 13_556 1_545
SN* Ca1 SN* 180.00(3) 13_566 1_545
Sn Ca1 SN* 0.00(3) 1_545 1_545
Sn Ca1 SN* 180.00(3) 13_566 1_545
SN* Ca1 Sn 94.53(3) 13_666 .
SN* Ca1 Sn 85.47(3) 1_445 .
Sn Ca1 Sn 94.53(3) 13_666 .
Sn Ca1 Sn 85.47(3) 1_445 .
SN* Ca1 Sn 180.0 13_556 .
Sn Ca1 Sn 180.0 13_556 .
SN* Ca1 Sn 94.53(3) 13_566 .
Sn Ca1 Sn 85.47(3) 1_545 .
Sn Ca1 Sn 94.53(3) 13_566 .
SN* Ca1 Sn 85.47(3) 1_545 .
GA* Ca2 Ga 0.00(9) 19_446 19_446
GA* Ca2 GA* 94.24(7) 19_446 19_556
Ga Ca2 GA* 94.24(7) 19_446 19_556
GA* Ca2 GA* 64.42(10) 19_446 1_445
Ga Ca2 GA* 64.42(10) 19_446 1_445
GA* Ca2 GA* 129.94(3) 19_556 1_445
GA* Ca2 Ga 94.24(7) 19_446 19_556
Ga Ca2 Ga 94.24(7) 19_446 19_556
GA* Ca2 Ga 0.00(9) 19_556 19_556
GA* Ca2 Ga 129.94(3) 1_445 19_556
GA* Ca2 Ga 64.42(10) 19_446 1_445
Ga Ca2 Ga 64.42(10) 19_446 1_445
GA* Ca2 Ga 129.94(3) 19_556 1_445
GA* Ca2 Ga 0.0 1_445 1_445
Ga Ca2 Ga 129.94(3) 19_556 1_445
GA* Ca2 GA* 94.24(7) 19_446 19_456
Ga Ca2 GA* 94.24(7) 19_446 19_456
GA* Ca2 GA* 94.24(7) 19_556 19_456
GA* Ca2 GA* 129.94(3) 1_445 19_456
Ga Ca2 GA* 94.24(7) 19_556 19_456
Ga Ca2 GA* 129.94(3) 1_445 19_456
GA* Ca2 GA* 129.94(3) 19_446 1_455
Ga Ca2 GA* 129.94(3) 19_446 1_455
GA* Ca2 GA* 129.94(3) 19_556 1_455
GA* Ca2 GA* 94.24(7) 1_445 1_455
Ga Ca2 GA* 129.94(3) 19_556 1_455
Ga Ca2 GA* 94.24(7) 1_445 1_455
GA* Ca2 GA* 64.41(10) 19_456 1_455
GA* Ca2 Ga 94.24(7) 19_446 19_456
Ga Ca2 Ga 94.24(7) 19_446 19_456
GA* Ca2 Ga 94.24(7) 19_556 19_456
GA* Ca2 Ga 129.94(3) 1_445 19_456
Ga Ca2 Ga 94.24(7) 19_556 19_456
Ga Ca2 Ga 129.94(3) 1_445 19_456
GA* Ca2 Ga 0.00(9) 19_456 19_456
GA* Ca2 Ga 64.41(10) 1_455 19_456
GA* Ca2 Ga 129.94(3) 19_446 1_455
Ga Ca2 Ga 129.94(3) 19_446 1_455
GA* Ca2 Ga 129.94(3) 19_556 1_455
GA* Ca2 Ga 94.24(7) 1_445 1_455
Ga Ca2 Ga 129.94(3) 19_556 1_455
Ga Ca2 Ga 94.24(7) 1_445 1_455
GA* Ca2 Ga 64.41(10) 19_456 1_455
GA* Ca2 Ga 0.00(9) 1_455 1_455
Ga Ca2 Ga 64.41(10) 19_456 1_455
GA* Ca2 Ga 129.94(3) 19_446 .
Ga Ca2 Ga 129.94(3) 19_446 .
GA* Ca2 Ga 64.42(10) 19_556 .
GA* Ca2 Ga 94.24(7) 1_445 .
Ga Ca2 Ga 64.42(10) 19_556 .
Ga Ca2 Ga 94.24(7) 1_445 .
GA* Ca2 Ga 129.94(3) 19_456 .
GA* Ca2 Ga 94.24(7) 1_455 .
Ga Ca2 Ga 129.94(3) 19_456 .
Ga Ca2 Ga 94.24(7) 1_455 .
loop_
_geom_bond_atom_site_label_1
_geom_bond_atom_site_label_2
_geom_bond_distance
_geom_bond_site_symmetry_2
Sn Ga 2.6664(10) .
Sn GA* 2.6664(10) 1_455
Sn Ga 2.6664(10) 1_455
Sn GA* 2.6664(10) 1_565
Sn Ga 2.6664(10) 1_565
Sn Ca1 3.2591(9) 1_665
Sn Ca1 3.2591(9) 1_565
Sn Ca1 3.2591(9) .
Sn Ca2 3.4878(10) .
Sn Ca2 3.4878(10) 1_565
Sn Ca2 3.4878(10) 1_665
Ga SN* 2.6664(10) 1_655
Ga Sn 2.6664(10) 1_655
Ga SN* 2.6664(10) 1_545
Ga Sn 2.6664(10) 1_545
Ga Ca2 3.0183(17) 1_655
Ga Ca2 3.0183(17) .
Ga Ca2 3.0183(17) 1_665
Ca1 SN* 3.2590(9) 13_666
Ca1 SN* 3.2590(9) 1_445
Ca1 Sn 3.2590(9) 13_666
Ca1 Sn 3.2590(9) 1_445
Ca1 SN* 3.2590(9) 13_556
Ca1 Sn 3.2590(9) 13_556
Ca1 SN* 3.2591(9) 13_566
Ca1 Sn 3.2591(9) 1_545
Ca1 Sn 3.2591(9) 13_566
Ca1 SN* 3.2591(9) 1_545
Ca2 GA* 3.0182(17) 19_446
Ca2 Ga 3.0182(17) 19_446
Ca2 GA* 3.0182(17) 19_556
Ca2 GA* 3.0182(17) 1_445
Ca2 Ga 3.0182(17) 19_556
Ca2 Ga 3.0182(17) 1_445
Ca2 GA* 3.0182(17) 19_456
Ca2 GA* 3.0182(17) 1_455
Ca2 Ga 3.0182(17) 19_456
Ca2 Ga 3.0182(17) 1_455
