#------------------------------------------------------------------------------
#$Date: 2021-04-14 13:20:08 +0300 (Wed, 14 Apr 2021) $
#$Revision: 264165 $
#$URL: file:///home/coder/svn-repositories/cod/cif/1/56/17/1561770.cif $
#------------------------------------------------------------------------------
#
# This file is available in the Crystallography Open Database (COD),
# http://www.crystallography.net/
#
# All data on this site have been placed in the public domain by the
# contributors.
#
data_1561770
loop_
_publ_author_name
'Bykova, E.'
'Gou, H.'
'Bykov, M.'
'Hanfland, M.'
'Dubrovinsky, L.'
'Dubrovinskaia, N.'
_publ_section_title
;
 Crystal structures and compressibility of novel iron borides Fe2B7 and Fe
 B50 synthesized at high pressure and high temperature
;
_journal_name_full               'Journal of Solid State Chemistry'
_journal_page_first              102
_journal_page_last               109
_journal_paper_doi               10.1016/j.jssc.2015.06.040
_journal_volume                  230
_journal_year                    2015
_chemical_absolute_configuration .
_chemical_formula_moiety         'B50 Fe1.01'
_chemical_formula_sum            'B50 Fe1.01'
_chemical_formula_weight         596.9
_chemical_name_common            'Iron Boron (1.01/50)'
_chemical_name_systematic        'Iron Boron (1.01/50)'
_space_group_IT_number           134
_space_group_name_Hall           '-P 4ac 2bc'
_space_group_name_H-M_alt        'P 42/n n m :2'
_symmetry_cell_setting           tetragonal
_symmetry_Int_Tables_number      134
_symmetry_space_group_name_Hall  '-P 4ac 2bc'
_symmetry_space_group_name_H-M   'P 42/n n m :2'
_cell_angle_alpha                90
_cell_angle_beta                 90
_cell_angle_gamma                90
_cell_formula_units_Z            1
_cell_length_a                   8.7745(2)
_cell_length_b                   8.7745(2)
_cell_length_c                   4.9438(2)
_cell_measurement_reflns_used    430
_cell_measurement_temperature    293
_cell_measurement_theta_max      19.26
_cell_measurement_theta_min      2.71
_cell_volume                     380.63(2)
_computing_cell_refinement
;
CrysAlisPro, Agilent Technologies,
Version 1.171.37.35 (release 13-08-2014 CrysAlis171 .NET)
(compiled Aug 13 2014,18:06:01)
;
_computing_data_collection
;
CrysAlisPro, Agilent Technologies,
Version 1.171.37.35 (release 13-08-2014 CrysAlis171 .NET)
(compiled Aug 13 2014,18:06:01)
;
_computing_data_reduction
;
CrysAlisPro, Agilent Technologies,
Version 1.171.37.35 (release 13-08-2014 CrysAlis171 .NET)
(compiled Aug 13 2014,18:06:01)
;
_computing_structure_refinement  'Jana2006 (Petricek, 2014)'
_computing_structure_solution    'SHELXS-2013 (Sheldrick, 2013)'
_diffrn_ambient_pressure         13500000
_diffrn_ambient_temperature      293
_diffrn_detector                 'MAR555 flatpanel detector'
_diffrn_measured_fraction_theta_full 0.95
_diffrn_measured_fraction_theta_max 0.66
_diffrn_measurement_device
;
customized omega-circle diffractometer
;
_diffrn_measurement_device_type  'ESRF, beamline ID09A diffractometer'
_diffrn_measurement_method       '\w scans'
_diffrn_radiation_monochromator  synchrotron
_diffrn_radiation_probe          x-ray
_diffrn_radiation_source         synchrotron
_diffrn_radiation_type           synchrotron
_diffrn_radiation_wavelength     0.41441
_diffrn_reflns_av_R_equivalents  0.0353
_diffrn_reflns_av_unetI/netI     0.036
_diffrn_reflns_limit_h_max       9
_diffrn_reflns_limit_h_min       -7
_diffrn_reflns_limit_k_max       12
_diffrn_reflns_limit_k_min       -13
_diffrn_reflns_limit_l_max       7
_diffrn_reflns_limit_l_min       -6
_diffrn_reflns_number            877
_diffrn_reflns_theta_full        13.66
_diffrn_reflns_theta_max         19.43
_diffrn_reflns_theta_min         1.91
_diffrn_source                   synchrotron
_exptl_absorpt_coefficient_mu    0.243
_exptl_absorpt_correction_T_max  1
_exptl_absorpt_correction_T_min  0.387
_exptl_absorpt_correction_type   multi-scan
_exptl_absorpt_process_details
;
CrysAlisPro, Agilent Technologies,
Version 1.171.37.35 (release 13-08-2014 CrysAlis171 .NET)
(compiled Aug 13 2014,18:06:01)
Empirical absorption correction using spherical harmonics,
 implemented in SCALE3 ABSPACK scaling algorithm.
;
_exptl_crystal_colour            black
_exptl_crystal_density_diffrn    2.6032
_exptl_crystal_description       plate
_exptl_crystal_F_000             276
_exptl_crystal_size_max          0.020
_exptl_crystal_size_mid          0.020
_exptl_crystal_size_min          0.005
_refine_diff_density_max         0.47
_refine_diff_density_min         -0.32
_refine_ls_extinction_method     none
_refine_ls_goodness_of_fit_gt    2.60
_refine_ls_goodness_of_fit_ref   2.47
_refine_ls_number_constraints    0
_refine_ls_number_parameters     35
_refine_ls_number_reflns         295
_refine_ls_number_restraints     0
_refine_ls_R_factor_all          0.0537
_refine_ls_R_factor_gt           0.0496
_refine_ls_shift/su_max          0.0003
_refine_ls_shift/su_mean         0.0000
_refine_ls_structure_factor_coef Fsqd
_refine_ls_weighting_details     w=1/(\s^2^(I)+0.0004I^2^)
_refine_ls_weighting_scheme      sigma
_refine_ls_wR_factor_gt          0.1179
_refine_ls_wR_factor_ref         0.1208
_reflns_number_gt                260
_reflns_number_total             295
_reflns_threshold_expression     I>2\s(I)
_cod_data_source_file            feb50_13.5GPa.cif
_cod_data_source_block           Fe1.0B50_13.5GPa
_cod_depositor_comments
;
The following automatic conversions were performed:

data item '_diffrn_radiation_probe' value 'X-ray' was changed to
'x-ray' in accordance with the built-in table derived from the CIF
Core dictionary named 'cif_core.dic' version 2.4.5 last updated on
2014-11-21.

Automatic conversion script
Id: cif_fix_values 8369 2020-08-20 11:38:08Z andrius 
;
_cod_original_sg_symbol_H-M      'P 42/n n m'
_cod_database_code               1561770
loop_
_symmetry_equiv_pos_site_id
_symmetry_equiv_pos_as_xyz
1 x,y,z
2 -x+1/2,-y+1/2,z
3 -y+1/2,x,z+1/2
4 y,-x+1/2,z+1/2
5 -x+1/2,y,-z+1/2
6 x,-y+1/2,-z+1/2
7 y,x,-z
8 -y+1/2,-x+1/2,-z
9 -x,-y,-z
10 x+1/2,y+1/2,-z
11 y+1/2,-x,-z+1/2
12 -y,x+1/2,-z+1/2
13 x+1/2,-y,z+1/2
14 -x,y+1/2,z+1/2
15 -y,-x,z
16 y+1/2,x+1/2,z
loop_
_atom_site_label
_atom_site_type_symbol
_atom_site_fract_x
_atom_site_fract_y
_atom_site_fract_z
_atom_site_adp_type
_atom_site_U_iso_or_equiv
_atom_site_site_symmetry_multiplicity
_atom_site_occupancy
_atom_site_calc_flag
_atom_site_refinement_flags
_atom_site_disorder_assembly
_atom_site_disorder_group
Fe1 Fe -0.25 0.25 0.25 Uani 0.0109(4) 2 0.5049 d . . .
B4 B -0.0747(3) -0.1559(3) 0.1485(4) Uani 0.0092(6) 16 1 d . . .
B5 B -0.1682(2) 0.0223(3) 0.1624(4) Uani 0.0073(6) 16 1 d . . .
B2 B 0.1228(3) -0.1228(3) 0.1403(6) Uani 0.0076(7) 8 1 d . . .
B3 B 0.0030(2) -0.0030(2) 0.3357(6) Uani 0.0060(6) 8 1 d . . .
B1 B 0.25 -0.25 0.25 Uani 0.0069(12) 2 1 d . . .
loop_
_atom_site_aniso_label
_atom_site_aniso_type_symbol
_atom_site_aniso_U_11
_atom_site_aniso_U_22
_atom_site_aniso_U_33
_atom_site_aniso_U_12
_atom_site_aniso_U_13
_atom_site_aniso_U_23
Fe1 Fe 0.0052(6) 0.0052(6) 0.0223(9) 0 0 0
B4 B 0.0085(11) 0.0116(12) 0.0076(9) 0.0009(11) 0.0006(7) -0.0041(7)
B5 B 0.0079(11) 0.0091(11) 0.0048(8) -0.0011(11) 0.0004(6) 0.0003(7)
B2 B 0.0087(11) 0.0087(11) 0.0056(12) -0.0023(16) 0.0005(7) -0.0005(7)
B3 B 0.0072(10) 0.0072(10) 0.0037(11) -0.0020(14) 0.0004(6) -0.0004(6)
B1 B 0.0053(19) 0.0053(19) 0.010(2) 0 0 0
loop_
_atom_type_symbol
_atom_type_scat_dispersion_real
_atom_type_scat_dispersion_imag
_atom_type_scat_source
B -0.0003 0.0002 'International Tables Vol C tables 4.2.6.8 and 6.1.1.1'
Fe 0.1991 0.3104 'International Tables Vol C tables 4.2.6.8 and 6.1.1.1'
loop_
_geom_angle_atom_site_label_1
_geom_angle_atom_site_label_2
_geom_angle_atom_site_label_3
_geom_angle_site_symmetry_1
_geom_angle_site_symmetry_2
_geom_angle_site_symmetry_3
_geom_angle
B5 Fe1 B5 . . 2_455 156.95(7)
B5 Fe1 B5 . . 5_455 45.50(8)
B5 Fe1 B5 . . 6_555 141.33(8)
B5 Fe1 B5 . . 11_455 92.29(8)
B5 Fe1 B5 . . 12_555 92.29(8)
B5 Fe1 B5 . . 15_555 49.41(8)
B5 Fe1 B5 . . 16_455 124.80(8)
B5 Fe1 B2 . . 3_455 83.69(8)
B5 Fe1 B2 . . 4_555 114.79(7)
B5 Fe1 B2 . . 7_555 44.29(8)
B5 Fe1 B2 . . 8_455 113.98(8)
B5 Fe1 B1 . . 3_454 78.47(5)
B5 Fe1 B1 . . 3_455 101.53(5)
B5 Fe1 B5 2_455 . 5_455 141.33(8)
B5 Fe1 B5 2_455 . 6_555 45.50(8)
B5 Fe1 B5 2_455 . 11_455 92.29(8)
B5 Fe1 B5 2_455 . 12_555 92.29(8)
B5 Fe1 B5 2_455 . 15_555 124.80(8)
B5 Fe1 B5 2_455 . 16_455 49.41(8)
B5 Fe1 B2 2_455 . 3_455 114.79(7)
B5 Fe1 B2 2_455 . 4_555 83.69(8)
B5 Fe1 B2 2_455 . 7_555 113.98(8)
B5 Fe1 B2 2_455 . 8_455 44.29(8)
B5 Fe1 B1 2_455 . 3_454 78.47(5)
B5 Fe1 B1 2_455 . 3_455 101.53(5)
B5 Fe1 B5 5_455 . 6_555 156.95(7)
B5 Fe1 B5 5_455 . 11_455 49.41(8)
B5 Fe1 B5 5_455 . 12_555 124.80(8)
B5 Fe1 B5 5_455 . 15_555 92.29(8)
B5 Fe1 B5 5_455 . 16_455 92.29(8)
B5 Fe1 B2 5_455 . 3_455 44.29(8)
B5 Fe1 B2 5_455 . 4_555 113.98(8)
B5 Fe1 B2 5_455 . 7_555 83.69(8)
B5 Fe1 B2 5_455 . 8_455 114.79(7)
B5 Fe1 B1 5_455 . 3_454 101.53(5)
B5 Fe1 B1 5_455 . 3_455 78.47(5)
B5 Fe1 B5 6_555 . 11_455 124.80(8)
B5 Fe1 B5 6_555 . 12_555 49.41(8)
B5 Fe1 B5 6_555 . 15_555 92.29(8)
B5 Fe1 B5 6_555 . 16_455 92.29(8)
B5 Fe1 B2 6_555 . 3_455 113.98(8)
B5 Fe1 B2 6_555 . 4_555 44.29(8)
B5 Fe1 B2 6_555 . 7_555 114.79(7)
B5 Fe1 B2 6_555 . 8_455 83.69(8)
B5 Fe1 B1 6_555 . 3_454 101.53(5)
B5 Fe1 B1 6_555 . 3_455 78.47(5)
B5 Fe1 B5 11_455 . 12_555 156.95(7)
B5 Fe1 B5 11_455 . 15_555 141.33(8)
B5 Fe1 B5 11_455 . 16_455 45.50(8)
B5 Fe1 B2 11_455 . 3_455 44.29(8)
B5 Fe1 B2 11_455 . 4_555 113.98(8)
B5 Fe1 B2 11_455 . 7_555 114.79(7)
B5 Fe1 B2 11_455 . 8_455 83.69(8)
B5 Fe1 B1 11_455 . 3_454 101.53(5)
B5 Fe1 B1 11_455 . 3_455 78.47(5)
B5 Fe1 B5 12_555 . 15_555 45.50(8)
B5 Fe1 B5 12_555 . 16_455 141.33(8)
B5 Fe1 B2 12_555 . 3_455 113.98(8)
B5 Fe1 B2 12_555 . 4_555 44.29(8)
B5 Fe1 B2 12_555 . 7_555 83.69(8)
B5 Fe1 B2 12_555 . 8_455 114.79(7)
B5 Fe1 B1 12_555 . 3_454 101.53(5)
B5 Fe1 B1 12_555 . 3_455 78.47(5)
B5 Fe1 B5 15_555 . 16_455 156.95(7)
B5 Fe1 B2 15_555 . 3_455 114.79(7)
B5 Fe1 B2 15_555 . 4_555 83.69(8)
B5 Fe1 B2 15_555 . 7_555 44.29(8)
B5 Fe1 B2 15_555 . 8_455 113.98(8)
B5 Fe1 B1 15_555 . 3_454 78.47(5)
B5 Fe1 B1 15_555 . 3_455 101.53(5)
B5 Fe1 B2 16_455 . 3_455 83.69(8)
B5 Fe1 B2 16_455 . 4_555 114.79(7)
B5 Fe1 B2 16_455 . 7_555 113.98(8)
B5 Fe1 B2 16_455 . 8_455 44.29(8)
B5 Fe1 B1 16_455 . 3_454 78.47(5)
B5 Fe1 B1 16_455 . 3_455 101.53(5)
B2 Fe1 B2 3_455 . 4_555 78.57(8)
B2 Fe1 B2 3_455 . 7_555 126.81(8)
B2 Fe1 B2 3_455 . 8_455 126.81(8)
B2 Fe1 B1 3_455 . 3_454 140.72(6)
B2 Fe1 B1 3_455 . 3_455 39.28(6)
B2 Fe1 B2 4_555 . 7_555 126.81(8)
B2 Fe1 B2 4_555 . 8_455 126.81(8)
B2 Fe1 B1 4_555 . 3_454 140.72(6)
B2 Fe1 B1 4_555 . 3_455 39.28(6)
B2 Fe1 B2 7_555 . 8_455 78.57(8)
B2 Fe1 B1 7_555 . 3_454 39.28(6)
B2 Fe1 B1 7_555 . 3_455 140.72(6)
B2 Fe1 B1 8_455 . 3_454 39.28(6)
B2 Fe1 B1 8_455 . 3_455 140.72(6)
B1 Fe1 B1 3_454 . 3_455 180.0(5)
B4 B4 B4 6_545 . 7_555 140.37(17)
B4 B4 B5 6_545 . . 137.38(16)
B4 B4 B5 6_545 . 7_555 113.65(16)
B4 B4 B2 6_545 . . 98.82(15)
B4 B4 B3 6_545 . . 112.15(15)
B4 B4 B5 7_555 . . 59.48(12)
B4 B4 B5 7_555 . 7_555 59.87(12)
B4 B4 B2 7_555 . . 108.01(17)
B4 B4 B3 7_555 . . 106.39(17)
B5 B4 B5 . . 7_555 108.22(15)
B5 B4 B2 . . . 108.21(16)
B5 B4 B3 . . . 59.13(12)
B5 B4 B2 7_555 . . 60.87(14)
B5 B4 B3 7_555 . . 108.49(16)
B2 B4 B3 . . . 60.40(13)
Fe1 B5 B4 . . . 167.81(14)
Fe1 B5 B4 . . 7_555 129.84(13)
Fe1 B5 B5 . . 5_455 67.25(11)
Fe1 B5 B5 . . 15_555 65.29(10)
Fe1 B5 B2 . . 7_555 77.61(11)
Fe1 B5 B3 . . . 107.74(13)
B4 B5 B4 . . 7_555 60.65(13)
B4 B5 B5 . . 5_455 114.69(16)
B4 B5 B5 . . 15_555 107.29(15)
B4 B5 B2 . . 7_555 107.54(15)
B4 B5 B3 . . . 60.41(12)
B4 B5 B5 7_555 . 5_455 120.24(16)
B4 B5 B5 7_555 . 15_555 107.37(14)
B4 B5 B2 7_555 . 7_555 59.49(13)
B4 B5 B3 7_555 . . 108.32(16)
B5 B5 B5 5_455 . 15_555 127.26(16)
B5 B5 B2 5_455 . 7_555 128.71(16)
B5 B5 B3 5_455 . . 118.95(16)
B5 B5 B2 15_555 . 7_555 59.46(12)
B5 B5 B3 15_555 . . 58.72(12)
B2 B5 B3 7_555 . . 106.42(15)
Fe1 B2 B4 3_554 . . 112.67(14)
Fe1 B2 B4 3_554 . 15_555 112.67(14)
Fe1 B2 B5 3_554 . 7_555 58.09(10)
Fe1 B2 B5 3_554 . 9_555 58.09(10)
Fe1 B2 B3 3_554 . . 162.30(16)
Fe1 B2 B1 3_554 . . 69.69(8)
B4 B2 B4 . . 15_555 109.00(16)
B4 B2 B5 . . 7_555 59.64(13)
B4 B2 B5 . . 9_555 108.78(17)
B4 B2 B3 . . . 60.05(13)
B4 B2 B1 . . . 122.76(16)
B4 B2 B5 15_555 . 7_555 108.78(17)
B4 B2 B5 15_555 . 9_555 59.64(13)
B4 B2 B3 15_555 . . 60.05(13)
B4 B2 B1 15_555 . . 122.76(16)
B5 B2 B5 7_555 . 9_555 61.08(13)
B5 B2 B3 7_555 . . 107.26(16)
B5 B2 B1 7_555 . . 117.02(15)
B5 B2 B3 9_555 . . 107.26(16)
B5 B2 B1 9_555 . . 117.02(15)
B3 B2 B1 . . . 128.01(19)
B4 B3 B4 . . 15_555 108.19(17)
B4 B3 B5 . . . 60.46(13)
B4 B3 B5 . . 15_555 110.38(17)
B4 B3 B2 . . . 59.55(13)
B4 B3 B3 . . 7_556 122.36(17)
B4 B3 B5 15_555 . . 110.38(17)
B4 B3 B5 15_555 . 15_555 60.46(13)
B4 B3 B2 15_555 . . 59.55(13)
B4 B3 B3 15_555 . 7_556 122.36(17)
B5 B3 B5 . . 15_555 62.57(13)
B5 B3 B2 . . . 108.60(18)
B5 B3 B3 . . 7_556 117.28(16)
B5 B3 B2 15_555 . . 108.60(18)
B5 B3 B3 15_555 . 7_556 117.28(16)
B2 B3 B3 . . 7_556 125.66(18)
Fe1 B1 Fe1 3_554 . 3_555 180.0(5)
Fe1 B1 B2 3_554 . . 71.03(9)
Fe1 B1 B2 3_554 . 2_545 71.03(9)
Fe1 B1 B2 3_554 . 5_555 108.97(9)
Fe1 B1 B2 3_554 . 6_545 108.97(9)
Fe1 B1 B2 3_555 . . 108.97(9)
Fe1 B1 B2 3_555 . 2_545 108.97(9)
Fe1 B1 B2 3_555 . 5_555 71.03(9)
Fe1 B1 B2 3_555 . 6_545 71.03(9)
B2 B1 B2 . . 2_545 142.06(13)
B2 B1 B2 . . 5_555 96.07(11)
B2 B1 B2 . . 6_545 96.07(11)
B2 B1 B2 2_545 . 5_555 96.07(11)
B2 B1 B2 2_545 . 6_545 96.07(11)
B2 B1 B2 5_555 . 6_545 142.06(13)
loop_
_geom_bond_atom_site_label_1
_geom_bond_atom_site_label_2
_geom_bond_site_symmetry_1
_geom_bond_site_symmetry_2
_geom_bond_distance
Fe1 B5 . . 2.167(2)
Fe1 B5 . 2_455 2.167(2)
Fe1 B5 . 5_455 2.167(2)
Fe1 B5 . 6_555 2.167(2)
Fe1 B5 . 11_455 2.167(2)
Fe1 B5 . 12_555 2.167(2)
Fe1 B5 . 15_555 2.167(2)
Fe1 B5 . 16_455 2.167(2)
Fe1 B2 . 3_455 2.493(3)
Fe1 B2 . 4_555 2.493(3)
Fe1 B2 . 7_555 2.493(3)
Fe1 B2 . 8_455 2.493(3)
Fe1 B1 . 3_454 2.4719(2)
Fe1 B1 . 3_455 2.4719(2)
B4 B4 . 6_545 1.932(3)
B4 B4 . 7_555 1.781(3)
B4 B5 . . 1.768(3)
B4 B5 . 7_555 1.761(3)
B4 B2 . . 1.758(3)
B4 B3 . . 1.767(3)
B5 B5 . 5_455 1.676(3)
B5 B5 . 15_555 1.811(3)
B5 B2 . 7_555 1.782(3)
B5 B3 . . 1.744(3)
B2 B3 . . 1.773(3)
B2 B1 . . 1.669(2)
B3 B3 . 7_556 1.627(4)
loop_
_refln_index_h
_refln_index_k
_refln_index_l
_refln_F_squared_calc
_refln_F_squared_meas
_refln_F_squared_sigma
_refln_observed_status
1 0 1 243.74 267.86 5.48 o
1 0 3 263.16 239.77 8.23 o
1 0 5 36.12 35.73 4.31 o
1 0 7 17.35 13.79 3.76 o
1 1 2 529.21 511.30 8.55 o
1 1 3 381.91 394.38 7.41 o
1 1 4 179.05 161.10 5.60 o
1 1 5 10.41 6.87 1.35 o
1 1 6 57.27 52.14 4.26 o
1 1 7 131.82 149.31 14.02 o
2 0 0 410.67 389.24 6.37 o
2 0 2 77.79 98.49 3.06 o
2 0 4 657.12 663.18 16.20 o
2 0 6 503.94 523.40 17.68 o
2 1 1 165.87 171.17 3.51 o
2 1 2 7.12 9.62 0.88 o
2 1 3 65.04 63.83 2.27 o
2 1 4 19.03 15.09 1.19 o
2 1 5 28.00 24.51 1.70 o
2 1 6 37.24 35.17 2.40 o
2 1 7 25.91 29.70 5.09 o
2 2 0 294.88 353.67 7.68 o
2 2 1 0.05 0.22 0.21 <
2 2 2 370.63 446.28 9.83 o
2 2 3 0.18 0.01 0.43 <
2 2 4 288.39 350.11 10.70 o
2 2 5 0.06 0.09 0.86 <
2 2 6 95.00 83.70 5.01 o
2 2 7 0.11 0.26 1.38 <
3 0 1 52.53 34.99 1.69 o
3 0 3 70.78 52.89 2.83 o
3 0 5 68.94 74.82 5.78 o
3 1 0 762.40 800.40 9.90 o
3 1 1 1028.65 1204.52 8.34 o
3 1 2 424.49 436.29 6.98 o
3 1 3 1326.39 1217.88 10.80 o
3 1 4 138.90 143.84 4.32 o
3 1 5 26.14 29.71 2.48 o
3 1 6 46.00 50.58 3.57 o
3 2 1 2.35 0.39 0.26 <
3 2 2 16.56 19.75 1.32 o
3 2 3 146.23 124.73 4.32 o
3 2 4 4.41 6.95 1.09 o
3 2 5 155.36 157.06 6.50 o
3 2 6 0.97 19.54 4.54 o
3 2 7 19.38 19.02 2.95 o
3 3 0 648.10 725.49 13.80 o
3 3 1 515.61 632.38 13.23 o
3 3 2 361.95 388.26 10.98 o
3 3 3 1182.75 1181.06 19.99 o
3 3 4 106.89 115.14 6.50 o
3 3 5 166.43 191.26 9.07 o
3 3 6 38.31 39.26 6.13 o
3 3 7 157.14 168.09 14.14 o
4 0 0 147.36 176.46 6.08 o
4 0 2 482.73 551.67 8.30 o
4 0 4 525.85 480.42 9.41 o
4 0 6 25.15 36.22 4.75 o
4 1 1 979.89 1157.60 9.25 o
4 1 2 67.27 63.50 2.14 o
4 1 3 20.88 34.82 2.06 o
4 1 4 4.82 3.81 0.71 o
4 1 5 60.97 61.64 3.86 o
4 1 6 21.10 26.19 3.82 o
4 2 0 675.21 728.11 13.98 o
4 2 1 0.97 0.56 0.36 <
4 2 2 336.20 343.78 6.12 o
4 2 3 0.34 0.15 0.26 <
4 2 4 79.38 71.45 3.10 o
4 2 5 1.29 1.47 0.58 o
4 2 6 39.44 37.19 3.67 o
4 2 7 0.81 1.58 2.17 <
4 3 1 221.62 227.42 6.12 o
4 3 2 633.28 614.51 10.50 o
4 3 3 91.40 99.43 4.37 o
4 3 4 252.37 269.25 7.54 o
4 3 5 6.61 8.17 1.42 o
4 3 6 31.35 33.48 3.59 o
4 3 7 1.35 0.80 1.03 <
4 4 1 13.93 17.55 2.49 o
4 4 2 461.08 392.40 12.83 o
4 4 3 11.20 15.19 2.48 o
4 4 4 12.88 12.53 2.36 o
4 4 5 10.53 9.58 2.15 o
4 4 6 5.91 8.51 2.78 o
4 4 7 13.74 17.45 4.94 o
5 0 1 1307.32 1216.08 13.00 o
5 0 3 3.07 3.50 0.79 o
5 0 5 217.63 173.93 6.11 o
5 1 0 331.04 359.63 7.46 o
5 1 1 60.66 72.99 2.39 o
5 1 2 325.88 317.64 5.39 o
5 1 3 83.86 80.76 3.25 o
5 1 4 199.20 202.47 5.82 o
5 1 5 2.43 1.25 0.69 <
5 1 6 34.92 41.93 4.09 o
5 2 1 546.10 516.99 9.10 o
5 2 2 842.04 809.34 10.25 o
5 2 3 69.60 69.23 3.08 o
5 2 4 229.82 237.90 6.19 o
5 2 5 17.70 15.84 1.68 o
5 2 6 100.69 118.52 6.20 o
5 3 0 366.46 378.65 11.92 o
5 3 1 1.14 0.41 0.49 <
5 3 2 260.46 286.25 6.63 o
5 3 3 4.67 3.97 0.79 o
5 3 4 113.68 120.52 4.49 o
5 3 5 45.97 58.15 3.83 o
5 3 6 38.97 41.99 3.97 o
5 4 1 245.12 193.82 6.73 o
5 4 2 38.27 32.66 2.83 o
5 4 3 216.35 227.42 7.53 o
5 4 4 13.29 13.63 1.50 o
5 4 5 651.67 726.85 14.29 o
5 4 6 3.55 3.74 1.85 o
5 4 7 63.21 71.98 10.15 o
5 5 1 2.75 3.06 2.11 <
5 5 2 202.92 204.89 10.60 o
5 5 3 0.06 0.37 0.80 <
5 5 4 0.76 4.24 4.12 <
5 5 5 14.94 12.97 2.68 o
5 5 6 18.07 16.01 4.06 o
6 0 0 244.48 245.83 8.99 o
6 0 2 0.59 6.90 1.09 o
6 0 4 627.42 592.34 12.73 o
6 0 6 785.85 749.06 22.02 o
6 1 1 95.21 67.34 2.50 o
6 1 2 421.35 430.19 6.88 o
6 1 3 162.11 161.80 4.38 o
6 1 4 89.70 88.34 3.58 o
6 1 5 430.11 451.28 9.97 o
6 1 6 76.03 69.96 4.94 o
6 2 0 2530.42 2446.10 31.66 o
6 2 1 12.54 9.05 1.33 o
6 2 2 766.64 667.84 11.37 o
6 2 3 7.23 6.48 0.99 o
6 2 4 35.06 34.00 2.51 o
6 2 5 17.29 12.67 1.84 o
6 2 6 160.81 188.04 9.53 o
6 3 1 614.21 487.70 10.49 o
6 3 2 261.31 258.61 7.79 o
6 3 3 6.02 5.81 0.99 o
6 3 4 75.71 73.39 4.43 o
6 3 5 76.98 83.67 5.68 o
6 3 6 33.30 41.69 4.72 o
6 4 0 60.42 69.66 5.82 o
6 4 1 0.04 -0.07 0.69 <
6 4 2 22.79 23.83 2.89 o
6 4 3 3.09 3.24 0.81 o
6 4 4 484.78 519.38 12.58 o
6 4 5 7.71 7.81 1.45 o
6 4 6 395.07 431.98 16.64 o
6 5 1 130.35 135.48 9.08 o
6 5 2 22.39 19.44 2.42 o
6 5 3 21.63 22.62 2.58 o
6 5 4 1.36 0.79 0.58 <
6 5 5 0.74 -0.54 1.16 <
6 6 1 76.43 68.71 6.86 o
6 6 2 323.57 304.79 14.08 o
6 6 3 124.30 117.79 9.43 o
6 6 4 66.15 78.24 10.53 o
7 0 1 49.53 51.10 3.26 o
7 0 3 103.37 98.92 5.10 o
7 0 5 296.42 271.24 9.59 o
7 1 0 192.17 178.69 6.37 o
7 1 1 8.54 13.46 1.21 o
7 1 2 131.84 121.35 4.00 o
7 1 3 6.38 6.74 1.10 o
7 1 4 83.68 80.41 4.14 o
7 1 5 9.40 7.69 1.29 o
7 1 6 86.60 81.73 8.90 o
7 2 1 104.98 107.83 4.42 o
7 2 2 250.87 250.25 6.65 o
7 2 3 43.20 47.67 3.12 o
7 2 4 102.57 113.98 6.35 o
7 2 5 8.50 7.83 1.55 o
7 2 6 18.64 20.27 4.56 o
7 3 0 53.18 46.03 4.82 o
7 3 1 6.48 4.02 0.93 o
7 3 2 144.90 144.13 6.00 o
7 3 3 29.38 29.05 2.65 o
7 3 4 243.37 261.80 12.93 o
7 3 5 11.89 17.73 2.57 o
7 3 6 71.87 94.44 11.23 o
7 4 1 104.08 95.08 5.24 o
7 4 2 0.76 0.42 1.36 <
7 4 3 11.73 14.58 1.90 o
7 4 4 2.38 1.66 0.65 o
7 4 5 1.91 0.73 1.38 <
7 4 6 0.49 0.23 0.51 <
7 5 0 206.61 197.57 11.03 o
7 5 1 88.46 88.89 7.40 o
7 5 2 170.92 174.83 10.58 o
7 5 3 193.11 177.56 9.03 o
7 5 4 81.67 75.16 5.69 o
7 5 5 0.42 1.21 1.24 <
7 6 1 409.46 391.99 16.48 o
7 6 2 71.44 73.60 9.54 o
7 6 3 18.24 12.68 4.19 o
8 0 0 692.30 825.82 19.41 o
8 0 2 260.82 278.31 8.35 o
8 0 4 2.93 1.77 1.07 <
8 1 1 119.90 144.01 4.31 o
8 1 2 6.09 3.69 0.64 o
8 1 3 42.13 45.43 3.89 o
8 1 4 24.59 29.17 3.24 o
8 1 5 1.79 1.67 1.00 <
8 1 6 8.35 10.63 3.52 o
8 2 0 61.75 53.06 4.37 o
8 2 1 9.69 8.09 1.16 o
8 2 2 105.57 106.18 4.61 o
8 2 3 38.78 38.60 3.44 o
8 2 4 156.01 156.41 9.00 o
8 2 5 11.23 9.04 1.79 o
8 2 6 81.78 75.44 9.90 o
8 3 1 225.29 200.04 9.04 o
8 3 2 12.84 12.16 1.58 o
8 3 3 13.30 12.40 1.96 o
8 3 4 3.44 4.71 1.43 o
8 3 5 9.53 13.06 4.80 o
8 3 6 2.26 1.06 1.17 <
8 4 0 153.17 111.43 8.35 o
8 4 1 104.67 94.09 5.53 o
8 4 2 174.63 174.07 11.24 o
8 4 3 232.18 242.32 11.89 o
8 4 4 118.39 125.35 7.51 o
8 5 1 1.40 0.20 1.21 <
8 5 2 211.42 226.94 17.41 o
8 5 4 105.49 109.88 6.53 o
9 0 1 7.88 9.70 1.67 o
9 0 3 157.99 167.31 8.18 o
9 1 0 933.78 1036.17 17.67 o
9 1 1 130.58 140.98 4.62 o
9 1 2 307.02 310.57 7.96 o
9 1 3 422.98 432.66 9.65 o
9 1 4 4.20 3.94 1.15 o
9 2 1 172.49 190.71 6.82 o
9 2 2 76.39 77.44 4.54 o
9 2 3 17.21 16.16 2.38 o
9 2 4 11.64 7.56 1.72 o
9 2 5 4.37 2.59 2.17 <
9 3 0 146.21 140.20 9.68 o
9 3 1 153.33 162.94 6.48 o
9 3 2 122.95 121.19 6.62 o
9 3 3 432.75 457.32 14.94 o
9 3 4 70.42 74.43 5.74 o
9 4 1 127.53 108.98 7.23 o
9 4 2 229.56 247.09 19.05 o
9 4 3 0.25 7.90 3.43 o
9 4 4 95.44 97.20 6.51 o
9 5 0 120.17 97.26 12.33 o
9 5 1 72.71 64.71 10.39 o
10 0 0 133.20 155.15 9.99 o
10 0 2 86.33 80.54 6.32 o
10 0 4 42.34 30.55 5.17 o
10 1 1 83.71 91.59 4.52 o
10 1 2 106.32 126.69 5.97 o
10 1 3 10.67 7.79 1.47 o
10 1 4 14.34 14.82 2.14 o
10 2 0 142.86 139.74 9.68 o
10 2 1 207.45 209.81 9.35 o
10 2 2 132.13 131.20 6.98 o
10 2 3 431.71 461.78 15.32 o
10 2 4 73.25 77.11 6.20 o
10 3 1 3.91 4.39 1.28 o
10 3 2 2.21 1.86 1.00 <
10 3 3 60.55 63.29 5.82 o
10 3 4 12.66 10.84 2.17 o
10 4 1 65.26 51.64 8.84 o
10 4 3 174.94 207.42 11.47 o
11 0 1 127.83 167.85 10.51 o
11 0 3 1.65 2.89 1.62 <
11 1 0 101.65 118.06 13.49 o
11 1 1 13.49 15.20 2.55 o
11 1 2 10.09 7.54 1.60 o
11 1 3 27.83 28.05 2.87 o
11 1 4 407.93 419.79 22.46 o
11 2 1 0.34 -1.06 1.35 <
11 2 2 3.95 3.98 1.48 o
11 2 3 12.47 9.67 2.33 o
11 2 4 2.68 0.80 2.26 <
11 3 1 4.86 2.51 3.43 <
11 3 2 127.32 117.13 8.64 o
11 3 3 17.27 17.14 3.43 o
11 3 4 2.22 2.75 2.56 <
11 4 3 50.26 56.28 7.44 o
12 0 2 292.13 282.81 19.00 o
12 1 2 38.84 40.33 4.59 o
12 1 3 8.08 4.42 1.09 o
12 2 2 1.99 3.27 5.39 <
12 2 3 173.58 197.32 11.09 o
12 3 2 1.63 5.45 2.36 o
12 3 3 43.87 46.49 6.94 o
13 0 3 1.42 1.27 0.79 <
13 1 3 0.11 0.21 0.70 <
