#------------------------------------------------------------------------------
#$Date: 2021-04-14 12:49:00 +0300 (Wed, 14 Apr 2021) $
#$Revision: 264146 $
#$URL: file:///home/coder/svn-repositories/cod/cif/1/56/17/1561751.cif $
#------------------------------------------------------------------------------
#
# This file is available in the Crystallography Open Database (COD),
# http://www.crystallography.net/
#
# All data on this site have been placed in the public domain by the
# contributors.
#
data_1561751
loop_
_publ_author_name
'Bykova, E.'
'Gou, H.'
'Bykov, M.'
'Hanfland, M.'
'Dubrovinsky, L.'
'Dubrovinskaia, N.'
_publ_section_title
;
 Crystal structures and compressibility of novel iron borides Fe2B7 and Fe
 B50 synthesized at high pressure and high temperature
;
_journal_name_full               'Journal of Solid State Chemistry'
_journal_page_first              102
_journal_page_last               109
_journal_paper_doi               10.1016/j.jssc.2015.06.040
_journal_volume                  230
_journal_year                    2015
_chemical_absolute_configuration .
_chemical_formula_moiety         'B50 Fe1.324'
_chemical_formula_sum            'B50 Fe1.324'
_chemical_formula_weight         614.4
_chemical_name_common            'Iron Boron (1.324/50)'
_chemical_name_systematic        'Iron Boron (1.324/50)'
_space_group_IT_number           134
_space_group_name_Hall           '-P 4ac 2bc'
_space_group_name_H-M_alt        'P 42/n n m :2'
_symmetry_cell_setting           tetragonal
_symmetry_Int_Tables_number      134
_symmetry_space_group_name_Hall  '-P 4ac 2bc'
_symmetry_space_group_name_H-M   'P 42/n n m :2'
_cell_angle_alpha                90
_cell_angle_beta                 90
_cell_angle_gamma                90
_cell_formula_units_Z            1
_cell_length_a                   8.6397(3)
_cell_length_b                   8.6397(3)
_cell_length_c                   4.8800(3)
_cell_measurement_reflns_used    253
_cell_measurement_temperature    293
_cell_measurement_theta_max      18.38
_cell_measurement_theta_min      2.8
_cell_volume                     364.26(3)
_computing_cell_refinement
;
CrysAlisPro, Agilent Technologies,
Version 1.171.37.35 (release 13-08-2014 CrysAlis171 .NET)
(compiled Aug 13 2014,18:06:01)
;
_computing_data_collection
;
CrysAlisPro, Agilent Technologies,
Version 1.171.37.35 (release 13-08-2014 CrysAlis171 .NET)
(compiled Aug 13 2014,18:06:01)
;
_computing_data_reduction
;
CrysAlisPro, Agilent Technologies,
Version 1.171.37.35 (release 13-08-2014 CrysAlis171 .NET)
(compiled Aug 13 2014,18:06:01)
;
_computing_structure_refinement  'Jana2006 (Petricek, 2014)'
_computing_structure_solution    'SHELXS-2013 (Sheldrick, 2013)'
_diffrn_ambient_pressure         27500000
_diffrn_ambient_temperature      293
_diffrn_detector                 'MAR555 flatpanel detector'
_diffrn_measured_fraction_theta_full 0.94
_diffrn_measured_fraction_theta_max 0.66
_diffrn_measurement_device
;
customized omega-circle diffractometer
;
_diffrn_measurement_device_type  'ESRF, beamline ID09A diffractometer'
_diffrn_measurement_method       '\w scans'
_diffrn_radiation_monochromator  synchrotron
_diffrn_radiation_probe          x-ray
_diffrn_radiation_source         synchrotron
_diffrn_radiation_type           synchrotron
_diffrn_radiation_wavelength     0.41409
_diffrn_reflns_av_R_equivalents  0.0936
_diffrn_reflns_av_unetI/netI     0.0581
_diffrn_reflns_limit_h_max       11
_diffrn_reflns_limit_h_min       -12
_diffrn_reflns_limit_k_max       8
_diffrn_reflns_limit_k_min       -6
_diffrn_reflns_limit_l_max       7
_diffrn_reflns_limit_l_min       -6
_diffrn_reflns_number            765
_diffrn_reflns_theta_full        13.95
_diffrn_reflns_theta_max         19.51
_diffrn_reflns_theta_min         2.75
_diffrn_source                   synchrotron
_exptl_absorpt_coefficient_mu    0.315
_exptl_absorpt_correction_T_max  1
_exptl_absorpt_correction_T_min  0.115
_exptl_absorpt_correction_type   multi-scan
_exptl_absorpt_process_details
;
CrysAlisPro, Agilent Technologies,
Version 1.171.37.35 (release 13-08-2014 CrysAlis171 .NET)
(compiled Aug 13 2014,18:06:01)
Empirical absorption correction using spherical harmonics,
 implemented in SCALE3 ABSPACK scaling algorithm.
;
_exptl_crystal_colour            black
_exptl_crystal_density_diffrn    2.8001
_exptl_crystal_description       plate
_exptl_crystal_F_000             284
_exptl_crystal_size_max          0.020
_exptl_crystal_size_mid          0.010
_exptl_crystal_size_min          0.005
_refine_diff_density_max         1.15
_refine_diff_density_min         -0.67
_refine_ls_extinction_method     none
_refine_ls_goodness_of_fit_gt    2.79
_refine_ls_goodness_of_fit_ref   2.53
_refine_ls_number_constraints    0
_refine_ls_number_parameters     18
_refine_ls_number_reflns         283
_refine_ls_number_restraints     0
_refine_ls_R_factor_all          0.1017
_refine_ls_R_factor_gt           0.0900
_refine_ls_shift/su_max          0.0001
_refine_ls_shift/su_mean         0.0000
_refine_ls_structure_factor_coef Fsqd
_refine_ls_weighting_details     w=1/(\s^2^(I)+0.0004I^2^)
_refine_ls_weighting_scheme      sigma
_refine_ls_wR_factor_gt          0.1773
_refine_ls_wR_factor_ref         0.1819
_reflns_number_gt                225
_reflns_number_total             283
_reflns_threshold_expression     I>2\s(I)
_cod_data_source_file            fe1.32B50_27.5GPa.cif
_cod_data_source_block           Fe1.3B50_27.5GPa
_cod_depositor_comments
;
The following automatic conversions were performed:

data item '_diffrn_radiation_probe' value 'X-ray' was changed to
'x-ray' in accordance with the built-in table derived from the CIF
Core dictionary named 'cif_core.dic' version 2.4.5 last updated on
2014-11-21.

Automatic conversion script
Id: cif_fix_values 8369 2020-08-20 11:38:08Z andrius 
;
_cod_original_sg_symbol_H-M      'P 42/n n m'
_cod_database_code               1561751
loop_
_symmetry_equiv_pos_site_id
_symmetry_equiv_pos_as_xyz
1 x,y,z
2 -x+1/2,-y+1/2,z
3 -y+1/2,x,z+1/2
4 y,-x+1/2,z+1/2
5 -x+1/2,y,-z+1/2
6 x,-y+1/2,-z+1/2
7 y,x,-z
8 -y+1/2,-x+1/2,-z
9 -x,-y,-z
10 x+1/2,y+1/2,-z
11 y+1/2,-x,-z+1/2
12 -y,x+1/2,-z+1/2
13 x+1/2,-y,z+1/2
14 -x,y+1/2,z+1/2
15 -y,-x,z
16 y+1/2,x+1/2,z
loop_
_atom_site_label
_atom_site_type_symbol
_atom_site_fract_x
_atom_site_fract_y
_atom_site_fract_z
_atom_site_adp_type
_atom_site_U_iso_or_equiv
_atom_site_site_symmetry_multiplicity
_atom_site_occupancy
_atom_site_calc_flag
_atom_site_refinement_flags
_atom_site_disorder_assembly
_atom_site_disorder_group
Fe1 Fe -0.25 0.25 0.25 Uani 0.0207(7) 2 0.6621 d . . .
B4 B -0.0767(5) -0.1598(5) 0.1493(9) Uiso 0.0192(10) 16 1 d . . .
B5 B -0.1697(5) 0.0215(5) 0.1611(8) Uiso 0.0166(10) 16 1 d . . .
B2 B 0.1227(5) -0.1227(5) 0.1395(11) Uiso 0.0200(13) 8 1 d . . .
B3 B 0.0039(5) -0.0039(5) 0.3368(11) Uiso 0.0150(11) 8 1 d . . .
B1 B 0.25 -0.25 0.25 Uiso 0.019(3) 2 1 d . . .
loop_
_atom_site_aniso_label
_atom_site_aniso_type_symbol
_atom_site_aniso_U_11
_atom_site_aniso_U_22
_atom_site_aniso_U_33
_atom_site_aniso_U_12
_atom_site_aniso_U_13
_atom_site_aniso_U_23
Fe1 Fe 0.0159(11) 0.0159(11) 0.0302(13) 0 0 0
loop_
_atom_type_symbol
_atom_type_scat_dispersion_real
_atom_type_scat_dispersion_imag
_atom_type_scat_source
B -0.0003 0.0002 'International Tables Vol C tables 4.2.6.8 and 6.1.1.1'
Fe 0.1988 0.3099 'International Tables Vol C tables 4.2.6.8 and 6.1.1.1'
loop_
_geom_angle_atom_site_label_1
_geom_angle_atom_site_label_2
_geom_angle_atom_site_label_3
_geom_angle_site_symmetry_1
_geom_angle_site_symmetry_2
_geom_angle_site_symmetry_3
_geom_angle
B5 Fe1 B5 . . 2_455 156.56(15)
B5 Fe1 B5 . . 5_455 45.03(16)
B5 Fe1 B5 . . 6_555 142.12(16)
B5 Fe1 B5 . . 11_455 92.36(16)
B5 Fe1 B5 . . 12_555 92.36(16)
B5 Fe1 B5 . . 15_555 50.14(16)
B5 Fe1 B5 . . 16_455 123.95(16)
B5 Fe1 B2 . . 3_455 83.62(16)
B5 Fe1 B2 . . 4_555 115.19(16)
B5 Fe1 B2 . . 7_555 44.25(16)
B5 Fe1 B2 . . 8_455 113.70(16)
B5 Fe1 B1 . . 3_454 78.28(11)
B5 Fe1 B1 . . 3_455 101.72(11)
B5 Fe1 B5 2_455 . 5_455 142.12(16)
B5 Fe1 B5 2_455 . 6_555 45.03(16)
B5 Fe1 B5 2_455 . 11_455 92.36(16)
B5 Fe1 B5 2_455 . 12_555 92.36(16)
B5 Fe1 B5 2_455 . 15_555 123.95(16)
B5 Fe1 B5 2_455 . 16_455 50.14(16)
B5 Fe1 B2 2_455 . 3_455 115.19(16)
B5 Fe1 B2 2_455 . 4_555 83.62(16)
B5 Fe1 B2 2_455 . 7_555 113.70(16)
B5 Fe1 B2 2_455 . 8_455 44.25(16)
B5 Fe1 B1 2_455 . 3_454 78.28(11)
B5 Fe1 B1 2_455 . 3_455 101.72(11)
B5 Fe1 B5 5_455 . 6_555 156.56(15)
B5 Fe1 B5 5_455 . 11_455 50.14(16)
B5 Fe1 B5 5_455 . 12_555 123.95(16)
B5 Fe1 B5 5_455 . 15_555 92.36(16)
B5 Fe1 B5 5_455 . 16_455 92.36(16)
B5 Fe1 B2 5_455 . 3_455 44.25(16)
B5 Fe1 B2 5_455 . 4_555 113.70(16)
B5 Fe1 B2 5_455 . 7_555 83.62(16)
B5 Fe1 B2 5_455 . 8_455 115.19(16)
B5 Fe1 B1 5_455 . 3_454 101.72(11)
B5 Fe1 B1 5_455 . 3_455 78.28(11)
B5 Fe1 B5 6_555 . 11_455 123.95(16)
B5 Fe1 B5 6_555 . 12_555 50.14(16)
B5 Fe1 B5 6_555 . 15_555 92.36(16)
B5 Fe1 B5 6_555 . 16_455 92.36(16)
B5 Fe1 B2 6_555 . 3_455 113.70(16)
B5 Fe1 B2 6_555 . 4_555 44.25(16)
B5 Fe1 B2 6_555 . 7_555 115.19(16)
B5 Fe1 B2 6_555 . 8_455 83.62(16)
B5 Fe1 B1 6_555 . 3_454 101.72(11)
B5 Fe1 B1 6_555 . 3_455 78.28(11)
B5 Fe1 B5 11_455 . 12_555 156.56(15)
B5 Fe1 B5 11_455 . 15_555 142.12(16)
B5 Fe1 B5 11_455 . 16_455 45.03(16)
B5 Fe1 B2 11_455 . 3_455 44.25(16)
B5 Fe1 B2 11_455 . 4_555 113.70(16)
B5 Fe1 B2 11_455 . 7_555 115.19(16)
B5 Fe1 B2 11_455 . 8_455 83.62(16)
B5 Fe1 B1 11_455 . 3_454 101.72(11)
B5 Fe1 B1 11_455 . 3_455 78.28(11)
B5 Fe1 B5 12_555 . 15_555 45.03(16)
B5 Fe1 B5 12_555 . 16_455 142.12(16)
B5 Fe1 B2 12_555 . 3_455 113.70(16)
B5 Fe1 B2 12_555 . 4_555 44.25(16)
B5 Fe1 B2 12_555 . 7_555 83.62(16)
B5 Fe1 B2 12_555 . 8_455 115.19(16)
B5 Fe1 B1 12_555 . 3_454 101.72(11)
B5 Fe1 B1 12_555 . 3_455 78.28(11)
B5 Fe1 B5 15_555 . 16_455 156.56(15)
B5 Fe1 B2 15_555 . 3_455 115.19(16)
B5 Fe1 B2 15_555 . 4_555 83.62(16)
B5 Fe1 B2 15_555 . 7_555 44.25(16)
B5 Fe1 B2 15_555 . 8_455 113.70(16)
B5 Fe1 B1 15_555 . 3_454 78.28(11)
B5 Fe1 B1 15_555 . 3_455 101.72(11)
B5 Fe1 B2 16_455 . 3_455 83.62(16)
B5 Fe1 B2 16_455 . 4_555 115.19(16)
B5 Fe1 B2 16_455 . 7_555 113.70(16)
B5 Fe1 B2 16_455 . 8_455 44.25(16)
B5 Fe1 B1 16_455 . 3_454 78.28(11)
B5 Fe1 B1 16_455 . 3_455 101.72(11)
B2 Fe1 B2 3_455 . 4_555 78.60(16)
B2 Fe1 B2 3_455 . 7_555 126.79(16)
B2 Fe1 B2 3_455 . 8_455 126.79(16)
B2 Fe1 B1 3_455 . 3_454 140.70(12)
B2 Fe1 B1 3_455 . 3_455 39.30(12)
B2 Fe1 B2 4_555 . 7_555 126.79(16)
B2 Fe1 B2 4_555 . 8_455 126.79(16)
B2 Fe1 B1 4_555 . 3_454 140.70(12)
B2 Fe1 B1 4_555 . 3_455 39.30(12)
B2 Fe1 B2 7_555 . 8_455 78.60(16)
B2 Fe1 B1 7_555 . 3_454 39.30(12)
B2 Fe1 B1 7_555 . 3_455 140.70(12)
B2 Fe1 B1 8_455 . 3_454 39.30(12)
B2 Fe1 B1 8_455 . 3_455 140.70(12)
B1 Fe1 B1 3_454 . 3_455 180.0(5)
B4 B4 B4 6_545 . 7_555 141.2(3)
B4 B4 B5 6_545 . . 137.3(3)
B4 B4 B5 6_545 . 7_555 115.0(3)
B4 B4 B2 6_545 . . 99.8(3)
B4 B4 B3 6_545 . . 111.6(3)
B4 B4 B5 7_555 . . 58.9(2)
B4 B4 B5 7_555 . 7_555 60.2(3)
B4 B4 B2 7_555 . . 107.5(3)
B4 B4 B3 7_555 . . 106.0(3)
B5 B4 B5 . . 7_555 107.1(3)
B5 B4 B2 . . . 106.6(3)
B5 B4 B3 . . . 59.1(2)
B5 B4 B2 7_555 . . 60.4(3)
B5 B4 B3 7_555 . . 107.2(3)
B2 B4 B3 . . . 59.2(3)
Fe1 B5 B4 . . . 167.5(3)
Fe1 B5 B4 . . 7_555 130.1(3)
Fe1 B5 B5 . . 5_455 67.5(2)
Fe1 B5 B5 . . 15_555 64.9(2)
Fe1 B5 B2 . . 7_555 77.6(2)
Fe1 B5 B3 . . . 107.2(3)
B4 B5 B4 . . 7_555 61.0(3)
B4 B5 B5 . . 5_455 113.8(3)
B4 B5 B5 . . 15_555 107.8(3)
B4 B5 B2 . . 7_555 108.1(3)
B4 B5 B3 . . . 60.7(3)
B4 B5 B5 7_555 . 5_455 120.3(3)
B4 B5 B5 7_555 . 15_555 108.1(3)
B4 B5 B2 7_555 . 7_555 60.2(3)
B4 B5 B3 7_555 . . 109.0(3)
B5 B5 B5 5_455 . 15_555 126.8(3)
B5 B5 B2 5_455 . 7_555 129.8(3)
B5 B5 B3 5_455 . . 117.9(3)
B5 B5 B2 15_555 . 7_555 58.9(2)
B5 B5 B3 15_555 . . 58.7(2)
B2 B5 B3 7_555 . . 106.0(3)
Fe1 B2 B4 3_554 . . 112.3(3)
Fe1 B2 B4 3_554 . 15_555 112.3(3)
Fe1 B2 B5 3_554 . 7_555 58.2(2)
Fe1 B2 B5 3_554 . 9_555 58.2(2)
Fe1 B2 B3 3_554 . . 162.9(3)
Fe1 B2 B1 3_554 . . 69.82(17)
B4 B2 B4 . . 15_555 111.1(3)
B4 B2 B5 . . 7_555 59.4(3)
B4 B2 B5 . . 9_555 110.0(3)
B4 B2 B3 . . . 60.9(3)
B4 B2 B1 . . . 121.7(3)
B4 B2 B5 15_555 . 7_555 110.0(3)
B4 B2 B5 15_555 . 9_555 59.4(3)
B4 B2 B3 15_555 . . 60.9(3)
B4 B2 B1 15_555 . . 121.7(3)
B5 B2 B5 7_555 . 9_555 62.1(3)
B5 B2 B3 7_555 . . 107.8(3)
B5 B2 B1 7_555 . . 116.8(3)
B5 B2 B3 9_555 . . 107.8(3)
B5 B2 B1 9_555 . . 116.8(3)
B3 B2 B1 . . . 127.3(4)
B4 B3 B4 . . 15_555 109.3(3)
B4 B3 B5 . . . 60.2(3)
B4 B3 B5 . . 15_555 110.6(3)
B4 B3 B2 . . . 59.9(3)
B4 B3 B3 . . 7_556 122.1(3)
B4 B3 B5 15_555 . . 110.6(3)
B4 B3 B5 15_555 . 15_555 60.2(3)
B4 B3 B2 15_555 . . 59.9(3)
B4 B3 B3 15_555 . 7_556 122.1(3)
B5 B3 B5 . . 15_555 62.6(3)
B5 B3 B2 . . . 108.0(4)
B5 B3 B3 . . 7_556 116.8(3)
B5 B3 B2 15_555 . . 108.0(4)
B5 B3 B3 15_555 . 7_556 116.8(3)
B2 B3 B3 . . 7_556 127.0(4)
Fe1 B1 Fe1 3_554 . 3_555 180.0(5)
Fe1 B1 B2 3_554 . . 70.88(18)
Fe1 B1 B2 3_554 . 2_545 70.88(18)
Fe1 B1 B2 3_554 . 5_555 109.12(18)
Fe1 B1 B2 3_554 . 6_545 109.12(18)
Fe1 B1 B2 3_555 . . 109.12(18)
Fe1 B1 B2 3_555 . 2_545 109.12(18)
Fe1 B1 B2 3_555 . 5_555 70.88(18)
Fe1 B1 B2 3_555 . 6_545 70.88(18)
B2 B1 B2 . . 2_545 141.8(3)
B2 B1 B2 . . 5_555 96.2(2)
B2 B1 B2 . . 6_545 96.2(2)
B2 B1 B2 2_545 . 5_555 96.2(2)
B2 B1 B2 2_545 . 6_545 96.2(2)
B2 B1 B2 5_555 . 6_545 141.8(3)
loop_
_geom_bond_atom_site_label_1
_geom_bond_atom_site_label_2
_geom_bond_site_symmetry_1
_geom_bond_site_symmetry_2
_geom_bond_distance
Fe1 B5 . . 2.137(4)
Fe1 B5 . 2_455 2.137(4)
Fe1 B5 . 5_455 2.137(4)
Fe1 B5 . 6_555 2.137(4)
Fe1 B5 . 11_455 2.137(4)
Fe1 B5 . 12_555 2.137(4)
Fe1 B5 . 15_555 2.137(4)
Fe1 B5 . 16_455 2.137(4)
Fe1 B2 . 3_455 2.456(5)
Fe1 B2 . 4_555 2.456(5)
Fe1 B2 . 7_555 2.456(5)
Fe1 B2 . 8_455 2.456(5)
Fe1 B1 . 3_454 2.4400(3)
Fe1 B1 . 3_455 2.4400(3)
B4 B4 . 6_545 1.842(7)
B4 B4 . 7_555 1.776(6)
B4 B5 . . 1.762(6)
B4 B5 . 7_555 1.738(6)
B4 B2 . . 1.753(7)
B4 B3 . . 1.771(7)
B5 B5 . 5_455 1.636(6)
B5 B5 . 15_555 1.811(6)
B5 B2 . 7_555 1.755(7)
B5 B3 . . 1.742(6)
B2 B3 . . 1.742(7)
B2 B1 . . 1.647(5)
B3 B3 . 7_556 1.595(8)
loop_
_refln_index_h
_refln_index_k
_refln_index_l
_refln_F_squared_calc
_refln_F_squared_meas
_refln_F_squared_sigma
_refln_observed_status
1 0 1 499.18 778.96 23.49 o
1 0 3 353.52 325.95 14.22 o
1 0 5 41.35 28.76 6.07 o
1 1 1 604.74 613.31 11.86 o
1 1 2 731.02 701.04 16.78 o
1 1 3 282.73 353.48 18.78 o
1 1 4 221.13 169.04 9.17 o
1 1 5 4.97 1.45 0.94 <
1 1 6 55.35 27.21 4.26 o
1 1 7 40.22 29.84 6.72 o
2 0 0 108.78 82.49 4.89 o
2 0 2 207.60 298.13 14.72 o
2 0 4 594.45 585.19 22.59 o
2 0 6 287.37 275.89 13.47 o
2 1 1 376.70 419.93 7.82 o
2 1 2 4.37 6.82 1.17 o
2 1 3 133.06 151.44 7.51 o
2 1 4 13.43 9.94 2.50 o
2 1 5 37.82 33.60 4.64 o
2 1 6 12.58 11.27 2.93 o
2 1 7 15.23 7.11 3.89 <
2 2 0 455.89 492.64 19.29 o
2 2 1 0.00 0.22 0.24 <
2 2 2 524.45 671.72 18.03 o
2 2 3 1.08 1.59 0.75 o
2 2 4 315.83 413.19 20.24 o
2 2 5 0.91 0.10 1.04 <
2 2 6 70.00 87.40 10.73 o
3 0 1 165.82 124.42 5.72 o
3 0 3 145.55 128.77 11.77 o
3 0 5 79.08 125.14 8.78 o
3 1 0 1080.58 1247.92 22.10 o
3 1 1 976.09 961.19 14.85 o
3 1 2 601.72 576.80 11.35 o
3 1 3 1061.31 1130.93 17.51 o
3 1 4 165.29 199.59 9.31 o
3 1 5 12.36 25.39 3.98 o
3 1 6 33.01 35.57 5.29 o
3 1 7 106.38 90.04 14.61 o
3 2 1 42.69 20.20 2.79 o
3 2 2 16.55 22.80 2.38 o
3 2 3 204.51 187.87 7.57 o
3 2 4 2.35 6.64 1.59 o
3 2 5 134.72 178.66 11.09 o
3 2 6 0.48 0.86 1.02 <
3 2 7 14.02 10.82 4.36 o
3 3 1 451.14 495.07 17.99 o
3 3 2 459.08 537.37 19.19 o
3 3 3 879.58 979.23 25.86 o
3 3 4 97.09 135.44 10.09 o
3 3 5 78.21 167.45 15.12 o
3 3 6 32.90 38.23 6.90 o
4 0 0 344.05 291.04 13.46 o
4 0 2 600.34 645.51 17.74 o
4 0 4 399.07 535.98 25.39 o
4 0 6 18.66 6.89 1.58 o
4 1 1 1259.15 1307.15 17.54 o
4 1 2 59.63 53.82 3.68 o
4 1 3 48.43 56.52 3.88 o
4 1 4 3.79 6.08 1.87 o
4 1 5 17.71 24.23 8.64 o
4 1 6 9.15 3.73 3.94 <
4 1 7 0.05 -0.04 1.27 <
4 2 0 785.78 773.34 23.01 o
4 2 1 0.03 0.03 0.59 <
4 2 2 424.84 442.58 12.27 o
4 2 3 0.17 0.25 0.40 <
4 2 4 113.27 120.16 7.71 o
4 2 5 0.14 0.46 0.72 <
4 2 6 35.23 49.68 6.37 o
4 2 7 0.00 1.19 1.35 <
4 3 1 336.50 321.20 16.00 o
4 3 2 505.74 559.12 14.14 o
4 3 3 137.04 143.89 6.55 o
4 3 4 153.84 227.03 9.87 o
4 3 5 11.66 21.66 3.33 o
4 3 6 15.79 23.67 3.78 o
4 3 7 0.02 1.20 1.77 <
4 4 1 17.45 13.91 4.27 o
4 4 2 521.15 499.15 21.05 o
4 4 3 13.69 19.25 4.06 o
4 4 4 0.37 1.01 0.93 <
4 4 5 5.71 4.94 2.27 o
4 4 6 0.43 1.32 2.02 <
5 0 1 1357.06 1131.34 24.50 o
5 0 3 5.07 2.97 1.94 <
5 0 5 64.44 32.24 5.60 o
5 1 0 485.46 458.66 15.95 o
5 1 1 34.09 42.71 3.42 o
5 1 2 405.00 347.97 9.69 o
5 1 3 43.01 45.95 4.00 o
5 1 4 174.08 185.25 7.69 o
5 1 5 0.25 0.25 0.53 <
5 1 6 23.10 27.37 6.59 o
5 2 1 677.51 639.73 15.11 o
5 2 2 741.41 661.26 18.47 o
5 2 3 89.63 91.82 6.74 o
5 2 4 149.32 205.68 12.91 o
5 2 5 3.06 3.04 2.13 <
5 2 6 48.34 84.46 16.13 o
5 3 0 437.83 411.82 20.42 o
5 3 1 1.84 0.67 1.19 <
5 3 2 296.84 324.12 12.59 o
5 3 3 1.64 1.05 0.59 <
5 3 4 114.90 158.17 9.14 o
5 3 5 20.28 34.43 4.19 o
5 3 6 30.89 59.83 7.58 o
5 3 7 0.93 3.43 3.17 <
5 4 1 92.80 82.88 9.94 o
5 4 2 26.55 27.68 4.82 o
5 4 3 209.49 253.58 10.28 o
5 4 4 8.65 9.02 1.72 o
5 4 6 0.99 2.38 1.41 <
5 5 1 0.25 0.57 2.06 <
5 5 2 212.11 241.15 18.15 o
5 5 3 0.24 0.51 0.74 <
5 5 4 14.50 10.52 3.30 o
5 5 6 17.11 21.55 8.14 o
6 0 0 130.45 100.86 10.12 o
6 0 2 17.27 27.57 4.77 o
6 0 4 520.75 479.36 17.22 o
6 1 1 31.93 16.07 2.28 o
6 1 2 277.06 265.59 9.94 o
6 1 3 185.45 176.35 10.48 o
6 1 4 54.57 47.64 4.27 o
6 1 5 283.61 312.41 12.85 o
6 1 6 19.77 24.06 6.04 o
6 2 0 2442.06 2241.53 46.03 o
6 2 1 10.45 9.79 2.19 o
6 2 2 713.21 638.91 17.41 o
6 2 3 3.28 8.72 2.24 o
6 2 4 11.78 12.15 3.00 o
6 2 5 10.82 4.20 1.14 o
6 2 6 46.67 69.73 11.68 o
6 3 1 605.94 560.48 20.01 o
6 3 2 156.30 164.79 9.12 o
6 3 3 22.39 26.84 3.93 o
6 3 4 28.20 43.73 7.15 o
6 3 5 17.46 33.84 6.31 o
6 3 6 12.94 25.55 7.66 o
6 4 0 9.91 13.85 4.48 o
6 4 1 1.37 0.69 1.39 <
6 4 2 43.71 54.81 8.24 o
6 4 3 5.17 2.52 1.25 o
6 4 4 317.16 459.34 19.58 o
6 4 5 1.42 2.89 1.83 <
6 4 6 176.55 286.85 27.90 o
6 5 1 172.94 152.67 16.61 o
6 5 2 3.37 14.86 4.63 o
6 5 3 37.32 53.50 9.24 o
6 5 4 2.28 0.32 1.02 <
6 5 5 2.52 5.63 2.76 o
6 5 6 4.68 13.91 4.63 o
6 6 2 259.77 310.16 33.74 o
6 6 3 59.15 73.73 11.54 o
6 6 4 54.94 97.23 18.95 o
6 6 5 1.52 4.23 7.34 <
7 0 1 0.56 0.02 0.67 <
7 0 3 100.72 82.66 9.36 o
7 0 5 139.22 148.66 10.09 o
7 1 0 230.71 282.85 15.47 o
7 1 1 3.30 4.30 1.43 o
7 1 2 149.81 162.04 8.96 o
7 1 3 1.06 4.69 1.86 o
7 1 4 77.78 82.56 8.14 o
7 1 5 3.96 2.28 0.85 o
7 2 1 133.05 115.10 7.14 o
7 2 2 160.64 169.71 8.98 o
7 2 3 62.49 49.88 6.32 o
7 2 4 62.64 79.78 6.82 o
7 2 5 13.61 7.25 2.67 o
7 3 0 57.83 53.23 8.12 o
7 3 1 8.97 3.37 1.45 o
7 3 2 148.05 149.83 10.01 o
7 3 3 27.93 25.48 4.65 o
7 3 4 192.47 278.53 16.65 o
7 3 5 5.18 2.98 1.72 <
7 3 6 38.45 70.75 12.62 o
7 4 1 102.26 119.23 13.90 o
7 4 2 6.57 7.02 2.81 o
7 4 3 27.06 26.65 4.89 o
7 4 4 2.16 3.44 1.84 <
7 4 5 10.61 10.43 5.00 o
7 4 6 0.25 -0.94 2.24 <
7 5 0 239.63 186.12 22.09 o
7 5 1 66.75 63.59 10.78 o
7 5 2 158.32 195.70 18.99 o
7 5 3 120.42 157.53 17.06 o
7 5 4 45.50 92.22 12.95 o
7 5 5 0.08 0.82 1.37 <
7 5 6 7.62 7.92 5.01 <
7 6 1 352.92 318.03 26.65 o
7 6 2 50.35 71.03 18.31 o
7 6 3 16.30 23.20 7.00 o
7 6 4 10.40 2.55 2.23 <
8 0 0 549.58 672.98 30.22 o
8 0 2 232.52 239.26 15.04 o
8 0 4 15.38 8.84 3.07 o
8 1 1 131.03 151.66 8.24 o
8 1 2 3.76 2.45 1.17 o
8 1 3 57.73 58.84 6.03 o
8 1 4 10.43 10.91 2.89 o
8 1 5 5.55 3.13 1.68 <
8 2 0 114.54 99.98 10.48 o
8 2 1 7.83 8.19 2.51 o
8 2 2 116.85 129.64 9.29 o
8 2 3 24.55 20.41 3.87 o
8 2 4 90.41 92.33 8.63 o
8 2 5 3.69 7.97 6.61 <
8 3 1 277.29 284.08 13.25 o
8 3 2 12.30 13.05 2.87 o
8 3 3 11.85 9.73 2.89 o
8 3 4 3.30 1.52 1.39 <
8 3 5 3.65 2.99 2.47 <
8 4 0 134.56 98.92 12.58 o
8 4 1 71.09 72.50 8.62 o
8 4 2 143.03 158.59 13.44 o
8 4 3 135.05 115.58 15.85 o
8 4 4 77.85 50.42 8.05 o
8 4 5 0.32 2.38 3.42 <
8 5 1 0.21 7.09 5.81 <
8 5 2 132.31 166.70 26.35 o
8 5 3 33.70 18.49 6.94 o
8 5 4 53.47 55.24 10.82 o
8 6 4 47.50 16.31 5.46 o
9 0 1 0.16 0.61 1.29 <
9 0 3 98.82 108.17 10.86 o
9 0 5 78.57 92.72 11.64 o
9 1 0 744.98 834.06 27.53 o
9 1 1 93.23 97.10 6.95 o
9 1 2 233.18 236.99 11.50 o
9 1 3 242.32 203.28 11.33 o
9 1 4 0.46 0.60 0.99 <
9 1 5 16.65 18.19 5.52 o
9 2 1 169.25 176.88 10.66 o
9 2 2 59.29 52.90 6.27 o
9 2 3 28.94 22.71 4.44 o
9 2 4 5.66 4.95 2.12 o
9 2 5 0.08 1.15 1.69 <
9 3 0 122.58 121.53 14.15 o
9 3 1 111.38 128.26 10.42 o
9 3 2 106.68 108.38 12.97 o
9 3 3 257.38 264.71 17.67 o
9 3 4 53.20 43.98 6.69 o
9 4 1 88.84 120.80 21.90 o
9 4 2 138.21 140.03 15.64 o
9 4 3 6.84 2.06 2.16 <
9 4 4 39.11 29.91 6.67 o
9 5 3 81.96 52.81 12.14 o
10 0 0 61.96 81.41 16.32 o
10 0 2 56.92 65.58 9.57 o
10 0 4 46.80 48.41 10.03 o
10 1 1 84.04 76.04 9.22 o
10 1 2 31.91 40.56 5.56 o
10 1 3 15.73 12.72 3.16 o
10 1 4 4.03 3.40 1.54 o
10 2 0 123.62 113.11 19.23 o
10 2 1 130.32 154.09 14.39 o
10 2 2 97.42 90.85 9.29 o
10 2 3 220.36 245.24 14.33 o
10 2 4 38.80 71.63 16.47 o
10 3 1 0.33 1.04 1.57 <
10 3 2 0.30 1.57 2.47 <
10 3 3 41.52 37.79 7.29 o
10 3 4 5.74 1.49 1.35 <
10 4 2 36.74 31.19 13.00 o
10 4 3 69.16 39.98 11.20 o
10 5 3 12.32 11.60 7.35 <
11 0 3 7.76 6.62 4.39 <
11 1 1 1.68 0.07 0.70 <
11 1 2 11.75 7.62 3.69 o
11 1 3 3.42 2.06 1.04 <
11 1 4 177.91 239.06 14.93 o
11 2 1 3.42 -2.19 5.28 <
11 2 2 4.58 1.97 2.39 <
11 2 3 13.39 7.75 2.59 o
11 2 4 0.63 1.06 1.58 <
11 3 2 76.25 63.67 17.64 o
11 3 3 10.77 0.86 4.07 <
11 4 3 26.33 14.35 6.85 o
11 5 3 0.01 0.91 3.18 <
12 0 4 3.15 2.46 3.01 <
12 1 3 7.88 6.57 5.84 <
