#------------------------------------------------------------------------------
#$Date: 2021-04-14 13:10:28 +0300 (Wed, 14 Apr 2021) $
#$Revision: 264159 $
#$URL: file:///home/coder/svn-repositories/cod/cif/1/56/17/1561764.cif $
#------------------------------------------------------------------------------
#
# This file is available in the Crystallography Open Database (COD),
# http://www.crystallography.net/
#
# All data on this site have been placed in the public domain by the
# contributors.
#
data_1561764
loop_
_publ_author_name
'Bykova, E.'
'Gou, H.'
'Bykov, M.'
'Hanfland, M.'
'Dubrovinsky, L.'
'Dubrovinskaia, N.'
_publ_section_title
;
 Crystal structures and compressibility of novel iron borides Fe2B7 and Fe
 B50 synthesized at high pressure and high temperature
;
_journal_name_full               'Journal of Solid State Chemistry'
_journal_page_first              102
_journal_page_last               109
_journal_paper_doi               10.1016/j.jssc.2015.06.040
_journal_volume                  230
_journal_year                    2015
_chemical_absolute_configuration .
_chemical_compound_source
;
high-pressure high-temperature synthesis
;
_chemical_formula_moiety         'B7 Fe2'
_chemical_formula_sum            'B7 Fe2'
_chemical_formula_weight         187.4
_chemical_name_common            'diiron heptaboride'
_chemical_name_systematic        'diiron heptaboride'
_space_group_IT_number           55
_space_group_name_Hall           '-P 2 2ab'
_space_group_name_H-M_alt        'P b a m'
_symmetry_cell_setting           orthorhombic
_symmetry_Int_Tables_number      55
_symmetry_space_group_name_Hall  '-P 2 2ab'
_symmetry_space_group_name_H-M   'P b a m'
_cell_angle_alpha                90
_cell_angle_beta                 90
_cell_angle_gamma                90
_cell_formula_units_Z            8
_cell_length_a                   16.1899(17)
_cell_length_b                   10.3983(3)
_cell_length_c                   2.76920(10)
_cell_measurement_reflns_used    573
_cell_measurement_temperature    293
_cell_measurement_theta_max      18.6220
_cell_measurement_theta_min      4.5030
_cell_volume                     466.19(5)
_computing_cell_refinement
;
CrysAlisPro, Agilent Technologies,
Version 1.171.37.35 (release 13-08-2014 CrysAlis171 .NET)
(compiled Aug 13 2014,18:06:01)
;
_computing_data_collection
;
CrysAlisPro, Agilent Technologies,
Version 1.171.37.35 (release 13-08-2014 CrysAlis171 .NET)
(compiled Aug 13 2014,18:06:01)
;
_computing_data_reduction
;
CrysAlisPro, Agilent Technologies,
Version 1.171.37.35 (release 13-08-2014 CrysAlis171 .NET)
(compiled Aug 13 2014,18:06:01)
;
_computing_structure_refinement  'Jana2006 (Petricek, 2014)'
_computing_structure_solution    'SHELXS-2013 (Sheldrick, 2013)'
_diffrn_ambient_pressure         37200000
_diffrn_ambient_temperature      293
_diffrn_detector                 'MAR555 flatpanel detector'
_diffrn_measured_fraction_theta_full 0.87
_diffrn_measured_fraction_theta_max 0.5
_diffrn_measurement_device
;
customized omega-circle diffractometer
;
_diffrn_measurement_device_type  'ESRF, beamline ID09A diffractometer'
_diffrn_measurement_method       '\w scans'
_diffrn_radiation_monochromator  synchrotron
_diffrn_radiation_probe          x-ray
_diffrn_radiation_source         synchrotron
_diffrn_radiation_type           synchrotron
_diffrn_radiation_wavelength     0.41441
_diffrn_reflns_av_R_equivalents  0.0354
_diffrn_reflns_av_unetI/netI     0.0288
_diffrn_reflns_limit_h_max       16
_diffrn_reflns_limit_h_min       -16
_diffrn_reflns_limit_k_max       14
_diffrn_reflns_limit_k_min       -15
_diffrn_reflns_limit_l_max       3
_diffrn_reflns_limit_l_min       -3
_diffrn_reflns_number            1760
_diffrn_reflns_theta_full        12.95
_diffrn_reflns_theta_max         19.54
_diffrn_reflns_theta_min         1.86
_diffrn_source                   synchrotron
_exptl_absorpt_coefficient_mu    2.509
_exptl_absorpt_correction_T_max  1.00000
_exptl_absorpt_correction_T_min  0.11015
_exptl_absorpt_correction_type   multi-scan
_exptl_absorpt_process_details
;
CrysAlisPro, Agilent Technologies,
Version 1.171.37.35 (release 13-08-2014 CrysAlis171 .NET)
(compiled Aug 13 2014,18:06:01)
Empirical absorption correction using spherical harmonics,
 implemented in SCALE3 ABSPACK scaling algorithm.
;
_exptl_crystal_colour            black
_exptl_crystal_density_diffrn    5.3373
_exptl_crystal_description       plate
_exptl_crystal_F_000             696
_exptl_crystal_size_max          0.025
_exptl_crystal_size_mid          0.025
_exptl_crystal_size_min          0.005
_refine_diff_density_max         1.28
_refine_diff_density_min         -1.34
_refine_ls_extinction_method     none
_refine_ls_goodness_of_fit_gt    2.25
_refine_ls_goodness_of_fit_ref   2.14
_refine_ls_number_constraints    0
_refine_ls_number_parameters     67
_refine_ls_number_reflns         603
_refine_ls_number_restraints     0
_refine_ls_R_factor_all          0.0510
_refine_ls_R_factor_gt           0.0440
_refine_ls_shift/su_max          0.0003
_refine_ls_shift/su_mean         0.0000
_refine_ls_structure_factor_coef Fsqd
_refine_ls_weighting_details     w=1/(\s^2^(I)+0.0004I^2^)
_refine_ls_weighting_scheme      sigma
_refine_ls_wR_factor_gt          0.0937
_refine_ls_wR_factor_ref         0.0964
_reflns_number_gt                527
_reflns_number_total             603
_reflns_threshold_expression     I>2\s(I)
_cod_data_source_file            Fe2B7_37.2GPa.cif
_cod_data_source_block           Fe2B7_37.2GPa
_cod_depositor_comments
;
The following automatic conversions were performed:

data item '_diffrn_radiation_probe' value 'X-ray' was changed to
'x-ray' in accordance with the built-in table derived from the CIF
Core dictionary named 'cif_core.dic' version 2.4.5 last updated on
2014-11-21.

Automatic conversion script
Id: cif_fix_values 8369 2020-08-20 11:38:08Z andrius 
;
_cod_database_code               1561764
loop_
_symmetry_equiv_pos_site_id
_symmetry_equiv_pos_as_xyz
1 x,y,z
2 -x,-y,z
3 -x+1/2,y+1/2,-z
4 x+1/2,-y+1/2,-z
5 -x,-y,-z
6 x,y,-z
7 x+1/2,-y+1/2,z
8 -x+1/2,y+1/2,z
loop_
_atom_site_label
_atom_site_type_symbol
_atom_site_fract_x
_atom_site_fract_y
_atom_site_fract_z
_atom_site_adp_type
_atom_site_U_iso_or_equiv
_atom_site_site_symmetry_multiplicity
_atom_site_occupancy
_atom_site_calc_flag
_atom_site_refinement_flags
_atom_site_disorder_assembly
_atom_site_disorder_group
Fe1 Fe 0.22067(10) 0.46709(8) 0.5 Uani 0.0062(4) 4 1 d . . .
Fe2 Fe 0.12086(10) 0.17839(8) 0 Uani 0.0054(4) 4 1 d . . .
Fe3 Fe 0.46421(10) 0.10555(8) 0.5 Uani 0.0054(4) 4 1 d . . .
Fe4 Fe 0.39013(10) 0.26667(8) 0 Uani 0.0049(4) 4 1 d . . .
B1 B 0.3687(7) 0.0503(7) 0 Uiso 0.0051(14) 4 1 d . . .
B2 B 0.0476(7) 0.4599(6) 0 Uiso 0.0047(13) 4 1 d . . .
B3 B 0.3025(7) 0.3906(6) 0 Uiso 0.0046(13) 4 1 d . . .
B4 B 0.1389(7) 0.3745(6) 0 Uiso 0.0023(13) 4 1 d . . .
B5 B 0.4436(7) 0.4021(6) 0.5 Uiso 0.0042(13) 4 1 d . . .
B6 B 0.2003(7) 0.0448(7) 0 Uiso 0.0054(14) 4 1 d . . .
B7 B 0.2889(8) 0.2883(7) 0.5 Uiso 0.0064(14) 4 1 d . . .
B8 B 0.0336(8) 0.3048(7) 0 Uiso 0.0069(14) 4 1 d . . .
B9 B 0.3981(7) 0.4764(6) 0 Uiso 0.0024(13) 4 1 d . . .
B10 B 0.0537(7) 0.0588(6) 0.5 Uiso 0.0045(13) 4 1 d . . .
B11 B 0.0169(7) 0.2102(6) 0.5 Uiso 0.0024(13) 4 1 d . . .
B12 B 0.3378(8) 0.1386(6) 0.5 Uiso 0.0050(13) 4 1 d . . .
B13 B 0.2183(8) 0.1439(6) 0.5 Uiso 0.0054(14) 4 1 d . . .
B14 B 0.1807(8) 0.2917(7) 0.5 Uiso 0.0090(15) 4 1 d . . .
loop_
_atom_site_aniso_label
_atom_site_aniso_type_symbol
_atom_site_aniso_U_11
_atom_site_aniso_U_22
_atom_site_aniso_U_33
_atom_site_aniso_U_12
_atom_site_aniso_U_13
_atom_site_aniso_U_23
Fe1 Fe 0.0075(11) 0.0031(4) 0.0080(5) 0.0015(5) 0 0
Fe2 Fe 0.0075(11) 0.0036(4) 0.0052(5) 0.0011(4) 0 0
Fe3 Fe 0.0080(11) 0.0039(4) 0.0042(5) -0.0002(5) 0 0
Fe4 Fe 0.0056(11) 0.0039(4) 0.0051(5) 0.0016(5) 0 0
loop_
_atom_type_symbol
_atom_type_scat_dispersion_real
_atom_type_scat_dispersion_imag
_atom_type_scat_source
B -0.0003 0.0002 'International Tables Vol C tables 4.2.6.8 and 6.1.1.1'
Fe 0.1991 0.3104 'International Tables Vol C tables 4.2.6.8 and 6.1.1.1'
loop_
_geom_angle_atom_site_label_1
_geom_angle_atom_site_label_2
_geom_angle_atom_site_label_3
_geom_angle_site_symmetry_1
_geom_angle_site_symmetry_2
_geom_angle_site_symmetry_3
_geom_angle
Fe1 Fe1 Fe1 1_554 . 1_556 180.0(5)
Fe1 Fe1 B1 1_554 . 3_555 50.61(18)
Fe1 Fe1 B1 1_554 . 3_556 129.39(19)
Fe1 Fe1 B3 1_554 . . 48.1(2)
Fe1 Fe1 B3 1_554 . 1_556 131.9(2)
Fe1 Fe1 B4 1_554 . . 49.77(18)
Fe1 Fe1 B4 1_554 . 1_556 130.23(18)
Fe1 Fe1 B6 1_554 . 3_555 47.5(2)
Fe1 Fe1 B6 1_554 . 3_556 132.5(2)
Fe1 Fe1 B7 1_554 . . 90.00(3)
Fe1 Fe1 B12 1_554 . 3_556 90.00(3)
Fe1 Fe1 B13 1_554 . 3_556 90.00(3)
Fe1 Fe1 B14 1_554 . . 90.00(3)
Fe1 Fe1 B1 1_556 . 3_555 129.39(19)
Fe1 Fe1 B1 1_556 . 3_556 50.61(18)
Fe1 Fe1 B3 1_556 . . 131.9(2)
Fe1 Fe1 B3 1_556 . 1_556 48.1(2)
Fe1 Fe1 B4 1_556 . . 130.23(18)
Fe1 Fe1 B4 1_556 . 1_556 49.77(18)
Fe1 Fe1 B6 1_556 . 3_555 132.5(2)
Fe1 Fe1 B6 1_556 . 3_556 47.5(2)
Fe1 Fe1 B7 1_556 . . 90.00(3)
Fe1 Fe1 B12 1_556 . 3_556 90.00(3)
Fe1 Fe1 B13 1_556 . 3_556 90.00(3)
Fe1 Fe1 B14 1_556 . . 90.00(3)
B1 Fe1 B1 3_555 . 3_556 78.8(3)
B1 Fe1 B3 3_555 . . 98.7(3)
B1 Fe1 B3 3_555 . 1_556 177.5(3)
B1 Fe1 B4 3_555 . . 50.1(3)
B1 Fe1 B4 3_555 . 1_556 100.3(4)
B1 Fe1 B6 3_555 . 3_555 80.2(4)
B1 Fe1 B6 3_555 . 3_556 133.3(3)
B1 Fe1 B7 3_555 . . 132.8(2)
B1 Fe1 B12 3_555 . 3_556 48.6(2)
B1 Fe1 B13 3_555 . 3_556 88.0(3)
B1 Fe1 B14 3_555 . . 98.7(4)
B1 Fe1 B3 3_556 . . 177.5(3)
B1 Fe1 B3 3_556 . 1_556 98.7(3)
B1 Fe1 B4 3_556 . . 100.3(4)
B1 Fe1 B4 3_556 . 1_556 50.1(3)
B1 Fe1 B6 3_556 . 3_555 133.3(3)
B1 Fe1 B6 3_556 . 3_556 80.2(4)
B1 Fe1 B7 3_556 . . 132.8(2)
B1 Fe1 B12 3_556 . 3_556 48.6(2)
B1 Fe1 B13 3_556 . 3_556 88.0(3)
B1 Fe1 B14 3_556 . . 98.7(4)
B3 Fe1 B3 . . 1_556 83.7(3)
B3 Fe1 B4 . . . 77.9(4)
B3 Fe1 B4 . . 1_556 130.8(3)
B3 Fe1 B6 . . 3_555 45.7(3)
B3 Fe1 B6 . . 3_556 101.7(4)
B3 Fe1 B7 . . . 49.0(2)
B3 Fe1 B12 . . 3_556 129.6(2)
B3 Fe1 B13 . . 3_556 92.0(3)
B3 Fe1 B14 . . . 81.5(4)
B3 Fe1 B4 1_556 . . 130.8(3)
B3 Fe1 B4 1_556 . 1_556 77.9(4)
B3 Fe1 B6 1_556 . 3_555 101.7(4)
B3 Fe1 B6 1_556 . 3_556 45.7(3)
B3 Fe1 B7 1_556 . . 49.0(2)
B3 Fe1 B12 1_556 . 3_556 129.6(2)
B3 Fe1 B13 1_556 . 3_556 92.0(3)
B3 Fe1 B14 1_556 . . 81.5(4)
B4 Fe1 B4 . . 1_556 80.5(3)
B4 Fe1 B6 . . 3_555 97.2(3)
B4 Fe1 B6 . . 3_556 176.4(2)
B4 Fe1 B7 . . . 86.0(3)
B4 Fe1 B12 . . 3_556 96.2(3)
B4 Fe1 B13 . . 3_556 133.5(2)
B4 Fe1 B14 . . . 51.0(3)
B4 Fe1 B6 1_556 . 3_555 176.4(2)
B4 Fe1 B6 1_556 . 3_556 97.2(3)
B4 Fe1 B7 1_556 . . 86.0(3)
B4 Fe1 B12 1_556 . 3_556 96.2(3)
B4 Fe1 B13 1_556 . 3_556 133.5(2)
B4 Fe1 B14 1_556 . . 51.0(3)
B6 Fe1 B6 3_555 . 3_556 84.9(3)
B6 Fe1 B7 3_555 . . 91.1(3)
B6 Fe1 B12 3_555 . 3_556 86.8(3)
B6 Fe1 B13 3_555 . 3_556 50.0(2)
B6 Fe1 B14 3_555 . . 125.4(3)
B6 Fe1 B7 3_556 . . 91.1(3)
B6 Fe1 B12 3_556 . 3_556 86.8(3)
B6 Fe1 B13 3_556 . 3_556 50.0(2)
B6 Fe1 B14 3_556 . . 125.4(3)
B7 Fe1 B12 . . 3_556 177.2(4)
B7 Fe1 B13 . . 3_556 121.0(4)
B7 Fe1 B14 . . . 50.3(5)
B12 Fe1 B13 3_556 . 3_556 56.2(5)
B12 Fe1 B14 3_556 . . 132.5(5)
B13 Fe1 B14 3_556 . . 171.3(5)
Fe2 Fe2 Fe2 1_554 . 1_556 180.0(5)
Fe2 Fe2 B4 1_554 . . 90.00(3)
Fe2 Fe2 B6 1_554 . . 90.00(4)
Fe2 Fe2 B8 1_554 . . 90.00(4)
Fe2 Fe2 B9 1_554 . 3_545 90.00(3)
Fe2 Fe2 B10 1_554 . 1_554 50.02(16)
Fe2 Fe2 B10 1_554 . . 129.98(17)
Fe2 Fe2 B11 1_554 . 1_554 51.09(18)
Fe2 Fe2 B11 1_554 . . 128.91(19)
Fe2 Fe2 B13 1_554 . 1_554 49.4(2)
Fe2 Fe2 B13 1_554 . . 130.6(2)
Fe2 Fe2 B14 1_554 . 1_554 47.76(19)
Fe2 Fe2 B14 1_554 . . 132.2(2)
Fe2 Fe2 B4 1_556 . . 90.00(3)
Fe2 Fe2 B6 1_556 . . 90.00(4)
Fe2 Fe2 B8 1_556 . . 90.00(4)
Fe2 Fe2 B9 1_556 . 3_545 90.00(3)
Fe2 Fe2 B10 1_556 . 1_554 129.98(17)
Fe2 Fe2 B10 1_556 . . 50.02(16)
Fe2 Fe2 B11 1_556 . 1_554 128.91(19)
Fe2 Fe2 B11 1_556 . . 51.09(18)
Fe2 Fe2 B13 1_556 . 1_554 130.6(2)
Fe2 Fe2 B13 1_556 . . 49.4(2)
Fe2 Fe2 B14 1_556 . 1_554 132.2(2)
Fe2 Fe2 B14 1_556 . . 47.76(19)
B4 Fe2 B6 . . . 129.1(4)
B4 Fe2 B8 . . . 55.2(4)
B4 Fe2 B9 . . 3_545 179.8(5)
B4 Fe2 B10 . . 1_554 130.0(2)
B4 Fe2 B10 . . . 130.0(2)
B4 Fe2 B11 . . 1_554 87.7(3)
B4 Fe2 B11 . . . 87.7(3)
B4 Fe2 B13 . . 1_554 93.5(3)
B4 Fe2 B13 . . . 93.5(3)
B4 Fe2 B14 . . 1_554 50.7(2)
B4 Fe2 B14 . . . 50.7(2)
B6 Fe2 B8 . . . 175.7(4)
B6 Fe2 B9 . . 3_545 51.1(4)
B6 Fe2 B10 . . 1_554 85.4(3)
B6 Fe2 B10 . . . 85.4(3)
B6 Fe2 B11 . . 1_554 129.0(2)
B6 Fe2 B11 . . . 129.0(2)
B6 Fe2 B13 . . 1_554 51.2(2)
B6 Fe2 B13 . . . 51.2(2)
B6 Fe2 B14 . . 1_554 95.8(4)
B6 Fe2 B14 . . . 95.8(4)
B8 Fe2 B9 . . 3_545 124.6(4)
B8 Fe2 B10 . . 1_554 91.4(4)
B8 Fe2 B10 . . . 91.4(4)
B8 Fe2 B11 . . 1_554 48.6(2)
B8 Fe2 B11 . . . 48.6(2)
B8 Fe2 B13 . . 1_554 131.1(2)
B8 Fe2 B13 . . . 131.1(2)
B8 Fe2 B14 . . 1_554 87.4(4)
B8 Fe2 B14 . . . 87.4(4)
B9 Fe2 B10 3_545 . 1_554 49.9(2)
B9 Fe2 B10 3_545 . . 49.9(2)
B9 Fe2 B11 3_545 . 1_554 92.2(3)
B9 Fe2 B11 3_545 . . 92.2(3)
B9 Fe2 B13 3_545 . 1_554 86.6(3)
B9 Fe2 B13 3_545 . . 86.6(3)
B9 Fe2 B14 3_545 . 1_554 129.3(2)
B9 Fe2 B14 3_545 . . 129.3(2)
B10 Fe2 B10 1_554 . . 80.0(2)
B10 Fe2 B11 1_554 . 1_554 45.4(3)
B10 Fe2 B11 1_554 . . 96.0(3)
B10 Fe2 B13 1_554 . 1_554 81.9(3)
B10 Fe2 B13 1_554 . . 134.0(3)
B10 Fe2 B14 1_554 . 1_554 97.8(2)
B10 Fe2 B14 1_554 . . 177.4(4)
B10 Fe2 B11 . . 1_554 96.0(3)
B10 Fe2 B11 . . . 45.4(3)
B10 Fe2 B13 . . 1_554 134.0(3)
B10 Fe2 B13 . . . 81.9(3)
B10 Fe2 B14 . . 1_554 177.4(4)
B10 Fe2 B14 . . . 97.8(2)
B11 Fe2 B11 1_554 . . 77.8(3)
B11 Fe2 B13 1_554 . 1_554 100.5(3)
B11 Fe2 B13 1_554 . . 177.9(3)
B11 Fe2 B14 1_554 . 1_554 81.4(4)
B11 Fe2 B14 1_554 . . 134.0(3)
B11 Fe2 B13 . . 1_554 177.9(3)
B11 Fe2 B13 . . . 100.5(3)
B11 Fe2 B14 . . 1_554 134.0(3)
B11 Fe2 B14 . . . 81.4(4)
B13 Fe2 B13 1_554 . . 81.1(3)
B13 Fe2 B14 1_554 . 1_554 46.4(3)
B13 Fe2 B14 1_554 . . 100.7(4)
B13 Fe2 B14 . . 1_554 100.7(4)
B13 Fe2 B14 . . . 46.4(3)
B14 Fe2 B14 1_554 . . 84.5(3)
Fe3 Fe3 Fe3 1_554 . 1_556 180.0(5)
Fe3 Fe3 Fe3 1_554 . 2_655 90.00(3)
Fe3 Fe3 Fe4 1_554 . . 56.10(3)
Fe3 Fe3 Fe4 1_554 . 1_556 123.90(5)
Fe3 Fe3 B1 1_554 . . 50.0(2)
Fe3 Fe3 B1 1_554 . 1_556 130.0(2)
Fe3 Fe3 B2 1_554 . 3_545 47.79(13)
Fe3 Fe3 B2 1_554 . 3_546 132.21(13)
Fe3 Fe3 B2 1_554 . 4_555 47.5(2)
Fe3 Fe3 B2 1_554 . 4_556 132.5(2)
Fe3 Fe3 B8 1_554 . 4_555 46.5(2)
Fe3 Fe3 B8 1_554 . 4_556 133.5(2)
Fe3 Fe3 B11 1_554 . 4_556 90.00(3)
Fe3 Fe3 B12 1_554 . . 90.00(5)
Fe3 Fe3 Fe3 1_556 . 2_655 90.00(3)
Fe3 Fe3 Fe4 1_556 . . 123.90(5)
Fe3 Fe3 Fe4 1_556 . 1_556 56.10(3)
Fe3 Fe3 B1 1_556 . . 130.0(2)
Fe3 Fe3 B1 1_556 . 1_556 50.0(2)
Fe3 Fe3 B2 1_556 . 3_545 132.21(13)
Fe3 Fe3 B2 1_556 . 3_546 47.79(13)
Fe3 Fe3 B2 1_556 . 4_555 132.5(2)
Fe3 Fe3 B2 1_556 . 4_556 47.5(2)
Fe3 Fe3 B8 1_556 . 4_555 133.5(2)
Fe3 Fe3 B8 1_556 . 4_556 46.5(2)
Fe3 Fe3 B11 1_556 . 4_556 90.00(3)
Fe3 Fe3 B12 1_556 . . 90.00(5)
Fe3 Fe3 Fe4 2_655 . . 145.325(19)
Fe3 Fe3 Fe4 2_655 . 1_556 145.325(19)
Fe3 Fe3 B1 2_655 . . 95.7(2)
Fe3 Fe3 B1 2_655 . 1_556 95.7(2)
Fe3 Fe3 B2 2_655 . 3_545 52.7(2)
Fe3 Fe3 B2 2_655 . 3_546 52.7(2)
Fe3 Fe3 B2 2_655 . 4_555 53.06(16)
Fe3 Fe3 B2 2_655 . 4_556 53.06(16)
Fe3 Fe3 B8 2_655 . 4_555 98.6(3)
Fe3 Fe3 B8 2_655 . 4_556 98.6(3)
Fe3 Fe3 B11 2_655 . 4_556 128.2(3)
Fe3 Fe3 B12 2_655 . . 127.4(2)
Fe4 Fe3 Fe4 . . 1_556 67.80(4)
Fe4 Fe3 B1 . . . 58.29(19)
Fe4 Fe3 B1 . . 1_556 101.0(2)
Fe4 Fe3 B2 . . 3_545 94.4(2)
Fe4 Fe3 B2 . . 3_546 145.7(3)
Fe4 Fe3 B2 . . 4_555 99.52(17)
Fe4 Fe3 B2 . . 4_556 156.8(2)
Fe4 Fe3 B8 . . 4_555 64.7(3)
Fe4 Fe3 B8 . . 4_556 109.9(2)
Fe4 Fe3 B11 . . 4_556 65.2(2)
Fe4 Fe3 B12 . . . 53.97(14)
Fe4 Fe3 B1 1_556 . . 101.0(2)
Fe4 Fe3 B1 1_556 . 1_556 58.29(19)
Fe4 Fe3 B2 1_556 . 3_545 145.7(3)
Fe4 Fe3 B2 1_556 . 3_546 94.4(2)
Fe4 Fe3 B2 1_556 . 4_555 156.8(2)
Fe4 Fe3 B2 1_556 . 4_556 99.52(17)
Fe4 Fe3 B8 1_556 . 4_555 109.9(2)
Fe4 Fe3 B8 1_556 . 4_556 64.7(3)
Fe4 Fe3 B11 1_556 . 4_556 65.2(2)
Fe4 Fe3 B12 1_556 . . 53.97(14)
B1 Fe3 B1 . . 1_556 80.0(3)
B1 Fe3 B2 . . 3_545 46.0(4)
B1 Fe3 B2 . . 3_546 99.8(3)
B1 Fe3 B2 . . 4_555 87.1(3)
B1 Fe3 B2 . . 4_556 144.9(3)
B1 Fe3 B8 . . 4_555 94.7(3)
B1 Fe3 B8 . . 4_556 165.2(4)
B1 Fe3 B11 . . 4_556 122.4(3)
B1 Fe3 B12 . . . 48.4(3)
B1 Fe3 B2 1_556 . 3_545 99.8(3)
B1 Fe3 B2 1_556 . 3_546 46.0(4)
B1 Fe3 B2 1_556 . 4_555 144.9(3)
B1 Fe3 B2 1_556 . 4_556 87.1(3)
B1 Fe3 B8 1_556 . 4_555 165.2(4)
B1 Fe3 B8 1_556 . 4_556 94.7(3)
B1 Fe3 B11 1_556 . 4_556 122.4(3)
B1 Fe3 B12 1_556 . . 48.4(3)
B2 Fe3 B2 3_545 . 3_546 84.42(18)
B2 Fe3 B2 3_545 . 4_555 50.4(4)
B2 Fe3 B2 3_545 . 4_556 105.7(3)
B2 Fe3 B8 3_545 . 4_555 86.0(3)
B2 Fe3 B8 3_545 . 4_556 148.7(4)
B2 Fe3 B11 3_545 . 4_556 135.2(2)
B2 Fe3 B12 3_545 . . 91.7(4)
B2 Fe3 B2 3_546 . 4_555 105.7(3)
B2 Fe3 B2 3_546 . 4_556 50.4(4)
B2 Fe3 B8 3_546 . 4_555 148.7(4)
B2 Fe3 B8 3_546 . 4_556 86.0(3)
B2 Fe3 B11 3_546 . 4_556 135.2(2)
B2 Fe3 B12 3_546 . . 91.7(4)
B2 Fe3 B2 4_555 . 4_556 85.0(3)
B2 Fe3 B8 4_555 . 4_555 47.3(3)
B2 Fe3 B8 4_555 . 4_556 104.5(4)
B2 Fe3 B11 4_555 . 4_556 92.0(3)
B2 Fe3 B12 4_555 . . 134.8(3)
B2 Fe3 B8 4_556 . 4_555 104.5(4)
B2 Fe3 B8 4_556 . 4_556 47.3(3)
B2 Fe3 B11 4_556 . 4_556 92.0(3)
B2 Fe3 B12 4_556 . . 134.8(3)
B8 Fe3 B8 4_555 . 4_556 87.0(3)
B8 Fe3 B11 4_555 . 4_556 49.4(2)
B8 Fe3 B12 4_555 . . 118.3(3)
B8 Fe3 B11 4_556 . 4_556 49.4(2)
B8 Fe3 B12 4_556 . . 118.3(3)
B11 Fe3 B12 4_556 . . 104.5(3)
Fe3 Fe4 Fe3 1_554 . . 67.80(4)
Fe3 Fe4 Fe4 1_554 . 1_554 56.10(3)
Fe3 Fe4 Fe4 1_554 . 1_556 123.90(5)
Fe3 Fe4 B1 1_554 . . 53.6(2)
Fe3 Fe4 B3 1_554 . . 144.24(9)
Fe3 Fe4 B5 1_554 . 1_554 83.6(2)
Fe3 Fe4 B5 1_554 . . 127.2(3)
Fe3 Fe4 B7 1_554 . 1_554 94.55(19)
Fe3 Fe4 B7 1_554 . . 142.7(2)
Fe3 Fe4 B9 1_554 . . 130.2(2)
Fe3 Fe4 B12 1_554 . 1_554 53.1(3)
Fe3 Fe4 B12 1_554 . . 97.7(2)
Fe3 Fe4 Fe4 . . 1_554 123.90(5)
Fe3 Fe4 Fe4 . . 1_556 56.10(3)
Fe3 Fe4 B1 . . . 53.6(2)
Fe3 Fe4 B3 . . . 144.24(9)
Fe3 Fe4 B5 . . 1_554 127.2(3)
Fe3 Fe4 B5 . . . 83.6(2)
Fe3 Fe4 B7 . . 1_554 142.7(2)
Fe3 Fe4 B7 . . . 94.55(19)
Fe3 Fe4 B9 . . . 130.2(2)
Fe3 Fe4 B12 . . 1_554 97.7(2)
Fe3 Fe4 B12 . . . 53.1(3)
Fe4 Fe4 Fe4 1_554 . 1_556 180.0(5)
Fe4 Fe4 B1 1_554 . . 90.00(3)
Fe4 Fe4 B3 1_554 . . 90.00(4)
Fe4 Fe4 B5 1_554 . 1_554 50.06(15)
Fe4 Fe4 B5 1_554 . . 129.94(15)
Fe4 Fe4 B7 1_554 . 1_554 50.1(2)
Fe4 Fe4 B7 1_554 . . 129.9(2)
Fe4 Fe4 B9 1_554 . . 90.00(3)
Fe4 Fe4 B12 1_554 . 1_554 48.75(16)
Fe4 Fe4 B12 1_554 . . 131.25(16)
Fe4 Fe4 B1 1_556 . . 90.00(3)
Fe4 Fe4 B3 1_556 . . 90.00(4)
Fe4 Fe4 B5 1_556 . 1_554 129.94(15)
Fe4 Fe4 B5 1_556 . . 50.06(15)
Fe4 Fe4 B7 1_556 . 1_554 129.9(2)
Fe4 Fe4 B7 1_556 . . 50.1(2)
Fe4 Fe4 B9 1_556 . . 90.00(3)
Fe4 Fe4 B12 1_556 . 1_554 131.25(16)
Fe4 Fe4 B12 1_556 . . 48.75(16)
B1 Fe4 B3 . . . 123.5(4)
B1 Fe4 B5 . . 1_554 134.97(19)
B1 Fe4 B5 . . . 134.97(19)
B1 Fe4 B7 . . 1_554 89.3(3)
B1 Fe4 B7 . . . 89.3(3)
B1 Fe4 B9 . . . 174.6(4)
B1 Fe4 B12 . . 1_554 46.49(19)
B1 Fe4 B12 . . . 46.49(19)
B3 Fe4 B5 . . 1_554 81.8(4)
B3 Fe4 B5 . . . 81.8(4)
B3 Fe4 B7 . . 1_554 50.8(2)
B3 Fe4 B7 . . . 50.8(2)
B3 Fe4 B9 . . . 51.1(4)
B3 Fe4 B12 . . 1_554 97.3(4)
B3 Fe4 B12 . . . 97.3(4)
B5 Fe4 B5 1_554 . . 79.9(2)
B5 Fe4 B7 1_554 . 1_554 79.9(3)
B5 Fe4 B7 1_554 . . 130.5(3)
B5 Fe4 B9 1_554 . . 47.5(2)
B5 Fe4 B12 1_554 . 1_554 98.8(2)
B5 Fe4 B12 1_554 . . 178.53(19)
B5 Fe4 B7 . . 1_554 130.5(3)
B5 Fe4 B7 . . . 79.9(3)
B5 Fe4 B9 . . . 47.5(2)
B5 Fe4 B12 . . 1_554 178.53(19)
B5 Fe4 B12 . . . 98.8(2)
B7 Fe4 B7 1_554 . . 79.9(3)
B7 Fe4 B9 1_554 . . 86.6(3)
B7 Fe4 B12 1_554 . 1_554 48.4(3)
B7 Fe4 B12 1_554 . . 100.5(4)
B7 Fe4 B9 . . . 86.6(3)
B7 Fe4 B12 . . 1_554 100.5(4)
B7 Fe4 B12 . . . 48.4(3)
B9 Fe4 B12 . . 1_554 131.1(2)
B9 Fe4 B12 . . . 131.1(2)
B12 Fe4 B12 1_554 . . 82.5(2)
Fe1 B1 Fe1 3_545 . 3_546 78.8(4)
Fe1 B1 Fe3 3_545 . 1_554 100.02(5)
Fe1 B1 Fe3 3_545 . . 171.9(4)
Fe1 B1 Fe4 3_545 . . 119.6(3)
Fe1 B1 B2 3_545 . 3_545 108.6(4)
Fe1 B1 B4 3_545 . 3_545 63.9(4)
Fe1 B1 B12 3_545 . 1_554 60.8(4)
Fe1 B1 B12 3_545 . . 121.7(7)
Fe1 B1 Fe3 3_546 . 1_554 171.9(4)
Fe1 B1 Fe3 3_546 . . 100.02(5)
Fe1 B1 Fe4 3_546 . . 119.6(3)
Fe1 B1 B2 3_546 . 3_545 108.6(4)
Fe1 B1 B4 3_546 . 3_545 63.9(4)
Fe1 B1 B12 3_546 . 1_554 121.7(7)
Fe1 B1 B12 3_546 . . 60.8(4)
Fe3 B1 Fe3 1_554 . . 80.0(4)
Fe3 B1 Fe4 1_554 . . 68.1(2)
Fe3 B1 B2 1_554 . 3_545 64.0(4)
Fe3 B1 B4 1_554 . 3_545 108.3(5)
Fe3 B1 B12 1_554 . 1_554 63.4(4)
Fe3 B1 B12 1_554 . . 125.4(5)
Fe3 B1 Fe4 . . . 68.1(2)
Fe3 B1 B2 . . 3_545 64.0(4)
Fe3 B1 B4 . . 3_545 108.3(5)
Fe3 B1 B12 . . 1_554 125.4(5)
Fe3 B1 B12 . . . 63.4(4)
Fe4 B1 B2 . . 3_545 116.0(6)
Fe4 B1 B4 . . 3_545 175.1(8)
Fe4 B1 B12 . . 1_554 61.4(3)
Fe4 B1 B12 . . . 61.4(3)
B2 B1 B4 3_545 . 3_545 59.1(5)
B2 B1 B12 3_545 . 1_554 122.6(5)
B2 B1 B12 3_545 . . 122.6(5)
B4 B1 B12 3_545 . 1_554 120.6(4)
B4 B1 B12 3_545 . . 120.6(4)
B12 B1 B12 1_554 . . 105.9(5)
Fe3 B2 Fe3 3_555 . 3_556 84.4(2)
Fe3 B2 Fe3 3_555 . 4_455 74.3(2)
Fe3 B2 Fe3 3_555 . 4_456 129.6(5)
Fe3 B2 B1 3_555 . 3_555 70.0(3)
Fe3 B2 B2 3_555 . 2_565 64.5(3)
Fe3 B2 B4 3_555 . . 117.2(5)
Fe3 B2 B8 3_555 . . 135.6(3)
Fe3 B2 Fe3 3_556 . 4_455 129.6(5)
Fe3 B2 Fe3 3_556 . 4_456 74.3(2)
Fe3 B2 B1 3_556 . 3_555 70.0(3)
Fe3 B2 B2 3_556 . 2_565 64.5(3)
Fe3 B2 B4 3_556 . . 117.2(5)
Fe3 B2 B8 3_556 . . 135.6(3)
Fe3 B2 Fe3 4_455 . 4_456 85.0(4)
Fe3 B2 B1 4_455 . 3_555 136.90(18)
Fe3 B2 B2 4_455 . 2_565 65.1(4)
Fe3 B2 B4 4_455 . . 113.2(3)
Fe3 B2 B8 4_455 . . 65.1(4)
Fe3 B2 B1 4_456 . 3_555 136.90(18)
Fe3 B2 B2 4_456 . 2_565 65.1(4)
Fe3 B2 B4 4_456 . . 113.2(3)
Fe3 B2 B8 4_456 . . 65.1(4)
B1 B2 B2 3_555 . 2_565 116.8(6)
B1 B2 B4 3_555 . . 65.7(6)
B1 B2 B8 3_555 . . 132.8(9)
B2 B2 B4 2_565 . . 177.5(7)
B2 B2 B8 2_565 . . 110.4(8)
B4 B2 B8 . . . 67.0(6)
Fe1 B3 Fe1 1_554 . . 83.7(4)
Fe1 B3 Fe4 1_554 . . 136.92(16)
Fe1 B3 B6 1_554 . 3_555 66.4(4)
Fe1 B3 B7 1_554 . 1_554 68.1(4)
Fe1 B3 B7 1_554 . . 132.6(8)
Fe1 B3 B9 1_554 . . 111.2(3)
Fe1 B3 Fe4 . . . 136.92(16)
Fe1 B3 B6 . . 3_555 66.4(4)
Fe1 B3 B7 . . 1_554 132.6(8)
Fe1 B3 B7 . . . 68.1(4)
Fe1 B3 B9 . . . 111.2(3)
Fe4 B3 B6 . . 3_555 133.9(8)
Fe4 B3 B7 . . 1_554 71.7(4)
Fe4 B3 B7 . . . 71.7(4)
Fe4 B3 B9 . . . 72.2(5)
B6 B3 B7 3_555 . 1_554 126.9(3)
B6 B3 B7 3_555 . . 126.9(3)
B6 B3 B9 3_555 . . 61.6(6)
B7 B3 B7 1_554 . . 103.8(4)
B7 B3 B9 1_554 . . 114.2(6)
B7 B3 B9 . . . 114.2(6)
Fe1 B4 Fe1 1_554 . . 80.5(3)
Fe1 B4 Fe2 1_554 . . 122.1(3)
Fe1 B4 B1 1_554 . 3_555 66.0(3)
Fe1 B4 B2 1_554 . . 107.3(3)
Fe1 B4 B8 1_554 . . 138.1(3)
Fe1 B4 B14 1_554 . 1_554 58.4(4)
Fe1 B4 B14 1_554 . . 119.3(7)
Fe1 B4 Fe2 . . . 122.1(3)
Fe1 B4 B1 . . 3_555 66.0(3)
Fe1 B4 B2 . . . 107.3(3)
Fe1 B4 B8 . . . 138.1(3)
Fe1 B4 B14 . . 1_554 119.3(7)
Fe1 B4 B14 . . . 58.4(4)
Fe2 B4 B1 . . 3_555 168.0(8)
Fe2 B4 B2 . . . 112.8(6)
Fe2 B4 B8 . . . 58.8(3)
Fe2 B4 B14 . . 1_554 64.6(3)
Fe2 B4 B14 . . . 64.6(3)
B1 B4 B2 3_555 . . 55.2(5)
B1 B4 B8 3_555 . . 109.2(7)
B1 B4 B14 3_555 . 1_554 120.8(4)
B1 B4 B14 3_555 . . 120.8(4)
B2 B4 B8 . . . 54.0(5)
B2 B4 B14 . . 1_554 125.4(5)
B2 B4 B14 . . . 125.4(5)
B8 B4 B14 . . 1_554 99.3(5)
B8 B4 B14 . . . 99.3(5)
B14 B4 B14 1_554 . . 103.3(6)
Fe4 B5 Fe4 . . 1_556 79.9(3)
Fe4 B5 B9 . . . 67.1(3)
Fe4 B5 B9 . . 1_556 128.9(7)
Fe4 B5 B10 . . 3_556 131.6(4)
Fe4 B5 B10 . . 4_556 122.5(4)
Fe4 B5 B11 . . 4_556 80.1(3)
Fe4 B5 B9 1_556 . . 128.9(7)
Fe4 B5 B9 1_556 . 1_556 67.1(3)
Fe4 B5 B10 1_556 . 3_556 131.6(4)
Fe4 B5 B10 1_556 . 4_556 122.5(4)
Fe4 B5 B11 1_556 . 4_556 80.1(3)
B9 B5 B9 . . 1_556 104.7(6)
B9 B5 B10 . . 3_556 64.5(4)
B9 B5 B10 . . 4_556 108.3(5)
B9 B5 B11 . . 4_556 127.6(4)
B9 B5 B10 1_556 . 3_556 64.5(4)
B9 B5 B10 1_556 . 4_556 108.3(5)
B9 B5 B11 1_556 . 4_556 127.6(4)
B10 B5 B10 3_556 . 4_556 75.7(6)
B10 B5 B11 3_556 . 4_556 133.1(9)
B10 B5 B11 4_556 . 4_556 57.4(5)
Fe1 B6 Fe1 3_545 . 3_546 84.9(4)
Fe1 B6 Fe2 3_545 . . 135.46(17)
Fe1 B6 B3 3_545 . 3_545 67.9(4)
Fe1 B6 B9 3_545 . 3_545 114.2(3)
Fe1 B6 B13 3_545 . 1_554 66.1(4)
Fe1 B6 B13 3_545 . . 131.4(8)
Fe1 B6 Fe2 3_546 . . 135.46(17)
Fe1 B6 B3 3_546 . 3_545 67.9(4)
Fe1 B6 B9 3_546 . 3_545 114.2(3)
Fe1 B6 B13 3_546 . 1_554 131.4(8)
Fe1 B6 B13 3_546 . . 66.1(4)
Fe2 B6 B3 . . 3_545 135.6(8)
Fe2 B6 B9 . . 3_545 71.3(5)
Fe2 B6 B13 . . 1_554 71.4(4)
Fe2 B6 B13 . . . 71.4(4)
B3 B6 B9 3_545 . 3_545 64.4(6)
B3 B6 B13 3_545 . 1_554 126.4(3)
B3 B6 B13 3_545 . . 126.4(3)
B9 B6 B13 3_545 . 1_554 113.1(6)
B9 B6 B13 3_545 . . 113.1(6)
B13 B6 B13 1_554 . . 104.5(5)
Fe1 B7 Fe4 . . . 118.5(3)
Fe1 B7 Fe4 . . 1_556 118.5(3)
Fe1 B7 B3 . . . 62.9(4)
Fe1 B7 B3 . . 1_556 62.9(4)
Fe1 B7 B12 . . . 176.2(8)
Fe1 B7 B14 . . . 58.1(4)
Fe4 B7 Fe4 . . 1_556 79.9(4)
Fe4 B7 B3 . . . 57.5(4)
Fe4 B7 B3 . . 1_556 118.2(7)
Fe4 B7 B12 . . . 64.1(4)
Fe4 B7 B14 . . . 139.6(2)
Fe4 B7 B3 1_556 . . 118.2(7)
Fe4 B7 B3 1_556 . 1_556 57.5(4)
Fe4 B7 B12 1_556 . . 64.1(4)
Fe4 B7 B14 1_556 . . 139.6(2)
B3 B7 B3 . . 1_556 103.8(4)
B3 B7 B12 . . . 118.8(5)
B3 B7 B14 . . . 96.5(6)
B3 B7 B12 1_556 . . 118.8(5)
B3 B7 B14 1_556 . . 96.5(6)
B12 B7 B14 . . . 118.1(7)
Fe2 B8 Fe3 . . 4_455 136.40(19)
Fe2 B8 Fe3 . . 4_456 136.40(19)
Fe2 B8 B2 . . . 124.9(8)
Fe2 B8 B4 . . . 65.9(5)
Fe2 B8 B11 . . 1_554 74.1(4)
Fe2 B8 B11 . . . 74.1(4)
Fe3 B8 Fe3 4_455 . 4_456 87.0(4)
Fe3 B8 B2 4_455 . . 67.6(4)
Fe3 B8 B4 4_455 . . 109.4(3)
Fe3 B8 B11 4_455 . 1_554 67.9(3)
Fe3 B8 B11 4_455 . . 137.0(8)
Fe3 B8 B2 4_456 . . 67.6(4)
Fe3 B8 B4 4_456 . . 109.4(3)
Fe3 B8 B11 4_456 . 1_554 137.0(8)
Fe3 B8 B11 4_456 . . 67.9(3)
B2 B8 B4 . . . 59.0(6)
B2 B8 B11 . . 1_554 126.0(3)
B2 B8 B11 . . . 126.0(3)
B4 B8 B11 . . 1_554 111.6(6)
B4 B8 B11 . . . 111.6(6)
B11 B8 B11 1_554 . . 107.2(5)
Fe2 B9 Fe4 3_555 . . 168.3(6)
Fe2 B9 B3 3_555 . . 111.7(6)
Fe2 B9 B5 3_555 . 1_554 119.9(3)
Fe2 B9 B5 3_555 . . 119.9(3)
Fe2 B9 B6 3_555 . 3_555 57.6(3)
Fe2 B9 B10 3_555 . 3_555 66.0(3)
Fe2 B9 B10 3_555 . 3_556 66.0(3)
Fe4 B9 B3 . . . 56.7(3)
Fe4 B9 B5 . . 1_554 65.4(3)
Fe4 B9 B5 . . . 65.4(3)
Fe4 B9 B6 . . 3_555 110.7(6)
Fe4 B9 B10 . . 3_555 120.0(3)
Fe4 B9 B10 . . 3_556 120.0(3)
B3 B9 B5 . . 1_554 98.3(5)
B3 B9 B5 . . . 98.3(5)
B3 B9 B6 . . 3_555 54.0(5)
B3 B9 B10 . . 3_555 127.7(4)
B3 B9 B10 . . 3_556 127.7(4)
B5 B9 B5 1_554 . . 104.7(6)
B5 B9 B6 1_554 . 3_555 124.4(5)
B5 B9 B10 1_554 . 3_555 54.6(3)
B5 B9 B10 1_554 . 3_556 129.4(9)
B5 B9 B6 . . 3_555 124.4(5)
B5 B9 B10 . . 3_555 129.4(9)
B5 B9 B10 . . 3_556 54.6(3)
B6 B9 B10 3_555 . 3_555 101.6(5)
B6 B9 B10 3_555 . 3_556 101.6(5)
B10 B9 B10 3_555 . 3_556 100.1(5)
Fe2 B10 Fe2 . . 1_556 80.0(3)
Fe2 B10 B5 . . 3_546 124.3(5)
Fe2 B10 B5 . . 4_456 111.3(3)
Fe2 B10 B9 . . 3_545 64.1(3)
Fe2 B10 B9 . . 3_546 123.3(7)
Fe2 B10 B11 . . . 68.9(3)
Fe2 B10 B5 1_556 . 3_546 124.3(5)
Fe2 B10 B5 1_556 . 4_456 111.3(3)
Fe2 B10 B9 1_556 . 3_545 123.3(7)
Fe2 B10 B9 1_556 . 3_546 64.1(3)
Fe2 B10 B11 1_556 . . 68.9(3)
B5 B10 B5 3_546 . 4_456 104.3(7)
B5 B10 B9 3_546 . 3_545 60.9(3)
B5 B10 B9 3_546 . 3_546 60.9(3)
B5 B10 B11 3_546 . . 160.7(10)
B5 B10 B9 4_456 . 3_545 121.8(5)
B5 B10 B9 4_456 . 3_546 121.8(5)
B5 B10 B11 4_456 . . 56.4(5)
B9 B10 B9 3_545 . 3_546 100.1(6)
B9 B10 B11 3_545 . . 126.6(3)
B9 B10 B11 3_546 . . 126.6(3)
Fe2 B11 Fe2 . . 1_556 77.8(4)
Fe2 B11 Fe3 . . 4_456 116.6(3)
Fe2 B11 B5 . . 4_456 116.0(3)
Fe2 B11 B8 . . . 57.3(4)
Fe2 B11 B8 . . 1_556 118.1(7)
Fe2 B11 B10 . . . 65.7(4)
Fe2 B11 Fe3 1_556 . 4_456 116.6(3)
Fe2 B11 B5 1_556 . 4_456 116.0(3)
Fe2 B11 B8 1_556 . . 118.1(7)
Fe2 B11 B8 1_556 . 1_556 57.3(4)
Fe2 B11 B10 1_556 . . 65.7(4)
Fe3 B11 B5 4_456 . 4_456 110.6(7)
Fe3 B11 B8 4_456 . . 62.7(3)
Fe3 B11 B8 4_456 . 1_556 62.7(3)
Fe3 B11 B10 4_456 . . 176.8(8)
B5 B11 B8 4_456 . . 120.9(5)
B5 B11 B8 4_456 . 1_556 120.9(5)
B5 B11 B10 4_456 . . 66.2(6)
B8 B11 B8 . . 1_556 107.2(5)
B8 B11 B10 . . . 118.6(5)
B8 B11 B10 1_556 . . 118.6(5)
Fe1 B12 Fe3 3_546 . . 108.4(4)
Fe1 B12 Fe4 3_546 . . 138.55(13)
Fe1 B12 Fe4 3_546 . 1_556 138.55(13)
Fe1 B12 B1 3_546 . . 70.6(4)
Fe1 B12 B1 3_546 . 1_556 70.6(4)
Fe1 B12 B7 3_546 . . 125.1(8)
Fe3 B12 Fe4 . . . 73.0(4)
Fe3 B12 Fe4 . . 1_556 73.0(4)
Fe3 B12 B1 . . . 68.2(5)
Fe3 B12 B1 . . 1_556 68.2(5)
Fe3 B12 B7 . . . 126.5(6)
Fe4 B12 Fe4 . . 1_556 82.5(3)
Fe4 B12 B1 . . . 72.1(3)
Fe4 B12 B1 . . 1_556 138.2(8)
Fe4 B12 B7 . . . 67.5(3)
Fe4 B12 B1 1_556 . . 138.2(8)
Fe4 B12 B1 1_556 . 1_556 72.1(3)
Fe4 B12 B7 1_556 . . 67.5(3)
B1 B12 B1 . . 1_556 105.9(5)
B1 B12 B7 . . . 127.0(3)
B1 B12 B7 1_556 . . 127.0(3)
Fe1 B13 Fe2 3_546 . . 119.9(3)
Fe1 B13 Fe2 3_546 . 1_556 119.9(3)
Fe1 B13 B6 3_546 . . 63.9(4)
Fe1 B13 B6 3_546 . 1_556 63.9(4)
Fe1 B13 B14 3_546 . . 173.4(8)
Fe2 B13 Fe2 . . 1_556 81.1(4)
Fe2 B13 B6 . . . 57.4(4)
Fe2 B13 B6 . . 1_556 119.3(7)
Fe2 B13 B14 . . . 64.6(4)
Fe2 B13 B6 1_556 . . 119.3(7)
Fe2 B13 B6 1_556 . 1_556 57.4(4)
Fe2 B13 B14 1_556 . . 64.6(4)
B6 B13 B6 . . 1_556 104.5(5)
B6 B13 B14 . . . 119.1(5)
B6 B13 B14 1_556 . . 119.1(5)
Fe1 B14 Fe2 . . . 134.1(2)
Fe1 B14 Fe2 . . 1_556 134.1(2)
Fe1 B14 B4 . . . 70.6(3)
Fe1 B14 B4 . . 1_556 70.6(3)
Fe1 B14 B7 . . . 71.6(5)
Fe1 B14 B13 . . . 138.8(9)
Fe2 B14 Fe2 . . 1_556 84.5(4)
Fe2 B14 B4 . . . 64.6(3)
Fe2 B14 B4 . . 1_556 128.8(8)
Fe2 B14 B7 . . . 117.3(4)
Fe2 B14 B13 . . . 69.0(4)
Fe2 B14 B4 1_556 . . 128.8(8)
Fe2 B14 B4 1_556 . 1_556 64.6(3)
Fe2 B14 B7 1_556 . . 117.3(4)
Fe2 B14 B13 1_556 . . 69.0(4)
B4 B14 B4 . . 1_556 103.3(6)
B4 B14 B7 . . . 113.1(6)
B4 B14 B13 . . . 126.5(3)
B4 B14 B7 1_556 . . 113.1(6)
B4 B14 B13 1_556 . . 126.5(3)
B7 B14 B13 . . . 67.2(6)
loop_
_geom_bond_atom_site_label_1
_geom_bond_atom_site_label_2
_geom_bond_site_symmetry_1
_geom_bond_site_symmetry_2
_geom_bond_distance
Fe1 Fe1 . 1_554 2.7692(2)
Fe1 Fe1 . 1_556 2.7692(2)
Fe1 B1 . 3_555 2.182(8)
Fe1 B1 . 3_556 2.182(8)
Fe1 B3 . . 2.075(8)
Fe1 B3 . 1_556 2.075(8)
Fe1 B4 . . 2.144(8)
Fe1 B4 . 1_556 2.144(8)
Fe1 B6 . 3_555 2.051(8)
Fe1 B6 . 3_556 2.051(8)
Fe1 B7 . . 2.163(9)
Fe1 B12 . 3_556 2.019(8)
Fe1 B13 . 3_556 2.088(8)
Fe1 B14 . . 1.935(8)
Fe2 Fe2 . 1_554 2.7692(2)
Fe2 Fe2 . 1_556 2.7692(2)
Fe2 B4 . . 2.060(6)
Fe2 B6 . . 1.893(10)
Fe2 B8 . . 1.930(10)
Fe2 B9 . 3_545 2.122(6)
Fe2 B10 . 1_554 2.155(7)
Fe2 B10 . . 2.155(7)
Fe2 B11 . 1_554 2.205(9)
Fe2 B11 . . 2.205(9)
Fe2 B13 . 1_554 2.129(9)
Fe2 B13 . . 2.129(9)
Fe2 B14 . 1_554 2.060(8)
Fe2 B14 . . 2.060(8)
Fe3 Fe3 . 1_554 2.7692(2)
Fe3 Fe3 . 1_556 2.7692(2)
Fe3 Fe3 . 2_655 2.4822(15)
Fe3 Fe4 . . 2.4825(14)
Fe3 Fe4 . 1_556 2.4825(14)
Fe3 B1 . . 2.154(9)
Fe3 B1 . 1_556 2.154(9)
Fe3 B2 . 3_545 2.061(5)
Fe3 B2 . 3_546 2.061(5)
Fe3 B2 . 4_555 2.050(8)
Fe3 B2 . 4_556 2.050(8)
Fe3 B8 . 4_555 2.011(8)
Fe3 B8 . 4_556 2.011(8)
Fe3 B11 . 4_556 2.097(7)
Fe3 B12 . . 2.075(12)
Fe4 Fe4 . 1_554 2.7692(2)
Fe4 Fe4 . 1_556 2.7692(2)
Fe4 B1 . . 2.276(7)
Fe4 B3 . . 1.917(10)
Fe4 B5 . 1_554 2.157(7)
Fe4 B5 . . 2.157(7)
Fe4 B7 . 1_554 2.157(10)
Fe4 B7 . . 2.157(10)
Fe4 B9 . . 2.185(6)
Fe4 B12 . 1_554 2.100(7)
Fe4 B12 . . 2.100(7)
B1 B2 . 3_545 1.650(15)
B1 B4 . 3_545 1.832(9)
B1 B12 . 1_554 1.735(7)
B1 B12 . . 1.735(7)
B2 B2 . 2_565 1.752(15)
B2 B4 . . 1.725(15)
B2 B8 . . 1.628(10)
B3 B6 . 3_555 1.603(10)
B3 B7 . 1_554 1.760(6)
B3 B7 . . 1.760(6)
B3 B9 . . 1.786(15)
B4 B8 . . 1.853(16)
B4 B14 . 1_554 1.765(8)
B4 B14 . . 1.765(8)
B5 B9 . . 1.749(8)
B5 B9 . 1_556 1.749(8)
B5 B10 . 3_556 1.630(9)
B5 B10 . 4_556 1.828(17)
B5 B11 . 4_556 1.665(13)
B6 B9 . 3_545 1.744(16)
B6 B13 . 1_554 1.751(6)
B6 B13 . . 1.751(6)
B7 B12 . . 1.747(12)
B7 B14 . . 1.753(18)
B8 B11 . 1_554 1.720(6)
B8 B11 . . 1.720(6)
B9 B10 . 3_555 1.806(8)
B9 B10 . 3_556 1.806(8)
B10 B11 . . 1.683(10)
B13 B14 . . 1.653(11)
loop_
_refln_index_h
_refln_index_k
_refln_index_l
_refln_F_squared_calc
_refln_F_squared_meas
_refln_F_squared_sigma
_refln_observed_status
0 0 1 0.33 2.09 3.48 <
0 0 3 5.40 2.33 6.55 <
0 2 1 27846.50 27506.20 333.33 o
0 2 2 374.95 347.74 20.72 o
0 2 3 6032.46 5746.70 126.83 o
0 4 0 1094.65 1220.16 37.52 o
0 4 1 5498.54 5847.83 117.05 o
0 4 2 397.15 384.47 23.87 o
0 6 0 368.23 387.39 21.12 o
0 6 1 1014.29 996.95 40.38 o
0 6 2 198.36 174.94 16.72 o
0 8 0 24.36 37.96 6.78 o
0 8 1 1261.51 1400.58 51.07 o
0 8 2 12.36 9.84 4.29 o
0 10 0 50.60 50.21 8.69 o
0 10 1 1692.38 1695.48 61.57 o
0 10 2 38.21 20.90 5.57 o
0 12 0 1629.21 1727.29 66.53 o
0 12 1 3309.49 3828.05 114.14 o
0 12 2 1171.99 1072.70 46.27 o
0 14 1 49.95 64.26 16.22 o
0 14 2 6320.06 6576.28 247.18 o
1 1 1 6392.07 6229.16 56.95 o
1 1 2 735.11 664.41 18.47 o
1 1 3 1444.60 1348.18 39.65 o
1 2 1 606.03 538.95 14.47 o
1 2 2 120.62 97.32 8.55 o
1 2 3 98.54 40.86 10.95 o
1 3 1 6298.98 6353.27 66.20 o
1 3 2 1006.20 859.17 25.58 o
1 3 3 1529.19 1249.86 56.01 o
1 4 0 4253.62 4078.62 111.63 o
1 4 1 195.34 197.51 9.94 o
1 4 2 1778.74 1652.49 41.36 o
1 4 3 34.30 18.12 6.42 o
1 5 0 16324.10 16542.90 345.07 o
1 5 1 15.64 12.23 2.48 o
1 5 2 7363.99 7206.60 103.09 o
1 5 3 1.70 2.27 3.72 <
1 6 0 6913.72 6937.71 98.01 o
1 6 1 9256.47 9279.45 104.74 o
1 6 2 3107.26 2967.16 59.33 o
1 6 3 3138.40 2803.23 137.30 o
1 7 0 1369.90 1328.70 33.65 o
1 7 1 74.04 76.13 6.36 o
1 7 2 745.74 683.91 26.79 o
1 7 3 4.22 7.70 5.60 <
1 8 0 35.97 30.88 4.25 o
1 8 1 7134.14 7515.83 103.69 o
1 8 2 60.56 53.65 7.02 o
1 8 3 2370.72 1993.13 108.89 o
1 9 0 1030.20 1090.35 32.32 o
1 9 1 2117.39 2149.58 48.50 o
1 9 2 561.85 549.06 24.06 o
1 9 3 906.85 815.08 64.88 o
1 10 0 10478.00 10880.20 172.86 o
1 10 1 718.55 715.85 27.25 o
1 10 2 6363.63 6431.67 99.62 o
1 10 3 423.36 244.82 34.65 o
1 11 0 71.02 73.44 7.64 o
1 11 1 419.50 504.26 24.23 o
1 11 2 42.20 24.26 4.87 o
1 12 0 30.32 47.02 8.93 o
1 12 1 2784.10 3278.18 76.40 o
1 12 2 17.06 16.95 4.71 o
1 13 0 2746.03 2888.01 97.60 o
1 13 1 17.11 11.77 4.42 o
1 13 2 1952.99 2100.65 66.72 o
1 14 0 899.06 933.34 50.75 o
1 14 1 192.34 209.30 22.03 o
1 14 2 653.55 575.99 40.06 o
1 15 1 4227.71 5242.45 191.09 o
1 15 2 51.92 26.51 14.16 <
2 0 1 741.64 750.89 22.69 o
2 0 2 166.34 157.85 14.21 o
2 0 3 86.03 72.92 15.96 o
2 1 0 317.08 374.20 19.27 o
2 1 1 246.94 271.54 11.19 o
2 1 2 151.16 139.71 11.08 o
2 1 3 66.17 10.38 20.92 <
2 2 0 4105.65 4313.59 85.76 o
2 2 1 102.79 47.60 17.50 o
2 2 2 1542.78 1414.15 33.74 o
2 2 3 9.97 20.67 12.55 <
2 3 1 4772.82 4798.42 54.71 o
2 3 2 424.24 417.04 18.59 o
2 3 3 1258.06 1114.00 51.02 o
2 4 1 13930.60 14025.20 124.13 o
2 4 2 2809.43 2803.99 55.56 o
2 4 3 3714.14 3446.90 157.63 o
2 5 1 18943.20 19794.50 212.79 o
2 5 2 2899.96 2729.91 55.11 o
2 5 3 5751.56 5051.47 198.45 o
2 6 0 5266.07 5195.61 115.80 o
2 6 1 4860.66 4941.42 65.77 o
2 6 2 2522.92 2338.81 52.43 o
2 6 3 1743.05 1579.48 100.63 o
2 7 0 25337.60 24582.00 358.41 o
2 7 1 1668.03 1751.01 34.14 o
2 7 2 12847.40 12811.10 156.59 o
2 7 3 511.36 508.33 54.46 o
2 8 0 381.94 425.12 29.93 o
2 8 1 610.83 681.48 24.94 o
2 8 2 164.13 180.92 13.47 o
2 8 3 223.62 217.67 34.09 o
2 9 0 1539.28 1494.36 61.95 o
2 9 1 5421.35 5852.52 92.59 o
2 9 2 919.69 961.68 32.77 o
2 9 3 2166.39 2300.42 117.99 o
2 10 0 3804.27 3611.34 111.97 o
2 10 1 3670.76 3973.70 76.28 o
2 10 2 2367.08 2372.00 53.86 o
2 10 3 1691.48 1619.26 95.50 o
2 11 0 0.58 1.61 1.90 <
2 11 1 142.04 144.85 13.47 o
2 11 2 0.01 1.56 2.11 <
2 12 0 1009.25 928.23 49.61 o
2 12 1 574.23 615.06 39.11 o
2 12 2 643.54 587.38 30.31 o
2 13 0 28.63 18.66 6.88 o
2 13 1 650.52 740.35 42.68 o
2 13 2 14.41 4.80 3.36 <
2 14 0 50.27 68.87 12.89 o
2 14 1 38.22 32.51 8.63 o
2 14 2 47.15 27.10 10.65 o
2 15 1 1160.09 1408.42 89.67 o
3 1 0 1377.26 1527.20 47.45 o
3 1 1 2136.36 2477.89 37.61 o
3 1 2 552.20 525.23 20.98 o
3 1 3 455.91 392.51 21.90 o
3 2 0 10803.00 10905.40 140.48 o
3 2 1 2141.91 2109.97 36.28 o
3 2 2 4256.01 4185.03 66.21 o
3 2 3 520.07 435.32 31.37 o
3 3 0 12076.80 11499.90 242.29 o
3 3 1 87.26 97.84 8.39 o
3 3 2 4899.91 5085.45 83.08 o
3 3 3 29.53 19.98 5.82 o
3 4 0 1150.34 1127.13 98.37 o
3 4 1 7695.25 7748.81 85.59 o
3 4 2 461.24 442.64 20.68 o
3 4 3 2026.55 1977.69 81.62 o
3 5 0 179.58 155.66 11.46 o
3 5 1 15469.20 15397.60 147.61 o
3 5 2 76.52 61.69 6.88 o
3 5 3 4734.88 4483.88 183.52 o
3 6 0 297.25 272.69 14.80 o
3 6 1 4256.07 4285.53 68.32 o
3 6 2 123.63 163.00 20.68 o
3 6 3 1548.37 1510.59 98.57 o
3 7 0 471.56 393.05 18.42 o
3 7 1 650.94 608.25 22.06 o
3 7 2 229.74 237.36 17.58 o
3 7 3 290.37 283.88 39.97 o
3 8 0 3010.82 3059.88 79.98 o
3 8 1 682.16 700.07 32.19 o
3 8 2 1416.40 1403.89 44.73 o
3 8 3 278.86 294.54 40.37 o
3 9 0 1068.25 1019.21 54.55 o
3 9 1 1708.19 1793.10 57.94 o
3 9 2 596.54 632.70 29.60 o
3 9 3 694.49 649.88 60.49 o
3 10 0 1014.56 846.47 48.21 o
3 10 1 12696.80 13830.90 243.66 o
3 10 2 701.76 688.32 30.79 o
3 10 3 5729.73 5861.56 210.28 o
3 11 0 2152.65 1837.26 78.56 o
3 11 1 447.55 495.90 46.46 o
3 11 2 1412.62 1497.31 48.12 o
3 12 0 6876.55 6194.03 173.98 o
3 12 1 74.14 80.72 12.49 o
3 12 2 4547.37 4755.55 122.54 o
3 13 0 4.73 1.67 1.45 <
3 13 1 6.06 6.61 3.92 <
3 14 0 596.33 554.60 42.75 o
3 14 1 651.98 672.16 40.14 o
3 14 2 452.05 317.12 55.63 o
3 15 1 349.75 408.91 43.56 o
4 0 1 79030.50 71335.50 433.93 o
4 0 2 782.71 696.95 35.74 o
4 0 3 19114.60 17791.50 265.92 o
4 1 0 4223.76 4503.44 96.09 o
4 1 1 1214.57 1256.54 24.81 o
4 1 2 1725.70 1693.61 38.26 o
4 1 3 287.74 258.22 23.43 o
4 2 0 29464.60 30869.70 253.77 o
4 2 1 2275.53 2303.84 32.31 o
4 2 2 11848.20 12184.90 129.92 o
4 2 3 627.39 585.07 37.07 o
4 3 0 4171.37 4496.01 108.11 o
4 3 1 10799.40 10971.50 97.77 o
4 3 2 1675.58 1617.99 41.76 o
4 3 3 2861.77 2681.16 82.95 o
4 4 0 1882.90 1989.28 114.43 o
4 4 1 1725.71 1634.71 34.65 o
4 4 2 871.77 883.39 29.62 o
4 4 3 443.24 421.29 35.83 o
4 5 0 2829.58 2888.91 171.49 o
4 5 1 47.12 32.73 7.90 o
4 5 2 1218.61 1183.69 35.63 o
4 5 3 39.52 22.89 7.43 o
4 6 0 505.25 606.70 54.58 o
4 6 1 6.85 6.49 7.80 <
4 6 2 271.40 233.62 17.01 o
4 6 3 4.93 3.42 4.66 <
4 7 0 1061.19 908.46 32.66 o
4 7 1 10.51 8.23 3.12 o
4 7 2 626.26 578.26 29.22 o
4 7 3 1.91 -4.04 6.95 <
4 8 0 288.52 278.76 16.75 o
4 8 1 18.47 9.69 4.81 o
4 8 2 129.49 149.77 13.70 o
4 8 3 11.90 16.25 8.43 <
4 9 0 1393.33 1270.65 41.92 o
4 9 1 24.38 15.20 5.94 o
4 9 2 801.05 832.84 34.84 o
4 9 3 28.06 44.99 15.18 o
4 10 1 6.82 3.56 1.47 o
4 10 2 717.24 695.62 31.67 o
4 10 3 0.58 -1.94 4.70 <
4 11 1 3150.53 3404.37 95.96 o
4 11 2 1121.77 1247.68 45.70 o
4 12 0 3408.34 2940.51 109.61 o
4 12 1 0.10 3.38 2.60 <
4 12 2 2276.52 2299.70 97.63 o
4 13 0 1453.59 1293.01 69.22 o
4 13 1 1688.36 1787.47 65.27 o
4 13 2 1058.93 1056.82 64.21 o
4 14 0 4.35 2.79 5.93 <
4 14 1 4262.91 4134.84 108.11 o
4 14 2 1.56 0.42 8.29 <
4 15 1 246.97 238.25 34.04 o
5 1 0 13120.90 13176.30 189.63 o
5 1 1 3387.08 3550.76 48.90 o
5 1 2 5237.75 5030.17 77.95 o
5 1 3 791.03 745.12 42.29 o
5 2 0 86.26 78.05 19.13 o
5 2 1 5881.03 6149.00 62.70 o
5 2 2 57.60 71.86 12.00 o
5 2 3 1587.02 1540.40 62.55 o
5 3 0 1082.28 1181.09 57.88 o
5 3 1 12424.30 12785.70 104.21 o
5 3 2 505.98 624.58 26.64 o
5 3 3 3266.71 3098.35 107.70 o
5 4 0 620.68 566.68 45.04 o
5 4 1 769.42 822.41 26.08 o
5 4 2 298.42 295.50 18.17 o
5 4 3 171.38 179.52 22.59 o
5 5 0 6671.87 6868.70 243.32 o
5 5 1 8423.82 8293.23 107.73 o
5 5 2 3082.12 3300.02 60.98 o
5 5 3 3114.68 3180.49 106.85 o
5 6 0 8190.82 8478.59 320.09 o
5 6 1 622.20 662.61 31.72 o
5 6 2 4088.81 4134.36 71.68 o
5 6 3 74.87 80.43 14.76 o
5 7 0 681.71 818.28 70.82 o
5 7 1 1200.23 1223.63 48.59 o
5 7 2 331.46 312.33 19.88 o
5 7 3 436.78 545.68 55.22 o
5 8 0 9735.93 8557.71 186.10 o
5 8 1 1094.46 1173.11 66.37 o
5 8 2 5422.92 5242.14 107.99 o
5 8 3 367.00 425.32 49.12 o
5 9 0 163.81 126.32 11.04 o
5 9 1 17.37 10.63 5.07 o
5 9 2 97.54 110.97 12.67 o
5 9 3 7.81 1.38 4.02 <
5 10 0 789.34 675.61 27.24 o
5 10 1 2483.74 2337.65 75.47 o
5 10 2 531.13 650.04 33.33 o
5 10 3 1124.88 1296.99 83.43 o
5 11 1 100.91 88.99 14.03 o
5 11 2 0.20 -2.53 2.66 <
5 12 1 1338.73 1485.98 59.90 o
5 12 2 218.59 173.18 25.88 o
5 13 1 3611.66 3694.99 102.12 o
5 13 2 62.72 6.20 11.80 <
5 14 2 19.38 12.41 11.03 <
5 15 1 0.79 -0.70 6.53 <
6 0 1 1401.80 1324.95 54.02 o
6 0 2 1227.24 1159.92 50.55 o
6 0 3 420.55 433.17 55.03 o
6 1 0 485.23 418.74 41.59 o
6 1 1 585.50 612.74 24.66 o
6 1 2 251.96 235.46 16.88 o
6 1 3 161.38 205.26 21.34 o
6 2 0 33.97 86.25 22.16 o
6 2 1 5994.86 6241.14 80.56 o
6 2 2 3.94 -13.34 11.03 <
6 2 3 1617.13 1700.14 65.58 o
6 3 0 3858.71 4194.08 116.88 o
6 3 1 170.45 162.31 13.75 o
6 3 2 1795.09 2008.37 47.83 o
6 3 3 26.82 15.78 7.76 o
6 4 0 5377.67 5892.48 145.12 o
6 4 1 123.37 152.79 14.94 o
6 4 2 2464.06 2628.46 57.52 o
6 4 3 74.08 60.88 13.66 o
6 5 0 31453.70 31770.20 386.71 o
6 5 1 2913.43 2870.34 65.68 o
6 5 2 15390.50 17154.30 169.80 o
6 5 3 1285.37 1343.76 65.91 o
6 6 0 0.32 18.12 36.02 <
6 6 1 472.44 507.40 30.17 o
6 6 2 0.38 23.29 12.43 <
6 6 3 123.04 126.96 18.95 o
6 7 0 3282.06 3315.71 220.10 o
6 7 1 22576.00 22260.70 256.75 o
6 7 2 2077.30 2121.83 52.24 o
6 7 3 7704.60 9453.80 209.82 o
6 8 0 9.35 37.89 72.70 <
6 8 1 320.08 356.93 31.85 o
6 8 2 4.45 4.33 2.59 <
6 8 3 131.73 183.17 30.83 o
6 9 0 13422.40 11884.50 253.07 o
6 9 1 22.80 20.71 7.46 o
6 9 2 8075.05 8897.77 171.80 o
6 9 3 4.03 2.07 3.31 <
6 10 0 1015.26 786.82 31.83 o
6 10 1 89.82 93.23 14.11 o
6 10 2 647.03 781.87 73.59 o
6 10 3 41.18 43.83 14.14 o
6 11 1 58.51 44.66 9.08 o
6 11 2 243.16 227.84 30.34 o
6 12 1 195.90 194.70 20.52 o
6 12 2 121.63 43.54 29.83 <
6 13 1 10.61 12.28 4.74 o
6 13 2 1729.07 1493.20 115.76 o
6 14 1 95.45 38.07 13.86 o
6 15 1 41.93 17.22 9.76 <
7 1 0 1742.87 1277.65 107.16 o
7 1 1 2281.99 1949.42 56.30 o
7 1 2 739.88 789.36 27.79 o
7 1 3 563.15 602.28 46.27 o
7 2 0 1434.04 1289.16 71.87 o
7 2 1 12094.70 11907.00 148.44 o
7 2 2 659.86 635.44 25.16 o
7 2 3 3639.36 3698.62 121.65 o
7 3 0 797.46 883.95 58.52 o
7 3 1 8781.29 9187.84 114.85 o
7 3 2 330.85 325.82 20.65 o
7 3 3 2505.51 2787.63 102.38 o
7 4 0 6258.72 7112.23 166.61 o
7 4 1 247.91 289.76 28.50 o
7 4 2 2950.01 3434.86 68.24 o
7 4 3 68.62 56.74 13.44 o
7 5 0 6221.26 6413.16 171.75 o
7 5 1 0.01 -2.50 14.06 <
7 5 2 3189.97 3390.78 63.24 o
7 5 3 0.37 2.02 4.10 <
7 6 0 292.38 416.96 78.28 o
7 6 1 1252.68 1241.76 47.20 o
7 6 2 161.07 188.01 17.21 o
7 6 3 459.03 601.02 43.23 o
7 7 0 4.41 187.91 135.14 <
7 7 1 43.14 33.83 16.89 o
7 7 2 5.55 -21.31 14.77 <
7 7 3 13.30 5.99 5.39 <
7 8 0 4278.98 5033.04 295.66 o
7 8 1 697.33 649.95 42.34 o
7 8 2 2409.43 2646.49 70.19 o
7 8 3 246.08 309.09 29.23 o
7 9 0 821.41 988.34 173.33 o
7 9 1 42.10 34.27 38.02 <
7 9 2 489.73 584.89 36.12 o
7 9 3 29.78 10.67 7.20 <
7 10 1 2034.61 2116.32 80.69 o
7 10 2 6032.42 6412.56 246.01 o
7 11 0 73.34 50.49 7.94 o
7 11 1 1609.66 1504.35 63.04 o
7 12 1 6974.31 6744.18 153.42 o
7 13 1 1312.07 1100.82 50.94 o
7 13 2 494.83 348.59 60.64 o
7 14 1 1162.68 1183.93 85.39 o
7 15 1 326.60 238.82 39.04 o
8 0 2 3225.84 3349.69 104.31 o
8 0 3 5647.63 6052.41 237.32 o
8 1 0 5.06 10.12 28.57 <
8 1 1 8610.22 8008.33 210.11 o
8 1 3 2633.09 2826.85 149.71 o
8 2 0 9022.28 9262.43 200.86 o
8 2 1 6907.58 6631.40 141.93 o
8 2 2 4184.91 4266.46 69.92 o
8 2 3 1976.40 2295.38 94.03 o
8 3 0 23372.60 26238.80 335.53 o
8 3 1 4958.70 5033.41 105.90 o
8 3 2 10968.00 12019.80 128.91 o
8 3 3 1721.72 1747.34 79.19 o
8 4 0 2478.94 2406.92 104.05 o
8 4 1 24.32 35.96 15.84 o
8 4 2 1238.41 1212.54 41.79 o
8 4 3 3.11 11.22 6.15 <
8 5 0 408.06 407.85 47.04 o
8 5 1 3024.61 3205.24 75.42 o
8 5 2 292.18 300.75 22.23 o
8 5 3 795.57 840.10 53.27 o
8 6 0 1387.73 1433.58 90.95 o
8 6 1 0.02 28.16 23.17 <
8 6 2 800.18 814.56 35.63 o
8 6 3 0.40 -1.25 2.78 <
8 7 0 821.22 992.93 112.90 o
8 7 1 1255.73 1359.85 64.13 o
8 7 2 368.01 435.80 29.08 o
8 7 3 619.40 850.85 52.73 o
8 8 0 255.86 367.40 99.19 o
8 8 1 165.11 158.69 30.38 o
8 8 2 137.31 208.29 22.75 o
8 8 3 64.24 69.02 13.88 o
8 9 0 417.92 471.50 119.55 o
8 9 1 4256.70 3826.02 133.15 o
8 9 2 246.68 274.60 25.88 o
8 9 3 1958.22 2196.49 84.22 o
8 11 0 1583.67 1259.31 46.76 o
8 12 1 765.78 717.20 54.86 o
8 13 1 1585.48 1356.16 71.51 o
9 1 1 6309.91 5250.57 179.90 o
9 1 2 29.47 20.76 6.16 o
9 1 3 1947.72 2136.88 127.33 o
9 2 0 8316.37 7799.59 199.65 o
9 2 1 1678.04 1461.55 75.00 o
9 2 2 3999.47 4042.85 76.07 o
9 2 3 629.86 670.03 68.55 o
9 3 0 22661.10 23837.80 341.78 o
9 3 1 417.11 474.41 37.33 o
9 3 2 11018.50 11640.10 135.94 o
9 3 3 199.95 224.69 27.23 o
9 4 0 39.21 14.73 25.32 <
9 4 1 1459.27 1524.95 64.09 o
9 4 2 20.80 6.23 13.20 <
9 4 3 411.03 404.93 36.87 o
9 5 0 1444.98 1449.47 91.04 o
9 5 1 9552.76 10802.80 169.88 o
9 5 2 919.99 947.81 38.54 o
9 5 3 3262.99 3931.75 127.44 o
9 6 0 36.23 99.69 38.74 o
9 6 1 629.46 696.86 45.01 o
9 6 2 14.17 41.32 16.78 o
9 6 3 218.70 253.58 28.83 o
9 7 1 787.86 782.38 51.10 o
9 7 2 504.20 644.26 41.20 o
9 7 3 353.21 410.81 38.48 o
9 8 0 1354.28 1365.40 138.85 o
9 8 1 1714.65 1791.34 79.17 o
9 8 2 895.59 917.88 50.21 o
9 8 3 816.34 1100.38 65.32 o
9 9 0 1827.96 2147.81 204.67 o
9 9 1 916.21 950.95 69.34 o
9 9 2 1177.80 1450.54 73.48 o
9 9 3 435.60 616.07 50.01 o
9 10 0 6.01 -36.69 87.97 <
9 10 1 1320.06 1043.41 36.56 o
9 10 2 4.74 4.25 4.03 <
9 11 0 117.60 95.29 13.92 o
9 13 1 88.19 89.82 16.32 o
10 0 2 875.13 815.23 61.78 o
10 1 1 1164.98 1027.09 124.20 o
10 1 2 112.41 116.42 19.75 o
10 2 0 3812.52 3073.15 142.12 o
10 2 1 1170.53 1089.21 68.70 o
10 2 2 1965.29 1857.63 54.95 o
10 2 3 258.07 335.79 46.48 o
10 3 0 309.29 241.02 45.95 o
10 3 1 228.79 213.29 33.20 o
10 3 2 141.60 109.76 16.32 o
10 3 3 89.37 66.18 20.04 o
10 4 0 8829.07 9196.99 229.75 o
10 4 1 119.82 81.55 24.34 o
10 4 2 4826.08 5292.97 102.96 o
10 4 3 53.08 39.19 12.15 o
10 5 0 921.30 793.54 72.12 o
10 5 1 9705.29 10916.10 180.54 o
10 5 2 636.01 607.77 42.38 o
10 5 3 3512.45 4053.02 137.14 o
10 6 0 82.55 114.48 40.13 o
10 6 1 2446.57 2867.34 97.19 o
10 6 2 57.33 -1.97 23.34 <
10 6 3 1035.82 1301.99 75.13 o
10 7 0 18946.10 22727.20 395.76 o
10 7 1 172.25 207.80 41.74 o
10 7 2 10829.30 12260.10 249.10 o
10 7 3 60.17 39.11 13.99 o
10 8 0 0.07 -3.14 56.82 <
10 8 1 1178.12 1030.01 64.87 o
10 8 2 0.16 0.67 2.72 <
10 8 3 551.51 558.27 51.25 o
10 9 0 199.66 185.32 85.70 o
10 9 1 8380.98 7179.00 178.56 o
10 9 2 116.22 158.54 22.51 o
10 9 3 3896.77 5194.88 221.03 o
10 10 1 109.59 91.06 11.44 o
10 10 2 589.53 547.41 37.69 o
10 12 0 28.02 16.39 4.50 o
11 1 2 4191.83 3825.59 118.68 o
11 2 0 2246.65 1794.40 174.51 o
11 2 1 0.05 6.98 28.32 <
11 2 2 1167.20 1034.24 49.75 o
11 3 0 3267.52 3073.56 147.74 o
11 3 1 45.80 18.89 28.89 <
11 3 2 1723.88 1731.03 64.65 o
11 3 3 7.79 2.26 4.07 <
11 4 0 381.53 396.72 56.88 o
11 4 1 131.39 177.63 32.38 o
11 4 2 182.40 143.86 25.12 o
11 4 3 45.54 25.82 10.61 o
11 5 0 513.04 656.23 69.85 o
11 5 1 15.57 20.05 27.05 <
11 5 2 292.95 299.52 38.39 o
11 5 3 9.45 4.99 2.35 o
11 6 0 2274.82 2586.13 130.92 o
11 6 1 1229.12 1415.38 75.67 o
11 6 2 1270.65 1388.86 80.57 o
11 6 3 501.33 558.94 54.90 o
11 7 0 0.17 7.35 41.00 <
11 7 1 249.83 248.11 50.83 o
11 7 2 0.02 -0.17 2.69 <
11 7 3 101.13 102.69 22.75 o
11 8 0 68.36 63.43 50.27 <
11 8 1 8427.07 9772.60 275.88 o
11 8 2 43.71 27.43 9.64 o
11 8 3 4019.93 5278.63 251.27 o
11 9 0 1512.86 1708.22 175.31 o
11 9 1 5.20 1.32 1.82 <
11 9 2 1028.63 1116.37 63.85 o
11 10 2 3264.26 3146.14 110.93 o
12 1 2 1230.85 1010.42 90.49 o
12 2 0 0.49 13.05 44.34 <
12 2 1 6316.22 5648.45 170.77 o
12 2 2 0.15 6.51 23.42 <
12 3 0 396.57 464.07 87.64 o
12 3 1 6189.98 5848.18 165.55 o
12 3 2 261.48 262.16 37.00 o
12 4 0 105.32 50.83 39.18 <
12 4 1 668.91 597.21 52.37 o
12 4 2 71.97 79.95 30.66 o
12 4 3 292.64 314.41 45.71 o
12 5 0 4982.18 5031.06 189.50 o
12 5 1 216.04 199.41 36.38 o
12 5 2 2751.83 2425.99 115.66 o
12 5 3 106.83 118.32 24.32 o
12 6 0 15.55 -13.77 39.30 <
12 6 1 1644.15 1852.22 86.83 o
12 6 2 16.91 10.10 7.92 <
12 6 3 755.15 868.77 84.55 o
12 7 0 775.25 757.41 84.09 o
12 7 1 4216.48 5187.53 148.75 o
12 7 2 522.46 548.33 47.45 o
12 7 3 1886.50 2350.77 127.27 o
12 8 0 272.40 284.53 60.57 o
12 8 2 184.72 201.71 28.19 o
12 8 3 744.86 1016.86 80.78 o
12 9 2 3313.43 3432.12 126.71 o
12 10 2 94.18 134.20 19.49 o
12 11 1 181.24 141.76 14.94 o
13 2 1 2046.14 1819.07 192.02 o
13 2 2 60.45 1.20 36.07 <
13 3 0 29.49 73.10 43.88 <
13 3 1 8923.16 8022.87 203.18 o
13 4 0 2229.50 2246.79 135.82 o
13 4 1 0.10 -6.00 33.80 <
13 4 2 1161.78 858.60 62.66 o
13 5 0 8661.47 9914.57 278.60 o
13 5 1 114.77 119.25 35.12 o
13 5 2 4988.75 3952.81 148.44 o
13 5 3 53.46 40.37 15.97 o
13 6 0 228.33 240.07 60.46 o
13 6 1 3335.17 3288.81 120.97 o
13 6 2 193.29 150.98 25.81 o
13 6 3 1570.66 1545.77 102.02 o
13 7 0 46.46 125.57 58.44 o
13 7 1 635.69 620.90 72.31 o
13 7 2 24.72 37.13 11.99 o
13 7 3 289.20 282.28 41.57 o
13 8 0 41.44 13.83 46.05 <
13 8 2 10.28 5.48 3.70 <
13 8 3 8.99 7.06 5.66 <
13 9 2 759.88 807.34 55.75 o
14 3 0 17.26 -9.49 61.65 <
14 3 1 77.87 -6.03 33.47 <
14 4 0 129.12 181.55 58.57 o
14 4 1 9630.54 9585.74 235.94 o
14 5 0 2052.10 2102.20 139.76 o
14 5 1 49.12 -30.92 33.35 <
14 6 0 2421.06 2878.24 161.46 o
14 6 1 607.46 628.09 72.44 o
14 6 3 302.30 328.53 47.27 o
14 7 0 1556.25 1566.27 122.86 o
14 7 2 1109.11 870.25 61.10 o
14 7 3 1955.22 2093.17 121.62 o
14 8 2 465.30 398.10 39.83 o
14 8 3 90.31 35.38 15.09 o
14 9 2 379.60 329.81 34.89 o
15 3 0 595.65 542.98 162.19 o
15 3 1 18.78 -15.38 37.60 <
15 4 0 229.72 126.62 54.15 o
15 4 1 4469.25 4276.02 162.78 o
15 5 0 930.94 747.08 95.20 o
15 5 1 832.10 710.50 76.93 o
15 6 0 518.19 532.18 83.54 o
15 9 2 19.28 12.02 6.69 <
16 3 0 498.82 1430.12 282.43 o
16 4 0 2.02 -6.78 49.57 <
16 5 0 594.42 376.88 78.08 o
