#------------------------------------------------------------------------------
#$Date: 2021-04-14 12:52:39 +0300 (Wed, 14 Apr 2021) $
#$Revision: 264148 $
#$URL: file:///home/coder/svn-repositories/cod/cif/1/56/17/1561753.cif $
#------------------------------------------------------------------------------
#
# This file is available in the Crystallography Open Database (COD),
# http://www.crystallography.net/
#
# All data on this site have been placed in the public domain by the
# contributors.
#
data_1561753
loop_
_publ_author_name
'Bykova, E.'
'Gou, H.'
'Bykov, M.'
'Hanfland, M.'
'Dubrovinsky, L.'
'Dubrovinskaia, N.'
_publ_section_title
;
 Crystal structures and compressibility of novel iron borides Fe2B7 and Fe
 B50 synthesized at high pressure and high temperature
;
_journal_name_full               'Journal of Solid State Chemistry'
_journal_page_first              102
_journal_page_last               109
_journal_paper_doi               10.1016/j.jssc.2015.06.040
_journal_volume                  230
_journal_year                    2015
_chemical_absolute_configuration .
_chemical_formula_moiety         'B50 Fe1.324'
_chemical_formula_sum            'B50 Fe1.324'
_chemical_formula_weight         614.4
_chemical_name_common            'Iron Boron (1.324/50)'
_chemical_name_systematic        'Iron Boron (1.324/50)'
_space_group_IT_number           134
_space_group_name_Hall           '-P 4ac 2bc'
_space_group_name_H-M_alt        'P 42/n n m :2'
_symmetry_cell_setting           tetragonal
_symmetry_Int_Tables_number      134
_symmetry_space_group_name_Hall  '-P 4ac 2bc'
_symmetry_space_group_name_H-M   'P 42/n n m :2'
_cell_angle_alpha                90
_cell_angle_beta                 90
_cell_angle_gamma                90
_cell_formula_units_Z            1
_cell_length_a                   8.5081(10)
_cell_length_b                   8.5081(10)
_cell_length_c                   4.8099(8)
_cell_measurement_reflns_used    281
_cell_measurement_temperature    293
_cell_measurement_theta_max      18.66
_cell_measurement_theta_min      3.96
_cell_volume                     348.18(8)
_computing_cell_refinement
;
CrysAlisPro, Agilent Technologies,
Version 1.171.37.35 (release 13-08-2014 CrysAlis171 .NET)
(compiled Aug 13 2014,18:06:01)
;
_computing_data_collection
;
CrysAlisPro, Agilent Technologies,
Version 1.171.37.35 (release 13-08-2014 CrysAlis171 .NET)
(compiled Aug 13 2014,18:06:01)
;
_computing_data_reduction
;
CrysAlisPro, Agilent Technologies,
Version 1.171.37.35 (release 13-08-2014 CrysAlis171 .NET)
(compiled Aug 13 2014,18:06:01)
;
_computing_structure_refinement  'Jana2006 (Petricek, 2014)'
_computing_structure_solution    'SHELXS-2013 (Sheldrick, 2013)'
_diffrn_ambient_pressure         40900000
_diffrn_ambient_temperature      293
_diffrn_detector                 'MAR555 flatpanel detector'
_diffrn_measured_fraction_theta_full 0.95
_diffrn_measured_fraction_theta_max 0.65
_diffrn_measurement_device
;
customized omega-circle diffractometer
;
_diffrn_measurement_device_type  'ESRF, beamline ID09A diffractometer'
_diffrn_measurement_method       '\w scans'
_diffrn_radiation_monochromator  synchrotron
_diffrn_radiation_probe          x-ray
_diffrn_radiation_source         synchrotron
_diffrn_radiation_type           synchrotron
_diffrn_radiation_wavelength     0.41409
_diffrn_reflns_av_R_equivalents  0.0663
_diffrn_reflns_av_unetI/netI     0.0699
_diffrn_reflns_limit_h_max       11
_diffrn_reflns_limit_h_min       -11
_diffrn_reflns_limit_k_max       6
_diffrn_reflns_limit_k_min       -8
_diffrn_reflns_limit_l_max       7
_diffrn_reflns_limit_l_min       -6
_diffrn_reflns_number            766
_diffrn_reflns_theta_full        11.92
_diffrn_reflns_theta_max         19.18
_diffrn_reflns_theta_min         1.97
_diffrn_source                   synchrotron
_exptl_absorpt_coefficient_mu    0.329
_exptl_absorpt_correction_T_max  1
_exptl_absorpt_correction_T_min  0.378
_exptl_absorpt_correction_type   multi-scan
_exptl_absorpt_process_details
;
CrysAlisPro, Agilent Technologies,
Version 1.171.37.35 (release 13-08-2014 CrysAlis171 .NET)
(compiled Aug 13 2014,18:06:01)
Empirical absorption correction using spherical harmonics,
 implemented in SCALE3 ABSPACK scaling algorithm.
;
_exptl_crystal_colour            black
_exptl_crystal_density_diffrn    2.9295
_exptl_crystal_description       plate
_exptl_crystal_F_000             284
_exptl_crystal_size_max          0.020
_exptl_crystal_size_mid          0.010
_exptl_crystal_size_min          0.005
_refine_diff_density_max         0.87
_refine_diff_density_min         -0.88
_refine_ls_extinction_method     none
_refine_ls_goodness_of_fit_gt    2.40
_refine_ls_goodness_of_fit_ref   2.19
_refine_ls_number_constraints    0
_refine_ls_number_parameters     18
_refine_ls_number_reflns         262
_refine_ls_number_restraints     0
_refine_ls_R_factor_all          0.0915
_refine_ls_R_factor_gt           0.0756
_refine_ls_shift/su_max          0.0001
_refine_ls_shift/su_mean         0.0000
_refine_ls_structure_factor_coef Fsqd
_refine_ls_weighting_details     w=1/(\s^2^(I)+0.0004I^2^)
_refine_ls_weighting_scheme      sigma
_refine_ls_wR_factor_gt          0.1542
_refine_ls_wR_factor_ref         0.1607
_reflns_number_gt                205
_reflns_number_total             262
_reflns_threshold_expression     I>2\s(I)
_cod_data_source_file            fe1.32B50_40.9GPa.cif
_cod_data_source_block           Fe1.3B50_40.9GPa
_cod_depositor_comments
;
The following automatic conversions were performed:

data item '_diffrn_radiation_probe' value 'X-ray' was changed to
'x-ray' in accordance with the built-in table derived from the CIF
Core dictionary named 'cif_core.dic' version 2.4.5 last updated on
2014-11-21.

Automatic conversion script
Id: cif_fix_values 8369 2020-08-20 11:38:08Z andrius 
;
_cod_original_sg_symbol_H-M      'P 42/n n m'
_cod_database_code               1561753
loop_
_symmetry_equiv_pos_site_id
_symmetry_equiv_pos_as_xyz
1 x,y,z
2 -x+1/2,-y+1/2,z
3 -y+1/2,x,z+1/2
4 y,-x+1/2,z+1/2
5 -x+1/2,y,-z+1/2
6 x,-y+1/2,-z+1/2
7 y,x,-z
8 -y+1/2,-x+1/2,-z
9 -x,-y,-z
10 x+1/2,y+1/2,-z
11 y+1/2,-x,-z+1/2
12 -y,x+1/2,-z+1/2
13 x+1/2,-y,z+1/2
14 -x,y+1/2,z+1/2
15 -y,-x,z
16 y+1/2,x+1/2,z
loop_
_atom_site_label
_atom_site_type_symbol
_atom_site_fract_x
_atom_site_fract_y
_atom_site_fract_z
_atom_site_adp_type
_atom_site_U_iso_or_equiv
_atom_site_site_symmetry_multiplicity
_atom_site_occupancy
_atom_site_calc_flag
_atom_site_refinement_flags
_atom_site_disorder_assembly
_atom_site_disorder_group
Fe1 Fe -0.25 0.25 0.25 Uani 0.0073(6) 2 0.6621 d . . .
B4 B -0.0776(5) -0.1595(5) 0.1506(8) Uiso 0.0052(9) 16 1 d . . .
B5 B -0.1688(5) 0.0214(5) 0.1612(8) Uiso 0.0025(8) 16 1 d . . .
B2 B 0.1235(5) -0.1235(5) 0.1405(11) Uiso 0.0036(11) 8 1 d . . .
B3 B 0.0034(5) -0.0034(5) 0.3363(11) Uiso 0.0032(11) 8 1 d . . .
B1 B 0.25 -0.25 0.25 Uiso 0.004(2) 2 1 d . . .
loop_
_atom_site_aniso_label
_atom_site_aniso_type_symbol
_atom_site_aniso_U_11
_atom_site_aniso_U_22
_atom_site_aniso_U_33
_atom_site_aniso_U_12
_atom_site_aniso_U_13
_atom_site_aniso_U_23
Fe1 Fe 0.0054(9) 0.0054(9) 0.0112(12) 0 0 0
loop_
_atom_type_symbol
_atom_type_scat_dispersion_real
_atom_type_scat_dispersion_imag
_atom_type_scat_source
B -0.0003 0.0002 'International Tables Vol C tables 4.2.6.8 and 6.1.1.1'
Fe 0.1988 0.3099 'International Tables Vol C tables 4.2.6.8 and 6.1.1.1'
loop_
_geom_angle_atom_site_label_1
_geom_angle_atom_site_label_2
_geom_angle_atom_site_label_3
_geom_angle_site_symmetry_1
_geom_angle_site_symmetry_2
_geom_angle_site_symmetry_3
_geom_angle
B5 Fe1 B5 . . 2_455 156.61(15)
B5 Fe1 B5 . . 5_455 45.35(16)
B5 Fe1 B5 . . 6_555 141.72(16)
B5 Fe1 B5 . . 11_455 92.36(16)
B5 Fe1 B5 . . 12_555 92.36(16)
B5 Fe1 B5 . . 15_555 49.75(16)
B5 Fe1 B5 . . 16_455 124.33(16)
B5 Fe1 B2 . . 3_455 83.84(15)
B5 Fe1 B2 . . 4_555 114.98(15)
B5 Fe1 B2 . . 7_555 44.41(15)
B5 Fe1 B2 . . 8_455 113.54(15)
B5 Fe1 B1 . . 3_454 78.30(10)
B5 Fe1 B1 . . 3_455 101.70(10)
B5 Fe1 B5 2_455 . 5_455 141.72(16)
B5 Fe1 B5 2_455 . 6_555 45.35(16)
B5 Fe1 B5 2_455 . 11_455 92.36(16)
B5 Fe1 B5 2_455 . 12_555 92.36(16)
B5 Fe1 B5 2_455 . 15_555 124.33(16)
B5 Fe1 B5 2_455 . 16_455 49.75(16)
B5 Fe1 B2 2_455 . 3_455 114.98(15)
B5 Fe1 B2 2_455 . 4_555 83.84(15)
B5 Fe1 B2 2_455 . 7_555 113.54(15)
B5 Fe1 B2 2_455 . 8_455 44.41(15)
B5 Fe1 B1 2_455 . 3_454 78.30(10)
B5 Fe1 B1 2_455 . 3_455 101.70(10)
B5 Fe1 B5 5_455 . 6_555 156.61(15)
B5 Fe1 B5 5_455 . 11_455 49.75(16)
B5 Fe1 B5 5_455 . 12_555 124.33(16)
B5 Fe1 B5 5_455 . 15_555 92.36(16)
B5 Fe1 B5 5_455 . 16_455 92.36(16)
B5 Fe1 B2 5_455 . 3_455 44.41(15)
B5 Fe1 B2 5_455 . 4_555 113.54(15)
B5 Fe1 B2 5_455 . 7_555 83.84(15)
B5 Fe1 B2 5_455 . 8_455 114.98(15)
B5 Fe1 B1 5_455 . 3_454 101.70(10)
B5 Fe1 B1 5_455 . 3_455 78.30(10)
B5 Fe1 B5 6_555 . 11_455 124.33(16)
B5 Fe1 B5 6_555 . 12_555 49.75(16)
B5 Fe1 B5 6_555 . 15_555 92.36(16)
B5 Fe1 B5 6_555 . 16_455 92.36(16)
B5 Fe1 B2 6_555 . 3_455 113.54(15)
B5 Fe1 B2 6_555 . 4_555 44.41(15)
B5 Fe1 B2 6_555 . 7_555 114.98(15)
B5 Fe1 B2 6_555 . 8_455 83.84(15)
B5 Fe1 B1 6_555 . 3_454 101.70(10)
B5 Fe1 B1 6_555 . 3_455 78.30(10)
B5 Fe1 B5 11_455 . 12_555 156.61(15)
B5 Fe1 B5 11_455 . 15_555 141.72(16)
B5 Fe1 B5 11_455 . 16_455 45.35(16)
B5 Fe1 B2 11_455 . 3_455 44.41(15)
B5 Fe1 B2 11_455 . 4_555 113.54(15)
B5 Fe1 B2 11_455 . 7_555 114.98(15)
B5 Fe1 B2 11_455 . 8_455 83.84(15)
B5 Fe1 B1 11_455 . 3_454 101.70(10)
B5 Fe1 B1 11_455 . 3_455 78.30(10)
B5 Fe1 B5 12_555 . 15_555 45.35(16)
B5 Fe1 B5 12_555 . 16_455 141.72(16)
B5 Fe1 B2 12_555 . 3_455 113.54(15)
B5 Fe1 B2 12_555 . 4_555 44.41(15)
B5 Fe1 B2 12_555 . 7_555 83.84(15)
B5 Fe1 B2 12_555 . 8_455 114.98(15)
B5 Fe1 B1 12_555 . 3_454 101.70(10)
B5 Fe1 B1 12_555 . 3_455 78.30(10)
B5 Fe1 B5 15_555 . 16_455 156.61(15)
B5 Fe1 B2 15_555 . 3_455 114.98(15)
B5 Fe1 B2 15_555 . 4_555 83.84(15)
B5 Fe1 B2 15_555 . 7_555 44.41(15)
B5 Fe1 B2 15_555 . 8_455 113.54(15)
B5 Fe1 B1 15_555 . 3_454 78.30(10)
B5 Fe1 B1 15_555 . 3_455 101.70(10)
B5 Fe1 B2 16_455 . 3_455 83.84(15)
B5 Fe1 B2 16_455 . 4_555 114.98(15)
B5 Fe1 B2 16_455 . 7_555 113.54(15)
B5 Fe1 B2 16_455 . 8_455 44.41(15)
B5 Fe1 B1 16_455 . 3_454 78.30(10)
B5 Fe1 B1 16_455 . 3_455 101.70(10)
B2 Fe1 B2 3_455 . 4_555 78.05(16)
B2 Fe1 B2 3_455 . 7_555 127.12(15)
B2 Fe1 B2 3_455 . 8_455 127.12(15)
B2 Fe1 B1 3_455 . 3_454 140.97(11)
B2 Fe1 B1 3_455 . 3_455 39.03(11)
B2 Fe1 B2 4_555 . 7_555 127.12(15)
B2 Fe1 B2 4_555 . 8_455 127.12(15)
B2 Fe1 B1 4_555 . 3_454 140.97(11)
B2 Fe1 B1 4_555 . 3_455 39.03(11)
B2 Fe1 B2 7_555 . 8_455 78.05(16)
B2 Fe1 B1 7_555 . 3_454 39.03(11)
B2 Fe1 B1 7_555 . 3_455 140.97(11)
B2 Fe1 B1 8_455 . 3_454 39.03(11)
B2 Fe1 B1 8_455 . 3_455 140.97(11)
B1 Fe1 B1 3_454 . 3_455 180.0(5)
B4 B4 B4 6_545 . 7_555 140.7(3)
B4 B4 B5 6_545 . . 138.0(3)
B4 B4 B5 6_545 . 7_555 114.9(3)
B4 B4 B2 6_545 . . 99.5(3)
B4 B4 B3 6_545 . . 112.1(3)
B4 B4 B5 7_555 . . 59.4(2)
B4 B4 B5 7_555 . 7_555 59.5(2)
B4 B4 B2 7_555 . . 107.4(3)
B4 B4 B3 7_555 . . 106.1(3)
B5 B4 B5 . . 7_555 106.7(3)
B5 B4 B2 . . . 106.6(3)
B5 B4 B3 . . . 58.8(2)
B5 B4 B2 7_555 . . 60.2(3)
B5 B4 B3 7_555 . . 106.7(3)
B2 B4 B3 . . . 59.4(3)
Fe1 B5 B4 . . . 167.7(3)
Fe1 B5 B4 . . 7_555 130.0(3)
Fe1 B5 B5 . . 5_455 67.3(2)
Fe1 B5 B5 . . 15_555 65.13(18)
Fe1 B5 B2 . . 7_555 77.3(2)
Fe1 B5 B3 . . . 107.2(2)
B4 B5 B4 . . 7_555 61.1(2)
B4 B5 B5 . . 5_455 113.5(3)
B4 B5 B5 . . 15_555 108.2(3)
B4 B5 B2 . . 7_555 108.8(3)
B4 B5 B3 . . . 61.1(2)
B4 B5 B5 7_555 . 5_455 119.8(3)
B4 B5 B5 7_555 . 15_555 108.3(3)
B4 B5 B2 7_555 . 7_555 60.4(2)
B4 B5 B3 7_555 . . 109.3(3)
B5 B5 B5 5_455 . 15_555 127.0(3)
B5 B5 B2 5_455 . 7_555 129.0(3)
B5 B5 B3 5_455 . . 118.1(3)
B5 B5 B2 15_555 . 7_555 59.3(2)
B5 B5 B3 15_555 . . 58.6(2)
B2 B5 B3 7_555 . . 106.5(3)
Fe1 B2 B4 3_554 . . 112.4(3)
Fe1 B2 B4 3_554 . 15_555 112.4(3)
Fe1 B2 B5 3_554 . 7_555 58.3(2)
Fe1 B2 B5 3_554 . 9_555 58.3(2)
Fe1 B2 B3 3_554 . . 162.1(3)
Fe1 B2 B1 3_554 . . 70.06(16)
B4 B2 B4 . . 15_555 110.3(3)
B4 B2 B5 . . 7_555 59.4(2)
B4 B2 B5 . . 9_555 109.3(3)
B4 B2 B3 . . . 60.4(2)
B4 B2 B1 . . . 122.0(3)
B4 B2 B5 15_555 . 7_555 109.3(3)
B4 B2 B5 15_555 . 9_555 59.4(2)
B4 B2 B3 15_555 . . 60.4(2)
B4 B2 B1 15_555 . . 122.0(3)
B5 B2 B5 7_555 . 9_555 61.5(3)
B5 B2 B3 7_555 . . 107.0(3)
B5 B2 B1 7_555 . . 117.4(3)
B5 B2 B3 9_555 . . 107.0(3)
B5 B2 B1 9_555 . . 117.4(3)
B3 B2 B1 . . . 127.8(4)
B4 B3 B4 . . 15_555 109.9(3)
B4 B3 B5 . . . 60.1(2)
B4 B3 B5 . . 15_555 110.7(3)
B4 B3 B2 . . . 60.2(3)
B4 B3 B3 . . 7_556 121.7(3)
B4 B3 B5 15_555 . . 110.7(3)
B4 B3 B5 15_555 . 15_555 60.1(2)
B4 B3 B2 15_555 . . 60.2(3)
B4 B3 B3 15_555 . 7_556 121.7(3)
B5 B3 B5 . . 15_555 62.8(2)
B5 B3 B2 . . . 108.2(4)
B5 B3 B3 . . 7_556 117.3(3)
B5 B3 B2 15_555 . . 108.2(4)
B5 B3 B3 15_555 . 7_556 117.3(3)
B2 B3 B3 . . 7_556 126.0(4)
Fe1 B1 Fe1 3_554 . 3_555 180.0(5)
Fe1 B1 B2 3_554 . . 70.92(19)
Fe1 B1 B2 3_554 . 2_545 70.92(19)
Fe1 B1 B2 3_554 . 5_555 109.08(19)
Fe1 B1 B2 3_554 . 6_545 109.08(19)
Fe1 B1 B2 3_555 . . 109.08(19)
Fe1 B1 B2 3_555 . 2_545 109.08(19)
Fe1 B1 B2 3_555 . 5_555 70.92(19)
Fe1 B1 B2 3_555 . 6_545 70.92(19)
B2 B1 B2 . . 2_545 141.8(3)
B2 B1 B2 . . 5_555 96.1(2)
B2 B1 B2 . . 6_545 96.1(2)
B2 B1 B2 2_545 . 5_555 96.1(2)
B2 B1 B2 2_545 . 6_545 96.1(2)
B2 B1 B2 5_555 . 6_545 141.8(3)
loop_
_geom_bond_atom_site_label_1
_geom_bond_atom_site_label_2
_geom_bond_site_symmetry_1
_geom_bond_site_symmetry_2
_geom_bond_distance
Fe1 B5 . . 2.108(4)
Fe1 B5 . 2_455 2.108(4)
Fe1 B5 . 5_455 2.108(4)
Fe1 B5 . 6_555 2.108(4)
Fe1 B5 . 11_455 2.108(4)
Fe1 B5 . 12_555 2.108(4)
Fe1 B5 . 15_555 2.108(4)
Fe1 B5 . 16_455 2.108(4)
Fe1 B2 . 3_455 2.418(5)
Fe1 B2 . 4_555 2.418(5)
Fe1 B2 . 7_555 2.418(5)
Fe1 B2 . 8_455 2.418(5)
Fe1 B1 . 3_454 2.4049(8)
Fe1 B1 . 3_455 2.4049(8)
B4 B4 . 6_545 1.813(6)
B4 B4 . 7_555 1.752(6)
B4 B5 . . 1.725(6)
B4 B5 . 7_555 1.721(6)
B4 B2 . . 1.739(6)
B4 B3 . . 1.743(6)
B5 B5 . 5_455 1.625(6)
B5 B5 . 15_555 1.773(6)
B5 B2 . 7_555 1.734(6)
B5 B3 . . 1.703(6)
B2 B3 . . 1.725(7)
B2 B1 . . 1.611(4)
B3 B3 . 7_556 1.577(8)
loop_
_refln_index_h
_refln_index_k
_refln_index_l
_refln_F_squared_calc
_refln_F_squared_meas
_refln_F_squared_sigma
_refln_observed_status
1 0 1 511.96 506.73 15.24 o
1 0 3 450.93 535.87 26.22 o
1 0 5 97.75 111.44 18.64 o
1 1 0 1499.23 1340.90 24.45 o
1 1 1 616.37 711.54 16.97 o
1 1 2 816.73 831.89 22.96 o
1 1 3 371.38 491.42 30.70 o
1 1 4 343.10 352.22 22.22 o
1 1 5 5.50 3.74 3.85 <
1 1 6 153.54 93.81 11.91 o
2 0 0 105.60 101.92 6.77 o
2 0 2 239.54 261.38 10.87 o
2 0 4 896.38 1027.77 39.13 o
2 0 6 699.98 637.51 41.61 o
2 1 1 386.14 381.10 8.71 o
2 1 2 4.49 12.61 2.35 o
2 1 3 188.90 211.67 11.64 o
2 1 4 17.13 7.13 3.10 o
2 1 5 89.01 77.47 12.68 o
2 1 6 30.71 13.28 5.88 o
2 2 0 500.23 649.07 43.41 o
2 2 1 0.00 1.19 0.72 <
2 2 2 614.77 738.25 25.10 o
2 2 3 1.12 9.90 3.79 o
2 2 4 513.31 582.07 41.08 o
2 2 5 3.00 7.90 5.30 <
2 2 6 216.05 191.50 24.92 o
3 0 1 165.02 125.10 6.89 o
3 0 3 196.87 162.37 11.98 o
3 1 0 1141.64 1199.75 23.27 o
3 1 1 1039.94 1246.11 18.42 o
3 1 2 714.26 685.52 18.96 o
3 1 3 1388.24 1438.37 21.36 o
3 1 4 286.57 327.59 18.01 o
3 1 5 26.49 40.18 9.26 o
3 1 6 103.73 101.93 15.37 o
3 2 1 54.06 27.30 4.73 o
3 2 2 24.55 34.35 3.62 o
3 2 3 275.13 265.39 12.74 o
3 2 4 4.39 16.71 3.84 o
3 2 5 271.44 320.36 25.47 o
3 2 6 3.27 0.40 2.95 <
3 3 1 486.45 569.60 28.34 o
3 3 2 567.56 617.49 29.04 o
3 3 3 1151.84 1396.68 44.48 o
3 3 4 171.85 222.33 19.23 o
3 3 5 159.15 275.44 31.72 o
3 3 6 99.76 88.40 18.71 o
4 0 0 324.72 333.68 18.16 o
4 0 2 692.08 646.71 20.54 o
4 0 4 719.95 911.99 36.80 o
4 0 6 97.77 50.46 8.36 o
4 1 1 1439.72 1611.87 22.78 o
4 1 2 71.59 75.00 5.99 o
4 1 3 69.91 83.16 6.34 o
4 1 4 7.31 15.06 3.24 o
4 1 5 34.37 39.84 15.73 o
4 1 6 19.99 3.86 3.63 <
4 1 7 1.26 -4.13 20.57 <
4 2 0 875.47 857.33 34.76 o
4 2 1 0.01 0.71 1.67 <
4 2 2 534.23 512.14 18.10 o
4 2 3 0.19 3.22 3.52 <
4 2 4 195.55 196.50 13.38 o
4 2 5 0.32 4.17 3.50 <
4 2 6 95.29 113.13 15.25 o
4 3 1 379.03 352.11 21.75 o
4 3 2 667.42 671.26 21.56 o
4 3 3 205.27 200.82 11.27 o
4 3 4 277.45 403.26 19.00 o
4 3 5 38.25 48.67 6.86 o
4 3 6 40.28 48.11 8.47 o
4 4 1 20.44 12.82 5.91 o
4 4 2 704.23 597.76 33.83 o
4 4 3 21.28 24.79 6.28 o
4 4 4 0.18 1.74 3.71 <
4 4 5 9.06 11.53 6.10 <
4 4 6 0.08 1.83 6.42 <
5 0 1 1620.92 1388.17 29.98 o
5 0 3 10.08 6.37 4.39 <
5 0 5 131.83 170.94 14.42 o
5 1 0 549.38 527.31 19.21 o
5 1 1 42.15 45.35 3.94 o
5 1 2 517.21 489.76 15.83 o
5 1 3 65.76 75.07 6.64 o
5 1 4 322.55 398.72 18.64 o
5 1 5 0.43 5.95 4.67 <
5 1 6 84.15 63.46 33.24 <
5 2 1 807.76 753.10 22.46 o
5 2 2 991.44 879.87 26.40 o
5 2 3 133.42 128.39 10.92 o
5 2 4 281.80 341.63 18.16 o
5 2 5 3.73 1.73 1.68 <
5 2 6 132.89 180.01 42.56 o
5 2 7 5.20 4.87 7.58 <
5 3 0 529.70 470.23 30.21 o
5 3 1 2.54 3.20 3.65 <
5 3 2 397.31 450.40 22.47 o
5 3 3 1.23 1.19 2.93 <
5 3 4 209.68 282.57 18.85 o
5 3 5 40.95 43.15 6.67 o
5 3 6 103.59 133.51 19.92 o
5 4 1 160.58 88.87 14.92 o
5 4 2 47.70 25.01 5.48 o
5 4 3 336.02 355.28 17.26 o
5 4 4 20.89 13.92 2.82 o
5 4 5 917.67 1243.29 42.73 o
5 4 6 3.51 1.12 3.17 <
5 5 1 0.33 0.35 12.11 <
5 5 2 316.48 298.63 28.72 o
5 5 3 0.20 0.13 4.14 <
5 5 4 34.64 28.37 5.08 o
5 5 5 6.56 18.59 7.36 o
5 5 6 64.77 51.60 10.74 o
6 0 0 188.08 149.51 15.64 o
6 0 2 20.92 30.39 4.60 o
6 0 4 977.41 1060.83 42.20 o
6 1 1 51.90 29.57 3.47 o
6 1 2 372.42 329.01 15.76 o
6 1 3 277.24 235.88 14.06 o
6 1 4 99.46 90.33 9.08 o
6 1 5 674.96 789.54 31.88 o
6 2 0 3111.73 3139.01 69.12 o
6 2 1 13.49 6.99 3.41 o
6 2 2 1016.40 979.55 28.14 o
6 2 3 6.12 19.24 6.54 o
6 2 4 14.60 13.58 7.47 <
6 2 5 24.92 10.06 7.87 <
6 3 1 814.24 773.49 29.73 o
6 3 2 257.09 218.43 15.77 o
6 3 3 39.23 42.95 8.53 o
6 3 4 67.82 66.52 10.34 o
6 3 5 39.02 64.76 10.37 o
6 4 0 14.07 10.68 6.03 <
6 4 1 2.16 11.69 9.94 <
6 4 2 63.82 69.63 11.59 o
6 4 3 9.57 6.74 2.15 o
6 4 4 625.84 736.62 31.47 o
6 4 5 3.48 -0.59 7.18 <
6 4 6 570.98 908.02 66.33 o
6 5 1 245.65 200.19 27.11 o
6 5 2 12.67 22.13 10.76 o
6 5 3 65.19 59.90 10.20 o
6 5 4 1.49 0.83 1.95 <
6 5 5 7.90 22.65 18.90 <
6 5 6 20.83 14.61 8.61 <
6 6 2 431.29 330.82 36.96 o
6 6 3 123.67 94.44 17.85 o
6 6 4 135.67 159.75 35.40 o
7 0 1 2.52 0.53 2.45 <
7 0 3 169.32 87.13 14.18 o
7 0 5 377.12 380.37 27.30 o
7 1 0 288.91 258.08 23.76 o
7 1 1 8.92 7.13 1.90 o
7 1 2 219.23 230.19 12.49 o
7 1 3 8.35 8.15 8.52 <
7 1 4 167.28 172.18 15.74 o
7 1 5 7.93 9.17 3.78 o
7 2 1 185.23 210.74 14.91 o
7 2 2 240.50 267.66 14.30 o
7 2 3 102.39 99.08 11.50 o
7 2 4 133.47 155.85 13.05 o
7 2 5 33.20 17.11 5.72 o
7 3 0 75.66 74.03 12.57 o
7 3 1 14.58 5.93 4.79 <
7 3 2 224.19 236.43 17.19 o
7 3 3 49.18 55.12 8.87 o
7 3 4 416.17 498.48 28.50 o
7 3 5 9.49 18.95 8.50 o
7 4 1 135.98 127.46 16.08 o
7 4 2 9.56 9.02 3.63 o
7 4 3 47.17 58.86 9.33 o
7 4 4 4.57 5.55 6.39 <
7 4 5 31.54 18.49 15.55 <
7 5 0 376.36 318.53 37.24 o
7 5 1 111.58 72.05 13.98 o
7 5 2 277.07 288.42 29.27 o
7 5 3 241.72 166.38 22.67 o
7 5 4 113.26 113.53 15.90 o
7 5 5 0.20 0.78 10.58 <
7 6 1 613.20 626.82 81.12 o
7 6 2 105.32 80.94 26.00 o
7 6 3 30.91 25.77 15.94 <
7 6 4 28.31 13.59 9.33 <
8 0 0 877.84 1037.41 52.58 o
8 0 2 389.67 322.85 24.13 o
8 0 4 26.20 24.36 2.26 o
8 1 1 175.49 189.08 10.93 o
8 1 2 4.85 -2.39 2.38 <
8 1 3 109.49 108.33 10.83 o
8 1 4 20.07 20.20 5.71 o
8 1 5 22.95 14.57 5.94 o
8 2 0 163.94 154.70 16.29 o
8 2 1 17.01 16.53 4.57 o
8 2 2 189.43 206.42 13.44 o
8 2 3 59.09 55.79 10.45 o
8 2 4 201.02 263.11 25.78 o
8 2 5 10.07 27.00 20.78 <
8 3 1 423.90 460.86 24.15 o
8 3 2 28.93 29.56 6.39 o
8 3 3 20.17 22.77 5.32 o
8 3 4 10.05 16.08 5.08 o
8 3 5 10.46 2.71 8.59 <
8 4 0 177.58 158.86 21.94 o
8 4 1 124.50 101.74 11.86 o
8 4 2 243.21 215.15 27.97 o
8 4 3 290.55 282.79 33.76 o
8 4 4 233.27 287.65 37.77 o
8 4 5 1.86 2.30 12.42 <
8 5 1 0.29 3.03 7.68 <
8 5 3 59.03 25.99 16.21 <
8 5 4 146.69 139.23 27.21 o
8 5 5 175.01 156.91 44.29 o
8 6 4 136.95 53.83 15.23 o
9 0 1 0.72 2.13 3.35 <
9 0 3 199.74 223.27 22.78 o
9 1 0 1307.09 1291.24 44.96 o
9 1 1 157.96 131.87 9.72 o
9 1 2 440.26 471.91 22.67 o
9 1 3 492.92 488.36 25.98 o
9 1 4 2.44 2.74 6.49 <
9 1 5 54.44 63.32 14.88 o
9 2 1 248.67 239.04 18.00 o
9 2 2 131.64 121.89 13.53 o
9 2 3 57.53 53.95 11.13 o
9 2 4 19.91 22.98 10.74 o
9 2 5 0.32 8.12 17.47 <
9 3 0 180.74 154.14 29.04 o
9 3 1 221.08 203.74 18.66 o
9 3 2 193.34 187.81 20.41 o
9 3 3 609.40 611.55 42.54 o
9 3 4 157.89 162.61 22.32 o
9 4 1 188.48 155.57 34.73 o
9 4 2 289.15 235.64 30.55 o
9 4 3 9.89 5.41 5.88 <
9 4 4 116.39 177.12 29.17 o
9 5 3 198.03 173.37 31.31 o
10 0 0 124.60 106.72 27.45 o
10 0 2 119.36 127.53 18.79 o
10 0 4 118.29 132.24 27.58 o
10 1 1 150.97 178.71 19.62 o
10 1 2 86.42 68.63 9.42 o
10 1 3 32.44 30.37 6.21 o
10 1 4 16.79 8.68 6.38 <
10 2 1 292.15 273.86 27.96 o
10 2 2 182.95 194.58 22.35 o
10 2 3 613.22 772.13 50.28 o
10 2 4 133.39 170.63 25.08 o
10 3 1 0.36 4.04 25.68 <
10 3 2 0.71 -4.73 5.87 <
10 3 3 91.42 90.07 15.41 o
10 3 4 17.29 12.05 11.11 <
10 4 2 84.09 68.69 28.52 o
10 4 3 194.96 182.46 29.47 o
10 5 3 28.82 36.26 11.84 o
11 0 3 15.76 30.93 21.50 <
11 1 2 19.92 17.69 8.91 <
11 1 3 10.75 7.46 3.87 <
11 1 4 593.29 531.36 41.47 o
11 3 3 28.49 -2.59 5.92 <
11 4 3 70.10 41.22 14.27 o
11 5 3 1.00 -12.99 13.50 <
