#------------------------------------------------------------------------------
#$Date: 2021-04-14 13:26:34 +0300 (Wed, 14 Apr 2021) $
#$Revision: 264170 $
#$URL: file:///home/coder/svn-repositories/cod/cif/1/56/17/1561775.cif $
#------------------------------------------------------------------------------
#
# This file is available in the Crystallography Open Database (COD),
# http://www.crystallography.net/
#
# All data on this site have been placed in the public domain by the
# contributors.
#
data_1561775
loop_
_publ_author_name
'Bykova, E.'
'Gou, H.'
'Bykov, M.'
'Hanfland, M.'
'Dubrovinsky, L.'
'Dubrovinskaia, N.'
_publ_section_title
;
 Crystal structures and compressibility of novel iron borides Fe2B7 and Fe
 B50 synthesized at high pressure and high temperature
;
_journal_name_full               'Journal of Solid State Chemistry'
_journal_page_first              102
_journal_page_last               109
_journal_paper_doi               10.1016/j.jssc.2015.06.040
_journal_volume                  230
_journal_year                    2015
_chemical_absolute_configuration .
_chemical_formula_moiety         'B50 Fe1.01'
_chemical_formula_sum            'B50 Fe1.01'
_chemical_formula_weight         596.9
_chemical_name_common            'Iron Boron (1.01/50)'
_chemical_name_systematic        'Iron Boron (1.01/50)'
_space_group_IT_number           134
_space_group_name_Hall           '-P 4ac 2bc'
_space_group_name_H-M_alt        'P 42/n n m :2'
_symmetry_cell_setting           tetragonal
_symmetry_Int_Tables_number      134
_symmetry_space_group_name_Hall  '-P 4ac 2bc'
_symmetry_space_group_name_H-M   'P 42/n n m :2'
_cell_angle_alpha                90
_cell_angle_beta                 90
_cell_angle_gamma                90
_cell_formula_units_Z            1
_cell_length_a                   8.4155(6)
_cell_length_b                   8.4155(6)
_cell_length_c                   4.7516(5)
_cell_measurement_reflns_used    278
_cell_measurement_temperature    293
_cell_measurement_theta_max      18.82
_cell_measurement_theta_min      1.99
_cell_volume                     336.51(5)
_computing_cell_refinement
;
CrysAlisPro, Agilent Technologies,
Version 1.171.37.35 (release 13-08-2014 CrysAlis171 .NET)
(compiled Aug 13 2014,18:06:01)
;
_computing_data_collection
;
CrysAlisPro, Agilent Technologies,
Version 1.171.37.35 (release 13-08-2014 CrysAlis171 .NET)
(compiled Aug 13 2014,18:06:01)
;
_computing_data_reduction
;
CrysAlisPro, Agilent Technologies,
Version 1.171.37.35 (release 13-08-2014 CrysAlis171 .NET)
(compiled Aug 13 2014,18:06:01)
;
_computing_structure_refinement  'Jana2006 (Petricek, 2014)'
_computing_structure_solution    'SHELXS-2013 (Sheldrick, 2013)'
_diffrn_ambient_pressure         47300000
_diffrn_ambient_temperature      293
_diffrn_detector                 'MAR555 flatpanel detector'
_diffrn_measured_fraction_theta_full 0.96
_diffrn_measured_fraction_theta_max 0.68
_diffrn_measurement_device
;
customized omega-circle diffractometer
;
_diffrn_measurement_device_type  'ESRF, beamline ID09A diffractometer'
_diffrn_measurement_method       '\w scans'
_diffrn_radiation_monochromator  synchrotron
_diffrn_radiation_probe          x-ray
_diffrn_radiation_source         synchrotron
_diffrn_radiation_type           synchrotron
_diffrn_radiation_wavelength     0.41409
_diffrn_reflns_av_R_equivalents  0.0509
_diffrn_reflns_av_unetI/netI     0.0579
_diffrn_reflns_limit_h_max       7
_diffrn_reflns_limit_h_min       -9
_diffrn_reflns_limit_k_max       12
_diffrn_reflns_limit_k_min       -12
_diffrn_reflns_limit_l_max       7
_diffrn_reflns_limit_l_min       -6
_diffrn_reflns_number            782
_diffrn_reflns_theta_full        14.26
_diffrn_reflns_theta_max         19.22
_diffrn_reflns_theta_min         2
_diffrn_source                   synchrotron
_exptl_absorpt_coefficient_mu    0.275
_exptl_absorpt_correction_T_max  1
_exptl_absorpt_correction_T_min  0.139
_exptl_absorpt_correction_type   multi-scan
_exptl_absorpt_process_details
;
CrysAlisPro, Agilent Technologies,
Version 1.171.37.35 (release 13-08-2014 CrysAlis171 .NET)
(compiled Aug 13 2014,18:06:01)
Empirical absorption correction using spherical harmonics,
 implemented in SCALE3 ABSPACK scaling algorithm.
;
_exptl_crystal_colour            black
_exptl_crystal_density_diffrn    2.9445
_exptl_crystal_description       plate
_exptl_crystal_F_000             276
_exptl_crystal_size_max          0.020
_exptl_crystal_size_mid          0.020
_exptl_crystal_size_min          0.005
_refine_diff_density_max         0.81
_refine_diff_density_min         -0.75
_refine_ls_extinction_method     none
_refine_ls_goodness_of_fit_gt    2.70
_refine_ls_goodness_of_fit_ref   2.49
_refine_ls_number_constraints    0
_refine_ls_number_parameters     18
_refine_ls_number_reflns         267
_refine_ls_number_restraints     0
_refine_ls_R_factor_all          0.0888
_refine_ls_R_factor_gt           0.0793
_refine_ls_shift/su_max          0.0002
_refine_ls_shift/su_mean         0.0001
_refine_ls_structure_factor_coef Fsqd
_refine_ls_weighting_details     w=1/(\s^2^(I)+0.0004I^2^)
_refine_ls_weighting_scheme      sigma
_refine_ls_wR_factor_gt          0.1570
_refine_ls_wR_factor_ref         0.1595
_reflns_number_gt                223
_reflns_number_total             267
_reflns_threshold_expression     I>2\s(I)
_cod_data_source_file            feb50_47.3GPa.cif
_cod_data_source_block           Fe1.0B50_47.3GPa
_cod_depositor_comments
;
The following automatic conversions were performed:

data item '_diffrn_radiation_probe' value 'X-ray' was changed to
'x-ray' in accordance with the built-in table derived from the CIF
Core dictionary named 'cif_core.dic' version 2.4.5 last updated on
2014-11-21.

Automatic conversion script
Id: cif_fix_values 8369 2020-08-20 11:38:08Z andrius 
;
_cod_original_sg_symbol_H-M      'P 42/n n m'
_cod_database_code               1561775
loop_
_symmetry_equiv_pos_site_id
_symmetry_equiv_pos_as_xyz
1 x,y,z
2 -x+1/2,-y+1/2,z
3 -y+1/2,x,z+1/2
4 y,-x+1/2,z+1/2
5 -x+1/2,y,-z+1/2
6 x,-y+1/2,-z+1/2
7 y,x,-z
8 -y+1/2,-x+1/2,-z
9 -x,-y,-z
10 x+1/2,y+1/2,-z
11 y+1/2,-x,-z+1/2
12 -y,x+1/2,-z+1/2
13 x+1/2,-y,z+1/2
14 -x,y+1/2,z+1/2
15 -y,-x,z
16 y+1/2,x+1/2,z
loop_
_atom_site_label
_atom_site_type_symbol
_atom_site_fract_x
_atom_site_fract_y
_atom_site_fract_z
_atom_site_adp_type
_atom_site_U_iso_or_equiv
_atom_site_site_symmetry_multiplicity
_atom_site_occupancy
_atom_site_calc_flag
_atom_site_refinement_flags
_atom_site_disorder_assembly
_atom_site_disorder_group
Fe1 Fe -0.25 0.25 0.25 Uani 0.0059(6) 2 0.5049 d . . .
B4 B -0.0785(4) -0.1599(4) 0.1508(7) Uiso 0.0054(8) 16 1 d . . .
B5 B -0.1691(4) 0.0228(4) 0.1601(6) Uiso 0.0047(8) 16 1 d . . .
B2 B 0.1233(4) -0.1233(4) 0.1435(9) Uiso 0.0042(9) 8 1 d . . .
B3 B 0.0028(4) -0.0028(4) 0.3369(9) Uiso 0.0049(10) 8 1 d . . .
B1 B 0.25 -0.25 0.25 Uiso 0.0046(17) 2 1 d . . .
loop_
_atom_site_aniso_label
_atom_site_aniso_type_symbol
_atom_site_aniso_U_11
_atom_site_aniso_U_22
_atom_site_aniso_U_33
_atom_site_aniso_U_12
_atom_site_aniso_U_13
_atom_site_aniso_U_23
Fe1 Fe 0.0047(9) 0.0047(9) 0.0084(12) 0 0 0
loop_
_atom_type_symbol
_atom_type_scat_dispersion_real
_atom_type_scat_dispersion_imag
_atom_type_scat_source
B -0.0003 0.0002 'International Tables Vol C tables 4.2.6.8 and 6.1.1.1'
Fe 0.1991 0.3106 'International Tables Vol C tables 4.2.6.8 and 6.1.1.1'
loop_
_geom_angle_atom_site_label_1
_geom_angle_atom_site_label_2
_geom_angle_atom_site_label_3
_geom_angle_site_symmetry_1
_geom_angle_site_symmetry_2
_geom_angle_site_symmetry_3
_geom_angle
B5 Fe1 B5 . . 2_455 156.23(12)
B5 Fe1 B5 . . 5_455 45.59(12)
B5 Fe1 B5 . . 6_555 141.68(13)
B5 Fe1 B5 . . 11_455 92.43(13)
B5 Fe1 B5 . . 12_555 92.43(13)
B5 Fe1 B5 . . 15_555 49.65(13)
B5 Fe1 B5 . . 16_455 124.24(12)
B5 Fe1 B2 . . 3_455 84.08(12)
B5 Fe1 B2 . . 4_555 115.08(12)
B5 Fe1 B2 . . 7_555 44.34(12)
B5 Fe1 B2 . . 8_455 113.24(12)
B5 Fe1 B1 . . 3_454 78.12(8)
B5 Fe1 B1 . . 3_455 101.88(8)
B5 Fe1 B5 2_455 . 5_455 141.68(13)
B5 Fe1 B5 2_455 . 6_555 45.59(12)
B5 Fe1 B5 2_455 . 11_455 92.43(13)
B5 Fe1 B5 2_455 . 12_555 92.43(13)
B5 Fe1 B5 2_455 . 15_555 124.24(12)
B5 Fe1 B5 2_455 . 16_455 49.65(13)
B5 Fe1 B2 2_455 . 3_455 115.08(12)
B5 Fe1 B2 2_455 . 4_555 84.08(12)
B5 Fe1 B2 2_455 . 7_555 113.24(12)
B5 Fe1 B2 2_455 . 8_455 44.34(12)
B5 Fe1 B1 2_455 . 3_454 78.12(8)
B5 Fe1 B1 2_455 . 3_455 101.88(8)
B5 Fe1 B5 5_455 . 6_555 156.23(12)
B5 Fe1 B5 5_455 . 11_455 49.65(13)
B5 Fe1 B5 5_455 . 12_555 124.24(12)
B5 Fe1 B5 5_455 . 15_555 92.43(13)
B5 Fe1 B5 5_455 . 16_455 92.43(13)
B5 Fe1 B2 5_455 . 3_455 44.34(12)
B5 Fe1 B2 5_455 . 4_555 113.24(12)
B5 Fe1 B2 5_455 . 7_555 84.08(12)
B5 Fe1 B2 5_455 . 8_455 115.08(12)
B5 Fe1 B1 5_455 . 3_454 101.88(8)
B5 Fe1 B1 5_455 . 3_455 78.12(8)
B5 Fe1 B5 6_555 . 11_455 124.24(12)
B5 Fe1 B5 6_555 . 12_555 49.65(13)
B5 Fe1 B5 6_555 . 15_555 92.43(13)
B5 Fe1 B5 6_555 . 16_455 92.43(13)
B5 Fe1 B2 6_555 . 3_455 113.24(12)
B5 Fe1 B2 6_555 . 4_555 44.34(12)
B5 Fe1 B2 6_555 . 7_555 115.08(12)
B5 Fe1 B2 6_555 . 8_455 84.08(12)
B5 Fe1 B1 6_555 . 3_454 101.88(8)
B5 Fe1 B1 6_555 . 3_455 78.12(8)
B5 Fe1 B5 11_455 . 12_555 156.23(12)
B5 Fe1 B5 11_455 . 15_555 141.68(13)
B5 Fe1 B5 11_455 . 16_455 45.59(12)
B5 Fe1 B2 11_455 . 3_455 44.34(12)
B5 Fe1 B2 11_455 . 4_555 113.24(12)
B5 Fe1 B2 11_455 . 7_555 115.08(12)
B5 Fe1 B2 11_455 . 8_455 84.08(12)
B5 Fe1 B1 11_455 . 3_454 101.88(8)
B5 Fe1 B1 11_455 . 3_455 78.12(8)
B5 Fe1 B5 12_555 . 15_555 45.59(12)
B5 Fe1 B5 12_555 . 16_455 141.68(13)
B5 Fe1 B2 12_555 . 3_455 113.24(12)
B5 Fe1 B2 12_555 . 4_555 44.34(12)
B5 Fe1 B2 12_555 . 7_555 84.08(12)
B5 Fe1 B2 12_555 . 8_455 115.08(12)
B5 Fe1 B1 12_555 . 3_454 101.88(8)
B5 Fe1 B1 12_555 . 3_455 78.12(8)
B5 Fe1 B5 15_555 . 16_455 156.23(12)
B5 Fe1 B2 15_555 . 3_455 115.08(12)
B5 Fe1 B2 15_555 . 4_555 84.08(12)
B5 Fe1 B2 15_555 . 7_555 44.34(12)
B5 Fe1 B2 15_555 . 8_455 113.24(12)
B5 Fe1 B1 15_555 . 3_454 78.12(8)
B5 Fe1 B1 15_555 . 3_455 101.88(8)
B5 Fe1 B2 16_455 . 3_455 84.08(12)
B5 Fe1 B2 16_455 . 4_555 115.08(12)
B5 Fe1 B2 16_455 . 7_555 113.24(12)
B5 Fe1 B2 16_455 . 8_455 44.34(12)
B5 Fe1 B1 16_455 . 3_454 78.12(8)
B5 Fe1 B1 16_455 . 3_455 101.88(8)
B2 Fe1 B2 3_455 . 4_555 77.76(12)
B2 Fe1 B2 3_455 . 7_555 127.30(12)
B2 Fe1 B2 3_455 . 8_455 127.30(12)
B2 Fe1 B1 3_455 . 3_454 141.12(9)
B2 Fe1 B1 3_455 . 3_455 38.88(9)
B2 Fe1 B2 4_555 . 7_555 127.30(12)
B2 Fe1 B2 4_555 . 8_455 127.30(12)
B2 Fe1 B1 4_555 . 3_454 141.12(9)
B2 Fe1 B1 4_555 . 3_455 38.88(9)
B2 Fe1 B2 7_555 . 8_455 77.76(12)
B2 Fe1 B1 7_555 . 3_454 38.88(9)
B2 Fe1 B1 7_555 . 3_455 141.12(9)
B2 Fe1 B1 8_455 . 3_454 38.88(9)
B2 Fe1 B1 8_455 . 3_455 141.12(9)
B1 Fe1 B1 3_454 . 3_455 180.0(5)
B4 B4 B4 6_545 . 7_555 140.7(3)
B4 B4 B5 6_545 . . 138.3(2)
B4 B4 B5 6_545 . 7_555 114.7(2)
B4 B4 B2 6_545 . . 99.3(2)
B4 B4 B3 6_545 . . 112.3(2)
B4 B4 B5 7_555 . . 59.40(18)
B4 B4 B5 7_555 . 7_555 59.92(19)
B4 B4 B2 7_555 . . 107.6(2)
B4 B4 B3 7_555 . . 106.1(2)
B5 B4 B5 . . 7_555 106.5(2)
B5 B4 B2 . . . 106.1(2)
B5 B4 B3 . . . 58.58(19)
B5 B4 B2 7_555 . . 60.0(2)
B5 B4 B3 7_555 . . 106.2(2)
B2 B4 B3 . . . 59.0(2)
Fe1 B5 B4 . . . 167.6(2)
Fe1 B5 B4 . . 7_555 130.8(2)
Fe1 B5 B5 . . 5_455 67.20(16)
Fe1 B5 B5 . . 15_555 65.18(15)
Fe1 B5 B2 . . 7_555 78.02(17)
Fe1 B5 B3 . . . 107.3(2)
B4 B5 B4 . . 7_555 60.68(19)
B4 B5 B5 . . 5_455 112.9(2)
B4 B5 B5 . . 15_555 108.6(2)
B4 B5 B2 . . 7_555 108.7(2)
B4 B5 B3 . . . 61.14(19)
B4 B5 B5 7_555 . 5_455 119.9(2)
B4 B5 B5 7_555 . 15_555 108.7(2)
B4 B5 B2 7_555 . 7_555 60.57(19)
B4 B5 B3 7_555 . . 109.1(2)
B5 B5 B5 5_455 . 15_555 126.8(2)
B5 B5 B2 5_455 . 7_555 129.6(3)
B5 B5 B3 5_455 . . 117.5(3)
B5 B5 B2 15_555 . 7_555 59.51(19)
B5 B5 B3 15_555 . . 58.93(19)
B2 B5 B3 7_555 . . 106.8(2)
Fe1 B2 B4 3_554 . . 111.9(2)
Fe1 B2 B4 3_554 . 15_555 111.9(2)
Fe1 B2 B5 3_554 . 7_555 57.64(16)
Fe1 B2 B5 3_554 . 9_555 57.64(16)
Fe1 B2 B3 3_554 . . 161.5(3)
Fe1 B2 B1 3_554 . . 69.67(13)
B4 B2 B4 . . 15_555 110.5(2)
B4 B2 B5 . . 7_555 59.47(19)
B4 B2 B5 . . 9_555 109.0(3)
B4 B2 B3 . . . 60.64(19)
B4 B2 B1 . . . 122.2(2)
B4 B2 B5 15_555 . 7_555 109.0(3)
B4 B2 B5 15_555 . 9_555 59.47(19)
B4 B2 B3 15_555 . . 60.64(19)
B4 B2 B1 15_555 . . 122.2(2)
B5 B2 B5 7_555 . 9_555 61.0(2)
B5 B2 B3 7_555 . . 107.1(2)
B5 B2 B1 7_555 . . 116.6(2)
B5 B2 B3 9_555 . . 107.1(2)
B5 B2 B1 9_555 . . 116.6(2)
B3 B2 B1 . . . 128.8(3)
B4 B3 B4 . . 15_555 110.1(3)
B4 B3 B5 . . . 60.3(2)
B4 B3 B5 . . 15_555 110.5(3)
B4 B3 B2 . . . 60.4(2)
B4 B3 B3 . . 7_556 121.4(3)
B4 B3 B5 15_555 . . 110.5(3)
B4 B3 B5 15_555 . 15_555 60.3(2)
B4 B3 B2 15_555 . . 60.4(2)
B4 B3 B3 15_555 . 7_556 121.4(3)
B5 B3 B5 . . 15_555 62.1(2)
B5 B3 B2 . . . 108.6(3)
B5 B3 B3 . . 7_556 117.8(3)
B5 B3 B2 15_555 . . 108.6(3)
B5 B3 B3 15_555 . 7_556 117.8(3)
B2 B3 B3 . . 7_556 125.1(3)
Fe1 B1 Fe1 3_554 . 3_555 180.0(5)
Fe1 B1 B2 3_554 . . 71.45(15)
Fe1 B1 B2 3_554 . 2_545 71.45(15)
Fe1 B1 B2 3_554 . 5_555 108.55(15)
Fe1 B1 B2 3_554 . 6_545 108.55(15)
Fe1 B1 B2 3_555 . . 108.55(15)
Fe1 B1 B2 3_555 . 2_545 108.55(15)
Fe1 B1 B2 3_555 . 5_555 71.45(15)
Fe1 B1 B2 3_555 . 6_545 71.45(15)
B2 B1 B2 . . 2_545 142.9(2)
B2 B1 B2 . . 5_555 95.81(17)
B2 B1 B2 . . 6_545 95.81(17)
B2 B1 B2 2_545 . 5_555 95.81(17)
B2 B1 B2 2_545 . 6_545 95.81(17)
B2 B1 B2 5_555 . 6_545 142.9(2)
loop_
_geom_bond_atom_site_label_1
_geom_bond_atom_site_label_2
_geom_bond_site_symmetry_1
_geom_bond_site_symmetry_2
_geom_bond_distance
Fe1 B5 . . 2.074(3)
Fe1 B5 . 2_455 2.074(3)
Fe1 B5 . 5_455 2.074(3)
Fe1 B5 . 6_555 2.074(3)
Fe1 B5 . 11_455 2.074(3)
Fe1 B5 . 12_555 2.074(3)
Fe1 B5 . 15_555 2.074(3)
Fe1 B5 . 16_455 2.074(3)
Fe1 B2 . 3_455 2.402(4)
Fe1 B2 . 4_555 2.402(4)
Fe1 B2 . 7_555 2.402(4)
Fe1 B2 . 8_455 2.402(4)
Fe1 B1 . 3_454 2.3758(5)
Fe1 B1 . 3_455 2.3758(5)
B4 B4 . 6_545 1.785(5)
B4 B4 . 7_555 1.730(5)
B4 B5 . . 1.717(5)
B4 B5 . 7_555 1.708(4)
B4 B2 . . 1.727(5)
B4 B3 . . 1.731(5)
B5 B5 . 5_455 1.607(4)
B5 B5 . 15_555 1.742(5)
B5 B2 . 7_555 1.716(5)
B5 B3 . . 1.687(5)
B2 B3 . . 1.703(5)
B2 B1 . . 1.590(3)
B3 B3 . 7_556 1.552(6)
loop_
_refln_index_h
_refln_index_k
_refln_index_l
_refln_F_squared_calc
_refln_F_squared_meas
_refln_F_squared_sigma
_refln_observed_status
1 0 1 240.23 281.82 7.97 o
1 0 3 250.51 263.59 12.68 o
1 0 5 61.03 79.01 10.79 o
1 1 0 968.91 993.15 15.03 o
1 1 1 590.41 720.17 12.77 o
1 1 2 530.98 510.39 12.62 o
1 1 3 362.45 453.33 11.90 o
1 1 4 235.51 241.60 11.21 o
1 1 5 3.68 2.63 0.55 o
1 1 6 109.18 135.67 16.97 o
2 0 0 277.04 228.93 6.76 o
2 0 2 107.40 121.63 5.41 o
2 0 4 694.08 801.95 30.23 o
2 1 1 177.54 175.60 4.71 o
2 1 2 3.84 5.02 0.95 o
2 1 3 94.10 97.02 4.14 o
2 1 4 9.16 6.60 1.07 o
2 1 5 46.86 45.76 4.41 o
2 1 6 21.59 24.50 4.61 o
2 2 0 249.49 327.95 13.25 o
2 2 1 0.00 0.63 0.83 <
2 2 2 382.72 475.96 15.13 o
2 2 3 0.44 0.40 0.46 <
2 2 4 377.43 398.82 17.24 o
2 2 5 0.95 -2.75 5.06 <
2 2 6 163.29 251.20 32.19 o
3 0 1 41.15 28.25 2.23 o
3 0 3 110.93 82.31 4.86 o
3 0 5 116.04 145.15 15.78 o
3 1 0 721.61 767.41 12.53 o
3 1 1 1018.81 1182.98 12.41 o
3 1 2 449.54 439.83 9.02 o
3 1 3 1358.89 1387.05 17.68 o
3 1 4 189.96 205.58 10.25 o
3 1 5 25.72 44.13 6.91 o
3 1 6 78.54 91.86 15.97 o
3 2 1 2.55 -0.04 0.65 <
3 2 2 19.08 21.73 1.90 o
3 2 3 160.89 145.48 7.07 o
3 2 4 4.03 5.53 1.49 o
3 2 5 202.83 266.08 14.76 o
3 2 6 2.00 2.24 3.11 <
3 2 7 44.20 85.56 24.84 o
3 3 0 725.45 660.53 34.54 o
3 3 1 459.03 506.30 20.66 o
3 3 2 375.76 410.80 17.97 o
3 3 3 1021.91 1163.55 31.16 o
3 3 4 107.22 124.22 10.78 o
3 3 5 114.16 181.13 14.76 o
3 3 6 64.19 61.57 16.41 o
4 0 0 134.46 165.17 8.44 o
4 0 2 418.27 456.22 11.95 o
4 0 4 554.79 577.06 18.14 o
4 1 1 1044.01 1171.61 12.73 o
4 1 2 69.48 66.96 3.62 o
4 1 3 24.18 39.08 3.08 o
4 1 4 8.82 9.52 1.88 o
4 1 5 57.93 71.84 7.50 o
4 1 6 17.57 20.00 6.84 o
4 2 0 543.11 564.17 20.04 o
4 2 1 0.16 0.14 0.47 <
4 2 2 332.45 324.71 9.42 o
4 2 3 0.59 -0.16 1.03 <
4 2 4 130.73 110.20 6.23 o
4 2 5 0.25 0.81 0.81 <
4 2 6 75.17 94.41 14.61 o
4 3 1 204.09 183.12 9.51 o
4 3 2 667.70 642.78 17.20 o
4 3 3 107.05 100.87 5.99 o
4 3 4 260.20 307.25 12.97 o
4 3 5 20.18 17.95 2.87 o
4 3 6 42.31 56.88 7.39 o
4 3 7 0.76 10.58 15.53 <
4 4 1 16.82 16.41 3.93 o
4 4 2 538.46 433.53 23.07 o
4 4 3 18.77 20.78 4.49 o
4 4 4 7.02 5.96 1.90 o
4 4 5 6.54 5.21 2.92 <
4 4 6 5.99 4.76 4.66 <
5 0 1 1269.54 1184.08 19.22 o
5 0 3 0.21 0.58 1.68 <
5 0 5 185.08 177.52 11.33 o
5 1 0 357.81 359.23 10.43 o
5 1 1 40.75 49.40 2.73 o
5 1 2 334.17 323.04 8.83 o
5 1 3 70.47 78.37 5.08 o
5 1 4 214.49 216.55 8.28 o
5 1 5 0.00 1.94 2.29 <
5 1 6 64.35 51.92 8.47 o
5 2 1 539.99 481.44 12.44 o
5 2 2 964.63 934.47 17.93 o
5 2 3 62.82 64.19 5.44 o
5 2 4 279.84 330.29 12.03 o
5 2 5 9.75 12.72 3.24 o
5 2 6 121.06 166.78 14.80 o
5 3 0 338.86 306.34 18.08 o
5 3 1 3.48 1.77 1.45 <
5 3 2 260.41 276.00 11.20 o
5 3 3 0.00 0.35 0.80 <
5 3 4 144.36 157.58 8.17 o
5 3 5 27.42 42.39 5.21 o
5 3 6 73.44 75.95 9.65 o
5 4 1 256.13 168.61 14.80 o
5 4 2 42.40 29.38 4.50 o
5 4 3 222.39 206.97 9.59 o
5 4 4 16.96 6.09 1.40 o
5 4 5 752.29 1040.69 30.65 o
5 4 6 3.43 -0.29 4.01 <
5 5 1 0.02 -0.97 2.38 <
5 5 2 209.05 166.71 15.73 o
5 5 3 0.83 1.42 2.21 <
5 5 4 20.17 5.94 2.32 o
5 5 5 5.11 13.49 4.54 o
5 5 6 39.65 38.19 14.02 o
6 0 0 279.44 248.80 13.56 o
6 0 2 3.07 9.79 2.23 o
6 0 4 781.15 1017.68 34.05 o
6 1 1 123.02 82.08 4.06 o
6 1 2 346.49 332.67 9.85 o
6 1 3 183.31 179.34 8.90 o
6 1 4 98.57 118.25 6.99 o
6 1 5 552.56 671.99 21.55 o
6 1 6 48.94 46.54 8.65 o
6 2 0 2586.39 2366.75 38.69 o
6 2 1 9.39 19.84 3.73 o
6 2 2 769.24 726.14 18.48 o
6 2 3 5.41 4.35 1.20 o
6 2 4 35.39 40.96 6.63 o
6 2 5 14.50 8.29 2.77 o
6 2 6 112.78 182.62 20.59 o
6 3 1 609.80 565.81 18.22 o
6 3 2 247.18 207.52 10.73 o
6 3 3 11.18 9.90 2.35 o
6 3 4 70.75 68.49 8.02 o
6 3 5 62.32 90.34 10.41 o
6 3 6 37.05 47.93 9.68 o
6 4 0 47.14 38.96 6.97 o
6 4 1 3.35 1.93 3.44 <
6 4 2 25.81 22.11 4.48 o
6 4 3 11.78 8.85 2.28 o
6 4 4 494.20 532.93 17.66 o
6 4 5 2.53 6.83 3.21 o
6 4 6 452.12 624.72 38.43 o
6 5 1 135.15 132.91 15.53 o
6 5 2 12.21 6.50 2.33 o
6 5 3 30.68 19.82 3.75 o
6 5 4 0.21 -1.72 1.28 <
6 5 5 3.10 1.57 2.70 <
6 6 1 66.18 71.08 21.22 o
6 6 2 276.41 194.15 19.23 o
6 6 3 123.90 85.17 17.19 o
7 0 1 24.19 14.20 2.29 o
7 0 3 98.53 90.32 7.55 o
7 0 5 283.34 449.19 25.01 o
7 1 0 156.68 144.16 7.89 o
7 1 1 6.42 5.53 1.22 o
7 1 2 134.53 139.56 6.69 o
7 1 3 5.82 4.95 1.96 o
7 1 4 124.08 153.02 10.49 o
7 1 5 6.22 3.89 1.72 o
7 2 1 99.93 107.56 6.85 o
7 2 2 214.51 221.13 10.64 o
7 2 3 52.50 43.09 5.23 o
7 2 4 104.34 129.99 13.01 o
7 2 5 17.07 9.71 1.54 o
7 2 6 11.20 7.51 3.03 o
7 3 0 24.58 27.40 7.31 o
7 3 1 12.21 9.91 2.61 o
7 3 2 130.68 123.19 8.58 o
7 3 3 40.96 49.48 6.74 o
7 3 4 321.65 336.16 27.13 o
7 3 5 8.06 10.46 2.91 o
7 3 6 136.98 165.56 24.34 o
7 4 1 66.28 60.66 7.22 o
7 4 2 7.75 1.79 3.12 <
7 4 3 24.31 19.58 3.90 o
7 4 4 3.23 1.47 4.57 <
7 4 5 17.45 4.44 4.17 <
7 5 0 267.40 191.83 19.03 o
7 5 1 113.95 72.84 11.12 o
7 5 2 185.84 167.25 16.68 o
7 5 3 255.86 197.32 20.22 o
7 5 4 69.32 47.74 8.42 o
7 6 1 444.67 323.29 32.77 o
7 6 2 91.14 53.49 13.00 o
8 0 0 623.36 679.65 26.81 o
8 0 2 272.51 278.47 12.88 o
8 0 4 15.54 12.78 6.53 <
8 1 1 78.38 97.25 5.01 o
8 1 2 1.96 -2.47 2.07 <
8 1 3 59.01 54.92 6.32 o
8 1 4 10.88 10.72 3.42 o
8 1 5 18.14 13.74 6.89 <
8 2 0 86.29 85.18 8.28 o
8 2 1 18.13 14.10 2.47 o
8 2 2 113.84 113.01 7.69 o
8 2 3 57.01 50.02 6.62 o
8 2 4 146.14 136.52 25.43 o
8 2 5 7.13 9.77 6.21 <
8 3 1 311.53 291.06 12.68 o
8 3 2 25.95 21.30 4.36 o
8 3 3 5.88 6.06 3.79 <
8 3 4 8.21 20.33 12.11 <
8 3 5 22.28 23.56 15.03 <
8 4 0 111.51 77.42 11.16 o
8 4 1 123.36 83.26 8.60 o
8 4 2 159.28 136.91 17.01 o
8 4 3 283.91 261.53 20.79 o
8 4 4 163.55 197.35 18.63 o
8 5 1 1.71 -2.44 5.77 <
8 5 4 116.52 65.73 12.06 o
9 0 1 12.67 5.92 2.05 o
9 0 3 125.95 176.48 15.98 o
9 1 0 1073.73 1050.75 26.24 o
9 1 1 149.98 138.75 6.70 o
9 1 2 331.59 386.95 16.18 o
9 1 3 440.66 534.05 20.49 o
9 1 4 9.35 16.12 4.92 o
9 2 1 152.30 153.61 10.44 o
9 2 2 158.97 151.43 11.91 o
9 2 3 28.52 28.03 5.68 o
9 2 4 33.43 34.99 6.59 o
9 3 0 113.88 106.11 12.69 o
9 3 1 192.84 168.38 11.68 o
9 3 2 125.38 117.28 11.56 o
9 3 3 514.11 529.09 33.89 o
9 3 4 109.96 129.03 17.49 o
9 4 1 132.02 100.41 19.04 o
9 4 2 251.28 201.25 20.38 o
9 5 3 166.32 145.12 17.78 o
10 0 0 73.51 64.25 14.04 o
10 0 2 75.89 70.43 10.39 o
10 0 4 84.04 120.34 22.55 o
10 1 1 116.37 114.83 9.31 o
10 1 2 79.78 86.68 8.06 o
10 1 3 12.65 15.37 5.25 o
10 1 4 18.28 20.09 7.93 o
10 2 0 130.65 116.01 14.45 o
10 2 1 271.93 234.32 20.50 o
10 2 2 128.04 139.42 12.04 o
10 2 3 580.68 643.91 34.21 o
10 2 4 91.10 133.94 26.29 o
10 3 1 6.86 7.55 4.16 <
10 3 2 1.07 2.44 2.55 <
10 3 3 57.10 55.50 10.99 o
10 3 4 8.20 1.28 9.30 <
10 4 2 48.06 44.14 12.67 o
10 4 3 167.47 120.70 17.06 o
10 5 3 14.91 20.32 8.55 o
11 0 1 84.19 109.82 19.48 o
11 0 3 7.33 8.67 4.30 o
11 1 1 3.85 8.25 7.41 <
11 1 2 6.90 7.70 5.02 <
11 1 3 9.67 6.58 2.85 o
11 2 1 0.33 2.55 4.24 <
11 2 2 6.56 5.85 18.76 <
11 2 3 16.86 12.25 5.95 o
11 2 4 0.92 3.64 3.58 <
11 3 1 6.45 15.52 9.92 <
11 3 2 142.26 146.77 22.32 o
11 3 3 22.17 27.87 9.96 o
11 4 2 56.11 47.08 15.41 o
11 4 3 37.85 22.90 7.69 o
12 1 3 8.54 7.31 5.48 <
12 2 2 2.41 4.48 2.53 <
12 2 3 151.35 123.61 22.78 o
12 3 2 0.67 -3.17 3.25 <
