#------------------------------------------------------------------------------
#$Date: 2021-04-14 13:02:28 +0300 (Wed, 14 Apr 2021) $
#$Revision: 264154 $
#$URL: file:///home/coder/svn-repositories/cod/cif/1/56/17/1561759.cif $
#------------------------------------------------------------------------------
#
# This file is available in the Crystallography Open Database (COD),
# http://www.crystallography.net/
#
# All data on this site have been placed in the public domain by the
# contributors.
#
data_1561759
loop_
_publ_author_name
'Bykova, E.'
'Gou, H.'
'Bykov, M.'
'Hanfland, M.'
'Dubrovinsky, L.'
'Dubrovinskaia, N.'
_publ_section_title
;
 Crystal structures and compressibility of novel iron borides Fe2B7 and Fe
 B50 synthesized at high pressure and high temperature
;
_journal_name_full               'Journal of Solid State Chemistry'
_journal_page_first              102
_journal_page_last               109
_journal_paper_doi               10.1016/j.jssc.2015.06.040
_journal_volume                  230
_journal_year                    2015
_chemical_absolute_configuration .
_chemical_compound_source
;
high-pressure high-temperature synthesis
;
_chemical_formula_moiety         'B7 Fe2'
_chemical_formula_sum            'B7 Fe2'
_chemical_formula_weight         187.4
_chemical_name_common            'diiron heptaboride'
_chemical_name_systematic        'diiron heptaboride'
_space_group_IT_number           55
_space_group_name_Hall           '-P 2 2ab'
_space_group_name_H-M_alt        'P b a m'
_symmetry_cell_setting           orthorhombic
_symmetry_Int_Tables_number      55
_symmetry_space_group_name_Hall  '-P 2 2ab'
_symmetry_space_group_name_H-M   'P b a m'
_cell_angle_alpha                90
_cell_angle_beta                 90
_cell_angle_gamma                90
_cell_formula_units_Z            8
_cell_length_a                   16.6018(11)
_cell_length_b                   10.5290(2)
_cell_length_c                   2.83400(10)
_cell_measurement_reflns_used    476
_cell_measurement_temperature    293
_cell_measurement_theta_max      18.2020
_cell_measurement_theta_min      4.4020
_cell_volume                     495.38(4)
_computing_cell_refinement
;
CrysAlisPro, Agilent Technologies,
Version 1.171.37.35 (release 13-08-2014 CrysAlis171 .NET)
(compiled Aug 13 2014,18:06:01)
;
_computing_data_collection
;
CrysAlisPro, Agilent Technologies,
Version 1.171.37.35 (release 13-08-2014 CrysAlis171 .NET)
(compiled Aug 13 2014,18:06:01)
;
_computing_data_reduction
;
CrysAlisPro, Agilent Technologies,
Version 1.171.37.35 (release 13-08-2014 CrysAlis171 .NET)
(compiled Aug 13 2014,18:06:01)
;
_computing_structure_refinement  'Jana2006 (Petricek, 2014)'
_computing_structure_solution    'SHELXS-2013 (Sheldrick, 2013)'
_diffrn_ambient_pressure         16100000
_diffrn_ambient_temperature      293
_diffrn_detector                 'MAR555 flatpanel detector'
_diffrn_measured_fraction_theta_full 0.87
_diffrn_measured_fraction_theta_max 0.55
_diffrn_measurement_device
;
customized omega-circle diffractometer
;
_diffrn_measurement_device_type  'ESRF, beamline ID09A diffractometer'
_diffrn_measurement_method       '\w scans'
_diffrn_radiation_monochromator  synchrotron
_diffrn_radiation_probe          x-ray
_diffrn_radiation_source         synchrotron
_diffrn_radiation_type           synchrotron
_diffrn_radiation_wavelength     0.41441
_diffrn_reflns_av_R_equivalents  0.0418
_diffrn_reflns_av_unetI/netI     0.0282
_diffrn_reflns_limit_h_max       18
_diffrn_reflns_limit_h_min       -18
_diffrn_reflns_limit_k_max       15
_diffrn_reflns_limit_k_min       -15
_diffrn_reflns_limit_l_max       3
_diffrn_reflns_limit_l_min       -3
_diffrn_reflns_number            2141
_diffrn_reflns_theta_full        13.18
_diffrn_reflns_theta_max         19.29
_diffrn_reflns_theta_min         1.82
_diffrn_source                   synchrotron
_exptl_absorpt_coefficient_mu    2.361
_exptl_absorpt_correction_T_max  1.00000
_exptl_absorpt_correction_T_min  0.37964
_exptl_absorpt_correction_type   multi-scan
_exptl_absorpt_process_details
;
CrysAlisPro, Agilent Technologies,
Version 1.171.37.35 (release 13-08-2014 CrysAlis171 .NET)
(compiled Aug 13 2014,18:06:01)
Empirical absorption correction using spherical harmonics,
 implemented in SCALE3 ABSPACK scaling algorithm.
;
_exptl_crystal_colour            black
_exptl_crystal_density_diffrn    5.0228
_exptl_crystal_description       plate
_exptl_crystal_F_000             696
_exptl_crystal_size_max          0.025
_exptl_crystal_size_mid          0.025
_exptl_crystal_size_min          0.005
_refine_ls_extinction_method     none
_refine_ls_goodness_of_fit_gt    2.08
_refine_ls_goodness_of_fit_ref   1.97
_refine_ls_number_constraints    0
_refine_ls_number_parameters     67
_refine_ls_number_reflns         684
_refine_ls_number_restraints     0
_refine_ls_R_factor_all          0.0425
_refine_ls_R_factor_gt           0.0398
_refine_ls_shift/su_max          0.0003
_refine_ls_shift/su_mean         0.0000
_refine_ls_structure_factor_coef Fsqd
_refine_ls_weighting_details     w=1/(\s^2^(I)+0.0004I^2^)
_refine_ls_weighting_scheme      sigma
_refine_ls_wR_factor_gt          0.0872
_refine_ls_wR_factor_ref         0.0891
_reflns_number_gt                600
_reflns_number_total             684
_reflns_threshold_expression     I>2\s(I)
_cod_data_source_file            Fe2B7_16.1GPa.cif
_cod_data_source_block           Fe2B7_16.1GPa
_cod_depositor_comments
;
The following automatic conversions were performed:

data item '_diffrn_radiation_probe' value 'X-ray' was changed to
'x-ray' in accordance with the built-in table derived from the CIF
Core dictionary named 'cif_core.dic' version 2.4.5 last updated on
2014-11-21.

Automatic conversion script
Id: cif_fix_values 8369 2020-08-20 11:38:08Z andrius 
;
_cod_database_code               1561759
loop_
_symmetry_equiv_pos_site_id
_symmetry_equiv_pos_as_xyz
1 x,y,z
2 -x,-y,z
3 -x+1/2,y+1/2,-z
4 x+1/2,-y+1/2,-z
5 -x,-y,-z
6 x,y,-z
7 x+1/2,-y+1/2,z
8 -x+1/2,y+1/2,z
loop_
_atom_site_label
_atom_site_type_symbol
_atom_site_fract_x
_atom_site_fract_y
_atom_site_fract_z
_atom_site_adp_type
_atom_site_U_iso_or_equiv
_atom_site_site_symmetry_multiplicity
_atom_site_occupancy
_atom_site_calc_flag
_atom_site_refinement_flags
_atom_site_disorder_assembly
_atom_site_disorder_group
Fe1 Fe 0.22123(7) 0.46726(8) 0.5 Uani 0.0053(3) 4 1 d . . .
Fe2 Fe 0.12116(7) 0.17897(8) 0 Uani 0.0046(3) 4 1 d . . .
Fe3 Fe 0.46508(7) 0.10594(8) 0.5 Uani 0.0041(3) 4 1 d . . .
Fe4 Fe 0.38941(7) 0.26628(8) 0 Uani 0.0045(3) 4 1 d . . .
B1 B 0.3680(5) 0.0497(6) 0 Uiso 0.0027(12) 4 1 d . . .
B2 B 0.0471(5) 0.4606(6) 0 Uiso 0.0057(13) 4 1 d . . .
B3 B 0.3032(5) 0.3915(6) 0 Uiso 0.0051(13) 4 1 d . . .
B4 B 0.1399(5) 0.3756(6) 0 Uiso 0.0034(12) 4 1 d . . .
B5 B 0.4444(5) 0.4032(6) 0.5 Uiso 0.0055(13) 4 1 d . . .
B6 B 0.2003(5) 0.0443(6) 0 Uiso 0.0031(12) 4 1 d . . .
B7 B 0.2886(5) 0.2884(6) 0.5 Uiso 0.0034(12) 4 1 d . . .
B8 B 0.0334(6) 0.3041(6) 0 Uiso 0.0057(13) 4 1 d . . .
B9 B 0.3987(5) 0.4756(6) 0 Uiso 0.0029(12) 4 1 d . . .
B10 B 0.0544(5) 0.0592(6) 0.5 Uiso 0.0047(13) 4 1 d . . .
B11 B 0.0175(5) 0.2115(6) 0.5 Uiso 0.0041(12) 4 1 d . . .
B12 B 0.3389(5) 0.1382(6) 0.5 Uiso 0.0056(13) 4 1 d . . .
B13 B 0.2199(5) 0.1441(6) 0.5 Uiso 0.0045(13) 4 1 d . . .
B14 B 0.1793(5) 0.2909(7) 0.5 Uiso 0.0072(13) 4 1 d . . .
loop_
_atom_site_aniso_label
_atom_site_aniso_type_symbol
_atom_site_aniso_U_11
_atom_site_aniso_U_22
_atom_site_aniso_U_33
_atom_site_aniso_U_12
_atom_site_aniso_U_13
_atom_site_aniso_U_23
Fe1 Fe 0.0070(7) 0.0014(4) 0.0073(4) 0.0003(3) 0 0
Fe2 Fe 0.0064(7) 0.0027(4) 0.0046(4) 0.0002(4) 0 0
Fe3 Fe 0.0077(7) 0.0020(4) 0.0027(4) 0.0000(4) 0 0
Fe4 Fe 0.0071(7) 0.0029(4) 0.0033(4) 0.0002(4) 0 0
loop_
_atom_type_symbol
_atom_type_scat_dispersion_real
_atom_type_scat_dispersion_imag
_atom_type_scat_source
B -0.0003 0.0002 'International Tables Vol C tables 4.2.6.8 and 6.1.1.1'
Fe 0.1991 0.3104 'International Tables Vol C tables 4.2.6.8 and 6.1.1.1'
loop_
_geom_angle_atom_site_label_1
_geom_angle_atom_site_label_2
_geom_angle_atom_site_label_3
_geom_angle_site_symmetry_1
_geom_angle_site_symmetry_2
_geom_angle_site_symmetry_3
_geom_angle
Fe1 Fe1 Fe1 1_554 . 1_556 180.0(5)
Fe1 Fe1 B1 1_554 . 3_555 50.47(13)
Fe1 Fe1 B1 1_554 . 3_556 129.53(14)
Fe1 Fe1 B3 1_554 . . 48.07(15)
Fe1 Fe1 B3 1_554 . 1_556 131.93(16)
Fe1 Fe1 B4 1_554 . . 49.52(14)
Fe1 Fe1 B4 1_554 . 1_556 130.48(14)
Fe1 Fe1 B6 1_554 . 3_555 47.29(15)
Fe1 Fe1 B6 1_554 . 3_556 132.71(16)
Fe1 Fe1 B7 1_554 . . 90.00(3)
Fe1 Fe1 B12 1_554 . 3_556 90.00(3)
Fe1 Fe1 B13 1_554 . 3_556 90.00(3)
Fe1 Fe1 B14 1_554 . . 90.00(2)
Fe1 Fe1 B1 1_556 . 3_555 129.53(14)
Fe1 Fe1 B1 1_556 . 3_556 50.47(13)
Fe1 Fe1 B3 1_556 . . 131.93(16)
Fe1 Fe1 B3 1_556 . 1_556 48.07(15)
Fe1 Fe1 B4 1_556 . . 130.48(14)
Fe1 Fe1 B4 1_556 . 1_556 49.52(14)
Fe1 Fe1 B6 1_556 . 3_555 132.71(16)
Fe1 Fe1 B6 1_556 . 3_556 47.29(15)
Fe1 Fe1 B7 1_556 . . 90.00(3)
Fe1 Fe1 B12 1_556 . 3_556 90.00(3)
Fe1 Fe1 B13 1_556 . 3_556 90.00(3)
Fe1 Fe1 B14 1_556 . . 90.00(2)
B1 Fe1 B1 3_555 . 3_556 79.07(19)
B1 Fe1 B3 3_555 . . 98.5(2)
B1 Fe1 B3 3_555 . 1_556 177.6(2)
B1 Fe1 B4 3_555 . . 49.3(2)
B1 Fe1 B4 3_555 . 1_556 100.0(3)
B1 Fe1 B6 3_555 . 3_555 80.3(3)
B1 Fe1 B6 3_555 . 3_556 134.1(2)
B1 Fe1 B7 3_555 . . 132.44(17)
B1 Fe1 B12 3_555 . 3_556 48.43(18)
B1 Fe1 B13 3_555 . 3_556 87.9(2)
B1 Fe1 B14 3_555 . . 97.6(3)
B1 Fe1 B3 3_556 . . 177.6(2)
B1 Fe1 B3 3_556 . 1_556 98.5(2)
B1 Fe1 B4 3_556 . . 100.0(3)
B1 Fe1 B4 3_556 . 1_556 49.3(2)
B1 Fe1 B6 3_556 . 3_555 134.1(2)
B1 Fe1 B6 3_556 . 3_556 80.3(3)
B1 Fe1 B7 3_556 . . 132.44(17)
B1 Fe1 B12 3_556 . 3_556 48.43(18)
B1 Fe1 B13 3_556 . 3_556 87.9(2)
B1 Fe1 B14 3_556 . . 97.6(3)
B3 Fe1 B3 . . 1_556 83.9(2)
B3 Fe1 B4 . . . 78.3(3)
B3 Fe1 B4 . . 1_556 131.6(2)
B3 Fe1 B6 . . 3_555 45.0(2)
B3 Fe1 B6 . . 3_556 101.5(3)
B3 Fe1 B7 . . . 49.38(18)
B3 Fe1 B12 . . 3_556 129.80(19)
B3 Fe1 B13 . . 3_556 92.0(3)
B3 Fe1 B14 . . . 82.7(3)
B3 Fe1 B4 1_556 . . 131.6(2)
B3 Fe1 B4 1_556 . 1_556 78.3(3)
B3 Fe1 B6 1_556 . 3_555 101.5(3)
B3 Fe1 B6 1_556 . 3_556 45.0(2)
B3 Fe1 B7 1_556 . . 49.38(18)
B3 Fe1 B12 1_556 . 3_556 129.80(19)
B3 Fe1 B13 1_556 . 3_556 92.0(3)
B3 Fe1 B14 1_556 . . 82.7(3)
B4 Fe1 B4 . . 1_556 80.97(19)
B4 Fe1 B6 . . 3_555 96.7(2)
B4 Fe1 B6 . . 3_556 176.5(2)
B4 Fe1 B7 . . . 86.3(2)
B4 Fe1 B12 . . 3_556 95.0(3)
B4 Fe1 B13 . . 3_556 132.79(17)
B4 Fe1 B14 . . . 50.8(2)
B4 Fe1 B6 1_556 . 3_555 176.5(2)
B4 Fe1 B6 1_556 . 3_556 96.7(2)
B4 Fe1 B7 1_556 . . 86.3(2)
B4 Fe1 B12 1_556 . 3_556 95.0(3)
B4 Fe1 B13 1_556 . 3_556 132.79(17)
B4 Fe1 B14 1_556 . . 50.8(2)
B6 Fe1 B6 3_555 . 3_556 85.4(2)
B6 Fe1 B7 3_555 . . 90.9(2)
B6 Fe1 B12 3_555 . 3_556 87.9(3)
B6 Fe1 B13 3_555 . 3_556 50.67(18)
B6 Fe1 B14 3_555 . . 125.6(2)
B6 Fe1 B7 3_556 . . 90.9(2)
B6 Fe1 B12 3_556 . 3_556 87.9(3)
B6 Fe1 B13 3_556 . 3_556 50.67(18)
B6 Fe1 B14 3_556 . . 125.6(2)
B7 Fe1 B12 . . 3_556 178.3(3)
B7 Fe1 B13 . . 3_556 121.6(3)
B7 Fe1 B14 . . . 51.2(3)
B12 Fe1 B13 3_556 . 3_556 56.7(3)
B12 Fe1 B14 3_556 . . 130.5(3)
B13 Fe1 B14 3_556 . . 172.8(3)
Fe2 Fe2 Fe2 1_554 . 1_556 180.0(5)
Fe2 Fe2 B4 1_554 . . 90.00(2)
Fe2 Fe2 B6 1_554 . . 90.00(3)
Fe2 Fe2 B8 1_554 . . 90.00(3)
Fe2 Fe2 B9 1_554 . 3_545 90.00(2)
Fe2 Fe2 B10 1_554 . 1_554 49.85(13)
Fe2 Fe2 B10 1_554 . . 130.15(13)
Fe2 Fe2 B11 1_554 . 1_554 51.09(14)
Fe2 Fe2 B11 1_554 . . 128.91(14)
Fe2 Fe2 B13 1_554 . 1_554 49.86(14)
Fe2 Fe2 B13 1_554 . . 130.14(15)
Fe2 Fe2 B14 1_554 . 1_554 47.08(15)
Fe2 Fe2 B14 1_554 . . 132.92(15)
Fe2 Fe2 B4 1_556 . . 90.00(2)
Fe2 Fe2 B6 1_556 . . 90.00(3)
Fe2 Fe2 B8 1_556 . . 90.00(3)
Fe2 Fe2 B9 1_556 . 3_545 90.00(2)
Fe2 Fe2 B10 1_556 . 1_554 130.15(13)
Fe2 Fe2 B10 1_556 . . 49.85(13)
Fe2 Fe2 B11 1_556 . 1_554 128.91(14)
Fe2 Fe2 B11 1_556 . . 51.09(14)
Fe2 Fe2 B13 1_556 . 1_554 130.14(15)
Fe2 Fe2 B13 1_556 . . 49.86(14)
Fe2 Fe2 B14 1_556 . 1_554 132.92(15)
Fe2 Fe2 B14 1_556 . . 47.08(15)
B4 Fe2 B6 . . . 128.7(3)
B4 Fe2 B8 . . . 56.4(3)
B4 Fe2 B9 . . 3_545 179.8(3)
B4 Fe2 B10 . . 1_554 129.99(19)
B4 Fe2 B10 . . . 129.99(19)
B4 Fe2 B11 . . 1_554 87.9(2)
B4 Fe2 B11 . . . 87.9(2)
B4 Fe2 B13 . . 1_554 93.1(3)
B4 Fe2 B13 . . . 93.1(3)
B4 Fe2 B14 . . 1_554 51.0(2)
B4 Fe2 B14 . . . 51.0(2)
B6 Fe2 B8 . . . 174.9(3)
B6 Fe2 B9 . . 3_545 51.6(3)
B6 Fe2 B10 . . 1_554 85.5(3)
B6 Fe2 B10 . . . 85.5(3)
B6 Fe2 B11 . . 1_554 129.1(2)
B6 Fe2 B11 . . . 129.1(2)
B6 Fe2 B13 . . 1_554 51.0(2)
B6 Fe2 B13 . . . 51.0(2)
B6 Fe2 B14 . . 1_554 95.8(3)
B6 Fe2 B14 . . . 95.8(3)
B8 Fe2 B9 . . 3_545 123.4(3)
B8 Fe2 B10 . . 1_554 90.6(3)
B8 Fe2 B10 . . . 90.6(3)
B8 Fe2 B11 . . 1_554 48.10(19)
B8 Fe2 B11 . . . 48.10(19)
B8 Fe2 B13 . . 1_554 131.71(19)
B8 Fe2 B13 . . . 131.71(19)
B8 Fe2 B14 . . 1_554 87.9(3)
B8 Fe2 B14 . . . 87.9(3)
B9 Fe2 B10 3_545 . 1_554 49.89(19)
B9 Fe2 B10 3_545 . . 49.89(19)
B9 Fe2 B11 3_545 . 1_554 91.9(2)
B9 Fe2 B11 3_545 . . 91.9(2)
B9 Fe2 B13 3_545 . 1_554 87.0(2)
B9 Fe2 B13 3_545 . . 87.0(2)
B9 Fe2 B14 3_545 . 1_554 129.1(2)
B9 Fe2 B14 3_545 . . 129.1(2)
B10 Fe2 B10 1_554 . . 80.30(18)
B10 Fe2 B11 1_554 . 1_554 45.3(2)
B10 Fe2 B11 1_554 . . 96.2(2)
B10 Fe2 B13 1_554 . 1_554 82.2(3)
B10 Fe2 B13 1_554 . . 134.1(3)
B10 Fe2 B14 1_554 . 1_554 96.91(19)
B10 Fe2 B14 1_554 . . 176.9(3)
B10 Fe2 B11 . . 1_554 96.2(2)
B10 Fe2 B11 . . . 45.3(2)
B10 Fe2 B13 . . 1_554 134.1(3)
B10 Fe2 B13 . . . 82.2(3)
B10 Fe2 B14 . . 1_554 176.9(3)
B10 Fe2 B14 . . . 96.91(19)
B11 Fe2 B11 1_554 . . 77.82(19)
B11 Fe2 B13 1_554 . 1_554 100.94(19)
B11 Fe2 B13 1_554 . . 178.4(2)
B11 Fe2 B14 1_554 . 1_554 80.8(3)
B11 Fe2 B14 1_554 . . 134.1(3)
B11 Fe2 B13 . . 1_554 178.4(2)
B11 Fe2 B13 . . . 100.94(19)
B11 Fe2 B14 . . 1_554 134.1(3)
B11 Fe2 B14 . . . 80.8(3)
B13 Fe2 B13 1_554 . . 80.3(2)
B13 Fe2 B14 1_554 . 1_554 46.3(3)
B13 Fe2 B14 1_554 . . 100.8(3)
B13 Fe2 B14 . . 1_554 100.8(3)
B13 Fe2 B14 . . . 46.3(3)
B14 Fe2 B14 1_554 . . 85.8(2)
Fe3 Fe3 Fe3 1_554 . 1_556 180.0(5)
Fe3 Fe3 Fe3 1_554 . 2_655 90.00(3)
Fe3 Fe3 Fe4 1_554 . . 56.05(2)
Fe3 Fe3 Fe4 1_554 . 1_556 123.95(4)
Fe3 Fe3 B1 1_554 . . 50.47(14)
Fe3 Fe3 B1 1_554 . 1_556 129.53(14)
Fe3 Fe3 B2 1_554 . 3_545 47.45(12)
Fe3 Fe3 B2 1_554 . 3_546 132.55(13)
Fe3 Fe3 B2 1_554 . 4_555 47.22(16)
Fe3 Fe3 B2 1_554 . 4_556 132.78(16)
Fe3 Fe3 B8 1_554 . 4_555 46.21(16)
Fe3 Fe3 B8 1_554 . 4_556 133.79(17)
Fe3 Fe3 B11 1_554 . 4_556 90.00(2)
Fe3 Fe3 B12 1_554 . . 90.00(3)
Fe3 Fe3 Fe3 1_556 . 2_655 90.00(3)
Fe3 Fe3 Fe4 1_556 . . 123.95(4)
Fe3 Fe3 Fe4 1_556 . 1_556 56.05(2)
Fe3 Fe3 B1 1_556 . . 129.53(14)
Fe3 Fe3 B1 1_556 . 1_556 50.47(14)
Fe3 Fe3 B2 1_556 . 3_545 132.55(13)
Fe3 Fe3 B2 1_556 . 3_546 47.45(12)
Fe3 Fe3 B2 1_556 . 4_555 132.78(16)
Fe3 Fe3 B2 1_556 . 4_556 47.22(16)
Fe3 Fe3 B8 1_556 . 4_555 133.79(17)
Fe3 Fe3 B8 1_556 . 4_556 46.21(16)
Fe3 Fe3 B11 1_556 . 4_556 90.00(2)
Fe3 Fe3 B12 1_556 . . 90.00(3)
Fe3 Fe3 Fe4 2_655 . . 144.967(18)
Fe3 Fe3 Fe4 2_655 . 1_556 144.967(18)
Fe3 Fe3 B1 2_655 . . 95.60(17)
Fe3 Fe3 B1 2_655 . 1_556 95.60(17)
Fe3 Fe3 B2 2_655 . 3_545 52.87(19)
Fe3 Fe3 B2 2_655 . 3_546 52.87(19)
Fe3 Fe3 B2 2_655 . 4_555 53.20(16)
Fe3 Fe3 B2 2_655 . 4_556 53.20(16)
Fe3 Fe3 B8 2_655 . 4_555 98.9(2)
Fe3 Fe3 B8 2_655 . 4_556 98.9(2)
Fe3 Fe3 B11 2_655 . 4_556 128.2(2)
Fe3 Fe3 B12 2_655 . . 126.68(19)
Fe4 Fe3 Fe4 . . 1_556 67.91(3)
Fe4 Fe3 B1 . . . 57.53(16)
Fe4 Fe3 B1 . . 1_556 100.03(18)
Fe4 Fe3 B2 . . 3_545 93.47(17)
Fe4 Fe3 B2 . . 3_546 144.7(2)
Fe4 Fe3 B2 . . 4_555 99.63(15)
Fe4 Fe3 B2 . . 4_556 157.83(19)
Fe4 Fe3 B8 . . 4_555 65.2(2)
Fe4 Fe3 B8 . . 4_556 110.68(19)
Fe4 Fe3 B11 . . 4_556 66.29(18)
Fe4 Fe3 B12 . . . 53.46(13)
Fe4 Fe3 B1 1_556 . . 100.03(18)
Fe4 Fe3 B1 1_556 . 1_556 57.53(16)
Fe4 Fe3 B2 1_556 . 3_545 144.7(2)
Fe4 Fe3 B2 1_556 . 3_546 93.47(17)
Fe4 Fe3 B2 1_556 . 4_555 157.83(19)
Fe4 Fe3 B2 1_556 . 4_556 99.63(15)
Fe4 Fe3 B8 1_556 . 4_555 110.68(19)
Fe4 Fe3 B8 1_556 . 4_556 65.2(2)
Fe4 Fe3 B11 1_556 . 4_556 66.29(18)
Fe4 Fe3 B12 1_556 . . 53.46(13)
B1 Fe3 B1 . . 1_556 79.06(19)
B1 Fe3 B2 . . 3_545 46.0(3)
B1 Fe3 B2 . . 3_546 99.6(2)
B1 Fe3 B2 . . 4_555 87.2(2)
B1 Fe3 B2 . . 4_556 144.6(2)
B1 Fe3 B8 . . 4_555 94.8(2)
B1 Fe3 B8 . . 4_556 164.8(3)
B1 Fe3 B11 . . 4_556 122.8(2)
B1 Fe3 B12 . . . 47.79(19)
B1 Fe3 B2 1_556 . 3_545 99.6(2)
B1 Fe3 B2 1_556 . 3_546 46.0(3)
B1 Fe3 B2 1_556 . 4_555 144.6(2)
B1 Fe3 B2 1_556 . 4_556 87.2(2)
B1 Fe3 B8 1_556 . 4_555 164.8(3)
B1 Fe3 B8 1_556 . 4_556 94.8(2)
B1 Fe3 B11 1_556 . 4_556 122.8(2)
B1 Fe3 B12 1_556 . . 47.79(19)
B2 Fe3 B2 3_545 . 3_546 85.11(18)
B2 Fe3 B2 3_545 . 4_555 50.1(3)
B2 Fe3 B2 3_545 . 4_556 106.1(2)
B2 Fe3 B8 3_545 . 4_555 85.6(2)
B2 Fe3 B8 3_545 . 4_556 149.2(3)
B2 Fe3 B11 3_545 . 4_556 134.83(17)
B2 Fe3 B12 3_545 . . 91.3(3)
B2 Fe3 B2 3_546 . 4_555 106.1(2)
B2 Fe3 B2 3_546 . 4_556 50.1(3)
B2 Fe3 B8 3_546 . 4_555 149.2(3)
B2 Fe3 B8 3_546 . 4_556 85.6(2)
B2 Fe3 B11 3_546 . 4_556 134.83(17)
B2 Fe3 B12 3_546 . . 91.3(3)
B2 Fe3 B2 4_555 . 4_556 85.6(2)
B2 Fe3 B8 4_555 . 4_555 47.4(3)
B2 Fe3 B8 4_555 . 4_556 105.3(3)
B2 Fe3 B11 4_555 . 4_556 92.1(3)
B2 Fe3 B12 4_555 . . 134.26(19)
B2 Fe3 B8 4_556 . 4_555 105.3(3)
B2 Fe3 B8 4_556 . 4_556 47.4(3)
B2 Fe3 B11 4_556 . 4_556 92.1(3)
B2 Fe3 B12 4_556 . . 134.26(19)
B8 Fe3 B8 4_555 . 4_556 87.6(2)
B8 Fe3 B11 4_555 . 4_556 49.47(18)
B8 Fe3 B12 4_555 . . 118.2(3)
B8 Fe3 B11 4_556 . 4_556 49.47(18)
B8 Fe3 B12 4_556 . . 118.2(3)
B11 Fe3 B12 4_556 . . 105.1(3)
Fe3 Fe4 Fe3 1_554 . . 67.91(3)
Fe3 Fe4 Fe4 1_554 . 1_554 56.05(2)
Fe3 Fe4 Fe4 1_554 . 1_556 123.95(4)
Fe3 Fe4 B1 1_554 . . 54.46(15)
Fe3 Fe4 B3 1_554 . . 144.59(6)
Fe3 Fe4 B5 1_554 . 1_554 82.62(17)
Fe3 Fe4 B5 1_554 . . 125.8(2)
Fe3 Fe4 B7 1_554 . 1_554 95.00(15)
Fe3 Fe4 B7 1_554 . . 143.60(18)
Fe3 Fe4 B9 1_554 . . 128.98(16)
Fe3 Fe4 B12 1_554 . 1_554 53.3(2)
Fe3 Fe4 B12 1_554 . . 98.37(17)
Fe3 Fe4 Fe4 . . 1_554 123.95(4)
Fe3 Fe4 Fe4 . . 1_556 56.05(2)
Fe3 Fe4 B1 . . . 54.46(15)
Fe3 Fe4 B3 . . . 144.59(6)
Fe3 Fe4 B5 . . 1_554 125.8(2)
Fe3 Fe4 B5 . . . 82.62(17)
Fe3 Fe4 B7 . . 1_554 143.60(18)
Fe3 Fe4 B7 . . . 95.00(15)
Fe3 Fe4 B9 . . . 128.98(16)
Fe3 Fe4 B12 . . 1_554 98.37(17)
Fe3 Fe4 B12 . . . 53.3(2)
Fe4 Fe4 Fe4 1_554 . 1_556 180.0(5)
Fe4 Fe4 B1 1_554 . . 90.00(2)
Fe4 Fe4 B3 1_554 . . 90.00(3)
Fe4 Fe4 B5 1_554 . 1_554 50.29(12)
Fe4 Fe4 B5 1_554 . . 129.71(13)
Fe4 Fe4 B7 1_554 . 1_554 50.02(14)
Fe4 Fe4 B7 1_554 . . 129.98(15)
Fe4 Fe4 B9 1_554 . . 90.00(2)
Fe4 Fe4 B12 1_554 . 1_554 48.25(13)
Fe4 Fe4 B12 1_554 . . 131.75(14)
Fe4 Fe4 B1 1_556 . . 90.00(2)
Fe4 Fe4 B3 1_556 . . 90.00(3)
Fe4 Fe4 B5 1_556 . 1_554 129.71(13)
Fe4 Fe4 B5 1_556 . . 50.29(12)
Fe4 Fe4 B7 1_556 . 1_554 129.98(15)
Fe4 Fe4 B7 1_556 . . 50.02(14)
Fe4 Fe4 B9 1_556 . . 90.00(2)
Fe4 Fe4 B12 1_556 . 1_554 131.75(14)
Fe4 Fe4 B12 1_556 . . 48.25(13)
B1 Fe4 B3 . . . 123.8(3)
B1 Fe4 B5 . . 1_554 134.86(16)
B1 Fe4 B5 . . . 134.86(16)
B1 Fe4 B7 . . 1_554 89.3(2)
B1 Fe4 B7 . . . 89.3(2)
B1 Fe4 B9 . . . 175.2(3)
B1 Fe4 B12 . . 1_554 46.64(16)
B1 Fe4 B12 . . . 46.64(16)
B3 Fe4 B5 . . 1_554 82.1(3)
B3 Fe4 B5 . . . 82.1(3)
B3 Fe4 B7 . . 1_554 51.0(2)
B3 Fe4 B7 . . . 51.0(2)
B3 Fe4 B9 . . . 51.4(3)
B3 Fe4 B12 . . 1_554 98.0(3)
B3 Fe4 B12 . . . 98.0(3)
B5 Fe4 B5 1_554 . . 79.42(17)
B5 Fe4 B7 1_554 . 1_554 80.4(3)
B5 Fe4 B7 1_554 . . 130.9(3)
B5 Fe4 B9 1_554 . . 47.39(18)
B5 Fe4 B12 1_554 . 1_554 98.54(18)
B5 Fe4 B12 1_554 . . 177.9(2)
B5 Fe4 B7 . . 1_554 130.9(3)
B5 Fe4 B7 . . . 80.4(3)
B5 Fe4 B9 . . . 47.39(18)
B5 Fe4 B12 . . 1_554 177.9(2)
B5 Fe4 B12 . . . 98.54(18)
B7 Fe4 B7 1_554 . . 80.0(2)
B7 Fe4 B9 1_554 . . 87.0(2)
B7 Fe4 B12 1_554 . 1_554 48.7(3)
B7 Fe4 B12 1_554 . . 101.3(3)
B7 Fe4 B9 . . . 87.0(2)
B7 Fe4 B12 . . 1_554 101.3(3)
B7 Fe4 B12 . . . 48.7(3)
B9 Fe4 B12 . . 1_554 131.26(18)
B9 Fe4 B12 . . . 131.26(18)
B12 Fe4 B12 1_554 . . 83.50(19)
Fe1 B1 Fe1 3_545 . 3_546 79.1(3)
Fe1 B1 Fe3 3_545 . 1_554 100.39(4)
Fe1 B1 Fe3 3_545 . . 172.2(3)
Fe1 B1 Fe4 3_545 . . 119.2(2)
Fe1 B1 B2 3_545 . 3_545 109.8(3)
Fe1 B1 B4 3_545 . 3_545 64.1(3)
Fe1 B1 B12 3_545 . 1_554 60.8(3)
Fe1 B1 B12 3_545 . . 122.3(5)
Fe1 B1 Fe3 3_546 . 1_554 172.2(3)
Fe1 B1 Fe3 3_546 . . 100.39(4)
Fe1 B1 Fe4 3_546 . . 119.2(2)
Fe1 B1 B2 3_546 . 3_545 109.8(3)
Fe1 B1 B4 3_546 . 3_545 64.1(3)
Fe1 B1 B12 3_546 . 1_554 122.3(5)
Fe1 B1 B12 3_546 . . 60.8(3)
Fe3 B1 Fe3 1_554 . . 79.1(3)
Fe3 B1 Fe4 1_554 . . 68.01(19)
Fe3 B1 B2 1_554 . 3_545 62.9(3)
Fe3 B1 B4 1_554 . 3_545 108.5(3)
Fe3 B1 B12 1_554 . 1_554 63.0(3)
Fe3 B1 B12 1_554 . . 124.7(4)
Fe3 B1 Fe4 . . . 68.01(19)
Fe3 B1 B2 . . 3_545 62.9(3)
Fe3 B1 B4 . . 3_545 108.5(3)
Fe3 B1 B12 . . 1_554 124.7(4)
Fe3 B1 B12 . . . 63.0(3)
Fe4 B1 B2 . . 3_545 114.8(5)
Fe4 B1 B4 . . 3_545 175.2(5)
Fe4 B1 B12 . . 1_554 61.3(3)
Fe4 B1 B12 . . . 61.3(3)
B2 B1 B4 3_545 . 3_545 60.5(4)
B2 B1 B12 3_545 . 1_554 121.4(4)
B2 B1 B12 3_545 . . 121.4(4)
B4 B1 B12 3_545 . 1_554 120.5(3)
B4 B1 B12 3_545 . . 120.5(3)
B12 B1 B12 1_554 . . 106.9(4)
Fe3 B2 Fe3 3_555 . 3_556 85.1(2)
Fe3 B2 Fe3 3_555 . 4_455 73.92(15)
Fe3 B2 Fe3 3_555 . 4_456 129.9(4)
Fe3 B2 B1 3_555 . 3_555 71.1(3)
Fe3 B2 B2 3_555 . 2_565 64.7(3)
Fe3 B2 B4 3_555 . . 116.8(4)
Fe3 B2 B8 3_555 . . 135.3(2)
Fe3 B2 Fe3 3_556 . 4_455 129.9(4)
Fe3 B2 Fe3 3_556 . 4_456 73.92(15)
Fe3 B2 B1 3_556 . 3_555 71.1(3)
Fe3 B2 B2 3_556 . 2_565 64.7(3)
Fe3 B2 B4 3_556 . . 116.8(4)
Fe3 B2 B8 3_556 . . 135.3(2)
Fe3 B2 Fe3 4_455 . 4_456 85.6(3)
Fe3 B2 B1 4_455 . 3_555 136.83(15)
Fe3 B2 B2 4_455 . 2_565 65.2(3)
Fe3 B2 B4 4_455 . . 113.3(3)
Fe3 B2 B8 4_455 . . 65.1(3)
Fe3 B2 B1 4_456 . 3_555 136.83(15)
Fe3 B2 B2 4_456 . 2_565 65.2(3)
Fe3 B2 B4 4_456 . . 113.3(3)
Fe3 B2 B8 4_456 . . 65.1(3)
B1 B2 B2 3_555 . 2_565 118.4(5)
B1 B2 B4 3_555 . . 63.8(4)
B1 B2 B8 3_555 . . 131.5(6)
B2 B2 B4 2_565 . . 177.8(6)
B2 B2 B8 2_565 . . 110.1(6)
B4 B2 B8 . . . 67.7(5)
Fe1 B3 Fe1 1_554 . . 83.9(3)
Fe1 B3 Fe4 1_554 . . 136.63(15)
Fe1 B3 B6 1_554 . 3_555 66.5(3)
Fe1 B3 B7 1_554 . 1_554 67.3(3)
Fe1 B3 B7 1_554 . . 131.8(5)
Fe1 B3 B9 1_554 . . 112.2(3)
Fe1 B3 Fe4 . . . 136.63(15)
Fe1 B3 B6 . . 3_555 66.5(3)
Fe1 B3 B7 . . 1_554 131.8(5)
Fe1 B3 B7 . . . 67.3(3)
Fe1 B3 B9 . . . 112.2(3)
Fe4 B3 B6 . . 3_555 134.7(6)
Fe4 B3 B7 . . 1_554 72.0(3)
Fe4 B3 B7 . . . 72.0(3)
Fe4 B3 B9 . . . 71.8(4)
B6 B3 B7 3_555 . 1_554 126.7(3)
B6 B3 B7 3_555 . . 126.7(3)
B6 B3 B9 3_555 . . 62.9(5)
B7 B3 B7 1_554 . . 103.7(4)
B7 B3 B9 1_554 . . 114.3(4)
B7 B3 B9 . . . 114.3(4)
Fe1 B4 Fe1 1_554 . . 81.0(3)
Fe1 B4 Fe2 1_554 . . 122.0(3)
Fe1 B4 B1 1_554 . 3_555 66.6(3)
Fe1 B4 B2 1_554 . . 108.2(3)
Fe1 B4 B14 1_554 . 1_554 58.8(3)
Fe1 B4 B14 1_554 . . 120.4(5)
Fe1 B4 Fe2 . . . 122.0(3)
Fe1 B4 B1 . . 3_555 66.6(3)
Fe1 B4 B2 . . . 108.2(3)
Fe1 B4 B14 . . 1_554 120.4(5)
Fe1 B4 B14 . . . 58.8(3)
Fe2 B4 B1 . . 3_555 167.4(6)
Fe2 B4 B2 . . . 111.6(5)
Fe2 B4 B14 . . 1_554 64.1(3)
Fe2 B4 B14 . . . 64.1(3)
B1 B4 B2 3_555 . . 55.7(4)
B1 B4 B14 3_555 . 1_554 121.4(3)
B1 B4 B14 3_555 . . 121.4(3)
B2 B4 B14 . . 1_554 124.3(4)
B2 B4 B14 . . . 124.3(4)
B14 B4 B14 1_554 . . 104.1(4)
Fe4 B5 Fe4 . . 1_556 79.4(2)
Fe4 B5 B9 . . . 66.0(2)
Fe4 B5 B9 . . 1_556 127.7(5)
Fe4 B5 B10 . . 3_556 130.9(3)
Fe4 B5 B11 . . 4_556 80.4(3)
Fe4 B5 B9 1_556 . . 127.7(5)
Fe4 B5 B9 1_556 . 1_556 66.0(2)
Fe4 B5 B10 1_556 . 3_556 130.9(3)
Fe4 B5 B11 1_556 . 4_556 80.4(3)
B9 B5 B9 . . 1_556 105.6(5)
B9 B5 B10 . . 3_556 65.0(3)
B9 B5 B11 . . 4_556 127.2(3)
B9 B5 B10 1_556 . 3_556 65.0(3)
B9 B5 B11 1_556 . 4_556 127.2(3)
B10 B5 B11 3_556 . 4_556 134.2(7)
Fe1 B6 Fe1 3_545 . 3_546 85.4(3)
Fe1 B6 Fe2 3_545 . . 135.14(15)
Fe1 B6 B3 3_545 . 3_545 68.5(3)
Fe1 B6 B9 3_545 . 3_545 114.5(3)
Fe1 B6 B13 3_545 . 1_554 65.0(3)
Fe1 B6 B13 3_545 . . 130.5(5)
Fe1 B6 Fe2 3_546 . . 135.14(15)
Fe1 B6 B3 3_546 . 3_545 68.5(3)
Fe1 B6 B9 3_546 . 3_545 114.5(3)
Fe1 B6 B13 3_546 . 1_554 130.5(5)
Fe1 B6 B13 3_546 . . 65.0(3)
Fe2 B6 B3 . . 3_545 135.2(6)
Fe2 B6 B9 . . 3_545 71.0(4)
Fe2 B6 B13 . . 1_554 72.2(3)
Fe2 B6 B13 . . . 72.2(3)
B3 B6 B9 3_545 . 3_545 64.2(5)
B3 B6 B13 3_545 . 1_554 126.3(3)
B3 B6 B13 3_545 . . 126.3(3)
B9 B6 B13 3_545 . 1_554 113.7(4)
B9 B6 B13 3_545 . . 113.7(4)
B13 B6 B13 1_554 . . 104.4(4)
Fe1 B7 Fe4 . . . 118.6(2)
Fe1 B7 Fe4 . . 1_556 118.6(2)
Fe1 B7 B3 . . . 63.3(3)
Fe1 B7 B3 . . 1_556 63.3(3)
Fe1 B7 B12 . . . 177.2(5)
Fe1 B7 B14 . . . 58.4(3)
Fe4 B7 Fe4 . . 1_556 80.0(3)
Fe4 B7 B3 . . . 57.0(3)
Fe4 B7 B3 . . 1_556 117.8(5)
Fe4 B7 B12 . . . 63.4(3)
Fe4 B7 B14 . . . 139.51(16)
Fe4 B7 B3 1_556 . . 117.8(5)
Fe4 B7 B3 1_556 . 1_556 57.0(3)
Fe4 B7 B12 1_556 . . 63.4(3)
Fe4 B7 B14 1_556 . . 139.51(16)
B3 B7 B3 . . 1_556 103.7(4)
B3 B7 B12 . . . 118.0(4)
B3 B7 B14 . . . 97.2(4)
B3 B7 B12 1_556 . . 118.0(4)
B3 B7 B14 1_556 . . 97.2(4)
B12 B7 B14 . . . 118.7(5)
Fe2 B8 Fe3 . . 4_455 136.16(15)
Fe2 B8 Fe3 . . 4_456 136.16(15)
Fe2 B8 B2 . . . 124.3(6)
Fe2 B8 B11 . . 1_554 74.8(4)
Fe2 B8 B11 . . . 74.8(4)
Fe3 B8 Fe3 4_455 . 4_456 87.6(3)
Fe3 B8 B2 4_455 . . 67.5(3)
Fe3 B8 B11 4_455 . 1_554 67.1(3)
Fe3 B8 B11 4_455 . . 137.6(6)
Fe3 B8 B2 4_456 . . 67.5(3)
Fe3 B8 B11 4_456 . 1_554 137.6(6)
Fe3 B8 B11 4_456 . . 67.1(3)
B2 B8 B11 . . 1_554 125.1(3)
B2 B8 B11 . . . 125.1(3)
B11 B8 B11 1_554 . . 109.0(4)
Fe2 B9 Fe4 3_555 . . 167.2(4)
Fe2 B9 B3 3_555 . . 110.4(4)
Fe2 B9 B5 3_555 . 1_554 119.3(3)
Fe2 B9 B5 3_555 . . 119.3(3)
Fe2 B9 B6 3_555 . 3_555 57.5(3)
Fe2 B9 B10 3_555 . 3_555 65.9(3)
Fe2 B9 B10 3_555 . 3_556 65.9(3)
Fe4 B9 B3 . . . 56.8(3)
Fe4 B9 B5 . . 1_554 66.6(3)
Fe4 B9 B5 . . . 66.6(3)
Fe4 B9 B6 . . 3_555 109.7(4)
Fe4 B9 B10 . . 3_555 120.4(3)
Fe4 B9 B10 . . 3_556 120.4(3)
B3 B9 B5 . . 1_554 99.4(4)
B3 B9 B5 . . . 99.4(4)
B3 B9 B6 . . 3_555 52.9(4)
B3 B9 B10 . . 3_555 127.0(3)
B3 B9 B10 . . 3_556 127.0(3)
B5 B9 B5 1_554 . . 105.6(5)
B5 B9 B6 1_554 . 3_555 124.3(4)
B5 B9 B10 1_554 . 3_555 53.9(3)
B5 B9 B10 1_554 . 3_556 129.6(6)
B5 B9 B6 . . 3_555 124.3(4)
B5 B9 B10 . . 3_555 129.6(6)
B5 B9 B10 . . 3_556 53.9(3)
B6 B9 B10 3_555 . 3_555 101.2(4)
B6 B9 B10 3_555 . 3_556 101.2(4)
B10 B9 B10 3_555 . 3_556 100.7(4)
Fe2 B10 Fe2 . . 1_556 80.3(3)
Fe2 B10 B5 . . 3_546 124.6(4)
Fe2 B10 B9 . . 3_545 64.2(2)
Fe2 B10 B9 . . 3_546 123.9(5)
Fe2 B10 B11 . . . 69.1(3)
Fe2 B10 B5 1_556 . 3_546 124.6(4)
Fe2 B10 B9 1_556 . 3_545 123.9(5)
Fe2 B10 B9 1_556 . 3_546 64.2(2)
Fe2 B10 B11 1_556 . . 69.1(3)
B5 B10 B9 3_546 . 3_545 61.1(3)
B5 B10 B9 3_546 . 3_546 61.1(3)
B5 B10 B11 3_546 . . 159.8(7)
B9 B10 B9 3_545 . 3_546 100.7(4)
B9 B10 B11 3_545 . . 126.7(3)
B9 B10 B11 3_546 . . 126.7(3)
Fe2 B11 Fe2 . . 1_556 77.8(3)
Fe2 B11 Fe3 . . 4_456 116.9(2)
Fe2 B11 B5 . . 4_456 115.7(3)
Fe2 B11 B8 . . . 57.1(3)
Fe2 B11 B8 . . 1_556 118.7(5)
Fe2 B11 B10 . . . 65.5(3)
Fe2 B11 Fe3 1_556 . 4_456 116.9(2)
Fe2 B11 B5 1_556 . 4_456 115.7(3)
Fe2 B11 B8 1_556 . . 118.7(5)
Fe2 B11 B8 1_556 . 1_556 57.1(3)
Fe2 B11 B10 1_556 . . 65.5(3)
Fe3 B11 B5 4_456 . 4_456 110.5(5)
Fe3 B11 B8 4_456 . . 63.4(3)
Fe3 B11 B8 4_456 . 1_556 63.4(3)
Fe3 B11 B10 4_456 . . 176.5(6)
B5 B11 B8 4_456 . . 120.2(4)
B5 B11 B8 4_456 . 1_556 120.2(4)
B5 B11 B10 4_456 . . 66.0(5)
B8 B11 B8 . . 1_556 109.0(4)
B8 B11 B10 . . . 118.0(4)
B8 B11 B10 1_556 . . 118.0(4)
Fe1 B12 Fe3 3_546 . . 109.8(3)
Fe1 B12 Fe4 3_546 . . 138.17(13)
Fe1 B12 Fe4 3_546 . 1_556 138.17(13)
Fe1 B12 B1 3_546 . . 70.8(3)
Fe1 B12 B1 3_546 . 1_556 70.8(3)
Fe1 B12 B7 3_546 . . 123.1(5)
Fe3 B12 Fe4 . . . 73.3(3)
Fe3 B12 Fe4 . . 1_556 73.3(3)
Fe3 B12 B1 . . . 69.2(4)
Fe3 B12 B1 . . 1_556 69.2(4)
Fe3 B12 B7 . . . 127.1(5)
Fe4 B12 Fe4 . . 1_556 83.5(3)
Fe4 B12 B1 . . . 72.1(2)
Fe4 B12 B1 . . 1_556 139.6(5)
Fe4 B12 B7 . . . 67.9(3)
Fe4 B12 B1 1_556 . . 139.6(5)
Fe4 B12 B1 1_556 . 1_556 72.1(2)
Fe4 B12 B7 1_556 . . 67.9(3)
B1 B12 B1 . . 1_556 106.9(4)
B1 B12 B7 . . . 126.6(3)
B1 B12 B7 1_556 . . 126.6(3)
Fe1 B13 Fe2 3_546 . . 119.7(2)
Fe1 B13 Fe2 3_546 . 1_556 119.7(2)
Fe1 B13 B6 3_546 . . 64.3(3)
Fe1 B13 B6 3_546 . 1_556 64.3(3)
Fe1 B13 B14 3_546 . . 175.9(6)
Fe2 B13 Fe2 . . 1_556 80.3(3)
Fe2 B13 B6 . . . 56.8(3)
Fe2 B13 B6 . . 1_556 118.1(5)
Fe2 B13 B14 . . . 63.2(3)
Fe2 B13 B6 1_556 . . 118.1(5)
Fe2 B13 B6 1_556 . 1_556 56.8(3)
Fe2 B13 B14 1_556 . . 63.2(3)
B6 B13 B6 . . 1_556 104.4(4)
B6 B13 B14 . . . 117.7(4)
B6 B13 B14 1_556 . . 117.7(4)
Fe1 B14 Fe2 . . . 133.90(18)
Fe1 B14 Fe2 . . 1_556 133.90(18)
Fe1 B14 B4 . . . 70.3(3)
Fe1 B14 B4 . . 1_556 70.3(3)
Fe1 B14 B7 . . . 70.3(4)
Fe1 B14 B13 . . . 135.9(6)
Fe2 B14 Fe2 . . 1_556 85.8(3)
Fe2 B14 B4 . . . 64.8(2)
Fe2 B14 B4 . . 1_556 130.4(5)
Fe2 B14 B7 . . . 117.1(3)
Fe2 B14 B13 . . . 70.5(3)
Fe2 B14 B4 1_556 . . 130.4(5)
Fe2 B14 B4 1_556 . 1_556 64.8(2)
Fe2 B14 B7 1_556 . . 117.1(3)
Fe2 B14 B13 1_556 . . 70.5(3)
B4 B14 B4 . . 1_556 104.1(5)
B4 B14 B7 . . . 111.8(4)
B4 B14 B13 . . . 126.9(3)
B4 B14 B7 1_556 . . 111.8(4)
B4 B14 B13 1_556 . . 126.9(3)
B7 B14 B13 . . . 65.6(5)
loop_
_geom_bond_atom_site_label_1
_geom_bond_atom_site_label_2
_geom_bond_site_symmetry_1
_geom_bond_site_symmetry_2
_geom_bond_distance
Fe1 Fe1 . 1_554 2.8340(2)
Fe1 Fe1 . 1_556 2.8340(2)
Fe1 B1 . 3_555 2.226(6)
Fe1 B1 . 3_556 2.226(6)
Fe1 B3 . . 2.120(6)
Fe1 B3 . 1_556 2.120(6)
Fe1 B4 . . 2.183(6)
Fe1 B4 . 1_556 2.183(6)
Fe1 B6 . 3_555 2.089(6)
Fe1 B6 . 3_556 2.089(6)
Fe1 B7 . . 2.191(7)
Fe1 B12 . 3_556 2.058(7)
Fe1 B13 . 3_556 2.102(7)
Fe1 B14 . . 1.983(7)
Fe2 Fe2 . 1_554 2.8340(2)
Fe2 Fe2 . 1_556 2.8340(2)
Fe2 B4 . . 2.093(6)
Fe2 B6 . . 1.933(8)
Fe2 B8 . . 1.964(8)
Fe2 B9 . 3_545 2.167(6)
Fe2 B10 . 1_554 2.198(6)
Fe2 B10 . . 2.198(6)
Fe2 B11 . 1_554 2.256(7)
Fe2 B11 . . 2.256(7)
Fe2 B13 . 1_554 2.198(6)
Fe2 B13 . . 2.198(6)
Fe2 B14 . 1_554 2.081(6)
Fe2 B14 . . 2.081(6)
Fe3 Fe3 . 1_554 2.8340(2)
Fe3 Fe3 . 1_556 2.8340(2)
Fe3 Fe3 . 2_655 2.5142(12)
Fe3 Fe4 . . 2.5370(11)
Fe3 Fe4 . 1_556 2.5370(11)
Fe3 B1 . . 2.226(6)
Fe3 B1 . 1_556 2.226(6)
Fe3 B2 . 3_545 2.095(5)
Fe3 B2 . 3_546 2.095(5)
Fe3 B2 . 4_555 2.086(6)
Fe3 B2 . 4_556 2.086(6)
Fe3 B8 . 4_555 2.047(6)
Fe3 B8 . 4_556 2.047(6)
Fe3 B11 . 4_556 2.109(7)
Fe3 B12 . . 2.123(9)
Fe4 Fe4 . 1_554 2.8340(2)
Fe4 Fe4 . 1_556 2.8340(2)
Fe4 B1 . . 2.308(6)
Fe4 B3 . . 1.946(8)
Fe4 B5 . 1_554 2.218(6)
Fe4 B5 . . 2.218(6)
Fe4 B7 . 1_554 2.205(6)
Fe4 B7 . . 2.205(6)
Fe4 B9 . . 2.209(6)
Fe4 B12 . 1_554 2.128(5)
Fe4 B12 . . 2.128(5)
B1 B2 . 3_545 1.693(11)
B1 B4 . 3_545 1.838(9)
B1 B12 . 1_554 1.764(6)
B1 B12 . . 1.764(6)
B2 B2 . 2_565 1.770(12)
B2 B4 . . 1.782(12)
B2 B8 . . 1.663(9)
B3 B6 . 3_555 1.610(9)
B3 B7 . 1_554 1.802(6)
B3 B7 . . 1.802(6)
B3 B9 . . 1.816(12)
B4 B14 . 1_554 1.797(6)
B4 B14 . . 1.797(6)
B5 B9 . . 1.779(6)
B5 B9 . 1_556 1.779(6)
B5 B10 . 3_556 1.643(9)
B5 B11 . 4_556 1.711(11)
B6 B9 . 3_545 1.796(12)
B6 B13 . 1_554 1.794(6)
B6 B13 . . 1.794(6)
B7 B12 . . 1.788(10)
B7 B14 . . 1.814(12)
B8 B11 . 1_554 1.740(6)
B8 B11 . . 1.740(6)
B9 B10 . 3_555 1.841(7)
B9 B10 . 3_556 1.841(7)
B10 B11 . . 1.717(10)
B13 B14 . . 1.687(10)
loop_
_refln_index_h
_refln_index_k
_refln_index_l
_refln_F_squared_calc
_refln_F_squared_meas
_refln_F_squared_sigma
_refln_observed_status
0 0 1 0.38 0.18 0.37 <
0 0 3 6.60 1.31 5.29 <
0 2 1 28329.40 25893.50 187.71 o
0 2 2 435.03 416.20 24.63 o
0 2 3 6763.29 7024.88 134.50 o
0 4 0 1289.60 1309.91 45.52 o
0 4 1 5924.13 5970.72 125.47 o
0 4 2 514.50 466.33 31.42 o
0 4 3 2014.87 1959.79 83.65 o
0 6 0 436.55 417.50 31.08 o
0 6 1 939.89 915.77 52.45 o
0 6 2 262.60 222.09 34.56 o
0 8 0 46.38 56.82 12.98 o
0 8 1 1480.78 1473.65 68.75 o
0 8 2 26.68 9.55 7.08 <
0 10 0 70.56 62.04 13.89 o
0 10 1 1750.18 1617.79 74.71 o
0 10 2 51.69 30.16 14.22 o
0 12 0 1857.11 2096.16 85.86 o
0 12 1 3681.18 3912.19 124.52 o
0 12 2 1364.90 1309.59 66.57 o
0 14 0 10192.60 12469.40 228.60 o
0 14 1 60.14 115.18 30.65 o
0 14 2 7576.93 7008.54 216.55 o
1 1 1 6436.33 6387.59 54.81 o
1 1 2 808.46 783.46 23.13 o
1 1 3 1640.56 1799.40 51.71 o
1 2 1 618.93 570.26 17.08 o
1 2 2 126.82 112.73 9.47 o
1 2 3 122.24 91.69 12.65 o
1 3 1 6573.64 6345.85 67.49 o
1 3 2 981.05 930.32 30.27 o
1 3 3 1753.40 1700.48 61.11 o
1 4 0 4463.09 4451.52 106.21 o
1 4 1 185.84 181.30 13.14 o
1 4 2 1899.67 1882.00 52.43 o
1 4 3 37.94 39.85 18.18 o
1 5 0 16483.20 15585.10 195.70 o
1 5 1 11.45 15.29 3.54 o
1 5 2 7821.69 7503.79 106.19 o
1 5 3 0.42 2.46 5.08 <
1 6 0 6964.59 6519.52 74.73 o
1 6 1 9879.62 9679.03 100.94 o
1 6 2 3295.21 3176.33 78.98 o
1 6 3 3556.77 3268.26 136.00 o
1 7 0 1561.32 1519.52 43.28 o
1 7 1 70.30 63.50 8.21 o
1 7 2 869.11 793.32 40.42 o
1 7 3 7.29 7.60 9.12 <
1 8 0 30.47 21.00 5.21 o
1 8 1 7523.08 7060.28 89.61 o
1 8 2 62.56 77.46 12.39 o
1 8 3 2687.67 2168.37 145.16 o
1 9 0 1242.10 1264.71 43.46 o
1 9 1 2337.36 2253.77 61.76 o
1 9 2 712.94 663.47 37.45 o
1 9 3 1114.93 1008.82 96.72 o
1 10 0 11022.60 11036.20 134.30 o
1 10 1 655.57 661.25 34.12 o
1 10 2 6884.63 6953.07 122.06 o
1 10 3 398.35 375.45 61.06 o
1 11 0 68.02 65.06 10.61 o
1 11 1 448.71 443.43 28.94 o
1 11 2 49.06 35.05 8.23 o
1 12 0 40.09 49.91 9.36 o
1 12 1 3122.09 3192.35 83.64 o
1 12 2 26.89 13.82 5.17 o
1 13 0 3077.03 3285.77 120.21 o
1 13 1 68.86 48.06 9.21 o
1 13 2 2279.15 2232.19 83.32 o
1 14 0 1152.74 1491.52 86.86 o
1 14 1 242.76 265.62 32.16 o
1 14 2 869.89 867.67 59.56 o
1 15 1 4575.93 5602.76 167.23 o
1 15 2 40.32 38.99 12.66 o
2 0 1 688.66 772.74 25.45 o
2 0 2 156.93 146.77 12.89 o
2 0 3 86.61 82.86 17.87 o
2 1 0 304.78 321.17 13.47 o
2 1 1 229.85 260.63 12.78 o
2 1 2 173.63 170.23 11.33 o
2 1 3 50.60 31.49 6.46 o
2 2 0 4130.92 4502.15 70.04 o
2 2 1 121.15 95.42 7.78 o
2 2 2 1628.73 1483.90 35.28 o
2 2 3 9.01 1.47 2.50 <
2 3 0 909.18 1005.32 70.55 o
2 3 1 4806.35 4949.71 56.82 o
2 3 2 446.34 446.88 22.12 o
2 3 3 1391.26 1378.69 53.89 o
2 4 1 14591.20 14754.90 100.16 o
2 4 2 3141.91 3198.92 62.35 o
2 4 3 4195.36 4278.36 110.92 o
2 5 1 19494.70 19393.00 167.16 o
2 5 2 3096.35 3026.25 68.03 o
2 5 3 6327.77 6541.47 186.89 o
2 6 0 5497.20 5621.39 91.45 o
2 6 1 5103.88 4893.22 72.14 o
2 6 2 2748.52 2594.70 64.18 o
2 6 3 1920.88 1782.80 103.06 o
2 7 0 25985.30 21547.50 223.95 o
2 7 1 1864.62 1859.81 45.27 o
2 7 2 13698.60 13791.70 187.75 o
2 7 3 625.24 612.36 83.37 o
2 8 0 473.93 503.13 42.63 o
2 8 1 682.64 705.60 34.58 o
2 8 2 233.30 211.71 20.45 o
2 8 3 271.87 261.36 55.66 o
2 9 0 1855.10 1762.95 85.77 o
2 9 1 6070.80 5805.82 101.23 o
2 9 2 1151.34 1194.92 49.24 o
2 9 3 2605.68 2781.42 171.48 o
2 10 0 4041.39 3937.71 134.07 o
2 10 1 3846.38 3657.10 82.26 o
2 10 2 2591.66 2555.73 74.00 o
2 10 3 1819.71 1830.08 149.62 o
2 11 0 16.65 8.14 5.98 <
2 11 1 230.34 205.12 21.27 o
2 11 2 7.80 3.61 3.12 <
2 11 3 146.09 182.53 50.24 o
2 12 0 1089.97 1097.63 75.43 o
2 12 1 635.28 579.21 38.73 o
2 12 2 728.90 629.87 37.62 o
2 13 0 31.91 35.26 14.05 o
2 13 1 627.69 669.96 51.28 o
2 13 2 17.12 4.86 4.64 <
2 14 0 62.15 78.19 22.48 o
2 14 1 54.29 83.47 19.83 o
2 14 2 63.46 33.77 14.19 o
2 15 1 1300.14 1617.72 127.42 o
2 15 2 481.24 237.24 40.48 o
3 1 0 1476.46 1544.19 35.40 o
3 1 1 2082.55 2498.79 42.12 o
3 1 2 637.41 588.29 24.47 o
3 1 3 430.41 417.09 24.19 o
3 2 0 10749.20 11074.10 106.32 o
3 2 1 2149.23 2256.57 40.49 o
3 2 2 4474.66 4407.36 75.07 o
3 2 3 580.62 557.09 28.40 o
3 3 0 12473.50 12663.00 146.87 o
3 3 1 88.96 98.31 7.80 o
3 3 2 5375.90 5433.02 84.64 o
3 3 3 28.47 20.27 5.94 o
3 4 0 1066.49 1099.83 77.32 o
3 4 1 8038.71 8266.99 72.85 o
3 4 2 466.89 460.32 25.73 o
3 4 3 2210.87 2304.21 81.97 o
3 5 0 168.44 148.86 13.94 o
3 5 1 16416.90 16691.10 119.38 o
3 5 2 78.28 72.61 10.55 o
3 5 3 5364.85 5536.63 169.87 o
3 6 0 392.34 377.56 23.90 o
3 6 1 4198.24 4284.96 85.64 o
3 6 2 162.36 175.64 18.39 o
3 6 3 1606.33 1748.62 88.62 o
3 7 0 530.86 479.66 27.36 o
3 7 1 754.76 692.44 31.88 o
3 7 2 276.24 241.62 22.01 o
3 7 3 344.62 380.96 65.21 o
3 8 0 3028.55 3049.84 76.68 o
3 8 1 588.62 575.08 38.26 o
3 8 2 1480.19 1415.64 59.42 o
3 8 3 294.81 306.64 58.81 o
3 9 0 1204.17 1126.45 75.01 o
3 9 1 1788.18 1713.28 69.54 o
3 9 2 724.78 689.34 41.78 o
3 9 3 773.36 775.14 96.90 o
3 10 0 879.14 907.35 68.44 o
3 10 1 13708.40 13672.00 208.05 o
3 10 2 629.84 621.14 40.69 o
3 10 3 6531.40 7624.83 304.19 o
3 11 0 2254.42 2148.25 110.00 o
3 11 1 474.39 426.37 40.78 o
3 11 2 1503.04 1417.45 62.03 o
3 12 0 7601.22 7957.40 218.37 o
3 12 1 65.90 88.90 18.76 o
3 12 2 5212.90 4981.27 117.36 o
3 13 0 22.86 18.51 11.51 <
3 13 1 0.10 3.47 3.97 <
3 13 2 21.83 20.82 11.09 <
3 14 0 701.16 852.10 78.97 o
3 14 1 789.67 773.10 58.21 o
3 14 2 551.45 573.45 61.97 o
3 15 1 372.90 440.21 65.21 o
4 0 2 771.58 625.81 33.63 o
4 0 3 21376.60 22020.00 297.70 o
4 1 0 3984.67 3976.12 63.57 o
4 1 1 1216.70 1354.94 28.30 o
4 1 2 1756.15 1719.98 47.67 o
4 1 3 302.12 255.74 21.33 o
4 2 0 30483.00 32071.40 268.64 o
4 2 1 2342.84 2443.77 34.70 o
4 2 2 12955.70 13258.60 132.01 o
4 2 3 709.41 628.60 31.08 o
4 3 0 4214.40 4772.91 85.58 o
4 3 1 10468.90 10798.70 83.50 o
4 3 2 1779.84 1734.40 48.32 o
4 3 3 2980.18 3089.95 78.89 o
4 4 0 2126.13 2369.63 73.53 o
4 4 1 1802.14 1854.59 35.95 o
4 4 2 1077.90 1119.23 39.92 o
4 4 3 505.57 489.36 37.89 o
4 5 0 2638.04 2710.26 129.56 o
4 5 1 42.25 34.34 5.39 o
4 5 2 1198.29 1104.37 36.62 o
4 5 3 45.15 30.10 10.11 o
4 6 0 466.03 499.69 39.03 o
4 6 1 20.48 19.95 4.26 o
4 6 2 246.35 250.95 18.62 o
4 6 3 19.31 18.80 9.21 o
4 7 0 1031.97 1043.20 43.23 o
4 7 1 8.68 6.97 4.46 <
4 7 2 634.08 552.08 33.12 o
4 7 3 2.66 1.79 5.30 <
4 8 0 387.88 365.16 24.80 o
4 8 1 33.90 29.65 9.46 o
4 8 2 188.94 179.14 21.40 o
4 8 3 25.57 14.15 12.22 <
4 9 0 1606.47 1506.01 51.02 o
4 9 1 25.22 15.66 5.97 o
4 9 2 964.95 828.23 46.39 o
4 9 3 32.53 10.97 12.50 <
4 10 1 4.81 1.43 3.01 <
4 10 2 766.41 706.37 43.09 o
4 10 3 0.79 1.08 5.57 <
4 11 1 3544.48 3472.31 117.85 o
4 11 2 1202.16 1216.22 57.32 o
4 12 0 3739.02 3803.81 161.97 o
4 12 1 1.70 -0.69 15.46 <
4 12 2 2562.47 2610.40 131.54 o
4 13 0 1651.53 1871.67 120.36 o
4 13 1 1737.39 1721.25 83.61 o
4 13 2 1226.33 1217.25 89.66 o
4 14 0 6.03 2.65 5.68 <
4 14 1 5298.43 5413.87 154.91 o
4 14 2 2.77 4.33 10.61 <
4 15 0 7.64 4.55 5.00 <
4 15 1 210.79 293.20 55.03 o
5 1 0 13387.90 12927.40 129.61 o
5 1 1 3610.79 3967.99 52.14 o
5 1 2 5593.26 5492.31 78.84 o
5 1 3 918.08 884.23 39.09 o
5 2 0 78.58 70.12 9.86 o
5 2 1 5895.06 6213.55 58.95 o
5 2 2 61.50 55.11 8.46 o
5 2 3 1754.20 1677.73 51.61 o
5 3 0 1119.51 1141.60 42.60 o
5 3 1 12404.70 13031.10 87.75 o
5 3 2 569.70 628.08 29.70 o
5 3 3 3514.82 3551.68 90.41 o
5 4 0 523.77 467.55 31.02 o
5 4 1 916.67 961.42 27.09 o
5 4 2 270.59 272.07 17.43 o
5 4 3 210.71 215.87 24.55 o
5 5 0 6471.13 6962.61 146.57 o
5 5 1 8791.42 8836.06 88.77 o
5 5 2 3087.08 3314.41 71.58 o
5 5 3 3411.95 3373.88 109.66 o
5 6 0 8790.43 9745.01 258.38 o
5 6 1 746.51 745.33 30.35 o
5 6 2 4577.15 4564.04 80.22 o
5 6 3 129.57 78.33 16.90 o
5 7 0 673.76 688.82 46.85 o
5 7 1 1345.19 1309.81 40.56 o
5 7 2 350.93 343.42 22.91 o
5 7 3 521.95 504.64 78.33 o
5 8 0 10574.80 10168.50 146.01 o
5 8 1 1115.80 1014.84 61.63 o
5 8 2 6113.54 5655.68 121.10 o
5 8 3 398.60 427.55 68.31 o
5 9 0 231.11 193.72 18.47 o
5 9 1 6.28 4.40 5.30 <
5 9 2 156.20 135.76 18.73 o
5 9 3 5.77 2.18 5.17 <
5 10 0 914.55 843.76 38.89 o
5 10 1 2620.77 2588.10 103.37 o
5 10 2 634.06 632.48 40.45 o
5 10 3 1227.08 1335.93 123.27 o
5 11 1 99.05 97.73 20.32 o
5 11 2 0.36 0.36 2.99 <
5 12 1 1527.50 1572.66 83.37 o
5 12 2 276.83 316.07 45.12 o
5 13 1 3867.80 3896.13 131.28 o
5 13 2 128.77 52.96 26.34 o
5 14 1 551.37 574.19 52.25 o
5 14 2 35.49 9.72 10.51 <
6 0 1 1229.29 1382.45 56.50 o
6 0 2 1123.18 1052.11 55.88 o
6 0 3 402.61 437.78 42.70 o
6 1 0 469.53 426.49 26.37 o
6 1 1 665.15 690.12 24.86 o
6 1 2 249.37 239.55 17.41 o
6 1 3 242.76 204.32 18.30 o
6 2 0 76.19 164.52 16.64 o
6 2 1 6078.97 6296.56 69.75 o
6 2 2 9.66 1.71 2.03 <
6 2 3 1757.15 1692.45 57.82 o
6 3 0 3969.88 4241.37 88.76 o
6 3 1 180.51 173.12 11.68 o
6 3 2 1955.81 2112.82 55.24 o
6 3 3 33.45 21.55 7.05 o
6 4 0 5809.61 6231.05 114.53 o
6 4 1 75.41 84.01 8.29 o
6 4 2 2772.56 2951.52 57.79 o
6 4 3 54.39 26.49 8.65 o
6 5 0 32265.10 33682.60 305.71 o
6 5 1 3024.22 3097.06 60.33 o
6 5 2 16357.10 16920.60 143.69 o
6 5 3 1425.94 1289.55 63.61 o
6 6 0 2.06 1.51 3.08 <
6 6 1 590.98 613.87 28.97 o
6 6 2 0.68 0.44 2.14 <
6 6 3 185.39 174.99 31.35 o
6 7 0 3188.35 3026.95 154.51 o
6 7 2 2059.61 2093.69 56.13 o
6 7 3 8690.87 9240.65 220.77 o
6 8 0 0.75 0.97 5.76 <
6 8 1 433.85 422.18 27.74 o
6 8 2 0.43 -1.69 3.01 <
6 8 3 199.18 227.94 49.84 o
6 9 0 14892.80 14254.70 183.06 o
6 9 1 5.54 -0.46 3.29 <
6 9 2 9278.41 8473.47 156.57 o
6 9 3 0.10 0.17 2.60 <
6 10 0 1264.23 1016.65 42.88 o
6 10 1 147.11 152.87 25.38 o
6 10 2 834.28 815.46 78.41 o
6 10 3 72.19 88.02 30.58 o
6 11 1 53.36 46.25 14.76 o
6 11 2 326.93 291.31 43.48 o
6 12 1 243.90 225.80 32.30 o
6 12 2 122.53 137.10 28.11 o
6 13 1 27.80 11.65 6.96 <
6 13 2 1773.78 1717.92 147.90 o
6 14 1 72.46 21.27 10.43 o
6 14 2 322.65 365.26 70.75 o
6 15 1 23.54 15.54 16.76 <
7 1 0 1498.08 1178.74 47.24 o
7 1 1 2097.20 1937.24 58.35 o
7 1 2 695.34 798.92 36.13 o
7 1 3 558.98 534.62 37.56 o
7 2 0 1439.12 1332.35 50.18 o
7 2 1 12558.00 12618.10 123.07 o
7 2 2 716.19 725.17 33.66 o
7 2 3 3977.35 4101.91 101.56 o
7 3 0 764.84 822.88 40.85 o
7 3 1 9920.93 10300.60 103.63 o
7 3 2 320.34 342.55 22.81 o
7 3 3 3074.76 3071.74 91.79 o
7 4 0 6788.95 7190.88 126.79 o
7 4 1 261.28 299.29 16.08 o
7 4 2 3325.75 3494.40 74.25 o
7 4 3 89.16 79.57 15.02 o
7 5 0 7032.95 7444.31 141.15 o
7 5 1 0.01 -0.69 1.87 <
7 5 2 3643.82 3890.93 69.56 o
7 5 3 1.10 5.65 5.71 <
7 6 0 332.02 384.57 35.56 o
7 6 1 1153.14 1237.87 41.07 o
7 6 2 191.24 212.39 16.94 o
7 6 3 494.73 516.11 53.97 o
7 7 0 4.41 5.43 4.87 <
7 7 1 87.58 96.85 12.29 o
7 7 2 3.81 4.11 8.65 <
7 7 3 31.17 15.79 8.91 <
7 8 0 4022.27 4293.00 197.04 o
7 8 1 637.66 684.55 35.09 o
7 8 2 2373.79 2485.54 65.53 o
7 8 3 233.58 280.21 39.12 o
7 9 0 835.62 791.93 55.24 o
7 9 1 12.78 8.78 5.96 <
7 9 2 502.24 603.22 43.62 o
7 9 3 7.32 6.79 10.43 <
7 10 0 9931.65 9691.93 158.05 o
7 10 1 1856.25 1672.18 84.55 o
7 10 2 6600.77 6341.08 294.58 o
7 10 3 981.64 1227.40 119.82 o
7 11 0 63.29 48.18 9.47 o
7 11 1 1706.94 1635.47 86.08 o
7 11 2 63.91 80.33 31.23 o
7 12 1 8056.65 8003.93 198.38 o
7 12 2 393.69 155.37 40.01 o
7 13 1 1462.18 1402.07 85.29 o
7 13 2 453.22 414.89 68.54 o
7 14 1 1396.69 882.19 77.28 o
7 15 1 424.49 397.85 78.46 o
8 0 2 4124.78 4301.80 124.85 o
8 0 3 5866.33 4983.41 146.32 o
8 1 0 12.47 3.26 3.76 <
8 1 1 8726.24 8319.02 150.16 o
8 1 2 5.28 2.51 1.75 <
8 1 3 2859.11 2910.88 89.23 o
8 2 0 9304.97 9034.99 140.11 o
8 2 1 7871.44 7946.25 112.17 o
8 2 2 4467.05 4750.11 90.15 o
8 2 3 2454.54 2529.75 87.30 o
8 3 0 23982.10 24577.40 237.99 o
8 3 1 5609.01 5618.37 79.93 o
8 3 2 11815.40 12232.60 126.58 o
8 3 3 2002.98 2015.82 75.48 o
8 4 0 2482.87 2583.42 80.62 o
8 4 1 88.61 103.39 10.08 o
8 4 2 1289.06 1294.23 47.06 o
8 4 3 29.86 28.19 8.91 o
8 5 0 384.65 365.70 31.26 o
8 5 1 2856.31 3029.23 58.79 o
8 5 2 287.49 302.92 20.11 o
8 5 3 790.57 758.66 67.00 o
8 6 0 1273.60 1242.20 64.54 o
8 6 1 0.07 -0.60 1.39 <
8 6 2 733.97 730.77 32.42 o
8 6 3 1.73 -2.31 3.18 <
8 7 0 782.50 828.15 59.71 o
8 7 1 1327.97 1399.96 50.66 o
8 7 2 363.03 360.04 23.88 o
8 7 3 725.94 786.27 65.17 o
8 8 0 259.20 326.88 57.18 o
8 8 1 230.31 243.05 23.26 o
8 8 2 136.92 155.90 17.11 o
8 8 3 95.84 101.78 22.54 o
8 9 0 470.90 451.50 71.12 o
8 9 1 4684.25 4723.35 107.52 o
8 9 2 286.22 363.52 39.42 o
8 9 3 2223.26 2457.42 166.73 o
8 10 0 428.93 366.35 31.04 o
8 10 1 11.23 3.19 12.14 <
8 10 2 299.27 319.14 70.22 o
8 10 3 3.97 2.28 5.40 <
8 11 0 2051.17 1909.06 73.26 o
8 11 1 3016.97 2585.52 126.79 o
8 12 0 894.04 685.72 34.37 o
8 12 1 860.71 839.70 80.19 o
8 13 1 2038.88 2152.01 133.83 o
9 1 1 6853.19 6326.49 140.43 o
9 1 2 10.71 6.22 3.80 <
9 1 3 2167.30 2093.11 98.24 o
9 2 0 8745.30 7849.03 138.42 o
9 2 1 1799.32 1658.86 54.53 o
9 2 2 4387.77 4759.79 95.91 o
9 2 3 726.87 669.54 46.60 o
9 3 0 23090.90 22908.80 242.42 o
9 3 1 443.48 422.07 23.29 o
9 3 2 11635.30 12092.00 133.75 o
9 3 3 211.28 205.35 25.36 o
9 4 0 58.28 55.34 12.12 o
9 4 1 1333.27 1399.22 43.52 o
9 4 2 29.23 23.25 5.83 o
9 4 3 394.14 370.77 32.99 o
9 5 0 1632.15 1567.99 68.83 o
9 5 1 9596.79 10693.20 128.83 o
9 5 2 1049.73 1118.93 40.94 o
9 5 3 3475.00 3534.58 147.41 o
9 6 0 152.80 166.06 22.18 o
9 6 1 827.81 897.62 34.38 o
9 6 2 79.27 65.42 9.80 o
9 6 3 311.85 295.34 40.95 o
9 7 0 1084.49 1106.13 67.04 o
9 7 1 850.67 922.78 41.70 o
9 7 2 608.91 628.22 34.78 o
9 7 3 402.25 420.68 48.75 o
9 8 0 1290.11 1325.90 84.87 o
9 8 1 2179.99 2422.87 71.87 o
9 8 2 880.54 989.84 49.53 o
9 8 3 1097.42 1224.36 81.71 o
9 9 0 1890.61 2013.37 141.82 o
9 9 1 911.73 968.41 50.91 o
9 9 2 1285.96 1448.12 74.78 o
9 9 3 441.94 549.09 57.24 o
9 10 0 1.58 0.62 5.32 <
9 10 1 1765.91 2063.21 112.57 o
9 10 2 2.05 4.07 4.99 <
9 11 0 118.32 101.89 17.45 o
9 12 0 2014.34 1666.65 66.82 o
9 13 1 153.36 167.66 36.96 o
10 0 2 750.53 891.56 81.22 o
10 0 3 2911.14 2130.64 156.84 o
10 1 1 1295.22 1073.57 93.65 o
10 1 2 58.13 50.02 12.75 o
10 1 3 465.64 395.64 52.11 o
10 2 0 3682.59 3229.83 94.41 o
10 2 1 1086.08 994.50 44.48 o
10 2 2 1973.78 2012.61 59.36 o
10 2 3 264.67 237.67 32.95 o
10 3 0 301.29 266.38 27.44 o
10 3 1 333.59 314.77 21.11 o
10 3 2 141.63 152.57 16.20 o
10 3 3 141.81 151.62 32.52 o
10 4 0 8674.34 8702.33 164.29 o
10 4 1 91.95 94.81 11.86 o
10 4 2 4936.28 5196.29 96.13 o
10 4 3 39.77 22.55 11.71 <
10 5 0 878.72 866.97 52.34 o
10 5 1 10573.60 11562.30 137.05 o
10 5 2 632.26 708.44 34.62 o
10 5 3 4040.88 4263.72 166.80 o
10 6 0 51.07 65.99 15.23 o
10 6 1 2463.77 2723.59 71.46 o
10 6 2 34.48 27.62 6.97 o
10 6 3 1115.49 1175.23 84.64 o
10 7 0 21255.30 24134.30 318.45 o
10 7 1 224.14 191.79 19.66 o
10 7 2 12563.20 14763.60 192.74 o
10 7 3 86.64 36.15 15.21 o
10 8 0 2.15 1.25 33.88 <
10 8 1 1095.48 1270.03 53.28 o
10 8 2 1.90 1.10 6.26 <
10 8 3 554.35 654.36 66.79 o
10 9 0 192.80 237.38 46.34 o
10 9 1 9581.84 10874.60 173.94 o
10 9 2 114.83 152.94 29.73 o
10 9 3 4746.34 6213.00 227.15 o
10 10 0 846.36 930.68 103.35 o
10 10 1 62.49 58.06 13.19 o
10 10 2 575.55 633.85 58.97 o
10 11 0 73.37 78.64 31.27 o
10 12 0 52.61 57.75 14.54 o
11 1 2 4374.01 4605.83 129.28 o
11 2 0 2644.18 2281.98 85.93 o
11 2 1 5.12 3.40 3.17 <
11 2 2 1415.91 1375.37 55.92 o
11 2 3 7.01 5.28 6.26 <
11 3 0 4050.30 3861.46 111.88 o
11 3 1 30.75 21.51 5.97 o
11 3 2 2199.97 2146.71 69.86 o
11 3 3 4.66 1.19 2.67 <
11 4 0 338.09 311.55 32.31 o
11 4 1 206.63 192.50 17.97 o
11 4 2 151.79 137.33 17.00 o
11 4 3 71.00 76.26 23.34 o
11 5 0 602.64 670.46 47.63 o
11 5 1 0.02 -0.71 3.17 <
11 5 2 366.72 406.72 27.41 o
11 5 3 2.35 -2.62 6.15 <
11 6 0 2306.66 2563.48 97.90 o
11 6 1 1316.45 1467.61 52.78 o
11 6 2 1363.80 1457.50 67.19 o
11 6 3 576.83 628.05 66.94 o
11 7 0 7.91 4.99 6.62 <
11 7 1 250.36 254.34 23.54 o
11 7 2 5.40 3.86 3.94 <
11 7 3 118.54 87.59 22.76 o
11 8 0 41.91 34.10 11.84 o
11 8 1 8845.61 10329.20 170.45 o
11 8 2 32.34 36.62 11.40 o
11 8 3 4437.78 5241.69 218.58 o
11 9 0 1358.00 1474.42 95.05 o
11 9 1 6.45 9.47 5.61 <
11 9 2 942.05 1110.34 84.22 o
11 9 3 0.43 -3.11 6.48 <
11 10 0 4682.16 5488.77 249.93 o
11 10 1 3048.01 3532.07 115.66 o
11 10 2 3244.78 4644.99 168.45 o
11 11 1 981.44 856.99 47.20 o
12 0 2 21804.60 20137.60 490.32 o
12 1 2 1446.18 1435.31 77.23 o
12 2 0 32.23 25.51 16.30 <
12 2 1 6858.94 6412.28 127.74 o
12 2 2 13.83 7.42 5.40 <
12 3 0 712.97 580.27 46.57 o
12 3 1 6906.73 6259.13 123.96 o
12 3 2 443.30 393.38 30.27 o
12 3 3 2783.42 3108.10 229.35 o
12 4 0 52.69 43.17 13.01 o
12 4 1 857.00 752.47 36.77 o
12 4 2 36.95 22.54 6.57 o
12 4 3 418.61 502.62 83.73 o
12 5 0 4812.34 4894.05 137.49 o
12 5 1 154.63 150.75 22.04 o
12 5 2 2721.78 2861.33 81.16 o
12 5 3 89.79 80.89 25.74 o
12 6 0 11.41 16.91 7.50 o
12 6 1 1590.49 1672.61 58.17 o
12 6 2 15.99 17.39 7.51 o
12 6 3 752.28 754.94 83.52 o
12 7 0 869.85 916.16 64.06 o
12 7 1 4340.73 4825.45 105.69 o
12 7 2 627.65 816.62 58.34 o
12 7 3 2038.96 1911.78 141.97 o
12 8 0 284.79 322.10 39.55 o
12 8 1 1793.42 2144.51 86.07 o
12 8 2 196.48 194.06 39.67 o
12 8 3 933.64 1170.19 111.32 o
12 9 0 5246.77 5265.99 178.81 o
12 9 1 1.51 7.35 12.48 <
12 9 2 3617.44 4060.59 167.60 o
12 10 0 209.01 232.12 51.06 o
12 10 1 613.57 737.37 54.47 o
12 10 2 155.03 197.86 36.12 o
12 11 1 407.83 451.93 42.01 o
13 2 1 2453.80 2176.89 100.58 o
13 2 2 69.90 39.95 12.04 o
13 3 0 22.57 20.07 8.90 o
13 3 1 9696.18 8968.80 187.79 o
13 3 2 13.34 5.73 4.24 <
13 4 0 2254.83 2166.77 92.38 o
13 4 1 1.80 0.65 3.17 <
13 4 2 1202.50 1209.96 53.07 o
13 4 3 0.03 -0.76 4.49 <
13 5 0 9225.82 9573.70 199.28 o
13 5 1 131.81 147.48 17.19 o
13 5 2 5496.76 5762.73 131.60 o
13 5 3 67.35 49.11 23.23 o
13 6 0 295.06 314.35 38.53 o
13 6 1 2920.74 2811.12 77.29 o
13 6 2 250.82 354.30 34.26 o
13 6 3 1459.40 1466.35 138.47 o
13 7 0 115.41 173.41 28.04 o
13 7 1 681.48 706.80 41.07 o
13 7 2 72.30 118.39 22.37 o
13 7 3 335.27 346.52 63.22 o
13 8 0 0.43 0.82 3.90 <
13 8 1 74.16 63.29 14.50 o
13 8 2 4.15 0.42 3.90 <
13 8 3 22.00 17.20 13.64 <
13 9 0 1200.99 1416.65 123.36 o
13 9 1 2294.90 2851.60 133.67 o
13 9 2 828.36 960.86 88.66 o
13 10 2 991.76 1268.18 96.87 o
14 2 2 3668.11 3012.44 208.01 o
14 3 0 1.27 1.47 3.94 <
14 3 1 82.29 66.22 14.80 o
14 3 2 0.19 1.71 3.87 <
14 4 0 167.08 246.85 36.77 o
14 4 1 10080.60 9068.21 137.79 o
14 4 2 72.87 94.88 20.86 o
14 5 0 2568.59 2515.00 107.64 o
14 5 1 41.01 21.65 6.98 o
14 5 2 1540.81 1885.11 114.34 o
14 5 3 23.09 14.76 17.44 <
14 6 0 2702.89 2837.99 118.47 o
14 6 1 643.82 655.95 38.66 o
14 6 2 1748.70 2360.55 90.16 o
14 6 3 326.53 317.18 67.39 o
14 7 0 1411.65 1717.50 91.63 o
14 7 1 5266.30 5788.53 169.03 o
14 7 2 1026.31 1219.50 109.13 o
14 7 3 2660.88 2817.52 198.45 o
14 8 0 783.39 884.77 68.31 o
14 8 1 171.35 212.85 33.28 o
14 8 2 550.41 656.24 83.01 o
14 8 3 93.76 106.09 38.31 o
14 9 0 883.74 1033.56 108.53 o
14 9 2 580.14 708.48 82.09 o
15 3 0 681.24 479.05 75.19 o
15 3 1 85.39 58.70 14.34 o
15 3 2 483.67 300.02 42.73 o
15 4 0 159.11 83.77 24.44 o
15 4 1 4337.01 4013.62 114.05 o
15 4 2 99.01 96.60 27.79 o
15 5 0 751.57 649.77 58.54 o
15 5 1 1065.25 1032.69 50.09 o
15 5 2 525.13 611.14 72.03 o
15 6 0 704.17 668.97 58.39 o
15 6 1 1893.20 1870.61 76.98 o
15 6 3 953.10 1076.86 129.56 o
15 7 0 1.70 -2.53 5.57 <
15 7 1 66.51 66.07 17.50 o
15 7 3 37.90 35.23 23.27 <
15 8 0 3964.29 4584.98 220.52 o
15 8 1 0.09 -0.19 11.37 <
15 8 2 2711.08 3164.20 179.39 o
15 8 3 2.65 2.39 5.96 <
15 9 2 40.60 33.94 18.39 <
16 3 0 642.85 358.44 76.54 o
16 3 1 1804.51 1410.00 74.93 o
16 3 2 406.98 199.38 39.28 o
16 4 0 6.64 1.67 6.04 <
16 4 1 399.85 290.83 40.63 o
16 5 0 517.05 401.00 46.80 o
16 5 1 2692.43 2367.62 89.43 o
16 6 0 367.12 336.35 44.24 o
16 6 1 326.41 241.73 34.74 o
16 7 0 4432.18 4633.95 225.40 o
16 7 1 147.95 138.32 26.27 o
17 4 0 8.68 3.21 8.72 <
17 4 1 658.13 497.55 56.46 o
17 5 0 20.64 7.17 6.72 <
17 5 1 7116.23 6230.99 257.20 o
17 6 0 10754.40 9223.19 328.92 o
17 6 1 164.50 199.14 33.81 o
17 7 0 176.08 162.84 40.28 o
18 4 1 22.04 6.60 11.50 <
18 5 0 866.92 609.22 92.70 o
18 5 1 333.43 241.45 51.06 o
