#------------------------------------------------------------------------------
#$Date: 2021-04-14 11:22:28 +0300 (Wed, 14 Apr 2021) $
#$Revision: 264129 $
#$URL: file:///home/coder/svn-repositories/cod/cif/1/56/17/1561726.cif $
#------------------------------------------------------------------------------
#
# This file is available in the Crystallography Open Database (COD),
# http://www.crystallography.net/
#
# All data on this site have been placed in the public domain by the
# contributors.
#
data_1561726
loop_
_publ_author_name
'Ramachandran, Krishna K.'
'Genet, Cl\'ement'
'Mar, Arthur'
_publ_section_title
;
 Quaternary rare-earth arsenides REAg1&#x2212;Zn As2 (RE=La--Nd, Sm,
 Gd--Dy) with tetragonal SrZnBi2- and HfCuSi2-type structures
;
_journal_name_full               'Journal of Solid State Chemistry'
_journal_page_first              204
_journal_page_last               211
_journal_paper_doi               10.1016/j.jssc.2015.08.032
_journal_volume                  231
_journal_year                    2015
_chemical_formula_structural     'La Ag0.50 Zn0.50 As2'
_chemical_formula_sum            'Ag0.5 As2 La Zn0.5'
_chemical_formula_weight         375.37
_chemical_name_common
'lanthanum silver zinc arsenide (1/0.5/0.5/2)'
_chemical_name_systematic
'lanthanum silver zinc arsenide (1/0.5/0.5/2)'
_space_group_crystal_system      tetragonal
_space_group_IT_number           139
_space_group_name_Hall           '-I 4 2'
_space_group_name_H-M_alt        'I 4/m m m'
_atom_sites_solution_hydrogens   .
_atom_sites_solution_primary     direct
_atom_sites_solution_secondary   difmap
_audit_creation_method           SHELXL-2013
_cell_angle_alpha                90
_cell_angle_beta                 90
_cell_angle_gamma                90
_cell_formula_units_Z            4
_cell_length_a                   4.1300(2)
_cell_length_b                   4.1300(2)
_cell_length_c                   20.8160(11)
_cell_measurement_reflns_used    2696
_cell_measurement_temperature    296(2)
_cell_measurement_theta_max      33.06
_cell_measurement_theta_min      3.92
_cell_volume                     355.06(3)
_computing_cell_refinement       'Bruker SAINT 8.34A (Bruker, 2013)'
_computing_data_collection       'Bruker APEX 2 (Bruker, 2008)'
_computing_data_reduction        'Bruker SAINT 8.34A'
_computing_molecular_graphics    'ATOMS 5.1 (Dowty, 1999)'
_computing_publication_material  'Bruker SHELXTL'
_computing_structure_refinement  'SHELXL-2013 (Sheldrick, 2013)'
_computing_structure_solution    'SHELXS-97 (Sheldrick, 2008)'
_diffrn_ambient_temperature      296(2)
_diffrn_measured_fraction_theta_full 1.000
_diffrn_measured_fraction_theta_max 0.996
_diffrn_measurement_device_type  'Bruker PLATFORM/SMART APEX II CCD'
_diffrn_measurement_method       '\w and \f scans'
_diffrn_radiation_type           MoK\a
_diffrn_radiation_wavelength     0.71073
_diffrn_reflns_av_R_equivalents  0.0261
_diffrn_reflns_av_unetI/netI     0.0141
_diffrn_reflns_Laue_measured_fraction_full 1.000
_diffrn_reflns_Laue_measured_fraction_max 0.996
_diffrn_reflns_limit_h_max       6
_diffrn_reflns_limit_h_min       -6
_diffrn_reflns_limit_k_max       6
_diffrn_reflns_limit_k_min       -6
_diffrn_reflns_limit_l_max       31
_diffrn_reflns_limit_l_min       -31
_diffrn_reflns_number            2499
_diffrn_reflns_point_group_measured_fraction_full 1.000
_diffrn_reflns_point_group_measured_fraction_max 0.996
_diffrn_reflns_theta_full        25.242
_diffrn_reflns_theta_max         33.057
_diffrn_reflns_theta_min         1.957
_diffrn_source                   'fine-focus sealed tube'
_exptl_absorpt_coefficient_mu    36.220
_exptl_absorpt_correction_T_max  0.2396
_exptl_absorpt_correction_T_min  0.0623
_exptl_absorpt_correction_type   numerical
_exptl_absorpt_process_details   'Bruker SHELXTL (Sheldrick, 2013)'
_exptl_crystal_colour            black
_exptl_crystal_density_diffrn    7.022
_exptl_crystal_density_method    'not measured'
_exptl_crystal_description       irregular
_exptl_crystal_F_000             646
_exptl_crystal_size_max          0.121
_exptl_crystal_size_mid          0.116
_exptl_crystal_size_min          0.078
_refine_diff_density_max         1.124
_refine_diff_density_min         -0.772
_refine_diff_density_rms         0.192
_refine_ls_extinction_coef       0.0122(5)
_refine_ls_extinction_expression Fc^*^=kFc[1+0.001xFc^2^\l^3^/sin(2\q)]^-1/4^
_refine_ls_extinction_method     SHELXL
_refine_ls_goodness_of_fit_ref   1.144
_refine_ls_hydrogen_treatment    undef
_refine_ls_matrix_type           full
_refine_ls_number_parameters     13
_refine_ls_number_reflns         248
_refine_ls_number_restraints     0
_refine_ls_restrained_S_all      1.144
_refine_ls_R_factor_all          0.0136
_refine_ls_R_factor_gt           0.0134
_refine_ls_shift/su_max          0.000
_refine_ls_shift/su_mean         0.000
_refine_ls_structure_factor_coef Fsqd
_refine_ls_weighting_details
'w=1/[\s^2^(Fo^2^)+(0.0092P)^2^+2.4955P] where P=(Fo^2^+2Fc^2^)/3'
_refine_ls_weighting_scheme      calc
_refine_ls_wR_factor_gt          0.0306
_refine_ls_wR_factor_ref         0.0307
_reflns_Friedel_coverage         0.000
_reflns_Friedel_fraction_full    .
_reflns_Friedel_fraction_max     .
_reflns_number_gt                245
_reflns_number_total             248
_reflns_threshold_expression     'I > 2\s(I)'
_cod_data_source_file            JSSC-2015-231-204.cif
_cod_data_source_block           LaAgZnAs-unsplit
_cod_original_cell_volume        355.06(4)
_cod_original_formula_sum        'Ag0.50 As2 La Zn0.50'
_cod_database_code               1561726
_shelx_space_group_comment
;
The symmetry employed for this shelxl refinement is uniquely defined
by the following loop, which should always be used as a source of
symmetry information in preference to the above space-group names.
They are only intended as comments.
;
_shelx_estimated_absorpt_t_min   0.097
_shelx_estimated_absorpt_t_max   0.164
_shelxl_version_number           2013-4
_shelx_res_file
;
TITL LaAg0.5Zn0.5As2 I4/mmm lsf unsplit model
CELL 0.71073   4.13000   4.13000  20.81600  90.0000  90.0000  90.0000
ZERR    4.00   0.00020   0.00020   0.00110   0.0000   0.0000   0.0000
LATT  2
SYMM -X, -Y, Z
SYMM -Y, X, Z
SYMM Y, -X, Z
SYMM -X, Y, -Z
SYMM X, -Y, -Z
SYMM Y, X, -Z
SYMM -Y, -X, -Z
SFAC ZN AS AG LA
UNIT 2 8 2 4
TEMP 23
SIZE 0.078 0.116 0.121

L.S. 4
ACTA

EXYZ AG ZN
EADP AG ZN
WGHT    0.009200    2.495500
EXTI    0.012243
FVAR       0.09080
LA    4    0.000000    0.000000    0.111853    10.12500    0.00786    0.00786 =
         0.00971    0.00000    0.00000    0.00000
AG    3    0.000000    0.500000    0.250000    10.06250    0.01311    0.01311 =
         0.01063    0.00000    0.00000    0.00000
ZN    1    0.000000    0.500000    0.250000    10.06250    0.01311    0.01311 =
         0.01063    0.00000    0.00000    0.00000
AS1   2    0.000000    0.000000    0.332610    10.12500    0.01045    0.01045 =
         0.01502    0.00000    0.00000    0.00000
AS2   2    0.000000    0.500000    0.000000    10.12500    0.06914    0.01470 =
         0.00653    0.00000    0.00000    0.00000
HKLF 4

REM  LaAg0.5Zn0.5As2 I4/mmm lsf unsplit model
REM R1 =  0.0134 for     245 Fo > 4sig(Fo)  and  0.0136 for all     248 data
REM     13 parameters refined using      0 restraints

END

WGHT      0.0092      2.4955

REM Highest difference peak  1.124,  deepest hole -0.772,  1-sigma level  0.192
Q1    1   0.1644  0.0000  0.1142  10.50000  0.05    1.12
Q2    1   0.0000  0.0000  0.0765  10.12500  0.05    0.98
Q3    1   0.0000  0.0000  0.1525  10.12500  0.05    0.81
Q4    1   0.0000  0.3142  0.2486  10.50000  0.05    0.75
Q5    1   0.1647  0.0000  0.3313  10.50000  0.05    0.72
Q6    1   0.0000  0.0000  0.3007  10.12500  0.05    0.70
Q7    1  -0.1514  0.5000 -0.0266  10.50000  0.05    0.58
Q8    1   0.0000  0.3146  0.0000  10.25000  0.05    0.52
Q9    1   0.0000  0.6127 -0.0092  10.50000  0.05    0.41
Q10   1   0.0000  0.5000  0.2901  10.25000  0.05    0.39
Q11   1   0.0000  0.2895  0.0626  10.50000  0.05    0.39
Q12   1   0.0000  0.0000  0.2033  10.12500  0.05    0.39
Q13   1   0.0000  0.0645  0.4101  10.50000  0.05    0.35
Q14   1   0.2613  0.0000  0.3683  10.50000  0.05    0.31
Q15   1   0.2209  0.5000  0.2038  10.50000  0.05    0.31
Q16   1   0.0000  0.0000  0.0000  10.06250  0.05    0.30
Q17   1   0.2655  0.0000  0.1493  10.50000  0.05    0.26
Q18   1   0.1008  0.1008  0.3679  10.50000  0.05    0.26
Q19   1   0.2731  0.0000  0.4122  10.50000  0.05    0.22
Q20   1   0.0000  0.4104  0.1076  10.50000  0.05    0.20
;
_shelx_res_checksum              2020
_shelx_hkl_file
;
   0  -1 -31   38.70    2.03
   1   0 -31   42.41    2.23
  -1  -1 -30    0.51    0.30
   0   0 -30    2.17    0.54
  -1   1 -30    0.88    0.43
   1   1 -30    0.75    0.42
  -1  -2 -29    0.92    0.31
  -2  -1 -29    1.16    0.41
   0  -1 -29    2.31    0.48
  -1   0 -29    1.00    0.40
   1   0 -29    3.10    0.63
  -2   1 -29    0.52    0.24
   0   1 -29    2.62    0.63
   2   1 -29    0.46    0.34
  -1   2 -29    0.99    0.45
   1   2 -29    0.86    0.41
  -2  -2 -28   63.21    2.92
   2  -2 -28   68.52    3.43
  -1  -1 -28   13.02    1.02
  -2   0 -28   83.33    3.67
   0   0 -28  117.40    4.70
  -1   1 -28   13.83    1.21
   1   1 -28   15.29    1.25
  -2   2 -28   67.85    3.14
   0   2 -28   80.55    3.78
   2   2 -28   65.72    3.59
  -1  -2 -27   79.73    3.22
  -2  -1 -27   79.43    3.38
   0  -1 -27   88.82    3.60
   2  -1 -27   82.00    3.73
  -3   0 -27   51.57    1.83
  -1   0 -27   87.09    3.78
   1   0 -27   88.71    3.78
   3   0 -27   54.14    2.80
  -2   1 -27   79.00    2.43
   0   1 -27   88.79    3.92
   2   1 -27   71.80    3.55
  -1   2 -27   76.76    2.46
   1   2 -27   76.15    3.60
   0   3 -27   55.89    2.72
   1  -3 -26   20.68    1.50
  -2  -2 -26    8.41    0.77
   2  -2 -26    7.36    1.00
  -3  -1 -26   18.56    0.87
  -1  -1 -26   18.22    1.15
   1  -1 -26   20.05    1.15
   3  -1 -26   17.69    1.37
  -2   0 -26    9.30    0.62
   0   0 -26   15.15    1.09
  -3   1 -26   19.08    0.94
  -1   1 -26   18.94    0.87
   1   1 -26   14.38    1.23
   3   1 -26   17.93    0.99
  -2   2 -26    6.89    0.64
   0   2 -26    8.95    1.06
   2   2 -26    5.63    0.89
  -1   3 -26   18.03    0.95
   1   3 -26   18.69    1.37
  -2  -3 -25    0.43    0.26
   2  -3 -25    0.11    0.25
  -3  -2 -25    0.12    0.15
  -1  -2 -25    1.10    0.32
   1  -2 -25    1.00    0.40
   3  -2 -25   -0.25    0.20
  -2  -1 -25    1.21    0.24
   0  -1 -25    0.25    0.17
   2  -1 -25    0.77    0.33
  -3   0 -25    0.01    0.12
  -1   0 -25    0.33    0.24
   1   0 -25    0.33    0.23
   3   0 -25    0.16    0.23
  -2   1 -25    1.05    0.25
   0   1 -25    0.13    0.24
   2   1 -25    0.51    0.33
  -3   2 -25    0.33    0.17
  -1   2 -25    1.24    0.28
   1   2 -25    2.64    0.63
   3   2 -25    0.17    0.31
  -2   3 -25    0.16    0.18
   0   3 -25    0.28    0.18
   2   3 -25    0.03    0.24
   0  -4 -24   23.32    1.69
   1  -3 -24   34.17    2.00
  -2  -2 -24   44.85    2.12
   0  -2 -24   66.82    2.70
   2  -2 -24   44.84    2.37
  -3  -1 -24   32.47    1.23
  -1  -1 -24   60.81    2.64
   1  -1 -24   62.81    1.92
   3  -1 -24   31.25    1.87
  -2   0 -24   66.70    2.03
   0   0 -24  101.29    4.03
   2   0 -24   70.05    2.13
   4   0 -24   25.05    1.66
  -3   1 -24   32.78    1.29
  -1   1 -24   62.01    1.93
   1   1 -24   59.39    2.91
   3   1 -24   30.66    1.35
  -2   2 -24   43.13    1.60
   0   2 -24   64.65    2.10
   2   2 -24   45.67    2.43
  -1   3 -24   32.47    1.32
   1   3 -24   34.92    1.92
   0   4 -24   24.96    1.10
   1  -4 -23   31.40    1.97
  -2  -3 -23   52.68    2.40
   0  -3 -23   75.42    3.49
   2  -3 -23   49.49    2.69
  -3  -2 -23   55.43    1.75
  -1  -2 -23   66.46    2.74
   1  -2 -23   67.48    3.15
   3  -2 -23   53.95    2.72
  -4  -1 -23   31.32    1.27
  -2  -1 -23   66.80    1.98
   0  -1 -23   88.08    3.50
   2  -1 -23   64.03    2.99
   4  -1 -23   32.19    1.97
  -3   0 -23   71.26    2.20
  -1   0 -23   91.62    2.52
   1   0 -23   94.15    3.69
   3   0 -23   68.76    3.24
  -4   1 -23   31.69    1.32
  -2   1 -23   65.08    2.06
   0   1 -23   83.73    3.74
   2   1 -23   66.75    2.16
   4   1 -23   33.79    1.97
  -3   2 -23   53.00    1.52
  -1   2 -23   64.59    2.10
   1   2 -23   67.28    3.11
   3   2 -23   57.02    1.98
  -2   3 -23   49.70    1.83
   0   3 -23   72.52    2.29
   2   3 -23   54.44    2.66
  -1   4 -23   33.47    1.30
   1   4 -23   31.92    1.80
   0  -4 -22   65.36    3.26
  -3  -3 -22   25.78    1.54
  -1  -3 -22   47.29    2.05
   1  -3 -22   43.97    2.38
   3  -3 -22   27.00    1.76
  -2  -2 -22   85.50    2.37
   0  -2 -22   97.82    2.70
   2  -2 -22   77.67    3.61
  -3  -1 -22   46.71    1.53
  -1  -1 -22   82.68    2.26
   1  -1 -22   85.45    2.37
   3  -1 -22   46.09    2.35
  -4   0 -22   65.05    2.13
  -2   0 -22   88.91    2.63
   0   0 -22  108.27    4.14
   2   0 -22   99.67    2.77
   4   0 -22   67.93    3.17
  -3   1 -22   45.24    1.30
  -1   1 -22   79.95    2.38
   1   1 -22   77.15    3.52
   3   1 -22   44.96    1.67
  -2   2 -22   84.28    2.07
   0   2 -22   88.16    2.74
   2   2 -22   86.44    3.74
   4   2 -22   63.21    2.23
  -3   3 -22   26.14    1.21
  -1   3 -22   43.19    1.60
   1   3 -22   47.85    2.33
   3   3 -22   28.68    1.76
   0   4 -22   68.62    2.15
  -1  -4 -21    0.10    0.31
   1  -4 -21   -0.07    0.20
  -2  -3 -21    0.89    0.29
   0  -3 -21    2.89    0.62
   2  -3 -21    1.27    0.41
  -3  -2 -21    1.73    0.27
  -1  -2 -21    0.11    0.13
   1  -2 -21    0.38    0.25
   3  -2 -21    1.25    0.42
  -4  -1 -21    0.07    0.14
  -2  -1 -21    0.25    0.12
   0  -1 -21    0.86    0.18
   2  -1 -21    0.26    0.19
   4  -1 -21    0.01    0.20
  -3   0 -21    2.30    0.32
  -1   0 -21    0.75    0.16
   1   0 -21    0.96    0.19
   3   0 -21    2.58    0.51
  -4   1 -21    0.08    0.12
  -2   1 -21    0.21    0.10
   0   1 -21    0.86    0.19
   2   1 -21    0.12    0.12
   4   1 -21   -0.12    0.18
  -3   2 -21    1.41    0.23
  -1   2 -21    0.12    0.14
   1   2 -21    0.04    0.21
   3   2 -21    2.32    0.60
  -2   3 -21    0.99    0.21
   0   3 -21    2.74    0.39
   2   3 -21    1.20    0.42
  -1   4 -21    0.17    0.16
   1   4 -21    0.23    0.17
   0  -4 -20   19.78    1.46
   2  -4 -20   12.99    1.14
  -3  -3 -20   37.00    1.90
  -1  -3 -20   74.58    2.18
   1  -3 -20   63.02    3.17
   3  -3 -20   35.99    2.08
  -4  -2 -20   15.02    0.77
  -2  -2 -20   38.86    1.24
   0  -2 -20   60.64    1.80
   2  -2 -20   37.34    1.95
   4  -2 -20   15.15    1.21
  -3  -1 -20   74.96    2.14
  -1  -1 -20  145.18    3.70
   1  -1 -20  144.62    3.80
   3  -1 -20   70.36    3.16
  -4   0 -20   19.37    0.91
  -2   0 -20   56.39    1.75
   0   0 -20   93.50    2.45
   2   0 -20   58.36    1.82
   4   0 -20   22.12    1.40
  -3   1 -20   70.68    1.79
  -1   1 -20  141.87    3.12
   1   1 -20  142.73    3.88
   3   1 -20   69.41    2.26
  -4   2 -20   14.78    0.85
  -2   2 -20   36.13    1.10
   0   2 -20   57.45    1.87
   2   2 -20   39.89    2.09
   4   2 -20   16.41    1.37
  -3   3 -20   35.10    1.46
  -1   3 -20   69.35    2.23
   1   3 -20   75.72    2.24
   3   3 -20   39.87    2.14
  -2   4 -20   13.33    1.17
   0   4 -20   23.01    0.97
   2   4 -20   13.61    1.10
  -3  -4 -19   11.08    0.90
  -1  -4 -19   16.03    1.39
   1  -4 -19   17.64    1.33
  -2  -3 -19   11.13    0.79
   0  -3 -19    9.44    0.91
   2  -3 -19    9.78    0.91
  -3  -2 -19   10.35    0.56
  -1  -2 -19   22.26    0.66
   1  -2 -19   20.59    1.31
   3  -2 -19   10.59    0.91
  -4  -1 -19   19.08    0.85
  -2  -1 -19   22.22    0.81
   0  -1 -19   21.84    0.82
   2  -1 -19   22.38    1.27
   4  -1 -19   20.00    1.30
  -5   0 -19    3.26    0.67
  -3   0 -19    9.17    0.53
  -1   0 -19   21.59    0.78
   1   0 -19   21.65    0.83
   3   0 -19   10.80    0.61
  -4   1 -19   17.60    0.71
  -2   1 -19   21.75    0.70
   0   1 -19   20.80    0.81
   2   1 -19   21.03    0.92
   4   1 -19   18.08    0.94
  -3   2 -19   10.17    0.51
  -1   2 -19   20.87    0.71
   1   2 -19   20.45    0.92
   3   2 -19   10.18    1.15
  -2   3 -19    9.28    0.50
   0   3 -19   10.65    0.63
   2   3 -19   11.17    0.93
  -3   4 -19   12.42    1.09
  -1   4 -19   17.73    0.85
   1   4 -19   19.67    0.89
   0   5 -19    3.70    0.58
  -1  -5 -18   94.78    4.39
  -2  -4 -18   58.83    1.92
   0  -4 -18   72.14    3.44
   2  -4 -18   53.61    2.78
  -3  -3 -18  123.58    4.85
  -1  -3 -18  166.79    4.29
   1  -3 -18  157.79    6.32
   3  -3 -18  121.21    5.20
  -4  -2 -18   58.39    1.87
  -2  -2 -18  121.79    3.13
   0  -2 -18  165.42    4.22
   2  -2 -18  111.09    4.68
   4  -2 -18   57.47    2.83
  -5  -1 -18   90.09    4.16
  -3  -1 -18  161.96    4.21
  -1  -1 -18  219.71    5.39
   1  -1 -18  216.36    5.48
   3  -1 -18  155.82    6.18
  -4   0 -18   70.99    2.23
  -2   0 -18  160.35    4.16
   0   0 -18  220.00    4.45
   2   0 -18  159.58    4.25
   4   0 -18   70.60    3.26
  -3   1 -18  158.04    3.51
  -1   1 -18  213.30    4.52
   1   1 -18  216.98    4.52
   3   1 -18  158.81    6.23
  -4   2 -18   56.13    1.99
  -2   2 -18  117.93    2.69
   0   2 -18  152.18    4.27
   2   2 -18  119.26    4.73
   4   2 -18   62.71    3.02
  -3   3 -18  117.90    3.67
  -1   3 -18  151.81    4.29
   1   3 -18  164.88    4.31
   3   3 -18  125.02    5.08
  -2   4 -18   58.48    2.00
   0   4 -18   77.17    2.26
   2   4 -18   56.29    1.89
   1   5 -18   96.11    2.79
   0  -5 -17    5.58    0.86
  -3  -4 -17   14.69    1.02
  -1  -4 -17   24.42    1.67
   1  -4 -17   23.06    1.51
   3  -4 -17   12.42    1.11
  -4  -3 -17   14.19    1.06
  -2  -3 -17   15.22    0.71
   0  -3 -17   13.32    1.07
   2  -3 -17   14.49    1.10
   4  -3 -17   13.10    1.14
  -3  -2 -17   13.83    0.65
  -1  -2 -17   27.60    0.76
   1  -2 -17   26.23    1.48
   3  -2 -17   12.97    1.00
  -4  -1 -17   24.04    0.96
  -2  -1 -17   26.90    0.92
   0  -1 -17   26.99    0.72
   2  -1 -17   27.49    0.93
   4  -1 -17   23.88    1.44
  -5   0 -17    5.73    0.55
  -3   0 -17   12.59    0.61
  -1   0 -17   27.59    0.91
   1   0 -17   30.80    0.98
   3   0 -17   12.57    0.65
   5   0 -17    5.04    0.74
  -4   1 -17   22.03    0.79
  -2   1 -17   26.85    0.80
   0   1 -17   27.35    0.75
   2   1 -17   25.32    1.52
   4   1 -17   23.22    1.07
  -3   2 -17   14.49    0.59
  -1   2 -17   27.07    0.83
   1   2 -17   27.06    1.06
   3   2 -17   14.24    1.14
  -4   3 -17   12.70    0.80
  -2   3 -17   13.73    0.60
   0   3 -17   12.44    0.67
   2   3 -17   14.49    1.01
   4   3 -17   13.61    1.20
  -3   4 -17   13.54    0.81
  -1   4 -17   23.62    0.98
   1   4 -17   23.80    0.98
   3   4 -17   13.78    1.13
   0   5 -17    5.26    0.75
  -1  -5 -16   20.69    1.54
   1  -5 -16   16.04    1.28
  -2  -4 -16   32.52    1.24
   0  -4 -16   45.03    2.41
   2  -4 -16   29.79    1.81
  -3  -3 -16   32.68    1.65
  -1  -3 -16   67.18    1.98
   1  -3 -16   64.55    2.97
   3  -3 -16   29.35    1.76
  -4  -2 -16   32.71    1.21
  -2  -2 -16   84.14    2.31
   0  -2 -16  127.01    3.31
   2  -2 -16   81.75    3.52
   4  -2 -16   33.57    1.86
  -5  -1 -16   19.82    0.92
  -3  -1 -16   67.44    1.94
  -1  -1 -16  149.09    3.06
   1  -1 -16  145.34    3.74
   3  -1 -16   66.96    2.87
   5  -1 -16   17.79    1.31
  -4   0 -16   43.21    1.52
  -2   0 -16  124.43    3.27
   0   0 -16  187.60    3.81
   2   0 -16  127.34    3.37
   4   0 -16   47.39    2.28
  -5   1 -16   18.99    0.93
  -3   1 -16   64.41    1.61
  -1   1 -16  143.94    3.10
   1   1 -16  146.86    3.81
   3   1 -16   64.24    2.99
   5   1 -16   18.39    1.31
  -4   2 -16   33.36    1.33
  -2   2 -16   83.81    2.01
   0   2 -16  124.60    3.42
   2   2 -16   88.91    2.50
   4   2 -16   35.84    2.06
  -3   3 -16   29.25    1.27
  -1   3 -16   65.32    1.68
   1   3 -16   65.19    2.01
   3   3 -16   31.21    1.79
  -2   4 -16   33.65    1.34
   0   4 -16   48.58    1.57
   2   4 -16   31.82    1.24
  -1   5 -16   19.41    1.32
   1   5 -16   19.60    0.90
  -2  -5 -15    0.57    0.34
   0  -5 -15    0.52    0.31
   2  -5 -15    0.40    0.28
  -3  -4 -15    0.12    0.18
  -1  -4 -15    2.13    0.56
   1  -4 -15    2.02    0.49
   3  -4 -15    0.18    0.26
  -4  -3 -15    0.20    0.22
  -2  -3 -15    0.06    0.10
   0  -3 -15   -0.01    0.15
   2  -3 -15    0.07    0.16
   4  -3 -15    0.71    0.35
  -5  -2 -15    0.90    0.35
  -3  -2 -15    0.01    0.09
  -1  -2 -15    2.24    0.19
   1  -2 -15    2.63    0.25
   3  -2 -15    0.52    0.25
   5  -2 -15    0.53    0.31
  -4  -1 -15    2.15    0.30
  -2  -1 -15    2.17    0.23
   0  -1 -15    1.45    0.13
   2  -1 -15    2.15    0.23
   4  -1 -15    2.05    0.43
  -5   0 -15    1.19    0.26
  -3   0 -15    0.22    0.09
  -1   0 -15    1.20    0.17
   1   0 -15    1.73    0.12
   3   0 -15    0.25    0.13
   5   0 -15    1.58    0.41
  -4   1 -15    1.97    0.24
  -2   1 -15    1.89    0.23
   0   1 -15    1.49    0.12
   2   1 -15    2.18    0.46
   4   1 -15    1.94    0.54
  -5   2 -15    0.79    0.26
  -3   2 -15    0.12    0.10
  -1   2 -15    2.22    0.23
   1   2 -15    1.93    0.28
   3   2 -15    0.13    0.21
   5   2 -15    0.74    0.42
  -4   3 -15   -0.02    0.15
  -2   3 -15    0.03    0.09
   0   3 -15   -0.11    0.09
   2   3 -15    0.06    0.11
   4   3 -15    0.27    0.26
  -3   4 -15    0.32    0.20
  -1   4 -15    2.27    0.26
   1   4 -15    1.88    0.30
   3   4 -15    0.20    0.25
  -2   5 -15    0.56    0.23
   0   5 -15    0.87    0.34
   2   5 -15    0.57    0.21
  -1  -5 -14   31.60    2.03
   1  -5 -14   35.40    1.93
  -2  -4 -14  100.69    3.00
   0  -4 -14  114.58    4.88
   2  -4 -14   98.22    4.37
  -3  -3 -14   47.49    2.09
  -1  -3 -14   85.23    2.40
   1  -3 -14   87.32    3.60
   3  -3 -14   43.53    2.25
  -4  -2 -14  104.26    2.94
  -2  -2 -14  155.16    3.35
   0  -2 -14  189.24    4.74
   2  -2 -14  153.37    6.06
   4  -2 -14  102.27    4.35
  -5  -1 -14   32.53    1.26
  -3  -1 -14   84.46    2.33
  -1  -1 -14  156.96    3.21
   1  -1 -14  151.73    3.91
   3  -1 -14   83.43    3.43
   5  -1 -14   32.12    1.83
  -4   0 -14  115.87    2.64
  -2   0 -14  184.88    3.86
   0   0 -14  227.96    4.58
   2   0 -14  185.31    4.77
   4   0 -14  115.46    4.66
  -5   1 -14   34.11    1.31
  -3   1 -14   81.54    1.94
  -1   1 -14  153.51    3.26
   1   1 -14  153.39    3.99
   3   1 -14   83.83    3.57
   5   1 -14   33.50    1.86
  -4   2 -14  104.28    3.10
  -2   2 -14  159.73    3.47
   0   2 -14  180.13    3.93
   2   2 -14  164.85    4.24
   4   2 -14  104.56    4.54
  -3   3 -14   43.71    1.63
  -1   3 -14   80.51    2.00
   1   3 -14   83.99    2.41
   3   3 -14   43.73    2.27
  -2   4 -14  109.71    3.15
   0   4 -14  120.22    3.24
   2   4 -14  104.12    3.00
  -1   5 -14   33.93    1.84
   1   5 -14   33.29    1.25
  -2  -5 -13   61.41    3.19
   0  -5 -13   79.94    3.64
   2  -5 -13   56.27    2.90
  -3  -4 -13   54.87    1.81
  -1  -4 -13   64.89    3.19
   1  -4 -13   62.92    3.01
   3  -4 -13   51.79    2.65
  -4  -3 -13   53.63    2.48
  -2  -3 -13  114.99    3.06
   0  -3 -13  152.37    5.87
   2  -3 -13  105.04    4.47
   4  -3 -13   55.62    2.66
  -5  -2 -13   60.47    2.87
  -3  -2 -13  104.31    2.93
  -1  -2 -13  145.28    3.07
   1  -2 -13  149.06    3.72
   3  -2 -13  108.14    4.39
   5  -2 -13   63.34    2.96
  -4  -1 -13   67.69    2.00
  -2  -1 -13  147.49    3.03
   0  -1 -13  212.60    4.25
   2  -1 -13  146.31    3.72
   4  -1 -13   66.31    2.92
  -5   0 -13   75.03    2.35
  -3   0 -13  145.18    3.15
  -1   0 -13  213.51    4.25
   1   0 -13  208.64    4.25
   3   0 -13  141.42    3.91
   5   0 -13   81.24    3.47
  -4   1 -13   65.02    1.65
  -2   1 -13  142.87    3.10
   0   1 -13  210.67    4.32
   2   1 -13  147.95    3.84
   4   1 -13   71.58    3.21
  -5   2 -13   63.01    2.14
  -3   2 -13  106.56    2.49
  -1   2 -13  143.08    3.16
   1   2 -13  149.96    3.87
   3   2 -13  107.71    4.48
   5   2 -13   60.12    3.20
  -4   3 -13   52.57    1.90
  -2   3 -13  104.92    2.52
   0   3 -13  150.54    3.23
   2   3 -13  110.10    3.08
   4   3 -13   52.61    2.77
  -3   4 -13   53.21    1.89
  -1   4 -13   66.71    1.66
   1   4 -13   65.60    2.02
   3   4 -13   53.63    1.85
  -2   5 -13   65.12    2.09
   0   5 -13   77.52    3.39
   2   5 -13   63.89    2.05
  -3  -5 -12   18.84    0.95
  -1  -5 -12   30.95    1.96
   1  -5 -12   29.54    1.76
  -4  -4 -12   10.93    0.93
  -2  -4 -12   34.54    1.24
   0  -4 -12   46.88    2.43
   2  -4 -12   31.81    1.77
   4  -4 -12   10.55    1.01
  -3  -3 -12   45.89    1.49
  -1  -3 -12   93.38    2.57
   1  -3 -12   88.54    3.78
   3  -3 -12   44.29    2.24
  -4  -2 -12   32.27    1.16
  -2  -2 -12  104.89    2.30
   0  -2 -12  166.91    4.21
   2  -2 -12  106.28    4.18
   4  -2 -12   33.92    1.75
  -5  -1 -12   32.45    1.21
  -3  -1 -12   89.89    2.48
  -1  -1 -12  195.11    3.91
   1  -1 -12  186.69    4.76
   3  -1 -12   92.21    3.66
   5  -1 -12   30.88    1.73
  -4   0 -12   50.61    1.30
  -2   0 -12  164.09    3.44
   0   0 -12  251.44    5.03
   2   0 -12  160.54    4.24
   4   0 -12   48.53    2.28
  -5   1 -12   31.81    1.23
  -3   1 -12   88.85    2.07
  -1   1 -12  188.82    3.96
   1   1 -12  185.58    4.86
   3   1 -12   91.47    3.82
  -4   2 -12   32.91    1.26
  -2   2 -12  107.27    2.39
   0   2 -12  163.02    3.52
   2   2 -12  106.94    2.94
   4   2 -12   32.53    2.03
  -5   3 -12   18.06    1.33
  -3   3 -12   44.75    1.63
  -1   3 -12   89.62    2.13
   1   3 -12   93.53    2.59
   3   3 -12   45.37    1.61
  -4   4 -12    9.98    0.73
  -2   4 -12   30.88    1.26
   0   4 -12   51.26    1.60
   2   4 -12   31.74    1.23
   4   4 -12    8.73    1.11
  -1   5 -12   31.16    1.21
   1   5 -12   31.85    1.65
   3   5 -12   17.52    1.36
  -2  -5 -11    2.28    0.60
   0  -5 -11    4.71    0.75
   2  -5 -11    2.84    0.55
  -3  -4 -11    0.64    0.20
  -1  -4 -11    0.03    0.19
   1  -4 -11    0.31    0.21
   3  -4 -11    0.12    0.21
  -4  -3 -11    0.46    0.22
  -2  -3 -11    4.27    0.39
   0  -3 -11    8.99    0.43
   2  -3 -11    3.75    0.56
   4  -3 -11    0.46    0.28
  -5  -2 -11    2.73    0.54
  -3  -2 -11    4.45    0.28
  -1  -2 -11    2.68    0.26
   1  -2 -11    2.78    0.19
   3  -2 -11    4.16    0.55
   5  -2 -11    2.60    0.53
  -4  -1 -11   -0.05    0.08
  -2  -1 -11    2.57    0.17
   0  -1 -11    7.47    0.25
   2  -1 -11    2.75    0.23
   4  -1 -11    0.53    0.23
  -5   0 -11    4.69    0.38
  -3   0 -11    8.85    0.36
  -1   0 -11    7.61    0.22
   1   0 -11    7.90    0.25
   3   0 -11    8.86    0.48
   5   0 -11    5.17    0.68
  -4   1 -11    0.18    0.10
  -2   1 -11    2.35    0.20
   0   1 -11    7.52    0.28
   2   1 -11    3.21    0.32
   4   1 -11    0.34    0.26
  -5   2 -11    2.79    0.40
  -3   2 -11    4.34    0.32
  -1   2 -11    2.51    0.23
   1   2 -11    2.43    0.29
   3   2 -11    4.39    0.43
   5   2 -11    3.21    0.75
  -4   3 -11    0.39    0.20
  -2   3 -11    3.86    0.32
   0   3 -11    8.72    0.39
   2   3 -11    3.76    0.41
   4   3 -11    0.39    0.31
  -3   4 -11    0.19    0.17
  -1   4 -11    0.38    0.12
   1   4 -11   -0.11    0.09
   3   4 -11    0.21    0.18
  -2   5 -11    2.39    0.36
   0   5 -11    5.40    0.72
   2   5 -11    2.73    0.40
  -3  -5 -10   27.85    1.20
  -1  -5 -10   28.93    1.86
   1  -5 -10   28.35    1.68
   3  -5 -10   27.46    1.70
  -4  -4 -10    1.14    0.26
  -2  -4 -10    2.71    0.34
   0  -4 -10    6.34    0.79
   2  -4 -10    3.29    0.56
   4  -4 -10    0.69    0.33
  -5  -3 -10   25.40    1.61
  -3  -3 -10   39.79    1.32
  -1  -3 -10   47.31    1.45
   1  -3 -10   42.70    2.11
   3  -3 -10   39.57    1.98
   5  -3 -10   29.20    1.71
  -4  -2 -10    2.56    0.47
  -2  -2 -10   10.74    0.39
   0  -2 -10   19.74    0.67
   2  -2 -10   10.81    0.75
   4  -2 -10    3.18    0.52
  -5  -1 -10   29.56    1.13
  -3  -1 -10   46.69    1.10
  -1  -1 -10   60.61    1.33
   1  -1 -10   61.80    1.62
   3  -1 -10   45.92    2.04
   5  -1 -10   29.33    1.64
  -6   0 -10    1.51    0.43
  -4   0 -10    6.14    0.34
  -2   0 -10   19.43    0.43
   0   0 -10   33.35    0.76
   2   0 -10   16.69    0.99
   4   0 -10    5.42    0.54
  -5   1 -10   30.14    1.16
  -3   1 -10   46.93    1.16
  -1   1 -10   62.10    1.69
   1   1 -10   57.61    2.40
   3   1 -10   45.58    2.27
  -4   2 -10    3.55    0.41
  -2   2 -10   10.78    0.43
   0   2 -10   18.12    0.59
   2   2 -10   11.15    0.57
   4   2 -10    2.39    0.60
  -5   3 -10   27.19    1.25
  -3   3 -10   39.67    1.44
  -1   3 -10   44.89    1.20
   1   3 -10   44.77    1.46
   3   3 -10   37.84    1.42
   5   3 -10   25.93    1.92
  -4   4 -10    1.06    0.28
  -2   4 -10    3.29    0.40
   0   4 -10    6.76    0.36
   2   4 -10    2.87    0.38
   4   4 -10    1.12    0.32
  -3   5 -10   28.33    1.19
  -1   5 -10   31.36    1.19
   1   5 -10   29.00    1.14
   3   5 -10   26.16    1.21
  -2  -5  -9   71.50    3.62
   0  -5  -9   87.89    3.86
   2  -5  -9   76.43    3.41
  -3  -4  -9  112.52    3.25
  -1  -4  -9  188.59    4.95
   1  -4  -9  174.32    7.18
   3  -4  -9  107.15    4.68
  -4  -3  -9  116.28    3.20
  -2  -3  -9  182.34    4.76
   0  -3  -9  222.81    5.47
   2  -3  -9  173.03    6.93
   4  -3  -9  118.93    4.71
  -5  -2  -9   76.37    3.33
  -3  -2  -9  184.20    3.83
  -1  -2  -9  314.79    7.88
   1  -2  -9  322.68    7.78
   3  -2  -9  185.82    6.86
   5  -2  -9   76.21    3.38
  -6  -1  -9   77.03    3.63
  -4  -1  -9  187.56    4.86
  -2  -1  -9  309.96    6.37
   0  -1  -9  387.44    7.79
   2  -1  -9  320.27    7.78
   4  -1  -9  189.24    7.09
   6  -1  -9   86.71    3.84
  -5   0  -9   84.58    2.04
  -3   0  -9  216.20    4.48
  -1   0  -9  390.99    6.79
   1   0  -9  387.51    7.78
   3   0  -9  213.02    7.83
   5   0  -9   84.81    3.60
  -4   1  -9  184.05    4.01
  -2   1  -9  309.26    6.44
   0   1  -9  395.52    7.88
   2   1  -9  322.80    7.88
   4   1  -9  197.12    7.30
  -5   2  -9   79.76    2.46
  -3   2  -9  182.57    4.66
  -1   2  -9  299.22    6.50
   1   2  -9  324.47    6.49
   3   2  -9  181.46    4.79
   5   2  -9   80.87    3.82
  -4   3  -9  111.89    3.38
  -2   3  -9  178.43    3.93
   0   3  -9  224.48    4.54
   2   3  -9  176.24    4.81
   4   3  -9  113.15    4.87
  -3   4  -9  116.99    3.38
  -1   4  -9  192.13    5.08
   1   4  -9  186.80    4.91
   3   4  -9  113.31    3.36
  -2   5  -9   83.23    2.45
   0   5  -9   84.66    3.61
   2   5  -9   72.45    2.38
  -3  -5  -8    0.20    0.28
  -1  -5  -8    2.94    0.62
   1  -5  -8    2.92    0.54
   3  -5  -8    0.32    0.18
  -4  -4  -8   56.51    1.87
  -2  -4  -8  112.77    3.18
   0  -4  -8  150.81    6.03
   2  -4  -8  101.96    4.50
   4  -4  -8   52.59    2.66
  -5  -3  -8    0.34    0.26
  -3  -3  -8    7.42    0.46
  -1  -3  -8   30.53    1.05
   1  -3  -8   29.64    1.56
   3  -3  -8    7.42    0.70
   5  -3  -8    0.61    0.30
  -4  -2  -8  112.97    3.07
  -2  -2  -8  255.19    6.51
   0  -2  -8  380.78    9.10
   2  -2  -8  255.21    9.46
   4  -2  -8  117.27    4.51
  -5  -1  -8    2.92    0.34
  -3  -1  -8   30.92    0.79
  -1  -1  -8  100.32    2.14
   1  -1  -8  103.96    2.59
   3  -1  -8   30.99    1.46
   5  -1  -8    5.34    0.63
  -6   0  -8   56.46    2.57
  -4   0  -8  151.96    3.30
  -2   0  -8  362.57    6.44
   0   0  -8  481.17    9.72
   2   0  -8  367.57    8.99
   4   0  -8  152.09    4.14
   6   0  -8   54.67    2.63
  -5   1  -8    2.90    0.36
  -3   1  -8   31.38    0.83
  -1   1  -8  104.83    2.19
   1   1  -8  102.95    2.72
   3   1  -8   30.57    1.03
   5   1  -8    3.63    0.76
  -4   2  -8  114.69    3.23
  -2   2  -8  254.21    5.38
   0   2  -8  377.18    7.54
   2   2  -8  263.16    6.56
   4   2  -8  113.84    4.73
  -5   3  -8    0.22    0.29
  -3   3  -8    8.36    0.54
  -1   3  -8   29.66    0.87
   1   3  -8   30.18    0.86
   3   3  -8    8.26    0.56
   5   3  -8    0.61    0.40
  -4   4  -8   57.08    1.96
  -2   4  -8  108.71    3.24
   0   4  -8  154.93    3.33
   2   4  -8  113.46    3.23
   4   4  -8   54.69    1.97
  -3   5  -8    0.75    0.24
  -1   5  -8    3.37    0.40
   1   5  -8    2.85    0.36
   3   5  -8    0.27    0.21
  -2  -5  -7    0.83    0.39
   0  -5  -7    2.25    0.49
   2  -5  -7    0.75    0.29
  -3  -4  -7    0.16    0.13
  -1  -4  -7    0.63    0.16
   1  -4  -7    0.83    0.19
   3  -4  -7   -0.03    0.17
  -4  -3  -7    0.10    0.13
  -2  -3  -7    0.85    0.18
   0  -3  -7    4.11    0.27
   2  -3  -7    1.40    0.33
   4  -3  -7    0.20    0.19
  -5  -2  -7    1.41    0.40
  -3  -2  -7    1.44    0.20
  -1  -2  -7   -0.07    0.07
   1  -2  -7    0.00    0.05
   3  -2  -7    1.50    0.31
   5  -2  -7    1.87    0.42
  -6  -1  -7    0.78    0.37
  -4  -1  -7    1.41    0.15
  -2  -1  -7   -0.03    0.05
   0  -1  -7    2.02    0.11
   2  -1  -7    0.49    0.09
   4  -1  -7    0.84    0.25
   6  -1  -7    0.70    0.30
  -5   0  -7    2.51    0.25
  -3   0  -7    4.11    0.18
  -1   0  -7    2.07    0.09
   1   0  -7    2.12    0.14
   3   0  -7    4.35    0.57
   5   0  -7    2.11    0.42
  -6   1  -7    0.83    0.35
  -4   1  -7    0.98    0.15
  -2   1  -7   -0.03    0.05
   0   1  -7    1.61    0.13
   2   1  -7   -0.08    0.07
   4   1  -7    0.85    0.35
   6   1  -7    0.99    0.34
  -5   2  -7    1.24    0.27
  -3   2  -7    1.11    0.15
  -1   2  -7    0.26    0.10
   1   2  -7    0.01    0.07
   3   2  -7    1.36    0.22
   5   2  -7    1.08    0.46
  -4   3  -7    0.09    0.14
  -2   3  -7    1.82    0.27
   0   3  -7    3.95    0.28
   2   3  -7    0.81    0.19
   4   3  -7    0.02    0.14
  -3   4  -7    0.17    0.16
  -1   4  -7    1.35    0.23
   1   4  -7    0.81    0.15
   3   4  -7   -0.01    0.14
  -2   5  -7    1.37    0.27
   0   5  -7    2.60    0.35
   2   5  -7    1.14    0.28
  -1   6  -7    1.16    0.30
   0  -6  -6    3.08    0.60
  -3  -5  -6    5.18    0.87
  -1  -5  -6    5.13    0.81
   1  -5  -6    4.64    0.66
   3  -5  -6    4.26    0.46
  -4  -4  -6    6.14    0.58
  -2  -4  -6    4.08    0.41
   0  -4  -6    3.59    0.55
   2  -4  -6    3.72    0.38
   4  -4  -6    6.18    0.58
  -5  -3  -6    4.90    0.71
  -3  -3  -6    8.68    0.50
  -1  -3  -6   10.02    0.49
   1  -3  -6    8.70    0.70
   3  -3  -6    9.10    0.73
   5  -3  -6    4.89    0.72
  -4  -2  -6    4.62    0.40
  -2  -2  -6    1.38    0.18
   0  -2  -6    0.79    0.12
   2  -2  -6    2.16    0.34
   4  -2  -6    4.40    0.56
  -5  -1  -6    5.29    0.42
  -3  -1  -6   10.27    0.35
  -1  -1  -6   12.16    0.35
   1  -1  -6   12.75    0.40
   3  -1  -6    9.77    0.64
   5  -1  -6    5.74    0.68
  -4   0  -6    2.81    0.23
  -2   0  -6    0.85    0.07
   0   0  -6    0.33    0.06
   2   0  -6    0.98    0.11
   4   0  -6    4.46    0.64
   6   0  -6    3.20    0.56
  -5   1  -6    5.48    0.47
  -3   1  -6    9.22    0.36
  -1   1  -6   13.13    0.46
   1   1  -6   11.53    0.65
   3   1  -6    9.29    0.45
   5   1  -6    6.12    0.88
  -4   2  -6    4.32    0.42
  -2   2  -6    1.62    0.17
   0   2  -6    0.91    0.13
   2   2  -6    1.77    0.15
   4   2  -6    4.15    0.41
  -5   3  -6    5.20    0.86
  -3   3  -6    8.67    0.55
  -1   3  -6   10.09    0.40
   1   3  -6    9.46    0.41
   3   3  -6    9.25    0.55
   5   3  -6    4.62    0.85
  -4   4  -6    5.67    0.87
  -2   4  -6    3.85    0.41
   0   4  -6    2.68    0.25
   2   4  -6    4.21    0.45
   4   4  -6    5.38    0.57
  -3   5  -6    4.63    0.49
  -1   5  -6    4.65    0.46
   1   5  -6    5.53    0.50
   3   5  -6    4.32    0.53
   0   6  -6    3.28    0.59
  -1  -6  -5   37.20    2.18
   1  -6  -5   33.88    1.93
  -2  -5  -5   76.48    3.73
   0  -5  -5  107.47    4.46
   2  -5  -5   75.86    3.44
  -3  -4  -5   69.59    2.23
  -1  -4  -5   85.46    3.93
   1  -4  -5   91.07    2.52
   3  -4  -5   70.06    2.16
  -4  -3  -5   72.00    2.18
  -2  -3  -5  153.78    4.06
   0  -3  -5  216.74    4.32
   2  -3  -5  154.36    5.88
   4  -3  -5   74.24    3.14
  -5  -2  -5   74.27    3.39
  -3  -2  -5  158.14    4.02
  -1  -2  -5  220.92    5.54
   1  -2  -5  217.66    8.05
   3  -2  -5  159.26    5.80
   5  -2  -5   82.41    3.44
  -6  -1  -5   32.95    1.89
  -4  -1  -5   93.03    2.06
  -2  -1  -5  213.22    4.46
   0  -1  -5  333.09    7.92
   2  -1  -5  226.03    5.45
   4  -1  -5   94.04    3.66
  -5   0  -5  104.31    2.37
  -3   0  -5  214.53    3.81
  -1   0  -5  313.24    5.61
   1   0  -5  338.06    7.80
   3   0  -5  209.49    5.31
   5   0  -5  105.67    4.19
  -6   1  -5   38.58    1.98
  -4   1  -5   90.95    2.07
  -2   1  -5  226.00    5.41
   0   1  -5  306.78    8.09
   2   1  -5  222.82    4.48
   4   1  -5   92.98    2.57
  -5   2  -5   83.91    3.71
  -3   2  -5  155.96    4.16
  -1   2  -5  206.90    4.56
   1   2  -5  217.98    4.54
   3   2  -5  156.23    4.04
   5   2  -5   85.80    3.81
  -4   3  -5   72.27    2.28
  -2   3  -5  150.00    4.22
   0   3  -5  216.76    5.47
   2   3  -5  156.19    3.32
   4   3  -5   75.62    2.26
  -3   4  -5   68.44    2.26
  -1   4  -5   91.64    2.67
   1   4  -5   88.78    2.16
   3   4  -5   72.75    2.26
  -2   5  -5   84.91    2.52
   0   5  -5  103.23    3.03
   2   5  -5   82.02    2.55
  -1   6  -5   37.52    1.39
   1   6  -5   35.24    2.13
   0  -6  -4    7.53    0.94
  -3  -5  -4  129.40    5.55
  -1  -5  -4  198.06    7.86
   1  -5  -4  185.31    7.54
   3  -5  -4  124.72    3.53
  -4  -4  -4   13.43    1.10
  -2  -4  -4   10.23    0.91
   0  -4  -4    8.87    0.78
   2  -4  -4   10.59    0.55
   4  -4  -4   12.21    0.69
  -5  -3  -4  132.32    3.63
  -3  -3  -4  294.93    7.43
  -1  -3  -4  498.87   12.16
   1  -3  -4  500.59   17.64
   3  -3  -4  295.74   10.71
   5  -3  -4  134.15    5.14
  -4  -2  -4   10.27    0.54
  -2  -2  -4    3.79    0.28
   0  -2  -4    0.73    0.12
   2  -2  -4    3.09    0.39
   4  -2  -4   11.90    0.78
  -5  -1  -4  202.65    5.17
  -3  -1  -4  483.85    9.85
  -1  -1  -4  763.54   15.82
   1  -1  -4  752.67   19.36
   3  -1  -4  506.44   12.05
   5  -1  -4  204.36    7.49
  -4   0  -4    8.13    0.26
  -2   0  -4    0.92    0.08
   0   0  -4    1.21    0.07
   2   0  -4    0.67    0.10
   4   0  -4    7.42    0.67
   6   0  -4    9.61    0.85
  -5   1  -4  203.59    5.27
  -3   1  -4  489.51    8.50
  -1   1  -4  776.93   19.33
   1   1  -4  824.04   16.05
   3   1  -4  495.77    9.90
   5   1  -4  197.69    7.53
  -4   2  -4   11.79    0.60
  -2   2  -4    3.98    0.22
   0   2  -4    0.50    0.13
   2   2  -4    3.52    0.19
   4   2  -4   10.52    0.57
  -5   3  -4  130.16    5.61
  -3   3  -4  285.71    7.64
  -1   3  -4  475.95    9.96
   1   3  -4  499.05    9.98
   3   3  -4  302.92    7.41
   5   3  -4  123.71    5.36
  -4   4  -4   14.22    1.21
  -2   4  -4    9.96    0.59
   0   4  -4    8.50    0.39
   2   4  -4    9.57    0.58
   4   4  -4   12.76    0.76
  -3   5  -4  130.54    5.37
  -1   5  -4  199.70    5.37
   1   5  -4  195.88    4.33
   3   5  -4  128.06    3.73
   0   6  -4    9.70    0.62
  -1  -6  -3    0.72    0.36
   1  -6  -3    0.32    0.24
  -2  -5  -3    0.52    0.32
   0  -5  -3    2.57    0.50
   2  -5  -3    0.91    0.28
  -3  -4  -3   -0.02    0.19
  -1  -4  -3    2.46    0.49
   1  -4  -3    2.63    0.29
   3  -4  -3    0.03    0.11
  -4  -3  -3    0.25    0.14
  -2  -3  -3    0.18    0.10
   0  -3  -3    0.55    0.12
   2  -3  -3    0.13    0.13
   4  -3  -3    0.15    0.16
  -5  -2  -3    1.51    0.26
  -3  -2  -3    0.17    0.09
  -1  -2  -3    1.90    0.19
   1  -2  -3    1.83    0.30
   3  -2  -3    0.20    0.13
  -6  -1  -3    0.69    0.37
  -4  -1  -3    2.64    0.22
  -2  -1  -3    2.24    0.13
   0  -1  -3    1.45    0.10
   2  -1  -3    2.36    0.20
   4  -1  -3    3.14    0.42
  -5   0  -3    2.58    0.24
  -3   0  -3    0.76    0.08
  -1   0  -3    1.38    0.06
   1   0  -3    1.38    0.08
   3   0  -3    0.65    0.20
   5   0  -3    2.46    0.42
  -4   1  -3    2.59    0.23
  -2   1  -3    1.92    0.15
   0   1  -3    1.74    0.14
   2   1  -3    2.11    0.12
   4   1  -3    2.45    0.27
  -5   2  -3    1.54    0.46
  -3   2  -3    0.14    0.09
  -1   2  -3    1.56    0.22
   1   2  -3    2.79    0.16
   3   2  -3    0.03    0.05
   5   2  -3    1.53    0.47
  -4   3  -3    0.07    0.23
  -2   3  -3    0.20    0.11
   0   3  -3    0.64    0.12
   2   3  -3    0.45    0.08
   4   3  -3    0.13    0.13
  -3   4  -3    0.60    0.15
  -1   4  -3    2.56    0.32
   1   4  -3    2.27    0.24
   3   4  -3    0.68    0.21
  -2   5  -3    1.21    0.26
   0   5  -3    2.22    0.33
   2   5  -3    1.76    0.32
  -1   6  -3    0.48    0.19
   1   6  -3    1.13    0.40
   0  -6  -2    5.23    0.76
   2  -6  -2    6.18    0.80
  -3  -5  -2    4.68    0.82
  -1  -5  -2    1.36    0.43
   1  -5  -2    1.76    0.41
   3  -5  -2    2.98    0.53
  -4  -4  -2    9.16    1.07
  -2  -4  -2   10.66    0.93
   0  -4  -2   10.85    0.89
   2  -4  -2   11.30    0.56
   4  -4  -2    8.63    0.96
  -5  -3  -2    4.24    0.65
  -3  -3  -2    3.28    0.36
  -1  -3  -2    0.77    0.16
   1  -3  -2    0.64    0.14
   3  -3  -2    3.76    0.52
   5  -3  -2    4.12    0.71
  -4  -2  -2   11.27    0.57
  -2  -2  -2   14.80    0.82
   0  -2  -2   17.28    0.46
   2  -2  -2   14.76    0.82
   4  -2  -2   10.65    0.74
  -5  -1  -2    2.23    0.27
  -3  -1  -2    1.13    0.11
  -1  -1  -2    0.28    0.07
   1  -1  -2    0.53    0.12
   3  -1  -2    1.15    0.15
   5  -1  -2    2.23    0.38
  -4   0  -2   11.01    0.31
  -2   0  -2   17.49    0.35
   0   0  -2   23.00    0.47
   4   0  -2   10.56    0.77
  -5   1  -2    2.38    0.32
  -3   1  -2    1.05    0.11
  -1   1  -2    0.51    0.06
   1   1  -2    0.37    0.05
   3   1  -2    1.09    0.12
   5   1  -2    1.65    0.44
  -6   2  -2    6.96    0.96
  -4   2  -2   11.65    0.49
  -2   2  -2   15.36    0.40
   0   2  -2   17.72    0.51
   2   2  -2   15.82    0.46
   4   2  -2   10.68    0.57
   6   2  -2    5.63    0.98
  -5   3  -2    4.17    0.79
  -3   3  -2    2.61    0.34
  -1   3  -2    1.40    0.15
   1   3  -2    1.09    0.14
   3   3  -2    3.02    0.34
   5   3  -2    3.19    0.42
  -4   4  -2    8.68    1.07
  -2   4  -2   10.73    0.60
   0   4  -2   10.75    0.45
   2   4  -2   10.90    0.48
   4   4  -2    9.93    0.68
  -3   5  -2    3.15    0.60
  -1   5  -2    2.31    0.32
   1   5  -2    1.71    0.31
   3   5  -2    3.25    0.45
   0   6  -2    5.49    0.55
  -1  -6  -1   19.89    1.40
   1  -6  -1   18.30    1.23
  -2  -5  -1    7.74    0.98
   0  -5  -1    7.42    0.90
   2  -5  -1    7.25    0.46
  -3  -4  -1   16.72    1.27
  -1  -4  -1   34.19    1.91
   1  -4  -1   33.91    1.15
   3  -4  -1   18.61    0.81
  -4  -3  -1   19.53    1.22
  -2  -3  -1   23.34    0.86
   0  -3  -1   20.41    0.73
   2  -3  -1   19.63    0.77
   4  -3  -1   19.59    0.87
  -5  -2  -1    8.86    0.71
  -3  -2  -1   20.93    0.80
  -1  -2  -1   53.88    1.13
   1  -2  -1   54.56    2.17
   3  -2  -1   21.15    1.07
   5  -2  -1    7.05    0.87
  -4  -1  -1   36.39    0.95
  -2  -1  -1   52.46    0.99
   0  -1  -1   68.85    1.70
   2  -1  -1   53.11    2.03
   4  -1  -1   34.54    1.61
   6  -1  -1   16.38    1.24
  -5   0  -1    7.69    0.31
  -3   0  -1   20.23    0.43
  -1   0  -1   67.36    1.17
   5   0  -1    7.41    0.61
  -4   1  -1   38.97    0.97
  -2   1  -1   55.13    1.16
   0   1  -1   65.99    1.40
   2   1  -1   50.94    1.39
   4   1  -1   36.46    0.95
  -5   2  -1    8.08    0.61
  -3   2  -1   20.98    0.66
  -1   2  -1   49.86    1.19
   1   2  -1   51.58    1.44
   3   2  -1   21.50    0.61
   5   2  -1    8.56    0.56
  -4   3  -1   15.88    1.30
  -2   3  -1   20.46    0.85
   0   3  -1   19.58    0.61
   2   3  -1   22.66    0.64
   4   3  -1   19.42    0.84
  -3   4  -1   18.84    0.87
  -1   4  -1   36.18    1.27
   1   4  -1   35.77    1.01
   3   4  -1   18.98    0.85
  -2   5  -1    8.69    0.58
   0   5  -1    6.34    0.56
   2   5  -1    8.13    0.66
  -1   6  -1   18.50    0.90
   1   6  -1   19.15    0.99
   0  -6   0  173.19    6.74
  -3  -5   0   30.81    1.96
  -1  -5   0   30.22    1.78
   1  -5   0   29.99    1.61
   3  -5   0   26.94    1.52
  -4  -4   0  188.99    7.56
  -2  -4   0  348.83   13.19
   0  -4   0  485.66   17.16
   2  -4   0  344.02    8.82
   4  -4   0  198.11    7.07
  -5  -3   0   28.44    1.66
  -3  -3   0   39.66    2.00
  -1  -3   0   38.34    1.89
   1  -3   0   38.69    1.20
   3  -3   0   41.53    1.34
   5  -3   0   32.59    1.81
  -4  -2   0  371.12    8.99
  -2  -2   0  703.67   13.45
   0  -2   0  969.22   21.45
   2  -2   0  697.62   24.23
   4  -2   0  369.04   12.84
  -5  -1   0   30.48    1.11
  -3  -1   0   38.97    0.95
  -1  -1   0   36.70    0.80
   1  -1   0   37.74    1.47
   3  -1   0   40.46    1.64
  -4   0   0  481.79    7.36
  -2   0   0  887.62   13.75
  -5   1   0   30.46    1.11
  -3   1   0   39.74    0.82
  -1   1   0   36.82    0.83
   1   1   0   36.87    1.01
   3   1   0   38.54    1.12
   5   1   0   30.08    1.11
  -4   2   0  364.68    9.04
  -2   2   0  678.31   13.72
   0   2   0  881.48   17.83
   2   2   0  704.18   17.05
   4   2   0  357.69    8.90
   6   2   0  131.32    5.55
  -5   3   0   28.93    1.89
  -3   3   0   39.67    1.12
  -1   3   0   38.03    1.13
   1   3   0   38.58    0.98
   3   3   0   41.02    1.06
   5   3   0   29.95    1.21
  -4   4   0  194.34    7.74
  -2   4   0  344.19    9.19
   0   4   0  467.57    9.65
   2   4   0  367.59    7.38
   4   4   0  185.27    5.08
  -3   5   0   31.87    1.85
  -1   5   0   28.21    1.13
   1   5   0   30.79    1.24
   3   5   0   28.67    1.23
   0   6   0  169.47    4.78
  -1  -6   1   19.53    1.39
   1  -6   1   17.64    1.18
  -2  -5   1    6.28    0.87
   0  -5   1    6.41    0.80
   2  -5   1    6.95    0.44
  -3  -4   1   17.51    1.30
  -1  -4   1   34.96    1.90
   1  -4   1   34.62    1.16
   3  -4   1   18.25    1.14
  -4  -3   1   18.53    1.22
  -2  -3   1   20.14    1.22
   0  -3   1   19.78    0.73
   2  -3   1   19.42    0.76
   4  -3   1   16.87    1.19
  -5  -2   1    7.61    0.68
  -3  -2   1   20.85    0.81
  -1  -2   1   52.74    1.38
   1  -2   1   53.85    1.48
   3  -2   1   22.43    1.07
   5  -2   1    8.18    0.95
  -4  -1   1   36.03    0.95
  -2  -1   1   51.03    1.14
   0  -1   1   63.86    1.68
   2  -1   1   54.53    2.00
   4  -1   1   35.48    1.59
   6  -1   1   17.16    1.28
  -5   0   1    6.45    0.44
  -3   0   1   20.51    0.42
  -1   0   1   65.64    1.04
  -6   1   1   17.71    1.26
  -4   1   1   37.86    0.95
  -2   1   1   53.78    0.99
   0   1   1   68.86    1.36
   2   1   1   50.24    1.40
   4   1   1   37.61    1.13
  -5   2   1    8.60    0.57
  -3   2   1   21.12    0.64
  -1   2   1   50.86    1.01
   1   2   1   51.48    1.43
   3   2   1   19.94    0.71
   5   2   1    7.22    0.54
  -4   3   1   18.21    0.90
  -2   3   1   20.00    0.66
   0   3   1   19.52    0.59
   2   3   1   21.78    0.77
   4   3   1   18.70    0.82
  -3   4   1   20.77    1.40
  -1   4   1   36.59    1.28
   1   4   1   34.97    0.99
   3   4   1   17.48    0.81
  -2   5   1    8.97    0.61
   0   5   1    6.44    0.57
   2   5   1    7.28    0.50
  -1   6   1   18.51    0.90
   1   6   1   19.32    0.99
   0  -6   2    5.51    0.77
  -3  -5   2    2.76    0.64
  -1  -5   2    2.83    0.55
   1  -5   2    2.19    0.41
   3  -5   2    3.57    0.56
  -4  -4   2    7.75    1.01
  -2  -4   2   10.02    0.89
   0  -4   2   11.43    0.54
   2  -4   2   10.81    0.53
   4  -4   2    9.74    0.86
  -5  -3   2    3.37    0.57
  -3  -3   2    2.48    0.47
  -1  -3   2    0.83    0.13
   1  -3   2    1.06    0.17
   3  -3   2    3.00    0.32
   5  -3   2    3.58    0.67
  -6  -2   2    5.27    0.73
  -4  -2   2   10.80    0.78
  -2  -2   2   14.79    0.50
   0  -2   2   16.74    0.60
   2  -2   2   15.28    0.59
   4  -2   2   10.26    0.84
  -5  -1   2    3.38    0.47
  -3  -1   2    1.14    0.12
  -1  -1   2    0.33    0.06
   1  -1   2    0.32    0.07
   3  -1   2    1.11    0.19
   5  -1   2    2.02    0.45
  -4   0   2   11.06    0.31
  -2   0   2   16.90    0.34
  -5   1   2    1.99    0.42
  -3   1   2    1.08    0.10
  -1   1   2    0.31    0.08
   1   1   2    0.33    0.05
   3   1   2    1.33    0.22
   5   1   2    3.11    0.45
  -4   2   2   12.18    0.63
  -2   2   2   15.89    0.50
   0   2   2   16.59    0.45
   2   2   2   14.28    0.53
   4   2   2   11.60    0.51
   6   2   2    5.19    0.97
  -5   3   2    3.88    0.49
  -3   3   2    2.70    0.35
  -1   3   2    1.11    0.15
   1   3   2    1.07    0.12
   3   3   2    2.76    0.24
   5   3   2    3.67    0.43
  -4   4   2    8.31    1.05
  -2   4   2   10.51    0.58
   0   4   2   11.10    0.60
   2   4   2   10.96    0.46
   4   4   2    8.19    0.60
  -3   5   2    5.04    0.82
  -1   5   2    2.11    0.32
   1   5   2    2.01    0.32
   3   5   2    3.64    0.43
   0   6   2    4.66    0.53
  -1  -6   3    0.79    0.34
  -2  -5   3    1.22    0.45
   0  -5   3    2.37    0.49
   2  -5   3    1.62    0.35
  -3  -4   3    0.09    0.17
  -1  -4   3    2.29    0.45
   1  -4   3    2.72    0.29
   3  -4   3   -0.02    0.12
  -4  -3   3    0.32    0.22
  -2  -3   3    0.20    0.16
   0  -3   3    0.53    0.13
   2  -3   3    0.13    0.08
   4  -3   3    0.80    0.33
  -5  -2   3    1.11    0.32
  -3  -2   3    0.24    0.08
  -1  -2   3    2.13    0.15
   1  -2   3    2.42    0.24
   3  -2   3    0.10    0.08
   5  -2   3    1.06    0.36
  -6  -1   3    0.77    0.30
  -4  -1   3    2.58    0.25
  -2  -1   3    2.14    0.15
   0  -1   3    1.39    0.12
   2  -1   3    2.14    0.17
   4  -1   3    2.54    0.45
   6  -1   3    0.81    0.37
  -5   0   3    2.53    0.30
  -3   0   3    0.60    0.07
  -1   0   3    1.35    0.08
   1   0   3    1.54    0.20
  -6   1   3    0.64    0.31
  -4   1   3    2.26    0.27
  -2   1   3    2.14    0.14
   0   1   3    1.24    0.11
   2   1   3    2.17    0.20
   4   1   3    2.41    0.24
  -5   2   3    1.36    0.26
  -3   2   3    0.18    0.07
  -1   2   3    2.28    0.18
   1   2   3    2.18    0.17
   3   2   3    0.18    0.08
   5   2   3    1.31    0.27
  -4   3   3    0.10    0.14
  -2   3   3    0.10    0.07
   0   3   3    0.54    0.09
   2   3   3    0.11    0.07
   4   3   3    0.52    0.16
  -3   4   3    0.21    0.25
  -1   4   3    2.29    0.30
   1   4   3    2.75    0.24
   3   4   3    0.18    0.10
  -2   5   3    0.84    0.34
   0   5   3    2.33    0.36
   2   5   3    0.97    0.20
  -1   6   3    0.31    0.28
   1   6   3    0.50    0.24
   0  -6   4    7.88    0.79
  -3  -5   4  123.99    5.49
  -1  -5   4  196.87    7.75
   1  -5   4  197.63    7.49
   3  -5   4  118.57    4.78
  -4  -4   4   11.84    1.10
  -2  -4   4    9.06    0.86
   0  -4   4    7.91    0.45
   2  -4   4    9.79    0.50
   4  -4   4   12.31    0.95
  -5  -3   4  134.04    5.26
  -3  -3   4  292.59   10.83
  -1  -3   4  478.63   11.94
   1  -3   4  552.20   12.05
   3  -3   4  286.94   10.11
   5  -3   4  129.77    5.05
  -4  -2   4   11.07    0.78
  -2  -2   4    3.96    0.22
   0  -2   4    0.73    0.14
   2  -2   4    3.66    0.26
   4  -2   4    9.43    0.82
  -5  -1   4  207.01    7.48
  -3  -1   4  483.26   11.88
  -1  -1   4  821.04   19.29
   1  -1   4  885.67   26.28
   3  -1   4  490.66   11.96
   5  -1   4  191.34    7.26
  -4   0   4    8.38    0.33
  -2   0   4    0.56    0.06
   0   0   4    1.06    0.11
   2   0   4    1.12    0.25
   4   0   4    8.13    0.70
  -5   1   4  199.11    7.15
  -3   1   4  515.78    9.82
  -1   1   4  870.57   15.87
   1   1   4  777.24   19.30
   3   1   4  501.25   12.05
   5   1   4  210.15    5.25
  -4   2   4   10.19    0.58
  -2   2   4    3.80    0.22
   0   2   4    0.73    0.11
   2   2   4    3.21    0.21
   4   2   4   10.73    0.50
  -5   3   4  129.13    3.72
  -3   3   4  300.16    7.49
  -1   3   4  497.52    9.89
   1   3   4  492.41   12.33
   3   3   4  286.23    7.43
   5   3   4  123.11    3.59
  -4   4   4   11.30    0.72
  -2   4   4   10.38    0.58
   0   4   4   10.19    0.53
   2   4   4   12.02    0.46
   4   4   4   11.47    0.67
  -3   5   4  134.85    5.46
  -1   5   4  197.00    5.38
   1   5   4  200.82    5.44
   3   5   4  126.73    3.61
   0   6   4    8.86    0.68
  -1  -6   5   38.20    2.08
  -2  -5   5   83.05    3.75
   0  -5   5  110.08    4.37
   2  -5   5   74.84    3.14
  -3  -4   5   71.27    3.34
  -1  -4   5   90.16    3.85
   1  -4   5   94.87    2.55
   3  -4   5   69.12    2.94
  -4  -3   5   73.02    3.23
  -2  -3   5  157.66    5.98
   0  -3   5  215.67    5.38
   2  -3   5  147.94    3.94
   4  -3   5   65.58    2.99
  -5  -2   5   84.67    3.49
  -3  -2   5  158.82    3.90
  -1  -2   5  217.38    5.40
   1  -2   5  230.39    5.50
   3  -2   5  148.47    5.59
   5  -2   5   78.63    3.43
  -6  -1   5   36.10    1.89
  -4  -1   5   90.54    2.47
  -2  -1   5  220.89    5.38
   0  -1   5  335.64    7.78
   2  -1   5  231.67    5.47
   4  -1   5   92.92    3.69
  -5   0   5  104.81    2.88
  -3   0   5  218.14    4.37
  -1   0   5  331.63    6.43
   1   0   5  330.61   10.71
   3   0   5  216.15    7.53
  -6   1   5   31.95    1.82
  -4   1   5   94.73    2.53
  -2   1   5  234.71    4.45
   0   1   5  330.56    6.47
   2   1   5  214.98    5.41
   4   1   5   97.71    3.65
  -5   2   5   81.24    3.39
  -3   2   5  158.39    4.08
  -1   2   5  226.54    4.50
   1   2   5  224.12    5.57
   3   2   5  149.73    4.00
   5   2   5   84.38    3.36
  -4   3   5   74.24    2.26
  -2   3   5  156.78    3.30
   0   3   5  213.88    4.38
   2   3   5  150.10    4.02
   4   3   5   72.23    2.11
  -3   4   5   72.52    2.24
  -1   4   5   89.38    2.65
   1   4   5   94.26    2.10
   3   4   5   72.18    1.75
  -2   5   5   74.21    3.60
   0   5   5  101.19    3.10
   2   5   5   83.80    2.01
  -1   6   5   34.64    2.12
   1   6   5   36.87    1.50
   0  -6   6    3.30    0.56
  -3  -5   6    4.96    0.84
  -1  -5   6    4.72    0.73
   1  -5   6    5.89    0.71
   3  -5   6    5.06    0.64
  -4  -4   6    6.84    0.94
  -2  -4   6    3.08    0.57
   0  -4   6    3.15    0.32
   2  -4   6    3.89    0.53
   4  -4   6    5.39    0.72
  -5  -3   6    4.68    0.71
  -3  -3   6    7.98    0.74
  -1  -3   6    9.39    0.43
   1  -3   6   10.98    0.50
   3  -3   6    7.66    0.66
   5  -3   6    4.41    0.69
  -4  -2   6    4.52    0.57
  -2  -2   6    1.43    0.16
   0  -2   6    0.71    0.12
   2  -2   6    1.46    0.18
   4  -2   6    4.18    0.63
  -5  -1   6    4.24    0.56
  -3  -1   6    9.23    0.41
  -1  -1   6   11.84    0.62
   1  -1   6   11.68    0.42
   3  -1   6    9.93    0.76
   5  -1   6    4.48    0.71
  -4   0   6    2.75    0.28
  -2   0   6    0.94    0.09
   0   0   6    0.26    0.06
   2   0   6    0.66    0.19
   4   0   6    3.29    0.54
  -5   1   6    4.15    0.60
  -3   1   6    9.39    0.44
  -1   1   6   12.96    0.44
   1   1   6   12.81    0.47
   3   1   6    9.68    0.44
   5   1   6    5.16    0.43
  -4   2   6    3.92    0.40
  -2   2   6    1.54    0.14
   0   2   6    0.97    0.09
   2   2   6    1.43    0.17
   4   2   6    3.92    0.34
  -5   3   6    4.40    0.71
  -3   3   6    7.72    0.50
  -1   3   6    9.90    0.38
   1   3   6    9.29    0.43
   3   3   6    7.79    0.43
   5   3   6    4.16    0.46
  -4   4   6    5.07    0.54
  -2   4   6    4.26    0.42
   0   4   6    2.63    0.31
   2   4   6    4.21    0.31
   4   4   6    5.88    0.53
  -3   5   6    4.35    0.72
  -1   5   6    4.36    0.75
   1   5   6    5.59    0.53
   3   5   6    4.61    0.38
   0   6   6    3.13    0.44
  -1  -6   7    1.06    0.40
  -2  -5   7    0.89    0.37
   0  -5   7    2.38    0.47
   2  -5   7    1.17    0.32
  -3  -4   7    0.09    0.20
  -1  -4   7    0.93    0.30
   1  -4   7    0.60    0.16
   3  -4   7   -0.02    0.15
  -4  -3   7   -0.04    0.16
  -2  -3   7    1.39    0.18
   0  -3   7    3.79    0.32
   2  -3   7    1.23    0.29
   4  -3   7    0.02    0.15
  -5  -2   7    1.46    0.39
  -3  -2   7    1.20    0.16
  -1  -2   7   -0.05    0.09
   1  -2   7   -0.02    0.07
   3  -2   7    0.79    0.25
   5  -2   7    0.96    0.34
  -6  -1   7    0.70    0.32
  -4  -1   7    0.82    0.16
  -2  -1   7   -0.04    0.05
   0  -1   7    1.56    0.13
   2  -1   7   -0.09    0.05
   4  -1   7    0.43    0.23
  -5   0   7    2.34    0.43
  -3   0   7    3.95    0.19
  -1   0   7    2.05    0.11
   1   0   7    2.73    0.23
   3   0   7    4.80    0.59
   5   0   7    2.90    0.47
  -6   1   7    1.04    0.35
  -4   1   7    0.57    0.22
  -2   1   7   -0.01    0.06
   0   1   7    1.68    0.11
   2   1   7    0.01    0.06
   4   1   7    0.99    0.26
   6   1   7    0.68    0.32
  -5   2   7    1.20    0.37
  -3   2   7    1.33    0.21
  -1   2   7    0.05    0.06
   1   2   7   -0.04    0.06
   3   2   7    1.42    0.18
   5   2   7    1.19    0.22
  -4   3   7    0.34    0.16
  -2   3   7    0.89    0.18
   0   3   7    4.27    0.21
   2   3   7    1.47    0.18
   4   3   7    0.02    0.10
  -3   4   7    0.08    0.12
  -1   4   7    0.73    0.18
   1   4   7    0.85    0.14
   3   4   7    0.03    0.10
  -2   5   7    1.08    0.37
   0   5   7    2.87    0.40
   2   5   7    0.87    0.18
   1   6   7    1.31    0.31
  -3  -5   8    0.36    0.32
  -1  -5   8    2.65    0.54
   1  -5   8    3.21    0.49
   3  -5   8    0.61    0.25
  -4  -4   8   56.55    2.86
  -2  -4   8  107.73    4.66
   0  -4   8  159.44    4.03
   2  -4   8  107.59    4.18
   4  -4   8   53.94    2.49
  -5  -3   8    0.51    0.31
  -3  -3   8    7.60    0.73
  -1  -3   8   29.86    1.00
   1  -3   8   31.85    1.04
   3  -3   8    6.89    0.75
   5  -3   8    0.58    0.29
  -4  -2   8  112.70    4.49
  -2  -2   8  270.04    6.40
   0  -2   8  370.22    8.99
   2  -2   8  272.96    9.04
   4  -2   8  106.42    4.32
  -5  -1   8    3.20    0.35
  -3  -1   8   31.93    1.29
  -1  -1   8  102.07    2.57
   1  -1   8   98.64    3.68
   3  -1   8   33.79    1.61
   5  -1   8    2.02    0.47
  -6   0   8   57.04    2.56
  -4   0   8  151.99    3.96
  -2   0   8  380.10    7.39
   0   0   8  513.63   11.85
   2   0   8  354.45   12.39
   4   0   8  151.70    5.70
   6   0   8   54.29    2.61
  -5   1   8    2.43    0.46
  -3   1   8   31.30    0.99
  -1   1   8  104.55    2.60
   1   1   8  104.43    2.54
   3   1   8   29.45    1.40
   5   1   8    2.72    0.44
  -4   2   8  117.51    3.13
  -2   2   8  273.31    6.55
   0   2   8  381.09    7.35
   2   2   8  254.95    6.57
   4   2   8  116.95    3.10
  -5   3   8    0.66    0.31
  -3   3   8    7.11    0.50
  -1   3   8   30.62    0.82
   1   3   8   31.15    1.00
   3   3   8    6.96    0.40
   5   3   8    0.21    0.23
  -4   4   8   52.23    1.87
  -2   4   8  108.64    3.11
   0   4   8  151.83    4.15
   2   4   8  112.12    3.11
   4   4   8   54.04    1.47
  -3   5   8    0.54    0.34
  -1   5   8    2.42    0.57
   1   5   8    3.63    0.40
   3   5   8    0.46    0.16
  -1  -6   9   88.55    3.84
  -2  -5   9   72.90    3.54
   0  -5   9   89.49    3.68
   2  -5   9   75.66    3.09
  -3  -4   9  114.35    4.87
  -1  -4   9  185.01    7.21
   1  -4   9  200.58    6.75
   3  -4   9  110.68    4.33
  -4  -3   9  120.62    4.77
  -2  -3   9  187.06    4.65
   0  -3   9  209.10    5.42
   2  -3   9  194.91    6.58
   4  -3   9  106.70    4.37
  -5  -2   9   81.33    3.44
  -3  -2   9  185.25    4.61
  -1  -2   9  316.77    7.73
   1  -2   9  327.45    7.78
   3  -2   9  181.90    6.59
   5  -2   9   76.04    3.30
  -4  -1   9  192.26    4.80
  -2  -1   9  323.59    7.71
   0  -1   9  397.58   13.70
   2  -1   9  326.78   10.85
   4  -1   9  192.68    6.93
  -5   0   9   83.52    3.37
  -3   0   9  214.80    5.37
  -1   0   9  400.88    7.79
   1   0   9  398.52   12.90
   3   0   9  207.48    7.56
   5   0   9   84.18    3.59
  -4   1   9  189.62    6.62
  -2   1   9  334.68    7.83
   0   1   9  405.21    9.44
   2   1   9  322.20    7.72
   4   1   9  193.68    7.10
   6   1   9   85.32    3.81
  -5   2   9   76.45    3.23
  -3   2   9  185.73    4.74
  -1   2   9  329.17    6.36
   1   2   9  322.43    6.30
   3   2   9  181.70    4.74
   5   2   9   81.98    2.34
  -4   3   9  114.45    3.26
  -2   3   9  193.20    4.77
   0   3   9  215.40    5.54
   2   3   9  179.14    4.74
   4   3   9  117.10    3.19
  -3   4   9  111.79    3.23
  -1   4   9  185.21    7.39
   1   4   9  188.68    4.98
   3   4   9  114.47    3.20
  -2   5   9   74.94    3.55
   0   5   9   88.40    2.66
   2   5   9   75.29    2.37
   1   6   9   84.83    3.79
  -3  -5  10   24.51    1.74
  -1  -5  10   30.40    1.75
   1  -5  10   31.07    1.55
   3  -5  10   25.51    1.46
  -4  -4  10    1.15    0.45
  -2  -4  10    2.46    0.52
   0  -4  10    6.13    0.44
   2  -4  10    2.71    0.46
   4  -4  10    1.12    0.35
  -5  -3  10   29.09    1.78
  -3  -3  10   36.66    1.97
  -1  -3  10   45.94    1.40
   1  -3  10   44.19    2.00
   3  -3  10   39.09    1.87
   5  -3  10   27.19    1.60
  -4  -2  10    2.96    0.48
  -2  -2  10   11.18    0.47
   0  -2  10   18.59    0.66
   2  -2  10   10.68    0.79
   4  -2  10    3.05    0.52
  -5  -1  10   28.75    1.10
  -3  -1  10   46.17    1.35
  -1  -1  10   58.99    1.59
   1  -1  10   58.51    2.31
   3  -1  10   49.06    2.16
   5  -1  10   30.62    1.70
  -6   0  10    2.01    0.47
  -4   0  10    5.59    0.37
  -2   0  10   19.34    0.48
   0   0  10   32.60    0.89
   2   0  10   18.55    0.94
   4   0  10    6.15    0.77
   6   0  10    1.38    0.40
  -5   1  10   29.89    1.58
  -3   1  10   47.16    1.36
  -1   1  10   59.89    1.59
   1   1  10   60.93    1.56
   3   1  10   43.86    1.97
   5   1  10   31.07    1.60
  -4   2  10    3.42    0.52
  -2   2  10   11.53    0.52
   0   2  10   18.28    0.48
   2   2  10   11.44    0.47
   4   2  10    3.08    0.32
  -5   3  10   28.46    1.65
  -3   3  10   38.24    1.34
  -1   3  10   44.44    1.12
   1   3  10   46.65    1.38
   3   3  10   38.10    1.26
   5   3  10   28.48    1.12
  -4   4  10    1.20    0.28
  -2   4  10    3.13    0.36
   0   4  10    6.37    0.44
   2   4  10    3.49    0.35
   4   4  10    1.28    0.25
  -3   5  10   27.24    1.72
  -1   5  10   30.11    1.86
   1   5  10   31.30    1.21
   3   5  10   27.31    0.91
  -2  -5  11    2.18    0.54
   2  -5  11    2.69    0.46
  -3  -4  11    0.58    0.32
  -1  -4  11    0.19    0.11
   1  -4  11    0.15    0.17
   3  -4  11    0.23    0.21
  -4  -3  11    0.17    0.21
  -2  -3  11    3.93    0.34
   0  -3  11    8.86    0.46
   2  -3  11    4.40    0.57
   4  -3  11    0.03    0.20
  -5  -2  11    2.36    0.51
  -3  -2  11    3.96    0.33
  -1  -2  11    2.18    0.22
   1  -2  11    2.32    0.37
   3  -2  11    3.74    0.58
   5  -2  11    2.23    0.49
  -4  -1  11    0.02    0.08
  -2  -1  11    2.66    0.20
   0  -1  11    7.66    0.31
   2  -1  11    1.83    0.36
   4  -1  11    0.04    0.18
  -5   0  11    4.50    0.59
  -3   0  11    8.21    0.41
  -1   0  11    7.28    0.38
   1   0  11    7.86    0.32
   3   0  11    8.02    0.65
   5   0  11    4.86    0.64
  -4   1  11    0.04    0.12
  -2   1  11    2.55    0.24
   0   1  11    7.54    0.29
   2   1  11    2.14    0.30
   4   1  11    0.22    0.16
  -5   2  11    2.53    0.50
  -3   2  11    4.42    0.39
  -1   2  11    2.16    0.20
   1   2  11    2.42    0.19
   3   2  11    4.52    0.36
   5   2  11    2.98    0.35
  -4   3  11    0.26    0.22
  -2   3  11    3.73    0.35
   0   3  11    8.96    0.42
   2   3  11    3.86    0.33
   4   3  11    0.42    0.16
  -3   4  11    0.53    0.19
  -1   4  11    0.05    0.17
   1   4  11    0.38    0.12
   3   4  11    0.47    0.16
  -2   5  11    2.93    0.64
   0   5  11    3.96    0.71
   2   5  11    2.87    0.37
  -1  -5  12   35.04    1.86
   1  -5  12   31.19    1.62
  -4  -4  12   10.99    1.06
  -2  -4  12   32.25    1.83
   0  -4  12   52.31    2.22
   2  -4  12   32.97    1.65
   4  -4  12    9.67    0.85
  -3  -3  12   46.61    2.27
  -1  -3  12   91.01    2.50
   1  -3  12   92.34    3.54
   3  -3  12   45.86    2.12
  -4  -2  12   33.80    1.15
  -2  -2  12  106.88    2.78
   0  -2  12  163.91    4.15
   2  -2  12  109.75    4.08
   4  -2  12   32.07    1.74
  -5  -1  12   31.43    1.17
  -3  -1  12   91.72    2.45
  -1  -1  12  190.60    4.71
   1  -1  12  197.73    6.61
   3  -1  12   94.91    3.68
   5  -1  12   30.58    1.77
  -4   0  12   45.40    2.06
  -2   0  12  164.62    4.11
   0   0  12  251.27    6.09
   2   0  12  166.41    5.70
   4   0  12   48.79    2.26
  -5   1  12   30.42    1.61
  -3   1  12   92.59    3.37
  -1   1  12  196.16    4.72
   1   1  12  196.88    4.70
   3   1  12   92.08    3.62
   5   1  12   30.22    1.66
  -4   2  12   32.97    1.60
  -2   2  12  102.79    2.85
   0   2  12  169.58    3.34
   2   2  12  103.52    2.82
   4   2  12   33.79    1.16
  -3   3  12   44.81    1.51
  -1   3  12   90.52    2.46
   1   3  12   91.44    2.50
   3   3  12   44.00    1.43
   5   3  12   20.22    1.28
  -4   4  12    9.66    0.87
  -2   4  12   29.32    1.15
   0   4  12   51.68    1.61
   2   4  12   30.66    1.13
   4   4  12   11.95    0.66
  -3   5  12   18.26    1.47
  -1   5  12   28.66    1.87
   1   5  12   32.26    1.24
   3   5  12   18.75    1.26
  -2  -5  13   63.31    3.04
   2  -5  13   60.60    2.64
  -3  -4  13   51.04    2.70
  -1  -4  13   66.44    2.00
   1  -4  13   64.78    2.78
   3  -4  13   53.41    2.40
  -4  -3  13   56.18    2.70
  -2  -3  13  111.63    2.97
   0  -3  13  148.26    3.84
   2  -3  13  116.18    4.28
   4  -3  13   49.80    2.42
  -5  -2  13   64.95    2.98
  -3  -2  13  112.26    2.94
  -1  -2  13  143.12    3.70
   1  -2  13  143.25    5.24
   3  -2  13  111.59    4.29
   5  -2  13   63.79    2.86
  -4  -1  13   67.31    1.95
  -2  -1  13  145.77    3.69
   0  -1  13  202.96    5.12
   2  -1  13  136.16    5.23
   4  -1  13   72.00    3.02
  -5   0  13   81.01    3.21
  -3   0  13  147.58    3.78
  -1   0  13  211.52    5.12
   1   0  13  207.18    5.16
   3   0  13  142.34    5.28
   5   0  13   77.42    3.41
  -4   1  13   64.76    2.70
  -2   1  13  151.42    3.75
   0   1  13  212.67    5.13
   2   1  13  149.56    3.65
   4   1  13   64.45    2.85
  -5   2  13   61.15    2.75
  -3   2  13  109.33    4.04
  -1   2  13  144.12    3.69
   1   2  13  143.58    3.76
   3   2  13  111.20    3.00
   5   2  13   62.82    1.99
  -4   3  13   53.84    2.39
  -2   3  13  110.87    3.01
   0   3  13  148.96    3.86
   2   3  13  109.75    2.98
   4   3  13   54.86    1.74
  -3   4  13   53.70    1.77
  -1   4  13   64.00    3.05
   1   4  13   66.35    1.99
   3   4  13   52.09    1.72
  -2   5  13   58.60    3.04
   0   5  13   81.48    3.68
   2   5  13   60.72    2.00
   1  -5  14   34.93    1.75
  -2  -4  14  102.89    4.43
   0  -4  14  120.83    4.46
   2  -4  14  107.18    4.11
  -3  -3  14   44.56    2.24
  -1  -3  14   84.01    2.35
   1  -3  14   80.32    3.30
   3  -3  14   44.15    2.14
  -4  -2  14  104.47    2.91
  -2  -2  14  160.37    4.08
   0  -2  14  184.38    4.65
   2  -2  14  156.90    5.79
   4  -2  14  108.39    4.25
  -5  -1  14   31.96    1.23
  -3  -1  14   83.61    2.29
  -1  -1  14  152.85    3.86
   1  -1  14  158.41    5.44
   3  -1  14   80.24    3.38
  -4   0  14  116.58    4.31
  -2   0  14  189.89    6.33
   0   0  14  224.15    5.53
   2   0  14  186.73    4.68
   4   0  14  110.83    4.65
  -5   1  14   32.93    1.70
  -3   1  14   84.23    3.15
  -1   1  14  158.09    3.86
   1   1  14  154.44    3.83
   3   1  14   86.16    3.41
   5   1  14   32.83    1.76
  -4   2  14  105.17    4.01
  -2   2  14  163.49    4.15
   0   2  14  188.98    3.75
   2   2  14  159.29    4.15
   4   2  14  107.18    2.98
  -3   3  14   43.91    1.49
  -1   3  14   84.00    2.29
   1   3  14   84.35    2.32
   3   3  14   44.87    1.45
  -4   4  14   68.18    3.15
  -2   4  14  104.28    4.53
   0   4  14  116.06    4.79
   2   4  14  102.19    2.95
  -1   5  14   32.80    1.99
   1   5  14   32.00    1.89
   2  -5  15    0.90    0.32
  -3  -4  15    1.10    0.38
  -1  -4  15    3.10    0.49
   1  -4  15    2.51    0.49
   3  -4  15   -0.11    0.15
  -4  -3  15    0.11    0.25
  -2  -3  15    0.17    0.11
   0  -3  15    0.23    0.17
   2  -3  15   -0.01    0.13
   4  -3  15    0.26    0.22
  -5  -2  15    0.67    0.31
  -3  -2  15    0.00    0.08
  -1  -2  15    1.94    0.22
   1  -2  15    1.47    0.33
   3  -2  15    0.00    0.18
   5  -2  15    0.13    0.26
  -4  -1  15    2.16    0.28
  -2  -1  15    2.01    0.22
   0  -1  15    1.31    0.15
   2  -1  15    1.99    0.37
   4  -1  15    2.56    0.56
  -5   0  15    1.02    0.33
  -3   0  15    0.00    0.09
  -1   0  15    1.21    0.13
   1   0  15    1.19    0.15
   3   0  15    0.21    0.11
   5   0  15    1.52    0.41
  -4   1  15    1.95    0.39
  -2   1  15    2.16    0.31
   0   1  15    1.15    0.13
   2   1  15    2.07    0.20
   4   1  15    2.02    0.41
  -5   2  15    0.50    0.28
  -3   2  15    0.00    0.11
  -1   2  15    1.92    0.20
   1   2  15    2.07    0.20
   3   2  15    0.09    0.14
   5   2  15    0.48    0.20
  -4   3  15    0.16    0.19
  -2   3  15    0.02    0.09
   0   3  15    0.07    0.14
   2   3  15   -0.01    0.08
   4   3  15    0.27    0.15
  -3   4  15    0.22    0.15
  -1   4  15    1.75    0.44
   1   4  15    2.21    0.29
   3   4  15    0.49    0.18
  -2   5  15    0.53    0.35
   0   5  15    1.53    0.46
   2   5  15    0.56    0.21
   1  -5  16   19.72    1.25
  -2  -4  16   30.68    1.83
   0  -4  16   47.12    2.19
   2  -4  16   32.73    1.73
  -3  -3  16   30.85    1.13
  -1  -3  16   66.24    1.95
   1  -3  16   64.47    2.77
   3  -3  16   29.11    1.65
  -4  -2  16   33.24    1.20
  -2  -2  16   83.62    2.34
   0  -2  16  123.55    4.55
   2  -2  16   83.42    3.39
   4  -2  16   35.55    1.87
  -5  -1  16   19.53    0.89
  -3  -1  16   66.78    1.90
  -1  -1  16  142.31    3.67
   1  -1  16  147.84    5.17
   3  -1  16   62.32    2.77
  -4   0  16   46.17    2.04
  -2   0  16  125.34    4.40
   0   0  16  183.45    4.59
   2   0  16  123.20    3.25
   4   0  16   49.47    2.26
  -5   1  16   20.28    1.24
  -3   1  16   63.76    2.58
  -1   1  16  145.91    3.66
   1   1  16  142.31    3.63
   3   1  16   65.93    2.80
   5   1  16   19.08    1.26
  -4   2  16   32.83    1.65
  -2   2  16   85.27    2.38
   0   2  16  123.13    2.58
   2   2  16   84.18    3.41
   4   2  16   31.87    1.19
  -3   3  16   30.54    1.49
  -1   3  16   64.11    1.87
   1   3  16   66.32    1.90
   3   3  16   30.28    1.11
  -2   4  16   29.33    1.86
   0   4  16   46.04    2.29
   2   4  16   33.07    1.19
  -1   5  16   17.83    1.42
   1   5  16   17.89    1.33
   0  -5  17    6.04    0.86
  -3  -4  17   10.94    1.07
  -1  -4  17   22.68    1.31
   1  -4  17   20.99    1.34
   3  -4  17   12.24    0.97
  -4  -3  17   12.53    1.12
  -2  -3  17   12.73    1.00
   0  -3  17   13.46    0.92
   2  -3  17   15.32    1.05
   4  -3  17   13.30    1.06
  -3  -2  17   14.25    0.66
  -1  -2  17   25.63    0.92
   1  -2  17   26.14    1.40
   3  -2  17   14.34    1.05
  -4  -1  17   22.33    0.92
  -2  -1  17   26.74    0.92
   0  -1  17   28.21    0.86
   2  -1  17   25.93    1.37
   4  -1  17   22.64    1.45
  -5   0  17    5.22    0.70
  -3   0  17   12.48    0.78
  -1   0  17   25.88    1.18
   1   0  17   26.07    0.86
   3   0  17   12.30    0.59
   5   0  17    6.14    0.79
  -4   1  17   22.66    1.27
  -2   1  17   27.35    1.23
   0   1  17   26.61    0.83
   2   1  17   26.82    1.33
   4   1  17   22.08    1.33
  -3   2  17   13.81    0.88
  -1   2  17   26.67    0.88
   1   2  17   27.32    0.89
   3   2  17   14.98    0.96
  -4   3  17   13.61    0.98
  -2   3  17   13.67    0.66
   0   3  17   13.53    0.89
   2   3  17   13.98    0.63
   4   3  17   14.23    0.73
  -3   4  17   12.94    0.93
  -1   4  17   20.93    1.45
   1   4  17   20.99    1.35
   3   4  17   13.51    0.71
   0   5  17    6.10    0.92
   1  -5  18   95.18    3.85
   0  -4  18   74.06    3.14
   2  -4  18   61.01    2.67
  -3  -3  18  128.99    3.49
  -1  -3  18  163.17    5.80
   1  -3  18  158.25    5.90
   3  -3  18  128.97    4.92
  -4  -2  18   58.07    1.86
  -2  -2  18  117.19    3.15
   0  -2  18  164.12    5.78
   2  -2  18  113.80    4.49
   4  -2  18   61.75    2.78
  -5  -1  18   94.39    3.77
  -3  -1  18  160.05    4.17
  -1  -1  18  213.19    5.39
   1  -1  18  216.92    7.51
   3  -1  18  152.98    5.88
  -4   0  18   73.65    2.98
  -2   0  18  164.97    5.61
   0   0  18  211.89    5.34
   2   0  18  165.02    4.14
   4   0  18   72.33    3.23
  -3   1  18  163.61    5.69
  -1   1  18  221.77    5.38
   1   1  18  217.51    5.36
   3   1  18  158.36    6.16
  -4   2  18   59.07    2.54
  -2   2  18  113.50    4.21
   0   2  18  158.41    4.05
   2   2  18  116.81    4.61
   4   2  18   57.20    1.86
  -3   3  18  128.67    4.65
  -1   3  18  156.37    6.24
   1   3  18  160.60    4.22
   3   3  18  126.68    3.49
  -2   4  18   56.13    2.88
   0   4  18   74.32    3.31
   2   4  18   56.25    1.83
  -1   5  18   87.36    4.28
   0  -5  19    4.77    0.72
  -3  -4  19   10.71    1.06
  -1  -4  19   17.51    1.17
   1  -4  19   19.84    1.27
  -4  -3  19   10.08    1.22
  -2  -3  19   10.58    0.59
   0  -3  19   10.15    0.82
   2  -3  19   10.21    0.88
  -3  -2  19   10.17    0.57
  -1  -2  19   21.68    1.15
   1  -2  19   22.63    1.26
   3  -2  19   10.10    0.89
  -4  -1  19   16.82    0.80
  -2  -1  19   20.58    0.80
   0  -1  19   20.49    1.06
   2  -1  19   21.20    1.22
   4  -1  19   17.42    1.26
  -3   0  19    8.74    0.67
  -1   0  19   19.62    0.99
   1   0  19   20.59    0.72
   3   0  19    8.76    0.51
  -4   1  19   17.67    1.11
  -2   1  19   20.34    1.05
   0   1  19   20.23    0.69
   2   1  19   20.54    1.15
   4   1  19   18.09    1.20
  -3   2  19   11.02    0.77
  -1   2  19   21.26    0.76
   1   2  19   20.88    0.76
   3   2  19    9.32    0.78
  -2   3  19    9.77    0.70
   0   3  19    9.90    0.77
   2   3  19    9.63    0.52
  -1   4  19   18.36    1.32
   1   4  19   17.40    1.20
   3   4  19    9.82    0.85
   0  -4  20   19.31    1.30
   2  -4  20   16.20    1.16
  -3  -3  20   37.60    1.38
  -1  -3  20   75.12    3.00
   1  -3  20   64.60    2.98
   3  -3  20   37.25    1.98
  -4  -2  20   15.46    0.79
  -2  -2  20   38.94    1.29
   0  -2  20   58.74    2.47
   2  -2  20   34.68    1.86
   4  -2  20   15.51    1.21
  -3  -1  20   70.02    2.09
  -1  -1  20  139.82    5.09
   1  -1  20  146.22    3.77
   3  -1  20   67.66    3.01
  -4   0  20   20.00    1.20
  -2   0  20   57.85    2.32
   0   0  20   87.21    2.37
   2   0  20   58.15    1.71
   4   0  20   18.47    1.27
  -3   1  20   72.23    2.84
  -1   1  20  142.40    5.01
   1   1  20  143.74    3.66
   3   1  20   66.83    3.05
  -4   2  20   15.73    1.07
  -2   2  20   38.29    1.66
   0   2  20   58.66    1.64
   2   2  20   38.10    1.83
   4   2  20   15.60    0.78
  -3   3  20   35.94    1.76
  -1   3  20   69.85    3.13
   1   3  20   70.42    3.06
   3   3  20   37.84    1.33
   0   4  20   21.15    1.37
   2   4  20   15.09    1.11
  -1  -4  21    0.22    0.24
   1  -4  21    0.00    0.20
  -2  -3  21    1.42    0.37
   0  -3  21    3.87    0.60
   2  -3  21    1.00    0.37
  -3  -2  21    2.74    0.31
  -1  -2  21    0.40    0.20
   1  -2  21    0.47    0.27
   3  -2  21    1.30    0.40
  -4  -1  21    0.07    0.15
  -2  -1  21    0.16    0.13
   0  -1  21    1.28    0.28
   2  -1  21    0.11    0.11
   4  -1  21    0.25    0.24
  -3   0  21    1.74    0.36
  -1   0  21    0.94    0.23
   1   0  21    0.80    0.15
   3   0  21    2.95    0.50
  -4   1  21    0.51    0.25
  -2   1  21    0.17    0.13
   0   1  21    1.66    0.16
   2   1  21    0.06    0.13
   4   1  21   -0.01    0.17
  -3   2  21    2.49    0.43
  -1   2  21    0.09    0.12
   1   2  21    0.14    0.10
   3   2  21    1.32    0.37
  -2   3  21    2.23    0.39
   0   3  21    1.66    0.38
   2   3  21    1.07    0.22
  -1   4  21   -0.07    0.22
   1   4  21    0.03    0.20
   0  -4  22   64.70    2.96
  -3  -3  22   25.82    1.13
  -1  -3  22   49.58    2.22
   1  -3  22   43.10    2.22
   3  -3  22   26.41    1.64
  -4  -2  22   61.06    2.05
  -2  -2  22   82.17    3.28
   0  -2  22   87.84    3.68
   2  -2  22   79.43    3.46
   4  -2  22   64.68    3.00
  -3  -1  22   44.75    2.03
  -1  -1  22   79.63    3.13
   1  -1  22   80.45    2.30
   3  -1  22   48.18    1.61
  -4   0  22   64.39    2.81
  -2   0  22   91.26    3.51
   0   0  22  100.71    3.79
   2   0  22   96.89    2.61
   4   0  22   67.89    3.10
  -3   1  22   45.49    2.03
  -1   1  22   78.26    3.03
   1   1  22   82.36    2.22
   3   1  22   43.55    2.20
  -2   2  22   82.70    3.18
   0   2  22   95.62    3.79
   2   2  22   81.94    3.49
  -3   3  22   26.02    1.41
  -1   3  22   44.51    2.25
   1   3  22   43.90    2.17
   3   3  22   27.44    1.09
   0   4  22   67.81    3.13
  -1  -4  23   33.30    1.83
   1  -4  23   33.03    1.86
  -2  -3  23   50.98    2.44
   0  -3  23   72.43    3.13
   2  -3  23   54.69    2.60
  -3  -2  23   53.66    1.79
  -1  -2  23   67.21    2.80
   1  -2  23   64.89    2.87
   3  -2  23   53.84    2.62
  -4  -1  23   31.41    1.66
  -2  -1  23   66.94    2.69
   0  -1  23   86.17    3.44
   2  -1  23   66.57    2.04
   4  -1  23   33.85    1.97
  -3   0  23   71.15    2.91
  -1   0  23   86.53    3.33
   1   0  23   90.84    2.46
   3   0  23   73.35    3.20
  -4   1  23   34.21    1.73
  -2   1  23   65.91    2.63
   0   1  23   90.09    3.28
   2   1  23   64.27    2.84
   4   1  23   30.37    1.83
  -3   2  23   55.45    2.36
  -1   2  23   66.25    2.57
   1   2  23   65.62    2.83
   3   2  23   53.99    1.76
   0   3  23   68.08    3.12
   2   3  23   56.54    2.56
  -1   4  23   31.59    1.94
   1   4  23   31.45    1.83
   0  -4  24   25.79    1.59
  -1  -3  24   34.27    1.81
   1  -3  24   32.57    1.82
  -2  -2  24   44.59    2.07
   0  -2  24   61.63    2.82
   2  -2  24   42.40    2.20
  -3  -1  24   33.39    1.65
  -1  -1  24   60.21    2.53
   1  -1  24   62.81    2.62
   3  -1  24   32.43    1.28
  -2   0  24   62.84    2.65
   0   0  24   96.93    3.68
   2   0  24   67.11    1.97
  -3   1  24   33.47    1.63
  -1   1  24   60.06    2.43
   1   1  24   61.62    1.77
   3   1  24   31.99    1.75
  -2   2  24   44.73    1.96
   0   2  24   67.65    2.87
   2   2  24   46.37    1.47
   1   3  24   32.93    1.76
   0   4  24   24.83    1.60
  -2  -3  25   -0.03    0.23
   0  -3  25   -0.09    0.19
   2  -3  25    0.09    0.25
  -3  -2  25    0.01    0.19
  -1  -2  25    3.19    0.56
   1  -2  25    1.53    0.41
   3  -2  25    0.44    0.23
  -2  -1  25    0.56    0.23
   0  -1  25    0.33    0.21
   2  -1  25    0.97    0.22
  -3   0  25    0.06    0.14
  -1   0  25    0.36    0.17
   1   0  25    0.28    0.18
   3   0  25    0.16    0.22
  -2   1  25    1.35    0.31
   0   1  25    0.44    0.18
   2   1  25    2.12    0.43
  -3   2  25    0.18    0.19
  -1   2  25    0.56    0.21
   1   2  25    0.96    0.30
   3   2  25    0.29    0.18
   0   3  25   -0.10    0.16
   2   3  25    0.10    0.22
  -1  -3  26   19.31    1.32
   1  -3  26   17.11    1.28
  -2  -2  26    7.22    0.82
   0  -2  26   10.93    0.91
   2  -2  26    7.39    0.93
  -3  -1  26   19.97    1.20
  -1  -1  26   18.62    1.11
   1  -1  26   18.63    1.16
   3  -1  26   18.16    0.92
  -2   0  26    9.47    0.73
   0   0  26   13.49    0.87
   2   0  26   11.42    0.59
  -3   1  26   18.21    1.13
  -1   1  26   16.60    0.98
   1   1  26   16.96    1.06
   3   1  26   18.69    1.27
  -2   2  26    6.78    0.62
   2   2  26    7.29    0.72
   1   3  26   17.70    1.22
   0  -3  27   52.64    2.61
  -1  -2  27   77.15    3.29
   1  -2  27   75.78    3.36
  -2  -1  27   75.87    3.17
   0  -1  27   89.60    3.56
   2  -1  27   77.10    3.27
  -3   0  27   54.01    2.42
  -1   0  27   86.95    3.42
   1   0  27   89.31    3.45
   3   0  27   57.34    2.71
  -2   1  27   73.74    3.07
   0   1  27   86.34    3.34
   2   1  27   78.47    3.38
   1   2  27   77.42    3.34
   0  -2  28   86.34    3.58
   2  -2  28   63.65    3.16
  -1  -1  28   16.89    1.08
   1  -1  28   15.19    1.07
  -2   0  28   81.97    3.31
   0   0  28  111.81    4.29
  -1   1  28   14.84    0.92
  -2   2  28   65.69    2.74
   2   2  28   65.76    3.03
  -1  -2  29    0.76    0.36
   1  -2  29    0.84    0.40
  -2  -1  29    1.47    0.42
   0  -1  29    2.02    0.48
   2  -1  29    0.33    0.29
  -1   0  29    1.86    0.41
   1   0  29    2.70    0.47
  -2   1  29    0.61    0.25
   0   1  29    1.63    0.35
   2   1  29    1.08    0.37
  -1  -1  30    0.71    0.32
   1  -1  30    1.33    0.39
   0   0  30    1.64    0.38
  -1   1  30    0.96    0.31
   0  -1  31   35.67    2.15
  -1   0  31   39.11    1.91
   1   0  31   38.47    1.90
   0   0   0    0.00    0.00
;
_shelx_hkl_checksum              22202
loop_
_space_group_symop_operation_xyz
'x, y, z'
'-x, -y, z'
'-y, x, z'
'y, -x, z'
'-x, y, -z'
'x, -y, -z'
'y, x, -z'
'-y, -x, -z'
'x+1/2, y+1/2, z+1/2'
'-x+1/2, -y+1/2, z+1/2'
'-y+1/2, x+1/2, z+1/2'
'y+1/2, -x+1/2, z+1/2'
'-x+1/2, y+1/2, -z+1/2'
'x+1/2, -y+1/2, -z+1/2'
'y+1/2, x+1/2, -z+1/2'
'-y+1/2, -x+1/2, -z+1/2'
'-x, -y, -z'
'x, y, -z'
'y, -x, -z'
'-y, x, -z'
'x, -y, z'
'-x, y, z'
'-y, -x, z'
'y, x, z'
'-x+1/2, -y+1/2, -z+1/2'
'x+1/2, y+1/2, -z+1/2'
'y+1/2, -x+1/2, -z+1/2'
'-y+1/2, x+1/2, -z+1/2'
'x+1/2, -y+1/2, z+1/2'
'-x+1/2, y+1/2, z+1/2'
'-y+1/2, -x+1/2, z+1/2'
'y+1/2, x+1/2, z+1/2'
loop_
_atom_site_label
_atom_site_type_symbol
_atom_site_fract_x
_atom_site_fract_y
_atom_site_fract_z
_atom_site_U_iso_or_equiv
_atom_site_adp_type
_atom_site_occupancy
_atom_site_site_symmetry_order
_atom_site_calc_flag
_atom_site_refinement_flags_posn
_atom_site_refinement_flags_adp
_atom_site_refinement_flags_occupancy
_atom_site_disorder_assembly
_atom_site_disorder_group
La La 0.0000 0.0000 0.11185(2) 0.00847(12) Uani 1 8 d S T P . .
Ag Ag 0.0000 0.5000 0.2500 0.01228(14) Uani 0.5 8 d S T P . .
Zn Zn 0.0000 0.5000 0.2500 0.01228(14) Uani 0.5 8 d S T P . .
As1 As 0.0000 0.0000 0.33261(3) 0.01197(15) Uani 1 8 d S T P . .
As2 As 0.0000 0.5000 0.0000 0.0301(2) Uani 1 8 d S T P . .
loop_
_atom_site_aniso_label
_atom_site_aniso_U_11
_atom_site_aniso_U_22
_atom_site_aniso_U_33
_atom_site_aniso_U_23
_atom_site_aniso_U_13
_atom_site_aniso_U_12
La 0.00786(13) 0.00786(13) 0.00971(17) 0.000 0.000 0.000
Ag 0.01311(16) 0.01311(16) 0.0106(2) 0.000 0.000 0.000
Zn 0.01311(16) 0.01311(16) 0.0106(2) 0.000 0.000 0.000
As1 0.01045(18) 0.01045(18) 0.0150(3) 0.000 0.000 0.000
As2 0.0691(6) 0.0147(3) 0.0065(3) 0.000 0.000 0.000
loop_
_atom_type_symbol
_atom_type_description
_atom_type_scat_dispersion_real
_atom_type_scat_dispersion_imag
_atom_type_scat_source
Zn Zn 0.2839 1.4301 'International Tables Vol C Tables 4.2.6.8 and 6.1.1.4'
As As 0.0499 2.0058 'International Tables Vol C Tables 4.2.6.8 and 6.1.1.4'
Ag Ag -0.8971 1.1015 'International Tables Vol C Tables 4.2.6.8 and 6.1.1.4'
La La -0.2871 2.4523 'International Tables Vol C Tables 4.2.6.8 and 6.1.1.4'
loop_
_geom_angle_atom_site_label_1
_geom_angle_atom_site_label_2
_geom_angle_atom_site_label_3
_geom_angle
_geom_angle_site_symmetry_1
_geom_angle_site_symmetry_3
As2 La As2 55.963(5) 3 1_545
As2 La As2 83.140(8) 3 3_655
As2 La As2 55.963(5) 1_545 3_655
As2 La As2 55.963(5) 3 .
As2 La As2 83.140(8) 1_545 .
As2 La As2 55.963(5) 3_655 .
As2 La As1 135.367(9) 3 25
As2 La As1 135.367(9) 1_545 25
As2 La As1 80.742(10) 3_655 25
As2 La As1 80.742(10) . 25
As2 La As1 80.742(10) 3 25_445
As2 La As1 80.742(10) 1_545 25_445
As2 La As1 135.367(9) 3_655 25_445
As2 La As1 135.367(9) . 25_445
As1 La As1 136.81(2) 25 25_445
As2 La As1 80.742(10) 3 25_455
As2 La As1 135.367(9) 1_545 25_455
As2 La As1 135.367(9) 3_655 25_455
As2 La As1 80.742(10) . 25_455
As1 La As1 82.214(8) 25 25_455
As1 La As1 82.214(8) 25_445 25_455
As2 La As1 135.367(9) 3 25_545
As2 La As1 80.742(10) 1_545 25_545
As2 La As1 80.742(10) 3_655 25_545
As2 La As1 135.367(9) . 25_545
As1 La As1 82.214(8) 25 25_545
As1 La As1 82.214(8) 25_445 25_545
As1 La As1 136.81(2) 25_455 25_545
As2 La Ag 127.423(3) 3 .
As2 La Ag 174.112(7) 1_545 .
As2 La Ag 127.423(3) 3_655 .
As2 La Ag 102.748(4) . .
As1 La Ag 46.964(9) 25 .
As1 La Ag 94.849(12) 25_445 .
As1 La Ag 46.964(9) 25_455 .
As1 La Ag 94.848(12) 25_545 .
As2 La Ag 174.112(7) 3 25
As2 La Ag 127.423(3) 1_545 25
As2 La Ag 102.748(4) 3_655 25
As2 La Ag 127.423(3) . 25
As1 La Ag 46.964(9) 25 25
As1 La Ag 94.849(12) 25_445 25
As1 La Ag 94.848(12) 25_455 25
As1 La Ag 46.964(9) 25_545 25
Ag La Ag 48.717(4) . 25
As2 La Zn 174.112(7) 3 25
As2 La Zn 127.423(3) 1_545 25
As2 La Zn 102.748(4) 3_655 25
As2 La Zn 127.423(3) . 25
As1 La Zn 46.964(9) 25 25
As1 La Zn 94.849(12) 25_445 25
As1 La Zn 94.848(12) 25_455 25
As1 La Zn 46.964(9) 25_545 25
Ag La Zn 48.717(4) . 25
Ag La Zn 0.0 25 25
As1 Ag As1 114.173(11) . 25_455
As1 Ag As1 100.43(2) . 1_565
As1 Ag As1 114.173(11) 25_455 1_565
As1 Ag As1 114.173(11) . 25
As1 Ag As1 100.43(2) 25_455 25
As1 Ag As1 114.173(11) 1_565 25
As1 Ag Zn 122.914(6) . 25_565
As1 Ag Zn 122.913(6) 25_455 25_565
As1 Ag Zn 57.087(6) 1_565 25_565
As1 Ag Zn 57.087(6) 25 25_565
As1 Ag Zn 57.087(6) . 25_455
As1 Ag Zn 57.087(6) 25_455 25_455
As1 Ag Zn 122.913(6) 1_565 25_455
As1 Ag Zn 122.913(6) 25 25_455
Zn Ag Zn 180.0 25_565 25_455
As1 Ag Ag 57.087(6) . 25_455
As1 Ag Ag 57.087(6) 25_455 25_455
As1 Ag Ag 122.913(6) 1_565 25_455
As1 Ag Ag 122.913(6) 25 25_455
Zn Ag Ag 180.0 25_565 25_455
Zn Ag Ag 0.0 25_455 25_455
As1 Ag Ag 122.914(6) . 25_565
As1 Ag Ag 122.913(6) 25_455 25_565
As1 Ag Ag 57.087(6) 1_565 25_565
As1 Ag Ag 57.087(6) 25 25_565
Zn Ag Ag 0.0 25_565 25_565
Zn Ag Ag 180.0 25_455 25_565
Ag Ag Ag 180.0 25_455 25_565
As1 Ag Zn 122.914(6) . 25_465
As1 Ag Zn 57.087(6) 25_455 25_465
As1 Ag Zn 57.087(6) 1_565 25_465
As1 Ag Zn 122.913(6) 25 25_465
Zn Ag Zn 90.0 25_565 25_465
Zn Ag Zn 90.0 25_455 25_465
Ag Ag Zn 90.0 25_455 25_465
Ag Ag Zn 90.0 25_565 25_465
As1 Ag Ag 122.914(6) . 25_465
As1 Ag Ag 57.087(6) 25_455 25_465
As1 Ag Ag 57.087(6) 1_565 25_465
As1 Ag Ag 122.913(6) 25 25_465
Zn Ag Ag 90.0 25_565 25_465
Zn Ag Ag 90.0 25_455 25_465
Ag Ag Ag 90.0 25_455 25_465
Ag Ag Ag 90.0 25_565 25_465
Zn Ag Ag 0.0 25_465 25_465
As1 Ag Ag 57.086(6) . 25
As1 Ag Ag 122.913(6) 25_455 25
As1 Ag Ag 122.913(6) 1_565 25
As1 Ag Ag 57.087(6) 25 25
Zn Ag Ag 90.0 25_565 25
Zn Ag Ag 90.0 25_455 25
Ag Ag Ag 90.0 25_455 25
Ag Ag Ag 90.0 25_565 25
Zn Ag Ag 180.0 25_465 25
Ag Ag Ag 180.0 25_465 25
As1 Ag Zn 57.086(6) . 25
As1 Ag Zn 122.913(6) 25_455 25
As1 Ag Zn 122.913(6) 1_565 25
As1 Ag Zn 57.087(6) 25 25
Zn Ag Zn 90.0 25_565 25
Zn Ag Zn 90.0 25_455 25
Ag Ag Zn 90.0 25_455 25
Ag Ag Zn 90.0 25_565 25
Zn Ag Zn 180.0 25_465 25
Ag Ag Zn 180.0 25_465 25
Ag Ag Zn 0.0 25 25
Zn As1 Zn 65.827(11) 25_455 1_545
Zn As1 Ag 0.0 25_455 25_455
Zn As1 Ag 65.827(11) 1_545 25_455
Zn As1 Ag 65.827(11) 25_455 1_545
Zn As1 Ag 0.0 1_545 1_545
Ag As1 Ag 65.827(11) 25_455 1_545
Zn As1 Zn 100.43(2) 25_455 25
Zn As1 Zn 65.827(11) 1_545 25
Ag As1 Zn 100.43(2) 25_455 25
Ag As1 Zn 65.827(11) 1_545 25
Zn As1 Ag 65.827(11) 25_455 .
Zn As1 Ag 100.43(2) 1_545 .
Ag As1 Ag 65.827(11) 25_455 .
Ag As1 Ag 100.43(2) 1_545 .
Zn As1 Ag 65.827(11) 25 .
Zn As1 Ag 100.43(2) 25_455 25
Zn As1 Ag 65.827(11) 1_545 25
Ag As1 Ag 100.43(2) 25_455 25
Ag As1 Ag 65.827(11) 1_545 25
Zn As1 Ag 0.0 25 25
Ag As1 Ag 65.827(11) . 25
Zn As1 La 137.796(9) 25_455 25
Zn As1 La 137.796(9) 1_545 25
Ag As1 La 137.796(9) 25_455 25
Ag As1 La 137.796(9) 1_545 25
Zn As1 La 74.354(5) 25 25
Ag As1 La 74.354(5) . 25
Ag As1 La 74.354(5) 25 25
Zn As1 La 74.354(5) 25_455 25_445
Zn As1 La 74.354(5) 1_545 25_445
Ag As1 La 74.354(5) 25_455 25_445
Ag As1 La 74.354(5) 1_545 25_445
Zn As1 La 137.796(9) 25 25_445
Ag As1 La 137.796(9) . 25_445
Ag As1 La 137.796(9) 25 25_445
La As1 La 136.81(2) 25 25_445
Zn As1 La 74.354(5) 25_455 25_455
Zn As1 La 137.796(9) 1_545 25_455
Ag As1 La 74.354(5) 25_455 25_455
Ag As1 La 137.796(9) 1_545 25_455
Zn As1 La 137.796(9) 25 25_455
Ag As1 La 74.354(5) . 25_455
Ag As1 La 137.796(9) 25 25_455
La As1 La 82.214(8) 25 25_455
La As1 La 82.214(8) 25_445 25_455
Zn As1 La 137.796(9) 25_455 25_545
Zn As1 La 74.354(5) 1_545 25_545
Ag As1 La 137.796(9) 25_455 25_545
Ag As1 La 74.354(5) 1_545 25_545
Zn As1 La 74.354(5) 25 25_545
Ag As1 La 137.796(9) . 25_545
Ag As1 La 74.354(5) 25 25_545
La As1 La 82.214(8) 25 25_545
La As1 La 82.214(8) 25_445 25_545
La As1 La 136.81(2) 25_455 25_545
La As2 La 96.861(8) . 17
La As2 La 83.139(9) . 1_565
La As2 La 180.0 17 1_565
La As2 La 180.0 . 17_565
La As2 La 83.139(8) 17 17_565
La As2 La 96.861(8) 1_565 17_565
loop_
_geom_bond_atom_site_label_1
_geom_bond_atom_site_label_2
_geom_bond_distance
_geom_bond_site_symmetry_2
La As2 3.1121(3) 3
La As2 3.1121(3) 1_545
La As2 3.1121(3) 3_655
La As2 3.1121(3) .
La As1 3.1408(3) 25
La As1 3.1408(3) 25_445
La As1 3.1408(3) 25_455
La As1 3.1408(3) 25_545
La Ag 3.5403(3) .
La Ag 3.5403(3) 25
La Zn 3.5403(3) 25
Ag As1 2.6872(4) .
Ag As1 2.6873(4) 25_455
Ag As1 2.6873(4) 1_565
Ag As1 2.6873(4) 25
Ag Zn 2.92035(14) 25_565
Ag Zn 2.92035(14) 25_455
Ag Ag 2.92035(14) 25_455
Ag Ag 2.92035(14) 25_565
Ag Zn 2.92035(14) 25_465
Ag Ag 2.92035(14) 25_465
Ag Ag 2.92035(14) 25
Ag Zn 2.92035(14) 25
As1 Zn 2.6872(4) 25_455
As1 Zn 2.6872(4) 1_545
As1 Ag 2.6872(4) 25_455
As1 Ag 2.6872(4) 1_545
As1 Zn 2.6872(4) 25
As1 Ag 2.6872(4) 25
As1 La 3.1408(3) 25
As1 La 3.1408(3) 25_445
As1 La 3.1408(3) 25_455
As1 La 3.1408(3) 25_545
As2 La 3.1122(3) 17
As2 La 3.1122(3) 1_565
As2 La 3.1121(3) 17_565
