#------------------------------------------------------------------------------
#$Date: 2021-04-22 11:32:30 +0300 (Thu, 22 Apr 2021) $
#$Revision: 264397 $
#$URL: file:///home/coder/svn-repositories/cod/cif/1/56/19/1561983.cif $
#------------------------------------------------------------------------------
#
# This file is available in the Crystallography Open Database (COD),
# http://www.crystallography.net/
#
# All data on this site have been placed in the public domain by the
# contributors.
#
data_1561983
loop_
_publ_author_name
'Ward, Matthew D.'
'Lee, Minseong'
'Choi, Eun Sang'
'Ibers, James A.'
_publ_section_title
;
 Synthesis and characterization of the quaternary scandium uranium
 selenide CsScUSe3(Se2)
;
_journal_name_full               'Journal of Solid State Chemistry'
_journal_page_first              307
_journal_page_last               311
_journal_paper_doi               10.1016/j.jssc.2015.03.011
_journal_volume                  226
_journal_year                    2015
_chemical_formula_moiety         'Cs Sc Se5 U'
_chemical_formula_sum            'Cs Sc Se5 U'
_chemical_formula_weight         810.70
_space_group_crystal_system      orthorhombic
_space_group_IT_number           63
_space_group_name_Hall           '-C 2c 2'
_space_group_name_H-M_alt        'C m c m'
_atom_sites_solution_hydrogens   .
_cell_angle_alpha                90
_cell_angle_beta                 90
_cell_angle_gamma                90
_cell_formula_units_Z            4
_cell_length_a                   4.0080(2)
_cell_length_b                   21.3652(8)
_cell_length_c                   10.6229(4)
_cell_measurement_reflns_used    943
_cell_measurement_temperature    100(2)
_cell_measurement_theta_max      32.14
_cell_measurement_theta_min      2.70
_cell_volume                     909.66(7)
_computing_cell_refinement       'Bruker SAINT'
_computing_data_collection       'Bruker APEX2'
_computing_data_reduction        'Bruker SAINT'
_computing_molecular_graphics    'Crystalmaker (Palmer, 2013)'
_computing_publication_material  'SHELXL-2014 (Sheldrick, 2014)'
_computing_structure_refinement  'SHELXL-2014 (Sheldrick, 2014)'
_computing_structure_solution    'SHELXS-2014 (Sheldrick, 2014)'
_diffrn_ambient_temperature      100(2)
_diffrn_measured_fraction_theta_full 0.998
_diffrn_measured_fraction_theta_max 0.994
_diffrn_measurement_device_type  'Bruker APEX-II CCD'
_diffrn_measurement_method       '\f and \w scans'
_diffrn_radiation_type           MoK\a
_diffrn_radiation_wavelength     0.71073
_diffrn_reflns_av_unetI/netI     0.0395
_diffrn_reflns_Laue_measured_fraction_full 0.998
_diffrn_reflns_Laue_measured_fraction_max 0.994
_diffrn_reflns_limit_h_max       6
_diffrn_reflns_limit_h_min       0
_diffrn_reflns_limit_k_max       32
_diffrn_reflns_limit_k_min       0
_diffrn_reflns_limit_l_max       16
_diffrn_reflns_limit_l_min       0
_diffrn_reflns_number            1067
_diffrn_reflns_point_group_measured_fraction_full 0.998
_diffrn_reflns_point_group_measured_fraction_max 0.994
_diffrn_reflns_theta_full        25.242
_diffrn_reflns_theta_max         33.270
_diffrn_reflns_theta_min         2.704
_exptl_absorpt_coefficient_mu    42.385
_exptl_absorpt_correction_T_max  0.435324
_exptl_absorpt_correction_T_min  0.212800
_exptl_absorpt_correction_type   numerical
_exptl_absorpt_process_details   'TWINABS (Sheldrick, 2008)'
_exptl_crystal_colour            Black
_exptl_crystal_density_diffrn    5.920
_exptl_crystal_description       Plate
_exptl_crystal_F_000             1352
_exptl_crystal_size_max          0.120
_exptl_crystal_size_mid          0.042
_exptl_crystal_size_min          0.021
_refine_diff_density_max         7.655
_refine_diff_density_min         -3.551
_refine_diff_density_rms         0.653
_refine_ls_extinction_coef       .
_refine_ls_extinction_method     none
_refine_ls_goodness_of_fit_ref   1.140
_refine_ls_hydrogen_treatment    undef
_refine_ls_matrix_type           full
_refine_ls_number_parameters     30
_refine_ls_number_reflns         1067
_refine_ls_number_restraints     0
_refine_ls_restrained_S_all      1.140
_refine_ls_R_factor_all          0.0564
_refine_ls_R_factor_gt           0.0437
_refine_ls_shift/su_max          0.000
_refine_ls_shift/su_mean         0.000
_refine_ls_structure_factor_coef Fsqd
_refine_ls_weighting_details
'w=1/[\s^2^(Fo^2^)+(0.0745P)^2^] where P=(1.0000Fo^2^+0.0000Fc^2^)'
_refine_ls_weighting_scheme      calc
_refine_ls_wR_factor_gt          0.1077
_refine_ls_wR_factor_ref         0.1165
_reflns_Friedel_coverage         0.000
_reflns_Friedel_fraction_full    .
_reflns_Friedel_fraction_max     .
_reflns_number_gt                900
_reflns_number_total             1067
_reflns_threshold_expression     'I > 2\s(I)'
_cod_data_source_file            JSSC-2015-226-307.cif
_cod_data_source_block           CsScUSe5
_cod_database_code               1561983
_shelx_space_group_comment
;
The symmetry employed for this shelxl refinement is uniquely defined
by the following loop, which should always be used as a source of
symmetry information in preference to the above space-group names.
They are only intended as comments.
;
_shelxl_version_number           2014-1
_shelx_res_file
;
TITL CsUScSe5 in Cmcm
CELL 0.71073   4.0080  21.3652  10.6229  90.000  90.000  90.000
ZERR    4.00   0.0002   0.0008   0.0004   0.000   0.000   0.000
LATT  7
SYMM -X, -Y, 0.5+Z
SYMM -X, Y, 0.5-Z
SYMM X, -Y, -Z
SFAC SC SE CS U
UNIT 4 20 4 4
TEMP -173.160

L.S. 4
BOND
FMAP 2
PLAN 20
ACTA

WGHT    0.074500    0.000000    0.000000    0.000000    0.000000    1.000000
BASF   0.21275
FVAR       0.11375
U1    4    0.000000    0.618760    0.250000    10.25000    0.01110    0.01295 =
         0.00795    0.00000    0.00000    0.00000
CS1   3    0.000000    0.839669    0.250000    10.25000    0.01978    0.01642 =
         0.01258    0.00000    0.00000    0.00000
SE1   2    0.000000    0.202462    0.138686    10.50000    0.01337    0.01490 =
         0.00767    0.00084    0.00000    0.00000
SE2   2    0.000000    0.414705    0.015085    10.50000    0.01248    0.01308 =
         0.00700    0.00007    0.00000    0.00000
SE3   2    0.000000    0.020465    0.250000    10.25000    0.01276    0.01386 =
         0.00681    0.00000    0.00000    0.00000
SC1   1    0.000000    0.000000    0.000000    10.25000    0.00313    0.00518 =
         0.00140   -0.00013    0.00000    0.00000
HKLF 5

REM  CsUScSe5 in Cmcm
REM R1 =  0.0437 for     900 Fo > 4sig(Fo)  and  0.0564 for all    1067 data
REM     30 parameters refined using      0 restraints

END

WGHT      0.0737     18.9530

REM Highest difference peak  7.655,  deepest hole -3.551,  1-sigma level  0.653
Q1    1   0.0000  0.5827  0.2500  10.25000  0.05    7.65
Q2    1   0.0000  0.6515  0.2500  10.25000  0.05    6.61
Q3    1   0.0000  0.8784  0.2500  10.25000  0.05    4.71
Q4    1   0.0000 -0.0192  0.0033  10.50000  0.05    4.43
Q5    1   0.0000  0.2369  0.1397  10.50000  0.05    4.04
Q6    1   0.0000  0.8038  0.2500  10.25000  0.05    3.99
Q7    1   0.0000  0.4521  0.0115  10.50000  0.05    3.57
Q8    1   0.0000  0.1684  0.1333  10.50000  0.05    3.36
Q9    1   0.0000  0.0538  0.2500  10.25000  0.05    3.17
Q10   1   0.0000  0.3825  0.0114  10.50000  0.05    2.99
Q11   1   0.0000 -0.0139  0.2500  10.25000  0.05    2.97
Q12   1   0.0000  0.7665  0.2500  10.25000  0.05    2.64
Q13   1   0.0000  0.6860  0.2500  10.25000  0.05    2.42
Q14   1  -0.5000  0.6163  0.2500  10.25000  0.05    2.21
Q15   1  -0.2029  0.6192  0.2500  10.50000  0.05    2.09
Q16   1   0.0000  0.5939  0.3416  10.50000  0.05    1.91
Q17   1   0.0000  0.1415  0.1218  10.50000  0.05    1.75
Q18   1   0.0000 -0.0502  0.2684  10.50000  0.05    1.55
Q19   1   0.3831  0.2114  0.1978  11.00000  0.05    1.53
Q20   1  -0.5000  0.0119  0.2500  10.25000  0.05    1.48
;
_shelx_res_checksum              21458
_shelx_hkl_file
;
   2   0   0 9999.99 314.622  -2
   2   0   0 9999.99 314.622   1
   4   0   0 3944.04 130.752  -2
   4   0   0 3944.04 130.752   1
   6   0   0 1397.75 77.4695  -2
   6   0   0 1397.75 77.4695   1
   1   1   0 40.2872 2.00883  -2
   1   1   0 40.2872 2.00883   1
   3   1   0 28.4940 4.49384  -2
   3   1   0 28.4940 4.49384   1
   5   1   0 26.1375 7.56483  -2
   5   1   0 26.1375 7.56483   1
   2   2   0 35.1153 3.30163  -2
   2   2   0 35.1153 3.30163   1
   4   2   0 5.54109 6.77926  -2
   4   2   0 5.54109 6.77926   1
   6   2   0 15.1338 10.9276  -2
   6   2   0 15.1338 10.9276   1
   1   3   0 2.54573 6.36498  -2
   1   3   0 2.54573 6.36498   1
   3   3   0 3.47863 4.65589  -2
   3   3   0 3.47863 4.65589   1
   5   3   0 11.6768 9.23573  -2
   5   3   0 11.6768 9.23573   1
   0   4   0 819.263 38.0791   1
   2   4   0 529.436 11.1803  -2
   2   4   0 529.436 11.1803   1
   4   4   0 222.434 11.4453  -2
   4   4   0 222.434 11.4453   1
   6   4   0 64.1146 12.2661  -2
   6   4   0 64.1146 12.2661   1
   1   5   0 8683.71 408.102  -2
   1   5   0 8683.71 408.102   1
   3   5   0 3769.65 65.5918  -2
   3   5   0 3769.65 65.5918   1
   5   5   0 1305.15 47.8383  -2
   5   5   0 1305.15 47.8383   1
   0   6   0 85.3170 7.40903   1
   2   6   0 39.4631 6.56681  -2
   2   6   0 39.4631 6.56681   1
   4   6   0 -4.5212 9.60761  -2
   4   6   0 -4.5212 9.60761   1
   6   6   0 5.82303 14.3082  -2
   6   6   0 5.82303 14.3082   1
   1   7   0 125.153 5.40696   1
   3   7   0 51.0213 5.48993  -2
   3   7   0 51.0213 5.48993   1
   5   7   0 7.77853 12.2585  -2
   5   7   0 7.77853 12.2585   1
   0   8   0 105.423 8.76616   1
   2   8   0 82.5793 2.51474   1
   4   8   0 25.3290 14.3589  -2
   4   8   0 25.3290 14.3589   1
   1   9   0 382.343 9.65183   1
   3   9   0 175.182 4.24781   1
   5   9   0 62.6010 17.8311  -2
   5   9   0 62.6010 17.8311   1
   0  10   0 1507.97 70.6540   1
   2  10   0 850.215 13.8959   1
   4  10   0 423.169 27.6347  -2
   4  10   0 423.169 27.6347   1
   1  11   0 5.23454 2.58259   1
   3  11   0 4.68298 2.25392   1
   5  11   0 2.32807 5.59816   1
   0  12   0 5.22308 3.11396   1
   2  12   0 3.27774 2.06405   1
   4  12   0 0.59863 3.21207   1
   1  13   0 127.081 5.15998   1
   3  13   0 77.4709 3.42365   1
   5  13   0 46.8833 5.41443   1
   0  14   0 44.1505 4.32403   1
   2  14   0 28.0733 2.81675   1
   4  14   0 5.08784 4.20827   1
   1  15   0 32.3339 2.74990   1
   3  15   0 24.6074 3.29604   1
   5  15   0 -2.6809 5.81397   1
   0  16   0 9.36935 3.34386   1
   2  16   0 12.1643 2.84540   1
   4  16   0 6.60137 3.90160   1
   1  17   0 293.908 6.34054   1
   3  17   0 190.673 6.71074   1
   5  17   0 74.5630 9.47203   1
   0  18   0 1.91578 3.23778   1
   2  18   0 2.06624 3.38691   1
   4  18   0 1.87981 4.60056   1
   1  19   0 532.107 9.96379   1
   3  19   0 293.548 9.21877   1
   5  19   0 132.067 11.6956   1
   0  20   0 4.28435 3.92631   1
   2  20   0 1.83212 3.68727   1
   4  20   0 2.01804 5.04838   1
   1  21   0 23.9056 3.41344   1
   3  21   0 25.2821 5.44281   1
   0  22   0 497.284 13.8580   1
   2  22   0 380.393 10.4525   1
   4  22   0 183.786 9.10566   1
   1  23   1 342.554 25.8658  -2
   1  23   0 342.554 25.8658   1
   3  23   0 180.245 9.09803   1
   0  24   1 635.896 25.5842  -2
   0  24   0 635.896 25.5842   1
   2  24   1 473.492 29.6354  -2
   2  24   0 473.492 29.6354   1
   4  24   0 218.809 9.96927   1
   1  25   1 8.66736 14.8740  -2
   1  25   0 8.66736 14.8740   1
   3  25   1 22.3290 11.3732  -2
   3  25   0 22.3290 11.3732   1
   0  26   0 195.653 12.2660   1
   2  26   1 156.310 19.5471  -2
   2  26   0 156.310 19.5471   1
   1  27   1 222.240 20.8852  -2
   1  27   0 222.240 20.8852   1
   3  27   1 103.036 13.0124  -2
   3  27   0 103.036 13.0124   1
   0  28   0 388.081 17.5219   1
   2  28   1 353.679 14.9722  -2
   2  28   0 353.679 14.9722   1
   1  29   1 308.558 13.9880  -2
   1  29   0 308.558 13.9880   1
   0  30   1 59.9797 11.7879  -2
   0  30   0 59.9797 11.7879   1
   2  30   1 42.1005 8.64042  -2
   2  30   0 42.1005 8.64042   1
   1  31   1 159.571 11.3929  -2
   1  31   0 159.571 11.3929   1
   0  32   1 20.4642 15.5321  -2
   0  32   0 20.4642 15.5321   1
   0   0   1 -0.4221 0.53856   1
   2   0   1 -0.8156 2.05386   1
   4   0   1 3.29907 4.76722   1
   6   0   1 -11.806 7.61862   1
   1   1   1 323.063 15.9594  -2
   1   1   1 323.063 15.9594   1
   3   1   1 121.807 3.92910  -2
   3   1   1 121.807 3.92910   1
   5   1   1 34.5566 5.86256  -2
   5   1   1 34.5566 5.86256   1
   0   2   1 680.235 22.1870   1
   2   2   1 512.890 9.18831  -2
   2   2   1 512.890 9.18831   1
   4   2   1 227.520 7.10465  -2
   4   2   1 227.520 7.10465   1
   6   2   1 96.9656 7.75939  -2
   6   2   1 96.9656 7.75939   1
   1   3   1 983.823 48.2564  -2
   1   3   1 983.823 48.2564   1
   3   3   1 426.367 7.52199  -2
   3   3   1 426.367 7.52199   1
   5   3   1 160.789 8.03212  -2
   5   3   1 160.789 8.03212   1
   0   4   1 39.2225 3.25927   1
   2   4   1 23.0923 2.44189  -2
   2   4   1 23.0923 2.44189   1
   4   4   1 5.15498 4.79216  -2
   4   4   1 5.15498 4.79216   1
   6   4   1 -7.9387 9.17512  -2
   6   4   1 -7.9387 9.17512   1
   1   5   1 1887.76 63.9192  -2
   1   5   1 1887.76 63.9192   1
   3   5   1 766.942 12.0733  -2
   3   5   1 766.942 12.0733   1
   5   5   1 264.247 12.1446  -2
   5   5   1 264.247 12.1446   1
   0   6   1 8.27788 3.29489   1
   2   6   1 0.23136 3.65944  -2
   2   6   1 0.23136 3.65944   1
   4   6   1 -11.407 5.78951  -2
   4   6   1 -11.407 5.78951   1
   6   6   1 3.65166 11.3634  -2
   6   6   1 3.65166 11.3634   1
   1   7   1 659.907 13.3097   1
   3   7   1 403.620 7.83910  -2
   3   7   1 403.620 7.83910   1
   5   7   1 154.898 14.7892  -2
   5   7   1 154.898 14.7892   1
   0   8   1 620.410 21.5297   1
   2   8   1 340.513 4.23236   1
   4   8   1 160.476 12.9456  -2
   4   8   1 160.476 12.9456   1
   1   9   1 453.775 7.92587   1
   3   9   1 260.092 18.9903  -2
   3   9   1 260.092 18.9903   1
   5   9   1 74.9181 17.8821  -2
   5   9   1 74.9181 17.8821   1
   0  10   1 1975.34 64.8396   1
   2  10   1 1206.59 12.4251   1
   4  10   1 607.216 34.5847  -2
   4  10   1 607.216 34.5847   1
   1  11   1 176.779 4.13414   1
   3  11   1 75.6249 2.21024   1
   5  11   1 28.8554 18.4008  -2
   5  11   1 28.8554 18.4008   1
   0  12   1 916.666 17.2855   1
   2  12   1 600.022 7.19162   1
   4  12   1 259.144 5.11668   1
   1  13   1 2.73948 1.75609   1
   3  13   1 -1.5126 1.82445   1
   5  13   1 -7.5815 3.38721   1
   0  14   1 1105.26 20.7590   1
   2  14   1 735.168 9.39504   1
   4  14   1 349.188 6.97473   1
   1  15   1 494.892 6.36194   1
   3  15   1 294.355 4.98240   1
   5  15   1 131.495 6.20451   1
   0  16   1 96.7060 3.60461   1
   2  16   1 70.3163 2.77630   1
   4  16   1 18.3784 3.09602   1
   1  17   1 271.880 4.25817   1
   3  17   1 151.246 4.26829   1
   5  17   1 41.4891 5.40054   1
   0  18   1 265.780 5.36883   1
   2  18   1 192.338 4.29774   1
   4  18   1 104.361 4.73401   1
   1  19   1 480.917 6.51267   1
   3  19   1 297.220 6.24232   1
   5  19   1 131.414 8.20698   1
   0  20   1 91.2216 4.04983   1
   2  20   1 67.3923 3.38156   1
   4  20   1 38.9237 3.97934   1
   1  21   1 5.92732 2.25467   1
   3  21   1 3.74968 3.41985   1
   0  22   1 -3.0425 3.07679   1
   2  22   1 0.90943 2.90898   1
   4  22   0 40.9937 15.4636  -2
   4  22   1 40.9937 15.4636   1
   1  23   1 200.753 4.65714   1
   3  23   0 147.932 17.7079  -2
   3  23   1 147.932 17.7079   1
   0  24   0 217.111 14.4411  -2
   0  24   1 217.111 14.4411   1
   0  24   2 99.8936 17.5350  -2
   0  24   1 99.8936 17.5350   1
   2  24   0 196.159 11.1334  -2
   2  24   1 196.159 11.1334   1
   4  24   0 87.6570 16.5705  -2
   4  24   1 87.6570 16.5705   1
   1  25   0 30.1833 10.6247  -2
   1  25   1 30.1833 10.6247   1
   3  25   0 17.8001 15.6420  -2
   3  25   1 17.8001 15.6420   1
   0  26   0 49.1364 11.1448  -2
   0  26   1 49.1364 11.1448   1
   2  26   0 53.7871 9.22383  -2
   2  26   1 53.7871 9.22383   1
   1  27   0 267.150 13.1082  -2
   1  27   1 267.150 13.1082   1
   1  27   2 319.030 24.4411  -2
   1  27   1 319.030 24.4411   1
   3  27   0 180.295 19.4939  -2
   3  27   1 180.295 19.4939   1
   0  28   0 115.217 18.2581  -2
   0  28   1 115.217 18.2581   1
   2  28   0 94.3579 9.92582  -2
   2  28   1 94.3579 9.92582   1
   2  28   2 54.9705 16.6076  -2
   2  28   1 54.9705 16.6076   1
   1  29   0 93.2927 9.95089  -2
   1  29   1 93.2927 9.95089   1
   1  29   2 19.6939 11.3266  -2
   1  29   1 19.6939 11.3266   1
   0  30   2 0.84746 14.8804  -2
   0  30   1 0.84746 14.8804   1
   0  30   0 20.1116 11.0756  -2
   0  30   1 20.1116 11.0756   1
   2  30   2 9.17380 9.39914  -2
   2  30   1 9.17380 9.39914   1
   2  30   0 29.1547 8.18775  -2
   2  30   1 29.1547 8.18775   1
   1  31   0 148.490 9.49965  -2
   1  31   1 148.490 9.49965   1
   1  31   2 97.8208 10.4136  -2
   1  31   1 97.8208 10.4136   1
   0  32   0 174.842 20.0304  -2
   0  32   1 174.842 20.0304   1
   0   0   2 1489.55 70.0534   1
   2   0   2 881.026 19.5394  -2
   2   0   2 881.026 19.5394   1
   4   0   2 303.142 10.5930  -2
   4   0   2 303.142 10.5930   1
   6   0   2 92.5984 10.0659  -2
   6   0   2 92.5984 10.0659   1
   1   1   2 235.361 8.83414  -2
   1   1   2 235.361 8.83414   1
   3   1   2 65.7430 2.95228  -2
   3   1   2 65.7430 2.95228   1
   5   1   2 17.1998 5.08832  -2
   5   1   2 17.1998 5.08832   1
   0   2   2 374.864 12.9422   1
   2   2   2 208.635 4.68734  -2
   2   2   2 208.635 4.68734   1
   4   2   2 62.4403 5.19940  -2
   4   2   2 62.4403 5.19940   1
   6   2   2 4.15667 6.30317  -2
   6   2   2 4.15667 6.30317   1
   1   3   2 6.30629 6.31835  -2
   1   3   2 6.30629 6.31835   1
   3   3   2 5.68200 2.68854  -2
   3   3   2 5.68200 2.68854   1
   5   3   2 10.2941 5.98085  -2
   5   3   2 10.2941 5.98085   1
   0   4   2 596.144 20.0971   1
   2   4   2 441.283 8.37957  -2
   2   4   2 441.283 8.37957   1
   4   4   2 157.776 6.85636  -2
   4   4   2 157.776 6.85636   1
   6   4   2 64.5785 7.79542  -2
   6   4   2 64.5785 7.79542   1
   1   5   2 231.532 14.1672  -2
   1   5   2 231.532 14.1672   1
   3   5   2 109.980 3.99569  -2
   3   5   2 109.980 3.99569   1
   5   5   2 40.2062 6.92265  -2
   5   5   2 40.2062 6.92265   1
   0   6   2 1152.74 38.0375   1
   2   6   2 793.481 23.3731  -2
   2   6   2 793.481 23.3731   1
   4   6   2 266.952 9.65011  -2
   4   6   2 266.952 9.65011   1
   6   6   2 47.0640 11.2851  -2
   6   6   2 47.0640 11.2851   1
   1   7   2 412.407 8.78981   1
   3   7   2 233.309 7.01870  -2
   3   7   2 233.309 7.01870   1
   5   7   2 105.991 13.6350  -2
   5   7   2 105.991 13.6350   1
   0   8   2 681.806 23.5381   1
   2   8   2 416.275 5.03064   1
   4   8   2 228.135 11.8212  -2
   4   8   2 228.135 11.8212   1
   1   9   2 1101.51 17.1262   1
   3   9   2 645.718 34.6824  -2
   3   9   2 645.718 34.6824   1
   5   9   2 205.149 21.6650  -2
   5   9   2 205.149 21.6650   1
   0  10   2 195.417 9.03534   1
   2  10   2 120.533 2.17735   1
   4  10   2 46.9592 15.6360  -2
   4  10   2 46.9592 15.6360   1
   1  11   2 410.746 7.21995   1
   3  11   2 200.477 3.35720   1
   5  11   2 54.4304 19.2275  -2
   5  11   2 54.4304 19.2275   1
   0  12   2 1064.00 19.8919   1
   2  12   2 715.612 8.41906   1
   4  12   2 336.032 6.27911   1
   1  13   2 1090.52 14.4292   1
   3  13   2 599.600 7.83942   1
   5  13   2 229.806 6.29530   1
   0  14   2 431.542 9.22739   1
   2  14   2 286.896 4.35830   1
   4  14   2 145.962 4.63156   1
   1  15   2 372.550 5.07896   1
   3  15   2 198.818 4.27336   1
   5  15   2 82.6359 5.25686   1
   0  16   2 47.2909 2.90514   1
   2  16   2 38.5378 2.17668   1
   4  16   2 26.7379 3.10124   1
   1  17   2 1541.37 16.9183   1
   3  17   2 924.507 12.8066   1
   5  17   2 370.236 11.1029   1
   0  18   2 416.380 7.26139   1
   2  18   2 312.446 5.58306   1
   4  18   2 158.499 5.17547   1
   1  19   2 42.5181 2.43829   1
   3  19   2 21.1862 3.06438   1
   0  20   2 148.219 4.88746   1
   2  20   2 114.402 3.77881   1
   4  20   2 64.4263 4.37052   1
   1  21   2 13.5029 2.44691   1
   3  21   2 17.9184 3.42533   1
   0  22   2 1224.08 20.4987   1
   2  22   2 912.874 14.8755   1
   4  22   1 446.805 27.9773  -2
   4  22   2 446.805 27.9773   1
   1  23   2 -5.6327 2.48799   1
   3  23   1 35.7121 14.5232  -2
   3  23   2 35.7121 14.5232   1
   0  24   1 30.1211 14.9974  -2
   0  24   2 30.1211 14.9974   1
   2  24   1 36.4513 10.6787  -2
   2  24   2 36.4513 10.6787   1
   4  24   1 20.4262 15.2629  -2
   4  24   2 20.4262 15.2629   1
   1  25   1 23.9145 8.94128  -2
   1  25   2 23.9145 8.94128   1
   3  25   1 19.8368 15.2691  -2
   3  25   2 19.8368 15.2691   1
   0  26   1 41.8827 16.8036  -2
   0  26   2 41.8827 16.8036   1
   2  26   1 18.0744 8.92931  -2
   2  26   2 18.0744 8.92931   1
   1  27   1 278.820 13.4010  -2
   1  27   2 278.820 13.4010   1
   3  27   1 179.971 18.8390  -2
   3  27   2 179.971 18.8390   1
   0  28   1 147.686 20.0017  -2
   0  28   2 147.686 20.0017   1
   2  28   1 101.125 12.6192  -2
   2  28   2 101.125 12.6192   1
   1  29   1 36.2575 9.37984  -2
   1  29   2 36.2575 9.37984   1
   0  30   1 29.8872 12.3761  -2
   0  30   2 29.8872 12.3761   1
   2  30   1 12.7459 11.4575  -2
   2  30   2 12.7459 11.4575   1
   2  30   3 12.6185 11.8082  -2
   2  30   2 12.6185 11.8082   1
   1  31   1 30.3871 8.56536  -2
   1  31   2 30.3871 8.56536   1
   0  32   3 69.2668 18.0432  -2
   0  32   2 69.2668 18.0432   1
   0  32   1 40.2918 17.3439  -2
   0  32   2 40.2918 17.3439   1
   0   0   3 -3.2807 2.54782   1
   2   0   3 -0.4822 1.77035   1
   4   0   3 1.20203 4.90188   1
   6   0   3 -5.1909 7.12900   1
   1   1   3 2126.08 47.1978   1
   3   1   3 1135.20 19.2304  -2
   3   1   3 1135.20 19.2304   1
   5   1   3 347.315 11.3590  -2
   5   1   3 347.315 11.3590   1
   0   2   3 256.474 9.91578   1
   2   2   3 206.031 4.43512  -2
   2   2   3 206.031 4.43512   1
   4   2   3 100.373 5.61581  -2
   4   2   3 100.373 5.61581   1
   6   2   3 41.7152 6.92259  -2
   6   2   3 41.7152 6.92259   1
   1   3   3 331.608 8.15768   1
   3   3   3 207.935 4.23722  -2
   3   3   3 207.935 4.23722   1
   5   3   3 86.6433 7.38233  -2
   5   3   3 86.6433 7.38233   1
   0   4   3 1585.91 51.8078   1
   2   4   3 1181.92 23.2803  -2
   2   4   3 1181.92 23.2803   1
   4   4   3 419.851 11.1727  -2
   4   4   3 419.851 11.1727   1
   6   4   3 126.367 8.64321  -2
   6   4   3 126.367 8.64321   1
   1   5   3 965.768 17.8617   1
   3   5   3 549.342 9.97794  -2
   3   5   3 549.342 9.97794   1
   5   5   3 198.549 9.54407  -2
   5   5   3 198.549 9.54407   1
   0   6   3 670.565 22.9597   1
   2   6   3 397.881 4.71280   1
   4   6   3 229.242 8.11238  -2
   4   6   3 229.242 8.11238   1
   1   7   3 270.463 4.54219   1
   3   7   3 190.511 6.93687  -2
   3   7   3 190.511 6.93687   1
   5   7   3 73.9106 12.4992  -2
   5   7   3 73.9106 12.4992   1
   0   8   3 142.280 7.22506   1
   2   8   3 94.5205 1.91130   1
   4   8   3 26.4771 6.45641  -2
   4   8   3 26.4771 6.45641   1
   1   9   3 54.7162 2.18989   1
   3   9   3 23.5904 1.68685   1
   5   9   3 20.8600 17.7553  -2
   5   9   3 20.8600 17.7553   1
   0  10   3 1073.67 19.9060   1
   2  10   3 686.665 7.98501   1
   4  10   3 397.404 17.6505  -2
   4  10   3 397.404 17.6505   1
   1  11   3 41.4493 2.27983   1
   3  11   3 24.0220 1.91799   1
   5  11   3 -2.7321 18.8634  -2
   5  11   3 -2.7321 18.8634   1
   0  12   3 406.532 8.61426   1
   2  12   3 277.835 4.13677   1
   4  12   3 147.282 4.05571   1
   1  13   3 101.837 2.58957   1
   3  13   3 58.7388 2.62788   1
   5  13   3 17.8715 3.71767   1
   0  14   3 113.894 3.91779   1
   2  14   3 79.3997 2.49884   1
   4  14   3 43.4656 3.37132   1
   1  15   3 163.709 2.93207   1
   3  15   3 115.420 3.51021   1
   5  15   3 56.8292 5.21741   1
   0  16   3 21.0095 2.28652   1
   2  16   3 12.8462 1.97170   1
   4  16   3 10.6815 2.94340   1
   1  17   3 87.6727 2.46634   1
   3  17   3 41.4581 2.87548   1
   5  17   3 6.25527 5.03713   1
   0  18   3 706.651 12.4478   1
   2  18   3 536.630 7.33781   1
   4  18   3 266.553 6.48401   1
   1  19   3 54.2909 2.46868   1
   3  19   3 36.6334 3.36033   1
   0  20   3 2.47780 2.81092   1
   2  20   3 -2.4330 2.55860   1
   4  20   3 5.33973 3.55061   1
   1  21   3 40.0863 2.76564   1
   3  21   3 21.3878 3.56275   1
   0  22   3 97.0872 4.47287   1
   2  22   3 80.9256 3.79895   1
   4  22   2 155.755 17.8471  -2
   4  22   3 155.755 17.8471   1
   1  23   3 575.456 8.70218   1
   3  23   2 313.458 23.0188  -2
   3  23   3 313.458 23.0188   1
   0  24   3 4.61614 3.34586   1
   2  24   2 -14.761 10.5327  -2
   2  24   3 -14.761 10.5327   1
   4  24   2 9.08128 15.4488  -2
   4  24   3 9.08128 15.4488   1
   1  25   2 10.4413 15.9975  -2
   1  25   3 10.4413 15.9975   1
   3  25   2 21.2612 14.5087  -2
   3  25   3 21.2612 14.5087   1
   0  26   3 9.22097 5.08056   1
   2  26   2 -4.1939 10.9440  -2
   2  26   3 -4.1939 10.9440   1
   1  27   2 437.197 20.8458  -2
   1  27   3 437.197 20.8458   1
   3  27   2 227.979 20.4046  -2
   3  27   3 227.979 20.4046   1
   0  28   2 132.886 19.7600  -2
   0  28   3 132.886 19.7600   1
   2  28   2 141.137 13.6209  -2
   2  28   3 141.137 13.6209   1
   1  29   2 9.75766 11.8680  -2
   1  29   3 9.75766 11.8680   1
   0  30   2 -14.100 17.6571  -2
   0  30   3 -14.100 17.6571   1
   2  30   4 41.0933 18.6583  -2
   2  30   3 41.0933 18.6583   1
   2  30   2 2.39653 11.8121  -2
   2  30   3 2.39653 11.8121   1
   1  31   4 58.1962 18.4719  -2
   1  31   3 58.1962 18.4719   1
   1  31   2 -4.0870 12.2164  -2
   1  31   3 -4.0870 12.2164   1
   0  32   3 257.061 14.7994   1
   0   0   4 4493.29 210.841   1
   2   0   4 3289.28 107.421  -2
   2   0   4 3289.28 107.421   1
   4   0   4 1250.70 30.1249  -2
   4   0   4 1250.70 30.1249   1
   1   1   4 268.602 10.6085   1
   3   1   4 190.945 4.29299  -2
   3   1   4 190.945 4.29299   1
   5   1   4 62.3529 6.47094  -2
   5   1   4 62.3529 6.47094   1
   0   2   4 1770.65 58.5508   1
   2   2   4 1243.84 33.9806  -2
   2   2   4 1243.84 33.9806   1
   4   2   4 442.124 9.33688  -2
   4   2   4 442.124 9.33688   1
   1   3   4 1058.27 17.4529   1
   3   3   4 645.027 10.6652  -2
   3   3   4 645.027 10.6652   1
   5   3   4 225.036 9.13960  -2
   5   3   4 225.036 9.13960   1
   0   4   4 1545.05 50.8213   1
   2   4   4 1325.08 66.8996  -2
   2   4   4 1325.08 66.8996   1
   4   4   4 504.059 11.9454  -2
   4   4   4 504.059 11.9454   1
   1   5   4 1366.09 20.0141   1
   3   5   4 843.466 15.5285  -2
   3   5   4 843.466 15.5285   1
   5   5   4 332.630 14.6344  -2
   5   5   4 332.630 14.6344   1
   0   6   4 -8.4707 3.19295   1
   2   6   4 1.02033 1.20342   1
   4   6   4 10.3022 6.01020  -2
   4   6   4 10.3022 6.01020   1
   1   7   4 1486.31 19.8311   1
   3   7   4 848.219 28.4041  -2
   3   7   4 848.219 28.4041   1
   5   7   4 241.538 16.0625  -2
   5   7   4 241.538 16.0625   1
   0   8   4 1353.05 27.1963   1
   2   8   4 838.405 8.64167   1
   4   8   4 462.473 15.5938  -2
   4   8   4 462.473 15.5938   1
   1   9   4 972.787 14.0686   1
   3   9   4 486.413 6.17841   1
   5   9   4 205.449 23.3557  -2
   5   9   4 205.449 23.3557   1
   0  10   4 -1.0787 1.90723   1
   2  10   4 1.61106 1.39542   1
   4  10   4 -28.504 11.3975  -2
   4  10   4 -28.504 11.3975   1
   1  11   4 2.22962 1.51545   1
   3  11   4 4.81489 1.79495   1
   5  11   4 -2.7817 3.43109   1
   0  12   4 652.064 12.9210   1
   2  12   4 421.230 5.26530   1
   4  12   4 164.041 4.75913   1
   1  13   4 858.412 9.88493   1
   3  13   4 482.007 6.88037   1
   5  13   4 205.734 7.38973   1
   0  14   4 82.3611 2.96647   1
   2  14   4 64.1738 2.23224   1
   4  14   4 28.8313 2.93165   1
   1  15   4 376.169 4.77728   1
   3  15   4 210.029 4.48113   1
   5  15   4 71.3768 5.65819   1
   0  16   4 14.3665 2.18705   1
   2  16   4 8.30971 2.02072   1
   4  16   4 2.99008 2.68837   1
   1  17   4 24.9310 1.98285   1
   3  17   4 11.2220 2.60851   1
   5  17   4 5.36450 4.76028   1
   0  18   4 153.890 4.25988   1
   2  18   4 134.899 3.55733   1
   4  18   4 75.2417 3.65955   1
   1  19   4 98.5969 3.06443   1
   3  19   4 68.7485 3.83725   1
   0  20   4 435.735 8.83422   1
   2  20   4 344.633 6.09497   1
   4  20   4 179.514 5.22472   1
   1  21   4 22.5671 2.46739   1
   3  21   4 20.9734 3.54363   1
   0  22   4 15.7829 3.35009   1
   2  22   4 13.8429 3.16239   1
   4  22   3 3.37184 11.6849  -2
   4  22   4 3.37184 11.6849   1
   1  23   4 43.3992 3.19709   1
   3  23   3 104.799 17.9573  -2
   3  23   4 104.799 17.9573   1
   0  24   4 166.922 6.18916   1
   2  24   3 133.698 13.3589  -2
   2  24   4 133.698 13.3589   1
   1  25   4 319.210 7.72411   1
   3  25   3 206.564 21.3348  -2
   3  25   4 206.564 21.3348   1
   0  26   4 179.973 8.74884   1
   2  26   3 145.612 14.0395  -2
   2  26   4 145.612 14.0395   1
   1  27   3 88.8771 17.6400  -2
   1  27   4 88.8771 17.6400   1
   3  27   3 53.4868 17.4415  -2
   3  27   4 53.4868 17.4415   1
   0  28   4 173.162 8.91920   1
   2  28   3 151.647 14.5420  -2
   2  28   4 151.647 14.5420   1
   1  29   3 54.0115 19.1319  -2
   1  29   4 54.0115 19.1319   1
   0  30   4 295.344 11.1465   1
   2  30   3 284.140 18.0991  -2
   2  30   4 284.140 18.0991   1
   1  31   4 150.751 6.27218   1
   2   0   5 -0.2550 1.81758   1
   4   0   5 1.37554 3.77674   1
   1   1   5 1726.74 29.2410   1
   3   1   5 1083.23 17.1484  -2
   3   1   5 1083.23 17.1484   1
   5   1   5 319.153 10.9874  -2
   5   1   5 319.153 10.9874   1
   0   2   5 33.3675 4.89598   1
   2   2   5 15.8895 1.35901   1
   4   2   5 5.10356 4.11063  -2
   4   2   5 5.10356 4.11063   1
   1   3   5 10.6417 1.88787   1
   3   3   5 -5.5372 3.58097  -2
   3   3   5 -5.5372 3.58097   1
   5   3   5 4.34567 7.36067  -2
   5   3   5 4.34567 7.36067   1
   0   4   5 935.947 31.8680   1
   2   4   5 552.010 6.58171   1
   4   4   5 286.836 10.2165  -2
   4   4   5 286.836 10.2165   1
   1   5   5 1153.84 16.4843   1
   3   5   5 743.942 19.1983  -2
   3   5   5 743.942 19.1983   1
   5   5   5 235.206 9.96745  -2
   5   5   5 235.206 9.96745   1
   0   6   5 902.768 16.8923   1
   2   6   5 583.736 6.49142   1
   4   6   5 316.038 12.4829  -2
   4   6   5 316.038 12.4829   1
   1   7   5 25.4562 1.72922   1
   3   7   5 17.8217 1.79762   1
   5   7   5 4.37236 16.7342  -2
   5   7   5 4.37236 16.7342   1
   0   8   5 44.8785 2.77340   1
   2   8   5 29.0226 1.57402   1
   4   8   5 7.32706 7.05382  -2
   4   8   5 7.32706 7.05382   1
   1   9   5 1.75143 1.48965   1
   3   9   5 2.51268 1.77080   1
   5   9   5 -1.6886 3.40181   1
   0  10   5 1506.32 27.6514   1
   2  10   5 988.609 11.1991   1
   4  10   5 456.273 7.68742   1
   1  11   5 247.966 3.50433   1
   3  11   5 155.513 3.57220   1
   5  11   5 76.0238 4.78996   1
   0  12   5 204.219 4.25071   1
   2  12   5 150.317 2.77101   1
   4  12   5 77.8579 3.43421   1
   1  13   5 388.211 4.63198   1
   3  13   5 225.934 4.28988   1
   5  13   5 87.7751 5.90283   1
   0  14   5 196.966 4.17820   1
   2  14   5 146.760 3.01904   1
   4  14   5 75.1078 3.62035   1
   1  15   5 380.840 4.91132   1
   3  15   5 245.630 4.63794   1
   5  15   5 105.229 6.56554   1
   0  16   5 261.572 5.13632   1
   2  16   5 198.064 3.92997   1
   4  16   5 111.268 4.28715   1
   1  17   5 94.6581 2.76318   1
   3  17   5 51.1705 3.12602   1
   0  18   5 938.758 14.3171   1
   2  18   5 706.335 9.46286   1
   4  18   5 359.331 7.25460   1
   1  19   5 84.6140 3.02593   1
   3  19   5 57.3768 3.52367   1
   0  20   5 55.7617 3.38184   1
   2  20   5 41.6575 2.83449   1
   4  20   5 26.1273 3.64531   1
   1  21   5 275.082 5.01521   1
   3  21   5 174.853 5.54290   1
   0  22   5 34.0422 3.66991   1
   2  22   5 28.3326 3.02606   1
   4  22   5 13.4014 3.62872   1
   1  23   5 581.624 8.84123   1
   3  23   5 355.066 8.16714   1
   0  24   5 7.28023 3.99046   1
   2  24   5 1.18619 3.01316   1
   1  25   5 -2.2692 3.57373   1
   3  25   4 27.0876 17.3637  -2
   3  25   5 27.0876 17.3637   1
   0  26   5 122.721 7.65835   1
   2  26   5 94.6406 4.55055   1
   1  27   5 198.903 6.60776   1
   3  27   4 131.146 19.1489  -2
   3  27   5 131.146 19.1489   1
   0  28   5 121.559 8.06229   1
   2  28   5 86.4517 4.60369   1
   1  29   5 12.2760 4.13216   1
   0  30   5 9.43894 5.90407   1
   0   0   6 290.256 11.0879   1
   2   0   6 183.576 4.32803   1
   4   0   6 124.717 8.71786  -2
   4   0   6 124.717 8.71786   1
   1   1   6 20.1343 2.24263   1
   3   1   6 12.3027 6.83452  -2
   3   1   6 12.3027 6.83452   1
   5   1   6 6.11552 7.31721  -2
   5   1   6 6.11552 7.31721   1
   0   2   6 1.53030 2.04301   1
   2   2   6 2.57068 1.36990   1
   4   2   6 3.83207 5.25641  -2
   4   2   6 3.83207 5.25641   1
   1   3   6 104.021 3.16800   1
   3   3   6 79.6511 10.9490  -2
   3   3   6 79.6511 10.9490   1
   5   3   6 23.4253 7.95694  -2
   5   3   6 23.4253 7.95694   1
   0   4   6 673.594 12.2250   1
   2   4   6 410.473 5.44770   1
   4   4   6 261.039 8.69629  -2
   4   4   6 261.039 8.69629   1
   1   5   6 9.79922 1.81838   1
   3   5   6 4.46111 1.85901   1
   5   5   6 9.89485 8.60080  -2
   5   5   6 9.89485 8.60080   1
   0   6   6 452.369 9.35064   1
   2   6   6 293.370 4.08164   1
   4   6   6 130.172 8.51229  -2
   4   6   6 130.172 8.51229   1
   1   7   6 42.1375 1.89845   1
   3   7   6 26.7010 2.03157   1
   5   7   6 11.6150 12.7346  -2
   5   7   6 11.6150 12.7346   1
   0   8   6 793.990 15.3177   1
   2   8   6 537.913 6.46461   1
   4   8   6 256.518 4.81429   1
   1   9   6 1026.31 11.0024   1
   3   9   6 553.375 7.26753   1
   5   9   6 216.423 7.88142   1
   0  10   6 385.920 6.83720   1
   2  10   6 254.781 3.72313   1
   4  10   6 111.807 3.72207   1
   1  11   6 207.540 3.07500   1
   3  11   6 121.202 3.57170   1
   5  11   6 44.5253 4.94994   1
   0  12   6 288.927 5.41592   1
   2  12   6 212.894 3.49028   1
   4  12   6 123.768 4.09355   1
   1  13   6 1074.85 10.7800   1
   3  13   6 583.334 8.68262   1
   5  13   6 250.546 10.0003   1
   0  14   6 450.488 7.66370   1
   2  14   6 327.008 4.58841   1
   4  14   6 169.584 4.87864   1
   1  15   6 571.955 6.64105   1
   3  15   6 320.305 5.91061   1
   5  15   6 160.550 10.6836   1
   0  16   6 25.6200 2.56919   1
   2  16   6 24.0217 2.32215   1
   4  16   6 17.0980 3.32665   1
   1  17   6 678.625 8.35559   1
   3  17   6 430.816 7.78598   1
   0  18   6 423.118 7.36909   1
   2  18   6 318.395 5.26210   1
   4  18   6 167.332 5.42397   1
   1  19   6 75.7188 2.86231   1
   3  19   6 44.7334 3.57216   1
   0  20   6 291.950 6.03078   1
   2  20   6 227.619 4.68399   1
   4  20   6 121.859 5.10784   1
   1  21   6 15.3288 2.59289   1
   3  21   6 10.5049 3.25777   1
   0  22   6 611.276 11.0353   1
   2  22   6 470.691 7.59157   1
   4  22   6 252.083 9.74825   1
   1  23   6 -3.6661 2.94900   1
   3  23   6 5.71462 3.64260   1
   0  24   6 48.6939 5.97841   1
   2  24   6 23.8020 3.20537   1
   1  25   6 98.0941 4.86842   1
   3  25   6 68.1717 4.66529   1
   0  26   6 22.2139 5.68557   1
   2  26   6 17.0902 3.40861   1
   1  27   6 88.9017 4.94686   1
   0  28   6 95.3888 7.58966   1
   2  28   6 64.5795 4.24786   1
   1  29   6 38.3222 4.38842   1
   0  30   6 75.6304 10.8416   1
   0   0   7 -7.1011 3.48512   1
   2   0   7 -4.7611 2.23344   1
   4   0   7 1.03864 3.32097   1
   1   1   7 695.693 9.27845   1
   3   1   7 339.435 5.63086   1
   5   1   7 177.790 14.7646  -2
   5   1   7 177.790 14.7646   1
   0   2   7 619.239 13.3303   1
   2   2   7 420.882 5.98000   1
   4   2   7 268.798 17.8866  -2
   4   2   7 268.798 17.8866   1
   1   3   7 775.496 10.0063   1
   3   3   7 374.912 5.54517   1
   5   3   7 186.009 13.2497  -2
   5   3   7 186.009 13.2497   1
   0   4   7 595.885 11.9823   1
   2   4   7 376.579 5.57314   1
   4   4   7 193.102 16.2133  -2
   4   4   7 193.102 16.2133   1
   1   5   7 558.609 6.23292   1
   3   5   7 267.618 4.68318   1
   5   5   7 123.767 12.7149  -2
   5   5   7 123.767 12.7149   1
   0   6   7 105.070 3.25741   1
   2   6   7 77.2847 2.26645   1
   4   6   7 34.0274 12.8541  -2
   4   6   7 34.0274 12.8541   1
   1   7   7 501.315 5.95393   1
   3   7   7 267.507 4.76195   1
   5   7   7 108.291 16.2523  -2
   5   7   7 108.291 16.2523   1
   0   8   7 475.861 8.12088   1
   2   8   7 311.675 4.43478   1
   4   8   7 138.067 3.85521   1
   1   9   7 4.28005 1.41993   1
   3   9   7 -0.1903 2.38206   1
   5   9   7 -1.1845 4.74476   1
   0  10   7 564.875 8.97298   1
   2  10   7 393.058 5.34171   1
   4  10   7 201.450 5.34985   1
   1  11   7 41.2821 1.89914   1
   3  11   7 15.4190 2.66310   1
   5  11   7 6.72542 5.49633   1
   0  12   7 472.743 7.89257   1
   2  12   7 331.988 4.75958   1
   4  12   7 159.198 5.02869   1
   1  13   7 0.89978 1.68234   1
   3  13   7 4.01208 2.66504   1
   5  13   7 11.5137 7.18004   1
   0  14   7 140.535 4.08510   1
   2  14   7 111.658 3.00889   1
   4  14   7 57.0480 3.70319   1
   1  15   7 84.0690 2.65642   1
   3  15   7 54.6950 3.52093   1
   0  16   7 52.1558 3.15761   1
   2  16   7 36.7783 2.42787   1
   4  16   7 11.5404 3.34456   1
   1  17   7 90.5321 3.00033   1
   3  17   7 46.1035 3.71760   1
   0  18   7 277.321 6.02800   1
   2  18   7 218.044 4.53753   1
   4  18   7 113.274 4.89284   1
   1  19   7 93.4901 3.24785   1
   3  19   7 58.1081 4.05244   1
   0  20   7 4.25263 2.97806   1
   2  20   7 -0.6320 2.68764   1
   4  20   7 4.83428 3.58748   1
   1  21   7 5.80807 2.68148   1
   3  21   7 4.45856 3.58450   1
   0  22   7 75.6569 4.37244   1
   2  22   7 64.6264 3.52020   1
   1  23   7 296.400 6.47945   1
   3  23   7 188.847 6.75862   1
   0  24   7 15.6223 4.91644   1
   2  24   7 12.3611 3.09458   1
   1  25   7 -0.1565 3.22337   1
   3  25   7 -2.4906 4.51495   1
   0  26   7 27.0531 5.92237   1
   2  26   7 22.7979 3.40939   1
   1  27   7 302.386 7.61520   1
   0  28   7 65.8960 6.93890   1
   1  29   7 3.54479 3.98604   1
   0   0   8 5326.73 130.394   1
   2   0   8 3526.76 48.2269   1
   4   0   8 2220.84 96.1763  -2
   4   0   8 2220.84 96.1763   1
   1   1   8 11.0389 1.49346   1
   3   1   8 6.11033 2.27466   1
   5   1   8 7.21163 4.63594   1
   0   2   8 16.6914 2.67847   1
   2   2   8 16.7499 1.97011   1
   4   2   8 14.0262 3.44792   1
   1   3   8 18.4065 1.67982   1
   3   3   8 15.3401 2.57946   1
   5   3   8 9.77170 13.3472  -2
   5   3   8 9.77170 13.3472   1
   0   4   8 307.644 6.26850   1
   2   4   8 222.873 3.57631   1
   4   4   8 88.8492 15.5067  -2
   4   4   8 88.8492 15.5067   1
   1   5   8 2718.47 26.9412   1
   3   5   8 1338.93 17.5651   1
   5   5   8 644.455 34.3366  -2
   5   5   8 644.455 34.3366   1
   0   6   8 74.8553 3.05456   1
   2   6   8 47.6595 2.14627   1
   4   6   8 15.1739 2.74872   1
   1   7   8 47.7051 1.94595   1
   3   7   8 22.2810 2.57855   1
   5   7   8 9.00867 4.34218   1
   0   8   8 132.601 3.69116   1
   2   8   8 101.084 2.81443   1
   4   8   8 52.2056 3.43054   1
   1   9   8 226.819 3.55142   1
   3   9   8 131.187 4.12806   1
   5   9   8 56.4725 5.19232   1
   0  10   8 444.009 7.58755   1
   2  10   8 313.378 4.60723   1
   4  10   8 156.487 4.80932   1
   1  11   8 18.3956 1.87844   1
   3  11   8 9.38688 2.80327   1
   0  12   8 9.97414 2.43102   1
   2  12   8 5.51954 1.98863   1
   4  12   8 3.06490 3.17000   1
   1  13   8 160.877 3.25682   1
   3  13   8 98.2646 4.27562   1
   0  14   8 2.39713 2.47636   1
   2  14   8 4.17675 2.14746   1
   4  14   8 0.30994 3.26951   1
   1  15   8 -0.0832 2.04781   1
   3  15   8 -1.5643 3.08850   1
   0  16   8 1.97394 2.73006   1
   2  16   8 -2.4805 2.26961   1
   4  16   8 0.22111 3.47172   1
   1  17   8 196.739 4.17402   1
   3  17   8 120.433 5.06076   1
   0  18   8 5.51349 2.94063   1
   2  18   8 4.74464 2.56259   1
   4  18   8 0.59358 3.69396   1
   1  19   8 222.342 4.79230   1
   3  19   8 126.068 5.29429   1
   0  20   8 14.8882 3.44075   1
   2  20   8 9.87639 2.90272   1
   1  21   8 17.4629 3.29262   1
   3  21   8 14.2663 3.98241   1
   0  22   8 297.717 8.80043   1
   2  22   8 244.411 5.35583   1
   1  23   8 119.709 4.95013   1
   3  23   8 74.4756 4.89803   1
   0  24   8 266.969 9.30226   1
   2  24   8 223.650 5.58598   1
   1  25   8 19.8092 3.77805   1
   0  26   8 98.4230 7.79110   1
   2  26   8 85.4622 4.24775   1
   1  27   8 82.8550 5.13073   1
   0  28   8 191.495 13.9314   1
   0   0   9 -0.0116 3.09440   1
   2   0   9 1.43197 2.37956   1
   4   0   9 2.74685 3.85130   1
   1   1   9 1.84106 1.74836   1
   3   1   9 -0.4915 2.43695   1
   5   1   9 4.40395 4.79578   1
   0   2   9 114.641 3.59572   1
   2   2   9 80.1335 2.49131   1
   4   2   9 39.8114 3.27573   1
   1   3   9 144.038 3.12546   1
   3   3   9 74.6153 3.46662   1
   5   3   9 33.0705 14.3403  -2
   5   3   9 33.0705 14.3403   1
   0   4   9 76.5476 3.04650   1
   2   4   9 48.0017 2.30088   1
   4   4   9 20.9869 2.97955   1
   1   5   9 878.980 10.2581   1
   3   5   9 444.378 7.93878   1
   5   5   9 161.687 7.07386   1
   0   6   9 22.0800 2.53854   1
   2   6   9 13.7897 1.98988   1
   4   6   9 1.45475 2.75858   1
   1   7   9 208.615 3.69025   1
   3   7   9 123.901 4.01911   1
   0   8   9 89.1179 3.39046   1
   2   8   9 62.7495 2.52311   1
   4   8   9 27.7251 3.24394   1
   1   9   9 614.027 7.57015   1
   3   9   9 317.210 6.62411   1
   0  10   9 1303.61 19.0555   1
   2  10   9 956.956 10.8229   1
   4  10   9 435.982 8.30311   1
   1  11   9 69.7755 2.53585   1
   3  11   9 28.0031 3.30222   1
   0  12   9 412.533 7.50540   1
   2  12   9 300.174 4.64535   1
   4  12   9 152.245 5.14079   1
   1  13   9 4.49685 2.07645   1
   3  13   9 3.04579 3.18184   1
   0  14   9 1007.40 15.4049   1
   2  14   9 742.925 9.41288   1
   4  14   9 335.355 7.71446   1
   1  15   9 532.738 7.15518   1
   3  15   9 316.071 7.24303   1
   0  16   9 14.9173 3.04320   1
   2  16   9 5.68746 2.51257   1
   4  16   9 0.11194 3.59547   1
   1  17   9 200.586 4.72118   1
   3  17   9 121.989 5.30094   1
   0  18   9 140.697 5.12178   1
   2  18   9 115.553 3.92030   1
   1  19   9 461.311 8.26619   1
   3  19   9 283.274 7.49386   1
   0  20   9 184.095 7.26655   1
   2  20   9 130.930 4.34174   1
   1  21   9 3.40830 3.17690   1
   3  21   9 2.65375 3.82585   1
   0  22   9 -3.7475 4.34145   1
   2  22   9 -0.0496 3.03509   1
   1  23   9 73.7204 4.22403   1
   0  24   9 101.217 6.81182   1
   2  24   9 83.5019 4.04488   1
   1  25   9 60.3822 4.35483   1
   0  26   9 1.96062 5.93251   1
   1  27   9 68.1694 7.13246   1
   0   0  10 1120.21 23.7227   1
   2   0  10 770.581 12.1185   1
   4   2  10 482.659 21.6076  -2
   4   0  10 482.659 21.6076   1
   1   1  10 28.2878 2.10597   1
   3   1  10 6.53402 10.9913  -2
   3   1  10 6.53402 10.9913   1
   0   2  10 171.824 4.28811   1
   2   2  10 131.886 3.23031   1
   4   0  10 197.794 14.5593  -2
   4   2  10 197.794 14.5593   1
   1   3  10 31.4255 2.16880   1
   3   1  10 -20.170 13.7167  -2
   3   3  10 -20.170 13.7167   1
   0   4  10 187.405 4.58200   1
   2   4  10 154.869 3.20892   1
   4   2  10 118.500 20.9628  -2
   4   4  10 118.500 20.9628   1
   1   5  10 436.811 5.94505   1
   3   3  10 308.745 25.0710  -2
   3   5  10 308.745 25.0710   1
   0   6  10 247.563 5.56172   1
   2   6  10 168.101 3.39629   1
   4   6  10 62.0333 4.05917   1
   1   7  10 227.626 4.14209   1
   3   7  10 128.460 4.43524   1
   0   8  10 93.4744 3.86098   1
   2   8  10 68.2815 2.69594   1
   4   8  10 40.6229 3.54578   1
   1   9  10 339.293 5.07815   1
   3   9  10 182.746 5.11557   1
   0  10  10 2.31817 2.62518   1
   2  10  10 2.76776 2.17731   1
   4  10  10 2.66248 3.29378   1
   1  11  10 109.383 3.15732   1
   3  11  10 46.3047 3.81047   1
   0  12  10 497.588 8.77021   1
   2  12  10 375.362 5.71426   1
   4  12  10 191.780 5.74517   1
   1  13  10 232.697 4.38374   1
   3  13  10 136.062 5.15770   1
   0  14  10 85.3916 3.93183   1
   2  14  10 64.1485 3.16299   1
   4  14  10 32.5248 3.90508   1
   1  15  10 55.1138 3.28802   1
   3  15  10 38.1917 3.90918   1
   0  16  10 12.4322 3.34308   1
   2  16  10 5.14963 2.71771   1
   1  17  10 782.410 11.7571   1
   3  17  10 463.115 9.66350   1
   0  18  10 57.6280 4.68386   1
   2  18  10 47.0897 3.33505   1
   1  19  10 -0.5120 3.07127   1
   3  19  10 -3.3934 3.79862   1
   0  20  10 29.9232 4.89725   1
   2  20  10 26.1109 3.27774   1
   1  21  10 4.80132 3.32649   1
   0  22  10 709.118 15.7637   1
   2  22  10 561.871 9.10545   1
   1  23  10 28.3074 3.70838   1
   0  24  10 -6.4801 5.25781   1
   1  25  10 -1.2614 3.75086   1
   0  26  10 5.85761 11.7541   1
   0   0  11 7.33224 4.32417   1
   2   0  11 4.42964 3.62824   1
   4   0  11 24.3508 6.62374   1
   1   3  11 617.604 34.3216  -2
   1   1  11 617.604 34.3216   1
   1   1  11 638.590 24.6608  -2
   1   1  11 638.590 24.6608   1
   3   3  11 367.473 18.4940  -2
   3   1  11 367.473 18.4940   1
   3   1  11 341.531 17.6732  -2
   3   1  11 341.531 17.6732   1
   0   2  11 431.028 8.34974   1
   2   2  11 328.222 5.16265   1
   4   4  11 213.114 15.5153  -2
   4   2  11 213.114 15.5153   1
   1   1  11 684.393 36.6948  -2
   1   3  11 684.393 36.6948   1
   3   1  11 423.988 19.6734  -2
   3   3  11 423.988 19.6734   1
   0   4  11 402.693 7.98978   1
   2   2  11 424.918 19.1039  -2
   2   4  11 424.918 19.1039   1
   4   2  11 201.269 14.4592  -2
   4   4  11 201.269 14.4592   1
   1   3  11 374.272 25.0877  -2
   1   5  11 374.272 25.0877   1
   3   3  11 262.015 15.8907  -2
   3   5  11 262.015 15.8907   1
   0   6  11 64.9079 3.78488   1
   2   4  11 141.553 10.6659  -2
   2   6  11 141.553 10.6659   1
   4   4  11 60.1628 9.94402  -2
   4   6  11 60.1628 9.94402   1
   1   7  11 323.878 5.07469   1
   3   5  11 230.782 20.8709  -2
   3   7  11 230.782 20.8709   1
   0   8  11 327.980 7.40081   1
   2   8  11 237.605 4.45383   1
   4   6  11 153.605 19.9576  -2
   4   8  11 153.605 19.9576   1
   1   9  11 16.2274 2.36759   1
   3   9  11 15.9061 3.28662   1
   0  10  11 243.696 6.00961   1
   2  10  11 195.868 4.44766   1
   4  10  11 90.1372 4.60888   1
   1  11  11 20.8348 2.74096   1
   3  11  11 11.9703 3.28607   1
   0  12  11 247.409 6.15212   1
   2  12  11 185.059 4.41430   1
   1  13  11 -0.4067 2.76773   1
   3  13  11 -2.5995 3.43234   1
   0  14  11 46.5999 3.96507   1
   2  14  11 31.8264 2.94601   1
   1  15  11 25.9359 3.21378   1
   3  15  11 15.6575 3.85594   1
   0  16  11 39.6897 4.34115   1
   2  16  11 27.8438 3.04022   1
   1  17  11 31.9534 3.40270   1
   3  17  11 16.3623 3.96057   1
   0  18  11 180.241 7.30114   1
   2  18  11 124.456 4.40059   1
   1  19  11 32.2618 3.58648   1
   0  20  11 -5.2160 4.56677   1
   2  20  11 0.47970 3.17920   1
   1  21  11 15.6799 3.55314   1
   0  22  11 62.3331 6.44615   1
   2  22  11 40.9106 9.51961   1
   1  23  11 187.895 5.77552   1
   0  24  11 7.71968 6.29036   1
   0   2  12 1073.62 30.3205  -2
   0   0  12 1073.62 30.3205   1
   2   2  12 894.879 26.0528  -2
   2   0  12 894.879 26.0528   1
   4   2  12 403.251 18.2853  -2
   4   0  12 403.251 18.2853   1
   1   1  12 7.76314 5.69605  -2
   1   1  12 7.76314 5.69605   1
   1   3  12 84.8629 12.1274  -2
   1   1  12 84.8629 12.1274   1
   3   1  12 32.3229 9.13531  -2
   3   1  12 32.3229 9.13531   1
   3   3  12 58.0973 11.7469  -2
   3   1  12 58.0973 11.7469   1
   0   0  12 532.682 17.9702  -2
   0   2  12 532.682 17.9702   1
   2   4  12 209.535 15.3149  -2
   2   2  12 209.535 15.3149   1
   2   0  12 393.637 11.5554  -2
   2   2  12 393.637 11.5554   1
   4   0  12 186.425 11.3180  -2
   4   2  12 186.425 11.3180   1
   4   4  12 49.9150 11.9368  -2
   4   2  12 49.9150 11.9368   1
   1   1  12 208.556 7.88774  -2
   1   3  12 208.556 7.88774   1
   3   1  12 125.233 10.3786  -2
   3   3  12 125.233 10.3786   1
   3   5  12 213.581 23.3463  -2
   3   3  12 213.581 23.3463   1
   0   2  12 299.400 11.1240  -2
   0   4  12 299.400 11.1240   1
   2   2  12 252.539 9.28704  -2
   2   4  12 252.539 9.28704   1
   4   2  12 101.515 12.2300  -2
   4   4  12 101.515 12.2300   1
   4   6  12 55.0229 18.2256  -2
   4   4  12 55.0229 18.2256   1
   1   3  12 472.963 10.7931  -2
   1   5  12 472.963 10.7931   1
   3   3  12 300.558 13.3470  -2
   3   5  12 300.558 13.3470   1
   0   4  12 105.177 8.37749  -2
   0   6  12 105.177 8.37749   1
   2   4  12 69.0038 6.71053  -2
   2   6  12 69.0038 6.71053   1
   4   4  12 33.2256 10.1830  -2
   4   6  12 33.2256 10.1830   1
   1   5  12 265.012 10.8568  -2
   1   7  12 265.012 10.8568   1
   3   5  12 176.464 11.7143  -2
   3   7  12 176.464 11.7143   1
   0   8  12 365.134 8.56288   1
   2   6  12 317.728 24.6229  -2
   2   8  12 317.728 24.6229   1
   1   9  12 241.129 5.07581   1
   3   7  12 162.565 20.7065  -2
   3   9  12 162.565 20.7065   1
   0  10  12 4.40121 3.57343   1
   2  10  12 6.92911 2.53850   1
   1  11  12 13.0800 2.89391   1
   3  11  12 13.6925 3.45557   1
   0  12  12 38.7104 4.22782   1
   2  12  12 23.0595 2.90906   1
   1  13  12 332.141 6.55768   1
   3  13  12 193.882 5.94838   1
   0  14  12 23.6429 4.93564   1
   2  14  12 18.6570 3.02571   1
   1  15  12 85.7534 4.02872   1
   3  15  12 39.6803 4.44940   1
   0  16  12 5.84779 4.74172   1
   2  16  12 5.24018 3.01202   1
   1  17  12 24.4101 3.41722   1
   0  18  12 98.9586 6.70654   1
   2  18  12 78.7514 4.12201   1
   1  19  12 22.3595 3.62002   1
   0  20  12 91.8640 8.67750   1
   1  21  12 13.9704 3.63732   1
   0  22  12 54.6592 8.06418   1
   2   0  13 -1.8058 8.99977   1
   1   1  13 445.845 11.4546  -2
   1   1  13 445.845 11.4546   1
   1   3  13 345.083 10.4130  -2
   1   1  13 345.083 10.4130   1
   3   3  13 212.633 11.6355  -2
   3   1  13 212.633 11.6355   1
   3   1  13 298.710 13.4255  -2
   3   1  13 298.710 13.4255   1
   0   4  13 87.1528 10.1386  -2
   0   2  13 87.1528 10.1386   1
   2   4  13 47.6658 8.54083  -2
   2   2  13 47.6658 8.54083   1
   1   1  13 117.129 6.82224  -2
   1   3  13 117.129 6.82224   1
   1   5  13 130.846 10.7505  -2
   1   3  13 130.846 10.7505   1
   3   1  13 68.0119 8.68030  -2
   3   3  13 68.0119 8.68030   1
   3   5  13 86.5730 11.2023  -2
   3   3  13 86.5730 11.2023   1
   0   2  13 111.018 8.23536  -2
   0   4  13 111.018 8.23536   1
   2   2  13 97.5606 6.04277  -2
   2   4  13 97.5606 6.04277   1
   2   6  13 134.210 12.3184  -2
   2   4  13 134.210 12.3184   1
   1   3  13 390.031 9.72356  -2
   1   5  13 390.031 9.72356   1
   3   7  13 129.580 19.3906  -2
   3   5  13 129.580 19.3906   1
   3   3  13 244.584 10.2559  -2
   3   5  13 244.584 10.2559   1
   0   4  13 264.184 10.8854  -2
   0   6  13 264.184 10.8854   1
   2   4  13 227.048 8.26953  -2
   2   6  13 227.048 8.26953   1
   1   5  13 101.617 6.48593  -2
   1   7  13 101.617 6.48593   1
   3   5  13 65.9534 9.20367  -2
   3   7  13 65.9534 9.20367   1
   0   6  13 105.352 13.0416  -2
   0   8  13 105.352 13.0416   1
   2   6  13 81.7016 8.10093  -2
   2   8  13 81.7016 8.10093   1
   1   9  13 19.3097 2.92617   1
   3   7  13 -16.648 18.1066  -2
   3   9  13 -16.648 18.1066   1
   0  10  13 574.351 12.9484   1
   2  10  13 443.812 6.85136   1
   1  11  13 116.834 4.12654   1
   3  11  13 72.7002 4.41881   1
   0  12  13 54.2590 5.52465   1
   2  12  13 43.1128 3.13117   1
   1  13  13 172.432 5.11423   1
   0  14  13 143.554 7.32364   1
   2  14  13 107.234 4.22973   1
   1  15  13 237.206 5.81271   1
   0  16  13 152.839 8.74326   1
   2  16  13 112.461 4.77949   1
   1  17  13 29.6895 3.62367   1
   0  18  13 326.820 13.8710   1
   1  19  13 52.0392 4.09194   1
   0   2  14 120.274 10.3858  -2
   0   0  14 120.274 10.3858   1
   2   2  14 72.0223 6.19436  -2
   2   0  14 72.0223 6.19436   1
   1   3  14 34.8441 6.43642  -2
   1   1  14 34.8441 6.43642   1
   1   1  14 15.8185 5.82266  -2
   1   1  14 15.8185 5.82266   1
   3   1  14 15.8807 7.66700  -2
   3   1  14 15.8807 7.66700   1
   3   3  14 32.5818 7.78717  -2
   3   1  14 32.5818 7.78717   1
   0   0  14 63.3584 7.69569  -2
   0   2  14 63.3584 7.69569   1
   0   4  14 106.317 12.6023  -2
   0   2  14 106.317 12.6023   1
   2   0  14 34.5006 5.76958  -2
   2   2  14 34.5006 5.76958   1
   2   4  14 75.0730 6.61000  -2
   2   2  14 75.0730 6.61000   1
   1   1  14 77.2024 6.39201  -2
   1   3  14 77.2024 6.39201   1
   1   5  14 70.3904 7.13614  -2
   1   3  14 70.3904 7.13614   1
   3   1  14 44.8617 7.01840  -2
   3   3  14 44.8617 7.01840   1
   3   5  14 33.2149 10.7502  -2
   3   3  14 33.2149 10.7502   1
   0   6  14 283.911 23.1349  -2
   0   4  14 283.911 23.1349   1
   0   2  14 281.561 10.9516  -2
   0   4  14 281.561 10.9516   1
   2   2  14 227.846 7.03463  -2
   2   4  14 227.846 7.03463   1
   2   6  14 213.047 11.8260  -2
   2   4  14 213.047 11.8260   1
   1   3  14 20.8623 5.63384  -2
   1   5  14 20.8623 5.63384   1
   1   7  14 11.5156 11.5723  -2
   1   5  14 11.5156 11.5723   1
   3   3  14 19.1463 7.41097  -2
   3   5  14 19.1463 7.41097   1
   0   4  14 91.9167 10.0465  -2
   0   6  14 91.9167 10.0465   1
   2   4  14 71.3240 5.95303  -2
   2   6  14 71.3240 5.95303   1
   2   8  14 88.6978 20.6585  -2
   2   6  14 88.6978 20.6585   1
   1   5  14 15.9287 6.13772  -2
   1   7  14 15.9287 6.13772   1
   0   6  14 235.274 15.6311  -2
   0   8  14 235.274 15.6311   1
   2   6  14 181.299 8.77320  -2
   2   8  14 181.299 8.77320   1
   1   7  14 357.079 15.4058  -2
   1   9  14 357.079 15.4058   1
   0  10  14 88.1670 6.60148   1
   2  10  14 71.4110 3.70469   1
   1  11  14 4.25404 2.95578   1
   0  12  14 16.9729 5.73189   1
   2  12  14 1.13708 3.12074   1
   1  13  14 239.233 5.67701   1
   0  14  14 129.387 8.50568   1
   1  15  14 211.186 6.04989   1
   0  16  14 -3.8019 6.10086   1
   1   3  15 396.832 12.0663  -2
   1   1  15 396.832 12.0663   1
   1   1  15 459.697 12.6469  -2
   1   1  15 459.697 12.6469   1
   0   4  15 270.245 22.3481  -2
   0   2  15 270.245 22.3481   1
   2   4  15 176.436 8.55140  -2
   2   2  15 176.436 8.55140   1
   1   1  15 262.932 8.71670  -2
   1   3  15 262.932 8.71670   1
   1   5  15 169.597 9.05292  -2
   1   3  15 169.597 9.05292   1
   0   6  15 349.319 25.6113  -2
   0   4  15 349.319 25.6113   1
   0   2  15 361.399 17.6985  -2
   0   4  15 361.399 17.6985   1
   2   2  15 287.811 8.04016  -2
   2   4  15 287.811 8.04016   1
   2   6  15 255.811 10.0765  -2
   2   4  15 255.811 10.0765   1
   1   7  15 93.6101 9.92678  -2
   1   5  15 93.6101 9.92678   1
   1   3  15 132.191 6.78955  -2
   1   5  15 132.191 6.78955   1
   0   4  15 195.086 14.4396  -2
   0   6  15 195.086 14.4396   1
   0   8  15 80.0056 18.7338  -2
   0   6  15 80.0056 18.7338   1
   2   4  15 136.832 7.58767  -2
   2   6  15 136.832 7.58767   1
   1   5  15 139.342 7.07539  -2
   1   7  15 139.342 7.07539   1
   1   9  15 97.8004 19.3760  -2
   1   7  15 97.8004 19.3760   1
   0   6  15 75.2044 12.6583  -2
   0   8  15 75.2044 12.6583   1
   2   6  15 93.5400 18.7916  -2
   2   8  15 93.5400 18.7916   1
   1   7  15 76.5483 13.3016  -2
   1   9  15 76.5483 13.3016   1
   0  10  15 83.7445 7.55604   1
   1  11  15 4.14008 3.41574   1
   0  12  15 80.9406 7.58394   1
   0   2  16 529.594 22.2381  -2
   0   0  16 529.594 22.2381   1
   1   1  16 3.24827 5.23901  -2
   1   1  16 3.24827 5.23901   1
   1   3  16 10.5645 6.50007  -2
   1   1  16 10.5645 6.50007   1
   0   4  16 33.0421 15.7345  -2
   0   2  16 33.0421 15.7345   1
   0   0  16 123.034 11.8723  -2
   0   2  16 123.034 11.8723   1
   1   1  16 23.2975 5.83570  -2
   1   3  16 23.2975 5.83570   1
   0   2  16 46.7658 11.3002  -2
   0   4  16 46.7658 11.3002   1
   0   6  16 63.4430 17.7938  -2
   0   4  16 63.4430 17.7938   1
   0   4  16 66.0608 12.0905  -2
   0   6  16 66.0608 12.0905   1
   0   0   0    0.00    0.00   0
;
_shelx_hkl_checksum              32063
loop_
_space_group_symop_operation_xyz
'x, y, z'
'-x, -y, z+1/2'
'-x, y, -z+1/2'
'x, -y, -z'
'x+1/2, y+1/2, z'
'-x+1/2, -y+1/2, z+1/2'
'-x+1/2, y+1/2, -z+1/2'
'x+1/2, -y+1/2, -z'
'-x, -y, -z'
'x, y, -z-1/2'
'x, -y, z-1/2'
'-x, y, z'
'-x+1/2, -y+1/2, -z'
'x+1/2, y+1/2, -z-1/2'
'x+1/2, -y+1/2, z-1/2'
'-x+1/2, y+1/2, z'
loop_
_atom_site_label
_atom_site_type_symbol
_atom_site_fract_x
_atom_site_fract_y
_atom_site_fract_z
_atom_site_U_iso_or_equiv
_atom_site_adp_type
_atom_site_occupancy
_atom_site_site_symmetry_order
_atom_site_calc_flag
_atom_site_refinement_flags_posn
_atom_site_refinement_flags_adp
_atom_site_refinement_flags_occupancy
_atom_site_disorder_assembly
_atom_site_disorder_group
U1 U 0.0000 0.61876(3) 0.2500 0.01067(16) Uani 1 4 d S T P . .
Cs1 Cs 0.0000 0.83967(5) 0.2500 0.0163(2) Uani 1 4 d S T P . .
Se1 Se 0.0000 0.20246(5) 0.13869(10) 0.0120(2) Uani 1 2 d S T P . .
Se2 Se 0.0000 0.41471(5) 0.01508(10) 0.0109(2) Uani 1 2 d S T P . .
Se3 Se 0.0000 0.02047(7) 0.2500 0.0111(3) Uani 1 4 d S T P . .
Sc1 Sc 0.0000 0.0000 0.0000 0.0032(4) Uani 1 4 d S T P . .
loop_
_atom_site_aniso_label
_atom_site_aniso_U_11
_atom_site_aniso_U_22
_atom_site_aniso_U_33
_atom_site_aniso_U_23
_atom_site_aniso_U_13
_atom_site_aniso_U_12
U1 0.0111(3) 0.0130(3) 0.0080(2) 0.000 0.000 0.000
Cs1 0.0198(5) 0.0164(5) 0.0126(4) 0.000 0.000 0.000
Se1 0.0134(5) 0.0149(5) 0.0077(4) 0.0008(3) 0.000 0.000
Se2 0.0125(5) 0.0131(5) 0.0070(4) 0.0001(3) 0.000 0.000
Se3 0.0128(7) 0.0139(7) 0.0068(6) 0.000 0.000 0.000
Sc1 0.0031(10) 0.0052(10) 0.0014(9) -0.0001(6) 0.000 0.000
loop_
_atom_type_symbol
_atom_type_description
_atom_type_scat_dispersion_real
_atom_type_scat_dispersion_imag
_atom_type_scat_source
Sc Sc 0.2519 0.3716 'International Tables Vol C Tables 4.2.6.8 and 6.1.1.4'
Se Se -0.0929 2.2259 'International Tables Vol C Tables 4.2.6.8 and 6.1.1.4'
Cs Cs -0.3680 2.1192 'International Tables Vol C Tables 4.2.6.8 and 6.1.1.4'
U U -9.6767 9.6646 'International Tables Vol C Tables 4.2.6.8 and 6.1.1.4'
loop_
_geom_angle_atom_site_label_1
_geom_angle_atom_site_label_2
_geom_angle_atom_site_label_3
_geom_angle
_geom_angle_site_symmetry_1
_geom_angle_site_symmetry_3
Se3 U1 Se3 87.32(4) 5_455 5
Se3 U1 Se2 79.743(18) 5_455 9_565
Se3 U1 Se2 79.743(18) 5 9_565
Se3 U1 Se2 79.743(18) 5_455 2_565
Se3 U1 Se2 79.743(18) 5 2_565
Se2 U1 Se2 151.50(5) 9_565 2_565
Se3 U1 Se1 155.82(2) 5_455 14_556
Se3 U1 Se1 88.25(2) 5 14_556
Se2 U1 Se1 122.72(2) 9_565 14_556
Se2 U1 Se1 76.08(3) 2_565 14_556
Se3 U1 Se1 155.82(2) 5_455 5
Se3 U1 Se1 88.25(2) 5 5
Se2 U1 Se1 76.08(3) 9_565 5
Se2 U1 Se1 122.72(2) 2_565 5
Se1 U1 Se1 47.52(4) 14_556 5
Se3 U1 Se1 88.25(2) 5_455 5_455
Se3 U1 Se1 155.82(2) 5 5_455
Se2 U1 Se1 76.08(3) 9_565 5_455
Se2 U1 Se1 122.72(2) 2_565 5_455
Se1 U1 Se1 104.91(4) 14_556 5_455
Se1 U1 Se1 86.14(3) 5 5_455
Se3 U1 Se1 88.25(2) 5_455 14_456
Se3 U1 Se1 155.82(2) 5 14_456
Se2 U1 Se1 122.72(2) 9_565 14_456
Se2 U1 Se1 76.08(3) 2_565 14_456
Se1 U1 Se1 86.14(3) 14_556 14_456
Se1 U1 Se1 104.91(4) 5 14_456
Se1 U1 Se1 47.52(4) 5_455 14_456
Se3 U1 U1 46.34(2) 5_455 1_455
Se3 U1 U1 133.66(2) 5 1_455
Se2 U1 U1 90.0 9_565 1_455
Se2 U1 U1 90.0 2_565 1_455
Se1 U1 U1 133.068(15) 14_556 1_455
Se1 U1 U1 133.068(15) 5 1_455
Se1 U1 U1 46.932(15) 5_455 1_455
Se1 U1 U1 46.932(15) 14_456 1_455
Se3 U1 U1 133.66(2) 5_455 1_655
Se3 U1 U1 46.34(2) 5 1_655
Se2 U1 U1 90.0 9_565 1_655
Se2 U1 U1 90.0 2_565 1_655
Se1 U1 U1 46.932(15) 14_556 1_655
Se1 U1 U1 46.932(15) 5 1_655
Se1 U1 U1 133.068(15) 5_455 1_655
Se1 U1 U1 133.068(15) 14_456 1_655
U1 U1 U1 180.0 1_455 1_655
Se3 U1 Cs1 136.34(2) 5_455 .
Se3 U1 Cs1 136.34(2) 5 .
Se2 U1 Cs1 104.25(2) 9_565 .
Se2 U1 Cs1 104.25(2) 2_565 .
Se1 U1 Cs1 52.46(2) 14_556 .
Se1 U1 Cs1 52.46(2) 5 .
Se1 U1 Cs1 52.46(2) 5_455 .
Se1 U1 Cs1 52.46(2) 14_456 .
U1 U1 Cs1 90.0 1_455 .
U1 U1 Cs1 90.000(1) 1_655 .
Se2 Cs1 Se2 126.79(5) 14_556 5_455
Se2 Cs1 Se2 68.09(2) 14_556 14_456
Se2 Cs1 Se2 88.39(3) 5_455 14_456
Se2 Cs1 Se2 88.39(3) 14_556 5
Se2 Cs1 Se2 68.09(2) 5_455 5
Se2 Cs1 Se2 126.78(5) 14_456 5
Se2 Cs1 Se1 150.55(3) 14_556 5_455
Se2 Cs1 Se1 80.26(2) 5_455 5_455
Se2 Cs1 Se1 105.741(18) 14_456 5_455
Se2 Cs1 Se1 115.49(2) 5 5_455
Se2 Cs1 Se1 115.49(2) 14_556 14_456
Se2 Cs1 Se1 105.741(18) 5_455 14_456
Se2 Cs1 Se1 80.26(2) 14_456 14_456
Se2 Cs1 Se1 150.55(3) 5 14_456
Se1 Cs1 Se1 36.84(3) 5_455 14_456
Se2 Cs1 Se1 105.741(18) 14_556 5
Se2 Cs1 Se1 115.49(2) 5_455 5
Se2 Cs1 Se1 150.55(3) 14_456 5
Se2 Cs1 Se1 80.26(2) 5 5
Se1 Cs1 Se1 64.75(2) 5_455 5
Se1 Cs1 Se1 76.88(3) 14_456 5
Se2 Cs1 Se1 80.26(2) 14_556 14_556
Se2 Cs1 Se1 150.55(3) 5_455 14_556
Se2 Cs1 Se1 115.49(2) 14_456 14_556
Se2 Cs1 Se1 105.741(18) 5 14_556
Se1 Cs1 Se1 76.88(3) 5_455 14_556
Se1 Cs1 Se1 64.75(2) 14_456 14_556
Se1 Cs1 Se1 36.84(3) 5 14_556
Se2 Cs1 Se3 63.39(2) 14_556 1_565
Se2 Cs1 Se3 63.39(2) 5_455 1_565
Se2 Cs1 Se3 63.39(2) 14_456 1_565
Se2 Cs1 Se3 63.39(2) 5 1_565
Se1 Cs1 Se3 141.559(15) 5_455 1_565
Se1 Cs1 Se3 141.559(15) 14_456 1_565
Se1 Cs1 Se3 141.559(15) 5 1_565
Se1 Cs1 Se3 141.559(15) 14_556 1_565
Se2 Cs1 Cs1 55.956(11) 14_556 1_655
Se2 Cs1 Cs1 124.045(11) 5_455 1_655
Se2 Cs1 Cs1 124.045(11) 14_456 1_655
Se2 Cs1 Cs1 55.956(11) 5 1_655
Se1 Cs1 Cs1 122.374(12) 5_455 1_655
Se1 Cs1 Cs1 122.374(12) 14_456 1_655
Se1 Cs1 Cs1 57.625(12) 5 1_655
Se1 Cs1 Cs1 57.625(12) 14_556 1_655
Se3 Cs1 Cs1 90.0 1_565 1_655
Se2 Cs1 Cs1 124.045(11) 14_556 1_455
Se2 Cs1 Cs1 55.956(11) 5_455 1_455
Se2 Cs1 Cs1 55.956(11) 14_456 1_455
Se2 Cs1 Cs1 124.045(11) 5 1_455
Se1 Cs1 Cs1 57.625(12) 5_455 1_455
Se1 Cs1 Cs1 57.625(12) 14_456 1_455
Se1 Cs1 Cs1 122.374(12) 5 1_455
Se1 Cs1 Cs1 122.374(12) 14_556 1_455
Se3 Cs1 Cs1 90.0 1_565 1_455
Cs1 Cs1 Cs1 180.0 1_655 1_455
Se2 Cs1 Se1 140.944(17) 14_556 9_565
Se2 Cs1 Se1 54.145(19) 5_455 9_565
Se2 Cs1 Se1 140.944(17) 14_456 9_565
Se2 Cs1 Se1 54.145(18) 5 9_565
Se1 Cs1 Se1 61.61(2) 5_455 9_565
Se1 Cs1 Se1 98.16(2) 14_456 9_565
Se1 Cs1 Se1 61.61(2) 5 9_565
Se1 Cs1 Se1 98.16(2) 14_556 9_565
Se3 Cs1 Se1 102.30(2) 1_565 9_565
Cs1 Cs1 Se1 90.0 1_655 9_565
Cs1 Cs1 Se1 90.0 1_455 9_565
Se1 Se1 U1 66.24(2) 10_556 5_445
Se1 Se1 U1 66.24(2) 10_556 5_545
U1 Se1 U1 86.14(3) 5_445 5_545
Se1 Se1 Cs1 71.581(16) 10_556 5_545
U1 Se1 Cs1 135.69(3) 5_445 5_545
U1 Se1 Cs1 89.103(19) 5_545 5_545
Se1 Se1 Cs1 71.581(16) 10_556 5_445
U1 Se1 Cs1 89.103(19) 5_445 5_445
U1 Se1 Cs1 135.69(3) 5_545 5_445
Cs1 Se1 Cs1 64.75(2) 5_545 5_445
Se1 Se1 Cs1 167.70(2) 10_556 9_565
U1 Se1 Cs1 105.30(3) 5_445 9_565
U1 Se1 Cs1 105.30(3) 5_545 9_565
Cs1 Se1 Cs1 118.39(2) 5_545 9_565
Cs1 Se1 Cs1 118.39(2) 5_445 9_565
Sc1 Se2 Sc1 95.22(3) 5 5_455
Sc1 Se2 U1 96.20(3) 5 9_565
Sc1 Se2 U1 96.20(3) 5_455 9_565
Sc1 Se2 Cs1 85.899(18) 5 5_545
Sc1 Se2 Cs1 139.06(4) 5_455 5_545
U1 Se2 Cs1 124.44(3) 9_565 5_545
Sc1 Se2 Cs1 139.06(4) 5 5_445
Sc1 Se2 Cs1 85.899(18) 5_455 5_445
U1 Se2 Cs1 124.44(3) 9_565 5_445
Cs1 Se2 Cs1 68.09(2) 5_545 5_445
Sc1 Se3 Sc1 161.30(7) . 2
Sc1 Se3 U1 96.75(2) . 5_545
Sc1 Se3 U1 96.75(2) 2 5_545
Sc1 Se3 U1 96.75(2) . 5_445
Sc1 Se3 U1 96.75(2) 2 5_445
U1 Se3 U1 87.32(4) 5_545 5_445
Sc1 Se3 Cs1 80.65(3) . 1_545
Sc1 Se3 Cs1 80.65(3) 2 1_545
U1 Se3 Cs1 136.34(2) 5_545 1_545
U1 Se3 Cs1 136.34(2) 5_445 1_545
Se3 Sc1 Se3 180.0 . 9
Se3 Sc1 Se2 87.09(3) . 13
Se3 Sc1 Se2 92.91(3) 9 13
Se3 Sc1 Se2 92.91(3) . 5_445
Se3 Sc1 Se2 87.09(3) 9 5_445
Se2 Sc1 Se2 180.00(3) 13 5_445
Se3 Sc1 Se2 87.09(3) . 13_455
Se3 Sc1 Se2 92.91(3) 9 13_455
Se2 Sc1 Se2 95.22(3) 13 13_455
Se2 Sc1 Se2 84.78(3) 5_445 13_455
Se3 Sc1 Se2 92.91(3) . 5_545
Se3 Sc1 Se2 87.09(3) 9 5_545
Se2 Sc1 Se2 84.78(3) 13 5_545
Se2 Sc1 Se2 95.22(3) 5_445 5_545
Se2 Sc1 Se2 180.00(3) 13_455 5_545
Se3 Sc1 Cs1 61.56(3) . 1_545
Se3 Sc1 Cs1 118.44(3) 9 1_545
Se2 Sc1 Cs1 124.538(19) 13 1_545
Se2 Sc1 Cs1 55.462(19) 5_445 1_545
Se2 Sc1 Cs1 124.538(19) 13_455 1_545
Se2 Sc1 Cs1 55.462(19) 5_545 1_545
Se3 Sc1 Cs1 118.44(3) . 9_565
Se3 Sc1 Cs1 61.56(3) 9 9_565
Se2 Sc1 Cs1 55.462(19) 13 9_565
Se2 Sc1 Cs1 124.538(19) 5_445 9_565
Se2 Sc1 Cs1 55.462(19) 13_455 9_565
Se2 Sc1 Cs1 124.538(19) 5_545 9_565
Cs1 Sc1 Cs1 180.000(17) 1_545 9_565
loop_
_geom_bond_atom_site_label_1
_geom_bond_atom_site_label_2
_geom_bond_distance
_geom_bond_site_symmetry_2
U1 Se3 2.9028(12) 5_455
U1 Se3 2.9028(12) 5
U1 Se2 2.9053(10) 9_565
U1 Se2 2.9053(10) 2_565
U1 Se1 2.9347(8) 14_556
U1 Se1 2.9347(8) 5
U1 Se1 2.9347(8) 5_455
U1 Se1 2.9347(8) 14_456
U1 U1 4.0080(2) 1_455
U1 U1 4.0080(2) 1_655
U1 Cs1 4.7198(12) .
Cs1 Se2 3.5796(10) 14_556
Cs1 Se2 3.5796(10) 5_455
Cs1 Se2 3.5796(10) 14_456
Cs1 Se2 3.5796(10) 5
Cs1 Se1 3.7427(12) 5_455
Cs1 Se1 3.7427(12) 14_456
Cs1 Se1 3.7427(12) 5
Cs1 Se1 3.7427(12) 14_556
Cs1 Se3 3.8628(19) 1_565
Cs1 Cs1 4.0080(2) 1_655
Cs1 Cs1 4.0080(2) 1_455
Cs1 Se1 4.2259(11) 9_565
Se1 Se1 2.365(2) 10_556
Se1 U1 2.9347(8) 5_445
Se1 U1 2.9347(8) 5_545
Se1 Cs1 3.7427(12) 5_545
Se1 Cs1 3.7427(12) 5_445
Se1 Cs1 4.2259(11) 9_565
Se2 Sc1 2.7134(7) 5
Se2 Sc1 2.7134(7) 5_455
Se2 U1 2.9053(10) 9_565
Se2 Cs1 3.5796(10) 5_545
Se2 Cs1 3.5796(10) 5_445
Se3 Sc1 2.6915(3) .
Se3 Sc1 2.6915(3) 2
Se3 U1 2.9028(12) 5_545
Se3 U1 2.9028(12) 5_445
Se3 Cs1 3.8628(19) 1_545
Sc1 Se3 2.6915(3) 9
Sc1 Se2 2.7134(7) 13
Sc1 Se2 2.7134(7) 5_445
Sc1 Se2 2.7134(7) 13_455
Sc1 Se2 2.7134(7) 5_545
Sc1 Cs1 4.3344(8) 1_545
Sc1 Cs1 4.3344(8) 9_565
