#------------------------------------------------------------------------------
#$Date: 2021-04-15 10:48:38 +0300 (Thu, 15 Apr 2021) $
#$Revision: 264191 $
#$URL: file:///home/coder/svn-repositories/cod/cif/1/56/18/1561802.cif $
#------------------------------------------------------------------------------
#
# This file is available in the Crystallography Open Database (COD),
# http://www.crystallography.net/
#
# All data on this site have been placed in the public domain by the
# contributors.
#
data_1561802
loop_
_publ_author_name
'Seibel, Elizabeth M.'
'Xie, Weiwei'
'Gibson, Quinn D.'
'Cava, R.J.'
_publ_section_title
;
 Structure and magnetic properties of the REAuBi2 (RE=La--Nd, Sm) phases
;
_journal_name_full               'Journal of Solid State Chemistry'
_journal_page_first              318
_journal_page_last               324
_journal_paper_doi               10.1016/j.jssc.2015.07.013
_journal_volume                  230
_journal_year                    2015
_chemical_formula_sum            'Au Bi2 Sm'
_chemical_formula_weight         765.28
_space_group_crystal_system      tetragonal
_space_group_IT_number           129
_space_group_name_Hall           '-P 4a 2a'
_space_group_name_H-M_alt        'P 4/n m m :2'
_atom_sites_solution_hydrogens   .
_audit_creation_method           SHELXL-2013
_cell_angle_alpha                90
_cell_angle_beta                 90
_cell_angle_gamma                90
_cell_formula_units_Z            2
_cell_length_a                   4.599(3)
_cell_length_b                   4.599(3)
_cell_length_c                   9.747(8)
_cell_measurement_reflns_used    91
_cell_measurement_temperature    301(2)
_cell_measurement_theta_max      27.16
_cell_measurement_theta_min      6.10
_cell_volume                     206.2(3)
_computing_cell_refinement       'Bruker SAINT'
_computing_data_collection       'Bruker APEX2'
_computing_data_reduction        'Bruker SAINT'
_computing_molecular_graphics    'Bruker SHELXTL'
_computing_publication_material  'Bruker SHELXTL'
_computing_structure_refinement  'SHELXL-2013 (Sheldrick, 2013)'
_computing_structure_solution    'SHELXS-97 (Sheldrick 2008)'
_diffrn_ambient_temperature      301(2)
_diffrn_measured_fraction_theta_full 0.982
_diffrn_measured_fraction_theta_max 0.965
_diffrn_measurement_device_type  'Bruker APEX-II CCD'
_diffrn_measurement_method       '\f and \w scans'
_diffrn_radiation_type           MoK\a
_diffrn_radiation_wavelength     0.71073
_diffrn_reflns_av_R_equivalents  0.1034
_diffrn_reflns_av_unetI/netI     0.0613
_diffrn_reflns_Laue_measured_fraction_full 0.982
_diffrn_reflns_Laue_measured_fraction_max 0.965
_diffrn_reflns_limit_h_max       6
_diffrn_reflns_limit_h_min       -5
_diffrn_reflns_limit_k_max       5
_diffrn_reflns_limit_k_min       -5
_diffrn_reflns_limit_l_max       13
_diffrn_reflns_limit_l_min       -12
_diffrn_reflns_number            1462
_diffrn_reflns_point_group_measured_fraction_full 0.982
_diffrn_reflns_point_group_measured_fraction_max 0.965
_diffrn_reflns_theta_full        25.242
_diffrn_reflns_theta_max         29.678
_diffrn_reflns_theta_min         4.901
_exptl_absorpt_coefficient_mu    134.371
_exptl_absorpt_correction_T_max  0.5479
_exptl_absorpt_correction_T_min  0.0790
_exptl_absorpt_correction_type   integration
_exptl_crystal_colour            Metallic
_exptl_crystal_density_diffrn    12.329
_exptl_crystal_density_method    'Not measured'
_exptl_crystal_description       Irregular
_exptl_crystal_F_000             614
_exptl_crystal_size_max          0.020
_exptl_crystal_size_mid          0.015
_exptl_crystal_size_min          0.009
_refine_diff_density_max         5.711
_refine_diff_density_min         -4.605
_refine_diff_density_rms         1.198
_refine_ls_extinction_coef       .
_refine_ls_extinction_method     none
_refine_ls_goodness_of_fit_ref   1.186
_refine_ls_hydrogen_treatment    undef
_refine_ls_matrix_type           full
_refine_ls_number_parameters     11
_refine_ls_number_reflns         175
_refine_ls_number_restraints     0
_refine_ls_restrained_S_all      1.186
_refine_ls_R_factor_all          0.0843
_refine_ls_R_factor_gt           0.0508
_refine_ls_shift/su_max          0.000
_refine_ls_shift/su_mean         0.000
_refine_ls_structure_factor_coef Fsqd
_refine_ls_weighting_details
'w=1/[\s^2^(Fo^2^)+(0.0645P)^2^+0.8180P] where P=(Fo^2^+2Fc^2^)/3'
_refine_ls_weighting_scheme      calc
_refine_ls_wR_factor_gt          0.1233
_refine_ls_wR_factor_ref         0.1350
_reflns_Friedel_coverage         0.000
_reflns_Friedel_fraction_full    .
_reflns_Friedel_fraction_max     .
_reflns_number_gt                126
_reflns_number_total             175
_reflns_threshold_expression     'I > 2\s(I)'
_cod_data_source_file            JSSC-2015-230-318.cif
_cod_data_source_block           mo_Liz405_0m
_cod_depositor_comments
;
The following automatic conversions were performed:

data item '_exptl_crystal_density_meas' value 'None' was changed to
'?' -- the value is perceived as not measured.

Automatic conversion script
Id: cif_fix_values 8369 2020-08-20 11:38:08Z andrius 
;
_cod_original_cell_volume        206.1(3)
_cod_original_sg_symbol_H-M      'P 4/n m m'
_cod_database_code               1561802
_shelx_space_group_comment
; 
The symmetry employed for this shelxl refinement is uniquely defined 
by the following loop, which should always be used as a source of 
symmetry information in preference to the above space-group names. 
They are only intended as comments. 
;
_shelxl_version_number           2013-4
_shelx_res_file
; 
TITL mo_Liz405_0m in P4/nmm 
CELL 0.71073   4.59890   4.59890   9.74690  90.0000  90.0000  90.0000 
ZERR    2.00   0.00310   0.00310   0.00840   0.0000   0.0000   0.0000 
LATT  1 
SYMM 0.5-X, 0.5-Y, Z 
SYMM 0.5-Y, X, Z 
SYMM Y, 0.5-X, Z 
SYMM -X, 0.5+Y, -Z 
SYMM 0.5+X, -Y, -Z 
SYMM 0.5+Y, 0.5+X, -Z 
SYMM -Y, -X, -Z 
SFAC SM AU BI 
UNIT 2  2  4 
TEMP 27.660 
  
L.S. 10 
ACTA 
  
WGHT    0.064500    0.818000 
FVAR       0.09434 
MOLE   1 
BI1   3    0.250000    0.250000    0.815282    10.12500    0.01053    0.01053 = 
         0.03732    0.00000    0.00000    0.00000 
SM2   1   -0.250000   -0.250000    0.763537    10.12500    0.01881    0.01881 = 
         0.01533    0.00000    0.00000    0.00000 
BI3   3    0.750000    0.250000    0.500000    10.12500    0.01597    0.01597 = 
         0.01776    0.00000    0.00000    0.00000 
AU4   2    0.750000    0.250000    0.000000    10.12500    0.02325    0.02325 = 
         0.02430    0.00000    0.00000    0.00000 
  
HKLF 4 
  
REM  mo_Liz405_0m in P4/nmm 
REM R1 =  0.0508 for     126 Fo > 4sig(Fo)  and  0.0843 for all     175 data 
REM     11 parameters refined using      0 restraints 
  
END 
  
WGHT      0.0645      0.8377 
  
REM Highest difference peak  5.711,  deepest hole -4.605,  1-sigma level  1.198 
Q1    1   0.2500  0.2500  0.9294  10.12500  0.05    5.71 
Q2    1   0.7500  0.2500  0.3876  10.25000  0.05    5.71 
Q3    1   0.2500  0.2500  1.0027  10.12500  0.05    5.09 
Q4    1  -0.4647 -0.0353  0.6879  10.50000  0.05    4.22 
Q5    1  -0.2500 -0.2500  0.6115  10.12500  0.05    3.76 
Q6    1   0.5983  0.0983  0.5000  10.50000  0.05    3.28 
Q7    1   0.6552  0.2500  0.1836  10.50000  0.05    3.23 
Q8    1   0.4139  0.2500  0.7435  10.50000  0.05    3.12 
Q9    1  -0.4131 -0.2500  0.6947  10.50000  0.05    3.07 
Q10   1  -0.3647 -0.1353  0.8063  10.50000  0.05    2.88 
Q11   1  -0.2500  0.0732  0.8197  10.50000  0.05    2.81 
Q12   1   0.5740  0.2500 -0.0361  10.50000  0.05    2.58 
Q13   1   0.3766  0.2500  0.5978  10.50000  0.05    2.48 
Q14   1   0.4853  0.0147  0.8738  10.50000  0.05    2.46 
Q15   1   0.3731  0.1269  0.4664  10.50000  0.05    2.29 
Q16   1   0.7500  0.0908  0.3177  10.50000  0.05    2.02 
Q17   1   0.4871  0.0878  0.0589  11.00000  0.05    1.98 
Q18   1   0.2500  0.1924  0.7847  10.50000  0.05    1.96 
Q19   1   0.7500  0.2500  0.1233  10.25000  0.05    1.87 
Q20   1   0.5939  0.2500  0.4482  10.50000  0.05    1.86 
;
_shelx_res_checksum              95545
_shelx_hkl_file
; 
   0   0   5  109.58   10.14 
   0   0   6  329.57   11.71 
   0   0   7   38.31    8.16 
   0   0   8  132.73   10.41 
   0   0  10  108.63   11.65 
   0   0  11   -4.22   10.16 
   0   0  12  103.77   13.13 
   0   0  13   53.63   15.45 
   1   0   0   -0.89    1.28 
   0   1  -1    5.72    1.05 
   1   0  -1    7.87    1.54 
   0  -1  -2  176.72   12.24 
   1   0  -2   64.45    3.11 
  -1   0  -3   20.38    2.62 
   0  -1  -3   48.68   12.40 
   0  -1  -3   34.04    4.17 
   0   1   3   19.45    3.69 
   1   0  -3   17.99    3.39 
  -1   0  -4   64.89    5.23 
   0  -1  -4  121.27   14.07 
   0   1   4   44.70    7.09 
   1   0   4   37.85    4.47 
   0  -1  -5  190.59   13.00 
   0   1   5   89.14   13.28 
   1   0  -5  158.40   13.22 
   1   0   5   86.78    8.46 
   0   1   6   -0.91   15.33 
   0   1   7  118.80   14.11 
   0   1   9   43.67   10.19 
  -1   0  10   47.57   12.37 
   0   1  10   28.01   10.61 
  -1   0  11    3.31   11.23 
  -1  -1   0    6.73    1.14 
   1   1   0    4.21    1.15 
  -1  -1  -1   52.93    1.88 
   1  -1  -1   66.96    4.03 
   1   1   1   50.09    1.91 
  -1  -1  -2 1793.49    9.88 
  -1  -1  -2 1488.23    7.60 
   1  -1  -2 2252.30   14.65 
   1   1   2 1466.59    7.59 
  -1  -1  -3  131.58    5.37 
  -1  -1  -3  116.14    3.92 
   1  -1  -3  179.83   10.33 
   1   1   3   98.07    3.53 
  -1  -1  -4  147.69    4.63 
   1  -1  -4  272.65   17.04 
   1   1   4   97.74    5.80 
  -1  -1  -5  136.55    6.34 
   1  -1  -5  250.09   22.90 
   1   1   5   88.78    6.93 
  -1  -1  -6  386.42   14.59 
  -1  -1  -6  290.39   10.91 
   1   1   6  164.38   10.54 
  -1  -1  -7   28.87   13.06 
   1  -1  -7    4.48    9.34 
   1   1   7   25.09   11.82 
  -1   1   8  190.49   10.55 
  -1   1   9   10.58    8.14 
  -1  -2   0    2.86    1.64 
   1   2   0    0.07    1.91 
  -1  -2  -1    6.14    3.72 
  -1  -2  -1    4.66    1.82 
  -1  -2   1    6.81    1.88 
   1   2  -1    7.73    2.40 
   1   2   1    4.44    2.10 
   2  -1  -1    6.36    2.86 
  -1  -2  -2   51.39    6.13 
  -1  -2  -2   38.14    2.92 
  -1  -2   2   42.94    2.89 
   1   2   2   38.97    3.07 
   2  -1  -2   45.83    4.82 
  -1  -2  -3   24.38    5.39 
  -1  -2  -3   13.70    2.83 
  -1  -2   3   14.71    2.84 
   1   2   3   18.12    2.78 
   2  -1  -3   22.82    4.80 
  -1  -2  -4   76.57    7.85 
  -1  -2   4   41.87    4.32 
   1   2   4   33.92    4.10 
   2  -1  -4   59.33    6.99 
  -1  -2  -5  125.95   12.01 
   1   2   5   67.73    5.62 
   2  -1  -5   91.77   10.06 
  -1  -2  -6   14.35   10.21 
  -1  -2  -6  -12.22    6.21 
   1   2   6    0.83    5.38 
   2  -1  -6   -7.37   11.62 
  -1  -2  -7  245.18   19.48 
  -1  -2  -7   95.81   11.30 
   1   2   7   49.73    9.03 
   2  -1  -7  129.74   18.81 
  -1  -2  -8   61.51   19.58 
   1   2   8    8.34   12.38 
   2  -1  -8   19.29   16.59 
  -1  -2  -9  107.06   16.28 
   1   2   9   23.27   21.15 
   2  -1  -9   41.81   12.96 
  -1  -2 -10   36.95   14.37 
   2  -1 -10   49.81   12.30 
  -1  -2 -11  -18.75   12.94 
   1   2  11   30.44   24.22 
   2  -1 -11    9.21   11.34 
  -1  -2 -12   28.83   13.78 
   2   0   0 1838.86    9.60 
   2   0  -1   20.17    2.68 
   2   0  -2   28.57    3.12 
   0  -2  -3  482.63   25.46 
   2   0  -3  159.59    5.55 
   0  -2  -4 1329.14   26.97 
   2   0  -4  575.15    9.10 
   0  -2  -5  153.32   16.98 
   0  -2  -6  355.20   16.73 
   0   2   6  152.37   10.78 
   2   0  -6  250.16   13.11 
   0  -2  -7   51.48   10.07 
   0   2   7   39.04   14.18 
   2   0  -7   25.40   13.70 
   0  -2  -8  129.13   13.03 
   0   2   8  111.09   26.34 
   0  -2  -9   11.92    9.20 
   0  -2 -10  113.97   13.34 
   0  -2 -11    4.82   10.59 
   0  -2 -12   93.75   12.67 
  -2  -1   2   41.87    2.86 
   2   1  -2   39.28    3.94 
  -2  -1  -3   22.95    3.44 
   1  -2  -3   38.17   12.98 
   2   1   4   39.33    3.91 
  -2  -1  -5   73.19    5.48 
   1  -2  -5  139.17   14.87 
  -2  -1  -7  118.34   10.54 
  -2  -1  -7  122.23   10.72 
   1  -2  -7  115.50   11.38 
   1  -2  -8   -0.92    9.14 
   1  -2  -9   46.07    9.95 
   2   1   9   63.70   18.65 
   1  -2 -10   34.43    9.96 
   1  -2 -11    1.33   10.30 
   1  -2 -12   10.97   11.30 
  -2  -2   0 1496.77    9.73 
   2   2   0 1537.27    9.91 
  -2  -2  -1    9.41    2.65 
  -2  -2  -2   19.23    4.18 
  -2  -2  -2   19.30    3.02 
  -2  -2   2   18.32    3.30 
  -2  -2  -3  140.41    7.00 
  -2  -2  -3  129.60    4.82 
  -2  -2   3  134.07    4.94 
   2   2   3   95.88    5.65 
  -2  -2  -4  467.62    9.88 
  -2  -2  -4  424.44    7.59 
  -2  -2   4  415.65    7.72 
   2  -2  -4  489.82   14.01 
   2   2   4  361.23    7.53 
  -2  -2  -5   79.64    8.16 
  -2  -2  -5   54.73    5.61 
  -2  -2   5   53.84    6.47 
   2  -2  -5   75.03   11.98 
   2   2   5   47.57    5.67 
  -2  -2  -6  214.94   10.54 
   2  -2  -6  245.35   21.35 
   2   2   6  123.32    8.03 
  -2  -2  -7   35.02    8.78 
  -2  -2  -7   34.25    8.52 
   2  -2  -7   48.87   18.54 
  -2  -2  -8  106.69   12.64 
  -2  -2  -9   16.60   15.00 
  -2  -2  -9    9.70   18.91 
   2  -2  -9   25.96   13.15 
   2  -2 -10   74.73   12.22 
   2   2  10   68.50   24.28 
  -2  -2 -11   -4.56   21.69 
   2  -2 -11    8.19   11.98 
  -2  -2 -12   94.56   20.94 
   2  -2 -12   34.78   13.66 
  -2  -3   0    5.14    3.69 
   2   3   0    0.62    3.43 
  -2  -3  -1    6.46    3.74 
  -2  -3   1   12.58    4.36 
   2   3   1    8.50    3.44 
  -2  -3  -2   24.82    4.65 
  -2  -3   2   36.28    5.02 
   2   3   2   35.72    4.25 
  -2  -3  -3   15.02    4.63 
   2   3   3   11.35    3.89 
   3  -2  -3    8.26    5.63 
  -2  -3  -4   38.95    7.43 
  -2  -3   4   28.90    5.78 
   2   3   4   33.70    4.55 
   3  -2  -4   32.77    7.09 
  -2  -3  -5   88.78   10.81 
  -2  -3   5   58.24    7.83 
   3  -2  -5   42.91    8.97 
   2   3   6   -0.32    5.88 
   3  -2  -6   10.65   11.22 
  -2  -3   8    9.81   13.12 
   2   3   8   12.91    9.49 
  -2  -3  -9   56.98   21.23 
   2   3   9   37.87   15.10 
   3  -2  -9   43.94   20.75 
  -2  -3 -10   62.08   28.18 
   2   3  10  -15.82   22.58 
   3  -2 -10   24.89   16.79 
  -2  -3 -11   44.17   25.12 
   2   3  11    2.96   42.94 
   3  -2 -11   -0.02   16.73 
  -1  -3   0    2.96    2.92 
   1   3   0    3.35    2.45 
   3  -1   0    9.70    4.40 
  -1  -3   1   34.62    3.92 
   3  -1  -2  821.12   10.02 
  -1  -3  -3  102.01   10.44 
   3  -1  -3   53.48    6.41 
  -1  -3  -4  143.45   14.16 
  -1  -3   4   76.25    5.81 
   1   3   4   70.78    5.19 
   3  -1  -4   70.72    7.82 
  -1  -3  -5  144.31   16.24 
   1   3   5   70.20    6.05 
   3  -1  -5   81.45    9.56 
  -1  -3  -6  278.10   21.84 
   1   3   6  122.30    7.93 
   3  -1  -6  140.22   12.74 
  -1  -3   7    5.79    7.66 
   1   3   7    8.35    7.43 
   3  -1  -7   22.72   12.46 
   1   3   8   73.68   12.48 
   3  -1  -8  207.01   24.10 
   3  -1  -9    6.76   25.74 
  -1  -3 -10   99.81   16.89 
   3  -1 -10   51.37   19.69 
  -1  -3 -11   -6.46   15.67 
   1   3  11   22.82   62.71 
   3  -1 -11    5.48   16.10 
   3   0   0   -0.27    3.64 
   3   0  -1    7.18    3.70 
   3   0  -2   37.33    4.41 
   3   0  -3   13.29    4.32 
   3   0  -4   27.87    5.18 
   0  -3  -5  118.48   14.69 
   3   0  -5   64.17    7.95 
   0  -3  -6   -1.03   10.84 
   3   0  -6    9.78    7.57 
   0  -3  -7  105.81   13.03 
   3   0  -7   76.48   11.48 
   0  -3 -10   20.43   11.62 
   3   0 -10   11.69   28.71 
   0  -3 -11    3.98   11.86 
   0  -3 -12   15.53   14.55 
   3   1  -2  765.44    9.58 
   3   1  -3   59.09    5.44 
  -3  -1  -4   67.71    5.04 
  -3  -1  -5   95.85    6.83 
   1  -3  -5  162.25   15.96 
  -3  -1  -6  146.96    8.03 
   1  -3  -6  185.76   15.76 
   1  -3  -7    5.58   10.58 
  -3  -1  -9   26.40   19.72 
   1  -3 -10   60.56   12.13 
   1  -3 -11   -3.22   11.72 
  -3  -2   0   -1.43    3.16 
  -3  -2   1    1.78    3.54 
  -3  -2  -2   38.16    4.08 
  -3  -2  -3   12.10    4.57 
  -3  -2  -3    3.91    3.89 
  -3  -2   3    5.64    4.09 
  -3  -2  -4   40.24    5.43 
  -3  -2  -4   36.13    5.13 
  -3  -2   4   37.96    5.33 
  -3  -2  -5   54.86    6.54 
  -3  -2  -5   51.92    6.44 
   2  -3  -5   69.24   15.33 
   2  -3  -6    6.28   18.14 
  -3  -2  -7   87.27    9.06 
  -3  -2  -7   57.36   10.04 
  -3  -2  -8   -6.01    9.24 
   2  -3  -8   17.90   20.28 
  -3  -2  -9   45.62   13.16 
   2  -3  -9   39.96   13.50 
  -3  -2 -10   55.67   17.54 
   2  -3 -10   16.03   12.85 
   2  -3 -11   23.70   14.19 
  -3  -3   0    1.80    7.68 
  -3  -3  -1   43.30    5.93 
  -3  -3  -2  525.14   10.80 
  -3  -3  -2  470.52    9.73 
  -3  -3  -3   42.51    6.48 
  -3  -3  -4   60.21    7.35 
  -3  -3  -4   61.33    7.26 
  -3  -3   4   56.25    7.58 
  -3  -3   5   63.74    8.84 
   3  -3  -5   61.80   11.35 
   3   3   5   66.79    6.93 
  -3  -3   6  103.89   12.78 
   3   3   6   71.63    8.05 
   3  -3  -7   24.88   18.91 
   3   3   7    4.87    8.86 
  -3  -3  -8  123.94   14.80 
   3  -3  -8  112.74   27.08 
  -3  -3  -9   -4.44   16.28 
   3  -3  -9   14.33   21.39 
  -3  -3 -10  106.34   24.90 
   3  -3 -10   47.91   19.77 
  -3  -4  -1    1.33    7.28 
  -3  -4   1   -1.29    7.27 
  -3  -4  -2   16.99   10.11 
  -3  -4   2   15.73    7.95 
  -3  -4  -3   13.45    9.03 
   3   4   3   13.94    6.74 
  -3  -4  -4   16.09    9.98 
  -3  -4   4   10.15   16.95 
  -3  -4  -5   41.38   11.34 
   4  -3  -5   16.72   11.02 
  -3  -4  -6    2.52   12.57 
   4  -3  -6   13.37   13.10 
  -3  -4  -7   67.72   16.47 
   4  -3  -7   45.92   18.51 
  -3  -4  -8   -4.95   20.79 
   4  -3  -8   14.67   25.73 
   2   4  -1   74.97    6.06 
   2   4   1    2.04    4.52 
  -2  -4   2   17.26    5.76 
   2   4   2   10.08    5.17 
   4  -2  -2   12.85    5.64 
   4  -2  -3   74.34    7.56 
  -2  -4  -4  237.58   15.72 
  -2  -4   4  160.00   10.95 
  -2  -4  -6  138.04   17.01 
   2   4   6   79.39    8.78 
   4  -2  -6   74.86   11.47 
  -2  -4  -7   34.18   18.44 
   4  -2  -7   24.00   14.31 
  -2  -4  -8  115.19   26.04 
   4  -2  -8   31.57   19.23 
  -2  -4  -9    0.56   36.59 
   2   4   9    6.58   18.24 
   4  -2  -9    5.91   29.52 
   1   4   0    2.78    3.53 
   1   4   1    2.33    3.67 
   4  -1  -1    6.97    4.81 
   1   4   2   28.09    4.45 
   4  -1  -2   20.82    5.51 
   4  -1  -3    7.65    5.42 
  -1  -4  -4   45.80   17.80 
   4  -1  -4   33.38    6.99 
  -1  -4  -5   64.63   21.07 
  -1  -4  -7  125.49   22.67 
   1   4   7   25.17    9.74 
  -1  -4  -8   -1.90   17.71 
   4  -1  -8  -30.36   16.57 
  -1  -4  -9   37.97   18.82 
   4  -1  -9   28.92   24.97 
  -1  -4 -10   22.71   18.49 
   4  -1 -10   83.68   39.18 
   4   0  -1   32.86    5.24 
   4   0  -2    7.23    5.14 
   4   0  -3   63.74    7.42 
   4   0  -4  220.15    9.21 
   0  -4  -5   47.57   14.80 
   4   0  -5   33.14    7.28 
   0  -4  -6  136.70   15.22 
   4   0  -6   93.08   11.29 
   4   0  -7    6.07   11.01 
   0  -4  -8   71.00   13.55 
   4   0  -8   49.61   16.07 
   0  -4  -9    6.64   13.81 
   4   0  -9  -18.02   24.02 
   0  -4 -10   51.02   16.30 
   4   1  -3    3.71    5.91 
  -4  -1  -5   38.85    5.77 
   1  -4  -7   57.12   14.02 
   1  -4  -8   -2.91   12.75 
   1  -4  -9   12.18   13.93 
   1  -4 -10   23.17   15.20 
  -4  -2  -1   23.44    4.83 
  -4  -2   2    6.70    5.52 
  -4  -2  -4  190.95    9.17 
  -4  -2   4  172.75    9.59 
  -4  -2  -5   36.25    7.00 
  -4  -2  -6  104.00    9.43 
  -4  -2  -7   25.46    8.45 
   2  -4  -7   53.86   21.55 
  -4  -2  -8   54.22   10.95 
   2  -4  -8   53.36   17.48 
  -4  -2  -9  -10.70   12.55 
   2  -4  -9   -0.87   16.78 
  -4  -3   0    8.49    6.98 
  -4  -3   2   20.17    8.69 
  -4  -3  -3    7.16    6.51 
  -4  -3  -4   -6.76    7.76 
  -4  -3   4   15.24   10.71 
  -4  -3  -5   23.97    8.44 
  -4  -3  -5   34.95   11.47 
  -4  -3  -6   -8.70    9.09 
  -4  -3  -6   10.29   15.53 
  -4  -3   6    0.13   13.09 
   3  -4  -6  -19.11   17.59 
  -4  -3  -7   34.99   11.48 
   3  -4  -7   35.76   23.92 
  -4  -3  -8   -5.83   13.44 
   3  -4  -8  -32.75   33.54 
  -4  -4   0  295.71   13.42 
  -4  -4   1    5.02   11.75 
  -4  -4  -2   -1.11    9.28 
  -4  -4  -2  -14.24   12.60 
  -4  -4   2   23.95   12.51 
  -4  -4  -3   61.96   10.37 
  -4  -4  -4  114.61   13.16 
  -4  -4  -5   29.02   13.04 
   4  -4  -5   11.40   13.22 
  -4  -4  -6   66.12   15.35 
   4  -4  -6   37.44   18.28 
   3   5   1   40.86    9.74 
   5  -3  -3   18.47    9.83 
   3   5   4   13.69   11.76 
   5  -3  -4   30.33   11.42 
  -3  -5  -5   49.72   21.55 
   5  -3  -5   21.31   13.95 
   2   5   3    1.37    7.85 
   5  -2  -3    6.82    8.66 
  -2  -5  -4    7.57   21.36 
   2   5   4   18.60    9.14 
   5  -2  -4   22.90    9.44 
  -2  -5  -5   44.09   25.05 
   2   5   5   21.18   10.21 
   5  -2  -5   29.38   11.10 
  -2  -5  -6   -5.67   28.36 
   5  -2  -6  -13.04   13.50 
  -2  -5  -7   41.13   39.14 
   5  -2  -7   24.88   17.67 
   5  -1  -3   21.91    7.84 
   5  -1  -4   34.41    9.16 
  -1  -5  -5   88.85   27.26 
   5  -1  -5   39.07   10.24 
  -1  -5  -6  122.20   24.64 
   5  -1  -6   51.85   11.69 
  -1  -5  -7   18.46   21.87 
   5  -1  -7  -11.64   14.79 
  -1  -5  -8   61.83   23.79 
   5  -1  -8   52.89   21.81 
   5   0  -5   17.39    9.49 
   5   0  -6    5.17   11.38 
  -5   0  -7   26.11    9.18 
   0  -5  -7   46.44   16.87 
   5   0  -7   19.89   14.78 
  -5   0  -8   21.67   10.78 
   0  -5  -8   30.06   18.50 
   5   0  -8   -7.82   20.13 
  -5  -1  -5   39.66    7.24 
   5   1  -5   46.00   10.44 
  -5  -1  -6   64.88    8.85 
   1  -5  -6   81.55   22.55 
   5   1  -6   42.41   12.52 
  -5  -1  -7   -3.44    8.64 
   1  -5  -7   -1.70   18.11 
   5   1  -7   -9.36   14.33 
  -5  -1  -8   66.31   11.68 
   1  -5  -8   67.35   20.30 
   5   1  -8   23.55   24.24 
  -5  -2  -4   12.66    7.15 
  -5  -2  -4    5.09    9.78 
  -5  -2  -5   25.01    8.14 
  -5  -2  -6   -4.90    8.70 
  -5  -2  -7   45.43   11.83 
  -5  -3  -2  165.00   11.99 
  -5  -3  -3   19.18    8.77 
  -5  -3  -4   24.26   11.10 
  -5  -3  -5   31.64   11.05 
   6  -1  -3    2.37   12.35 
   6  -1  -4   13.59   13.86 
   0   0   0    0.00    0.00 
;
_shelx_hkl_checksum              35028
loop_
_space_group_symop_operation_xyz
'x, y, z'
'-x+1/2, -y+1/2, z'
'-y+1/2, x, z'
'y, -x+1/2, z'
'-x, y+1/2, -z'
'x+1/2, -y, -z'
'y+1/2, x+1/2, -z'
'-y, -x, -z'
'-x, -y, -z'
'x-1/2, y-1/2, -z'
'y-1/2, -x, -z'
'-y, x-1/2, -z'
'x, -y-1/2, z'
'-x-1/2, y, z'
'-y-1/2, -x-1/2, z'
'y, x, z'
loop_
_atom_site_label
_atom_site_type_symbol
_atom_site_fract_x
_atom_site_fract_y
_atom_site_fract_z
_atom_site_U_iso_or_equiv
_atom_site_adp_type
_atom_site_occupancy
_atom_site_site_symmetry_order
_atom_site_calc_flag
_atom_site_refinement_flags_posn
_atom_site_refinement_flags_adp
_atom_site_refinement_flags_occupancy
_atom_site_disorder_assembly
_atom_site_disorder_group
Bi1 Bi 0.2500 0.2500 0.8153(6) 0.0195(12) Uani 1 8 d S T P . .
Sm2 Sm -0.2500 -0.2500 0.7635(7) 0.0176(14) Uani 1 8 d S T P . .
Bi3 Bi 0.7500 0.2500 0.5000 0.0166(11) Uani 1 8 d S T P . .
Au4 Au 0.7500 0.2500 0.0000 0.0236(13) Uani 1 8 d S T P . .
loop_
_atom_site_aniso_label
_atom_site_aniso_U_11
_atom_site_aniso_U_22
_atom_site_aniso_U_33
_atom_site_aniso_U_23
_atom_site_aniso_U_13
_atom_site_aniso_U_12
Bi1 0.0105(14) 0.0105(14) 0.037(3) 0.000 0.000 0.000
Sm2 0.0188(18) 0.0188(18) 0.015(3) 0.000 0.000 0.000
Bi3 0.0160(14) 0.0160(14) 0.018(2) 0.000 0.000 0.000
Au4 0.0233(16) 0.0233(16) 0.024(3) 0.000 0.000 0.000
loop_
_atom_type_symbol
_atom_type_description
_atom_type_scat_dispersion_real
_atom_type_scat_dispersion_imag
_atom_type_scat_source
Sm Sm -0.1638 3.4418 'International Tables Vol C Tables 4.2.6.8 and 6.1.1.4'
Au Au -2.0133 8.8022 'International Tables Vol C Tables 4.2.6.8 and 6.1.1.4'
Bi Bi -4.1077 10.2566 'International Tables Vol C Tables 4.2.6.8 and 6.1.1.4'
loop_
_geom_angle_atom_site_label_1
_geom_angle_atom_site_label_2
_geom_angle_atom_site_label_3
_geom_angle
_geom_angle_site_symmetry_1
_geom_angle_site_symmetry_3
Au4 Bi1 Au4 67.66(10) 9_666 1_556
Au4 Bi1 Au4 103.88(19) 9_666 9_656
Au4 Bi1 Au4 67.66(10) 1_556 9_656
Au4 Bi1 Au4 67.66(10) 9_666 1_456
Au4 Bi1 Au4 103.88(19) 1_556 1_456
Au4 Bi1 Au4 67.66(10) 9_656 1_456
Au4 Bi1 Sm2 130.14(11) 9_666 .
Au4 Bi1 Sm2 130.14(11) 1_556 .
Au4 Bi1 Sm2 62.89(9) 9_656 .
Au4 Bi1 Sm2 62.89(9) 1_456 .
Au4 Bi1 Sm2 62.89(9) 9_666 1_665
Au4 Bi1 Sm2 62.89(9) 1_556 1_665
Au4 Bi1 Sm2 130.14(11) 9_656 1_665
Au4 Bi1 Sm2 130.14(11) 1_456 1_665
Sm2 Bi1 Sm2 162.4(3) . 1_665
Au4 Bi1 Sm2 130.14(11) 9_666 1_655
Au4 Bi1 Sm2 62.89(9) 1_556 1_655
Au4 Bi1 Sm2 62.89(9) 9_656 1_655
Au4 Bi1 Sm2 130.14(11) 1_456 1_655
Sm2 Bi1 Sm2 88.65(4) . 1_655
Sm2 Bi1 Sm2 88.65(4) 1_665 1_655
Au4 Bi1 Sm2 62.89(9) 9_666 1_565
Au4 Bi1 Sm2 130.14(11) 1_556 1_565
Au4 Bi1 Sm2 130.14(11) 9_656 1_565
Au4 Bi1 Sm2 62.89(9) 1_456 1_565
Sm2 Bi1 Sm2 88.65(4) . 1_565
Sm2 Bi1 Sm2 88.65(4) 1_665 1_565
Sm2 Bi1 Sm2 162.4(3) 1_655 1_565
Au4 Sm2 Au4 59.92(10) 9_656 1_456
Au4 Sm2 Au4 89.87(18) 9_656 9_556
Au4 Sm2 Au4 59.92(10) 1_456 9_556
Au4 Sm2 Au4 59.92(10) 9_656 1_446
Au4 Sm2 Au4 89.87(18) 1_456 1_446
Au4 Sm2 Au4 59.92(10) 9_556 1_446
Au4 Sm2 Bi1 52.99(8) 9_656 .
Au4 Sm2 Bi1 52.99(8) 1_456 .
Au4 Sm2 Bi1 112.65(15) 9_556 .
Au4 Sm2 Bi1 112.65(15) 1_446 .
Au4 Sm2 Bi1 112.64(15) 9_656 1_445
Au4 Sm2 Bi1 112.64(15) 1_456 1_445
Au4 Sm2 Bi1 52.99(8) 9_556 1_445
Au4 Sm2 Bi1 52.99(8) 1_446 1_445
Bi1 Sm2 Bi1 162.4(3) . 1_445
Au4 Sm2 Bi1 52.99(8) 9_656 1_545
Au4 Sm2 Bi1 112.64(15) 1_456 1_545
Au4 Sm2 Bi1 112.64(15) 9_556 1_545
Au4 Sm2 Bi1 52.99(8) 1_446 1_545
Bi1 Sm2 Bi1 88.65(4) . 1_545
Bi1 Sm2 Bi1 88.65(4) 1_445 1_545
Au4 Sm2 Bi1 112.64(15) 9_656 1_455
Au4 Sm2 Bi1 52.99(8) 1_456 1_455
Au4 Sm2 Bi1 52.99(8) 9_556 1_455
Au4 Sm2 Bi1 112.64(15) 1_446 1_455
Bi1 Sm2 Bi1 88.65(4) . 1_455
Bi1 Sm2 Bi1 88.65(4) 1_445 1_455
Bi1 Sm2 Bi1 162.4(3) 1_545 1_455
Au4 Sm2 Bi3 121.83(4) 9_656 1_445
Au4 Sm2 Bi3 176.90(16) 1_456 1_445
Au4 Sm2 Bi3 121.83(4) 9_556 1_445
Au4 Sm2 Bi3 93.23(6) 1_446 1_445
Bi1 Sm2 Bi3 125.47(13) . 1_445
Bi1 Sm2 Bi3 69.40(9) 1_445 1_445
Bi1 Sm2 Bi3 69.40(9) 1_545 1_445
Bi1 Sm2 Bi3 125.47(13) 1_455 1_445
Au4 Sm2 Bi3 176.90(16) 9_656 9_556
Au4 Sm2 Bi3 121.83(4) 1_456 9_556
Au4 Sm2 Bi3 93.23(6) 9_556 9_556
Au4 Sm2 Bi3 121.83(4) 1_446 9_556
Bi1 Sm2 Bi3 125.47(13) . 9_556
Bi1 Sm2 Bi3 69.40(9) 1_445 9_556
Bi1 Sm2 Bi3 125.47(13) 1_545 9_556
Bi1 Sm2 Bi3 69.40(9) 1_455 9_556
Bi3 Sm2 Bi3 56.28(10) 1_445 9_556
Au4 Sm2 Bi3 93.23(6) 9_656 9_656
Au4 Sm2 Bi3 121.83(4) 1_456 9_656
Au4 Sm2 Bi3 176.90(16) 9_556 9_656
Au4 Sm2 Bi3 121.83(4) 1_446 9_656
Bi1 Sm2 Bi3 69.40(9) . 9_656
Bi1 Sm2 Bi3 125.47(13) 1_445 9_656
Bi1 Sm2 Bi3 69.40(9) 1_545 9_656
Bi1 Sm2 Bi3 125.47(13) 1_455 9_656
Bi3 Sm2 Bi3 56.28(10) 1_445 9_656
Bi3 Sm2 Bi3 83.67(16) 9_556 9_656
Au4 Sm2 Bi3 121.83(4) 9_656 1_455
Au4 Sm2 Bi3 93.23(6) 1_456 1_455
Au4 Sm2 Bi3 121.83(4) 9_556 1_455
Au4 Sm2 Bi3 176.90(16) 1_446 1_455
Bi1 Sm2 Bi3 69.40(9) . 1_455
Bi1 Sm2 Bi3 125.47(13) 1_445 1_455
Bi1 Sm2 Bi3 125.47(13) 1_545 1_455
Bi1 Sm2 Bi3 69.40(9) 1_455 1_455
Bi3 Sm2 Bi3 83.67(16) 1_445 1_455
Bi3 Sm2 Bi3 56.28(10) 9_556 1_455
Bi3 Sm2 Bi3 56.28(10) 9_656 1_455
Bi3 Bi3 Bi3 180.0 9_766 9_656
Bi3 Bi3 Bi3 90.0 9_766 9_666
Bi3 Bi3 Bi3 90.0 9_656 9_666
Bi3 Bi3 Bi3 90.0 9_766 9_756
Bi3 Bi3 Bi3 90.0 9_656 9_756
Bi3 Bi3 Bi3 180.0 9_666 9_756
Bi3 Bi3 Sm2 118.14(5) 9_766 9_556
Bi3 Bi3 Sm2 61.86(5) 9_656 9_556
Bi3 Bi3 Sm2 61.86(5) 9_666 9_556
Bi3 Bi3 Sm2 118.14(5) 9_756 9_556
Bi3 Bi3 Sm2 61.86(5) 9_766 1_665
Bi3 Bi3 Sm2 118.14(5) 9_656 1_665
Bi3 Bi3 Sm2 61.86(5) 9_666 1_665
Bi3 Bi3 Sm2 118.14(5) 9_756 1_665
Sm2 Bi3 Sm2 123.72(10) 9_556 1_665
Bi3 Bi3 Sm2 118.14(5) 9_766 1_655
Bi3 Bi3 Sm2 61.86(5) 9_656 1_655
Bi3 Bi3 Sm2 118.14(5) 9_666 1_655
Bi3 Bi3 Sm2 61.86(5) 9_756 1_655
Sm2 Bi3 Sm2 123.72(10) 9_556 1_655
Sm2 Bi3 Sm2 83.67(16) 1_665 1_655
Bi3 Bi3 Sm2 61.86(5) 9_766 9_656
Bi3 Bi3 Sm2 118.14(5) 9_656 9_656
Bi3 Bi3 Sm2 118.14(5) 9_666 9_656
Bi3 Bi3 Sm2 61.86(5) 9_756 9_656
Sm2 Bi3 Sm2 83.67(16) 9_556 9_656
Sm2 Bi3 Sm2 123.72(10) 1_665 9_656
Sm2 Bi3 Sm2 123.72(10) 1_655 9_656
Bi1 Au4 Bi1 112.34(10) 9_666 1_554
Bi1 Au4 Bi1 112.34(10) 9_666 1_654
Bi1 Au4 Bi1 103.88(19) 1_554 1_654
Bi1 Au4 Bi1 103.88(19) 9_666 9_656
Bi1 Au4 Bi1 112.34(10) 1_554 9_656
Bi1 Au4 Bi1 112.34(10) 1_654 9_656
Bi1 Au4 Au4 56.17(5) 9_666 9_765
Bi1 Au4 Au4 123.83(5) 1_554 9_765
Bi1 Au4 Au4 56.17(5) 1_654 9_765
Bi1 Au4 Au4 123.83(5) 9_656 9_765
Bi1 Au4 Au4 123.83(5) 9_666 9_655
Bi1 Au4 Au4 56.17(5) 1_554 9_655
Bi1 Au4 Au4 123.83(5) 1_654 9_655
Bi1 Au4 Au4 56.17(5) 9_656 9_655
Au4 Au4 Au4 180.0 9_765 9_655
Bi1 Au4 Au4 56.17(5) 9_666 9_665
Bi1 Au4 Au4 56.17(5) 1_554 9_665
Bi1 Au4 Au4 123.83(5) 1_654 9_665
Bi1 Au4 Au4 123.83(5) 9_656 9_665
Au4 Au4 Au4 90.0 9_765 9_665
Au4 Au4 Au4 90.0 9_655 9_665
Bi1 Au4 Au4 123.83(5) 9_666 9_755
Bi1 Au4 Au4 123.83(5) 1_554 9_755
Bi1 Au4 Au4 56.17(5) 1_654 9_755
Bi1 Au4 Au4 56.17(5) 9_656 9_755
Au4 Au4 Au4 90.0 9_765 9_755
Au4 Au4 Au4 90.0 9_655 9_755
Au4 Au4 Au4 180.0 9_665 9_755
Bi1 Au4 Sm2 172.99(10) 9_666 1_654
Bi1 Au4 Sm2 64.12(8) 1_554 1_654
Bi1 Au4 Sm2 64.12(8) 1_654 1_654
Bi1 Au4 Sm2 83.13(15) 9_656 1_654
Au4 Au4 Sm2 119.96(5) 9_765 1_654
Au4 Au4 Sm2 60.04(5) 9_655 1_654
Au4 Au4 Sm2 119.96(5) 9_665 1_654
Au4 Au4 Sm2 60.04(5) 9_755 1_654
Bi1 Au4 Sm2 64.12(8) 9_666 9_656
Bi1 Au4 Sm2 172.99(10) 1_554 9_656
Bi1 Au4 Sm2 83.13(15) 1_654 9_656
Bi1 Au4 Sm2 64.12(8) 9_656 9_656
Au4 Au4 Sm2 60.04(5) 9_765 9_656
Au4 Au4 Sm2 119.96(5) 9_655 9_656
Au4 Au4 Sm2 119.96(5) 9_665 9_656
Au4 Au4 Sm2 60.04(5) 9_755 9_656
Sm2 Au4 Sm2 120.08(10) 1_654 9_656
Bi1 Au4 Sm2 83.13(15) 9_666 1_664
Bi1 Au4 Sm2 64.12(8) 1_554 1_664
Bi1 Au4 Sm2 64.12(8) 1_654 1_664
Bi1 Au4 Sm2 172.99(10) 9_656 1_664
Au4 Au4 Sm2 60.04(5) 9_765 1_664
Au4 Au4 Sm2 119.96(5) 9_655 1_664
Au4 Au4 Sm2 60.04(5) 9_665 1_664
Au4 Au4 Sm2 119.96(5) 9_755 1_664
Sm2 Au4 Sm2 89.87(18) 1_654 1_664
Sm2 Au4 Sm2 120.08(10) 9_656 1_664
Bi1 Au4 Sm2 64.12(8) 9_666 9_556
Bi1 Au4 Sm2 83.13(15) 1_554 9_556
Bi1 Au4 Sm2 172.99(10) 1_654 9_556
Bi1 Au4 Sm2 64.12(8) 9_656 9_556
Au4 Au4 Sm2 119.96(5) 9_765 9_556
Au4 Au4 Sm2 60.04(5) 9_655 9_556
Au4 Au4 Sm2 60.04(5) 9_665 9_556
Au4 Au4 Sm2 119.96(5) 9_755 9_556
Sm2 Au4 Sm2 120.08(10) 1_654 9_556
Sm2 Au4 Sm2 89.87(18) 9_656 9_556
Sm2 Au4 Sm2 120.08(10) 1_664 9_556
loop_
_geom_bond_atom_site_label_1
_geom_bond_atom_site_label_2
_geom_bond_distance
_geom_bond_site_symmetry_2
Bi1 Au4 2.920(4) 9_666
Bi1 Au4 2.920(4) 1_556
Bi1 Au4 2.920(4) 9_656
Bi1 Au4 2.920(4) 1_456
Bi1 Sm2 3.291(2) .
Bi1 Sm2 3.291(2) 1_665
Bi1 Sm2 3.291(2) 1_655
Bi1 Sm2 3.291(2) 1_565
Sm2 Au4 3.256(5) 9_656
Sm2 Au4 3.256(5) 1_456
Sm2 Au4 3.256(5) 9_556
Sm2 Au4 3.256(5) 1_446
Sm2 Bi1 3.291(2) 1_445
Sm2 Bi1 3.291(2) 1_545
Sm2 Bi1 3.291(2) 1_455
Sm2 Bi3 3.448(5) 1_445
Sm2 Bi3 3.448(5) 9_556
Sm2 Bi3 3.448(5) 9_656
Sm2 Bi3 3.448(5) 1_455
Bi3 Bi3 3.252(2) 9_766
Bi3 Bi3 3.252(2) 9_656
Bi3 Bi3 3.252(2) 9_666
Bi3 Bi3 3.252(2) 9_756
Bi3 Sm2 3.448(5) 9_556
Bi3 Sm2 3.448(5) 1_665
Bi3 Sm2 3.448(5) 1_655
Bi3 Sm2 3.448(5) 9_656
Au4 Bi1 2.920(4) 9_666
Au4 Bi1 2.920(4) 1_554
Au4 Bi1 2.920(4) 1_654
Au4 Bi1 2.920(4) 9_656
Au4 Au4 3.252(2) 9_765
Au4 Au4 3.252(2) 9_655
Au4 Au4 3.252(2) 9_665
Au4 Au4 3.252(2) 9_755
Au4 Sm2 3.256(5) 1_654
Au4 Sm2 3.256(5) 9_656
Au4 Sm2 3.256(5) 1_664
Au4 Sm2 3.256(5) 9_556
