#------------------------------------------------------------------------------
#$Date: 2021-04-14 13:18:46 +0300 (Wed, 14 Apr 2021) $
#$Revision: 264164 $
#$URL: file:///home/coder/svn-repositories/cod/cif/1/56/17/1561769.cif $
#------------------------------------------------------------------------------
#
# This file is available in the Crystallography Open Database (COD),
# http://www.crystallography.net/
#
# All data on this site have been placed in the public domain by the
# contributors.
#
data_1561769
loop_
_publ_author_name
'Bykova, E.'
'Gou, H.'
'Bykov, M.'
'Hanfland, M.'
'Dubrovinsky, L.'
'Dubrovinskaia, N.'
_publ_section_title
;
 Crystal structures and compressibility of novel iron borides Fe2B7 and Fe
 B50 synthesized at high pressure and high temperature
;
_journal_name_full               'Journal of Solid State Chemistry'
_journal_page_first              102
_journal_page_last               109
_journal_paper_doi               10.1016/j.jssc.2015.06.040
_journal_volume                  230
_journal_year                    2015
_chemical_absolute_configuration .
_chemical_formula_moiety         'B50 Fe1.01'
_chemical_formula_sum            'B50 Fe1.01'
_chemical_formula_weight         596.9
_chemical_name_common            'Iron Boron (1.01/50)'
_chemical_name_systematic        'Iron Boron (1.01/50)'
_space_group_IT_number           134
_space_group_name_Hall           '-P 4ac 2bc'
_space_group_name_H-M_alt        'P 42/n n m :2'
_symmetry_cell_setting           tetragonal
_symmetry_Int_Tables_number      134
_symmetry_space_group_name_Hall  '-P 4ac 2bc'
_symmetry_space_group_name_H-M   'P 42/n n m :2'
_cell_angle_alpha                90
_cell_angle_beta                 90
_cell_angle_gamma                90
_cell_formula_units_Z            1
_cell_length_a                   8.8236(2)
_cell_length_b                   8.8236(2)
_cell_length_c                   4.97100(10)
_cell_measurement_reflns_used    467
_cell_measurement_temperature    293
_cell_measurement_theta_max      19.15
_cell_measurement_theta_min      2.69
_cell_volume                     387.022(15)
_computing_cell_refinement
;
CrysAlisPro, Agilent Technologies,
Version 1.171.37.35 (release 13-08-2014 CrysAlis171 .NET)
(compiled Aug 13 2014,18:06:01)
;
_computing_data_collection
;
CrysAlisPro, Agilent Technologies,
Version 1.171.37.35 (release 13-08-2014 CrysAlis171 .NET)
(compiled Aug 13 2014,18:06:01)
;
_computing_data_reduction
;
CrysAlisPro, Agilent Technologies,
Version 1.171.37.35 (release 13-08-2014 CrysAlis171 .NET)
(compiled Aug 13 2014,18:06:01)
;
_computing_structure_refinement  'Jana2006 (Petricek, 2014)'
_computing_structure_solution    'SHELXS-2013 (Sheldrick, 2013)'
_diffrn_ambient_pressure         9700000
_diffrn_ambient_temperature      293
_diffrn_detector                 'MAR555 flatpanel detector'
_diffrn_measured_fraction_theta_full 0.93
_diffrn_measured_fraction_theta_max 0.67
_diffrn_measurement_device
;
customized omega-circle diffractometer
;
_diffrn_measurement_device_type  'ESRF, beamline ID09A diffractometer'
_diffrn_measurement_method       '\w scans'
_diffrn_radiation_monochromator  synchrotron
_diffrn_radiation_probe          x-ray
_diffrn_radiation_source         synchrotron
_diffrn_radiation_type           synchrotron
_diffrn_radiation_wavelength     0.41441
_diffrn_reflns_av_R_equivalents  0.0354
_diffrn_reflns_av_unetI/netI     0.0343
_diffrn_reflns_limit_h_max       9
_diffrn_reflns_limit_h_min       -7
_diffrn_reflns_limit_k_max       12
_diffrn_reflns_limit_k_min       -13
_diffrn_reflns_limit_l_max       7
_diffrn_reflns_limit_l_min       -6
_diffrn_reflns_number            903
_diffrn_reflns_theta_full        14.65
_diffrn_reflns_theta_max         19.46
_diffrn_reflns_theta_min         1.9
_diffrn_source                   synchrotron
_exptl_absorpt_coefficient_mu    0.239
_exptl_absorpt_correction_T_max  1
_exptl_absorpt_correction_T_min  0.532
_exptl_absorpt_correction_type   multi-scan
_exptl_absorpt_process_details
;
CrysAlisPro, Agilent Technologies,
Version 1.171.37.35 (release 13-08-2014 CrysAlis171 .NET)
(compiled Aug 13 2014,18:06:01)
Empirical absorption correction using spherical harmonics,
 implemented in SCALE3 ABSPACK scaling algorithm.
;
_exptl_crystal_colour            black
_exptl_crystal_density_diffrn    2.5602
_exptl_crystal_description       plate
_exptl_crystal_F_000             276
_exptl_crystal_size_max          0.020
_exptl_crystal_size_mid          0.020
_exptl_crystal_size_min          0.005
_refine_diff_density_max         0.60
_refine_diff_density_min         -0.43
_refine_ls_extinction_method     none
_refine_ls_goodness_of_fit_gt    2.60
_refine_ls_goodness_of_fit_ref   2.51
_refine_ls_number_constraints    0
_refine_ls_number_parameters     35
_refine_ls_number_reflns         308
_refine_ls_number_restraints     0
_refine_ls_R_factor_all          0.0549
_refine_ls_R_factor_gt           0.0511
_refine_ls_shift/su_max          0.0002
_refine_ls_shift/su_mean         0.0000
_refine_ls_structure_factor_coef Fsqd
_refine_ls_weighting_details     w=1/(\s^2^(I)+0.0004I^2^)
_refine_ls_weighting_scheme      sigma
_refine_ls_wR_factor_gt          0.1185
_refine_ls_wR_factor_ref         0.1213
_reflns_number_gt                279
_reflns_number_total             308
_reflns_threshold_expression     I>2\s(I)
_cod_data_source_file            feb50_09.7GPa.cif
_cod_data_source_block           Fe1.0B50_9.7GPa
_cod_depositor_comments
;
The following automatic conversions were performed:

data item '_diffrn_radiation_probe' value 'X-ray' was changed to
'x-ray' in accordance with the built-in table derived from the CIF
Core dictionary named 'cif_core.dic' version 2.4.5 last updated on
2014-11-21.

Automatic conversion script
Id: cif_fix_values 8369 2020-08-20 11:38:08Z andrius 
;
_cod_original_sg_symbol_H-M      'P 42/n n m'
_cod_database_code               1561769
loop_
_symmetry_equiv_pos_site_id
_symmetry_equiv_pos_as_xyz
1 x,y,z
2 -x+1/2,-y+1/2,z
3 -y+1/2,x,z+1/2
4 y,-x+1/2,z+1/2
5 -x+1/2,y,-z+1/2
6 x,-y+1/2,-z+1/2
7 y,x,-z
8 -y+1/2,-x+1/2,-z
9 -x,-y,-z
10 x+1/2,y+1/2,-z
11 y+1/2,-x,-z+1/2
12 -y,x+1/2,-z+1/2
13 x+1/2,-y,z+1/2
14 -x,y+1/2,z+1/2
15 -y,-x,z
16 y+1/2,x+1/2,z
loop_
_atom_site_label
_atom_site_type_symbol
_atom_site_fract_x
_atom_site_fract_y
_atom_site_fract_z
_atom_site_adp_type
_atom_site_U_iso_or_equiv
_atom_site_site_symmetry_multiplicity
_atom_site_occupancy
_atom_site_calc_flag
_atom_site_refinement_flags
_atom_site_disorder_assembly
_atom_site_disorder_group
Fe1 Fe -0.25 0.25 0.25 Uani 0.0138(4) 2 0.5049 d . . .
B4 B -0.0742(3) -0.1550(3) 0.1477(4) Uani 0.0113(6) 16 1 d . . .
B5 B -0.1684(2) 0.0220(2) 0.1626(4) Uani 0.0095(6) 16 1 d . . .
B2 B 0.1222(2) -0.1222(2) 0.1400(5) Uani 0.0089(6) 8 1 d . . .
B3 B 0.0033(2) -0.0033(2) 0.3356(6) Uani 0.0087(6) 8 1 d . . .
B1 B 0.25 -0.25 0.25 Uani 0.0098(12) 2 1 d . . .
loop_
_atom_site_aniso_label
_atom_site_aniso_type_symbol
_atom_site_aniso_U_11
_atom_site_aniso_U_22
_atom_site_aniso_U_33
_atom_site_aniso_U_12
_atom_site_aniso_U_13
_atom_site_aniso_U_23
Fe1 Fe 0.0061(6) 0.0061(6) 0.0290(9) 0 0 0
B4 B 0.0087(10) 0.0130(11) 0.0121(9) 0.0009(10) 0.0004(7) -0.0031(7)
B5 B 0.0083(11) 0.0083(10) 0.0118(9) -0.0017(9) -0.0006(7) -0.0003(6)
B2 B 0.0081(9) 0.0081(9) 0.0107(12) -0.0010(14) -0.0009(7) 0.0009(7)
B3 B 0.0081(10) 0.0081(10) 0.0101(11) -0.0019(14) -0.0004(6) 0.0004(6)
B1 B 0.0072(19) 0.0072(19) 0.015(2) 0 0 0
loop_
_atom_type_symbol
_atom_type_scat_dispersion_real
_atom_type_scat_dispersion_imag
_atom_type_scat_source
B -0.0003 0.0002 'International Tables Vol C tables 4.2.6.8 and 6.1.1.1'
Fe 0.1991 0.3104 'International Tables Vol C tables 4.2.6.8 and 6.1.1.1'
loop_
_geom_angle_atom_site_label_1
_geom_angle_atom_site_label_2
_geom_angle_atom_site_label_3
_geom_angle_site_symmetry_1
_geom_angle_site_symmetry_2
_geom_angle_site_symmetry_3
_geom_angle
B5 Fe1 B5 . . 2_455 157.01(7)
B5 Fe1 B5 . . 5_455 45.38(7)
B5 Fe1 B5 . . 6_555 141.43(7)
B5 Fe1 B5 . . 11_455 92.28(7)
B5 Fe1 B5 . . 12_555 92.28(7)
B5 Fe1 B5 . . 15_555 49.52(8)
B5 Fe1 B5 . . 16_455 124.73(7)
B5 Fe1 B2 . . 3_455 83.55(7)
B5 Fe1 B2 . . 4_555 114.83(7)
B5 Fe1 B2 . . 7_555 44.21(7)
B5 Fe1 B2 . . 8_455 114.15(7)
B5 Fe1 B1 . . 3_454 78.51(5)
B5 Fe1 B1 . . 3_455 101.49(5)
B5 Fe1 B5 2_455 . 5_455 141.43(7)
B5 Fe1 B5 2_455 . 6_555 45.38(7)
B5 Fe1 B5 2_455 . 11_455 92.28(7)
B5 Fe1 B5 2_455 . 12_555 92.28(7)
B5 Fe1 B5 2_455 . 15_555 124.73(7)
B5 Fe1 B5 2_455 . 16_455 49.52(8)
B5 Fe1 B2 2_455 . 3_455 114.83(7)
B5 Fe1 B2 2_455 . 4_555 83.55(7)
B5 Fe1 B2 2_455 . 7_555 114.15(7)
B5 Fe1 B2 2_455 . 8_455 44.21(7)
B5 Fe1 B1 2_455 . 3_454 78.51(5)
B5 Fe1 B1 2_455 . 3_455 101.49(5)
B5 Fe1 B5 5_455 . 6_555 157.01(7)
B5 Fe1 B5 5_455 . 11_455 49.52(8)
B5 Fe1 B5 5_455 . 12_555 124.73(7)
B5 Fe1 B5 5_455 . 15_555 92.28(7)
B5 Fe1 B5 5_455 . 16_455 92.28(7)
B5 Fe1 B2 5_455 . 3_455 44.21(7)
B5 Fe1 B2 5_455 . 4_555 114.15(7)
B5 Fe1 B2 5_455 . 7_555 83.55(7)
B5 Fe1 B2 5_455 . 8_455 114.83(7)
B5 Fe1 B1 5_455 . 3_454 101.49(5)
B5 Fe1 B1 5_455 . 3_455 78.51(5)
B5 Fe1 B5 6_555 . 11_455 124.73(7)
B5 Fe1 B5 6_555 . 12_555 49.52(8)
B5 Fe1 B5 6_555 . 15_555 92.28(7)
B5 Fe1 B5 6_555 . 16_455 92.28(7)
B5 Fe1 B2 6_555 . 3_455 114.15(7)
B5 Fe1 B2 6_555 . 4_555 44.21(7)
B5 Fe1 B2 6_555 . 7_555 114.83(7)
B5 Fe1 B2 6_555 . 8_455 83.55(7)
B5 Fe1 B1 6_555 . 3_454 101.49(5)
B5 Fe1 B1 6_555 . 3_455 78.51(5)
B5 Fe1 B5 11_455 . 12_555 157.01(7)
B5 Fe1 B5 11_455 . 15_555 141.43(7)
B5 Fe1 B5 11_455 . 16_455 45.38(7)
B5 Fe1 B2 11_455 . 3_455 44.21(7)
B5 Fe1 B2 11_455 . 4_555 114.15(7)
B5 Fe1 B2 11_455 . 7_555 114.83(7)
B5 Fe1 B2 11_455 . 8_455 83.55(7)
B5 Fe1 B1 11_455 . 3_454 101.49(5)
B5 Fe1 B1 11_455 . 3_455 78.51(5)
B5 Fe1 B5 12_555 . 15_555 45.38(7)
B5 Fe1 B5 12_555 . 16_455 141.43(7)
B5 Fe1 B2 12_555 . 3_455 114.15(7)
B5 Fe1 B2 12_555 . 4_555 44.21(7)
B5 Fe1 B2 12_555 . 7_555 83.55(7)
B5 Fe1 B2 12_555 . 8_455 114.83(7)
B5 Fe1 B1 12_555 . 3_454 101.49(5)
B5 Fe1 B1 12_555 . 3_455 78.51(5)
B5 Fe1 B5 15_555 . 16_455 157.01(7)
B5 Fe1 B2 15_555 . 3_455 114.83(7)
B5 Fe1 B2 15_555 . 4_555 83.55(7)
B5 Fe1 B2 15_555 . 7_555 44.21(7)
B5 Fe1 B2 15_555 . 8_455 114.15(7)
B5 Fe1 B1 15_555 . 3_454 78.51(5)
B5 Fe1 B1 15_555 . 3_455 101.49(5)
B5 Fe1 B2 16_455 . 3_455 83.55(7)
B5 Fe1 B2 16_455 . 4_555 114.83(7)
B5 Fe1 B2 16_455 . 7_555 114.15(7)
B5 Fe1 B2 16_455 . 8_455 44.21(7)
B5 Fe1 B1 16_455 . 3_454 78.51(5)
B5 Fe1 B1 16_455 . 3_455 101.49(5)
B2 Fe1 B2 3_455 . 4_555 78.90(8)
B2 Fe1 B2 3_455 . 7_555 126.60(7)
B2 Fe1 B2 3_455 . 8_455 126.60(7)
B2 Fe1 B1 3_455 . 3_454 140.55(5)
B2 Fe1 B1 3_455 . 3_455 39.45(5)
B2 Fe1 B2 4_555 . 7_555 126.60(7)
B2 Fe1 B2 4_555 . 8_455 126.60(7)
B2 Fe1 B1 4_555 . 3_454 140.55(5)
B2 Fe1 B1 4_555 . 3_455 39.45(5)
B2 Fe1 B2 7_555 . 8_455 78.90(8)
B2 Fe1 B1 7_555 . 3_454 39.45(5)
B2 Fe1 B1 7_555 . 3_455 140.55(5)
B2 Fe1 B1 8_455 . 3_454 39.45(5)
B2 Fe1 B1 8_455 . 3_455 140.55(5)
B1 Fe1 B1 3_454 . 3_455 180.0(5)
B4 B4 B4 6_545 . 7_555 140.31(16)
B4 B4 B5 6_545 . . 137.11(15)
B4 B4 B5 6_545 . 7_555 113.31(15)
B4 B4 B2 6_545 . . 98.75(14)
B4 B4 B3 6_545 . . 111.89(15)
B4 B4 B5 7_555 . . 59.60(12)
B4 B4 B5 7_555 . 7_555 59.91(12)
B4 B4 B2 7_555 . . 108.09(16)
B4 B4 B3 7_555 . . 106.72(16)
B5 B4 B5 . . 7_555 108.76(15)
B5 B4 B2 . . . 108.56(16)
B5 B4 B3 . . . 59.50(12)
B5 B4 B2 7_555 . . 61.13(13)
B5 B4 B3 7_555 . . 109.02(16)
B2 B4 B3 . . . 60.37(13)
Fe1 B5 B4 . . . 167.72(13)
Fe1 B5 B4 . . 7_555 129.82(13)
Fe1 B5 B5 . . 5_455 67.31(10)
Fe1 B5 B5 . . 15_555 65.24(9)
Fe1 B5 B2 . . 7_555 77.73(11)
Fe1 B5 B3 . . . 107.75(12)
B4 B5 B4 . . 7_555 60.49(12)
B4 B5 B5 . . 5_455 115.04(16)
B4 B5 B5 . . 15_555 106.98(14)
B4 B5 B2 . . 7_555 107.04(14)
B4 B5 B3 . . . 60.22(12)
B4 B5 B5 7_555 . 5_455 120.59(16)
B4 B5 B5 7_555 . 15_555 107.03(14)
B4 B5 B2 7_555 . 7_555 59.22(12)
B4 B5 B3 7_555 . . 107.98(15)
B5 B5 B5 5_455 . 15_555 127.26(16)
B5 B5 B2 5_455 . 7_555 128.95(16)
B5 B5 B3 5_455 . . 119.05(16)
B5 B5 B2 15_555 . 7_555 59.35(12)
B5 B5 B3 15_555 . . 58.68(12)
B2 B5 B3 7_555 . . 106.11(15)
Fe1 B2 B4 3_554 . . 112.70(13)
Fe1 B2 B4 3_554 . 15_555 112.70(13)
Fe1 B2 B5 3_554 . 7_555 58.06(10)
Fe1 B2 B5 3_554 . 9_555 58.06(10)
Fe1 B2 B3 3_554 . . 162.71(16)
Fe1 B2 B1 3_554 . . 69.48(8)
B4 B2 B4 . . 15_555 108.92(16)
B4 B2 B5 . . 7_555 59.64(12)
B4 B2 B5 . . 9_555 108.91(16)
B4 B2 B3 . . . 60.15(12)
B4 B2 B1 . . . 122.84(15)
B4 B2 B5 15_555 . 7_555 108.91(16)
B4 B2 B5 15_555 . 9_555 59.64(12)
B4 B2 B3 15_555 . . 60.15(12)
B4 B2 B1 15_555 . . 122.84(15)
B5 B2 B5 7_555 . 9_555 61.29(13)
B5 B2 B3 7_555 . . 107.67(15)
B5 B2 B1 7_555 . . 116.74(15)
B5 B2 B3 9_555 . . 107.67(15)
B5 B2 B1 9_555 . . 116.74(15)
B3 B2 B1 . . . 127.81(18)
B4 B3 B4 . . 15_555 107.84(17)
B4 B3 B5 . . . 60.28(13)
B4 B3 B5 . . 15_555 110.15(17)
B4 B3 B2 . . . 59.48(13)
B4 B3 B3 . . 7_556 122.72(17)
B4 B3 B5 15_555 . . 110.15(17)
B4 B3 B5 15_555 . 15_555 60.28(13)
B4 B3 B2 15_555 . . 59.48(13)
B4 B3 B3 15_555 . 7_556 122.72(17)
B5 B3 B5 . . 15_555 62.64(13)
B5 B3 B2 . . . 108.47(17)
B5 B3 B3 . . 7_556 116.96(16)
B5 B3 B2 15_555 . . 108.47(17)
B5 B3 B3 15_555 . 7_556 116.96(16)
B2 B3 B3 . . 7_556 126.18(18)
Fe1 B1 Fe1 3_554 . 3_555 180.0(5)
Fe1 B1 B2 3_554 . . 71.07(9)
Fe1 B1 B2 3_554 . 2_545 71.07(9)
Fe1 B1 B2 3_554 . 5_555 108.93(9)
Fe1 B1 B2 3_554 . 6_545 108.93(9)
Fe1 B1 B2 3_555 . . 108.93(9)
Fe1 B1 B2 3_555 . 2_545 108.93(9)
Fe1 B1 B2 3_555 . 5_555 71.07(9)
Fe1 B1 B2 3_555 . 6_545 71.07(9)
B2 B1 B2 . . 2_545 142.15(13)
B2 B1 B2 . . 5_555 96.04(11)
B2 B1 B2 . . 6_545 96.04(11)
B2 B1 B2 2_545 . 5_555 96.04(11)
B2 B1 B2 2_545 . 6_545 96.04(11)
B2 B1 B2 5_555 . 6_545 142.15(13)
loop_
_geom_bond_atom_site_label_1
_geom_bond_atom_site_label_2
_geom_bond_site_symmetry_1
_geom_bond_site_symmetry_2
_geom_bond_distance
Fe1 B5 . . 2.180(2)
Fe1 B5 . 2_455 2.180(2)
Fe1 B5 . 5_455 2.180(2)
Fe1 B5 . 6_555 2.180(2)
Fe1 B5 . 11_455 2.180(2)
Fe1 B5 . 12_555 2.180(2)
Fe1 B5 . 15_555 2.180(2)
Fe1 B5 . 16_455 2.180(2)
Fe1 B2 . 3_455 2.510(2)
Fe1 B2 . 4_555 2.510(2)
Fe1 B2 . 7_555 2.510(2)
Fe1 B2 . 8_455 2.510(2)
Fe1 B1 . 3_454 2.48550(10)
Fe1 B1 . 3_455 2.48550(10)
B4 B4 . 6_545 1.961(3)
B4 B4 . 7_555 1.781(3)
B4 B5 . . 1.771(3)
B4 B5 . 7_555 1.765(3)
B4 B2 . . 1.758(3)
B4 B3 . . 1.770(3)
B5 B5 . 5_455 1.682(3)
B5 B5 . 15_555 1.826(3)
B5 B2 . 7_555 1.791(3)
B5 B3 . . 1.757(3)
B2 B3 . . 1.773(3)
B2 B1 . . 1.686(2)
B3 B3 . 7_556 1.636(4)
loop_
_refln_index_h
_refln_index_k
_refln_index_l
_refln_F_squared_calc
_refln_F_squared_meas
_refln_F_squared_sigma
_refln_observed_status
1 0 1 242.83 270.76 4.68 o
1 0 3 247.64 252.01 8.17 o
1 0 5 31.28 30.19 3.84 o
1 0 7 11.78 13.77 3.07 o
1 1 2 512.26 474.07 7.43 o
1 1 3 362.50 419.10 7.52 o
1 1 4 157.51 150.28 5.37 o
1 1 5 9.98 9.10 1.47 o
1 1 6 43.09 42.09 3.57 o
1 1 7 93.00 104.76 9.95 o
2 0 0 445.68 426.36 6.21 o
2 0 2 71.44 91.23 2.68 o
2 0 4 575.00 462.19 12.60 o
2 0 6 363.10 384.63 14.55 o
2 1 1 163.80 178.90 3.84 o
2 1 2 8.24 9.77 0.86 o
2 1 3 55.49 53.60 1.65 o
2 1 4 15.70 15.87 1.08 o
2 1 5 17.84 17.01 1.39 o
2 1 6 30.97 26.75 2.01 o
2 1 7 14.90 13.68 3.33 o
2 2 0 295.31 358.62 7.27 o
2 2 1 0.11 0.07 0.17 <
2 2 2 357.10 394.40 8.54 o
2 2 3 0.37 -0.02 0.25 <
2 2 4 246.27 294.15 8.73 o
2 2 5 0.04 -0.10 0.47 <
2 2 6 66.07 49.41 3.90 o
2 2 7 0.42 -0.35 0.82 <
3 0 3 70.00 57.40 2.84 o
3 0 5 49.61 48.40 4.66 o
3 1 0 762.27 760.22 10.43 o
3 1 1 1021.14 1226.12 9.92 o
3 1 2 406.40 404.85 6.18 o
3 1 3 1207.74 1102.46 13.11 o
3 1 4 115.43 114.92 3.48 o
3 1 5 17.56 24.57 1.79 o
3 1 6 31.00 31.35 2.69 o
3 1 7 183.20 184.30 11.73 o
3 2 1 1.55 0.36 0.19 <
3 2 2 15.24 17.55 1.16 o
3 2 3 130.57 112.21 3.72 o
3 2 4 3.87 6.28 0.91 o
3 2 5 123.04 130.00 6.67 o
3 2 6 0.24 0.35 0.59 <
3 2 7 12.33 9.49 1.95 o
3 3 0 619.94 706.41 12.38 o
3 3 1 525.18 630.98 12.31 o
3 3 2 339.17 348.55 9.58 o
3 3 3 1104.53 1104.90 18.02 o
3 3 4 93.54 103.50 5.64 o
3 3 5 132.48 167.24 7.58 o
3 3 6 29.00 32.06 5.25 o
3 3 7 95.35 154.07 12.70 o
4 0 0 146.24 165.09 5.41 o
4 0 2 472.89 532.59 7.07 o
4 0 4 475.89 519.80 7.50 o
4 0 6 20.48 17.88 3.14 o
4 1 1 965.21 1192.27 9.40 o
4 1 2 64.17 63.37 1.97 o
4 1 3 18.78 30.85 1.72 o
4 1 4 3.02 3.21 0.55 o
4 1 5 47.50 43.51 3.77 o
4 1 6 19.11 20.70 3.21 o
4 2 0 702.33 703.12 12.73 o
4 2 1 1.25 1.12 0.35 o
4 2 2 329.21 325.10 5.47 o
4 2 3 0.46 0.77 0.36 o
4 2 4 63.68 64.30 2.66 o
4 2 5 1.18 1.25 0.47 o
4 2 6 25.42 30.98 2.96 o
4 2 7 0.65 0.72 0.87 <
4 3 1 218.48 229.53 5.76 o
4 3 2 597.83 534.64 10.37 o
4 3 3 83.62 85.17 3.71 o
4 3 4 203.51 228.28 6.35 o
4 3 5 5.06 5.66 0.84 o
4 3 6 24.74 31.55 3.00 o
4 3 7 1.10 0.75 0.61 <
4 4 1 12.32 16.73 2.40 o
4 4 2 438.71 357.74 11.02 o
4 4 3 8.37 12.31 2.09 o
4 4 4 11.96 12.79 2.14 o
4 4 5 10.35 9.50 1.93 o
4 4 6 4.84 4.57 1.49 o
4 4 7 11.33 8.82 3.35 o
5 0 1 1278.89 1224.57 11.85 o
5 0 3 5.65 5.26 0.86 o
5 0 5 186.73 177.46 5.34 o
5 1 0 330.52 343.84 6.38 o
5 1 1 64.12 75.24 2.12 o
5 1 2 317.31 305.36 4.67 o
5 1 3 84.49 77.38 2.86 o
5 1 4 174.67 184.77 4.73 o
5 1 5 2.11 1.30 0.42 o
5 1 6 23.97 29.23 2.86 o
5 2 1 536.91 486.29 7.14 o
5 2 2 815.27 724.08 9.04 o
5 2 3 65.16 63.32 2.65 o
5 2 4 198.52 210.40 5.21 o
5 2 5 11.99 13.39 1.39 o
5 2 6 75.30 77.23 4.94 o
5 3 0 371.72 363.43 10.78 o
5 3 1 1.11 0.38 0.36 <
5 3 2 249.56 264.90 5.71 o
5 3 3 4.08 4.88 0.76 o
5 3 4 95.78 99.23 3.70 o
5 3 5 37.42 54.04 3.28 o
5 3 6 28.41 28.01 2.90 o
5 3 7 4.39 7.46 2.67 o
5 4 1 243.93 187.24 5.94 o
5 4 2 37.06 30.88 2.49 o
5 4 3 202.86 193.47 6.29 o
5 4 4 10.64 11.57 1.30 o
5 4 5 511.59 598.62 11.73 o
5 4 6 2.90 3.08 0.99 o
5 4 7 33.91 44.45 7.18 o
5 5 1 4.08 4.52 1.52 o
5 5 2 189.70 200.79 9.35 o
5 5 3 1.37 0.23 0.54 <
5 5 4 0.16 1.87 2.02 <
5 5 5 7.33 11.59 2.40 o
5 5 6 10.87 14.05 4.08 o
6 0 0 234.10 214.41 7.82 o
6 0 2 0.79 8.18 1.06 o
6 0 4 513.97 543.40 10.87 o
6 0 6 518.55 383.16 12.74 o
6 1 2 430.78 423.27 6.15 o
6 1 3 149.17 144.17 3.71 o
6 1 4 87.06 79.39 3.38 o
6 1 5 345.67 348.05 9.11 o
6 1 6 54.75 38.93 2.95 o
6 2 0 2482.00 2323.84 27.99 o
6 2 1 12.90 9.07 1.07 o
6 2 2 713.09 649.37 8.96 o
6 2 3 6.61 6.69 0.92 o
6 2 4 32.06 34.33 2.58 o
6 2 5 15.81 15.44 1.53 o
6 2 6 107.63 126.73 6.71 o
6 3 1 603.27 526.37 9.86 o
6 3 2 252.99 241.22 6.50 o
6 3 3 4.38 4.42 0.90 o
6 3 4 56.27 64.39 3.78 o
6 3 5 67.17 70.47 3.37 o
6 3 6 31.32 31.88 3.70 o
6 4 0 70.54 77.76 5.66 o
6 4 1 0.00 -0.53 0.60 <
6 4 2 18.24 19.79 2.42 o
6 4 3 2.13 1.61 0.55 o
6 4 4 419.36 454.94 12.06 o
6 4 5 6.21 7.00 1.58 o
6 4 6 289.30 329.94 12.79 o
6 5 1 141.68 137.07 8.12 o
6 5 2 25.40 20.56 2.28 o
6 5 3 20.79 19.52 2.27 o
6 5 4 0.95 0.59 0.65 <
6 5 5 0.08 -0.28 0.61 <
6 6 1 81.78 69.57 6.17 o
6 6 2 320.29 304.37 12.96 o
6 6 3 126.89 121.36 8.23 o
6 6 4 60.51 54.82 7.61 o
7 0 1 61.52 55.55 3.04 o
7 0 3 95.74 94.95 4.09 o
7 0 5 244.58 248.32 7.76 o
7 1 0 191.04 170.27 5.39 o
7 1 1 9.14 13.48 1.06 o
7 1 2 123.74 116.70 3.50 o
7 1 3 6.14 7.67 0.97 o
7 1 4 65.94 59.50 3.11 o
7 1 5 8.57 5.42 1.34 o
7 1 6 56.95 52.70 5.66 o
7 2 1 103.34 104.90 3.87 o
7 2 2 254.39 245.63 5.97 o
7 2 3 39.90 43.87 2.79 o
7 2 4 96.77 92.46 4.58 o
7 2 5 6.40 7.37 1.27 o
7 2 6 14.40 14.33 3.30 o
7 3 0 52.62 44.59 4.28 o
7 3 1 5.33 4.09 0.95 o
7 3 2 137.03 137.64 5.30 o
7 3 3 23.84 23.44 2.02 o
7 3 4 208.48 222.13 11.02 o
7 3 5 11.01 15.27 2.30 o
7 3 6 52.19 61.02 7.32 o
7 4 1 113.01 98.16 4.78 o
7 4 2 0.84 1.11 0.48 o
7 4 3 9.14 10.49 1.50 o
7 4 4 2.26 2.62 0.80 o
7 4 5 0.32 0.37 0.49 <
7 4 6 0.45 0.14 0.49 <
7 5 0 180.91 185.55 9.89 o
7 5 1 84.70 91.28 7.00 o
7 5 2 151.46 155.61 9.35 o
7 5 3 167.29 143.14 9.02 o
7 5 4 71.86 76.87 4.66 o
7 5 5 0.02 0.18 1.40 <
7 6 1 391.26 381.84 14.84 o
7 6 2 64.08 64.11 5.06 o
7 6 3 13.97 13.76 3.82 o
8 0 0 707.09 722.78 16.37 o
8 0 2 252.75 247.31 6.94 o
8 0 4 1.68 1.26 0.98 <
8 1 1 125.59 138.92 3.74 o
8 1 2 7.87 6.81 0.90 o
8 1 3 38.27 45.10 2.42 o
8 1 4 25.09 25.28 2.76 o
8 1 5 0.69 -0.07 0.40 <
8 1 6 7.58 6.75 2.37 o
8 2 0 57.55 46.01 3.59 o
8 2 1 8.85 7.97 1.16 o
8 2 2 100.91 102.92 4.08 o
8 2 3 30.21 40.68 3.25 o
8 2 4 140.23 143.82 7.93 o
8 2 5 6.75 6.12 1.54 o
8 2 6 58.78 57.06 7.38 o
8 3 1 211.61 196.09 6.84 o
8 3 2 8.92 8.01 1.24 o
8 3 3 11.92 12.27 1.78 o
8 3 4 2.11 2.87 0.77 o
8 3 5 6.47 12.37 3.89 o
8 3 6 1.06 0.94 1.04 <
8 4 0 137.48 117.72 7.77 o
8 4 1 99.30 93.07 4.94 o
8 4 2 155.07 130.18 8.77 o
8 4 3 207.20 209.44 10.03 o
8 4 4 97.98 108.97 6.23 o
8 5 1 2.11 0.61 0.61 <
8 5 2 206.39 206.66 15.72 o
8 5 4 91.53 99.92 5.84 o
8 6 0 90.03 88.13 10.71 o
8 6 1 0.57 0.69 0.60 <
9 0 1 8.60 9.45 1.42 o
9 0 3 139.73 155.76 6.83 o
9 1 0 898.86 891.06 14.39 o
9 1 1 121.18 124.68 3.78 o
9 1 2 277.42 297.69 7.01 o
9 1 3 355.09 398.60 8.02 o
9 1 4 4.34 3.47 1.09 o
9 1 5 37.69 15.73 3.19 o
9 2 1 189.50 173.46 5.85 o
9 2 2 67.25 66.81 3.92 o
9 2 3 18.34 15.46 2.26 o
9 2 4 8.13 5.74 1.28 o
9 2 5 4.71 6.63 1.98 o
9 3 0 147.10 135.58 8.54 o
9 3 1 151.16 155.29 5.64 o
9 3 2 120.80 113.29 5.26 o
9 3 3 397.22 473.13 13.78 o
9 3 4 59.22 64.98 4.86 o
9 3 5 25.67 8.19 2.98 o
9 4 1 118.03 122.62 6.84 o
9 4 2 213.68 251.54 16.95 o
9 4 3 0.05 0.86 1.06 <
9 4 4 77.64 83.63 5.86 o
9 5 0 125.76 125.25 12.44 o
9 5 1 75.32 69.13 8.97 o
9 5 2 11.18 15.25 5.27 o
9 5 4 410.86 410.03 13.39 o
10 0 0 120.46 145.71 8.56 o
10 0 2 70.54 77.79 5.62 o
10 0 4 30.69 26.75 4.16 o
10 1 1 80.39 83.61 3.80 o
10 1 2 110.64 127.29 5.26 o
10 1 3 9.46 8.66 1.30 o
10 1 4 13.63 15.97 1.86 o
10 2 0 131.93 123.63 6.78 o
10 2 1 206.56 197.25 7.45 o
10 2 2 120.71 127.55 6.16 o
10 2 3 390.83 447.00 13.52 o
10 2 4 62.70 76.24 5.19 o
10 3 1 4.04 4.28 1.19 o
10 3 2 1.97 1.64 0.81 o
10 3 3 52.42 61.39 5.45 o
10 3 4 11.82 12.79 2.17 o
10 4 1 67.08 61.98 8.70 o
10 4 2 48.41 52.14 6.38 o
10 4 3 166.18 187.07 9.72 o
11 0 1 137.51 153.08 9.06 o
11 0 3 0.99 1.42 0.86 <
11 1 0 116.62 114.33 12.11 o
11 1 1 14.47 17.04 2.12 o
11 1 2 7.34 6.90 1.32 o
11 1 3 25.34 31.58 2.66 o
11 1 4 356.01 372.39 12.02 o
11 2 1 0.06 0.43 0.75 <
11 2 2 3.45 2.86 1.01 o
11 2 3 9.34 8.55 1.69 o
11 2 4 1.44 1.96 0.46 o
11 3 1 4.69 0.90 1.06 <
11 3 2 118.22 120.27 7.79 o
11 3 3 16.55 17.29 2.83 o
11 3 4 3.12 3.55 1.88 <
11 4 2 8.61 8.52 2.60 o
11 4 3 48.01 59.48 6.76 o
12 0 2 259.45 295.56 18.29 o
12 1 1 47.63 49.62 7.72 o
12 1 2 36.02 41.86 3.99 o
12 1 3 6.81 4.52 1.05 o
12 2 1 86.68 93.98 10.45 o
12 2 2 1.99 0.63 2.46 <
12 2 3 184.52 196.61 9.74 o
12 3 1 15.36 16.33 4.66 o
12 3 2 2.59 6.16 2.76 o
12 3 3 41.76 47.06 6.51 o
12 4 3 14.76 23.05 4.43 o
13 0 3 1.04 0.09 0.90 <
13 1 3 0.28 0.90 0.26 o
13 2 3 15.03 17.06 3.93 o
