#------------------------------------------------------------------------------
#$Date: 2021-03-31 11:24:00 +0300 (Wed, 31 Mar 2021) $
#$Revision: 263482 $
#$URL: file:///home/coder/svn-repositories/cod/cif/1/56/13/1561378.cif $
#------------------------------------------------------------------------------
#
# This file is available in the Crystallography Open Database (COD),
# http://www.crystallography.net/
#
# All data on this site have been placed in the public domain by the
# contributors.
#
data_1561378
loop_
_publ_author_name
'Oswald, Iain W.H.'
'Gourdon, Olivier'
'Bekins, Amy'
'Evans, Jess'
'Treadwell, LaRico J.'
'Chan, Julia Y.'
'Macaluso, Robin T.'
_publ_section_title
;
 Er1.33Pt3Ga8: A modulated variant of the Er4Pt9Al24-structure type
;
_journal_name_full               'Journal of Solid State Chemistry'
_journal_page_first              161
_journal_page_last               167
_journal_paper_doi               10.1016/j.jssc.2016.04.009
_journal_volume                  242
_journal_year                    2016
_chemical_absolute_configuration .
_chemical_formula_sum            'Er0.341 Ga2.005 Pt0.75'
_chemical_formula_weight         343.1
_space_group_IT_number           12
_space_group_name_Hall           '-C 2y'
_space_group_name_H-M_alt        'C 1 2/m 1'
_symmetry_cell_setting           monoclinic
_symmetry_Int_Tables_number      12
_symmetry_space_group_name_Hall  '-C 2y'
_symmetry_space_group_name_H-M   'C 1 2/m 1'
_cell_angle_alpha                90
_cell_angle_beta                 101.010(2)
_cell_angle_gamma                90
_cell_formula_units_Z            24
_cell_length_a                   7.4879(2)
_cell_length_b                   12.9612(3)
_cell_length_c                   13.1060(4)
_cell_measurement_reflns_used    6136
_cell_measurement_temperature    297
_cell_measurement_theta_max      30.4
_cell_measurement_theta_min      3.2
_cell_volume                     1248.55(6)
_computing_cell_refinement       'Bruker SAINT'
_computing_data_collection       'Bruker APEX2'
_computing_molecular_graphics    CrystalMaker
_computing_publication_material  'publCIF (Westrip, 2010)'
_computing_structure_refinement  JANA2006
_diffrn_ambient_temperature      297
_diffrn_measured_fraction_theta_full 0.98
_diffrn_measured_fraction_theta_max 0.95
_diffrn_measurement_device       'four-circle diffractometer'
_diffrn_measurement_device_type  'Bruker Kappa D8 Quest CMOS'
_diffrn_measurement_method       '\f and \w scans'
_diffrn_radiation_monochromator  'HELIOS optics'
_diffrn_radiation_probe          x-ray
_diffrn_radiation_source         'I\mS microfocus tube'
_diffrn_radiation_type           'Mo K\a'
_diffrn_radiation_wavelength     0.71073
_diffrn_reflns_av_R_equivalents  0.0576
_diffrn_reflns_av_unetI/netI     0.0236
_diffrn_reflns_limit_h_max       11
_diffrn_reflns_limit_h_min       -11
_diffrn_reflns_limit_k_max       19
_diffrn_reflns_limit_k_min       -20
_diffrn_reflns_limit_l_max       20
_diffrn_reflns_limit_l_min       -19
_diffrn_reflns_number            34559
_diffrn_reflns_theta_full        32.82
_diffrn_reflns_theta_max         33.54
_diffrn_reflns_theta_min         1.58
_exptl_absorpt_coefficient_mu    89.175
_exptl_crystal_colour            Silver
_exptl_crystal_density_diffrn    10.9526
_exptl_crystal_description       Fragment
_exptl_crystal_F_000             3452
_exptl_crystal_size_max          0.05
_exptl_crystal_size_mid          0.02
_exptl_crystal_size_min          0.01
_refine_ls_extinction_coef       390(20)
_refine_ls_extinction_method
'B-C type 1 Lorentzian isotropic (Becker & Coppens, 1974)'
_refine_ls_goodness_of_fit_gt    3.37
_refine_ls_goodness_of_fit_ref   2.93
_refine_ls_number_constraints    0
_refine_ls_number_parameters     128
_refine_ls_number_reflns         2426
_refine_ls_number_restraints     0
_refine_ls_R_factor_all          0.0775
_refine_ls_R_factor_gt           0.0475
_refine_ls_shift/su_max          0.0097
_refine_ls_shift/su_mean         0.0008
_refine_ls_structure_factor_coef F
_refine_ls_weighting_details     w=1/(\s^2^(F)+0.0001F^2^)
_refine_ls_weighting_scheme      sigma
_refine_ls_wR_factor_gt          0.0738
_refine_ls_wR_factor_ref         0.0774
_reflns_number_gt                1711
_reflns_number_total             2426
_reflns_threshold_expression     I>3\s(I)
_cod_data_source_file            JSSC-2016-242-161.cif
_cod_data_source_block           I
_cod_database_code               1561378
loop_
_space_group_symop_id
_space_group_symop_operation_xyz
1 x,y,z
2 -x,y,-z
3 -x,-y,-z
4 x,-y,z
5 x+1/2,y+1/2,z
6 -x+1/2,y+1/2,-z
7 -x+1/2,-y+1/2,-z
8 x+1/2,-y+1/2,z
loop_
_atom_site_label
_atom_site_type_symbol
_atom_site_fract_x
_atom_site_fract_y
_atom_site_fract_z
_atom_site_adp_type
_atom_site_U_iso_or_equiv
_atom_site_site_symmetry_multiplicity
_atom_site_occupancy
_atom_site_calc_flag
_atom_site_refinement_flags
_atom_site_disorder_assembly
_atom_site_disorder_group
Er1-1 Er 0.26894(13) 0 0.80769(7) Uani 0.0033(3) 4 0.9068 d . . .
Er1-2 Er 0.26954(16) 0.33336(9) 0.80838(10) Uani 0.0104(4) 8 0.5695 d . . .
Pt1-1 Pt 0 0 0 Uani 0.0064(3) 2 1 d . . .
Pt1-2 Pt 0 0.33441(6) 0 Uani 0.0062(2) 4 1 d . . .
Pt2-1 Pt 0.11698(10) 0 0.35991(6) Uani 0.0066(2) 4 1 d . . .
Pt2-2 Pt 0.12173(8) 0.33498(4) 0.36071(4) Uani 0.00652(18) 8 1 d . . .
Ga2-1 Ga 0.1860(3) 0 0.55638(17) Uani 0.0077(6) 4 1 d . . .
Ga2-2 Ga 0.1866(2) 0.33304(12) 0.55988(13) Uani 0.0076(5) 8 1 d . . .
Ga1_1-1 Ga 0.3737(5) 0.2307(3) 0.8167(3) Uani 0.0069(10) 8 0.4618 d . . .
Ga1_1-2 Ga 0.3752(5) 0.5648(3) 0.8170(3) Uani 0.0054(10) 8 0.449 d . . .
Ga1_1-3 Ga 0.387(4) 0.8950(19) 0.8232(18) Uani 0.025(8) 8 0.0808 d . . .
Ga1_2-1 Ga 0.928(6) 0 0.179(3) Uani 0.098(18) 4 0.1371 d . . .
Ga1_2-2 Ga 0.9328(5) 0.3341(3) 0.1833(3) Uani 0.0060(10) 8 0.4545 d . . .
Ga3-1 Ga 0.8517(2) 0.16578(11) 0.05870(13) Uani 0.0056(4) 8 1 d . . .
Ga3-2 Ga 0.8554(3) 0.5 0.05953(19) Uani 0.0093(7) 4 1 d . . .
Ga4-1 Ga 0.9430(2) 0.16746(12) 0.32713(14) Uani 0.0090(5) 8 1 d . . .
Ga4-2 Ga 0.9411(3) 0.5 0.32757(18) Uani 0.0079(7) 4 1 d . . .
loop_
_atom_site_aniso_label
_atom_site_aniso_type_symbol
_atom_site_aniso_U_11
_atom_site_aniso_U_22
_atom_site_aniso_U_33
_atom_site_aniso_U_12
_atom_site_aniso_U_13
_atom_site_aniso_U_23
Er1-1 Er 0.0039(5) 0.0041(5) 0.0019(4) 0 0.0007(3) 0
Er1-2 Er 0.0094(6) 0.0080(6) 0.0131(6) -0.0010(4) 0.0006(5) 0.0000(5)
Pt1-1 Pt 0.0064(5) 0.0058(5) 0.0063(5) 0 -0.0002(4) 0
Pt1-2 Pt 0.0060(4) 0.0061(4) 0.0065(4) 0 0.0010(3) 0
Pt2-1 Pt 0.0054(4) 0.0072(4) 0.0069(4) 0 0.0000(3) 0
Pt2-2 Pt 0.0079(3) 0.0065(3) 0.0050(3) -0.0004(2) 0.0007(2) 0.0003(2)
Ga2-1 Ga 0.0081(11) 0.0083(11) 0.0052(10) 0 -0.0023(8) 0
Ga2-2 Ga 0.0081(8) 0.0071(8) 0.0080(8) -0.0004(6) 0.0025(6) -0.0006(6)
Ga1_1-1 Ga 0.0065(16) 0.0060(16) 0.0072(16) 0.0016(13) -0.0011(13) 0.0007(13)
Ga1_1-2 Ga 0.0069(16) 0.0070(17) 0.0024(15) 0.0005(13) 0.0011(12) 0.0007(13)
Ga1_1-3 Ga 0.044(16) 0.017(12) 0.013(11) 0.010(11) 0.006(11) -0.017(10)
Ga1_2-1 Ga 0.07(3) 0.12(4) 0.08(3) 0 -0.04(2) 0
Ga1_2-2 Ga 0.0050(16) 0.0070(17) 0.0056(16) -0.0034(13) -0.0003(13) -0.0014(13)
Ga3-1 Ga 0.0050(7) 0.0039(7) 0.0076(8) -0.0003(6) 0.0009(6) 0.0010(6)
Ga3-2 Ga 0.0065(11) 0.0076(11) 0.0138(11) 0 0.0023(9) 0
Ga4-1 Ga 0.0078(8) 0.0055(8) 0.0138(9) 0.0003(6) 0.0025(7) -0.0016(6)
Ga4-2 Ga 0.0035(10) 0.0077(11) 0.0122(11) 0 0.0011(9) 0
loop_
_atom_type_symbol
_atom_type_scat_dispersion_real
_atom_type_scat_dispersion_imag
_atom_type_scat_source
Er -0.2586 4.9576 'International Tables Vol C tables 4.2.6.8 and 6.1.1.1'
Ga 0.2307 1.6083 'International Tables Vol C tables 4.2.6.8 and 6.1.1.1'
Pt -1.7033 8.3905 'International Tables Vol C tables 4.2.6.8 and 6.1.1.1'
loop_
_refln_index_h
_refln_index_k
_refln_index_l
_refln_F_squared_calc
_refln_F_squared_meas
_refln_F_squared_sigma
_refln_observed_status
2 0 0 460. 938. 142. o
4 0 0 123893. 116333. 1859. o
6 0 0 3750. 4389. 427. o
8 0 0 382318. 386321. 6000. o
10 0 0 3229. 3859. 1144. o
1 1 0 5. 67. 33. <
3 1 0 169. 3263. 249. o
5 1 0 3639. 3390. 306. o
7 1 0 5411. 4239. 419. o
9 1 0 48. 824. 422. <
11 1 0 3603. 1792. 2187. <
0 2 0 1232. 327. 80. o
2 2 0 6207. 4133. 217. o
4 2 0 5337. 3753. 293. o
6 2 0 5799. 4708. 370. o
8 2 0 2367. 4497. 546. o
10 2 0 871. 1906. 668. <
1 3 0 556717. 587289. 2192. o
3 3 0 8213. 8193. 296. o
5 3 0 32948. 33077. 794. o
7 3 0 364950. 359441. 3436. o
9 3 0 203099. 200082. 4374. o
11 3 0 160132. 155792. 9798. o
0 4 0 7020. 3923. 300. o
2 4 0 7706. 6545. 300. o
4 4 0 370. 281. 101. <
6 4 0 4466. 4357. 373. o
8 4 0 4834. 5939. 638. o
10 4 0 251. 1423. 539. <
1 5 0 3845. 4207. 261. o
3 5 0 6011. 5420. 350. o
5 5 0 11. 71. 108. <
7 5 0 235. -222. 204. <
9 5 0 402. 3350. 754. o
0 6 0 5438590. 6634620. 17786. o
2 6 0 555. 1293. 136. o
4 6 0 2335. 3164. 260. o
6 6 0 3290. 3075. 302. o
8 6 0 185097. 180164. 3350. o
10 6 0 3120. 3990. 1098. o
1 7 0 5655. 5942. 351. o
3 7 0 1112. 2081. 229. o
5 7 0 25. 126. 184. <
7 7 0 1084. 752. 287. <
9 7 0 1312. 2759. 638. o
0 8 0 2574. 1762. 318. o
2 8 0 3790. 3526. 285. o
4 8 0 2355. 2803. 337. o
6 8 0 3812. 3062. 425. o
8 8 0 4334. 5652. 790. o
10 8 0 938. 2183. 2188. <
1 9 0 169420. 174315. 1673. o
3 9 0 3181. 4182. 305. o
5 9 0 3562. 4831. 441. o
7 9 0 195129. 196989. 4034. o
9 9 0 112935. 106809. 4341. o
0 10 0 4978. 2265. 364. o
2 10 0 5072. 5170. 397. o
4 10 0 15208. 11784. 705. o
6 10 0 3994. 8350. 856. o
8 10 0 429. 2767. 821. o
1 11 0 1851. 1579. 239. o
3 11 0 89. 3266. 348. o
5 11 0 3929. 3933. 609. o
7 11 0 5197. 3148. 816. o
9 11 0 683. 2967. 1581. <
0 12 0 2788660. 2944580. 13882. o
2 12 0 265. 1256. 207. o
4 12 0 13924. 13985. 756. o
6 12 0 1544. 2781. 490. o
8 12 0 176901. 164200. 6531. o
1 13 0 5912. 7776. 639. o
3 13 0 1295. 1281. 254. o
5 13 0 21. -395. 439. <
7 13 0 200. 1476. 953. <
0 14 0 12187. 11182. 1141. o
2 14 0 1967. 3077. 455. o
4 14 0 319. 99. 460. <
6 14 0 2141. 1174. 791. <
1 15 0 175218. 172295. 3098. o
3 15 0 4047. 4105. 544. o
5 15 0 22687. 21651. 1933. o
7 15 0 178110. 170674. 9002. o
0 16 0 138. 18. 565. <
2 16 0 3348. 2974. 714. o
4 16 0 3214. 1493. 702. <
6 16 0 2749. 4885. 1097. o
1 17 0 648. 790. 461. <
3 17 0 343. 1445. 887. <
5 17 0 1429. 2156. 1631. <
0 18 0 1236260. 1181080. 18422. o
2 18 0 176. 183. 742. <
4 18 0 9729. 8640. 4188. <
1 19 0 1329. 1156. 361. o
-10 0 1 299548. 302465. 8581. o
-8 0 1 3921. 5053. 696. o
-6 0 1 48019. 49016. 1500. o
-4 0 1 117273. 108464. 1880. o
-2 0 1 546421. 570169. 3352. o
0 0 1 2397. -15. 30. <
2 0 1 48059. 45446. 921. o
4 0 1 783190. 716142. 5024. o
6 0 1 622184. 609234. 5730. o
8 0 1 401176. 393942. 6060. o
10 0 1 384921. 374169. 9464. o
-11 1 1 328. -4216. 2815. <
-9 1 1 4995. 3995. 562. o
-7 1 1 2208. 3147. 343. o
-5 1 1 2090. 1985. 245. o
-3 1 1 14195. 9933. 396. o
-1 1 1 784. 324. 47. o
1 1 1 589. 220. 57. o
3 1 1 31221. 20252. 592. o
5 1 1 1176. 2893. 293. o
7 1 1 2559. 3600. 403. o
9 1 1 267. 952. 440. <
-10 2 1 4. 1544. 623. <
-8 2 1 2264. 2380. 386. o
-6 2 1 6079. 7743. 506. o
-4 2 1 3241. 4245. 300. o
-2 2 1 246. 1004. 111. o
0 2 1 18. 100. 35. <
2 2 1 3791. 3313. 236. o
4 2 1 328. 602. 129. o
6 2 1 3381. 2941. 329. o
8 2 1 9003. 7909. 715. o
10 2 1 1801. 1087. 466. <
-11 3 1 200276. 207736. 11821. o
-9 3 1 11782. 12006. 1066. o
-7 3 1 24014. 23810. 864. o
-5 3 1 31657. 28939. 688. o
-3 3 1 5409710. 6184660. 13239. o
-1 3 1 566. 1257. 103. o
1 3 1 25630. 28168. 506. o
3 3 1 37158. 34951. 651. o
5 3 1 634875. 630633. 3736. o
7 3 1 10643. 11257. 574. o
9 3 1 39576. 39548. 1934. o
11 3 1 3770. 5897. 1928. o
-10 4 1 582. 584. 820. <
-8 4 1 294. 1582. 366. o
-6 4 1 597. 953. 200. o
-4 4 1 45. 489. 131. o
-2 4 1 1394. 4423. 244. o
0 4 1 1473. 1944. 156. o
2 4 1 16367. 11822. 476. o
4 4 1 282. 296. 120. <
6 4 1 306. 1276. 216. o
8 4 1 11902. 11581. 814. o
10 4 1 4611. 2598. 747. o
-11 5 1 528. -5323. 5120. <
-9 5 1 15418. 12505. 1244. o
-7 5 1 3290. 3005. 387. o
-5 5 1 3590. 2134. 263. o
-3 5 1 9753. 8703. 404. o
-1 5 1 21735. 16791. 475. o
1 5 1 2762. 3725. 231. o
3 5 1 1902. 2245. 266. o
5 5 1 517. 632. 146. o
7 5 1 440. 763. 218. o
9 5 1 1301. 3130. 680. o
-10 6 1 168662. 158272. 4434. o
-8 6 1 14882. 15961. 967. o
-6 6 1 44. 451. 206. <
-4 6 1 169042. 168134. 1676. o
-2 6 1 116480. 115756. 1161. o
0 6 1 8372. 8201. 285. o
2 6 1 6817. 7173. 320. o
4 6 1 774040. 780298. 4932. o
6 6 1 284650. 281333. 3017. o
8 6 1 269314. 265528. 4396. o
10 6 1 226754. 199133. 7689. o
-9 7 1 9882. 7403. 1052. o
-7 7 1 5372. 4157. 490. o
-5 7 1 16. 513. 204. <
-3 7 1 2710. 2352. 230. o
-1 7 1 8321. 7028. 369. o
1 7 1 3912. 4406. 306. o
3 7 1 10871. 9726. 573. o
5 7 1 299. 510. 223. <
7 7 1 13. 317. 322. <
9 7 1 878. 1479. 611. <
-10 8 1 66. -1679. 1306. <
-8 8 1 2054. 2876. 584. o
-6 8 1 4944. 7325. 643. o
-4 8 1 4857. 5667. 422. o
-2 8 1 78. 543. 147. o
0 8 1 9. 268. 111. <
2 8 1 3873. 4686. 369. o
4 8 1 882. 1058. 254. o
6 8 1 1257. 906. 351. <
8 8 1 6023. 7809. 1092. o
10 8 1 2262. 2756. 1905. <
-9 9 1 251. 431. 733. <
-7 9 1 7749. 7413. 684. o
-5 9 1 253. 276. 220. <
-3 9 1 2875590. 3022970. 8593. o
-1 9 1 32563. 29786. 696. o
1 9 1 2493. 3261. 222. o
3 9 1 83437. 86510. 1546. o
5 9 1 378333. 379998. 4004. o
7 9 1 711. 1295. 443. <
9 9 1 18962. 17389. 1737. o
-8 10 1 1724. 709. 583. <
-6 10 1 7424. 6874. 680. o
-4 10 1 320. 4113. 409. o
-2 10 1 5390. 8292. 519. o
0 10 1 164. 205. 142. <
2 10 1 11. 302. 144. <
4 10 1 92. 2524. 404. o
6 10 1 10481. 10508. 1012. o
8 10 1 5714. 3757. 874. o
-9 11 1 2637. 3770. 1661. <
-7 11 1 619. 749. 559. <
-5 11 1 803. 743. 285. <
-3 11 1 14637. 13638. 676. o
-1 11 1 240. 728. 175. o
1 11 1 70. 214. 163. <
3 11 1 12243. 9483. 640. o
5 11 1 6534. 6946. 806. o
7 11 1 2120. 5987. 1168. o
9 11 1 5. 2135. 1116. <
-8 12 1 6948. 4982. 1144. o
-6 12 1 4012. 4054. 677. o
-4 12 1 86647. 80975. 1702. o
-2 12 1 128984. 130573. 1969. o
0 12 1 85. 684. 203. o
2 12 1 3986. 4492. 320. o
4 12 1 379679. 384471. 4574. o
6 12 1 229108. 228499. 5262. o
8 12 1 190526. 176047. 6844. o
-7 13 1 4982. 5788. 1050. o
-5 13 1 17. 306. 510. <
-3 13 1 254. 380. 219. <
-1 13 1 6617. 6694. 596. o
1 13 1 4712. 5101. 499. o
3 13 1 5855. 5345. 567. o
5 13 1 1587. 1459. 516. <
7 13 1 38. 437. 649. <
-8 14 1 599. -2795. 3022. <
-6 14 1 247. 736. 724. <
-4 14 1 2166. 3496. 611. o
-2 14 1 4930. 4882. 504. o
0 14 1 610. 2447. 423. o
2 14 1 10511. 8455. 653. o
4 14 1 358. 1193. 542. <
6 14 1 471. -151. 772. <
8 14 1 5043. 16107. 9124. <
-7 15 1 9869. 4123. 1170. o
-5 15 1 15020. 15629. 1355. o
-3 15 1 1471200. 1466050. 10806. o
-1 15 1 2910. 4183. 454. o
1 15 1 8161. 8428. 631. o
3 15 1 1528. 2244. 527. o
5 15 1 268048. 265349. 7119. o
7 15 1 12615. 5970. 1542. o
-6 16 1 599. 1069. 1120. <
-4 16 1 464. 1201. 698. <
-2 16 1 220. 2872. 658. o
0 16 1 273. 938. 504. <
2 16 1 2254. 1610. 532. o
4 16 1 225. 525. 350. <
6 16 1 2844. 3086. 1362. <
-5 17 1 29. 792. 1061. <
-3 17 1 8405. 6076. 951. o
-1 17 1 1852. 1348. 526. <
1 17 1 37. 860. 508. <
3 17 1 2315. 1880. 703. <
5 17 1 4507. 6436. 2029. o
-4 18 1 42496. 35043. 4160. o
-2 18 1 81358. 74223. 3165. o
0 18 1 295. 6. 564. <
2 18 1 7224. 6118. 895. o
4 18 1 180816. 173864. 14697. o
-1 19 1 860. 599. 759. <
1 19 1 2498. -499. 955. <
0 20 1 6. -8010. 3657. <
-10 0 2 378. 1745. 1020. <
-8 0 2 2910. 3089. 648. o
-6 0 2 2851240. 2708950. 13516. o
-4 0 2 418. 567. 138. o
-2 0 2 28676. 30180. 601. o
0 0 2 752. 1221. 130. o
2 0 2 698124. 619835. 3989. o
4 0 2 70532. 68289. 1524. o
6 0 2 5144. 5461. 480. o
8 0 2 12717. 14208. 1140. o
10 0 2 219115. 212187. 7064. o
-11 1 2 870. 4043. 2507. <
-9 1 2 318. 672. 455. <
-7 1 2 2041. 4343. 420. o
-5 1 2 500. 1201. 177. o
-3 1 2 10008. 7384. 335. o
-1 1 2 77. 111. 37. o
1 1 2 4. 131. 47. <
3 1 2 7030. 9737. 430. o
5 1 2 13496. 10195. 538. o
7 1 2 7904. 7726. 621. o
9 1 2 924. 1582. 593. <
-10 2 2 9. 313. 795. <
-8 2 2 479. 413. 255. <
-6 2 2 7782. 7625. 494. o
-4 2 2 6823. 6644. 389. o
-2 2 2 6369. 5593. 267. o
0 2 2 305. 337. 55. o
2 2 2 5979. 5077. 276. o
4 2 2 1273. 1265. 200. o
6 2 2 496. 611. 172. o
8 2 2 846. 2010. 376. o
10 2 2 70. 623. 757. <
-11 3 2 815. 276. 805. <
-9 3 2 734. 1835. 519. o
-7 3 2 126911. 127020. 1944. o
-5 3 2 168334. 169802. 1746. o
-3 3 2 8496. 8565. 311. o
-1 3 2 52558. 51975. 639. o
1 3 2 888659. 878096. 3181. o
3 3 2 811017. 745622. 3826. o
5 3 2 988070. 936005. 4705. o
7 3 2 492729. 471167. 4039. o
9 3 2 172967. 172436. 4057. o
-10 4 2 1947. 1040. 591. <
-8 4 2 2999. 3074. 412. o
-6 4 2 69. 822. 183. o
-4 4 2 1644. 1521. 184. o
-2 4 2 27838. 24888. 544. o
0 4 2 7792. 6397. 307. o
2 4 2 933. 4365. 311. o
4 4 2 60. 87. 123. <
6 4 2 502. 756. 192. o
8 4 2 3801. 5153. 631. o
10 4 2 607. 3262. 1112. <
-11 5 2 6693. 6705. 3778. <
-9 5 2 115. 4261. 805. o
-7 5 2 4087. 6179. 551. o
-5 5 2 151. 502. 181. <
-3 5 2 815. 1954. 194. o
-1 5 2 1133. 6422. 339. o
1 5 2 22733. 14958. 465. o
3 5 2 2535. 2419. 275. o
5 5 2 62. 146. 155. <
7 5 2 9036. 9074. 676. o
9 5 2 1548. -45. 479. <
-10 6 2 4725. 5049. 828. o
-8 6 2 3147. 4007. 433. o
-6 6 2 2752060. 2800530. 10090. o
-4 6 2 31349. 29599. 689. o
-2 6 2 124884. 127520. 1310. o
0 6 2 36256. 37024. 631. o
2 6 2 875075. 877726. 4438. o
4 6 2 6105. 6675. 455. o
6 6 2 44173. 44411. 1323. o
8 6 2 40061. 41160. 1851. o
10 6 2 265468. 254547. 10207. o
-9 7 2 285. 1424. 529. <
-7 7 2 343. 2940. 393. o
-5 7 2 1190. 1556. 249. o
-3 7 2 637. 939. 159. o
-1 7 2 47. 768. 135. o
1 7 2 3208. 2864. 249. o
3 7 2 9741. 9834. 618. o
5 7 2 2547. 2664. 346. o
7 7 2 5338. 4975. 664. o
9 7 2 6. 624. 654. <
-10 8 2 10. 374. 1159. <
-8 8 2 114. 86. 396. <
-6 8 2 9713. 8976. 639. o
-4 8 2 4774. 6414. 424. o
-2 8 2 2412. 2456. 233. o
0 8 2 13. 95. 108. <
2 8 2 10358. 9900. 521. o
4 8 2 368. 1679. 334. o
6 8 2 729. 1270. 394. o
8 8 2 948. 923. 601. <
10 8 2 313. 1054. 2232. <
-9 9 2 353. 791. 495. <
-7 9 2 172566. 171156. 3054. o
-5 9 2 126469. 126778. 1839. o
-3 9 2 48603. 49027. 1002. o
-1 9 2 33360. 34766. 800. o
1 9 2 774012. 783272. 3837. o
3 9 2 489137. 504531. 4298. o
5 9 2 426287. 413317. 4599. o
7 9 2 346655. 342607. 6035. o
9 9 2 197078. 192567. 6493. o
-8 10 2 302. 65. 444. <
-6 10 2 1749. 3228. 480. o
-4 10 2 8365. 7764. 508. o
-2 10 2 5945. 5684. 449. o
0 10 2 53. 83. 144. <
2 10 2 168. 844. 217. o
4 10 2 4177. 5331. 604. o
6 10 2 671. 2055. 538. o
8 10 2 61. 1129. 814. <
-9 11 2 384. 2972. 1788. <
-7 11 2 94. 1839. 566. o
-5 11 2 226. 344. 226. <
-3 11 2 4526. 4516. 401. o
-1 11 2 933. 1481. 271. o
1 11 2 985. 1024. 202. o
3 11 2 409. 2290. 359. o
5 11 2 6745. 7594. 952. o
7 11 2 8406. 6734. 1138. o
9 11 2 85. -1382. 3029. <
-8 12 2 181. -977. 819. <
-6 12 2 1453440. 1442710. 11899. o
-4 12 2 2953. 3198. 334. o
-2 12 2 24675. 25286. 866. o
0 12 2 3314. 3462. 319. o
2 12 2 377783. 378433. 3427. o
4 12 2 15132. 15521. 1005. o
6 12 2 11599. 12833. 1228. o
8 12 2 16143. 11722. 1855. o
-7 13 2 488. 3019. 856. o
-5 13 2 1298. 2478. 442. o
-3 13 2 121. 535. 255. <
-1 13 2 187. 354. 248. <
1 13 2 2086. 1570. 260. o
3 13 2 10142. 8313. 769. o
5 13 2 891. 1591. 555. <
7 13 2 1981. 2094. 1237. <
-8 14 2 779. 6846. 3243. <
-6 14 2 3623. 3117. 768. o
-4 14 2 436. 811. 337. <
-2 14 2 4451. 3836. 449. o
0 14 2 1499. 1187. 339. o
2 14 2 4145. 4703. 523. o
4 14 2 920. 1165. 506. <
6 14 2 29. 254. 736. <
-7 15 2 42165. 33427. 2919. o
-5 15 2 70995. 71092. 2874. o
-3 15 2 701. 1740. 542. o
-1 15 2 15780. 15680. 965. o
1 15 2 196405. 191071. 3545. o
3 15 2 226455. 219227. 4257. o
5 15 2 345745. 339586. 8807. o
7 15 2 184799. 160746. 13470. o
-6 16 2 328. -806. 1075. <
-4 16 2 1715. 643. 471. <
-2 16 2 12346. 8243. 1039. o
0 16 2 2639. 3349. 717. o
2 16 2 2338. 3288. 629. o
4 16 2 336. -274. 624. <
6 16 2 389. 1372. 1334. <
-5 17 2 851. 1677. 1567. <
-3 17 2 254. 1399. 680. <
-1 17 2 1378. 1918. 633. o
1 17 2 4528. 3283. 833. o
3 17 2 31. 1571. 656. <
5 17 2 1142. 1758. 1363. <
-2 18 2 5030. 4702. 694. o
0 18 2 313. 441. 647. <
2 18 2 179498. 160083. 5449. o
4 18 2 12464. 14171. 3687. o
-1 19 2 165. 2832. 1237. <
1 19 2 58. 586. 790. <
3 19 2 7672. -2174. 2749. <
-10 0 3 70441. 66594. 3989. o
-8 0 3 82193. 79048. 2856. o
-6 0 3 3198. 3834. 422. o
-4 0 3 6505. 7152. 421. o
-2 0 3 885540. 901888. 4167. o
0 0 3 530587. 560183. 3249. o
2 0 3 1369390. 1194700. 6542. o
4 0 3 870940. 793416. 6018. o
6 0 3 370810. 363078. 4226. o
8 0 3 191721. 199083. 4308. o
10 0 3 7361. 5290. 1057. o
-11 1 3 96. 4469. 1866. <
-9 1 3 341. 720. 440. <
-7 1 3 18026. 16340. 786. o
-5 1 3 6633. 6589. 402. o
-3 1 3 65. 3362. 227. o
-1 1 3 124. 258. 53. o
1 1 3 312. 223. 69. o
3 1 3 8416. 8016. 425. o
5 1 3 140. 1273. 224. o
7 1 3 4181. 6920. 573. o
9 1 3 956. 707. 546. <
-10 2 3 203. 2172. 771. <
-8 2 3 793. 856. 264. o
-6 2 3 1127. 2109. 257. o
-4 2 3 6938. 4961. 314. o
-2 2 3 10211. 9584. 352. o
0 2 3 126. 201. 53. o
2 2 3 13404. 11021. 429. o
4 2 3 8602. 7475. 455. o
6 2 3 118. 1322. 226. o
8 2 3 1278. 774. 288. <
10 2 3 3195. 5463. 1453. o
-11 3 3 221. 1815. 1471. <
-9 3 3 1429400. 1359350. 12318. o
-7 3 3 248. 1134. 244. o
-5 3 3 2632. 3223. 227. o
-3 3 3 37125. 37356. 664. o
-1 3 3 692314. 721619. 2975. o
1 3 3 3090. 3521. 175. o
3 3 3 84682. 75198. 1035. o
5 3 3 56418. 54970. 1107. o
7 3 3 557400. 567068. 4788. o
9 3 3 251272. 251528. 5214. o
-10 4 3 30. 1866. 820. <
-8 4 3 7324. 7587. 649. o
-6 4 3 596. 333. 166. <
-4 4 3 8. 45. 104. <
-2 4 3 3411. 10225. 420. o
0 4 3 14700. 11858. 418. o
2 4 3 21528. 17780. 638. o
4 4 3 138. 263. 134. <
6 4 3 928. 542. 169. o
8 4 3 10213. 9036. 832. o
10 4 3 4773. 4281. 1573. <
-11 5 3 220. 3750. 2952. <
-9 5 3 7930. 6488. 897. o
-7 5 3 6588. 8576. 629. o
-5 5 3 611. 641. 167. o
-3 5 3 2863. 2222. 216. o
-1 5 3 28929. 27940. 676. o
1 5 3 2696. 7286. 358. o
3 5 3 929. 1046. 201. o
5 5 3 2292. 2356. 306. o
7 5 3 721. 4793. 588. o
9 5 3 3790. 3587. 710. o
-10 6 3 79915. 77343. 3121. o
-8 6 3 168688. 170494. 3110. o
-6 6 3 103. 790. 183. o
-4 6 3 33269. 34142. 764. o
-2 6 3 784219. 800823. 3852. o
0 6 3 804034. 814765. 3463. o
2 6 3 814708. 774144. 4158. o
4 6 3 1090630. 1042430. 6213. o
6 6 3 372660. 374957. 4226. o
8 6 3 288683. 290193. 5239. o
10 6 3 2542. 2249. 1399. <
-9 7 3 1053. 1656. 599. <
-7 7 3 11253. 9378. 699. o
-5 7 3 1527. 2072. 276. o
-3 7 3 2473. 3236. 291. o
-1 7 3 1138. 1011. 158. o
1 7 3 118. 473. 109. o
3 7 3 1385. 2598. 341. o
5 7 3 1304. 755. 253. <
7 7 3 1907. 3760. 660. o
9 7 3 1457. 2039. 920. <
-10 8 3 904. 1821. 1131. <
-8 8 3 102. 579. 384. <
-6 8 3 896. 2127. 290. o
-4 8 3 6999. 6021. 436. o
-2 8 3 9945. 8030. 451. o
0 8 3 307. 255. 105. <
2 8 3 8249. 8317. 522. o
4 8 3 8356. 9683. 703. o
6 8 3 548. 1662. 464. o
8 8 3 125. -477. 647. <
10 8 3 3444. 2095. 131. o
-9 9 3 1201260. 1170260. 15150. o
-7 9 3 3203. 4648. 510. o
-5 9 3 25453. 25036. 781. o
-3 9 3 4299. 4954. 306. o
-1 9 3 637273. 663308. 3837. o
1 9 3 6115. 6450. 321. o
3 9 3 129696. 128789. 2170. o
5 9 3 18184. 18358. 1029. o
7 9 3 512707. 539919. 9148. o
9 9 3 220504. 231444. 9012. o
-10 10 3 12. -705. 1897. <
-8 10 3 575. 1096. 505. <
-6 10 3 1435. 1629. 330. o
-4 10 3 4959. 4141. 399. o
-2 10 3 4028. 3660. 363. o
0 10 3 502. 736. 178. o
2 10 3 6821. 5395. 452. o
4 10 3 5917. 5230. 623. o
6 10 3 42. 1054. 458. <
8 10 3 3043. 2595. 1039. <
-9 11 3 2094. 536. 849. <
-7 11 3 10058. 8167. 960. o
-5 11 3 1578. 1543. 314. o
-3 11 3 86. 1002. 251. o
-1 11 3 5712. 4509. 399. o
1 11 3 124. 991. 213. o
3 11 3 2502. 3072. 444. o
5 11 3 119. 281. 409. <
7 11 3 603. 5245. 1141. o
-8 12 3 78899. 73779. 3438. o
-6 12 3 666. 2806. 573. o
-4 12 3 4415. 4364. 379. o
-2 12 3 367575. 369110. 3497. o
0 12 3 281706. 275999. 2856. o
2 12 3 428552. 404128. 3629. o
4 12 3 458071. 445314. 6291. o
6 12 3 217416. 213985. 5286. o
8 12 3 143740. 133775. 7374. o
-7 13 3 6832. 2535. 781. o
-5 13 3 1590. 2105. 475. o
-3 13 3 2765. 2497. 385. o
-1 13 3 158. -54. 226. <
1 13 3 26. 628. 267. <
3 13 3 560. 1576. 407. o
5 13 3 836. 550. 515. <
7 13 3 1563. 2371. 927. <
-8 14 3 985. 1583. 954. <
-6 14 3 70. -178. 526. <
-4 14 3 621. 1635. 525. o
-2 14 3 4769. 4750. 536. o
0 14 3 698. 337. 275. <
2 14 3 6804. 6286. 552. o
4 14 3 1201. 1711. 587. <
6 14 3 336. 431. 869. <
-7 15 3 256. 1888. 1165. <
-5 15 3 316. 1666. 517. o
-3 15 3 12357. 11868. 986. o
-1 15 3 187141. 176071. 3396. o
1 15 3 718. 980. 387. <
3 15 3 12155. 11801. 1009. o
5 15 3 25842. 25846. 2451. o
7 15 3 191100. 151521. 13758. o
-6 16 3 166. -2446. 1161. <
-4 16 3 7. 178. 513. <
-2 16 3 631. 2345. 580. o
0 16 3 7960. 7862. 1147. o
2 16 3 5820. 5748. 877. o
4 16 3 17. -507. 598. <
6 16 3 357. -99. 1695. <
-5 17 3 37. 546. 436. <
-3 17 3 103. -177. 548. <
-1 17 3 10275. 8556. 1231. o
1 17 3 829. 1583. 732. <
3 17 3 10. -1095. 676. <
5 17 3 327. 5081. 3358. <
-2 18 3 173217. 168551. 6525. o
0 18 3 111026. 99369. 3699. o
2 18 3 191834. 171880. 6771. o
4 18 3 188637. 172202. 13978. o
-1 19 3 1417. 391. 1208. <
1 19 3 256. -100. 387. <
3 19 3 2952. -12228. 1856. <
-10 0 4 12912. 15532. 2088. o
-8 0 4 14213. 14292. 1139. o
-6 0 4 83518. 85139. 1926. o
-4 0 4 857034. 863843. 5309. o
-2 0 4 2648. 3297. 225. o
0 0 4 155611. 149416. 1682. o
2 0 4 133285. 126378. 2040. o
4 0 4 916425. 849566. 6542. o
6 0 4 257834. 259418. 3664. o
8 0 4 12820. 15622. 1460. o
10 0 4 91185. 104201. 9201. o
-11 1 4 678. 1895. 1174. <
-9 1 4 747. 946. 446. <
-7 1 4 457. 3409. 377. o
-5 1 4 7719. 7956. 415. o
-3 1 4 22702. 20800. 564. o
-1 1 4 482. 571. 90. o
1 1 4 385. 631. 107. o
3 1 4 9453. 9314. 462. o
5 1 4 3297. 2928. 337. o
7 1 4 3223. 4915. 491. o
9 1 4 1323. 1504. 527. <
-10 2 4 3203. 3033. 733. o
-8 2 4 2502. 2991. 427. o
-6 2 4 1880. 1333. 218. o
-4 2 4 297. 1146. 173. o
-2 2 4 2014. 4720. 267. o
0 2 4 400. 265. 75. o
2 2 4 246. 1420. 190. o
4 2 4 311. 3392. 317. o
6 2 4 9376. 6914. 523. o
8 2 4 1731. 768. 437. <
10 2 4 130. 468. 935. <
-11 3 4 39694. 38141. 3898. o
-9 3 4 3866. 3679. 564. o
-7 3 4 3735. 4042. 329. o
-5 3 4 761084. 773645. 4120. o
-3 3 4 799994. 831785. 3660. o
-1 3 4 1379500. 1386350. 4844. o
1 3 4 1616420. 1531520. 5112. o
3 3 4 518754. 475508. 2916. o
5 3 4 294635. 299473. 2668. o
7 3 4 318. 956. 233. o
9 3 4 75647. 79894. 3068. o
-10 4 4 8024. 7106. 1112. o
-8 4 4 2703. 5899. 638. o
-6 4 4 10. 122. 151. <
-4 4 4 57. 126. 123. <
-2 4 4 18268. 20543. 580. o
0 4 4 833. 2971. 243. o
2 4 4 4574. 7659. 389. o
4 4 4 12. 291. 155. <
6 4 4 616. 583. 229. <
8 4 4 1363. 2480. 605. o
-11 5 4 128. -151. 1449. <
-9 5 4 599. -188. 394. <
-7 5 4 6600. 5166. 460. o
-5 5 4 223. 228. 141. <
-3 5 4 1624. 1706. 192. o
-1 5 4 12999. 16848. 591. o
1 5 4 13673. 13058. 510. o
3 5 4 641. 1760. 249. o
5 5 4 1677. 1613. 285. o
7 5 4 13881. 13913. 940. o
9 5 4 7052. 5902. 1186. o
-10 6 4 228. -32. 760. <
-8 6 4 8224. 7672. 594. o
-6 6 4 3444. 3711. 309. o
-4 6 4 627733. 657137. 3640. o
-2 6 4 69619. 72067. 1123. o
0 6 4 83736. 83480. 1070. o
2 6 4 1851. 2374. 214. o
4 6 4 674079. 654804. 4886. o
6 6 4 417384. 427783. 4992. o
8 6 4 8644. 9674. 957. o
-9 7 4 11. -337. 385. <
-7 7 4 1180. 1498. 310. o
-5 7 4 598. 1560. 251. o
-3 7 4 14408. 11944. 576. o
-1 7 4 4865. 4814. 341. o
1 7 4 1232. 2120. 236. o
3 7 4 1049. 1100. 219. o
5 7 4 2739. 2865. 400. o
7 7 4 5858. 7404. 871. o
9 7 4 1607. 776. 803. <
-10 8 4 2368. 1519. 1204. <
-8 8 4 965. 881. 358. <
-6 8 4 1236. 441. 259. <
-4 8 4 2549. 2795. 308. o
-2 8 4 329. 2894. 291. o
0 8 4 15. 63. 114. <
2 8 4 223. 393. 149. <
4 8 4 841. 4089. 482. o
6 8 4 9476. 8431. 949. o
8 8 4 1451. 1574. 607. <
-9 9 4 325. 1246. 767. <
-7 9 4 15368. 16244. 836. o
-5 9 4 363152. 368111. 3253. o
-3 9 4 613556. 641236. 4111. o
-1 9 4 986077. 1010340. 5038. o
1 9 4 1086900. 1097700. 5158. o
3 9 4 216627. 211819. 2879. o
5 9 4 283129. 278538. 4444. o
7 9 4 6911. 8542. 1039. o
9 9 4 84375. 90344. 7427. o
-8 10 4 4712. 3864. 751. o
-6 10 4 6129. 4194. 463. o
-4 10 4 1874. 2155. 281. o
-2 10 4 449. 955. 186. o
0 10 4 1683. 648. 142. o
2 10 4 1168. 3421. 390. o
4 10 4 415. 3494. 595. o
6 10 4 6644. 5837. 956. o
8 10 4 925. -244. 1038. <
-9 11 4 577. 2098. 954. <
-7 11 4 1912. 2808. 679. o
-5 11 4 7976. 6101. 612. o
-3 11 4 3950. 4084. 372. o
-1 11 4 126. 712. 205. o
1 11 4 1641. 1521. 254. o
3 11 4 9785. 8849. 782. o
5 11 4 8. -125. 469. <
7 11 4 3997. 4732. 1016. o
-8 12 4 4946. 4970. 1043. o
-6 12 4 12580. 12457. 975. o
-4 12 4 379908. 390525. 3859. o
-2 12 4 10408. 11085. 571. o
0 12 4 44691. 44178. 1114. o
2 12 4 18703. 17688. 815. o
4 12 4 397773. 398741. 6154. o
6 12 4 199822. 198977. 5168. o
8 12 4 7881. 10490. 2846. o
-7 13 4 401. 209. 442. <
-5 13 4 60. 1370. 483. <
-3 13 4 11174. 8758. 733. o
-1 13 4 3371. 2933. 403. o
1 13 4 585. 1248. 273. o
3 13 4 271. 123. 335. <
5 13 4 3111. 3698. 850. o
7 13 4 4010. 6857. 2094. o
-8 14 4 180. 3992. 2241. <
-6 14 4 311. 765. 519. <
-4 14 4 4866. 4011. 832. o
-2 14 4 2696. 3829. 503. o
0 14 4 56. 624. 324. <
2 14 4 1443. 1470. 386. o
4 14 4 1024. 1669. 542. o
6 14 4 2112. 3846. 1229. o
-7 15 4 937. 2332. 971. <
-5 15 4 303158. 308029. 6263. o
-3 15 4 197342. 195475. 4658. o
-1 15 4 271377. 249692. 4370. o
1 15 4 349710. 323483. 5185. o
3 15 4 219094. 211218. 5550. o
5 15 4 99868. 90819. 4473. o
-6 16 4 559. 3494. 1649. <
-4 16 4 1470. 1733. 561. o
-2 16 4 4952. 5932. 1086. o
0 16 4 974. 1079. 584. <
2 16 4 699. 2376. 573. o
4 16 4 613. 980. 1122. <
6 16 4 212. 4206. 2520. <
-3 17 4 372. -1237. 828. <
-1 17 4 1217. 758. 616. <
1 17 4 3416. 3811. 1003. o
3 17 4 3863. 3047. 1036. <
5 17 4 926. -11555. 5989. <
-2 18 4 3099. 3472. 1096. o
0 18 4 20262. 16686. 1616. o
2 18 4 15734. 15559. 1974. o
-3 19 4 12520. 259. 1464. <
-1 19 4 313. -751. 1349. <
1 19 4 159. 5059. 2724. <
-10 0 5 21366. 23433. 2626. o
-8 0 5 374063. 371288. 5953. o
-6 0 5 479816. 492508. 4820. o
-4 0 5 800331. 791746. 5112. o
-2 0 5 1594950. 1617040. 6730. o
0 0 5 1307990. 1295270. 6424. o
2 0 5 836212. 744472. 5892. o
4 0 5 33592. 33039. 1244. o
6 0 5 310877. 316062. 4320. o
8 0 5 230362. 245644. 6152. o
10 0 5 325680. 338396. 17309. o
-11 1 5 636. 3048. 1850. <
-9 1 5 398. 1650. 521. o
-7 1 5 7809. 7570. 526. o
-5 1 5 5189. 6251. 395. o
-3 1 5 4076. 9321. 397. o
-1 1 5 431. 250. 76. o
1 1 5 27. 134. 86. <
3 1 5 2491. 4847. 370. o
5 1 5 3786. 3067. 325. o
7 1 5 3397. 2156. 359. o
9 1 5 1736. 1492. 649. <
-10 2 5 255. 508. 443. <
-8 2 5 8911. 8372. 731. o
-6 2 5 3252. 2846. 295. o
-4 2 5 2505. 2602. 231. o
-2 2 5 8518. 10170. 426. o
0 2 5 346. 449. 94. o
2 2 5 3516. 3964. 301. o
4 2 5 13508. 13947. 620. o
6 2 5 610. 1755. 299. o
8 2 5 38. 1052. 513. <
10 2 5 100. -315. 802. <
-11 3 5 9791. 7137. 1785. o
-9 3 5 2021. 1559. 511. o
-7 3 5 368692. 371148. 3564. o
-5 3 5 5698. 6478. 341. o
-3 3 5 84544. 84008. 1063. o
-1 3 5 136025. 136328. 1373. o
1 3 5 1676460. 1596300. 5373. o
3 3 5 595433. 571346. 3381. o
5 3 5 61195. 61369. 1220. o
7 3 5 63695. 67574. 1570. o
9 3 5 2893. 2913. 646. o
-10 4 5 832. 1420. 769. <
-8 4 5 13849. 11105. 785. o
-6 4 5 1722. 1864. 226. o
-4 4 5 9. 112. 86. <
-2 4 5 12680. 15349. 572. o
0 4 5 4351. 4693. 304. o
2 4 5 4105. 6091. 368. o
4 4 5 2477. 2642. 306. o
6 4 5 664. 923. 272. o
8 4 5 664. 1692. 475. o
-11 5 5 4403. 3953. 1905. <
-9 5 5 178. 1234. 657. <
-7 5 5 778. 1982. 318. o
-5 5 5 1394. 587. 162. o
-3 5 5 1433. 2239. 250. o
-1 5 5 2466. 4184. 298. o
1 5 5 8278. 8984. 441. o
3 5 5 8697. 6264. 421. o
5 5 5 392. 593. 236. <
7 5 5 783. 1772. 413. o
9 5 5 6207. 7098. 1364. o
-10 6 5 6554. 5877. 755. o
-8 6 5 193102. 192346. 3364. o
-6 6 5 279175. 276560. 2556. o
-4 6 5 973699. 992049. 4874. o
-2 6 5 866850. 860981. 4241. o
0 6 5 519156. 516871. 2967. o
2 6 5 430116. 435628. 3004. o
4 6 5 2152. 2496. 304. o
6 6 5 173625. 176344. 3189. o
8 6 5 110256. 116720. 3580. o
-9 7 5 4. 679. 565. <
-7 7 5 299. 318. 262. <
-5 7 5 3189. 2659. 288. o
-3 7 5 232. 2262. 269. o
-1 7 5 1374. 2803. 291. o
1 7 5 5527. 5425. 357. o
3 7 5 2332. 1834. 294. o
5 7 5 5. 621. 305. <
7 7 5 2683. 714. 452. <
9 7 5 6511. 6111. 3653. <
-10 8 5 551. 1797. 1301. <
-8 8 5 7607. 5915. 834. o
-6 8 5 1223. 1209. 224. o
-4 8 5 2010. 2004. 251. o
-2 8 5 7826. 7708. 498. o
0 8 5 921. 732. 146. o
2 8 5 471. 657. 181. o
4 8 5 11403. 13522. 863. o
6 8 5 1116. 2583. 587. o
8 8 5 30. 2846. 857. o
-9 9 5 440. 1757. 642. <
-7 9 5 182717. 182452. 3715. o
-5 9 5 10572. 11503. 657. o
-3 9 5 5941. 6590. 429. o
-1 9 5 54760. 57704. 1165. o
1 9 5 674032. 684250. 3944. o
3 9 5 436967. 439894. 4468. o
5 9 5 8509. 8635. 889. o
7 9 5 35963. 37765. 2427. o
9 9 5 10666. 13236. 4570. <
-8 10 5 2067. 1902. 732. <
-6 10 5 8481. 7616. 704. o
-4 10 5 4772. 5705. 501. o
-2 10 5 1055. 1013. 220. o
0 10 5 1757. 1536. 209. o
2 10 5 14543. 15250. 812. o
4 10 5 13331. 12675. 1103. o
6 10 5 531. 1484. 699. <
8 10 5 1348. 4534. 1692. <
-9 11 5 444. -1753. 867. <
-7 11 5 10831. 11163. 1135. o
-5 11 5 1021. 3126. 432. o
-3 11 5 3710. 4809. 478. o
-1 11 5 214. 40. 198. <
1 11 5 761. 1563. 272. o
3 11 5 3335. 6696. 748. o
5 11 5 3613. 2462. 638. o
7 11 5 1853. 713. 919. <
-8 12 5 169721. 152273. 5132. o
-6 12 5 197061. 203766. 4179. o
-4 12 5 398898. 398162. 4168. o
-2 12 5 494941. 494482. 4595. o
0 12 5 372542. 374335. 3568. o
2 12 5 285548. 273972. 3444. o
4 12 5 293. 1518. 574. <
6 12 5 132208. 132041. 4280. o
-7 13 5 41. 1185. 702. <
-5 13 5 2120. 1758. 483. o
-3 13 5 819. 1583. 370. o
-1 13 5 1173. 2617. 406. o
1 13 5 6183. 6141. 544. o
3 13 5 1559. 720. 331. <
5 13 5 87. -131. 722. <
7 13 5 1506. -95. 1978. <
-8 14 5 11542. 12121. 2771. o
-6 14 5 7. 175. 685. <
-4 14 5 53. 561. 594. <
-2 14 5 9346. 9164. 790. o
0 14 5 7688. 6032. 620. o
2 14 5 507. 2170. 527. o
4 14 5 2153. 3343. 861. o
6 14 5 2906. 4210. 1436. <
-7 15 5 201429. 191028. 9128. o
-5 15 5 3149. 3421. 742. o
-3 15 5 41812. 39861. 2147. o
-1 15 5 39324. 38884. 1759. o
1 15 5 513484. 483144. 7102. o
3 15 5 201339. 200636. 6057. o
5 15 5 37399. 39195. 3894. o
-6 16 5 4051. 7700. 4112. <
-4 16 5 179. -45. 828. <
-2 16 5 1813. 341. 661. <
0 16 5 154. 1418. 690. <
2 16 5 7366. 8520. 1332. o
4 16 5 2389. 1634. 1421. <
-3 17 5 365. 703. 902. <
-1 17 5 143. 503. 775. <
1 17 5 11. 213. 831. <
3 17 5 3532. 2370. 973. <
-4 18 5 162999. 172073. 11504. o
-2 18 5 232095. 200760. 10235. o
0 18 5 198208. 172203. 7861. o
2 18 5 145360. 123618. 5966. o
-1 19 5 158. -5541. 5234. <
-10 0 6 254894. 253369. 8213. o
-8 0 6 14954. 15856. 1167. o
-6 0 6 126822. 129713. 2309. o
-4 0 6 2134. 2534. 289. o
-2 0 6 1657420. 1709000. 8003. o
0 0 6 1341410. 1321540. 6954. o
2 0 6 36778. 33930. 1186. o
4 0 6 103124. 98691. 2358. o
6 0 6 6720. 6486. 621. o
8 0 6 518139. 561278. 12316. o
-11 1 6 3512. 2286. 725. o
-9 1 6 475. 1439. 427. o
-7 1 6 3399. 3742. 414. o
-5 1 6 4378. 4709. 365. o
-3 1 6 6419. 9174. 428. o
-1 1 6 1150. 1347. 159. o
1 1 6 2386. 2414. 243. o
3 1 6 13796. 15524. 686. o
5 1 6 127. 1819. 283. o
7 1 6 1778. 1906. 350. o
9 1 6 4798. 3611. 838. o
-10 2 6 1106. 679. 615. <
-8 2 6 2912. 4705. 591. o
-6 2 6 871. 2345. 290. o
-4 2 6 2529. 3371. 267. o
-2 2 6 1289. 1754. 189. o
0 2 6 412. 732. 119. o
2 2 6 5451. 6222. 388. o
4 2 6 1933. 2584. 308. o
6 2 6 6278. 5164. 504. o
8 2 6 5780. 5813. 968. o
-11 3 6 172829. 152187. 9476. o
-9 3 6 221856. 217860. 4577. o
-7 3 6 417087. 406771. 3897. o
-5 3 6 1055810. 1074970. 4812. o
-3 3 6 510799. 521098. 3141. o
-1 3 6 829289. 837273. 4008. o
1 3 6 5209. 5200. 285. o
3 3 6 291268. 284397. 2617. o
5 3 6 326783. 325081. 3069. o
7 3 6 513846. 541645. 4669. o
9 3 6 48005. 48421. 2580. o
-10 4 6 778. 2098. 771. <
-8 4 6 583. 2993. 476. o
-6 4 6 277. 588. 181. o
-4 4 6 34. 146. 126. <
-2 4 6 127. 2814. 292. o
0 4 6 3442. 3785. 286. o
2 4 6 12830. 10371. 498. o
4 4 6 12. 444. 176. <
6 4 6 2959. 3912. 454. o
8 4 6 8272. 6994. 1042. o
-11 5 6 6047. 4448. 1276. o
-9 5 6 4350. 6919. 1019. o
-7 5 6 1266. 636. 251. <
-5 5 6 303. 688. 167. o
-3 5 6 12618. 12912. 581. o
-1 5 6 11673. 12486. 539. o
1 5 6 1428. 3811. 292. o
3 5 6 681. 1565. 226. o
5 5 6 35. 181. 221. <
7 5 6 301. 506. 350. <
9 5 6 3883. 4991. 1862. <
-10 6 6 170049. 163618. 5444. o
-8 6 6 690. 1448. 345. o
-6 6 6 43300. 43386. 1067. o
-4 6 6 55478. 55847. 1104. o
-2 6 6 904888. 934262. 4630. o
0 6 6 589705. 593712. 3253. o
2 6 6 1448. 2769. 235. o
4 6 6 210519. 207841. 2667. o
6 6 6 23124. 24979. 1099. o
8 6 6 323313. 341898. 7896. o
-9 7 6 5237. 4185. 738. o
-7 7 6 2282. 2578. 405. o
-5 7 6 22. -18. 162. <
-3 7 6 4279. 3878. 404. o
-1 7 6 16280. 15727. 643. o
1 7 6 705. 2041. 264. o
3 7 6 1121. 2650. 371. o
5 7 6 88. 430. 341. <
7 7 6 72. 1226. 531. <
9 7 6 2945. 1684. 701. <
-10 8 6 1947. -393. 1699. <
-8 8 6 1667. 2751. 649. o
-6 8 6 384. 1400. 351. o
-4 8 6 1994. 2921. 338. o
-2 8 6 457. 697. 186. o
0 8 6 772. 1156. 185. o
2 8 6 4831. 4186. 378. o
4 8 6 1276. 1764. 397. o
6 8 6 2822. 3072. 622. o
8 8 6 6743. 7056. 1299. o
-9 9 6 108518. 104674. 4164. o
-7 9 6 265788. 266958. 4928. o
-5 9 6 481355. 478997. 4260. o
-3 9 6 362109. 367585. 3353. o
-1 9 6 293859. 314371. 2794. o
1 9 6 1918. 3133. 291. o
3 9 6 91625. 89691. 2015. o
5 9 6 244551. 243540. 4843. o
7 9 6 280072. 292611. 7467. o
-8 10 6 5469. 3782. 674. o
-6 10 6 3752. 3343. 501. o
-4 10 6 3425. 5232. 523. o
-2 10 6 5603. 5762. 492. o
0 10 6 1309. 1174. 214. o
2 10 6 1160. 2612. 382. o
4 10 6 4616. 5576. 746. o
6 10 6 9979. 12435. 1455. o
8 10 6 762. -2019. 1527. <
-9 11 6 4. 3486. 2697. <
-7 11 6 1921. 2258. 711. o
-5 11 6 4631. 3723. 487. o
-3 11 6 7586. 8717. 655. o
-1 11 6 618. 935. 293. o
1 11 6 2165. 2245. 349. o
3 11 6 12732. 9909. 1002. o
5 11 6 62. 1473. 555. <
7 11 6 2926. 2123. 576. o
-8 12 6 2988. 2882. 638. o
-6 12 6 40812. 40610. 2030. o
-4 12 6 12660. 13337. 769. o
-2 12 6 551328. 566243. 5395. o
0 12 6 412775. 427584. 3915. o
2 12 6 9014. 8479. 651. o
4 12 6 76538. 81761. 3376. o
6 12 6 4662. 5203. 966. o
-7 13 6 1385. 2479. 797. o
-5 13 6 230. 165. 521. <
-3 13 6 1646. 1254. 359. o
-1 13 6 17684. 15151. 874. o
1 13 6 707. 2557. 434. o
3 13 6 2. 670. 566. <
5 13 6 338. -67. 638. <
7 13 6 828. 1154. 1025. <
-8 14 6 27. 4571. 2726. <
-6 14 6 310. 273. 595. <
-4 14 6 20. -533. 592. <
-2 14 6 683. 2447. 677. o
0 14 6 5259. 4956. 600. o
2 14 6 8395. 6242. 968. o
4 14 6 48. -884. 856. <
6 14 6 25. 6036. 2987. <
-7 15 6 159632. 132429. 13179. o
-5 15 6 384006. 382969. 8012. o
-3 15 6 172737. 166136. 4932. o
-1 15 6 289584. 280908. 5786. o
1 15 6 6662. 7096. 792. o
3 15 6 131988. 132726. 4970. o
5 15 6 120769. 129403. 8188. o
-4 16 6 3. 503. 813. <
-2 16 6 1528. 2736. 628. o
0 16 6 104. 306. 493. <
2 16 6 2684. 2150. 826. <
4 16 6 420. 1924. 1698. <
-5 17 6 1339. 5028. 2507. <
-3 17 6 7540. 5068. 972. o
-1 17 6 26. 1226. 808. <
1 17 6 1373. 46. 931. <
3 17 6 3953. 1349. 1157. <
-4 18 6 3670. 10365. 4184. <
-2 18 6 263311. 232045. 11547. o
0 18 6 218259. 203776. 12083. o
2 18 6 8139. 9209. 1689. o
-1 19 6 6733. -2402. 3170. <
-10 0 7 327393. 317697. 10994. o
-8 0 7 433518. 429710. 7225. o
-6 0 7 207838. 209950. 3387. o
-4 0 7 431787. 442405. 3809. o
-2 0 7 4763. 5451. 408. o
0 0 7 458415. 444318. 3954. o
2 0 7 381258. 345845. 4085. o
4 0 7 1072810. 1056180. 8403. o
6 0 7 235531. 252659. 4644. o
8 0 7 21834. 23772. 2582. o
-11 1 7 2925. 5097. 3726. <
-9 1 7 18. -98. 494. <
-7 1 7 134. 1605. 325. o
-5 1 7 947. 719. 154. o
-3 1 7 13915. 12308. 505. o
-1 1 7 276. 759. 148. o
1 1 7 410. 603. 141. o
3 1 7 17323. 20815. 803. o
5 1 7 5498. 5453. 501. o
7 1 7 129. 421. 348. <
9 1 7 76. 59. 716. <
-10 2 7 73. 68. 697. <
-8 2 7 3008. 2443. 370. o
-6 2 7 12981. 13720. 638. o
-4 2 7 669. 2398. 242. o
-2 2 7 3639. 4849. 308. o
0 2 7 2097. 1852. 197. o
2 2 7 548. 2639. 292. o
4 2 7 1200. 1042. 219. o
6 2 7 328. 445. 250. <
8 2 7 28. 805. 528. <
-11 3 7 11525. 10380. 1926. o
-9 3 7 12199. 12177. 1154. o
-7 3 7 18437. 18616. 801. o
-5 3 7 664745. 678552. 3825. o
-3 3 7 589089. 599038. 3536. o
-1 3 7 38125. 35933. 769. o
1 3 7 184523. 167376. 1837. o
3 3 7 20024. 19633. 662. o
5 3 7 947706. 954404. 5884. o
7 3 7 49724. 52854. 2108. o
9 3 7 20583. 23018. 2492. o
-10 4 7 565. 751. 775. <
-8 4 7 2477. 1994. 339. o
-6 4 7 1937. 1945. 243. o
-4 4 7 2495. 1999. 227. o
-2 4 7 15488. 17062. 659. o
0 4 7 1755. 3429. 308. o
2 4 7 3307. 5864. 406. o
4 4 7 1274. 1072. 202. o
6 4 7 4130. 2973. 434. o
8 4 7 4. 1550. 760. <
-9 5 7 2278. 3723. 799. o
-7 5 7 3106. 3572. 446. o
-5 5 7 1436. 2257. 258. o
-3 5 7 1257. 4900. 410. o
-1 5 7 7028. 11346. 577. o
1 5 7 11994. 10606. 524. o
3 5 7 2582. 2597. 268. o
5 5 7 347. 430. 213. <
7 5 7 2391. 1048. 396. <
9 5 7 2213. 1315. 1082. <
-10 6 7 181301. 176853. 6394. o
-8 6 7 330572. 330142. 4798. o
-6 6 7 360124. 366417. 3669. o
-4 6 7 295467. 304651. 2599. o
-2 6 7 33400. 35593. 909. o
0 6 7 292921. 293321. 2459. o
2 6 7 605627. 600722. 3735. o
4 6 7 803865. 802205. 5485. o
6 6 7 81642. 86673. 2273. o
8 6 7 12409. 11045. 1155. o
-9 7 7 181. 831. 555. <
-7 7 7 446. 1674. 364. o
-5 7 7 154. 576. 317. <
-3 7 7 2013. 1704. 308. o
-1 7 7 1605. 4059. 363. o
1 7 7 4343. 4148. 344. o
3 7 7 12498. 12041. 711. o
5 7 7 184. 758. 386. <
7 7 7 846. 703. 469. <
-10 8 7 133. -1171. 886. <
-8 8 7 2547. 1765. 494. o
-6 8 7 14891. 14069. 868. o
-4 8 7 4. 1810. 317. o
-2 8 7 2319. 2620. 291. o
0 8 7 2602. 2063. 255. o
2 8 7 1179. 2935. 336. o
4 8 7 157. 614. 360. <
6 8 7 196. -140. 464. <
8 8 7 40. 815. 530. <
-9 9 7 19861. 17112. 1654. o
-7 9 7 39346. 39380. 1902. o
-5 9 7 545672. 556167. 5116. o
-3 9 7 254251. 256901. 2751. o
-1 9 7 61012. 62522. 1193. o
1 9 7 207340. 210482. 2311. o
3 9 7 1981. 3413. 404. o
5 9 7 529134. 578131. 9002. o
7 9 7 57050. 65489. 3888. o
-8 10 7 853. 1138. 488. <
-6 10 7 8154. 8386. 837. o
-4 10 7 7153. 7512. 680. o
-2 10 7 530. 1898. 323. o
0 10 7 25. 214. 185. <
2 10 7 333. 1380. 360. o
4 10 7 5087. 5266. 789. o
6 10 7 74. 2623. 805. o
8 10 7 732. 1358. 1539. <
-9 11 7 206. -2234. 1272. <
-7 11 7 23. -458. 605. <
-5 11 7 17. -257. 350. <
-3 11 7 9920. 7592. 682. o
-1 11 7 950. 594. 215. <
1 11 7 213. 80. 208. <
3 11 7 3340. 5142. 760. o
5 11 7 8922. 9434. 1375. o
7 11 7 456. 4022. 1484. <
-8 12 7 221084. 201614. 8731. o
-6 12 7 168768. 171681. 4500. o
-4 12 7 193452. 193489. 3215. o
-2 12 7 339. 1748. 344. o
0 12 7 174595. 179061. 2480. o
2 12 7 239687. 250077. 4113. o
4 12 7 496247. 536209. 8911. o
6 12 7 80905. 82041. 3856. o
-7 13 7 239. 2620. 1183. <
-5 13 7 447. 468. 576. <
-3 13 7 338. 168. 248. <
-1 13 7 782. 2626. 357. o
1 13 7 4202. 3760. 499. o
3 13 7 10663. 8939. 1144. o
5 13 7 138. 1073. 620. <
7 13 7 565. -4185. 5309. <
-6 14 7 4908. 1806. 1134. <
-4 14 7 529. 1530. 723. <
-2 14 7 7565. 7947. 1005. o
0 14 7 4009. 3438. 528. o
2 14 7 120. 2963. 784. o
4 14 7 326. 553. 552. <
-7 15 7 3677. 4908. 3239. <
-5 15 7 215626. 211301. 6355. o
-3 15 7 247593. 248849. 6275. o
-1 15 7 9250. 10063. 1074. o
1 15 7 36280. 36831. 2151. o
3 15 7 4917. 6545. 1149. o
5 15 7 417754. 486253. 20112. o
-6 16 7 451. 1709. 757. <
-4 16 7 6382. 5088. 1216. o
-2 16 7 4773. 2118. 952. <
0 16 7 31. 1152. 669. <
2 16 7 1683. 901. 879. <
4 16 7 3561. 6368. 2275. <
-5 17 7 501. 947. 1736. <
-3 17 7 3763. 4598. 1967. <
-1 17 7 2575. -532. 1120. <
1 17 7 1153. 201. 1008. <
3 17 7 198. 1387. 1334. <
-2 18 7 2204. 5643. 4861. <
0 18 7 85053. 64272. 5008. o
-10 0 8 25381. 24247. 2938. o
-8 0 8 377927. 380073. 6967. o
-6 0 8 422451. 433259. 4745. o
-4 0 8 1226. 2411. 346. o
-2 0 8 183770. 173074. 2387. o
0 0 8 200918. 190188. 2700. o
2 0 8 1032750. 949809. 7553. o
4 0 8 37303. 35917. 1497. o
6 0 8 9998. 12730. 1039. o
8 0 8 108726. 116779. 5732. o
-9 1 8 2185. 2445. 669. o
-7 1 8 14402. 10997. 705. o
-5 1 8 1354. 1765. 233. o
-3 1 8 91. 2993. 274. o
-1 1 8 1271. 879. 140. o
1 1 8 1914. 607. 150. o
3 1 8 4368. 6491. 470. o
5 1 8 966. 1476. 294. o
7 1 8 11569. 10052. 1232. o
9 1 8 166. -1926. 1385. <
-10 2 8 65. 144. 1009. <
-8 2 8 756. -429. 367. <
-6 2 8 675. 4511. 373. o
-4 2 8 6531. 6659. 415. o
-2 2 8 9639. 9919. 456. o
0 2 8 317. 506. 131. o
2 2 8 8085. 8991. 504. o
4 2 8 2449. 1619. 248. o
6 2 8 138. 317. 294. <
8 2 8 3897. 4337. 940. o
-11 3 8 169881. 159806. 15151. o
-9 3 8 201715. 207068. 4863. o
-7 3 8 275564. 277413. 2982. o
-5 3 8 1814. 2655. 263. o
-3 3 8 285622. 291788. 2471. o
-1 3 8 377607. 366426. 2639. o
1 3 8 904311. 858533. 4812. o
3 3 8 200498. 191825. 2226. o
5 3 8 10920. 11710. 662. o
7 3 8 19533. 21803. 1561. o
-10 4 8 281. 2633. 943. <
-8 4 8 5420. 4602. 584. o
-6 4 8 13. 1215. 222. o
-4 4 8 316. 886. 225. o
-2 4 8 12551. 17270. 635. o
0 4 8 11220. 12745. 575. o
2 4 8 3087. 4137. 384. o
4 4 8 70. 439. 208. <
6 4 8 456. 737. 338. <
8 4 8 11793. 10831. 1462. o
-9 5 8 7667. 7739. 1128. o
-7 5 8 520. 2191. 336. o
-5 5 8 64. 533. 150. o
-3 5 8 8671. 8144. 510. o
-1 5 8 10567. 13573. 610. o
1 5 8 4386. 9609. 531. o
3 5 8 46. 148. 195. <
5 5 8 1768. 1959. 295. o
7 5 8 3362. 4465. 765. o
-10 6 8 15685. 15785. 2218. o
-8 6 8 490275. 495960. 6239. o
-6 6 8 400763. 415472. 4102. o
-4 6 8 59030. 59803. 1206. o
-2 6 8 103216. 102794. 1626. o
0 6 8 19690. 19066. 649. o
2 6 8 932614. 915318. 5019. o
4 6 8 131471. 133301. 2136. o
6 6 8 15281. 16492. 1148. o
8 6 8 175890. 165850. 6802. o
-9 7 8 2767. 2404. 603. o
-7 7 8 9854. 8291. 780. o
-5 7 8 84. 101. 176. <
-3 7 8 419. 1196. 279. o
-1 7 8 2509. 2208. 301. o
1 7 8 206. 535. 171. o
3 7 8 907. 2103. 284. o
5 7 8 3. 549. 371. <
7 7 8 8261. 6563. 1283. o
-10 8 8 109. 3559. 3106. <
-8 8 8 50. -432. 524. <
-6 8 8 1164. 4057. 469. o
-4 8 8 7356. 6650. 581. o
-2 8 8 6627. 4967. 396. o
0 8 8 221. 266. 170. <
2 8 8 10550. 11491. 673. o
4 8 8 2561. 1583. 374. o
6 8 8 16. 1032. 511. <
8 8 8 2594. 1350. 1637. <
-9 9 8 185895. 167210. 6932. o
-7 9 8 281277. 277702. 5309. o
-5 9 8 401. 1158. 279. o
-3 9 8 302413. 312275. 3539. o
-1 9 8 322375. 332584. 3088. o
1 9 8 798499. 839670. 5170. o
3 9 8 87516. 92219. 2214. o
5 9 8 31125. 32867. 1874. o
7 9 8 27180. 29134. 2630. o
-8 10 8 454. 380. 692. <
-6 10 8 16. 1748. 511. o
-4 10 8 6673. 4906. 567. o
-2 10 8 6390. 5079. 533. o
0 10 8 581. 961. 260. o
2 10 8 1449. 1209. 333. o
4 10 8 4504. 3614. 702. o
6 10 8 378. 338. 836. <
-9 11 8 4588. 10493. 5435. <
-7 11 8 2516. 1852. 853. <
-5 11 8 884. 106. 435. <
-3 11 8 515. 1064. 312. o
-1 11 8 2060. 1830. 349. o
1 11 8 56. 596. 296. <
3 11 8 2395. 2130. 571. o
5 11 8 104. 1935. 671. <
7 11 8 6238. 7447. 1874. o
-8 12 8 255107. 243533. 9732. o
-6 12 8 241996. 255825. 6524. o
-4 12 8 13160. 14134. 1128. o
-2 12 8 64482. 66163. 1880. o
0 12 8 23152. 24031. 968. o
2 12 8 524186. 562820. 6782. o
4 12 8 46097. 48411. 2814. o
6 12 8 5596. 3561. 1140. o
-7 13 8 9810. 8263. 1663. o
-5 13 8 88. 236. 618. <
-3 13 8 28. 370. 577. <
-1 13 8 1391. 242. 443. <
1 13 8 696. 1350. 423. o
3 13 8 81. 1344. 688. <
5 13 8 13. 1370. 1030. <
-6 14 8 886. 3603. 1211. <
-4 14 8 945. -178. 805. <
-2 14 8 4361. 4736. 754. o
0 14 8 515. 666. 371. <
2 14 8 8789. 7184. 963. o
4 14 8 9. 600. 798. <
-5 15 8 6466. 9881. 1796. o
-3 15 8 75314. 75327. 3791. o
-1 15 8 108252. 112184. 4191. o
1 15 8 276649. 280884. 5640. o
3 15 8 78450. 81774. 4385. o
-4 16 8 302. -1151. 5746. <
-2 16 8 5582. 4350. 976. o
0 16 8 6243. 7545. 1326. o
2 16 8 58. 896. 886. <
4 16 8 172. 6705. 4128. <
-3 17 8 2411. -3960. 4421. <
-1 17 8 2196. 3168. 2072. <
1 17 8 1507. 3162. 1818. <
3 17 8 530. -3811. 3547. <
-10 0 9 96361. 87176. 5955. o
-8 0 9 389. 1763. 497. o
-6 0 9 89214. 92026. 2286. o
-4 0 9 583642. 603174. 5302. o
-2 0 9 897647. 911134. 6580. o
0 0 9 119307. 118257. 2268. o
2 0 9 32106. 29329. 1244. o
4 0 9 30782. 32089. 1526. o
6 0 9 405589. 428373. 7282. o
8 0 9 31498. 35493. 3184. o
-9 1 9 9. 1374. 453. o
-7 1 9 5721. 7263. 597. o
-5 1 9 7968. 8869. 507. o
-3 1 9 7678. 9561. 506. o
-1 1 9 110. 405. 120. o
1 1 9 83. 392. 164. <
3 1 9 12317. 13012. 665. o
5 1 9 4695. 4761. 534. o
7 1 9 528. 2809. 829. o
9 1 9 11. 230. 1253. <
-10 2 9 1671. 333. 1044. <
-8 2 9 35. 177. 356. <
-6 2 9 6387. 5896. 491. o
-4 2 9 246. 952. 178. o
-2 2 9 283. 3171. 287. o
0 2 9 1464. 757. 152. o
2 2 9 1061. 1588. 231. o
4 2 9 3379. 4446. 484. o
6 2 9 5355. 2830. 536. o
8 2 9 611. 52. 679. <
-9 3 9 189755. 191298. 4765. o
-7 3 9 8181. 8584. 566. o
-5 3 9 199199. 206647. 2437. o
-3 3 9 19821. 18749. 645. o
-1 3 9 1026900. 1011380. 4867. o
1 3 9 180338. 173611. 2161. o
3 3 9 56189. 54474. 1249. o
5 3 9 196977. 203327. 2811. o
7 3 9 622576. 672379. 9193. o
-10 4 9 5930. 2979. 964. o
-8 4 9 254. 2875. 538. o
-6 4 9 981. 472. 254. <
-4 4 9 1296. 680. 189. o
-2 4 9 7889. 11180. 565. o
0 4 9 86. 1913. 239. o
2 4 9 9234. 7540. 510. o
4 4 9 1628. 452. 253. <
6 4 9 83. -610. 405. <
8 4 9 2767. 3345. 1231. <
-9 5 9 4025. 3487. 705. o
-7 5 9 7444. 6166. 626. o
-5 5 9 5. -7. 212. <
-3 5 9 1786. 1653. 227. o
-1 5 9 17938. 23482. 839. o
1 5 9 1299. 2383. 295. o
3 5 9 62. 603. 234. <
5 5 9 1351. 2861. 385. o
7 5 9 10579. 8963. 1326. o
-10 6 9 138603. 119015. 6584. o
-8 6 9 5790. 7486. 879. o
-6 6 9 169858. 173411. 2806. o
-4 6 9 313021. 317417. 2943. o
-2 6 9 1056100. 1078140. 5499. o
0 6 9 201088. 202388. 2381. o
2 6 9 104224. 104446. 1780. o
4 6 9 2613. 3741. 391. o
6 6 9 497799. 520101. 7589. o
8 6 9 9477. 10619. 3538. o
-9 7 9 616. 113. 779. <
-7 7 9 4833. 3738. 590. o
-5 7 9 1193. 1506. 297. o
-3 7 9 8741. 7239. 558. o
-1 7 9 1748. 1451. 243. o
1 7 9 96. 608. 196. o
3 7 9 4753. 3673. 456. o
5 7 9 5035. 4296. 627. o
7 7 9 971. 3700. 909. o
-10 8 9 269. -800. 447. <
-8 8 9 55. 935. 635. <
-6 8 9 7864. 5633. 632. o
-4 8 9 476. 1200. 380. o
-2 8 9 264. 2947. 331. o
0 8 9 1028. 861. 201. o
2 8 9 218. 1090. 251. o
4 8 9 2208. 4067. 652. o
6 8 9 7327. 6027. 1078. o
-9 9 9 208444. 189100. 8415. o
-7 9 9 8790. 9512. 1162. o
-5 9 9 61515. 63368. 1819. o
-3 9 9 6471. 6072. 464. o
-1 9 9 931812. 956267. 6275. o
1 9 9 127930. 133732. 2146. o
3 9 9 88336. 94678. 2423. o
5 9 9 151639. 164949. 4610. o
7 9 9 582428. 608805. 15413. o
-8 10 9 610. 2395. 887. <
-6 10 9 3709. 3480. 738. o
-4 10 9 406. 1363. 380. o
-2 10 9 970. 1401. 469. <
0 10 9 2496. 1239. 281. o
2 10 9 752. 896. 337. <
4 10 9 5868. 5553. 978. o
6 10 9 1690. 1996. 771. <
-7 11 9 5985. 4438. 1159. o
-5 11 9 4224. 3230. 750. o
-3 11 9 434. 787. 368. <
-1 11 9 3263. 3366. 435. o
1 11 9 536. 618. 278. <
3 11 9 4794. 4819. 784. o
5 11 9 1453. 2209. 918. <
7 11 9 2761. 12726. 5729. <
-8 12 9 1989. 2590. 683. o
-6 12 9 74496. 76361. 3563. o
-4 12 9 220099. 231146. 4874. o
-2 12 9 504385. 526334. 5512. o
0 12 9 80020. 82552. 1891. o
2 12 9 30497. 33041. 1382. o
4 12 9 7346. 8826. 1153. o
6 12 9 282548. 308503. 11066. o
-7 13 9 2887. 2364. 1265. <
-5 13 9 907. 1348. 598. <
-3 13 9 6957. 7264. 1171. o
-1 13 9 609. 392. 395. <
1 13 9 272. 834. 478. <
3 13 9 3701. 1813. 695. <
5 13 9 3683. 2567. 1064. <
-6 14 9 1948. 2385. 1225. <
-4 14 9 2376. 1622. 933. <
-2 14 9 136. 2448. 877. <
0 14 9 5. -1143. 710. <
2 14 9 1907. 1864. 672. <
4 14 9 176. 3477. 1414. <
-5 15 9 90322. 87653. 9554. o
-3 15 9 2925. 2254. 1262. <
-1 15 9 318037. 328762. 7375. o
1 15 9 57053. 59373. 2681. o
3 15 9 5818. 8088. 1771. o
-4 16 9 48. 9674. 5733. <
-2 16 9 5429. 6098. 1477. o
0 16 9 59. 464. 941. <
2 16 9 4033. 3073. 2092. <
-1 17 9 7064. 2981. 1435. <
-10 0 10 33053. 31833. 4387. o
-8 0 10 72951. 74073. 2992. o
-6 0 10 1883. 2724. 422. o
-4 0 10 892317. 912645. 6969. o
-2 0 10 179285. 174092. 2635. o
0 0 10 24907. 24892. 1052. o
2 0 10 435871. 403844. 5851. o
4 0 10 830011. 790406. 9076. o
6 0 10 18294. 19440. 1793. o
8 0 10 3396. 4162. 1518. <
-9 1 10 944. 1094. 600. <
-7 1 10 7680. 7022. 659. o
-5 1 10 1070. 4394. 400. o
-3 1 10 6273. 8194. 486. o
-1 1 10 13. 374. 135. <
1 1 10 857. 614. 187. o
3 1 10 6285. 7385. 569. o
5 1 10 2233. 1525. 331. o
7 1 10 2848. 3682. 850. o
-10 2 10 1581. 605. 855. <
-8 2 10 5976. 4936. 598. o
-6 2 10 2042. 1940. 312. o
-4 2 10 1122. 1489. 215. o
-2 2 10 6349. 5470. 373. o
0 2 10 883. 594. 154. o
2 2 10 5353. 5329. 440. o
4 2 10 8819. 8677. 685. o
6 2 10 778. 2674. 581. o
8 2 10 2. 1819. 1139. <
-9 3 10 121811. 120804. 4072. o
-7 3 10 229795. 235230. 3519. o
-5 3 10 773265. 792681. 5181. o
-3 3 10 192733. 196873. 2312. o
-1 3 10 32010. 29317. 760. o
1 3 10 45957. 45635. 1146. o
3 3 10 638568. 594890. 4645. o
5 3 10 96574. 100062. 2114. o
7 3 10 16229. 16896. 1475. o
-10 4 10 3501. 1157. 939. <
-8 4 10 8355. 8876. 1041. o
-6 4 10 654. 699. 243. <
-4 4 10 169. 395. 230. <
-2 4 10 14206. 17313. 688. o
0 4 10 5792. 4720. 383. o
2 4 10 1453. 2915. 349. o
4 4 10 1631. 2000. 326. o
6 4 10 4. -115. 535. <
-9 5 10 496. -809. 756. <
-7 5 10 509. 2142. 435. o
-5 5 10 1137. 242. 200. <
-3 5 10 125. 640. 203. o
-1 5 10 277. 3449. 345. o
1 5 10 12147. 9277. 568. o
3 5 10 6499. 4530. 468. o
5 5 10 1333. 2173. 391. o
7 5 10 3470. 5359. 1143. o
-10 6 10 6822. 7284. 1654. o
-8 6 10 34799. 36026. 1932. o
-6 6 10 22010. 24404. 1126. o
-4 6 10 905330. 927503. 5939. o
-2 6 10 36728. 33923. 911. o
0 6 10 56041. 58058. 1252. o
2 6 10 176915. 172408. 2418. o
4 6 10 840785. 856150. 6273. o
6 6 10 23. 440. 621. <
-9 7 10 91. 825. 770. <
-7 7 10 1192. 668. 440. <
-5 7 10 3949. 2662. 377. o
-3 7 10 410. 1902. 305. o
-1 7 10 698. 1218. 210. o
1 7 10 6374. 4119. 427. o
3 7 10 1695. 1073. 249. o
5 7 10 243. 731. 424. <
7 7 10 4326. 2495. 1031. <
-8 8 10 3635. 2726. 687. o
-6 8 10 845. 1079. 414. <
-4 8 10 3769. 3599. 474. o
-2 8 10 4593. 3836. 496. o
0 8 10 139. 416. 255. <
2 8 10 3502. 2924. 388. o
4 8 10 10419. 9500. 909. o
6 8 10 467. 958. 767. <
-9 9 10 79115. 62435. 7774. o
-7 9 10 103737. 106391. 3706. o
-5 9 10 496448. 513603. 5810. o
-3 9 10 223930. 237307. 3155. o
-1 9 10 11261. 11784. 725. o
1 9 10 2893. 4172. 432. o
3 9 10 425229. 440883. 5677. o
5 9 10 25485. 30712. 2030. o
-8 10 10 3580. 4633. 970. o
-6 10 10 7814. 6996. 1020. o
-4 10 10 52. 344. 337. <
-2 10 10 1357. 764. 397. <
0 10 10 1498. 2051. 429. o
2 10 10 9875. 10420. 919. o
4 10 10 2924. 5135. 931. o
6 10 10 2687. 709. 903. <
-7 11 10 4951. 4979. 1037. o
-5 11 10 110. 2109. 698. o
-3 11 10 2821. 3357. 552. o
-1 11 10 95. 987. 253. o
1 11 10 292. 1649. 388. o
3 11 10 9478. 10105. 1142. o
5 11 10 335. 2516. 954. <
-8 12 10 32343. 33896. 4531. o
-6 12 10 2763. 4388. 937. o
-4 12 10 496025. 521776. 7995. o
-2 12 10 49290. 52724. 2260. o
0 12 10 15439. 15407. 1082. o
2 12 10 152940. 161484. 4078. o
4 12 10 495065. 538470. 9471. o
6 12 10 2709. 2316. 1858. <
-7 13 10 480. -389. 982. <
-5 13 10 3997. 3623. 1004. o
-3 13 10 99. 649. 547. <
-1 13 10 572. 1563. 502. o
1 13 10 5996. 4350. 913. o
3 13 10 639. 607. 755. <
5 13 10 91. 3307. 1951. <
-6 14 10 501. 740. 5393. <
-4 14 10 2074. 3293. 1356. <
-2 14 10 8866. 4897. 925. o
0 14 10 1227. 548. 601. <
2 14 10 25. 325. 821. <
4 14 10 4807. 2698. 1589. <
-3 15 10 44660. 46104. 3416. o
-1 15 10 13034. 13550. 1675. o
1 15 10 27207. 25787. 1887. o
3 15 10 284466. 295801. 11653. o
-2 16 10 4457. 4062. 1499. <
0 16 10 4173. 3133. 2881. <
2 16 10 2270. 5275. 3740. <
-1 17 10 2. 249. 833. <
-8 0 11 476244. 478194. 8015. o
-6 0 11 84365. 88605. 2799. o
-4 0 11 102176. 103076. 2327. o
-2 0 11 44035. 46091. 1485. o
0 0 11 1196510. 1149490. 8068. o
2 0 11 70840. 66087. 2192. o
4 0 11 10638. 11288. 1055. o
6 0 11 40210. 46288. 3179. o
8 0 11 301503. 265354. 16774. o
-9 1 11 0. -30. 851. <
-7 1 11 5100. 5010. 542. o
-5 1 11 7682. 7178. 526. o
-3 1 11 1227. 2903. 304. o
-1 1 11 3608. 2928. 299. o
1 1 11 2498. 2271. 288. o
3 1 11 2192. 3170. 465. o
5 1 11 11. 281. 359. <
7 1 11 51. -216. 576. <
-10 2 11 3069. 108. 1699. <
-8 2 11 11. 2754. 633. o
-6 2 11 66. 929. 283. o
-4 2 11 2856. 1355. 229. o
-2 2 11 4362. 3332. 317. o
0 2 11 1070. 1041. 200. o
2 2 11 3243. 3176. 364. o
4 2 11 3863. 5290. 563. o
6 2 11 3111. 2219. 580. o
8 2 11 2112. -409. 1055. <
-9 3 11 3979. 6262. 1270. o
-7 3 11 496021. 502087. 6117. o
-5 3 11 122691. 126301. 2297. o
-3 3 11 56971. 57771. 1296. o
-1 3 11 424309. 418545. 3258. o
1 3 11 1415860. 1356060. 7324. o
3 3 11 1194. 1935. 301. o
5 3 11 18895. 18557. 1251. o
7 3 11 63465. 65162. 3067. o
-10 4 11 2163. 4026. 1996. <
-8 4 11 124. 3843. 709. o
-6 4 11 20. 437. 323. <
-4 4 11 237. 88. 190. <
-2 4 11 4498. 5661. 405. o
0 4 11 3121. 3665. 349. o
2 4 11 6264. 5831. 504. o
4 4 11 687. 711. 287. <
6 4 11 1629. 1559. 515. o
-9 5 11 633. 1181. 890. <
-7 5 11 1668. 1695. 402. o
-5 5 11 1025. 995. 312. o
-3 5 11 5668. 5110. 467. o
-1 5 11 12683. 11901. 634. o
1 5 11 377. 1346. 253. o
3 5 11 126. 1629. 329. o
5 5 11 1080. 498. 397. <
7 5 11 1757. -181. 965. <
-8 6 11 268264. 268896. 5604. o
-6 6 11 78014. 75804. 2021. o
-4 6 11 10933. 10738. 677. o
-2 6 11 29424. 30389. 947. o
0 6 11 624967. 631440. 4728. o
2 6 11 48771. 46782. 1343. o
4 6 11 62794. 61412. 1785. o
6 6 11 37866. 40602. 2212. o
-9 7 11 1656. 3394. 1481. <
-7 7 11 610. 146. 514. <
-5 7 11 1681. 1664. 334. o
-3 7 11 6160. 3143. 420. o
-1 7 11 11074. 10151. 685. o
1 7 11 78. 1573. 286. o
3 7 11 7. 734. 317. <
5 7 11 1454. 327. 505. <
7 7 11 1203. 3928. 2138. <
-8 8 11 9. 1481. 580. <
-6 8 11 50. -207. 436. <
-4 8 11 2423. 441. 293. <
-2 8 11 2901. 2584. 394. o
0 8 11 2032. 1622. 348. o
2 8 11 1403. 1174. 357. o
4 8 11 2817. 4345. 676. o
6 8 11 2777. 2872. 996. <
-7 9 11 304405. 312750. 6615. o
-5 9 11 46412. 49588. 2127. o
-3 9 11 11139. 11391. 694. o
-1 9 11 191459. 202996. 3037. o
1 9 11 827269. 840390. 6954. o
3 9 11 2511. 4716. 678. o
5 9 11 3961. 4397. 797. o
-8 10 11 2837. 424. 826. <
-6 10 11 13. 1834. 621. <
-4 10 11 6448. 5048. 620. o
-2 10 11 5443. 2343. 406. o
0 10 11 1593. 2718. 452. o
2 10 11 3848. 4856. 683. o
4 10 11 8717. 7632. 1063. o
6 10 11 1852. 6684. 2053. o
-7 11 11 7296. 6158. 1268. o
-5 11 11 5641. 4215. 805. o
-3 11 11 248. 1664. 439. o
-1 11 11 879. 403. 376. <
1 11 11 5119. 4061. 640. o
3 11 11 2335. 3745. 874. o
5 11 11 111. -774. 1023. <
-6 12 11 44825. 41121. 2430. o
-4 12 11 21925. 23597. 1774. o
-2 12 11 18841. 18557. 1349. o
0 12 11 490727. 523717. 7607. o
2 12 11 25486. 28316. 1766. o
4 12 11 18289. 18840. 1710. o
-7 13 11 125. -292. 2082. <
-5 13 11 879. 697. 891. <
-3 13 11 5454. 4619. 1012. o
-1 13 11 10488. 7833. 1224. o
1 13 11 491. 1774. 697. <
3 13 11 221. 1598. 887. <
-4 14 11 55. 1657. 1103. <
-2 14 11 784. 1329. 901. <
0 14 11 9875. 8699. 1358. o
2 14 11 901. -133. 778. <
4 14 11 1. 2445. 2199. <
-3 15 11 21513. 17731. 3648. o
-1 15 11 170216. 174598. 8428. o
1 15 11 573355. 689111. 25760. o
3 15 11 2470. 14749. 6811. <
0 16 11 13. -323. 659. <
-8 0 12 41301. 43668. 2959. o
-6 0 12 85161. 92979. 3235. o
-4 0 12 174973. 171397. 3174. o
-2 0 12 1394830. 1353970. 9564. o
0 0 12 995. 1800. 327. o
2 0 12 27169. 25794. 1512. o
4 0 12 111659. 109823. 3773. o
6 0 12 300785. 311861. 8715. o
-9 1 12 184. 1875. 1298. <
-7 1 12 1171. 1526. 382. o
-5 1 12 2389. 1563. 319. o
-3 1 12 8738. 7993. 547. o
-1 1 12 508. 551. 160. o
1 1 12 592. 361. 156. <
3 1 12 12715. 12377. 945. o
5 1 12 1588. 1844. 506. o
7 1 12 68. 317. 912. <
-10 2 12 286. 1313. 1539. <
-8 2 12 6877. 4848. 733. o
-6 2 12 6622. 5611. 690. o
-4 2 12 540. 1527. 285. o
-2 2 12 3040. 2435. 267. o
0 2 12 1344. 885. 196. o
2 2 12 156. 1639. 351. o
4 2 12 1899. 2321. 463. o
6 2 12 484. 288. 563. <
-9 3 12 73413. 74016. 4313. o
-7 3 12 28732. 28246. 1625. o
-5 3 12 3194. 3732. 426. o
-3 3 12 619705. 619395. 4840. o
-1 3 12 71180. 68203. 1358. o
1 3 12 59464. 56586. 1497. o
3 3 12 34936. 35166. 1254. o
5 3 12 446503. 449766. 6845. o
7 3 12 166809. 173858. 8987. o
-10 4 12 539. -357. 2623. <
-8 4 12 4333. 2793. 712. o
-6 4 12 3465. 1084. 344. o
-4 4 12 2346. 2860. 377. o
-2 4 12 5782. 6284. 477. o
0 4 12 364. 760. 195. o
2 4 12 696. 2787. 390. o
4 4 12 4209. 3989. 609. o
6 4 12 0. 1422. 691. <
-9 5 12 3900. 3887. 1372. <
-7 5 12 3005. 1195. 455. <
-5 5 12 658. 3321. 525. o
-3 5 12 5494. 7677. 631. o
-1 5 12 6729. 7480. 548. o
1 5 12 3362. 3040. 370. o
3 5 12 2054. 1255. 345. o
5 5 12 318. 197. 535. <
7 5 12 1195. 3484. 2101. <
-8 6 12 52067. 56688. 2727. o
-6 6 12 14989. 15005. 1041. o
-4 6 12 192382. 189582. 3097. o
-2 6 12 803797. 764888. 5320. o
0 6 12 1421. 1871. 300. o
2 6 12 285. 972. 302. o
4 6 12 131107. 132867. 3153. o
6 6 12 159417. 152744. 5194. o
-9 7 12 1652. 8. 892. <
-7 7 12 2642. 1730. 610. <
-5 7 12 154. 715. 318. <
-3 7 12 1968. 2030. 370. o
-1 7 12 5401. 5927. 552. o
1 7 12 2334. 2344. 348. o
3 7 12 4566. 4101. 626. o
5 7 12 211. 946. 554. <
-8 8 12 6220. 4325. 1093. o
-6 8 12 5776. 3160. 691. o
-4 8 12 134. 1010. 324. o
-2 8 12 2884. 2806. 433. o
0 8 12 1532. 1486. 365. o
2 8 12 117. 1007. 474. <
4 8 12 478. 864. 445. <
6 8 12 65. 3705. 2213. <
-7 9 12 11842. 11122. 1228. o
-5 9 12 19552. 18909. 1401. o
-3 9 12 393290. 405129. 4880. o
-1 9 12 95806. 98657. 2342. o
1 9 12 59422. 60865. 2034. o
3 9 12 5212. 6079. 822. o
5 9 12 299563. 318440. 8258. o
-8 10 12 5150. 6706. 2103. o
-6 10 12 12424. 6132. 1080. o
-4 10 12 1334. 3297. 679. o
-2 10 12 252. 1092. 415. <
0 10 12 661. 941. 428. <
2 10 12 2083. 1747. 565. o
4 10 12 2970. 1835. 773. <
-7 11 12 712. -1181. 874. <
-5 11 12 642. 1357. 627. <
-3 11 12 10760. 10042. 1172. o
-1 11 12 16. 2. 422. <
1 11 12 224. 529. 478. <
3 11 12 8201. 7127. 1154. o
5 11 12 3225. 2421. 1571. <
-6 12 12 20687. 19025. 2162. o
-4 12 12 105368. 110160. 3745. o
-2 12 12 601236. 615430. 9052. o
0 12 12 40. 1196. 765. <
2 12 12 4505. 5179. 982. o
4 12 12 76323. 76772. 4942. o
-5 13 12 394. 471. 1338. <
-3 13 12 223. 791. 782. <
-1 13 12 4417. 6238. 1104. o
1 13 12 3210. 1894. 813. <
3 13 12 2916. -817. 1122. <
-2 14 12 9026. 6386. 1247. o
0 14 12 722. 1019. 729. <
2 14 12 1308. 1720. 1111. <
-1 15 12 9777. 10645. 2735. o
1 15 12 16305. 14289. 4017. o
-8 0 13 6867. 8773. 2142. o
-6 0 13 399796. 427237. 7788. o
-4 0 13 44959. 46462. 2124. o
-2 0 13 60453. 56369. 1892. o
0 0 13 115099. 111002. 2742. o
2 0 13 425229. 406666. 6935. o
4 0 13 346328. 347949. 8037. o
6 0 13 33396. 33570. 2893. o
-9 1 13 1723. 338. 914. <
-7 1 13 7327. 5921. 858. o
-5 1 13 1353. 717. 273. <
-3 1 13 443. 2433. 341. o
-1 1 13 2684. 968. 236. o
1 1 13 2191. 1839. 299. o
3 1 13 995. 3334. 481. o
5 1 13 7570. 5026. 854. o
-10 2 13 187. -7016. 3783. <
-8 2 13 1359. 451. 645. <
-6 2 13 3368. 7039. 816. o
-4 2 13 2864. 3218. 392. o
-2 2 13 4566. 3208. 331. o
0 2 13 1081. 1246. 257. o
2 2 13 3086. 2665. 443. o
4 2 13 2287. 2504. 569. o
6 2 13 1854. 3192. 909. o
-9 3 13 6189. 5036. 1663. o
-7 3 13 143437. 150245. 4388. o
-5 3 13 800455. 808687. 7088. o
-3 3 13 869. 1533. 327. o
-1 3 13 26009. 26821. 1020. o
1 3 13 83888. 79908. 1909. o
3 3 13 312346. 308630. 4628. o
5 3 13 15170. 15985. 1296. o
-8 4 13 3753. 1082. 676. <
-6 4 13 172. 1549. 471. o
-4 4 13 1163. 1686. 348. o
-2 4 13 10330. 9382. 611. o
0 4 13 4311. 3182. 412. o
2 4 13 217. 1174. 303. o
4 4 13 629. 769. 436. <
6 4 13 4293. 3657. 1166. o
-9 5 13 1134. 418. 937. <
-7 5 13 72. 1104. 482. <
-5 5 13 2439. 1897. 402. o
-3 5 13 4077. 4059. 468. o
-1 5 13 2057. 3542. 443. o
1 5 13 2599. 2132. 363. o
3 5 13 283. 1143. 389. <
5 5 13 552. 868. 506. <
-8 6 13 25448. 26459. 2010. o
-6 6 13 468069. 476840. 7176. o
-4 6 13 91480. 94180. 2402. o
-2 6 13 10243. 10041. 722. o
0 6 13 33829. 36048. 1329. o
2 6 13 515362. 514606. 6143. o
4 6 13 195537. 197840. 4347. o
6 6 13 8494. 11414. 2637. o
-7 7 13 2826. 2769. 670. o
-5 7 13 263. -336. 483. <
-3 7 13 345. 262. 296. <
-1 7 13 3220. 2292. 413. o
1 7 13 343. 286. 296. <
3 7 13 2550. 2741. 516. o
5 7 13 2245. 2514. 760. o
-8 8 13 296. 967. 781. <
-6 8 13 5984. 6947. 991. o
-4 8 13 2575. 2153. 470. o
-2 8 13 2188. 2222. 362. o
0 8 13 612. 524. 336. <
2 8 13 5112. 4199. 808. o
4 8 13 1535. 1366. 631. <
-7 9 13 163839. 162684. 5281. o
-5 9 13 587064. 591599. 8436. o
-3 9 13 16477. 18475. 1215. o
-1 9 13 19092. 20449. 1283. o
1 9 13 128342. 126220. 3509. o
3 9 13 230717. 248221. 5389. o
5 9 13 990. 5375. 1889. <
-6 10 13 887. 2942. 871. o
-4 10 13 6112. 6765. 1000. o
-2 10 13 3442. 1941. 524. o
0 10 13 86. 743. 485. <
2 10 13 1417. 1062. 541. <
4 10 13 6231. 7036. 1557. o
-7 11 13 1704. 813. 979. <
-5 11 13 2688. 1455. 778. <
-3 11 13 39. 1083. 523. <
-1 11 13 622. 397. 596. <
1 11 13 3. -232. 485. <
3 11 13 108. 3402. 844. o
-4 12 13 30275. 33235. 2213. o
-2 12 13 15623. 15044. 1341. o
0 12 13 37743. 40602. 2487. o
2 12 13 291702. 318754. 8565. o
-5 13 13 32. -4085. 3068. <
-3 13 13 128. 735. 837. <
-1 13 13 3568. 2742. 846. o
1 13 13 567. 438. 903. <
-2 14 13 3166. 3471. 2535. <
0 14 13 3487. 1989. 1099. <
2 14 13 2559. 3854. 2873. <
-8 0 14 452907. 447781. 13824. o
-6 0 14 2548. 3648. 845. o
-4 0 14 257. 1294. 513. <
-2 0 14 83841. 80535. 2470. o
0 0 14 195247. 190148. 4212. o
2 0 14 2902. 2481. 558. o
4 0 14 196086. 202303. 6957. o
6 0 14 286914. 257240. 12850. o
-9 1 14 113. 2844. 1160. <
-7 1 14 9242. 7896. 1185. o
-5 1 14 3399. 1610. 454. o
-3 1 14 1825. 1373. 279. o
-1 1 14 796. 766. 243. o
1 1 14 1628. 1310. 341. o
3 1 14 12999. 11663. 1109. o
5 1 14 2214. 2758. 800. o
-8 2 14 454. -615. 837. <
-6 2 14 4146. 4161. 656. o
-4 2 14 97. 597. 342. <
-2 2 14 341. 1200. 239. o
0 2 14 7. 872. 289. o
2 2 14 7307. 5192. 640. o
4 2 14 3839. 2912. 562. o
6 2 14 400. 182. 825. <
-9 3 14 256448. 248551. 12757. o
-7 3 14 24356. 26369. 1774. o
-5 3 14 56384. 57359. 1944. o
-3 3 14 32814. 33933. 1289. o
-1 3 14 423324. 411568. 4403. o
1 3 14 227913. 219543. 3269. o
3 3 14 12289. 12420. 1092. o
5 3 14 35018. 32774. 1960. o
-8 4 14 231. -481. 612. <
-6 4 14 2312. 693. 349. <
-4 4 14 2404. 1426. 411. o
-2 4 14 369. 3095. 387. o
0 4 14 3155. 2447. 380. o
2 4 14 11330. 5836. 719. o
4 4 14 571. 451. 517. <
6 4 14 40. -2249. 1860. <
-9 5 14 4941. -122. 2324. <
-7 5 14 3758. 3068. 755. o
-5 5 14 112. 848. 463. <
-3 5 14 4638. 3567. 482. o
-1 5 14 12231. 10832. 778. o
1 5 14 80. 1986. 417. o
3 5 14 1650. 1726. 486. o
5 5 14 4429. 2814. 817. o
-8 6 14 531790. 487562. 11127. o
-6 6 14 19. -418. 530. <
-4 6 14 19428. 19938. 1228. o
-2 6 14 109947. 109949. 2431. o
0 6 14 314344. 312262. 4786. o
2 6 14 145. 1587. 489. o
4 6 14 279725. 281361. 5958. o
-7 7 14 6493. 5529. 886. o
-5 7 14 597. 789. 571. <
-3 7 14 3075. 1768. 434. o
-1 7 14 2912. 1746. 437. o
1 7 14 1023. 608. 522. <
3 7 14 5845. 5474. 1021. o
5 7 14 2852. 3925. 2035. <
-8 8 14 1561. 3682. 1799. <
-6 8 14 4796. 3642. 792. o
-4 8 14 67. 1412. 457. o
-2 8 14 1731. 1663. 422. o
0 8 14 561. 2407. 543. o
2 8 14 5236. 5843. 943. o
4 8 14 4407. 6178. 1483. o
-7 9 14 9590. 10790. 1691. o
-5 9 14 14191. 14962. 1376. o
-3 9 14 38121. 41103. 1883. o
-1 9 14 432806. 444637. 6814. o
1 9 14 195741. 198728. 4820. o
3 9 14 373. 366. 637. <
-6 10 14 3046. 3928. 1058. o
-4 10 14 15. 49. 587. <
-2 10 14 52. 674. 546. <
0 10 14 249. 54. 483. <
2 10 14 4413. 2338. 705. o
4 10 14 3728. 2087. 600. o
-5 11 14 960. -1074. 849. <
-3 11 14 1651. 1154. 751. <
-1 11 14 3339. 3176. 792. o
1 11 14 424. 1. 668. <
3 11 14 6175. 3654. 2013. <
-4 12 14 3704. 2071. 1516. <
-2 12 14 61300. 61532. 3194. o
0 12 14 156213. 151158. 4988. o
2 12 14 975. 8024. 2890. <
-3 13 14 1635. -312. 1618. <
-1 13 14 1769. -520. 883. <
1 13 14 1913. 597. 1542. <
0 14 14 16. 5282. 2217. <
-8 0 15 16154. 18842. 3233. o
-6 0 15 4806. 6285. 1778. o
-4 0 15 486967. 486956. 8593. o
-2 0 15 220948. 222932. 4542. o
0 0 15 12676. 14249. 1273. o
2 0 15 31950. 30829. 2328. o
4 0 15 243663. 238190. 7765. o
-9 1 15 2691. -569. 1177. <
-7 1 15 1840. 2700. 967. <
-5 1 15 399. 865. 485. <
-3 1 15 8611. 4120. 561. o
-1 1 15 968. 727. 270. <
1 1 15 526. 713. 397. <
3 1 15 3866. 5206. 807. o
5 1 15 1378. 2368. 1028. <
-8 2 15 1299. 1070. 1328. <
-6 2 15 3729. 2393. 534. o
-4 2 15 1433. 693. 410. <
-2 2 15 5090. 3645. 409. o
0 2 15 4409. 2006. 328. o
2 2 15 2424. 3085. 664. o
4 2 15 1781. 1767. 720. <
-9 3 15 1773. 8303. 3722. <
-7 3 15 4318. 4796. 783. o
-5 3 15 120982. 125638. 3725. o
-3 3 15 301778. 307610. 4528. o
-1 3 15 2745. 3052. 437. o
1 3 15 294291. 287180. 4806. o
3 3 15 366703. 364723. 6261. o
5 3 15 61101. 55903. 4051. o
-8 4 15 1623. 2376. 1300. <
-6 4 15 1001. 277. 612. <
-4 4 15 524. 1152. 381. o
-2 4 15 13163. 11632. 937. o
0 4 15 6083. 3847. 553. o
2 4 15 22. 1087. 524. <
4 4 15 333. -978. 681. <
-7 5 15 19. 1317. 669. <
-5 5 15 39. 75. 545. <
-3 5 15 425. 866. 382. <
-1 5 15 5660. 6879. 849. o
1 5 15 6619. 4218. 611. o
3 5 15 540. -44. 567. <
5 5 15 309. 939. 398. <
-6 6 15 35904. 38066. 2218. o
-4 6 15 415534. 427544. 6686. o
-2 6 15 336930. 347617. 5455. o
0 6 15 12435. 12882. 1071. o
2 6 15 91080. 93022. 3374. o
4 6 15 209264. 208596. 6680. o
-7 7 15 545. 2155. 950. <
-5 7 15 810. 437. 651. <
-3 7 15 5682. 2981. 608. o
-1 7 15 3722. 1694. 488. o
1 7 15 1374. 1582. 610. <
3 7 15 786. 866. 628. <
5 7 15 846. -5145. 3748. <
-6 8 15 4930. 2235. 708. o
-4 8 15 2897. 1152. 573. <
-2 8 15 1848. 1932. 514. o
0 8 15 2484. 299. 568. <
2 8 15 3512. 2527. 734. o
4 8 15 2917. 1289. 1250. <
-7 9 15 11437. 7750. 1798. o
-5 9 15 58490. 58559. 2739. o
-3 9 15 286097. 293301. 5503. o
-1 9 15 14611. 15179. 1250. o
1 9 15 272012. 282342. 5933. o
3 9 15 218316. 239941. 10640. o
-6 10 15 5045. 4330. 1349. o
-4 10 15 172. -819. 548. <
-2 10 15 3404. 1886. 607. o
0 10 15 4800. 2771. 792. o
2 10 15 2423. 2921. 1392. <
-5 11 15 1972. -446. 1407. <
-3 11 15 1039. -925. 800. <
-1 11 15 908. 1223. 748. <
1 11 15 1555. 2764. 1580. <
-4 12 15 278287. 252101. 18375. o
-2 12 15 157654. 165436. 8361. o
0 12 15 8212. 8008. 1398. o
-1 13 15 2462. 2275. 1715. <
-8 0 16 71498. 70381. 7060. o
-6 0 16 219102. 217343. 7097. o
-4 0 16 182. 1304. 532. <
-2 0 16 294373. 281951. 6242. o
0 0 16 606562. 595211. 11308. o
2 0 16 140547. 135691. 5085. o
4 0 16 68075. 73381. 6549. o
-7 1 16 8360. 2990. 675. o
-5 1 16 7029. 4498. 724. o
-3 1 16 572. 1650. 451. o
-1 1 16 2716. 2216. 469. o
1 1 16 1287. 637. 452. <
3 1 16 626. 1141. 603. <
5 1 16 89. 9187. 3939. <
-8 2 16 1932. -775. 1497. <
-6 2 16 1377. 1556. 685. <
-4 2 16 1836. 609. 516. <
-2 2 16 4617. 4399. 604. o
0 2 16 159. -296. 388. <
2 2 16 1934. 2351. 674. o
4 2 16 7018. 6259. 1867. o
-7 3 16 273361. 270387. 6961. o
-5 3 16 186391. 186190. 4667. o
-3 3 16 10976. 11773. 977. o
-1 3 16 33074. 30927. 1690. o
1 3 16 373717. 357915. 6407. o
3 3 16 94890. 92044. 3396. o
-6 4 16 1642. -1262. 720. <
-4 4 16 317. 653. 493. <
-2 4 16 4748. 6202. 842. o
0 4 16 1413. 2145. 597. o
2 4 16 2274. 1504. 681. <
4 4 16 2787. 745. 1213. <
-7 5 16 2391. 1157. 956. <
-5 5 16 2707. -52. 563. <
-3 5 16 5537. 2919. 660. o
-1 5 16 6212. 5168. 782. o
1 5 16 13. 1540. 648. <
3 5 16 202. 1153. 737. <
-6 6 16 149743. 147778. 4987. o
-4 6 16 13593. 14697. 1292. o
-2 6 16 191556. 192979. 4182. o
0 6 16 355228. 356530. 6460. o
2 6 16 85983. 83724. 3544. o
4 6 16 119963. 114300. 7742. o
-7 7 16 1854. 3393. 1822. <
-5 7 16 5714. 2992. 777. o
-3 7 16 4303. 3612. 755. o
-1 7 16 3045. 2678. 601. o
1 7 16 374. 621. 662. <
3 7 16 677. -131. 968. <
-6 8 16 514. 1064. 962. <
-4 8 16 2797. 1498. 661. <
-2 8 16 4091. 3591. 660. o
0 8 16 59. 936. 796. <
2 8 16 1085. 271. 835. <
-5 9 16 155649. 159611. 6352. o
-3 9 16 30081. 31861. 2181. o
-1 9 16 33552. 33849. 2115. o
1 9 16 204608. 184966. 7648. o
-4 10 16 3652. 1880. 1288. <
-2 10 16 1285. 102. 723. <
0 10 16 346. 1240. 1305. <
2 10 16 4895. 7501. 3602. <
-3 11 16 273. 234. 801. <
-1 11 16 2666. -68. 1050. <
1 11 16 3133. 431. 615. <
-2 12 16 140993. 161182. 16995. o
-8 0 17 143776. 152294. 14040. o
-6 0 17 382. 1069. 1207. <
-4 0 17 86132. 81883. 4105. o
-2 0 17 362054. 357746. 8160. o
0 0 17 181474. 179739. 6322. o
2 0 17 20287. 18906. 2511. o
-7 1 17 1872. 2159. 869. <
-5 1 17 2957. 2655. 660. o
-3 1 17 2002. 3392. 702. o
-1 1 17 982. 251. 483. <
1 1 17 2391. 806. 568. <
3 1 17 6889. 3502. 2246. <
-6 2 17 4376. 2433. 884. <
-4 2 17 475. -401. 533. <
-2 2 17 1038. 138. 467. <
0 2 17 854. -421. 496. <
2 2 17 6. 118. 618. <
4 2 17 231. 1692. 1972. <
-7 3 17 875. -491. 1192. <
-5 3 17 258752. 262955. 6159. o
-3 3 17 347964. 349268. 5932. o
-1 3 17 134486. 130430. 4108. o
1 3 17 155559. 152400. 4534. o
3 3 17 11620. 12390. 3090. o
-6 4 17 3408. -256. 1018. <
-4 4 17 1248. 826. 623. <
-2 4 17 1056. 1480. 671. <
0 4 17 770. -653. 626. <
2 4 17 365. 387. 710. <
-7 5 17 1330. 2648. 1623. <
-5 5 17 28. 2475. 904. <
-3 5 17 2619. 4457. 737. o
-1 5 17 5864. 3841. 854. o
1 5 17 2493. -517. 688. <
3 5 17 1042. 5914. 4100. <
-6 6 17 8034. 7536. 1323. o
-4 6 17 31287. 30862. 1998. o
-2 6 17 228691. 224551. 5652. o
0 6 17 90151. 89006. 3686. o
2 6 17 3407. 3883. 903. o
-5 7 17 47. 1268. 947. <
-3 7 17 1599. 2902. 902. o
-1 7 17 6456. 4059. 786. o
1 7 17 1717. -775. 857. <
-6 8 17 4085. 849. 799. <
-4 8 17 226. -636. 1106. <
-2 8 17 1317. -565. 806. <
0 8 17 297. -1522. 1280. <
2 8 17 1. -2116. 1197. <
-5 9 17 134036. 145819. 15387. o
-3 9 17 271862. 275330. 8955. o
-1 9 17 57944. 53203. 5127. o
1 9 17 114123. 141150. 14580. o
-4 10 17 7. 4596. 2859. <
-2 10 17 437. 237. 1251. <
-6 0 18 201628. 189235. 19885. o
-4 0 18 84191. 83922. 4806. o
-2 0 18 155259. 146375. 6811. o
0 0 18 21069. 17966. 2425. o
-7 1 18 2529. -12963. 6578. <
-5 1 18 624. 472. 705. <
-3 1 18 237. 1858. 599. o
-1 1 18 589. 2065. 708. <
1 1 18 69. 82. 1141. <
-6 2 18 2460. 1966. 1733. <
-4 2 18 1447. 2705. 815. o
-2 2 18 4852. 1753. 680. <
0 2 18 1889. 1110. 815. <
-5 3 18 193920. 176933. 6971. o
-3 3 18 91922. 85570. 3379. o
-1 3 18 19293. 19914. 1965. o
1 3 18 24533. 23136. 2746. o
-6 4 18 591. 3781. 2122. <
-4 4 18 1685. 773. 760. <
-2 4 18 8363. 2737. 702. o
0 4 18 2461. 1356. 656. <
2 4 18 143. 503. 2597. <
-5 5 18 4130. 2549. 1096. <
-3 5 18 408. 1888. 757. <
-1 5 18 70. 2701. 889. o
1 5 18 3033. 1812. 836. <
-6 6 18 270479. 218648. 13192. o
-4 6 18 58582. 52717. 4993. o
-2 6 18 63957. 62330. 4803. o
0 6 18 11640. 13632. 2055. o
-5 7 18 646. -2095. 2725. <
-3 7 18 1010. 1496. 1542. <
-1 7 18 165. 974. 1097. <
1 7 18 1692. 926. 1424. <
-4 8 18 1097. 5432. 2786. <
-2 8 18 2702. 5070. 3244. <
0 8 18 1762. -2018. 2107. <
-1 9 18 25334. 17388. 4464. o
-4 0 19 2866. 3969. 1472. <
-2 0 19 23028. 21581. 3719. o
-5 1 19 3448. -1101. 1011. <
-3 1 19 637. 2820. 1269. <
-1 1 19 2929. -159. 1443. <
-4 2 19 299. -812. 1203. <
-2 2 19 2471. 1251. 741. <
0 2 19 1738. 2262. 1524. <
-5 3 19 109409. 99779. 9412. o
-3 3 19 10628. 9685. 1834. o
-1 3 19 26479. 22457. 4044. o
-4 4 19 143. -1938. 404. <
-2 4 19 2946. 143. 1849. <
0 4 19 5936. -2812. 2205. <
-5 5 19 726. -1670. 2508. <
-1 5 19 8411. 4739. 1829. <
0 6 19 68034. 55296. 7939. o
-2 0 20 45556. 37104. 7332. o
-3 1 20 5555. -893. 1797. <
-2 2 20 3731. 8645. 4502. <
