#------------------------------------------------------------------------------
#$Date: 2021-04-14 11:22:28 +0300 (Wed, 14 Apr 2021) $
#$Revision: 264129 $
#$URL: file:///home/coder/svn-repositories/cod/cif/1/56/17/1561727.cif $
#------------------------------------------------------------------------------
#
# This file is available in the Crystallography Open Database (COD),
# http://www.crystallography.net/
#
# All data on this site have been placed in the public domain by the
# contributors.
#
data_1561727
loop_
_publ_author_name
'Ramachandran, Krishna K.'
'Genet, Cl\'ement'
'Mar, Arthur'
_publ_section_title
;
 Quaternary rare-earth arsenides REAg1&#x2212;Zn As2 (RE=La--Nd, Sm,
 Gd--Dy) with tetragonal SrZnBi2- and HfCuSi2-type structures
;
_journal_name_full               'Journal of Solid State Chemistry'
_journal_page_first              204
_journal_page_last               211
_journal_paper_doi               10.1016/j.jssc.2015.08.032
_journal_volume                  231
_journal_year                    2015
_chemical_formula_structural     'Nd Ag0.50 Zn0.50 As2'
_chemical_formula_sum            'Ag0.5 As2 Nd Zn0.5'
_chemical_formula_weight         380.70
_chemical_name_common
'neodymium silver zinc arsenide (1/0.5/0.5/2)'
_chemical_name_systematic
'neodymium silver zinc arsenide (1/0.5/0.5/2)'
_space_group_crystal_system      tetragonal
_space_group_IT_number           129
_space_group_name_Hall           '-P 4a 2a'
_space_group_name_H-M_alt        'P 4/n m m :2'
_atom_sites_solution_hydrogens   .
_atom_sites_solution_primary     direct
_atom_sites_solution_secondary   difmap
_audit_creation_method           SHELXL-2013
_cell_angle_alpha                90
_cell_angle_beta                 90
_cell_angle_gamma                90
_cell_formula_units_Z            2
_cell_length_a                   4.0495(5)
_cell_length_b                   4.0495(5)
_cell_length_c                   10.3571(13)
_cell_measurement_reflns_used    1577
_cell_measurement_temperature    296(2)
_cell_measurement_theta_max      31.77
_cell_measurement_theta_min      5.41
_cell_volume                     169.84(4)
_computing_cell_refinement       'Bruker SAINT 8.34A (Bruker, 2013)'
_computing_data_collection       'Bruker APEX 2 (Bruker, 2008)'
_computing_data_reduction        'Bruker SAINT 8.34A'
_computing_molecular_graphics    'ATOMS 5.1 (Dowty, 1999)'
_computing_publication_material  'Bruker SHELXTL'
_computing_structure_refinement  'SHELXL-2013 (Sheldrick, 2013)'
_computing_structure_solution    'SHELXS-97 (Sheldrick, 2008)'
_diffrn_ambient_temperature      296(2)
_diffrn_measured_fraction_theta_full 1.000
_diffrn_measured_fraction_theta_max 1.000
_diffrn_measurement_device_type  'Bruker PLATFORM/SMART APEX II CCD'
_diffrn_measurement_method       '\w and \f scans'
_diffrn_radiation_type           MoK\a
_diffrn_radiation_wavelength     0.71073
_diffrn_reflns_av_R_equivalents  0.0410
_diffrn_reflns_av_unetI/netI     0.0156
_diffrn_reflns_Laue_measured_fraction_full 1.000
_diffrn_reflns_Laue_measured_fraction_max 1.000
_diffrn_reflns_limit_h_max       6
_diffrn_reflns_limit_h_min       -6
_diffrn_reflns_limit_k_max       6
_diffrn_reflns_limit_k_min       -6
_diffrn_reflns_limit_l_max       15
_diffrn_reflns_limit_l_min       -15
_diffrn_reflns_number            2408
_diffrn_reflns_point_group_measured_fraction_full 1.000
_diffrn_reflns_point_group_measured_fraction_max 1.000
_diffrn_reflns_theta_full        25.242
_diffrn_reflns_theta_max         33.153
_diffrn_reflns_theta_min         1.966
_diffrn_source                   'fine-focus sealed tube'
_exptl_absorpt_coefficient_mu    40.567
_exptl_absorpt_correction_T_max  0.3077
_exptl_absorpt_correction_T_min  0.1873
_exptl_absorpt_correction_type   numerical
_exptl_absorpt_process_details   'Bruker SHELXTL (Sheldrick, 2013)'
_exptl_crystal_colour            black
_exptl_crystal_density_diffrn    7.444
_exptl_crystal_density_method    'not measured'
_exptl_crystal_description       irregular
_exptl_crystal_F_000             329
_exptl_crystal_size_max          0.057
_exptl_crystal_size_mid          0.053
_exptl_crystal_size_min          0.034
_refine_diff_density_max         2.743
_refine_diff_density_min         -2.132
_refine_diff_density_rms         0.335
_refine_ls_extinction_coef       .
_refine_ls_extinction_method     none
_refine_ls_goodness_of_fit_ref   1.286
_refine_ls_hydrogen_treatment    undef
_refine_ls_matrix_type           full
_refine_ls_number_parameters     11
_refine_ls_number_reflns         236
_refine_ls_number_restraints     0
_refine_ls_restrained_S_all      1.286
_refine_ls_R_factor_all          0.0265
_refine_ls_R_factor_gt           0.0252
_refine_ls_shift/su_max          0.000
_refine_ls_shift/su_mean         0.000
_refine_ls_structure_factor_coef Fsqd
_refine_ls_weighting_details
'w=1/[\s^2^(Fo^2^)+4.2266P] where P=(Fo^2^+2Fc^2^)/3'
_refine_ls_weighting_scheme      calc
_refine_ls_wR_factor_gt          0.0519
_refine_ls_wR_factor_ref         0.0540
_reflns_Friedel_coverage         0.000
_reflns_Friedel_fraction_full    .
_reflns_Friedel_fraction_max     .
_reflns_number_gt                231
_reflns_number_total             236
_reflns_threshold_expression     'I > 2\s(I)'
_cod_data_source_file            JSSC-2015-231-204.cif
_cod_data_source_block           NdAgZnAs
_cod_original_cell_volume        169.84(5)
_cod_original_sg_symbol_H-M      'P 4/n m m'
_cod_original_formula_sum        'Ag0.50 As2 Nd Zn0.50'
_cod_database_code               1561727
_shelx_space_group_comment
;
The symmetry employed for this shelxl refinement is uniquely defined
by the following loop, which should always be used as a source of
symmetry information in preference to the above space-group names.
They are only intended as comments.
;
_shelx_estimated_absorpt_t_min   0.206
_shelx_estimated_absorpt_t_max   0.339
_shelxl_version_number           2013-4
_shelx_res_file
;
TITL NdAg0.5Zn0.5As2 P4/nmm lsf unsplit model
CELL 0.71073   4.04950   4.04950  10.35710  90.0000  90.0000  90.0000
ZERR    2.00   0.00050   0.00050   0.00130   0.0000   0.0000   0.0000
LATT  1
SYMM 0.5-X, 0.5-Y, Z
SYMM 0.5-Y, X, Z
SYMM Y, 0.5-X, Z
SYMM -X, 0.5+Y, -Z
SYMM 0.5+X, -Y, -Z
SYMM 0.5+Y, 0.5+X, -Z
SYMM -Y, -X, -Z
SFAC ZN AS AG ND
UNIT 1 4 1 2
TEMP 23
SIZE 0.034 0.053 0.057

L.S. 4
ACTA

EXYZ AG ZN
EADP AG ZN
WGHT    0.000000    4.226600
FVAR       0.13528
ND    4    0.250000    0.250000    0.225696    10.12500    0.01072    0.01072 =
         0.01457    0.00000    0.00000    0.00000
AG    3    0.750000    0.250000    0.500000    10.06250    0.01040    0.01040 =
         0.01223    0.00000    0.00000    0.00000
ZN    1    0.750000    0.250000    0.500000    10.06250    0.01040    0.01040 =
         0.01223    0.00000    0.00000    0.00000
AS1   2    0.250000    0.250000    0.674629    10.12500    0.01191    0.01191 =
         0.01646    0.00000    0.00000    0.00000
AS2   2    0.750000    0.250000    0.000000    10.12500    0.02324    0.02324 =
         0.01292    0.00000    0.00000    0.00000
HKLF 4

REM  NdAg0.5Zn0.5As2 P4/nmm lsf unsplit model
REM R1 =  0.0252 for     231 Fo > 4sig(Fo)  and  0.0265 for all     236 data
REM     11 parameters refined using      0 restraints

END

WGHT      0.0000      4.2266

REM Highest difference peak  2.743,  deepest hole -2.132,  1-sigma level  0.335
Q1    1   0.7500  0.2500  0.4594  10.25000  0.05    2.74
Q2    1   0.2500  0.2500  0.4231  10.12500  0.05    1.53
Q3    1   0.2500  0.2500  0.3356  10.12500  0.05    1.17
Q4    1   0.2500  0.2500  0.5651  10.12500  0.05    0.99
Q5    1   0.2500  0.0407  0.1547  10.50000  0.05    0.98
Q6    1   0.7500  0.2500  0.6244  10.25000  0.05    0.91
Q7    1   0.2500 -0.1445  0.2981  10.50000  0.05    0.84
Q8    1   0.2500  0.0377  0.2784  10.50000  0.05    0.79
Q9    1   0.4846  0.0154  0.5165  10.50000  0.05    0.73
Q10   1   0.7500  0.0717 -0.1045  10.50000  0.05    0.71
Q11   1   0.4399  0.2500  0.3565  10.50000  0.05    0.70
Q12   1   0.6260  0.0304  0.5658  11.00000  0.05    0.62
Q13   1   0.5395  0.2500 -0.1208  10.50000  0.05    0.61
Q14   1   0.4972  0.2500  0.7140  10.50000  0.05    0.60
Q15   1   0.3424  0.2500  0.5029  10.50000  0.05    0.58
Q16   1   0.6762  0.0301  0.4212  11.00000  0.05    0.58
Q17   1   0.3961  0.1039  0.2199  10.50000  0.05    0.58
Q18   1   0.4023  0.0977  0.0155  10.50000  0.05    0.54
Q19   1   0.5006  0.2500  0.5827  10.50000  0.05    0.51
Q20   1   0.2500  0.2500  0.0760  10.12500  0.05    0.51
;
_shelx_res_checksum              53348
_shelx_hkl_file
;
  -1  -1 -15    0.42    1.38
   0  -1 -15   14.03    2.89
   1  -1 -15    0.88    2.31
  -1   0 -15   15.69    2.01
   0   0 -15    5.94    1.54
   1   0 -15   10.25    2.87
  -1   1 -15    4.12    1.51
   0   1 -15   12.44    2.11
   1   1 -15    2.36    1.55
  -2  -2 -14   11.98    3.53
  -1  -2 -14   17.32    2.96
   0  -2 -14   29.15    3.72
   1  -2 -14   12.26    3.08
   2  -2 -14   24.46    5.55
  -2  -1 -14   13.06    2.27
  -1  -1 -14   13.58    1.77
   0  -1 -14   18.92    2.92
   1  -1 -14   12.54    2.72
   2  -1 -14   11.21    2.87
  -2   0 -14   25.82    2.76
  -1   0 -14   18.19    1.91
   0   0 -14   29.64    2.28
   1   0 -14   13.13    2.64
   2   0 -14   21.20    3.26
  -2   1 -14   12.08    2.02
  -1   1 -14   16.97    2.12
   0   1 -14   17.62    2.06
   1   1 -14   16.52    2.00
   2   1 -14   17.47    4.25
  -1   2 -14   10.25    1.96
   0   2 -14   24.99    2.44
   1   2 -14   12.45    1.86
   2   2 -14   13.80    2.53
  -1  -3 -13   17.70    4.46
   0  -3 -13   12.65    2.97
   1  -3 -13   21.94    2.52
  -2  -2 -13   10.25    2.11
  -1  -2 -13   18.43    2.67
   0  -2 -13   16.33    2.91
   1  -2 -13   13.18    2.83
   2  -2 -13   13.34    3.03
  -3  -1 -13   17.07    2.44
  -2  -1 -13   14.39    2.20
  -1  -1 -13   22.14    2.02
   0  -1 -13   18.56    2.76
   1  -1 -13   26.75    3.29
   2  -1 -13   12.51    2.84
   3  -1 -13   13.08    4.04
  -3   0 -13    9.15    2.69
  -2   0 -13   14.14    2.03
  -1   0 -13   15.46    1.91
   0   0 -13   16.37    1.79
   1   0 -13   16.83    1.78
   2   0 -13   15.11    2.64
   3   0 -13   11.10    2.63
  -3   1 -13   23.79    3.80
  -2   1 -13   15.23    2.09
  -1   1 -13   23.20    2.23
   0   1 -13   16.87    1.83
   1   1 -13   20.02    1.99
   2   1 -13   11.22    1.85
   3   1 -13   11.40    4.09
  -2   2 -13   10.56    2.41
  -1   2 -13   10.75    1.74
   0   2 -13   15.13    1.90
   1   2 -13   10.77    1.74
   2   2 -13    9.97    1.77
   3   2 -13   10.66    2.40
  -2   3 -13    3.25    2.47
  -1   3 -13   13.36    2.06
   0   3 -13    9.03    1.73
   1   3 -13   15.33    1.99
   0  -4 -12   12.70    4.57
  -2  -3 -12    8.88    3.50
  -1  -3 -12   18.58    2.89
   0  -3 -12    9.75    2.56
   1  -3 -12   10.91    1.94
   2  -3 -12    8.05    2.17
  -3  -2 -12    5.52    1.92
  -2  -2 -12   25.25    2.71
  -1  -2 -12   16.34    2.38
   0  -2 -12   41.84    3.82
   1  -2 -12    9.26    2.38
   2  -2 -12   26.74    3.53
   3  -2 -12    6.10    2.02
  -3  -1 -12   15.73    2.26
  -2  -1 -12   14.74    2.12
  -1  -1 -12   23.28    1.95
   0  -1 -12   10.97    1.39
   1  -1 -12   28.17    3.09
   2  -1 -12   13.64    2.60
   3  -1 -12   16.23    4.00
  -3   0 -12    7.86    2.23
  -2   0 -12   35.37    2.70
  -1   0 -12   13.88    1.74
   0   0 -12   44.33    2.41
   1   0 -12   13.09    1.58
   2   0 -12   34.73    3.32
   3   0 -12    7.92    2.37
   4   0 -12   16.84    3.18
  -3   1 -12   13.07    2.61
  -2   1 -12   12.33    1.78
  -1   1 -12   22.68    2.07
   0   1 -12   13.30    1.57
   1   1 -12   24.84    2.09
   2   1 -12    9.44    1.52
   3   1 -12   16.92    3.93
  -3   2 -12    6.58    1.69
  -2   2 -12   25.86    2.33
  -1   2 -12   13.15    1.42
   0   2 -12   41.29    2.56
   1   2 -12   11.68    1.65
   2   2 -12   25.63    2.34
   3   2 -12    7.39    1.85
  -2   3 -12    8.44    1.56
  -1   3 -12   15.36    1.55
   0   3 -12    8.94    1.27
   1   3 -12   13.67    1.70
   2   3 -12    5.46    2.02
   0   4 -12   14.74    2.29
  -1  -4 -11    3.54    2.09
   0  -4 -11   46.73    4.43
   1  -4 -11    2.35    1.90
  -3  -3 -11   24.13    2.74
  -2  -3 -11    4.26    2.56
  -1  -3 -11   36.63    3.40
   0  -3 -11    3.19    2.00
   1  -3 -11   40.23    2.91
   2  -3 -11    3.07    1.80
   3  -3 -11   18.71    2.85
  -3  -2 -11    2.51    1.62
  -2  -2 -11   61.80    3.45
  -1  -2 -11    3.89    1.11
   0  -2 -11   69.77    4.01
   1  -2 -11    3.18    1.89
   2  -2 -11   57.24    4.37
   3  -2 -11    0.36    1.47
   4  -2 -11   32.92    5.17
  -4  -1 -11    0.13    1.90
  -3  -1 -11   33.48    2.93
  -2  -1 -11    2.27    1.25
  -1  -1 -11   60.32    2.47
   0  -1 -11    5.22    0.99
   1  -1 -11   56.61    3.82
   2  -1 -11    1.09    1.65
   3  -1 -11   40.20    5.52
   4  -1 -11    0.65    1.55
  -4   0 -11   41.31    4.77
  -3   0 -11   -0.17    1.48
  -2   0 -11   73.21    3.14
  -1   0 -11    4.46    1.08
   0   0 -11   93.31    2.97
   1   0 -11    4.15    1.00
   2   0 -11   79.36    5.36
   3   0 -11    2.02    1.71
   4   0 -11   35.92    3.99
  -4   1 -11   -0.21    1.56
  -3   1 -11   33.13    2.78
  -2   1 -11    3.06    0.90
  -1   1 -11   61.50    2.63
   0   1 -11    4.36    1.02
   1   1 -11   62.75    2.64
   2   1 -11    4.00    1.11
   3   1 -11   37.35    4.86
  -3   2 -11    1.78    1.30
  -2   2 -11   57.55    2.76
  -1   2 -11    3.14    0.88
   0   2 -11   76.81    2.36
   1   2 -11    3.76    0.88
   2   2 -11   58.11    3.45
   3   2 -11    1.02    1.41
   4   2 -11   37.89    5.66
  -3   3 -11   19.64    2.30
  -2   3 -11    0.10    1.12
  -1   3 -11   39.51    2.11
   0   3 -11    3.96    1.10
   1   3 -11   37.57    2.25
   2   3 -11    2.51    1.16
   3   3 -11   17.39    2.73
  -2   4 -11   32.17    3.85
  -1   4 -11    0.17    1.13
   0   4 -11   40.99    2.61
   1   4 -11   -0.22    1.04
  -2  -4 -10   12.73    3.62
  -1  -4 -10    4.66    2.04
   0  -4 -10   16.89    2.93
   1  -4 -10    6.23    1.91
   2  -4 -10   11.92    2.77
  -3  -3 -10   15.90    2.36
  -2  -3 -10    5.06    1.62
  -1  -3 -10   35.24    3.16
   0  -3 -10    9.30    2.33
   1  -3 -10   32.29    2.55
   2  -3 -10    3.74    1.59
   3  -3 -10   18.36    2.51
  -4  -2 -10    9.21    2.69
  -3  -2 -10    8.33    1.80
  -2  -2 -10   32.68    2.74
  -1  -2 -10   11.05    1.38
   0  -2 -10   43.77    3.27
   1  -2 -10   10.70    2.05
   2  -2 -10   29.50    3.30
   3  -2 -10    9.02    1.78
   4  -2 -10   13.83    2.26
  -4  -1 -10    3.19    1.99
  -3  -1 -10   38.63    2.95
  -2  -1 -10    9.60    1.60
  -1  -1 -10   66.61    2.40
   0  -1 -10   10.89    1.12
   1  -1 -10   61.61    3.46
   2  -1 -10    8.25    1.89
   3  -1 -10   40.77    5.14
   4  -1 -10    1.84    1.47
  -4   0 -10   16.61    2.20
  -3   0 -10    5.91    1.23
  -2   0 -10   43.62    2.39
  -1   0 -10   10.53    1.34
   0   0 -10   60.74    2.27
   1   0 -10    9.87    1.20
   2   0 -10   43.15    2.11
   3   0 -10    4.70    1.74
   4   0 -10   15.08    2.82
  -4   1 -10    3.35    1.51
  -3   1 -10   27.98    2.50
  -2   1 -10    8.04    1.06
  -1   1 -10   59.15    1.92
   0   1 -10   10.76    0.98
   1   1 -10   61.65    2.41
   2   1 -10    9.73    1.37
   3   1 -10   30.88    2.35
  -4   2 -10   14.32    2.22
  -3   2 -10    8.82    1.57
  -2   2 -10   31.84    1.90
  -1   2 -10   10.26    1.10
   0   2 -10   46.53    1.79
   1   2 -10   10.45    1.26
   2   2 -10   30.79    2.00
   3   2 -10    2.25    1.41
   4   2 -10   16.33    2.76
  -3   3 -10   18.20    2.13
  -2   3 -10    6.81    1.37
  -1   3 -10   30.86    1.91
   0   3 -10    6.34    1.10
   1   3 -10   32.15    2.06
   2   3 -10    6.74    1.26
   3   3 -10   15.31    1.82
  -2   4 -10   11.10    1.67
  -1   4 -10    3.39    1.21
   0   4 -10   17.14    1.81
   1   4 -10    3.47    1.26
   2   4 -10   12.08    1.72
  -1  -5  -9   38.83    5.56
   0  -5  -9    4.53    2.51
  -2  -4  -9   28.67    4.72
  -1  -4  -9    3.37    1.56
   0  -4  -9   38.96    3.83
   1  -4  -9    1.28    1.47
   2  -4  -9   27.39    3.26
   3  -4  -9    3.29    3.55
  -4  -3  -9    2.76    2.62
  -3  -3  -9   55.93    3.65
  -2  -3  -9    3.33    1.38
  -1  -3  -9   83.12    3.86
   0  -3  -9    5.02    1.79
   1  -3  -9   83.54    3.29
   2  -3  -9    5.15    1.63
   3  -3  -9   54.74    3.96
   4  -3  -9    5.91    3.14
  -4  -2  -9   22.07    3.46
  -3  -2  -9    3.60    1.37
  -2  -2  -9   61.80    3.06
  -1  -2  -9    6.60    1.07
   0  -2  -9   83.40    3.84
   1  -2  -9    7.13    1.65
   2  -2  -9   62.56    3.79
   3  -2  -9    3.15    1.41
   4  -2  -9   25.24    2.68
  -4  -1  -9    3.73    1.90
  -3  -1  -9   77.64    3.40
  -2  -1  -9    8.19    1.43
  -1  -1  -9  128.44    3.07
   0  -1  -9    9.90    1.03
   1  -1  -9  125.22    4.46
   2  -1  -9    6.67    1.62
   3  -1  -9   76.56    5.57
   4  -1  -9    2.82    1.58
   5  -1  -9   34.78    4.21
  -5   0  -9    2.32    2.41
  -4   0  -9   36.21    2.90
  -3   0  -9    4.99    0.98
  -2   0  -9   82.06    2.43
  -1   0  -9    9.89    0.94
   0   0  -9  110.44    2.86
   1   0  -9    8.90    1.06
   2   0  -9   83.73    2.57
   3   0  -9    6.14    1.60
   4   0  -9   27.77    3.29
  -5   1  -9   28.74    4.16
  -4   1  -9    3.90    1.58
  -3   1  -9   79.70    3.31
  -2   1  -9    7.00    0.94
  -1   1  -9  126.20    2.58
   0   1  -9    9.39    0.88
   1   1  -9  125.51    2.47
   2   1  -9    7.37    0.95
   3   1  -9   82.11    3.68
  -4   2  -9   31.13    2.90
  -3   2  -9    5.08    1.28
  -2   2  -9   64.03    2.13
  -1   2  -9    6.37    0.88
   0   2  -9   81.99    2.45
   1   2  -9    6.91    0.97
   2   2  -9   69.69    2.42
   3   2  -9    5.87    1.19
   4   2  -9   23.81    2.26
  -3   3  -9   58.54    2.96
  -2   3  -9    3.12    1.04
  -1   3  -9   79.14    2.77
   0   3  -9    4.82    0.97
   1   3  -9   79.77    2.73
   2   3  -9    4.03    1.11
   3   3  -9   58.13    2.86
   4   3  -9    2.26    1.45
  -2   4  -9   26.55    2.26
  -1   4  -9    3.58    1.09
   0   4  -9   34.63    2.40
   1   4  -9    3.06    1.04
   2   4  -9   26.48    2.24
   3   4  -9   -1.21    2.05
   0   5  -9    3.55    1.80
  -1  -5  -8   13.16    2.81
   0  -5  -8    4.99    2.44
   1  -5  -8   12.95    4.34
   2  -5  -8    3.72    3.38
  -3  -4  -8    8.74    1.95
  -2  -4  -8   19.47    4.15
  -1  -4  -8   12.03    2.24
   0  -4  -8   27.80    3.24
   1  -4  -8   10.62    1.83
   2  -4  -8   18.82    2.78
   3  -4  -8    7.35    2.22
  -4  -3  -8    8.94    2.06
  -3  -3  -8   23.84    2.51
  -2  -3  -8    9.82    1.68
  -1  -3  -8   46.63    3.17
   0  -3  -8   18.40    1.68
   1  -3  -8   45.96    2.71
   2  -3  -8   12.48    1.99
   3  -3  -8   24.39    2.62
   4  -3  -8    6.74    2.10
  -4  -2  -8   18.74    3.08
  -3  -2  -8   12.64    1.85
  -2  -2  -8   45.92    2.57
  -1  -2  -8   20.73    1.61
   0  -2  -8   59.32    3.12
   1  -2  -8   22.78    2.42
   2  -2  -8   46.24    2.30
   3  -2  -8   10.28    1.77
   4  -2  -8   16.94    2.35
  -5  -1  -8   12.26    2.01
  -4  -1  -8   10.24    1.76
  -3  -1  -8   47.35    2.29
  -2  -1  -8   19.01    1.21
  -1  -1  -8   98.98    2.55
   0  -1  -8   29.00    1.43
   1  -1  -8  104.43    3.82
   2  -1  -8   24.41    2.45
   3  -1  -8   46.72    2.61
   4  -1  -8   10.86    2.50
   5  -1  -8   12.68    2.01
  -5   0  -8    7.30    1.90
  -4   0  -8   25.23    2.50
  -3   0  -8   16.58    1.45
  -2   0  -8   62.61    2.04
  -1   0  -8   28.27    1.24
   0   0  -8   91.07    1.76
   1   0  -8   26.82    1.40
   2   0  -8   58.90    3.97
   3   0  -8   17.60    2.10
   4   0  -8   20.18    2.80
   5   0  -8    3.11    1.96
  -5   1  -8   10.69    2.22
  -4   1  -8   12.84    1.93
  -3   1  -8   49.94    2.57
  -2   1  -8   20.09    1.33
  -1   1  -8   97.06    2.18
   0   1  -8   29.33    1.17
   1   1  -8  101.25    2.38
   2   1  -8   21.16    1.40
   3   1  -8   49.18    2.13
  -4   2  -8   17.26    2.15
  -3   2  -8   12.94    1.60
  -2   2  -8   45.48    1.73
  -1   2  -8   23.54    1.39
   0   2  -8   62.73    2.05
   1   2  -8   20.90    1.50
   2   2  -8   42.64    1.94
   3   2  -8    9.74    2.00
   4   2  -8   17.47    2.87
   5   2  -8    2.71    2.41
  -4   3  -8   10.46    3.01
  -3   3  -8   26.20    2.32
  -2   3  -8   13.61    1.45
  -1   3  -8   50.04    2.10
   0   3  -8   15.71    1.37
   1   3  -8   50.00    2.11
   2   3  -8   12.25    1.40
   3   3  -8   27.49    3.35
   4   3  -8    7.12    2.45
  -3   4  -8    7.85    2.41
  -2   4  -8   20.22    1.93
  -1   4  -8   12.82    1.52
   0   4  -8   23.89    1.90
   1   4  -8    8.49    1.29
   2   4  -8   14.44    1.70
   3   4  -8    7.23    1.57
  -1   5  -8   12.02    2.74
   0   5  -8    5.48    1.32
   1   5  -8   15.47    1.85
  -2  -5  -7    7.92    3.71
  -1  -5  -7    8.97    2.52
   0  -5  -7   20.37    3.24
   1  -5  -7    9.39    3.57
   2  -5  -7   14.77    2.94
  -3  -4  -7   16.53    2.36
  -2  -4  -7   36.71    5.02
  -1  -4  -7   33.00    3.16
   0  -4  -7   39.74    3.60
   1  -4  -7   25.35    2.35
   2  -4  -7   36.94    3.47
   3  -4  -7   17.14    2.63
  -4  -3  -7   21.20    2.60
  -3  -3  -7   17.00    2.17
  -2  -3  -7   31.97    2.58
  -1  -3  -7   31.86    2.75
   0  -3  -7   42.55    2.20
   1  -3  -7   28.48    2.10
   2  -3  -7   36.16    3.02
   3  -3  -7   17.57    2.41
   4  -3  -7   18.92    2.55
  -5  -2  -7   13.34    2.17
  -4  -2  -7   33.26    2.33
  -3  -2  -7   37.00    2.25
  -2  -2  -7   62.92    2.16
  -1  -2  -7   61.52    2.14
   0  -2  -7   80.88    3.33
   1  -2  -7   59.16    3.06
   2  -2  -7   58.87    2.37
   3  -2  -7   37.04    2.82
   4  -2  -7   27.89    3.37
   5  -2  -7   11.34    2.03
  -5  -1  -7    9.98    1.78
  -4  -1  -7   31.62    2.60
  -3  -1  -7   33.56    2.02
  -2  -1  -7   59.12    2.02
  -1  -1  -7   55.80    1.83
   0  -1  -7   81.42    2.01
   1  -1  -7   52.43    2.63
   2  -1  -7   54.30    2.87
   3  -1  -7   29.08    2.34
   4  -1  -7   24.53    3.21
   5  -1  -7    9.34    1.78
  -5   0  -7   18.13    2.23
  -4   0  -7   35.82    2.76
  -3   0  -7   43.60    1.88
  -2   0  -7   78.17    2.12
  -1   0  -7   84.30    1.86
   0   0  -7  101.43    1.74
   1   0  -7   81.08    2.08
   2   0  -7   77.38    1.71
   3   0  -7   43.39    2.57
   4   0  -7   38.44    2.43
   5   0  -7   17.20    2.09
  -5   1  -7   13.62    2.20
  -4   1  -7   26.27    2.46
  -3   1  -7   34.14    2.42
  -2   1  -7   61.52    1.82
  -1   1  -7   55.15    1.53
   0   1  -7   80.80    1.73
   1   1  -7   57.53    1.69
   2   1  -7   64.22    1.64
   3   1  -7   29.04    3.01
   4   1  -7   31.26    3.28
   5   1  -7   11.07    2.80
  -5   2  -7   11.83    3.62
  -4   2  -7   36.33    2.88
  -3   2  -7   34.81    2.21
  -2   2  -7   64.27    1.88
  -1   2  -7   61.10    1.98
   0   2  -7   78.61    2.17
   1   2  -7   61.02    1.53
   2   2  -7   65.36    2.23
   3   2  -7   36.54    2.16
   4   2  -7   30.26    2.58
   5   2  -7    9.20    2.07
  -4   3  -7   17.94    3.56
  -3   3  -7   18.52    1.88
  -2   3  -7   34.88    1.86
  -1   3  -7   30.81    1.64
   0   3  -7   41.66    1.83
   1   3  -7   29.78    1.37
   2   3  -7   33.24    2.01
   3   3  -7   15.66    1.81
   4   3  -7   14.84    2.14
  -3   4  -7   11.41    2.60
  -2   4  -7   31.88    2.38
  -1   4  -7   24.65    1.86
   0   4  -7   41.25    2.03
   1   4  -7   29.46    2.11
   2   4  -7   31.77    1.90
   3   4  -7   18.60    3.21
  -2   5  -7   13.97    3.11
  -1   5  -7   10.16    2.46
   0   5  -7   14.80    1.65
   1   5  -7    9.71    1.36
   2   5  -7   11.12    1.75
  -2  -5  -6   14.00    4.14
  -1  -5  -6   25.97    3.45
   0  -5  -6   18.98    3.18
   1  -5  -6   24.54    5.01
   2  -5  -6   12.99    2.92
  -4  -4  -6   12.27    2.21
  -3  -4  -6   21.98    2.71
  -2  -4  -6   17.69    2.17
  -1  -4  -6   36.17    3.26
   0  -4  -6   24.98    2.93
   1  -4  -6   28.62    2.37
   2  -4  -6   18.89    2.59
   3  -4  -6   23.33    2.85
   4  -4  -6    6.91    2.77
  -4  -3  -6   21.10    2.54
  -3  -3  -6   42.17    3.08
  -2  -3  -6   38.11    2.81
  -1  -3  -6   73.79    2.47
   0  -3  -6   50.72    2.24
   1  -3  -6   75.17    2.78
   2  -3  -6   39.66    3.19
   3  -3  -6   40.73    3.20
   4  -3  -6   21.15    2.55
  -5  -2  -6   16.27    2.20
  -4  -2  -6   20.64    1.83
  -3  -2  -6   38.05    2.13
  -2  -2  -6   55.41    1.68
  -1  -2  -6   65.47    2.06
   0  -2  -6   81.26    3.20
   1  -2  -6   66.85    3.01
   2  -2  -6   54.79    2.21
   3  -2  -6   37.14    2.80
   4  -2  -6   15.91    2.01
   5  -2  -6   14.09    2.12
  -5  -1  -6   24.81    2.51
  -4  -1  -6   30.45    2.52
  -3  -1  -6   70.75    2.33
  -2  -1  -6   66.14    2.03
  -1  -1  -6  146.18    2.29
   0  -1  -6   88.91    1.94
   1  -1  -6  152.21    3.98
   2  -1  -6   65.61    2.82
   3  -1  -6   75.24    2.95
   4  -1  -6   27.00    2.37
   5  -1  -6   21.16    2.37
  -5   0  -6   18.81    2.42
  -4   0  -6   28.88    2.02
  -3   0  -6   49.79    1.67
  -2   0  -6   83.27    1.78
  -1   0  -6   89.02    1.80
   0   0  -6  132.66    1.88
   1   0  -6   91.43    1.53
   2   0  -6   86.71    4.02
   3   0  -6   46.45    2.50
   4   0  -6   20.77    1.86
   5   0  -6   12.84    1.96
  -5   1  -6   27.63    2.73
  -4   1  -6   32.35    2.12
  -3   1  -6   73.43    2.34
  -2   1  -6   66.62    1.55
  -1   1  -6  148.16    2.35
   0   1  -6   89.30    1.94
   1   1  -6  149.96    2.04
   2   1  -6   64.62    2.10
   4   1  -6   26.65    3.03
   5   1  -6   30.61    3.82
  -5   2  -6   14.36    3.64
  -4   2  -6   16.53    1.72
  -3   2  -6   40.87    1.79
  -2   2  -6   58.33    1.44
  -1   2  -6   63.20    1.50
   0   2  -6   84.95    1.62
   1   2  -6   64.36    1.52
   2   2  -6   59.63    2.12
   3   2  -6   38.20    2.22
   4   2  -6   14.11    2.72
   5   2  -6   13.49    3.01
  -4   3  -6   22.04    3.86
  -3   3  -6   37.23    1.86
  -2   3  -6   37.32    1.51
  -1   3  -6   76.66    1.86
   0   3  -6   49.48    1.48
   1   3  -6   75.69    1.91
   2   3  -6   39.58    1.97
   3   3  -6   39.51    2.37
   4   3  -6   17.56    2.18
  -3   4  -6   16.96    3.06
  -2   4  -6   15.93    1.75
  -1   4  -6   31.94    1.47
   0   4  -6   27.49    1.45
   1   4  -6   31.44    1.57
   2   4  -6   15.77    1.67
   3   4  -6   16.75    1.99
   4   4  -6    7.32    2.73
  -2   5  -6   11.00    2.77
  -1   5  -6   21.39    2.09
   0   5  -6   16.95    1.43
   1   5  -6   19.72    1.58
   2   5  -6   13.15    1.48
  -2  -5  -5   30.29    5.19
  -1  -5  -5    7.03    2.27
   0  -5  -5   26.68    3.48
   1  -5  -5   12.94    3.90
   2  -5  -5   23.18    3.38
   3  -5  -5    8.29    4.74
  -4  -4  -5   -0.21    1.43
  -3  -4  -5   32.25    3.08
  -2  -4  -5    2.30    1.23
  -1  -4  -5   43.43    3.55
   0  -4  -5    0.89    1.30
   1  -4  -5   48.41    2.97
   2  -4  -5    1.06    1.48
   3  -4  -5   29.05    3.15
   4  -4  -5    2.72    1.63
  -5  -3  -5    7.37    2.88
  -4  -3  -5   29.53    2.32
  -3  -3  -5    8.94    1.32
  -2  -3  -5   61.13    1.87
  -1  -3  -5   12.26    1.25
   0  -3  -5   74.12    2.52
   1  -3  -5   13.32    1.48
   2  -3  -5   54.13    3.22
   3  -3  -5   13.33    2.09
   4  -3  -5   31.29    2.93
  -5  -2  -5   25.15    2.56
  -4  -2  -5    1.82    0.91
  -3  -2  -5   57.14    2.22
  -2  -2  -5    1.41    0.60
  -1  -2  -5  102.27    1.82
   0  -2  -5    3.21    0.97
   1  -2  -5  102.17    2.60
   2  -2  -5    1.77    0.71
   3  -2  -5   61.76    3.02
   4  -2  -5    2.00    0.98
   5  -2  -5   25.55    2.63
  -5  -1  -5    6.92    1.21
  -4  -1  -5   45.45    2.28
  -3  -1  -5   14.25    1.10
  -2  -1  -5   94.70    2.33
  -1  -1  -5   22.06    0.91
   0  -1  -5  140.34    2.29
   1  -1  -5   19.94    1.64
   2  -1  -5   96.58    3.07
   3  -1  -5   12.19    1.46
   4  -1  -5   37.44    2.41
   5  -1  -5   11.05    1.87
  -5   0  -5   28.71    2.14
  -4   0  -5    0.66    0.74
  -3   0  -5   74.09    1.87
  -2   0  -5    2.65    0.49
  -1   0  -5  138.33    2.13
   0   0  -5    4.75    0.42
   1   0  -5  140.56    1.84
   3   0  -5   74.19    2.56
   4   0  -5    0.13    0.83
   5   0  -5   26.63    2.52
  -5   1  -5    7.58    1.38
  -4   1  -5   42.77    2.40
  -3   1  -5   13.86    1.29
  -2   1  -5   96.93    1.73
  -1   1  -5   20.62    0.69
   0   1  -5  137.95    2.31
   1   1  -5   21.67    0.76
   2   1  -5   99.97    3.71
   3   1  -5   12.66    1.33
   4   1  -5   41.42    2.38
   5   1  -5    5.87    2.13
  -5   2  -5   15.16    2.36
  -4   2  -5    0.45    0.84
  -3   2  -5   56.44    1.93
  -2   2  -5    3.08    0.47
  -1   2  -5   97.09    1.79
   0   2  -5    2.41    0.41
   1   2  -5   99.66    2.28
   2   2  -5    0.86    0.58
   3   2  -5   56.01    2.61
   4   2  -5   -0.14    1.09
   5   2  -5   12.54    2.86
  -5   3  -5    8.08    3.36
  -4   3  -5   27.88    2.81
  -3   3  -5    9.27    1.42
  -2   3  -5   56.55    1.72
  -1   3  -5   12.77    0.91
   0   3  -5   73.00    1.73
   1   3  -5   11.33    1.14
   2   3  -5   55.83    2.26
   3   3  -5    8.82    1.45
   4   3  -5   21.49    2.30
   5   3  -5    2.83    2.63
  -4   4  -5   -0.13    1.39
  -3   4  -5   31.08    2.58
  -2   4  -5    0.78    0.78
  -1   4  -5   42.75    1.56
   0   4  -5    1.20    0.52
   1   4  -5   43.89    1.67
   2   4  -5    0.08    0.77
   3   4  -5   26.68    2.42
   4   4  -5   -0.14    1.33
  -3   5  -5    8.04    2.29
  -2   5  -5   20.21    2.28
  -1   5  -5    7.02    1.33
   0   5  -5   26.83    1.66
   1   5  -5    6.77    1.01
   2   5  -5   21.01    2.19
   3   5  -5    4.58    2.30
  -3  -5  -4    1.15    1.55
  -2  -5  -4   20.35    4.39
  -1  -5  -4    0.69    1.62
   0  -5  -4   30.23    3.59
   1  -5  -4   -1.79    2.11
   2  -5  -4   23.59    3.21
   3  -5  -4   -0.71    2.16
  -4  -4  -4   53.39    3.80
  -3  -4  -4   31.67    2.91
  -2  -4  -4   92.02    2.98
  -1  -4  -4   45.79    3.33
   0  -4  -4  116.76    4.69
   1  -4  -4   48.40    2.85
   2  -4  -4   88.13    4.30
   3  -4  -4   34.84    2.68
   4  -4  -4   51.35    3.89
  -5  -3  -4    1.39    1.35
  -4  -3  -4   28.49    2.26
  -3  -3  -4    3.84    1.01
  -2  -3  -4   57.47    1.75
  -1  -3  -4   11.63    1.18
   0  -3  -4   77.49    2.47
   1  -3  -4   14.67    1.49
   2  -3  -4   56.13    3.02
   3  -3  -4    3.07    1.28
   4  -3  -4   30.09    2.76
   5  -3  -4    1.08    1.52
  -5  -2  -4   24.90    2.53
  -4  -2  -4   90.12    2.89
  -3  -2  -4   56.61    2.14
  -2  -2  -4  232.30    3.83
  -1  -2  -4  109.22    1.91
   0  -2  -4  319.96    5.95
   1  -2  -4  109.16    2.61
   2  -2  -4  231.67    4.02
   3  -2  -4   61.15    2.82
   4  -2  -4   93.07    3.64
   5  -2  -4   24.63    2.67
  -5  -1  -4    0.63    0.86
  -4  -1  -4   46.50    2.13
  -3  -1  -4    9.63    0.93
  -2  -1  -4  108.08    2.41
  -1  -1  -4   35.58    1.04
   0  -1  -4  159.45    3.40
   1  -1  -4   38.24    1.72
   2  -1  -4  109.85    2.37
   3  -1  -4   10.48    1.31
   4  -1  -4   46.61    2.49
   5  -1  -4    3.21    1.28
  -6   0  -4   35.92    4.92
  -5   0  -4   30.36    2.22
  -4   0  -4  120.55    3.10
  -3   0  -4   77.75    1.85
  -2   0  -4  320.14    3.50
  -1   0  -4  157.19    2.14
   0   0  -4  551.54    4.33
   1   0  -4  163.76    2.91
   3   0  -4   78.55    2.54
   4   0  -4  117.57    3.49
   5   0  -4   25.17    2.39
   6   0  -4   25.53    3.97
  -5   1  -4    2.25    1.26
  -4   1  -4   47.55    2.15
  -3   1  -4   10.43    1.07
  -2   1  -4  107.18    2.06
  -1   1  -4   35.94    0.82
   0   1  -4  156.92    2.33
   1   1  -4   37.14    1.17
   3   1  -4   14.37    1.37
   4   1  -4   40.06    2.47
   5   1  -4    3.35    1.70
  -5   2  -4   21.00    2.78
  -4   2  -4   97.89    4.11
  -3   2  -4   61.15    1.74
  -2   2  -4  229.77    2.82
  -1   2  -4  104.85    1.79
   0   2  -4  324.42    3.37
   1   2  -4  109.33    2.36
   2   2  -4  230.98    3.37
   3   2  -4   60.80    2.69
   4   2  -4   82.94    3.60
   5   2  -4   20.56    2.42
  -5   3  -4    0.38    1.69
  -4   3  -4   29.42    2.88
  -3   3  -4    3.85    1.07
  -2   3  -4   62.13    2.30
  -1   3  -4   14.03    0.92
   0   3  -4   76.88    1.71
   1   3  -4   13.80    1.21
   2   3  -4   61.86    2.35
   3   3  -4    1.35    0.85
   4   3  -4   22.07    2.37
   5   3  -4   -1.49    2.00
  -4   4  -4   44.19    3.56
  -3   4  -4   32.43    2.63
  -2   4  -4   94.27    3.19
  -1   4  -4   46.75    2.11
   0   4  -4  115.98    2.41
   1   4  -4   47.07    2.17
   2   4  -4   84.58    3.11
   3   4  -4   26.43    2.36
   4   4  -4   37.84    3.25
  -3   5  -4    0.75    1.26
  -2   5  -4   20.93    2.20
  -1   5  -4    1.14    0.87
   0   5  -4   30.67    2.28
   1   5  -4    1.75    0.71
   2   5  -4   23.28    2.16
   3   5  -4    0.55    1.26
  -1  -6  -3   13.66    4.20
  -3  -5  -3    0.18    1.55
  -2  -5  -3   15.78    3.92
  -1  -5  -3    3.26    1.93
   0  -5  -3   18.95    3.08
   1  -5  -3    1.07    2.68
   2  -5  -3   11.93    2.74
   3  -5  -3   -0.49    2.04
  -4  -4  -3    1.86    1.21
  -3  -4  -3   17.97    1.83
  -2  -4  -3    1.27    0.78
  -1  -4  -3   32.18    1.81
   0  -4  -3    3.52    1.44
   1  -4  -3   31.74    2.36
   2  -4  -3    1.91    1.40
   3  -4  -3   18.98    2.03
   4  -4  -3    3.60    1.73
  -5  -3  -3    2.01    1.28
  -4  -3  -3   22.56    2.03
  -3  -3  -3    4.19    0.99
  -2  -3  -3   38.76    1.57
  -1  -3  -3    3.19    0.72
   0  -3  -3   47.15    1.97
   1  -3  -3    2.65    0.88
   2  -3  -3   39.04    2.90
   3  -3  -3    1.60    0.93
   4  -3  -3   18.29    2.34
   5  -3  -3    1.35    1.56
  -5  -2  -3   18.55    2.28
  -4  -2  -3    1.36    0.87
  -3  -2  -3   39.59    2.00
  -2  -2  -3    1.15    0.56
  -1  -2  -3   69.91    1.48
   0  -2  -3    0.59    0.46
   1  -2  -3   67.12    2.00
   2  -2  -3    1.30    0.73
   3  -2  -3   39.20    1.95
   4  -2  -3    1.30    0.99
   5  -2  -3   19.86    2.44
  -6  -1  -3    8.30    2.53
  -5  -1  -3    1.91    0.91
  -4  -1  -3   33.06    2.10
  -3  -1  -3    3.34    0.64
  -2  -1  -3   68.05    1.60
  -1  -1  -3    8.64    0.63
   0  -1  -3  107.94    2.53
   1  -1  -3   10.71    1.04
   2  -1  -3   71.48    2.39
   3  -1  -3    3.32    0.76
   4  -1  -3   26.28    2.16
   5  -1  -3    1.29    1.27
  -6   0  -3   -0.53    1.81
  -5   0  -3   19.32    1.82
  -4   0  -3    0.61    0.65
  -3   0  -3   49.99    1.83
  -2   0  -3    0.85    0.35
  -1   0  -3   99.56    1.39
   0   0  -3    0.25    0.21
   3   0  -3   49.22    1.67
   4   0  -3    0.86    0.74
   5   0  -3   15.73    1.95
   6   0  -3    2.91    2.09
  -5   1  -3    2.35    1.26
  -4   1  -3   27.67    1.87
  -3   1  -3    4.65    0.79
  -2   1  -3   66.74    1.41
  -1   1  -3    9.05    0.56
   0   1  -3  103.14    1.33
   1   1  -3    9.83    0.60
   2   1  -3   72.11    2.07
   3   1  -3    3.33    0.82
   4   1  -3   27.40    2.14
   5   1  -3   -0.57    1.42
  -5   2  -3   17.68    2.56
  -4   2  -3    0.59    0.82
  -3   2  -3   39.59    1.84
  -2   2  -3    1.05    0.42
  -1   2  -3   69.99    1.35
   0   2  -3    0.95    0.29
   1   2  -3   69.90    1.85
   2   2  -3    0.91    0.53
   3   2  -3   36.36    2.27
   4   2  -3    0.28    1.07
   5   2  -3   17.39    2.22
  -5   3  -3    3.28    1.78
  -4   3  -3   21.49    2.46
  -3   3  -3    1.85    0.89
  -2   3  -3   38.25    1.83
  -1   3  -3    4.90    0.76
   0   3  -3   49.67    1.35
   1   3  -3    3.67    0.72
   2   3  -3   36.82    1.40
   3   3  -3    2.58    0.78
   4   3  -3   17.58    2.06
   5   3  -3   -2.76    2.25
  -4   4  -3    1.08    1.28
  -3   4  -3   21.35    2.11
  -2   4  -3    0.11    0.68
  -1   4  -3   29.13    1.72
   0   4  -3    0.52    0.43
   1   4  -3   32.70    1.81
   2   4  -3    0.44    0.78
   3   4  -3   17.06    2.00
   4   4  -3    0.86    1.31
  -3   5  -3    1.32    1.23
  -2   5  -3   15.68    1.90
  -1   5  -3    2.37    0.93
   0   5  -3   22.90    1.92
   1   5  -3    2.96    0.99
   2   5  -3   14.32    1.80
   3   5  -3    2.70    1.35
  -1   6  -3   10.98    2.63
   0   6  -3    1.70    1.08
  -1  -6  -2    6.88    2.69
   0  -6  -2    2.86    2.54
  -3  -5  -2   86.04    4.41
  -2  -5  -2   12.12    2.41
  -1  -5  -2  136.46    5.81
   0  -5  -2   16.29    2.80
   1  -5  -2  145.22    5.53
   2  -5  -2    8.96    2.40
   3  -5  -2   86.20    5.06
  -4  -4  -2    1.27    1.30
  -3  -4  -2   15.12    2.12
  -2  -4  -2    3.49    0.97
  -1  -4  -2   27.83    1.86
   0  -4  -2    2.59    1.23
   1  -4  -2   26.07    2.11
   2  -4  -2    4.55    1.22
   3  -4  -2   16.85    1.95
   4  -4  -2    4.20    1.83
  -5  -3  -2   83.76    3.86
  -4  -3  -2   14.66    1.64
  -3  -3  -2  224.43    4.47
  -2  -3  -2   29.97    1.43
  -1  -3  -2  403.08    5.21
   0  -3  -2   41.51    2.42
   1  -3  -2  404.06    5.82
   2  -3  -2   40.02    2.97
   3  -3  -2  226.76    4.67
   4  -3  -2   12.86    2.05
   5  -3  -2   88.87    4.51
  -5  -2  -2   10.58    1.73
  -4  -2  -2    2.99    0.89
  -3  -2  -2   32.66    1.96
  -2  -2  -2    1.83    0.60
  -1  -2  -2   61.57    1.36
   0  -2  -2    1.93    0.52
   1  -2  -2   62.56    1.86
   2  -2  -2    1.35    0.82
   3  -2  -2   34.84    2.00
   4  -2  -2    1.41    1.10
   5  -2  -2   10.30    1.87
  -6  -1  -2    8.80    2.44
  -5  -1  -2  128.79    3.54
  -4  -1  -2   25.57    1.81
  -3  -1  -2  398.53    4.71
  -2  -1  -2   57.33    1.49
  -1  -1  -2  945.13    6.66
   0  -1  -2  104.04    2.36
   1  -1  -2  954.06    7.94
   2  -1  -2   60.44    2.15
   3  -1  -2  402.93    5.12
   4  -1  -2   23.28    2.07
   5  -1  -2  137.07    4.50
  -6   0  -2    3.06    1.55
  -5   0  -2   14.90    1.55
  -4   0  -2    2.63    0.76
  -3   0  -2   44.85    1.71
  -2   0  -2    1.02    0.47
  -1   0  -2   97.85    1.35
   0   0  -2   -0.23    0.15
   2   0  -2    1.32    0.51
   3   0  -2   42.38    1.89
   4   0  -2    1.42    0.94
   5   0  -2   12.44    1.81
   6   0  -2    3.24    1.64
  -5   1  -2  148.71    5.09
  -4   1  -2   19.67    2.14
  -3   1  -2  401.61    4.54
  -2   1  -2   59.09    1.30
  -1   1  -2  948.27    5.90
   0   1  -2  101.34    1.26
   1   1  -2  967.74    8.70
   2   1  -2   59.29    1.97
   3   1  -2  408.24    6.42
   4   1  -2   23.97    2.05
   5   1  -2  134.26    4.40
  -5   2  -2    6.91    1.86
  -4   2  -2    5.38    1.13
  -3   2  -2   33.43    1.80
  -2   2  -2    0.91    0.41
  -1   2  -2   58.80    1.24
   0   2  -2    1.05    0.37
   1   2  -2   60.40    1.26
   2   2  -2    2.13    0.63
   3   2  -2   34.25    2.43
   4   2  -2    1.93    1.18
   5   2  -2   12.21    2.03
  -5   3  -2   84.74    3.82
  -4   3  -2   17.10    1.81
  -3   3  -2  229.36    4.20
  -2   3  -2   31.59    1.30
  -1   3  -2  396.48    4.22
   0   3  -2   41.94    1.60
   1   3  -2  401.10    4.25
   2   3  -2   33.70    1.35
   3   3  -2  221.93    5.02
   4   3  -2   13.16    1.96
   5   3  -2   77.96    4.21
  -4   4  -2    1.44    1.35
  -3   4  -2   13.47    1.73
  -2   4  -2    2.12    0.81
  -1   4  -2   25.94    1.84
   0   4  -2    3.32    0.77
   1   4  -2   23.23    1.81
   2   4  -2    3.22    0.89
   3   4  -2   11.34    1.69
   4   4  -2    2.12    1.45
  -3   5  -2   95.19    3.89
  -2   5  -2   10.06    1.60
  -1   5  -2  134.24    3.90
   0   5  -2   15.30    1.55
   1   5  -2  130.95    3.89
   2   5  -2   13.23    1.74
   3   5  -2   76.25    3.71
  -1   6  -2    8.68    2.36
   0   6  -2    2.62    1.12
   1   6  -2    7.90    2.26
  -1  -6  -1    4.70    2.44
   0  -6  -1    0.58    2.80
  -3  -5  -1   -1.95    1.29
  -2  -5  -1    9.86    1.46
  -1  -5  -1   -0.40    1.42
   0  -5  -1    9.16    2.16
   1  -5  -1    0.06    1.41
   2  -5  -1   10.80    2.44
   3  -5  -1    1.02    1.95
  -4  -4  -1    1.70    1.21
  -3  -4  -1   11.31    1.98
  -2  -4  -1    3.95    0.99
  -1  -4  -1   13.59    1.38
   0  -4  -1    3.79    1.33
   1  -4  -1   13.26    1.52
   2  -4  -1    4.38    1.31
   3  -4  -1    8.48    1.59
   4  -4  -1    0.92    1.62
  -5  -3  -1    0.38    1.39
  -4  -3  -1    6.83    1.26
  -3  -3  -1    0.18    0.69
  -2  -3  -1   20.15    1.29
  -1  -3  -1    0.24    0.50
   0  -3  -1   25.48    2.29
   1  -3  -1    0.76    0.65
   2  -3  -1   19.13    1.61
   3  -3  -1    1.01    0.89
   4  -3  -1    9.87    1.96
   5  -3  -1    2.01    1.60
  -5  -2  -1    8.42    1.75
  -4  -2  -1    1.59    0.90
  -3  -2  -1   19.43    1.55
  -2  -2  -1    7.05    0.72
  -1  -2  -1   31.18    0.99
   0  -2  -1    8.13    0.84
   1  -2  -1   30.59    1.32
   2  -2  -1    5.58    0.94
   3  -2  -1   15.63    1.40
   4  -2  -1    1.79    1.33
   5  -2  -1    9.42    1.86
  -6  -1  -1    8.64    2.30
  -5  -1  -1    0.79    0.90
  -4  -1  -1   15.29    1.51
  -3  -1  -1    0.36    0.45
  -2  -1  -1   29.16    1.09
  -1  -1  -1    0.76    0.37
   0  -1  -1   52.55    1.17
   1  -1  -1    0.11    0.46
   2  -1  -1   28.53    1.24
   3  -1  -1    0.43    0.67
   4  -1  -1   13.29    1.72
   5  -1  -1    3.41    1.35
   6  -1  -1    8.79    3.04
  -6   0  -1    3.32    1.54
  -5   0  -1    8.70    1.26
  -4   0  -1    6.24    0.99
  -3   0  -1   24.74    1.56
  -2   0  -1    8.81    0.84
  -1   0  -1   47.63    1.15
   0   0  -1   17.26    0.37
   2   0  -1    7.54    0.91
   3   0  -1   21.83    1.63
   4   0  -1    4.68    1.18
   5   0  -1    5.66    1.38
   6   0  -1    0.09    1.49
  -5   1  -1    1.90    1.15
  -4   1  -1   12.84    1.44
  -3   1  -1    0.50    0.58
  -2   1  -1   30.59    1.17
  -1   1  -1    0.67    0.24
   0   1  -1   49.44    1.04
   1   1  -1    1.33    0.37
   2   1  -1   29.03    1.54
   3   1  -1    0.59    0.66
   4   1  -1   11.69    1.53
   5   1  -1    0.37    1.06
  -5   2  -1    6.93    1.55
  -4   2  -1    3.59    1.02
  -3   2  -1   15.46    1.31
  -2   2  -1    7.00    0.68
  -1   2  -1   30.75    0.88
   0   2  -1   10.01    0.54
   1   2  -1   29.98    0.92
   2   2  -1    8.67    1.00
   3   2  -1   19.95    1.89
   4   2  -1    6.88    1.46
   5   2  -1    7.81    1.86
  -5   3  -1    1.08    1.31
  -4   3  -1    9.23    1.46
  -3   3  -1    0.23    0.54
  -2   3  -1   17.27    1.12
  -1   3  -1    0.25    0.27
   0   3  -1   22.93    0.89
   1   3  -1    0.05    0.31
   2   3  -1   17.02    1.15
   3   3  -1    1.80    0.85
   4   3  -1    9.20    1.77
   5   3  -1    1.37    1.73
  -4   4  -1    3.69    1.54
  -3   4  -1   12.02    1.65
  -2   4  -1    2.66    0.80
  -1   4  -1   15.30    1.08
   0   4  -1    4.91    0.62
   1   4  -1   14.66    1.04
   2   4  -1    4.03    0.75
   3   4  -1    9.37    1.24
   4   4  -1    4.25    1.55
  -3   5  -1    3.21    1.40
  -2   5  -1    9.17    1.49
  -1   5  -1    1.27    0.84
   0   5  -1    9.84    1.36
   1   5  -1    0.44    0.82
   2   5  -1    8.15    1.46
   3   5  -1    1.62    1.22
   0   6  -1    5.10    1.86
   1   6  -1    3.56    1.89
  -1  -6   0    1.05    2.15
   0  -6   0   92.34    8.31
  -3  -5   0    8.83    1.91
  -2  -5   0   -0.23    0.95
  -1  -5   0    8.91    2.26
   0  -5   0    2.12    1.46
   1  -5   0   14.42    2.36
   2  -5   0    0.27    1.71
   3  -5   0   10.16    2.46
  -4  -4   0  118.10    3.94
  -3  -4   0   -0.44    1.07
  -2  -4   0  251.02    4.78
  -1  -4   0    0.86    0.64
   0  -4   0  334.72    7.85
   1  -4   0   -0.21    0.75
   2  -4   0  240.50    6.55
   3  -4   0    0.26    1.08
   4  -4   0  122.53    5.17
  -5  -3   0    6.85    1.80
  -4  -3   0    0.58    0.93
  -3  -3   0   13.48    1.48
  -2  -3   0    0.21    0.47
  -1  -3   0   16.28    1.30
   0  -3   0   -0.17    0.51
   1  -3   0   13.16    1.32
   2  -3   0   -0.17    0.71
   3  -3   0   14.42    1.64
   4  -3   0   -0.95    1.19
   5  -3   0    6.79    2.00
  -5  -2   0    0.57    1.10
  -4  -2   0  249.95    5.69
  -3  -2   0    0.79    0.64
  -2  -2   0  624.26    5.75
  -1  -2   0   -0.40    0.27
   0  -2   0  966.68    6.71
   1  -2   0   -0.42    0.42
   2  -2   0  627.16    7.08
   3  -2   0    0.45    0.67
   4  -2   0  259.44    6.13
   5  -2   0   -0.24    1.28
  -5  -1   0   11.81    1.39
  -4  -1   0    0.05    0.67
  -3  -1   0   15.19    1.12
  -2  -1   0    0.12    0.36
  -1  -1   0   17.71    0.73
   0  -1   0   -0.74    0.23
   1  -1   0   17.12    0.94
   2  -1   0   -0.03    0.42
   3  -1   0   14.62    1.61
   4  -1   0   -0.58    0.78
   5  -1   0   12.45    1.83
  -6   0   0   99.19    4.49
  -5   0   0    0.08    0.73
  -4   0   0  332.39    5.03
  -3   0   0   -0.25    0.43
  -2   0   0  967.31    8.27
  -1   0   0   -0.45    0.32
   1   0   0   -0.11    0.43
   2   0   0  960.06    9.92
   3   0   0   -0.51    0.63
   4   0   0  335.88    6.53
   5   0   0   -0.14    1.06
   6   0   0   96.98    4.47
  -6   1   0   -0.34    2.14
  -5   1   0    9.73    1.83
  -4   1   0    0.45    0.73
  -3   1   0   14.39    1.33
  -2   1   0   -0.42    0.29
  -1   1   0   18.01    0.58
   0   1   0   -0.43    0.18
   1   1   0   17.17    0.84
   2   1   0   -0.66    0.46
   3   1   0   14.19    1.55
   4   1   0   -0.25    0.86
   5   1   0    8.25    1.63
  -5   2   0    0.45    1.08
  -4   2   0  251.80    5.07
  -3   2   0    0.29    0.48
  -2   2   0  628.59    5.98
  -1   2   0   -0.27    0.18
   0   2   0  984.43    7.17
   1   2   0   -0.24    0.23
   2   2   0  632.53    7.56
   3   2   0   -0.50    0.72
   4   2   0  243.63    6.16
   5   2   0   -0.94    1.10
  -5   3   0    6.79    1.60
  -4   3   0    0.52    0.86
  -3   3   0   12.30    1.19
  -2   3   0    0.44    0.34
  -1   3   0   15.62    0.92
   0   3   0   -0.04    0.24
   1   3   0   17.21    0.99
   2   3   0   -0.11    0.37
   3   3   0   13.38    1.57
   4   3   0    0.95    1.20
   5   3   0    3.03    1.76
  -4   4   0  121.10    3.87
  -3   4   0   -0.46    0.59
  -2   4   0  254.52    3.93
  -1   4   0   -0.29    0.35
   0   4   0  336.10    4.16
   1   4   0    0.73    0.43
   2   4   0  249.39    3.95
   3   4   0    0.27    0.74
   4   4   0  116.29    4.64
  -3   5   0    6.15    2.00
  -2   5   0   -1.02    1.05
  -1   5   0    8.96    1.32
   0   5   0    0.45    0.69
   1   5   0    9.09    1.32
   2   5   0   -0.32    0.85
   3   5   0   10.61    1.85
   0   6   0   95.56    5.24
  -1  -6   1    6.70    2.67
   0  -6   1    2.00    2.79
  -3  -5   1   -0.40    1.40
  -2  -5   1    8.40    1.48
  -1  -5   1    0.99    1.53
   0  -5   1    7.93    2.05
   1  -5   1    1.56    1.48
   2  -5   1    8.24    2.30
   3  -5   1   -0.62    1.99
  -4  -4   1    0.98    1.51
  -3  -4   1   10.20    1.90
  -2  -4   1    4.69    1.09
  -1  -4   1   13.46    1.41
   0  -4   1    0.57    1.24
   1  -4   1   15.24    1.54
   2  -4   1    1.89    1.38
   3  -4   1    8.25    1.54
   4  -4   1    3.07    1.98
  -5  -3   1    0.87    1.54
  -4  -3   1    9.34    1.44
  -3  -3   1    0.44    0.78
  -2  -3   1   16.07    1.40
  -1  -3   1    0.47    0.50
   0  -3   1   23.19    0.99
   1  -3   1   -0.13    0.51
   2  -3   1   19.79    1.72
   3  -3   1    0.31    0.93
   4  -3   1   11.15    2.02
   5  -3   1    1.50    1.84
  -5  -2   1    9.59    1.77
  -4  -2   1    3.73    0.97
  -3  -2   1   19.15    1.48
  -2  -2   1    6.61    0.70
  -1  -2   1   31.40    1.23
   0  -2   1   10.69    0.67
   1  -2   1   30.80    1.10
   2  -2   1    6.78    1.01
   3  -2   1   16.89    1.52
   4  -2   1    3.36    1.33
   5  -2   1    7.70    1.44
  -5  -1   1    1.91    0.92
  -4  -1   1   14.58    1.44
  -3  -1   1    0.28    0.47
  -2  -1   1   31.58    1.12
  -1  -1   1    1.01    0.31
   0  -1   1   51.99    0.86
   1  -1   1    0.45    0.45
   2  -1   1   30.39    1.92
   3  -1   1   -0.54    0.73
   4  -1   1   13.77    1.36
   5  -1   1    0.07    1.16
  -6   0   1    0.76    1.33
  -5   0   1    9.16    1.64
  -4   0   1    4.42    0.85
  -3   0   1   23.92    1.32
  -2   0   1   10.04    0.76
  -1   0   1   50.57    0.65
   0   0   1   16.88    0.36
   1   0   1   48.62    1.16
   2   0   1    9.09    1.50
   3   0   1   21.01    1.42
   4   0   1    5.32    1.30
   5   0   1    8.16    1.62
   6   0   1    2.00    1.52
  -6   1   1    7.18    2.50
  -5   1   1    0.66    0.99
  -4   1   1   12.54    1.39
  -3   1   1    0.59    0.53
  -2   1   1   29.61    1.00
  -1   1   1    0.96    0.23
   0   1   1   51.41    0.66
   1   1   1    0.84    0.26
   2   1   1   30.46    1.58
   3   1   1   -0.32    0.69
   4   1   1   12.91    1.76
   5   1   1    1.85    1.20
  -5   2   1    8.04    1.51
  -4   2   1    3.98    1.03
  -3   2   1   17.30    1.35
  -2   2   1    6.65    0.61
  -1   2   1   30.83    0.78
   0   2   1   10.38    0.64
   1   2   1   30.11    1.13
   2   2   1    8.71    1.02
   3   2   1   17.74    1.40
   4   2   1    2.60    1.34
   5   2   1    8.56    1.91
  -5   3   1    1.10    1.31
  -4   3   1   11.17    1.52
  -3   3   1    1.66    0.64
  -2   3   1   17.62    1.10
  -1   3   1    0.41    0.25
   0   3   1   23.82    0.92
   1   3   1    0.34    0.32
   2   3   1   15.34    1.33
   3   3   1    0.52    0.76
   4   3   1    9.32    1.83
   5   3   1    1.05    1.65
  -4   4   1    2.87    1.32
  -3   4   1    9.60    1.20
  -2   4   1    2.80    0.64
  -1   4   1   15.60    1.08
   0   4   1    4.89    0.65
   1   4   1   14.22    1.05
   2   4   1    2.99    0.71
   3   4   1    9.95    1.25
   4   4   1    0.54    1.10
  -3   5   1   -0.07    1.33
  -2   5   1    9.16    2.26
  -1   5   1    0.20    1.06
   0   5   1   10.71    1.33
   1   5   1    1.20    0.79
   2   5   1    8.32    1.41
   3   5   1    0.88    1.12
   0   6   1    5.18    1.76
  -1  -6   2    2.79    2.39
   0  -6   2    2.58    3.38
  -3  -5   2   73.58    4.14
  -2  -5   2    9.93    1.46
  -1  -5   2  131.39    3.72
   0  -5   2   12.48    2.32
   1  -5   2  136.45    5.03
   2  -5   2    7.44    2.15
   3  -5   2   89.05    5.53
  -4  -4   2    3.91    1.64
  -3  -4   2   11.89    1.91
  -2  -4   2    2.94    0.91
  -1  -4   2   24.13    1.73
   0  -4   2    3.79    0.66
   1  -4   2   26.18    1.94
   2  -4   2    0.68    1.34
   3  -4   2   15.10    2.50
   4  -4   2    3.37    1.99
  -5  -3   2   88.66    4.15
  -4  -3   2   16.66    1.79
  -3  -3   2  220.38    4.49
  -2  -3   2   33.37    1.90
  -1  -3   2  402.45    5.36
   0  -3   2   43.91    1.28
   1  -3   2  409.50    5.59
   2  -3   2   30.02    2.09
   3  -3   2  230.60    4.93
   4  -3   2   18.37    2.50
   5  -3   2   88.46    3.69
  -5  -2   2   10.38    1.88
  -4  -2   2    2.72    0.93
  -3  -2   2   33.06    1.87
  -2  -2   2    2.00    0.53
  -1  -2   2   61.27    1.68
   0  -2   2    1.24    0.36
   1  -2   2   61.99    1.51
   2  -2   2    2.92    0.79
   3  -2   2   32.42    2.10
   4  -2   2    2.90    1.29
   5  -2   2   13.24    1.73
  -5  -1   2  137.27    3.65
  -4  -1   2   26.34    1.86
  -3  -1   2  398.01    5.34
  -2  -1   2   60.08    1.33
  -1  -1   2  968.05    6.67
   0  -1   2  103.56    1.33
   1  -1   2  950.23    8.02
   2  -1   2   61.17    2.40
   3  -1   2  406.52    7.05
   4  -1   2   27.05    1.95
   5  -1   2  128.15    4.72
  -6   0   2    2.95    1.51
  -5   0   2   12.69    1.91
  -4   0   2    1.80    0.78
  -3   0   2   44.83    1.49
  -2   0   2    1.17    0.28
  -1   0   2  102.08    0.91
   0   0   2   -0.06    0.14
   1   0   2  103.07    1.59
   2   0   2    0.29    0.45
   3   0   2   39.94    1.79
   4   0   2    2.43    1.16
   5   0   2   15.15    2.15
   6   0   2    1.11    1.61
  -6   1   2   12.32    3.15
  -5   1   2  136.64    4.07
  -4   1   2   20.58    1.74
  -3   1   2  403.55    5.48
  -2   1   2   59.66    1.36
  -1   1   2  954.02    6.07
   0   1   2  103.97    1.13
   1   1   2  958.23    7.00
   2   1   2   58.79    2.06
   3   1   2  404.02    7.08
   4   1   2   25.29    2.38
   5   1   2  132.02    4.67
   6   1   2    6.45    2.64
  -5   2   2   11.57    1.78
  -4   2   2    3.42    1.00
  -3   2   2   34.08    1.66
  -2   2   2    1.69    0.39
  -1   2   2   62.03    1.10
   0   2   2    1.11    0.22
   1   2   2   60.26    1.63
   2   2   2    1.33    0.43
   3   2   2   31.11    1.85
   4   2   2    0.72    0.86
   5   2   2   14.23    2.19
  -5   3   2   84.27    4.76
  -4   3   2   16.64    1.67
  -3   3   2  226.75    4.04
  -2   3   2   30.97    1.13
  -1   3   2  397.88    3.73
   0   3   2   44.04    1.21
   1   3   2  407.29    4.40
   2   3   2   34.53    1.71
   3   3   2  225.16    5.27
   4   3   2   16.03    2.32
   5   3   2   87.02    4.59
  -4   4   2    3.10    1.22
  -3   4   2   11.77    1.53
  -2   4   2    2.85    0.75
  -1   4   2   24.34    1.14
   0   4   2    3.47    0.58
   1   4   2   24.53    1.30
   2   4   2    1.32    0.61
   3   4   2   16.05    1.51
   4   4   2    0.80    1.36
  -3   5   2   85.76    3.66
  -2   5   2    8.46    1.34
  -1   5   2  131.21    3.63
   0   5   2   15.80    1.54
   1   5   2  130.94    3.69
   2   5   2   11.28    1.50
   3   5   2   84.67    3.78
   0   6   2    3.28    1.63
  -3  -5   3    2.45    1.58
  -2  -5   3   16.14    1.87
  -1  -5   3    2.03    0.99
   0  -5   3   20.99    2.94
   1  -5   3    1.82    1.48
   2  -5   3   20.08    2.88
   3  -5   3    2.11    2.28
  -4  -4   3    1.88    1.41
  -3  -4   3   16.22    2.19
  -2  -4   3    0.67    0.76
  -1  -4   3   30.88    1.75
   0  -4   3    0.91    0.76
   1  -4   3   31.70    2.10
   2  -4   3   -0.39    1.33
   3  -4   3   24.18    2.96
   4  -4   3    2.21    1.89
  -5  -3   3   -1.52    1.52
  -4  -3   3   19.22    1.94
  -3  -3   3    1.68    0.82
  -2  -3   3   36.77    1.82
  -1  -3   3    4.01    0.77
   0  -3   3   49.82    1.39
   1  -3   3    4.34    0.81
   2  -3   3   40.40    2.29
   3  -3   3    1.52    1.01
   4  -3   3   23.37    2.79
   5  -3   3    1.35    1.86
  -5  -2   3   15.55    2.20
  -4  -2   3    0.88    0.86
  -3  -2   3   37.39    1.61
  -2  -2   3    0.29    0.43
  -1  -2   3   69.26    1.87
   0  -2   3    0.34    0.31
   1  -2   3   69.83    1.58
   2  -2   3    1.21    0.73
   3  -2   3   40.21    3.03
   4  -2   3    1.38    0.98
   5  -2   3   15.42    1.86
  -5  -1   3    1.56    0.93
  -4  -1   3   31.23    2.06
  -3  -1   3    3.20    0.67
  -2  -1   3   70.63    1.28
  -1  -1   3    9.97    0.54
   0  -1   3  107.39    1.86
   1  -1   3    9.71    0.64
   2  -1   3   67.07    1.99
   3  -1   3    3.54    0.87
   4  -1   3   32.34    2.10
   5  -1   3    0.68    1.26
  -6   0   3    1.84    2.42
  -5   0   3   13.68    1.89
  -4   0   3    0.73    0.68
  -3   0   3   50.89    2.02
  -2   0   3    0.45    0.27
  -1   0   3  106.97    0.96
   0   0   3    0.44    0.18
   1   0   3  104.53    1.45
   2   0   3   -0.01    0.43
   3   0   3   49.16    1.95
   4   0   3   -0.30    0.99
   5   0   3   21.14    2.46
   6   0   3   -0.15    1.99
  -6   1   3    8.74    3.00
  -5   1   3    3.01    1.12
  -4   1   3   26.72    1.97
  -3   1   3    4.03    0.67
  -2   1   3   69.38    1.46
  -1   1   3    9.10    0.53
   0   1   3  106.09    1.21
   1   1   3    9.14    0.59
   2   1   3   69.84    1.80
   3   1   3    2.76    0.99
   4   1   3   30.09    2.62
   5   1   3    4.59    1.60
   6   1   3    9.47    3.01
  -5   2   3   17.18    2.68
  -4   2   3    0.13    0.74
  -3   2   3   38.96    1.47
  -2   2   3    0.45    0.29
  -1   2   3   67.96    1.43
   0   2   3    0.78    0.24
   1   2   3   68.29    1.39
   2   2   3    0.30    0.37
   3   2   3   36.55    1.87
   4   2   3    0.86    0.88
   5   2   3   13.64    2.23
  -5   3   3    2.28    1.75
  -4   3   3   19.97    2.20
  -3   3   3    2.24    0.73
  -2   3   3   40.68    1.28
  -1   3   3    3.90    0.46
   0   3   3   51.03    1.12
   1   3   3    5.56    0.60
   2   3   3   37.76    1.85
   3   3   3    2.32    0.92
   4   3   3   20.89    2.49
   5   3   3    2.80    1.83
  -4   4   3    1.00    1.13
  -3   4   3   22.39    2.00
  -2   4   3    0.87    0.57
  -1   4   3   32.27    1.65
   0   4   3    0.90    0.52
   1   4   3   29.85    1.28
   2   4   3   -0.14    0.53
   3   4   3   20.51    1.77
   4   4   3    2.03    1.43
  -3   5   3    1.11    0.91
  -2   5   3   17.12    1.79
  -1   5   3    2.10    0.76
   0   5   3   16.74    1.58
   1   5   3    0.98    0.76
   2   5   3   19.11    1.94
   3   5   3    0.14    1.22
  -3  -5   4    0.12    1.52
  -2  -5   4   19.45    2.09
  -1  -5   4    0.63    1.01
   0  -5   4   26.50    3.26
   1  -5   4   -0.09    1.47
   2  -5   4   29.84    3.47
   3  -5   4    0.78    2.14
  -4  -4   4   39.54    3.54
  -3  -4   4   26.71    2.81
  -2  -4   4   85.85    2.97
  -1  -4   4   45.38    2.16
   0  -4   4  117.62    3.23
   1  -4   4   44.04    2.39
   2  -4   4   83.56    4.28
   3  -4   4   24.19    3.07
   4  -4   4   49.36    5.88
  -5  -3   4    0.33    1.56
  -4  -3   4   27.62    2.22
  -3  -3   4    1.73    0.90
  -2  -3   4   58.40    2.28
  -1  -3   4   11.34    1.15
   0  -3   4   77.74    2.34
   1  -3   4   11.44    1.23
   2  -3   4   58.21    2.45
   3  -3   4    2.08    1.37
   4  -3   4   33.10    3.19
   5  -3   4    0.98    1.91
  -5  -2   4   22.16    2.46
  -4  -2   4   90.09    3.04
  -3  -2   4   58.78    1.91
  -2  -2   4  237.61    3.40
  -1  -2   4  109.86    1.85
   0  -2   4  332.26    4.37
   1  -2   4  111.45    2.01
   2  -2   4  233.12    4.30
   3  -2   4   60.73    2.46
   4  -2   4   95.17    3.26
   5  -2   4   25.28    2.31
  -5  -1   4    1.83    1.05
  -4  -1   4   45.47    2.27
  -3  -1   4   12.45    0.92
  -2  -1   4  111.36    1.51
  -1  -1   4   38.74    1.01
   0  -1   4  161.84    1.96
   1  -1   4   37.32    1.07
   2  -1   4  106.83    2.47
   3  -1   4   13.13    1.38
   4  -1   4   45.85    2.53
   5  -1   4    3.02    1.53
  -6   0   4   39.58    4.88
  -5   0   4   27.43    2.65
  -4   0   4  119.39    3.35
  -3   0   4   76.51    1.80
  -2   0   4  331.22    2.40
  -1   0   4  160.18    1.43
   0   0   4  548.40    3.96
   1   0   4  158.86    1.93
   2   0   4  323.22    4.17
   3   0   4   77.61    2.43
   4   0   4  125.14    4.47
   5   0   4   28.39    2.85
  -5   1   4    2.54    1.15
  -4   1   4   51.04    2.36
  -3   1   4   11.84    1.00
  -2   1   4  111.17    1.88
  -1   1   4   37.70    0.88
   0   1   4  159.54    1.63
   1   1   4   37.07    0.95
   2   1   4  111.58    2.29
   3   1   4   11.94    1.58
   4   1   4   46.58    3.39
   5   1   4    0.40    1.11
  -5   2   4   20.33    2.85
  -4   2   4  101.09    4.03
  -3   2   4   60.75    1.81
  -2   2   4  231.12    2.90
  -1   2   4  106.56    1.88
   0   2   4  328.17    3.04
   1   2   4  108.72    1.88
   2   2   4  231.39    3.38
   3   2   4   56.63    2.19
   4   2   4   86.32    3.24
   5   2   4   19.46    2.66
  -5   3   4    0.65    1.64
  -4   3   4   30.43    2.75
  -3   3   4    4.58    0.89
  -2   3   4   57.89    1.80
  -1   3   4   13.34    0.96
   0   3   4   78.24    1.39
   1   3   4   12.79    0.76
   2   3   4   61.27    1.78
   3   3   4    3.91    1.08
   4   3   4   27.18    3.00
   5   3   4    1.20    1.71
  -4   4   4   44.99    3.49
  -3   4   4   28.77    2.38
  -2   4   4   95.83    2.58
  -1   4   4   44.86    1.63
   0   4   4  121.84    3.08
   1   4   4   42.65    1.96
   2   4   4   94.57    3.17
   3   4   4   28.70    2.11
   4   4   4   46.11    3.77
  -3   5   4    0.20    1.05
  -2   5   4   21.68    2.00
  -1   5   4    2.77    0.90
   0   5   4   26.14    1.99
   1   5   4    0.54    0.80
   2   5   4   23.67    2.15
   3   5   4    2.40    1.30
  -2  -5   5   21.12    2.18
  -1  -5   5    8.63    2.35
   0  -5   5   25.30    3.12
   1  -5   5    7.28    2.04
   2  -5   5   21.37    3.15
  -4  -4   5    0.44    1.52
  -3  -4   5   30.25    2.83
  -2  -4   5    0.09    0.80
  -1  -4   5   39.75    2.07
   0  -4   5    0.21    0.76
   1  -4   5   40.33    2.33
   2  -4   5    1.39    1.56
   3  -4   5   33.04    4.71
   4  -4   5   -0.03    2.93
  -4  -3   5   20.24    1.97
  -3  -3   5    7.63    1.36
  -2  -3   5   51.98    2.24
  -1  -3   5   12.52    1.24
   0  -3   5   72.50    2.31
   1  -3   5   12.91    1.31
   2  -3   5   60.18    2.49
   3  -3   5    9.86    1.79
   4  -3   5   29.54    3.17
   5  -3   5    9.47    2.50
  -5  -2   5   21.38    2.52
  -4  -2   5    0.50    0.93
  -3  -2   5   57.93    2.01
  -2  -2   5    2.24    0.70
  -1  -2   5   99.73    1.87
   0  -2   5    2.53    0.61
   1  -2   5   98.83    1.97
   2  -2   5    2.18    0.80
   3  -2   5   60.52    2.48
   4  -2   5    1.35    1.13
   5  -2   5   21.27    2.79
  -5  -1   5    6.75    1.62
  -4  -1   5   38.34    2.21
  -3  -1   5   12.30    0.80
  -2  -1   5   99.49    1.32
  -1  -1   5   23.13    0.73
   0  -1   5  141.50    2.01
   1  -1   5   21.86    1.16
   2  -1   5   99.79    2.12
   3  -1   5   14.01    1.47
   4  -1   5   38.15    2.44
   5  -1   5    7.97    2.05
  -5   0   5   25.84    2.16
  -4   0   5    0.87    0.80
  -3   0   5   74.94    1.59
  -2   0   5    3.45    0.35
  -1   0   5  142.24    1.55
   0   0   5    3.82    0.36
   1   0   5  138.55    1.89
   2   0   5    3.33    0.61
   3   0   5   68.85    2.38
   4   0   5   -0.66    1.11
   5   0   5   30.16    3.04
  -5   1   5    5.93    1.69
  -4   1   5   42.97    2.38
  -3   1   5   13.76    1.06
  -2   1   5   98.68    1.61
  -1   1   5   21.89    0.72
   0   1   5  139.86    1.98
   1   1   5   20.74    0.68
   2   1   5   99.94    2.17
   3   1   5   12.69    1.33
   4   1   5   42.62    2.61
   5   1   5    8.55    1.57
  -5   2   5   20.81    2.88
  -4   2   5    2.55    1.20
  -3   2   5   55.43    2.05
  -2   2   5    1.88    0.48
  -1   2   5  100.05    1.70
   0   2   5    2.34    0.35
   1   2   5   98.73    1.83
   2   2   5    2.31    0.55
   3   2   5   60.21    2.27
   4   2   5    0.76    0.99
   5   2   5   22.21    2.89
  -4   3   5   30.03    2.77
  -3   3   5    9.34    1.18
  -2   3   5   54.36    1.80
  -1   3   5   12.36    0.92
   0   3   5   72.83    1.71
   1   3   5   13.50    0.96
   2   3   5   55.68    1.79
   3   3   5   11.09    1.54
   4   3   5   22.75    2.66
   5   3   5    3.61    2.96
  -4   4   5   -1.12    1.09
  -3   4   5   30.65    2.17
  -2   4   5    1.11    0.63
  -1   4   5   44.30    1.67
   0   4   5    1.14    0.56
   1   4   5   40.80    1.96
   2   4   5    0.34    0.73
   3   4   5   31.04    2.68
   4   4   5    0.59    1.55
  -3   5   5    2.47    2.07
  -2   5   5   25.08    2.22
  -1   5   5    8.30    1.28
   0   5   5   28.49    2.11
   1   5   5    7.33    1.26
   2   5   5   26.35    2.32
   3   5   5    8.66    2.65
  -2  -5   6   12.19    1.77
  -1  -5   6   17.17    2.87
   0  -5   6   18.63    2.94
   1  -5   6   27.50    3.20
   2  -5   6   15.10    2.82
  -4  -4   6    8.09    3.01
  -3  -4   6   14.80    1.85
  -2  -4   6   17.17    1.78
  -1  -4   6   22.02    2.85
   0  -4   6   24.63    1.92
   1  -4   6   26.98    2.12
   2  -4   6   13.20    2.43
   3  -4   6   29.33    4.45
  -4  -3   6   15.39    2.32
  -3  -3   6   38.79    2.52
  -2  -3   6   39.27    2.13
  -1  -3   6   71.69    1.89
   0  -3   6   49.83    2.14
   1  -3   6   77.85    2.64
   2  -3   6   37.42    2.19
   3  -3   6   44.20    3.33
   4  -3   6   18.64    2.79
  -5  -2   6   12.24    2.30
  -4  -2   6   15.81    1.76
  -3  -2   6   38.65    1.84
  -2  -2   6   57.97    1.66
  -1  -2   6   64.68    2.05
   0  -2   6   86.46    2.35
   1  -2   6   67.53    1.71
   2  -2   6   54.28    2.24
   3  -2   6   44.41    3.27
   4  -2   6   19.75    2.64
   5  -2   6   16.60    2.80
  -5  -1   6   20.03    2.50
  -4  -1   6   29.90    1.97
  -3  -1   6   74.47    1.40
  -2  -1   6   67.07    1.28
  -1  -1   6  151.75    2.24
   0  -1   6   87.97    1.70
   1  -1   6  149.27    2.80
   2  -1   6   66.87    1.76
   3  -1   6   75.22    2.61
   4  -1   6   28.33    2.27
   5  -1   6   27.54    3.00
  -5   0   6   19.04    2.37
  -4   0   6   23.40    1.84
  -3   0   6   49.37    1.36
  -2   0   6   84.91    1.33
  -1   0   6   91.22    1.53
   0   0   6  131.69    1.77
   1   0   6   88.32    1.56
   2   0   6   84.08    2.08
   3   0   6   45.86    2.04
   4   0   6   21.89    2.44
   5   0   6   16.38    2.47
  -5   1   6   25.64    2.76
  -4   1   6   25.30    2.00
  -3   1   6   72.69    2.34
  -2   1   6   64.39    1.55
  -1   1   6  147.44    1.95
   0   1   6   87.78    1.65
   1   1   6  147.80    2.31
   2   1   6   66.34    1.80
   3   1   6   70.14    2.53
   4   1   6   31.31    2.37
   5   1   6   24.99    2.34
  -5   2   6   12.82    2.48
  -4   2   6   17.74    1.79
  -3   2   6   39.05    1.85
  -2   2   6   58.32    1.74
  -1   2   6   65.05    1.43
   0   2   6   82.36    1.49
   1   2   6   62.02    1.52
   2   2   6   58.92    1.76
   3   2   6   40.72    2.23
   4   2   6   17.67    1.91
   5   2   6   16.58    2.27
  -4   3   6   21.56    2.02
  -3   3   6   44.86    2.22
  -2   3   6   39.07    1.61
  -1   3   6   73.46    1.89
   0   3   6   47.17    1.44
   1   3   6   70.63    1.83
   2   3   6   39.50    1.61
   3   3   6   43.35    2.75
   4   3   6   19.21    2.52
  -4   4   6    2.60    2.03
  -3   4   6   16.73    1.65
  -2   4   6   16.25    1.40
  -1   4   6   30.25    1.74
   0   4   6   26.12    1.76
   1   4   6   33.51    2.19
   2   4   6   19.35    1.84
   3   4   6   18.81    2.28
   4   4   6    7.62    3.28
  -2   5   6   13.61    1.71
  -1   5   6   23.58    2.06
   0   5   6   18.89    1.82
   1   5   6   27.26    2.24
   2   5   6   14.53    1.90
  -2  -5   7   12.38    2.71
  -1  -5   7    9.89    2.58
   0  -5   7   15.74    2.81
   1  -5   7    8.79    2.14
   2  -5   7   12.11    2.92
  -3  -4   7   16.19    1.97
  -2  -4   7   30.86    2.37
  -1  -4   7   23.62    2.96
   0  -4   7   37.73    2.31
   1  -4   7   20.05    2.47
   2  -4   7   29.72    3.32
   3  -4   7   23.32    4.29
  -4  -3   7   13.80    2.27
  -3  -3   7   14.30    1.73
  -2  -3   7   33.41    2.27
  -1  -3   7   28.43    1.77
   0  -3   7   46.44    2.16
   1  -3   7   29.10    2.01
   2  -3   7   38.45    3.40
   3  -3   7   20.58    2.49
   4  -3   7   17.59    2.80
  -5  -2   7   17.05    2.44
  -4  -2   7   30.56    2.25
  -3  -2   7   33.57    2.23
  -2  -2   7   60.37    1.81
  -1  -2   7   62.42    2.19
   0  -2   7   78.40    2.42
   1  -2   7   59.21    1.70
   2  -2   7   65.54    2.47
   3  -2   7   39.81    3.14
   4  -2   7   38.09    3.58
   5  -2   7   16.83    2.85
  -5  -1   7    9.73    1.96
  -4  -1   7   26.38    1.89
  -3  -1   7   29.34    1.04
  -2  -1   7   62.66    1.34
  -1  -1   7   57.89    1.48
   0  -1   7   83.32    1.77
   1  -1   7   54.59    1.84
   2  -1   7   63.41    2.27
   3  -1   7   30.89    2.05
   4  -1   7   28.18    2.32
   5  -1   7    8.37    3.08
  -5   0   7   14.88    2.17
  -4   0   7   34.72    2.26
  -3   0   7   45.86    1.38
  -2   0   7   77.43    1.37
  -1   0   7   81.17    1.56
   0   0   7  101.23    1.64
   1   0   7   77.95    1.57
   2   0   7   72.45    1.79
   3   0   7   41.19    2.08
   4   0   7   38.34    3.13
   5   0   7   14.45    2.52
  -5   1   7    6.64    1.92
  -4   1   7   27.06    2.15
  -3   1   7   30.62    1.85
  -2   1   7   63.04    1.60
  -1   1   7   54.33    1.46
   0   1   7   78.66    1.68
   1   1   7   54.06    1.49
   2   1   7   61.21    1.51
   3   1   7   32.19    1.96
   4   1   7   26.15    2.80
   5   1   7    9.02    2.37
  -5   2   7   14.62    2.62
  -4   2   7   34.75    2.44
  -3   2   7   34.58    1.99
  -2   2   7   60.11    1.65
  -1   2   7   60.00    1.44
   0   2   7   74.75    1.50
   1   2   7   61.82    1.39
   2   2   7   62.31    1.87
   3   2   7   31.52    1.97
   4   2   7   30.57    3.03
   5   2   7   14.38    2.57
  -4   3   7   15.39    1.79
  -3   3   7   17.94    1.58
  -2   3   7   32.97    1.62
  -1   3   7   31.59    1.33
   0   3   7   45.77    1.48
   1   3   7   31.73    1.31
   2   3   7   34.17    1.57
   3   3   7   18.22    1.61
   4   3   7   18.72    3.82
  -3   4   7   17.66    1.69
  -2   4   7   35.47    2.03
  -1   4   7   27.40    1.65
   0   4   7   40.35    1.67
   1   4   7   26.87    2.03
   2   4   7   34.49    2.39
   3   4   7   16.00    2.28
  -2   5   7   11.41    1.68
  -1   5   7   10.19    1.52
   0   5   7   17.74    1.79
   1   5   7    7.65    1.33
   2   5   7   16.92    2.16
  -1  -5   8    9.30    2.60
   0  -5   8    4.29    2.25
   1  -5   8   15.36    2.91
  -3  -4   8    6.68    1.58
  -2  -4   8   16.96    2.89
  -1  -4   8    5.74    1.88
   0  -4   8   21.11    1.90
   1  -4   8   11.86    2.25
   2  -4   8   19.59    2.96
   3  -4   8    7.99    3.44
  -4  -3   8    8.53    2.01
  -3  -3   8   18.53    1.94
  -2  -3   8    8.36    2.06
  -1  -3   8   45.70    2.30
   0  -3   8   13.65    1.51
   1  -3   8   49.22    2.45
   2  -3   8   11.36    2.08
   3  -3   8   23.17    2.61
   4  -3   8   11.91    2.49
  -4  -2   8   13.70    2.18
  -3  -2   8   12.12    1.62
  -2  -2   8   40.06    2.03
  -1  -2   8   20.35    1.56
   0  -2   8   59.70    2.34
   1  -2   8   21.40    1.23
   2  -2   8   44.32    2.22
   3  -2   8   12.48    2.11
   4  -2   8   23.37    2.93
   5  -2   8    8.29    3.95
  -4  -1   8   11.54    1.43
  -3  -1   8   47.52    1.59
  -2  -1   8   20.51    1.21
  -1  -1   8  101.91    2.10
   0  -1   8   27.22    1.30
   1  -1   8  103.42    2.58
   2  -1   8   21.37    1.65
   3  -1   8   50.32    3.22
   4  -1   8    8.24    2.02
   5  -1   8   14.66    3.92
  -5   0   8    7.55    2.05
  -4   0   8   24.58    2.05
  -3   0   8   14.50    1.06
  -2   0   8   64.39    1.69
  -1   0   8   27.35    1.01
   0   0   8   89.02    1.64
   1   0   8   27.70    1.08
   2   0   8   64.69    1.73
   3   0   8   16.10    1.54
   4   0   8   24.26    2.80
   5   0   8    7.93    2.22
  -5   1   8   12.35    2.28
  -4   1   8   14.15    1.64
  -3   1   8   48.58    1.82
  -2   1   8   18.52    1.11
  -1   1   8   98.25    2.05
   0   1   8   25.78    1.13
   1   1   8   97.54    2.12
   2   1   8   17.16    1.26
   3   1   8   52.20    2.79
   4   1   8   13.05    2.12
   5   1   8   16.27    2.86
  -4   2   8   15.27    1.74
  -3   2   8   12.73    1.32
  -2   2   8   44.17    1.55
  -1   2   8   21.76    1.30
   0   2   8   65.71    1.83
   1   2   8   21.59    1.30
   2   2   8   42.22    2.13
   3   2   8   16.43    1.87
   4   2   8   18.95    2.61
   5   2   8    6.05    3.07
  -4   3   8    5.79    1.47
  -3   3   8   23.08    1.83
  -2   3   8   14.33    1.28
  -1   3   8   48.96    1.71
   0   3   8   14.95    1.24
   1   3   8   48.48    2.11
   2   3   8   13.60    1.64
   3   3   8   26.46    2.50
   4   3   8   13.66    3.44
  -3   4   8    8.45    1.36
  -2   4   8   19.76    1.63
  -1   4   8    8.08    1.08
   0   4   8   24.44    1.99
   1   4   8   11.77    2.01
   2   4   8   18.83    2.75
   3   4   8    6.56    2.71
  -1   5   8   12.18    2.43
   0   5   8    6.89    1.86
   1   5   8   15.08    2.58
   0  -5   9    0.21    2.51
   1  -5   9   28.42    4.13
  -3  -4   9    4.37    3.31
  -2  -4   9   22.74    3.50
  -1  -4   9    1.86    1.80
   0  -4   9   33.20    2.45
   1  -4   9    4.19    1.88
   2  -4   9   28.59    3.48
  -4  -3   9    3.33    1.85
  -3  -3   9   42.25    4.00
  -2  -3   9    2.84    1.81
  -1  -3   9   76.94    3.01
   0  -3   9    4.45    1.13
   1  -3   9   75.78    3.05
   2  -3   9    6.16    1.96
   3  -3   9   53.53    5.91
   4  -3   9    1.05    2.89
  -4  -2   9   24.26    2.57
  -3  -2   9    4.26    1.85
  -2  -2   9   63.05    2.61
  -1  -2   9    3.51    1.02
   0  -2   9   82.30    2.83
   1  -2   9    8.05    1.09
   2  -2   9   60.28    2.65
   3  -2   9    0.40    1.47
   4  -2   9   26.78    3.13
  -3  -1   9   79.44    2.44
  -2  -1   9    7.48    0.89
  -1  -1   9  125.11    2.50
   0  -1   9   10.22    1.04
   1  -1   9  124.07    3.05
   2  -1   9    8.07    1.16
   3  -1   9   77.19    3.71
   4  -1   9    3.39    1.97
  -5   0   9    3.48    2.87
  -4   0   9   41.10    3.18
  -3   0   9    7.20    1.07
  -2   0   9   84.23    2.01
  -1   0   9   10.32    0.77
   0   0   9  108.67    1.93
   1   0   9    8.76    0.74
   2   0   9   81.64    2.27
   3   0   9    1.91    0.93
   4   0   9   33.88    3.21
  -4   1   9    5.23    1.63
  -3   1   9   77.29    2.56
  -2   1   9    6.19    0.85
  -1   1   9  122.91    2.42
   0   1   9    8.73    0.80
   1   1   9  121.66    2.46
   2   1   9    6.16    0.88
   3   1   9   82.58    3.41
   4   1   9    3.95    1.75
   5   1   9   40.30    5.56
  -4   2   9   23.00    2.50
  -3   2   9    4.34    1.16
  -2   2   9   60.00    2.10
  -1   2   9    5.27    0.75
   0   2   9   77.46    2.10
   1   2   9    5.84    0.81
   2   2   9   65.97    2.70
   3   2   9    4.77    1.38
   4   2   9   24.29    2.90
  -3   3   9   54.64    2.98
  -2   3   9    2.01    0.97
  -1   3   9   77.07    2.76
   0   3   9    3.76    0.80
   1   3   9   74.80    2.77
   2   3   9    2.97    1.03
   3   3   9   58.73    3.54
  -3   4   9    1.31    2.26
  -2   4   9   32.44    2.52
  -1   4   9    2.29    1.03
   0   4   9   34.12    2.37
   1   4   9    3.13    1.58
   2   4   9   33.29    3.74
  -2  -4  10    7.27    2.52
  -1  -4  10    1.91    2.01
   0  -4  10   17.08    2.00
   1  -4  10   10.13    2.31
   2  -4  10    9.53    2.83
  -3  -3  10   13.03    2.78
  -2  -3  10    4.90    2.13
  -1  -3  10   33.91    2.24
   0  -3  10    7.77    1.44
   1  -3  10   28.53    2.35
   2  -3  10    4.98    2.12
   3  -3  10   13.12    4.04
  -4  -2  10    6.25    3.67
  -3  -2  10    4.32    2.06
  -2  -2  10   27.49    2.12
  -1  -2  10    7.19    1.20
   0  -2  10   40.46    2.19
   1  -2  10    8.44    1.16
   2  -2  10   34.55    2.24
   3  -2  10    7.41    1.90
   4  -2  10   16.50    2.92
  -3  -1  10   31.62    2.58
  -2  -1  10   10.19    1.12
  -1  -1  10   57.98    2.01
   0  -1  10   10.10    1.11
   1  -1  10   61.69    2.41
   2  -1  10    6.23    1.19
   3  -1  10   28.59    2.78
   4  -1  10    7.72    2.32
  -4   0  10   11.78    2.72
  -3   0  10   10.26    1.45
  -2   0  10   44.73    1.99
  -1   0  10    9.99    1.09
   0   0  10   59.07    2.17
   1   0  10   11.23    1.23
   2   0  10   41.38    2.59
   3   0  10    5.18    1.74
   4   0  10   17.79    3.84
  -4   1  10    3.26    1.60
  -3   1  10   30.83    2.01
  -2   1  10   10.19    1.05
  -1   1  10   63.63    1.86
   0   1  10   11.07    0.93
   1   1  10   59.46    1.87
   2   1  10    8.09    1.08
   3   1  10   32.68    2.68
   4   1  10    1.46    1.75
  -4   2  10   12.07    2.09
  -3   2  10    7.47    1.44
  -2   2  10   32.28    1.82
  -1   2  10    8.85    0.95
   0   2  10   41.53    1.70
   1   2  10    7.87    1.01
   2   2  10   30.47    2.21
   3   2  10    6.82    1.50
   4   2  10   13.94    2.39
  -3   3  10   15.99    1.99
  -2   3  10    5.19    1.20
  -1   3  10   30.51    1.79
   0   3  10    6.36    1.00
   1   3  10   27.93    2.12
   2   3  10    7.15    1.39
   3   3  10   16.91    2.37
  -2   4  10    9.09    1.66
  -1   4  10    5.36    1.27
   0   4  10   16.58    1.84
   1   4  10    4.59    1.34
   2   4  10   11.65    2.65
  -1  -4  11    1.11    1.90
   0  -4  11   37.91    2.81
   1  -4  11   -1.41    1.93
   2  -4  11   20.10    6.98
  -3  -3  11   20.96    3.40
  -2  -3  11    3.81    2.18
  -1  -3  11   34.98    2.47
   0  -3  11    3.46    1.29
   1  -3  11   35.74    3.48
   2  -3  11    1.96    1.93
   3  -3  11   18.07    4.23
  -4  -2  11   26.41    5.12
  -3  -2  11    2.35    2.01
  -2  -2  11   54.37    2.79
  -1  -2  11    2.26    1.14
   0  -2  11   66.36    3.68
   1  -2  11    2.92    1.05
   2  -2  11   63.63    3.34
   3  -2  11    2.38    1.77
  -3  -1  11   33.93    2.68
  -2  -1  11    2.70    0.89
  -1  -1  11   62.74    2.21
   0  -1  11    2.56    0.80
   1  -1  11   62.88    2.58
   2  -1  11    2.51    1.14
   3  -1  11   36.54    3.21
   4  -1  11    4.14    2.60
  -4   0  11   39.16    3.12
  -3   0  11    2.01    1.17
  -2   0  11   72.90    2.64
  -1   0  11    3.94    0.91
   0   0  11   87.73    2.68
   1   0  11    3.52    0.95
   2   0  11   78.53    3.52
   3   0  11    0.36    1.30
   4   0  11   37.60    5.31
  -4   1  11    0.81    1.64
  -3   1  11   36.11    2.18
  -2   1  11    4.58    0.86
  -1   1  11   64.68    1.98
   0   1  11    1.62    0.62
   1   1  11   64.00    2.04
   2   1  11    4.28    0.94
   3   1  11   31.49    2.63
   4   1  11    1.16    2.55
  -3   2  11    2.93    1.21
  -2   2  11   58.44    2.32
  -1   2  11    2.67    0.76
   0   2  11   73.06    2.27
   1   2  11    3.92    0.83
   2   2  11   60.28    2.87
   3   2  11    0.89    1.37
   4   2  11   36.60    5.24
  -3   3  11   22.64    2.44
  -2   3  11    1.96    1.04
  -1   3  11   38.22    2.03
   0   3  11    1.37    0.84
   1   3  11   34.42    2.42
   2   3  11    3.07    1.20
   3   3  11   20.50    2.47
  -1   4  11    2.27    1.18
   0   4  11   36.40    2.67
   1   4  11   -1.60    1.03
   0  -4  12   10.46    2.28
  -2  -3  12    5.27    2.28
  -1  -3  12   13.51    1.82
   0  -3  12    6.35    1.90
   1  -3  12   13.39    2.72
   2  -3  12    7.71    3.03
  -3  -2  12    5.23    2.36
  -2  -2  12   25.11    2.23
  -1  -2  12   10.44    1.93
   0  -2  12   32.37    2.95
   1  -2  12   12.62    2.32
   2  -2  12   27.08    2.68
   3  -2  12   10.07    2.33
  -3  -1  12   11.76    2.02
  -2  -1  12   10.62    1.81
  -1  -1  12   22.70    1.71
   0  -1  12   13.18    1.45
   1  -1  12   24.79    1.99
   2  -1  12   11.90    1.83
   3  -1  12   14.46    2.41
  -4   0  12   15.08    3.61
  -3   0  12    9.03    1.63
  -2   0  12   31.48    2.08
  -1   0  12   11.96    1.35
   0   0  12   49.76    2.20
   1   0  12   12.83    1.45
   2   0  12   37.40    2.95
   3   0  12    9.07    1.95
  -3   1  12   12.27    1.84
  -2   1  12   10.24    1.55
  -1   1  12   25.92    2.11
   0   1  12   12.86    1.58
   1   1  12   21.09    1.98
   2   1  12    8.44    1.71
   3   1  12   11.25    3.02
  -3   2  12    6.41    1.70
  -2   2  12   25.43    1.80
  -1   2  12   11.49    1.22
   0   2  12   39.60    1.86
   1   2  12    8.84    1.11
   2   2  12   27.19    2.32
   3   2  12    8.74    2.01
  -2   3  12    7.70    1.50
  -1   3  12   13.52    1.50
   0   3  12    8.56    1.27
   1   3  12   15.69    1.85
   2   3  12    5.82    1.60
   0   4  12   11.77    2.76
  -1  -3  13   18.15    2.71
   0  -3  13    9.71    2.36
   1  -3  13   15.55    2.86
  -2  -2  13   14.17    2.17
  -1  -2  13   12.04    2.11
   0  -2  13   10.02    2.29
   1  -2  13    9.87    2.30
   2  -2  13   13.36    3.64
   3  -2  13   13.93    3.35
  -3  -1  13   16.93    2.59
  -2  -1  13   16.28    2.29
  -1  -1  13   20.58    1.76
   0  -1  13   18.77    1.75
   1  -1  13   21.64    2.07
   2  -1  13   12.84    2.13
   3  -1  13   20.21    2.86
  -3   0  13    7.57    1.63
  -2   0  13   14.52    1.63
  -1   0  13   14.94    1.57
   0   0  13   17.76    1.73
   1   0  13   16.80    1.81
   2   0  13   18.47    2.35
   3   0  13    9.95    3.15
  -3   1  13   17.53    2.29
  -2   1  13   17.16    1.96
  -1   1  13   21.24    2.07
   0   1  13   16.13    1.83
   1   1  13   24.80    2.27
   2   1  13    8.72    2.39
   3   1  13   14.07    3.45
  -2   2  13   11.86    1.48
  -1   2  13   12.74    1.41
   0   2  13   13.62    1.34
   1   2  13   11.24    1.52
   2   2  13   11.38    1.88
  -1   3  13   18.63    1.81
   0   3  13    9.71    1.44
   1   3  13   14.82    1.93
  -2  -2  14   18.37    2.97
  -1  -2  14   17.86    2.65
   0  -2  14   18.51    2.89
   1  -2  14   14.29    2.86
  -2  -1  14    9.91    2.12
  -1  -1  14   13.10    2.30
   0  -1  14   18.03    1.82
   1  -1  14   17.03    1.99
   2  -1  14   10.00    2.09
  -2   0  14   19.08    2.05
  -1   0  14   15.49    1.73
   0   0  14   26.61    2.19
   1   0  14   13.66    1.78
   2   0  14   18.32    2.56
  -2   1  14   12.66    1.95
  -1   1  14   13.28    1.80
   0   1  14   17.60    2.08
   1   1  14   13.03    1.97
   2   1  14   11.19    2.64
  -1   2  14   14.49    2.12
   0   2  14   22.38    2.49
   1   2  14    6.83    2.28
  -1  -1  15    1.13    1.83
   0  -1  15   10.97    2.45
   1  -1  15    1.91    1.53
  -2   0  15    4.15    2.15
  -1   0  15   13.62    1.81
   0   0  15    5.19    1.54
   1   0  15   11.81    2.07
   2   0  15    5.90    3.74
  -1   1  15    2.85    1.57
   0   1  15   15.47    2.09
   1   1  15    1.93    1.46
   0   2  15    1.06    3.26
   0   0   0    0.00    0.00
;
_shelx_hkl_checksum              9506
loop_
_space_group_symop_operation_xyz
'x, y, z'
'-x+1/2, -y+1/2, z'
'-y+1/2, x, z'
'y, -x+1/2, z'
'-x, y+1/2, -z'
'x+1/2, -y, -z'
'y+1/2, x+1/2, -z'
'-y, -x, -z'
'-x, -y, -z'
'x-1/2, y-1/2, -z'
'y-1/2, -x, -z'
'-y, x-1/2, -z'
'x, -y-1/2, z'
'-x-1/2, y, z'
'-y-1/2, -x-1/2, z'
'y, x, z'
loop_
_atom_site_label
_atom_site_type_symbol
_atom_site_fract_x
_atom_site_fract_y
_atom_site_fract_z
_atom_site_U_iso_or_equiv
_atom_site_adp_type
_atom_site_occupancy
_atom_site_site_symmetry_order
_atom_site_calc_flag
_atom_site_refinement_flags_posn
_atom_site_refinement_flags_adp
_atom_site_refinement_flags_occupancy
_atom_site_disorder_assembly
_atom_site_disorder_group
Nd Nd 0.2500 0.2500 0.22570(8) 0.01200(18) Uani 1 8 d S T P . .
Ag Ag 0.7500 0.2500 0.5000 0.0110(3) Uani 0.5 8 d S T P . .
Zn Zn 0.7500 0.2500 0.5000 0.0110(3) Uani 0.5 8 d S T P . .
As1 As 0.2500 0.2500 0.67463(15) 0.0134(3) Uani 1 8 d S T P . .
As2 As 0.7500 0.2500 0.0000 0.0198(4) Uani 1 8 d S T P . .
loop_
_atom_site_aniso_label
_atom_site_aniso_U_11
_atom_site_aniso_U_22
_atom_site_aniso_U_33
_atom_site_aniso_U_23
_atom_site_aniso_U_13
_atom_site_aniso_U_12
Nd 0.0107(2) 0.0107(2) 0.0146(3) 0.000 0.000 0.000
Ag 0.0104(4) 0.0104(4) 0.0122(5) 0.000 0.000 0.000
Zn 0.0104(4) 0.0104(4) 0.0122(5) 0.000 0.000 0.000
As1 0.0119(4) 0.0119(4) 0.0165(7) 0.000 0.000 0.000
As2 0.0232(6) 0.0232(6) 0.0129(6) 0.000 0.000 0.000
loop_
_atom_type_symbol
_atom_type_description
_atom_type_scat_dispersion_real
_atom_type_scat_dispersion_imag
_atom_type_scat_source
Zn Zn 0.2839 1.4301 'International Tables Vol C Tables 4.2.6.8 and 6.1.1.4'
As As 0.0499 2.0058 'International Tables Vol C Tables 4.2.6.8 and 6.1.1.4'
Ag Ag -0.8971 1.1015 'International Tables Vol C Tables 4.2.6.8 and 6.1.1.4'
Nd Nd -0.1943 3.0179 'International Tables Vol C Tables 4.2.6.8 and 6.1.1.4'
loop_
_geom_angle_atom_site_label_1
_geom_angle_atom_site_label_2
_geom_angle_atom_site_label_3
_geom_angle
_geom_angle_site_symmetry_1
_geom_angle_site_symmetry_3
As1 Nd As1 140.35(6) 9_666 9_556
As1 Nd As1 83.39(2) 9_666 9_566
As1 Nd As1 83.39(2) 9_556 9_566
As1 Nd As1 83.39(2) 9_666 9_656
As1 Nd As1 83.39(2) 9_556 9_656
As1 Nd As1 140.35(6) 9_566 9_656
As1 Nd As2 133.78(3) 9_666 9_655
As1 Nd As2 79.68(3) 9_556 9_655
As1 Nd As2 133.78(3) 9_566 9_655
As1 Nd As2 79.68(3) 9_656 9_655
As1 Nd As2 133.78(3) 9_666 1_455
As1 Nd As2 79.68(3) 9_556 1_455
As1 Nd As2 79.68(3) 9_566 1_455
As1 Nd As2 133.78(3) 9_656 1_455
As2 Nd As2 55.156(13) 9_655 1_455
As1 Nd As2 79.68(3) 9_666 9_665
As1 Nd As2 133.78(3) 9_556 9_665
As1 Nd As2 79.68(3) 9_566 9_665
As1 Nd As2 133.78(3) 9_656 9_665
As2 Nd As2 81.80(2) 9_655 9_665
As2 Nd As2 55.156(13) 1_455 9_665
As1 Nd As2 79.68(3) 9_666 .
As1 Nd As2 133.78(3) 9_556 .
As1 Nd As2 133.78(3) 9_566 .
As1 Nd As2 79.68(3) 9_656 .
As2 Nd As2 55.156(13) 9_655 .
As2 Nd As2 81.80(2) 1_455 .
As2 Nd As2 55.156(13) 9_665 .
As1 Nd Ag 48.53(2) 9_666 .
As1 Nd Ag 96.31(3) 9_556 .
As1 Nd Ag 96.31(3) 9_566 .
As1 Nd Ag 48.53(2) 9_656 .
As2 Nd Ag 127.991(6) 9_655 .
As2 Nd Ag 174.579(17) 1_455 .
As2 Nd Ag 127.991(6) 9_665 .
As2 Nd Ag 103.624(10) . .
As1 Nd Ag 48.53(2) 9_666 9_666
As1 Nd Ag 96.31(3) 9_556 9_666
As1 Nd Ag 48.53(2) 9_566 9_666
As1 Nd Ag 96.31(3) 9_656 9_666
As2 Nd Ag 174.579(17) 9_655 9_666
As2 Nd Ag 127.991(6) 1_455 9_666
As2 Nd Ag 103.624(10) 9_665 9_666
As2 Nd Ag 127.991(6) . 9_666
Ag Nd Ag 48.459(11) . 9_666
As1 Nd Zn 48.53(2) 9_666 9_666
As1 Nd Zn 96.31(3) 9_556 9_666
As1 Nd Zn 48.53(2) 9_566 9_666
As1 Nd Zn 96.31(3) 9_656 9_666
As2 Nd Zn 174.579(17) 9_655 9_666
As2 Nd Zn 127.991(6) 1_455 9_666
As2 Nd Zn 103.624(10) 9_665 9_666
As2 Nd Zn 127.991(6) . 9_666
Ag Nd Zn 48.459(11) . 9_666
Ag Nd Zn 0.0 9_666 9_666
As1 Ag As1 116.35(3) 9_656 1_655
As1 Ag As1 96.45(5) 9_656 9_666
As1 Ag As1 116.35(3) 1_655 9_666
As1 Ag As1 116.35(3) 9_656 .
As1 Ag As1 96.45(5) 1_655 .
As1 Ag As1 116.35(3) 9_666 .
As1 Ag Zn 121.827(14) 9_656 9_766
As1 Ag Zn 58.173(14) 1_655 9_766
As1 Ag Zn 58.173(14) 9_666 9_766
As1 Ag Zn 121.827(14) . 9_766
As1 Ag Zn 58.173(14) 9_656 9_656
As1 Ag Zn 121.827(14) 1_655 9_656
As1 Ag Zn 121.827(14) 9_666 9_656
As1 Ag Zn 58.173(14) . 9_656
Zn Ag Zn 180.0 9_766 9_656
As1 Ag Ag 58.173(14) 9_656 9_656
As1 Ag Ag 121.827(14) 1_655 9_656
As1 Ag Ag 121.827(14) 9_666 9_656
As1 Ag Ag 58.173(14) . 9_656
Zn Ag Ag 180.0 9_766 9_656
Zn Ag Ag 0.0 9_656 9_656
As1 Ag Ag 121.827(14) 9_656 9_766
As1 Ag Ag 58.173(14) 1_655 9_766
As1 Ag Ag 58.173(14) 9_666 9_766
As1 Ag Ag 121.827(14) . 9_766
Zn Ag Ag 0.0 9_766 9_766
Zn Ag Ag 180.0 9_656 9_766
Ag Ag Ag 180.0 9_656 9_766
As1 Ag Zn 121.827(14) 9_656 9_666
As1 Ag Zn 121.827(14) 1_655 9_666
As1 Ag Zn 58.173(14) 9_666 9_666
As1 Ag Zn 58.173(14) . 9_666
Zn Ag Zn 90.0 9_766 9_666
Zn Ag Zn 90.0 9_656 9_666
Ag Ag Zn 90.0 9_656 9_666
Ag Ag Zn 90.0 9_766 9_666
As1 Ag Ag 121.827(14) 9_656 9_666
As1 Ag Ag 121.827(14) 1_655 9_666
As1 Ag Ag 58.173(14) 9_666 9_666
As1 Ag Ag 58.173(14) . 9_666
Zn Ag Ag 90.0 9_766 9_666
Zn Ag Ag 90.0 9_656 9_666
Ag Ag Ag 90.0 9_656 9_666
Ag Ag Ag 90.0 9_766 9_666
Zn Ag Ag 0.0 9_666 9_666
As1 Ag Ag 58.173(14) 9_656 9_756
As1 Ag Ag 58.173(14) 1_655 9_756
As1 Ag Ag 121.827(14) 9_666 9_756
As1 Ag Ag 121.827(14) . 9_756
Zn Ag Ag 90.0 9_766 9_756
Zn Ag Ag 90.0 9_656 9_756
Ag Ag Ag 90.0 9_656 9_756
Ag Ag Ag 90.0 9_766 9_756
Zn Ag Ag 180.0 9_666 9_756
Ag Ag Ag 180.0 9_666 9_756
As1 Ag Zn 58.173(14) 9_656 9_756
As1 Ag Zn 58.173(14) 1_655 9_756
As1 Ag Zn 121.827(14) 9_666 9_756
As1 Ag Zn 121.827(14) . 9_756
Zn Ag Zn 90.0 9_766 9_756
Zn Ag Zn 90.0 9_656 9_756
Ag Ag Zn 90.0 9_656 9_756
Ag Ag Zn 90.0 9_766 9_756
Zn Ag Zn 180.0 9_666 9_756
Ag Ag Zn 180.0 9_666 9_756
Ag Ag Zn 0.0 9_756 9_756
Zn As1 Zn 63.65(3) 9_656 1_455
Zn As1 Ag 0.0 9_656 9_656
Zn As1 Ag 63.65(3) 1_455 9_656
Zn As1 Ag 63.65(3) 9_656 1_455
Zn As1 Ag 0.0 1_455 1_455
Ag As1 Ag 63.65(3) 9_656 1_455
Zn As1 Zn 96.45(5) 9_656 9_666
Zn As1 Zn 63.65(3) 1_455 9_666
Ag As1 Zn 96.45(5) 9_656 9_666
Ag As1 Zn 63.65(3) 1_455 9_666
Zn As1 Ag 63.65(3) 9_656 .
Zn As1 Ag 96.45(5) 1_455 .
Ag As1 Ag 63.65(3) 9_656 .
Ag As1 Ag 96.45(5) 1_455 .
Zn As1 Ag 63.65(3) 9_666 .
Zn As1 Ag 96.45(5) 9_656 9_666
Zn As1 Ag 63.65(3) 1_455 9_666
Ag As1 Ag 96.45(5) 9_656 9_666
Ag As1 Ag 63.65(3) 1_455 9_666
Zn As1 Ag 0.0 9_666 9_666
Ag As1 Ag 63.65(3) . 9_666
Zn As1 Nd 136.22(3) 9_656 9_666
Zn As1 Nd 136.22(3) 1_455 9_666
Ag As1 Nd 136.22(3) 9_656 9_666
Ag As1 Nd 136.22(3) 1_455 9_666
Zn As1 Nd 74.327(14) 9_666 9_666
Ag As1 Nd 74.327(14) . 9_666
Ag As1 Nd 74.327(14) 9_666 9_666
Zn As1 Nd 74.327(14) 9_656 9_556
Zn As1 Nd 74.327(14) 1_455 9_556
Ag As1 Nd 74.327(14) 9_656 9_556
Ag As1 Nd 74.327(14) 1_455 9_556
Zn As1 Nd 136.22(3) 9_666 9_556
Ag As1 Nd 136.22(3) . 9_556
Ag As1 Nd 136.22(3) 9_666 9_556
Nd As1 Nd 140.35(6) 9_666 9_556
Zn As1 Nd 136.22(3) 9_656 9_566
Zn As1 Nd 74.327(14) 1_455 9_566
Ag As1 Nd 136.22(3) 9_656 9_566
Ag As1 Nd 74.327(14) 1_455 9_566
Zn As1 Nd 74.327(14) 9_666 9_566
Ag As1 Nd 136.22(3) . 9_566
Ag As1 Nd 74.327(14) 9_666 9_566
Nd As1 Nd 83.39(2) 9_666 9_566
Nd As1 Nd 83.39(2) 9_556 9_566
Zn As1 Nd 74.327(14) 9_656 9_656
Zn As1 Nd 136.22(3) 1_455 9_656
Ag As1 Nd 74.327(14) 9_656 9_656
Ag As1 Nd 136.22(3) 1_455 9_656
Zn As1 Nd 136.22(3) 9_666 9_656
Ag As1 Nd 74.327(14) . 9_656
Ag As1 Nd 136.22(3) 9_666 9_656
Nd As1 Nd 83.39(2) 9_666 9_656
Nd As1 Nd 83.39(2) 9_556 9_656
Nd As1 Nd 140.35(6) 9_566 9_656
As2 As2 As2 180.0 9_765 9_655
As2 As2 As2 90.0 9_765 9_665
As2 As2 As2 90.0 9_655 9_665
As2 As2 As2 90.0 9_765 9_755
As2 As2 As2 90.0 9_655 9_755
As2 As2 As2 180.0 9_665 9_755
As2 As2 Nd 117.578(7) 9_765 9_655
As2 As2 Nd 62.422(6) 9_655 9_655
As2 As2 Nd 117.578(7) 9_665 9_655
As2 As2 Nd 62.422(6) 9_755 9_655
As2 As2 Nd 62.422(7) 9_765 1_655
As2 As2 Nd 117.578(7) 9_655 1_655
As2 As2 Nd 117.578(7) 9_665 1_655
As2 As2 Nd 62.422(7) 9_755 1_655
Nd As2 Nd 124.843(13) 9_655 1_655
As2 As2 Nd 62.422(6) 9_765 9_665
As2 As2 Nd 117.578(7) 9_655 9_665
As2 As2 Nd 62.422(6) 9_665 9_665
As2 As2 Nd 117.578(7) 9_755 9_665
Nd As2 Nd 81.80(2) 9_655 9_665
Nd As2 Nd 124.843(13) 1_655 9_665
As2 As2 Nd 117.578(6) 9_765 .
As2 As2 Nd 62.422(6) 9_655 .
As2 As2 Nd 62.422(6) 9_665 .
As2 As2 Nd 117.578(6) 9_755 .
Nd As2 Nd 124.843(13) 9_655 .
Nd As2 Nd 81.80(2) 1_655 .
Nd As2 Nd 124.843(13) 9_665 .
loop_
_geom_bond_atom_site_label_1
_geom_bond_atom_site_label_2
_geom_bond_distance
_geom_bond_site_symmetry_2
Nd As1 3.0438(7) 9_666
Nd As1 3.0438(7) 9_556
Nd As1 3.0438(7) 9_566
Nd As1 3.0438(7) 9_656
Nd As2 3.0925(7) 9_655
Nd As2 3.0925(7) 1_455
Nd As2 3.0925(7) 9_665
Nd As2 3.0925(7) .
Nd Ag 3.4887(7) .
Nd Ag 3.4887(7) 9_666
Nd Zn 3.4887(7) 9_666
Ag As1 2.7149(11) 9_656
Ag As1 2.7149(11) 1_655
Ag As1 2.7149(11) 9_666
Ag As1 2.7149(11) .
Ag Zn 2.8634(4) 9_766
Ag Zn 2.8634(4) 9_656
Ag Ag 2.8634(4) 9_656
Ag Ag 2.8634(4) 9_766
Ag Zn 2.8634(3) 9_666
Ag Ag 2.8634(3) 9_666
Ag Ag 2.8634(4) 9_756
Ag Zn 2.8634(4) 9_756
As1 Zn 2.7149(11) 9_656
As1 Zn 2.7149(11) 1_455
As1 Ag 2.7149(11) 9_656
As1 Ag 2.7149(11) 1_455
As1 Zn 2.7149(11) 9_666
As1 Ag 2.7149(11) 9_666
As1 Nd 3.0439(7) 9_666
As1 Nd 3.0439(7) 9_556
As1 Nd 3.0439(7) 9_566
As1 Nd 3.0439(7) 9_656
As2 As2 2.8634(4) 9_765
As2 As2 2.8634(3) 9_655
As2 As2 2.8634(3) 9_665
As2 As2 2.8634(4) 9_755
As2 Nd 3.0925(7) 9_655
As2 Nd 3.0925(7) 1_655
As2 Nd 3.0925(7) 9_665
