#------------------------------------------------------------------------------
#$Date: 2021-04-14 12:45:17 +0300 (Wed, 14 Apr 2021) $
#$Revision: 264144 $
#$URL: file:///home/coder/svn-repositories/cod/cif/1/56/17/1561749.cif $
#------------------------------------------------------------------------------
#
# This file is available in the Crystallography Open Database (COD),
# http://www.crystallography.net/
#
# All data on this site have been placed in the public domain by the
# contributors.
#
data_1561749
loop_
_publ_author_name
'Bykova, E.'
'Gou, H.'
'Bykov, M.'
'Hanfland, M.'
'Dubrovinsky, L.'
'Dubrovinskaia, N.'
_publ_section_title
;
 Crystal structures and compressibility of novel iron borides Fe2B7 and Fe
 B50 synthesized at high pressure and high temperature
;
_journal_name_full               'Journal of Solid State Chemistry'
_journal_page_first              102
_journal_page_last               109
_journal_paper_doi               10.1016/j.jssc.2015.06.040
_journal_volume                  230
_journal_year                    2015
_chemical_absolute_configuration .
_chemical_formula_moiety         'B50 Fe1.324'
_chemical_formula_sum            'B50 Fe1.324'
_chemical_formula_weight         614.4
_chemical_name_common            'Iron Boron (1.324/50)'
_chemical_name_systematic        'Iron Boron (1.324/50)'
_space_group_IT_number           134
_space_group_name_Hall           '-P 4ac 2bc'
_space_group_name_H-M_alt        'P 42/n n m :2'
_symmetry_cell_setting           tetragonal
_symmetry_Int_Tables_number      134
_symmetry_space_group_name_Hall  '-P 4ac 2bc'
_symmetry_space_group_name_H-M   'P 42/n n m :2'
_cell_angle_alpha                90
_cell_angle_beta                 90
_cell_angle_gamma                90
_cell_formula_units_Z            1
_cell_length_a                   8.7426(2)
_cell_length_b                   8.7426(2)
_cell_length_c                   4.93950(10)
_cell_measurement_reflns_used    325
_cell_measurement_temperature    293
_cell_measurement_theta_max      19.31
_cell_measurement_theta_min      3.08
_cell_volume                     377.541(14)
_computing_cell_refinement
;
CrysAlisPro, Agilent Technologies,
Version 1.171.37.35 (release 13-08-2014 CrysAlis171 .NET)
(compiled Aug 13 2014,18:06:01)
;
_computing_data_collection
;
CrysAlisPro, Agilent Technologies,
Version 1.171.37.35 (release 13-08-2014 CrysAlis171 .NET)
(compiled Aug 13 2014,18:06:01)
;
_computing_data_reduction
;
CrysAlisPro, Agilent Technologies,
Version 1.171.37.35 (release 13-08-2014 CrysAlis171 .NET)
(compiled Aug 13 2014,18:06:01)
;
_computing_structure_refinement  'Jana2006 (Petricek, 2014)'
_computing_structure_solution    'SHELXS-2013 (Sheldrick, 2013)'
_diffrn_ambient_pressure         16900000
_diffrn_ambient_temperature      293
_diffrn_detector                 'MAR555 flatpanel detector'
_diffrn_measured_fraction_theta_full 0.94
_diffrn_measured_fraction_theta_max 0.68
_diffrn_measurement_device
;
customized omega-circle diffractometer
;
_diffrn_measurement_device_type  'ESRF, beamline ID09A diffractometer'
_diffrn_measurement_method       '\w scans'
_diffrn_radiation_monochromator  synchrotron
_diffrn_radiation_probe          x-ray
_diffrn_radiation_source         synchrotron
_diffrn_radiation_type           synchrotron
_diffrn_radiation_wavelength     0.41409
_diffrn_reflns_av_R_equivalents  0.0366
_diffrn_reflns_av_unetI/netI     0.0356
_diffrn_reflns_limit_h_max       12
_diffrn_reflns_limit_h_min       -12
_diffrn_reflns_limit_k_max       8
_diffrn_reflns_limit_k_min       -6
_diffrn_reflns_limit_l_max       7
_diffrn_reflns_limit_l_min       -6
_diffrn_reflns_number            878
_diffrn_reflns_theta_full        13.56
_diffrn_reflns_theta_max         19.32
_diffrn_reflns_theta_min         1.92
_diffrn_source                   synchrotron
_exptl_absorpt_coefficient_mu    0.304
_exptl_absorpt_correction_T_max  1
_exptl_absorpt_correction_T_min  0.067
_exptl_absorpt_correction_type   multi-scan
_exptl_absorpt_process_details
;
CrysAlisPro, Agilent Technologies,
Version 1.171.37.35 (release 13-08-2014 CrysAlis171 .NET)
(compiled Aug 13 2014,18:06:01)
Empirical absorption correction using spherical harmonics,
 implemented in SCALE3 ABSPACK scaling algorithm.
;
_exptl_crystal_colour            black
_exptl_crystal_density_diffrn    2.7016
_exptl_crystal_description       plate
_exptl_crystal_F_000             284
_exptl_crystal_size_max          0.020
_exptl_crystal_size_mid          0.010
_exptl_crystal_size_min          0.005
_refine_diff_density_max         1.11
_refine_diff_density_min         -0.69
_refine_ls_extinction_method     none
_refine_ls_goodness_of_fit_gt    2.79
_refine_ls_goodness_of_fit_ref   2.64
_refine_ls_number_constraints    0
_refine_ls_number_parameters     18
_refine_ls_number_reflns         297
_refine_ls_number_restraints     0
_refine_ls_R_factor_all          0.0638
_refine_ls_R_factor_gt           0.0602
_refine_ls_shift/su_max          0.0002
_refine_ls_shift/su_mean         0.0001
_refine_ls_structure_factor_coef Fsqd
_refine_ls_weighting_details     w=1/(\s^2^(I)+0.0004I^2^)
_refine_ls_weighting_scheme      sigma
_refine_ls_wR_factor_gt          0.1295
_refine_ls_wR_factor_ref         0.1301
_reflns_number_gt                266
_reflns_number_total             297
_reflns_threshold_expression     I>2\s(I)
_cod_data_source_file            fe1.32B50_16.9GPa.cif
_cod_data_source_block           Fe1.3B50_16.9GPa
_cod_depositor_comments
;
The following automatic conversions were performed:

data item '_diffrn_radiation_probe' value 'X-ray' was changed to
'x-ray' in accordance with the built-in table derived from the CIF
Core dictionary named 'cif_core.dic' version 2.4.5 last updated on
2014-11-21.

Automatic conversion script
Id: cif_fix_values 8369 2020-08-20 11:38:08Z andrius 
;
_cod_original_sg_symbol_H-M      'P 42/n n m'
_cod_database_code               1561749
loop_
_symmetry_equiv_pos_site_id
_symmetry_equiv_pos_as_xyz
1 x,y,z
2 -x+1/2,-y+1/2,z
3 -y+1/2,x,z+1/2
4 y,-x+1/2,z+1/2
5 -x+1/2,y,-z+1/2
6 x,-y+1/2,-z+1/2
7 y,x,-z
8 -y+1/2,-x+1/2,-z
9 -x,-y,-z
10 x+1/2,y+1/2,-z
11 y+1/2,-x,-z+1/2
12 -y,x+1/2,-z+1/2
13 x+1/2,-y,z+1/2
14 -x,y+1/2,z+1/2
15 -y,-x,z
16 y+1/2,x+1/2,z
loop_
_atom_site_label
_atom_site_type_symbol
_atom_site_fract_x
_atom_site_fract_y
_atom_site_fract_z
_atom_site_adp_type
_atom_site_U_iso_or_equiv
_atom_site_site_symmetry_multiplicity
_atom_site_occupancy
_atom_site_calc_flag
_atom_site_refinement_flags
_atom_site_disorder_assembly
_atom_site_disorder_group
Fe1 Fe -0.25 0.25 0.25 Uani 0.0092(4) 2 0.6621 d . . .
B4 B -0.0752(3) -0.1577(3) 0.1489(5) Uiso 0.0046(5) 16 1 d . . .
B5 B -0.1678(3) 0.0210(3) 0.1619(5) Uiso 0.0028(5) 16 1 d . . .
B2 B 0.1227(3) -0.1227(3) 0.1398(6) Uiso 0.0027(7) 8 1 d . . .
B3 B 0.0034(3) -0.0034(3) 0.3354(7) Uiso 0.0019(7) 8 1 d . . .
B1 B 0.25 -0.25 0.25 Uiso 0.0033(13) 2 1 d . . .
loop_
_atom_site_aniso_label
_atom_site_aniso_type_symbol
_atom_site_aniso_U_11
_atom_site_aniso_U_22
_atom_site_aniso_U_33
_atom_site_aniso_U_12
_atom_site_aniso_U_13
_atom_site_aniso_U_23
Fe1 Fe 0.0035(6) 0.0035(6) 0.0206(9) 0 0 0
loop_
_atom_type_symbol
_atom_type_scat_dispersion_real
_atom_type_scat_dispersion_imag
_atom_type_scat_source
B -0.0003 0.0002 'International Tables Vol C tables 4.2.6.8 and 6.1.1.1'
Fe 0.1988 0.3099 'International Tables Vol C tables 4.2.6.8 and 6.1.1.1'
loop_
_geom_angle_atom_site_label_1
_geom_angle_atom_site_label_2
_geom_angle_atom_site_label_3
_geom_angle_site_symmetry_1
_geom_angle_site_symmetry_2
_geom_angle_site_symmetry_3
_geom_angle
B5 Fe1 B5 . . 2_455 156.87(8)
B5 Fe1 B5 . . 5_455 45.53(9)
B5 Fe1 B5 . . 6_555 141.34(9)
B5 Fe1 B5 . . 11_455 92.30(9)
B5 Fe1 B5 . . 12_555 92.30(9)
B5 Fe1 B5 . . 15_555 49.41(9)
B5 Fe1 B5 . . 16_455 124.76(9)
B5 Fe1 B2 . . 3_455 83.73(9)
B5 Fe1 B2 . . 4_555 114.82(9)
B5 Fe1 B2 . . 7_555 44.28(9)
B5 Fe1 B2 . . 8_455 113.91(9)
B5 Fe1 B1 . . 3_454 78.43(6)
B5 Fe1 B1 . . 3_455 101.57(6)
B5 Fe1 B5 2_455 . 5_455 141.34(9)
B5 Fe1 B5 2_455 . 6_555 45.53(9)
B5 Fe1 B5 2_455 . 11_455 92.30(9)
B5 Fe1 B5 2_455 . 12_555 92.30(9)
B5 Fe1 B5 2_455 . 15_555 124.76(9)
B5 Fe1 B5 2_455 . 16_455 49.41(9)
B5 Fe1 B2 2_455 . 3_455 114.82(9)
B5 Fe1 B2 2_455 . 4_555 83.73(9)
B5 Fe1 B2 2_455 . 7_555 113.91(9)
B5 Fe1 B2 2_455 . 8_455 44.28(9)
B5 Fe1 B1 2_455 . 3_454 78.43(6)
B5 Fe1 B1 2_455 . 3_455 101.57(6)
B5 Fe1 B5 5_455 . 6_555 156.87(8)
B5 Fe1 B5 5_455 . 11_455 49.41(9)
B5 Fe1 B5 5_455 . 12_555 124.76(9)
B5 Fe1 B5 5_455 . 15_555 92.30(9)
B5 Fe1 B5 5_455 . 16_455 92.30(9)
B5 Fe1 B2 5_455 . 3_455 44.28(9)
B5 Fe1 B2 5_455 . 4_555 113.91(9)
B5 Fe1 B2 5_455 . 7_555 83.73(9)
B5 Fe1 B2 5_455 . 8_455 114.82(9)
B5 Fe1 B1 5_455 . 3_454 101.57(6)
B5 Fe1 B1 5_455 . 3_455 78.43(6)
B5 Fe1 B5 6_555 . 11_455 124.76(9)
B5 Fe1 B5 6_555 . 12_555 49.41(9)
B5 Fe1 B5 6_555 . 15_555 92.30(9)
B5 Fe1 B5 6_555 . 16_455 92.30(9)
B5 Fe1 B2 6_555 . 3_455 113.91(9)
B5 Fe1 B2 6_555 . 4_555 44.28(9)
B5 Fe1 B2 6_555 . 7_555 114.82(9)
B5 Fe1 B2 6_555 . 8_455 83.73(9)
B5 Fe1 B1 6_555 . 3_454 101.57(6)
B5 Fe1 B1 6_555 . 3_455 78.43(6)
B5 Fe1 B5 11_455 . 12_555 156.87(8)
B5 Fe1 B5 11_455 . 15_555 141.34(9)
B5 Fe1 B5 11_455 . 16_455 45.53(9)
B5 Fe1 B2 11_455 . 3_455 44.28(9)
B5 Fe1 B2 11_455 . 4_555 113.91(9)
B5 Fe1 B2 11_455 . 7_555 114.82(9)
B5 Fe1 B2 11_455 . 8_455 83.73(9)
B5 Fe1 B1 11_455 . 3_454 101.57(6)
B5 Fe1 B1 11_455 . 3_455 78.43(6)
B5 Fe1 B5 12_555 . 15_555 45.53(9)
B5 Fe1 B5 12_555 . 16_455 141.34(9)
B5 Fe1 B2 12_555 . 3_455 113.91(9)
B5 Fe1 B2 12_555 . 4_555 44.28(9)
B5 Fe1 B2 12_555 . 7_555 83.73(9)
B5 Fe1 B2 12_555 . 8_455 114.82(9)
B5 Fe1 B1 12_555 . 3_454 101.57(6)
B5 Fe1 B1 12_555 . 3_455 78.43(6)
B5 Fe1 B5 15_555 . 16_455 156.87(8)
B5 Fe1 B2 15_555 . 3_455 114.82(9)
B5 Fe1 B2 15_555 . 4_555 83.73(9)
B5 Fe1 B2 15_555 . 7_555 44.28(9)
B5 Fe1 B2 15_555 . 8_455 113.91(9)
B5 Fe1 B1 15_555 . 3_454 78.43(6)
B5 Fe1 B1 15_555 . 3_455 101.57(6)
B5 Fe1 B2 16_455 . 3_455 83.73(9)
B5 Fe1 B2 16_455 . 4_555 114.82(9)
B5 Fe1 B2 16_455 . 7_555 113.91(9)
B5 Fe1 B2 16_455 . 8_455 44.28(9)
B5 Fe1 B1 16_455 . 3_454 78.43(6)
B5 Fe1 B1 16_455 . 3_455 101.57(6)
B2 Fe1 B2 3_455 . 4_555 78.50(9)
B2 Fe1 B2 3_455 . 7_555 126.85(9)
B2 Fe1 B2 3_455 . 8_455 126.85(9)
B2 Fe1 B1 3_455 . 3_454 140.75(6)
B2 Fe1 B1 3_455 . 3_455 39.25(6)
B2 Fe1 B2 4_555 . 7_555 126.85(9)
B2 Fe1 B2 4_555 . 8_455 126.85(9)
B2 Fe1 B1 4_555 . 3_454 140.75(6)
B2 Fe1 B1 4_555 . 3_455 39.25(6)
B2 Fe1 B2 7_555 . 8_455 78.50(9)
B2 Fe1 B1 7_555 . 3_454 39.25(6)
B2 Fe1 B1 7_555 . 3_455 140.75(6)
B2 Fe1 B1 8_455 . 3_454 39.25(6)
B2 Fe1 B1 8_455 . 3_455 140.75(6)
B1 Fe1 B1 3_454 . 3_455 180.0(5)
B4 B4 B4 6_545 . 7_555 140.81(19)
B4 B4 B5 6_545 . . 137.34(18)
B4 B4 B5 6_545 . 7_555 114.71(18)
B4 B4 B2 6_545 . . 99.28(17)
B4 B4 B3 6_545 . . 111.95(18)
B4 B4 B5 7_555 . . 59.13(14)
B4 B4 B5 7_555 . 7_555 59.61(14)
B4 B4 B2 7_555 . . 107.80(19)
B4 B4 B3 7_555 . . 106.05(19)
B5 B4 B5 . . 7_555 107.29(17)
B5 B4 B2 . . . 107.42(19)
B5 B4 B3 . . . 58.93(14)
B5 B4 B2 7_555 . . 60.92(15)
B5 B4 B3 7_555 . . 107.92(19)
B2 B4 B3 . . . 59.96(15)
Fe1 B5 B4 . . . 167.85(16)
Fe1 B5 B4 . . 7_555 129.41(15)
Fe1 B5 B5 . . 5_455 67.23(12)
Fe1 B5 B5 . . 15_555 65.29(11)
Fe1 B5 B2 . . 7_555 77.32(13)
Fe1 B5 B3 . . . 107.43(15)
B4 B5 B4 . . 7_555 61.26(14)
B4 B5 B5 . . 5_455 114.34(18)
B4 B5 B5 . . 15_555 107.59(18)
B4 B5 B2 . . 7_555 108.12(17)
B4 B5 B3 . . . 60.85(15)
B4 B5 B5 7_555 . 5_455 119.80(19)
B4 B5 B5 7_555 . 15_555 107.68(17)
B4 B5 B2 7_555 . 7_555 59.68(14)
B4 B5 B3 7_555 . . 109.24(19)
B5 B5 B5 5_455 . 15_555 127.21(18)
B5 B5 B2 5_455 . 7_555 128.56(19)
B5 B5 B3 5_455 . . 118.75(18)
B5 B5 B2 15_555 . 7_555 59.35(14)
B5 B5 B3 15_555 . . 58.53(14)
B2 B5 B3 7_555 . . 106.49(18)
Fe1 B2 B4 3_554 . . 112.48(16)
Fe1 B2 B4 3_554 . 15_555 112.48(16)
Fe1 B2 B5 3_554 . 7_555 58.40(12)
Fe1 B2 B5 3_554 . 9_555 58.40(12)
Fe1 B2 B3 3_554 . . 162.47(19)
Fe1 B2 B1 3_554 . . 69.83(9)
B4 B2 B4 . . 15_555 109.98(19)
B4 B2 B5 . . 7_555 59.40(14)
B4 B2 B5 . . 9_555 109.04(19)
B4 B2 B3 . . . 60.43(15)
B4 B2 B1 . . . 122.23(18)
B4 B2 B5 15_555 . 7_555 109.04(19)
B4 B2 B5 15_555 . 9_555 59.40(14)
B4 B2 B3 15_555 . . 60.43(15)
B4 B2 B1 15_555 . . 122.23(18)
B5 B2 B5 7_555 . 9_555 61.31(15)
B5 B2 B3 7_555 . . 107.11(18)
B5 B2 B1 7_555 . . 117.37(17)
B5 B2 B3 9_555 . . 107.11(18)
B5 B2 B1 9_555 . . 117.37(17)
B3 B2 B1 . . . 127.7(2)
B4 B3 B4 . . 15_555 108.7(2)
B4 B3 B5 . . . 60.23(15)
B4 B3 B5 . . 15_555 110.6(2)
B4 B3 B2 . . . 59.61(15)
B4 B3 B3 . . 7_556 122.2(2)
B4 B3 B5 15_555 . . 110.6(2)
B4 B3 B5 15_555 . 15_555 60.23(15)
B4 B3 B2 15_555 . . 59.61(15)
B4 B3 B3 15_555 . 7_556 122.2(2)
B5 B3 B5 . . 15_555 62.93(15)
B5 B3 B2 . . . 108.2(2)
B5 B3 B3 . . 7_556 117.2(2)
B5 B3 B2 15_555 . . 108.2(2)
B5 B3 B3 15_555 . 7_556 117.2(2)
B2 B3 B3 . . 7_556 126.2(2)
Fe1 B1 Fe1 3_554 . 3_555 180.0(5)
Fe1 B1 B2 3_554 . . 70.92(10)
Fe1 B1 B2 3_554 . 2_545 70.92(10)
Fe1 B1 B2 3_554 . 5_555 109.08(10)
Fe1 B1 B2 3_554 . 6_545 109.08(10)
Fe1 B1 B2 3_555 . . 109.08(10)
Fe1 B1 B2 3_555 . 2_545 109.08(10)
Fe1 B1 B2 3_555 . 5_555 70.92(10)
Fe1 B1 B2 3_555 . 6_545 70.92(10)
B2 B1 B2 . . 2_545 141.84(15)
B2 B1 B2 . . 5_555 96.13(13)
B2 B1 B2 . . 6_545 96.13(13)
B2 B1 B2 2_545 . 5_555 96.13(13)
B2 B1 B2 2_545 . 6_545 96.13(13)
B2 B1 B2 5_555 . 6_545 141.84(15)
loop_
_geom_bond_atom_site_label_1
_geom_bond_atom_site_label_2
_geom_bond_site_symmetry_1
_geom_bond_site_symmetry_2
_geom_bond_distance
Fe1 B5 . . 2.171(3)
Fe1 B5 . 2_455 2.171(3)
Fe1 B5 . 5_455 2.171(3)
Fe1 B5 . 6_555 2.171(3)
Fe1 B5 . 11_455 2.171(3)
Fe1 B5 . 12_555 2.171(3)
Fe1 B5 . 15_555 2.171(3)
Fe1 B5 . 16_455 2.171(3)
Fe1 B2 . 3_455 2.487(3)
Fe1 B2 . 4_555 2.487(3)
Fe1 B2 . 7_555 2.487(3)
Fe1 B2 . 8_455 2.487(3)
Fe1 B1 . 3_454 2.46975(10)
Fe1 B1 . 3_455 2.46975(10)
B4 B4 . 6_545 1.898(4)
B4 B4 . 7_555 1.790(3)
B4 B5 . . 1.761(4)
B4 B5 . 7_555 1.753(3)
B4 B2 . . 1.758(4)
B4 B3 . . 1.772(4)
B5 B5 . 5_455 1.680(3)
B5 B5 . 15_555 1.815(4)
B5 B2 . 7_555 1.780(4)
B5 B3 . . 1.738(4)
B2 B3 . . 1.764(4)
B2 B1 . . 1.665(3)
B3 B3 . 7_556 1.628(5)
loop_
_refln_index_h
_refln_index_k
_refln_index_l
_refln_F_squared_calc
_refln_F_squared_meas
_refln_F_squared_sigma
_refln_observed_status
1 0 1 501.55 568.68 8.93 o
1 0 3 434.77 403.79 10.27 o
1 0 5 73.26 60.07 5.35 o
1 1 0 1565.56 1493.48 20.40 o
1 1 2 819.66 786.44 11.41 o
1 1 3 397.93 409.96 12.64 o
1 1 4 300.52 225.67 6.73 o
1 1 5 10.66 4.90 1.45 o
1 1 6 109.09 63.26 5.19 o
1 1 7 169.18 140.13 12.17 o
2 0 0 159.57 178.31 5.00 o
2 0 2 205.08 235.24 4.53 o
2 0 4 865.99 743.78 37.40 o
2 0 6 675.19 919.95 24.52 o
2 1 1 384.75 381.25 5.09 o
2 1 2 6.96 9.02 0.94 o
2 1 3 150.89 154.89 4.50 o
2 1 4 19.81 20.17 2.32 o
2 1 5 54.76 48.27 3.30 o
2 1 6 42.90 33.87 3.55 o
2 1 7 39.66 29.69 5.89 o
2 2 0 540.21 637.85 13.55 o
2 2 1 0.01 0.01 0.34 <
2 2 2 625.95 684.49 13.26 o
2 2 3 0.73 0.33 0.33 <
2 2 4 461.64 497.64 13.15 o
2 2 5 1.32 -0.02 1.13 <
2 2 6 152.24 151.29 12.41 o
2 2 7 0.12 -0.57 0.93 <
3 0 1 180.40 136.25 3.87 o
3 0 3 172.46 140.99 5.77 o
3 0 5 119.32 48.12 12.79 o
3 1 0 1183.68 1307.83 12.69 o
3 1 1 1067.82 1331.91 11.24 o
3 1 2 697.87 675.18 7.31 o
3 1 3 1413.97 1415.93 12.48 o
3 1 4 240.75 256.32 7.47 o
3 1 5 26.85 35.52 4.13 o
3 1 6 74.12 82.42 6.53 o
3 1 7 357.28 313.41 20.83 o
3 2 2 21.45 25.10 1.67 o
3 2 3 257.90 235.47 6.30 o
3 2 4 5.39 7.80 1.23 o
3 2 5 222.85 266.43 10.30 o
3 2 6 1.47 0.08 0.82 <
3 2 7 31.63 37.16 6.56 o
3 3 1 549.47 680.14 16.21 o
3 3 2 563.77 605.76 15.27 o
3 3 3 1288.14 1302.56 23.25 o
3 3 4 155.16 185.64 8.95 o
3 3 5 184.87 237.75 10.74 o
3 3 6 75.53 86.89 10.00 o
3 3 7 200.50 290.59 21.36 o
4 0 0 341.60 341.79 10.02 o
4 0 2 729.02 815.56 11.79 o
4 0 4 713.78 853.08 13.83 o
4 0 6 59.00 38.79 4.15 o
4 1 1 1426.60 1616.42 11.72 o
4 1 2 77.89 81.39 3.01 o
4 1 3 61.80 84.25 3.06 o
4 1 4 5.86 5.78 0.99 o
4 1 5 48.76 51.93 4.29 o
4 1 6 28.30 31.65 4.91 o
4 1 7 0.49 -0.66 1.72 <
4 2 0 1008.43 1029.11 20.07 o
4 2 1 0.13 0.60 0.51 <
4 2 2 548.44 534.58 9.67 o
4 2 3 0.01 0.31 0.42 <
4 2 4 150.32 145.38 5.81 o
4 2 5 0.47 1.66 0.67 o
4 2 6 66.36 73.73 6.52 o
4 2 7 0.23 1.30 2.21 <
4 3 1 398.83 383.43 11.20 o
4 3 2 662.18 671.99 12.66 o
4 3 3 189.05 184.96 5.50 o
4 3 4 270.50 303.26 8.72 o
4 3 5 21.81 27.71 2.70 o
4 3 6 41.41 50.54 4.29 o
4 3 7 1.46 0.71 3.30 <
4 4 1 24.10 23.72 3.65 o
4 4 2 697.13 571.10 17.50 o
4 4 3 22.91 25.85 3.51 o
4 4 4 1.22 2.26 1.02 o
4 4 5 14.93 9.99 2.18 o
4 4 6 1.84 2.89 1.79 <
5 0 1 1712.61 1751.60 18.58 o
5 0 3 2.32 1.26 0.83 <
5 0 5 196.40 204.45 7.33 o
5 1 0 547.20 589.85 12.44 o
5 1 1 53.04 67.04 2.60 o
5 1 2 520.74 499.80 7.76 o
5 1 3 84.97 82.02 3.37 o
5 1 4 317.04 318.14 6.70 o
5 1 5 0.40 0.99 1.26 <
5 1 6 65.22 77.10 6.81 o
5 2 1 832.19 782.70 11.87 o
5 2 2 979.00 964.27 14.29 o
5 2 3 132.79 135.18 5.43 o
5 2 4 266.50 298.38 10.28 o
5 2 5 9.16 9.51 1.91 o
5 2 6 145.22 142.00 8.63 o
5 2 7 21.18 23.61 6.34 o
5 3 0 569.74 559.25 17.27 o
5 3 1 1.50 0.78 0.88 <
5 3 2 415.64 438.69 12.87 o
5 3 3 4.82 5.24 1.52 o
5 3 4 196.18 207.87 7.85 o
5 3 5 58.53 74.87 4.79 o
5 3 6 76.72 101.46 6.65 o
5 3 7 8.67 13.34 5.62 o
5 4 1 165.16 119.35 8.80 o
5 4 2 46.40 36.56 3.59 o
5 4 3 336.49 336.17 8.80 o
5 4 4 20.55 16.74 1.74 o
5 4 5 894.15 1053.23 19.51 o
5 4 6 3.37 3.03 0.86 o
5 4 7 102.31 120.69 15.58 o
5 5 1 1.47 2.51 1.58 <
5 5 2 333.47 321.17 16.22 o
5 5 3 0.04 0.26 1.21 <
5 5 4 12.58 12.07 2.03 o
5 5 5 9.37 17.69 3.44 o
5 5 6 37.99 44.48 6.53 o
6 0 0 179.95 164.33 8.65 o
6 0 2 18.13 29.36 2.74 o
6 0 4 916.91 1043.09 21.81 o
6 1 1 45.70 30.63 1.97 o
6 1 2 428.31 405.28 7.31 o
6 1 3 278.07 265.72 7.14 o
6 1 4 108.77 112.09 4.56 o
6 1 5 624.76 743.62 14.52 o
6 1 6 76.62 100.24 6.83 o
6 2 0 3281.73 3238.28 35.54 o
6 2 1 18.07 14.15 1.62 o
6 2 2 1053.72 970.32 12.81 o
6 2 3 9.95 12.71 1.85 o
6 2 4 23.68 21.51 2.88 o
6 2 5 29.56 19.75 2.26 o
6 2 6 159.26 223.57 16.25 o
6 3 1 880.18 838.21 16.13 o
6 3 2 295.37 260.07 8.87 o
6 3 3 29.12 29.36 2.93 o
6 3 4 77.17 100.82 6.22 o
6 3 5 67.37 69.47 5.71 o
6 3 6 54.54 68.41 7.56 o
6 4 0 20.68 27.64 4.57 o
6 4 1 0.39 0.59 1.49 <
6 4 2 60.97 67.20 6.77 o
6 4 3 4.00 2.81 0.99 o
6 4 4 655.81 714.41 14.73 o
6 4 5 4.80 7.02 1.68 o
6 4 6 582.01 724.02 22.32 o
6 5 1 270.78 257.73 14.84 o
6 5 2 22.66 20.58 3.61 o
6 5 3 61.24 57.06 4.96 o
6 5 4 0.64 0.74 0.60 <
6 5 5 2.39 1.41 1.04 <
6 5 6 30.45 42.30 5.48 o
6 6 2 503.90 468.24 21.42 o
6 6 3 137.03 127.61 11.17 o
6 6 4 132.45 131.13 11.34 o
6 6 5 7.72 5.03 4.94 <
7 0 1 7.16 3.91 1.02 o
7 0 3 170.25 167.46 7.81 o
7 0 5 382.93 433.26 13.73 o
7 1 0 361.95 358.68 10.68 o
7 1 1 11.62 11.69 1.25 o
7 1 2 236.32 227.60 5.89 o
7 1 3 11.03 7.33 1.24 o
7 1 4 129.70 138.83 6.78 o
7 1 5 10.13 10.77 1.44 o
7 2 1 194.63 182.92 6.18 o
7 2 2 291.04 277.26 7.30 o
7 2 3 102.19 96.81 5.47 o
7 2 4 147.99 146.67 7.95 o
7 2 5 25.16 22.15 2.87 o
7 2 6 16.78 21.21 4.86 o
7 3 0 95.33 82.33 7.66 o
7 3 1 9.36 7.92 1.58 o
7 3 2 248.21 236.59 8.87 o
7 3 3 40.36 34.93 3.47 o
7 3 4 414.10 431.83 12.44 o
7 3 5 15.79 13.18 2.59 o
7 3 6 123.81 151.79 14.70 o
7 4 1 196.78 165.24 8.66 o
7 4 2 5.23 7.37 2.95 o
7 4 3 37.16 35.95 4.00 o
7 4 4 2.77 5.75 1.76 o
7 4 5 8.46 12.31 4.65 o
7 4 6 0.25 0.20 1.80 <
7 5 0 384.42 355.90 19.50 o
7 5 1 112.33 98.13 9.36 o
7 5 2 288.06 275.05 14.96 o
7 5 3 244.23 216.13 11.62 o
7 5 4 117.91 127.49 8.03 o
7 5 5 0.06 -0.83 2.25 <
7 5 6 27.61 34.77 7.92 o
7 6 1 655.43 561.99 25.97 o
7 6 2 109.27 85.37 12.49 o
7 6 3 31.05 28.74 5.50 o
7 6 4 30.32 22.54 4.54 o
8 0 0 1017.25 1077.61 26.18 o
8 0 2 440.31 426.94 12.04 o
8 0 4 17.32 21.50 4.72 o
8 1 1 228.15 236.06 6.44 o
8 1 2 7.56 5.44 0.89 o
8 1 3 99.27 103.13 4.88 o
8 1 4 29.38 34.36 3.41 o
8 1 5 7.24 7.38 2.14 o
8 2 0 146.82 138.77 7.21 o
8 2 1 11.01 10.51 1.52 o
8 2 2 187.83 188.60 6.59 o
8 2 3 44.94 43.80 3.79 o
8 2 4 224.34 261.56 12.61 o
8 2 5 13.27 10.92 4.14 o
8 3 1 408.79 410.46 12.81 o
8 3 2 18.62 24.48 2.66 o
8 3 3 21.10 25.95 3.30 o
8 3 4 7.20 7.26 2.13 o
8 3 5 11.53 12.37 4.65 o
8 4 0 232.11 191.49 13.12 o
8 4 1 123.18 104.79 6.96 o
8 4 2 276.45 315.99 16.99 o
8 4 3 280.69 264.12 13.53 o
8 4 4 212.29 273.88 16.34 o
8 4 5 0.60 1.07 3.24 <
8 4 6 31.40 34.54 8.68 o
8 5 1 0.58 -0.81 1.19 <
8 5 2 285.95 253.64 21.26 o
8 5 3 61.57 40.96 6.78 o
8 5 4 154.77 145.02 11.92 o
8 5 5 165.17 212.59 23.17 o
8 6 4 107.45 54.39 6.18 o
9 0 1 0.16 0.00 0.66 <
9 0 3 220.76 257.54 12.98 o
9 0 5 247.58 365.80 23.10 o
9 1 0 1329.03 1339.56 23.20 o
9 1 1 168.42 159.49 5.69 o
9 1 2 455.08 464.83 11.04 o
9 1 3 533.96 529.88 13.69 o
9 1 4 2.20 1.95 1.20 <
9 1 5 62.44 71.40 10.88 o
9 2 1 288.07 282.42 8.21 o
9 2 2 107.68 92.50 5.14 o
9 2 3 55.17 47.95 4.37 o
9 2 4 12.27 11.43 2.54 o
9 2 5 0.81 0.18 1.54 <
9 3 0 221.43 189.23 13.35 o
9 3 1 220.94 209.23 10.05 o
9 3 2 212.97 172.90 10.33 o
9 3 3 632.21 632.31 21.11 o
9 3 4 145.57 161.53 11.27 o
9 4 1 216.94 178.71 11.36 o
9 4 2 334.74 281.70 16.20 o
9 4 3 7.12 6.52 2.28 o
9 4 4 127.11 165.04 13.54 o
9 5 1 90.22 63.00 12.34 o
9 5 3 254.95 191.60 14.02 o
9 5 4 684.71 715.98 24.78 o
10 0 0 194.74 183.54 12.90 o
10 0 2 141.49 139.76 10.45 o
10 0 4 87.54 125.55 13.69 o
10 1 1 155.01 146.54 7.22 o
10 1 2 104.61 106.20 6.41 o
10 1 3 32.28 31.94 3.58 o
10 1 4 18.89 12.08 2.60 o
10 2 0 209.26 204.34 12.15 o
10 2 1 306.02 254.69 10.91 o
10 2 2 205.33 199.48 8.93 o
10 2 3 633.94 675.54 17.29 o
10 2 4 137.92 172.33 13.05 o
10 3 1 0.63 0.82 1.42 <
10 3 2 3.79 3.98 1.78 o
10 3 3 104.66 103.31 9.12 o
10 3 4 16.49 10.92 2.92 o
10 4 2 95.38 113.70 13.85 o
10 4 3 203.22 164.62 11.75 o
10 4 4 159.76 214.45 16.07 o
10 5 3 23.58 18.99 4.60 o
11 0 1 211.32 264.95 22.30 o
11 0 3 11.84 10.15 3.48 o
11 1 1 12.73 7.95 3.82 o
11 1 2 25.11 25.75 3.60 o
11 1 3 31.13 15.41 2.79 o
11 1 4 663.92 755.28 27.77 o
11 2 1 5.56 3.85 3.98 <
11 2 2 13.61 10.03 2.75 o
11 2 3 27.32 26.22 5.16 o
11 2 4 2.51 4.94 2.01 o
11 3 2 216.46 194.08 16.86 o
11 3 3 35.47 27.62 5.14 o
11 4 2 20.72 20.08 6.49 o
11 4 3 89.90 77.72 9.16 o
11 5 3 0.16 6.20 3.81 <
12 0 4 6.19 2.74 2.94 <
12 1 3 16.51 26.44 7.46 o
12 1 4 37.42 25.25 7.63 o
