#------------------------------------------------------------------------------
#$Date: 2021-03-31 11:24:00 +0300 (Wed, 31 Mar 2021) $
#$Revision: 263482 $
#$URL: file:///home/coder/svn-repositories/cod/cif/1/56/13/1561379.cif $
#------------------------------------------------------------------------------
#
# This file is available in the Crystallography Open Database (COD),
# http://www.crystallography.net/
#
# All data on this site have been placed in the public domain by the
# contributors.
#
data_1561379
loop_
_publ_author_name
'Oswald, Iain W.H.'
'Gourdon, Olivier'
'Bekins, Amy'
'Evans, Jess'
'Treadwell, LaRico J.'
'Chan, Julia Y.'
'Macaluso, Robin T.'
_publ_section_title
;
 Er1.33Pt3Ga8: A modulated variant of the Er4Pt9Al24-structure type
;
_journal_name_full               'Journal of Solid State Chemistry'
_journal_page_first              161
_journal_page_last               167
_journal_paper_doi               10.1016/j.jssc.2016.04.009
_journal_volume                  242
_journal_year                    2016
_chemical_absolute_configuration .
_chemical_formula_sum            'Er0.341 Ga2.005 Pt0.75'
_chemical_formula_weight         343.1
_space_group_IT_number           12
_space_group_name_Hall           '-C 2y'
_space_group_name_H-M_alt        'C 1 2/m 1'
_symmetry_cell_setting           monoclinic
_symmetry_Int_Tables_number      12
_symmetry_space_group_name_Hall  '-C 2y'
_symmetry_space_group_name_H-M   'C 1 2/m 1'
_cell_angle_alpha                90
_cell_angle_beta                 101.010(2)
_cell_angle_gamma                90
_cell_formula_units_Z            8
_cell_length_a                   7.4879(2)
_cell_length_b                   4.3204(3)
_cell_length_c                   13.1060(4)
_cell_measurement_reflns_used    6136
_cell_measurement_temperature    297
_cell_measurement_theta_max      30.4
_cell_measurement_theta_min      3.2
_cell_volume                     416.18(3)
_computing_cell_refinement       'Bruker SAINT'
_computing_data_collection       'Bruker APEX2'
_computing_molecular_graphics    CrystalMaker
_computing_publication_material  'publCIF (Westrip, 2010)'
_diffrn_ambient_temperature      297
_diffrn_measured_fraction_theta_full 0.98
_diffrn_measured_fraction_theta_max 0.95
_diffrn_measurement_device       'four-circle diffractometer'
_diffrn_measurement_device_type  'Bruker Kappa D8 Quest CMOS'
_diffrn_measurement_method       '\f and \w scans'
_diffrn_radiation_monochromator  'HELIOS optics'
_diffrn_radiation_probe          x-ray
_diffrn_radiation_source         'I\mS microfocus tube'
_diffrn_radiation_type           'Mo K\a'
_diffrn_radiation_wavelength     0.71073
_diffrn_reflns_av_R_equivalents  0.0494
_diffrn_reflns_av_unetI/netI     0.0175
_diffrn_reflns_limit_h_max       11
_diffrn_reflns_limit_h_min       -11
_diffrn_reflns_limit_k_max       6
_diffrn_reflns_limit_k_min       -6
_diffrn_reflns_limit_l_max       20
_diffrn_reflns_limit_l_min       -19
_diffrn_reflns_number            11441
_diffrn_reflns_theta_full        32.74
_diffrn_reflns_theta_max         33.42
_diffrn_reflns_theta_min         1.58
_exptl_absorpt_coefficient_mu    89.175
_exptl_crystal_colour            Silver
_exptl_crystal_density_diffrn    10.9526
_exptl_crystal_description       Fragment
_exptl_crystal_F_000             1151
_exptl_crystal_size_max          0.05
_exptl_crystal_size_mid          0.02
_exptl_crystal_size_min          0.01
_refine_ls_extinction_coef       371(14)
_refine_ls_extinction_method
'B-C type 1 Lorentzian isotropic (Becker & Coppens, 1974)'
_refine_ls_goodness_of_fit_gt    1.76
_refine_ls_goodness_of_fit_ref   1.76
_refine_ls_number_constraints    0
_refine_ls_number_parameters     51
_refine_ls_number_reflns         863
_refine_ls_number_restraints     0
_refine_ls_R_factor_all          0.0258
_refine_ls_R_factor_gt           0.0234
_refine_ls_shift/su_max          0.0475
_refine_ls_shift/su_mean         0.0096
_refine_ls_structure_factor_coef F
_refine_ls_weighting_details     w=1/(\s^2^(F)+0.0001F^2^)
_refine_ls_weighting_scheme      sigma
_refine_ls_wR_factor_gt          0.0284
_refine_ls_wR_factor_ref         0.0290
_reflns_number_gt                820
_reflns_number_total             863
_reflns_threshold_expression     I>3\s(I)
_cod_data_source_file            JSSC-2016-242-161.cif
_cod_data_source_block           II
_cod_database_code               1561379
loop_
_space_group_symop_id
_space_group_symop_operation_xyz
1 x,y,z
2 -x,y,-z
3 -x,-y,-z
4 x,-y,z
5 x+1/2,y+1/2,z
6 -x+1/2,y+1/2,-z
7 -x+1/2,-y+1/2,-z
8 x+1/2,-y+1/2,z
loop_
_atom_site_label
_atom_site_type_symbol
_atom_site_fract_x
_atom_site_fract_y
_atom_site_fract_z
_atom_site_adp_type
_atom_site_U_iso_or_equiv
_atom_site_site_symmetry_multiplicity
_atom_site_occupancy
_atom_site_calc_flag
_atom_site_refinement_flags
_atom_site_disorder_assembly
_atom_site_disorder_group
Er1 Er 0.26926(6) 0 0.80804(4) Uani 0.00682(15) 4 0.6819 d . . .
Pt1 Pt 0 0 0 Uani 0.00610(12) 2 1 d . . .
Pt2 Pt 0.12013(4) 0 0.36045(2) Uani 0.00653(10) 4 1 d . . .
Ga2 Ga 0.18631(12) 0 0.55869(7) Uani 0.0076(2) 4 1 d . . .
Ga1_1 Ga 0.3750(2) 0.6928(4) 0.81713(14) Uani 0.0071(5) 8 0.3305 d . . .
Ga1_2 Ga -0.0676(3) 0 -0.8169(2) Uani 0.0100(7) 4 0.3487 d . . .
Ga3 Ga -0.14711(12) 0.5 0.05898(7) Uani 0.0066(2) 4 1 d . . .
Ga4 Ga -0.05764(11) 0.5 0.32731(7) Uani 0.0085(3) 4 1 d . . .
loop_
_atom_site_aniso_label
_atom_site_aniso_type_symbol
_atom_site_aniso_U_11
_atom_site_aniso_U_22
_atom_site_aniso_U_33
_atom_site_aniso_U_12
_atom_site_aniso_U_13
_atom_site_aniso_U_23
Er1 Er 0.0067(2) 0.0061(3) 0.0074(2) 0 0.00068(18) 0
Pt1 Pt 0.0059(2) 0.0059(2) 0.0062(2) 0 0.00061(15) 0
Pt2 Pt 0.00711(17) 0.00681(17) 0.00539(17) 0 0.00051(11) 0
Ga2 Ga 0.0081(4) 0.0073(4) 0.0070(4) 0 0.0008(3) 0
Ga1_1 Ga 0.0086(8) 0.0072(8) 0.0054(8) 0.0010(7) 0.0009(6) -0.0006(6)
Ga1_2 Ga 0.0105(12) 0.0116(12) 0.0072(11) 0 0.0002(9) 0
Ga3 Ga 0.0054(4) 0.0050(4) 0.0094(4) 0 0.0014(3) 0
Ga4 Ga 0.0063(4) 0.0062(4) 0.0130(5) 0 0.0019(4) 0
loop_
_atom_type_symbol
_atom_type_scat_dispersion_real
_atom_type_scat_dispersion_imag
_atom_type_scat_source
Er -0.2586 4.9576 'International Tables Vol C tables 4.2.6.8 and 6.1.1.1'
Ga 0.2307 1.6083 'International Tables Vol C tables 4.2.6.8 and 6.1.1.1'
Pt -1.7033 8.3905 'International Tables Vol C tables 4.2.6.8 and 6.1.1.1'
loop_
_refln_index_h
_refln_index_k
_refln_index_l
_refln_F_squared_calc
_refln_F_squared_meas
_refln_F_squared_sigma
_refln_observed_status
2 0 0 53.00 105.45 16.02 o
4 0 0 13922.40 13068.00 208.82 o
6 0 0 431.09 493.52 47.98 o
8 0 0 43332.00 43392.90 673.99 o
10 0 0 379.95 434.00 128.69 o
1 1 0 62096.60 65469.80 244.36 o
3 1 0 900.42 921.20 33.30 o
5 1 0 3743.16 3719.16 89.25 o
7 1 0 41013.90 40355.70 385.75 o
9 1 0 23074.90 22488.30 491.57 o
11 1 0 18016.70 17510.20 1101.20 o
0 2 0 606502.00 731476.00 1960.96 o
2 2 0 52.84 145.39 15.25 o
4 2 0 259.83 355.75 29.29 o
6 2 0 364.53 345.79 33.94 o
8 2 0 20999.20 20249.60 376.53 o
10 2 0 349.93 448.72 123.48 o
1 3 0 19261.90 19587.90 187.97 o
3 3 0 367.45 470.25 34.35 o
5 3 0 415.54 543.24 49.60 o
7 3 0 22038.70 22138.00 453.36 o
9 3 0 12917.20 12008.80 488.11 o
0 4 0 312672.00 328196.00 1547.29 o
2 4 0 29.03 141.20 23.33 o
4 4 0 1619.44 1572.67 85.01 o
6 4 0 188.86 312.76 55.12 o
8 4 0 20320.10 18460.70 734.27 o
1 5 0 19764.20 19363.50 348.21 o
3 5 0 466.27 461.60 61.16 o
5 5 0 2550.37 2434.60 217.38 o
7 5 0 20303.50 19186.00 1011.99 o
0 6 0 138586.00 132311.00 2063.73 o
2 6 0 19.99 20.56 83.39 <
4 6 0 1130.02 971.59 470.98 <
-10 0 1 33814.90 33982.50 964.14 o
-8 0 1 441.95 568.20 78.26 o
-6 0 1 5422.11 5510.71 168.69 o
-4 0 1 12887.60 12176.80 211.09 o
-2 0 1 60620.50 63501.30 373.31 o
0 0 1 259.59 -1.63 3.37 <
2 0 1 5420.08 5106.91 103.50 o
4 0 1 87471.90 80041.20 561.57 o
6 0 1 69689.50 68284.50 642.26 o
8 0 1 45033.80 44229.00 680.35 o
10 0 1 42581.50 41998.60 1062.23 o
-11 1 1 22538.00 23345.40 1328.45 o
-9 1 1 1380.80 1350.19 119.87 o
-7 1 1 2699.56 2677.31 97.14 o
-5 1 1 3599.82 3253.85 77.32 o
-3 1 1 601312.00 680885.00 1457.49 o
-1 1 1 64.30 141.31 11.56 o
1 1 1 2833.63 3165.54 56.89 o
3 1 1 4187.16 3929.04 73.23 o
5 1 1 70936.50 70631.90 418.45 o
7 1 1 1162.84 1265.80 64.58 o
9 1 1 4367.74 4446.43 217.47 o
11 1 1 511.57 663.21 216.79 o
-10 2 1 18970.60 17788.30 498.30 o
-8 2 1 1665.08 1794.76 108.71 o
-6 2 1 3.51 50.68 23.18 <
-4 2 1 18852.50 18882.30 188.19 o
-2 2 1 12833.10 12996.50 130.30 o
0 2 1 912.31 922.12 32.04 o
2 2 1 814.90 806.71 35.95 o
4 2 1 86496.20 87329.90 551.97 o
6 2 1 31672.10 31584.40 338.75 o
8 2 1 30107.10 29825.30 493.75 o
10 2 1 25133.60 22369.40 863.75 o
-9 3 1 36.05 48.43 82.43 <
-7 3 1 857.06 833.65 76.92 o
-5 3 1 28.36 31.01 24.73 <
-3 3 1 320258.00 335957.00 954.95 o
-1 3 1 3625.21 3348.61 78.25 o
1 3 1 254.81 366.68 25.00 o
3 3 1 9473.96 9725.17 173.75 o
5 3 1 42366.30 42654.80 449.50 o
7 3 1 81.49 145.60 49.80 <
9 3 1 2126.93 1955.39 195.35 o
-8 4 1 759.24 560.19 128.70 o
-6 4 1 429.75 455.82 76.15 o
-4 4 1 9667.29 9102.02 191.26 o
-2 4 1 14414.10 14673.20 221.27 o
0 4 1 7.49 76.93 22.81 o
2 4 1 435.53 505.14 36.01 o
4 4 1 42581.10 43166.20 513.53 o
6 4 1 25763.10 25674.40 591.25 o
8 4 1 21424.90 19784.50 769.19 o
-7 5 1 1099.00 463.61 131.58 o
-5 5 1 1614.82 1757.38 152.31 o
-3 5 1 164910.00 164094.00 1209.54 o
-1 5 1 328.64 470.37 51.07 o
1 5 1 932.21 947.81 70.90 o
3 5 1 171.83 252.39 59.29 o
5 5 1 30109.00 29811.40 799.76 o
7 5 1 1436.56 671.29 173.42 o
-4 6 1 4970.91 3940.85 467.82 o
-2 6 1 9234.63 8345.06 355.87 o
0 6 1 29.75 0.70 63.38 <
2 6 1 831.67 688.00 100.63 o
4 6 1 20099.40 19535.90 1651.44 o
-10 0 2 28.71 196.28 114.70 <
-8 0 2 348.58 347.42 72.82 o
-6 0 2 318077.00 301204.00 1502.88 o
-4 0 2 49.46 63.72 15.51 o
-2 0 2 3210.78 3392.03 67.54 o
0 0 2 89.66 137.31 14.59 o
2 0 2 77626.20 69061.10 444.49 o
4 0 2 7869.56 7674.23 171.28 o
6 0 2 568.11 614.10 53.94 o
8 0 2 1425.31 1597.70 128.21 o
10 0 2 24667.50 23844.10 793.83 o
-11 1 2 114.90 31.09 90.49 <
-9 1 2 71.13 206.37 58.37 o
-7 1 2 14240.70 14275.10 218.52 o
-5 1 2 18701.50 19067.60 196.03 o
-3 1 2 994.94 963.22 34.94 o
-1 1 2 5948.40 5840.67 71.83 o
1 1 2 98728.70 97630.90 353.64 o
3 1 2 90345.60 83250.60 427.18 o
5 1 2 110230.00 104651.00 526.09 o
7 1 2 55208.90 52868.40 453.21 o
9 1 2 19466.30 19379.50 455.93 o
-10 2 2 592.85 567.78 93.11 o
-8 2 2 353.47 450.63 48.71 o
-6 2 2 308510.00 312149.00 1124.65 o
-4 2 2 3556.51 3328.03 77.46 o
-2 2 2 14255.30 14331.40 147.23 o
0 2 2 3970.32 4160.94 70.91 o
2 2 2 97535.20 98026.80 495.65 o
4 2 2 668.08 750.56 51.22 o
6 2 2 4972.50 4993.26 148.78 o
8 2 2 4457.98 4627.77 208.09 o
10 2 2 30047.00 28604.20 1147.00 o
-9 3 2 32.83 88.93 55.67 <
-7 3 2 19472.00 19235.80 343.19 o
-5 3 2 14182.80 14247.70 206.68 o
-3 3 2 5550.66 5512.49 112.68 o
-1 3 2 3851.94 3909.38 89.97 o
1 3 2 86117.30 87619.90 429.23 o
3 3 2 54836.90 56588.00 482.10 o
5 3 2 47648.90 46382.80 516.13 o
7 3 2 39170.80 38486.10 677.89 o
9 3 2 22092.20 21639.30 729.59 o
-8 4 2 20.24 -109.86 92.14 <
-6 4 2 163097.00 161510.00 1332.12 o
-4 4 2 335.15 359.68 37.56 o
-2 4 2 2813.70 2843.37 97.34 o
0 4 2 357.10 389.32 35.90 o
2 4 2 42433.70 42485.20 384.77 o
4 4 2 1749.77 1745.42 113.06 o
6 4 2 1354.20 1443.12 138.12 o
8 4 2 1756.68 1318.04 208.56 o
-7 5 2 4768.95 3758.63 328.17 o
-5 5 2 8046.14 7993.07 323.17 o
-3 5 2 78.50 195.62 60.99 o
-1 5 2 1768.37 1763.17 108.50 o
1 5 2 22036.00 21469.80 398.30 o
3 5 2 25585.40 24635.60 478.36 o
5 5 2 38628.80 38135.60 989.03 o
7 5 2 21033.50 18069.20 1514.11 o
-2 6 2 567.95 528.77 78.08 o
0 6 2 44.70 49.62 72.76 <
2 6 2 20317.00 17993.10 612.49 o
4 6 2 1391.18 1593.51 414.65 o
-10 0 3 7766.89 7485.95 448.40 o
-8 0 3 9099.09 8884.86 321.02 o
-6 0 3 391.89 431.18 47.50 o
-4 0 3 775.19 804.31 47.33 o
-2 0 3 98368.40 100275.00 463.33 o
0 0 3 58831.40 62333.90 361.56 o
2 0 3 152821.00 132774.00 727.06 o
4 0 3 97006.00 88652.10 672.40 o
6 0 3 41372.20 40741.80 474.17 o
8 0 3 21322.20 22366.10 483.97 o
10 0 3 700.47 594.84 118.86 o
-11 1 3 25.68 204.10 165.38 <
-9 1 3 160068.00 152149.00 1378.68 o
-7 1 3 28.15 127.47 27.47 o
-5 1 3 265.57 362.40 25.56 o
-3 1 3 4124.91 4198.82 74.60 o
-1 1 3 76806.30 80370.50 331.31 o
1 1 3 356.95 395.90 19.63 o
3 1 3 9406.95 8448.18 116.25 o
5 1 3 6291.47 6179.18 124.47 o
7 1 3 62251.50 63604.30 537.02 o
9 1 3 27766.20 28248.60 585.62 o
-10 2 3 8952.78 8694.92 350.87 o
-8 2 3 18914.70 19159.40 349.47 o
-6 2 3 7.43 88.82 20.56 o
-4 2 3 3709.09 3838.47 85.91 o
-2 2 3 86984.90 89417.20 430.06 o
0 2 3 88924.60 90872.60 386.19 o
2 2 3 90190.20 86433.90 464.19 o
4 2 3 121866.00 116541.00 694.56 o
6 2 3 41810.60 42095.00 474.47 o
8 2 3 32348.40 32596.50 588.46 o
10 2 3 243.97 252.96 157.29 <
-9 3 3 134826.00 131125.00 1697.59 o
-7 3 3 354.63 522.71 57.31 o
-5 3 3 2814.31 2814.97 87.85 o
-3 3 3 486.07 557.13 34.39 o
-1 3 3 70713.10 74241.70 429.49 o
1 3 3 628.70 725.20 36.06 o
3 3 3 14545.00 14472.30 243.85 o
5 3 3 2035.32 2064.22 115.73 o
7 3 3 57438.50 60598.00 1026.77 o
9 3 3 24561.80 26002.40 1012.54 o
-8 4 3 8754.93 8293.64 386.52 o
-6 4 3 69.74 315.60 64.42 o
-4 4 3 472.02 490.69 42.62 o
-2 4 3 41097.40 41431.40 392.55 o
0 4 3 31228.40 30982.00 320.58 o
2 4 3 47830.70 45347.80 407.20 o
4 4 3 51231.70 49978.40 706.05 o
6 4 3 24269.70 24041.20 593.90 o
8 4 3 16163.70 15036.20 828.84 o
-7 5 3 35.79 212.34 131.01 <
-5 5 3 30.44 187.31 58.10 o
-3 5 3 1440.93 1334.63 110.93 o
-1 5 3 21090.10 19786.90 381.61 o
1 5 3 79.96 110.16 43.49 <
3 5 3 1342.92 1327.01 113.43 o
5 5 3 2903.71 2906.25 275.65 o
7 5 3 21501.20 17028.40 1546.14 o
-2 6 3 19612.40 18945.30 733.46 o
0 6 3 12677.80 11172.10 415.89 o
2 6 3 21606.10 19316.70 761.00 o
4 6 3 21123.30 19351.10 1570.77 o
-10 0 4 1388.35 1746.45 234.81 o
-8 0 4 1605.60 1607.07 128.05 o
-6 0 4 9439.05 9570.46 216.54 o
-4 0 4 96744.80 96672.10 594.11 o
-2 0 4 286.10 370.79 25.31 o
0 0 4 17163.30 16743.80 188.45 o
2 0 4 14873.50 14188.00 229.06 o
4 0 4 102195.00 94954.10 731.18 o
6 0 4 28778.00 29130.10 411.41 o
8 0 4 1495.24 1756.83 164.18 o
10 0 4 10104.50 11712.70 1034.23 o
-11 1 4 4680.57 4289.43 438.42 o
-9 1 4 406.23 413.68 63.37 o
-7 1 4 425.30 454.50 36.97 o
-5 1 4 85453.70 86636.70 461.33 o
-3 1 4 89664.60 92966.00 409.04 o
-1 1 4 154066.00 154097.00 538.48 o
1 1 4 179983.00 170029.00 567.55 o
3 1 4 57840.60 53242.80 326.47 o
5 1 4 33020.80 33620.60 299.57 o
7 1 4 37.52 107.46 26.25 o
9 1 4 8692.91 8983.62 344.93 o
-10 2 4 33.80 -3.54 85.46 <
-8 2 4 937.48 862.76 66.84 o
-6 2 4 370.27 417.32 34.72 o
-4 2 4 70685.00 73657.10 407.96 o
-2 2 4 7913.79 8101.17 126.25 o
0 2 4 9348.28 9379.77 120.22 o
2 2 4 178.18 266.91 24.04 o
4 2 4 75365.40 73358.40 547.37 o
6 2 4 46919.70 48023.80 560.42 o
8 2 4 973.66 1087.90 107.67 o
-9 3 4 44.57 140.17 86.20 <
-7 3 4 1760.61 1826.73 94.04 o
-5 3 4 40745.90 41326.50 365.23 o
-3 3 4 68950.80 71893.80 460.96 o
-1 3 4 110153.00 112983.00 563.39 o
1 3 4 121842.00 122777.00 576.95 o
3 3 4 24014.80 23784.40 323.24 o
5 3 4 31892.50 31288.30 499.15 o
7 3 4 793.29 960.57 116.88 o
9 3 4 9542.68 10157.10 834.99 o
-8 4 4 577.29 558.95 117.34 o
-6 4 4 1422.24 1400.81 109.60 o
-4 4 4 42971.90 43861.70 433.43 o
-2 4 4 1180.64 1246.53 64.24 o
0 4 4 5026.51 4967.05 125.21 o
2 4 4 2038.75 1988.83 91.65 o
4 4 4 44574.00 44767.30 690.91 o
6 4 4 22610.60 22362.90 580.86 o
8 4 4 877.30 1179.59 320.00 o
-7 5 4 115.97 262.30 109.24 <
-5 5 4 34049.70 34602.30 703.51 o
-3 5 4 22262.60 21967.70 523.42 o
-1 5 4 30309.20 28045.60 490.84 o
1 5 4 39302.90 36330.60 582.35 o
3 5 4 24596.50 23733.00 623.66 o
5 5 4 11533.40 10212.20 502.92 o
-2 6 4 351.15 390.45 123.26 o
0 6 4 2299.55 1876.39 181.69 o
2 6 4 1777.78 1749.57 222.02 o
-10 0 5 2341.43 2634.83 295.28 o
-8 0 5 42077.20 41692.10 668.43 o
-6 0 5 53561.90 55226.20 540.46 o
-4 0 5 89485.10 88527.80 571.58 o
-2 0 5 176645.00 179273.00 746.17 o
0 0 5 146486.00 144124.00 714.81 o
2 0 5 93037.50 83089.20 657.56 o
4 0 5 3782.19 3714.62 139.88 o
6 0 5 34752.70 35485.50 485.01 o
8 0 5 26146.40 27606.60 691.44 o
10 0 5 37053.10 38026.70 1945.11 o
-11 1 5 1072.37 802.54 200.75 o
-9 1 5 231.88 175.31 57.45 o
-7 1 5 41482.60 41671.90 400.20 o
-5 1 5 615.61 728.43 38.39 o
-3 1 5 9231.81 9434.84 119.33 o
-1 1 5 15439.00 15314.80 154.27 o
1 1 5 187130.00 177477.00 597.33 o
3 1 5 66431.00 63967.50 378.54 o
5 1 5 6820.35 6898.55 137.15 o
7 1 5 7257.59 7597.76 176.47 o
9 1 5 293.19 327.55 72.63 o
-10 2 5 706.87 660.82 84.88 o
-8 2 5 21635.80 21612.70 377.99 o
-6 2 5 30966.60 31046.10 286.92 o
-4 2 5 109078.00 110984.00 545.24 o
-2 2 5 95678.80 96082.00 473.30 o
0 2 5 58401.70 57924.00 332.48 o
2 2 5 48151.70 48844.90 336.86 o
4 2 5 241.46 280.71 34.23 o
6 2 5 19422.20 19814.40 358.32 o
8 2 5 12664.00 13123.70 402.55 o
-9 3 5 59.28 197.54 72.17 <
-7 3 5 20647.60 20505.30 417.49 o
-5 3 5 1153.84 1293.47 73.93 o
-3 3 5 630.13 741.06 48.25 o
-1 3 5 6276.78 6488.12 130.96 o
1 3 5 75624.60 76681.70 442.05 o
3 3 5 48773.10 49350.50 501.30 o
5 3 5 950.51 971.01 99.99 o
7 3 5 4190.45 4246.90 272.96 o
9 3 5 1109.49 1488.29 513.87 <
-8 4 5 19365.00 17118.00 576.94 o
-6 4 5 22255.20 22899.90 469.64 o
-4 4 5 44559.50 44693.80 467.87 o
-2 4 5 55238.60 55471.80 515.52 o
0 4 5 41980.80 42033.20 400.64 o
2 4 5 32016.20 30770.40 386.77 o
4 4 5 35.33 170.74 64.60 <
6 4 5 14688.00 14839.30 480.98 o
-7 5 5 23049.60 21474.70 1026.16 o
-5 5 5 356.85 384.74 83.42 o
-3 5 5 4716.56 4481.91 241.38 o
-1 5 5 4395.04 4371.96 197.77 o
1 5 5 57663.10 54232.10 797.16 o
3 5 5 22563.00 22544.90 680.56 o
5 5 5 4157.89 4406.96 437.83 o
-4 6 5 18159.90 19337.00 1292.73 o
-2 6 5 26237.80 22561.40 1150.17 o
0 6 5 22171.00 19350.10 883.29 o
2 6 5 16543.30 13896.90 670.66 o
-10 0 6 29089.20 28478.00 923.14 o
-8 0 6 1710.92 1783.03 131.28 o
-6 0 6 14444.80 14580.60 259.51 o
-4 0 6 196.88 284.94 32.50 o
-2 0 6 184824.00 189971.00 889.56 o
0 0 6 149760.00 147087.00 774.01 o
2 0 6 4147.39 3814.56 133.37 o
4 0 6 11533.40 11090.60 265.04 o
6 0 6 735.36 729.37 69.79 o
8 0 6 58586.80 63024.40 1382.98 o
-11 1 6 19285.20 17102.00 1064.87 o
-9 1 6 25151.30 24484.20 514.34 o
-7 1 6 46675.00 45652.60 437.34 o
-5 1 6 118775.00 120305.00 538.53 o
-3 1 6 56922.80 58347.70 351.67 o
-1 1 6 92653.50 93513.60 447.60 o
1 1 6 603.43 584.72 32.01 o
3 1 6 32583.40 31916.50 293.64 o
5 1 6 36572.10 36494.10 344.50 o
7 1 6 57932.00 60805.70 524.13 o
9 1 6 5516.08 5444.82 290.16 o
-10 2 6 19315.30 18391.90 611.97 o
-8 2 6 77.97 162.80 38.84 o
-6 2 6 4919.36 4878.31 119.93 o
-4 2 6 6148.10 6277.40 124.04 o
-2 2 6 101088.00 104452.00 517.65 o
0 2 6 66289.30 66524.00 364.53 o
2 2 6 143.39 311.41 26.47 o
4 2 6 23560.90 23345.60 299.53 o
6 2 6 2586.24 2808.73 123.59 o
8 2 6 36538.40 38411.60 887.07 o
-9 3 6 12390.50 11768.60 468.14 o
-7 3 6 29810.60 29989.00 553.58 o
-5 3 6 54099.80 53758.40 478.05 o
-3 3 6 40527.90 41255.80 376.36 o
-1 3 6 33119.50 35301.80 313.73 o
1 3 6 243.65 352.28 32.72 o
3 3 6 10208.70 10080.80 226.45 o
5 3 6 27433.20 27359.40 544.01 o
7 3 6 31721.90 32880.10 839.09 o
-8 4 6 359.60 324.10 71.78 o
-6 4 6 4560.04 4566.05 228.26 o
-4 4 6 1393.61 1499.72 86.50 o
-2 4 6 61823.70 63528.80 605.29 o
0 4 6 46449.60 48004.60 439.51 o
2 4 6 1007.70 953.48 73.24 o
4 4 6 8572.15 9191.46 379.49 o
6 4 6 505.67 585.10 108.58 o
-7 5 6 18105.30 14886.10 1481.43 o
-5 5 6 42972.70 43004.00 899.68 o
-3 5 6 19454.70 18671.70 554.30 o
-1 5 6 32661.10 31559.30 650.01 o
1 5 6 742.77 797.95 89.10 o
3 5 6 14916.60 14919.80 558.64 o
5 5 6 13495.10 14544.90 920.31 o
-4 6 6 443.27 1165.62 470.55 <
-2 6 6 29726.40 26074.10 1297.52 o
0 6 6 24473.20 22897.30 1357.75 o
2 6 6 948.43 1035.57 189.93 o
-10 0 7 36712.10 35683.80 1234.86 o
-8 0 7 48661.10 48239.80 811.14 o
-6 0 7 23079.20 23577.00 380.35 o
-4 0 7 47410.50 49534.80 426.43 o
-2 0 7 482.43 612.91 45.82 o
0 0 7 51611.70 49798.40 443.12 o
2 0 7 42511.40 38772.60 458.00 o
4 0 7 119772.00 118115.00 939.77 o
6 0 7 26275.50 28379.00 521.58 o
8 0 7 2425.38 2672.96 290.28 o
-11 1 7 1244.61 1167.22 216.52 o
-9 1 7 1380.57 1369.35 129.77 o
-7 1 7 2091.51 2093.33 90.02 o
-5 1 7 73749.00 75969.90 428.27 o
-3 1 7 64920.10 66988.90 395.46 o
-1 1 7 4413.01 4040.66 86.46 o
1 1 7 20669.50 18794.50 206.28 o
3 1 7 2264.02 2207.59 74.49 o
5 1 7 105891.00 106866.00 658.88 o
7 1 7 5635.96 5942.80 237.06 o
9 1 7 2279.15 2588.26 280.15 o
-10 2 7 20133.90 19871.40 718.39 o
-8 2 7 37113.30 37079.60 538.83 o
-6 2 7 40597.30 41146.70 411.96 o
-4 2 7 32651.80 34181.30 291.64 o
-2 2 7 3892.93 4002.67 102.27 o
0 2 7 32813.60 32919.90 275.97 o
2 2 7 67921.90 67333.70 418.70 o
4 2 7 89825.10 89868.20 614.46 o
6 2 7 9059.52 9742.58 255.45 o
8 2 7 1445.30 1242.12 129.88 o
-9 3 7 2288.89 1924.34 186.02 o
-7 3 7 4479.96 4428.08 213.84 o
-5 3 7 61074.70 62392.60 573.92 o
-3 3 7 28098.70 28838.50 308.77 o
-1 3 7 6937.28 7029.35 134.11 o
1 3 7 23388.90 23648.00 259.68 o
3 3 7 218.34 383.82 45.45 o
5 3 7 59293.70 64879.00 1010.19 o
7 3 7 6575.85 7364.10 437.23 o
-8 4 7 24964.40 22657.50 981.20 o
-6 4 7 19079.20 19296.40 505.77 o
-4 4 7 21665.30 21740.60 361.23 o
-2 4 7 40.85 196.54 38.69 o
0 4 7 19569.00 20120.40 278.71 o
2 4 7 27067.70 28099.30 462.13 o
4 4 7 55938.70 60203.50 1000.45 o
6 4 7 8945.11 9222.11 433.43 o
-7 5 7 436.84 551.90 364.30 <
-5 5 7 24407.40 23747.60 714.20 o
-3 5 7 27735.70 27957.40 704.92 o
-1 5 7 1052.23 1131.62 120.79 o
1 5 7 4113.58 4141.40 241.82 o
3 5 7 542.24 735.95 129.23 o
5 5 7 46701.70 54595.10 2258.13 o
-2 6 7 247.94 634.62 546.64 <
0 6 7 9485.80 7225.05 563.01 o
-10 0 8 2808.59 2726.37 330.36 o
-8 0 8 42123.00 42665.50 782.11 o
-6 0 8 47488.10 48627.90 532.62 o
-4 0 8 138.79 271.16 38.92 o
-2 0 8 20269.40 19423.40 267.88 o
0 0 8 23023.40 21372.90 303.46 o
2 0 8 115488.00 106180.00 844.36 o
4 0 8 4204.03 4038.32 168.31 o
6 0 8 1158.95 1431.52 116.83 o
8 0 8 12182.50 13126.90 644.29 o
-11 1 8 19289.20 17963.40 1703.04 o
-9 1 8 22528.10 23265.80 546.44 o
-7 1 8 30984.50 31161.00 335.00 o
-5 1 8 224.10 298.62 29.61 o
-3 1 8 32381.20 32768.60 277.47 o
-1 1 8 41498.20 41040.50 295.61 o
1 1 8 100233.00 95903.30 537.51 o
3 1 8 22471.80 21546.60 250.06 o
5 1 8 1245.04 1316.80 74.41 o
7 1 8 2188.26 2451.64 175.56 o
-10 2 8 1737.15 1774.95 249.37 o
-8 2 8 55084.70 55676.10 700.34 o
-6 2 8 45232.20 46653.20 460.63 o
-4 2 8 6703.08 6723.67 135.56 o
-2 2 8 11358.80 11548.50 182.72 o
0 2 8 2341.54 2144.28 72.94 o
2 2 8 104033.00 102422.00 561.64 o
4 2 8 14771.30 14981.40 240.08 o
6 2 8 1764.51 1854.58 129.13 o
8 2 8 19602.90 18636.60 764.35 o
-9 3 8 20753.40 18789.20 778.90 o
-7 3 8 31738.40 31200.40 596.46 o
-5 3 8 42.17 130.20 31.34 o
-3 3 8 34148.80 35075.00 397.54 o
-1 3 8 35760.10 37323.40 346.52 o
1 3 8 88908.80 94037.40 579.02 o
3 3 8 9870.12 10367.00 248.92 o
5 3 8 3555.91 3695.85 210.76 o
7 3 8 2968.47 3275.67 295.65 o
-8 4 8 28503.20 27358.80 1093.35 o
-6 4 8 27120.50 28742.00 733.03 o
-4 4 8 1498.89 1589.40 126.88 o
-2 4 8 7225.66 7438.26 211.31 o
0 4 8 2621.31 2702.23 108.86 o
2 4 8 59084.70 63181.30 761.39 o
4 4 8 5150.72 5443.00 316.42 o
6 4 8 699.01 400.44 128.25 o
-5 5 8 691.27 1111.07 202.01 o
-3 5 8 8479.11 8468.67 426.26 o
-1 5 8 12277.30 12611.90 471.14 o
1 5 8 31283.00 31561.20 633.76 o
3 5 8 8906.67 9194.11 493.02 o
-10 0 9 10935.80 9800.91 669.50 o
-8 0 9 43.33 198.24 55.89 o
-6 0 9 9899.03 10342.90 256.95 o
-4 0 9 66287.70 67685.70 594.93 o
-2 0 9 100040.00 101856.00 735.53 o
0 0 9 13249.20 13284.50 254.75 o
2 0 9 3619.33 3297.60 139.87 o
4 0 9 3470.84 3608.08 171.59 o
6 0 9 45623.70 48101.70 817.72 o
8 0 9 3724.88 3991.57 358.04 o
-9 1 9 21358.20 21498.30 535.52 o
-7 1 9 923.22 965.29 63.59 o
-5 1 9 22862.00 23228.90 273.95 o
-3 1 9 2174.80 2107.96 72.48 o
-1 1 9 114568.00 113029.00 543.88 o
1 1 9 20467.10 19508.20 242.78 o
3 1 9 6327.04 6124.24 140.44 o
5 1 9 22185.60 22847.60 315.90 o
7 1 9 69737.80 75442.00 1031.51 o
-10 2 9 15904.90 13381.10 740.29 o
-8 2 9 669.61 841.81 98.85 o
-6 2 9 19116.00 19487.50 315.38 o
-4 2 9 35455.30 35653.60 330.58 o
-2 2 9 118024.00 120594.00 615.11 o
0 2 9 22223.20 22723.70 267.29 o
2 2 9 11900.60 11742.00 200.13 o
4 2 9 302.60 420.67 43.94 o
6 2 9 56081.80 58393.60 852.08 o
8 2 9 1127.80 1194.22 397.89 o
-9 3 9 23558.20 21252.40 945.68 o
-7 3 9 1006.36 1069.68 130.73 o
-5 3 9 7028.65 7125.05 204.54 o
-3 3 9 702.85 682.76 52.13 o
-1 3 9 104213.00 107091.00 702.73 o
1 3 9 14600.60 15033.90 241.24 o
3 3 9 10029.30 10644.20 272.38 o
5 3 9 17101.60 18539.90 518.12 o
7 3 9 65535.90 68339.20 1730.18 o
-8 4 9 210.22 291.27 76.76 o
-6 4 9 8467.31 8585.61 400.62 o
-4 4 9 24992.20 25978.20 547.74 o
-2 4 9 56630.30 59076.20 618.67 o
0 4 9 8928.57 9279.87 212.62 o
2 4 9 3495.85 3715.41 155.45 o
4 4 9 823.53 992.49 129.67 o
6 4 9 32033.20 34667.40 1243.57 o
-5 5 9 10084.80 9853.36 1073.95 o
-3 5 9 310.35 253.41 141.94 <
-1 5 9 35897.20 36935.00 828.57 o
1 5 9 6415.44 6675.46 301.47 o
3 5 9 663.70 909.55 199.16 o
-10 0 10 3670.00 3579.20 493.23 o
-8 0 10 8268.19 8328.11 336.45 o
-6 0 10 207.53 306.35 47.41 o
-4 0 10 100667.00 102266.00 780.94 o
-2 0 10 19718.00 19544.60 295.81 o
0 0 10 2667.15 2798.22 118.23 o
2 0 10 48599.10 45296.60 656.22 o
4 0 10 92947.00 88576.00 1017.09 o
6 0 10 2008.89 2185.84 201.61 o
8 0 10 405.03 468.02 170.68 <
-9 1 10 13794.60 13580.40 457.77 o
-7 1 10 25958.00 26432.00 395.42 o
-5 1 10 86875.20 88854.00 580.75 o
-3 1 10 21963.90 22125.20 259.79 o
-1 1 10 3416.63 3295.36 85.40 o
1 1 10 5166.09 5130.64 128.89 o
3 1 10 71555.90 66705.10 520.86 o
5 1 10 10893.60 11248.60 237.61 o
7 1 10 1824.28 1899.98 165.87 o
-10 2 10 716.73 819.02 185.94 o
-8 2 10 3932.80 4050.84 217.25 o
-6 2 10 2490.25 2744.20 126.57 o
-4 2 10 102055.00 103961.00 665.70 o
-2 2 10 3985.21 3813.35 102.41 o
0 2 10 6219.86 6526.38 140.79 o
2 2 10 19740.80 19369.30 271.71 o
4 2 10 94320.80 95979.40 703.20 o
6 2 10 1.07 49.43 69.81 <
-9 3 10 8846.43 7018.91 873.96 o
-7 3 10 11789.40 11961.10 416.68 o
-5 3 10 55744.30 57648.90 652.16 o
-3 3 10 25312.50 26665.20 354.51 o
-1 3 10 1230.51 1325.09 81.47 o
1 3 10 314.37 469.12 48.56 o
3 3 10 47635.20 49494.30 637.26 o
5 3 10 2870.67 3453.42 228.21 o
-8 4 10 3713.39 3811.58 509.56 o
-6 4 10 294.53 493.42 105.42 o
-4 4 10 55946.50 58585.30 897.71 o
-2 4 10 5496.70 5927.68 254.10 o
0 4 10 1753.01 1732.57 121.69 o
2 4 10 17070.80 18147.50 458.29 o
4 4 10 55637.00 60454.20 1063.35 o
6 4 10 256.26 260.42 208.95 <
-3 5 10 5026.09 5183.91 384.03 o
-1 5 10 1499.07 1523.73 188.37 o
1 5 10 3009.26 2899.47 212.16 o
3 5 10 32200.20 33238.60 1309.42 o
-8 0 11 53907.80 53703.10 900.16 o
-6 0 11 9292.43 9958.41 314.54 o
-4 0 11 11523.50 11586.10 261.56 o
-2 0 11 5105.66 5183.02 167.02 o
0 0 11 135333.00 128731.00 903.57 o
2 0 11 8039.86 7429.99 246.39 o
4 0 11 1192.90 1269.38 118.68 o
6 0 11 4535.61 5204.63 357.46 o
8 0 11 34311.00 29820.40 1885.09 o
-9 1 11 419.73 704.22 142.76 o
-7 1 11 55699.90 56357.70 686.62 o
-5 1 11 13988.70 14198.50 258.25 o
-3 1 11 6282.25 6493.72 145.68 o
-1 1 11 48067.90 46991.00 365.82 o
1 1 11 159363.00 151716.00 819.43 o
3 1 11 131.07 217.64 33.89 o
5 1 11 2151.32 2086.72 140.71 o
7 1 11 7256.97 7326.95 344.81 o
-8 2 11 30258.90 30213.00 629.68 o
-6 2 11 8599.96 8520.43 227.15 o
-4 2 11 1215.90 1207.45 76.15 o
-2 2 11 3399.43 3417.27 106.49 o
0 2 11 70942.40 70873.40 530.68 o
2 2 11 5460.65 5259.58 150.95 o
4 2 11 7018.22 6904.17 200.67 o
6 2 11 4235.44 4565.19 248.75 o
-7 3 11 34267.60 35134.80 743.16 o
-5 3 11 5277.67 5575.81 239.13 o
-3 3 11 1228.88 1280.94 78.03 o
-1 3 11 21724.50 22814.60 341.27 o
1 3 11 93186.30 94247.50 779.83 o
3 3 11 281.00 530.38 76.21 o
5 3 11 446.69 494.45 89.66 o
-6 4 11 5033.11 4623.52 273.28 o
-4 4 11 2462.31 2653.36 199.49 o
-2 4 11 2145.19 2086.71 151.69 o
0 4 11 55398.30 58806.40 854.11 o
2 4 11 2929.82 3184.23 198.61 o
4 4 11 2048.30 2118.52 192.27 o
-3 5 11 2425.58 1993.77 410.22 o
-1 5 11 19223.20 19624.40 947.25 o
1 5 11 64343.40 77345.30 2891.29 o
3 5 11 281.76 1658.64 765.94 <
-8 0 12 4601.13 4909.76 332.65 o
-6 0 12 9722.02 10453.90 363.71 o
-4 0 12 19134.20 19247.60 356.46 o
-2 0 12 156086.00 151364.00 1069.21 o
0 0 12 116.55 202.39 36.81 o
2 0 12 2984.69 2900.07 170.01 o
4 0 12 12453.60 12343.60 424.05 o
6 0 12 33894.40 35036.40 979.07 o
-9 1 12 8214.04 8321.08 484.84 o
-7 1 12 3214.73 3176.02 182.70 o
-5 1 12 320.30 419.64 47.86 o
-3 1 12 69300.60 69447.80 542.63 o
-1 1 12 8108.27 7668.16 152.70 o
1 1 12 6842.94 6362.76 168.32 o
3 1 12 3965.57 3954.23 140.96 o
5 1 12 50075.10 50495.20 768.45 o
7 1 12 18883.70 19542.20 1010.14 o
-8 2 12 5863.98 6373.72 306.56 o
-6 2 12 1687.52 1687.28 117.06 o
-4 2 12 21345.60 21296.60 347.94 o
-2 2 12 89989.70 85722.50 596.17 o
0 2 12 142.36 210.41 33.71 o
2 2 12 36.20 109.27 33.93 o
4 2 12 14622.50 14932.70 354.34 o
6 2 12 18075.90 17169.60 583.87 o
-7 3 12 1326.23 1250.71 138.08 o
-5 3 12 2192.71 2126.28 157.58 o
-3 3 12 44215.40 45492.50 548.01 o
-1 3 12 10832.20 11090.90 263.34 o
1 3 12 6819.37 6843.91 228.69 o
3 3 12 580.26 683.62 92.41 o
5 3 12 33777.40 35776.90 927.79 o
-6 4 12 2317.11 2139.25 243.10 o
-4 4 12 11921.90 12384.20 421.05 o
-2 4 12 67511.60 69066.10 1015.83 o
0 4 12 4.76 134.52 85.97 <
2 4 12 492.03 582.43 110.46 o
4 4 12 8609.85 8631.29 555.59 o
-1 5 12 1118.48 1197.06 307.54 o
1 5 12 1840.51 1606.79 451.68 o
-8 0 13 757.34 986.52 240.85 o
-6 0 13 45048.80 47978.40 874.57 o
-4 0 13 5239.15 5224.92 238.91 o
-2 0 13 6602.51 6335.84 212.65 o
0 0 13 13314.30 12481.50 308.32 o
2 0 13 47816.60 45656.40 778.60 o
4 0 13 39079.50 39084.90 902.84 o
6 0 13 3661.16 3774.35 325.31 o
-9 1 13 724.60 566.37 186.98 o
-7 1 13 16104.00 16886.60 493.22 o
-5 1 13 89980.90 90684.30 794.78 o
-3 1 13 126.77 172.41 36.74 o
-1 1 13 3031.58 3016.19 114.75 o
1 1 13 9258.06 8981.26 214.52 o
3 1 13 35291.50 34672.10 519.87 o
5 1 13 1679.80 1797.41 145.70 o
-8 2 13 2874.59 2975.22 226.01 o
-6 2 13 53035.00 53555.00 805.91 o
-4 2 13 10514.10 10589.50 270.09 o
-2 2 13 1101.34 1129.08 81.20 o
0 2 13 3918.42 4053.70 149.45 o
2 2 13 57908.30 57762.00 689.56 o
4 2 13 22162.10 22236.10 488.63 o
6 2 13 899.54 1283.46 296.55 o
-7 3 13 18545.50 18286.30 593.59 o
-5 3 13 66198.60 66409.60 947.00 o
-3 3 13 1938.07 2077.67 136.69 o
-1 3 13 2175.71 2299.47 144.27 o
1 3 13 14415.40 14187.20 394.46 o
3 3 13 26281.90 27899.50 605.73 o
5 3 13 103.17 604.42 212.43 <
-4 4 13 3471.15 3737.24 248.91 o
-2 4 13 1721.73 1691.61 150.77 o
0 4 13 4218.63 4565.16 279.69 o
2 4 13 33207.50 35822.50 962.52 o
-8 0 14 51064.00 50285.70 1552.49 o
-6 0 14 289.41 410.23 95.04 o
-4 0 14 33.39 145.52 57.74 <
-2 0 14 9229.98 9051.50 277.63 o
0 0 14 21566.10 21357.70 473.13 o
2 0 14 315.30 278.98 62.70 o
4 0 14 22248.90 22738.20 781.93 o
6 0 14 32602.40 28908.30 1444.05 o
-9 1 14 28966.90 27929.70 1433.51 o
-7 1 14 2771.80 2965.20 199.44 o
-5 1 14 6453.76 6449.63 218.62 o
-3 1 14 3714.28 3815.54 144.93 o
-1 1 14 46978.30 46179.40 494.07 o
1 1 14 25345.60 24660.20 367.23 o
3 1 14 1360.01 1396.61 122.79 o
5 1 14 3818.41 3684.74 220.35 o
-8 2 14 60221.10 54753.90 1249.57 o
-6 2 14 2.86 -47.03 59.65 <
-4 2 14 2144.21 2241.92 138.05 o
-2 2 14 12250.40 12357.70 273.28 o
0 2 14 34923.30 35060.70 537.33 o
2 2 14 16.83 178.48 54.97 o
4 2 14 31616.90 31614.60 669.46 o
-7 3 14 1087.33 1213.40 190.11 o
-5 3 14 1595.18 1682.51 154.75 o
-3 3 14 4284.45 4621.60 211.69 o
-1 3 14 48463.50 49918.50 764.97 o
1 3 14 22021.00 22332.70 541.70 o
3 3 14 38.18 41.20 71.65 <
-4 4 14 423.41 232.94 170.46 <
-2 4 14 6938.72 6918.42 359.16 o
0 4 14 17748.70 16991.90 560.72 o
2 4 14 118.51 902.32 324.99 <
-8 0 15 1777.73 2118.75 363.55 o
-6 0 15 492.52 706.79 199.98 o
-4 0 15 55162.00 54685.00 965.00 o
-2 0 15 25010.40 25052.30 510.45 o
0 0 15 1414.41 1602.24 143.13 o
2 0 15 3614.70 3466.52 261.81 o
4 0 15 27353.00 26762.20 872.43 o
-9 1 15 208.12 933.70 418.54 <
-7 1 15 482.64 539.33 88.08 o
-5 1 15 13901.60 14126.20 418.88 o
-3 1 15 34149.50 34560.30 508.77 o
-1 1 15 318.84 343.23 49.11 o
1 1 15 33603.80 32275.20 540.18 o
3 1 15 41380.10 40968.60 703.29 o
5 1 15 6967.87 6285.82 455.45 o
-6 2 15 3977.25 4279.92 249.36 o
-4 2 15 46995.80 48021.60 751.01 o
-2 2 15 38081.30 39050.80 612.82 o
0 2 15 1343.77 1448.55 120.46 o
2 2 15 10258.60 10457.60 379.29 o
4 2 15 23537.40 23441.10 750.69 o
-7 3 15 1285.77 871.50 202.19 o
-5 3 15 6704.35 6584.68 308.03 o
-3 3 15 32354.00 32955.90 618.27 o
-1 3 15 1653.87 1706.90 140.52 o
1 3 15 31064.60 31734.20 666.80 o
3 3 15 24595.00 26963.70 1195.70 o
-4 4 15 31405.30 28326.30 2064.62 o
-2 4 15 17984.10 18598.20 939.89 o
0 4 15 887.96 900.49 157.19 o
-8 0 16 8313.68 7914.63 793.87 o
-6 0 16 24690.60 24423.80 797.52 o
-4 0 16 19.04 146.66 59.80 <
-2 0 16 33027.20 31670.70 701.09 o
0 0 16 69048.50 66844.40 1269.97 o
2 0 16 15746.50 15250.80 571.57 o
4 0 16 7683.64 8250.32 736.27 o
-7 1 16 30847.80 30381.10 782.15 o
-5 1 16 21041.40 20925.70 524.57 o
-3 1 16 1271.49 1323.94 109.84 o
-1 1 16 3566.41 3477.03 190.01 o
1 1 16 42215.70 40204.10 719.71 o
3 1 16 10646.70 10347.20 381.77 o
-6 2 16 16845.20 16609.90 560.55 o
-4 2 16 1557.84 1652.67 145.24 o
-2 2 16 21609.10 21688.00 470.00 o
0 2 16 40444.40 40061.80 725.88 o
2 2 16 9703.95 9412.71 398.39 o
4 2 16 13461.80 12848.00 870.25 o
-5 3 16 17639.10 17941.60 713.99 o
-3 3 16 3387.57 3582.61 245.26 o
-1 3 16 3705.09 3805.81 237.85 o
1 3 16 23012.60 20785.90 859.45 o
-2 4 16 15926.70 18118.10 1910.35 o
-8 0 17 16459.90 17122.10 1578.45 o
-6 0 17 37.20 120.16 135.74 <
-4 0 17 9789.92 9206.14 461.48 o
-2 0 17 41025.20 40190.80 916.77 o
0 0 17 20631.70 20203.50 710.63 o
2 0 17 2220.41 2125.87 282.36 o
-7 1 17 99.22 -55.27 134.05 <
-5 1 17 29526.20 29555.20 692.22 o
-3 1 17 39351.20 39237.50 666.47 o
-1 1 17 15326.10 14663.20 461.80 o
1 1 17 17779.40 17133.10 509.78 o
3 1 17 1299.12 1393.27 347.50 o
-6 2 17 884.64 847.48 148.73 o
-4 2 17 3537.13 3470.27 224.63 o
-2 2 17 25936.60 25236.80 635.16 o
0 2 17 10333.90 10007.70 414.45 o
2 2 17 364.42 436.62 101.58 o
-5 3 17 15195.90 16392.30 1729.77 o
-3 3 17 30840.70 30941.00 1006.39 o
-1 3 17 6628.37 5982.32 576.51 o
1 3 17 12903.60 15867.80 1639.03 o
-6 0 18 22685.90 21266.10 2234.62 o
-4 0 18 9455.28 9434.60 540.25 o
-2 0 18 17313.60 16449.60 765.41 o
0 0 18 2337.57 2020.11 272.70 o
-5 1 18 21861.20 19884.70 783.45 o
-3 1 18 10260.60 9619.09 379.85 o
-1 1 18 2185.10 2239.35 220.92 o
1 1 18 2794.00 2601.57 308.74 o
-6 2 18 30592.20 24569.40 1482.43 o
-4 2 18 6632.82 5927.36 561.40 o
-2 2 18 7138.85 7007.47 539.93 o
0 2 18 1261.14 1532.84 231.08 o
-1 3 18 2863.92 1955.24 501.93 o
-4 0 19 336.70 446.35 165.57 <
-2 0 19 2680.47 2426.92 418.27 o
-5 1 19 12170.00 11215.20 1057.95 o
-3 1 19 1165.25 1089.06 206.27 o
-1 1 19 2829.88 2524.88 454.62 o
0 2 19 7514.95 6216.15 892.52 o
-2 0 20 5248.41 4172.39 824.53 o
