#------------------------------------------------------------------------------
#$Date: 2021-04-14 13:21:55 +0300 (Wed, 14 Apr 2021) $
#$Revision: 264166 $
#$URL: file:///home/coder/svn-repositories/cod/cif/1/56/17/1561771.cif $
#------------------------------------------------------------------------------
#
# This file is available in the Crystallography Open Database (COD),
# http://www.crystallography.net/
#
# All data on this site have been placed in the public domain by the
# contributors.
#
data_1561771
loop_
_publ_author_name
'Bykova, E.'
'Gou, H.'
'Bykov, M.'
'Hanfland, M.'
'Dubrovinsky, L.'
'Dubrovinskaia, N.'
_publ_section_title
;
 Crystal structures and compressibility of novel iron borides Fe2B7 and Fe
 B50 synthesized at high pressure and high temperature
;
_journal_name_full               'Journal of Solid State Chemistry'
_journal_page_first              102
_journal_page_last               109
_journal_paper_doi               10.1016/j.jssc.2015.06.040
_journal_volume                  230
_journal_year                    2015
_chemical_absolute_configuration .
_chemical_formula_moiety         'B50 Fe1.01'
_chemical_formula_sum            'B50 Fe1.01'
_chemical_formula_weight         596.9
_chemical_name_common            'Iron Boron (1.01/50)'
_chemical_name_systematic        'Iron Boron (1.01/50)'
_space_group_IT_number           134
_space_group_name_Hall           '-P 4ac 2bc'
_space_group_name_H-M_alt        'P 42/n n m :2'
_symmetry_cell_setting           tetragonal
_symmetry_Int_Tables_number      134
_symmetry_space_group_name_Hall  '-P 4ac 2bc'
_symmetry_space_group_name_H-M   'P 42/n n m :2'
_cell_angle_alpha                90
_cell_angle_beta                 90
_cell_angle_gamma                90
_cell_formula_units_Z            1
_cell_length_a                   8.73470(10)
_cell_length_b                   8.73470(10)
_cell_length_c                   4.92570(10)
_cell_measurement_reflns_used    458
_cell_measurement_temperature    293
_cell_measurement_theta_max      19.33
_cell_measurement_theta_min      2.72
_cell_volume                     375.806(10)
_computing_cell_refinement
;
CrysAlisPro, Agilent Technologies,
Version 1.171.37.35 (release 13-08-2014 CrysAlis171 .NET)
(compiled Aug 13 2014,18:06:01)
;
_computing_data_collection
;
CrysAlisPro, Agilent Technologies,
Version 1.171.37.35 (release 13-08-2014 CrysAlis171 .NET)
(compiled Aug 13 2014,18:06:01)
;
_computing_data_reduction
;
CrysAlisPro, Agilent Technologies,
Version 1.171.37.35 (release 13-08-2014 CrysAlis171 .NET)
(compiled Aug 13 2014,18:06:01)
;
_computing_structure_refinement  'Jana2006 (Petricek, 2014)'
_computing_structure_solution    'SHELXS-2013 (Sheldrick, 2013)'
_diffrn_ambient_pressure         16800000
_diffrn_ambient_temperature      293
_diffrn_detector                 'MAR555 flatpanel detector'
_diffrn_measured_fraction_theta_full 0.96
_diffrn_measured_fraction_theta_max 0.66
_diffrn_measurement_device
;
customized omega-circle diffractometer
;
_diffrn_measurement_device_type  'ESRF, beamline ID09A diffractometer'
_diffrn_measurement_method       '\w scans'
_diffrn_radiation_monochromator  synchrotron
_diffrn_radiation_probe          x-ray
_diffrn_radiation_source         synchrotron
_diffrn_radiation_type           synchrotron
_diffrn_radiation_wavelength     0.41409
_diffrn_reflns_av_R_equivalents  0.0303
_diffrn_reflns_av_unetI/netI     0.0341
_diffrn_reflns_limit_h_max       9
_diffrn_reflns_limit_h_min       -7
_diffrn_reflns_limit_k_max       12
_diffrn_reflns_limit_k_min       -13
_diffrn_reflns_limit_l_max       7
_diffrn_reflns_limit_l_min       -6
_diffrn_reflns_number            864
_diffrn_reflns_theta_full        13.59
_diffrn_reflns_theta_max         19.52
_diffrn_reflns_theta_min         1.92
_diffrn_source                   synchrotron
_exptl_absorpt_coefficient_mu    0.246
_exptl_absorpt_correction_T_max  1
_exptl_absorpt_correction_T_min  0.584
_exptl_absorpt_correction_type   multi-scan
_exptl_absorpt_process_details
;
CrysAlisPro, Agilent Technologies,
Version 1.171.37.35 (release 13-08-2014 CrysAlis171 .NET)
(compiled Aug 13 2014,18:06:01)
Empirical absorption correction using spherical harmonics,
 implemented in SCALE3 ABSPACK scaling algorithm.
;
_exptl_crystal_colour            black
_exptl_crystal_density_diffrn    2.6366
_exptl_crystal_description       plate
_exptl_crystal_F_000             276
_exptl_crystal_size_max          0.020
_exptl_crystal_size_mid          0.020
_exptl_crystal_size_min          0.005
_refine_diff_density_max         0.56
_refine_diff_density_min         -0.37
_refine_ls_extinction_method     none
_refine_ls_goodness_of_fit_gt    2.55
_refine_ls_goodness_of_fit_ref   2.47
_refine_ls_number_constraints    0
_refine_ls_number_parameters     35
_refine_ls_number_reflns         297
_refine_ls_number_restraints     0
_refine_ls_R_factor_all          0.0518
_refine_ls_R_factor_gt           0.0476
_refine_ls_shift/su_max          0.0003
_refine_ls_shift/su_mean         0.0000
_refine_ls_structure_factor_coef Fsqd
_refine_ls_weighting_details     w=1/(\s^2^(I)+0.0004I^2^)
_refine_ls_weighting_scheme      sigma
_refine_ls_wR_factor_gt          0.1133
_refine_ls_wR_factor_ref         0.1165
_reflns_number_gt                267
_reflns_number_total             297
_reflns_threshold_expression     I>2\s(I)
_cod_data_source_file            feb50_16.8GPa.cif
_cod_data_source_block           Fe1.0B50_16.8GPa
_cod_depositor_comments
;
The following automatic conversions were performed:

data item '_diffrn_radiation_probe' value 'X-ray' was changed to
'x-ray' in accordance with the built-in table derived from the CIF
Core dictionary named 'cif_core.dic' version 2.4.5 last updated on
2014-11-21.

Automatic conversion script
Id: cif_fix_values 8369 2020-08-20 11:38:08Z andrius 
;
_cod_original_sg_symbol_H-M      'P 42/n n m'
_cod_database_code               1561771
loop_
_symmetry_equiv_pos_site_id
_symmetry_equiv_pos_as_xyz
1 x,y,z
2 -x+1/2,-y+1/2,z
3 -y+1/2,x,z+1/2
4 y,-x+1/2,z+1/2
5 -x+1/2,y,-z+1/2
6 x,-y+1/2,-z+1/2
7 y,x,-z
8 -y+1/2,-x+1/2,-z
9 -x,-y,-z
10 x+1/2,y+1/2,-z
11 y+1/2,-x,-z+1/2
12 -y,x+1/2,-z+1/2
13 x+1/2,-y,z+1/2
14 -x,y+1/2,z+1/2
15 -y,-x,z
16 y+1/2,x+1/2,z
loop_
_atom_site_label
_atom_site_type_symbol
_atom_site_fract_x
_atom_site_fract_y
_atom_site_fract_z
_atom_site_adp_type
_atom_site_U_iso_or_equiv
_atom_site_site_symmetry_multiplicity
_atom_site_occupancy
_atom_site_calc_flag
_atom_site_refinement_flags
_atom_site_disorder_assembly
_atom_site_disorder_group
Fe1 Fe -0.25 0.25 0.25 Uani 0.0108(4) 2 0.5049 d . . .
B4 B -0.0752(2) -0.1568(3) 0.1488(4) Uani 0.0093(6) 16 1 d . . .
B5 B -0.1685(2) 0.0225(2) 0.1623(4) Uani 0.0077(5) 16 1 d . . .
B2 B 0.1229(2) -0.1229(2) 0.1406(5) Uani 0.0079(6) 8 1 d . . .
B3 B 0.0032(2) -0.0032(2) 0.3349(5) Uani 0.0065(6) 8 1 d . . .
B1 B 0.25 -0.25 0.25 Uani 0.0082(12) 2 1 d . . .
loop_
_atom_site_aniso_label
_atom_site_aniso_type_symbol
_atom_site_aniso_U_11
_atom_site_aniso_U_22
_atom_site_aniso_U_33
_atom_site_aniso_U_12
_atom_site_aniso_U_13
_atom_site_aniso_U_23
Fe1 Fe 0.0053(6) 0.0053(6) 0.0218(8) 0 0 0
B4 B 0.0087(10) 0.0121(11) 0.0071(9) 0.0003(10) 0.0008(6) -0.0035(6)
B5 B 0.0075(10) 0.0098(10) 0.0057(8) -0.0009(10) -0.0003(6) 0.0001(6)
B2 B 0.0088(10) 0.0088(10) 0.0062(12) -0.0032(14) 0.0003(6) -0.0003(6)
B3 B 0.0077(10) 0.0077(10) 0.0040(11) 0.0002(13) 0.0008(6) -0.0008(6)
B1 B 0.0085(19) 0.0085(19) 0.008(2) 0 0 0
loop_
_atom_type_symbol
_atom_type_scat_dispersion_real
_atom_type_scat_dispersion_imag
_atom_type_scat_source
B -0.0003 0.0002 'International Tables Vol C tables 4.2.6.8 and 6.1.1.1'
Fe 0.1991 0.3106 'International Tables Vol C tables 4.2.6.8 and 6.1.1.1'
loop_
_geom_angle_atom_site_label_1
_geom_angle_atom_site_label_2
_geom_angle_atom_site_label_3
_geom_angle_site_symmetry_1
_geom_angle_site_symmetry_2
_geom_angle_site_symmetry_3
_geom_angle
B5 Fe1 B5 . . 2_455 156.87(7)
B5 Fe1 B5 . . 5_455 45.48(7)
B5 Fe1 B5 . . 6_555 141.40(7)
B5 Fe1 B5 . . 11_455 92.30(7)
B5 Fe1 B5 . . 12_555 92.30(7)
B5 Fe1 B5 . . 15_555 49.47(7)
B5 Fe1 B5 . . 16_455 124.72(7)
B5 Fe1 B2 . . 3_455 83.73(7)
B5 Fe1 B2 . . 4_555 114.83(7)
B5 Fe1 B2 . . 7_555 44.32(7)
B5 Fe1 B2 . . 8_455 113.88(7)
B5 Fe1 B1 . . 3_454 78.44(5)
B5 Fe1 B1 . . 3_455 101.56(5)
B5 Fe1 B5 2_455 . 5_455 141.40(7)
B5 Fe1 B5 2_455 . 6_555 45.48(7)
B5 Fe1 B5 2_455 . 11_455 92.30(7)
B5 Fe1 B5 2_455 . 12_555 92.30(7)
B5 Fe1 B5 2_455 . 15_555 124.72(7)
B5 Fe1 B5 2_455 . 16_455 49.47(7)
B5 Fe1 B2 2_455 . 3_455 114.83(7)
B5 Fe1 B2 2_455 . 4_555 83.73(7)
B5 Fe1 B2 2_455 . 7_555 113.88(7)
B5 Fe1 B2 2_455 . 8_455 44.32(7)
B5 Fe1 B1 2_455 . 3_454 78.44(5)
B5 Fe1 B1 2_455 . 3_455 101.56(5)
B5 Fe1 B5 5_455 . 6_555 156.87(7)
B5 Fe1 B5 5_455 . 11_455 49.47(7)
B5 Fe1 B5 5_455 . 12_555 124.72(7)
B5 Fe1 B5 5_455 . 15_555 92.30(7)
B5 Fe1 B5 5_455 . 16_455 92.30(7)
B5 Fe1 B2 5_455 . 3_455 44.32(7)
B5 Fe1 B2 5_455 . 4_555 113.88(7)
B5 Fe1 B2 5_455 . 7_555 83.73(7)
B5 Fe1 B2 5_455 . 8_455 114.83(7)
B5 Fe1 B1 5_455 . 3_454 101.56(5)
B5 Fe1 B1 5_455 . 3_455 78.44(5)
B5 Fe1 B5 6_555 . 11_455 124.72(7)
B5 Fe1 B5 6_555 . 12_555 49.47(7)
B5 Fe1 B5 6_555 . 15_555 92.30(7)
B5 Fe1 B5 6_555 . 16_455 92.30(7)
B5 Fe1 B2 6_555 . 3_455 113.88(7)
B5 Fe1 B2 6_555 . 4_555 44.32(7)
B5 Fe1 B2 6_555 . 7_555 114.83(7)
B5 Fe1 B2 6_555 . 8_455 83.73(7)
B5 Fe1 B1 6_555 . 3_454 101.56(5)
B5 Fe1 B1 6_555 . 3_455 78.44(5)
B5 Fe1 B5 11_455 . 12_555 156.87(7)
B5 Fe1 B5 11_455 . 15_555 141.40(7)
B5 Fe1 B5 11_455 . 16_455 45.48(7)
B5 Fe1 B2 11_455 . 3_455 44.32(7)
B5 Fe1 B2 11_455 . 4_555 113.88(7)
B5 Fe1 B2 11_455 . 7_555 114.83(7)
B5 Fe1 B2 11_455 . 8_455 83.73(7)
B5 Fe1 B1 11_455 . 3_454 101.56(5)
B5 Fe1 B1 11_455 . 3_455 78.44(5)
B5 Fe1 B5 12_555 . 15_555 45.48(7)
B5 Fe1 B5 12_555 . 16_455 141.40(7)
B5 Fe1 B2 12_555 . 3_455 113.88(7)
B5 Fe1 B2 12_555 . 4_555 44.32(7)
B5 Fe1 B2 12_555 . 7_555 83.73(7)
B5 Fe1 B2 12_555 . 8_455 114.83(7)
B5 Fe1 B1 12_555 . 3_454 101.56(5)
B5 Fe1 B1 12_555 . 3_455 78.44(5)
B5 Fe1 B5 15_555 . 16_455 156.87(7)
B5 Fe1 B2 15_555 . 3_455 114.83(7)
B5 Fe1 B2 15_555 . 4_555 83.73(7)
B5 Fe1 B2 15_555 . 7_555 44.32(7)
B5 Fe1 B2 15_555 . 8_455 113.88(7)
B5 Fe1 B1 15_555 . 3_454 78.44(5)
B5 Fe1 B1 15_555 . 3_455 101.56(5)
B5 Fe1 B2 16_455 . 3_455 83.73(7)
B5 Fe1 B2 16_455 . 4_555 114.83(7)
B5 Fe1 B2 16_455 . 7_555 113.88(7)
B5 Fe1 B2 16_455 . 8_455 44.32(7)
B5 Fe1 B1 16_455 . 3_454 78.44(5)
B5 Fe1 B1 16_455 . 3_455 101.56(5)
B2 Fe1 B2 3_455 . 4_555 78.44(8)
B2 Fe1 B2 3_455 . 7_555 126.88(7)
B2 Fe1 B2 3_455 . 8_455 126.88(7)
B2 Fe1 B1 3_455 . 3_454 140.78(5)
B2 Fe1 B1 3_455 . 3_455 39.22(5)
B2 Fe1 B2 4_555 . 7_555 126.88(7)
B2 Fe1 B2 4_555 . 8_455 126.88(7)
B2 Fe1 B1 4_555 . 3_454 140.78(5)
B2 Fe1 B1 4_555 . 3_455 39.22(5)
B2 Fe1 B2 7_555 . 8_455 78.44(8)
B2 Fe1 B1 7_555 . 3_454 39.22(5)
B2 Fe1 B1 7_555 . 3_455 140.78(5)
B2 Fe1 B1 8_455 . 3_454 39.22(5)
B2 Fe1 B1 8_455 . 3_455 140.78(5)
B1 Fe1 B1 3_454 . 3_455 180.0(5)
B4 B4 B4 6_545 . 7_555 140.52(15)
B4 B4 B5 6_545 . . 137.43(14)
B4 B4 B5 6_545 . 7_555 113.94(14)
B4 B4 B2 6_545 . . 98.96(14)
B4 B4 B3 6_545 . . 112.17(14)
B4 B4 B5 7_555 . . 59.43(11)
B4 B4 B5 7_555 . 7_555 59.94(11)
B4 B4 B2 7_555 . . 107.95(15)
B4 B4 B3 7_555 . . 106.23(15)
B5 B4 B5 . . 7_555 107.97(14)
B5 B4 B2 . . . 107.81(15)
B5 B4 B3 . . . 59.02(11)
B5 B4 B2 7_555 . . 60.72(13)
B5 B4 B3 7_555 . . 107.99(15)
B2 B4 B3 . . . 60.05(12)
Fe1 B5 B4 . . . 167.85(13)
Fe1 B5 B4 . . 7_555 129.95(12)
Fe1 B5 B5 . . 5_455 67.26(10)
Fe1 B5 B5 . . 15_555 65.27(9)
Fe1 B5 B2 . . 7_555 77.70(11)
Fe1 B5 B3 . . . 107.84(12)
B4 B5 B4 . . 7_555 60.63(11)
B4 B5 B5 . . 5_455 114.44(15)
B4 B5 B5 . . 15_555 107.51(14)
B4 B5 B2 . . 7_555 107.63(14)
B4 B5 B3 . . . 60.41(11)
B4 B5 B5 7_555 . 5_455 120.13(15)
B4 B5 B5 7_555 . 15_555 107.60(13)
B4 B5 B2 7_555 . 7_555 59.61(12)
B4 B5 B3 7_555 . . 108.27(15)
B5 B5 B5 5_455 . 15_555 127.20(15)
B5 B5 B2 5_455 . 7_555 128.85(15)
B5 B5 B3 5_455 . . 118.95(15)
B5 B5 B2 15_555 . 7_555 59.49(11)
B5 B5 B3 15_555 . . 58.76(11)
B2 B5 B3 7_555 . . 106.34(14)
Fe1 B2 B4 3_554 . . 112.53(13)
Fe1 B2 B4 3_554 . 15_555 112.53(13)
Fe1 B2 B5 3_554 . 7_555 57.97(10)
Fe1 B2 B5 3_554 . 9_555 57.97(10)
Fe1 B2 B3 3_554 . . 162.14(15)
Fe1 B2 B1 3_554 . . 69.73(8)
B4 B2 B4 . . 15_555 109.36(15)
B4 B2 B5 . . 7_555 59.66(12)
B4 B2 B5 . . 9_555 108.87(15)
B4 B2 B3 . . . 60.17(12)
B4 B2 B1 . . . 122.61(15)
B4 B2 B5 15_555 . 7_555 108.87(15)
B4 B2 B5 15_555 . 9_555 59.66(12)
B4 B2 B3 15_555 . . 60.17(12)
B4 B2 B1 15_555 . . 122.61(15)
B5 B2 B5 7_555 . 9_555 61.02(12)
B5 B2 B3 7_555 . . 107.25(15)
B5 B2 B1 7_555 . . 116.95(14)
B5 B2 B3 9_555 . . 107.25(15)
B5 B2 B1 9_555 . . 116.95(14)
B3 B2 B1 . . . 128.13(17)
B4 B3 B4 . . 15_555 108.72(15)
B4 B3 B5 . . . 60.58(12)
B4 B3 B5 . . 15_555 110.59(16)
B4 B3 B2 . . . 59.78(12)
B4 B3 B3 . . 7_556 122.15(15)
B4 B3 B5 15_555 . . 110.59(16)
B4 B3 B5 15_555 . 15_555 60.58(12)
B4 B3 B2 15_555 . . 59.78(12)
B4 B3 B3 15_555 . 7_556 122.15(15)
B5 B3 B5 . . 15_555 62.48(12)
B5 B3 B2 . . . 108.84(16)
B5 B3 B3 . . 7_556 117.01(15)
B5 B3 B2 15_555 . . 108.84(16)
B5 B3 B3 15_555 . 7_556 117.01(15)
B2 B3 B3 . . 7_556 125.72(16)
Fe1 B1 Fe1 3_554 . 3_555 180.0(5)
Fe1 B1 B2 3_554 . . 71.05(9)
Fe1 B1 B2 3_554 . 2_545 71.05(9)
Fe1 B1 B2 3_554 . 5_555 108.95(9)
Fe1 B1 B2 3_554 . 6_545 108.95(9)
Fe1 B1 B2 3_555 . . 108.95(9)
Fe1 B1 B2 3_555 . 2_545 108.95(9)
Fe1 B1 B2 3_555 . 5_555 71.05(9)
Fe1 B1 B2 3_555 . 6_545 71.05(9)
B2 B1 B2 . . 2_545 142.11(12)
B2 B1 B2 . . 5_555 96.05(11)
B2 B1 B2 . . 6_545 96.05(11)
B2 B1 B2 2_545 . 5_555 96.05(11)
B2 B1 B2 2_545 . 6_545 96.05(11)
B2 B1 B2 5_555 . 6_545 142.11(12)
loop_
_geom_bond_atom_site_label_1
_geom_bond_atom_site_label_2
_geom_bond_site_symmetry_1
_geom_bond_site_symmetry_2
_geom_bond_distance
Fe1 B5 . . 2.155(2)
Fe1 B5 . 2_455 2.155(2)
Fe1 B5 . 5_455 2.155(2)
Fe1 B5 . 6_555 2.155(2)
Fe1 B5 . 11_455 2.155(2)
Fe1 B5 . 12_555 2.155(2)
Fe1 B5 . 15_555 2.155(2)
Fe1 B5 . 16_455 2.155(2)
Fe1 B2 . 3_455 2.483(2)
Fe1 B2 . 4_555 2.483(2)
Fe1 B2 . 7_555 2.483(2)
Fe1 B2 . 8_455 2.483(2)
Fe1 B1 . 3_454 2.46285(10)
Fe1 B1 . 3_455 2.46285(10)
B4 B4 . 6_545 1.910(3)
B4 B4 . 7_555 1.778(3)
B4 B5 . . 1.766(3)
B4 B5 . 7_555 1.757(3)
B4 B2 . . 1.756(3)
B4 B3 . . 1.763(3)
B5 B5 . 5_455 1.666(3)
B5 B5 . 15_555 1.803(3)
B5 B2 . 7_555 1.776(3)
B5 B3 . . 1.738(3)
B2 B3 . . 1.761(3)
B2 B1 . . 1.660(2)
B3 B3 . 7_556 1.629(3)
loop_
_refln_index_h
_refln_index_k
_refln_index_l
_refln_F_squared_calc
_refln_F_squared_meas
_refln_F_squared_sigma
_refln_observed_status
1 0 1 242.33 288.24 5.07 o
1 0 3 257.95 254.71 7.96 o
1 0 5 36.50 36.62 4.46 o
1 0 7 15.40 16.66 4.23 o
1 1 1 681.96 783.32 8.39 o
1 1 2 527.09 506.66 7.98 o
1 1 3 373.68 398.33 7.19 o
1 1 4 185.66 164.53 5.57 o
1 1 5 11.49 6.66 1.28 o
1 1 6 63.20 61.63 4.56 o
1 1 7 133.91 159.23 12.72 o
2 0 0 384.30 318.20 5.39 o
2 0 2 77.59 97.82 2.94 o
2 0 4 637.69 600.28 15.06 o
2 0 6 498.62 597.16 19.31 o
2 1 1 168.73 177.04 3.39 o
2 1 2 6.32 8.02 0.77 o
2 1 3 64.73 62.36 1.87 o
2 1 4 17.24 14.33 1.07 o
2 1 5 24.77 24.91 1.73 o
2 1 6 33.85 32.32 2.23 o
2 1 7 22.12 32.88 5.16 o
2 2 0 283.05 356.13 7.64 o
2 2 1 0.02 -0.03 0.14 <
2 2 2 371.93 427.99 8.99 o
2 2 3 0.23 -0.37 0.46 <
2 2 4 298.67 342.11 9.87 o
2 2 5 0.07 -0.94 1.29 <
2 2 6 97.85 91.18 5.34 o
2 2 7 0.43 0.24 1.16 <
3 0 1 50.76 35.67 1.57 o
3 0 3 74.61 58.96 2.78 o
3 0 5 71.38 68.16 5.55 o
3 1 0 756.62 749.28 8.99 o
3 1 1 1020.35 1175.13 7.47 o
3 1 2 425.50 429.57 6.60 o
3 1 3 1323.65 1217.34 14.17 o
3 1 4 139.07 150.50 4.17 o
3 1 5 28.50 30.04 2.09 o
3 1 6 45.24 51.98 3.53 o
3 2 1 2.07 0.26 0.23 <
3 2 2 16.55 19.31 1.23 o
3 2 3 144.03 128.65 4.05 o
3 2 4 3.84 6.90 1.18 o
3 2 5 155.01 163.49 6.31 o
3 2 6 0.83 -0.46 0.94 <
3 2 7 19.23 25.98 3.81 o
3 3 0 656.71 702.60 13.44 o
3 3 1 495.64 631.42 12.74 o
3 3 2 357.55 369.44 10.10 o
3 3 3 1144.96 1171.67 18.80 o
3 3 4 103.12 113.25 6.03 o
3 3 5 166.91 187.05 8.54 o
3 3 6 40.48 39.07 6.16 o
3 3 7 140.03 196.71 15.42 o
4 0 0 145.44 159.36 5.47 o
4 0 2 481.95 535.97 7.48 o
4 0 4 536.68 549.18 9.37 o
4 0 6 29.74 30.07 4.37 o
4 1 1 984.46 1147.65 8.48 o
4 1 2 69.44 66.83 2.07 o
4 1 3 20.74 33.25 1.88 o
4 1 4 5.25 4.28 0.62 o
4 1 5 59.85 62.03 3.80 o
4 1 6 23.05 24.49 3.50 o
4 2 0 646.91 701.49 12.92 o
4 2 1 0.49 0.36 0.21 <
4 2 2 325.98 334.37 5.78 o
4 2 3 0.09 0.28 0.26 <
4 2 4 80.77 74.17 3.00 o
4 2 5 1.09 0.95 0.77 <
4 2 6 43.50 44.81 3.58 o
4 2 7 0.56 1.80 2.40 <
4 3 1 220.88 228.78 5.97 o
4 3 2 629.89 587.36 11.11 o
4 3 3 91.20 98.81 4.13 o
4 3 4 248.84 251.13 6.90 o
4 3 5 6.10 8.68 1.21 o
4 3 6 31.11 38.30 3.47 o
4 3 7 1.45 -0.63 1.00 <
4 4 1 16.12 17.36 2.39 o
4 4 2 470.37 400.82 12.24 o
4 4 3 14.86 14.32 2.25 o
4 4 4 11.17 11.72 2.02 o
4 4 5 9.74 11.56 2.17 o
4 4 6 6.72 16.65 9.95 <
4 4 7 17.20 16.76 4.42 o
5 0 1 1287.77 1206.15 12.12 o
5 0 3 2.12 1.68 0.34 o
5 0 5 213.19 188.39 5.84 o
5 1 0 325.72 329.20 6.59 o
5 1 1 55.71 67.09 2.06 o
5 1 2 320.26 321.56 5.04 o
5 1 3 79.83 78.28 2.97 o
5 1 4 197.99 191.58 5.03 o
5 1 5 1.42 0.90 0.25 o
5 1 6 37.83 41.91 3.90 o
5 2 1 555.65 512.62 8.50 o
5 2 2 851.25 801.74 9.80 o
5 2 3 65.67 61.36 2.86 o
5 2 4 230.95 234.16 5.79 o
5 2 5 18.42 15.52 1.52 o
5 2 6 100.91 118.58 6.19 o
5 3 0 363.20 382.07 11.41 o
5 3 1 1.74 0.99 0.46 o
5 3 2 259.00 270.42 6.10 o
5 3 3 3.07 2.72 0.58 o
5 3 4 115.63 126.72 5.20 o
5 3 5 45.27 52.12 3.56 o
5 3 6 40.79 47.33 3.94 o
5 4 1 237.82 195.01 7.43 o
5 4 2 34.21 30.56 2.66 o
5 4 3 217.01 216.85 6.92 o
5 4 4 12.18 11.51 1.24 o
5 4 5 639.16 747.91 13.97 o
5 4 6 2.93 3.02 1.54 <
5 4 7 58.64 87.21 11.43 o
5 5 1 2.33 2.86 1.20 o
5 5 2 195.42 198.59 9.92 o
5 5 3 0.02 -0.04 0.60 <
5 5 4 1.81 1.68 1.39 <
5 5 5 13.28 13.23 2.88 o
5 5 6 19.12 21.94 5.30 o
6 0 0 244.34 233.64 8.35 o
6 0 2 0.53 7.40 1.06 o
6 0 4 611.24 567.96 11.93 o
6 0 6 754.20 679.28 18.91 o
6 1 1 93.34 67.67 2.30 o
6 1 2 403.16 397.43 6.21 o
6 1 3 161.16 161.38 4.11 o
6 1 4 90.07 85.64 3.13 o
6 1 5 425.73 419.38 8.69 o
6 1 6 67.67 58.18 3.93 o
6 2 0 2502.51 2382.75 28.32 o
6 2 1 11.61 10.34 1.25 o
6 2 2 760.00 672.33 10.58 o
6 2 3 6.41 6.65 0.85 o
6 2 4 33.24 36.37 2.69 o
6 2 5 16.36 14.34 1.99 o
6 2 6 152.97 169.81 8.96 o
6 3 1 610.82 536.26 11.64 o
6 3 2 252.93 237.90 6.71 o
6 3 3 6.26 6.48 1.07 o
6 3 4 71.01 60.27 3.90 o
6 3 5 76.21 79.34 5.34 o
6 3 6 32.69 42.93 4.64 o
6 4 0 57.91 66.10 5.48 o
6 4 1 0.11 -0.11 0.39 <
6 4 2 20.57 22.02 2.64 o
6 4 3 2.94 1.96 0.47 o
6 4 4 458.73 483.62 11.35 o
6 4 5 5.82 5.52 1.40 o
6 4 6 388.21 461.63 16.97 o
6 5 1 128.65 130.62 8.36 o
6 5 2 18.05 16.70 2.15 o
6 5 3 22.94 22.91 2.45 o
6 5 4 1.76 0.64 0.69 <
6 5 5 0.90 -2.80 1.70 <
6 6 1 72.91 66.09 6.47 o
6 6 2 313.78 305.37 13.44 o
6 6 3 123.44 110.27 8.27 o
6 6 4 73.18 72.99 10.57 o
7 0 1 41.71 39.69 2.66 o
7 0 3 95.16 91.43 4.31 o
7 0 5 267.42 229.15 7.98 o
7 1 0 185.40 174.39 5.74 o
7 1 1 8.06 10.63 0.99 o
7 1 2 129.99 123.28 3.75 o
7 1 3 5.10 6.56 1.04 o
7 1 4 84.48 78.43 3.80 o
7 1 5 11.42 9.63 1.35 o
7 1 6 83.93 71.35 7.57 o
7 2 1 105.23 104.94 4.06 o
7 2 2 238.88 220.87 6.47 o
7 2 3 45.56 46.99 2.98 o
7 2 4 99.90 106.11 5.75 o
7 2 5 9.50 8.30 1.34 o
7 2 6 18.08 16.44 3.78 o
7 3 0 44.25 42.61 4.31 o
7 3 1 6.58 5.74 1.14 o
7 3 2 136.15 143.67 5.56 o
7 3 3 29.50 28.89 2.29 o
7 3 4 246.83 241.66 11.89 o
7 3 5 13.20 12.47 2.14 o
7 3 6 78.19 92.13 9.77 o
7 4 1 100.60 101.20 4.97 o
7 4 2 0.88 2.11 0.79 o
7 4 3 12.57 13.27 1.62 o
7 4 4 2.48 2.76 0.92 o
7 4 5 2.36 1.34 1.06 <
7 4 6 0.58 -0.26 1.66 <
7 5 0 223.39 205.67 10.92 o
7 5 1 87.85 90.97 7.25 o
7 5 2 170.15 171.67 9.85 o
7 5 3 194.24 170.58 8.81 o
7 5 4 68.75 63.70 5.49 o
7 6 1 405.09 393.26 15.89 o
7 6 2 74.93 67.63 9.13 o
7 6 3 19.11 10.02 3.56 o
8 0 0 644.82 747.95 17.80 o
8 0 2 250.60 272.82 7.74 o
8 0 4 5.22 4.32 1.11 o
8 1 1 113.67 135.40 3.85 o
8 1 2 6.19 4.81 0.74 o
8 1 3 45.07 46.50 2.90 o
8 1 4 22.31 25.14 2.73 o
8 1 5 2.65 1.21 0.54 o
8 2 0 65.51 66.97 4.54 o
8 2 1 11.42 9.80 1.24 o
8 2 2 103.30 108.63 4.39 o
8 2 3 41.99 41.10 3.37 o
8 2 4 145.56 144.08 8.14 o
8 2 5 9.86 9.32 1.52 o
8 2 6 79.91 75.79 8.74 o
8 3 1 244.38 249.27 6.98 o
8 3 2 16.85 14.40 1.77 o
8 3 3 12.16 10.15 1.64 o
8 3 4 4.01 3.49 1.11 o
8 3 5 11.76 14.47 4.12 o
8 3 6 3.63 1.58 1.74 <
8 4 0 137.93 123.96 8.46 o
8 4 1 101.50 99.89 5.28 o
8 4 2 166.89 146.43 9.30 o
8 4 3 223.18 198.78 10.20 o
8 4 4 120.33 111.58 6.68 o
8 5 1 1.27 0.80 1.34 <
8 5 2 207.54 199.74 16.16 o
8 5 4 101.60 93.84 5.71 o
8 6 4 48.31 31.17 3.23 o
9 0 1 7.65 8.96 1.42 o
9 0 3 152.07 160.40 7.90 o
9 1 0 918.99 995.50 15.94 o
9 1 1 129.02 143.08 4.25 o
9 1 2 295.99 324.99 7.73 o
9 1 3 416.16 445.02 9.46 o
9 1 4 4.99 3.76 1.17 o
9 2 1 169.95 180.06 6.15 o
9 2 2 84.11 86.50 4.60 o
9 2 3 20.44 18.81 2.62 o
9 2 4 12.74 10.07 1.74 o
9 2 5 2.97 3.20 1.89 <
9 3 0 141.43 141.29 9.04 o
9 3 1 149.99 171.82 6.82 o
9 3 2 121.76 124.42 6.39 o
9 3 3 420.86 469.09 14.28 o
9 3 4 70.36 74.73 5.39 o
9 4 1 126.71 121.97 7.12 o
9 4 2 227.16 243.34 11.38 o
9 4 3 0.46 5.40 2.61 o
9 4 4 92.95 90.47 6.06 o
9 5 0 128.71 120.51 14.04 o
10 0 0 118.95 132.05 8.84 o
10 0 2 77.52 75.30 5.98 o
10 0 4 39.79 40.93 6.25 o
10 1 1 89.06 96.66 4.32 o
10 1 2 97.63 114.17 5.30 o
10 1 3 10.74 8.80 1.44 o
10 1 4 15.02 13.33 2.43 o
10 2 0 140.38 133.74 9.26 o
10 2 1 208.96 232.52 9.47 o
10 2 2 130.42 128.08 6.74 o
10 2 3 433.15 457.03 14.54 o
10 2 4 72.45 76.88 5.63 o
10 3 1 3.53 4.01 1.38 o
10 3 2 2.90 2.15 0.90 o
10 3 3 62.18 62.50 5.42 o
10 3 4 10.99 8.22 2.21 o
10 4 1 59.02 53.30 8.64 o
10 4 2 43.99 47.71 6.87 o
10 4 3 157.96 164.92 9.49 o
10 5 3 7.85 4.18 1.79 o
11 0 1 131.56 150.51 9.73 o
11 0 3 2.17 1.84 1.09 <
11 1 0 97.13 138.02 14.18 o
11 1 1 10.01 10.40 1.85 o
11 1 2 9.33 5.49 1.14 o
11 1 3 20.95 21.38 2.38 o
11 1 4 385.24 392.06 20.74 o
11 2 1 0.48 0.63 1.08 <
11 2 2 4.14 3.05 1.08 o
11 2 3 14.38 9.59 2.12 o
11 2 4 2.52 2.86 0.26 o
11 3 1 3.79 4.86 1.61 o
11 3 2 117.01 121.36 8.43 o
11 3 3 14.37 15.89 3.20 o
11 3 4 1.62 2.85 2.31 <
11 4 2 14.81 15.45 4.01 o
11 4 3 46.02 45.32 5.92 o
12 0 2 281.10 288.73 19.26 o
12 1 2 37.56 41.63 4.31 o
12 1 3 9.26 7.19 1.51 o
12 2 2 1.42 0.96 1.16 <
12 2 3 160.34 174.34 10.31 o
12 3 2 1.27 0.40 0.47 <
12 3 3 47.08 48.02 6.93 o
13 0 3 2.36 1.30 2.24 <
13 1 3 0.18 1.99 1.92 <
