#------------------------------------------------------------------------------
#$Date: 2021-05-18 12:42:09 +0300 (Tue, 18 May 2021) $
#$Revision: 265306 $
#$URL: file:///home/coder/svn-repositories/cod/cif/1/56/26/1562670.cif $
#------------------------------------------------------------------------------
#
# This file is available in the Crystallography Open Database (COD),
# http://www.crystallography.net/
#
# All data on this site have been placed in the public domain by the
# contributors.
#
data_1562670
loop_
_publ_author_name
'Jana, Partha Pratim'
'Lidin, Sven'
_publ_section_title
;
 Pd2Cd11&#x2212; (0.21&#x2264;\d&#x2264;0.51)--a partly disordered
 \g-brass type phase and Pd0.238Cd0.762-a \g-brass related incommensurate
 phase in the palladium--cadmium system
;
_journal_name_full               'Journal of Solid State Chemistry'
_journal_page_first              244
_journal_page_last               249
_journal_paper_doi               10.1016/j.jssc.2013.01.044
_journal_volume                  201
_journal_year                    2013
_chemical_formula_sum            'Cd10.502 Pd2'
_chemical_formula_weight         1393.3
_space_group_IT_number           217
_space_group_name_Hall           'I -4 2 3'
_space_group_name_H-M_alt        'I -4 3 m'
_symmetry_cell_setting           cubic
_symmetry_Int_Tables_number      217
_symmetry_space_group_name_Hall  'I -4 2 3'
_symmetry_space_group_name_H-M   'I -4 3 m'
_cell_angle_alpha                90
_cell_angle_beta                 90
_cell_angle_gamma                90
_cell_formula_units_Z            4
_cell_length_a                   9.9593(3)
_cell_length_b                   9.9593(3)
_cell_length_c                   9.9593(3)
_cell_measurement_reflns_used    1154
_cell_measurement_temperature    293
_cell_measurement_theta_max      28.71
_cell_measurement_theta_min      2.89
_cell_volume                     987.84(5)
_computing_cell_refinement
;
CrysAlisPro, Agilent Technologies,
Version 1.171.35.21 (release 20-01-2012 CrysAlis171 .NET)
(compiled Jan 23 2012,18:06:46)
;
_computing_data_collection
;
CrysAlisPro, Agilent Technologies,
Version 1.171.35.21 (release 20-01-2012 CrysAlis171 .NET)
(compiled Jan 23 2012,18:06:46)
;
_computing_data_reduction
;
CrysAlisPro, Agilent Technologies,
Version 1.171.35.21 (release 20-01-2012 CrysAlis171 .NET)
(compiled Jan 23 2012,18:06:46)
;
_diffrn_ambient_temperature      293
_diffrn_detector_area_resol_mean 16.1367
_diffrn_measured_fraction_theta_full 0.98
_diffrn_measured_fraction_theta_max 0.96
_diffrn_measurement_device       'four-cycle diffractometer'
_diffrn_measurement_device_type  'Xcalibur, Eos'
_diffrn_measurement_method       '\w scans'
_diffrn_radiation_monochromator  graphite
_diffrn_radiation_probe          x-ray
_diffrn_radiation_source         'Enhance (Mo) X-ray Source'
_diffrn_radiation_wavelength     0.7107
_diffrn_reflns_av_R_equivalents  0.0223
_diffrn_reflns_av_sigmaI/netI    0.0149
_diffrn_reflns_limit_h_max       12
_diffrn_reflns_limit_h_min       -11
_diffrn_reflns_limit_k_max       12
_diffrn_reflns_limit_k_min       -13
_diffrn_reflns_limit_l_max       12
_diffrn_reflns_limit_l_min       -13
_diffrn_reflns_number            1656
_diffrn_reflns_theta_full        28.6
_diffrn_reflns_theta_max         28.77
_diffrn_reflns_theta_min         2.89
_exptl_absorpt_coefficient_mu    25.559
_exptl_absorpt_correction_T_max  1
_exptl_absorpt_correction_T_min  0.348
_exptl_absorpt_correction_type   multi-scan
_exptl_absorpt_process_details
;
CrysAlisPro, Agilent Technologies,
Version 1.171.35.21 (release 20-01-2012 CrysAlis171 .NET)
(compiled Jan 23 2012,18:06:46)
Empirical absorption correction using spherical harmonics,
 implemented in SCALE3 ABSPACK scaling algorithm.
;
_exptl_crystal_density_diffrn    9.3656
_exptl_crystal_F_000             2384
_exptl_crystal_size_max          0.04
_exptl_crystal_size_mid          0.03
_exptl_crystal_size_min          0.02
_refine_diff_density_max         1.43
_refine_diff_density_min         -1.29
_refine_ls_extinction_coef       81(15)
_refine_ls_extinction_method
'B-C type 1 Gaussian isotropic (Becker & Coppens, 1974)'
_refine_ls_goodness_of_fit_all   1.48
_refine_ls_goodness_of_fit_gt    1.49
_refine_ls_number_constraints    0
_refine_ls_number_parameters     23
_refine_ls_number_reflns         256
_refine_ls_number_restraints     0
_refine_ls_R_factor_all          0.0193
_refine_ls_R_factor_gt           0.0186
_refine_ls_shift/su_max          0.0435
_refine_ls_shift/su_mean         0.0143
_refine_ls_structure_factor_coef Fsqd
_refine_ls_weighting_details     w=1/(\s^2^(I)+0.0004I^2^)
_refine_ls_weighting_scheme      sigma
_refine_ls_wR_factor_all         0.0473
_refine_ls_wR_factor_gt          0.0469
_reflns_number_gt                250
_reflns_number_total             256
_reflns_threshold_expression     I>3\s(I)
_cod_data_source_file            JSSC-2013-201-244.cif
_cod_data_source_block           II
_cod_depositor_comments
;
The following automatic conversions were performed:

data item '_diffrn_radiation_probe' value 'X-ray' was changed to
'x-ray' in accordance with the built-in table derived from the CIF
Core dictionary named 'cif_core.dic' version 2.4.5 last updated on
2014-11-21.

Automatic conversion script
Id: cif_fix_values 8369 2020-08-20 11:38:08Z andrius 
;
_cod_original_sg_symbol_Hall     'I -4;2;3'
_cod_database_code               1562670
loop_
_symmetry_equiv_pos_site_id
_symmetry_equiv_pos_as_xyz
1 x,y,z
2 -x,-y,z
3 -x,y,-z
4 x,-y,-z
5 z,x,y
6 z,-x,-y
7 -z,-x,y
8 -z,x,-y
9 y,z,x
10 -y,z,-x
11 y,-z,-x
12 -y,-z,x
13 y,x,z
14 -y,-x,z
15 y,-x,-z
16 -y,x,-z
17 x,z,y
18 -x,z,-y
19 -x,-z,y
20 x,-z,-y
21 z,y,x
22 z,-y,-x
23 -z,y,-x
24 -z,-y,x
25 x+1/2,y+1/2,z+1/2
26 -x+1/2,-y+1/2,z+1/2
27 -x+1/2,y+1/2,-z+1/2
28 x+1/2,-y+1/2,-z+1/2
29 z+1/2,x+1/2,y+1/2
30 z+1/2,-x+1/2,-y+1/2
31 -z+1/2,-x+1/2,y+1/2
32 -z+1/2,x+1/2,-y+1/2
33 y+1/2,z+1/2,x+1/2
34 -y+1/2,z+1/2,-x+1/2
35 y+1/2,-z+1/2,-x+1/2
36 -y+1/2,-z+1/2,x+1/2
37 y+1/2,x+1/2,z+1/2
38 -y+1/2,-x+1/2,z+1/2
39 y+1/2,-x+1/2,-z+1/2
40 -y+1/2,x+1/2,-z+1/2
41 x+1/2,z+1/2,y+1/2
42 -x+1/2,z+1/2,-y+1/2
43 -x+1/2,-z+1/2,y+1/2
44 x+1/2,-z+1/2,-y+1/2
45 z+1/2,y+1/2,x+1/2
46 z+1/2,-y+1/2,-x+1/2
47 -z+1/2,y+1/2,-x+1/2
48 -z+1/2,-y+1/2,x+1/2
loop_
_atom_site_label
_atom_site_type_symbol
_atom_site_fract_x
_atom_site_fract_y
_atom_site_fract_z
_atom_site_adp_type
_atom_site_U_iso_or_equiv
_atom_site_symmetry_multiplicity
_atom_site_occupancy
_atom_site_calc_flag
_atom_site_refinement_flags
_atom_site_disorder_assembly
_atom_site_disorder_group
Cd10 Cd 0 0 0 Uani 0.040(2) 2 0.282(10) d . . .
Cd11 Cd 0.10668(10) 0.10668(10) 0.10668(10) Uani 0.0194(3) 8 0.708(5) d . . .
Pd12 Pd 0.32766(6) 0.32766(6) 0.32766(6) Uani 0.01260(16) 8 1 d . . .
Cd13a Cd 0.5 0.5 0.1969(11) Uiso 0.0201(19) 12 0.201(8) d . . .
Cd13 Cd 0.5 0.5 0.1433(3) Uiso 0.0163(6) 12 0.781(9) d . . .
Cd14 Cd 0.30581(6) 0.30581(6) 0.04606(7) Uani 0.0239(2) 24 1 d . . .
loop_
_atom_site_aniso_label
_atom_site_aniso_type_symbol
_atom_site_aniso_U_11
_atom_site_aniso_U_22
_atom_site_aniso_U_33
_atom_site_aniso_U_12
_atom_site_aniso_U_13
_atom_site_aniso_U_23
Cd10 Cd 0.040(4) 0.040(4) 0.040(4) 0 0 0
Cd11 Cd 0.0194(5) 0.0194(5) 0.0194(5) 0.0056(4) 0.0056(4) 0.0056(4)
Pd12 Pd 0.0126(3) 0.0126(3) 0.0126(3) 0.0021(2) 0.0021(2) 0.0021(2)
Cd14 Cd 0.0272(4) 0.0272(4) 0.0175(4) 0.0082(3) -0.0081(2) -0.0081(2)
loop_
_atom_type_symbol
_atom_type_scat_dispersion_real
_atom_type_scat_dispersion_imag
_atom_type_scat_source
Cd -0.8075 1.2024 'International Tables Vol C tables 4.2.6.8 and 6.1.1.1'
Pd -0.9988 1.0072 'International Tables Vol C tables 4.2.6.8 and 6.1.1.1'
loop_
_refln_index_h
_refln_index_k
_refln_index_l
_refln_F_squared_calc
_refln_F_squared_meas
_refln_F_squared_sigma
_refln_observed_status
0 1 1 1807. 1910. 56. o
0 0 2 3626. 3825. 102. o
1 1 2 5282. 5216. 81. o
-1 1 2 5315. 5437. 100. o
0 2 2 1222. 1217. 56. o
2 2 2 118482. 115664. 1537. o
-2 2 2 118024. 114728. 2195. o
0 1 3 10798. 11259. 118. o
1 2 3 19121. 19139. 177. o
-1 2 3 19135. 19770. 197. o
0 3 3 1519010. 1520940. 8614. o
2 3 3 97579. 94898. 685. o
-2 3 3 98268. 95616. 1149. o
0 0 4 17320. 18045. 408. o
1 1 4 494737. 500525. 2659. o
-1 1 4 493844. 501080. 3820. o
0 2 4 2632. 2734. 74. o
2 2 4 64402. 64532. 533. o
-2 2 4 63989. 63452. 685. o
1 3 4 6200. 6221. 118. o
-1 3 4 6145. 6229. 111. o
3 3 4 18965. 18142. 281. o
-3 3 4 18913. 18275. 424. o
0 4 4 29587. 31569. 507. o
2 4 4 96036. 97099. 864. o
-2 4 4 96376. 96264. 1092. o
4 4 4 563239. 571032. 5607. o
-4 4 4 562564. 564207. 9846. o
0 1 5 25134. 24519. 224. o
1 2 5 7122. 7379. 110. o
-1 2 5 7247. 7159. 148. o
0 3 5 21512. 20892. 240. o
2 3 5 11758. 11614. 154. o
-2 3 5 11674. 11390. 206. o
1 4 5 2231. 2279. 102. o
-1 4 5 2333. 2597. 91. o
3 4 5 14126. 13780. 152. o
-3 4 5 14188. 13913. 272. o
0 5 5 209019. 216185. 1679. o
2 5 5 15390. 16602. 327. o
-2 5 5 15167. 15364. 386. o
4 5 5 15182. 15136. 273. o
-4 5 5 15010. 14518. 380. o
0 0 6 360727. 342611. 3671. o
1 1 6 19563. 20774. 296. o
-1 1 6 19641. 20257. 363. o
0 2 6 3056. 3160. 103. o
2 2 6 13349. 13469. 234. o
-2 2 6 13320. 12786. 346. o
1 3 6 71053. 69181. 453. o
-1 3 6 70678. 68820. 576. o
3 3 6 271333. 261636. 2206. o
-3 3 6 271014. 260913. 2576. o
0 4 6 18620. 18801. 266. o
2 4 6 14248. 14592. 191. o
-2 4 6 14335. 14179. 257. o
4 4 6 28052. 26974. 420. o
-4 4 6 28181. 26941. 578. o
1 5 6 16305. 15248. 244. o
-1 5 6 16439. 15284. 254. o
3 5 6 11100. 12030. 208. o
-3 5 6 11316. 12168. 241. o
5 5 6 555. 526. 128. o
-5 5 6 536. 509. 126. o
0 6 6 205875. 208974. 1752. o
2 6 6 80996. 81925. 1039. o
-2 6 6 81474. 81224. 1097. o
4 6 6 9618. 8954. 289. o
-4 6 6 9503. 8645. 336. o
6 6 6 92869. 92791. 2476. o
-6 6 6 92250. 91773. 1781. o
0 1 7 12383. 12127. 167. o
1 2 7 160578. 161319. 863. o
-1 2 7 161196. 162720. 1127. o
0 3 7 23890. 24128. 371. o
2 3 7 28596. 28318. 270. o
-2 3 7 28689. 28793. 385. o
1 4 7 164506. 168096. 1026. o
-1 4 7 164212. 166715. 1417. o
3 4 7 8931. 8322. 163. o
-3 4 7 8963. 8297. 218. o
0 5 7 1672. 1867. 126. o
2 5 7 46165. 46108. 466. o
-2 5 7 45775. 46935. 585. o
4 5 7 14097. 14478. 286. o
-4 5 7 14322. 15294. 309. o
1 6 7 895. 1039. 112. o
-1 6 7 877. 1001. 112. o
3 6 7 443. 794. 91. o
-3 6 7 461. 707. 116. o
5 6 7 8291. 8743. 237. o
-5 6 7 8352. 8636. 256. o
0 7 7 967. 1214. 182. o
2 7 7 10869. 10955. 336. o
-2 7 7 10822. 11129. 379. o
4 7 7 162139. 173947. 1983. o
-4 7 7 161797. 174648. 1922. o
6 7 7 21448. 19994. 613. o
-6 7 7 21535. 20836. 576. o
0 0 8 66390. 65538. 936. o
1 1 8 2023. 2277. 130. o
-1 1 8 1959. 2126. 174. o
0 2 8 64109. 65422. 548. o
2 2 8 23002. 23130. 393. o
-2 2 8 22819. 22897. 655. o
1 3 8 4848. 4710. 133. o
-1 3 8 4919. 4951. 206. o
3 3 8 33392. 33995. 501. o
-3 3 8 33157. 32952. 694. o
0 4 8 4364. 4338. 177. o
2 4 8 1589. 1701. 100. o
-2 4 8 1530. 1677. 135. o
4 4 8 6693. 7699. 273. o
-4 4 8 6792. 7690. 346. o
1 5 8 9037. 9685. 286. o
-1 5 8 9100. 9606. 258. o
3 5 8 94394. 96593. 864. o
-3 5 8 94368. 95998. 968. o
5 5 8 2007. 2267. 221. o
-5 5 8 1998. 2336. 213. o
0 6 8 5216. 5927. 226. o
2 6 8 4580. 4227. 171. o
-2 6 8 4513. 4245. 195. o
4 6 8 3830. 3783. 172. o
-4 6 8 3876. 3879. 198. o
6 6 8 2522. 2219. 293. o
-6 6 8 2419. 2199. 256. o
1 7 8 14449. 15197. 308. o
-1 7 8 14650. 15152. 391. o
3 7 8 1232. 1357. 118. o
-3 7 8 1215. 1376. 163. o
5 7 8 2617. 2078. 198. o
-5 7 8 2604. 2278. 192. o
7 7 8 3914. 3831. 549. o
-7 7 8 3970. 4651. 655. o
0 8 8 161456. 167537. 2105. o
2 8 8 1134. 793. 151. o
-2 8 8 1181. 978. 201. o
4 8 8 14464. 15201. 766. o
-4 8 8 14544. 15924. 590. o
6 8 8 19966. 21580. 1230. o
-6 8 8 19999. 20201. 1140. o
0 1 9 11053. 11189. 229. o
1 2 9 5859. 5530. 160. o
-1 2 9 5897. 5399. 219. o
0 3 9 27490. 25861. 471. o
2 3 9 9735. 8858. 195. o
-2 3 9 9864. 9204. 280. o
1 4 9 27236. 26107. 477. o
-1 4 9 27400. 26384. 473. o
3 4 9 4002. 3607. 145. o
-3 4 9 3931. 3673. 184. o
0 5 9 1515. 1457. 126. o
2 5 9 10294. 10330. 313. o
-2 5 9 10261. 10317. 290. o
4 5 9 13541. 12852. 346. o
-4 5 9 13650. 14116. 355. o
1 6 9 11484. 10606. 306. o
-1 6 9 11341. 11220. 329. o
3 6 9 67058. 65626. 904. o
-3 6 9 66667. 65841. 810. o
5 6 9 11452. 12890. 364. o
-5 6 9 11614. 13309. 372. o
0 7 9 3679. 3417. 195. o
2 7 9 1021. 920. 128. o
-2 7 9 1008. 963. 161. o
4 7 9 14914. 13108. 396. o
-4 7 9 15004. 13724. 412. o
6 7 9 1281. 1233. 190. o
-6 7 9 1253. 1382. 214. o
1 8 9 2857. 2838. 174. o
-1 8 9 2912. 2485. 183. o
3 8 9 1887. 2153. 180. o
-3 8 9 1926. 2607. 202. o
5 8 9 2510. 2654. 259. o
-5 8 9 2551. 2475. 455. o
0 9 9 66132. 64426. 1773. o
-2 9 9 10585. 11226. 1011. o
0 0 10 58225. 59328. 1169. o
1 1 10 46321. 46402. 720. o
-1 1 10 46005. 46320. 772. o
0 2 10 21915. 21734. 358. o
2 2 10 88900. 86392. 1036. o
-2 2 10 88339. 88411. 1921. o
1 3 10 5554. 5809. 196. o
-1 3 10 5527. 5175. 247. o
3 3 10 7205. 6763. 320. o
-3 3 10 7217. 7595. 358. o
0 4 10 1069. 1101. 127. o
2 4 10 23806. 24280. 482. o
-2 4 10 24023. 24796. 486. o
4 4 10 37476. 38370. 916. o
-4 4 10 37365. 39531. 860. o
1 5 10 64436. 64007. 859. o
-1 5 10 64912. 66501. 842. o
3 5 10 9923. 9956. 334. o
-3 5 10 9950. 10328. 308. o
5 5 10 6264. 6345. 700. o
-5 5 10 6156. 6353. 379. o
0 6 10 1394. 1452. 178. o
2 6 10 5110. 5360. 250. o
-2 6 10 5152. 5095. 270. o
4 6 10 997. 1019. 159. o
-4 6 10 991. 928. 142. o
6 6 10 162. 170. 222. <
-6 6 10 164. 68. 205. <
1 7 10 20052. 22306. 476. o
-1 7 10 20032. 22185. 596. o
3 7 10 3944. 3607. 238. o
-3 7 10 3971. 3648. 303. o
5 7 10 5038. 4349. 399. o
-5 7 10 4960. 4074. 509. o
0 8 10 1451. 1845. 279. o
2 8 10 7147. 6647. 446. o
-2 8 10 7018. 6430. 751. o
1 9 10 977. 1012. 383. <
0 1 11 21481. 21509. 360. o
1 2 11 14815. 14381. 328. o
-1 2 11 14899. 15271. 421. o
0 3 11 23614. 23975. 457. o
2 3 11 29844. 29244. 516. o
-2 3 11 29835. 29964. 668. o
1 4 11 3551. 3659. 230. o
-1 4 11 3637. 3489. 202. o
3 4 11 4449. 5416. 285. o
-3 4 11 4414. 4533. 250. o
0 5 11 57514. 56869. 880. o
2 5 11 9603. 9903. 361. o
-2 5 11 9577. 10670. 339. o
4 5 11 8382. 7776. 802. o
-4 5 11 8480. 8247. 368. o
1 6 11 2165. 2169. 227. o
-1 6 11 2144. 2253. 255. o
3 6 11 16751. 15988. 739. o
-5 6 11 25310. 23818. 1478. o
2 7 11 514. 838. 300. <
0 0 12 71. 175. 183. <
1 1 12 7706. 7798. 370. o
-1 1 12 7796. 7514. 440. o
0 2 12 1786. 1660. 161. o
2 2 12 5232. 4785. 370. o
-2 2 12 5187. 4407. 361. o
1 3 12 1520. 1558. 204. o
-1 3 12 1554. 1762. 189. o
3 3 12 10072. 8135. 786. o
-3 3 12 9877. 9204. 564. o
0 4 12 2372. 1802. 257. o
2 4 12 7389. 7273. 504. o
-2 4 12 7313. 7000. 405. o
-4 4 12 27630. 25783. 1355. o
1 5 12 1721. 1410. 297. o
-1 5 12 1752. 827. 331. <
-3 5 12 3661. 3552. 504. o
0 1 13 1716. 1816. 243. o
-1 2 13 21069. 20128. 1161. o
-2 3 13 6966. 7251. 750. o
