#------------------------------------------------------------------------------
#$Date: 2021-05-18 12:42:09 +0300 (Tue, 18 May 2021) $
#$Revision: 265306 $
#$URL: file:///home/coder/svn-repositories/cod/cif/1/56/26/1562671.cif $
#------------------------------------------------------------------------------
#
# This file is available in the Crystallography Open Database (COD),
# http://www.crystallography.net/
#
# All data on this site have been placed in the public domain by the
# contributors.
#
data_1562671
loop_
_publ_author_name
'Jana, Partha Pratim'
'Lidin, Sven'
_publ_section_title
;
 Pd2Cd11&#x2212; (0.21&#x2264;\d&#x2264;0.51)--a partly disordered
 \g-brass type phase and Pd0.238Cd0.762-a \g-brass related incommensurate
 phase in the palladium--cadmium system
;
_journal_name_full               'Journal of Solid State Chemistry'
_journal_page_first              244
_journal_page_last               249
_journal_paper_doi               10.1016/j.jssc.2013.01.044
_journal_volume                  201
_journal_year                    2013
_chemical_formula_sum            'Cd10.598 Pd2'
_chemical_formula_weight         1404.1
_space_group_IT_number           217
_space_group_name_Hall           'I -4 2 3'
_space_group_name_H-M_alt        'I -4 3 m'
_symmetry_cell_setting           cubic
_symmetry_Int_Tables_number      217
_symmetry_space_group_name_Hall  'I -4 2 3'
_symmetry_space_group_name_H-M   'I -4 3 m'
_cell_angle_alpha                90
_cell_angle_beta                 90
_cell_angle_gamma                90
_cell_formula_units_Z            4
_cell_length_a                   9.9550(2)
_cell_length_b                   9.9550(2)
_cell_length_c                   9.9550(2)
_cell_measurement_reflns_used    3799
_cell_measurement_temperature    293
_cell_measurement_theta_max      28.2
_cell_measurement_theta_min      4.09
_cell_volume                     986.56(3)
_computing_cell_refinement
;
CrysAlisPro, Agilent Technologies,
Version 1.171.34.49 (release 20-01-2011 CrysAlis171 .NET)
(compiled Jan 20 2011,15:58:25)
;
_computing_data_collection
;
CrysAlisPro, Agilent Technologies,
Version 1.171.34.49 (release 20-01-2011 CrysAlis171 .NET)
(compiled Jan 20 2011,15:58:25)
;
_computing_data_reduction
;
CrysAlisPro, Agilent Technologies,
Version 1.171.34.49 (release 20-01-2011 CrysAlis171 .NET)
(compiled Jan 20 2011,15:58:25)
;
_diffrn_ambient_temperature      293
_diffrn_detector_area_resol_mean 16.1367
_diffrn_measured_fraction_theta_full 0.99
_diffrn_measured_fraction_theta_max 0.99
_diffrn_measurement_device       'four-cycle diffractometer'
_diffrn_measurement_device_type  'Xcalibur, Eos'
_diffrn_measurement_method       '\w scans'
_diffrn_radiation_monochromator  graphite
_diffrn_radiation_probe          x-ray
_diffrn_radiation_source         'Enhance (Mo) X-ray Source'
_diffrn_radiation_wavelength     0.7107
_diffrn_reflns_av_R_equivalents  0.0368
_diffrn_reflns_av_sigmaI/netI    0.0106
_diffrn_reflns_limit_h_max       12
_diffrn_reflns_limit_h_min       -13
_diffrn_reflns_limit_k_max       12
_diffrn_reflns_limit_k_min       -12
_diffrn_reflns_limit_l_max       12
_diffrn_reflns_limit_l_min       -12
_diffrn_reflns_number            5402
_diffrn_reflns_theta_full        28.27
_diffrn_reflns_theta_max         28.27
_diffrn_reflns_theta_min         4.09
_exptl_absorpt_coefficient_mu    25.794
_exptl_absorpt_correction_T_max  1
_exptl_absorpt_correction_T_min  0.325
_exptl_absorpt_correction_type   multi-scan
_exptl_absorpt_process_details
;
CrysAlisPro, Agilent Technologies,
Version 1.171.34.49 (release 20-01-2011 CrysAlis171 .NET)
(compiled Jan 20 2011,15:58:25)
Empirical absorption correction using spherical harmonics,
 implemented in SCALE3 ABSPACK scaling algorithm.
;
_exptl_crystal_density_diffrn    9.4504
_exptl_crystal_F_000             2403
_exptl_crystal_size_max          0.07
_exptl_crystal_size_mid          0.05
_exptl_crystal_size_min          0.03
_refine_diff_density_max         1.71
_refine_diff_density_min         -0.89
_refine_ls_extinction_coef       440(30)
_refine_ls_extinction_method
'B-C type 1 Gaussian isotropic (Becker & Coppens, 1974)'
_refine_ls_goodness_of_fit_all   1.91
_refine_ls_goodness_of_fit_gt    1.92
_refine_ls_number_constraints    0
_refine_ls_number_parameters     23
_refine_ls_number_reflns         256
_refine_ls_number_restraints     0
_refine_ls_R_factor_all          0.0195
_refine_ls_R_factor_gt           0.0189
_refine_ls_shift/su_max          0.0179
_refine_ls_shift/su_mean         0.0056
_refine_ls_structure_factor_coef Fsqd
_refine_ls_weighting_details     w=1/(\s^2^(I)+0.0004I^2^)
_refine_ls_weighting_scheme      sigma
_refine_ls_wR_factor_all         0.0513
_refine_ls_wR_factor_gt          0.0511
_reflns_number_gt                251
_reflns_number_total             256
_reflns_threshold_expression     I>3\s(I)
_cod_data_source_file            JSSC-2013-201-244.cif
_cod_data_source_block           III
_cod_depositor_comments
;
The following automatic conversions were performed:

data item '_diffrn_radiation_probe' value 'X-ray' was changed to
'x-ray' in accordance with the built-in table derived from the CIF
Core dictionary named 'cif_core.dic' version 2.4.5 last updated on
2014-11-21.

Automatic conversion script
Id: cif_fix_values 8369 2020-08-20 11:38:08Z andrius 
;
_cod_original_sg_symbol_Hall     'I -4;2;3'
_cod_database_code               1562671
loop_
_symmetry_equiv_pos_site_id
_symmetry_equiv_pos_as_xyz
1 x,y,z
2 -x,-y,z
3 -x,y,-z
4 x,-y,-z
5 z,x,y
6 z,-x,-y
7 -z,-x,y
8 -z,x,-y
9 y,z,x
10 -y,z,-x
11 y,-z,-x
12 -y,-z,x
13 y,x,z
14 -y,-x,z
15 y,-x,-z
16 -y,x,-z
17 x,z,y
18 -x,z,-y
19 -x,-z,y
20 x,-z,-y
21 z,y,x
22 z,-y,-x
23 -z,y,-x
24 -z,-y,x
25 x+1/2,y+1/2,z+1/2
26 -x+1/2,-y+1/2,z+1/2
27 -x+1/2,y+1/2,-z+1/2
28 x+1/2,-y+1/2,-z+1/2
29 z+1/2,x+1/2,y+1/2
30 z+1/2,-x+1/2,-y+1/2
31 -z+1/2,-x+1/2,y+1/2
32 -z+1/2,x+1/2,-y+1/2
33 y+1/2,z+1/2,x+1/2
34 -y+1/2,z+1/2,-x+1/2
35 y+1/2,-z+1/2,-x+1/2
36 -y+1/2,-z+1/2,x+1/2
37 y+1/2,x+1/2,z+1/2
38 -y+1/2,-x+1/2,z+1/2
39 y+1/2,-x+1/2,-z+1/2
40 -y+1/2,x+1/2,-z+1/2
41 x+1/2,z+1/2,y+1/2
42 -x+1/2,z+1/2,-y+1/2
43 -x+1/2,-z+1/2,y+1/2
44 x+1/2,-z+1/2,-y+1/2
45 z+1/2,y+1/2,x+1/2
46 z+1/2,-y+1/2,-x+1/2
47 -z+1/2,y+1/2,-x+1/2
48 -z+1/2,-y+1/2,x+1/2
loop_
_atom_site_label
_atom_site_type_symbol
_atom_site_fract_x
_atom_site_fract_y
_atom_site_fract_z
_atom_site_adp_type
_atom_site_U_iso_or_equiv
_atom_site_symmetry_multiplicity
_atom_site_occupancy
_atom_site_calc_flag
_atom_site_refinement_flags
_atom_site_disorder_assembly
_atom_site_disorder_group
Cd10 Cd 0 0 0 Uani 0.035(3) 2 0.211(11) d . . .
Cd11 Cd 0.10634(9) 0.10634(9) 0.10634(9) Uani 0.0173(3) 8 0.777(5) d . . .
Pd12 Pd 0.32788(6) 0.32788(6) 0.32788(6) Uani 0.01207(16) 8 1 d . . .
Cd13a Cd 0.5 0.5 0.1948(14) Uiso 0.017(3) 12 0.155(9) d . . .
Cd13 Cd 0.5 0.5 0.1428(2) Uiso 0.0152(5) 12 0.825(10) d . . .
Cd14 Cd 0.30614(5) 0.30614(5) 0.04562(7) Uani 0.0217(2) 24 1 d . . .
loop_
_atom_site_aniso_label
_atom_site_aniso_type_symbol
_atom_site_aniso_U_11
_atom_site_aniso_U_22
_atom_site_aniso_U_33
_atom_site_aniso_U_12
_atom_site_aniso_U_13
_atom_site_aniso_U_23
Cd10 Cd 0.035(5) 0.035(5) 0.035(5) 0 0 0
Cd11 Cd 0.0173(5) 0.0173(5) 0.0173(5) 0.0030(4) 0.0030(4) 0.0030(4)
Pd12 Pd 0.0121(3) 0.0121(3) 0.0121(3) 0.0015(2) 0.0015(2) 0.0015(2)
Cd14 Cd 0.0247(4) 0.0247(4) 0.0158(4) 0.0044(3) -0.0063(2) -0.0063(2)
loop_
_atom_type_symbol
_atom_type_scat_dispersion_real
_atom_type_scat_dispersion_imag
_atom_type_scat_source
Cd -0.8075 1.2024 'International Tables Vol C tables 4.2.6.8 and 6.1.1.1'
Pd -0.9988 1.0072 'International Tables Vol C tables 4.2.6.8 and 6.1.1.1'
loop_
_geom_bond_atom_site_label_1
_geom_bond_atom_site_label_2
_geom_bond_site_symmetry_1
_geom_bond_site_symmetry_2
_geom_bond_distance
Cd10 Cd11 . . 1.8336(9)
Cd10 Cd11 . 2_555 1.8336(9)
Cd10 Cd11 . 3_555 1.8336(9)
Cd10 Cd11 . 4_555 1.8336(9)
Cd10 Pd12 . 25_444 2.9677(6)
Cd10 Pd12 . 26_554 2.9677(6)
Cd10 Pd12 . 27_545 2.9677(6)
Cd10 Pd12 . 28_455 2.9677(6)
Cd10 Cd13a . 25_444 3.039(14)
Cd10 Cd13a . 27_545 3.039(14)
Cd10 Cd13a . 29_444 3.039(14)
Cd10 Cd13a . 31_554 3.039(14)
Cd10 Cd13a . 33_444 3.039(14)
Cd10 Cd13a . 35_455 3.039(14)
Cd11 Cd11 . 2_555 2.9942(12)
Cd11 Cd11 . 3_555 2.9942(12)
Cd11 Cd11 . 4_555 2.9942(12)
Cd11 Pd12 . 26_554 2.9226(11)
Cd11 Pd12 . 27_545 2.9226(11)
Cd11 Pd12 . 28_455 2.9226(11)
Cd11 Cd13a . 27_545 2.482(11)
Cd11 Cd13a . 31_554 2.482(11)
Cd11 Cd13a . 35_455 2.482(11)
Cd11 Cd13 . 27_545 2.912(2)
Cd11 Cd13 . 31_554 2.912(2)
Cd11 Cd13 . 35_455 2.912(2)
Cd11 Cd14 . . 2.8771(10)
Cd11 Cd14 . 5_555 2.8771(10)
Cd11 Cd14 . 9_555 2.8771(10)
Pd12 Cd13a . . 2.762(7)
Pd12 Cd13a . 5_555 2.762(7)
Pd12 Cd13a . 9_555 2.762(7)
Pd12 Cd14 . . 2.8266(9)
Pd12 Cd14 . 26_555 2.8738(9)
Pd12 Cd14 . 5_555 2.8266(9)
Pd12 Cd14 . 30_555 2.8738(9)
Pd12 Cd14 . 9_555 2.8266(9)
Pd12 Cd14 . 34_555 2.8738(9)
Cd13a Cd13 . . 0.518(14)
Cd13a Cd14 . . 3.107(6)
Cd13a Cd14 . 2_665 3.107(6)
Cd13a Cd14 . 30_555 3.0813(6)
Cd13a Cd14 . 32_555 3.0813(6)
Cd13a Cd14 . 34_555 3.0813(6)
Cd13a Cd14 . 35_555 3.0813(6)
Cd13 Cd13 . 3_655 2.842(3)
Cd13 Cd14 . . 2.8955(10)
Cd13 Cd14 . 2_665 2.8955(10)
Cd13 Cd14 . 30_555 3.1230(7)
Cd13 Cd14 . 32_555 3.1230(7)
Cd13 Cd14 . 34_555 3.1230(7)
Cd13 Cd14 . 35_555 3.1230(7)
Cd14 Cd14 . 30_555 3.0184(9)
Cd14 Cd14 . 31_554 3.0184(9)
Cd14 Cd14 . 34_555 3.0184(9)
Cd14 Cd14 . 36_554 3.0184(9)
loop_
_refln_index_h
_refln_index_k
_refln_index_l
_refln_F_squared_calc
_refln_F_squared_meas
_refln_F_squared_sigma
_refln_observed_status
0 0 2 2613. 2653. 63. o
1 1 2 4531. 4356. 58. o
-1 1 2 4568. 4451. 58. o
0 2 2 1099. 1174. 37. o
2 2 2 133764. 130800. 1262. o
-2 2 2 133287. 130780. 1011. o
0 1 3 8099. 8434. 65. o
1 2 3 19646. 19716. 121. o
-1 2 3 19645. 19692. 118. o
0 3 3 1536200. 1665180. 7656. o
2 3 3 107584. 106635. 618. o
-2 3 3 108307. 105907. 537. o
0 0 4 9701. 10544. 160. o
1 1 4 524632. 522815. 2391. o
-1 1 4 523648. 521211. 2403. o
0 2 4 4141. 4446. 58. o
2 2 4 67435. 66597. 431. o
-2 2 4 67027. 67152. 407. o
1 3 4 6261. 6425. 74. o
-1 3 4 6202. 6572. 71. o
3 3 4 17180. 16362. 180. o
-3 3 4 17129. 16659. 156. o
0 4 4 27288. 27949. 246. o
2 4 4 101950. 100963. 610. o
-2 4 4 102335. 100786. 558. o
4 4 4 598478. 585380. 5066. o
-4 4 4 597704. 574600. 4152. o
0 1 5 29743. 29089. 163. o
1 2 5 8395. 8636. 92. o
-1 2 5 8533. 8695. 89. o
0 3 5 18865. 18281. 137. o
2 3 5 13454. 13155. 122. o
-2 3 5 13365. 13269. 110. o
1 4 5 1450. 1698. 46. o
-1 4 5 1533. 1595. 41. o
3 4 5 15320. 15139. 147. o
-3 4 5 15384. 15238. 124. o
0 5 5 230351. 229423. 1195. o
2 5 5 23256. 23780. 275. o
-2 5 5 22979. 24341. 247. o
4 5 5 17053. 16451. 261. o
-4 5 5 16857. 16796. 223. o
0 0 6 360809. 339960. 2209. o
1 1 6 23679. 24550. 222. o
-1 1 6 23761. 24665. 227. o
0 2 6 2514. 2602. 57. o
2 2 6 12375. 12006. 181. o
-2 2 6 12352. 12127. 170. o
1 3 6 76636. 74946. 375. o
-1 3 6 76240. 74531. 380. o
3 3 6 270636. 261235. 1618. o
-3 3 6 270370. 259619. 1364. o
0 4 6 22235. 22166. 178. o
2 4 6 16519. 17046. 165. o
-2 4 6 16613. 16797. 151. o
4 4 6 31666. 30388. 385. o
-4 4 6 31803. 30510. 328. o
1 5 6 17598. 16979. 167. o
-1 5 6 17739. 16702. 157. o
3 5 6 12692. 13486. 166. o
-3 5 6 12922. 13140. 153. o
5 5 6 757. 664. 85. o
-5 5 6 729. 700. 73. o
0 6 6 208034. 207681. 1237. o
2 6 6 88436. 88828. 735. o
-2 6 6 88940. 88795. 679. o
4 6 6 11576. 11263. 275. o
-4 6 6 11451. 10805. 238. o
6 6 6 95157. 90965. 1866. o
-6 6 6 94526. 88009. 1879. o
0 1 7 9393. 9189. 102. o
1 2 7 173287. 171982. 778. o
-1 2 7 173930. 173966. 770. o
0 3 7 23567. 23535. 216. o
2 3 7 32638. 33302. 271. o
-2 3 7 32741. 32551. 254. o
1 4 7 175988. 177098. 808. o
-1 4 7 175632. 175026. 806. o
3 4 7 10373. 9681. 148. o
-3 4 7 10413. 9632. 137. o
0 5 7 1926. 2043. 66. o
2 5 7 48835. 47680. 356. o
-2 5 7 48428. 48366. 320. o
4 5 7 17184. 17931. 232. o
-4 5 7 17448. 17852. 223. o
1 6 7 713. 786. 52. o
-1 6 7 695. 802. 49. o
3 6 7 454. 776. 60. o
-3 6 7 474. 751. 53. o
5 6 7 8571. 8921. 201. o
-5 6 7 8635. 9003. 204. o
0 7 7 2195. 2454. 111. o
2 7 7 9056. 9704. 255. o
-2 7 7 9067. 9352. 223. o
4 7 7 175929. 180270. 1762. o
-4 7 7 175557. 180827. 1678. o
6 7 7 26942. 26096. 591. o
-6 7 7 27037. 25775. 591. o
0 0 8 63561. 62069. 661. o
1 1 8 2653. 3028. 104. o
-1 1 8 2570. 3248. 107. o
0 2 8 69105. 70719. 427. o
2 2 8 29399. 30060. 376. o
-2 2 8 29174. 31111. 414. o
1 3 8 6326. 6254. 114. o
-1 3 8 6408. 6228. 115. o
3 3 8 33362. 33446. 467. o
-3 3 8 33126. 34158. 403. o
0 4 8 5016. 5154. 109. o
2 4 8 2358. 2500. 87. o
-2 4 8 2286. 2449. 79. o
4 4 8 7143. 7773. 252. o
-4 4 8 7251. 7352. 193. o
1 5 8 9122. 9673. 157. o
-1 5 8 9195. 9546. 147. o
3 5 8 103764. 104613. 678. o
-3 5 8 103728. 104085. 619. o
5 5 8 2786. 3282. 179. o
-5 5 8 2734. 3396. 174. o
0 6 8 5813. 6581. 133. o
2 6 8 6580. 5960. 138. o
-2 6 8 6495. 6083. 127. o
4 6 8 4012. 4271. 149. o
-4 6 8 4057. 4098. 125. o
6 6 8 2548. 2283. 211. o
-6 6 8 2448. 1762. 166. o
1 7 8 18605. 19183. 256. o
-1 7 8 18838. 18943. 252. o
3 7 8 2211. 2391. 114. o
-3 7 8 2187. 2092. 95. o
5 7 8 2692. 2342. 142. o
-5 7 8 2678. 2428. 131. o
7 7 8 4405. 4143. 498. o
-7 7 8 4469. 4355. 405. o
0 8 8 176934. 178318. 1593. o
2 8 8 513. 533. 94. o
-2 8 8 543. 603. 93. o
4 8 8 15211. 15359. 479. o
-4 8 8 15303. 15461. 405. o
6 8 8 23329. 24576. 1260. o
-6 8 8 23374. 24305. 948. o
0 1 9 13923. 14044. 169. o
1 2 9 7245. 6788. 125. o
-1 2 9 7290. 6933. 131. o
0 3 9 26906. 25594. 257. o
2 3 9 10145. 9717. 166. o
-2 3 9 10281. 9945. 170. o
1 4 9 29107. 28590. 301. o
-1 4 9 29275. 29065. 292. o
3 4 9 4817. 4733. 134. o
-3 4 9 4738. 4655. 115. o
0 5 9 784. 847. 62. o
2 5 9 11041. 10831. 190. o
-2 5 9 11000. 11006. 173. o
4 5 9 15068. 15416. 265. o
-4 5 9 15185. 15040. 230. o
1 6 9 14234. 13565. 219. o
-1 6 9 14079. 13333. 198. o
3 6 9 70871. 69087. 641. o
-3 6 9 70442. 68016. 575. o
5 6 9 13919. 15147. 307. o
-5 6 9 14089. 15084. 292. o
0 7 9 4056. 4218. 130. o
2 7 9 1334. 1115. 81. o
-2 7 9 1322. 1118. 78. o
4 7 9 16491. 15390. 301. o
-4 7 9 16585. 15074. 292. o
6 7 9 2253. 2279. 258. o
-6 7 9 2217. 1990. 221. o
1 8 9 3325. 3124. 126. o
-1 8 9 3384. 2670. 120. o
3 8 9 2545. 3091. 142. o
-3 8 9 2588. 3002. 136. o
5 8 9 2399. 2297. 336. o
-5 8 9 2445. 2118. 270. o
0 9 9 66341. 61402. 1237. o
2 9 9 11443. 11546. 548. o
-2 9 9 11604. 11564. 546. o
0 0 10 64614. 64555. 918. o
1 1 10 51909. 51979. 549. o
-1 1 10 51573. 52356. 590. o
0 2 10 23364. 22927. 263. o
2 2 10 95376. 94727. 900. o
-2 2 10 94789. 95542. 905. o
1 3 10 4727. 4513. 118. o
-1 3 10 4702. 4885. 124. o
3 3 10 7513. 7911. 243. o
-3 3 10 7524. 7842. 220. o
0 4 10 2606. 2980. 102. o
2 4 10 26948. 29174. 338. o
-2 4 10 27208. 28450. 318. o
4 4 10 42396. 44872. 665. o
-4 4 10 42273. 45838. 600. o
1 5 10 72844. 75006. 575. o
-1 5 10 73367. 73911. 538. o
3 5 10 11860. 11849. 231. o
-3 5 10 11889. 11762. 215. o
5 5 10 6673. 5765. 256. o
-5 5 10 6569. 6370. 252. o
0 6 10 1948. 1701. 93. o
2 6 10 5616. 5953. 178. o
-2 6 10 5659. 5918. 162. o
4 6 10 1364. 1392. 106. o
-4 6 10 1362. 1102. 85. o
6 6 10 280. 243. 299. <
-6 6 10 278. 268. 210. <
1 7 10 20943. 23833. 341. o
-1 7 10 20894. 23403. 352. o
3 7 10 5741. 5505. 228. o
-3 7 10 5771. 5150. 200. o
5 7 10 4751. 4428. 518. o
-5 7 10 4683. 4906. 827. o
0 8 10 2252. 2308. 187. o
2 8 10 8268. 8171. 374. o
-2 8 10 8125. 7966. 468. o
0 1 11 23549. 24442. 287. o
1 2 11 16337. 16804. 237. o
-1 2 11 16434. 16559. 248. o
0 3 11 25906. 27084. 319. o
2 3 11 33072. 33259. 361. o
-2 3 11 33047. 32864. 371. o
1 4 11 5346. 5385. 143. o
-1 4 11 5456. 5344. 141. o
3 4 11 5266. 5713. 168. o
-3 4 11 5225. 5741. 149. o
0 5 11 63397. 62821. 527. o
2 5 11 10328. 11334. 232. o
-2 5 11 10290. 11499. 225. o
4 5 11 9437. 9283. 294. o
-4 5 11 9551. 8799. 244. o
1 6 11 2321. 2223. 140. o
-1 6 11 2305. 2464. 129. o
3 6 11 16475. 14902. 591. o
-3 6 11 16201. 15069. 380. o
0 7 11 72. -3. 211. <
2 7 11 1004. 1559. 348. o
-2 7 11 974. 1350. 279. o
0 0 12 39. 116. 97. <
1 1 12 7367. 7453. 244. o
-1 1 12 7457. 7694. 256. o
0 2 12 1942. 1922. 98. o
2 2 12 7396. 7032. 263. o
-2 2 12 7340. 6912. 256. o
1 3 12 1644. 1971. 100. o
-1 3 12 1679. 1984. 102. o
3 3 12 12734. 11609. 562. o
-3 3 12 12488. 11970. 440. o
0 4 12 2776. 2804. 147. o
2 4 12 7886. 7514. 399. o
-2 4 12 7809. 8084. 302. o
-4 4 12 29605. 22723. 1500. o
1 5 12 2077. 1956. 176. o
-1 5 12 2113. 1584. 200. o
0 1 13 1604. 839. 311. <
1 2 13 24416. 23568. 1521. o
-1 2 13 24740. 25281. 1554. o
