#------------------------------------------------------------------------------
#$Date: 2021-05-18 12:42:09 +0300 (Tue, 18 May 2021) $
#$Revision: 265306 $
#$URL: file:///home/coder/svn-repositories/cod/cif/1/56/26/1562674.cif $
#------------------------------------------------------------------------------
#
# This file is available in the Crystallography Open Database (COD),
# http://www.crystallography.net/
#
# All data on this site have been placed in the public domain by the
# contributors.
#
data_1562674
loop_
_publ_author_name
'Jana, Partha Pratim'
'Lidin, Sven'
_publ_section_title
;
 Pd2Cd11&#x2212; (0.21&#x2264;\d&#x2264;0.51)--a partly disordered
 \g-brass type phase and Pd0.238Cd0.762-a \g-brass related incommensurate
 phase in the palladium--cadmium system
;
_journal_name_full               'Journal of Solid State Chemistry'
_journal_page_first              244
_journal_page_last               249
_journal_paper_doi               10.1016/j.jssc.2013.01.044
_journal_volume                  201
_journal_year                    2013
_chemical_absolute_configuration .
_chemical_formula_sum            'Cd6.589 Pd2.054'
_chemical_formula_weight         959.2
_space_group_IT_number           69
_space_group_name_Hall           '-F 2 2'
_space_group_name_H-M_alt        'F m m m'
_space_group_ssg_name            Fmmm(\a00)0s0
_symmetry_cell_setting           orthorhombic
_cell_angle_alpha                90
_cell_angle_beta                 90
_cell_angle_gamma                90
_cell_formula_units_Z            4
_cell_length_a                   4.687(2)
_cell_length_b                   9.9995(14)
_cell_length_c                   14.140(2)
_cell_measurement_reflns_used    2187
_cell_measurement_temperature    293
_cell_measurement_theta_max      28.73
_cell_measurement_theta_min      2.88
_cell_modulation_dimension       1
_cell_subsystems_number          2
_cell_volume                     662.7(3)
_computing_cell_refinement
;
CrysAlisPro, Agilent Technologies,
Version 1.171.35.21 (release 20-01-2012 CrysAlis171 .NET)
(compiled Jan 23 2012,18:06:46)
;
_computing_data_collection
;
CrysAlisPro, Agilent Technologies,
Version 1.171.35.21 (release 20-01-2012 CrysAlis171 .NET)
(compiled Jan 23 2012,18:06:46)
;
_computing_data_reduction
;
CrysAlisPro, Agilent Technologies,
Version 1.171.35.21 (release 20-01-2012 CrysAlis171 .NET)
(compiled Jan 23 2012,18:06:46)
;
_diffrn_ambient_temperature      293
_diffrn_detector_area_resol_mean 16.1367
_diffrn_measured_fraction_theta_full 0.98
_diffrn_measured_fraction_theta_max 0.9
_diffrn_measurement_device       'four-cycle diffractometer'
_diffrn_measurement_device_type  'Xcalibur, Eos'
_diffrn_measurement_method       '\w scans'
_diffrn_radiation_monochromator  graphite
_diffrn_radiation_probe          x-ray
_diffrn_radiation_source         'Enhance (Mo) X-ray Source'
_diffrn_radiation_wavelength     0.7107
_diffrn_reflns_av_R_equivalents  0.0664
_diffrn_reflns_av_sigmaI/netI    0.0481
_diffrn_reflns_limit_h_max       6
_diffrn_reflns_limit_h_min       -6
_diffrn_reflns_limit_index_m_1_max 3
_diffrn_reflns_limit_index_m_1_min -3
_diffrn_reflns_limit_k_max       13
_diffrn_reflns_limit_k_min       -12
_diffrn_reflns_limit_l_max       17
_diffrn_reflns_limit_l_min       -18
_diffrn_reflns_number            8181
_diffrn_reflns_theta_full        27.3
_diffrn_reflns_theta_max         28.78
_diffrn_reflns_theta_min         2.88
_exptl_absorpt_coefficient_mu    26.006
_exptl_absorpt_correction_T_max  1
_exptl_absorpt_correction_T_min  0.627
_exptl_absorpt_correction_type   multi-scan
_exptl_absorpt_process_details
;
CrysAlisPro, Agilent Technologies,
Version 1.171.35.21 (release 20-01-2012 CrysAlis171 .NET)
(compiled Jan 23 2012,18:06:46)
Empirical absorption correction using spherical harmonics,
 implemented in SCALE3 ABSPACK scaling algorithm.
;
_exptl_crystal_density_diffrn    9.6109
_exptl_crystal_F_000             1643
_exptl_crystal_size_max          0.06
_exptl_crystal_size_mid          0.04
_exptl_crystal_size_min          0.02
_refine_diff_density_max         5.67
_refine_diff_density_min         -5.60
_refine_ls_extinction_coef       120(20)
_refine_ls_extinction_method
'B-C type 1 Gaussian isotropic (Becker & Coppens, 1974)'
_refine_ls_goodness_of_fit_all   1.47
_refine_ls_goodness_of_fit_gt    1.58
_refine_ls_number_constraints    32
_refine_ls_number_parameters     74
_refine_ls_number_reflns         1445
_refine_ls_number_restraints     0
_refine_ls_R_factor_all          0.0885
_refine_ls_R_factor_gt           0.0574
_refine_ls_shift/su_max          0.0356
_refine_ls_shift/su_mean         0.0106
_refine_ls_structure_factor_coef Fsqd
_refine_ls_weighting_details     w=1/(\s^2^(I)+0.0025000002I^2^)
_refine_ls_weighting_scheme      sigma
_refine_ls_wR_factor_all         0.1622
_refine_ls_wR_factor_gt          0.1456
_reflns_number_gt                1017
_reflns_number_total             1445
_reflns_threshold_expression     I>3\s(I)
_cod_data_source_file            JSSC-2013-201-244.cif
_cod_data_source_block           VI
_cod_depositor_comments
;
The following automatic conversions were performed:

data item '_diffrn_radiation_probe' value 'X-ray' was changed to
'x-ray' in accordance with the built-in table derived from the CIF
Core dictionary named 'cif_core.dic' version 2.4.5 last updated on
2014-11-21.

Automatic conversion script
Id: cif_fix_values 8369 2020-08-20 11:38:08Z andrius 
;
_cod_database_code               1562674
loop_
_space_group_symop_id
_space_group_symop_operation_xyz
1 x,y,z
2 -x,-y,z
3 -x,y,-z
4 x,-y,-z
5 x,y+0.5,z+0.5
6 -x,-y+0.5,z+0.5
7 -x,y+0.5,-z+0.5
8 x,-y+0.5,-z+0.5
9 x+0.5,y,z+0.5
10 -x+0.5,-y,z+0.5
11 -x+0.5,y,-z+0.5
12 x+0.5,-y,-z+0.5
13 x+0.5,y+0.5,z
14 -x+0.5,-y+0.5,z
15 -x+0.5,y+0.5,-z
16 x+0.5,-y+0.5,-z
17 -x,-y,-z
18 x,y,-z
19 x,-y,z
20 -x,y,z
21 -x,-y+0.5,-z+0.5
22 x,y+0.5,-z+0.5
23 x,-y+0.5,z+0.5
24 -x,y+0.5,z+0.5
25 -x+0.5,-y,-z+0.5
26 x+0.5,y,-z+0.5
27 x+0.5,-y,z+0.5
28 -x+0.5,y,z+0.5
29 -x+0.5,-y+0.5,-z
30 x+0.5,y+0.5,-z
31 x+0.5,-y+0.5,z
32 -x+0.5,y+0.5,z
loop_
_space_group_symop_ssg_id
_space_group_symop_ssg_operation_algebraic
1 x1,x2,x3,x4
2 -x1,-x2,x3,-x4
3 -x1,x2,-x3,-x4+1/2
4 x1,-x2,-x3,x4+1/2
5 -x1,-x2,-x3,-x4
6 x1,x2,-x3,x4
7 x1,-x2,x3,x4+1/2
8 -x1,x2,x3,-x4+1/2
9 x1,x2+1/2,x3+1/2,x4
10 -x1,-x2+1/2,x3+1/2,-x4
11 -x1,x2+1/2,-x3+1/2,-x4+1/2
12 x1,-x2+1/2,-x3+1/2,x4+1/2
13 -x1,-x2+1/2,-x3+1/2,-x4
14 x1,x2+1/2,-x3+1/2,x4
15 x1,-x2+1/2,x3+1/2,x4+1/2
16 -x1,x2+1/2,x3+1/2,-x4+1/2
17 x1+1/2,x2,x3+1/2,x4
18 -x1+1/2,-x2,x3+1/2,-x4
19 -x1+1/2,x2,-x3+1/2,-x4+1/2
20 x1+1/2,-x2,-x3+1/2,x4+1/2
21 -x1+1/2,-x2,-x3+1/2,-x4
22 x1+1/2,x2,-x3+1/2,x4
23 x1+1/2,-x2,x3+1/2,x4+1/2
24 -x1+1/2,x2,x3+1/2,-x4+1/2
25 x1+1/2,x2+1/2,x3,x4
26 -x1+1/2,-x2+1/2,x3,-x4
27 -x1+1/2,x2+1/2,-x3,-x4+1/2
28 x1+1/2,-x2+1/2,-x3,x4+1/2
29 -x1+1/2,-x2+1/2,-x3,-x4
30 x1+1/2,x2+1/2,-x3,x4
31 x1+1/2,-x2+1/2,x3,x4+1/2
32 -x1+1/2,x2+1/2,x3,-x4+1/2
loop_
_atom_site_label
_atom_site_type_symbol
_atom_site_fract_x
_atom_site_fract_y
_atom_site_fract_z
_atom_site_adp_type
_atom_site_U_iso_or_equiv
_atom_site_symmetry_multiplicity
_atom_site_occupancy
_atom_site_calc_flag
_atom_site_refinement_flags
_atom_site_disorder_assembly
_atom_site_disorder_group
_atom_site_subsystem_code
Pd1 Pd 0.5 0 0 Uani 0.0093(5) 4 1 d . . . 1
Pd2 Pd 0.5 0.14929(8) 0.17933(6) Uani 0.0135(3) 16 0.26(3) d . . . 1
Cd1 Cd 0.5 0.14929(8) 0.17933(6) Uani 0.0135(3) 16 0.74(3) d . . . 1
Cd2 Cd 0 0 0.12085(9) Uani 0.0164(4) 8 1 d . . . 1
Cd3 Cd 0.75 0.25 0 Uani 0.0156(4) 4 1 d . . . 2
loop_
_atom_site_aniso_label
_atom_site_aniso_type_symbol
_atom_site_aniso_U_11
_atom_site_aniso_U_22
_atom_site_aniso_U_33
_atom_site_aniso_U_12
_atom_site_aniso_U_13
_atom_site_aniso_U_23
Pd1 Pd 0.0107(9) 0.0079(8) 0.0091(8) 0 0 0
Pd2 Pd 0.0140(6) 0.0130(5) 0.0134(5) 0 0 -0.0031(3)
Cd1 Cd 0.0140(6) 0.0130(5) 0.0134(5) 0 0 -0.0031(3)
Cd2 Cd 0.0113(7) 0.0171(8) 0.0207(7) 0 0 0
Cd3 Cd 0.0163(8) 0.0124(7) 0.0180(7) 0 0 0
loop_
_atom_site_displace_Fourier_atom_site_label
_atom_site_displace_Fourier_axis
_atom_site_displace_Fourier_wave_vector_seq_id
_atom_site_displace_Fourier_param_cos
_atom_site_displace_Fourier_param_sin
Pd1 x 1 0 0
Pd1 y 1 0 0.0192(2)
Pd1 z 1 0 0
Pd1 x 2 0 0.0067(5)
Pd1 y 2 0 0
Pd1 z 2 0 0
Pd1 x 3 0 0
Pd1 y 3 0 0.0002(2)
Pd1 z 3 0 0
Pd1 x 4 0 0.002(2)
Pd1 y 4 0 0
Pd1 z 4 0 0
Pd2 x 1 -0.0778(3) 0
Pd2 y 1 0 -0.02176(13)
Pd2 z 1 0 0.00613(8)
Pd2 x 2 0 -0.0269(3)
Pd2 y 2 0.00607(12) 0
Pd2 z 2 -0.00255(7) 0
Pd2 x 3 0.0000(3) 0
Pd2 y 3 0 0.00250(14)
Pd2 z 3 0 -0.00352(8)
Pd2 x 4 0 -0.0131(5)
Pd2 y 4 -0.0016(2) 0
Pd2 z 4 0.00098(19) 0
Cd1 x 1 -0.0778(3) 0
Cd1 y 1 0 -0.02176(13)
Cd1 z 1 0 0.00613(8)
Cd1 x 2 0 -0.0269(3)
Cd1 y 2 0.00607(12) 0
Cd1 z 2 -0.00255(7) 0
Cd1 x 3 0.0000(3) 0
Cd1 y 3 0 0.00250(14)
Cd1 z 3 0 -0.00352(8)
Cd1 x 4 0 -0.0131(5)
Cd1 y 4 -0.0016(2) 0
Cd1 z 4 0.00098(19) 0
Cd2 x 1 0 0
Cd2 y 1 0 0.0572(2)
Cd2 z 1 0 0
Cd2 x 2 0 0.0229(4)
Cd2 y 2 0 0
Cd2 z 2 0.01163(13) 0
Cd2 x 3 0 0
Cd2 y 3 0 0.0020(2)
Cd2 z 3 0 0
Cd2 x 4 0 0.0078(13)
Cd2 y 4 0 0
Cd2 z 4 -0.0030(4) 0
Cd3 x 1 0 0
Cd3 y 1 0 0.05268(19)
Cd3 z 1 0 0
Cd3 x 2 0 -0.0262(8)
Cd3 y 2 0 0
Cd3 z 2 0 0
Cd3 x 3 0 0
Cd3 y 3 0 -0.0006(2)
Cd3 z 3 0 0
Cd3 x 4 0 0.0035(8)
Cd3 y 4 0 0
Cd3 z 4 0 0
loop_
_atom_site_Fourier_wave_vector_seq_id
_jana_atom_site_fourier_wave_vector_q1_coeff
1 1
2 2
3 3
4 4
loop_
_atom_site_occ_special_func_atom_site_label
_atom_site_occ_special_func_crenel_c
_atom_site_occ_special_func_crenel_w
Pd2 0.75 0.26(3)
Cd1 0.25 0.74(3)
loop_
_atom_site_U_Fourier_atom_site_label
_atom_site_U_Fourier_tens_elem
_atom_site_U_Fourier_wave_vector_seq_id
_atom_site_U_Fourier_param_cos
_atom_site_U_Fourier_param_sin
Pd1 U11 1 0 0
Pd1 U22 1 0 0
Pd1 U33 1 0 0
Pd1 U12 1 0.0013(9) 0
Pd1 U13 1 0 0
Pd1 U23 1 0 0
Pd1 U11 2 -0.0030(12) 0
Pd1 U22 2 -0.0007(11) 0
Pd1 U33 2 0.0010(10) 0
Pd1 U12 2 0 0
Pd1 U13 2 0 0
Pd1 U23 2 0 0
Pd2 U11 1 0 0.0081(7)
Pd2 U22 1 0 0.0032(6)
Pd2 U33 1 0 0.0014(6)
Pd2 U12 1 0.0011(5) 0
Pd2 U13 1 0.0009(5) 0
Pd2 U23 1 0 -0.0012(5)
Pd2 U11 2 -0.0037(7) 0
Pd2 U22 2 0.0044(6) 0
Pd2 U33 2 -0.0010(5) 0
Pd2 U12 2 0 0.0028(5)
Pd2 U13 2 0 0.0001(5)
Pd2 U23 2 -0.0004(4) 0
Cd1 U11 1 0 0.0081(7)
Cd1 U22 1 0 0.0032(6)
Cd1 U33 1 0 0.0014(6)
Cd1 U12 1 0.0011(5) 0
Cd1 U13 1 0.0009(5) 0
Cd1 U23 1 0 -0.0012(5)
Cd1 U11 2 -0.0037(7) 0
Cd1 U22 2 0.0044(6) 0
Cd1 U33 2 -0.0010(5) 0
Cd1 U12 2 0 0.0028(5)
Cd1 U13 2 0 0.0001(5)
Cd1 U23 2 -0.0004(4) 0
Cd2 U11 1 0 0
Cd2 U22 1 0 0
Cd2 U33 1 0 0
Cd2 U12 1 0.0037(8) 0
Cd2 U13 1 0 0
Cd2 U23 1 0 -0.0054(8)
Cd2 U11 2 -0.0006(11) 0
Cd2 U22 2 -0.0018(12) 0
Cd2 U33 2 0.0022(12) 0
Cd2 U12 2 0 0
Cd2 U13 2 0 0.0022(9)
Cd2 U23 2 0 0
Cd2 U11 3 0 0
Cd2 U22 3 0 0
Cd2 U33 3 0 0
Cd2 U12 3 0.0022(16) 0
Cd2 U13 3 0 0
Cd2 U23 3 0 0.0001(14)
Cd3 U11 1 0 0
Cd3 U22 1 0 0
Cd3 U33 1 0 0
Cd3 U12 1 -0.0037(9) 0
Cd3 U13 1 0 0
Cd3 U23 1 0 0
Cd3 U11 2 0.0054(12) 0
Cd3 U22 2 0.0018(10) 0
Cd3 U33 2 -0.0001(8) 0
Cd3 U12 2 0 0
Cd3 U13 2 0 0
Cd3 U23 2 0 0
Cd3 U11 3 0 0
Cd3 U22 3 0 0
Cd3 U33 3 0 0
Cd3 U12 3 0.0026(9) 0
Cd3 U13 3 0 0
Cd3 U23 3 0 0
loop_
_atom_type_symbol
_atom_type_scat_dispersion_real
_atom_type_scat_dispersion_imag
_atom_type_scat_source
Cd -0.8075 1.2024 'International Tables Vol C tables 4.2.6.8 and 6.1.1.1'
Pd -0.9988 1.0072 'International Tables Vol C tables 4.2.6.8 and 6.1.1.1'
loop_
_cell_subsystem_code
_cell_subsystem_description
_cell_subsystem_matrix_W_1_1
_cell_subsystem_matrix_W_1_2
_cell_subsystem_matrix_W_1_3
_cell_subsystem_matrix_W_1_4
_cell_subsystem_matrix_W_2_1
_cell_subsystem_matrix_W_2_2
_cell_subsystem_matrix_W_2_3
_cell_subsystem_matrix_W_2_4
_cell_subsystem_matrix_W_3_1
_cell_subsystem_matrix_W_3_2
_cell_subsystem_matrix_W_3_3
_cell_subsystem_matrix_W_3_4
_cell_subsystem_matrix_W_4_1
_cell_subsystem_matrix_W_4_2
_cell_subsystem_matrix_W_4_3
_cell_subsystem_matrix_W_4_4
1 '1-st subsystem' 1 0 0 0 0 1 0 0 0 0 1 0 0 0 0 1
2 '2-nd subsystem' 1 0 0 1 0 1 0 0 0 0 1 0 0 0 0 1
loop_
_cell_wave_vector_seq_id
_cell_wave_vector_x
_cell_wave_vector_y
_cell_wave_vector_z
1 0.643200 0.000000 0.000000
loop_
_refln_index_h
_refln_index_k
_refln_index_l
_refln_index_m_1
_refln_F_squared_calc
_refln_F_squared_meas
_refln_F_squared_sigma
_refln_observed_status
0 0 0 2 222.23 278.82 68.07 o
2 0 0 -2 863.29 852.25 86.27 o
2 0 0 0 742241.00 764811.00 4502.91 o
2 0 0 2 86925.10 80801.50 2236.03 o
4 0 0 -2 7260.54 8896.19 672.12 o
4 0 0 0 118157.00 116220.00 2942.55 o
4 0 0 2 53369.10 56325.10 3625.51 o
6 0 0 -2 377.07 453.53 317.47 <
0 2 0 0 122.53 241.03 58.97 o
0 2 0 1 418.84 565.47 89.03 o
0 2 0 2 2356.53 2399.27 248.06 o
0 2 0 3 3582.00 2573.95 305.76 o
2 2 0 -3 41.25 36.73 33.83 <
2 2 0 -2 164.08 97.64 76.29 <
2 2 0 -1 77365.90 85271.90 1403.23 o
2 2 0 0 52572.40 55452.90 1265.51 o
2 2 0 1 44995.10 47626.70 1112.39 o
2 2 0 2 20259.80 20060.50 830.10 o
2 2 0 3 1279.81 6742.27 599.27 o
4 2 0 -3 3044.72 3371.32 370.68 o
4 2 0 -2 3265.64 4388.80 376.01 o
4 2 0 -1 32720.10 30845.20 997.85 o
4 2 0 0 33353.50 35497.10 1151.82 o
4 2 0 1 12973.10 11411.50 852.30 o
4 2 0 2 1487.73 1365.53 328.39 o
4 2 0 3 617.92 2391.17 1006.56 <
6 2 0 -3 10545.90 10119.50 665.36 o
6 2 0 -2 3020.98 4078.52 551.70 o
6 2 0 -1 1832.08 1416.75 354.43 o
6 2 0 0 15862.60 12108.80 1868.98 o
0 4 0 0 8.49 128.24 153.93 <
0 4 0 1 242174.00 218744.00 2289.84 o
0 4 0 2 2523.16 2497.77 317.40 o
0 4 0 3 1910.37 1725.60 289.66 o
2 4 0 -3 1.30 -54.77 81.44 <
2 4 0 -2 14164.00 15549.10 826.97 o
2 4 0 -1 35501.30 33160.20 1174.13 o
2 4 0 0 2107.73 1964.09 276.53 o
2 4 0 1 240851.00 252484.00 3456.39 o
2 4 0 2 2870.64 2644.50 340.68 o
2 4 0 3 1483.64 2660.44 399.63 o
4 4 0 -3 201.23 194.54 148.70 <
4 4 0 -2 38603.90 37825.30 1356.82 o
4 4 0 -1 5049.96 6796.00 492.56 o
4 4 0 0 11842.10 10639.80 669.63 o
4 4 0 1 76562.90 78688.40 2323.64 o
4 4 0 2 6269.97 6859.44 942.01 o
6 4 0 -3 1667.57 1185.86 296.83 o
6 4 0 -2 16722.00 22631.70 1314.58 o
6 4 0 -1 1367.00 2167.84 563.87 o
0 6 0 0 156807.00 151711.00 3177.73 o
0 6 0 1 29.50 -1.37 117.04 <
0 6 0 2 3185.38 3686.19 448.21 o
0 6 0 3 113.44 228.93 313.27 <
2 6 0 -3 1279.51 1208.68 179.53 o
2 6 0 -2 21041.50 18285.50 793.26 o
2 6 0 -1 404.76 689.74 263.83 <
2 6 0 0 139302.00 142050.00 2716.35 o
2 6 0 1 10842.80 11804.60 717.01 o
2 6 0 2 597.98 363.56 188.99 <
2 6 0 3 8244.33 9549.45 908.77 o
4 6 0 -3 7069.61 7475.29 539.61 o
4 6 0 -2 5879.58 5650.57 527.71 o
4 6 0 -1 580.90 892.75 273.66 o
4 6 0 0 20071.20 21184.70 1244.33 o
4 6 0 1 23777.00 23247.60 1361.22 o
4 6 0 2 11749.80 12031.30 1782.38 o
6 6 0 -3 10194.20 11348.10 965.55 o
6 6 0 -2 2814.63 1917.34 490.42 o
6 6 0 -1 483.87 647.75 480.35 <
0 8 0 0 6966.79 6439.81 759.83 o
0 8 0 1 2965.93 3058.97 378.56 o
0 8 0 2 35320.90 33249.20 1524.49 o
0 8 0 3 3231.82 4562.83 589.07 o
2 8 0 -3 6739.32 5412.19 526.77 o
2 8 0 -2 1135.38 1350.64 340.32 o
2 8 0 -1 3098.13 2439.41 446.34 o
2 8 0 0 244.54 457.95 242.55 <
2 8 0 1 381.38 453.93 234.34 <
2 8 0 2 17913.60 15823.30 1066.12 o
2 8 0 3 1892.45 1131.54 330.99 o
4 8 0 -3 4771.29 4970.69 631.22 o
4 8 0 -2 471.97 638.81 239.74 <
4 8 0 -1 4915.22 5158.89 657.92 o
4 8 0 0 60.02 695.96 292.48 <
4 8 0 1 3437.76 3986.96 794.65 o
6 8 0 -3 103.33 483.71 269.77 <
6 8 0 -2 71.22 -230.13 263.89 <
0 10 0 0 16328.60 15275.10 1380.89 o
0 10 0 1 31771.80 32548.50 1679.72 o
0 10 0 2 1380.12 1760.95 522.16 o
0 10 0 3 321.33 876.75 398.90 <
2 10 0 -3 3702.28 5348.15 601.41 o
2 10 0 -2 1489.63 1268.40 326.22 o
2 10 0 -1 46741.40 46292.20 2102.76 o
2 10 0 0 1792.63 2118.54 483.27 o
2 10 0 1 19557.90 19877.50 1183.36 o
2 10 0 2 2103.01 1834.63 401.33 o
2 10 0 3 1150.70 987.85 385.49 <
4 10 0 -3 184.11 234.41 264.78 <
4 10 0 -2 3735.36 3639.98 616.28 o
4 10 0 -1 7216.35 6460.50 728.29 o
4 10 0 0 74.29 127.19 415.97 <
0 12 0 0 284.78 238.52 353.95 <
0 12 0 1 1201.31 1977.74 506.90 o
0 12 0 2 4820.30 4759.21 782.23 o
0 12 0 3 8108.94 7917.73 1156.27 o
2 12 0 -3 0.80 393.09 289.50 <
2 12 0 -2 3267.42 3180.04 679.01 o
2 12 0 -1 5464.54 5289.83 854.43 o
2 12 0 0 222.35 267.27 502.08 <
2 12 0 1 8817.35 9080.93 1731.45 o
4 12 0 -3 110.51 989.66 745.02 <
4 12 0 -2 6801.22 4883.89 1298.43 o
1 1 1 -3 1.96 -11.76 33.99 <
1 1 1 0 1129.33 1348.75 69.81 o
1 1 1 1 9660.55 9634.04 239.31 o
1 1 1 2 3608.68 3084.47 175.24 o
1 1 1 3 50.40 224.58 92.47 <
3 1 1 -3 2.05 80.07 39.07 <
3 1 1 -2 2113.93 2258.22 138.43 o
3 1 1 -1 1179.52 912.34 107.01 o
3 1 1 0 0.47 149.66 100.37 <
3 1 1 1 9558.36 9266.37 475.92 o
3 1 1 2 908.89 1111.93 203.66 o
3 1 1 3 9814.08 9129.13 622.98 o
5 1 1 -3 1009.86 804.90 128.11 o
5 1 1 -2 2693.20 3123.95 289.49 o
5 1 1 -1 108.72 439.57 132.43 o
5 1 1 0 350.60 1115.12 261.08 o
5 1 1 1 3275.20 2969.47 448.37 o
1 3 1 -3 0.14 50.10 71.29 <
1 3 1 -2 973.71 921.50 91.80 o
1 3 1 -1 0.79 141.37 53.32 <
1 3 1 0 13749.50 14563.50 472.99 o
1 3 1 1 61300.20 67884.90 1022.44 o
1 3 1 2 4783.73 4947.97 297.31 o
1 3 1 3 1211.58 1389.40 173.63 o
3 3 1 -3 234.19 168.05 75.97 <
3 3 1 -2 27.95 82.97 76.04 <
3 3 1 -1 2.97 70.08 96.98 <
3 3 1 0 5364.89 5442.02 291.78 o
3 3 1 1 6303.87 6735.52 353.71 o
3 3 1 2 3.82 78.46 109.87 <
3 3 1 3 5983.02 5026.17 423.09 o
5 3 1 -3 916.09 1148.88 148.00 o
5 3 1 -2 52.18 146.93 124.21 <
5 3 1 -1 27.88 291.76 127.67 <
5 3 1 0 0.87 253.41 149.02 <
5 3 1 1 2222.85 2210.05 357.58 o
1 5 1 -3 295.71 321.83 108.03 <
1 5 1 -2 2919.74 3154.36 195.28 o
1 5 1 -1 17929.60 16486.40 423.39 o
1 5 1 0 3943.67 3871.23 313.95 o
1 5 1 1 8081.06 9128.06 430.33 o
1 5 1 2 1273.83 986.06 162.20 o
1 5 1 3 4614.34 4437.67 360.71 o
3 5 1 -3 604.54 551.95 142.52 o
3 5 1 -2 128.29 40.03 104.64 <
3 5 1 -1 8579.30 9748.54 487.62 o
3 5 1 0 2429.58 3110.87 293.50 o
3 5 1 1 21.99 63.23 138.55 <
3 5 1 2 1631.00 2285.77 299.80 o
3 5 1 3 305.16 766.95 235.62 o
5 5 1 -3 86.60 104.15 119.38 <
5 5 1 -2 27.64 -107.94 112.13 <
5 5 1 -1 1104.49 746.42 197.22 o
5 5 1 0 1611.11 1314.70 293.27 o
5 5 1 1 8.75 -101.41 224.90 <
1 7 1 -3 198.32 184.95 115.84 <
1 7 1 -2 0.70 167.30 90.86 <
1 7 1 -1 642.45 761.47 139.45 o
1 7 1 0 93834.10 96703.50 1675.17 o
1 7 1 1 16414.30 16981.80 787.87 o
1 7 1 2 10097.10 9342.20 537.78 o
1 7 1 3 4204.04 3876.28 392.96 o
3 7 1 -3 215.53 446.59 145.96 o
3 7 1 -2 3786.02 4258.77 414.74 o
3 7 1 -1 1809.10 1482.61 242.38 o
3 7 1 0 10875.60 9919.46 561.62 o
3 7 1 1 2239.51 3086.83 328.76 o
3 7 1 2 16251.60 14838.30 781.04 o
3 7 1 3 35.39 321.32 289.98 <
5 7 1 -3 41.30 175.44 164.00 <
5 7 1 -2 3320.47 2452.26 313.17 o
5 7 1 -1 16.27 314.63 253.74 <
5 7 1 0 2178.42 2462.62 627.02 o
1 9 1 -3 2002.52 2486.62 331.66 o
1 9 1 -2 10823.40 11140.00 550.78 o
1 9 1 -1 572.27 617.00 174.89 o
1 9 1 0 77.07 -29.16 173.67 <
1 9 1 1 1978.18 2583.35 351.39 o
1 9 1 2 6.63 162.63 164.00 <
1 9 1 3 7.09 427.56 223.21 <
3 9 1 -3 529.64 592.42 216.86 <
3 9 1 -2 2940.46 2843.79 370.30 o
3 9 1 -1 4761.69 4041.20 389.58 o
3 9 1 0 5688.73 6813.72 493.36 o
3 9 1 1 8351.77 7897.22 632.78 o
3 9 1 2 1142.52 1285.93 354.96 o
5 9 1 -3 1225.87 1507.44 306.23 o
5 9 1 -2 905.37 1392.72 329.81 o
5 9 1 -1 1324.39 822.23 277.70 <
1 11 1 -3 70.91 28.35 281.61 <
1 11 1 -2 61.93 265.82 227.96 <
1 11 1 -1 17663.80 16436.90 828.09 o
1 11 1 0 5651.00 6351.13 575.02 o
1 11 1 1 20201.80 22595.60 1108.24 o
1 11 1 2 3342.93 2945.97 426.78 o
1 11 1 3 2240.31 2105.22 366.37 o
3 11 1 -3 1872.30 1642.85 347.58 o
3 11 1 -2 1.93 474.12 445.77 <
3 11 1 -1 1536.20 1593.37 303.01 o
3 11 1 0 1354.99 1447.26 324.92 o
5 11 1 -3 808.16 680.56 223.39 o
0 0 2 0 1455.18 1545.19 165.34 o
0 0 2 2 730.75 1069.74 102.74 o
2 0 2 -2 193.68 141.87 37.54 o
2 0 2 0 7603.43 7166.81 327.15 o
2 0 2 2 18906.80 17879.00 879.27 o
4 0 2 -2 6237.71 4674.15 423.53 o
4 0 2 0 2107.26 1925.08 344.16 o
4 0 2 2 1721.92 2401.37 540.70 o
6 0 2 -2 2113.16 1749.64 359.13 o
6 0 2 0 4313.54 4698.46 1140.89 o
0 2 2 0 1620.20 2231.03 103.38 o
0 2 2 1 381.04 424.92 50.19 o
0 2 2 2 1330.79 1269.77 128.23 o
0 2 2 3 294.23 112.22 93.77 <
2 2 2 -3 2.01 30.45 24.17 <
2 2 2 -2 6.17 18.93 41.24 <
2 2 2 -1 10029.10 11587.40 337.07 o
2 2 2 0 39242.50 41530.60 717.47 o
2 2 2 1 10138.20 10776.20 369.42 o
2 2 2 2 10383.30 10953.50 416.24 o
2 2 2 3 3918.04 5052.44 370.39 o
4 2 2 -3 1973.01 2064.71 201.10 o
4 2 2 -2 7.41 79.26 93.28 <
4 2 2 -1 4941.78 5454.23 302.46 o
4 2 2 0 10678.90 11364.80 520.93 o
4 2 2 1 11265.40 11048.00 602.01 o
4 2 2 2 622.47 768.44 237.00 o
4 2 2 3 677.52 486.08 298.87 <
6 2 2 -3 4998.15 4689.34 361.26 o
6 2 2 -2 3.05 1040.87 228.44 o
6 2 2 -1 22.45 366.91 201.54 <
6 2 2 0 3278.00 2263.02 588.18 o
0 4 2 0 295400.00 265600.00 2077.39 o
0 4 2 1 4067.69 3976.13 178.04 o
0 4 2 2 3667.07 3177.41 224.04 o
0 4 2 3 77.30 120.59 93.20 <
2 4 2 -3 1.80 83.29 45.83 <
2 4 2 -2 1381.51 1080.81 110.97 o
2 4 2 -1 808.32 718.62 119.89 o
2 4 2 0 58560.90 66486.60 1142.11 o
2 4 2 1 142.13 243.03 126.71 <
2 4 2 2 11377.30 11608.00 504.05 o
2 4 2 3 5287.94 5116.36 380.45 o
4 4 2 -3 2.51 21.10 97.87 <
4 4 2 -2 6005.16 6675.25 397.89 o
4 4 2 -1 1754.16 2138.60 219.81 o
4 4 2 0 9590.99 9284.61 489.79 o
4 4 2 1 1770.94 2703.80 346.94 o
4 4 2 2 2625.88 3157.69 410.14 o
6 4 2 -3 285.62 639.20 174.56 o
6 4 2 -2 1624.33 1536.86 295.29 o
6 4 2 -1 436.47 1057.04 275.98 o
0 6 2 0 18998.60 17596.20 638.72 o
0 6 2 1 1.06 183.82 88.85 <
0 6 2 2 6666.85 6778.26 383.95 o
0 6 2 3 2437.57 2590.41 270.23 o
2 6 2 -3 125.10 125.82 70.40 <
2 6 2 -2 452.10 685.32 120.52 o
2 6 2 -1 29577.80 31573.80 838.45 o
2 6 2 0 209.57 389.88 138.07 <
2 6 2 1 6132.19 6677.58 423.21 o
2 6 2 2 4208.70 3905.48 354.27 o
2 6 2 3 262.38 199.85 161.83 <
4 6 2 -3 1568.61 1652.39 202.41 o
4 6 2 -2 77.56 334.61 153.21 <
4 6 2 -1 10072.30 9284.91 501.69 o
4 6 2 0 935.96 1604.79 264.00 o
4 6 2 1 4.52 459.46 229.41 <
4 6 2 2 1720.06 1569.14 505.56 o
6 6 2 -3 2725.38 2046.23 297.59 o
6 6 2 -2 161.72 172.14 175.85 <
6 6 2 -1 943.44 1455.80 738.57 <
0 8 2 0 238.78 504.99 190.03 <
0 8 2 1 34751.90 35050.20 918.43 o
0 8 2 2 4007.01 4357.10 400.14 o
0 8 2 3 2117.45 2096.20 305.72 o
2 8 2 -3 543.32 459.67 139.21 o
2 8 2 -2 1957.44 2121.28 238.76 o
2 8 2 -1 104.10 146.85 141.29 <
2 8 2 0 1758.94 1825.09 302.32 o
2 8 2 1 49921.90 51399.20 1249.75 o
2 8 2 2 0.01 82.08 135.24 <
2 8 2 3 140.72 301.10 207.50 <
4 8 2 -3 191.36 407.68 202.35 <
4 8 2 -2 6307.17 6182.89 487.16 o
4 8 2 -1 120.24 294.90 136.46 <
4 8 2 0 2229.24 1599.16 303.77 o
4 8 2 1 10965.00 10207.00 832.26 o
6 8 2 -3 186.69 60.58 195.26 <
6 8 2 -2 2888.12 3534.38 631.58 o
0 10 2 0 32637.80 33660.60 1703.65 o
0 10 2 1 6173.83 6342.20 461.91 o
0 10 2 2 33.02 85.71 167.79 <
0 10 2 3 1585.28 2086.00 428.71 o
2 10 2 -3 109.80 378.92 203.96 <
2 10 2 -2 4509.24 4243.56 409.56 o
2 10 2 -1 136.58 -10.15 174.40 <
2 10 2 0 25099.10 25368.20 1109.72 o
2 10 2 1 3280.95 3676.82 368.92 o
2 10 2 2 474.99 93.28 179.80 <
2 10 2 3 413.48 351.38 236.35 <
4 10 2 -3 742.16 969.12 371.46 <
4 10 2 -2 225.36 574.18 222.25 <
4 10 2 -1 233.54 476.15 219.43 <
4 10 2 0 1025.47 565.86 334.49 <
6 10 2 -3 1024.48 786.67 358.82 <
0 12 2 0 1491.32 1840.45 497.33 o
0 12 2 1 37.42 72.58 157.32 <
0 12 2 2 2303.39 1450.42 323.42 o
0 12 2 3 1266.71 2138.55 620.66 o
2 12 2 -3 315.01 357.50 226.68 <
2 12 2 -2 1615.26 799.79 252.58 o
2 12 2 -1 21.41 383.66 283.94 <
2 12 2 0 1811.22 1068.58 443.61 <
4 12 2 -3 531.59 415.83 339.95 <
1 1 3 -3 270.30 223.32 43.34 o
1 1 3 -2 244.10 207.45 31.02 o
1 1 3 -1 760.65 811.01 49.24 o
1 1 3 0 724.67 825.16 66.40 o
1 1 3 1 225888.00 225970.00 1231.50 o
1 1 3 2 214.49 372.81 103.84 o
1 1 3 3 5714.34 5686.06 290.14 o
3 1 3 -3 244.96 79.59 44.95 <
3 1 3 -2 16438.20 19859.40 382.44 o
3 1 3 -1 7686.79 7383.94 278.69 o
3 1 3 0 12101.00 13178.90 410.68 o
3 1 3 1 73026.90 76522.50 1307.27 o
3 1 3 2 3393.03 3529.27 333.50 o
3 1 3 3 6121.75 7509.23 625.62 o
5 1 3 -3 5700.11 5325.15 281.65 o
5 1 3 -2 16438.10 20634.00 710.81 o
5 1 3 -1 1020.34 847.13 191.02 o
5 1 3 0 17177.20 15875.00 847.68 o
5 1 3 1 17394.60 16644.80 935.35 o
1 3 3 -3 496.53 369.40 84.11 o
1 3 3 -2 6915.59 6431.78 209.84 o
1 3 3 -1 59.82 67.34 43.58 <
1 3 3 0 706924.00 660546.00 2792.34 o
1 3 3 1 5588.87 5627.87 243.46 o
1 3 3 2 4813.06 4621.69 302.45 o
1 3 3 3 32.10 671.15 316.32 <
3 3 3 -3 2143.71 1998.01 148.42 o
3 3 3 -2 1.67 183.49 71.29 <
3 3 3 -1 2370.86 2116.88 211.09 o
3 3 3 0 140819.00 145152.00 1501.08 o
3 3 3 1 10179.70 10015.90 469.83 o
3 3 3 2 33370.20 33013.50 932.88 o
3 3 3 3 7497.49 10707.60 740.79 o
5 3 3 -3 5392.22 7115.38 425.23 o
5 3 3 -2 405.48 818.37 170.94 o
5 3 3 -1 42.52 1903.58 331.23 o
5 3 3 0 18365.90 19476.20 950.15 o
5 3 3 1 3691.81 3114.89 554.69 o
1 5 3 -3 618.47 700.51 132.13 o
1 5 3 -2 127.70 136.30 60.01 <
1 5 3 -1 5450.02 6478.98 266.57 o
1 5 3 0 1860.68 1719.60 166.42 o
1 5 3 1 97.35 192.36 92.55 <
1 5 3 2 20571.00 19016.20 593.16 o
1 5 3 3 18.04 283.86 122.92 <
3 5 3 -3 2153.19 1375.98 166.60 o
3 5 3 -2 212.44 78.38 95.94 <
3 5 3 -1 30956.80 29524.10 735.20 o
3 5 3 0 9005.55 9589.51 425.78 o
3 5 3 1 19211.30 19377.10 703.31 o
3 5 3 2 17457.80 16445.60 785.99 o
3 5 3 3 3605.26 3685.25 442.92 o
5 5 3 -3 701.23 431.24 166.52 <
5 5 3 -2 69.12 474.21 195.10 <
5 5 3 -1 5189.56 5381.89 478.75 o
5 5 3 0 3436.43 3215.74 427.67 o
5 5 3 1 1728.44 890.35 411.22 <
1 7 3 -3 2284.39 2173.00 248.13 o
1 7 3 -2 1910.12 2215.41 221.04 o
1 7 3 -1 99505.40 92900.50 1309.12 o
1 7 3 0 4910.56 5218.87 398.33 o
1 7 3 1 72621.00 77487.40 1684.89 o
1 7 3 2 2080.01 2487.43 280.18 o
1 7 3 3 247.12 233.36 134.36 <
3 7 3 -3 94.14 280.56 128.88 <
3 7 3 -2 9641.17 8490.81 577.57 o
3 7 3 -1 19091.00 19894.20 768.20 o
3 7 3 0 631.46 891.86 172.48 o
3 7 3 1 72961.60 75038.80 1808.50 o
3 7 3 2 428.88 326.17 217.42 <
3 7 3 3 1.24 827.90 702.48 <
5 7 3 -3 9.78 201.38 138.39 <
5 7 3 -2 12523.40 13847.80 829.39 o
5 7 3 -1 2461.71 2059.70 348.82 o
5 7 3 0 3572.85 3466.82 951.16 o
1 9 3 -3 41.26 253.17 161.75 <
1 9 3 -2 3258.47 2751.58 302.79 o
1 9 3 -1 5932.56 5422.08 421.38 o
1 9 3 0 13348.90 13161.70 666.23 o
1 9 3 1 5514.89 5995.79 504.60 o
1 9 3 2 3849.66 4958.21 436.59 o
1 9 3 3 10049.10 10762.20 732.42 o
3 9 3 -3 431.73 698.99 188.99 o
3 9 3 -2 10486.60 10657.80 682.89 o
3 9 3 -1 2549.36 2847.48 344.56 o
3 9 3 0 17615.40 17998.10 878.84 o
3 9 3 1 5971.93 6951.84 636.92 o
3 9 3 2 2.63 955.09 576.82 <
5 9 3 -3 3375.98 4647.02 504.88 o
5 9 3 -2 4412.62 3924.89 543.62 o
5 9 3 -1 115.08 -483.71 435.14 <
1 11 3 -3 3707.31 4150.13 480.81 o
1 11 3 -2 13717.40 12322.20 733.76 o
1 11 3 -1 5.32 84.34 186.48 <
1 11 3 0 3364.14 3493.06 435.90 o
1 11 3 1 3448.73 3367.59 427.03 o
1 11 3 2 9394.45 9627.54 666.40 o
1 11 3 3 476.60 461.10 328.99 <
3 11 3 -3 4340.03 3689.06 468.76 o
3 11 3 -2 21.35 203.15 209.11 <
3 11 3 -1 383.34 580.88 293.30 <
3 11 3 0 1740.06 2183.55 481.55 o
5 11 3 -3 2429.72 2089.87 481.84 o
1 13 3 -2 4204.01 7007.33 1732.81 o
0 0 4 0 400.61 542.80 66.55 o
0 0 4 2 196.95 104.40 61.22 <
2 0 4 -2 1188.93 1109.63 96.00 o
2 0 4 0 29821.30 28493.60 683.04 o
2 0 4 2 8798.23 9071.38 658.42 o
4 0 4 -2 730.68 1791.85 262.24 o
4 0 4 0 5439.06 4857.01 536.97 o
4 0 4 2 2676.84 2407.63 460.43 o
6 0 4 -2 860.22 814.15 268.43 o
6 0 4 0 772.89 648.33 363.24 <
0 2 4 0 79944.60 80576.70 773.19 o
0 2 4 1 9630.92 9389.93 217.38 o
0 2 4 2 666.50 558.68 79.36 o
0 2 4 3 78.13 243.03 86.43 <
2 2 4 -3 1224.33 780.35 65.69 o
2 2 4 -2 926.75 956.53 74.22 o
2 2 4 -1 4373.46 4051.20 162.89 o
2 2 4 0 3781.74 4237.22 223.62 o
2 2 4 1 2845.91 2449.95 176.29 o
2 2 4 2 19925.80 19556.30 615.53 o
2 2 4 3 2097.29 1884.91 229.33 o
4 2 4 -3 533.69 589.88 108.36 o
4 2 4 -2 2097.90 1642.28 157.47 o
4 2 4 -1 1393.64 2015.85 233.66 o
4 2 4 0 1768.44 1362.11 206.84 o
4 2 4 1 162.91 332.04 181.24 <
4 2 4 2 980.67 1513.58 340.85 o
4 2 4 3 1273.04 1325.26 375.75 o
6 2 4 -3 1.75 218.37 144.59 <
6 2 4 -2 1430.19 1494.68 263.37 o
6 2 4 -1 24.34 160.62 185.43 <
6 2 4 0 395.29 903.50 598.12 <
0 4 4 0 32341.50 33431.50 726.44 o
0 4 4 1 2383.74 2028.46 136.88 o
0 4 4 2 845.57 782.74 103.21 o
0 4 4 3 39.21 200.09 80.95 <
2 4 4 -3 247.29 304.35 69.84 o
2 4 4 -2 1713.76 1372.93 122.02 o
2 4 4 -1 7833.38 7817.08 349.97 o
2 4 4 0 9.90 -30.05 77.97 <
2 4 4 1 3846.80 4074.51 252.65 o
2 4 4 2 9836.71 8719.21 440.03 o
2 4 4 3 1899.44 1451.64 232.14 o
4 4 4 -3 502.62 460.32 101.91 o
4 4 4 -2 3453.25 3700.50 249.48 o
4 4 4 -1 1197.13 1182.90 184.58 o
4 4 4 0 33.51 195.74 140.24 <
4 4 4 1 9306.09 9685.94 606.85 o
4 4 4 2 327.11 473.17 229.50 <
6 4 4 -3 596.93 682.16 185.36 o
6 4 4 -2 1801.18 2232.45 335.74 o
6 4 4 -1 166.54 -168.03 199.53 <
0 6 4 0 4088.64 4410.00 365.09 o
0 6 4 1 35403.90 35844.20 755.97 o
0 6 4 2 14779.30 14706.80 538.71 o
0 6 4 3 2198.51 2236.51 228.62 o
2 6 4 -3 447.67 465.07 118.18 o
2 6 4 -2 4277.62 4802.02 286.00 o
2 6 4 -1 1004.82 864.50 151.07 o
2 6 4 0 2800.07 2725.02 239.45 o
2 6 4 1 38761.00 39771.40 912.65 o
2 6 4 2 12.52 165.21 152.00 <
2 6 4 3 1078.37 832.46 244.51 o
4 6 4 -3 768.35 819.97 142.51 o
4 6 4 -2 1840.65 1511.06 210.87 o
4 6 4 -1 272.46 867.57 241.10 o
4 6 4 0 995.02 1502.16 271.41 o
4 6 4 1 7101.58 6540.28 583.33 o
4 6 4 2 484.75 333.26 406.48 <
6 6 4 -3 712.53 607.33 209.37 <
6 6 4 -2 793.19 1126.13 332.30 o
6 6 4 -1 34.50 384.55 347.98 <
0 8 4 0 10132.30 10929.40 843.73 o
0 8 4 1 3483.52 3922.07 312.89 o
0 8 4 2 616.63 662.68 174.09 o
0 8 4 3 4.97 91.02 148.78 <
2 8 4 -3 2963.26 3067.67 333.50 o
2 8 4 -2 5438.56 4262.50 360.98 o
2 8 4 -1 1984.51 2515.57 330.61 o
2 8 4 0 1833.84 2417.24 308.12 o
2 8 4 1 5106.96 5291.35 436.04 o
2 8 4 2 3910.07 3990.57 398.46 o
2 8 4 3 1976.25 2867.78 513.64 o
4 8 4 -3 1728.46 1942.62 299.01 o
4 8 4 -2 1266.38 948.66 222.04 o
4 8 4 -1 11.05 286.04 205.73 <
4 8 4 0 6283.31 5983.69 668.47 o
4 8 4 1 97.91 -249.47 385.12 <
6 8 4 -3 260.66 1387.61 392.05 o
6 8 4 -2 384.46 706.46 602.22 <
0 10 4 0 35604.00 37566.90 1808.86 o
0 10 4 1 985.22 690.10 207.04 o
0 10 4 2 7754.38 6980.00 566.90 o
0 10 4 3 6583.01 9531.71 749.00 o
2 10 4 -3 1855.68 3072.00 427.52 o
2 10 4 -2 256.91 417.83 191.80 <
2 10 4 -1 2492.25 2648.96 366.96 o
2 10 4 0 32236.90 33733.90 1270.44 o
2 10 4 1 1933.80 2521.64 330.02 o
2 10 4 2 7520.52 7046.18 751.21 o
4 10 4 -3 1325.17 3302.37 498.62 o
4 10 4 -2 821.28 983.47 258.60 o
4 10 4 -1 866.17 1315.69 710.94 <
0 12 4 0 0.20 137.74 306.09 <
0 12 4 1 1725.77 1977.31 382.94 o
0 12 4 2 385.43 401.08 268.81 <
0 12 4 3 65.25 476.06 430.95 <
2 12 4 -3 1518.97 1834.90 302.61 o
2 12 4 -2 920.50 430.35 248.29 <
2 12 4 -1 521.40 528.93 257.30 <
2 12 4 0 7.40 91.67 339.76 <
4 12 4 -3 500.63 693.02 343.33 <
1 1 5 -3 584.14 562.70 112.31 o
1 1 5 -2 1290.65 1172.61 60.05 o
1 1 5 -1 8451.01 9136.86 156.13 o
1 1 5 0 301935.00 313910.00 1314.87 o
1 1 5 1 16516.30 16520.40 327.41 o
1 1 5 2 627.06 1137.56 158.71 o
1 1 5 3 820.24 5252.03 588.77 o
3 1 5 -3 587.74 847.10 122.38 o
3 1 5 -2 3931.54 3844.40 172.51 o
3 1 5 -1 20383.50 20244.50 505.54 o
3 1 5 0 104753.00 110485.00 1467.53 o
3 1 5 1 7040.22 7570.87 472.07 o
3 1 5 2 4838.99 5908.35 454.33 o
3 1 5 3 13391.40 17425.50 787.56 o
5 1 5 -3 3870.37 8530.50 464.51 o
5 1 5 -2 1785.54 2105.86 281.13 o
5 1 5 -1 3968.18 5047.90 419.60 o
5 1 5 0 23217.50 24982.00 1001.05 o
5 1 5 1 1834.14 1908.20 425.00 o
1 3 5 -3 424.63 267.30 58.89 o
1 3 5 -2 228.77 273.65 61.30 o
1 3 5 -1 63885.00 63682.70 715.14 o
1 3 5 0 364.10 358.73 58.73 o
1 3 5 1 0.62 194.85 72.58 <
1 3 5 2 6460.29 6819.35 296.48 o
1 3 5 3 4288.63 4283.70 295.80 o
3 3 5 -3 913.02 638.87 81.54 o
3 3 5 -2 4946.26 4161.75 228.51 o
3 3 5 -1 33148.40 34995.40 641.13 o
3 3 5 0 4245.81 4424.52 296.19 o
3 3 5 1 5391.88 6079.62 436.18 o
3 3 5 2 57.06 698.22 213.46 o
3 3 5 3 1266.94 3014.96 469.69 o
5 3 5 -3 2363.96 2377.58 223.55 o
5 3 5 -2 8205.83 7187.50 478.65 o
5 3 5 -1 6529.46 5418.42 499.66 o
5 3 5 0 12007.80 12463.80 807.77 o
5 3 5 1 3120.75 3999.20 733.29 o
1 5 5 -3 13.09 72.74 78.54 <
1 5 5 -2 3948.06 3775.54 206.59 o
1 5 5 -1 3486.02 3652.92 202.04 o
1 5 5 0 89.24 144.99 87.56 <
1 5 5 1 113509.00 116024.00 1446.76 o
1 5 5 2 8139.12 7933.44 379.21 o
1 5 5 3 5128.15 4309.28 368.53 o
3 5 5 -3 167.71 196.39 74.83 <
3 5 5 -2 14879.60 16246.30 545.36 o
3 5 5 -1 1.35 12.08 114.22 <
3 5 5 0 10991.40 11599.30 546.70 o
3 5 5 1 55523.70 56087.70 1229.14 o
3 5 5 2 3705.72 4460.40 462.36 o
3 5 5 3 769.42 1518.21 356.23 o
5 5 5 -3 3575.98 3515.79 319.90 o
5 5 5 -2 9928.50 11306.90 614.66 o
5 5 5 -1 180.42 158.93 212.42 <
5 5 5 0 6671.34 5504.06 565.14 o
1 7 5 -3 786.14 913.91 204.87 o
1 7 5 -2 16080.50 17024.40 535.45 o
1 7 5 -1 3000.88 2833.70 222.77 o
1 7 5 0 107878.00 109208.00 1802.48 o
1 7 5 1 380.55 838.27 203.16 o
1 7 5 2 516.23 838.28 169.01 o
1 7 5 3 1998.76 1892.31 302.00 o
3 7 5 -3 2605.78 2513.31 253.46 o
3 7 5 -2 752.23 839.05 190.61 o
3 7 5 -1 120.39 198.80 121.63 <
3 7 5 0 10234.50 9354.67 571.11 o
3 7 5 1 2527.33 1758.96 392.18 o
3 7 5 2 2993.89 2777.34 437.08 o
5 7 5 -3 2951.95 2589.32 428.48 o
5 7 5 -2 36.85 276.13 215.80 <
5 7 5 -1 535.67 655.89 271.23 <
1 9 5 -3 481.73 607.24 197.04 o
1 9 5 -2 399.31 613.67 180.93 o
1 9 5 -1 3359.87 3782.18 360.58 o
1 9 5 0 12843.10 14718.30 704.54 o
1 9 5 1 304.67 579.02 210.73 <
1 9 5 2 9889.98 9702.80 602.97 o
1 9 5 3 1515.52 1611.26 364.32 o
3 9 5 -3 1616.23 1184.39 247.68 o
3 9 5 -2 7.65 328.65 157.40 <
3 9 5 -1 15517.20 15049.90 798.56 o
3 9 5 0 80.59 -21.10 224.42 <
3 9 5 1 1908.16 2673.80 477.62 o
3 9 5 2 19134.50 12661.90 1820.51 o
5 9 5 -3 1.59 200.73 204.84 <
5 9 5 -2 11.58 539.69 338.64 <
5 9 5 -1 2317.98 1095.47 495.93 <
1 11 5 -3 3055.40 3333.41 425.32 o
1 11 5 -2 4317.40 4546.10 497.61 o
1 11 5 -1 21446.20 20735.40 1015.77 o
1 11 5 0 1157.26 1107.58 271.01 o
1 11 5 1 32192.30 34854.20 1346.63 o
1 11 5 2 19.37 149.74 280.48 <
3 11 5 -3 4.26 23.92 220.71 <
3 11 5 -2 4049.85 5161.33 643.21 o
3 11 5 -1 861.88 1637.05 606.21 <
1 13 5 -2 1395.83 1112.27 824.41 <
0 0 6 0 668855.00 700785.00 3050.44 o
0 0 6 2 10242.60 9329.22 343.16 o
2 0 6 -2 2177.11 1792.24 105.53 o
2 0 6 0 157997.00 162804.00 1327.39 o
2 0 6 2 27468.20 28452.20 1064.65 o
4 0 6 -2 1523.61 2166.82 292.42 o
4 0 6 0 14708.60 14721.10 965.45 o
4 0 6 2 17456.60 19494.00 1656.18 o
6 0 6 -2 186.41 367.24 271.95 <
0 2 6 0 59642.80 58906.70 897.13 o
0 2 6 1 27477.80 28230.40 400.08 o
0 2 6 2 128.07 228.45 56.15 o
0 2 6 3 181.56 178.67 74.83 <
2 2 6 -3 1687.44 1679.35 110.58 o
2 2 6 -2 1017.49 781.20 77.76 o
2 2 6 -1 6597.36 6526.25 216.46 o
2 2 6 0 428.03 430.35 70.49 o
2 2 6 1 81347.60 85088.90 1187.02 o
2 2 6 2 31877.40 31864.20 803.06 o
2 2 6 3 0.17 9.83 125.26 <
4 2 6 -3 174.66 123.33 67.91 <
4 2 6 -2 1779.48 4678.78 327.72 o
4 2 6 -1 4707.91 4459.72 319.50 o
4 2 6 0 564.34 1097.60 273.73 o
4 2 6 1 28986.00 27567.70 1027.42 o
4 2 6 2 7050.64 6600.11 680.22 o
6 2 6 -3 4484.39 2976.50 383.53 o
6 2 6 -2 1014.04 2855.44 454.29 o
6 2 6 -1 6.93 1320.22 383.98 o
0 4 6 0 4596.71 4805.85 282.13 o
0 4 6 1 46268.40 48089.00 817.17 o
0 4 6 2 147.31 157.72 68.71 <
0 4 6 3 3750.58 3396.03 215.41 o
2 4 6 -3 289.36 296.05 67.02 o
2 4 6 -2 1415.71 1522.10 180.42 o
2 4 6 -1 71.21 175.60 88.12 <
2 4 6 0 11044.30 10467.60 388.23 o
2 4 6 1 65622.90 69684.70 1155.18 o
2 4 6 2 2774.83 2838.49 276.50 o
2 4 6 3 33.90 425.23 196.95 <
4 4 6 -3 300.10 227.33 88.77 <
4 4 6 -2 10745.40 9637.47 459.52 o
4 4 6 -1 601.18 526.21 150.24 o
4 4 6 0 1659.99 1462.84 243.89 o
4 4 6 1 16735.00 17541.10 937.88 o
4 4 6 2 5459.53 5958.62 759.15 o
6 4 6 -3 1297.39 549.78 190.86 <
6 4 6 -2 4563.10 5166.53 555.33 o
6 4 6 -1 115.86 607.12 476.46 <
0 6 6 0 111161.00 116719.00 1774.55 o
0 6 6 1 16034.90 15743.60 481.23 o
0 6 6 2 1146.22 1073.50 163.72 o
0 6 6 3 39.73 242.22 185.19 <
2 6 6 -3 97.27 276.62 94.00 <
2 6 6 -2 1225.00 1208.17 160.82 o
2 6 6 -1 10424.50 10224.40 434.34 o
2 6 6 0 104934.00 104911.00 1361.47 o
2 6 6 1 1332.70 1291.51 179.75 o
2 6 6 2 1262.54 1204.22 349.82 o
2 6 6 3 8219.90 10795.60 887.79 o
4 6 6 -3 1684.32 1607.96 250.83 o
4 6 6 -2 7.15 17.32 123.24 <
4 6 6 -1 4915.68 4685.71 514.61 o
4 6 6 0 17467.50 18568.30 1086.66 o
4 6 6 1 1290.69 1272.91 340.06 o
6 6 6 -3 3916.73 4533.96 613.96 o
6 6 6 -2 0.00 198.72 216.20 <
0 8 6 0 14511.00 14243.10 846.92 o
0 8 6 1 260.40 215.80 111.08 <
0 8 6 2 6726.88 6545.41 412.71 o
0 8 6 3 635.92 1294.33 239.90 o
2 8 6 -3 1166.33 703.91 175.55 o
2 8 6 -2 1407.43 1273.81 205.94 o
2 8 6 -1 1.01 51.15 126.30 <
2 8 6 0 1111.79 1352.51 244.27 o
2 8 6 1 6330.60 6828.01 682.49 o
2 8 6 2 1888.16 1803.75 405.35 o
2 8 6 3 2463.08 1818.76 331.49 o
4 8 6 -3 633.19 513.08 185.28 <
4 8 6 -2 4032.77 3894.94 538.07 o
4 8 6 -1 1300.48 1898.51 385.34 o
4 8 6 0 1174.70 1296.01 304.93 o
6 8 6 -3 225.52 15.14 142.74 <
0 10 6 0 857.19 787.88 265.37 <
0 10 6 1 18236.30 18956.60 926.14 o
0 10 6 2 9159.97 9952.95 784.75 o
0 10 6 3 661.09 1197.97 277.92 o
2 10 6 -3 187.46 231.83 144.27 <
2 10 6 -2 307.88 506.85 225.79 <
2 10 6 -1 31398.30 34431.80 1431.28 o
2 10 6 0 1259.47 1277.10 317.66 o
2 10 6 1 10754.00 10936.10 835.10 o
4 10 6 -3 249.86 1122.59 313.43 o
4 10 6 -2 299.13 863.94 350.81 <
0 12 6 0 6183.40 5991.16 1378.24 o
0 12 6 1 3196.54 3337.74 795.27 o
0 12 6 2 411.82 305.46 623.49 <
2 12 6 -3 1317.01 1667.59 581.59 <
2 12 6 -2 156.69 319.07 533.26 <
2 12 6 -1 1160.24 1650.88 856.38 <
1 1 7 -3 101.80 126.63 51.72 <
1 1 7 -2 836.55 799.28 61.72 o
1 1 7 -1 2738.51 2478.23 102.95 o
1 1 7 0 3411.44 3297.47 140.70 o
1 1 7 1 15412.70 15225.40 376.00 o
1 1 7 2 39.57 3.71 67.90 <
1 1 7 3 452.79 621.50 133.57 o
3 1 7 -3 275.89 155.48 62.27 <
3 1 7 -2 1326.00 1309.48 133.52 o
3 1 7 -1 800.43 884.44 101.59 o
3 1 7 0 235.41 437.41 132.19 o
3 1 7 1 137.36 313.51 147.01 <
3 1 7 2 191.02 549.45 207.83 <
3 1 7 3 6335.57 5509.01 635.76 o
5 1 7 -3 112.74 593.67 162.96 o
5 1 7 -2 1220.94 1262.88 207.86 o
5 1 7 -1 186.72 198.64 150.71 <
5 1 7 0 19.25 504.25 243.75 <
1 3 7 -3 270.26 277.92 55.26 o
1 3 7 -2 2632.51 2795.71 151.30 o
1 3 7 -1 618.52 635.49 71.14 o
1 3 7 0 8848.47 8907.31 240.03 o
1 3 7 1 30739.20 30711.20 585.41 o
1 3 7 2 6131.45 6373.27 333.83 o
1 3 7 3 1747.24 1217.91 245.52 o
3 3 7 -3 112.12 117.77 59.69 <
3 3 7 -2 4164.97 4473.94 246.80 o
3 3 7 -1 623.24 678.81 125.68 o
3 3 7 0 613.05 759.43 217.43 o
3 3 7 1 1029.04 1149.48 213.25 o
3 3 7 2 2207.31 2528.80 321.66 o
3 3 7 3 3229.70 3380.20 471.26 o
5 3 7 -3 18.30 177.37 132.26 <
5 3 7 -2 2481.30 2704.74 307.66 o
5 3 7 -1 19.09 390.59 198.40 <
5 3 7 0 338.72 1051.07 300.31 o
1 5 7 -3 3475.13 3351.74 248.04 o
1 5 7 -2 5622.31 5897.82 273.65 o
1 5 7 -1 519.11 552.72 103.60 o
1 5 7 0 539.64 774.50 133.49 o
1 5 7 1 5685.44 5834.72 366.36 o
1 5 7 2 731.60 652.63 150.57 o
1 5 7 3 31.55 54.37 183.74 <
3 5 7 -3 4149.29 3524.56 261.22 o
3 5 7 -2 4122.80 3485.78 265.87 o
3 5 7 -1 659.95 605.17 155.96 o
3 5 7 0 2159.35 2900.60 344.64 o
3 5 7 1 681.64 821.29 221.46 o
3 5 7 2 1899.31 1677.01 338.96 o
3 5 7 3 2370.43 2903.83 544.52 o
5 5 7 -3 2156.47 1756.45 296.05 o
5 5 7 -2 2251.82 1868.34 297.17 o
5 5 7 -1 861.71 805.11 257.87 o
5 5 7 0 851.30 387.33 306.69 <
1 7 7 -3 1201.60 1609.02 217.69 o
1 7 7 -2 117.35 395.99 115.67 o
1 7 7 -1 5450.92 5500.03 334.13 o
1 7 7 0 13508.80 14145.60 598.22 o
1 7 7 1 377.42 709.37 176.82 o
1 7 7 2 5739.64 4717.17 514.21 o
1 7 7 3 4571.47 4400.42 521.51 o
3 7 7 -3 2680.06 2470.76 255.55 o
3 7 7 -2 97.33 168.60 112.85 <
3 7 7 -1 1022.65 1470.84 324.43 o
3 7 7 0 489.47 618.83 250.61 <
3 7 7 1 338.46 539.71 188.66 <
3 7 7 2 6438.02 5156.62 699.51 o
5 7 7 -3 2089.60 1854.35 347.04 o
5 7 7 -2 33.70 260.82 202.10 <
5 7 7 -1 886.53 1354.45 428.17 o
1 9 7 -3 1722.30 2217.07 352.66 o
1 9 7 -2 732.56 1051.62 223.47 o
1 9 7 -1 3363.03 3401.51 376.36 o
1 9 7 0 1030.34 1781.48 306.14 o
1 9 7 1 1125.35 1499.93 306.14 o
1 9 7 2 729.39 1136.92 342.13 o
1 9 7 3 134.62 122.28 239.16 <
3 9 7 -3 385.24 664.18 205.34 o
3 9 7 -2 429.95 931.38 268.89 o
3 9 7 -1 189.36 639.43 286.85 <
3 9 7 0 1806.25 1788.72 355.15 o
3 9 7 1 3201.24 3697.86 1081.90 o
5 9 7 -3 137.79 -150.95 233.04 <
1 11 7 -3 12.94 283.54 245.28 <
1 11 7 -2 680.89 1275.63 309.02 o
1 11 7 -1 2639.56 2676.24 396.20 o
1 11 7 0 6074.01 6434.17 645.15 o
1 11 7 1 2326.57 1536.39 517.93 <
1 11 7 2 453.06 237.48 393.19 <
3 11 7 -3 96.37 668.98 350.08 <
3 11 7 -2 50.31 -112.45 239.32 <
3 11 7 -1 11.17 512.46 611.70 <
0 0 8 0 9271.32 9094.69 311.35 o
0 0 8 2 522.34 608.40 94.58 o
2 0 8 -2 3153.29 2979.43 163.42 o
2 0 8 0 525.88 650.44 152.82 o
2 0 8 2 12900.30 12553.20 739.57 o
4 0 8 -2 20469.00 17660.60 735.20 o
4 0 8 0 16831.00 16295.30 1370.82 o
6 0 8 -2 11061.50 9603.22 1161.34 o
0 2 8 0 55522.90 57375.80 1013.52 o
0 2 8 1 2623.34 2818.96 131.87 o
0 2 8 2 12.86 87.96 73.06 <
0 2 8 3 1325.68 3203.05 326.32 o
2 2 8 -3 591.57 414.26 79.03 o
2 2 8 -2 3075.61 2562.76 138.74 o
2 2 8 -1 5208.94 5787.97 264.13 o
2 2 8 0 99840.10 101115.00 1112.26 o
2 2 8 1 32926.20 34388.40 801.48 o
2 2 8 2 4321.81 4601.81 351.46 o
2 2 8 3 4601.63 9231.57 607.61 o
4 2 8 -3 4792.89 6389.74 334.46 o
4 2 8 -2 3145.57 4169.02 356.65 o
4 2 8 -1 4581.37 5057.18 353.00 o
4 2 8 0 35197.60 37089.00 1077.72 o
4 2 8 1 28297.70 28172.90 1229.60 o
6 2 8 -3 9667.58 10066.50 614.74 o
6 2 8 -2 2670.45 4266.27 566.07 o
0 4 8 0 349415.00 363949.00 2953.82 o
0 4 8 1 10392.40 10728.30 337.65 o
0 4 8 2 8051.33 8000.52 325.66 o
0 4 8 3 60.96 915.63 409.60 <
2 4 8 -3 1211.29 820.07 131.09 o
2 4 8 -2 285.32 488.97 93.20 o
2 4 8 -1 6353.53 5686.19 277.71 o
2 4 8 0 110830.00 109978.00 1542.71 o
2 4 8 1 2333.98 2391.15 272.29 o
2 4 8 2 5698.51 5504.91 495.18 o
2 4 8 3 3585.54 4588.57 577.44 o
4 4 8 -3 1164.34 1294.65 260.32 o
4 4 8 -2 1163.44 884.86 185.63 o
4 4 8 -1 4710.20 5669.50 488.90 o
4 4 8 0 23471.10 21925.70 1015.30 o
4 4 8 1 4.46 427.16 200.01 <
4 4 8 2 3876.69 4676.57 1260.41 o
6 4 8 -3 31.72 1323.37 335.58 o
6 4 8 -2 42.06 92.31 224.50 <
0 6 8 0 15793.10 16813.70 779.49 o
0 6 8 1 9585.63 9831.42 400.09 o
0 6 8 2 906.05 1294.50 191.90 o
0 6 8 3 101.70 151.04 146.68 <
2 6 8 -3 1363.72 1458.75 179.76 o
2 6 8 -2 400.93 346.80 108.27 o
2 6 8 -1 52165.30 52984.40 1139.18 o
2 6 8 0 39.67 539.85 162.47 o
2 6 8 1 57.32 149.42 175.68 <
2 6 8 2 8947.89 8790.27 688.62 o
2 6 8 3 366.20 368.21 231.11 <
4 6 8 -3 0.00 198.80 115.75 <
4 6 8 -2 2412.50 1764.63 278.97 o
4 6 8 -1 17396.80 14324.40 825.66 o
4 6 8 0 1694.25 2277.51 394.14 o
4 6 8 1 2808.58 1765.72 501.36 o
6 6 8 -3 1052.58 372.60 298.56 <
6 6 8 -2 1963.74 352.58 274.74 <
0 8 8 0 1517.14 1898.55 381.18 o
0 8 8 1 53667.00 54807.40 1550.85 o
0 8 8 2 8121.25 7859.33 493.82 o
0 8 8 3 6498.65 6918.17 583.25 o
2 8 8 -3 434.45 661.20 163.13 o
2 8 8 -2 8048.71 8410.43 628.11 o
2 8 8 -1 1798.22 1656.17 251.14 o
2 8 8 0 2233.17 2391.35 356.95 o
2 8 8 1 83786.00 84766.60 2344.91 o
2 8 8 2 1010.95 1263.36 504.39 <
2 8 8 3 503.47 641.38 350.34 <
4 8 8 -3 599.95 1260.80 282.35 o
4 8 8 -2 14669.70 15998.40 1204.63 o
4 8 8 -1 190.29 813.90 398.09 <
4 8 8 0 2022.11 1343.52 489.14 <
6 8 8 -3 1920.58 2022.70 842.84 <
0 10 8 0 26436.90 25823.50 1961.80 o
0 10 8 1 4709.59 4921.46 563.41 o
0 10 8 2 3456.24 3858.36 494.32 o
0 10 8 3 13.56 325.10 316.32 <
2 10 8 -3 1718.96 2371.23 570.67 o
2 10 8 -2 9542.48 7917.96 785.97 o
2 10 8 -1 698.81 578.65 239.10 <
2 10 8 0 18201.10 17280.60 1026.52 o
2 10 8 1 1234.00 1459.80 485.96 o
4 10 8 -3 3449.94 3582.54 550.73 o
4 10 8 -2 917.08 1057.19 449.44 <
1 1 9 -3 16.46 604.86 110.68 o
1 1 9 -2 9.47 -5.40 48.01 <
1 1 9 -1 1.15 -8.54 60.09 <
1 1 9 0 53194.40 52232.20 550.88 o
1 1 9 1 77328.80 77990.00 913.52 o
1 1 9 2 2354.34 2387.16 256.19 o
1 1 9 3 2465.49 2854.80 334.67 o
3 1 9 -3 281.14 777.28 104.16 o
3 1 9 -2 1126.56 1788.33 187.73 o
3 1 9 -1 3461.06 3198.61 282.11 o
3 1 9 0 8137.92 7656.26 461.39 o
3 1 9 1 23860.60 24409.60 947.10 o
3 1 9 2 9300.93 9700.80 713.79 o
3 1 9 3 3744.83 3427.38 426.48 o
5 1 9 -3 626.40 603.71 178.36 o
5 1 9 -2 1193.67 2591.86 397.27 o
5 1 9 -1 552.36 626.17 261.97 <
5 1 9 0 184.75 441.19 224.42 <
1 3 9 -3 2.14 115.67 109.87 <
1 3 9 -2 2137.90 1962.76 156.59 o
1 3 9 -1 6519.81 6376.32 291.30 o
1 3 9 0 107850.00 113479.00 1142.05 o
1 3 9 1 27695.90 26715.90 712.62 o
1 3 9 2 1586.54 1744.42 231.33 o
1 3 9 3 1.41 459.70 259.13 <
3 3 9 -3 33.81 75.56 85.95 <
3 3 9 -2 391.83 1135.37 181.01 o
3 3 9 -1 7096.76 6358.42 387.46 o
3 3 9 0 13317.70 13099.70 712.72 o
3 3 9 1 822.70 946.50 247.08 o
3 3 9 2 13060.90 12456.00 816.61 o
3 3 9 3 7177.42 7106.31 849.85 o
5 3 9 -3 192.10 219.51 207.83 <
5 3 9 -2 1879.40 2078.21 334.54 o
5 3 9 -1 1042.37 2060.93 413.12 o
5 3 9 0 290.46 877.15 440.14 <
1 5 9 -3 137.17 -6.36 87.72 <
1 5 9 -2 739.91 637.41 98.85 o
1 5 9 -1 13125.60 13295.60 427.03 o
1 5 9 0 5239.79 5553.60 323.16 o
1 5 9 1 21853.70 22196.80 692.82 o
1 5 9 2 5723.69 5498.54 386.20 o
1 5 9 3 205.62 942.23 232.23 o
3 5 9 -3 413.18 404.88 122.29 o
3 5 9 -2 1727.28 1338.67 212.40 o
3 5 9 -1 45.46 140.00 136.62 <
3 5 9 0 6.36 240.04 159.09 <
3 5 9 1 51828.30 48657.20 1356.86 o
3 5 9 2 7331.66 6758.06 687.83 o
5 5 9 -3 753.19 466.76 151.29 o
5 5 9 -2 1303.22 1958.69 363.91 o
5 5 9 -1 38.24 556.20 281.45 <
1 7 9 -3 90.70 206.29 105.85 <
1 7 9 -2 2778.39 2828.45 280.36 o
1 7 9 -1 10046.60 10369.10 483.53 o
1 7 9 0 166.29 300.06 138.15 <
1 7 9 1 3855.41 4013.06 346.17 o
1 7 9 2 11950.80 12429.60 752.84 o
1 7 9 3 867.80 812.85 221.46 o
3 7 9 -3 252.57 315.13 141.85 <
3 7 9 -2 146.10 651.43 193.16 o
3 7 9 -1 275.08 663.52 256.16 <
3 7 9 0 332.10 194.30 167.47 <
3 7 9 1 9520.78 9410.81 707.94 o
5 7 9 -3 273.68 792.57 245.12 o
5 7 9 -2 423.39 634.13 292.74 <
1 9 9 -3 2035.05 3711.28 604.06 o
1 9 9 -2 3213.25 3391.10 479.73 o
1 9 9 -1 6615.64 6792.76 694.75 o
1 9 9 0 31192.50 31381.90 1448.31 o
1 9 9 1 57.43 298.92 204.92 <
1 9 9 2 1676.93 1645.52 335.97 o
1 9 9 3 1582.19 4092.14 1931.74 <
3 9 9 -3 1370.17 1907.15 453.42 o
3 9 9 -2 80.43 53.73 204.68 <
3 9 9 -1 1337.65 1898.83 404.84 o
3 9 9 0 29724.80 31509.90 2118.29 o
5 9 9 -3 1.88 3005.42 1070.60 <
1 11 9 -3 38.57 891.70 514.96 <
1 11 9 -2 2088.64 1979.24 439.68 o
1 11 9 -1 1206.17 891.10 310.41 <
1 11 9 0 8842.01 8383.50 1157.74 o
3 11 9 -3 26.42 146.28 523.90 <
0 0 10 0 168298.00 170686.00 1704.26 o
0 0 10 2 3436.56 3672.43 251.18 o
2 0 10 -2 9012.31 9286.69 339.95 o
2 0 10 0 45037.50 47323.90 1357.84 o
2 0 10 2 24721.10 23935.80 1300.63 o
4 0 10 -2 7764.89 8658.03 656.95 o
4 0 10 0 14628.70 14547.90 1094.34 o
6 0 10 -2 2877.18 2881.39 577.20 o
0 2 10 0 374.03 348.97 106.98 o
0 2 10 1 2616.36 2714.12 151.44 o
0 2 10 2 5318.74 5145.67 223.44 o
0 2 10 3 2656.63 2760.54 226.14 o
2 2 10 -3 3479.17 2901.35 177.67 o
2 2 10 -2 3371.33 3212.87 167.91 o
2 2 10 -1 13848.50 13847.90 361.38 o
2 2 10 0 10842.30 11154.60 449.80 o
2 2 10 1 0.44 64.12 115.75 <
2 2 10 2 2959.92 3695.87 371.67 o
2 2 10 3 143.64 1304.22 289.10 o
4 2 10 -3 4076.38 3729.52 304.71 o
4 2 10 -2 1789.88 1453.08 201.19 o
4 2 10 -1 7497.92 7386.68 492.48 o
4 2 10 0 6691.34 7756.03 538.82 o
4 2 10 1 79.46 867.54 301.10 <
6 2 10 -3 2561.08 2854.10 370.74 o
6 2 10 -2 586.03 1053.68 328.11 o
0 4 10 0 6410.54 6001.03 427.77 o
0 4 10 1 21686.30 22906.60 640.03 o
0 4 10 2 543.77 540.87 118.90 o
0 4 10 3 169.47 424.92 144.27 <
2 4 10 -3 852.79 1114.68 150.98 o
2 4 10 -2 330.48 548.66 124.06 o
2 4 10 -1 4264.83 4331.80 264.33 o
2 4 10 0 44.88 173.75 103.27 <
2 4 10 1 19022.80 19372.70 718.87 o
2 4 10 2 5149.71 4517.56 428.93 o
2 4 10 3 2874.23 2570.47 375.11 o
4 4 10 -3 626.09 761.44 163.78 o
4 4 10 -2 1009.45 1013.65 219.21 o
4 4 10 -1 2225.05 2741.20 346.64 o
4 4 10 0 1238.11 819.58 224.77 o
4 4 10 1 3960.10 2945.18 533.91 o
6 4 10 -3 238.02 186.16 201.46 <
6 4 10 -2 459.34 520.14 420.26 <
0 6 10 0 250.83 418.96 201.06 <
0 6 10 1 2216.00 2601.20 232.88 o
0 6 10 2 101.29 211.77 128.88 <
0 6 10 3 1306.24 1182.96 218.58 o
2 6 10 -3 44.72 65.17 102.30 <
2 6 10 -2 1306.71 1190.71 178.86 o
2 6 10 -1 113.71 304.73 134.52 <
2 6 10 0 6125.75 6173.15 439.25 o
2 6 10 1 541.35 682.48 177.79 o
2 6 10 2 1622.18 1792.08 331.14 o
2 6 10 3 433.65 187.13 251.01 <
4 6 10 -3 167.23 145.48 135.65 <
4 6 10 -2 671.94 672.10 200.19 o
4 6 10 -1 67.32 178.74 228.93 <
4 6 10 0 959.60 1288.48 400.14 o
6 6 10 -3 468.54 314.00 282.35 <
0 8 10 0 3444.68 3054.07 670.76 o
0 8 10 1 5489.74 5362.69 509.88 o
0 8 10 2 3324.93 3106.03 346.45 o
0 8 10 3 58.67 -157.48 163.36 <
2 8 10 -3 160.05 382.62 237.15 <
2 8 10 -2 176.47 429.02 232.55 <
2 8 10 -1 287.03 279.60 146.53 <
2 8 10 0 10.25 129.85 168.59 <
2 8 10 1 4115.69 4453.85 507.90 o
2 8 10 2 785.68 1240.76 479.89 <
4 8 10 -3 12.73 325.26 190.66 <
4 8 10 -2 294.08 1013.85 305.06 o
4 8 10 -1 1337.97 1876.09 539.13 o
0 10 10 0 757.88 1445.06 474.41 o
0 10 10 1 918.02 1021.74 330.94 o
0 10 10 2 845.97 1073.53 351.72 o
0 10 10 3 674.88 931.72 644.94 <
2 10 10 -3 0.33 203.23 211.93 <
2 10 10 -2 447.42 412.12 241.18 <
2 10 10 -1 8019.96 8277.71 699.57 o
2 10 10 0 2173.19 2020.51 796.22 <
4 10 10 -3 237.32 259.06 440.46 <
1 1 11 -3 35.99 2139.36 229.09 o
1 1 11 -2 4333.73 4210.33 188.81 o
1 1 11 -1 425.34 486.81 74.52 o
1 1 11 0 99575.30 99520.10 1073.38 o
1 1 11 1 383.27 423.97 110.52 o
1 1 11 2 2786.37 3192.18 298.58 o
1 1 11 3 126.98 2222.75 387.29 o
3 1 11 -3 70.65 1396.04 188.17 o
3 1 11 -2 904.58 1281.93 181.19 o
3 1 11 -1 6531.32 6048.50 404.96 o
3 1 11 0 36039.00 35241.90 1025.30 o
3 1 11 1 14001.60 14058.20 701.84 o
3 1 11 2 228.02 773.15 230.14 o
5 1 11 -3 1182.40 2457.71 360.93 o
5 1 11 -2 281.40 836.95 259.54 o
5 1 11 -1 1098.81 969.00 228.80 o
1 3 11 -3 1332.59 1567.49 146.88 o
1 3 11 -2 194.68 248.91 93.28 <
1 3 11 -1 9847.71 9694.76 348.05 o
1 3 11 0 3374.79 3300.56 196.02 o
1 3 11 1 4249.18 4330.50 328.89 o
1 3 11 2 715.56 664.78 193.18 o
1 3 11 3 88.17 51.23 143.30 <
3 3 11 -3 741.26 736.41 122.53 o
3 3 11 -2 6589.99 5679.72 397.64 o
3 3 11 -1 5740.19 5204.44 405.86 o
3 3 11 0 131.02 287.09 158.85 <
3 3 11 1 0.32 602.76 266.46 <
3 3 11 2 1158.09 1570.56 308.80 o
5 3 11 -3 30.79 30.53 139.19 <
5 3 11 -2 9990.43 8188.39 596.56 o
5 3 11 -1 427.75 823.19 310.94 <
1 5 11 -3 1862.17 1606.10 202.16 o
1 5 11 -2 1097.79 1178.19 174.50 o
1 5 11 -1 218.61 506.60 114.95 o
1 5 11 0 2585.11 2959.71 236.27 o
1 5 11 1 44882.60 44749.40 1170.17 o
1 5 11 2 2315.30 2402.92 316.11 o
1 5 11 3 9552.76 9506.45 629.13 o
3 5 11 -3 1692.33 1665.12 192.25 o
3 5 11 -2 7165.58 7053.04 444.73 o
3 5 11 -1 4169.92 4315.16 392.68 o
3 5 11 0 12749.90 13580.80 732.77 o
3 5 11 1 29315.80 29388.60 1122.79 o
3 5 11 2 997.21 1123.82 603.64 <
5 5 11 -3 5607.09 5030.54 489.80 o
5 5 11 -2 6103.21 6934.19 592.43 o
5 5 11 -1 1156.81 1854.62 807.88 <
1 7 11 -3 1343.08 2533.89 422.57 o
1 7 11 -2 5433.00 5797.19 461.60 o
1 7 11 -1 1.45 140.48 142.65 <
1 7 11 0 105683.00 109822.00 1687.81 o
1 7 11 1 3264.97 3093.27 346.69 o
1 7 11 2 9.89 468.32 218.94 <
1 7 11 3 267.21 639.03 437.89 <
3 7 11 -3 2775.21 4066.69 474.71 o
3 7 11 -2 19.12 181.56 151.92 <
3 7 11 -1 443.15 206.46 189.63 <
3 7 11 0 18017.60 16655.80 1059.27 o
3 7 11 1 1.10 961.21 513.51 <
5 7 11 -3 2761.83 3675.37 595.80 o
5 7 11 -2 798.09 522.10 482.46 <
1 9 11 -3 593.86 1161.55 303.86 o
1 9 11 -2 2069.20 2332.49 441.30 o
1 9 11 -1 3151.27 3769.15 555.87 o
1 9 11 0 3612.73 4034.26 453.71 o
1 9 11 1 127.79 30.69 187.12 <
1 9 11 2 2806.38 2308.26 883.14 <
3 9 11 -3 1522.18 1284.47 298.50 o
3 9 11 -2 907.19 887.04 255.70 o
3 9 11 -1 11914.70 10191.50 1639.29 o
0 0 12 0 84496.40 88062.30 1972.31 o
0 0 12 2 927.92 1083.42 204.47 o
2 0 12 -2 27.82 397.76 134.20 <
2 0 12 0 11038.50 10592.70 693.66 o
2 0 12 2 14779.90 13825.30 1042.56 o
4 0 12 -2 2969.39 3868.80 512.61 o
4 0 12 0 173.67 51.80 205.73 <
0 2 12 0 48991.90 49449.20 1162.05 o
0 2 12 1 22303.60 22054.70 562.43 o
0 2 12 2 654.75 712.71 135.02 o
0 2 12 3 211.33 443.04 182.61 <
2 2 12 -3 390.46 1349.23 170.94 o
2 2 12 -2 1033.21 1020.20 139.38 o
2 2 12 -1 262.74 195.42 108.43 <
2 2 12 0 6266.17 5908.72 385.34 o
2 2 12 1 41526.10 43042.60 1109.71 o
2 2 12 2 11701.20 10548.30 602.93 o
2 2 12 3 0.21 567.72 192.11 <
4 2 12 -3 0.20 234.00 129.69 <
4 2 12 -2 896.73 1938.46 332.56 o
4 2 12 -1 33.98 524.15 213.06 <
4 2 12 0 913.88 1403.52 281.07 o
4 2 12 1 15965.70 16615.60 2169.77 o
6 2 12 -3 1039.53 520.27 202.85 <
0 4 12 0 799.17 1004.11 178.60 o
0 4 12 1 9237.66 9529.31 378.03 o
0 4 12 2 1076.20 978.13 177.32 o
0 4 12 3 3.25 93.52 206.85 <
2 4 12 -3 1298.03 1213.83 134.07 o
2 4 12 -2 2520.10 2411.79 230.39 o
2 4 12 -1 65.12 282.25 163.84 <
2 4 12 0 5002.83 4295.84 415.15 o
2 4 12 1 15354.00 14835.70 815.49 o
2 4 12 2 3175.54 3095.42 353.69 o
2 4 12 3 1049.25 1175.55 319.59 o
4 4 12 -3 923.55 971.82 235.64 o
4 4 12 -2 186.56 700.16 252.61 <
4 4 12 -1 103.82 55.42 152.57 <
4 4 12 0 46.98 -64.92 197.43 <
6 4 12 -3 35.98 86.83 237.54 <
0 6 12 0 26152.80 28045.10 1054.87 o
0 6 12 1 6615.56 7189.29 420.72 o
0 6 12 2 3475.29 2820.20 348.88 o
0 6 12 3 2060.21 3423.73 535.81 o
2 6 12 -3 3478.79 3419.93 297.06 o
2 6 12 -2 361.34 592.96 147.58 o
2 6 12 -1 1077.22 746.09 218.41 o
2 6 12 0 30341.90 29411.80 1152.25 o
2 6 12 1 3339.28 2940.51 403.74 o
2 6 12 2 1795.84 1584.47 507.91 o
4 6 12 -3 2013.62 2001.11 377.00 o
4 6 12 -2 1308.63 1405.53 285.68 o
4 6 12 -1 157.38 138.55 263.40 <
0 8 12 0 499.96 100.05 284.28 <
0 8 12 1 725.84 684.83 220.89 o
0 8 12 2 2703.96 2681.75 431.82 o
0 8 12 3 155.04 564.11 240.29 <
2 8 12 -3 374.56 778.00 265.99 <
2 8 12 -2 133.76 228.12 160.78 <
2 8 12 -1 216.40 205.09 190.43 <
2 8 12 0 558.50 813.22 265.67 o
2 8 12 1 5236.57 4264.46 1124.65 o
4 8 12 -3 494.89 176.34 249.80 <
4 8 12 -2 429.70 178.27 436.61 <
0 10 12 0 9.90 148.70 344.76 <
0 10 12 1 1729.96 1226.00 366.74 o
2 10 12 -3 41.55 184.70 241.01 <
2 10 12 -2 26.60 -14.50 349.75 <
1 1 13 -3 351.30 360.40 111.89 o
1 1 13 -2 147.44 268.00 117.61 <
1 1 13 -1 357.10 486.47 124.70 o
1 1 13 0 4839.66 4649.10 290.29 o
1 1 13 1 19593.60 20122.70 708.92 o
1 1 13 2 349.85 392.22 178.91 <
1 1 13 3 926.38 1861.76 298.24 o
3 1 13 -3 724.84 577.86 134.21 o
3 1 13 -2 708.45 823.08 178.04 o
3 1 13 -1 1316.49 1656.04 254.10 o
3 1 13 0 9777.34 10155.70 588.41 o
3 1 13 1 4621.69 4832.55 463.77 o
3 1 13 2 117.78 242.62 275.00 <
5 1 13 -3 1387.06 2064.66 307.68 o
5 1 13 -2 1478.75 1675.85 289.39 o
5 1 13 -1 352.93 894.96 603.75 <
1 3 13 -3 38.27 2244.31 380.68 o
1 3 13 -2 2.32 -58.08 96.18 <
1 3 13 -1 718.76 899.85 140.50 o
1 3 13 0 80398.10 81368.90 1356.28 o
1 3 13 1 1134.11 1361.37 221.39 o
1 3 13 2 1953.42 1996.28 315.93 o
1 3 13 3 379.99 2681.02 600.62 o
3 3 13 -3 552.41 1824.63 292.83 o
3 3 13 -2 225.41 255.03 183.10 <
3 3 13 -1 0.02 72.01 151.76 <
3 3 13 0 26063.10 26091.80 1138.45 o
3 3 13 1 3429.24 3133.98 432.02 o
5 3 13 -3 1340.72 2025.64 448.67 o
5 3 13 -2 157.58 647.48 275.65 <
1 5 13 -3 345.73 524.81 163.93 o
1 5 13 -2 404.05 470.77 145.48 o
1 5 13 -1 7377.64 7257.75 394.32 o
1 5 13 0 3530.51 3706.90 307.78 o
1 5 13 1 12315.50 11916.60 714.35 o
1 5 13 2 2357.81 2631.46 398.69 o
1 5 13 3 7.59 304.32 247.13 <
3 5 13 -3 177.04 248.59 128.24 <
3 5 13 -2 586.29 460.46 228.38 <
3 5 13 -1 12149.60 10221.00 692.25 o
3 5 13 0 6937.40 7245.22 617.97 o
3 5 13 1 346.83 147.01 234.17 <
5 5 13 -3 437.38 645.89 280.33 <
5 5 13 -2 266.64 -127.52 223.54 <
1 7 13 -3 177.71 -82.00 141.85 <
1 7 13 -2 1862.97 3166.03 491.80 o
1 7 13 -1 23807.50 23618.40 1042.59 o
1 7 13 0 167.38 418.47 223.05 <
1 7 13 1 11191.10 10221.80 655.75 o
1 7 13 2 325.26 866.11 323.83 <
1 7 13 3 465.38 920.83 582.17 <
3 7 13 -3 13.08 25.62 159.25 <
3 7 13 -2 2257.47 1739.92 313.03 o
3 7 13 -1 7515.66 7232.49 713.55 o
3 7 13 0 49.43 785.86 559.83 <
1 9 13 -3 9.10 82.32 233.03 <
1 9 13 -2 2040.80 1811.72 401.32 o
1 9 13 -1 745.23 616.75 294.28 <
1 9 13 0 1088.80 862.97 423.75 <
3 9 13 -3 375.70 1103.67 396.49 <
0 0 14 0 11709.50 12379.70 1071.02 o
0 0 14 2 240.61 645.15 219.02 <
2 0 14 -2 1795.02 2255.72 345.82 o
2 0 14 0 15264.80 14375.70 1253.21 o
2 0 14 2 355.61 276.62 208.80 <
4 0 14 -2 8570.71 6885.24 715.23 o
4 0 14 0 12.12 240.36 464.94 <
0 2 14 0 1558.63 1484.74 323.89 o
0 2 14 1 4.69 18.61 90.22 <
0 2 14 2 981.84 1003.48 205.76 o
0 2 14 3 994.96 1154.21 266.50 o
2 2 14 -3 26.66 186.48 105.92 <
2 2 14 -2 2875.42 2794.87 285.76 o
2 2 14 -1 6452.99 6051.38 450.54 o
2 2 14 0 10854.30 11466.80 640.63 o
2 2 14 1 9524.36 10630.20 655.31 o
2 2 14 2 5930.80 6245.49 551.63 o
2 2 14 3 4197.36 4991.80 1260.78 o
4 2 14 -3 866.62 1013.69 253.68 o
4 2 14 -2 1649.18 2269.45 357.48 o
4 2 14 -1 5338.13 5067.67 489.76 o
4 2 14 0 3015.41 2611.53 1004.51 <
0 4 14 0 97338.20 100765.00 2248.62 o
0 4 14 1 2009.16 2176.86 231.89 o
0 4 14 2 5436.11 5911.93 469.24 o
0 4 14 3 332.98 1585.31 380.78 o
2 4 14 -3 848.36 3237.40 378.55 o
2 4 14 -2 518.88 466.50 142.26 o
2 4 14 -1 941.85 1249.91 247.48 o
2 4 14 0 27021.50 24941.50 1055.35 o
2 4 14 1 6216.69 5684.86 520.46 o
2 4 14 2 1757.16 1277.49 454.73 <
4 4 14 -3 453.46 668.13 315.86 <
4 4 14 -2 562.76 406.97 207.35 <
4 4 14 -1 34.86 237.79 306.58 <
0 6 14 0 9912.88 10398.70 909.98 o
0 6 14 1 1443.84 1390.89 222.44 o
0 6 14 2 2906.22 2873.61 360.28 o
0 6 14 3 59.15 11.92 175.44 <
2 6 14 -3 1586.22 2337.67 340.64 o
2 6 14 -2 471.73 410.03 159.58 <
2 6 14 -1 4528.42 4681.64 442.00 o
2 6 14 0 45.83 197.43 195.50 <
2 6 14 1 8869.41 8758.91 874.46 o
4 6 14 -3 97.61 104.96 197.03 <
4 6 14 -2 69.36 346.05 380.36 <
0 8 14 0 2655.24 2150.29 782.89 <
0 8 14 1 13880.20 13051.10 920.52 o
0 8 14 2 62.31 35.04 303.52 <
2 8 14 -3 10.88 401.14 339.84 <
2 8 14 -2 1.25 323.41 317.85 <
2 8 14 -1 165.53 709.26 430.87 <
1 1 15 -3 894.00 1090.23 211.39 o
1 1 15 -2 5603.95 5484.22 446.13 o
1 1 15 -1 2889.63 2656.30 316.70 o
1 1 15 0 383.38 535.29 169.41 o
1 1 15 1 34844.50 34758.40 1232.05 o
1 1 15 2 952.80 1183.12 280.19 o
1 1 15 3 27.53 -175.28 177.13 <
3 1 15 -3 1693.65 1996.12 294.08 o
3 1 15 -2 4295.07 5150.71 526.07 o
3 1 15 -1 489.12 771.24 249.64 o
3 1 15 0 447.92 909.79 280.73 o
3 1 15 1 10293.30 8533.20 1580.55 o
5 1 15 -3 333.47 476.56 299.18 <
5 1 15 -2 2286.68 1615.57 689.22 <
1 3 15 -3 2129.19 2623.74 377.97 o
1 3 15 -2 102.60 324.38 171.25 <
1 3 15 -1 1953.98 1511.70 245.99 o
1 3 15 0 26467.80 26681.30 1089.63 o
1 3 15 1 993.52 1031.35 285.03 o
1 3 15 2 3640.41 3443.96 489.82 o
1 3 15 3 1611.54 2157.90 514.34 o
3 3 15 -3 2843.02 2766.46 461.33 o
3 3 15 -2 1054.21 1223.57 287.77 o
3 3 15 -1 1031.92 1557.89 373.40 o
3 3 15 0 4988.19 4717.73 651.58 o
5 3 15 -3 1445.87 1295.81 508.77 <
1 5 15 -3 549.09 761.02 267.93 <
1 5 15 -2 1.95 32.22 149.82 <
1 5 15 -1 1196.89 929.14 191.58 o
1 5 15 0 7667.82 8564.54 640.70 o
1 5 15 1 979.71 985.90 264.16 o
1 5 15 2 3016.50 3378.12 517.25 o
1 5 15 3 247.73 628.96 519.73 <
3 5 15 -3 108.25 173.02 191.31 <
3 5 15 -2 0.36 23.12 206.61 <
3 5 15 -1 618.69 810.72 281.79 <
3 5 15 0 575.40 42.61 405.52 <
5 5 15 -3 568.91 701.56 538.68 <
1 7 15 -3 282.87 -17.56 263.33 <
1 7 15 -2 49.69 187.20 249.23 <
1 7 15 -1 4350.16 4168.59 716.81 o
1 7 15 0 95.58 336.22 241.17 <
1 7 15 1 2036.17 1967.62 624.50 o
3 7 15 -3 396.70 420.01 219.75 <
3 7 15 -2 0.01 279.91 354.66 <
0 0 16 0 133124.00 130744.00 5686.20 o
0 0 16 2 1132.21 778.08 312.74 <
2 0 16 -2 333.62 594.89 356.21 <
2 0 16 0 50158.60 44311.60 2321.12 o
4 0 16 -2 0.65 -12.40 187.44 <
0 2 16 0 238.78 466.56 243.35 <
0 2 16 1 108.09 12.57 152.65 <
0 2 16 2 17.58 428.53 315.52 <
0 2 16 3 114.88 1144.80 421.61 <
2 2 16 -3 0.00 65.08 147.73 <
2 2 16 -2 303.28 983.24 246.25 o
2 2 16 -1 6703.71 6845.20 583.86 o
2 2 16 0 8042.05 8748.79 759.81 o
2 2 16 1 2218.25 2012.07 488.92 o
4 2 16 -3 272.80 768.48 333.17 <
4 2 16 -2 942.61 1369.20 429.39 o
0 4 16 0 1863.18 1797.12 384.40 o
0 4 16 1 11218.20 11073.50 749.89 o
0 4 16 2 462.71 510.96 223.38 <
0 4 16 3 1730.16 1549.65 384.47 o
2 4 16 -3 1057.21 972.78 226.86 o
2 4 16 -2 1665.53 1972.95 367.71 o
2 4 16 -1 755.88 565.68 205.59 <
2 4 16 0 76.55 21.10 162.31 <
4 4 16 -3 909.47 1081.19 348.90 o
0 6 16 0 13238.60 13419.10 1093.35 o
0 6 16 1 580.05 754.09 270.11 <
0 6 16 2 88.03 79.10 249.95 <
2 6 16 -3 1197.51 1764.32 409.02 o
2 6 16 -2 1842.23 1429.62 323.65 o
2 6 16 -1 386.06 259.39 223.14 <
4 6 16 -3 2768.50 2559.55 1001.18 <
1 1 17 -3 20.14 781.26 292.32 <
1 1 17 -2 1107.29 1237.92 269.32 o
1 1 17 -1 565.49 876.45 261.41 o
1 1 17 0 8093.70 8904.87 695.88 o
1 1 17 1 997.11 1674.21 763.80 <
3 1 17 -3 106.12 679.61 257.60 <
3 1 17 -1 694.33 272.53 292.91 <
1 3 17 -3 93.97 700.80 283.86 <
1 3 17 -2 717.60 647.12 191.41 o
1 3 17 -1 76.75 166.42 145.40 <
1 3 17 0 10357.30 10046.40 823.58 o
1 3 17 1 8257.09 8269.52 1547.28 o
1 3 17 2 735.93 234.66 338.50 <
3 3 17 -3 29.77 502.88 314.47 <
3 3 17 -2 16.81 639.90 626.20 <
1 5 17 -3 92.58 -387.45 272.18 <
1 5 17 -2 337.93 416.46 235.78 <
1 5 17 -1 746.43 633.35 314.10 <
1 5 17 0 590.91 140.89 355.82 <
3 5 17 -3 453.91 220.72 437.33 <
0 2 18 1 3556.51 3812.21 1072.84 o
0 2 18 2 1019.89 2191.73 899.06 <
2 2 18 -2 655.38 2843.10 989.32 <
2 2 18 -1 223.57 1420.71 854.91 <
0 4 18 1 11033.00 7937.00 1443.39 o
2 4 18 -2 1524.00 1944.29 791.47 <
