#------------------------------------------------------------------------------
#$Date: 2021-05-18 12:42:09 +0300 (Tue, 18 May 2021) $
#$Revision: 265306 $
#$URL: file:///home/coder/svn-repositories/cod/cif/1/56/26/1562673.cif $
#------------------------------------------------------------------------------
#
# This file is available in the Crystallography Open Database (COD),
# http://www.crystallography.net/
#
# All data on this site have been placed in the public domain by the
# contributors.
#
data_1562673
loop_
_publ_author_name
'Jana, Partha Pratim'
'Lidin, Sven'
_publ_section_title
;
 Pd2Cd11&#x2212; (0.21&#x2264;\d&#x2264;0.51)--a partly disordered
 \g-brass type phase and Pd0.238Cd0.762-a \g-brass related incommensurate
 phase in the palladium--cadmium system
;
_journal_name_full               'Journal of Solid State Chemistry'
_journal_page_first              244
_journal_page_last               249
_journal_paper_doi               10.1016/j.jssc.2013.01.044
_journal_volume                  201
_journal_year                    2013
_chemical_formula_sum            'Cd10.787 Pd2'
_chemical_formula_weight         1425.4
_space_group_IT_number           217
_space_group_name_Hall           'I -4 2 3'
_space_group_name_H-M_alt        'I -4 3 m'
_symmetry_cell_setting           cubic
_symmetry_Int_Tables_number      217
_symmetry_space_group_name_Hall  'I -4 2 3'
_symmetry_space_group_name_H-M   'I -4 3 m'
_cell_angle_alpha                90
_cell_angle_beta                 90
_cell_angle_gamma                90
_cell_formula_units_Z            4
_cell_length_a                   9.9969(3)
_cell_length_b                   9.9969(3)
_cell_length_c                   9.9969(3)
_cell_measurement_reflns_used    939
_cell_measurement_temperature    293
_cell_measurement_theta_max      28.59
_cell_measurement_theta_min      4.07
_cell_volume                     999.07(5)
_computing_cell_refinement
;
CrysAlisPro, Agilent Technologies,
Version 1.171.35.21 (release 20-01-2012 CrysAlis171 .NET)
(compiled Jan 23 2012,18:06:46)
;
_computing_data_collection
;
CrysAlisPro, Agilent Technologies,
Version 1.171.35.21 (release 20-01-2012 CrysAlis171 .NET)
(compiled Jan 23 2012,18:06:46)
;
_computing_data_reduction
;
CrysAlisPro, Agilent Technologies,
Version 1.171.35.21 (release 20-01-2012 CrysAlis171 .NET)
(compiled Jan 23 2012,18:06:46)
;
_diffrn_ambient_temperature      293
_diffrn_detector_area_resol_mean 16.1367
_diffrn_measured_fraction_theta_full 0.98
_diffrn_measured_fraction_theta_max 0.95
_diffrn_measurement_device       'four-cycle diffractometer'
_diffrn_measurement_device_type  'Xcalibur, Eos'
_diffrn_measurement_method       '\w scans'
_diffrn_radiation_monochromator  graphite
_diffrn_radiation_probe          x-ray
_diffrn_radiation_source         'Enhance (Mo) X-ray Source'
_diffrn_radiation_wavelength     0.7107
_diffrn_reflns_av_R_equivalents  0.0248
_diffrn_reflns_av_sigmaI/netI    0.017
_diffrn_reflns_limit_h_max       5
_diffrn_reflns_limit_h_min       -13
_diffrn_reflns_limit_k_max       10
_diffrn_reflns_limit_k_min       -12
_diffrn_reflns_limit_l_max       7
_diffrn_reflns_limit_l_min       -12
_diffrn_reflns_number            1155
_diffrn_reflns_theta_full        28.31
_diffrn_reflns_theta_max         28.66
_diffrn_reflns_theta_min         4.08
_exptl_absorpt_coefficient_mu    25.863
_exptl_absorpt_correction_T_max  1
_exptl_absorpt_correction_T_min  0.617
_exptl_absorpt_correction_type   multi-scan
_exptl_absorpt_process_details
;
CrysAlisPro, Agilent Technologies,
Version 1.171.35.21 (release 20-01-2012 CrysAlis171 .NET)
(compiled Jan 23 2012,18:06:46)
Empirical absorption correction using spherical harmonics,
 implemented in SCALE3 ABSPACK scaling algorithm.
;
_exptl_crystal_density_diffrn    9.4733
_exptl_crystal_F_000             2439
_exptl_crystal_size_max          0.04
_exptl_crystal_size_mid          0.03
_exptl_crystal_size_min          0.02
_refine_diff_density_max         1.43
_refine_diff_density_min         -1.03
_refine_ls_extinction_coef       340(30)
_refine_ls_extinction_method
'B-C type 1 Gaussian isotropic (Becker & Coppens, 1974)'
_refine_ls_goodness_of_fit_all   1.65
_refine_ls_goodness_of_fit_gt    1.66
_refine_ls_number_constraints    0
_refine_ls_number_parameters     23
_refine_ls_number_reflns         249
_refine_ls_number_restraints     0
_refine_ls_R_factor_all          0.0191
_refine_ls_R_factor_gt           0.0181
_refine_ls_shift/su_max          0.0265
_refine_ls_shift/su_mean         0.0076
_refine_ls_structure_factor_coef Fsqd
_refine_ls_weighting_details     w=1/(\s^2^(I)+0.0004I^2^)
_refine_ls_weighting_scheme      sigma
_refine_ls_wR_factor_all         0.0497
_refine_ls_wR_factor_gt          0.0491
_reflns_number_gt                242
_reflns_number_total             249
_reflns_threshold_expression     I>3\s(I)
_cod_data_source_file            JSSC-2013-201-244.cif
_cod_data_source_block           V
_cod_depositor_comments
;
The following automatic conversions were performed:

data item '_diffrn_radiation_probe' value 'X-ray' was changed to
'x-ray' in accordance with the built-in table derived from the CIF
Core dictionary named 'cif_core.dic' version 2.4.5 last updated on
2014-11-21.

Automatic conversion script
Id: cif_fix_values 8369 2020-08-20 11:38:08Z andrius 
;
_cod_original_sg_symbol_Hall     'I -4;2;3'
_cod_database_code               1562673
loop_
_symmetry_equiv_pos_site_id
_symmetry_equiv_pos_as_xyz
1 x,y,z
2 -x,-y,z
3 -x,y,-z
4 x,-y,-z
5 z,x,y
6 z,-x,-y
7 -z,-x,y
8 -z,x,-y
9 y,z,x
10 -y,z,-x
11 y,-z,-x
12 -y,-z,x
13 y,x,z
14 -y,-x,z
15 y,-x,-z
16 -y,x,-z
17 x,z,y
18 -x,z,-y
19 -x,-z,y
20 x,-z,-y
21 z,y,x
22 z,-y,-x
23 -z,y,-x
24 -z,-y,x
25 x+1/2,y+1/2,z+1/2
26 -x+1/2,-y+1/2,z+1/2
27 -x+1/2,y+1/2,-z+1/2
28 x+1/2,-y+1/2,-z+1/2
29 z+1/2,x+1/2,y+1/2
30 z+1/2,-x+1/2,-y+1/2
31 -z+1/2,-x+1/2,y+1/2
32 -z+1/2,x+1/2,-y+1/2
33 y+1/2,z+1/2,x+1/2
34 -y+1/2,z+1/2,-x+1/2
35 y+1/2,-z+1/2,-x+1/2
36 -y+1/2,-z+1/2,x+1/2
37 y+1/2,x+1/2,z+1/2
38 -y+1/2,-x+1/2,z+1/2
39 y+1/2,-x+1/2,-z+1/2
40 -y+1/2,x+1/2,-z+1/2
41 x+1/2,z+1/2,y+1/2
42 -x+1/2,z+1/2,-y+1/2
43 -x+1/2,-z+1/2,y+1/2
44 x+1/2,-z+1/2,-y+1/2
45 z+1/2,y+1/2,x+1/2
46 z+1/2,-y+1/2,-x+1/2
47 -z+1/2,y+1/2,-x+1/2
48 -z+1/2,-y+1/2,x+1/2
loop_
_atom_site_label
_atom_site_type_symbol
_atom_site_fract_x
_atom_site_fract_y
_atom_site_fract_z
_atom_site_adp_type
_atom_site_U_iso_or_equiv
_atom_site_symmetry_multiplicity
_atom_site_occupancy
_atom_site_calc_flag
_atom_site_refinement_flags
_atom_site_disorder_assembly
_atom_site_disorder_group
Cd10 Cd 0 0 0 Uani 0.028(5) 2 0.105(10) d . . .
Cd11 Cd 0.10601(8) 0.10601(8) 0.10601(8) Uani 0.0171(3) 8 0.882(5) d . . .
Pd12 Pd 0.32819(6) 0.32819(6) 0.32819(6) Uani 0.01270(17) 8 1 d . . .
Cd13a Cd 0.5 0.5 0.191(4) Uiso 0.030(6) 12 0.088(12) d . . .
Cd13 Cd 0.5 0.5 0.1424(3) Uiso 0.0153(6) 12 0.903(13) d . . .
Cd14 Cd 0.30678(5) 0.30678(5) 0.04481(7) Uani 0.0208(2) 24 1 d . . .
loop_
_atom_site_aniso_label
_atom_site_aniso_type_symbol
_atom_site_aniso_U_11
_atom_site_aniso_U_22
_atom_site_aniso_U_33
_atom_site_aniso_U_12
_atom_site_aniso_U_13
_atom_site_aniso_U_23
Cd10 Cd 0.028(9) 0.028(9) 0.028(9) 0 0 0
Cd11 Cd 0.0171(4) 0.0171(4) 0.0171(4) 0.0020(3) 0.0020(3) 0.0020(3)
Pd12 Pd 0.0127(3) 0.0127(3) 0.0127(3) 0.0015(3) 0.0015(3) 0.0015(3)
Cd14 Cd 0.0231(4) 0.0231(4) 0.0162(4) 0.0003(3) -0.0047(2) -0.0047(2)
loop_
_atom_type_symbol
_atom_type_scat_dispersion_real
_atom_type_scat_dispersion_imag
_atom_type_scat_source
Cd -0.8075 1.2024 'International Tables Vol C tables 4.2.6.8 and 6.1.1.1'
Pd -0.9988 1.0072 'International Tables Vol C tables 4.2.6.8 and 6.1.1.1'
loop_
_refln_index_h
_refln_index_k
_refln_index_l
_refln_F_squared_calc
_refln_F_squared_meas
_refln_F_squared_sigma
_refln_observed_status
0 0 2 1144. 1163. 37. o
1 1 2 3562. 3568. 59. o
-1 1 2 3612. 3426. 70. o
0 2 2 849. 841. 37. o
2 2 2 155033. 150210. 3534. o
0 1 3 4943. 5063. 58. o
1 2 3 20959. 21282. 235. o
-1 2 3 20936. 21180. 221. o
0 3 3 1567630. 1668560. 20613. o
2 3 3 120941. 120995. 1296. o
-2 3 3 121703. 118784. 1475. o
0 0 4 2365. 2533. 93. o
1 1 4 564855. 576824. 5463. o
-1 1 4 563747. 537469. 7075. o
0 2 4 7138. 7585. 104. o
2 2 4 71815. 71859. 820. o
-2 2 4 71417. 72719. 1928. o
1 3 4 6713. 6816. 109. o
-1 3 4 6649. 6993. 100. o
3 3 4 13286. 12883. 200. o
-3 3 4 13245. 12814. 390. o
0 4 4 23631. 23806. 383. o
2 4 4 108538. 107815. 1195. o
-2 4 4 108978. 107409. 1583. o
4 4 4 643281. 631246. 10288. o
-4 4 4 642383. 606988. 14763. o
0 1 5 36980. 37502. 302. o
1 2 5 10064. 10498. 123. o
-1 2 5 10216. 10397. 126. o
0 3 5 14420. 14110. 197. o
2 3 5 15674. 15428. 185. o
-2 3 5 15582. 15055. 288. o
1 4 5 523. 669. 54. o
-1 4 5 575. 744. 48. o
3 4 5 16789. 16826. 174. o
-3 4 5 16851. 16139. 289. o
0 5 5 258257. 252048. 2711. o
2 5 5 36761. 36220. 534. o
-2 5 5 36412. 35442. 840. o
4 5 5 18597. 18460. 292. o
-4 5 5 18378. 17747. 445. o
0 0 6 360255. 350708. 4179. o
1 1 6 30797. 31391. 382. o
-1 1 6 30886. 31634. 385. o
0 2 6 1720. 1766. 61. o
2 2 6 10910. 10558. 197. o
-2 2 6 10897. 10463. 272. o
1 3 6 80817. 79930. 701. o
-1 3 6 80409. 79330. 692. o
3 3 6 269491. 259076. 3122. o
-3 3 6 269308. 260484. 4510. o
0 4 6 25863. 25780. 307. o
2 4 6 19065. 19551. 235. o
-2 4 6 19164. 19646. 325. o
4 4 6 36797. 35172. 533. o
-4 4 6 36943. 34945. 699. o
1 5 6 18790. 17646. 289. o
-1 5 6 18934. 17914. 262. o
3 5 6 14439. 15023. 201. o
-3 5 6 14679. 14804. 294. o
5 5 6 1183. 768. 88. o
-5 5 6 1142. 982. 126. o
0 6 6 211285. 210663. 3055. o
2 6 6 94733. 94704. 1474. o
-2 6 6 95249. 93204. 1861. o
4 6 6 13930. 12677. 283. o
-4 6 6 13798. 12785. 383. o
6 6 6 89083. 85496. 2386. o
-6 6 6 88483. 83855. 2514. o
0 1 7 5031. 4904. 87. o
1 2 7 188291. 188049. 1403. o
-1 2 7 188953. 192347. 1784. o
0 3 7 20628. 20395. 279. o
2 3 7 37520. 37951. 411. o
-2 3 7 37632. 37721. 490. o
1 4 7 189121. 190242. 1569. o
-1 4 7 188686. 187808. 1937. o
3 4 7 12601. 12108. 167. o
-3 4 7 12652. 12114. 263. o
0 5 7 1852. 1895. 77. o
2 5 7 48426. 48858. 520. o
-2 5 7 48024. 47403. 675. o
4 5 7 21992. 22310. 368. o
-4 5 7 22297. 22230. 416. o
1 6 7 578. 815. 65. o
-1 6 7 561. 762. 93. o
3 6 7 510. 847. 59. o
-3 6 7 531. 674. 94. o
5 6 7 8279. 8095. 193. o
-5 6 7 8341. 8129. 222. o
0 7 7 4331. 4320. 182. o
2 7 7 8604. 9049. 252. o
-2 7 7 8700. 9653. 405. o
4 7 7 192516. 192324. 2827. o
-4 7 7 192107. 192498. 2916. o
6 7 7 33820. 30666. 661. o
-6 7 7 33928. 33248. 745. o
0 0 8 55781. 57164. 940. o
1 1 8 4135. 4582. 141. o
-1 1 8 4022. 4477. 130. o
0 2 8 73297. 74825. 739. o
2 2 8 39355. 40636. 631. o
-2 2 8 39071. 40420. 740. o
1 3 8 8447. 8199. 154. o
-1 3 8 8543. 8405. 190. o
3 3 8 31912. 32202. 612. o
-3 3 8 31679. 32519. 646. o
0 4 8 6009. 5958. 149. o
2 4 8 3253. 3632. 97. o
-2 4 8 3176. 3701. 139. o
4 4 8 6601. 6706. 227. o
-4 4 8 6709. 7341. 266. o
1 5 8 8661. 9321. 196. o
-1 5 8 8752. 9240. 218. o
3 5 8 113952. 112866. 999. o
-3 5 8 113909. 112943. 1264. o
5 5 8 6373. 7284. 317. o
-5 5 8 6253. 7396. 299. o
0 6 8 6282. 6643. 160. o
2 6 8 9981. 9307. 201. o
-2 6 8 9875. 9141. 281. o
4 6 8 4003. 4170. 170. o
-4 6 8 4043. 4046. 172. o
6 6 8 2634. 2506. 163. o
-6 6 8 2547. 2484. 190. o
1 7 8 22573. 23769. 369. o
-1 7 8 22826. 23798. 502. o
3 7 8 3660. 3573. 139. o
-3 7 8 3627. 3644. 185. o
5 7 8 2521. 2097. 108. o
-5 7 8 2509. 2028. 124. o
7 7 8 5009. 4957. 235. o
0 8 8 192395. 196739. 3640. o
2 8 8 15. 165. 76. <
-2 8 8 10. 352. 130. <
4 8 8 15408. 16254. 553. o
-4 8 8 15511. 15268. 473. o
6 8 8 27844. 26469. 616. o
0 1 9 17264. 17624. 250. o
1 2 9 8939. 8865. 202. o
-1 2 9 8992. 9012. 186. o
0 3 9 26475. 25653. 360. o
2 3 9 9675. 9632. 210. o
-2 3 9 9808. 9564. 214. o
1 4 9 31439. 30851. 568. o
-1 4 9 31608. 31421. 461. o
3 4 9 5958. 5770. 158. o
-3 4 9 5869. 5862. 171. o
0 5 9 110. 144. 54. <
2 5 9 11175. 11202. 244. o
-2 5 9 11124. 11165. 280. o
4 5 9 16537. 15653. 427. o
-4 5 9 16654. 16676. 329. o
1 6 9 17135. 16550. 321. o
-1 6 9 16972. 16660. 358. o
3 6 9 71100. 70381. 943. o
-3 6 9 70654. 69208. 885. o
5 6 9 17386. 17848. 365. o
-5 6 9 17556. 18126. 335. o
0 7 9 4536. 4714. 170. o
2 7 9 1562. 1397. 98. o
-2 7 9 1549. 1714. 126. o
4 7 9 17596. 16437. 352. o
-4 7 9 17695. 17160. 358. o
6 7 9 3857. 3459. 198. o
-6 7 9 3810. 3066. 263. o
1 8 9 4132. 3609. 132. o
-1 8 9 4193. 3760. 199. o
3 8 9 3309. 3444. 166. o
-3 8 9 3362. 3792. 180. o
5 8 9 1554. 1441. 253. o
0 9 9 61682. 60231. 1424. o
2 9 9 12448. 12553. 723. o
-2 9 9 12614. 13778. 781. o
0 0 10 68159. 67889. 1441. o
1 1 10 58773. 61302. 936. o
-1 1 10 58421. 59973. 1085. o
0 2 10 22059. 22635. 379. o
2 2 10 97677. 97538. 1588. o
-2 2 10 97091. 98853. 1950. o
1 3 10 3055. 3190. 132. o
-1 3 10 3034. 3036. 142. o
3 3 10 6660. 6275. 306. o
-3 3 10 6669. 6949. 267. o
0 4 10 6059. 6403. 234. o
2 4 10 32703. 33864. 554. o
-2 4 10 33014. 33816. 553. o
4 4 10 48646. 50352. 1684. o
-4 4 10 48502. 51260. 969. o
1 5 10 81267. 82339. 1008. o
-1 5 10 81823. 84557. 1253. o
3 5 10 12470. 12484. 380. o
-3 5 10 12499. 12450. 284. o
5 5 10 6241. 5808. 459. o
-5 5 10 6157. 5334. 276. o
0 6 10 3289. 3135. 158. o
2 6 10 5462. 5778. 203. o
-2 6 10 5504. 5884. 193. o
4 6 10 1804. 1662. 180. o
-4 6 10 1807. 1502. 115. o
6 6 10 411. 452. 168. <
-6 6 10 402. 376. 167. <
1 7 10 22894. 25064. 404. o
-1 7 10 22793. 25300. 551. o
3 7 10 8355. 8608. 399. o
-3 7 10 8391. 8202. 260. o
5 7 10 3655. 3580. 347. o
-5 7 10 3615. 3779. 394. o
0 8 10 2652. 2602. 203. o
2 8 10 8996. 9038. 643. o
-2 8 10 8847. 8992. 445. o
4 8 10 13274. 12139. 690. o
1 9 10 2221. 2532. 370. o
0 1 11 25137. 27279. 412. o
1 2 11 17572. 18271. 318. o
-1 2 11 17692. 18539. 385. o
0 3 11 27004. 28972. 581. o
2 3 11 35752. 35513. 537. o
-2 3 11 35710. 36689. 667. o
1 4 11 7277. 7429. 264. o
-1 4 11 7406. 7811. 315. o
3 4 11 5613. 6041. 267. o
-3 4 11 5570. 6310. 287. o
0 5 11 67339. 67715. 969. o
2 5 11 10769. 12278. 315. o
-2 5 11 10703. 12201. 362. o
-4 5 11 10718. 9707. 597. o
1 6 11 2059. 2347. 185. o
-1 6 11 2053. 2359. 163. o
-3 6 11 14620. 12602. 494. o
-5 6 11 33570. 33462. 1308. o
0 7 11 175. 352. 132. <
-2 7 11 1788. 2022. 307. o
0 0 12 60. 226. 119. <
1 1 12 6102. 6272. 346. o
-1 1 12 6184. 6663. 353. o
0 2 12 2006. 1673. 121. o
2 2 12 10513. 10142. 435. o
-2 2 12 10443. 9522. 433. o
1 3 12 1653. 1863. 127. o
-1 3 12 1685. 1971. 172. o
3 3 12 15923. 15112. 733. o
0 4 12 3025. 2977. 244. o
2 4 12 7799. 6905. 486. o
-2 4 12 7726. 7455. 512. o
1 5 12 2550. 1946. 295. o
-1 5 12 2591. 2028. 336. o
0 1 13 998. 926. 160. o
-1 2 13 28497. 26098. 1120. o
