#------------------------------------------------------------------------------
#$Date: 2021-05-18 12:42:09 +0300 (Tue, 18 May 2021) $
#$Revision: 265306 $
#$URL: file:///home/coder/svn-repositories/cod/cif/1/56/26/1562672.cif $
#------------------------------------------------------------------------------
#
# This file is available in the Crystallography Open Database (COD),
# http://www.crystallography.net/
#
# All data on this site have been placed in the public domain by the
# contributors.
#
data_1562672
loop_
_publ_author_name
'Jana, Partha Pratim'
'Lidin, Sven'
_publ_section_title
;
 Pd2Cd11&#x2212; (0.21&#x2264;\d&#x2264;0.51)--a partly disordered
 \g-brass type phase and Pd0.238Cd0.762-a \g-brass related incommensurate
 phase in the palladium--cadmium system
;
_journal_name_full               'Journal of Solid State Chemistry'
_journal_page_first              244
_journal_page_last               249
_journal_paper_doi               10.1016/j.jssc.2013.01.044
_journal_volume                  201
_journal_year                    2013
_chemical_formula_sum            'Cd10.725 Pd2'
_chemical_formula_weight         1418.4
_space_group_IT_number           217
_space_group_name_Hall           'I -4 2 3'
_space_group_name_H-M_alt        'I -4 3 m'
_symmetry_cell_setting           cubic
_symmetry_Int_Tables_number      217
_symmetry_space_group_name_Hall  'I -4 2 3'
_symmetry_space_group_name_H-M   'I -4 3 m'
_cell_angle_alpha                90
_cell_angle_beta                 90
_cell_angle_gamma                90
_cell_formula_units_Z            4
_cell_length_a                   9.9626(3)
_cell_length_b                   9.9626(3)
_cell_length_c                   9.9626(3)
_cell_measurement_reflns_used    9169
_cell_measurement_temperature    293
_cell_measurement_theta_max      28.7
_cell_measurement_theta_min      2.89
_cell_volume                     988.82(5)
_computing_cell_refinement
;
CrysAlisPro, Agilent Technologies,
Version 1.171.34.49 (release 20-01-2011 CrysAlis171 .NET)
(compiled Jan 20 2011,15:58:25)
;
_computing_data_collection
;
CrysAlisPro, Agilent Technologies,
Version 1.171.34.49 (release 20-01-2011 CrysAlis171 .NET)
(compiled Jan 20 2011,15:58:25)
;
_computing_data_reduction
;
CrysAlisPro, Agilent Technologies,
Version 1.171.34.49 (release 20-01-2011 CrysAlis171 .NET)
(compiled Jan 20 2011,15:58:25)
;
_diffrn_ambient_temperature      293
_diffrn_detector_area_resol_mean 16.1367
_diffrn_measured_fraction_theta_full 1
_diffrn_measured_fraction_theta_max 1
_diffrn_measurement_device       'four-cycle diffractometer'
_diffrn_measurement_device_type  'Xcalibur, Eos'
_diffrn_measurement_method       '\w scans'
_diffrn_radiation_monochromator  graphite
_diffrn_radiation_probe          x-ray
_diffrn_radiation_source         'Enhance (Mo) X-ray Source'
_diffrn_radiation_wavelength     0.7107
_diffrn_reflns_av_R_equivalents  0.0324
_diffrn_reflns_av_sigmaI/netI    0.007
_diffrn_reflns_limit_h_max       13
_diffrn_reflns_limit_h_min       -13
_diffrn_reflns_limit_k_max       13
_diffrn_reflns_limit_k_min       -13
_diffrn_reflns_limit_l_max       13
_diffrn_reflns_limit_l_min       -13
_diffrn_reflns_number            11270
_diffrn_reflns_theta_full        28.76
_diffrn_reflns_theta_max         28.76
_diffrn_reflns_theta_min         2.89
_exptl_absorpt_coefficient_mu    26.001
_exptl_absorpt_correction_T_max  1
_exptl_absorpt_correction_T_min  0.402
_exptl_absorpt_correction_type   multi-scan
_exptl_absorpt_process_details
;
CrysAlisPro, Agilent Technologies,
Version 1.171.34.49 (release 20-01-2011 CrysAlis171 .NET)
(compiled Jan 20 2011,15:58:25)
Empirical absorption correction using spherical harmonics,
 implemented in SCALE3 ABSPACK scaling algorithm.
;
_exptl_crystal_density_diffrn    9.5247
_exptl_crystal_F_000             2427
_exptl_crystal_size_max          0.06
_exptl_crystal_size_mid          0.04
_exptl_crystal_size_min          0.03
_refine_diff_density_max         2.54
_refine_diff_density_min         -1.14
_refine_ls_extinction_coef       1120(70)
_refine_ls_extinction_method
'B-C type 1 Gaussian isotropic (Becker & Coppens, 1974)'
_refine_ls_goodness_of_fit_all   1.64
_refine_ls_goodness_of_fit_gt    1.64
_refine_ls_number_constraints    0
_refine_ls_number_parameters     23
_refine_ls_number_reflns         268
_refine_ls_number_restraints     0
_refine_ls_R_factor_all          0.0231
_refine_ls_R_factor_gt           0.0229
_refine_ls_shift/su_max          0.0101
_refine_ls_shift/su_mean         0.0019
_refine_ls_structure_factor_coef Fsqd
_refine_ls_weighting_details     w=1/(\s^2^(I)+0.0016I^2^)
_refine_ls_weighting_scheme      sigma
_refine_ls_wR_factor_all         0.0688
_refine_ls_wR_factor_gt          0.0686
_reflns_number_gt                265
_reflns_number_total             268
_reflns_threshold_expression     I>3\s(I)
_cod_data_source_file            JSSC-2013-201-244.cif
_cod_data_source_block           IV
_cod_depositor_comments
;
The following automatic conversions were performed:

data item '_diffrn_radiation_probe' value 'X-ray' was changed to
'x-ray' in accordance with the built-in table derived from the CIF
Core dictionary named 'cif_core.dic' version 2.4.5 last updated on
2014-11-21.

Automatic conversion script
Id: cif_fix_values 8369 2020-08-20 11:38:08Z andrius 
;
_cod_original_sg_symbol_Hall     'I -4;2;3'
_cod_database_code               1562672
loop_
_symmetry_equiv_pos_site_id
_symmetry_equiv_pos_as_xyz
1 x,y,z
2 -x,-y,z
3 -x,y,-z
4 x,-y,-z
5 z,x,y
6 z,-x,-y
7 -z,-x,y
8 -z,x,-y
9 y,z,x
10 -y,z,-x
11 y,-z,-x
12 -y,-z,x
13 y,x,z
14 -y,-x,z
15 y,-x,-z
16 -y,x,-z
17 x,z,y
18 -x,z,-y
19 -x,-z,y
20 x,-z,-y
21 z,y,x
22 z,-y,-x
23 -z,y,-x
24 -z,-y,x
25 x+1/2,y+1/2,z+1/2
26 -x+1/2,-y+1/2,z+1/2
27 -x+1/2,y+1/2,-z+1/2
28 x+1/2,-y+1/2,-z+1/2
29 z+1/2,x+1/2,y+1/2
30 z+1/2,-x+1/2,-y+1/2
31 -z+1/2,-x+1/2,y+1/2
32 -z+1/2,x+1/2,-y+1/2
33 y+1/2,z+1/2,x+1/2
34 -y+1/2,z+1/2,-x+1/2
35 y+1/2,-z+1/2,-x+1/2
36 -y+1/2,-z+1/2,x+1/2
37 y+1/2,x+1/2,z+1/2
38 -y+1/2,-x+1/2,z+1/2
39 y+1/2,-x+1/2,-z+1/2
40 -y+1/2,x+1/2,-z+1/2
41 x+1/2,z+1/2,y+1/2
42 -x+1/2,z+1/2,-y+1/2
43 -x+1/2,-z+1/2,y+1/2
44 x+1/2,-z+1/2,-y+1/2
45 z+1/2,y+1/2,x+1/2
46 z+1/2,-y+1/2,-x+1/2
47 -z+1/2,y+1/2,-x+1/2
48 -z+1/2,-y+1/2,x+1/2
loop_
_atom_site_label
_atom_site_type_symbol
_atom_site_fract_x
_atom_site_fract_y
_atom_site_fract_z
_atom_site_adp_type
_atom_site_U_iso_or_equiv
_atom_site_symmetry_multiplicity
_atom_site_occupancy
_atom_site_calc_flag
_atom_site_refinement_flags
_atom_site_disorder_assembly
_atom_site_disorder_group
Cd10 Cd 0 0 0 Uani 0.035(4) 2 0.157(13) d . . .
Cd11 Cd 0.10623(8) 0.10623(8) 0.10623(8) Uani 0.0166(3) 8 0.840(6) d . . .
Pd12 Pd 0.32812(7) 0.32812(7) 0.32812(7) Uani 0.01207(18) 8 1 d . . .
Cd13a Cd 0.5 0.5 0.193(2) Uiso 0.021(3) 12 0.125(10) d . . .
Cd13 Cd 0.5 0.5 0.1425(2) Uiso 0.0145(5) 12 0.864(10) d . . .
Cd14 Cd 0.30638(6) 0.30638(6) 0.04532(8) Uani 0.0209(2) 24 1 d . . .
loop_
_atom_site_aniso_label
_atom_site_aniso_type_symbol
_atom_site_aniso_U_11
_atom_site_aniso_U_22
_atom_site_aniso_U_33
_atom_site_aniso_U_12
_atom_site_aniso_U_13
_atom_site_aniso_U_23
Cd10 Cd 0.035(7) 0.035(7) 0.035(7) 0 0 0
Cd11 Cd 0.0166(4) 0.0166(4) 0.0166(4) 0.0027(3) 0.0027(3) 0.0027(3)
Pd12 Pd 0.0121(3) 0.0121(3) 0.0121(3) 0.0017(2) 0.0017(2) 0.0017(2)
Cd14 Cd 0.0238(4) 0.0238(4) 0.0151(4) 0.0017(3) -0.0056(2) -0.0056(2)
loop_
_atom_type_symbol
_atom_type_scat_dispersion_real
_atom_type_scat_dispersion_imag
_atom_type_scat_source
Cd -0.8075 1.2024 'International Tables Vol C tables 4.2.6.8 and 6.1.1.1'
Pd -0.9988 1.0072 'International Tables Vol C tables 4.2.6.8 and 6.1.1.1'
loop_
_refln_index_h
_refln_index_k
_refln_index_l
_refln_F_squared_calc
_refln_F_squared_meas
_refln_F_squared_sigma
_refln_observed_status
0 1 1 2412. 2701. 44. o
0 0 2 1680. 1710. 21. o
1 1 2 3845. 3839. 24. o
-1 1 2 3892. 3818. 24. o
0 2 2 972. 1011. 15. o
2 2 2 145309. 142394. 862. o
-2 2 2 144827. 142094. 864. o
0 1 3 6321. 6386. 27. o
1 2 3 20216. 20033. 63. o
-1 2 3 20204. 20062. 60. o
0 3 3 1556780. 2027520. 5885. o
2 3 3 116673. 111360. 411. o
-2 3 3 117424. 111483. 404. o
0 0 4 5084. 5132. 57. o
1 1 4 549916. 571345. 1903. o
-1 1 4 548860. 569325. 1836. o
0 2 4 5511. 5932. 32. o
2 2 4 70608. 67740. 266. o
-2 2 4 70202. 68318. 289. o
1 3 4 6630. 6619. 37. o
-1 3 4 6568. 6660. 36. o
3 3 4 15069. 14490. 88. o
-3 3 4 15023. 14499. 106. o
0 4 4 26180. 25418. 116. o
2 4 4 105588. 101079. 379. o
-2 4 4 106004. 100425. 386. o
4 4 4 627463. 604375. 3367. o
-4 4 4 626615. 601558. 4179. o
0 1 5 34144. 32791. 108. o
1 2 5 9069. 9525. 49. o
-1 2 5 9211. 9327. 47. o
0 3 5 15900. 15793. 67. o
2 3 5 14663. 14295. 67. o
-2 3 5 14573. 14461. 70. o
1 4 5 924. 1207. 21. o
-1 4 5 990. 1078. 20. o
3 4 5 16228. 16083. 75. o
-3 4 5 16291. 16273. 84. o
0 5 5 248675. 238051. 848. o
2 5 5 29568. 30800. 162. o
-2 5 5 29252. 31032. 189. o
4 5 5 18569. 17672. 134. o
-4 5 5 18355. 17848. 146. o
0 0 6 358389. 334761. 1682. o
1 1 6 27426. 27908. 143. o
-1 1 6 27511. 27634. 140. o
0 2 6 2149. 2244. 28. o
2 2 6 11747. 11106. 88. o
-2 2 6 11731. 11085. 85. o
1 3 6 80092. 75850. 233. o
-1 3 6 79684. 75844. 221. o
3 3 6 270234. 253793. 947. o
-3 3 6 270013. 254442. 1003. o
0 4 6 24575. 24074. 97. o
2 4 6 18140. 18344. 86. o
-2 4 6 18239. 18203. 91. o
4 4 6 34620. 33689. 200. o
-4 4 6 34763. 33956. 227. o
1 5 6 18375. 17489. 86. o
-1 5 6 18518. 17643. 88. o
3 5 6 13941. 14535. 85. o
-3 5 6 14180. 14422. 94. o
5 5 6 965. 843. 44. o
-5 5 6 932. 962. 47. o
0 6 6 211285. 204493. 844. o
2 6 6 93853. 91738. 432. o
-2 6 6 94371. 91861. 459. o
4 6 6 13098. 12251. 124. o
-4 6 6 12966. 12207. 137. o
6 6 6 92841. 90825. 844. o
-6 6 6 92222. 90226. 954. o
0 1 7 7219. 6675. 49. o
1 2 7 183809. 178823. 493. o
-1 2 7 184468. 176395. 486. o
0 3 7 21952. 21744. 99. o
2 3 7 35992. 35688. 146. o
-2 3 7 36102. 36121. 149. o
1 4 7 183804. 179178. 518. o
-1 4 7 183402. 178374. 516. o
3 4 7 11876. 10911. 75. o
-3 4 7 11924. 11170. 81. o
0 5 7 1979. 2014. 35. o
2 5 7 49577. 48218. 194. o
-2 5 7 49167. 48701. 199. o
4 5 7 19696. 20861. 121. o
-4 5 7 19984. 20894. 132. o
1 6 7 677. 825. 30. o
-1 6 7 659. 868. 30. o
3 6 7 514. 720. 28. o
-3 6 7 535. 772. 33. o
5 6 7 8548. 8913. 82. o
-5 6 7 8612. 8897. 96. o
0 7 7 3365. 3590. 77. o
2 7 7 8254. 9164. 120. o
-2 7 7 8310. 9392. 132. o
4 7 7 186606. 189324. 878. o
-4 7 7 186206. 189918. 1029. o
6 7 7 31928. 30030. 253. o
-6 7 7 32035. 30992. 315. o
0 0 8 58362. 57931. 447. o
1 1 8 3273. 3821. 57. o
-1 1 8 3175. 3842. 57. o
0 2 8 72673. 72589. 243. o
2 2 8 35038. 36150. 215. o
-2 2 8 34782. 36357. 220. o
1 3 8 7518. 7482. 62. o
-1 3 8 7608. 7321. 65. o
3 3 8 32330. 33085. 225. o
-3 3 8 32092. 33807. 224. o
0 4 8 5919. 5487. 56. o
2 4 8 2958. 3013. 47. o
-2 4 8 2880. 3170. 46. o
4 4 8 6983. 7634. 104. o
-4 4 8 7092. 7735. 111. o
1 5 8 9006. 9578. 80. o
-1 5 8 9085. 9593. 80. o
3 5 8 111207. 109126. 404. o
-3 5 8 111168. 110243. 401. o
5 5 8 4651. 5414. 98. o
-5 5 8 4560. 5652. 109. o
0 6 8 5751. 6805. 74. o
2 6 8 8508. 7849. 82. o
-2 6 8 8410. 7997. 85. o
4 6 8 4042. 4294. 63. o
-4 6 8 4083. 4163. 68. o
6 6 8 2680. 2247. 73. o
-6 6 8 2585. 2297. 81. o
1 7 8 21056. 22276. 149. o
-1 7 8 21303. 22328. 146. o
3 7 8 3150. 3148. 60. o
-3 7 8 3119. 3178. 65. o
5 7 8 2712. 2243. 52. o
-5 7 8 2698. 2286. 63. o
7 7 8 4788. 4857. 115. o
-7 7 8 4857. 5023. 195. o
0 8 8 189112. 186904. 992. o
2 8 8 144. 314. 48. o
-2 8 8 158. 152. 45. o
4 8 8 15624. 16416. 212. o
-4 8 8 15722. 16482. 223. o
6 8 8 25832. 27462. 322. o
-6 8 8 25886. 27912. 472. o
0 1 9 16161. 16084. 100. o
1 2 9 8299. 7952. 71. o
-1 2 9 8349. 7932. 72. o
0 3 9 26002. 25334. 140. o
2 3 9 9982. 9928. 84. o
-2 3 9 10117. 9803. 83. o
1 4 9 30764. 30917. 167. o
-1 4 9 30935. 30685. 156. o
3 4 9 5439. 5369. 69. o
-3 4 9 5353. 5489. 67. o
0 5 9 394. 387. 30. o
2 5 9 11459. 11115. 107. o
-2 5 9 11413. 11343. 102. o
4 5 9 16460. 16134. 129. o
-4 5 9 16579. 16489. 125. o
1 6 9 16321. 15405. 125. o
-1 6 9 16158. 15668. 123. o
3 6 9 72090. 69778. 341. o
-3 6 9 71646. 71644. 330. o
5 6 9 16045. 17096. 146. o
-5 6 9 16218. 17481. 146. o
0 7 9 4353. 4496. 73. o
2 7 9 1486. 1284. 46. o
-2 7 9 1474. 1362. 47. o
4 7 9 17154. 16401. 148. o
-4 7 9 17253. 16749. 155. o
6 7 9 3104. 2957. 89. o
-6 7 9 3061. 3088. 124. o
1 8 9 3900. 3471. 72. o
-1 8 9 3961. 3450. 72. o
3 8 9 3154. 3418. 73. o
-3 8 9 3204. 3512. 77. o
5 8 9 2166. 2255. 113. o
-5 8 9 2210. 2232. 122. o
0 9 9 65996. 61444. 682. o
2 9 9 12312. 12854. 317. o
-2 9 9 12480. 12966. 382. o
4 9 9 12506. 11002. 861. o
0 0 10 66935. 67582. 544. o
1 1 10 55852. 56512. 343. o
-1 1 10 55504. 56578. 363. o
0 2 10 23729. 22836. 139. o
2 2 10 98822. 98064. 534. o
-2 2 10 98226. 97871. 520. o
1 3 10 3907. 3989. 59. o
-1 3 10 3884. 3987. 57. o
3 3 10 7016. 7412. 127. o
-3 3 10 7026. 7445. 121. o
0 4 10 4489. 4922. 68. o
2 4 10 30239. 32728. 204. o
-2 4 10 30531. 32301. 187. o
4 4 10 45332. 48815. 416. o
-4 4 10 45197. 49211. 350. o
1 5 10 79184. 80714. 374. o
-1 5 10 79736. 80388. 365. o
3 5 10 12879. 12670. 129. o
-3 5 10 12908. 12672. 117. o
5 5 10 6733. 6114. 144. o
-5 5 10 6639. 6189. 123. o
0 6 10 2831. 2731. 62. o
2 6 10 5774. 6119. 89. o
-2 6 10 5818. 6244. 90. o
4 6 10 1606. 1403. 54. o
-4 6 10 1607. 1510. 55. o
6 6 10 357. 152. 109. <
-6 6 10 351. 408. 125. o
1 7 10 21795. 24642. 193. o
-1 7 10 21715. 24891. 198. o
3 7 10 7553. 7123. 121. o
-3 7 10 7588. 7339. 127. o
5 7 10 4199. 3979. 172. o
-5 7 10 4144. 4002. 218. o
0 8 10 2697. 2584. 111. o
2 8 10 8819. 8978. 239. o
-2 8 10 8671. 9088. 226. o
-4 8 10 13100. 12726. 532. o
-1 9 10 1895. 2037. 345. o
0 1 11 25106. 26140. 165. o
1 2 11 17625. 18110. 136. o
-1 2 11 17734. 17800. 137. o
0 3 11 26185. 28202. 179. o
2 3 11 35637. 35718. 231. o
-2 3 11 35602. 35742. 211. o
1 4 11 6581. 6732. 92. o
-1 4 11 6706. 6740. 89. o
3 4 11 5600. 6361. 100. o
-3 4 11 5557. 6443. 88. o
0 5 11 66912. 67600. 354. o
2 5 11 11070. 12129. 130. o
-2 5 11 11018. 12289. 128. o
4 5 11 10153. 10124. 213. o
-4 5 11 10278. 10245. 165. o
1 6 11 2251. 2363. 88. o
-1 6 11 2240. 2353. 84. o
3 6 11 16183. 14418. 267. o
-3 6 11 15911. 15012. 233. o
-5 6 11 32377. 32953. 1525. o
0 7 11 164. 204. 92. <
2 7 11 1529. 1743. 157. o
-2 7 11 1489. 1719. 130. o
0 0 12 25. 20. 64. <
1 1 12 6911. 7075. 132. o
-1 1 12 6999. 6999. 126. o
0 2 12 2088. 1955. 57. o
2 2 12 9324. 9091. 168. o
-2 2 12 9261. 8680. 146. o
1 3 12 1816. 1958. 64. o
-1 3 12 1853. 2115. 60. o
3 3 12 14590. 13682. 345. o
-3 3 12 14312. 13825. 254. o
0 4 12 2909. 3035. 101. o
2 4 12 8137. 8006. 230. o
-2 4 12 8060. 7859. 143. o
4 4 12 29964. 26636. 1406. o
-4 4 12 30114. 29056. 714. o
1 5 12 2438. 2050. 124. o
-1 5 12 2477. 2139. 138. o
3 5 12 4861. 4697. 368. o
-3 5 12 4894. 4728. 233. o
0 6 12 11578. 10985. 791. o
0 1 13 1285. 1247. 74. o
1 2 13 26877. 28040. 516. o
-1 2 13 27218. 27606. 381. o
0 3 13 14083. 13324. 684. o
2 3 13 9288. 9236. 491. o
-2 3 13 9302. 9675. 878. o
