#------------------------------------------------------------------------------
#$Date: 2021-05-18 12:42:09 +0300 (Tue, 18 May 2021) $
#$Revision: 265306 $
#$URL: file:///home/coder/svn-repositories/cod/cif/1/56/26/1562669.cif $
#------------------------------------------------------------------------------
#
# This file is available in the Crystallography Open Database (COD),
# http://www.crystallography.net/
#
# All data on this site have been placed in the public domain by the
# contributors.
#
data_1562669
loop_
_publ_author_name
'Jana, Partha Pratim'
'Lidin, Sven'
_publ_section_title
;
 Pd2Cd11&#x2212; (0.21&#x2264;\d&#x2264;0.51)--a partly disordered
 \g-brass type phase and Pd0.238Cd0.762-a \g-brass related incommensurate
 phase in the palladium--cadmium system
;
_journal_name_full               'Journal of Solid State Chemistry'
_journal_page_first              244
_journal_page_last               249
_journal_paper_doi               10.1016/j.jssc.2013.01.044
_journal_volume                  201
_journal_year                    2013
_chemical_formula_sum            'Cd10.492 Pd2'
_chemical_formula_weight         1392.2
_space_group_IT_number           217
_space_group_name_Hall           'I -4 2 3'
_space_group_name_H-M_alt        'I -4 3 m'
_symmetry_cell_setting           cubic
_symmetry_Int_Tables_number      217
_symmetry_space_group_name_Hall  'I -4 2 3'
_symmetry_space_group_name_H-M   'I -4 3 m'
_cell_angle_alpha                90
_cell_angle_beta                 90
_cell_angle_gamma                90
_cell_formula_units_Z            4
_cell_length_a                   10.0170(9)
_cell_length_b                   10.0170(9)
_cell_length_c                   10.0170(9)
_cell_measurement_reflns_used    795
_cell_measurement_temperature    293
_cell_measurement_theta_max      28.19
_cell_measurement_theta_min      2.87
_cell_volume                     1005.11(16)
_computing_cell_refinement
;
CrysAlisPro, Agilent Technologies,
Version 1.171.35.21 (release 20-01-2012 CrysAlis171 .NET)
(compiled Jan 23 2012,18:06:46)
;
_computing_data_collection
;
CrysAlisPro, Agilent Technologies,
Version 1.171.35.21 (release 20-01-2012 CrysAlis171 .NET)
(compiled Jan 23 2012,18:06:46)
;
_computing_data_reduction
;
CrysAlisPro, Agilent Technologies,
Version 1.171.35.21 (release 20-01-2012 CrysAlis171 .NET)
(compiled Jan 23 2012,18:06:46)
;
_diffrn_ambient_temperature      293
_diffrn_detector_area_resol_mean 16.1367
_diffrn_measured_fraction_theta_full 0.98
_diffrn_measured_fraction_theta_max 0.95
_diffrn_measurement_device       'four-cycle diffractometer'
_diffrn_measurement_device_type  'Xcalibur, Eos'
_diffrn_measurement_method       '\w scans'
_diffrn_radiation_monochromator  graphite
_diffrn_radiation_probe          x-ray
_diffrn_radiation_source         'Enhance (Mo) X-ray Source'
_diffrn_radiation_wavelength     0.7107
_diffrn_reflns_av_R_equivalents  0.0658
_diffrn_reflns_av_sigmaI/netI    0.0243
_diffrn_reflns_limit_h_max       12
_diffrn_reflns_limit_h_min       -7
_diffrn_reflns_limit_k_max       12
_diffrn_reflns_limit_k_min       -11
_diffrn_reflns_limit_l_max       12
_diffrn_reflns_limit_l_min       -11
_diffrn_reflns_number            1383
_diffrn_reflns_theta_full        27.55
_diffrn_reflns_theta_max         28.25
_diffrn_reflns_theta_min         2.88
_exptl_absorpt_coefficient_mu    25.099
_exptl_absorpt_correction_T_max  1
_exptl_absorpt_correction_T_min  0.561
_exptl_absorpt_correction_type   multi-scan
_exptl_absorpt_process_details
;
CrysAlisPro, Agilent Technologies,
Version 1.171.35.21 (release 20-01-2012 CrysAlis171 .NET)
(compiled Jan 23 2012,18:06:46)
Empirical absorption correction using spherical harmonics,
 implemented in SCALE3 ABSPACK scaling algorithm.
;
_exptl_crystal_density_diffrn    9.1973
_exptl_crystal_F_000             2382
_exptl_crystal_size_max          0.08
_exptl_crystal_size_mid          0.03
_exptl_crystal_size_min          0.02
_refine_diff_density_max         2.79
_refine_diff_density_min         -2.37
_refine_ls_extinction_coef       50(20)
_refine_ls_extinction_method
'B-C type 1 Gaussian isotropic (Becker & Coppens, 1974)'
_refine_ls_goodness_of_fit_all   1.99
_refine_ls_goodness_of_fit_gt    2.03
_refine_ls_number_constraints    0
_refine_ls_number_parameters     23
_refine_ls_number_reflns         247
_refine_ls_number_restraints     0
_refine_ls_R_factor_all          0.0399
_refine_ls_R_factor_gt           0.0381
_refine_ls_shift/su_max          0.0311
_refine_ls_shift/su_mean         0.0055
_refine_ls_structure_factor_coef Fsqd
_refine_ls_weighting_details     w=1/(\s^2^(I)+0.0004I^2^)
_refine_ls_weighting_scheme      sigma
_refine_ls_wR_factor_all         0.0853
_refine_ls_wR_factor_gt          0.0849
_reflns_number_gt                236
_reflns_number_total             247
_reflns_threshold_expression     I>3\s(I)
_cod_data_source_file            JSSC-2013-201-244.cif
_cod_data_source_block           I
_cod_depositor_comments
;
The following automatic conversions were performed:

data item '_diffrn_radiation_probe' value 'X-ray' was changed to
'x-ray' in accordance with the built-in table derived from the CIF
Core dictionary named 'cif_core.dic' version 2.4.5 last updated on
2014-11-21.

Automatic conversion script
Id: cif_fix_values 8369 2020-08-20 11:38:08Z andrius 
;
_cod_original_sg_symbol_Hall     'I -4;2;3'
_cod_database_code               1562669
loop_
_symmetry_equiv_pos_site_id
_symmetry_equiv_pos_as_xyz
1 x,y,z
2 -x,-y,z
3 -x,y,-z
4 x,-y,-z
5 z,x,y
6 z,-x,-y
7 -z,-x,y
8 -z,x,-y
9 y,z,x
10 -y,z,-x
11 y,-z,-x
12 -y,-z,x
13 y,x,z
14 -y,-x,z
15 y,-x,-z
16 -y,x,-z
17 x,z,y
18 -x,z,-y
19 -x,-z,y
20 x,-z,-y
21 z,y,x
22 z,-y,-x
23 -z,y,-x
24 -z,-y,x
25 x+1/2,y+1/2,z+1/2
26 -x+1/2,-y+1/2,z+1/2
27 -x+1/2,y+1/2,-z+1/2
28 x+1/2,-y+1/2,-z+1/2
29 z+1/2,x+1/2,y+1/2
30 z+1/2,-x+1/2,-y+1/2
31 -z+1/2,-x+1/2,y+1/2
32 -z+1/2,x+1/2,-y+1/2
33 y+1/2,z+1/2,x+1/2
34 -y+1/2,z+1/2,-x+1/2
35 y+1/2,-z+1/2,-x+1/2
36 -y+1/2,-z+1/2,x+1/2
37 y+1/2,x+1/2,z+1/2
38 -y+1/2,-x+1/2,z+1/2
39 y+1/2,-x+1/2,-z+1/2
40 -y+1/2,x+1/2,-z+1/2
41 x+1/2,z+1/2,y+1/2
42 -x+1/2,z+1/2,-y+1/2
43 -x+1/2,-z+1/2,y+1/2
44 x+1/2,-z+1/2,-y+1/2
45 z+1/2,y+1/2,x+1/2
46 z+1/2,-y+1/2,-x+1/2
47 -z+1/2,y+1/2,-x+1/2
48 -z+1/2,-y+1/2,x+1/2
loop_
_atom_site_label
_atom_site_type_symbol
_atom_site_fract_x
_atom_site_fract_y
_atom_site_fract_z
_atom_site_adp_type
_atom_site_U_iso_or_equiv
_atom_site_symmetry_multiplicity
_atom_site_occupancy
_atom_site_calc_flag
_atom_site_refinement_flags
_atom_site_disorder_assembly
_atom_site_disorder_group
Cd10 Cd 0 0 0 Uani 0.051(6) 2 0.30(2) d . . .
Cd11 Cd 0.1074(2) 0.1074(2) 0.1074(2) Uani 0.0210(7) 8 0.690(10) d . . .
Pd12 Pd 0.32739(13) 0.32739(13) 0.32739(13) Uani 0.0114(3) 8 1 d . . .
Cd13a Cd 0.5 0.5 0.199(3) Uiso 0.019(5) 12 0.184(18) d . . .
Cd13 Cd 0.5 0.5 0.1441(6) Uiso 0.0161(12) 12 0.80(2) d . . .
Cd14 Cd 0.30577(12) 0.30577(12) 0.04583(15) Uani 0.0257(5) 24 1 d . . .
loop_
_atom_site_aniso_label
_atom_site_aniso_type_symbol
_atom_site_aniso_U_11
_atom_site_aniso_U_22
_atom_site_aniso_U_33
_atom_site_aniso_U_12
_atom_site_aniso_U_13
_atom_site_aniso_U_23
Cd10 Cd 0.051(10) 0.051(10) 0.051(10) 0 0 0
Cd11 Cd 0.0210(12) 0.0210(12) 0.0210(12) 0.0069(10) 0.0069(10) 0.0069(10)
Pd12 Pd 0.0114(6) 0.0114(6) 0.0114(6) 0.0028(6) 0.0028(6) 0.0028(6)
Cd14 Cd 0.0290(8) 0.0290(8) 0.0190(9) 0.0098(7) -0.0096(6) -0.0096(6)
loop_
_atom_type_symbol
_atom_type_scat_dispersion_real
_atom_type_scat_dispersion_imag
_atom_type_scat_source
Cd -0.8075 1.2024 'International Tables Vol C tables 4.2.6.8 and 6.1.1.1'
Pd -0.9988 1.0072 'International Tables Vol C tables 4.2.6.8 and 6.1.1.1'
loop_
_refln_index_h
_refln_index_k
_refln_index_l
_refln_F_squared_calc
_refln_F_squared_meas
_refln_F_squared_sigma
_refln_observed_status
0 1 1 1488. 1337. 92. o
0 0 2 3787. 4604. 220. o
1 1 2 5571. 5352. 156. o
-1 1 2 5613. 5237. 169. o
0 2 2 1113. 858. 84. o
2 2 2 113840. 134323. 3222. o
-2 2 2 113389. 116904. 2370. o
0 1 3 11304. 12013. 240. o
1 2 3 18653. 19073. 308. o
-1 2 3 18667. 18781. 294. o
0 3 3 1541130. 1473580. 12222. o
2 3 3 93464. 96050. 2046. o
-2 3 3 94146. 97831. 1224. o
0 0 4 19640. 22270. 900. o
1 1 4 490560. 492497. 4910. o
-1 1 4 489661. 500063. 4605. o
0 2 4 2619. 2352. 137. o
2 2 4 64584. 66888. 1252. o
-2 2 4 64161. 68444. 944. o
1 3 4 5453. 5553. 199. o
-1 3 4 5401. 5122. 172. o
3 3 4 19103. 18484. 817. o
-3 3 4 19051. 18585. 521. o
0 4 4 28318. 31494. 641. o
2 4 4 98251. 95265. 1690. o
-2 4 4 98601. 102410. 1405. o
-4 4 4 559726. 605444. 10010. o
0 1 5 23257. 23108. 409. o
1 2 5 6868. 6686. 219. o
-1 2 5 6991. 6022. 208. o
0 3 5 20704. 20809. 452. o
2 3 5 11625. 11530. 298. o
-2 3 5 11544. 9928. 272. o
1 4 5 2679. 2844. 170. o
-1 4 5 2792. 2554. 145. o
3 4 5 14038. 13160. 393. o
-3 4 5 14097. 14035. 332. o
0 5 5 204942. 217581. 2458. o
2 5 5 13447. 14522. 657. o
-2 5 5 13236. 15206. 578. o
4 5 5 14800. 14641. 726. o
-4 5 5 14635. 15515. 544. o
0 0 6 376662. 382201. 6727. o
1 1 6 18258. 17872. 620. o
-1 1 6 18342. 18204. 542. o
0 2 6 3354. 3430. 252. o
2 2 6 12484. 12396. 526. o
-2 2 6 12456. 12468. 530. o
1 3 6 68537. 67517. 980. o
-1 3 6 68167. 70539. 923. o
3 3 6 284933. 279553. 4654. o
-3 3 6 284597. 279216. 3560. o
0 4 6 17079. 17837. 451. o
2 4 6 12967. 12422. 408. o
-2 4 6 13048. 12398. 335. o
4 4 6 27928. 29062. 1011. o
-4 4 6 28063. 27949. 701. o
1 5 6 15355. 15381. 456. o
-1 5 6 15487. 15238. 364. o
3 5 6 10670. 8873. 387. o
-3 5 6 10886. 10560. 327. o
5 5 6 313. 584. 200. <
-5 5 6 295. 554. 156. o
0 6 6 216386. 213634. 2872. o
2 6 6 78288. 82836. 1838. o
-2 6 6 78767. 85796. 1636. o
4 6 6 8693. 7122. 482. o
-4 6 6 8580. 7924. 409. o
6 6 6 96833. 98110. 2608. o
-6 6 6 96210. 102516. 2623. o
0 1 7 12081. 11152. 340. o
1 2 7 162486. 157907. 1484. o
-1 2 7 163122. 162623. 1660. o
0 3 7 23488. 23622. 580. o
2 3 7 25475. 24163. 639. o
-2 3 7 25563. 22307. 508. o
1 4 7 167410. 173676. 2082. o
-1 4 7 167095. 177190. 1942. o
3 4 7 8512. 7315. 404. o
-3 4 7 8544. 6500. 290. o
0 5 7 1060. 1407. 176. o
2 5 7 46822. 49581. 1143. o
-2 5 7 46426. 49275. 919. o
4 5 7 14640. 13019. 485. o
-4 5 7 14869. 14400. 388. o
1 6 7 587. 667. 149. o
-1 6 7 573. 636. 159. o
3 6 7 542. 1089. 193. o
-3 6 7 562. 886. 171. o
5 6 7 7732. 9039. 415. o
-5 6 7 7790. 7729. 323. o
0 7 7 1026. 1293. 351. o
2 7 7 12585. 13314. 915. o
-2 7 7 12542. 13965. 930. o
4 7 7 165091. 185776. 3170. o
-4 7 7 164711. 187461. 2810. o
6 7 7 21241. 20954. 942. o
-6 7 7 21337. 22324. 870. o
0 0 8 62606. 60275. 2981. o
1 1 8 1883. 2112. 344. o
-1 1 8 1824. 1993. 366. o
0 2 8 64793. 65494. 1278. o
2 2 8 20906. 21488. 1002. o
-2 2 8 20731. 21752. 1018. o
1 3 8 4474. 4754. 376. o
-1 3 8 4542. 4384. 410. o
3 3 8 31734. 25592. 1235. o
-3 3 8 31495. 25839. 1008. o
0 4 8 4512. 4270. 353. o
2 4 8 1306. 1540. 221. o
-2 4 8 1251. 1323. 193. o
4 4 8 6646. 5871. 645. o
-4 4 8 6747. 5561. 425. o
1 5 8 9104. 10101. 525. o
-1 5 8 9167. 10334. 488. o
3 5 8 95097. 102931. 1842. o
-3 5 8 95073. 106184. 1649. o
5 5 8 1945. 2211. 434. o
-5 5 8 1939. 1690. 291. o
0 6 8 4786. 5750. 343. o
2 6 8 4643. 4521. 367. o
-2 6 8 4578. 4081. 350. o
4 6 8 3881. 3825. 322. o
-4 6 8 3928. 3550. 295. o
6 6 8 2515. 2367. 394. o
-6 6 8 2408. 1011. 280. o
1 7 8 13218. 16517. 883. o
-1 7 8 13414. 16662. 709. o
3 7 8 898. 1186. 267. o
-3 7 8 884. 1294. 231. o
5 7 8 2725. 2349. 305. o
-5 7 8 2710. 2378. 267. o
7 7 8 4330. 3727. 562. o
-7 7 8 4396. 2340. 446. o
0 8 8 161922. 180737. 3590. o
2 8 8 1187. 975. 379. <
-2 8 8 1235. 953. 317. o
4 8 8 14059. 18743. 1268. o
-4 8 8 14136. 18109. 1269. o
6 8 8 20768. 23283. 1736. o
-6 8 8 20797. 19928. 1288. o
0 1 9 10071. 10816. 584. o
1 2 9 5078. 4956. 374. o
-1 2 9 5111. 5057. 413. o
0 3 9 31686. 27607. 962. o
2 3 9 9526. 7902. 503. o
-2 3 9 9656. 9020. 618. o
1 4 9 27231. 26120. 925. o
-1 4 9 27406. 22267. 944. o
3 4 9 3458. 3150. 402. o
-3 4 9 3391. 2877. 308. o
0 5 9 1773. 1582. 237. o
2 5 9 9413. 10521. 666. o
-2 5 9 9381. 9481. 576. o
4 5 9 12809. 10264. 628. o
-4 5 9 12919. 13388. 566. o
1 6 9 10709. 11006. 536. o
-1 6 9 10566. 11412. 653. o
3 6 9 70498. 72988. 1569. o
-3 6 9 70112. 71179. 1547. o
5 6 9 10425. 11227. 675. o
-5 6 9 10590. 10164. 547. o
0 7 9 3341. 3718. 408. o
2 7 9 938. 1109. 312. o
-2 7 9 923. 960. 240. o
4 7 9 15291. 14934. 781. o
-4 7 9 15393. 13841. 756. o
6 7 9 992. 1520. 345. o
-6 7 9 966. 827. 247. o
1 8 9 3095. 3312. 472. o
-1 8 9 3154. 3041. 389. o
3 8 9 1590. 2552. 371. o
-3 8 9 1628. 2415. 344. o
5 8 9 2081. 2567. 689. o
-5 8 9 2120. 2847. 490. o
0 0 10 54746. 50737. 3037. o
1 1 10 49552. 46853. 1704. o
-1 1 10 49209. 45128. 2029. o
0 2 10 19269. 18647. 817. o
2 2 10 91261. 89076. 2374. o
-2 2 10 90681. 83265. 2815. o
1 3 10 4797. 5153. 456. o
-1 3 10 4769. 4788. 498. o
3 3 10 7139. 5845. 784. o
-3 3 10 7153. 6615. 687. o
0 4 10 1041. 1055. 271. o
2 4 10 26068. 25059. 992. o
-2 4 10 26300. 27580. 927. o
4 4 10 39782. 39145. 2043. o
-4 4 10 39641. 42372. 1716. o
1 5 10 64547. 61614. 1542. o
-1 5 10 65032. 65143. 1663. o
3 5 10 8418. 7886. 624. o
-3 5 10 8443. 10672. 698. o
5 5 10 6992. 6111. 857. o
-5 5 10 6871. 6908. 777. o
0 6 10 1120. 1474. 301. o
2 6 10 4212. 4826. 516. o
-2 6 10 4252. 4843. 477. o
4 6 10 834. 895. 308. <
-4 6 10 831. 1042. 251. o
6 6 10 147. 350. 440. <
-6 6 10 151. -100. 294. <
1 7 10 22127. 27003. 1222. o
-1 7 10 22090. 26454. 1078. o
3 7 10 4133. 4635. 750. o
-3 7 10 4164. 3841. 459. o
5 7 10 5100. 3746. 996. o
-5 7 10 5033. 3904. 1012. o
0 8 10 1106. 1023. 620. <
-2 8 10 7052. 7472. 1225. o
0 1 11 21674. 19906. 997. o
1 2 11 14263. 14728. 726. o
-1 2 11 14344. 11905. 725. o
0 3 11 21743. 23571. 1116. o
2 3 11 31243. 28504. 1094. o
-2 3 11 31237. 27866. 1253. o
1 4 11 3023. 3379. 406. o
-1 4 11 3102. 3675. 469. o
3 4 11 4191. 4672. 531. o
-3 4 11 4158. 4550. 561. o
0 5 11 59874. 56968. 1631. o
2 5 11 9444. 10748. 776. o
-2 5 11 9416. 10876. 804. o
4 5 11 7848. 7020. 664. o
-4 5 11 7943. 8594. 781. o
1 6 11 2460. 1653. 475. o
-1 6 11 2440. 2142. 544. o
3 6 11 16691. 12164. 1380. o
-3 6 11 16410. 17181. 1427. o
0 7 11 65. 229. 386. <
-2 7 11 412. 707. 607. <
0 0 12 315. 140. 410. <
1 1 12 8116. 6881. 899. o
-1 1 12 8215. 6998. 914. o
0 2 12 1640. 1892. 369. o
2 2 12 4367. 3800. 564. o
-2 2 12 4326. 3848. 694. o
1 3 12 1535. 1977. 380. o
-1 3 12 1571. 1561. 349. o
3 3 12 10433. 10731. 1130. o
0 4 12 2081. 1232. 600. <
2 4 12 7362. 6674. 893. o
-2 4 12 7281. 7870. 1383. o
1 5 12 1560. 851. 505. <
3 5 12 3182. 3334. 949. o
-3 5 12 3215. 4324. 1049. o
