#------------------------------------------------------------------------------
#$Date: 2021-04-28 10:38:16 +0300 (Wed, 28 Apr 2021) $
#$Revision: 264623 $
#$URL: file:///home/coder/svn-repositories/cod/cif/1/56/21/1562188.cif $
#------------------------------------------------------------------------------
#
# This file is available in the Crystallography Open Database (COD),
# http://www.crystallography.net/
#
# All data on this site have been placed in the public domain by the
# contributors.
#
data_1562188
loop_
_publ_author_name
'Moetakef, Pouya'
'Larson, Amber M.'
'Hodges, Brenna C.'
'Zavalij, Peter'
'Gaskell, Karen J.'
'Piccoli, Philip M.'
'Rodriguez, Efrain E.'
_publ_section_title
;
 Synthesis and crystal chemistry of microporous titanates K (Ti,M)8O16
 where M=Sc--Ni
;
_journal_name_full               'Journal of Solid State Chemistry'
_journal_page_first              45
_journal_page_last               53
_journal_paper_doi               10.1016/j.jssc.2014.08.012
_journal_volume                  220
_journal_year                    2014
_chemical_formula_moiety         'O16 Sc1.51 Ti6.49, K1.51'
_chemical_formula_sum            'K1.51 O16 Sc1.51 Ti6.49'
_chemical_formula_weight         693.80
_chemical_name_common            'Potassium Titanium Scandium Oxide'
_chemical_name_systematic
;
Potassium Titanium Scandium Oxide
;
_space_group_crystal_system      tetragonal
_space_group_IT_number           87
_space_group_name_Hall           '-I 4'
_space_group_name_H-M_alt        'I 4/m'
_symmetry_cell_setting           tetragonal
_symmetry_space_group_name_H-M   'I 4/m'
_atom_sites_solution_hydrogens   .
_atom_sites_solution_primary     direct
_atom_sites_solution_secondary   difmap
_cell_angle_alpha                90
_cell_angle_beta                 90
_cell_angle_gamma                90
_cell_formula_units_Z            1
_cell_length_a                   10.244(2)
_cell_length_b                   10.244(2)
_cell_length_c                   3.0077(7)
_cell_measurement_reflns_used    619
_cell_measurement_temperature    149(2)
_cell_measurement_theta_max      31.9
_cell_measurement_theta_min      2.8
_cell_volume                     315.63(11)
_computing_cell_refinement       Apex2
_computing_data_collection       'Apex2 (Bruker, 2010)'
_computing_data_reduction        'Apex2, Saint'
_computing_molecular_graphics    'XSHEL (Bruker, 2004)'
_computing_publication_material  'Apex2, SHELXL-2014, Platon (Spek, 1990)'
_computing_structure_refinement  'ShelXL-2014 (Sheldrick, 2014)'
_computing_structure_solution    'ShelXS-97 (Sheldrick, 2008)'
_diffrn_ambient_temperature      149(2)
_diffrn_detector                 'CCD area detector'
_diffrn_detector_area_resol_mean 8.333
_diffrn_measured_fraction_theta_full 0.996
_diffrn_measured_fraction_theta_max 0.990
_diffrn_measurement_device_type  'Bruker Smart Apex II CCD'
_diffrn_measurement_method       '\f and \w scans'
_diffrn_measurement_specimen_support 'MiTeGen loop'
_diffrn_orient_matrix_type       standard
_diffrn_orient_matrix_UB_11      0.0938535
_diffrn_orient_matrix_UB_12      -0.0065144
_diffrn_orient_matrix_UB_13      0.0879788
_diffrn_orient_matrix_UB_21      0.0025523
_diffrn_orient_matrix_UB_22      0.0963652
_diffrn_orient_matrix_UB_23      0.0514084
_diffrn_orient_matrix_UB_31      -0.0265187
_diffrn_orient_matrix_UB_32      -0.0138397
_diffrn_orient_matrix_UB_33      0.3162948
_diffrn_radiation_monochromator  graphite
_diffrn_radiation_type           MoK\a
_diffrn_radiation_wavelength     0.71073
_diffrn_reflns_av_R_equivalents  0.0257
_diffrn_reflns_av_unetI/netI     0.0220
_diffrn_reflns_Laue_measured_fraction_full 0.996
_diffrn_reflns_Laue_measured_fraction_max 0.990
_diffrn_reflns_limit_h_max       14
_diffrn_reflns_limit_h_min       -14
_diffrn_reflns_limit_k_max       14
_diffrn_reflns_limit_k_min       -14
_diffrn_reflns_limit_l_max       4
_diffrn_reflns_limit_l_min       -4
_diffrn_reflns_number            1335
_diffrn_reflns_point_group_measured_fraction_full 0.996
_diffrn_reflns_point_group_measured_fraction_max 0.990
_diffrn_reflns_theta_full        30.000
_diffrn_reflns_theta_max         31.464
_diffrn_reflns_theta_min         2.812
_diffrn_source                   'sealed tube'
_exptl_absorpt_coefficient_mu    5.238
_exptl_absorpt_correction_T_max  0.901
_exptl_absorpt_correction_T_min  0.686
_exptl_absorpt_correction_type   multi-scan
_exptl_absorpt_process_details   'SADABS (Sheldrick, 2008)'
_exptl_crystal_colour            colourless
_exptl_crystal_density_diffrn    3.650
_exptl_crystal_density_method    'not measured'
_exptl_crystal_description       needle
_exptl_crystal_F_000             331.2
_exptl_crystal_size_max          0.18
_exptl_crystal_size_mid          0.03
_exptl_crystal_size_min          0.02
_refine_diff_density_max         0.386
_refine_diff_density_min         -0.408
_refine_diff_density_rms         0.110
_refine_ls_extinction_coef       .
_refine_ls_extinction_method     none
_refine_ls_goodness_of_fit_ref   1.000
_refine_ls_hydrogen_treatment    undef
_refine_ls_matrix_type           full
_refine_ls_number_parameters     28
_refine_ls_number_reflns         309
_refine_ls_number_restraints     19
_refine_ls_restrained_S_all      0.984
_refine_ls_R_factor_all          0.0220
_refine_ls_R_factor_gt           0.0191
_refine_ls_shift/su_max          0.000
_refine_ls_shift/su_mean         0.000
_refine_ls_structure_factor_coef Fsqd
_refine_ls_weighting_details
'w=1/[\s^2^(Fo^2^)+(0.0100P)^2^+1.5950P] where P=(Fo^2^+2Fc^2^)/3'
_refine_ls_weighting_scheme      calc
_refine_ls_wR_factor_gt          0.0433
_refine_ls_wR_factor_ref         0.0443
_reflns_Friedel_coverage         0.000
_reflns_Friedel_fraction_full    .
_reflns_Friedel_fraction_max     .
_reflns_number_gt                282
_reflns_number_total             309
_reflns_threshold_expression     'I > 2\s(I)'
_cod_data_source_file            JSSC-2014-220-45-2.cif
_cod_data_source_block           2538
_cod_depositor_comments
;
The following automatic conversions were performed:

data item '_symmetry_cell_setting' value 'Tetragonal' was changed to
'tetragonal' in accordance with the built-in table derived from the
CIF Core dictionary named 'cif_core.dic' version 2.4.5 last updated
on 2014-11-21.

Automatic conversion script
Id: cif_fix_values 8369 2020-08-20 11:38:08Z andrius 
;
_cod_original_cell_volume        315.63(17)
_cod_original_sg_symbol_H-M      I4/m
_cod_database_code               1562188
_shelx_space_group_comment
;
The symmetry employed for this shelxl refinement is uniquely defined
by the following loop, which should always be used as a source of
symmetry information in preference to the above space-group names.
They are only intended as comments.
;
_shelx_estimated_absorpt_t_min   0.452
_shelx_estimated_absorpt_t_max   0.902
_shelxl_version_number           2014-3
_shelx_res_file
;
TITL as in I4/m
CELL 0.71073  10.2440  10.2440   3.0077  90.000  90.000  90.000
ZERR    1.00   0.0024   0.0024   0.0007   0.000   0.000   0.000
LATT  2
SYMM -X, -Y, Z
SYMM -Y, X, Z
SYMM Y, -X, Z
SFAC O  K  Ti Sc
UNIT 16 1.51 6.49 1.51
OMIT  -2.00  63
L.S. 9
ACTA 60
BOND
FMAP 2
PLAN 20
SIZE 0.02 0.03 0.18
TEMP -123.940
sump 0 .0000001 1 2 1 3 1 4 -0.5 5
WGHT    0.010000    1.595000
FVAR       0.22428   0.05976   0.03246   0.00227   0.18897
MOLE 1
simu .01 K1 K2
isor .01 K1 K2
eadp K2 K3
K1    2    0.500000    0.500000    0.224675    21.00000    0.01086    0.01086 =
         0.04196    0.00000    0.00000    0.00000
K2    2    0.500000    0.500000    0.000000    31.00000    0.01852    0.01852 =
         0.03955    0.00000    0.00000    0.00000
K3    2    0.500000    0.500000    0.500000    41.00000    0.01852    0.01852 =
         0.03955    0.00000    0.00000    0.00000
eadp Ti1 Sc1
exyz Ti1 Sc1
TI1   3    0.166868    0.350326    0.000000   -50.50000    0.00783    0.00534 =
         0.00424    0.00000    0.00000    0.00099
SC1   4    0.166868    0.350326    0.000000    50.50000    0.00783    0.00534 =
         0.00424    0.00000    0.00000    0.00099
O1    1    0.165717    0.540581    0.000000    10.50000    0.00803    0.00733 =
         0.01214    0.00000    0.00000   -0.00014
O2    1    0.293991    0.344201    0.500000    10.50000    0.00614    0.00544 =
         0.00717    0.00000    0.00000   -0.00018
HKLF 4

REM  as in I4/m
REM R1 =  0.0191 for     282 Fo > 4sig(Fo)  and  0.0220 for all     309 data
REM     28 parameters refined using     19 restraints

END

WGHT      0.0272      0.0000

REM Highest difference peak  0.386,  deepest hole -0.408,  1-sigma level  0.110
Q1    1   0.2230  0.3431  0.5000  10.50000  0.05    0.39
Q2    1   0.2454  0.2610  0.5000  10.50000  0.05    0.37
Q3    1   0.3143  0.2856  0.5000  10.50000  0.05    0.32
Q4    1   0.2628  0.3368  0.7438  11.00000  0.05    0.32
Q5    1   0.0661  0.2770  0.0000  10.50000  0.05    0.30
Q6    1   0.2124  0.5192  0.0000  10.50000  0.05    0.29
Q7    1   0.1322  0.4777  0.0000  10.50000  0.05    0.28
Q8    1   0.2000  0.5754 -0.2015  11.00000  0.05    0.28
Q9    1   0.1007  0.5893 -0.2680  11.00000  0.05    0.27
Q10   1   0.3000  0.5889  0.0000  10.50000  0.05    0.26
Q11   1   0.3586  0.3587  0.8261  11.00000  0.05    0.23
Q12   1   0.5000  0.5000  0.6293  10.25000  0.05    0.23
Q13   1   0.1276  0.5152 -0.2437  11.00000  0.05    0.21
Q14   1   0.2845  0.3252  0.0000  10.50000  0.05    0.20
Q15   1   0.0888  0.5511  0.0000  10.50000  0.05    0.20
Q16   1   0.2971  0.3985  0.5000  10.50000  0.05    0.18
Q17   1   0.2360  0.4374  0.0000  10.50000  0.05    0.18
Q18   1   0.1418  0.2570 -0.1992  11.00000  0.05    0.18
Q19   1   0.2876  0.5454 -0.2333  11.00000  0.05    0.16
Q20   1   0.4787  0.3809  0.0000  10.50000  0.05    0.16
;
_shelx_res_checksum              10774
_shelx_hkl_file
;
   1   1   0   96.31    1.93
  -1  -1   0   92.45    2.12
  -1   1   0   96.01    1.89
  -1   1   0   96.93    1.90
   0  -2   0  207.02    4.09
   0   2   0  205.07    3.97
  -2   0   0  209.36    3.81
  -2   0   0  205.65    4.15
  -2   2   0   81.93    1.85
   2   2   0   80.38    2.00
  -2   2   0   79.85    1.94
  -2  -2   0   81.18    2.25
  -3  -1   0  648.02   12.72
  -1   3   0  683.40   11.91
   1  -3   0  683.03   12.31
  -3  -1   0  680.09   11.74
  -1  -3   0  257.80    5.42
  -3   1   0  262.29    4.89
  -3   1   0  252.67    5.17
   1   3   0  256.64    5.13
  -3  -3   0   52.12    1.98
  -3   3   0   52.60    1.51
   3   3   0   50.51    1.72
  -3   3   0   54.32    1.68
  -2   4   0  202.04    4.42
   4   2   0  202.36    4.36
  -4  -2   0  201.11    4.94
   2  -4   0  208.30    4.28
   0   4   0  240.53    5.10
  -4   0   0  242.05    4.79
  -4   0   0  238.60    5.29
   0  -4   0  246.68    5.18
  -2  -4   0   51.38    1.98
  -4   2   0   52.84    1.65
   2   4   0   53.14    1.84
  -4   2   0   52.17    1.65
  -4  -4   0   75.09    2.79
   4   4   0   80.32    2.50
  -4   4   0   77.29    2.35
  -4   4   0   78.30    2.17
   5   3   0   60.84    2.11
  -5  -3   0   67.15    2.57
  -3   5   0   62.90    2.16
   3  -5   0   64.83    1.89
  -1   5   0  135.99    3.49
  -5  -1   0  133.08    3.22
   1  -5   0  130.65    3.27
  -5  -1   0  144.08    3.81
  -5   1   0  144.08    3.70
   1   5   0  147.66    3.77
  -1  -5   0  151.09    3.87
  -5   1   0  146.63    3.40
  -5   3   0    2.71    0.54
   3   5   0    2.43    0.55
  -5   3   0    2.87    0.49
  -3  -5   0    3.51    0.74
  -5   5   0   12.46    0.84
  -5  -5   0   14.98    1.59
  -5   5   0   13.84    1.04
   5   5   0   15.16    1.14
   6   4   0  132.35    3.68
  -6  -4   0  126.75    4.20
  -4   6   0  124.42    3.62
  -4   6   0  129.56    3.29
   2  -6   0    0.74    0.30
  -2   6   0    0.51    0.35
   6   2   0   -0.18    0.23
  -6  -2   0   -0.30    0.33
   0   6   0  939.91   17.42
  -6   0   0  958.04   16.89
   0  -6   0 1000.00   18.17
  -6   0   0  916.90   18.33
  -6   2   0   93.59    2.64
  -6   2   0   88.92    2.77
  -2  -6   0   88.53    3.04
   2   6   0   93.88    3.01
  -6   4   0    6.18    0.82
   4   6   0    4.82    0.83
  -4  -6   0    6.12    1.02
  -6   4   0    5.80    0.73
   6   6   0  290.33    7.07
  -6  -6   0  302.53    8.03
  -6   6   0  307.82    6.60
  -6   6   0  295.48    6.82
   7   5   0   96.08    3.30
  -7  -5   0  100.13    3.94
  -5   7   0   95.54    3.26
   7   3   0  187.48    4.75
   3  -7   0  190.36    4.50
  -3   7   0  189.13    4.94
  -7  -3   0  190.66    5.53
  -1   7   0  152.81    4.28
  -7  -1   0  156.75    4.59
   1  -7   0  158.68    4.06
  -7  -1   0  155.29    3.93
  -7   1   0    1.57    0.53
  -7   1   0    1.24    0.41
   1   7   0    1.57    0.55
  -1  -7   0    1.93    0.56
   3   7   0  332.28    7.69
  -3  -7   0  334.19    8.11
  -7   3   0  337.57    7.48
  -7   3   0  335.59    7.12
  -7   5   0  106.59    3.39
  -5  -7   0  113.40    4.21
  -7   5   0  113.41    3.30
   5   7   0  114.77    3.82
   7   7   0   58.58    2.75
  -7   7   0   58.16    2.56
  -7  -7   0   59.21    3.19
  -8  -6   0   17.79    2.01
   8   6   0   22.37    1.98
  -6   8   0   20.13    1.55
  -4   8   0    2.81    0.70
   8   4   0    4.20    0.80
  -8  -4   0    4.26    0.99
  -2   8   0   36.14    1.94
  -8  -2   0   40.61    2.26
   8   2   0   37.24    1.77
   2  -8   0   39.20    1.71
   0  -8   0    7.05    0.97
   0   8   0    8.02    1.13
  -8   0   0    8.67    1.17
  -8   0   0    7.41    0.90
   2   8   0    1.46    0.60
  -8   2   0    1.57    0.48
  -8   2   0    1.36    0.51
  -2  -8   0    2.46    0.73
  -4  -8   0   87.77    3.60
  -8   4   0   89.52    3.00
  -8   4   0   87.69    3.02
   4   8   0   87.04    3.38
  -8   6   0   17.05    1.34
   6   8   0   17.61    1.84
  -6  -8   0   19.25    2.13
  -8  -8   0    0.20    0.59
   8   8   0    0.69    0.60
  -8   8   0    0.39    0.54
   9   7   0  291.67    7.66
  -9  -7   0  297.72    8.87
  -7   9   0  283.24    7.42
   9   5   0    1.33    0.62
  -5   9   0    2.37    0.72
  -9  -5   0    2.37    0.89
  -3   9   0  100.27    3.62
  -9  -3   0   98.65    3.98
   9   3   0   96.41    3.33
   1  -9   0  391.76    8.76
  -1   9   0  387.28    8.98
  -9  -1   0  394.61    9.57
  -9   1   0   30.75    1.93
   1   9   0   28.28    1.89
  -9   1   0   27.87    1.56
  -1  -9   0   26.86    1.76
   3   9   0   86.05    3.51
  -3  -9   0   82.81    3.51
  -9   3   0   83.64    2.95
  -9   3   0   87.65    3.23
  -9   5   0   84.48    3.12
   5   9   0   90.36    3.69
  -5  -9   0   91.41    3.98
   7   9   0   56.94    3.01
  -7  -9   0   57.21    3.35
  -9   7   0   59.34    2.73
  -9  -9   0   74.40    4.15
   9   9   0   73.55    3.61
  -9   9   0   70.06    3.28
  10   8   0    2.63    0.95
 -10  -8   0    3.34    1.15
  -8  10   0    6.93    1.28
  -6  10   0   10.70    1.47
 -10  -6   0    9.47    1.71
  10   6   0   12.39    1.57
  10   4   0  130.45    4.25
  -4  10   0  135.74    4.51
 -10  -4   0  128.20    5.03
  10   2   0    5.53    0.93
 -10  -2   0    4.85    1.14
  -2  10   0    6.14    1.10
 -10   0   0  130.70    4.70
   0 -10   0  140.97    4.46
 -10   0   0  140.88    4.13
   0  10   0  140.27    4.72
 -10   2   0  185.78    5.56
   2  10   0  183.93    5.71
 -10   2   0  184.75    4.94
  -2 -10   0  175.80    5.61
  -4 -10   0    2.34    0.85
 -10   4   0    2.42    0.73
   4  10   0    2.70    0.89
 -10   6   0  131.24    4.29
   6  10   0  132.02    4.90
  -6 -10   0  129.49    5.25
   8  10   0   77.01    3.76
  -8 -10   0   72.14    4.06
 -10 -10   0   28.82    3.20
  10  10   0   31.75    2.56
 -11  -9   0    3.99    1.33
  11   9   0    2.83    1.10
 -11  -7   0   17.49    2.38
  -7  11   0   15.62    1.85
  11   7   0   15.73    1.97
  -5  11   0   11.44    1.60
  11   5   0   14.89    1.70
 -11  -5   0   13.64    1.99
  -3  11   0    0.75    0.64
 -11  -3   0    0.86    0.69
  11   3   0    0.81    0.59
  -1  11   0    3.87    0.98
 -11  -1   0    4.06    1.07
  11   1   0    5.43    0.94
   1  11   0   35.36    2.38
  -1 -11   0   33.60    2.19
 -11   1   0   36.14    2.01
 -11   1   0   35.66    2.36
   3  11   0    4.73    1.17
  -3 -11   0    3.38    0.99
   5  11   0   20.30    2.26
  -5 -11   0   17.90    2.16
  -7 -11   0   42.08    3.07
   7  11   0   41.76    2.83
  -9 -11   0   24.93    2.98
   9  11   0   18.30    2.29
  12   8   0   46.44    2.97
  12   6   0   19.05    2.11
 -12  -6   0   14.84    2.23
  -6  12   0   16.61    2.01
  -4  12   0   27.08    2.11
 -12  -4   0   22.54    2.61
  12   4   0   26.74    1.98
 -12  -2   0   25.04    2.52
  -2  12   0   28.04    2.20
   0  12   0   82.60    3.83
 -12   0   0   83.57    3.92
  -2 -12   0   20.12    2.11
   2  12   0   22.17    2.37
  -4 -12   0    8.63    1.59
   4  12   0   10.42    1.71
   6  12   0   40.58    2.88
  -6 -12   0   34.73    2.83
  -8 -12   0   10.46    2.01
   8  12   0    9.34    1.81
  -7  13   0   26.36    2.58
 -13  -7   0   27.63    3.15
  -5  13   0   32.25    2.52
 -13  -5   0   38.59    3.10
 -13  -3   0   42.11    3.08
  -3  13   0   45.95    2.89
  -1  13   0   48.64    2.99
 -13  -1   0   42.20    2.92
   1  13   0    1.63    0.90
   3  13   0   60.93    3.56
  -3 -13   0   63.01    3.53
   5  13   0   31.46    3.02
  -5 -13   0   29.64    3.01
  -7 -13   0    7.85    1.81
   7  13   0    9.24    1.82
  -6  14   0    1.00    0.95
 -14  -4   0    1.01    0.95
  -4  14   0    0.03    0.76
  -2  14   0    1.75    0.95
 -14  -2   0    2.56    1.15
   0  14   0   15.38    2.19
   2  14   0    7.02    1.52
   4  14   0   10.31    1.85
  -6 -14   0   30.85    3.17
 -15  -3   0   15.57    2.36
   0  -1  -1    0.93    0.29
  -1   0  -1    1.66    0.39
   1   0   1    1.92    0.24
  -1   0   1    1.71    0.35
   0   1   1    1.26    0.29
   0  -1   1    1.55    0.30
  -1   0   1    1.50    0.34
   0  -1   1    1.27    0.35
  -2  -1  -1  197.17    4.53
   1  -2  -1  197.99    3.93
  -1   2  -1  194.22    3.78
   1  -2   1  194.41    4.55
  -2  -1   1  199.87    4.43
  -1   2   1  200.96    4.22
   2   1   1  200.59    3.67
  -2  -1   1  191.23    4.18
  -2   1  -1  317.18    6.68
  -1  -2  -1  313.53    6.40
  -2   1  -1  307.46    5.26
   1   2  -1  319.02    6.08
  -1  -2   1  315.52    6.65
  -2   1   1  318.94    6.01
   1   2   1  312.53    5.90
  -2   1   1  306.14    6.16
  -2   3  -1    8.61    0.56
  -3  -2  -1    9.02    0.94
   3   2   1    7.82    0.57
  -3  -2   1    8.27    0.91
  -2   3   1    9.57    0.78
  -3  -2   1    8.26    0.83
   2  -3   1    7.34    0.81
  -3   0  -1  352.79    7.59
   0   3  -1  354.72    6.77
   0  -3  -1  355.22    6.99
  -3   0   1  355.33    7.06
   0   3   1  354.73    6.93
   0  -3   1  363.37    7.58
  -3   0   1  355.57    7.11
  -3   2  -1   29.04    0.75
  -2  -3  -1   27.93    1.34
  -3   2  -1   27.37    1.38
   2   3  -1   26.31    1.26
  -2  -3   1   26.48    1.42
   2   3   1   28.77    1.19
  -3   2   1   27.97    0.78
  -3   2   1   29.28    1.34
  -4  -3  -1   37.82    1.83
  -3   4  -1   35.86    1.26
   4   3  -1   36.99    1.69
   3  -4   1   34.54    1.66
  -3   4   1   30.97    1.56
  -4  -3   1   34.40    1.77
   4   3   1   35.64    1.40
  -1   4  -1  315.34    6.26
   1  -4  -1  318.37    6.12
  -4  -1  -1  317.66    7.16
   1  -4   1  319.72    7.08
  -4  -1   1  320.91    6.91
  -4  -1   1  318.33    6.64
  -1   4   1  314.28    6.63
   4   1   1  319.77    5.75
   1   4  -1  292.96    5.94
  -4   1  -1  285.29    6.51
  -1  -4  -1  251.70    6.01
  -1  -4   1  287.06    6.53
  -4   1   1  277.94    6.04
  -4   1   1  295.07    5.75
   1   4   1  282.48    5.91
  -4   3  -1    2.31    0.33
  -3  -4  -1    1.96    0.55
  -4   3  -1    1.80    0.49
   3   4  -1    1.84    0.49
   3   4   1    1.06    0.38
  -4   3   1    1.82    0.50
  -3  -4   1    1.13    0.46
  -4   5  -1  229.58    5.89
  -4   5  -1  236.87    5.03
  -5  -4  -1  240.27    6.36
   5   4  -1  243.18    5.88
  -4   5   1  237.35    5.78
  -5  -4   1  232.66    6.30
   5   4   1  238.85    5.34
  -5  -2  -1  615.32   13.01
   2  -5  -1  623.50   11.16
  -2   5  -1  633.37   11.57
  -2   5   1  639.85   12.19
   5   2   1  628.09   11.23
  -5  -2   1  616.48   12.83
   2  -5   1  626.63   12.72
  -5  -2   1  637.03   12.12
   0   5  -1   91.52    2.69
   0  -5  -1   97.54    2.55
  -5   0  -1   90.45    3.07
   5   0   1   88.87    1.89
  -5   0   1   92.75    2.74
   0  -5   1   85.38    2.95
   0   5   1   87.91    2.80
  -5   0   1   91.21    2.85
   2   5  -1  372.23    7.85
  -5   2  -1  372.10    8.40
  -2  -5  -1  388.84    8.27
  -5   2  -1  376.44    6.60
   2   5   1  380.91    7.86
  -2  -5   1  366.20    8.57
  -5   2   1  377.25    7.33
  -5   2   1  380.69    7.94
  -5   4  -1  719.19   14.50
  -4  -5  -1  727.14   14.81
  -5   4  -1  734.82   12.67
   4   5  -1  728.44   13.90
  -4  -5   1  688.13   14.89
   4   5   1  692.89   13.51
  -5   4   1  717.84   13.86
  -6  -5  -1    0.67    0.50
  -5   6  -1    0.11    0.31
  -5   6  -1    0.03    0.30
   6   5  -1   -0.03    0.33
  -6  -5   1    0.39    0.50
  -5   6   1    0.30    0.40
   6   5   1    0.72    0.43
  -6  -3  -1   13.12    1.47
   6   3  -1   17.41    1.30
  -3   6  -1   16.15    1.06
   3  -6   1   14.46    1.15
   6   3   1   17.20    1.01
  -3   6   1   15.82    1.25
  -6  -3   1   16.41    1.36
   1  -6  -1    0.99    0.30
  -6  -1  -1    0.55    0.43
  -1   6  -1    1.31    0.45
   1  -6   1    0.19    0.33
  -1   6   1    0.94    0.41
  -6  -1   1    1.15    0.48
  -6  -1   1    1.03    0.43
   6   1   1    0.50    0.23
  -1  -6  -1   92.40    2.83
   1   6  -1   85.94    2.85
  -6   1  -1   86.13    3.14
  -1  -6   1   86.08    3.15
  -6   1   1   87.65    2.71
   1   6   1   88.88    2.96
  -6   1   1   90.25    2.97
  -3  -6  -1   14.43    1.22
  -6   3  -1   16.13    1.27
  -6   3  -1   16.66    0.77
   3   6  -1   14.40    1.38
  -3  -6   1   16.61    1.41
   3   6   1   16.71    1.25
  -6   3   1   14.81    1.20
   5   6  -1   76.36    3.02
  -6   5  -1   75.76    2.28
  -6   5  -1   76.52    2.97
  -5  -6  -1   81.65    3.36
   5   6   1   76.34    2.83
  -6   5   1   77.95    3.01
  -5  -6   1   77.72    3.39
  -7  -6  -1  109.73    4.43
  -6   7  -1  115.74    3.94
   7   6  -1  110.18    4.05
   7   6   1  114.72    3.69
  -6   7   1  112.81    4.01
  -7  -6   1  118.66    4.61
  -4   7  -1   18.91    1.23
  -7  -4  -1   20.11    2.01
   7   4  -1   16.79    1.64
   4  -7   1   20.41    1.45
  -4   7   1   20.44    1.52
  -7  -4   1   20.67    1.70
   7   4   1   17.37    1.18
  -2   7  -1   75.71    2.66
  -7  -2  -1   78.95    3.27
   7   2   1   81.65    2.31
  -7  -2   1   78.00    2.92
  -7  -2   1   78.56    3.16
  -2   7   1   77.95    2.96
   2  -7   1   81.51    3.02
   0  -7  -1   15.17    1.02
  -7   0  -1   13.28    1.44
   0   7  -1   16.76    1.25
  -7   0   1   12.65    1.30
   0   7   1   15.79    1.53
   0  -7   1   17.88    1.37
  -7   0   1   17.28    1.30
   2   7  -1   25.83    1.60
  -7   2  -1   24.70    1.66
  -2  -7  -1   22.96    1.49
  -7   2   1   24.44    1.58
   2   7   1   23.30    1.57
  -2  -7   1   24.76    1.73
  -7   2   1   21.89    1.27
  -4  -7  -1   86.53    3.41
  -7   4  -1   86.68    3.28
   4   7  -1   87.33    3.31
  -7   4   1   85.56    3.21
  -4  -7   1   83.28    3.59
   4   7   1   91.73    3.28
  -6  -7  -1    1.86    0.77
  -7   6  -1    2.85    0.79
   6   7  -1    2.36    0.78
  -6  -7   1    4.64    1.08
  -7   6   1    2.67    0.78
   6   7   1    3.40    0.84
  -7   8  -1    2.29    0.74
   8   7  -1    1.29    0.72
  -8  -7  -1    2.90    0.97
  -8  -7   1    1.44    0.79
   8   7   1    2.14    0.73
  -7   8   1    1.28    0.71
  -5   8  -1  137.56    3.99
  -5   8  -1  139.15    4.46
  -8  -5  -1  132.19    5.05
   8   5  -1  143.94    4.71
  -8  -5   1  141.59    5.14
  -5   8   1  137.37    4.58
   8   5   1  139.68    4.07
   8   3  -1   48.56    2.39
  -8  -3  -1   45.12    2.64
  -3   8  -1   48.04    2.12
  -8  -3   1   43.09    2.51
  -3   8   1   42.73    2.32
   3  -8   1   45.74    2.27
   8   3   1   45.02    1.84
  -1   8  -1   19.48    1.41
  -8  -1  -1   19.93    1.68
   1  -8   1   20.98    1.54
  -1   8   1   20.96    1.58
  -8  -1   1   20.87    1.51
  -8  -1   1   18.92    1.53
  -1  -8  -1  100.09    3.25
   1   8  -1  100.81    3.50
  -8   1  -1  104.32    3.83
  -8   1   1   95.62    3.37
   1   8   1   98.77    3.59
  -8   1   1  100.89    3.53
  -1  -8   1   97.29    3.72
  -8   3  -1    8.32    1.20
  -3  -8  -1    8.84    1.25
   3   8  -1    7.93    1.20
   3   8   1    7.24    1.13
  -3  -8   1    7.95    1.29
  -8   3   1    6.25    1.05
  -8   5  -1  135.05    4.56
  -5  -8  -1  140.09    4.92
   5   8  -1  136.17    4.67
  -5  -8   1  139.81    5.16
  -8   5   1  134.45    4.48
   5   8   1  140.69    4.52
   7   8  -1   34.06    2.33
  -7  -8  -1   34.82    2.51
  -8   7  -1   35.53    2.17
  -7  -8   1   35.22    2.61
  -8   7   1   34.03    2.20
   7   8   1   31.17    2.06
  -9  -8  -1    0.42    0.74
   9   8  -1    0.07    0.64
  -8   9   1   -0.06    0.55
  -9  -8   1   -0.26    0.58
   9   6  -1    0.31    0.56
  -9  -6  -1    0.52    0.68
  -6   9  -1   -0.09    0.43
  -9  -6   1    0.17    0.60
  -6   9   1   -0.05    0.48
  -9  -4  -1   38.73    2.61
  -4   9  -1   40.24    2.08
   9   4  -1   42.12    2.39
   4  -9   1   39.84    2.22
  -9  -4   1   41.61    2.64
  -4   9   1   39.05    2.37
  -9  -2  -1   19.72    2.10
  -2   9  -1   20.37    1.53
  -9  -2   1   20.53    1.57
  -9  -2   1   14.99    1.76
   2  -9   1   19.26    1.54
  -2   9   1   14.23    1.61
   0   9  -1   25.15    1.75
  -9   0  -1   25.94    1.98
   0  -9   1   27.38    1.87
   0   9   1   29.84    1.97
  -9   0   1   19.82    1.57
  -9   0   1   24.88    1.81
   2   9  -1   71.85    3.11
  -9   2  -1   70.37    3.21
  -2  -9  -1   67.35    2.84
  -2  -9   1   74.15    3.39
  -9   2   1   70.07    3.04
   2   9   1   68.83    3.14
   4   9  -1   33.99    2.24
  -9   4  -1   39.68    2.35
  -4  -9  -1   36.01    2.30
  -9   4   1   37.28    2.25
   4   9   1   43.41    2.47
  -4  -9   1   39.67    2.61
  -6  -9  -1    1.28    0.78
  -9   6  -1    0.95    0.67
   6   9  -1    0.76    0.67
  -6  -9   1    0.83    0.72
   6   9   1    1.50    0.73
  -9   6   1    1.47    0.70
   8   9  -1   49.73    3.02
  -8  -9  -1   43.10    3.05
  -8  -9   1   43.53    3.14
  -9   8   1   49.21    2.84
   8   9   1   55.37    2.92
 -10  -9  -1   29.23    3.16
  10   9  -1   25.43    2.70
  -9  10   1   33.95    2.57
 -10  -9   1   34.81    3.44
 -10  -7  -1    1.61    0.95
  10   7  -1    1.19    0.79
  -7  10   1    0.33    0.64
 -10  -7   1    1.33    0.89
  -5  10  -1  151.08    4.97
 -10  -5  -1  147.19    5.83
  -5  10  -1  154.18    4.72
  10   5  -1  154.04    5.26
 -10  -5   1  159.20    5.87
  -5  10   1  152.22    5.28
  10   3  -1   31.03    2.11
 -10  -3  -1   38.50    2.66
  -3  10  -1   37.87    2.15
  -3  10   1   38.68    2.43
 -10  -3   1   40.23    2.65
   3 -10   1   33.05    2.11
  -1  10  -1    6.34    1.12
 -10  -1  -1    6.69    1.34
  -1  10   1    6.83    1.24
   1 -10   1    5.75    1.11
 -10  -1   1    8.19    1.38
 -10  -1   1    7.74    1.25
 -10   1  -1   36.94    2.46
   1  10  -1   33.29    2.18
   1  10   1   35.33    2.32
 -10   1   1   39.49    2.30
  -1 -10   1   34.83    2.33
   3  10  -1    9.58    1.47
  -3 -10  -1   13.42    1.60
 -10   3  -1   14.24    1.80
   3  10   1   15.59    1.86
  -3 -10   1   12.52    1.78
 -10   3   1   15.48    1.75
   5  10  -1    1.81    0.80
  -5 -10  -1    3.19    0.94
 -10   5  -1    3.94    1.00
  -5 -10   1    2.49    0.95
 -10   5   1    1.76    0.77
   5  10   1    2.51    0.92
   7  10  -1    0.86    0.76
  -7 -10  -1    1.03    0.77
  -7 -10   1   -0.26    0.65
 -10   7   1    0.87    0.65
   7  10   1    0.47    0.65
   9  10  -1    1.43    0.96
  -9 -10  -1    3.71    1.32
 -10   9   1    0.93    0.81
  -9 -10   1    1.76    1.04
  11   8  -1   93.73    4.40
 -11  -8  -1   88.23    4.83
 -11  -8   1   87.73    4.78
  -8  11   1   95.83    4.39
 -11  -6  -1   98.43    4.81
  11   6  -1   96.46    4.25
 -11  -6   1   91.29    4.61
  -6  11   1   96.51    4.26
  -4  11  -1   29.08    2.06
  11   4  -1   29.30    2.19
 -11  -4  -1   26.62    2.77
  -4  11   1   31.56    2.35
 -11  -4   1   35.89    2.68
  -2  11  -1  226.34    6.51
 -11  -2  -1  232.89    7.53
  11   2  -1  228.73    6.62
  -2  11   1  230.65    6.93
   2 -11   1  230.85    6.79
 -11  -2   1  233.48    7.25
 -11   0  -1   75.27    3.78
   0  11  -1   68.22    3.27
   0  11   1   78.26    3.66
   0 -11   1   68.99    3.39
 -11   0   1   70.82    3.30
   2  11  -1   73.54    3.50
 -11   2  -1   78.83    3.74
  -2 -11   1   66.32    3.55
 -11   2   1   73.67    3.37
   2  11   1   72.06    3.55
   4  11  -1  270.83    7.92
  -4 -11  -1  281.14    7.90
 -11   4  -1  287.44    8.18
  -4 -11   1  282.66    8.63
 -11   4   1  278.98    7.69
   4  11   1  274.95    7.93
  -6 -11  -1    9.94    1.63
   6  11  -1   11.52    1.81
  -6 -11   1    9.16    1.76
   6  11   1    7.67    1.44
 -11   6   1   10.63    1.63
  -8 -11  -1   38.08    2.98
   8  11  -1   33.97    3.21
 -11   8   1   32.33    2.48
  -8 -11   1   30.44    3.19
   8  11   1   35.46    2.59
 -11  10   1   79.56    4.14
  12   7  -1    2.82    1.13
 -12  -7  -1    4.72    1.49
  -7  12   1    6.08    1.39
 -12  -7   1    5.28    1.48
  12   5  -1   21.57    2.35
 -12  -5  -1   27.55    3.07
  -5  12   1   27.65    2.68
 -12  -5   1   24.89    2.71
  12   3  -1   19.21    2.09
  -3  12  -1   21.23    2.17
 -12  -3  -1   22.98    2.67
 -12  -3   1   23.36    2.62
  -3  12   1   21.50    2.33
  -1  12  -1    3.59    1.11
 -12  -1  -1    3.93    1.27
  -1  12   1    3.29    1.04
   1 -12   1    0.96    0.73
 -12  -1   1    5.36    1.18
   1  12  -1   94.79    4.12
 -12   1  -1   92.95    4.41
  -1 -12   1   92.46    4.21
 -12   1   1   88.72    3.90
   1  12   1   89.31    4.19
 -12   3  -1   19.11    2.29
   3  12  -1   11.11    1.72
 -12   3   1   14.58    1.86
   3  12   1   14.60    2.01
  -3 -12   1   12.47    1.85
   5  12  -1   22.80    2.51
  -5 -12   1   22.30    2.61
   5  12   1   17.71    2.21
 -12   5   1   24.58    2.47
   7  12  -1  118.06    5.21
  -7 -12  -1  112.67    5.15
 -12   7   1  111.96    4.75
   7  12   1  107.78    4.77
  -7 -12   1  119.46    5.72
 -12   9   1   12.10    1.93
  13   6  -1   40.85    2.94
 -13  -6  -1   35.88    3.64
 -13  -6   1   44.19    3.40
  -6  13   1   49.31    3.23
 -13  -4  -1    5.16    1.56
  13   4  -1    6.37    1.44
 -13  -4   1    1.83    1.06
  -4  13   1    2.87    1.13
 -13  -2  -1   10.88    1.96
  13   2  -1   20.03    2.28
  -2  13  -1   16.28    2.06
  -2  13   1   13.45    1.94
 -13   0  -1   -0.57    0.68
   0  13  -1    1.04    0.77
   0  13   1    0.22    0.73
 -13   0   1    0.11    0.71
   0 -13   1    0.93    0.82
 -13   2  -1   11.12    1.86
   2  13  -1    8.49    1.59
  -2 -13   1   10.88    1.78
   2  13   1   10.55    1.77
 -13   2   1   11.36    1.71
   4  13  -1   15.59    2.19
   4  13   1   11.92    1.88
 -13   4   1   13.01    1.81
  -4 -13   1   17.56    2.39
   6  13  -1    2.06    1.08
 -13   6   1    0.40    0.87
   6  13   1    2.57    1.16
  -6 -13   1    1.79    1.14
  14   5  -1   80.42    4.10
 -14  -5   1   72.34    4.42
  14   3  -1   72.87    3.75
  -3  14  -1   70.72    3.76
 -14  -3  -1   66.70    4.26
  -3  14   1   74.62    4.15
 -14  -1  -1   -0.26    0.79
  14   1  -1    0.15    0.83
  -1  14  -1   -0.40    0.75
  -1  14   1   -0.06    0.70
 -14   1  -1   68.64    4.06
   1  14  -1   69.22    3.83
   1  14   1   64.59    3.89
 -14   1   1   73.83    3.81
  -1 -14   1   70.34    3.97
   3  14  -1   34.65    3.26
  -3 -14   1   35.51    2.93
   3  14   1   35.58    2.86
   0   0  -2 1088.09   17.97
   0   0   2 1087.21   16.45
  -1  -1  -2   71.73    2.63
   1  -1  -2   76.01    2.47
  -1   1  -2   72.42    2.75
   1   1   2   77.68    2.10
  -1  -1   2   76.60    2.33
  -1  -1   2   75.66    2.64
   1  -1   2   73.94    1.97
  -1   1   2   73.57    2.36
   0  -2  -2  136.51    3.68
   0   2  -2  128.98    3.21
  -2   0  -2  127.72    3.97
   0   2   2  133.52    3.40
   0  -2   2  135.76    4.00
   2   0   2  134.79    2.79
  -2   0   2  126.83    3.52
  -2   0   2  130.63    3.61
  -2   2  -2    3.91    0.44
   2  -2  -2    4.39    0.60
  -2   2  -2    5.00    0.90
  -2  -2  -2    4.88    0.81
   2   2   2    5.00    0.60
  -2  -2   2    3.60    0.75
  -2   2   2    4.06    0.69
  -2  -2   2    4.55    0.71
   1  -3  -2  175.49    4.17
  -3  -1  -2  176.23    4.98
  -1   3  -2  171.74    3.86
  -3  -1   2  165.45    4.52
   1  -3   2  169.82    4.94
  -1   3   2  176.84    4.44
  -3  -1   2  174.27    4.48
  -1  -3  -2   43.54    1.90
   1   3  -2   43.11    1.77
  -3   1  -2   45.30    2.23
  -3   1   2   45.02    1.70
  -3   1   2   47.80    2.02
   1   3   2   44.80    1.74
  -1  -3   2   40.16    2.08
  -3   3  -2  129.09    4.27
  -3  -3  -2  123.44    3.99
   3   3  -2  126.81    3.78
  -3  -3   2  127.68    4.06
   3   3   2  129.86    3.16
  -3   3   2  128.74    3.84
  -2   4  -2   24.88    1.12
  -4  -2  -2   22.24    1.62
  -4  -2   2   23.90    1.51
  -4  -2   2   26.40    1.57
  -2   4   2   23.22    1.49
   2  -4   2   23.21    1.66
  -4   0  -2  178.66    5.37
   0   4  -2  188.73    4.44
   0  -4  -2  187.11    4.56
   0  -4   2  192.73    5.46
  -4   0   2  182.94    4.90
  -4   0   2  187.42    4.67
   0   4   2  194.35    4.76
   2   4  -2   12.41    1.23
  -2  -4  -2   10.23    1.10
  -4   2  -2   11.31    1.41
  -4   2   2   10.52    1.22
   2   4   2   12.51    0.96
  -2  -4   2   11.04    1.34
   4   4  -2   18.15    1.41
  -4  -4  -2   16.01    1.64
  -4   4  -2   14.18    1.61
   4   4   2   15.61    1.01
  -4   4   2   13.50    1.45
  -4  -4   2   13.31    1.54
  -3   5  -2    9.48    1.34
  -5  -3  -2   12.95    1.55
  -3   5   2   11.44    1.34
  -5  -3   2   11.06    1.36
  -5  -3   2   10.25    1.26
  -1   5  -2   92.99    2.77
  -5  -1  -2   89.25    3.56
  -5  -1   2   87.86    3.04
  -1   5   2   90.42    3.13
   1  -5   2   91.56    3.60
  -5  -1   2   91.98    3.25
  -1  -5  -2   11.81    1.00
   1   5  -2   13.30    1.26
  -5   1  -2   10.67    1.41
  -5   1   2   12.83    0.91
  -5   1   2   11.38    1.31
  -1  -5   2    9.48    1.33
   1   5   2   11.09    1.19
  -3  -5  -2    1.58    0.57
   3   5  -2    3.04    0.75
  -5   3  -2    1.74    0.69
  -3  -5   2    1.07    0.58
   3   5   2    1.80    0.52
  -5   3   2    1.25    0.58
  -5  -5  -2    0.24    0.51
   5   5  -2   -0.58    0.33
  -5   5  -2    0.01    0.44
  -5   5   2    0.84    0.52
  -5  -5   2    1.19    0.60
  -6  -4  -2  150.76    5.13
   6   4  -2  142.15    4.75
  -4   6  -2  154.94    5.20
  -6  -4   2  143.12    5.00
  -4   6   2  142.95    4.71
  -6  -2  -2    6.06    1.15
   2  -6   2    8.94    1.33
  -6  -2   2    6.98    1.06
  -6  -2   2    8.68    1.25
  -2   6   2    6.28    1.01
  -6   0  -2  376.35    9.27
   0   6  -2  363.19    7.86
  -6   0   2  369.85    8.49
   0   6   2  354.40    8.19
  -6   0   2  357.69    8.02
   0  -6   2  359.04    9.15
   2   6  -2  103.32    3.45
  -2  -6  -2   96.33    3.41
  -6   2  -2  109.23    4.11
  -2  -6   2  101.97    3.99
   2   6   2  100.71    3.38
  -6   2   2  101.25    3.67
   4   6  -2   23.55    1.73
  -4  -6  -2   26.17    1.88
  -6   4  -2   24.88    1.94
  -6   4   2   26.60    1.85
  -4  -6   2   21.61    2.20
   4   6   2   22.54    1.50
  -6   6  -2  126.62    4.80
   6   6  -2  133.16    4.74
  -6  -6  -2  134.77    4.96
  -6   6   2  123.73    4.54
  -6  -6   2  131.55    5.10
   7   5  -2   24.39    1.96
  -7  -5  -2   24.13    2.06
  -5   7  -2   22.48    1.93
  -7  -5   2   24.94    2.50
  -5   7   2   25.55    1.95
  -7  -3  -2   64.07    3.31
  -7  -3   2   65.09    3.00
   3  -7   2   63.99    3.19
  -7  -3   2   68.05    3.19
  -3   7   2   67.15    3.04
  -7  -1  -2  153.16    5.24
  -1   7  -2  141.47    4.11
  -1   7   2  142.45    4.58
  -7  -1   2  147.99    4.72
  -7  -1   2  143.20    4.46
   1  -7   2  141.75    5.04
  -7   1  -2   16.77    1.89
   1   7  -2   15.73    1.54
  -1  -7   2   10.81    1.52
   1   7   2   13.23    1.50
  -7   1   2   14.70    1.67
  -7   3  -2  137.08    4.94
   3   7  -2  136.13    4.41
  -3  -7   2  136.99    5.01
  -7   3   2  124.70    4.49
   3   7   2  139.73    4.31
  -5  -7  -2  106.24    4.20
  -7   5  -2  111.25    4.43
   5   7  -2  107.01    4.13
  -7   5   2   99.67    4.03
  -5  -7   2  110.22    4.62
  -7  -7  -2   71.84    3.69
   7   7  -2   68.15    3.48
  -7   7  -2   68.26    3.53
  -7   7   2   70.48    3.45
  -7  -7   2   69.41    3.84
  -6   8  -2   35.11    2.45
  -8  -6  -2   35.33    2.62
   8   6  -2   32.70    2.44
  -6   8   2   31.09    2.31
  -8  -6   2   31.99    2.63
   8   4  -2    0.68    0.57
  -4   8  -2    0.23    0.51
  -8  -4  -2   -0.06    0.56
  -4   8   2   -0.67    0.39
  -8  -4   2   -0.40    0.58
  -8  -2  -2    5.35    1.25
  -8  -2   2    5.15    1.09
  -2   8   2    4.53    1.06
   2  -8   2    4.24    1.05
  -8  -2   2    5.86    1.18
   0   8  -2   18.24    1.73
  -8   0  -2   18.50    2.08
  -8   0   2   19.31    1.95
   0   8   2   17.95    1.83
   0  -8   2   21.31    2.23
   2   8  -2   10.98    1.43
  -8   2  -2    8.05    1.36
  -8   2   2    9.23    1.39
  -2  -8   2   11.13    1.62
   2   8   2   10.42    1.40
   4   8  -2   17.34    1.87
  -4  -8  -2   22.84    1.83
  -8   4  -2   24.35    2.04
  -8   4   2   19.56    2.06
   4   8   2   21.56    2.02
  -4  -8   2   22.30    2.43
  -6  -8  -2    1.40    0.83
   6   8  -2    1.68    0.81
  -8   6  -2    0.50    0.70
  -6  -8   2    0.94    0.81
  -8   6   2    1.33    0.73
  -8  -8  -2    4.47    1.29
  -8   8  -2    3.47    1.15
   8   8  -2    6.65    1.50
  -8   8   2    3.02    1.03
  -8  -8   2    3.41    1.19
   9   7  -2  168.03    6.15
  -7   9  -2  177.25    6.21
  -9  -7  -2  170.65    6.58
  -7   9   2  164.96    6.01
  -9  -7   2  164.83    6.71
   9   5  -2   13.16    1.88
  -9  -5  -2   15.55    2.22
  -5   9  -2   15.01    1.90
  -9  -5   2   11.63    1.88
  -5   9   2    9.82    1.54
  -9  -3  -2  105.98    4.80
   9   3  -2  107.07    4.37
   3  -9   2  113.15    4.63
  -9  -3   2  120.82    4.80
  -3   9   2  109.36    4.38
  -9  -1  -2  196.32    6.69
  -1   9  -2  195.47    5.56
  -1   9   2  200.56    6.14
   1  -9   2  189.15    6.39
  -9  -1   2  185.44    6.02
  -9   1  -2    2.49    0.92
   1   9  -2    2.37    0.79
  -1  -9   2    2.86    0.97
  -9   1   2    2.53    0.87
   1   9   2    3.83    1.05
   3   9  -2   98.08    3.94
  -9   3  -2   96.62    4.38
  -3  -9   2  107.57    4.63
  -9   3   2   99.87    4.16
   3   9   2   98.04    3.97
   5   9  -2   33.89    2.42
  -9   5  -2   31.66    2.46
  -5  -9  -2   32.18    2.31
  -9   5   2   24.65    2.40
  -5  -9   2   35.32    2.74
   5   9   2   29.05    2.15
  -9   7  -2   19.87    2.37
  -7  -9  -2   20.08    2.33
   7   9  -2   18.89    2.30
  -7  -9   2   19.79    2.53
  -9   7   2   21.33    2.32
  -9  -9  -2   78.18    4.34
   9   9  -2   70.74    4.07
  -9  -9   2   87.68    4.87
 -10  -8  -2    0.88    1.00
  10   8  -2    0.29    0.87
  -8  10   2   -0.28    0.69
 -10  -8   2   -0.14    0.84
  -6  10  -2   20.98    2.33
  10   6  -2   23.84    2.53
 -10  -6  -2   23.48    2.78
  -6  10   2   20.77    2.43
 -10  -6   2   20.45    2.60
  10   4  -2   61.79    3.37
  -4  10  -2   60.21    3.36
 -10  -4  -2   63.28    3.84
  -4  10   2   57.65    3.28
 -10  -4   2   53.64    3.44
 -10  -2  -2    0.35    0.73
  -2  10   2   -0.63    0.50
 -10  -2   2    0.39    0.60
   2 -10   2    0.03    0.60
   0  10  -2  138.12    4.75
 -10   0  -2  135.94    5.57
   0  10   2  139.19    5.18
   0 -10   2  137.43    5.46
 -10   0   2  143.15    5.20
   2  10  -2   81.46    3.59
 -10   2  -2   78.80    4.01
  -2 -10   2   73.56    3.94
 -10   2   2   77.10    3.74
   2  10   2   83.51    3.77
 -10   4  -2    0.26    0.70
   4  10  -2    0.56    0.66
   4  10   2    0.60    0.71
  -4 -10   2    0.43    0.71
 -10   4   2    0.16    0.61
   6  10  -2  133.16    5.37
 -10   6  -2  135.56    5.55
  -6 -10   2  138.72    6.01
 -10   6   2  138.03    5.42
   8  10  -2   35.63    3.35
 -10   8  -2   34.96    2.83
  -8 -10  -2   36.97    2.93
  -8 -10   2   37.16    3.20
 -10   8   2   37.14    2.80
 -11  -7  -2   25.45    3.10
  11   7  -2   25.80    2.79
  -7  11   2   29.61    2.93
 -11  -7   2   20.36    2.85
 -11  -5  -2    0.87    0.98
  11   5  -2    1.09    0.84
  -5  11  -2   -0.02    0.65
  -5  11   2    1.52    0.91
 -11  -5   2    2.50    1.21
  11   3  -2    2.50    0.98
 -11  -3  -2    0.04    0.79
   3 -11   2    1.69    0.92
  -3  11   2    1.55    0.84
 -11  -1  -2   10.40    1.85
   1 -11   2   10.34    1.72
 -11  -1   2   13.43    1.92
  -1  11   2   12.39    1.89
 -11   1  -2    8.64    1.69
   1  11  -2    9.27    1.56
   1  11   2    9.61    1.66
 -11   1   2    8.53    1.54
  -1 -11   2   10.71    1.82
   3  11  -2   18.37    2.19
 -11   3  -2   14.48    2.13
  -3 -11   2   13.16    2.06
   3  11   2   12.96    1.85
 -11   3   2   13.21    1.94
   5  11  -2    5.56    1.41
 -11   5  -2    3.78    1.24
 -11   5   2    2.96    1.08
  -5 -11   2    3.06    1.25
   5  11   2    4.16    1.23
   7  11  -2   13.92    2.14
 -11   7  -2   16.19    2.27
 -11   7   2   12.50    1.95
  -7 -11   2   14.89    2.41
 -12  -6   2    6.22    1.74
 -12  -4  -2   43.74    3.43
  12   4  -2   46.69    3.16
  -4  12  -2   40.66    2.92
  -4  12   2   42.26    3.07
 -12  -2  -2    8.21    1.83
  12   2  -2    6.42    1.43
  -2  12   2    5.65    1.45
   2 -12   2    5.69    1.43
 -12   0  -2   40.67    3.20
   0 -12   2   41.51    3.07
   0  12   2   37.56    2.84
 -12   0   2   39.94    2.89
 -12   2  -2   25.82    2.88
   2  12  -2   31.40    2.47
 -12   2   2   37.39    2.79
  -2 -12   2   33.79    3.38
   2  12   2   32.10    2.99
   4  12  -2    0.05    0.76
 -12   4  -2   -0.02    0.83
   4  12   2    0.60    0.82
  -4 -12   2   -0.07    0.80
 -12   4   2    0.75    0.85
 -12   6  -2   13.17    2.10
   3 -13   2   19.67    2.45
 -13  -1  -2   66.67    4.29
   1 -13   2   63.22    3.90
 -13  -1   2   66.36    3.83
  -1  13   2   55.16    3.63
   1  13  -2    0.77    0.84
 -13   1  -2   -0.14    0.90
 -13   1   2    0.11    0.78
   1  13   2    1.88    1.07
  -1 -13   2   -0.01    0.81
 -13   3  -2   35.23    3.48
   3  13  -2   32.23    3.07
  -3 -13   2   31.94    3.31
   3  13   2   28.49    2.86
   1   0  -3   -0.17    0.35
   0   1  -3    0.31    0.47
   0  -1  -3    0.13    0.39
  -1   0  -3   -0.23    0.41
  -1   0   3   -0.29    0.30
  -2  -1  -3   68.55    3.15
  -1   2  -3   63.13    3.15
  -2  -1   3   68.83    2.71
  -1   2   3   71.06    2.73
  -1  -2  -3  122.68    4.26
  -2   1  -3  129.44    4.68
  -2   1   3  130.89    4.05
  -3  -2  -3    4.43    1.00
  -2   3  -3    3.86    1.02
  -3  -2   3    4.39    0.89
  -2   3   3    4.59    0.96
  -3  -2   3    4.92    1.01
   0   3  -3   37.62    2.44
  -3   0  -3   35.43    2.34
  -3   0   3   39.70    2.13
  -3   2  -3    7.38    1.32
  -2  -3  -3    4.85    1.03
   2   3  -3    6.52    1.01
  -2  -3   3    6.11    1.16
  -3   2   3    6.19    1.11
   4   3  -3   21.38    1.68
  -3   4  -3   21.90    2.39
  -4  -3  -3   20.58    2.16
  -4  -3   3   19.62    2.01
  -3   4   3   19.94    1.91
  -4  -1  -3   91.90    4.05
  -1   4  -3  104.66    4.38
  -4  -1   3   97.66    3.63
  -4  -1   3   97.52    3.67
  -1   4   3  101.59    3.58
  -4   1  -3   79.72    3.79
  -4   1   3   83.90    3.41
  -1  -4   3   93.72    3.95
  -4   3  -3    0.14    0.59
   3   4  -3    0.50    0.54
  -3  -4  -3    0.54    0.59
  -3  -4   3    0.17    0.54
  -4   3   3   -0.32    0.42
   5   4  -3   92.36    3.78
  -5  -4  -3   88.11    4.08
  -4   5  -3   96.34    4.48
  -5  -4   3   86.77    3.99
  -4   5   3   91.31    3.83
  -5  -2  -3  206.79    6.73
  -2   5  -3  206.95    6.94
  -5  -2   3  196.38    5.96
  -5  -2   3  213.07    6.20
  -2   5   3  212.08    6.03
  -5   0  -3   33.29    2.43
   0  -5   3   31.27    2.36
   0   5   3   33.07    1.97
  -5   0   3   30.12    2.03
  -5   2  -3  146.82    5.53
  -5   2   3  142.05    4.88
  -2  -5   3  143.95    5.37
  -5   4  -3  245.68    7.86
   4   5  -3  240.76    6.74
  -5   4   3  251.70    7.15
  -4  -5   3  236.03    7.46
  -6  -5  -3   -0.10    0.69
   6   5  -3    0.25    0.60
  -5   6  -3    0.27    0.73
  -6  -5   3    0.83    0.80
  -5   6   3    0.28    0.65
  -3   6  -3    1.12    0.82
  -6  -3  -3    3.77    1.14
   6   3  -3    1.11    0.70
  -6  -3   3    2.09    0.87
  -3   6   3    0.92    0.73
  -6  -1  -3    0.08    0.56
  -1   6   3    0.10    0.50
  -6  -1   3    1.53    0.72
   1  -6   3    0.93    0.68
  -6   1  -3   22.51    2.43
  -1  -6   3   20.27    2.30
  -6   1   3   17.90    1.94
   3   6  -3    2.24    0.78
  -6   3  -3    1.90    0.87
  -6   3   3    2.02    0.82
  -3  -6   3    1.34    0.82
  -5  -6  -3   41.06    2.80
   5   6  -3   39.16    2.56
  -6   5  -3   47.72    3.21
  -5  -6   3   44.07    3.01
  -6   5   3   45.14    2.83
  -7  -6  -3   54.25    3.53
   7   6  -3   53.76    3.20
  -6   7  -3   43.95    3.27
  -6   7   3   50.34    3.15
  -7  -6   3   53.36    3.53
  -7  -4  -3   10.23    1.88
   7   4  -3    7.89    1.41
  -4   7  -3    5.05    1.34
  -7  -4   3    7.48    1.50
  -4   7   3    6.17    1.28
  -7  -2  -3   51.47    3.28
  -2   7  -3   50.95    3.29
  -2   7   3   54.17    2.92
  -7  -2   3   49.15    2.90
  -7   0  -3    3.16    1.12
   0   7   3    5.63    1.14
  -7   0   3    4.32    1.07
   0  -7   3    5.95    1.36
  -7   2  -3   13.98    2.02
  -7   2   3    7.90    1.37
  -2  -7   3   10.91    1.85
   4   7  -3   44.72    2.64
  -7   4  -3   39.69    3.00
  -7   4   3   43.06    2.79
  -4  -7   3   47.28    3.19
  -7   6  -3    1.04    0.95
   6   7  -3    0.35    0.69
  -6  -7   3    0.39    0.84
  -7   6   3    0.02    0.68
  -7   8  -3    0.86    0.92
  -8  -7  -3   -0.14    0.87
   8   7  -3    1.65    1.03
  -8  -7   3    1.43    1.11
  -7   8   3   -0.18    0.74
  -8  -5  -3   93.84    4.82
  -5   8  -3   91.67    4.69
   8   5  -3   88.78    4.21
  -5   8   3   94.09    4.37
  -8  -5   3   84.15    4.45
   8   3  -3   23.57    2.38
  -8  -3  -3   26.23    2.97
  -3   8  -3   19.69    2.49
  -3   8   3   20.47    2.23
  -8  -1  -3   12.75    2.03
  -1   8   3    6.44    1.32
   1  -8   3   10.35    1.81
  -8  -1   3   14.52    1.92
  -8   1  -3   71.95    4.03
  -1  -8   3   71.05    4.02
  -8   1   3   63.56    3.41
  -8   3  -3    3.09    1.15
  -3  -8   3    3.36    1.19
  -8   3   3    1.87    0.86
   5   8  -3   73.30    3.65
  -8   5  -3   56.78    3.74
  -8   5   3   68.91    3.75
  -5  -8   3   67.48    4.10
  -8   7  -3   37.07    3.61
   7   8  -3   29.11    3.00
  -8   7   3   25.21    2.71
  -7  -8   3   34.13    3.56
  -9  -6  -3    0.35    1.01
  -6   9  -3    0.29    0.82
   9   6  -3   -0.35    0.72
  -9  -6   3   -0.46    0.92
  -6   9   3    0.02    0.77
  -9  -4  -3   14.06    2.26
  -4   9  -3   13.08    2.06
   9   4  -3   17.02    2.25
  -4   9   3   13.01    1.91
  -9  -2  -3   17.03    2.43
   2  -9   3   13.17    2.11
  -2   9   3   16.69    2.14
  -9  -2   3   14.27    1.94
  -9   0  -3    8.34    1.76
   0  -9   3    8.52    1.76
  -9   0   3    9.59    1.67
   0   9   3    8.41    1.53
  -9   2  -3   25.91    2.86
  -9   2   3   24.76    2.55
  -2  -9   3   28.55    3.07
   4   9  -3   27.81    2.66
  -9   4  -3   30.72    3.13
  -9   4   3   28.65    2.83
  -4  -9   3   28.39    3.09
   6   9  -3    0.88    0.93
  -9   6  -3    0.57    0.97
  -6  -9   3   -0.46    0.84
  10   3  -3   25.87    2.70
  -3  10  -3   28.60    3.08
 -10  -3  -3   22.92    2.92
  -3  10   3   25.48    2.76
 -10  -1  -3    4.32    1.43
   1 -10   3    5.37    1.48
  -1  10   3    4.81    1.33
 -10  -1   3    7.54    1.56
 -10   1  -3   20.01    2.65
  -1 -10   3   16.69    2.42
 -10   3  -3    8.20    1.85
  -3 -10   3    9.94    1.92
 -10   3   3    8.26    1.65
   5  10  -3    2.55    1.14
  -2  11   3  127.43    5.51
   0  11   3   44.47    3.15
  -1   1  -4   14.43    1.93
   0   2  -4   29.99    2.49
  -2   0  -4   31.87    2.52
  -2   2  -4    3.99    1.22
  -3  -1  -4   70.98    3.83
  -1   3  -4   67.77    3.91
  -3   1  -4   19.84    2.38
   1   3  -4   23.40    2.64
  -3   3  -4   52.75    3.54
  -2   4  -4    9.95    1.84
  -4   0  -4   52.37    3.40
   0   4  -4   53.32    3.49
   2   4  -4   10.49    1.81
  -4   2  -4   10.26    1.85
  -4   4  -4    9.67    1.94
  -3   5  -4   13.11    2.27
  -5  -1  -4   22.19    2.73
  -1   5  -4   19.01    2.54
  -5   1  -4    7.06    1.68
   1   5  -4    4.99    1.43
  -5   3  -4    0.31    0.92
  -3  -5   4   -0.11    0.84
  -6  -2  -4    0.99    1.01
  -6   0  -4  144.57    6.23
   0   6  -4  142.43    6.19
  -6   2   4   33.93    2.65
  -7  -1   4   48.72    3.21
   0   0   0    0.00    0.00
;
_shelx_hkl_checksum              20855
loop_
_space_group_symop_operation_xyz
'x, y, z'
'-x, -y, z'
'-y, x, z'
'y, -x, z'
'x+1/2, y+1/2, z+1/2'
'-x+1/2, -y+1/2, z+1/2'
'-y+1/2, x+1/2, z+1/2'
'y+1/2, -x+1/2, z+1/2'
'-x, -y, -z'
'x, y, -z'
'y, -x, -z'
'-y, x, -z'
'-x+1/2, -y+1/2, -z+1/2'
'x+1/2, y+1/2, -z+1/2'
'y+1/2, -x+1/2, -z+1/2'
'-y+1/2, x+1/2, -z+1/2'
loop_
_atom_site_label
_atom_site_type_symbol
_atom_site_fract_x
_atom_site_fract_y
_atom_site_fract_z
_atom_site_U_iso_or_equiv
_atom_site_adp_type
_atom_site_occupancy
_atom_site_site_symmetry_order
_atom_site_calc_flag
_atom_site_refinement_flags_posn
_atom_site_refinement_flags_adp
_atom_site_refinement_flags_occupancy
_atom_site_disorder_assembly
_atom_site_disorder_group
K1 K 0.5000 0.5000 0.225(3) 0.0212(17) Uani 0.239(7) 4 d S TU P . .
K2 K 0.5000 0.5000 0.0000 0.026(2) Uani 0.260(13) 8 d S TU P . .
K3 K 0.5000 0.5000 0.5000 0.026(2) Uani 0.018(6) 8 d S T P . .
Ti1 Ti 0.16687(4) 0.35033(4) 0.0000 0.00581(12) Uani 0.8110(19) 2 d S T P . .
Sc1 Sc 0.16687(4) 0.35033(4) 0.0000 0.00581(12) Uani 0.1890(19) 2 d S T P . .
O1 O 0.16572(16) 0.54058(17) 0.0000 0.0092(4) Uani 1 2 d S T P . .
O2 O 0.29399(16) 0.34420(16) 0.5000 0.0062(3) Uani 1 2 d S T P . .
loop_
_atom_site_aniso_label
_atom_site_aniso_U_11
_atom_site_aniso_U_22
_atom_site_aniso_U_33
_atom_site_aniso_U_23
_atom_site_aniso_U_13
_atom_site_aniso_U_12
K1 0.0109(12) 0.0109(12) 0.042(5) 0.000 0.000 0.000
K2 0.0185(19) 0.0185(19) 0.040(6) 0.000 0.000 0.000
K3 0.0185(19) 0.0185(19) 0.040(6) 0.000 0.000 0.000
Ti1 0.0078(2) 0.00534(19) 0.0042(2) 0.000 0.000 0.00099(14)
Sc1 0.0078(2) 0.00534(19) 0.0042(2) 0.000 0.000 0.00099(14)
O1 0.0080(8) 0.0073(8) 0.0121(9) 0.000 0.000 -0.0001(6)
O2 0.0061(7) 0.0054(7) 0.0072(8) 0.000 0.000 -0.0002(6)
loop_
_atom_type_symbol
_atom_type_description
_atom_type_scat_dispersion_real
_atom_type_scat_dispersion_imag
_atom_type_scat_source
O O 0.0106 0.0060 'International Tables Vol C Tables 4.2.6.8 and 6.1.1.4'
K K 0.2009 0.2494 'International Tables Vol C Tables 4.2.6.8 and 6.1.1.4'
Ti Ti 0.2776 0.4457 'International Tables Vol C Tables 4.2.6.8 and 6.1.1.4'
Sc Sc 0.2519 0.3716 'International Tables Vol C Tables 4.2.6.8 and 6.1.1.4'
loop_
_geom_angle_atom_site_label_1
_geom_angle_atom_site_label_2
_geom_angle_atom_site_label_3
_geom_angle
_geom_angle_site_symmetry_1
_geom_angle_site_symmetry_3
K2 K1 K3 180.0 . .
K2 K1 K1 0.000(2) . 9_665
K3 K1 K1 180.0 . 9_665
K2 K1 K1 180.0 . 9_666
K3 K1 K1 0.000(2) . 9_666
K1 K1 K1 180.0 9_665 9_666
K2 K1 K3 0.0 . 1_554
K3 K1 K3 180.0 . 1_554
K1 K1 K3 0.000(2) 9_665 1_554
K1 K1 K3 180.0 9_666 1_554
K2 K1 K2 180.0 . 1_556
K3 K1 K2 0.0 . 1_556
K1 K1 K2 180.0 9_665 1_556
K1 K1 K2 0.000(3) 9_666 1_556
K3 K1 K2 180.0 1_554 1_556
K2 K1 O2 107.38(17) . .
K3 K1 O2 72.62(17) . .
K1 K1 O2 107.38(18) 9_665 .
K1 K1 O2 72.62(17) 9_666 .
K3 K1 O2 107.38(17) 1_554 .
K2 K1 O2 72.62(17) 1_556 .
K2 K1 O2 107.38(17) . 9_666
K3 K1 O2 72.62(17) . 9_666
K1 K1 O2 107.38(17) 9_665 9_666
K1 K1 O2 72.62(18) 9_666 9_666
K3 K1 O2 107.38(17) 1_554 9_666
K2 K1 O2 72.62(17) 1_556 9_666
O2 K1 O2 145.2(3) . 9_666
K2 K1 O2 107.38(17) . 11_566
K3 K1 O2 72.62(17) . 11_566
K1 K1 O2 107.38(17) 9_665 11_566
K1 K1 O2 72.62(17) 9_666 11_566
K3 K1 O2 107.38(17) 1_554 11_566
K2 K1 O2 72.62(17) 1_556 11_566
O2 K1 O2 84.88(10) . 11_566
O2 K1 O2 84.88(10) 9_666 11_566
K2 K1 O2 107.38(17) . 3_655
K3 K1 O2 72.62(17) . 3_655
K1 K1 O2 107.38(17) 9_665 3_655
K1 K1 O2 72.62(17) 9_666 3_655
K3 K1 O2 107.38(17) 1_554 3_655
K2 K1 O2 72.62(17) 1_556 3_655
O2 K1 O2 84.88(10) . 3_655
O2 K1 O2 84.88(10) 9_666 3_655
O2 K1 O2 145.2(3) 11_566 3_655
K2 K1 K1 0.000(4) . 1_554
K3 K1 K1 180.0 . 1_554
K1 K1 K1 0.000(1) 9_665 1_554
K1 K1 K1 180.0 9_666 1_554
K3 K1 K1 0.000(1) 1_554 1_554
K2 K1 K1 180.0 1_556 1_554
O2 K1 K1 107.38(17) . 1_554
O2 K1 K1 107.38(17) 9_666 1_554
O2 K1 K1 107.38(17) 11_566 1_554
O2 K1 K1 107.38(17) 3_655 1_554
K2 K1 K1 180.0 . 1_556
K3 K1 K1 0.000(3) . 1_556
K1 K1 K1 180.0 9_665 1_556
K1 K1 K1 0.000(2) 9_666 1_556
K3 K1 K1 180.0 1_554 1_556
K2 K1 K1 0.0 1_556 1_556
O2 K1 K1 72.62(17) . 1_556
O2 K1 K1 72.62(17) 9_666 1_556
O2 K1 K1 72.62(17) 11_566 1_556
O2 K1 K1 72.62(17) 3_655 1_556
K1 K1 K1 180.0 1_554 1_556
K1 K2 K1 180.0 . 9_665
K1 K2 K3 180.0 . 1_554
K1 K2 K3 0.000(4) 9_665 1_554
K1 K2 K3 0.000(5) . .
K1 K2 K3 180.0 9_665 .
K3 K2 K3 180.0 1_554 .
K1 K2 K1 0.000(2) . 9_666
K1 K2 K1 180.000(10) 9_665 9_666
K3 K2 K1 180.0 1_554 9_666
K3 K2 K1 0.000(1) . 9_666
K1 K2 K1 180.000(10) . 1_554
K1 K2 K1 0.000(1) 9_665 1_554
K3 K2 K1 0.000(1) 1_554 1_554
K3 K2 K1 180.0 . 1_554
K1 K2 K1 180.0 9_666 1_554
K1 K2 K2 0.000(5) . 1_556
K1 K2 K2 180.0 9_665 1_556
K3 K2 K2 180.0 1_554 1_556
K3 K2 K2 0.0 . 1_556
K1 K2 K2 0.000(2) 9_666 1_556
K1 K2 K2 180.0 1_554 1_556
K1 K2 K2 180.0 . 1_554
K1 K2 K2 0.000(4) 9_665 1_554
K3 K2 K2 0.0 1_554 1_554
K3 K2 K2 180.0 . 1_554
K1 K2 K2 180.0 9_666 1_554
K1 K2 K2 0.000(1) 1_554 1_554
K2 K2 K2 180.0 1_556 1_554
K1 K2 O2 60.388(18) . .
K1 K2 O2 119.612(18) 9_665 .
K3 K2 O2 119.612(17) 1_554 .
K3 K2 O2 60.388(17) . .
K1 K2 O2 60.388(17) 9_666 .
K1 K2 O2 119.612(17) 1_554 .
K2 K2 O2 60.388(17) 1_556 .
K2 K2 O2 119.612(17) 1_554 .
K1 K2 O2 60.388(18) . 9_666
K1 K2 O2 119.612(18) 9_665 9_666
K3 K2 O2 119.612(17) 1_554 9_666
K3 K2 O2 60.388(17) . 9_666
K1 K2 O2 60.388(17) 9_666 9_666
K1 K2 O2 119.612(17) 1_554 9_666
K2 K2 O2 60.388(17) 1_556 9_666
K2 K2 O2 119.612(17) 1_554 9_666
O2 K2 O2 120.78(3) . 9_666
K1 K2 O2 119.612(18) . 1_554
K1 K2 O2 60.388(18) 9_665 1_554
K3 K2 O2 60.388(17) 1_554 1_554
K3 K2 O2 119.612(17) . 1_554
K1 K2 O2 119.612(17) 9_666 1_554
K1 K2 O2 60.388(17) 1_554 1_554
K2 K2 O2 119.612(17) 1_556 1_554
K2 K2 O2 60.388(17) 1_554 1_554
O2 K2 O2 59.22(3) . 1_554
O2 K2 O2 180.0 9_666 1_554
K1 K2 O2 60.388(17) . 11_566
K1 K2 O2 119.612(17) 9_665 11_566
K3 K2 O2 119.612(17) 1_554 11_566
K3 K2 O2 60.388(17) . 11_566
K1 K2 O2 60.388(17) 9_666 11_566
K1 K2 O2 119.612(18) 1_554 11_566
K2 K2 O2 60.388(17) 1_556 11_566
K2 K2 O2 119.612(17) 1_554 11_566
O2 K2 O2 75.867(15) . 11_566
O2 K2 O2 75.867(15) 9_666 11_566
O2 K2 O2 104.133(15) 1_554 11_566
K1 K3 K1 180.0 9_666 .
K1 K3 K2 0.000(5) 9_666 1_556
K1 K3 K2 180.0 . 1_556
K1 K3 K2 180.0 9_666 .
K1 K3 K2 0.000(4) . .
K2 K3 K2 180.0 1_556 .
K1 K3 K1 180.000(12) 9_666 9_665
K1 K3 K1 0.000(1) . 9_665
K2 K3 K1 180.0 1_556 9_665
K2 K3 K1 0.000(1) . 9_665
K1 K3 K1 0.000(2) 9_666 1_556
K1 K3 K1 180.000(10) . 1_556
K2 K3 K1 0.000(1) 1_556 1_556
K2 K3 K1 180.0 . 1_556
K1 K3 K1 180.0 9_665 1_556
K1 K3 O2 90.000(4) 9_666 .
K1 K3 O2 90.000(4) . .
K2 K3 O2 90.0 1_556 .
K2 K3 O2 90.0 . .
K1 K3 O2 90.000(1) 9_665 .
K1 K3 O2 90.000(2) 1_556 .
K1 K3 O2 90.000(4) 9_666 9_666
K1 K3 O2 90.000(4) . 9_666
K2 K3 O2 90.0 1_556 9_666
K2 K3 O2 90.0 . 9_666
K1 K3 O2 90.000(1) 9_665 9_666
K1 K3 O2 90.000(2) 1_556 9_666
O2 K3 O2 180.0 . 9_666
K1 K3 O2 90.000(2) 9_666 11_566
K1 K3 O2 90.000(2) . 11_566
K2 K3 O2 90.0 1_556 11_566
K2 K3 O2 90.0 . 11_566
K1 K3 O2 90.000(1) 9_665 11_566
K1 K3 O2 90.000(1) 1_556 11_566
O2 K3 O2 90.0 . 11_566
O2 K3 O2 90.0 9_666 11_566
K1 K3 O2 90.000(2) 9_666 3_655
K1 K3 O2 90.000(2) . 3_655
K2 K3 O2 90.0 1_556 3_655
K2 K3 O2 90.0 . 3_655
K1 K3 O2 90.000(1) 9_665 3_655
K1 K3 O2 90.000(1) 1_556 3_655
O2 K3 O2 90.000(1) . 3_655
O2 K3 O2 90.0 9_666 3_655
O2 K3 O2 180.0 11_566 3_655
K1 K3 K3 0.000(5) 9_666 1_556
K1 K3 K3 180.0 . 1_556
K2 K3 K3 0.0 1_556 1_556
K2 K3 K3 180.0 . 1_556
K1 K3 K3 180.0 9_665 1_556
K1 K3 K3 0.000(3) 1_556 1_556
O2 K3 K3 90.0 . 1_556
O2 K3 K3 90.0 9_666 1_556
O2 K3 K3 90.0 11_566 1_556
O2 K3 K3 90.0 3_655 1_556
K1 K3 K3 180.0 9_666 1_554
K1 K3 K3 0.000(4) . 1_554
K2 K3 K3 180.0 1_556 1_554
K2 K3 K3 0.0 . 1_554
K1 K3 K3 0.000(1) 9_665 1_554
K1 K3 K3 180.0 1_556 1_554
O2 K3 K3 90.0 . 1_554
O2 K3 K3 90.0 9_666 1_554
O2 K3 K3 90.0 11_566 1_554
O2 K3 K3 90.0 3_655 1_554
K3 K3 K3 180.0 1_556 1_554
O1 Ti1 O2 92.03(6) . .
O1 Ti1 O2 92.03(6) . 1_554
O2 Ti1 O2 98.15(8) . 1_554
O1 Ti1 O1 94.51(8) . 15_454
O2 Ti1 O1 173.45(7) . 15_454
O2 Ti1 O1 81.48(6) 1_554 15_454
O1 Ti1 O1 94.51(8) . 15_455
O2 Ti1 O1 81.48(6) . 15_455
O2 Ti1 O1 173.45(7) 1_554 15_455
O1 Ti1 O1 98.14(8) 15_454 15_455
O1 Ti1 O2 168.97(7) . 13
O2 Ti1 O2 80.80(6) . 13
O2 Ti1 O2 80.79(6) 1_554 13
O1 Ti1 O2 92.71(6) 15_454 13
O1 Ti1 O2 92.71(6) 15_455 13
O1 Ti1 Sc1 90.0 . 1_556
O2 Ti1 Sc1 40.92(4) . 1_556
O2 Ti1 Sc1 139.08(4) 1_554 1_556
O1 Ti1 Sc1 139.07(4) 15_454 1_556
O1 Ti1 Sc1 40.93(4) 15_455 1_556
O2 Ti1 Sc1 90.0 13 1_556
O1 Ti1 Sc1 90.0 . 1_554
O2 Ti1 Sc1 139.08(4) . 1_554
O2 Ti1 Sc1 40.92(4) 1_554 1_554
O1 Ti1 Sc1 40.93(4) 15_454 1_554
O1 Ti1 Sc1 139.07(4) 15_455 1_554
O2 Ti1 Sc1 90.0 13 1_554
Sc1 Ti1 Sc1 180.0 1_556 1_554
O1 Ti1 Ti1 90.0 . 1_556
O2 Ti1 Ti1 40.92(4) . 1_556
O2 Ti1 Ti1 139.08(4) 1_554 1_556
O1 Ti1 Ti1 139.07(4) 15_454 1_556
O1 Ti1 Ti1 40.93(4) 15_455 1_556
O2 Ti1 Ti1 90.0 13 1_556
Sc1 Ti1 Ti1 0.00(2) 1_556 1_556
Sc1 Ti1 Ti1 180.0 1_554 1_556
O1 Ti1 Ti1 90.0 . 1_554
O2 Ti1 Ti1 139.08(4) . 1_554
O2 Ti1 Ti1 40.92(4) 1_554 1_554
O1 Ti1 Ti1 40.93(4) 15_454 1_554
O1 Ti1 Ti1 139.07(4) 15_455 1_554
O2 Ti1 Ti1 90.0 13 1_554
Sc1 Ti1 Ti1 180.0 1_556 1_554
Sc1 Ti1 Ti1 0.000(16) 1_554 1_554
Ti1 Ti1 Ti1 180.0 1_556 1_554
O1 Ti1 Sc1 132.39(4) . 13_554
O2 Ti1 Sc1 89.20(5) . 13_554
O2 Ti1 Sc1 40.91(5) 1_554 13_554
O1 Ti1 Sc1 86.28(5) 15_454 13_554
O1 Ti1 Sc1 132.59(5) 15_455 13_554
O2 Ti1 Sc1 39.88(3) 13 13_554
Sc1 Ti1 Sc1 119.395(11) 1_556 13_554
Sc1 Ti1 Sc1 60.605(11) 1_554 13_554
Ti1 Ti1 Sc1 119.395(11) 1_556 13_554
Ti1 Ti1 Sc1 60.605(11) 1_554 13_554
O1 Ti1 Ti1 132.39(4) . 13_554
O2 Ti1 Ti1 89.20(5) . 13_554
O2 Ti1 Ti1 40.91(5) 1_554 13_554
O1 Ti1 Ti1 86.28(5) 15_454 13_554
O1 Ti1 Ti1 132.59(5) 15_455 13_554
O2 Ti1 Ti1 39.88(3) 13 13_554
Sc1 Ti1 Ti1 119.395(11) 1_556 13_554
Sc1 Ti1 Ti1 60.605(11) 1_554 13_554
Ti1 Ti1 Ti1 119.395(11) 1_556 13_554
Ti1 Ti1 Ti1 60.605(11) 1_554 13_554
Sc1 Ti1 Ti1 0.000(12) 13_554 13_554
Ti1 O1 Sc1 130.57(4) . 7
Ti1 O1 Ti1 130.57(4) . 7
Sc1 O1 Ti1 0.00(2) 7 7
Ti1 O1 Ti1 130.57(4) . 7_554
Sc1 O1 Ti1 98.14(8) 7 7_554
Ti1 O1 Ti1 98.14(8) 7 7_554
Ti1 O1 Sc1 130.57(4) . 7_554
Sc1 O1 Sc1 98.14(8) 7 7_554
Ti1 O1 Sc1 98.14(8) 7 7_554
Ti1 O1 Sc1 0.00(3) 7_554 7_554
Sc1 O2 Ti1 0.00(3) 1_556 1_556
Sc1 O2 Ti1 98.15(8) 1_556 .
Ti1 O2 Ti1 98.15(8) 1_556 .
Sc1 O2 Sc1 99.20(6) 1_556 13
Ti1 O2 Sc1 99.20(6) 1_556 13
Ti1 O2 Sc1 99.20(6) . 13
Sc1 O2 Ti1 99.20(6) 1_556 13
Ti1 O2 Ti1 99.20(6) 1_556 13
Ti1 O2 Ti1 99.20(6) . 13
Sc1 O2 Ti1 0.000(5) 13 13
Sc1 O2 K3 120.19(5) 1_556 .
Ti1 O2 K3 120.19(5) 1_556 .
Ti1 O2 K3 120.19(5) . .
Sc1 O2 K3 115.72(7) 13 .
Ti1 O2 K3 115.72(7) 13 .
Sc1 O2 K1 104.73(16) 1_556 9_666
Ti1 O2 K1 104.73(16) 1_556 9_666
Ti1 O2 K1 134.88(15) . 9_666
Sc1 O2 K1 114.47(7) 13 9_666
Ti1 O2 K1 114.47(7) 13 9_666
K3 O2 K1 17.38(17) . 9_666
Sc1 O2 K1 134.88(15) 1_556 .
Ti1 O2 K1 134.88(15) 1_556 .
Ti1 O2 K1 104.73(16) . .
Sc1 O2 K1 114.47(7) 13 .
Ti1 O2 K1 114.47(7) 13 .
K3 O2 K1 17.38(17) . .
K1 O2 K1 34.8(3) 9_666 .
Sc1 O2 K2 93.66(3) 1_556 1_556
Ti1 O2 K2 93.66(3) 1_556 1_556
Ti1 O2 K2 144.15(7) . 1_556
Sc1 O2 K2 112.17(6) 13 1_556
Ti1 O2 K2 112.17(6) 13 1_556
K3 O2 K2 29.612(17) . 1_556
K1 O2 K2 12.23(17) 9_666 1_556
K1 O2 K2 46.99(17) . 1_556
Sc1 O2 K2 144.15(7) 1_556 .
Ti1 O2 K2 144.15(7) 1_556 .
Ti1 O2 K2 93.66(3) . .
Sc1 O2 K2 112.17(6) 13 .
Ti1 O2 K2 112.17(6) 13 .
K3 O2 K2 29.612(17) . .
K1 O2 K2 46.99(18) 9_666 .
K1 O2 K2 12.23(17) . .
K2 O2 K2 59.23(3) 1_556 .
Sc1 O2 K1 84.70(11) 1_556 1_556
Ti1 O2 K1 84.70(11) 1_556 1_556
Ti1 O2 K1 150.29(9) . 1_556
Sc1 O2 K1 109.57(6) 13 1_556
Ti1 O2 K1 109.57(6) 13 1_556
K3 O2 K1 39.48(12) . 1_556
K1 O2 K1 22.1(3) 9_666 1_556
K1 O2 K1 56.86(7) . 1_556
K2 O2 K1 9.87(11) 1_556 1_556
K2 O2 K1 69.09(12) . 1_556
loop_
_geom_bond_atom_site_label_1
_geom_bond_atom_site_label_2
_geom_bond_distance
_geom_bond_site_symmetry_2
K1 K2 0.676(9) .
K1 K3 0.828(9) .
K1 K1 1.352(18) 9_665
K1 K1 1.656(18) 9_666
K1 K3 2.180(9) 1_554
K1 K2 2.332(9) 1_556
K1 O2 2.772(3) .
K1 O2 2.772(3) 9_666
K1 O2 2.772(3) 11_566
K1 O2 2.772(3) 3_655
K1 K1 3.0077(7) 1_554
K1 K1 3.0077(7) 1_556
K2 K1 0.676(9) 9_665
K2 K3 1.5038(4) 1_554
K2 K3 1.5038(4) .
K2 K1 2.332(9) 9_666
K2 K1 2.332(9) 1_554
K2 K2 3.0077(7) 1_556
K2 K2 3.0077(7) 1_554
K2 O2 3.0434(15) .
K2 O2 3.0434(15) 9_666
K2 O2 3.0434(15) 1_554
K2 O2 3.0434(15) 11_566
K3 K1 0.828(9) 9_666
K3 K2 1.5038(4) 1_556
K3 K1 2.180(9) 9_665
K3 K1 2.180(9) 1_556
K3 O2 2.6459(17) .
K3 O2 2.6459(18) 9_666
K3 O2 2.6459(17) 11_566
K3 O2 2.6459(17) 3_655
K3 K3 3.0077(7) 1_556
K3 K3 3.0077(7) 1_554
Ti1 O1 1.9490(18) .
Ti1 O2 1.9903(12) .
Ti1 O2 1.9903(12) 1_554
Ti1 O1 1.9905(12) 15_454
Ti1 O1 1.9905(12) 15_455
Ti1 O2 2.0327(17) 13
Ti1 Sc1 3.0077(7) 1_556
Ti1 Sc1 3.0077(7) 1_554
Ti1 Ti1 3.0077(7) 1_556
Ti1 Ti1 3.0077(7) 1_554
Ti1 Sc1 3.0639(9) 13_554
Ti1 Ti1 3.0639(9) 13_554
O1 Sc1 1.9905(12) 7
O1 Ti1 1.9905(12) 7
O1 Ti1 1.9905(12) 7_554
O1 Sc1 1.9905(12) 7_554
O2 Sc1 1.9903(12) 1_556
O2 Ti1 1.9903(12) 1_556
O2 Sc1 2.0327(17) 13
O2 Ti1 2.0327(17) 13
O2 K1 2.772(3) 9_666
O2 K2 3.0434(15) 1_556
O2 K1 3.428(6) 1_556
