#------------------------------------------------------------------------------
#$Date: 2021-05-10 10:20:27 +0300 (Mon, 10 May 2021) $
#$Revision: 265064 $
#$URL: file:///home/coder/svn-repositories/cod/cif/1/56/24/1562445.cif $
#------------------------------------------------------------------------------
#
# This file is available in the Crystallography Open Database (COD),
# http://www.crystallography.net/
#
# All data on this site have been placed in the public domain by the
# contributors.
#
data_1562445
loop_
_publ_author_name
'Sun, Li-Zhi'
'Sun, Wei'
'Ren, Wei-Jian'
'Zhang, Jia-Ying'
'Huang, Ya-Xi'
'Sun, Zhi-Mei'
'Pan, Yuanming'
'Mi, Jin-Xiao'
_publ_section_title
;
 Synthesis and characterization of novel barium iron phosphates: Insight
 into new structure types tailored by hydrogen atoms
;
_journal_name_full               'Journal of Solid State Chemistry'
_journal_page_first              48
_journal_page_last               57
_journal_paper_doi               10.1016/j.jssc.2014.01.010
_journal_volume                  212
_journal_year                    2014
_chemical_formula_sum            'Ba2 Fe H O14 P4'
_chemical_formula_weight         679.42
_space_group_crystal_system      triclinic
_space_group_IT_number           2
_space_group_name_Hall           '-P 1'
_space_group_name_H-M_alt        'P -1'
_atom_sites_solution_hydrogens   difmap
_atom_sites_solution_primary     direct
_atom_sites_solution_secondary   difmap
_cell_angle_alpha                108.328(3)
_cell_angle_beta                 97.394(2)
_cell_angle_gamma                105.184(2)
_cell_formula_units_Z            1
_cell_length_a                   4.8270(9)
_cell_length_b                   7.5411(13)
_cell_length_c                   8.6502(15)
_cell_measurement_reflns_used    2274
_cell_measurement_temperature    173(2)
_cell_measurement_theta_max      28.129
_cell_measurement_theta_min      2.549
_cell_volume                     280.71(9)
_computing_cell_refinement       'SAINT (Bruker, 2001)'
_computing_data_collection       'SMART (Bruker, 2001)'
_computing_data_reduction        'SAINT (Bruker, 2001)'
_computing_molecular_graphics
'DIAMOND (Brandenburg, 2011) & ATOMS (Dowty, 2004)'
_computing_publication_material  'SHELXL-2013 (Sheldrick, 2013)'
_computing_structure_refinement  'SHELXL-2013 (Sheldrick, 2013)'
_computing_structure_solution    'SHELXL-2013 (Sheldrick, 2013)'
_diffrn_ambient_temperature      173(2)
_diffrn_measured_fraction_theta_full 0.965
_diffrn_measured_fraction_theta_max 0.889
_diffrn_measurement_device_type
'Bruker SMART APEX CCD area-detector diffractometer'
_diffrn_measurement_method
'1800 images,\f = 0, 90, 180\%, \c = 54.74\%, \D\w=0.3\%, Exp time: 15 s.'
_diffrn_radiation_type           MoK\a
_diffrn_radiation_wavelength     0.71073
_diffrn_reflns_av_R_equivalents  0.0268
_diffrn_reflns_av_unetI/netI     0.0387
_diffrn_reflns_Laue_measured_fraction_full 0.965
_diffrn_reflns_Laue_measured_fraction_max 0.889
_diffrn_reflns_limit_h_max       6
_diffrn_reflns_limit_h_min       -6
_diffrn_reflns_limit_k_max       9
_diffrn_reflns_limit_k_min       -9
_diffrn_reflns_limit_l_max       11
_diffrn_reflns_limit_l_min       -11
_diffrn_reflns_number            2274
_diffrn_reflns_point_group_measured_fraction_full 0.965
_diffrn_reflns_point_group_measured_fraction_max 0.889
_diffrn_reflns_theta_full        25.242
_diffrn_reflns_theta_max         28.129
_diffrn_reflns_theta_min         2.549
_diffrn_source                   'fine-focus sealed tube'
_exptl_absorpt_coefficient_mu    8.865
_exptl_absorpt_correction_T_max  0.901
_exptl_absorpt_correction_T_min  0.773
_exptl_absorpt_correction_type   multi-scan
_exptl_absorpt_process_details   'SADABS (Bruker, 2001)'
_exptl_crystal_colour            'light pink'
_exptl_crystal_density_diffrn    4.019
_exptl_crystal_description       prism
_exptl_crystal_F_000             311
_exptl_crystal_size_max          0.200
_exptl_crystal_size_mid          0.140
_exptl_crystal_size_min          0.080
_refine_diff_density_max         1.075
_refine_diff_density_min         -1.174
_refine_diff_density_rms         0.262
_refine_ls_extinction_coef       .
_refine_ls_extinction_method     none
_refine_ls_goodness_of_fit_ref   1.000
_refine_ls_hydrogen_treatment    noref
_refine_ls_matrix_type           full
_refine_ls_number_parameters     97
_refine_ls_number_reflns         1222
_refine_ls_number_restraints     0
_refine_ls_restrained_S_all      1.000
_refine_ls_R_factor_all          0.0276
_refine_ls_R_factor_gt           0.0270
_refine_ls_shift/su_max          0.000
_refine_ls_shift/su_mean         0.000
_refine_ls_structure_factor_coef Fsqd
_refine_ls_weighting_details
;
 w=1/[\s^2^(Fo^2^)+(0.0544P)^2^+0.9629P]
 where P=(Fo^2^+2Fc^2^)/3
;
_refine_ls_weighting_scheme      calc
_refine_ls_wR_factor_gt          0.0790
_refine_ls_wR_factor_ref         0.0799
_reflns_Friedel_coverage         0.000
_reflns_Friedel_fraction_full    .
_reflns_Friedel_fraction_max     .
_reflns_number_gt                1200
_reflns_number_total             1222
_reflns_threshold_expression     'I > 2\s(I)'
_cod_data_source_file            JSSC-2014-212-48.cif
_cod_data_source_block           mic
_cod_database_code               1562445
_shelx_space_group_comment
;
The symmetry employed for this shelxl refinement is uniquely defined
by the following loop, which should always be used as a source of
symmetry information in preference to the above space-group names.
They are only intended as comments.
;
_shelx_estimated_absorpt_t_min   0.270
_shelx_estimated_absorpt_t_max   0.537
_shelxl_version_number           2013-2
_shelx_res_file
;
TITL sad in P-1, Ba2FeH(P2O7)2
CELL 0.71073   4.8270    7.5411    8.6502   108.328    97.394   105.184
ZERR    1.00   0.0009    0.0013    0.0015     0.003     0.002     0.002
LATT 1
SFAC O P BA Fe H
UNIT 14 4 2  1 1

SIZE 0.08 0.14 0.20
L.S. 10
BOND $H
FMAP 2
PLAN 20
HTAB
EQIV $1 -x, -y+1, -z
EQIV $2 -x+1, -y+1, -z
HTAB O2 O4_$1
HTAB O2 O5_$1
HTAB O2 O7_$2

TEMP -100
ACTA

WGHT    0.054400    0.962900
FVAR       0.69995
BA1   3    0.642283    0.974702    0.240508    11.00000    0.00830    0.00808 =
         0.00723    0.00178    0.00223    0.00259
FE1   4    0.500000    0.500000    0.500000    10.50000    0.00487    0.00480 =
         0.00438    0.00189    0.00163    0.00198
P1    2    0.119140    0.326076    0.124534    11.00000    0.00597    0.00702 =
         0.00483    0.00113    0.00002    0.00249
P2    2    0.045023    0.686286    0.358564    11.00000    0.00484    0.00529 =
         0.00437    0.00163    0.00163    0.00190
O1    1    0.246198    0.292539    0.281730    11.00000    0.01075    0.00829 =
         0.00499    0.00332    0.00143    0.00444
O2    1    0.333783    0.342632    0.009847    11.00000    0.01309    0.00848 =
         0.00491   -0.00007    0.00461    0.00456
O3    1   -0.172720    0.170199    0.033760    11.00000    0.00767    0.01383 =
         0.00704    0.00308    0.00117    0.00089
O4    1    0.082718    0.540420    0.186230    11.00000    0.01328    0.00937 =
         0.00386    0.00138    0.00455    0.00622
O5    1    0.154692    0.892572    0.356872    11.00000    0.00978    0.00479 =
         0.01235    0.00443    0.00452    0.00265
O6    1    0.236851    0.664682    0.502677    11.00000    0.00569    0.01128 =
         0.00785    0.00538    0.00311    0.00451
O7    1    0.720877    0.631859    0.363831    11.00000    0.00974    0.01207 =
         0.00799    0.00514    0.00299    0.00509
H1    5   10.254600   10.297400    9.906486    10.50000   10.05000
HKLF 4

REM  sad in P-1, Ba2FeH(P2O7)2
REM R1 =  0.0270 for    1200 Fo > 4sig(Fo)  and  0.0276 for all    1222 data
REM     97 parameters refined using      0 restraints

END

WGHT      0.0246      0.9397

REM Instructions for potential hydrogen bonds
HTAB O2 O4_$1
HTAB O2 O5_$1
HTAB O2 O7_$2

REM Highest difference peak  1.075,  deepest hole -1.174,  1-sigma level  0.262
Q1    1   0.5369  0.8835  0.2628  11.00000  0.05    1.08
Q2    1   0.5074  0.9341  0.1491  11.00000  0.05    1.05
Q3    1   0.7853  0.9934  0.3295  11.00000  0.05    0.98
Q4    1   0.7508  1.0771  0.2150  11.00000  0.05    0.95
Q5    1   0.5895  1.0106  0.3579  11.00000  0.05    0.94
Q6    1   0.7038  0.9258  0.1319  11.00000  0.05    0.93
Q7    1   0.3751  0.7615  0.6171  11.00000  0.05    0.77
Q8    1   0.3811  0.9720  0.5197  11.00000  0.05    0.74
Q9    1   0.0534  0.5199  0.4753  11.00000  0.05    0.66
Q10   1  -0.0361  0.9185  0.3208  11.00000  0.05    0.65
Q11   1   0.4162  1.1047  0.5308  11.00000  0.05    0.63
Q12   1   0.1342  0.9558  0.1762  11.00000  0.05    0.63
Q13   1   0.4429  0.2998  0.3634  11.00000  0.05    0.60
Q14   1  -0.2233  0.4823  0.1563  11.00000  0.05    0.60
Q15   1   0.1396  0.6789  0.6158  11.00000  0.05    0.60
Q16   1  -0.1751 -0.0429  0.0420  11.00000  0.05    0.59
Q17   1   0.1472  0.7244  0.5949  11.00000  0.05    0.58
Q18   1   0.6545  0.5840  0.4408  11.00000  0.05    0.57
Q19   1   0.1261  0.1253 -0.1539  11.00000  0.05    0.57
Q20   1   0.3482  0.2797  0.4007  11.00000  0.05    0.55
;
_shelx_res_checksum              49716
_shelx_hkl_file
;
   1   0   0  354.31   14.89   2
  -1   0   0  309.94   14.32   1
   2   0   0  268.24   14.24   2
  -2   0   0  255.59   13.43   1
  -4   0   0  880.57   42.07   1
   4   0   0  887.35   42.70   2
  -5   0   0   38.11    6.28   1
   5   0   0   33.78    6.54   2
  -5   1   0   57.43    7.76   1
   5  -1   0   56.93    7.79   2
  -4   1   0 1753.14   76.54   1
   4  -1   0 1821.58   75.59   2
  -3   1   0 1876.15   77.49   1
  -2   1   0 2697.72  108.57   1
   2  -1   0 2727.38  105.83   2
  -2   1   0 2852.67  107.26   3
  -1   1   0  490.34   22.25   1
   1  -1   0  542.13   21.29   2
  -1   1   0  543.61   21.82   3
   0   1   0  459.25   19.24   1
   0   1   0  445.04   18.18   2
   0  -1   0  464.97   18.86   3
  -1  -1   0 2435.37   96.06   3
   1   1   0 2481.91   93.99   2
  -1  -1   0 2449.20   95.87   1
   2   1   0   12.35    2.74   2
  -2  -1   0   21.90    2.86   1
   3   1   0 1804.16   76.78   2
  -3  -1   0 1897.17   77.16   1
   4   1   0 2018.17   86.67   2
  -4  -1   0 2039.55   86.88   1
  -5  -1   0 1013.34   49.98   1
   5   1   0  941.26   49.28   2
  -6   2   0 1836.96   84.16   1
   6  -2   0 1730.68   80.29   2
  -5   2   0   40.23    6.43   1
   5  -2   0   40.11    6.19   2
   4  -2   0  312.58   18.98   2
  -4   2   0  334.17   20.14   1
   3  -2   0 1877.97   69.52   3
   3  -2   0 1641.40   69.71   2
  -3   2   0 1685.78   72.50   1
   2  -2   0  161.82    9.33   2
  -2   2   0  165.97   10.69   1
  -2   2   0  193.88    9.95   3
  -1   2   0 5620.21  229.63   3
   1  -2   0 6344.72  221.86   2
  -1   2   0 5928.55  230.92   1
   0   2   0 2269.48   89.60   1
   0  -2   0 2301.32   88.91   3
   0   2   0 2218.56   85.81   2
  -1  -2   0 2143.58   89.39   3
   1   2   0 2291.13   89.25   1
   1   2   0 2327.03   87.61   2
  -2  -2   0  777.54   32.49   3
  -2  -2   0  760.06   34.51   1
   2   2   0  726.26   34.52   2
   3   2   0  318.48   19.91   2
  -3  -2   0  324.10   18.85   1
   4   2   0 1101.10   53.45   2
  -4  -2   0 1148.84   53.49   1
   5   2   0   16.16    5.34   2
  -5  -2   0   19.14    5.36   1
  -6   3   0  263.20   21.51   1
   6  -3   0  247.17   19.05   2
   5  -3   0   23.96    4.87   2
  -5   3   0   23.04    5.53   1
   4  -3   0  616.84   29.88   2
  -4   3   0  600.01   32.40   1
   3  -3   0 4910.70  182.77   3
   3  -3   0 4581.89  177.72   2
  -3   3   0 4568.20  186.00   1
   2  -3   0 4204.99  164.90   3
  -2   3   0 4125.47  167.81   1
   2  -3   0 4358.81  158.80   2
   1  -3   0   18.64    2.53   3
  -1   3   0   10.17    2.79   1
   1  -3   0    9.40    1.15   2
   0   3   0 6014.02  225.59   1
   0  -3   0 5537.34  224.37   3
   0   3   0 5847.43  216.97   2
   1   3   0  542.02   24.61   1
  -1  -3   0  471.94   24.33   3
   1   3   0  513.45   24.18   2
   2   3   0   47.17    5.95   2
  -2  -3   0   45.04    5.59   1
  -3  -3   0 1493.33   65.16   1
   3   3   0 1436.80   64.93   2
   4   3   0 1521.73   71.58   2
  -4  -3   0 1599.34   71.94   1
  -6   4   0  256.69   21.98   1
   6  -4   0  255.99   18.74   2
   5  -4   0  903.71   42.53   2
  -5   4   0  893.61   47.53   1
  -4   4   0  105.05   10.99   1
   3  -4   0 1677.84   66.94   3
   3  -4   0 1589.32   63.83   2
  -3   4   0 1523.93   70.80   1
   0   4   0 1267.31   57.74   1
   0   4   0 1450.07   54.54   2
   0  -4   0 1280.27   56.73   3
   1   4   0 4675.16  186.18   1
  -1  -4   0 4382.29  186.93   3
   1   4   0 5129.88  181.84   2
   2   4   0  801.28   38.60   2
  -3  -4   0  110.31   11.11   1
   3   4   0   95.06   10.60   2
  -4  -4   0  248.43   19.64   1
   4   4   0  234.67   19.64   2
  -6   5   0 1151.30   61.92   1
  -5   5   0    6.66    3.60   1
   4  -5   0  612.41   33.37   3
  -4   5   0  762.81   40.19   1
   3  -5   0 1888.74   76.40   3
  -3   5   0 1714.31   80.85   1
  -2   5   0 2604.53  116.53   1
   2  -5   0 2931.93  112.97   3
  -1   5   0   24.98    5.24   1
   1  -5   0   45.69    5.46   3
   0   5   0   12.06    3.50   1
   0  -5   0    9.10    2.77   3
   2   5   0   67.55    8.03   1
   2   5   0   79.40    8.83   2
   3   5   0  449.71   28.46   2
  -3  -5   0  454.38   29.29   1
  -5   6   0  737.49   44.43   1
   4  -6   0   56.78    7.32   3
  -4   6   0   51.79    8.73   1
  -3   6   0 1072.72   54.44   1
   3  -6   0 1023.13   48.99   3
  -2   6   0  640.86   37.03   1
   2  -6   0  656.16   33.49   3
  -1   6   0  320.00   22.27   1
   1  -6   0  339.42   20.99   3
   0  -6   0 2874.21  125.00   3
   0   6   0 3126.82  126.15   1
  -1  -6   0 1277.03   59.48   3
   1   6   0 1227.33   58.35   1
   2   6   0  626.30   35.02   1
  -3  -6   0   43.69    8.57   1
  -5   7   0  736.38   45.93   1
  -4   7   0  150.10   16.20   1
   4  -7   0  133.85   13.03   3
   3  -7   0 1019.75   52.34   3
  -3   7   0 1150.87   58.31   1
  -2   7   0 1343.79   64.62   1
   2  -7   0 1217.01   60.07   3
   1  -7   0  741.50   39.86   3
  -1   7   0  736.82   41.31   1
   0   7   0   54.81    7.95   1
   0  -7   0   57.07    8.19   3
   1   7   0  452.25   28.66   1
   2   7   0  322.30   23.60   1
  -4   8   0  107.35   13.78   1
   4  -8   0   88.79   11.17   3
  -3   8   0  109.46   13.83   1
   3  -8   0   97.51   11.63   3
  -2   8   0  997.48   53.69   1
   2  -8   0  940.42   50.62   3
   1  -8   0    7.44    3.75   3
  -1   8   0    9.34    3.91   1
   0  -8   0    3.36    2.10   3
   0   8   0    2.60    1.68   1
   1   8   0 1766.68   83.55   1
  -3   9   0  449.27   33.15   1
  -2   9   0 1027.11   57.45   1
   2  -9   0 1025.39   55.81   3
  -1   9   0 1114.40   59.57   1
   1  -9   0 1073.60   58.59   3
   0  -9   1  458.53   31.39   3
   0   9  -1  459.85   30.54   1
   1  -9   1   92.99   11.72   3
  -1   9  -1  108.52   12.54   1
  -2   9  -1    2.72    2.60   1
   2  -9   1    0.63    1.16   3
   3  -9   1 1022.43   53.57   3
   1   8  -1  288.33   21.70   1
   0  -8   1 1146.55   59.39   3
   0   8  -1 1278.81   60.08   1
   1  -8   1 1046.81   54.01   3
  -1   8  -1 1156.39   56.67   1
   2  -8   1   38.81    6.38   3
  -2   8  -1   41.95    8.10   1
   3  -8   1    9.21    3.51   3
  -3   8  -1    4.27    2.97   1
   4  -8   1 1572.55   72.80   3
  -2  -7   1  204.34   18.32   1
   1   7  -1   48.12    7.01   1
   0  -7   1  487.45   29.00   3
   0   7  -1  541.24   30.18   1
   1  -7   1  700.84   34.12   3
  -1   7  -1  567.40   34.50   1
  -2   7  -1  169.98   15.83   1
   2  -7   1  191.58   14.16   3
   3  -7   1 1125.18   50.96   3
  -3   7  -1 1035.17   55.50   1
  -4   7  -1 1594.40   78.43   1
   4  -7   1 1624.27   71.75   3
  -3  -6   1  331.76   24.30   1
  -2  -6   1 1298.54   62.21   1
   1   6  -1  509.03   27.98   1
   0  -6   1 1211.16   51.03   3
   0   6  -1 1007.05   50.73   1
   1  -6   1 2861.36  114.32   3
  -1   6  -1 2724.83  116.74   1
  -2   6  -1 1011.33   51.77   1
   2  -6   1 1103.45   48.22   3
   3  -6   1  627.59   30.96   3
  -3   6  -1  598.38   35.38   1
   4  -6   1    5.44    2.19   3
  -4   6  -1   10.59    4.30   1
  -5   6  -1  651.57   40.17   1
   4   5  -1  552.85   35.53   2
   3   5  -1 1001.68   51.00   2
  -3  -5   1  996.22   49.96   1
   2   5  -1 1348.28   60.33   2
  -2  -5   1 1239.95   59.16   1
   1   5  -1  501.96   25.23   2
   1   5  -1  413.57   23.12   1
  -1  -5   1  393.63   22.65   3
   0  -5   1  300.95   16.96   3
   0   5  -1  323.79   17.86   2
   0   5  -1  274.87   17.52   1
   1  -5   1 1901.55   74.34   2
   2  -5   1   74.93    5.53   2
  -3   5  -1  202.95   16.23   1
   4  -5   1 3039.01  123.95   2
   4  -5   1 3116.63  127.22   3
  -4   5  -1 3337.15  134.78   1
  -5   5  -1  411.74   28.10   1
  -6   5  -1  164.17   17.01   1
  -4  -4   1   29.89    6.09   1
   4   4  -1   26.40    6.41   2
   3   4  -1 1661.47   74.34   2
  -3  -4   1 1683.92   73.74   1
   2   4  -1   21.66    4.76   2
  -2  -4   1   21.91    4.22   1
   1   4  -1  457.65   24.61   2
  -1  -4   1  493.77   23.01   3
   0   4  -1 1271.33   53.94   3
   0   4  -1 1240.81   54.17   1
   0   4  -1 1313.12   53.42   2
  -1   4  -1 6915.67  276.90   3
  -1   4  -1 7195.96  278.60   1
   1  -4   1 7345.90  266.80   2
  -2   4  -1 1462.40   60.40   3
  -2   4  -1 1350.60   62.62   1
   2  -4   1 1482.96   56.85   2
  -3   4  -1  127.99   11.21   1
  -4   4  -1  542.20   31.25   1
   4  -4   1  594.18   28.80   2
   5  -4   1 1239.07   55.80   2
  -5   4  -1 1208.39   59.87   1
   6  -4   1   16.69    4.65   2
  -6   4  -1   17.73    5.75   1
   4   3  -1   33.41    6.79   2
  -3  -3   1  759.96   37.24   1
   3   3  -1  788.94   39.29   2
  -2  -3   1 4454.83  187.19   1
   2   3  -1 5099.22  184.99   2
   1   3  -1 1739.69   73.77   1
   1   3  -1 1935.32   74.43   2
   0   3  -1 1664.09   69.93   3
   0   3  -1 1769.85   70.34   1
   0   3  -1 1797.14   69.33   2
  -1   3  -1  578.17   28.24   1
   1  -3   1  601.42   25.53   2
  -1   3  -1  646.92   27.24   3
   2  -3   1  929.59   37.60   2
  -2   3  -1  883.35   40.53   1
  -2   3  -1  915.58   38.89   3
  -3   3  -1  269.28   16.24   1
   3  -3   1  242.09   14.38   2
  -3   3  -1  257.92   14.00   3
   4  -3   1  253.18   16.14   2
  -4   3  -1  234.58   16.61   1
  -5   3  -1 2435.88  107.12   1
   5  -3   1 2541.96  103.78   2
   6  -3   1  427.44   27.73   2
  -6   3  -1  427.23   29.47   1
  -5  -2   1  952.13   48.76   1
   5   2  -1  933.75   49.62   2
  -4  -2   1   31.72    5.21   1
  -3  -2   1   13.92    3.22   1
   3   2  -1   13.70    3.83   2
  -2  -2   1 2762.97  109.24   3
  -2  -2   1 2773.22  111.07   1
   2   2  -1 2861.61  110.59   2
   1   2  -1  101.93    6.16   1
   1   2  -1   87.26    6.81   2
   1   2  -1  104.02    5.69   3
   0   2  -1 1204.45   47.02   2
   0   2  -1 1145.88   47.01   3
   0   2  -1 1169.10   46.89   1
  -1   2  -1 4472.04  182.82   1
  -1   2  -1 4671.64  182.41   3
   1  -2   1 5048.44  177.06   2
  -2   2  -1 3303.12  129.21   1
  -2   2  -1 3227.41  128.11   3
   2  -2   1 3345.17  125.57   2
  -3   2  -1 1262.17   54.56   1
   3  -2   1 1241.89   53.43   2
  -3   2  -1 1304.72   51.86   3
   4  -2   1 1182.62   52.82   2
  -4   2  -1 1182.28   53.71   1
  -5   2  -1  291.64   20.53   1
   5  -2   1  291.08   20.25   2
  -6   2  -1   29.58    6.81   1
   5   1  -1  369.19   24.87   2
  -5  -1   1  360.59   24.06   1
   4   1  -1  159.06   13.49   2
  -4  -1   1  181.89   13.42   1
   3   1  -1 3384.00  137.38   2
  -3  -1   1 3637.13  139.91   1
  -2  -1   1 1474.04   59.31   1
   2   1  -1 1427.93   59.24   2
  -1  -1   1 6044.92  234.04   1
   1   1  -1 6628.56  236.48   3
   1   1  -1 5691.08  228.43   2
   0   1  -1   52.16    2.66   1
   0  -1   1   58.26    3.63   2
   0   1  -1   56.82    3.28   3
  -1   1  -1 2658.62  102.43   1
   1  -1   1 2578.00  100.02   2
  -1   1  -1 2708.53  102.66   3
   2  -1   1 1815.58   71.60   2
  -2   1  -1 1797.20   72.53   1
  -2   1  -1 1832.28   71.12   3
  -4   1  -1 1941.96   84.27   1
   4  -1   1 2038.19   83.95   2
  -5   1  -1 1103.86   53.19   1
   5  -1   1 1058.98   52.60   2
  -5   0   1 1341.14   62.44   1
   5   0  -1 1307.15   61.13   2
   4   0  -1 1343.63   58.85   2
  -4   0   1 1295.57   58.80   1
   3   0  -1    5.22    2.01   2
  -3   0   1    6.76    2.17   1
  -2   0   1 5155.45  197.28   1
   2   0  -1 5252.95  198.77   3
   2   0  -1 4899.63  192.47   2
   1   0  -1  392.44   16.60   2
  -1   0   1  379.38   16.57   1
   1   0  -1  368.36   16.19   3
   0   0  -1  183.22    8.60   3
   0   0   1  177.91    8.09   1
   0   0   1  174.21    7.85   2
  -1   0  -1 1765.40   67.28   3
   1   0   1 1666.49   65.95   2
  -1   0  -1 1704.89   67.17   1
  -2   0  -1 7262.88  285.65   1
   2   0   1 7136.64  278.85   2
  -2   0  -1 7931.22  285.54   3
  -3   0  -1  106.37    8.56   1
   3   0   1  110.23    9.47   2
   4   0   1  288.76   19.28   2
  -4   0  -1  271.18   17.89   1
   5   0   1  951.30   49.04   2
  -5   0  -1  965.96   48.68   1
   6  -1  -1  163.27   15.13   2
  -6   1   1  154.33   15.51   1
   5  -1  -1  925.75   45.79   2
  -5   1   1  950.32   47.25   1
   3  -1  -1  157.89   10.98   2
   3  -1  -1  161.65    9.12   3
  -3   1   1  176.01   11.59   1
  -2   1   1 4862.21  183.95   1
   2  -1  -1 4722.96  178.01   2
   2  -1  -1 4603.57  183.22   3
   1  -1  -1 3236.30  129.14   3
  -1   1   1 3312.81  129.05   1
   1  -1  -1 3367.87  123.91   2
   0   1   1 1163.35   47.87   1
   0  -1  -1 1168.10   48.46   3
   0   1   1 1203.86   45.05   2
  -1  -1  -1  444.41   20.54   3
   1   1   1  429.15   19.89   1
   1   1   1  466.22   20.20   2
  -2  -1  -1 1118.27   44.81   3
   2   1   1 1072.48   46.67   2
  -2  -1  -1 1102.01   46.91   1
   3   1   1  803.02   38.46   2
  -3  -1  -1  812.49   37.67   1
  -4  -1  -1  681.09   35.00   1
   4   1   1  648.67   35.54   2
   5   1   1  578.57   35.61   2
  -5  -1  -1  630.22   35.55   1
  -6   2   1  714.64   40.88   1
   6  -2  -1  670.11   37.29   2
  -5   2   1 1399.35   65.07   1
   5  -2  -1 1379.60   62.06   2
  -4   2   1 2016.44   85.96   1
   4  -2  -1 2003.69   82.30   2
  -3   2   1   29.07    4.41   1
   3  -2  -1   30.15    3.71   3
   3  -2  -1   34.75    4.13   2
  -2   2   1  477.94   24.57   1
   2  -2  -1  491.33   23.55   3
   2  -2  -1  530.34   21.82   2
   1  -2  -1 4293.67  170.96   3
  -1   2   1 4301.90  171.73   1
   1  -2  -1 4517.45  166.01   2
   0   2   1   86.54    7.05   1
   0   2   1   99.02    5.25   2
   0  -2  -1  113.47    7.93   3
   1   2   1 3934.51  148.17   2
  -1  -2  -1 3862.68  153.93   3
   1   2   1 3900.90  152.40   1
   2   2   1 2345.88   93.12   2
  -2  -2  -1 2424.27   93.97   3
  -2  -2  -1 2194.56   94.65   1
  -3  -2  -1 1651.69   70.83   1
   3   2   1 1625.44   70.66   2
  -4  -2  -1    4.08    2.20   1
   4   2   1    4.22    2.25   2
   5   2   1  152.23   15.68   2
  -5  -2  -1  186.04   16.99   1
   6  -3  -1    5.13    2.35   2
  -6   3   1    3.84    2.24   1
  -5   3   1  189.77   16.67   1
   5  -3  -1  223.36   15.47   2
   4  -3  -1 1721.54   71.76   2
  -4   3   1 1777.75   77.65   1
   3  -3  -1   86.10    6.49   2
   3  -3  -1   86.32    7.44   3
  -3   3   1   62.83    7.61   1
  -2   3   1 2904.19  119.36   1
   2  -3  -1 2736.43  116.72   3
   2  -3  -1 3100.10  110.10   2
  -1   3   1 3997.57  156.95   1
   1  -3  -1 3835.31  155.27   3
   0   3   1 2405.83   86.93   2
   0   3   1 2210.48   93.32   1
   0  -3  -1 2214.71   93.53   3
  -1  -3  -1   17.78    3.58   3
   1   3   1   22.07    3.14   2
   2   3   1 1726.31   76.14   2
   2   3   1 1977.02   78.28   1
  -3  -3  -1  130.50   12.01   1
   3   3   1  135.77   12.14   2
   4   3   1   80.78   10.04   2
  -4  -3  -1   68.06    9.09   1
  -6   4   1   76.85   10.84   1
  -5   4   1 2533.92  111.54   1
   4  -4  -1  494.78   26.97   3
  -4   4   1  511.81   30.42   1
   2  -4  -1 1105.92   50.30   3
  -2   4   1 1129.18   53.18   1
  -1   4   1  195.60   15.13   1
   1  -4  -1  216.03   14.49   3
   0   4   1  371.70   16.45   2
   0  -4  -1  341.46   20.48   3
   0   4   1  303.74   19.87   1
  -1  -4  -1    8.97    3.04   3
   1   4   1    9.43    3.17   1
   1   4   1   10.61    2.49   2
   2   4   1 2151.29   92.44   1
   2   4   1 2220.39   90.46   2
   3   4   1 1643.34   73.50   2
  -3  -4  -1 1649.42   76.12   1
   4   4   1   89.10   11.18   2
  -4  -4  -1   80.63   10.65   1
  -5   5   1  261.47   22.01   1
  -4   5   1 1745.76   79.67   1
   4  -5  -1 1617.94   74.18   3
   3  -5  -1  100.81    9.95   3
  -3   5   1  101.38   11.61   1
   2  -5  -1  319.96   21.05   3
  -2   5   1  382.54   24.46   1
   1  -5  -1 4258.95  171.99   3
  -1   5   1 4231.35  173.29   1
   0  -5  -1 2274.89   96.66   3
   0   5   1 2219.92   96.47   1
   1   5   1  383.55   23.52   1
   2   5   1   27.52    5.65   1
  -3  -5  -1  789.22   45.00   1
  -5   6   1  534.65   36.18   1
   4  -6  -1 1949.73   90.36   3
  -4   6   1 2170.73   96.85   1
   3  -6  -1  622.35   34.26   3
  -3   6   1  600.43   37.06   1
   2  -6  -1   50.79    7.41   3
  -2   6   1   49.74    8.24   1
   1  -6  -1 1251.89   58.51   3
  -1   6   1 1160.59   59.01   1
   0  -6  -1  715.24   38.48   3
   0   6   1  670.78   38.05   1
   1   6   1   32.86    6.46   1
   2   6   1 1438.54   68.72   1
  -5   7   1  656.34   43.01   1
  -4   7   1   40.29    8.94   1
   4  -7  -1   19.76    5.30   3
   3  -7  -1  518.99   32.17   3
  -3   7   1  532.68   35.29   1
  -2   7   1  507.50   33.10   1
   2  -7  -1  471.46   30.45   3
   1  -7  -1  700.22   39.36   3
  -1   7   1  652.57   39.69   1
   0   7   1 1170.83   59.78   1
   0  -7  -1 1206.70   60.14   3
   1   7   1  422.58   28.48   1
   4  -8  -1 1282.06   67.24   3
  -4   8   1 1436.06   73.52   1
  -3   8   1  867.01   50.85   1
   3  -8  -1  826.08   47.21   3
   2  -8  -1   88.17   11.64   3
  -2   8   1   96.77   12.81   1
  -1   8   1  991.24   55.36   1
   1  -8  -1 1024.49   54.75   3
   0   8   1  285.78   23.36   1
   0  -8  -1  284.63   23.32   3
   0  -9   2  325.23   24.00   3
   1  -9   2  603.50   35.18   3
   2  -9   2   45.37    7.02   3
   3  -9   2  205.58   16.92   3
  -2  -8   2  246.21   20.92   1
   1   8  -2  537.62   31.36   1
   0   8  -2  181.72   14.95   1
   0  -8   2  180.26   14.89   3
  -1   8  -2  787.77   42.89   1
   1  -8   2  878.42   42.37   3
   2  -8   2 2398.28  102.06   3
   3  -8   2  602.72   32.70   3
   4  -8   2    4.56    2.38   3
  -2  -7   2  408.86   26.91   1
   1   7  -2 2289.65   97.33   1
   0   7  -2  534.20   29.41   1
   0  -7   2  564.40   29.30   3
   1  -7   2  138.75   11.46   3
  -1   7  -2  143.92   12.52   1
  -2   7  -2 1519.14   71.94   1
  -2   7  -2 1645.74   70.93   3
  -3   7  -2  290.66   21.75   1
   4  -7   2    6.74    2.52   3
   3   6  -2  120.35   13.59   2
  -3  -6   2   92.00   10.69   1
  -2  -6   2  315.07   21.34   1
   2   6  -2  339.55   23.42   2
   1   6  -2  641.27   34.04   1
   1   6  -2  775.86   38.34   2
   0   6  -2  202.89   14.56   3
   0  -6   2  249.57   15.07   2
  -1   6  -2  983.92   46.09   1
  -1   6  -2  981.99   45.41   3
  -2   6  -2  332.92   19.84   3
  -3   6  -2 2481.99  109.91   1
  -3   6  -2 2639.94  106.76   3
  -4   6  -2  524.40   32.59   1
  -4   6  -2  532.03   28.85   3
  -4  -5   2 1007.18   52.49   1
   4   5  -2 1059.69   56.45   2
  -3  -5   2   38.41    5.90   1
   3   5  -2   43.77    8.30   2
  -2  -5   2 1158.86   53.48   1
   2   5  -2 1188.24   55.91   2
   1   5  -2 2182.50   85.84   2
   1   5  -2 1879.06   82.59   1
   1   5  -2 1997.49   83.26   3
   0  -5   2 4100.47  152.60   2
   0   5  -2 4024.37  155.91   1
   0   5  -2 3725.16  156.21   3
   1  -5   2    8.51    2.14   2
  -1   5  -2   13.62    3.03   1
  -1   5  -2    4.88    2.10   3
  -2   5  -2 1103.65   48.92   3
   2  -5   2 1151.74   46.73   2
  -2   5  -2 1077.54   51.11   1
   4  -5   2   33.29    4.82   2
  -4   5  -2   25.01    5.74   1
  -4   5  -2   18.26    3.88   3
   5  -5   2  427.97   25.48   2
   6  -5   2 1339.73   63.41   2
  -4  -4   2  770.42   39.44   1
   4   4  -2  675.50   40.42   2
  -3  -4   2  856.76   40.96   1
   3   4  -2  836.83   43.65   2
   2   4  -2  329.92   20.85   2
  -2  -4   2  290.15   17.69   1
   1   4  -2 2935.41  117.27   1
   1   4  -2 2898.68  117.45   3
   1   4  -2 3068.03  118.29   2
   0  -4   2  364.10   19.20   2
   0   4  -2  395.43   19.21   3
   0   4  -2  391.80   18.68   1
   1  -4   2  377.45   19.44   2
  -1   4  -2  407.85   20.11   3
  -1   4  -2  421.87   20.82   1
   2  -4   2 3565.45  128.69   2
  -2   4  -2 3307.67  132.29   3
  -2   4  -2 3139.88  133.85   1
  -4   4  -2  707.41   36.77   1
   4  -4   2  704.69   34.53   2
  -5   4  -2   90.34   10.64   1
   5  -4   2   91.74    9.96   2
   6  -4   2  541.29   32.83   2
   5   3  -2  499.96   32.93   2
  -5  -3   2  512.21   31.46   1
  -4  -3   2  334.22   21.65   1
   4   3  -2  338.36   23.50   2
  -3  -3   2  383.58   21.19   1
   3   3  -2  363.14   23.05   2
   2   3  -2  788.87   32.61   3
   2   3  -2  756.57   37.05   2
   1   3  -2 3053.69  120.91   2
   1   3  -2 3132.11  120.96   3
   0   3  -2 3661.24  144.73   3
   0  -3   2 3771.27  141.65   2
   1  -3   2  220.89   12.38   2
  -1   3  -2  231.73   12.47   1
  -1   3  -2  238.30   12.34   3
  -2   3  -2    5.69    1.65   3
   2  -3   2   14.96    2.74   2
  -2   3  -2   10.95    2.35   1
  -3   3  -2  975.79   43.87   1
  -4   3  -2  673.79   34.33   1
   4  -3   2  676.26   34.12   2
  -5   3  -2  532.10   30.95   1
   5  -3   2  517.18   30.32   2
  -6   3  -2  176.41   16.89   1
   5   2  -2   63.57    9.12   2
  -5  -2   2   48.30    7.36   1
   4   2  -2 2842.13  118.69   2
  -4  -2   2 2898.24  118.86   1
  -3  -2   2 1537.93   65.29   1
   3   2  -2 1534.00   66.52   2
  -2  -2   2   82.14    6.44   1
   2   2  -2   97.80    5.03   3
   2   2  -2   78.44    7.63   2
  -1  -2   2  553.84   24.38   1
   1   2  -2  575.95   24.21   3
   1   2  -2  592.26   26.79   2
   0   2  -2 5519.29  203.46   1
   0   2  -2 5039.94  204.15   3
   0  -2   2 5358.58  199.16   2
   1  -2   2    5.90    1.58   2
  -1   2  -2    4.54    1.01   1
  -2   2  -2  910.45   37.26   3
   2  -2   2  862.39   37.82   2
  -2   2  -2  886.47   37.53   1
   3  -2   2 4823.80  190.03   2
  -3   2  -2 5060.15  192.38   3
  -3   2  -2 5007.57  194.40   1
  -4   2  -2 1107.97   52.10   1
   4  -2   2 1190.39   53.07   2
   5  -2   2   39.04    7.14   2
  -5   2  -2   42.70    6.56   1
  -6   2  -2  438.99   30.01   1
  -5  -1   2    5.48    2.44   1
   5   1  -2    6.79    3.05   2
   4   1  -2  230.06   16.74   2
  -4  -1   2  217.96   15.41   1
   3   1  -2 2162.24   88.32   2
  -3  -1   2 2157.25   88.31   1
   2   1  -2    9.43    2.43   2
   2   1  -2   12.51    1.24   3
  -2  -1   2   11.80    2.26   1
  -1  -1   2 6401.24  244.82   1
   0  -1   2 1502.31   59.34   2
   0   1  -2 1543.16   60.52   3
  -1   1  -2 7467.24  284.20   3
  -1   1  -2 7344.78  282.73   1
  -2   1  -2  231.68   12.21   1
  -2   1  -2  238.91   11.64   3
   2  -1   2  226.94   13.38   2
   3  -1   2  475.07   25.03   2
  -3   1  -2  473.50   23.72   1
  -4   1  -2  616.03   32.59   1
   4  -1   2  676.21   34.53   2
   5  -1   2  166.24   15.33   2
  -5   1  -2  167.38   14.79   1
  -5   0   2  242.68   18.38   1
   5   0  -2  261.88   19.03   2
   4   0  -2 1726.35   72.38   2
  -4   0   2 1648.80   72.91   1
   3   0  -2 3066.61  123.92   2
  -3   0   2 3268.11  126.94   1
   2   0  -2  395.50   19.42   2
   2   0  -2  398.74   18.16   3
  -2   0   2  396.76   19.24   1
   1   0  -2  268.89   12.91   3
   1   0  -2  237.80   11.99   2
  -1   0   2  237.10   12.06   1
   0   0  -2 1831.32   77.03   3
   0   0   2 2058.35   74.00   2
   0   0   2 1900.87   75.88   1
  -1   0  -2  268.87   13.59   3
   1   0   2  261.08   13.28   2
   1   0   2  272.50   12.57   1
  -2   0  -2   77.86    6.12   1
  -2   0  -2   85.56    5.69   3
   2   0   2   77.00    6.84   2
   3   0   2 2331.59   94.34   2
  -3   0  -2 2282.91   94.31   1
  -4   0  -2 1631.82   71.54   1
   4   0   2 1610.83   71.95   2
  -5   0  -2   41.13    6.82   1
   5   0   2   57.27    8.68   2
   6  -1  -2  432.26   28.51   2
  -6   1   2  493.00   31.28   1
   5  -1  -2  242.96   17.66   2
  -5   1   2  257.09   18.83   1
   4  -1  -2 1397.34   57.75   2
  -4   1   2 1243.18   58.87   1
  -3   1   2  825.21   37.54   1
   3  -1  -2  776.63   35.59   2
   3  -1  -2  808.50   35.38   3
   2  -1  -2   48.08    4.19   2
  -2   1   2   33.56    4.15   1
   2  -1  -2   38.51    4.21   3
   1  -1  -2   88.96    6.91   3
  -1   1   2   80.93    6.57   1
   1  -1  -2   79.42    4.78   2
   0   1   2 9999.99  372.92   1
   0   1   2 9448.12  360.12   2
  -1  -1  -2 4656.69  187.15   3
   1   1   2 5087.56  180.17   2
   1   1   2 4590.09  184.77   1
  -2  -1  -2   12.66    2.14   3
   2   1   2    7.45    2.50   2
  -3  -1  -2  857.02   39.95   1
   3   1   2  843.54   40.79   2
   4   1   2  551.59   32.11   2
  -4  -1  -2  568.72   31.32   1
   5   1   2   51.07    8.34   2
  -5  -1  -2   44.64    8.11   1
   6  -2  -2  233.54   18.17   2
  -6   2   2  244.32   20.55   1
  -5   2   2   70.77    9.08   1
   5  -2  -2   59.25    7.26   2
  -4   2   2 1816.17   78.47   1
   4  -2  -2 1758.73   73.47   2
   2  -2  -2 2970.38  121.03   3
   2  -2  -2 3074.29  113.91   2
  -2   2   2 2977.33  121.66   1
   1  -2  -2   53.18    5.75   3
  -1   2   2   44.10    5.41   1
   0  -2  -2 1040.77   47.73   3
   0   2   2 1023.09   46.73   1
   0   2   2 1153.03   42.07   2
   1   2   2 1594.71   68.93   1
  -1  -2  -2 1714.32   71.38   3
   1   2   2 1699.99   66.64   2
   2   2   2   34.32    4.81   2
  -2  -2  -2   33.51    4.61   3
   2   2   2   52.09    5.60   1
   3   2   2  405.78   24.29   2
  -3  -2  -2  407.78   24.04   1
   4   2   2 1399.56   66.79   2
  -4  -2  -2 1466.01   67.35   1
  -6   3   2 2441.60  110.66   1
   5  -3  -2    5.95    2.39   2
  -5   3   2   10.14    4.05   1
   4  -3  -2    7.51    2.29   2
  -4   3   2    3.20    2.24   1
   3  -3  -2  890.48   42.30   3
   3  -3  -2  959.81   38.06   2
  -3   3   2  859.43   43.88   1
   2  -3  -2 1903.24   78.67   3
  -2   3   2 1775.27   79.48   1
   2  -3  -2 1844.16   69.92   2
   1  -3  -2 1553.92   65.46   3
  -1   3   2 1418.99   65.33   1
   0   3   2 2729.26  111.19   1
   0  -3  -2 2674.94  111.82   3
   1   3   2 1980.30   73.35   2
  -1  -3  -2 1762.77   78.31   3
   1   3   2 1703.79   76.17   1
   2   3   2  547.68   29.25   1
   2   3   2  581.57   29.12   2
   3   3   2   12.52    4.12   2
  -3  -3  -2    5.98    2.86   1
   4   3   2  622.59   37.60   2
  -4  -3  -2  744.10   40.26   1
  -6   4   2  220.97   20.46   1
  -5   4   2   58.44    8.92   1
   4  -4  -2  652.60   34.55   3
  -4   4   2  678.93   38.13   1
   3  -4  -2 1912.85   83.59   3
  -3   4   2 1961.06   86.56   1
   2  -4  -2 1921.86   83.29   3
  -2   4   2 1929.11   85.17   1
   1  -4  -2 1672.93   73.92   3
   0  -4  -2 2567.41  115.53   3
   0   4   2 2971.08  116.49   1
  -1  -4  -2  287.51   19.92   3
   1   4   2  302.91   19.35   1
   2   4   2  347.37   22.15   1
  -3  -4  -2  580.25   35.43   1
  -5   5   2 1057.94   57.28   1
  -4   5   2   21.14    5.89   1
   4  -5  -2    5.75    2.95   3
  -3   5   2 1070.90   53.92   1
   3  -5  -2  998.64   50.35   3
  -2   5   2 1245.89   60.64   1
   2  -5  -2 1218.60   58.39   3
  -1   5   2  415.14   26.76   1
   1  -5  -2  415.98   26.03   3
   0   5   2   78.32    9.65   1
   0  -5  -2   75.19    9.31   3
   1   5   2 2763.76  115.62   1
  -1  -5  -2 2661.05  116.47   3
   2   5   2  890.13   46.30   1
  -3  -5  -2    5.86    3.28   1
  -5   6   2  105.38   13.89   1
   4  -6  -2    5.90    2.99   3
  -4   6   2    3.69    2.45   1
  -3   6   2 1834.80   87.44   1
   3  -6  -2 1868.24   84.43   3
   2  -6  -2 2002.91   92.81   3
  -2   6   2 2158.23   96.23   1
  -1   6   2   87.81   11.37   1
   1  -6  -2  111.30   12.19   3
   0   6   2    3.94    2.33   1
   0  -6  -2    4.13    2.36   3
   1   6   2  588.60   35.05   1
   2   6   2  272.49   21.75   1
  -4   7   2   29.58    8.00   1
   4  -7  -2   40.69    8.01   3
  -3   7   2  210.35   20.17   1
   3  -7  -2  181.57   17.38   3
   2  -7  -2  325.91   25.06   3
  -2   7   2  378.35   27.83   1
  -1   7   2  764.48   45.18   1
   1  -7  -2  783.08   44.51   3
   0  -7  -2  971.64   52.99   3
   0   7   2  989.28   53.30   1
   1   7   2  835.12   47.37   1
  -3   8   2  813.82   49.09   1
   3  -8  -2  743.48   45.36   3
  -2   8   2 1057.47   58.19   1
   2  -8  -2  964.70   55.08   3
  -1   8   2  666.50   41.92   1
   1  -8  -2  609.81   39.89   3
   0  -8  -2   48.92    9.24   3
   0  -9   3 1056.02   52.50   3
   1  -9   3 1032.43   50.95   3
   2  -9   3  199.37   16.06   3
   3  -9   3  654.38   35.97   3
  -2  -8   3 1341.33   65.50   1
   0  -8   3  352.00   21.97   3
  -1   8  -3  773.27   40.21   3
  -2   8  -3   11.40    3.80   3
  -3   8  -3  757.82   40.10   3
  -3  -7   3  357.50   24.51   1
  -2  -7   3  191.29   15.69   1
   1   7  -3   17.10    3.87   1
   0   7  -3 2218.46   93.34   3
   0   7  -3 2179.47   91.34   1
  -1   7  -3 1241.27   56.66   3
  -2   7  -3  202.32   14.96   3
  -3   7  -3  136.09   11.93   3
  -4   7  -3 1309.24   60.75   3
  -3  -6   3 2164.00   96.59   1
   3   6  -3 2315.23  101.68   2
   2   6  -3  972.92   49.61   2
  -2  -6   3  900.19   44.81   1
   1   6  -3  192.12   15.86   2
   1   6  -3  141.06   10.95   1
   1   6  -3  163.61   11.94   3
   0   6  -3  538.56   26.25   1
  -1   6  -3  794.15   37.65   3
  -1   6  -3  852.09   37.34   1
   1  -6   3  733.95   36.29   2
   2  -6   3  193.86   12.86   2
  -2   6  -3  199.39   13.74   3
   3  -6   3  728.07   33.73   2
  -3   6  -3  678.31   34.61   3
  -4   6  -3 1008.65   48.17   3
   4  -6   3 1048.52   47.71   2
   5  -6   3 1450.40   65.67   2
   4   5  -3   14.47    5.37   2
  -4  -5   3    5.99    2.37   1
  -3  -5   3   17.52    4.22   1
   3   5  -3   40.57    8.00   2
   2   5  -3 2884.52  119.72   2
  -2  -5   3 2864.16  117.00   1
   1   5  -3   84.80    9.62   2
   0  -5   3  925.50   42.00   2
   0   5  -3  933.15   39.64   1
   0   5  -3  921.47   41.29   3
   1  -5   3 3104.18  122.68   2
  -1   5  -3 3165.60  125.70   3
  -2   5  -3 4054.61  156.94   1
   2  -5   3 3862.59  151.33   2
  -2   5  -3 3840.04  155.63   3
   3  -5   3  381.72   21.20   2
  -3   5  -3  388.55   21.13   3
  -4   5  -3  352.53   20.21   3
   4  -5   3  347.28   21.33   2
   5  -5   3  250.91   18.81   2
  -4  -4   3   35.84    5.67   1
   4   4  -3   21.77    6.39   2
   3   4  -3 2194.79   94.54   2
  -3  -4   3 2107.21   90.11   1
   2   4  -3 1533.70   66.09   2
  -2  -4   3 1395.97   61.37   1
  -1  -4   3  540.56   24.61   1
   1   4  -3  526.45   28.49   2
   1   4  -3  521.76   24.65   3
   0   4  -3   65.68    5.85   3
   0   4  -3   84.09    5.18   1
   0  -4   3   65.15    6.57   2
   1  -4   3 1316.26   57.29   2
  -1   4  -3 1507.32   56.75   1
  -1   4  -3 1322.73   57.62   3
   2  -4   3  310.59   17.28   2
  -2   4  -3  288.57   16.75   1
   3  -4   3  225.32   14.84   2
   4  -4   3 2840.91  118.67   2
  -4   4  -3 3031.52  122.27   1
   5  -4   3  826.51   43.22   2
   5   3  -3 1131.81   59.43   2
  -5  -3   3 1174.50   57.47   1
   4   3  -3  328.09   23.84   2
  -4  -3   3  358.82   21.91   1
  -3  -3   3 2175.32   91.17   1
   3   3  -3 2231.61   93.99   2
   2   3  -3  175.50   13.94   2
  -2  -3   3  181.57   11.19   1
   2   3  -3  194.37   10.04   3
   1   3  -3  469.44   21.13   3
   1   3  -3  438.55   24.07   2
  -1  -3   3  466.75   20.59   1
   0  -3   3 1385.55   58.79   2
   0   3  -3 1469.91   56.10   1
   0   3  -3 1450.28   58.80   3
  -1   3  -3 4339.41  170.43   3
   1  -3   3 4236.48  166.55   2
  -1   3  -3 4529.11  169.06   1
   2  -3   3 3079.61  117.50   2
  -2   3  -3 2991.43  118.35   1
  -2   3  -3 2928.62  118.81   3
  -3   3  -3    8.29    2.40   1
   4  -3   3    4.93    2.55   2
  -4   3  -3   14.95    3.82   1
   5  -3   3  988.26   50.18   2
  -5  -2   3  475.05   28.97   1
   5   2  -3  453.51   29.93   2
   4   2  -3   13.41    4.31   2
  -4  -2   3   11.35    3.33   1
   3   2  -3   88.95    9.11   2
  -3  -2   3   56.79    6.27   1
   2   2  -3 6059.80  240.73   2
  -2  -2   3 6140.90  243.63   1
   2   2  -3 6746.13  242.99   3
   1   2  -3 4026.30  165.34   2
   1   2  -3 4444.46  167.53   3
  -1  -2   3 4491.13  166.45   1
   0   2  -3  424.75   19.81   3
   0  -2   3  431.55   20.67   2
   1  -2   3 5158.79  198.60   2
  -1   2  -3 5515.29  203.73   3
  -1   2  -3 5085.09  201.64   1
  -2   2  -3 1632.71   65.41   1
  -2   2  -3 1631.56   66.28   3
   2  -2   3 1610.81   66.60   2
  -3   2  -3  414.47   21.13   1
   3  -2   3  401.70   22.70   2
  -3   2  -3  394.35   19.69   3
  -4   2  -3  158.71   12.49   1
   4  -2   3  155.73   13.68   2
  -5   2  -3 1711.77   78.55   1
   5  -2   3 1763.36   79.51   2
  -5  -1   3 1643.05   74.08   1
   5   1  -3 1594.90   73.46   2
  -4  -1   3   81.47    8.45   1
   4   1  -3   76.52    8.86   2
  -3  -1   3    6.56    2.20   1
   3   1  -3    8.86    2.91   2
   2   1  -3  312.87   18.03   2
   2   1  -3  342.31   15.62   3
  -2  -1   3  320.19   16.51   1
  -1  -1   3 2241.67   85.03   1
   1   1  -3 2003.60   84.95   2
   1   1  -3 2251.29   86.45   3
   0   1  -3  493.16   22.31   3
   0  -1   3  477.96   21.84   2
   0  -1   3  456.98   19.79   1
   1  -1   3 1702.04   70.96   2
  -1   1  -3 1832.16   72.59   3
  -1   1  -3 1834.65   70.10   1
  -2   1  -3 1905.53   77.25   1
   2  -1   3 1894.10   78.10   2
  -2   1  -3 1997.32   78.14   3
   4  -1   3  614.68   33.60   2
  -4   1  -3  573.91   30.95   1
   5  -1   3  319.44   24.09   2
  -5   1  -3  341.02   23.30   1
  -5   0   3  529.17   30.81   1
   5   0  -3  519.03   30.28   2
  -4   0   3  632.97   33.10   1
   4   0  -3  657.46   33.26   2
   2   0  -3 3302.10  131.63   2
  -2   0   3 3474.59  134.98   1
   2   0  -3 3488.89  135.36   3
   1   0  -3 3727.95  145.09   3
   1   0  -3 3784.16  139.71   2
  -1   0   3 3492.63  143.10   1
   0   0  -3   18.21    3.02   3
   0   0   3   28.40    3.04   2
   0   0   3   28.19    2.97   1
  -1   0  -3  463.25   22.85   3
   1   0   3  455.10   20.61   1
   1   0   3  461.04   21.68   2
   2   0   3  759.81   35.81   2
  -2   0  -3  800.30   35.18   1
  -2   0  -3  795.60   35.27   3
  -3   0  -3  350.34   20.08   1
   3   0   3  373.09   22.19   2
   4   0   3  173.73   15.37   2
  -4   0  -3  179.94   14.34   1
   5   0   3 1447.88   71.46   2
  -5   0  -3 1532.58   71.11   1
   6  -1  -3  234.69   18.64   2
   5  -1  -3 1180.43   54.61   2
  -5   1   3 1161.04   56.74   1
  -4   1   3 1501.92   68.19   1
   4  -1  -3 1576.74   66.01   2
   3  -1  -3 1310.15   54.48   2
  -3   1   3 1285.08   57.21   1
   3  -1  -3 1305.45   56.07   3
  -2   1   3 3920.26  152.56   1
   2  -1  -3 3846.75  146.15   2
   2  -1  -3 3765.13  152.99   3
  -1   1   3 3228.50  133.83   1
   1  -1  -3 3335.75  135.29   3
  -1   1   3 3538.20  127.09   2
   0   1   3   49.27    4.91   1
   0   1   3   31.66    3.16   2
   0  -1  -3   32.65    4.68   3
   1   1   3 1356.37   52.25   2
  -1  -1  -3 1267.45   55.74   3
   1   1   3 1171.24   52.67   1
  -2  -1  -3 5253.80  205.04   1
  -2  -1  -3 5334.90  205.73   3
   2   1   3 5061.46  199.84   2
  -3  -1  -3  388.04   22.64   1
   3   1   3  404.33   23.98   2
   4   1   3   88.79   10.66   2
  -4  -1  -3   93.24   10.17   1
  -6   2   3   63.83    9.71   1
   6  -2  -3   77.30    9.31   2
  -5   2   3  744.12   40.98   1
   5  -2  -3  754.76   37.56   2
  -4   2   3   87.05    9.63   1
   4  -2  -3   93.26    8.42   2
  -2   2   3 2811.67  116.77   1
   2  -2  -3 2875.81  108.09   2
   2  -2  -3 2842.20  116.74   3
  -1   2   3 1845.85   67.62   2
   1  -2  -3 1787.62   76.51   3
  -1   2   3 1697.76   75.53   1
   0   2   3 2512.43  105.47   1
   0  -2  -3 2575.31  107.68   3
   0   2   3 2658.61   98.26   2
   1   2   3   10.05    2.45   2
  -1  -2  -3   11.39    3.44   3
  -2  -2  -3  801.11   38.05   3
   2   2   3  744.54   35.96   2
   2   2   3  724.87   36.05   1
  -3  -2  -3 1355.44   62.58   1
   3   2   3 1342.17   61.26   2
   4   2   3  240.74   19.74   2
  -4  -2  -3  249.67   19.56   1
  -5   3   3 1370.44   66.79   1
  -4   3   3 3595.38  149.82   1
  -2   3   3    3.31    2.08   1
  -1   3   3 1895.44   83.28   1
   1  -3  -3 1936.94   83.58   3
   0   3   3   98.30    9.66   1
   1   3   3  694.87   36.25   1
   1   3   3  818.09   34.07   2
  -1  -3  -3  716.96   38.60   3
   2   3   3 1358.17   63.59   1
   2   3   3 1489.79   62.26   2
   3   3   3 1310.48   60.92   2
  -3  -3  -3 1315.79   63.85   1
   4   3   3   78.04   10.23   2
  -4  -3  -3   74.72   10.29   1
  -5   4   3  263.94   22.11   1
  -4   4   3  784.73   44.47   1
   4  -4  -3  849.15   42.31   3
  -3   4   3  687.53   38.98   1
   3  -4  -3  718.38   37.56   3
   2  -4  -3 2486.63  104.98   3
  -2   4   3 2391.36  105.64   1
   1  -4  -3 2783.92  117.66   3
  -1   4   3 2742.41  117.42   1
   0  -4  -3 1794.86   81.21   3
   0   4   3 1804.33   80.19   1
   1   4   3   83.83    9.44   1
  -1  -4  -3   93.70   10.67   3
   2   4   3 1319.27   62.21   1
  -3  -4  -3   19.10    5.60   1
  -5   5   3 1124.14   60.78   1
   4  -5  -3  873.43   45.52   3
  -4   5   3  858.09   48.59   1
  -3   5   3 1111.00   57.44   1
   3  -5  -3 1110.23   55.16   3
  -2   5   3   60.77    9.21   1
   2  -5  -3   68.41    9.22   3
  -1   5   3  527.95   32.26   1
   1  -5  -3  516.33   31.83   3
   0  -5  -3  552.12   33.31   3
   0   5   3  526.92   32.39   1
  -1  -5  -3   17.84    5.26   3
   1   5   3   22.06    5.61   1
   2   5   3  278.83   21.48   1
  -5   6   3  124.32   15.47   1
  -4   6   3 1183.08   62.89   1
   4  -6  -3 1147.81   58.83   3
  -3   6   3   31.48    7.79   1
   3  -6  -3   24.38    6.06   3
   2  -6  -3   10.73    4.56   3
  -2   6   3   19.79    6.25   1
   1  -6  -3 1893.62   89.46   3
  -1   6   3 1966.82   90.53   1
   0  -6  -3 1466.96   72.59   3
   0   6   3 1494.69   72.39   1
   1   6   3   45.02    7.62   1
  -4   7   3 1802.71   87.48   1
   4  -7  -3 1638.31   82.04   3
   3  -7  -3  985.22   53.70   3
  -3   7   3  972.92   55.99   1
   2  -7  -3   39.27    8.12   3
  -1   7   3  358.09   27.24   1
   1  -7  -3  298.19   25.02   3
   0  -7  -3  606.93   38.58   3
   0   7   3  574.39   37.71   1
   0  -9   4    4.19    1.95   3
  -1   9  -4  128.37   12.70   3
  -2   9  -4 1271.05   61.56   3
  -3   9  -4 1170.07   58.00   3
   0   8  -4 1015.29   49.34   3
  -1   8  -4  334.23   21.77   3
  -2   8  -4  144.11   12.85   3
  -3   8  -4  275.17   19.56   3
  -4   8  -4   39.31    6.04   3
   3   7  -4   42.77    9.63   2
   2   7  -4  214.11   20.09   2
   1   7  -4  380.19   22.30   3
  -1  -7   4  378.20   24.67   2
   0   7  -4  355.29   21.27   3
   1  -7   4   53.66    6.63   2
  -1   7  -4   56.31    6.88   3
  -2   7  -4 3053.12  128.08   3
   2  -7   4 3177.92  124.30   2
  -3   7  -4  901.17   44.77   3
   3  -7   4  951.26   43.56   2
  -4   7  -4   69.80    8.17   3
   3   6  -4   30.97    7.94   2
  -3  -6   4   37.80    5.75   1
  -2  -6   4  283.87   18.45   1
   2   6  -4  350.61   25.38   2
   1   6  -4 2910.98  118.10   2
  -1  -6   4 2826.73  112.08   1
   1   6  -4 2573.68  112.30   3
   0   6  -4  958.85   43.93   3
  -1   6  -4  655.14   32.40   3
  -2   6  -4 1073.62   48.60   3
   2  -6   4 1048.26   47.78   2
   3  -6   4  707.98   34.89   2
  -3   6  -4  693.27   34.87   3
   4  -6   4  120.04   11.30   2
  -4   6  -4   97.08    9.55   3
   5  -6   4  430.63   27.19   2
   4   5  -4 1284.81   66.53   2
  -4  -5   4 1281.20   61.14   1
   3   5  -4  679.14   40.48   2
  -3  -5   4  726.19   35.77   1
  -2  -5   4   42.47    4.99   1
   2   5  -4   40.70    7.86   2
  -1   5  -4 2004.47   80.78   3
   1  -5   4 1876.74   80.01   2
   2  -5   4  102.76    9.47   2
  -2   5  -4  130.18    9.81   3
  -3   5  -4 1678.16   72.47   3
   3  -5   4 1726.90   72.70   2
   4  -5   4 1458.88   65.75   2
   5  -5   4   42.37    6.90   2
  -4  -4   4  897.51   44.58   1
   4   4  -4  893.56   49.85   2
   3   4  -4   69.12    9.62   2
  -3  -4   4   71.57    7.44   1
   2   4  -4  121.91    8.61   3
   2   4  -4  149.05   13.44   2
   0   4  -4 2864.77  116.22   3
   0  -4   4 2956.33  115.67   2
  -1   4  -4  895.67   39.97   3
   2  -4   4  677.34   32.32   2
  -2   4  -4  625.39   30.59   3
   3  -4   4 1127.17   50.20   2
  -3   4  -4 1059.19   48.10   3
   4  -4   4   69.70    8.67   2
   5  -4   4   65.75    9.19   2
  -5  -3   4  967.77   50.55   1
   5   3  -4 1017.13   54.82   2
  -4  -3   4  814.20   40.23   1
   4   3  -4  787.76   44.15   2
  -3  -3   4 1911.60   81.08   1
   3   3  -4 1977.03   85.57   2
  -2  -3   4  160.69   10.49   1
   2   3  -4  181.66   10.24   3
   2   3  -4  170.58   13.78   2
   1   3  -4 1189.08   54.33   2
   1   3  -4 1255.30   51.44   3
  -1  -3   4 1228.04   49.51   1
   0  -3   4  685.48   26.98   1
   0  -3   4  694.27   32.02   2
   0   3  -4  659.05   30.69   3
   1  -3   4 1484.17   61.86   2
  -1   3  -4 1473.48   61.76   3
  -2   3  -4 1733.80   73.64   3
  -2   3  -4 1894.40   71.91   1
   2  -3   4 1722.69   73.85   2
   3  -3   4 2906.95  117.50   2
   4  -3   4 1500.98   68.07   2
   5  -3   4    9.89    3.96   2
   5   2  -4   15.08    5.24   2
  -4  -2   4  734.19   37.57   1
   4   2  -4  761.68   40.63   2
   3   2  -4  953.88   45.44   2
  -3  -2   4  882.44   41.60   1
  -2  -2   4   77.64    6.06   1
   2   2  -4   52.83    4.87   3
   2   2  -4   58.64    7.00   2
   1   2  -4 2674.08  109.24   2
  -1  -2   4 2761.43  107.07   1
   1   2  -4 2806.66  109.36   3
   0   2  -4 4785.31  185.81   3
   0  -2   4 4721.88  181.20   2
   1  -2   4  186.38   12.30   2
  -1   2  -4  188.15   11.63   3
  -1   2  -4  186.35    8.42   1
  -2   2  -4  651.85   30.28   3
   3  -2   4 1117.46   50.88   2
  -3   2  -4 1071.75   47.71   1
   4  -2   4  689.02   37.52   2
   5  -2   4   12.97    4.82   2
   5   1  -4    8.77    3.69   2
  -5  -1   4   10.90    3.85   1
  -4  -1   4 2277.26   95.58   1
   4   1  -4 2233.77   95.47   2
   3   1  -4 2209.43   91.45   2
  -3  -1   4 2193.00   90.77   1
  -2  -1   4  272.75   14.80   1
   2   1  -4  263.14   16.16   2
   2   1  -4  270.48   14.88   3
  -1  -1   4   25.81    2.93   1
   1   1  -4   30.88    4.28   2
   1   1  -4   30.51    3.97   3
   0  -1   4 2555.09  101.34   1
   0  -1   4 2560.17  101.44   2
   0   1  -4 2683.47  105.26   3
  -1   1  -4  745.58   33.69   3
   1  -1   4  694.77   32.77   2
  -2   1  -4  833.99   35.08   1
   2  -1   4  740.71   37.04   2
  -2   1  -4  838.75   36.95   3
   3  -1   4 1665.14   72.59   2
  -3   1  -4 1683.00   70.67   1
   4  -1   4 1354.28   62.93   2
  -4   1  -4 1273.87   59.64   1
   5  -1   4  344.65   26.13   2
  -5   0   4   20.24    5.07   1
   5   0  -4   20.07    5.00   2
  -4   0   4  161.26   12.83   1
   4   0  -4  132.64   12.02   2
   3   0  -4 1150.12   48.99   3
   3   0  -4 1098.81   49.67   2
  -3   0   4 1098.51   49.94   1
   2   0  -4 1054.53   46.92   2
   2   0  -4 1127.48   49.25   3
  -2   0   4 1142.81   48.47   1
  -1   0   4 3286.91  134.92   1
   1   0  -4 3462.61  137.57   3
  -1   0   4 3497.95  130.59   2
   0   0  -4 2647.39  110.59   3
   0   0   4 2859.41  104.96   2
   0   0   4 2610.77  107.14   1
   1   0   4 5115.91  193.24   1
  -1   0  -4 5007.53  197.59   3
   1   0   4 4841.94  189.58   2
   2   0   4    4.23    2.07   2
  -2   0  -4    2.06    1.14   1
  -2   0  -4    6.70    2.47   3
   3   0   4  515.33   29.78   2
  -3   0  -4  563.22   28.30   1
   4   0   4  389.39   26.06   2
  -4   0  -4  365.67   23.72   1
   6  -1  -4  624.26   35.91   2
  -5   1   4   29.54    6.26   1
   5  -1  -4   31.57    5.76   2
  -4   1   4  652.14   34.63   1
   4  -1  -4  635.78   32.41   2
   3  -1  -4 4178.74  172.45   3
  -3   1   4 4449.67  173.16   1
   3  -1  -4 4321.28  166.45   2
   2  -1  -4  960.98   45.01   3
   2  -1  -4 1003.43   41.01   2
  -2   1   4  909.69   43.86   1
   1  -1  -4   15.48    3.70   3
  -1   1   4   12.89    3.20   1
  -1   1   4   12.99    2.03   2
   0   1   4 1436.14   60.15   1
   0  -1  -4 1371.55   62.78   3
   0   1   4 1405.53   56.35   2
  -1  -1  -4  325.52   20.24   3
   1   1   4  292.20   17.11   1
   1   1   4  335.51   17.60   2
  -2  -1  -4  172.50   13.32   3
   2   1   4  173.09   12.87   2
   3   1   4  898.57   45.04   2
  -3  -1  -4  920.44   44.46   1
  -4  -1  -4 2037.02   88.54   1
   4   1   4 1892.53   87.87   2
  -5   2   4 1138.39   57.40   1
  -4   2   4  996.33   50.48   1
   4  -2  -4 1060.69   46.32   2
   3  -2  -4  900.13   37.15   2
  -3   2   4  768.97   41.26   1
  -2   2   4   18.23    4.47   1
   2  -2  -4   24.71    3.00   2
   2  -2  -4   34.09    5.46   3
  -1   2   4   29.71    2.69   2
   1  -2  -4   13.71    4.06   3
  -1   2   4   27.92    4.69   1
   0  -2  -4 2992.64  129.22   3
   0   2   4 3140.32  118.32   2
   0   2   4 3167.59  126.77   1
   2   2   4  679.25   33.38   2
   2   2   4  632.01   33.15   1
  -3  -2  -4  213.41   17.45   1
   3   2   4  230.84   17.63   2
   4   2   4  330.27   24.74   2
  -4  -2  -4  349.75   24.99   1
  -5   3   4   21.48    6.09   1
  -4   3   4  292.35   21.82   1
   4  -3  -4  288.00   19.99   3
  -3   3   4 3023.18  129.00   1
   3  -3  -4 3085.43  128.22   3
   2  -3  -4 3129.97  129.12   3
  -2   3   4 3002.07  128.33   1
  -1   3   4   14.52    4.24   1
   1  -3  -4   12.80    4.15   3
   0  -3  -4   93.16   10.79   3
   0   3   4  104.38   10.37   1
   1   3   4 2697.22  111.69   1
  -1  -3  -4 2630.32  115.04   3
   2   3   4  100.75   10.40   1
  -3  -3  -4  191.78   17.70   1
  -5   4   4  428.99   30.68   1
  -4   4   4   21.01    5.95   1
  -3   4   4  381.42   26.44   1
   3  -4  -4  398.68   25.88   3
   2  -4  -4  851.77   43.58   3
  -2   4   4  733.98   42.12   1
   1  -4  -4  144.91   14.13   3
  -1   4   4  126.97   12.93   1
   0   4   4 2144.94   92.13   1
   0  -4  -4 1988.56   93.23   3
   1   4   4 1089.30   52.77   1
  -1  -4  -4 1036.10   54.73   3
   2   4   4  999.26   51.05   1
  -3  -4  -4    1.39    1.43   1
  -5   5   4  259.88   23.35   1
  -4   5   4  564.66   36.33   1
   4  -5  -4  532.27   33.35   3
  -3   5   4  904.43   50.67   1
   3  -5  -4  955.69   49.89   3
   2  -5  -4 1024.26   53.25   3
  -2   5   4  991.32   53.38   1
  -1   5   4 1041.17   55.62   1
   1  -5  -4 1138.14   57.37   3
   0   5   4  357.78   25.04   1
   0  -5  -4  315.33   24.86   3
   1   5   4  367.52   25.71   1
   2   5   4  298.30   23.22   1
  -4   6   4  187.84   19.44   1
   4  -6  -4  193.28   18.14   3
  -3   6   4  406.85   29.92   1
   3  -6  -4  385.29   28.18   3
  -2   6   4 1706.54   83.40   1
   2  -6  -4 1738.58   83.27   3
  -1   6   4   42.59    8.55   1
   1  -6  -4   34.05    7.82   3
   0   6   4  171.61   17.08   1
   0  -6  -4  173.53   17.78   3
   1   6   4 1303.47   66.38   1
  -3   7   4  527.41   36.98   1
   3  -7  -4  507.28   35.18   3
  -2   7   4 2085.32   97.29   1
   2  -7  -4 1908.84   95.20   3
  -1   7   4  357.91   29.09   1
   1  -7  -4  436.99   31.58   3
   0  -7  -4    6.44    3.26   3
   0   9  -5  627.37   35.48   3
  -1   9  -5  470.47   28.98   3
  -2   9  -5   35.79    6.75   3
   0   8  -5  740.00   38.33   3
  -1   8  -5  799.14   40.81   3
  -2   8  -5  568.79   31.81   3
  -3   8  -5  163.84   14.14   3
  -4   8  -5  117.42   11.77   3
   3   7  -5  494.76   36.42   2
   2   7  -5 2751.47  122.87   2
   1   7  -5    6.09    2.38   3
  -1  -7   5    5.31    2.52   2
   0   7  -5  258.94   17.23   3
   0  -7   5  258.81   18.81   2
   1  -7   5 1015.98   49.22   2
  -1   7  -5 1067.37   49.23   3
   2  -7   5   87.29    9.36   2
  -2   7  -5   97.10    9.59   3
   3  -7   5  389.56   23.95   2
  -3   7  -5  390.99   23.77   3
   4  -7   5 1628.15   72.28   2
  -4   7  -5 1562.42   71.79   3
   3   6  -5  608.06   39.90   2
   2   6  -5   53.02    9.78   2
  -1  -6   5  631.34   34.95   2
   1   6  -5  635.27   31.50   3
   0   6  -5 1739.90   74.50   3
   0  -6   5 1749.93   75.81   2
   1  -6   5 2377.13  100.00   2
  -1   6  -5 2468.22  100.77   3
  -2   6  -5  401.82   22.85   3
   2  -6   5  392.16   23.54   2
  -3   6  -5  281.40   18.13   3
   3  -6   5  260.26   18.49   2
  -4   6  -5  841.50   42.75   3
   4  -6   5  915.26   45.54   2
   5  -6   5  190.16   17.17   2
  -4  -5   5  125.80   12.04   1
   4   5  -5  132.56   15.70   2
  -3  -5   5 1424.07   64.11   1
   3   5  -5 1477.04   71.66   2
   2   5  -5 1921.78   87.25   2
  -1  -5   5  152.01   13.24   2
   1   5  -5  161.18   11.17   3
   0  -5   5   77.08    8.51   2
   0   5  -5   80.32    7.49   3
  -1   5  -5  434.16   23.66   3
   1  -5   5  464.86   25.48   2
   2  -5   5  884.26   41.70   2
  -2   5  -5  834.33   40.08   3
  -3   5  -5  573.04   29.23   3
   3  -5   5  545.83   30.67   2
   4  -5   5  250.07   19.26   2
   5  -5   5 1989.48   89.98   2
  -4  -4   5   27.83    5.37   1
   4   4  -5   26.94    7.25   2
  -3  -4   5   18.09    3.76   1
   3   4  -5   11.70    4.78   2
   2   4  -5 2787.05  113.03   3
  -2  -4   5 2751.46  112.72   1
   2   4  -5 2930.47  119.11   2
   1   4  -5   21.06    3.36   3
   0   4  -5  459.79   23.59   3
  -1   4  -5 3248.22  130.19   3
   1  -4   5 3227.26  128.56   2
   2  -4   5 2493.34  102.90   2
  -2   4  -5 2536.34  103.25   3
   3  -4   5  182.17   14.70   2
  -3   4  -5  171.06   12.51   3
   4  -4   5  804.64   42.92   2
   5  -4   5  240.64   20.52   2
   5   3  -5  187.64   18.63   2
  -5  -3   5  165.77   15.25   1
  -4  -3   5  101.76    9.99   1
   4   3  -5   87.85   11.36   2
   3   3  -5 1171.44   56.02   2
  -3  -3   5 1130.51   51.24   1
   2   3  -5 2158.49   95.50   2
  -2  -3   5 2301.55   91.62   1
   2   3  -5 2350.22   92.16   3
   0  -3   5   43.59    5.63   2
   0   3  -5   48.24    5.36   3
  -2   3  -5  516.71   26.64   3
   2  -3   5  539.92   28.64   2
   3  -3   5  409.66   25.49   2
  -3   3  -5  445.26   23.38   3
   4  -3   5 1136.98   56.07   2
   5   2  -5 1077.21   56.00   2
  -5  -2   5 1016.50   52.27   1
   4   2  -5 1143.77   55.31   2
  -4  -2   5 1042.32   51.08   1
   3   2  -5 1051.29   50.38   2
  -2  -2   5  681.58   30.92   1
   2   2  -5  711.94   31.74   3
   2   2  -5  631.74   34.05   2
  -1  -2   5  106.59    9.23   2
  -1  -2   5  123.14    7.50   1
   1   2  -5  131.69    9.57   3
   0  -2   5   13.29    3.07   2
  -1   2  -5 2530.67  103.47   3
   1  -2   5 2525.66  101.53   2
  -3   2  -5   49.62    5.83   3
   3  -2   5   52.17    7.51   2
   4  -2   5   41.98    7.85   2
  -5  -1   5 1078.48   54.09   1
   5   1  -5 1105.43   55.89   2
   4   1  -5   17.64    5.00   2
  -4  -1   5    8.55    3.12   1
   3   1  -5   23.13    4.98   2
  -3  -1   5   39.00    5.09   1
   2   1  -5 4203.50  171.18   2
   2   1  -5 4531.20  175.37   3
  -2  -1   5 4501.13  173.55   1
  -1  -1   5 2324.34   93.28   2
   1   1  -5 2457.24   97.65   3
  -1  -1   5 2264.33   93.95   1
   0  -1   5 1459.93   61.27   2
   0   1  -5 1446.39   64.18   3
   0  -1   5 1521.21   59.70   1
   1  -1   5 1073.33   41.71   1
  -1   1  -5  971.76   46.28   3
   1  -1   5  977.99   44.86   2
   3  -1   5   10.22    3.92   2
   4  -1   5  386.70   27.01   2
   5   0  -5 1536.95   71.23   2
  -5   0   5 1542.65   72.26   1
   4   0  -5 1443.45   64.11   2
  -4   0   5 1379.93   64.36   1
   3   0  -5   62.65    6.96   3
  -3   0   5   60.29    7.00   1
  -2   0   5  159.13   11.67   1
   2   0  -5  165.99   11.78   2
   2   0  -5  161.23   12.64   3
  -1   0   5 1981.58   83.14   1
  -1   0   5 2037.56   80.22   2
   1   0  -5 2029.69   86.42   3
   0   0  -5   36.28    5.61   3
   1   0   5 1849.01   77.08   2
  -1   0  -5 1905.16   82.07   3
   1   0   5 1910.17   76.85   1
  -2   0  -5  595.41   28.78   1
   2   0   5  565.15   30.01   2
  -2   0  -5  540.85   30.10   3
  -3   0  -5 3016.00  123.06   1
   3   0   5 2974.85  123.57   2
   4   0   5    1.56    1.83   2
  -5   1   5  644.26   38.24   1
   5  -1  -5  709.62   37.31   2
  -4   1   5  638.31   35.90   1
   4  -1  -5  694.62   34.46   2
  -3   1   5  572.14   31.04   1
   0   1   5  201.36   12.13   2
   0  -1  -5  177.54   15.18   3
   0   1   5  211.89   13.86   1
   2   1   5  636.06   32.70   2
   3   1   5   97.91   10.94   2
  -3  -1  -5   80.22    9.35   1
   4   1   5   43.58    8.44   2
  -5   2   5 1329.68   65.85   1
  -4   2   5  504.92   30.87   1
  -3   2   5 1961.90   87.80   1
   3  -2  -5 2026.89   88.15   3
  -2   2   5 1453.93   66.86   1
   2  -2  -5 1499.45   68.63   3
   0  -2  -5  600.86   34.51   3
   0   2   5  577.34   31.13   1
  -1  -2  -5  463.94   29.38   3
   1   2   5  473.63   26.12   1
   2   2   5 2723.85  113.99   1
  -3  -2  -5  768.53   42.44   1
  -5   3   5  461.41   31.73   1
  -4   3   5  660.93   39.63   1
   4  -3  -5  725.89   38.92   3
  -3   3   5   12.29    4.28   1
   3  -3  -5   14.21    4.83   3
   2  -3  -5  885.76   45.63   3
  -2   3   5  795.54   43.47   1
   1  -3  -5 2858.41  121.84   3
  -1   3   5 2738.37  118.54   1
   0   3   5  632.28   34.93   1
   0  -3  -5  643.73   37.79   3
   1   3   5  149.39   13.32   1
  -1  -3  -5  171.04   16.28   3
   2   3   5   45.37    6.83   1
  -3  -3  -5 1788.77   85.59   1
  -5   4   5  440.64   31.83   1
   4  -4  -5 3112.57  133.55   3
  -4   4   5 3084.86  135.64   1
  -3   4   5   71.03    9.91   1
   3  -4  -5   70.77    9.83   3
  -2   4   5   42.70    8.08   1
   2  -4  -5   44.05    8.47   3
   1  -4  -5  695.80   40.74   3
  -1   4   5  670.54   38.57   1
   0  -4  -5  327.97   25.12   3
   0   4   5  314.80   22.90   1
   1   4   5   27.35    6.21   1
  -1  -4  -5   37.13    7.89   3
   2   4   5  897.38   48.15   1
   4  -5  -5  260.12   21.63   3
  -4   5   5  258.45   22.79   1
   3  -5  -5  763.09   43.54   3
  -3   5   5  696.97   42.82   1
  -2   5   5  573.63   36.22   1
   2  -5  -5  566.93   36.57   3
   1  -5  -5 1311.66   67.93   3
  -1   5   5 1326.98   66.30   1
   0   5   5 1790.19   85.17   1
   0  -5  -5 1845.78   88.41   3
   1   5   5  179.57   16.90   1
   4  -6  -5  933.94   52.53   3
  -4   6   5  920.70   54.26   1
   3  -6  -5  902.04   51.26   3
  -3   6   5  863.93   51.43   1
  -2   6   5   14.80    5.59   1
   2  -6  -5    9.84    4.26   3
   1  -6  -5  235.59   22.14   3
  -1   6   5  225.75   20.89   1
   0  -6  -5  597.31   39.20   3
   0   6   5  521.15   35.71   1
   0   9  -6   32.62    6.40   3
  -1   9  -6   18.37    4.97   3
  -2   9  -6  567.91   33.40   3
  -2  -8   6  221.00   20.48   2
  -1  -8   6  786.77   44.65   2
   0   8  -6   88.62    9.54   3
   0  -8   6   74.75    9.68   2
  -1   8  -6  192.23   15.29   3
   1  -8   6  180.20   15.57   2
   2  -8   6  805.26   42.38   2
  -2   8  -6  850.15   42.97   3
   3  -8   6 1380.57   64.96   2
  -3   8  -6 1425.41   65.96   3
  -4   8  -6   91.48   10.28   3
  -1  -7   6 1236.89   59.63   2
   1   7  -6 1132.68   54.19   3
   0   7  -6 2030.26   89.90   3
   0  -7   6 2178.96   92.09   2
  -1   7  -6   54.23    7.04   3
   1  -7   6   52.17    7.44   2
   2  -7   6   84.67    9.78   2
  -2   7  -6   96.80    9.85   3
  -3   7  -6  902.39   45.30   3
   3  -7   6  908.12   46.12   2
  -4   7  -6   16.03    4.36   3
   4  -7   6   10.69    4.12   2
   3   6  -6  514.24   36.70   2
   2   6  -6  206.21   19.96   2
   1   6  -6  583.92   30.78   3
  -1  -6   6  633.30   35.37   2
   0  -6   6   10.99    3.98   2
   0   6  -6    3.69    2.03   3
  -1   6  -6  419.53   23.86   3
   1  -6   6  408.53   25.19   2
   2  -6   6 2332.78   97.83   2
  -2   6  -6 2288.62   97.65   3
   3  -6   6  962.96   48.23   2
  -3   6  -6  966.41   46.65   3
   4  -6   6  492.22   31.08   2
   4   5  -6  416.72   32.14   2
   3   5  -6  240.03   21.99   2
   2   5  -6  485.54   32.16   2
  -1  -5   6 1682.15   76.39   2
   1   5  -6 1797.45   74.37   3
   0  -5   6 2066.62   87.61   2
   0   5  -6 2060.10   86.85   3
  -1   5  -6  301.98   18.61   3
   1  -5   6  293.05   19.71   2
  -2   5  -6  249.57   16.67   3
   2  -5   6  244.20   17.88   2
   3  -5   6  736.30   39.49   2
  -3   5  -6  750.83   37.41   3
   4  -5   6  106.85   12.36   2
   4   4  -6 1553.90   76.64   2
   3   4  -6  801.83   45.44   2
   2   4  -6  290.03   22.26   2
   2   4  -6  316.16   17.82   3
   1   4  -6  232.22   14.78   3
  -1  -4   6  217.23   16.32   2
   0   4  -6 3817.42  154.50   3
   0  -4   6 3891.54  152.58   2
  -1   4  -6  171.96   12.71   3
   1  -4   6  169.31   13.55   2
  -2   4  -6  660.30   33.74   3
   2  -4   6  683.11   35.69   2
  -3   4  -6 1526.50   66.51   3
   3  -4   6 1464.82   68.26   2
   4  -4   6  770.74   43.24   2
  -5  -3   6    1.13    1.36   1
   4   3  -6  934.16   48.75   2
  -4  -3   6  787.12   42.32   1
   3   3  -6  133.21   13.87   2
   2   3  -6   36.03    6.93   2
   1   3  -6 1219.98   53.37   3
  -1  -3   6 1181.33   53.83   2
   0  -3   6 2063.95   85.15   2
   0   3  -6 2037.37   86.10   3
  -1   3  -6 1793.63   76.86   3
   1  -3   6 1803.28   76.25   2
  -2   3  -6   72.22    7.68   3
   2  -3   6   71.44    8.64   2
   3  -3   6  313.18   21.95   2
  -3   3  -6  298.63   19.16   3
   4  -3   6  738.32   42.20   2
   5   2  -6  943.74   51.47   2
  -5  -2   6  933.30   48.66   1
  -4  -2   6  811.96   41.05   1
   4   2  -6  810.57   44.01   2
   3   2  -6 2445.47  105.24   2
  -3  -2   6 2527.96  102.86   1
   2   2  -6  582.10   29.32   3
  -2  -2   6  577.24   27.78   1
   2   2  -6  564.75   31.41   2
   1   2  -6 1616.98   69.95   3
  -1  -2   6 1616.22   68.36   2
   0  -2   6  260.90   16.99   2
   0   2  -6  294.57   18.14   3
   1  -2   6  432.09   24.58   2
  -1   2  -6  455.02   25.08   3
  -2   2  -6  186.45   13.84   3
   2  -2   6  170.15   14.13   2
   3  -2   6 1641.54   74.56   2
   4  -2   6 1393.21   67.83   2
   5   1  -6  267.59   21.11   2
  -5  -1   6  233.25   19.13   1
  -4  -1   6  244.74   18.33   1
   4   1  -6  296.25   20.82   2
   3   1  -6 1443.48   64.36   2
  -3  -1   6 1436.28   63.07   1
   3   1  -6 1388.72   62.71   3
  -2  -1   6  214.62   13.95   1
  -1  -1   6  581.44   28.26   2
   1   1  -6  540.92   30.18   3
  -1  -1   6  579.65   27.34   1
   0   1  -6 6081.83  241.65   3
   1  -1   6  305.16   18.84   2
  -1   1  -6  290.89   19.64   3
   2  -1   6  425.30   25.31   2
  -2   1  -6  433.71   25.41   3
   3  -1   6  580.50   33.85   2
   4  -1   6  531.56   34.56   2
   5   0  -6   19.37    5.36   2
  -5   0   6   17.94    5.10   1
  -4   0   6 1623.83   75.21   1
   4   0  -6 1710.08   73.91   2
   3   0  -6 1468.72   61.70   2
   3   0  -6 1287.07   62.25   3
  -3   0   6 1379.14   62.32   1
  -2   0   6  817.40   40.16   1
  -2   0   6  869.49   38.39   2
   2   0  -6  834.07   42.35   3
  -1   0   6    6.02    2.22   1
  -1   0   6    6.30    2.00   2
   1   0  -6    6.74    3.01   3
   0   0   6  131.97   10.05   2
   0   0  -6  106.84   11.47   3
   0   0   6  139.17    9.89   1
   1   0   6 1892.14   78.56   2
  -1   0  -6 1882.29   84.15   3
   2   0   6   38.71    6.20   2
  -2   0  -6   50.93    7.21   3
   3   0   6  960.97   49.02   2
   4   0   6  801.04   46.05   2
  -5   1   6   15.19    4.51   1
  -4   1   6   59.01    8.22   1
   3  -1  -6 1499.12   70.69   3
  -3   1   6 1588.03   70.59   1
   2  -1  -6  181.59   15.54   3
  -2   1   6  165.95   13.59   1
  -1   1   6  741.98   37.09   1
  -1   1   6  736.13   33.07   2
   1  -1  -6  731.18   40.23   3
   0  -1  -6 1073.04   55.23   3
   0   1   6 1143.62   48.11   2
   0   1   6 1116.03   50.81   1
   1   1   6 3176.19  127.07   1
  -1  -1  -6 2969.74  132.90   3
   1   1   6 3233.90  124.53   2
  -2  -1  -6   99.60   11.41   3
   2   1   6  104.91   10.53   2
   3   1   6  133.07   13.66   2
  -5   2   6  161.92   16.37   1
  -4   2   6  384.19   26.51   1
   3  -2  -6 2212.40   99.07   3
  -3   2   6 2251.34   98.43   1
   2  -2  -6 2280.22  101.46   3
  -2   2   6 2272.04   98.70   1
  -1   2   6  222.20   16.84   1
   1  -2  -6  232.15   19.39   3
   0   2   6 1980.70   84.42   1
   0  -2  -6 1877.96   88.96   3
   1   2   6   97.38    9.72   1
  -1  -2  -6   85.28   11.19   3
   2   2   6  322.56   21.50   1
  -5   3   6  855.60   49.64   1
   4  -3  -6   80.55   10.42   3
  -4   3   6   77.00   10.64   1
  -3   3   6  530.75   32.54   1
   3  -3  -6  498.02   32.38   3
   2  -3  -6  194.59   18.13   3
  -2   3   6  209.82   17.42   1
  -1   3   6   26.29    5.85   1
   1  -3  -6   19.06    5.89   3
   0  -3  -6  697.07   41.90   3
   0   3   6  686.42   37.95   1
   1   3   6 1885.93   86.62   1
  -1  -3  -6 2023.31   93.18   3
   2   3   6  356.46   24.54   1
   4  -4  -6   84.91   11.41   3
  -4   4   6  104.59   13.00   1
   3  -4  -6 1446.25   71.05   3
  -3   4   6 1379.91   69.84   1
  -2   4   6 2085.43   97.30   1
   2  -4  -6 2204.51  100.38   3
  -1   4   6   69.31    9.27   1
   1  -4  -6   31.88    7.89   3
   0  -4  -6    5.29    3.28   3
   0   4   6    4.17    2.28   1
   1   4   6 1258.17   63.54   1
  -1  -4  -6 1344.90   69.12   3
   4  -5  -6  154.47   16.53   3
  -4   5   6  141.50   16.33   1
   3  -5  -6  520.45   35.02   3
  -3   5   6  478.69   33.76   1
   2  -5  -6  566.55   37.38   3
  -2   5   6  506.23   34.44   1
  -1   5   6  293.28   23.87   1
   1  -5  -6  326.21   26.83   3
   0   5   6  811.90   46.19   1
   0  -5  -6  807.81   49.51   3
  -2   6   6  736.49   45.30   1
   0   9  -7  601.27   34.66   3
  -1  -8   7  673.30   40.80   2
   0   8  -7  405.64   25.35   3
   0  -8   7  396.99   27.46   2
  -1   8  -7  473.78   28.61   3
   1  -8   7  468.51   29.76   2
   2  -8   7   67.20    8.94   2
  -2   8  -7   70.66    8.88   3
   3  -8   7  175.91   16.47   2
  -3   8  -7  216.79   17.20   3
  -2  -7   7 1013.18   55.54   2
   1   7  -7  275.61   19.09   3
  -1  -7   7  305.14   23.36   2
   0  -7   7  507.97   31.30   2
   0   7  -7  500.41   28.63   3
  -1   7  -7 1286.40   59.11   3
   1  -7   7 1230.95   60.00   2
   2  -7   7  360.46   24.91   2
  -2   7  -7  393.39   24.27   3
  -3   7  -7   24.21    5.36   3
   3  -7   7   24.43    6.07   2
  -4   7  -7    7.69    3.08   3
   3   6  -7  528.04   38.09   2
  -2  -6   7 1671.45   79.15   2
  -1  -6   7  594.54   34.71   2
   1   6  -7  539.80   29.92   3
   0   6  -7  237.15   16.83   3
   0  -6   7  247.75   19.00   2
   1  -6   7  889.27   44.62   2
  -1   6  -7  837.02   42.56   3
   2  -6   7  223.32   17.84   2
  -2   6  -7  209.59   16.06   3
  -3   6  -7   20.17    4.72   3
   3  -6   7   15.54    4.98   2
   4  -6   7 2108.27   95.79   2
   3   5  -7  674.20   42.86   2
  -2  -5   7   76.99   10.20   2
  -1  -5   7  628.52   35.81   2
   1   5  -7  656.89   33.27   3
   0  -5   7  497.54   29.00   2
   0   5  -7  482.16   27.17   3
   1  -5   7 1814.29   79.42   2
  -1   5  -7 1812.82   79.24   3
   2  -5   7 1482.97   67.93   2
  -2   5  -7 1474.56   66.91   3
   3  -5   7  192.02   17.21   2
  -3   5  -7  220.65   16.33   3
   4  -5   7  288.87   23.35   2
   4   4  -7   12.19    5.04   2
   3   4  -7  938.80   51.91   2
   2   4  -7 2840.57  116.90   3
  -1  -4   7  275.06   19.84   2
   1   4  -7  304.35   18.75   3
   0  -4   7    3.76    2.40   2
   0   4  -7    1.63    1.58   3
   1  -4   7  257.10   18.31   2
  -1   4  -7  254.22   17.49   3
  -2   4  -7  618.70   34.41   3
   2  -4   7  705.87   37.14   2
  -3   4  -7   50.00    6.82   3
   3  -4   7   40.72    7.71   2
   4  -4   7   53.94    9.63   2
   4   3  -7   51.34    9.76   2
   3   3  -7   52.52    8.49   2
   2   3  -7 2002.77   82.09   3
  -2  -3   7 1808.80   81.92   2
  -1  -3   7  257.38   17.99   2
   1   3  -7  269.53   17.77   3
   0   3  -7   91.47    9.45   3
   0  -3   7   97.62    9.84   2
   1  -3   7 2222.84   91.57   2
  -1   3  -7 2110.51   92.76   3
  -2   3  -7 1908.30   84.00   3
   2  -3   7 1942.51   84.25   2
  -3   3  -7  365.23   23.26   3
   3  -3   7  366.91   25.54   2
   4  -3   7  324.43   25.58   2
  -5  -2   7  251.60   20.50   1
   5   2  -7  297.37   23.99   2
   4   2  -7  326.58   24.66   2
   3   2  -7 1004.53   50.92   2
   2   2  -7  629.43   32.38   3
  -2  -2   7  572.34   31.48   2
   1   2  -7 4186.02  171.72   3
  -1  -2   7 4281.30  165.84   2
   0  -2   7   61.99    7.31   2
   0   2  -7   49.19    7.04   3
   1  -2   7  548.64   29.75   2
  -1   2  -7  537.18   30.61   3
  -2   2  -7  463.23   27.48   3
   2  -2   7  448.85   27.48   2
   3  -2   7  453.48   29.63   2
   4  -2   7  438.59   30.82   2
   5   1  -7 1260.42   62.85   2
  -5  -1   7 1231.86   62.11   1
  -4  -1   7 1095.06   54.25   1
   4   1  -7 1134.85   55.99   2
   3   1  -7    3.11    1.98   3
   3   1  -7    3.03    1.78   2
  -3  -1   7    2.04    1.53   1
   2   1  -7 1486.17   69.15   3
  -2  -1   7 1554.98   65.71   2
  -1  -1   7   96.62    9.00   2
   1   1  -7   92.54   10.35   3
   0   1  -7    8.26    3.61   3
   0  -1   7   11.09    3.26   2
  -1   1  -7  347.79   23.83   3
   1  -1   7  372.19   22.48   2
   2  -1   7 2667.35  111.50   2
  -2   1  -7 2675.61  114.88   3
   3  -1   7  221.30   18.92   2
  -5   0   7  533.50   33.66   1
   4   0  -7  172.66   14.97   2
  -4   0   7  143.32   13.87   1
   3   0  -7   12.04    4.21   3
  -3   0   7   11.71    3.66   1
   3   0  -7   11.87    3.65   2
  -2   0   7 3111.12  118.61   2
   2   0  -7 2851.61  126.54   3
   0   0  -7 1022.50   53.45   3
   0   0   7 1082.97   47.45   2
   1   0   7  153.43   12.45   2
  -1   0  -7  123.57   13.42   3
   2   0   7  837.33   42.59   2
  -2   0  -7  800.98   44.44   3
   3   0   7  393.02   27.02   2
  -5   1   7 1170.84   60.99   1
  -4   1   7 1868.05   85.99   1
   3  -1  -7    4.52    2.89   3
  -3   1   7    8.85    3.31   1
   2  -1  -7    7.92    3.90   3
  -2   1   7   10.64    3.68   1
   1  -1  -7 2352.76  103.52   3
  -1   1   7 2224.90   97.06   1
   0  -1  -7   93.70   11.85   3
  -1  -1  -7  541.48   34.62   3
  -5   2   7  334.24   26.28   1
  -4   2   7  802.09   45.28   1
  -3   2   7   75.24    9.63   1
   3  -2  -7   64.70    9.63   3
  -2   2   7  451.83   28.31   1
   2  -2  -7  468.97   31.42   3
   1  -2  -7 1569.05   77.86   3
  -1   2   7 1625.15   72.91   1
   0  -2  -7 1570.33   77.17   3
   0   2   7 1533.74   70.52   1
  -1  -2  -7    4.69    2.64   3
  -4   3   7  304.23   24.30   1
   4  -3  -7  304.94   24.18   3
  -3   3   7 1061.16   57.07   1
   3  -3  -7 1171.93   60.08   3
  -2   3   7  313.51   23.21   1
   2  -3  -7  315.24   25.47   3
  -1   3   7  459.27   29.15   1
   1  -3  -7  455.94   32.72   3
   0   3   7  406.42   26.56   1
   0  -3  -7  402.16   30.57   3
   1   3   7   21.56    5.31   1
  -1  -3  -7   21.19    6.65   3
  -4   4   7  878.13   51.10   1
   4  -4  -7  892.79   51.02   3
   3  -4  -7  123.08   14.80   3
  -3   4   7  101.29   12.73   1
   2  -4  -7   89.25   12.62   3
  -2   4   7   89.38   11.34   1
   1  -4  -7 2658.02  123.46   3
  -1   4   7 2683.74  118.23   1
   0   4   7  647.60   38.57   1
   0  -4  -7  662.50   43.49   3
   1   4   7   15.49    4.83   1
  -3   5   7  502.13   34.99   1
  -2   5   7   32.61    7.35   1
   2  -5  -7   45.03    9.74   3
  -1   5   7  433.70   30.75   1
   1  -9   8  255.45   21.22   2
  -1  -8   8 1288.55   66.46   2
   0   8  -8  357.38   24.17   3
   0  -8   8  366.75   26.79   2
   1  -8   8  198.34   17.80   2
  -1   8  -8  174.13   15.62   3
   2  -8   8  727.48   41.64   2
  -2  -7   8   55.10   10.16   2
   1   7  -8  413.65   26.01   3
  -1  -7   8  454.49   30.75   2
   0   7  -8  318.63   21.67   3
   0  -7   8  324.08   24.06   2
   1  -7   8  236.60   19.54   2
  -1   7  -8  244.22   18.37   3
  -2   7  -8  151.04   13.79   3
   2  -7   8  132.44   13.97   2
   3  -7   8 1923.05   87.55   2
  -3   7  -8 1862.83   85.72   3
  -2  -6   8  120.62   14.20   2
   1   6  -8 1234.64   58.69   3
  -1  -6   8 1281.42   62.51   2
   0   6  -8 1969.94   88.17   3
   0  -6   8 2057.19   89.83   2
  -1   6  -8   56.33    7.81   3
   1  -6   8   57.14    8.26   2
  -2   6  -8  140.38   13.28   3
   2  -6   8  151.21   14.73   2
   3  -6   8  505.84   32.44   2
  -3   6  -8  486.17   29.92   3
   3   5  -8 1230.78   66.49   2
  -2  -5   8   17.75    5.52   2
   1   5  -8  892.34   43.79   3
  -1  -5   8  849.30   45.50   2
   0  -5   8   45.75    7.16   2
   0   5  -8   44.63    6.67   3
   1  -5   8  394.51   25.43   2
  -1   5  -8  378.14   24.37   3
   2  -5   8  888.98   46.36   2
  -2   5  -8  848.45   44.61   3
  -3   5  -8  814.05   42.99   3
   3  -5   8  796.91   44.88   2
   3   4  -8  628.61   39.97   2
  -2  -4   8  290.98   21.85   2
   2   4  -8  291.44   19.43   3
  -1  -4   8  990.34   49.27   2
   1   4  -8 1004.78   48.48   3
   0   4  -8 1551.87   71.69   3
   0  -4   8 1636.15   71.72   2
  -1   4  -8  534.85   31.17   3
   1  -4   8  566.11   32.00   2
  -2   4  -8    4.29    2.47   3
   2  -4   8    0.86    1.80   2
  -3   4  -8  802.52   43.28   3
   3  -4   8  836.89   45.94   2
   4   3  -8 2321.59  106.48   2
   3   3  -8  793.64   45.13   2
   2   3  -8  315.31   20.69   3
  -2  -3   8  291.50   21.10   2
  -1  -3   8    2.54    2.14   2
   1   3  -8    5.67    2.75   3
   0   3  -8 2504.16  108.65   3
   0  -3   8 2560.18  105.35   2
   1  -3   8   90.30   10.16   2
  -1   3  -8   83.38    9.87   3
  -2   3  -8  169.72   15.11   3
   2  -3   8  181.95   16.07   2
   3  -3   8 1582.12   75.39   2
   4   2  -8  306.47   24.32   2
   2   2  -8   18.93    4.91   3
  -2  -2   8   22.63    5.26   2
   1   2  -8  901.82   48.03   3
  -1  -2   8 1012.60   46.16   2
   0   2  -8  680.50   38.62   3
   0  -2   8  733.19   36.38   2
  -1   2  -8 2470.31  111.25   3
   1  -2   8 2664.06  107.68   2
  -2   2  -8   65.64    8.96   3
   2  -2   8   55.25    8.20   2
   3  -2   8    6.85    3.53   2
   5   1  -8  365.52   27.50   2
   4   1  -8  679.86   39.35   2
   3   1  -8 1786.67   81.78   3
  -3  -1   8 1816.97   78.60   2
  -2  -1   8  734.24   36.60   2
   2   1  -8  722.71   40.26   3
  -1  -1   8   82.77    8.58   2
   1   1  -8   79.85   10.36   3
   0  -1   8 1316.14   57.95   2
   0   1  -8 1265.71   63.55   3
  -1   1  -8   59.88    9.10   3
   1  -1   8   80.00    9.21   2
  -2   1  -8   28.16    6.46   3
   3  -1   8  740.16   42.83   2
   3   0  -8  334.99   24.25   3
   2   0  -8  740.15   42.23   3
   1   0  -8   41.66    8.31   3
   0   0  -8 3349.34  145.04   3
  -1   0  -8  863.67   48.66   3
  -2   0  -8  414.94   29.35   3
  -5   1   8   96.28   12.24   1
  -4   1   8  500.38   32.39   1
   3  -1  -8 1675.63   80.27   3
   2  -1  -8  840.04   47.69   3
   1  -1  -8    5.12    3.26   3
   0  -1  -8    5.67    3.41   3
  -1  -1  -8 1005.81   56.07   3
  -4   2   8   32.52    7.10   1
   3  -2  -8 1004.70   55.96   3
  -3   2   8 1055.97   54.02   1
   2  -2  -8  482.01   33.70   3
   1  -2  -8  298.98   25.33   3
   0  -2  -8  419.62   31.72   3
  -1  -2  -8 1246.04   67.45   3
   4  -3  -8  152.20   16.69   3
  -4   3   8  144.82   15.89   1
   3  -3  -8  949.05   54.12   3
  -3   3   8  924.96   51.11   1
   2  -3  -8 1254.84   67.39   3
  -2   3   8 1233.29   62.30   1
   1  -3  -8 1071.07   60.93   3
   0  -3  -8 1008.37   58.85   3
  -1  -3  -8  284.33   25.88   3
  -3   4   8  194.11   18.85   1
  -2   4   8  415.28   29.36   1
  -1   4   8   13.86    4.16   1
   1   7  -9  402.02   27.01   3
  -1  -7   9  488.05   32.52   2
   0  -7   9   54.11    8.62   2
   0   7  -9   47.16    7.32   3
   1  -7   9  713.70   41.31   2
  -1   7  -9  717.68   40.03   3
   2  -7   9  159.41   16.22   2
  -2  -6   9 1046.52   57.24   2
  -1  -6   9   32.68    7.49   2
   0   6  -9  143.50   13.94   3
   0  -6   9  162.83   15.69   2
  -1   6  -9 1587.74   75.80   3
   1  -6   9 1681.36   76.44   2
  -2   6  -9  739.27   41.62   3
   2  -6   9  758.42   43.07   2
  -2  -5   9  870.31   48.42   2
   2   5  -9  861.70   44.55   3
  -1  -5   9  876.00   45.52   2
   1   5  -9  770.63   42.69   3
   0   5  -9    9.81    3.79   3
   0  -5   9   10.99    4.42   2
  -1   5  -9  396.91   26.60   3
   1  -5   9  414.35   27.24   2
   2  -5   9  185.48   17.18   2
  -2   5  -9  156.41   15.24   3
  -3   5  -9  165.32   15.70   3
  -3  -4   9  423.87   30.03   2
  -2  -4   9  176.06   16.43   2
   2   4  -9  153.75   14.05   3
   1   4  -9  843.36   44.90   3
  -1  -4   9  889.27   45.49   2
   0   4  -9  449.64   28.87   3
   0  -4   9  482.71   29.08   2
   1  -4   9  880.09   44.87   2
  -1   4  -9  800.48   44.44   3
   2  -4   9 1233.27   59.87   2
  -2   4  -9 1128.22   58.72   3
  -3   4  -9  301.40   22.89   3
   4   3  -9   99.26   13.27   2
  -3  -3   9    6.15    3.44   2
  -2  -3   9 3383.60  138.15   2
   2   3  -9 3309.08  141.03   3
   1   3  -9  497.16   31.21   3
  -1  -3   9  531.89   30.44   2
   0  -3   9  240.60   18.20   2
   0   3  -9  241.67   19.60   3
   1  -3   9  424.49   26.43   2
  -1   3  -9  370.73   26.55   3
   2  -3   9  656.84   37.58   2
  -2   3  -9  615.85   37.47   3
  -3  -2   9    3.28    2.05   2
  -2  -2   9  327.92   21.62   2
   2   2  -9  289.18   22.24   3
  -1  -2   9  519.89   29.22   2
   1   2  -9  493.93   31.90   3
   0  -2   9    2.06    1.65   2
   0   2  -9    3.42    2.50   3
  -1   2  -9  475.08   31.97   3
   1  -2   9  518.66   30.41   2
  -2   2  -9 1328.04   67.12   3
   2  -2   9 1345.88   64.75   2
   3   1  -9  566.52   34.87   3
   2   1  -9  542.90   34.95   3
  -2  -1   9  587.28   31.17   2
  -1  -1   9 2301.56   95.72   2
   1   1  -9 2298.51  104.91   3
   0   1  -9  259.93   22.58   3
   0  -1   9  306.15   19.85   2
   1  -1   9  121.66   11.98   2
  -1   1  -9   93.79   12.43   3
  -2   1  -9  536.11   35.91   3
   2  -1   9  587.50   34.65   2
   3   0  -9  388.14   28.11   3
   2   0  -9  864.51   49.25   3
   1   0  -9  420.01   30.64   3
   0   0  -9  130.31   15.45   3
  -1   0  -9  319.59   26.38   3
   3  -1  -9   89.69   12.24   3
   2  -1  -9  964.02   54.81   3
   1  -1  -9  988.03   56.57   3
   0  -1  -9  687.67   44.45   3
  -1  -1  -9   10.95    4.65   3
   3  -2  -9    3.42    2.97   3
   2  -2  -9   41.86    9.31   3
   1  -2  -9 1246.74   68.63   3
   0  -2  -9  185.77   20.47   3
   1   6 -10  214.27   18.29   3
  -1  -6  10  215.09   19.77   2
   0  -6  10  526.64   33.40   2
   0   6 -10  483.21   31.77   3
   1  -6  10  215.98   19.27   2
  -1   6 -10  208.29   18.61   3
   2   5 -10   15.51    4.64   3
  -2  -5  10   13.29    5.32   2
  -1  -5  10  971.96   51.52   2
   1   5 -10  967.73   51.04   3
   0   5 -10 1623.30   78.31   3
   0  -5  10 1687.35   77.28   2
  -1   5 -10  394.13   28.05   3
   1  -5  10  416.35   28.21   2
  -2  -4  10  156.57   15.62   2
   2   4 -10  146.67   14.45   3
   1   4 -10  203.08   18.21   3
  -1  -4  10  230.68   18.83   2
   0   4 -10  193.52   17.80   3
   0  -4  10  193.48   16.87   2
  -1   4 -10  573.75   36.94   3
   1  -4  10  663.15   37.24   2
  -2   4 -10  432.28   30.14   3
  -3  -3  10  487.64   32.18   2
  -2  -3  10   11.51    4.50   2
   2   3 -10    7.85    3.52   3
  -1  -3  10  640.22   35.05   2
   1   3 -10  556.86   36.14   3
   0  -3  10 1285.50   58.50   2
   0   3 -10 1115.58   61.11   3
   1  -3  10  143.33   14.33   2
  -1   3 -10  143.63   15.64   3
   2  -3  10  496.28   31.77   2
  -2   3 -10  438.11   31.63   3
  -3  -2  10 1204.31   59.21   2
  -2  -2  10  369.72   24.26   2
   2   2 -10  358.24   26.67   3
   1   2 -10    5.49    3.14   3
  -1  -2  10    3.32    2.12   2
   0   2 -10  760.93   46.86   3
   0  -2  10  886.53   43.45   2
  -1   2 -10  412.48   31.19   3
   1  -2  10  484.36   29.47   2
   2  -2  10  128.45   14.10   2
   3   1 -10  669.87   41.00   3
   2   1 -10  172.14   17.73   3
   1   1 -10  269.26   23.65   3
   0   1 -10  539.21   37.12   3
  -1   1 -10 1990.74   96.71   3
   3   0 -10 1112.03   60.67   3
   2   0 -10  445.39   32.87   3
   1   0 -10   77.67   12.10   3
   0   0 -10  453.48   34.32   3
   2  -1 -10  373.12   30.45   3
   2   4 -11  387.56   27.89   3
  -1  -4  11 1297.70   63.87   2
   0  -4  11    7.51    3.21   2
   2   3 -11  163.20   17.04   3
  -2  -3  11  175.64   16.25   2
  -1  -3  11  622.83   34.35   2
   1   3 -11  470.46   34.77   3
   0  -3  11   13.84    4.74   2
   0   0   0    0.00    0.00   0
;
_shelx_hkl_checksum              61961
loop_
_space_group_symop_operation_xyz
'x, y, z'
'-x, -y, -z'
loop_
_atom_site_label
_atom_site_type_symbol
_atom_site_fract_x
_atom_site_fract_y
_atom_site_fract_z
_atom_site_U_iso_or_equiv
_atom_site_adp_type
_atom_site_occupancy
_atom_site_site_symmetry_order
_atom_site_calc_flag
_atom_site_refinement_flags_posn
_atom_site_refinement_flags_adp
_atom_site_refinement_flags_occupancy
_atom_site_disorder_assembly
_atom_site_disorder_group
Ba1 Ba 0.64228(6) 0.97470(4) 0.24051(3) 0.00809(14) Uani 1 1 d . . . . .
Fe1 Fe 0.5000 0.5000 0.5000 0.0045(2) Uani 1 2 d S . P . .
P1 P 0.1191(3) 0.32608(19) 0.12453(16) 0.0062(3) Uani 1 1 d . . . . .
P2 P 0.0450(3) 0.68629(19) 0.35856(15) 0.0047(3) Uani 1 1 d . . . . .
O1 O 0.2462(8) 0.2925(5) 0.2817(4) 0.0075(7) Uani 1 1 d . . . . .
O2 O 0.3338(8) 0.3426(5) 0.0098(4) 0.0090(7) Uani 1 1 d . . . . .
O3 O -0.1727(8) 0.1702(6) 0.0338(4) 0.0103(7) Uani 1 1 d . . . . .
O4 O 0.0827(8) 0.5404(5) 0.1862(4) 0.0083(7) Uani 1 1 d . . . . .
O5 O 0.1547(8) 0.8926(5) 0.3569(5) 0.0084(7) Uani 1 1 d . . . . .
O6 O 0.2369(8) 0.6647(5) 0.5027(4) 0.0073(7) Uani 1 1 d . . . . .
O7 O 0.7209(8) 0.6319(6) 0.3638(4) 0.0091(7) Uani 1 1 d . . . . .
H1 H 0.2546 0.2974 -0.0935 0.050 Uiso 0.5 1 d . U P . .
loop_
_atom_site_aniso_label
_atom_site_aniso_U_11
_atom_site_aniso_U_22
_atom_site_aniso_U_33
_atom_site_aniso_U_23
_atom_site_aniso_U_13
_atom_site_aniso_U_12
Ba1 0.00830(19) 0.00808(19) 0.0072(2) 0.00178(13) 0.00223(13) 0.00259(13)
Fe1 0.0049(4) 0.0048(5) 0.0044(5) 0.0019(4) 0.0016(4) 0.0020(4)
P1 0.0060(6) 0.0070(6) 0.0048(6) 0.0011(5) 0.0000(5) 0.0025(5)
P2 0.0048(5) 0.0053(6) 0.0044(6) 0.0016(4) 0.0016(4) 0.0019(4)
O1 0.0108(16) 0.0083(16) 0.0050(16) 0.0033(13) 0.0014(13) 0.0044(14)
O2 0.0131(17) 0.0085(17) 0.0049(17) -0.0001(13) 0.0046(14) 0.0046(14)
O3 0.0077(16) 0.0138(18) 0.0070(17) 0.0031(14) 0.0012(14) 0.0009(14)
O4 0.0133(17) 0.0094(17) 0.0039(16) 0.0014(14) 0.0046(14) 0.0062(14)
O5 0.0098(16) 0.0048(16) 0.0123(18) 0.0044(14) 0.0045(14) 0.0027(13)
O6 0.0057(15) 0.0113(17) 0.0079(17) 0.0054(14) 0.0031(13) 0.0045(14)
O7 0.0097(17) 0.0121(18) 0.0080(17) 0.0051(14) 0.0030(14) 0.0051(14)
loop_
_atom_type_symbol
_atom_type_description
_atom_type_scat_dispersion_real
_atom_type_scat_dispersion_imag
_atom_type_scat_source
O O 0.0106 0.0060 'International Tables Vol C Tables 4.2.6.8 and 6.1.1.4'
P P 0.1023 0.0942 'International Tables Vol C Tables 4.2.6.8 and 6.1.1.4'
Ba Ba -0.3244 2.2819 'International Tables Vol C Tables 4.2.6.8 and 6.1.1.4'
Fe Fe 0.3463 0.8444 'International Tables Vol C Tables 4.2.6.8 and 6.1.1.4'
H H 0.0000 0.0000 'International Tables Vol C Tables 4.2.6.8 and 6.1.1.4'
loop_
_geom_angle_atom_site_label_1
_geom_angle_atom_site_label_2
_geom_angle_atom_site_label_3
_geom_angle
_geom_angle_site_symmetry_1
_geom_angle_site_symmetry_3
O5 Ba1 O2 112.30(11) . 2_665
O5 Ba1 O3 135.33(11) . 1_665
O2 Ba1 O3 83.10(11) 2_665 1_665
O5 Ba1 O3 74.01(11) . 2_565
O2 Ba1 O3 66.65(11) 2_665 2_565
O3 Ba1 O3 74.93(12) 1_665 2_565
O5 Ba1 O6 81.35(11) . 2_676
O2 Ba1 O6 165.91(11) 2_665 2_676
O3 Ba1 O6 89.44(11) 1_665 2_676
O3 Ba1 O6 122.85(11) 2_565 2_676
O5 Ba1 O5 121.97(13) . 1_655
O2 Ba1 O5 73.69(11) 2_665 1_655
O3 Ba1 O5 102.40(11) 1_665 1_655
O3 Ba1 O5 140.31(11) 2_565 1_655
O6 Ba1 O5 96.43(10) 2_676 1_655
O5 Ba1 O1 146.08(10) . 1_665
O2 Ba1 O1 101.53(10) 2_665 1_665
O3 Ba1 O1 49.42(10) 1_665 1_665
O3 Ba1 O1 124.35(10) 2_565 1_665
O6 Ba1 O1 64.74(10) 2_676 1_665
O5 Ba1 O1 64.67(10) 1_655 1_665
O5 Ba1 O7 79.51(10) . .
O2 Ba1 O7 67.05(10) 2_665 .
O3 Ba1 O7 142.23(10) 1_665 .
O3 Ba1 O7 110.83(10) 2_565 .
O6 Ba1 O7 114.14(10) 2_676 .
O5 Ba1 O7 48.48(10) 1_655 .
O1 Ba1 O7 112.98(9) 1_665 .
O5 Ba1 O5 72.27(11) . 2_676
O2 Ba1 O5 130.48(10) 2_665 2_676
O3 Ba1 O5 129.93(10) 1_665 2_676
O3 Ba1 O5 146.15(10) 2_565 2_676
O6 Ba1 O5 48.52(9) 2_676 2_676
O5 Ba1 O5 64.62(12) 1_655 2_676
O1 Ba1 O5 84.21(9) 1_665 2_676
O7 Ba1 O5 65.62(9) . 2_676
O5 Ba1 P2 84.43(8) . 2_676
O2 Ba1 P2 147.08(8) 2_665 2_676
O3 Ba1 P2 105.22(8) 1_665 2_676
O3 Ba1 P2 146.15(8) 2_565 2_676
O6 Ba1 P2 25.70(7) 2_676 2_676
O5 Ba1 P2 73.42(8) 1_655 2_676
O1 Ba1 P2 64.96(7) 1_665 2_676
O7 Ba1 P2 89.92(7) . 2_676
O5 Ba1 P2 25.88(6) 2_676 2_676
O5 Ba1 P1 144.71(8) . 1_665
O2 Ba1 P1 95.00(8) 2_665 1_665
O3 Ba1 P1 23.85(8) 1_665 1_665
O3 Ba1 P1 98.61(8) 2_565 1_665
O6 Ba1 P1 73.97(7) 2_676 1_665
O5 Ba1 P1 86.07(7) 1_655 1_665
O1 Ba1 P1 25.94(6) 1_665 1_665
O7 Ba1 P1 133.62(7) . 1_665
O5 Ba1 P1 107.13(7) 2_676 1_665
P2 Ba1 P1 84.02(3) 2_676 1_665
O5 Ba1 P2 103.85(8) . 1_655
O2 Ba1 P2 63.47(8) 2_665 1_655
O3 Ba1 P2 120.13(8) 1_665 1_655
O3 Ba1 P2 124.47(8) 2_565 1_655
O6 Ba1 P2 111.07(7) 2_676 1_655
O5 Ba1 P2 24.17(7) 1_655 1_655
O1 Ba1 P2 88.67(7) 1_665 1_655
O7 Ba1 P2 25.30(7) . 1_655
O5 Ba1 P2 67.60(7) 2_676 1_655
P2 Ba1 P2 85.52(3) 2_676 1_655
P1 Ba1 P2 108.33(3) 1_665 1_655
O6 Fe1 O6 180.0 2_666 .
O6 Fe1 O7 91.35(15) 2_666 .
O6 Fe1 O7 88.65(15) . .
O6 Fe1 O7 88.65(15) 2_666 2_666
O6 Fe1 O7 91.35(15) . 2_666
O7 Fe1 O7 180.00(19) . 2_666
O6 Fe1 O1 91.55(15) 2_666 2_666
O6 Fe1 O1 88.45(15) . 2_666
O7 Fe1 O1 92.87(15) . 2_666
O7 Fe1 O1 87.13(15) 2_666 2_666
O6 Fe1 O1 88.45(15) 2_666 .
O6 Fe1 O1 91.55(15) . .
O7 Fe1 O1 87.13(15) . .
O7 Fe1 O1 92.87(15) 2_666 .
O1 Fe1 O1 180.00(17) 2_666 .
O3 P1 O2 112.3(2) . .
O3 P1 O1 110.0(2) . .
O2 P1 O1 113.3(2) . .
O3 P1 O4 110.8(2) . .
O2 P1 O4 103.0(2) . .
O1 P1 O4 107.05(19) . .
O3 P1 Ba1 47.78(14) . 1_445
O2 P1 Ba1 141.29(15) . 1_445
O1 P1 Ba1 63.35(14) . 1_445
O4 P1 Ba1 114.94(14) . 1_445
O5 P2 O7 110.5(2) . 1_455
O5 P2 O6 111.0(2) . .
O7 P2 O6 112.3(2) 1_455 .
O5 P2 O4 106.4(2) . .
O7 P2 O4 109.3(2) 1_455 .
O6 P2 O4 107.2(2) . .
O5 P2 Ba1 69.36(15) . 2_676
O7 P2 Ba1 100.35(15) 1_455 2_676
O6 P2 Ba1 51.79(14) . 2_676
O4 P2 Ba1 149.26(14) . 2_676
O5 P2 Ba1 50.30(14) . 1_455
O7 P2 Ba1 63.33(14) 1_455 1_455
O6 P2 Ba1 145.83(15) . 1_455
O4 P2 Ba1 105.86(14) . 1_455
Ba1 P2 Ba1 94.48(3) 2_676 1_455
O5 P2 Ba1 42.17(14) . .
O7 P2 Ba1 147.86(15) 1_455 .
O6 P2 Ba1 96.33(14) . .
O4 P2 Ba1 73.77(14) . .
Ba1 P2 Ba1 85.65(3) 2_676 .
Ba1 P2 Ba1 84.83(3) 1_455 .
P1 O1 Fe1 127.1(2) . .
P1 O1 Ba1 90.71(16) . 1_445
Fe1 O1 Ba1 125.36(15) . 1_445
P1 O2 Ba1 122.8(2) . 2_665
P1 O2 H1 115.3(3) . .
Ba1 O2 H1 49.8(2) 2_665 .
P1 O3 Ba1 108.37(18) . 1_445
P1 O3 Ba1 145.9(2) . 2_565
Ba1 O3 Ba1 105.07(12) 1_445 2_565
P1 O4 P2 135.3(2) . .
P2 O5 Ba1 115.57(19) . .
P2 O5 Ba1 105.53(17) . 1_455
Ba1 O5 Ba1 121.97(13) . 1_455
P2 O5 Ba1 84.76(15) . 2_676
Ba1 O5 Ba1 107.73(11) . 2_676
Ba1 O5 Ba1 115.38(12) 1_455 2_676
P2 O6 Fe1 130.7(2) . .
P2 O6 Ba1 102.51(17) . 2_676
Fe1 O6 Ba1 121.33(15) . 2_676
P2 O7 Fe1 131.4(2) 1_655 .
P2 O7 Ba1 91.37(16) 1_655 .
Fe1 O7 Ba1 130.98(16) . .
loop_
_geom_bond_atom_site_label_1
_geom_bond_atom_site_label_2
_geom_bond_distance
_geom_bond_site_symmetry_2
Ba1 O5 2.679(4) .
Ba1 O2 2.717(4) 2_665
Ba1 O3 2.748(4) 1_665
Ba1 O3 2.766(4) 2_565
Ba1 O6 2.776(4) 2_676
Ba1 O5 2.840(4) 1_655
Ba1 O1 3.147(4) 1_665
Ba1 O7 3.180(4) .
Ba1 O5 3.241(4) 2_676
Ba1 P2 3.4492(14) 2_676
Ba1 P1 3.5209(14) 1_665
Ba1 P2 3.5572(14) 1_655
Fe1 O6 1.993(3) 2_666
Fe1 O6 1.993(3) .
Fe1 O7 2.004(4) .
Fe1 O7 2.004(4) 2_666
Fe1 O1 2.014(4) 2_666
Fe1 O1 2.014(4) .
P1 O3 1.500(4) .
P1 O2 1.532(4) .
P1 O1 1.540(3) .
P1 O4 1.600(4) .
P1 Ba1 3.5209(13) 1_445
P2 O5 1.512(4) .
P2 O7 1.521(4) 1_455
P2 O6 1.532(4) .
P2 O4 1.615(4) .
P2 Ba1 3.4492(14) 2_676
P2 Ba1 3.5572(14) 1_455
O1 Ba1 3.147(4) 1_445
O2 Ba1 2.717(4) 2_665
O2 H1 0.845(4) .
O3 Ba1 2.748(4) 1_445
O3 Ba1 2.766(4) 2_565
O5 Ba1 2.840(4) 1_455
O5 Ba1 3.241(4) 2_676
O6 Ba1 2.776(4) 2_676
O7 P2 1.521(4) 1_655
loop_
_geom_hbond_atom_site_label_D
_geom_hbond_atom_site_label_H
_geom_hbond_atom_site_label_A
_geom_hbond_distance_DH
_geom_hbond_distance_HA
_geom_hbond_distance_DA
_geom_hbond_angle_DHA
_geom_hbond_site_symmetry_A
O2 H1 O4 0.845(4) 2.473(4) 2.948(5) 116.4(3) 2_565
O2 H1 O5 0.845(4) 2.540(4) 3.334(5) 156.9(3) 2_565
O2 H1 O7 0.845(4) 2.567(4) 3.279(5) 142.7(3) 2_665
