#------------------------------------------------------------------------------
#$Date: 2021-04-30 12:32:19 +0300 (Fri, 30 Apr 2021) $
#$Revision: 264726 $
#$URL: file:///home/coder/svn-repositories/cod/cif/1/56/23/1562331.cif $
#------------------------------------------------------------------------------
#
# This file is available in the Crystallography Open Database (COD),
# http://www.crystallography.net/
#
# All data on this site have been placed in the public domain by the
# contributors.
#
data_1562331
loop_
_publ_author_name
'Batuk, Maria'
'Batuk, Dmitry'
'Abakumov, Artem M.'
'Hadermann, Joke'
_publ_section_title
;
 Pb5Fe3TiO11Cl: A rare example of Ti(IV) in a square pyramidal oxygen
 coordination
;
_journal_name_full               'Journal of Solid State Chemistry'
_journal_page_first              245
_journal_page_last               252
_journal_paper_doi               10.1016/j.jssc.2014.04.002
_journal_volume                  215
_journal_year                    2014
_chemical_formula_moiety         'Cl1 Fe3 O11 Pb5 Ti1'
_chemical_formula_sum            'Cl Fe3 O11 Pb5 Ti'
_chemical_formula_weight         1462.8
_space_group_IT_number           123
_space_group_name_Hall           '-P 4 2'
_space_group_name_H-M_alt        'P 4/m m m'
_symmetry_cell_setting           tetragonal
_symmetry_Int_Tables_number      123
_symmetry_space_group_name_Hall  '-P 4 2'
_symmetry_space_group_name_H-M   'P 4/m m m'
_cell_angle_alpha                90.00000
_cell_angle_beta                 90.00000
_cell_angle_gamma                90.00000
_cell_formula_units_Z            1
_cell_length_a                   3.90348(5)
_cell_length_b                   3.90348(5)
_cell_length_c                   19.2641(4)
_cell_measurement_temperature    1.5
_cell_volume                     293.530(8)
_computing_structure_refinement  FULLPROF
_diffrn_ambient_temperature      1.5
_diffrn_measurement_device_type  'HRPT LNS PSI'
_diffrn_radiation_type           neutron
_diffrn_radiation_wavelength     1.88570
_diffrn_source                   'Neutron Spallation Souce'
_exptl_crystal_density_diffrn    8.2726
_pd_char_colour                  brown
_pd_instr_location               ' ?'
_pd_meas_2theta_range_inc        0.050000
_pd_meas_2theta_range_max        164.70000
_pd_meas_2theta_range_min        3.75000
_pd_meas_number_of_points        3220
_pd_proc_2theta_range_inc        0.050000
_pd_proc_2theta_range_max        164.7906
_pd_proc_2theta_range_min        3.8406
_pd_proc_ls_pref_orient_corr     none
_pd_proc_ls_profile_function     Gaussian
_pd_proc_ls_prof_R_factor        4.9967
_pd_proc_ls_prof_wR_expected     2.4200
_pd_proc_ls_prof_wR_factor       6.7177
_pd_proc_wavelength              1.885700
_pd_spec_mounting                ' ?'
_refine_ls_number_parameters     34
_refine_ls_number_reflns         158
_refine_ls_number_restraints     0
_refine_ls_R_I_factor            4.6844
_cod_data_source_file            JSSC-2014-215-245.cif
_cod_data_source_block           Pb5Fe3TiO11Cl_1.5K
_cod_depositor_comments
;
The following automatic conversions were performed:

data item '_symmetry_cell_setting' value 'Tetragonal' was changed to
'tetragonal' in accordance with the built-in table derived from the
CIF Core dictionary named 'cif_core.dic' version 2.4.5 last updated
on 2014-11-21.

Automatic conversion script
Id: cif_fix_values 8369 2020-08-20 11:38:08Z andrius 
;
_cod_original_cell_volume        293.531(8)
_cod_original_formula_sum        'Cl1 Fe3 O11 Pb5 Ti1'
_cod_database_code               1562331
_pd_proc_ls_prof_cr_factor       10.0751
_pd_proc_ls_prof_cwr_factor      11.3278
_pd_proc_ls_prof_cwr_expected    4.0808
_pd_proc_ls_prof_chi2            7.7057
_pd_proc_ls_prof_echi2           7.7057
loop_
_symmetry_equiv_pos_site_id
_symmetry_equiv_pos_as_xyz
1 x,y,z
2 -x,-y,z
3 -y,x,z
4 y,-x,z
5 -x,y,-z
6 x,-y,-z
7 y,x,-z
8 -y,-x,-z
9 -x,-y,-z
10 x,y,-z
11 y,-x,-z
12 -y,x,-z
13 x,-y,z
14 -x,y,z
15 -y,-x,z
16 y,x,z
loop_
_atom_site_label
_atom_site_fract_x
_atom_site_fract_y
_atom_site_fract_z
_atom_site_U_iso_or_equiv
_atom_site_occupancy
_atom_site_adp_type
_atom_site_type_symbol
Cl 0.00000 0.00000 0.00000 0.0166(10) 1.00000 Uiso Cl
Fe1 0.00000 0.00000 0.19457(17) 0.0063(7) 0.89000 Uiso Fe
Ti1 0.00000 0.00000 0.19457(17) 0.0063(7) 0.11000 Uiso Ti
Fe2 0.00000 0.00000 0.3960(3) 0.0039(12) 0.61000 Uiso Fe
Ti2 0.00000 0.00000 0.3960(3) 0.0039(12) 0.39000 Uiso Ti
Pb1 0.50000 0.50000 0.09412(13) 0.0093(6) 1.00000 Uiso Pb
Pb2 0.50000 0.50000 0.30285(15) 0.0152(8) 1.00000 Uiso Pb
Pb3 0.50000 0.50000 0.50000 0.0168(11) 1.00000 Uiso Pb
O1 0.50000 0.00000 0.16598(14) 0.0097(6) 1.00000 Uiso O
O2 0.50000 0.0643(15) 0.3919(2) 0.0249(13) 0.50000 Uiso O
O3 0.00000 0.00000 0.28808(19) 0.0118(10) 1.00000 Uiso O
O4 0.00000 0.00000 0.50000 0.0135(16) 1.00000 Uiso O
loop_
_atom_type_symbol
_atom_type_scat_length_neutron
_atom_type_scat_source
Cl 0.95770 V.F._Sears_Neutron_News_3_26_(1992)
Fe 0.94500 V.F._Sears_Neutron_News_3_26_(1992)
Ti -0.34380 V.F._Sears_Neutron_News_3_26_(1992)
Pb 0.94050 V.F._Sears_Neutron_News_3_26_(1992)
O 0.58030 V.F._Sears_Neutron_News_3_26_(1992)
loop_
_geom_angle_atom_site_label_1
_geom_angle_atom_site_label_2
_geom_angle_atom_site_label_3
_geom_angle_site_symmetry_1
_geom_angle_site_symmetry_2
_geom_angle_site_symmetry_3
_geom_angle
O1 Fe1 O1 1_455 . . 148.5(2)
O1 Fe1 O1 1_455 . 3_545 85.77(5)
O1 Fe1 O1 1_455 . 3_555 85.77(5)
O1 Fe1 O3 1_455 . . 105.76(12)
O1 Fe1 O1 . . 3_545 85.77(5)
O1 Fe1 O1 . . 3_555 85.77(5)
O1 Fe1 O3 . . . 105.76(12)
O1 Fe1 O1 3_545 . 3_555 148.5(2)
O1 Fe1 O3 3_545 . . 105.76(12)
O1 Fe1 O3 3_555 . . 105.76(12)
O1 Ti1 O1 1_455 . . 148.5(2)
O1 Ti1 O1 1_455 . 3_545 85.77(5)
O1 Ti1 O1 1_455 . 3_555 85.77(5)
O1 Ti1 O3 1_455 . . 105.76(12)
O1 Ti1 O1 . . 3_545 85.77(5)
O1 Ti1 O1 . . 3_555 85.77(5)
O1 Ti1 O3 . . . 105.76(12)
O1 Ti1 O1 3_545 . 3_555 148.5(2)
O1 Ti1 O3 3_545 . . 105.76(12)
O1 Ti1 O3 3_555 . . 105.76(12)
O2 Fe2 O2 1_455 . . 164.6(3)
O2 Fe2 O2 1_455 . 2_555 14.6(2)
O2 Fe2 O2 1_455 . 2_655 175.4(4)
O2 Fe2 O2 1_455 . 3_545 89.9(2)
O2 Fe2 O2 1_455 . 3_555 75.3(2)
O2 Fe2 O2 1_455 . 4_555 104.5(2)
O2 Fe2 O2 1_455 . 4_565 89.9(2)
O2 Fe2 O3 1_455 . . 87.7(2)
O2 Fe2 O4 1_455 . . 92.3(2)
O2 Fe2 O2 . . 2_555 175.4(4)
O2 Fe2 O2 . . 2_655 14.6(2)
O2 Fe2 O2 . . 3_545 104.5(2)
O2 Fe2 O2 . . 3_555 89.9(2)
O2 Fe2 O2 . . 4_555 89.9(2)
O2 Fe2 O2 . . 4_565 75.3(2)
O2 Fe2 O3 . . . 87.7(2)
O2 Fe2 O4 . . . 92.3(2)
O2 Fe2 O2 2_555 . 2_655 164.6(3)
O2 Fe2 O2 2_555 . 3_545 75.3(2)
O2 Fe2 O2 2_555 . 3_555 89.9(2)
O2 Fe2 O2 2_555 . 4_555 89.9(2)
O2 Fe2 O2 2_555 . 4_565 104.5(2)
O2 Fe2 O3 2_555 . . 87.7(2)
O2 Fe2 O4 2_555 . . 92.3(2)
O2 Fe2 O2 2_655 . 3_545 89.9(2)
O2 Fe2 O2 2_655 . 3_555 104.5(2)
O2 Fe2 O2 2_655 . 4_555 75.3(2)
O2 Fe2 O2 2_655 . 4_565 89.9(2)
O2 Fe2 O3 2_655 . . 87.7(2)
O2 Fe2 O4 2_655 . . 92.3(2)
O2 Fe2 O2 3_545 . 3_555 164.6(3)
O2 Fe2 O2 3_545 . 4_555 14.6(2)
O2 Fe2 O2 3_545 . 4_565 175.4(4)
O2 Fe2 O3 3_545 . . 87.7(2)
O2 Fe2 O4 3_545 . . 92.3(2)
O2 Fe2 O2 3_555 . 4_555 175.4(4)
O2 Fe2 O2 3_555 . 4_565 14.6(2)
O2 Fe2 O3 3_555 . . 87.7(2)
O2 Fe2 O4 3_555 . . 92.3(2)
O2 Fe2 O2 4_555 . 4_565 164.6(3)
O2 Fe2 O3 4_555 . . 87.7(2)
O2 Fe2 O4 4_555 . . 92.3(2)
O2 Fe2 O3 4_565 . . 87.7(2)
O2 Fe2 O4 4_565 . . 92.3(2)
O3 Fe2 O4 . . . 180.0(5)
O2 Ti2 O2 1_455 . . 164.6(3)
O2 Ti2 O2 1_455 . 2_555 14.6(2)
O2 Ti2 O2 1_455 . 2_655 175.4(4)
O2 Ti2 O2 1_455 . 3_545 89.9(2)
O2 Ti2 O2 1_455 . 3_555 75.3(2)
O2 Ti2 O2 1_455 . 4_555 104.5(2)
O2 Ti2 O2 1_455 . 4_565 89.9(2)
O2 Ti2 O3 1_455 . . 87.7(2)
O2 Ti2 O4 1_455 . . 92.3(2)
O2 Ti2 O2 . . 2_555 175.4(4)
O2 Ti2 O2 . . 2_655 14.6(2)
O2 Ti2 O2 . . 3_545 104.5(2)
O2 Ti2 O2 . . 3_555 89.9(2)
O2 Ti2 O2 . . 4_555 89.9(2)
O2 Ti2 O2 . . 4_565 75.3(2)
O2 Ti2 O3 . . . 87.7(2)
O2 Ti2 O4 . . . 92.3(2)
O2 Ti2 O2 2_555 . 2_655 164.6(3)
O2 Ti2 O2 2_555 . 3_545 75.3(2)
O2 Ti2 O2 2_555 . 3_555 89.9(2)
O2 Ti2 O2 2_555 . 4_555 89.9(2)
O2 Ti2 O2 2_555 . 4_565 104.5(2)
O2 Ti2 O3 2_555 . . 87.7(2)
O2 Ti2 O4 2_555 . . 92.3(2)
O2 Ti2 O2 2_655 . 3_545 89.9(2)
O2 Ti2 O2 2_655 . 3_555 104.5(2)
O2 Ti2 O2 2_655 . 4_555 75.3(2)
O2 Ti2 O2 2_655 . 4_565 89.9(2)
O2 Ti2 O3 2_655 . . 87.7(2)
O2 Ti2 O4 2_655 . . 92.3(2)
O2 Ti2 O2 3_545 . 3_555 164.6(3)
O2 Ti2 O2 3_545 . 4_555 14.6(2)
O2 Ti2 O2 3_545 . 4_565 175.4(4)
O2 Ti2 O3 3_545 . . 87.7(2)
O2 Ti2 O4 3_545 . . 92.3(2)
O2 Ti2 O2 3_555 . 4_555 175.4(4)
O2 Ti2 O2 3_555 . 4_565 14.6(2)
O2 Ti2 O3 3_555 . . 87.7(2)
O2 Ti2 O4 3_555 . . 92.3(2)
O2 Ti2 O2 4_555 . 4_565 164.6(3)
O2 Ti2 O3 4_555 . . 87.7(2)
O2 Ti2 O4 4_555 . . 92.3(2)
O2 Ti2 O3 4_565 . . 87.7(2)
O2 Ti2 O4 4_565 . . 92.3(2)
O3 Ti2 O4 . . . 180.0(5)
Cl Pb1 Cl . . 1_565 72.46(4)
Cl Pb1 Cl . . 1_655 72.46(4)
Cl Pb1 Cl . . 1_665 113.40(7)
Cl Pb1 O1 . . . 80.54(4)
Cl Pb1 O1 . . 1_565 143.100(9)
Cl Pb1 O1 . . 3_555 80.54(4)
Cl Pb1 O1 . . 3_655 143.100(9)
Cl Pb1 Cl 1_565 . 1_655 113.40(7)
Cl Pb1 Cl 1_565 . 1_665 72.46(4)
Cl Pb1 O1 1_565 . . 143.100(9)
Cl Pb1 O1 1_565 . 1_565 80.54(4)
Cl Pb1 O1 1_565 . 3_555 80.54(4)
Cl Pb1 O1 1_565 . 3_655 143.100(9)
Cl Pb1 Cl 1_655 . 1_665 72.46(4)
Cl Pb1 O1 1_655 . . 80.54(4)
Cl Pb1 O1 1_655 . 1_565 143.100(9)
Cl Pb1 O1 1_655 . 3_555 143.100(9)
Cl Pb1 O1 1_655 . 3_655 80.54(4)
Cl Pb1 O1 1_665 . . 143.100(9)
Cl Pb1 O1 1_665 . 1_565 80.54(4)
Cl Pb1 O1 1_665 . 3_555 143.100(9)
Cl Pb1 O1 1_665 . 3_655 80.54(4)
O1 Pb1 O1 . . 1_565 109.31(12)
O1 Pb1 O1 . . 3_555 70.45(6)
O1 Pb1 O1 . . 3_655 70.45(6)
O1 Pb1 O1 1_565 . 3_555 70.45(6)
O1 Pb1 O1 1_565 . 3_655 70.45(6)
O1 Pb1 O1 3_555 . 3_655 109.31(12)
O1 Pb2 O1 . . 1_565 73.02(7)
O1 Pb2 O1 . . 3_555 49.76(5)
O1 Pb2 O1 . . 3_655 49.76(5)
O1 Pb2 O2 . . . 98.74(12)
O1 Pb2 O2 . . 1_565 164.42(13)
O1 Pb2 O2 . . 2_655 91.40(10)
O1 Pb2 O2 . . 2_665 171.76(14)
O1 Pb2 O2 . . 3_555 119.59(7)
O1 Pb2 O2 . . 3_655 124.80(8)
O1 Pb2 O2 . . 4_565 124.80(8)
O1 Pb2 O2 . . 4_665 119.59(7)
O1 Pb2 O3 . . . 59.94(8)
O1 Pb2 O3 . . 1_565 109.64(10)
O1 Pb2 O3 . . 1_655 59.94(8)
O1 Pb2 O3 . . 1_665 109.64(10)
O1 Pb2 O1 1_565 . 3_555 49.76(5)
O1 Pb2 O1 1_565 . 3_655 49.76(5)
O1 Pb2 O2 1_565 . . 171.76(14)
O1 Pb2 O2 1_565 . 1_565 91.40(10)
O1 Pb2 O2 1_565 . 2_655 164.42(13)
O1 Pb2 O2 1_565 . 2_665 98.74(12)
O1 Pb2 O2 1_565 . 3_555 119.59(7)
O1 Pb2 O2 1_565 . 3_655 124.80(8)
O1 Pb2 O2 1_565 . 4_565 124.80(8)
O1 Pb2 O2 1_565 . 4_665 119.59(7)
O1 Pb2 O3 1_565 . . 109.64(10)
O1 Pb2 O3 1_565 . 1_565 59.94(8)
O1 Pb2 O3 1_565 . 1_655 109.64(10)
O1 Pb2 O3 1_565 . 1_665 59.94(8)
O1 Pb2 O1 3_555 . 3_655 73.02(7)
O1 Pb2 O2 3_555 . . 124.80(8)
O1 Pb2 O2 3_555 . 1_565 119.59(7)
O1 Pb2 O2 3_555 . 2_655 119.59(7)
O1 Pb2 O2 3_555 . 2_665 124.80(8)
O1 Pb2 O2 3_555 . 3_555 91.40(10)
O1 Pb2 O2 3_555 . 3_655 171.76(14)
O1 Pb2 O2 3_555 . 4_565 98.74(12)
O1 Pb2 O2 3_555 . 4_665 164.42(13)
O1 Pb2 O3 3_555 . . 59.94(8)
O1 Pb2 O3 3_555 . 1_565 59.94(8)
O1 Pb2 O3 3_555 . 1_655 109.64(10)
O1 Pb2 O3 3_555 . 1_665 109.64(10)
O1 Pb2 O2 3_655 . . 124.80(8)
O1 Pb2 O2 3_655 . 1_565 119.59(7)
O1 Pb2 O2 3_655 . 2_655 119.59(7)
O1 Pb2 O2 3_655 . 2_665 124.80(8)
O1 Pb2 O2 3_655 . 3_555 164.42(13)
O1 Pb2 O2 3_655 . 3_655 98.74(12)
O1 Pb2 O2 3_655 . 4_565 171.76(14)
O1 Pb2 O2 3_655 . 4_665 91.40(10)
O1 Pb2 O3 3_655 . . 109.64(10)
O1 Pb2 O3 3_655 . 1_565 109.64(10)
O1 Pb2 O3 3_655 . 1_655 59.94(8)
O1 Pb2 O3 3_655 . 1_665 59.94(8)
O2 Pb2 O2 . . 1_565 96.84(18)
O2 Pb2 O2 . . 2_655 7.34(15)
O2 Pb2 O2 . . 2_665 89.51(19)
O2 Pb2 O2 . . 3_555 64.13(10)
O2 Pb2 O2 . . 3_655 59.71(11)
O2 Pb2 O2 . . 4_565 59.71(11)
O2 Pb2 O2 . . 4_665 64.13(10)
O2 Pb2 O3 . . . 65.01(10)
O2 Pb2 O3 . . 1_565 124.61(11)
O2 Pb2 O3 . . 1_655 65.01(10)
O2 Pb2 O3 . . 1_665 124.61(11)
O2 Pb2 O2 1_565 . 2_655 104.18(17)
O2 Pb2 O2 1_565 . 2_665 7.34(15)
O2 Pb2 O2 1_565 . 3_555 67.82(9)
O2 Pb2 O2 1_565 . 3_655 64.13(10)
O2 Pb2 O2 1_565 . 4_565 64.13(10)
O2 Pb2 O2 1_565 . 4_665 67.82(9)
O2 Pb2 O3 1_565 . . 128.17(9)
O2 Pb2 O3 1_565 . 1_565 60.53(8)
O2 Pb2 O3 1_565 . 1_655 128.17(9)
O2 Pb2 O3 1_565 . 1_665 60.53(8)
O2 Pb2 O2 2_655 . 2_665 96.84(18)
O2 Pb2 O2 2_655 . 3_555 67.82(9)
O2 Pb2 O2 2_655 . 3_655 64.13(10)
O2 Pb2 O2 2_655 . 4_565 64.13(10)
O2 Pb2 O2 2_655 . 4_665 67.82(9)
O2 Pb2 O3 2_655 . . 60.53(8)
O2 Pb2 O3 2_655 . 1_565 128.17(9)
O2 Pb2 O3 2_655 . 1_655 60.53(8)
O2 Pb2 O3 2_655 . 1_665 128.17(9)
O2 Pb2 O2 2_665 . 3_555 64.13(10)
O2 Pb2 O2 2_665 . 3_655 59.71(11)
O2 Pb2 O2 2_665 . 4_565 59.71(11)
O2 Pb2 O2 2_665 . 4_665 64.13(10)
O2 Pb2 O3 2_665 . . 124.61(11)
O2 Pb2 O3 2_665 . 1_565 65.01(10)
O2 Pb2 O3 2_665 . 1_655 124.61(11)
O2 Pb2 O3 2_665 . 1_665 65.01(10)
O2 Pb2 O2 3_555 . 3_655 96.84(18)
O2 Pb2 O2 3_555 . 4_565 7.34(15)
O2 Pb2 O2 3_555 . 4_665 104.18(17)
O2 Pb2 O3 3_555 . . 60.53(8)
O2 Pb2 O3 3_555 . 1_565 60.53(8)
O2 Pb2 O3 3_555 . 1_655 128.17(9)
O2 Pb2 O3 3_555 . 1_665 128.17(9)
O2 Pb2 O2 3_655 . 4_565 89.51(19)
O2 Pb2 O2 3_655 . 4_665 7.34(15)
O2 Pb2 O3 3_655 . . 124.61(11)
O2 Pb2 O3 3_655 . 1_565 124.61(11)
O2 Pb2 O3 3_655 . 1_655 65.01(10)
O2 Pb2 O3 3_655 . 1_665 65.01(10)
O2 Pb2 O2 4_565 . 4_665 96.84(18)
O2 Pb2 O3 4_565 . . 65.01(10)
O2 Pb2 O3 4_565 . 1_565 65.01(10)
O2 Pb2 O3 4_565 . 1_655 124.61(11)
O2 Pb2 O3 4_565 . 1_665 124.61(11)
O2 Pb2 O3 4_665 . . 128.17(9)
O2 Pb2 O3 4_665 . 1_565 128.17(9)
O2 Pb2 O3 4_665 . 1_655 60.53(8)
O2 Pb2 O3 4_665 . 1_665 60.53(8)
O3 Pb2 O3 . . 1_565 89.398(17)
O3 Pb2 O3 . . 1_655 89.398(17)
O3 Pb2 O3 . . 1_665 168.23(16)
O3 Pb2 O3 1_565 . 1_655 168.23(16)
O3 Pb2 O3 1_565 . 1_665 89.398(17)
O3 Pb2 O3 1_655 . 1_665 89.398(17)
O2 Pb3 O2 . . 1_565 85.85(14)
O2 Pb3 O2 . . 2_655 7.37(14)
O2 Pb3 O2 . . 2_665 78.48(16)
O2 Pb3 O2 . . 3_555 57.85(8)
O2 Pb3 O2 . . 3_655 53.14(10)
O2 Pb3 O2 . . 4_565 53.14(10)
O2 Pb3 O2 . . 4_665 57.85(8)
O2 Pb3 O2 . . 5_656 101.52(16)
O2 Pb3 O2 . . 5_666 172.63(14)
O2 Pb3 O2 . . 6_556 94.15(14)
O2 Pb3 O2 . . 6_566 180.0(5)
O2 Pb3 O2 . . 7_556 126.86(10)
O2 Pb3 O2 . . 7_656 122.15(8)
O2 Pb3 O2 . . 8_566 122.15(8)
O2 Pb3 O2 . . 8_666 126.86(10)
O2 Pb3 O4 . . . 63.43(7)
O2 Pb3 O4 . . 1_565 116.57(7)
O2 Pb3 O4 . . 1_655 63.43(7)
O2 Pb3 O4 . . 1_665 116.57(7)
O2 Pb3 O2 1_565 . 2_655 93.22(13)
O2 Pb3 O2 1_565 . 2_665 7.37(14)
O2 Pb3 O2 1_565 . 3_555 61.84(7)
O2 Pb3 O2 1_565 . 3_655 57.85(8)
O2 Pb3 O2 1_565 . 4_565 57.85(8)
O2 Pb3 O2 1_565 . 4_665 61.84(7)
O2 Pb3 O2 1_565 . 5_656 172.63(14)
O2 Pb3 O2 1_565 . 5_666 86.78(13)
O2 Pb3 O2 1_565 . 6_556 180.0(5)
O2 Pb3 O2 1_565 . 6_566 94.15(14)
O2 Pb3 O2 1_565 . 7_556 122.15(8)
O2 Pb3 O2 1_565 . 7_656 118.16(7)
O2 Pb3 O2 1_565 . 8_566 118.16(7)
O2 Pb3 O2 1_565 . 8_666 122.15(8)
O2 Pb3 O4 1_565 . . 120.92(5)
O2 Pb3 O4 1_565 . 1_565 59.08(5)
O2 Pb3 O4 1_565 . 1_655 120.92(5)
O2 Pb3 O4 1_565 . 1_665 59.08(5)
O2 Pb3 O2 2_655 . 2_665 85.85(14)
O2 Pb3 O2 2_655 . 3_555 61.84(7)
O2 Pb3 O2 2_655 . 3_655 57.85(8)
O2 Pb3 O2 2_655 . 4_565 57.85(8)
O2 Pb3 O2 2_655 . 4_665 61.84(7)
O2 Pb3 O2 2_655 . 5_656 94.15(14)
O2 Pb3 O2 2_655 . 5_666 180.0(5)
O2 Pb3 O2 2_655 . 6_556 86.78(13)
O2 Pb3 O2 2_655 . 6_566 172.63(14)
O2 Pb3 O2 2_655 . 7_556 122.15(8)
O2 Pb3 O2 2_655 . 7_656 118.16(7)
O2 Pb3 O2 2_655 . 8_566 118.16(7)
O2 Pb3 O2 2_655 . 8_666 122.15(8)
O2 Pb3 O4 2_655 . . 59.08(5)
O2 Pb3 O4 2_655 . 1_565 120.92(5)
O2 Pb3 O4 2_655 . 1_655 59.08(5)
O2 Pb3 O4 2_655 . 1_665 120.92(5)
O2 Pb3 O2 2_665 . 3_555 57.85(8)
O2 Pb3 O2 2_665 . 3_655 53.14(10)
O2 Pb3 O2 2_665 . 4_565 53.14(10)
O2 Pb3 O2 2_665 . 4_665 57.85(8)
O2 Pb3 O2 2_665 . 5_656 180.0(5)
O2 Pb3 O2 2_665 . 5_666 94.15(14)
O2 Pb3 O2 2_665 . 6_556 172.63(14)
O2 Pb3 O2 2_665 . 6_566 101.52(16)
O2 Pb3 O2 2_665 . 7_556 126.86(10)
O2 Pb3 O2 2_665 . 7_656 122.15(8)
O2 Pb3 O2 2_665 . 8_566 122.15(8)
O2 Pb3 O2 2_665 . 8_666 126.86(10)
O2 Pb3 O4 2_665 . . 116.57(7)
O2 Pb3 O4 2_665 . 1_565 63.43(7)
O2 Pb3 O4 2_665 . 1_655 116.57(7)
O2 Pb3 O4 2_665 . 1_665 63.43(7)
O2 Pb3 O2 3_555 . 3_655 85.85(14)
O2 Pb3 O2 3_555 . 4_565 7.37(14)
O2 Pb3 O2 3_555 . 4_665 93.22(13)
O2 Pb3 O2 3_555 . 5_656 122.15(8)
O2 Pb3 O2 3_555 . 5_666 118.16(7)
O2 Pb3 O2 3_555 . 6_556 118.16(7)
O2 Pb3 O2 3_555 . 6_566 122.15(8)
O2 Pb3 O2 3_555 . 7_556 94.15(14)
O2 Pb3 O2 3_555 . 7_656 180.0(5)
O2 Pb3 O2 3_555 . 8_566 86.78(13)
O2 Pb3 O2 3_555 . 8_666 172.63(14)
O2 Pb3 O4 3_555 . . 59.08(5)
O2 Pb3 O4 3_555 . 1_565 59.08(5)
O2 Pb3 O4 3_555 . 1_655 120.92(5)
O2 Pb3 O4 3_555 . 1_665 120.92(5)
O2 Pb3 O2 3_655 . 4_565 78.48(16)
O2 Pb3 O2 3_655 . 4_665 7.37(14)
O2 Pb3 O2 3_655 . 5_656 126.86(10)
O2 Pb3 O2 3_655 . 5_666 122.15(8)
O2 Pb3 O2 3_655 . 6_556 122.15(8)
O2 Pb3 O2 3_655 . 6_566 126.86(10)
O2 Pb3 O2 3_655 . 7_556 180.0(5)
O2 Pb3 O2 3_655 . 7_656 94.15(14)
O2 Pb3 O2 3_655 . 8_566 172.63(14)
O2 Pb3 O2 3_655 . 8_666 101.52(16)
O2 Pb3 O4 3_655 . . 116.57(7)
O2 Pb3 O4 3_655 . 1_565 116.57(7)
O2 Pb3 O4 3_655 . 1_655 63.43(7)
O2 Pb3 O4 3_655 . 1_665 63.43(7)
O2 Pb3 O2 4_565 . 4_665 85.85(14)
O2 Pb3 O2 4_565 . 5_656 126.86(10)
O2 Pb3 O2 4_565 . 5_666 122.15(8)
O2 Pb3 O2 4_565 . 6_556 122.15(8)
O2 Pb3 O2 4_565 . 6_566 126.86(10)
O2 Pb3 O2 4_565 . 7_556 101.52(16)
O2 Pb3 O2 4_565 . 7_656 172.63(14)
O2 Pb3 O2 4_565 . 8_566 94.15(14)
O2 Pb3 O2 4_565 . 8_666 180.0(5)
O2 Pb3 O4 4_565 . . 63.43(7)
O2 Pb3 O4 4_565 . 1_565 63.43(7)
O2 Pb3 O4 4_565 . 1_655 116.57(7)
O2 Pb3 O4 4_565 . 1_665 116.57(7)
O2 Pb3 O2 4_665 . 5_656 122.15(8)
O2 Pb3 O2 4_665 . 5_666 118.16(7)
O2 Pb3 O2 4_665 . 6_556 118.16(7)
O2 Pb3 O2 4_665 . 6_566 122.15(8)
O2 Pb3 O2 4_665 . 7_556 172.63(14)
O2 Pb3 O2 4_665 . 7_656 86.78(13)
O2 Pb3 O2 4_665 . 8_566 180.0(5)
O2 Pb3 O2 4_665 . 8_666 94.15(14)
O2 Pb3 O4 4_665 . . 120.92(5)
O2 Pb3 O4 4_665 . 1_565 120.92(5)
O2 Pb3 O4 4_665 . 1_655 59.08(5)
O2 Pb3 O4 4_665 . 1_665 59.08(5)
O2 Pb3 O2 5_656 . 5_666 85.85(14)
O2 Pb3 O2 5_656 . 6_556 7.37(14)
O2 Pb3 O2 5_656 . 6_566 78.48(16)
O2 Pb3 O2 5_656 . 7_556 53.14(10)
O2 Pb3 O2 5_656 . 7_656 57.85(8)
O2 Pb3 O2 5_656 . 8_566 57.85(8)
O2 Pb3 O2 5_656 . 8_666 53.14(10)
O2 Pb3 O4 5_656 . . 63.43(7)
O2 Pb3 O4 5_656 . 1_565 116.57(7)
O2 Pb3 O4 5_656 . 1_655 63.43(7)
O2 Pb3 O4 5_656 . 1_665 116.57(7)
O2 Pb3 O2 5_666 . 6_556 93.22(13)
O2 Pb3 O2 5_666 . 6_566 7.37(14)
O2 Pb3 O2 5_666 . 7_556 57.85(8)
O2 Pb3 O2 5_666 . 7_656 61.84(7)
O2 Pb3 O2 5_666 . 8_566 61.84(7)
O2 Pb3 O2 5_666 . 8_666 57.85(8)
O2 Pb3 O4 5_666 . . 120.92(5)
O2 Pb3 O4 5_666 . 1_565 59.08(5)
O2 Pb3 O4 5_666 . 1_655 120.92(5)
O2 Pb3 O4 5_666 . 1_665 59.08(5)
O2 Pb3 O2 6_556 . 6_566 85.85(14)
O2 Pb3 O2 6_556 . 7_556 57.85(8)
O2 Pb3 O2 6_556 . 7_656 61.84(7)
O2 Pb3 O2 6_556 . 8_566 61.84(7)
O2 Pb3 O2 6_556 . 8_666 57.85(8)
O2 Pb3 O4 6_556 . . 59.08(5)
O2 Pb3 O4 6_556 . 1_565 120.92(5)
O2 Pb3 O4 6_556 . 1_655 59.08(5)
O2 Pb3 O4 6_556 . 1_665 120.92(5)
O2 Pb3 O2 6_566 . 7_556 53.14(10)
O2 Pb3 O2 6_566 . 7_656 57.85(8)
O2 Pb3 O2 6_566 . 8_566 57.85(8)
O2 Pb3 O2 6_566 . 8_666 53.14(10)
O2 Pb3 O4 6_566 . . 116.57(7)
O2 Pb3 O4 6_566 . 1_565 63.43(7)
O2 Pb3 O4 6_566 . 1_655 116.57(7)
O2 Pb3 O4 6_566 . 1_665 63.43(7)
O2 Pb3 O2 7_556 . 7_656 85.85(14)
O2 Pb3 O2 7_556 . 8_566 7.37(14)
O2 Pb3 O2 7_556 . 8_666 78.48(16)
O2 Pb3 O4 7_556 . . 63.43(7)
O2 Pb3 O4 7_556 . 1_565 63.43(7)
O2 Pb3 O4 7_556 . 1_655 116.57(7)
O2 Pb3 O4 7_556 . 1_665 116.57(7)
O2 Pb3 O2 7_656 . 8_566 93.22(13)
O2 Pb3 O2 7_656 . 8_666 7.37(14)
O2 Pb3 O4 7_656 . . 120.92(5)
O2 Pb3 O4 7_656 . 1_565 120.92(5)
O2 Pb3 O4 7_656 . 1_655 59.08(5)
O2 Pb3 O4 7_656 . 1_665 59.08(5)
O2 Pb3 O2 8_566 . 8_666 85.85(14)
O2 Pb3 O4 8_566 . . 59.08(5)
O2 Pb3 O4 8_566 . 1_565 59.08(5)
O2 Pb3 O4 8_566 . 1_655 120.92(5)
O2 Pb3 O4 8_566 . 1_665 120.92(5)
O2 Pb3 O4 8_666 . . 116.57(7)
O2 Pb3 O4 8_666 . 1_565 116.57(7)
O2 Pb3 O4 8_666 . 1_655 63.43(7)
O2 Pb3 O4 8_666 . 1_665 63.43(7)
O4 Pb3 O4 . . 1_565 90.000(3)
O4 Pb3 O4 . . 1_655 90.000(3)
O4 Pb3 O4 . . 1_665 180.0(5)
O4 Pb3 O4 1_565 . 1_655 180.0(5)
O4 Pb3 O4 1_565 . 1_665 90.000(3)
O4 Pb3 O4 1_655 . 1_665 90.000(3)
loop_
_geom_bond_atom_site_label_1
_geom_bond_atom_site_label_2
_geom_bond_site_symmetry_1
_geom_bond_site_symmetry_2
_geom_bond_distance
Fe1 O1 . 1_455 2.0280(12)
Fe1 O1 . . 2.0280(12)
Fe1 O1 . 3_545 2.0280(12)
Fe1 O1 . 3_555 2.0280(12)
Fe1 O3 . . 1.801(5)
Ti1 O1 . 1_455 2.0280(12)
Ti1 O1 . . 2.0280(12)
Ti1 O1 . 3_545 2.0280(12)
Ti1 O1 . 3_555 2.0280(12)
Ti1 O3 . . 1.801(5)
Fe2 O2 . 1_455 1.9694(8)
Fe2 O2 . . 1.9694(8)
Fe2 O2 . 2_555 1.9694(8)
Fe2 O2 . 2_655 1.9694(8)
Fe2 O2 . 3_545 1.9694(8)
Fe2 O2 . 3_555 1.9694(8)
Fe2 O2 . 4_555 1.9694(8)
Fe2 O2 . 4_565 1.9694(8)
Fe2 O3 . . 2.079(7)
Fe2 O4 . . 2.003(6)
Ti2 O2 . 1_455 1.9694(8)
Ti2 O2 . . 1.9694(8)
Ti2 O2 . 2_555 1.9694(8)
Ti2 O2 . 2_655 1.9694(8)
Ti2 O2 . 3_545 1.9694(8)
Ti2 O2 . 3_555 1.9694(8)
Ti2 O2 . 4_555 1.9694(8)
Ti2 O2 . 4_565 1.9694(8)
Ti2 O3 . . 2.079(7)
Ti2 O4 . . 2.003(6)
Pb1 Cl . . 3.3024(14)
Pb1 Cl . 1_565 3.3024(14)
Pb1 Cl . 1_655 3.3024(14)
Pb1 Cl . 1_665 3.3024(14)
Pb1 O1 . . 2.393(2)
Pb1 O1 . 1_565 2.393(2)
Pb1 O1 . 3_555 2.393(2)
Pb1 O1 . 3_655 2.393(2)
Pb2 O1 . . 3.280(3)
Pb2 O1 . 1_565 3.280(3)
Pb2 O1 . 3_555 3.280(3)
Pb2 O1 . 3_655 3.280(3)
Pb2 O2 . . 2.416(5)
Pb2 O2 . 1_565 2.792(5)
Pb2 O2 . 2_655 2.792(5)
Pb2 O2 . 2_665 2.416(5)
Pb2 O2 . 3_555 2.792(5)
Pb2 O2 . 3_655 2.416(5)
Pb2 O2 . 4_565 2.416(5)
Pb2 O2 . 4_665 2.792(5)
Pb2 O3 . . 2.7748(5)
Pb2 O3 . 1_565 2.7748(5)
Pb2 O3 . 1_655 2.7748(5)
Pb2 O3 . 1_665 2.7748(5)
Pb3 O2 . . 2.689(5)
Pb3 O2 . 1_565 3.031(5)
Pb3 O2 . 2_655 3.031(5)
Pb3 O2 . 2_665 2.689(5)
Pb3 O2 . 3_555 3.031(5)
Pb3 O2 . 3_655 2.689(5)
Pb3 O2 . 4_565 2.689(5)
Pb3 O2 . 4_665 3.031(5)
Pb3 O2 . 5_656 2.689(5)
Pb3 O2 . 5_666 3.031(5)
Pb3 O2 . 6_556 3.031(5)
Pb3 O2 . 6_566 2.689(5)
Pb3 O2 . 7_556 2.689(5)
Pb3 O2 . 7_656 3.031(5)
Pb3 O2 . 8_566 3.031(5)
Pb3 O2 . 8_666 2.689(5)
Pb3 O4 . . 2.76019(15)
Pb3 O4 . 1_565 2.76019(15)
Pb3 O4 . 1_655 2.76019(15)
Pb3 O4 . 1_665 2.76019(15)
