#------------------------------------------------------------------------------
#$Date: 2021-04-28 10:38:16 +0300 (Wed, 28 Apr 2021) $
#$Revision: 264623 $
#$URL: file:///home/coder/svn-repositories/cod/cif/1/56/21/1562189.cif $
#------------------------------------------------------------------------------
#
# This file is available in the Crystallography Open Database (COD),
# http://www.crystallography.net/
#
# All data on this site have been placed in the public domain by the
# contributors.
#
data_1562189
loop_
_publ_author_name
'Moetakef, Pouya'
'Larson, Amber M.'
'Hodges, Brenna C.'
'Zavalij, Peter'
'Gaskell, Karen J.'
'Piccoli, Philip M.'
'Rodriguez, Efrain E.'
_publ_section_title
;
 Synthesis and crystal chemistry of microporous titanates K (Ti,M)8O16
 where M=Sc--Ni
;
_journal_name_full               'Journal of Solid State Chemistry'
_journal_page_first              45
_journal_page_last               53
_journal_paper_doi               10.1016/j.jssc.2014.08.012
_journal_volume                  220
_journal_year                    2014
_chemical_formula_moiety         'Cr1.54 O16 Ti6.46, K1.54'
_chemical_formula_sum            'Cr1.54 K1.54 O16 Ti6.46'
_chemical_formula_weight         705.73
_chemical_name_common            'Potassium Titanium Chromium Oxide'
_chemical_name_systematic
;
Potassium Titanium Chromium Oxide
;
_space_group_crystal_system      tetragonal
_space_group_IT_number           87
_space_group_name_Hall           '-I 4'
_space_group_name_H-M_alt        'I 4/m'
_symmetry_cell_setting           tetragonal
_symmetry_space_group_name_H-M   'I 4/m'
_atom_sites_solution_hydrogens   .
_atom_sites_solution_primary     direct
_atom_sites_solution_secondary   difmap
_cell_angle_alpha                90
_cell_angle_beta                 90
_cell_angle_gamma                90
_cell_formula_units_Z            1
_cell_length_a                   10.141(6)
_cell_length_b                   10.141(6)
_cell_length_c                   2.9637(17)
_cell_measurement_reflns_used    527
_cell_measurement_temperature    150(2)
_cell_measurement_theta_max      32.1
_cell_measurement_theta_min      2.8
_cell_volume                     304.8(3)
_computing_cell_refinement       Apex2
_computing_data_collection       'Apex2 (Bruker, 2010)'
_computing_data_reduction        'Apex2, Saint'
_computing_molecular_graphics    'XSHEL (Bruker, 2004)'
_computing_publication_material  'Apex2, SHELXL-2014, Platon (Spek, 1990)'
_computing_structure_refinement  'ShelXL-2014 (Sheldrick, 2014)'
_computing_structure_solution    'ShelXS-97 (Sheldrick, 2008)'
_diffrn_ambient_temperature      150(2)
_diffrn_detector                 'CCD area detector'
_diffrn_detector_area_resol_mean 8.333
_diffrn_measured_fraction_theta_full 1.000
_diffrn_measured_fraction_theta_max 1.000
_diffrn_measurement_device_type  'Bruker Smart Apex II CCD'
_diffrn_measurement_method       '\f and \w scans'
_diffrn_measurement_specimen_support 'MiTeGen loop'
_diffrn_orient_matrix_type       standard
_diffrn_orient_matrix_UB_11      0.0235981
_diffrn_orient_matrix_UB_12      0.0923894
_diffrn_orient_matrix_UB_13      -0.0858577
_diffrn_orient_matrix_UB_21      0.0938477
_diffrn_orient_matrix_UB_22      -0.0170832
_diffrn_orient_matrix_UB_23      0.0858043
_diffrn_orient_matrix_UB_31      0.0192117
_diffrn_orient_matrix_UB_32      -0.0298651
_diffrn_orient_matrix_UB_33      -0.3148546
_diffrn_radiation_monochromator  graphite
_diffrn_radiation_type           MoK\a
_diffrn_radiation_wavelength     0.71073
_diffrn_reflns_av_R_equivalents  0.0385
_diffrn_reflns_av_unetI/netI     0.0276
_diffrn_reflns_Laue_measured_fraction_full 1.000
_diffrn_reflns_Laue_measured_fraction_max 1.000
_diffrn_reflns_limit_h_max       14
_diffrn_reflns_limit_h_min       -13
_diffrn_reflns_limit_k_max       14
_diffrn_reflns_limit_k_min       -14
_diffrn_reflns_limit_l_max       4
_diffrn_reflns_limit_l_min       -4
_diffrn_reflns_number            1626
_diffrn_reflns_point_group_measured_fraction_full 1.000
_diffrn_reflns_point_group_measured_fraction_max 1.000
_diffrn_reflns_theta_full        30.000
_diffrn_reflns_theta_max         30.869
_diffrn_reflns_theta_min         2.841
_diffrn_source                   'sealed tube'
_exptl_absorpt_coefficient_mu    5.947
_exptl_absorpt_correction_T_max  0.9562
_exptl_absorpt_correction_T_min  0.7325
_exptl_absorpt_correction_type   multi-scan
_exptl_absorpt_process_details   'SADABS (Sheldrick, 2008)'
_exptl_crystal_colour            yellow
_exptl_crystal_density_diffrn    3.845
_exptl_crystal_density_method    'not measured'
_exptl_crystal_description       needle
_exptl_crystal_F_000             336
_exptl_crystal_size_max          0.295
_exptl_crystal_size_mid          0.008
_exptl_crystal_size_min          0.005
_refine_diff_density_max         0.563
_refine_diff_density_min         -0.527
_refine_diff_density_rms         0.135
_refine_ls_extinction_coef       .
_refine_ls_extinction_method     none
_refine_ls_goodness_of_fit_ref   1.117
_refine_ls_hydrogen_treatment    undef
_refine_ls_matrix_type           full
_refine_ls_number_parameters     28
_refine_ls_number_reflns         285
_refine_ls_number_restraints     19
_refine_ls_restrained_S_all      1.083
_refine_ls_R_factor_all          0.0304
_refine_ls_R_factor_gt           0.0242
_refine_ls_shift/su_max          0.000
_refine_ls_shift/su_mean         0.000
_refine_ls_structure_factor_coef Fsqd
_refine_ls_weighting_details
'w=1/[\s^2^(Fo^2^)+(0.0100P)^2^+1.9000P] where P=(Fo^2^+2Fc^2^)/3'
_refine_ls_weighting_scheme      calc
_refine_ls_wR_factor_gt          0.0498
_refine_ls_wR_factor_ref         0.0513
_reflns_Friedel_coverage         0.000
_reflns_Friedel_fraction_full    .
_reflns_Friedel_fraction_max     .
_reflns_number_gt                250
_reflns_number_total             285
_reflns_threshold_expression     'I > 2\s(I)'
_cod_data_source_file            JSSC-2014-220-45-2.cif
_cod_data_source_block           2552
_cod_depositor_comments
;
The following automatic conversions were performed:

data item '_symmetry_cell_setting' value 'Tetragonal' was changed to
'tetragonal' in accordance with the built-in table derived from the
CIF Core dictionary named 'cif_core.dic' version 2.4.5 last updated
on 2014-11-21.

Automatic conversion script
Id: cif_fix_values 8369 2020-08-20 11:38:08Z andrius 
;
_cod_original_cell_volume        304.8(4)
_cod_original_sg_symbol_H-M      I4/m
_cod_database_code               1562189
_shelx_space_group_comment
;
The symmetry employed for this shelxl refinement is uniquely defined
by the following loop, which should always be used as a source of
symmetry information in preference to the above space-group names.
They are only intended as comments.
;
_shelx_estimated_absorpt_t_min   0.390
_shelx_estimated_absorpt_t_max   0.755
_shelxl_version_number           2014-3
_shelx_res_file
;
TITL as in I4/m
CELL 0.71073  10.1408  10.1408   2.9637  90.000  90.000  90.000
ZERR    1.00   0.0058   0.0058   0.0017   0.000   0.000   0.000
LATT  2
SYMM -X, -Y, Z
SYMM -Y, X, Z
SYMM Y, -X, Z
SFAC O K TI CR
UNIT 16 1.54 6.46 1.54
OMIT -2 62
ACTA 60
L.S. 9
BOND
CONF
CONN 12 .1 $K
FMAP 2
PLAN 20
SIZE 0.05 0.08 0.195
TEMP -123.150
sump 0 .0000001 1 2 1 3 1 4 -0.5 5
WGHT    0.010000    1.900000
FVAR       0.21054   0.06152   0.03336   0.00141   0.19257
MOLE 1
simu .01 K1 K2
isor .01 K1 K2
eadp K2 K3
K1    2    0.500000    0.500000    0.207694    21.00000    0.01002    0.01002 =
         0.03867    0.00000    0.00000    0.00000
K2    2    0.500000    0.500000    0.000000    31.00000    0.01394    0.01394 =
         0.02590    0.00000    0.00000    0.00000
K3    2    0.500000    0.500000    0.500000    41.00000    0.01394    0.01394 =
         0.02590    0.00000    0.00000    0.00000
eadp Ti1 Cr1
exyz Ti1 Cr1
TI1   3    0.167642    0.350461    0.000000   -50.50000    0.00594    0.00553 =
         0.00518    0.00000    0.00000    0.00091
CR1   4    0.167642    0.350461    0.000000    50.50000    0.00594    0.00553 =
         0.00518    0.00000    0.00000    0.00091
O1    1    0.165372    0.540940    0.000000    10.50000    0.00817    0.00355 =
         0.00593    0.00000    0.00000    0.00043
O2    1    0.295847    0.344800    0.500000    10.50000    0.00525    0.00475 =
         0.00608    0.00000    0.00000    0.00028

HKLF 4

REM  as in I4/m
REM R1 =  0.0242 for     250 Fo > 4sig(Fo)  and  0.0304 for all     285 data
REM     28 parameters refined using     19 restraints

END

WGHT      0.0361      0.0000

REM Highest difference peak  0.563,  deepest hole -0.527,  1-sigma level  0.135
Q1    1   0.3063  0.2931  0.5000  10.50000  0.05    0.56
Q2    1   0.0226  0.5564  0.0000  10.50000  0.05    0.46
Q3    1   0.3217  0.4009  0.5000  10.50000  0.05    0.42
Q4    1   0.1163  0.5220  0.0000  10.50000  0.05    0.40
Q5    1   0.0802  0.4341  0.0000  10.50000  0.05    0.39
Q6    1   0.2579  0.3587  0.6326  11.00000  0.05    0.39
Q7    1   0.2284  0.3383  0.5000  10.50000  0.05    0.37
Q8    1   0.1683  0.4725  0.0000  10.50000  0.05    0.36
Q9    1   0.5998  0.4545  0.3201  11.00000  0.05    0.36
Q10   1   0.5878  0.4768  0.0000  10.50000  0.05    0.36
Q11   1   0.2308  0.5490 -0.1092  11.00000  0.05    0.35
Q12   1   0.1723  0.5989  0.0000  10.50000  0.05    0.34
Q13   1   0.5000  0.5000  0.6296  10.25000  0.05    0.32
Q14   1   0.3284  0.5746  0.0000  10.50000  0.05    0.31
Q15   1   0.0712  0.5834 -0.1963  11.00000  0.05    0.31
Q16   1   0.0836  0.3051 -0.1701  11.00000  0.05    0.28
Q17   1   0.1623  0.5621 -0.2001  11.00000  0.05    0.28
Q18   1   0.1383  0.5382 -0.2465  11.00000  0.05    0.28
Q19   1   0.3066  0.3597  0.0000  10.50000  0.05    0.27
Q20   1   0.3764  0.2907  0.2464  11.00000  0.05    0.26
;
_shelx_res_checksum              98309
_shelx_hkl_file
;
  -1  -1   0   83.41    2.35
  -1   1   0   82.65    1.42
  -1   1   0   86.92    1.93
   1  -1   0   84.36    1.91
   1   1   0   81.75    1.71
   1   1   0   85.59    1.65
   0   2   0  187.19    3.44
   0  -2   0  186.39    3.76
   0  -2   0  186.31    3.26
  -2   0   0  188.15    3.64
   2  -2   0   75.06    2.56
  -2   2   0   76.78    2.57
   2   2   0   77.77    2.11
   2   2   0   76.63    2.24
  -2  -2   0   82.48    3.15
   3   1   0  626.89    9.24
   1  -3   0  647.38    9.34
  -3  -1   0  608.79   10.37
   1  -3   0  614.06    9.41
  -1   3   0  632.42    9.58
   3  -1   0  224.26    4.57
   1   3   0  232.50    4.34
  -3   1   0  238.01    4.22
  -3   1   0  226.14    4.49
  -1  -3   0  231.76    4.18
  -1  -3   0  223.82    5.23
   3  -3   0   51.81    1.48
   3   3   0   54.31    2.24
   3  -3   0   51.51    2.43
  -3  -3   0   53.37    3.14
  -3   3   0   48.50    2.59
   2  -4   0  185.34    4.47
  -4  -2   0  183.73    5.36
   4   2   0  185.54    4.30
  -2   4   0  197.74    4.72
   2  -4   0  191.04    3.83
   4   0   0  218.39    4.87
  -4   0   0  229.83    5.06
   0  -4   0  223.10    5.12
   0   4   0  240.61    5.00
   0  -4   0  232.12    4.55
  -2  -4   0   54.89    3.41
  -4   2   0   57.13    1.87
  -4   2   0   56.77    2.61
   2   4   0   53.53    2.24
   4  -2   0   57.23    2.58
   2   4   0   52.26    2.25
   4  -4   0   65.59    2.97
  -4   4   0   71.32    3.29
  -4  -4   0   69.42    3.82
   4   4   0   68.81    2.85
   4  -4   0   69.23    1.63
   5   3   0   63.75    2.87
  -3   5   0   66.99    3.18
  -5  -3   0   72.73    3.98
   3  -5   0   70.45    2.28
   3  -5   0   73.96    3.19
   5   1   0  123.61    3.75
  -5  -1   0  123.77    4.21
   1  -5   0  123.41    3.69
   1  -5   0  119.50    3.52
  -1   5   0  113.51    3.70
   5  -1   0  130.11    4.04
  -1  -5   0  127.42    4.50
  -5   1   0  129.28    3.72
   1   5   0  128.46    3.67
  -5   1   0  128.78    3.56
  -1  -5   0  125.09    3.44
  -5   3   0    3.26    1.34
   3   5   0    2.40    0.99
   3   5   0    3.17    1.07
   5  -3   0    4.57    1.31
  -5   3   0    2.52    0.71
  -3  -5   0    3.21    1.69
   5  -5   0    9.28    1.74
   5   5   0   11.56    1.62
  -5  -5   0   14.22    2.51
  -5   5   0   12.69    2.10
  -6  -4   0  134.19    5.55
   6   4   0  139.33    4.37
  -4   6   0  133.00    4.84
   4  -6   0  136.53    4.61
   2  -6   0    2.50    1.22
   6   2   0   -0.85    1.08
  -6  -2   0   -0.94    1.32
   2  -6   0    0.50    1.14
  -2   6   0    0.73    1.24
   0  -6   0  863.98   15.20
  -6   0   0  912.02   14.91
  -6   0   0  910.89   14.03
   6   0   0  909.72   14.48
   0   6   0  918.47   14.53
   0  -6   0  933.62   13.94
   6  -2   0   91.94    3.82
  -6   2   0   87.98    3.66
  -6   2   0   89.30    2.96
   2   6   0   92.54    3.27
  -2  -6   0   93.22    3.15
  -2  -6   0   93.58    4.47
  -6   4   0    4.47    1.73
   4   6   0    5.09    1.22
   6  -4   0    3.86    1.51
   4   6   0    6.18    1.31
  -4  -6   0    3.03    2.15
   6  -6   0  289.35    7.64
  -6  -6   0  299.14    9.04
   6   6   0  281.23    6.76
  -6   6   0  285.49    7.96
   5  -7   0   93.74    4.34
  -7  -5   0   97.64    5.42
  -5   7   0   97.68    4.66
   7   5   0   92.04    4.04
   7   3   0  157.74    4.93
  -3   7   0  153.88    5.36
   3  -7   0  159.35    4.13
   3  -7   0  163.17    4.99
  -7  -3   0  152.24    5.64
  -7  -1   0  157.87    5.17
   1  -7   0  153.89    4.49
   1  -7   0  148.48    4.77
  -1   7   0  143.44    4.81
   7   1   0  146.91    4.73
  -1  -7   0    1.29    1.59
  -7   1   0    0.61    1.19
  -1  -7   0    0.98    1.06
   7  -1   0   -1.52    1.22
   1   7   0   -0.37    1.09
  -7   1   0   -1.73    1.12
  -7   3   0  303.70    7.45
   7  -3   0  309.67    7.67
  -3  -7   0  298.92    8.51
   3   7   0  296.31    6.58
   3   7   0  291.81    6.67
   5   7   0  107.64    4.06
  -5  -7   0  115.83    6.02
   7  -5   0  110.67    4.73
  -7   5   0  110.74    4.89
   7  -7   0   48.00    3.97
  -7  -7   0   51.00    4.92
   7   7   0   51.02    3.42
  -7   7   0   44.81    3.99
  -8  -6   0   22.48    3.62
   8   6   0   23.38    2.73
  -6   8   0   25.28    3.22
   6  -8   0   27.18    3.16
   4  -8   0    5.20    1.80
  -4   8   0    7.01    2.07
  -8  -4   0    1.83    2.18
   8   4   0    8.87    1.93
   2  -8   0   35.24    2.85
   2  -8   0   40.89    2.94
  -2   8   0   34.05    3.09
  -8  -2   0   38.35    3.42
   8   2   0   38.31    3.07
   0   8   0    9.06    1.83
   0  -8   0   13.71    2.38
   0  -8   0    9.20    1.70
  -8   0   0    7.28    1.92
   8   0   0   10.46    1.96
  -8   0   0    8.03    1.69
  -2  -8   0   -0.89    1.92
   2   8   0    1.03    1.23
  -8   2   0    1.97    1.33
   8  -2   0    1.29    1.50
  -8   2   0   -0.78    1.30
  -2  -8   0    2.30    1.27
  -4  -8   0   82.70    5.45
  -8   4   0   87.40    4.48
   4   8   0   96.10    3.81
   4   8   0   83.58    3.68
   8  -4   0   89.60    4.42
   8  -6   0   14.14    2.58
   6   8   0   14.37    2.17
  -8   6   0   23.71    3.20
  -6  -8   0   15.95    3.28
   8  -8   0    0.16    1.79
  -8  -8   0   -2.38    2.24
  -8   8   0    0.82    2.07
  -7   9   0  292.81    9.22
   9   7   0  287.04    7.89
   7  -9   0  265.20    8.48
  -9  -7   0  262.48    9.46
   5  -9   0    2.64    1.86
  -5   9   0    1.01    1.91
  -9  -5   0    1.45    2.33
   9   5   0    1.29    1.79
   9   3   0   95.01    4.27
  -9  -3   0   89.88    4.92
   3  -9   0   94.70    4.38
  -3   9   0   90.17    4.66
  -9  -1   0  404.83    8.42
  -9  -1   0  393.61    9.53
   1  -9   0  394.57    8.76
   9   1   0  395.41    9.32
   1  -9   0  392.09    9.13
  -1  -9   0   20.90    2.31
  -9   1   0   22.32    2.59
   1   9   0   22.78    2.53
  -9   1   0   21.62    2.44
  -1  -9   0   24.50    3.25
   9  -1   0   24.38    2.84
   9  -3   0   75.57    4.30
   3   9   0   84.04    3.81
  -3  -9   0   86.33    5.49
  -9   3   0   78.81    4.25
   3   9   0   75.28    3.81
  -5  -9   0   87.00    5.73
  -9   5   0   85.95    4.95
   9  -5   0   93.94    5.00
   5   9   0   94.56    4.26
  -9   7   0   49.06    4.42
   9  -7   0   40.88    4.07
  -7  -9   0   43.54    4.98
  -9   9   0   51.44    5.01
  -9  -9   0   59.14    5.71
   9  -9   0   60.38    5.15
   8 -10   0    5.28    2.42
  -8  10   0    3.04    2.58
 -10  -8   0    4.16    2.78
  10   6   0   10.10    2.42
 -10  -6   0   11.27    2.99
   6 -10   0    7.72    2.43
  -6  10   0    6.93    2.54
  -4  10   0  114.52    5.64
 -10  -4   0  114.01    5.91
  10   4   0  119.05    5.18
   4 -10   0  123.31    5.38
 -10  -2   0    7.24    2.36
  10   2   0    5.58    2.06
  -2  10   0    4.06    2.07
   2 -10   0    6.03    1.93
  10   0   0  133.27    5.58
   0 -10   0  132.04    5.84
   0 -10   0  128.01    4.95
   0  10   0  127.22    5.28
 -10   0   0  127.88    5.42
 -10   0   0  126.58    4.94
  -2 -10   0  167.67    5.45
  -2 -10   0  167.21    7.16
  10  -2   0  167.94    6.45
 -10   2   0  179.08    6.19
   2  10   0  169.01    5.82
   4  10   0    2.16    1.56
   4  10   0    0.41    1.48
  -4 -10   0    2.22    2.51
  10  -4   0    3.12    2.06
 -10   4   0   -0.78    1.92
  10  -6   0  118.54    5.80
  -6 -10   0  114.64    6.78
 -10   6   0  109.86    5.82
  -8 -10   0   95.22    6.46
  10  -8   0   79.01    5.36
 -10   8   0   83.96    5.55
 -10  10   0   29.93    4.45
  10 -10   0   27.03    3.96
  -9  11   0    4.10    2.78
 -11  -9   0    2.81    2.78
   9 -11   0    4.82    2.59
   7 -11   0   16.15    3.20
 -11  -7   0   11.03    3.55
  -7  11   0   12.49    3.10
   5 -11   0   10.82    2.57
  -5  11   0   15.10    3.13
  11   5   0   10.62    2.59
 -11  -5   0   13.31    3.29
   3 -11   0    3.31    1.89
  -3  11   0    0.73    2.04
 -11  -3   0   -1.50    2.19
  11   3   0    1.60    1.94
  -1  11   0    6.20    2.25
  11   1   0    8.54    2.33
 -11  -1   0    4.09    2.31
   1 -11   0    1.33    1.76
 -11   1   0   30.10    3.24
  11  -1   0   27.93    3.33
  -1 -11   0   37.90    3.33
  -1 -11   0   26.66    3.81
   1  11   0   27.82    3.12
  -3 -11   0    5.71    2.68
   3  11   0    4.09    1.91
  11  -3   0    1.70    2.02
 -11   3   0    1.24    1.96
 -11   5   0   24.46    3.60
  -5 -11   0   27.18    4.31
  11  -7   0   41.23    4.43
 -11   7   0   39.83    4.48
  -7 -11   0   31.19    4.57
 -11   9   0   18.36    3.98
  -9 -11   0   19.27    4.10
  11  -9   0   23.75    3.91
   8 -12   0   44.22    4.85
 -12  -8   0   32.12    4.82
  -8  12   0   47.02    5.31
   6 -12   0   18.84    3.29
 -12  -6   0   24.11    4.27
  -6  12   0   18.58    3.64
 -12  -4   0   23.97    3.98
  12   4   0   27.96    3.58
   4 -12   0   23.02    3.23
  -4  12   0   21.00    3.52
  12   2   0   22.28    3.29
   2 -12   0   27.25    3.21
  -2  12   0   24.71    3.65
   0  12   0   79.17    4.75
  12   0   0   68.72    4.83
   2  12   0   18.08    2.87
  -2 -12   0   18.46    3.75
 -12   2   0   12.58    2.75
  12  -2   0   17.90    3.28
  12  -4   0    3.60    2.19
 -12   4   0    9.58    2.89
  -4 -12   0    6.30    3.15
 -12   6   0   36.93    4.40
  12  -6   0   30.41    3.98
  -6 -12   0   37.59    4.97
  -8 -12   0    9.08    3.73
  12  -8   0    8.44    3.07
 -12   8   0    9.92    3.12
 -13  -7   0   14.42    3.82
   7 -13   0   17.76    3.37
   5 -13   0   41.68    4.43
 -13  -5   0   38.08    4.95
  -5  13   0   35.35    4.52
  -3  13   0   37.87    4.50
  13   3   0   43.35    4.32
  -1  13   0   44.86    4.31
  13   1   0   50.19    4.75
  13  -1   0   -0.76    1.96
   1  13   0    5.56    2.33
  13  -3   0   59.48    5.20
  -3 -13   0   61.33    5.70
  13  -5   0   27.66    3.91
 -13   5   0   28.04    4.10
  -5 -13   0   44.24    5.44
  -7 -13   0   12.34    3.97
 -13   7   0    9.43    3.14
  -4  14   0   -1.80    2.31
  -2  14   0    1.28    2.47
  14   2   0    3.08    2.50
  14   0   0    2.85    2.53
   0  14   0    6.91    2.65
  14  -2   0    7.90    2.90
  14  -4   0   16.48    3.52
  -1  15   0  134.56    7.08
   1   0  -1    3.00    1.17
   0  -1  -1    1.99    1.14
   0   1  -1    2.54    0.96
   0   1  -1    2.30    1.15
   0  -1  -1    2.17    0.87
  -1   0  -1    3.67    1.21
   1   0  -1    3.04    0.80
   0  -1   1    1.26    0.68
   1   0   1    3.56    0.97
  -1   2  -1  200.62    4.37
   2   1  -1  195.20    3.28
  -1   2  -1  197.86    4.94
   1  -2  -1  191.07    4.35
   1  -2  -1  196.42    4.31
  -2  -1  -1  197.17    4.93
   2   1   1  193.34    4.42
   1  -2   1  194.79    3.67
  -2  -1   1  193.32    4.88
   2  -1  -1  295.46    5.38
  -2   1  -1  295.75    6.29
  -1  -2  -1  291.99    5.70
  -2   1  -1  290.06    5.22
   1   2  -1  308.44    5.94
   2  -1  -1  294.22    5.65
  -1  -2  -1  290.57    6.15
  -1  -2   1  293.27    6.34
   2  -1   1  297.11    5.46
  -3  -2  -1    3.80    1.39
   2  -3  -1    4.57    0.95
  -2   3  -1    2.43    1.10
   2  -3  -1    4.80    1.25
  -2   3  -1    4.79    1.40
   3   2  -1    3.60    0.67
   2  -3   1    1.51    0.93
  -2   3   1    3.74    1.16
   3   2   1    3.38    1.23
  -3  -2   1    1.27    1.37
  -3   0  -1  342.78    5.40
   0   3  -1  341.63    6.75
   0  -3  -1  349.12    6.69
  -3   0  -1  342.58    7.15
   3   0  -1  344.67    5.86
   0  -3  -1  347.58    6.69
   0   3   1  341.67    5.98
   3   0   1  346.92    6.58
   0  -3   1  346.20    4.97
   0  -3   1  340.48    7.13
  -3   0   1  335.79    6.68
  -3   2  -1   26.12    1.89
  -3   2  -1   28.65    2.26
  -2  -3  -1   30.79    2.47
   3  -2  -1   26.35    1.95
   2   3   1   33.08    2.29
   2   3   1   27.64    1.18
  -3   2   1   28.15    1.77
   3  -2   1   34.27    2.17
  -2  -3   1   33.48    2.58
  -3   4  -1   38.38    2.45
   4   3  -1   36.08    1.54
   3  -4  -1   35.37    2.61
  -4  -3  -1   36.90    3.10
  -3   4  -1   33.77    2.34
   3  -4  -1   37.08    1.62
   4   3   1   36.91    2.71
  -3   4   1   32.74    2.56
   3  -4   1   33.17    2.20
  -4  -3   1   38.07    3.04
   1  -4  -1  290.03    5.70
  -1   4  -1  280.77    6.26
  -4  -1  -1  291.87    4.17
   4   1  -1  282.43    5.16
   1  -4  -1  279.88    6.22
  -4  -1  -1  285.69    6.76
  -1   4   1  285.48    5.92
   4   1   1  277.09    6.20
   1  -4   1  288.20    5.01
  -4  -1   1  283.22    6.41
   1  -4   1  280.42    6.52
  -1  -4  -1  296.27    6.54
  -4   1  -1  297.30    6.60
   4  -1  -1  299.02    5.89
   1   4  -1  289.89    6.41
  -4   1  -1  293.34    5.36
  -1  -4  -1  289.15    6.30
   4  -1   1  287.74    6.15
  -1  -4   1  284.29    6.90
  -4   1   1  287.17    5.76
   1   4   1  296.53    5.27
   3   4  -1    1.26    0.47
  -3  -4  -1    0.41    1.39
  -4   3  -1    1.31    1.19
  -4   3  -1    0.82    1.00
   4  -3  -1   -0.20    1.07
   3   4   1   -0.45    1.13
  -3  -4   1    0.86    1.50
  -4   3   1   -0.25    1.08
   4  -3   1    0.08    1.02
  -4   3   1    2.28    0.74
   4  -5  -1  204.71    5.83
  -5  -4  -1  190.05    6.49
  -4   5  -1  200.29    5.77
   5   4  -1  206.43    4.16
  -5  -4   1  201.60    6.61
   4  -5   1  197.90    5.30
   4  -5   1  199.73    5.29
  -4   5   1  197.66    5.87
   5   4   1  199.77    5.84
  -2   5  -1  605.96   11.06
   2  -5  -1  599.01   10.90
   5   2  -1  605.24    9.49
  -5  -2  -1  602.21   11.98
   2  -5  -1  598.33    9.68
   2  -5   1  623.34   11.23
  -5  -2   1  603.10   11.63
   5   2   1  620.58   11.05
   2  -5   1  616.41    9.69
  -2   5   1  587.51   10.73
   0   5  -1   83.50    3.47
   5   0  -1   80.81    2.93
   0  -5  -1   84.12    3.27
   0  -5  -1   76.49    3.31
  -5   0  -1   75.65    3.68
  -5   0  -1   80.23    2.32
  -5   0   1   82.81    3.23
   0  -5   1   83.88    2.19
   5   0   1   82.13    3.38
   0  -5   1   87.97    3.84
   0   5   1   85.74    3.02
   2   5  -1  320.93    7.24
  -5   2  -1  326.90    7.23
  -2  -5  -1  324.81    7.19
  -5   2  -1  323.27    6.49
  -2  -5  -1  331.42    7.78
   2   5  -1  328.05    4.69
   5  -2  -1  331.75    6.99
  -5   2   1  326.92    6.05
   2   5   1  334.92    5.70
  -2  -5   1  323.38    7.96
   5  -2   1  333.67    7.24
  -5   4  -1  707.69   12.34
  -4  -5  -1  679.14   13.91
   5  -4  -1  713.68   12.62
  -5   4  -1  697.06   12.49
   4   5   1  708.34   12.59
  -5   4   1  721.65   13.15
   5  -4   1  717.50   12.39
  -4  -5   1  692.90   13.99
   5  -6  -1   -0.06    1.35
  -6  -5  -1    0.82    2.04
  -5   6  -1    1.87    1.57
   5  -6   1   -0.81    1.20
   6   5   1    0.12    1.40
  -5   6   1    0.89    1.52
   5  -6   1    1.06    1.41
  -6  -5   1    1.79    2.12
  -6  -3  -1   16.46    2.48
   3  -6  -1   15.73    2.17
  -3   6  -1   22.84    2.53
   6   3  -1   17.48    1.69
   3  -6   1   18.62    1.90
   6   3   1   20.53    2.46
   3  -6   1   12.96    1.98
  -3   6   1   18.67    2.34
  -6  -3   1   21.30    2.80
   1  -6  -1    1.02    1.06
  -6  -1  -1    1.48    0.67
  -6  -1  -1    2.86    1.51
   1  -6  -1    0.03    1.08
   6   1  -1   -0.20    0.96
  -1   6  -1    0.85    1.28
  -1   6   1    2.54    1.22
  -6  -1   1    3.27    1.50
   6   1   1    1.15    1.38
   1  -6   1    3.62    1.50
   1  -6   1    1.30    0.85
   6  -1  -1   83.58    3.29
   1   6  -1   80.21    3.78
  -1  -6  -1   79.52    3.56
  -1  -6  -1   76.34    3.70
  -6   1  -1   87.72    3.92
  -6   1  -1   80.91    2.83
  -1  -6   1   89.23    4.23
  -1  -6   1   82.64    2.19
   1   6   1   75.90    2.87
   6  -1   1   81.51    3.61
  -6   1   1   82.97    3.18
  -6   3  -1   15.35    1.96
  -3  -6  -1   10.95    2.32
   6  -3  -1   15.91    2.03
   3   6  -1   18.89    2.21
  -6   3  -1   19.08    2.11
  -3  -6   1   18.88    2.86
   3   6   1   16.45    1.37
   3   6   1   14.04    2.07
  -6   3   1   16.02    2.20
   6  -3   1   12.44    1.93
  -6   5  -1   61.38    3.60
  -6   5  -1   63.28    3.30
   6  -5  -1   66.56    3.65
  -5  -6  -1   61.68    4.59
   6  -5   1   66.02    3.57
   5   6   1   66.48    3.86
  -5  -6   1   64.99    4.73
  -6   5   1   67.63    4.01
   6  -7  -1   89.92    4.69
  -6   7  -1  105.94    5.10
  -7  -6  -1  107.43    5.90
   6  -7   1  110.75    4.74
   7   6   1  106.11    4.98
  -6   7   1  111.60    5.30
  -7  -6   1  108.71    5.87
   4  -7  -1   18.33    2.57
   7   4  -1   17.20    1.82
  -7  -4  -1   23.14    3.31
  -4   7  -1   22.21    2.76
  -7  -4   1   21.72    3.30
  -4   7   1   21.62    2.75
   4  -7   1   18.55    2.25
   7   4   1   18.11    2.65
   4  -7   1   20.42    2.29
  -7  -2  -1   71.55    4.25
   7   2  -1   73.08    3.17
   2  -7  -1   73.19    3.75
  -2   7  -1   71.89    3.83
  -7  -2   1   73.70    4.25
   2  -7   1   69.10    2.95
  -2   7   1   72.98    3.71
   2  -7   1   72.49    3.86
   7   2   1   72.03    3.84
   0   7  -1   17.71    2.35
   7   0  -1   14.89    1.91
  -7   0  -1   19.11    2.52
   0  -7  -1   20.43    2.42
  -7   0  -1   19.73    1.68
   7   0   1   11.08    2.04
   0  -7   1   21.96    2.61
   0  -7   1   16.73    1.49
  -7   0   1   19.33    2.34
   0   7   1   17.89    1.99
  -2  -7  -1   24.88    2.66
   7  -2  -1   22.34    2.36
  -2  -7  -1   23.66    2.75
   2   7  -1   23.82    2.62
  -7   2  -1   24.59    2.27
  -7   2  -1   26.95    2.66
   7  -2   1   20.49    2.54
  -2  -7   1   26.77    3.11
   2   7   1   22.69    1.88
  -7   2   1   21.36    2.68
   4   7  -1   73.83    3.71
  -7   4  -1   82.06    3.87
  -4  -7  -1   78.78    4.94
  -7   4  -1   73.44    3.50
   7  -4  -1   72.01    4.00
  -7   4   1   66.51    4.17
   4   7   1   75.95    4.08
  -4  -7   1   68.78    4.84
   7  -4   1   74.60    3.96
   7  -6  -1    0.87    1.54
  -7   6  -1    3.59    1.93
  -6  -7  -1    2.96    2.58
   7  -6   1    5.53    1.85
  -7   6   1    2.49    1.99
   6   7   1    2.23    1.76
  -6  -7   1    3.07    2.37
   7  -8  -1    2.11    1.90
  -7   8  -1    1.96    2.22
  -8  -7  -1    1.59    2.60
   7  -8   1    0.16    1.62
  -8  -7   1    1.79    2.67
  -7   8   1    0.96    2.15
   8   7   1    3.78    2.02
  -5   8  -1  128.28    5.67
  -8  -5  -1  141.73    6.64
   5  -8  -1  117.71    5.46
   5  -8   1  126.86    4.90
   8   5   1  129.75    5.53
  -8  -5   1  126.85    6.36
  -5   8   1  126.33    5.72
   3  -8  -1   48.33    3.45
  -8  -3  -1   48.84    4.28
  -3   8  -1   49.57    3.59
   8   3  -1   45.51    2.81
   3  -8   1   51.16    3.55
  -3   8   1   49.01    3.85
  -8  -3   1   47.02    4.29
   3  -8   1   44.44    2.90
   8   3   1   48.83    3.89
   1  -8  -1   22.33    2.61
  -1   8  -1   21.38    2.73
  -8  -1  -1   17.44    2.74
   8   1  -1   20.08    2.29
   1  -8  -1   22.01    2.17
   1  -8   1   21.82    1.98
   1  -8   1   24.41    2.84
  -1   8   1   22.44    2.52
  -8  -1   1   21.58    2.71
   8   1   1   26.23    3.03
   8  -1  -1   91.56    4.17
  -8   1  -1  100.51    3.69
  -8   1  -1   89.79    4.55
  -1  -8  -1   92.35    4.30
   1   8  -1   89.94    4.44
  -1  -8  -1   90.90    4.35
   8  -1   1   90.23    4.41
  -1  -8   1   92.50    4.97
   1   8   1   90.62    3.66
  -8   3  -1    8.84    1.96
  -8   3  -1   12.60    2.14
  -3  -8  -1   10.63    2.67
   8  -3  -1   10.91    2.25
   3   8  -1   10.31    2.11
  -8   3   1   13.09    2.46
  -3  -8   1   10.10    2.80
   8  -3   1    9.76    2.12
   3   8   1   10.07    2.25
  -5  -8  -1  110.76    6.25
  -8   5  -1  124.69    5.24
   8  -5  -1  113.42    5.16
   5   8   1  126.17    5.21
  -5  -8   1  123.93    6.45
   8  -5   1  121.81    5.39
  -8   5   1  134.69    5.96
  -8   7  -1   28.72    3.52
   8  -7  -1   33.38    3.67
  -7  -8  -1   41.76    4.88
  -8   7   1   32.78    3.90
   8  -7   1   26.97    3.24
   7   8   1   39.04    3.79
  -7  -8   1   26.27    4.18
   8  -9  -1   -2.51    1.93
  -8   9  -1   -0.46    2.18
  -9  -8  -1   -1.97    2.55
   8  -9   1    2.01    2.03
   9   8   1    0.99    2.06
  -8   9   1   -3.10    2.07
  -9  -8   1    0.25    2.87
   6  -9  -1   -2.00    1.54
  -6   9  -1   -2.02    1.84
  -9  -6  -1   -0.15    2.37
  -9  -6   1    0.56    2.55
  -6   9   1    0.24    2.01
   6  -9   1    0.33    1.66
   9   6   1    2.24    2.07
  -4   9  -1   32.40    3.62
   4  -9  -1   27.21    3.29
  -9  -4  -1   38.13    4.07
   4  -9   1   33.35    2.97
  -9  -4   1   29.14    3.96
  -4   9   1   32.67    3.51
   9   4   1   29.09    3.29
   9   2  -1   12.00    2.11
  -9  -2  -1   14.38    2.94
   2  -9  -1    8.77    2.16
  -2   9  -1   15.38    2.70
  -9  -2   1   11.28    2.72
  -2   9   1   12.68    2.30
   2  -9   1   12.62    2.35
   9   2   1   12.28    2.45
   0  -9  -1   26.27    2.92
   0   9  -1   31.55    3.31
  -9   0  -1   27.93    3.34
   0  -9  -1   29.27    2.82
   9   0  -1   33.32    3.08
   0   9   1   27.37    2.71
   9   0   1   30.75    3.33
   0  -9   1   30.91    3.61
  -9   0   1   26.59    2.98
  -2  -9  -1   65.41    4.26
  -9   2  -1   58.30    3.95
   2   9  -1   67.09    4.20
   9  -2  -1   66.89    3.86
  -2  -9  -1   64.29    3.85
  -2  -9   1   57.11    4.67
   9  -2   1   59.02    3.98
  -9   2   1   58.56    3.94
   4   9  -1   36.71    3.47
   9  -4  -1   41.25    3.76
  -9   4  -1   41.95    3.55
  -4  -9  -1   31.20    4.12
  -9   4   1   43.57    4.13
   4   9   1   36.92    3.51
  -4  -9   1   47.30    4.69
   9  -4   1   38.73    3.68
   9  -6  -1    1.38    1.94
  -6  -9  -1    2.20    2.58
  -9   6  -1    1.32    1.98
   9  -6   1    0.83    1.99
   6   9   1    5.02    2.19
  -6  -9   1   -1.65    2.53
  -9   6   1    1.06    2.24
  -9   8  -1   56.13    5.11
   9  -8  -1   49.50    4.66
  -8  -9  -1   42.87    5.26
  -8  -9   1   43.28    5.26
   9  -8   1   40.96    4.18
  -9   8   1   43.10    4.56
   8   9   1   39.61    4.10
 -10  -9  -1   30.07    4.95
   9 -10  -1   27.18    3.94
  -9  10  -1   23.34    3.94
 -10  -9   1   28.96    5.11
  10   9   1   31.66    4.16
  -9  10   1   28.52    4.12
   9 -10   1   35.75    4.12
   7 -10  -1    1.89    2.21
 -10  -7  -1    4.00    2.95
  -7  10  -1    0.77    2.22
  10   7   1   -0.76    2.14
   7 -10   1    0.60    1.86
  -7  10   1   -1.09    2.14
 -10  -7   1   -0.36    3.05
  -5  10  -1  153.16    6.91
 -10  -5  -1  167.14    7.51
   5 -10  -1  154.42    6.52
   5 -10   1  158.04    5.88
  -5  10   1  153.12    6.61
  10   5   1  165.00    6.64
 -10  -5   1  164.24    7.70
 -10  -3  -1   29.71    3.78
  -3  10  -1   42.56    4.12
   3 -10  -1   42.95    4.06
  10   3   1   37.01    3.88
  -3  10   1   42.92    4.04
 -10  -3   1   37.87    4.42
 -10  -1  -1    3.69    2.20
  10   1  -1    7.58    2.11
  -1  10  -1    6.04    2.22
   1 -10  -1    6.70    2.21
 -10  -1   1    8.69    2.58
  -1  10   1    3.85    1.87
  10   1   1    4.22    2.07
   1 -10   1    7.12    2.54
  -1 -10  -1   41.94    3.83
 -10   1  -1   39.02    3.86
   1  10  -1   54.35    4.49
  -1 -10  -1   42.66    3.80
  10  -1  -1   38.65    3.55
  -1 -10   1   49.32    4.65
   1  10   1   41.46    3.11
 -10   1   1   42.21    3.87
  10  -1   1   39.94    3.89
  10  -3  -1    7.52    2.26
  -3 -10  -1   10.68    2.82
   3  10  -1    9.31    2.29
   3  10   1    9.02    2.47
  -3 -10   1   12.13    3.31
  10  -3   1    9.91    2.39
 -10   3   1    7.60    2.45
  -5 -10  -1   -0.54    2.40
 -10   5  -1    3.11    2.20
  10  -5  -1    3.99    2.13
   5  10   1   -0.82    1.82
  -5 -10   1    0.97    2.82
  10  -5   1    0.29    1.88
 -10   5   1    3.66    2.47
  -7 -10  -1    2.22    2.92
  10  -7  -1   -0.50    1.87
 -10   7  -1   -1.01    2.10
   7  10   1   -0.86    2.02
 -10   7   1    0.04    2.44
  10  -7   1    1.83    2.14
  -7 -10   1    0.70    3.02
  10  -9  -1    4.51    2.43
 -10   9  -1   -2.20    2.37
  -9 -10  -1    2.64    3.22
 -10   9   1    2.42    2.78
  -9 -10   1    5.36    3.58
  10  -9   1    4.88    2.59
   8 -11  -1   91.33    5.86
  -8  11  -1   96.65    6.32
 -11  -8  -1   91.79    6.66
  -8  11   1   94.63    6.24
 -11  -8   1   87.51    7.65
   8 -11   1   89.07    5.40
  11   8   1  100.94    5.90
   6 -11  -1   98.32    5.77
  -6  11  -1   89.26    5.82
  11   6   1   80.63    5.19
 -11  -6   1   84.56    6.59
  -6  11   1   76.76    5.28
   4 -11  -1   21.50    3.49
  -4  11  -1   23.66    3.50
 -11  -4  -1   22.36    3.72
 -11  -4   1   22.90    3.89
  11   4   1   23.90    3.40
  -4  11   1   20.29    3.34
 -11  -2  -1  216.94    8.30
   2 -11  -1  220.04    7.71
  -2  11  -1  213.12    7.89
  -2  11   1  235.42    7.79
  11   2   1  228.41    7.92
 -11   0  -1   71.30    4.87
   0 -11  -1   69.66    4.62
  11   0  -1   74.11    4.46
   0  11  -1   73.76    4.72
   0 -11   1   72.38    5.44
   0  11   1   75.67    4.22
  11   0   1   64.92    4.78
 -11   0   1   73.73    4.56
  -2 -11  -1   53.25    4.37
  11  -2  -1   53.30    3.95
  -2 -11  -1   57.63    4.60
   2  11  -1   54.64    4.19
 -11   2   1   51.87    4.53
  11  -2   1   61.59    4.99
  -2 -11   1   52.15    5.21
   4  11  -1  271.53    8.60
  11  -4  -1  261.70    8.84
  -4 -11  -1  274.41    9.84
  -4 -11   1  282.70   10.26
 -11   4   1  277.17    9.35
  11  -4   1  280.81    9.22
   4  11   1  274.50    8.59
 -11   6  -1   11.91    2.93
  -6 -11  -1   13.51    3.70
  11  -6  -1   15.66    3.11
  11  -6   1   13.12    2.98
 -11   6   1    9.50    3.30
  -6 -11   1    5.86    3.57
   6  11   1    9.41    2.57
  11  -8  -1   36.36    4.50
  -8 -11  -1   44.26    5.74
 -11   8  -1   27.70    4.18
  -8 -11   1   33.95    5.28
   8  11   1   31.72    4.00
  11  -8   1   27.98    4.04
 -11   8   1   30.06    4.54
   7 -12  -1    4.78    2.77
 -12  -7  -1    5.20    3.16
  -7  12  -1    5.39    2.86
  12   7   1    6.85    2.94
  -7  12   1   10.21    3.14
 -12  -7   1    9.46    3.78
 -12  -5  -1   16.22    3.76
   5 -12  -1   24.77    3.82
  -5  12  -1   23.58    3.79
  -5  12   1   17.14    3.34
 -12  -5   1   18.88    4.36
  12   5   1   21.77    3.67
   3 -12  -1   13.70    3.04
 -12  -3  -1   28.12    4.23
  -3  12  -1   19.26    3.56
  12   3   1   19.55    3.44
  -3  12   1   21.79    3.55
  -1  12  -1    6.81    2.49
 -12  -1  -1    7.94    2.90
  12   1  -1    7.14    2.38
   1 -12  -1    5.15    2.39
  12   1   1    8.21    2.73
 -12  -1   1    4.80    2.25
  -1  12   1    7.07    2.45
  -1 -12  -1   78.84    4.83
   1  12  -1   81.01    5.29
  12  -1  -1   82.56    5.01
  -1 -12   1  100.08    6.43
 -12   1   1   82.27    4.97
  12  -1   1   85.20    5.35
   3  12  -1   15.69    3.03
  12  -3  -1   21.05    3.38
  -3 -12   1    7.80    3.33
  12  -3   1   18.82    3.30
   3  12   1   14.43    2.93
 -12   3   1   15.00    3.31
  12  -5  -1   11.31    2.94
  -5 -12  -1   12.71    3.77
  12  -5   1   14.40    3.06
 -12   5   1   16.57    3.51
  -5 -12   1   14.52    3.95
   5  12   1   17.03    3.10
  12  -7  -1  109.83    6.34
  -7 -12  -1  113.90    7.70
  -7 -12   1  104.94    7.62
 -12   7   1  108.01    6.90
  12  -7   1  115.02    6.42
 -13  -6  -1   41.61    5.13
  13   6   1   44.27    4.89
  -6  13   1   37.69    4.72
 -13  -6   1   47.86    5.89
  -4  13  -1    5.40    2.75
 -13  -4  -1    6.97    3.15
   4 -13  -1    1.75    2.31
  13   4   1    3.71    2.62
  -4  13   1    3.24    2.49
  -2  13  -1   16.81    3.28
   2 -13  -1   15.38    3.24
  13   2   1   17.19    3.34
  -2  13   1   14.38    3.29
   0  13  -1   -1.70    1.97
   0 -13  -1   -0.29    1.93
  13   0  -1   -0.16    1.97
 -13   0   1    1.09    2.28
  13   0   1    1.10    2.36
   2  13  -1   10.84    2.85
  13  -2  -1   15.49    3.21
   2  13   1   11.70    2.98
 -13   2   1   10.23    3.05
  13  -2   1    9.12    2.87
  -2 -13   1    5.87    3.59
   4  13  -1   16.44    3.22
  13  -4  -1    8.27    2.91
  13  -4   1    8.17    2.95
 -13   4   1    5.07    2.97
  -4 -13   1    7.10    3.50
  -6 -13   1    0.80    3.75
 -13   6   1   -1.33    2.71
   3 -14  -1   74.12    5.64
  -3  14   1   74.59    5.71
  14   3   1   65.46    5.88
   1 -14  -1   -0.45    2.26
  -1  14  -1   -2.27    2.17
  14   1   1    0.25    2.51
  -1 -14  -1   65.50    4.99
   1  14  -1   70.44    5.89
  14  -1  -1   64.24    4.89
  14  -1   1   61.38    5.62
   3  14  -1   33.28    4.14
  14  -3  -1   38.81    4.47
 -14   3   1   38.22    4.77
   0   0  -2 1000.00   17.43
   0   0   2  981.71   14.66
   1   1  -2   73.88    3.87
  -1   1  -2   64.13    3.84
  -1  -1  -2   68.50    3.80
   1  -1  -2   67.23    3.65
   1  -1  -2   67.89    2.84
  -1  -1   2   68.75    2.37
   1   1   2   68.18    3.05
   1  -1   2   71.50    2.77
   0  -2  -2  126.90    4.07
   2   0  -2  117.20    3.38
   0   2  -2  118.97    4.76
   0  -2  -2  121.31    4.57
  -2   0  -2  113.20    4.79
  -2   0   2  114.70    4.68
   2   0   2  117.60    3.94
   0  -2   2  115.88    3.00
  -2   2  -2    2.64    1.22
   2  -2  -2    4.06    1.26
  -2  -2  -2    2.14    1.71
   2  -2  -2    4.10    1.58
  -2   2  -2    4.77    1.97
   2   2   2    6.11    1.60
  -2  -2   2    3.02    1.62
   2  -2   2    6.95    1.41
   1  -3  -2  169.25    5.18
   1  -3  -2  162.45    4.96
   3   1  -2  160.84    3.65
  -1   3  -2  166.08    5.07
  -3  -1  -2  164.15    5.87
  -1   3  -2  159.15    5.75
  -3  -1   2  159.37    5.61
   1  -3   2  157.17    3.77
   3   1   2  160.24    5.05
  -3   1  -2   37.98    3.47
   3  -1  -2   42.93    2.47
  -1  -3  -2   40.44    3.21
  -3   1   2   39.38    3.10
   1   3   2   40.42    2.85
  -1  -3   2   41.79    3.37
   3  -1   2   42.13    2.70
   3  -3  -2  111.37    4.19
  -3   3  -2  107.29    5.01
  -3  -3  -2  107.74    5.06
  -3   3  -2  111.70    4.00
   3  -3  -2  106.50    4.05
  -3  -3   2  112.91    4.99
   3  -3   2  111.97    3.72
   3   3   2  116.88    4.50
  -4  -2  -2   28.55    3.30
   2  -4  -2   28.60    2.70
   2  -4  -2   24.69    2.40
  -2   4  -2   27.83    2.68
   2  -4   2   25.93    1.95
  -4  -2   2   21.64    2.84
  -2   4   2   20.24    2.30
   2  -4   2   20.70    2.86
   4   2   2   22.52    2.59
  -4   0  -2  167.81    6.07
   0  -4  -2  169.04    5.31
   4   0  -2  166.41    4.22
   0   4  -2  154.18    5.17
   0  -4  -2  171.29    5.52
   4   0   2  164.11    5.27
   0   4   2  166.08    4.55
   0  -4   2  171.44    5.98
  -4   0   2  167.78    5.55
  -4   2  -2   11.16    2.32
  -4   2  -2   12.49    1.73
   4  -2  -2    9.69    1.67
  -2  -4  -2   10.01    2.13
  -2  -4   2    9.46    2.26
   2   4   2   13.31    2.14
  -4   2   2   13.95    2.02
   4  -2   2   14.17    1.98
  -4   4  -2   15.44    2.61
   4  -4  -2   17.41    2.27
  -4  -4  -2   13.85    2.78
  -4   4  -2   14.99    2.09
  -4  -4   2   16.94    2.85
   4  -4   2   14.84    2.06
   4   4   2   14.82    2.34
  -4   4   2   13.01    2.41
  -5  -3  -2   11.37    2.69
  -3   5  -2   15.90    2.26
   3  -5  -2   10.39    2.03
   3  -5   2   12.29    2.52
  -5  -3   2   15.05    2.74
  -3   5   2   11.70    2.13
   5   3   2   15.71    2.49
   1  -5  -2   84.99    4.16
  -1   5  -2   82.52    3.96
   1  -5  -2   77.50    3.77
  -5  -1  -2   81.29    4.73
   1  -5   2   79.56    4.59
  -5  -1   2   78.06    4.28
   5   1   2   80.58    4.00
  -1   5   2   85.88    3.62
   5  -1  -2   10.98    1.68
  -5   1  -2   14.79    2.62
  -1  -5  -2   13.83    2.34
   1   5  -2   16.06    2.28
  -1  -5  -2    9.95    2.03
  -1  -5   2   10.75    2.34
  -5   1   2   12.22    2.01
   5  -1   2    9.54    1.98
  -5   3  -2    3.90    2.03
  -3  -5  -2   -0.79    1.71
   5  -3  -2    0.78    1.33
  -5   3  -2    1.02    1.27
   5  -3   2    0.14    1.42
   3   5   2    0.22    1.54
  -3  -5   2    0.58    1.78
  -5  -5  -2    0.64    2.10
  -5   5  -2    0.58    1.32
  -5   5  -2    0.44    1.86
   5  -5  -2    1.01    1.64
   5   5   2    0.51    1.66
   5  -5   2    0.47    1.50
  -5  -5   2   -1.87    1.99
  -5   5   2    1.15    1.78
  -4   6  -2  132.90    5.20
  -6  -4  -2  134.06    6.36
   4  -6  -2  131.47    5.42
  -4   6   2  129.81    5.46
   6   4   2  128.01    5.62
  -6  -4   2  140.88    6.32
   4  -6   2  123.72    5.41
   2  -6  -2    3.03    1.67
  -6  -2  -2    3.55    2.30
  -2   6  -2    8.67    2.01
   2  -6   2    5.57    2.20
  -6  -2   2    5.66    2.32
  -2   6   2    5.87    1.77
   6   2   2    4.12    1.84
  -6   0  -2  340.50    9.49
   0  -6  -2  345.82    8.73
   0  -6  -2  335.59    8.35
   0   6  -2  348.44    8.82
   6   0  -2  343.09    7.20
   0   6   2  336.65    7.37
   6   0   2  322.44    8.32
  -6   0   2  337.57    8.39
   0  -6   2  355.27    9.48
  -6   2  -2   95.83    4.93
  -2  -6  -2   96.42    4.79
   6  -2  -2   93.02    4.05
   2   6   2   93.79    4.77
  -2  -6   2   96.04    5.24
   6  -2   2   92.32    4.37
  -6   4  -2   21.20    3.09
   6  -4  -2   24.15    2.82
  -4  -6  -2   13.93    2.90
  -6   4  -2   15.16    2.28
  -6   4   2   20.13    2.95
   6  -4   2   16.43    2.50
  -4  -6   2   18.55    3.23
   4   6   2   14.55    2.55
  -6   6  -2  120.16    5.31
   6  -6  -2  128.77    5.63
  -6  -6  -2  129.93    6.40
  -6   6   2  112.83    5.77
   6   6   2  114.60    5.67
   6  -6   2  115.37    4.86
   6  -6   2  128.84    5.63
  -6  -6   2  116.46    6.39
  -7  -5  -2   21.52    3.62
   5  -7  -2   23.27    3.09
  -5   7  -2   25.95    3.13
   7   5   2   18.48    2.97
   5  -7   2   32.19    3.62
  -7  -5   2   28.06    4.20
  -5   7   2   24.37    3.26
  -7  -3  -2   63.41    4.93
   3  -7  -2   54.81    3.84
  -3   7  -2   54.22    3.88
  -7  -3   2   60.38    4.67
   7   3   2   54.00    3.98
   3  -7   2   51.06    4.21
  -3   7   2   58.31    3.75
  -1   7  -2  125.62    5.39
  -7  -1  -2  139.97    6.43
   1  -7  -2  129.74    5.46
  -7  -1   2  136.98    5.61
   7   1   2  139.85    5.65
   1  -7   2  136.48    5.93
  -1   7   2  130.38    4.85
  -1  -7  -2    4.42    1.88
  -1  -7  -2    9.64    2.31
   1   7  -2    3.62    1.80
   7  -1  -2    9.94    1.88
  -7   1  -2    5.00    2.27
  -1  -7   2    7.08    2.58
   7  -1   2    5.35    2.14
  -7   3  -2  119.14    5.52
   7  -3  -2  119.37    5.01
  -3  -7  -2  119.48    5.72
   7  -3   2  121.84    5.18
  -7   3   2  119.85    5.64
  -3  -7   2  114.22    6.01
   3   7   2  117.83    5.41
   7  -5  -2  113.08    5.37
  -5  -7  -2   99.99    5.85
  -7   5  -2  112.63    5.60
  -7   5  -2  110.97    4.93
  -7   5   2  118.11    5.87
  -5  -7   2  110.57    6.29
   7  -5   2  108.19    5.07
   5   7   2  101.90    5.39
  -7   7  -2   55.23    4.25
  -7  -7  -2   37.42    4.58
   7  -7  -2   51.60    4.42
   7   7   2   53.64    4.73
  -7   7   2   45.66    4.55
  -7  -7   2   53.31    5.42
  -8  -6  -2   35.76    4.57
   6  -8  -2   28.88    3.69
  -6   8  -2   36.84    3.96
   8   6   2   44.01    4.51
  -6   8   2   29.75    3.81
  -8  -6   2   42.16    5.10
  -4   8  -2    0.60    1.76
   4  -8  -2   -0.93    1.88
  -8  -4  -2    0.84    2.40
   4  -8   2    1.37    1.96
  -4   8   2   -0.49    1.86
  -8  -4   2   -1.07    2.41
   8   4   2   -1.23    1.86
   2  -8  -2    7.01    2.31
  -8  -2  -2    9.23    2.91
  -2   8  -2    4.52    2.06
   8   2   2    3.30    2.01
  -2   8   2    4.87    1.93
   2  -8   2    4.74    2.41
  -8  -2   2    9.44    2.90
   0   8  -2   20.69    2.96
   0  -8  -2   18.49    2.97
  -8   0  -2   19.57    3.34
   0  -8   2   21.11    3.38
   8   0   2   14.21    2.74
   8  -2  -2    9.48    2.24
   2   8  -2    7.91    2.26
  -8   2  -2    5.27    2.57
  -2  -8  -2    9.52    2.47
   2   8   2    7.48    2.30
   8  -2   2   10.65    2.48
  -2  -8   2    7.64    2.79
   8  -4  -2   20.83    2.94
  -4  -8  -2   21.68    3.49
  -8   4  -2   24.89    3.47
  -8   4   2   23.19    3.44
   4   8   2   26.02    3.31
  -4  -8   2   17.11    3.32
   8  -4   2   22.72    3.09
  -8   6  -2   -0.41    1.88
   8  -6  -2    1.85    2.11
  -6  -8  -2    0.04    2.54
   6   8   2    2.23    2.30
  -6  -8   2   -2.83    2.72
  -8   6   2    3.13    2.62
   8  -6   2    4.16    2.18
   8  -8  -2    2.99    2.26
  -8  -8  -2    7.79    3.36
  -8   8  -2    4.70    2.56
  -8   8   2   -1.83    2.36
   8   8   2    4.74    2.63
  -8  -8   2    2.69    3.11
  -9  -7  -2  167.28    8.44
  -7   9  -2  154.96    7.12
   7  -9  -2  147.20    7.08
  -9  -7   2  147.57    8.21
   9   7   2  157.87    7.40
  -9  -5  -2   14.49    3.58
  -5   9  -2   13.03    2.85
   5  -9  -2    6.86    2.44
   9   5   2    9.04    2.83
  -5   9   2   13.39    2.96
  -9  -5   2    9.26    3.52
   3  -9  -2   96.48    5.33
  -3   9  -2   96.19    5.34
  -9  -3  -2   82.96    5.74
   3  -9   2  101.61    5.61
   9   3   2   95.05    5.36
  -9  -3   2   99.79    6.11
  -3   9   2   99.07    5.16
  -1   9  -2  187.95    7.23
   1  -9  -2  189.59    7.26
  -9  -1  -2  176.66    7.65
   9   1   2  178.04    7.01
   1  -9   2  178.85    7.31
  -9   1  -2    2.22    2.55
   1   9  -2    2.68    2.05
  -1  -9  -2    3.41    2.01
  -1  -9   2    0.90    2.41
   9  -1   2    3.66    2.09
   9  -3  -2   88.76    4.87
  -3  -9  -2   89.79    5.22
  -9   3  -2   90.44    5.47
   9  -3   2   83.97    4.90
  -3  -9   2   86.79    5.66
   3   9   2   78.39    5.04
  -9   3   2   86.94    5.41
  -5  -9  -2   33.63    4.55
   9  -5  -2   33.06    3.84
  -9   5   2   36.00    4.35
   9  -5   2   38.20    4.00
   5   9   2   34.95    4.07
  -5  -9   2   32.44    4.79
   9  -7  -2   12.19    2.91
  -7  -9  -2   16.82    4.03
  -9   7   2   16.29    3.60
   9  -7   2   19.76    3.20
   7   9   2   18.11    3.50
  -7  -9   2   18.80    4.34
  -9   9  -2   69.23    5.91
   9  -9  -2   74.55    5.51
   9   9   2   79.20    5.82
  -9  -9   2   71.52    7.38
  -9   9   2   53.86    5.75
   8 -10  -2   -0.14    2.30
  -8  10  -2   -0.60    2.28
 -10  -8  -2    1.71    3.22
  -8  10   2   -1.06    2.80
  10   8   2   -2.19    2.47
 -10  -8   2    0.49    3.46
  -6  10  -2   20.29    3.50
 -10  -6  -2   17.95    4.06
   6 -10  -2   17.53    3.25
  -6  10   2   21.74    3.68
 -10  -6   2   29.40    5.07
  10   6   2   10.91    3.05
 -10  -4  -2   40.22    4.80
   4 -10  -2   49.32    4.71
  -4  10  -2   46.88    4.56
  -4  10   2   42.37    4.24
  10   4   2   53.98    4.95
 -10  -4   2   63.12    5.93
   2 -10  -2   -0.26    2.02
 -10  -2  -2    1.82    2.76
  -2  10  -2    4.12    2.27
   2 -10   2    0.67    2.44
  10   2   2   -4.11    1.98
 -10   0  -2  124.37    6.59
   0 -10  -2  119.31    6.01
   0  10  -2  126.23    6.31
   0 -10   2  104.62    6.21
  10   0   2  127.75    6.12
 -10   2  -2   79.20    5.56
   2  10  -2   70.43    4.94
  10  -2   2   82.70    5.45
  -2 -10   2   75.80    6.36
   2  10   2   78.70    5.13
 -10   2   2   77.27    5.09
  10  -4  -2    1.18    2.13
  -4 -10  -2   -0.83    2.25
   4  10   2    3.70    2.35
  -4 -10   2    3.51    3.18
  10  -4   2    5.10    2.39
 -10   4   2    1.99    2.31
  -6 -10  -2  130.79    7.55
  10  -6  -2  130.72    6.59
  -6 -10   2  121.72    7.57
 -10   6   2  126.26    7.07
   6  10   2  128.55    6.67
  10  -6   2  123.58    6.41
  -8 -10  -2   48.20    6.10
  10  -8  -2   36.90    4.47
  -8 -10   2   37.22    5.47
 -10   8   2   36.24    5.09
   8  10   2   47.35    5.02
  -7  11  -2   18.77    3.70
  -7  11   2   33.39    4.60
 -11  -7   2   22.49    4.76
   5 -11  -2    1.14    2.12
  -5  11  -2    2.99    2.46
 -11  -5  -2    0.21    2.62
  -5  11   2    4.89    2.54
  11   5   2    3.18    2.46
 -11  -5   2    0.49    3.31
 -11  -3  -2    1.33    2.67
  -3  11  -2   -1.80    2.10
   3 -11  -2    3.71    2.44
  11   3   2   -1.14    2.16
   1 -11  -2   10.55    2.80
 -11  -1  -2   10.37    3.44
  -1  11  -2    7.55    2.66
  11   1   2    9.47    3.06
   1 -11   2   13.67    3.49
   1  11  -2    7.04    2.67
  -1 -11  -2    3.83    2.41
 -11   1  -2   10.03    3.21
  11  -1   2    8.18    2.84
 -11   1   2    8.21    2.54
  -1 -11   2    4.43    3.14
  11  -3  -2   12.63    3.03
   3  11   2   10.24    2.87
  -3 -11   2   12.87    3.77
  11  -3   2   12.73    3.23
 -11   3   2    8.65    2.76
  11  -5  -2    3.72    2.45
  -5 -11  -2    0.25    2.65
  11  -5   2    8.67    2.84
 -11   5   2   -0.14    2.44
   5  11   2    7.96    2.81
  -5 -11   2    2.19    3.48
  -7 -11  -2   11.13    4.04
  11  -7  -2   23.33    3.93
   7  11   2   11.67    3.34
  11  -7   2   14.43    3.35
 -12  -6   2    1.22    3.56
  -6  12   2    2.23    2.90
  -4  12  -2   46.03    4.99
   4 -12  -2   39.58    4.75
  12   4   2   39.70    4.90
 -12  -2  -2   10.43    3.46
  -2  12  -2    4.89    2.52
   2 -12  -2   12.49    3.19
  12   2   2    6.73    2.85
   0  12  -2   33.94    4.36
   0 -12  -2   45.55    4.86
 -12   0  -2   38.01    4.96
   0 -12   2   37.93    5.21
 -12   0   2   35.24    4.27
  12   0   2   26.02    4.07
   2  12  -2   25.08    3.87
  -2 -12   2   24.00    4.73
  12  -2   2   26.01    4.07
   2  12   2   26.52    3.85
 -12   2   2   22.99    3.70
  12  -4  -2    3.97    2.63
  -4 -12   2   -4.84    3.10
 -12   4   2   -1.45    2.53
   4  12   2    2.17    2.39
  12  -4   2   -2.96    2.11
  12  -6  -2    9.81    3.23
  -6 -12  -2   13.43    4.11
 -13  -3  -2   21.53    4.51
 -13  -1   2   64.18    5.57
 -13   1   2    4.62    2.61
  -1 -13   2   -2.74    3.28
  -3 -13   2   27.65    5.19
  -1   0  -3    1.10    2.18
   1   0  -3    1.80    2.16
   0  -1  -3    0.74    2.16
   0   1  -3   -1.03    1.99
   0   1   3    0.59    1.44
  -2  -1  -3   57.36    4.56
  -1   2  -3   61.60    4.80
   1  -2  -3   50.36    4.47
  -1   2   3   50.76    3.39
  -2  -1   3   58.97    4.97
   2   1   3   55.28    3.61
  -2   1  -3  103.60    5.76
  -1  -2  -3  120.68    5.89
  -2   1   3  116.35    5.89
  -1  -2   3  125.82    6.27
   1   2   3  111.78    4.75
  -2   3  -3    5.20    2.63
   2  -3  -3    3.59    1.78
   2  -3  -3    4.92    2.27
  -3  -2  -3    4.12    2.57
   3   2   3    2.99    2.01
  -3  -2   3    1.99    2.35
   0  -3  -3   37.30    4.06
  -3   0  -3   40.76    4.53
   0  -3   3   34.60    4.13
   3   0   3   36.47    3.24
   0   3   3   38.22    3.40
  -3   0   3   35.54    3.97
  -3   2  -3    5.22    2.55
  -2  -3  -3    5.48    2.51
   2   3   3    7.16    2.14
  -2  -3   3    4.11    2.78
  -3   2   3    6.34    2.44
  -4  -3  -3   17.09    3.33
   3  -4  -3   14.11    2.54
   4   3   3   17.60    2.99
   3  -4   3   20.82    3.53
  -4  -3   3   18.80    3.48
   1  -4  -3   99.80    5.15
  -4  -1  -3   93.41    5.74
  -4  -1   3   96.06    5.66
   4   1   3   97.16    4.87
   1  -4   3   97.01    5.74
  -4   1  -3   62.65    4.86
  -1  -4  -3   71.81    4.89
  -1  -4   3   74.30    5.17
   1   4   3   83.39    4.64
  -4   1   3   78.31    5.10
   4  -1   3   82.21    4.23
   4  -3  -3    3.80    1.82
  -3  -4  -3   -1.39    2.23
  -4   3  -3    2.52    2.64
  -3  -4   3    0.65    2.51
   3   4   3    2.88    2.12
  -4   5  -3   79.05    4.45
  -5  -4  -3   73.52    5.57
   4  -5  -3   86.93    4.86
   4  -5   3   80.57    5.37
  -5  -4   3   83.12    5.81
  -4   5   3   89.92    5.03
   5   4   3   79.12    4.93
   2  -5  -3  161.89    6.37
  -5  -2  -3  174.86    7.61
   5   2   3  183.88    6.85
   2  -5   3  175.38    7.44
  -5  -2   3  170.23    7.27
  -5   0  -3   30.48    4.25
   0  -5  -3   41.45    4.12
   0  -5   3   32.32    4.21
   0   5   3   35.80    3.72
  -5   0   3   34.55    3.94
   5   0   3   35.79    3.55
  -5   2  -3  130.25    6.56
  -2  -5  -3  119.76    6.21
  -2  -5   3  115.18    6.54
   2   5   3  121.06    5.63
   5  -4  -3  223.76    7.30
   4   5   3  215.81    7.88
  -4  -5   3  220.38    8.76
  -5   4   3  225.05    7.93
  -6  -5  -3   -1.94    2.53
   5  -6  -3   -1.25    1.95
   5  -6   3   -1.29    1.97
  -5   6   3    2.19    2.28
   6   5   3   -2.70    1.92
  -6  -5   3   -4.49    2.36
  -3   6  -3    1.16    1.70
  -6  -3  -3    0.04    2.62
   3  -6  -3   -0.40    1.91
  -3   6   3   -0.50    1.78
  -6  -3   3    2.57    2.53
   3  -6   3    5.99    2.77
   6   3   3   -0.90    2.08
  -6  -1  -3   -1.34    2.49
   1  -6  -3   -0.77    1.66
  -6  -1   3    0.08    2.39
   6   1   3    0.96    1.95
   1  -6   3   -0.15    2.27
  -6   1  -3   25.58    4.15
  -1  -6  -3   20.49    3.29
   6  -1   3   24.17    3.20
  -1  -6   3   20.18    3.78
   1   6   3   24.14    3.28
  -6   3  -3    2.05    2.77
  -3  -6  -3    0.65    2.49
  -3  -6   3    5.16    2.75
   3   6   3   -1.63    1.95
  -5  -6  -3   37.54    4.77
   6  -5  -3   37.86    4.00
  -6   5   3   30.31    3.95
   5   6   3   44.08    4.67
  -5  -6   3   44.64    5.10
   6  -7  -3   44.00    4.60
  -7  -6  -3   28.15    4.58
   6  -7   3   46.39    4.84
  -6   7   3   53.33    5.25
   7   6   3   36.70    4.48
  -7  -6   3   39.85    5.29
  -4   7  -3    4.82    2.21
  -7  -4  -3    7.71    3.31
   4  -7  -3    5.06    2.41
   7   4   3    9.64    3.04
  -4   7   3    2.39    2.27
   4  -7   3    6.97    2.80
  -7  -4   3    4.63    2.87
   2  -7  -3   49.66    4.59
  -7  -2  -3   36.61    4.72
  -2   7  -3   53.50    4.52
  -7  -2   3   46.92    4.95
   7   2   3   47.12    4.59
   2  -7   3   48.08    5.02
  -7   0  -3    8.96    3.27
   0   7   3    2.17    2.24
   0  -7   3   -0.06    2.42
   7   0   3    3.88    2.31
  -7   2  -3    9.79    3.38
  -2  -7  -3    6.99    2.89
   2   7   3    5.35    2.45
  -2  -7   3    4.02    2.80
   7  -2   3    6.87    2.37
  -4  -7  -3   38.68    4.87
  -7   4  -3   46.79    5.21
  -4  -7   3   34.43    4.67
   4   7   3   45.35    4.71
  -7   4   3   36.43    4.23
  -6  -7  -3    0.32    2.81
   7  -6  -3   -0.65    2.10
  -7   6   3   -1.07    2.39
   7  -6   3    2.53    2.29
   6   7   3    2.39    2.60
  -6  -7   3   -0.24    2.97
   7  -8  -3    0.39    2.40
  -7   8   3   -3.12    2.50
   5  -8  -3   81.14    5.62
  -5   8  -3   76.76    5.18
  -5   8   3   72.61    5.13
   8   5   3   74.50    5.65
  -8  -5   3   80.31    7.22
   5  -8   3   87.93    5.96
  -8  -3  -3   17.76    4.02
  -3   8  -3   17.70    3.09
   3  -8  -3   14.36    3.20
   8   3   3   18.16    3.60
  -8  -3   3   19.47    4.02
   3  -8   3    9.66    3.17
  -8  -1  -3    4.97    3.08
   1  -8  -3    7.91    2.70
   1  -8   3    7.34    2.90
   8   1   3   12.73    3.06
  -8   1  -3   52.00    5.46
   8  -1   3   62.29    5.03
   1   8   3   63.26    5.31
  -1  -8   3   63.87    6.03
  -3  -8  -3    4.00    2.89
  -8   3  -3    7.34    3.34
  -8   3   3    4.72    2.61
  -3  -8   3    4.84    2.98
   3   8   3    5.96    2.37
  -8   5  -3   54.37    5.77
  -5  -8  -3   69.92    6.53
  -8   5   3   57.09    5.25
  -5  -8   3   51.59    5.67
   5   8   3   58.85    5.36
   8  -7  -3   24.26    3.93
  -7  -8  -3   18.52    4.74
  -8   7   3   21.88    4.23
  -6   9  -3    4.04    2.66
   6  -9  -3    0.19    2.54
  -9  -6   3   -3.17    2.94
  -6   9   3    1.00    2.71
  -4   9  -3    8.41    2.74
   4  -9  -3    8.44    2.85
  -9  -4  -3   10.87    3.77
   4  -9   3   10.38    3.32
  -9  -4   3   16.23    3.99
   9   4   3   14.36    3.59
  -2   9  -3    8.22    2.59
  -9  -2  -3   15.58    3.99
   2  -9  -3   11.94    3.02
   2  -9   3   15.00    3.41
   9   2   3    7.73    2.95
  -9   0  -3    5.76    3.13
   0   9   3   13.65    3.13
   9   0   3   12.37    3.02
   0  -9   3    7.28    3.13
  -9   2  -3   21.99    4.39
   9  -2   3   23.34    3.74
   2   9   3   18.78    3.49
  -2  -9   3   20.54    4.18
  -9   4  -3   18.27    4.19
  -4  -9  -3   22.50    4.30
  -4  -9   3   29.40    4.80
   4   9   3   29.51    3.99
  -9   4   3   25.85    3.96
 -10  -5   3   73.75    6.79
  -3  10  -3   27.79    4.03
   3 -10  -3   33.99    4.61
   3 -10   3   28.65    4.57
  10   3   3   25.18    4.17
   1 -10  -3    2.29    2.46
 -10  -1  -3   13.16    4.04
  -1  10  -3    6.68    2.63
   1 -10   3    2.60    3.16
  10   1   3    7.81    3.31
 -10   1  -3   17.04    4.18
   1  10   3   19.40    3.61
  -1 -10   3   22.50    4.36
  10  -1   3   11.68    3.26
 -10   3  -3    2.75    3.29
 -10   3   3    8.51    3.00
  10  -3   3    4.75    2.68
   2 -11   3  108.75    7.15
   0   0   4  268.01   10.18
  -1  -1  -4    9.45    3.44
  -1  -1   4   13.39    3.52
  -1   1   4   17.07    3.68
   1  -1   4   14.76    3.60
  -2   0  -4   24.84    4.51
   0  -2  -4   22.83    4.10
  -2   0   4   19.08    3.97
   0  -2   4   23.52    4.15
  -2  -2  -4    6.00    3.29
  -2   2   4    1.24    2.56
   2  -2   4    4.83    3.17
   1  -3   4   60.93    6.09
  -3  -1   4   45.13    5.28
  -3   1  -4   12.94    3.85
  -1  -3  -4   16.90    3.87
  -3   1   4   20.96    4.07
  -1  -3   4   11.06    3.58
  -3  -3  -4   37.50    5.08
  -3  -3   4   36.64    5.08
   3  -3   4   30.08    4.51
  -4  -2  -4    9.55    3.60
   2  -4   4    7.72    3.13
  -4  -2   4    8.34    3.65
  -4   0  -4   48.72    5.97
   0  -4   4   45.31    5.62
  -4   0   4   50.83    5.48
  -2  -4  -4    9.48    3.50
  -4   2  -4    7.61    3.69
  -2  -4   4    8.79    3.56
  -4  -4   4    8.72    3.87
  -5  -3   4    8.42    3.68
  -5  -1   4   18.38    3.90
  -1  -5  -4    7.73    3.58
  -5   1  -4   -0.24    3.24
  -3  -5  -4   -0.43    2.96
  -2  -6  -4   28.12    4.66
   2   6   4   37.17    4.49
   0   0   0    0.00    0.00
;
_shelx_hkl_checksum              14135
loop_
_space_group_symop_operation_xyz
'x, y, z'
'-x, -y, z'
'-y, x, z'
'y, -x, z'
'x+1/2, y+1/2, z+1/2'
'-x+1/2, -y+1/2, z+1/2'
'-y+1/2, x+1/2, z+1/2'
'y+1/2, -x+1/2, z+1/2'
'-x, -y, -z'
'x, y, -z'
'y, -x, -z'
'-y, x, -z'
'-x+1/2, -y+1/2, -z+1/2'
'x+1/2, y+1/2, -z+1/2'
'y+1/2, -x+1/2, -z+1/2'
'-y+1/2, x+1/2, -z+1/2'
loop_
_atom_site_label
_atom_site_type_symbol
_atom_site_fract_x
_atom_site_fract_y
_atom_site_fract_z
_atom_site_U_iso_or_equiv
_atom_site_adp_type
_atom_site_occupancy
_atom_site_site_symmetry_order
_atom_site_calc_flag
_atom_site_refinement_flags_posn
_atom_site_refinement_flags_adp
_atom_site_refinement_flags_occupancy
_atom_site_disorder_assembly
_atom_site_disorder_group
K1 K 0.5000 0.5000 0.208(4) 0.020(2) Uani 0.246(10) 4 d S TU P . .
K2 K 0.5000 0.5000 0.0000 0.018(3) Uani 0.267(19) 8 d S TU P . .
K3 K 0.5000 0.5000 0.5000 0.018(3) Uani 0.011(6) 8 d S T P . .
Ti1 Ti 0.16764(6) 0.35046(6) 0.0000 0.00555(16) Uani 0.807(2) 2 d S T P . .
Cr1 Cr 0.16764(6) 0.35046(6) 0.0000 0.00555(16) Uani 0.193(2) 2 d S T P . .
O1 O 0.1654(2) 0.5409(2) 0.0000 0.0059(5) Uani 1 2 d S T P . .
O2 O 0.2958(2) 0.3448(2) 0.5000 0.0054(5) Uani 1 2 d S T P . .
loop_
_atom_site_aniso_label
_atom_site_aniso_U_11
_atom_site_aniso_U_22
_atom_site_aniso_U_33
_atom_site_aniso_U_23
_atom_site_aniso_U_13
_atom_site_aniso_U_12
K1 0.0100(17) 0.0100(17) 0.039(7) 0.000 0.000 0.000
K2 0.014(3) 0.014(3) 0.026(7) 0.000 0.000 0.000
K3 0.014(3) 0.014(3) 0.026(7) 0.000 0.000 0.000
Ti1 0.0059(3) 0.0055(3) 0.0052(3) 0.000 0.000 0.0009(2)
Cr1 0.0059(3) 0.0055(3) 0.0052(3) 0.000 0.000 0.0009(2)
O1 0.0082(11) 0.0036(10) 0.0059(11) 0.000 0.000 0.0004(8)
O2 0.0053(10) 0.0047(10) 0.0061(11) 0.000 0.000 0.0003(7)
loop_
_atom_type_symbol
_atom_type_description
_atom_type_scat_dispersion_real
_atom_type_scat_dispersion_imag
_atom_type_scat_source
O O 0.0106 0.0060 'International Tables Vol C Tables 4.2.6.8 and 6.1.1.4'
K K 0.2009 0.2494 'International Tables Vol C Tables 4.2.6.8 and 6.1.1.4'
Ti Ti 0.2776 0.4457 'International Tables Vol C Tables 4.2.6.8 and 6.1.1.4'
Cr Cr 0.3209 0.6236 'International Tables Vol C Tables 4.2.6.8 and 6.1.1.4'
loop_
_geom_angle_atom_site_label_1
_geom_angle_atom_site_label_2
_geom_angle_atom_site_label_3
_geom_angle
_geom_angle_site_symmetry_1
_geom_angle_site_symmetry_3
K1 K2 K1 180.0 . 9_665
O1 Ti1 O1 94.23(11) . 15_454
O1 Ti1 O1 94.23(11) . 15_455
O1 Ti1 O1 97.70(11) 15_454 15_455
O1 Ti1 O2 92.12(8) . 1_554
O1 Ti1 O2 82.08(8) 15_454 1_554
O1 Ti1 O2 173.64(10) 15_455 1_554
O1 Ti1 O2 92.12(8) . .
O1 Ti1 O2 173.64(10) 15_454 .
O1 Ti1 O2 82.08(8) 15_455 .
O2 Ti1 O2 97.42(11) 1_554 .
O1 Ti1 O2 170.09(10) . 13
O1 Ti1 O2 92.28(8) 15_454 13
O1 Ti1 O2 92.28(8) 15_455 13
O2 Ti1 O2 81.39(9) 1_554 13
O2 Ti1 O2 81.39(9) . 13
O1 Ti1 Ti1 89.999(1) . 1_556
O1 Ti1 Ti1 138.85(6) 15_454 1_556
O1 Ti1 Ti1 41.15(6) 15_455 1_556
O2 Ti1 Ti1 138.71(6) 1_554 1_556
O2 Ti1 Ti1 41.29(6) . 1_556
O2 Ti1 Ti1 90.0 13 1_556
O1 Ti1 Cr1 90.0 . 1_554
O1 Ti1 Cr1 41.15(6) 15_454 1_554
O1 Ti1 Cr1 138.85(6) 15_455 1_554
O2 Ti1 Cr1 41.29(6) 1_554 1_554
O2 Ti1 Cr1 138.71(6) . 1_554
O2 Ti1 Cr1 90.0 13 1_554
Ti1 Ti1 Cr1 180.0 1_556 1_554
O1 Ti1 Cr1 89.999(1) . 1_556
O1 Ti1 Cr1 138.85(6) 15_454 1_556
O1 Ti1 Cr1 41.15(6) 15_455 1_556
O2 Ti1 Cr1 138.71(6) 1_554 1_556
O2 Ti1 Cr1 41.29(6) . 1_556
O2 Ti1 Cr1 90.0 13 1_556
Ti1 Ti1 Cr1 0.00(3) 1_556 1_556
Cr1 Ti1 Cr1 180.0 1_554 1_556
O1 Ti1 Ti1 90.0 . 1_554
O1 Ti1 Ti1 41.15(6) 15_454 1_554
O1 Ti1 Ti1 138.85(6) 15_455 1_554
O2 Ti1 Ti1 41.29(6) 1_554 1_554
O2 Ti1 Ti1 138.71(6) . 1_554
O2 Ti1 Ti1 90.0 13 1_554
Ti1 Ti1 Ti1 180.0 1_556 1_554
Cr1 Ti1 Ti1 0.00(2) 1_554 1_554
Cr1 Ti1 Ti1 180.0 1_556 1_554
O1 Ti1 Cr1 132.89(6) . 13_554
O1 Ti1 Cr1 86.37(7) 15_454 13_554
O1 Ti1 Cr1 132.45(8) 15_455 13_554
O2 Ti1 Cr1 41.22(7) 1_554 13_554
O2 Ti1 Cr1 89.11(7) . 13_554
O2 Ti1 Cr1 40.17(5) 13 13_554
Ti1 Ti1 Cr1 119.36(2) 1_556 13_554
Cr1 Ti1 Cr1 60.65(2) 1_554 13_554
Cr1 Ti1 Cr1 119.36(2) 1_556 13_554
Ti1 Ti1 Cr1 60.65(2) 1_554 13_554
O1 Ti1 Ti1 132.89(6) . 13_554
O1 Ti1 Ti1 86.37(7) 15_454 13_554
O1 Ti1 Ti1 132.45(8) 15_455 13_554
O2 Ti1 Ti1 41.22(7) 1_554 13_554
O2 Ti1 Ti1 89.11(7) . 13_554
O2 Ti1 Ti1 40.17(5) 13 13_554
Ti1 Ti1 Ti1 119.36(2) 1_556 13_554
Cr1 Ti1 Ti1 60.65(2) 1_554 13_554
Cr1 Ti1 Ti1 119.36(2) 1_556 13_554
Ti1 Ti1 Ti1 60.65(2) 1_554 13_554
Cr1 Ti1 Ti1 0.000(16) 13_554 13_554
Ti1 O1 Cr1 130.83(6) . 7
Ti1 O1 Ti1 130.83(6) . 7
Cr1 O1 Ti1 0.00(3) 7 7
Ti1 O1 Ti1 130.83(6) . 7_554
Cr1 O1 Ti1 97.71(11) 7 7_554
Ti1 O1 Ti1 97.71(11) 7 7_554
Ti1 O1 Cr1 130.83(6) . 7_554
Cr1 O1 Cr1 97.71(11) 7 7_554
Ti1 O1 Cr1 97.71(11) 7 7_554
Ti1 O1 Cr1 0.00(4) 7_554 7_554
Ti1 O2 Cr1 97.42(11) . 1_556
Ti1 O2 Ti1 97.42(11) . 1_556
Cr1 O2 Ti1 0.00(4) 1_556 1_556
Ti1 O2 Cr1 98.61(9) . 13
Cr1 O2 Cr1 98.62(9) 1_556 13
Ti1 O2 Cr1 98.62(9) 1_556 13
Ti1 O2 Ti1 98.61(9) . 13
Cr1 O2 Ti1 98.62(9) 1_556 13
Ti1 O2 Ti1 98.62(9) 1_556 13
Cr1 O2 Ti1 0.00(3) 13 13
loop_
_geom_bond_atom_site_label_1
_geom_bond_atom_site_label_2
_geom_bond_distance
_geom_bond_site_symmetry_2
K1 K2 0.616(13) .
K2 K1 0.616(13) 9_665
Ti1 O1 1.932(3) .
Ti1 O1 1.9679(17) 15_454
Ti1 O1 1.9679(17) 15_455
Ti1 O2 1.9721(17) 1_554
Ti1 O2 1.9722(18) .
Ti1 O2 2.014(3) 13
Ti1 Ti1 2.9637(17) 1_556
Ti1 Cr1 2.9637(17) 1_554
Ti1 Cr1 2.9637(17) 1_556
Ti1 Ti1 2.9637(17) 1_554
Ti1 Cr1 3.0228(17) 13_554
Ti1 Ti1 3.0228(17) 13_554
O1 Cr1 1.9679(17) 7
O1 Ti1 1.9679(17) 7
O1 Ti1 1.9679(17) 7_554
O1 Cr1 1.9679(17) 7_554
O2 Cr1 1.9722(17) 1_556
O2 Ti1 1.9722(17) 1_556
O2 Cr1 2.014(3) 13
O2 Ti1 2.014(3) 13
