#------------------------------------------------------------------------------
#$Date: 2021-06-15 11:12:38 +0300 (Tue, 15 Jun 2021) $
#$Revision: 266469 $
#$URL: file:///home/coder/svn-repositories/cod/cif/1/56/34/1563487.cif $
#------------------------------------------------------------------------------
#
# This file is available in the Crystallography Open Database (COD),
# http://www.crystallography.net/
#
# All data on this site have been placed in the public domain by the
# contributors.
#
data_1563487
loop_
_publ_author_name
'Souilah, M.'
'Lafond, A.'
'Guillot-Deudon, C.'
'Harel, S.'
'Evain, M.'
_publ_section_title
;
 Structural investigation of the Cu2Se--In2Se3--Ga2Se3 phase diagram,
 X-ray photoemission and optical properties of the
 Cu1&#x2212;z(In0.5Ga0.5)1+z/3Se2 compounds
;
_journal_issue                   10
_journal_name_full               'Journal of Solid State Chemistry'
_journal_page_first              2274
_journal_page_last               2280
_journal_paper_doi               10.1016/j.jssc.2010.08.014
_journal_volume                  183
_journal_year                    2010
_chemical_formula_moiety         'Cu0.6 Ga0.567 In0.567 Se2'
_chemical_formula_sum            'Cu0.6 Ga0.567 In0.567 Se2'
_chemical_formula_weight         300.7
_space_group_IT_number           121
_space_group_name_Hall           'I -4 2'
_space_group_name_H-M_alt        'I -4 2 m'
_symmetry_cell_setting           tetragonal
_symmetry_space_group_name_Hall  'I -4 2'
_symmetry_space_group_name_H-M   'I -4 2 m'
_cell_angle_alpha                90
_cell_angle_beta                 90
_cell_angle_gamma                90
_cell_formula_units_Z            4
_cell_length_a                   5.6660(5)
_cell_length_b                   5.6660(5)
_cell_length_c                   11.2725(9)
_cell_measurement_reflns_used    21449
_cell_measurement_temperature    293
_cell_measurement_theta_max      34.98
_cell_measurement_theta_min      6.49
_cell_volume                     361.89(5)
_computing_cell_refinement       unknown
_computing_data_collection       unknown
_computing_data_reduction        unknown
_computing_molecular_graphics    unknown
_computing_structure_solution    unknown
_diffrn_ambient_temperature      293
_diffrn_measured_fraction_theta_full 0.98
_diffrn_measured_fraction_theta_max 0.98
_diffrn_measurement_device       'four-cycle diffractometer'
_diffrn_measurement_device_type  'Nonius CCD'
_diffrn_measurement_method       omega
_diffrn_radiation_monochromator  unknown
_diffrn_radiation_source         'X-ray tube'
_diffrn_radiation_type           'Mo K\a'
_diffrn_radiation_wavelength     0.71069
_diffrn_reflns_av_R_equivalents  0.1145
_diffrn_reflns_av_sigmaI/netI    0.0416
_diffrn_reflns_limit_h_max       9
_diffrn_reflns_limit_h_min       -9
_diffrn_reflns_limit_k_max       9
_diffrn_reflns_limit_k_min       -9
_diffrn_reflns_limit_l_max       18
_diffrn_reflns_limit_l_min       -18
_diffrn_reflns_number            21449
_diffrn_reflns_theta_full        35.11
_diffrn_reflns_theta_max         34.98
_diffrn_reflns_theta_min         6.49
_exptl_absorpt_coefficient_mu    31.282
_exptl_absorpt_correction_T_max  0.6426
_exptl_absorpt_correction_T_min  0.2796
_exptl_absorpt_correction_type   gaussian
_exptl_absorpt_process_details
'Jana2006  (Petricek, Dusek & Palatinus, 2000)'
_exptl_crystal_colour            black
_exptl_crystal_density_diffrn    5.517
_exptl_crystal_description       block
_exptl_crystal_F_000             523
_exptl_crystal_size_max          0.05
_exptl_crystal_size_mid          0.02
_exptl_crystal_size_min          0.01
_refine_diff_density_max         2.31
_refine_diff_density_min         -1.55
_refine_ls_extinction_coef       500(200)
_refine_ls_extinction_method
'B-C type 1 Gaussian isotropic (Becker & Coppens, 1974)'
_refine_ls_goodness_of_fit_gt    1.71
_refine_ls_goodness_of_fit_ref   1.45
_refine_ls_number_constraints    7
_refine_ls_number_parameters     23
_refine_ls_number_reflns         1121
_refine_ls_number_restraints     0
_refine_ls_R_factor_all          0.1485
_refine_ls_R_factor_gt           0.0687
_refine_ls_shift/su_max          0.0148
_refine_ls_shift/su_mean         0.0038
_refine_ls_structure_factor_coef Fsqd
_refine_ls_weighting_details     w=1/(\s^2^(I)+0.0016I^2^)
_refine_ls_weighting_scheme      sigma
_refine_ls_wR_factor_gt          0.1285
_refine_ls_wR_factor_ref         0.1530
_reflns_number_gt                582
_reflns_number_total             1121
_reflns_threshold_expression     I>2\s(I)
_cod_data_source_file            JSSC-2010_183-2274.cif
_cod_data_source_block           7
_cod_depositor_comments
;
The following automatic conversions were performed:

data item '_exptl_absorpt_correction_type' value 'Gaussian' was
changed to 'gaussian' in accordance with the built-in table derived
from the CIF Core dictionary named 'cif_core.dic' version 2.4.5 last
updated on 2014-11-21.

Automatic conversion script
Id: cif_fix_values 8369 2020-08-20 11:38:08Z andrius 
;
_cod_database_code               1563487
loop_
_symmetry_equiv_pos_site_id
_symmetry_equiv_pos_as_xyz
1 x,y,z
2 -x,-y,z
3 y,-x,-z
4 -y,x,-z
5 -x,y,-z
6 x,-y,-z
7 -y,-x,z
8 y,x,z
9 x+1/2,y+1/2,z+1/2
10 -x+1/2,-y+1/2,z+1/2
11 y+1/2,-x+1/2,-z+1/2
12 -y+1/2,x+1/2,-z+1/2
13 -x+1/2,y+1/2,-z+1/2
14 x+1/2,-y+1/2,-z+1/2
15 -y+1/2,-x+1/2,z+1/2
16 y+1/2,x+1/2,z+1/2
loop_
_atom_site_label
_atom_site_type_symbol
_atom_site_fract_x
_atom_site_fract_y
_atom_site_fract_z
_atom_site_adp_type
_atom_site_U_iso_or_equiv
_atom_site_symmetry_multiplicity
_atom_site_occupancy
_atom_site_calc_flag
_atom_site_refinement_flags
_atom_site_disorder_assembly
_atom_site_disorder_group
Cu_2a Cu 0 0 0 Uani 0.0237(17) 2 0.851(7) d . . .
In_4d In 0 0.5 0.25 Uani 0.0240(14) 4 0.0667(8) d . . .
Ga_4d Ga 0 0.5 0.25 Uani 0.0240(14) 4 0.5667(8) d . . .
Cu_4d Cu 0 0.5 0.25 Uani 0.0240(14) 4 0.174(4) d . . .
In_2b In 0.5 0.5 0 Uani 0.0234(8) 2 1 d . . .
Se_8i Se 0.2403(3) 0.2403(3) 0.12988(16) Uani 0.0245(8) 8 1 d . . .
loop_
_atom_site_aniso_label
_atom_site_aniso_type_symbol
_atom_site_aniso_U_11
_atom_site_aniso_U_22
_atom_site_aniso_U_33
_atom_site_aniso_U_12
_atom_site_aniso_U_13
_atom_site_aniso_U_23
Cu_2a Cu 0.023(2) 0.023(2) 0.026(4) 0 0 0
In_4d In 0.025(2) 0.025(2) 0.023(3) 0 0 0
Ga_4d Ga 0.025(2) 0.025(2) 0.023(3) 0 0 0
Cu_4d Cu 0.025(2) 0.025(2) 0.023(3) 0 0 0
In_2b In 0.0231(12) 0.0231(12) 0.0240(17) 0 0 0
Se_8i Se 0.0265(11) 0.0265(11) 0.0206(18) -0.0062(5) 0.0060(3) 0.0060(3)
loop_
_atom_type_symbol
_atom_type_scat_dispersion_real
_atom_type_scat_dispersion_imag
_atom_type_scat_source
Cu 0.320 1.265 'International Tables Vol C tables 4.2.6.8 and 6.1.1.1'
In -0.728 1.310 'International Tables Vol C tables 4.2.6.8 and 6.1.1.1'
Ga 0.231 1.608 'International Tables Vol C tables 4.2.6.8 and 6.1.1.1'
Se -0.093 2.226 'International Tables Vol C tables 4.2.6.8 and 6.1.1.1'
loop_
_geom_angle_atom_site_label_1
_geom_angle_atom_site_label_2
_geom_angle_atom_site_label_3
_geom_angle_site_symmetry_1
_geom_angle_site_symmetry_2
_geom_angle_site_symmetry_3
_geom_angle
_geom_angle_publ_flag
Se_8i Cu_2a Se_8i . . 2_555 105.51(6) yes
Se_8i Cu_2a Se_8i . . 3_555 111.49(6) yes
Se_8i Cu_2a Se_8i . . 4_555 111.49(6) yes
Se_8i Cu_2a Se_8i 2_555 . 3_555 111.49(6) yes
Se_8i Cu_2a Se_8i 2_555 . 4_555 111.49(6) yes
Se_8i Cu_2a Se_8i 3_555 . 4_555 105.51(6) yes
Se_8i In_4d Se_8i . . 2_565 111.93(6) yes
Se_8i In_4d Se_8i . . 11_455 108.26(6) yes
Se_8i In_4d Se_8i . . 12_555 108.26(6) yes
Se_8i In_4d Se_8i 2_565 . 11_455 108.26(6) yes
Se_8i In_4d Se_8i 2_565 . 12_555 108.26(6) yes
Se_8i In_4d Se_8i 11_455 . 12_555 111.93(6) yes
Se_8i Ga_4d Se_8i . . 2_565 111.93(6) yes
Se_8i Ga_4d Se_8i . . 11_455 108.26(6) yes
Se_8i Ga_4d Se_8i . . 12_555 108.26(6) yes
Se_8i Ga_4d Se_8i 2_565 . 11_455 108.26(6) yes
Se_8i Ga_4d Se_8i 2_565 . 12_555 108.26(6) yes
Se_8i Ga_4d Se_8i 11_455 . 12_555 111.93(6) yes
Se_8i Cu_4d Se_8i . . 2_565 111.93(6) yes
Se_8i Cu_4d Se_8i . . 11_455 108.26(6) yes
Se_8i Cu_4d Se_8i . . 12_555 108.26(6) yes
Se_8i Cu_4d Se_8i 2_565 . 11_455 108.26(6) yes
Se_8i Cu_4d Se_8i 2_565 . 12_555 108.26(6) yes
Se_8i Cu_4d Se_8i 11_455 . 12_555 111.93(6) yes
Se_8i In_2b Se_8i . . 2_665 109.74(6) yes
Se_8i In_2b Se_8i . . 3_565 109.34(6) yes
Se_8i In_2b Se_8i . . 4_655 109.34(6) yes
Se_8i In_2b Se_8i 2_665 . 3_565 109.34(6) yes
Se_8i In_2b Se_8i 2_665 . 4_655 109.34(6) yes
Se_8i In_2b Se_8i 3_565 . 4_655 109.74(6) yes
loop_
_geom_bond_atom_site_label_1
_geom_bond_atom_site_label_2
_geom_bond_site_symmetry_1
_geom_bond_site_symmetry_2
_geom_bond_distance
_geom_bond_publ_flag
Cu_2a Se_8i . . 2.4191(18) yes
Cu_2a Se_8i . 2_555 2.4191(18) yes
Cu_2a Se_8i . 3_555 2.4191(18) yes
Cu_2a Se_8i . 4_555 2.4191(18) yes
In_4d Se_8i . . 2.4192(18) yes
In_4d Se_8i . 2_565 2.4192(18) yes
In_4d Se_8i . 11_455 2.4192(18) yes
In_4d Se_8i . 12_555 2.4192(18) yes
Ga_4d Se_8i . . 2.4192(18) yes
Ga_4d Se_8i . 2_565 2.4192(18) yes
Ga_4d Se_8i . 11_455 2.4192(18) yes
Ga_4d Se_8i . 12_555 2.4192(18) yes
Cu_4d Se_8i . . 2.4192(18) yes
Cu_4d Se_8i . 2_565 2.4192(18) yes
Cu_4d Se_8i . 11_455 2.4192(18) yes
Cu_4d Se_8i . 12_555 2.4192(18) yes
In_2b Se_8i . . 2.5442(18) yes
In_2b Se_8i . 2_665 2.5442(18) yes
In_2b Se_8i . 3_565 2.5442(18) yes
In_2b Se_8i . 4_655 2.5442(18) yes
loop_
_refln_index_h
_refln_index_k
_refln_index_l
_refln_F_squared_calc
_refln_F_squared_meas
_refln_F_squared_sigma
_refln_observed_status
2 0 0 170.27 223.57 20.47 o
4 0 0 62871.55 61890.61 374.26 o
6 0 0 47.76 -91.69 88.05 <
8 0 0 5122.23 5542.30 143.25 o
3 1 0 319.17 324.15 19.63 o
5 1 0 86.12 47.27 69.27 <
7 1 0 56.22 98.91 101.35 <
0 2 0 170.56 253.60 21.54 o
2 2 0 98854.51 100730.66 303.51 o
4 2 0 70.75 58.56 27.76 o
6 2 0 16779.69 17254.39 243.26 o
8 2 0 34.70 74.84 37.12 o
1 3 0 319.10 392.44 27.03 o
3 3 0 102.40 60.80 31.30 <
5 3 0 138.45 108.96 47.94 o
7 3 0 13.50 0.15 126.06 <
0 4 0 62265.77 65693.61 242.79 o
2 4 0 71.14 31.65 29.08 <
4 4 0 25864.92 27035.85 212.26 o
6 4 0 22.66 11.02 71.27 <
1 5 0 86.12 26.52 37.35 <
3 5 0 138.45 198.22 83.31 o
5 5 0 11.53 -63.11 89.35 <
0 6 0 48.22 -107.98 79.97 <
2 6 0 16771.18 17047.41 207.19 o
4 6 0 22.82 143.16 113.46 <
6 6 0 3918.23 3920.79 76.26 o
1 7 0 56.22 -193.21 120.80 <
3 7 0 13.50 363.87 175.88 o
0 8 0 5128.42 5078.24 119.94 o
2 8 0 34.70 59.84 33.18 <
-1 2 1 864.28 767.94 15.62 o
1 2 1 802.05 782.34 14.48 o
-2 3 1 52.83 81.82 14.24 o
0 3 1 1062.75 1068.14 19.09 o
2 3 1 93.99 59.41 16.29 o
-3 4 1 558.44 564.85 31.56 o
-1 4 1 273.51 397.29 21.40 o
1 4 1 344.64 289.72 20.74 o
3 4 1 508.07 595.45 37.80 o
-4 5 1 37.07 31.09 54.63 <
-2 5 1 604.48 555.46 34.52 o
0 5 1 11.58 -22.65 23.07 <
2 5 1 583.76 691.83 42.10 o
4 5 1 64.53 89.21 58.77 <
-5 6 1 188.84 -0.58 93.95 <
-3 6 1 84.53 117.12 56.06 o
-1 6 1 298.71 284.90 53.20 o
1 6 1 248.06 326.42 49.27 o
3 6 1 122.32 56.95 63.73 <
5 6 1 167.22 218.71 75.82 o
-4 7 1 190.02 -304.15 132.24 <
-2 7 1 16.77 -6.43 76.09 <
0 7 1 340.53 339.10 69.34 o
2 7 1 25.59 57.94 77.70 <
4 7 1 177.95 234.42 67.49 o
-1 8 1 75.23 80.80 23.01 o
1 8 1 102.42 132.25 25.40 o
2 0 2 771.50 729.83 17.62 o
4 0 2 71.58 41.82 25.41 <
6 0 2 117.71 31.87 62.61 <
8 0 2 16.08 -26.71 35.59 <
-7 1 2 5108.47 4719.80 148.71 o
-5 1 2 16202.50 17311.53 153.91 o
-3 1 2 46199.96 41215.38 132.65 o
3 1 2 42735.71 45137.59 199.25 o
5 1 2 17766.12 16077.69 164.45 o
7 1 2 4538.80 5176.93 149.68 o
-8 2 2 35.41 -32.47 45.08 <
-6 2 2 37.73 82.04 66.12 <
-4 2 2 253.24 287.34 27.85 o
-2 2 2 127.37 122.97 17.78 o
0 2 2 771.14 742.04 16.53 o
2 2 2 116.40 140.33 19.70 o
4 2 2 265.41 187.84 42.16 o
6 2 2 29.40 66.97 91.61 <
8 2 2 39.64 7.71 43.20 <
-7 3 2 3183.12 3787.87 176.95 o
-5 3 2 11617.17 10869.79 125.01 o
-3 3 2 25955.39 28408.42 160.90 o
-1 3 2 45829.66 43529.39 165.23 o
1 3 2 42417.75 45374.66 145.79 o
3 3 2 28277.62 25885.26 153.69 o
5 3 2 10512.70 12158.68 211.17 o
7 3 2 3618.20 3372.40 178.85 o
-6 4 2 66.44 49.80 69.27 <
-4 4 2 56.40 85.89 50.04 <
-2 4 2 253.23 340.23 34.44 o
0 4 2 71.58 106.50 24.08 o
2 4 2 265.41 205.91 32.50 o
4 4 2 41.23 16.27 50.72 <
6 4 2 77.81 19.06 100.81 <
-5 5 2 4771.16 5084.59 134.48 o
-3 5 2 11617.85 10914.21 145.29 o
-1 5 2 16175.19 18307.76 136.17 o
1 5 2 17722.24 16524.98 138.17 o
3 5 2 10513.67 12285.49 167.13 o
5 5 2 5366.75 5006.81 137.19 o
-4 6 2 66.44 0.72 111.46 <
-2 6 2 37.73 107.69 54.01 <
0 6 2 117.71 249.49 64.83 o
2 6 2 29.40 13.87 100.31 <
4 6 2 77.81 -17.55 113.96 <
-3 7 2 3185.19 3331.61 153.45 o
-1 7 2 5112.27 4470.84 123.88 o
1 7 2 4541.76 5151.34 147.51 o
3 7 2 3620.74 3807.40 219.72 o
-2 8 2 35.41 -19.59 38.78 <
0 8 2 16.08 -314.99 143.10 <
2 8 2 39.64 -98.62 44.25 <
0 1 3 833.48 758.37 12.00 o
-1 2 3 388.29 352.86 11.38 o
1 2 3 324.94 323.96 12.84 o
-2 3 3 686.12 745.66 20.01 o
0 3 3 33.05 35.18 11.12 o
2 3 3 729.71 679.01 22.69 o
-3 4 3 190.38 159.06 24.31 o
-1 4 3 451.23 532.53 22.33 o
1 4 3 524.99 492.12 22.31 o
3 4 3 135.98 185.03 34.03 o
-4 5 3 289.47 257.04 51.46 o
-2 5 3 42.91 -4.34 31.54 <
0 5 3 551.94 556.27 28.62 o
2 5 3 19.25 -2.52 42.68 <
4 5 3 321.16 332.21 56.65 o
-5 6 3 74.15 -28.48 76.29 <
-3 6 3 221.87 223.47 53.40 o
-1 6 3 251.45 193.86 42.67 o
1 6 3 198.08 239.76 54.49 o
3 6 3 263.16 278.38 70.37 o
5 6 3 48.82 69.66 100.31 <
-4 7 3 32.16 32.74 169.20 <
-2 7 3 223.31 319.85 89.88 o
0 7 3 8.40 43.94 71.72 <
2 7 3 234.26 190.73 107.13 <
4 7 3 16.93 145.37 96.24 <
-1 8 3 101.77 -37.60 107.01 <
1 8 3 130.53 137.07 30.30 o
0 0 4 176.27 278.29 12.94 o
2 0 4 100951.95 101135.55 197.32 o
4 0 4 72.19 0.29 25.47 <
6 0 4 16795.73 16283.30 245.31 o
8 0 4 34.09 59.10 37.10 <
-7 1 4 31.28 -93.39 149.57 <
-5 1 4 168.29 114.28 38.00 o
-3 1 4 250.86 290.16 22.39 o
-1 1 4 643.10 562.13 24.12 o
1 1 4 545.66 633.62 17.28 o
3 1 4 312.60 279.07 24.90 o
5 1 4 138.94 144.83 59.74 o
7 1 4 43.22 36.23 94.86 <
-8 2 4 3711.49 3792.12 108.96 o
-6 2 4 29.95 -179.18 88.78 <
-4 2 4 39953.11 39591.93 184.60 o
-2 2 4 83.22 109.24 19.26 o
0 2 4 101545.93 100119.72 206.98 o
2 2 4 88.20 60.98 16.74 o
4 2 4 39893.75 39957.01 232.41 o
6 2 4 33.76 -98.78 85.45 <
8 2 4 3709.00 3431.27 99.80 o
-7 3 4 71.77 -6.78 39.30 <
-5 3 4 38.99 54.92 55.05 <
-3 3 4 286.48 329.47 33.79 o
-1 3 4 250.84 286.56 17.37 o
1 3 4 312.60 296.61 20.49 o
3 3 4 244.95 353.41 31.74 o
5 3 4 60.28 -12.26 63.27 <
7 3 4 62.71 106.31 110.32 <
-6 4 4 7973.15 8558.17 217.70 o
-4 4 4 35.41 87.99 53.49 <
-2 4 4 39880.68 40341.63 180.80 o
0 4 4 72.65 25.20 24.54 <
2 4 4 39930.77 41899.50 195.01 o
4 4 4 42.27 42.79 56.88 <
6 4 4 7967.79 8050.50 179.93 o
-5 5 4 109.38 47.15 82.41 <
-3 5 4 38.99 29.79 55.25 <
-1 5 4 168.29 171.05 41.01 o
1 5 4 138.93 160.97 32.31 o
3 5 4 60.28 14.63 65.63 <
5 5 4 97.50 94.75 91.59 <
-4 6 4 7976.43 7597.85 187.81 o
-2 6 4 30.25 90.12 61.31 <
0 6 4 16787.67 17216.15 156.09 o
2 6 4 34.06 -59.34 101.84 <
4 6 4 7969.55 8092.75 234.25 o
-3 7 4 71.77 13.02 155.65 <
-1 7 4 31.28 89.15 113.04 <
1 7 4 43.22 -26.77 130.49 <
3 7 4 62.71 62.11 35.37 <
-2 8 4 3716.02 3344.55 96.23 o
0 8 4 34.06 -138.71 213.06 <
2 8 4 3713.15 3856.70 102.05 o
0 1 5 652.80 684.12 13.20 o
-1 2 5 183.55 213.23 13.94 o
1 2 5 222.86 192.93 11.33 o
-2 3 5 685.27 710.06 23.23 o
0 3 5 6.46 32.99 14.90 o
2 3 5 659.41 661.22 23.85 o
-3 4 5 43.33 54.45 29.10 <
-1 4 5 376.07 369.42 25.02 o
1 4 5 328.70 383.30 28.55 o
3 4 5 76.16 88.53 28.17 o
-4 5 5 328.32 337.55 65.99 o
-2 5 5 16.77 39.19 38.63 <
0 5 5 594.47 609.40 40.51 o
2 5 5 29.24 63.99 45.16 <
4 5 5 311.77 448.06 52.02 o
-5 6 5 13.48 7.67 24.56 <
-3 6 5 216.17 282.30 75.25 o
-1 6 5 96.45 68.21 48.41 <
1 6 5 131.56 89.40 91.97 <
3 6 5 191.08 -55.17 86.60 <
5 6 5 26.45 1.08 99.07 <
-4 7 5 13.38 -27.47 35.20 <
-2 7 5 263.95 127.32 105.12 <
0 7 5 23.37 -21.99 116.87 <
2 7 5 259.28 89.14 104.32 <
4 7 5 19.62 73.85 27.92 o
-1 8 5 85.33 97.40 33.44 o
1 8 5 66.20 48.86 32.25 <
0 0 6 1287.34 1291.54 35.46 o
2 0 6 10.10 34.75 17.47 <
4 0 6 461.32 479.42 39.97 o
6 0 6 1.19 101.76 137.39 <
-7 1 6 3186.96 3659.45 199.45 o
-5 1 6 11632.38 10394.67 112.73 o
-3 1 6 25991.55 28713.57 139.95 o
-1 1 6 46067.58 42720.02 142.05 o
1 1 6 42810.59 44909.48 128.09 o
3 1 6 28290.48 26948.45 126.36 o
5 1 6 10525.31 11106.98 161.97 o
7 1 6 3623.34 3054.37 180.19 o
-6 2 6 146.34 119.09 105.84 <
-4 2 6 13.77 93.06 45.45 o
-2 2 6 735.51 707.01 33.48 o
0 2 6 10.10 48.24 19.37 o
2 2 6 744.90 779.60 28.55 o
4 2 6 2.44 20.86 37.66 <
6 2 6 154.85 53.79 105.43 <
-7 3 6 2568.03 2005.48 99.01 o
-5 3 6 7143.96 7677.54 123.61 o
-3 3 6 17922.79 17009.19 128.56 o
-1 3 6 26012.95 27708.84 147.73 o
1 3 6 28315.59 25017.17 140.56 o
3 3 6 16354.02 18733.63 155.12 o
5 3 6 7956.83 7376.94 111.85 o
7 3 6 2226.73 3018.23 92.42 o
-6 4 6 20.25 16.72 32.97 <
-4 4 6 213.18 215.02 61.40 o
-2 4 6 13.77 36.98 40.84 <
0 4 6 461.30 572.05 55.11 o
2 4 6 2.44 103.64 60.11 <
4 4 6 228.18 207.12 61.19 o
6 4 6 8.26 -176.23 141.24 <
-5 5 6 3740.96 3257.73 158.06 o
-3 5 6 7145.18 7696.67 124.54 o
-1 5 6 11633.56 11092.44 178.58 o
1 5 6 10523.71 12319.83 229.76 o
3 5 6 7959.69 7519.81 149.00 o
5 5 6 3279.50 3945.05 162.67 o
-4 6 6 20.25 155.48 128.15 <
-2 6 6 146.35 183.23 129.20 <
0 6 6 1.19 6.01 89.52 <
2 6 6 154.85 92.17 83.64 <
4 6 6 8.26 -313.39 138.45 <
-3 7 6 2570.34 2111.35 79.94 o
-1 7 6 3189.84 3675.50 210.19 o
1 7 6 3626.26 3633.89 94.97 o
3 7 6 2228.40 2822.48 86.16 o
0 1 7 178.26 191.68 13.62 o
-1 2 7 343.04 392.05 20.35 o
1 2 7 387.65 372.62 14.08 o
-2 3 7 102.39 121.55 24.45 o
0 3 7 404.45 440.42 25.37 o
2 3 7 68.91 63.75 21.08 o
-3 4 7 256.55 280.77 32.25 o
-1 4 7 273.53 236.97 32.64 o
1 4 7 217.16 215.99 30.00 o
3 4 7 300.62 205.11 45.01 o
-4 5 7 81.59 34.38 77.62 <
-2 5 7 241.23 226.78 58.30 o
0 5 7 2.43 1.47 51.24 <
2 5 7 261.51 324.67 55.76 o
4 5 7 53.60 108.73 60.91 <
-3 6 7 139.26 128.43 124.98 <
-1 6 7 176.20 150.89 95.48 <
1 6 7 219.39 308.87 79.47 o
3 6 7 104.37 67.41 88.49 <
-2 7 7 16.09 -66.29 27.61 <
0 7 7 141.00 191.77 120.87 <
2 7 7 5.77 63.19 65.42 <
0 0 8 62878.14 66601.67 257.16 o
2 0 8 80.91 35.16 22.68 <
4 0 8 25895.34 25964.63 158.82 o
6 0 8 22.16 -43.99 102.79 <
-7 1 8 66.59 34.29 48.39 <
-5 1 8 101.18 36.65 82.58 <
-3 1 8 377.60 303.33 28.55 o
-1 1 8 453.54 506.77 26.43 o
1 1 8 556.35 503.34 22.61 o
3 1 8 306.65 395.85 30.02 o
5 1 8 138.52 70.26 84.77 <
7 1 8 50.57 43.35 34.09 <
-6 2 8 7990.82 7910.62 265.73 o
-4 2 8 38.34 5.81 63.70 <
-2 2 8 39985.21 41372.96 196.84 o
0 2 8 80.98 87.62 34.09 o
2 2 8 39980.00 40602.66 183.05 o
4 2 8 45.16 37.54 52.29 <
6 2 8 7989.75 7775.19 210.77 o
-5 3 8 160.52 176.12 126.57 <
-3 3 8 140.91 233.41 50.21 o
-1 3 8 377.61 269.60 60.17 o
1 3 8 306.65 265.26 49.27 o
3 3 8 191.72 -5.69 50.28 <
5 3 8 132.68 15.94 87.46 <
-6 4 8 8.29 140.26 40.72 o
-4 4 8 11836.30 11989.94 168.71 o
-2 4 8 38.48 121.93 66.06 <
0 4 8 25870.41 26977.46 276.49 o
2 4 8 45.30 -17.82 75.40 <
4 4 8 11833.92 12530.62 201.04 o
6 4 8 16.38 51.98 38.51 <
-5 5 8 17.46 21.29 35.64 <
-3 5 8 160.53 206.99 86.95 o
-1 5 8 101.18 254.32 133.86 <
1 5 8 138.52 119.38 100.15 <
3 5 8 132.68 -11.12 105.69 <
5 5 8 33.54 -6.45 40.86 <
-4 6 8 8.36 71.04 199.81 <
-2 6 8 7996.50 7869.64 243.38 o
0 6 8 22.29 66.50 93.28 <
2 6 8 7988.10 8828.66 248.98 o
4 6 8 16.46 84.87 41.90 o
-1 7 8 66.59 -35.37 46.94 <
1 7 8 50.57 18.83 46.69 <
0 1 9 81.29 110.07 19.02 o
-1 2 9 264.75 254.50 26.01 o
1 2 9 248.13 292.85 22.85 o
-2 3 9 2.27 5.83 36.40 <
0 3 9 432.26 488.02 32.59 o
2 3 9 12.83 -19.47 33.44 <
-3 4 9 249.05 209.17 50.13 o
-1 4 9 54.44 31.15 44.81 <
1 4 9 75.97 69.60 50.25 <
3 4 9 235.19 140.39 54.45 o
-4 5 9 9.81 132.95 81.81 <
-2 5 9 317.83 288.79 73.64 o
0 5 9 14.29 37.37 69.16 <
2 5 9 313.68 214.01 95.91 o
4 5 9 15.21 25.80 76.21 <
-3 6 9 6.46 267.82 112.24 o
-1 6 9 99.29 -94.51 112.74 <
1 6 9 82.61 -66.41 106.91 <
3 6 9 17.21 54.18 62.82 <
0 7 9 200.03 218.55 31.40 o
0 0 10 127.29 75.00 48.37 <
2 0 10 686.09 795.12 40.70 o
4 0 10 35.38 -81.11 55.46 <
6 0 10 145.68 156.83 116.21 <
-5 1 10 4791.17 5350.87 167.21 o
-3 1 10 11661.55 10760.41 104.15 o
-1 1 10 16222.13 17919.12 142.44 o
1 1 10 17798.03 16180.00 115.69 o
3 1 10 10547.77 12095.10 122.27 o
5 1 10 5393.43 4897.43 153.72 o
-6 2 10 14.35 37.19 31.15 <
-4 2 10 303.24 421.68 83.07 o
-2 2 10 74.07 73.05 44.36 <
0 2 10 686.13 662.01 54.49 o
2 2 10 67.09 90.43 40.99 o
4 2 10 312.78 397.85 96.98 o
6 2 10 6.43 -50.60 97.91 <
-5 3 10 3755.68 3369.33 219.80 o
-3 3 10 7164.51 7601.31 117.60 o
-1 3 10 11665.65 10663.52 185.82 o
1 3 10 10545.16 11635.54 160.29 o
3 3 10 7982.29 7042.63 146.09 o
5 3 10 3291.88 3855.96 104.93 o
-4 4 10 31.08 -0.39 112.77 <
-2 4 10 303.24 432.93 95.72 o
0 4 10 35.38 -15.92 77.70 <
2 4 10 312.78 303.20 97.66 o
4 4 10 17.57 386.51 168.05 o
-3 5 10 3756.96 3334.40 114.54 o
-1 5 10 4792.72 4975.50 211.45 o
1 5 10 5392.36 4788.30 162.37 o
3 5 10 3292.75 3964.92 153.65 o
-2 6 10 14.35 71.70 40.27 <
0 6 10 145.68 134.41 39.67 o
2 6 10 6.43 -88.74 42.13 <
0 1 11 135.24 137.08 31.69 o
-1 2 11 123.39 115.55 36.73 o
1 2 11 97.66 111.35 32.66 o
-2 3 11 129.09 167.83 46.10 o
0 3 11 32.76 54.45 37.66 <
2 3 11 150.04 172.79 64.21 o
-3 4 11 112.08 35.51 79.93 <
-1 4 11 132.54 265.42 69.93 o
1 4 11 167.50 78.10 56.97 <
3 4 11 83.05 -22.70 88.70 <
-4 5 11 69.61 31.94 27.78 <
-2 5 11 35.66 33.32 90.58 <
0 5 11 96.97 105.75 82.75 <
2 5 11 21.52 111.29 53.72 o
4 5 11 89.69 72.29 28.51 o
-1 6 11 121.52 54.78 24.66 o
1 6 11 93.26 47.83 78.28 <
0 0 12 57.33 210.11 94.27 o
2 0 12 16873.79 17696.47 148.54 o
4 0 12 25.27 154.84 103.47 <
-5 1 12 125.15 60.07 93.21 <
-3 1 12 181.04 238.12 65.43 o
-1 1 12 377.35 323.56 54.03 o
1 1 12 309.43 335.92 46.08 o
3 1 12 231.20 185.25 66.05 o
5 1 12 96.83 -102.40 122.35 <
-4 2 12 8031.75 8443.97 182.75 o
-2 2 12 36.05 -51.96 63.58 <
0 2 12 16880.95 17057.24 208.58 o
2 2 12 39.80 -79.45 76.29 <
4 2 12 8026.44 8204.71 135.37 o
-5 3 12 40.64 42.73 36.42 <
-3 3 12 199.82 -37.00 111.90 <
-1 3 12 181.04 216.95 71.90 o
1 3 12 231.19 93.75 123.54 <
3 3 12 162.30 132.30 90.34 <
5 3 12 62.24 26.83 38.08 <
-4 4 12 9.87 133.77 33.24 o
-2 4 12 8032.75 7977.60 203.78 o
0 4 12 25.25 -116.16 98.16 <
2 4 12 8027.45 8185.91 214.10 o
4 4 12 17.92 8.25 31.00 <
-3 5 12 40.64 64.64 30.39 o
-1 5 12 125.15 -64.58 153.19 <
1 5 12 96.83 153.15 43.29 o
3 5 12 62.24 76.03 55.09 <
0 1 13 116.89 72.76 49.45 <
-1 2 13 24.11 0.19 65.98 <
1 2 13 28.34 137.64 66.72 o
-2 3 13 167.51 -9.45 84.96 <
0 3 13 0.83 148.49 64.61 o
2 3 13 165.70 54.59 61.58 <
-3 4 13 0.20 65.25 22.07 o
-1 4 13 72.27 16.00 82.37 <
1 4 13 66.74 139.90 60.40 o
3 4 13 2.39 25.44 24.84 <
-2 5 13 9.48 63.31 27.20 o
0 5 13 173.99 83.20 83.35 <
2 5 13 8.91 59.38 30.63 <
0 0 14 416.60 370.23 86.65 o
2 0 14 81.40 39.27 99.05 <
4 0 14 192.80 122.91 115.82 <
-3 1 14 3218.57 4313.10 199.25 o
-1 1 14 5161.01 4421.95 107.11 o
1 1 14 4584.33 5494.39 101.73 o
3 1 14 3661.17 3691.95 167.78 o
-4 2 14 35.45 6.28 33.82 <
-2 2 14 280.60 148.23 117.92 <
0 2 14 81.40 -31.73 101.31 <
2 2 14 285.37 240.74 29.63 o
4 2 14 28.51 -7.71 29.95 <
-3 3 14 2599.30 2093.08 56.17 o
-1 3 14 3219.14 3734.51 151.74 o
1 3 14 3660.96 3455.79 89.62 o
3 3 14 2252.73 2644.74 78.37 o
-2 4 14 35.45 107.36 33.15 o
0 4 14 192.80 197.27 43.99 o
2 4 14 28.51 73.11 53.29 <
0 1 15 36.25 91.65 63.02 <
-1 2 15 44.29 -2.50 80.04 <
1 2 15 57.29 92.89 23.42 o
-2 3 15 42.41 21.06 21.21 <
0 3 15 35.81 5.68 23.89 <
2 3 15 31.17 76.60 29.64 o
0 0 16 5207.28 5547.99 200.34 o
2 0 16 33.89 109.90 35.63 o
-1 1 16 130.16 299.96 137.17 o
1 1 16 165.05 352.02 166.94 o
0 2 16 33.86 219.16 173.98 <
3 1 0 245.50 278.49 17.56 o
5 1 0 66.25 36.94 28.61 <
7 1 0 43.25 -131.28 97.52 <
1 3 0 245.52 235.38 14.85 o
3 3 0 78.78 99.62 27.23 o
5 3 0 106.51 130.50 69.71 <
7 3 0 10.38 -111.72 182.74 <
1 5 0 66.25 36.09 35.18 <
3 5 0 106.51 19.89 46.35 <
5 5 0 8.87 -15.03 121.46 <
1 7 0 43.25 100.50 66.25 <
3 7 0 10.38 -133.46 138.09 <
-1 2 1 664.98 641.05 10.92 o
1 2 1 617.00 635.21 12.82 o
-2 3 1 40.64 93.56 14.01 o
0 3 1 817.43 875.98 16.75 o
2 3 1 72.31 41.86 15.17 o
-3 4 1 429.62 396.12 36.69 o
-1 4 1 210.40 279.07 16.58 o
1 4 1 265.13 224.19 14.81 o
3 4 1 390.85 436.68 40.10 o
-4 5 1 28.52 51.88 75.16 <
-2 5 1 465.02 466.65 29.41 o
0 5 1 8.91 7.44 22.61 <
2 5 1 449.08 517.93 27.52 o
4 5 1 49.64 -28.81 74.27 <
-5 6 1 145.27 83.49 26.83 o
-3 6 1 65.03 153.42 78.92 <
-1 6 1 229.78 247.10 37.42 o
1 6 1 190.83 208.62 37.56 o
3 6 1 94.10 17.90 92.26 <
5 6 1 128.64 151.88 25.69 o
-4 7 1 146.18 167.83 32.56 o
-2 7 1 12.90 151.36 79.25 <
0 7 1 261.96 330.63 62.15 o
2 7 1 19.68 -19.91 78.24 <
4 7 1 136.90 78.72 29.40 o
-1 8 1 57.87 153.87 80.70 <
1 8 1 78.79 221.49 112.49 <
2 0 2 592.95 569.17 20.30 o
4 0 2 55.06 50.89 30.93 <
6 0 2 90.55 183.05 70.68 o
8 0 2 12.37 33.11 28.83 <
-8 2 2 27.24 19.02 41.98 <
-6 2 2 29.02 9.49 46.88 <
-4 2 2 194.81 292.31 29.94 o
-2 2 2 97.99 68.16 15.49 o
0 2 2 593.04 577.36 17.42 o
2 2 2 89.55 77.61 15.19 o
4 2 2 204.18 246.41 29.86 o
6 2 2 22.61 -154.47 72.22 <
8 2 2 30.49 76.09 48.43 <
-6 4 2 51.11 -86.42 136.12 <
-4 4 2 43.38 40.43 75.55 <
-2 4 2 194.82 198.95 32.73 o
0 4 2 55.06 54.68 23.01 o
2 4 2 204.19 230.54 25.14 o
4 4 2 31.72 143.08 77.27 <
6 4 2 59.86 118.11 97.15 <
-4 6 2 51.11 -286.41 117.68 <
-2 6 2 29.02 -249.47 103.58 <
0 6 2 90.55 138.19 55.50 o
2 6 2 22.61 -37.08 56.86 <
4 6 2 59.86 -22.43 104.30 <
-2 8 2 27.24 -25.11 37.74 <
0 8 2 12.37 55.97 28.63 <
2 8 2 30.49 28.46 39.05 <
0 1 3 641.45 599.49 10.48 o
-1 2 3 298.66 263.29 11.98 o
1 2 3 249.97 282.62 10.38 o
-2 3 3 527.86 594.39 22.14 o
0 3 3 25.42 35.28 13.58 o
2 3 3 561.39 535.20 17.27 o
-3 4 3 146.45 18.48 33.35 <
-1 4 3 347.11 482.08 23.12 o
1 4 3 403.86 401.61 18.57 o
3 4 3 104.60 171.35 34.25 o
-4 5 3 222.69 304.79 66.96 o
-2 5 3 33.01 33.40 31.67 <
0 5 3 424.56 389.07 28.60 o
2 5 3 14.81 34.40 26.66 <
4 5 3 247.06 210.84 77.59 o
-5 6 3 57.04 66.50 70.59 <
-3 6 3 170.68 81.59 73.14 <
-1 6 3 193.43 101.05 42.86 o
1 6 3 152.38 158.52 41.16 o
3 6 3 202.44 135.64 88.44 <
5 6 3 37.55 -1.22 31.03 <
-4 7 3 24.74 -57.21 32.47 <
-2 7 3 171.79 240.15 89.99 o
0 7 3 6.46 1.76 60.93 <
2 7 3 180.21 160.92 102.95 <
4 7 3 13.02 0.66 31.00 <
-1 8 3 78.29 182.77 116.17 <
1 8 3 100.42 52.94 25.90 o
-7 1 4 24.06 -89.03 91.11 <
-5 1 4 129.46 107.83 37.29 o
-3 1 4 192.97 232.49 22.77 o
-1 1 4 494.96 440.09 15.54 o
1 1 4 419.72 434.80 18.83 o
3 1 4 240.46 263.44 26.53 o
5 1 4 106.88 112.52 63.77 <
7 1 4 33.25 297.59 131.71 o
-7 3 4 55.21 -30.14 154.64 <
-5 3 4 30.00 95.99 64.10 <
-3 3 4 220.39 119.16 32.42 o
-1 3 4 192.96 262.10 29.01 o
1 3 4 240.48 241.08 16.00 o
3 3 4 188.43 217.62 29.46 o
5 3 4 46.37 -251.75 93.91 <
7 3 4 48.24 70.67 41.22 <
-5 5 4 84.15 20.94 130.66 <
-3 5 4 30.00 63.87 55.11 <
-1 5 4 129.46 23.71 41.70 <
1 5 4 106.88 106.21 32.70 o
3 5 4 46.37 174.40 81.57 o
5 5 4 75.00 125.72 135.73 <
-3 7 4 55.21 6.84 135.56 <
-1 7 4 24.06 117.70 81.09 <
1 7 4 33.25 18.89 51.20 <
3 7 4 48.24 77.64 32.78 o
0 1 5 502.35 501.42 13.24 o
-1 2 5 141.21 149.11 13.15 o
1 2 5 171.43 101.98 15.01 o
-2 3 5 527.09 525.95 20.62 o
0 3 5 4.97 -18.56 18.25 <
2 3 5 507.27 558.17 18.41 o
-3 4 5 33.33 41.77 29.83 <
-1 4 5 289.30 270.98 22.87 o
1 4 5 252.86 289.57 18.73 o
3 4 5 58.58 96.16 40.02 o
-4 5 5 252.58 257.39 75.54 o
-2 5 5 12.90 89.75 33.57 o
0 5 5 457.32 466.93 34.39 o
2 5 5 22.49 87.95 43.41 o
4 5 5 239.84 152.43 71.53 o
-5 6 5 10.37 19.14 72.20 <
-3 6 5 166.29 115.81 77.38 <
-1 6 5 74.20 143.42 46.14 o
1 6 5 101.21 68.69 54.86 <
3 6 5 146.99 161.47 63.71 o
5 6 5 20.35 3.93 31.01 <
-4 7 5 10.29 -13.15 26.85 <
-2 7 5 203.05 269.80 90.69 o
0 7 5 17.97 121.31 91.05 <
2 7 5 199.46 420.69 112.61 o
4 7 5 15.09 9.28 31.65 <
-1 8 5 65.64 16.35 27.04 <
1 8 5 50.93 100.42 38.80 o
0 0 6 990.51 880.28 40.61 o
2 0 6 7.77 25.88 24.58 <
4 0 6 354.88 389.83 45.14 o
6 0 6 0.91 -46.55 119.72 <
-6 2 6 112.58 225.75 78.57 o
-4 2 6 10.59 73.13 36.15 o
-2 2 6 565.90 601.98 31.22 o
0 2 6 7.77 36.88 20.50 <
2 2 6 573.04 593.44 32.68 o
4 2 6 1.87 -105.19 44.05 <
6 2 6 119.12 81.90 107.56 <
-6 4 6 15.58 -59.65 150.10 <
-4 4 6 164.00 157.98 55.98 o
-2 4 6 10.59 2.91 37.54 <
0 4 6 354.87 372.17 31.10 o
2 4 6 1.87 -21.14 37.06 <
4 4 6 175.53 30.68 86.50 <
6 4 6 6.35 21.54 38.84 <
-4 6 6 15.58 91.82 75.11 <
-2 6 6 112.58 17.47 68.49 <
0 6 6 0.91 -24.45 61.84 <
2 6 6 119.12 33.72 70.10 <
4 6 6 6.35 -34.10 26.87 <
0 1 7 137.14 126.90 14.60 o
-1 2 7 263.90 320.07 17.45 o
1 2 7 298.20 264.56 20.27 o
-2 3 7 78.77 80.33 24.39 o
0 3 7 311.13 261.68 23.82 o
2 3 7 53.01 98.14 23.17 o
-3 4 7 197.35 192.35 32.02 o
-1 4 7 210.42 197.87 30.43 o
1 4 7 167.06 192.71 28.96 o
3 4 7 231.26 271.28 51.04 o
-4 5 7 62.77 -13.85 67.92 <
-2 5 7 185.57 183.97 42.26 o
0 5 7 1.87 -23.13 36.75 <
2 5 7 201.18 159.86 50.03 o
4 5 7 41.23 -37.66 82.62 <
-3 6 7 107.13 50.93 85.35 <
-1 6 7 135.55 178.58 68.53 o
1 6 7 168.78 119.80 67.62 <
3 6 7 80.29 72.06 100.48 <
-2 7 7 12.38 73.67 106.53 <
0 7 7 108.47 -1.20 101.58 <
2 7 7 4.44 -2.31 22.53 <
-7 1 8 51.23 381.14 177.52 o
-5 1 8 77.84 111.37 57.09 <
-3 1 8 290.48 296.63 36.02 o
-1 1 8 348.91 375.91 26.49 o
1 1 8 427.99 436.68 34.41 o
3 1 8 235.90 302.52 53.09 o
5 1 8 106.56 93.04 73.96 <
7 1 8 38.90 61.29 36.03 <
-5 3 8 123.49 189.56 71.69 o
-3 3 8 108.40 132.51 44.96 o
-1 3 8 290.49 302.48 35.25 o
1 3 8 235.89 202.72 33.49 o
3 3 8 147.49 114.71 46.45 o
5 3 8 102.07 38.34 71.50 <
-5 5 8 13.43 71.89 36.38 <
-3 5 8 123.49 83.86 85.33 <
-1 5 8 77.84 104.12 56.35 <
1 5 8 106.56 131.59 59.33 o
3 5 8 102.06 106.23 84.30 <
5 5 8 25.81 -24.74 26.48 <
-1 7 8 51.23 339.35 174.07 <
1 7 8 38.90 23.79 30.69 <
0 1 9 62.54 73.16 20.24 o
-1 2 9 203.67 202.78 23.22 o
1 2 9 190.88 218.11 32.60 o
-2 3 9 1.75 13.54 34.64 <
0 3 9 332.52 347.57 29.90 o
2 3 9 9.87 21.72 44.98 <
-3 4 9 191.59 94.04 52.08 <
-1 4 9 41.88 42.21 36.24 <
1 4 9 58.44 42.85 44.07 <
3 4 9 180.93 129.14 46.87 o
-4 5 9 7.55 -99.09 61.20 <
-2 5 9 244.50 91.27 72.96 <
0 5 9 10.99 5.37 52.23 <
2 5 9 241.31 268.78 47.38 o
4 5 9 11.70 -15.23 55.71 <
-3 6 9 4.97 2.89 88.96 <
-1 6 9 76.38 -28.11 76.94 <
1 6 9 63.55 84.40 86.65 <
3 6 9 13.24 8.16 21.12 <
0 7 9 153.88 129.34 19.62 o
0 0 10 97.92 64.74 51.85 <
2 0 10 527.82 638.85 50.77 o
4 0 10 27.22 64.80 71.87 <
6 0 10 112.07 -45.64 123.72 <
-6 2 10 11.04 -27.51 30.16 <
-4 2 10 233.27 341.20 91.07 o
-2 2 10 56.98 114.54 51.90 o
0 2 10 527.82 500.78 46.08 o
2 2 10 51.61 226.84 87.69 o
4 2 10 240.61 174.43 70.48 o
6 2 10 4.95 218.15 171.79 <
-4 4 10 23.91 190.64 108.04 <
-2 4 10 233.27 461.03 105.09 o
0 4 10 27.22 18.44 70.38 <
2 4 10 240.61 144.43 80.61 <
4 4 10 13.51 -134.08 119.68 <
-2 6 10 11.04 -25.75 26.99 <
0 6 10 112.07 -57.16 105.96 <
2 6 10 4.95 32.25 29.93 <
0 1 11 104.04 153.61 45.44 o
-1 2 11 94.92 66.65 41.20 <
1 2 11 75.13 116.21 48.35 o
-2 3 11 99.30 103.03 51.04 o
0 3 11 25.20 23.09 45.14 <
2 3 11 115.42 143.59 95.01 <
-3 4 11 86.22 65.14 117.68 <
-1 4 11 101.96 178.48 64.68 o
1 4 11 128.85 100.16 53.77 <
3 4 11 63.89 182.11 89.32 o
-4 5 11 53.55 27.66 26.04 <
-2 5 11 27.44 24.99 109.90 <
0 5 11 74.60 164.04 66.35 o
2 5 11 16.55 -61.35 96.69 <
4 5 11 69.00 12.71 30.99 <
-1 6 11 93.49 65.34 21.13 o
1 6 11 71.75 82.75 100.71 <
-5 1 12 96.27 221.45 125.64 <
-3 1 12 139.27 -23.11 97.49 <
-1 1 12 290.30 347.62 77.28 o
1 1 12 238.04 271.31 65.54 o
3 1 12 177.85 133.98 74.17 <
5 1 12 74.49 -215.88 105.63 <
-5 3 12 31.27 114.72 39.31 o
-3 3 12 153.72 113.30 163.29 <
-1 3 12 139.27 280.36 111.40 o
1 3 12 177.85 87.69 94.99 <
3 3 12 124.86 53.91 105.26 <
5 3 12 47.88 -52.34 40.25 <
-3 5 12 31.27 36.30 40.29 <
-1 5 12 96.27 -19.02 171.61 <
1 5 12 74.49 71.23 119.68 <
3 5 12 47.88 46.84 41.05 <
0 1 13 89.92 17.80 77.54 <
-1 2 13 18.54 87.83 53.12 <
1 2 13 21.80 -35.33 66.41 <
-2 3 13 128.86 -2.65 93.58 <
0 3 13 0.64 78.57 66.93 <
2 3 13 127.47 148.01 63.96 o
-3 4 13 0.15 58.76 24.76 o
-1 4 13 55.59 136.57 102.46 <
1 4 13 51.34 112.36 72.53 <
3 4 13 1.84 -2.03 27.70 <
-2 5 13 7.29 24.95 23.11 <
0 5 13 133.85 115.64 26.01 o
2 5 13 6.85 -78.79 29.99 <
0 0 14 320.50 247.88 140.51 <
2 0 14 62.62 -109.80 87.04 <
4 0 14 148.32 118.86 29.54 o
-4 2 14 27.27 -12.67 44.27 <
-2 2 14 215.85 191.89 152.16 <
0 2 14 62.62 -4.90 131.07 <
2 2 14 219.53 102.27 136.92 <
4 2 14 21.94 -7.88 32.62 <
-2 4 14 27.27 40.37 45.52 <
0 4 14 148.31 127.73 39.38 o
2 4 14 21.94 20.92 39.65 <
0 1 15 27.89 -6.53 85.74 <
-1 2 15 34.07 9.24 23.83 <
1 2 15 44.07 -3.89 25.40 <
-2 3 15 32.63 8.60 30.22 <
0 3 15 27.54 104.01 29.79 o
2 3 15 23.98 17.74 26.87 <
-1 1 16 100.13 180.73 32.87 o
1 1 16 126.97 85.06 40.76 o
3 1 0 248.98 273.42 16.54 o
5 1 0 67.18 121.15 36.46 o
7 1 0 43.86 34.40 59.30 <
1 3 0 249.01 240.39 18.71 o
3 3 0 79.89 62.78 23.38 o
5 3 0 108.01 150.33 35.80 o
7 3 0 10.53 -211.68 133.48 <
1 5 0 67.18 40.99 49.42 <
3 5 0 108.01 96.81 53.27 <
5 5 0 8.99 99.46 118.79 <
1 7 0 43.86 205.30 105.71 <
3 7 0 10.53 -25.20 141.32 <
-1 2 1 674.38 661.31 13.59 o
1 2 1 625.82 657.26 11.35 o
-2 3 1 41.22 39.83 12.69 o
0 3 1 829.36 830.70 15.49 o
2 3 1 73.33 45.93 11.89 o
-3 4 1 435.69 413.87 23.74 o
-1 4 1 213.39 275.73 17.82 o
1 4 1 268.88 242.90 17.74 o
3 4 1 396.36 469.55 24.15 o
-4 5 1 28.92 51.96 42.11 <
-2 5 1 471.61 461.89 27.69 o
0 5 1 9.03 -8.21 30.36 <
2 5 1 455.44 490.54 34.08 o
4 5 1 50.34 4.03 39.50 <
-5 6 1 147.32 -15.34 100.34 <
-3 6 1 65.94 63.25 67.51 <
-1 6 1 233.04 163.16 43.46 o
1 6 1 193.53 209.88 39.34 o
3 6 1 95.43 74.31 56.93 <
5 6 1 130.46 219.30 83.41 o
-4 7 1 148.24 137.92 79.67 <
-2 7 1 13.08 -220.30 83.11 <
0 7 1 265.65 201.04 58.03 o
2 7 1 19.96 -94.25 75.01 <
4 7 1 138.83 118.04 25.01 o
-1 8 1 58.69 72.06 24.99 o
1 8 1 79.90 -4.32 24.66 <
2 0 2 601.89 572.88 15.38 o
4 0 2 55.84 55.32 16.27 o
6 0 2 91.83 130.60 70.63 <
8 0 2 12.54 -234.79 175.59 <
-8 2 2 27.62 20.69 27.80 <
-6 2 2 29.43 48.49 52.13 <
-4 2 2 197.56 213.35 31.08 o
-2 2 2 99.37 83.83 13.91 o
0 2 2 601.79 505.82 19.96 o
2 2 2 90.81 67.35 16.39 o
4 2 2 207.07 201.04 17.66 o
6 2 2 22.93 74.80 64.12 <
8 2 2 30.92 58.79 48.41 <
-6 4 2 51.83 126.36 92.73 <
-4 4 2 44.00 73.30 41.24 <
-2 4 2 197.57 234.30 29.50 o
0 4 2 55.84 80.53 25.01 o
2 4 2 207.07 216.28 36.35 o
4 4 2 32.17 82.81 42.91 <
6 4 2 60.70 246.44 83.03 o
-4 6 2 51.83 127.25 151.68 <
-2 6 2 29.43 -49.48 85.93 <
0 6 2 91.83 47.56 73.74 <
2 6 2 22.93 69.86 98.14 <
4 6 2 60.70 -44.36 95.17 <
-2 8 2 27.62 -7.94 64.41 <
0 8 2 12.54 38.07 31.09 <
2 8 2 30.92 61.82 43.47 <
0 1 3 649.96 597.90 10.82 o
-1 2 3 302.90 244.87 11.09 o
1 2 3 253.50 308.31 13.17 o
-2 3 3 535.32 572.64 21.08 o
0 3 3 25.78 4.24 12.11 <
2 3 3 569.28 543.44 19.49 o
-3 4 3 148.52 66.49 22.84 o
-1 4 3 352.05 441.38 20.55 o
1 4 3 409.59 402.08 21.45 o
3 4 3 106.08 126.06 24.93 o
-4 5 3 225.83 190.76 53.15 o
-2 5 3 33.48 -62.88 31.75 <
0 5 3 430.59 444.87 32.09 o
2 5 3 15.01 -8.97 33.94 <
4 5 3 250.56 225.72 62.77 o
-5 6 3 57.85 185.64 111.85 <
-3 6 3 173.10 296.32 65.82 o
-1 6 3 196.17 127.58 47.63 o
1 6 3 154.53 257.66 51.72 o
3 6 3 205.31 152.55 61.59 o
5 6 3 38.08 -64.31 77.20 <
-4 7 3 25.09 -3.25 26.58 <
-2 7 3 174.22 178.94 77.60 o
0 7 3 6.55 88.05 66.85 <
2 7 3 182.75 88.89 76.53 <
4 7 3 13.21 -28.92 23.40 <
-1 8 3 79.40 3.37 74.10 <
1 8 3 101.84 14.43 108.88 <
-7 1 4 24.40 172.59 108.58 <
-5 1 4 131.29 130.61 37.67 o
-3 1 4 195.71 258.66 20.74 o
-1 1 4 501.77 430.10 18.48 o
1 1 4 425.61 488.38 20.38 o
3 1 4 243.88 202.10 19.48 o
5 1 4 108.39 73.63 27.49 o
7 1 4 33.72 24.56 22.63 <
-7 3 4 55.99 48.49 100.07 <
-5 3 4 30.42 -9.90 53.62 <
-3 3 4 223.51 231.55 30.33 o
-1 3 4 195.70 280.76 22.16 o
1 3 4 243.87 180.87 25.85 o
3 3 4 191.10 304.43 27.13 o
5 3 4 47.03 32.20 51.37 <
7 3 4 48.92 15.87 26.81 <
-5 5 4 85.34 205.45 159.62 <
-3 5 4 30.42 -31.69 57.90 <
-1 5 4 131.29 20.71 54.88 <
1 5 4 108.39 160.08 58.32 o
3 5 4 47.03 70.69 71.75 <
5 5 4 76.06 128.90 69.80 <
-3 7 4 55.99 130.45 41.94 o
-1 7 4 24.40 92.83 125.74 <
1 7 4 33.72 -60.61 130.02 <
3 7 4 48.92 80.59 110.50 <
0 1 5 509.17 507.77 15.40 o
-1 2 5 143.20 146.24 13.75 o
1 2 5 173.86 137.91 13.03 o
-2 3 5 534.57 527.05 21.00 o
0 3 5 5.04 -13.70 19.93 <
2 3 5 514.47 569.09 21.68 o
-3 4 5 33.80 133.76 34.04 o
-1 4 5 293.40 253.54 24.07 o
1 4 5 256.43 265.59 22.87 o
3 4 5 59.41 57.24 28.94 <
-4 5 5 256.13 204.86 56.38 o
-2 5 5 13.08 38.96 37.27 <
0 5 5 463.80 418.70 38.51 o
2 5 5 22.81 54.01 48.59 <
4 5 5 243.23 337.21 56.81 o
-5 6 5 10.52 18.23 22.80 <
-3 6 5 168.64 138.24 68.84 o
-1 6 5 75.25 152.74 69.19 o
1 6 5 102.64 97.20 73.03 <
3 6 5 149.07 181.89 63.55 o
5 6 5 20.63 25.71 23.05 <
-4 7 5 10.44 9.18 31.15 <
-2 7 5 205.92 16.21 98.59 <
0 7 5 18.23 108.58 71.08 <
2 7 5 202.28 187.98 79.59 o
4 7 5 15.30 35.53 26.85 <
-1 8 5 66.57 52.11 31.46 <
1 8 5 51.65 41.24 30.96 <
0 0 6 1003.93 1051.68 37.56 o
2 0 6 7.88 -29.23 19.08 <
4 0 6 359.90 443.50 51.98 o
6 0 6 0.93 8.93 56.61 <
-6 2 6 114.17 61.68 98.71 <
-4 2 6 10.74 -8.31 40.72 <
-2 2 6 573.85 663.45 30.41 o
0 2 6 7.88 30.05 21.46 <
2 2 6 581.09 643.34 29.44 o
4 2 6 1.90 11.24 48.18 <
6 2 6 120.80 -64.68 105.80 <
-6 4 6 15.80 17.26 22.90 <
-4 4 6 166.31 45.48 59.74 <
-2 4 6 10.74 37.02 45.10 <
0 4 6 359.89 312.25 47.85 o
2 4 6 1.90 4.44 42.54 <
4 4 6 178.01 115.17 90.34 <
6 4 6 6.44 -18.40 25.07 <
-4 6 6 15.80 -47.64 34.21 <
-2 6 6 114.17 125.66 94.72 <
0 6 6 0.93 122.70 85.06 <
2 6 6 120.80 -114.65 80.47 <
4 6 6 6.44 -26.21 87.02 <
0 1 7 139.06 174.58 17.61 o
-1 2 7 267.61 286.58 18.82 o
1 2 7 302.41 295.07 18.03 o
-2 3 7 79.88 47.32 22.12 o
0 3 7 315.53 341.83 27.75 o
2 3 7 53.76 150.44 28.63 o
-3 4 7 200.14 234.25 35.27 o
-1 4 7 213.39 189.52 42.36 o
1 4 7 169.42 199.15 36.90 o
3 4 7 234.52 308.42 49.82 o
-4 5 7 63.65 187.48 76.42 o
-2 5 7 188.19 236.58 55.49 o
0 5 7 1.90 31.33 49.05 <
2 5 7 204.02 198.01 47.78 o
4 5 7 41.81 199.43 70.20 o
-3 6 7 108.64 -99.37 101.27 <
-1 6 7 137.46 213.46 75.33 o
1 6 7 171.16 232.73 63.73 o
3 6 7 81.43 104.66 93.18 <
-2 7 7 12.56 28.73 22.14 <
0 7 7 110.00 -47.79 106.38 <
2 7 7 4.50 -99.11 91.03 <
-7 1 8 51.95 80.70 41.98 <
-5 1 8 78.94 139.09 99.43 <
-3 1 8 294.59 180.72 42.62 o
-1 1 8 353.78 484.82 32.57 o
1 1 8 433.94 386.55 28.65 o
3 1 8 239.23 279.84 61.80 o
5 1 8 108.06 49.76 98.79 <
7 1 8 39.45 93.33 43.63 o
-5 3 8 125.23 33.69 86.02 <
-3 3 8 109.94 244.59 39.55 o
-1 3 8 294.60 210.03 35.96 o
1 3 8 239.24 300.08 39.99 o
3 3 8 149.57 118.72 46.66 o
5 3 8 103.51 -52.26 119.79 <
-5 5 8 13.62 8.52 33.92 <
-3 5 8 125.23 87.83 105.28 <
-1 5 8 78.94 206.07 62.53 o
1 5 8 108.06 64.14 75.06 <
3 5 8 103.51 63.89 78.01 <
5 5 8 26.17 68.48 36.96 <
-1 7 8 51.95 89.48 36.24 o
1 7 8 39.45 55.91 33.13 <
0 1 9 63.42 51.16 22.39 o
-1 2 9 206.53 192.44 22.43 o
1 2 9 193.57 263.95 36.49 o
-2 3 9 1.77 15.77 29.81 <
0 3 9 337.23 278.19 48.61 o
2 3 9 10.01 -24.37 43.12 <
-3 4 9 194.29 140.87 51.60 o
-1 4 9 42.47 68.83 46.05 <
1 4 9 59.27 17.49 53.35 <
3 4 9 183.49 193.00 56.73 o
-4 5 9 7.66 -2.07 82.24 <
-2 5 9 247.96 153.96 70.66 o
0 5 9 11.15 132.64 60.52 o
2 5 9 244.72 219.99 72.83 o
4 5 9 11.87 -88.98 76.81 <
-3 6 9 5.04 94.09 69.84 <
-1 6 9 77.46 437.31 102.22 o
1 6 9 64.45 154.55 84.85 <
3 6 9 13.43 32.51 96.45 <
0 7 9 156.06 174.84 30.59 o
0 0 10 99.31 159.20 38.90 o
2 0 10 535.23 634.46 47.59 o
4 0 10 27.60 -233.68 117.88 <
6 0 10 113.65 144.58 33.61 o
-6 2 10 11.19 -66.39 116.85 <
-4 2 10 236.57 51.10 97.31 <
-2 2 10 57.78 4.88 47.17 <
0 2 10 535.20 517.62 54.73 o
2 2 10 52.34 29.68 42.52 <
4 2 10 244.01 168.35 132.04 <
6 2 10 5.02 25.07 37.56 <
-4 4 10 24.25 -167.96 138.16 <
-2 4 10 236.58 60.02 85.51 <
0 4 10 27.60 -120.59 85.53 <
2 4 10 244.02 301.32 84.68 o
4 4 10 13.70 -240.14 136.55 <
-2 6 10 11.19 27.88 24.91 <
0 6 10 113.65 10.40 76.30 <
2 6 10 5.02 137.95 135.45 <
0 1 11 105.51 136.60 32.97 o
-1 2 11 96.26 122.03 33.30 o
1 2 11 76.19 139.43 49.36 o
-2 3 11 100.71 -8.81 47.92 <
0 3 11 25.56 94.23 64.76 <
2 3 11 117.05 166.96 73.92 o
-3 4 11 87.44 141.95 87.67 <
-1 4 11 103.40 94.36 79.32 <
1 4 11 130.67 158.57 80.21 <
3 4 11 64.79 349.83 99.16 o
-4 5 11 54.31 82.02 28.19 o
-2 5 11 27.82 41.65 80.30 <
0 5 11 75.65 190.44 78.47 o
2 5 11 16.79 78.81 88.47 <
4 5 11 69.97 83.14 31.17 o
-1 6 11 94.81 186.74 28.51 o
1 6 11 72.76 215.51 72.47 o
-5 1 12 97.63 -1.70 37.64 <
-3 1 12 141.24 364.72 135.42 o
-1 1 12 294.39 213.69 58.41 o
1 1 12 241.39 293.48 72.88 o
3 1 12 180.36 123.69 158.79 <
5 1 12 75.54 170.78 42.58 o
-5 3 12 31.71 -6.66 39.83 <
-3 3 12 155.89 290.28 123.60 o
-1 3 12 141.24 190.82 77.07 o
1 3 12 180.37 247.00 107.33 o
3 3 12 126.62 81.76 130.54 <
5 3 12 48.56 4.49 45.64 <
-3 5 12 31.71 32.31 47.40 <
-1 5 12 97.63 254.01 133.68 <
1 5 12 75.54 156.29 129.90 <
3 5 12 48.56 69.00 35.14 <
0 1 13 91.19 52.42 57.67 <
-1 2 13 18.81 69.49 50.31 <
1 2 13 22.11 31.94 80.06 <
-2 3 13 130.68 117.54 83.45 <
0 3 13 0.65 22.88 99.65 <
2 3 13 129.27 238.51 98.69 o
-3 4 13 0.15 -15.27 130.16 <
-1 4 13 56.38 226.40 122.99 <
1 4 13 52.06 14.99 101.74 <
3 4 13 1.86 12.73 27.35 <
-2 5 13 7.40 3.60 34.52 <
0 5 13 135.74 152.76 115.91 <
2 5 13 6.95 76.68 34.44 o
0 0 14 325.02 212.65 134.85 <
2 0 14 63.50 86.76 108.15 <
4 0 14 150.41 127.32 43.37 o
-4 2 14 27.66 34.48 41.34 <
-2 2 14 218.91 39.03 163.52 <
0 2 14 63.50 39.44 114.50 <
2 2 14 222.63 276.69 161.29 <
4 2 14 22.25 121.81 51.34 o
-2 4 14 27.66 -13.81 64.16 <
0 4 14 150.41 261.21 147.00 <
2 4 14 22.25 79.95 37.10 o
0 1 15 28.28 260.77 87.85 o
-1 2 15 34.55 40.14 95.19 <
1 2 15 44.70 5.60 28.67 <
-2 3 15 33.09 -5.77 28.77 <
0 3 15 27.93 103.25 29.76 o
2 3 15 24.32 -41.07 33.51 <
-1 1 16 101.55 69.33 124.40 <
1 1 16 128.76 647.01 149.79 o
