#------------------------------------------------------------------------------
#$Date: 2021-06-15 11:12:38 +0300 (Tue, 15 Jun 2021) $
#$Revision: 266469 $
#$URL: file:///home/coder/svn-repositories/cod/cif/1/56/34/1563486.cif $
#------------------------------------------------------------------------------
#
# This file is available in the Crystallography Open Database (COD),
# http://www.crystallography.net/
#
# All data on this site have been placed in the public domain by the
# contributors.
#
data_1563486
loop_
_publ_author_name
'Souilah, M.'
'Lafond, A.'
'Guillot-Deudon, C.'
'Harel, S.'
'Evain, M.'
_publ_section_title
;
 Structural investigation of the Cu2Se--In2Se3--Ga2Se3 phase diagram,
 X-ray photoemission and optical properties of the
 Cu1&#x2212;z(In0.5Ga0.5)1+z/3Se2 compounds
;
_journal_issue                   10
_journal_name_full               'Journal of Solid State Chemistry'
_journal_page_first              2274
_journal_page_last               2280
_journal_paper_doi               10.1016/j.jssc.2010.08.014
_journal_volume                  183
_journal_year                    2010
_chemical_formula_moiety         'Cu0.743 Ga0.543 In0.543 Se2'
_chemical_formula_sum            'Cu0.743 Ga0.543 In0.543 Se2'
_chemical_formula_weight         305.3
_space_group_IT_number           121
_space_group_name_Hall           'I -4 2'
_space_group_name_H-M_alt        'I -4 2 m'
_symmetry_cell_setting           tetragonal
_symmetry_space_group_name_Hall  'I -4 2'
_symmetry_space_group_name_H-M   'I -4 2 m'
_cell_angle_alpha                90
_cell_angle_beta                 90
_cell_angle_gamma                90
_cell_formula_units_Z            4
_cell_length_a                   5.6796(3)
_cell_length_b                   5.6796(3)
_cell_length_c                   11.2905(8)
_cell_measurement_reflns_used    12705
_cell_measurement_temperature    293
_cell_measurement_theta_max      34.99
_cell_measurement_theta_min      6.5
_cell_volume                     364.21(4)
_computing_cell_refinement       unknown
_computing_data_collection       unknown
_computing_data_reduction        unknown
_computing_molecular_graphics    unknown
_computing_structure_solution    unknown
_diffrn_ambient_temperature      293
_diffrn_measured_fraction_theta_full 0.98
_diffrn_measured_fraction_theta_max 0.98
_diffrn_measurement_device       'four-cycle diffractometer'
_diffrn_measurement_method       omega
_diffrn_radiation_monochromator  unknown
_diffrn_radiation_source         'X-ray tube'
_diffrn_radiation_type           'Mo K\a'
_diffrn_radiation_wavelength     0.71069
_diffrn_reflns_av_R_equivalents  0.0929
_diffrn_reflns_av_sigmaI/netI    0.0309
_diffrn_reflns_limit_h_max       9
_diffrn_reflns_limit_h_min       -8
_diffrn_reflns_limit_k_max       8
_diffrn_reflns_limit_k_min       -9
_diffrn_reflns_limit_l_max       18
_diffrn_reflns_limit_l_min       -18
_diffrn_reflns_number            12705
_diffrn_reflns_theta_full        34.99
_diffrn_reflns_theta_max         34.99
_diffrn_reflns_theta_min         6.5
_exptl_absorpt_coefficient_mu    31.572
_exptl_absorpt_correction_T_max  0.449
_exptl_absorpt_correction_T_min  0.2173
_exptl_absorpt_correction_type   gaussian
_exptl_absorpt_process_details
'Jana2006  (Petricek, Dusek & Palatinus, 2000)'
_exptl_crystal_colour            black
_exptl_crystal_density_diffrn    5.5668
_exptl_crystal_description       block
_exptl_crystal_F_000             532
_exptl_crystal_size_max          0.08
_exptl_crystal_size_mid          0.05
_exptl_crystal_size_min          0.028
_refine_diff_density_max         1.86
_refine_diff_density_min         -2.31
_refine_ls_extinction_coef       600(200)
_refine_ls_extinction_method
'B-C type 1 Gaussian isotropic (Becker & Coppens, 1974)'
_refine_ls_goodness_of_fit_gt    1.49
_refine_ls_goodness_of_fit_ref   1.40
_refine_ls_number_constraints    6
_refine_ls_number_parameters     16
_refine_ls_number_reflns         445
_refine_ls_number_restraints     0
_refine_ls_R_factor_all          0.0902
_refine_ls_R_factor_gt           0.0467
_refine_ls_shift/su_max          0.0149
_refine_ls_shift/su_mean         0.0077
_refine_ls_structure_factor_coef Fsqd
_refine_ls_weighting_details     w=1/(\s^2^(I)+0.0016I^2^)
_refine_ls_weighting_scheme      sigma
_refine_ls_wR_factor_gt          0.0985
_refine_ls_wR_factor_ref         0.1153
_reflns_number_gt                293
_reflns_number_total             445
_reflns_threshold_expression     I>2\s(I)
_cod_data_source_file            JSSC-2010_183-2274.cif
_cod_data_source_block           6
_cod_depositor_comments
;
The following automatic conversions were performed:

data item '_exptl_absorpt_correction_type' value 'Gaussian' was
changed to 'gaussian' in accordance with the built-in table derived
from the CIF Core dictionary named 'cif_core.dic' version 2.4.5 last
updated on 2014-11-21.

Automatic conversion script
Id: cif_fix_values 8369 2020-08-20 11:38:08Z andrius 
;
_cod_database_code               1563486
loop_
_symmetry_equiv_pos_site_id
_symmetry_equiv_pos_as_xyz
1 x,y,z
2 -x,-y,z
3 y,-x,-z
4 -y,x,-z
5 -x,y,-z
6 x,-y,-z
7 -y,-x,z
8 y,x,z
9 x+1/2,y+1/2,z+1/2
10 -x+1/2,-y+1/2,z+1/2
11 y+1/2,-x+1/2,-z+1/2
12 -y+1/2,x+1/2,-z+1/2
13 -x+1/2,y+1/2,-z+1/2
14 x+1/2,-y+1/2,-z+1/2
15 -y+1/2,-x+1/2,z+1/2
16 y+1/2,x+1/2,z+1/2
loop_
_atom_site_label
_atom_site_type_symbol
_atom_site_fract_x
_atom_site_fract_y
_atom_site_fract_z
_atom_site_adp_type
_atom_site_U_iso_or_equiv
_atom_site_symmetry_multiplicity
_atom_site_occupancy
_atom_site_calc_flag
_atom_site_refinement_flags
_atom_site_disorder_assembly
_atom_site_disorder_group
Cu_2a Cu 0 0 0 Uani 0.0236(12) 2 0.876(13) d . . .
Cu_4d Cu 0 0.5 0.25 Uani 0.0190(7) 4 0.31(2) d . . .
Ga_4d Ga 0 0.5 0.25 Uani 0.0190(7) 4 0.543(4) d . . .
In_4d In 0 0.5 0.25 Uani 0.0190(7) 4 0.043(4) d . . .
In_2b In 0 0 0.5 Uani 0.0196(6) 2 1 d . . .
Se5 Se 0.2417(2) 0.2417(2) 0.12835(15) Uani 0.0179(5) 8 1 d . . .
loop_
_atom_site_aniso_label
_atom_site_aniso_type_symbol
_atom_site_aniso_U_11
_atom_site_aniso_U_22
_atom_site_aniso_U_33
_atom_site_aniso_U_12
_atom_site_aniso_U_13
_atom_site_aniso_U_23
Cu_2a Cu 0.0256(19) 0.0256(19) 0.020(2) 0 0 0
Cu_4d Cu 0.0195(10) 0.0195(10) 0.0180(17) 0 0 0
Ga_4d Ga 0.0195(10) 0.0195(10) 0.0180(17) 0 0 0
In_4d In 0.0195(10) 0.0195(10) 0.0180(17) 0 0 0
In_2b In 0.0210(8) 0.0210(8) 0.0170(12) 0 0 0
Se5 Se 0.0164(5) 0.0164(5) 0.0208(12) -0.0041(6) 0.0029(3) 0.0029(3)
loop_
_atom_type_symbol
_atom_type_scat_dispersion_real
_atom_type_scat_dispersion_imag
_atom_type_scat_source
Cu 0.320 1.265 'International Tables Vol C tables 4.2.6.8 and 6.1.1.1'
Ga 0.231 1.608 'International Tables Vol C tables 4.2.6.8 and 6.1.1.1'
In -0.728 1.310 'International Tables Vol C tables 4.2.6.8 and 6.1.1.1'
Se -0.093 2.226 'International Tables Vol C tables 4.2.6.8 and 6.1.1.1'
loop_
_geom_angle_atom_site_label_1
_geom_angle_atom_site_label_2
_geom_angle_atom_site_label_3
_geom_angle_site_symmetry_1
_geom_angle_site_symmetry_2
_geom_angle_site_symmetry_3
_geom_angle
_geom_angle_publ_flag
Se5 Cu_2a Se5 . . 2_555 106.51(5) yes
Se5 Cu_2a Se5 . . 3_555 110.97(5) yes
Se5 Cu_2a Se5 . . 4_555 110.97(5) yes
Se5 Cu_2a Se5 2_555 . 3_555 110.97(5) yes
Se5 Cu_2a Se5 2_555 . 4_555 110.97(5) yes
Se5 Cu_2a Se5 3_555 . 4_555 106.51(5) yes
Se5 Ga_4d Se5 . . 2_565 111.29(5) yes
Se5 Ga_4d Se5 . . 11_455 108.57(5) yes
Se5 Ga_4d Se5 . . 12_555 108.57(5) yes
Se5 Ga_4d Se5 2_565 . 11_455 108.57(5) yes
Se5 Ga_4d Se5 2_565 . 12_555 108.57(5) yes
Se5 Ga_4d Se5 11_455 . 12_555 111.29(5) yes
Se5 In_4d Se5 . . 2_565 111.29(5) yes
Se5 In_4d Se5 . . 11_455 108.57(5) yes
Se5 In_4d Se5 . . 12_555 108.57(5) yes
Se5 In_4d Se5 2_565 . 11_455 108.57(5) yes
Se5 In_4d Se5 2_565 . 12_555 108.57(5) yes
Se5 In_4d Se5 11_455 . 12_555 111.29(5) yes
Se5 In_2b Se5 9_445 . 10_555 110.14(5) yes
Se5 In_2b Se5 9_445 . 11_455 109.14(5) yes
Se5 In_2b Se5 9_445 . 12_545 109.14(5) yes
Se5 In_2b Se5 10_555 . 11_455 109.14(5) yes
Se5 In_2b Se5 10_555 . 12_545 109.14(5) yes
Se5 In_2b Se5 11_455 . 12_545 110.14(5) yes
loop_
_geom_bond_atom_site_label_1
_geom_bond_atom_site_label_2
_geom_bond_site_symmetry_1
_geom_bond_site_symmetry_2
_geom_bond_distance
_geom_bond_publ_flag
Cu_2a Se5 . . 2.4224(15) yes
Cu_2a Se5 . 2_555 2.4224(15) yes
Cu_2a Se5 . 3_555 2.4224(15) yes
Cu_2a Se5 . 4_555 2.4224(15) yes
Ga_4d Se5 . . 2.4337(15) yes
Ga_4d Se5 . 2_565 2.4337(15) yes
Ga_4d Se5 . 11_455 2.4337(15) yes
Ga_4d Se5 . 12_555 2.4337(15) yes
In_4d Se5 . . 2.4337(15) yes
In_4d Se5 . 2_565 2.4337(15) yes
In_4d Se5 . 11_455 2.4337(15) yes
In_4d Se5 . 12_555 2.4337(15) yes
In_2b Se5 . 9_445 2.5309(15) yes
In_2b Se5 . 10_555 2.5309(15) yes
In_2b Se5 . 11_455 2.5309(15) yes
In_2b Se5 . 12_545 2.5309(15) yes
loop_
_refln_index_h
_refln_index_k
_refln_index_l
_refln_F_squared_calc
_refln_F_squared_meas
_refln_F_squared_sigma
_refln_observed_status
0 2 0 98.60 386.62 30.81 o
2 2 0 98205.12 101080.84 210.13 o
1 3 0 483.31 484.38 26.21 o
3 3 0 154.52 199.29 61.89 o
0 4 0 69250.34 70019.59 245.83 o
2 4 0 167.60 20.30 44.14 <
4 4 0 32898.80 34831.42 367.17 o
1 5 0 109.13 181.78 51.13 o
3 5 0 154.35 352.03 78.23 o
5 5 0 10.73 327.64 229.21 <
0 6 0 169.90 397.32 102.53 o
2 6 0 23094.87 22946.32 180.09 o
4 6 0 109.12 -42.48 142.84 <
6 6 0 6366.59 6579.55 135.22 o
1 7 0 57.67 -126.34 123.96 <
3 7 0 10.96 256.36 158.87 <
5 7 0 50.71 40.15 61.19 <
0 8 0 8643.71 8601.09 186.01 o
2 8 0 61.49 252.15 70.49 o
4 8 0 4743.47 4786.44 117.34 o
1 9 0 9.11 473.76 131.26 o
-1 2 1 2039.90 1875.72 26.89 o
1 2 1 1896.34 1756.86 26.82 o
-2 3 1 169.42 128.09 34.89 o
0 3 1 2465.01 2642.20 39.83 o
2 3 1 275.66 269.48 28.77 o
-3 4 1 1576.06 1579.20 59.40 o
-1 4 1 692.65 797.99 37.17 o
1 4 1 869.84 891.96 39.02 o
3 4 1 1436.03 1455.48 62.15 o
-4 5 1 142.57 19.92 116.27 <
-2 5 1 1655.32 1712.45 71.57 o
0 5 1 7.15 91.62 44.16 o
2 5 1 1589.52 1714.72 66.79 o
4 5 1 236.45 38.35 127.35 <
-5 6 1 777.60 1421.68 245.57 o
-3 6 1 272.69 227.11 113.53 o
-1 6 1 882.15 947.59 82.42 o
1 6 1 739.57 895.41 85.39 o
3 6 1 391.39 174.95 114.87 <
5 6 1 694.07 747.67 176.65 o
-4 7 1 750.42 943.60 213.37 o
-2 7 1 43.19 138.40 159.63 <
0 7 1 1028.06 1012.46 93.32 o
2 7 1 80.31 264.10 138.90 <
4 7 1 695.66 673.83 153.00 o
-3 8 1 480.11 166.45 79.84 o
-1 8 1 259.66 396.71 65.11 o
1 8 1 350.67 344.84 55.12 o
3 8 1 403.06 559.07 87.76 o
0 9 1 27.38 70.62 91.96 <
-2 2 2 217.21 226.34 32.64 o
0 2 2 1256.95 1167.40 21.83 o
2 2 2 201.77 149.00 24.67 o
-3 3 2 30314.67 31031.35 192.28 o
-1 3 2 49323.25 50518.43 148.81 o
1 3 2 45943.89 45697.99 127.67 o
3 3 2 32820.29 33798.21 189.85 o
-4 4 2 49.61 -1.44 96.49 <
-2 4 2 379.43 363.35 41.76 o
0 4 2 91.75 105.32 35.07 o
2 4 2 397.31 504.37 44.84 o
4 4 2 26.51 97.31 137.76 <
-5 5 2 7020.17 7261.76 245.35 o
-3 5 2 15248.48 15553.54 148.26 o
-1 5 2 20356.57 20699.55 131.17 o
1 5 2 22237.75 22315.00 141.66 o
3 5 2 13842.96 14205.69 133.71 o
5 5 2 7849.43 7922.39 267.47 o
-6 6 2 21.73 324.31 520.01 <
-4 6 2 92.79 -22.51 139.18 <
-2 6 2 28.47 -104.27 91.25 <
0 6 2 171.85 110.73 70.85 <
2 6 2 15.09 18.87 100.47 <
4 6 2 111.35 188.91 163.99 <
6 6 2 6.26 -269.00 102.76 <
-5 7 2 3028.45 3286.52 93.28 o
-3 7 2 5039.84 5139.10 175.60 o
-1 7 2 7732.24 7578.49 140.28 o
1 7 2 6901.16 6725.51 166.58 o
3 7 2 5694.05 5549.25 221.24 o
5 7 2 2609.35 2701.42 84.38 o
-4 8 2 14.20 144.30 78.34 <
-2 8 2 49.89 100.96 57.34 <
0 8 2 6.32 95.60 55.60 <
2 8 2 57.66 120.02 223.80 <
4 8 2 3.29 77.50 83.95 <
-1 9 2 1990.28 1508.54 244.55 o
1 9 2 2328.40 1380.97 174.92 o
0 1 3 2010.47 1763.85 22.39 o
-1 2 3 907.97 863.00 21.52 o
1 2 3 769.70 776.58 21.81 o
-2 3 3 1823.03 1843.02 40.83 o
0 3 3 112.69 46.18 24.95 <
2 3 3 1925.66 1979.43 39.27 o
-3 4 3 437.40 406.76 53.69 o
-1 4 3 1148.74 1316.36 45.87 o
1 4 3 1322.33 1408.26 42.41 o
3 4 3 299.01 335.36 54.35 o
-4 5 3 1046.91 958.26 120.35 o
-2 5 3 112.03 132.16 61.89 o
0 5 3 1572.68 1562.15 63.55 o
2 5 3 47.01 77.72 70.14 <
4 5 3 1139.50 1361.39 136.93 o
-5 6 3 234.42 455.75 202.61 o
-3 6 3 785.25 751.57 116.58 o
-1 6 3 626.01 567.42 81.81 o
1 6 3 484.37 583.29 73.15 o
3 6 3 902.91 942.59 128.81 o
5 6 3 151.73 204.16 220.41 <
-4 7 3 127.10 -349.79 238.33 <
-2 7 3 822.51 926.68 160.56 o
0 7 3 20.17 -187.29 133.97 <
2 7 3 859.04 1297.62 169.28 o
4 7 3 73.13 -19.63 61.35 <
-3 8 3 242.95 284.82 64.24 o
-1 8 3 354.34 340.43 325.78 <
1 8 3 444.87 474.47 57.13 o
3 8 3 166.51 87.71 72.60 <
0 9 3 416.00 72.96 125.63 <
0 0 4 60.74 199.13 38.58 o
-1 1 4 1063.83 926.94 26.81 o
1 1 4 890.34 984.70 35.07 o
-2 2 4 69.09 95.42 35.07 o
0 2 4 97955.20 97703.09 174.13 o
2 2 4 83.97 62.42 39.70 <
-3 3 4 432.10 513.54 58.80 o
-1 3 4 415.56 478.56 29.07 o
1 3 4 536.34 437.42 28.83 o
3 3 4 341.99 510.05 54.04 o
-4 4 4 127.18 24.56 122.08 <
-2 4 4 47447.34 49123.86 167.46 o
0 4 4 122.42 70.69 34.21 o
2 4 4 47255.81 47633.35 173.73 o
4 4 4 149.58 150.57 115.35 <
-5 5 4 151.41 83.36 164.43 <
-3 5 4 81.19 156.00 79.74 <
-1 5 4 270.73 302.19 63.87 o
1 5 4 200.78 428.48 64.75 o
3 5 4 137.50 88.31 91.70 <
5 5 4 113.33 0.98 244.97 <
-6 6 4 32.11 432.04 116.04 o
-4 6 4 11800.87 12076.35 210.73 o
-2 6 4 109.23 85.15 85.51 <
0 6 4 23012.00 22918.44 190.11 o
2 6 4 122.16 202.87 133.49 <
4 6 4 11775.74 12608.09 253.09 o
6 6 4 48.32 163.76 110.15 <
-5 7 4 12.60 -18.37 77.89 <
-3 7 4 106.76 182.15 118.45 <
-1 7 4 52.06 252.88 152.91 <
1 7 4 89.47 -216.02 175.76 <
3 7 4 75.51 171.72 237.84 <
5 7 4 34.44 45.12 94.24 <
-2 8 4 6349.03 6572.87 123.41 o
0 8 4 51.40 144.21 69.94 o
2 8 4 6341.18 6384.63 127.46 o
0 1 5 1542.43 1501.23 29.07 o
-1 2 5 553.39 540.23 21.95 o
1 2 5 659.60 627.83 32.14 o
-2 3 5 1683.48 1743.34 45.04 o
0 3 5 66.68 41.75 28.21 <
2 3 5 1601.43 1857.60 49.51 o
-3 4 5 199.24 340.85 63.31 o
-1 4 5 1063.73 1045.79 43.86 o
1 4 5 925.03 943.21 42.32 o
3 4 5 311.94 252.34 53.26 o
-4 5 5 1031.08 944.04 127.24 o
-2 5 5 33.98 84.91 65.70 <
0 5 5 1474.40 1679.84 67.46 o
2 5 5 87.63 35.67 78.63 <
4 5 5 953.52 841.00 150.65 o
-5 6 5 110.27 -24.31 147.79 <
-3 6 5 767.24 697.21 132.24 o
-1 6 5 355.86 382.34 101.93 o
1 6 5 472.44 139.39 122.09 <
3 6 5 669.26 782.26 172.77 o
5 6 5 180.28 -16.12 68.27 <
-4 7 5 60.78 94.71 59.89 <
-2 7 5 817.11 676.27 140.21 o
0 7 5 27.98 146.97 133.94 <
2 7 5 786.01 603.56 188.15 o
4 7 5 106.97 25.13 73.33 <
-3 8 5 120.61 72.84 87.84 <
-1 8 5 358.13 372.35 63.07 o
1 8 5 282.42 197.14 67.21 o
3 8 5 185.04 148.08 78.55 <
0 0 6 2063.00 2129.89 82.71 o
-1 1 6 49257.12 47376.91 180.36 o
1 1 6 45846.05 44279.85 189.97 o
-2 2 6 1228.18 1299.21 53.73 o
0 2 6 5.55 57.53 28.01 o
2 2 6 1238.66 1261.77 48.74 o
-3 3 6 21741.71 22865.06 176.41 o
-1 3 6 30082.47 30008.29 118.00 o
1 3 6 32633.59 32130.08 150.93 o
3 3 6 19832.29 19967.25 196.02 o
-4 4 6 408.64 330.84 128.34 o
-2 4 6 21.27 77.38 47.62 <
0 4 6 809.09 676.20 45.49 o
2 4 6 7.93 -9.89 58.60 <
4 4 6 426.51 216.00 131.53 <
-5 5 6 5376.98 5742.97 274.46 o
-3 5 6 9882.57 9604.25 149.40 o
-1 5 6 15110.83 14991.45 129.92 o
1 5 6 13707.91 13568.21 131.55 o
3 5 6 10943.86 10004.31 172.09 o
5 5 6 4720.80 5710.61 153.91 o
-6 6 6 106.22 110.26 122.62 <
-4 6 6 23.88 -168.03 142.82 <
-2 6 6 299.69 446.99 127.49 o
0 6 6 11.29 -2.49 131.97 <
2 6 6 310.17 122.78 171.97 <
4 6 6 9.21 283.41 224.10 <
6 6 6 118.43 68.89 138.81 <
-5 7 6 2080.41 1888.27 112.09 o
-3 7 6 3977.86 4216.86 85.92 o
-1 7 6 4983.34 4691.41 174.39 o
1 7 6 5636.36 5084.08 175.40 o
3 7 6 3456.84 3686.05 102.34 o
5 7 6 2416.67 2249.04 134.16 o
-2 8 6 11.92 115.02 74.94 <
0 8 6 131.18 101.19 88.73 <
2 8 6 5.78 21.63 94.75 <
0 1 7 470.59 484.59 31.37 o
-1 2 7 938.81 975.16 33.47 o
1 2 7 1037.37 1030.48 40.29 o
-2 3 7 207.02 283.90 43.59 o
0 3 7 1251.76 1250.79 42.58 o
2 3 7 129.14 170.69 55.74 o
-3 4 7 869.76 734.98 78.88 o
-1 4 7 594.93 552.59 50.74 o
1 4 7 461.41 450.87 64.18 o
3 4 7 978.61 707.72 74.81 o
-4 5 7 172.11 4.50 146.77 <
-2 5 7 922.51 1055.35 90.67 o
0 5 7 4.47 24.33 73.17 <
2 5 7 974.01 811.21 93.52 o
4 5 7 97.07 280.34 205.75 <
-5 6 7 454.80 502.07 66.84 o
-3 6 7 298.58 320.30 175.46 <
-1 6 7 504.35 456.94 130.34 o
1 6 7 618.79 606.79 148.60 o
3 6 7 202.77 1189.40 247.09 o
5 6 7 522.27 483.25 84.02 o
-4 7 7 439.32 201.36 68.77 o
-2 7 7 46.23 26.71 46.00 <
0 7 7 617.24 664.65 175.29 o
2 7 7 16.48 29.03 59.07 <
4 7 7 483.22 555.97 86.85 o
-1 8 7 269.16 101.82 71.25 <
1 8 7 194.93 85.40 86.04 <
0 0 8 68808.94 63971.45 426.07 o
-1 1 8 708.57 873.65 51.84 o
1 1 8 909.47 981.58 60.26 o
-2 2 8 47019.24 46769.91 235.36 o
0 2 8 40.29 59.26 40.12 <
2 2 8 46917.73 46092.34 257.41 o
-3 3 8 304.46 392.80 99.01 o
-1 3 8 653.93 689.55 47.26 o
1 3 8 500.54 481.69 50.43 o
3 3 8 426.02 457.46 116.54 o
-4 4 8 16187.17 17322.59 319.40 o
-2 4 8 52.51 18.25 60.40 <
0 4 8 32457.16 33023.68 168.00 o
2 4 8 74.55 62.77 75.81 <
4 4 8 16136.39 16163.78 313.35 o
-5 5 8 84.34 170.68 70.27 o
-3 5 8 297.09 269.63 119.56 o
-1 5 8 230.66 358.51 99.24 o
1 5 8 328.69 159.72 101.76 <
3 5 8 216.31 137.99 190.41 <
5 5 8 140.10 -2.08 94.09 <
-4 6 8 19.50 124.61 53.57 o
-2 6 8 11665.56 11805.17 181.53 o
0 6 8 46.09 66.81 159.56 <
2 6 8 11640.88 12032.82 311.19 o
4 6 8 45.56 -13.86 68.91 <
-3 7 8 65.90 -110.70 90.34 <
-1 7 8 164.05 174.96 51.73 o
1 7 8 109.31 211.27 59.44 o
3 7 8 111.78 229.68 75.28 o
0 8 8 4671.86 4375.06 146.93 o
0 1 9 300.23 337.07 40.86 o
-1 2 9 745.97 731.63 44.09 o
1 2 9 682.91 709.41 46.64 o
-2 3 9 55.58 69.14 69.56 <
0 3 9 1041.33 1181.46 69.83 o
2 3 9 107.34 67.79 70.22 <
-3 4 9 752.92 880.71 107.59 o
-1 4 9 265.62 358.56 74.05 o
1 4 9 354.65 336.40 88.49 o
3 4 9 678.24 574.47 145.88 o
-4 5 9 47.94 -138.85 181.81 <
-2 5 9 848.03 843.73 91.60 o
0 5 9 4.03 327.09 125.43 o
2 5 9 811.90 869.32 145.63 o
4 5 9 101.34 226.00 245.48 <
-5 6 9 413.44 443.96 96.06 o
-3 6 9 102.11 -410.14 201.45 <
-1 6 9 413.30 629.31 181.49 o
1 6 9 334.22 427.98 191.71 o
3 6 9 169.50 198.84 62.38 o
5 6 9 364.60 275.12 113.27 o
-2 7 9 17.04 47.78 67.36 <
0 7 9 571.55 420.12 63.92 o
2 7 9 38.82 72.11 73.26 <
0 0 10 73.70 47.02 91.21 <
-1 1 10 19871.62 19672.75 183.35 o
1 1 10 21722.98 21186.38 202.10 o
-2 2 10 73.18 230.55 86.55 o
0 2 10 1222.86 1262.60 67.70 o
2 2 10 67.29 300.90 115.16 o
-3 3 10 9704.46 8902.94 197.75 o
-1 3 10 14863.40 15305.83 142.85 o
1 3 10 13464.78 13880.67 159.56 o
3 3 10 10756.23 10345.04 255.90 o
-4 4 10 53.36 80.32 227.30 <
-2 4 10 645.81 666.73 116.88 o
0 4 10 60.78 8.30 95.49 <
2 4 10 653.76 692.27 141.93 o
4 4 10 42.28 372.23 230.63 <
-5 5 10 2778.43 2702.73 136.57 o
-3 5 10 5287.33 5920.41 170.92 o
-1 5 10 6813.06 6690.68 172.63 o
1 5 10 7636.14 7195.89 179.49 o
3 5 10 4635.14 5156.85 181.07 o
5 5 10 3192.78 2903.53 153.68 o
-4 6 10 221.86 117.98 86.89 <
-2 6 10 41.35 36.31 47.75 <
0 6 10 368.31 602.94 213.49 o
2 6 10 34.80 287.83 249.95 <
4 6 10 231.04 39.17 81.74 <
-3 7 10 2043.03 2289.92 170.50 o
-1 7 10 2951.09 3166.23 82.88 o
1 7 10 2535.46 2550.49 95.07 o
3 7 10 2377.03 1772.01 141.53 o
0 1 11 484.52 459.52 76.17 o
-1 2 11 298.48 369.58 72.72 o
1 2 11 238.89 153.06 85.83 <
-2 3 11 558.64 283.45 102.01 o
0 3 11 65.93 147.88 96.73 <
2 3 11 607.73 569.25 106.18 o
-3 4 11 188.92 438.80 139.85 o
-1 4 11 392.48 588.43 99.45 o
1 4 11 478.18 186.26 121.46 <
3 4 11 117.36 230.57 203.00 <
-4 5 11 381.74 312.08 68.02 o
-2 5 11 51.99 94.27 153.91 <
0 5 11 525.53 899.52 192.15 o
2 5 11 17.91 -464.89 235.29 <
4 5 11 431.91 344.79 80.42 o
-3 6 11 302.26 311.29 68.65 o
-1 6 11 269.12 -94.08 196.20 <
1 6 11 192.59 351.44 175.30 o
3 6 11 366.56 430.18 81.35 o
-2 7 11 304.61 245.05 200.69 <
0 7 11 2.20 71.80 80.85 <
2 7 11 324.54 103.73 112.89 <
0 0 12 17.32 226.39 164.17 <
-1 1 12 644.35 674.69 97.45 o
1 1 12 489.62 620.58 132.52 o
-2 2 12 8.99 -82.71 124.05 <
0 2 12 22373.23 22111.18 191.08 o
2 2 12 21.39 -14.15 179.37 <
-3 3 12 392.18 207.04 183.57 <
-1 3 12 350.74 477.95 136.87 o
1 3 12 476.88 285.94 117.49 o
3 3 12 288.10 121.61 233.17 <
-4 4 12 1.25 261.46 370.45 <
-2 4 12 11472.71 12237.90 215.18 o
0 4 12 12.70 -276.29 155.48 <
2 4 12 11448.70 11973.84 263.86 o
4 4 12 26.67 -173.32 103.22 <
-3 5 12 144.54 65.10 58.94 <
-1 5 12 296.84 -86.25 109.69 <
1 5 12 210.90 415.46 188.85 o
3 5 12 216.29 120.31 67.32 <
-2 6 12 2.16 -100.78 73.97 <
0 6 12 6172.74 6574.42 255.94 o
2 6 12 17.71 111.45 85.75 <
0 1 13 355.30 427.28 106.75 o
-1 2 13 138.43 101.17 122.88 <
1 2 13 171.90 322.77 113.70 o
-2 3 13 466.19 400.99 147.77 o
0 3 13 30.23 27.30 131.33 <
2 3 13 437.71 612.71 197.97 o
-3 4 13 43.49 37.93 51.75 <
-1 4 13 297.17 464.37 152.13 o
1 4 13 247.75 427.79 173.86 o
3 4 13 85.82 70.18 177.27 <
-4 5 13 329.87 430.06 151.73 o
-2 5 13 3.49 -53.23 57.47 <
0 5 13 449.47 340.32 148.74 o
2 5 13 24.21 62.13 70.33 <
-1 6 13 91.72 98.52 61.86 <
1 6 13 136.95 199.83 67.21 o
0 0 14 815.24 679.60 222.33 o
-1 1 14 7397.31 7075.05 196.53 o
1 1 14 6577.20 6869.70 224.99 o
-2 2 14 616.74 904.06 168.37 o
0 2 14 67.16 171.08 134.64 <
2 2 14 619.55 730.68 261.69 o
-3 3 14 3850.09 3703.58 1077.07 o
-1 3 14 4802.12 4729.25 141.08 o
1 3 14 5445.83 5248.16 164.46 o
3 3 14 3336.08 3563.07 152.87 o
-4 4 14 285.21 411.00 132.45 o
-2 4 14 51.36 88.76 53.74 <
0 4 14 472.80 240.48 146.77 <
2 4 14 47.42 -358.23 206.59 <
4 4 14 290.69 435.96 282.59 <
-3 5 14 2005.81 1675.97 153.80 o
-1 5 14 2905.05 2908.96 81.23 o
1 5 14 2492.71 2541.11 89.66 o
3 5 14 2337.47 2655.82 289.26 o
0 1 15 121.09 173.55 105.92 <
-1 2 15 197.39 274.70 124.73 o
1 2 15 229.15 245.25 78.64 o
-2 3 15 70.32 137.12 54.39 o
0 3 15 261.43 205.52 47.11 o
2 3 15 43.67 146.54 69.91 o
-3 4 15 194.70 166.01 86.89 <
-1 4 15 155.13 165.56 62.42 o
1 4 15 108.36 119.66 69.87 <
3 4 15 233.95 227.92 178.99 <
0 5 15 10.44 -5.19 78.85 <
0 0 16 8240.39 8567.70 169.92 o
-1 1 16 234.09 240.21 56.59 o
1 1 16 330.37 370.44 63.95 o
-2 2 16 6085.00 6122.89 170.80 o
0 2 16 26.66 -9.60 44.11 <
2 2 16 6074.93 6109.74 168.60 o
-3 3 16 136.09 80.30 120.22 <
-1 3 16 264.80 322.38 61.56 o
1 3 16 184.68 100.39 69.41 <
3 3 16 202.87 -525.85 241.94 <
0 4 16 4532.71 4401.55 97.60 o
0 1 17 73.45 148.88 51.01 o
-1 2 17 148.26 194.68 82.40 o
1 2 17 132.53 -6.50 82.40 <
0 3 17 199.05 229.78 83.42 o
0 0 18 30.45 204.52 178.64 <
-1 1 18 1892.25 1942.17 155.69 o
1 1 18 2221.64 2338.94 124.86 o
