#------------------------------------------------------------------------------
#$Date: 2021-06-15 11:12:38 +0300 (Tue, 15 Jun 2021) $
#$Revision: 266469 $
#$URL: file:///home/coder/svn-repositories/cod/cif/1/56/34/1563490.cif $
#------------------------------------------------------------------------------
#
# This file is available in the Crystallography Open Database (COD),
# http://www.crystallography.net/
#
# All data on this site have been placed in the public domain by the
# contributors.
#
data_1563490
loop_
_publ_author_name
'Souilah, M.'
'Lafond, A.'
'Guillot-Deudon, C.'
'Harel, S.'
'Evain, M.'
_publ_section_title
;
 Structural investigation of the Cu2Se--In2Se3--Ga2Se3 phase diagram,
 X-ray photoemission and optical properties of the
 Cu1&#x2212;z(In0.5Ga0.5)1+z/3Se2 compounds
;
_journal_issue                   10
_journal_name_full               'Journal of Solid State Chemistry'
_journal_page_first              2274
_journal_page_last               2280
_journal_paper_doi               10.1016/j.jssc.2010.08.014
_journal_volume                  183
_journal_year                    2010
_chemical_formula_moiety         'Cu0.25 Ga0.625 In0.625 Se2'
_chemical_formula_sum            'Cu0.25 Ga0.625 In0.625 Se2'
_chemical_formula_weight         289.1
_space_group_IT_number           121
_space_group_name_Hall           'I -4 2'
_space_group_name_H-M_alt        'I -4 2 m'
_symmetry_cell_setting           tetragonal
_symmetry_space_group_name_Hall  'I -4 2'
_symmetry_space_group_name_H-M   'I -4 2 m'
_cell_angle_alpha                90
_cell_angle_beta                 90
_cell_angle_gamma                90
_cell_formula_units_Z            4
_cell_length_a                   5.6166(7)
_cell_length_b                   5.6166(7)
_cell_length_c                   11.214(11)
_cell_measurement_reflns_used    10235
_cell_measurement_temperature    293
_cell_measurement_theta_max      40.08
_cell_measurement_theta_min      6.56
_cell_volume                     353.8(4)
_computing_cell_refinement       unknown
_computing_data_collection       unknown
_computing_data_reduction        unknown
_computing_molecular_graphics    unknown
_computing_structure_solution    unknown
_diffrn_ambient_temperature      293
_diffrn_measured_fraction_theta_full 0.98
_diffrn_measured_fraction_theta_max 0.98
_diffrn_measurement_device       'four-cycle diffractometer'
_diffrn_measurement_device_type  'Nonius CCD'
_diffrn_measurement_method       omega
_diffrn_radiation_monochromator  unknown
_diffrn_radiation_source         'X-ray tube'
_diffrn_radiation_type           'Mo K\a'
_diffrn_radiation_wavelength     0.71069
_diffrn_reflns_av_R_equivalents  0.0586
_diffrn_reflns_av_sigmaI/netI    0.0153
_diffrn_reflns_limit_h_max       10
_diffrn_reflns_limit_h_min       -10
_diffrn_reflns_limit_k_max       10
_diffrn_reflns_limit_k_min       -10
_diffrn_reflns_limit_l_max       20
_diffrn_reflns_limit_l_min       -20
_diffrn_reflns_number            10235
_diffrn_reflns_theta_full        40.08
_diffrn_reflns_theta_max         40.08
_diffrn_reflns_theta_min         6.56
_exptl_absorpt_coefficient_mu    30.616
_exptl_absorpt_correction_T_max  0.3207
_exptl_absorpt_correction_T_min  0.1005
_exptl_absorpt_correction_type   gaussian
_exptl_absorpt_process_details
'Jana2006  (Petricek, Dusek & Palatinus, 2000)'
_exptl_crystal_colour            black
_exptl_crystal_density_diffrn    5.4272
_exptl_crystal_description       block
_exptl_crystal_F_000             501
_exptl_crystal_size_max          0.13
_exptl_crystal_size_mid          0.07
_exptl_crystal_size_min          0.05
_refine_diff_density_max         1.11
_refine_diff_density_min         -1.33
_refine_ls_extinction_coef       5600(400)
_refine_ls_extinction_method
'B-C type 1 Gaussian isotropic (Becker & Coppens, 1974)'
_refine_ls_goodness_of_fit_gt    1.53
_refine_ls_goodness_of_fit_ref   1.56
_refine_ls_number_constraints    5
_refine_ls_number_parameters     35
_refine_ls_number_reflns         1320
_refine_ls_number_restraints     0
_refine_ls_R_factor_all          0.0686
_refine_ls_R_factor_gt           0.0477
_refine_ls_shift/su_max          0.0081
_refine_ls_shift/su_mean         0.0018
_refine_ls_structure_factor_coef Fsqd
_refine_ls_weighting_details     w=1/(\s^2^(I)+0.0016I^2^)
_refine_ls_weighting_scheme      sigma
_refine_ls_wR_factor_gt          0.1022
_refine_ls_wR_factor_ref         0.1149
_reflns_number_gt                1098
_reflns_number_total             1320
_reflns_threshold_expression     I>2\s(I)
_cod_data_source_file            JSSC-2010_183-2274.cif
_cod_data_source_block           10
_cod_depositor_comments
;
The following automatic conversions were performed:

data item '_exptl_absorpt_correction_type' value 'Gaussian' was
changed to 'gaussian' in accordance with the built-in table derived
from the CIF Core dictionary named 'cif_core.dic' version 2.4.5 last
updated on 2014-11-21.

Automatic conversion script
Id: cif_fix_values 8369 2020-08-20 11:38:08Z andrius 
;
_cod_original_cell_volume        353.759
_cod_database_code               1563490
loop_
_symmetry_equiv_pos_site_id
_symmetry_equiv_pos_as_xyz
1 x,y,z
2 -x,-y,z
3 y,-x,-z
4 -y,x,-z
5 -x,y,-z
6 x,-y,-z
7 -y,-x,z
8 y,x,z
9 x+1/2,y+1/2,z+1/2
10 -x+1/2,-y+1/2,z+1/2
11 y+1/2,-x+1/2,-z+1/2
12 -y+1/2,x+1/2,-z+1/2
13 -x+1/2,y+1/2,-z+1/2
14 x+1/2,-y+1/2,-z+1/2
15 -y+1/2,-x+1/2,z+1/2
16 y+1/2,x+1/2,z+1/2
loop_
_atom_site_label
_atom_site_type_symbol
_atom_site_fract_x
_atom_site_fract_y
_atom_site_fract_z
_atom_site_adp_type
_atom_site_U_iso_or_equiv
_atom_site_symmetry_multiplicity
_atom_site_occupancy
_atom_site_calc_flag
_atom_site_refinement_flags
_atom_site_disorder_assembly
_atom_site_disorder_group
Se_8i Se 0.76225(18) 0.76225(18) 0.86830(9) Uani 0.0329(5) 8 1 d . . .
In_2b In 0.5 0.5 0 Uani 0.0239(3) 2 1 d . . .
In_4d In 0 0.5 0.25 Uani 0.0288(5) 4 0.125 d . . .
Ga_4d Ga 0 0.5 0.25 Uani 0.0288(5) 4 0.499(2) d . . .
Cu_2a Cu 0 0 0 Uani 0.0293(7) 2 0.5 d . . .
Ga_2a Ga 0 0 0 Uani 0.0293(7) 2 0.253(5) d . . .
loop_
_atom_site_aniso_label
_atom_site_aniso_type_symbol
_atom_site_aniso_U_11
_atom_site_aniso_U_22
_atom_site_aniso_U_33
_atom_site_aniso_U_12
_atom_site_aniso_U_13
_atom_site_aniso_U_23
Se_8i Se 0.0272(6) 0.0272(6) 0.0444(13) -0.0119(4) 0.0099(3) 0.0099(3)
In_2b In 0.0208(4) 0.0208(4) 0.0301(7) 0 0 0
In_4d In 0.0225(5) 0.0225(5) 0.0414(14) 0 0 0
Ga_4d Ga 0.0225(5) 0.0225(5) 0.0414(14) 0 0 0
Cu_2a Cu 0.0211(8) 0.0211(8) 0.0456(18) 0 0 0
Ga_2a Ga 0.0211(8) 0.0211(8) 0.0456(18) 0 0 0
loop_
_atom_type_symbol
_atom_type_scat_dispersion_real
_atom_type_scat_dispersion_imag
_atom_type_scat_source
Cu 0.320 1.265 'International Tables Vol C tables 4.2.6.8 and 6.1.1.1'
In -0.728 1.310 'International Tables Vol C tables 4.2.6.8 and 6.1.1.1'
Ga 0.231 1.608 'International Tables Vol C tables 4.2.6.8 and 6.1.1.1'
Se -0.093 2.226 'International Tables Vol C tables 4.2.6.8 and 6.1.1.1'
loop_
_geom_angle_atom_site_label_1
_geom_angle_atom_site_label_2
_geom_angle_atom_site_label_3
_geom_angle_site_symmetry_1
_geom_angle_site_symmetry_2
_geom_angle_site_symmetry_3
_geom_angle
_geom_angle_publ_flag
Se_8i In_2b Se_8i 1_554 . 2_664 109.33(3) yes
Se_8i In_2b Se_8i 1_554 . 3_566 109.54(3) yes
Se_8i In_2b Se_8i 1_554 . 4_656 109.54(3) yes
Se_8i In_2b Se_8i 2_664 . 3_566 109.54(3) yes
Se_8i In_2b Se_8i 2_664 . 4_656 109.54(3) yes
Se_8i In_2b Se_8i 3_566 . 4_656 109.33(3) yes
Se_8i In_4d Se_8i 9_444 . 10_564 112.57(3) yes
Se_8i In_4d Se_8i 9_444 . 3_466 107.94(3) yes
Se_8i In_4d Se_8i 9_444 . 4_656 107.94(3) yes
Se_8i In_4d Se_8i 10_564 . 3_466 107.94(3) yes
Se_8i In_4d Se_8i 10_564 . 4_656 107.94(3) yes
Se_8i In_4d Se_8i 3_466 . 4_656 112.57(3) yes
Se_8i Ga_4d Se_8i 9_444 . 10_564 112.57(3) yes
Se_8i Ga_4d Se_8i 9_444 . 3_466 107.94(3) yes
Se_8i Ga_4d Se_8i 9_444 . 4_656 107.94(3) yes
Se_8i Ga_4d Se_8i 10_564 . 3_466 107.94(3) yes
Se_8i Ga_4d Se_8i 10_564 . 4_656 107.94(3) yes
Se_8i Ga_4d Se_8i 3_466 . 4_656 112.57(3) yes
Se_8i Cu_2a Se_8i 1_444 . 2_664 103.94(3) yes
Se_8i Cu_2a Se_8i 1_444 . 3_466 112.30(3) yes
Se_8i Cu_2a Se_8i 1_444 . 4_646 112.30(3) yes
Se_8i Cu_2a Se_8i 2_664 . 3_466 112.30(3) yes
Se_8i Cu_2a Se_8i 2_664 . 4_646 112.30(3) yes
Se_8i Cu_2a Se_8i 3_466 . 4_646 103.94(3) yes
loop_
_geom_bond_atom_site_label_1
_geom_bond_atom_site_label_2
_geom_bond_site_symmetry_1
_geom_bond_site_symmetry_2
_geom_bond_distance
_geom_bond_publ_flag
In_2b Se_8i . 1_554 2.5536(10) yes
In_2b Se_8i . 2_664 2.5536(10) yes
In_2b Se_8i . 3_566 2.5536(10) yes
In_2b Se_8i . 4_656 2.5536(10) yes
In_4d Se_8i . 9_444 2.3901(10) yes
In_4d Se_8i . 10_564 2.3901(10) yes
In_4d Se_8i . 3_466 2.3901(10) yes
In_4d Se_8i . 4_656 2.3901(10) yes
Ga_4d Se_8i . 9_444 2.3901(10) yes
Ga_4d Se_8i . 10_564 2.3901(10) yes
Ga_4d Se_8i . 3_466 2.3901(10) yes
Ga_4d Se_8i . 4_656 2.3901(10) yes
Cu_2a Se_8i . 1_444 2.3974(10) yes
Cu_2a Se_8i . 2_664 2.3974(10) yes
Cu_2a Se_8i . 3_466 2.3974(10) yes
Cu_2a Se_8i . 4_646 2.3974(10) yes
loop_
_refln_index_h
_refln_index_k
_refln_index_l
_refln_F_squared_calc
_refln_F_squared_meas
_refln_F_squared_sigma
_refln_observed_status
2 0 0 649.79 654.41 8.62 o
4 0 0 21878.87 24072.90 55.59 o
6 0 0 23.56 -2.85 15.76 <
8 0 0 2880.20 2822.92 29.62 o
10 0 0 79.02 77.12 14.86 o
3 1 0 468.32 459.92 5.91 o
5 1 0 105.10 85.55 7.42 o
7 1 0 80.70 59.09 14.49 o
9 1 0 15.92 25.11 6.75 o
4 2 0 44.89 50.56 5.00 o
6 2 0 9452.42 9038.86 57.30 o
8 2 0 85.69 85.67 7.33 o
1 3 0 467.43 444.60 5.30 o
3 3 0 100.91 103.42 5.96 o
5 3 0 242.20 258.45 12.94 o
7 3 0 9.89 -14.75 20.09 <
9 3 0 34.63 55.38 11.27 o
0 4 0 20557.53 22590.70 73.58 o
2 4 0 45.35 54.04 6.11 o
4 4 0 13560.71 12807.09 74.09 o
6 4 0 74.06 70.02 26.17 o
8 4 0 1321.91 1325.45 41.21 o
1 5 0 105.07 100.61 8.09 o
3 5 0 241.97 251.47 14.64 o
5 5 0 3.54 5.04 19.47 <
7 5 0 97.94 114.99 13.69 o
0 6 0 23.53 4.61 19.97 <
2 6 0 9549.24 9006.96 71.56 o
4 6 0 74.79 18.57 19.28 <
6 6 0 1947.29 1860.13 33.24 o
8 6 0 54.89 36.39 22.44 <
1 7 0 80.68 80.30 21.48 o
3 7 0 9.89 1.56 18.29 <
5 7 0 97.94 97.10 11.72 o
7 7 0 1.53 31.39 24.76 <
0 8 0 2961.67 2798.76 35.66 o
2 8 0 87.90 100.08 7.38 o
4 8 0 1350.07 1369.84 27.61 o
6 8 0 55.69 104.73 17.85 o
1 9 0 15.92 -12.85 9.65 <
3 9 0 34.63 49.32 10.58 o
0 10 0 81.77 33.03 18.16 <
-1 2 1 808.33 883.56 5.26 o
1 2 1 847.53 914.92 4.76 o
-2 3 1 93.33 83.69 3.10 o
0 3 1 1099.60 1210.92 7.36 o
2 3 1 65.83 64.29 2.92 o
-3 4 1 585.43 550.53 8.40 o
-1 4 1 365.64 370.09 5.11 o
1 4 1 319.06 329.86 4.80 o
3 4 1 618.68 615.81 10.85 o
-4 5 1 74.77 89.53 12.62 o
-2 5 1 673.73 648.87 10.61 o
0 5 1 26.27 31.03 4.31 o
2 5 1 687.33 691.31 10.49 o
4 5 1 56.44 47.61 12.14 o
-5 6 1 206.07 231.76 23.41 o
-3 6 1 132.53 152.09 13.99 o
-1 6 1 292.73 306.33 11.95 o
1 6 1 325.72 319.20 10.99 o
3 6 1 107.65 107.67 9.38 o
5 6 1 220.61 198.77 21.17 o
-6 7 1 22.31 16.68 13.59 <
-4 7 1 219.16 160.18 19.47 o
-2 7 1 32.92 31.87 13.34 o
0 7 1 401.55 387.49 11.21 o
2 7 1 27.06 44.42 11.46 o
4 7 1 227.29 217.45 20.50 o
6 7 1 15.67 -9.75 9.10 <
-5 8 1 28.85 57.85 10.78 o
-3 8 1 108.53 102.57 5.12 o
-1 8 1 109.74 104.89 4.52 o
1 8 1 91.81 93.00 4.45 o
3 8 1 122.21 108.76 6.07 o
5 8 1 20.77 35.47 13.46 o
-4 9 1 10.47 -18.89 8.13 <
-2 9 1 125.79 124.48 7.58 o
0 9 1 12.34 11.40 5.32 o
2 9 1 127.80 122.71 9.26 o
4 9 1 7.67 3.04 7.92 <
-1 10 1 35.02 24.71 9.33 o
1 10 1 42.32 33.74 10.16 o
2 0 2 969.46 993.01 7.34 o
4 0 2 94.25 103.01 5.90 o
6 0 2 172.65 156.86 11.01 o
8 0 2 16.34 28.75 5.46 o
10 0 2 20.02 33.39 16.34 o
-9 1 2 658.39 671.59 14.70 o
-7 1 2 2730.13 2637.65 31.88 o
-5 1 2 10553.99 9649.38 41.90 o
-3 1 2 16312.62 16631.68 36.76 o
3 1 2 17436.52 19241.94 31.83 o
5 1 2 9923.64 8695.85 39.34 o
7 1 2 2978.99 2864.05 32.63 o
9 1 2 595.38 604.66 14.09 o
-8 2 2 55.97 58.13 5.72 o
-6 2 2 44.08 60.03 16.86 o
-4 2 2 382.19 374.84 8.69 o
-2 2 2 160.88 158.49 4.33 o
0 2 2 957.97 973.19 7.81 o
2 2 2 172.07 161.63 4.74 o
4 2 2 371.11 376.09 8.64 o
6 2 2 51.29 36.79 13.12 o
8 2 2 52.73 63.00 7.77 o
-9 3 2 401.01 405.28 16.81 o
-7 3 2 2021.85 1999.52 40.59 o
-5 3 2 6213.10 5701.40 42.33 o
-3 3 2 14799.04 14233.98 50.79 o
-1 3 2 15859.87 16361.42 30.01 o
1 3 2 16693.44 18133.78 36.35 o
3 3 2 14051.43 12993.10 49.97 o
5 3 2 6729.21 6288.27 57.80 o
7 3 2 1851.67 1822.17 32.78 o
9 3 2 446.45 541.13 18.74 o
-8 4 2 23.30 50.84 19.41 o
-6 4 2 112.58 104.96 25.46 o
-4 4 2 80.67 63.04 10.88 o
-2 4 2 382.00 382.23 9.27 o
0 4 2 94.20 92.85 5.71 o
2 4 2 370.74 377.80 13.46 o
4 4 2 94.79 78.34 13.53 o
6 4 2 102.22 115.92 23.18 o
8 4 2 28.80 32.44 10.62 o
-7 5 2 809.01 759.67 22.73 o
-5 5 2 3023.30 2976.08 53.25 o
-3 5 2 6223.35 5601.70 40.53 o
-1 5 2 10615.64 9432.81 39.31 o
1 5 2 9877.32 8517.30 43.95 o
3 5 2 6765.35 6339.40 45.91 o
5 5 2 2789.28 2664.93 45.63 o
7 5 2 897.90 942.98 24.99 o
-8 6 2 33.79 48.14 22.70 o
-6 6 2 44.38 33.53 12.04 o
-4 6 2 112.56 114.42 8.47 o
-2 6 2 44.08 34.85 12.61 o
0 6 2 172.50 138.72 14.91 o
2 6 2 51.29 53.70 14.30 o
4 6 2 102.21 95.22 16.98 o
6 6 2 53.56 45.09 12.27 o
8 6 2 28.01 54.38 12.08 o
-5 7 2 817.06 847.63 25.00 o
-3 7 2 2061.55 1971.39 35.24 o
-1 7 2 2789.02 2495.71 38.47 o
1 7 2 3054.71 2777.17 40.21 o
3 7 2 1880.65 1727.23 27.92 o
5 7 2 909.99 957.36 20.54 o
7 7 2 341.37 277.79 17.60 o
-6 8 2 33.79 -4.24 18.51 <
-4 8 2 23.30 20.19 10.05 o
-2 8 2 55.97 41.60 6.85 o
0 8 2 16.34 41.93 7.47 o
2 8 2 52.72 34.22 5.69 o
4 8 2 28.80 59.98 10.00 o
6 8 2 28.01 -15.88 12.66 <
-1 9 2 683.19 739.47 21.27 o
1 9 2 614.03 638.83 29.06 o
3 9 2 462.97 531.83 26.72 o
0 10 2 20.01 60.97 19.73 o
0 1 3 769.07 865.85 4.35 o
-1 2 3 354.31 388.72 4.06 o
1 2 3 396.97 437.26 4.01 o
-2 3 3 755.19 785.73 7.17 o
0 3 3 26.05 33.19 2.90 o
2 3 3 730.61 743.29 7.64 o
-3 4 3 180.44 169.47 7.15 o
-1 4 3 582.74 593.41 8.32 o
1 4 3 533.69 587.68 7.43 o
3 4 3 216.70 218.45 9.60 o
-4 5 3 338.16 338.59 14.49 o
-2 5 3 28.56 31.65 5.58 o
0 5 3 573.85 570.71 8.52 o
2 5 3 43.71 38.49 6.09 o
4 5 3 317.74 314.06 13.91 o
-5 6 3 68.93 79.56 25.04 o
-3 6 3 294.40 315.06 14.35 o
-1 6 3 257.61 302.71 12.30 o
1 6 3 293.75 336.51 12.10 o
3 6 3 266.78 257.30 12.41 o
5 6 3 86.26 70.22 19.19 o
-6 7 3 79.24 35.14 14.03 o
-4 7 3 21.49 -4.95 14.20 <
-2 7 3 237.66 238.16 16.30 o
0 7 3 6.54 11.06 9.98 <
2 7 3 231.05 219.40 12.18 o
4 7 3 31.44 48.85 6.02 o
6 7 3 70.31 70.81 10.66 o
-5 8 3 73.56 49.63 11.94 o
-3 8 3 76.60 64.81 6.49 o
-1 8 3 149.99 148.07 5.10 o
1 8 3 130.20 140.96 4.64 o
3 8 3 92.34 85.62 6.44 o
5 8 3 63.31 38.87 11.46 o
-4 9 3 51.64 54.37 9.61 o
-2 9 3 2.61 2.51 7.48 <
0 9 3 98.51 96.14 6.11 o
2 9 3 5.10 17.35 8.98 <
4 9 3 47.71 71.17 11.50 o
-1 10 3 36.70 56.26 17.92 o
1 10 3 44.76 55.73 16.50 o
0 0 4 651.80 619.14 5.04 o
4 0 4 44.99 59.58 6.43 o
6 0 4 9556.08 9366.52 48.88 o
8 0 4 85.59 64.89 5.85 o
-9 1 4 27.47 44.82 6.25 o
-7 1 4 57.81 52.48 18.81 o
-5 1 4 224.75 227.12 10.19 o
-3 1 4 405.42 407.70 8.46 o
-1 1 4 765.61 746.88 7.13 o
1 1 4 826.45 810.33 6.10 o
3 1 4 366.24 394.87 8.29 o
5 1 4 244.20 245.12 11.47 o
7 1 4 49.03 45.41 13.74 o
9 1 4 31.21 40.84 10.37 o
-8 2 4 1908.65 2029.92 21.20 o
-6 2 4 53.42 66.60 13.50 o
-4 2 4 18471.91 19538.54 62.61 o
2 2 4 136.51 134.73 4.71 o
4 2 4 19205.12 19189.08 45.87 o
6 2 4 40.84 46.51 13.15 o
8 2 4 1916.40 2027.72 25.09 o
-9 3 4 6.89 41.37 10.46 o
-7 3 4 99.11 79.74 29.46 o
-5 3 4 62.67 90.83 18.17 o
-3 3 4 406.37 386.88 9.37 o
-1 3 4 404.40 403.29 7.32 o
1 3 4 366.00 361.34 8.65 o
3 3 4 433.36 422.62 10.53 o
5 3 4 49.49 90.69 19.61 o
7 3 4 104.80 94.74 8.75 o
9 3 4 4.66 -17.12 11.80 <
-8 4 4 74.31 56.02 17.03 o
-6 4 4 4118.02 4090.30 51.32 o
-4 4 4 46.98 33.38 12.67 o
-2 4 4 18782.52 18581.62 48.10 o
0 4 4 47.01 50.67 5.99 o
2 4 4 18794.99 19330.28 53.91 o
4 4 4 24.74 20.29 12.46 <
6 4 4 4138.08 4348.06 51.90 o
8 4 4 67.79 39.41 12.18 o
-7 5 4 3.26 3.73 16.67 <
-5 5 4 167.07 142.81 25.02 o
-3 5 4 62.67 51.89 10.12 o
-1 5 4 224.64 207.77 12.62 o
1 5 4 244.08 227.02 10.88 o
3 5 4 49.49 52.63 11.15 o
5 5 4 173.44 162.57 17.61 o
7 5 4 1.13 18.10 12.28 <
-6 6 4 81.26 82.51 13.36 o
-4 6 4 4147.38 4235.80 50.67 o
-2 6 4 51.46 54.51 10.50 o
0 6 4 9711.45 8744.68 50.11 o
2 6 4 40.50 21.26 11.01 <
4 6 4 4172.21 4212.38 47.85 o
6 6 4 71.37 86.47 10.37 o
-7 7 4 68.05 36.11 27.20 <
-5 7 4 3.26 2.56 21.61 <
-3 7 4 99.10 114.19 8.26 o
-1 7 4 57.80 13.00 16.99 <
1 7 4 49.02 37.32 18.11 o
3 7 4 104.80 81.61 20.05 o
5 7 4 1.13 -16.84 12.87 <
-4 8 4 73.82 113.53 10.41 o
-2 8 4 1970.41 1905.13 21.46 o
0 8 4 86.15 101.31 7.10 o
2 8 4 1977.09 1896.47 23.50 o
4 8 4 68.61 35.08 10.55 o
-3 9 4 6.89 -10.97 9.03 <
-1 9 4 27.47 -4.91 10.35 <
1 9 4 31.21 37.35 12.61 o
3 9 4 4.66 32.52 16.56 <
0 1 5 674.82 740.52 3.73 o
-1 2 5 208.19 206.07 3.68 o
1 2 5 184.31 183.28 3.42 o
-2 3 5 735.63 795.93 7.92 o
0 3 5 1.79 6.03 3.92 <
2 3 5 754.21 809.36 9.36 o
-3 4 5 65.96 71.71 6.89 o
-1 4 5 350.96 361.16 7.03 o
1 4 5 378.50 391.72 7.62 o
3 4 5 47.18 51.48 5.70 o
-4 5 5 343.18 346.00 15.70 o
-2 5 5 37.21 64.08 7.91 o
0 5 5 690.55 731.48 10.60 o
2 5 5 29.86 36.06 8.42 o
4 5 5 351.93 383.57 15.22 o
-5 6 5 12.45 27.25 7.88 o
-3 6 5 190.66 203.51 15.44 o
-1 6 5 116.80 126.74 10.66 o
1 6 5 97.60 125.09 10.70 o
3 6 5 203.71 186.37 13.14 o
5 6 5 7.20 54.09 17.90 o
-6 7 5 95.68 58.02 15.77 o
-4 7 5 15.41 25.53 6.29 o
-2 7 5 300.56 317.16 16.93 o
0 7 5 32.15 52.27 13.53 o
2 7 5 302.86 337.16 12.35 o
4 7 5 13.37 22.60 5.21 o
6 7 5 95.98 81.08 7.69 o
-3 8 5 19.09 31.17 7.95 o
-1 8 5 62.22 60.10 5.14 o
1 8 5 72.19 83.04 4.94 o
3 8 5 12.80 16.68 7.42 o
5 8 5 57.75 40.02 7.70 o
-4 9 5 76.72 51.47 11.21 o
-2 9 5 10.92 15.57 6.56 o
0 9 5 129.51 147.55 10.78 o
2 9 5 10.74 26.72 9.01 o
4 9 5 76.33 49.45 8.28 o
0 0 6 1625.41 1558.01 9.97 o
2 0 6 15.50 16.60 3.67 o
4 0 6 673.45 657.99 12.37 o
6 0 6 0.80 -15.13 14.70 <
8 0 6 89.80 69.36 6.39 o
-9 1 6 400.94 430.39 13.45 o
-7 1 6 2029.41 2070.18 20.53 o
-5 1 6 6286.01 5882.64 42.43 o
-3 1 6 15183.08 14764.74 42.46 o
-1 1 6 17117.30 17296.85 32.75 o
1 1 6 17977.06 18875.78 33.40 o
3 1 6 14537.29 13669.21 44.51 o
5 1 6 6802.38 6661.84 37.34 o
7 1 6 1857.77 1845.52 15.88 o
9 1 6 447.62 525.63 17.40 o
-8 2 6 3.30 9.54 6.94 <
-6 2 6 218.76 230.60 18.84 o
-4 2 6 10.09 12.79 7.21 <
-2 2 6 1035.00 1022.73 12.43 o
0 2 6 15.50 24.96 3.96 o
2 2 6 1034.70 1061.62 12.65 o
4 2 6 18.29 17.90 9.24 <
6 2 6 213.25 210.39 16.59 o
8 2 6 6.17 -16.40 8.57 <
-9 3 6 352.58 350.96 15.82 o
-7 3 6 1096.67 1170.10 18.57 o
-5 3 6 4659.62 4550.54 41.22 o
-3 3 6 9440.82 8457.43 36.52 o
-1 3 6 15042.78 14893.63 49.45 o
1 3 6 14394.77 13222.93 44.23 o
3 3 6 10364.59 9746.83 41.92 o
5 3 6 4332.94 3960.55 43.43 o
7 3 6 1220.96 1358.22 21.00 o
9 3 6 317.84 296.67 12.59 o
-8 4 6 47.72 -5.67 15.29 <
-6 4 6 22.50 37.62 28.95 <
-4 4 6 307.20 304.05 16.34 o
-2 4 6 10.09 17.66 7.08 o
0 4 6 672.90 650.20 14.36 o
2 4 6 18.29 21.65 9.24 o
4 4 6 296.98 335.22 14.71 o
6 4 6 31.11 44.65 21.18 o
8 4 6 42.62 59.16 9.25 o
-7 5 6 718.79 709.97 33.17 o
-5 5 6 1569.32 1595.54 43.88 o
-3 5 6 4701.36 4494.73 36.98 o
-1 5 6 6374.88 5670.11 32.95 o
1 5 6 6912.26 6410.37 35.49 o
3 5 6 4364.53 3944.99 44.44 o
5 5 6 1748.06 1902.77 30.59 o
7 5 6 653.56 626.80 16.53 o
-6 6 6 68.32 55.56 19.95 o
-2 6 6 218.68 230.77 19.84 o
0 6 6 0.80 14.95 10.34 <
2 6 6 213.17 252.82 18.57 o
4 6 6 31.11 35.46 17.81 <
6 6 6 60.10 66.58 8.76 o
-5 7 6 722.64 765.95 40.57 o
-3 7 6 1129.20 1140.34 20.85 o
-1 7 6 2093.51 1969.81 33.48 o
1 7 6 1905.89 1782.55 24.86 o
3 7 6 1263.71 1347.39 19.97 o
5 7 6 655.86 647.20 15.88 o
-4 8 6 47.72 78.15 13.78 o
-2 8 6 3.30 20.23 6.33 o
0 8 6 89.77 55.59 8.45 o
2 8 6 6.17 -15.25 8.31 <
4 8 6 42.63 50.25 16.92 o
-3 9 6 362.09 354.01 21.88 o
-1 9 6 418.16 420.37 25.06 o
1 9 6 471.80 586.87 26.47 o
3 9 6 323.21 331.98 23.34 o
0 1 7 180.24 200.22 3.04 o
-1 2 7 418.61 421.37 6.51 o
1 2 7 389.23 420.30 6.45 o
-2 3 7 89.29 95.41 5.64 o
0 3 7 413.42 397.67 6.59 o
2 3 7 110.49 110.33 5.82 o
-3 4 7 311.03 319.36 9.70 o
-1 4 7 276.45 303.50 7.64 o
1 4 7 313.31 339.54 7.99 o
3 4 7 284.32 307.60 7.82 o
-4 5 7 65.46 57.30 14.88 o
-2 5 7 241.81 250.42 10.26 o
0 5 7 5.36 18.45 6.94 o
2 5 7 230.51 238.65 9.45 o
4 5 7 81.34 64.52 8.19 o
-5 6 7 87.10 114.84 9.41 o
-3 6 7 127.84 152.43 17.61 o
-1 6 7 239.98 260.93 13.51 o
1 6 7 212.76 265.04 12.95 o
3 6 7 149.06 147.21 11.68 o
5 6 7 73.92 98.80 5.75 o
-6 7 7 41.92 -14.65 14.92 <
-4 7 7 59.07 90.52 7.93 o
-2 7 7 8.14 7.79 15.27 <
0 7 7 121.44 137.32 9.81 o
2 7 7 13.26 11.54 5.27 o
-5 8 7 51.14 -6.20 19.13 <
-3 8 7 72.26 82.85 8.62 o
-1 8 7 86.87 98.55 6.02 o
1 8 7 101.62 121.21 7.01 o
3 8 7 60.54 65.43 7.17 o
5 8 7 59.03 39.79 6.57 o
-2 9 7 31.42 50.22 8.57 o
0 9 7 0.92 22.25 9.54 o
2 9 7 29.58 34.99 9.29 o
0 0 8 22795.69 24796.59 59.87 o
2 0 8 45.53 54.44 5.92 o
4 0 8 14266.22 14029.01 47.03 o
6 0 8 73.84 36.86 15.79 o
8 0 8 1333.72 1345.43 20.98 o
-7 1 8 78.39 78.32 14.66 o
-5 1 8 194.14 225.90 17.46 o
-3 1 8 479.25 474.23 10.32 o
-1 1 8 755.84 724.59 9.10 o
1 1 8 692.10 641.54 8.43 o
3 1 8 523.17 521.01 10.66 o
5 1 8 170.58 144.60 12.70 o
7 1 8 89.26 104.77 6.41 o
9 1 8 16.26 17.90 11.66 <
-8 2 8 74.08 115.07 12.21 o
-6 2 8 4165.88 4476.67 37.91 o
-4 2 8 46.62 42.78 10.76 o
-2 2 8 19782.03 19689.79 52.48 o
0 2 8 47.09 38.56 5.32 o
2 2 8 20140.67 20429.73 59.49 o
4 2 8 24.96 6.98 10.18 <
6 2 8 4199.71 4196.47 43.89 o
8 2 8 67.75 45.96 12.65 o
-7 3 8 26.67 13.46 10.23 <
-5 3 8 186.55 193.74 18.33 o
-3 3 8 256.46 266.38 10.17 o
-1 3 8 479.53 509.57 15.07 o
1 3 8 523.17 524.14 13.33 o
3 3 8 225.68 271.80 11.57 o
5 3 8 203.29 218.53 18.12 o
7 3 8 19.60 22.03 7.15 o
-8 4 8 667.47 687.81 33.80 o
-6 4 8 74.43 14.51 44.19 <
-4 4 8 6187.89 6296.03 49.84 o
-2 4 8 44.90 35.75 10.97 o
0 4 8 14257.49 13890.36 48.87 o
2 4 8 24.55 57.06 10.25 o
4 4 8 6244.44 6186.57 40.60 o
6 4 8 57.36 62.43 7.28 o
8 4 8 675.80 752.40 17.94 o
-7 5 8 72.34 47.16 20.97 o
-5 5 8 27.87 2.61 11.17 <
-3 5 8 186.59 136.01 14.97 o
-1 5 8 194.11 193.32 13.87 o
1 5 8 170.49 163.17 12.87 o
3 5 8 203.26 227.72 12.19 o
5 5 8 19.78 10.76 6.43 <
7 5 8 74.90 66.21 9.83 o
-6 6 8 932.22 867.69 40.11 o
-2 6 8 4263.06 4225.08 48.61 o
0 6 8 71.01 47.35 12.31 o
2 6 8 4305.58 4132.99 39.84 o
4 6 8 56.13 73.47 7.14 o
6 6 8 946.43 1015.20 19.51 o
-5 7 8 72.32 29.88 22.64 <
-3 7 8 26.67 18.43 9.19 o
-1 7 8 78.37 86.80 6.23 o
1 7 8 89.25 84.87 6.57 o
3 7 8 19.60 17.33 5.25 o
-4 8 8 689.88 659.77 18.63 o
-2 8 8 71.15 61.44 18.00 o
0 8 8 1397.49 1407.66 22.32 o
2 8 8 66.60 52.52 14.33 o
4 8 8 696.53 624.00 19.46 o
-1 9 8 20.58 30.85 17.90 <
1 9 8 16.26 -8.60 12.35 <
0 1 9 69.32 88.27 5.45 o
-1 2 9 282.39 280.99 7.84 o
1 2 9 292.57 289.33 6.25 o
-2 3 9 13.34 22.44 7.03 o
0 3 9 514.69 534.33 8.01 o
2 3 9 6.41 1.22 6.17 <
-3 4 9 249.07 249.97 12.16 o
-1 4 9 73.56 51.72 7.40 o
1 4 9 61.28 45.07 7.89 o
3 4 9 256.84 250.87 10.51 o
-4 5 9 8.78 13.59 10.27 <
-2 5 9 348.97 338.53 13.14 o
0 5 9 23.09 8.36 8.73 <
2 5 9 352.00 386.16 11.76 o
4 5 9 6.92 14.61 8.16 <
-5 6 9 96.13 72.17 10.02 o
-3 6 9 8.75 15.98 5.62 o
-1 6 9 80.72 80.85 10.96 o
1 6 9 88.82 99.68 11.40 o
3 6 9 4.63 0.80 4.01 <
5 6 9 95.35 95.66 5.63 o
-4 7 9 118.67 135.56 11.15 o
-2 7 9 14.53 9.63 6.40 <
0 7 9 213.48 255.62 7.70 o
2 7 9 14.62 32.88 4.66 o
4 7 9 117.10 115.36 6.49 o
-3 8 9 35.26 53.80 12.19 o
-1 8 9 17.37 5.95 9.03 <
1 8 9 13.75 5.41 8.50 <
3 8 9 36.19 21.69 11.78 <
0 9 9 6.73 36.19 11.08 o
0 0 10 167.63 220.09 18.99 o
2 0 10 979.40 946.16 16.72 o
4 0 10 54.17 45.87 9.76 o
6 0 10 218.96 205.67 13.17 o
8 0 10 1.87 0.99 8.18 <
-7 1 10 812.65 886.09 13.92 o
-5 1 10 3073.77 3023.75 37.26 o
-3 1 10 6459.36 5954.23 49.39 o
-1 1 10 11029.73 9882.82 52.37 o
3 1 10 6950.09 6632.73 28.38 o
5 1 10 2824.21 2725.28 34.79 o
7 1 10 906.09 1033.15 34.15 o
-8 2 10 58.64 62.68 11.04 o
-6 2 10 9.89 26.49 5.76 o
-4 2 10 444.03 456.96 12.19 o
-2 2 10 95.00 93.03 9.93 o
0 2 10 980.47 972.28 17.08 o
2 2 10 98.31 97.59 8.04 o
4 2 10 440.33 455.49 15.51 o
6 2 10 13.23 16.49 7.74 o
8 2 10 56.67 37.45 11.80 o
-7 3 10 721.77 708.88 28.97 o
-5 3 10 1580.31 1667.11 16.89 o
-3 3 10 4749.17 4420.30 35.15 o
-1 3 10 6506.17 5859.45 41.39 o
1 3 10 7020.55 6745.97 33.46 o
3 3 10 4401.07 4005.39 32.36 o
5 3 10 1759.82 1959.88 18.91 o
7 3 10 653.81 668.26 15.75 o
-6 4 10 103.65 107.05 20.20 o
-4 4 10 20.43 14.71 20.44 <
-2 4 10 444.03 455.94 18.20 o
0 4 10 54.16 24.49 10.52 o
2 4 10 440.15 468.74 13.22 o
4 4 10 26.52 36.72 19.03 <
6 4 10 98.20 116.47 8.52 o
-7 5 10 251.17 195.18 23.86 o
-5 5 10 1017.55 975.70 39.22 o
-3 5 10 1613.53 1694.51 31.05 o
-1 5 10 3145.61 2984.58 31.41 o
1 5 10 2878.89 2704.33 26.97 o
3 5 10 1800.91 1942.01 26.99 o
5 5 10 924.83 957.65 15.43 o
7 5 10 292.81 343.43 14.07 o
-6 6 10 21.06 12.61 15.30 <
-4 6 10 103.65 149.86 15.74 o
-2 6 10 9.89 -7.00 6.73 <
0 6 10 218.88 193.43 15.18 o
2 6 10 13.23 13.45 14.79 <
4 6 10 98.20 104.24 7.69 o
6 6 10 26.96 10.12 9.68 <
-5 7 10 258.96 233.29 31.29 o
-3 7 10 740.36 861.52 30.56 o
-1 7 10 847.75 866.21 17.66 o
1 7 10 954.00 1012.66 19.50 o
3 7 10 664.24 625.92 17.68 o
5 7 10 303.61 324.91 16.38 o
-2 8 10 58.64 65.53 17.91 o
0 8 10 1.87 -15.16 18.56 <
2 8 10 56.68 55.61 12.64 o
0 1 11 151.40 129.98 8.30 o
-1 2 11 112.67 105.80 9.94 o
1 2 11 129.51 125.72 7.92 o
0 3 11 21.81 40.49 7.65 o
2 3 11 168.55 158.98 8.38 o
-3 4 11 88.81 93.25 12.42 o
-1 4 11 197.85 156.79 10.50 o
1 4 11 176.35 168.17 9.14 o
3 4 11 105.34 121.52 11.86 o
-4 5 11 78.61 51.41 10.56 o
-2 5 11 20.82 22.40 12.49 <
0 5 11 112.96 98.84 10.27 o
2 5 11 28.15 49.86 7.47 o
4 5 11 68.67 62.28 4.63 o
-5 6 11 51.04 40.04 15.25 o
-3 6 11 90.29 89.57 8.09 o
-1 6 11 102.68 111.92 5.64 o
1 6 11 118.65 149.70 6.25 o
3 6 11 77.74 89.49 5.33 o
5 6 11 59.11 54.49 6.84 o
-4 7 11 24.47 21.34 18.07 <
-2 7 11 41.04 22.49 8.90 o
0 7 11 3.41 0.19 7.26 <
2 7 11 37.70 39.02 8.20 o
4 7 11 29.35 15.60 8.13 <
-3 8 11 40.73 7.08 12.86 <
-1 8 11 51.00 49.42 12.22 o
1 8 11 42.81 66.28 8.49 o
3 8 11 47.38 48.42 10.85 o
0 0 12 23.49 69.37 35.61 <
2 0 12 9995.01 9447.85 66.58 o
4 0 12 74.58 112.63 13.32 o
6 0 12 1981.67 2170.21 26.16 o
8 0 12 54.70 74.46 14.13 o
-7 1 12 50.40 22.61 9.54 o
-5 1 12 147.01 158.19 10.77 o
-3 1 12 318.48 305.37 18.29 o
-1 1 12 455.92 379.26 28.33 o
1 1 12 494.16 471.75 22.89 o
3 1 12 289.51 265.57 11.54 o
5 1 12 164.08 157.48 10.46 o
7 1 12 42.38 53.98 9.27 o
-6 2 12 80.65 112.56 10.18 o
-4 2 12 4248.65 4516.03 40.31 o
-2 2 12 51.02 72.93 13.64 o
0 2 12 10049.58 9133.25 66.06 o
2 2 12 40.76 45.50 13.60 o
4 2 12 4265.78 4311.91 33.24 o
6 2 12 71.53 97.91 13.71 o
-5 3 12 85.16 83.65 8.44 o
-3 3 12 224.71 263.98 27.61 o
-1 3 12 318.39 307.92 18.34 o
1 3 12 289.43 288.41 18.60 o
3 3 12 246.72 244.98 11.76 o
5 3 12 72.48 107.07 9.21 o
7 3 12 52.27 70.82 12.95 o
-4 4 12 70.79 102.64 9.13 o
-2 4 12 4314.45 4166.49 51.92 o
0 4 12 71.02 110.84 23.67 o
2 4 12 4326.52 4303.43 38.07 o
4 4 12 56.41 64.50 9.03 o
6 4 12 949.41 1055.73 19.89 o
-3 5 12 85.14 51.35 11.09 o
-1 5 12 146.97 134.92 18.79 o
1 5 12 164.04 128.88 15.09 o
3 5 12 72.48 47.48 8.54 o
5 5 12 77.49 76.77 9.59 o
-2 6 12 76.35 70.87 11.62 o
0 6 12 2070.04 2120.30 26.38 o
2 6 12 69.06 84.26 7.86 o
4 6 12 972.85 1027.51 22.26 o
-3 7 12 46.71 55.84 15.77 o
-1 7 12 50.39 29.94 17.33 <
1 7 12 42.38 46.80 13.37 o
3 7 12 52.27 47.05 9.50 o
0 8 12 52.60 36.09 16.96 o
0 1 13 131.18 120.41 16.40 o
-1 2 13 28.94 18.80 13.44 <
1 2 13 23.69 34.23 14.18 o
-2 3 13 193.20 183.30 12.56 o
0 3 13 2.42 -39.37 18.57 <
2 3 13 197.04 175.06 9.50 o
-3 4 13 9.86 3.64 19.72 <
-1 4 13 78.90 71.11 13.43 o
1 4 13 85.27 66.41 9.62 o
3 4 13 5.53 2.51 5.12 <
-2 5 13 12.28 14.49 5.69 o
0 5 13 190.40 194.76 7.93 o
2 5 13 10.48 16.54 6.50 o
4 5 13 104.91 104.53 6.88 o
-3 6 13 54.91 58.68 13.58 o
1 6 13 14.10 -3.53 5.65 <
3 6 13 57.14 38.46 6.34 o
5 6 13 2.90 -15.52 8.24 <
-2 7 13 84.26 92.98 18.15 o
0 7 13 8.71 39.51 7.90 o
2 7 13 84.44 81.60 8.76 o
0 0 14 553.72 502.59 27.11 o
2 0 14 100.05 114.54 13.37 o
4 0 14 277.56 261.74 14.36 o
6 0 14 17.32 29.95 9.49 o
-7 1 14 381.76 297.95 20.87 o
-5 1 14 822.03 925.79 22.19 o
-3 1 14 2080.79 2278.17 34.14 o
-1 1 14 2826.83 2667.35 38.07 o
1 1 14 3096.20 3055.55 30.02 o
3 1 14 1893.98 1828.08 23.45 o
5 1 14 918.95 1071.31 20.31 o
7 1 14 340.86 323.01 12.84 o
-4 2 14 41.40 57.67 11.66 o
-2 2 14 391.44 404.18 17.87 o
0 2 14 100.07 115.68 10.29 o
2 2 14 390.52 381.35 13.38 o
4 2 14 42.84 44.26 7.03 o
6 2 14 102.07 91.20 9.51 o
-5 3 14 727.16 870.75 28.05 o
-3 3 14 1135.25 1209.92 24.49 o
-1 3 14 2107.61 2133.81 26.72 o
1 3 14 1914.85 1899.21 24.85 o
3 3 14 1271.92 1349.70 18.59 o
5 3 14 654.97 715.24 18.30 o
-4 4 14 142.78 105.79 16.42 o
-2 4 14 41.40 35.24 7.95 o
0 4 14 277.37 300.33 12.21 o
2 4 14 42.84 21.73 8.67 o
4 4 14 140.68 140.94 9.61 o
6 4 14 10.51 6.08 8.38 <
-3 5 14 739.68 745.52 28.28 o
-1 5 14 849.17 932.83 18.75 o
1 5 14 956.39 1039.35 20.84 o
3 5 14 663.20 670.86 17.15 o
5 5 14 304.68 289.69 12.01 o
-2 6 14 103.28 114.07 16.02 o
0 6 14 17.32 6.70 8.83 <
2 6 14 102.09 91.23 8.77 o
4 6 14 10.51 -12.86 14.23 <
-1 7 14 402.77 336.97 25.80 o
1 7 14 353.59 321.04 17.37 o
0 1 15 21.38 2.69 8.82 <
-1 2 15 73.34 75.10 9.30 o
-2 3 15 17.24 33.28 8.36 o
2 3 15 23.32 49.07 6.25 o
-1 4 15 54.23 72.62 7.08 o
1 4 15 64.14 44.89 7.54 o
3 4 15 66.98 41.17 7.04 o
0 5 15 0.72 2.76 6.95 <
4 5 15 22.85 47.55 7.03 o
-1 6 15 52.91 25.19 8.85 o
1 6 15 45.71 24.17 8.62 o
3 6 15 33.75 32.45 7.46 o
0 0 16 3005.61 2778.93 57.57 o
2 0 16 87.87 78.00 14.96 o
4 0 16 1363.59 1501.29 30.37 o
6 0 16 55.51 52.63 11.71 o
-5 1 16 73.10 50.11 10.01 o
-3 1 16 127.63 124.35 14.74 o
-1 1 16 189.72 230.16 17.32 o
1 1 16 172.75 191.66 16.24 o
3 1 16 141.26 143.30 14.31 o
5 1 16 64.52 68.06 13.75 o
-4 2 16 73.26 89.87 12.84 o
-2 2 16 1988.83 2090.70 35.57 o
0 2 16 86.23 68.22 13.57 o
2 2 16 1994.30 2003.86 26.52 o
4 2 16 68.82 78.79 14.40 o
-3 3 16 99.17 141.51 22.85 o
-1 3 16 127.61 147.75 15.36 o
1 3 16 141.26 144.64 11.24 o
3 3 16 88.33 133.82 15.39 o
5 3 16 60.39 100.45 14.73 o
-2 4 16 70.82 72.04 10.60 o
0 4 16 1403.46 1558.99 24.46 o
2 4 16 66.83 77.25 9.93 o
4 4 16 697.49 709.36 22.95 o
-1 5 16 73.10 77.48 10.12 o
1 5 16 64.51 44.63 8.97 o
3 5 16 60.39 99.72 12.65 o
0 6 16 52.60 5.44 24.15 <
0 1 17 5.55 -2.63 8.98 <
-1 2 17 37.06 31.88 9.73 o
1 2 17 39.82 24.98 10.05 o
-2 3 17 6.01 0.58 9.19 <
0 3 17 71.06 78.51 9.45 o
2 3 17 3.67 -13.20 9.56 <
-3 4 17 47.01 94.43 14.16 o
-1 4 17 14.71 -8.25 8.39 <
1 4 17 11.12 3.29 7.99 <
3 4 17 49.97 44.21 9.18 o
0 5 17 5.03 26.93 8.22 o
2 5 17 58.11 45.17 8.35 o
0 0 18 40.92 -6.82 20.03 <
2 0 18 142.41 158.72 15.03 o
4 0 18 23.32 31.77 13.06 o
-3 1 18 412.94 388.42 19.70 o
-1 1 18 686.30 685.41 24.83 o
1 1 18 614.03 538.23 22.21 o
3 1 18 465.12 504.38 20.10 o
-4 2 18 84.98 104.53 13.50 o
-2 2 18 31.42 80.14 14.26 o
0 2 18 142.39 132.56 16.72 o
2 2 18 31.53 27.26 12.97 o
4 2 18 84.86 106.67 13.73 o
-3 3 18 362.92 318.29 16.86 o
-1 3 18 417.88 463.96 20.38 o
1 3 18 473.06 502.51 21.16 o
3 3 18 322.11 336.25 18.58 o
0 4 18 23.32 -0.92 13.39 <
2 4 18 84.87 69.27 12.89 o
0 1 19 15.33 14.38 8.89 <
-1 2 19 8.27 -8.78 10.21 <
1 2 19 10.75 12.99 9.22 <
-2 3 19 28.53 8.06 12.07 <
0 3 19 0.20 3.36 11.24 <
2 3 19 26.51 37.49 10.64 o
0 0 20 81.79 59.36 17.85 o
-1 1 20 42.21 63.15 14.50 o
1 1 20 47.41 70.88 13.05 o
3 1 0 516.99 515.26 7.88 o
5 1 0 116.54 128.57 9.13 o
7 1 0 89.48 117.60 12.53 o
9 1 0 17.66 21.71 10.32 o
1 3 0 516.99 522.83 4.43 o
3 3 0 111.90 117.30 6.71 o
5 3 0 268.44 273.84 10.06 o
7 3 0 10.97 -37.69 19.99 <
9 3 0 38.41 29.41 17.96 <
1 5 0 116.54 99.20 9.55 o
3 5 0 268.44 271.98 11.16 o
5 5 0 3.93 22.13 12.53 <
7 5 0 108.61 95.89 9.90 o
1 7 0 89.49 89.14 11.95 o
3 7 0 10.97 17.67 9.06 <
5 7 0 108.69 117.67 10.04 o
7 7 0 1.70 -10.78 14.37 <
1 9 0 17.66 20.16 12.53 <
3 9 0 38.41 2.90 14.06 <
2 0 2 1078.50 1098.27 7.67 o
4 0 2 104.51 107.36 4.93 o
6 0 2 191.36 172.80 15.99 o
8 0 2 18.12 -1.13 6.01 <
10 0 2 22.20 35.04 19.15 <
-8 2 2 62.67 62.88 7.79 o
-6 2 2 47.56 59.48 11.00 o
-4 2 2 425.55 450.26 9.44 o
-2 2 2 176.26 182.82 5.04 o
0 2 2 1068.88 1097.26 6.91 o
2 2 2 192.52 191.28 4.96 o
4 2 2 408.94 424.92 8.93 o
6 2 2 58.20 79.50 14.37 o
8 2 2 57.88 61.09 6.76 o
-8 4 2 24.83 48.31 11.32 o
-6 4 2 126.77 155.43 17.13 o
-4 4 2 86.89 105.42 11.59 o
-2 4 2 426.40 423.65 9.61 o
0 4 2 104.49 88.11 4.76 o
2 4 2 409.35 454.12 10.44 o
4 4 2 107.72 88.56 10.02 o
6 4 2 111.49 119.52 13.35 o
8 4 2 32.96 53.53 9.19 o
-8 6 2 38.55 56.48 19.49 o
-6 6 2 47.54 29.95 8.33 o
-4 6 2 126.78 73.77 19.48 o
-2 6 2 47.56 73.90 17.50 o
0 6 2 191.36 198.30 26.01 o
2 6 2 58.21 45.79 17.59 o
4 6 2 111.47 155.49 18.54 o
6 6 2 61.11 63.20 7.08 o
8 6 2 30.01 -31.41 16.64 <
-6 8 2 38.55 34.06 15.70 o
-4 8 2 24.84 8.76 8.87 <
0 8 2 18.12 45.76 12.49 o
2 8 2 57.89 40.70 8.78 o
4 8 2 32.96 36.22 9.52 o
6 8 2 30.00 49.94 11.57 o
0 10 2 22.20 19.26 13.15 <
-9 1 4 29.78 18.18 9.54 <
-7 1 4 65.73 58.33 23.77 o
-5 1 4 245.55 250.43 9.86 o
-3 1 4 456.19 473.94 7.95 o
-1 1 4 842.93 853.34 7.16 o
1 1 4 930.76 948.41 6.82 o
3 1 4 399.12 398.13 8.98 o
5 1 4 274.27 271.81 10.94 o
7 1 4 52.76 39.16 18.33 o
9 1 4 35.31 72.89 16.94 o
-9 3 4 8.05 10.46 16.47 <
-7 3 4 108.86 112.55 21.93 o
-5 3 4 71.94 75.03 9.80 o
-3 3 4 446.02 463.60 10.31 o
-1 3 4 456.77 474.88 7.08 o
1 3 4 398.86 415.41 7.62 o
3 3 4 485.38 494.23 12.07 o
5 3 4 52.46 78.75 11.81 o
7 3 4 117.28 141.96 22.57 o
9 3 4 4.76 -26.14 16.68 <
-7 5 4 4.01 45.44 11.93 o
-5 5 4 184.26 154.30 19.88 o
-3 5 4 71.94 58.69 9.99 o
-1 5 4 245.73 226.42 14.85 o
1 5 4 274.27 275.52 10.02 o
3 5 4 52.47 47.60 10.56 o
5 5 4 193.55 219.91 17.38 o
7 5 4 0.86 -3.61 7.28 <
-5 7 4 4.01 2.95 7.25 <
-3 7 4 108.89 158.98 13.73 o
-1 7 4 65.73 58.96 12.31 o
1 7 4 52.76 35.59 9.07 o
3 7 4 117.30 112.90 10.62 o
5 7 4 0.86 8.62 9.49 <
7 7 4 75.70 102.35 16.91 o
-3 9 4 8.05 33.45 14.49 o
-1 9 4 29.78 26.62 13.53 <
1 9 4 35.30 50.19 15.56 o
3 9 4 4.76 25.99 12.56 o
0 0 6 1823.12 1866.74 16.86 o
2 0 6 17.20 17.35 3.00 o
4 0 6 746.96 738.58 15.03 o
6 0 6 0.89 11.73 13.64 <
8 0 6 99.59 75.06 7.57 o
-8 2 6 3.14 3.62 6.79 <
-6 2 6 243.53 245.06 21.54 o
-4 2 6 9.68 11.01 8.21 <
-2 2 6 1149.16 1203.78 11.87 o
0 2 6 17.20 2.05 4.35 <
2 2 6 1146.45 1176.49 14.84 o
4 2 6 21.80 41.68 11.43 o
6 2 6 235.46 262.82 15.49 o
8 2 6 7.37 7.18 9.44 <
-8 4 6 53.89 56.11 14.11 o
-6 4 6 23.36 24.41 9.29 o
-4 4 6 342.77 368.71 13.55 o
-2 4 6 9.68 1.22 8.66 <
0 4 6 746.96 774.95 13.24 o
2 4 6 21.80 38.42 8.18 o
4 4 6 327.46 359.71 12.73 o
6 4 6 36.09 -14.97 22.01 <
8 4 6 46.34 47.58 12.70 o
-6 6 6 77.35 60.69 13.42 o
-4 6 6 23.37 -3.20 23.14 <
-2 6 6 243.71 251.15 16.24 o
0 6 6 0.89 -19.12 11.12 <
2 6 6 235.41 219.81 10.92 o
4 6 6 36.09 18.75 5.46 o
6 6 6 65.13 69.30 9.41 o
-4 8 6 53.88 73.48 11.59 o
-2 8 6 3.14 7.74 11.72 <
0 8 6 99.60 80.92 11.45 o
2 8 6 7.37 15.43 11.33 <
4 8 6 46.34 79.83 10.07 o
-9 1 8 23.62 33.94 13.68 o
-7 1 8 84.94 90.93 9.39 o
-5 1 8 219.56 172.33 17.74 o
-3 1 8 524.01 494.80 12.21 o
-1 1 8 850.30 830.96 11.67 o
1 1 8 758.26 778.33 10.73 o
3 1 8 588.85 546.40 14.11 o
5 1 8 184.77 250.09 21.80 o
7 1 8 100.98 78.02 9.02 o
9 1 8 17.24 7.63 11.22 <
-7 3 8 30.89 29.88 10.14 o
-5 3 8 203.92 230.42 18.96 o
-3 3 8 290.05 340.02 14.48 o
-1 3 8 523.70 507.55 12.01 o
1 3 8 588.51 577.53 12.91 o
3 3 8 244.64 241.53 10.62 o
5 3 8 228.40 266.37 15.59 o
7 3 8 20.43 41.30 8.39 o
-7 5 8 79.81 57.66 16.45 o
-5 5 8 32.40 20.28 10.76 <
-3 5 8 203.96 188.64 14.26 o
-1 5 8 219.74 225.05 15.77 o
1 5 8 184.80 208.86 12.61 o
3 5 8 228.48 228.35 18.91 o
5 5 8 20.45 7.21 14.08 <
7 5 8 83.56 84.11 11.90 o
-3 7 8 30.89 65.31 12.58 o
-1 7 8 84.96 123.04 13.27 o
1 7 8 100.99 107.51 11.56 o
3 7 8 20.43 46.50 7.77 o
5 7 8 83.54 95.55 9.80 o
-1 9 8 23.62 10.71 18.38 <
1 9 8 17.24 -11.17 11.18 <
0 0 10 186.03 174.51 10.88 o
2 0 10 1089.89 1121.95 17.84 o
4 0 10 60.09 65.61 17.57 o
6 0 10 242.64 198.90 13.36 o
8 0 10 2.08 16.75 13.75 <
-8 2 10 65.40 66.92 16.24 o
-6 2 10 10.35 14.98 11.04 <
-4 2 10 492.87 502.49 26.99 o
-2 2 10 104.75 107.79 12.31 o
0 2 10 1088.69 1102.83 16.22 o
2 2 10 109.67 131.24 10.57 o
4 2 10 487.04 444.96 23.74 o
6 2 10 15.30 57.52 30.99 <
8 2 10 62.51 25.25 12.17 o
-6 4 10 115.95 96.88 14.45 o
-4 4 10 21.53 25.98 20.40 <
-2 4 10 493.07 499.96 17.97 o
0 4 10 60.09 76.36 11.78 o
2 4 10 487.62 504.47 22.44 o
4 4 10 30.54 35.64 12.90 o
6 4 10 107.91 120.39 8.56 o
-2 6 10 10.35 0.67 8.29 <
0 6 10 242.86 262.77 11.27 o
2 6 10 15.30 16.91 7.40 o
4 6 10 107.92 126.31 9.95 o
6 6 10 30.99 6.08 7.05 <
-2 8 10 65.41 60.84 11.62 o
0 8 10 2.08 -37.55 11.38 <
2 8 10 62.50 41.04 12.78 o
-7 1 12 57.35 23.88 16.30 <
-5 1 12 159.80 184.03 37.50 o
-3 1 12 358.53 353.20 18.52 o
-1 1 12 499.46 517.67 19.09 o
1 1 12 556.04 581.11 16.63 o
3 1 12 315.82 368.62 22.09 o
5 1 12 185.08 220.66 31.74 o
7 1 12 45.53 58.59 11.85 o
-7 3 12 50.77 -35.49 24.93 <
-5 3 12 96.76 97.57 12.96 o
-3 3 12 245.13 230.31 29.79 o
-1 3 12 358.44 362.39 18.46 o
1 3 12 315.91 350.19 20.38 o
3 3 12 277.66 245.03 21.50 o
5 3 12 78.04 92.77 8.01 o
7 3 12 59.00 26.42 14.22 <
-5 5 12 77.14 22.22 17.44 <
-3 5 12 96.77 101.95 8.83 o
-1 5 12 159.90 168.18 7.84 o
1 5 12 185.15 184.15 7.35 o
3 5 12 78.05 85.34 6.76 o
-1 7 12 57.38 76.99 10.88 o
1 7 12 45.53 71.80 10.37 o
3 7 12 59.00 28.97 10.49 o
0 0 14 615.05 671.38 25.79 o
2 0 14 111.01 104.91 13.13 o
4 0 14 307.58 263.39 38.72 o
6 0 14 19.21 40.04 20.30 <
-6 2 14 114.70 50.91 21.79 o
-4 2 14 45.65 71.91 10.61 o
-2 2 14 434.36 520.38 27.65 o
0 2 14 111.01 120.62 17.20 o
2 2 14 432.96 471.62 21.58 o
4 2 14 47.78 42.34 8.46 o
6 2 14 113.00 122.27 11.82 o
-6 4 14 8.80 21.01 21.77 <
-4 4 14 158.79 158.76 14.78 o
-2 4 14 45.66 45.67 7.68 o
0 4 14 307.78 307.31 9.98 o
2 4 14 47.78 53.66 6.94 o
4 4 14 155.67 168.79 9.24 o
6 4 14 12.06 20.62 11.06 <
0 6 14 19.21 9.86 9.17 <
2 6 14 112.98 114.53 12.48 o
4 6 14 12.06 -9.33 12.37 <
-5 1 16 82.63 47.44 17.95 o
-3 1 16 139.04 149.48 13.61 o
-1 1 16 213.64 245.86 7.86 o
1 1 16 188.52 215.50 7.21 o
3 1 16 159.16 167.62 10.32 o
5 1 16 69.96 52.02 11.16 o
-5 3 16 58.10 34.14 21.04 <
-3 3 16 112.01 116.27 19.87 o
-1 3 16 139.09 146.80 8.02 o
1 3 16 159.16 150.24 10.30 o
3 3 16 95.95 82.78 11.96 o
5 3 16 68.24 67.83 9.84 o
-3 5 16 58.11 87.38 19.79 o
-1 5 16 82.66 83.32 10.05 o
1 5 16 69.97 58.54 13.59 o
3 5 16 68.23 69.76 12.08 o
0 0 18 45.39 69.75 8.65 o
2 0 18 157.93 163.83 9.95 o
4 0 18 25.87 48.96 10.42 o
-4 2 18 94.24 103.77 22.17 o
-2 2 18 34.83 50.01 8.18 o
0 2 18 157.95 155.35 9.42 o
2 2 18 34.99 21.02 11.13 <
4 2 18 94.08 77.32 12.80 o
-2 4 18 94.26 77.87 18.41 o
0 4 18 25.87 -0.58 16.32 <
2 4 18 94.08 83.89 12.94 o
1 1 20 53.53 48.15 10.69 o
3 1 0 468.70 457.08 4.60 o
5 1 0 105.56 98.85 9.47 o
7 1 0 81.05 90.80 13.87 o
9 1 0 15.99 -18.50 14.24 <
1 3 0 470.03 484.17 6.65 o
3 3 0 101.35 109.09 5.73 o
5 3 0 243.26 272.08 11.01 o
7 3 0 9.93 -21.66 9.07 <
9 3 0 34.79 75.96 13.34 o
1 5 0 105.60 92.06 7.77 o
3 5 0 243.26 281.38 12.15 o
5 5 0 3.56 -2.58 15.36 <
7 5 0 98.42 122.12 11.88 o
1 7 0 81.07 70.83 10.34 o
3 7 0 9.93 7.46 4.91 <
5 7 0 98.42 100.96 11.14 o
7 7 0 1.54 20.66 11.49 <
1 9 0 15.99 17.65 5.55 o
3 9 0 34.79 50.27 11.50 o
2 0 2 965.26 973.03 6.49 o
4 0 2 94.66 89.74 6.10 o
6 0 2 173.36 176.00 20.55 o
8 0 2 16.41 38.80 12.26 o
10 0 2 20.11 -15.53 11.96 <
-8 2 2 56.45 69.54 15.17 o
-6 2 2 43.78 65.54 24.98 o
-4 2 2 384.74 430.59 13.10 o
-2 2 2 160.81 161.98 4.70 o
0 2 2 979.78 996.08 6.69 o
2 2 2 173.45 172.58 4.33 o
4 2 2 371.67 392.41 8.32 o
6 2 2 52.02 46.34 19.64 o
-8 4 2 23.03 15.23 11.75 <
-6 4 2 113.85 138.58 22.00 o
-4 4 2 80.06 96.43 9.61 o
-2 4 2 384.74 403.96 9.97 o
0 4 2 94.68 97.03 5.22 o
2 4 2 371.85 422.23 8.95 o
4 4 2 96.22 91.44 9.92 o
6 4 2 101.98 81.10 13.03 o
8 4 2 29.32 19.75 13.00 <
-8 6 2 34.36 -8.96 18.11 <
-6 6 2 43.95 68.89 9.11 o
-4 6 2 113.83 139.70 17.43 o
-2 6 2 43.78 20.34 15.13 <
0 6 2 173.44 174.97 13.72 o
2 6 2 52.03 70.94 13.85 o
4 6 2 102.00 110.08 15.66 o
6 6 2 54.46 61.73 8.88 o
8 6 2 27.74 -8.92 13.39 <
-4 8 2 23.03 5.07 8.11 <
-2 8 2 56.46 45.98 6.00 o
0 8 2 16.41 8.73 4.81 <
2 8 2 52.74 51.44 5.83 o
4 8 2 29.32 45.94 12.12 o
6 8 2 27.74 19.61 10.86 <
0 10 2 20.11 24.77 10.09 o
-9 1 4 27.33 47.09 13.11 o
-7 1 4 58.69 54.41 11.67 o
-5 1 4 224.44 245.84 10.07 o
-3 1 4 409.21 414.47 8.68 o
-1 1 4 761.99 769.07 7.65 o
1 1 4 835.90 827.72 7.54 o
3 1 4 365.23 406.10 9.70 o
5 1 4 246.49 243.03 10.16 o
7 1 4 48.64 65.04 8.62 o
9 1 4 31.61 36.73 11.84 o
-9 3 4 7.08 12.11 13.61 <
-7 3 4 99.17 115.21 10.89 o
-5 3 4 63.89 63.69 11.21 o
-3 3 4 406.24 414.72 9.94 o
-1 3 4 410.25 401.80 6.81 o
1 3 4 365.23 381.22 5.97 o
3 3 4 437.15 444.01 10.86 o
5 3 4 48.80 42.40 10.61 o
7 3 4 105.68 131.89 8.58 o
9 3 4 4.53 -3.85 11.56 <
-7 5 4 3.43 15.32 8.87 <
-5 5 4 167.47 150.36 18.03 o
-3 5 4 63.88 63.32 12.54 o
-1 5 4 224.44 235.71 10.95 o
1 5 4 246.74 232.84 11.26 o
3 5 4 48.80 41.58 12.58 o
5 5 4 174.73 215.57 17.73 o
7 5 4 0.98 -2.85 9.95 <
-5 7 4 3.43 19.94 9.21 o
-1 7 4 58.69 45.12 16.46 o
1 7 4 48.64 37.91 11.76 o
3 7 4 105.68 102.51 8.91 o
5 7 4 0.98 -2.49 8.89 <
7 7 4 68.55 34.27 12.68 o
-3 9 4 7.08 6.08 8.22 <
-1 9 4 27.33 18.09 8.04 o
1 9 4 31.61 10.16 10.44 <
3 9 4 4.53 -0.48 10.41 <
0 0 6 1632.91 1695.00 15.73 o
2 0 6 15.57 14.61 4.31 o
4 0 6 675.46 696.32 10.66 o
6 0 6 0.81 30.03 22.07 <
8 0 6 90.21 66.84 10.85 o
-8 2 6 3.12 -20.60 13.01 <
-6 2 6 220.20 244.35 14.84 o
-4 2 6 9.56 -16.64 7.54 <
-2 2 6 1040.23 1046.87 12.81 o
0 2 6 15.58 3.82 3.69 <
2 2 6 1039.02 1080.12 14.84 o
4 2 6 18.95 10.21 7.97 <
6 2 6 213.73 185.86 13.03 o
8 2 6 6.40 -16.52 9.37 <
-8 4 6 48.31 24.55 10.99 o
-6 4 6 22.00 26.94 8.83 o
-4 4 6 309.35 303.33 16.01 o
-2 4 6 9.56 16.22 8.90 <
0 4 6 677.66 692.03 13.25 o
2 4 6 18.95 24.95 9.12 o
4 4 6 297.62 302.33 13.13 o
6 4 6 31.86 29.75 5.30 o
8 4 6 42.46 27.98 21.62 <
-4 6 6 22.00 -46.37 29.27 <
-2 6 6 220.16 240.35 18.45 o
0 6 6 0.81 32.85 13.38 o
2 6 6 213.81 239.95 21.18 o
4 6 6 31.86 -9.03 18.16 <
6 6 6 59.80 66.68 13.29 o
-4 8 6 48.31 69.73 18.53 o
-2 8 6 3.12 -7.16 11.45 <
0 8 6 90.21 65.07 7.68 o
2 8 6 6.40 26.70 8.82 o
4 8 6 42.46 67.18 9.36 o
-9 1 8 20.97 -1.70 23.66 <
-7 1 8 78.00 93.66 9.92 o
-5 1 8 196.65 171.91 13.78 o
-3 1 8 477.90 449.65 11.99 o
-1 1 8 761.94 753.72 9.93 o
1 1 8 690.38 691.49 12.95 o
3 1 8 527.96 471.85 10.25 o
5 1 8 169.57 137.64 11.53 o
7 1 8 90.42 105.05 9.76 o
9 1 8 16.03 -0.74 9.70 <
-7 3 8 27.29 21.73 10.04 o
-5 3 8 186.30 220.93 14.67 o
-3 3 8 259.79 266.40 11.61 o
-1 3 8 478.19 519.46 12.13 o
1 3 8 528.89 491.24 14.73 o
3 3 8 224.45 231.18 10.30 o
5 3 8 205.32 220.33 16.65 o
7 3 8 19.19 36.50 7.74 o
-5 5 8 28.57 44.98 7.51 o
-3 5 8 186.30 233.10 23.08 o
-1 5 8 196.69 170.94 18.11 o
1 5 8 169.66 187.86 18.98 o
3 5 8 205.35 241.92 16.04 o
5 5 8 19.31 16.64 13.27 <
7 5 8 75.41 71.78 10.31 o
-5 7 8 72.51 25.36 16.79 <
-3 7 8 27.29 23.11 8.69 o
-1 7 8 77.99 51.03 32.75 <
1 7 8 90.41 2.05 36.86 <
3 7 8 19.19 4.20 7.37 <
5 7 8 75.41 116.95 14.41 o
1 9 8 16.03 6.87 10.53 <
0 0 10 168.40 125.79 11.09 o
2 0 10 981.76 906.58 17.94 o
4 0 10 54.42 53.69 7.91 o
6 0 10 219.89 182.44 18.17 o
8 0 10 1.88 -13.75 9.84 <
-8 2 10 59.03 23.76 18.26 <
-6 2 10 9.70 -49.05 21.15 <
-4 2 10 445.84 432.22 15.93 o
-2 2 10 95.19 100.59 6.65 o
0 2 10 982.84 984.95 22.16 o
2 2 10 98.99 93.36 11.68 o
4 2 10 441.89 492.18 13.98 o
6 2 10 13.53 4.33 13.73 <
8 2 10 56.81 89.27 11.20 o
-4 4 10 20.09 35.77 20.74 <
-2 4 10 446.01 473.11 21.68 o
0 4 10 54.42 38.38 14.28 o
2 4 10 441.72 509.77 19.74 o
4 4 10 27.07 15.12 17.69 <
6 4 10 98.28 141.08 9.12 o
-4 6 10 104.50 124.43 14.01 o
-2 6 10 9.70 -13.46 29.65 <
0 6 10 219.81 209.63 34.65 o
2 6 10 13.53 -25.73 33.80 <
4 6 10 98.26 107.36 7.89 o
-2 8 10 59.04 27.00 17.43 <
0 8 10 1.88 -47.12 19.86 <
2 8 10 56.80 14.94 13.88 <
-7 1 12 51.18 42.99 12.95 o
-5 1 12 146.42 134.61 17.68 o
-3 1 12 321.61 336.51 16.12 o
-1 1 12 455.19 464.17 17.75 o
1 1 12 499.30 525.29 18.48 o
3 1 12 288.68 281.83 14.75 o
5 1 12 166.01 164.49 12.40 o
7 1 12 42.02 21.21 8.72 o
-7 3 12 46.54 71.78 15.20 o
-5 3 12 86.44 88.13 9.20 o
-3 3 12 224.13 243.92 22.50 o
-1 3 12 321.62 324.75 22.22 o
1 3 12 288.68 288.31 13.51 o
3 3 12 249.38 230.87 20.78 o
5 3 12 71.93 62.08 5.93 o
-5 5 12 70.52 -2.74 19.85 <
-3 5 12 86.40 78.59 11.19 o
-1 5 12 146.36 162.10 14.36 o
1 5 12 165.94 146.46 30.52 o
3 5 12 71.91 88.72 8.30 o
5 5 12 78.32 79.37 8.14 o
-3 7 12 46.52 4.27 17.48 <
-1 7 12 51.17 15.12 19.53 <
1 7 12 42.00 40.75 21.61 <
3 7 12 52.90 50.97 9.63 o
0 0 14 555.74 510.50 24.84 o
2 0 14 100.52 111.94 15.67 o
4 0 14 278.46 261.58 9.53 o
6 0 14 17.40 27.05 11.18 o
-6 2 14 103.83 97.37 19.18 o
-4 2 14 41.49 48.25 8.42 o
-2 2 14 393.07 333.45 26.10 o
0 2 14 100.53 140.75 18.77 o
2 2 14 392.13 398.32 22.84 o
4 2 14 43.14 50.46 5.97 o
6 2 14 102.43 110.39 12.93 o
-4 4 14 143.58 142.09 11.78 o
0 4 14 278.65 269.57 9.98 o
2 4 14 43.14 21.62 8.42 o
4 4 14 141.23 141.57 9.61 o
6 4 14 10.71 6.61 10.50 <
-4 6 14 8.18 33.73 22.33 <
-2 6 14 103.75 38.42 23.18 <
0 6 14 17.40 31.38 17.16 <
2 6 14 102.44 121.00 16.25 o
4 6 14 10.71 3.34 9.61 <
-5 1 16 74.03 60.03 16.93 o
-3 1 16 127.23 103.82 8.04 o
-1 1 16 191.75 195.99 7.70 o
1 1 16 172.31 197.11 7.12 o
3 1 16 142.81 134.28 9.79 o
5 1 16 64.19 24.87 16.91 <
-5 3 16 53.30 40.59 17.53 o
-3 3 16 100.41 79.42 9.58 o
-1 3 16 127.28 127.77 8.23 o
1 3 16 142.84 136.39 9.81 o
3 3 16 87.99 99.31 11.60 o
5 3 16 61.16 74.02 16.07 o
-3 5 16 53.29 71.09 15.32 o
-1 5 16 74.03 19.32 14.11 <
1 5 16 64.21 41.86 13.56 o
3 5 16 61.15 93.92 11.73 o
0 0 18 41.11 37.53 14.50 o
2 0 18 143.00 174.78 17.60 o
4 0 18 23.43 10.65 17.08 <
-4 2 18 85.37 96.93 19.42 o
-2 2 18 31.56 62.27 11.59 o
0 2 18 143.05 122.67 11.50 o
2 2 18 31.69 54.11 17.75 o
4 2 18 85.26 101.99 17.97 o
-2 4 18 85.37 108.00 11.60 o
0 4 18 23.43 21.48 15.04 <
2 4 18 85.27 41.12 15.27 o
-1 1 20 42.04 55.61 15.89 o
1 1 20 47.99 52.83 18.74 o
