#------------------------------------------------------------------------------
#$Date: 2021-06-15 11:12:38 +0300 (Tue, 15 Jun 2021) $
#$Revision: 266469 $
#$URL: file:///home/coder/svn-repositories/cod/cif/1/56/34/1563488.cif $
#------------------------------------------------------------------------------
#
# This file is available in the Crystallography Open Database (COD),
# http://www.crystallography.net/
#
# All data on this site have been placed in the public domain by the
# contributors.
#
data_1563488
loop_
_publ_author_name
'Souilah, M.'
'Lafond, A.'
'Guillot-Deudon, C.'
'Harel, S.'
'Evain, M.'
_publ_section_title
;
 Structural investigation of the Cu2Se--In2Se3--Ga2Se3 phase diagram,
 X-ray photoemission and optical properties of the
 Cu1&#x2212;z(In0.5Ga0.5)1+z/3Se2 compounds
;
_journal_issue                   10
_journal_name_full               'Journal of Solid State Chemistry'
_journal_page_first              2274
_journal_page_last               2280
_journal_paper_doi               10.1016/j.jssc.2010.08.014
_journal_volume                  183
_journal_year                    2010
_chemical_formula_moiety         'Cu0.5 Ga0.583 In0.583 Se2'
_chemical_formula_sum            'Cu0.5 Ga0.583 In0.583 Se2'
_chemical_formula_weight         297.3
_space_group_IT_number           121
_space_group_name_Hall           'I -4 2'
_space_group_name_H-M_alt        'I -4 2 m'
_symmetry_cell_setting           tetragonal
_symmetry_space_group_name_Hall  'I -4 2'
_symmetry_space_group_name_H-M   'I -4 2 m'
_cell_angle_alpha                90
_cell_angle_beta                 90
_cell_angle_gamma                90
_cell_formula_units_Z            4
_cell_length_a                   5.6450(5)
_cell_length_b                   5.6450(5)
_cell_length_c                   11.2438(12)
_cell_measurement_reflns_used    24698
_cell_measurement_temperature    293
_cell_measurement_theta_max      40.07
_cell_measurement_theta_min      6.53
_cell_volume                     358.30(6)
_computing_publication_material
'Jana2006 (Petricek, Dusek & Palatinus, 2006)'
_computing_structure_refinement
'Jana2006 (Petricek, Dusek & Palatinus, 2006)'
_diffrn_ambient_temperature      293
_diffrn_measured_fraction_theta_full 0.98
_diffrn_measured_fraction_theta_max 0.98
_diffrn_measurement_device       'four-cycle diffractometer'
_diffrn_measurement_device_type  'Nonius CCD'
_diffrn_measurement_method       omega
_diffrn_radiation_monochromator  graphite
_diffrn_radiation_source         'X-ray tube'
_diffrn_radiation_type           'Mo K\a'
_diffrn_radiation_wavelength     0.71069
_diffrn_reflns_av_R_equivalents  0.0709
_diffrn_reflns_av_sigmaI/netI    0.0123
_diffrn_reflns_limit_h_max       10
_diffrn_reflns_limit_h_min       -10
_diffrn_reflns_limit_k_max       10
_diffrn_reflns_limit_k_min       -10
_diffrn_reflns_limit_l_max       20
_diffrn_reflns_limit_l_min       -20
_diffrn_reflns_number            24698
_diffrn_reflns_theta_full        40.07
_diffrn_reflns_theta_max         40.07
_diffrn_reflns_theta_min         6.53
_exptl_absorpt_coefficient_mu    31.11
_exptl_absorpt_correction_T_max  0.2341
_exptl_absorpt_correction_T_min  0.1167
_exptl_absorpt_correction_type   gaussian
_exptl_absorpt_process_details
'Jana2006  (Petricek, Dusek & Palatinus, 2000)'
_exptl_crystal_colour            black
_exptl_crystal_density_diffrn    5.495
_exptl_crystal_description       block
_exptl_crystal_F_000             517
_exptl_crystal_size_max          0.14
_exptl_crystal_size_mid          0.11
_exptl_crystal_size_min          0.10
_refine_diff_density_max         1.90
_refine_diff_density_min         -1.36
_refine_ls_extinction_coef       1150(140)
_refine_ls_extinction_method
'B-C type 1 Gaussian isotropic (Becker & Coppens, 1974)'
_refine_ls_goodness_of_fit_gt    1.57
_refine_ls_goodness_of_fit_ref   1.56
_refine_ls_number_constraints    6
_refine_ls_number_parameters     35
_refine_ls_number_reflns         1328
_refine_ls_number_restraints     0
_refine_ls_R_factor_all          0.0516
_refine_ls_R_factor_gt           0.0405
_refine_ls_shift/su_max          0.0446
_refine_ls_shift/su_mean         0.0107
_refine_ls_structure_factor_coef Fsqd
_refine_ls_weighting_details     w=1/(\s^2^(I)+0.0016I^2^)
_refine_ls_weighting_scheme      sigma
_refine_ls_wR_factor_gt          0.1000
_refine_ls_wR_factor_ref         0.1067
_reflns_number_gt                1150
_reflns_number_total             1328
_reflns_threshold_expression     I>2\s(I)
_cod_data_source_file            JSSC-2010_183-2274.cif
_cod_data_source_block           8
_cod_database_code               1563488
loop_
_symmetry_equiv_pos_site_id
_symmetry_equiv_pos_as_xyz
1 x,y,z
2 -x,-y,z
3 y,-x,-z
4 -y,x,-z
5 -x,y,-z
6 x,-y,-z
7 -y,-x,z
8 y,x,z
9 x+1/2,y+1/2,z+1/2
10 -x+1/2,-y+1/2,z+1/2
11 y+1/2,-x+1/2,-z+1/2
12 -y+1/2,x+1/2,-z+1/2
13 -x+1/2,y+1/2,-z+1/2
14 x+1/2,-y+1/2,-z+1/2
15 -y+1/2,-x+1/2,z+1/2
16 y+1/2,x+1/2,z+1/2
loop_
_atom_site_label
_atom_site_type_symbol
_atom_site_fract_x
_atom_site_fract_y
_atom_site_fract_z
_atom_site_adp_type
_atom_site_U_iso_or_equiv
_atom_site_symmetry_multiplicity
_atom_site_occupancy
_atom_site_calc_flag
_atom_site_refinement_flags
_atom_site_disorder_assembly
_atom_site_disorder_group
Cu_2a Cu 0 0 0 Uani 0.0193(4) 2 0.822(4) d . . .
In_4d In 0 0.5 0.25 Uani 0.0208(4) 4 0.0831(3) d . . .
Ga_4d Ga 0 0.5 0.25 Uani 0.0208(4) 4 0.5831(3) d . . .
Cu_4d Cu 0 0.5 0.25 Uani 0.0208(4) 4 0.09 d . . .
In_2b In 0.5 0.5 0 Uani 0.0211(2) 2 1 d . . .
Se_8i Se 0.75984(11) 0.75984(11) 0.86963(6) Uani 0.0230(4) 8 1 d . . .
loop_
_atom_site_aniso_label
_atom_site_aniso_type_symbol
_atom_site_aniso_U_11
_atom_site_aniso_U_22
_atom_site_aniso_U_33
_atom_site_aniso_U_12
_atom_site_aniso_U_13
_atom_site_aniso_U_23
Cu_2a Cu 0.0188(7) 0.0188(7) 0.0201(10) 0 0 0
In_4d In 0.0213(5) 0.0213(5) 0.0200(8) 0 0 0
Ga_4d Ga 0.0213(5) 0.0213(5) 0.0200(8) 0 0 0
Cu_4d Cu 0.0213(5) 0.0213(5) 0.0200(8) 0 0 0
In_2b In 0.0208(3) 0.0208(3) 0.0216(5) 0 0 0
Se_8i Se 0.0201(5) 0.0201(5) 0.0288(10) -0.0080(3) 0.0075(2) 0.0075(2)
loop_
_atom_type_symbol
_atom_type_scat_dispersion_real
_atom_type_scat_dispersion_imag
_atom_type_scat_source
Cu 0.320 1.265 'International Tables Vol C tables 4.2.6.8 and 6.1.1.1'
In -0.728 1.310 'International Tables Vol C tables 4.2.6.8 and 6.1.1.1'
Ga 0.231 1.608 'International Tables Vol C tables 4.2.6.8 and 6.1.1.1'
Se -0.093 2.226 'International Tables Vol C tables 4.2.6.8 and 6.1.1.1'
loop_
_geom_angle_atom_site_label_1
_geom_angle_atom_site_label_2
_geom_angle_atom_site_label_3
_geom_angle_site_symmetry_1
_geom_angle_site_symmetry_2
_geom_angle_site_symmetry_3
_geom_angle
_geom_angle_publ_flag
Se_8i Cu_2a Se_8i 1_444 . 2_664 105.20(2) yes
Se_8i Cu_2a Se_8i 1_444 . 3_466 111.65(2) yes
Se_8i Cu_2a Se_8i 1_444 . 4_646 111.65(2) yes
Se_8i Cu_2a Se_8i 2_664 . 3_466 111.65(2) yes
Se_8i Cu_2a Se_8i 2_664 . 4_646 111.65(2) yes
Se_8i Cu_2a Se_8i 3_466 . 4_646 105.20(2) yes
Se_8i In_4d Se_8i 9_444 . 10_564 112.08(2) yes
Se_8i In_4d Se_8i 9_444 . 3_466 108.18(2) yes
Se_8i In_4d Se_8i 9_444 . 4_656 108.18(2) yes
Se_8i In_4d Se_8i 10_564 . 3_466 108.18(2) yes
Se_8i In_4d Se_8i 10_564 . 4_656 108.18(2) yes
Se_8i In_4d Se_8i 3_466 . 4_656 112.08(2) yes
Se_8i Ga_4d Se_8i 9_444 . 10_564 112.08(2) yes
Se_8i Ga_4d Se_8i 9_444 . 3_466 108.18(2) yes
Se_8i Ga_4d Se_8i 9_444 . 4_656 108.18(2) yes
Se_8i Ga_4d Se_8i 10_564 . 3_466 108.18(2) yes
Se_8i Ga_4d Se_8i 10_564 . 4_656 108.18(2) yes
Se_8i Ga_4d Se_8i 3_466 . 4_656 112.08(2) yes
Se_8i Cu_4d Se_8i 9_444 . 10_564 112.08(2) yes
Se_8i Cu_4d Se_8i 9_444 . 3_466 108.18(2) yes
Se_8i Cu_4d Se_8i 9_444 . 4_656 108.18(2) yes
Se_8i Cu_4d Se_8i 10_564 . 3_466 108.18(2) yes
Se_8i Cu_4d Se_8i 10_564 . 4_656 108.18(2) yes
Se_8i Cu_4d Se_8i 3_466 . 4_656 112.08(2) yes
Se_8i In_2b Se_8i 1_554 . 2_664 109.51(2) yes
Se_8i In_2b Se_8i 1_554 . 3_566 109.45(2) yes
Se_8i In_2b Se_8i 1_554 . 4_656 109.45(2) yes
Se_8i In_2b Se_8i 2_664 . 3_566 109.45(2) yes
Se_8i In_2b Se_8i 2_664 . 4_656 109.45(2) yes
Se_8i In_2b Se_8i 3_566 . 4_656 109.51(2) yes
loop_
_geom_bond_atom_site_label_1
_geom_bond_atom_site_label_2
_geom_bond_site_symmetry_1
_geom_bond_site_symmetry_2
_geom_bond_distance
_geom_bond_publ_flag
Cu_2a Se_8i . 1_444 2.4134(7) yes
Cu_2a Se_8i . 2_664 2.4134(7) yes
Cu_2a Se_8i . 3_466 2.4134(7) yes
Cu_2a Se_8i . 4_646 2.4134(7) yes
In_4d Se_8i . 9_444 2.4081(7) yes
In_4d Se_8i . 10_564 2.4081(7) yes
In_4d Se_8i . 3_466 2.4081(7) yes
In_4d Se_8i . 4_656 2.4081(7) yes
Ga_4d Se_8i . 9_444 2.4081(7) yes
Ga_4d Se_8i . 10_564 2.4081(7) yes
Ga_4d Se_8i . 3_466 2.4081(7) yes
Ga_4d Se_8i . 4_656 2.4081(7) yes
Cu_4d Se_8i . 9_444 2.4081(7) yes
Cu_4d Se_8i . 10_564 2.4081(7) yes
Cu_4d Se_8i . 3_466 2.4081(7) yes
Cu_4d Se_8i . 4_656 2.4081(7) yes
In_2b Se_8i . 1_554 2.5400(7) yes
In_2b Se_8i . 2_664 2.5400(7) yes
In_2b Se_8i . 3_566 2.5400(7) yes
In_2b Se_8i . 4_656 2.5400(7) yes
loop_
_refln_index_h
_refln_index_k
_refln_index_l
_refln_F_squared_calc
_refln_F_squared_meas
_refln_F_squared_sigma
_refln_observed_status
2 0 0 263.74 360.49 4.84 o
4 0 0 50063.20 49168.68 110.19 o
6 0 0 50.75 23.94 6.08 o
8 0 0 5109.24 5172.89 41.28 o
3 1 0 187.68 213.60 3.22 o
5 1 0 44.41 31.07 4.22 o
7 1 0 33.77 27.81 10.60 o
0 2 0 282.84 358.21 7.65 o
2 2 0 59929.55 63170.66 219.95 o
4 2 0 58.95 69.27 3.99 o
6 2 0 16287.87 15992.24 60.46 o
8 2 0 94.95 85.08 14.11 o
1 3 0 187.71 204.33 6.39 o
3 3 0 45.83 47.47 3.73 o
5 3 0 91.80 120.03 8.85 o
7 3 0 6.48 -13.21 14.75 <
0 4 0 50599.94 50942.69 228.41 o
2 4 0 65.01 60.06 6.53 o
4 4 0 24304.30 23182.40 68.62 o
6 4 0 53.64 31.99 18.92 <
8 4 0 2629.43 2679.91 27.98 o
1 5 0 44.41 60.39 13.19 o
3 5 0 91.80 79.58 9.45 o
5 5 0 3.75 9.25 8.76 <
7 5 0 34.36 46.40 9.47 o
0 6 0 42.39 24.70 32.05 <
2 6 0 16574.45 15735.57 85.23 o
4 6 0 47.42 42.61 5.14 o
6 6 0 3853.55 3636.68 30.85 o
1 7 0 33.77 87.83 41.03 o
3 7 0 6.48 6.93 6.97 <
5 7 0 34.36 13.02 11.62 <
0 8 0 5235.19 5357.51 82.23 o
2 8 0 82.17 78.61 7.52 o
4 8 0 2665.10 3055.10 35.53 o
-1 2 1 419.88 418.78 2.56 o
1 2 1 433.73 448.29 2.81 o
-2 3 1 42.98 43.96 1.96 o
0 3 1 555.64 591.00 4.86 o
2 3 1 33.55 35.68 1.91 o
-3 4 1 289.89 282.35 5.58 o
-1 4 1 172.72 184.48 3.98 o
1 4 1 156.38 166.75 3.61 o
3 4 1 302.04 298.60 4.85 o
-4 5 1 36.97 33.00 6.84 o
-2 5 1 334.40 358.73 6.90 o
0 5 1 9.46 15.65 5.62 o
2 5 1 339.49 362.45 6.81 o
4 5 1 29.99 23.55 8.29 o
-5 6 1 102.85 99.50 11.09 o
-3 6 1 68.91 80.38 7.33 o
-1 6 1 149.44 143.17 9.79 o
1 6 1 161.89 182.60 11.31 o
3 6 1 59.29 59.60 7.68 o
5 6 1 108.59 82.42 10.76 o
-4 7 1 109.90 108.95 14.14 o
-2 7 1 17.24 29.24 10.21 o
0 7 1 204.10 222.23 6.51 o
2 7 1 15.06 -22.97 11.55 <
4 7 1 112.97 117.69 6.16 o
-3 8 1 54.91 55.78 6.20 o
-1 8 1 58.96 52.67 4.66 o
1 8 1 51.86 49.33 5.27 o
3 8 1 60.39 49.23 5.50 o
2 0 2 434.56 445.08 4.35 o
4 0 2 36.37 37.85 2.44 o
6 0 2 72.17 80.23 5.54 o
8 0 2 8.86 19.79 5.61 o
-7 1 2 4642.09 4457.77 32.13 o
-5 1 2 16805.85 16382.86 43.66 o
-3 1 2 35253.10 33506.96 60.41 o
3 1 2 37097.89 36392.92 63.23 o
5 1 2 15976.17 15193.82 44.25 o
7 1 2 4939.98 5265.31 27.28 o
-8 2 2 23.74 40.03 6.99 o
-6 2 2 17.04 21.86 9.21 o
-4 2 2 158.87 175.15 3.64 o
-2 2 2 63.61 50.74 2.59 o
0 2 2 434.56 391.67 7.02 o
2 2 2 67.12 66.05 2.25 o
4 2 2 155.08 168.17 5.54 o
6 2 2 19.47 10.27 11.31 <
8 2 2 22.69 20.88 6.48 o
-7 3 2 3626.81 3522.07 35.73 o
-5 3 2 10291.98 9623.64 44.81 o
-3 3 2 25622.02 24492.48 44.55 o
-1 3 2 35466.31 32399.48 68.49 o
1 3 2 37133.46 36040.88 124.18 o
3 3 2 24510.74 22730.35 40.94 o
5 3 2 10876.33 10770.48 42.47 o
7 3 2 3404.52 3205.58 35.79 o
-8 4 2 8.52 -7.48 7.84 <
-6 4 2 48.44 26.10 19.23 <
-4 4 2 27.01 29.72 8.72 o
-2 4 2 158.86 152.43 6.66 o
0 4 2 36.37 31.46 5.87 o
2 4 2 155.07 164.31 6.92 o
4 4 2 31.65 40.09 8.27 o
6 4 2 45.11 21.13 17.27 <
8 4 2 10.11 -1.28 9.40 <
-7 5 2 1566.44 1578.72 22.17 o
-5 5 2 5392.46 5233.51 31.41 o
-3 5 2 10395.29 10027.99 56.35 o
-1 5 2 17062.90 16377.37 82.82 o
1 5 2 16219.43 14707.76 78.10 o
3 5 2 10993.85 10481.21 47.97 o
5 5 2 5087.55 4624.51 36.84 o
7 5 2 1697.70 1796.28 22.09 o
-6 6 2 13.24 -8.55 7.84 <
-4 6 2 48.44 19.97 9.90 o
-2 6 2 17.04 1.51 14.44 <
0 6 2 72.17 55.04 24.61 o
2 6 2 19.47 -15.22 25.82 <
4 6 2 45.11 40.64 6.36 o
6 6 2 15.94 33.94 9.47 o
-5 7 2 1581.31 1722.97 32.53 o
-3 7 2 3679.78 3849.40 30.10 o
-1 7 2 4757.56 4730.11 31.87 o
1 7 2 5061.35 4635.67 101.32 o
3 7 2 3449.74 3380.79 34.06 o
5 7 2 1713.97 1949.93 22.75 o
-4 8 2 8.52 11.73 11.94 <
-2 8 2 23.74 22.45 12.01 <
0 8 2 8.86 8.02 6.34 <
2 8 2 22.69 -16.75 11.55 <
4 8 2 10.11 8.97 7.33 <
0 1 3 416.42 389.96 2.80 o
-1 2 3 181.37 179.56 2.42 o
1 2 3 195.79 203.52 3.22 o
-2 3 3 374.11 364.61 5.18 o
0 3 3 18.77 15.19 2.38 o
2 3 3 364.28 365.40 3.66 o
-3 4 3 85.89 84.32 4.47 o
-1 4 3 278.16 268.94 5.39 o
1 4 3 260.63 274.07 5.97 o
3 4 3 98.99 93.67 4.66 o
-4 5 3 180.53 188.05 13.57 o
-2 5 3 14.49 24.20 6.61 o
0 5 3 292.50 297.09 7.54 o
2 5 3 19.99 17.49 5.22 o
4 5 3 172.92 171.98 10.13 o
-5 6 3 32.31 27.74 5.12 o
-3 6 3 151.29 166.33 10.96 o
-1 6 3 128.03 132.07 8.29 o
1 6 3 141.49 162.45 10.81 o
3 6 3 140.83 155.64 9.02 o
5 6 3 38.66 41.88 4.62 o
-4 7 3 10.54 -23.45 10.66 <
-2 7 3 131.33 142.05 8.47 o
0 7 3 5.68 11.75 3.74 o
2 7 3 128.94 143.52 13.24 o
4 7 3 13.96 21.81 5.47 o
-3 8 3 38.33 41.64 5.58 o
-1 8 3 76.14 86.46 4.93 o
1 8 3 68.51 59.47 6.01 o
3 8 3 44.28 31.92 5.77 o
0 0 4 302.54 406.65 5.29 o
2 0 4 59069.23 70163.55 171.88 o
4 0 4 68.04 116.04 6.90 o
6 0 4 16427.21 15877.23 43.28 o
8 0 4 91.71 103.37 6.13 o
-7 1 4 25.41 24.47 9.45 o
-5 1 4 92.62 105.94 5.15 o
-3 1 4 171.44 172.85 4.21 o
-1 1 4 331.54 360.40 5.91 o
1 1 4 354.91 397.67 4.30 o
3 1 4 156.13 174.53 5.08 o
5 1 4 100.39 114.01 6.70 o
7 1 4 22.07 16.64 5.07 o
-8 2 4 3676.91 3881.45 33.35 o
-6 2 4 56.92 73.17 12.49 o
-4 2 4 35695.60 35172.81 63.56 o
-2 2 4 120.50 128.47 5.19 o
0 2 4 59224.80 65114.04 149.09 o
2 2 4 95.49 106.49 3.94 o
4 2 4 36165.16 35183.30 72.94 o
6 2 4 39.79 44.95 10.82 o
8 2 4 3686.47 3908.52 28.94 o
-7 3 4 39.78 -11.62 19.31 <
-5 3 4 33.47 23.16 4.33 o
-3 3 4 164.01 154.91 7.05 o
-1 3 4 171.43 180.81 5.45 o
1 3 4 156.14 162.16 6.82 o
3 3 4 174.76 160.82 6.99 o
5 3 4 27.66 12.57 9.88 <
7 3 4 42.30 52.37 19.93 o
-6 4 4 7849.06 7678.21 41.13 o
-4 4 4 52.22 62.01 6.76 o
-2 4 4 36022.62 34736.66 94.66 o
0 4 4 82.90 76.26 9.78 o
2 4 4 36159.21 36457.26 100.51 o
4 4 4 21.05 20.11 9.13 o
6 4 4 7888.14 8053.37 60.30 o
-7 5 4 3.81 -5.91 8.07 <
-5 5 4 64.89 88.79 8.28 o
-3 5 4 33.47 26.97 14.94 <
-1 5 4 92.62 88.21 10.60 o
1 5 4 100.39 103.33 12.97 o
3 5 4 27.66 27.46 16.61 <
5 5 4 68.22 103.49 15.45 o
7 5 4 2.46 -0.43 9.50 <
-6 6 4 77.47 45.39 8.89 o
-4 6 4 7937.79 8104.46 41.00 o
-2 6 4 47.41 26.32 14.59 <
0 6 4 16818.71 16964.30 78.38 o
2 6 4 30.75 13.07 12.46 <
4 6 4 7973.01 8463.27 66.31 o
6 6 4 62.72 68.40 9.21 o
-5 7 4 3.81 9.51 11.42 <
-3 7 4 39.78 23.99 5.62 o
-1 7 4 25.41 19.11 5.50 o
1 7 4 22.07 24.49 5.55 o
3 7 4 42.30 28.73 31.01 <
5 7 4 2.46 -8.26 8.57 <
-2 8 4 3775.05 4111.17 33.00 o
0 8 4 75.79 42.26 9.93 o
2 8 4 3783.25 4113.66 47.47 o
0 1 5 338.21 329.82 3.23 o
-1 2 5 104.62 101.09 2.78 o
1 2 5 96.29 95.77 2.77 o
-2 3 5 359.49 341.36 5.68 o
0 3 5 1.99 4.62 3.33 <
2 3 5 365.71 429.80 7.13 o
-3 4 5 37.91 39.37 6.15 o
-1 4 5 176.31 161.52 4.68 o
1 4 5 186.80 184.24 6.32 o
3 4 5 30.06 23.25 5.77 o
-4 5 5 177.09 164.27 6.75 o
-2 5 5 19.13 28.35 7.05 o
0 5 5 338.67 346.71 7.91 o
2 5 5 15.84 2.77 7.43 <
4 5 5 181.62 184.20 10.96 o
-5 6 5 14.11 26.28 5.38 o
-3 6 5 103.68 85.35 12.38 o
-1 6 5 65.70 64.00 9.32 o
1 6 5 57.52 61.75 8.38 o
3 6 5 109.93 109.87 11.57 o
5 6 5 10.61 7.85 3.94 <
-4 7 5 11.11 -15.70 13.08 <
-2 7 5 153.56 160.71 8.87 o
0 7 5 17.91 20.06 3.81 o
2 7 5 154.92 175.11 15.63 o
4 7 5 9.34 4.46 5.29 <
-3 8 5 16.71 13.87 5.85 o
-1 8 5 36.50 27.98 4.82 o
1 8 5 41.12 29.80 5.99 o
3 8 5 13.31 16.70 5.91 o
0 0 6 737.64 790.23 8.47 o
2 0 6 6.47 6.17 4.18 <
4 0 6 287.51 255.58 8.55 o
6 0 6 0.54 2.71 6.74 <
8 0 6 35.55 39.84 6.55 o
-7 1 6 3676.60 3661.20 25.84 o
-5 1 6 10422.29 9866.56 42.47 o
-3 1 6 25896.74 24618.60 64.13 o
-1 1 6 35523.08 35800.50 68.52 o
1 1 6 37369.93 39041.16 69.57 o
3 1 6 24716.73 23221.96 67.19 o
5 1 6 11021.65 10944.34 43.60 o
7 1 6 3449.12 3368.74 22.46 o
-8 2 6 1.87 -15.65 8.28 <
-6 2 6 98.92 92.03 10.63 o
-4 2 6 4.53 -10.51 6.56 <
-2 2 6 447.23 403.39 10.39 o
0 2 6 6.47 13.04 3.62 o
2 2 6 445.25 484.58 9.19 o
4 2 6 7.35 -13.44 7.43 <
6 2 6 96.98 111.62 8.56 o
8 2 6 2.78 1.87 6.60 <
-7 3 6 2113.38 2247.68 25.77 o
-5 3 6 8228.17 7540.90 33.40 o
-3 3 6 15559.39 14851.90 61.90 o
-1 3 6 26029.34 24895.82 63.67 o
1 3 6 25146.67 24229.88 67.31 o
3 3 6 16511.26 18470.08 58.26 o
5 3 6 7828.85 7249.22 45.37 o
7 3 6 2290.42 2731.83 25.78 o
-6 4 6 5.61 29.89 9.61 o
-4 4 6 144.97 120.99 6.11 o
-2 4 6 4.53 -12.04 9.08 <
0 4 6 287.54 302.14 11.37 o
2 4 6 7.35 12.91 10.37 <
4 4 6 141.38 162.54 11.49 o
6 4 6 8.39 7.46 5.56 <
-5 5 6 3046.49 3383.77 28.52 o
-3 5 6 8312.56 7694.75 48.57 o
-1 5 6 10649.33 9815.22 57.89 o
1 5 6 11269.66 12234.08 67.18 o
3 5 6 7908.00 7292.41 50.14 o
5 5 6 3290.93 3861.67 36.41 o
-6 6 6 31.41 31.20 9.27 o
-4 6 6 5.61 2.13 6.55 <
-2 6 6 98.92 96.60 15.99 o
0 6 6 0.54 20.10 11.07 <
2 6 6 96.98 105.15 15.43 o
4 6 6 8.39 2.85 18.93 <
6 6 6 29.06 28.78 12.64 o
-3 7 6 2176.41 2241.25 24.14 o
-1 7 6 3778.03 3660.09 38.87 o
1 7 6 3543.55 3696.07 44.74 o
3 7 6 2358.29 2946.31 30.95 o
-2 8 6 1.87 4.22 9.36 <
0 8 6 35.55 59.03 10.00 o
2 8 6 2.78 -12.18 8.19 <
0 1 7 92.89 99.01 3.30 o
-1 2 7 195.92 180.52 5.51 o
1 2 7 185.52 187.84 4.50 o
-2 3 7 41.35 46.52 7.15 o
0 3 7 201.19 175.45 5.59 o
2 3 7 49.06 60.17 5.47 o
-3 4 7 162.15 128.15 8.62 o
-1 4 7 128.93 103.14 6.29 o
1 4 7 142.49 149.43 7.53 o
3 4 7 151.81 169.17 8.38 o
-4 5 7 28.08 28.17 9.00 o
-2 5 7 133.67 132.21 9.01 o
0 5 7 1.58 26.25 8.18 o
2 5 7 129.26 128.01 8.50 o
4 5 7 34.30 50.17 8.10 o
-5 6 7 55.95 52.15 7.31 o
-3 6 7 60.29 51.27 4.66 o
-1 6 7 121.99 141.30 9.99 o
1 6 7 111.25 128.28 8.88 o
3 6 7 68.72 54.12 14.05 o
5 6 7 50.84 58.76 5.12 o
-4 7 7 42.38 43.22 6.13 o
-2 7 7 2.79 1.41 4.98 <
0 7 7 72.03 77.15 8.60 o
2 7 7 4.73 14.51 8.66 <
4 7 7 39.63 56.96 5.56 o
-1 8 7 45.08 48.54 6.51 o
1 8 7 51.06 49.52 6.56 o
0 0 8 51414.13 51558.52 140.91 o
2 0 8 80.37 102.04 7.75 o
4 0 8 24801.85 22850.33 83.02 o
6 0 8 50.90 117.85 8.55 o
8 0 8 2715.44 2802.52 29.23 o
-7 1 8 33.28 18.09 8.34 o
-5 1 8 85.80 99.58 12.05 o
-3 1 8 201.40 187.53 9.93 o
-1 1 8 311.79 306.20 8.95 o
1 1 8 287.05 310.56 8.08 o
3 1 8 219.15 212.86 8.76 o
5 1 8 75.97 88.49 7.21 o
7 1 8 37.59 18.58 5.56 o
-6 2 8 7993.22 7854.91 53.60 o
-4 2 8 55.67 41.15 11.20 o
-2 2 8 36415.36 35755.23 104.52 o
0 2 8 89.18 43.68 6.85 o
2 2 8 36882.31 35631.17 87.97 o
4 2 8 24.80 30.85 9.97 o
6 2 8 8038.62 8160.16 29.05 o
-7 3 8 14.90 13.02 8.99 <
-5 3 8 83.38 98.23 15.07 o
-3 3 8 117.53 118.43 11.63 o
-1 3 8 201.42 203.02 13.23 o
1 3 8 219.19 197.19 8.28 o
3 3 8 104.45 122.80 10.04 o
5 3 8 90.88 89.29 11.96 o
7 3 8 11.70 25.10 6.70 o
-6 4 8 75.44 72.63 9.82 o
-4 4 8 11786.38 11335.26 60.22 o
-2 4 8 59.06 29.99 13.79 o
0 4 8 25392.10 24197.21 81.59 o
2 4 8 28.41 41.23 9.42 o
4 4 8 11887.51 12409.77 60.85 o
6 4 8 49.17 78.80 7.56 o
-5 5 8 19.96 24.68 7.51 o
-3 5 8 83.37 43.19 19.20 o
-1 5 8 85.80 75.41 15.62 o
1 5 8 75.97 88.89 18.25 o
3 5 8 90.88 95.14 12.76 o
5 5 8 15.69 17.50 6.95 o
-4 6 8 68.27 128.02 7.73 o
-2 6 8 8217.84 7749.33 55.42 o
0 6 8 42.03 48.51 17.00 o
2 6 8 8263.65 8611.28 50.11 o
4 6 8 42.68 57.31 7.57 o
-3 7 8 14.90 -6.19 8.51 <
-1 7 8 33.28 13.95 8.03 <
1 7 8 37.59 29.77 14.60 o
3 7 8 11.70 -2.57 7.51 <
0 8 8 2834.83 3217.43 37.08 o
0 1 9 38.64 57.85 5.89 o
-1 2 9 130.95 135.10 7.36 o
1 2 9 134.70 134.35 5.21 o
-2 3 9 6.35 -14.16 9.09 <
0 3 9 234.07 230.85 11.44 o
2 3 9 3.56 -9.45 6.90 <
-3 4 9 122.18 107.72 12.03 o
-1 4 9 36.69 38.10 9.84 o
1 4 9 31.78 40.30 8.93 o
3 4 9 125.90 143.21 9.32 o
-4 5 9 7.87 5.80 8.00 <
-2 5 9 170.68 145.46 11.42 o
0 5 9 10.21 16.36 6.95 o
2 5 9 172.27 199.38 9.16 o
4 5 9 5.95 19.28 11.26 <
-3 6 9 9.06 13.89 5.10 o
-1 6 9 42.41 69.47 14.61 o
1 6 9 46.21 55.59 8.57 o
3 6 9 6.33 14.51 11.11 <
-2 7 9 9.32 7.24 5.78 <
0 7 9 109.76 119.15 6.76 o
2 7 9 8.83 10.56 5.02 o
0 0 10 67.13 47.19 13.25 o
2 0 10 416.07 425.84 14.29 o
4 0 10 22.51 15.96 12.00 <
6 0 10 95.10 124.06 14.49 o
-7 1 10 1627.46 1591.21 23.94 o
-5 1 10 5544.70 5049.66 48.14 o
-3 1 10 10642.47 9483.80 61.93 o
-1 1 10 17355.72 17263.72 76.97 o
1 1 10 16561.00 15711.07 75.86 o
3 1 10 11254.97 11541.56 56.63 o
5 1 10 5224.63 4672.68 27.05 o
7 1 10 1766.22 1857.95 20.07 o
-6 2 10 3.70 -1.65 33.38 <
-4 2 10 197.66 160.42 13.55 o
-2 2 10 40.10 56.04 11.65 o
0 2 10 416.21 424.09 14.41 o
2 2 10 41.41 29.65 8.08 o
4 2 10 196.01 203.83 13.33 o
6 2 10 5.02 -4.43 4.20 <
-5 3 10 3112.56 3108.37 41.30 o
-3 3 10 8408.61 7543.29 50.69 o
-1 3 10 10780.88 10156.85 61.44 o
1 3 10 11408.46 10992.66 56.83 o
3 3 10 7996.43 7432.16 45.83 o
5 3 10 3362.11 3948.96 31.74 o
-6 4 10 51.45 45.23 10.34 o
-4 4 10 9.44 33.70 18.05 <
-2 4 10 197.66 158.67 18.42 o
0 4 10 22.51 11.83 13.60 <
2 4 10 196.04 223.88 13.32 o
4 4 10 11.80 31.76 14.97 o
6 4 10 49.50 57.80 6.69 o
-5 5 10 2261.84 2016.76 23.78 o
-3 5 10 3176.24 3169.90 38.00 o
-1 5 10 5689.01 5567.25 46.93 o
1 5 10 5362.78 4990.56 39.49 o
3 5 10 3431.08 3921.90 36.13 o
5 5 10 2118.62 1932.97 20.68 o
-4 6 10 51.45 36.16 7.79 o
-2 6 10 3.70 -1.67 6.26 <
0 6 10 95.11 106.35 8.70 o
2 6 10 5.02 -1.13 13.68 <
4 6 10 49.50 48.79 7.55 o
-1 7 10 1703.06 1688.43 22.78 o
1 7 10 1848.63 2079.37 21.12 o
0 1 11 69.71 69.23 9.66 o
-1 2 11 52.81 56.33 11.03 o
1 2 11 58.90 52.30 8.79 o
-2 3 11 80.09 48.46 11.77 o
0 3 11 14.69 20.22 10.42 <
2 3 11 75.36 75.36 10.01 o
-3 4 11 40.37 75.62 15.41 o
-1 4 11 88.45 74.97 9.32 o
1 4 11 80.14 84.88 9.28 o
3 4 11 46.92 39.55 8.90 o
-4 5 11 42.38 35.71 5.47 o
-2 5 11 9.74 -11.18 12.68 <
0 5 11 52.34 45.00 11.26 o
2 5 11 12.59 2.08 9.55 <
4 5 11 38.41 31.45 4.86 o
-3 6 11 47.66 27.84 6.80 o
-1 6 11 50.69 50.36 18.99 o
1 6 11 57.36 72.91 4.70 o
3 6 11 42.42 40.44 5.76 o
0 7 11 1.67 -0.57 5.86 <
0 0 12 33.77 119.89 33.24 o
2 0 12 17017.37 17592.80 91.85 o
4 0 12 38.27 54.11 14.56 o
6 0 12 4040.97 3878.73 32.49 o
-5 1 12 63.82 65.24 30.70 o
-3 1 12 136.95 132.03 19.07 o
-1 1 12 194.57 174.07 15.58 o
1 1 12 211.30 239.23 15.76 o
3 1 12 124.21 121.65 17.73 o
5 1 12 71.31 99.01 15.62 o
-6 2 12 66.70 61.74 12.32 o
-4 2 12 8173.85 7213.37 65.31 o
-2 2 12 37.53 76.81 15.02 o
0 2 12 17172.66 17079.11 81.65 o
2 2 12 21.50 105.59 18.01 o
4 2 12 8214.55 8120.55 50.30 o
6 2 12 52.64 75.68 6.26 o
-5 3 12 38.32 32.63 6.76 o
-3 3 12 100.19 77.20 16.36 o
-1 3 12 136.97 156.61 20.35 o
1 3 12 124.23 118.32 15.70 o
3 3 12 110.01 118.30 14.24 o
5 3 12 32.59 44.45 6.09 o
-4 4 12 60.78 73.23 8.38 o
-2 4 12 8320.38 7929.51 55.03 o
0 4 12 35.62 35.69 16.10 o
2 4 12 8357.93 8433.41 50.30 o
4 4 12 36.08 53.00 17.20 o
-3 5 12 38.32 28.73 6.60 o
-1 5 12 63.82 77.66 7.57 o
1 5 12 71.31 61.53 15.83 o
3 5 12 32.59 39.18 5.36 o
-2 6 12 56.32 71.78 9.00 o
0 6 12 4225.17 4292.42 30.71 o
2 6 12 42.79 36.04 6.97 o
0 1 13 60.48 78.01 14.14 o
-1 2 13 14.53 -8.83 12.42 <
1 2 13 13.03 9.75 10.88 <
-2 3 13 85.50 71.98 15.62 o
0 3 13 0.46 8.82 11.88 <
2 3 13 86.63 79.13 11.82 o
-3 4 13 2.85 -10.41 5.60 <
-1 4 13 34.81 12.19 14.95 <
1 4 13 36.72 45.98 11.74 o
3 4 13 1.48 23.68 13.27 <
-2 5 13 4.29 -2.71 6.70 <
0 5 13 89.62 72.35 6.25 o
2 5 13 3.73 9.31 3.75 o
-1 6 13 7.39 6.50 6.41 <
1 6 13 6.11 10.52 5.19 o
0 0 14 252.29 210.29 46.02 o
2 0 14 42.82 38.21 17.92 o
4 0 14 124.43 151.14 19.39 o
-5 1 14 1658.00 1602.00 32.06 o
-3 1 14 3787.19 3588.82 62.82 o
-1 1 14 4874.11 4890.79 58.01 o
1 1 14 5192.94 5403.77 50.86 o
3 1 14 3547.72 3288.23 48.56 o
5 1 14 1799.68 1971.72 26.93 o
-4 2 14 15.33 20.93 7.78 o
-2 2 14 177.77 154.81 25.68 o
0 2 14 42.82 39.63 18.89 o
2 2 14 177.16 182.69 18.83 o
4 2 14 16.21 31.46 7.14 o
-3 3 14 2241.01 2298.67 30.78 o
-1 3 14 3836.34 3684.60 28.20 o
1 3 14 3594.00 3281.65 35.79 o
3 3 14 2429.31 2845.39 34.11 o
-4 4 14 64.82 33.09 8.76 o
-2 4 14 15.33 8.28 6.90 <
0 4 14 124.45 122.11 7.95 o
2 4 14 16.21 13.26 6.18 o
4 4 14 63.56 75.63 9.60 o
-1 5 14 1718.10 1640.83 20.37 o
1 5 14 1865.79 2066.08 21.07 o
0 1 15 15.51 24.02 20.00 <
-1 2 15 30.92 22.91 6.17 o
1 2 15 27.86 17.56 13.23 <
-2 3 15 11.38 20.17 5.96 o
0 3 15 25.33 30.57 5.22 o
2 3 15 13.83 29.96 5.09 o
-1 4 15 26.10 39.39 6.04 o
1 4 15 30.29 10.95 4.19 o
0 0 16 5382.87 5848.93 58.67 o
2 0 16 65.77 34.71 9.03 o
4 0 16 2788.97 2778.98 28.99 o
-3 1 16 60.30 80.65 10.79 o
-1 1 16 92.80 115.50 10.71 o
1 1 16 83.89 65.44 8.71 o
3 1 16 67.24 68.85 7.55 o
-2 2 16 3880.98 3903.59 33.76 o
0 2 16 62.62 85.47 7.56 o
2 2 16 3887.58 4000.82 28.61 o
-1 3 16 60.30 63.58 8.15 o
1 3 16 67.24 67.42 7.50 o
0 4 16 2872.95 2920.11 25.99 o
0 1 17 4.78 13.68 6.00 o
-1 2 17 17.99 -7.42 6.04 <
1 2 17 18.62 1.99 6.64 <
0 0 18 22.62 -32.34 14.99 <
3 1 0 470.37 483.89 8.85 o
5 1 0 111.30 105.83 15.33 o
7 1 0 84.64 82.04 13.45 o
1 3 0 470.31 491.96 6.40 o
3 3 0 114.86 105.61 5.29 o
5 3 0 230.06 290.68 13.90 o
7 3 0 16.25 66.46 16.95 o
1 5 0 111.30 114.20 9.77 o
3 5 0 230.08 268.96 18.67 o
5 5 0 9.39 18.96 17.24 <
7 5 0 86.11 121.12 9.48 o
1 7 0 84.64 92.78 21.91 o
3 7 0 16.25 -3.46 18.67 <
5 7 0 86.11 99.23 9.54 o
-1 2 1 1048.49 1038.25 5.98 o
1 2 1 1090.35 1096.91 6.07 o
-2 3 1 110.37 105.43 3.27 o
0 3 1 1391.97 1474.47 7.78 o
2 3 1 81.43 88.65 3.53 o
-3 4 1 723.21 720.76 11.29 o
-1 4 1 437.45 454.06 7.04 o
1 4 1 387.26 392.58 6.16 o
3 4 1 760.44 724.05 9.93 o
-4 5 1 94.63 110.32 10.00 o
-2 5 1 836.63 882.53 13.56 o
0 5 1 23.70 20.17 7.61 o
2 5 1 852.25 867.57 12.38 o
4 5 1 73.19 74.76 11.43 o
-5 6 1 256.16 227.13 7.39 o
-3 6 1 175.41 163.05 11.77 o
-1 6 1 370.99 377.52 15.33 o
1 6 1 409.19 374.04 16.19 o
3 6 1 145.87 146.85 10.25 o
5 6 1 273.80 280.43 10.62 o
-4 7 1 274.57 283.69 7.70 o
-2 7 1 43.82 47.10 11.06 o
0 7 1 511.47 545.82 27.74 o
2 7 1 37.11 53.48 13.18 o
4 7 1 284.02 296.09 10.63 o
-3 8 1 136.07 135.24 7.09 o
-1 8 1 149.78 146.93 6.56 o
1 8 1 127.95 118.24 7.96 o
3 8 1 152.89 155.20 7.26 o
2 0 2 1089.54 1079.23 8.73 o
4 0 2 91.14 91.04 6.41 o
6 0 2 180.87 189.98 26.06 o
8 0 2 22.20 31.71 9.25 o
-8 2 2 59.79 38.12 7.95 o
-6 2 2 42.01 76.84 18.18 o
-4 2 2 399.19 387.89 10.28 o
-2 2 2 158.42 157.09 4.40 o
0 2 2 1088.60 1040.81 6.72 o
2 2 2 169.22 175.10 4.64 o
4 2 2 387.60 428.67 14.24 o
6 2 2 49.49 79.04 20.43 o
8 2 2 56.58 38.12 7.56 o
-8 4 2 20.91 46.82 11.78 o
-6 4 2 122.35 108.26 17.49 o
-4 4 2 66.36 89.37 11.95 o
-2 4 2 399.16 443.28 15.12 o
0 4 2 91.13 84.39 5.01 o
2 4 2 387.60 371.35 8.42 o
4 4 2 80.64 89.88 10.05 o
6 4 2 112.10 132.89 15.28 o
8 4 2 25.77 20.83 10.83 <
-6 6 2 32.41 16.79 9.43 <
-4 6 2 122.36 105.07 17.45 o
-2 6 2 42.01 43.92 15.42 o
0 6 2 180.87 174.16 20.86 o
2 6 2 49.49 47.69 17.19 o
4 6 2 112.10 78.65 14.81 o
6 6 2 40.70 43.44 7.26 o
-4 8 2 20.91 0.60 7.81 <
-2 8 2 59.79 65.57 8.75 o
0 8 2 22.20 48.95 7.73 o
2 8 2 56.58 41.33 7.37 o
4 8 2 25.77 32.16 7.03 o
0 1 3 1044.17 1012.37 3.89 o
-1 2 3 450.49 434.94 3.91 o
1 2 3 494.81 488.78 3.64 o
-2 3 3 940.40 953.00 8.66 o
0 3 3 47.04 43.90 2.48 o
2 3 3 910.13 944.62 8.64 o
-3 4 3 211.56 224.11 8.46 o
-1 4 3 701.86 721.45 8.27 o
1 4 3 648.18 684.48 7.75 o
3 4 3 251.79 239.88 7.19 o
-4 5 3 454.59 437.93 13.92 o
-2 5 3 34.76 36.17 6.70 o
0 5 3 732.97 710.64 11.69 o
2 5 3 51.65 44.60 6.84 o
4 5 3 431.25 422.13 10.51 o
-5 6 3 79.18 79.70 6.33 o
-3 6 3 382.11 347.16 14.46 o
-1 6 3 317.05 333.11 12.21 o
1 6 3 358.39 354.66 16.11 o
3 6 3 350.01 361.97 13.55 o
5 6 3 98.70 85.62 10.59 o
-4 7 3 25.45 25.95 5.28 o
-2 7 3 329.80 323.10 14.01 o
0 7 3 14.22 13.27 18.66 <
2 7 3 322.48 292.65 14.12 o
4 7 3 35.96 42.25 10.13 o
-3 8 3 94.39 79.58 7.34 o
-1 8 3 192.99 180.32 7.38 o
1 8 3 169.54 165.32 7.19 o
3 8 3 112.66 123.95 6.66 o
-7 1 4 64.63 69.57 22.98 o
-5 1 4 229.91 238.97 12.38 o
-3 1 4 433.93 444.26 5.83 o
-1 1 4 824.95 800.24 4.98 o
1 1 4 895.94 918.28 5.05 o
3 1 4 387.01 408.46 5.60 o
5 1 4 253.81 244.32 12.15 o
7 1 4 54.36 72.02 21.79 o
-7 3 4 98.99 121.71 8.99 o
-5 3 4 85.52 100.71 13.41 o
-3 3 4 408.00 386.61 11.69 o
-1 3 4 433.89 461.40 10.82 o
1 3 4 387.01 395.31 7.29 o
3 3 4 440.99 520.50 12.00 o
5 3 4 67.67 62.78 14.35 o
7 3 4 106.72 122.59 22.69 o
-7 5 4 9.93 15.46 7.49 o
-5 5 4 161.68 166.65 19.46 o
-3 5 4 85.51 101.18 15.36 o
-1 5 4 229.90 200.48 12.82 o
1 5 4 253.78 264.33 11.80 o
3 5 4 67.67 89.32 12.41 o
5 5 4 171.90 181.42 14.56 o
7 5 4 5.79 25.24 9.87 o
-5 7 4 9.93 -23.28 8.71 <
-3 7 4 99.00 74.82 8.03 o
-1 7 4 64.63 9.03 25.91 <
1 7 4 54.36 15.84 21.26 <
3 7 4 106.72 127.20 17.72 o
5 7 4 5.79 6.36 6.05 <
0 1 5 848.08 872.06 3.98 o
-1 2 5 264.56 247.82 2.91 o
1 2 5 238.93 232.29 3.22 o
-2 3 5 899.12 885.58 9.71 o
0 3 5 4.98 5.66 3.22 <
2 3 5 918.03 1041.42 9.57 o
-3 4 5 97.22 106.68 8.31 o
-1 4 5 438.87 426.86 8.09 o
1 4 5 471.10 454.85 7.16 o
3 4 5 73.13 66.17 7.17 o
-4 5 5 442.52 441.39 14.62 o
-2 5 5 48.88 39.89 7.05 o
0 5 5 848.75 867.81 13.41 o
2 5 5 38.76 38.75 6.89 o
4 5 5 456.45 493.38 11.15 o
-5 6 5 36.34 37.92 4.85 o
-3 6 5 258.07 224.19 12.80 o
-1 6 5 166.97 167.68 13.86 o
1 6 5 141.83 132.47 9.67 o
3 6 5 277.26 259.29 13.04 o
5 6 5 25.60 22.34 10.98 o
-4 7 5 28.36 35.79 5.02 o
-2 7 5 384.45 385.68 15.65 o
0 7 5 44.90 109.94 16.39 o
2 7 5 388.66 420.64 16.96 o
4 7 5 22.92 34.38 4.71 o
-3 8 5 42.84 51.11 6.08 o
-1 8 5 90.18 95.41 6.99 o
1 8 5 104.35 91.82 6.47 o
3 8 5 32.41 23.80 6.03 o
0 0 6 1849.64 2000.97 13.08 o
2 0 6 16.22 12.51 2.55 o
4 0 6 720.54 706.25 8.97 o
6 0 6 1.34 3.20 8.21 <
8 0 6 89.09 106.08 11.42 o
-8 2 6 4.42 -13.84 8.55 <
-6 2 6 248.47 229.55 17.53 o
-4 2 6 10.56 2.03 5.90 <
-2 2 6 1121.75 1079.74 10.24 o
0 2 6 16.22 17.01 3.52 o
2 2 6 1115.20 1246.49 12.08 o
4 2 6 19.22 21.82 9.11 o
6 2 6 242.47 238.16 18.94 o
8 2 6 7.23 4.19 8.03 <
-6 4 6 13.29 12.63 5.79 o
-4 4 6 364.33 312.79 16.50 o
-2 4 6 10.56 3.01 9.37 <
0 4 6 720.37 737.43 17.05 o
2 4 6 19.22 27.00 8.37 o
4 4 6 353.28 374.65 16.60 o
6 4 6 21.81 36.51 18.68 <
-6 6 6 79.38 78.41 9.24 o
-4 6 6 13.29 25.13 7.13 o
-2 6 6 248.47 189.20 23.33 o
0 6 6 1.34 -16.16 17.66 <
2 6 6 242.48 264.45 16.53 o
4 6 6 21.81 14.59 14.37 <
6 6 6 72.17 66.28 8.16 o
-2 8 6 4.42 2.31 9.37 <
0 8 6 89.09 60.82 7.18 o
2 8 6 7.23 16.43 8.11 o
0 1 7 232.81 239.79 3.07 o
-1 2 7 493.99 502.07 4.64 o
1 2 7 462.06 472.78 4.85 o
-2 3 7 101.46 111.51 4.53 o
0 3 7 504.16 491.48 6.71 o
2 3 7 125.14 144.59 5.12 o
-3 4 7 409.30 412.20 10.61 o
-1 4 7 319.27 301.41 8.13 o
1 4 7 360.91 351.40 6.45 o
3 4 7 377.53 418.94 10.68 o
-4 5 7 68.62 56.21 9.70 o
-2 5 7 336.24 322.52 11.91 o
0 5 7 3.95 0.77 9.33 <
2 5 7 322.69 334.10 11.53 o
4 5 7 87.73 76.98 9.30 o
-5 6 7 141.66 126.43 6.20 o
-3 6 7 148.70 125.15 13.67 o
-1 6 7 308.76 290.76 13.09 o
1 6 7 275.76 280.77 11.63 o
3 6 7 174.62 219.54 13.42 o
5 6 7 125.96 143.36 5.77 o
-4 7 7 106.99 107.29 6.33 o
-2 7 7 6.45 5.74 4.75 <
0 7 7 180.51 151.28 17.84 o
2 7 7 12.41 5.65 12.60 <
4 7 7 98.53 117.86 5.70 o
-1 8 7 111.29 104.50 8.20 o
1 8 7 129.66 126.36 6.15 o
-7 1 8 82.19 101.46 13.71 o
-5 1 8 217.82 212.14 15.49 o
-3 1 8 499.76 472.03 9.59 o
-1 1 8 788.71 827.44 7.53 o
1 1 8 712.65 763.24 7.89 o
3 1 8 554.23 577.14 10.43 o
5 1 8 187.60 180.12 11.75 o
7 1 8 95.43 92.99 8.07 o
-7 3 8 38.24 25.23 6.38 o
-5 3 8 206.84 205.87 11.76 o
-3 3 8 298.24 303.94 14.45 o
-1 3 8 499.80 474.07 8.72 o
1 3 8 554.23 519.91 10.46 o
3 3 8 258.07 278.05 10.50 o
5 3 8 229.86 236.99 12.86 o
7 3 8 28.43 83.10 8.54 o
-5 5 8 51.23 53.13 7.08 o
-3 5 8 206.84 210.97 19.19 o
-1 5 8 217.82 194.42 15.06 o
1 5 8 187.60 187.23 14.26 o
3 5 8 229.86 230.24 12.67 o
5 5 8 38.11 26.71 15.91 <
-3 7 8 38.24 37.09 8.23 o
-1 7 8 82.19 84.17 29.58 o
1 7 8 95.43 58.43 17.54 o
3 7 8 28.43 33.55 6.94 o
0 1 9 96.84 109.41 2.87 o
-1 2 9 327.16 329.55 4.87 o
1 2 9 338.66 353.34 5.73 o
-2 3 9 16.71 19.01 4.43 o
0 3 9 586.62 578.62 7.57 o
2 3 9 8.13 -2.22 5.78 <
-3 4 9 305.18 302.22 10.90 o
-1 4 9 93.35 96.21 7.75 o
1 4 9 78.24 74.70 7.00 o
3 4 9 316.56 317.28 11.44 o
-4 5 9 20.28 32.57 10.98 o
-2 5 9 427.32 419.97 12.03 o
0 5 9 25.58 27.38 9.17 o
2 5 9 432.16 459.57 11.12 o
4 5 9 14.36 18.22 13.54 <
-3 6 9 23.47 27.98 10.35 o
-1 6 9 105.20 95.18 13.80 o
1 6 9 116.89 150.43 13.60 o
3 6 9 15.08 36.21 10.31 o
-2 7 9 23.48 30.69 6.29 o
0 7 9 275.06 264.74 8.47 o
2 7 9 22.00 28.66 5.29 o
0 0 10 168.25 156.63 7.33 o
2 0 10 1043.24 1102.46 12.52 o
4 0 10 56.41 26.78 10.37 o
6 0 10 238.33 198.74 8.59 o
-6 2 10 8.91 11.79 6.54 <
-4 2 10 495.87 459.52 21.63 o
-2 2 10 100.14 94.96 3.87 o
0 2 10 1043.08 1081.31 12.32 o
2 2 10 104.14 99.25 6.67 o
4 2 10 490.82 523.65 18.47 o
6 2 10 12.96 -8.17 6.62 <
-6 4 10 129.49 140.54 10.28 o
-4 4 10 22.98 5.48 6.86 <
-2 4 10 495.87 494.00 18.91 o
0 4 10 56.41 44.76 6.64 o
2 4 10 490.82 491.06 12.71 o
4 4 10 30.23 20.25 10.61 <
6 4 10 123.51 177.27 10.31 o
-4 6 10 129.49 141.61 11.97 o
-2 6 10 8.91 3.09 19.80 <
0 6 10 238.35 242.08 22.44 o
2 6 10 12.96 34.69 16.77 o
4 6 10 123.51 127.51 10.19 o
0 1 11 174.71 185.05 4.99 o
-1 2 11 130.62 142.87 5.03 o
1 2 11 149.35 171.20 6.27 o
-2 3 11 202.05 182.71 8.61 o
0 3 11 36.82 44.69 6.50 o
2 3 11 187.53 177.62 8.75 o
-3 4 11 99.34 93.81 5.01 o
-1 4 11 224.02 193.01 9.65 o
1 4 11 198.49 180.49 8.43 o
3 4 11 119.44 128.87 11.00 o
-4 5 11 107.35 106.35 6.47 o
-2 5 11 23.59 45.29 15.07 o
0 5 11 131.17 107.86 10.50 o
2 5 11 32.37 51.30 11.65 o
4 5 11 95.13 125.49 5.08 o
-3 6 11 120.94 114.40 7.01 o
-1 6 11 125.15 135.34 18.12 o
1 6 11 145.63 130.65 11.57 o
3 6 11 104.82 109.16 5.31 o
0 7 11 4.19 17.85 6.92 o
-5 1 12 157.82 82.40 16.58 o
-3 1 12 346.83 341.82 14.64 o
-1 1 12 482.97 479.83 12.03 o
1 1 12 534.35 562.68 13.29 o
3 1 12 307.72 331.81 15.68 o
5 1 12 180.82 190.51 7.94 o
-5 3 12 97.65 103.65 12.26 o
-3 3 12 248.33 236.64 9.92 o
-1 3 12 346.83 343.32 12.19 o
1 3 12 307.72 313.74 9.73 o
3 3 12 278.48 340.62 18.62 o
5 3 12 80.06 88.47 7.04 o
-3 5 12 97.65 98.11 9.83 o
-1 5 12 157.82 167.12 34.13 o
1 5 12 180.83 193.05 6.34 o
3 5 12 80.06 100.21 7.71 o
0 1 13 151.57 162.45 6.36 o
-1 2 13 36.83 38.02 8.13 o
1 2 13 32.24 32.07 6.13 o
-2 3 13 213.95 200.76 9.85 o
0 3 13 1.15 14.19 8.66 <
2 3 13 217.44 207.68 10.94 o
-3 4 13 7.53 0.63 6.64 <
-1 4 13 86.69 79.71 9.33 o
1 4 13 92.56 88.86 7.04 o
3 4 13 3.33 17.85 4.56 o
-2 5 13 10.90 6.29 5.69 <
0 5 13 224.61 198.47 7.46 o
2 5 13 9.19 7.35 4.18 <
-1 6 13 18.89 6.03 6.84 <
1 6 13 14.96 21.35 6.31 o
0 0 14 632.33 677.23 15.55 o
2 0 14 107.31 132.07 11.88 o
4 0 14 311.88 306.37 23.04 o
-4 2 14 38.18 16.79 19.49 <
-2 2 14 445.69 415.36 14.23 o
0 2 14 107.31 123.72 6.46 o
2 2 14 443.83 452.91 14.17 o
4 2 14 40.87 66.82 7.19 o
-4 4 14 162.82 179.53 14.05 o
-2 4 14 38.18 55.73 7.50 o
0 4 14 311.86 300.53 8.05 o
2 4 14 40.87 65.83 7.33 o
4 4 14 158.94 171.31 9.09 o
0 1 15 38.86 43.56 4.03 o
-1 2 15 78.37 68.66 7.00 o
1 2 15 68.96 69.46 7.86 o
-2 3 15 27.84 68.01 12.44 o
0 3 15 63.48 65.79 10.75 o
2 3 15 35.34 44.60 5.22 o
-1 4 15 64.22 77.60 6.18 o
1 4 15 77.10 67.23 5.64 o
-3 1 16 149.16 158.77 10.44 o
-1 1 16 235.07 244.79 8.71 o
1 1 16 207.72 225.48 8.27 o
3 1 16 170.48 144.55 8.41 o
-1 3 16 149.16 134.01 8.47 o
1 3 16 170.48 164.36 8.69 o
0 1 17 11.99 21.86 3.99 o
-1 2 17 44.92 35.40 4.67 o
1 2 17 46.83 38.41 5.10 o
0 0 18 56.70 54.71 9.14 o
3 1 0 331.07 344.93 5.15 o
5 1 0 78.35 92.67 9.86 o
7 1 0 59.58 91.12 27.03 o
1 3 0 331.11 321.47 4.70 o
3 3 0 80.85 97.59 6.97 o
5 3 0 161.94 169.12 17.01 o
7 3 0 11.44 34.02 23.15 <
1 5 0 78.35 70.06 4.98 o
3 5 0 161.95 165.58 9.59 o
5 5 0 6.61 6.36 11.34 <
7 5 0 60.61 49.46 20.45 o
1 7 0 59.58 57.77 5.66 o
3 7 0 11.44 12.99 4.83 o
5 7 0 60.61 54.97 8.19 o
-1 2 1 737.99 710.73 3.93 o
1 2 1 767.63 768.47 4.07 o
-2 3 1 77.75 86.24 3.77 o
0 3 1 979.87 1024.44 5.36 o
2 3 1 57.26 59.68 3.34 o
-3 4 1 508.96 504.47 8.75 o
-1 4 1 308.04 315.77 4.97 o
1 4 1 272.51 284.63 4.66 o
3 4 1 535.20 505.31 8.65 o
-4 5 1 66.66 53.31 7.15 o
-2 5 1 588.84 583.67 9.72 o
0 5 1 16.68 17.30 4.48 o
2 5 1 599.89 590.88 9.94 o
4 5 1 51.48 53.41 5.76 o
-5 6 1 180.26 147.78 18.30 o
-3 6 1 123.54 125.19 8.77 o
-1 6 1 261.08 228.01 10.25 o
1 6 1 288.14 285.59 9.87 o
3 6 1 102.62 91.03 8.48 o
5 6 1 192.75 173.86 12.44 o
-4 7 1 193.25 172.98 9.62 o
-2 7 1 30.86 1.52 12.73 <
0 7 1 360.07 361.64 15.96 o
2 7 1 26.11 53.39 13.42 o
4 7 1 199.93 196.63 9.10 o
-3 8 1 95.75 88.85 5.34 o
-1 8 1 105.48 93.47 5.76 o
1 8 1 90.03 78.66 5.58 o
3 8 1 107.66 130.53 6.60 o
2 0 2 765.98 779.99 6.17 o
4 0 2 64.16 73.64 5.30 o
6 0 2 127.32 106.38 12.94 o
8 0 2 15.63 7.26 8.13 <
-8 2 2 42.10 7.57 10.13 <
-6 2 2 29.56 47.75 19.25 o
-4 2 2 280.99 321.99 10.63 o
-2 2 2 111.50 107.42 2.93 o
0 2 2 766.31 727.52 4.10 o
2 2 2 119.13 116.33 3.59 o
4 2 2 272.78 307.17 9.37 o
6 2 2 34.86 19.06 14.23 <
8 2 2 39.82 38.92 7.15 o
-8 4 2 14.71 22.56 8.26 o
-6 4 2 86.15 121.86 27.39 o
-4 4 2 46.69 64.27 10.95 o
-2 4 2 281.03 282.62 5.68 o
0 4 2 64.16 63.02 3.18 o
2 4 2 272.82 274.47 9.45 o
4 4 2 56.79 42.86 10.61 o
6 4 2 78.89 53.23 16.26 o
8 4 2 18.15 15.22 7.90 <
-6 6 2 22.80 24.66 9.30 o
-4 6 2 86.15 73.83 15.13 o
-2 6 2 29.56 24.53 5.46 o
0 6 2 127.33 117.46 9.03 o
2 6 2 34.86 34.70 8.07 o
4 6 2 78.89 67.69 7.53 o
6 6 2 28.67 31.04 7.31 o
-4 8 2 14.71 -1.47 8.13 <
-2 8 2 42.10 38.33 6.84 o
0 8 2 15.63 23.38 5.85 o
2 8 2 39.82 43.03 8.21 o
4 8 2 18.15 -0.90 7.41 <
0 1 3 735.42 657.97 3.96 o
-1 2 3 316.98 316.14 3.51 o
1 2 3 348.41 356.33 2.79 o
-2 3 3 662.05 678.31 7.72 o
0 3 3 33.12 29.84 2.00 o
2 3 3 640.49 665.19 6.81 o
-3 4 3 148.85 149.20 6.38 o
-1 4 3 494.24 515.82 6.80 o
1 4 3 456.23 478.62 4.95 o
3 4 3 177.32 190.91 6.46 o
-4 5 3 320.04 267.38 10.40 o
-2 5 3 24.43 13.73 5.85 o
0 5 3 516.03 520.33 8.38 o
2 5 3 36.39 26.49 5.47 o
4 5 3 303.49 294.35 7.62 o
-5 6 3 55.70 54.31 24.87 o
-3 6 3 269.04 247.34 14.50 o
-1 6 3 223.11 248.12 10.75 o
1 6 3 252.39 267.63 10.09 o
3 6 3 246.31 233.64 9.19 o
5 6 3 69.52 54.03 7.75 o
-4 7 3 17.89 9.76 5.69 <
-2 7 3 232.18 254.86 15.04 o
0 7 3 10.01 -8.08 9.66 <
2 7 3 226.99 218.20 9.39 o
4 7 3 25.34 9.90 7.26 <
-3 8 3 66.41 54.60 6.94 o
-1 8 3 135.90 132.82 5.60 o
1 8 3 119.30 123.81 5.86 o
3 8 3 79.35 80.74 5.45 o
-7 1 4 45.52 73.29 15.46 o
-5 1 4 161.80 153.09 9.66 o
-3 1 4 305.53 333.79 9.03 o
-1 1 4 580.39 577.66 5.73 o
1 1 4 631.03 586.98 5.90 o
3 1 4 272.36 304.77 6.52 o
5 1 4 178.72 176.46 11.30 o
7 1 4 38.25 15.34 18.25 <
-7 3 4 69.67 36.82 23.03 <
-5 3 4 60.24 41.05 11.08 o
-3 3 4 287.16 288.16 9.75 o
-1 3 4 305.59 303.43 3.99 o
1 3 4 272.33 266.54 4.12 o
3 3 4 310.48 355.09 9.92 o
5 3 4 47.60 83.97 14.08 o
7 3 4 75.14 24.77 18.40 <
-7 5 4 7.00 21.67 14.44 <
-5 5 4 113.79 88.22 19.53 o
-3 5 4 60.24 61.25 4.46 o
-1 5 4 161.80 177.78 7.21 o
1 5 4 178.71 174.92 7.85 o
3 5 4 47.60 49.24 10.04 o
5 5 4 121.03 118.81 12.84 o
7 5 4 4.07 -4.29 5.66 <
-5 7 4 7.00 9.94 9.44 <
-3 7 4 69.67 40.58 8.86 o
-1 7 4 45.52 32.85 10.56 o
1 7 4 38.25 25.54 12.09 o
3 7 4 75.14 93.22 7.42 o
5 7 4 4.07 6.43 8.43 <
0 1 5 597.16 544.48 5.94 o
-1 2 5 186.29 183.47 3.19 o
1 2 5 168.15 167.85 3.69 o
-2 3 5 633.01 670.04 8.20 o
0 3 5 3.51 5.07 2.76 <
2 3 5 646.39 719.33 8.04 o
-3 4 5 68.49 68.15 6.36 o
-1 4 5 308.90 303.76 6.56 o
1 4 5 331.72 330.33 5.21 o
3 4 5 51.43 47.53 5.42 o
-4 5 5 311.50 307.60 12.64 o
-2 5 5 34.43 47.71 5.93 o
0 5 5 597.55 593.85 9.27 o
2 5 5 27.26 24.17 6.52 o
4 5 5 321.34 347.03 9.91 o
-5 6 5 25.60 -5.51 20.17 <
-3 6 5 181.62 164.56 11.24 o
-1 6 5 117.59 135.52 10.27 o
1 6 5 99.79 129.58 9.52 o
3 6 5 195.21 202.41 9.49 o
5 6 5 18.00 18.24 8.54 o
-4 7 5 19.97 24.84 5.37 o
-2 7 5 270.64 277.80 11.95 o
0 7 5 31.61 20.44 11.08 <
2 7 5 273.61 301.66 14.39 o
4 7 5 16.12 22.88 4.95 o
-3 8 5 30.18 41.15 6.12 o
-1 8 5 63.45 77.56 5.46 o
1 8 5 73.49 70.65 5.38 o
3 8 5 22.79 37.66 5.09 o
0 0 6 1302.05 1215.97 17.46 o
2 0 6 11.42 11.68 4.52 o
4 0 6 507.34 520.42 12.15 o
6 0 6 0.94 15.10 13.37 <
8 0 6 62.72 49.92 7.33 o
-8 2 6 3.10 9.63 7.59 <
-6 2 6 174.93 183.42 15.06 o
-4 2 6 7.41 -0.33 13.40 <
-2 2 6 789.49 841.38 11.39 o
0 2 6 11.42 4.75 3.17 <
2 2 6 785.02 836.17 11.91 o
4 2 6 13.55 14.72 7.51 <
6 2 6 170.69 197.31 15.76 o
8 2 6 5.09 11.61 6.45 <
-6 4 6 9.33 32.00 23.59 <
-4 4 6 256.50 243.27 8.79 o
-2 4 6 7.41 12.35 3.33 o
0 4 6 507.16 528.09 9.79 o
2 4 6 13.55 19.12 7.12 o
4 4 6 248.66 270.04 14.21 o
6 4 6 15.37 10.52 15.12 <
-6 6 6 55.89 58.67 9.89 o
-4 6 6 9.33 8.43 7.80 <
-2 6 6 174.93 158.43 18.48 o
0 6 6 0.94 -17.68 11.28 <
2 6 6 170.68 186.03 16.08 o
4 6 6 15.37 14.34 5.51 o
6 6 6 50.79 48.11 7.51 o
-2 8 6 3.10 0.03 7.43 <
0 8 6 62.72 58.02 5.88 o
2 8 6 5.09 16.41 8.18 o
0 1 7 163.88 145.12 4.20 o
-1 2 7 347.81 360.85 4.58 o
1 2 7 325.20 327.57 5.03 o
-2 3 7 71.37 80.70 5.87 o
0 3 7 354.94 363.36 5.98 o
2 3 7 88.14 99.05 5.87 o
-3 4 7 288.19 295.31 10.59 o
-1 4 7 224.67 241.81 7.84 o
1 4 7 254.18 257.49 6.63 o
3 4 7 265.71 291.00 9.36 o
-4 5 7 48.26 27.14 9.22 o
-2 5 7 236.72 239.74 11.17 o
0 5 7 2.78 4.94 7.80 <
2 5 7 227.14 233.11 9.83 o
4 5 7 61.80 58.38 8.05 o
-5 6 7 99.75 107.89 6.70 o
-3 6 7 104.63 114.64 12.39 o
-1 6 7 217.43 204.54 12.75 o
1 6 7 194.07 192.55 11.29 o
3 6 7 122.98 127.08 12.76 o
5 6 7 88.63 100.79 5.27 o
-4 7 7 75.33 78.27 7.81 o
-2 7 7 4.52 -1.63 9.00 <
0 7 7 127.08 148.44 10.71 o
2 7 7 8.75 20.43 12.96 <
4 7 7 69.34 85.75 5.44 o
-1 8 7 78.31 74.64 5.89 o
1 8 7 91.32 85.23 5.94 o
-7 1 8 57.83 61.83 7.88 o
-5 1 8 153.40 168.93 17.84 o
-3 1 8 351.72 352.51 11.82 o
-1 1 8 555.29 542.42 10.86 o
1 1 8 501.51 488.77 9.72 o
3 1 8 390.33 374.29 12.01 o
5 1 8 132.01 153.36 15.82 o
7 1 8 67.21 62.33 7.12 o
-7 3 8 26.94 39.35 7.52 o
-5 3 8 145.55 149.76 15.83 o
-3 3 8 210.03 205.15 13.53 o
-1 3 8 351.68 360.29 9.82 o
1 3 8 390.26 377.10 8.79 o
3 3 8 181.58 182.46 13.57 o
5 3 8 161.86 169.38 13.25 o
7 3 8 19.99 19.31 5.55 o
-5 5 8 36.09 36.92 7.40 o
-3 5 8 145.56 154.81 7.97 o
-1 5 8 153.40 127.77 15.15 o
1 5 8 132.00 141.95 13.02 o
3 5 8 161.86 135.21 15.66 o
5 5 8 26.80 26.91 6.24 o
-3 7 8 26.94 20.64 7.66 o
-1 7 8 57.83 84.57 18.09 o
1 7 8 67.20 54.93 7.09 o
3 7 8 19.99 10.35 7.45 <
0 1 9 68.17 74.27 7.36 o
-1 2 9 230.28 251.40 7.08 o
1 2 9 238.41 230.82 7.70 o
-2 3 9 11.78 12.23 7.08 <
0 3 9 412.98 432.39 8.05 o
2 3 9 5.70 17.20 6.69 o
-3 4 9 214.80 225.76 10.82 o
-1 4 9 65.75 77.77 9.32 o
1 4 9 55.05 61.46 7.05 o
3 4 9 222.87 203.77 9.75 o
-4 5 9 14.29 29.67 9.16 o
-2 5 9 300.80 310.77 12.65 o
0 5 9 18.01 23.29 10.87 o
2 5 9 304.23 313.44 11.68 o
4 5 9 10.10 25.58 12.12 o
-3 6 9 16.54 30.22 5.13 o
-1 6 9 74.03 89.49 13.04 o
1 6 9 82.31 80.71 12.51 o
3 6 9 10.60 25.05 10.73 o
-2 7 9 16.54 23.80 5.48 o
0 7 9 193.65 207.60 6.91 o
2 7 9 15.48 13.74 4.32 o
0 0 10 118.44 129.02 26.44 o
2 0 10 734.27 690.21 17.28 o
4 0 10 39.71 26.94 16.54 <
6 0 10 167.80 197.50 8.56 o
-6 2 10 6.26 -9.19 5.84 <
-4 2 10 349.08 328.26 17.67 o
-2 2 10 70.48 65.58 9.08 o
0 2 10 734.27 701.44 15.75 o
2 2 10 73.32 93.14 14.98 o
4 2 10 345.50 353.10 13.59 o
6 2 10 9.13 8.75 10.25 <
-6 4 10 91.17 105.56 8.18 o
-4 4 10 16.16 11.89 5.94 o
-2 4 10 349.08 392.56 13.90 o
0 4 10 39.71 25.50 11.33 o
2 4 10 345.48 358.06 15.81 o
4 4 10 21.29 -9.99 15.27 <
6 4 10 86.93 101.85 7.95 o
-4 6 10 91.17 104.04 18.49 o
-2 6 10 6.26 -7.86 7.17 <
0 6 10 167.79 130.51 20.10 o
2 6 10 9.13 17.00 5.81 o
4 6 10 86.93 70.45 7.18 o
0 1 11 122.98 82.92 11.97 o
-1 2 11 91.91 104.46 8.58 o
1 2 11 105.17 101.82 9.67 o
-2 3 11 142.27 152.92 11.13 o
0 3 11 25.92 38.98 8.55 o
2 3 11 131.97 123.25 12.27 o
-3 4 11 69.88 57.61 10.60 o
-1 4 11 157.75 130.03 9.17 o
1 4 11 139.67 166.69 8.82 o
3 4 11 84.12 109.34 11.76 o
-4 5 11 75.59 74.94 5.58 o
-2 5 11 16.59 11.64 4.56 o
0 5 11 92.34 86.87 10.26 o
2 5 11 22.81 30.21 10.85 o
4 5 11 66.94 81.61 5.46 o
-3 6 11 85.17 92.85 6.98 o
-1 6 11 88.06 104.11 6.86 o
1 6 11 102.56 123.66 6.55 o
3 6 11 73.76 88.95 5.56 o
0 7 11 2.95 -5.28 5.79 <
-5 1 12 111.06 102.52 8.77 o
-3 1 12 244.22 231.19 17.98 o
-1 1 12 339.83 320.52 20.55 o
1 1 12 376.21 307.74 33.25 o
3 1 12 216.55 203.79 17.60 o
5 1 12 127.34 106.62 11.38 o
-5 3 12 68.78 70.36 6.90 o
-3 3 12 174.74 163.66 17.36 o
-1 3 12 244.22 257.37 13.50 o
1 3 12 216.54 239.60 11.02 o
3 3 12 196.09 198.88 21.06 o
5 3 12 56.32 61.41 7.31 o
-3 5 12 68.78 58.74 9.03 o
-1 5 12 111.05 135.33 9.71 o
1 5 12 127.34 129.31 7.46 o
3 5 12 56.32 46.62 6.84 o
0 1 13 106.69 135.77 25.08 o
-1 2 13 25.94 14.25 12.11 <
1 2 13 22.68 25.95 14.73 <
-2 3 13 150.60 147.08 10.43 o
0 3 13 0.81 0.39 7.90 <
2 3 13 153.06 98.36 16.20 o
-3 4 13 5.31 3.91 4.84 <
-1 4 13 61.01 63.64 4.61 o
1 4 13 65.17 67.16 9.45 o
3 4 13 2.33 9.55 14.17 <
-2 5 13 7.68 -2.22 5.66 <
0 5 13 158.12 159.49 6.77 o
2 5 13 6.47 24.33 5.12 o
-1 6 13 13.30 14.02 5.72 o
1 6 13 10.52 5.05 5.85 <
0 0 14 444.99 429.18 23.38 o
2 0 14 75.54 90.89 6.14 o
4 0 14 219.55 246.01 11.54 o
-4 2 14 26.87 33.34 6.72 o
-2 2 14 313.73 313.01 10.51 o
0 2 14 75.54 78.40 16.69 o
2 2 14 312.39 454.51 35.55 o
4 2 14 28.77 23.02 21.86 <
-4 4 14 114.63 114.50 8.82 o
-2 4 14 26.87 39.28 6.31 o
0 4 14 219.51 208.19 10.44 o
2 4 14 28.77 38.01 7.51 o
4 4 14 111.88 100.32 8.75 o
0 1 15 27.36 45.91 7.67 o
-1 2 15 55.19 40.03 4.60 o
1 2 15 48.52 38.18 5.85 o
-2 3 15 19.58 44.77 5.41 o
0 3 15 44.68 30.32 15.27 <
2 3 15 24.89 47.16 5.41 o
-1 4 15 45.18 30.29 9.08 o
1 4 15 54.30 66.42 7.12 o
-3 1 16 104.95 103.93 11.75 o
-1 1 16 165.54 147.70 9.34 o
1 1 16 146.14 102.39 12.51 o
3 1 16 120.05 123.03 14.28 o
-1 3 16 104.95 91.87 9.14 o
1 3 16 120.05 134.79 9.90 o
0 1 17 8.44 11.94 5.93 o
-1 2 17 31.62 11.83 5.76 o
1 2 17 32.97 25.30 8.16 o
0 0 18 39.92 57.49 14.65 o
