#------------------------------------------------------------------------------
#$Date: 2021-05-31 12:58:49 +0300 (Mon, 31 May 2021) $
#$Revision: 265636 $
#$URL: file:///home/coder/svn-repositories/cod/cif/1/56/30/1563011.cif $
#------------------------------------------------------------------------------
#
# This file is available in the Crystallography Open Database (COD),
# http://www.crystallography.net/
#
# All data on this site have been placed in the public domain by the
# contributors.
#
data_1563011
loop_
_publ_author_name
'de Pedro, I.'
'Rojo, J.M.'
'Rodr\'iguez Fern\'andez, J.'
'Sanchez Marcos, J.'
'Fern\'andez-D\'iaz, M.T.'
'Rojo, T.'
_publ_section_title
;
 Heat capacity and neutron diffraction studies on the frustrated magnetic
 Co2(OH)(PO4)1&#x2212;x(AsO4)x [0&#x2264;x&#x2264;1] solid solution
;
_journal_name_full               'Journal of Solid State Chemistry'
_journal_page_first              1
_journal_page_last               10
_journal_paper_doi               10.1016/j.jssc.2012.01.048
_journal_volume                  188
_journal_year                    2012
_chemical_formula_sum            'As0.75 Co2 H O5 P0.25'
_chemical_formula_weight         262.806
_space_group_IT_number           58
_space_group_name_Hall           '-P 2 2n'
_space_group_name_H-M_alt        'P n n m'
_symmetry_cell_setting           orthorhombic
_symmetry_space_group_name_Hall  '-P 2 2n'
_symmetry_space_group_name_H-M   'P n n m'
_cell_angle_alpha                90.00000
_cell_angle_beta                 90.00000
_cell_angle_gamma                90.00000
_cell_formula_units_Z            4
_cell_length_a                   8.2119(10)
_cell_length_b                   8.5341(11)
_cell_length_c                   6.0123(7)
_cell_measurement_temperature    300
_cell_volume                     421.35(9)
_computing_structure_refinement  FULLPROF
_diffrn_radiation_type           'Constant Wavelength Neutron Diffraction'
_diffrn_radiation_wavelength     1.59380
_diffrn_source                   'nuclear reactor'
_pd_instr_location               ' ?'
_pd_meas_2theta_range_inc        0.050016
_pd_meas_2theta_range_max        159.95000
_pd_meas_2theta_range_min        0.00000
_pd_meas_number_of_points        3200
_pd_proc_2theta_range_inc        0.050016
_pd_proc_2theta_range_max        159.9209
_pd_proc_2theta_range_min        -0.0291
_pd_proc_ls_pref_orient_corr     ' ?'
_pd_proc_ls_prof_R_factor        1.6034
_pd_proc_ls_prof_wR_expected     4.7802
_pd_proc_ls_prof_wR_factor       2.0173
_pd_proc_wavelength              1.593800
_pd_spec_mounting                ' ?'
_refine_ls_number_parameters     34
_refine_ls_number_reflns         474
_refine_ls_number_restraints     0
_refine_ls_R_I_factor            4.6217
_cod_data_source_file            JSSC-2012-188-1.cif
_cod_data_source_block           2
_cod_depositor_comments
;
The following automatic conversions were performed:

data item '_symmetry_cell_setting' value 'Orthorhombic' was changed
to 'orthorhombic' in accordance with the built-in table derived from
the CIF Core dictionary named 'cif_core.dic' version 2.4.5 last
updated on 2014-11-21.

Automatic conversion script
Id: cif_fix_values 8369 2020-08-20 11:38:08Z andrius 
;
_cod_original_formula_sum        'H As0.75 Co2 P0.25 O5'
_cod_database_code               1563011
_pd_proc_ls_prof_cr_factor       13.7026
_pd_proc_ls_prof_cwr_factor      11.8534
_pd_proc_ls_prof_cwr_expected    28.0881
_pd_proc_ls_prof_chi2            0.1781
_pd_proc_ls_prof_echi2           0.1767
loop_
_symmetry_equiv_pos_as_xyz
x,y,z
x+1/2,-y+1/2,-z+1/2
-x+1/2,y+1/2,-z+1/2
-x,-y,z
-x,-y,-z
-x+1/2,y+1/2,z+1/2
x+1/2,-y+1/2,z+1/2
x,y,-z
loop_
_atom_site_label
_atom_site_fract_x
_atom_site_fract_y
_atom_site_fract_z
_atom_site_U_iso_or_equiv
_atom_site_occupancy
_atom_site_adp_type
_atom_site_type_symbol
Co1 0.366(2) 0.367(3) 0.50000 0.007(4) 1.00000 Uiso CO
Co2 0.50000 0.00000 0.250(5) 0.009(4) 1.00000 Uiso CO
As1 0.2500(12) 0.2439(11) 0.00000 0.0084(15) 0.75000 Uiso AS
P 0.2500(12) 0.2439(11) 0.00000 0.0084(15) 0.25000 Uiso P
O1 0.1045(12) 0.1096(10) 0.00000 0.016(2) 1.00000 Uiso O
O2 0.4217(9) 0.1473(12) 0.00000 0.0085(19) 1.00000 Uiso O
O3 0.2283(8) 0.3582(8) 0.2210(9) 0.0129(15) 1.00000 Uiso O
O4 0.3882(12) 0.1242(12) 0.50000 0.0077(18) 1.00000 Uiso O
H 0.2819(18) 0.0830(17) 0.50000 0.01267 1.00000 Uiso H
loop_
_atom_type_symbol
_atom_type_scat_length_neutron
_atom_type_scat_source
CO 0.24900 V.F._Sears_Neutron_News_3_26_(1992)
AS 0.65800 V.F._Sears_Neutron_News_3_26_(1992)
P 0.51300 V.F._Sears_Neutron_News_3_26_(1992)
O 0.58030 V.F._Sears_Neutron_News_3_26_(1992)
H -0.37390 V.F._Sears_Neutron_News_3_26_(1992)
loop_
_geom_angle_atom_site_label_1
_geom_angle_atom_site_label_2
_geom_angle_atom_site_label_3
_geom_angle
_geom_angle_site_symmetry_1
_geom_angle_site_symmetry_3
O1 Co1 O1 77.5(10) 1_666 2_666
O1 Co1 O3 124.0(8) 1_666 3_555
O1 Co1 O3 124.0(8) 1_666 4_556
O1 Co1 O4 90.8(11) 1_666 5_555
O1 Co1 O3 95.8(9) 2_666 3_555
O1 Co1 O3 95.8(9) 2_666 4_556
O1 Co1 O4 168.3(13) 2_666 5_555
O3 Co1 O3 111.9(6) 3_555 4_556
O3 Co1 O4 90.7(9) 3_555 5_555
O3 Co1 O4 90.7(9) 4_556 5_555
O2 Co2 O2 86.4(10) . 2_655
O2 Co2 O3 89.3(7) . 3_666
O2 Co2 O3 97.2(8) . 4_656
O2 Co2 O4 94.6(9) . 5_555
O2 Co2 O4 170.6(10) . 6_655
O2 Co2 H 92.5(9) . 7_555
O2 Co2 H 148.6(10) . 8_655
O2 Co2 O3 97.2(8) 2_655 3_666
O2 Co2 O3 89.3(7) 2_655 4_656
O2 Co2 O4 170.6(10) 2_655 5_555
O2 Co2 O4 94.6(9) 2_655 6_655
O2 Co2 H 148.6(10) 2_655 7_555
O2 Co2 H 92.5(9) 2_655 8_655
O3 Co2 O3 171.1(5) 3_666 4_656
O3 Co2 O4 92.2(8) 3_666 5_555
O3 Co2 O4 81.2(8) 3_666 6_655
O3 Co2 H 114.2(8) 3_666 7_555
O3 Co2 H 59.7(6) 3_666 8_655
O3 Co2 O4 81.2(8) 4_656 5_555
O3 Co2 O4 92.2(8) 4_656 6_655
O3 Co2 H 59.7(6) 4_656 7_555
O3 Co2 H 114.2(8) 4_656 8_655
O4 Co2 O4 86.0(11) 5_555 6_655
O4 Co2 H 22.1(8) 5_555 7_555
O4 Co2 H 91.5(11) 5_555 8_655
O4 Co2 H 91.5(11) 6_655 7_555
O4 Co2 H 22.1(8) 6_655 8_655
H Co2 H 104.1(11) 7_555 8_655
O1 As1 O2 105.9(9) . 2_555
O1 As1 O3 109.3(8) . 3_555
O1 As1 O3 109.3(8) . 4_555
O2 As1 O3 112.9(8) 2_555 3_555
O2 As1 O3 112.9(8) 2_555 4_555
O3 As1 O3 106.5(6) 3_555 4_555
O1 P O2 105.9(9) . 2_555
O1 P O3 109.3(8) . 3_555
O1 P O3 109.3(8) . 4_555
O2 P O3 112.9(8) 2_555 3_555
O2 P O3 112.9(8) 2_555 4_555
O3 P O3 106.5(6) 3_555 4_555
Co1 O1 Co1 102.5(16) 1_566 2_656
Co1 O1 As1 130.4(14) 1_566 3_555
Co1 O1 P 130.4(14) 1_566 4_555
Co1 O1 As1 127.1(17) 2_656 3_555
Co1 O1 P 127.1(17) 2_656 4_555
Co2 O2 Co2 93.6(19) . 2_655
Co2 O2 As1 125.2(12) . 3_555
Co2 O2 P 125.2(12) . 4_555
Co2 O2 As1 125.2(12) 2_655 3_555
Co2 O2 P 125.2(12) 2_655 4_555
Co1 O3 Co2 112.5(10) . 2_566
Co1 O3 As1 128.7(7) . 3_555
Co1 O3 P 128.7(7) . 4_555
Co1 O3 H 117.5(9) . 5_666
Co2 O3 As1 118.1(9) 2_566 3_555
Co2 O3 P 118.1(9) 2_566 4_555
Co2 O3 H 64.5(7) 2_566 5_666
As1 O3 H 91.8(9) 3_555 5_666
P O3 H 91.8(9) 4_555 5_666
Co1 O4 Co2 123.6(16) . 2_555
Co1 O4 Co2 123.6(16) . 3_656
Co1 O4 H 107(3) . 4_555
Co2 O4 Co2 94.0(20) 2_555 3_656
Co2 O4 H 103(2) 2_555 4_555
Co2 O4 H 103(2) 3_656 4_555
Co2 H Co2 75.9(14) . 2_656
Co2 H O3 55.8(6) . 3_656
Co2 H O3 97.9(11) . 4_656
Co2 H O4 55.1(17) . 5_555
Co2 H O3 97.9(11) 2_656 3_656
Co2 H O3 55.8(6) 2_656 4_656
Co2 H O4 55.1(17) 2_656 5_555
O3 H O3 69.4(5) 3_656 4_656
O3 H O4 109.9(14) 3_656 5_555
O3 H O4 109.9(14) 4_656 5_555
loop_
_geom_bond_atom_site_label_1
_geom_bond_atom_site_label_2
_geom_bond_distance
_geom_bond_site_symmetry_2
Co1 O1 1.969(19) 2_555
Co1 O1 2.08(3) 3_555
Co1 O3 2.024(11) .
Co1 O3 2.024(11) 8_556
Co1 O4 2.08(3) .
Co2 O2 2.06(2) .
Co2 O2 2.06(2) 4_655
Co2 O3 2.238(7) 2_555
Co2 O3 2.238(7) 3_545
Co2 O4 2.06(2) .
Co2 O4 2.06(2) 4_655
Co2 H 2.44(2) .
Co2 H 2.44(2) 4_655
As1 O1 1.656(13) .
As1 O2 1.633(13) .
As1 O3 1.658(8) .
As1 O3 1.658(8) 8_555
P O1 1.656(13) .
P O2 1.633(13) .
P O3 1.658(8) .
P O3 1.658(8) 8_555
O1 Co1 1.969(19) 2_455
O1 Co1 2.08(3) 3_545
O1 As1 1.656(13) .
O1 P 1.656(13) .
O2 Co2 2.06(2) .
O2 Co2 2.06(2) 5_655
O2 As1 1.633(13) .
O2 P 1.633(13) .
O3 Co1 2.024(11) .
O3 Co2 2.238(7) 2_455
O3 As1 1.658(8) .
O3 P 1.658(8) .
O3 H 2.335(14) 3_555
O4 Co1 2.08(3) .
O4 Co2 2.06(2) .
O4 Co2 2.06(2) 5_656
O4 H 0.941(18) .
H Co2 2.44(2) .
H Co2 2.44(2) 5_656
H O3 2.335(14) 3_545
H O3 2.335(14) 6_545
H O4 0.941(18) .
