#------------------------------------------------------------------------------
#$Date: 2021-06-15 11:12:38 +0300 (Tue, 15 Jun 2021) $
#$Revision: 266469 $
#$URL: file:///home/coder/svn-repositories/cod/cif/1/56/34/1563489.cif $
#------------------------------------------------------------------------------
#
# This file is available in the Crystallography Open Database (COD),
# http://www.crystallography.net/
#
# All data on this site have been placed in the public domain by the
# contributors.
#
data_1563489
loop_
_publ_author_name
'Souilah, M.'
'Lafond, A.'
'Guillot-Deudon, C.'
'Harel, S.'
'Evain, M.'
_publ_section_title
;
 Structural investigation of the Cu2Se--In2Se3--Ga2Se3 phase diagram,
 X-ray photoemission and optical properties of the
 Cu1&#x2212;z(In0.5Ga0.5)1+z/3Se2 compounds
;
_journal_issue                   10
_journal_name_full               'Journal of Solid State Chemistry'
_journal_page_first              2274
_journal_page_last               2280
_journal_paper_doi               10.1016/j.jssc.2010.08.014
_journal_volume                  183
_journal_year                    2010
_chemical_formula_moiety         'Cu0.4 Ga0.6 In0.6 Se2'
_chemical_formula_sum            'Cu0.4 Ga0.6 In0.6 Se2'
_chemical_formula_weight         294.1
_space_group_IT_number           121
_space_group_name_Hall           'I -4 2'
_space_group_name_H-M_alt        'I -4 2 m'
_symmetry_cell_setting           tetragonal
_symmetry_space_group_name_Hall  'I -4 2'
_symmetry_space_group_name_H-M   'I -4 2 m'
_cell_angle_alpha                90
_cell_angle_beta                 90
_cell_angle_gamma                90
_cell_formula_units_Z            4
_cell_length_a                   5.63351(13)
_cell_length_b                   5.63351(13)
_cell_length_c                   11.2411(3)
_cell_measurement_reflns_used    30727
_cell_measurement_temperature    293
_cell_measurement_theta_max      39.97
_cell_measurement_theta_min      6.53
_cell_volume                     356.752(15)
_computing_cell_refinement       unknown
_computing_data_collection       unknown
_computing_data_reduction        unknown
_computing_molecular_graphics    unknown
_computing_structure_solution    unknown
_diffrn_ambient_temperature      293
_diffrn_measured_fraction_theta_full 0.98
_diffrn_measured_fraction_theta_max 0.98
_diffrn_measurement_device       'four-cycle diffractometer'
_diffrn_measurement_device_type  'Nonius CCD'
_diffrn_measurement_method       omega
_diffrn_radiation_monochromator  unknown
_diffrn_radiation_source         'X-ray tube'
_diffrn_radiation_type           'Mo K\a'
_diffrn_radiation_wavelength     0.71069
_diffrn_reflns_av_R_equivalents  0.0666
_diffrn_reflns_av_sigmaI/netI    0.012
_diffrn_reflns_limit_h_max       10
_diffrn_reflns_limit_h_min       -10
_diffrn_reflns_limit_k_max       10
_diffrn_reflns_limit_k_min       -10
_diffrn_reflns_limit_l_max       20
_diffrn_reflns_limit_l_min       -20
_diffrn_reflns_number            30727
_diffrn_reflns_theta_full        39.97
_diffrn_reflns_theta_max         39.97
_diffrn_reflns_theta_min         6.53
_exptl_absorpt_coefficient_mu    30.78
_exptl_absorpt_correction_T_max  0.3277
_exptl_absorpt_correction_T_min  0.1087
_exptl_absorpt_correction_type   gaussian
_exptl_absorpt_process_details
'Jana2006  (Petricek, Dusek & Palatinus, 2000)'
_exptl_crystal_colour            black
_exptl_crystal_density_diffrn    5.4732
_exptl_crystal_description       block
_exptl_crystal_F_000             510
_exptl_crystal_size_max          0.10
_exptl_crystal_size_mid          0.08
_exptl_crystal_size_min          0.06
_refine_diff_density_max         1.56
_refine_diff_density_min         -1.96
_refine_ls_extinction_coef       680(140)
_refine_ls_extinction_method
'B-C type 1 Gaussian isotropic (Becker & Coppens, 1974)'
_refine_ls_goodness_of_fit_gt    1.85
_refine_ls_goodness_of_fit_ref   1.90
_refine_ls_number_constraints    3
_refine_ls_number_parameters     25
_refine_ls_number_reflns         1943
_refine_ls_number_restraints     0
_refine_ls_R_factor_all          0.0778
_refine_ls_R_factor_gt           0.0505
_refine_ls_shift/su_max          0.0065
_refine_ls_shift/su_mean         0.0010
_refine_ls_structure_factor_coef Fsqd
_refine_ls_weighting_details     w=1/(\s^2^(I)+0.0016I^2^)
_refine_ls_weighting_scheme      sigma
_refine_ls_wR_factor_gt          0.1283
_refine_ls_wR_factor_ref         0.1493
_reflns_number_gt                1517
_reflns_number_total             1943
_reflns_threshold_expression     I>2\s(I)
_cod_data_source_file            JSSC-2010_183-2274.cif
_cod_data_source_block           9
_cod_depositor_comments
;
The following automatic conversions were performed:

data item '_exptl_absorpt_correction_type' value 'Gaussian' was
changed to 'gaussian' in accordance with the built-in table derived
from the CIF Core dictionary named 'cif_core.dic' version 2.4.5 last
updated on 2014-11-21.

Automatic conversion script
Id: cif_fix_values 8369 2020-08-20 11:38:08Z andrius 
;
_cod_original_cell_volume        356.7512
_cod_database_code               1563489
loop_
_symmetry_equiv_pos_site_id
_symmetry_equiv_pos_as_xyz
1 x,y,z
2 -x,-y,z
3 y,-x,-z
4 -y,x,-z
5 -x,y,-z
6 x,-y,-z
7 -y,-x,z
8 y,x,z
9 x+1/2,y+1/2,z+1/2
10 -x+1/2,-y+1/2,z+1/2
11 y+1/2,-x+1/2,-z+1/2
12 -y+1/2,x+1/2,-z+1/2
13 -x+1/2,y+1/2,-z+1/2
14 x+1/2,-y+1/2,-z+1/2
15 -y+1/2,-x+1/2,z+1/2
16 y+1/2,x+1/2,z+1/2
loop_
_atom_site_label
_atom_site_type_symbol
_atom_site_fract_x
_atom_site_fract_y
_atom_site_fract_z
_atom_site_adp_type
_atom_site_U_iso_or_equiv
_atom_site_symmetry_multiplicity
_atom_site_occupancy
_atom_site_calc_flag
_atom_site_refinement_flags
_atom_site_disorder_assembly
_atom_site_disorder_group
Cu_2a Cu 0 0 0 Uani 0.0181(5) 2 0.8 d . . .
In_4d In 0 0.5 0.25 Uani 0.0197(4) 4 0.1 d . . .
Ga_4d Ga 0 0.5 0.25 Uani 0.0197(4) 4 0.6 d . . .
In_2b In 0.5 0.5 0 Uani 0.0223(2) 2 1 d . . .
Se_8i Se 0.24058(12) 0.24058(12) 0.13033(7) Uani 0.0252(3) 8 1 d . . .
loop_
_atom_site_aniso_label
_atom_site_aniso_type_symbol
_atom_site_aniso_U_11
_atom_site_aniso_U_22
_atom_site_aniso_U_33
_atom_site_aniso_U_12
_atom_site_aniso_U_13
_atom_site_aniso_U_23
Cu_2a Cu 0.0206(7) 0.0206(7) 0.0131(10) 0 0 0
In_4d In 0.0222(6) 0.0222(6) 0.0149(9) 0 0 0
Ga_4d Ga 0.0222(6) 0.0222(6) 0.0149(9) 0 0 0
In_2b In 0.0231(3) 0.0231(3) 0.0207(5) 0 0 0
Se_8i Se 0.0247(4) 0.0247(4) 0.0263(6) -0.00658(19) 0.00738(12) 0.00738(12)
loop_
_atom_type_symbol
_atom_type_scat_dispersion_real
_atom_type_scat_dispersion_imag
_atom_type_scat_source
Cu 0.320 1.265 'International Tables Vol C tables 4.2.6.8 and 6.1.1.1'
In -0.728 1.310 'International Tables Vol C tables 4.2.6.8 and 6.1.1.1'
Ga 0.231 1.608 'International Tables Vol C tables 4.2.6.8 and 6.1.1.1'
Se -0.093 2.226 'International Tables Vol C tables 4.2.6.8 and 6.1.1.1'
loop_
_geom_angle_atom_site_label_1
_geom_angle_atom_site_label_2
_geom_angle_atom_site_label_3
_geom_angle_site_symmetry_1
_geom_angle_site_symmetry_2
_geom_angle_site_symmetry_3
_geom_angle
_geom_angle_publ_flag
Se_8i Cu_2a Se_8i . . 2_555 105.21(3) yes
Se_8i Cu_2a Se_8i . . 3_555 111.64(2) yes
Se_8i Cu_2a Se_8i . . 4_555 111.64(2) yes
Se_8i Cu_2a Se_8i 2_555 . 3_555 111.64(2) yes
Se_8i Cu_2a Se_8i 2_555 . 4_555 111.64(2) yes
Se_8i Cu_2a Se_8i 3_555 . 4_555 105.21(3) yes
Se_8i In_4d Se_8i . . 2_565 111.97(3) yes
Se_8i In_4d Se_8i . . 11_455 108.24(2) yes
Se_8i In_4d Se_8i . . 12_555 108.24(2) yes
Se_8i In_4d Se_8i 2_565 . 11_455 108.24(2) yes
Se_8i In_4d Se_8i 2_565 . 12_555 108.24(2) yes
Se_8i In_4d Se_8i 11_455 . 12_555 111.97(3) yes
Se_8i Ga_4d Se_8i . . 2_565 111.97(3) yes
Se_8i Ga_4d Se_8i . . 11_455 108.24(2) yes
Se_8i Ga_4d Se_8i . . 12_555 108.24(2) yes
Se_8i Ga_4d Se_8i 2_565 . 11_455 108.24(2) yes
Se_8i Ga_4d Se_8i 2_565 . 12_555 108.24(2) yes
Se_8i Ga_4d Se_8i 11_455 . 12_555 111.97(3) yes
Se_8i In_2b Se_8i . . 2_665 109.34(2) yes
Se_8i In_2b Se_8i . . 3_565 109.54(2) yes
Se_8i In_2b Se_8i . . 4_655 109.54(2) yes
Se_8i In_2b Se_8i 2_665 . 3_565 109.54(2) yes
Se_8i In_2b Se_8i 2_665 . 4_655 109.54(2) yes
Se_8i In_2b Se_8i 3_565 . 4_655 109.34(2) yes
loop_
_geom_bond_atom_site_label_1
_geom_bond_atom_site_label_2
_geom_bond_site_symmetry_1
_geom_bond_site_symmetry_2
_geom_bond_distance
_geom_bond_publ_flag
Cu_2a Se_8i . . 2.4125(7) yes
Cu_2a Se_8i . 2_555 2.4125(7) yes
Cu_2a Se_8i . 3_555 2.4125(7) yes
Cu_2a Se_8i . 4_555 2.4125(7) yes
In_4d Se_8i . . 2.4046(7) yes
In_4d Se_8i . 2_565 2.4046(7) yes
In_4d Se_8i . 11_455 2.4046(7) yes
In_4d Se_8i . 12_555 2.4046(7) yes
Ga_4d Se_8i . . 2.4046(7) yes
Ga_4d Se_8i . 2_565 2.4046(7) yes
Ga_4d Se_8i . 11_455 2.4046(7) yes
Ga_4d Se_8i . 12_555 2.4046(7) yes
In_2b Se_8i . . 2.5334(7) yes
In_2b Se_8i . 2_665 2.5334(7) yes
In_2b Se_8i . 3_565 2.5334(7) yes
In_2b Se_8i . 4_655 2.5334(7) yes
loop_
_refln_index_h
_refln_index_k
_refln_index_l
_refln_F_squared_calc
_refln_F_squared_meas
_refln_F_squared_sigma
_refln_observed_status
2 0 0 423.22 596.67 6.70 o
4 0 0 55086.93 54008.80 103.62 o
6 0 0 53.94 18.00 14.57 <
8 0 0 5091.58 5675.41 35.60 o
10 0 0 116.44 96.61 11.90 o
3 1 0 317.81 314.10 4.79 o
5 1 0 73.35 53.01 8.57 o
7 1 0 47.28 80.94 15.44 o
9 1 0 7.80 -1.73 6.02 <
0 2 0 421.23 601.07 5.59 o
2 2 0 73842.51 75629.55 284.23 o
4 2 0 71.45 106.21 6.68 o
6 2 0 16288.21 17014.60 57.35 o
8 2 0 97.82 75.12 5.78 o
1 3 0 317.81 317.66 4.84 o
3 3 0 89.34 70.20 6.12 o
5 3 0 131.65 150.53 11.39 o
7 3 0 6.34 -5.09 18.40 <
9 3 0 20.73 -17.28 12.30 <
0 4 0 54911.97 52697.12 136.95 o
2 4 0 70.70 79.64 7.93 o
4 4 0 24739.66 25475.46 77.47 o
6 4 0 35.11 63.22 14.70 o
8 4 0 2757.51 2833.37 25.15 o
1 5 0 73.36 84.55 10.76 o
3 5 0 131.64 190.09 15.15 o
5 5 0 4.32 21.92 19.20 <
7 5 0 50.34 85.28 12.67 o
0 6 0 55.35 14.81 19.17 <
2 6 0 16301.68 16673.96 86.50 o
4 6 0 35.90 -3.44 21.89 <
6 6 0 4018.70 4290.17 33.26 o
8 6 0 41.52 107.58 17.18 o
1 7 0 47.28 35.39 7.38 o
3 7 0 6.34 5.51 7.62 <
5 7 0 50.34 68.54 9.37 o
7 7 0 0.45 -0.13 15.74 <
0 8 0 5103.37 5506.03 55.46 o
2 8 0 100.78 46.41 11.08 o
4 8 0 2762.42 2863.11 25.47 o
6 8 0 42.08 71.10 10.60 o
1 9 0 7.80 20.29 10.52 <
3 9 0 20.73 -13.18 14.57 <
0 10 0 119.42 80.82 22.95 o
-1 2 1 689.81 656.07 3.87 o
1 2 1 663.49 628.11 3.76 o
-2 3 1 48.77 46.69 3.73 o
0 3 1 859.79 886.82 5.38 o
2 3 1 65.92 53.75 3.25 o
-3 4 1 417.58 444.60 7.31 o
-1 4 1 230.70 239.13 5.59 o
1 4 1 261.38 248.88 4.98 o
3 4 1 396.25 427.99 8.27 o
-4 5 1 30.63 23.75 12.06 <
-2 5 1 476.78 512.37 11.25 o
0 5 1 9.96 25.22 5.38 o
2 5 1 468.40 470.91 9.25 o
4 5 1 41.96 37.62 13.66 o
-5 6 1 136.15 169.61 17.54 o
-3 6 1 75.35 111.55 12.91 o
-1 6 1 227.37 243.88 10.41 o
1 6 1 204.91 227.03 10.65 o
3 6 1 91.86 94.25 10.44 o
5 6 1 126.94 157.60 16.13 o
-6 7 1 9.97 18.72 10.09 <
-4 7 1 146.36 127.09 15.01 o
-2 7 1 18.75 16.03 11.32 <
0 7 1 284.27 302.12 12.13 o
2 7 1 22.23 20.69 12.20 <
4 7 1 141.52 156.56 6.55 o
6 7 1 13.95 24.71 8.63 o
-5 8 1 16.34 30.30 7.72 o
-3 8 1 83.81 74.87 5.72 o
-1 8 1 71.70 66.51 14.00 o
1 8 1 84.26 89.49 12.67 o
3 8 1 74.42 85.49 5.35 o
5 8 1 21.62 18.75 7.96 o
-4 9 1 7.34 16.14 8.02 o
-2 9 1 90.32 82.14 7.88 o
0 9 1 13.84 7.40 6.02 <
2 9 1 89.11 117.81 8.47 o
4 9 1 9.01 -5.25 9.61 <
-1 10 1 34.05 46.81 8.84 o
1 10 1 28.84 53.07 8.12 o
2 0 2 765.12 718.91 5.66 o
4 0 2 66.31 47.95 6.82 o
6 0 2 106.81 108.75 11.15 o
8 0 2 9.60 4.31 16.03 <
10 0 2 9.90 -2.50 10.04 <
-9 1 2 1151.68 1200.28 15.94 o
-7 1 2 4883.18 5478.73 36.67 o
-5 1 2 15912.17 15975.71 44.94 o
-3 1 2 39712.37 40273.96 54.27 o
3 1 2 38163.42 36807.55 51.91 o
5 1 2 16770.51 17416.20 48.58 o
7 1 2 4577.05 4743.08 36.50 o
9 1 2 1245.92 1391.51 18.55 o
-8 2 2 31.30 20.34 5.33 o
-6 2 2 27.76 44.81 13.18 o
-4 2 2 245.42 287.41 9.47 o
-2 2 2 128.18 99.31 3.01 o
0 2 2 765.12 663.00 7.01 o
2 2 2 122.43 101.94 4.34 o
4 2 2 251.82 255.85 8.09 o
6 2 2 23.35 4.42 15.36 <
8 2 2 33.61 53.15 6.87 o
-9 3 2 887.59 863.52 20.28 o
-7 3 2 3419.26 3316.12 29.44 o
-5 3 2 10831.91 11650.99 42.11 o
-3 3 2 25023.05 24340.08 48.43 o
-1 3 2 39959.93 39891.68 67.10 o
1 3 2 38050.84 37684.80 57.83 o
3 3 2 26248.33 27100.82 63.36 o
5 3 2 10234.30 10102.65 51.05 o
7 3 2 3655.06 3678.80 37.31 o
9 3 2 810.99 833.11 25.58 o
-8 4 2 13.77 9.45 8.02 <
-6 4 2 64.27 60.73 14.91 o
-4 4 2 45.85 87.44 10.44 o
-2 4 2 245.42 245.30 8.06 o
0 4 2 66.31 69.75 7.69 o
2 4 2 251.81 272.64 10.75 o
4 4 2 37.83 62.25 14.27 o
6 4 2 70.43 73.33 24.42 o
8 4 2 10.35 43.70 9.00 o
-7 5 2 1754.21 1912.93 32.33 o
-5 5 2 5104.12 4792.47 40.95 o
-3 5 2 10836.47 11267.68 53.29 o
-1 5 2 15920.20 15705.16 64.49 o
1 5 2 16768.47 17357.63 58.22 o
3 5 2 10233.63 10634.49 66.50 o
5 5 2 5427.97 5566.28 53.72 o
7 5 2 1609.76 1707.53 26.97 o
-8 6 2 16.40 40.34 26.76 <
-6 6 2 22.32 17.92 9.69 <
-4 6 2 64.27 97.61 25.24 o
-2 6 2 27.76 9.85 19.70 <
0 6 2 106.81 127.62 12.43 o
2 6 2 23.35 16.83 19.12 <
4 6 2 70.43 56.45 22.15 o
6 6 2 17.13 55.92 12.06 o
8 6 2 19.45 15.66 13.18 <
-7 7 2 756.76 739.50 37.48 o
-5 7 2 1756.01 1971.06 22.93 o
-3 7 2 3423.97 3367.06 25.32 o
-1 7 2 4891.68 5191.35 29.55 o
1 7 2 4584.09 4841.43 28.56 o
3 7 2 3661.09 3851.60 26.74 o
5 7 2 1611.47 1731.10 21.87 o
7 7 2 827.17 830.08 27.34 o
-6 8 2 16.40 64.31 15.76 o
-4 8 2 13.77 28.41 8.44 o
-2 8 2 31.30 14.67 9.69 <
0 8 2 9.60 12.28 11.02 <
2 8 2 33.61 16.86 8.52 <
4 8 2 10.35 -5.41 7.67 <
6 8 2 19.45 17.26 13.34 <
-3 9 2 891.27 954.25 19.67 o
-1 9 2 1156.57 1213.00 20.92 o
1 9 2 1251.54 1424.59 22.51 o
3 9 2 814.13 869.06 18.44 o
0 10 2 9.90 15.23 10.76 <
0 1 3 675.85 564.60 3.49 o
-1 2 3 320.44 293.02 3.67 o
1 2 3 292.24 263.43 3.56 o
-2 3 3 534.52 539.99 5.63 o
0 3 3 37.16 21.35 2.82 o
2 3 3 553.42 566.72 6.46 o
-3 4 3 144.26 150.54 6.52 o
-1 4 3 374.21 393.28 6.59 o
1 4 3 407.40 438.89 5.13 o
3 4 3 120.40 134.84 8.22 o
-4 5 3 222.63 208.47 11.23 o
-2 5 3 27.06 34.14 7.67 o
0 5 3 426.39 427.71 8.06 o
2 5 3 17.21 15.95 6.58 o
4 5 3 235.98 254.25 12.62 o
-5 6 3 53.63 79.88 17.04 o
-3 6 3 181.14 150.46 10.99 o
-1 6 3 203.71 219.33 9.93 o
1 6 3 179.29 195.81 11.34 o
3 6 3 199.62 207.68 10.25 o
5 6 3 42.72 16.19 20.32 <
-6 7 3 52.03 27.58 12.19 o
-4 7 3 20.91 39.97 14.11 o
-2 7 3 178.59 159.52 12.56 o
0 7 3 8.99 29.93 11.98 o
2 7 3 182.95 204.65 13.52 o
4 7 3 14.76 9.45 5.11 <
6 7 3 57.17 50.64 8.71 o
-5 8 3 44.86 70.21 9.03 o
-3 8 3 64.05 62.09 7.48 o
-1 8 3 94.79 65.97 11.26 o
1 8 3 108.30 86.74 12.33 o
3 8 3 53.64 45.53 6.15 o
5 8 3 51.11 48.46 6.79 o
-4 9 3 41.18 45.48 7.51 o
-2 9 3 8.05 17.87 6.23 o
0 9 3 81.78 61.98 8.44 o
2 9 3 6.44 -7.75 8.39 <
4 9 3 43.48 44.55 10.38 o
-1 10 3 34.43 -8.60 9.69 <
1 10 3 28.96 20.64 8.52 o
0 0 4 428.18 757.03 8.38 o
2 0 4 73150.99 75036.39 145.42 o
4 0 4 73.53 52.77 6.36 o
6 0 4 16286.80 16989.62 70.13 o
8 0 4 97.46 73.95 6.66 o
-9 1 4 18.48 41.09 8.55 o
-7 1 4 30.11 40.37 23.22 <
-5 1 4 153.86 183.48 10.91 o
-3 1 4 264.40 250.51 6.04 o
-1 1 4 618.28 568.48 5.65 o
1 1 4 570.28 533.39 5.80 o
3 1 4 295.08 301.67 6.09 o
5 1 4 139.02 139.69 10.03 o
7 1 4 36.48 44.52 20.26 o
9 1 4 16.09 10.09 7.83 <
-8 2 4 3744.82 4078.05 25.78 o
-6 2 4 34.68 38.56 14.09 o
-4 2 4 36915.41 39149.71 83.85 o
-2 2 4 128.94 216.57 4.47 o
0 2 4 73743.32 72202.51 121.07 o
2 2 4 153.72 174.09 5.14 o
4 2 4 37090.86 37503.14 85.02 o
6 2 4 52.19 49.74 14.33 o
8 2 4 3735.49 4038.11 30.66 o
-9 3 4 3.17 29.69 8.33 o
-7 3 4 63.99 61.59 17.44 o
-5 3 4 42.21 35.07 10.89 o
-3 3 4 268.11 293.83 9.02 o
-1 3 4 264.41 234.48 7.23 o
1 3 4 295.03 291.69 5.82 o
3 3 4 247.26 263.83 10.08 o
5 3 4 53.23 41.48 16.83 o
7 3 4 58.98 34.03 17.81 <
9 3 4 5.12 11.53 11.90 <
-8 4 4 57.10 96.10 12.01 o
-6 4 4 7997.10 7939.48 50.46 o
-4 4 4 19.58 28.68 12.54 o
-2 4 4 36991.75 37249.35 77.47 o
0 4 4 72.25 124.27 7.46 o
2 4 4 36965.89 38042.25 79.59 o
4 4 4 51.66 137.70 16.43 o
6 4 4 7968.18 7924.76 54.86 o
8 4 4 69.50 88.97 8.55 o
-7 5 4 4.04 -36.59 9.21 <
-5 5 4 100.34 114.67 16.43 o
-3 5 4 42.21 45.05 14.91 o
-1 5 4 153.86 162.64 10.94 o
1 5 4 139.01 157.38 9.26 o
3 5 4 53.23 58.31 16.88 o
5 5 4 93.85 103.00 21.78 o
7 5 4 7.22 21.17 9.72 o
-6 6 4 35.74 58.05 15.60 o
-4 6 4 8001.44 7767.40 68.43 o
-2 6 4 35.69 50.35 25.16 o
0 6 4 16301.38 16732.37 74.26 o
2 6 4 53.35 31.61 9.40 o
4 6 4 7972.41 8452.44 51.89 o
6 6 4 53.82 111.60 9.29 o
-7 7 4 31.83 -23.43 15.76 <
-5 7 4 4.04 -20.82 8.76 <
-3 7 4 63.99 81.98 18.00 o
-1 7 4 30.11 38.53 7.19 o
1 7 4 36.48 28.68 7.48 o
3 7 4 58.98 73.35 7.91 o
5 7 4 7.22 3.38 10.15 <
7 7 4 30.17 73.28 14.19 o
-4 8 4 58.43 119.46 11.98 o
-2 8 4 3751.92 3910.84 34.52 o
0 8 4 100.51 69.82 10.97 o
2 8 4 3742.88 4006.12 34.12 o
4 8 4 70.98 107.82 9.03 o
-3 9 4 3.17 -0.85 10.20 <
-1 9 4 18.48 6.50 11.16 <
1 9 4 16.09 24.26 11.10 o
3 9 4 5.12 3.09 10.36 <
0 1 5 535.46 474.23 4.03 o
-1 2 5 150.88 127.25 3.33 o
1 2 5 166.82 144.88 2.95 o
-2 3 5 541.99 566.95 7.81 o
0 3 5 4.41 2.50 4.13 <
2 3 5 531.39 563.06 7.68 o
-3 4 5 36.37 36.53 6.79 o
-1 4 5 276.99 276.97 7.32 o
1 4 5 257.28 249.35 6.09 o
3 4 5 50.12 38.42 7.67 o
-4 5 5 251.15 253.27 13.31 o
-2 5 5 18.87 35.09 7.54 o
0 5 5 490.42 554.93 10.48 o
2 5 5 24.07 14.01 6.82 o
4 5 5 244.05 266.11 13.09 o
-5 6 5 13.93 18.11 5.57 o
-3 6 5 156.60 123.39 13.02 o
-1 6 5 81.19 84.34 12.19 o
1 6 5 96.45 83.95 10.68 o
3 6 5 145.60 137.41 10.86 o
5 6 5 19.72 41.27 15.71 o
-6 7 5 66.20 94.52 12.57 o
-4 7 5 15.15 17.10 5.70 o
-2 7 5 218.16 256.88 12.83 o
0 7 5 27.74 68.14 13.53 o
2 7 5 216.10 242.03 12.67 o
4 7 5 17.96 19.28 5.62 o
6 7 5 63.95 68.24 9.32 o
-5 8 5 45.20 27.37 7.70 o
-3 8 5 19.48 23.38 7.72 o
-1 8 5 64.95 73.12 5.72 o
1 8 5 56.14 59.43 6.50 o
3 8 5 25.85 6.04 6.20 <
5 8 5 41.87 19.62 7.70 o
-4 9 5 54.60 31.34 10.94 o
-2 9 5 13.71 35.18 7.88 o
0 9 5 96.63 132.64 8.04 o
2 9 5 14.37 -9.83 7.48 <
4 9 5 53.73 54.10 10.46 o
0 0 6 1272.23 1217.20 14.50 o
2 0 6 5.66 19.07 4.98 o
4 0 6 459.63 473.66 11.19 o
6 0 6 0.96 -17.81 13.74 <
8 0 6 55.49 67.15 7.51 o
-9 1 6 886.60 1048.18 17.38 o
-7 1 6 3415.02 3326.33 37.46 o
-5 1 6 10821.70 11924.19 52.87 o
-3 1 6 24904.80 24785.39 50.98 o
-1 1 6 39389.52 40104.57 53.44 o
1 1 6 37845.45 36164.60 60.83 o
3 1 6 26200.40 27043.76 54.57 o
5 1 6 10224.50 10279.51 47.60 o
7 1 6 3651.50 3631.60 37.42 o
9 1 6 809.98 854.45 14.69 o
-8 2 6 3.50 0.51 7.80 <
-6 2 6 147.93 130.76 18.21 o
-4 2 6 9.78 -6.20 7.46 <
-2 2 6 734.63 765.73 10.62 o
0 2 6 5.66 17.71 5.11 o
2 2 6 738.50 728.10 10.30 o
4 2 6 4.91 -6.23 7.48 <
6 2 6 151.59 150.33 18.90 o
8 2 6 1.48 -29.77 7.40 <
-9 3 6 757.01 735.86 16.88 o
-7 3 6 2305.65 2741.93 24.02 o
-5 3 6 7734.63 7500.34 45.54 o
-3 3 6 16198.19 17512.34 49.16 o
-1 3 6 24979.75 24394.15 73.50 o
1 3 6 26167.59 26583.21 57.38 o
3 3 6 15334.87 15487.05 60.60 o
5 3 6 8175.40 7964.62 40.82 o
7 3 6 2119.68 2298.82 21.01 o
9 3 6 820.05 763.31 16.16 o
-8 4 6 36.49 33.42 12.20 o
-6 4 6 13.43 5.83 6.23 <
-4 4 6 216.02 240.73 14.00 o
-2 4 6 9.78 6.58 9.43 <
0 4 6 459.60 457.21 13.37 o
2 4 6 4.91 21.81 8.73 o
4 4 6 222.49 278.26 19.85 o
6 4 6 8.15 -6.74 19.01 <
8 4 6 39.54 66.94 11.13 o
-7 5 6 1541.10 1378.11 25.86 o
-5 5 6 3291.65 3623.95 39.05 o
-3 5 6 7737.52 6878.96 44.53 o
-1 5 6 10823.40 11656.27 47.10 o
1 5 6 10224.97 10483.72 38.22 o
3 5 6 8174.38 8142.28 48.09 o
5 5 6 3037.72 3175.98 45.33 o
7 5 6 1657.73 1550.81 19.66 o
-6 6 6 52.38 57.11 12.54 o
-4 6 6 13.43 22.23 21.41 <
-2 6 6 147.93 176.14 19.83 o
0 6 6 0.96 2.48 18.37 <
2 6 6 151.59 193.58 12.01 o
4 6 6 8.15 -5.80 16.03 <
6 6 6 56.97 43.27 9.59 o
-5 7 6 1542.46 1324.07 22.40 o
-3 7 6 2308.77 2616.30 23.80 o
-1 7 6 3420.25 3400.08 25.77 o
1 7 6 3656.94 3984.98 31.94 o
3 7 6 2122.29 2271.21 21.33 o
5 7 6 1659.34 1483.79 21.29 o
-4 8 6 36.49 11.45 9.51 <
-2 8 6 3.50 5.59 10.12 <
0 8 6 55.49 80.33 10.81 o
2 8 6 1.48 8.95 9.21 <
4 8 6 39.54 36.51 7.46 o
-3 9 6 759.68 698.71 17.38 o
-1 9 6 890.46 945.97 20.10 o
1 9 6 813.31 822.46 21.24 o
3 9 6 823.16 754.07 17.36 o
0 1 7 145.65 128.39 4.04 o
-1 2 7 272.85 263.00 5.74 o
1 2 7 293.11 293.24 6.44 o
-2 3 7 76.30 75.27 5.59 o
0 3 7 297.75 279.57 6.76 o
2 3 7 61.50 68.18 6.52 o
-3 4 7 207.07 221.90 8.20 o
-1 4 7 213.45 210.90 7.51 o
1 4 7 187.67 195.44 8.65 o
3 4 7 226.71 231.24 10.75 o
-4 5 7 55.31 50.96 13.47 o
-2 5 7 183.93 187.06 10.51 o
0 5 7 1.76 -7.72 9.19 <
2 5 7 192.51 169.10 8.70 o
4 5 7 43.36 36.34 9.98 o
-5 6 7 75.72 82.51 6.23 o
-3 6 7 105.79 124.55 14.22 o
-1 6 7 156.31 156.41 9.42 o
1 6 7 176.33 210.22 10.78 o
3 6 7 90.04 93.07 13.15 o
5 6 7 85.63 65.10 6.15 o
-6 7 7 23.45 -13.42 9.93 <
-4 7 7 62.86 54.24 6.36 o
-2 7 7 9.90 11.05 5.41 o
0 7 7 109.89 107.74 6.10 o
2 7 7 5.74 -3.57 10.97 <
4 7 7 68.80 61.45 6.12 o
6 7 7 18.40 9.91 6.95 <
-5 8 7 33.31 -3.75 10.38 <
-3 8 7 58.00 55.46 6.95 o
-1 8 7 79.53 84.03 7.08 o
1 8 7 68.37 87.04 6.68 o
3 8 7 66.89 80.92 7.30 o
5 8 7 27.62 7.67 7.64 <
-2 9 7 36.60 16.99 7.88 o
0 9 7 2.23 -18.32 7.08 <
2 9 7 38.24 17.47 7.85 o
0 0 8 54072.12 55068.74 116.73 o
2 0 8 75.78 118.52 7.40 o
4 0 8 24658.61 25345.82 76.32 o
6 0 8 34.60 64.02 12.44 o
8 0 8 2752.24 2847.78 25.58 o
-9 1 8 10.91 -17.28 13.69 <
-7 1 8 62.35 51.89 8.01 o
-5 1 8 119.79 108.05 15.07 o
-3 1 8 355.21 369.41 10.75 o
-1 1 8 474.05 476.85 9.88 o
1 1 8 525.83 495.44 11.88 o
3 1 8 319.28 338.01 10.99 o
5 1 8 139.23 153.88 14.64 o
7 1 8 53.49 51.07 6.90 o
9 1 8 14.30 -2.82 10.36 <
-8 2 8 56.40 111.89 10.04 o
-6 2 8 7982.46 8228.38 73.77 o
-4 2 8 20.58 43.00 11.05 o
-2 2 8 36882.10 37969.23 90.02 o
0 2 8 75.25 51.42 8.20 o
2 2 8 36856.28 37095.77 81.85 o
4 2 8 52.56 36.19 10.62 o
6 2 8 7959.73 7932.36 55.30 o
8 2 8 68.76 86.60 11.72 o
-7 3 8 22.10 20.77 8.17 o
-5 3 8 143.23 175.57 16.03 o
-3 3 8 167.48 148.37 12.77 o
-1 3 8 355.21 355.87 13.51 o
1 3 8 319.28 320.25 12.08 o
3 3 8 193.60 184.17 12.78 o
5 3 8 128.34 163.96 9.13 o
7 3 8 29.16 19.17 7.62 o
-8 4 8 1622.28 1537.15 21.90 o
-6 4 8 36.51 79.94 7.46 o
-4 4 8 11731.93 11638.43 52.85 o
-2 4 8 20.28 16.35 11.85 <
0 4 8 24666.38 24481.31 81.27 o
2 4 8 52.36 36.40 12.20 o
4 4 8 11687.02 11839.42 50.28 o
6 4 8 67.48 119.78 7.54 o
8 4 8 1604.71 1468.83 22.29 o
-7 5 8 49.21 33.50 14.14 o
-5 5 8 29.95 29.85 7.46 o
-3 5 8 143.23 212.76 17.28 o
-1 5 8 119.80 132.38 11.71 o
1 5 8 139.22 151.40 14.43 o
3 5 8 128.34 113.40 11.39 o
5 5 8 39.04 37.54 16.14 o
7 5 8 44.65 28.57 8.31 o
-6 6 8 2314.06 2220.71 30.32 o
-4 6 8 36.86 47.29 8.49 o
-2 6 8 7990.69 7818.30 43.07 o
0 6 8 35.52 28.36 12.78 o
2 6 8 7963.66 8169.50 33.46 o
4 6 8 67.99 75.92 7.19 o
6 6 8 2288.35 2066.53 22.05 o
-5 7 8 49.21 13.42 16.88 <
-3 7 8 22.10 2.40 9.80 <
-1 7 8 62.35 61.08 7.59 o
1 7 8 53.49 36.26 9.00 o
3 7 8 29.16 15.39 8.97 <
5 7 8 44.65 42.42 7.88 o
-4 8 8 1624.52 1482.79 28.07 o
-2 8 8 57.90 95.99 13.26 o
0 8 8 2757.93 2793.45 29.09 o
2 8 8 70.45 78.79 10.31 o
4 8 8 1606.74 1438.26 32.43 o
-1 9 8 10.91 88.03 22.31 o
1 9 8 14.30 11.66 10.86 <
0 1 9 56.74 62.96 5.43 o
-1 2 9 195.02 191.69 7.43 o
1 2 9 187.95 190.17 8.12 o
-2 3 9 3.75 7.70 8.52 <
0 3 9 335.85 330.80 9.07 o
2 3 9 8.62 2.29 8.25 <
-3 4 9 182.38 168.66 9.93 o
-1 4 9 43.14 50.06 9.21 o
1 4 9 52.63 15.58 9.21 <
3 4 9 175.75 197.53 10.19 o
-4 5 9 11.86 17.63 9.67 <
-2 5 9 247.19 294.20 14.29 o
0 5 9 17.34 41.46 12.99 o
2 5 9 244.77 282.19 13.47 o
4 5 9 15.16 22.58 11.21 o
-5 6 9 80.15 76.04 6.84 o
-3 6 9 9.63 -4.63 13.21 <
-1 6 9 70.98 59.99 15.82 o
1 6 9 63.21 78.76 10.22 o
3 6 9 15.09 5.49 4.61 <
5 6 9 77.50 80.57 5.32 o
-4 7 9 94.80 131.23 7.77 o
-2 7 9 19.36 -5.30 6.87 <
0 7 9 161.55 169.97 7.59 o
2 7 9 20.25 9.32 5.54 <
4 7 9 93.65 95.98 6.87 o
-3 8 9 36.71 10.84 8.25 <
-1 8 9 14.42 16.30 7.75 o
1 8 9 19.00 37.81 7.19 o
3 8 9 33.53 -1.60 7.43 <
0 9 9 13.23 -11.18 8.33 <
0 0 10 102.71 110.90 13.87 o
2 0 10 691.82 676.81 15.15 o
4 0 10 38.26 38.71 17.39 o
6 0 10 155.48 168.75 15.71 o
8 0 10 2.40 2.26 9.48 <
-7 1 10 1748.30 2086.89 25.54 o
-5 1 10 5081.83 4974.64 48.76 o
-3 1 10 10786.47 11643.43 58.61 o
-1 1 10 15845.42 15547.05 52.71 o
1 1 10 16678.90 16919.31 63.86 o
3 1 10 10194.00 10217.09 60.76 o
5 1 10 5407.74 5497.58 43.82 o
7 1 10 1604.18 1634.11 17.58 o
-8 2 10 46.56 38.37 12.04 o
-6 2 10 12.86 -11.40 7.83 <
-4 2 10 315.51 324.83 19.08 o
-2 2 10 65.23 79.66 13.26 o
0 2 10 691.96 705.05 15.31 o
2 2 10 63.02 42.41 11.82 o
4 2 10 318.55 340.18 15.75 o
6 2 10 10.30 -13.85 13.45 <
8 2 10 48.09 -5.01 8.92 <
-7 3 10 1537.10 1409.28 19.90 o
-5 3 10 3284.56 3719.16 33.81 o
-3 3 10 7713.04 7182.70 47.38 o
-1 3 10 10796.87 11427.20 49.09 o
1 3 10 10199.44 10321.72 56.47 o
3 3 10 8151.36 7921.96 46.37 o
5 3 10 3031.23 3150.98 28.46 o
7 3 10 1653.72 1477.00 19.32 o
-6 4 10 90.18 111.26 8.89 o
-4 4 10 23.54 34.30 15.15 o
-2 4 10 315.51 342.52 17.62 o
0 4 10 38.26 1.76 14.56 <
2 4 10 318.56 336.04 20.44 o
4 4 10 19.16 28.97 5.88 o
6 4 10 94.00 80.33 8.04 o
-7 5 10 622.07 780.73 25.98 o
-5 5 10 2239.80 1922.68 18.43 o
-3 5 10 3285.05 3772.58 39.21 o
-1 5 10 5084.40 4735.51 40.01 o
1 5 10 5411.84 5196.68 38.04 o
3 5 10 3032.08 3313.47 25.40 o
5 5 10 2395.03 2122.46 17.98 o
7 5 10 544.99 558.28 15.33 o
-6 6 10 12.90 -19.12 9.69 <
-4 6 10 90.18 102.90 9.88 o
-2 6 10 12.86 12.76 12.89 <
0 6 10 155.48 147.72 6.87 o
2 6 10 10.30 16.16 5.91 o
4 6 10 94.00 76.97 7.11 o
6 6 10 9.42 15.07 8.89 <
-5 7 10 622.52 652.02 17.78 o
-3 7 10 1539.11 1281.61 20.54 o
-1 7 10 1751.25 1953.95 20.78 o
1 7 10 1606.72 1582.56 21.63 o
3 7 10 1655.99 1454.35 20.86 o
5 7 10 545.29 537.09 21.27 o
-2 8 10 46.56 4.53 11.61 <
0 8 10 2.40 -2.50 17.15 <
2 8 10 48.09 42.47 11.93 o
0 1 11 95.35 87.69 7.83 o
-1 2 11 82.68 95.45 10.17 o
1 2 11 71.19 98.56 8.79 o
-2 3 11 101.39 77.71 10.30 o
0 3 11 18.34 35.52 9.29 o
2 3 11 110.46 112.77 14.86 o
-3 4 11 71.53 115.05 15.90 o
-1 4 11 108.24 130.82 12.78 o
1 4 11 123.93 118.84 10.41 o
3 4 11 58.92 68.77 5.09 o
-4 5 11 59.50 42.23 5.96 o
-2 5 11 18.60 22.02 9.24 o
0 5 11 75.51 74.95 13.53 o
2 5 11 12.78 19.81 9.24 o
4 5 11 67.78 62.94 4.90 o
-5 6 11 39.70 39.20 6.98 o
-3 6 11 65.92 76.07 5.70 o
-1 6 11 87.61 89.94 5.51 o
1 6 11 74.86 81.52 5.46 o
3 6 11 76.33 80.62 6.18 o
5 6 11 32.73 14.62 6.71 o
-4 7 11 17.66 -6.15 6.63 <
-2 7 11 36.07 19.70 7.51 o
0 7 11 0.45 -4.39 7.59 <
2 7 11 39.13 39.75 5.72 o
4 7 11 13.23 -8.60 7.38 <
-3 8 11 37.91 55.76 10.86 o
-1 8 11 41.26 50.43 9.88 o
1 8 11 48.40 61.27 7.24 o
3 8 11 32.01 28.28 9.72 o
0 0 12 49.71 28.70 20.80 <
2 0 12 16189.76 16697.05 80.10 o
4 0 12 32.33 31.71 16.70 <
6 0 12 3998.21 4296.58 27.25 o
8 0 12 39.90 69.02 11.42 o
-7 1 12 32.54 -9.72 13.34 <
-5 1 12 121.15 166.69 19.01 o
-3 1 12 203.59 196.90 17.11 o
-1 1 12 353.76 344.86 16.36 o
1 1 12 318.70 342.43 17.11 o
3 1 12 229.88 197.21 13.76 o
5 1 12 105.70 108.64 22.28 o
7 1 12 39.88 50.09 9.35 o
-6 2 12 33.72 76.40 10.76 o
-4 2 12 7959.09 8135.64 60.73 o
-2 2 12 31.50 15.50 12.25 <
0 2 12 16200.73 16193.60 60.82 o
2 2 12 49.02 41.75 15.55 o
4 2 12 7934.26 7922.15 56.38 o
6 2 12 51.67 84.84 7.99 o
-7 3 12 46.02 49.39 9.08 o
-5 3 12 59.63 62.78 8.25 o
-3 3 12 181.28 162.57 18.79 o
-1 3 12 203.59 228.62 13.79 o
1 3 12 229.88 257.26 12.19 o
3 3 12 161.18 147.26 9.96 o
5 3 12 71.76 95.72 8.73 o
7 3 12 40.10 40.18 8.65 o
-6 4 12 2307.89 2176.88 22.69 o
-4 4 12 35.25 62.65 7.08 o
-2 4 12 7960.91 8211.95 40.44 o
0 4 12 32.46 130.69 14.65 o
2 4 12 7942.27 7580.43 52.00 o
4 4 12 66.23 105.93 8.95 o
6 4 12 2282.27 2218.04 26.78 o
-5 5 12 67.28 94.39 9.96 o
-3 5 12 59.63 64.19 6.18 o
-1 5 12 121.15 132.00 7.32 o
1 5 12 105.70 94.62 7.45 o
3 5 12 71.76 50.27 8.28 o
5 5 12 59.66 41.70 9.29 o
-4 6 12 2308.96 2164.30 27.71 o
-2 6 12 34.19 87.23 8.81 o
0 6 12 4003.40 3914.01 23.59 o
2 6 12 52.29 80.76 6.74 o
4 6 12 2283.38 2064.86 21.97 o
-3 7 12 46.02 17.68 16.59 <
-1 7 12 32.54 35.17 9.85 o
1 7 12 39.88 57.04 12.73 o
3 7 12 40.10 41.96 10.86 o
0 8 12 40.88 48.12 25.11 <
0 1 13 77.09 94.33 10.76 o
-1 2 13 15.42 20.29 11.05 <
1 2 13 18.18 16.54 10.36 <
-2 3 13 113.88 121.69 13.66 o
0 3 13 0.85 9.99 9.35 <
2 3 13 111.96 145.81 11.15 o
-3 4 13 2.19 9.48 12.65 <
-1 4 13 48.84 83.05 10.65 o
1 4 13 45.07 33.76 18.40 <
3 4 13 4.79 3.25 5.86 <
-4 5 13 75.35 70.00 6.52 o
-2 5 13 8.70 11.21 5.65 <
0 5 13 121.64 131.99 7.16 o
2 5 13 9.62 15.15 5.78 o
4 5 13 74.17 85.36 7.22 o
-5 6 13 6.12 -27.21 9.64 <
-3 6 13 41.56 26.28 8.04 o
-1 6 13 7.36 10.78 5.78 <
1 6 13 10.43 4.21 6.26 <
3 6 13 39.50 27.24 6.90 o
5 6 13 6.98 -30.84 9.13 <
-2 7 13 67.24 77.16 8.55 o
0 7 13 12.73 -5.83 7.38 <
2 7 13 66.95 80.70 8.20 o
0 0 14 419.85 456.56 18.70 o
2 0 14 73.86 82.96 13.31 o
4 0 14 205.23 236.16 24.09 o
6 0 14 13.23 17.52 9.59 <
-7 1 14 750.45 702.40 17.78 o
-5 1 14 1741.43 2002.44 21.52 o
-3 1 14 3390.73 3381.74 33.53 o
-1 1 14 4844.45 5321.93 33.70 o
1 1 14 4536.87 4717.13 34.08 o
3 1 14 3625.99 3825.90 38.71 o
5 1 14 1597.19 1660.11 20.72 o
7 1 14 820.70 874.79 18.98 o
-6 2 14 79.77 68.72 11.08 o
-4 2 14 32.30 36.32 8.68 o
-2 2 14 291.24 316.84 9.85 o
0 2 14 73.86 79.16 7.30 o
2 2 14 292.29 373.70 20.49 o
4 2 14 30.69 22.53 9.51 o
6 2 14 81.24 49.68 8.97 o
-5 3 14 1530.90 1334.22 18.22 o
-3 3 14 2291.67 2712.04 23.94 o
-1 3 14 3390.46 3362.45 28.69 o
1 3 14 3626.18 3962.65 30.24 o
3 3 14 2105.53 2107.23 32.12 o
5 3 14 1647.38 1479.25 19.79 o
-6 4 14 12.56 1.04 9.83 <
-4 4 14 110.90 106.84 8.23 o
-2 4 14 32.30 55.20 8.07 o
0 4 14 205.23 234.19 13.20 o
2 4 14 30.69 39.41 8.15 o
4 4 14 113.34 128.86 8.63 o
6 4 14 10.29 6.02 8.63 <
-5 5 14 620.42 666.61 18.02 o
-3 5 14 1531.31 1218.98 18.33 o
-1 5 14 1742.12 1885.16 21.97 o
1 5 14 1598.28 1577.24 21.07 o
3 5 14 1648.36 1395.34 17.88 o
5 5 14 543.28 560.19 14.11 o
-4 6 14 12.56 -21.01 12.33 <
-2 6 14 79.77 68.88 12.11 o
0 6 14 13.23 1.36 8.23 <
2 6 14 81.24 54.95 12.73 o
4 6 14 10.29 -7.86 11.48 <
-1 7 14 751.64 680.41 19.06 o
1 7 14 822.09 750.10 17.20 o
0 1 15 17.68 25.78 5.78 o
-1 2 15 31.67 22.85 5.91 o
1 2 15 37.06 49.79 5.46 o
-2 3 15 17.40 35.44 7.06 o
0 3 15 30.02 21.33 6.50 o
2 3 15 12.94 27.69 5.54 o
-3 4 15 32.47 45.43 6.34 o
-1 4 15 39.96 58.15 6.34 o
1 4 15 32.39 55.62 7.40 o
3 4 15 38.79 34.78 6.15 o
-4 5 15 19.01 9.77 9.27 <
-2 5 15 21.44 15.04 8.41 <
0 5 15 2.21 19.92 7.06 o
2 5 15 24.49 11.90 6.68 <
4 5 15 14.63 -11.16 6.26 <
-3 6 15 29.29 2.45 10.44 <
-1 6 15 30.71 46.84 8.71 o
1 6 15 36.96 16.00 8.31 <
3 6 15 24.02 7.67 6.36 <
0 0 16 5040.50 5510.63 53.20 o
2 0 16 88.88 29.29 7.80 o
4 0 16 2731.92 2827.51 26.29 o
6 0 16 38.27 74.72 12.30 o
-5 1 16 46.69 44.63 10.20 o
-3 1 16 113.46 114.43 9.72 o
-1 1 16 138.01 190.34 11.61 o
1 1 16 156.79 202.94 9.88 o
3 1 16 98.93 86.15 9.48 o
5 1 16 55.51 61.69 8.92 o
-4 2 16 52.32 94.53 9.37 o
-2 2 16 3710.79 4008.20 39.25 o
0 2 16 88.97 68.67 9.88 o
2 2 16 3700.06 3947.00 33.07 o
4 2 16 64.71 110.34 11.53 o
-5 3 16 50.93 22.55 12.35 <
-3 3 16 64.13 82.94 10.73 o
-1 3 16 113.46 128.46 10.52 o
1 3 16 98.93 131.33 12.25 o
3 3 16 75.47 75.80 9.43 o
5 3 16 43.92 39.14 9.83 o
-4 4 16 1611.92 1483.57 21.20 o
-2 4 16 52.49 93.49 10.84 o
0 4 16 2731.98 2772.89 33.20 o
2 4 16 64.91 111.41 10.86 o
4 4 16 1594.39 1441.26 17.90 o
-3 5 16 50.93 -5.35 13.18 <
-1 5 16 46.69 44.31 15.36 o
1 5 16 55.51 56.00 9.56 o
3 5 16 43.92 38.37 9.96 o
0 6 16 38.69 82.09 13.47 o
0 1 17 4.75 1.73 7.54 <
-1 2 17 19.65 31.42 8.20 o
1 2 17 18.62 9.85 7.08 <
-2 3 17 0.49 -4.37 6.63 <
0 3 17 37.31 59.86 6.87 o
2 3 17 1.21 -11.80 6.95 <
-3 4 17 24.81 15.04 9.59 <
-1 4 17 2.76 21.52 7.83 o
1 4 17 4.11 33.15 7.27 o
3 4 17 23.91 40.77 8.39 o
-2 5 17 34.74 44.49 10.12 o
0 5 17 4.05 -7.32 8.25 <
2 5 17 34.41 10.44 7.80 <
0 0 18 39.90 29.58 14.41 o
2 0 18 127.11 155.35 14.27 o
4 0 18 18.43 20.72 9.75 o
-3 1 18 874.08 1016.51 17.19 o
-1 1 18 1131.90 1267.50 24.59 o
1 1 18 1226.16 1339.38 20.65 o
3 1 18 797.39 831.15 15.89 o
-4 2 18 68.42 63.45 9.13 o
-2 2 18 27.25 14.78 10.23 <
0 2 18 127.11 136.04 11.82 o
2 2 18 26.83 10.20 10.04 <
4 2 18 69.09 68.40 11.42 o
-3 3 18 746.28 618.61 15.54 o
-1 3 18 874.27 984.16 22.04 o
1 3 18 797.52 863.35 21.34 o
3 3 18 809.34 707.97 17.17 o
-2 4 18 68.42 50.16 14.56 o
0 4 18 18.43 20.42 14.11 <
2 4 18 69.09 59.48 10.30 o
0 1 19 6.60 5.70 7.64 <
-1 2 19 7.10 -10.54 8.20 <
1 2 19 5.18 6.50 7.78 <
-2 3 19 7.39 -4.61 8.04 <
0 3 19 1.63 16.54 7.78 o
2 3 19 9.03 -2.40 7.99 <
0 0 20 107.63 34.45 25.29 <
-1 1 20 51.50 42.71 15.36 o
1 1 20 43.82 39.14 22.61 <
3 1 0 360.76 353.72 6.27 o
5 1 0 83.28 64.45 8.12 o
7 1 0 53.67 61.00 8.63 o
9 1 0 8.85 -18.21 11.08 <
1 3 0 360.67 337.59 5.58 o
3 3 0 101.42 88.43 9.21 o
5 3 0 149.45 170.87 12.80 o
7 3 0 7.19 -13.02 8.44 <
9 3 0 23.53 58.69 14.22 o
1 5 0 83.28 85.49 8.76 o
3 5 0 149.45 178.11 12.14 o
5 5 0 4.91 23.14 19.01 <
7 5 0 57.15 63.93 9.88 o
1 7 0 53.67 56.71 7.08 o
3 7 0 7.19 19.23 6.66 o
5 7 0 57.15 51.10 9.77 o
7 7 0 0.52 -0.40 11.98 <
1 9 0 8.85 2.58 10.07 <
3 9 0 23.53 56.24 15.87 o
-1 2 1 779.91 749.79 5.48 o
1 2 1 755.09 708.81 4.16 o
-2 3 1 57.08 54.92 4.15 o
0 3 1 975.62 937.84 5.78 o
2 3 1 73.12 62.67 3.46 o
-3 4 1 471.93 483.93 10.29 o
-1 4 1 264.95 274.37 6.73 o
1 4 1 293.64 280.50 5.96 o
3 4 1 451.94 490.47 10.00 o
-4 5 1 35.91 45.05 10.06 o
-2 5 1 540.43 565.26 9.76 o
0 5 1 11.31 6.04 6.31 <
2 5 1 532.58 522.05 8.54 o
4 5 1 46.50 35.17 10.46 o
-5 6 1 153.65 161.09 5.59 o
-3 6 1 87.19 98.82 11.16 o
-1 6 1 255.88 262.78 10.06 o
1 6 1 234.87 226.69 11.44 o
3 6 1 102.64 108.63 9.13 o
5 6 1 145.04 163.51 5.51 o
-6 7 1 11.71 27.99 7.24 o
-4 7 1 165.67 194.66 8.44 o
-2 7 1 21.64 22.26 5.46 o
0 7 1 322.73 343.09 7.40 o
2 7 1 24.89 29.98 5.65 o
4 7 1 161.14 182.04 7.85 o
6 7 1 15.44 -3.91 7.48 <
-5 8 1 19.08 13.58 7.80 <
-3 8 1 94.21 104.13 7.61 o
-1 8 1 82.65 105.38 7.22 o
1 8 1 94.40 72.90 6.95 o
3 8 1 85.43 75.40 8.33 o
5 8 1 24.02 53.02 9.45 o
-4 9 1 8.50 19.07 7.67 o
-2 9 1 102.41 119.49 8.63 o
0 9 1 15.72 -11.37 7.03 <
2 9 1 101.29 101.57 8.60 o
4 9 1 10.06 0.03 8.44 <
-1 10 1 38.14 26.97 9.32 o
1 10 1 33.27 45.91 9.48 o
2 0 2 869.34 775.85 4.95 o
4 0 2 75.28 67.38 6.50 o
6 0 2 121.25 125.81 16.16 o
8 0 2 10.89 7.32 8.73 <
10 0 2 11.23 44.12 11.93 o
-8 2 2 35.76 54.80 9.40 o
-6 2 2 31.07 16.70 17.41 <
-4 2 2 279.24 284.09 10.03 o
-2 2 2 144.93 125.52 5.43 o
0 2 2 868.10 780.48 5.98 o
2 2 2 139.54 118.70 4.31 o
4 2 2 285.23 310.36 7.98 o
6 2 2 26.95 61.93 16.22 o
8 2 2 37.92 4.93 9.85 <
-8 4 2 15.29 4.29 10.54 <
-6 4 2 73.58 55.70 14.30 o
-4 4 2 51.25 83.79 12.67 o
-2 4 2 279.24 289.97 9.87 o
0 4 2 75.28 56.97 6.89 o
2 4 2 285.22 308.07 12.00 o
4 4 2 43.75 69.84 13.23 o
6 4 2 79.34 88.26 10.25 o
8 4 2 12.09 25.03 8.65 o
-8 6 2 18.92 11.80 11.45 <
-6 6 2 24.82 12.36 7.16 <
-4 6 2 73.58 67.17 11.93 o
-2 6 2 31.07 15.23 15.47 <
0 6 2 121.25 149.72 16.21 o
2 6 2 26.95 21.78 21.70 <
4 6 2 79.34 63.29 20.85 o
6 6 2 19.96 7.48 7.70 <
8 6 2 21.78 30.09 15.07 <
-6 8 2 18.92 -37.57 11.53 <
-4 8 2 15.29 8.84 14.46 <
-2 8 2 35.76 33.31 9.03 o
0 8 2 10.89 -1.81 7.64 <
2 8 2 37.92 36.91 8.55 o
4 8 2 12.09 29.05 10.49 o
6 8 2 21.78 -7.35 9.40 <
0 10 2 11.23 22.55 12.99 <
0 1 3 768.22 672.18 3.28 o
-1 2 3 361.00 342.63 3.32 o
1 2 3 334.63 304.16 3.45 o
-2 3 3 608.62 627.76 6.75 o
0 3 3 42.19 26.78 2.40 o
2 3 3 626.32 639.27 6.40 o
-3 4 3 161.39 160.71 7.08 o
-1 4 3 428.09 461.16 7.20 o
1 4 3 459.16 479.70 8.14 o
3 4 3 139.06 159.64 7.75 o
-4 5 3 254.08 281.02 11.79 o
-2 5 3 29.73 35.20 8.68 o
0 5 3 483.99 494.96 10.58 o
2 5 3 20.52 17.20 7.46 o
4 5 3 266.58 284.68 13.25 o
-5 6 3 59.80 52.51 4.05 o
-3 6 3 207.49 209.45 11.58 o
-1 6 3 228.82 221.78 11.42 o
1 6 3 205.97 216.75 12.75 o
3 6 3 224.78 236.59 7.99 o
5 6 3 49.59 50.16 4.58 o
-6 7 3 59.58 55.09 6.87 o
-4 7 3 23.12 17.47 5.17 o
-2 7 3 203.18 213.35 6.65 o
0 7 3 10.21 9.59 7.64 <
2 7 3 207.25 199.06 8.36 o
4 7 3 17.37 16.56 6.07 o
6 7 3 64.39 52.85 7.67 o
-5 8 3 51.55 63.64 9.35 o
-3 8 3 71.67 77.88 9.29 o
-1 8 3 108.96 130.32 7.29 o
1 8 3 121.60 123.48 6.76 o
3 8 3 61.94 56.23 8.28 o
5 8 3 57.40 53.04 8.07 o
-4 9 3 46.98 41.80 7.85 o
-2 9 3 8.97 1.84 8.36 <
0 9 3 92.85 107.54 10.41 o
2 9 3 7.47 23.99 7.99 o
4 9 3 49.13 28.36 7.46 o
-1 10 3 38.54 1.12 8.39 <
1 10 3 33.42 20.74 8.73 o
-9 1 4 20.74 -14.01 12.99 <
-7 1 4 34.82 24.42 11.40 o
-5 1 4 173.18 202.89 13.74 o
-3 1 4 303.25 298.02 6.06 o
-1 1 4 697.40 682.06 5.49 o
1 1 4 652.58 601.19 5.33 o
3 1 4 331.91 313.63 6.41 o
5 1 4 159.30 179.35 12.91 o
7 1 4 40.78 31.18 7.62 o
9 1 4 18.50 6.66 11.08 <
-9 3 4 3.80 1.33 9.91 <
-7 3 4 72.14 96.28 9.90 o
-5 3 4 49.02 55.62 12.70 o
-3 3 4 302.29 340.57 11.12 o
-1 3 4 303.19 317.43 5.98 o
1 3 4 331.88 327.42 7.82 o
3 3 4 282.76 304.36 10.37 o
5 3 4 59.33 61.67 12.19 o
7 3 4 67.46 77.19 8.52 o
9 3 4 5.61 -5.62 11.13 <
-7 5 4 4.91 -10.54 8.12 <
-5 5 4 113.26 154.71 19.20 o
-3 5 4 49.02 64.67 12.97 o
-1 5 4 173.18 206.32 14.05 o
1 5 4 159.30 170.72 10.75 o
3 5 4 59.33 28.12 18.05 <
5 5 4 107.20 96.64 18.58 o
7 5 4 7.88 11.26 8.49 <
-7 7 4 35.97 -30.54 24.79 <
-5 7 4 4.91 18.29 11.26 <
-3 7 4 72.14 95.75 12.09 o
-1 7 4 34.82 46.62 12.04 o
1 7 4 40.78 54.27 13.42 o
3 7 4 67.46 89.41 9.88 o
5 7 4 7.88 14.25 8.97 <
7 7 4 34.41 21.99 13.45 <
-3 9 4 3.80 -25.80 9.99 <
-1 9 4 20.74 19.92 12.52 <
1 9 4 18.50 35.84 10.17 o
3 9 4 5.61 -6.95 10.68 <
0 1 5 608.27 575.36 4.11 o
-1 2 5 172.88 150.03 2.90 o
1 2 5 187.80 155.77 3.11 o
-2 3 5 614.24 669.11 6.99 o
0 3 5 5.01 0.00 3.51 <
2 3 5 604.36 600.69 7.89 o
-3 4 5 42.67 37.67 7.69 o
-1 4 5 312.47 318.61 7.32 o
1 4 5 294.05 293.52 7.87 o
3 4 5 55.53 55.89 7.27 o
-4 5 5 284.41 305.67 12.40 o
-2 5 5 21.95 42.12 9.35 o
0 5 5 556.71 557.12 12.42 o
2 5 5 26.81 42.55 10.01 o
4 5 5 277.77 285.43 13.95 o
-5 6 5 16.39 32.62 11.37 o
-3 6 5 176.68 152.62 14.19 o
-1 6 5 93.70 88.31 14.35 o
1 6 5 107.97 116.19 11.37 o
3 6 5 166.39 149.63 12.01 o
5 6 5 21.81 5.54 4.39 <
-6 7 5 74.93 57.54 7.43 o
-4 7 5 17.48 7.22 5.38 <
-2 7 5 247.46 296.41 11.55 o
0 7 5 31.50 23.88 8.55 o
2 7 5 245.53 259.01 10.94 o
4 7 5 20.11 11.96 6.55 <
6 7 5 72.82 62.57 8.09 o
-5 8 5 50.98 37.01 7.70 o
-3 8 5 22.75 36.64 7.48 o
-1 8 5 72.86 61.11 6.84 o
1 8 5 64.62 57.22 6.31 o
3 8 5 28.71 30.33 6.50 o
5 8 5 47.87 12.70 8.23 <
-4 9 5 61.90 53.17 9.51 o
-2 9 5 15.63 16.62 7.22 o
0 9 5 109.70 113.07 8.07 o
2 9 5 16.25 27.11 7.38 o
4 9 5 61.08 53.01 11.48 o
0 0 6 1447.29 1385.12 13.51 o
2 0 6 6.42 -2.58 4.31 <
4 0 6 521.82 548.61 11.38 o
6 0 6 1.09 50.91 21.52 o
8 0 6 63.00 78.63 9.48 o
-8 2 6 3.78 -18.19 8.65 <
-6 2 6 168.30 217.78 23.00 o
-4 2 6 10.61 16.40 8.87 <
-2 2 6 834.25 883.33 10.91 o
0 2 6 6.42 19.17 5.14 o
2 2 6 838.09 807.19 14.34 o
4 2 6 6.06 4.15 8.55 <
6 2 6 171.73 160.81 13.28 o
8 2 6 1.88 17.79 7.88 o
-8 4 6 41.73 23.96 16.48 <
-6 4 6 14.72 12.04 19.65 <
-4 4 6 245.88 272.14 11.95 o
-2 4 6 10.61 -1.65 10.57 <
0 4 6 521.75 540.97 11.62 o
2 4 6 6.06 2.64 8.57 <
4 4 6 251.94 259.74 15.06 o
6 4 6 9.78 6.55 6.66 <
8 4 6 44.59 74.10 12.33 o
-6 6 6 59.92 56.79 7.40 o
-4 6 6 14.72 28.57 14.19 o
-2 6 6 168.31 164.59 20.02 o
0 6 6 1.09 22.74 21.62 <
2 6 6 171.73 189.67 16.00 o
4 6 6 9.78 -12.73 8.33 <
6 6 6 64.21 31.26 8.17 o
-4 8 6 41.73 15.92 12.97 <
-2 8 6 3.78 -12.92 8.55 <
0 8 6 63.00 75.33 8.92 o
2 8 6 1.88 -4.63 8.97 <
4 8 6 44.59 46.15 10.54 o
0 1 7 165.36 157.30 4.12 o
-1 2 7 311.78 307.05 5.67 o
1 2 7 330.78 318.54 4.79 o
-2 3 7 85.14 98.56 5.91 o
0 3 7 338.04 322.03 6.20 o
2 3 7 71.30 77.07 6.15 o
-3 4 7 237.03 239.89 8.52 o
-1 4 7 239.74 237.25 7.43 o
1 4 7 215.63 230.11 8.86 o
3 4 7 255.40 261.10 10.83 o
-4 5 7 61.59 83.61 14.83 o
-2 5 7 209.66 187.14 12.70 o
0 5 7 2.00 8.60 11.00 <
2 5 7 217.68 220.23 13.95 o
4 5 7 50.42 65.66 6.74 o
-5 6 7 86.95 100.22 5.09 o
-3 6 7 118.52 106.10 14.35 o
-1 6 7 179.45 163.65 14.91 o
1 6 7 198.18 211.55 14.27 o
3 6 7 103.79 118.52 10.04 o
5 6 7 96.22 102.99 6.12 o
-6 7 7 26.12 -3.70 8.87 <
-4 7 7 71.95 76.28 7.72 o
-2 7 7 10.82 14.59 13.42 <
0 7 7 124.75 118.82 11.74 o
2 7 7 6.93 -3.49 11.98 <
4 7 7 77.51 60.79 5.99 o
6 7 7 21.40 -3.28 8.41 <
-5 8 7 37.25 41.59 11.10 o
-3 8 7 66.73 86.85 7.91 o
-1 8 7 89.17 98.89 6.60 o
1 8 7 78.74 79.45 6.63 o
3 8 7 75.04 77.96 6.26 o
5 8 7 31.92 40.31 8.28 o
-2 9 7 41.72 35.07 7.93 o
0 9 7 2.53 -19.87 6.90 <
2 9 7 43.25 39.73 8.60 o
-9 1 8 12.72 -1.92 10.36 <
-7 1 8 69.90 95.93 7.99 o
-5 1 8 137.93 140.31 17.12 o
-3 1 8 399.66 419.08 9.90 o
-1 1 8 543.36 563.23 10.04 o
1 1 8 591.96 597.24 9.01 o
3 1 8 366.04 376.64 12.13 o
5 1 8 156.10 178.36 26.06 o
7 1 8 61.61 50.40 8.01 o
9 1 8 15.89 -7.83 10.54 <
-7 3 8 25.80 0.93 8.25 <
-5 3 8 161.11 206.05 19.62 o
-3 3 8 192.74 188.75 10.73 o
-1 3 8 399.66 441.75 11.49 o
1 3 8 366.04 357.30 9.79 o
3 3 8 217.17 199.02 11.37 o
5 3 8 147.18 162.25 14.77 o
7 3 8 32.39 -7.46 8.12 <
-7 5 8 55.41 54.96 12.67 o
-5 5 8 34.91 25.88 5.67 o
-3 5 8 161.11 179.97 13.68 o
-1 5 8 137.93 146.57 18.34 o
1 5 8 156.11 173.71 17.70 o
3 5 8 147.19 156.21 8.23 o
5 5 8 43.41 -9.72 25.59 <
7 5 8 51.15 16.59 11.29 <
-5 7 8 55.41 14.41 8.71 <
-3 7 8 25.80 61.48 8.23 o
-1 7 8 69.90 144.74 21.09 o
1 7 8 61.61 25.72 26.44 <
3 7 8 32.39 23.51 8.63 o
5 7 8 51.15 39.91 8.01 o
-1 9 8 12.73 18.99 8.89 o
1 9 8 15.89 15.58 10.20 <
0 1 9 64.41 70.66 5.59 o
-1 2 9 220.68 232.81 6.95 o
1 2 9 214.08 204.39 6.23 o
-2 3 9 4.74 9.29 7.43 <
0 3 9 381.29 401.97 8.78 o
2 3 9 9.30 -5.54 8.55 <
-3 4 9 206.38 211.03 9.32 o
-1 4 9 49.92 43.11 10.25 o
1 4 9 58.80 40.92 12.49 o
3 4 9 200.17 181.66 10.30 o
-4 5 9 13.80 9.77 11.98 <
-2 5 9 280.38 334.65 17.30 o
0 5 9 19.69 33.42 12.54 o
2 5 9 278.11 314.42 15.01 o
4 5 9 16.88 19.25 6.92 o
-5 6 9 90.72 81.71 6.82 o
-3 6 9 11.48 -47.61 16.43 <
-1 6 9 79.80 50.38 15.60 o
1 6 9 72.53 46.70 14.83 o
3 6 9 16.58 19.12 4.74 o
5 6 9 88.25 87.84 5.86 o
-4 7 9 107.50 101.79 7.16 o
-2 7 9 22.07 8.79 6.20 <
0 7 9 183.40 216.16 7.85 o
2 7 9 22.90 13.23 6.18 o
4 7 9 106.43 106.47 6.02 o
-3 8 9 41.36 15.71 6.71 o
-1 8 9 16.83 -16.19 5.99 <
1 8 9 21.11 14.86 6.55 o
3 8 9 38.38 7.80 7.48 <
0 9 9 15.02 3.94 8.04 <
0 0 10 116.60 93.78 10.67 o
2 0 10 785.46 793.16 15.04 o
4 0 10 43.43 43.19 13.55 o
6 0 10 176.50 186.74 21.32 o
8 0 10 2.72 30.22 10.73 o
-8 2 10 53.01 62.84 8.41 o
-6 2 10 14.34 -9.37 31.79 <
-4 2 10 358.49 379.06 21.13 o
-2 2 10 73.83 100.08 12.89 o
0 2 10 785.54 797.06 13.85 o
2 2 10 71.76 74.95 10.62 o
4 2 10 361.29 381.59 18.44 o
6 2 10 11.95 14.22 22.58 <
8 2 10 54.44 51.55 12.75 o
-6 4 10 102.75 99.63 12.06 o
-4 4 10 26.28 30.46 20.42 <
-2 4 10 358.49 437.73 18.17 o
0 4 10 43.43 59.24 15.87 o
2 4 10 361.33 355.75 12.85 o
4 4 10 22.19 50.27 12.86 o
6 4 10 106.33 85.81 7.27 o
-6 6 10 14.30 -5.19 8.36 <
-4 6 10 102.76 131.68 9.96 o
-2 6 10 14.34 8.12 7.00 <
0 6 10 176.50 158.26 23.59 o
2 6 10 11.95 20.90 16.24 <
4 6 10 106.33 118.19 9.37 o
6 6 10 11.04 -7.46 8.49 <
-2 8 10 53.01 42.02 11.10 o
0 8 10 2.72 -10.47 9.03 <
2 8 10 54.44 36.51 9.83 o
0 1 11 108.25 114.31 7.19 o
-1 2 11 92.71 103.36 6.28 o
1 2 11 81.96 91.32 7.53 o
-2 3 11 116.00 128.98 10.33 o
0 3 11 20.82 51.52 9.11 o
2 3 11 124.49 115.52 9.26 o
-3 4 11 79.95 96.07 13.15 o
-1 4 11 124.45 106.64 11.71 o
1 4 11 139.12 141.45 10.62 o
3 4 11 68.15 49.10 9.85 o
-4 5 11 68.38 55.91 6.31 o
-2 5 11 20.54 44.90 15.10 o
0 5 11 85.72 39.56 14.80 o
2 5 11 15.09 12.20 17.92 <
4 5 11 76.12 89.57 5.27 o
-5 6 11 44.37 40.34 7.30 o
-3 6 11 75.88 88.63 7.14 o
-1 6 11 98.18 108.52 6.26 o
1 6 11 86.26 76.81 12.54 o
3 6 11 85.61 98.94 7.30 o
5 6 11 37.85 40.50 7.19 o
-4 7 11 19.60 5.22 6.55 <
-2 7 11 41.25 20.56 6.44 o
0 7 11 0.51 13.87 7.30 <
2 7 11 44.11 33.28 6.95 o
4 7 11 15.46 5.75 6.26 <
-3 8 11 42.45 67.63 9.51 o
-1 8 11 47.55 51.60 8.17 o
1 8 11 54.24 41.03 7.96 o
3 8 11 36.93 36.32 7.96 o
-7 1 12 37.67 53.79 15.71 o
-5 1 12 135.99 104.15 19.67 o
-3 1 12 233.74 218.77 14.21 o
-1 1 12 398.07 445.72 16.44 o
1 1 12 365.30 397.42 14.87 o
3 1 12 258.33 280.60 15.70 o
5 1 12 121.54 111.60 35.27 o
7 1 12 44.54 59.83 18.03 o
-7 3 12 51.65 59.64 16.16 o
-5 3 12 68.91 66.16 9.88 o
-3 3 12 203.78 195.05 18.13 o
-1 3 12 233.75 293.69 19.51 o
1 3 12 258.33 262.92 18.58 o
3 3 12 184.98 198.73 14.67 o
5 3 12 80.25 55.97 8.07 o
7 3 12 46.11 24.44 9.77 o
-5 5 12 75.62 84.88 10.14 o
-3 5 12 68.91 36.00 9.72 o
-1 5 12 135.99 122.15 7.88 o
1 5 12 121.54 103.40 13.90 o
3 5 12 80.25 94.84 7.85 o
5 5 12 68.49 59.91 11.48 o
-3 7 12 51.65 15.47 10.78 <
-1 7 12 37.67 33.44 9.64 o
1 7 12 44.54 4.93 11.64 <
3 7 12 46.11 26.63 9.45 o
0 1 13 87.51 114.38 10.09 o
-1 2 13 17.78 14.30 11.74 <
1 2 13 20.36 14.81 11.40 <
-2 3 13 129.09 158.99 12.49 o
0 3 13 0.96 -0.13 10.84 <
2 3 13 127.30 127.92 13.34 o
-3 4 13 2.75 10.20 9.75 <
-1 4 13 55.07 53.01 10.33 o
1 4 13 51.54 39.01 17.20 o
3 4 13 5.18 5.81 4.93 <
-4 5 13 85.42 75.51 6.71 o
-2 5 13 9.97 -9.59 7.08 <
0 5 13 138.09 153.69 6.28 o
2 5 13 10.83 9.85 5.27 <
4 5 13 84.32 94.94 6.74 o
-5 6 13 7.03 -39.76 9.85 <
-3 6 13 46.97 67.71 7.27 o
-1 6 13 8.66 13.79 8.23 <
1 6 13 11.54 -4.87 6.98 <
3 6 13 45.05 35.73 6.18 o
5 6 13 7.83 -0.83 10.09 <
-2 7 13 76.30 84.91 9.96 o
0 7 13 14.46 34.08 9.67 o
2 7 13 76.03 79.69 7.91 o
0 0 14 476.54 554.73 24.13 o
2 0 14 83.84 109.08 14.75 o
4 0 14 232.98 266.10 9.72 o
6 0 14 15.02 3.99 10.36 <
-6 2 14 90.70 115.50 15.74 o
-4 2 14 36.50 48.62 9.40 o
-2 2 14 330.71 316.85 20.97 o
0 2 14 83.84 76.73 18.13 o
2 2 14 331.71 330.98 21.10 o
4 2 14 35.00 24.10 8.07 o
6 2 14 92.07 117.33 15.97 o
-6 4 14 14.04 28.20 11.45 o
-4 4 14 126.14 124.92 9.24 o
-2 4 14 36.50 22.61 8.09 o
0 4 14 232.98 256.76 8.70 o
2 4 14 35.00 51.82 8.07 o
4 4 14 128.43 109.90 8.60 o
6 4 14 11.91 -12.81 12.12 <
-4 6 14 14.04 -32.73 9.43 <
-2 6 14 90.70 120.26 11.93 o
0 6 14 15.02 4.98 9.75 <
2 6 14 92.07 84.51 9.53 o
4 6 14 11.91 1.25 10.44 <
0 1 15 20.07 28.84 14.03 o
-1 2 15 36.49 35.31 11.80 o
1 2 15 41.54 17.92 13.02 <
-2 3 15 19.31 46.89 5.67 o
0 3 15 34.08 27.77 7.72 o
2 3 15 15.13 19.39 5.17 o
-3 4 15 37.49 14.64 5.83 o
-1 4 15 44.61 37.01 5.25 o
1 4 15 37.52 58.66 6.92 o
3 4 15 43.40 19.04 6.82 o
-4 5 15 21.14 4.37 9.16 <
-2 5 15 24.65 11.66 7.62 <
0 5 15 2.51 -1.09 7.54 <
2 5 15 27.50 9.27 6.12 <
4 5 15 17.04 8.36 7.00 <
-3 6 15 32.72 34.86 8.57 o
-1 6 15 35.49 68.35 12.75 o
1 6 15 41.33 49.74 8.04 o
3 6 15 27.79 4.15 7.67 <
-5 1 16 53.89 115.50 28.44 o
-3 1 16 127.34 124.49 9.35 o
-1 1 16 158.54 177.32 19.70 o
1 1 16 176.11 188.80 16.56 o
3 1 16 113.76 95.60 8.65 o
5 1 16 62.13 71.31 10.65 o
-5 3 16 57.12 13.98 17.44 <
-3 3 16 73.93 41.48 8.60 o
-1 3 16 127.34 131.55 8.60 o
1 3 16 113.75 116.21 9.10 o
3 3 16 84.54 43.64 8.92 o
5 3 16 50.56 11.05 10.60 <
-3 5 16 57.12 56.08 8.71 o
-1 5 16 53.89 107.99 13.66 o
1 5 16 62.13 68.08 9.93 o
3 5 16 50.56 6.50 15.28 <
0 1 17 5.39 14.67 4.47 o
-1 2 17 22.20 29.40 5.11 o
1 2 17 21.24 12.65 4.87 o
-2 3 17 0.63 -15.18 6.82 <
0 3 17 42.36 63.11 6.79 o
2 3 17 1.30 12.33 5.99 o
-3 4 17 28.08 19.17 8.76 o
-1 4 17 3.27 21.97 6.74 o
1 4 17 4.53 -10.86 5.86 <
3 4 17 27.23 7.32 7.70 <
-2 5 17 39.41 64.38 7.88 o
0 5 17 4.59 -5.65 9.43 <
2 5 17 39.10 36.03 7.22 o
0 0 18 45.30 58.47 9.53 o
2 0 18 144.29 113.22 7.93 o
4 0 18 20.93 -23.14 11.13 <
-4 2 18 77.74 49.31 13.34 o
-2 2 18 30.89 10.68 8.36 <
0 2 18 144.29 154.12 9.88 o
2 2 18 30.49 32.70 10.38 o
4 2 18 78.37 40.26 15.60 o
-2 4 18 77.74 97.85 12.57 o
0 4 18 20.93 32.70 9.05 o
2 4 18 78.36 71.22 16.16 o
0 1 19 7.49 12.38 5.86 o
-1 2 19 7.87 8.23 7.51 <
1 2 19 6.07 38.03 7.80 o
-2 3 19 8.55 8.15 9.64 <
0 3 19 1.85 -12.89 8.28 <
2 3 19 10.09 14.73 8.41 <
-1 1 20 57.69 -12.59 20.18 <
1 1 20 50.51 29.87 11.58 o
3 1 0 375.62 383.15 5.90 o
5 1 0 86.73 96.05 9.61 o
7 1 0 55.90 61.69 10.41 o
9 1 0 9.22 25.91 9.48 o
1 3 0 375.71 368.34 5.02 o
3 3 0 105.62 85.37 5.59 o
5 3 0 155.64 195.28 14.35 o
7 3 0 7.49 12.86 17.15 <
9 3 0 24.51 38.10 9.77 o
1 5 0 86.73 91.48 8.49 o
3 5 0 155.65 184.02 12.48 o
5 5 0 5.11 -21.57 16.96 <
7 5 0 59.51 77.86 11.56 o
1 7 0 55.90 83.82 17.01 o
3 7 0 7.49 7.14 16.78 <
5 7 0 59.51 60.84 8.71 o
7 7 0 0.54 -33.53 12.25 <
1 9 0 9.22 -22.45 8.02 <
3 9 0 24.51 42.52 11.13 o
-1 2 1 815.69 775.44 4.37 o
1 2 1 782.95 723.59 4.08 o
-2 3 1 57.06 50.28 3.19 o
0 3 1 1016.07 1035.90 5.67 o
2 3 1 78.54 65.84 3.17 o
-3 4 1 494.46 526.33 7.82 o
-1 4 1 271.67 272.00 5.91 o
1 4 1 310.08 300.22 5.53 o
3 4 1 467.71 498.26 8.54 o
-4 5 1 35.82 44.78 10.38 o
-2 5 1 564.00 585.66 9.87 o
0 5 1 11.77 9.83 6.02 <
2 5 1 553.49 582.20 9.33 o
4 5 1 50.00 43.38 9.37 o
-5 6 1 161.30 197.83 10.97 o
-3 6 1 88.50 80.16 12.94 o
-1 6 1 269.61 285.40 9.71 o
1 6 1 241.48 255.14 11.23 o
3 6 1 109.19 140.10 12.38 o
5 6 1 149.77 135.66 12.72 o
-6 7 1 11.64 -3.14 6.95 <
-4 7 1 173.21 177.67 11.93 o
-2 7 1 22.05 23.25 11.34 o
0 7 1 336.10 360.17 11.98 o
2 7 1 26.40 14.59 12.54 <
4 7 1 167.15 158.24 12.03 o
6 7 1 16.63 4.93 6.60 <
-5 8 1 19.13 3.09 8.12 <
-3 8 1 99.42 114.20 6.36 o
-1 8 1 84.33 84.24 12.19 o
1 8 1 100.07 121.97 11.72 o
3 8 1 87.66 92.12 6.47 o
5 8 1 25.75 9.67 6.58 <
-4 9 1 8.62 -3.81 6.68 <
-2 9 1 106.83 131.05 7.96 o
0 9 1 16.37 31.39 5.14 o
2 9 1 105.32 120.69 7.08 o
4 9 1 10.71 -13.07 6.87 <
-1 10 1 40.44 50.09 8.73 o
1 10 1 33.92 22.07 7.93 o
2 0 2 903.83 803.72 6.98 o
4 0 2 78.40 73.93 7.61 o
6 0 2 126.28 103.88 13.18 o
8 0 2 11.34 -14.51 9.43 <
10 0 2 11.70 -20.72 26.39 <
-8 2 2 36.93 72.69 10.70 o
-6 2 2 32.98 22.87 14.65 <
-4 2 2 289.92 326.35 9.98 o
-2 2 2 151.74 136.27 4.02 o
0 2 2 905.38 793.93 5.64 o
2 2 2 144.55 115.19 4.04 o
4 2 2 297.93 309.83 9.92 o
6 2 2 27.45 41.48 15.12 o
8 2 2 39.81 33.36 10.36 o
-8 4 2 16.40 41.83 8.97 o
-6 4 2 75.77 82.62 21.14 o
-4 4 2 54.49 57.75 11.98 o
-2 4 2 289.93 313.24 8.35 o
0 4 2 78.40 73.37 6.55 o
2 4 2 297.95 310.48 8.22 o
4 4 2 44.45 65.05 12.38 o
6 4 2 83.49 78.81 20.29 o
8 4 2 12.11 37.89 9.24 o
-8 6 2 19.28 49.58 14.51 o
-6 6 2 26.57 36.96 8.73 o
-4 6 2 75.77 100.06 18.80 o
-2 6 2 32.98 44.23 17.89 o
0 6 2 126.28 121.21 11.26 o
2 6 2 27.45 49.79 16.32 o
4 6 2 83.49 93.43 15.07 o
6 6 2 20.07 13.18 7.75 <
8 6 2 23.11 -5.49 10.57 <
-6 8 2 19.28 16.00 13.23 <
-4 8 2 16.40 71.98 8.52 o
-2 8 2 36.93 61.11 6.58 o
0 8 2 11.34 25.62 5.88 o
2 8 2 39.81 58.90 7.38 o
4 8 2 12.11 -15.50 8.36 <
6 8 2 23.11 30.25 10.12 o
0 10 2 11.70 -63.51 23.38 <
0 1 3 800.32 688.89 3.44 o
-1 2 3 379.88 347.25 3.43 o
1 2 3 344.57 315.30 3.69 o
-2 3 3 631.17 670.35 6.32 o
0 3 3 43.94 29.82 2.77 o
2 3 3 654.97 653.02 7.44 o
-3 4 3 171.40 187.62 6.60 o
-1 4 3 441.25 488.12 7.71 o
1 4 3 482.83 484.77 7.66 o
3 4 3 141.52 148.82 5.70 o
-4 5 3 262.76 303.03 13.52 o
-2 5 3 32.34 12.75 7.88 <
0 5 3 504.09 502.11 9.65 o
2 5 3 20.00 47.53 9.53 o
4 5 3 279.50 286.57 10.41 o
-5 6 3 63.79 69.34 12.04 o
-3 6 3 213.52 257.20 12.03 o
-1 6 3 241.70 255.53 10.78 o
1 6 3 211.12 217.05 10.33 o
3 6 3 236.67 202.17 13.31 o
5 6 3 50.12 47.53 12.17 o
-6 7 3 61.34 80.01 8.25 o
-4 7 3 24.94 37.39 13.26 o
-2 7 3 211.00 207.47 15.12 o
0 7 3 10.63 -0.05 11.77 <
2 7 3 216.45 205.39 16.32 o
4 7 3 17.24 14.38 13.10 <
6 7 3 67.77 50.62 7.32 o
-5 8 3 52.82 76.82 8.81 o
-3 8 3 76.09 75.89 5.41 o
-1 8 3 111.60 111.28 11.47 o
1 8 3 128.52 146.70 5.40 o
3 8 3 63.06 89.73 6.92 o
5 8 3 60.64 55.04 6.90 o
-4 9 3 48.61 51.23 9.32 o
-2 9 3 9.57 11.85 7.54 <
0 9 3 96.70 76.71 5.78 o
2 9 3 7.55 3.41 6.82 <
4 9 3 51.48 36.96 7.51 o
-1 10 3 40.90 42.02 9.11 o
1 10 3 34.05 -0.32 12.25 <
-9 1 4 21.94 43.67 13.13 o
-7 1 4 35.38 34.85 13.71 o
-5 1 4 182.43 187.82 11.90 o
-3 1 4 311.53 315.37 7.42 o
-1 1 4 733.10 675.42 5.54 o
1 1 4 672.71 659.76 5.57 o
3 1 4 349.89 345.82 7.05 o
5 1 4 163.84 166.41 11.18 o
7 1 4 43.35 74.05 11.98 o
9 1 4 18.94 17.20 10.68 <
-9 3 4 3.68 -30.28 10.41 <
-7 3 4 75.83 65.87 16.83 o
-5 3 4 49.52 57.06 16.13 o
-3 3 4 317.70 349.03 8.99 o
-1 3 4 311.55 318.57 5.93 o
1 3 4 349.97 342.19 6.38 o
3 3 4 291.62 314.57 8.78 o
5 3 4 63.32 48.97 12.81 o
7 3 4 69.56 70.08 21.62 o
9 3 4 6.12 -29.21 10.07 <
-7 5 4 4.67 -11.98 7.43 <
-5 5 4 118.86 125.66 21.67 o
-3 5 4 49.52 35.89 11.42 o
-1 5 4 182.43 211.14 11.07 o
1 5 4 163.84 182.38 8.92 o
3 5 4 63.32 41.86 10.54 o
5 5 4 110.74 130.88 14.16 o
7 5 4 8.65 2.77 8.65 <
-7 7 4 37.69 20.69 12.01 <
-5 7 4 4.67 16.70 10.44 <
-3 7 4 75.83 86.53 17.65 o
-1 7 4 35.38 54.56 14.99 o
1 7 4 43.35 43.59 19.07 o
3 7 4 69.56 54.29 12.51 o
5 7 4 8.65 -14.91 8.33 <
7 7 4 35.61 44.44 11.05 o
-3 9 4 3.68 8.44 11.40 <
-1 9 4 21.94 21.86 9.91 o
1 9 4 18.94 25.19 9.27 o
3 9 4 6.12 -17.65 9.19 <
0 1 5 633.49 592.64 3.98 o
-1 2 5 177.84 147.53 3.25 o
1 2 5 197.80 175.27 3.67 o
-2 3 5 641.23 693.41 7.73 o
0 3 5 5.22 3.04 4.39 <
2 3 5 627.90 646.95 9.94 o
-3 4 5 42.52 51.12 7.51 o
-1 4 5 328.18 332.37 7.26 o
1 4 5 303.51 288.23 7.34 o
3 4 5 59.74 59.16 6.98 o
-4 5 5 297.19 332.58 12.35 o
-2 5 5 22.13 38.56 8.60 o
0 5 5 579.87 608.27 10.00 o
2 5 5 28.64 14.70 10.33 <
4 5 5 288.32 285.57 7.56 o
-5 6 5 16.26 10.54 5.62 <
-3 6 5 185.53 217.33 14.38 o
-1 6 5 95.46 119.30 10.97 o
1 6 5 114.57 96.35 9.19 o
3 6 5 171.76 163.82 11.95 o
5 6 5 23.52 31.58 5.17 o
-6 7 5 78.35 77.64 8.09 o
-4 7 5 17.81 0.16 6.23 <
-2 7 5 258.01 289.25 11.82 o
0 7 5 32.80 28.81 12.78 o
2 7 5 255.43 263.70 13.18 o
4 7 5 21.34 8.17 5.41 <
6 7 5 75.53 69.84 6.87 o
-5 8 5 53.56 28.41 7.24 o
-3 8 5 22.80 27.32 6.68 o
-1 8 5 77.10 70.96 5.80 o
1 8 5 66.07 52.27 5.46 o
3 8 5 30.79 15.90 5.86 o
5 8 5 49.39 29.80 7.48 o
-4 9 5 64.59 55.04 7.96 o
-2 9 5 16.18 27.83 7.30 o
0 9 5 114.25 136.02 7.96 o
2 9 5 17.02 8.04 7.19 <
4 9 5 63.50 45.02 8.49 o
0 0 6 1507.82 1401.07 10.26 o
2 0 6 6.69 3.33 5.33 <
4 0 6 543.42 531.28 13.40 o
6 0 6 1.13 24.92 12.54 <
8 0 6 65.61 70.83 9.32 o
-8 2 6 4.21 44.47 11.90 o
-6 2 6 174.77 174.84 14.16 o
-4 2 6 11.73 6.74 10.78 <
-2 2 6 868.54 847.59 10.59 o
0 2 6 6.69 -3.46 3.81 <
2 2 6 873.27 889.81 10.96 o
4 2 6 5.63 7.19 10.73 <
6 2 6 179.36 204.87 9.16 o
8 2 6 1.68 -4.39 7.91 <
-8 4 6 43.04 18.67 10.36 <
-6 4 6 16.06 23.99 18.91 <
-4 4 6 255.17 257.31 12.16 o
-2 4 6 11.73 -1.30 10.25 <
0 4 6 543.46 588.71 11.06 o
2 4 6 5.63 12.97 11.98 <
4 4 6 263.29 253.59 13.02 o
6 4 6 9.46 38.34 18.08 o
8 4 6 46.86 23.64 8.57 o
-6 6 6 61.77 41.62 9.51 o
-4 6 6 16.06 39.44 8.60 o
-2 6 6 174.77 212.80 15.28 o
0 6 6 1.13 -10.12 14.19 <
2 6 6 179.36 173.43 15.33 o
4 6 6 9.46 16.24 10.04 <
6 6 6 67.51 64.30 7.46 o
-4 8 6 43.04 2.90 9.59 <
-2 8 6 4.21 -2.53 9.19 <
0 8 6 65.61 66.67 6.18 o
2 8 6 1.68 29.64 9.59 o
4 8 6 46.86 75.41 12.17 o
0 1 7 172.21 171.24 4.20 o
-1 2 7 321.91 324.70 6.09 o
1 2 7 347.27 344.96 6.36 o
-2 3 7 90.73 89.14 6.18 o
0 3 7 352.05 338.92 7.05 o
2 3 7 72.19 80.00 6.20 o
-3 4 7 244.13 247.93 8.89 o
-1 4 7 253.27 273.31 8.14 o
1 4 7 220.98 242.30 10.70 o
3 4 7 268.73 288.14 11.47 o
-4 5 7 65.81 50.48 11.53 o
-2 5 7 217.16 212.75 11.18 o
0 5 7 2.08 21.78 8.84 o
2 5 7 227.91 251.80 14.75 o
4 5 7 50.85 42.17 6.34 o
-5 6 7 89.17 117.23 6.52 o
-3 6 7 125.62 124.04 14.56 o
-1 6 7 184.11 198.39 10.01 o
1 6 7 209.18 242.51 13.18 o
3 6 7 105.91 105.99 12.65 o
5 6 7 101.59 108.68 5.99 o
-6 7 7 27.90 7.94 6.76 <
-4 7 7 74.11 63.77 6.79 o
-2 7 7 11.85 -15.71 12.30 <
0 7 7 129.92 110.59 10.57 o
2 7 7 6.64 -1.94 10.60 <
4 7 7 81.55 96.97 6.44 o
6 7 7 21.58 9.32 6.28 <
-5 8 7 39.58 15.58 8.79 <
-3 8 7 68.26 79.64 6.76 o
-1 8 7 94.42 82.54 7.69 o
1 8 7 80.45 103.49 6.28 o
3 8 7 79.39 86.96 7.06 o
5 8 7 32.46 12.54 6.98 <
-2 9 7 43.22 27.56 8.04 o
0 9 7 2.64 10.62 11.21 <
2 9 7 45.28 41.46 7.86 o
-9 1 8 12.78 13.63 13.39 <
-7 1 8 74.03 86.54 9.91 o
-5 1 8 140.95 140.29 16.00 o
-3 1 8 421.23 429.72 15.14 o
-1 1 8 558.82 540.19 10.44 o
1 1 8 623.56 601.44 9.70 o
3 1 8 376.21 407.80 10.77 o
5 1 8 165.29 148.52 16.05 o
7 1 8 62.94 115.66 12.49 o
9 1 8 17.02 -27.51 10.36 <
-7 3 8 25.88 19.15 10.86 <
-5 3 8 169.86 184.14 19.30 o
-3 3 8 197.11 215.58 10.30 o
-1 3 8 421.25 420.69 10.54 o
1 3 8 376.23 373.39 12.13 o
3 3 8 229.80 229.31 13.31 o
5 3 8 151.22 156.74 15.04 o
7 3 8 34.72 13.90 7.70 <
-7 5 8 58.34 56.74 9.40 o
-5 5 8 35.09 22.82 6.55 o
-3 5 8 169.86 180.71 17.73 o
-1 5 8 140.95 157.06 11.98 o
1 5 8 165.28 175.01 22.68 o
3 5 8 151.22 187.19 16.58 o
5 5 8 46.47 28.04 5.75 o
7 5 8 52.63 60.76 9.48 o
-5 7 8 58.34 66.54 8.55 o
-3 7 8 25.88 5.09 8.15 <
-1 7 8 74.03 97.48 16.93 o
1 7 8 62.94 67.07 9.16 o
3 7 8 34.72 20.08 8.07 o
5 7 8 52.64 51.66 12.41 o
-1 9 8 12.78 33.44 18.32 <
1 9 8 17.02 19.15 13.37 <
0 1 9 67.09 62.62 5.35 o
-1 2 9 230.82 240.82 7.96 o
1 2 9 221.97 233.42 6.79 o
-2 3 9 4.26 2.13 7.99 <
0 3 9 397.08 433.01 9.52 o
2 3 9 10.37 0.77 7.62 <
-3 4 9 215.86 216.89 10.81 o
-1 4 9 50.67 50.80 9.74 o
1 4 9 62.55 53.28 12.89 o
3 4 9 207.55 186.37 13.20 o
-4 5 9 13.91 -8.97 6.55 <
-2 5 9 292.34 329.14 13.25 o
0 5 9 20.51 17.81 10.65 <
2 5 9 289.31 318.87 12.14 o
4 5 9 18.04 5.99 9.91 <
-5 6 9 94.85 68.51 5.43 o
-3 6 9 11.19 -1.84 9.24 <
-1 6 9 84.19 85.60 9.98 o
1 6 9 74.46 85.89 18.72 o
3 6 9 18.03 -7.19 9.96 <
5 6 9 91.54 55.65 6.68 o
-4 7 9 112.12 116.96 7.06 o
-2 7 9 22.86 12.17 5.49 o
0 7 9 191.00 224.04 9.26 o
2 7 9 23.97 21.62 5.49 o
4 7 9 110.68 100.45 6.23 o
-3 8 9 43.51 44.81 8.20 o
-1 8 9 16.89 14.17 8.47 <
1 8 9 22.62 31.71 7.56 o
3 8 9 39.53 5.88 7.22 <
0 9 9 15.65 15.55 10.94 <
0 0 10 121.43 112.34 14.45 o
2 0 10 818.03 819.58 14.48 o
4 0 10 45.23 74.37 15.58 o
6 0 10 183.83 195.77 11.31 o
8 0 10 2.83 23.38 15.82 <
-8 2 10 55.00 23.48 15.36 <
-6 2 10 15.30 10.73 5.43 <
-4 2 10 372.93 367.21 20.38 o
-2 2 10 77.20 104.37 12.25 o
0 2 10 817.95 806.04 19.45 o
2 2 10 74.43 98.00 10.20 o
4 2 10 376.70 370.93 18.60 o
6 2 10 12.09 35.26 7.03 o
8 2 10 56.91 59.91 9.00 o
-6 4 10 106.48 118.82 7.11 o
-4 4 10 27.98 38.26 21.68 <
-2 4 10 372.90 391.04 20.12 o
0 4 10 45.23 23.30 20.37 <
2 4 10 376.70 371.46 20.54 o
4 4 10 22.50 -1.20 12.67 <
6 4 10 111.27 76.09 9.11 o
-6 6 10 15.38 2.29 9.27 <
-4 6 10 106.48 92.63 8.09 o
-2 6 10 15.30 -8.92 7.40 <
0 6 10 183.81 172.66 21.48 o
2 6 10 12.09 15.28 32.25 <
4 6 10 111.27 90.18 8.49 o
6 6 10 11.02 14.67 12.04 <
-2 8 10 55.00 95.14 14.06 o
0 8 10 2.83 4.69 11.64 <
2 8 10 56.91 37.73 10.17 o
0 1 11 112.73 108.67 7.48 o
-1 2 11 98.15 102.96 10.89 o
1 2 11 83.76 113.55 8.84 o
-2 3 11 119.55 142.93 12.25 o
0 3 11 21.68 32.75 10.78 o
2 3 11 130.91 137.85 11.31 o
-3 4 11 85.02 83.58 14.17 o
-1 4 11 127.42 133.67 10.81 o
1 4 11 147.07 152.07 9.40 o
3 4 11 69.22 65.28 9.13 o
-4 5 11 70.06 63.69 6.23 o
-2 5 11 22.20 17.65 11.18 <
0 5 11 89.27 98.09 13.02 o
2 5 11 14.91 5.03 13.05 <
4 5 11 80.42 87.04 4.71 o
-5 6 11 47.18 46.89 7.03 o
-3 6 11 77.58 83.89 6.63 o
-1 6 11 104.02 123.06 6.10 o
1 6 11 88.06 111.85 6.87 o
3 6 11 90.61 70.80 6.12 o
5 6 11 38.45 8.15 7.70 <
-4 7 11 21.03 11.69 8.55 <
-2 7 11 42.53 26.17 8.28 o
0 7 11 0.53 16.19 8.15 <
2 7 11 46.37 48.14 7.86 o
4 7 11 15.49 7.96 6.68 <
-3 8 11 45.03 32.78 11.16 o
-1 8 11 48.53 45.10 13.31 o
1 8 11 57.48 51.50 7.54 o
3 8 11 37.64 21.38 6.68 o
-7 1 12 38.21 19.81 10.30 <
-5 1 12 143.78 145.07 7.67 o
-3 1 12 239.78 245.30 18.63 o
-1 1 12 419.45 405.11 17.67 o
1 1 12 375.56 419.33 20.91 o
3 1 12 272.69 231.25 14.40 o
5 1 12 124.43 137.10 6.79 o
7 1 12 47.41 51.79 8.55 o
-7 3 12 54.62 52.35 9.91 o
-5 3 12 70.08 77.98 7.85 o
-3 3 12 215.03 215.15 20.82 o
-1 3 12 239.78 266.17 23.77 o
1 3 12 272.70 328.38 14.29 o
3 3 12 189.85 193.19 15.28 o
5 3 12 85.27 78.09 7.77 o
7 3 12 47.20 31.95 9.29 o
-5 5 12 79.81 46.44 9.61 o
-3 5 12 70.08 49.58 8.63 o
-1 5 12 143.77 174.86 26.97 o
1 5 12 124.43 108.91 15.52 o
3 5 12 85.27 46.04 8.79 o
5 5 12 70.27 47.47 7.51 o
-3 7 12 54.62 71.63 18.16 o
-1 7 12 38.21 33.92 26.44 <
1 7 12 47.41 23.30 12.09 <
3 7 12 47.20 13.15 8.81 <
0 1 13 91.14 119.41 14.75 o
-1 2 13 18.14 33.12 11.42 o
1 2 13 21.59 13.95 6.20 o
-2 3 13 134.71 176.14 17.01 o
0 3 13 1.00 -14.43 9.11 <
2 3 13 132.31 164.15 7.08 o
-3 4 13 2.50 4.93 17.31 <
-1 4 13 57.88 84.62 11.02 o
1 4 13 53.15 34.29 8.92 o
3 4 13 5.75 -2.82 4.47 <
-4 5 13 89.13 99.45 7.08 o
-2 5 13 10.25 -9.75 6.28 <
0 5 13 143.82 163.60 15.60 o
2 5 13 11.40 -9.93 4.47 <
4 5 13 87.65 73.67 6.04 o
-5 6 13 7.20 -11.37 8.17 <
-3 6 13 49.21 52.03 9.40 o
-1 6 13 8.60 -1.09 7.43 <
1 6 13 12.44 5.30 7.35 <
3 6 13 46.63 49.61 7.22 o
5 6 13 8.28 16.96 9.88 <
-2 7 13 79.51 89.89 14.22 o
0 7 13 15.06 -15.02 11.24 <
2 7 13 79.15 76.73 8.81 o
0 0 14 496.32 505.71 18.54 o
2 0 14 87.32 82.00 8.65 o
4 0 14 242.65 295.92 11.95 o
6 0 14 15.64 41.38 10.12 o
-6 2 14 94.26 83.44 10.73 o
-4 2 14 38.24 41.27 7.38 o
-2 2 14 344.26 355.62 17.24 o
0 2 14 87.32 112.49 8.07 o
2 2 14 345.61 362.63 10.49 o
4 2 14 36.23 34.64 9.13 o
6 2 14 96.10 28.81 17.07 <
-6 4 14 14.93 13.69 12.17 <
-4 4 14 131.03 114.21 12.46 o
-2 4 14 38.24 32.35 8.33 o
0 4 14 242.64 264.69 11.13 o
2 4 14 36.23 27.75 7.48 o
4 4 14 134.09 148.77 10.41 o
6 4 14 12.08 20.48 16.14 <
-4 6 14 14.93 26.23 14.46 <
-2 6 14 94.26 80.11 16.45 o
0 6 14 15.64 3.06 12.49 <
2 6 14 96.10 84.64 16.83 o
4 6 14 12.08 4.07 10.20 <
0 1 15 20.91 32.19 6.31 o
-1 2 15 37.26 22.10 6.18 o
1 2 15 44.01 45.24 5.94 o
-2 3 15 20.73 44.04 5.73 o
0 3 15 35.49 28.28 5.75 o
2 3 15 15.14 24.23 5.80 o
-3 4 15 38.16 23.48 6.20 o
-1 4 15 47.51 52.51 6.79 o
1 4 15 38.02 35.41 6.68 o
3 4 15 46.08 27.61 6.44 o
-4 5 15 22.63 20.29 7.67 o
-2 5 15 25.25 5.25 7.03 <
0 5 15 2.62 25.46 8.41 o
2 5 15 29.07 -4.31 7.72 <
4 5 15 17.14 21.97 6.31 o
-3 6 15 34.81 -0.99 11.13 <
-1 6 15 36.09 14.49 8.60 <
1 6 15 43.91 43.03 8.79 o
3 6 15 28.21 2.50 8.55 <
-5 1 16 54.90 63.29 10.84 o
-3 1 16 134.64 146.48 12.78 o
-1 1 16 162.50 165.63 11.87 o
1 1 16 186.02 225.46 12.38 o
3 1 16 116.45 125.84 10.36 o
5 1 16 65.93 40.02 17.15 o
-5 3 16 60.46 29.08 13.45 o
-3 3 16 75.42 96.35 12.11 o
-1 3 16 134.64 147.20 9.96 o
1 3 16 116.45 100.71 8.79 o
3 3 16 89.62 113.40 8.92 o
5 3 16 51.69 12.38 13.07 <
-3 5 16 60.46 40.85 16.54 o
-1 5 16 54.90 50.06 10.70 o
1 5 16 65.93 68.30 11.10 o
3 5 16 51.69 38.00 8.92 o
0 1 17 5.62 15.98 6.74 o
-1 2 17 23.27 -7.32 8.02 <
1 2 17 21.97 31.93 7.03 o
-2 3 17 0.56 16.59 7.96 o
0 3 17 44.12 30.57 7.43 o
2 3 17 1.45 -2.56 6.95 <
-3 4 17 29.37 -7.35 8.63 <
-1 4 17 3.22 -3.12 8.31 <
1 4 17 4.90 8.33 6.74 <
3 4 17 28.24 36.93 13.77 o
-2 5 17 41.08 25.40 14.35 <
0 5 17 4.78 -5.33 8.87 <
2 5 17 40.68 26.65 8.87 o
0 0 18 47.17 79.24 17.87 o
2 0 18 150.27 170.33 12.83 o
4 0 18 21.79 24.42 11.18 o
-4 2 18 80.86 36.10 17.17 o
-2 2 18 32.23 44.95 10.65 o
0 2 18 150.27 144.03 11.05 o
2 2 18 31.70 9.29 12.22 <
4 2 18 81.71 68.37 19.20 o
-2 4 18 80.86 84.16 11.37 o
0 4 18 21.79 31.66 10.89 o
2 4 18 81.71 65.13 13.85 o
0 1 19 7.80 0.32 7.35 <
-1 2 19 8.47 11.08 7.72 <
1 2 19 6.05 -2.34 7.62 <
-2 3 19 8.68 17.31 8.73 <
0 3 19 1.92 0.67 8.15 <
2 3 19 10.73 1.65 7.99 <
-1 1 20 61.15 60.58 13.21 o
1 1 20 51.54 23.00 12.78 <
