#------------------------------------------------------------------------------
#$Date: 2021-06-15 11:12:38 +0300 (Tue, 15 Jun 2021) $
#$Revision: 266469 $
#$URL: file:///home/coder/svn-repositories/cod/cif/1/56/34/1563481.cif $
#------------------------------------------------------------------------------
#
# This file is available in the Crystallography Open Database (COD),
# http://www.crystallography.net/
#
# All data on this site have been placed in the public domain by the
# contributors.
#
data_1563481
loop_
_publ_author_name
'Souilah, M.'
'Lafond, A.'
'Guillot-Deudon, C.'
'Harel, S.'
'Evain, M.'
_publ_section_title
;
 Structural investigation of the Cu2Se--In2Se3--Ga2Se3 phase diagram,
 X-ray photoemission and optical properties of the
 Cu1&#x2212;z(In0.5Ga0.5)1+z/3Se2 compounds
;
_journal_issue                   10
_journal_name_full               'Journal of Solid State Chemistry'
_journal_page_first              2274
_journal_page_last               2280
_journal_paper_doi               10.1016/j.jssc.2010.08.014
_journal_volume                  183
_journal_year                    2010
_chemical_formula_moiety         'Cu1 In1 Se2'
_chemical_formula_sum            'Cu In Se2'
_chemical_formula_weight         336.3
_space_group_IT_number           122
_space_group_name_Hall           'I -4 2bw'
_space_group_name_H-M_alt        'I -4 2 d'
_symmetry_cell_setting           tetragonal
_symmetry_space_group_name_Hall  'I -4 2bw'
_symmetry_space_group_name_H-M   'I -4 2 d'
_cell_angle_alpha                90
_cell_angle_beta                 90
_cell_angle_gamma                90
_cell_formula_units_Z            4
_cell_length_a                   5.78361(8)
_cell_length_b                   5.78361(8)
_cell_length_c                   11.6214(3)
_cell_measurement_reflns_used    8578
_cell_measurement_temperature    293
_cell_measurement_theta_max      36.98
_cell_measurement_theta_min      7.03
_cell_volume                     388.738(13)
_computing_cell_refinement       unknown
_computing_data_collection       unknown
_computing_data_reduction        unknown
_computing_molecular_graphics    unknown
_computing_structure_solution    unknown
_diffrn_ambient_temperature      293
_diffrn_measured_fraction_theta_full 0.98
_diffrn_measured_fraction_theta_max 0.98
_diffrn_measurement_device       'four-cycle diffractometer'
_diffrn_measurement_device_type  'Nonius CCD'
_diffrn_measurement_method       omega
_diffrn_radiation_monochromator  unknown
_diffrn_radiation_source         'X-ray tube'
_diffrn_radiation_type           'Mo K\a'
_diffrn_radiation_wavelength     0.71069
_diffrn_reflns_av_R_equivalents  0.0545
_diffrn_reflns_av_sigmaI/netI    0.0088
_diffrn_reflns_limit_h_max       9
_diffrn_reflns_limit_h_min       -9
_diffrn_reflns_limit_k_max       9
_diffrn_reflns_limit_k_min       -7
_diffrn_reflns_limit_l_max       19
_diffrn_reflns_limit_l_min       -19
_diffrn_reflns_number            8578
_diffrn_reflns_theta_full        36.98
_diffrn_reflns_theta_max         36.98
_diffrn_reflns_theta_min         7.03
_exptl_absorpt_coefficient_mu    29.914
_exptl_absorpt_correction_T_max  0.2902
_exptl_absorpt_correction_T_min  0.1614
_exptl_absorpt_correction_type   gaussian
_exptl_absorpt_process_details
'Jana2006  (Petricek, Dusek & Palatinus, 2000)'
_exptl_crystal_colour            black
_exptl_crystal_density_diffrn    5.7441
_exptl_crystal_description       block
_exptl_crystal_F_000             584
_exptl_crystal_size_max          0.083
_exptl_crystal_size_mid          0.077
_exptl_crystal_size_min          0.055
_refine_diff_density_max         0.99
_refine_diff_density_min         -0.62
_refine_ls_extinction_coef       3600(200)
_refine_ls_extinction_method
'B-C type 1 Gaussian isotropic (Becker & Coppens, 1974)'
_refine_ls_goodness_of_fit_gt    1.47
_refine_ls_goodness_of_fit_ref   1.47
_refine_ls_number_constraints    0
_refine_ls_number_parameters     11
_refine_ls_number_reflns         490
_refine_ls_number_restraints     0
_refine_ls_R_factor_all          0.0301
_refine_ls_R_factor_gt           0.0257
_refine_ls_shift/su_max          0.0025
_refine_ls_shift/su_mean         0.0011
_refine_ls_structure_factor_coef Fsqd
_refine_ls_weighting_details     w=1/(\s^2^(I)+0.0016I^2^)
_refine_ls_weighting_scheme      sigma
_refine_ls_wR_factor_gt          0.0759
_refine_ls_wR_factor_ref         0.0788
_reflns_number_gt                452
_reflns_number_total             490
_reflns_threshold_expression     I>2\s(I)
_cod_data_source_file            JSSC-2010_183-2274.cif
_cod_data_source_block           (I)
_cod_depositor_comments
;
The following automatic conversions were performed:

data item '_exptl_absorpt_correction_type' value 'Gaussian' was
changed to 'gaussian' in accordance with the built-in table derived
from the CIF Core dictionary named 'cif_core.dic' version 2.4.5 last
updated on 2014-11-21.

Automatic conversion script
Id: cif_fix_values 8369 2020-08-20 11:38:08Z andrius 
;
_cod_original_cell_volume        388.74(2)
_cod_original_formula_sum        'Cu1 In1 Se2'
_cod_database_code               1563481
loop_
_symmetry_equiv_pos_site_id
_symmetry_equiv_pos_as_xyz
1 x,y,z
2 -x,-y,z
3 y,-x,-z
4 -y,x,-z
5 -x,y+1/2,-z+1/4
6 x,-y+1/2,-z+1/4
7 -y,-x+1/2,z+1/4
8 y,x+1/2,z+1/4
9 x+1/2,y+1/2,z+1/2
10 -x+1/2,-y+1/2,z+1/2
11 y+1/2,-x+1/2,-z+1/2
12 -y+1/2,x+1/2,-z+1/2
13 -x+1/2,y,-z+3/4
14 x+1/2,-y,-z+3/4
15 -y+1/2,-x,z+3/4
16 y+1/2,x,z+3/4
loop_
_atom_site_label
_atom_site_type_symbol
_atom_site_fract_x
_atom_site_fract_y
_atom_site_fract_z
_atom_site_adp_type
_atom_site_U_iso_or_equiv
_atom_site_symmetry_multiplicity
_atom_site_occupancy
_atom_site_calc_flag
_atom_site_refinement_flags
_atom_site_disorder_assembly
_atom_site_disorder_group
Cu1 Cu 0 0 0 Uani 0.0217(2) 4 1 d . . .
In2 In 0 0 0.5 Uani 0.01339(11) 4 1 d . . .
Se3 Se 0.22738(10) 0.25 0.125 Uani 0.01267(13) 8 1 d . . .
loop_
_atom_site_aniso_label
_atom_site_aniso_type_symbol
_atom_site_aniso_U_11
_atom_site_aniso_U_22
_atom_site_aniso_U_33
_atom_site_aniso_U_12
_atom_site_aniso_U_13
_atom_site_aniso_U_23
Cu1 Cu 0.0218(3) 0.0218(3) 0.0214(5) 0 0 0
In2 In 0.01334(17) 0.01334(17) 0.0135(2) 0 0 0
Se3 Se 0.0113(2) 0.0127(2) 0.0140(3) 0 0 0.00090(14)
loop_
_atom_type_symbol
_atom_type_scat_dispersion_real
_atom_type_scat_dispersion_imag
_atom_type_scat_source
Cu 0.320 1.265 'International Tables Vol C tables 4.2.6.8 and 6.1.1.1'
In -0.728 1.310 'International Tables Vol C tables 4.2.6.8 and 6.1.1.1'
Se -0.093 2.226 'International Tables Vol C tables 4.2.6.8 and 6.1.1.1'
loop_
_geom_angle_atom_site_label_1
_geom_angle_atom_site_label_2
_geom_angle_atom_site_label_3
_geom_angle_site_symmetry_1
_geom_angle_site_symmetry_2
_geom_angle_site_symmetry_3
_geom_angle
_geom_angle_publ_flag
Se3 Cu1 Se3 . . 2_555 106.757(7) yes
Se3 Cu1 Se3 . . 3_555 110.845(12) yes
Se3 Cu1 Se3 . . 4_555 110.845(12) yes
Se3 Cu1 Se3 2_555 . 3_555 110.845(12) yes
Se3 Cu1 Se3 2_555 . 4_555 110.845(12) yes
Se3 Cu1 Se3 3_555 . 4_555 106.757(7) yes
Se3 In2 Se3 9_445 . 10_555 111.644(7) yes
Se3 In2 Se3 9_445 . 11_455 108.396(11) yes
Se3 In2 Se3 9_445 . 12_545 108.396(11) yes
Se3 In2 Se3 10_555 . 11_455 108.396(11) yes
Se3 In2 Se3 10_555 . 12_545 108.396(11) yes
Se3 In2 Se3 11_455 . 12_545 111.644(7) yes
loop_
_geom_bond_atom_site_label_1
_geom_bond_atom_site_label_2
_geom_bond_site_symmetry_1
_geom_bond_site_symmetry_2
_geom_bond_distance
_geom_bond_publ_flag
Cu1 Se3 . . 2.4352(3) yes
Cu1 Se3 . 2_555 2.4352(3) yes
Cu1 Se3 . 3_555 2.4352(3) yes
Cu1 Se3 . 4_555 2.4352(3) yes
In2 Se3 . 9_445 2.5859(3) yes
In2 Se3 . 10_555 2.5859(3) yes
In2 Se3 . 11_455 2.5859(3) yes
In2 Se3 . 12_545 2.5859(3) yes
loop_
_refln_index_h
_refln_index_k
_refln_index_l
_refln_F_squared_calc
_refln_F_squared_meas
_refln_F_squared_sigma
_refln_observed_status
0 2 0 1423.93 1343.94 6.56 o
2 2 0 26244.10 28627.30 66.51 o
1 3 0 43.44 61.75 4.36 o
0 4 0 40324.52 39634.73 69.38 o
2 4 0 598.03 569.54 11.82 o
4 4 0 32843.13 32421.89 152.01 o
1 5 0 188.80 212.46 11.32 o
3 5 0 61.45 84.37 15.27 o
0 6 0 378.82 386.66 23.99 o
2 6 0 26001.37 26680.17 87.46 o
4 6 0 371.82 417.31 28.20 o
6 6 0 9227.53 9941.95 80.62 o
1 7 0 308.17 345.22 23.54 o
3 7 0 162.69 110.41 30.75 o
5 7 0 34.81 13.58 12.25 <
0 8 0 12132.13 12602.70 166.16 o
2 8 0 364.24 424.34 16.74 o
4 8 0 7194.21 7645.15 60.39 o
1 9 0 301.81 371.05 25.21 o
3 9 0 192.64 167.22 31.27 o
-1 2 1 3960.54 3969.10 15.23 o
1 2 1 3630.95 3613.58 15.43 o
-2 3 1 399.33 397.06 8.67 o
0 3 1 5431.87 5554.37 17.82 o
2 3 1 691.57 662.51 10.65 o
-3 4 1 4529.88 4526.94 32.82 o
-1 4 1 1926.29 1962.43 12.24 o
1 4 1 2417.86 2409.00 15.58 o
3 4 1 4132.56 4138.78 31.60 o
-4 5 1 577.79 545.28 29.68 o
-2 5 1 4921.42 5039.28 26.31 o
0 5 1 168.17 160.89 10.13 o
2 5 1 4735.65 4703.69 29.88 o
4 5 1 882.52 905.02 29.11 o
-5 6 1 2817.65 3050.88 55.25 o
-3 6 1 1038.31 1117.37 25.53 o
-1 6 1 2925.42 3006.69 33.26 o
1 6 1 2471.64 2482.84 30.33 o
3 6 1 1437.94 1598.70 38.17 o
5 6 1 2521.57 2622.56 64.28 o
-6 7 1 274.23 313.36 17.65 o
-4 7 1 2801.64 3066.58 52.07 o
-2 7 1 197.73 239.41 25.94 o
0 7 1 3609.11 3722.49 41.27 o
2 7 1 325.19 273.55 25.07 o
4 7 1 2607.41 2782.66 52.21 o
6 7 1 477.47 475.75 20.60 o
-5 8 1 371.95 431.28 22.55 o
-3 8 1 1881.53 2055.71 39.99 o
-1 8 1 1045.87 1144.11 56.30 o
1 8 1 1393.59 1535.44 59.37 o
3 8 1 1580.43 1696.57 24.04 o
5 8 1 605.67 701.26 29.85 o
-2 9 1 1868.80 2157.75 55.01 o
0 9 1 78.83 69.20 16.07 o
2 9 1 1796.61 2020.31 52.43 o
0 2 2 15.02 9.56 2.90 o
-3 3 2 27639.90 26868.08 80.69 o
-1 3 2 31211.48 31320.85 37.56 o
1 3 2 29753.51 28861.32 44.54 o
3 3 2 29257.96 28065.09 96.93 o
-2 4 2 58.13 64.65 7.56 o
0 4 2 122.96 117.51 6.72 o
2 4 2 58.13 61.11 8.69 o
-5 5 2 9327.34 10122.91 137.58 o
-3 5 2 18387.40 18475.63 66.50 o
-1 5 2 21867.67 22183.55 58.27 o
1 5 2 23874.16 23807.35 64.04 o
3 5 2 16491.72 16018.40 65.51 o
5 5 2 10681.49 9892.82 146.34 o
-4 6 2 48.32 65.30 29.39 o
-2 6 2 189.33 171.24 18.44 o
0 6 2 277.66 284.37 18.35 o
2 6 2 189.32 208.80 21.94 o
4 6 2 48.32 6.72 35.39 <
-5 7 2 4852.78 5156.40 91.47 o
-3 7 2 7057.95 7286.59 90.28 o
-1 7 2 10680.00 11180.38 65.46 o
1 7 2 9330.14 9594.68 67.19 o
3 7 2 8190.08 8135.83 69.21 o
5 7 2 4083.89 4189.99 40.73 o
-4 8 2 112.19 87.54 22.73 o
-2 8 2 254.97 246.60 48.88 o
0 8 2 330.19 390.25 45.65 o
2 8 2 254.97 300.13 15.08 o
4 8 2 112.20 77.94 18.71 o
-3 9 2 3037.46 3533.98 70.47 o
-1 9 2 3230.12 3511.98 45.47 o
1 9 2 3885.94 4034.43 55.16 o
3 9 2 2504.96 2590.68 58.46 o
-1 2 3 1623.64 1634.85 12.83 o
1 2 3 1279.26 1291.93 11.89 o
-2 3 3 4627.28 4635.33 24.55 o
0 3 3 12.58 18.21 4.77 o
2 3 3 4873.16 4771.03 25.10 o
-3 4 3 1378.00 1286.70 15.86 o
-1 4 3 3097.64 3170.46 18.37 o
1 4 3 3561.16 3613.30 22.37 o
3 4 3 973.51 901.57 17.51 o
-4 5 3 3534.31 3906.63 52.88 o
-2 5 3 458.41 435.09 14.16 o
0 5 3 4752.12 4760.81 35.99 o
2 5 3 264.27 263.21 13.41 o
4 5 3 3821.66 3718.20 49.90 o
-5 6 3 844.33 980.08 46.40 o
-3 6 3 2701.19 2828.23 35.49 o
-1 6 3 2099.79 2070.94 34.16 o
1 6 3 1650.67 1620.97 30.21 o
3 6 3 3085.24 2961.98 46.51 o
5 6 3 547.36 477.57 44.34 o
-6 7 3 1641.13 1731.71 26.76 o
-4 7 3 452.27 503.01 45.74 o
-2 7 3 3074.80 3227.62 45.94 o
0 7 3 142.19 133.32 23.55 o
2 7 3 3196.10 3160.26 44.38 o
4 7 3 256.95 290.44 45.16 o
6 7 3 1835.81 1820.83 36.43 o
-5 8 3 1328.03 1405.33 36.81 o
-3 8 3 943.10 1065.49 93.76 o
-1 8 3 1373.57 1471.31 38.93 o
1 8 3 1714.32 1792.65 49.87 o
3 8 3 643.76 614.65 19.26 o
5 8 3 1555.31 1406.74 35.83 o
-2 9 3 133.58 154.95 28.90 o
0 9 3 1830.21 1846.91 33.44 o
2 9 3 61.79 15.99 24.89 <
0 0 4 1207.98 1112.37 12.37 o
-2 2 4 803.41 781.63 15.31 o
0 2 4 29126.20 29274.61 41.53 o
2 2 4 810.47 747.20 15.88 o
-1 3 4 35.49 49.85 6.58 o
1 3 4 35.49 44.58 5.57 o
-4 4 4 327.61 958.63 45.56 o
-2 4 4 39829.37 40169.55 70.49 o
0 4 4 503.57 513.77 11.98 o
2 4 4 39391.19 38252.87 87.44 o
4 4 4 340.62 336.40 32.62 o
-3 5 4 53.06 57.05 19.51 o
-1 5 4 161.76 127.93 13.83 o
1 5 4 161.76 177.59 15.00 o
3 5 4 53.06 21.08 21.53 <
-6 6 4 345.35 340.24 22.69 o
-4 6 4 15863.30 17789.59 105.95 o
-2 6 4 314.45 322.17 21.05 o
0 6 4 26644.22 26395.26 91.19 o
2 6 4 322.34 315.55 18.89 o
4 6 4 15929.28 15327.09 119.58 o
6 6 4 357.08 370.59 24.40 o
-5 7 4 30.85 -4.00 97.30 <
-3 7 4 142.87 125.74 39.18 o
-1 7 4 269.29 327.53 22.78 o
1 7 4 269.30 259.48 32.67 o
3 7 4 142.88 126.15 31.07 o
5 7 4 30.85 -10.00 13.86 <
-4 8 4 333.87 353.70 24.55 o
-2 8 4 9507.91 10029.32 99.34 o
0 8 4 328.58 335.22 33.57 o
2 8 4 9515.50 9425.13 60.74 o
4 8 4 342.79 340.00 20.46 o
-3 9 4 172.12 198.98 29.44 o
-1 9 4 268.65 260.02 22.52 o
1 9 4 268.65 165.10 22.44 o
0 1 5 2816.74 2931.39 13.40 o
-1 2 5 1021.37 1027.46 11.79 o
1 2 5 1319.15 1335.03 12.10 o
-2 3 5 4348.22 4268.97 24.81 o
0 3 5 11.70 18.39 6.04 o
2 3 5 4116.52 4055.42 24.17 o
-3 4 5 777.47 783.80 20.36 o
-1 4 5 3064.85 3046.73 23.16 o
1 4 5 2648.35 2556.35 23.45 o
3 4 5 1139.86 1046.55 22.80 o
-4 5 5 3474.82 3639.31 43.49 o
-2 5 5 218.67 245.24 17.65 o
0 5 5 4374.98 4266.32 36.34 o
2 5 5 393.26 383.50 17.36 o
4 5 5 3216.48 3095.72 57.76 o
-5 6 5 448.54 504.72 34.36 o
-3 6 5 2729.59 2669.12 41.09 o
-1 6 5 1370.53 1384.02 32.21 o
1 6 5 1774.49 1684.05 28.65 o
3 6 5 2383.87 2193.64 40.96 o
5 6 5 718.77 681.15 17.33 o
-6 7 5 1687.51 1823.21 31.61 o
-4 7 5 218.14 208.80 50.93 o
-2 7 5 2977.21 3076.41 57.84 o
0 7 5 134.88 139.99 24.60 o
2 7 5 2868.42 2850.77 53.38 o
4 7 5 397.12 409.96 16.58 o
6 7 5 1508.99 1448.68 32.73 o
-5 8 5 1400.44 1275.46 64.64 o
-3 8 5 532.34 654.29 31.87 o
-1 8 5 1489.47 1554.81 40.48 o
1 8 5 1182.77 1153.98 48.60 o
3 8 5 802.90 729.28 22.51 o
5 8 5 1195.38 1078.25 42.83 o
-2 9 5 60.16 110.34 24.74 o
0 9 5 1734.22 1689.67 31.59 o
2 9 5 126.47 139.96 27.01 o
-1 1 6 31970.38 32748.83 80.06 o
1 1 6 30943.46 30151.96 57.14 o
0 2 6 9.37 16.64 5.65 o
-3 3 6 24495.46 23875.91 87.29 o
-1 3 6 28679.24 27610.88 68.98 o
1 3 6 30368.37 29657.16 52.62 o
3 3 6 22421.12 20904.26 84.91 o
-2 4 6 42.28 42.13 12.41 o
0 4 6 88.16 85.94 12.29 o
2 4 6 42.28 54.94 14.42 o
-5 5 6 8293.49 8974.49 68.95 o
-3 5 6 12891.25 12709.17 65.81 o
-1 5 6 18991.24 18900.79 71.33 o
1 5 6 17025.52 16697.38 64.72 o
3 5 6 14571.32 13425.40 80.37 o
5 5 6 7142.44 6682.97 108.79 o
-4 6 6 37.11 87.58 41.52 o
-2 6 6 143.16 158.87 23.71 o
0 6 6 208.78 213.00 22.86 o
2 6 6 143.17 222.12 27.37 o
4 6 6 37.11 16.84 38.04 <
-5 7 6 3347.71 3549.11 51.68 o
-3 7 6 6438.32 6292.40 108.05 o
-1 7 6 7303.30 7370.36 69.57 o
1 7 6 8480.02 8334.34 67.11 o
3 7 6 5467.27 5040.17 41.07 o
5 7 6 4023.09 3688.19 44.94 o
-4 8 6 88.95 104.20 28.12 o
-2 8 6 199.62 220.96 18.78 o
0 8 6 257.30 255.46 34.42 o
2 8 6 199.62 162.01 16.21 o
4 8 6 88.95 11.27 20.12 <
-1 9 6 3144.78 3204.20 46.63 o
1 9 6 2576.82 2580.59 45.24 o
0 1 7 603.61 631.96 8.70 o
-1 2 7 2223.54 2305.80 18.57 o
1 2 7 2481.54 2484.78 16.16 o
-2 3 7 476.48 454.01 14.28 o
0 3 7 3467.18 3428.77 22.26 o
2 3 7 254.06 233.59 9.87 o
-3 4 7 2851.63 2803.09 35.44 o
-1 4 7 1712.61 1777.50 25.80 o
1 4 7 1322.88 1333.21 18.97 o
3 4 7 3176.17 3062.56 43.14 o
-4 5 7 610.52 669.72 33.40 o
-2 5 7 3239.90 3153.50 32.33 o
0 5 7 51.39 37.60 18.45 o
2 5 7 3395.89 3217.90 38.69 o
4 5 7 360.67 335.67 37.41 o
-5 6 7 1822.13 1944.98 32.09 o
-3 6 7 1070.25 995.00 38.41 o
-1 6 7 1778.05 1700.51 31.41 o
1 6 7 2155.11 2113.06 34.39 o
3 6 7 738.77 652.14 38.51 o
5 6 7 2073.00 1911.50 25.96 o
-4 7 7 1861.85 2384.64 111.89 o
-2 7 7 190.83 212.67 47.28 o
0 7 7 2524.60 2599.91 45.00 o
2 7 7 86.24 20.56 56.89 <
4 7 7 2026.45 1818.26 30.77 o
-3 8 7 1179.23 1280.42 41.60 o
-1 8 7 1078.94 1093.07 21.69 o
1 8 7 786.82 689.73 19.52 o
3 8 7 1433.66 1297.75 32.14 o
0 9 7 34.58 53.25 17.44 o
0 0 8 43982.87 43589.74 108.13 o
-2 2 8 40890.91 41509.45 122.75 o
0 2 8 280.72 265.81 9.42 o
2 2 8 40887.98 40971.41 90.67 o
-1 3 8 21.31 29.74 12.29 o
1 3 8 21.31 10.06 8.19 <
-4 4 8 21662.52 21452.47 160.64 o
-2 4 8 188.21 230.03 16.83 o
0 4 8 34998.69 35206.45 73.25 o
2 4 8 201.35 197.71 17.77 o
4 4 8 21724.02 21009.83 162.68 o
-3 5 8 34.79 13.04 22.45 <
-1 5 8 104.12 112.28 22.23 o
1 5 8 104.12 122.47 22.37 o
3 5 8 34.79 -3.32 28.59 <
-6 6 8 6007.43 6234.79 64.08 o
-4 6 8 246.19 177.89 55.56 o
-2 6 8 16813.30 16661.81 88.84 o
0 6 8 214.14 259.70 26.95 o
2 6 8 16845.90 16445.43 109.43 o
4 6 8 264.79 182.18 12.99 o
6 6 8 6004.95 5378.05 73.04 o
-5 7 8 21.74 -27.58 20.44 <
-3 7 8 98.07 170.01 75.25 o
-1 7 8 182.35 103.35 49.43 o
1 7 8 182.35 110.97 36.28 o
3 7 8 98.08 41.02 11.97 o
5 7 8 21.74 19.38 18.55 <
-4 8 8 4735.53 4587.51 73.25 o
-2 8 8 256.29 241.31 24.65 o
0 8 8 7796.23 7805.48 47.02 o
2 8 8 265.29 230.39 20.11 o
4 8 8 4728.24 4261.39 65.55 o
0 1 9 475.60 502.73 11.10 o
-1 2 9 1938.24 1953.49 24.15 o
1 2 9 1734.24 1771.70 15.89 o
-2 3 9 158.98 143.64 13.39 o
0 3 9 2879.20 3013.93 29.95 o
2 3 9 335.87 340.88 15.13 o
-3 4 9 2555.58 2580.14 44.25 o
-1 4 9 928.78 952.95 24.25 o
1 4 9 1240.86 1196.33 19.57 o
3 4 9 2291.41 2237.30 38.32 o
-4 5 9 238.16 319.60 41.84 o
-2 5 9 2889.14 3010.82 32.79 o
0 5 9 44.28 74.88 15.43 o
2 5 9 2762.77 2632.84 34.01 o
4 5 9 444.64 424.69 37.18 o
-5 6 9 1706.61 1758.78 25.66 o
-3 6 9 498.44 578.54 57.79 o
-1 6 9 1641.04 1665.73 34.83 o
1 6 9 1333.60 1405.95 35.10 o
3 6 9 769.87 680.78 44.80 o
5 6 9 1501.66 1422.93 28.02 o
-4 7 9 1743.96 1845.88 40.17 o
-2 7 9 68.75 162.20 75.98 o
0 7 9 2223.96 2180.87 51.06 o
2 7 9 156.51 182.81 32.24 o
4 7 9 1608.95 1560.31 29.64 o
-3 8 9 1134.97 1211.52 36.53 o
-1 8 9 564.84 564.95 18.89 o
1 8 9 802.00 776.46 27.09 o
3 8 9 928.75 792.13 28.15 o
-1 1 10 23929.12 23772.39 104.98 o
1 1 10 25972.69 26074.19 95.13 o
0 2 10 4.77 30.80 13.26 o
-3 3 10 13662.54 13332.44 85.11 o
-1 3 10 20060.80 20840.99 70.58 o
1 3 10 17989.90 18549.41 57.04 o
3 3 10 15408.31 15332.44 96.81 o
-2 4 10 23.55 -0.80 23.60 <
0 4 10 48.39 24.87 15.33 <
2 4 10 23.55 9.80 29.21 <
-5 5 10 4584.86 4540.95 91.59 o
-3 5 10 8843.08 8687.03 67.39 o
-1 5 10 10260.87 10339.33 62.18 o
1 5 10 11758.74 11886.03 70.32 o
3 5 10 7594.66 7865.82 61.59 o
5 5 10 5470.60 5065.15 45.32 o
-4 6 10 22.51 7.87 54.87 <
-2 6 10 84.43 119.45 39.77 o
0 6 10 121.89 149.99 27.68 o
2 6 10 84.43 67.99 32.17 o
4 6 10 22.51 4.99 11.53 <
-3 7 10 3543.11 3603.60 50.14 o
-1 7 10 5362.44 5279.59 41.43 o
1 7 10 4475.59 4415.12 32.71 o
3 7 10 4289.25 3918.20 48.98 o
-2 8 10 125.42 99.48 20.84 o
0 8 10 160.37 166.65 17.26 o
2 8 10 125.43 140.50 20.13 o
0 1 11 1278.10 1295.82 22.81 o
-1 2 11 726.15 787.63 20.51 o
1 2 11 545.82 552.93 16.63 o
-2 3 11 1952.37 2044.60 29.65 o
0 3 11 50.24 66.00 17.46 o
2 3 11 2103.98 2189.89 33.13 o
-3 4 11 632.10 672.34 33.00 o
-1 4 11 1339.84 1335.88 29.55 o
1 4 11 1616.74 1726.22 30.71 o
3 4 11 389.88 402.49 33.50 o
-4 5 11 1635.10 1599.18 35.02 o
-2 5 11 170.44 187.12 20.92 o
0 5 11 2121.60 2125.04 34.76 o
2 5 11 54.13 19.57 29.65 <
4 5 11 1817.32 1737.61 19.39 o
-5 6 11 415.57 422.89 16.90 o
-3 6 11 1270.73 1448.33 61.92 o
-1 6 11 1029.29 1082.51 37.10 o
1 6 11 748.63 846.56 36.61 o
3 6 11 1514.44 1481.68 22.05 o
5 6 11 229.14 128.28 36.26 o
-4 7 11 205.45 183.70 32.26 o
-2 7 11 1455.86 1564.41 33.99 o
0 7 11 18.90 27.75 11.15 o
2 7 11 1532.15 1341.70 28.28 o
4 7 11 83.91 82.03 38.40 o
-1 8 11 681.36 670.48 30.63 o
1 8 11 898.34 721.92 36.26 o
0 0 12 64.43 51.80 11.31 o
-2 2 12 70.87 84.17 28.32 o
0 2 12 29965.35 29971.71 99.23 o
2 2 12 78.97 162.13 34.62 o
-1 3 12 10.19 5.25 19.78 <
1 3 12 10.19 9.66 17.89 <
-4 4 12 129.64 96.93 16.35 o
-2 4 12 18108.10 18691.42 89.92 o
0 4 12 92.82 297.16 26.31 o
2 4 12 18147.82 18292.46 77.31 o
4 4 12 148.48 175.06 47.59 o
-3 5 12 18.13 -4.47 27.18 <
-1 5 12 52.92 55.26 30.14 <
1 5 12 52.92 199.87 39.07 o
3 5 12 18.13 -20.08 40.36 <
-4 6 12 6575.98 6704.19 50.79 o
-2 6 12 148.83 215.15 37.31 o
0 6 12 10877.32 10764.77 101.33 o
2 6 12 160.85 132.26 16.81 o
4 6 12 6576.34 6148.97 64.36 o
-3 7 12 54.69 79.22 28.51 o
-1 7 12 99.58 98.27 18.20 o
1 7 12 99.57 116.91 24.06 o
3 7 12 54.70 40.94 23.24 <
0 1 13 1004.21 1024.64 26.12 o
-1 2 13 385.29 347.93 25.32 o
1 2 13 515.95 556.45 24.47 o
-2 3 13 1638.20 1732.82 32.52 o
0 3 13 42.91 26.13 22.35 <
2 3 13 1525.85 1655.46 40.87 o
-3 4 13 220.09 204.69 10.62 o
-1 4 13 1145.54 1244.69 40.48 o
1 4 13 942.07 976.25 27.03 o
3 4 13 399.73 471.86 44.36 o
-4 5 13 1419.04 1381.08 29.35 o
-2 5 13 25.98 31.59 30.74 <
0 5 13 1732.42 1780.38 40.80 o
2 5 13 113.58 194.13 48.82 o
4 5 13 1282.83 1181.49 31.97 o
-3 6 13 1102.87 1066.23 27.69 o
-1 6 13 468.60 470.12 14.83 o
1 6 13 675.04 649.93 17.92 o
3 6 13 922.82 927.78 29.57 o
-2 7 13 1269.59 1446.27 62.13 o
0 7 13 20.72 -1.23 17.40 <
2 7 13 1212.38 1211.93 35.93 o
-1 1 14 12849.58 12072.10 114.03 o
1 1 14 11181.07 11693.95 90.10 o
0 2 14 2.02 9.34 22.88 <
-3 3 14 7503.50 7848.16 63.04 o
-1 3 14 8453.15 8900.09 67.96 o
1 3 14 9838.30 10309.70 59.27 o
3 3 14 6327.93 6727.93 64.16 o
-2 4 14 10.65 35.77 8.15 o
0 4 14 21.55 48.25 25.83 <
2 4 14 10.65 1.51 36.38 <
-3 5 14 3852.31 3769.81 38.85 o
-1 5 14 5861.46 5942.12 37.57 o
1 5 14 4873.61 4991.39 66.26 o
3 5 14 4676.81 4969.40 59.79 o
-2 6 14 40.95 66.63 17.72 o
0 6 14 58.35 79.85 18.47 o
2 6 14 40.95 48.39 20.94 o
0 1 15 302.59 284.52 23.10 o
-1 2 15 706.98 681.46 43.08 o
1 2 15 818.89 824.55 35.70 o
-2 3 15 199.71 189.52 10.88 o
0 3 15 1078.85 1100.65 30.98 o
2 3 15 101.79 79.66 13.54 o
-3 4 15 894.72 862.60 21.70 o
-1 4 15 589.54 626.14 15.45 o
1 4 15 411.77 447.77 14.81 o
3 4 15 1048.52 1089.12 25.42 o
-2 5 15 1032.50 937.93 24.37 o
0 5 15 12.75 19.58 13.86 <
2 5 15 1105.67 1182.72 32.80 o
-1 6 15 571.53 592.65 23.87 o
1 6 15 751.99 744.31 31.25 o
0 0 16 15626.21 15991.24 265.64 o
-2 2 16 12123.83 13594.65 71.43 o
0 2 16 46.13 -11.85 31.93 <
2 2 16 12139.38 12443.87 103.27 o
-1 3 16 4.09 6.80 8.79 <
1 3 16 4.09 26.04 11.69 o
-4 4 16 5811.67 5424.83 106.88 o
-2 4 16 70.05 130.80 14.42 o
0 4 16 9478.84 9741.49 56.40 o
2 4 16 79.33 101.85 16.31 o
4 4 16 5807.23 5409.43 96.23 o
-1 5 16 22.64 5.85 16.06 <
1 5 16 22.64 32.61 23.70 <
0 1 17 229.57 263.14 56.97 o
-1 2 17 588.94 614.07 15.93 o
1 2 17 514.12 555.80 71.42 o
-2 3 17 59.57 36.35 15.49 o
0 3 17 826.76 841.92 18.27 o
2 3 17 125.64 85.28 17.70 o
-1 4 17 249.52 252.03 17.47 o
1 4 17 368.13 355.53 23.60 o
-1 1 18 4271.70 4452.68 91.24 o
1 1 18 5215.75 4995.55 94.42 o
0 2 18 0.74 -47.12 14.85 <
-1 3 18 4082.95 4053.58 43.81 o
1 3 18 3287.61 3727.22 51.32 o
0 1 19 368.52 344.47 20.97 o
-1 2 19 244.36 215.52 35.27 o
1 2 19 181.78 112.75 23.19 o
