#------------------------------------------------------------------------------
#$Date: 2021-06-16 10:59:23 +0300 (Wed, 16 Jun 2021) $
#$Revision: 266485 $
#$URL: file:///home/coder/svn-repositories/cod/cif/1/56/35/1563508.cif $
#------------------------------------------------------------------------------
#
# This file is available in the Crystallography Open Database (COD),
# http://www.crystallography.net/
#
# All data on this site have been placed in the public domain by the
# contributors.
#
data_1563508
loop_
_publ_author_name
'Menard, Melissa C.'
'Xiong, Yimin'
'Karki, Amar B.'
'Drake, Brenton L.'
'Adams, Philip W.'
'Fronczek, Frank R.'
'Young, David P.'
'Chan, Julia Y.'
_publ_section_title
;
 Crystal growth and properties of Ln2Ag1&#x2212;xGa10&#x2212;y (Ln=La,
 Ce), a disordered variant of the Ce2NiGa10-structure type
;
_journal_issue                   9
_journal_name_full               'Journal of Solid State Chemistry'
_journal_page_first              1935
_journal_page_last               1942
_journal_paper_doi               10.1016/j.jssc.2010.06.011
_journal_volume                  183
_journal_year                    2010
_chemical_formula_moiety         'Ag0.62 Ga9.37 La2'
_chemical_formula_sum            'Ag0.62 Ga9.37 La2'
_chemical_formula_weight         997.97
_space_group_IT_number           139
_space_group_name_Hall           '-I 4 2'
_space_group_name_H-M_alt        'I 4/m m m'
_symmetry_cell_setting           tetragonal
_symmetry_space_group_name_H-M   'I 4/m m m'
_atom_sites_solution_primary     direct
_atom_sites_solution_secondary   difmap
_audit_creation_method           SHELXL-97
_cell_angle_alpha                90.00
_cell_angle_beta                 90.00
_cell_angle_gamma                90.00
_cell_formula_units_Z            2
_cell_length_a                   4.3236(6)
_cell_length_b                   4.3236(6)
_cell_length_c                   26.1020(18)
_cell_measurement_reflns_used    923
_cell_measurement_temperature    100(2)
_cell_measurement_theta_max      31.00
_cell_measurement_theta_min      1.00
_cell_volume                     487.94(10)
_computing_cell_refinement
'Denzo and Scalepack(Otowinowski & Minor1997)'
_computing_data_collection       'COLLECT (Nonius 1999)'
_computing_data_reduction
'Denzo and Scalepack(Otowinowski & Minor1997)'
_computing_molecular_graphics    'ORTEP-3 for Windows (Farrugia 1997)'
_computing_publication_material  'SHELXL-97 (Sheldrick, 1997)'
_computing_structure_refinement  'SHELXL-97 (Sheldrick, 1997)'
_computing_structure_solution    'SHELXS-97 (Sheldrick, 1990)'
_diffrn_ambient_temperature      100(2)
_diffrn_measured_fraction_theta_full 0.966
_diffrn_measured_fraction_theta_max 0.966
_diffrn_measurement_device_type  'Nonius KappaCCD (with Oxford Cryostream)'
_diffrn_measurement_method       '\w and \f scans'
_diffrn_radiation_monochromator  graphite
_diffrn_radiation_source         'fine-focus sealed tube'
_diffrn_radiation_type           MoK\a
_diffrn_radiation_wavelength     0.71073
_diffrn_reflns_av_R_equivalents  0.0278
_diffrn_reflns_av_sigmaI/netI    0.0361
_diffrn_reflns_limit_h_max       6
_diffrn_reflns_limit_h_min       -4
_diffrn_reflns_limit_k_max       6
_diffrn_reflns_limit_k_min       -6
_diffrn_reflns_limit_l_max       35
_diffrn_reflns_limit_l_min       -36
_diffrn_reflns_number            708
_diffrn_reflns_theta_full        30.01
_diffrn_reflns_theta_max         30.01
_diffrn_reflns_theta_min         1.56
_diffrn_standards_number         0
_exptl_absorpt_coefficient_mu    35.084
_exptl_absorpt_correction_T_max  0.349
_exptl_absorpt_correction_T_min  0.140
_exptl_absorpt_correction_type   multi-scan
_exptl_absorpt_process_details   'HKL Scalepack (Otowinowski & Minor1997)'
_exptl_crystal_colour            silver
_exptl_crystal_density_diffrn    6.793
_exptl_crystal_density_method    'not measured'
_exptl_crystal_description       plates
_exptl_crystal_F_000             864.1
_exptl_crystal_size_max          0.06
_exptl_crystal_size_mid          0.05
_exptl_crystal_size_min          0.03
_refine_diff_density_max         2.193
_refine_diff_density_min         -2.585
_refine_diff_density_rms         0.472
_refine_ls_extinction_coef       0.0028(5)
_refine_ls_extinction_expression Fc^*^=kFc[1+0.001xFc^2^\l^3^/sin(2\q)]^-1/4^
_refine_ls_extinction_method     SHELXL
_refine_ls_goodness_of_fit_ref   1.937
_refine_ls_matrix_type           full
_refine_ls_number_parameters     20
_refine_ls_number_reflns         257
_refine_ls_number_restraints     0
_refine_ls_restrained_S_all      1.937
_refine_ls_R_factor_all          0.0414
_refine_ls_R_factor_gt           0.0339
_refine_ls_shift/su_max          0.000
_refine_ls_shift/su_mean         0.000
_refine_ls_structure_factor_coef Fsqd
_refine_ls_weighting_details
'calc w=1/[\s^2^(Fo^2^)+(0.0114P)^2^+8.9000P] where P=(Fo^2^+2Fc^2^)/3'
_refine_ls_weighting_scheme      calc
_refine_ls_wR_factor_gt          0.0723
_refine_ls_wR_factor_ref         0.0997
_reflns_number_gt                223
_reflns_number_total             266
_reflns_threshold_expression     I>2\s(I)
_cod_data_source_file            JSSC-2010-183-1935.cif
_cod_data_source_block           mm11
_cod_depositor_comments
;
The following automatic conversions were performed:

data item '_symmetry_cell_setting' value 'Tetragonal' was changed to
'tetragonal' in accordance with the built-in table derived from the
CIF Core dictionary named 'cif_core.dic' version 2.4.5 last updated
on 2014-11-21.

Automatic conversion script
Id: cif_fix_values 8369 2020-08-20 11:38:08Z andrius 
;
_cod_database_code               1563508
loop_
_symmetry_equiv_pos_as_xyz
'x, y, z'
'x, -y, -z'
'-x, -y, z'
'-x, y, -z'
'y, x, -z'
'y, -x, z'
'-y, x, z'
'-y, -x, -z'
'x+1/2, y+1/2, z+1/2'
'x+1/2, -y+1/2, -z+1/2'
'-x+1/2, -y+1/2, z+1/2'
'-x+1/2, y+1/2, -z+1/2'
'y+1/2, x+1/2, -z+1/2'
'y+1/2, -x+1/2, z+1/2'
'-y+1/2, x+1/2, z+1/2'
'-y+1/2, -x+1/2, -z+1/2'
'-x, -y, -z'
'-x, y, z'
'x, y, -z'
'x, -y, z'
'-y, -x, z'
'-y, x, -z'
'y, -x, -z'
'y, x, z'
'-x+1/2, -y+1/2, -z+1/2'
'-x+1/2, y+1/2, z+1/2'
'x+1/2, y+1/2, -z+1/2'
'x+1/2, -y+1/2, z+1/2'
'-y+1/2, -x+1/2, z+1/2'
'-y+1/2, x+1/2, -z+1/2'
'y+1/2, -x+1/2, -z+1/2'
'y+1/2, x+1/2, z+1/2'
loop_
_atom_site_label
_atom_site_type_symbol
_atom_site_fract_x
_atom_site_fract_y
_atom_site_fract_z
_atom_site_U_iso_or_equiv
_atom_site_adp_type
_atom_site_occupancy
_atom_site_symmetry_multiplicity
_atom_site_calc_flag
_atom_site_refinement_flags
_atom_site_disorder_assembly
_atom_site_disorder_group
La1 La 0.0000 0.0000 0.35263(5) 0.0051(4) Uani 1 8 d S . .
Ga5 Ga 0.0000 0.0000 0.5000 0.007(4) Uani 0.15 16 d SP . .
Ag1 Ag 0.0000 0.5000 0.2500 0.0053(5) Uani 0.31 8 d SP . .
Ga1 Ga 0.0000 0.5000 0.2500 0.0053(5) Uani 0.69 8 d SP . .
Ga3 Ga 0.0000 0.0000 0.09888(9) 0.0063(6) Uani 1 8 d S . .
Ga4 Ga 0.0000 0.0000 0.19408(9) 0.0053(5) Uani 1 8 d S . .
Ga6 Ga 0.0000 0.3732(9) 0.45563(16) 0.0047(7) Uiso 0.29 2 d SP . .
Ga2 Ga 0.0000 0.5000 0.9524(2) 0.0061(9) Uiso 0.38 4 d SP . .
loop_
_atom_site_aniso_label
_atom_site_aniso_U_11
_atom_site_aniso_U_22
_atom_site_aniso_U_33
_atom_site_aniso_U_23
_atom_site_aniso_U_13
_atom_site_aniso_U_12
La1 0.0028(4) 0.0028(4) 0.0095(7) 0.000 0.000 0.000
Ga5 0.006(6) 0.006(6) 0.008(11) 0.000 0.000 0.000
Ag1 0.0054(6) 0.0054(6) 0.0052(10) 0.000 0.000 0.000
Ga1 0.0054(6) 0.0054(6) 0.0052(10) 0.000 0.000 0.000
Ga3 0.0066(7) 0.0066(7) 0.0058(12) 0.000 0.000 0.000
Ga4 0.0045(7) 0.0045(7) 0.0069(12) 0.000 0.000 0.000
loop_
_atom_type_symbol
_atom_type_description
_atom_type_scat_dispersion_real
_atom_type_scat_dispersion_imag
_atom_type_scat_source
La La -0.2871 2.4523 'International Tables Vol C Tables 4.2.6.8 and 6.1.1.4'
Ag Ag -0.8971 1.1015 'International Tables Vol C Tables 4.2.6.8 and 6.1.1.4'
Ga Ga 0.2307 1.6083 'International Tables Vol C Tables 4.2.6.8 and 6.1.1.4'
loop_
_geom_angle_atom_site_label_1
_geom_angle_atom_site_label_2
_geom_angle_atom_site_label_3
_geom_angle
_geom_angle_site_symmetry_1
_geom_angle_site_symmetry_3
Ga6 La1 Ga6 42.67(10) . 6
Ga6 La1 Ga6 42.67(10) . 21
Ga6 La1 Ga6 61.93(15) 6 21
Ga6 La1 Ga6 61.93(15) . 3
Ga6 La1 Ga6 42.67(10) 6 3
Ga6 La1 Ga6 42.67(10) 21 3
Ga6 La1 Ga4 130.96(6) . 25_445
Ga6 La1 Ga4 130.96(6) 6 25_445
Ga6 La1 Ga4 88.83(7) 21 25_445
Ga6 La1 Ga4 88.83(7) 3 25_445
Ga6 La1 Ga4 88.83(7) . 25
Ga6 La1 Ga4 88.83(7) 6 25
Ga6 La1 Ga4 130.96(6) 21 25
Ga6 La1 Ga4 130.96(6) 3 25
Ga4 La1 Ga4 136.52(8) 25_445 25
Ga6 La1 Ga4 88.83(7) . 25_455
Ga6 La1 Ga4 130.96(6) 6 25_455
Ga6 La1 Ga4 88.83(7) 21 25_455
Ga6 La1 Ga4 130.96(6) 3 25_455
Ga4 La1 Ga4 82.12(3) 25_445 25_455
Ga4 La1 Ga4 82.12(3) 25 25_455
Ga6 La1 Ga4 130.96(6) . 25_545
Ga6 La1 Ga4 88.83(7) 6 25_545
Ga6 La1 Ga4 130.96(6) 21 25_545
Ga6 La1 Ga4 88.83(7) 3 25_545
Ga4 La1 Ga4 82.12(3) 25_445 25_545
Ga4 La1 Ga4 82.12(3) 25 25_545
Ga4 La1 Ga4 136.52(8) 25_455 25_545
Ga6 La1 Ga3 48.38(5) . 25
Ga6 La1 Ga3 48.38(5) 6 25
Ga6 La1 Ga3 90.47(7) 21 25
Ga6 La1 Ga3 90.47(7) 3 25
Ga4 La1 Ga3 179.25(6) 25_445 25
Ga4 La1 Ga3 44.23(6) 25 25
Ga4 La1 Ga3 98.15(2) 25_455 25
Ga4 La1 Ga3 98.15(2) 25_545 25
Ga6 La1 Ga3 90.47(7) . 25_445
Ga6 La1 Ga3 90.47(7) 6 25_445
Ga6 La1 Ga3 48.38(5) 21 25_445
Ga6 La1 Ga3 48.38(5) 3 25_445
Ga4 La1 Ga3 44.23(6) 25_445 25_445
Ga4 La1 Ga3 179.25(6) 25 25_445
Ga4 La1 Ga3 98.15(2) 25_455 25_445
Ga4 La1 Ga3 98.15(2) 25_545 25_445
Ga3 La1 Ga3 135.02(8) 25 25_445
Ga6 La1 Ga3 48.38(5) . 25_455
Ga6 La1 Ga3 90.47(7) 6 25_455
Ga6 La1 Ga3 48.38(5) 21 25_455
Ga6 La1 Ga3 90.47(7) 3 25_455
Ga4 La1 Ga3 98.15(2) 25_445 25_455
Ga4 La1 Ga3 98.15(2) 25 25_455
Ga4 La1 Ga3 44.23(6) 25_455 25_455
Ga4 La1 Ga3 179.25(6) 25_545 25_455
Ga3 La1 Ga3 81.58(3) 25 25_455
Ga3 La1 Ga3 81.58(3) 25_445 25_455
Ga6 La1 Ga3 90.47(7) . 25_545
Ga6 La1 Ga3 48.38(5) 6 25_545
Ga6 La1 Ga3 90.47(7) 21 25_545
Ga6 La1 Ga3 48.38(5) 3 25_545
Ga4 La1 Ga3 98.15(2) 25_445 25_545
Ga4 La1 Ga3 98.15(2) 25 25_545
Ga4 La1 Ga3 179.25(6) 25_455 25_545
Ga4 La1 Ga3 44.23(6) 25_545 25_545
Ga3 La1 Ga3 81.58(3) 25 25_545
Ga3 La1 Ga3 81.58(3) 25_445 25_545
Ga3 La1 Ga3 135.02(8) 25_455 25_545
Ga6 Ga5 Ga6 70.12(12) 21 3
Ga6 Ga5 Ga6 108.7(2) 21 6
Ga6 Ga5 Ga6 70.12(12) 3 6
Ga6 Ga5 Ga6 70.12(12) 21 .
Ga6 Ga5 Ga6 108.7(2) 3 .
Ga6 Ga5 Ga6 70.12(12) 6 .
Ga6 Ga5 Ga6 180.0(2) 21 5_556
Ga6 Ga5 Ga6 109.88(12) 3 5_556
Ga6 Ga5 Ga6 71.3(2) 6 5_556
Ga6 Ga5 Ga6 109.88(13) . 5_556
Ga6 Ga5 Ga6 109.88(12) 21 19_556
Ga6 Ga5 Ga6 180.0(2) 3 19_556
Ga6 Ga5 Ga6 109.88(13) 6 19_556
Ga6 Ga5 Ga6 71.3(2) . 19_556
Ga6 Ga5 Ga6 70.12(12) 5_556 19_556
Ga6 Ga5 Ga6 71.3(2) 21 22_556
Ga6 Ga5 Ga6 109.88(13) 3 22_556
Ga6 Ga5 Ga6 180.000(1) 6 22_556
Ga6 Ga5 Ga6 109.88(12) . 22_556
Ga6 Ga5 Ga6 108.7(2) 5_556 22_556
Ga6 Ga5 Ga6 70.12(12) 19_556 22_556
Ga6 Ga5 Ga6 109.88(13) 21 17_556
Ga6 Ga5 Ga6 71.3(2) 3 17_556
Ga6 Ga5 Ga6 109.88(12) 6 17_556
Ga6 Ga5 Ga6 180.000(1) . 17_556
Ga6 Ga5 Ga6 70.12(12) 5_556 17_556
Ga6 Ga5 Ga6 108.7(2) 19_556 17_556
Ga6 Ga5 Ga6 70.12(12) 22_556 17_556
Ga6 Ga5 Ga2 73.11(6) 21 29_544
Ga6 Ga5 Ga2 5.78(18) 3 29_544
Ga6 Ga5 Ga2 73.11(6) 6 29_544
Ga6 Ga5 Ga2 114.44(13) . 29_544
Ga6 Ga5 Ga2 106.89(6) 5_556 29_544
Ga6 Ga5 Ga2 174.22(18) 19_556 29_544
Ga6 Ga5 Ga2 106.89(6) 22_556 29_544
Ga6 Ga5 Ga2 65.56(13) 17_556 29_544
Ga6 Ga5 Ga2 5.78(18) 21 9_444
Ga6 Ga5 Ga2 73.11(6) 3 9_444
Ga6 Ga5 Ga2 114.44(13) 6 9_444
Ga6 Ga5 Ga2 73.11(6) . 9_444
Ga6 Ga5 Ga2 174.22(18) 5_556 9_444
Ga6 Ga5 Ga2 106.89(6) 19_556 9_444
Ga6 Ga5 Ga2 65.56(13) 22_556 9_444
Ga6 Ga5 Ga2 106.89(6) 17_556 9_444
Ga2 Ga5 Ga2 75.62(9) 29_544 9_444
Ga6 Ga5 Ga2 73.11(6) 21 29_554
Ga6 Ga5 Ga2 114.44(13) 3 29_554
Ga6 Ga5 Ga2 73.11(6) 6 29_554
Ga6 Ga5 Ga2 5.78(18) . 29_554
Ga6 Ga5 Ga2 106.89(6) 5_556 29_554
Ga6 Ga5 Ga2 65.56(13) 19_556 29_554
Ga6 Ga5 Ga2 106.89(6) 22_556 29_554
Ga6 Ga5 Ga2 174.22(18) 17_556 29_554
Ga2 Ga5 Ga2 120.2(2) 29_544 29_554
Ga2 Ga5 Ga2 75.62(9) 9_444 29_554
Ga6 Ga5 Ga2 114.44(13) 21 9_544
Ga6 Ga5 Ga2 73.11(6) 3 9_544
Ga6 Ga5 Ga2 5.78(18) 6 9_544
Ga6 Ga5 Ga2 73.11(6) . 9_544
Ga6 Ga5 Ga2 65.56(13) 5_556 9_544
Ga6 Ga5 Ga2 106.89(6) 19_556 9_544
Ga6 Ga5 Ga2 174.22(18) 22_556 9_544
Ga6 Ga5 Ga2 106.89(6) 17_556 9_544
Ga2 Ga5 Ga2 75.62(9) 29_544 9_544
Ga2 Ga5 Ga2 120.2(2) 9_444 9_544
Ga2 Ga5 Ga2 75.62(9) 29_554 9_544
Ga4 Ag1 Ga4 111.94(9) 1_565 .
Ga4 Ag1 Ga4 108.25(4) 1_565 25
Ga4 Ag1 Ga4 108.25(4) . 25
Ga4 Ag1 Ga4 108.25(4) 1_565 25_455
Ga4 Ag1 Ga4 108.25(4) . 25_455
Ga4 Ag1 Ga4 111.94(9) 25 25_455
Ga4 Ag1 Ga1 54.12(2) 1_565 25_565
Ga4 Ag1 Ga1 125.88(2) . 25_565
Ga4 Ag1 Ga1 54.12(2) 25 25_565
Ga4 Ag1 Ga1 125.88(2) 25_455 25_565
Ga4 Ag1 Ga1 125.88(2) 1_565 25_455
Ga4 Ag1 Ga1 54.12(2) . 25_455
Ga4 Ag1 Ga1 125.88(2) 25 25_455
Ga4 Ag1 Ga1 54.12(2) 25_455 25_455
Ga1 Ag1 Ga1 180.0 25_565 25_455
Ga4 Ag1 Ag1 125.88(2) 1_565 25_455
Ga4 Ag1 Ag1 54.12(2) . 25_455
Ga4 Ag1 Ag1 125.88(2) 25 25_455
Ga4 Ag1 Ag1 54.12(2) 25_455 25_455
Ga1 Ag1 Ag1 180.0 25_565 25_455
Ga1 Ag1 Ag1 0.0 25_455 25_455
Ga4 Ag1 Ag1 54.12(2) 1_565 25_565
Ga4 Ag1 Ag1 125.88(2) . 25_565
Ga4 Ag1 Ag1 54.12(2) 25 25_565
Ga4 Ag1 Ag1 125.88(2) 25_455 25_565
Ga1 Ag1 Ag1 0.0 25_565 25_565
Ga1 Ag1 Ag1 180.0 25_455 25_565
Ag1 Ag1 Ag1 180.0 25_455 25_565
Ga4 Ag1 Ga1 54.12(2) 1_565 25_465
Ga4 Ag1 Ga1 125.88(2) . 25_465
Ga4 Ag1 Ga1 125.88(2) 25 25_465
Ga4 Ag1 Ga1 54.12(2) 25_455 25_465
Ga1 Ag1 Ga1 90.0 25_565 25_465
Ga1 Ag1 Ga1 90.0 25_455 25_465
Ag1 Ag1 Ga1 90.0 25_455 25_465
Ag1 Ag1 Ga1 90.0 25_565 25_465
Ga4 Ag1 Ag1 54.12(2) 1_565 25_465
Ga4 Ag1 Ag1 125.88(2) . 25_465
Ga4 Ag1 Ag1 125.88(2) 25 25_465
Ga4 Ag1 Ag1 54.12(2) 25_455 25_465
Ga1 Ag1 Ag1 90.0 25_565 25_465
Ga1 Ag1 Ag1 90.0 25_455 25_465
Ag1 Ag1 Ag1 90.0 25_455 25_465
Ag1 Ag1 Ag1 90.0 25_565 25_465
Ga1 Ag1 Ag1 0.0 25_465 25_465
Ga4 Ag1 Ag1 125.88(2) 1_565 25
Ga4 Ag1 Ag1 54.12(2) . 25
Ga4 Ag1 Ag1 54.12(2) 25 25
Ga4 Ag1 Ag1 125.88(2) 25_455 25
Ga1 Ag1 Ag1 90.0 25_565 25
Ga1 Ag1 Ag1 90.0 25_455 25
Ag1 Ag1 Ag1 90.0 25_455 25
Ag1 Ag1 Ag1 90.0 25_565 25
Ga1 Ag1 Ag1 180.0 25_465 25
Ag1 Ag1 Ag1 180.0 25_465 25
Ga4 Ag1 Ga1 125.88(2) 1_565 25
Ga4 Ag1 Ga1 54.12(2) . 25
Ga4 Ag1 Ga1 54.12(2) 25 25
Ga4 Ag1 Ga1 125.88(2) 25_455 25
Ga1 Ag1 Ga1 90.0 25_565 25
Ga1 Ag1 Ga1 90.0 25_455 25
Ag1 Ag1 Ga1 90.0 25_455 25
Ag1 Ag1 Ga1 90.0 25_565 25
Ga1 Ag1 Ga1 180.0 25_465 25
Ag1 Ag1 Ga1 180.0 25_465 25
Ag1 Ag1 Ga1 0.0 25 25
Ga4 Ga3 Ga2 121.76(11) . 5_456
Ga4 Ga3 Ga2 121.76(11) . 17_556
Ga2 Ga3 Ga2 73.92(10) 5_456 17_556
Ga4 Ga3 Ga2 121.76(11) . 5_556
Ga2 Ga3 Ga2 116.5(2) 5_456 5_556
Ga2 Ga3 Ga2 73.92(10) 17_556 5_556
Ga4 Ga3 Ga2 121.76(11) . 17_566
Ga2 Ga3 Ga2 73.92(10) 5_456 17_566
Ga2 Ga3 Ga2 116.5(2) 17_556 17_566
Ga2 Ga3 Ga2 73.92(10) 5_556 17_566
Ga4 Ga3 Ga6 122.54(9) . 13_445
Ga2 Ga3 Ga6 62.66(10) 5_456 13_445
Ga2 Ga3 Ga6 12.07(8) 17_556 13_445
Ga2 Ga3 Ga6 83.87(10) 5_556 13_445
Ga2 Ga3 Ga6 114.31(13) 17_566 13_445
Ga4 Ga3 Ga6 122.54(9) . 27_445
Ga2 Ga3 Ga6 12.07(8) 5_456 27_445
Ga2 Ga3 Ga6 62.66(10) 17_556 27_445
Ga2 Ga3 Ga6 114.31(13) 5_556 27_445
Ga2 Ga3 Ga6 83.87(10) 17_566 27_445
Ga6 Ga3 Ga6 51.09(16) 13_445 27_445
Ga4 Ga3 Ga6 122.54(9) . 30_545
Ga2 Ga3 Ga6 83.87(10) 5_456 30_545
Ga2 Ga3 Ga6 12.07(8) 17_556 30_545
Ga2 Ga3 Ga6 62.66(10) 5_556 30_545
Ga2 Ga3 Ga6 114.31(13) 17_566 30_545
Ga6 Ga3 Ga6 23.93(17) 13_445 30_545
Ga6 Ga3 Ga6 73.18(8) 27_445 30_545
Ga4 Ga3 Ga6 122.54(9) . 25_455
Ga2 Ga3 Ga6 12.07(8) 5_456 25_455
Ga2 Ga3 Ga6 83.87(10) 17_556 25_455
Ga2 Ga3 Ga6 114.31(13) 5_556 25_455
Ga2 Ga3 Ga6 62.66(10) 17_566 25_455
Ga6 Ga3 Ga6 73.18(8) 13_445 25_455
Ga6 Ga3 Ga6 23.93(17) 27_445 25_455
Ga6 Ga3 Ga6 92.84(18) 30_545 25_455
Ga4 Ga3 Ga6 122.54(9) . 30
Ga2 Ga3 Ga6 83.87(10) 5_456 30
Ga2 Ga3 Ga6 114.31(13) 17_556 30
Ga2 Ga3 Ga6 62.66(10) 5_556 30
Ga2 Ga3 Ga6 12.07(8) 17_566 30
Ga6 Ga3 Ga6 114.92(18) 13_445 30
Ga6 Ga3 Ga6 92.84(18) 27_445 30
Ga6 Ga3 Ga6 109.60(17) 30_545 30
Ga6 Ga3 Ga6 73.18(8) 25_455 30
Ga4 Ga3 Ga6 122.54(9) . 25
Ga2 Ga3 Ga6 114.31(13) 5_456 25
Ga2 Ga3 Ga6 83.87(10) 17_556 25
Ga2 Ga3 Ga6 12.07(8) 5_556 25
Ga2 Ga3 Ga6 62.66(10) 17_566 25
Ga6 Ga3 Ga6 92.84(18) 13_445 25
Ga6 Ga3 Ga6 114.92(18) 27_445 25
Ga6 Ga3 Ga6 73.18(8) 30_545 25
Ga6 Ga3 Ga6 109.60(17) 25_455 25
Ga6 Ga3 Ga6 51.09(16) 30 25
Ga4 Ga3 Ga6 122.54(9) . 27_545
Ga2 Ga3 Ga6 114.31(13) 5_456 27_545
Ga2 Ga3 Ga6 62.66(10) 17_556 27_545
Ga2 Ga3 Ga6 12.07(8) 5_556 27_545
Ga2 Ga3 Ga6 83.87(10) 17_566 27_545
Ga6 Ga3 Ga6 73.18(8) 13_445 27_545
Ga6 Ga3 Ga6 109.60(17) 27_445 27_545
Ga6 Ga3 Ga6 51.09(16) 30_545 27_545
Ga6 Ga3 Ga6 114.92(18) 25_455 27_545
Ga6 Ga3 Ga6 73.18(8) 30 27_545
Ga6 Ga3 Ga6 23.93(17) 25 27_545
Ga3 Ga4 Ag1 124.03(4) . .
Ga3 Ga4 Ga1 124.03(4) . 25
Ag1 Ga4 Ga1 71.75(4) . 25
Ga3 Ga4 Ag1 124.03(4) . 25
Ag1 Ga4 Ag1 71.75(4) . 25
Ga1 Ga4 Ag1 0.0 25 25
Ga3 Ga4 Ga1 124.03(4) . 25_455
Ag1 Ga4 Ga1 71.75(4) . 25_455
Ga1 Ga4 Ga1 111.94(9) 25 25_455
Ag1 Ga4 Ga1 111.94(9) 25 25_455
Ga3 Ga4 Ga1 124.03(4) . 1_545
Ag1 Ga4 Ga1 111.94(9) . 1_545
Ga1 Ga4 Ga1 71.75(4) 25 1_545
Ag1 Ga4 Ga1 71.75(4) 25 1_545
Ga1 Ga4 Ga1 71.75(4) 25_455 1_545
Ga3 Ga4 Ag1 124.03(4) . 25_455
Ag1 Ga4 Ag1 71.75(4) . 25_455
Ga1 Ga4 Ag1 111.94(9) 25 25_455
Ag1 Ga4 Ag1 111.94(9) 25 25_455
Ga1 Ga4 Ag1 0.0 25_455 25_455
Ga1 Ga4 Ag1 71.75(4) 1_545 25_455
Ga3 Ga4 Ag1 124.03(4) . 1_545
Ag1 Ga4 Ag1 111.94(9) . 1_545
Ga1 Ga4 Ag1 71.75(4) 25 1_545
Ag1 Ga4 Ag1 71.75(4) 25 1_545
Ga1 Ga4 Ag1 71.75(4) 25_455 1_545
Ga1 Ga4 Ag1 0.0 1_545 1_545
Ag1 Ga4 Ag1 71.75(4) 25_455 1_545
Ga3 Ga4 La1 68.26(4) . 25_445
Ag1 Ga4 La1 138.73(2) . 25_445
Ga1 Ga4 La1 138.73(2) 25 25_445
Ag1 Ga4 La1 138.73(2) 25 25_445
Ga1 Ga4 La1 70.301(17) 25_455 25_445
Ga1 Ga4 La1 70.301(17) 1_545 25_445
Ag1 Ga4 La1 70.301(17) 25_455 25_445
Ag1 Ga4 La1 70.301(17) 1_545 25_445
Ga3 Ga4 La1 68.26(4) . 25
Ag1 Ga4 La1 70.301(17) . 25
Ga1 Ga4 La1 70.301(17) 25 25
Ag1 Ga4 La1 70.301(17) 25 25
Ga1 Ga4 La1 138.73(2) 25_455 25
Ga1 Ga4 La1 138.73(2) 1_545 25
Ag1 Ga4 La1 138.73(2) 25_455 25
Ag1 Ga4 La1 138.73(2) 1_545 25
La1 Ga4 La1 136.52(8) 25_445 25
Ga3 Ga4 La1 68.26(4) . 25_545
Ag1 Ga4 La1 138.73(2) . 25_545
Ga1 Ga4 La1 70.301(17) 25 25_545
Ag1 Ga4 La1 70.301(17) 25 25_545
Ga1 Ga4 La1 138.73(2) 25_455 25_545
Ga1 Ga4 La1 70.301(17) 1_545 25_545
Ag1 Ga4 La1 138.73(2) 25_455 25_545
Ag1 Ga4 La1 70.301(17) 1_545 25_545
La1 Ga4 La1 82.12(3) 25_445 25_545
La1 Ga4 La1 82.12(3) 25 25_545
Ga2 Ga6 Ga6 8.8(8) 29_554 3_565
Ga2 Ga6 Ga5 153.1(9) 29_554 .
Ga6 Ga6 Ga5 144.33(12) 3_565 .
Ga2 Ga6 Ga6 134.33(12) 29_554 21
Ga6 Ga6 Ga6 135.000(5) 3_565 21
Ga5 Ga6 Ga6 54.94(6) . 21
Ga2 Ga6 Ga6 134.33(12) 29_554 6
Ga6 Ga6 Ga6 135.000(4) 3_565 6
Ga5 Ga6 Ga6 54.94(6) . 6
Ga6 Ga6 Ga6 90.000(1) 21 6
Ga2 Ga6 Ga6 98.8(8) 29_554 19_556
Ga6 Ga6 Ga6 90.000(1) 3_565 19_556
Ga5 Ga6 Ga6 54.33(12) . 19_556
Ga6 Ga6 Ga6 90.000(2) 21 19_556
Ga6 Ga6 Ga6 90.0 6 19_556
Ga2 Ga6 Ga2 85.9(8) 29_554 13_456
Ga6 Ga6 Ga2 77.13(10) 3_565 13_456
Ga5 Ga6 Ga2 67.20(12) . 13_456
Ga6 Ga6 Ga2 99.06(7) 21 13_456
Ga6 Ga6 Ga2 99.06(7) 6 13_456
Ga6 Ga6 Ga2 12.87(10) 19_556 13_456
Ga2 Ga6 Ga6 73.4(8) 29_554 17_566
Ga6 Ga6 Ga6 64.66(18) 3_565 17_566
Ga5 Ga6 Ga6 79.7(2) . 17_566
Ga6 Ga6 Ga6 107.62(12) 21 17_566
Ga6 Ga6 Ga6 107.62(12) 6 17_566
Ga6 Ga6 Ga6 25.34(18) 19_556 17_566
Ga2 Ga6 Ga6 12.47(10) 13_456 17_566
Ga2 Ga6 Ga3 73.3(4) 29_554 25_455
Ga6 Ga6 Ga3 78.04(8) 3_565 25_455
Ga5 Ga6 Ga3 118.82(10) . 25_455
Ga6 Ga6 Ga3 64.45(8) 21 25_455
Ga6 Ga6 Ga3 136.42(9) 6 25_455
Ga6 Ga6 Ga3 122.54(9) 19_556 25_455
Ga2 Ga6 Ga3 118.57(11) 13_456 25_455
Ga6 Ga6 Ga3 113.41(13) 17_566 25_455
Ga2 Ga6 Ga3 73.3(4) 29_554 25
Ga6 Ga6 Ga3 78.04(9) 3_565 25
Ga5 Ga6 Ga3 118.82(10) . 25
Ga6 Ga6 Ga3 136.42(9) 21 25
Ga6 Ga6 Ga3 64.45(8) 6 25
Ga6 Ga6 Ga3 122.54(9) 19_556 25
Ga2 Ga6 Ga3 118.57(11) 13_456 25
Ga6 Ga6 Ga3 113.41(13) 17_566 25
Ga3 Ga6 Ga3 109.60(17) 25_455 25
Ga2 Ga6 Ga2 125.87(16) 29_554 9_444
Ga6 Ga6 Ga2 126.71(7) 3_565 9_444
Ga5 Ga6 Ga2 62.14(11) . 9_444
Ga6 Ga6 Ga2 8.46(7) 21 9_444
Ga6 Ga6 Ga2 98.26(7) 6 9_444
Ga6 Ga6 Ga2 91.80(16) 19_556 9_444
Ga2 Ga6 Ga2 99.42(16) 13_456 9_444
Ga6 Ga6 Ga2 106.51(19) 17_566 9_444
Ga3 Ga6 Ga2 56.80(9) 25_455 9_444
Ga3 Ga6 Ga2 139.6(2) 25 9_444
Ga2 Ga6 Ga2 125.87(16) 29_554 9_544
Ga6 Ga6 Ga2 126.71(7) 3_565 9_544
Ga5 Ga6 Ga2 62.14(11) . 9_544
Ga6 Ga6 Ga2 98.26(7) 21 9_544
Ga6 Ga6 Ga2 8.46(7) 6 9_544
Ga6 Ga6 Ga2 91.80(16) 19_556 9_544
Ga2 Ga6 Ga2 99.42(16) 13_456 9_544
Ga6 Ga6 Ga2 106.51(19) 17_566 9_544
Ga3 Ga6 Ga2 139.6(2) 25_455 9_544
Ga3 Ga6 Ga2 56.80(9) 25 9_544
Ga2 Ga6 Ga2 106.45(14) 9_444 9_544
Ga6 Ga2 Ga6 162.4(16) 14_455 29
Ga6 Ga2 Ga6 94.1(8) 14_455 30_556
Ga6 Ga2 Ga6 68.3(8) 29 30_556
Ga6 Ga2 Ga6 68.3(8) 14_455 13_456
Ga6 Ga2 Ga6 94.1(8) 29 13_456
Ga6 Ga2 Ga6 25.7(2) 30_556 13_456
Ga6 Ga2 Ga2 81.2(8) 14_455 17_567
Ga6 Ga2 Ga2 81.2(8) 29 17_567
Ga6 Ga2 Ga2 12.87(10) 30_556 17_567
Ga6 Ga2 Ga2 12.87(10) 13_456 17_567
Ga6 Ga2 Ga5 141.3(9) 14_455 9
Ga6 Ga2 Ga5 21.1(7) 29 9
Ga6 Ga2 Ga5 47.24(12) 30_556 9
Ga6 Ga2 Ga5 72.97(17) 13_456 9
Ga2 Ga2 Ga5 60.11(10) 17_567 9
Ga6 Ga2 Ga5 21.1(7) 14_455 9_455
Ga6 Ga2 Ga5 141.3(9) 29 9_455
Ga6 Ga2 Ga5 72.97(17) 30_556 9_455
Ga6 Ga2 Ga5 47.24(12) 13_456 9_455
Ga2 Ga2 Ga5 60.11(10) 17_567 9_455
Ga5 Ga2 Ga5 120.2(2) 9 9_455
Ga6 Ga2 Ga3 94.6(4) 14_455 17_556
Ga6 Ga2 Ga3 94.6(4) 29 17_556
Ga6 Ga2 Ga3 120.87(10) 30_556 17_556
Ga6 Ga2 Ga3 120.87(10) 13_456 17_556
Ga2 Ga2 Ga3 121.76(11) 17_567 17_556
Ga5 Ga2 Ga3 105.21(2) 9 17_556
Ga5 Ga2 Ga3 105.21(2) 9_455 17_556
Ga6 Ga2 Ga3 94.6(4) 14_455 17_566
Ga6 Ga2 Ga3 94.6(4) 29 17_566
Ga6 Ga2 Ga3 120.87(10) 30_556 17_566
Ga6 Ga2 Ga3 120.87(10) 13_456 17_566
Ga2 Ga2 Ga3 121.76(11) 17_567 17_566
Ga5 Ga2 Ga3 105.21(2) 9 17_566
Ga5 Ga2 Ga3 105.21(2) 9_455 17_566
Ga3 Ga2 Ga3 116.5(2) 17_556 17_566
Ga6 Ga2 Ga6 37.21(13) 14_455 11_455
Ga6 Ga2 Ga6 141.9(3) 29 11_455
Ga6 Ga2 Ga6 98.5(2) 30_556 11_455
Ga6 Ga2 Ga6 77.94(17) 13_456 11_455
Ga2 Ga2 Ga6 88.20(16) 17_567 11_455
Ga5 Ga2 Ga6 132.75(18) 9 11_455
Ga5 Ga2 Ga6 44.76(8) 9_455 11_455
Ga3 Ga2 Ga6 60.54(9) 17_556 11_455
Ga3 Ga2 Ga6 121.66(15) 17_566 11_455
Ga6 Ga2 Ga6 141.9(3) 14_455 9
Ga6 Ga2 Ga6 37.21(13) 29 9
Ga6 Ga2 Ga6 77.94(17) 30_556 9
Ga6 Ga2 Ga6 98.5(2) 13_456 9
Ga2 Ga2 Ga6 88.20(16) 17_567 9
Ga5 Ga2 Ga6 44.76(8) 9 9
Ga5 Ga2 Ga6 132.75(18) 9_455 9
Ga3 Ga2 Ga6 121.66(15) 17_556 9
Ga3 Ga2 Ga6 60.54(9) 17_566 9
Ga6 Ga2 Ga6 176.4(3) 11_455 9
Ga6 Ga2 Ga6 141.9(3) 14_455 11
Ga6 Ga2 Ga6 37.21(13) 29 11
Ga6 Ga2 Ga6 77.94(17) 30_556 11
Ga6 Ga2 Ga6 98.50(19) 13_456 11
Ga2 Ga2 Ga6 88.20(16) 17_567 11
Ga5 Ga2 Ga6 44.76(8) 9 11
Ga5 Ga2 Ga6 132.75(18) 9_455 11
Ga3 Ga2 Ga6 60.54(9) 17_556 11
Ga3 Ga2 Ga6 121.66(15) 17_566 11
Ga6 Ga2 Ga6 106.45(14) 11_455 11
Ga6 Ga2 Ga6 73.43(14) 9 11
loop_
_geom_bond_atom_site_label_1
_geom_bond_atom_site_label_2
_geom_bond_distance
_geom_bond_site_symmetry_2
La1 Ga6 3.136(4) .
La1 Ga6 3.136(4) 6
La1 Ga6 3.136(4) 21
La1 Ga6 3.136(4) 3
La1 Ga4 3.2913(10) 25_445
La1 Ga4 3.2913(11) 25
La1 Ga4 3.2913(10) 25_455
La1 Ga4 3.2913(10) 25_545
La1 Ga3 3.3089(11) 25
La1 Ga3 3.3089(11) 25_445
La1 Ga3 3.3089(11) 25_455
La1 Ga3 3.3089(11) 25_545
Ga5 Ga6 1.986(4) 21
Ga5 Ga6 1.986(4) 3
Ga5 Ga6 1.986(4) 6
Ga5 Ga6 1.986(4) .
Ga5 Ga6 1.986(4) 5_556
Ga5 Ga6 1.986(4) 19_556
Ga5 Ga6 1.986(4) 22_556
Ga5 Ga6 1.986(4) 17_556
Ga5 Ga2 2.494(3) 29_544
Ga5 Ga2 2.494(3) 9_444
Ga5 Ga2 2.494(3) 29_554
Ga5 Ga2 2.494(3) 9_544
Ag1 Ga4 2.6085(14) 1_565
Ag1 Ga4 2.6085(14) .
Ag1 Ga4 2.6085(14) 25
Ag1 Ga4 2.6085(14) 25_455
Ag1 Ga1 3.0572(4) 25_565
Ag1 Ga1 3.0572(4) 25_455
Ag1 Ag1 3.0572(4) 25_455
Ag1 Ag1 3.0572(4) 25_565
Ag1 Ga1 3.0572(4) 25_465
Ag1 Ag1 3.0572(4) 25_465
Ag1 Ag1 3.0572(4) 25
Ag1 Ga1 3.0572(4) 25
Ga3 Ga4 2.485(3) .
Ga3 Ga2 2.542(3) 5_456
Ga3 Ga2 2.542(3) 17_556
Ga3 Ga2 2.542(3) 5_556
Ga3 Ga2 2.542(3) 17_566
Ga3 Ga6 2.646(3) 13_445
Ga3 Ga6 2.646(3) 27_445
Ga3 Ga6 2.646(3) 30_545
Ga3 Ga6 2.646(3) 25_455
Ga3 Ga6 2.646(3) 30
Ga3 Ga6 2.646(3) 25
Ga3 Ga6 2.646(3) 27_545
Ga4 Ga1 2.6085(14) 25
Ga4 Ag1 2.6085(14) 25
Ga4 Ga1 2.6085(14) 25_455
Ga4 Ga1 2.6085(14) 1_545
Ga4 Ag1 2.6085(14) 25_455
Ga4 Ag1 2.6085(14) 1_545
Ga4 La1 3.2913(10) 25_445
Ga4 La1 3.2913(10) 25
Ga4 La1 3.2913(10) 25_545
Ga6 Ga2 0.555(4) 29_554
Ga6 Ga6 1.097(8) 3_565
Ga6 Ga6 2.282(6) 21
Ga6 Ga6 2.282(6) 6
Ga6 Ga6 2.316(8) 19_556
Ga6 Ga2 2.463(5) 13_456
Ga6 Ga6 2.563(8) 17_566
Ga6 Ga3 2.646(3) 25_455
Ga6 Ga3 2.646(3) 25
Ga6 Ga2 2.699(2) 9_444
Ga6 Ga2 2.699(2) 9_544
Ga2 Ga6 0.555(4) 14_455
Ga2 Ga6 0.555(4) 29
Ga2 Ga6 2.463(5) 30_556
Ga2 Ga6 2.463(5) 13_456
Ga2 Ga2 2.486(10) 17_567
Ga2 Ga5 2.494(3) 9
Ga2 Ga5 2.494(3) 9_455
Ga2 Ga3 2.542(3) 17_556
Ga2 Ga3 2.542(3) 17_566
Ga2 Ga6 2.699(3) 11_455
Ga2 Ga6 2.699(3) 9
Ga2 Ga6 2.699(2) 11
