#------------------------------------------------------------------------------
#$Date: 2021-06-06 10:34:27 +0300 (Sun, 06 Jun 2021) $
#$Revision: 266198 $
#$URL: file:///home/coder/svn-repositories/cod/cif/1/56/31/1563177.cif $
#------------------------------------------------------------------------------
#
# This file is available in the Crystallography Open Database (COD),
# http://www.crystallography.net/
#
# All data on this site have been placed in the public domain by the
# contributors.
#
data_1563177
loop_
_publ_author_name
'Fedotenko, Timofey'
'Khandarkhaeva, Saiana'
'Dubrovinsky, Leonid'
'Glazyrin, Konstantin'
'Sedmak, Pavel'
'Dubrovinskaia, Natalia'
_publ_section_title
;
 Synthesis and Compressibility of Novel Nickel Carbide at Pressures of
 Earth&#x2019;s Outer Core
;
_journal_issue                   5
_journal_name_full               Minerals
_journal_page_first              516
_journal_paper_doi               10.3390/min11050516
_journal_volume                  11
_journal_year                    2021
_chemical_compound_source        'high-pressure high-temperature synthesis'
_chemical_formula_moiety         'Ni3 C1'
_chemical_formula_structural     'Ni3 C1'
_chemical_formula_sum            'C Ni3'
_chemical_formula_weight         188.1
_chemical_name_common            'Nickel carbide (3/1)'
_chemical_name_systematic        'Nickel carbide (3/1)'
_space_group_IT_number           62
_space_group_name_Hall           '-P 2ac 2n'
_space_group_name_H-M_alt        'P n m a'
_symmetry_cell_setting           orthorhombic
_symmetry_Int_Tables_number      62
_symmetry_space_group_name_Hall  '-P 2ac 2n'
_symmetry_space_group_name_H-M   'P n m a'
_audit_creation_method           'Jana2006 Version : 24/08/2020'
_cell_angle_alpha                90
_cell_angle_beta                 90
_cell_angle_gamma                90
_cell_formula_units_Z            4
_cell_length_a                   4.520(3)
_cell_length_b                   5.8014(17)
_cell_length_c                   4.009(4)
_cell_measurement_reflns_used    80
_cell_measurement_temperature    293
_cell_measurement_theta_max      16.8
_cell_measurement_theta_min      3.1
_cell_volume                     105.13(13)
_computing_cell_refinement       'CrysAlisPro 1.171.40.56a (Rigaku OD, 2019)'
_computing_data_collection       'CrysAlisPro 1.171.40.56a (Rigaku OD, 2019)'
_computing_data_reduction        'CrysAlisPro 1.171.40.56a (Rigaku OD, 2019)'
_computing_molecular_graphics    'Vesta, Version 3.4.0 : 08/01/2017'
_computing_publication_material  publCIF
_computing_structure_refinement  'Jana2006, Version : 24/08/2020'
_computing_structure_solution    'Jana2006, Version : 24/08/2020'
_diffrn_ambient_temperature      293
_diffrn_detector                 'Flat panel'
_diffrn_detector_area_resol_mean 5.0
_diffrn_detector_type            'Perkin Elmer XRD1621'
_diffrn_measured_fraction_theta_full 0.49
_diffrn_measured_fraction_theta_max 0.35
_diffrn_measurement_device_type  'customized \w-circle diffractometer'
_diffrn_measurement_method       '\w scans'
_diffrn_radiation_probe          x-ray
_diffrn_radiation_source         synchrotron
_diffrn_radiation_type           synchrotron
_diffrn_radiation_wavelength     0.2895
_diffrn_reflns_av_R_equivalents  0.0727
_diffrn_reflns_av_unetI/netI     0.0973
_diffrn_reflns_limit_h_max       9
_diffrn_reflns_limit_h_min       -9
_diffrn_reflns_limit_k_max       3
_diffrn_reflns_limit_k_min       -5
_diffrn_reflns_limit_l_max       7
_diffrn_reflns_limit_l_min       -7
_diffrn_reflns_number            366
_diffrn_reflns_theta_full        13.96
_diffrn_reflns_theta_max         17.46
_diffrn_reflns_theta_min         2.77
_diffrn_source                   synchrotron
_diffrn_source_type              'PETRAIII, Beamline P02.2'
_exptl_absorpt_coefficient_mu    4.113
_exptl_absorpt_correction_T_max  1
_exptl_absorpt_correction_T_min  0.105
_exptl_absorpt_correction_type   multi-scan
_exptl_absorpt_process_details
;
CrysAlisPro 1.171.40.56a (Rigaku Oxford Diffraction, 2019)
Empirical absorption correction using spherical harmonics,
 implemented in SCALE3 ABSPACK scaling algorithm.
;
_exptl_crystal_colour            black
_exptl_crystal_density_diffrn    11.884
_exptl_crystal_description       block
_exptl_crystal_F_000             360
_exptl_crystal_size_max          0.002
_exptl_crystal_size_mid          0.002
_exptl_crystal_size_min          0.002
_refine_diff_density_max         3.17
_refine_diff_density_min         -3.58
_refine_ls_extinction_method     none
_refine_ls_goodness_of_fit_gt    1.77
_refine_ls_goodness_of_fit_ref   1.34
_refine_ls_number_constraints    0
_refine_ls_number_parameters     19
_refine_ls_number_reflns         181
_refine_ls_number_restraints     0
_refine_ls_R_factor_all          0.1167
_refine_ls_R_factor_gt           0.0659
_refine_ls_shift/su_max          0.0201
_refine_ls_shift/su_mean         0.0052
_refine_ls_structure_factor_coef Fsqd
_refine_ls_weighting_details     w=1/(\s^2^(I)+0.0004I^2^)
_refine_ls_weighting_scheme      sigma
_refine_ls_wR_factor_gt          0.1321
_refine_ls_wR_factor_ref         0.1571
_reflns_number_gt                83
_reflns_number_total             181
_reflns_threshold_expression     I>3\s(I)
_cod_data_source_file            Ni3C_184GPa.cif
_cod_data_source_block           Ni3C_184GPa
_cod_depositor_comments
;
The following automatic conversions were performed:

data item '_diffrn_radiation_probe' value 'X-ray' was changed to
'x-ray' in accordance with the
/home/data/users/saulius/crontab/automatic-downloads/current/MDPI/lib/dictionaries/cif_core.dic
dictionary named 'cif_core.dic' version 2.4.2 last updated on
2011-04-26.

Automatic conversion script
Id: cif_fix_values 7556 2019-12-06 15:28:31Z antanas 
;
_cod_original_cell_volume        105.12(13)
_cod_original_sg_symbol_Hall     '-P -2xabc;-2yb;-2zac'
_cod_original_formula_sum        'Ni3 C'
_cod_database_code               1563177
loop_
_space_group_symop_id
_space_group_symop_operation_xyz
1 x,y,z
2 -x+1/2,-y,z+1/2
3 -x,y+1/2,-z
4 x+1/2,-y+1/2,-z+1/2
5 -x,-y,-z
6 x+1/2,y,-z+1/2
7 x,-y+1/2,z
8 -x+1/2,y+1/2,z+1/2
loop_
_atom_site_label
_atom_site_type_symbol
_atom_site_fract_x
_atom_site_fract_y
_atom_site_fract_z
_atom_site_adp_type
_atom_site_U_iso_or_equiv
_atom_site_site_symmetry_multiplicity
_atom_site_occupancy
_atom_site_calc_flag
_atom_site_refinement_flags
_atom_site_disorder_assembly
_atom_site_disorder_group
Ni1 Ni 0.5263(6) 0.75 0.1378(6) Uani 0.021(3) 4 1 d . . .
Ni2 Ni 0.3182(4) 0.4397(8) 0.3372(5) Uani 0.026(2) 8 1 d . . .
C1 C 0.379(4) 0.75 0.548(5) Uiso 0.014(3) 4 1 d . . .
loop_
_atom_site_aniso_label
_atom_site_aniso_type_symbol
_atom_site_aniso_U_11
_atom_site_aniso_U_22
_atom_site_aniso_U_33
_atom_site_aniso_U_12
_atom_site_aniso_U_13
_atom_site_aniso_U_23
Ni1 Ni 0.0137(9) 0.033(9) 0.0164(13) 0 0.0007(9) 0
Ni2 Ni 0.0134(6) 0.048(6) 0.0152(9) 0.0034(12) 0.0005(6) -0.0014(10)
loop_
_atom_type_symbol
_atom_type_scat_dispersion_real
_atom_type_scat_dispersion_imag
_atom_type_scat_source
C -0.0010 0.0002 'International Tables Vol C tables 4.2.6.8 and 6.1.1.1'
Ni 0.1275 0.2074 'International Tables Vol C tables 4.2.6.8 and 6.1.1.1'
loop_
_diffrn_standard_refln_index_h
_diffrn_standard_refln_index_k
_diffrn_standard_refln_index_l
? ? ?
loop_
_exptl_crystal_face_index_h
_exptl_crystal_face_index_k
_exptl_crystal_face_index_l
_exptl_crystal_face_perp_dist
? ? ? ?
loop_
_geom_angle_atom_site_label_1
_geom_angle_atom_site_label_2
_geom_angle_atom_site_label_3
_geom_angle_site_symmetry_1
_geom_angle_site_symmetry_2
_geom_angle_site_symmetry_3
_geom_angle
_geom_angle_publ_flag
Ni1 Ni1 Ni1 4_465 . 4_565 136.59(15) ?
Ni1 Ni1 Ni2 4_465 . . 57.60(10) ?
Ni1 Ni1 Ni2 4_465 . 2_564 63.66(11) ?
Ni1 Ni1 Ni2 4_465 . 3_655 126.00(12) ?
Ni1 Ni1 Ni2 4_465 . 3_656 87.10(11) ?
Ni1 Ni1 Ni2 4_465 . 4_565 122.15(10) ?
Ni1 Ni1 Ni2 4_465 . 5_665 126.00(12) ?
Ni1 Ni1 Ni2 4_465 . 5_666 87.10(11) ?
Ni1 Ni1 Ni2 4_465 . 6_555 122.15(10) ?
Ni1 Ni1 Ni2 4_465 . 7_565 57.60(10) ?
Ni1 Ni1 Ni2 4_465 . 8_554 63.66(11) ?
Ni1 Ni1 C1 4_465 . . 46.3(6) ?
Ni1 Ni1 C1 4_465 . 4_565 176.7(6) ?
Ni1 Ni1 Ni2 4_565 . . 105.36(10) ?
Ni1 Ni1 Ni2 4_565 . 2_564 147.02(12) ?
Ni1 Ni1 Ni2 4_565 . 3_655 91.27(11) ?
Ni1 Ni1 Ni2 4_565 . 3_656 54.70(9) ?
Ni1 Ni1 Ni2 4_565 . 4_565 55.58(10) ?
Ni1 Ni1 Ni2 4_565 . 5_665 91.27(11) ?
Ni1 Ni1 Ni2 4_565 . 5_666 54.70(9) ?
Ni1 Ni1 Ni2 4_565 . 6_555 55.58(10) ?
Ni1 Ni1 Ni2 4_565 . 7_565 105.36(10) ?
Ni1 Ni1 Ni2 4_565 . 8_554 147.02(12) ?
Ni1 Ni1 C1 4_565 . . 90.3(6) ?
Ni1 Ni1 C1 4_565 . 4_565 46.8(6) ?
Ni2 Ni1 Ni2 . . 2_564 59.73(12) ?
Ni2 Ni1 Ni2 . . 3_655 145.72(16) ?
Ni2 Ni1 Ni2 . . 3_656 100.23(15) ?
Ni2 Ni1 Ni2 . . 4_565 154.50(16) ?
Ni2 Ni1 Ni2 . . 5_665 92.30(14) ?
Ni2 Ni1 Ni2 . . 5_666 56.26(11) ?
Ni2 Ni1 Ni2 . . 6_555 64.75(11) ?
Ni2 Ni1 Ni2 . . 7_565 111.13(16) ?
Ni2 Ni1 Ni2 . . 8_554 107.50(15) ?
Ni2 Ni1 C1 . . . 59.9(2) ?
Ni2 Ni1 C1 . . 4_565 123.05(15) ?
Ni2 Ni1 Ni2 2_564 . 3_655 90.11(15) ?
Ni2 Ni1 Ni2 2_564 . 3_656 150.08(14) ?
Ni2 Ni1 Ni2 2_564 . 4_565 145.56(16) ?
Ni2 Ni1 Ni2 2_564 . 5_665 62.41(10) ?
Ni2 Ni1 Ni2 2_564 . 5_666 115.66(15) ?
Ni2 Ni1 Ni2 2_564 . 6_555 92.20(14) ?
Ni2 Ni1 Ni2 2_564 . 7_565 107.50(15) ?
Ni2 Ni1 Ni2 2_564 . 8_554 58.41(17) ?
Ni2 Ni1 C1 2_564 . . 103.7(5) ?
Ni2 Ni1 C1 2_564 . 4_565 113.5(5) ?
Ni2 Ni1 Ni2 3_655 . 3_656 113.74(15) ?
Ni2 Ni1 Ni2 3_655 . 4_565 58.21(12) ?
Ni2 Ni1 Ni2 3_655 . 5_665 56.93(17) ?
Ni2 Ni1 Ni2 3_655 . 5_666 145.71(13) ?
Ni2 Ni1 Ni2 3_655 . 6_555 103.96(15) ?
Ni2 Ni1 Ni2 3_655 . 7_565 92.30(14) ?
Ni2 Ni1 Ni2 3_655 . 8_554 62.41(10) ?
Ni2 Ni1 C1 3_655 . . 151.48(12) ?
Ni2 Ni1 C1 3_655 . 4_565 51.3(5) ?
Ni2 Ni1 Ni2 3_656 . 4_565 55.69(11) ?
Ni2 Ni1 Ni2 3_656 . 5_665 145.71(13) ?
Ni2 Ni1 Ni2 3_656 . 5_666 52.76(16) ?
Ni2 Ni1 Ni2 3_656 . 6_555 98.76(14) ?
Ni2 Ni1 Ni2 3_656 . 7_565 56.26(11) ?
Ni2 Ni1 Ni2 3_656 . 8_554 115.66(15) ?
Ni2 Ni1 C1 3_656 . . 47.0(5) ?
Ni2 Ni1 C1 3_656 . 4_565 95.9(5) ?
Ni2 Ni1 Ni2 4_565 . 5_665 103.96(15) ?
Ni2 Ni1 Ni2 4_565 . 5_666 98.76(14) ?
Ni2 Ni1 Ni2 4_565 . 6_555 107.36(16) ?
Ni2 Ni1 Ni2 4_565 . 7_565 64.75(11) ?
Ni2 Ni1 Ni2 4_565 . 8_554 92.20(14) ?
Ni2 Ni1 C1 4_565 . . 100.4(3) ?
Ni2 Ni1 C1 4_565 . 4_565 58.9(2) ?
Ni2 Ni1 Ni2 5_665 . 5_666 113.74(15) ?
Ni2 Ni1 Ni2 5_665 . 6_555 58.21(12) ?
Ni2 Ni1 Ni2 5_665 . 7_565 145.72(16) ?
Ni2 Ni1 Ni2 5_665 . 8_554 90.11(15) ?
Ni2 Ni1 C1 5_665 . . 151.48(12) ?
Ni2 Ni1 C1 5_665 . 4_565 51.3(5) ?
Ni2 Ni1 Ni2 5_666 . 6_555 55.69(11) ?
Ni2 Ni1 Ni2 5_666 . 7_565 100.23(15) ?
Ni2 Ni1 Ni2 5_666 . 8_554 150.08(14) ?
Ni2 Ni1 C1 5_666 . . 47.0(5) ?
Ni2 Ni1 C1 5_666 . 4_565 95.9(5) ?
Ni2 Ni1 Ni2 6_555 . 7_565 154.50(16) ?
Ni2 Ni1 Ni2 6_555 . 8_554 145.56(16) ?
Ni2 Ni1 C1 6_555 . . 100.4(3) ?
Ni2 Ni1 C1 6_555 . 4_565 58.9(2) ?
Ni2 Ni1 Ni2 7_565 . 8_554 59.73(12) ?
Ni2 Ni1 C1 7_565 . . 59.9(2) ?
Ni2 Ni1 C1 7_565 . 4_565 123.05(15) ?
Ni2 Ni1 C1 8_554 . . 103.7(5) ?
Ni2 Ni1 C1 8_554 . 4_565 113.5(5) ?
C1 Ni1 C1 . . 4_565 137.1(8) ?
Ni1 Ni2 Ni1 . . 2_565 153.6(2) ?
Ni1 Ni2 Ni1 . . 3_645 87.70(11) ?
Ni1 Ni2 Ni1 . . 3_646 123.74(14) ?
Ni1 Ni2 Ni1 . . 4_465 66.82(16) ?
Ni1 Ni2 Ni2 . . 2_564 61.78(16) ?
Ni1 Ni2 Ni2 . . 2_565 101.0(2) ?
Ni1 Ni2 Ni2 . . 5_666 68.61(17) ?
Ni1 Ni2 Ni2 . . 6_455 107.66(19) ?
Ni1 Ni2 Ni2 . . 6_555 58.68(14) ?
Ni1 Ni2 Ni2 . . 7_555 145.56(14) ?
Ni1 Ni2 C1 . . . 49.9(5) ?
Ni1 Ni2 C1 . . 2_564 118.3(5) ?
Ni1 Ni2 C1 . . 3_646 105.6(4) ?
Ni1 Ni2 Ni1 2_565 . 3_645 114.7(2) ?
Ni1 Ni2 Ni1 2_565 . 3_646 61.64(12) ?
Ni1 Ni2 Ni1 2_565 . 4_465 87.80(10) ?
Ni1 Ni2 Ni2 2_565 . 2_564 116.51(13) ?
Ni1 Ni2 Ni2 2_565 . 2_565 58.49(13) ?
Ni1 Ni2 Ni2 2_565 . 5_666 110.59(15) ?
Ni1 Ni2 Ni2 2_565 . 6_455 59.90(12) ?
Ni1 Ni2 Ni2 2_565 . 6_555 144.8(2) ?
Ni1 Ni2 Ni2 2_565 . 7_555 60.80(13) ?
Ni1 Ni2 C1 2_565 . . 107.9(5) ?
Ni1 Ni2 C1 2_565 . 2_564 73.1(6) ?
Ni1 Ni2 C1 2_565 . 3_646 95.1(5) ?
Ni1 Ni2 Ni1 3_645 . 3_646 113.74(19) ?
Ni1 Ni2 Ni1 3_645 . 4_465 126.93(15) ?
Ni1 Ni2 Ni2 3_645 . 2_564 59.20(13) ?
Ni1 Ni2 Ni2 3_645 . 2_565 169.6(3) ?
Ni1 Ni2 Ni2 3_645 . 5_666 114.29(13) ?
Ni1 Ni2 Ni2 3_645 . 6_455 92.70(14) ?
Ni1 Ni2 Ni2 3_645 . 6_555 57.69(11) ?
Ni1 Ni2 Ni2 3_645 . 7_555 61.53(13) ?
Ni1 Ni2 C1 3_645 . . 137.1(5) ?
Ni1 Ni2 C1 3_645 . 2_564 48.7(6) ?
Ni1 Ni2 C1 3_645 . 3_646 72.0(6) ?
Ni1 Ni2 Ni1 3_646 . 4_465 119.17(14) ?
Ni1 Ni2 Ni2 3_646 . 2_564 172.0(3) ?
Ni1 Ni2 Ni2 3_646 . 2_565 56.58(13) ?
Ni1 Ni2 Ni2 3_646 . 5_666 55.13(12) ?
Ni1 Ni2 Ni2 3_646 . 6_455 121.48(15) ?
Ni1 Ni2 Ni2 3_646 . 6_555 88.86(12) ?
Ni1 Ni2 Ni2 3_646 . 7_555 63.62(12) ?
Ni1 Ni2 C1 3_646 . . 90.1(5) ?
Ni1 Ni2 C1 3_646 . 2_564 114.2(4) ?
Ni1 Ni2 C1 3_646 . 3_646 45.7(6) ?
Ni1 Ni2 Ni2 4_465 . 2_564 67.73(16) ?
Ni1 Ni2 Ni2 4_465 . 2_565 62.60(15) ?
Ni1 Ni2 Ni2 4_465 . 5_666 99.1(2) ?
Ni1 Ni2 Ni2 4_465 . 6_455 56.57(14) ?
Ni1 Ni2 Ni2 4_465 . 6_555 125.3(2) ?
Ni1 Ni2 Ni2 4_465 . 7_555 143.68(13) ?
Ni1 Ni2 C1 4_465 . . 48.7(5) ?
Ni1 Ni2 C1 4_465 . 2_564 103.0(4) ?
Ni1 Ni2 C1 4_465 . 3_646 157.3(5) ?
Ni2 Ni2 Ni2 2_564 . 2_565 130.1(2) ?
Ni2 Ni2 Ni2 2_564 . 5_666 130.0(2) ?
Ni2 Ni2 Ni2 2_564 . 6_455 57.70(10) ?
Ni2 Ni2 Ni2 2_564 . 6_555 89.91(12) ?
Ni2 Ni2 Ni2 2_564 . 7_555 108.44(19) ?
Ni2 Ni2 C1 2_564 . . 97.8(5) ?
Ni2 Ni2 C1 2_564 . 2_564 58.7(4) ?
Ni2 Ni2 C1 2_564 . 3_646 129.2(6) ?
Ni2 Ni2 Ni2 2_565 . 5_666 64.66(12) ?
Ni2 Ni2 Ni2 2_565 . 6_455 90.09(11) ?
Ni2 Ni2 Ni2 2_565 . 6_555 122.30(13) ?
Ni2 Ni2 Ni2 2_565 . 7_555 108.44(19) ?
Ni2 Ni2 C1 2_565 . . 51.2(5) ?
Ni2 Ni2 C1 2_565 . 2_564 128.9(6) ?
Ni2 Ni2 C1 2_565 . 3_646 99.9(6) ?
Ni2 Ni2 Ni2 5_666 . 6_455 152.1(2) ?
Ni2 Ni2 Ni2 5_666 . 6_555 57.64(11) ?
Ni2 Ni2 Ni2 5_666 . 7_555 108.43(19) ?
Ni2 Ni2 C1 5_666 . . 50.7(5) ?
Ni2 Ni2 C1 5_666 . 2_564 157.8(5) ?
Ni2 Ni2 C1 5_666 . 3_646 58.8(4) ?
Ni2 Ni2 Ni2 6_455 . 6_555 145.62(13) ?
Ni2 Ni2 Ni2 6_455 . 7_555 90.00(18) ?
Ni2 Ni2 C1 6_455 . . 104.8(5) ?
Ni2 Ni2 C1 6_455 . 2_564 49.3(5) ?
Ni2 Ni2 C1 6_455 . 3_646 142.6(4) ?
Ni2 Ni2 Ni2 6_555 . 7_555 90.00(18) ?
Ni2 Ni2 C1 6_555 . . 89.6(5) ?
Ni2 Ni2 C1 6_555 . 2_564 106.2(6) ?
Ni2 Ni2 C1 6_555 . 3_646 49.8(5) ?
Ni2 Ni2 C1 7_555 . . 153.7(5) ?
Ni2 Ni2 C1 7_555 . 2_564 53.0(4) ?
Ni2 Ni2 C1 7_555 . 3_646 52.7(4) ?
C1 Ni2 C1 . . 2_564 150.8(6) ?
C1 Ni2 C1 . . 3_646 109.5(6) ?
C1 Ni2 C1 2_564 . 3_646 99.4(6) ?
Ni1 C1 Ni1 . . 4_465 87.0(8) ?
Ni1 C1 Ni2 . . . 70.2(5) ?
Ni1 C1 Ni2 . . 2_565 140.3(5) ?
Ni1 C1 Ni2 . . 3_656 87.3(7) ?
Ni1 C1 Ni2 . . 5_666 87.3(7) ?
Ni1 C1 Ni2 . . 7_565 70.2(5) ?
Ni1 C1 Ni2 . . 8_555 140.3(5) ?
Ni1 C1 Ni2 4_465 . . 72.4(5) ?
Ni1 C1 Ni2 4_465 . 2_565 80.0(6) ?
Ni1 C1 Ni2 4_465 . 3_656 142.2(4) ?
Ni1 C1 Ni2 4_465 . 5_666 142.2(4) ?
Ni1 C1 Ni2 4_465 . 7_565 72.4(5) ?
Ni1 C1 Ni2 4_465 . 8_555 80.0(6) ?
Ni2 C1 Ni2 . . 2_565 70.2(3) ?
Ni2 C1 Ni2 . . 3_656 138.9(9) ?
Ni2 C1 Ni2 . . 5_666 70.5(3) ?
Ni2 C1 Ni2 . . 7_565 127.4(10) ?
Ni2 C1 Ni2 . . 8_555 137.6(9) ?
Ni2 C1 Ni2 2_565 . 3_656 124.8(10) ?
Ni2 C1 Ni2 2_565 . 5_666 80.9(5) ?
Ni2 C1 Ni2 2_565 . 7_565 137.6(9) ?
Ni2 C1 Ni2 2_565 . 8_555 73.9(7) ?
Ni2 C1 Ni2 3_656 . 5_666 74.7(7) ?
Ni2 C1 Ni2 3_656 . 7_565 70.5(3) ?
Ni2 C1 Ni2 3_656 . 8_555 80.9(5) ?
Ni2 C1 Ni2 5_666 . 7_565 138.9(9) ?
Ni2 C1 Ni2 5_666 . 8_555 124.8(10) ?
Ni2 C1 Ni2 7_565 . 8_555 70.2(3) ?
loop_
_geom_bond_atom_site_label_1
_geom_bond_atom_site_label_2
_geom_bond_site_symmetry_1
_geom_bond_site_symmetry_2
_geom_bond_distance
_geom_bond_publ_flag
Ni1 Ni1 . 4_465 2.432(5) ?
Ni1 Ni1 . 4_565 2.432(5) ?
Ni1 Ni2 . . 2.183(5) ?
Ni1 Ni2 . 2_564 2.256(4) ?
Ni1 Ni2 . 3_655 2.309(5) ?
Ni1 Ni2 . 3_656 2.477(5) ?
Ni1 Ni2 . 4_565 2.234(5) ?
Ni1 Ni2 . 5_665 2.309(5) ?
Ni1 Ni2 . 5_666 2.477(5) ?
Ni1 Ni2 . 6_555 2.234(5) ?
Ni1 Ni2 . 7_565 2.183(5) ?
Ni1 Ni2 . 8_554 2.256(4) ?
Ni1 C1 . . 1.774(19) ?
Ni1 C1 . 4_565 1.760(18) ?
Ni2 Ni2 . 2_564 2.211(5) ?
Ni2 Ni2 . 2_565 2.211(5) ?
Ni2 Ni2 . 5_666 2.212(4) ?
Ni2 Ni2 . 6_455 2.365(4) ?
Ni2 Ni2 . 6_555 2.365(4) ?
Ni2 Ni2 . 7_555 2.201(7) ?
Ni2 C1 . . 2.008(9) ?
Ni2 C1 . 2_564 1.830(15) ?
Ni2 C1 . 3_646 1.815(14) ?
loop_
_refln_index_h
_refln_index_k
_refln_index_l
_refln_F_squared_calc
_refln_F_squared_meas
_refln_F_squared_sigma
_refln_observed_status
0 0 6 1893.34 1846.72 188.42 o
0 1 3 339.91 317.71 33.26 o
0 1 5 86.96 82.36 34.45 <
0 1 7 120.83 171.64 70.54 <
0 2 4 7.79 -39.74 15.91 <
0 2 6 270.38 181.68 38.67 o
0 3 5 2952.05 2622.12 194.63 o
0 4 6 38.48 13.29 13.43 <
1 0 1 58.65 70.45 19.63 o
1 0 2 15531.40 15010.20 567.70 o
1 0 3 10.28 34.97 47.69 <
1 0 4 3724.19 4300.78 215.92 o
1 0 5 309.73 409.73 67.50 o
1 0 6 79.92 86.76 29.74 <
1 0 7 26.26 40.31 26.51 <
1 1 1 141.89 115.52 22.43 o
1 1 2 7993.85 6925.32 180.50 o
1 1 3 893.98 824.70 87.29 o
1 1 4 264.90 168.99 34.54 o
1 1 5 54.31 73.71 25.56 <
1 1 6 180.52 264.58 41.53 o
1 1 7 18.68 44.33 36.99 <
1 2 3 4708.06 5809.47 170.56 o
1 2 4 892.17 754.54 57.32 o
1 2 5 8.27 10.90 7.80 <
1 2 6 2.82 -3.33 12.04 <
1 2 7 224.91 220.48 53.47 o
1 3 4 98.04 187.71 35.97 o
1 3 5 116.87 144.82 31.89 o
1 3 6 67.48 94.66 35.48 <
1 4 5 51.00 75.46 26.09 <
1 4 6 5.02 -3.54 4.34 <
1 4 7 67.47 54.11 27.26 <
1 5 7 29.66 14.82 21.67 <
2 0 0 849.72 970.61 70.39 o
2 0 1 5757.07 5932.20 156.93 o
2 0 2 833.67 786.20 96.31 o
2 0 3 43.16 75.91 51.74 <
2 0 4 17.82 24.93 24.77 <
2 0 5 898.68 998.75 201.01 o
2 0 6 220.80 235.84 51.62 o
2 0 7 150.04 200.31 82.60 <
2 1 1 6836.88 7071.47 198.61 o
2 1 2 584.61 371.70 58.79 o
2 1 3 565.14 444.09 70.48 o
2 1 4 496.61 409.71 73.49 o
2 1 5 928.44 1270.08 170.33 o
2 1 6 140.80 157.71 69.96 <
2 1 7 3.57 2.75 18.73 <
2 2 2 921.80 935.47 123.06 o
2 2 3 188.99 168.79 38.49 o
2 2 4 1710.77 1765.37 143.38 o
2 2 5 579.83 722.99 90.25 o
2 2 6 390.15 432.98 97.98 o
2 2 7 100.88 157.43 73.49 <
2 3 4 107.34 167.74 30.54 o
2 3 5 11.09 10.87 15.06 <
2 3 6 192.46 152.68 55.98 <
2 3 7 101.94 150.15 52.10 <
2 4 5 0.09 -3.00 6.25 <
2 4 6 19.62 25.68 29.80 <
2 4 7 0.05 1.56 5.24 <
3 0 1 9664.94 10069.30 184.60 o
3 0 2 17.90 56.64 28.12 <
3 0 3 10474.60 10788.60 505.03 o
3 0 4 38.40 264.63 142.06 <
3 0 5 79.93 44.25 59.06 <
3 0 6 49.45 61.25 51.55 <
3 0 7 437.79 1010.03 243.05 o
3 1 1 876.96 885.32 62.24 o
3 1 2 87.42 64.51 16.00 o
3 1 3 484.18 379.56 68.66 o
3 1 4 33.03 43.75 23.71 <
3 1 5 1.05 100.11 75.20 <
3 1 6 110.46 144.65 66.60 <
3 1 7 28.11 14.87 16.69 <
3 2 2 990.10 953.47 83.04 o
3 2 3 544.70 395.74 76.71 o
3 2 4 221.63 203.26 56.56 o
3 2 5 275.08 386.12 143.21 <
3 2 6 51.90 105.25 52.56 <
3 2 7 1.11 0.31 9.29 <
3 3 4 1385.75 1608.50 200.11 o
3 3 5 37.21 -56.97 38.86 <
3 3 6 189.15 179.02 59.14 o
3 3 7 0.28 136.96 84.93 <
3 4 5 7.28 8.49 8.33 <
3 4 6 35.43 114.58 77.98 <
4 0 0 317.46 284.03 50.11 o
4 0 1 9424.88 10519.20 237.11 o
4 0 2 18.18 15.68 12.92 <
4 0 3 200.47 288.54 126.45 <
4 0 4 200.71 82.28 97.07 <
4 0 5 1778.05 2169.02 328.33 o
4 1 0 37.01 68.09 27.43 <
4 1 1 893.35 985.54 60.01 o
4 1 2 62.58 61.69 27.96 <
4 1 3 266.71 277.73 67.59 o
4 1 4 8.86 1.56 16.78 <
4 1 5 111.95 123.78 58.89 <
4 1 6 29.31 191.57 80.20 <
4 2 0 1403.86 1331.04 157.55 o
4 2 1 783.30 622.50 66.12 o
4 2 2 133.73 146.73 36.16 o
4 2 3 42.89 48.13 17.64 <
4 2 4 424.48 448.10 105.20 o
4 2 5 136.22 213.85 97.43 <
4 3 3 141.46 80.69 40.58 <
4 3 4 861.55 587.47 128.82 o
4 3 5 21.60 60.90 41.58 <
5 0 1 119.29 81.65 20.67 o
5 0 2 37.55 7.87 20.26 <
5 0 3 840.09 794.30 173.31 o
5 0 4 184.07 96.55 74.75 <
5 1 1 347.54 330.50 42.40 o
5 1 2 1113.41 1123.54 94.67 o
5 1 3 600.95 468.72 147.87 o
5 1 4 240.07 168.01 67.58 <
5 2 1 1110.02 1105.71 133.47 o
5 2 2 1528.79 1607.99 139.11 o
5 2 3 1267.93 1275.00 143.58 o
5 2 4 198.55 190.39 93.44 <
5 3 1 4.12 0.78 16.87 <
5 3 2 249.96 326.30 114.19 <
5 3 3 10.48 -5.78 39.68 <
5 3 4 175.88 214.74 157.08 <
5 4 3 59.33 54.94 18.02 o
5 4 4 0.46 5.36 4.00 <
6 0 0 3068.09 2908.18 173.35 o
6 0 1 67.27 59.21 18.67 o
6 0 2 345.60 303.13 57.18 o
6 0 3 21.51 10.04 20.62 <
6 1 0 1196.74 1060.50 97.94 o
6 1 1 3.82 2.45 7.75 <
6 1 2 23.02 9.97 9.21 <
6 1 3 20.82 13.79 21.42 <
6 2 0 255.19 226.30 73.33 o
6 2 1 665.15 689.43 85.32 o
6 2 2 86.02 73.85 27.26 <
6 2 3 25.47 41.69 25.97 <
6 3 0 0.15 19.46 31.41 <
6 3 1 918.44 983.14 135.00 o
6 3 2 61.69 101.57 60.44 <
6 3 3 45.66 35.49 11.50 o
6 4 0 137.61 155.16 74.28 <
6 4 1 118.55 174.80 70.53 <
6 4 2 9.70 23.74 15.32 <
6 4 3 14.97 12.77 10.72 <
6 5 3 4.97 12.69 7.33 <
7 0 1 31.72 42.79 15.80 <
7 0 2 1977.31 1894.04 148.69 o
7 1 1 2.03 8.50 6.95 <
7 1 2 22.56 29.60 17.76 <
7 2 1 4.68 7.82 12.06 <
7 2 2 18.08 108.87 58.51 <
7 2 3 12.42 47.74 44.92 <
7 3 1 357.31 483.92 84.06 o
7 3 2 90.53 103.71 34.49 o
7 3 3 837.39 960.71 76.92 o
7 4 1 0.23 19.38 25.76 <
7 4 2 144.03 193.60 47.74 o
7 5 2 10.77 38.65 33.79 <
8 0 0 426.76 411.64 75.86 o
8 0 1 10.18 3.14 16.37 <
8 0 2 146.86 155.29 51.84 <
8 1 0 218.71 194.19 56.12 o
8 1 1 93.30 81.86 30.10 <
8 1 2 4.51 89.70 32.94 <
8 2 0 450.48 480.83 107.91 o
8 2 1 187.45 118.68 36.53 o
8 2 2 32.48 28.72 17.37 <
8 3 0 43.61 37.20 26.44 <
8 3 1 188.16 325.68 80.12 o
8 3 2 0.03 -10.28 9.93 <
8 4 0 14.67 3.54 7.15 <
8 4 1 17.36 55.10 32.46 <
8 5 1 106.57 281.65 82.37 o
9 0 1 38.30 62.77 62.21 <
9 1 1 94.05 52.06 26.58 <
9 2 1 28.37 20.33 15.79 <
9 3 1 0.01 5.37 6.78 <
