#------------------------------------------------------------------------------
#$Date: 2021-06-17 11:42:48 +0300 (Thu, 17 Jun 2021) $
#$Revision: 266526 $
#$URL: file:///home/coder/svn-repositories/cod/cif/1/56/35/1563539.cif $
#------------------------------------------------------------------------------
#
# This file is available in the Crystallography Open Database (COD),
# http://www.crystallography.net/
#
# All data on this site have been placed in the public domain by the
# contributors.
#
data_1563539
loop_
_publ_author_name
'Uvarov, Vladimir'
'Shenawi-Khalil, Sanaa'
'Popov, Inna'
_publ_section_title
;
 New bismuth calcium oxysilicate with apatite structure: Synthesis and
 structural characterization
;
_journal_issue                   7
_journal_name_full               'Journal of Solid State Chemistry'
_journal_page_first              1484
_journal_page_last               1489
_journal_paper_doi               10.1016/j.jssc.2010.04.028
_journal_volume                  183
_journal_year                    2010
_chemical_compound_source        synthezed
_chemical_formula_analytical     'H2.5 Bi2.15 Ca2 O12.475 Si3'
_chemical_formula_iupac          'H5 Bi4.3 Ca4 O24.95 Si6'
_chemical_formula_moiety         'H2.5 Bi2.15 Ca2 O12.475 Si3'
_chemical_formula_structural     'Ca4 Bi4.3 (SiO4) (HSiO4)5 O0.95'
_chemical_formula_sum            'Bi2.15 Ca2 H2.5 O12.475 Si3'
_chemical_formula_weight         815.14
_chemical_name_systematic
;
Tetracalcium Tetrabismuth Hexakis (silicate) Oxide
;
_space_group_crystal_system      hexagonal
_space_group_IT_number           176
_space_group_name_Hall           '-P 6c'
_space_group_name_H-M_alt        'P 63/m'
_symmetry_space_group_name_Hall  '-P 6c'
_cell_angle_alpha                90.0
_cell_angle_beta                 90.0
_cell_angle_gamma                120.0
_cell_formula_units_Z            1
_cell_length_a                   9.6090(7)
_cell_length_b                   9.6090(7)
_cell_length_c                   7.0521(7)
_cell_measurement_temperature    295
_cell_volume                     563.90(8)
_computing_cell_refinement       'TOPAS v.3 (Bruker AXS, 2006)'
_computing_data_collection       'Diffrac Plus (Bruker AXS, 2006)'
_computing_data_reduction        'TOPAS v.3'
_computing_molecular_graphics    'TOPAS v.3'
_computing_structure_refinement  'TOPAS v.3'
_computing_structure_solution    none
_diffrn_ambient_temperature      295
_diffrn_detector                 'scintillation detector'
_diffrn_detector_type            scintillation
_diffrn_measurement_device_type  'Bruker D8 Advance'
_diffrn_radiation_monochromator  G\"obel
_diffrn_radiation_source         'sealed X-ray tube'
_diffrn_source_target            Cu
_diffrn_source_type              'Cu K\a'
_exptl_crystal_density_diffrn    4.79
_exptl_crystal_density_method    'not measured'
_pd_char_colour                  off-white
_pd_char_particle_morphology     powder
_pd_instr_location               ' ?'
_pd_meas_2theta_range_inc        0.02
_pd_meas_2theta_range_max        85
_pd_meas_2theta_range_min        8
_pd_meas_number_of_points        3750
_pd_meas_scan_method             step
_pd_prep_cool_rate               5
_pd_prep_pressure                100
_pd_prep_temperature             1075
_pd_proc_2theta_range_inc        0.02
_pd_proc_2theta_range_max        85
_pd_proc_2theta_range_min        8
_pd_proc_info_excluded_regions   none
_pd_proc_ls_background_function  'Chebychev polynomial'
_pd_proc_ls_pref_orient_corr     ' none'
_pd_proc_ls_profile_function     pseudo-Voigt
_pd_proc_ls_prof_R_factor        0.0439
_pd_proc_ls_prof_wR_expected     0.0453
_pd_proc_ls_prof_wR_factor       0.0822
_pd_spec_mounting                ' Powder in the low backgroun quartz holder'
_pd_spec_mount_mode              reflection
_pd_spec_shape                   flat_sheet
_pd_spec_size_axial              20
_pd_spec_size_equat              20
_pd_spec_size_thick              0.2
_refine_ls_extinction_method     none
_refine_ls_goodness_of_fit_all   1.87
_refine_ls_hydrogen_treatment    noref
_refine_ls_matrix_type           fullcycle
_refine_ls_number_parameters     37
_refine_ls_R_I_factor            .0456
_refine_ls_shift/su_max          .01
_refine_ls_structure_factor_coef Inet
_refine_ls_weighting_details     1/[Y~i~+\s(Y~i~)]
_refine_ls_weighting_scheme      sigma
_cod_data_source_file            JSSC-2010-183-1484.cif
_cod_data_source_block           CaBi(SiO4)
_cod_depositor_comments
;
The following automatic conversions were performed:

data item '_chemical_melting_point' value 'not measured' was changed
to '?' -- the value is undefined or not given.

Automatic conversion script
Id: cif_fix_values 8369 2020-08-20 11:38:08Z andrius 
;
_cod_original_cell_volume        563.9
_cod_original_formula_sum        'H2.5 Bi2.15 Ca2 O12.475 Si3'
_cod_database_code               1563539
loop_
_symmetry_equiv_pos_site_id
_symmetry_equiv_pos_as_xyz
1 '-x+y, -x, -z+1/2'
2 '-y, x-y, -z+1/2'
3 'x, y, -z+1/2'
4 'x-y, x, -z'
5 'y, -x+y, -z'
6 '-x, -y, -z'
7 'x-y, x, z+1/2'
8 'y, -x+y, z+1/2'
9 '-x, -y, z+1/2'
10 '-x+y, -x, z'
11 '-y, x-y, z'
12 'x, y, z'
loop_
_atom_site_label
_atom_site_type_symbol
_atom_site_symmetry_multiplicity
_atom_site_Wyckoff_symbol
_atom_site_fract_x
_atom_site_fract_y
_atom_site_fract_z
_atom_site_occupancy
_atom_site_attached_hydrogens
_atom_site_B_iso_or_equiv
Ca1 Ca2+ 4 f 0.3333 0.6667 0.0100(41) 0.574 0 0.75(9)
Bi1 Bi3+ 6 h 0.9920(22) 0.2448(14) 0.25 0.716 0 2
Ca2 Ca2+ 6 h 0.9920(22) 0.2448(14) 0.25 0.284 0 2
Si Si4+ 6 h 0.4049(66) 0.3740(13) 0.25 1.0 0 0.23(1)
O1 O2- 6 h 0.3378(67) 0.5000(81) 0.25 1.0 0 2
O2 O2- 6 h 0.5990(15) 0.4759(73) 0.25 1. 0 2
O3 O2- 12 i 0.3549(42) 0.2665(54) 0.0515(55) 0.583 0 2
OH OH- 12 i 0.3549(42) 0.2665(54) 0.0515(55) 0.417 0 2
O4 O2- 2 a 0 0 0.25 0.475 0 2
loop_
_atom_type_symbol
_atom_type_description
_atom_type_scat_dispersion_real
_atom_type_scat_dispersion_imag
_atom_type_scat_source
Ca Ca .364 1.285 'International Tables for Crystallography (Vol. IV)'
Bi Bi -4.01 8.931 'International Tables for Crystallography (Vol. IV)'
Si Si .254 .3302 'International Tables for Crystallography (Vol. IV)'
O O .047 .032 'International Tables for Crystallography (Vol. IV)'
H H .000 .000 'International Tables for Crystallography (Vol. IV)'
loop_
_diffrn_radiation_type
_diffrn_radiation_wavelength
CuK\a~1~ 1.54056
CuK\a~2~ 1.54439
loop_
_geom_angle_atom_site_label_1
_geom_angle_atom_site_label_2
_geom_angle_atom_site_label_3
_geom_angle
O1 Ca O1 73.7(25)
O3 Bi O3 65.6(21)
O1 Si O2 108.3(36)
O1 Si O3 111.3(40)
O3 Si O3 114.8(69)
O1 Bi O3 66.7(26)
loop_
_geom_bond_atom_site_label_1
_geom_bond_atom_site_label_2
_geom_bond_distance
Ca O1(4) 2.342(62)
Ca O1(3) 2.342(62)
Ca O2(1) 2.561(91)
Ca O2(2) 2.561(91)
Ca O3(5) 2.766(43)
Bi O1(0) 2.984(51)
Bi O2(4) 2.267(58)
Bi O3(3) 2.580(48)
Bi O3(2) 2.349(40)
Bi O4(0) 2.391(65)
Si O1(0) 1.630(15)
Si O2(0) 1.610(13)
Si O3(1) 1.662(72)
O1 O2(0) 2.630(15)
O1 O3(1) 2.718(90)
O1 O3(2) 2.978(61)
O2 O3(1) 2.604(88)
O2 O2(3) 3.100(22)
O2 O3(8) 2.960(12)
O4 Bi(3) 2.391(65)
Bi Si 3.060(10)
O3 O2(5) 3.159(37)
loop_
_pd_proc_wavelength
1.540562
1.544390
loop_
_refln_index_h
_refln_index_k
_refln_index_l
_refln_F_squared_calc
_refln_F_squared_meas
_refln_F_squared_sigma
_refln_observed_status
0 1 0 0.42 0.63 47.86 o
0 1 1 0.12 0.12 560.11 o
1 1 0 0.73 0.70 2708.84 o
0 2 0 9.03 9.44 78293.13 o
1 1 1 26.73 26.32 6193.63 o
0 2 1 2.52 2.51 39564.06 o
0 0 2 17.78 17.49 42928.90 o
0 1 2 19.84 19.64 58414.46 o
1 2 0 8.28 8.40 150774.51 o
2 1 0 10.70 10.85 194809.37 o
1 2 1 53.66 55.87 24116.14 o
2 1 1 64.24 66.88 28869.73 o
1 1 2 38.31 39.26 8893.53 o
0 3 0 33.37 32.37 6596.31 o
0 2 2 0.26 0.25 2114.44 o
0 3 1 2.00 1.99 29798.98 o
2 2 0 0.32 0.29 160.98 o
1 2 2 10.15 9.61 26686.70 o
2 1 2 0.06 0.06 168.04 o
1 3 0 4.70 4.41 14764.37 o
3 1 0 0.92 0.86 2882.17 o
2 2 1 0.33 0.34 5040.71 o
0 1 3 0.13 0.13 1130.72 o
1 3 1 1.45 1.36 20312.95 o
3 1 1 0.29 0.27 4059.55 o
0 3 2 0.03 0.03 516.08 o
1 1 3 32.85 28.50 55171.42 o
0 4 0 20.53 21.26 259385.40 o
0 2 3 0.24 0.24 3957.60 o
0 4 1 0.21 0.21 3174.33 o
2 2 2 38.82 40.11 404894.28 o
1 3 2 11.34 10.85 27267.27 o
3 1 2 29.58 28.29 71130.08 o
3 2 0 1.23 1.23 10185.76 o
2 3 0 15.20 15.20 125708.34 o
1 2 3 46.06 46.51 240712.59 o
2 1 3 36.01 36.37 188228.25 o
3 2 1 26.46 26.48 211371.84 o
2 3 1 44.34 44.36 354161.49 o
1 4 0 8.26 8.34 139569.04 o
4 1 0 24.61 24.87 415981.64 o
0 3 3 1.72 1.73 14363.87 o
0 4 2 83.03 82.70 656798.25 o
0 0 4 33.56 32.91 114709.77 o
1 4 1 0.99 0.98 5853.87 o
4 1 1 0.00 0.00 27.54 o
0 1 4 0.94 0.95 21331.51 o
2 2 3 0.00 0.01 73.84 o
3 2 2 1.44 1.46 20397.64 o
2 3 2 2.38 2.40 33607.20 o
0 5 0 1.53 1.54 16857.21 o
1 1 4 0.54 0.55 8972.12 o
1 3 3 2.33 2.36 44075.00 o
3 1 3 0.27 0.27 5089.72 o
0 2 4 6.88 6.90 85279.24 o
0 5 1 2.47 2.48 36691.48 o
1 4 2 0.00 0.00 30.60 o
4 1 2 1.54 1.55 29655.79 o
3 3 0 0.02 0.02 472.31 o
4 2 0 3.92 3.91 82030.79 o
2 4 0 9.00 8.98 188485.83 o
3 3 1 25.61 25.76 580705.99 o
0 4 3 0.14 0.15 3079.12 o
1 2 4 12.34 12.35 196004.90 o
2 1 4 8.74 8.75 138837.26 o
4 2 1 3.10 3.10 47723.83 o
2 4 1 0.04 0.04 608.45 o
0 5 2 22.01 22.03 400368.20 o
1 5 0 2.52 2.51 22228.61 o
5 1 0 6.01 5.97 52908.03 o
0 3 4 24.99 24.62 190647.40 o
3 2 3 23.24 23.18 240238.28 o
2 3 3 17.30 17.25 178765.44 o
1 5 1 17.87 17.59 303743.99 o
5 1 1 27.34 26.92 464801.64 o
3 3 2 14.77 14.16 243233.32 o
1 4 3 1.57 1.58 32961.59 o
4 1 3 0.01 0.01 249.39 o
4 2 2 5.94 5.96 126155.06 o
2 4 2 3.72 3.73 79046.99 o
2 2 4 0.57 0.57 16239.59 o
1 3 4 1.40 1.41 33159.25 o
3 1 4 2.57 2.58 60898.54 o
0 1 5 0.00 0.00 64.86 o
0 6 0 0.06 0.06 1790.60 o
5 1 2 3.52 3.59 87805.39 o
1 5 2 0.90 0.92 22396.89 o
4 3 0 0.18 0.18 5075.44 o
3 4 0 2.92 2.94 82700.94 o
0 6 1 2.81 2.82 85331.29 o
0 5 3 0.01 0.01 202.41 o
1 1 5 7.41 7.44 167213.69 o
0 4 4 24.82 24.91 555191.71 o
4 3 1 0.36 0.36 8676.04 o
3 4 1 0.14 0.14 3288.39 o
0 2 5 2.53 2.54 78107.12 o
5 2 0 0.08 0.08 2503.03 o
2 5 0 0.75 0.75 24126.66 o
3 3 3 15.72 15.76 478894.99 o
5 2 1 23.98 24.11 687517.05 o
2 5 1 8.36 8.41 239705.26 o
2 4 3 0.05 0.05 1425.58 o
4 2 3 3.48 3.50 97037.47 o
3 2 4 1.09 1.10 25449.15 o
2 3 4 12.01 12.06 279423.12 o
0 6 2 10.57 10.61 218466.75 o
1 2 5 16.37 16.42 307766.97 o
2 1 5 26.14 26.23 491540.18 o
3 4 2 19.63 19.65 433246.04 o
4 3 2 2.40 2.40 53021.84 o
6 1 0 4.03 4.04 84261.68 o
1 6 0 6.73 6.75 140728.98 o
1 4 4 9.48 9.52 187598.78 o
4 1 4 21.14 21.23 418528.70 o
5 1 3 15.57 15.66 310622.81 o
1 5 3 15.08 15.17 300862.68 o
0 3 5 0.39 0.39 8292.16 o
1 6 1 17.82 18.11 555402.92 o
6 1 1 7.51 7.63 233989.32 o
5 2 2 10.63 10.74 349141.42 o
2 5 2 13.48 13.62 442808.03 o
2 2 5 0.33 0.34 12024.80 o
0 5 4 2.97 2.99 100153.42 o
3 1 5 0.05 0.05 2242.85 o
1 3 5 0.19 0.19 7795.11 o
4 4 0 23.18 23.28 952863.40 o
0 6 3 4.25 4.26 424173.91 o
6 1 2 0.25 0.25 27365.53 o
1 6 2 5.03 5.05 561634.77 o
5 3 0 0.01 0.01 2798.61 o
3 5 0 4.77 4.80 1628968.77 o
0 7 0 0.25 0.25 83869.40 o
3 3 4 0.03 0.03 14338.93 o
4 4 1 0.93 0.93 424182.39 o
4 3 3 1.66 1.67 666173.49 o
3 4 3 0.27 0.27 107798.63 o
0 0 6 6.72 6.76 673107.79 o
2 4 4 9.57 9.62 717347.65 o
4 2 4 7.21 7.25 540270.95 o
5 3 1 0.13 0.13 7930.40 o
0 7 1 0.49 0.49 30740.91 o
3 5 1 0.02 0.02 1349.04 o
0 4 5 0.04 0.04 1460.94 o
0 1 6 5.00 5.03 166592.60 o
2 5 3 6.35 6.38 279089.73 o
5 2 3 20.78 20.88 913262.78 o
