#------------------------------------------------------------------------------
#$Date: 2021-06-30 10:25:40 +0300 (Wed, 30 Jun 2021) $
#$Revision: 266803 $
#$URL: file:///home/coder/svn-repositories/cod/cif/1/56/37/1563788.cif $
#------------------------------------------------------------------------------
#
# This file is available in the Crystallography Open Database (COD),
# http://www.crystallography.net/
#
# All data on this site have been placed in the public domain by the
# contributors.
#
data_1563788
loop_
_publ_author_name
'Zakharova, Elena Yu.'
'Dobroljubov, Egor O.'
'Kazakov, Sergey M.'
'Khrustalev, Victor N.'
'Kuznetsov, Alexey N.'
_publ_section_title
;
 Ternary palladium -- Group 12 metal compounds of the Pd5TlAs-type: A case
 study
;
_journal_name_full               'Journal of Solid State Chemistry'
_journal_page_first              217
_journal_page_last               225
_journal_paper_doi               10.1016/j.jssc.2019.05.009
_journal_volume                  276
_journal_year                    2019
_chemical_formula_moiety         'Pd5 Se Zn'
_chemical_formula_sum            'Pd5 Se Zn'
_chemical_formula_weight         676.35
_space_group_crystal_system      tetragonal
_space_group_IT_number           123
_space_group_name_Hall           '-P 4 2'
_space_group_name_H-M_alt        'P 4/m m m'
_atom_sites_solution_hydrogens   .
_atom_sites_solution_primary     difmap
_atom_sites_solution_secondary   difmap
_audit_creation_method           SHELXL-2013
_cell_angle_alpha                90
_cell_angle_beta                 90
_cell_angle_gamma                90
_cell_formula_units_Z            1
_cell_length_a                   3.9360(6)
_cell_length_b                   3.9360(6)
_cell_length_c                   6.9130(14)
_cell_measurement_reflns_used    300
_cell_measurement_temperature    100(2)
_cell_measurement_theta_max      30.0
_cell_measurement_theta_min      6.0
_cell_volume                     107.10(3)
_computing_cell_refinement       'iMosflm (Battye et al., 2011)'
_computing_data_collection       'Marccd (Doyle, 2011)'
_computing_data_reduction        iMosflm
_computing_molecular_graphics    'SHELXTL (Sheldrick, 2015)'
_computing_publication_material  SHELXTL
_computing_structure_refinement  'SHELXL (Sheldrick, 2015)'
_computing_structure_solution    'SHELXT (Sheldrick, 2015)'
_diffrn_ambient_temperature      100(2)
_diffrn_measured_fraction_theta_full 0.800
_diffrn_measured_fraction_theta_max 0.818
_diffrn_measurement_device_type  'Rayonix SX165 CCD'
_diffrn_measurement_method       '/f scan'
_diffrn_radiation_type           synchrotron
_diffrn_radiation_wavelength     0.80246
_diffrn_reflns_av_R_equivalents  0.1197
_diffrn_reflns_av_unetI/netI     0.1216
_diffrn_reflns_Laue_measured_fraction_full 0.800
_diffrn_reflns_Laue_measured_fraction_max 0.818
_diffrn_reflns_limit_h_max       5
_diffrn_reflns_limit_h_min       -5
_diffrn_reflns_limit_k_max       4
_diffrn_reflns_limit_k_min       -5
_diffrn_reflns_limit_l_max       8
_diffrn_reflns_limit_l_min       -7
_diffrn_reflns_number            490
_diffrn_reflns_point_group_measured_fraction_full 0.800
_diffrn_reflns_point_group_measured_fraction_max 0.818
_diffrn_reflns_theta_full        28.782
_diffrn_reflns_theta_max         30.863
_diffrn_reflns_theta_min         5.851
_exptl_absorpt_coefficient_mu    46.968
_exptl_absorpt_correction_T_max  0.360
_exptl_absorpt_correction_T_min  0.060
_exptl_absorpt_correction_type   multi-scan
_exptl_absorpt_process_details   'Scala (Evans, 2006)'
_exptl_crystal_colour            black
_exptl_crystal_density_diffrn    10.487
_exptl_crystal_description       prism
_exptl_crystal_F_000             294
_exptl_crystal_size_max          0.07
_exptl_crystal_size_mid          0.05
_exptl_crystal_size_min          0.02
_refine_diff_density_max         1.808
_refine_diff_density_min         -1.154
_refine_diff_density_rms         0.376
_refine_ls_extinction_coef       0.030(3)
_refine_ls_extinction_expression Fc^*^=kFc[1+0.001xFc^2^\l^3^/sin(2\q)]^-1/4^
_refine_ls_extinction_method     SHELXL
_refine_ls_goodness_of_fit_ref   0.915
_refine_ls_hydrogen_treatment    undef
_refine_ls_matrix_type           full
_refine_ls_number_parameters     12
_refine_ls_number_reflns         81
_refine_ls_number_restraints     0
_refine_ls_restrained_S_all      0.915
_refine_ls_R_factor_all          0.0362
_refine_ls_R_factor_gt           0.0361
_refine_ls_shift/su_max          0.000
_refine_ls_shift/su_mean         0.000
_refine_ls_structure_factor_coef Fsqd
_refine_ls_weighting_details     'w=1/[\s^2^(Fo^2^)] where P=(Fo^2^+2Fc^2^)/3'
_refine_ls_weighting_scheme      calc
_refine_ls_wR_factor_gt          0.0802
_refine_ls_wR_factor_ref         0.0804
_reflns_Friedel_coverage         0.000
_reflns_Friedel_fraction_full    .
_reflns_Friedel_fraction_max     .
_reflns_number_gt                79
_reflns_number_total             81
_reflns_threshold_expression     'I > 2\s(I)'
_cod_data_source_file            JSSC-2019-276-217.cif
_cod_data_source_block           Pd5ZnSe
_cod_original_cell_volume        107.10(4)
_cod_database_code               1563788
_shelx_space_group_comment
;
The symmetry employed for this shelxl refinement is uniquely defined
by the following loop, which should always be used as a source of
symmetry information in preference to the above space-group names.
They are only intended as comments.
;
_shelx_estimated_absorpt_t_min   0.135
_shelx_estimated_absorpt_t_max   0.449
_shelxl_version_number           2013-4
_shelx_res_file
;
TITL Pd5ZnSe in P4/mmm
CELL 0.80246   3.9360   3.9360   6.9130  90.000  90.000  90.000
ZERR    1.00   0.0006   0.0006   0.0014   0.000   0.000   0.000
LATT 1
SYMM -X, -Y, +Z
SYMM -Y, +X, +Z
SYMM +Y, -X, +Z
SYMM -X, +Y, -Z
SYMM +X, -Y, -Z
SYMM +Y, +X, -Z
SYMM -Y, -X, -Z
SFAC Pd Zn Se
DISP Pd -0.721 1.259 6073.959
DISP Zn 0.191 1.775 8142.113
DISP Se -0.607 2.683 12490.533
UNIT 5 1 1
TEMP -173.0
SIZE 0.07 0.05 0.02

OMIT     0   0   1
OMIT     0   0   2
OMIT     0   1   4
OMIT     1   1   7
OMIT     0   3   6
OMIT     1   3   6
OMIT     0   1   8
OMIT     3   4   1
OMIT     0   0   7
OMIT     2   2   5
OMIT     1   3   3
OMIT     1   1   6
OMIT     2   3   2
OMIT     1   1   5
OMIT     0   1   3
OMIT     0   0   3
L.S. 12
BOND
ACTA

WGHT    0.000000
EXTI    0.030360
FVAR       0.66735
PD1   1    0.500000    1.000000    0.726188    10.25000    0.01095    0.01186 =
         0.02624    0.00000    0.00000    0.00000
PD2   1    1.000000    1.000000    1.000000    10.06250    0.01285    0.01285 =
         0.01767    0.00000    0.00000    0.00000
ZN1   2    0.500000    0.500000    1.000000    10.06250    0.01181    0.01181 =
         0.01672    0.00000    0.00000    0.00000
SE1   3    0.000000    1.000000    0.500000    10.06250    0.01210    0.01210 =
         0.02283    0.00000    0.00000    0.00000
HKLF 4

REM  Pd5ZnSe in P4/mmm
REM R1 =  0.0361 for      79 Fo > 4sig(Fo)  and  0.0362 for all      81 data
REM     12 parameters refined using      0 restraints

END

WGHT      0.0000      0.0000

REM Highest difference peak  1.808,  deepest hole -1.154,  1-sigma level  0.376
Q1    1   0.5000  0.5000  1.1194  10.12500  0.05    1.81
Q2    1   1.0000  1.0000  1.1132  10.12500  0.05    1.74
Q3    1   0.2492  1.2492  0.5000  10.25000  0.05    1.61
Q4    1   0.5000  0.5000  0.5000  10.06250  0.05    1.61
Q5    1   0.5000  1.0000  0.6211  10.25000  0.05    1.21
Q6    1   0.7714  0.7714  0.7823  10.50000  0.05    0.99
Q7    1   0.5000  1.0000  0.7796  10.25000  0.05    0.96
Q8    1   0.2535  0.2535  1.0802  10.50000  0.05    0.95
Q9    1   0.0000  1.0000  0.3755  10.12500  0.05    0.90
Q10   1   1.0000  1.4503  1.0000  10.25000  0.05    0.81
Q11   1   0.0000  1.3707  0.5000  10.25000  0.05    0.66
Q12   1   0.2385  1.0000  0.6301  10.50000  0.05    0.57
Q13   1   0.0848  1.0000  0.7465  10.50000  0.05    0.56
Q14   1   0.5000  0.6919  0.7327  10.50000  0.05    0.54
Q15   1   1.1238  1.2407  1.1415  11.00000  0.05    0.44
Q16   1   1.0000  1.0655  1.0000  10.25000  0.05    0.44
Q17   1   0.2716  0.8527  0.6520  11.00000  0.05    0.41
Q18   1   0.5000  0.7278  0.6165  10.50000  0.05    0.27
;
_shelx_res_checksum              8064
_shelx_hkl_file
;
   0   0   1   27.62    6.10
   0   0   2  589.38  120.03
   0   0   3 2111.37  428.97
   0   0   4 7594.36 1541.30
   0   0   5  704.36  143.51
   0   0   6    4.88    3.92
   0   0   7 2630.34  534.30
   0   0   8 1295.44  263.60
  -1   0   0  777.32  158.10
   1   0   0  882.08  179.40
   0  -1   0  642.75  130.82
   1   0   1  107.94   22.57
  -1   0   1  120.86   24.98
  -1   0  -1  101.38   21.21
   1   0  -1   83.72   17.40
   0  -1  -1  107.94   22.29
   0   1   1  101.95   21.04
   1   0   2  490.87  100.19
  -1   0   2  584.84  119.07
  -1   0  -2  503.92  102.91
   0  -1  -2  581.15  118.27
   0   1   2  566.38  115.26
   1   0   3   46.33   10.45
  -1   0  -3   55.50   12.26
   0  -1  -3   63.54   13.43
   0   1   3   65.44   13.83
   1   0   4  161.74   33.56
  -1   0  -4  164.95   34.21
   0  -1  -4  150.98   31.17
   0  -1   4  157.59   32.79
   0   1   4  286.17   58.60
   1   0   5   31.00    7.52
  -1   0   5   32.82    8.01
   0  -1   5   30.41    7.61
   0   1   5   25.55    6.50
   1   0   6  182.86   38.04
  -1   0   6  201.46   41.79
   0  -1   6  184.00   38.27
   0   1   6  153.08   31.88
   1   0   7   10.42    4.77
  -1   0   7   18.06    6.27
   0  -1   7   17.60    6.39
   0   1   7   17.46    6.61
   1   0   8   97.35   21.12
  -1   0   8  135.31   29.24
   0  -1   8  109.50   23.48
   0   1   8  105.67   23.19
  -1  -1   0 1492.75  303.49
   1   1   0 1503.82  305.76
   1  -1   0  973.21  197.88
   1   1   1 1317.87  268.03
  -1  -1   1 1281.53  260.62
   1  -1  -1 1235.25  251.22
  -1  -1  -1 1351.37  274.73
   1   1  -1 1328.66  270.16
   1   1   3  264.31   54.34
  -1  -1   3  256.05   52.64
  -1  -1  -3  279.67   57.43
   1  -1   3  165.91   34.41
   1   1   4  159.52   33.10
  -1  -1  -4  182.75   37.76
   1  -1   4  158.81   33.10
  -1   1   4  145.16   29.78
   1   1   5 1674.17  340.40
  -1  -1  -5 1843.37  374.47
   1  -1   5 2308.40  469.00
  -1   1   5 1491.62  303.21
   1   1   6 1834.85  373.05
  -1  -1   6 1552.94  315.70
  -1  -1  -6 1288.06  261.98
   1  -1   6 3193.89  648.43
  -1   1   6 2890.11  587.11
   1   1   7  630.26  128.58
  -1  -1   7  615.78  125.77
   1  -1   7  748.36  152.57
  -1   1   7  738.43  150.64
   1   1   8  104.65   23.02
  -1  -1   8  100.87   22.40
   1  -1   8  103.48   22.46
  -1   1   8   71.32   16.69
  -1   1   8   71.15   17.26
   2   0   1   54.42   12.01
  -2   0   1   52.83   11.50
  -2   0  -1   45.57   10.25
   2   0  -1   50.79   11.02
   0  -2  -1   50.22   10.82
   0  -2   1   38.70    8.69
   2   0   2  682.50  139.17
  -2   0   2  780.73  158.98
  -2   0  -2  630.83  128.66
   2   0  -2  719.97  146.63
   0  -2  -2  632.82  128.83
   0   2   2  620.32  126.31
   2   0   3 1846.78  375.32
  -2   0   3 2360.92  479.51
  -2   0  -3 1832.87  372.48
   0  -2  -3 2256.16  458.22
   0   2   3 1889.93  384.12
   2   0   4 4687.21  951.92
  -2   0   4 7812.96 1586.16
  -2   0  -4 5076.15 1030.56
   0  -2  -4 5805.78 1179.04
   0   2   4 6930.03 1407.01
   2   0   5  253.41   52.24
  -2   0   5  633.10  129.12
  -2   0  -5  340.11   69.73
   0  -2  -5  330.46   67.54
   0  -2   5  272.52   56.13
   0   2   5  511.31  104.33
   2   0   6   25.07    6.70
  -2   0   6    6.08    5.05
  -2   0   6    2.87    4.97
  -2   0  -6    1.70    3.29
   0  -2   6    1.85    4.51
   0   2   6    5.34    4.26
   2   0   7 1544.71  313.99
  -2   0   7 1123.40  228.99
  -2   0   7 1952.67  397.18
   0  -2   7 1444.21  293.84
   0   2   7 1103.52  224.82
   2   0   8  783.28  159.72
  -2   0   8  706.06  144.65
  -2   0   8  850.57  173.78
   0  -2   8  804.86  164.12
   0   2   8  602.72  123.47
   2   1   0  457.36   93.52
  -2  -1   0  453.67   92.75
  -2   1   0  258.89   53.17
   2  -1   0  447.43   91.30
  -1  -2   0  452.82   92.52
   1   2   0  428.12   87.58
   1  -2  -1   62.17   13.03
  -1  -2   1   73.50   15.81
   1   2   1   69.47   14.93
  -2   1   1   40.51    8.91
   2  -1   1   61.44   13.26
   2   1  -1   69.07   14.90
  -2  -1  -1   74.07   15.90
   2   1   1   76.11   16.27
  -2  -1   1   80.63   17.18
  -2   1  -1   38.61    8.91
   2  -1  -1   72.79   15.25
  -1  -2  -1   79.89   17.01
   1  -2  -2  189.31   38.72
   1  -2  -2  341.53   69.70
  -1  -2   2  333.87   68.45
   1   2   2  365.95   74.86
   2  -1   2  297.53   61.18
   2   1  -2  394.62   80.71
  -2  -1  -2  369.92   75.74
   2   1   2  376.45   77.14
  -2  -1   2  392.64   80.37
   2  -1  -2  331.31   67.54
  -1  -2  -2  363.39   74.35
  -1  -2   3   41.31    9.54
   1   2   3   58.03   12.66
   2  -1   3   32.48    7.86
  -2  -1  -3   55.96   12.35
   2   1   3   50.88   11.38
  -2  -1   3   62.91   13.71
  -2   1  -3   25.35    6.67
  -1  -2  -3   54.68   11.87
   1  -2   3   33.93    8.26
  -1  -2   4  235.52   48.63
   1   2   4  270.50   55.59
   2  -1   4  133.41   28.02
  -2  -1  -4  241.60   49.74
   2   1   4  237.28   48.86
  -2  -1   4  296.11   61.04
  -1  -2  -4  255.99   52.61
   1  -2   4  190.27   39.63
  -1  -2   5   27.34    7.35
   1   2   5   24.76    6.53
   2  -1   5   27.85    7.35
  -2  -1  -5   28.45    7.15
   2   1   5   24.27    6.36
  -2  -1   5   36.68    9.51
  -1  -2  -5   28.87    7.07
   1  -2   5   26.54    7.35
  -1  -2   6   73.19   16.27
   1   2   6  108.79   23.08
   2  -1   6  141.04   29.50
  -2  -1  -6  120.20   25.24
   2   1   6   78.36   17.18
  -2  -1   6  134.06   28.59
  -1  -2  -6  115.26   24.22
   1  -2   6  156.34   32.65
  -1  -2   7    5.93    5.14
  -1  -2   7    5.93    5.91
   1   2   7   10.05    6.22
   2  -1   7    9.60    4.63
  -2  -1  -7    4.80    4.29
   2   1   7    8.06    4.71
  -2  -1   7    8.80    7.78
  -2  -1   7    4.46    5.73
  -1  -2  -7    4.71    5.05
   1  -2   7   15.10    6.53
   2  -2   0 9999.00 2029.89
   2   2   1   39.55    9.20
  -2  -2   1   43.18    9.88
   2  -2  -1   26.35    6.08
  -2  -2  -1   33.61    7.86
   2   2  -1   28.33    7.13
   2  -2   1   24.22    6.27
   2   2   2  458.22   93.63
  -2  -2   2  480.93   98.34
  -2  -2  -2  470.71   96.19
   2  -2   2  270.19   55.62
   2   2   3 1442.50  293.27
  -2  -2   3 1512.06  307.46
  -2  -2  -3 1453.01  295.54
   2  -2   3  738.99  150.69
   2   2   4 4499.83  913.88
  -2  -2   4 5044.92 1024.32
  -2  -2  -4 4973.95 1009.55
   2  -2   4 3821.31  776.19
   2   2   5  415.92   85.17
  -2  -2   5  452.82   92.75
  -2  -2  -5  434.37   88.78
   2  -2   5  419.32   85.82
   2   2   6    1.33    4.29
  -2  -2   6    3.41    5.96
  -2  -2  -6    4.85    4.63
   2  -2   6   -0.06    4.49
   2   2   7  707.48  144.39
  -2  -2   7  972.36  198.30
  -2  -2  -7  824.73  168.04
   2  -2   7 1374.65  279.53
  -3   0   0  299.52   61.58
   3   0   0  325.92   66.94
   0  -3   0  261.42   53.63
   3   0   1   50.93   11.33
  -3   0   1   60.19   13.34
  -3   0  -1   48.80   11.16
   3   0  -1   62.15   13.40
   0  -3  -1   50.65   11.02
   0  -3   1   48.63   10.85
   3   0   2  309.45   63.65
  -3   0   2  310.59   63.79
  -3   0  -2  273.68   56.35
   3   0  -2  338.69   69.50
   0  -3  -2  286.46   58.60
   0  -3   2  243.90   50.25
   3   0   3   42.02    9.91
  -3   0   3   45.79   10.45
  -3   0  -3   35.03    8.49
   0  -3  -3   36.71    8.15
   0  -3   3   22.12    5.91
   3   0   4  178.26   36.91
  -3   0   4  219.43   45.40
  -3   0  -4  165.86   34.55
   0  -3  -4  181.55   37.33
   0   3   4  116.88   24.70
   3   0   5   13.60    4.83
  -3   0   5   19.28    6.84
  -3   0  -5   13.63    5.11
   0  -3  -5   18.14    5.45
   0   3   5   14.62    5.82
   3   0   6   70.55   15.39
  -3   0   6   96.50   21.58
  -3   0  -6   54.88   12.52
   0  -3   6   53.69   12.58
   0   3   6   49.31   12.38
   3   0   7    6.53    5.48
  -3   0   7    9.88   10.70
  -3   0   7   10.05   10.73
   0  -3   7    4.23    6.53
   0   3   7    5.51    8.52
   3   1   0  691.87  141.16
  -3  -1   0  633.95  129.35
  -3   1   0  443.45   90.71
   3  -1   0  691.30  140.99
  -1  -3   0  579.16  118.13
   1  -3   0  455.66   93.01
   1  -3  -1  405.41   82.73
  -1  -3   1  497.68  101.64
   1   3   1  353.17   72.57
  -3   1   1  353.74   72.42
   3  -1   1  573.20  117.00
   3   1  -1  592.22  120.77
  -3  -1  -1  533.45  108.99
   3   1   1  568.94  116.06
  -3  -1   1  579.16  118.27
  -3   1  -1  390.93   80.29
   3  -1  -1  584.84  119.21
  -1  -3  -1  521.81  106.49
   1  -3  -2 6819.31 1385.15
  -1  -3   2 6734.14 1367.27
   1   3   2 7185.54 1458.97
  -3   1   2 4190.38  851.42
   3  -1   2 7336.01 1489.06
   3   1  -2 8636.27 1752.81
  -3  -1  -2 7338.85 1489.63
   3   1   2 8128.09 1649.75
  -3  -1   2 7957.75 1615.40
  -3   1  -2 4227.29  858.52
   3  -1  -2 7327.49 1487.93
  -1  -3  -2 6688.71 1357.90
  -1  -3   3  143.43   30.01
   1   3   3  149.08   31.09
  -3   1   3  114.58   23.93
   3  -1   3  140.76   29.58
  -3  -1  -3  147.43   30.83
   3   1   3  145.61   30.43
  -3  -1   3  165.51   34.52
  -3   1  -3   82.16   17.83
  -1  -3  -3  145.84   30.26
  -1  -3   4   91.93   19.73
   1   3   4   98.97   21.12
   3  -1   4   93.23   19.82
  -3  -1  -4  113.70   23.90
   3   1   4  105.10   22.26
  -3  -1   4  136.90   28.96
  -3   1  -4   53.35   12.12
  -1  -3  -4  107.54   22.46
   1  -3   4   67.09   14.85
  -1  -3   5 1079.96  219.82
   1   3   5 1312.19  266.98
   3  -1   5  638.21  130.11
  -3  -1  -5 1335.47  271.58
   3   1   5 1142.99  232.60
  -3  -1   5 1621.36  329.89
  -1  -3  -5 1404.18  285.60
   1  -3   5 1127.09  229.25
  -1  -3   6  774.48  157.93
   1   3   6 1127.37  229.65
   3  -1   6 1380.04  280.61
  -3  -1  -6 1411.84  287.02
   3   1   6  930.63  189.48
  -3  -1   6 1719.59  350.05
  -1  -3  -6 1496.16  304.34
   1  -3   6 1672.75  340.11
   3   2   0  228.14   47.16
  -3  -2   0  214.06   44.23
   3  -2   0  240.41   49.54
  -2  -3   0  218.32   45.03
   2   3   0  207.84   42.98
   2  -3   0  185.56   38.53
   2  -3  -1   36.51    8.29
   2  -3  -1   27.77    6.42
  -2  -3   1   32.79    8.01
   2   3   1   36.99    8.77
   3  -2   1   38.58    9.14
   3   2  -1   40.77    9.40
  -3  -2  -1   38.53    8.97
   3   2   1   37.45    8.69
  -3  -2   1   39.43    9.20
   3  -2  -1   35.23    8.06
  -2  -3  -1   35.91    8.35
   2  -3   1   20.19    6.25
  -2  -3   2  218.75   45.17
   2   3   2  201.34   41.59
   3  -2   2  223.52   46.33
  -3  -2  -2  219.80   45.34
   3   2   2  220.65   45.45
  -3  -2   2  226.55   46.76
   3  -2  -2  217.64   44.71
  -2  -3  -2  207.87   42.81
  -2  -3   3   27.00    7.04
   2   3   3   23.54    6.59
   3  -2   3   17.86    5.82
  -3  -2  -3   26.37    6.70
   3   2   3   28.25    7.18
  -3  -2   3   27.11    7.61
  -2  -3  -3   28.08    6.98
   2  -3   3   28.05    8.15
  -2  -3   4  153.08   32.05
   2   3   4  153.65   32.14
   3  -2   4   79.24   17.12
  -3  -2  -4  162.36   33.67
   3   2   4  140.39   29.21
  -3  -2   4  175.22   36.62
  -2  -3  -4  141.95   29.55
   2  -3   4  139.08   29.41
  -2  -3   5   11.92    5.59
   2   3   5    9.68    4.77
   3  -2   5    7.01    4.91
  -3  -2  -5   13.23    5.03
   3   2   5   13.49    4.97
  -3  -2   5   11.07    6.93
  -2  -3  -5   12.69    5.34
   2  -3   5   13.66    7.10
  -2  -3   6   65.98   15.53
   2   3   6   56.95   13.60
   3  -2   6   62.77   14.31
  -3  -2  -6   90.65   19.90
   3   2   6   67.97   15.53
  -3  -2   6   74.41   17.57
  -2  -3  -6   88.29   19.16
   2  -3   6   92.72   20.55
  -3  -3   0  359.42   73.64
   3   3   0  370.77   75.94
   3  -3   0  385.82   79.09
   3   3   1  267.07   54.85
  -3  -3   1  280.98   57.77
   3  -3  -1  237.45   48.77
  -3  -3  -1  269.42   55.33
   3  -3   1  230.98   47.89
   3   3   2 3733.30  758.02
  -3  -3   2 4108.05  834.39
  -3  -3  -2 4499.83  913.59
   3  -3   2 3673.68  746.38
   3   3   3   85.11   18.40
  -3  -3   3   93.91   20.33
  -3  -3  -3   90.25   19.25
   3  -3   3   57.04   13.74
   3   3   4   62.29   14.00
  -3  -3   4   88.35   19.59
  -3  -3  -4   77.05   16.61
   3  -3   4   34.92   10.14
  -4   0   0 5555.95 1128.22
   4   0   0 6853.37 1391.40
   0  -4   0 4755.34  965.83
   4   0   1   15.64    5.34
  -4   0   1   12.61    5.08
  -4   0  -1   12.24    5.45
   4   0  -1   13.46    4.97
   0  -4  -1   12.95    4.46
   0  -4   1   11.21    4.37
   4   0   2  330.74   67.97
  -4   0   2  292.99   60.41
  -4   0  -2  269.05   55.47
   4   0  -2  367.37   75.43
   0  -4  -2  253.69   52.10
   0  -4   2  222.18   45.79
   4   0   3  831.83  169.46
  -4   0   3  834.67  170.34
  -4   0  -3  712.02  145.19
   0  -4  -3  792.37  161.28
   0  -4   3  575.18  117.31
   4   0   4 2841.85  577.17
  -4   0   4 2496.63  507.62
  -4   0  -4 2434.17  494.56
   0  -4  -4 2769.46  562.69
   0  -4   4 2055.44  417.62
   4   0   5  186.44   38.72
  -4   0   5  191.92   40.80
  -4   0  -5  181.67   37.96
   0  -4  -5  232.97   48.21
   0  -4   5  155.83   32.54
   4   1   0  244.41   50.53
  -4  -1   0  208.30   43.27
  -4   1   0  139.62   29.55
   4  -1   0  268.40   55.42
  -1  -4   0  181.04   37.39
   1  -4   0  139.74   29.10
   1  -4  -1   17.74    5.20
  -1  -4   1   24.39    6.44
  -4   1   1   16.78    6.61
   4  -1   1   33.64    9.00
   4   1  -1   28.99    7.86
  -4  -1  -1   28.62    7.38
   4   1   1   30.58    8.06
  -4  -1   1   26.52    7.41
  -4   1  -1   15.44    6.56
   4  -1  -1   32.85    8.49
  -1  -4  -1   24.76    6.47
   1  -4   1   18.71    5.45
   1  -4  -2  127.78   26.60
  -1  -4   2  135.05   28.22
  -4   1   2   90.56   19.93
   4  -1   2  164.89   34.49
   4   1  -2  190.19   39.72
  -4  -1  -2  140.70   29.44
   4   1   2  164.63   34.18
  -4  -1   2  166.34   34.81
  -4   1  -2   93.29   20.36
   4  -1  -2  192.97   40.14
  -1  -4  -2  137.12   28.50
   1  -4   2  116.94   24.70
   1  -4  -3   13.14    4.40
   1  -4  -3    6.98    4.32
  -1  -4   3   14.71    5.56
  -4   1   3   14.22    8.23
   4  -1   3   18.51    6.70
  -4  -1  -3   15.08    5.51
   4   1   3   20.41    6.67
  -4  -1   3   17.23    6.30
  -4   1  -3    7.38    6.19
  -1  -4  -3   14.39    5.08
   1  -4   3    7.38    6.08
   1  -4   3    8.46    3.97
  -1  -4   4  100.27   21.41
  -4   1   4   93.29   20.47
   4  -1   4  128.32   27.25
  -4  -1  -4  119.12   25.27
   4   1   4  120.69   25.47
  -4  -1   4  121.94   26.32
  -4   1  -4   57.40   13.60
  -1  -4  -4  119.24   25.24
   1  -4   4   82.98   18.82
  -1  -4   5    5.22    5.91
   4  -1   5    6.22    5.85
  -4  -1  -5   10.25    5.91
   4   1   5    8.09    5.22
  -4  -1   5    8.63    9.17
  -1  -4  -5   11.81    6.96
   1  -4   5    5.42    7.69
   4   2   0 4664.50  947.38
  -4  -2   0 4931.36 1001.32
   4  -2   0 4849.03  985.14
  -2  -4   0 3721.94  756.03
   2  -4   0 3304.61  671.14
   2  -4   0 3489.15  709.19
   2  -4  -1    5.20    4.00
   2  -4  -1    7.27    5.65
  -2  -4   1    7.95    4.77
   4  -2   1   10.05    6.30
   4   2  -1   11.92    5.45
  -4  -2  -1   16.35    5.68
   4   2   1    7.55    4.51
  -4  -2   1    8.06    4.26
   4  -2  -1   11.81    5.73
  -2  -4  -1    7.41    4.20
   2  -4   1    5.62    7.78
   2  -4   1    4.32    3.83
  -2  -4   2  226.33   46.76
   4  -2   2  273.00   56.72
  -4  -2  -2  223.37   46.16
   4   2   2  241.12   49.74
  -4  -2   2  252.90   52.29
   4  -2  -2  185.13   38.30
  -2  -4  -2  220.90   45.57
  -2  -4   3  544.52  111.18
   2   4   3  513.01  104.87
   4  -2   3  656.66  134.29
  -4  -2  -3  625.72  127.64
   4   2   3  578.59  118.05
  -4  -2   3  702.09  143.34
  -2  -4  -3  600.73  122.53
   2  -4   3  449.42   92.44
  -2  -4   4 1714.20  348.63
   2   4   4 1652.02  336.14
   4  -2   4 1771.26  360.27
  -4  -2  -4 2215.85  450.27
   4   2   4 1820.09  369.92
  -4  -2   4 2263.26  460.20
  -2  -4  -4 1927.97  391.78
   2  -4   4 1934.22  393.49
   4   3   0  107.46   22.94
  -4  -3   0  101.30   21.69
   4  -3   0  103.43   24.02
  -3  -4   0   93.01   19.79
   3  -4   0   63.91   15.08
   3  -4   0   67.40   17.43
   3  -4  -1    3.15    5.31
   3  -4  -1    3.24    6.25
  -3  -4   1    5.14    4.85
   4  -3   1    1.82    9.99
  -4  -3  -1    5.45    5.17
   4   3   1    7.55    4.83
  -4  -3   1    7.69    4.63
   4  -3  -1    1.70    6.76
  -3  -4  -1    5.42    4.71
   3  -4   1    5.91    9.06
  -5   0   0   89.85   20.87
   5   0   0  114.04   24.98
   0  -5   0   65.55   14.82
   5   0   1    7.86    8.18
  -5   0   1    7.07    8.63
  -5   0  -1    7.69    7.64
   5   0  -1    6.98    7.92
   0  -5  -1    4.29    5.34
   0  -5   1    4.20    5.34
   0   0   0    0.00    0.00


_computing_structure_solution     'SHELXT 2014/5 (Sheldrick, 2014)'
_computing_structure_solution     'SHELXT 2014/5 (Sheldrick, 2014)'
;
_shelx_hkl_checksum              57736
loop_
_space_group_symop_operation_xyz
'x, y, z'
'-x, -y, z'
'-y, x, z'
'y, -x, z'
'-x, y, -z'
'x, -y, -z'
'y, x, -z'
'-y, -x, -z'
'-x, -y, -z'
'x, y, -z'
'y, -x, -z'
'-y, x, -z'
'x, -y, z'
'-x, y, z'
'-y, -x, z'
'y, x, z'
loop_
_atom_site_label
_atom_site_type_symbol
_atom_site_fract_x
_atom_site_fract_y
_atom_site_fract_z
_atom_site_U_iso_or_equiv
_atom_site_adp_type
_atom_site_occupancy
_atom_site_site_symmetry_order
_atom_site_calc_flag
_atom_site_refinement_flags_posn
_atom_site_refinement_flags_adp
_atom_site_refinement_flags_occupancy
_atom_site_disorder_assembly
_atom_site_disorder_group
Pd1 Pd 0.5000 1.0000 0.7262(2) 0.0163(6) Uani 1 4 d S T P . .
Pd2 Pd 1.0000 1.0000 1.0000 0.0145(6) Uani 1 16 d S T P . .
Zn1 Zn 0.5000 0.5000 1.0000 0.0134(8) Uani 1 16 d S T P . .
Se1 Se 0.0000 1.0000 0.5000 0.0157(7) Uani 1 16 d S T P . .
loop_
_atom_site_aniso_label
_atom_site_aniso_U_11
_atom_site_aniso_U_22
_atom_site_aniso_U_33
_atom_site_aniso_U_23
_atom_site_aniso_U_13
_atom_site_aniso_U_12
Pd1 0.0109(7) 0.0119(7) 0.0262(11) 0.000 0.000 0.000
Pd2 0.0129(7) 0.0129(7) 0.0177(12) 0.000 0.000 0.000
Zn1 0.0118(8) 0.0118(8) 0.0167(18) 0.000 0.000 0.000
Se1 0.0121(7) 0.0121(7) 0.0228(13) 0.000 0.000 0.000
loop_
_atom_type_symbol
_atom_type_description
_atom_type_scat_dispersion_real
_atom_type_scat_dispersion_imag
_atom_type_scat_source
Pd Pd -0.7210 1.2590 'International Tables Vol C Tables 4.2.6.8 and 6.1.1.4'
Zn Zn 0.1910 1.7750 'International Tables Vol C Tables 4.2.6.8 and 6.1.1.4'
Se Se -0.6070 2.6830 'International Tables Vol C Tables 4.2.6.8 and 6.1.1.4'
loop_
_geom_angle_atom_site_label_1
_geom_angle_atom_site_label_2
_geom_angle_atom_site_label_3
_geom_angle
_geom_angle_site_symmetry_1
_geom_angle_site_symmetry_3
Se1 Pd1 Se1 103.06(5) . 1_655
Se1 Pd1 Zn1 115.546(9) . 1_565
Se1 Pd1 Zn1 115.546(9) 1_655 1_565
Se1 Pd1 Pd2 174.58(5) . .
Se1 Pd1 Pd2 82.353(15) 1_655 .
Zn1 Pd1 Pd2 61.28(3) 1_565 .
Se1 Pd1 Zn1 115.546(9) . .
Se1 Pd1 Zn1 115.546(9) 1_655 .
Zn1 Pd1 Zn1 92.23(5) 1_565 .
Pd2 Pd1 Zn1 61.28(3) . .
Se1 Pd1 Pd2 82.353(15) . 1_455
Se1 Pd1 Pd2 174.58(5) 1_655 1_455
Zn1 Pd1 Pd2 61.28(3) 1_565 1_455
Pd2 Pd1 Pd2 92.23(5) . 1_455
Zn1 Pd1 Pd2 61.28(3) . 1_455
Se1 Pd1 Pd1 56.383(14) . 3_655
Se1 Pd1 Pd1 123.616(14) 1_655 3_655
Zn1 Pd1 Pd1 120.640(13) 1_565 3_655
Pd2 Pd1 Pd1 120.640(13) . 3_655
Zn1 Pd1 Pd1 59.361(13) . 3_655
Pd2 Pd1 Pd1 59.361(13) 1_455 3_655
Se1 Pd1 Pd1 123.616(14) . 3_765
Se1 Pd1 Pd1 56.383(14) 1_655 3_765
Zn1 Pd1 Pd1 59.361(13) 1_565 3_765
Pd2 Pd1 Pd1 59.361(13) . 3_765
Zn1 Pd1 Pd1 120.640(13) . 3_765
Pd2 Pd1 Pd1 120.640(13) 1_455 3_765
Pd1 Pd1 Pd1 180.0 3_655 3_765
Se1 Pd1 Pd1 56.383(14) . 3_665
Se1 Pd1 Pd1 123.616(14) 1_655 3_665
Zn1 Pd1 Pd1 59.361(13) 1_565 3_665
Pd2 Pd1 Pd1 120.640(13) . 3_665
Zn1 Pd1 Pd1 120.640(13) . 3_665
Pd2 Pd1 Pd1 59.361(13) 1_455 3_665
Pd1 Pd1 Pd1 90.0 3_655 3_665
Pd1 Pd1 Pd1 90.0 3_765 3_665
Se1 Pd1 Pd1 123.616(14) . 3_755
Se1 Pd1 Pd1 56.383(14) 1_655 3_755
Zn1 Pd1 Pd1 120.640(13) 1_565 3_755
Pd2 Pd1 Pd1 59.361(13) . 3_755
Zn1 Pd1 Pd1 59.361(13) . 3_755
Pd2 Pd1 Pd1 120.640(13) 1_455 3_755
Pd1 Pd1 Pd1 90.0 3_655 3_755
Pd1 Pd1 Pd1 90.0 3_765 3_755
Pd1 Pd1 Pd1 180.0 3_665 3_755
Se1 Pd1 Pd1 51.53(3) . 9_676
Se1 Pd1 Pd1 51.53(3) 1_655 9_676
Zn1 Pd1 Pd1 133.89(2) 1_565 9_676
Pd2 Pd1 Pd1 133.89(2) . 9_676
Zn1 Pd1 Pd1 133.89(2) . 9_676
Pd2 Pd1 Pd1 133.89(2) 1_455 9_676
Pd1 Pd1 Pd1 90.0 3_655 9_676
Pd1 Pd1 Pd1 90.0 3_765 9_676
Pd1 Pd1 Pd1 90.0 3_665 9_676
Pd1 Pd1 Pd1 90.0 3_755 9_676
Pd1 Pd2 Pd1 118.72(3) . 11_577
Pd1 Pd2 Pd1 61.28(3) . 3_755
Pd1 Pd2 Pd1 180.0 11_577 3_755
Pd1 Pd2 Pd1 180.00(4) . 9_777
Pd1 Pd2 Pd1 61.28(3) 11_577 9_777
Pd1 Pd2 Pd1 118.72(3) 3_755 9_777
Pd1 Pd2 Pd1 118.72(3) . 11_567
Pd1 Pd2 Pd1 92.23(5) 11_577 11_567
Pd1 Pd2 Pd1 87.77(5) 3_755 11_567
Pd1 Pd2 Pd1 61.28(3) 9_777 11_567
Pd1 Pd2 Pd1 87.77(5) . 9_677
Pd1 Pd2 Pd1 61.28(3) 11_577 9_677
Pd1 Pd2 Pd1 118.72(3) 3_755 9_677
Pd1 Pd2 Pd1 92.23(5) 9_777 9_677
Pd1 Pd2 Pd1 61.28(3) 11_567 9_677
Pd1 Pd2 Pd1 92.23(5) . 1_655
Pd1 Pd2 Pd1 118.72(3) 11_577 1_655
Pd1 Pd2 Pd1 61.28(3) 3_755 1_655
Pd1 Pd2 Pd1 87.77(5) 9_777 1_655
Pd1 Pd2 Pd1 118.72(3) 11_567 1_655
Pd1 Pd2 Pd1 180.0 9_677 1_655
Pd1 Pd2 Pd1 61.28(3) . 3_765
Pd1 Pd2 Pd1 87.77(5) 11_577 3_765
Pd1 Pd2 Pd1 92.23(5) 3_755 3_765
Pd1 Pd2 Pd1 118.72(3) 9_777 3_765
Pd1 Pd2 Pd1 180.0 11_567 3_765
Pd1 Pd2 Pd1 118.72(3) 9_677 3_765
Pd1 Pd2 Pd1 61.28(3) 1_655 3_765
Pd1 Pd2 Zn1 120.639(13) . 1_665
Pd1 Pd2 Zn1 59.361(13) 11_577 1_665
Pd1 Pd2 Zn1 120.639(13) 3_755 1_665
Pd1 Pd2 Zn1 59.361(13) 9_777 1_665
Pd1 Pd2 Zn1 120.639(13) 11_567 1_665
Pd1 Pd2 Zn1 120.639(13) 9_677 1_665
Pd1 Pd2 Zn1 59.361(13) 1_655 1_665
Pd1 Pd2 Zn1 59.361(13) 3_765 1_665
Pd1 Pd2 Zn1 59.361(13) . .
Pd1 Pd2 Zn1 120.639(13) 11_577 .
Pd1 Pd2 Zn1 59.361(13) 3_755 .
Pd1 Pd2 Zn1 120.639(13) 9_777 .
Pd1 Pd2 Zn1 59.361(13) 11_567 .
Pd1 Pd2 Zn1 59.361(13) 9_677 .
Pd1 Pd2 Zn1 120.639(13) 1_655 .
Pd1 Pd2 Zn1 120.639(13) 3_765 .
Zn1 Pd2 Zn1 180.0 1_665 .
Pd1 Pd2 Zn1 120.639(13) . 1_655
Pd1 Pd2 Zn1 120.639(13) 11_577 1_655
Pd1 Pd2 Zn1 59.361(13) 3_755 1_655
Pd1 Pd2 Zn1 59.361(13) 9_777 1_655
Pd1 Pd2 Zn1 59.361(13) 11_567 1_655
Pd1 Pd2 Zn1 120.639(13) 9_677 1_655
Pd1 Pd2 Zn1 59.361(13) 1_655 1_655
Pd1 Pd2 Zn1 120.639(13) 3_765 1_655
Zn1 Pd2 Zn1 90.0 1_665 1_655
Zn1 Pd2 Zn1 90.0 . 1_655
Pd1 Pd2 Zn1 59.361(13) . 1_565
Pd1 Pd2 Zn1 59.361(13) 11_577 1_565
Pd1 Pd2 Zn1 120.639(13) 3_755 1_565
Pd1 Pd2 Zn1 120.639(13) 9_777 1_565
Pd1 Pd2 Zn1 120.639(13) 11_567 1_565
Pd1 Pd2 Zn1 59.361(13) 9_677 1_565
Pd1 Pd2 Zn1 120.639(13) 1_655 1_565
Pd1 Pd2 Zn1 59.361(13) 3_765 1_565
Zn1 Pd2 Zn1 90.0 1_665 1_565
Zn1 Pd2 Zn1 90.0 . 1_565
Zn1 Pd2 Zn1 180.0 1_655 1_565
Pd1 Zn1 Pd1 118.72(3) . 11_567
Pd1 Zn1 Pd1 61.28(3) . 3_655
Pd1 Zn1 Pd1 180.0 11_567 3_655
Pd1 Zn1 Pd1 92.23(5) . 1_545
Pd1 Zn1 Pd1 118.72(3) 11_567 1_545
Pd1 Zn1 Pd1 61.28(3) 3_655 1_545
Pd1 Zn1 Pd1 87.77(5) . 9_677
Pd1 Zn1 Pd1 61.28(3) 11_567 9_677
Pd1 Zn1 Pd1 118.72(3) 3_655 9_677
Pd1 Zn1 Pd1 180.0 1_545 9_677
Pd1 Zn1 Pd1 118.72(3) . 11_467
Pd1 Zn1 Pd1 92.23(5) 11_567 11_467
Pd1 Zn1 Pd1 87.77(5) 3_655 11_467
Pd1 Zn1 Pd1 118.72(3) 1_545 11_467
Pd1 Zn1 Pd1 61.28(3) 9_677 11_467
Pd1 Zn1 Pd1 180.0 . 9_667
Pd1 Zn1 Pd1 61.28(3) 11_567 9_667
Pd1 Zn1 Pd1 118.72(3) 3_655 9_667
Pd1 Zn1 Pd1 87.77(5) 1_545 9_667
Pd1 Zn1 Pd1 92.23(5) 9_677 9_667
Pd1 Zn1 Pd1 61.28(3) 11_467 9_667
Pd1 Zn1 Pd1 61.28(3) . 3_755
Pd1 Zn1 Pd1 87.77(5) 11_567 3_755
Pd1 Zn1 Pd1 92.23(5) 3_655 3_755
Pd1 Zn1 Pd1 61.28(3) 1_545 3_755
Pd1 Zn1 Pd1 118.72(3) 9_677 3_755
Pd1 Zn1 Pd1 180.0 11_467 3_755
Pd1 Zn1 Pd1 118.72(3) 9_667 3_755
Pd1 Zn1 Pd2 120.639(13) . 1_445
Pd1 Zn1 Pd2 120.639(13) 11_567 1_445
Pd1 Zn1 Pd2 59.361(13) 3_655 1_445
Pd1 Zn1 Pd2 59.361(13) 1_545 1_445
Pd1 Zn1 Pd2 120.639(13) 9_677 1_445
Pd1 Zn1 Pd2 59.361(13) 11_467 1_445
Pd1 Zn1 Pd2 59.361(13) 9_667 1_445
Pd1 Zn1 Pd2 120.639(13) 3_755 1_445
Pd1 Zn1 Pd2 59.361(13) . .
Pd1 Zn1 Pd2 59.361(13) 11_567 .
Pd1 Zn1 Pd2 120.639(13) 3_655 .
Pd1 Zn1 Pd2 120.639(13) 1_545 .
Pd1 Zn1 Pd2 59.361(13) 9_677 .
Pd1 Zn1 Pd2 120.639(13) 11_467 .
Pd1 Zn1 Pd2 120.639(13) 9_667 .
Pd1 Zn1 Pd2 59.361(13) 3_755 .
Pd2 Zn1 Pd2 180.0 1_445 .
Pd1 Zn1 Pd2 59.361(13) . 1_455
Pd1 Zn1 Pd2 120.639(13) 11_567 1_455
Pd1 Zn1 Pd2 59.361(13) 3_655 1_455
Pd1 Zn1 Pd2 120.639(13) 1_545 1_455
Pd1 Zn1 Pd2 59.361(13) 9_677 1_455
Pd1 Zn1 Pd2 59.361(13) 11_467 1_455
Pd1 Zn1 Pd2 120.639(13) 9_667 1_455
Pd1 Zn1 Pd2 120.639(13) 3_755 1_455
Pd2 Zn1 Pd2 90.0 1_445 1_455
Pd2 Zn1 Pd2 90.0 . 1_455
Pd1 Zn1 Pd2 120.639(13) . 1_545
Pd1 Zn1 Pd2 59.361(13) 11_567 1_545
Pd1 Zn1 Pd2 120.639(13) 3_655 1_545
Pd1 Zn1 Pd2 59.361(13) 1_545 1_545
Pd1 Zn1 Pd2 120.639(13) 9_677 1_545
Pd1 Zn1 Pd2 120.639(13) 11_467 1_545
Pd1 Zn1 Pd2 59.361(13) 9_667 1_545
Pd1 Zn1 Pd2 59.361(13) 3_755 1_545
Pd2 Zn1 Pd2 90.0 1_445 1_545
Pd2 Zn1 Pd2 90.0 . 1_545
Pd2 Zn1 Pd2 180.0 1_455 1_545
Pd1 Se1 Pd1 180.00(5) 11_466 3_665
Pd1 Se1 Pd1 67.23(3) 11_466 9_576
Pd1 Se1 Pd1 112.77(3) 3_665 9_576
Pd1 Se1 Pd1 103.06(5) 11_466 11_476
Pd1 Se1 Pd1 76.94(5) 3_665 11_476
Pd1 Se1 Pd1 67.23(3) 9_576 11_476
Pd1 Se1 Pd1 67.23(3) 11_466 9_676
Pd1 Se1 Pd1 112.77(3) 3_665 9_676
Pd1 Se1 Pd1 103.06(5) 9_576 9_676
Pd1 Se1 Pd1 67.23(3) 11_476 9_676
Pd1 Se1 Pd1 76.94(5) 11_466 3_655
Pd1 Se1 Pd1 103.06(5) 3_665 3_655
Pd1 Se1 Pd1 112.77(3) 9_576 3_655
Pd1 Se1 Pd1 180.0 11_476 3_655
Pd1 Se1 Pd1 112.77(3) 9_676 3_655
Pd1 Se1 Pd1 112.77(3) 11_466 1_455
Pd1 Se1 Pd1 67.23(3) 3_665 1_455
Pd1 Se1 Pd1 76.94(5) 9_576 1_455
Pd1 Se1 Pd1 112.77(3) 11_476 1_455
Pd1 Se1 Pd1 180.0 9_676 1_455
Pd1 Se1 Pd1 67.23(3) 3_655 1_455
Pd1 Se1 Pd1 112.77(3) 11_466 .
Pd1 Se1 Pd1 67.23(3) 3_665 .
Pd1 Se1 Pd1 180.0 9_576 .
Pd1 Se1 Pd1 112.77(3) 11_476 .
Pd1 Se1 Pd1 76.94(5) 9_676 .
Pd1 Se1 Pd1 67.23(3) 3_655 .
Pd1 Se1 Pd1 103.06(5) 1_455 .
loop_
_geom_bond_atom_site_label_1
_geom_bond_atom_site_label_2
_geom_bond_distance
_geom_bond_site_symmetry_2
Pd1 Se1 2.5136(9) .
Pd1 Se1 2.5136(9) 1_655
Pd1 Zn1 2.7306(10) 1_565
Pd1 Pd2 2.7306(10) .
Pd1 Zn1 2.7306(10) .
Pd1 Pd2 2.7306(10) 1_455
Pd1 Pd1 2.7832(4) 3_655
Pd1 Pd1 2.7832(4) 3_765
Pd1 Pd1 2.7832(4) 3_665
Pd1 Pd1 2.7832(4) 3_755
Pd1 Pd1 3.127(3) 9_676
Pd2 Pd1 2.7306(10) 11_577
Pd2 Pd1 2.7306(10) 3_755
Pd2 Pd1 2.7306(10) 9_777
Pd2 Pd1 2.7306(10) 11_567
Pd2 Pd1 2.7306(10) 9_677
Pd2 Pd1 2.7306(10) 1_655
Pd2 Pd1 2.7306(10) 3_765
Pd2 Zn1 2.7832(4) 1_665
Pd2 Zn1 2.7832(4) .
Pd2 Zn1 2.7832(4) 1_655
Pd2 Zn1 2.7832(4) 1_565
Zn1 Pd1 2.7306(10) 11_567
Zn1 Pd1 2.7306(10) 3_655
Zn1 Pd1 2.7306(10) 1_545
Zn1 Pd1 2.7306(10) 9_677
Zn1 Pd1 2.7306(10) 11_467
Zn1 Pd1 2.7306(10) 9_667
Zn1 Pd1 2.7306(10) 3_755
Zn1 Pd2 2.7832(4) 1_445
Zn1 Pd2 2.7832(4) 1_455
Zn1 Pd2 2.7832(4) 1_545
Se1 Pd1 2.5136(9) 11_466
Se1 Pd1 2.5136(9) 3_665
Se1 Pd1 2.5136(9) 9_576
Se1 Pd1 2.5136(9) 11_476
Se1 Pd1 2.5136(9) 9_676
Se1 Pd1 2.5136(9) 3_655
Se1 Pd1 2.5136(9) 1_455
