#------------------------------------------------------------------------------
#$Date: 2021-06-15 10:49:47 +0300 (Tue, 15 Jun 2021) $
#$Revision: 266468 $
#$URL: file:///home/coder/svn-repositories/cod/cif/1/56/34/1563440.cif $
#------------------------------------------------------------------------------
#
# This file is available in the Crystallography Open Database (COD),
# http://www.crystallography.net/
#
# All data on this site have been placed in the public domain by the
# contributors.
#
data_1563440
loop_
_publ_author_name
'Ishizawa, Nobuo'
'Wang, Jun'
'Sakakura, Terutoshi'
'Inagaki, Yumi'
'Kakimoto, Ken-ichi'
_publ_section_title
;
 Structural evolution of Na0.5K0.5NbO3 at high temperatures
;
_journal_issue                   11
_journal_name_full               'Journal of Solid State Chemistry'
_journal_page_first              2731
_journal_page_last               2738
_journal_paper_doi               10.1016/j.jssc.2010.09.018
_journal_volume                  183
_journal_year                    2010
_chemical_formula_sum            'K0.5 Na0.5 Nb O3'
_chemical_formula_weight         171.96
_space_group_IT_number           99
_space_group_name_Hall           'P 4 -2'
_space_group_name_H-M_alt        'P 4 m m'
_symmetry_cell_setting           tetragonal
_symmetry_space_group_name_H-M   'P 4 m m'
_atom_sites_solution_hydrogens   geom
_atom_sites_solution_primary     direct
_atom_sites_solution_secondary   difmap
_audit_creation_method           SHELXL-97
_cell_angle_alpha                90.00
_cell_angle_beta                 90.00
_cell_angle_gamma                90.00
_cell_formula_units_Z            1
_cell_length_a                   3.9821(2)
_cell_length_b                   3.9821(2)
_cell_length_c                   4.0149(2)
_cell_measurement_temperature    579
_cell_volume                     63.665(6)
_computing_structure_refinement  'SHELXL-97 (Sheldrick, 2008)'
_diffrn_ambient_temperature      579
_diffrn_measured_fraction_theta_full 0.967
_diffrn_measured_fraction_theta_max 0.967
_diffrn_radiation_monochromator  graphite
_diffrn_radiation_source         'fine-focus sealed tube'
_diffrn_radiation_type           MoK\a
_diffrn_radiation_wavelength     0.71073
_diffrn_reflns_av_R_equivalents  0.0240
_diffrn_reflns_av_sigmaI/netI    0.0158
_diffrn_reflns_limit_h_max       6
_diffrn_reflns_limit_h_min       -6
_diffrn_reflns_limit_k_max       7
_diffrn_reflns_limit_k_min       -7
_diffrn_reflns_limit_l_max       7
_diffrn_reflns_limit_l_min       -5
_diffrn_reflns_number            628
_diffrn_reflns_theta_full        40.06
_diffrn_reflns_theta_max         40.06
_diffrn_reflns_theta_min         5.08
_exptl_absorpt_coefficient_mu    5.357
_exptl_crystal_density_diffrn    4.485
_exptl_crystal_density_method    'not measured'
_exptl_crystal_F_000             80
_refine_diff_density_max         1.412
_refine_diff_density_min         -0.866
_refine_diff_density_rms         0.194
_refine_ls_abs_structure_details 'Flack H D (1983), Acta Cryst. A39, 876-881'
_refine_ls_abs_structure_Flack   0.5(3)
_refine_ls_extinction_method     none
_refine_ls_goodness_of_fit_ref   1.213
_refine_ls_hydrogen_treatment    mixed
_refine_ls_matrix_type           full
_refine_ls_number_parameters     15
_refine_ls_number_reflns         226
_refine_ls_number_restraints     0
_refine_ls_restrained_S_all      1.213
_refine_ls_R_factor_all          0.0171
_refine_ls_R_factor_gt           0.0171
_refine_ls_shift/su_max          0.000
_refine_ls_shift/su_mean         0.000
_refine_ls_structure_factor_coef Fsqd
_refine_ls_weighting_details
'calc w=1/[\s^2^(Fo^2^)+(0.0276P)^2^+0.0434P] where P=(Fo^2^+2Fc^2^)/3'
_refine_ls_weighting_scheme      calc
_refine_ls_wR_factor_gt          0.0484
_refine_ls_wR_factor_ref         0.0484
_reflns_number_gt                226
_reflns_number_total             226
_reflns_threshold_expression     >2\s(I)
_cod_data_source_file            100912_NKN_all.cif
_cod_data_source_block           d1_579K
_cod_original_formula_sum        'K0.50 Na0.50 Nb O3'
_cod_database_code               1563440
loop_
_symmetry_equiv_pos_as_xyz
'x, y, z'
'-x, y, z'
'-x, -y, z'
'x, -y, z'
'-y, -x, z'
'y, -x, z'
'-y, x, z'
'y, x, z'
loop_
_atom_site_label
_atom_site_type_symbol
_atom_site_fract_x
_atom_site_fract_y
_atom_site_fract_z
_atom_site_U_iso_or_equiv
_atom_site_adp_type
_atom_site_occupancy
_atom_site_symmetry_multiplicity
_atom_site_calc_flag
_atom_site_refinement_flags
_atom_site_disorder_assembly
_atom_site_disorder_group
O1 O 0.5000 0.5000 -0.029(2) 0.0210(13) Uani 1 8 d S . .
O2 O 0.5000 0.0000 0.4723(16) 0.0206(9) Uani 1 4 d S . .
Nb1 Nb 0.5000 0.5000 0.5000 0.01228(7) Uani 1 8 d S . .
K1 K 0.0000 0.0000 -0.0160(14) 0.0130(3) Uiso 0.50 8 d SP . .
Na1 Na 0.0000 0.0000 0.003(10) 0.044(2) Uiso 0.50 8 d SP . .
loop_
_atom_site_aniso_label
_atom_site_aniso_U_11
_atom_site_aniso_U_22
_atom_site_aniso_U_33
_atom_site_aniso_U_23
_atom_site_aniso_U_13
_atom_site_aniso_U_12
O1 0.0259(13) 0.0259(13) 0.011(3) 0.000 0.000 0.000
O2 0.0261(17) 0.0134(7) 0.022(3) 0.000 0.000 0.000
Nb1 0.01259(8) 0.01259(8) 0.01165(19) 0.000 0.000 0.000
loop_
_atom_type_symbol
_atom_type_description
_atom_type_scat_dispersion_real
_atom_type_scat_dispersion_imag
_atom_type_scat_source
O O 0.0106 0.0060 'International Tables Vol C Tables 4.2.6.8 and 6.1.1.4'
Na Na 0.0362 0.0249 'International Tables Vol C Tables 4.2.6.8 and 6.1.1.4'
K K 0.2009 0.2494 'International Tables Vol C Tables 4.2.6.8 and 6.1.1.4'
Nb Nb -2.0727 0.6215 'International Tables Vol C Tables 4.2.6.8 and 6.1.1.4'
loop_
_geom_angle_atom_site_label_1
_geom_angle_atom_site_label_2
_geom_angle_atom_site_label_3
_geom_angle
_geom_angle_site_symmetry_1
_geom_angle_site_symmetry_3
O1 Nb1 O2 93.20(19) 1_556 5_565
O1 Nb1 O2 93.20(19) 1_556 .
O2 Nb1 O2 89.82(2) 5_565 .
O1 Nb1 O2 93.20(19) 1_556 5_665
O2 Nb1 O2 173.6(4) 5_565 5_665
O2 Nb1 O2 89.82(2) . 5_665
O1 Nb1 O2 93.20(19) 1_556 1_565
O2 Nb1 O2 89.82(2) 5_565 1_565
O2 Nb1 O2 173.6(4) . 1_565
O2 Nb1 O2 89.82(2) 5_665 1_565
O1 Nb1 O1 180.000(3) 1_556 .
O2 Nb1 O1 86.80(19) 5_565 .
O2 Nb1 O1 86.80(19) . .
O2 Nb1 O1 86.80(19) 5_665 .
O2 Nb1 O1 86.80(19) 1_565 .
loop_
_geom_bond_atom_site_label_1
_geom_bond_atom_site_label_2
_geom_bond_site_symmetry_1
_geom_bond_site_symmetry_2
_geom_bond_distance
O1 Nb1 '1 556' . 1.891(8)
O1 Nb1 '1 556' '1 556' 2.124(8)
O1 K1 '1 556' '1 666' 2.8163(2)
O1 K1 '1 556' '1 656' 2.8163(2)
O1 K1 '1 556' '1 566' 2.8163(2)
O1 K1 '1 556' '1 556' 2.8163(2)
O1 Na1 '1 556' '1 666' 2.8187(19)
O1 Na1 '1 556' '1 656' 2.8187(19)
O1 Na1 '1 556' '1 566' 2.8187(19)
O1 Na1 '1 556' '1 556' 2.8187(19)
O1 O2 '1 556' '5 665' 2.824(7)
O1 O2 '1 556' '5 565' 2.824(7)
O1 O2 '1 556' '1 565' 2.824(7)
O1 O2 '1 556' . 2.824(7)
O1 O2 '1 556' '5 666' 2.831(7)
O1 O2 '1 556' '5 566' 2.831(7)
O1 O2 '1 556' '1 566' 2.831(7)
O1 O2 '1 556' '1 556' 2.831(7)
O2 Nb1 . '1 545' 1.9942(4)
O2 Nb1 . . 1.9942(4)
O2 Na1 . '1 655' 2.74(3)
O2 Na1 . . 2.74(3)
O2 K1 . '1 655' 2.794(6)
O2 K1 . . 2.794(6)
O2 O2 . '5 665' 2.81577(10)
O2 O2 . '5 655' 2.81577(10)
O2 O2 . '5 565' 2.81577(10)
O2 O2 . 5 2.81577(10)
O2 K1 . '1 656' 2.861(6)
O2 K1 . '1 556' 2.861(6)
O2 Na1 . '1 656' 2.92(3)
O2 Na1 . '1 556' 2.92(3)
Nb1 K1 . '1 666' 3.421(3)
Nb1 K1 . '1 656' 3.421(3)
Nb1 K1 . '1 566' 3.421(3)
Nb1 K1 . '1 556' 3.421(3)
Nb1 K1 . '1 665' 3.496(3)
Nb1 K1 . '1 655' 3.496(3)
Nb1 K1 . '1 565' 3.496(3)
Nb1 K1 . . 3.496(3)
K1 K1 '1 556' '1 656' 3.9821(2)
K1 K1 '1 556' '1 566' 3.9821(2)
K1 K1 '1 556' '1 546' 3.9821(2)
K1 K1 '1 556' '1 456' 3.9821(2)
K1 K1 '1 556' '1 557' 4.015(8)
K1 K1 '1 556' . 4.015(8)
