#------------------------------------------------------------------------------
#$Date: 2021-06-15 11:12:38 +0300 (Tue, 15 Jun 2021) $
#$Revision: 266469 $
#$URL: file:///home/coder/svn-repositories/cod/cif/1/56/34/1563485.cif $
#------------------------------------------------------------------------------
#
# This file is available in the Crystallography Open Database (COD),
# http://www.crystallography.net/
#
# All data on this site have been placed in the public domain by the
# contributors.
#
data_1563485
loop_
_publ_author_name
'Souilah, M.'
'Lafond, A.'
'Guillot-Deudon, C.'
'Harel, S.'
'Evain, M.'
_publ_section_title
;
 Structural investigation of the Cu2Se--In2Se3--Ga2Se3 phase diagram,
 X-ray photoemission and optical properties of the
 Cu1&#x2212;z(In0.5Ga0.5)1+z/3Se2 compounds
;
_journal_issue                   10
_journal_name_full               'Journal of Solid State Chemistry'
_journal_page_first              2274
_journal_page_last               2280
_journal_paper_doi               10.1016/j.jssc.2010.08.014
_journal_volume                  183
_journal_year                    2010
_chemical_formula_moiety         'Cu1 Ga1 Se2'
_chemical_formula_sum            'Cu Ga Se2'
_chemical_formula_weight         291.2
_space_group_IT_number           122
_space_group_name_Hall           'I -4 2bw'
_space_group_name_H-M_alt        'I -4 2 d'
_symmetry_cell_setting           tetragonal
_symmetry_space_group_name_Hall  'I -4 2bw'
_symmetry_space_group_name_H-M   'I -4 2 d'
_cell_angle_alpha                90
_cell_angle_beta                 90
_cell_angle_gamma                90
_cell_formula_units_Z            4
_cell_length_a                   5.61910(10)
_cell_length_b                   5.61910(10)
_cell_length_c                   11.0260(2)
_cell_measurement_reflns_used    12095
_cell_measurement_temperature    293
_cell_measurement_theta_max      34.7
_cell_measurement_theta_min      6.63
_cell_volume                     348.138(11)
_computing_cell_refinement       unknown
_computing_data_collection       unknown
_computing_data_reduction        unknown
_computing_molecular_graphics    unknown
_computing_structure_solution    unknown
_diffrn_ambient_temperature      293
_diffrn_measured_fraction_theta_full 0.99
_diffrn_measured_fraction_theta_max 0.99
_diffrn_measurement_device       'four-cycle diffractometer'
_diffrn_measurement_device_type  'Nonius CCD'
_diffrn_measurement_method       omega
_diffrn_radiation_monochromator  unknown
_diffrn_radiation_source         'X-ray tube'
_diffrn_radiation_type           'Mo K\a'
_diffrn_radiation_wavelength     0.71069
_diffrn_reflns_av_R_equivalents  0.0704
_diffrn_reflns_av_sigmaI/netI    0.011
_diffrn_reflns_limit_h_max       8
_diffrn_reflns_limit_h_min       -8
_diffrn_reflns_limit_k_max       8
_diffrn_reflns_limit_k_min       -8
_diffrn_reflns_limit_l_max       17
_diffrn_reflns_limit_l_min       -17
_diffrn_reflns_number            12095
_diffrn_reflns_theta_full        34.7
_diffrn_reflns_theta_max         34.7
_diffrn_reflns_theta_min         6.63
_exptl_absorpt_coefficient_mu    34.641
_exptl_absorpt_correction_T_max  0.2237
_exptl_absorpt_correction_T_min  0.1009
_exptl_absorpt_correction_type   gaussian
_exptl_absorpt_process_details
'Jana2006  (Petricek, Dusek & Palatinus, 2000)'
_exptl_crystal_colour            black
_exptl_crystal_density_diffrn    5.5538
_exptl_crystal_description       block
_exptl_crystal_F_000             512
_exptl_crystal_size_max          0.088
_exptl_crystal_size_mid          0.064
_exptl_crystal_size_min          0.04
_refine_diff_density_max         1.64
_refine_diff_density_min         -1.15
_refine_ls_extinction_coef       5400(400)
_refine_ls_extinction_method
'B-C type 1 Gaussian isotropic (Becker & Coppens, 1974)'
_refine_ls_goodness_of_fit_gt    1.83
_refine_ls_goodness_of_fit_ref   1.70
_refine_ls_number_constraints    0
_refine_ls_number_parameters     11
_refine_ls_number_reflns         376
_refine_ls_number_restraints     0
_refine_ls_R_factor_all          0.0738
_refine_ls_R_factor_gt           0.0430
_refine_ls_shift/su_max          0.0357
_refine_ls_shift/su_mean         0.0090
_refine_ls_structure_factor_coef Fsqd
_refine_ls_weighting_details     w=1/(\s^2^(I)+0.0016I^2^)
_refine_ls_weighting_scheme      sigma
_refine_ls_wR_factor_gt          0.1121
_refine_ls_wR_factor_ref         0.1311
_reflns_number_gt                242
_reflns_number_total             376
_reflns_threshold_expression     I>2\s(I)
_cod_data_source_file            JSSC-2010_183-2274.cif
_cod_data_source_block           5
_cod_depositor_comments
;
The following automatic conversions were performed:

data item '_exptl_absorpt_correction_type' value 'Gaussian' was
changed to 'gaussian' in accordance with the built-in table derived
from the CIF Core dictionary named 'cif_core.dic' version 2.4.5 last
updated on 2014-11-21.

Automatic conversion script
Id: cif_fix_values 8369 2020-08-20 11:38:08Z andrius 
;
_cod_original_formula_sum        'Cu1 Ga1 Se2'
_cod_database_code               1563485
loop_
_symmetry_equiv_pos_site_id
_symmetry_equiv_pos_as_xyz
1 x,y,z
2 -x,-y,z
3 y,-x,-z
4 -y,x,-z
5 -x,y+1/2,-z+1/4
6 x,-y+1/2,-z+1/4
7 -y,-x+1/2,z+1/4
8 y,x+1/2,z+1/4
9 x+1/2,y+1/2,z+1/2
10 -x+1/2,-y+1/2,z+1/2
11 y+1/2,-x+1/2,-z+1/2
12 -y+1/2,x+1/2,-z+1/2
13 -x+1/2,y,-z+3/4
14 x+1/2,-y,-z+3/4
15 -y+1/2,-x,z+3/4
16 y+1/2,x,z+3/4
loop_
_atom_site_label
_atom_site_type_symbol
_atom_site_fract_x
_atom_site_fract_y
_atom_site_fract_z
_atom_site_adp_type
_atom_site_U_iso_or_equiv
_atom_site_symmetry_multiplicity
_atom_site_occupancy
_atom_site_calc_flag
_atom_site_refinement_flags
_atom_site_disorder_assembly
_atom_site_disorder_group
Cu Cu 0 0 0 Uani 0.0216(3) 4 1 d . . .
Ga Ga 0 0 0.5 Uani 0.0122(3) 4 1 d . . .
Se Se 0.25062(13) 0.25 0.125 Uani 0.0119(4) 8 1 d . . .
loop_
_atom_site_aniso_label
_atom_site_aniso_type_symbol
_atom_site_aniso_U_11
_atom_site_aniso_U_22
_atom_site_aniso_U_33
_atom_site_aniso_U_12
_atom_site_aniso_U_13
_atom_site_aniso_U_23
Cu Cu 0.0218(5) 0.0218(5) 0.0212(7) 0 0 0
Ga Ga 0.0121(5) 0.0121(5) 0.0124(6) 0 0 0
Se Se 0.0132(8) 0.0103(7) 0.0123(5) 0 0 0.0012(3)
loop_
_atom_type_symbol
_atom_type_scat_dispersion_real
_atom_type_scat_dispersion_imag
_atom_type_scat_source
Cu 0.320 1.265 'International Tables Vol C tables 4.2.6.8 and 6.1.1.1'
Ga 0.231 1.608 'International Tables Vol C tables 4.2.6.8 and 6.1.1.1'
Se -0.093 2.226 'International Tables Vol C tables 4.2.6.8 and 6.1.1.1'
loop_
_geom_angle_atom_site_label_1
_geom_angle_atom_site_label_2
_geom_angle_atom_site_label_3
_geom_angle_site_symmetry_1
_geom_angle_site_symmetry_2
_geom_angle_site_symmetry_3
_geom_angle
_geom_angle_publ_flag
Se Cu Se . . 2_555 110.564(10) yes
Se Cu Se . . 3_555 108.928(16) yes
Se Cu Se . . 4_555 108.928(16) yes
Se Cu Se 2_555 . 3_555 108.928(16) yes
Se Cu Se 2_555 . 4_555 108.928(16) yes
Se Cu Se 3_555 . 4_555 110.564(10) yes
Se Ga Se 9_445 . 10_555 110.431(10) yes
Se Ga Se 9_445 . 11_455 108.993(16) yes
Se Ga Se 9_445 . 12_545 108.993(16) yes
Se Ga Se 10_555 . 11_455 108.993(16) yes
Se Ga Se 10_555 . 12_545 108.993(16) yes
Se Ga Se 11_455 . 12_545 110.431(10) yes
loop_
_geom_bond_atom_site_label_1
_geom_bond_atom_site_label_2
_geom_bond_site_symmetry_1
_geom_bond_site_symmetry_2
_geom_bond_distance
_geom_bond_publ_flag
Cu Se . . 2.4199(4) yes
Cu Se . 2_555 2.4199(4) yes
Cu Se . 3_555 2.4199(4) yes
Cu Se . 4_555 2.4199(4) yes
Ga Se . 9_445 2.4159(4) yes
Ga Se . 10_555 2.4159(4) yes
Ga Se . 11_455 2.4159(4) yes
Ga Se . 12_545 2.4159(4) yes
loop_
_refln_index_h
_refln_index_k
_refln_index_l
_refln_F_squared_calc
_refln_F_squared_meas
_refln_F_squared_sigma
_refln_observed_status
0 2 0 505.37 739.22 8.73 o
2 2 0 13703.55 15489.35 23.45 o
1 3 0 1.60 35.35 6.37 o
0 4 0 23692.68 24039.52 50.64 o
2 4 0 644.74 701.95 12.39 o
4 4 0 24173.55 23391.94 86.64 o
1 5 0 7.13 10.00 14.63 <
3 5 0 2.35 8.11 25.21 <
0 6 0 676.95 649.71 29.86 o
2 6 0 20726.18 19166.85 68.90 o
4 6 0 536.47 589.12 38.14 o
6 6 0 8500.82 9148.66 89.22 o
1 7 0 12.09 -10.43 35.35 <
3 7 0 6.47 14.78 58.97 <
5 7 0 1.43 22.46 18.26 <
0 8 0 10797.16 10317.76 94.89 o
2 8 0 390.44 382.04 25.45 o
4 8 0 6827.23 6992.99 72.02 o
-1 2 1 30.58 101.07 5.21 o
1 2 1 28.40 33.45 5.21 o
-2 3 1 75.53 80.63 6.37 o
0 3 1 37.39 45.90 5.50 o
2 3 1 76.58 111.46 8.54 o
-3 4 1 74.00 52.13 12.74 o
-1 4 1 78.54 61.24 8.40 o
1 4 1 80.00 66.16 9.55 o
3 4 1 73.25 103.39 13.32 o
-4 5 1 91.68 138.87 31.42 o
-2 5 1 68.43 42.00 16.36 o
0 5 1 101.20 71.52 13.75 o
2 5 1 68.15 38.52 18.25 o
4 5 1 91.90 108.60 30.99 o
-5 6 1 53.18 4.20 37.66 <
-3 6 1 83.27 92.10 32.58 o
-1 6 1 79.62 131.20 22.59 o
1 6 1 79.17 92.68 22.01 o
3 6 1 83.51 134.39 35.05 o
5 6 1 53.15 -56.78 61.27 <
-4 7 1 47.77 62.87 15.06 o
-2 7 1 81.13 69.66 43.01 <
0 7 1 57.35 99.36 29.69 o
2 7 1 81.16 114.84 42.00 o
4 7 1 47.77 201.92 78.22 o
-3 8 1 47.95 29.26 23.03 <
-1 8 1 60.01 53.01 19.26 o
1 8 1 60.01 -38.53 22.74 <
3 8 1 48.02 57.51 22.74 o
0 2 2 0.55 0.29 5.07 <
-3 3 2 19421.04 19782.28 46.54 o
-1 3 2 18302.80 17728.84 27.16 o
1 3 2 18137.17 19039.57 31.73 o
3 3 2 20211.39 17997.67 51.42 o
-2 4 2 2.17 19.12 8.69 o
0 4 2 4.58 -9.27 9.13 <
2 4 2 2.17 16.08 12.46 <
-5 5 2 8443.26 8982.19 113.25 o
-3 5 2 14404.20 13216.42 50.77 o
-1 5 2 16983.11 17128.98 49.42 o
1 5 2 17645.48 15593.99 47.54 o
3 5 2 13775.23 13510.43 56.68 o
5 5 2 8886.86 8271.64 113.47 o
-4 6 2 1.90 10.14 61.14 <
-2 6 2 7.30 1.16 24.48 <
0 6 2 10.65 -2.90 26.37 <
2 6 2 7.30 -19.70 28.11 <
4 6 2 1.90 9.85 34.77 <
-5 7 2 4364.10 4325.72 40.12 o
-3 7 2 6597.29 6683.97 74.97 o
-1 7 2 8920.79 8303.99 75.64 o
1 7 2 8454.03 8512.33 58.62 o
3 7 2 6993.77 6433.83 56.10 o
5 7 2 4070.19 4514.12 51.80 o
-4 8 2 4.67 -1.16 27.53 <
-2 8 2 10.36 71.43 24.05 o
0 8 2 13.31 29.55 18.11 <
2 8 2 10.36 3.62 17.53 <
4 8 2 4.67 -43.18 40.42 <
0 1 3 18.69 42.00 7.10 o
-1 2 3 47.73 79.91 6.08 o
1 2 3 47.09 69.64 5.65 o
-2 3 3 46.29 70.09 8.25 o
0 3 3 81.27 99.58 7.24 o
2 3 3 46.60 42.72 7.96 o
-3 4 3 104.62 104.53 13.75 o
-1 4 3 68.69 68.63 9.27 o
1 4 3 69.11 77.61 10.28 o
3 4 3 104.40 65.29 14.77 o
-4 5 3 53.31 5.21 34.18 <
-2 5 3 116.87 119.29 17.37 o
0 5 3 52.42 28.68 14.19 o
2 5 3 116.78 100.47 19.54 o
4 5 3 53.38 -12.89 40.84 <
-5 6 3 74.92 66.19 16.51 o
-3 6 3 59.52 108.05 42.00 o
-1 6 3 84.23 97.31 25.63 o
1 6 3 84.11 44.46 27.66 <
3 6 3 59.58 39.69 33.75 <
5 6 3 74.91 -4.78 47.65 <
-4 7 3 76.51 74.88 17.67 o
-2 7 3 42.11 84.45 38.10 o
0 7 3 99.51 61.69 47.50 <
2 7 3 42.12 62.00 52.73 <
4 7 3 76.51 -6.37 103.12 <
-3 8 3 56.80 1.01 25.20 <
-1 8 3 52.46 40.99 19.99 o
1 8 3 52.45 15.64 17.09 <
3 8 3 56.82 87.05 26.07 o
0 0 4 483.96 593.45 30.50 o
-2 2 4 509.13 566.49 14.97 o
0 2 4 13532.61 16473.96 22.05 o
2 2 4 509.00 539.57 12.09 o
-1 3 4 1.30 7.82 8.84 <
1 3 4 1.30 19.56 9.13 o
-4 4 4 665.99 629.34 31.60 o
-2 4 4 26355.46 26336.43 54.01 o
0 4 4 635.98 644.03 12.10 o
2 4 4 26355.49 25968.02 50.98 o
4 4 4 665.67 650.19 35.06 o
-3 5 4 2.02 14.78 23.47 <
-1 5 4 6.10 -56.21 17.10 <
1 5 4 6.10 10.14 18.40 <
3 5 4 2.02 -20.57 22.17 <
-6 6 4 321.78 240.72 25.46 o
-4 6 4 13379.63 13697.45 93.84 o
-2 6 4 607.21 550.61 40.71 o
0 6 4 20341.57 20088.14 76.04 o
2 6 4 607.11 538.63 25.55 o
4 6 4 13329.01 13273.09 86.02 o
6 6 4 321.60 350.93 35.15 o
-5 7 4 1.27 3.04 21.59 <
-3 7 4 5.69 16.23 19.70 <
-1 7 4 10.58 -61.14 54.18 <
1 7 4 10.58 56.65 51.72 <
3 7 4 5.69 71.14 42.74 <
5 7 4 1.27 60.71 33.03 <
-2 8 4 8466.71 8596.57 64.30 o
0 8 4 386.53 354.27 23.14 o
2 8 4 8428.52 8603.95 68.30 o
0 1 5 38.37 56.32 9.70 o
-1 2 5 55.07 73.55 9.99 o
1 2 5 57.12 73.40 8.11 o
-2 3 5 76.14 91.21 12.45 o
0 3 5 66.81 92.23 9.70 o
2 3 5 75.12 88.03 9.99 o
-3 4 5 84.38 82.68 17.38 o
-1 4 5 83.94 67.47 13.75 o
1 4 5 82.48 71.67 13.18 o
3 4 5 85.17 91.80 16.51 o
-4 5 5 72.80 153.52 42.14 o
-2 5 5 80.24 89.64 23.75 o
0 5 5 81.51 102.23 19.98 o
2 5 5 80.54 22.88 25.63 <
4 5 5 72.56 87.62 40.26 o
-5 6 5 57.05 69.67 17.09 o
-3 6 5 70.64 66.91 42.15 <
-1 6 5 78.87 63.43 36.93 <
1 6 5 79.36 86.89 26.21 o
3 6 5 70.39 115.43 36.21 o
5 6 5 57.03 164.98 67.79 o
-4 7 5 52.13 28.39 18.54 <
-2 7 5 61.99 21.73 47.51 <
0 7 5 63.53 175.25 57.79 o
2 7 5 61.96 19.55 13.47 <
4 7 5 52.09 -9.13 20.71 <
-3 8 5 49.23 81.12 25.35 o
-1 8 5 54.47 96.18 23.75 o
1 8 5 54.55 32.01 18.54 <
3 8 5 49.05 35.34 35.34 <
-1 1 6 17464.50 16259.21 62.82 o
1 1 6 17963.60 18590.61 58.25 o
0 2 6 0.34 -0.43 10.29 <
-3 3 6 17485.46 16090.83 77.55 o
-1 3 6 19116.52 19466.41 46.25 o
1 3 6 19658.59 18159.29 42.81 o
3 3 6 16702.45 17028.26 63.66 o
-2 4 6 1.58 -10.14 18.69 <
0 4 6 3.27 -37.38 13.76 <
2 4 6 1.58 54.33 17.82 o
-5 5 6 6919.65 6934.91 97.97 o
-3 5 6 10679.75 10989.61 64.60 o
-1 5 6 14103.69 13476.80 60.72 o
1 5 6 13555.21 13740.92 62.26 o
3 5 6 11222.30 10150.63 68.39 o
5 5 6 6513.27 7086.91 116.15 o
-4 6 6 1.46 -8.11 58.24 <
-2 6 6 5.52 153.43 47.96 o
0 6 6 8.00 18.83 32.60 <
2 6 6 5.52 -22.31 35.35 <
4 6 6 1.46 42.60 59.26 <
-3 7 6 5445.88 5441.77 40.03 o
-1 7 6 6494.42 6985.55 82.27 o
1 7 6 6872.11 6482.63 63.35 o
3 7 6 5096.16 5549.08 40.19 o
-2 8 6 8.16 46.51 27.82 <
0 8 6 10.43 -0.87 23.47 <
2 8 6 8.16 -40.13 22.60 <
0 1 7 70.84 81.79 14.33 o
-1 2 7 58.64 65.45 12.74 o
1 2 7 58.41 48.65 11.44 o
-2 3 7 112.11 102.78 15.34 o
0 3 7 46.67 72.27 14.05 o
2 3 7 112.22 70.93 14.91 o
-3 4 7 55.00 65.47 24.62 o
-1 4 7 89.38 82.82 19.98 o
1 4 7 89.56 62.98 16.65 o
3 4 7 54.90 57.35 23.75 o
-4 5 7 96.07 46.34 46.48 <
-2 5 7 42.18 48.38 27.38 <
0 5 7 122.58 144.48 24.47 o
2 5 7 42.15 26.07 29.11 <
4 5 7 96.09 101.08 40.55 o
-5 6 7 33.15 20.43 19.99 <
-3 6 7 77.98 56.48 44.17 <
-1 6 7 62.45 106.16 40.84 o
1 6 7 62.38 -3.19 32.73 <
3 6 7 78.00 101.09 31.57 o
5 6 7 33.16 -24.05 24.05 <
-4 7 7 26.42 90.11 20.72 o
-2 7 7 89.55 48.51 18.10 o
0 7 7 29.99 -23.76 54.61 <
2 7 7 89.54 106.15 16.36 o
4 7 7 26.43 13.91 22.02 <
-1 8 7 50.25 85.17 23.76 o
1 8 7 50.21 63.44 21.44 o
0 0 8 23109.65 23164.94 125.46 o
-2 2 8 25178.04 24720.71 92.50 o
0 2 8 608.47 645.60 19.73 o
2 2 8 25897.26 25995.63 78.01 o
-1 3 8 0.78 9.71 17.68 <
1 3 8 0.78 30.28 15.79 <
-4 4 8 16433.48 16309.99 118.25 o
-2 4 8 640.57 626.16 22.80 o
0 4 8 23841.90 23500.21 69.83 o
2 4 8 640.40 626.73 23.81 o
4 4 8 16433.63 16816.77 115.90 o
-3 5 8 1.33 -52.45 42.02 <
-1 5 8 3.92 75.19 36.37 o
1 5 8 3.92 -83.45 31.00 <
3 5 8 1.33 20.43 33.18 <
-4 6 8 370.24 373.85 21.40 o
-2 6 8 13062.80 13411.01 104.49 o
0 6 8 512.17 504.36 35.83 o
2 6 8 13111.51 13480.08 63.48 o
4 6 8 370.00 376.15 22.13 o
-3 7 8 3.94 46.51 21.88 o
-1 7 8 7.20 -23.47 17.10 <
1 7 8 7.20 6.37 21.30 <
3 7 8 3.94 8.69 20.86 <
0 8 8 6659.20 6849.23 72.36 o
0 1 9 69.59 88.90 19.40 o
-1 2 9 81.44 56.61 19.11 o
1 2 9 80.56 57.77 17.09 o
-2 3 9 69.62 99.92 25.20 o
0 3 9 86.38 94.84 19.26 o
2 3 9 70.11 71.25 20.42 o
-3 4 9 79.42 84.00 35.77 o
-1 4 9 76.67 47.21 30.70 <
1 4 9 77.40 51.12 26.65 <
3 4 9 79.01 66.33 34.76 <
-4 5 9 51.82 48.96 37.81 <
-2 5 9 77.85 19.84 47.36 <
0 5 9 58.84 21.44 40.26 <
2 5 9 77.70 10.86 35.92 <
4 5 9 51.89 61.56 42.59 <
-3 6 9 54.51 21.29 20.28 <
-1 6 9 66.90 30.99 55.76 <
1 6 9 66.69 131.80 39.25 o
3 6 9 54.55 68.22 15.93 o
-2 7 9 40.24 -37.95 24.77 <
0 7 9 61.50 78.79 20.86 o
2 7 9 40.21 71.12 17.09 o
-1 1 10 16271.68 15753.77 101.47 o
1 1 10 17036.59 14814.62 92.15 o
0 2 10 0.17 -42.74 28.98 <
-3 3 10 10350.54 10508.87 102.49 o
-1 3 10 13856.16 12474.52 65.15 o
1 3 10 13242.90 13589.34 64.33 o
3 3 10 10952.27 10060.32 94.19 o
-2 4 10 0.88 1.88 41.15 <
0 4 10 1.79 11.74 30.72 <
2 4 10 0.88 72.30 34.34 o
-5 5 10 3923.43 4643.52 74.88 o
-3 5 10 6738.84 6634.65 73.52 o
-1 5 10 8094.43 8692.56 77.38 o
1 5 10 8567.16 7963.71 66.09 o
3 5 10 6351.47 6813.29 65.69 o
5 5 10 4206.70 4177.53 71.23 o
-4 6 10 0.90 -56.22 21.30 <
-2 6 10 3.28 -120.40 68.24 <
0 6 10 4.70 -53.46 54.62 <
2 6 10 3.28 3.77 15.65 <
4 6 10 0.90 14.05 25.35 <
-1 7 10 4205.89 4144.36 44.93 o
1 7 10 3923.61 4454.13 45.28 o
0 1 11 63.06 62.13 29.11 o
-1 2 11 84.11 96.88 28.53 o
1 2 11 84.28 100.78 27.22 o
-2 3 11 44.75 1.74 36.79 <
0 3 11 103.39 91.51 27.80 o
2 3 11 44.65 -49.54 35.05 <
-3 4 11 82.44 104.71 38.52 o
-1 4 11 58.69 39.69 34.62 <
1 4 11 58.53 49.39 38.09 <
3 4 11 82.52 86.31 41.85 o
-4 5 11 27.65 -3.77 19.27 <
-2 5 11 92.72 168.57 50.25 o
0 5 11 30.47 67.94 47.95 <
2 5 11 92.75 135.26 42.29 o
4 5 11 27.67 15.79 23.61 <
-3 6 11 34.31 86.19 20.28 o
-1 6 11 57.22 -74.59 52.29 <
1 6 11 57.23 66.63 17.67 o
3 6 11 34.35 -33.90 18.83 <
0 7 11 77.07 -1.01 24.48 <
0 0 12 597.82 549.58 78.51 o
-2 2 12 545.45 571.58 55.60 o
0 2 12 19571.79 19048.34 80.70 o
2 2 12 545.45 500.72 42.03 o
-1 3 12 0.37 106.49 37.82 o
1 3 12 0.37 33.76 37.53 <
-4 4 12 348.27 311.11 35.00 o
-2 4 12 12741.44 12701.08 94.06 o
0 4 12 478.98 399.69 44.94 o
2 4 12 12741.54 12967.38 82.76 o
4 4 12 348.11 336.14 32.69 o
-3 5 12 0.70 -3.33 17.68 <
-1 5 12 2.01 -68.96 66.21 <
1 5 12 2.01 8.98 48.68 <
3 5 12 0.70 15.36 19.85 <
-2 6 12 294.49 322.06 24.02 o
0 6 12 8083.74 8732.53 59.58 o
2 6 12 294.36 330.16 19.39 o
0 1 13 70.21 38.96 45.19 <
-1 2 13 60.75 124.56 39.25 o
1 2 13 61.00 69.81 33.31 o
-2 3 13 68.94 108.48 47.22 o
0 3 13 50.39 57.94 34.47 <
2 3 13 68.81 39.97 46.78 <
-3 4 13 45.17 87.20 46.93 <
-1 4 13 61.37 -54.75 39.83 <
1 4 13 61.19 79.66 43.16 <
3 4 13 45.21 10.43 14.77 <
-2 5 13 36.52 258.57 125.59 o
0 5 13 63.36 46.93 20.28 o
2 5 13 36.51 -11.59 15.64 <
-1 6 13 44.90 -14.20 25.78 <
1 6 13 44.72 58.38 30.42 <
-1 1 14 8268.58 7443.74 91.20 o
1 1 14 7805.63 8015.90 110.58 o
0 2 14 0.07 8.11 39.99 <
-3 3 14 5109.80 4752.60 80.15 o
-1 3 14 6107.49 6515.04 37.59 o
1 3 14 6474.52 6167.43 60.84 o
3 3 14 4781.32 5382.14 60.74 o
-2 4 14 0.40 34.63 17.82 <
0 4 14 0.81 27.24 17.53 <
2 4 14 0.40 2.61 14.92 <
-1 5 14 4056.72 4071.53 44.70 o
1 5 14 3780.20 4279.24 43.77 o
0 1 15 61.99 62.57 12.75 o
-1 2 15 44.98 43.46 12.75 o
1 2 15 44.94 27.09 18.98 <
-2 3 15 66.06 62.86 18.25 o
0 3 15 31.52 22.89 14.49 <
2 3 15 66.07 101.39 17.82 o
-1 4 15 50.37 91.84 18.11 o
1 4 15 50.35 -0.72 19.84 <
0 0 16 9743.72 9300.83 80.59 o
-2 2 16 7757.50 8285.71 77.77 o
0 2 16 318.32 295.69 17.36 o
2 2 16 7773.64 8078.99 87.18 o
-1 3 16 0.15 8.11 20.43 <
1 3 16 0.15 25.93 20.28 <
0 1 17 39.34 5.94 17.82 <
-1 2 17 43.80 -11.73 26.51 <
1 2 17 43.84 117.48 21.87 o
