#------------------------------------------------------------------------------
#$Date: 2021-10-09 01:09:41 +0300 (Sat, 09 Oct 2021) $
#$Revision: 269866 $
#$URL: file:///home/coder/svn-repositories/cod/cif/1/56/48/1564890.cif $
#------------------------------------------------------------------------------
#
# This file is available in the Crystallography Open Database (COD),
# http://www.crystallography.net/
#
# All data on this site have been placed in the public domain by the
# contributors.
#
data_1564890
loop_
_publ_author_name
'Ma, KeYuan'
'Lef\`evre, Robin'
'Li, Qingtian'
'Lago, Jorge'
'Blacque, Olivier'
'Yang, Wanli'
'von Rohr, Fabian O.'
_publ_section_title
;
 Synthetic control over polymorph formation in the d-band semiconductor
 system FeS2
;
_journal_name_full               'Chemical Science'
_journal_paper_doi               10.1039/D1SC03026D
_journal_year                    2021
_chemical_formula_moiety         '0.25(Fe4 S8)'
_chemical_formula_sum            'Fe S2'
_chemical_formula_weight         119.97
_chemical_name_systematic        Pyrite
_space_group_crystal_system      cubic
_space_group_IT_number           205
_space_group_name_Hall           '-P 2ac 2ab 3'
_space_group_name_H-M_alt        'P a -3'
_atom_sites_solution_primary     heavy
_audit_creation_date             2019-11-05
_audit_creation_method
;
Olex2 1.2
(compiled 2018.05.29 svn.r3508 for OlexSys, GUI svn.r5506)
;
_audit_update_record
;
2021-02-24 deposited with the CCDC.	2021-09-20 downloaded from the CCDC.
;
_cell_angle_alpha                90
_cell_angle_beta                 90
_cell_angle_gamma                90
_cell_formula_units_Z            4
_cell_length_a                   5.41027(15)
_cell_length_b                   5.41027(15)
_cell_length_c                   5.41027(15)
_cell_measurement_reflns_used    371
_cell_measurement_temperature    160(1)
_cell_measurement_theta_max      74.9570
_cell_measurement_theta_min      14.2510
_cell_volume                     158.364(8)
_computing_cell_refinement       'CrysAlisPro 1.171.40.53 (Rigaku OD, 2019)'
_computing_data_collection       'CrysAlisPro 1.171.40.53 (Rigaku OD, 2019)'
_computing_data_reduction        'CrysAlisPro 1.171.40.53 (Rigaku OD, 2019)'
_computing_molecular_graphics    'Olex2 (Dolomanov et al., 2009)'
_computing_publication_material  'Olex2 (Dolomanov et al., 2009)'
_computing_structure_refinement  'ShelXL (Sheldrick, 2015)'
_computing_structure_solution    'ShelXS (Sheldrick, 2008)'
_diffrn_ambient_environment      N~2~
_diffrn_ambient_temperature      160(1)
_diffrn_detector                 'CCD plate'
_diffrn_detector_area_resol_mean 5.8140
_diffrn_detector_type            'Pilatus 200K'
_diffrn_measured_fraction_theta_full 1.000
_diffrn_measured_fraction_theta_max 1.000
_diffrn_measurement_details
;
List of Runs (angles in degrees, time in seconds):

  # Type    Start    End  Width  t~exp~   \w     \q     \k     \f   Frames
#--------------------------------------------------------------------------
  1  \w   -130.00 -78.00   0.50    0.75    --  -54.56-109.00 175.00  104
  2  \w   -131.00 -35.00   0.50    0.75    --  -86.25 178.00-150.00  192
  3  \w     99.00 178.00   0.50    0.75    --  107.75  30.00 -30.00  158
  4  \w     37.00  71.00   0.50    0.75    --  107.75 -61.00 -60.00   68
  5  \w   -129.00 -75.00   0.50    0.75    --  -54.56 -87.00 -99.00  108
  6  \w   -131.00 -45.00   0.50    0.75    --  -54.56 -38.00  30.00  172
  7  \w     35.00 105.00   0.50    0.75    --  107.75 -77.00  60.00  140
  8  \w     37.00  62.00   0.50    0.75    --  107.75 -61.00-180.00   50
;
_diffrn_measurement_device       'four-circle diffractometer'
_diffrn_measurement_device_type  'XtaLAB Synergy, Dualflex, Pilatus 200K'
_diffrn_measurement_method       '\w scans'
_diffrn_orient_matrix_type
'CrysAlisPro convention (1999,Acta A55,543-557)'
_diffrn_orient_matrix_UB_11      0.2047215000
_diffrn_orient_matrix_UB_12      -0.0480733000
_diffrn_orient_matrix_UB_13      -0.1919199000
_diffrn_orient_matrix_UB_21      0.1880919000
_diffrn_orient_matrix_UB_22      0.1329225000
_diffrn_orient_matrix_UB_23      0.1674201000
_diffrn_orient_matrix_UB_31      0.0616074000
_diffrn_orient_matrix_UB_32      -0.2472162000
_diffrn_orient_matrix_UB_33      0.1272811000
_diffrn_radiation_monochromator  mirror
_diffrn_radiation_probe          x-ray
_diffrn_radiation_type           CuK\a
_diffrn_radiation_wavelength     1.54184
_diffrn_reflns_av_R_equivalents  0.0374
_diffrn_reflns_av_unetI/netI     0.0170
_diffrn_reflns_Laue_measured_fraction_full 1.000
_diffrn_reflns_Laue_measured_fraction_max 1.000
_diffrn_reflns_limit_h_max       6
_diffrn_reflns_limit_h_min       -5
_diffrn_reflns_limit_k_max       5
_diffrn_reflns_limit_k_min       -6
_diffrn_reflns_limit_l_max       6
_diffrn_reflns_limit_l_min       -6
_diffrn_reflns_number            509
_diffrn_reflns_point_group_measured_fraction_full 1.000
_diffrn_reflns_point_group_measured_fraction_max 1.000
_diffrn_reflns_theta_full        67.684
_diffrn_reflns_theta_max         72.914
_diffrn_reflns_theta_min         14.288
_diffrn_source                   'micro-focus sealed X-ray tube'
_diffrn_source_type              'PhotonJet (Cu) X-ray Source'
_exptl_absorpt_coefficient_mu    95.830
_exptl_absorpt_correction_T_max  0.290
_exptl_absorpt_correction_T_min  0.103
_exptl_absorpt_correction_type   analytical
_exptl_absorpt_process_details
;
CrysAlisPro 1.171.40.53 (Rigaku Oxford Diffraction, 2019)
Analytical numeric absorption correction using a multifaceted crystal
model based on expressions derived by R.C. Clark & J.S. Reid.
(Clark, R. C. & Reid, J. S. (1995). Acta Cryst. A51, 887-897)
Empirical absorption correction using spherical harmonics,
 implemented in SCALE3 ABSPACK scaling algorithm.
;
_exptl_crystal_colour            black
_exptl_crystal_density_diffrn    5.032
_exptl_crystal_description       irregular
_exptl_crystal_F_000             232
_exptl_crystal_size_max          0.05
_exptl_crystal_size_mid          0.04
_exptl_crystal_size_min          0.02
_refine_diff_density_max         0.387
_refine_diff_density_min         -0.339
_refine_diff_density_rms         0.099
_refine_ls_extinction_coef       0.024(3)
_refine_ls_extinction_expression Fc^*^=kFc[1+0.001xFc^2^\l^3^/sin(2\q)]^-1/4^
_refine_ls_extinction_method     'SHELXL-2018/3 (Sheldrick 2018)'
_refine_ls_goodness_of_fit_ref   1.320
_refine_ls_hydrogen_treatment    undef
_refine_ls_matrix_type           full
_refine_ls_number_parameters     7
_refine_ls_number_reflns         57
_refine_ls_number_restraints     0
_refine_ls_restrained_S_all      1.320
_refine_ls_R_factor_all          0.0183
_refine_ls_R_factor_gt           0.0183
_refine_ls_shift/su_max          0.000
_refine_ls_shift/su_mean         0.000
_refine_ls_structure_factor_coef Fsqd
_refine_ls_weighting_details
'w=1/[\s^2^(Fo^2^)+(0.0160P)^2^+0.4779P] where P=(Fo^2^+2Fc^2^)/3'
_refine_ls_weighting_scheme      calc
_refine_ls_wR_factor_gt          0.0444
_refine_ls_wR_factor_ref         0.0444
_reflns_Friedel_coverage         0.000
_reflns_number_gt                57
_reflns_number_total             57
_reflns_threshold_expression     'I > 2\s(I)'
_cod_data_source_file            d1sc03026d2.cif
_cod_data_source_block           kema2910
_cod_original_cell_volume        158.364(13)
_cod_database_code               1564890
_shelx_shelxl_version_number     2018/3
_shelx_space_group_comment
;
The symmetry employed for this shelxl refinement is uniquely defined
by the following loop, which should always be used as a source of
symmetry information in preference to the above space-group names.
They are only intended as comments.
;
_shelx_estimated_absorpt_t_max   0.250
_shelx_estimated_absorpt_t_min   0.087
_olex2_refinement_description
;
;
_shelx_res_file
;
TITL kema2910 in Pa-3 #205
    kema2910.res
    created by SHELXL-2018/3 at 10:43:19 on 05-Nov-2019
CELL 1.54184 5.410274 5.410274 5.410274 90 90 90
ZERR 4 0.000149 0.000149 0.000149 0 0 0
LATT 1
SYMM +Z,+X,+Y
SYMM +Y,+Z,+X
SYMM 0.5-Y,-Z,0.5+X
SYMM 0.5+Z,0.5-X,-Y
SYMM -Y,0.5+Z,0.5-X
SYMM 0.5-Z,-X,0.5+Y
SYMM -Z,0.5+X,0.5-Y
SYMM 0.5+Y,0.5-Z,-X
SYMM 0.5-X,-Y,0.5+Z
SYMM 0.5+X,0.5-Y,-Z
SYMM -X,0.5+Y,0.5-Z
SFAC Fe S
UNIT 4 8

L.S. 10 0 0
PLAN  20
SIZE 0.02 0.04 0.05
TEMP -113.1(10)
fmap 2 53
acta
REM <olex2.extras>
REM <HklSrc "%.\\kema2910.hkl">
REM </olex2.extras>

WGHT    0.016000    0.477900
EXTI    0.024368
FVAR       9.76516
FE1   1    0.000000    0.000000    0.500000    10.16667    0.00359    0.00359 =
         0.00359    0.00015   -0.00015   -0.00015
S1    2    0.115198    0.384802    0.615198    10.33333    0.00483    0.00483 =
         0.00483    0.00017   -0.00017    0.00017
HKLF 4




REM  kema2910 in Pa-3 #205
REM wR2 = 0.0444, GooF = S = 1.320, Restrained GooF = 1.320 for all data
REM R1 = 0.0183 for 57 Fo > 4sig(Fo) and 0.0183 for all 57 data
REM 7 parameters refined using 0 restraints

END

WGHT      0.0162      0.4753

REM Highest difference peak  0.387,  deepest hole -0.339,  1-sigma level  0.099
Q1    1  -0.1012  0.1012  0.6012  10.33333  0.05    0.39
Q2    1  -0.0486  0.0273  0.3648  11.00000  0.05    0.30
Q3    1   0.2655  0.3960  0.5993  11.00000  0.05    0.25
Q4    1   0.1026  0.3438  0.4478  11.00000  0.05    0.24
Q5    1   0.2966  0.2034  0.7966  10.33333  0.05    0.18
Q6    1  -0.0009  0.3244  0.3722  11.00000  0.05    0.16
Q7    1   0.1846  0.4990  0.3410  11.00000  0.05    0.15
Q8    1   0.3395  0.3418  0.6949  11.00000  0.05    0.14
Q9    1   0.1442  0.4425  0.3244  11.00000  0.05    0.09
;
_shelx_res_checksum              79445
_shelx_hkl_file
;
   0  -1   0 255.994 177.943   1
   1   0   0 342.943 808.092   5
  -1   0   0-54.3345 193.584   6
  -1   1   1 146418. 3841.93   6
  -1  -1  -1 150622. 4236.91   1
   1   0   1 889.129 605.779   5
  -1   0   1 13.4922 163.321   6
  -1   1   0 71.3167 190.124   6
  -1  -1   0 100.964 195.507   1
   1   0  -1-53.8869 539.876   5
   1  -1   0-14.3307 156.979   1
  -1  -1   0-26.4051 199.042   6
   1  -1  -1 157323. 4289.63   1
  -1  -1   1 150198. 3936.97   6
   0  -2   0 500831. 12896.3   1
  -2   0   0 511681. 12769.9   6
   2   0   0 502751. 14526.6   5
   1  -2   0 162.257 267.815   2
   2   0   1-200.494 637.030   5
  -1   2   0-9.99438 129.742   6
   2   0  -1 705.654 599.221   5
  -2   0   1 634.316 284.147   6
  -2   1   1 150581. 4296.76   6
   2  -1   1 142299. 5319.47   5
  -1  -2  -1 146471. 4619.47   1
  -2  -1  -1 151006. 4127.60   1
   1  -2   1 160316. 4545.96   2
  -1  -2  -1 152270. 4582.43   2
   0  -2  -1 259680. 7429.30   1
   2  -1   0 264102. 8332.85   5
   0  -2   1 250481. 7062.92   2
  -2  -1   0 275446. 6956.53   6
   1   0  -2 253682. 6803.36   5
   0  -2  -1 262449. 7050.84   2
  -2   1   0 267463. 6955.72   6
   1   0   2 272504. 6968.03   5
   2  -1  -1 139444. 5226.64   5
  -2  -1   1 154516. 4339.97   6
   1  -2  -1 151423. 4611.84   1
  -2   1  -1 156398. 4433.81   6
   1  -2  -1 157816. 4362.21   2
   2  -1  -1 154827. 4147.81   1
  -2  -2  -2 290883. 8219.00   1
  -2   2   2 287494. 8015.73   3
   2   1  -2 3463.68 882.581   5
  -2  -2  -1 4071.24 459.277   1
  -2   1   2 4161.41 497.145   6
   2  -2   1 3486.14 534.127   2
  -2  -2  -1 4844.43 687.518   2
  -2  -1  -2 3557.97 464.349   1
  -1  -2  -2 3413.31 583.678   1
  -2  -2  -1 4086.50 463.395   6
  -2   2   1 3726.44 418.684   6
   2   0   2 320902. 10406.6   5
   0  -2   2 351631. 9770.36   2
   0  -2  -2 362443. 9669.66   2
   2   0  -2 399948. 10544.6   5
  -2   2   0 351442. 9231.98   6
  -2   0   2 369438. 9274.10   6
   0  -2  -2 362168. 10118.6   1
   2  -2   0 356474. 9294.43   2
  -2  -2   0 351722. 9221.79   6
   2   1   2 3371.14 881.324   5
   1  -2  -2 4634.47 714.684   1
  -2  -1   2 4048.77 471.715   6
   2  -1  -2 4435.62 532.476   1
  -2   2  -1 3603.42 427.893   6
   2  -2  -1 3342.13 421.817   2
  -2  -2   1 4290.90 431.443   6
   2  -2  -1 3317.58 408.755   1
   1  -2  -2 4336.23 525.450   2
  -2  -2   2 267142. 7527.22   3
   2  -2  -2 294971. 7833.70   1
   3   0   0 356.757 651.342   5
  -3   0   0 268.587 381.695   6
   0  -3   0 237.233 384.815   2
  -3   0   1 306.391 401.694   6
   3   0  -1 206.498 520.178   5
  -1  -3   0-50.1554 373.247   2
   3   0   1-109.162 586.266   5
   1  -3   0-44.4040 340.617   2
  -3   0  -1 297.309 432.399   6
   3   0  -2 241189. 8203.22   5
   0  -2   3 256533. 7202.00   7
  -3   0   2 223613. 6789.80   6
   0  -2  -3 251070. 7258.30   2
   0  -2  -3 259216. 7850.56   1
  -3   0   2 254765. 6778.12   3
   2  -3   0 254383. 7051.68   2
  -2  -3   0 234828. 6657.07   8
   3   0   2 256570. 8449.13   5
   2  -3   0 249150. 6891.26   4
  -3   0  -2 252899. 7087.27   6
  -2  -3  -1 64217.3 2525.87   2
   2  -3   1 54884.8 2324.41   2
   3   1  -2 47392.5 2881.60   5
  -1  -2  -3 54063.6 2535.02   1
  -3   1   2 55069.7 2192.97   6
   2  -3   1 51968.1 2165.53   4
   1  -2   3 61767.6 2334.73   7
  -3   1   2 52064.8 2052.55   3
  -3  -1  -2 52356.0 2159.33   6
   3  -1   1 508442. 15779.6   5
  -1  -3  -1 509517. 13731.9   1
   1  -3   1 508548. 13526.7   2
  -1  -3  -1 496629. 13635.1   2
  -3   1   1 516562. 13374.3   6
  -1   1   3 522758. 13217.3   3
  -3  -1  -1 521514. 13314.4   6
   3   1  -1 551214. 15577.8   5
   0  -3   1 682.871 429.744   2
   0  -3  -1 745.066 436.569   1
  -3   1   0 41.7042 344.140   6
   3   1   0 147.825 761.517   5
   3  -1   0 1069.16 975.976   5
  -3  -1   0-126.603 345.275   6
  -3  -1   1 514003. 13161.1   6
  -3   1  -1 496709. 13137.2   6
   3  -1  -1 540685. 15569.1   5
   1  -3  -1 537157. 13515.7   1
   3   1   1 491680. 14833.6   5
   1  -3  -1 507577. 13200.9   2
  -1  -3   1 506070. 13295.1   2
  -1  -1   3 484694. 13541.2   7
   1  -2  -3 57160.7 2263.97   2
  -2  -3   1 51329.4 2100.47   8
   2  -3  -1 58794.5 2257.61   2
   3   1   2 51370.0 2903.97   5
   2  -3  -1 59720.6 2187.34   4
  -3  -1   2 56581.8 2107.27   3
  -1  -2   3 58624.5 2665.55   7
  -3  -1   2 55597.9 2193.16   6
  -3   1  -2 55260.6 2335.57   6
   1  -2  -3 53158.4 2723.68   1
  -2  -3  -2 3426.25 569.469   1
  -3  -2  -2 3664.88 594.469   2
  -2   2   3 3699.79 635.638   3
   3   2  -2 5198.71 1740.76   5
   2  -2   3 2847.95 597.228   7
  -3   2   2 2854.71 494.062   3
  -3   2   2 3536.28 567.488   6
  -2  -2  -3 4056.97 655.850   1
  -2  -3  -2 3314.12 713.119   2
   2  -3   2 3611.80 576.968   7
  -2   3   2 5160.39 613.800   3
  -3  -2  -2 3215.81 514.217   6
  -3  -2  -1 152329. 4454.05   6
   2  -1   3 146708. 4596.19   7
  -1  -3  -2 157797. 5264.12   2
  -3   2   1 148821. 4504.89   6
  -1  -3  -2 140962. 4983.95   1
   1  -3   2 150455. 4558.11   7
  -2   1   3 156645. 4602.57   3
  -3  -2   0 80.1634 333.483   6
  -3   2   0 202.689 325.841   6
   2   0   3 40.7515 368.828   7
   0  -3  -2 60.7493 452.077   2
  -3  -2   0-57.4506 258.146   8
   0  -3  -2 180.635 504.087   1
   0  -3   2 64.5788 460.116   2
  -2   0   3-190.016 395.237   3
   0  -3   2 99.7911 404.623   7
  -3   2  -1 145065. 4349.13   6
  -2  -1   3 152285. 4463.07   3
  -1  -3   2 138475. 4695.76   2
   1  -3  -2 145617. 5042.20   1
   1  -3  -2 139475. 4558.97   2
  -1  -3   2 142070. 4727.85   7
   3  -2  -1 143286. 4431.10   4
  -3  -2   1 152528. 4439.89   6
   2  -3  -2 3193.33 579.924   1
  -3   2  -2 3106.22 591.785   6
  -3  -2   2 4617.26 671.249   3
  -2  -2   3 3331.85 597.320   3
  -3  -2   2 3396.46 570.579   6
   2  -3  -2 3011.88 547.079   2
   3   2   2 4491.08 1328.81   5
   2  -2  -3 3377.55 643.280   1
   3  -2  -2 2672.00 512.797   4
  -3  -3  -3 242753. 6753.80   2
   3  -3   3 220462. 6966.85   7
  -3   3   3 239053. 6742.39   3
  -3   2   3 69491.4 2677.86   3
  -3  -2  -3 67638.1 2580.78   6
  -2  -3  -3 63946.0 2760.30   1
   3  -3   2 74357.4 2862.71   7
  -3   3   2 67987.4 2426.24   3
  -3  -3  -2 72463.5 2600.91   2
  -3  -2  -3 68147.5 2729.51   2
   2  -3   3 77247.4 3027.05   7
  -2  -3  -3 64591.9 2933.98   2
  -2   3   3 77164.4 2781.46   3
   3  -2   3 63386.6 2694.66   7
  -3   1   3 117846. 3898.26   3
   3  -1   3 106581. 3790.28   7
   1  -3   3 116101. 4067.85   7
  -1  -3  -3 108906. 4299.17   1
   0  -3  -3 290.088 605.627   1
   3  -3   0-136.859 376.397   2
  -3  -3   0-139.764 309.503   8
   3  -3   0-55.9228 433.165   4
   0  -3  -3-71.6362 527.522   2
   0  -3   3-293.117 599.449   7
   3   1   3 122223. 3663.65   7
  -3  -1   3 115111. 3796.12   3
  -3  -3   1 116101. 3732.14   8
   1  -3  -3 110516. 3939.33   2
   1  -3  -3 118366. 4812.13   1
  -1  -3   3 114780. 4502.50   7
   2  -3  -3 67891.0 2793.73   1
  -3   2  -3 58178.6 2458.94   6
   3  -3  -2 56548.6 2320.08   4
  -3  -2   3 70347.9 2548.64   3
   3  -2  -3 64107.1 2334.43   4
   2  -3  -3 67643.4 2416.57   2
   3  -3  -3 173577. 4972.05   4
   0   0   4 19754.5 1463.46   7
  -4   0   0 21712.7 1425.73   6
   4   0   0 18008.3 1869.22   5
   0  -4   0 17849.8 1389.48   2
  -4   0   1 347.038 321.532   3
  -4   0  -1 352.877 489.359   6
  -4   0   1 503.608 495.659   6
   0   1   4 106.881 476.845   3
   4   0   1 390.914 577.106   5
   4   0  -1 1092.45 762.175   5
  -1  -4   0 69.2208 487.585   2
   1  -4   0 407.311 520.758   2
   1  -4   0-187.488 405.941   4
   0  -1   4 181.091 607.392   7
  -4   0  -2 145677. 4749.32   6
   4   0  -2 140496. 5998.27   5
   0  -2  -4 135505. 5288.78   1
   0  -2  -4 133075. 4762.38   2
   4   0   2 146155. 6073.58   5
   2  -4   0 163309. 5052.09   2
   2  -4   0 157371. 4840.33   4
  -4   0   2 158418. 4742.12   6
   0  -2   4 150155. 5366.74   7
  -4   0   2 144652. 4342.23   3
  -4   0  -3 109.487 432.097   6
   0  -3  -4 248.935 522.088   2
   3  -4   0-62.5530 533.299   4
   0  -3  -4-93.5834 568.625   1
   3  -4   0 223.948 433.653   2
   0  -3   4-183.213 674.570   7
  -4  -1  -3 6352.69 753.915   6
  -1  -3  -4 7250.15 997.536   1
  -1  -3  -4 7508.98 966.569   2
   4  -1   3 7108.23 773.522   7
  -4   1   3 6675.23 719.333   3
   1  -3   4 5572.84 911.849   7
  -1   2   4 185.631 560.037   3
  -1  -2  -4-68.9526 425.471   2
  -4   1   2 344.536 335.129   3
  -4  -1  -2 50.7386 429.138   6
  -4   1   2 554.986 478.626   6
  -2  -4  -1-125.163 503.035   2
   1  -2   4 82.8685 610.232   7
   4   1  -2-151.729 651.904   5
  -1  -2  -4 339.529 515.764   1
   2  -4   1-138.299 545.812   2
   2  -4   1 163.746 450.337   4
   1  -1   4 4263.79 865.396   7
  -4   1   1 5817.95 750.116   6
  -1   1   4 4496.77 679.524   3
  -4   1   1 5608.95 516.779   3
  -1  -4  -1 4956.94 922.442   2
   4   1  -1 4297.38 1027.41   5
   4  -1   1 6206.09 1394.07   5
  -4  -1  -1 5362.92 689.967   6
  -1   0   4 9398.20 861.654   3
  -4  -1   0 11515.8 1004.23   6
  -4   1   0 11640.0 986.705   6
   4   1   0 10121.0 1466.66   5
   4  -1   0 8415.11 1617.02   5
  -1   0   4 10079.1 1206.37   7
   1   0   4 12112.7 1065.07   7
   0  -4   1 12259.8 1212.28   2
  -4   1  -1 6716.15 813.007   6
  -4  -1   1 5999.63 738.921   6
  -1  -1   4 7418.73 1172.53   7
   1  -1  -4 5289.33 710.917   2
   4   1   1 5330.99 1090.48   5
   4  -1  -1 3782.13 1068.24   5
  -4  -1   1 6209.92 646.876   3
   1  -4  -1 5876.74 775.759   2
  -1  -4   1 4642.22 559.524   8
  -1  -4   1 6111.87 852.013   2
  -2  -4   1 85.2458 366.375   8
   2  -4  -1 220.671 447.474   4
   1  -2  -4 621.733 465.704   2
  -4   1  -2 411.284 528.095   6
  -4  -1   2 1139.86 485.061   6
   1  -2  -4 1789.10 684.858   1
   4   1   2-126.471 592.208   5
   2  -4  -1-63.2598 480.558   2
  -1  -2   4 105.995 737.894   7
   3  -4  -1 7048.33 754.883   2
  -4   1  -3 5670.05 776.671   6
   1  -3  -4 7194.74 1015.43   1
   1  -3  -4 5917.55 759.337   2
   3  -4  -1 7816.10 879.906   4
  -4  -1   3 7512.30 790.838   3
   4   1   3 7246.22 679.427   7
  -1  -3   4 8486.84 1179.77   7
  -2   3   4 161776. 5006.85   3
   2  -3   4 156232. 5376.12   7
  -2  -3  -4 151457. 5094.67   2
   4  -2   3 161910. 4905.68   7
  -2  -3  -4 149111. 4937.48   1
  -4   2   3 162826. 4626.05   3
  -4  -2  -2 158083. 4834.45   6
  -4   2   2 170137. 4899.59   6
   2  -2   4 159238. 5483.99   7
   4   2  -2 184552. 7450.84   5
  -2  -2  -4 167937. 5372.10   1
  -2  -4  -2 175989. 5425.41   2
  -4   2   2 160160. 4653.57   3
  -2  -1  -4 132057. 4402.32   1
  -2   1   4 125578. 4162.55   3
  -4  -2  -1 128798. 3936.56   6
   1  -4   2 133121. 4756.09   2
  -4   2   1 126044. 3950.54   6
  -1  -4  -2 123938. 4609.19   1
  -1  -4  -2 135080. 4811.17   2
   2  -1   4 118767. 4366.90   7
  -2   0   4 142183. 4695.55   3
   0  -4   2 142492. 5157.69   2
  -4  -2   0 154927. 4548.79   6
  -4   2   0 147770. 4512.44   6
   0  -4  -2 164296. 5641.24   1
   4   2   0 151904. 6532.78   5
   0  -4  -2 151724. 5181.30   2
  -4  -2   0 150538. 4112.02   8
   2   0   4 143808. 4829.38   7
   2  -1  -4 130209. 4446.29   1
  -4   2  -1 131744. 4160.62   6
  -4  -2   1 135052. 4059.65   6
   4   2   1 136047. 6110.58   5
   1  -4  -2 128506. 4852.36   1
  -4  -2   1 132222. 3831.22   8
  -1  -4   2 122831. 3971.25   8
   1  -4  -2 125254. 4401.27   2
  -2  -1   4 126940. 4096.98   3
  -4   2  -2 167549. 5164.78   6
  -4  -2   2 169384. 4967.95   6
   4   2   2 168313. 6649.32   5
   2  -2  -4 177233. 5554.96   1
   4  -2  -2 169408. 5155.09   4
   2  -4  -2 165579. 5128.75   2
  -2  -4   2 159324. 5070.00   8
   2  -4  -2 174053. 5175.60   4
  -4   2  -3 143612. 4369.93   6
   2  -3  -4 129916. 4106.89   4
   3  -4   3 5073.38 746.459   7
   3  -3   4 3528.71 738.194   7
   4  -3   3 2520.88 593.378   7
  -3   3   4 3250.67 603.439   3
  -3  -3  -4 3813.33 563.157   2
  -3  -4  -3 4756.11 527.672   2
  -4   3   3 3520.51 410.253   3
   2  -4   3 601.508 542.110   7
   3  -2   4 200.088 555.036   7
   4  -3   2 403.496 438.873   7
  -3  -2  -4 1919.08 621.617   2
  -3   2   4 578.773 527.268   3
  -2   4   3 88.1979 379.117   3
  -2  -4  -3 61.8071 478.872   2
  -2  -4  -3 838.313 334.433   1
   4   3  -2 113.294 486.902   5
   3  -1   4 2077.89 618.461   7
   4  -3   1 3345.52 575.715   7
  -3   1   4 2646.78 577.996   3
  -1   4   3 3980.85 712.769   3
   4   3  -1 2092.23 662.943   5
  -1  -4  -3 2332.29 604.906   1
   1  -4   3 3083.71 745.744   7
   0  -4  -3 12359.7 1308.17   1
   0  -4   3 13184.0 1286.72   7
   4   3   0 8808.71 1238.66   5
   0  -4  -3 12314.2 1213.26   2
   3   0   4 11439.6 990.003   7
  -3   0   4 12024.6 1018.81   3
  -3  -1   4 2681.93 565.649   3
   1  -4  -3 2663.36 638.984   2
   4   3   1 3080.98 874.465   5
  -4  -3   1 3638.88 502.276   8
   4  -3  -1 1884.63 515.163   4
   1  -4  -3 2356.91 799.602   1
  -1  -4   3 2589.51 520.070   8
  -4  -3   2 33.1215 335.682   8
  -2  -4   3-45.4033 452.301   8
  -3  -2   4-164.447 418.973   3
  -3   2  -4 435.372 300.673   6
   2  -4  -3 869.826 392.975   2
   4  -3  -2 153.713 332.837   4
   2  -4  -3 558.990 407.951   4
  -3  -3   4 3938.33 570.025   8
  -3  -4   3 3396.95 494.209   8
   3  -3  -4 2918.42 398.022   4
   3  -4  -3 2482.97 467.759   4
   3  -4   4 8058.83 737.547   7
   4  -3   4 8505.20 719.585   7
  -4   3   4 7260.07 454.512   3
  -3   4   4 8373.59 485.994   3
  -2   4   4 158797. 4659.27   3
  -2  -4  -4 153190. 4778.84   2
   2  -4   4 162198. 5289.46   7
   4  -2   4 157032. 4803.61   7
  -4   2   4 164040. 4527.89   3
  -1   4   4 6433.77 728.690   3
  -1  -4  -4 5720.19 775.175   2
   4  -1   4 6051.42 709.971   7
  -4   1   4 5077.02 605.081   3
   1  -4   4 6730.46 947.137   7
   0  -4  -4 541008. 14440.6   2
   0  -4   4 530043. 14961.5   7
   4   0   4 568021. 14115.1   7
  -4   0   4 555906. 14074.1   3
   1  -4  -4 5462.72 629.667   2
  -4  -1   4 5504.97 607.686   3
  -4  -4   2 146616. 3946.51   8
  -2  -4   4 144543. 4139.31   8
   2  -4  -4 141869. 4149.80   4
   3  -4  -4 6485.74 474.650   4
  -4  -4   3 6999.23 423.581   8
  -3  -4   4 6713.12 470.002   8
  -5   0   0 55.0559 434.563   6
   5   0   0 320.202 687.867   5
   0  -5   0-427.955 700.154   2
   0   0   5-80.0039 582.829   7
   0  -1  -5 55.6779 427.090   2
  -5   0  -1 1035.24 510.205   6
   0   1   5 102.919 455.796   3
  -5   0   1-99.8358 461.237   6
   5   0   1-141.671 713.746   5
   5   0  -1-613.376 806.907   5
  -1  -5   0-75.6221 644.718   2
   1  -5   0-50.1772 441.159   4
   1  -5   0-149.290 555.486   2
   0  -1   5 343.800 807.180   7
   2  -5   0 54227.8 2417.33   2
  -5   0  -2 53210.8 2178.10   6
   0   2   5 47602.8 2233.03   3
  -5   0   2 56950.6 2115.76   6
   0  -2  -5 50986.2 2587.17   1
   5   0  -2 41915.6 2772.97   5
   0  -2  -5 49968.3 2209.97   2
   2  -5   0 53362.4 2239.02   4
   0  -2   5 56703.4 3176.38   7
  -5   0   2 52548.0 1871.37   3
   3  -5   0 341.426 441.480   2
   5   0   3 84.4932 301.050   7
  -5   0   3 286.731 320.109   3
   0  -3  -5 428.587 379.654   2
   0   3   5 49.9200 455.011   3
   0  -3   5 177.787 611.406   7
   0   4   5 1869.70 370.971   3
   0  -4  -5 2615.01 356.170   2
   5   0   4 3149.86 350.966   7
  -1  -4  -5 3736.65 427.466   2
  -5   1   4 5112.29 383.183   3
   5  -1   4 4240.25 438.867   7
   1  -4   5 4233.26 646.544   7
  -1   3   5 32668.6 1593.69   3
  -1  -3  -5 30993.5 1550.72   2
   1  -3   5 31292.9 2014.48   7
  -5   1   3 30507.7 1226.28   3
   5  -1   3 30938.7 1332.81   7
  -1   2   5 84061.2 3202.30   3
  -5  -1  -2 82613.2 2928.95   6
   2  -5   1 95829.2 3548.10   2
  -5   1   2 88944.9 2886.66   6
  -1  -2  -5 87118.8 3476.92   1
  -1  -2  -5 84726.5 3283.95   2
  -5   1   2 88353.0 2658.43   3
  -2  -5  -1 89384.8 2964.51   2
  -1  -1  -5 347453. 10389.0   1
  -1   1   5 351888. 9985.10   3
  -5  -1  -1 359300. 9683.46   6
  -5   1   1 364837. 9691.43   6
   5   1  -1 368811. 11810.1   5
   1  -1   5 358498. 10843.8   7
  -1   0   5 112.915 503.727   3
  -5  -1   0-129.958 366.378   6
  -5   1   0 143.889 418.532   6
   5   1   0 589.668 759.386   5
   0  -5  -1 143.442 505.163   2
   0  -5   1-421.100 620.175   2
   1   0   5 144.608 543.641   7
   1  -1  -5 371114. 10721.0   1
  -1  -5   1 392787. 10566.3   2
  -5   1  -1 386988. 10335.7   6
  -5  -1   1 374388. 10091.5   6
   5   1   1 379643. 12329.4   5
   1  -5  -1 394302. 10331.6   4
   1  -5  -1 371410. 10674.0   2
  -5   1  -2 90935.1 3197.24   6
   1   2   5 96767.4 3256.68   3
  -5  -1   2 91483.5 2955.34   6
   1  -2  -5 87838.3 3469.75   1
   2  -5  -1 92130.3 3232.80   4
   2  -5  -1 87311.8 3332.36   2
   3  -5  -1 35705.4 1536.32   2
   1   3   5 34990.4 1635.67   3
   3  -5  -1 32025.1 1580.08   4
   5   1   3 35975.0 1313.10   7
   1   4   5 5513.65 518.778   3
   1  -4  -5 4404.69 375.680   4
  -2   4   5 258.900 167.219   3
   2  -4   5 231.556 307.768   7
   2  -3   5 14254.1 1241.53   7
  -5   2   3 16959.6 707.995   3
   5  -2   3 16244.3 894.959   7
   5  -2   2 1359.20 387.035   7
  -2   2   5 497.761 528.576   3
  -2  -5  -2 936.771 389.564   2
   2  -2   5 1137.43 667.135   7
  -2   1   5 27217.1 1520.69   3
  -5   2   1 27456.9 1202.31   6
  -2  -1  -5 29365.5 1599.86   1
  -1  -5  -2 28387.9 1689.02   2
   2  -1   5 28607.1 1849.57   7
  -2   0   5-46.7380 437.652   3
  -5   2   0 278.361 338.437   6
   5   2   0-413.336 532.303   5
   2   0   5-199.157 570.447   7
  -5   2  -1 26934.5 1306.15   6
   5   2   1 25236.2 1995.34   5
   1  -5  -2 25137.6 1519.50   2
  -2  -1   5 29617.9 1407.14   3
  -5  -2   2 585.439 264.905   8
   2  -5  -2 789.734 435.363   2
   2  -5  -2 1167.73 448.346   4
   2   3   5 16014.9 895.190   3
   3  -5  -2 15686.7 956.566   4
  -5  -2   3 16595.0 754.712   8
   2   4   5-16.1036 195.802   3
  -5  -2   4 383.272 121.197   8
   3  -3   5 204294. 5655.68   7
   5  -3   3 194680. 5182.99   7
  -3   3   5 191040. 5152.40   3
  -3  -2  -5 116558. 3517.43   2
  -2  -5  -3 110117. 3334.57   2
   3  -2   5 112444. 3789.58   7
   5  -3   2 109138. 3228.25   7
  -1   5   3 35943.9 1509.88   3
  -1  -5  -3 33740.2 1716.72   2
   3  -1   5 32452.9 1714.19   7
   5  -3   1 33636.3 1352.06   7
  -3   1   5 33773.2 1507.68   3
   3   0   5 201.759 443.505   7
  -3   0   5 201.810 317.075   3
   0  -5  -3 380.252 444.402   2
   1  -5  -3 31087.3 1470.23   2
  -3  -1   5 30271.0 1313.16   3
  -5  -3   2 105892. 2830.60   8
   2  -5  -3 102917. 3129.62   2
   3  -5  -3 168282. 4565.81   4
  -5  -3   3 175812. 4336.28   8
  -3  -3   5 166161. 4460.99   8
   4  -2   5 39045.0 1467.76   7
  -4   2   5 39838.8 1252.62   3
   4  -1   5 1299.86 333.600   7
  -4   1   5 1298.75 277.845   3
  -1   5   4 837.681 294.861   3
  -4   0   5 40.6581 218.359   3
   0   5   4-27.1816 299.172   3
   0  -5  -4 52.8223 239.039   2
   1   5   4 1596.54 387.304   3
   1  -5  -4 967.683 245.240   4
   2   5   4 33958.9 1325.34   3
   2  -5  -4 32941.9 1136.99   4
  -4  -2   5 36609.6 1105.43   8
   0  -6   0 36264.3 1785.08   2
  -1  -6   0-165.233 311.500   2
   0   2   6 98600.4 2914.34   3
   2  -6   0 97340.3 3141.74   2
   6   0   2 92428.1 2705.17   7
   6   0   3-128.696 127.635   7
   0   3   6-106.545 204.563   3
   6  -1   2 1326.06 279.015   7
  -1   2   6 2220.63 433.804   3
  -1  -2  -6 1311.36 348.947   2
   1  -2   6 1364.68 540.570   7
  -1   1   6 48099.2 1805.84   3
  -1  -6  -1 49337.8 1873.05   2
  -1  -1  -6 49563.1 1974.82   2
   1  -1   6 46644.3 2211.67   7
   0  -6  -1 93893.3 3322.59   2
   1  -6  -1 51492.9 2130.70   2
   1  -6  -1 53610.7 1941.65   4
   6   1   2 1441.84 204.862   7
   2  -6  -1 1117.37 299.200   4
   2  -6  -1 1218.36 319.126   2
   2  -2   6 95210.3 3077.10   7
   6  -2   2 96419.3 2650.08   7
  -2   2   6 96270.5 2784.49   3
  -2  -1  -6 11659.9 774.250   2
   2  -1   6 11780.0 864.326   7
   6  -2   1 12202.7 604.669   7
  -1  -6  -2 13374.0 777.854   2
  -2   1   6 11319.1 687.574   3
   0  -6  -2 104662. 3054.29   4
   0  -6  -2 98954.2 3316.00   2
   1  -6  -2 12919.8 839.279   2
   1  -6  -2 13312.5 766.675   4
   2  -6  -2 93953.1 2703.73   4
   0  -6  -3 102070. 2791.19   4
   0   0   0    0.00    0.00   0

TITL kema2910 in P2(1)3
REM P2(1)3 (#198 in standard setting)
CELL 1.54184   5.410274   5.410274   5.410274  90.0000  90.0000  90.0000
ZERR    3.00   0.000149   0.000149   0.000149   0.0000   0.0000   0.0000
LATT -1
SYMM -x+1/2,-y, z+1/2
SYMM -x, y+1/2,-z+1/2
SYMM  x+1/2,-y+1/2,-z
SYMM  z, x, y
SYMM  z+1/2,-x+1/2,-y
SYMM -z+1/2,-x, y+1/2
SYMM -z, x+1/2,-y+1/2
SYMM  y, z, x
SYMM -y, z+1/2,-x+1/2
SYMM  y+1/2,-z+1/2,-x
SYMM -y+1/2,-z, x+1/2
SFAC S Fe
UNIT 6.00 3.00
TREF
HKLF 4
END
;
_shelx_hkl_checksum              14296
loop_
_space_group_symop_operation_xyz
'x, y, z'
'z, x, y'
'y, z, x'
'-y+1/2, -z, x+1/2'
'z+1/2, -x+1/2, -y'
'-y, z+1/2, -x+1/2'
'-z+1/2, -x, y+1/2'
'-z, x+1/2, -y+1/2'
'y+1/2, -z+1/2, -x'
'-x+1/2, -y, z+1/2'
'x+1/2, -y+1/2, -z'
'-x, y+1/2, -z+1/2'
'-x, -y, -z'
'-z, -x, -y'
'-y, -z, -x'
'y-1/2, z, -x-1/2'
'-z-1/2, x-1/2, y'
'y, -z-1/2, x-1/2'
'z-1/2, x, -y-1/2'
'z, -x-1/2, y-1/2'
'-y-1/2, z-1/2, x'
'x-1/2, y, -z-1/2'
'-x-1/2, y-1/2, z'
'x, -y-1/2, z-1/2'
loop_
_atom_site_label
_atom_site_type_symbol
_atom_site_fract_x
_atom_site_fract_y
_atom_site_fract_z
_atom_site_U_iso_or_equiv
_atom_site_adp_type
_atom_site_occupancy
_atom_site_site_symmetry_order
_atom_site_calc_flag
_atom_site_refinement_flags_posn
_atom_site_refinement_flags_adp
_atom_site_refinement_flags_occupancy
_atom_site_disorder_assembly
_atom_site_disorder_group
Fe1 Fe 0.000000 0.000000 0.500000 0.0036(5) Uani 1 6 d S T P . .
S1 S 0.11520(12) 0.38480(12) 0.61520(12) 0.0048(5) Uani 1 3 d S T P . .
loop_
_atom_site_aniso_label
_atom_site_aniso_U_11
_atom_site_aniso_U_22
_atom_site_aniso_U_33
_atom_site_aniso_U_23
_atom_site_aniso_U_13
_atom_site_aniso_U_12
Fe1 0.0036(5) 0.0036(5) 0.0036(5) 0.0001(2) -0.0001(2) -0.0001(2)
S1 0.0048(5) 0.0048(5) 0.0048(5) 0.0002(2) -0.0002(2) 0.0002(2)
loop_
_atom_type_symbol
_atom_type_description
_atom_type_scat_dispersion_real
_atom_type_scat_dispersion_imag
_atom_type_scat_source
Fe Fe -1.1336 3.1974 'International Tables Vol C Tables 4.2.6.8 and 6.1.1.4'
S S 0.3331 0.5567 'International Tables Vol C Tables 4.2.6.8 and 6.1.1.4'
loop_
_exptl_crystal_face_index_h
_exptl_crystal_face_index_k
_exptl_crystal_face_index_l
_exptl_crystal_face_perp_dist
2 1 2 0.0085
-2 -1 -2 0.0125
2 0 -3 0.0138
-2 3 1 0.0195
1 -3 1 0.0175
2 3 1 0.0170
-3 1 1 0.0102
-1 3 -2 0.0238
loop_
_geom_angle_atom_site_label_1
_geom_angle_atom_site_label_2
_geom_angle_atom_site_label_3
_geom_angle
_geom_angle_site_symmetry_1
_geom_angle_site_symmetry_3
_geom_angle_publ_flag
S1 Fe1 S1 94.359(10) 13_556 14_656 ?
S1 Fe1 S1 180.0 19_556 7 ?
S1 Fe1 S1 85.641(10) 13_556 7 ?
S1 Fe1 S1 94.359(10) 2_455 7 ?
S1 Fe1 S1 85.641(10) 2_455 19_556 ?
S1 Fe1 S1 85.641(10) 19_556 . ?
S1 Fe1 S1 94.359(10) 13_556 19_556 ?
S1 Fe1 S1 85.641(10) 13_556 2_455 ?
S1 Fe1 S1 94.359(10) 14_656 19_556 ?
S1 Fe1 S1 85.642(10) 14_656 . ?
S1 Fe1 S1 94.359(10) 7 . ?
S1 Fe1 S1 180.00(3) 14_656 2_455 ?
S1 Fe1 S1 180.0 13_556 . ?
S1 Fe1 S1 85.641(10) 14_656 7 ?
S1 Fe1 S1 94.358(10) 2_455 . ?
Fe1 S1 Fe1 115.58(2) 4_565 3_556 ?
Fe1 S1 Fe1 115.58(2) . 3_556 ?
Fe1 S1 Fe1 115.58(2) . 4_565 ?
S1 S1 Fe1 102.32(3) 13_566 3_556 ?
S1 S1 Fe1 102.32(3) 13_566 4_565 ?
S1 S1 Fe1 102.32(3) 13_566 . ?
loop_
_geom_bond_atom_site_label_1
_geom_bond_atom_site_label_2
_geom_bond_distance
_geom_bond_site_symmetry_2
_geom_bond_publ_flag
Fe1 S1 2.2608(3) 13_556 ?
Fe1 S1 2.2608(3) 19_556 ?
Fe1 S1 2.2608(3) 2_455 ?
Fe1 S1 2.2608(3) . ?
Fe1 S1 2.2608(3) 7 ?
Fe1 S1 2.2608(3) 14_656 ?
S1 S1 2.159(2) 13_566 ?
