#------------------------------------------------------------------------------
#$Date: 2022-03-06 06:37:54 +0200 (Sun, 06 Mar 2022) $
#$Revision: 273468 $
#$URL: file:///home/coder/svn-repositories/cod/cif/1/56/59/1565944.cif $
#------------------------------------------------------------------------------
#
# This file is available in the Crystallography Open Database (COD),
# http://www.crystallography.net/
#
# All data on this site have been placed in the public domain by the
# contributors.
#
data_1565944
loop_
_publ_author_name
'Wildner, Manfred'
'Zakharov, Boris A.'
'Bogdanov, Nikita E.'
'Talla, Dominik'
'Boldyreva, Elena V.'
'Miletich, Ronald'
_publ_section_title
;
 Crystallography relevant to Mars and Galilean icy moons: crystal behavior
 of kieserite-type monohydrate sulfates at extraterrestrial conditions
 down to 15 K
;
_journal_issue                   2
_journal_name_full               IUCrJ
_journal_page_first              194
_journal_page_last               203
_journal_paper_doi               10.1107/S2052252521012720
_journal_volume                  9
_journal_year                    2022
_chemical_formula_sum            'Fe H2 O5 S'
_chemical_formula_weight         169.93
_space_group_crystal_system      monoclinic
_space_group_IT_number           15
_space_group_name_Hall           '-C 2yc'
_space_group_name_H-M_alt        'C 1 2/c 1'
_atom_sites_solution_hydrogens   difmap
_audit_creation_method           SHELXL-2017/1
_cell_angle_alpha                90
_cell_angle_beta                 118.325(16)
_cell_angle_gamma                90
_cell_formula_units_Z            4
_cell_length_a                   7.0337(9)
_cell_length_b                   7.5789(7)
_cell_length_c                   7.7406(9)
_cell_measurement_temperature    75(2)
_cell_volume                     363.23(9)
_computing_structure_refinement  'SHELXL-2017/1 (Sheldrick, 2017)'
_diffrn_ambient_temperature      75(2)
_diffrn_measured_fraction_theta_full 0.994
_diffrn_measured_fraction_theta_max 0.881
_diffrn_radiation_type           MoK\a
_diffrn_radiation_wavelength     0.71073
_diffrn_reflns_av_R_equivalents  0.0190
_diffrn_reflns_av_unetI/netI     0.0236
_diffrn_reflns_Laue_measured_fraction_full 0.994
_diffrn_reflns_Laue_measured_fraction_max 0.881
_diffrn_reflns_limit_h_max       9
_diffrn_reflns_limit_h_min       -9
_diffrn_reflns_limit_k_max       9
_diffrn_reflns_limit_k_min       -9
_diffrn_reflns_limit_l_max       7
_diffrn_reflns_limit_l_min       -10
_diffrn_reflns_number            1202
_diffrn_reflns_point_group_measured_fraction_full 0.994
_diffrn_reflns_point_group_measured_fraction_max 0.881
_diffrn_reflns_theta_full        25.242
_diffrn_reflns_theta_max         29.411
_diffrn_reflns_theta_min         4.203
_exptl_absorpt_coefficient_mu    4.610
_exptl_crystal_density_diffrn    3.107
_exptl_crystal_F_000             336
_exptl_crystal_size_max          0.320
_exptl_crystal_size_mid          0.290
_exptl_crystal_size_min          0.070
_refine_diff_density_max         0.618
_refine_diff_density_min         -0.547
_refine_diff_density_rms         0.115
_refine_ls_extinction_coef       0.035(2)
_refine_ls_extinction_expression Fc^*^=kFc[1+0.001xFc^2^\l^3^/sin(2\q)]^-1/4^
_refine_ls_extinction_method     'SHELXL-2017/1 (Sheldrick 2017)'
_refine_ls_goodness_of_fit_ref   1.120
_refine_ls_hydrogen_treatment    refall
_refine_ls_matrix_type           full
_refine_ls_number_parameters     40
_refine_ls_number_reflns         445
_refine_ls_number_restraints     0
_refine_ls_restrained_S_all      1.120
_refine_ls_R_factor_all          0.0200
_refine_ls_R_factor_gt           0.0187
_refine_ls_shift/su_max          0.000
_refine_ls_shift/su_mean         0.000
_refine_ls_structure_factor_coef Fsqd
_refine_ls_weighting_details
'w=1/[\s^2^(Fo^2^)+(0.0290P)^2^+0.1400P] where P=(Fo^2^+2Fc^2^)/3'
_refine_ls_weighting_scheme      calc
_refine_ls_wR_factor_gt          0.0501
_refine_ls_wR_factor_ref         0.0516
_reflns_Friedel_coverage         0.000
_reflns_number_gt                425
_reflns_number_total             445
_reflns_threshold_expression     'I > 2\s(I)'
_cod_data_source_file            lt5044.cif
_cod_data_source_block           FeSO4H2O_He_75K
_cod_depositor_comments
'Adding full bibliography for 1565934--1565967.cif.'
_cod_original_sg_symbol_H-M      'C 2/c'
_cod_database_code               1565944
_shelx_shelxl_version_number     2017/1
_shelx_space_group_comment
;
The symmetry employed for this shelxl refinement is uniquely defined
by the following loop, which should always be used as a source of
symmetry information in preference to the above space-group names.
They are only intended as comments.
;
_shelx_estimated_absorpt_t_min   0.320
_shelx_estimated_absorpt_t_max   0.739
_shelx_res_file
;
TITL kieserite cell setting from literature
    FeSO4_viekies_He-75K.res
    created by SHELXL-2017/1 at 09:09:29 on 25-Dec-2020
REM meas. CELL 0.71073   7.030258   7.572073   7.7336  90.0000 118.363  90.0000
REM latt corr for Nonius20C  +.0034 +.0068 +.0070         -.038
CELL 0.71073   7.033658   7.578873   7.7406  90.0000 118.325  90.0000
ZERR    4.00   0.000884   0.000686   0.0009   0.0000   0.016   0.0000
LATT  7
SYMM -X, Y, 1/2-Z
SFAC O H S FE
UNIT 20 8 4 4
OMIT -2 2 2
OMIT 1 3 1
L.S. 6
BOND
CONF
CONN 12 1.8 $O
EQIV $9 -x+1/2, y+1/2, -z+1/2
BOND $H
FMAP 2
PLAN 20
ACTA
HTAB O3 O2_$9
HTAB
TEMP -198
SIZE 0.32 0.29 0.07
WGHT    0.029000    0.140000
EXTI    0.035346
FVAR       7.84754
FE    4    0.000000    0.500000    0.000000    10.50000    0.00252    0.00270 =
         0.00283    0.00058    0.00097    0.00005
S     3    0.000000    0.155318    0.250000    10.50000    0.00207    0.00264 =
         0.00301    0.00000    0.00098    0.00000
O1    1    0.168595    0.045834    0.400910    11.00000    0.00390    0.00471 =
         0.00601    0.00181    0.00158    0.00123
O2    1    0.100204    0.270639    0.159341    11.00000    0.00405    0.00470 =
         0.00622    0.00201    0.00275    0.00049
O3    1    0.000000    0.643422    0.250000    10.50000    0.00388    0.00499 =
         0.00463    0.00000    0.00173    0.00000
H     2    0.097970    0.712385    0.290546    11.00000    0.01114
HKLF 4 1   -1 0 0  0 -1 0  1 0 1




REM  kieserite cell setting from literature
REM R1 =  0.0187 for     425 Fo > 4sig(Fo)  and  0.0200 for all     445 data
REM     40 parameters refined using      0 restraints

END

WGHT      0.0286      0.1386

REM Instructions for potential hydrogen bonds
EQIV $5 x+1/2, y+1/2, z
HTAB O3 S_$5
EQIV $3 x, y+1, z
HTAB O3 O1_$3
HTAB O3 O2_$9

REM Highest difference peak  0.618,  deepest hole -0.547,  1-sigma level  0.115
Q1    1   0.0982  0.0973  0.3236  11.00000  0.05    0.62
Q2    1   0.0960  0.5671  0.0723  11.00000  0.05    0.47
Q3    1   0.2608  0.0837  0.4256  11.00000  0.05    0.36
Q4    1   0.2516  0.3367  0.1414  11.00000  0.05    0.35
Q5    1   0.1137  0.4250  0.1024  11.00000  0.05    0.31
Q6    1   0.2472  0.1001  0.3418  11.00000  0.05    0.31
Q7    1   0.2283 -0.0791  0.4223  11.00000  0.05    0.30
Q8    1   0.3171  0.2172  0.4819  11.00000  0.05    0.29
Q9    1   0.2023  0.3837  0.2656  11.00000  0.05    0.27
Q10   1   0.2055 -0.0647  0.2845  11.00000  0.05    0.27
Q11   1   0.1854  0.2109  0.1778  11.00000  0.05    0.26
Q12   1   0.2576  0.2879  0.3597  11.00000  0.05    0.26
Q13   1   0.0940  0.3665  0.1413  11.00000  0.05    0.26
Q14   1   0.2768  0.5711  0.3621  11.00000  0.05    0.25
Q15   1   0.2737  0.0954  0.5761  11.00000  0.05    0.25
Q16   1   0.2516  0.2581  0.4366  11.00000  0.05    0.21
Q17   1   0.1002  0.2452  0.2543  11.00000  0.05    0.21
Q18   1  -0.0041  0.3343  0.0842  11.00000  0.05    0.20
Q19   1   0.2048  0.5916  0.2592  11.00000  0.05    0.20
Q20   1   0.0210  0.1991  0.1558  11.00000  0.05    0.20
;
_shelx_res_checksum              19363
_shelx_hkl_file
;
   0   0  -2 1206.57 235.434   1
   0   0  -2 1313.12 215.697   3
   0   0   2 1162.75 205.073   3
   0   0   3 160.180 128.922   1
   0   0  -3 148.895 119.179   3
   0   0   3-17.2037 74.3507   3
   0   0  -4 301007. 4591.68   3
   0   0   4 288957. 4285.37   3
   0   0  -4 305707. 5050.47   1
   0   0  -5 43.3282 108.492   1
   0   0   5 91.6110 144.978   1
   0   0  -5 149.116 150.051   3
   0   0   5 15.4016 51.3122   3
   0   0   6 13250.2 1102.75   3
   0   0  -6 13124.2 1211.92   3
   0   0  -6 11608.6 1283.61   1
   0   0  -7 23.5044 103.584   2
   0   0  -7 43.0516 220.956   1
   0   0  -8 310057. 8285.46   1
   0   0  -9 336.721 483.044   1
   0  -2   0 166584. 2026.89   1
   0  -2   0 168231. 2745.59   2
   0  -2   1 330829. 3882.46   2
   0   2  -1 323899. 3616.73   1
   0  -2  -1 320813. 4024.55   2
   0  -2  -2 796321. 6859.11   2
   0  -2   2 859576. 6915.07   2
   0   2  -2 835386. 7020.63   1
   0  -2  -2 816023. 7256.88   3
   0   2  -2 862301. 6433.95   2
   0   2  -3 76734.2 2039.02   2
   0  -2  -3 74251.7 2331.94   3
   0  -2  -3 79374.2 2273.01   2
   0  -2  -3 77735.5 1889.30   1
   0  -2   3 72476.6 2517.13   3
   0   2  -3 75739.3 2473.86   1
   0   2   4 116970. 2819.67   1
   0  -2  -4 123024. 2981.22   2
   0   2  -4 120886. 3568.52   1
   0  -2   4 119517. 3407.62   3
   0  -2  -4 121387. 2903.12   1
   0  -2  -4 124508. 3346.56   3
   0   2  -4 121972. 2728.93   2
   0  -2  -5 127036. 3450.58   1
   0  -2  -5 129955. 3267.52   2
   0   2  -5 125206. 4060.26   1
   0   2  -5 134655. 2950.03   2
   0   2   5 129957. 3440.02   1
   0  -2  -5 120309. 3546.21   3
   0  -2   5 131410. 3622.78   3
   0   2  -6 57624.6 3056.65   1
   0  -2  -6 60433.8 2743.18   1
   0   2  -6 63021.4 2008.79   2
   0  -2   6 62464.2 2542.45   3
   0   2   6 66115.5 2820.55   1
   0  -2  -6 60550.7 2358.63   2
   0  -2  -6 62801.9 2805.63   3
   0  -2  -7 109713. 3898.59   3
   0   2  -7 109109. 4705.69   1
   0  -2  -7 104672. 4002.93   1
   0  -2  -8 57630.8 3358.41   1
   0   2  -8 64722.9 4006.18   1
   0  -2  -9 26258.9 2492.57   1
   0  -4   0 321064. 3878.82   1
   0  -4   0 333883. 5448.04   2
   0   4  -1 234.925 201.546   2
   0  -4  -1 162.660 168.427   2
   0  -4   1 336.367 176.693   2
   0  -4   1 473.270 205.148   1
   0  -4  -1 322.299 108.084   1
   0  -4   2 530531. 6525.30   1
   0  -4  -2 521550. 7768.29   3
   0  -4   2 538153. 7245.33   2
   0   4  -2 515992. 6952.50   1
   0  -4  -2 510055. 7408.64   2
   0   4  -2 521738. 7122.55   2
   0  -4  -3 190002. 4971.55   3
   0  -4  -3 186641. 2545.72   1
   0   4  -3 186865. 4624.58   1
   0   4  -3 187904. 4316.89   2
   0  -4  -3 197117. 4782.49   2
   0  -4   3 191065. 4556.35   2
   0  -4   3 188224. 4340.68   1
   0  -4  -4 1399.71 452.953   2
   0   4  -4 1346.06 395.185   2
   0   4  -4 1685.67 528.619   1
   0  -4  -4 1493.10 288.525   1
   0  -4   4 2612.80 564.324   2
   0  -4  -4 1202.77 463.617   3
   0   4  -5 63971.9 3276.08   1
   0  -4  -5 67861.8 2959.71   2
   0  -4  -5 62314.3 3088.15   3
   0  -4  -5 63521.0 2144.52   1
   0   4  -5 62927.0 2512.75   2
   0  -4   5 58000.5 2995.61   3
   0   4  -6 357979. 8538.40   1
   0  -4  -6 358899. 5894.02   1
   0   4  -6 362436. 5843.42   2
   0  -4   6 339930. 7458.72   3
   0  -4  -6 357846. 7816.21   3
   0   4  -7 9995.88 1582.19   1
   0  -4  -7 11749.7 1494.75   3
   0  -4  -7 11117.1 1175.97   1
   0  -6   0 285735. 4355.25   1
   0   6   0 281246. 6561.83   2
   0   6  -1 24073.7 1942.74   2
   0   6   1 23620.6 1921.89   2
   0  -6   1 25063.7 1471.34   1
   0  -6  -1 24857.5 1069.78   1
   0  -6   2 34462.5 1949.21   1
   0  -6  -2 33220.4 2422.57   3
   0  -6  -2 32848.2 945.174   1
   0   6  -2 33085.9 2285.93   2
   0  -6  -3 78423.9 3836.76   3
   0   6  -3 76508.1 3475.02   2
   0   6  -4 410605. 8017.88   2
   0  -6  -4 413293. 9197.14   3
   0   6  -5 599.633 364.121   2
   0  -6  -5 2353.88 751.923   3
   0   6  -6 1711.97 555.829   2
   0  -6  -6 4871.88 1129.75   3
   0  -6  -7 1316.22 703.522   3
   0   8   0 127999. 5383.32   2
   0   8  -1 152566. 5817.43   2
   0  -8  -1 138159. 5591.97   3
   0  -8  -2 47520.8 3401.82   3
   0   8  -2 51220.2 3340.42   2
   0  -8  -3 20357.7 2345.09   3
   0   8  -3 19369.6 2074.48   2
   0   8  -4 113911. 4994.79   2
   0  -8  -4 115550. 5690.56   3
   0   8  -5 16915.9 1907.73   2
   0  -8  -5 20224.2 2465.86   3
   1  -1  -9 73975.9 4231.15   1
   1   1  -9 73868.5 4529.77   1
   1  -1  -8-137.437 218.066   3
   1   1  -8 304.592 355.351   1
   1  -1  -8-10.6967 210.012   1
   1  -1  -7 315439. 7036.91   1
   1   1  -7 320653. 7684.48   1
   1   1  -7 316742. 6163.89   2
  -1   1   7 306580. 6656.78   3
   1  -1  -7 310374. 6928.16   3
  -1  -1   7 301452. 6597.86   3
   1   1  -6 5001.94 775.325   2
  -1   1   6 6555.90 867.067   1
  -1   1   6 6217.44 885.778   3
   1  -1  -6 5908.20 916.388   3
  -1  -1   6 5274.46 820.815   3
   1   1  -6 6996.17 1032.15   1
   1  -1  -6 5727.92 839.682   1
  -1   1   5 140584. 3831.76   3
   1  -1  -5 131920. 3494.17   1
  -1  -1   5 131773. 3906.51   3
   1  -1  -5 132332. 3783.86   3
  -1  -1   5 138617. 3740.50   1
   1   1  -5 134153. 3640.16   2
   1   1  -5 130571. 3871.15   1
   1   1  -4 41763.7 2040.53   3
   1   1  -4 41946.5 1925.65   1
   1  -1  -4 43446.0 1988.80   3
   1  -1  -4 42299.6 1674.27   1
  -1   1   4 43365.6 1926.86   3
  -1   1   4 43207.2 1623.92   1
  -1  -1   4 41750.4 2030.16   3
   1   1  -3 106070. 2959.91   3
   1  -1  -3 106478. 2751.43   3
  -1  -1   3 105078. 3005.70   3
  -1   1   3 98765.2 1976.73   1
   1   1  -3 102946. 2646.09   1
   1  -1  -3 101597. 2117.41   1
  -1   1   3 103797. 2676.55   3
  -1   1   2 219164. 2222.26   1
  -1  -1   2 220345. 3992.27   3
  -1   1   2 228118. 3478.45   3
  -1  -1   1 204448. 3229.24   2
  -1   1   1 203651. 2841.15   3
  -1  -1   0 174565. 2547.42   2
  -1   1   0 176221. 2155.55   3
  -1   1   0 181998. 2112.77   1
   1  -1   1 820012. 3622.14   2
  -1   1  -1 842481. 6018.39   1
  -1   1  -2 21140.6 1150.10   1
  -1  -1  -2 21975.2 883.464   3
  -1  -1  -2 23664.4 1150.63   1
  -1  -1  -2 22965.6 869.353   2
   1  -1   2 21742.6 742.074   3
   1  -1   3 411099. 3301.31   3
  -1  -1  -3 409690. 4332.37   3
  -1  -1  -3 411365. 3964.60   2
  -1   1  -3 415253. 5855.42   1
  -1  -1  -3 412382. 5571.76   1
  -1   1  -4 17298.9 1369.86   1
  -1  -1  -4 17582.1 1304.79   1
  -1  -1  -4 17926.9 863.409   2
   1  -1   4 18003.7 790.085   3
  -1  -1  -4 17631.6 1014.05   3
   1  -1   4 18107.3 1391.19   1
   1   1   4 17885.3 1303.17   1
  -1  -1  -5 235013. 5352.58   1
  -1   1  -5 235676. 5645.58   1
   1  -1   5 232936. 3081.94   3
   1   1   5 249713. 5497.86   1
  -1  -1  -5 234035. 3200.19   2
  -1  -1  -5 233686. 4036.40   3
  -1  -1  -6 19229.7 1268.07   3
  -1  -1  -6 19587.0 893.929   2
  -1   1  -6 20471.6 1870.63   1
  -1  -1  -6 18253.0 1671.17   1
   1  -1   6 17729.8 834.858   3
  -1   1  -7 20840.0 2090.24   1
  -1  -1  -7 19584.8 1953.19   1
  -1   1  -8 38205.7 3127.69   1
  -1  -1  -8 38612.4 2983.59   1
   1  -3  -8 14862.2 1512.61   1
   1  -3  -8 12978.0 1618.30   3
   1  -3  -7 54728.6 2606.34   1
   1   3  -7 50447.1 2444.76   2
   1   3  -7 51582.4 3327.47   1
   1  -3  -7 48806.3 2976.92   3
   1  -3  -6 35627.8 2052.10   2
   1   3  -6 36014.8 2091.27   2
  -1  -3   6 33385.3 2354.86   3
   1  -3  -6 34861.3 1818.43   1
   1   3  -6 34881.5 2492.72   1
   1  -3  -6 34922.6 2334.43   3
   1   3  -5 312619. 6723.90   1
   1  -3  -5 309341. 5725.77   2
  -1  -3   5 317477. 7097.17   3
   1  -3  -5 321378. 4612.77   1
   1  -3  -5 306466. 6518.55   3
   1   3  -5 311119. 5968.42   2
  -1   3   5 301964. 4297.84   1
  -1   3   5 332214. 6642.84   3
   1  -3  -4 42897.0 1355.46   1
  -1   3   4 42405.1 2209.96   3
   1  -3  -4 42325.3 2033.77   2
   1  -3  -4 42153.6 2260.64   3
   1   3  -4 41250.6 2195.43   1
   1   3  -4 40549.4 2081.17   2
  -1  -3   4 45052.4 2528.63   3
  -1  -3   3 91609.5 3152.46   2
   1  -3  -3 94188.2 2910.38   2
   1  -3  -3 90468.0 3079.57   3
   1   3  -3 90325.2 2957.78   2
  -1  -3   2 155385. 3455.17   1
   1  -3  -2 156926. 3593.28   2
   1   3  -2 153872. 3653.95   2
  -1  -3   2 157072. 3825.43   2
   1  -3  -1 291721. 2170.34   1
  -1  -3   1 291888. 4889.12   2
   1  -3   0 24532.8 970.359   1
  -1   3   0 24169.3 973.394   1
   1  -3   0 23833.7 1242.12   2
   1  -3   1 290925. 4206.44   2
  -1   3  -1 290317. 4172.29   1
   1   3   1 281075. 4755.04   2
  -1   3  -1 293763. 4291.94   2
  -1  -3  -1 280152. 4662.69   2
   1  -3   1 290512. 4102.27   1
   1   3   2 24083.5 1371.39   2
  -1   3  -2 26941.0 1269.03   2
   1  -3   2 26259.3 1283.52   2
   1  -3   2 24552.4 1382.74   1
  -1   3  -2 24255.5 1412.59   1
  -1  -3  -2 25358.6 1450.05   2
  -1   3  -3 646285. 8202.01   1
  -1  -3  -3 645034. 6737.52   1
  -1   3  -3 650741. 6088.08   2
   1  -3   3 673860. 8081.57   1
  -1  -3  -3 653972. 7602.79   2
   1  -3   3 641475. 6723.18   2
  -1  -3  -3 645622. 7886.31   3
  -1  -3  -4 2970.11 559.872   3
  -1   3  -4 2697.62 630.619   1
   1  -3   4 2478.20 494.570   3
  -1  -3  -4 3228.67 537.247   1
  -1  -3  -4 4143.50 627.591   2
  -1   3  -4 4026.50 455.481   2
  -1   3  -5 35091.0 2354.39   1
  -1   3  -5 39541.7 1258.72   2
  -1  -3  -5 36142.3 1973.58   1
  -1  -3  -5 35189.7 1824.31   2
  -1  -3  -5 36307.0 2093.89   3
   1  -3   5 38057.3 1837.45   3
  -1  -3  -6 11568.6 1272.86   1
  -1  -3  -6 11581.7 1230.38   3
  -1   3  -6 12281.0 1541.52   1
  -1   3  -7 120298. 5285.73   1
  -1  -3  -7 115810. 4389.25   1
   1  -5  -8 31820.7 2892.23   3
   1  -5  -7 179719. 6467.18   3
   1   5  -7 178529. 5261.92   2
   1   5  -6 7840.94 1117.44   2
   1  -5  -6 10802.6 1571.70   3
   1   5  -5 101076. 3916.54   2
   1  -5  -5 99291.0 4393.29   3
  -1  -5   4 44586.6 2703.27   2
   1   5  -4 39803.6 2421.87   2
   1  -5  -4 42146.0 2735.03   3
  -1  -5   3 153349. 4330.47   1
   1   5  -3 146749. 4580.31   2
   1  -5  -3 152574. 4971.18   3
  -1  -5   3 162726. 4940.32   2
  -1  -5   2 7022.98 851.005   1
   1   5  -2 6633.46 985.049   2
  -1  -5   2 5910.90 902.306   2
   1  -5  -2 6673.62 960.141   2
   1  -5  -2 6509.51 1003.72   3
  -1  -5   1 263560. 4871.37   1
   1   5  -1 253490. 5892.47   2
   1  -5  -1 271122. 5748.52   2
   1  -5  -1 257775. 5977.60   3
  -1  -5   1 256696. 5734.77   2
   1  -5  -1 262330. 2969.61   1
  -1   5   0 15885.6 1369.91   2
  -1  -5   0 17296.1 1475.73   2
   1  -5   0 14953.6 1302.70   2
   1  -5   0 14402.8 918.348   1
   1  -5   1 307160. 5690.92   2
  -1   5  -1 295197. 5863.92   2
   1   5   1 293477. 6306.32   2
  -1   5  -1 301013. 5278.69   1
  -1  -5  -1 310776. 6343.50   2
   1  -5   1 309703. 4975.02   1
   1  -5   2 88880.5 3137.61   2
  -1   5  -2 84279.9 3131.38   1
   1   5   2 84326.0 3350.41   2
  -1  -5  -2 92692.2 3531.70   2
  -1   5  -2 85362.2 3076.49   2
   1  -5   2 86697.3 2994.66   1
  -1   5  -3 83768.1 3440.41   1
  -1   5  -3 83555.2 3001.09   2
  -1  -5  -3 84608.7 2320.50   1
  -1  -5  -3 82463.0 3538.38   3
   1  -5   3 87376.2 3239.08   2
  -1   5  -4 141554. 4889.41   1
  -1  -5  -4 141863. 3293.66   1
   1  -5   4 133476. 4121.45   2
  -1   5  -4 139010. 3734.38   2
  -1  -5  -4 143236. 4870.52   3
  -1   5  -5 171330. 3961.92   2
  -1  -5  -5 168970. 5421.34   3
  -1  -5  -5 176259. 3977.14   1
  -1   5  -5 174496. 5888.98   1
  -1   5  -6 2594.28 783.803   1
  -1  -5  -6 3302.85 829.175   3
   1  -7  -7 73699.1 4863.84   3
   1  -7  -6 51433.9 3862.86   3
   1   7  -6 47596.0 3147.13   2
   1  -7  -5 47787.5 3530.40   3
   1   7  -5 46222.6 3109.06   2
   1   7  -4 102.175 180.101   2
   1  -7  -4 885.144 519.673   3
   1  -7  -3 358494. 9030.73   3
   1   7  -3 357990. 8587.44   2
   1   7  -2 909.413 461.857   2
   1  -7  -2 1136.52 493.145   3
   1  -7  -1 40652.4 1357.76   1
   1  -7  -1 34794.5 2637.20   3
   1   7  -1 40606.5 2876.20   2
  -1  -7   1 36908.9 2042.33   1
   1   7   0 43568.1 2965.39   2
   1  -7   0 42888.1 1812.48   1
   1  -7   0 38792.9 2677.18   3
  -1  -7   0 40122.2 1944.38   1
  -1  -7  -1 181717. 3758.79   1
   1   7   1 188085. 6102.42   2
   1  -7   1 174841. 4258.22   1
  -1  -7  -2 20419.4 2063.55   3
   1   7   2 19551.4 2008.91   2
  -1   7  -2 21216.4 1931.77   2
  -1   7  -3 63151.2 3264.39   2
  -1  -7  -3 67938.7 3844.64   3
  -1   7  -4 4224.60 807.176   2
  -1  -7  -4 4644.33 1069.30   3
  -1  -7  -5 109154. 5216.57   3
  -1   7  -5 111750. 5392.77   1
  -1  -7  -6 25082.7 2559.79   3
   1   9  -5 151540. 6555.06   2
   1   9  -4 1761.32 762.676   2
   1   9  -3 24867.4 2694.99   2
   1  -9  -3 23065.9 2638.63   3
   1  -9  -2 6376.40 1370.81   3
   1   9  -2 5795.05 1322.29   2
   1   9  -1 285986. 8983.07   2
   1  -9  -1 260486. 8260.17   3
   1   9   0 19356.3 2360.12   2
   1  -9   0 14609.8 1928.42   3
  -1  -9  -1 12647.8 1920.90   3
   1  -9   1 9959.15 1543.89   3
  -1  -9  -2 174.664 354.717   3
   1  -9   2 475.347 372.395   3
   2   0  -8 17431.6 1924.99   3
  -2   0   7 476.968 307.670   3
   2   0  -7 91.3676 199.413   3
  -2   0   6 895367. 9918.83   1
   2   0  -6 873806. 11808.8   3
  -2   0   6 870849. 11409.3   3
  -2   0   5 205.237 197.463   3
   2   0  -5-148.109 199.482   3
  -2   0   5 14.8453 93.8210   1
   2   0  -4 1751.68 469.271   3
  -2   0   4 1177.66 299.306   1
  -2   0   4 1096.22 364.779   3
  -2   0   3 83.2912 153.037   3
  -2   0   2 862942. 7640.56   3
  -2   0   1 334.641 148.892   3
  -2   0   0 1350.07 237.541   3
   2   0   0 1966.15 318.264   3
  -2   0  -1 396.430 200.783   1
  -2   0  -1 39.5082 58.9401   3
   2   0   1 614.951 159.290   2
  -2   0  -2 493769. 6416.35   1
  -2   0  -3 397.021 227.102   1
  -2   0  -4 67420.2 2912.65   1
  -2   0  -5 273.553 283.435   1
  -2   0  -6 584696. 10589.9   1
  -2   0  -7 253.033 323.824   1
   2  -2  -9 37975.9 3039.57   3
   2   2  -8 117995. 4375.27   2
   2  -2  -8 115740. 4889.70   3
   2   2  -7 106072. 4149.02   2
   2  -2  -7 99576.2 4204.78   3
  -2   2   7 108597. 3520.10   1
   2   2  -6 128218. 4380.79   2
  -2   2   6 125280. 4379.74   3
   2  -2  -6 122845. 4387.79   3
  -2  -2   6 119317. 4620.31   3
  -2   2   5 95480.2 2479.53   1
   2  -2  -5 100738. 3695.79   3
  -2   2   5 103878. 3642.91   3
  -2  -2   5 93909.8 3901.54   3
  -2  -2   5 99048.7 3426.93   1
   2   2  -5 101411. 3718.85   2
   2   2  -4 891926. 10459.2   2
   2  -2  -4 866650. 9981.13   3
  -2   2   4 881713. 6281.95   1
  -2  -2   4 873110. 11413.4   3
  -2   2   4 888699. 9860.29   3
   2   2  -3 43798.4 2236.95   2
  -2   2   3 43298.4 1206.13   1
  -2  -2   3 43505.6 2368.22   3
  -2   2   3 47145.7 2111.66   3
  -2  -2   2 37126.3 1951.98   2
  -2   2   2 40213.2 1792.06   3
  -2   2   1 336690. 4652.30   3
  -2   2   1 330174. 3315.56   1
  -2  -2   1 330624. 5405.36   2
  -2   2   0 71112.8 1904.73   1
   2  -2   0 68533.8 1908.21   3
  -2  -2   0 67783.2 2279.76   2
   2   2   0 67413.3 2232.95   2
   2  -2   1 379733. 3999.55   3
  -2  -2  -1 385643. 5213.95   2
   2  -2   1 381305. 3866.01   2
   2   2   1 387426. 5031.81   2
  -2   2  -1 383401. 5129.12   1
  -2   2  -2 339925. 5467.02   1
   2  -2   2 328324. 3189.98   2
  -2  -2  -2 335933. 4720.15   2
   2   2   2 329425. 4500.01   2
  -2  -2  -2 328294. 5026.67   1
   2  -2   2 331186. 3203.65   3
  -2  -2  -3 80931.2 2271.78   3
  -2   2  -3 78495.0 2950.06   1
  -2  -2  -3 81034.1 2857.44   1
   2  -2   3 81227.1 3000.28   1
   2  -2   3 78913.0 1315.12   3
   2  -2   3 75275.8 1130.03   3
  -2  -2  -3 79906.8 2292.75   2
  -2   2  -4 396251. 7357.18   1
  -2  -2  -4 396613. 4995.74   2
  -2  -2  -4 402821. 6977.90   1
  -2  -2  -4 401837. 5222.65   3
  -2  -2  -5 57798.4 2893.04   1
  -2   2  -5 56922.7 3132.93   1
  -2  -2  -5 59916.7 2072.03   3
  -2  -2  -5 55861.6 1798.89   2
  -2  -2  -6 37623.7 2575.00   1
  -2   2  -6 38474.1 2812.92   1
  -2  -2  -7 64851.7 3682.25   1
  -2   2  -7 58605.9 3869.79   1
  -2  -2  -8 128158. 5635.92   1
   2  -4  -9 59916.1 3997.35   3
   2   4  -8 264129. 6685.72   2
   2  -4  -8 251793. 7890.20   3
   2   4  -7 5055.21 972.852   2
   2  -4  -7 4812.98 1022.41   3
   2   4  -6 72237.1 3526.33   2
   2  -4  -6 73267.9 3778.72   3
   2   4  -5 8440.57 1181.08   2
   2  -4  -5 7538.31 1159.88   3
   2  -4  -4 350387. 7294.42   3
  -2  -4   4 346369. 6609.19   1
   2  -4  -4 344805. 6628.08   2
   2   4  -4 339443. 7125.10   2
  -2  -4   3 128059. 4366.70   2
   2   4  -3 118966. 4092.21   2
   2  -4  -3 131726. 3953.43   2
  -2  -4   3 126472. 3801.08   1
  -2  -4   2 55585.1 2757.46   2
   2  -4  -2 54693.9 2451.17   2
  -2  -4   1 40279.8 2248.69   2
   2  -4  -1 40332.1 1988.15   2
  -2   4   1 38418.3 1245.81   1
  -2   4   0 689424. 6621.88   1
   2  -4   0 704019. 7913.95   2
   2  -4   0 697226. 6651.31   1
   2   4   0 673871. 9165.27   2
  -2  -4   0 696699. 9042.02   2
  -2   4  -1 41927.5 1913.26   1
   2   4   1 43505.2 2253.43   2
   2  -4   1 43094.1 1887.45   2
   2  -4   1 43684.8 1939.63   1
  -2  -4  -1 41755.6 2222.34   2
   2   4   2 1650.03 492.380   2
   2  -4   2 1359.89 340.226   2
  -2  -4  -2 1482.01 469.977   2
   2  -4   2 1194.71 335.878   3
   2  -4   2 1382.60 419.843   1
  -2   4  -2 1169.65 367.696   1
  -2  -4  -3 142168. 4157.63   3
   2  -4   3 127987. 3185.99   3
  -2   4  -3 138565. 4270.92   1
  -2  -4  -3 137931. 3612.00   1
   2  -4   3 140735. 3340.53   2
  -2  -4  -3 140492. 4078.78   2
  -2  -4  -4 385304. 7111.13   3
   2  -4   4 401049. 5536.72   2
   2  -4   4 382314. 5125.78   3
  -2  -4  -4 389473. 6787.03   2
  -2   4  -4 394940. 7966.50   1
  -2  -4  -4 390536. 6702.59   1
   2  -4   4 396994. 6290.41   3
  -2  -4  -5 28295.8 1931.80   1
  -2  -4  -5 31567.6 2072.05   3
  -2   4  -5 28162.2 2353.77   1
  -2  -4  -6 49043.1 2762.04   1
  -2   4  -6 50626.7 3413.44   1
   2  -6  -8 394.366 351.886   3
   2  -6  -7 623.502 435.138   3
   2   6  -7 1261.68 604.352   2
   2   6  -6 218356. 6818.65   2
   2  -6  -6 242136. 8082.38   3
   2  -6  -5 37733.2 3003.82   3
   2   6  -5 36143.4 2740.86   2
   2  -6  -4 45933.5 3149.75   3
   2   6  -4 47273.8 3077.42   2
   2   6  -3 141967. 5274.64   2
   2  -6  -3 144944. 5364.25   3
   2  -6  -2 418393. 8817.62   3
  -2  -6   2 413402. 7344.27   1
   2   6  -2 410158. 8846.11   2
   2   6  -1 4375.59 928.578   2
   2  -6  -1 4454.84 919.453   3
   2  -6   0 6274.99 1049.82   3
   2   6   0 8450.66 1265.33   2
   2  -6   0 7128.52 783.631   1
  -2   6   0 6420.08 770.927   1
  -2   6  -1 3872.31 694.949   1
   2   6   1 4654.93 941.145   2
   2  -6   1 4235.14 821.385   3
   2  -6   1 4587.65 735.409   1
   2  -6   2 444239. 8168.91   3
   2   6   2 441465. 8837.01   2
   2  -6   3 31377.0 2104.75   3
  -2  -6  -3 31718.8 2428.98   3
  -2  -6  -3 34715.2 1793.01   1
  -2   6  -3 30964.0 2312.61   1
  -2  -6  -4 8736.43 1339.13   3
  -2   6  -4 7679.78 1264.28   1
   2  -6   4 6720.79 957.394   3
  -2  -6  -4 8496.81 968.993   1
  -2  -6  -5 29589.7 2457.94   3
  -2   6  -5 26882.1 2550.41   1
   2   8  -6 67594.9 4360.77   2
   2  -8  -5 107195. 5776.69   3
   2   8  -5 102097. 5338.12   2
   2  -8  -4 27022.7 2815.27   3
   2   8  -4 29419.7 2854.72   2
   2  -8  -3 57096.7 3969.90   3
   2   8  -3 56929.7 3942.45   2
   2  -8  -2 175050. 6711.05   3
   2   8  -2 186093. 7063.92   2
   2  -8  -1 65262.2 3988.46   3
   2   8  -1 69465.0 4305.94   2
   2  -8   0 144452. 5735.76   3
   2   8   0 162245. 6519.60   2
   2   8   1 41806.7 3268.66   2
   2  -8   1 36247.3 2813.80   3
  -2  -8  -2 83252.9 4684.99   3
   2  -8   2 87568.6 4312.17   3
   2   8   2 88511.8 4822.34   2
  -2  -8  -3 10528.6 1716.21   3
   2  -8   3 10305.2 1501.61   3
  -2  -8  -4 29205.9 2873.91   3
   3  -1 -10 1778.81 723.968   3
   3   1  -9 81098.2 4181.90   2
   3  -1  -9 80379.4 4622.05   3
   3   1  -8 34909.5 2671.90   2
   3  -1  -8 35364.0 2861.63   3
  -3   1   7 44824.1 2299.46   1
   3   1  -7 42141.1 2981.35   3
   3  -1  -7 43842.7 2953.63   3
  -3   1   6 117191. 3429.93   1
   3   1  -6 116103. 4584.80   3
   3  -1  -6 116819. 4449.05   3
  -3  -1   6 127913. 5009.84   3
   3   1  -5 326780. 7229.81   3
  -3  -1   5 340199. 6110.37   1
   3  -1  -5 339499. 6993.23   3
  -3  -1   5 350461. 7720.82   3
  -3   1   5 335823. 6966.16   3
  -3  -1   4 29240.1 2064.34   3
  -3   1   4 27569.3 1828.34   3
  -3  -1   3 502830. 7971.70   3
  -3   1   3 508455. 7242.50   3
  -3  -1   2 27834.8 1767.23   3
  -3   1   2 30108.6 1609.76   3
   3   1  -1 566332. 7755.95   2
  -3  -1   1 548385. 7276.03   3
   3  -1  -1 578222. 6455.18   3
  -3   1   1 558596. 6299.64   3
  -3   1   0 3830.25 447.230   3
   3  -1   0 3531.35 457.331   3
   3   1   0 4138.11 638.617   2
  -3   1  -1 51350.0 1223.58   3
   3  -1   1 52048.8 1475.79   3
  -3   1  -1 52752.6 2165.55   1
  -3  -1  -1 51925.0 1813.54   3
   3   1   1 51889.4 1800.80   2
   3   1   2 16364.6 849.548   2
  -3  -1  -2 16618.7 1346.22   1
  -3  -1  -2 15217.1 842.650   3
  -3   1  -2 15714.9 1335.76   1
  -3  -1  -3 134502. 4198.54   1
  -3   1  -3 131556. 4185.05   1
  -3   1  -4 46558.8 2728.19   1
  -3  -1  -4 46444.3 2678.35   1
  -3  -1  -5 93713.5 4144.85   1
  -3   1  -5 89854.1 4156.72   1
  -3  -1  -6 41100.1 2954.78   1
  -3   1  -6 43431.6 3153.07   1
  -3  -1  -7 173710. 6612.16   1
   3  -3  -9 9780.32 1628.90   3
   3   3  -9 9262.86 1389.69   2
   3  -3  -8 2192.14 756.116   3
   3   3  -8 2988.57 842.226   2
   3   3  -7 145147. 5413.89   2
   3  -3  -7 149521. 5647.01   3
   3  -3  -6 263.941 335.358   3
   3   3  -6 702.453 422.120   2
  -3   3   6 762.424 236.938   1
   3  -3  -5 129552. 4601.82   3
  -3   3   5 121949. 2446.20   1
   3   3  -5 127322. 4714.81   2
  -3   3   4 20768.2 1697.53   3
  -3   3   4 19736.7 903.323   1
  -3  -3   4 21674.0 2005.45   3
   3  -3  -4 19662.6 1692.20   3
  -3  -3   4 18531.3 1506.39   1
   3   3  -4 20164.2 1810.82   2
  -3   3   3 661624. 9024.89   3
  -3  -3   3 688944. 10590.1   3
  -3   3   2 4725.14 707.133   3
  -3  -3   2 4458.17 811.979   2
  -3   3   2 4391.39 444.827   1
  -3  -3   1 104234. 3675.54   2
  -3   3   1 102319. 3066.97   3
  -3   3   1 104601. 2489.38   1
  -3  -3   0 157376. 4373.20   2
   3  -3   0 147501. 3252.62   2
   3  -3   0 155696. 3574.00   3
  -3   3   0 147246. 3380.75   1
   3  -3   1 308193. 4618.54   3
  -3   3  -1 301072. 5375.69   1
   3  -3   1 300622. 4400.51   2
  -3  -3  -1 302541. 5969.47   2
  -3   3  -2 281.747 254.844   1
   3  -3   2 385.968 161.984   2
   3  -3   2-23.9671 79.3994   3
  -3  -3  -2 386.989 243.068   2
  -3  -3  -3 40999.0 1936.29   3
  -3   3  -3 39590.4 2377.68   1
  -3  -3  -3 40270.0 2238.78   1
   3  -3   3 40924.6 1098.14   3
   3  -3   3 39631.2 1164.63   2
  -3  -3  -3 38095.0 2002.47   2
  -3  -3  -4 32940.2 1827.42   2
  -3  -3  -4 34564.1 1770.76   3
  -3   3  -4 31958.4 2365.12   1
  -3  -3  -4 33160.6 2217.16   1
  -3  -3  -5 182158. 5593.98   1
  -3   3  -5 195864. 6364.49   1
  -3  -3  -6 390.885 353.843   1
  -3   3  -6 17.6029 270.409   1
  -3  -3  -7 42591.9 3140.39   1
   3  -5  -9 79432.5 5010.02   3
   3  -5  -8 10030.4 1754.41   3
   3   5  -8 7861.67 1346.22   2
   3   5  -7 92052.9 4584.05   2
   3  -5  -7 101970. 5192.88   3
   3  -5  -6 7831.38 1415.29   3
   3   5  -6 7270.79 1297.83   2
   3   5  -5 146273. 5520.94   2
   3  -5  -5 146417. 5673.61   3
   3   5  -4 42489.0 2927.46   2
   3  -5  -4 44935.5 2939.03   3
   3  -5  -3 122215. 4549.60   3
   3   5  -3 122539. 4837.56   2
   3  -5  -2 136596. 4597.14   3
  -3   5   2 138279. 2364.81   1
   3   5  -2 135620. 5054.30   2
   3  -5  -1 344364. 7026.30   3
  -3   5   1 341049. 4817.50   1
   3   5  -1 335160. 7732.47   2
   3  -5   0 12055.4 1270.61   3
  -3   5   0 11802.2 1050.20   1
   3  -5   0 14875.7 1315.15   2
   3   5   0 13925.3 1558.35   2
   3  -5   1 74909.6 3017.05   3
  -3   5  -1 77585.0 2992.30   1
   3   5   1 79225.7 3582.39   2
   3  -5   1 81280.3 3001.51   2
   3  -5   2 21730.5 1533.20   3
   3   5   2 21189.6 1850.64   2
  -3   5  -2 20119.8 1678.14   1
   3  -5   2 20894.4 1477.10   2
  -3  -5  -3 104454. 3988.74   3
   3   5   3 99360.1 3869.19   2
  -3  -5  -3 105365. 3607.58   1
  -3   5  -3 103084. 4149.79   1
  -3  -5  -4 25238.8 2013.41   3
  -3   5  -4 20334.1 2021.16   1
  -3  -5  -4 22741.9 1809.23   1
  -3  -5  -5 104044. 4085.57   1
  -3   5  -5 102208. 4925.13   1
   3   7  -7 17164.3 2304.88   2
   3   7  -6 14485.8 2026.23   2
   3  -7  -6 19076.9 2539.45   3
   3   7  -5 228895. 7871.88   2
   3  -7  -5 214581. 7877.29   3
   3   7  -4 688.962 523.924   2
   3  -7  -4 1095.37 555.120   3
   3  -7  -3 42743.6 3237.37   3
   3   7  -3 50602.6 3682.51   2
   3  -7  -2 10618.7 1542.76   3
   3   7  -2 11881.9 1724.96   2
   3  -7  -1 119542. 5070.02   3
   3   7  -1 128617. 5687.85   2
   3  -7   0 79257.1 4048.90   3
  -3   7   0 81847.5 3137.95   1
   3   7   0 87109.6 4637.57   2
   3  -7   1 86606.8 4076.08   3
  -3   7  -1 89824.3 3623.87   1
   3   7   1 95393.3 4778.92   2
  -3   7  -2 8404.43 1222.33   1
   3   7   2 7454.89 1323.36   2
   3  -7   2 7080.70 1112.04   3
   3  -7   3 224252. 6039.92   3
  -3   7  -3 209983. 6642.68   1
  -3  -7  -3 213469. 7032.66   3
  -3  -7  -4 2972.27 859.254   3
  -3   7  -4 1485.59 590.510   1
   3   9  -2 138.366 375.570   2
   3  -9  -2 258.812 481.145   3
   3  -9  -1 47550.0 3724.35   3
   3   9  -1 50258.6 4197.61   2
   3  -9   0 5588.49 1242.76   3
   3  -9   1 158716. 6497.66   3
   3  -9   2 2902.84 930.912   3
   4   0 -10 4847.38 1192.29   2
   4   0  -9 195.613 389.186   3
   4   0  -8 442120. 10721.7   3
   4   0  -7-16.5584 96.1867   3
   4   0  -6 12587.6 1605.82   3
  -4   0   6 10486.3 1156.70   1
   4   0  -5 103.447 272.349   3
  -4   0   5-42.4051 190.224   3
  -4   0   4 320127. 6922.22   3
  -4   0   3 57.2419 187.307   3
  -4   0   2 283972. 5633.58   3
   4   0  -1 419.585 263.959   3
  -4   0   1 257.250 158.721   3
   4   0   0 999999. 10355.6   2
  -4   0   0 998266. 8457.88   3
  -4   0  -1 652.656 194.066   3
   4   0   1 669.272 244.728   2
   4   0   2 8765.33 535.640   2
  -4   0  -2 9126.30 1135.69   1
  -4   0  -3 366.214 289.410   1
  -4   0  -4 320845. 7812.38   1
  -4   0  -5 116.040 333.748   1
   4  -2 -10 204104. 8184.22   3
   4   2  -9 19728.0 2275.66   2
   4  -2  -9 20635.0 2486.06   3
   4   2  -8 12316.7 1769.95   2
   4  -2  -8 12531.7 1784.22   3
   4   2  -7 85879.6 4382.63   2
  -4   2   7 80801.7 2971.27   1
   4  -2  -7 80914.6 4224.22   3
   4   2  -6 151435. 5553.18   2
   4  -2  -6 152492. 5422.88   3
   4   2  -5 134847. 4968.98   2
   4  -2  -5 136418. 4791.26   3
  -4   2   4 192695. 5158.96   3
   4   2  -4 173649. 5477.23   2
   4  -2  -4 190041. 5398.18   3
  -4  -2   4 190277. 5973.04   3
  -4   2   3 85924.7 3254.01   3
  -4  -2   3 89538.8 3875.76   3
   4  -2  -3 88610.3 3507.42   3
   4   2  -2 304537. 7066.50   2
  -4   2   2 308466. 5785.43   3
  -4  -2   2 303267. 6736.02   3
  -4   2   1 173424. 3959.91   3
  -4  -2   1 170049. 4714.96   3
  -4   2   0 241776. 4155.31   3
  -4   2   0 244341. 4952.54   1
  -4  -2   0 233445. 5261.38   3
   4  -2   0 240141. 4513.46   3
  -4   2  -1 144993. 4197.78   1
  -4  -2  -1 143381. 3885.42   3
   4  -2   1 142315. 2993.82   3
   4  -2   2 376715. 3472.29   2
  -4  -2  -2 369450. 7140.34   1
   4   2   2 387388. 5534.59   2
  -4  -2  -2 373593. 5772.16   3
  -4   2  -2 391865. 7395.79   1
  -4   2  -3 31445.8 2311.70   1
  -4  -2  -3 33201.6 1305.96   3
   4   2   3 31842.1 1351.09   2
  -4  -2  -3 29595.4 2175.47   1
  -4  -2  -3 30415.8 1368.10   3
  -4   2  -4 4054.89 916.436   1
  -4  -2  -4 4493.51 949.457   1
  -4  -2  -5 39968.0 2907.57   1
  -4   2  -5 40524.2 3046.53   1
  -4  -2  -6 75456.6 4261.69   1
   4  -4  -9 29336.0 3040.25   3
   4   4  -9 27935.1 2727.70   2
   4  -4  -8 39236.5 3313.05   3
   4   4  -8 41649.0 3266.75   2
   4  -4  -7 3525.94 972.866   3
   4   4  -7 2346.76 764.347   2
  -4   4   6 250100. 3349.17   1
   4  -4  -6 245625. 7455.69   3
   4   4  -6 240111. 7407.65   2
  -4   4   5 23138.6 968.743   1
   4   4  -5 22789.6 2211.98   2
   4  -4  -5 22216.6 2094.46   3
   4  -4  -4 1105.43 416.701   3
   4   4  -4 1012.72 487.697   2
  -4   4   3 200020. 3273.79   1
   4   4  -3 205981. 6458.24   2
   4  -4  -3 197597. 5641.91   3
  -4   4   2 704378. 7025.15   1
   4   4  -2 687029. 11602.1   2
   4  -4  -2 707139. 10234.0   3
   4   4  -1 47482.7 2923.31   2
  -4   4   1 47026.9 2037.22   1
   4  -4  -1 50596.5 2598.88   3
   4   4   0 57251.5 3030.86   2
  -4   4   0 54771.0 2410.96   1
  -4  -4   0 61432.6 3230.88   2
   4  -4   0 57369.7 2372.64   2
   4  -4   0 57749.0 2615.68   3
   4  -4   1 762.448 281.057   2
   4   4   1 298.355 259.252   2
  -4  -4  -1 686.870 353.475   2
  -4   4  -1 443.171 298.513   1
  -4  -4  -2 200068. 5668.83   2
  -4   4  -2 193059. 5419.28   1
   4   4   2 198299. 5229.62   2
   4  -4   2 211429. 3979.50   2
   4  -4   2 213244. 4175.53   3
  -4  -4  -3 39000.3 2172.12   3
  -4   4  -3 34710.3 2487.03   1
   4   4   3 37091.7 2104.28   2
  -4  -4  -3 35513.9 2364.71   1
  -4   4  -4 16138.8 1883.95   1
  -4  -4  -4 16126.7 1724.22   1
  -4  -4  -5 23838.2 2220.96   1
   4   6  -8 160672. 6833.63   2
   4  -6  -7 9535.00 1770.68   3
   4   6  -7 8596.48 1554.94   2
   4   6  -6 18791.0 2288.30   2
   4  -6  -6 17327.1 2246.75   3
   4  -6  -5 1817.87 710.262   3
   4   6  -5 2079.96 765.761   2
   4   6  -4 411412. 10322.3   2
   4  -6  -4 420822. 10024.7   3
  -4   6   3 33413.9 950.965   1
   4  -6  -3 34663.6 2734.63   3
   4   6  -2 657.471 539.226   2
   4  -6  -2 1919.08 632.091   3
  -4   6   2 1267.93 297.898   1
   4   6  -1 6804.54 1356.54   2
   4  -6  -1 4995.34 971.245   3
  -4   6   1 5551.96 736.169   1
   4  -6   0 264644. 6558.26   3
  -4   6   0 279235. 5788.40   1
   4   6   1 5966.44 1181.80   2
   4  -6   1 4188.94 792.666   3
  -4   6  -1 4616.83 821.277   1
   4  -6   2 26609.9 1857.76   3
   4   6   2 27324.5 2373.12   2
  -4   6  -2 26565.4 2161.48   1
  -4  -6  -3 68573.0 3656.24   3
   4   6   3 71222.3 3652.53   2
  -4  -6  -3 69004.2 3349.52   1
  -4   6  -3 67127.5 3744.80   1
  -4   6  -4 174462. 6536.18   1
   4   8  -5 53762.7 4339.52   2
   4   8  -4 98563.1 5828.28   2
   4  -8  -4 96938.9 5566.49   3
   4   8  -3 3157.45 1061.15   2
   4  -8  -3 4138.83 1083.61   3
   4  -8  -2 66968.4 4300.15   3
   4   8  -2 68719.5 4829.22   2
   4  -8  -1 40434.3 3216.92   3
   4   8  -1 41007.7 3711.08   2
   4  -8   0 76973.2 4299.91   3
   4   8   0 76920.6 4995.19   2
   4  -8   1 108657. 4915.73   3
   4   8   1 113096. 5868.50   2
  -4   8  -2 31612.0 2586.32   1
   4   8   2 30304.3 2968.61   2
   5   1 -10 27518.1 2991.99   2
   5  -1 -10 26986.1 3146.05   3
   5  -1  -9 107537. 5876.47   3
   5   1  -9 105709. 5586.58   2
   5  -1  -8 14606.5 2083.23   3
   5   1  -7 272109. 8425.11   3
   5  -1  -7 273482. 8261.64   3
   5   1  -6 2098.01 758.563   3
   5  -1  -6 2752.88 806.075   3
   5   1  -5 47793.0 3142.05   3
   5  -1  -5 46792.7 3016.48   3
   5   1  -4 1327.68 568.138   3
   5  -1  -4 1370.40 486.235   3
   5  -1  -3 133408. 4545.43   3
  -5  -1   3 139973. 4784.97   3
  -5   1   3 141954. 4513.04   3
   5  -1  -2 14558.8 1439.91   3
  -5  -1   2 15761.2 1513.81   3
  -5   1   2 13447.9 1309.46   3
   5   1  -1 130303. 4707.89   2
  -5  -1   1 138765. 4185.77   3
  -5   1   1 139944. 3832.21   3
  -5   1   0 120991. 3055.42   3
  -5   1   0 112520. 3882.08   1
   5  -1   0 113292. 3532.76   3
  -5  -1   0 116495. 3462.37   3
   5  -1   1 336611. 5880.11   2
  -5   1  -1 346801. 4002.29   3
  -5   1  -1 333418. 7053.91   1
  -5  -1  -1 333933. 5094.31   3
   5   1   2 50230.8 1780.04   2
  -5  -1  -2 48980.2 2944.90   1
   5  -1   2 46249.0 1192.92   2
  -5   1  -2 49915.7 2971.71   1
  -5  -1  -2 52701.9 1384.77   3
  -5  -1  -3 113247. 4798.24   1
  -5   1  -3 108274. 4628.45   1
  -5  -1  -4 527.755 378.365   1
  -5   1  -4 1468.79 672.471   1
   5   3 -10 13446.5 2085.04   2
   5  -3  -9 194299. 7873.40   3
   5   3  -9 195664. 7697.70   2
   5  -3  -8 1587.36 703.107   3
   5   3  -8 482.087 467.869   2
   5   3  -7 48481.4 3571.88   2
   5  -3  -7 48939.4 3499.43   3
   5   3  -6 47832.9 3418.57   2
   5  -3  -6 45072.3 3193.93   3
   5   3  -5 279478. 7958.93   2
   5  -3  -5 297243. 7834.91   3
   5   3  -4 8825.77 1434.10   2
   5  -3  -4 8275.34 1273.42   3
   5  -3  -3 15794.9 1660.63   3
   5   3  -3 13244.1 1708.61   2
  -5   3   2 13557.4 1367.76   3
  -5   3   2 17244.3 1312.84   1
   5  -3  -2 14945.8 1533.85   3
   5   3  -2 13503.8 1697.96   2
  -5  -3   1 268574. 6776.10   3
  -5   3   1 261994. 5491.64   3
  -5   3   1 256618. 5417.31   1
   5  -3  -1 275005. 6187.86   3
  -5  -3   0 1027.97 417.916   3
   5   3   0 529.218 316.715   2
  -5   3   0 577.402 313.829   1
   5  -3   1 123577. 3158.70   2
   5   3   1 120434. 4045.65   2
   5  -3   1 124986. 3318.35   3
  -5   3  -1 116815. 4239.47   1
  -5  -3  -1 126823. 4305.85   3
  -5  -3  -2 1534.59 574.162   1
   5   3   2 858.149 337.747   2
  -5   3  -2 834.122 402.553   1
  -5   3  -3 222510. 6725.30   1
  -5  -3  -3 220970. 6618.01   1
  -5   3  -4 286.384 360.921   1
  -5  -3  -4 536.438 419.653   1
   5  -5  -8 21463.7 2688.86   3
   5   5  -8 20513.0 2523.20   2
   5   5  -7 163141. 6837.74   2
   5  -5  -7 164381. 7075.68   3
   5   5  -6 9753.71 1614.61   2
   5  -5  -6 11484.8 1771.24   3
   5   5  -5 43073.8 3383.84   2
   5  -5  -5 42091.4 3193.85   3
  -5   5   4 82687.7 2150.84   1
   5   5  -4 83957.1 4707.11   2
   5  -5  -4 79435.1 4153.47   3
   5   5  -3 183566. 6929.05   2
  -5   5   3 184250. 3741.53   1
   5  -5  -3 178753. 5944.40   3
   5   5  -2 57452.4 3829.37   2
   5  -5  -2 52655.5 3116.49   3
  -5   5   2 50575.9 2208.67   1
  -5   5   1 122973. 3786.05   1
   5   5  -1 118094. 5284.36   2
   5  -5  -1 116415. 4389.72   3
   5  -5   0 2783.46 690.009   3
   5   5   0 3738.10 889.150   2
  -5   5   0 2519.47 623.382   1
  -5   5  -1 91127.1 3860.04   1
   5   5   1 87927.8 4167.35   2
   5  -5   1 96332.9 3541.32   3
  -5  -5  -2 2799.43 724.730   1
   5   5   2 4268.23 930.826   2
  -5   5  -2 2175.02 629.885   1
  -5   5  -3 66363.8 3857.49   1
  -5  -5  -3 64033.9 3608.27   1
  -5  -5  -4 56611.2 3573.51   1
   5   7  -6 61652.4 4498.45   2
   5   7  -5 98214.9 5635.52   2
   5  -7  -5 90926.2 5301.89   3
   5   7  -4 14957.3 2248.57   2
   5  -7  -4 13077.0 1998.59   3
   5   7  -3 183888. 7795.26   2
   5  -7  -3 173060. 6892.28   3
   5   7  -2 610.818 500.048   2
   5  -7  -2-442.630 396.982   3
   5   7  -1 18587.4 2459.83   2
   5  -7  -1 19610.9 2116.69   3
   5   7   0 9709.74 1788.12   2
  -5   7   0 11391.0 1327.21   1
   5  -7   0 9605.36 1444.29   3
   5   7   1 173999. 6967.05   2
  -5   7  -1 161574. 5489.59   1
   5   7   2 4165.34 1043.03   2
  -5   7  -2 4883.28 1088.72   1
   6   0  -9-299.690 509.357   3
   6   0  -8 43819.4 3772.41   3
   6   0  -7-101.078 375.918   3
   6   0  -6 405799. 10157.8   3
   6   0  -5 53.3668 319.084   3
   6   0  -4 10416.3 1456.90   3
   6   0  -3-139.070 197.404   3
  -6   0   2 511433. 8829.05   3
  -6   0   1 232.883 215.846   3
   6   0  -1 70.9148 316.978   2
   6   0   0 15346.0 1591.45   2
  -6   0   0 12965.8 1137.19   3
  -6   0  -1 117.715 270.700   1
  -6   0  -2 305504. 8187.15   1
  -6   0  -3-732.038 420.098   1
   6   2  -9 29563.8 3206.92   2
   6  -2  -9 32474.9 3412.28   3
   6   2  -8 106598. 5782.09   2
   6  -2  -8 105448. 5740.96   3
   6   2  -7 100370. 5331.68   2
   6  -2  -7 102517. 5337.86   3
   6   2  -6 203138. 7306.05   2
   6  -2  -6 223565. 7441.33   3
   6   2  -5 104647. 5050.54   2
   6  -2  -5 110443. 4985.23   3
   6   2  -4 275309. 8043.98   2
   6  -2  -4 281092. 7611.84   3
   6   2  -3 29277.7 2608.41   2
   6  -2  -3 33008.9 2505.04   3
   6  -2  -2 2058.57 616.987   3
  -6   2   2 2290.60 600.775   3
   6   2  -2 1818.59 668.984   2
  -6   2   1 55021.4 2596.61   3
  -6   2   1 49317.0 2709.36   1
   6  -2  -1 58953.5 3033.44   3
  -6  -2   1 59413.3 3164.37   3
   6   2  -1 52252.7 3308.08   2
  -6   2   0 193128. 4247.42   3
  -6   2   0 185277. 5545.02   1
  -6  -2   0 189601. 5196.82   3
   6   2   0 185369. 5663.76   2
   6   2   1 99489.9 3593.55   2
  -6   2  -1 93587.5 4232.74   1
  -6  -2  -2 101971. 4811.33   1
  -6   2  -2 95739.3 4524.69   1
  -6   2  -3 41181.3 3159.25   1
  -6  -2  -3 45627.0 3386.71   1
   6  -4  -8 285847. 9682.02   3
   6   4  -8 307841. 9973.77   2
   6  -4  -7 24821.6 2739.16   3
   6   4  -7 29676.0 3023.47   2
   6  -4  -6 7525.43 1431.97   3
   6   4  -6 7766.43 1457.57   2
   6  -4  -5 15403.6 1950.22   3
   6   4  -5 13360.3 1947.25   2
   6  -4  -4 299515. 8336.16   3
   6   4  -4 287083. 8839.46   2
  -6   4   3 54737.8 2509.50   1
   6  -4  -3 56462.0 3460.98   3
   6   4  -3 59557.3 3992.89   2
  -6   4   2 35706.4 2168.87   1
   6   4  -2 41998.5 3333.56   2
   6  -4  -2 40252.7 2787.34   3
   6   4  -1 9230.40 1485.71   2
  -6   4   1 10010.0 1253.03   1
   6  -4  -1 11165.3 1385.71   3
   6   4   0 180950. 6113.74   2
   6  -4   0 189548. 5241.46   3
  -6   4   0 175237. 5414.03   1
   6   4   1 2727.63 750.020   2
  -6   4  -1 2878.28 786.553   1
  -6  -4  -2 5175.06 1110.43   1
  -6   4  -2 7294.44 1253.29   1
  -6  -4  -3 52014.7 3554.46   1
   6   6  -6 285427. 9595.63   2
   6  -6  -6 273920. 9420.63   3
   6  -6  -5-271.528 416.706   3
   6   6  -5 126.959 346.764   2
   6   6  -4 11559.3 1951.88   2
   6  -6  -4 13311.4 1895.49   3
   6   6  -3 83076.0 5270.86   2
   6  -6  -3 75564.9 4257.66   3
  -6   6   2 193504. 4846.54   1
   6   6  -2 198672. 8023.17   2
   6  -6  -2 178097. 6266.31   3
  -6   6   1 39506.9 2409.33   1
   6   6  -1 41336.7 3606.21   2
   6  -6  -1 37727.2 2774.63   3
  -6   6   0 17360.8 1770.53   1
   6   6   0 21485.7 2467.97   2
   6   6   1 1478.19 709.842   2
  -6   6  -1 267.902 322.158   1
  -6  -6  -2 187194. 6457.96   1
   6  -8  -2 148861. 6529.51   3
   7  -1  -8 434.995 391.844   3
   7   1  -8 499.670 438.498   2
   7   1  -7 33211.9 3223.21   2
   7  -1  -7 30872.9 3158.12   3
   7   1  -6 34210.8 3143.99   2
   7  -1  -6 36638.1 3282.24   3
   7   1  -5 229593. 7836.36   2
   7  -1  -5 240119. 8019.44   3
   7   1  -4 58509.3 3890.60   2
   7  -1  -4 57567.7 3743.79   3
   7   1  -3 160526. 6380.98   2
   7  -1  -3 151967. 5846.20   3
   7   1  -2 26192.6 2537.50   2
   7  -1  -2 26913.2 2351.47   3
   7  -1  -1 147201. 5455.39   2
   7   1  -1 162178. 5985.63   2
  -7   1   0 5648.86 1133.62   1
   7   1   0 6499.39 1094.09   2
   7  -1   0 5929.78 1047.49   2
  -7  -1  -1 14164.5 1922.90   1
  -7   1  -1 16060.0 1993.12   1
   7   3  -8 3159.29 1098.09   2
   7   3  -7 161638. 7300.67   2
   7  -3  -7 164070. 7201.54   3
   7  -3  -6 4907.33 1242.33   3
   7   3  -6 5559.41 1385.93   2
   7   3  -5 73540.3 4688.21   2
   7  -3  -5 73611.1 4443.60   3
   7  -3  -4 11295.2 1674.29   3
   7   3  -4 11946.8 1908.08   2
   7  -3  -3 232252. 7262.54   3
   7   3  -3 232192. 8172.33   2
  -7   3   2 12697.2 1454.25   1
   7  -3  -2 16329.9 1858.65   3
   7   3  -2 16834.6 2145.46   2
  -7   3   1 26047.2 2199.41   1
   7  -3  -1 25571.4 2197.27   3
   7   3  -1 25791.1 2548.87   2
   7   3   0 18908.1 1986.90   2
  -7   3   0 17741.4 1945.69   1
  -7  -3  -1 150914. 6249.45   1
  -7   3  -1 146727. 5794.19   1
   7  -5  -6-449.554 431.791   3
   7   5  -6 434.383 417.739   2
   7  -5  -5 80058.6 4810.36   3
   7   5  -5 90112.0 5444.56   2
   7  -5  -4 3365.52 1051.73   3
   7   5  -4 4253.96 1231.64   2
  -7   5   3 112645. 4047.42   1
   7   5  -3 111540. 6136.37   2
   7  -5  -3 102444. 4996.13   3
   7   5  -2 30297.8 3126.02   2
   7  -5  -2 29702.4 2581.35   3
  -7   5   2 28731.5 2183.07   1
   7   5  -1 100908. 5440.50   2
  -7   5   1 93235.1 4182.04   1
  -7   5   0 9555.57 1436.73   1
   7   5   0 9388.32 1584.24   2
   7  -7  -3 3673.60 1021.16   3
   7  -7  -2 690.933 451.235   3
   8   0  -7-3.22876 311.521   3
   8   0  -6 27931.9 3044.46   3
   8   0  -4 353768. 10273.5   2
   8   0  -3 255.598 304.271   2
   8   0  -2 58091.9 3946.12   2
   8   0  -1-152.482 236.313   2
   8   2  -7 43194.5 3938.29   2
   8  -2  -7 51247.0 4324.72   3
   8   2  -6 147813. 7136.99   2
   8  -2  -6 160934. 7405.67   3
   8   2  -5 67024.2 4728.13   2
   8  -2  -5 65675.6 4561.93   3
   8   2  -4 25018.8 2845.56   2
   8  -2  -4 26860.4 2782.23   3
   8  -2  -3 33302.7 2940.76   3
   8   2  -3 31141.7 3085.33   2
  -8   2   2 147999. 5555.65   1
   8  -2  -2 162315. 6142.72   3
   8   2  -2 158136. 6707.97   2
  -8   2   1 55623.0 3637.08   1
   8   2  -1 55622.0 3732.02   2
   8  -4  -6 100149. 5815.85   3
   8  -4  -5 1350.55 750.146   3
   8   4  -5 162.461 502.866   2
  -8   4   4 20716.8 1870.82   1
   8  -4  -4 20774.9 2481.71   3
   8   4  -4 23403.4 2838.00   2
  -8   4   3 44106.6 2859.73   1
   8  -4  -3 52220.9 3749.10   3
   8   4  -3 53244.4 4279.19   2
  -8   4   2 266912. 7406.86   1
   8   4  -2 273908. 9351.16   2
   8   4  -1 39850.9 3428.30   2
  -8   4   1 40066.7 2995.54   1
   9  -1  -6 31378.6 3472.43   3
   9   1  -5 15745.7 2430.75   2
   9  -1  -5 14802.5 2310.31   3
   9   1  -4 3648.42 1144.49   2
   9   1  -3 78498.9 5073.09   2
   9  -1  -3 72690.8 4743.74   2
   9  -3  -5 116336. 6458.48   3
  -9   3   4 4627.21 1000.14   1
   9  -3  -4 4890.86 1461.46   3
  -9   3   3 3344.11 846.450   1
   9   3  -3 2947.56 1194.11   2
   0   0   0    0.00    0.00   0

TITL cryst2-He-75K in C2/c
REM C2/c (#15 in standard setting)
CELL 0.71073   7.030258   7.572073   7.587877  90.0000 116.2525  90.0000
ZERR    4.00   0.000884   0.000686   0.000919   0.0000   0.0157   0.0000
LATT  7
SYMM -x, y,-z+1/2
SFAC H O S Fe
UNIT 8.00 20.00 4.00 4.00
TREF
HKLF 4
END
;
_shelx_hkl_checksum              88751
loop_
_space_group_symop_operation_xyz
'x, y, z'
'-x, y, -z+1/2'
'x+1/2, y+1/2, z'
'-x+1/2, y+1/2, -z+1/2'
'-x, -y, -z'
'x, -y, z-1/2'
'-x+1/2, -y+1/2, -z'
'x+1/2, -y+1/2, z-1/2'
loop_
_atom_site_label
_atom_site_type_symbol
_atom_site_fract_x
_atom_site_fract_y
_atom_site_fract_z
_atom_site_U_iso_or_equiv
_atom_site_adp_type
_atom_site_occupancy
_atom_site_site_symmetry_order
_atom_site_calc_flag
_atom_site_refinement_flags_posn
_atom_site_refinement_flags_adp
_atom_site_refinement_flags_occupancy
_atom_site_disorder_assembly
_atom_site_disorder_group
Fe Fe 0.000000 0.500000 0.000000 0.00280(18) Uani 1 2 d S . P . .
S S 0.000000 0.15532(8) 0.250000 0.0027(2) Uani 1 2 d S T P . .
O1 O 0.1686(2) 0.0458(2) 0.40091(19) 0.0052(3) Uani 1 1 d . . . . .
O2 O 0.1002(2) 0.27064(17) 0.15934(18) 0.0049(3) Uani 1 1 d . . . . .
O3 O 0.000000 0.6434(3) 0.250000 0.0046(4) Uani 1 2 d S T P . .
H H 0.098(4) 0.712(3) 0.291(3) 0.011(6) Uiso 1 1 d . . . . .
loop_
_atom_site_aniso_label
_atom_site_aniso_U_11
_atom_site_aniso_U_22
_atom_site_aniso_U_33
_atom_site_aniso_U_23
_atom_site_aniso_U_13
_atom_site_aniso_U_12
Fe 0.0025(3) 0.0027(3) 0.0028(2) 0.00058(12) 0.00097(18) 0.00005(13)
S 0.0021(4) 0.0026(3) 0.0030(3) 0.000 0.0010(3) 0.000
O1 0.0039(7) 0.0047(7) 0.0060(6) 0.0018(5) 0.0016(5) 0.0012(6)
O2 0.0041(7) 0.0047(7) 0.0062(6) 0.0020(5) 0.0027(5) 0.0005(5)
O3 0.0039(10) 0.0050(10) 0.0046(9) 0.000 0.0017(8) 0.000
loop_
_atom_type_symbol
_atom_type_description
_atom_type_scat_dispersion_real
_atom_type_scat_dispersion_imag
_atom_type_scat_source
O O 0.0106 0.0060 'International Tables Vol C Tables 4.2.6.8 and 6.1.1.4'
H H 0.0000 0.0000 'International Tables Vol C Tables 4.2.6.8 and 6.1.1.4'
S S 0.1246 0.1234 'International Tables Vol C Tables 4.2.6.8 and 6.1.1.4'
Fe Fe 0.3463 0.8444 'International Tables Vol C Tables 4.2.6.8 and 6.1.1.4'
loop_
_geom_angle_atom_site_label_1
_geom_angle_atom_site_label_2
_geom_angle_atom_site_label_3
_geom_angle
_geom_angle_site_symmetry_1
_geom_angle_site_symmetry_3
_geom_angle_publ_flag
O2 Fe O2 180.00(8) . 5_565 ?
O2 Fe O1 94.83(5) . 8_455 ?
O2 Fe O1 85.17(5) 5_565 8_455 ?
O2 Fe O1 85.17(5) . 4 ?
O2 Fe O1 94.83(5) 5_565 4 ?
O1 Fe O1 180.0 8_455 4 ?
O2 Fe O3 91.88(5) . . ?
O2 Fe O3 88.12(5) 5_565 . ?
O1 Fe O3 86.59(4) 8_455 . ?
O1 Fe O3 93.41(4) 4 . ?
O2 Fe O3 88.12(5) . 5_565 ?
O2 Fe O3 91.88(5) 5_565 5_565 ?
O1 Fe O3 93.41(4) 8_455 5_565 ?
O1 Fe O3 86.59(4) 4 5_565 ?
O3 Fe O3 180.0 . 5_565 ?
O2 Fe O2 83.07(2) . 8_455 ?
O2 Fe O2 96.93(2) 5_565 8_455 ?
O1 Fe O2 42.99(4) 8_455 8_455 ?
O1 Fe O2 137.01(4) 4 8_455 ?
O3 Fe O2 128.10(3) . 8_455 ?
O3 Fe O2 51.90(3) 5_565 8_455 ?
O2 Fe O2 96.93(2) . 4 ?
O2 Fe O2 83.07(2) 5_565 4 ?
O1 Fe O2 137.01(4) 8_455 4 ?
O1 Fe O2 42.99(4) 4 4 ?
O3 Fe O2 51.90(3) . 4 ?
O3 Fe O2 128.10(3) 5_565 4 ?
O2 Fe O2 180.0 8_455 4 ?
O2 Fe O2 137.66(5) . 6_565 ?
O2 Fe O2 42.34(5) 5_565 6_565 ?
O1 Fe O2 113.02(5) 8_455 6_565 ?
O1 Fe O2 66.98(5) 4 6_565 ?
O3 Fe O2 119.82(5) . 6_565 ?
O3 Fe O2 60.18(5) 5_565 6_565 ?
O2 Fe O2 95.82(3) 8_455 6_565 ?
O2 Fe O2 84.18(3) 4 6_565 ?
O2 Fe O2 42.34(5) . 2 ?
O2 Fe O2 137.66(5) 5_565 2 ?
O1 Fe O2 66.98(5) 8_455 2 ?
O1 Fe O2 113.02(5) 4 2 ?
O3 Fe O2 60.18(5) . 2 ?
O3 Fe O2 119.82(5) 5_565 2 ?
O2 Fe O2 84.18(3) 8_455 2 ?
O2 Fe O2 95.82(3) 4 2 ?
O2 Fe O2 180.00(2) 6_565 2 ?
O1 S O1 110.98(12) 2 . ?
O1 S O2 109.96(7) 2 . ?
O1 S O2 108.84(8) . . ?
O1 S O2 108.84(8) 2 2 ?
O1 S O2 109.96(7) . 2 ?
O2 S O2 108.21(11) . 2 ?
S O1 Fe 136.10(8) . 4_545 ?
S O1 O2 35.95(5) . . ?
Fe O1 O2 100.28(6) 4_545 . ?
S O1 O1 34.51(6) . 2 ?
Fe O1 O1 139.56(9) 4_545 2 ?
O2 O1 O1 60.32(5) . 2 ?
S O1 O2 35.37(5) . 2 ?
Fe O1 O2 144.46(8) 4_545 2 ?
O2 O1 O2 60.09(7) . 2 ?
O1 O1 O2 59.63(5) 2 2 ?
S O1 O2 126.88(8) . 4_545 ?
Fe O1 O2 46.58(4) 4_545 4_545 ?
O2 O1 O2 108.32(5) . 4_545 ?
O1 O1 O2 102.66(6) 2 4_545 ?
O2 O1 O2 161.63(8) 2 4_545 ?
S O1 O3 171.33(8) . 7_556 ?
Fe O1 O3 48.26(3) 4_545 7_556 ?
O2 O1 O3 146.24(7) . 7_556 ?
O1 O1 O3 150.17(5) 2 7_556 ?
O2 O1 O3 136.02(6) 2 7_556 ?
O2 O1 O3 61.79(4) 4_545 7_556 ?
S O1 O2 116.10(8) . 8_556 ?
Fe O1 O2 41.88(4) 4_545 8_556 ?
O2 O1 O2 87.52(5) . 8_556 ?
O1 O1 O2 147.79(5) 2 8_556 ?
O2 O1 O2 104.34(6) 2 8_556 ?
O2 O1 O2 88.47(5) 4_545 8_556 ?
O3 O1 O2 61.21(5) 7_556 8_556 ?
S O1 O3 91.88(6) . 3_545 ?
Fe O1 O3 44.68(3) 4_545 3_545 ?
O2 O1 O3 57.00(5) . 3_545 ?
O1 O1 O3 101.61(7) 2 3_545 ?
O2 O1 O3 114.26(7) 2 3_545 ?
O2 O1 O3 61.68(5) 4_545 3_545 ?
O3 O1 O3 92.94(5) 7_556 3_545 ?
O2 O1 O3 57.14(4) 8_556 3_545 ?
S O1 O3 102.92(7) . 1_545 ?
Fe O1 O3 97.29(5) 4_545 1_545 ?
O2 O1 O3 118.49(6) . 1_545 ?
O1 O1 O3 68.41(3) 2 1_545 ?
O2 O1 O3 117.94(6) 2 1_545 ?
O2 O1 O3 52.56(4) 4_545 1_545 ?
O3 O1 O3 82.53(4) 7_556 1_545 ?
O2 O1 O3 137.17(6) 8_556 1_545 ?
O3 O1 O3 106.99(5) 3_545 1_545 ?
S O1 O2 126.82(8) . 6_556 ?
Fe O1 O2 96.53(5) 4_545 6_556 ?
O2 O1 O2 162.45(8) . 6_556 ?
O1 O1 O2 103.17(6) 2 6_556 ?
O2 O1 O2 107.64(6) 2 6_556 ?
O2 O1 O2 79.86(5) 4_545 6_556 ?
O3 O1 O2 51.30(4) 7_556 6_556 ?
O2 O1 O2 108.56(5) 8_556 6_556 ?
O3 O1 O2 137.84(6) 3_545 6_556 ?
O3 O1 O2 53.72(3) 1_545 6_556 ?
S O1 O2 113.56(8) . 7_556 ?
Fe O1 O2 77.04(5) 4_545 7_556 ?
O2 O1 O2 108.79(6) . 7_556 ?
O1 O1 O2 140.77(7) 2 7_556 ?
O2 O1 O2 81.94(5) 2 7_556 ?
O2 O1 O2 116.22(6) 4_545 7_556 ?
O3 O1 O2 58.37(5) 7_556 7_556 ?
O2 O1 O2 44.39(5) 8_556 7_556 ?
O3 O1 O2 101.19(5) 3_545 7_556 ?
O3 O1 O2 132.57(5) 1_545 7_556 ?
O2 O1 O2 79.84(3) 6_556 7_556 ?
S O2 Fe 132.45(8) . . ?
S O2 O1 35.22(5) . . ?
Fe O2 O1 162.27(7) . . ?
S O2 O2 35.89(5) . 2 ?
Fe O2 O2 102.74(5) . 2 ?
O1 O2 O2 60.30(5) . 2 ?
S O2 O1 34.66(4) . 2 ?
Fe O2 O1 117.78(7) . 2 ?
O1 O2 O1 60.04(7) . 2 ?
O2 O2 O1 59.61(5) 2 2 ?
S O2 O3 109.34(7) . 3_545 ?
Fe O2 O3 118.13(6) . 3_545 ?
O1 O2 O3 75.42(6) . 3_545 ?
O2 O2 O3 131.64(7) 2 3_545 ?
O1 O2 O3 114.58(7) 2 3_545 ?
S O2 O1 162.03(8) . 4 ?
Fe O2 O1 48.25(4) . 4 ?
O1 O2 O1 137.36(6) . 4 ?
O2 O2 O1 129.66(4) 2 4 ?
O1 O2 O1 161.63(8) 2 4 ?
O3 O2 O1 72.48(6) 3_545 4 ?
S O2 O3 134.75(7) . 5_565 ?
Fe O2 O3 48.25(4) . 5_565 ?
O1 O2 O3 147.46(8) . 5_565 ?
O2 O2 O3 135.28(8) 2 5_565 ?
O1 O2 O3 100.39(6) 2 5_565 ?
O3 O2 O3 92.62(5) 3_545 5_565 ?
O1 O2 O3 61.63(5) 4 5_565 ?
S O2 O1 91.73(7) . 8_455 ?
Fe O2 O1 43.29(4) . 8_455 ?
O1 O2 O1 126.89(8) . 8_455 ?
O2 O2 O1 73.07(6) 2 8_455 ?
O1 O2 O1 75.66(6) 2 8_455 ?
O3 O2 O1 155.29(6) 3_545 8_455 ?
O1 O2 O1 91.53(5) 4 8_455 ?
O3 O2 O1 62.90(4) 5_565 8_455 ?
S O2 O3 102.75(6) . . ?
Fe O2 O3 46.22(3) . . ?
O1 O2 O3 117.20(6) . . ?
O2 O2 O3 66.86(3) 2 . ?
O1 O2 O3 116.64(6) 2 . ?
O3 O2 O3 125.86(6) 3_545 . ?
O1 O2 O3 64.53(4) 4 . ?
O3 O2 O3 94.47(4) 5_565 . ?
O1 O2 O3 57.87(4) 8_455 . ?
S O2 O1 95.55(6) . 6 ?
Fe O2 O1 111.00(5) . 6 ?
O1 O2 O1 85.61(4) . 6 ?
O2 O2 O1 130.17(4) 2 6 ?
O1 O2 O1 72.36(6) 2 6 ?
O3 O2 O1 58.05(4) 3_545 6 ?
O1 O2 O1 100.14(5) 4 6 ?
O3 O2 O1 62.77(5) 5_565 6 ?
O1 O2 O1 108.56(5) 8_455 6 ?
O3 O2 O1 157.16(5) . 6 ?
S O2 O1 82.72(6) . 7_556 ?
Fe O2 O1 97.09(5) . 7_556 ?
O1 O2 O1 71.21(6) . 7_556 ?
O2 O2 O1 62.55(5) 2 7_556 ?
O1 O2 O1 116.91(6) 2 7_556 ?
O3 O2 O1 86.58(5) 3_545 7_556 ?
O1 O2 O1 79.53(4) 4 7_556 ?
O3 O2 O1 139.26(6) 5_565 7_556 ?
O1 O2 O1 109.42(6) 8_455 7_556 ?
O3 O2 O1 55.36(3) . 7_556 ?
O1 O2 O1 142.02(5) 6 7_556 ?
Fe O3 Fe 121.35(9) . 2 ?
Fe O3 O2 112.01(3) . 3_455 ?
Fe O3 O2 88.34(3) 2 3_455 ?
Fe O3 O2 88.34(3) . 4 ?
Fe O3 O2 112.02(3) 2 4 ?
O2 O3 O2 138.65(10) 3_455 4 ?
Fe O3 O1 45.15(3) . 8_455 ?
Fe O3 O1 103.42(6) 2 8_455 ?
O2 O3 O1 70.65(4) 3_455 8_455 ?
O2 O3 O1 132.26(4) 4 8_455 ?
Fe O3 O1 103.42(6) . 7_556 ?
Fe O3 O1 45.15(3) 2 7_556 ?
O2 O3 O1 132.26(4) 3_455 7_556 ?
O2 O3 O1 70.65(4) 4 7_556 ?
O1 O3 O1 122.22(9) 8_455 7_556 ?
Fe O3 O2 159.77(7) . 6_566 ?
Fe O3 O2 43.64(3) 2 6_566 ?
O2 O3 O2 83.74(4) 3_455 6_566 ?
O2 O3 O2 87.38(5) 4 6_566 ?
O1 O3 O2 139.68(5) 8_455 6_566 ?
O1 O3 O2 56.58(4) 7_556 6_566 ?
Fe O3 O2 43.64(3) . 5_565 ?
Fe O3 O2 159.77(7) 2 5_565 ?
O2 O3 O2 87.38(5) 3_455 5_565 ?
O2 O3 O2 83.74(4) 4 5_565 ?
O1 O3 O2 56.58(4) 8_455 5_565 ?
O1 O3 O2 139.68(5) 7_556 5_565 ?
O2 O3 O2 154.69(9) 6_566 5_565 ?
Fe O3 O2 41.90(4) . . ?
Fe O3 O2 81.01(6) 2 . ?
O2 O3 O2 125.86(6) 3_455 . ?
O2 O3 O2 93.64(4) 4 . ?
O1 O3 O2 60.92(5) 8_455 . ?
O1 O3 O2 66.27(5) 7_556 . ?
O2 O3 O2 118.73(6) 6_566 . ?
O2 O3 O2 85.53(4) 5_565 . ?
Fe O3 O2 81.01(6) . 2 ?
Fe O3 O2 41.90(4) 2 2 ?
O2 O3 O2 93.64(4) 3_455 2 ?
O2 O3 O2 125.86(6) 4 2 ?
O1 O3 O2 66.27(5) 8_455 2 ?
O1 O3 O2 60.92(5) 7_556 2 ?
O2 O3 O2 85.53(4) 6_566 2 ?
O2 O3 O2 118.73(6) 5_565 2 ?
O2 O3 O2 46.29(6) . 2 ?
Fe O3 O1 120.95(6) . 3_455 ?
Fe O3 O1 41.91(3) 2 3_455 ?
O2 O3 O1 47.58(4) 3_455 3_455 ?
O2 O3 O1 147.17(4) 4 3_455 ?
O1 O3 O1 79.90(4) 8_455 3_455 ?
O1 O3 O1 87.06(5) 7_556 3_455 ?
O2 O3 O1 59.96(4) 6_566 3_455 ?
O2 O3 O1 127.12(4) 5_565 3_455 ?
O2 O3 O1 99.15(6) . 3_455 ?
O2 O3 O1 53.79(4) 2 3_455 ?
Fe O3 O1 41.91(3) . 4 ?
Fe O3 O1 120.95(6) 2 4 ?
O2 O3 O1 147.17(4) 3_455 4 ?
O2 O3 O1 47.58(4) 4 4 ?
O1 O3 O1 87.06(5) 8_455 4 ?
O1 O3 O1 79.90(4) 7_556 4 ?
O2 O3 O1 127.12(4) 6_566 4 ?
O2 O3 O1 59.96(4) 5_565 4 ?
O2 O3 O1 53.79(4) . 4 ?
O2 O3 O1 99.15(6) 2 4 ?
O1 O3 O1 152.85(9) 3_455 4 ?
Fe O3 H 107.8(17) . . ?
Fe O3 H 109.5(17) 2 . ?
O2 O3 H 117.4(18) 3_455 . ?
O2 O3 H 22.9(18) 4 . ?
O1 O3 H 146.1(17) 8_455 . ?
O1 O3 H 78.5(17) 7_556 . ?
O2 O3 H 73.4(17) 6_566 . ?
O2 O3 H 90.0(17) 5_565 . ?
O2 O3 H 116.2(18) . . ?
O2 O3 H 139.3(17) 2 . ?
O1 O3 H 131.2(17) 3_455 . ?
O1 O3 H 69.4(17) 4 . ?
Fe O3 H 109.5(17) . 2 ?
Fe O3 H 107.8(17) 2 2 ?
O2 O3 H 22.9(18) 3_455 2 ?
O2 O3 H 117.4(18) 4 2 ?
O1 O3 H 78.5(17) 8_455 2 ?
O1 O3 H 146.1(17) 7_556 2 ?
O2 O3 H 90.0(17) 6_566 2 ?
O2 O3 H 73.4(17) 5_565 2 ?
O2 O3 H 139.3(17) . 2 ?
O2 O3 H 116.2(18) 2 2 ?
O1 O3 H 69.4(17) 3_455 2 ?
O1 O3 H 131.2(17) 4 2 ?
H O3 H 99(4) . 2 ?
loop_
_geom_bond_atom_site_label_1
_geom_bond_atom_site_label_2
_geom_bond_distance
_geom_bond_site_symmetry_2
_geom_bond_publ_flag
Fe O2 2.0530(13) . ?
Fe O2 2.0530(13) 5_565 ?
Fe O1 2.1085(15) 8_455 ?
Fe O1 2.1085(15) 4 ?
Fe O3 2.2195(10) . ?
Fe O3 2.2195(10) 5_565 ?
Fe O2 3.4686(14) 8_455 ?
Fe O2 3.4686(14) 4 ?
Fe O2 3.4979(13) 6_565 ?
Fe O2 3.4979(13) 2 ?
S O1 1.4645(15) 2 ?
S O1 1.4645(15) . ?
S O2 1.4908(13) . ?
S O2 1.4908(13) 2 ?
O1 O2 2.4036(19) . ?
O1 O1 2.414(3) 2 ?
O1 O2 2.4204(19) 2 ?
O1 O2 2.8163(19) 4_545 ?
O1 O3 2.9691(18) 7_556 ?
O1 O2 3.064(2) 8_556 ?
O1 O3 3.1510(15) 3_545 ?
O1 O3 3.280(2) 1_545 ?
O1 O2 3.3014(18) 6_556 ?
O1 O2 3.3035(19) 7_556 ?
O2 O2 2.415(2) 2 ?
O2 O3 2.7307(15) 3_545 ?
O2 O3 2.9735(13) 5_565 ?
O2 O3 3.073(2) . ?
O3 H 0.80(3) . ?
O3 H 0.80(2) 2 ?
loop_
_geom_hbond_atom_site_label_D
_geom_hbond_atom_site_label_H
_geom_hbond_atom_site_label_A
_geom_hbond_distance_DH
_geom_hbond_distance_HA
_geom_hbond_distance_DA
_geom_hbond_angle_DHA
_geom_hbond_site_symmetry_A
_geom_hbond_publ_flag
O3 H O2 0.80(3) 2.02(2) 2.7307(15) 148(2) 4 yes
loop_
_geom_torsion_atom_site_label_1
_geom_torsion_atom_site_label_2
_geom_torsion_atom_site_label_3
_geom_torsion_atom_site_label_4
_geom_torsion
_geom_torsion_site_symmetry_1
_geom_torsion_site_symmetry_2
_geom_torsion_site_symmetry_3
_geom_torsion_site_symmetry_4
_geom_torsion_publ_flag
O1 S O1 Fe 115.22(13) 2 . . 4_545 ?
O2 S O1 Fe -5.92(15) . . . 4_545 ?
O2 S O1 Fe -124.30(12) 2 . . 4_545 ?
O1 S O1 O2 121.14(6) 2 . . . ?
O2 S O1 O2 -118.38(11) 2 . . . ?
O2 S O1 O1 -121.14(6) . . . 2 ?
O2 S O1 O1 120.48(7) 2 . . 2 ?
O1 S O1 O2 -120.48(7) 2 . . 2 ?
O2 S O1 O2 118.38(11) . . . 2 ?
O1 S O1 O2 52.58(8) 2 . . 4_545 ?
O2 S O1 O2 -68.56(11) . . . 4_545 ?
O2 S O1 O2 173.05(11) 2 . . 4_545 ?
O1 S O1 O2 161.87(9) 2 . . 8_556 ?
O2 S O1 O2 40.72(9) . . . 8_556 ?
O2 S O1 O2 -77.66(9) 2 . . 8_556 ?
O1 S O1 O3 107.91(6) 2 . . 3_545 ?
O2 S O1 O3 -13.23(8) . . . 3_545 ?
O2 S O1 O3 -131.61(7) 2 . . 3_545 ?
O1 S O1 O3 0.0 2 . . 1_545 ?
O2 S O1 O3 -121.14(6) . . . 1_545 ?
O2 S O1 O3 120.48(7) 2 . . 1_545 ?
O1 S O1 O2 -54.08(7) 2 . . 6_556 ?
O2 S O1 O2 -175.22(8) . . . 6_556 ?
O2 S O1 O2 66.39(11) 2 . . 6_556 ?
O1 S O1 O2 -149.02(8) 2 . . 7_556 ?
O2 S O1 O2 89.84(8) . . . 7_556 ?
O2 S O1 O2 -28.54(9) 2 . . 7_556 ?
O1 S O2 Fe 77.75(12) 2 . . . ?
O1 S O2 Fe -160.49(10) . . . . ?
O2 S O2 Fe -41.02(7) 2 . . . ?
O1 S O2 O1 -121.76(12) 2 . . . ?
O2 S O2 O1 119.48(7) 2 . . . ?
O1 S O2 O2 118.76(7) 2 . . 2 ?
O1 S O2 O2 -119.48(7) . . . 2 ?
O1 S O2 O1 121.76(12) . . . 2 ?
O2 S O2 O1 -118.76(7) 2 . . 2 ?
O1 S O2 O3 -105.51(8) 2 . . 3_545 ?
O1 S O2 O3 16.24(9) . . . 3_545 ?
O2 S O2 O3 135.72(8) 2 . . 3_545 ?
O1 S O2 O1 161.7(3) 2 . . 4 ?
O1 S O2 O1 -76.5(3) . . . 4 ?
O2 S O2 O1 43.0(2) 2 . . 4 ?
O1 S O2 O3 9.08(13) 2 . . 5_565 ?
O1 S O2 O3 130.84(11) . . . 5_565 ?
O2 S O2 O3 -109.68(12) 2 . . 5_565 ?
O1 S O2 O1 61.36(9) 2 . . 8_455 ?
O1 S O2 O1 -176.88(7) . . . 8_455 ?
O2 S O2 O1 -57.40(4) 2 . . 8_455 ?
O1 S O2 O3 118.76(7) 2 . . . ?
O1 S O2 O3 -119.48(7) . . . . ?
O2 S O2 O3 0.0 2 . . . ?
O1 S O2 O1 -47.48(9) 2 . . 6 ?
O1 S O2 O1 74.28(7) . . . 6 ?
O2 S O2 O1 -166.24(7) 2 . . 6 ?
O1 S O2 O1 170.71(7) 2 . . 7_556 ?
O1 S O2 O1 -67.53(8) . . . 7_556 ?
O2 S O2 O1 51.95(4) 2 . . 7_556 ?
