#------------------------------------------------------------------------------
#$Date: 2022-03-06 06:37:54 +0200 (Sun, 06 Mar 2022) $
#$Revision: 273468 $
#$URL: file:///home/coder/svn-repositories/cod/cif/1/56/59/1565935.cif $
#------------------------------------------------------------------------------
#
# This file is available in the Crystallography Open Database (COD),
# http://www.crystallography.net/
#
# All data on this site have been placed in the public domain by the
# contributors.
#
data_1565935
loop_
_publ_author_name
'Wildner, Manfred'
'Zakharov, Boris A.'
'Bogdanov, Nikita E.'
'Talla, Dominik'
'Boldyreva, Elena V.'
'Miletich, Ronald'
_publ_section_title
;
 Crystallography relevant to Mars and Galilean icy moons: crystal behavior
 of kieserite-type monohydrate sulfates at extraterrestrial conditions
 down to 15 K
;
_journal_issue                   2
_journal_name_full               IUCrJ
_journal_page_first              194
_journal_page_last               203
_journal_paper_doi               10.1107/S2052252521012720
_journal_volume                  9
_journal_year                    2022
_chemical_formula_sum            'H2 Mg O5 S'
_chemical_formula_weight         138.39
_space_group_crystal_system      monoclinic
_space_group_IT_number           15
_space_group_name_Hall           '-C 2yc'
_space_group_name_H-M_alt        'C 1 2/c 1'
_atom_sites_solution_hydrogens   difmap
_audit_creation_method           SHELXL-2018/3
_cell_angle_alpha                90
_cell_angle_beta                 117.821(17)
_cell_angle_gamma                90
_cell_formula_units_Z            4
_cell_length_a                   6.8560(9)
_cell_length_b                   7.6675(8)
_cell_length_c                   7.6008(10)
_cell_measurement_temperature    30(2)
_cell_volume                     353.38(9)
_computing_structure_refinement  'SHELXL-2018/3 (Sheldrick, 2018)'
_diffrn_ambient_temperature      30(2)
_diffrn_measured_fraction_theta_full 0.966
_diffrn_measured_fraction_theta_max 0.847
_diffrn_radiation_type           MoK\a
_diffrn_radiation_wavelength     0.71073
_diffrn_reflns_av_R_equivalents  0.0712
_diffrn_reflns_av_unetI/netI     0.0780
_diffrn_reflns_Laue_measured_fraction_full 0.966
_diffrn_reflns_Laue_measured_fraction_max 0.847
_diffrn_reflns_limit_h_max       9
_diffrn_reflns_limit_h_min       -7
_diffrn_reflns_limit_k_max       9
_diffrn_reflns_limit_k_min       -8
_diffrn_reflns_limit_l_max       8
_diffrn_reflns_limit_l_min       -9
_diffrn_reflns_number            1031
_diffrn_reflns_point_group_measured_fraction_full 0.966
_diffrn_reflns_point_group_measured_fraction_max 0.847
_diffrn_reflns_theta_full        25.242
_diffrn_reflns_theta_max         29.210
_diffrn_reflns_theta_min         4.247
_exptl_absorpt_coefficient_mu    0.974
_exptl_crystal_density_diffrn    2.601
_exptl_crystal_F_000             280
_refine_diff_density_max         0.820
_refine_diff_density_min         -0.957
_refine_diff_density_rms         0.217
_refine_ls_extinction_coef       0.133(18)
_refine_ls_extinction_expression Fc^*^=kFc[1+0.001xFc^2^\l^3^/sin(2\q)]^-1/4^
_refine_ls_extinction_method     'SHELXL-2018/3 (Sheldrick 2018)'
_refine_ls_goodness_of_fit_ref   1.051
_refine_ls_hydrogen_treatment    refall
_refine_ls_matrix_type           full
_refine_ls_number_parameters     40
_refine_ls_number_reflns         410
_refine_ls_number_restraints     0
_refine_ls_restrained_S_all      1.051
_refine_ls_R_factor_all          0.0588
_refine_ls_R_factor_gt           0.0505
_refine_ls_shift/su_max          0.000
_refine_ls_shift/su_mean         0.000
_refine_ls_structure_factor_coef Fsqd
_refine_ls_weighting_details
'w=1/[\s^2^(Fo^2^)+(0.0780P)^2^] where P=(Fo^2^+2Fc^2^)/3'
_refine_ls_weighting_scheme      calc
_refine_ls_wR_factor_gt          0.1202
_refine_ls_wR_factor_ref         0.1267
_reflns_Friedel_coverage         0.000
_reflns_number_gt                352
_reflns_number_total             410
_reflns_threshold_expression     'I > 2\s(I)'
_cod_data_source_file            lt5044.cif
_cod_data_source_block           MgSO4H2O_He_30K
_cod_depositor_comments
'Adding full bibliography for 1565934--1565967.cif.'
_cod_original_sg_symbol_H-M      'C 2/c'
_cod_database_code               1565935
_shelx_shelxl_version_number     2018/3
_shelx_space_group_comment
;
The symmetry employed for this shelxl refinement is uniquely defined
by the following loop, which should always be used as a source of
symmetry information in preference to the above space-group names.
They are only intended as comments.
;
_shelx_res_file
;
TITL cryst4-He-exp2-30K in C2/c
    cryst4-He-exp2-30K-copy.res
    created by SHELXL-2018/3 at 14:37:58 on 30-Jul-2021
REM C2/c (#15 with fixed user cell (not necessary: std = user cell)!)
REM CELL meas. 0.71073 6.843043 7.661157  7.594627  90.0 117.7426  90.0
REM latt corr for Nonius +.0130 +.0063 +.0062 +.078
CELL 0.71073   6.856043   7.667457   7.600827  90.0000 117.8206  90.0000
ZERR    4.00   0.000886   0.000798   0.000999   0.0000   0.0170   0.0000
LATT  7
SYMM -x, y,-z+1/2
SFAC O H S MG
UNIT 20 8 4 4
OMIT 4 0 4
OMIT -2 2 2
OMIT 1 1 2
OMIT 2 2 1
OMIT -4 0 8
OMIT 2 0 0
OMIT -2 4 4
OMIT 1 3 8
OMIT 0 0 4
L.S. 10
REM DAMP 10
ACTA
BOND $H
FMAP 2
PLAN 20
WGHT    0.078000
EXTI    0.132727
FVAR       9.67681
MG    4    0.000000    0.500000    0.000000    10.50000    0.00471    0.00410 =
         0.00931    0.00018    0.00416   -0.00017
S     3    0.000000    0.157351    0.250000    10.50000    0.00368    0.00208 =
         0.00845    0.00000    0.00319    0.00000
O1    1    0.175629    0.047953    0.396921    11.00000    0.00597    0.00684 =
         0.00962    0.00116    0.00404   -0.00007
O2    1    0.095886    0.269921    0.151437    11.00000    0.00494    0.00470 =
         0.01225    0.00099    0.00473    0.00054
O3    1    0.000000    0.633835    0.250000    10.50000    0.00395    0.00498 =
         0.00873    0.00000    0.00229    0.00000
H     2    0.094260    0.689807    0.284002    11.00000    0.01324
HKLF 4




REM  cryst4-He-exp2-30K in C2/c
REM wR2 = 0.1267, GooF = S = 1.051, Restrained GooF = 1.051 for all data
REM R1 = 0.0505 for 352 Fo > 4sig(Fo) and 0.0588 for all 410 data
REM 40 parameters refined using 0 restraints

END

WGHT      0.0787      0.0000

REM Highest difference peak  0.820,  deepest hole -0.957,  1-sigma level  0.217
Q1    1  -0.0210  0.2468  0.1684  11.00000  0.05    0.82
Q2    1   0.0000  0.0272  0.2500  10.50000  0.05    0.73
Q3    1   0.0062  0.3596  0.0577  11.00000  0.05    0.73
Q4    1   0.0452  0.1351  0.0392  11.00000  0.05    0.69
Q5    1   0.0227 -0.1031  0.4484  11.00000  0.05    0.57
Q6    1   0.0000  0.5122  0.2500  10.50000  0.05    0.56
Q7    1   0.1150  0.1101  0.5285  11.00000  0.05    0.55
Q8    1   0.2645  0.6347  0.3234  11.00000  0.05    0.53
Q9    1   0.1684  0.1307  0.2823  11.00000  0.05    0.51
Q10   1  -0.0121  0.4926  0.1240  11.00000  0.05    0.49
Q11   1   0.1691  0.1708  0.4056  11.00000  0.05    0.47
Q12   1   0.3287  0.0830  0.4836  11.00000  0.05    0.46
Q13   1   0.1556  0.2669  0.3170  11.00000  0.05    0.44
Q14   1   0.0000  0.7414  0.2500  10.50000  0.05    0.43
Q15   1   0.1720 -0.0429  0.3484  11.00000  0.05    0.42
Q16   1   0.3318  0.0094  0.6105  11.00000  0.05    0.41
Q17   1   0.1437  0.6319  0.4602  11.00000  0.05    0.41
Q18   1  -0.0705  0.3253  0.1063  11.00000  0.05    0.39
Q19   1   0.1754  0.7698  0.4843  11.00000  0.05    0.39
Q20   1   0.2297  0.2904  0.1409  11.00000  0.05    0.38
;
_shelx_res_checksum              39834
_shelx_hkl_file
;
   0   0   2 114152. 4633.94   2
   0   0   2 133710. 4328.50   3
   0   0   3-62.5142 81.8852   3
   0   0  -3-173.297 218.970   1
   0   0   3-30.1591 85.2210   1
   0   0   3-14.6557 69.2396   2
   0   0   4 55512.1 3289.44   3
   0   0   4 53153.0 4527.77   1
   0   0   4 65590.4 4115.41   2
   0   0   5 299.776 357.437   1
   0   0   5 173.447 221.758   2
   0   0  -5-180.895 348.267   1
   0   0   6 21641.4 2961.76   2
   0   0   6 20242.0 2305.60   3
   0   0   7-102.677 192.582   3
   0   0  -7 360.898 665.698   1
   0   0  -8 109789. 13591.0   1
   0   0   8 256006. 11865.7   3
   0   0  -9-928.655 1115.12   1
   0  -2  -1 484768. 13945.4   3
   0  -2   1 400068. 13988.5   2
   0   2   2 415742. 13168.3   3
   0   2  -2 431460. 15045.4   1
   0  -2  -2 401343. 12673.3   1
   0   2  -2 401582. 14342.6   2
   0  -2   2 402090. 14072.2   2
   0  -2  -2 428015. 12573.0   3
   0   2   3 129134. 5855.07   3
   0  -2   3 116735. 6450.15   2
   0   2  -3 135409. 7682.58   1
   0  -2  -3 125961. 5311.11   3
   0   2  -3 135455. 7237.43   2
   0  -2   4 18357.0 2746.40   1
   0   2  -4 15774.7 2304.19   2
   0  -2   4 14661.3 2240.33   2
   0  -2  -4 10554.5 1766.70   1
   0   2   4 14591.1 1809.10   3
   0  -2  -4 13583.2 1679.19   3
   0   2  -4 16685.4 2923.59   1
   0  -2   5 177483. 9407.20   2
   0   2  -5 155812. 8877.06   2
   0   2   5 164327. 8506.15   1
   0   2   5 175968. 9263.49   2
   0  -2  -5 166309. 9123.93   1
   0   2   6 2845.02 1066.14   2
   0  -2   6 4127.32 1367.64   2
   0  -2  -6 3835.58 1499.83   1
   0   2  -6 5134.05 2063.57   1
   0   2   6 3182.47 952.854   3
   0   2   7 129738. 7478.17   3
   0   2  -7 109149. 11571.5   1
   0  -2   7 102158. 6471.58   3
   0   2  -8 1427.68 1377.76   1
   0  -2  -8 4810.39 2476.97   1
   0  -2   8 4128.50 1257.74   3
   0   4  -2 241856. 11008.1   2
   0  -4  -2 191502. 10199.8   3
   0  -4  -3 174295. 9139.19   3
   0  -4   3 259623. 11827.8   2
   0   4  -3 257261. 11711.2   2
   0  -4   3 183282. 15029.3   1
   0  -4  -3 264364. 9874.37   1
   0  -4  -4 87615.0 5485.35   1
   0  -4  -4 83029.6 5597.82   3
   0   4  -4 96159.6 7303.62   2
   0  -4   4 102588. 7228.94   2
   0   4  -5 93697.4 7204.54   2
   0  -4  -5 98236.1 6041.82   1
   0   4   6 212971. 10763.7   3
   0   4  -6 190797. 11310.6   2
   0  -4  -6 184605. 10661.1   1
   0  -4  -7 8513.89 2359.95   1
   0   4  -7 5573.30 1868.93   2
   0   6   0 134757. 10496.9   2
   0  -6   1 29396.4 4292.74   1
   0   6  -1 35746.4 4973.20   2
   0   6   1 38928.9 4904.27   2
   0   6  -2 3278.74 1375.85   2
   0   6   2 3439.12 1370.60   2
   0   6  -3 88011.5 7728.20   2
   0  -6  -4 246983. 11310.6   1
   0   6  -4 244423. 14129.3   2
   0   6  -5 3300.97 1539.83   2
   0  -6  -5 2777.16 1138.14   1
   0   6  -6 20154.3 3912.80   2
   0  -6  -6 20153.0 3490.92   1
   0   6  -7 1469.94 1029.08   2
   0   8   0 50277.4 6968.69   2
   0   8   1 211879. 15607.0   2
   0   8  -1 209950. 15156.0   2
   0   8   2 3805.38 1847.09   2
   0   8  -2 3372.94 1787.32   2
   0   8   3 27579.7 4929.30   2
   0   8  -3 23127.8 4941.39   2
   0  -8  -4 39875.7 4310.75   1
   0   8  -4 42541.7 6776.11   2
   0   8   4 53495.3 7115.04   2
   0   8  -5 16041.7 4108.99   2
   0   8   5 12168.1 3260.14   2
   1  -1  -9 35981.2 6986.54   1
   1   1  -9 47300.8 8523.11   1
   1  -1  -8 3035.57 1645.44   1
   1   1  -8 1903.46 1597.34   1
  -1  -1   8 1803.61 770.820   3
   1  -1  -7 43894.1 5363.27   1
  -1  -1   7 41903.8 4061.74   2
  -1  -1   7 38596.8 3257.29   3
  -1   1   7 48111.0 4399.17   2
  -1   1   6 54778.5 4220.55   2
   1   1  -6 76627.6 8436.53   1
   1  -1  -6 73012.2 6117.79   1
  -1  -1   6 68466.6 4837.16   2
  -1   1   6 65445.7 3937.09   3
  -1  -1   5 15229.1 2635.47   1
  -1  -1   5 14019.6 1872.05   2
  -1   1   5 15564.2 1606.27   3
  -1   1   5 13556.6 1680.15   2
  -1   1   5 16410.5 2403.75   1
   1   1  -5 12329.0 2928.58   1
   1  -1  -5 21569.1 2773.50   1
  -1   1   4 151953. 5959.50   2
   1  -1  -4 134164. 7106.93   1
   1   1  -4 142851. 6209.87   2
  -1  -1   4 136371. 6082.50   2
  -1   1   4 144193. 5525.50   3
  -1   1   4 135092. 7199.26   1
  -1  -1   3 34746.1 2213.96   2
   1   1  -3 35352.5 2389.34   2
  -1   1   3 33771.8 1897.68   3
   1  -1  -3 31919.5 2552.50   1
   1  -1  -3 32277.6 1721.36   3
  -1  -1   2 401504. 11407.0   2
   1   1  -2 412741. 11448.1   2
   1  -1  -2 405664. 10603.8   3
   1  -1  -2 394311. 12254.5   1
   1  -1  -1 227895. 7131.27   2
  -1  -1   1 201424. 7207.21   3
   1  -1   0 16563.7 1628.86   2
  -1  -1   0 13509.3 1097.57   3
   1   1   1 339459. 9261.67   1
   1  -1   1 312713. 11515.7   2
  -1  -1  -1 296564. 9333.51   1
  -1  -1  -1 355455. 10485.8   3
   1  -1   2 1859.45 652.257   2
   1   1   2 1362.94 408.647   1
  -1  -1  -2 1581.66 504.713   3
   1   1   2 2301.73 672.870   3
   1  -1   2 733.080 593.407   1
  -1  -1  -2 1778.04 535.499   1
  -1   1  -3 44657.5 4262.54   1
   1   1   3 40523.9 2796.33   1
   1  -1   3 40029.3 3850.52   1
  -1   1  -3 38786.3 3584.95   2
   1  -1   3 32200.4 3173.44   2
   1   1   3 31780.0 3161.35   2
   1   1   4 17228.5 2048.53   1
  -1  -1  -4 24260.2 3347.97   1
  -1   1  -4 19739.6 3156.31   1
   1  -1   4 17189.1 2922.28   1
   1   1   4 18872.1 2270.10   3
   1   1   4 17232.4 2461.90   2
   1  -1   4 15236.4 2347.55   2
   1  -1   5 1804.19 724.602   3
  -1  -1  -5 2675.06 1344.08   1
   1  -1   5 2968.64 1322.66   1
   1   1   5 2676.22 1008.33   2
   1   1   5 2918.56 898.810   3
  -1   1  -5 4310.01 1581.51   1
   1   1   5 2415.49 840.085   1
   1  -1   5 2783.32 1059.73   2
   1   1   6 158213. 8276.16   3
   1   1   6 156977. 8381.89   1
   1  -1   6 126779. 7538.83   3
  -1   1  -6 138712. 11293.0   1
  -1   1  -7 1693.27 1248.49   1
   1  -1   7 1656.17 789.381   3
  -1  -1  -7 2028.68 1312.65   1
   1   1   7 535.421 471.320   3
   1  -1   8 12001.4 2428.37   3
   1   1   8 12272.9 2659.36   3
   1  -3  -9 2557.90 1595.94   1
   1   3  -8 22580.8 5472.67   1
   1  -3  -8 29591.1 4937.39   1
   1  -3  -7 1015.96 730.587   1
   1   3  -7 3062.39 1829.35   1
   1   3  -7 2404.97 1054.82   2
   1   3  -6 2061.49 1330.42   1
   1   3  -6 1383.64 709.585   2
   1  -3  -6 3086.62 1183.56   1
  -1  -3   6 1699.91 784.660   2
   1  -3  -5-299.970 320.342   1
   1  -3  -5-47.6771 98.1603   3
   1   3  -5-15.2698 73.3787   2
   1   3  -5 32.1639 146.555   1
  -1  -3   4 375667. 14425.2   2
   1  -3  -4 417995. 14615.2   1
   1   3  -4 361407. 14767.6   2
   1  -3  -4 378315. 12859.6   3
   1   3  -3 29830.7 3765.29   1
   1   3  -3 32451.2 3101.62   2
   1  -3  -3 40675.8 2985.43   3
  -1  -3   3 37280.9 3176.03   2
   1   3  -2 62451.8 4523.97   2
   1   3  -2 81519.9 5813.53   1
  -1  -3   2 77694.2 5552.41   1
  -1   3   2 62614.3 4494.99   2
  -1  -3   1 20921.1 2720.04   1
   1  -3   0 80356.4 5150.54   2
  -1  -3   0 88551.3 5200.61   3
   1  -3   1 250038. 11438.3   2
  -1  -3  -1 278398. 10116.9   3
  -1  -3  -2 612.777 355.517   3
  -1  -3  -2 473.982 244.549   1
   1  -3   3 59651.8 5256.35   2
  -1   3  -3 48868.3 5057.59   2
   1   3   3 40727.0 3944.56   3
  -1  -3  -3 55402.8 3359.12   1
  -1  -3  -3 37796.1 3322.41   3
   1   3   4 136828. 8349.52   3
  -1  -3  -4 195487. 8679.23   1
  -1   3  -4 172799. 10387.4   2
  -1  -3  -4 178434. 8300.37   3
   1  -3   4 143332. 9457.23   2
  -1  -3  -5 53932.6 5190.46   1
   1   3   5 58122.3 4996.72   3
  -1   3  -5 52615.3 5662.75   2
  -1  -3  -6-627.447 664.612   1
   1   3   6 64.9644 170.998   3
   1   3   7 11913.8 2671.37   3
   1  -3   7 11340.9 2301.21   3
   1  -3   8 113546. 8584.64   3
   1  -5  -8 5828.47 2129.52   1
   1  -5  -7 1373.08 990.815   1
   1   5  -7 3889.39 1445.43   2
   1   5  -6 73874.8 6748.36   2
   1  -5  -6 85891.2 7241.26   1
   1  -5  -5 192318. 9333.09   3
   1   5  -5 216022. 11996.5   2
   1  -5  -5 197994. 10237.4   1
   1  -5  -4 200.923 253.872   3
   1  -5  -4 1.54766 22.2964   1
   1   5  -4-234.034 338.858   2
  -1  -5   3 157518. 11071.1   1
   1   5  -3 100107. 7711.10   2
  -1   5   3 121597. 8303.34   2
   1  -5  -3 161030. 8526.10   3
   1   5  -2 221274. 12145.7   2
  -1   5   2 190883. 11233.6   2
  -1  -5   2 201540. 13087.2   1
   1   5  -1 21744.8 3260.92   2
  -1   5   1 27922.0 4012.45   2
  -1   5   0 54943.4 5528.49   2
  -1  -5   0 62786.2 5080.69   3
   1  -5   1 9513.00 2042.59   2
  -1   5  -1 7065.02 1860.44   2
  -1  -5  -1 7897.83 1798.02   3
  -1  -5  -2 55708.8 4832.59   3
  -1   5  -2 55676.7 5443.31   2
  -1   5  -3 58427.9 6009.86   2
  -1  -5  -3 86428.5 4969.23   1
  -1  -5  -4 4541.67 1138.22   1
  -1   5  -4 2856.79 1345.36   2
  -1  -5  -5 30715.8 3572.73   1
  -1   5  -5 23043.9 4138.90   2
  -1   5  -6 89440.9 8519.13   2
  -1   5  -7 35269.6 5424.25   2
   1   7  -7 36786.6 5396.76   2
  -1   7   6 44410.6 5716.63   2
   1   7  -6 54766.7 6946.83   2
   1  -7  -6 45825.2 5307.00   1
  -1   7   5 13689.3 3008.41   2
   1  -7  -5 10193.8 2176.05   1
   1   7  -5 18892.9 4011.77   2
   1   7  -4 10281.4 2887.09   2
  -1   7   4 3763.01 1605.45   2
   1   7  -3 59773.6 7087.48   2
  -1   7   3 63357.4 7334.42   2
  -1   7   2 32919.4 5640.97   2
   1   7  -2 69525.6 7584.31   2
  -1   7   1 105361. 9967.32   2
   1   7  -1 120295. 10386.3   2
   1   7   0 684.236 644.474   2
  -1   7   0 202.421 400.688   2
  -1  -7   0 163.399 281.531   1
   1   7   1 680.278 645.092   2
  -1   7  -1 897.300 838.137   2
  -1   7  -2 253452. 15334.2   2
  -1   7  -3 1329.77 997.839   2
  -1   7  -4 5778.89 2203.20   2
  -1   7  -5 93634.5 9636.49   2
  -1   9   4 15430.8 4199.88   2
   1   9  -4 19784.1 5074.15   2
  -1   9   3 857.927 974.331   2
   1   9  -3 930.274 1034.22   2
   1   9  -2 22042.9 4946.65   2
  -1   9   2 19282.5 4652.99   2
   1   9  -1 14744.2 3756.56   2
  -1   9   1 20992.1 4990.90   2
   1   9   0 260933. 17372.6   2
  -1   9   0 258013. 18421.4   2
   1   9   1 8117.74 2809.96   2
  -1   9  -1 12683.6 3832.69   2
   1   9   2 2375.04 1490.06   2
  -1   9  -2 5172.41 2485.31   2
   2   0  -9-802.496 871.679   1
   2   0  -8 321944. 17768.8   1
  -2   0   7 210.491 176.271   3
   2   0  -7-345.046 461.540   1
  -2   0   7-33.6103 77.5687   2
  -2   0   6 308.443 198.815   2
  -2   0   6 575.942 251.547   3
   2   0  -6-123.073 239.318   1
  -2   0   5 141.390 219.654   1
  -2   0   5 82.4723 78.1910   2
  -2   0   5 56.2190 63.8519   3
   2   0  -5-35.4585 114.237   1
   2   0  -4 324276. 13030.6   1
   2   0  -3 194.349 201.077   1
  -2   0   2 154699. 4657.81   3
   2   0  -2 153045. 6085.18   1
   2   0  -2 147877. 4928.22   2
   2   0  -2 158495. 4715.87   3
   2   0  -1 104.678 100.343   3
   2   0  -1 84.8746 110.278   2
   2   0   0 820216. 24547.4   2
   2   0   1 828.104 367.826   1
   2   0   1-98.7216 162.492   2
   2   0   2 97874.7 5884.48   2
   2   0   2 61883.8 4763.20   1
   2   0   3-62.7189 125.303   3
   2   0   3 226.040 276.208   2
   2   0   3 113.653 203.088   1
   2   0   4 549513. 18099.7   3
   2   0   4 487267. 19972.0   1
   2   0   5 547.634 509.264   1
   2   0   5-165.565 227.427   3
   2   0   6 2368.16 980.141   3
   2   0   7 442.126 469.692   3
   2   2  -9 115588. 12703.4   1
   2  -2  -9 67187.5 8075.92   1
   2   2  -8 90.1745 347.430   1
  -2  -2   8 526.916 358.068   3
   2  -2  -8 558.159 592.932   1
  -2   2   7 65165.9 4138.65   2
   2  -2  -7 64202.7 5866.92   1
  -2  -2   7 50050.9 3732.63   2
  -2   2   6 221202. 8689.53   2
   2   2  -6 223597. 9485.94   2
  -2  -2   6 236578. 9037.27   2
   2   2  -5 123712. 5676.49   2
   2  -2  -5 100267. 6609.47   1
  -2  -2   5 94126.8 6737.37   1
  -2  -2   5 109889. 5307.30   2
   2   2  -5 100855. 9145.31   1
   2  -2  -4 140705. 7625.44   1
   2   2  -4 162440. 6795.76   2
   2  -2  -4 160117. 5335.78   3
  -2   2   4 146533. 6032.26   2
   2  -2  -3 525846. 18215.0   1
  -2   2   3 561405. 16658.6   2
   2   2  -3 526700. 16907.8   2
   2   2  -3 567706. 19833.0   1
  -2   2   2 15222.3 1662.10   2
  -2  -2   2 18357.1 2018.10   1
   2  -2  -2 17477.8 1684.20   2
   2   2  -2 11407.4 1848.11   1
  -2  -2   2 13012.3 1688.99   3
  -2  -2   1 386783. 11953.0   3
  -2   2   1 387226. 12837.4   2
   2  -2  -1 355766. 12843.2   2
  -2  -2   1 349236. 11321.2   1
   2   2  -1 322124. 13683.4   1
   2  -2   0 56602.9 4253.40   2
  -2  -2   0 40778.2 2841.08   3
   2  -2   1 38958.2 3752.37   2
  -2  -2  -1 37794.7 2889.60   3
  -2  -2  -2 535432. 16909.1   3
   2  -2   2 522151. 19195.4   2
   2   2   2 520652. 17870.4   3
   2  -2   2 566022. 26720.1   1
  -2   2  -3 116552. 8377.31   2
   2  -2   3 149397. 8553.51   2
   2   2   3 117678. 6826.80   3
  -2  -2  -3 132011. 6330.19   1
  -2  -2  -3 134767. 6767.04   3
  -2   2  -4 31767.0 4325.96   2
   2   2   4 29242.0 2591.64   1
   2  -2   4 30578.9 3916.21   1
   2   2   4 24729.4 2963.14   3
  -2  -2  -4 26014.7 2817.29   1
   2  -2   5 129333. 7503.30   3
   2   2   5 113434. 6842.26   3
   2  -2   6 12936.6 2492.10   3
   2   2   6 15901.5 2683.53   3
   2   2   7 38363.1 4645.39   3
   2  -2   7 44673.1 4955.96   3
   2  -4  -9 125.305 341.163   1
   2  -4  -8 1676.04 1163.52   1
   2   4  -8 454.007 776.915   1
   2   4  -7 32094.0 3762.20   2
   2  -4  -7 39035.4 5020.64   1
   2  -4  -6 197948. 11419.5   1
   2   4  -6 220498. 10592.4   2
   2   4  -6 233233. 15651.4   1
   2  -4  -6 205628. 8432.00   3
   2  -4  -5 154951. 6714.89   3
   2  -4  -5 156953. 8619.99   1
   2   4  -5 154258. 11334.1   1
   2  -4  -4 30571.9 3129.74   3
  -2  -4   4 39138.2 4219.35   1
   2   4  -4 40250.4 5241.85   1
   2   4  -3 46486.6 4761.99   2
  -2  -4   3 39192.8 4239.88   1
   2   4  -3 55272.0 6389.89   1
  -2  -4   2 492328. 13566.2   3
  -2  -4   2-446.482 396.836   1
  -2  -4   1 60460.1 4902.25   1
   2  -4  -1 51546.4 4481.08   2
  -2  -4   0 4317.64 1222.61   3
   2  -4   0 3446.21 1376.84   2
   2  -4   1 164139. 10203.9   2
  -2  -4  -1 165348. 8413.61   3
   2   4   1 146333. 8143.38   3
   2  -4   2 134706. 9912.93   1
   2   4   2 139371. 8320.75   3
  -2   4  -2 135052. 9080.83   2
  -2  -4  -2 135196. 4974.62   1
  -2  -4  -2 133340. 7580.21   3
   2   4   3 14725.4 2703.85   3
  -2  -4  -3 13863.7 1526.88   1
  -2   4  -3 10131.4 2559.03   2
  -2  -4  -4 311.769 265.793   1
  -2   4  -4 945.259 801.115   2
   2   4   4 323.672 409.103   3
   2   4   5 9004.98 2298.89   3
  -2   4  -5 10238.5 2874.02   2
  -2   4  -6 146821. 11866.9   2
   2   4   6 169050. 11117.3   3
   2  -4   7 70839.2 6630.46   3
   2   4   7 57702.0 6878.40   3
   2  -6  -8 58425.5 7413.69   1
   2   6  -7 64642.1 6488.52   2
   2  -6  -7 57168.8 6315.57   1
  -2   6   7 59398.2 5926.86   2
  -2   6   6 8382.12 2087.90   2
   2  -6  -6 7940.49 1876.13   1
   2   6  -6 8681.11 2314.16   2
   2   6  -5 58169.0 6248.40   2
  -2   6   5 51014.5 5501.53   2
   2  -6  -4 308364. 13842.3   3
   2   6  -4 299171. 16263.2   2
  -2   6   4 323860. 16018.1   2
   2   6  -3 9959.16 2728.11   2
  -2   6   3 13186.7 2862.51   2
  -2   6   2 26277.3 4252.14   2
   2   6  -2 26364.4 4059.27   2
  -2  -6   2 26841.1 4318.78   1
  -2  -6   1 11401.1 2779.91   1
  -2   6   1 11477.6 2815.30   2
  -2   6   0 216406. 13144.1   2
  -2  -6  -1 143698. 8044.18   1
  -2   6  -1 177664. 11460.1   2
  -2   6  -2-18.0555 106.192   2
  -2   6  -3 37046.3 5247.73   2
  -2  -6  -3 48062.2 3365.86   1
  -2   6  -4 105187. 9499.52   2
  -2   6  -5 217.442 430.323   2
  -2   8   6-141.587 340.068   2
   2   8  -6 102.475 307.949   2
   2  -8  -6-665.216 614.834   1
   2  -8  -5 22699.3 4352.96   1
   2   8  -5 24448.4 5069.99   2
  -2   8   5 20490.1 4167.93   2
  -2   8   4 13924.5 3384.48   2
   2   8  -4 23242.2 4832.61   2
  -2   8   3 47734.5 6737.66   2
   2   8  -3 58080.3 7742.52   2
  -2   8   2 82790.2 9061.80   2
   2   8  -2 48653.1 6806.76   2
  -2   8   1 74896.7 9089.88   2
   2   8  -1 68185.6 7310.25   2
  -2   8   0 92975.1 10189.8   2
   2   8   0 78698.7 7644.87   2
  -2   8  -1 66895.0 8498.45   2
  -2   8  -2 1056.02 1007.88   2
  -2   8  -3 139908. 12345.0   2
   3  -1  -9 39427.0 5839.10   1
   3   1  -9 23413.2 4758.11   1
   3  -1  -8 28585.0 4351.41   1
   3   1  -8 30269.4 4854.17   1
   3  -1  -7 51007.2 5463.33   1
   3   1  -7 41365.4 5532.15   1
  -3  -1   7 48248.9 2426.99   3
  -3  -1   6 27178.5 1645.98   3
   3  -1  -6 25917.2 3573.56   1
   3   1  -6 33852.9 4370.48   1
  -3  -1   5 50348.7 4480.80   1
   3  -1  -5 48040.8 4466.70   1
   3   1  -5 48248.4 4831.92   1
  -3  -1   5 51902.5 2445.42   3
  -3  -1   4 9731.36 1768.06   1
   3  -1  -4 10517.2 1834.49   1
   3   1  -4 10197.5 903.172   2
   3   1  -4 14682.8 2362.67   1
  -3  -1   4 9176.13 971.593   3
  -3   1   3 1911.95 460.288   2
   3  -1  -3 2866.21 584.976   2
   3   1  -3 3599.62 1073.83   1
  -3  -1   3 2200.63 768.151   1
  -3  -1   3 3016.89 621.843   3
   3  -1  -3 2535.91 453.093   3
   3  -1  -3 2603.71 874.367   1
  -3   1   2 198837. 7720.36   2
   3  -1  -2 178095. 7557.37   2
   3   1  -2 211945. 8098.75   1
   3   1  -2 182760. 6943.14   3
  -3  -1   2 208852. 7401.94   3
  -3   1   1 41916.6 3417.94   2
   3  -1  -1 39157.6 3257.47   2
   3   1  -1 39190.7 2414.77   1
  -3  -1   1 41024.4 2907.47   3
   3   1  -1 35856.8 2764.86   3
   3  -1   0 257830. 11082.9   2
  -3  -1   0 239342. 9545.80   3
   3   1   1 56159.8 5279.42   2
   3  -1   1 66140.3 5465.61   2
  -3  -1  -1 58306.9 4231.34   3
   3   1   2 159346. 9602.35   2
   3   1   2 161377. 8710.88   3
   3  -1   2 177113. 9901.55   2
   3   1   2 176923. 6556.49   1
   3  -1   2 175222. 9120.78   1
   3   1   3 68314.6 5975.63   3
   3   1   3 136153. 5616.43   1
   3  -1   3 91424.1 6572.15   1
   3  -1   3 158845. 8485.45   3
   3  -1   4 382.815 401.194   1
   3   1   4 151.019 246.403   3
   3  -1   4 203.097 298.673   3
   3   1   4 231.348 222.755   1
   3  -1   5 29597.2 3800.47   3
   3   1   5 27094.9 3496.61   3
   3  -1   6 6909.45 1879.32   3
   3   1   6 8884.37 2053.57   3
   3   1   7 83.7545 361.672   3
   3   3  -9 1311.95 1364.19   1
   3  -3  -9 636.144 736.411   1
   3  -3  -8 103425. 9372.04   1
   3   3  -8 40761.0 8487.92   1
   3   3  -7 72556.3 4891.95   2
   3  -3  -7 75129.0 7000.70   1
  -3   3   7 64189.6 3827.33   2
  -3   3   6 72.4710 117.475   2
   3  -3  -6 127.276 254.278   1
   3  -3  -6 15.2396 33.9117   3
   3   3  -6-365.201 624.396   1
   3   3  -6 368.416 296.243   2
  -3   3   5 318.182 251.952   2
   3  -3  -5-270.697 329.591   1
   3  -3  -5-61.6485 78.8091   3
   3   3  -5-114.673 166.880   2
   3   3  -5 561.032 657.741   1
   3  -3  -4 117507. 7285.81   1
  -3   3   4 102846. 5773.73   2
  -3  -3   4 105771. 6928.85   1
   3   3  -4 137463. 7282.82   2
   3   3  -4 140786. 9595.67   1
  -3  -3   4 112162. 6033.99   3
  -3   3   3 159020. 7806.14   2
   3  -3  -3 160356. 7429.66   2
   3   3  -3 164139. 10566.2   1
  -3  -3   2 376.154 310.793   3
   3  -3  -2 700.455 474.970   2
  -3  -3   2 819.615 455.633   1
   3   3  -2 967.397 819.951   1
  -3   3   2 805.744 484.403   2
  -3  -3   1 164.757 207.347   3
  -3  -3   1 96.3440 119.046   1
   3   3  -1 161.364 195.882   3
  -3  -3   0 391063. 14267.6   3
   3  -3   0 436736. 16487.0   2
  -3  -3  -1 36473.6 3311.17   3
  -3   3  -1 47181.3 5021.32   2
   3  -3   1 39126.8 4404.39   2
   3   3   1 41333.2 4033.01   3
  -3   3  -2 17314.0 3276.88   2
   3   3   2 19767.7 2839.09   3
   3  -3   2 19344.6 3255.93   1
   3   3   3 2036.13 902.216   3
  -3   3  -3 2729.07 1464.70   2
   3   3   4 39184.9 4218.18   3
  -3   3  -4 46803.4 6298.38   2
   3   3   5 1328.18 765.131   3
   3  -3   5 1815.58 936.134   3
   3   3   6 8342.85 2067.37   3
   3  -3   6 8320.42 2216.40   3
   3   5  -8 11134.5 4001.08   1
   3  -5  -8 17610.1 3618.38   1
   3   5  -7 33493.9 4073.03   2
   3  -5  -7 33195.1 4474.20   1
  -3   5   7 33681.9 3792.26   2
   3   5  -7 35407.9 6531.57   1
   3   5  -6 36712.3 5934.46   1
   3  -5  -6 29089.5 3795.17   1
   3   5  -6 32178.8 3957.95   2
  -3   5   6 29914.8 3478.90   2
   3  -5  -5 7780.02 2064.12   1
   3   5  -5 15287.0 2718.21   2
  -3   5   5 10378.0 2066.75   2
   3   5  -5 14862.7 3814.48   1
   3  -5  -5 10914.3 1752.89   3
  -3   5   4 3095.90 1146.71   2
   3   5  -4 2821.40 1272.03   2
   3   5  -4 4245.42 1890.93   1
  -3   5   3 27954.8 3881.38   2
   3   5  -3 32569.9 4108.12   2
  -3  -5   3 28830.8 3719.57   1
  -3   5   2 199874. 11798.0   2
   3  -5  -2 218054. 11293.2   2
  -3   5   1 172960. 11311.0   2
  -3  -5   1 228385. 9294.83   1
  -3  -5   0 5060.42 888.550   1
  -3   5   0 4837.64 1705.34   2
  -3   5  -1 40063.7 5041.08   2
  -3   5  -2 47239.3 5742.85   2
   3   5   2 59108.4 6155.49   3
  -3   5  -3 9623.27 2704.40   2
   3   5   3 12037.2 2818.87   3
  -3   5  -4 17089.3 3843.11   2
   3   5   4 9671.32 2624.64   3
   3   5   5 18065.3 3610.44   3
  -3   5  -5 24901.1 5046.82   2
   3  -7  -7 306.206 432.633   1
   3  -7  -6 105687. 9154.94   1
   3   7  -6 118833. 9741.13   2
  -3   7   6 116515. 8913.84   2
   3   7  -5 22917.5 4294.24   2
  -3   7   5 23176.8 3795.25   2
  -3   7   4 16742.8 3284.60   2
   3   7  -4 23359.9 4434.89   2
  -3   7   3 142623. 10999.9   2
   3   7  -3 152811. 11811.1   2
  -3   7   2 36067.0 5616.61   2
   3   7  -2 31807.5 4484.83   2
  -3  -7   2 31012.9 4559.48   1
  -3   7   1 29678.0 5324.30   2
  -3  -7   1 26899.3 3745.81   1
  -3   7   0-20.3800 131.304   2
  -3   7  -1 6551.51 2371.14   2
  -3   7  -2 108339. 9912.71   2
  -3   7  -3 31997.8 5328.56   2
   3   9  -5 9226.93 3244.07   2
  -3   9   5 4453.06 1922.62   2
  -3   9   4 122967. 11249.0   2
   3   9  -4 163509. 14076.8   2
   3   9  -3 1984.35 1412.83   2
  -3   9   3 2278.11 1506.79   2
   3   9  -2 2334.41 1482.38   2
  -3   9   2 396.924 670.248   2
  -3   9   1 659.791 919.088   2
   3   9  -1 767.375 759.490   2
   4   0  -9-426.348 608.255   1
   4   0  -8 80127.2 7877.29   1
   4   0  -7 535.912 553.043   1
   4   0  -6 166167. 10386.0   1
   4   0  -5 54.1444 341.193   1
   4   0  -4 668431. 18480.4   2
   4   0  -4 654396. 22193.9   1
   4   0  -4 645716. 18449.2   3
   4   0  -3-20.0275 53.5826   3
   4   0  -3-122.811 152.843   2
   4   0  -2 113214. 6050.53   1
   4   0  -2 121486. 6676.07   2
   4   0  -2 116265. 5888.91   3
   4   0  -1-39.0556 101.062   3
   4   0  -1-68.4804 197.619   2
   4   0   0 225902. 11982.2   2
   4   0   0 197358. 9764.00   3
   4   0   1 59.6051 165.443   3
   4   0   1 177.511 213.128   1
   4   0   2 185896. 8486.70   1
   4   0   2 170598. 9807.05   3
   4   0   3-297.114 368.442   3
   4   0   3 1014.60 572.470   1
   4   0   4 154605. 10049.3   3
   4   0   5 286.387 421.149   3
   4  -2  -9 58036.9 7309.26   1
   4   2  -9 40044.5 6922.49   1
   4   2  -8 13375.9 3557.31   1
   4  -2  -8 12766.1 3236.92   1
  -4  -2   7 49562.5 2638.54   3
   4  -2  -7 55989.5 6192.35   1
   4   2  -6 159126. 5837.71   2
   4  -2  -6 177169. 10761.6   1
   4   2  -6 178786. 12453.4   1
  -4  -2   6 173757. 6402.99   3
  -4   2   5 198253. 6828.86   2
   4  -2  -5 213099. 10874.8   1
   4   2  -5 196528. 7482.40   2
   4   2  -5 211284. 12111.2   1
  -4  -2   5 210144. 7741.29   3
   4  -2  -4 54770.1 4911.30   1
  -4   2   4 47594.8 3178.37   2
  -4  -2   4 50564.2 4353.93   1
   4  -2  -4 47974.1 3058.72   2
   4   2  -4 38540.9 4325.41   1
  -4  -2   4 52414.1 3476.75   3
  -4   2   3 189526. 6841.60   2
   4  -2  -3 173315. 6519.64   2
   4   2  -3 192843. 7854.29   1
   4   2  -3 213224. 7275.56   3
  -4  -2   3 163853. 6597.89   3
   4  -2  -2 110934. 6569.50   2
   4   2  -2 105562. 5951.06   3
   4   2  -2 121733. 5776.53   1
  -4  -2   2 112114. 6044.91   3
  -4   2   1 123988. 7633.98   2
   4  -2  -1 121959. 7332.95   2
   4   2  -1 102317. 4454.40   1
   4   2  -1 117482. 6339.19   3
  -4  -2   1 116412. 6287.95   3
  -4   2   0 63439.8 5823.71   2
  -4  -2   0 56925.1 4436.83   3
   4  -2   0 61220.5 5568.02   2
   4   2   0 53520.1 4587.11   3
  -4   2  -1 208130. 12194.1   2
   4   2   1 178402. 9917.98   3
   4  -2   2 45425.8 5196.69   1
   4   2   2 51411.7 4990.33   3
   4  -2   2 55471.6 5322.59   3
   4   2   3 98692.0 7275.80   3
   4  -2   3 109315. 8233.09   3
   4   2   4 8595.87 2092.21   3
   4  -2   4 10698.0 2622.52   3
   4   2   5 21264.1 3412.58   3
   4  -2   5 23678.2 3935.62   3
   4  -4  -9 45865.6 6718.67   1
   4  -4  -8 3308.42 1547.56   1
   4   4  -8 5635.06 2977.70   1
   4   4  -7 46951.4 4110.58   2
   4  -4  -7 28537.6 4275.35   1
   4   4  -7 35422.6 7097.26   1
   4  -4  -6 63898.7 6022.96   1
  -4   4   6 74465.5 4741.35   2
   4   4  -6 71987.6 5155.08   2
  -4  -4   6 67008.6 4840.39   3
   4  -4  -6 69028.0 3260.23   3
  -4  -4   5 156.653 219.344   3
   4   4  -5 1117.04 973.994   1
   4   4  -5 398.943 392.960   2
   4  -4  -5 136.983 268.667   1
  -4  -4   4 423.657 361.551   3
   4   4  -4-248.648 410.914   1
  -4  -4   4-23.8779 95.4775   1
  -4   4   3 79040.3 5907.74   2
   4  -4  -3 80857.6 5879.71   2
  -4  -4   3 86540.5 5944.59   3
  -4   4   2 506375. 19390.8   2
  -4  -4   2 498020. 16493.4   1
   4  -4  -2 475533. 19471.4   2
  -4  -4   2 520314. 18837.8   3
  -4  -4   1 218582. 7508.91   1
  -4   4   1 223397. 12035.5   2
   4   4  -1 228814. 11043.6   3
  -4   4   0 55147.7 5672.11   2
   4   4   0 32833.1 4076.98   3
  -4   4  -1 19790.1 3589.00   2
   4   4   1 17793.3 3259.53   3
  -4   4  -2 113438. 9635.30   2
   4   4   2 96938.2 8260.76   3
   4   4   3 2272.19 1182.67   3
  -4   4  -3 4328.79 1959.76   2
   4   4   4 183.468 336.037   3
  -4   4  -4 1753.20 1336.85   2
   4  -6  -7 64989.4 6809.73   1
   4   6  -7 51370.6 8254.05   1
   4  -6  -6 715.219 812.192   1
  -4   6   6 788.092 613.226   2
   4   6  -6-110.009 323.864   1
   4   6  -6 634.610 579.581   2
   4   6  -5 8383.09 2262.04   2
  -4   6   5 9316.66 2200.56   2
  -4   6   4 139644. 10040.6   2
   4   6  -4 172422. 11330.2   2
  -4   6   3 18716.1 3650.98   2
  -4  -6   3 19902.4 3084.99   1
  -4   6   2 44769.5 5929.15   2
  -4   6   1 47066.6 6124.63   2
  -4  -6   1 33304.0 2785.11   1
  -4   6   0 283609. 16539.8   2
  -4   6  -1 2315.36 1324.95   2
  -4   6  -2 817.636 807.355   2
  -4   6  -3 13126.7 3517.24   2
   4   6   3 18486.9 3895.90   3
   4   8  -6 2444.18 1403.08   2
  -4   8   5 122345. 10066.1   2
   4   8  -5 138694. 11870.0   2
   4   8  -4 14764.5 3800.38   2
  -4   8   4 15619.6 3559.54   2
  -4   8   3 36095.0 5960.12   2
   4   8  -3 40040.6 5858.23   2
   4   8  -2 5116.58 1888.48   2
  -4   8   2 4529.19 2162.94   2
  -4   8   1 5122.38 2405.21   2
  -4   8   0 27051.9 5724.20   2
   5   1  -9-837.154 901.439   1
   5  -1  -9 498.850 667.267   1
   5   1  -8 15236.7 3486.84   1
   5  -1  -8 12409.1 3283.75   1
   5  -1  -7 64137.3 6748.88   1
   5   1  -7 58939.4 6459.90   1
   5  -1  -6 208852. 12180.6   1
   5   1  -6 184188. 11499.4   1
   5   1  -5 156946. 6371.54   2
   5  -1  -5 170642. 9874.28   1
   5   1  -5 148686. 9825.86   1
   5  -1  -5 157038. 5791.53   2
   5  -1  -5 163518. 5553.49   3
   5   1  -4 36536.3 3212.30   2
   5  -1  -4 43346.2 4327.60   1
   5  -1  -4 39016.1 3177.71   2
   5   1  -4 50748.7 4650.09   1
   5   1  -4 46322.1 3557.43   3
   5  -1  -4 51006.7 3300.07   3
  -5  -1   4 39850.6 2877.06   3
   5   1  -3 21864.5 2888.07   2
   5  -1  -3 22942.0 3031.84   1
   5  -1  -3 26996.1 2986.29   2
   5   1  -3 23044.8 2828.59   1
   5   1  -3 19357.3 2223.55   3
   5  -1  -3 21180.3 2348.07   3
  -5  -1   3 19033.7 2148.95   3
   5   1  -2 25640.6 3541.74   2
   5  -1  -2 27973.0 3489.99   2
   5   1  -2 22414.7 2512.69   1
   5   1  -2 19925.4 2544.02   3
   5  -1  -2 24323.7 2801.01   3
   5   1  -1 1341.97 509.069   1
   5   1  -1 974.778 601.694   3
   5  -1  -1 1023.87 606.934   3
   5   1  -1 1403.06 892.907   2
   5  -1  -1 1088.48 757.648   2
   5   1   0 960.764 663.034   3
   5  -1   0 1699.73 924.862   3
   5   1   0 1465.71 503.397   1
   5   1   1 6924.10 1929.42   3
   5  -1   1 6963.36 1900.14   3
   5  -1   1 9875.48 2472.62   1
   5   1   1 9006.43 1280.29   1
   5  -1   2 126811. 9091.93   1
   5   1   2 133816. 9507.90   3
   5  -1   2 117516. 8870.28   3
   5   1   3 30063.5 4448.52   3
   5  -1   3 36994.6 5091.31   3
   5   1   4 32417.6 4665.81   3
   5  -1   4 24025.6 4218.89   3
   5  -3  -9 545.754 730.128   1
   5  -3  -8 89271.1 8718.25   1
   5   3  -8 111818. 12631.5   1
   5  -3  -7-451.401 547.708   1
   5   3  -7 121.420 357.136   1
  -5   3   6 23630.0 2102.41   2
   5  -3  -6 22042.3 3542.60   1
   5   3  -6 22825.6 2373.19   2
   5   3  -6 24068.4 4517.95   1
  -5  -3   6 21052.4 2273.55   3
  -5   3   5 7019.87 1312.01   2
   5   3  -5 8005.58 2207.25   1
  -5  -3   5 6013.29 1286.77   3
   5  -3  -5 5658.81 1746.25   1
   5  -3  -5 5140.82 897.000   3
  -5  -3   4 151364. 8505.25   1
   5  -3  -4 139901. 7609.60   2
   5   3  -4 156028. 9029.52   1
  -5   3   3 30761.0 3466.53   2
   5  -3  -3 34076.9 3720.46   2
   5   3  -3 34683.1 3437.72   1
   5   3  -3 36806.5 3829.59   3
  -5  -3   3 26857.6 3304.93   3
  -5   3   2 18552.9 2895.88   2
   5  -3  -2 16075.6 2723.79   2
   5   3  -2 16937.5 2258.73   1
   5   3  -2 15404.0 2520.35   3
  -5   3   1 12744.1 2660.85   2
   5   3  -1 13329.6 2460.49   3
  -5   3   0 156414. 10841.5   2
   5   3   0 149520. 9449.56   3
  -5   3  -1 53423.3 6577.04   2
   5   3   1 50961.2 5430.89   3
   5   3   2 398.644 477.085   3
   5  -3   2 642.276 654.389   3
  -5   3  -2 349.055 562.348   2
   5   3   3 9841.41 2404.59   3
   5  -3   3 7229.17 2359.02   3
   5  -5  -8 1510.12 1073.89   1
   5   5  -8 2140.67 1757.70   1
   5  -5  -7 1770.43 1134.75   1
   5   5  -7 1915.45 1471.49   1
  -5   5   6 31282.4 3462.34   2
   5   5  -6 26903.3 3501.11   2
   5   5  -6 20724.9 4492.30   1
   5   5  -5 856.904 747.625   2
  -5   5   5 1355.90 749.751   2
   5   5  -5 1896.56 1121.51   1
  -5   5   4 19116.2 3108.92   2
  -5  -5   4 18516.8 2731.19   1
  -5   5   3 90590.3 7353.46   2
  -5  -5   3 80338.2 5570.06   1
  -5  -5   2 100374. 5449.99   1
  -5   5   2 96334.0 8026.86   2
  -5   5   1 93450.9 8286.02   2
  -5   5   0 721.507 707.363   2
   5   5   0 381.056 489.228   3
  -5   5  -1 11494.6 3127.57   2
   5   5   1 13774.4 3185.48   3
  -5   5  -2 56986.2 7352.58   2
   5   5   2 25872.1 4843.83   3
   5   7  -6 65993.8 6781.56   2
  -5   7   5 19488.7 3671.41   2
   5   7  -5 22126.2 4273.63   2
   5   7  -4 5651.61 1981.85   2
  -5   7   4 3825.24 1675.78   2
  -5   7   3 1428.68 1105.48   2
  -5   7   2 74185.9 8689.89   2
  -5   7   1 58354.1 7855.68   2
  -5   7   0 26764.6 5225.19   2
   6   0  -9-173.898 406.427   1
   6   0  -8 171330. 12942.0   1
   6   0  -7-256.565 438.703   1
   6   0  -6 87599.3 7585.59   1
   6   0  -5 30.0182 124.858   1
   6   0  -5 146.065 200.647   2
   6   0  -5-214.695 213.447   3
   6   0  -4 325874. 13329.4   2
   6   0  -4 302444. 13991.0   1
   6   0  -4 309882. 12106.9   3
   6   0  -3-59.8939 147.979   1
   6   0  -3 31.5340 101.583   3
   6   0  -3 88.5171 192.246   2
   6   0  -2 37104.1 3784.54   1
   6   0  -2 42244.0 4474.87   3
   6   0  -1 205.415 332.986   3
   6   0   0 324834. 16428.1   3
   6   0   1-854.565 772.768   3
   6   0   2 2302.88 1361.30   3
   6   0   3 661.292 760.503   3
   6   2  -9 86085.3 9959.19   1
   6  -2  -8 43831.9 6228.30   1
   6   2  -8 40204.0 6621.65   1
   6  -2  -7 141897. 11080.7   1
   6   2  -7 176402. 12768.6   1
   6  -2  -6 84043.5 7453.42   1
   6   2  -6 67433.0 3667.32   2
   6   2  -5 57577.0 4520.88   2
   6  -2  -5 56440.7 5732.82   1
   6  -2  -5 56670.9 4083.60   2
   6   2  -5 70400.8 6619.51   1
   6  -2  -5 60651.0 3979.87   3
  -6  -2   5 55245.7 3954.07   3
   6   2  -4 50739.7 4986.09   2
   6  -2  -4 47102.7 5212.21   1
   6  -2  -4 51144.0 4619.49   2
   6   2  -4 49784.5 5070.14   1
   6   2  -4 50202.4 4539.43   3
   6  -2  -4 62407.9 4460.18   3
  -6  -2   4 51209.9 4125.91   3
   6   2  -3 61681.8 6015.80   2
   6  -2  -3 55967.2 5377.66   2
   6   2  -3 55572.0 4826.07   1
   6   2  -3 56087.4 5058.28   3
   6  -2  -3 49273.8 4357.76   3
   6   2  -2 115503. 6042.17   1
   6   2  -2 105492. 7157.50   3
   6  -2  -2 104499. 6896.36   3
   6   2  -1 144452. 5573.71   1
   6   2  -1 147136. 9430.54   3
   6  -2  -1 165334. 9340.83   3
   6   2   0 120830. 9140.21   3
   6  -2   0 99231.8 7843.35   3
   6   2   1 142167. 10528.8   3
   6  -2   1 124794. 9695.72   3
   6   2   2 44561.3 5984.62   3
   6  -2   2 66748.0 7272.88   3
   6  -4  -8 11787.3 3159.25   1
   6   4  -8 874.017 1247.74   1
   6  -4  -7 1384.94 1024.48   1
   6   4  -7 3089.53 1987.03   1
   6  -4  -6 95798.0 8852.13   1
   6   4  -6 99584.0 6293.50   2
   6   4  -6 96319.4 10007.3   1
   6  -4  -5 37949.3 5415.77   1
  -6   4   5 25496.6 3190.48   2
   6   4  -5 27610.0 4463.12   1
  -6   4   4 95.1551 199.959   2
   6   4  -4-262.954 376.942   1
  -6   4   3 52420.5 5356.46   2
   6   4  -3 56098.9 4997.21   1
  -6   4   2 138776. 9777.01   2
   6   4  -2 143318. 9685.88   3
  -6   4   1 11672.4 2863.90   2
   6   4  -1 10908.9 2658.73   3
  -6   4   0 18763.8 3991.29   2
   6   4   0 23950.2 4430.89   3
  -6   4  -1 47867.8 6830.08   2
   6   4   1 51568.6 6797.61   3
   6  -4   1 58694.9 8115.12   3
   6   6  -7-133.638 351.515   1
   6   6  -6-150.957 335.586   1
   6  -6  -6 1403.01 3082.35   1
  -6   6   5 69779.0 6518.85   2
   6   6  -5 79390.8 7143.97   2
  -6   6   4 80748.7 7411.55   2
  -6   6   3 89636.1 8321.98   2
  -6   6   2 4691.58 1897.95   2
  -6   6   1-757.553 796.182   2
  -6   6   0 153460. 12638.3   2
  -6   8   4 86443.0 9243.97   2
  -6   8   3 50914.3 7279.44   2
   7  -1  -8 2866.84 1649.30   1
   7   1  -8 4381.52 1967.02   1
   7  -1  -7 5942.88 2148.78   1
   7   1  -7 4983.04 1993.45   1
   7  -1  -6 30623.7 4663.56   1
   7   1  -6 25111.9 4496.61   1
   7  -1  -5 39474.0 5013.21   1
   7   1  -5 41930.7 5301.93   1
   7   1  -5 33941.4 3609.66   3
   7  -1  -5 37218.6 3371.17   3
   7  -1  -4 39100.3 4780.31   1
   7   1  -4 44384.4 5063.68   1
   7   1  -4 44464.0 4416.80   3
   7  -1  -4 48713.9 4461.80   3
   7  -1  -3 107783. 8118.00   1
   7   1  -3 115111. 7832.06   1
   7   1  -3 98856.1 7254.53   3
   7  -1  -3 120518. 8376.41   3
   7   1  -2 172437. 9157.95   1
   7  -1  -2 154851. 10003.3   3
   7   1  -1 46462.1 5629.68   3
   7  -1  -1 46151.3 5374.52   3
   7   1   0 2519.96 1345.09   3
   7  -1   0 2477.49 1277.04   3
   7   1   1-345.227 530.209   3
   7  -1   1-146.036 336.939   3
   7   3  -8 86735.6 10686.0   1
   7  -3  -7 12550.0 3186.22   1
   7   3  -7 19643.5 4520.28   1
   7  -3  -6 6130.36 2039.07   1
   7   3  -6 6499.98 2313.36   1
   7  -3  -5 33257.0 4698.19   1
   7   3  -5 31263.2 4466.67   1
   7  -3  -5 31563.2 3286.18   3
   7   3  -4 103066. 7457.51   1
   7  -3  -4 121256. 7427.82   3
   7   3  -3 12668.3 2704.81   3
   7  -3  -3 9657.00 2013.93   3
   7  -3  -2 6955.36 1789.03   3
   7   3  -2 6786.48 2079.78   3
   7   3  -1 5925.15 2119.54   3
   7  -3  -1 5215.70 1674.95   3
   7   3   0 102259. 9531.17   3
   7  -3   0 105882. 9144.34   3
   7   5  -7 40212.4 6841.99   1
   7   5  -6 33189.6 5279.26   1
  -7   5   4 13094.7 2852.49   2
  -7   5   3 324.879 465.782   2
  -7   5   2 21674.6 4138.33   2
  -7   5   1 2827.97 1563.75   2
   7   5  -1-342.714 533.162   3
  -7   7   4 11445.6 2997.81   2
  -7   7   3 7344.72 2545.40   2
   8   0  -8 75630.7 9191.24   1
   8   0  -7-556.546 711.603   1
   8   0  -6 3410.44 1612.48   1
   8   0  -5 169.065 258.195   3
   8   0  -5 26.7232 136.150   1
   8   0  -4 353045. 17095.5   1
   8   0  -4 327888. 15364.6   3
   8   0  -3-309.550 421.389   3
   8   0  -3 252.620 365.773   1
   8   0  -2 154070. 10961.3   3
   8   0  -1-250.058 421.679   3
   8   2  -8 25519.6 5419.56   1
   8  -2  -7 60769.8 7488.81   1
   8   2  -7 62561.9 7941.45   1
   8  -2  -6 60293.0 7005.75   1
   8   2  -6 57316.7 7296.55   1
   8  -2  -5 51133.7 6152.10   1
   8   2  -5 69918.5 7311.43   1
   8   2  -5 59674.0 5886.29   3
   8  -2  -4 1332.09 856.814   3
   8  -2  -4 858.276 748.684   1
   8   2  -4 520.188 557.484   3
   8  -2  -3 101386. 8534.37   1
   8   2  -3 99020.4 8630.65   3
   8  -2  -3 101268. 8071.07   3
   8   2  -2 73056.4 7427.61   3
   8  -2  -2 65109.5 6339.57   3
   8   2  -1 61184.3 7123.99   3
   8  -2  -1 51325.3 5910.44   3
   8  -4  -5 36568.5 5055.16   1
   8  -4  -4-355.913 392.204   3
   8  -4  -3 390.823 433.146   3
   8   4  -3-86.1451 258.844   3
   8  -4  -2 28436.7 4179.11   3
   9   1  -7 120.031 345.857   1
   9  -1  -6 26875.3 5144.20   1
   9  -1  -5 7661.44 2502.92   1
   9   1  -4 1764.21 1081.69   3
   9   1  -3 51027.2 6282.25   3
   9  -1  -3 45278.2 5787.43   3
   9   3  -4 31571.7 5224.14   3
   0   0   0    0.00    0.00   0

TITL cryst4-He-exp2-30K in C2/c
REM C2/c (#15 with fixed user cell (not necessary: std = user cell)!)
CELL 0.71073   6.843043   7.661157   7.594627  90.0000 117.7426  90.0000
ZERR    4.00   0.000886   0.000798   0.000999   0.0000   0.0170   0.0000
LATT  7
SYMM -x, y,-z+1/2
SFAC H O Mg S
UNIT 8.00 20.00 4.00 4.00
TREF
HKLF 4
END
;
_shelx_hkl_checksum              41842
loop_
_space_group_symop_operation_xyz
'x, y, z'
'-x, y, -z+1/2'
'x+1/2, y+1/2, z'
'-x+1/2, y+1/2, -z+1/2'
'-x, -y, -z'
'x, -y, z-1/2'
'-x+1/2, -y+1/2, -z'
'x+1/2, -y+1/2, z-1/2'
loop_
_atom_site_label
_atom_site_type_symbol
_atom_site_fract_x
_atom_site_fract_y
_atom_site_fract_z
_atom_site_U_iso_or_equiv
_atom_site_adp_type
_atom_site_occupancy
_atom_site_site_symmetry_order
_atom_site_calc_flag
_atom_site_refinement_flags_posn
_atom_site_refinement_flags_adp
_atom_site_refinement_flags_occupancy
_atom_site_disorder_assembly
_atom_site_disorder_group
Mg Mg 0.000000 0.500000 0.000000 0.0057(5) Uani 1 2 d S . P . .
S S 0.000000 0.15735(13) 0.250000 0.0046(5) Uani 1 2 d S T P . .
O1 O 0.1756(3) 0.0480(3) 0.3969(3) 0.0073(6) Uani 1 1 d . . . . .
O2 O 0.0959(3) 0.2699(3) 0.1514(3) 0.0070(6) Uani 1 1 d . . . . .
O3 O 0.000000 0.6338(4) 0.250000 0.0062(8) Uani 1 2 d S T P . .
H H 0.094(7) 0.690(7) 0.284(6) 0.013(11) Uiso 1 1 d . . . . .
loop_
_atom_site_aniso_label
_atom_site_aniso_U_11
_atom_site_aniso_U_22
_atom_site_aniso_U_33
_atom_site_aniso_U_23
_atom_site_aniso_U_13
_atom_site_aniso_U_12
Mg 0.0047(8) 0.0041(9) 0.0093(8) 0.0002(5) 0.0042(6) -0.0002(5)
S 0.0037(7) 0.0021(7) 0.0084(7) 0.000 0.0032(5) 0.000
O1 0.0060(11) 0.0068(13) 0.0096(11) 0.0012(8) 0.0040(9) -0.0001(8)
O2 0.0049(11) 0.0047(12) 0.0123(10) 0.0010(8) 0.0047(9) 0.0005(8)
O3 0.0039(16) 0.0050(16) 0.0087(16) 0.000 0.0023(13) 0.000
loop_
_atom_type_symbol
_atom_type_description
_atom_type_scat_dispersion_real
_atom_type_scat_dispersion_imag
_atom_type_scat_source
O O 0.0106 0.0060 'International Tables Vol C Tables 4.2.6.8 and 6.1.1.4'
H H 0.0000 0.0000 'International Tables Vol C Tables 4.2.6.8 and 6.1.1.4'
S S 0.1246 0.1234 'International Tables Vol C Tables 4.2.6.8 and 6.1.1.4'
Mg Mg 0.0486 0.0363 'International Tables Vol C Tables 4.2.6.8 and 6.1.1.4'
loop_
_geom_angle_atom_site_label_1
_geom_angle_atom_site_label_2
_geom_angle_atom_site_label_3
_geom_angle
_geom_angle_site_symmetry_1
_geom_angle_site_symmetry_3
_geom_angle_publ_flag
O1 Mg O1 180.0 8_455 4 ?
O1 Mg O2 93.90(8) 8_455 . ?
O1 Mg O2 86.10(8) 4 . ?
O1 Mg O2 86.10(8) 8_455 5_565 ?
O1 Mg O2 93.90(8) 4 5_565 ?
O2 Mg O2 180.00(12) . 5_565 ?
O1 Mg O3 91.40(7) 8_455 5_565 ?
O1 Mg O3 88.60(7) 4 5_565 ?
O2 Mg O3 87.32(10) . 5_565 ?
O2 Mg O3 92.68(10) 5_565 5_565 ?
O1 Mg O3 88.60(7) 8_455 . ?
O1 Mg O3 91.40(7) 4 . ?
O2 Mg O3 92.68(10) . . ?
O2 Mg O3 87.32(10) 5_565 . ?
O3 Mg O3 180.0 5_565 . ?
O1 S O1 110.13(19) . 2 ?
O1 S O2 108.54(11) . . ?
O1 S O2 110.41(11) 2 . ?
O1 S O2 110.41(11) . 2 ?
O1 S O2 108.54(11) 2 2 ?
O2 S O2 108.79(18) . 2 ?
S O1 Mg 139.96(14) . 4_545 ?
S O2 Mg 133.34(12) . . ?
Mg O3 Mg 123.26(16) . 2 ?
Mg O3 H 103(3) . . ?
Mg O3 H 110(3) 2 . ?
Mg O3 H 110(3) . 2 ?
Mg O3 H 103(3) 2 2 ?
H O3 H 106(8) . 2 ?
loop_
_geom_bond_atom_site_label_1
_geom_bond_atom_site_label_2
_geom_bond_distance
_geom_bond_site_symmetry_2
_geom_bond_publ_flag
Mg O1 2.017(2) 8_455 ?
Mg O1 2.017(2) 4 ?
Mg O2 2.040(2) . ?
Mg O2 2.040(2) 5_565 ?
Mg O3 2.1596(17) 5_565 ?
Mg O3 2.1596(17) . ?
S O1 1.465(2) . ?
S O1 1.465(2) 2 ?
S O2 1.483(2) . ?
S O2 1.483(2) 2 ?
O3 H 0.72(4) . ?
O3 H 0.72(4) 2 ?
