#------------------------------------------------------------------------------
#$Date: 2022-03-06 06:37:54 +0200 (Sun, 06 Mar 2022) $
#$Revision: 273468 $
#$URL: file:///home/coder/svn-repositories/cod/cif/1/56/59/1565961.cif $
#------------------------------------------------------------------------------
#
# This file is available in the Crystallography Open Database (COD),
# http://www.crystallography.net/
#
# All data on this site have been placed in the public domain by the
# contributors.
#
data_1565961
loop_
_publ_author_name
'Wildner, Manfred'
'Zakharov, Boris A.'
'Bogdanov, Nikita E.'
'Talla, Dominik'
'Boldyreva, Elena V.'
'Miletich, Ronald'
_publ_section_title
;
 Crystallography relevant to Mars and Galilean icy moons: crystal behavior
 of kieserite-type monohydrate sulfates at extraterrestrial conditions
 down to 15 K
;
_journal_issue                   2
_journal_name_full               IUCrJ
_journal_page_first              194
_journal_page_last               203
_journal_paper_doi               10.1107/S2052252521012720
_journal_volume                  9
_journal_year                    2022
_chemical_formula_sum            'H2 Ni O5 S'
_chemical_formula_weight         172.79
_space_group_crystal_system      monoclinic
_space_group_IT_number           15
_space_group_name_Hall           '-C 2yc'
_space_group_name_H-M_alt        'C 1 2/c 1'
_atom_sites_solution_hydrogens   difmap
_audit_creation_method           SHELXL-2017/1
_cell_angle_alpha                90
_cell_angle_beta                 117.611(17)
_cell_angle_gamma                90
_cell_formula_units_Z            4
_cell_length_a                   6.8026(9)
_cell_length_b                   7.6191(7)
_cell_length_c                   7.4450(10)
_cell_measurement_temperature    75(2)
_cell_volume                     341.93(9)
_computing_structure_refinement  'SHELXL-2017/1 (Sheldrick, 2017)'
_diffrn_ambient_temperature      75(2)
_diffrn_measured_fraction_theta_full 0.997
_diffrn_measured_fraction_theta_max 0.898
_diffrn_radiation_type           MoK\a
_diffrn_radiation_wavelength     0.71073
_diffrn_reflns_av_R_equivalents  0.0272
_diffrn_reflns_av_unetI/netI     0.0313
_diffrn_reflns_Laue_measured_fraction_full 0.997
_diffrn_reflns_Laue_measured_fraction_max 0.898
_diffrn_reflns_limit_h_max       9
_diffrn_reflns_limit_h_min       -6
_diffrn_reflns_limit_k_max       10
_diffrn_reflns_limit_k_min       -8
_diffrn_reflns_limit_l_max       8
_diffrn_reflns_limit_l_min       -9
_diffrn_reflns_number            1238
_diffrn_reflns_point_group_measured_fraction_full 0.997
_diffrn_reflns_point_group_measured_fraction_max 0.898
_diffrn_reflns_theta_full        25.242
_diffrn_reflns_theta_max         29.362
_diffrn_reflns_theta_min         4.295
_exptl_absorpt_coefficient_mu    6.160
_exptl_crystal_density_diffrn    3.356
_exptl_crystal_F_000             344
_exptl_crystal_size_max          0.340
_exptl_crystal_size_mid          0.170
_exptl_crystal_size_min          0.120
_refine_diff_density_max         0.442
_refine_diff_density_min         -0.501
_refine_diff_density_rms         0.129
_refine_ls_extinction_coef       0.041(2)
_refine_ls_extinction_expression Fc^*^=kFc[1+0.001xFc^2^\l^3^/sin(2\q)]^-1/4^
_refine_ls_extinction_method     'SHELXL-2017/1 (Sheldrick 2017)'
_refine_ls_goodness_of_fit_ref   1.120
_refine_ls_hydrogen_treatment    refall
_refine_ls_matrix_type           full
_refine_ls_number_parameters     40
_refine_ls_number_reflns         424
_refine_ls_number_restraints     0
_refine_ls_restrained_S_all      1.120
_refine_ls_R_factor_all          0.0227
_refine_ls_R_factor_gt           0.0209
_refine_ls_shift/su_max          0.001
_refine_ls_shift/su_mean         0.000
_refine_ls_structure_factor_coef Fsqd
_refine_ls_weighting_details
'w=1/[\s^2^(Fo^2^)+(0.0260P)^2^] where P=(Fo^2^+2Fc^2^)/3'
_refine_ls_weighting_scheme      calc
_refine_ls_wR_factor_gt          0.0509
_refine_ls_wR_factor_ref         0.0520
_reflns_Friedel_coverage         0.000
_reflns_number_gt                395
_reflns_number_total             424
_reflns_threshold_expression     'I > 2\s(I)'
_cod_data_source_file            lt5044.cif
_cod_data_source_block           NiSO4H2O_He_75K
_cod_depositor_comments
'Adding full bibliography for 1565934--1565967.cif.'
_cod_original_sg_symbol_H-M      'C 2/c'
_cod_database_code               1565961
_shelx_shelxl_version_number     2017/1
_shelx_space_group_comment
;
The symmetry employed for this shelxl refinement is uniquely defined
by the following loop, which should always be used as a source of
symmetry information in preference to the above space-group names.
They are only intended as comments.
;
_shelx_estimated_absorpt_t_min   0.229
_shelx_estimated_absorpt_t_max   0.525
_shelx_res_file
;
TITL kieserite cell setting from literature
    NiSO4_viekies_exp2-He-75K.res
    created by SHELXL-2017/1 at 09:11:35 on 25-Dec-2020
REM meas. CELL 0.71073   6.791750   7.612963   7.4365  90.0000 117.614  90.0000
REM latt corr for Nonius20C  +.0109 +.0061 +.0085         -.003
CELL 0.71073   6.802650   7.619063   7.4450  90.0000 117.611  90.0000
ZERR    4.00   0.000900   0.000656   0.0010   0.0000   0.017   0.0000
LATT  7
SYMM -X, Y, 1/2-Z
SFAC O H S NI
UNIT 20 8 4 4
OMIT -2 2 2
L.S. 6
BOND
CONF
CONN 12 1.8 $O
EQIV $9 -x+1/2, y+1/2, -z+1/2
BOND $H
FMAP 2
PLAN 20
ACTA
HTAB O3 O2_$9
HTAB
TEMP -198
SIZE 0.34 0.17 0.12
WGHT    0.026000
EXTI    0.041019
FVAR       7.42533
NI    4    0.000000    0.500000    0.000000    10.50000    0.00174    0.00297 =
         0.00311   -0.00009    0.00108   -0.00013
S     3    0.000000    0.157797    0.250000    10.50000    0.00185    0.00313 =
         0.00369    0.00000    0.00150    0.00000
O1    1    0.172362    0.047919    0.404892    11.00000    0.00310    0.00494 =
         0.00538    0.00125    0.00148    0.00080
O2    1    0.105056    0.270926    0.155552    11.00000    0.00371    0.00435 =
         0.00635    0.00113    0.00279    0.00042
O3    1    0.000000    0.630362    0.250000    10.50000    0.00237    0.00546 =
         0.00612    0.00000    0.00221    0.00000
H     2    0.099247    0.697779    0.298683    11.00000    0.02397
HKLF 4 1   -1 0 0  0 -1 0  1 0 1




REM  kieserite cell setting from literature
REM R1 =  0.0209 for     395 Fo > 4sig(Fo)  and  0.0227 for all     424 data
REM     40 parameters refined using      0 restraints

END

WGHT      0.0262      0.0000

REM Instructions for potential hydrogen bonds
EQIV $5 x+1/2, y+1/2, z
HTAB O3 S_$5
HTAB O3 O2_$9

REM Highest difference peak  0.442,  deepest hole -0.501,  1-sigma level  0.129
Q1    1  -0.0732  0.3998  0.0011  11.00000  0.05    0.44
Q2    1   0.0506  0.2050  0.1802  11.00000  0.05    0.44
Q3    1   0.0640  0.3586  0.1076  11.00000  0.05    0.40
Q4    1  -0.0480  0.4891  0.0991  11.00000  0.05    0.39
Q5    1   0.1521  0.1578  0.3873  11.00000  0.05    0.38
Q6    1   0.0933  0.3945 -0.0130  11.00000  0.05    0.38
Q7    1  -0.0665  0.5795  0.2978  11.00000  0.05    0.37
Q8    1   0.0928 -0.0413  0.5816  11.00000  0.05    0.36
Q9    1   0.0730  0.1227  0.3269  11.00000  0.05    0.35
Q10   1   0.0000  0.5214  0.2500  10.50000  0.05    0.33
Q11   1   0.1055  0.0413  0.4976  11.00000  0.05    0.32
Q12   1   0.1098  0.8435  0.4542  11.00000  0.05    0.31
Q13   1  -0.1559  0.4909 -0.1150  11.00000  0.05    0.30
Q14   1   0.2984  0.2024  0.4807  11.00000  0.05    0.28
Q15   1   0.1218  0.7757  0.3565  11.00000  0.05    0.28
Q16   1   0.2150  0.2566  0.2037  11.00000  0.05    0.28
Q17   1   0.0528  0.4536  0.1672  11.00000  0.05    0.27
Q18   1   0.0514 -0.0304  0.2151  11.00000  0.05    0.27
Q19   1  -0.0651  0.3595 -0.0971  11.00000  0.05    0.26
Q20   1   0.1459  0.0711  0.2770  11.00000  0.05    0.25
;
_shelx_res_checksum              77486
_shelx_hkl_file
;
   0   0   2 18011.0 1152.01   3
   0   0  -2 23328.8 1317.74   3
   0   0  -3-124.713 159.741   3
   0   0   3 198.998 198.800   3
   0   0   4 316785. 6763.25   2
   0   0  -4 313546. 6942.20   3
   0   0   5 228.324 292.473   2
   0   0  -6 18364.0 2108.05   3
   0   0   6 18395.2 2080.78   2
   0   0  -7-108.632 280.879   3
   0   0  -8 284014. 9873.61   3
   0  -2   0 192580. 4165.49   3
   0  -2   0 198423. 2547.33   1
   0   2   1 281757. 4795.07   2
   0   2   1 313326. 4464.62   1
   0  -2   1 312087. 5655.67   3
   0  -2  -1 286340. 4769.19   2
   0   2   2 744831. 8135.93   2
   0  -2  -2 772540. 8219.51   2
   0  -2   2 764493. 9895.30   3
   0   2   3 66602.3 2705.73   2
   0  -2  -3 68112.8 2735.21   2
   0   2  -3 65765.7 3273.96   3
   0  -2   3 72254.9 3468.17   3
   0  -2   4 167077. 5866.75   3
   0   2   4 164088. 4758.45   2
   0   2  -5 124398. 5480.10   3
   0   2   5 120537. 4565.58   2
   0  -2   5 137098. 5842.95   3
   0  -2  -6 67977.7 4057.47   3
   0   2   6 69915.0 3834.67   2
   0   2  -6 66959.1 4378.84   3
   0   2  -7 84100.2 5341.78   3
   0  -2  -7 94088.1 5220.16   3
   0   2   8 49037.8 5055.00   1
   0   2  -8 48877.4 4388.68   3
   0  -4   0 315914. 4279.93   1
   0   4   0 324400. 4385.03   1
   0  -4   1 378.758 287.929   3
   0  -4  -1-190.415 229.868   3
   0   4   1 84.6392 123.087   1
   0  -4   1 118.666 132.933   1
   0  -4   2 521578. 10515.0   3
   0   4   2 505874. 8174.29   1
   0   4   2 514852. 9132.97   2
   0  -4   2 520946. 7547.33   1
   0   4   3 158041. 5295.25   2
   0   4  -3 155923. 6285.21   3
   0   4   3 141861. 5145.14   1
   0  -4   3 164037. 6244.62   3
   0   4   4 4954.17 1137.80   1
   0   4   4 7243.85 1215.91   2
   0   4  -4 5164.12 1258.93   3
   0   4   5 44837.3 3145.25   2
   0   4   5 39090.6 3542.84   1
   0   4  -5 41646.9 3684.16   3
   0  -4  -5 44244.4 3053.10   2
   0  -4  -6 346749. 9554.56   3
   0   4   6 323249. 11222.9   1
   0  -4  -7 7518.89 1557.08   3
   0   4   7 3930.97 1389.28   1
   0   4  -7 5806.50 1631.81   3
   0   4  -8 22045.3 3303.72   3
   0   6   0 278390. 4866.53   1
   0  -6   0 269140. 8656.71   2
   0  -6  -1 22032.8 2416.51   2
   0  -6   1 25671.2 2711.34   2
   0   6   1 24571.5 1654.15   1
   0  -6   1 26108.9 1297.28   1
   0  -6   2 57292.3 2314.43   1
   0  -6  -2 52406.6 3645.72   2
   0   6   2 54431.4 2864.44   1
   0   6  -2 56379.5 4470.76   3
   0   6   3 61618.2 3641.01   1
   0  -6  -3 66859.0 4166.10   2
   0  -6   3 62666.4 3025.17   1
   0   6  -3 61493.5 4690.22   3
   0  -6  -4 390130. 10209.2   2
   0   6   4 391790. 10115.4   1
   0  -6   4 413651. 9510.93   1
   0  -6  -5-587.802 300.274   2
   0   6   5 88.0905 497.119   1
   0   6  -5 739.192 680.062   3
   0   6  -6 8135.68 2056.70   3
   0   6   6 7161.38 1827.45   1
   0  -6  -6 7450.80 1521.17   2
   0   6  -7 907.337 1080.38   3
   0   6   7 746.112 677.632   1
   0  -8   0 145608. 7613.67   2
   0  -8  -1 106764. 6371.88   2
   0  -8   1 111590. 6718.49   2
   0   8   2 64970.7 3270.53   1
   0  -8   2 57052.7 4927.02   2
   0  -8  -2 54311.2 4448.28   2
   0  -8  -3 11736.0 2123.68   2
   0  -8   3 10738.0 2141.25   2
   0   8   3 11392.4 1604.73   1
   0  -8  -4 118383. 6607.54   2
   0   8   4 124414. 5883.25   1
   0   8  -4 117102. 8030.04   3
   0  -8   4 109917. 6899.71   2
   0  -8  -5 8381.00 1779.10   2
   1  -1  -8 313.203 410.897   3
  -1  -1   8 439.559 498.046   1
  -1   1   8 248.042 494.880   1
   1   1  -8-540.861 450.308   3
   1   1  -7 281555. 8314.56   3
   1  -1  -7 296920. 7764.63   3
  -1   1   7 278057. 10246.6   1
  -1  -1   7 287689. 8277.23   2
   1   1  -6 5557.99 1061.79   3
  -1   1   6 4856.45 1269.17   1
  -1  -1   6 5948.08 1143.39   3
  -1   1   6 5272.72 868.631   2
   1  -1  -5 146686. 4306.23   3
  -1   1   5 135336. 3802.65   2
  -1  -1   5 141606. 4925.70   3
  -1   1   5 134945. 5766.47   1
   1  -1  -4 40299.5 1888.08   3
  -1   1   4 37789.9 1641.65   2
  -1   1   4 41024.5 2798.67   1
   1   1  -4 40155.2 2219.35   3
  -1  -1   4 37128.2 2218.23   3
  -1   1   3 121616. 4119.24   1
  -1   1   3 119761. 2163.07   2
  -1  -1   3 122947. 3460.23   3
   1  -1  -3 121095. 2514.49   3
   1   1  -3 119455. 3336.18   3
  -1  -1   2 211637. 3824.90   1
   1   1  -2 217524. 3870.64   3
  -1  -1   2 213157. 3799.19   3
  -1   1   2 210686. 4482.81   1
  -1   1   1 257112. 4015.72   1
  -1   1   1 257302. 3085.88   3
   1  -1  -1 250621. 2957.83   3
   1   1  -1 258344. 3864.92   2
  -1  -1   1 260329. 2843.71   1
   1   1  -1 254764. 2777.54   1
  -1   1   0 157412. 3279.07   1
   1   1   0 151181. 3169.44   2
   1  -1   0 157392. 3223.22   3
   1  -1   1 687513. 8391.18   3
   1   1   1 694897. 7957.97   2
   1   1   2 24559.5 1735.71   2
   1  -1   2 24582.1 1854.75   3
  -1  -1  -2 23355.8 1688.09   2
   1   1   3 417352. 8233.93   2
   1  -1   3 473140. 9134.08   3
   1   1   4 9700.21 1417.10   2
   1  -1   4 9230.96 1453.08   3
  -1   1  -4 8603.21 1418.45   3
  -1  -1  -4 9277.68 1393.70   3
  -1   1  -5 247377. 8219.91   3
  -1  -1  -5 262618. 8133.10   3
   1   1   5 251217. 7852.69   2
   1  -1   5 245444. 8109.93   2
  -1   1  -6 26192.1 2884.68   3
  -1  -1  -6 25718.7 2812.26   3
  -1  -1  -7 31916.2 3415.23   3
  -1   1  -7 30211.1 3389.41   3
  -1   1  -8 39840.4 4234.55   3
  -1  -1  -8 35401.3 3865.50   3
  -1   3   8 3689.36 1512.29   1
   1   3  -8 3933.99 1257.20   3
   1   3  -7 51549.9 4093.02   3
   1  -3  -7 53680.2 3380.10   3
  -1   3   7 49920.3 4574.34   1
   1   3  -6 27911.9 2805.62   3
  -1   3   6 28564.9 2117.04   2
  -1   3   6 25967.1 2993.94   1
  -1   3   5 324131. 9429.06   1
  -1   3   5 315669. 6469.28   2
   1   3  -5 320821. 8790.29   3
  -1   3   4 45798.5 2276.95   2
  -1   3   4 44789.9 3111.72   1
   1  -3  -4 44906.5 2219.60   2
   1   3  -4 45817.3 3100.48   3
  -1  -3   4 47690.7 3092.65   3
   1  -3  -3 105666. 3246.57   2
  -1   3   3 103347. 4101.09   1
  -1  -3   3 102720. 4258.31   3
   1  -3  -2 187810. 4430.40   2
   1  -3  -2 170722. 4629.97   1
   1  -3  -2 167571. 4349.82   3
  -1   3   2 185741. 4826.71   1
  -1  -3   2 170034. 5163.29   3
   1  -3  -1 317634. 5671.63   1
  -1   3   1 320623. 6490.59   3
   1  -3  -1 344599. 6425.32   3
  -1   3   1 351724. 5804.34   1
   1  -3   0 17013.5 1253.77   1
   1  -3   0 15523.3 1467.55   3
  -1   3   0 16037.1 1251.37   1
   1   3   0 14435.1 1468.86   2
   1   3   0 15569.8 773.584   1
   1  -3   1 262215. 6530.49   3
   1  -3   1 264632. 5676.25   1
   1   3   1 266271. 6202.49   2
   1  -3   2 9149.82 1304.21   1
   1  -3   2 9553.67 1383.47   3
   1   3   2 11704.2 1381.13   2
   1   3   3 591295. 10330.3   2
  -1   3  -3 586919. 11803.1   3
  -1  -3  -4 247.544 416.476   2
  -1   3  -4 371.143 416.917   3
   1   3   4 383.469 350.443   2
  -1  -3  -5 51562.4 3689.08   3
   1   3   5 47065.4 3486.42   2
  -1   3  -5 48932.7 4007.61   3
  -1   3  -6 3922.63 1287.52   3
  -1  -3  -6 3860.61 1076.50   3
  -1   3  -7 129442. 7504.29   3
  -1  -3  -7 121441. 6767.19   3
  -1   3  -8 2764.72 1199.22   3
   1   5  -8 43267.4 4630.88   3
  -1  -5   8 31165.9 3265.16   1
   1   5  -7 193742. 9129.99   3
  -1   5   7 192265. 9341.78   1
  -1   5   6 7500.96 1657.74   1
   1   5  -6 9588.93 1991.89   3
   1  -5  -6 8993.41 1300.52   2
   1   5  -5 78769.7 5273.07   3
  -1   5   5 72581.8 4677.16   1
   1  -5  -5 81032.8 3972.63   2
   1  -5  -4 36972.4 2860.89   3
   1   5  -4 41969.5 3627.00   3
  -1   5   4 34608.1 2968.17   1
  -1   5   3 214782. 6503.50   1
   1  -5  -3 203365. 6561.13   3
   1   5  -3 219474. 8066.06   3
  -1  -5   3 198146. 7018.01   2
  -1  -5   3 202810. 4316.54   1
  -1  -5   2 7258.13 1362.97   2
  -1   5   2 8014.55 1125.79   1
   1  -5  -2 6728.22 1192.21   3
  -1  -5   2 8991.80 1529.20   3
   1  -5  -2 7681.11 1275.91   2
   1  -5  -1 232374. 5533.52   1
  -1   5   1 232641. 5462.31   1
   1  -5  -1 232891. 7101.21   3
   1  -5  -1 219708. 6751.35   2
  -1  -5   0 8362.47 1393.87   2
  -1  -5   0 8663.18 1491.90   3
   1  -5   0 10138.1 1116.69   1
   1  -5   0 9543.72 1494.01   3
  -1   5   0 9076.04 1542.96   3
  -1   5   0 9986.38 1150.33   1
   1   5   0 9299.54 606.648   1
   1  -5   1 370693. 9820.17   3
   1   5   1 366259. 5911.71   1
   1   5   1 368864. 9068.16   2
  -1  -5  -1 353380. 8885.21   2
   1  -5   1 347448. 6885.94   1
  -1   5  -1 366323. 10055.5   3
   1  -5   2 87578.4 3923.52   1
  -1  -5  -2 92980.4 4678.67   2
   1   5   2 93873.1 3816.20   1
  -1   5  -2 95777.5 5391.45   3
   1   5   2 100376. 4918.89   2
  -1   5  -3 67242.4 4752.91   3
   1   5   3 61303.5 3670.61   1
   1  -5   3 57285.7 3670.55   1
  -1  -5  -3 60376.6 3925.11   2
  -1  -5  -4 113338. 5597.87   2
  -1   5  -4 115087. 6575.30   3
   1  -5   4 110131. 5784.06   1
   1   5   4 102906. 5447.56   1
  -1   5  -5 195961. 9120.93   3
  -1  -5  -5 185263. 7500.39   2
   1   5   5 187562. 8257.63   1
  -1  -5  -6 664.065 572.789   3
   1   5   6 1135.00 718.732   1
  -1   5  -7 58092.9 5544.83   3
  -1  -5  -7 55170.0 4742.97   3
  -1   7   7 57650.9 5452.00   1
  -1   7   6 60067.6 5042.41   1
   1   7  -6 61729.1 5695.89   3
  -1  -7   6 57693.7 4815.67   2
  -1  -7   5 52221.6 4506.85   2
   1  -7  -5 59079.9 4106.05   2
  -1   7   5 56765.9 4417.83   1
   1  -7  -4 1750.10 735.310   2
  -1  -7   4 1930.27 950.324   2
  -1   7   4 1916.44 792.184   1
  -1  -7   3 366829. 11700.3   2
  -1   7   3 355566. 8990.57   1
  -1  -7   2 101.729 364.608   2
  -1   7   2 480.848 376.202   1
   1  -7  -1 58277.1 2974.38   1
   1  -7  -1 56996.9 4302.27   2
  -1  -7   1 58283.7 4554.17   2
  -1   7   1 57641.4 3062.61   1
   1  -7   0 65793.1 2997.59   1
   1  -7   0 61922.8 4559.18   2
  -1  -7   0 64197.2 4673.40   2
  -1  -7  -1 171510. 7499.61   2
   1   7   1 181033. 4069.33   1
   1  -7   1 186007. 5226.64   1
  -1  -7  -2 32709.2 3369.66   2
  -1   7  -2 32222.4 3741.37   3
   1   7   2 29396.1 2171.87   1
   1   7   3 75677.3 4149.79   1
  -1  -7  -3 73805.0 5094.18   2
  -1   7  -3 81565.2 6187.47   3
  -1   7  -4 16990.5 2918.54   3
   1   7   4 13312.3 2001.00   1
  -1  -7  -4 10822.6 2001.25   2
  -1   7  -5 119506. 8046.79   3
  -1  -7  -5 99473.7 6145.64   2
   1   7   5 102089. 6150.70   1
   1   7   6 24974.5 3447.19   1
   1  -9  -4-168.639 380.789   2
   1  -9  -3 22175.5 3004.10   2
  -1  -9   3 19886.3 3245.82   2
   1  -9  -2 3468.78 1275.99   2
  -1  -9   2 4611.99 1590.49   2
   1  -9  -1 372533. 12962.8   2
  -1  -9   1 365727. 13043.6   2
  -1  -9   0 8888.16 2069.24   2
   1  -9   0 8305.45 1986.44   2
   1  -9   1 10599.0 2356.16   2
  -1  -9  -1 12166.7 2363.78   2
   1  -9   2 135.661 523.606   2
  -1  -9  -2-695.116 652.025   2
  -1  -9  -3 77185.0 6050.12   2
  -1  -9  -4 629.507 652.753   2
  -2   0   9-389.916 587.580   1
  -2   0   8 35195.2 3767.21   1
   2   0  -7 30.6132 223.415   3
  -2   0   7 322.624 422.837   1
  -2   0   7-20.9298 152.091   2
  -2   0   6 799045. 14696.4   1
  -2   0   6 813493. 8781.07   2
   2   0  -6 799328. 9729.20   3
   2   0  -5 312.404 195.290   3
  -2   0   5 133.336 259.269   1
  -2   0   4 5886.26 550.764   3
   2   0  -4 6003.42 551.866   3
  -2   0   4 5534.25 976.673   1
  -2   0   4 6164.53 493.447   2
  -2   0   3 445.556 124.212   3
  -2   0   3 204.746 207.461   1
  -2   0   3 124.665 82.0427   2
  -2   0   2 845133. 6470.68   2
   2   0  -2 862380. 6243.30   2
  -2   0   2 838954. 9084.20   1
   2   0  -1 678.118 254.177   2
  -2   0   1 575.133 242.374   2
  -2   0   1 244.410 184.387   1
   2   0   0 6852.23 855.926   2
   2   0   1 139.047 191.225   2
   2   0   2 459416. 9032.35   2
   2   0   3 199.562 286.919   2
  -2   0  -3 45.8330 248.730   3
   2   0   4 63290.1 4073.43   2
  -2   0  -4 62737.4 4170.07   3
  -2   0  -5-269.215 461.802   3
  -2   0  -6 504167. 14006.6   3
  -2   0  -7-225.832 603.467   3
  -2  -2   9 27733.9 3472.16   1
  -2   2   8 126669. 7472.13   1
  -2  -2   8 119820. 6541.67   1
   2   2  -8 129805. 5836.31   3
  -2  -2   7 86596.9 4575.46   3
  -2  -2   7 76156.1 4748.96   1
   2   2  -7 90160.5 4527.06   3
   2  -2  -7 93804.3 3300.41   3
  -2   2   7 82718.8 5510.62   1
  -2  -2   6 150127. 5972.86   1
  -2   2   6 148353. 6739.81   1
   2  -2  -6 151038. 3769.95   3
  -2  -2   6 159555. 5719.05   3
  -2  -2   5 88395.1 4079.83   1
  -2   2   5 91303.3 4755.20   1
   2  -2  -5 92800.9 2408.47   3
  -2  -2   5 101064. 4159.55   3
  -2  -2   4 806206. 10570.6   1
  -2   2   4 783109. 12319.9   1
   2  -2  -4 778694. 5952.12   3
   2   2  -4 795171. 10656.9   3
  -2  -2   4 788032. 10635.8   3
   2  -2  -3 37120.4 1291.55   3
   2  -2  -3 36261.1 1213.17   2
  -2  -2   3 35984.0 2113.31   3
  -2  -2   3 37086.5 1901.16   1
  -2   2   3 36307.2 2436.37   1
  -2  -2   3 37169.9 2140.02   2
   2   2  -2 78231.1 3043.63   2
  -2   2   2 76092.8 3151.88   1
   2   2  -2 76881.1 2148.95   1
  -2  -2   2 78819.7 3055.36   2
  -2   2   2 78890.4 2382.62   3
   2  -2  -2 75492.4 2222.60   3
  -2  -2   2 75266.1 2209.42   1
  -2  -2   1 279709. 4526.11   1
  -2   2   1 299069. 6011.22   1
   2   2  -1 285988. 4022.23   1
   2  -2  -1 291341. 5340.08   3
   2   2  -1 308069. 5970.07   2
  -2   2   1 294866. 5559.28   3
  -2   2   0 73804.1 3281.08   1
   2   2   0 67809.2 2655.17   1
   2   2   0 74820.0 3111.34   2
   2  -2   0 78102.7 3212.57   3
   2   2   1 350379. 7350.12   2
   2  -2   1 321584. 7550.59   1
   2  -2   2 352352. 8567.07   3
   2   2   2 384502. 8498.12   2
   2  -2   3 62396.5 3971.34   3
  -2  -2  -3 59642.2 3656.80   2
   2   2   3 67626.6 3899.69   2
  -2   2  -3 59539.1 3907.38   3
  -2  -2  -4 386683. 10240.0   3
  -2   2  -4 425412. 11234.2   3
  -2  -2  -5 44361.8 3821.51   3
  -2   2  -5 50676.2 4221.11   3
  -2   2  -6 48253.6 4485.49   3
  -2  -2  -6 45970.1 4187.39   3
  -2   2  -7 57445.6 5283.39   3
  -2  -2  -7 50033.7 4756.48   3
  -2  -4   9 51967.4 4439.02   1
  -2   4   8 248796. 11010.2   1
  -2  -4   8 232160. 8272.07   2
  -2  -4   8 237545. 8755.50   1
   2   4  -7 6112.29 1395.46   3
  -2   4   7 6131.87 1526.47   1
  -2  -4   7 5445.62 1239.85   1
   2  -4  -6 85364.0 3588.51   3
  -2  -4   6 75172.3 4285.23   2
  -2  -4   6 77601.3 4020.35   1
  -2   4   6 77967.7 5170.37   1
   2   4  -6 83575.3 4976.04   3
   2   4  -5 2993.99 951.558   3
  -2  -4   5 2315.78 766.725   2
  -2  -4   5 1983.81 749.109   3
   2  -4  -5 2371.81 621.110   3
  -2   4   5 1760.23 776.840   1
  -2  -4   5 2528.35 669.447   1
   2  -4  -5 1915.17 491.818   2
  -2  -4   4 341105. 6090.67   1
   2  -4  -4 328478. 6706.65   3
  -2  -4   4 341477. 8770.31   3
  -2   4   4 339556. 9006.24   1
   2  -4  -4 335011. 6070.62   2
  -2  -4   4 342079. 8675.81   2
  -2   4   3 101140. 4384.75   1
   2  -4  -3 97361.3 3710.53   3
   2  -4  -3 103516. 3742.87   2
  -2  -4   3 105487. 4752.46   3
  -2  -4   3 102889. 4691.61   2
  -2  -4   3 104837. 2423.39   1
   2  -4  -3 95670.9 4248.94   1
  -2  -4   2 73961.0 3935.33   3
  -2   4   2 64883.1 3272.26   1
   2  -4  -2 64029.2 3227.40   1
   2  -4  -2 69877.0 3253.61   3
  -2  -4   2 62385.2 3587.08   2
   2  -4  -1 31525.0 2356.28   3
   2  -4  -1 31509.1 2195.93   1
  -2   4   1 31263.1 2453.78   3
   2   4  -1 28984.3 2489.52   2
  -2   4   1 29481.7 2149.12   1
  -2   4   0 691417. 10989.7   1
   2  -4   0 680751. 10526.1   1
  -2   4   0 683360. 12385.8   3
   2   4   0 712617. 12220.3   2
   2  -4   0 704900. 11763.6   3
   2  -4   1 27803.8 2313.66   1
  -2  -4  -1 28726.6 2535.00   2
  -2   4  -1 27344.6 2609.39   3
   2   4   1 28617.9 2495.93   2
   2  -4   1 34829.0 2882.82   3
  -2  -4  -2 8295.36 1458.17   2
   2  -4   2 7507.25 1376.17   1
   2   4   2 9825.12 1545.75   2
  -2   4  -2 8482.70 1582.80   3
  -2  -4  -3 107219. 5389.65   2
   2  -4   3 100942. 5529.29   1
  -2   4  -3 104653. 5841.17   3
  -2  -4  -4 352186. 10305.4   2
  -2   4  -4 339080. 11137.0   3
  -2  -4  -5 15924.8 2430.35   3
  -2   4  -5 13281.3 2425.55   3
  -2  -4  -6 64483.5 5087.78   3
  -2   4  -6 59658.7 5344.94   3
  -2  -4  -7-300.949 464.988   3
  -2  -6   8 5965.43 1659.31   2
  -2  -6   7 1528.26 868.385   2
  -2   6   7 999.841 970.599   1
  -2   6   6 196115. 8749.25   1
  -2  -6   6 197072. 8313.65   2
  -2  -6   5 22096.2 1543.65   1
   2  -6  -5 23549.2 2145.56   2
  -2   6   5 24929.9 2845.67   1
  -2  -6   5 20255.9 2614.56   2
   2  -6  -4 72832.2 4163.97   3
  -2   6   4 66223.1 4232.79   1
   2  -6  -4 62373.3 3569.07   2
  -2  -6   4 66573.6 4671.63   2
   2  -6  -3 138545. 5685.27   1
   2  -6  -3 118022. 5238.01   2
   2  -6  -3 130439. 5601.26   3
  -2  -6   3 139129. 6640.63   2
  -2   6   3 127530. 5403.51   1
  -2   6   2 376177. 8732.69   1
  -2  -6   2 374039. 10717.1   2
   2  -6  -2 392253. 9865.31   3
   2  -6  -2 365098. 9576.00   2
  -2  -6   1 2598.75 957.305   2
  -2   6   1 3413.91 1108.70   3
   2  -6  -1 3357.65 781.126   1
  -2   6   1 2021.67 711.348   1
  -2   6   0 25960.4 2962.09   3
  -2   6   0 27074.4 2447.54   1
   2   6   0 23420.1 851.907   1
  -2  -6   0 23238.8 2645.12   2
   2  -6   0 25985.5 2241.49   1
   2   6   0 22214.7 806.419   1
  -2   6  -1 3066.98 1075.13   3
   2   6   1 4652.55 737.948   1
   2  -6   1 4250.17 981.230   1
  -2  -6  -1 6591.61 1518.81   2
  -2   6  -2 416731. 12827.4   3
   2   6   2 430355. 8791.58   1
   2  -6   2 422271. 10274.2   1
  -2  -6  -2 422542. 11740.1   2
   2   6   3 33509.0 2928.13   1
  -2  -6  -3 37446.3 3666.34   2
  -2   6  -3 30066.6 3618.72   3
   2   6   4 18480.8 2488.77   1
  -2  -6  -4 18400.1 2628.90   2
  -2   6  -4 19865.4 3101.33   3
   2   6   5 21117.6 2963.52   1
  -2  -6  -5 21732.6 2981.56   2
  -2   6  -5 25040.6 3708.04   3
  -2  -6  -6 123943. 7649.08   3
   2   6   6 100527. 7192.98   1
  -2   8   6 64827.2 5281.62   1
  -2  -8   5 83046.1 6211.17   2
  -2   8   5 78893.9 5386.66   1
   2  -8  -4 37798.8 3442.05   2
  -2  -8   4 39329.8 4181.95   2
  -2   8   4 36230.7 3341.10   1
  -2   8   3 35244.8 3091.62   1
  -2  -8   3 37808.0 4071.65   2
   2  -8  -3 32803.4 3348.20   2
  -2   8   2 199431. 6964.73   1
   2  -8  -2 181035. 8233.89   2
   2  -8  -1 40872.4 4016.12   2
  -2  -8   1 37105.9 3949.86   2
  -2   8   1 41480.9 3172.23   1
  -2  -8   0 179505. 8647.27   2
   2  -8   0 167415. 8128.70   2
  -2   8  -1 26446.7 3721.23   3
  -2  -8  -1 19559.2 2985.07   2
  -2  -8  -2 96537.5 6530.41   2
  -2   8  -2 106175. 7499.66   3
  -2  -8  -3 5628.29 1692.59   2
  -2   8  -3 13097.7 2764.89   3
  -2  -8  -4 30238.2 3876.56   2
   2 -10  -3 11971.7 2414.41   2
   2 -10  -2 22074.5 3348.01   2
  -3  -1   9 75016.9 5610.46   1
  -3   1   9 75797.9 5972.07   1
  -3  -1   8 29196.2 3245.73   1
  -3   1   8 28411.7 3366.87   1
  -3  -1   7 69740.0 3084.54   3
  -3  -1   7 63747.3 4373.28   1
  -3   1   7 66097.4 4717.75   1
  -3  -1   7 71122.0 2714.20   2
  -3  -1   6 109513. 3557.50   3
  -3  -1   6 107921. 5091.00   1
  -3   1   6 109679. 5558.69   1
  -3  -1   6 118890. 3346.12   2
  -3  -1   5 374746. 8758.39   1
  -3   1   5 373190. 9522.74   1
  -3  -1   5 372790. 5719.41   2
  -3  -1   5 354368. 5858.43   3
  -3  -1   4 25793.5 1546.38   2
  -3  -1   4 25539.5 2039.14   1
  -3   1   4 25972.6 2261.30   1
  -3  -1   4 24588.9 1480.31   3
   3  -1  -3 543079. 5515.12   2
   3   1  -3 570346. 8359.29   1
  -3  -1   3 559073. 7505.59   2
  -3   1   3 508644. 4578.89   3
   3   1  -3 528257. 7220.98   2
  -3   1   3 551513. 9681.91   1
  -3  -1   3 537210. 8540.53   1
  -3   1   2 26044.1 2010.85   1
   3  -1  -2 29846.5 1670.04   2
  -3  -1   2 27563.6 1853.81   1
  -3  -1   2 29699.2 1917.32   2
   3   1  -2 29612.0 1801.37   2
   3   1  -2 28622.9 1806.13   1
  -3   1   2 29350.5 1635.71   3
  -3  -1   1 542993. 8853.19   1
   3  -1  -1 524311. 8274.93   2
   3   1  -1 528039. 8089.78   1
  -3  -1   1 507469. 8573.26   2
   3   1  -1 504669. 8256.72   2
  -3   1   1 518825. 9253.15   1
  -3   1   1 533284. 8247.54   3
  -3   1   0 666.455 424.952   3
   3  -1   0 431.562 321.547   3
   3   1   0 256.297 232.129   2
   3  -1   0 714.275 362.466   2
   3  -1   1 79377.4 4037.60   2
   3   1   1 88933.2 4220.13   2
   3  -1   1 79013.1 3977.86   3
  -3  -1  -2 25746.3 2505.53   3
   3  -1   2 28176.7 2621.02   2
   3  -1   2 28950.9 2915.49   1
   3   1   2 26891.7 2547.14   2
  -3   1  -2 24115.7 2499.53   3
  -3  -1  -3 117819. 5895.31   3
  -3   1  -3 140116. 6598.87   3
  -3  -1  -4 49225.1 4112.67   3
  -3   1  -4 41788.7 3860.23   3
  -3   1  -5 99603.3 6483.60   3
  -3  -1  -5 109094. 6596.52   3
  -3   1  -6 28353.3 3714.88   3
  -3  -1  -6 36129.1 4152.82   3
  -3  -3   9 12339.4 2168.22   1
  -3  -3   8 7299.33 1584.17   1
  -3   3   8 5625.88 1668.16   1
  -3  -3   8 9512.93 1498.26   2
  -3   3   7 175793. 8435.61   1
  -3  -3   7 187607. 6355.09   2
  -3  -3   6 1417.31 563.812   2
  -3  -3   6 1944.91 681.414   3
  -3  -3   6 1210.95 574.375   1
  -3   3   6 1131.09 662.525   1
  -3  -3   5 148921. 5089.69   1
  -3   3   5 141890. 6255.21   1
  -3  -3   5 143322. 5267.95   2
  -3  -3   5 158000. 5519.51   3
  -3  -3   4 20159.4 1917.00   3
   3  -3  -4 21259.6 2215.63   1
  -3  -3   4 19617.4 1572.11   1
  -3  -3   4 17910.8 1810.00   2
  -3   3   4 18620.1 2087.64   1
   3  -3  -4 19811.2 1137.39   2
   3  -3  -4 18716.1 1101.15   3
  -3   3   3 622372. 8198.39   3
  -3  -3   3 647711. 7913.21   1
   3   3  -3 656950. 7694.96   1
   3  -3  -3 686207. 11548.4   1
  -3  -3   3 656375. 10819.5   2
  -3  -3   3 635136. 10660.0   3
  -3   3   3 652775. 11518.4   1
   3   3  -3 673658. 10677.8   2
   3  -3  -3 635210. 7925.65   3
  -3  -3   2 1517.35 567.624   2
   3   3  -2 933.417 427.042   2
   3  -3  -2 1645.03 606.184   1
  -3   3   2 1031.48 442.116   3
   3  -3  -2 984.760 387.828   3
  -3  -3   2 952.285 350.380   1
  -3   3   2 11.8023 204.682   1
   3   3  -2 701.669 253.128   1
   3   3  -1 105056. 3149.03   1
  -3   3   1 106292. 4585.79   1
   3   3  -1 113369. 4603.06   2
  -3   3   1 100857. 4281.95   3
   3  -3  -1 105758. 4442.31   1
   3  -3  -1 111666. 4305.42   3
  -3   3   0 101405. 4870.77   1
   3  -3   0 94179.8 4429.12   1
   3   3   0 100888. 4502.81   2
  -3   3   0 102366. 4703.18   3
   3   3   0 92123.9 3688.15   1
   3  -3   0 94458.6 4398.39   3
   3  -3   1 350634. 9257.47   3
  -3  -3  -1 344404. 9208.40   2
   3   3   1 325396. 8605.71   2
   3  -3   1 322429. 8972.85   1
  -3   3  -1 306050. 8775.91   3
  -3   3  -2 1839.39 769.742   3
  -3  -3  -2 1905.09 734.839   2
  -3  -3  -3 51660.5 4011.02   2
  -3   3  -3 45970.1 3957.17   3
  -3  -3  -4 35629.6 3607.64   3
  -3   3  -4 40663.4 4047.97   3
  -3  -3  -5 189922. 8860.90   3
  -3   3  -5 197233. 9462.46   3
  -3   3  -6 283.840 679.188   3
  -3  -3  -6-702.084 705.139   3
  -3  -5   8 11530.2 1949.21   2
  -3   5   8 14045.7 2688.81   1
  -3  -5   7 88042.9 4444.27   1
  -3   5   7 88710.5 6246.23   1
  -3  -5   7 91146.8 5382.74   2
  -3  -5   6 3854.34 1163.31   2
  -3   5   6 5146.59 1459.01   1
  -3  -5   6 4662.87 890.109   1
   3  -5  -5 187009. 4849.40   2
  -3  -5   5 197182. 4785.05   1
  -3   5   5 176978. 7447.82   1
  -3  -5   5 188218. 7426.00   2
   3  -5  -5 196273. 5361.06   3
  -3  -5   4 42944.8 1640.22   1
  -3  -5   4 39297.7 3304.45   2
   3  -5  -4 39682.1 2620.33   3
  -3   5   4 39271.4 3305.62   1
  -3   5   3 97198.6 4875.72   1
   3  -5  -3 98882.7 4308.31   3
   3  -5  -3 104078. 4994.29   1
  -3  -5   3 98947.5 5251.62   2
  -3   5   2 137485. 5633.28   1
   3  -5  -2 154032. 6015.29   1
  -3  -5   2 136529. 6048.06   2
  -3   5   2 145589. 5938.68   3
   3  -5  -2 141422. 5422.61   3
  -3  -5   1 388435. 10506.2   2
  -3   5   1 397535. 10506.5   3
  -3   5   1 404547. 9812.33   1
   3   5  -1 410934. 3999.63   1
  -3   5   0 10396.5 1700.28   1
  -3  -5   0 9741.86 1712.73   2
  -3   5   0 11992.6 1954.61   3
   3   5   0 10850.8 1137.74   1
   3  -5   0 11292.5 1679.41   1
   3  -5   1 79784.1 4672.28   1
  -3  -5  -1 88637.5 5292.00   2
  -3   5  -1 78424.8 5209.60   3
  -3  -5  -2 13806.0 2201.05   2
  -3   5  -2 14140.9 2319.63   3
  -3  -5  -3 141667. 7148.14   2
  -3   5  -3 122731. 7204.43   3
  -3  -5  -4 19735.0 2830.20   2
  -3   5  -4 18576.7 2973.11   3
  -3  -5  -5 89097.4 6491.40   3
  -3   5  -5 88259.1 6826.85   3
  -3   7   7 20413.9 3109.43   1
  -3  -7   7 21121.7 3053.79   2
  -3  -7   6 26057.9 3330.19   2
  -3   7   6 22807.2 3073.80   1
   3  -7  -5 199820. 6739.30   2
  -3  -7   5 202832. 8952.43   2
  -3   7   5 195461. 8473.84   1
  -3  -7   4 9123.44 1904.01   2
   3  -7  -4 7887.81 1463.65   2
  -3   7   4 8127.56 1703.90   1
  -3   7   3 55744.0 4047.08   1
  -3  -7   3 55382.4 4620.05   2
   3  -7  -3 58239.7 4188.56   2
  -3   7   2 20342.9 2392.77   1
  -3  -7   2 22374.5 2949.45   2
   3  -7  -2 21873.5 2630.16   2
  -3  -7   1 138107. 7291.80   2
  -3   7   1 127646. 7210.97   3
  -3   7   1 119144. 5866.56   1
  -3  -7   0 88853.2 5932.62   2
  -3   7   0 90913.4 6353.43   3
  -3  -7  -1 105876. 6616.09   2
  -3   7  -1 96808.4 6648.18   3
  -3   7  -2 11333.5 2442.39   3
  -3  -7  -2 11208.3 2254.12   2
  -3  -7  -3 237286. 10541.8   2
  -3   7  -3 229136. 11194.4   3
  -3  -7  -4 298.275 753.457   2
   3  -9  -3 104426. 6710.22   2
  -3  -9   2 781.087 824.666   2
   3  -9  -2 279.622 609.825   2
  -3  -9   1 45270.0 4883.45   2
   3  -9  -1 35946.8 4134.99   2
   3  -9   0 2326.74 1156.58   2
  -4   0   9 80.9565 545.255   1
  -4   0   8 406848. 12688.0   1
  -4   0   7 206.457 393.597   1
  -4   0   6 1547.21 731.178   1
  -4   0   5 248.920 319.147   1
   4   0  -5 60.6686 135.406   1
  -4   0   4 345469. 4925.35   3
   4   0  -4 337075. 7982.85   1
   4   0  -4 337271. 5317.23   2
  -4   0   4 342426. 8474.39   1
   4   0  -3 131.000 158.263   2
   4   0  -3 160.369 240.192   1
  -4   0   3 125.267 154.442   3
  -4   0   3 99.4235 271.884   1
  -4   0   2 267164. 6217.01   3
   4   0  -2 268129. 6408.50   2
  -4   0   2 250831. 7116.38   1
   4   0  -1-78.9906 254.521   1
  -4   0   1-1.41712 189.856   3
  -4   0   1 601.059 443.078   1
   4   0  -1 320.018 282.764   2
   4   0   0 999999. 14621.2   2
   4   0   0 983917. 15167.9   1
  -4   0  -1 10.4671 231.912   3
   4   0   1-51.6607 244.578   1
  -4   0  -2 1866.05 784.267   3
  -4   0  -3 331.077 508.600   3
  -4   0  -4 242389. 10271.7   3
  -4   0  -5-964.421 846.047   3
  -4  -2   9 15866.2 2574.88   1
  -4   2   9 15059.7 2858.23   1
  -4  -2   8 21990.6 2791.57   1
  -4   2   8 14959.0 2586.04   1
  -4  -2   7 67142.9 4410.01   1
  -4   2   7 67987.3 5054.86   1
  -4  -2   7 70383.9 3197.31   2
  -4  -2   6 158099. 4850.32   3
  -4  -2   6 163865. 4948.83   2
  -4  -2   6 151888. 5993.54   1
  -4   2   6 167752. 7223.81   1
  -4  -2   5 129034. 5105.76   1
  -4  -2   5 127468. 4527.19   2
  -4  -2   5 141450. 4534.84   3
  -4   2   5 134007. 6086.00   1
  -4   2   4 243802. 7729.10   1
   4  -2  -4 236068. 4213.77   2
   4  -2  -4 252957. 7582.02   1
  -4  -2   4 233005. 6243.63   2
  -4   2   4 247239. 3493.88   3
   4   2  -4 240483. 6236.73   2
  -4  -2   4 250355. 6132.84   3
  -4  -2   4 242620. 6433.55   1
  -4   2   3 69094.3 3979.69   1
   4  -2  -3 67597.6 2869.00   2
  -4  -2   3 72336.2 3441.14   1
  -4  -2   3 72428.3 3654.15   2
   4   2  -3 72739.9 3475.99   2
  -4   2   3 71839.1 2954.92   3
   4  -2  -2 317572. 6778.97   3
  -4  -2   2 324214. 8148.58   2
  -4   2   2 331150. 8672.63   1
  -4   2   2 313190. 7167.64   3
   4   2  -2 320555. 6760.60   1
  -4  -2   2 318532. 7572.86   1
   4  -2  -1 137403. 4965.97   3
  -4  -2   1 138696. 5552.45   2
   4   2  -1 138261. 5360.96   2
  -4   2   1 140175. 5925.80   1
  -4   2   1 139566. 5363.38   3
   4  -2   0 235085. 7182.89   3
  -4  -2   0 199624. 7083.05   2
   4  -2   0 224230. 7557.12   1
   4   2   0 214967. 7064.96   2
   4   2   0 219911. 6839.62   1
  -4   2   0 221485. 7372.04   3
   4   2   1 120369. 5746.15   1
  -4  -2  -1 128084. 6043.96   2
  -4   2  -1 112332. 5723.70   3
  -4  -2  -2 434285. 11862.3   3
  -4   2  -2 382760. 11452.3   3
  -4  -2  -3 22353.4 2893.81   3
  -4   2  -3 27228.3 3262.71   3
  -4  -2  -4 18741.2 2848.19   3
  -4   2  -4 15128.4 2681.46   3
  -4  -2  -5 38974.7 4417.53   3
  -4   2  -5 36268.9 4305.59   3
  -4  -4   8 49896.5 3816.33   1
  -4   4   8 45824.6 4745.49   1
  -4  -4   7 2908.83 844.667   1
  -4  -4   7 3436.76 949.795   2
  -4   4   7 3509.13 1246.75   1
  -4  -4   6 268181. 8214.78   2
  -4  -4   6 256394. 7028.28   1
  -4   4   6 248979. 9463.12   1
  -4  -4   6 260796. 8096.06   3
  -4  -4   5 11948.1 1736.45   2
   4  -4  -5 13745.3 1026.65   2
  -4  -4   5 14887.0 1967.54   3
  -4   4   5 11661.9 1988.98   1
  -4  -4   5 14752.9 1528.59   1
   4  -4  -5 15822.9 1067.50   3
  -4  -4   4 5939.48 1250.84   2
  -4  -4   4 4609.87 1090.42   3
  -4  -4   4 5019.49 806.598   1
  -4   4   4 5589.64 1296.87   1
   4  -4  -4 4833.53 783.631   3
  -4  -4   3 162079. 4587.38   1
  -4   4   3 162027. 6621.72   1
   4   4  -3 164048. 3939.63   1
  -4  -4   3 162721. 6501.86   2
  -4   4   3 159778. 5475.00   3
   4   4  -3 164448. 6476.69   2
   4  -4  -3 164251. 5224.64   3
  -4  -4   2 665756. 13430.9   2
  -4   4   2 667044. 13381.4   1
   4   4  -2 646653. 8033.33   1
  -4   4   2 648761. 12334.2   3
   4  -4  -2 647147. 11336.9   3
   4   4  -1 27614.5 1940.74   1
  -4  -4   1 29017.8 2905.14   2
  -4   4   1 26432.5 2660.84   3
  -4   4   1 32548.7 3075.45   1
   4  -4  -1 31823.2 2765.14   3
  -4  -4   0 88350.5 5250.07   2
  -4   4   0 89246.2 5230.42   3
   4   4   1 1127.39 549.951   1
  -4   4  -1-16.9433 364.876   3
  -4  -4  -2 206588. 8729.64   2
  -4   4  -2 216918. 9316.81   3
  -4  -4  -3 33570.0 3720.96   2
  -4   4  -3 32217.1 3812.50   3
  -4  -4  -4 23112.1 3305.88   3
  -4   4  -4 16377.0 2940.05   3
  -4  -6   7 8112.98 1703.39   2
  -4   6   7 8223.60 2072.05   1
  -4  -6   6 31552.5 3425.15   2
  -4   6   6 30341.0 3627.72   1
  -4  -6   5 137.099 431.211   2
   4  -6  -5 299.322 278.586   2
  -4   6   5-171.996 405.641   1
  -4   6   4 387727. 11437.8   1
  -4  -6   4 379008. 11507.1   2
   4  -6  -4 380488. 9292.36   2
   4  -6  -4 399479. 9417.00   3
  -4   6   3 26436.8 2906.42   1
  -4  -6   3 23583.0 2906.43   2
   4  -6  -3 26080.5 2622.77   3
  -4  -6   2 7086.73 1708.86   2
  -4   6   2 9286.96 1859.56   3
  -4   6   2 5964.80 1444.39   1
  -4  -6   1 11703.9 2177.06   2
  -4   6   1 12044.2 2159.99   3
  -4   6   1 5922.42 1395.20   1
  -4  -6   0 250616. 10043.4   2
  -4   6   0 262114. 10486.7   3
  -4   6  -1 8231.79 1965.09   3
  -4  -6  -1 8467.48 1994.26   2
  -4  -6  -2 43395.9 4424.07   2
  -4   6  -2 49076.9 4989.93   3
  -4  -6  -3 59106.0 5401.87   2
  -4   6  -3 62758.0 5888.82   3
  -4   8   6 88973.6 6427.94   1
  -4   8   5 27041.8 3410.49   1
  -4  -8   5 25554.7 3477.11   2
  -4   8   4 94294.7 6083.46   1
  -4  -8   4 99002.8 6842.88   2
   4  -8  -4 107929. 6082.51   2
  -4  -8   3 1782.55 1010.60   2
   4  -8  -3 1685.41 920.273   2
  -4   8   3 99.7088 478.252   1
  -4  -8   2 67474.9 5769.52   2
  -4   8   2 62282.9 4901.84   1
  -4  -8   1 32600.2 4045.39   2
  -4   8   1 30439.3 4022.61   3
  -4  -8   0 91841.0 6895.99   2
  -4   8   0 88537.3 7159.62   3
  -4   8  -1 97533.5 7615.80   3
  -5  -1   9 126645. 7286.11   1
  -5   1   9 121698. 7595.09   1
  -5   1   8 10563.2 2111.75   1
  -5  -1   8 12747.2 2189.30   1
  -5  -1   7 238916. 4182.67   2
  -5  -1   7 242435. 8778.70   1
  -5   1   7 246125. 9466.27   1
  -5  -1   6 2819.40 530.575   3
  -5   1   6 1666.79 771.713   1
  -5  -1   6 2491.84 898.609   1
  -5  -1   6 2055.30 500.239   2
  -5  -1   5 65921.3 4080.94   1
   5   1  -5 68016.6 3949.38   1
  -5  -1   5 62641.1 3114.88   2
  -5  -1   5 61784.4 2649.05   3
   5  -1  -5 64413.9 2173.24   2
   5   1  -5 62712.4 2949.23   2
  -5   1   5 59667.6 4191.49   1
   5  -1  -4 194.020 192.696   2
  -5  -1   4 327.369 340.366   1
   5   1  -4-63.9447 88.1693   2
  -5   1   4 135.105 177.192   3
   5   1  -4-5.28461 236.700   1
  -5  -1   4 137.505 223.312   2
  -5  -1   3 137561. 5372.10   2
   5  -1  -3 138970. 4932.42   2
  -5   1   3 136785. 6088.37   1
   5   1  -3 142354. 5135.31   2
  -5  -1   3 148925. 5994.79   1
   5   1  -3 146999. 5483.64   1
   5  -1  -3 147477. 5985.34   1
  -5   1   3 147725. 5066.64   3
   5   1  -2 20797.0 2125.71   1
  -5  -1   2 24558.2 2552.15   1
  -5  -1   2 21805.0 2288.29   2
   5  -1  -2 23109.8 2178.69   2
   5   1  -2 26981.5 2421.11   2
  -5   1   2 24496.1 2676.52   1
   5  -1  -2 24136.4 2486.23   1
  -5   1   2 25347.5 2319.18   3
  -5  -1   1 151919. 6273.81   3
   5   1  -1 158981. 6227.01   1
   5  -1  -1 161293. 6253.08   2
  -5   1   1 165118. 7442.96   1
  -5   1   1 148845. 6215.08   3
  -5  -1   0 108314. 5620.41   3
  -5   1   0 97397.9 5377.97   3
  -5  -1  -1 344108. 10765.2   3
  -5   1  -1 288706. 10146.1   3
  -5  -1  -2 27946.3 3326.27   3
  -5   1  -2 27116.1 3332.02   3
  -5  -1  -3 113645. 7158.39   3
  -5   1  -3 116242. 7356.39   3
  -5   1  -4 4.20125 381.403   3
  -5  -1  -4-32.5404 442.351   3
  -5  -3   9 194095. 8389.47   1
  -5  -3   8 3479.87 1086.28   1
  -5   3   8 2200.96 1089.60   1
  -5  -3   7 47162.3 3230.95   2
  -5   3   7 46147.8 4390.87   1
  -5  -3   7 47383.0 3638.50   1
  -5  -3   6 35178.1 2838.50   2
  -5  -3   6 35497.9 2701.60   3
  -5   3   6 39878.5 3902.53   1
  -5  -3   6 42457.4 3184.70   1
  -5   3   5 301991. 10012.3   1
  -5  -3   5 329680. 8343.16   1
   5   3  -5 306607. 7753.64   1
   5  -3  -5 320671. 5204.81   2
  -5  -3   5 301176. 8456.66   2
  -5  -3   5 299247. 8037.84   3
   5   3  -4 3384.52 892.325   2
  -5   3   4 2789.60 638.021   3
  -5  -3   4 3779.32 904.790   1
   5   3  -4 2831.76 715.642   1
  -5   3   4 2633.90 959.456   1
   5  -3  -4 2843.91 651.348   2
  -5  -3   4 2911.73 913.124   2
  -5  -3   3 27729.1 2481.86   1
   5  -3  -3 26806.6 2156.51   3
   5  -3  -3 29367.7 2378.86   2
  -5  -3   3 30063.7 2872.63   2
  -5   3   3 26271.5 2857.08   1
  -5   3   3 31241.7 2523.63   3
   5  -3  -2 26997.8 2400.37   3
  -5  -3   2 29663.3 2998.52   2
  -5   3   2 25281.2 2881.38   1
  -5   3   2 29264.8 2714.52   3
   5   3  -2 23333.8 2059.65   1
  -5   3   1 270600. 9896.96   1
   5   3  -1 246543. 7276.71   1
  -5  -3   1 278204. 9281.98   2
  -5   3   1 258317. 8608.89   3
  -5   3   0 2103.22 844.000   3
   5   3   0 935.609 505.865   1
  -5  -3   0 1892.46 854.254   2
  -5  -3  -1 111145. 6533.01   2
  -5   3  -1 113625. 6553.98   3
  -5   3  -2 1273.90 827.021   3
  -5  -3  -2 826.290 666.635   3
  -5  -3  -3 275199. 11354.4   3
  -5   3  -3 275364. 11524.3   3
  -5  -5   7 192249. 7908.90   2
  -5   5   7 185902. 9350.13   1
  -5  -5   6 9213.79 1747.78   2
  -5   5   6 11358.5 2240.47   1
  -5   5   5 37071.6 3809.15   1
  -5  -5   5 40993.4 3713.14   2
  -5  -5   5 39939.8 2465.75   1
   5  -5  -4 64663.2 3528.37   3
  -5   5   4 58584.2 4634.81   1
  -5  -5   4 63720.3 4657.99   2
  -5   5   4 62960.3 3763.55   3
   5  -5  -3 222770. 7267.72   3
  -5  -5   3 226502. 8929.55   2
  -5   5   3 218321. 8848.62   1
  -5   5   3 232887. 8064.64   3
  -5  -5   2 41201.7 3917.67   2
   5   5  -2 43977.8 2364.78   1
  -5   5   2 43780.0 3864.93   3
  -5   5   2 38966.7 3821.42   1
  -5   5   1 122144. 7080.82   1
  -5  -5   1 132121. 7232.43   2
  -5   5   1 123729. 6803.08   3
  -5   5   0 2014.61 971.381   3
  -5  -5   0 1117.46 727.868   2
  -5  -5  -1 147430. 8087.63   2
  -5   5  -1 127124. 7671.71   3
  -5   5  -2 5870.37 1789.50   3
  -5  -5  -2 7041.78 1922.70   2
  -5  -5  -3 40809.0 4654.87   2
  -5  -7   7 85085.7 6109.81   2
  -5   7   6 59333.1 5354.33   1
  -5  -7   6 67557.0 5486.19   2
  -5   7   5 106540. 6868.07   1
  -5  -7   5 112003. 7121.16   2
  -5   7   4 22025.6 3099.53   1
  -5  -7   4 25135.7 3441.36   2
   5  -7  -4 20774.6 2521.27   2
  -5  -7   3 207577. 9818.31   2
  -5   7   3 193684. 8854.97   3
  -5   7   3 195620. 9104.65   1
  -5   7   2 2007.05 1048.88   3
  -5   7   2 857.202 686.365   1
  -5  -7   2 2926.79 1203.26   2
  -5  -7   1 20290.8 3208.54   2
  -5   7   1 24052.6 3424.50   3
  -5   7   0 17978.3 3209.87   3
  -5  -7   0 19904.4 3243.99   2
  -5   7  -1 150245. 9422.37   3
  -6   0   9-93.2906 545.229   1
  -6   0   8 57777.0 4938.05   1
  -6   0   7-169.221 461.102   1
  -6   0   6 454077. 12402.3   1
  -6   0   6 400328. 3945.57   3
   6   0  -5 628.147 328.115   2
  -6   0   5 73.8390 256.609   3
  -6   0   5 196.516 383.704   1
  -6   0   4 8432.67 1297.12   3
   6   0  -4 7433.35 1240.54   2
  -6   0   4 8730.75 1724.02   1
  -6   0   3-186.245 302.874   3
  -6   0   3-106.942 344.176   1
  -6   0   2 451644. 11355.8   3
  -6   0   2 470797. 13295.6   1
  -6   0   1 266.059 407.372   3
  -6   0   0 2073.91 1039.54   3
  -6   0  -1 219.181 384.241   3
  -6   0  -2 274674. 11548.8   3
  -6   0  -3 22.0650 533.938   3
  -6  -2   9 20474.6 2932.73   1
  -6   2   8 124274. 7701.00   1
  -6  -2   8 116729. 6543.21   1
  -6   2   7 81492.6 5879.92   1
  -6  -2   7 79474.8 5089.11   1
  -6   2   6 202556. 8919.31   1
  -6  -2   6 223010. 8161.91   1
  -6  -2   6 221213. 6993.86   2
  -6   2   5 97420.4 5969.59   1
  -6  -2   5 95726.6 4837.80   2
  -6  -2   5 101299. 5361.87   1
   6  -2  -5 95364.9 3582.84   2
  -6   2   5 101274. 3201.66   3
   6   2  -5 100255. 4734.96   2
  -6  -2   4 286308. 8854.99   2
   6  -2  -4 277109. 7388.19   2
  -6   2   4 309718. 10545.2   1
  -6  -2   4 294646. 9263.44   1
  -6   2   4 303904. 7545.74   3
  -6  -2   3 25073.7 2826.09   1
  -6  -2   3 27873.1 2910.70   2
   6  -2  -3 23005.9 2331.82   2
  -6   2   3 26638.6 3164.02   1
  -6   2   3 26525.9 2588.74   3
  -6   2   2 11760.3 2192.84   1
  -6   2   2 7937.67 1589.82   3
  -6  -2   2 8105.06 1625.27   2
  -6  -2   1 49360.1 4230.81   2
  -6   2   1 49241.6 4150.17   3
  -6  -2   0 158108. 7816.31   3
  -6   2   0 168465. 8218.36   3
  -6  -2  -1 100559. 6563.75   3
  -6   2  -1 87095.8 6301.33   3
  -6  -2  -2 112591. 7526.12   3
  -6   2  -2 115968. 7632.47   3
  -6   4   7 20033.1 3131.35   1
  -6  -4   7 24672.1 2603.46   1
  -6  -4   7 27493.2 2960.44   2
  -6   4   6 16306.8 2735.30   1
  -6  -4   6 18173.0 2145.58   1
  -6  -4   6 18845.1 2461.34   2
  -6   4   5 7011.93 1742.48   1
  -6  -4   5 6724.11 1320.66   1
  -6  -4   5 7245.04 1615.82   2
  -6  -4   4 261917. 8433.34   1
  -6  -4   4 269710. 9832.32   2
  -6   4   4 263127. 10344.1   1
  -6   4   4 279957. 8145.92   3
  -6  -4   3 38500.6 3853.21   2
   6   4  -3 40287.2 2828.11   1
  -6   4   3 39134.2 4030.02   1
  -6   4   3 38775.3 3403.33   3
  -6   4   2 51595.9 4786.85   1
  -6  -4   2 59896.0 4838.62   2
  -6   4   2 53047.8 4351.76   3
  -6   4   1 11179.4 2154.66   3
  -6  -4   1 11803.4 2215.63   2
  -6  -4   0 230460. 10214.3   2
  -6   4   0 210538. 9757.73   3
  -6   4  -1 3079.38 1295.25   3
  -6  -4  -1 2091.88 1123.81   2
  -6   4  -2 7016.64 2047.83   3
  -6  -6   7-730.746 724.979   2
  -6   6   6 244566. 11011.6   1
  -6  -6   6 230693. 9923.44   2
  -6   6   5 2129.94 1033.99   1
  -6  -6   5 2137.28 1105.09   2
  -6  -6   4 29705.5 3680.89   2
  -6   6   4 28790.0 3718.76   1
  -6  -6   3 72546.4 5849.96   2
  -6   6   3 74678.9 5379.44   3
  -6   6   3 75878.1 5991.83   1
  -6   6   2 196637. 10033.6   1
  -6  -6   2 201120. 9969.38   2
  -6   6   2 179647. 9061.91   3
  -6  -6   1 33173.4 4181.03   2
  -6   6   1 32451.4 4074.87   3
  -6  -6   0 25950.9 3748.57   2
  -6   6   0 27387.3 3919.54   3
  -6   8   2 157350. 9579.45   3
  -7  -1   9 70407.9 5714.34   1
  -7   1   8 1188.40 976.364   1
  -7  -1   8-163.391 396.594   1
  -7   1   7 51519.4 4797.20   1
  -7  -1   7 50427.1 4476.94   1
  -7   1   6 45546.2 4394.58   1
  -7  -1   6 43995.8 4099.22   1
  -7  -1   5 249542. 7744.67   3
  -7   1   5 255167. 10267.5   1
  -7  -1   5 233330. 9405.30   1
  -7   1   5 240606. 6888.50   3
  -7  -1   4 62102.6 4193.02   3
  -7   1   4 57299.0 4929.95   1
  -7  -1   4 56989.2 4712.75   1
  -7   1   4 64173.4 4144.62   3
  -7   1   3 165621. 8630.83   1
  -7  -1   3 164273. 7291.77   3
  -7  -1   3 167528. 8549.14   1
  -7   1   3 168971. 7456.44   3
  -7  -1   2 12305.4 2167.36   3
  -7   1   2 14587.2 2317.90   3
  -7  -1   1 156515. 8133.49   3
  -7   1   1 152287. 8089.89   3
  -7   1   0 1244.48 914.336   3
  -7  -1   0 3412.29 1406.61   3
  -7  -1  -1 22514.2 3436.89   3
  -7   1  -1 20469.9 3351.76   3
  -7  -3   8-23.7153 480.696   1
  -7   3   7 185159. 9647.46   1
  -7  -3   7 173645. 7754.42   1
  -7   3   6 1914.55 1049.24   1
  -7  -3   6 888.667 618.675   1
  -7  -3   6 427.561 390.919   2
  -7  -3   5 84028.7 5442.14   2
  -7   3   5 84404.4 6264.27   1
  -7  -3   5 86512.9 5440.48   1
  -7   3   4 11648.3 2382.28   1
  -7  -3   4 16152.3 2460.21   1
  -7  -3   4 13638.5 2302.63   2
  -7   3   4 14899.9 2063.08   3
  -7  -3   3 239747. 9907.34   2
  -7   3   3 252598. 9407.89   3
  -7   3   3 255055. 11117.4   1
  -7   3   2 10244.6 2047.51   3
  -7   3   2 8262.56 2263.77   1
  -7  -3   2 12364.9 2309.95   2
  -7  -3   1 25181.6 3480.61   3
  -7  -3   1 25885.5 3541.45   2
  -7   3   1 24434.5 3281.23   3
  -7  -3   0 16798.8 2966.32   3
  -7   3   0 18824.0 3088.12   3
  -7   3  -1 158475. 9327.21   3
  -7  -5   6 657.271 563.889   2
  -7  -5   5 92467.8 6507.61   2
  -7   5   5 110914. 7652.47   1
  -7   5   4 1595.92 994.395   1
  -7  -5   4 2638.87 1252.81   2
  -7  -5   3 91084.0 6656.06   2
  -7   5   3 87257.1 6038.44   3
  -7   5   3 84974.2 6786.93   1
  -7  -5   2 39309.8 4487.47   2
  -7   5   2 34088.8 3988.07   3
  -7   5   1 139712. 8557.11   3
  -8   0   7-54.4341 387.128   1
  -8   0   6 15074.1 2697.51   1
  -8   0   5 11.5583 487.520   1
  -8   0   4 319468. 12761.7   1
  -8   0   4 325497. 10756.8   3
  -8   0   3 48.4841 397.756   3
  -8   0   2 70252.9 5705.27   3
  -8   0   1 2584.17 1191.30   3
  -8  -2   8 12157.9 2396.54   1
  -8  -2   7 35060.4 3912.65   1
  -8   2   6 160633. 9185.05   1
  -8  -2   6 163020. 8481.68   1
  -8  -2   5 64030.4 4697.53   3
  -8   2   5 57974.8 5611.27   1
  -8  -2   5 61335.7 5280.73   1
  -8  -2   4 48720.0 4331.13   3
  -8   2   4 51558.9 4220.04   3
  -8   2   4 52846.2 5398.43   1
  -8  -2   3 32043.9 3740.94   3
  -8   2   3 30387.3 4266.06   1
  -8   2   3 30315.5 3574.46   3
  -8  -2   2 134658. 7984.02   3
  -8   2   2 129847. 7842.71   3
  -8  -2   1 47905.9 5051.16   3
  -8   2   1 47141.8 5017.53   3
  -8  -4   5 1246.33 905.085   2
  -8  -4   4 20652.3 3241.05   2
  -8  -4   3 46807.6 4982.68   2
  -8   4   3 45400.8 4557.65   3
  -8   4   2 286951. 12372.2   3
  -9  -1   6 20985.3 3386.43   1
  -9  -1   5 22797.1 3721.01   1
  -9  -1   3 85054.4 6579.76   3
  -9   1   3 86057.6 6633.18   3
  -9   1   2-651.897 843.448   3
   0   0   0    0.00    0.00   0

TITL crystal1-exp2-He-75K in C2/c
REM C2/c (#15 in standard setting)
CELL 0.71073   6.791750   7.612963   7.389730  90.0000 116.9126  90.0000
ZERR    4.00   0.000900   0.000656   0.000958   0.0000   0.0168   0.0000
LATT  7
SYMM -x, y,-z+1/2
SFAC H O S Ni
UNIT 8.00 20.00 4.00 4.00
TREF
HKLF 4
END
;
_shelx_hkl_checksum              69364
loop_
_space_group_symop_operation_xyz
'x, y, z'
'-x, y, -z+1/2'
'x+1/2, y+1/2, z'
'-x+1/2, y+1/2, -z+1/2'
'-x, -y, -z'
'x, -y, z-1/2'
'-x+1/2, -y+1/2, -z'
'x+1/2, -y+1/2, z-1/2'
loop_
_atom_site_label
_atom_site_type_symbol
_atom_site_fract_x
_atom_site_fract_y
_atom_site_fract_z
_atom_site_U_iso_or_equiv
_atom_site_adp_type
_atom_site_occupancy
_atom_site_site_symmetry_order
_atom_site_calc_flag
_atom_site_refinement_flags_posn
_atom_site_refinement_flags_adp
_atom_site_refinement_flags_occupancy
_atom_site_disorder_assembly
_atom_site_disorder_group
Ni Ni 0.000000 0.500000 0.000000 0.0026(2) Uani 1 2 d S . P . .
S S 0.000000 0.15780(10) 0.250000 0.0028(2) Uani 1 2 d S T P . .
O1 O 0.1724(2) 0.0479(2) 0.4049(2) 0.0047(4) Uani 1 1 d . . . . .
O2 O 0.1051(2) 0.2709(2) 0.1556(2) 0.0046(4) Uani 1 1 d . . . . .
O3 O 0.000000 0.6304(3) 0.250000 0.0046(5) Uani 1 2 d S T P . .
H H 0.099(4) 0.698(4) 0.299(5) 0.024(9) Uiso 1 1 d . . . . .
loop_
_atom_site_aniso_label
_atom_site_aniso_U_11
_atom_site_aniso_U_22
_atom_site_aniso_U_33
_atom_site_aniso_U_23
_atom_site_aniso_U_13
_atom_site_aniso_U_12
Ni 0.0017(3) 0.0030(3) 0.0031(3) -0.00009(13) 0.0011(2) -0.00013(12)
S 0.0018(4) 0.0031(4) 0.0037(4) 0.000 0.0015(3) 0.000
O1 0.0031(8) 0.0049(7) 0.0054(8) 0.0012(6) 0.0015(7) 0.0008(6)
O2 0.0037(7) 0.0044(8) 0.0063(8) 0.0011(6) 0.0028(6) 0.0004(6)
O3 0.0024(11) 0.0055(11) 0.0061(12) 0.000 0.0022(10) 0.000
loop_
_atom_type_symbol
_atom_type_description
_atom_type_scat_dispersion_real
_atom_type_scat_dispersion_imag
_atom_type_scat_source
O O 0.0106 0.0060 'International Tables Vol C Tables 4.2.6.8 and 6.1.1.4'
H H 0.0000 0.0000 'International Tables Vol C Tables 4.2.6.8 and 6.1.1.4'
S S 0.1246 0.1234 'International Tables Vol C Tables 4.2.6.8 and 6.1.1.4'
Ni Ni 0.3393 1.1124 'International Tables Vol C Tables 4.2.6.8 and 6.1.1.4'
loop_
_geom_angle_atom_site_label_1
_geom_angle_atom_site_label_2
_geom_angle_atom_site_label_3
_geom_angle
_geom_angle_site_symmetry_1
_geom_angle_site_symmetry_3
_geom_angle_publ_flag
O2 Ni O2 180.0 5_565 . ?
O2 Ni O1 85.22(6) 5_565 8_455 ?
O2 Ni O1 94.78(6) . 8_455 ?
O2 Ni O1 94.78(6) 5_565 4 ?
O2 Ni O1 85.22(6) . 4 ?
O1 Ni O1 180.00(9) 8_455 4 ?
O2 Ni O3 87.40(7) 5_565 . ?
O2 Ni O3 92.60(7) . . ?
O1 Ni O3 86.77(5) 8_455 . ?
O1 Ni O3 93.23(5) 4 . ?
O2 Ni O3 92.60(7) 5_565 5_565 ?
O2 Ni O3 87.40(7) . 5_565 ?
O1 Ni O3 93.23(5) 8_455 5_565 ?
O1 Ni O3 86.77(5) 4 5_565 ?
O3 Ni O3 180.0 . 5_565 ?
O2 Ni O2 81.68(3) 5_565 4 ?
O2 Ni O2 98.32(3) . 4 ?
O1 Ni O2 136.33(5) 8_455 4 ?
O1 Ni O2 43.67(5) 4 4 ?
O3 Ni O2 51.30(4) . 4 ?
O3 Ni O2 128.70(4) 5_565 4 ?
O2 Ni O2 98.32(3) 5_565 8_455 ?
O2 Ni O2 81.68(3) . 8_455 ?
O1 Ni O2 43.67(5) 8_455 8_455 ?
O1 Ni O2 136.33(5) 4 8_455 ?
O3 Ni O2 128.70(4) . 8_455 ?
O3 Ni O2 51.30(4) 5_565 8_455 ?
O2 Ni O2 180.0 4 8_455 ?
O2 Ni O2 136.12(6) 5_565 2 ?
O2 Ni O2 43.88(6) . 2 ?
O1 Ni O2 66.16(6) 8_455 2 ?
O1 Ni O2 113.84(6) 4 2 ?
O3 Ni O2 59.75(6) . 2 ?
O3 Ni O2 120.25(6) 5_565 2 ?
O2 Ni O2 96.30(4) 4 2 ?
O2 Ni O2 83.70(4) 8_455 2 ?
O2 Ni O2 43.88(6) 5_565 6_565 ?
O2 Ni O2 136.12(6) . 6_565 ?
O1 Ni O2 113.84(6) 8_455 6_565 ?
O1 Ni O2 66.16(6) 4 6_565 ?
O3 Ni O2 120.25(6) . 6_565 ?
O3 Ni O2 59.75(6) 5_565 6_565 ?
O2 Ni O2 83.70(4) 4 6_565 ?
O2 Ni O2 96.30(4) 8_455 6_565 ?
O2 Ni O2 180.00(4) 2 6_565 ?
O1 S O1 110.41(13) 2 . ?
O1 S O2 110.06(9) 2 . ?
O1 S O2 108.55(9) . . ?
O1 S O2 108.55(9) 2 2 ?
O1 S O2 110.06(9) . 2 ?
O2 S O2 109.20(13) . 2 ?
S O1 Ni 136.35(11) . 4_545 ?
S O1 O2 36.02(6) . . ?
Ni O1 O2 100.48(7) 4_545 . ?
S O1 O1 34.80(7) . 2 ?
Ni O1 O1 139.15(12) 4_545 2 ?
O2 O1 O1 60.48(6) . 2 ?
S O1 O2 35.25(6) . 2 ?
Ni O1 O2 145.52(9) 4_545 2 ?
O2 O1 O2 60.42(8) . 2 ?
O1 O1 O2 59.55(6) 2 2 ?
S O1 O2 127.49(10) . 4_545 ?
Ni O1 O2 47.36(5) 4_545 4_545 ?
O2 O1 O2 109.79(7) . 4_545 ?
O1 O1 O2 102.04(7) 2 4_545 ?
O2 O1 O2 161.39(10) 2 4_545 ?
S O1 O3 171.05(11) . 7_556 ?
Ni O1 O3 47.72(3) 4_545 7_556 ?
O2 O1 O3 145.60(7) . 7_556 ?
O1 O1 O3 150.62(6) 2 7_556 ?
O2 O1 O3 135.99(9) 2 7_556 ?
O2 O1 O3 61.44(5) 4_545 7_556 ?
S O1 O2 115.07(9) . 8_556 ?
Ni O1 O2 42.58(4) 4_545 8_556 ?
O2 O1 O2 86.31(5) . 8_556 ?
O1 O1 O2 146.76(7) 2 8_556 ?
O2 O1 O2 104.41(7) 2 8_556 ?
O2 O1 O2 89.94(6) 4_545 8_556 ?
O3 O1 O2 61.64(6) 7_556 8_556 ?
S O1 O3 92.50(8) . 3_545 ?
Ni O1 O3 44.37(4) 4_545 3_545 ?
O2 O1 O3 57.71(6) . 3_545 ?
O1 O1 O3 101.43(9) 2 3_545 ?
O2 O1 O3 115.70(8) 2 3_545 ?
O2 O1 O3 62.40(6) 4_545 3_545 ?
O3 O1 O3 92.08(5) 7_556 3_545 ?
O2 O1 O3 56.92(4) 8_556 3_545 ?
S O1 O2 112.54(9) . 7_556 ?
Ni O1 O2 78.43(6) 4_545 7_556 ?
O2 O1 O2 108.35(7) . 7_556 ?
O1 O1 O2 139.95(8) 2 7_556 ?
O2 O1 O2 81.17(6) 2 7_556 ?
O2 O1 O2 117.43(7) 4_545 7_556 ?
O3 O1 O2 58.89(6) 7_556 7_556 ?
O2 O1 O2 45.86(6) 8_556 7_556 ?
O3 O1 O2 102.56(6) 3_545 7_556 ?
S O1 O2 127.52(8) . 6_556 ?
Ni O1 O2 95.16(6) 4_545 6_556 ?
O2 O1 O2 162.67(8) . 6_556 ?
O1 O1 O2 102.58(6) 2 6_556 ?
O2 O1 O2 109.20(7) 2 6_556 ?
O2 O1 O2 75.72(6) 4_545 6_556 ?
O3 O1 O2 51.66(5) 7_556 6_556 ?
O2 O1 O2 110.43(7) 8_556 6_556 ?
O3 O1 O2 135.05(7) 3_545 6_556 ?
O2 O1 O2 81.97(4) 7_556 6_556 ?
S O1 O1 89.75(8) . 5_556 ?
Ni O1 O1 133.28(9) 4_545 5_556 ?
O2 O1 O1 124.35(8) . 5_556 ?
O1 O1 O1 80.94(8) 2 5_556 ?
O2 O1 O1 65.90(7) 2 5_556 ?
O2 O1 O1 116.74(9) 4_545 5_556 ?
O3 O1 O1 85.57(6) 7_556 5_556 ?
O2 O1 O1 121.21(8) 8_556 5_556 ?
O3 O1 O1 177.58(8) 3_545 5_556 ?
O2 O1 O1 75.73(7) 7_556 5_556 ?
O2 O1 O1 43.31(5) 6_556 5_556 ?
S O2 Ni 130.37(9) . . ?
S O2 O1 35.43(5) . . ?
Ni O2 O1 160.01(9) . . ?
S O2 O1 34.68(5) . 2 ?
Ni O2 O1 117.30(7) . 2 ?
O1 O2 O1 59.98(8) . 2 ?
S O2 O2 35.40(7) . 2 ?
Ni O2 O2 100.62(5) . 2 ?
O1 O2 O2 60.25(6) . 2 ?
O1 O2 O2 59.33(6) 2 2 ?
S O2 O3 106.78(9) . 3_545 ?
Ni O2 O3 122.71(8) . 3_545 ?
O1 O2 O3 72.77(6) . 3_545 ?
O1 O2 O3 111.74(9) 2 3_545 ?
O2 O2 O3 129.76(9) 2 3_545 ?
S O2 O1 160.43(10) . 4 ?
Ni O2 O1 47.42(5) . 4 ?
O1 O2 O1 138.35(6) . 4 ?
O1 O2 O1 161.39(10) 2 4 ?
O2 O2 O1 127.68(6) 2 4 ?
O3 O2 O1 77.74(7) 3_545 4 ?
S O2 O3 135.31(8) . 5_565 ?
Ni O2 O3 47.42(5) . 5_565 ?
O1 O2 O3 150.13(9) . 5_565 ?
O1 O2 O3 101.32(7) 2 5_565 ?
O2 O2 O3 133.27(8) 2 5_565 ?
O3 O2 O3 96.44(6) 3_545 5_565 ?
O1 O2 O3 60.89(6) 4 5_565 ?
S O2 O1 90.74(7) . 8_455 ?
Ni O2 O1 42.64(4) . 8_455 ?
O1 O2 O1 126.08(8) . 8_455 ?
O1 O2 O1 75.59(7) 2 8_455 ?
O2 O2 O1 71.82(7) 2 8_455 ?
O3 O2 O1 158.31(7) 3_545 8_455 ?
O1 O2 O1 90.06(6) 4 8_455 ?
O3 O2 O1 61.87(5) 5_565 8_455 ?
S O2 O3 101.51(8) . . ?
Ni O2 O3 44.72(3) . . ?
O1 O2 O3 116.53(7) . . ?
O1 O2 O3 115.78(7) 2 . ?
O2 O2 O3 66.11(4) 2 . ?
O3 O2 O3 128.78(7) 3_545 . ?
O1 O2 O3 63.04(5) 4 . ?
O3 O2 O3 92.14(5) 5_565 . ?
O1 O2 O3 56.78(4) 8_455 . ?
S O2 O1 82.55(7) . 7_556 ?
Ni O2 O1 94.98(6) . 7_556 ?
O1 O2 O1 71.65(7) . 7_556 ?
O1 O2 O1 116.72(9) 2 7_556 ?
O2 O2 O1 62.32(7) 2 7_556 ?
O3 O2 O1 87.84(5) 3_545 7_556 ?
O1 O2 O1 78.57(4) 4 7_556 ?
O3 O2 O1 136.99(7) 5_565 7_556 ?
O1 O2 O1 107.46(7) 8_455 7_556 ?
O3 O2 O1 54.47(4) . 7_556 ?
S O2 O1 93.74(8) . 6 ?
Ni O2 O1 115.10(7) . 6 ?
O1 O2 O1 83.50(5) . 6 ?
O1 O2 O1 70.80(7) 2 6 ?
O2 O2 O1 128.01(5) 2 6 ?
O3 O2 O1 56.89(5) 3_545 6 ?
O1 O2 O1 104.28(6) 4 6 ?
O3 O2 O1 67.68(6) 5_565 6 ?
O1 O2 O1 110.43(7) 8_455 6 ?
O3 O2 O1 159.82(6) . 6 ?
O1 O2 O1 141.96(6) 7_556 6 ?
Ni O3 Ni 123.83(11) . 2 ?
Ni O3 O2 111.62(4) . 3_455 ?
Ni O3 O2 90.56(4) 2 3_455 ?
Ni O3 O2 90.56(4) . 4 ?
Ni O3 O2 111.62(4) 2 4 ?
O2 O3 O2 132.63(11) 3_455 4 ?
Ni O3 O1 45.52(4) . 8_455 ?
Ni O3 O1 104.56(8) 2 8_455 ?
O2 O3 O1 71.45(5) 3_455 8_455 ?
O2 O3 O1 134.54(5) 4 8_455 ?
Ni O3 O1 104.56(8) . 7_556 ?
Ni O3 O1 45.52(4) 2 7_556 ?
O2 O3 O1 134.54(5) 3_455 7_556 ?
O2 O3 O1 71.45(5) 4 7_556 ?
O1 O3 O1 123.01(10) 8_455 7_556 ?
Ni O3 O2 162.23(8) . 6_566 ?
Ni O3 O2 45.18(3) 2 6_566 ?
O2 O3 O2 84.32(5) 3_455 6_566 ?
O2 O3 O2 83.56(6) 4 6_566 ?
O1 O3 O2 141.78(6) 8_455 6_566 ?
O1 O3 O2 57.66(5) 7_556 6_566 ?
Ni O3 O2 45.18(3) . 5_565 ?
Ni O3 O2 162.23(8) 2 5_565 ?
O2 O3 O2 83.56(6) 3_455 5_565 ?
O2 O3 O2 84.32(5) 4 5_565 ?
O1 O3 O2 57.66(5) 8_455 5_565 ?
O1 O3 O2 141.78(6) 7_556 5_565 ?
O2 O3 O2 149.53(11) 6_566 5_565 ?
Ni O3 O2 42.68(5) . . ?
Ni O3 O2 82.77(8) 2 . ?
O2 O3 O2 128.78(7) 3_455 . ?
O2 O3 O2 96.22(4) 4 . ?
O1 O3 O2 61.58(6) 8_455 . ?
O1 O3 O2 66.64(6) 7_556 . ?
O2 O3 O2 121.19(7) 6_566 . ?
O2 O3 O2 87.86(5) 5_565 . ?
Ni O3 O2 82.77(8) . 2 ?
Ni O3 O2 42.68(5) 2 2 ?
O2 O3 O2 96.22(4) 3_455 2 ?
O2 O3 O2 128.78(7) 4 2 ?
O1 O3 O2 66.64(6) 8_455 2 ?
O1 O3 O2 61.58(6) 7_556 2 ?
O2 O3 O2 87.86(5) 6_566 2 ?
O2 O3 O2 121.19(7) 5_565 2 ?
O2 O3 O2 47.78(7) . 2 ?
Ni O3 O1 122.83(7) . 3_455 ?
Ni O3 O1 42.40(3) 2 3_455 ?
O2 O3 O1 49.52(5) 3_455 3_455 ?
O2 O3 O1 144.76(5) 4 3_455 ?
O1 O3 O1 80.64(4) 8_455 3_455 ?
O1 O3 O1 87.92(5) 7_556 3_455 ?
O2 O3 O1 61.20(4) 6_566 3_455 ?
O2 O3 O1 126.25(4) 5_565 3_455 ?
O2 O3 O1 101.46(7) . 3_455 ?
O2 O3 O1 54.56(5) 2 3_455 ?
Ni O3 O1 42.40(3) . 4 ?
Ni O3 O1 122.83(7) 2 4 ?
O2 O3 O1 144.76(5) 3_455 4 ?
O2 O3 O1 49.52(5) 4 4 ?
O1 O3 O1 87.92(5) 8_455 4 ?
O1 O3 O1 80.64(4) 7_556 4 ?
O2 O3 O1 126.25(4) 6_566 4 ?
O2 O3 O1 61.20(4) 5_565 4 ?
O2 O3 O1 54.56(5) . 4 ?
O2 O3 O1 101.46(7) 2 4 ?
O1 O3 O1 155.93(10) 3_455 4 ?
Ni O3 H 111(3) . . ?
Ni O3 H 105(2) 2 . ?
O2 O3 H 114(2) 3_455 . ?
O2 O3 H 22(2) 4 . ?
O1 O3 H 150(3) 8_455 . ?
O1 O3 H 76(2) 7_556 . ?
O2 O3 H 67(3) 6_566 . ?
O2 O3 H 93(2) 5_565 . ?
O2 O3 H 117(2) . . ?
O2 O3 H 137(2) 2 . ?
O1 O3 H 126(3) 3_455 . ?
O1 O3 H 72(2) 4 . ?
Ni O3 H 105(2) . 2 ?
Ni O3 H 111(3) 2 2 ?
O2 O3 H 22(2) 3_455 2 ?
O2 O3 H 114(2) 4 2 ?
O1 O3 H 76(2) 8_455 2 ?
O1 O3 H 150(3) 7_556 2 ?
O2 O3 H 93(2) 6_566 2 ?
O2 O3 H 67(3) 5_565 2 ?
O2 O3 H 137(2) . 2 ?
O2 O3 H 117(2) 2 2 ?
O1 O3 H 72(2) 3_455 2 ?
O1 O3 H 126(3) 4 2 ?
H O3 H 99(4) . 2 ?
loop_
_geom_bond_atom_site_label_1
_geom_bond_atom_site_label_2
_geom_bond_distance
_geom_bond_site_symmetry_2
_geom_bond_publ_flag
Ni O2 2.0324(16) 5_565 ?
Ni O2 2.0325(16) . ?
Ni O1 2.0345(15) 8_455 ?
Ni O1 2.0345(15) 4 ?
Ni O3 2.1097(11) . ?
Ni O3 2.1097(11) 5_565 ?
Ni O2 3.4160(16) 4 ?
Ni O2 3.4160(16) 8_455 ?
Ni O2 3.4398(17) 2 ?
Ni O2 3.4398(17) 6_565 ?
S O1 1.4670(16) 2 ?
S O1 1.4670(16) . ?
S O2 1.4879(16) . ?
S O2 1.4880(16) 2 ?
O1 O2 2.399(2) . ?
O1 O1 2.409(3) 2 ?
O1 O2 2.422(2) 2 ?
O1 O2 2.753(2) 4_545 ?
O1 O3 2.8471(19) 7_556 ?
O1 O2 2.993(2) 8_556 ?
O1 O3 3.0124(18) 3_545 ?
O1 O2 3.212(2) 7_556 ?
O1 O2 3.223(2) 6_556 ?
O1 O1 3.334(3) 5_556 ?
O2 O2 2.426(3) 2 ?
O2 O3 2.6662(17) 3_545 ?
O2 O3 2.8623(17) 5_565 ?
O2 O3 2.995(3) . ?
O3 H 0.79(3) . ?
O3 H 0.79(3) 2 ?
loop_
_geom_hbond_atom_site_label_D
_geom_hbond_atom_site_label_H
_geom_hbond_atom_site_label_A
_geom_hbond_distance_DH
_geom_hbond_distance_HA
_geom_hbond_distance_DA
_geom_hbond_angle_DHA
_geom_hbond_site_symmetry_A
_geom_hbond_publ_flag
O3 H O2 0.79(3) 1.96(3) 2.6662(17) 149(3) 4 yes
loop_
_geom_torsion_atom_site_label_1
_geom_torsion_atom_site_label_2
_geom_torsion_atom_site_label_3
_geom_torsion_atom_site_label_4
_geom_torsion
_geom_torsion_site_symmetry_1
_geom_torsion_site_symmetry_2
_geom_torsion_site_symmetry_3
_geom_torsion_site_symmetry_4
_geom_torsion_publ_flag
O1 S O1 Ni 114.32(16) 2 . . 4_545 ?
O2 S O1 Ni -6.41(17) . . . 4_545 ?
O2 S O1 Ni -125.87(14) 2 . . 4_545 ?
O1 S O1 O2 120.73(8) 2 . . . ?
O2 S O1 O2 -119.46(13) 2 . . . ?
O2 S O1 O1 -120.73(8) . . . 2 ?
O2 S O1 O1 119.81(8) 2 . . 2 ?
O1 S O1 O2 -119.81(8) 2 . . 2 ?
O2 S O1 O2 119.46(13) . . . 2 ?
O1 S O1 O2 49.96(8) 2 . . 4_545 ?
O2 S O1 O2 -70.77(12) . . . 4_545 ?
O2 S O1 O2 169.77(13) 2 . . 4_545 ?
O1 S O1 O2 160.90(12) 2 . . 8_556 ?
O2 S O1 O2 40.17(11) . . . 8_556 ?
O2 S O1 O2 -79.29(11) 2 . . 8_556 ?
O1 S O1 O3 106.53(7) 2 . . 3_545 ?
O2 S O1 O3 -14.19(9) . . . 3_545 ?
O2 S O1 O3 -133.65(8) 2 . . 3_545 ?
O1 S O1 O2 -148.77(10) 2 . . 7_556 ?
O2 S O1 O2 90.51(10) . . . 7_556 ?
O2 S O1 O2 -28.95(10) 2 . . 7_556 ?
O1 S O1 O2 -51.41(7) 2 . . 6_556 ?
O2 S O1 O2 -172.13(10) . . . 6_556 ?
O2 S O1 O2 68.41(13) 2 . . 6_556 ?
O1 S O1 O1 -74.35(6) 2 . . 5_556 ?
O2 S O1 O1 164.92(8) . . . 5_556 ?
O2 S O1 O1 45.46(9) 2 . . 5_556 ?
O1 S O2 Ni 80.19(14) 2 . . . ?
O1 S O2 Ni -158.87(11) . . . . ?
O2 S O2 Ni -38.87(8) 2 . . . ?
O1 S O2 O1 -120.94(13) 2 . . . ?
O2 S O2 O1 120.00(8) 2 . . . ?
O1 S O2 O1 120.94(13) . . . 2 ?
O2 S O2 O1 -119.06(8) 2 . . 2 ?
O1 S O2 O2 119.06(8) 2 . . 2 ?
O1 S O2 O2 -120.00(8) . . . 2 ?
O1 S O2 O3 -104.14(9) 2 . . 3_545 ?
O1 S O2 O3 16.80(11) . . . 3_545 ?
O2 S O2 O3 136.80(9) 2 . . 3_545 ?
O1 S O2 O1 155.1(3) 2 . . 4 ?
O1 S O2 O1 -83.9(3) . . . 4 ?
O2 S O2 O1 36.1(2) 2 . . 4 ?
O1 S O2 O3 13.99(15) 2 . . 5_565 ?
O1 S O2 O3 134.93(13) . . . 5_565 ?
O2 S O2 O3 -105.07(13) 2 . . 5_565 ?
O1 S O2 O1 62.88(10) 2 . . 8_455 ?
O1 S O2 O1 -176.18(8) . . . 8_455 ?
O2 S O2 O1 -56.18(5) 2 . . 8_455 ?
O1 S O2 O3 119.06(8) 2 . . . ?
O1 S O2 O3 -120.00(8) . . . . ?
O2 S O2 O3 0.000(0) 2 . . . ?
O1 S O2 O1 170.40(8) 2 . . 7_556 ?
O1 S O2 O1 -68.66(9) . . . 7_556 ?
O2 S O2 O1 51.34(4) 2 . . 7_556 ?
O1 S O2 O1 -47.65(9) 2 . . 6 ?
O1 S O2 O1 73.29(8) . . . 6 ?
O2 S O2 O1 -166.71(7) 2 . . 6 ?
