#------------------------------------------------------------------------------
#$Date: 2022-03-06 06:37:54 +0200 (Sun, 06 Mar 2022) $
#$Revision: 273468 $
#$URL: file:///home/coder/svn-repositories/cod/cif/1/56/59/1565943.cif $
#------------------------------------------------------------------------------
#
# This file is available in the Crystallography Open Database (COD),
# http://www.crystallography.net/
#
# All data on this site have been placed in the public domain by the
# contributors.
#
data_1565943
loop_
_publ_author_name
'Wildner, Manfred'
'Zakharov, Boris A.'
'Bogdanov, Nikita E.'
'Talla, Dominik'
'Boldyreva, Elena V.'
'Miletich, Ronald'
_publ_section_title
;
 Crystallography relevant to Mars and Galilean icy moons: crystal behavior
 of kieserite-type monohydrate sulfates at extraterrestrial conditions
 down to 15 K
;
_journal_issue                   2
_journal_name_full               IUCrJ
_journal_page_first              194
_journal_page_last               203
_journal_paper_doi               10.1107/S2052252521012720
_journal_volume                  9
_journal_year                    2022
_chemical_formula_sum            'Fe H2 O5 S'
_chemical_formula_weight         169.93
_space_group_crystal_system      monoclinic
_space_group_IT_number           15
_space_group_name_Hall           '-C 2yc'
_space_group_name_H-M_alt        'C 1 2/c 1'
_atom_sites_solution_hydrogens   difmap
_audit_creation_method           SHELXL-2017/1
_cell_angle_alpha                90
_cell_angle_beta                 118.328(14)
_cell_angle_gamma                90
_cell_formula_units_Z            4
_cell_length_a                   7.0320(8)
_cell_length_b                   7.5783(6)
_cell_length_c                   7.7396(8)
_cell_measurement_temperature    60(2)
_cell_volume                     363.06(8)
_computing_structure_refinement  'SHELXL-2017/1 (Sheldrick, 2017)'
_diffrn_ambient_temperature      60(2)
_diffrn_measured_fraction_theta_full 0.991
_diffrn_measured_fraction_theta_max 0.875
_diffrn_radiation_type           MoK\a
_diffrn_radiation_wavelength     0.71073
_diffrn_reflns_av_R_equivalents  0.0206
_diffrn_reflns_av_unetI/netI     0.0251
_diffrn_reflns_Laue_measured_fraction_full 0.991
_diffrn_reflns_Laue_measured_fraction_max 0.875
_diffrn_reflns_limit_h_max       9
_diffrn_reflns_limit_h_min       -9
_diffrn_reflns_limit_k_max       9
_diffrn_reflns_limit_k_min       -9
_diffrn_reflns_limit_l_max       7
_diffrn_reflns_limit_l_min       -10
_diffrn_reflns_number            1189
_diffrn_reflns_point_group_measured_fraction_full 0.991
_diffrn_reflns_point_group_measured_fraction_max 0.875
_diffrn_reflns_theta_full        25.242
_diffrn_reflns_theta_max         29.418
_diffrn_reflns_theta_min         4.204
_exptl_absorpt_coefficient_mu    4.612
_exptl_crystal_density_diffrn    3.109
_exptl_crystal_F_000             336
_exptl_crystal_size_max          0.320
_exptl_crystal_size_mid          0.290
_exptl_crystal_size_min          0.070
_refine_diff_density_max         0.511
_refine_diff_density_min         -0.440
_refine_diff_density_rms         0.098
_refine_ls_extinction_coef       0.0330(19)
_refine_ls_extinction_expression Fc^*^=kFc[1+0.001xFc^2^\l^3^/sin(2\q)]^-1/4^
_refine_ls_extinction_method     'SHELXL-2017/1 (Sheldrick 2017)'
_refine_ls_goodness_of_fit_ref   1.094
_refine_ls_hydrogen_treatment    refall
_refine_ls_matrix_type           full
_refine_ls_number_parameters     40
_refine_ls_number_reflns         442
_refine_ls_number_restraints     0
_refine_ls_restrained_S_all      1.094
_refine_ls_R_factor_all          0.0188
_refine_ls_R_factor_gt           0.0177
_refine_ls_shift/su_max          0.000
_refine_ls_shift/su_mean         0.000
_refine_ls_structure_factor_coef Fsqd
_refine_ls_weighting_details
'w=1/[\s^2^(Fo^2^)+(0.0200P)^2^+0.3100P] where P=(Fo^2^+2Fc^2^)/3'
_refine_ls_weighting_scheme      calc
_refine_ls_wR_factor_gt          0.0424
_refine_ls_wR_factor_ref         0.0436
_reflns_Friedel_coverage         0.000
_reflns_number_gt                423
_reflns_number_total             442
_reflns_threshold_expression     'I > 2\s(I)'
_cod_data_source_file            lt5044.cif
_cod_data_source_block           FeSO4H2O_He_60K
_cod_depositor_comments
'Adding full bibliography for 1565934--1565967.cif.'
_cod_original_sg_symbol_H-M      'C 2/c'
_cod_database_code               1565943
_shelx_shelxl_version_number     2017/1
_shelx_space_group_comment
;
The symmetry employed for this shelxl refinement is uniquely defined
by the following loop, which should always be used as a source of
symmetry information in preference to the above space-group names.
They are only intended as comments.
;
_shelx_estimated_absorpt_t_min   0.320
_shelx_estimated_absorpt_t_max   0.738
_shelx_res_file
;
TITL kieserite cell setting from literature
    FeSO4_viekies_He-60K.res
    created by SHELXL-2017/1 at 09:09:16 on 25-Dec-2020
REM meas. CELL 0.71073   7.028589   7.571530   7.7326  90.0000 118.366  90.0000
REM latt corr for Nonius20C  +.0034 +.0068 +.0070         -.038
CELL 0.71073   7.031989   7.578330   7.7396  90.0000 118.328  90.0000
ZERR    4.00   0.000802   0.000625   0.0008   0.0000   0.014   0.0000
LATT  7
SYMM -X, Y, 1/2-Z
SFAC O H S FE
UNIT 20 8 4 4
L.S. 6
OMIT -2 2 2
OMIT 1 3 1
OMIT 1 1 2
BOND
CONF
CONN 12 1.8 $O
EQIV $9 -x+1/2, y+1/2, -z+1/2
BOND $H
FMAP 2
PLAN 20
ACTA
HTAB O3 O2_$9
HTAB
TEMP -213
SIZE 0.32 0.29 0.07
WGHT    0.020000    0.310000
EXTI    0.033046
FVAR       7.78499
FE    4    0.000000    0.500000    0.000000    10.50000    0.00238    0.00182 =
         0.00242    0.00064    0.00083    0.00016
S     3    0.000000    0.155199    0.250000    10.50000    0.00196    0.00201 =
         0.00301    0.00000    0.00119    0.00000
O1    1    0.168400    0.045745    0.400744    11.00000    0.00381    0.00511 =
         0.00548    0.00120    0.00181    0.00070
O2    1    0.100321    0.270481    0.159459    11.00000    0.00370    0.00413 =
         0.00565    0.00198    0.00278    0.00049
O3    1    0.000000    0.643393    0.250000    10.50000    0.00337    0.00438 =
         0.00464    0.00000    0.00147    0.00000
H     2    0.102314    0.710533    0.293701    11.00000    0.01195
HKLF 4 1   -1 0 0  0 -1 0  1 0 1




REM  kieserite cell setting from literature
REM R1 =  0.0177 for     423 Fo > 4sig(Fo)  and  0.0188 for all     442 data
REM     40 parameters refined using      0 restraints

END

WGHT      0.0197      0.2981

REM Instructions for potential hydrogen bonds
EQIV $5 x+1/2, y+1/2, z
HTAB O3 S_$5
EQIV $3 x, y+1, z
HTAB O3 O1_$3
HTAB O3 O2_$9

REM Highest difference peak  0.511,  deepest hole -0.440,  1-sigma level  0.098
Q1    1   0.0974  0.0974  0.3184  11.00000  0.05    0.51
Q2    1   0.2508  0.0860  0.3793  11.00000  0.05    0.35
Q3    1   0.0927  0.5683  0.0692  11.00000  0.05    0.34
Q4    1   0.0406  0.4909  0.1214  11.00000  0.05    0.33
Q5    1   0.2438  0.1164  0.5146  11.00000  0.05    0.28
Q6    1   0.2688  0.0514  0.6302  11.00000  0.05    0.27
Q7    1   0.2292 -0.1003  0.3995  11.00000  0.05    0.24
Q8    1   0.1764  0.6400  0.4532  11.00000  0.05    0.24
Q9    1   0.0454  0.2059  0.1864  11.00000  0.05    0.23
Q10   1   0.0384  0.3451  0.1048  11.00000  0.05    0.23
Q11   1   0.1791 -0.0121  0.2134  11.00000  0.05    0.20
Q12   1   0.2697  0.5792  0.3681  11.00000  0.05    0.20
Q13   1   0.2652  0.2792  0.3835  11.00000  0.05    0.20
Q14   1   0.1820  0.3511  0.2492  11.00000  0.05    0.20
Q15   1  -0.1508  0.4861  0.0273  11.00000  0.05    0.20
Q16   1   0.2684  0.2069  0.4504  11.00000  0.05    0.20
Q17   1   0.1124  0.2456  0.2703  11.00000  0.05    0.19
Q18   1   0.0620  0.2564  0.0510  11.00000  0.05    0.19
Q19   1  -0.0691  0.2733  0.1341  11.00000  0.05    0.19
Q20   1   0.1650  0.3669  0.3595  11.00000  0.05    0.18
;
_shelx_res_checksum              32332
_shelx_hkl_file
;
   0   0   2 956.980 194.016   3
   0   0  -2 1263.01 225.693   3
   0   0  -2 1032.37 231.547   1
   0   0   3 4.19012 80.0607   1
   0   0  -3 322.010 157.039   3
   0   0   3 120.563 103.462   3
   0   0   4 291310. 4526.19   3
   0   0  -4 305470. 5312.66   1
   0   0  -4 303980. 4827.60   3
   0   0   5-124.445 174.699   1
   0   0  -5-134.138 159.251   3
   0   0  -5 265.846 241.667   1
   0   0   5-34.3794 84.6134   3
   0   0  -6 12602.9 1437.49   1
   0   0  -6 12680.5 1234.06   3
   0   0   6 12710.3 1123.98   3
   0   0  -7 727.625 443.615   1
   0   0  -7 39.3435 145.411   2
   0   0  -8 309255. 8672.91   1
   0   0  -9 119.590 434.189   1
   0  -2   0 167079. 2132.62   1
   0  -2   0 172322. 2917.94   2
   0   2  -1 319855. 3804.29   1
   0  -2   1 324113. 4002.57   2
   0  -2  -2 787653. 7361.21   3
   0  -2   2 845465. 7185.35   2
   0   2  -2 881639. 7800.08   1
   0  -2  -2 769596. 7030.06   2
   0   2  -2 856127. 6698.88   2
   0  -2   3 72469.6 2669.74   3
   0  -2  -3 76427.3 2457.45   3
   0   2  -3 78019.4 2702.24   1
   0  -2  -3 81513.8 2434.82   2
   0  -2  -3 76421.6 1978.25   1
   0   2  -3 76790.3 2143.08   2
   0  -2   4 115507. 3557.64   3
   0  -2  -4 127572. 3236.23   2
   0   2  -4 127275. 3940.36   1
   0  -2  -4 116828. 2962.58   1
   0  -2  -4 121191. 3448.96   3
   0   2  -4 121998. 2838.99   2
   0   2   4 113738. 2893.72   1
   0   2  -5 132573. 3041.25   2
   0  -2  -5 128344. 3895.07   3
   0  -2   5 126630. 3737.34   3
   0  -2  -5 131567. 3496.07   2
   0   2  -5 126041. 4368.14   1
   0  -2  -5 124611. 3572.26   1
   0   2   5 131799. 3621.35   1
   0  -2  -6 60532.2 2858.39   1
   0  -2   6 59516.7 2642.44   3
   0   2   6 62841.3 2862.25   1
   0   2  -6 62996.0 2075.93   2
   0   2  -6 60284.5 3329.55   1
   0  -2  -6 61961.6 2493.24   2
   0  -2  -6 60946.3 2921.13   3
   0   2  -7 102457. 4834.60   1
   0  -2  -7 105015. 4037.46   3
   0  -2  -7 106411. 4302.15   1
   0   2  -8 65417.6 4247.03   1
   0  -2  -8 68319.7 3838.31   1
   0  -2  -9 27625.9 2733.41   1
   0  -4   0 299087. 4070.69   1
   0  -4   0 330002. 5662.78   2
   0   4  -1 277.035 216.297   2
   0  -4  -1 217.644 120.901   1
   0  -4  -1 386.972 257.273   2
   0  -4   1-123.729 102.431   2
   0  -4   1 475.108 221.301   1
   0  -4  -2 503652. 7591.61   2
   0   4  -2 513574. 7403.51   2
   0  -4  -2 506948. 8089.09   3
   0  -4   2 530531. 6912.87   1
   0  -4   2 530011. 7502.40   2
   0   4  -2 509061. 7246.69   1
   0  -4  -3 197071. 4886.50   2
   0  -4   3 190221. 4615.79   1
   0  -4  -3 182820. 2656.93   1
   0   4  -3 187769. 4917.23   1
   0   4  -3 188448. 4535.75   2
   0  -4   3 184907. 4710.97   2
   0  -4  -3 187730. 5120.65   3
   0  -4  -4 1249.82 277.934   1
   0  -4  -4 919.412 379.759   2
   0  -4  -4 581.995 367.435   3
   0   4  -4 1756.49 554.424   1
   0  -4   4 1783.30 506.999   2
   0   4  -4 1615.98 439.339   2
   0  -4  -5 59054.9 2172.89   1
   0  -4  -5 58667.3 3154.52   3
   0   4  -5 62767.2 3463.44   1
   0   4  -5 62677.6 2609.38   2
   0  -4   5 61067.3 3292.16   3
   0  -4  -5 66175.5 3024.29   2
   0   4  -6 366751. 6131.54   2
   0  -4  -6 358788. 8189.83   3
   0  -4   6 350260. 8001.78   3
   0   4  -6 372551. 9238.25   1
   0  -4  -6 372711. 6362.38   1
   0  -4  -7 12689.7 1345.96   1
   0  -4  -7 13733.1 1689.73   3
   0   4  -7 11215.2 1776.20   1
   0   6   0 284657. 7112.87   2
   0  -6   0 292630. 4765.07   1
   0   6   1 23269.0 2031.83   2
   0   6  -1 25855.3 2143.91   2
   0  -6  -1 26440.8 1191.12   1
   0  -6   1 24311.1 1558.02   1
   0  -6  -2 34028.4 1049.46   1
   0   6  -2 35604.3 2494.81   2
   0  -6  -2 31181.9 2507.42   3
   0  -6   2 34358.3 2081.71   1
   0   6  -3 78019.1 3691.54   2
   0  -6  -3 77570.5 4070.03   3
   0   6  -4 420725. 8472.93   2
   0  -6  -4 432424. 9936.80   3
   0  -6  -5 681.068 494.220   3
   0   6  -5 2148.19 649.879   2
   0   6  -6 1496.75 521.660   2
   0  -6  -6 1503.25 615.873   3
   0  -6  -7 1417.54 654.298   3
   0   8   0 135189. 5795.71   2
   0   8  -1 158650. 6317.30   2
   0  -8  -1 135628. 5867.94   3
   0   8  -2 56089.4 3769.79   2
   0  -8  -2 51598.5 3786.58   3
   0  -8  -3 22126.1 2575.77   3
   0   8  -3 20629.4 2293.43   2
   0  -8  -4 120950. 6175.93   3
   0   8  -4 115081. 5363.17   2
   0  -8  -5 20784.5 2650.24   3
   0   8  -5 18583.6 2111.42   2
   1  -1  -9 78649.4 4540.05   1
   1   1  -9 70217.0 4642.08   1
   1   1  -8-355.239 366.858   1
   1  -1  -8 161.264 297.928   1
   1  -1  -8 172.217 235.335   3
  -1   1   7 304347. 6876.68   3
  -1  -1   7 303303. 6843.45   3
   1  -1  -7 297320. 7141.12   1
   1  -1  -7 300981. 7163.62   3
   1   1  -7 313616. 7943.52   1
   1   1  -7 317402. 6470.59   2
   1  -1  -6 5020.18 860.298   3
  -1  -1   6 4850.57 824.661   3
   1   1  -6 6510.81 1053.31   1
  -1   1   6 5236.53 813.326   1
   1  -1  -6 5456.63 857.714   1
   1   1  -6 6015.85 883.941   2
  -1   1   6 6050.32 895.757   3
  -1   1   5 139292. 3978.48   3
  -1  -1   5 129941. 4016.08   3
  -1  -1   5 133283. 3836.29   1
   1  -1  -5 131755. 3971.28   3
   1  -1  -5 129546. 3646.87   1
   1   1  -5 133785. 3839.92   2
   1   1  -5 133554. 4155.78   1
   1  -1  -4 44584.5 2120.02   3
  -1   1   4 42321.0 1698.03   1
   1  -1  -4 41616.6 1756.94   1
  -1  -1   4 40787.8 2104.36   3
   1   1  -4 43047.1 2163.45   3
   1   1  -4 41058.0 2033.37   1
  -1   1   4 44230.8 2055.42   3
   1   1  -3 98804.0 3013.63   3
  -1   1   3 98762.1 2062.63   1
   1   1  -3 101590. 2811.61   1
   1  -1  -3 102408. 2269.06   1
  -1   1   3 102266. 2799.22   3
   1  -1  -3 105761. 2889.28   3
  -1  -1   3 106559. 3191.62   3
  -1  -1   2 218158. 4157.51   3
  -1   1   2 225460. 3647.85   3
  -1   1   2 217702. 2346.10   1
  -1   1   1 197847. 2907.45   3
  -1  -1   1 204039. 3371.23   2
  -1  -1   0 169782. 2632.53   2
  -1   1   0 171587. 2202.27   3
   1  -1   1 825091. 3825.44   2
  -1   1  -1 851668. 6288.09   1
  -1  -1  -2 21688.2 904.387   3
  -1   1  -2 20828.0 1211.31   1
  -1  -1  -2 20492.2 851.534   2
  -1  -1  -2 22141.9 1143.37   1
   1  -1   2 20585.5 752.459   3
  -1   1  -3 417430. 6164.88   1
  -1  -1  -3 417005. 5801.26   1
  -1  -1  -3 409470. 4084.00   2
   1  -1   3 409848. 3472.41   3
  -1  -1  -3 411427. 4511.23   3
  -1  -1  -4 17410.2 1371.57   1
  -1   1  -4 16800.1 1417.49   1
   1  -1   4 18919.9 1501.43   1
  -1  -1  -4 17189.5 883.393   2
   1   1   4 18604.5 1388.16   1
  -1  -1  -4 16862.7 1049.61   3
   1  -1   4 17411.8 817.301   3
   1  -1   5 228464. 3197.19   3
  -1  -1  -5 232670. 5572.86   1
  -1  -1  -5 231211. 4252.78   3
  -1   1  -5 238751. 5976.57   1
  -1  -1  -5 238127. 3369.25   2
   1  -1   6 17618.3 866.205   3
  -1   1  -6 19058.4 1920.06   1
  -1  -1  -6 20124.2 1849.45   1
  -1  -1  -6 18301.8 898.429   2
  -1  -1  -6 19346.5 1325.02   3
  -1  -1  -7 19722.3 2054.56   1
  -1   1  -7 21845.5 2269.73   1
  -1   1  -8 39448.4 3355.09   1
  -1  -1  -8 39623.7 3228.83   1
   1  -3  -8 16256.8 1917.02   3
   1  -3  -8 15986.4 1667.44   1
   1   3  -7 51942.1 2570.61   2
   1  -3  -7 52408.3 3275.53   3
   1  -3  -7 51059.6 2662.09   1
   1   3  -7 53003.7 3569.33   1
   1   3  -6 34580.9 2107.47   2
   1  -3  -6 35557.5 2494.73   3
   1  -3  -6 35696.6 2135.09   2
  -1  -3   6 32959.6 2541.03   3
   1   3  -6 35583.9 2665.55   1
   1  -3  -6 38781.4 2032.28   1
  -1   3   5 330400. 6928.08   3
  -1  -3   5 322397. 7629.52   3
   1  -3  -5 317408. 4912.28   1
   1  -3  -5 315415. 6856.40   3
   1   3  -5 321345. 7277.35   1
  -1   3   5 290870. 4461.32   1
   1   3  -5 309060. 6154.36   2
   1  -3  -5 300052. 5947.59   2
   1   3  -4 43840.0 2242.51   2
  -1  -3   4 43151.7 2632.12   3
   1  -3  -4 41066.3 2330.50   3
   1  -3  -4 44558.5 2193.72   2
  -1   3   4 45340.7 2390.38   3
   1  -3  -4 44436.9 1483.00   1
   1   3  -4 44479.8 2457.22   1
   1   3  -3 87686.5 3065.79   2
  -1  -3   3 89514.9 3271.72   2
   1  -3  -3 91172.0 3004.24   2
   1  -3  -3 88167.9 3137.25   3
   1   3  -2 149833. 3771.77   2
   1  -3  -2 153084. 3751.29   2
  -1  -3   2 151055. 3932.24   2
  -1  -3   2 151099. 3559.57   1
   1  -3  -1 293614. 2270.80   1
  -1  -3   1 298590. 5158.68   2
  -1   3   0 24752.0 1040.27   1
   1  -3   0 25522.0 1344.97   2
   1  -3   0 23274.3 978.667   1
  -1  -3  -1 288717. 4876.97   2
  -1   3  -1 293226. 4531.71   2
  -1   3  -1 290286. 4407.59   1
   1   3   1 279795. 4986.80   2
   1  -3   1 291131. 4434.16   2
   1  -3   1 282484. 4226.65   1
   1  -3   2 24516.5 1288.73   2
   1   3   2 23778.9 1474.56   2
  -1   3  -2 25889.6 1333.11   2
  -1   3  -2 24065.7 1479.92   1
  -1  -3  -2 24928.8 1471.81   2
   1  -3   2 25751.9 1489.67   1
  -1  -3  -3 649608. 7860.41   2
   1  -3   3 648062. 7046.79   2
  -1   3  -3 650226. 6361.08   2
  -1  -3  -3 631243. 6927.83   1
  -1  -3  -3 649334. 8181.33   3
   1  -3   3 672103. 8516.09   1
  -1   3  -3 643686. 8631.46   1
  -1  -3  -4 3280.43 584.551   2
  -1  -3  -4 3094.71 611.513   3
  -1   3  -4 2774.05 667.502   1
  -1   3  -4 3653.81 455.587   2
   1  -3   4 2821.98 563.660   3
  -1  -3  -4 5006.44 718.508   1
   1  -3   5 37160.7 1932.42   3
  -1  -3  -5 35384.6 2067.17   1
  -1   3  -5 42214.2 1400.21   2
  -1  -3  -5 37464.0 1985.47   2
  -1  -3  -5 36651.3 2196.68   3
  -1   3  -5 36508.9 2566.45   1
  -1  -3  -6 11158.1 1289.29   3
  -1  -3  -6 11358.6 1330.18   1
  -1   3  -6 9784.48 1502.97   1
  -1  -3  -7 123126. 4821.39   1
  -1   3  -7 120240. 5614.97   1
   1  -5  -8 34258.6 3133.02   3
   1   5  -7 180068. 5455.95   2
   1  -5  -7 171106. 6664.08   3
   1   5  -6 9250.43 1241.15   2
   1  -5  -6 8959.19 1476.06   3
   1   5  -5 100961. 4101.41   2
   1  -5  -5 97938.0 4552.89   3
  -1  -5   4 40266.8 2701.18   2
   1  -5  -4 41939.6 2844.59   3
   1   5  -4 40861.3 2577.08   2
   1   5  -3 142598. 4755.42   2
  -1  -5   3 148152. 4944.53   2
   1  -5  -3 149436. 5164.24   3
  -1  -5   3 154018. 4554.14   1
  -1  -5   2 6214.35 965.839   2
   1  -5  -2 4899.04 922.038   3
   1   5  -2 5973.22 987.364   2
   1  -5  -2 5791.79 918.964   2
  -1  -5   2 6558.65 894.920   1
   1  -5  -1 262793. 3056.29   1
  -1  -5   1 262002. 6105.47   2
   1   5  -1 253722. 6195.12   2
   1  -5  -1 259270. 6284.43   3
   1  -5  -1 270597. 5971.43   2
  -1  -5   1 263529. 5100.53   1
   1  -5   0 15166.1 1381.39   2
  -1  -5   0 16158.2 1492.41   2
   1  -5   0 13962.2 935.185   1
   1  -5   1 303912. 5198.32   1
   1   5   1 303472. 6866.69   2
  -1   5  -1 297039. 5514.92   1
  -1  -5  -1 303285. 6479.03   2
   1  -5   1 307439. 5983.79   2
  -1   5  -1 293072. 6168.93   2
  -1   5  -2 85497.1 3270.70   2
  -1   5  -2 81027.7 3204.25   1
  -1  -5  -2 89094.2 3556.78   2
   1   5   2 85461.0 3610.67   2
   1  -5   2 84684.0 3218.33   2
   1  -5   2 91830.0 3251.08   1
  -1  -5  -3 88045.5 3878.37   3
  -1   5  -3 83874.5 3629.02   1
  -1   5  -3 81879.7 3150.47   2
  -1  -5  -3 85734.0 2474.42   1
   1  -5   3 84463.5 3315.23   2
  -1   5  -4 144127. 5211.35   1
  -1   5  -4 145290. 4123.72   2
  -1  -5  -4 138110. 5029.59   3
   1  -5   4 137084. 4434.16   2
  -1  -5  -4 149493. 3585.65   1
  -1  -5  -5 183054. 4330.45   1
  -1   5  -5 179866. 4314.64   2
  -1   5  -5 178945. 6333.42   1
  -1  -5  -5 168985. 5728.19   3
  -1  -5  -6 1842.57 616.065   3
  -1   5  -6 2446.16 860.612   1
   1  -7  -7 78019.1 5176.14   3
   1   7  -6 45854.9 3220.80   2
   1  -7  -6 47765.7 3912.35   3
   1   7  -5 51788.5 3449.22   2
   1  -7  -5 49706.8 3821.55   3
   1   7  -4 134.296 219.894   2
   1  -7  -4 424.087 421.558   3
   1  -7  -3 370244. 9711.52   3
   1   7  -3 364075. 9124.14   2
   1   7  -2 1502.47 616.168   2
   1  -7  -2 1056.86 551.202   3
   1  -7  -1 40289.0 1417.25   1
  -1  -7   1 39134.1 2214.75   1
   1   7  -1 37963.5 2949.46   2
   1  -7  -1 39610.4 2963.43   3
  -1  -7   0 41275.2 2092.00   1
   1  -7   0 41507.7 2922.10   3
   1   7   0 43664.0 3185.26   2
   1  -7   0 41328.4 1854.02   1
   1   7   1 180838. 6455.54   2
  -1  -7  -1 180542. 3920.09   1
   1  -7   1 183138. 4546.87   1
  -1  -7  -2 19484.3 2134.95   3
  -1   7  -2 20689.3 1997.68   2
  -1  -7  -3 69392.0 4161.79   3
  -1   7  -3 64564.3 3487.53   2
  -1   7  -4 4601.67 911.197   2
  -1  -7  -4 4326.05 1100.33   3
  -1  -7  -5 108563. 5484.50   3
  -1   7  -5 111121. 5707.40   1
  -1  -7  -6 24028.5 2670.08   3
   1   9  -5 158261. 7136.21   2
   1   9  -4 970.290 673.154   2
   1  -9  -3 24169.2 2874.90   3
   1   9  -3 22913.7 2764.81   2
   1  -9  -2 6230.24 1431.70   3
   1   9  -2 7543.17 1600.67   2
   1   9  -1 314252. 10083.7   2
   1  -9  -1 276463. 9096.58   3
   1  -9   0 18163.5 2286.16   3
   1   9   0 16082.8 2297.47   2
   1  -9   1 13187.3 1863.94   3
  -1  -9  -1 12558.3 1964.87   3
  -1  -9  -2 419.575 474.793   3
   1  -9   2 1184.00 563.104   3
   2   0  -8 18705.4 2099.55   3
   2   0  -7 229.583 286.388   3
  -2   0   7 139.501 183.326   3
  -2   0   6 872039. 10029.5   1
   2   0  -6 841332. 11977.0   3
  -2   0   6 832595. 11545.7   3
  -2   0   5-17.6123 103.534   3
  -2   0   5-185.845 162.073   1
  -2   0   4 1246.32 337.806   1
  -2   0   4 1508.37 432.834   3
   2   0  -4 1534.70 468.096   3
  -2   0   3 134.587 194.621   3
  -2   0   2 909305. 8409.64   3
  -2   0   1 518.513 201.408   3
   2   0   0 2013.39 330.590   3
  -2   0   0 1726.39 280.726   3
   2   0   1 431.281 140.940   2
  -2   0  -1 49.9960 54.4145   3
  -2   0  -1 369.791 208.005   1
  -2   0  -2 476022. 6451.76   1
  -2   0  -3 140.423 187.549   1
  -2   0  -4 69612.0 3114.22   1
  -2   0  -5-127.429 231.972   1
  -2   0  -6 568241. 10835.5   1
  -2   0  -7 305.242 385.536   1
   2  -2  -9 34810.3 3041.45   3
   2   2  -8 113122. 4512.43   2
   2  -2  -8 109608. 5048.24   3
   2   2  -7 101352. 4208.92   2
  -2   2   7 104267. 3569.84   1
   2  -2  -7 97457.2 4415.61   3
   2   2  -6 124983. 4517.10   2
  -2  -2   6 127370. 5033.72   3
  -2   2   6 129987. 4680.10   3
   2  -2  -6 119805. 4570.44   3
  -2   2   5 93072.1 2579.86   1
  -2  -2   5 93495.9 4131.99   3
   2  -2  -5 99759.8 3852.72   3
  -2   2   5 97868.3 3714.42   3
  -2  -2   5 94589.3 3490.81   1
   2   2  -5 94773.2 3768.06   2
   2   2  -4 862137. 10814.0   2
   2  -2  -4 848092. 10362.5   3
  -2   2   4 861474. 6482.75   1
  -2  -2   4 864085. 12029.3   3
   2   2  -3 44765.6 2379.73   2
  -2   2   3 43260.5 1244.74   1
  -2  -2   3 45922.2 2538.91   3
  -2   2   3 46531.8 2195.05   3
  -2   2   2 40312.4 1876.91   3
  -2  -2   2 38496.6 2101.59   2
  -2  -2   1 328236. 5653.58   2
  -2   2   1 331044. 4814.90   3
  -2   2   1 328826. 3448.18   1
  -2  -2   0 67868.0 2391.77   2
   2  -2   0 66632.1 1976.34   3
   2   2   0 66197.6 2309.62   2
  -2   2   0 68202.2 1931.55   1
   2  -2   1 375280. 4191.36   3
  -2   2  -1 382754. 5306.75   1
  -2  -2  -1 380648. 5408.96   2
   2  -2   1 367681. 4035.39   2
   2   2   1 380918. 5213.83   2
  -2  -2  -2 331412. 4856.45   2
   2   2   2 327619. 4732.07   2
  -2  -2  -2 332027. 5252.60   1
   2  -2   2 327017. 3353.48   3
  -2   2  -2 329815. 5674.11   1
   2  -2   2 326216. 3279.86   2
   2  -2   3 73603.7 1170.04   3
  -2  -2  -3 80214.8 2936.27   1
  -2   2  -3 75040.2 3038.81   1
   2  -2   3 84170.6 3213.72   1
  -2  -2  -3 82039.6 2390.82   3
  -2  -2  -3 77529.4 2341.68   2
   2  -2   3 77747.7 1377.96   3
  -2   2  -4 394675. 7656.72   1
  -2  -2  -4 403155. 5483.13   3
  -2  -2  -4 384396. 5152.98   2
  -2  -2  -4 394252. 7137.09   1
  -2  -2  -5 54334.5 2979.76   1
  -2   2  -5 52834.9 3160.36   1
  -2  -2  -5 62786.2 2230.28   3
  -2  -2  -5 56666.0 1887.14   2
  -2  -2  -6 35237.5 2601.64   1
  -2   2  -6 40109.6 2987.68   1
  -2  -2  -7 62622.0 3830.07   1
  -2   2  -7 60562.3 4064.56   1
  -2  -2  -8 133066. 6088.54   1
   2  -4  -9 63598.9 4376.59   3
   2   4  -8 267803. 7023.46   2
   2  -4  -8 263741. 8578.63   3
   2   4  -7 6848.49 1132.35   2
   2  -4  -7 4437.97 1036.59   3
   2  -4  -6 72240.0 3899.21   3
   2   4  -6 70995.7 3589.88   2
   2   4  -5 10055.3 1327.09   2
   2  -4  -5 10047.2 1398.32   3
   2  -4  -4 327253. 7356.28   3
  -2  -4   4 341323. 7084.39   1
   2  -4  -4 347846. 6990.00   2
   2   4  -4 340490. 7431.08   2
  -2  -4   3 119474. 4425.43   2
   2  -4  -3 130441. 4159.91   2
  -2  -4   3 121436. 3947.12   1
   2   4  -3 120817. 4332.53   2
  -2  -4   2 55194.5 2877.06   2
   2  -4  -2 55424.0 2626.66   2
   2  -4  -1 42937.3 2210.02   2
  -2   4   1 38215.1 1309.08   1
  -2  -4   1 38389.1 2296.70   2
  -2   4   0 684351. 6950.63   1
   2  -4   0 699651. 8336.38   2
   2  -4   0 685925. 6829.63   1
  -2  -4   0 674175. 9253.55   2
  -2   4  -1 39563.4 1941.09   1
   2   4   1 39457.0 2233.71   2
   2  -4   1 39995.5 1914.04   2
   2  -4   1 41058.4 1949.15   1
  -2  -4  -1 41748.1 2301.09   2
   2   4   2 1088.85 430.338   2
   2  -4   2 1531.52 369.149   2
   2  -4   2 1273.37 424.714   1
   2  -4   2 768.645 284.116   3
  -2  -4  -2 1326.20 432.920   2
  -2   4  -2 772.881 337.110   1
  -2  -4  -3 142988. 4400.90   3
   2  -4   3 140708. 3501.99   2
   2  -4   3 132674. 3372.20   3
  -2   4  -3 141435. 4581.70   1
  -2  -4  -3 134844. 3782.93   1
  -2  -4  -3 136729. 4174.67   2
  -2  -4  -4 396224. 7568.98   3
   2  -4   4 385149. 5416.49   3
   2  -4   4 392343. 6610.92   3
   2  -4   4 402010. 5899.05   2
  -2  -4  -4 390722. 7024.55   1
  -2  -4  -4 395686. 7140.19   2
  -2   4  -4 393015. 8359.44   1
  -2  -4  -5 28838.6 2090.66   1
  -2  -4  -5 29590.9 2117.93   3
  -2   4  -5 26957.5 2431.24   1
  -2  -4  -6 53614.9 3099.96   1
  -2   4  -6 49622.5 3618.89   1
   2  -6  -8 1440.44 773.082   3
   2  -6  -7 1270.51 697.880   3
   2   6  -7 335.640 391.814   2
   2   6  -6 214511. 7033.74   2
   2  -6  -6 239596. 8306.13   3
   2  -6  -5 39119.4 3200.59   3
   2   6  -5 31985.1 2681.45   2
   2  -6  -4 49184.8 3426.27   3
   2   6  -4 44339.2 3115.55   2
   2  -6  -3 143867. 5579.78   3
   2   6  -3 150451. 5707.82   2
   2  -6  -2 401022. 9021.99   3
  -2  -6   2 403186. 7496.45   1
   2   6  -2 402569. 9172.76   2
   2   6  -1 4084.90 938.512   2
   2  -6  -1 4725.33 966.509   3
   2  -6   0 6042.23 1060.40   3
  -2   6   0 7254.10 839.811   1
   2   6   0 7400.98 1250.53   2
   2  -6   0 6530.38 762.555   1
  -2   6  -1 3665.64 719.908   1
   2   6   1 4327.48 959.383   2
   2  -6   1 4324.12 699.854   1
   2  -6   1 2643.53 691.711   3
   2  -6   2 453198. 8543.87   3
   2   6   2 433250. 9383.62   2
  -2  -6  -3 30738.5 2557.04   3
   2  -6   3 32217.5 2224.32   3
  -2   6  -3 31276.9 2457.23   1
  -2  -6  -3 31680.9 1830.70   1
  -2   6  -4 8434.95 1354.14   1
  -2  -6  -4 8804.92 1420.14   3
   2  -6   4 7961.68 1110.35   3
  -2  -6  -4 8278.06 1002.47   1
  -2  -6  -5 27680.6 2493.10   3
  -2   6  -5 28365.8 2756.48   1
   2   8  -6 74212.6 4677.58   2
   2  -8  -5 102582. 6006.67   3
   2   8  -5 94945.7 5351.78   2
   2  -8  -4 28884.2 3052.77   3
   2   8  -4 28347.5 2888.38   2
   2  -8  -3 57423.2 4195.72   3
   2   8  -3 58523.7 4145.57   2
   2  -8  -2 180819. 7166.63   3
   2   8  -2 189798. 7519.11   2
   2  -8  -1 64972.3 4141.19   3
   2   8  -1 74696.7 4713.43   2
   2  -8   0 149095. 6147.57   3
   2   8   0 162738. 6939.88   2
   2  -8   1 37693.8 3041.99   3
   2   8   1 42532.6 3528.78   2
  -2  -8  -2 87880.7 4993.09   3
   2  -8   2 85393.2 4538.43   3
   2   8   2 87462.7 4991.18   2
   2  -8   3 10400.8 1619.16   3
  -2  -8  -3 10362.6 1814.69   3
  -2   8  -4 32667.2 3118.54   1
  -2  -8  -4 33067.3 3180.90   3
   3  -1  -9 74490.5 4652.87   3
   3   1  -9 77105.3 4341.16   2
   3   1  -8 36350.7 2880.37   2
   3  -1  -8 34667.7 2976.09   3
  -3   1   7 43601.0 2359.10   1
   3   1  -7 41098.4 3054.04   3
   3  -1  -7 43923.0 3094.70   3
  -3  -1   6 120912. 5084.25   3
   3   1  -6 121450. 4955.19   3
  -3   1   6 116572. 3569.62   1
   3  -1  -6 120574. 4733.26   3
  -3  -1   5 340021. 6575.27   1
   3   1  -5 334765. 7739.24   3
  -3  -1   5 349384. 8129.39   3
   3  -1  -5 337382. 7333.11   3
  -3   1   5 343679. 7397.44   3
  -3  -1   4 31737.6 2283.68   3
  -3   1   4 28322.1 1971.44   3
  -3  -1   3 520539. 8580.99   3
  -3   1   3 521284. 7715.29   3
  -3   1   2 30080.4 1687.45   3
  -3  -1   2 27970.0 1874.53   3
   3   1  -1 551981. 8038.17   2
   3  -1  -1 569207. 6787.90   3
  -3  -1   1 549937. 7613.37   3
  -3   1   1 551878. 6479.99   3
  -3  -1   0 5041.36 670.807   3
   3   1   0 4025.33 645.263   2
  -3   1   0 4342.78 500.944   3
   3  -1   0 3669.43 488.738   3
  -3   1  -1 49835.3 1270.62   3
  -3  -1  -1 48037.3 1828.19   3
  -3   1  -1 52282.8 2248.35   1
   3  -1   1 50330.0 1509.99   3
   3   1   1 54905.5 1942.74   2
   3   1   2 16576.5 896.128   2
  -3  -1  -2 15573.2 1349.37   1
  -3  -1  -2 14860.9 869.784   3
  -3   1  -2 16728.9 1416.66   1
  -3  -1  -3 132533. 4325.67   1
  -3   1  -3 126580. 4246.66   1
  -3   1  -4 46252.5 2852.00   1
  -3  -1  -4 44327.4 2704.26   1
  -3  -1  -5 99960.3 4500.58   1
  -3   1  -5 95176.4 4430.95   1
  -3  -1  -6 43582.7 3176.56   1
  -3   1  -6 41123.1 3204.32   1
  -3  -1  -7 185802. 7169.63   1
   3  -3  -9 9645.95 1746.63   3
   3   3  -9 11508.8 1660.93   2
   3  -3  -8 3530.37 989.095   3
   3   3  -8 2900.87 891.463   2
   3  -3  -7 153763. 6039.48   3
   3   3  -7 141739. 5567.59   2
   3  -3  -6 561.861 414.950   3
   3   3  -6 554.552 437.407   2
  -3   3   6 416.267 197.325   1
  -3   3   5 121091. 2544.40   1
   3   3  -5 124070. 4891.75   2
   3  -3  -5 123596. 4746.36   3
  -3   3   4 19922.7 1753.99   3
  -3   3   4 19907.6 952.008   1
  -3  -3   4 18540.0 1967.44   3
  -3  -3   4 21066.5 1732.04   1
   3  -3  -4 18482.9 1712.70   3
   3   3  -4 19291.4 1904.81   2
  -3   3   3 637983. 9250.67   3
  -3  -3   3 669855. 10918.9   3
  -3   3   2 4132.85 690.761   3
  -3  -3   2 5057.01 884.295   2
  -3   3   2 4513.27 466.341   1
  -3  -3   1 102369. 3834.09   2
  -3   3   1 100796. 3189.84   3
  -3   3   1 102332. 2558.16   1
  -3  -3   0 157498. 4580.66   2
   3  -3   0 154072. 3582.49   2
   3  -3   0 155070. 3797.65   3
  -3   3   0 151046. 3536.07   1
   3  -3   1 310482. 4915.34   3
  -3   3  -1 303248. 5602.16   1
  -3  -3  -1 312162. 6286.41   2
   3  -3   1 299146. 4597.63   2
   3  -3   2 150.698 123.574   3
   3  -3   2 335.668 161.194   2
  -3  -3  -2 410.986 249.257   2
  -3   3  -2 424.358 279.552   1
  -3  -3  -3 42517.1 2077.78   3
  -3   3  -3 38111.8 2457.62   1
  -3  -3  -3 39553.3 2329.76   1
  -3  -3  -3 40145.8 2158.70   2
   3  -3   3 42885.2 1184.57   3
   3  -3   3 37828.4 1191.51   2
  -3   3  -4 32764.9 2476.27   1
  -3  -3  -4 35122.3 1849.09   3
  -3  -3  -4 32853.2 1916.50   2
  -3  -3  -4 32295.2 2298.50   1
  -3  -3  -5 184432. 5984.85   1
  -3   3  -5 181572. 6412.69   1
  -3   3  -6-224.546 298.753   1
  -3  -3  -6-170.670 284.978   1
  -3  -3  -7 46232.4 3460.30   1
   3  -5  -9 84486.9 5465.19   3
   3  -5  -8 11587.4 1936.08   3
   3   5  -8 7029.87 1321.68   2
   3   5  -7 95317.4 4841.14   2
   3  -5  -7 96004.5 5291.39   3
   3  -5  -6 7045.82 1344.55   3
   3   5  -6 7017.60 1334.60   2
   3   5  -5 142116. 5646.70   2
   3  -5  -5 145558. 5862.34   3
   3   5  -4 41785.4 3016.59   2
   3  -5  -4 43088.8 3016.56   3
   3  -5  -3 118585. 4717.59   3
   3   5  -3 114601. 4887.12   2
   3  -5  -2 132507. 4753.44   3
  -3   5   2 139919. 2481.93   1
   3   5  -2 128798. 5137.17   2
   3  -5  -1 341059. 7312.33   3
  -3   5   1 342956. 5108.27   1
   3   5  -1 339620. 8132.06   2
   3  -5   0 12765.4 1375.65   3
  -3   5   0 12366.2 1134.64   1
   3  -5   0 13269.4 1301.16   2
   3   5   0 13900.1 1626.89   2
   3  -5   1 75119.9 3190.48   3
  -3   5  -1 78903.3 3195.35   1
   3   5   1 77148.8 3693.56   2
   3  -5   1 77945.5 3045.45   2
   3  -5   2 21469.7 1619.84   3
   3   5   2 22624.3 2009.27   2
  -3   5  -2 20348.2 1792.42   1
   3  -5   2 20190.2 1510.67   2
  -3  -5  -3 103541. 4216.88   3
   3   5   3 98882.2 4090.31   2
  -3  -5  -3 101726. 3746.44   1
  -3   5  -3 101230. 4330.63   1
  -3  -5  -4 22919.4 2012.88   3
  -3  -5  -4 21611.3 1867.07   1
  -3   5  -4 21456.6 2183.44   1
  -3  -5  -5 102255. 4320.20   1
  -3   5  -5 100549. 5146.24   1
   3   7  -7 18704.1 2450.03   2
   3   7  -6 17168.9 2276.58   2
   3  -7  -6 19327.8 2591.57   3
   3   7  -5 207370. 7787.46   2
   3  -7  -5 220142. 8343.89   3
   3   7  -4 480.987 467.735   2
   3  -7  -4 832.852 447.128   3
   3  -7  -3 46067.3 3492.40   3
   3   7  -3 44281.1 3599.21   2
   3  -7  -2 9110.19 1528.61   3
   3   7  -2 11420.8 1763.83   2
   3  -7  -1 119226. 5233.98   3
   3   7  -1 129289. 5968.66   2
   3  -7   0 79229.5 4168.19   3
  -3   7   0 81115.0 3288.81   1
   3   7   0 87588.1 4856.79   2
   3  -7   1 81970.1 4117.13   3
  -3   7  -1 93427.3 3941.59   1
   3   7   1 95200.8 5041.88   2
   3   7   2 7830.75 1468.43   2
   3  -7   2 7158.71 1186.54   3
  -3   7  -2 6010.39 1120.06   1
   3  -7   3 230389. 6483.55   3
  -3   7  -3 224344. 7260.29   1
  -3  -7  -3 219384. 7491.74   3
  -3  -7  -4 2080.21 733.296   3
  -3   7  -4 1466.99 686.105   1
   3   9  -2-352.898 497.753   2
   3  -9  -2-516.528 562.929   3
   3  -9  -1 43288.8 3700.61   3
   3   9  -1 53725.5 4528.33   2
   3  -9   0 4803.20 1188.46   3
   3  -9   1 165978. 6974.31   3
   3  -9   2 4283.92 1163.39   3
   4   0  -9 553.235 428.822   3
   4   0  -8 442109. 11071.3   3
   4   0  -7 411.948 408.057   3
  -4   0   6 10618.4 1258.77   1
   4   0  -6 9737.72 1465.51   3
   4   0  -5 62.7374 194.874   3
  -4   0   5-266.060 235.541   3
  -4   0   4 319166. 7393.87   3
  -4   0   3 29.4938 160.527   3
  -4   0   2 301810. 6207.41   3
   4   0  -1-0.97750 173.193   3
  -4   0   1-142.123 174.929   3
   4   0   0 995985. 10902.3   2
  -4   0   0 999999. 8861.45   3
  -4   0  -1 510.168 164.586   3
   4   0   1 922.805 287.284   2
   4   0   2 8475.99 559.943   2
  -4   0  -2 10176.3 1237.31   1
  -4   0  -3 243.807 304.738   1
  -4   0  -4 322194. 8119.71   1
  -4   0  -5 151.880 311.900   1
   4  -2 -10 215148. 8840.59   3
   4   2  -9 22053.8 2539.56   2
   4  -2  -9 19427.1 2499.03   3
   4   2  -8 12786.8 1872.68   2
   4  -2  -8 11724.0 1832.88   3
   4   2  -7 90187.5 4702.28   2
  -4   2   7 85050.4 3213.23   1
   4  -2  -7 80039.8 4425.22   3
   4   2  -6 141330. 5648.85   2
   4  -2  -6 145625. 5595.16   3
   4   2  -5 132005. 5251.55   2
   4  -2  -5 141528. 5186.97   3
  -4   2   4 197011. 5561.32   3
   4   2  -4 182942. 6019.28   2
   4  -2  -4 187571. 5649.11   3
  -4  -2   4 192295. 6351.25   3
  -4   2   3 88015.8 3471.50   3
  -4  -2   3 86913.9 4000.34   3
   4  -2  -3 88159.9 3703.27   3
  -4   2   2 305282. 6008.58   3
   4   2  -2 300619. 7332.00   2
  -4  -2   2 304293. 7067.43   3
  -4   2   1 170581. 4097.45   3
  -4  -2   1 170260. 4992.50   3
  -4   2   0 244171. 4412.02   3
  -4   2   0 246750. 5221.05   1
  -4  -2   0 240199. 5650.58   3
   4  -2   0 243182. 4765.86   3
  -4   2  -1 149477. 4453.41   1
   4  -2   1 143865. 3151.17   3
  -4  -2  -1 138195. 4048.52   3
   4  -2   2 376360. 3676.59   2
  -4  -2  -2 369044. 7400.69   1
   4   2   2 383142. 5841.49   2
  -4  -2  -2 370359. 6062.10   3
  -4   2  -2 381733. 7608.69   1
  -4  -2  -3 27712.1 2188.30   1
  -4   2  -3 30926.4 2395.93   1
  -4  -2  -3 32289.7 1342.89   3
   4   2   3 31821.1 1467.57   2
  -4  -2  -3 32110.4 1465.93   3
  -4   2  -4 3723.84 969.201   1
  -4  -2  -4 4589.58 982.298   1
  -4  -2  -5 40629.6 3093.43   1
  -4   2  -5 39975.2 3144.85   1
  -4  -2  -6 76757.6 4543.38   1
   4  -4  -9 28529.7 3161.27   3
   4   4  -9 31834.8 3025.18   2
   4  -4  -8 36468.4 3361.18   3
   4   4  -8 41549.0 3410.84   2
   4  -4  -7 2564.74 869.703   3
   4   4  -7 2978.77 945.566   2
  -4   4   6 239285. 3444.84   1
   4  -4  -6 241203. 7747.24   3
   4   4  -6 237608. 7739.05   2
   4   4  -5 26040.0 2492.81   2
  -4   4   5 23186.9 1039.74   1
   4  -4  -5 26328.6 2430.48   3
   4  -4  -4 1633.87 607.358   3
   4   4  -4 317.380 411.059   2
  -4   4   3 194276. 3352.95   1
   4   4  -3 200906. 6690.68   2
   4  -4  -3 199576. 5953.65   3
  -4   4   2 696524. 7244.98   1
   4   4  -2 669867. 11882.7   2
   4  -4  -2 683309. 10544.4   3
   4   4  -1 44947.3 2997.61   2
  -4   4   1 45650.8 2080.66   1
   4  -4  -1 46566.0 2619.66   3
  -4   4   0 52795.5 2474.36   1
  -4  -4   0 60850.1 3379.13   2
   4  -4   0 56624.5 2564.70   2
   4   4   0 57350.1 3179.75   2
   4  -4   0 57578.9 2740.24   3
   4  -4   1 915.103 308.593   2
   4   4   1 243.257 245.677   2
  -4   4  -1 69.4694 221.692   1
  -4  -4  -1 207.054 247.703   2
  -4  -4  -2 198720. 5942.30   2
  -4   4  -2 199392. 5827.41   1
   4   4   2 202799. 5568.47   2
   4  -4   2 214496. 4367.28   3
   4  -4   2 211672. 4202.84   2
  -4  -4  -3 37126.6 2235.75   3
  -4   4  -3 34413.9 2590.26   1
   4   4   3 39305.6 2349.29   2
  -4  -4  -3 36877.2 2548.44   1
  -4   4  -4 15870.0 1927.81   1
  -4  -4  -4 18456.1 1946.81   1
  -4  -4  -5 23431.0 2314.99   1
   4   6  -8 153827. 6916.78   2
   4  -6  -7 10010.8 1861.22   3
   4   6  -7 7707.59 1587.53   2
   4   6  -6 18163.8 2324.78   2
   4  -6  -6 18703.6 2411.96   3
   4  -6  -5 2906.38 930.821   3
   4   6  -5 2098.36 848.117   2
   4   6  -4 410713. 10752.1   2
   4  -6  -4 405999. 10243.7   3
   4  -6  -3 32876.4 2809.42   3
  -4   6   3 32315.4 991.533   1
   4   6  -3 30533.8 2902.32   2
   4  -6  -2 1898.84 654.621   3
   4   6  -2 1310.39 667.365   2
  -4   6   2 876.360 272.606   1
   4   6  -1 6475.72 1377.00   2
   4  -6  -1 4994.54 1014.72   3
  -4   6   1 6173.42 807.341   1
   4  -6   0 282875. 7173.37   3
  -4   6   0 292653. 6282.60   1
   4   6   0 296911. 8701.07   2
   4  -6   1 7039.27 1073.75   3
   4   6   1 6416.72 1286.47   2
  -4   6  -1 5566.99 966.865   1
   4  -6   2 28180.6 2054.40   3
   4   6   2 30277.0 2683.78   2
  -4   6  -2 27889.4 2352.25   1
  -4  -6  -3 74116.0 3985.75   3
   4   6   3 70256.5 3888.79   2
  -4  -6  -3 75338.4 3685.48   1
  -4   6  -3 69599.2 4029.73   1
  -4   6  -4 171935. 6826.18   1
   4   8  -5 54732.8 4580.08   2
   4   8  -4 100977. 6123.85   2
   4  -8  -4 94861.5 5743.30   3
   4   8  -3 4700.80 1348.59   2
   4  -8  -3 2615.48 912.529   3
   4  -8  -2 64388.0 4402.24   3
   4   8  -2 72908.0 5207.88   2
   4  -8  -1 38718.2 3311.54   3
   4   8  -1 41477.3 3879.44   2
   4  -8   0 73091.1 4407.43   3
   4   8   0 83193.7 5460.36   2
   4  -8   1 109791. 5242.14   3
   4   8   1 118834. 6432.22   2
  -4   8  -2 32373.2 2798.68   1
   4   8   2 34238.4 3366.20   2
   5   1 -10 26132.5 3017.88   2
   5  -1 -10 28954.8 3372.92   3
   5   1  -9 99165.6 5733.50   2
   5  -1  -9 100734. 5923.20   3
   5  -1  -8 14946.5 2188.72   3
   5   1  -7 251010. 8409.95   3
   5  -1  -7 256138. 8356.87   3
   5   1  -6 2332.31 832.121   3
   5  -1  -6 1626.34 653.414   3
   5   1  -5 48267.0 3370.34   3
   5  -1  -5 48584.5 3254.58   3
   5   1  -4 1484.15 601.632   3
   5  -1  -4 1454.97 552.829   3
   5  -1  -3 131459. 4766.49   3
  -5  -1   3 134849. 4984.04   3
  -5   1   3 142619. 4759.83   3
   5   1  -2 18255.3 1863.31   2
   5  -1  -2 14661.3 1510.51   3
  -5  -1   2 16944.4 1648.27   3
  -5   1   2 16386.0 1508.48   3
   5   1  -1 129491. 4875.73   2
  -5  -1   1 133090. 4285.61   3
  -5   1   1 132847. 3898.99   3
  -5   1   0 118510. 3190.07   3
  -5   1   0 113025. 4027.73   1
   5  -1   0 116005. 3735.03   3
  -5  -1   0 116091. 3622.71   3
   5  -1   1 341065. 6236.90   2
  -5   1  -1 342290. 4210.23   3
  -5   1  -1 329492. 7322.92   1
  -5  -1  -1 334431. 5393.94   3
   5  -1   2 46388.0 1294.35   2
   5   1   2 54878.5 1988.91   2
  -5  -1  -2 49129.0 3045.90   1
  -5   1  -2 51271.5 3148.72   1
  -5  -1  -2 51856.9 1427.38   3
  -5  -1  -3 114421. 4983.40   1
  -5   1  -3 108530. 4824.22   1
  -5  -1  -4 1679.79 705.573   1
  -5   1  -4 1318.33 637.076   1
   5   3 -10 15869.9 2321.11   2
   5   3  -9 196822. 8059.90   2
   5  -3  -9 202881. 8467.25   3
   5  -3  -8 895.554 577.554   3
   5   3  -8 441.112 565.703   2
   5   3  -7 49757.5 3817.30   2
   5  -3  -7 47868.3 3651.02   3
   5   3  -6 52510.8 3794.20   2
   5  -3  -6 48847.2 3482.41   3
   5   3  -5 285696. 8579.22   2
   5  -3  -5 297714. 8300.52   3
   5   3  -4 7304.83 1380.53   2
   5  -3  -4 10016.7 1493.33   3
   5  -3  -3 17220.7 1834.80   3
   5   3  -3 13623.7 1842.53   2
  -5   3   2 13337.4 1407.37   3
  -5   3   2 17053.1 1370.76   1
   5  -3  -2 12817.8 1510.15   3
   5   3  -2 13111.3 1733.58   2
  -5   3   1 257733. 5754.07   3
  -5   3   1 250429. 5636.83   1
  -5  -3   1 267430. 7112.73   3
   5  -3  -1 262660. 6317.80   3
  -5  -3   0 92.5284 202.058   3
   5   3   0 725.824 383.336   2
  -5   3   0 555.258 307.906   1
   5  -3   1 120280. 3225.09   2
   5   3   1 121432. 4308.87   2
  -5  -3  -1 122097. 4474.83   3
   5  -3   1 128795. 3542.28   3
  -5   3  -1 118823. 4479.21   1
  -5  -3  -2 1269.78 581.827   1
   5   3   2 750.402 359.802   2
  -5   3  -2 866.247 440.671   1
  -5   3  -3 227546. 7257.52   1
  -5  -3  -3 228065. 6988.99   1
  -5   3  -4 68.6126 189.713   1
  -5  -3  -4 153.254 357.318   1
   5  -5  -8 22254.6 2862.26   3
   5   5  -8 24293.3 2843.73   2
   5   5  -7 163943. 7177.91   2
   5  -5  -7 151981. 7117.32   3
   5   5  -6 12650.6 1938.11   2
   5  -5  -6 9915.41 1727.38   3
   5   5  -5 44036.8 3607.02   2
   5  -5  -5 39276.7 3257.49   3
  -5   5   4 83000.9 2260.07   1
   5   5  -4 77427.1 4745.17   2
   5  -5  -4 81017.1 4469.42   3
   5   5  -3 185601. 7257.06   2
  -5   5   3 186161. 3920.63   1
   5  -5  -3 190001. 6455.67   3
  -5   5   2 45828.8 2187.45   1
   5  -5  -2 51814.0 3239.55   3
  -5   5   1 123042. 3982.61   1
   5   5  -1 121579. 5657.98   2
   5  -5  -1 125559. 4820.22   3
   5  -5   0 3285.85 734.181   3
   5   5   0 2428.27 779.426   2
  -5   5   0 3827.89 814.317   1
  -5   5  -1 92265.9 4108.00   1
   5   5   1 95912.2 4638.67   2
   5  -5   1 99354.7 3811.39   3
   5   5   2 2934.88 833.074   2
  -5   5  -2 2976.15 805.826   1
  -5   5  -3 66554.9 4036.09   1
  -5  -5  -3 67415.3 3901.43   1
  -5  -5  -4 60207.8 3841.15   1
   5   7  -6 56382.9 4496.31   2
   5   7  -5 97338.8 5855.26   2
   5  -7  -5 90781.2 5547.59   3
   5   7  -4 15146.2 2296.29   2
   5  -7  -4 12228.2 1964.42   3
   5   7  -3 183619. 8055.53   2
   5  -7  -3 179914. 7296.15   3
   5  -7  -2-130.183 338.065   3
   5   7  -2 1306.99 703.015   2
   5   7  -1 21123.2 2698.16   2
   5  -7  -1 16452.7 2050.69   3
   5  -7   0 8235.44 1389.82   3
   5   7   0 11702.9 2039.54   2
  -5   7   0 12000.4 1433.00   1
   5   7   1 179224. 7519.26   2
  -5   7  -1 172839. 5995.58   1
   5   7   2 4838.86 1218.22   2
  -5   7  -2 5083.49 1184.62   1
   6   0  -9 9.21231 240.844   3
   6   0  -8 38756.2 3705.12   3
   6   0  -7-169.469 248.775   3
   6   0  -6 411976. 10785.3   3
   6   0  -5 297.353 397.823   3
   6   0  -4 10546.8 1569.16   3
   6   0  -3 29.7274 140.794   3
  -6   0   2 530980. 9429.11   3
  -6   0   1-172.791 212.387   3
   6   0  -1 244.190 353.923   2
   6   0   0 13299.3 1574.56   2
  -6   0   0 14682.3 1281.16   3
  -6   0  -1-225.218 313.010   1
  -6   0  -2 290903. 8135.18   1
  -6   0  -3-189.077 317.748   1
   6   2  -9 32373.8 3488.73   2
   6  -2  -9 30857.8 3416.49   3
   6   2  -8 107428. 6050.84   2
   6  -2  -8 114730. 6256.14   3
   6   2  -7 91149.6 5375.51   2
   6  -2  -7 101212. 5571.30   3
   6   2  -6 214610. 7968.10   2
   6  -2  -6 220040. 7771.01   3
   6   2  -5 111207. 5535.96   2
   6  -2  -5 115689. 5405.21   3
   6   2  -4 273661. 8505.16   2
   6  -2  -4 282010. 8062.19   3
   6   2  -3 31082.2 2816.65   2
   6  -2  -3 30648.1 2536.90   3
   6  -2  -2 2140.34 679.158   3
  -6   2   2 1957.42 634.725   3
   6   2  -2 1569.74 663.791   2
  -6   2   1 54206.1 2701.96   3
  -6   2   1 53244.8 2916.86   1
   6  -2  -1 53058.3 2989.14   3
  -6  -2   1 55697.6 3187.42   3
   6   2  -1 53134.1 3495.96   2
  -6   2   0 193813. 4474.93   3
  -6   2   0 181739. 5718.64   1
  -6  -2   0 191907. 5452.95   3
   6   2   0 179891. 5910.34   2
   6   2   1 96706.7 3758.12   2
  -6   2  -1 92149.4 4383.24   1
  -6  -2  -2 92461.2 4637.98   1
  -6   2  -2 95365.5 4708.24   1
  -6   2  -3 43177.3 3401.52   1
  -6  -2  -3 45112.4 3423.29   1
   6  -4  -8 287005. 10183.1   3
   6   4  -8 304019. 10411.5   2
   6  -4  -7 24475.9 2809.77   3
   6   4  -7 29156.5 3162.69   2
   6  -4  -6 8281.36 1601.41   3
   6   4  -6 8488.76 1713.85   2
   6  -4  -5 15041.1 2073.63   3
   6   4  -5 12787.3 1996.58   2
   6  -4  -4 292912. 8718.60   3
   6   4  -4 298169. 9427.31   2
  -6   4   3 51935.0 2545.31   1
   6  -4  -3 57953.1 3694.95   3
   6   4  -3 52647.8 3931.45   2
  -6   4   2 37210.8 2299.53   1
   6   4  -2 41811.5 3465.99   2
   6  -4  -2 41018.8 2964.90   3
   6   4  -1 11773.9 1765.40   2
  -6   4   1 11032.9 1362.92   1
   6  -4  -1 11490.7 1473.92   3
   6   4   0 179440. 6487.06   2
   6  -4   0 189724. 5497.51   3
  -6   4   0 170998. 5580.41   1
   6   4   1 2145.15 717.369   2
  -6   4  -1 2235.51 691.527   1
  -6  -4  -2 5366.88 1158.36   1
  -6   4  -2 5646.73 1193.83   1
  -6  -4  -3 49496.7 3632.79   1
   6   6  -6 289778. 10263.3   2
   6  -6  -6 289440. 10163.7   3
   6  -6  -5 366.230 444.456   3
   6   6  -5 357.328 422.783   2
   6   6  -4 12465.9 2137.57   2
   6  -6  -4 13012.4 1997.08   3
   6   6  -3 81675.5 5398.62   2
   6  -6  -3 81642.2 4766.62   3
  -6   6   2 200973. 5268.21   1
   6   6  -2 195201. 8268.25   2
   6  -6  -2 191466. 6985.66   3
  -6   6   1 38252.9 2535.75   1
   6   6  -1 43027.6 3883.71   2
   6  -6  -1 42228.3 3139.85   3
  -6   6   0 17332.6 1841.98   1
   6   6   0 21850.9 2658.78   2
   6   6   1 225.284 436.408   2
  -6   6  -1 1054.40 587.381   1
  -6  -6  -2 219856. 7726.43   1
   6  -8  -2 144600. 6767.77   3
   7  -1  -8 687.541 573.369   3
   7   1  -8-176.398 315.072   2
   7   1  -7 32001.9 3398.88   2
   7  -1  -7 35629.6 3555.18   3
   7   1  -6 30925.4 3197.31   2
   7  -1  -6 34411.3 3299.19   3
   7   1  -5 234503. 8483.92   2
   7  -1  -5 238875. 8442.61   3
   7   1  -4 58623.6 4126.96   2
   7  -1  -4 64572.7 4175.42   3
   7   1  -3 160519. 6622.65   2
   7  -1  -3 156009. 6224.83   3
   7   1  -2 24641.7 2573.67   2
   7  -1  -2 24463.9 2362.81   3
   7  -1  -1 152962. 5903.92   2
   7   1  -1 152544. 6072.09   2
  -7   1   0 5961.65 1194.05   1
   7   1   0 6373.93 1163.61   2
   7  -1   0 6842.44 1142.91   2
  -7  -1  -1 12020.6 1722.87   1
  -7   1  -1 11556.0 1701.70   1
   7   3  -8 2594.65 1005.31   2
   7   3  -7 174072. 7968.09   2
   7  -3  -7 163778. 7614.92   3
   7  -3  -6 4890.69 1299.29   3
   7   3  -6 5953.92 1431.57   2
   7   3  -5 75426.0 4989.52   2
   7  -3  -5 71388.7 4651.27   3
   7  -3  -4 16220.4 2127.95   3
   7   3  -4 12959.4 2062.05   2
   7  -3  -3 249732. 7923.54   3
   7   3  -3 252305. 8857.68   2
  -7   3   2 13065.6 1534.92   1
   7  -3  -2 15333.3 1883.73   3
   7   3  -2 15209.8 2140.76   2
  -7   3   1 23370.7 2194.14   1
   7  -3  -1 26816.3 2374.46   3
   7   3  -1 27071.3 2714.39   2
   7   3   0 18586.2 2094.76   2
  -7   3   0 16632.6 1971.65   1
  -7  -3  -1 144843. 6318.92   1
  -7   3  -1 137988. 5867.63   1
   7  -5  -6 531.734 551.101   3
   7   5  -6 136.931 549.444   2
   7  -5  -5 87285.6 5322.84   3
   7   5  -5 93484.8 5877.05   2
   7  -5  -4 3045.86 994.114   3
   7   5  -4 4684.52 1350.09   2
  -7   5   3 108494. 4137.09   1
   7   5  -3 115403. 6459.84   2
   7  -5  -3 100298. 5263.74   3
   7   5  -2 29126.8 3211.27   2
   7  -5  -2 28655.9 2700.77   3
  -7   5   2 29293.5 2283.11   1
   7   5  -1 89961.2 5417.27   2
  -7   5   1 93624.4 4349.24   1
   7   5   0 10494.5 1804.25   2
  -7   5   0 8646.48 1468.52   1
   7  -7  -3 4535.98 1256.65   3
   7  -7  -2 146.401 303.062   3
   8   0  -7-167.601 420.105   3
   8   0  -6 29577.8 3291.43   3
   8   0  -4 361958. 10989.5   2
   8   0  -3 488.762 495.578   2
   8   0  -2 49180.3 3786.76   2
   8   0  -1 948.559 497.593   2
   8   2  -7 46734.1 4334.95   2
   8  -2  -7 51548.6 4563.44   3
   8   2  -6 148059. 7538.90   2
   8  -2  -6 151029. 7513.48   3
   8   2  -5 65984.0 4903.98   2
   8  -2  -5 63494.7 4684.11   3
   8   2  -4 27013.1 3072.18   2
   8  -2  -4 25486.7 2839.01   3
   8  -2  -3 28771.8 2850.63   3
   8   2  -3 30835.1 3195.49   2
  -8   2   2 139049. 5504.37   1
   8  -2  -2 162510. 6480.57   3
   8   2  -2 155196. 6940.38   2
  -8   2   1 51895.4 3577.27   1
   8   2  -1 57068.8 3966.68   2
   8  -4  -6 101093. 6183.42   3
   8  -4  -5 689.243 592.784   3
   8   4  -5-6.07308 369.644   2
  -8   4   4 19042.8 1870.29   1
   8  -4  -4 19766.3 2547.42   3
   8   4  -4 24312.9 3029.36   2
  -8   4   3 45034.9 3042.36   1
   8  -4  -3 46244.9 3724.41   3
   8   4  -3 53316.4 4421.56   2
  -8   4   2 268219. 7756.24   1
   8   4  -2 277349. 9862.48   2
   8   4  -1 42272.4 3730.87   2
  -8   4   1 41787.7 3207.92   1
   9  -1  -6 29223.9 3550.91   3
   9   1  -5 16463.4 2670.85   2
   9  -1  -5 13976.4 2344.80   3
   9   1  -4 2431.15 988.675   2
   9   1  -3 79823.5 5323.04   2
   9  -1  -3 74502.3 5083.31   2
   9  -3  -5 109198. 6535.37   3
  -9   3   4 4597.96 1073.67   1
   9  -3  -4 5313.42 1384.49   3
  -9   3   3 2747.53 930.736   1
   9   3  -3 3228.71 1082.44   2
   0   0   0    0.00    0.00   0

TITL cryst2-He-60K in C2/c
REM C2/c (#15 in standard setting)
CELL 0.71073   7.028589   7.571530   7.586203  90.0000 116.2459  90.0000
ZERR    4.00   0.000802   0.000625   0.000828   0.0000   0.0142   0.0000
LATT  7
SYMM -x, y,-z+1/2
SFAC H O S Fe
UNIT 8.00 20.00 4.00 4.00
TREF
HKLF 4
END
;
_shelx_hkl_checksum              23256
loop_
_space_group_symop_operation_xyz
'x, y, z'
'-x, y, -z+1/2'
'x+1/2, y+1/2, z'
'-x+1/2, y+1/2, -z+1/2'
'-x, -y, -z'
'x, -y, z-1/2'
'-x+1/2, -y+1/2, -z'
'x+1/2, -y+1/2, z-1/2'
loop_
_atom_site_label
_atom_site_type_symbol
_atom_site_fract_x
_atom_site_fract_y
_atom_site_fract_z
_atom_site_U_iso_or_equiv
_atom_site_adp_type
_atom_site_occupancy
_atom_site_site_symmetry_order
_atom_site_calc_flag
_atom_site_refinement_flags_posn
_atom_site_refinement_flags_adp
_atom_site_refinement_flags_occupancy
_atom_site_disorder_assembly
_atom_site_disorder_group
Fe Fe 0.000000 0.500000 0.000000 0.00233(16) Uani 1 2 d S . P . .
S S 0.000000 0.15520(8) 0.250000 0.00232(18) Uani 1 2 d S T P . .
O1 O 0.1684(2) 0.04575(18) 0.40074(19) 0.0050(3) Uani 1 1 d . . . . .
O2 O 0.1003(2) 0.27048(16) 0.15946(17) 0.0043(3) Uani 1 1 d . . . . .
O3 O 0.000000 0.6434(3) 0.250000 0.0043(4) Uani 1 2 d S T P . .
H H 0.102(4) 0.711(3) 0.294(3) 0.012(6) Uiso 1 1 d . . . . .
loop_
_atom_site_aniso_label
_atom_site_aniso_U_11
_atom_site_aniso_U_22
_atom_site_aniso_U_33
_atom_site_aniso_U_23
_atom_site_aniso_U_13
_atom_site_aniso_U_12
Fe 0.0024(2) 0.0018(2) 0.0024(2) 0.00064(12) 0.00083(17) 0.00016(13)
S 0.0020(3) 0.0020(3) 0.0030(3) 0.000 0.0012(2) 0.000
O1 0.0038(7) 0.0051(6) 0.0055(6) 0.0012(5) 0.0018(5) 0.0007(5)
O2 0.0037(7) 0.0041(7) 0.0056(6) 0.0020(5) 0.0028(5) 0.0005(5)
O3 0.0034(10) 0.0044(9) 0.0046(9) 0.000 0.0015(8) 0.000
loop_
_atom_type_symbol
_atom_type_description
_atom_type_scat_dispersion_real
_atom_type_scat_dispersion_imag
_atom_type_scat_source
O O 0.0106 0.0060 'International Tables Vol C Tables 4.2.6.8 and 6.1.1.4'
H H 0.0000 0.0000 'International Tables Vol C Tables 4.2.6.8 and 6.1.1.4'
S S 0.1246 0.1234 'International Tables Vol C Tables 4.2.6.8 and 6.1.1.4'
Fe Fe 0.3463 0.8444 'International Tables Vol C Tables 4.2.6.8 and 6.1.1.4'
loop_
_geom_angle_atom_site_label_1
_geom_angle_atom_site_label_2
_geom_angle_atom_site_label_3
_geom_angle
_geom_angle_site_symmetry_1
_geom_angle_site_symmetry_3
_geom_angle_publ_flag
O2 Fe O2 180.0 . 5_565 ?
O2 Fe O1 94.86(5) . 8_455 ?
O2 Fe O1 85.14(5) 5_565 8_455 ?
O2 Fe O1 85.14(5) . 4 ?
O2 Fe O1 94.86(5) 5_565 4 ?
O1 Fe O1 180.0 8_455 4 ?
O2 Fe O3 91.88(5) . . ?
O2 Fe O3 88.12(5) 5_565 . ?
O1 Fe O3 86.60(4) 8_455 . ?
O1 Fe O3 93.40(4) 4 . ?
O2 Fe O3 88.12(5) . 5_565 ?
O2 Fe O3 91.88(5) 5_565 5_565 ?
O1 Fe O3 93.40(4) 8_455 5_565 ?
O1 Fe O3 86.60(4) 4 5_565 ?
O3 Fe O3 180.0 . 5_565 ?
O2 Fe O2 83.08(2) . 8_455 ?
O2 Fe O2 96.92(2) 5_565 8_455 ?
O1 Fe O2 42.98(4) 8_455 8_455 ?
O1 Fe O2 137.02(4) 4 8_455 ?
O3 Fe O2 128.10(3) . 8_455 ?
O3 Fe O2 51.90(3) 5_565 8_455 ?
O2 Fe O2 96.92(2) . 4 ?
O2 Fe O2 83.08(2) 5_565 4 ?
O1 Fe O2 137.02(4) 8_455 4 ?
O1 Fe O2 42.98(4) 4 4 ?
O3 Fe O2 51.90(3) . 4 ?
O3 Fe O2 128.10(3) 5_565 4 ?
O2 Fe O2 180.0 8_455 4 ?
O2 Fe O2 137.66(5) . 6_565 ?
O2 Fe O2 42.34(5) 5_565 6_565 ?
O1 Fe O2 113.00(4) 8_455 6_565 ?
O1 Fe O2 67.00(4) 4 6_565 ?
O3 Fe O2 119.80(5) . 6_565 ?
O3 Fe O2 60.20(5) 5_565 6_565 ?
O2 Fe O2 95.84(3) 8_455 6_565 ?
O2 Fe O2 84.16(3) 4 6_565 ?
O2 Fe O2 42.34(5) . 2 ?
O2 Fe O2 137.66(5) 5_565 2 ?
O1 Fe O2 67.00(4) 8_455 2 ?
O1 Fe O2 113.00(4) 4 2 ?
O3 Fe O2 60.20(5) . 2 ?
O3 Fe O2 119.80(5) 5_565 2 ?
O2 Fe O2 84.16(3) 8_455 2 ?
O2 Fe O2 95.84(3) 4 2 ?
O2 Fe O2 180.00(2) 6_565 2 ?
O1 S O1 110.92(12) 2 . ?
O1 S O2 108.83(7) 2 2 ?
O1 S O2 110.00(7) . 2 ?
O1 S O2 110.00(7) 2 . ?
O1 S O2 108.83(7) . . ?
O2 S O2 108.22(10) 2 . ?
S O1 Fe 136.08(8) . 4_545 ?
S O1 O2 35.97(5) . . ?
Fe O1 O2 100.24(6) 4_545 . ?
S O1 O1 34.54(6) . 2 ?
Fe O1 O1 139.58(9) 4_545 2 ?
O2 O1 O1 60.36(5) . 2 ?
S O1 O2 35.37(4) . 2 ?
Fe O1 O2 144.43(8) 4_545 2 ?
O2 O1 O2 60.12(6) . 2 ?
O1 O1 O2 59.64(5) 2 2 ?
S O1 O2 126.90(7) . 4_545 ?
Fe O1 O2 46.61(4) 4_545 4_545 ?
O2 O1 O2 108.32(5) . 4_545 ?
O1 O1 O2 102.66(6) 2 4_545 ?
O2 O1 O2 161.64(8) 2 4_545 ?
S O1 O3 171.30(8) . 7_556 ?
Fe O1 O3 48.25(3) 4_545 7_556 ?
O2 O1 O3 146.18(7) . 7_556 ?
O1 O1 O3 150.20(5) 2 7_556 ?
O2 O1 O3 136.00(6) 2 7_556 ?
O2 O1 O3 61.80(4) 4_545 7_556 ?
S O1 O2 116.06(8) . 8_556 ?
Fe O1 O2 41.88(4) 4_545 8_556 ?
O2 O1 O2 87.47(5) . 8_556 ?
O1 O1 O2 147.78(5) 2 8_556 ?
O2 O1 O2 104.31(6) 2 8_556 ?
O2 O1 O2 88.49(5) 4_545 8_556 ?
O3 O1 O2 61.19(5) 7_556 8_556 ?
S O1 O3 91.88(6) . 3_545 ?
Fe O1 O3 44.67(3) 4_545 3_545 ?
O2 O1 O3 56.98(5) . 3_545 ?
O1 O1 O3 101.62(7) 2 3_545 ?
O2 O1 O3 114.27(6) 2 3_545 ?
O2 O1 O3 61.69(5) 4_545 3_545 ?
O3 O1 O3 92.92(5) 7_556 3_545 ?
O2 O1 O3 57.14(4) 8_556 3_545 ?
S O1 O3 102.97(7) . 1_545 ?
Fe O1 O3 97.29(5) 4_545 1_545 ?
O2 O1 O3 118.54(6) . 1_545 ?
O1 O1 O3 68.43(3) 2 1_545 ?
O2 O1 O3 117.97(6) 2 1_545 ?
O2 O1 O3 52.54(4) 4_545 1_545 ?
O3 O1 O3 82.53(4) 7_556 1_545 ?
O2 O1 O3 137.17(5) 8_556 1_545 ?
O3 O1 O3 107.00(5) 3_545 1_545 ?
S O1 O2 126.87(8) . 6_556 ?
Fe O1 O2 96.50(5) 4_545 6_556 ?
O2 O1 O2 162.53(8) . 6_556 ?
O1 O1 O2 103.21(6) 2 6_556 ?
O2 O1 O2 107.65(5) 2 6_556 ?
O2 O1 O2 79.86(5) 4_545 6_556 ?
O3 O1 O2 51.28(4) 7_556 6_556 ?
O2 O1 O2 108.51(5) 8_556 6_556 ?
O3 O1 O2 137.83(6) 3_545 6_556 ?
O3 O1 O2 53.75(3) 1_545 6_556 ?
S O1 O2 113.52(7) . 7_556 ?
Fe O1 O2 77.02(5) 4_545 7_556 ?
O2 O1 O2 108.73(5) . 7_556 ?
O1 O1 O2 140.76(7) 2 7_556 ?
O2 O1 O2 81.91(4) 2 7_556 ?
O2 O1 O2 116.23(6) 4_545 7_556 ?
O3 O1 O2 58.37(5) 7_556 7_556 ?
O2 O1 O2 44.36(5) 8_556 7_556 ?
O3 O1 O2 101.16(5) 3_545 7_556 ?
O3 O1 O2 132.59(5) 1_545 7_556 ?
O2 O1 O2 79.82(3) 6_556 7_556 ?
S O2 Fe 132.42(8) . . ?
S O2 O1 35.21(5) . . ?
Fe O2 O1 162.26(7) . . ?
S O2 O2 35.89(5) . 2 ?
Fe O2 O2 102.71(5) . 2 ?
O1 O2 O2 60.30(5) . 2 ?
S O2 O1 34.63(4) . 2 ?
Fe O2 O1 117.79(7) . 2 ?
O1 O2 O1 59.99(7) . 2 ?
O2 O2 O1 59.58(5) 2 2 ?
S O2 O3 109.39(7) . 3_545 ?
Fe O2 O3 118.12(6) . 3_545 ?
O1 O2 O3 75.47(5) . 3_545 ?
O2 O2 O3 131.69(7) 2 3_545 ?
O1 O2 O3 114.59(7) 2 3_545 ?
S O2 O1 162.04(8) . 4 ?
Fe O2 O1 48.25(4) . 4 ?
O1 O2 O1 137.40(6) . 4 ?
O2 O2 O1 129.66(4) 2 4 ?
O1 O2 O1 161.64(8) 2 4 ?
O3 O2 O1 72.47(6) 3_545 4 ?
S O2 O3 134.73(7) . 5_565 ?
Fe O2 O3 48.23(4) . 5_565 ?
O1 O2 O3 147.47(7) . 5_565 ?
O2 O2 O3 135.23(8) 2 5_565 ?
O1 O2 O3 100.41(6) 2 5_565 ?
O3 O2 O3 92.62(4) 3_545 5_565 ?
O1 O2 O3 61.63(4) 4 5_565 ?
S O2 O1 91.72(6) . 8_455 ?
Fe O2 O1 43.26(3) . 8_455 ?
O1 O2 O1 126.87(7) . 8_455 ?
O2 O2 O1 73.05(6) 2 8_455 ?
O1 O2 O1 75.69(6) 2 8_455 ?
O3 O2 O1 155.26(5) 3_545 8_455 ?
O1 O2 O1 91.51(5) 4 8_455 ?
O3 O2 O1 62.86(4) 5_565 8_455 ?
S O2 O3 102.75(6) . . ?
Fe O2 O3 46.20(3) . . ?
O1 O2 O3 117.22(5) . . ?
O2 O2 O3 66.87(3) 2 . ?
O1 O2 O3 116.64(6) 2 . ?
O3 O2 O3 125.86(6) 3_545 . ?
O1 O2 O3 64.51(4) 4 . ?
O3 O2 O3 94.42(4) 5_565 . ?
O1 O2 O3 57.85(3) 8_455 . ?
S O2 O1 95.56(6) . 6 ?
Fe O2 O1 110.96(5) . 6 ?
O1 O2 O1 85.64(4) . 6 ?
O2 O2 O1 130.17(4) 2 6 ?
O1 O2 O1 72.35(5) 2 6 ?
O3 O2 O1 58.09(4) 3_545 6 ?
O1 O2 O1 100.14(5) 4 6 ?
O3 O2 O1 62.75(5) 5_565 6 ?
O1 O2 O1 108.51(5) 8_455 6 ?
O3 O2 O1 157.10(5) . 6 ?
S O2 O1 82.77(5) . 7_556 ?
Fe O2 O1 97.06(5) . 7_556 ?
O1 O2 O1 71.27(6) . 7_556 ?
O2 O2 O1 62.59(5) 2 7_556 ?
O1 O2 O1 116.92(6) 2 7_556 ?
O3 O2 O1 86.60(5) 3_545 7_556 ?
O1 O2 O1 79.49(4) 4 7_556 ?
O3 O2 O1 139.21(6) 5_565 7_556 ?
O1 O2 O1 109.40(5) 8_455 7_556 ?
O3 O2 O1 55.36(3) . 7_556 ?
O1 O2 O1 142.09(5) 6 7_556 ?
Fe O3 Fe 121.36(9) . 2 ?
Fe O3 O2 88.32(3) . 4 ?
Fe O3 O2 112.02(3) 2 4 ?
Fe O3 O2 112.02(3) . 3_455 ?
Fe O3 O2 88.32(3) 2 3_455 ?
O2 O3 O2 138.67(9) 4 3_455 ?
Fe O3 O1 45.15(3) . 8_455 ?
Fe O3 O1 103.44(6) 2 8_455 ?
O2 O3 O1 132.24(4) 4 8_455 ?
O2 O3 O1 70.64(4) 3_455 8_455 ?
Fe O3 O1 103.44(6) . 7_556 ?
Fe O3 O1 45.15(3) 2 7_556 ?
O2 O3 O1 70.64(4) 4 7_556 ?
O2 O3 O1 132.24(4) 3_455 7_556 ?
O1 O3 O1 122.27(9) 8_455 7_556 ?
Fe O3 O2 159.79(7) . 6_566 ?
Fe O3 O2 43.66(3) 2 6_566 ?
O2 O3 O2 87.38(4) 4 6_566 ?
O2 O3 O2 83.73(4) 3_455 6_566 ?
O1 O3 O2 139.70(4) 8_455 6_566 ?
O1 O3 O2 56.58(4) 7_556 6_566 ?
Fe O3 O2 43.66(3) . 5_565 ?
Fe O3 O2 159.79(7) 2 5_565 ?
O2 O3 O2 83.73(4) 4 5_565 ?
O2 O3 O2 87.38(4) 3_455 5_565 ?
O1 O3 O2 56.58(4) 8_455 5_565 ?
O1 O3 O2 139.70(4) 7_556 5_565 ?
O2 O3 O2 154.64(9) 6_566 5_565 ?
Fe O3 O2 41.92(4) . . ?
Fe O3 O2 81.00(6) 2 . ?
O2 O3 O2 93.62(3) 4 . ?
O2 O3 O2 125.86(6) 3_455 . ?
O1 O3 O2 60.96(5) 8_455 . ?
O1 O3 O2 66.27(5) 7_556 . ?
O2 O3 O2 118.73(6) 6_566 . ?
O2 O3 O2 85.58(4) 5_565 . ?
Fe O3 O2 80.99(6) . 2 ?
Fe O3 O2 41.92(4) 2 2 ?
O2 O3 O2 125.86(6) 4 2 ?
O2 O3 O2 93.62(3) 3_455 2 ?
O1 O3 O2 66.27(5) 8_455 2 ?
O1 O3 O2 60.96(5) 7_556 2 ?
O2 O3 O2 85.58(4) 6_566 2 ?
O2 O3 O2 118.73(6) 5_565 2 ?
O2 O3 O2 46.27(5) . 2 ?
Fe O3 O1 120.93(6) . 3_455 ?
Fe O3 O1 41.92(3) 2 3_455 ?
O2 O3 O1 147.21(4) 4 3_455 ?
O2 O3 O1 47.55(4) 3_455 3_455 ?
O1 O3 O1 79.88(4) 8_455 3_455 ?
O1 O3 O1 87.08(5) 7_556 3_455 ?
O2 O3 O1 60.00(4) 6_566 3_455 ?
O2 O3 O1 127.09(4) 5_565 3_455 ?
O2 O3 O1 99.13(6) . 3_455 ?
O2 O3 O1 53.79(4) 2 3_455 ?
Fe O3 O1 41.92(3) . 4 ?
Fe O3 O1 120.93(6) 2 4 ?
O2 O3 O1 47.55(4) 4 4 ?
O2 O3 O1 147.21(4) 3_455 4 ?
O1 O3 O1 87.08(5) 8_455 4 ?
O1 O3 O1 79.88(4) 7_556 4 ?
O2 O3 O1 127.09(4) 6_566 4 ?
O2 O3 O1 60.00(4) 5_565 4 ?
O2 O3 O1 53.79(4) . 4 ?
O2 O3 O1 99.13(6) 2 4 ?
O1 O3 O1 152.83(8) 3_455 4 ?
Fe O3 H 107.7(16) . . ?
Fe O3 H 108.1(16) 2 . ?
O2 O3 H 21.8(17) 4 . ?
O2 O3 H 119.1(18) 3_455 . ?
O1 O3 H 147.0(16) 8_455 . ?
O1 O3 H 76.4(17) 7_556 . ?
O2 O3 H 72.8(16) 6_566 . ?
O2 O3 H 91.2(16) 5_565 . ?
O2 O3 H 114.7(17) . . ?
O2 O3 H 137.3(17) 2 . ?
O1 O3 H 131.1(16) 3_455 . ?
O1 O3 H 68.7(17) 4 . ?
Fe O3 H 108.1(16) . 2 ?
Fe O3 H 107.7(16) 2 2 ?
O2 O3 H 119.1(18) 4 2 ?
O2 O3 H 21.8(17) 3_455 2 ?
O1 O3 H 76.4(17) 8_455 2 ?
O1 O3 H 147.0(16) 7_556 2 ?
O2 O3 H 91.2(16) 6_566 2 ?
O2 O3 H 72.8(16) 5_565 2 ?
O2 O3 H 137.3(17) . 2 ?
O2 O3 H 114.7(17) 2 2 ?
O1 O3 H 68.7(17) 3_455 2 ?
O1 O3 H 131.1(16) 4 2 ?
H O3 H 102(3) . 2 ?
loop_
_geom_bond_atom_site_label_1
_geom_bond_atom_site_label_2
_geom_bond_distance
_geom_bond_site_symmetry_2
_geom_bond_publ_flag
Fe O2 2.0542(12) . ?
Fe O2 2.0543(12) 5_565 ?
Fe O1 2.1090(14) 8_455 ?
Fe O1 2.1090(14) 4 ?
Fe O3 2.2192(10) . ?
Fe O3 2.2192(10) 5_565 ?
Fe O2 3.4666(14) 8_455 ?
Fe O2 3.4666(14) 4 ?
Fe O2 3.4977(12) 6_565 ?
Fe O2 3.4977(12) 2 ?
S O1 1.4630(14) 2 ?
S O1 1.4630(14) . ?
S O2 1.4903(12) 2 ?
S O2 1.4903(12) . ?
O1 O2 2.4018(18) . ?
O1 O1 2.410(3) 2 ?
O1 O2 2.4192(18) 2 ?
O1 O2 2.8166(18) 4_545 ?
O1 O3 2.9693(17) 7_556 ?
O1 O2 3.0663(19) 8_556 ?
O1 O3 3.1509(14) 3_545 ?
O1 O3 3.279(2) 1_545 ?
O1 O2 3.3002(17) 6_556 ?
O1 O2 3.3041(18) 7_556 ?
O2 O2 2.415(2) 2 ?
O2 O3 2.7292(15) 3_545 ?
O2 O3 2.9740(12) 5_565 ?
O2 O3 3.073(2) . ?
O3 H 0.81(2) . ?
O3 H 0.81(2) 2 ?
loop_
_geom_hbond_atom_site_label_D
_geom_hbond_atom_site_label_H
_geom_hbond_atom_site_label_A
_geom_hbond_distance_DH
_geom_hbond_distance_HA
_geom_hbond_distance_DA
_geom_hbond_angle_DHA
_geom_hbond_site_symmetry_A
_geom_hbond_publ_flag
O3 H O2 0.81(2) 2.00(2) 2.7292(15) 150(2) 4 yes
loop_
_geom_torsion_atom_site_label_1
_geom_torsion_atom_site_label_2
_geom_torsion_atom_site_label_3
_geom_torsion_atom_site_label_4
_geom_torsion
_geom_torsion_site_symmetry_1
_geom_torsion_site_symmetry_2
_geom_torsion_site_symmetry_3
_geom_torsion_site_symmetry_4
_geom_torsion_publ_flag
O1 S O1 Fe 115.28(12) 2 . . 4_545 ?
O2 S O1 Fe -124.27(11) 2 . . 4_545 ?
O2 S O1 Fe -5.86(14) . . . 4_545 ?
O1 S O1 O2 121.14(6) 2 . . . ?
O2 S O1 O2 -118.41(10) 2 . . . ?
O2 S O1 O1 120.45(6) 2 . . 2 ?
O2 S O1 O1 -121.14(6) . . . 2 ?
O1 S O1 O2 -120.45(6) 2 . . 2 ?
O2 S O1 O2 118.41(10) . . . 2 ?
O1 S O1 O2 52.59(7) 2 . . 4_545 ?
O2 S O1 O2 173.04(10) 2 . . 4_545 ?
O2 S O1 O2 -68.56(10) . . . 4_545 ?
O1 S O1 O2 161.89(9) 2 . . 8_556 ?
O2 S O1 O2 -77.66(9) 2 . . 8_556 ?
O2 S O1 O2 40.74(8) . . . 8_556 ?
O1 S O1 O3 107.93(6) 2 . . 3_545 ?
O2 S O1 O3 -131.62(7) 2 . . 3_545 ?
O2 S O1 O3 -13.22(7) . . . 3_545 ?
O1 S O1 O3 0.0 2 . . 1_545 ?
O2 S O1 O3 120.45(6) 2 . . 1_545 ?
O2 S O1 O3 -121.14(6) . . . 1_545 ?
O1 S O1 O2 -54.15(6) 2 . . 6_556 ?
O2 S O1 O2 66.30(11) 2 . . 6_556 ?
O2 S O1 O2 -175.29(8) . . . 6_556 ?
O1 S O1 O2 -149.05(8) 2 . . 7_556 ?
O2 S O1 O2 -28.60(9) 2 . . 7_556 ?
O2 S O1 O2 89.81(7) . . . 7_556 ?
O1 S O2 Fe 77.76(11) 2 . . . ?
O1 S O2 Fe -160.53(9) . . . . ?
O2 S O2 Fe -41.01(7) 2 . . . ?
O1 S O2 O1 -121.71(11) 2 . . . ?
O2 S O2 O1 119.52(7) 2 . . . ?
O1 S O2 O2 118.78(7) 2 . . 2 ?
O1 S O2 O2 -119.52(7) . . . 2 ?
O1 S O2 O1 121.71(11) . . . 2 ?
O2 S O2 O1 -118.78(7) 2 . . 2 ?
O1 S O2 O3 -105.47(8) 2 . . 3_545 ?
O1 S O2 O3 16.24(9) . . . 3_545 ?
O2 S O2 O3 135.76(8) 2 . . 3_545 ?
O1 S O2 O1 161.7(3) 2 . . 4 ?
O1 S O2 O1 -76.6(3) . . . 4 ?
O2 S O2 O1 42.9(2) 2 . . 4 ?
O1 S O2 O3 9.17(13) 2 . . 5_565 ?
O1 S O2 O3 130.88(10) . . . 5_565 ?
O2 S O2 O3 -109.61(11) 2 . . 5_565 ?
O1 S O2 O1 61.40(8) 2 . . 8_455 ?
O1 S O2 O1 -176.90(6) . . . 8_455 ?
O2 S O2 O1 -57.38(4) 2 . . 8_455 ?
O1 S O2 O3 118.78(7) 2 . . . ?
O1 S O2 O3 -119.52(7) . . . . ?
O2 S O2 O3 0.0 2 . . . ?
O1 S O2 O1 -47.39(9) 2 . . 6 ?
O1 S O2 O1 74.31(6) . . . 6 ?
O2 S O2 O1 -166.17(7) 2 . . 6 ?
O1 S O2 O1 170.73(7) 2 . . 7_556 ?
O1 S O2 O1 -67.56(8) . . . 7_556 ?
O2 S O2 O1 51.96(4) 2 . . 7_556 ?
