#------------------------------------------------------------------------------
#$Date: 2022-03-06 06:37:54 +0200 (Sun, 06 Mar 2022) $
#$Revision: 273468 $
#$URL: file:///home/coder/svn-repositories/cod/cif/1/56/59/1565952.cif $
#------------------------------------------------------------------------------
#
# This file is available in the Crystallography Open Database (COD),
# http://www.crystallography.net/
#
# All data on this site have been placed in the public domain by the
# contributors.
#
data_1565952
loop_
_publ_author_name
'Wildner, Manfred'
'Zakharov, Boris A.'
'Bogdanov, Nikita E.'
'Talla, Dominik'
'Boldyreva, Elena V.'
'Miletich, Ronald'
_publ_section_title
;
 Crystallography relevant to Mars and Galilean icy moons: crystal behavior
 of kieserite-type monohydrate sulfates at extraterrestrial conditions
 down to 15 K
;
_journal_issue                   2
_journal_name_full               IUCrJ
_journal_page_first              194
_journal_page_last               203
_journal_paper_doi               10.1107/S2052252521012720
_journal_volume                  9
_journal_year                    2022
_chemical_formula_sum            'Co H2 O5 S'
_chemical_formula_weight         173.01
_space_group_crystal_system      monoclinic
_space_group_IT_number           15
_space_group_name_Hall           '-C 2yc'
_space_group_name_H-M_alt        'C 1 2/c 1'
_atom_sites_solution_hydrogens   difmap
_audit_creation_method           SHELXL-2017/1
_cell_angle_alpha                90
_cell_angle_beta                 118.179(16)
_cell_angle_gamma                90
_cell_formula_units_Z            4
_cell_length_a                   6.9142(10)
_cell_length_b                   7.6267(8)
_cell_length_c                   7.5810(10)
_cell_measurement_temperature    30(2)
_cell_volume                     352.38(9)
_computing_structure_refinement  'SHELXL-2017/1 (Sheldrick, 2017)'
_diffrn_ambient_temperature      30(2)
_diffrn_measured_fraction_theta_full 1.000
_diffrn_measured_fraction_theta_max 0.893
_diffrn_radiation_type           MoK\a
_diffrn_radiation_wavelength     0.71073
_diffrn_reflns_av_R_equivalents  0.0336
_diffrn_reflns_av_unetI/netI     0.0409
_diffrn_reflns_Laue_measured_fraction_full 1.000
_diffrn_reflns_Laue_measured_fraction_max 0.893
_diffrn_reflns_limit_h_max       9
_diffrn_reflns_limit_h_min       -7
_diffrn_reflns_limit_k_max       7
_diffrn_reflns_limit_k_min       -9
_diffrn_reflns_limit_l_max       7
_diffrn_reflns_limit_l_min       -10
_diffrn_reflns_number            1236
_diffrn_reflns_point_group_measured_fraction_full 1.000
_diffrn_reflns_point_group_measured_fraction_max 0.893
_diffrn_reflns_theta_full        25.242
_diffrn_reflns_theta_max         29.229
_diffrn_reflns_theta_min         4.242
_exptl_absorpt_coefficient_mu    5.342
_exptl_crystal_density_diffrn    3.261
_exptl_crystal_F_000             340
_exptl_crystal_size_max          0.200
_exptl_crystal_size_mid          0.200
_exptl_crystal_size_min          0.050
_refine_diff_density_max         0.803
_refine_diff_density_min         -0.800
_refine_diff_density_rms         0.162
_refine_ls_extinction_coef       0.0202(19)
_refine_ls_extinction_expression Fc^*^=kFc[1+0.001xFc^2^\l^3^/sin(2\q)]^-1/4^
_refine_ls_extinction_method     'SHELXL-2017/1 (Sheldrick 2017)'
_refine_ls_goodness_of_fit_ref   1.113
_refine_ls_hydrogen_treatment    refall
_refine_ls_matrix_type           full
_refine_ls_number_parameters     40
_refine_ls_number_reflns         432
_refine_ls_number_restraints     0
_refine_ls_restrained_S_all      1.113
_refine_ls_R_factor_all          0.0337
_refine_ls_R_factor_gt           0.0285
_refine_ls_shift/su_max          0.000
_refine_ls_shift/su_mean         0.000
_refine_ls_structure_factor_coef Fsqd
_refine_ls_weighting_details
'w=1/[\s^2^(Fo^2^)+(0.0220P)^2^+0.8500P] where P=(Fo^2^+2Fc^2^)/3'
_refine_ls_weighting_scheme      calc
_refine_ls_wR_factor_gt          0.0584
_refine_ls_wR_factor_ref         0.0617
_reflns_Friedel_coverage         0.000
_reflns_number_gt                386
_reflns_number_total             432
_reflns_threshold_expression     'I > 2\s(I)'
_cod_data_source_file            lt5044.cif
_cod_data_source_block           CoSO4H2O_He_30K
_cod_depositor_comments
'Adding full bibliography for 1565934--1565967.cif.'
_cod_original_sg_symbol_H-M      'C 2/c'
_cod_database_code               1565952
_shelx_shelxl_version_number     2017/1
_shelx_space_group_comment
;
The symmetry employed for this shelxl refinement is uniquely defined
by the following loop, which should always be used as a source of
symmetry information in preference to the above space-group names.
They are only intended as comments.
;
_shelx_estimated_absorpt_t_min   0.415
_shelx_estimated_absorpt_t_max   0.776
_shelx_res_file
;
TITL kieserite cell setting from literature
    CoSO4_viekies_He-30K.res
    created by SHELXL-2017/1 at 09:13:10 on 25-Dec-2020
REM meas. CELL 0.71073   6.917163   7.628067   7.5841  90.0000 118.172  90.0000
REM latt corr for Nonius20C  -.0030 -.0014 -.0031         +.007
CELL 0.71073   6.914163   7.626667   7.5810  90.0000 118.179  90.0000
ZERR    4.00   0.001005   0.000839   0.0010   0.0000   0.016   0.0000
LATT  7
SYMM -X, Y, 1/2-Z
SFAC O H S CO
UNIT 20 8 4 4
L.S. 6
BOND
CONF
CONN 12 1.8 $O
EQIV $9 -x+1/2, y+1/2, -z+1/2
BOND $H
FMAP 2
PLAN 20
ACTA
HTAB O3 O2_$9
HTAB
TEMP -243
SIZE 0.20 0.20 0.05
WGHT    0.022000    0.850000
EXTI    0.020199
FVAR       3.26164
CO    4    0.000000    0.500000    0.000000    10.50000    0.00430    0.00280 =
         0.00416    0.00025    0.00167   -0.00031
S     3    0.000000    0.155840    0.250000    10.50000    0.00502    0.00257 =
         0.00516    0.00000    0.00282    0.00000
O1    1    0.171954    0.045102    0.402651    11.00000    0.00475    0.00495 =
         0.00709    0.00090    0.00270    0.00061
O2    1    0.100491    0.268844    0.155908    11.00000    0.00648    0.00388 =
         0.00694    0.00115    0.00369    0.00011
O3    1    0.000000    0.636768    0.250000    10.50000    0.00579    0.00433 =
         0.00742    0.00000    0.00367    0.00000
H     2    0.104203    0.694947    0.290711    11.00000    0.02910
HKLF 4 1   -1 0 0  0 -1 0  1 0 1




REM  kieserite cell setting from literature
REM R1 =  0.0285 for     386 Fo > 4sig(Fo)  and  0.0337 for all     432 data
REM     40 parameters refined using      0 restraints

END

WGHT      0.0218      0.8474

REM Instructions for potential hydrogen bonds
EQIV $5 x+1/2, y+1/2, z
HTAB O3 S_$5
HTAB O3 O2_$9

REM Highest difference peak  0.803,  deepest hole -0.800,  1-sigma level  0.162
Q1    1   0.0000  0.8422  0.2500  10.50000  0.05    0.80
Q2    1   0.1780  0.4304  0.0692  11.00000  0.05    0.60
Q3    1   0.3336  0.0777  0.4167  11.00000  0.05    0.54
Q4    1   0.0217  0.1956  0.1698  11.00000  0.05    0.54
Q5    1  -0.0945  0.4884 -0.1074  11.00000  0.05    0.50
Q6    1  -0.0409  0.4443  0.0730  11.00000  0.05    0.50
Q7    1   0.2006  0.1087  0.3893  11.00000  0.05    0.48
Q8    1  -0.0379  0.5469  0.3211  11.00000  0.05    0.47
Q9    1   0.2751  0.2269  0.4034  11.00000  0.05    0.47
Q10   1   0.0916  0.0656  0.4134  11.00000  0.05    0.47
Q11   1   0.2323  0.0489  0.5223  11.00000  0.05    0.47
Q12   1   0.0983  0.2726 -0.0094  11.00000  0.05    0.46
Q13   1  -0.0507  0.6532  0.1262  11.00000  0.05    0.43
Q14   1   0.2086  0.6938  0.3607  11.00000  0.05    0.43
Q15   1   0.2061  0.2977  0.0886  11.00000  0.05    0.42
Q16   1   0.0770  0.7268  0.1215  11.00000  0.05    0.42
Q17   1   0.1583  0.5654  0.3815  11.00000  0.05    0.40
Q18   1   0.0867 -0.0058  0.5086  11.00000  0.05    0.38
Q19   1   0.1622  0.2206  0.1404  11.00000  0.05    0.36
Q20   1   0.2259  0.0444  0.6316  11.00000  0.05    0.36
;
_shelx_res_checksum              14821
_shelx_hkl_file
;
   0   0   2 1482.09 229.999   3
   0   0   2 1435.40 132.604   2
   0   0  -2 1368.62 129.091   2
   0   0  -3 162.726 56.2667   2
   0   0   3-36.7862 90.9094   3
   0   0   3 2.80807 31.4091   2
   0   0  -3 28.2630 31.2884   1
   0   0  -4 56739.5 1981.73   3
   0   0   4 59799.8 1987.80   3
   0   0  -4 55209.6 1017.50   2
   0   0  -5-34.7786 205.074   3
   0   0   5 379.062 210.878   3
   0   0  -6 2736.74 591.750   3
   0   0  -7 432.911 348.780   3
   0   0  -8 52774.8 2998.24   3
   0   2   0 37739.0 1079.71   1
   0   2   1 62705.4 1313.14   1
   0  -2  -1 63941.6 1344.41   1
   0   2  -1 63223.2 1486.24   1
   0   2  -2 176244. 2637.89   1
   0   2   2 166514. 1967.76   1
   0  -2  -2 158494. 2046.86   1
   0  -2   2 167464. 2563.56   1
   0  -2   2 170254. 2408.39   2
   0  -2   2 161944. 2511.52   3
   0   2  -3 12597.7 758.994   1
   0  -2   3 13636.2 834.399   3
   0  -2   3 14096.4 713.601   2
   0   2   3 13486.7 494.960   1
   0  -2  -3 13687.6 528.714   1
   0  -2   4 28125.8 1355.02   3
   0  -2  -4 27318.1 1537.08   3
   0  -2   4 27269.9 1044.54   2
   0  -2  -4 26209.2 965.085   2
   0   2  -4 25447.3 1392.18   3
   0   2  -4 27259.8 1189.88   1
   0   2  -5 21221.0 1436.25   3
   0  -2  -5 21235.7 1484.43   3
   0   2  -5 21258.7 1088.39   1
   0  -2   5 21436.2 951.287   2
   0  -2  -5 22880.0 851.912   2
   0  -2  -6 10404.5 1127.26   3
   0  -2  -6 11391.8 493.675   2
   0   2  -6 10768.1 763.820   1
   0   2  -6 12242.9 1217.98   3
   0  -2   6 10792.1 676.042   2
   0  -2  -7 13962.8 1414.38   3
   0   2  -7 16713.1 1565.93   3
   0  -2  -8 9564.29 1273.97   3
   0   2  -8 9045.82 1281.35   3
   0   4   0 65079.0 2039.53   1
   0  -4  -1 195.797 155.946   1
   0   4   1 95.6653 127.598   1
   0   4  -1 368.102 208.474   1
   0  -4  -2 104251. 2556.07   1
   0  -4   2 109833. 2646.99   3
   0  -4   2 112684. 2864.06   1
   0   4  -2 104852. 2796.12   1
   0   4   2 108674. 2472.62   1
   0   4  -3 31039.7 1589.95   1
   0  -4   3 33332.1 1548.82   3
   0  -4  -3 30107.8 1341.08   1
   0  -4   3 30157.7 1431.65   2
   0   4   3 30668.3 1267.02   1
   0   4  -4 265.946 223.807   1
   0  -4  -4 214.411 239.917   3
   0  -4   4-4.04597 105.119   2
   0   4   4 220.393 115.822   1
   0   4  -5 9076.47 951.495   1
   0  -4   5 9357.96 829.374   2
   0   4   5 9361.24 564.129   1
   0  -4  -5 8597.96 1023.08   3
   0  -4  -6 67530.8 1979.18   2
   0  -4  -6 65218.9 2991.65   3
   0   4  -6 66921.0 3075.49   3
   0   4  -6 60512.7 2514.75   1
   0  -4   6 65075.2 2211.06   2
   0  -4  -7 1435.38 540.217   3
   0   4  -7 752.444 381.010   3
   0   6   0 54351.2 2334.86   1
   0   6   1 3789.01 631.669   1
   0   6  -1 3524.40 627.217   1
   0  -6  -2 9179.59 984.680   1
   0   6   2 8160.02 876.099   1
   0   6  -2 7968.78 958.044   1
   0   6   3 14479.8 1131.12   1
   0   6  -3 12721.9 1239.56   1
   0   6   4 80552.4 2558.64   1
   0   6  -4 80407.6 3219.54   1
   0   6   5 372.542 141.108   1
   0  -6  -5 508.926 277.405   3
   0   6  -5 61.4592 156.501   1
   0   6  -6 898.013 376.776   1
   0  -6  -6 463.328 324.829   3
   0   8   0 27174.8 1990.54   1
   0   8  -1 25063.6 1945.35   1
   0   8   1 22840.0 1791.86   1
   0   8   2 9287.38 1111.09   1
   0   8  -2 9653.92 1236.09   1
   0   8  -3 1885.89 579.393   1
   0   8   3 2294.64 570.399   1
   0   8  -4 21438.6 1965.93   1
   0   8   4 21879.6 1641.95   1
   0   8  -5 2715.16 721.138   1
   1  -1  -8-358.632 293.719   3
   1   1  -8 256.513 250.547   3
   1   1  -7 56853.3 2748.17   3
   1  -1  -7 50285.0 2616.60   3
   1  -1  -6 387.191 279.128   3
   1   1  -6 425.507 337.092   3
   1   1  -6 774.104 150.436   1
  -1   1   5 26836.5 1517.07   3
   1   1  -5 23771.6 891.288   1
  -1  -1   5 22523.5 555.286   2
   1  -1  -5 24355.9 1484.37   3
  -1  -1   5 27147.5 1468.82   3
   1   1  -5 25129.0 1464.29   3
  -1  -1   4 6616.79 331.535   2
  -1  -1   4 7151.42 464.890   1
  -1  -1   4 6977.86 648.900   3
  -1   1   4 5567.91 620.845   3
   1   1  -4 6229.29 456.151   1
  -1  -1   3 22904.8 997.282   3
  -1  -1   3 22283.8 777.194   1
   1  -1  -3 20917.5 427.533   2
  -1   1   3 22419.9 1080.92   3
   1   1  -3 21833.6 811.307   1
   1   1  -2 43258.2 1092.17   1
   1  -1  -2 42110.2 761.354   2
  -1  -1   2 40718.1 1010.46   1
  -1  -1   2 43202.8 1146.85   3
   1   1  -1 46205.0 1079.46   1
  -1  -1   1 45680.3 929.766   3
  -1   1   1 45952.0 921.474   2
   1   1   0 29877.9 861.544   1
  -1   1   0 31217.5 855.472   2
   1  -1   1 156364. 1801.18   3
  -1  -1  -1 153770. 2277.75   2
  -1   1  -1 153508. 1872.09   3
  -1  -1  -1 149818. 1993.28   1
  -1   1  -1 162466. 2170.74   2
  -1  -1  -2 4389.90 352.128   1
   1  -1   2 4006.51 373.112   3
  -1  -1  -2 3893.19 391.555   2
   1  -1   2 3821.87 361.989   2
  -1   1  -2 3726.50 367.881   2
  -1  -1  -2 3959.06 427.536   3
  -1   1  -2 4316.72 412.170   3
  -1   1  -3 82442.3 1843.18   2
  -1   1  -3 78071.9 2061.57   3
   1  -1   3 81049.3 1773.21   2
  -1  -1  -3 79154.9 1808.95   2
  -1  -1  -3 79103.1 2197.92   3
  -1  -1  -3 79338.3 1427.82   1
   1  -1   3 85380.9 2055.69   3
  -1   1  -4 2135.70 330.153   2
   1  -1   4 1883.26 292.526   2
   1  -1   4 2019.32 379.851   3
  -1   1  -4 2452.69 338.130   1
  -1  -1  -4 1728.97 394.298   3
  -1   1  -4 2121.37 425.620   3
  -1  -1  -4 2134.52 211.313   1
  -1  -1  -4 1627.90 285.713   2
  -1   1  -5 43636.4 1372.14   1
  -1   1  -5 39206.2 1418.85   2
  -1  -1  -5 38508.4 1939.26   3
   1  -1   5 37822.2 1403.73   2
  -1   1  -5 42816.7 2038.00   3
  -1  -1  -5 43822.2 1439.59   2
  -1   1  -6 3714.15 684.464   3
   1  -1   6 3772.87 460.406   2
  -1  -1  -6 4714.48 450.825   2
  -1   1  -6 3472.76 359.355   1
  -1  -1  -6 3966.33 705.319   3
  -1  -1  -7 3773.74 740.829   3
  -1   1  -7 2999.06 674.092   3
  -1  -1  -8 6119.11 1020.09   3
  -1   1  -8 6608.39 1094.13   3
   1   3  -8 2208.68 678.286   3
   1  -3  -8 1928.70 592.401   3
   1  -3  -7 9665.05 1202.05   3
   1   3  -7 9183.65 830.053   1
   1   3  -7 10575.4 1242.93   3
   1   3  -6 5874.94 685.030   1
   1  -3  -6 6700.70 401.242   2
   1   3  -6 6766.97 919.709   3
   1  -3  -6 5609.44 843.302   3
   1  -3  -6 6077.77 374.662   2
  -1   3   5 60893.1 991.639   1
  -1  -3   5 58939.4 1701.10   2
   1  -3  -5 59254.6 1434.65   2
   1   3  -5 59309.6 2104.41   1
   1   3  -5 60813.9 2445.69   3
   1  -3  -5 60238.0 2554.63   3
  -1  -3   4 6465.28 675.305   3
   1  -3  -4 7255.56 547.199   2
  -1   3   4 7199.67 476.872   1
   1   3  -4 6481.49 683.889   1
  -1  -3   4 7113.21 613.722   2
   1   3  -3 17027.5 1037.21   1
  -1   3   3 15411.4 771.604   1
  -1  -3   3 15819.4 971.693   3
   1   3  -2 29773.0 1321.82   1
  -1   3   2 31785.3 1199.96   1
   1  -3  -2 29555.5 1127.63   2
  -1  -3   2 28738.4 1211.75   3
  -1   3   1 61880.6 1765.13   1
   1   3  -1 63079.8 1822.22   1
  -1   3   0 3520.59 449.778   1
   1   3   0 3327.48 422.324   1
  -1  -3  -1 53394.0 1617.50   1
  -1   3  -1 56247.3 1852.35   1
   1   3   1 54345.5 1577.16   1
   1   3   2 3721.92 410.867   1
  -1   3  -2 3839.06 514.540   1
   1  -3   2 3752.78 446.886   3
  -1  -3  -2 3839.39 440.566   1
   1  -3   3 121838. 2742.33   3
  -1  -3  -3 114812. 2304.99   1
  -1   3  -3 123160. 2956.26   1
   1   3   3 120178. 2235.43   1
  -1   3  -4 299.036 214.086   1
  -1  -3  -4 523.365 276.933   3
   1  -3   4 297.439 156.074   3
  -1   3  -4 549.627 283.298   3
   1  -3   4 479.101 211.255   2
  -1  -3  -4 140.634 125.333   2
  -1  -3  -4 271.191 128.231   1
  -1  -3  -5 8101.46 712.845   2
   1  -3   5 9034.00 799.960   2
  -1   3  -5 7708.14 805.848   1
  -1   3  -5 6021.08 854.163   3
  -1  -3  -5 8319.57 976.269   3
  -1   3  -6 1313.33 364.623   1
  -1  -3  -6 1080.81 401.789   3
  -1  -3  -6 1115.24 260.208   2
  -1   3  -6 1267.95 454.706   3
  -1  -3  -7 22519.8 1827.54   3
  -1   3  -7 19435.6 1791.42   3
  -1   3  -8 426.945 357.712   3
   1   5  -7 29541.8 1966.17   1
   1  -5  -7 35230.1 2423.17   3
   1  -5  -6 718.690 432.233   3
   1   5  -6 1415.28 433.063   1
  -1  -5   5 14202.8 1110.03   2
  -1   5   5 15688.5 944.405   1
   1   5  -5 14974.9 1326.61   1
   1  -5  -5 13930.5 1338.07   3
   1  -5  -5 16243.6 1137.40   2
  -1   5   4 7412.41 701.192   1
   1   5  -4 7173.10 891.185   1
  -1  -5   4 7975.36 840.154   2
   1  -5  -4 7626.70 780.492   2
  -1   5   3 34204.5 1560.85   1
   1  -5  -3 35224.0 1668.75   2
  -1  -5   3 32790.5 1772.88   1
   1   5  -3 32089.6 1787.84   1
  -1   5   2 1217.29 331.784   1
  -1  -5   2 1528.54 399.066   1
   1   5  -2 928.799 356.816   1
   1  -5  -2 1467.95 360.422   2
  -1  -5   2 879.617 297.647   3
   1  -5  -1 48492.2 1969.20   2
   1   5  -1 46865.0 2019.09   1
  -1   5   1 44466.6 1899.95   1
  -1  -5   0 2683.42 488.221   1
   1   5   0 2216.15 457.596   1
  -1   5   0 2535.98 483.829   1
  -1   5  -1 65704.6 2464.95   1
   1  -5   1 70652.1 2419.07   2
  -1  -5  -1 66822.8 2388.70   1
   1   5   1 61238.3 2210.48   1
  -1  -5  -2 16674.0 1204.49   1
   1  -5   2 18180.4 1192.81   3
   1   5   2 16990.5 1141.26   1
   1  -5   2 16871.6 1217.39   2
  -1   5  -2 17345.8 1306.37   1
  -1   5  -3 13879.1 1217.22   1
  -1  -5  -3 14490.2 1120.10   1
   1   5   3 15038.8 1044.01   1
  -1  -5  -4 22881.1 1361.45   1
   1   5   4 21367.4 1202.24   1
  -1   5  -4 22786.7 1610.95   1
  -1  -5  -5 31081.8 1795.63   2
  -1   5  -5 29877.3 1929.31   1
  -1  -5  -5 33935.5 2138.37   3
  -1  -5  -6-88.7943 209.623   3
  -1   5  -6 659.036 321.052   1
  -1  -5  -7 10048.1 1330.63   3
   1   7  -7 13263.5 1574.80   1
   1  -7  -6 10058.3 1373.12   3
   1   7  -6 7692.31 1170.06   1
  -1   7   5 11026.0 1026.43   1
   1   7  -5 10060.0 1284.33   1
   1   7  -4-23.9461 154.512   1
  -1   7   4-176.594 140.992   1
   1   7  -3 65955.0 3037.04   1
  -1   7   3 63222.4 2629.45   1
  -1   7   2-56.2691 118.666   1
   1   7  -2 80.2961 218.374   1
   1   7  -1 8753.76 1066.11   1
  -1   7   1 7713.92 967.099   1
  -1   7   0 9533.81 1110.57   1
   1   7   0 9355.00 1077.01   1
   1   7   1 31430.1 1926.14   1
  -1   7  -1 33424.2 2108.50   1
  -1   7  -2 3390.68 721.303   1
   1   7   2 3647.01 662.555   1
  -1   7  -3 14739.2 1486.35   1
   1   7   3 10596.5 1072.97   1
  -1   7  -4 2167.64 651.788   1
   1   7   4 1006.53 351.848   1
  -1  -7  -5 21254.3 1970.59   3
  -1   7  -5 20341.0 1877.05   1
  -1   7  -6 3404.86 812.839   1
  -1   9   4 95.0295 142.440   1
  -1   9   3 2750.59 656.998   1
   1   9  -3 3245.65 777.692   1
  -1   9   2 592.916 334.048   1
   1   9  -2 755.790 336.421   1
  -1   9   1 59250.5 3171.53   1
   1   9  -1 54390.8 3101.99   1
   1   9   0 3374.69 768.041   1
  -1   9   0 2336.36 620.009   1
  -1   9  -1 1786.93 619.105   1
   1   9   1 1891.59 574.103   1
   1   9   2 231.455 240.169   1
  -1   9  -2-83.6265 224.506   1
   1   9   3 10890.7 1301.42   1
   2   0  -9 41.3875 164.826   3
   2   0  -8 5160.06 900.207   3
   2   0  -7 158.590 179.992   3
  -2   0   6 161914. 1600.09   1
   2   0  -6 152468. 3941.78   3
  -2   0   5 24.4372 123.048   3
  -2   0   5 48.1324 58.1619   1
   2   0  -5 59.7345 163.622   3
  -2   0   4 415.157 72.9542   2
  -2   0   4 588.264 137.522   1
  -2   0   4 380.044 160.146   3
  -2   0   3-115.481 87.7751   1
  -2   0   3 33.6769 107.185   3
   2   0  -3 101.844 104.779   3
  -2   0   3 29.8273 49.6923   2
   2   0  -2 176375. 2401.20   2
  -2   0   2 178116. 2203.67   2
  -2   0   2 175455. 2179.53   3
   2   0  -2 179925. 2110.00   3
   2   0  -1 50.3076 41.4461   3
  -2   0   1 43.6040 51.1919   3
  -2   0   1 81.1069 119.187   2
  -2   0   0 567.734 197.607   2
   2   0   1 47.0262 49.8216   3
  -2   0  -1 26.6691 56.5755   3
   2   0   1-8.43417 62.6234   2
  -2   0  -1-15.0688 119.292   2
   2   0   2 90744.8 2163.20   2
  -2   0  -2 89647.7 2180.17   2
  -2   0  -2 85270.1 1806.25   3
   2   0   2 91967.2 1893.34   3
  -2   0  -3 83.2571 140.138   3
   2   0   3 57.0569 69.5755   3
  -2   0  -3-77.3368 123.308   2
   2   0   3 64.4555 79.1840   2
  -2   0  -4 10770.1 860.748   2
  -2   0  -4 11839.2 971.967   3
   2   0   4 11928.0 949.113   3
  -2   0  -5 200.484 251.718   3
  -2   0  -5-34.2315 80.7925   2
  -2   0  -5 29.0523 67.8023   1
  -2   0  -6 102527. 2726.80   2
  -2   0  -6 97586.2 3466.64   3
  -2   0  -7 211.650 179.767   3
  -2   0  -8 162.763 231.946   3
   2  -2  -9 5453.17 1031.56   3
   2   2  -9 4854.67 968.377   3
   2   2  -8 20183.9 1814.41   3
   2  -2  -8 20542.2 1831.98   3
   2   2  -7 16018.6 947.743   1
   2  -2  -7 15222.5 1446.94   3
   2   2  -7 15883.9 1450.63   3
  -2  -2   6 24490.4 1170.27   1
  -2  -2   6 26267.3 838.435   2
   2   2  -6 26336.7 1286.56   1
   2   2  -6 24696.7 1631.76   3
   2  -2  -6 26956.8 1762.76   3
   2  -2  -5 19753.1 1387.09   3
   2  -2  -5 16997.7 529.342   2
   2   2  -5 17829.2 1065.60   1
  -2   2   5 15388.0 608.845   1
  -2  -2   5 17212.4 953.012   1
   2   2  -5 16901.0 1213.63   3
  -2  -2   5 18419.0 1197.52   3
  -2  -2   4 175777. 2957.88   1
   2   2  -4 167752. 3179.76   1
   2  -2  -4 164727. 2123.29   2
   2  -2  -4 160368. 3543.26   3
  -2  -2   4 171375. 3254.12   3
  -2  -2   3 8594.92 658.347   1
   2   2  -3 7870.57 669.634   1
   2  -2  -3 7670.11 508.817   2
  -2  -2   3 8062.87 626.712   3
   2  -2  -3 6523.34 644.705   3
   2   2  -2 10027.8 735.764   1
   2  -2  -2 9625.13 610.593   2
  -2  -2   2 9825.43 610.485   3
  -2   2   2 9106.00 591.111   2
   2   2  -1 60135.6 1743.78   1
  -2   2   1 59346.7 1591.15   2
   2   2   0 12533.5 791.187   1
  -2   2   0 12760.8 790.167   2
  -2  -2  -1 67629.1 1891.81   1
  -2  -2  -1 66845.4 2030.42   2
  -2   2  -1 64887.1 1885.31   2
   2  -2   1 67690.3 1469.03   3
  -2  -2  -2 63889.4 2069.30   2
  -2   2  -2 61449.8 1744.35   3
  -2  -2  -2 63241.1 1836.26   1
  -2   2  -2 64221.2 1979.35   2
   2  -2   2 63220.0 1643.04   3
  -2  -2  -2 62168.9 1858.88   3
  -2  -2  -3 13337.6 828.237   1
   2  -2   3 12833.4 921.679   2
  -2   2  -3 14683.6 1010.52   2
  -2   2  -3 12876.4 929.025   3
  -2  -2  -3 14513.1 1004.39   2
  -2  -2  -3 13229.9 983.991   3
   2  -2   3 12994.3 862.920   3
  -2  -2  -4 72592.2 2534.50   3
  -2  -2  -4 73795.5 1832.30   1
  -2   2  -4 72395.6 2332.10   1
  -2  -2  -4 74511.8 2322.92   2
   2  -2   4 78124.9 2367.84   2
  -2   2  -4 73777.7 2367.46   2
  -2   2  -4 74608.5 2534.59   3
   2  -2   4 82911.5 2480.82   3
  -2  -2  -5 8517.63 544.410   1
   2  -2   5 8649.72 830.167   2
  -2   2  -5 9574.89 1022.51   3
  -2   2  -5 8884.05 847.558   1
  -2  -2  -5 10229.4 870.465   2
  -2  -2  -5 10039.2 1031.24   3
  -2   2  -5 9325.26 907.115   2
  -2   2  -6 7114.60 987.130   3
  -2  -2  -6 7878.17 777.256   2
  -2  -2  -6 7572.28 989.841   3
  -2  -2  -7 10076.8 1226.29   3
  -2   2  -7 9152.09 1232.50   3
   2   4  -8 51692.2 3045.90   3
   2  -4  -8 48597.7 2888.20   3
   2  -4  -7 1121.56 417.334   3
   2   4  -7 342.247 210.969   1
   2   4  -7 627.432 363.676   3
  -2  -4   6 12456.4 1082.49   1
   2  -4  -6 13922.0 801.756   2
  -2  -4   6 12187.2 927.071   2
   2   4  -6 13003.6 1293.65   3
   2   4  -6 11958.2 1121.42   1
   2  -4  -6 10921.1 1226.42   3
  -2   4   6 14988.2 726.183   1
  -2  -4   5 607.862 246.835   1
   2  -4  -5 779.464 213.551   2
   2   4  -5 707.757 281.161   1
  -2   4   5 1121.94 244.996   1
   2  -4  -5 588.333 337.881   3
   2   4  -4 64139.0 2417.65   1
  -2   4   4 60902.3 1912.95   1
  -2  -4   4 59634.1 2192.70   1
   2  -4  -4 60768.3 1903.04   2
   2   4  -3 19003.0 1272.73   1
  -2  -4   3 20470.1 1213.11   3
  -2  -4   3 19678.8 1245.79   1
  -2   4   3 19331.2 1142.33   1
   2  -4  -3 20774.0 1127.91   2
   2   4  -2 9345.39 866.343   1
  -2   4   2 11383.3 909.228   1
  -2  -4   2 10620.8 845.239   3
   2  -4  -2 10930.4 842.288   2
  -2   4   1 6522.34 708.922   1
   2   4  -1 5289.99 641.486   1
   2   4   0 137146. 3138.68   1
  -2   4   0 138423. 3371.31   1
  -2  -4   0 137462. 3260.79   1
   2   4   1 5741.25 657.388   1
  -2   4  -1 5105.38 687.107   1
   2  -4   1 4909.54 538.685   3
   2  -4   1 5830.53 666.908   2
  -2  -4  -1 5126.16 646.285   1
   2  -4   2 583.886 229.265   2
   2   4   2 531.236 245.152   1
  -2  -4  -2 467.043 227.302   1
  -2   4  -2 565.680 288.561   1
   2  -4   2 365.765 188.385   3
  -2  -4  -3 21009.0 1443.01   2
   2  -4   3 22629.8 1300.99   3
  -2   4  -3 21345.7 1489.03   1
   2  -4   3 22307.3 1411.18   2
  -2  -4  -3 19956.6 1215.30   1
  -2   4  -4 64175.3 2647.44   1
  -2  -4  -4 65715.4 2105.16   1
  -2  -4  -4 62954.4 2598.64   3
  -2  -4  -4 64186.1 2486.96   2
  -2  -4  -5 3512.35 663.311   3
  -2  -4  -5 4547.76 644.356   2
  -2   4  -5 2372.14 529.687   1
  -2   4  -6 9008.53 1043.69   1
  -2  -4  -6 10129.4 1174.66   3
  -2  -4  -7 25.5201 137.030   3
   2  -6  -7-395.959 302.118   3
   2   6  -7 396.707 284.929   1
   2   6  -6 38194.2 2385.07   1
   2  -6  -6 35004.3 2377.25   3
   2   6  -5 4249.83 773.071   1
  -2   6   5 5818.33 702.134   1
  -2   6   4 11967.9 1045.10   1
   2   6  -4 11595.4 1241.10   1
  -2   6   3 24363.2 1532.50   1
   2   6  -3 28669.3 1861.87   1
  -2   6   2 74700.2 2788.85   1
   2   6  -2 75007.5 2921.47   1
   2   6  -1 929.355 369.002   1
  -2   6   1 365.037 273.826   1
   2   6   0 1819.01 475.463   1
  -2   6   0 2001.65 492.628   1
  -2   6  -1 453.680 325.155   1
   2   6   1 255.845 215.255   1
   2   6   2 87980.6 3019.58   1
  -2   6  -2 85395.9 3347.35   1
  -2   6  -3 6275.27 948.520   1
   2   6   3 6390.56 812.437   1
  -2  -6  -4 2662.30 617.669   3
   2   6   4 2207.49 461.107   1
  -2   6  -4 2448.17 607.790   1
  -2  -6  -5 5187.99 911.782   3
  -2   6  -5 3987.24 795.376   1
  -2  -6  -5 6772.73 992.018   2
   2   8  -6 14688.4 1732.39   1
  -2   8   5 14148.0 1314.59   1
   2   8  -5 15285.5 1692.49   1
   2   8  -4 4866.88 946.292   1
  -2   8   4 4483.55 785.967   1
  -2   8   3 8874.21 1103.29   1
   2   8  -3 8011.91 1169.57   1
  -2   8   2 36002.7 2309.29   1
   2   8  -2 37479.7 2426.33   1
  -2   8   1 11719.9 1353.68   1
   2   8  -1 10446.7 1263.40   1
   2   8   0 29339.4 2090.91   1
  -2   8   0 32751.5 2295.07   1
  -2   8  -1 6088.63 1037.70   1
   2   8   1 6261.53 962.386   1
   2   8   2 18596.0 1653.03   1
  -2   8  -2 18300.3 1812.34   1
  -2   8  -3 521.353 389.276   1
   2   8   3 1370.72 461.226   1
   3   1  -9 14934.1 1639.38   3
   3  -1  -9 13315.0 1580.25   3
   3   1  -8 5465.69 919.130   3
   3  -1  -8 5225.55 912.367   3
   3   1  -7 8298.24 1012.43   3
  -3  -1   7 10015.3 684.922   1
  -3   1   7 10039.1 422.115   1
   3  -1  -7 9906.52 1114.65   3
  -3   1   6 20085.9 859.790   1
   3  -1  -6 20898.9 1453.95   3
  -3  -1   6 19839.7 607.589   2
   3   1  -6 20742.5 1412.97   3
  -3  -1   6 16869.0 934.630   1
  -3  -1   5 66244.1 1513.70   2
  -3   1   5 64141.0 1790.27   1
  -3   1   5 66133.3 1211.19   2
   3   1  -5 63755.1 2200.85   3
   3  -1  -5 65176.4 2267.31   3
  -3   1   5 69087.6 2400.44   3
  -3  -1   5 68500.8 1910.44   1
  -3  -1   5 72250.3 2329.58   3
  -3  -1   4 4765.32 520.280   1
  -3  -1   4 5407.77 505.137   2
   3  -1  -4 4869.50 450.219   2
  -3   1   4 5707.74 436.335   2
  -3  -1   4 6176.84 602.453   3
  -3   1   4 5798.54 621.195   3
   3   1  -3 102220. 2093.68   3
  -3  -1   3 101522. 2313.36   2
   3  -1  -3 101593. 2110.91   2
  -3  -1   3 97880.9 2435.17   1
  -3   1   3 104365. 2021.89   2
  -3  -1   3 101718. 2048.09   3
   3  -1  -3 100095. 2056.66   3
   3   1  -2 5591.97 402.077   3
   3  -1  -2 4506.89 352.330   3
  -3  -1   2 4765.88 540.522   2
   3  -1  -2 4528.11 480.481   2
  -3   1   2 4784.92 476.394   2
  -3  -1   2 4606.62 364.602   3
  -3  -1   1 98397.4 2500.69   2
  -3  -1   1 99505.7 1327.37   3
  -3   1   1 97120.6 2266.89   2
   3  -1  -1 97459.2 1097.60   3
  -3   1   0 162.088 154.710   2
   3  -1   0 268.043 51.5186   3
  -3  -1   0 142.607 148.879   2
  -3  -1   0 433.224 202.800   1
  -3  -1  -1 10824.6 897.828   2
  -3   1  -1 11659.2 904.162   2
  -3  -1  -1 11209.4 855.232   1
   3  -1   1 11709.5 525.836   3
  -3  -1  -1 11564.8 612.055   3
  -3  -1  -2 4447.39 607.648   2
  -3   1  -2 4312.57 599.881   2
  -3   1  -2 4207.56 433.261   3
   3  -1   2 3823.40 542.859   2
  -3  -1  -2 4547.39 467.961   3
   3  -1   2 3785.10 396.475   3
  -3  -1  -2 3313.10 481.097   1
  -3   1  -3 23396.8 1253.50   3
   3  -1   3 25419.9 1445.33   2
  -3  -1  -3 22473.8 1381.13   2
  -3   1  -3 23507.0 1439.50   2
  -3  -1  -3 24437.8 1299.43   1
  -3  -1  -3 23719.2 1228.34   3
   3  -1   3 26440.1 1253.43   3
   3  -1   4 7487.06 847.169   2
   3  -1   4 9056.60 838.633   3
  -3  -1  -4 7066.83 804.641   2
  -3  -1  -4 8049.39 754.601   1
  -3   1  -4 8633.54 906.029   2
  -3   1  -4 8004.49 833.833   3
  -3  -1  -4 8900.94 861.147   3
  -3  -1  -5 17919.1 1329.20   2
  -3   1  -5 16483.3 1287.39   2
  -3   1  -5 17251.9 1365.82   3
  -3  -1  -5 16143.0 1299.17   3
  -3  -1  -6 5199.06 808.262   3
  -3   1  -6 6264.47 913.731   3
  -3  -1  -7 25806.2 1959.61   3
  -3   1  -7 27576.8 2074.81   3
   3  -3  -8 681.309 388.479   3
   3   3  -8 100.415 240.820   3
  -3  -3   7 30002.5 1574.85   1
  -3   3   7 30350.0 824.847   1
   3   3  -7 28327.9 1652.37   1
   3   3  -7 30748.1 2012.65   3
   3  -3  -7 25029.0 1858.39   3
   3  -3  -6 10.4120 161.884   3
  -3  -3   6 253.159 163.976   1
   3   3  -6 263.834 205.350   1
  -3   3   6 221.369 119.173   1
   3   3  -6 63.1136 205.173   3
   3  -3  -6 66.6663 49.8066   2
   3  -3  -5 24653.9 1081.91   2
   3   3  -5 25572.2 1564.46   1
  -3  -3   5 26148.4 1420.72   1
   3  -3  -5 23267.1 1551.98   3
   3   3  -5 26233.8 1560.14   3
  -3  -3   4 3778.18 516.357   3
   3  -3  -4 3376.21 549.348   3
   3  -3  -4 3114.17 425.015   2
  -3  -3   4 3431.77 526.536   1
   3   3  -4 2809.78 527.612   1
  -3  -3   3 135775. 2838.30   3
   3  -3  -3 128416. 2734.23   2
   3   3  -3 133394. 3324.17   1
  -3   3   3 129031. 2751.71   2
  -3  -3   3 133132. 3206.14   1
   3  -3  -2 327.673 172.705   2
   3   3  -2 379.646 200.864   1
  -3   3   2 327.676 177.932   2
  -3  -3   2 309.163 161.295   3
   3   3  -1 21373.1 1280.86   1
  -3   3   1 21525.9 1218.57   2
  -3  -3   0 23354.9 1379.07   1
  -3   3   0 22517.9 1304.69   2
   3   3   0 22595.7 1317.29   1
  -3  -3  -1 56730.1 2164.27   1
  -3  -3  -1 53733.6 2241.09   2
  -3   3  -1 53181.1 2092.68   2
   3  -3   1 55257.3 1549.38   3
   3  -3   2 143.580 102.450   3
  -3  -3  -2 11.8277 127.398   1
  -3   3  -2 6.52531 128.668   2
  -3  -3  -2 21.8907 167.772   2
   3  -3   2-282.266 184.582   2
  -3  -3  -3 8189.13 896.939   2
  -3   3  -3 8825.27 954.215   2
   3  -3   3 7536.52 707.156   3
  -3  -3  -3 6934.02 761.806   3
  -3  -3  -3 7285.87 762.871   1
  -3   3  -4 6193.80 837.285   1
  -3  -3  -4 5512.43 741.598   2
  -3   3  -4 5884.59 834.732   2
  -3  -3  -4 5532.50 640.187   1
  -3  -3  -4 5835.75 771.722   3
  -3   3  -5 34324.5 1991.99   1
  -3  -3  -5 35641.7 1891.78   2
  -3   3  -5 28832.4 1899.86   2
  -3  -3  -5 30977.7 1869.14   3
  -3  -3  -6 645.516 309.679   3
   3  -5  -8 1344.10 530.295   3
   3   5  -7 13624.0 1423.63   1
   3  -5  -7 15469.2 1592.01   3
   3  -5  -6 582.936 355.437   3
  -3   5   6 741.299 302.030   1
   3   5  -6 367.420 282.222   1
   3   5  -5 28425.0 1911.44   1
  -3   5   5 31713.2 1617.14   1
   3  -5  -5 26850.5 1493.03   2
   3  -5  -5 28042.7 1884.87   3
   3   5  -4 6067.08 871.981   1
  -3   5   4 4981.48 690.364   1
   3  -5  -4 5018.66 645.118   2
   3   5  -3 21360.1 1550.89   1
  -3   5   3 19800.9 1384.40   1
   3  -5  -3 22931.4 1398.58   2
  -3   5   2 26400.1 1643.08   1
   3   5  -2 25480.3 1655.63   1
   3  -5  -2 25502.9 1514.47   2
  -3  -5   2 27709.9 1510.43   3
  -3   5   1 71776.1 2796.36   1
   3   5  -1 72800.0 2744.73   1
  -3   5   0 1912.48 483.348   1
   3   5   0 3540.77 625.839   1
  -3   5  -1 15772.1 1399.68   1
   3   5   1 14011.8 1199.58   1
   3  -5   1 14705.3 1045.68   3
   3  -5   2 3051.29 489.549   3
   3   5   2 2721.56 530.778   1
  -3   5  -2 3658.68 711.659   1
  -3  -5  -3 20886.6 1690.58   2
  -3   5  -3 20171.4 1681.95   1
  -3  -5  -4 1887.77 495.562   3
  -3  -5  -4 2645.45 622.256   2
  -3   5  -4 2758.55 682.791   1
  -3  -5  -5 15696.2 1413.26   2
  -3   5  -5 15849.5 1557.12   1
  -3  -5  -5 12771.2 1345.58   3
  -3  -5  -6 556.268 349.681   3
   3   7  -7 2398.22 776.177   1
   3  -7  -6 1805.89 595.316   3
   3   7  -6 2861.91 780.592   1
   3   7  -5 37987.0 2547.46   1
  -3   7   5 39000.1 2111.98   1
  -3   7   4 281.434 253.173   1
   3   7  -4 242.519 241.741   1
   3   7  -3 9889.54 1225.05   1
  -3   7   3 9771.42 1137.86   1
  -3   7   2 2909.32 651.257   1
   3   7  -2 3011.45 685.102   1
   3   7  -1 24839.8 1885.33   1
  -3   7   1 22978.6 1858.84   1
   3   7   0 15330.7 1474.35   1
  -3   7   0 16310.2 1586.58   1
  -3   7  -1 16484.2 1649.96   1
   3   7   1 15999.7 1492.01   1
  -3   7  -2 1620.83 580.416   1
   3   7   2 1125.95 392.514   1
   3   7   3 39611.9 2313.23   1
  -3   7  -3 43606.0 2797.33   1
  -3  -7  -4-2.71664 105.274   3
  -3   7  -4 375.072 271.610   1
  -3  -7  -4 593.164 376.754   2
  -3   9   5 773.693 345.576   1
  -3   9   4 193.624 210.673   1
  -3   9   3 19181.0 1843.70   1
  -3   9   2-135.939 234.308   1
  -3   9   1 7399.24 1200.50   1
   3   9  -1 6035.28 1082.02   1
   3   9   0 500.079 290.258   1
   3   9   1 33864.7 2517.62   1
   3   9   2 454.502 303.855   1
   4   0  -9-201.643 210.856   3
   4   0  -8 77756.0 3314.22   3
   4   0  -7 290.347 251.570   3
  -4   0   6 937.912 192.569   2
   4   0  -6 1320.90 371.371   3
   4   0  -5-6.04259 146.999   3
  -4   0   5 133.495 164.343   3
  -4   0   5 91.3863 97.7278   2
  -4   0   4 61982.1 1833.04   2
  -4   0   4 65702.8 1978.28   3
   4   0  -3 80.5293 96.4888   3
  -4   0   3 56.9730 90.5497   3
   4   0  -3-61.9209 109.643   2
  -4   0   3 35.3727 114.471   2
   4   0  -2 55759.2 2062.63   2
  -4   0   2 51489.3 1905.52   2
   4   0  -2 52047.6 945.756   3
  -4   0   1 2.19185 103.397   2
  -4   0   0 177968. 3863.96   2
   4   0   1-57.5460 100.838   2
  -4   0  -1-185.282 199.624   2
  -4   0  -1-41.7996 61.4188   3
  -4   0  -2 1212.84 249.016   3
  -4   0  -2 1037.83 337.426   2
  -4   0  -3 16.2606 119.889   2
  -4   0  -3-192.882 135.111   3
  -4   0  -4 49397.5 2443.04   2
  -4   0  -4 53674.1 2125.39   3
  -4   0  -5 289.791 186.464   3
  -4   0  -5 155.413 159.790   2
   4  -2  -9 2939.73 721.118   3
   4   2  -9 3221.73 852.357   3
   4  -2  -8 2277.06 620.705   3
   4   2  -8 2898.51 647.254   3
  -4  -2   7 14022.2 787.897   2
  -4   2   7 12729.3 855.672   1
  -4  -2   7 12723.8 1004.38   1
   4  -2  -7 14920.7 1371.04   3
   4  -2  -6 29403.2 1231.65   2
  -4  -2   6 31387.8 1391.64   2
   4   2  -6 30489.6 1723.08   3
  -4  -2   6 29940.2 1564.79   1
   4  -2  -6 27678.3 1682.25   3
  -4  -2   5 22680.9 1311.32   2
   4  -2  -5 22973.4 1178.97   2
  -4   2   5 23642.9 1089.58   2
   4   2  -5 22838.4 1357.52   3
  -4  -2   5 24584.7 1375.39   3
   4  -2  -5 23875.6 1403.06   3
  -4  -2   5 27250.7 1508.76   1
  -4  -2   4 41021.6 1867.07   1
  -4  -2   4 35509.3 1690.27   2
   4  -2  -4 41872.3 1636.04   2
  -4   2   4 38945.8 1495.77   2
  -4  -2   4 39842.3 1571.78   3
  -4  -2   3 13668.7 1089.62   2
  -4  -2   3 15150.3 1146.40   1
   4  -2  -3 12954.2 953.405   2
  -4   2   3 13527.4 929.795   2
  -4  -2   3 14315.9 834.891   3
   4  -2  -3 14102.4 836.445   3
  -4  -2   2 57588.7 1483.85   3
  -4  -2   2 56833.2 2249.02   2
   4  -2  -2 59744.4 2090.06   2
  -4   2   2 57579.1 2006.62   2
   4  -2  -2 59496.1 1413.86   3
  -4  -2   1 27817.8 1600.80   2
  -4  -2   1 29228.1 1615.89   1
  -4  -2   1 25601.3 920.650   3
  -4   2   1 26610.8 1450.31   2
  -4  -2   0 40925.5 1986.32   2
   4  -2   0 40087.9 1839.88   2
  -4  -2   0 46738.6 2047.46   1
  -4   2   0 42623.0 1926.06   2
   4  -2   0 43025.9 907.482   3
  -4  -2  -1 24445.5 1567.58   2
   4  -2   1 25199.4 1533.99   2
  -4  -2  -1 24839.4 1523.71   1
  -4   2  -1 22028.8 1469.75   2
   4  -2   1 23906.5 833.058   3
  -4  -2  -1 23970.4 1028.00   3
  -4  -2  -2 65559.6 2627.56   2
  -4  -2  -2 73477.3 2640.41   1
  -4   2  -2 69568.0 2731.71   2
  -4  -2  -2 71236.5 1993.88   3
   4  -2   2 70989.9 1786.94   3
  -4   2  -3 5732.55 821.683   2
  -4  -2  -3 4075.40 639.476   1
  -4  -2  -3 5776.62 638.898   3
  -4  -2  -3 5116.45 762.697   2
   4  -2   3 5236.02 580.011   3
  -4  -2  -4 1622.56 376.676   3
  -4   2  -4 1264.19 420.482   2
  -4  -2  -4 1456.63 425.764   2
  -4   2  -5 8146.29 1059.51   2
  -4  -2  -5 7598.42 904.278   3
  -4   2  -5 6695.76 876.343   3
  -4  -2  -5 7055.42 939.098   2
   4  -4  -8 6650.35 1065.78   3
   4   4  -8 8648.50 1204.21   3
   4  -4  -7-34.0175 197.434   3
   4   4  -7 300.902 245.217   1
  -4   4   7 136.378 120.144   1
   4  -4  -6 41718.8 1697.08   2
   4   4  -6 44563.0 2421.52   1
   4  -4  -5 1840.85 491.247   3
   4   4  -5 2033.55 546.848   1
   4  -4  -5 2919.53 481.020   2
   4  -4  -4 434.777 252.502   3
   4   4  -4 473.497 298.957   1
   4  -4  -4 42.8997 131.199   2
   4  -4  -3 33154.0 1700.08   2
   4   4  -3 32517.9 1909.18   1
  -4  -4   3 33026.5 1582.80   3
  -4   4   3 31084.2 1643.96   2
  -4  -4   2 136548. 3071.74   3
   4  -4  -2 136076. 3535.60   2
   4   4  -2 141079. 3906.95   1
  -4   4   2 133501. 3501.40   2
  -4   4   1 7346.59 853.709   2
   4   4  -1 6072.37 821.721   1
  -4  -4   0 11454.4 1214.64   2
  -4   4   0 12573.9 1155.37   2
   4  -4   0 13011.0 820.488   3
   4  -4   1-85.3792 102.639   3
  -4   4  -1 143.552 226.008   2
  -4  -4  -1 88.4753 144.722   2
  -4  -4  -2 34649.2 2102.21   2
  -4   4  -2 36114.8 2121.75   2
   4  -4   2 35135.1 1508.79   3
  -4  -4  -2 33630.0 1695.59   3
  -4   4  -3 5500.03 880.946   2
  -4  -4  -3 7076.88 961.280   2
  -4  -4  -3 5656.55 753.066   3
  -4  -4  -4 2929.61 592.264   3
  -4   4  -4 2186.81 629.905   2
  -4   4  -4 3102.10 733.157   1
  -4  -4  -4 2229.29 542.116   2
  -4  -4  -5 4103.06 704.469   3
  -4   4  -5 4917.89 930.602   2
  -4  -4  -5 3775.67 705.805   2
  -4   4  -5 4443.10 822.715   1
   4   6  -8 22744.7 2104.90   1
   4  -6  -7 154.038 219.225   3
   4   6  -7 1745.53 617.175   1
   4   6  -6 4286.81 869.936   1
   4  -6  -6 2478.94 695.102   3
  -4   6   6 3941.88 649.035   1
   4  -6  -5-33.3135 209.037   3
   4   6  -5 182.191 260.723   1
  -4   6   5-205.409 194.376   1
  -4   6   4 74199.2 3057.00   1
   4   6  -4 77083.2 3426.76   1
   4   6  -3 6494.38 986.708   1
  -4   6   3 5010.07 817.568   1
   4   6  -2 481.509 302.720   1
  -4   6   2 564.220 313.634   1
   4   6  -1 1962.69 525.485   1
  -4   6   1 679.761 359.223   1
  -4   6   0 55490.9 2928.54   1
   4   6   0 54320.1 2706.07   1
   4   6   1 1328.79 428.622   1
  -4   6  -1 924.416 432.982   1
  -4  -6  -2 8790.09 1281.30   2
  -4   6  -2 6731.71 1088.46   1
  -4  -6  -3 13142.2 1562.75   2
  -4   6  -3 11261.1 1483.29   1
  -4  -6  -3 10339.7 1210.76   3
  -4  -6  -4 27904.0 2229.28   2
  -4   6  -4 29547.0 2387.10   1
  -4  -6  -4 28983.6 2121.52   3
  -4   8   5 7758.24 1101.24   1
   4   8  -4 17296.6 1851.31   1
  -4   8   4 15814.9 1621.56   1
  -4   8   3 459.032 289.766   1
   4   8  -3 483.861 334.308   1
  -4   8   2 12492.9 1517.40   1
   4   8  -2 11860.3 1548.46   1
   4   8  -1 6608.69 1092.36   1
  -4   8   1 7731.35 1229.39   1
  -4   8   0 17449.7 1855.52   1
   4   8   0 17124.6 1765.11   1
   4   8   1 18493.5 1809.37   1
   4   8   2 3711.34 827.964   1
   5   1  -9 20940.5 1870.59   3
   5  -1  -9 21610.2 1905.13   3
   5   1  -8 2198.25 577.588   3
   5  -1  -8 1940.97 538.357   3
  -5   1   7 45796.7 1998.00   1
  -5  -1   7 44148.7 1478.82   2
  -5   1   7 48638.6 1403.22   2
   5   1  -7 40619.3 2133.79   3
   5  -1  -7 43040.1 2201.85   3
  -5  -1   7 43804.3 2007.74   1
   5  -1  -6 339.927 212.358   3
  -5   1   6 341.759 205.161   1
  -5   1   6 576.245 187.489   2
  -5  -1   6 242.683 185.491   1
  -5  -1   6 186.124 127.497   2
   5   1  -6 522.888 268.673   3
   5  -1  -5 10843.8 988.045   2
  -5  -1   5 9581.84 1006.02   1
  -5  -1   5 9242.00 850.445   2
  -5   1   5 10167.2 822.716   2
   5   1  -5 7880.44 762.500   3
   5  -1  -5 8447.96 764.798   3
  -5  -1   5 10311.6 902.927   3
  -5   1   4 258.996 176.430   2
   5  -1  -4 34.7350 109.809   3
  -5  -1   4 228.341 143.685   3
  -5  -1   4 375.040 242.664   1
   5  -1  -4-97.1585 143.536   2
  -5  -1   4 84.2240 170.872   2
   5  -1  -3 28821.3 1635.78   2
  -5  -1   3 25729.9 1559.92   2
  -5   1   3 25103.5 1441.18   2
  -5  -1   3 26304.3 1653.57   1
   5  -1  -3 24232.9 849.228   3
  -5  -1   3 24066.5 978.195   3
  -5  -1   2 3104.28 564.499   1
   5  -1  -2 3302.80 567.668   2
  -5  -1   2 2938.88 251.747   3
  -5  -1   2 2283.40 492.933   2
  -5   1   2 3518.10 585.736   2
  -5  -1   1 24366.8 1612.11   2
  -5   1   1 24745.6 1598.66   2
  -5  -1   0 20200.6 1508.01   2
  -5   1   0 19879.2 1488.22   2
  -5  -1  -1 59460.4 2643.16   2
  -5   1  -1 58135.2 2659.72   2
  -5  -1  -1 57425.7 1126.99   3
  -5   1  -2 5838.02 898.648   2
  -5  -1  -2 7930.69 1008.34   2
  -5  -1  -2 7834.92 573.318   3
  -5  -1  -3 17485.7 1534.58   2
  -5   1  -3 18050.3 1634.66   2
  -5  -1  -3 18447.0 1061.12   3
  -5  -1  -4-195.630 258.602   2
  -5   1  -4 431.804 279.529   2
  -5   1  -5 13568.5 1483.40   2
   5   3  -9 41869.4 2714.67   3
   5  -3  -9 34033.2 2470.86   3
   5  -3  -8 220.549 273.549   3
   5   3  -8 542.144 328.375   3
  -5  -3   7 8952.17 876.594   2
   5   3  -7 10266.6 1157.67   3
  -5  -3   6 5807.95 774.463   2
   5  -3  -6 6366.50 719.895   2
   5   3  -6 7784.17 929.641   3
  -5   3   6 7790.57 734.992   2
   5  -3  -6 7679.76 904.999   3
  -5  -3   5 46929.5 2268.63   2
   5  -3  -5 50259.3 2107.00   2
  -5   3   5 50527.2 1978.60   2
   5  -3  -5 46007.6 2004.91   3
  -5  -3   4 1150.88 316.404   3
   5  -3  -4 446.815 235.263   3
  -5   3   4 1615.30 374.875   2
  -5  -3   4 1279.29 399.215   2
   5  -3  -4 1008.25 318.882   2
  -5   3   3 3493.28 584.530   2
  -5  -3   3 3935.99 507.359   3
  -5  -3   3 4601.19 745.018   2
   5  -3  -3 3796.69 469.955   3
  -5   3   2 3147.35 583.284   2
  -5  -3   2 1866.02 521.304   2
   5  -3  -2 3295.68 372.085   3
  -5  -3   2 3255.53 416.434   3
  -5  -3   1 50514.1 2477.07   2
  -5   3   1 48979.9 2265.51   2
  -5  -3   1 49054.9 1543.96   3
   5  -3  -1 51586.0 1213.16   3
   5  -3   0 293.655 95.7398   3
  -5   3   0 54.7246 173.868   2
  -5  -3  -1 21958.0 1684.96   2
  -5   3  -1 19459.7 1582.92   2
   5  -3   1 23274.7 898.442   3
  -5  -3  -1 23569.5 1164.37   3
  -5  -3  -2 389.466 186.454   3
  -5   3  -2 141.551 147.581   2
  -5  -3  -2-132.250 197.806   2
  -5  -3  -3 39810.1 2350.46   2
  -5   3  -3 41246.0 2553.43   2
  -5  -3  -3 41792.4 1804.11   3
  -5   3  -4-99.0741 217.030   2
  -5  -3  -4 386.869 251.474   2
   5  -5  -8 4190.33 861.284   3
  -5  -5   7 27038.1 1920.86   2
  -5   5   7 27138.5 1773.93   1
   5   5  -7 26925.6 2184.77   1
   5  -5  -7 23930.8 1934.17   3
   5  -5  -6 1318.10 463.021   3
   5   5  -6 2869.91 702.012   1
   5  -5  -5 6308.74 856.008   3
   5   5  -5 6810.76 1073.95   1
   5   5  -4 14312.4 1479.56   1
   5  -5  -4 10417.1 1046.23   3
   5   5  -3 38456.4 2351.32   1
  -5   5   3 34671.4 2024.88   2
  -5  -5   2 7969.21 1115.06   2
  -5   5   2 8685.67 1031.65   2
   5   5  -2 8811.78 1128.96   1
  -5  -5   1 24454.4 2008.33   2
  -5   5   1 22341.2 1710.07   2
  -5   5   0 475.049 325.171   2
  -5  -5   0 212.182 250.646   2
  -5  -5  -1 20388.6 1849.53   2
  -5   5  -1 20745.1 1777.95   2
  -5  -5  -2 589.914 257.158   3
  -5   5  -2 700.299 408.701   2
  -5  -5  -2 879.439 450.499   2
  -5   5  -3 8933.93 1329.86   2
  -5   5  -3 11072.1 1469.05   1
  -5  -5  -3 10274.4 1342.58   2
  -5  -5  -4 10663.2 1356.71   2
  -5   5  -4 10254.4 1451.52   1
  -5   7   6 11490.7 1296.11   1
   5  -7  -6 10576.2 1371.33   3
   5   7  -6 11057.4 1548.89   1
  -5   7   5 16131.1 1635.83   1
   5   7  -5 15776.5 1788.07   1
   5  -7  -5 12667.2 1452.00   3
   5   7  -4 4260.13 901.060   1
  -5   7   4 2889.80 713.197   1
  -5   7   3 29760.6 2276.55   1
   5   7  -3 32595.0 2464.19   1
   5   7  -2-82.2942 225.722   1
  -5   7   2 267.525 233.569   1
   5   7  -1 4271.16 890.883   1
  -5   7   1 4038.71 903.480   1
  -5  -7   0 3825.59 912.176   2
  -5   7   0 2247.03 647.432   1
  -5  -7  -1 39249.2 3075.95   2
   6   0  -9 172.524 171.545   3
   6   0  -8 8942.01 1091.55   3
   6   0  -7-58.8920 257.261   3
  -6   0   7-102.898 108.677   2
  -6   0   6 76430.1 2478.79   2
   6   0  -6 73019.2 2471.33   3
  -6   0   6 70618.3 2644.28   3
  -6   0   5-132.285 159.239   2
   6   0  -5-66.8461 107.963   3
  -6   0   4 1416.21 407.915   2
   6   0  -4 1556.85 277.949   3
  -6   0   3-40.2229 181.256   2
  -6   0   2 85182.4 3189.36   2
  -6   0   1 155.612 195.158   2
  -6   0   0 479.578 333.073   2
  -6   0  -1-81.2254 139.524   2
  -6   0  -2 50700.0 2847.55   2
  -6   0  -3 74.4243 198.365   2
  -6   0  -4 9098.22 1309.48   2
   6  -2  -9 4096.78 825.275   3
   6   2  -9 4415.00 870.573   3
   6   2  -8 19844.8 1649.98   3
   6  -2  -8 20979.6 1708.42   3
  -6  -2   7 11277.3 1000.70   2
  -6   2   7 14434.6 1014.33   2
   6   2  -7 13830.6 1273.72   3
   6  -2  -7 13565.2 1219.65   3
   6  -2  -6 37932.3 2053.15   2
  -6  -2   6 39262.7 1995.65   2
  -6   2   6 39048.7 1770.87   2
   6   2  -6 39501.8 1945.87   3
   6  -2  -6 36622.1 1801.92   3
  -6  -2   5 18893.7 1464.97   2
  -6   2   5 17478.5 1248.28   2
   6  -2  -5 17733.8 1095.94   3
  -6  -2   5 18296.2 1203.48   3
  -6  -2   4 46135.2 2344.88   2
  -6   2   4 48073.8 2194.73   2
   6  -2  -4 50257.1 1543.68   3
  -6  -2   4 47993.6 1697.18   3
  -6   2   3 5350.10 763.190   2
   6  -2  -3 5233.52 362.464   3
  -6  -2   3 5143.22 474.812   3
  -6  -2   3 5223.11 826.217   2
  -6   2   2 415.904 333.443   2
  -6  -2   2 908.296 156.707   3
  -6  -2   2 470.699 285.187   2
  -6  -2   1 8207.27 1051.84   2
  -6   2   1 7988.74 1034.67   2
  -6  -2   0 32348.7 2127.03   2
  -6   2   0 28525.8 2020.07   2
  -6  -2  -1 15013.6 1497.59   2
  -6   2  -1 16249.5 1589.22   2
  -6  -2  -2 20349.7 1779.43   2
  -6   2  -2 18896.6 1788.76   2
  -6   2  -3 7479.91 1165.32   2
  -6  -2  -3 7248.18 1091.21   2
  -6  -2  -4 19450.1 1822.95   2
   6  -4  -8 45255.5 2662.38   3
   6  -4  -7 2582.80 626.248   3
  -6  -4   7 2606.48 578.999   2
   6  -4  -6 1411.10 447.041   3
  -6   4   6 1496.43 435.684   2
  -6  -4   6 1578.94 475.889   2
   6  -4  -5 1732.84 408.844   3
  -6   4   5 1193.43 366.952   2
  -6  -4   5 1031.61 420.717   2
  -6  -4   4 49139.0 2708.94   2
  -6   4   4 48038.9 2343.63   2
   6  -4  -4 52970.2 2005.85   3
  -6  -4   3 8103.09 1127.27   2
  -6   4   3 7732.13 984.415   2
  -6  -4   3 8232.70 805.153   3
  -6   4   2 6623.96 943.451   2
  -6  -4   2 7023.32 1046.33   2
   6  -4  -2 8128.16 621.863   3
  -6   4   1 2465.26 589.196   2
  -6  -4   1 1857.39 565.575   2
  -6  -4   0 36848.5 2434.88   2
  -6   4   0 32971.6 2241.58   2
  -6   4  -1 68.4639 230.820   2
  -6  -4  -1 150.194 182.411   2
  -6   4  -2 873.586 405.055   2
  -6  -4  -2 994.029 409.263   2
  -6  -4  -3 6041.42 1059.67   2
   6  -6  -7 235.965 231.810   3
  -6  -6   7-122.488 199.349   2
  -6  -6   6 46774.1 2912.66   2
   6  -6  -6 40783.1 2469.60   3
   6  -6  -5-120.165 134.312   3
  -6  -6   5 752.127 365.743   2
   6  -6  -4 2659.31 568.709   3
  -6  -6   4 2805.12 745.221   2
  -6  -6   3 13171.7 1614.17   2
  -6  -6   2 34760.4 2658.09   2
  -6   6   2 32227.3 2301.56   2
  -6   6   1 6203.24 1025.72   2
  -6  -6   1 6988.85 1195.65   2
  -6   6   0 3764.32 845.666   2
  -6  -6   0 5011.65 1040.91   2
   7   1  -9 11562.7 1352.38   3
   7  -1  -9 11206.3 1319.86   3
   7  -1  -8 185.479 175.669   3
   7   1  -8-32.4585 91.7123   3
  -7  -1   7 7029.32 846.328   2
  -7   1   7 8421.37 876.309   2
   7   1  -7 7987.93 933.964   3
   7  -1  -7 6914.81 854.642   3
  -7   1   6 4573.96 706.015   2
   7   1  -6 5962.50 706.640   3
   7  -1  -6 6530.23 706.339   3
  -7  -1   6 5719.13 813.642   2
  -7  -1   5 42399.9 2312.22   2
  -7   1   5 43934.5 2268.48   2
  -7  -1   4 8899.21 1114.40   2
  -7   1   4 9703.75 1121.82   2
  -7  -1   3 27688.7 1998.80   2
  -7   1   3 26577.8 1948.42   2
  -7   1   2 3898.93 786.007   2
  -7  -1   2 3712.18 747.781   2
  -7  -1   1 27298.6 2076.65   2
  -7   1   1 25728.6 2039.78   2
  -7   1   0 1012.69 461.024   2
  -7  -1   0 693.060 362.111   2
  -7   1  -1 2936.60 749.086   2
  -7  -1  -1 2186.36 614.435   2
  -7   1  -2-348.911 296.639   2
  -7  -1  -2-123.926 157.046   2
   7  -3  -9 194.166 219.555   3
   7  -3  -8 478.799 281.502   3
  -7  -3   7 29452.6 1965.51   2
  -7   3   7 29735.2 1731.90   2
   7  -3  -7 31809.5 1864.83   3
   7  -3  -6 642.885 257.999   3
  -7   3   6 499.672 283.487   2
  -7  -3   6-248.967 208.007   2
  -7  -3   5 13720.5 1442.91   2
  -7   3   5 11532.6 1181.85   2
   7  -3  -5 14728.2 980.230   3
  -7   3   4 533.370 309.674   2
  -7  -3   4 1386.16 481.980   2
  -7  -3   3 44688.5 2662.00   2
  -7   3   3 42796.9 2445.25   2
  -7   3   2 2523.70 616.578   2
  -7  -3   2 2677.69 650.480   2
  -7   3   1 3384.51 794.344   2
  -7  -3   1 4353.50 877.924   2
  -7   3   0 3826.98 841.742   2
  -7  -3   0 1849.22 613.680   2
  -7  -3  -1 28587.5 2267.65   2
  -7   3  -1 22393.8 2104.37   2
  -7  -5   7 4379.85 874.177   2
  -7  -5   6 406.715 316.638   2
  -7  -5   5 18220.9 1821.53   2
  -7   5   5 16307.8 1537.28   2
  -7   5   4 625.028 321.903   2
  -7  -5   4-190.777 207.947   2
  -7  -5   3 19419.9 1938.73   2
  -7   5   3 16873.1 1642.64   2
  -7   5   2 4259.61 859.334   2
  -7  -5   2 5287.57 1044.85   2
  -7   5   1 21400.1 1986.01   2
  -8   0   7 354.899 234.461   2
  -8   0   6 2996.67 647.503   2
  -8   0   5 77.7288 159.787   2
  -8   0   4 66897.1 3309.24   2
  -8   0   3-203.902 217.866   2
  -8   0   2 11413.0 1467.31   2
  -8   0   1-162.445 177.354   2
  -8   2   7 5501.59 827.168   2
  -8  -2   7 6173.13 957.303   2
  -8  -2   6 24880.6 1972.42   2
  -8   2   6 22115.2 1722.20   2
  -8   2   5 10326.3 1245.11   2
  -8  -2   5 7482.56 1120.10   2
  -8   2   4 5377.08 962.551   2
  -8  -2   4 4526.52 926.191   2
  -8   2   3 6398.44 1043.03   2
  -8  -2   3 6016.54 1065.47   2
  -8  -2   2 24430.8 2122.22   2
  -8   2   2 27274.6 2267.07   2
  -8  -4   7 717.510 352.953   2
  -8  -4   6 13674.7 1563.81   2
  -8   4   6 14807.6 1451.82   2
  -8   4   5 102.862 126.297   2
  -8  -4   5 206.863 198.717   2
  -8   4   4 3130.07 735.097   2
  -8  -4   4 3430.73 796.160   2
  -8   4   3 6065.91 1060.95   2
  -9  -1   7 14945.5 1565.25   2
  -9   1   6 3063.50 716.519   2
  -9  -1   6 3237.92 775.309   2
  -9   1   5 1913.15 617.342   2
  -9  -1   5 1493.37 535.318   2
   0   0   0    0.00    0.00   0

TITL cryst9-He-30K in C2/c
REM C2/c (#15 in standard setting)
CELL 0.71073   6.917163   7.628067   7.471967  90.0000 116.5223  90.0000
ZERR    4.00   0.001005   0.000839   0.000979   0.0000   0.0164   0.0000
LATT  7
SYMM -x, y,-z+1/2
SFAC H O S Co
UNIT 8.00 20.00 4.00 4.00
TREF
HKLF 4
END
;
_shelx_hkl_checksum              52839
loop_
_space_group_symop_operation_xyz
'x, y, z'
'-x, y, -z+1/2'
'x+1/2, y+1/2, z'
'-x+1/2, y+1/2, -z+1/2'
'-x, -y, -z'
'x, -y, z-1/2'
'-x+1/2, -y+1/2, -z'
'x+1/2, -y+1/2, z-1/2'
loop_
_atom_site_label
_atom_site_type_symbol
_atom_site_fract_x
_atom_site_fract_y
_atom_site_fract_z
_atom_site_U_iso_or_equiv
_atom_site_adp_type
_atom_site_occupancy
_atom_site_site_symmetry_order
_atom_site_calc_flag
_atom_site_refinement_flags_posn
_atom_site_refinement_flags_adp
_atom_site_refinement_flags_occupancy
_atom_site_disorder_assembly
_atom_site_disorder_group
Co Co 0.000000 0.500000 0.000000 0.0039(2) Uani 1 2 d S . P . .
S S 0.000000 0.15584(15) 0.250000 0.0041(3) Uani 1 2 d S T P . .
O1 O 0.1720(3) 0.0451(3) 0.4027(3) 0.0056(5) Uani 1 1 d . . . . .
O2 O 0.1005(3) 0.2688(3) 0.1559(3) 0.0056(5) Uani 1 1 d . . . . .
O3 O 0.000000 0.6368(4) 0.250000 0.0056(7) Uani 1 2 d S T P . .
H H 0.104(6) 0.695(7) 0.291(6) 0.029(13) Uiso 1 1 d . . . . .
loop_
_atom_site_aniso_label
_atom_site_aniso_U_11
_atom_site_aniso_U_22
_atom_site_aniso_U_33
_atom_site_aniso_U_23
_atom_site_aniso_U_13
_atom_site_aniso_U_12
Co 0.0043(3) 0.0028(4) 0.0042(4) 0.0002(2) 0.0017(3) -0.0003(2)
S 0.0050(5) 0.0026(6) 0.0052(5) 0.000 0.0028(4) 0.000
O1 0.0048(10) 0.0049(12) 0.0071(10) 0.0009(8) 0.0027(9) 0.0006(9)
O2 0.0065(10) 0.0039(12) 0.0069(10) 0.0012(8) 0.0037(9) 0.0001(9)
O3 0.0058(15) 0.0043(17) 0.0074(15) 0.000 0.0037(14) 0.000
loop_
_atom_type_symbol
_atom_type_description
_atom_type_scat_dispersion_real
_atom_type_scat_dispersion_imag
_atom_type_scat_source
O O 0.0106 0.0060 'International Tables Vol C Tables 4.2.6.8 and 6.1.1.4'
H H 0.0000 0.0000 'International Tables Vol C Tables 4.2.6.8 and 6.1.1.4'
S S 0.1246 0.1234 'International Tables Vol C Tables 4.2.6.8 and 6.1.1.4'
Co Co 0.3494 0.9721 'International Tables Vol C Tables 4.2.6.8 and 6.1.1.4'
loop_
_geom_angle_atom_site_label_1
_geom_angle_atom_site_label_2
_geom_angle_atom_site_label_3
_geom_angle
_geom_angle_site_symmetry_1
_geom_angle_site_symmetry_3
_geom_angle_publ_flag
O2 Co O2 180.0 5_565 . ?
O2 Co O1 85.46(8) 5_565 8_455 ?
O2 Co O1 94.54(8) . 8_455 ?
O2 Co O1 94.54(8) 5_565 4 ?
O2 Co O1 85.46(8) . 4 ?
O1 Co O1 180.00(13) 8_455 4 ?
O2 Co O3 92.85(10) 5_565 5_565 ?
O2 Co O3 87.15(10) . 5_565 ?
O1 Co O3 93.51(6) 8_455 5_565 ?
O1 Co O3 86.49(6) 4 5_565 ?
O2 Co O3 87.15(10) 5_565 . ?
O2 Co O3 92.85(10) . . ?
O1 Co O3 86.49(6) 8_455 . ?
O1 Co O3 93.51(6) 4 . ?
O3 Co O3 180.0 5_565 . ?
O2 Co O2 98.22(3) 5_565 8_455 ?
O2 Co O2 81.78(3) . 8_455 ?
O1 Co O2 43.39(7) 8_455 8_455 ?
O1 Co O2 136.61(7) 4 8_455 ?
O3 Co O2 51.72(5) 5_565 8_455 ?
O3 Co O2 128.28(5) . 8_455 ?
O2 Co O2 81.78(3) 5_565 4 ?
O2 Co O2 98.22(3) . 4 ?
O1 Co O2 136.61(7) 8_455 4 ?
O1 Co O2 43.39(7) 4 4 ?
O3 Co O2 128.28(5) 5_565 4 ?
O3 Co O2 51.72(5) . 4 ?
O2 Co O2 180.0 8_455 4 ?
O2 Co O2 42.79(8) 5_565 6_565 ?
O2 Co O2 137.21(8) . 6_565 ?
O1 Co O2 113.12(7) 8_455 6_565 ?
O1 Co O2 66.88(7) 4 6_565 ?
O3 Co O2 60.32(9) 5_565 6_565 ?
O3 Co O2 119.68(9) . 6_565 ?
O2 Co O2 96.12(5) 8_455 6_565 ?
O2 Co O2 83.88(5) 4 6_565 ?
O2 Co O2 137.21(8) 5_565 2 ?
O2 Co O2 42.79(8) . 2 ?
O1 Co O2 66.88(7) 8_455 2 ?
O1 Co O2 113.12(7) 4 2 ?
O3 Co O2 119.68(9) 5_565 2 ?
O3 Co O2 60.32(9) . 2 ?
O2 Co O2 83.88(5) 8_455 2 ?
O2 Co O2 96.12(5) 4 2 ?
O2 Co O2 180.00(4) 6_565 2 ?
O1 S O1 109.97(19) 2 . ?
O1 S O2 110.06(11) 2 . ?
O1 S O2 108.87(12) . . ?
O1 S O2 108.87(12) 2 2 ?
O1 S O2 110.06(11) . 2 ?
O2 S O2 109.00(18) . 2 ?
S O1 Co 136.29(14) . 4_545 ?
S O1 O2 35.73(7) . . ?
Co O1 O2 100.64(10) 4_545 . ?
S O1 O1 35.01(9) . 2 ?
Co O1 O1 139.94(15) 4_545 2 ?
O2 O1 O1 60.40(8) . 2 ?
S O1 O2 35.14(7) . 2 ?
Co O1 O2 144.52(12) 4_545 2 ?
O2 O1 O2 60.08(11) . 2 ?
O1 O1 O2 59.67(8) 2 2 ?
S O1 O2 127.99(12) . 4_545 ?
Co O1 O2 47.22(6) 4_545 4_545 ?
O2 O1 O2 109.67(8) . 4_545 ?
O1 O1 O2 102.83(9) 2 4_545 ?
O2 O1 O2 162.13(13) 2 4_545 ?
S O1 O3 170.47(14) . 7_556 ?
Co O1 O3 48.31(5) 4_545 7_556 ?
O2 O1 O3 146.46(11) . 7_556 ?
O1 O1 O3 150.24(8) 2 7_556 ?
O2 O1 O3 135.44(11) 2 7_556 ?
O2 O1 O3 61.54(7) 4_545 7_556 ?
S O1 O2 114.60(13) . 8_556 ?
Co O1 O2 42.69(6) 4_545 8_556 ?
O2 O1 O2 86.59(8) . 8_556 ?
O1 O1 O2 146.90(9) 2 8_556 ?
O2 O1 O2 103.32(9) 2 8_556 ?
O2 O1 O2 89.90(9) 4_545 8_556 ?
O3 O1 O2 62.22(8) 7_556 8_556 ?
S O1 O3 92.24(10) . 3_545 ?
Co O1 O3 44.62(5) 4_545 3_545 ?
O2 O1 O3 57.51(8) . 3_545 ?
O1 O1 O3 101.95(11) 2 3_545 ?
O2 O1 O3 114.77(11) 2 3_545 ?
O2 O1 O3 62.60(9) 4_545 3_545 ?
O3 O1 O3 92.92(8) 7_556 3_545 ?
O2 O1 O3 56.99(6) 8_556 3_545 ?
S O1 O2 126.55(12) . 6_556 ?
Co O1 O2 96.57(8) 4_545 6_556 ?
O2 O1 O2 161.77(12) . 6_556 ?
O1 O1 O2 102.18(9) 2 6_556 ?
O2 O1 O2 107.78(9) 2 6_556 ?
O2 O1 O2 77.99(8) 4_545 6_556 ?
O3 O1 O2 51.77(6) 7_556 6_556 ?
O2 O1 O2 110.37(8) 8_556 6_556 ?
O3 O1 O2 137.31(10) 3_545 6_556 ?
S O1 O2 112.02(12) . 7_556 ?
Co O1 O2 77.84(7) 4_545 7_556 ?
O2 O1 O2 108.10(9) . 7_556 ?
O1 O1 O2 139.59(11) 2 7_556 ?
O2 O1 O2 80.72(7) 2 7_556 ?
O2 O1 O2 117.10(10) 4_545 7_556 ?
O3 O1 O2 59.02(8) 7_556 7_556 ?
O2 O1 O2 44.95(8) 8_556 7_556 ?
O3 O1 O2 101.68(8) 3_545 7_556 ?
O2 O1 O2 81.32(5) 6_556 7_556 ?
S O1 O3 103.85(11) . 1_545 ?
Co O1 O3 96.91(8) 4_545 1_545 ?
O2 O1 O3 118.91(9) . 1_545 ?
O1 O1 O3 68.84(4) 2 1_545 ?
O2 O1 O3 118.34(9) 2 1_545 ?
O2 O1 O3 51.34(6) 4_545 1_545 ?
O3 O1 O3 82.30(7) 7_556 1_545 ?
O2 O1 O3 137.81(9) 8_556 1_545 ?
O3 O1 O3 106.67(9) 3_545 1_545 ?
O2 O1 O3 52.34(5) 6_556 1_545 ?
O2 O1 O3 132.77(8) 7_556 1_545 ?
S O2 Co 131.88(13) . . ?
S O2 O1 35.40(7) . . ?
Co O2 O1 161.24(12) . . ?
S O2 O2 35.50(9) . 2 ?
Co O2 O2 101.97(8) . 2 ?
O1 O2 O2 60.32(8) . 2 ?
S O2 O1 34.81(7) . 2 ?
Co O2 O1 118.50(10) . 2 ?
O1 O2 O1 59.93(11) . 2 ?
O2 O2 O1 59.60(8) 2 2 ?
S O2 O3 108.00(12) . 3_545 ?
Co O2 O3 119.90(11) . 3_545 ?
O1 O2 O3 73.80(9) . 3_545 ?
O2 O2 O3 130.22(11) 2 3_545 ?
O1 O2 O3 113.30(12) 2 3_545 ?
S O2 O1 160.56(13) . 4 ?
Co O2 O1 47.32(6) . 4 ?
O1 O2 O1 137.40(8) . 4 ?
O2 O2 O1 128.26(7) 2 4 ?
O1 O2 O1 162.13(13) 2 4 ?
O3 O2 O1 74.94(9) 3_545 4 ?
S O2 O3 136.09(12) . 5_565 ?
Co O2 O3 48.01(7) . 5_565 ?
O1 O2 O3 149.07(12) . 5_565 ?
O2 O2 O3 135.10(12) 2 5_565 ?
O1 O2 O3 101.77(10) 2 5_565 ?
O3 O2 O3 94.32(7) 3_545 5_565 ?
O1 O2 O3 60.99(8) 4 5_565 ?
S O2 O1 92.12(10) . 8_455 ?
Co O2 O1 42.78(6) . 8_455 ?
O1 O2 O1 127.44(12) . 8_455 ?
O2 O2 O1 73.14(9) 2 8_455 ?
O1 O2 O1 76.68(9) 2 8_455 ?
O3 O2 O1 156.64(9) 3_545 8_455 ?
O1 O2 O1 90.10(9) 4 8_455 ?
O3 O2 O1 62.48(6) 5_565 8_455 ?
S O2 O3 102.21(11) . . ?
Co O2 O3 45.01(5) . . ?
O1 O2 O3 117.13(9) . . ?
O2 O2 O3 66.71(5) 2 . ?
O1 O2 O3 116.54(9) 2 . ?
O3 O2 O3 126.73(11) 3_545 . ?
O1 O2 O3 63.30(7) 4 . ?
O3 O2 O3 93.02(7) 5_565 . ?
O1 O2 O3 56.87(6) 8_455 . ?
S O2 O1 95.30(11) . 6 ?
Co O2 O1 113.41(8) . 6 ?
O1 O2 O1 84.49(7) . 6 ?
O2 O2 O1 129.73(6) 2 6 ?
O1 O2 O1 72.22(9) 2 6 ?
O3 O2 O1 57.27(7) 3_545 6 ?
O1 O2 O1 102.01(8) 4 6 ?
O3 O2 O1 65.42(8) 5_565 6 ?
O1 O2 O1 110.37(8) 8_455 6 ?
O3 O2 O1 158.36(8) . 6 ?
S O2 O1 82.44(9) . 7_556 ?
Co O2 O1 94.87(9) . 7_556 ?
O1 O2 O1 71.90(9) . 7_556 ?
O2 O2 O1 61.91(8) 2 7_556 ?
O1 O2 O1 116.71(11) 2 7_556 ?
O3 O2 O1 87.35(7) 3_545 7_556 ?
O1 O2 O1 78.48(6) 4 7_556 ?
O3 O2 O1 137.23(10) 5_565 7_556 ?
O1 O2 O1 107.47(9) 8_455 7_556 ?
O3 O2 O1 54.24(5) . 7_556 ?
O1 O2 O1 142.15(8) 6 7_556 ?
Co O3 Co 122.35(16) . 2 ?
Co O3 O2 111.82(5) . 3_455 ?
Co O3 O2 89.32(5) 2 3_455 ?
Co O3 O2 89.32(5) . 4 ?
Co O3 O2 111.82(5) 2 4 ?
O2 O3 O2 136.20(17) 3_455 4 ?
Co O3 O1 45.21(5) . 8_455 ?
Co O3 O1 104.00(11) 2 8_455 ?
O2 O3 O1 70.96(6) 3_455 8_455 ?
O2 O3 O1 133.16(6) 4 8_455 ?
Co O3 O1 104.00(11) . 7_556 ?
Co O3 O1 45.21(5) 2 7_556 ?
O2 O3 O1 133.16(6) 3_455 7_556 ?
O2 O3 O1 70.96(6) 4 7_556 ?
O1 O3 O1 122.67(15) 8_455 7_556 ?
Co O3 O2 161.42(12) . 6_566 ?
Co O3 O2 44.84(5) 2 6_566 ?
O2 O3 O2 83.72(7) 3_455 6_566 ?
O2 O3 O2 85.68(7) 4 6_566 ?
O1 O3 O2 140.84(7) 8_455 6_566 ?
O1 O3 O2 57.47(6) 7_556 6_566 ?
Co O3 O2 44.84(5) . 5_565 ?
Co O3 O2 161.42(12) 2 5_565 ?
O2 O3 O2 85.68(7) 3_455 5_565 ?
O2 O3 O2 83.72(7) 4 5_565 ?
O1 O3 O2 57.47(6) 8_455 5_565 ?
O1 O3 O2 140.84(7) 7_556 5_565 ?
O2 O3 O2 151.33(16) 6_566 5_565 ?
Co O3 O2 42.14(7) . . ?
Co O3 O2 81.71(11) 2 . ?
O2 O3 O2 126.72(11) 3_455 . ?
O2 O3 O2 95.00(6) 4 . ?
O1 O3 O2 60.91(8) 8_455 . ?
O1 O3 O2 66.73(9) 7_556 . ?
O2 O3 O2 120.50(10) 6_566 . ?
O2 O3 O2 86.98(7) 5_565 . ?
Co O3 O2 81.71(11) . 2 ?
Co O3 O2 42.14(7) 2 2 ?
O2 O3 O2 95.00(6) 3_455 2 ?
O2 O3 O2 126.73(11) 4 2 ?
O1 O3 O2 66.73(9) 8_455 2 ?
O1 O3 O2 60.91(8) 7_556 2 ?
O2 O3 O2 86.98(7) 6_566 2 ?
O2 O3 O2 120.50(10) 5_565 2 ?
O2 O3 O2 46.59(9) . 2 ?
Co O3 O1 121.69(11) . 3_455 ?
Co O3 O1 41.87(4) 2 3_455 ?
O2 O3 O1 48.69(6) 3_455 3_455 ?
O2 O3 O1 146.08(6) 4 3_455 ?
O1 O3 O1 80.38(6) 8_455 3_455 ?
O1 O3 O1 87.08(8) 7_556 3_455 ?
O2 O3 O1 60.52(6) 6_566 3_455 ?
O2 O3 O1 127.21(6) 5_565 3_455 ?
O2 O3 O1 99.71(11) . 3_455 ?
O2 O3 O1 54.10(7) 2 3_455 ?
Co O3 O1 41.87(4) . 4 ?
Co O3 O1 121.69(11) 2 4 ?
O2 O3 O1 146.08(6) 3_455 4 ?
O2 O3 O1 48.68(6) 4 4 ?
O1 O3 O1 87.08(8) 8_455 4 ?
O1 O3 O1 80.38(6) 7_556 4 ?
O2 O3 O1 127.21(6) 6_566 4 ?
O2 O3 O1 60.52(6) 5_565 4 ?
O2 O3 O1 54.10(7) . 4 ?
O2 O3 O1 99.71(11) 2 4 ?
O1 O3 O1 153.71(15) 3_455 4 ?
Co O3 H 104(3) . . ?
Co O3 H 108(3) 2 . ?
O2 O3 H 122(4) 3_455 . ?
O2 O3 H 16(3) 4 . ?
O1 O3 H 145(3) 8_455 . ?
O1 O3 H 74(3) 7_556 . ?
O2 O3 H 74(3) 6_566 . ?
O2 O3 H 90(3) 5_565 . ?
O2 O3 H 110(4) . . ?
O2 O3 H 135(3) 2 . ?
O1 O3 H 134(3) 3_455 . ?
O1 O3 H 64(3) 4 . ?
Co O3 H 108(3) . 2 ?
Co O3 H 104(3) 2 2 ?
O2 O3 H 16(3) 3_455 2 ?
O2 O3 H 122(4) 4 2 ?
O1 O3 H 74(3) 8_455 2 ?
O1 O3 H 145(3) 7_556 2 ?
O2 O3 H 90(3) 6_566 2 ?
O2 O3 H 74(3) 5_565 2 ?
O2 O3 H 135(3) . 2 ?
O2 O3 H 110(4) 2 2 ?
O1 O3 H 64(3) 3_455 2 ?
O1 O3 H 134(3) 4 2 ?
H O3 H 110(7) . 2 ?
loop_
_geom_bond_atom_site_label_1
_geom_bond_atom_site_label_2
_geom_bond_distance
_geom_bond_site_symmetry_2
_geom_bond_publ_flag
Co O2 2.052(2) 5_565 ?
Co O2 2.052(2) . ?
Co O1 2.056(2) 8_455 ?
Co O1 2.056(2) 4 ?
Co O3 2.1633(17) 5_565 ?
Co O3 2.1633(17) . ?
Co O2 3.440(2) 8_455 ?
Co O2 3.440(2) 4 ?
Co O2 3.480(2) 6_565 ?
Co O2 3.480(2) 2 ?
S O1 1.472(2) 2 ?
S O1 1.472(2) . ?
S O2 1.484(2) . ?
S O2 1.484(2) 2 ?
O1 O2 2.405(3) . ?
O1 O1 2.411(4) 2 ?
O1 O2 2.422(3) 2 ?
O1 O2 2.788(3) 4_545 ?
O1 O3 2.892(3) 7_556 ?
O1 O2 3.018(3) 8_556 ?
O1 O3 3.074(2) 3_545 ?
O1 O2 3.249(3) 6_556 ?
O1 O2 3.273(3) 7_556 ?
O1 O3 3.339(4) 1_545 ?
O2 O2 2.416(4) 2 ?
O2 O3 2.701(2) 3_545 ?
O2 O3 2.907(2) 5_565 ?
O2 O3 3.055(4) . ?
O3 H 0.78(4) . ?
O3 H 0.78(4) 2 ?
loop_
_geom_hbond_atom_site_label_D
_geom_hbond_atom_site_label_H
_geom_hbond_atom_site_label_A
_geom_hbond_distance_DH
_geom_hbond_distance_HA
_geom_hbond_distance_DA
_geom_hbond_angle_DHA
_geom_hbond_site_symmetry_A
_geom_hbond_publ_flag
O3 H O2 0.78(4) 1.97(4) 2.701(2) 158(5) 4 yes
loop_
_geom_torsion_atom_site_label_1
_geom_torsion_atom_site_label_2
_geom_torsion_atom_site_label_3
_geom_torsion_atom_site_label_4
_geom_torsion
_geom_torsion_site_symmetry_1
_geom_torsion_site_symmetry_2
_geom_torsion_site_symmetry_3
_geom_torsion_site_symmetry_4
_geom_torsion_publ_flag
O1 S O1 Co 115.9(2) 2 . . 4_545 ?
O2 S O1 Co -4.7(2) . . . 4_545 ?
O2 S O1 Co -124.14(19) 2 . . 4_545 ?
O1 S O1 O2 120.66(11) 2 . . . ?
O2 S O1 O2 -119.41(19) 2 . . . ?
O2 S O1 O1 -120.66(11) . . . 2 ?
O2 S O1 O1 119.94(11) 2 . . 2 ?
O1 S O1 O2 -119.94(11) 2 . . 2 ?
O2 S O1 O2 119.41(19) . . . 2 ?
O1 S O1 O2 51.41(12) 2 . . 4_545 ?
O2 S O1 O2 -69.25(17) . . . 4_545 ?
O2 S O1 O2 171.35(17) 2 . . 4_545 ?
O1 S O1 O2 162.21(15) 2 . . 8_556 ?
O2 S O1 O2 41.56(14) . . . 8_556 ?
O2 S O1 O2 -77.85(15) 2 . . 8_556 ?
O1 S O1 O3 107.78(10) 2 . . 3_545 ?
O2 S O1 O3 -12.88(13) . . . 3_545 ?
O2 S O1 O3 -132.29(11) 2 . . 3_545 ?
O1 S O1 O2 -53.09(10) 2 . . 6_556 ?
O2 S O1 O2 -173.75(13) . . . 6_556 ?
O2 S O1 O2 66.85(18) 2 . . 6_556 ?
O1 S O1 O2 -148.67(14) 2 . . 7_556 ?
O2 S O1 O2 90.67(13) . . . 7_556 ?
O2 S O1 O2 -28.73(15) 2 . . 7_556 ?
O1 S O1 O3 0.000(0) 2 . . 1_545 ?
O2 S O1 O3 -120.66(11) . . . 1_545 ?
O2 S O1 O3 119.94(11) 2 . . 1_545 ?
O1 S O2 Co 80.37(19) 2 . . . ?
O1 S O2 Co -159.03(15) . . . . ?
O2 S O2 Co -38.96(12) 2 . . . ?
O1 S O2 O1 -120.60(19) 2 . . . ?
O2 S O2 O1 120.07(11) 2 . . . ?
O1 S O2 O2 119.33(11) 2 . . 2 ?
O1 S O2 O2 -120.07(11) . . . 2 ?
O1 S O2 O1 120.60(19) . . . 2 ?
O2 S O2 O1 -119.33(11) 2 . . 2 ?
O1 S O2 O3 -105.14(13) 2 . . 3_545 ?
O1 S O2 O3 15.46(15) . . . 3_545 ?
O2 S O2 O3 135.53(12) 2 . . 3_545 ?
O1 S O2 O1 159.1(4) 2 . . 4 ?
O1 S O2 O1 -80.3(4) . . . 4 ?
O2 S O2 O1 39.8(4) 2 . . 4 ?
O1 S O2 O3 11.7(2) 2 . . 5_565 ?
O1 S O2 O3 132.33(18) . . . 5_565 ?
O2 S O2 O3 -107.61(19) 2 . . 5_565 ?
O1 S O2 O1 62.81(14) 2 . . 8_455 ?
O1 S O2 O1 -176.59(11) . . . 8_455 ?
O2 S O2 O1 -56.52(6) 2 . . 8_455 ?
O1 S O2 O3 119.33(11) 2 . . . ?
O1 S O2 O3 -120.07(11) . . . . ?
O2 S O2 O3 0.000(0) 2 . . . ?
O1 S O2 O1 -47.88(14) 2 . . 6 ?
O1 S O2 O1 72.72(11) . . . 6 ?
O2 S O2 O1 -167.21(10) 2 . . 6 ?
O1 S O2 O1 170.15(11) 2 . . 7_556 ?
O1 S O2 O1 -69.25(13) . . . 7_556 ?
O2 S O2 O1 50.82(6) 2 . . 7_556 ?
