#------------------------------------------------------------------------------
#$Date: 2022-03-06 06:37:54 +0200 (Sun, 06 Mar 2022) $
#$Revision: 273468 $
#$URL: file:///home/coder/svn-repositories/cod/cif/1/56/59/1565960.cif $
#------------------------------------------------------------------------------
#
# This file is available in the Crystallography Open Database (COD),
# http://www.crystallography.net/
#
# All data on this site have been placed in the public domain by the
# contributors.
#
data_1565960
loop_
_publ_author_name
'Wildner, Manfred'
'Zakharov, Boris A.'
'Bogdanov, Nikita E.'
'Talla, Dominik'
'Boldyreva, Elena V.'
'Miletich, Ronald'
_publ_section_title
;
 Crystallography relevant to Mars and Galilean icy moons: crystal behavior
 of kieserite-type monohydrate sulfates at extraterrestrial conditions
 down to 15 K
;
_journal_issue                   2
_journal_name_full               IUCrJ
_journal_page_first              194
_journal_page_last               203
_journal_paper_doi               10.1107/S2052252521012720
_journal_volume                  9
_journal_year                    2022
_chemical_formula_sum            'H2 Ni O5 S'
_chemical_formula_weight         172.79
_space_group_crystal_system      monoclinic
_space_group_IT_number           15
_space_group_name_Hall           '-C 2yc'
_space_group_name_H-M_alt        'C 1 2/c 1'
_atom_sites_solution_hydrogens   difmap
_audit_creation_method           SHELXL-2017/1
_cell_angle_alpha                90
_cell_angle_beta                 117.579(15)
_cell_angle_gamma                90
_cell_formula_units_Z            4
_cell_length_a                   6.7999(8)
_cell_length_b                   7.6222(6)
_cell_length_c                   7.4405(9)
_cell_measurement_temperature    45(2)
_cell_volume                     341.82(8)
_computing_structure_refinement  'SHELXL-2017/1 (Sheldrick, 2017)'
_diffrn_ambient_temperature      45(2)
_diffrn_measured_fraction_theta_full 0.997
_diffrn_measured_fraction_theta_max 0.892
_diffrn_radiation_type           MoK\a
_diffrn_radiation_wavelength     0.71073
_diffrn_reflns_av_R_equivalents  0.0227
_diffrn_reflns_av_unetI/netI     0.0253
_diffrn_reflns_Laue_measured_fraction_full 0.997
_diffrn_reflns_Laue_measured_fraction_max 0.892
_diffrn_reflns_limit_h_max       9
_diffrn_reflns_limit_h_min       -6
_diffrn_reflns_limit_k_max       10
_diffrn_reflns_limit_k_min       -8
_diffrn_reflns_limit_l_max       8
_diffrn_reflns_limit_l_min       -9
_diffrn_reflns_number            1248
_diffrn_reflns_point_group_measured_fraction_full 0.997
_diffrn_reflns_point_group_measured_fraction_max 0.892
_diffrn_reflns_theta_full        25.242
_diffrn_reflns_theta_max         29.380
_diffrn_reflns_theta_min         4.296
_exptl_absorpt_coefficient_mu    6.162
_exptl_crystal_density_diffrn    3.358
_exptl_crystal_F_000             344
_exptl_crystal_size_max          0.340
_exptl_crystal_size_mid          0.170
_exptl_crystal_size_min          0.120
_refine_diff_density_max         0.555
_refine_diff_density_min         -0.607
_refine_diff_density_rms         0.119
_refine_ls_extinction_coef       0.043(3)
_refine_ls_extinction_expression Fc^*^=kFc[1+0.001xFc^2^\l^3^/sin(2\q)]^-1/4^
_refine_ls_extinction_method     'SHELXL-2017/1 (Sheldrick 2017)'
_refine_ls_goodness_of_fit_ref   1.106
_refine_ls_hydrogen_treatment    refall
_refine_ls_matrix_type           full
_refine_ls_number_parameters     40
_refine_ls_number_reflns         422
_refine_ls_number_restraints     0
_refine_ls_restrained_S_all      1.106
_refine_ls_R_factor_all          0.0212
_refine_ls_R_factor_gt           0.0199
_refine_ls_shift/su_max          0.000
_refine_ls_shift/su_mean         0.000
_refine_ls_structure_factor_coef Fsqd
_refine_ls_weighting_details
'w=1/[\s^2^(Fo^2^)+(0.0290P)^2^+0.0900P] where P=(Fo^2^+2Fc^2^)/3'
_refine_ls_weighting_scheme      calc
_refine_ls_wR_factor_gt          0.0501
_refine_ls_wR_factor_ref         0.0513
_reflns_Friedel_coverage         0.000
_reflns_number_gt                400
_reflns_number_total             422
_reflns_threshold_expression     'I > 2\s(I)'
_cod_data_source_file            lt5044.cif
_cod_data_source_block           NiSO4H2O_He_45K
_cod_depositor_comments
'Adding full bibliography for 1565934--1565967.cif.'
_cod_original_sg_symbol_H-M      'C 2/c'
_cod_database_code               1565960
_shelx_shelxl_version_number     2017/1
_shelx_space_group_comment
;
The symmetry employed for this shelxl refinement is uniquely defined
by the following loop, which should always be used as a source of
symmetry information in preference to the above space-group names.
They are only intended as comments.
;
_shelx_estimated_absorpt_t_min   0.228
_shelx_estimated_absorpt_t_max   0.525
_shelx_res_file
;
TITL kieserite cell setting from literature
    NiSO4_viekies_exp2-He-45K.res
    created by SHELXL-2017/1 at 09:11:25 on 25-Dec-2020
REM meas. CELL 0.71073   6.788982   7.616053   7.4320  90.0000 117.582  90.0000
REM latt corr for Nonius20C  +.0109 +.0061 +.0085         -.003
CELL 0.71073   6.799882   7.622153   7.4405  90.0000 117.579  90.0000
ZERR    4.00   0.000819   0.000600   0.0009   0.0000   0.015   0.0000
LATT  7
SYMM -X, Y, 1/2-Z
SFAC O H S NI
UNIT 20 8 4 4
OMIT -2 2 2
L.S. 6
BOND
CONF
CONN 12 1.8 $O
EQIV $9 -x+1/2, y+1/2, -z+1/2
BOND $H
FMAP 2
PLAN 20
ACTA
HTAB O3 O2_$9
HTAB
TEMP -228
SIZE 0.34 0.17 0.12
WGHT    0.029000    0.090000
EXTI    0.043271
FVAR       7.47329
NI    4    0.000000    0.500000    0.000000    10.50000    0.00107    0.00228 =
         0.00172   -0.00006    0.00086   -0.00009
S     3    0.000000    0.157789    0.250000    10.50000    0.00101    0.00221 =
         0.00227    0.00000    0.00088    0.00000
O1    1    0.172727    0.047921    0.405051    11.00000    0.00196    0.00494 =
         0.00394    0.00152    0.00147    0.00102
O2    1    0.105236    0.271250    0.155407    11.00000    0.00282    0.00430 =
         0.00379    0.00132    0.00184   -0.00005
O3    1    0.000000    0.630844    0.250000    10.50000    0.00138    0.00442 =
         0.00361    0.00000    0.00030    0.00000
H     2    0.108671    0.691063    0.299022    11.00000    0.01218
HKLF 4 1   -1 0 0  0 -1 0  1 0 1




REM  kieserite cell setting from literature
REM R1 =  0.0199 for     400 Fo > 4sig(Fo)  and  0.0212 for all     422 data
REM     40 parameters refined using      0 restraints

END

WGHT      0.0285      0.0928

REM Instructions for potential hydrogen bonds
EQIV $5 x+1/2, y+1/2, z
HTAB O3 S_$5
HTAB O3 O2_$9

REM Highest difference peak  0.555,  deepest hole -0.607,  1-sigma level  0.119
Q1    1   0.1014  0.5006  0.1251  11.00000  0.05    0.55
Q2    1  -0.0607  0.4887  0.0900  11.00000  0.05    0.47
Q3    1   0.0741  0.2507  0.2450  11.00000  0.05    0.45
Q4    1   0.0759  0.1802  0.1769  11.00000  0.05    0.38
Q5    1   0.0025  0.3378  0.0852  11.00000  0.05    0.35
Q6    1   0.0622 -0.0150  0.5564  11.00000  0.05    0.34
Q7    1  -0.0753  0.4001  0.0032  11.00000  0.05    0.33
Q8    1  -0.0209  0.5983  0.3436  11.00000  0.05    0.33
Q9    1  -0.0419  0.2564  0.0979  11.00000  0.05    0.29
Q10   1   0.2379  0.0794  0.5622  11.00000  0.05    0.29
Q11   1   0.0684  0.4192 -0.0113  11.00000  0.05    0.29
Q12   1   0.0106  0.6398  0.0974  11.00000  0.05    0.28
Q13   1   0.0656  0.4199  0.1621  11.00000  0.05    0.28
Q14   1   0.0000  0.8808  0.2500  10.50000  0.05    0.27
Q15   1  -0.1425  0.5102  0.2236  11.00000  0.05    0.27
Q16   1   0.0483  0.0921  0.0213  11.00000  0.05    0.27
Q17   1   0.2730  0.0710  0.4169  11.00000  0.05    0.27
Q18   1   0.1877  0.0530  0.6651  11.00000  0.05    0.27
Q19   1   0.0050  0.2423 -0.0013  11.00000  0.05    0.26
Q20   1   0.1488  0.1559  0.0070  11.00000  0.05    0.26
;
_shelx_res_checksum              39111
_shelx_hkl_file
;
   0   0  -2 16817.0 969.228   3
   0   0   2 16835.6 962.699   3
   0   0   3 102.779 160.873   3
   0   0  -3 13.2571 123.988   3
   0   0  -4 309169. 5966.69   3
   0   0   4 317678. 5927.29   2
   0   0  -5 1925.46 552.563   3
   0   0   5 119.920 172.494   2
   0   0   6 15969.8 1715.80   2
   0   0  -6 17701.0 1850.91   3
   0   0  -7 80.9113 273.469   3
   0   0  -8 298593. 9102.79   3
   0  -2   0 202092. 3683.58   3
   0   2   0 213181. 2257.12   1
   0  -2   0 210056. 2255.69   1
   0   2   1 281949. 4162.06   2
   0  -2   1 276549. 4697.29   3
   0   2   1 287969. 3860.01   1
   0   2   2 764982. 7125.94   2
   0  -2   2 752220. 8738.59   3
   0  -2   3 72880.2 3021.65   3
   0  -2  -3 66510.8 2360.48   2
   0   2  -3 68204.2 2902.32   3
   0   2   3 66922.3 2352.57   2
   0  -2   4 179189. 5269.82   3
   0   2   4 173688. 4311.44   2
   0   2   5 119575. 4054.11   2
   0  -2  -5 124525. 4291.01   3
   0   2  -5 125073. 4915.26   3
   0  -2   5 136263. 4943.44   3
   0   2  -6 72602.0 4030.95   3
   0   2   6 70334.8 3455.82   2
   0  -2  -6 72236.4 3607.18   3
   0  -2  -7 92164.6 4455.92   3
   0   2  -7 93431.1 4993.10   3
   0   2  -8 54424.5 4104.15   3
   0   2   8 51374.1 4771.25   1
   0  -4   0 330923. 3963.76   1
   0  -4   0 340269. 6796.05   3
   0   4   0 344128. 4041.05   1
   0   4   1 292.090 174.563   1
   0  -4  -1-87.6809 172.562   3
   0  -4   1 364.581 151.055   1
   0  -4   1 166.780 170.036   3
   0   4   2 535401. 8290.04   2
   0   4   2 540501. 7508.15   1
   0  -4   2 541230. 7162.71   1
   0   4   3 168426. 4757.16   2
   0   4   3 155495. 4874.32   1
   0  -4   3 176059. 5779.81   3
   0   4  -3 158523. 5552.82   3
   0   4  -4 4495.42 1005.65   3
   0   4   4 6168.33 992.374   2
   0   4   4 5785.33 1102.15   1
   0   4   5 46640.3 3466.23   1
   0   4   5 48774.7 2927.44   2
   0  -4  -5 47759.2 2832.02   2
   0   4  -5 51667.6 3613.66   3
   0  -4  -6 361752. 8679.99   3
   0   4   6 332001. 10224.2   1
   0   4  -6 349891. 10082.0   3
   0   4  -7 6306.60 1486.43   3
   0  -4  -7 7297.37 1344.88   3
   0   4   7 6513.19 1581.21   1
   0   4  -8 18065.0 2648.53   3
   0   6   0 296717. 4647.87   1
   0  -6   0 275156. 7494.90   2
   0  -6   1 29601.7 2537.94   2
   0  -6   1 26946.6 1198.61   1
   0   6   1 26804.1 1526.75   1
   0  -6  -1 23288.8 2171.58   2
   0   6   2 49817.0 2436.95   1
   0   6  -2 53469.9 3739.79   3
   0  -6   2 56947.7 2014.47   1
   0  -6  -2 51257.8 3115.12   2
   0   6   3 59832.8 3094.15   1
   0   6  -3 61820.5 4101.38   3
   0  -6  -3 57216.8 3346.48   2
   0  -6   3 57168.4 2537.67   1
   0  -6   4 415510. 8181.59   1
   0  -6  -4 396086. 8815.39   2
   0   6   4 413829. 9234.00   1
   0   6  -4 424764. 11413.8   3
   0   6   5 831.938 532.515   1
   0  -6  -5 369.351 479.689   2
   0   6  -5-117.929 343.072   3
   0   6   6 8652.86 1740.95   1
   0  -6  -6 8956.29 1484.48   2
   0   6  -6 9561.32 1968.87   3
   0   6  -7 473.007 736.246   3
   0   6   7 279.561 495.711   1
   0  -8   0 144685. 6579.68   2
   0  -8   1 120996. 6078.91   2
   0  -8  -1 118375. 5846.17   2
   0  -8  -2 64439.9 4241.23   2
   0   8   2 72423.9 3018.73   1
   0  -8   2 69762.2 4683.54   2
   0   8   3 14047.3 1518.05   1
   0  -8   3 15132.5 2283.61   2
   0  -8  -3 14518.8 2017.38   2
   0   8   4 127758. 5236.60   1
   0   8  -4 138819. 7511.65   3
   0  -8   4 132569. 6890.94   2
   0  -8  -4 113021. 5579.46   2
   0  -8  -5 11460.0 1796.58   2
   1  -1  -8-402.257 308.514   3
   1   1  -8 726.996 483.478   3
  -1   1   8 37.8038 642.296   1
  -1  -1   8 131.112 499.384   1
  -1   1   7 318925. 10248.5   1
  -1  -1   7 302586. 7390.65   2
   1   1  -7 289834. 7569.67   3
   1  -1  -7 309065. 7050.92   3
   1   1  -6 5565.61 957.600   3
  -1   1   6 5119.02 777.852   2
  -1  -1   6 6134.45 1001.23   3
  -1   1   6 5499.33 1229.99   1
  -1  -1   5 146177. 4269.24   3
  -1   1   5 144721. 5412.02   1
   1  -1  -5 137963. 3630.53   3
  -1   1   5 132939. 3240.36   2
   1  -1  -4 39054.2 1611.83   3
  -1   1   4 38435.1 1438.61   2
  -1  -1   4 41333.0 2003.30   3
  -1   1   4 38236.9 2445.24   1
   1   1  -4 40676.9 1982.51   3
   1  -1  -3 122174. 2238.69   3
  -1   1   3 120892. 3690.05   1
  -1  -1   3 130546. 3077.84   3
  -1   1   3 120941. 1947.04   2
   1   1  -3 132456. 3095.89   3
  -1  -1   2 212708. 3341.93   3
  -1   1   2 216071. 4022.71   1
   1   1  -2 210875. 3355.30   3
  -1  -1   2 216816. 3369.45   1
   1  -1  -1 253371. 2659.55   3
   1   1  -1 268022. 2469.84   1
  -1   1   1 259820. 3578.17   1
  -1  -1   1 262892. 2485.96   1
  -1   1   1 253560. 2698.53   3
   1   1  -1 266414. 3346.07   2
   1  -1   0 147224. 2661.73   3
   1   1   0 146702. 2694.05   2
   1   1   1 685712. 6629.30   2
   1  -1   1 658154. 6943.27   3
   1   1   2 21938.0 1406.94   2
  -1  -1  -2 23731.3 1487.36   2
   1  -1   2 22394.0 1480.87   3
   1   1   3 424468. 7110.06   2
   1  -1   3 428619. 7474.96   3
   1   1   4 8586.53 1138.36   2
  -1  -1  -4 9528.44 1223.89   3
  -1   1  -4 8930.30 1261.88   3
   1  -1   4 10157.2 1302.48   3
  -1  -1  -5 264694. 7164.75   3
   1   1   5 265789. 6993.48   2
   1  -1   5 263965. 7361.19   2
  -1   1  -5 253096. 7333.85   3
  -1  -1  -6 27006.0 2544.91   3
  -1   1  -6 28170.2 2706.84   3
  -1   1  -7 33479.8 3240.62   3
  -1  -1  -7 36264.6 3205.26   3
  -1  -1  -8 42841.2 3767.52   3
  -1   1  -8 41073.4 3871.01   3
   1   3  -8 5805.51 1314.36   3
  -1   3   8 2273.65 1073.82   1
  -1   3   7 49767.1 4108.83   1
   1   3  -7 54823.3 3792.47   3
   1  -3  -7 55051.7 3014.86   3
  -1   3   6 30461.0 1951.33   2
  -1   3   6 29520.2 2838.06   1
   1   3  -6 33973.7 2760.43   3
   1   3  -5 358301. 8243.92   3
  -1   3   5 331053. 5844.68   2
  -1   3   5 324985. 8521.76   1
   1  -3  -5 331336. 5724.05   2
  -1  -3   5 362787. 8162.69   3
   1   3  -4 53254.5 2930.87   3
  -1  -3   4 51454.6 2869.70   3
   1  -3  -4 47251.9 1978.68   2
  -1   3   4 50442.4 2926.34   1
  -1   3   4 47041.6 2011.20   2
  -1   3   3 106268. 3720.12   1
   1  -3  -3 107956. 2835.73   2
  -1   3   2 178143. 4163.76   1
  -1  -3   2 181538. 4649.40   3
   1  -3  -2 176142. 3708.14   2
   1  -3  -2 181412. 4187.21   1
   1  -3  -2 178931. 3947.92   3
   1  -3  -1 329493. 5526.46   3
  -1   3   1 329204. 5666.87   3
   1  -3  -1 326926. 4956.33   1
  -1  -3   1 333970. 5982.65   3
  -1   3   1 336005. 4897.40   1
   1  -3   0 15438.7 1283.28   3
  -1   3   0 16853.7 1138.22   1
   1   3   0 15218.1 683.751   1
   1   3   0 15164.2 1252.87   2
   1  -3   0 15740.6 1062.37   1
   1  -3   1 295893. 6188.04   3
   1  -3   1 286657. 5455.49   1
   1   3   1 284763. 5574.97   2
   1   3   2 11640.2 1177.64   2
   1  -3   2 13007.5 1408.99   3
   1  -3   2 11581.1 1304.85   1
   1   3   3 633942. 9290.19   2
   1  -3   3 652223. 10694.1   3
  -1   3  -4 407.695 345.688   3
   1   3   4 676.351 434.842   2
  -1  -3  -4 142.431 202.129   2
  -1  -3  -5 52973.5 3306.87   3
  -1   3  -5 51944.6 3626.36   3
   1   3   5 56953.1 3342.41   2
  -1  -3  -6 5016.62 1134.57   3
  -1   3  -6 4657.76 1243.67   3
  -1  -3  -7 135585. 6233.10   3
  -1   3  -7 133605. 6818.11   3
  -1   3  -8 6866.74 1600.68   3
   1   5  -8 37336.8 3799.99   3
  -1  -5   8 36368.2 3309.02   1
  -1   5   7 192612. 8416.83   1
   1   5  -7 219075. 8660.43   3
   1   5  -6 7908.62 1599.95   3
  -1   5   6 8286.39 1620.97   1
   1  -5  -6 7620.17 1110.03   2
   1   5  -5 92063.3 4970.41   3
  -1   5   5 82320.4 4473.68   1
   1  -5  -5 86052.2 3557.50   2
  -1   5   4 40657.4 2800.78   1
   1  -5  -4 37966.2 2699.65   3
   1  -5  -4 40313.1 2351.50   2
   1   5  -4 38152.0 3032.57   3
  -1  -5   3 218776. 4052.29   1
  -1  -5   3 215793. 6515.55   2
  -1   5   3 218339. 5747.37   1
   1  -5  -3 226545. 6359.36   3
   1   5  -3 225501. 7090.66   3
  -1   5   2 8289.48 994.800   1
  -1  -5   2 8688.34 1284.66   3
  -1  -5   2 8854.87 1306.31   2
   1  -5  -2 8527.74 1154.39   2
   1  -5  -2 6771.48 978.867   1
   1  -5  -2 10207.9 1302.68   3
  -1   5   1 239322. 4922.57   1
   1  -5  -1 246607. 6441.37   3
   1  -5  -1 238671. 5006.35   1
  -1  -5   1 250655. 6742.38   3
   1  -5  -1 239562. 6150.31   2
   1   5   0 11244.0 590.620   1
  -1  -5   0 10235.0 1403.96   3
   1  -5   0 10956.1 1393.13   3
  -1   5   0 9553.55 1023.67   1
   1  -5   0 9677.18 952.532   1
  -1  -5   0 10995.6 1392.69   2
  -1   5   0 10622.9 1454.13   3
   1   5   1 367730. 5176.31   1
  -1   5  -1 394899. 9143.98   3
  -1  -5  -1 366226. 7945.87   2
   1  -5   1 377910. 6305.29   1
   1   5   1 390669. 8289.59   2
   1   5   2 93949.7 3390.15   1
  -1   5  -2 100067. 4797.49   3
  -1  -5  -2 92056.0 4075.51   2
   1  -5   2 89828.0 3561.06   1
   1   5   2 95749.5 4175.74   2
   1  -5   3 64645.2 3497.08   1
  -1   5  -3 70636.4 4230.04   3
   1   5   3 70295.2 3516.15   1
  -1  -5  -3 62203.9 3396.46   2
   1  -5   4 106464. 5079.09   1
  -1   5  -4 117732. 5824.44   3
   1   5   4 107188. 5008.74   1
  -1  -5  -4 108098. 4744.70   2
   1   5   5 190263. 7459.18   1
  -1  -5  -5 206381. 6986.58   2
  -1  -5  -6 943.456 589.128   3
   1   5   6 455.710 478.349   1
  -1   5  -6 1921.90 959.718   3
  -1  -5  -7 66068.5 4577.44   3
  -1   5  -7 68599.0 5402.68   3
  -1   7   7 62954.3 5008.85   1
  -1   7   6 67786.7 4712.62   1
  -1  -7   6 60474.2 4581.28   2
   1   7  -6 67445.5 5197.72   3
   1   7  -5 73655.0 5196.32   3
  -1  -7   5 64949.8 4580.63   2
   1  -7  -5 60933.7 3584.93   2
  -1   7   5 69406.3 4299.15   1
  -1  -7   4 1902.49 757.851   2
  -1   7   4 1676.60 664.727   1
   1  -7  -4 2211.65 722.996   2
   1  -7  -3 349514. 8606.55   2
  -1   7   3 355952. 7647.06   1
  -1  -7   3 377335. 10217.2   2
  -1  -7   2 1531.37 742.037   2
  -1   7   2 598.790 334.313   1
   1  -7  -2 1415.90 638.137   2
  -1  -7   1 54912.5 3810.71   2
   1  -7  -1 54592.3 3619.01   2
   1  -7  -1 57281.0 2715.34   1
  -1   7   1 60331.3 2873.49   1
   1  -7   0 69718.9 2767.35   1
  -1  -7   0 61281.0 3962.20   2
   1  -7   0 62608.2 3980.67   2
   1  -7   1 189646. 4639.78   1
  -1  -7  -1 186542. 6823.82   2
  -1   7  -1 199391. 7802.26   3
   1   7   1 195497. 3730.22   1
  -1  -7  -2 30780.5 2810.64   2
   1  -7   2 32895.3 2047.27   1
   1   7   2 32115.4 1958.72   1
  -1   7  -2 32326.9 3232.50   3
  -1   7  -3 87948.9 5513.70   3
   1   7   3 81229.4 3694.65   1
  -1  -7  -3 75162.3 4379.63   2
  -1  -7  -4 13053.1 1886.34   2
   1   7   4 13216.9 1758.33   1
  -1   7  -4 13084.7 2284.32   3
  -1  -7  -5 114589. 5772.31   2
   1   7   5 107457. 5685.10   1
  -1   7  -5 115594. 6935.00   3
   1   7   6 24855.9 3060.19   1
   1  -9  -4 95.7883 272.421   2
  -1  -9   3 14801.7 2445.14   2
   1  -9  -3 17085.7 2337.16   2
   1  -9  -2 3314.07 1116.30   2
  -1  -9   2 3422.39 1175.95   2
  -1  -9   1 386424. 11728.9   2
   1  -9  -1 367673. 11228.1   2
   1  -9   0 8397.09 1724.10   2
  -1  -9   0 8174.39 1716.98   2
   1  -9   1 11955.8 2069.98   2
  -1  -9  -1 9874.50 1853.95   2
   1  -9   2-707.073 562.125   2
  -1  -9  -2-829.200 737.834   2
  -1  -9  -3 76622.2 5203.78   2
  -1  -9  -4 135.856 462.281   2
  -2   0   9-795.832 689.258   1
  -2   0   8 38204.7 3743.99   1
   2   0  -7-250.725 247.060   3
  -2   0   7-145.275 172.552   2
  -2   0   7-458.088 478.836   1
  -2   0   6 840903. 13635.8   1
   2   0  -6 843488. 9030.34   3
  -2   0   6 837763. 7945.63   2
   2   0  -5 18.3840 101.503   3
  -2   0   5-115.237 217.256   1
  -2   0   5-9.26396 79.6861   2
   2   0  -4 6114.98 489.895   3
  -2   0   4 5518.59 468.158   3
  -2   0   4 5721.80 885.623   1
  -2   0   4 5925.44 410.633   2
  -2   0   3-47.6505 144.255   1
  -2   0   3 52.5424 52.1598   2
  -2   0   2 848908. 5474.23   2
  -2   0   2 872876. 8169.26   1
   2   0  -1 418.662 170.060   2
  -2   0   1 335.396 206.341   1
  -2   0   1 382.123 174.791   2
   2   0   0 7428.86 782.858   2
   2   0   1 218.650 196.633   2
   2   0   2 448648. 7890.15   2
  -2   0  -3 52.9635 176.904   3
   2   0   3 31.6575 190.046   2
  -2   0  -4 62068.9 3622.85   3
  -2   0  -5-237.613 333.320   3
  -2   0  -6 605192. 13539.4   3
  -2   0  -7 282.256 498.871   3
  -2  -2   9 28905.1 3490.47   1
  -2  -2   8 135405. 6730.19   1
  -2   2   8 139249. 7205.28   1
   2   2  -8 155180. 5804.93   3
  -2  -2   7 88986.1 3940.38   3
  -2   2   7 88162.7 5154.97   1
   2  -2  -7 101124. 3103.31   3
   2   2  -7 99197.7 4277.19   3
  -2  -2   7 87080.5 4822.68   1
  -2  -2   6 153892. 5515.45   1
  -2   2   6 146838. 6050.25   1
  -2  -2   6 156879. 4883.26   3
   2  -2  -6 152398. 3290.59   3
  -2  -2   5 88358.8 3613.01   1
  -2   2   5 98537.2 4382.47   1
   2  -2  -5 94295.7 2145.82   3
  -2  -2   5 98535.2 3586.41   3
   2   2  -4 814818. 9474.16   3
  -2   2   4 777850. 10839.1   1
  -2  -2   4 794046. 8848.57   2
  -2  -2   4 782195. 9507.35   3
  -2  -2   4 805150. 9307.71   1
   2  -2  -4 767869. 5275.25   3
   2  -2  -3 37477.9 1161.02   3
   2  -2  -3 36654.8 1055.47   2
  -2  -2   3 34492.2 1592.61   1
  -2   2   3 35667.4 2124.36   1
  -2  -2   3 35518.9 1820.77   3
  -2  -2   3 37352.8 1816.76   2
   2   2  -2 82462.7 2647.80   2
   2   2  -2 79910.9 1942.83   1
  -2  -2   2 81388.3 2666.14   2
  -2  -2   2 76333.3 1918.37   1
  -2   2   2 80195.7 2799.06   1
   2  -2  -2 80068.9 2063.66   3
  -2   2   2 80668.2 2144.18   3
  -2  -2   2 76928.9 2552.58   3
  -2  -2   1 297667. 4144.80   1
   2   2  -1 287616. 3481.97   1
   2  -2  -1 295511. 4663.88   3
  -2   2   1 294653. 5189.86   1
  -2   2   1 290529. 4882.39   3
   2   2  -1 291477. 5129.54   2
   2   2   0 72967.3 2384.34   1
   2   2   0 69684.9 2604.98   2
   2  -2   0 74230.9 2662.31   3
  -2   2   0 76114.2 2941.07   1
   2  -2   1 343257. 6486.57   3
   2   2   1 343806. 6314.94   2
   2  -2   1 345855. 7136.21   1
   2  -2   2 329847. 7014.39   3
   2   2   2 333662. 6746.35   2
   2  -2   3 64818.8 3458.13   3
  -2  -2  -3 63892.2 3329.09   2
   2   2   3 64563.5 3223.35   2
  -2   2  -3 62156.7 3516.45   3
  -2  -2  -4 430871. 9425.75   3
  -2   2  -4 429432. 10089.2   3
  -2   2  -5 56107.8 4018.42   3
  -2  -2  -5 50814.9 3530.39   3
  -2  -2  -6 52085.1 3929.39   3
  -2   2  -6 55295.7 4350.64   3
  -2   2  -7 57771.7 4790.94   3
  -2  -2  -7 54479.0 4340.64   3
  -2  -4   9 61284.6 4583.52   1
   2   4  -8 286945. 9162.71   3
  -2  -4   8 289782. 9083.73   1
  -2   4   8 274842. 10356.3   1
  -2  -4   7 5566.59 1140.37   1
   2   4  -7 5421.17 1228.53   3
  -2   4   7 3553.04 1082.20   1
  -2  -4   6 88941.4 4210.63   2
  -2   4   6 77478.2 4521.83   1
   2   4  -6 90633.5 4582.87   3
   2  -4  -6 88465.8 3247.32   3
  -2  -4   6 83448.9 3840.55   1
   2   4  -5 1656.53 625.497   3
   2  -4  -5 2738.90 566.720   3
  -2  -4   5 1622.00 573.326   2
  -2  -4   5 2001.84 682.629   3
  -2  -4   5 2693.76 612.679   1
  -2   4   5 1478.01 594.073   1
   2  -4  -5 2263.83 446.138   2
  -2  -4   4 350692. 7641.83   2
  -2  -4   4 344575. 5399.49   1
  -2  -4   4 373285. 8059.21   3
  -2   4   4 355665. 8031.45   1
   2  -4  -4 335540. 5425.66   2
   2  -4  -4 329802. 5963.41   3
   2  -4  -3 104716. 3967.10   1
  -2  -4   3 104159. 2137.92   1
  -2   4   3 103985. 3929.20   1
  -2  -4   3 106799. 4136.09   3
   2  -4  -3 98459.4 3298.50   3
   2  -4  -3 94089.7 3073.25   2
  -2  -4   3 99137.7 3923.10   2
  -2   4   2 67996.9 2913.99   1
   2  -4  -2 71589.0 2907.49   3
   2  -4  -2 70672.8 2982.09   1
  -2  -4   2 67169.0 3180.38   3
  -2  -4   2 66315.9 3213.44   2
  -2   4   1 32190.3 1960.15   1
   2  -4  -1 30600.1 1912.46   1
  -2   4   1 33476.2 2235.06   3
   2  -4  -1 32264.9 2140.06   3
   2   4  -1 33941.0 2251.20   2
  -2   4   0 704545. 10043.5   1
  -2   4   0 717975. 11108.2   3
   2  -4   0 717638. 9630.14   1
   2  -4   0 718705. 10643.5   3
   2   4   1 34260.3 2356.32   2
   2  -4   1 27374.5 2082.31   1
  -2  -4  -1 27500.5 2141.05   2
  -2   4  -1 30020.8 2390.81   3
   2  -4   1 33968.9 2485.64   3
   2  -4   2 8341.73 1323.88   1
  -2   4  -2 7657.08 1311.40   3
  -2  -4  -2 9549.48 1330.91   2
   2   4   2 7736.56 1175.47   2
  -2   4  -3 110380. 5227.46   3
   2  -4   3 111837. 5247.70   1
  -2  -4  -3 108570. 4697.18   2
  -2  -4  -4 337403. 8927.26   2
  -2   4  -4 347985. 9985.23   3
  -2  -4  -5 16414.5 2149.03   3
  -2   4  -5 17770.7 2425.99   3
  -2  -4  -6 69570.6 4675.42   3
  -2   4  -6 66467.5 5027.66   3
  -2  -4  -7-267.302 338.672   3
  -2  -6   8 4268.52 1189.80   2
  -2   6   7 731.910 603.233   1
  -2  -6   7 2021.95 830.609   2
  -2   6   6 209919. 8023.82   1
  -2  -6   6 194947. 7378.84   2
  -2  -6   5 26436.4 1510.54   1
   2  -6  -5 24456.7 1910.91   2
  -2   6   5 22131.4 2386.43   1
  -2  -6   5 22309.0 2392.79   2
   2  -6  -4 73113.8 3713.19   3
  -2  -6   4 72437.6 1378.49   1
  -2   6   4 74140.3 3942.77   1
   2  -6  -4 67890.8 3224.52   2
  -2  -6   4 66764.5 1225.60   1
  -2  -6   4 69418.2 4110.51   2
   2  -6  -3 139643. 5075.92   1
   2  -6  -3 125640. 4702.27   2
   2  -6  -3 137605. 5082.60   3
  -2   6   3 126145. 4683.14   1
  -2  -6   3 131593. 5627.31   2
  -2   6   2 404685. 7949.28   1
   2  -6  -2 414785. 8171.74   1
   2  -6  -2 379872. 8557.33   2
  -2  -6   2 411962. 9702.54   2
   2  -6  -2 393369. 8753.98   3
   2  -6  -1 2915.14 680.777   1
  -2   6   1 2508.64 861.089   3
  -2  -6   1 3209.71 873.020   2
  -2   6   1 3212.55 735.651   1
  -2   6   0 26626.9 2197.01   1
  -2   6   0 29674.9 2756.11   3
  -2  -6   0 22225.9 2258.78   2
   2  -6   0 28034.4 2050.52   1
  -2   6  -1 4749.05 1176.24   3
   2  -6   1 5801.13 985.549   1
  -2  -6  -1 4816.72 1098.59   2
   2   6   1 3696.09 587.308   1
   2   6   2 441527. 7991.57   1
   2  -6   2 423013. 9264.18   1
  -2  -6  -2 411305. 9944.04   2
  -2   6  -2 434403. 11333.5   3
  -2   6  -3 38533.3 3571.22   3
   2   6   3 34907.8 2742.02   1
  -2  -6  -3 33838.0 2988.83   2
   2   6   4 18400.0 2239.76   1
  -2  -6  -4 19474.3 2375.50   2
  -2   6  -4 22228.0 2882.57   3
   2   6   5 23935.1 2886.77   1
  -2  -6  -5 23381.7 2762.11   2
  -2   6  -5 27383.9 3411.36   3
   2   6   6 109710. 6675.80   1
  -2  -6  -6 124031. 6672.54   3
  -2   8   6 69486.3 4784.03   1
  -2   8   5 82850.1 4755.06   1
  -2  -8   5 92424.1 5712.03   2
  -2   8   4 40085.5 3062.94   1
   2  -8  -4 38670.7 3056.03   2
  -2  -8   4 42678.4 3841.25   2
  -2   8   3 38343.9 2849.85   1
  -2  -8   3 42409.9 3749.92   2
   2  -8  -3 38711.9 3190.41   2
  -2   8   2 214055. 6508.69   1
  -2  -8   2 201590. 7984.33   2
  -2   8   1 45540.8 3047.16   1
   2  -8  -1 40780.1 3437.79   2
  -2  -8   1 41868.2 3609.47   2
   2  -8   0 176347. 7334.33   2
  -2  -8   0 192771. 7771.13   2
  -2  -8  -1 27228.8 2989.10   2
  -2   8  -1 27924.3 3267.59   3
  -2  -8  -2 109067. 5983.34   2
  -2   8  -2 111207. 6605.75   3
  -2   8  -3 7705.32 1870.88   3
  -2  -8  -3 7427.21 1636.43   2
  -2  -8  -4 31064.7 3358.77   2
   2 -10  -3 12556.5 2146.35   2
   2 -10  -2 26787.6 3262.53   2
  -3  -1   9 87902.5 5734.75   1
  -3   1   9 85445.3 5892.67   1
  -3  -1   8 31695.5 3133.36   1
  -3   1   8 30814.8 3213.59   1
  -3  -1   7 75331.1 2802.19   3
  -3  -1   7 66418.9 4030.71   1
  -3   1   7 68844.5 4304.46   1
  -3  -1   7 78927.3 2513.95   2
  -3  -1   6 115851. 3144.31   3
  -3  -1   6 113553. 4645.42   1
  -3   1   6 116299. 4998.22   1
  -3  -1   6 125390. 3006.89   2
  -3  -1   5 366889. 7476.24   1
  -3   1   5 373476. 8162.00   1
  -3  -1   5 383724. 5050.06   2
  -3  -1   5 376559. 5208.62   3
  -3  -1   4 25938.4 1358.04   2
  -3  -1   4 24544.3 1750.24   1
  -3   1   4 24181.8 1943.76   1
  -3  -1   4 27205.3 1352.78   3
   3   1  -3 536234. 7147.12   1
   3  -1  -3 533961. 4712.33   2
  -3  -1   3 541360. 6423.98   2
   3   1  -3 533910. 6362.93   2
  -3   1   3 554792. 8341.31   1
  -3  -1   3 552898. 7431.02   1
  -3   1   3 528705. 4146.52   3
  -3   1   2 27115.0 1776.93   1
   3  -1  -2 27487.4 1438.20   2
  -3  -1   2 30869.5 1672.88   2
   3   1  -2 29173.7 1553.45   2
   3   1  -2 28324.6 1573.14   1
  -3   1   2 28445.1 1392.75   3
  -3  -1   1 535001. 7877.58   1
   3  -1  -1 545444. 7241.54   2
   3   1  -1 541534. 7218.76   1
  -3  -1   1 549898. 7641.07   2
   3   1  -1 537783. 7295.84   2
  -3   1   1 525633. 8231.86   1
  -3   1   1 528363. 7161.54   3
  -3   1   0 334.265 286.368   3
   3  -1   0 422.373 219.813   3
   3  -1   0 359.688 278.993   2
   3   1   0 137.190 211.409   2
   3  -1   1 85118.7 3586.30   2
   3   1   1 82780.9 3506.87   2
  -3  -1  -2 27181.4 2195.04   3
   3  -1   2 26439.7 2204.14   2
   3  -1   2 25232.1 2365.60   1
   3   1   2 24449.4 2095.46   2
  -3   1  -2 25464.0 2202.91   3
  -3  -1  -3 135756. 5388.45   3
  -3   1  -3 132694. 5492.44   3
  -3  -1  -4 50321.6 3572.92   3
  -3   1  -4 52689.9 3780.51   3
  -3   1  -5 103530. 5874.68   3
  -3  -1  -5 104522. 5653.39   3
  -3   1  -6 31926.6 3473.57   3
  -3  -1  -6 29100.9 3234.98   3
  -3  -3   9 15237.0 2273.58   1
  -3  -3   8 8860.97 1294.93   2
  -3  -3   8 7661.20 1432.47   1
  -3   3   8 7182.43 1604.44   1
  -3  -3   7 178819. 6149.09   1
  -3   3   7 181893. 7442.99   1
  -3  -3   7 185477. 5616.30   2
  -3  -3   7 182994. 5775.15   3
  -3  -3   6 1543.62 531.976   2
  -3  -3   6 1662.08 568.494   3
  -3   3   6 699.767 492.119   1
  -3  -3   6 1621.65 517.185   1
  -3  -3   5 146688. 4338.17   1
  -3   3   5 143362. 5530.80   1
  -3  -3   5 147017. 4577.98   2
  -3  -3   5 158247. 4847.58   3
   3  -3  -5 149262. 1887.93   3
  -3   3   4 19921.3 1891.33   1
   3  -3  -4 20183.9 1882.64   1
  -3  -3   4 18261.7 1575.21   2
  -3  -3   4 21266.6 1437.72   1
  -3  -3   4 19352.4 1627.89   3
   3  -3  -4 18899.9 961.554   2
   3  -3  -4 20152.2 1029.35   3
   3   3  -3 647423. 6726.39   1
  -3  -3   3 656846. 6941.46   1
   3  -3  -3 678973. 10046.1   1
  -3  -3   3 655376. 9346.31   2
  -3  -3   3 672256. 9137.23   3
  -3   3   3 662254. 10050.1   1
   3  -3  -3 612913. 6938.65   3
  -3   3   3 617851. 7186.62   3
  -3  -3   2 1053.93 413.439   2
   3   3  -2 1323.47 277.827   1
   3   3  -2 496.196 288.679   2
  -3   3   2 988.890 370.788   3
   3  -3  -2 750.787 345.183   1
   3  -3  -2 1295.97 363.643   3
  -3   3   2 1022.18 424.267   1
  -3  -3   2 868.953 278.784   1
   3  -3  -1 107176. 3655.06   3
   3   3  -1 101348. 2744.41   1
  -3   3   1 106295. 4026.17   1
  -3   3   1 109439. 3879.15   3
   3   3  -1 105804. 3836.31   2
   3  -3  -1 107241. 3928.84   1
   3   3   0 101411. 3861.74   2
  -3   3   0 91966.8 4052.54   1
   3  -3   0 100642. 4106.54   1
  -3   3   0 100120. 4160.93   3
   3   3   0 94040.8 3268.03   1
   3  -3   0 109010. 4050.72   3
   3  -3   1 343146. 7694.41   3
  -3  -3  -1 344657. 7933.17   2
   3   3   1 337195. 7569.59   2
   3  -3   1 331699. 8245.27   1
  -3   3  -1 333646. 8201.06   3
  -3   3  -2 1944.05 732.042   3
  -3  -3  -2 3118.72 855.375   2
  -3  -3  -3 54784.1 3564.25   2
  -3   3  -3 52878.7 3796.11   3
  -3  -3  -4 40612.6 3323.32   3
  -3   3  -4 42359.2 3717.70   3
  -3   3  -5 208095. 8813.64   3
  -3  -3  -5 202117. 7957.60   3
  -3   3  -6 341.802 644.604   3
  -3  -3  -6 1121.62 670.693   3
  -3   5   8 11410.0 2146.78   1
  -3  -5   8 13597.6 1936.44   2
  -3  -5   7 94973.9 4071.90   1
  -3   5   7 88625.6 5548.54   1
  -3  -5   7 90735.4 4718.60   2
  -3  -5   6 5062.22 1108.77   2
  -3   5   6 3610.79 1051.84   1
  -3  -5   6 5155.72 841.688   1
  -3   5   5 193933. 6960.06   1
   3  -5  -5 201597. 4422.13   2
  -3  -5   5 202862. 4278.56   1
  -3  -5   5 198646. 6613.17   2
   3  -5  -5 201597. 4784.62   3
  -3  -5   4 39785.9 1365.47   1
  -3  -5   4 41841.4 2934.04   2
   3  -5  -4 40239.2 2331.91   3
  -3   5   4 36542.3 2754.83   1
  -3   5   3 93354.5 4166.91   1
   3  -5  -3 103238. 4429.53   1
   3  -5  -3 105248. 3997.76   3
  -3  -5   3 94860.8 4373.55   2
  -3   5   2 133539. 4863.31   1
   3  -5  -2 152469. 5192.48   1
  -3  -5   2 145036. 5443.79   2
  -3   5   2 148778. 5247.57   3
   3  -5  -2 152417. 5055.97   3
  -3  -5   1 421954. 9541.78   2
   3   5  -1 423855. 3381.15   1
  -3   5   1 423460. 9507.26   3
  -3   5   1 418579. 8921.88   1
   3  -5  -1 424004. 8833.68   1
   3   5   0 11435.4 1036.06   1
  -3   5   0 11604.7 1579.66   1
  -3  -5   0 9831.96 1493.03   2
  -3   5   0 11102.8 1636.03   3
   3  -5   0 10524.8 1463.39   1
  -3  -5  -1 86183.8 4493.12   2
  -3   5  -1 87205.6 4765.42   3
  -3  -5  -2 17908.4 2151.50   2
  -3   5  -2 14890.7 2083.85   3
  -3   5  -3 152878. 7087.88   3
  -3  -5  -3 143885. 6288.94   2
  -3  -5  -4 20229.0 2552.34   2
  -3   5  -4 23422.4 3006.09   3
  -3  -5  -5 96320.5 5828.52   3
  -3   5  -5 95614.4 6363.06   3
  -3   7   7 22160.3 2996.91   1
  -3  -7   7 25175.6 2946.76   2
  -3  -7   6 27193.7 2966.55   2
  -3   7   6 23693.5 2795.55   1
  -3  -7   5 211855. 8022.78   2
   3  -7  -5 207786. 5959.07   2
  -3  -7   4 9832.85 1706.93   2
  -3   7   4 8187.31 1437.27   1
   3  -7  -4 9564.26 1383.32   2
  -3   7   3 53923.0 3497.39   1
  -3  -7   3 58011.0 4051.93   2
   3  -7  -3 54662.4 3499.42   2
  -3   7   2 20817.5 2183.09   1
  -3  -7   2 26349.1 2743.08   2
   3  -7  -2 18714.4 2143.31   2
  -3  -7   1 135075. 6297.08   2
  -3   7   1 126749. 6267.90   3
  -3   7   1 129316. 5591.01   1
  -3  -7   0 95930.4 5399.65   2
  -3   7   0 95774.9 5662.21   3
  -3  -7  -1 104325. 5606.50   2
  -3   7  -1 111047. 6274.36   3
  -3   7  -2 13329.4 2314.55   3
  -3  -7  -2 12632.4 2042.06   2
  -3  -7  -3 256987. 9409.87   2
  -3   7  -3 258862. 10411.4   3
  -3  -7  -4 228.264 452.429   2
   3  -9  -3 107941. 5915.19   2
  -3  -9   2-306.503 569.062   2
   3  -9  -2 95.0603 454.639   2
  -3  -9   1 48165.4 4371.99   2
   3  -9  -1 37267.8 3598.29   2
  -4   0   9-1117.99 723.997   1
  -4   0   8 416551. 11108.2   1
  -4   0   7 104.675 386.016   1
  -4   0   6 1705.57 685.326   1
  -4   0   5 37.5735 227.404   1
   4   0  -5 242.269 262.261   1
  -4   0   4 351865. 4357.87   3
   4   0  -4 348262. 4705.64   2
  -4   0   4 346178. 7323.58   1
   4   0  -3 180.149 138.690   2
   4   0  -3-35.9418 125.592   1
  -4   0   3 195.194 150.387   3
  -4   0   3 473.816 320.215   1
  -4   0   2 279278. 5523.45   3
   4   0  -2 289302. 5673.41   2
  -4   0   2 277853. 6505.30   1
   4   0  -1 127.738 189.747   2
   4   0  -1 366.411 332.791   1
  -4   0   1-57.3253 194.313   3
  -4   0   1 343.879 304.388   1
  -4   0   0 968248. 12563.4   3
   4   0   0 993562. 12924.5   2
   4   0   0 999999. 13450.5   1
  -4   0  -1 163.370 267.703   3
   4   0   1 237.465 262.798   1
  -4   0  -2 1702.46 638.530   3
  -4   0  -3-179.675 365.931   3
  -4   0  -4 303785. 9776.53   3
  -4   0  -5-19.6809 453.205   3
  -4   2   9 16412.9 2575.84   1
  -4  -2   9 16043.1 2254.95   1
  -4  -2   8 18465.4 2232.74   1
  -4   2   8 16785.6 2397.72   1
  -4  -2   7 66775.2 3833.56   1
  -4   2   7 70637.2 4478.92   1
  -4  -2   7 73287.0 2876.72   2
  -4  -2   6 166895. 4391.63   2
  -4  -2   6 151284. 5298.42   1
  -4   2   6 166709. 6315.26   1
  -4  -2   6 169612. 4471.45   3
  -4  -2   5 140652. 4133.37   2
  -4  -2   5 138216. 3971.35   3
  -4  -2   5 142197. 4668.13   1
  -4   2   5 139668. 5451.99   1
   4  -2  -4 240784. 3718.40   2
   4  -2  -4 251511. 6681.13   1
  -4  -2   4 247072. 5578.47   2
  -4  -2   4 235200. 5063.86   3
  -4   2   4 250289. 3042.92   3
   4   2  -4 254098. 5372.69   2
  -4   2   4 245154. 6682.34   1
  -4  -2   4 242842. 5623.37   1
  -4   2   3 75351.8 3603.69   1
   4  -2  -3 68505.2 2539.00   2
  -4  -2   3 68617.5 2910.52   1
  -4  -2   3 77638.0 3249.69   2
   4   2  -3 66911.4 2698.39   1
   4   2  -3 70522.7 3008.15   2
  -4   2   3 73983.9 2724.48   3
   4  -2  -2 331821. 5952.77   3
  -4  -2   2 330574. 7113.24   2
  -4   2   2 340480. 7665.95   1
   4   2  -2 340107. 6786.41   2
  -4   2   2 316917. 6366.15   3
   4   2  -2 332684. 6005.39   1
  -4  -2   2 326811. 6799.07   1
   4  -2  -1 137435. 4286.75   3
  -4  -2   1 138098. 4805.88   2
   4   2  -1 146124. 4767.20   2
  -4   2   1 133949. 5116.20   1
  -4   2   1 139323. 4700.52   3
   4  -2   0 232989. 6193.93   3
  -4  -2   0 219611. 6451.20   2
   4  -2   0 233503. 6921.07   1
   4   2   0 241930. 6500.75   2
   4   2   0 220297. 6045.41   1
  -4   2   0 238973. 6743.11   3
   4   2   1 120852. 4997.18   1
  -4  -2  -1 123226. 5119.35   2
  -4   2  -1 118495. 5138.35   3
  -4  -2  -2 398914. 9732.19   3
  -4   2  -2 404824. 10348.1   3
  -4  -2  -3 26904.9 2716.75   3
  -4   2  -3 27663.8 2893.57   3
  -4  -2  -4 16683.8 2317.92   3
  -4   2  -4 15606.6 2353.05   3
  -4  -2  -5 40480.5 3852.01   3
  -4   2  -5 43350.4 4188.25   3
  -4  -4   8 50271.4 3405.15   1
  -4   4   8 50264.1 4381.81   1
  -4  -4   7 3234.53 837.692   2
  -4  -4   7 4414.18 954.800   1
  -4   4   7 2965.27 1025.39   1
  -4  -4   6 284114. 7360.25   2
  -4   4   6 265022. 8682.39   1
  -4  -4   6 277104. 7366.88   3
  -4  -4   6 280600. 6509.85   1
  -4  -4   5 13403.3 1592.78   2
  -4  -4   5 16993.3 1790.89   3
   4  -4  -5 15010.8 934.173   2
  -4   4   5 13876.7 1825.32   1
  -4  -4   5 14601.2 1330.75   1
   4  -4  -5 14696.6 909.340   3
  -4  -4   4 5794.43 1053.59   2
  -4  -4   4 6422.52 1067.95   3
  -4  -4   4 5163.91 749.443   1
  -4   4   4 3560.18 937.445   1
   4  -4  -4 5196.05 718.836   3
  -4  -4   3 164599. 4005.14   1
  -4   4   3 175806. 5984.73   1
   4   4  -3 166684. 3451.59   1
  -4  -4   3 173949. 5878.12   2
  -4   4   3 174481. 5033.65   3
   4   4  -3 173815. 5626.99   2
   4  -4  -3 158253. 4498.94   3
  -4  -4   2 671638. 11681.4   2
  -4   4   2 667629. 11774.5   1
   4   4  -2 677452. 7243.60   1
  -4   4   2 653556. 10897.9   3
   4  -4  -2 663782. 10095.4   3
   4  -4  -1 33427.2 2455.49   3
   4   4  -1 29522.4 1752.92   1
  -4  -4   1 32047.9 2639.55   2
  -4   4   1 30386.6 2506.73   3
  -4   4   1 29508.3 2582.92   1
  -4  -4   0 90932.9 4622.05   2
  -4   4   0 97357.9 4855.39   3
  -4   4  -1 212.704 435.608   3
  -4  -4  -1 422.637 435.934   2
   4   4   1-331.650 346.277   1
  -4  -4  -2 225427. 7959.33   2
  -4   4  -2 235691. 8658.14   3
  -4  -4  -3 31898.7 3161.89   2
  -4   4  -3 38466.8 3732.85   3
  -4  -4  -4 26872.1 3094.87   3
  -4   4  -4 25873.9 3299.35   3
  -4  -6   7 10778.8 1770.05   2
  -4   6   7 9184.70 1949.68   1
  -4  -6   6 30045.5 2858.17   2
  -4   6   6 28335.9 3029.56   1
  -4  -6   5 58.2621 334.023   2
   4  -6  -5 514.390 294.085   2
  -4   6   5 739.274 646.869   1
  -4   6   4 394065. 9987.78   1
  -4  -6   4 406699. 10306.5   2
   4  -6  -4 386479. 8159.91   2
   4  -6  -4 398516. 8340.22   3
  -4   6   3 30296.5 2716.88   1
  -4  -6   3 24636.7 2570.18   2
  -4   6   3 25564.2 2397.66   3
   4  -6  -3 29756.9 2472.74   3
  -4  -6   2 9471.46 1637.34   2
  -4   6   2 10194.5 1671.55   3
  -4   6   2 9133.40 1537.87   1
  -4  -6   1 8627.98 1588.67   2
  -4   6   1 8388.04 1583.86   1
  -4   6   1 11468.4 1846.54   3
  -4  -6   0 264469. 8820.99   2
  -4   6   0 258332. 9124.26   3
  -4   6  -1 7869.58 1688.12   3
  -4  -6  -1 6979.37 1539.85   2
  -4  -6  -2 49406.1 4084.87   2
  -4   6  -2 45367.8 4199.46   3
  -4  -6  -3 69294.9 5050.52   2
  -4   6  -3 60743.7 5080.96   3
  -4   8   6 90589.7 5710.27   1
  -4   8   5 26877.6 3002.61   1
  -4  -8   5 30733.4 3295.80   2
  -4   8   4 96837.1 5433.90   1
  -4  -8   4 107847. 6182.66   2
   4  -8  -4 101076. 5147.39   2
  -4  -8   3 1339.42 766.476   2
   4  -8  -3 874.038 614.746   2
  -4   8   3 744.334 511.017   1
  -4  -8   2 74665.4 5260.42   2
  -4   8   2 63978.3 4459.27   1
  -4  -8   1 29263.2 3300.16   2
  -4   8   1 31283.8 3551.43   3
  -4  -8   0 89167.1 5835.26   2
  -4   8   0 94249.9 6329.10   3
  -4   8  -1 95314.8 6599.65   3
  -5  -1   9 128608. 6542.90   1
  -5   1   9 124444. 6847.00   1
  -5  -1   8 13831.2 1990.64   1
  -5   1   8 12416.2 2035.61   1
  -5  -1   7 258641. 3658.62   2
  -5  -1   7 255993. 7949.70   1
  -5   1   7 247367. 8293.02   1
  -5  -1   6 1916.08 366.764   3
  -5   1   6 2126.86 681.521   1
  -5  -1   6 2281.94 723.663   1
  -5  -1   6 1404.70 380.818   2
  -5  -1   5 58613.1 3339.92   1
   5   1  -5 72175.9 3593.94   1
  -5  -1   5 65545.9 2813.46   2
  -5  -1   5 64396.3 2358.62   3
   5  -1  -5 64151.7 1890.12   2
   5   1  -5 63833.5 2562.54   2
  -5   1   5 63732.9 3748.59   1
   5  -1  -4 414.446 210.693   2
  -5  -1   4 428.155 357.218   1
   5   1  -4 179.060 155.360   2
  -5   1   4 429.788 207.684   3
   5   1  -4 223.138 282.595   1
  -5  -1   4-84.5446 189.089   2
  -5  -1   3 150989. 4958.99   2
   5  -1  -3 151113. 4448.56   2
  -5   1   3 151952. 5576.42   1
   5   1  -3 162405. 4781.24   2
  -5  -1   3 146731. 5212.28   1
   5   1  -3 154458. 5005.94   1
   5  -1  -3 147641. 5287.05   1
  -5   1   3 153741. 4491.35   3
   5   1  -2 25730.3 2082.88   1
  -5  -1   2 24791.9 2268.48   1
  -5  -1   2 27305.1 2218.75   2
   5  -1  -2 24993.3 1986.35   2
   5   1  -2 25154.3 2035.03   2
  -5   1   2 23366.5 2279.64   1
   5  -1  -2 22970.5 2112.27   1
  -5   1   2 25767.9 2060.35   3
  -5  -1   1 152376. 5423.69   3
   5   1  -1 154126. 5405.33   1
   5  -1  -1 166649. 5529.49   2
  -5   1   1 158624. 6281.94   1
  -5   1   1 157847. 5498.31   3
  -5  -1   0 111692. 4906.59   3
  -5   1   0 107285. 4892.03   3
  -5  -1  -1 315542. 8829.49   3
  -5   1  -1 320650. 9116.02   3
  -5  -1  -2 31790.0 3046.32   3
  -5   1  -2 29553.9 2949.25   3
  -5  -1  -3 116525. 6159.40   3
  -5   1  -3 115050. 6230.96   3
  -5   1  -4-315.166 484.092   3
  -5  -1  -4-108.947 382.602   3
  -5  -3   9 220830. 8060.05   1
  -5  -3   8 2763.89 833.488   1
  -5   3   8 1376.63 843.619   1
  -5  -3   7 51511.0 2932.03   2
  -5   3   7 55406.3 4173.42   1
  -5  -3   7 46913.4 3152.73   1
  -5  -3   6 38500.6 2577.95   2
  -5  -3   6 40272.8 2547.39   3
  -5   3   6 36567.4 3187.60   1
  -5  -3   6 37742.0 2630.70   1
  -5   3   5 303997. 8757.08   1
  -5  -3   5 323965. 7244.64   1
   5   3  -5 306008. 6803.57   1
   5  -3  -5 318883. 4546.22   2
  -5  -3   5 311902. 7450.02   2
  -5  -3   5 306254. 6925.99   3
   5   3  -4 2960.04 773.302   2
  -5   3   4 4777.90 721.548   3
  -5  -3   4 3983.88 831.092   1
   5   3  -4 2103.91 550.770   1
  -5   3   4 2961.36 895.647   1
   5  -3  -4 2531.77 540.727   2
  -5  -3   4 3799.76 872.187   2
  -5  -3   3 28901.4 2216.49   1
   5  -3  -3 29857.3 1955.39   3
   5  -3  -3 25998.1 1970.05   2
  -5  -3   3 27223.1 2364.02   2
  -5   3   3 28796.9 2605.18   1
  -5   3   3 29000.9 2158.73   3
   5  -3  -2 26925.7 2074.25   3
  -5  -3   2 34704.9 2786.15   2
  -5   3   2 29272.3 2699.08   1
  -5   3   2 32609.0 2577.25   3
   5   3  -2 28367.1 1999.72   1
  -5   3   1 293895. 8879.92   1
   5   3  -1 294836. 6949.17   1
  -5  -3   1 280410. 8161.37   2
  -5   3   1 300818. 8378.55   3
  -5   3   0 1427.53 653.058   3
   5   3   0 1948.71 632.122   1
  -5  -3   0 2044.19 793.274   2
  -5  -3  -1 125297. 5980.54   2
  -5   3  -1 126851. 6209.56   3
  -5   3  -2 428.715 518.206   3
  -5  -3  -2 42.4265 280.136   3
  -5  -3  -3 274784. 9766.52   3
  -5   3  -3 265208. 10170.4   3
  -5  -5   7 195984. 7057.09   2
  -5   5   7 200121. 8474.72   1
  -5   5   6 13240.2 2044.00   1
  -5  -5   6 11187.4 1710.80   2
  -5   5   5 42401.9 3524.28   1
  -5  -5   5 37598.3 3127.44   2
  -5  -5   5 37271.8 2067.32   1
   5  -5  -4 64674.6 3053.52   3
  -5   5   4 60825.0 4129.43   1
  -5  -5   4 64208.9 4066.97   2
  -5   5   4 63003.8 3263.66   3
   5  -5  -3 232165. 6461.45   3
  -5  -5   3 235616. 7876.64   2
  -5   5   3 217262. 7798.20   1
  -5   5   3 230900. 7101.77   3
  -5  -5   2 43996.4 3508.55   2
   5   5  -2 47677.9 2190.63   1
  -5   5   2 45816.4 3487.39   3
  -5   5   2 45196.4 3588.34   1
  -5   5   1 135913. 6492.66   1
  -5  -5   1 135547. 6365.60   2
  -5   5   1 128481. 6107.12   3
  -5   5   0 2589.83 924.889   3
  -5  -5   0 2409.86 881.827   2
  -5  -5  -1 134511. 6737.94   2
  -5   5  -1 133946. 6966.72   3
  -5   5  -2 5357.17 1519.73   3
  -5  -5  -2 6194.35 1548.93   2
  -5  -7   7 102634. 5947.17   2
  -5   7   6 75296.0 5287.64   1
  -5  -7   6 75239.9 5030.72   2
  -5   7   5 111882. 6238.65   1
  -5  -7   5 103180. 5901.23   2
  -5   7   4 20421.9 2613.52   1
  -5  -7   4 27230.0 3057.01   2
   5  -7  -4 22865.9 2344.24   2
  -5  -7   3 210038. 8473.06   2
  -5   7   3 197003. 7654.96   3
  -5   7   3 206157. 8266.65   1
  -5   7   2 1121.30 749.829   1
  -5   7   2 1688.95 960.024   3
  -5  -7   2 2037.58 944.097   2
  -5  -7   1 23625.0 2944.82   2
  -5   7   1 27087.1 3241.84   3
  -5  -7   0 23491.5 3060.72   2
  -5   7   0 25009.7 3287.98   3
  -5   7  -1 186059. 9226.18   3
  -6   0   9-189.809 406.467   1
  -6   0   8 63529.1 4442.38   1
  -6   0   7 310.615 518.058   1
  -6   0   6 443710. 10752.4   1
   6   0  -5 203.805 330.713   2
  -6   0   5-103.971 170.609   3
  -6   0   5-358.459 426.568   1
  -6   0   4 8800.72 1165.53   3
  -6   0   4 10140.1 1642.55   1
   6   0  -4 8535.51 1149.51   2
  -6   0   3 163.455 286.647   3
  -6   0   3-592.921 543.126   1
  -6   0   2 489563. 10122.4   3
  -6   0   2 468371. 11530.0   1
  -6   0   1-65.0339 277.756   3
  -6   0   0 839.529 488.487   3
  -6   0  -1-146.548 265.080   3
  -6   0  -2 267305. 9795.08   3
  -6   0  -3 2254.60 1014.72   3
  -6  -2   9 26621.9 2856.53   1
  -6   2   8 127352. 6631.94   1
  -6  -2   8 111553. 5520.99   1
  -6   2   7 86378.8 5212.94   1
  -6  -2   7 83479.2 4561.90   1
  -6   2   6 212073. 7915.72   1
  -6  -2   6 217251. 7068.48   1
  -6  -2   6 231353. 6291.95   2
  -6   2   5 100694. 5286.89   1
  -6  -2   5 106169. 4535.31   2
  -6  -2   5 99919.4 4674.47   1
   6  -2  -5 104394. 3299.17   2
  -6   2   5 100733. 2733.60   3
   6   2  -5 105153. 4156.36   2
  -6  -2   4 312709. 8192.59   2
   6  -2  -4 287597. 6633.68   2
  -6   2   4 299802. 9044.57   1
  -6  -2   4 314683. 8450.08   1
  -6   2   4 317314. 6894.96   3
  -6  -2   3 27735.1 2606.80   1
  -6  -2   3 25568.9 2456.65   2
   6  -2  -3 25876.5 2164.70   2
  -6   2   3 22141.9 2540.85   1
  -6   2   3 27642.7 2337.52   3
  -6   2   2 8740.50 1691.96   1
  -6  -2   2 8191.75 1485.31   2
  -6   2   2 9857.07 1568.56   3
  -6  -2   1 50816.5 3734.49   2
  -6   2   1 48267.2 3603.71   3
  -6  -2   0 176865. 7153.41   3
  -6   2   0 172520. 7244.22   3
  -6  -2  -1 95624.6 5511.93   3
  -6   2  -1 92412.5 5659.85   3
  -6  -2  -2 138010. 7002.16   3
  -6   2  -2 134324. 7175.45   3
  -6   4   7 25893.1 3091.54   1
  -6  -4   7 25860.0 2366.56   1
  -6  -4   7 25047.4 2447.14   2
  -6   4   6 19790.2 2586.01   1
  -6  -4   6 18075.9 1892.12   1
  -6  -4   6 18702.7 2137.88   2
  -6   4   5 5667.08 1405.48   1
  -6  -4   5 5999.13 1082.75   1
  -6  -4   5 5157.20 1163.65   2
  -6  -4   4 282430. 7339.18   1
  -6  -4   4 269813. 8610.12   2
  -6   4   4 279181. 9262.44   1
  -6   4   4 273388. 6942.42   3
  -6  -4   3 43292.3 3528.91   2
   6   4  -3 42141.0 2576.71   1
  -6   4   3 45000.5 3784.16   1
  -6   4   3 39464.0 3041.11   3
  -6   4   2 63826.0 4608.34   1
  -6  -4   2 58063.5 4197.51   2
  -6   4   2 59139.2 4098.65   3
  -6   4   1 12171.4 2009.17   3
  -6  -4   1 9567.36 1793.05   2
  -6  -4   0 245315. 9264.29   2
  -6   4   0 231696. 9235.11   3
  -6   4  -1 3339.52 1142.06   3
  -6  -4  -1 4820.09 1446.19   2
  -6   4  -2 7572.79 1879.74   3
  -6  -6   7-815.301 555.802   2
  -6   6   6 243067. 9707.90   1
  -6  -6   6 246777. 8899.09   2
  -6  -6   5 3407.98 1058.12   2
  -6   6   5 1467.33 821.620   1
  -6  -6   4 29568.9 3148.08   2
  -6   6   4 29576.7 3338.77   1
  -6  -6   3 71360.2 4993.38   2
  -6   6   3 73532.3 4667.09   3
  -6   6   3 79606.5 5429.29   1
  -6   6   2 202140. 8819.93   1
  -6  -6   2 218138. 8933.76   2
  -6   6   2 191148. 8331.10   3
  -6  -6   1 34865.2 3680.57   2
  -6   6   1 32573.5 3638.91   3
  -6  -6   0 26516.3 3319.67   2
  -6   6   0 31623.4 3686.30   3
  -6   8   2 160729. 8398.43   3
  -7  -1   9 73988.9 5122.36   1
  -7   1   8-65.7175 434.734   1
  -7  -1   8 978.805 762.769   1
  -7   1   7 56449.9 4403.94   1
  -7  -1   7 56887.7 4176.03   1
  -7   1   6 44984.3 3848.24   1
  -7  -1   6 44035.8 3601.52   1
  -7   1   5 245289. 8862.94   1
  -7  -1   5 246328. 8557.36   1
  -7   1   5 237834. 5965.31   3
  -7  -1   4 61233.5 3678.41   3
  -7   1   4 58607.9 4411.19   1
  -7  -1   4 64782.7 4448.67   1
  -7   1   4 61046.7 3573.82   3
  -7   1   3 173018. 7716.06   1
  -7  -1   3 165760. 6488.00   3
  -7  -1   3 175141. 7532.41   1
  -7   1   3 174670. 6547.69   3
  -7  -1   2 13507.5 1952.78   3
  -7   1   2 14194.6 2006.18   3
  -7  -1   1 166182. 7160.35   3
  -7   1   1 160395. 7096.98   3
  -7   1   0 2514.13 1042.58   3
  -7  -1   0 3475.19 1139.13   3
  -7  -1  -1 18329.6 2642.93   3
  -7   1  -1 22877.7 2988.72   3
  -7  -3   8 278.035 422.829   1
  -7   3   7 192490. 8556.24   1
  -7  -3   7 195035. 7224.83   1
  -7   3   6 1081.38 686.907   1
  -7  -3   6 1142.52 679.478   1
  -7  -3   6 1831.43 704.277   2
  -7  -3   5 88182.1 4950.27   2
  -7   3   5 85416.3 5465.23   1
  -7  -3   5 85662.8 4734.03   1
  -7  -3   4 14154.9 2027.83   1
  -7  -3   4 13396.1 2081.57   2
  -7   3   4 12448.0 1659.54   3
  -7   3   4 14123.7 2276.40   1
  -7  -3   3 284358. 9505.03   2
  -7   3   3 289027. 9101.34   3
  -7   3   3 291818. 10395.7   1
  -7   3   2 10230.8 2009.80   1
  -7  -3   2 15547.9 2323.98   2
  -7   3   2 14731.8 2208.10   3
  -7  -3   1 27111.4 3090.14   3
  -7  -3   1 30549.4 3332.23   2
  -7   3   1 28216.3 3209.59   3
  -7  -3   0 19244.2 2703.46   3
  -7   3   0 18701.5 2736.25   3
  -7   3  -1 176559. 8783.69   3
  -7  -5   6 311.128 343.569   2
  -7  -5   5 104882. 5965.61   2
  -7   5   5 110841. 6767.07   1
  -7   5   4 2964.02 1172.50   1
  -7  -5   4 2955.06 1060.93   2
  -7   5   3 98045.8 6460.18   1
  -7  -5   3 94819.8 5968.44   2
  -7   5   3 92710.6 5502.53   3
  -7  -5   2 42077.9 4085.18   2
  -7   5   2 44066.8 4115.39   3
  -7   5   1 146782. 7858.02   3
  -8   0   7 143.144 421.203   1
  -8   0   6 19698.5 2766.91   1
  -8   0   5-122.098 428.830   1
  -8   0   4 356941. 11854.9   1
  -8   0   4 347252. 9862.94   3
  -8   0   3-319.114 452.980   3
  -8   0   2 80679.1 5336.71   3
  -8   0   1 693.285 616.292   3
  -8  -2   8 12102.9 2123.12   1
  -8  -2   7 35764.2 3536.61   1
  -8   2   6 157880. 8044.73   1
  -8  -2   6 156780. 7463.43   1
  -8  -2   5 68510.2 4285.85   3
  -8   2   5 68515.8 5376.39   1
  -8  -2   5 66787.3 4884.09   1
  -8  -2   4 55927.4 4112.99   3
  -8   2   4 59102.5 4063.02   3
  -8   2   4 58086.9 4964.48   1
  -8  -2   3 32720.7 3319.65   3
  -8   2   3 29276.6 3622.60   1
  -8   2   3 35059.7 3433.25   3
  -8  -2   2 147772. 7335.38   3
  -8   2   2 144643. 7352.42   3
  -8  -2   1 50333.1 4467.74   3
  -8   2   1 47383.8 4429.55   3
  -8  -4   5 462.024 486.909   2
  -8  -4   4 24050.7 3096.13   2
  -8  -4   3 50756.5 4573.15   2
  -8   4   3 54360.1 4491.20   3
  -8   4   2 322013. 11778.1   3
  -9  -1   6 21621.9 3142.46   1
  -9  -1   5 19378.7 3000.87   1
  -9  -1   3 93850.9 6076.06   3
  -9   1   3 89886.8 6039.88   3
  -9   1   2-1541.29 892.792   3
   0   0   0    0.00    0.00   0

TITL crystal1-exp2-He-45K in C2/c
REM C2/c (#15 in standard setting)
CELL 0.71073   6.788982   7.616053   7.389288  90.0000 116.9409  90.0000
ZERR    4.00   0.000819   0.000600   0.000876   0.0000   0.0154   0.0000
LATT  7
SYMM -x, y,-z+1/2
SFAC H O S Ni
UNIT 8.00 20.00 4.00 4.00
TREF
HKLF 4
END
;
_shelx_hkl_checksum              30466
loop_
_space_group_symop_operation_xyz
'x, y, z'
'-x, y, -z+1/2'
'x+1/2, y+1/2, z'
'-x+1/2, y+1/2, -z+1/2'
'-x, -y, -z'
'x, -y, z-1/2'
'-x+1/2, -y+1/2, -z'
'x+1/2, -y+1/2, z-1/2'
loop_
_atom_site_label
_atom_site_type_symbol
_atom_site_fract_x
_atom_site_fract_y
_atom_site_fract_z
_atom_site_U_iso_or_equiv
_atom_site_adp_type
_atom_site_occupancy
_atom_site_site_symmetry_order
_atom_site_calc_flag
_atom_site_refinement_flags_posn
_atom_site_refinement_flags_adp
_atom_site_refinement_flags_occupancy
_atom_site_disorder_assembly
_atom_site_disorder_group
Ni Ni 0.000000 0.500000 0.000000 0.00160(19) Uani 1 2 d S . P . .
S S 0.000000 0.15779(9) 0.250000 0.0018(2) Uani 1 2 d S T P . .
O1 O 0.1727(2) 0.0479(2) 0.4051(2) 0.0036(3) Uani 1 1 d . . . . .
O2 O 0.1052(2) 0.2713(2) 0.1554(2) 0.0035(3) Uani 1 1 d . . . . .
O3 O 0.000000 0.6308(3) 0.250000 0.0035(4) Uani 1 2 d S T P . .
H H 0.109(4) 0.691(4) 0.299(4) 0.012(7) Uiso 1 1 d . . . . .
loop_
_atom_site_aniso_label
_atom_site_aniso_U_11
_atom_site_aniso_U_22
_atom_site_aniso_U_33
_atom_site_aniso_U_23
_atom_site_aniso_U_13
_atom_site_aniso_U_12
Ni 0.0011(3) 0.0023(3) 0.0017(3) -0.00006(11) 0.00086(19) -0.00009(11)
S 0.0010(4) 0.0022(4) 0.0023(4) 0.000 0.0009(3) 0.000
O1 0.0020(7) 0.0049(7) 0.0039(8) 0.0015(6) 0.0015(6) 0.0010(6)
O2 0.0028(7) 0.0043(7) 0.0038(7) 0.0013(5) 0.0018(6) -0.0001(5)
O3 0.0014(10) 0.0044(10) 0.0036(11) 0.000 0.0003(9) 0.000
loop_
_atom_type_symbol
_atom_type_description
_atom_type_scat_dispersion_real
_atom_type_scat_dispersion_imag
_atom_type_scat_source
O O 0.0106 0.0060 'International Tables Vol C Tables 4.2.6.8 and 6.1.1.4'
H H 0.0000 0.0000 'International Tables Vol C Tables 4.2.6.8 and 6.1.1.4'
S S 0.1246 0.1234 'International Tables Vol C Tables 4.2.6.8 and 6.1.1.4'
Ni Ni 0.3393 1.1124 'International Tables Vol C Tables 4.2.6.8 and 6.1.1.4'
loop_
_geom_angle_atom_site_label_1
_geom_angle_atom_site_label_2
_geom_angle_atom_site_label_3
_geom_angle
_geom_angle_site_symmetry_1
_geom_angle_site_symmetry_3
_geom_angle_publ_flag
O2 Ni O2 180.0 . 5_565 ?
O2 Ni O1 94.83(6) . 8_455 ?
O2 Ni O1 85.17(6) 5_565 8_455 ?
O2 Ni O1 85.17(6) . 4 ?
O2 Ni O1 94.83(6) 5_565 4 ?
O1 Ni O1 180.00(9) 8_455 4 ?
O2 Ni O3 87.27(6) . 5_565 ?
O2 Ni O3 92.73(6) 5_565 5_565 ?
O1 Ni O3 93.18(5) 8_455 5_565 ?
O1 Ni O3 86.82(5) 4 5_565 ?
O2 Ni O3 92.73(6) . . ?
O2 Ni O3 87.27(6) 5_565 . ?
O1 Ni O3 86.82(5) 8_455 . ?
O1 Ni O3 93.18(5) 4 . ?
O3 Ni O3 180.00(10) 5_565 . ?
O2 Ni O2 81.67(2) . 8_455 ?
O2 Ni O2 98.33(2) 5_565 8_455 ?
O1 Ni O2 43.71(5) 8_455 8_455 ?
O1 Ni O2 136.29(5) 4 8_455 ?
O3 Ni O2 51.21(3) 5_565 8_455 ?
O3 Ni O2 128.79(3) . 8_455 ?
O2 Ni O2 98.33(2) . 4 ?
O2 Ni O2 81.67(2) 5_565 4 ?
O1 Ni O2 136.29(5) 8_455 4 ?
O1 Ni O2 43.71(5) 4 4 ?
O3 Ni O2 128.79(3) 5_565 4 ?
O3 Ni O2 51.21(3) . 4 ?
O2 Ni O2 180.0 8_455 4 ?
O2 Ni O2 136.04(6) . 6_565 ?
O2 Ni O2 43.96(6) 5_565 6_565 ?
O1 Ni O2 113.85(5) 8_455 6_565 ?
O1 Ni O2 66.15(5) 4 6_565 ?
O3 Ni O2 59.84(6) 5_565 6_565 ?
O3 Ni O2 120.16(6) . 6_565 ?
O2 Ni O2 96.30(4) 8_455 6_565 ?
O2 Ni O2 83.70(4) 4 6_565 ?
O2 Ni O2 43.96(6) . 2 ?
O2 Ni O2 136.04(6) 5_565 2 ?
O1 Ni O2 66.15(5) 8_455 2 ?
O1 Ni O2 113.85(5) 4 2 ?
O3 Ni O2 120.16(6) 5_565 2 ?
O3 Ni O2 59.84(6) . 2 ?
O2 Ni O2 83.70(4) 8_455 2 ?
O2 Ni O2 96.30(4) 4 2 ?
O2 Ni O2 180.00(4) 6_565 2 ?
O1 S O1 110.47(13) . 2 ?
O1 S O2 110.13(8) . 2 ?
O1 S O2 108.51(8) 2 2 ?
O1 S O2 108.52(8) . . ?
O1 S O2 110.13(8) 2 . ?
O2 S O2 109.07(13) 2 . ?
S O1 Ni 136.42(10) . 4_545 ?
S O1 O2 36.05(5) . . ?
Ni O1 O2 100.52(7) 4_545 . ?
S O1 O1 34.76(6) . 2 ?
Ni O1 O1 139.20(11) 4_545 2 ?
O2 O1 O1 60.51(6) . 2 ?
S O1 O2 35.23(5) . 2 ?
Ni O1 O2 145.53(9) 4_545 2 ?
O2 O1 O2 60.38(8) . 2 ?
O1 O1 O2 59.52(6) 2 2 ?
S O1 O2 127.51(9) . 4_545 ?
Ni O1 O2 47.39(4) 4_545 4_545 ?
O2 O1 O2 109.87(6) . 4_545 ?
O1 O1 O2 102.05(7) 2 4_545 ?
O2 O1 O2 161.38(9) 2 4_545 ?
S O1 O3 171.10(10) . 7_556 ?
Ni O1 O3 47.74(3) 4_545 7_556 ?
O2 O1 O3 145.69(7) . 7_556 ?
O1 O1 O3 150.51(5) 2 7_556 ?
O2 O1 O3 136.02(8) 2 7_556 ?
O2 O1 O3 61.39(5) 4_545 7_556 ?
S O1 O2 115.13(9) . 8_556 ?
Ni O1 O2 42.57(4) 4_545 8_556 ?
O2 O1 O2 86.32(5) . 8_556 ?
O1 O1 O2 146.79(6) 2 8_556 ?
O2 O1 O2 104.43(7) 2 8_556 ?
O2 O1 O2 89.96(6) 4_545 8_556 ?
O3 O1 O2 61.73(5) 7_556 8_556 ?
S O1 O3 92.49(7) . 3_545 ?
Ni O1 O3 44.44(4) 4_545 3_545 ?
O2 O1 O3 57.67(5) . 3_545 ?
O1 O1 O3 101.46(8) 2 3_545 ?
O2 O1 O3 115.62(8) 2 3_545 ?
O2 O1 O3 62.54(6) 4_545 3_545 ?
O3 O1 O3 92.18(5) 7_556 3_545 ?
O2 O1 O3 56.88(4) 8_556 3_545 ?
S O1 O2 112.54(8) . 7_556 ?
Ni O1 O2 78.47(5) 4_545 7_556 ?
O2 O1 O2 108.36(6) . 7_556 ?
O1 O1 O2 139.88(8) 2 7_556 ?
O2 O1 O2 81.15(5) 2 7_556 ?
O2 O1 O2 117.47(7) 4_545 7_556 ?
O3 O1 O2 58.96(5) 7_556 7_556 ?
O2 O1 O2 45.93(5) 8_556 7_556 ?
O3 O1 O2 102.58(5) 3_545 7_556 ?
S O1 O2 127.46(8) . 6_556 ?
Ni O1 O2 95.13(6) 4_545 6_556 ?
O2 O1 O2 162.64(8) . 6_556 ?
O1 O1 O2 102.51(6) 2 6_556 ?
O2 O1 O2 109.24(6) 2 6_556 ?
O2 O1 O2 75.61(6) 4_545 6_556 ?
O3 O1 O2 51.60(4) 7_556 6_556 ?
O2 O1 O2 110.48(6) 8_556 6_556 ?
O3 O1 O2 135.10(7) 3_545 6_556 ?
O2 O1 O2 82.01(4) 7_556 6_556 ?
S O1 O1 89.64(7) . 5_556 ?
Ni O1 O1 133.33(9) 4_545 5_556 ?
O2 O1 O1 124.27(8) . 5_556 ?
O1 O1 O1 80.81(8) 2 5_556 ?
O2 O1 O1 65.86(6) 2 5_556 ?
O2 O1 O1 116.69(8) 4_545 5_556 ?
O3 O1 O1 85.59(6) 7_556 5_556 ?
O2 O1 O1 121.30(8) 8_556 5_556 ?
O3 O1 O1 177.69(8) 3_545 5_556 ?
O2 O1 O1 75.74(6) 7_556 5_556 ?
O2 O1 O1 43.38(5) 6_556 5_556 ?
S O2 Ni 130.35(9) . . ?
S O2 O1 35.44(5) . . ?
Ni O2 O1 160.01(8) . . ?
S O2 O1 34.64(5) . 2 ?
Ni O2 O1 117.26(7) . 2 ?
O1 O2 O1 59.98(8) . 2 ?
S O2 O2 35.46(6) . 2 ?
Ni O2 O2 100.56(5) . 2 ?
O1 O2 O2 60.30(6) . 2 ?
O1 O2 O2 59.32(6) 2 2 ?
S O2 O3 106.71(8) . 3_545 ?
Ni O2 O3 122.80(7) . 3_545 ?
O1 O2 O3 72.70(6) . 3_545 ?
O1 O2 O3 111.74(8) 2 3_545 ?
O2 O2 O3 129.73(8) 2 3_545 ?
S O2 O1 160.46(10) . 4 ?
Ni O2 O1 47.44(4) . 4 ?
O1 O2 O1 138.36(6) . 4 ?
O1 O2 O1 161.38(9) 2 4 ?
O2 O2 O1 127.64(5) 2 4 ?
O3 O2 O1 77.81(6) 3_545 4 ?
S O2 O3 135.19(8) . 5_565 ?
Ni O2 O3 47.53(5) . 5_565 ?
O1 O2 O3 150.00(8) . 5_565 ?
O1 O2 O3 101.22(7) 2 5_565 ?
O2 O2 O3 133.24(8) 2 5_565 ?
O3 O2 O3 96.49(5) 3_545 5_565 ?
O1 O2 O3 61.00(5) 4 5_565 ?
S O2 O1 90.74(7) . 8_455 ?
Ni O2 O1 42.61(4) . 8_455 ?
O1 O2 O1 126.08(8) . 8_455 ?
O1 O2 O1 75.57(7) 2 8_455 ?
O2 O2 O1 71.79(6) 2 8_455 ?
O3 O2 O1 158.38(7) 3_545 8_455 ?
O1 O2 O1 90.04(6) 4 8_455 ?
O3 O2 O1 61.89(5) 5_565 8_455 ?
S O2 O3 101.58(8) . . ?
Ni O2 O3 44.69(3) . . ?
O1 O2 O3 116.57(7) . . ?
O1 O2 O3 115.78(7) 2 . ?
O2 O2 O3 66.11(3) 2 . ?
O3 O2 O3 128.77(7) 3_545 . ?
O1 O2 O3 63.00(5) 4 . ?
O3 O2 O3 92.22(5) 5_565 . ?
O1 O2 O3 56.78(4) 8_455 . ?
S O2 O1 82.54(7) . 7_556 ?
Ni O2 O1 94.99(6) . 7_556 ?
O1 O2 O1 71.64(6) . 7_556 ?
O1 O2 O1 116.67(8) 2 7_556 ?
O2 O2 O1 62.28(6) 2 7_556 ?
O3 O2 O1 87.83(5) 3_545 7_556 ?
O1 O2 O1 78.61(4) 4 7_556 ?
O3 O2 O1 137.14(7) 5_565 7_556 ?
O1 O2 O1 107.44(7) 8_455 7_556 ?
O3 O2 O1 54.48(4) . 7_556 ?
S O2 O1 93.61(7) . 6 ?
Ni O2 O1 115.21(6) . 6 ?
O1 O2 O1 83.38(4) . 6 ?
O1 O2 O1 70.76(6) 2 6 ?
O2 O2 O1 127.94(4) 2 6 ?
O3 O2 O1 56.90(5) 3_545 6 ?
O1 O2 O1 104.39(6) 4 6 ?
O3 O2 O1 67.68(6) 5_565 6 ?
O1 O2 O1 110.48(6) 8_455 6 ?
O3 O2 O1 159.90(6) . 6 ?
O1 O2 O1 141.93(5) 7_556 6 ?
Ni O3 Ni 123.60(10) . 2 ?
Ni O3 O2 111.60(3) . 3_455 ?
Ni O3 O2 90.66(3) 2 3_455 ?
Ni O3 O2 90.66(3) . 4 ?
Ni O3 O2 111.60(3) 2 4 ?
O2 O3 O2 132.63(11) 3_455 4 ?
Ni O3 O1 45.44(4) . 8_455 ?
Ni O3 O1 104.44(7) 2 8_455 ?
O2 O3 O1 71.50(4) 3_455 8_455 ?
O2 O3 O1 134.57(5) 4 8_455 ?
Ni O3 O1 104.44(7) . 7_556 ?
Ni O3 O1 45.44(4) 2 7_556 ?
O2 O3 O1 134.57(5) 3_455 7_556 ?
O2 O3 O1 71.50(4) 4 7_556 ?
O1 O3 O1 122.82(10) 8_455 7_556 ?
Ni O3 O2 162.05(7) . 6_566 ?
Ni O3 O2 45.20(3) 2 6_566 ?
O2 O3 O2 84.45(5) 3_455 6_566 ?
O2 O3 O2 83.51(6) 4 6_566 ?
O1 O3 O2 141.77(5) 8_455 6_566 ?
O1 O3 O2 57.61(4) 7_556 6_566 ?
Ni O3 O2 45.20(3) . 5_565 ?
Ni O3 O2 162.05(7) 2 5_565 ?
O2 O3 O2 83.51(5) 3_455 5_565 ?
O2 O3 O2 84.45(5) 4 5_565 ?
O1 O3 O2 57.61(4) 8_455 5_565 ?
O1 O3 O2 141.77(5) 7_556 5_565 ?
O2 O3 O2 149.73(10) 6_566 5_565 ?
Ni O3 O2 42.58(4) . . ?
Ni O3 O2 82.66(7) 2 . ?
O2 O3 O2 128.77(7) 3_455 . ?
O2 O3 O2 96.23(4) 4 . ?
O1 O3 O2 61.49(5) 8_455 . ?
O1 O3 O2 66.56(6) 7_556 . ?
O2 O3 O2 121.08(6) 6_566 . ?
O2 O3 O2 87.78(5) 5_565 . ?
Ni O3 O2 82.66(7) . 2 ?
Ni O3 O2 42.58(4) 2 2 ?
O2 O3 O2 96.23(4) 3_455 2 ?
O2 O3 O2 128.77(7) 4 2 ?
O1 O3 O2 66.56(6) 8_455 2 ?
O1 O3 O2 61.49(5) 7_556 2 ?
O2 O3 O2 87.78(5) 6_566 2 ?
O2 O3 O2 121.08(6) 5_565 2 ?
O2 O3 O2 47.78(7) . 2 ?
Ni O3 O1 122.70(7) . 3_455 ?
Ni O3 O1 42.38(3) 2 3_455 ?
O2 O3 O1 49.63(4) 3_455 3_455 ?
O2 O3 O1 144.73(5) 4 3_455 ?
O1 O3 O1 80.62(4) 8_455 3_455 ?
O1 O3 O1 87.82(5) 7_556 3_455 ?
O2 O3 O1 61.22(4) 6_566 3_455 ?
O2 O3 O1 126.23(4) 5_565 3_455 ?
O2 O3 O1 101.37(7) . 3_455 ?
O2 O3 O1 54.47(5) 2 3_455 ?
Ni O3 O1 42.38(3) . 4 ?
Ni O3 O1 122.70(7) 2 4 ?
O2 O3 O1 144.73(5) 3_455 4 ?
O2 O3 O1 49.63(4) 4 4 ?
O1 O3 O1 87.82(5) 8_455 4 ?
O1 O3 O1 80.62(4) 7_556 4 ?
O2 O3 O1 126.23(4) 6_566 4 ?
O2 O3 O1 61.22(4) 5_565 4 ?
O2 O3 O1 54.47(5) . 4 ?
O2 O3 O1 101.37(7) 2 4 ?
O1 O3 O1 155.76(10) 3_455 4 ?
Ni O3 H 107(2) . . ?
Ni O3 H 104(2) 2 . ?
O2 O3 H 120(2) 3_455 . ?
O2 O3 H 17(2) 4 . ?
O1 O3 H 149(2) 8_455 . ?
O1 O3 H 72.1(19) 7_556 . ?
O2 O3 H 69(2) 6_566 . ?
O2 O3 H 93(2) 5_565 . ?
O2 O3 H 111(2) . . ?
O2 O3 H 133.5(19) 2 . ?
O1 O3 H 130(2) 3_455 . ?
O1 O3 H 67(2) 4 . ?
Ni O3 H 104(2) . 2 ?
Ni O3 H 107(2) 2 2 ?
O2 O3 H 17(2) 3_455 2 ?
O2 O3 H 120(2) 4 2 ?
O1 O3 H 72.1(19) 8_455 2 ?
O1 O3 H 149(2) 7_556 2 ?
O2 O3 H 93(2) 6_566 2 ?
O2 O3 H 69(2) 5_565 2 ?
O2 O3 H 133.5(19) . 2 ?
O2 O3 H 111(2) 2 2 ?
O1 O3 H 67(2) 3_455 2 ?
O1 O3 H 130(2) 4 2 ?
H O3 H 110(4) . 2 ?
loop_
_geom_bond_atom_site_label_1
_geom_bond_atom_site_label_2
_geom_bond_distance
_geom_bond_site_symmetry_2
_geom_bond_publ_flag
Ni O2 2.0305(15) . ?
Ni O2 2.0305(15) 5_565 ?
Ni O1 2.0320(14) 8_455 ?
Ni O1 2.0320(14) 4 ?
Ni O3 2.1106(10) 5_565 ?
Ni O3 2.1106(10) . ?
Ni O2 3.4178(15) 8_455 ?
Ni O2 3.4178(15) 4 ?
Ni O2 3.4387(15) 6_565 ?
Ni O2 3.4387(15) 2 ?
S O1 1.4687(15) . ?
S O1 1.4687(15) 2 ?
S O2 1.4905(15) 2 ?
S O2 1.4905(15) . ?
O1 O2 2.402(2) . ?
O1 O1 2.413(3) 2 ?
O1 O2 2.426(2) 2 ?
O1 O2 2.749(2) 4_545 ?
O1 O3 2.8474(18) 7_556 ?
O1 O2 2.9911(19) 8_556 ?
O1 O3 3.0100(16) 3_545 ?
O1 O2 3.210(2) 7_556 ?
O1 O2 3.223(2) 6_556 ?
O1 O1 3.335(3) 5_556 ?
O2 O2 2.428(3) 2 ?
O2 O3 2.6640(17) 3_545 ?
O2 O3 2.8582(16) 5_565 ?
O2 O3 2.998(2) . ?
O3 H 0.80(2) . ?
O3 H 0.80(2) 2 ?
loop_
_geom_hbond_atom_site_label_D
_geom_hbond_atom_site_label_H
_geom_hbond_atom_site_label_A
_geom_hbond_distance_DH
_geom_hbond_distance_HA
_geom_hbond_distance_DA
_geom_hbond_angle_DHA
_geom_hbond_site_symmetry_A
_geom_hbond_publ_flag
O3 H O2 0.80(2) 1.91(3) 2.6640(17) 156(3) 4 yes
loop_
_geom_torsion_atom_site_label_1
_geom_torsion_atom_site_label_2
_geom_torsion_atom_site_label_3
_geom_torsion_atom_site_label_4
_geom_torsion
_geom_torsion_site_symmetry_1
_geom_torsion_site_symmetry_2
_geom_torsion_site_symmetry_3
_geom_torsion_site_symmetry_4
_geom_torsion_publ_flag
O1 S O1 Ni 114.33(15) 2 . . 4_545 ?
O2 S O1 Ni -125.82(14) 2 . . 4_545 ?
O2 S O1 Ni -6.50(17) . . . 4_545 ?
O1 S O1 O2 120.82(7) 2 . . . ?
O2 S O1 O2 -119.32(12) 2 . . . ?
O2 S O1 O1 119.86(8) 2 . . 2 ?
O2 S O1 O1 -120.82(7) . . . 2 ?
O1 S O1 O2 -119.86(8) 2 . . 2 ?
O2 S O1 O2 119.32(13) . . . 2 ?
O1 S O1 O2 49.88(8) 2 . . 4_545 ?
O2 S O1 O2 169.74(12) 2 . . 4_545 ?
O2 S O1 O2 -70.94(11) . . . 4_545 ?
O1 S O1 O2 160.92(11) 2 . . 8_556 ?
O2 S O1 O2 -79.22(10) 2 . . 8_556 ?
O2 S O1 O2 40.10(10) . . . 8_556 ?
O1 S O1 O3 106.62(7) 2 . . 3_545 ?
O2 S O1 O3 -133.52(8) 2 . . 3_545 ?
O2 S O1 O3 -14.20(9) . . . 3_545 ?
O1 S O1 O2 -148.65(9) 2 . . 7_556 ?
O2 S O1 O2 -28.80(10) 2 . . 7_556 ?
O2 S O1 O2 90.53(9) . . . 7_556 ?
O1 S O1 O2 -51.28(7) 2 . . 6_556 ?
O2 S O1 O2 68.58(12) 2 . . 6_556 ?
O2 S O1 O2 -172.10(9) . . . 6_556 ?
O1 S O1 O1 -74.27(6) 2 . . 5_556 ?
O2 S O1 O1 45.58(9) 2 . . 5_556 ?
O2 S O1 O1 164.90(8) . . . 5_556 ?
O1 S O2 Ni -158.89(10) . . . . ?
O1 S O2 Ni 80.08(13) 2 . . . ?
O2 S O2 Ni -38.90(8) 2 . . . ?
O1 S O2 O1 -121.04(12) 2 . . . ?
O2 S O2 O1 119.98(7) 2 . . . ?
O1 S O2 O1 121.04(12) . . . 2 ?
O2 S O2 O1 -118.98(8) 2 . . 2 ?
O1 S O2 O2 -119.98(7) . . . 2 ?
O1 S O2 O2 118.98(8) 2 . . 2 ?
O1 S O2 O3 16.80(10) . . . 3_545 ?
O1 S O2 O3 -104.23(9) 2 . . 3_545 ?
O2 S O2 O3 136.79(8) 2 . . 3_545 ?
O1 S O2 O1 -83.9(3) . . . 4 ?
O1 S O2 O1 155.0(3) 2 . . 4 ?
O2 S O2 O1 36.0(2) 2 . . 4 ?
O1 S O2 O3 134.81(12) . . . 5_565 ?
O1 S O2 O3 13.78(15) 2 . . 5_565 ?
O2 S O2 O3 -105.20(13) 2 . . 5_565 ?
O1 S O2 O1 -176.15(7) . . . 8_455 ?
O1 S O2 O1 62.81(10) 2 . . 8_455 ?
O2 S O2 O1 -56.17(4) 2 . . 8_455 ?
O1 S O2 O3 -119.98(7) . . . . ?
O1 S O2 O3 118.98(8) 2 . . . ?
O2 S O2 O3 0.0 2 . . . ?
O1 S O2 O1 -68.66(9) . . . 7_556 ?
O1 S O2 O1 170.30(7) 2 . . 7_556 ?
O2 S O2 O1 51.32(4) 2 . . 7_556 ?
O1 S O2 O1 73.27(7) . . . 6 ?
O1 S O2 O1 -47.77(9) 2 . . 6 ?
O2 S O2 O1 -166.75(7) 2 . . 6 ?
