#------------------------------------------------------------------------------
#$Date: 2022-01-09 08:53:32 +0200 (Sun, 09 Jan 2022) $
#$Revision: 271967 $
#$URL: file:///home/coder/svn-repositories/cod/cif/1/56/59/1565928.cif $
#------------------------------------------------------------------------------
#
# This file is available in the Crystallography Open Database (COD),
# http://www.crystallography.net/
#
# All data on this site have been placed in the public domain by the
# contributors.
#
data_1565928
loop_
_publ_author_name
'Oka, K.'
'Nishiki, W.'
'Takasu, M.'
'Noma, N.'
'Iwasaki, M.'
_publ_section_title
;
 Site preference of fluoride anion and potential ionic conductivity in
 fluorapatites A5(VO4)3F (A = Pb, Sr, and Ba)
;
_journal_name_full               'Journal of the Ceramic Society of Japan'
_journal_page_first              35
_journal_page_last               38
_journal_paper_doi               10.2109/jcersj2.130.P1-1
_journal_volume                  130
_journal_year                    2022
_chemical_formula_sum            'Ba5 F O12 V3'
_chemical_name_common            Ba(VO4)3F
_chemical_name_mineral           'apatite analogue'
_space_group_IT_number           176
_space_group_name_Hall           '-P 6c'
_space_group_name_H-M_alt        'P 63/m'
_cell_angle_alpha                90.000000
_cell_angle_beta                 90.000000
_cell_angle_gamma                120.000000
_cell_formula_units_Z            2
_cell_length_a                   10.43080(5)
_cell_length_b                   10.43080(5)
_cell_length_c                   7.86002(4)
_cell_volume                     740.610(6)
_diffrn_ambient_pressure         100
_diffrn_ambient_temperature      298
_cod_data_source_file            Ba5VO43F.cif
_cod_data_source_block           Ba5V3O12F
_cod_original_cell_volume        740.609911
_cod_original_formula_sum        'Ba5 V3 O12 F1'
_cod_database_code               1565928
loop_
_space_group_symop_id
_space_group_symop_operation_xyz
1 x,y,z
2 -x,-y,-z
3 -y,x-y,z
4 y,-x+y,-z
5 -x+y,-x,z
6 x-y,x,-z
7 -x,-y,z+1/2
8 x,y,-z+1/2
9 y,-x+y,z+1/2
10 -y,x-y,-z+1/2
11 x-y,x,z+1/2
12 -x+y,-x,-z+1/2
loop_
_atom_site_label
_atom_site_occupancy
_atom_site_fract_x
_atom_site_fract_y
_atom_site_fract_z
_atom_site_adp_type
_atom_site_B_iso_or_equiv
_atom_site_type_symbol
Pb1 1.0 0.333333 0.666667 0.0066(3) Biso 0.70(2) Pb
Pb2 1.0 0.23940(10) -0.01530(10) 0.250000 Biso 0.67(2) Pb
V 1.0 0.4011(2) 0.3685(2) 0.250000 Biso 0.29(4) V
O1 1.0 0.3292(9) 0.4793(8) 0.250000 Biso 0.95(9) O
O2 1.0 0.5861(8) 0.4626(9) 0.250000 Biso 0.95(9) O
O3 1.0 0.3478(6) 0.2589(6) 0.0784(7) Biso 0.95(9) O
F 0.5000 0.000000 0.000000 0.220(3) Biso 1.4(3) F
