#------------------------------------------------------------------------------
#$Date: 2022-03-06 06:37:54 +0200 (Sun, 06 Mar 2022) $
#$Revision: 273468 $
#$URL: file:///home/coder/svn-repositories/cod/cif/1/56/59/1565942.cif $
#------------------------------------------------------------------------------
#
# This file is available in the Crystallography Open Database (COD),
# http://www.crystallography.net/
#
# All data on this site have been placed in the public domain by the
# contributors.
#
data_1565942
loop_
_publ_author_name
'Wildner, Manfred'
'Zakharov, Boris A.'
'Bogdanov, Nikita E.'
'Talla, Dominik'
'Boldyreva, Elena V.'
'Miletich, Ronald'
_publ_section_title
;
 Crystallography relevant to Mars and Galilean icy moons: crystal behavior
 of kieserite-type monohydrate sulfates at extraterrestrial conditions
 down to 15 K
;
_journal_issue                   2
_journal_name_full               IUCrJ
_journal_page_first              194
_journal_page_last               203
_journal_paper_doi               10.1107/S2052252521012720
_journal_volume                  9
_journal_year                    2022
_chemical_formula_sum            'Fe H2 O5 S'
_chemical_formula_weight         169.93
_space_group_crystal_system      monoclinic
_space_group_IT_number           15
_space_group_name_Hall           '-C 2yc'
_space_group_name_H-M_alt        'C 1 2/c 1'
_atom_sites_solution_hydrogens   difmap
_audit_creation_method           SHELXL-2018/3
_cell_angle_alpha                90
_cell_angle_beta                 118.314(14)
_cell_angle_gamma                90
_cell_formula_units_Z            4
_cell_length_a                   7.0304(8)
_cell_length_b                   7.5789(6)
_cell_length_c                   7.7374(8)
_cell_measurement_temperature    45(2)
_cell_volume                     362.95(8)
_computing_structure_refinement  'SHELXL-2018/3 (Sheldrick, 2018)'
_diffrn_ambient_temperature      45(2)
_diffrn_measured_fraction_theta_full 0.988
_diffrn_measured_fraction_theta_max 0.875
_diffrn_radiation_type           MoK\a
_diffrn_radiation_wavelength     0.71073
_diffrn_reflns_av_R_equivalents  0.0199
_diffrn_reflns_av_unetI/netI     0.0241
_diffrn_reflns_Laue_measured_fraction_full 0.988
_diffrn_reflns_Laue_measured_fraction_max 0.875
_diffrn_reflns_limit_h_max       9
_diffrn_reflns_limit_h_min       -9
_diffrn_reflns_limit_k_max       9
_diffrn_reflns_limit_k_min       -9
_diffrn_reflns_limit_l_max       10
_diffrn_reflns_limit_l_min       -7
_diffrn_reflns_number            1187
_diffrn_reflns_point_group_measured_fraction_full 0.988
_diffrn_reflns_point_group_measured_fraction_max 0.875
_diffrn_reflns_theta_full        25.242
_diffrn_reflns_theta_max         29.420
_diffrn_reflns_theta_min         4.205
_exptl_absorpt_coefficient_mu    4.613
_exptl_crystal_density_diffrn    3.110
_exptl_crystal_F_000             336
_exptl_crystal_size_max          0.320
_exptl_crystal_size_mid          0.290
_exptl_crystal_size_min          0.070
_refine_diff_density_max         0.537
_refine_diff_density_min         -0.465
_refine_diff_density_rms         0.105
_refine_ls_extinction_coef       0.0346(18)
_refine_ls_extinction_expression Fc^*^=kFc[1+0.001xFc^2^\l^3^/sin(2\q)]^-1/4^
_refine_ls_extinction_method     'SHELXL-2018/3 (Sheldrick 2018)'
_refine_ls_goodness_of_fit_ref   1.121
_refine_ls_hydrogen_treatment    refall
_refine_ls_matrix_type           full
_refine_ls_number_parameters     40
_refine_ls_number_reflns         442
_refine_ls_number_restraints     0
_refine_ls_restrained_S_all      1.121
_refine_ls_R_factor_all          0.0177
_refine_ls_R_factor_gt           0.0172
_refine_ls_shift/su_max          0.000
_refine_ls_shift/su_mean         0.000
_refine_ls_structure_factor_coef Fsqd
_refine_ls_weighting_details
'w=1/[\s^2^(Fo^2^)+(0.0210P)^2^+0.0400P] where P=(Fo^2^+2Fc^2^)/3'
_refine_ls_weighting_scheme      calc
_refine_ls_wR_factor_gt          0.0420
_refine_ls_wR_factor_ref         0.0424
_reflns_Friedel_coverage         0.000
_reflns_number_gt                425
_reflns_number_total             442
_reflns_threshold_expression     'I > 2\s(I)'
_cod_data_source_file            lt5044.cif
_cod_data_source_block           FeSO4H2O_He_45K
_cod_depositor_comments
'Adding full bibliography for 1565934--1565967.cif.'
_cod_original_cell_volume        362.94(8)
_cod_original_sg_symbol_H-M      'C 2/c'
_cod_database_code               1565942
_shelx_shelxl_version_number     2018/3
_shelx_space_group_comment
;
The symmetry employed for this shelxl refinement is uniquely defined
by the following loop, which should always be used as a source of
symmetry information in preference to the above space-group names.
They are only intended as comments.
;
_shelx_estimated_absorpt_t_min   0.320
_shelx_estimated_absorpt_t_max   0.738
_shelx_res_file
;
TITL kieserite cell setting from literature
    Feso4_viekies_He-45K.res
    created by SHELXL-2018/3 at 16:42:16 on 05-Jan-2021
REM meas. CELL 0.71073   7.026987   7.572052   7.7304  90.0000 118.352  90.0000
REM latt corr for Nonius20C  +.0034 +.0068 +.0070         -.038
CELL 0.71073   7.030387   7.578852   7.7374  90.0000 118.314  90.0000
ZERR    4.00   0.000786   0.000595   0.0008   0.0000   0.014   0.0000
LATT  7
SYMM -X, Y, 1/2-Z
SFAC O H S FE
UNIT 20 8 4 4
OMIT -2 2 2
OMIT -1 1 3
OMIT 1 3 1
OMIT 1 1 2
L.S. 6
BOND
CONF
CONN 12 1.8 $O
EQIV $9 -x+1/2, y+1/2, -z+1/2
BOND $H
FMAP 2
PLAN 20
ACTA
HTAB O3 O2_$9
HTAB
TEMP -228
SIZE 0.32 0.29 0.07
WGHT    0.021000    0.040000
EXTI    0.034587
FVAR       7.78192
FE    4    0.000000    0.500000    0.000000    10.50000    0.00246    0.00219 =
         0.00224    0.00075    0.00098    0.00025
S     3    0.000000    0.155348    0.250000    10.50000    0.00195    0.00237 =
         0.00260    0.00000    0.00111    0.00000
O1    1    0.168268    0.045640    0.400683    11.00000    0.00362    0.00488 =
         0.00451    0.00080    0.00127    0.00102
O2    1    0.100450    0.270642    0.159671    11.00000    0.00381    0.00423 =
         0.00522    0.00166    0.00225    0.00020
O3    1    0.000000    0.643541    0.250000    10.50000    0.00365    0.00447 =
         0.00561    0.00000    0.00244    0.00000
H     2    0.100714    0.714544    0.290060    11.00000    0.01982
HKLF 4 1   -1 0 0  0 -1 0  1 0 1




REM  kieserite cell setting from literature
REM wR2 = 0.0424, GooF = S = 1.121, Restrained GooF = 1.121 for all data
REM R1 = 0.0172 for 425 Fo > 4sig(Fo) and 0.0177 for all 442 data
REM 40 parameters refined using 0 restraints

END

WGHT      0.0213      0.0342

REM Instructions for potential hydrogen bonds
EQIV $5 x+1/2, y+1/2, z
HTAB O3 S_$5
EQIV $3 x, y+1, z
HTAB O3 O1_$3
HTAB O3 O2_$9

REM Highest difference peak  0.537,  deepest hole -0.465,  1-sigma level  0.105
Q1    1   0.0877  0.0910  0.3143  11.00000  0.05    0.54
Q2    1   0.2555  0.1072  0.3625  11.00000  0.05    0.38
Q3    1   0.0995  0.5631  0.0773  11.00000  0.05    0.31
Q4    1   0.2555  0.2988  0.3746  11.00000  0.05    0.29
Q5    1   0.0615  0.2025  0.2109  11.00000  0.05    0.28
Q6    1   0.1103  0.4425  0.0292  11.00000  0.05    0.28
Q7    1   0.2321  0.3553  0.1264  11.00000  0.05    0.26
Q8    1  -0.1580  0.4936 -0.0022  11.00000  0.05    0.25
Q9    1   0.2031  0.6322  0.4642  11.00000  0.05    0.23
Q10   1   0.2475  0.2356  0.3096  11.00000  0.05    0.23
Q11   1   0.2500  0.2500  0.5000  10.50000  0.05    0.20
Q12   1   0.2301  0.3157  0.2083  11.00000  0.05    0.20
Q13   1   0.1838 -0.0366  0.2414  11.00000  0.05    0.19
Q14   1   0.3391  0.1622  0.5562  11.00000  0.05    0.19
Q15   1   0.3213  0.0863  0.6157  11.00000  0.05    0.18
Q16   1   0.0463  0.2405  0.0421  11.00000  0.05    0.18
Q17   1   0.1585  0.3412  0.2781  11.00000  0.05    0.17
Q18   1   0.1834  0.2231  0.1605  11.00000  0.05    0.17
Q19   1   0.0508  0.8778  0.3057  11.00000  0.05    0.16
Q20   1   0.2060  0.5841  0.3868  11.00000  0.05    0.16
;
_shelx_res_checksum              83834
_shelx_hkl_file
;
   0   0   2 1385.35 222.195   3
   0   0   2 995.977 222.096   1
   0   0  -2 1238.26 204.429   3
   0   0  -3-28.0268 71.4429   1
   0   0   3 309.312 137.974   3
   0   0  -3 166.772 103.440   3
   0   0   4 306478. 5227.58   1
   0   0  -4 294718. 4370.34   3
   0   0   4 296208. 4652.55   3
   0   0   5 117.250 136.495   1
   0   0  -5-168.642 175.881   1
   0   0  -5 102.879 117.188   3
   0   0   5 169.725 160.825   3
   0   0   6 11314.1 1161.63   3
   0   0   6 12575.9 1382.85   1
   0   0  -6 12118.2 1058.24   3
   0   0   7-116.872 130.418   2
   0   0   7 648.471 361.155   1
   0   0   8 295539. 8260.96   1
   0   0   9 712.288 597.729   1
   0  -2   0 164808. 2780.04   2
   0  -2   0 162621. 2023.98   1
   0  -2  -1 325860. 3916.79   2
   0   2   1 322892. 3717.06   1
   0  -2   1 312992. 4003.40   2
   0  -2   2 792178. 7213.86   3
   0   2   2 847858. 6518.08   2
   0  -2   2 768391. 6722.54   2
   0  -2  -2 826731. 6963.51   2
   0   2   2 876578. 7539.10   1
   0  -2  -3 70146.5 2613.99   3
   0   2   3 78290.9 2089.01   2
   0   2   3 76974.4 2602.36   1
   0  -2   3 75528.6 2381.02   3
   0  -2   3 79809.3 1972.24   1
   0  -2   3 79990.4 2344.11   2
   0   2   4 125623. 2805.32   2
   0   2   4 129387. 3842.40   1
   0  -2   4 121931. 3376.60   3
   0   2  -4 116716. 2850.04   1
   0  -2  -4 114224. 3511.97   3
   0  -2   4 123668. 3136.78   2
   0  -2   4 115449. 2886.01   1
   0   2   5 128061. 4279.29   1
   0   2   5 132398. 2970.06   2
   0   2  -5 132843. 3525.47   1
   0  -2  -5 122979. 3626.65   3
   0  -2   5 127620. 3540.70   1
   0  -2   5 131409. 3422.89   2
   0  -2   5 133634. 3873.76   3
   0  -2   6 58794.7 2374.68   2
   0   2   6 62256.4 2027.16   2
   0   2  -6 61609.4 2743.23   1
   0  -2   6 59544.3 2787.76   1
   0  -2   6 60540.1 2834.63   3
   0   2   6 59677.4 3233.23   1
   0  -2  -6 60176.1 2619.48   3
   0   2   7 110509. 4879.51   1
   0  -2   7 109773. 4108.25   3
   0  -2   7 106757. 4178.79   1
   0  -2   8 58436.8 3457.54   1
   0   2   8 66804.5 4188.64   1
   0  -2   9 27065.5 2601.70   1
   0  -4   0 330443. 5575.59   2
   0  -4   0 325612. 4059.38   1
   0  -4   1 195.689 148.539   2
   0   4   1 336.153 203.007   2
   0  -4  -1 270.343 148.725   1
   0  -4   1 320.009 117.914   1
   0  -4  -1 290.215 180.205   2
   0   4   2 514717. 7144.62   1
   0  -4   2 511891. 7372.42   2
   0  -4   2 505239. 7796.15   3
   0  -4  -2 536061. 7332.79   2
   0   4   2 513844. 7161.04   2
   0  -4  -2 526107. 6713.37   1
   0  -4  -3 196074. 4564.46   1
   0  -4   3 185340. 4906.17   3
   0   4   3 185716. 4746.62   1
   0  -4   3 193240. 4675.18   2
   0   4   3 185828. 4332.46   2
   0  -4  -3 184898. 4589.03   2
   0  -4   3 180062. 2539.82   1
   0   4   4 1682.80 414.657   2
   0  -4   4 962.302 360.140   2
   0   4   4 1752.15 542.709   1
   0  -4   4 797.006 352.626   3
   0  -4   4 1337.23 273.061   1
   0  -4  -4 1909.93 500.329   2
   0   4   5 64878.8 2580.95   2
   0  -4   5 62060.0 2177.34   1
   0  -4  -5 59090.0 3140.89   3
   0  -4   5 62667.2 3138.10   3
   0  -4   5 62704.5 2895.49   2
   0   4   5 62967.9 3361.12   1
   0  -4  -6 359250. 7898.69   3
   0   4   6 364441. 8910.52   1
   0  -4   6 355223. 8002.14   3
   0  -4   6 372208. 6195.85   1
   0   4   6 377735. 6161.57   2
   0  -4   7 10748.8 1193.88   1
   0  -4   7 13577.1 1624.74   3
   0   4   7 11450.7 1739.81   1
   0   6   0 308056. 7234.93   2
   0  -6   0 291833. 4625.03   1
   0  -6   1 24054.8 1101.64   1
   0   6   1 27717.8 2142.92   2
   0  -6  -1 24550.7 1523.55   1
   0   6  -1 24161.5 1990.99   2
   0  -6   2 34314.5 1017.06   1
   0   6   2 37284.0 2464.02   2
   0  -6  -2 33748.5 1992.72   1
   0  -6   2 34878.5 2533.71   3
   0   6   3 76586.1 3538.00   2
   0  -6   3 76772.3 3855.43   3
   0  -6   4 424890. 9402.06   3
   0   6   4 430309. 8316.95   2
   0   6   5 1008.82 394.633   2
   0  -6   5 1557.38 590.867   3
   0  -6   6 1340.96 607.693   3
   0   6   6 1224.41 452.752   2
   0  -6   7 599.627 455.711   3
   0   8   0 127692. 5449.88   2
   0  -8   1 137036. 5727.52   3
   0   8   1 152888. 5979.63   2
   0   8   2 54340.8 3586.24   2
   0  -8   2 55276.6 3748.94   3
   0  -8   3 19533.8 2294.93   3
   0   8   3 22396.2 2319.34   2
   0   8   4 118154. 5281.11   2
   0  -8   4 114999. 5752.15   3
   0   8   5 19359.1 2114.77   2
   0  -8   5 20009.0 2466.62   3
  -1  -1   9 72454.4 4237.87   1
  -1   1   9 79985.8 4804.23   1
  -1   1   8 239.592 407.775   1
  -1  -1   8 475.970 300.489   3
  -1  -1   8 510.163 372.749   1
  -1  -1   7 308226. 7048.43   1
   1   1  -7 302942. 6614.20   3
  -1   1   7 313257. 7782.50   1
   1  -1  -7 318612. 6856.26   3
  -1  -1   7 313866. 7230.00   3
  -1   1   7 317121. 6324.67   2
  -1   1   6 6333.34 998.807   1
  -1  -1   6 4790.00 856.931   3
  -1   1   6 5669.96 821.032   2
   1  -1  -6 5249.83 841.099   3
   1   1  -6 6215.33 899.037   3
   1   1  -6 4972.50 754.908   1
  -1  -1   6 5823.02 844.985   1
  -1   1   5 132943. 3684.73   2
   1  -1  -5 130618. 3710.05   1
  -1   1   5 133986. 4043.29   1
   1  -1  -5 134381. 4005.71   3
  -1  -1   5 130729. 3859.37   3
  -1  -1   5 133288. 3581.34   1
   1   1  -5 131722. 3773.89   3
  -1  -1   4 44102.6 2040.60   3
  -1  -1   4 41769.0 1704.84   1
   1   1  -4 43004.2 1955.11   3
   1   1  -4 41409.2 1622.48   1
  -1   1   4 42548.4 2009.71   1
   1  -1  -4 41079.3 2044.97   3
  -1   1   4 42432.6 2106.26   3
   1   1  -3 103730. 2722.88   3
   1   1  -3 98806.8 2032.84   1
  -1  -1   3 103898. 2207.82   1
  -1   1   3 102044. 2747.86   1
  -1  -1   3 106334. 2803.75   3
   1  -1  -3 106895. 3107.70   3
   1   1  -2 223780. 3483.68   3
   1  -1  -2 217431. 4045.43   3
   1   1  -2 214061. 2257.90   1
   1   1  -1 193429. 2781.22   3
   1  -1  -1 198234. 3209.72   2
   1   1   0 178637. 2119.69   1
   1   1   0 175728. 2157.49   3
   1  -1   0 172912. 2577.24   2
   1   1   1 820357. 6017.34   1
  -1  -1  -1 821366. 3744.26   2
   1  -1   2 22857.0 895.110   3
   1  -1   2 21793.0 854.894   2
   1   1   2 21057.2 1186.18   1
  -1  -1  -2 20956.1 747.358   3
   1  -1   2 22818.7 1133.21   1
  -1  -1  -3 408560. 3429.00   3
   1   1   3 412040. 5994.00   1
   1  -1   3 410945. 3964.97   2
   1  -1   3 414611. 4410.40   3
   1  -1   3 410902. 5572.97   1
  -1   1  -4 20344.6 1405.89   1
   1  -1   4 17135.9 865.948   2
   1   1   4 17990.0 1433.18   1
   1  -1   4 17180.4 1320.71   1
   1  -1   4 18265.3 1053.27   3
  -1  -1  -4 18493.5 820.823   3
  -1  -1  -4 19163.8 1477.25   1
   1  -1   5 235158. 5500.71   1
   1  -1   5 229909. 4181.30   3
   1  -1   5 239163. 3339.94   2
  -1   1  -5 237028. 5413.07   1
  -1  -1  -5 233592. 3126.50   3
   1   1   5 238695. 5844.92   1
  -1  -1  -6 18533.0 877.070   3
   1  -1   6 19077.4 1749.65   1
   1  -1   6 19514.7 1325.60   3
   1   1   6 19141.5 1870.70   1
   1  -1   6 19614.7 936.250   2
   1   1   7 22022.8 2225.40   1
   1  -1   7 20983.1 2063.54   1
   1  -1   8 41553.1 3196.42   1
   1   1   8 40642.7 3319.59   1
  -1  -3   8 16254.1 1644.70   1
  -1  -3   8 16628.7 1877.68   3
  -1  -3   7 52361.5 2623.56   1
  -1   3   7 50204.2 3402.15   1
  -1   3   7 49834.1 2474.37   2
  -1  -3   7 54403.1 3266.15   3
  -1  -3   6 33575.8 2084.04   2
  -1  -3   6 36455.7 2468.48   3
  -1   3   6 34422.6 2052.57   2
  -1   3   6 36285.5 2626.17   1
  -1  -3   6 37807.6 1943.68   1
   1  -3  -6 34747.2 2540.16   3
  -1  -3   5 310757. 5919.07   2
   1   3  -5 327005. 6683.30   3
  -1  -3   5 303010. 6592.94   3
   1   3  -5 300225. 4368.22   1
  -1  -3   5 321542. 4768.30   1
  -1   3   5 314404. 6036.76   2
  -1   3   5 319297. 7058.84   1
   1  -3  -5 320659. 7450.33   3
  -1   3   4 43527.9 2159.21   2
  -1   3   4 41656.0 2313.05   1
  -1  -3   4 44848.1 1435.36   1
  -1  -3   4 41616.8 2266.81   3
   1  -3  -4 46679.9 2701.00   3
   1   3  -4 46787.5 2367.26   3
  -1  -3   4 46146.4 2177.09   2
   1  -3  -3 89178.2 3186.98   2
  -1  -3   3 90301.7 2904.31   2
  -1   3   3 87634.2 2969.35   2
  -1  -3   3 88650.0 3059.72   3
  -1  -3   2 149794. 3568.22   2
  -1   3   2 151516. 3679.04   2
   1  -3  -2 145362. 3763.48   2
   1  -3  -2 148930. 3422.92   1
  -1  -3   1 292089. 4708.07   2
   1  -3  -1 288040. 4992.12   2
  -1  -3   1 287299. 2174.01   1
  -1  -3   0 23318.9 961.440   1
  -1  -3   0 25028.5 1299.46   2
   1   3   0 24869.1 1017.99   1
   1  -3   1 277379. 4709.06   2
   1   3   1 294027. 4403.10   2
  -1   3  -1 275447. 4824.64   2
   1   3   1 283565. 4231.72   1
  -1  -3  -1 269401. 4059.12   1
  -1  -3  -1 291745. 4319.50   2
  -1   3  -2 22517.3 1378.19   2
   1   3   2 24239.7 1444.72   1
  -1  -3  -2 24542.6 1261.84   2
   1  -3   2 25497.3 1459.63   2
   1   3   2 27258.4 1335.82   2
  -1  -3  -2 26124.8 1467.63   1
   1  -3   3 640843. 6747.88   1
   1   3   3 660721. 6274.55   2
  -1  -3  -3 663802. 8310.31   1
   1  -3   3 651638. 7940.10   3
  -1  -3  -3 647041. 6865.17   2
   1   3   3 652026. 8461.68   1
   1  -3   3 640275. 7596.07   2
  -1  -3  -4 2326.52 511.543   3
   1  -3   4 2932.42 567.064   3
   1   3   4 3736.59 458.430   2
   1   3   4 3146.71 667.035   1
   1  -3   4 3698.90 599.666   2
   1  -3   4 3702.80 578.950   1
   1   3   5 43102.2 1423.30   2
   1  -3   5 34484.4 1978.41   1
   1  -3   5 36276.1 1925.37   2
   1   3   5 34906.4 2448.06   1
  -1  -3  -5 37984.6 1920.95   3
   1  -3   5 37505.5 2168.38   3
   1  -3   6 13476.8 1362.09   3
   1  -3   6 11636.8 1297.82   1
   1   3   6 11529.6 1557.29   1
   1  -3   7 118979. 4598.75   1
   1   3   7 126032. 5615.59   1
  -1  -5   8 36229.4 3141.77   3
  -1   5   7 180253. 5348.39   2
  -1  -5   7 186002. 6751.74   3
  -1  -5   6 9850.91 1497.30   3
  -1   5   6 9755.39 1255.14   2
  -1   5   5 97551.5 3910.49   2
  -1  -5   5 99796.6 4404.11   3
   1  -5  -4 40613.7 2642.27   2
  -1   5   4 38712.4 2422.29   2
  -1  -5   4 41672.1 2721.23   3
   1  -5  -3 152690. 4866.11   2
  -1  -5   3 144662. 4857.81   3
  -1   5   3 140779. 4552.79   2
   1  -5  -3 148495. 4335.80   1
   1  -5  -2 5648.49 903.490   2
  -1   5   2 6633.60 988.523   2
  -1  -5   2 5629.51 940.491   3
  -1  -5   2 6574.31 940.611   2
   1  -5  -2 5667.90 799.902   1
  -1  -5   1 264585. 2979.14   1
  -1   5   1 256368. 6007.13   2
   1  -5  -1 255886. 4846.25   1
  -1  -5   1 271763. 5795.82   2
  -1  -5   1 254783. 6019.15   3
   1  -5  -1 264137. 5996.89   2
   1  -5   0 16616.9 1481.93   2
  -1  -5   0 13813.2 1280.17   2
  -1  -5   0 14395.9 921.996   1
  -1  -5  -1 312294. 5050.96   1
   1   5   1 295059. 5998.46   2
   1  -5   1 305777. 6376.41   2
  -1   5  -1 294353. 6515.41   2
  -1  -5  -1 308237. 5880.09   2
   1   5   1 294773. 5338.73   1
  -1  -5  -2 86624.8 3179.11   2
   1   5   2 81209.6 3119.28   1
  -1   5  -2 83302.9 3439.31   2
   1   5   2 89081.7 3263.66   2
   1  -5   2 90795.9 3520.58   2
  -1  -5  -2 86816.7 3058.83   1
   1   5   3 76720.6 3361.42   1
   1   5   3 88195.1 3228.27   2
   1  -5   3 84994.9 2386.47   1
  -1  -5  -3 84988.1 3264.56   2
   1  -5   3 86474.8 3695.38   3
   1   5   4 141176. 5008.64   1
   1  -5   4 136260. 4782.17   3
   1  -5   4 143250. 3335.67   1
  -1  -5  -4 136718. 4261.56   2
   1  -5   5 176346. 5634.59   3
   1  -5   5 176948. 4113.78   1
   1   5   5 187197. 4353.61   2
   1   5   5 171987. 5988.64   1
   1  -5   6 3343.98 812.904   3
   1   5   6 2475.65 789.080   1
  -1  -7   7 79064.4 5056.64   3
  -1   7   6 46794.2 3204.24   2
  -1  -7   6 44124.2 3609.27   3
  -1   7   5 46588.1 3182.26   2
  -1  -7   5 50236.0 3662.69   3
  -1   7   4 235.541 228.728   2
  -1  -7   4-227.142 309.890   3
  -1   7   3 354144. 8702.83   2
  -1  -7   3 366180. 9238.49   3
  -1   7   2 892.733 458.315   2
  -1  -7   2 956.256 472.454   3
  -1   7   1 39688.0 2920.22   2
   1  -7  -1 37597.7 2104.41   1
  -1  -7   1 39171.3 2838.45   3
  -1  -7   1 38117.8 1339.07   1
   1  -7   0 43640.2 2085.93   1
  -1  -7   0 39852.0 2795.12   3
  -1   7   0 45791.5 3156.96   2
  -1  -7   0 43944.3 1870.46   1
  -1   7  -1 179657. 6169.82   2
   1  -7   1 180329. 3794.71   1
  -1  -7  -1 176001. 4369.21   1
   1  -7   2 20919.4 2141.25   3
   1   7   2 20113.8 1917.57   2
   1   7   3 68641.6 3493.50   2
   1  -7   3 67242.0 3923.90   3
   1  -7   4 3898.30 1043.29   3
   1   7   4 5784.56 991.132   2
   1   7   5 108884. 5481.05   1
   1  -7   5 108065. 5283.46   3
   1  -7   6 23550.5 2541.88   3
  -1   9   5 152321. 6740.45   2
  -1   9   4 1494.41 734.392   2
  -1  -9   3 22488.1 2674.84   3
  -1   9   3 24188.7 2724.61   2
  -1   9   2 5850.07 1391.11   2
  -1  -9   2 6286.70 1357.75   3
  -1   9   1 304924. 9603.83   2
  -1  -9   1 269998. 8691.51   3
  -1  -9   0 14124.1 1958.41   3
  -1   9   0 17246.2 2243.95   2
  -1  -9  -1 12393.2 1820.02   3
   1  -9   1 12065.9 1865.14   3
   1  -9   2 1383.32 685.446   3
  -1  -9  -2 586.297 465.681   3
  -2   0   8 17954.3 2019.38   3
  -2   0   7 320.186 285.387   3
   2   0  -6 865876. 9885.15   1
  -2   0   6 845995. 11673.1   3
   2   0  -5-61.4310 119.182   1
   2   0  -5 141.432 163.616   3
  -2   0   5-17.6268 125.500   3
   2   0  -4 1103.06 291.914   1
  -2   0   4 1506.93 420.466   3
   2   0  -3 380.195 216.187   3
   2   0  -2 854625. 7933.84   3
   2   0  -1 373.672 155.532   3
  -2   0   0 2048.87 328.340   3
   2   0   0 1501.79 253.312   3
   2   0   1 325.344 162.925   1
   2   0   1 68.8031 50.9006   3
  -2   0  -1 484.640 137.889   2
   2   0   2 482414. 6335.25   1
   2   0   3 534.262 272.531   1
   2   0   4 71266.5 3051.78   1
   2   0   5-360.146 267.438   1
   2   0   6 581551. 10699.7   1
   2   0   7-458.121 321.216   1
  -2  -2   9 38446.7 3143.42   3
  -2  -2   8 118903. 5163.39   3
  -2   2   8 120388. 4570.50   2
  -2   2   7 105269. 4151.96   2
   2   2  -7 104953. 3507.83   1
  -2  -2   7 101339. 4423.11   3
  -2  -2   6 119760. 4438.58   3
  -2   2   6 119685. 4253.07   2
   2   2  -6 122406. 4371.47   3
   2  -2  -6 122153. 4769.68   3
   2   2  -5 96514.3 2546.85   1
   2   2  -5 97965.0 3615.55   3
   2  -2  -5 98366.4 4156.94   3
   2  -2  -5 94722.6 3396.81   1
  -2  -2   5 98141.0 3711.07   3
  -2   2   5 96977.4 3644.02   2
  -2   2   4 853222. 10293.4   2
   2   2  -4 849846. 6285.31   1
   2   2  -4 856778. 9910.43   3
   2  -2  -4 855158. 11582.5   3
  -2  -2   4 829246. 9988.42   3
   2   2  -3 45675.2 2095.75   3
   2   2  -3 41525.9 1171.34   1
  -2   2   3 41134.9 2188.13   2
   2  -2  -3 46348.1 2518.47   3
   2  -2  -2 40008.0 2064.39   2
   2   2  -2 38297.3 1751.09   3
   2   2  -1 325940. 3332.98   1
   2   2  -1 330289. 4634.78   3
   2  -2  -1 318616. 5383.71   2
  -2  -2   0 67482.8 1932.49   3
  -2   2   0 66205.8 2261.33   2
   2   2   0 66503.7 1859.12   1
   2  -2   0 67958.8 2308.14   2
  -2  -2  -1 378948. 4067.76   3
  -2  -2  -1 375872. 3956.70   2
  -2   2  -1 386610. 5097.21   2
   2   2   1 383164. 5172.26   1
   2  -2   1 375929. 5241.90   2
   2   2   2 329954. 5485.77   1
  -2  -2  -2 327335. 3239.08   3
   2  -2   2 334960. 4815.62   2
  -2   2  -2 322039. 4504.53   2
   2  -2   2 322261. 5061.84   1
  -2  -2  -2 323598. 3188.91   2
   2   2   3 79320.2 3034.57   1
   2  -2   3 77185.7 2254.30   3
  -2  -2  -3 76653.1 1176.62   3
  -2  -2  -3 77949.3 1386.42   3
  -2  -2  -3 83568.0 3143.75   1
   2  -2   3 77533.9 2811.00   1
   2  -2   3 79227.4 2300.16   2
   2   2   4 405129. 7624.40   1
   2  -2   4 404009. 5370.70   3
   2  -2   4 396560. 5162.78   2
   2  -2   4 421031. 7160.26   1
   2  -2   5 58176.2 1903.26   2
   2  -2   5 55229.2 2880.18   1
   2   2   5 55615.1 3121.28   1
   2  -2   5 59152.5 2119.17   3
   2   2   6 39119.5 2900.54   1
   2  -2   6 39044.4 2675.15   1
   2  -2   7 62016.6 3672.88   1
   2   2   7 59479.2 3933.99   1
   2  -2   8 131849. 5896.75   1
  -2  -4   9 63904.2 4325.21   3
  -2  -4   8 266300. 8363.71   3
  -2   4   8 267334. 6905.77   2
  -2   4   7 5329.84 982.083   2
  -2  -4   7 4913.24 1131.56   3
  -2   4   6 70446.9 3499.13   2
  -2  -4   6 74354.6 3854.97   3
  -2  -4   5 8697.96 1251.81   3
  -2   4   5 7170.57 1079.87   2
  -2  -4   4 336017. 7243.32   3
   2  -4  -4 341360. 6849.30   1
  -2  -4   4 340268. 6906.80   2
  -2   4   4 337074. 7155.58   2
   2  -4  -3 127641. 4464.47   2
  -2  -4   3 130548. 4057.69   2
   2  -4  -3 121966. 3848.09   1
  -2   4   3 114664. 4088.54   2
  -2  -4   2 54725.1 2516.20   2
   2  -4  -2 52522.8 2714.73   2
  -2  -4   1 38486.1 2018.52   2
   2   4  -1 36806.5 1241.06   1
   2  -4  -1 38596.9 2258.95   2
   2   4   0 687927. 6701.32   1
  -2  -4   0 696996. 8112.48   2
  -2  -4   0 686414. 6715.04   1
  -2   4   0 656183. 9164.19   2
   2  -4   0 657225. 9051.04   2
   2   4   1 42336.4 1935.58   1
  -2   4  -1 37748.6 2133.20   2
  -2  -4  -1 41202.6 1889.34   2
  -2  -4  -1 41450.6 1934.42   1
   2  -4   1 41909.9 2253.11   2
  -2   4  -2 1499.28 431.134   2
  -2  -4  -2 1238.35 322.131   2
  -2  -4  -2 1494.62 458.244   1
  -2  -4  -2 1163.29 314.891   3
   2  -4   2 1543.39 451.679   2
   2   4   2 1106.22 378.201   1
  -2  -4  -3 132608. 3349.61   3
   2   4   3 138231. 4395.02   1
   2  -4   3 138349. 3705.61   1
   2  -4   3 144964. 4283.23   3
   2  -4   3 145862. 4257.92   2
  -2  -4  -3 144691. 3485.69   2
   2  -4   4 404777. 7315.09   3
  -2  -4  -4 405449. 5778.49   2
   2  -4   4 408792. 7194.85   2
  -2  -4  -4 390614. 5393.06   3
   2  -4   4 390145. 6805.57   1
  -2  -4  -4 398419. 6599.16   3
   2   4   4 391063. 8175.09   1
   2  -4   5 28317.6 1998.65   1
   2  -4   5 30194.9 2082.83   3
   2   4   5 26688.9 2353.52   1
   2  -4   6 53273.9 2962.23   1
   2   4   6 52117.1 3575.04   1
  -2  -6   8 1745.60 794.593   3
  -2  -6   7 348.937 437.042   3
  -2   6   7 810.778 435.002   2
  -2   6   6 211881. 6825.24   2
  -2  -6   6 235616. 7959.63   3
  -2  -6   5 35379.5 2922.28   3
  -2   6   5 34269.3 2699.58   2
  -2  -6   4 49302.8 3291.29   3
  -2   6   4 48850.5 3165.92   2
  -2  -6   3 136720. 5257.90   3
  -2   6   3 142939. 5338.22   2
  -2  -6   2 390234. 8605.13   3
   2  -6  -2 400285. 7244.11   1
  -2   6   2 396793. 8798.30   2
  -2   6   1 4147.22 909.837   2
  -2  -6   1 3868.57 851.071   3
   2   6   0 6544.69 795.402   1
  -2  -6   0 4770.20 909.092   3
  -2   6   0 7377.44 1202.16   2
  -2  -6   0 7047.75 763.758   1
   2   6   1 3885.58 697.745   1
  -2   6  -1 4387.74 931.783   2
  -2  -6  -1 4356.91 853.422   3
  -2  -6  -1 5408.50 772.694   1
  -2  -6  -2 459959. 8390.75   3
  -2   6  -2 450773. 9270.02   2
   2   6   2 473102. 8442.78   1
   2   6   3 30112.3 2327.52   1
   2  -6   3 29590.2 2411.81   3
  -2  -6  -3 34898.5 2275.76   3
   2  -6   3 34847.0 1848.51   1
   2  -6   4 8197.65 1298.92   3
   2   6   4 7172.93 1255.98   1
  -2  -6  -4 8476.51 1121.74   3
   2  -6   4 7807.71 930.007   1
   2  -6   5 30458.9 2544.48   3
   2   6   5 27962.3 2664.13   1
  -2   8   6 67428.3 4352.30   2
  -2  -8   5 96335.3 5571.87   3
  -2   8   5 100416. 5342.51   2
  -2   8   4 25855.3 2685.84   2
  -2  -8   4 26780.5 2841.41   3
  -2  -8   3 55708.6 3941.29   3
  -2   8   3 59633.4 4065.77   2
  -2  -8   2 169863. 6660.50   3
  -2   8   2 182310. 7116.36   2
  -2  -8   1 68879.6 4121.47   3
  -2   8   1 67711.6 4344.02   2
  -2  -8   0 150154. 5937.11   3
  -2   8   0 148304. 6420.63   2
  -2   8  -1 42936.6 3452.29   2
  -2  -8  -1 37302.4 2934.26   3
  -2  -8  -2 83980.0 4353.34   3
   2  -8   2 82716.8 4718.29   3
  -2   8  -2 89085.0 4881.36   2
   2  -8   3 11778.6 1797.58   3
  -2  -8  -3 11204.6 1610.51   3
   2  -8   4 24593.8 2667.26   3
  -3   1   9 79703.9 4333.71   2
  -3  -1   9 73633.1 4563.35   3
  -3  -1   8 36170.9 2981.46   3
  -3   1   8 37000.3 2797.69   2
   3   1  -7 41076.0 2242.27   1
  -3   1   7 41834.3 3028.26   3
  -3  -1   7 42612.5 2984.89   3
   3   1  -6 121183. 3517.76   1
  -3  -1   6 124333. 4685.35   3
  -3   1   6 117368. 4766.12   3
   3  -1  -6 121986. 4961.70   3
   3  -1  -5 341500. 6301.19   1
   3   1  -5 347984. 7189.36   3
  -3   1   5 335463. 7591.47   3
  -3  -1   5 319131. 7017.60   3
   3  -1  -5 346294. 7799.97   3
   3   1  -4 28049.2 1901.29   3
   3  -1  -4 28212.9 2078.00   3
   3  -1  -3 498923. 8135.25   3
   3   1  -3 506078. 7394.50   3
   3  -1  -2 27918.0 1806.92   3
   3   1  -2 28138.5 1579.58   3
  -3   1   1 539846. 7697.62   2
  -3  -1   1 557539. 6524.01   3
   3  -1  -1 530578. 7237.00   3
   3   1  -1 533579. 6138.45   3
  -3   1   0 3334.18 562.267   2
   3   1   0 3946.63 454.963   3
  -3  -1   0 3636.14 478.836   3
   3   1   1 52467.3 1248.57   3
   3  -1   1 49493.1 1790.87   3
  -3  -1  -1 51622.4 1505.61   3
   3   1   1 52011.3 2197.79   1
  -3   1  -1 52561.2 1875.87   2
   3  -1   2 16005.3 866.817   3
  -3   1  -2 17545.6 890.437   2
   3  -1   2 16675.8 1356.62   1
   3   1   2 14330.5 1275.03   1
   3  -1   3 135264. 4250.59   1
   3   1   3 128718. 4184.58   1
   3   1   4 47690.7 2798.20   1
   3  -1   4 47520.3 2717.30   1
   3  -1   5 92870.8 4171.23   1
   3   1   5 99718.9 4435.85   1
   3  -1   6 44777.4 3123.78   1
   3   1   6 45314.3 3255.03   1
   3  -1   7 174891. 6719.64   1
  -3  -3   9 10915.7 1787.15   3
  -3   3   9 10842.6 1631.65   2
  -3  -3   8 3266.88 925.040   3
  -3   3   8 3313.72 861.640   2
  -3  -3   7 138711. 5584.08   3
  -3   3   7 150220. 5518.24   2
  -3  -3   6-335.278 267.554   3
  -3   3   6 640.627 400.264   2
   3   3  -6 348.289 170.016   1
   3   3  -5 118201. 2464.12   1
  -3  -3   5 126505. 4664.41   3
  -3   3   5 121474. 4683.12   2
   3   3  -4 22030.3 1780.34   3
   3   3  -4 19410.3 900.578   1
  -3   3   4 19538.6 1841.28   2
   3  -3  -4 19540.0 1944.81   3
  -3  -3   4 19734.8 1717.97   3
   3  -3  -4 18955.6 1604.45   1
   3   3  -3 650045. 8977.72   3
   3  -3  -3 666109. 10804.8   3
   3   3  -2 5121.70 731.538   3
   3  -3  -2 4159.82 794.845   2
   3   3  -2 4753.83 462.133   1
   3  -3  -1 100926. 3688.89   2
   3   3  -1 99621.5 3067.87   3
   3   3  -1 100734. 2473.91   1
  -3  -3   0 154026. 3636.97   3
   3  -3   0 151823. 4314.75   2
  -3  -3   0 146475. 3368.74   2
   3   3   0 149207. 3421.62   1
  -3  -3  -1 305955. 4705.33   3
   3   3   1 306502. 5444.09   1
   3  -3   1 307233. 6028.87   2
  -3  -3  -1 297941. 4483.84   2
  -3  -3  -2 558.161 183.953   2
  -3  -3  -2 175.611 109.470   3
   3  -3   2 197.542 163.111   2
   3   3   2 520.844 274.300   1
   3  -3   3 40333.4 1962.64   3
   3   3   3 36352.5 2330.80   1
   3  -3   3 39612.3 2269.51   1
  -3  -3  -3 40944.2 1129.15   3
  -3  -3  -3 37818.6 1160.78   2
   3  -3   3 39712.0 2082.40   2
   3  -3   4 34542.1 1913.15   2
   3  -3   4 34806.5 1793.44   3
   3   3   4 32923.1 2432.48   1
   3  -3   4 32066.4 2199.98   1
   3  -3   5 181337. 5677.60   1
   3   3   5 192925. 6392.26   1
   3   3   6-189.230 306.981   1
   3  -3   6-220.692 301.024   1
   3  -3   7 45181.2 3295.50   1
  -3  -5   9 88773.3 5455.51   3
  -3  -5   8 8689.76 1659.39   3
  -3   5   8 7562.18 1375.79   2
  -3   5   7 88416.9 4528.97   2
  -3  -5   7 91861.9 5016.26   3
  -3   5   6 7021.25 1272.48   2
  -3  -5   6 6567.70 1281.52   3
  -3   5   5 136067. 5342.17   2
  -3  -5   5 144664. 5652.45   3
  -3  -5   4 42957.8 2911.27   3
  -3   5   4 41706.2 2900.69   2
  -3  -5   3 118314. 4565.27   3
  -3   5   3 123458. 4877.96   2
  -3  -5   2 134869. 4658.89   3
   3   5  -2 142691. 2450.30   1
  -3   5   2 135560. 5088.23   2
  -3  -5   1 345057. 7154.73   3
   3   5  -1 344137. 4911.03   1
  -3   5   1 346154. 8022.19   2
  -3  -5   0 11821.9 1273.05   3
   3   5   0 11914.1 1067.87   1
  -3  -5   0 11898.2 1219.25   2
  -3   5   0 12400.1 1493.48   2
  -3  -5  -1 76432.7 3101.90   3
   3   5   1 80727.6 3099.71   1
  -3   5  -1 77425.0 3620.77   2
  -3  -5  -1 81659.0 3033.00   2
  -3  -5  -2 20311.8 1528.71   3
  -3   5  -2 22736.0 1929.39   2
   3   5   2 20969.4 1759.98   1
  -3  -5  -2 20909.2 1510.94   2
   3  -5   3 107409. 4142.82   3
  -3   5  -3 101260. 3962.46   2
   3  -5   3 104587. 3687.94   1
   3   5   3 102233. 4234.61   1
   3  -5   4 22668.9 1914.37   3
   3   5   4 22704.4 2187.19   1
   3  -5   4 23864.1 1894.26   1
   3  -5   5 103864. 4149.30   1
   3   5   5 105653. 5130.57   1
  -3   7   7 16709.0 2226.29   2
  -3   7   6 15802.3 2111.39   2
  -3  -7   6 18436.9 2441.41   3
  -3   7   5 206744. 7512.03   2
  -3  -7   5 217897. 8000.14   3
  -3   7   4 372.190 391.285   2
  -3  -7   4 13.1850 250.650   3
  -3  -7   3 43185.5 3276.06   3
  -3   7   3 44861.3 3473.19   2
  -3  -7   2 8619.14 1424.11   3
  -3   7   2 10182.5 1649.60   2
  -3  -7   1 116512. 5017.08   3
  -3   7   1 125552. 5706.96   2
  -3  -7   0 76665.4 3960.90   3
   3   7   0 79569.5 3157.31   1
  -3   7   0 82907.4 4630.10   2
  -3  -7  -1 87121.8 4116.98   3
   3   7   1 89055.9 3701.97   1
  -3   7  -1 93376.9 4843.49   2
  -3  -7  -2 7835.43 1228.62   3
  -3   7  -2 7519.20 1382.71   2
   3   7   2 5865.69 1048.29   1
  -3  -7  -3 229864. 6269.51   3
   3   7   3 221111. 6997.42   1
   3  -7   3 218977. 7237.59   3
   3  -7   4 2482.95 771.141   3
   3   7   4 1186.58 582.351   1
  -3   9   2 135.313 358.745   2
  -3  -9   2 15.4270 217.670   3
  -3  -9   1 45914.4 3679.22   3
  -3   9   1 51726.1 4296.69   2
  -3  -9   0 6049.37 1323.30   3
  -3  -9  -1 160604. 6631.69   3
  -3  -9  -2 2871.12 918.518   3
  -4   0  10 7014.21 1414.55   2
  -4   0   9 514.807 499.589   3
  -4   0   8 420661. 10591.6   3
  -4   0   7-137.891 304.194   3
   4   0  -6 11381.2 1232.91   1
  -4   0   6 12721.3 1630.09   3
  -4   0   5 5.96845 184.972   3
   4   0  -5 560.737 331.503   3
   4   0  -4 317298. 7053.54   3
   4   0  -3 2.26277 107.204   3
   4   0  -2 286233. 5765.53   3
  -4   0   1 41.3414 155.126   3
   4   0  -1 117.056 129.078   3
  -4   0   0 996567. 10570.9   2
   4   0   0 999999. 8525.50   3
   4   0   1 1151.59 386.649   1
  -4   0  -1 1255.49 324.689   2
  -4   0  -2 8146.10 533.103   2
   4   0   2 8330.67 1100.02   1
   4   0   3-110.172 204.221   1
   4   0   4 315005. 7792.21   1
   4   0   5-110.532 179.736   1
  -4  -2  10 220429. 8804.24   3
  -4   2   9 16787.2 2105.39   2
  -4  -2   9 18891.0 2432.91   3
  -4   2   8 12308.8 1781.12   2
  -4  -2   8 11279.0 1738.74   3
  -4   2   7 82135.8 4328.97   2
   4   2  -7 78983.4 3009.95   1
  -4  -2   7 87439.0 4511.31   3
  -4   2   6 144629. 5507.91   2
  -4  -2   6 144731. 5405.12   3
  -4   2   5 138461. 5185.16   2
  -4  -2   5 135985. 4925.00   3
   4   2  -4 187468. 5234.00   3
  -4   2   4 179578. 5731.74   2
   4  -2  -4 192003. 6123.19   3
  -4  -2   4 184944. 5435.90   3
   4   2  -3 85876.7 3284.87   3
   4  -2  -3 87282.7 3911.77   3
  -4  -2   3 86667.4 3519.37   3
   4   2  -2 299222. 5718.43   3
  -4   2   2 287522. 6873.29   2
   4  -2  -2 300763. 6819.17   3
   4   2  -1 166898. 3920.37   3
   4  -2  -1 165386. 4774.50   3
   4   2   0 241552. 4231.19   3
   4   2   0 242882. 5042.87   1
   4  -2   0 227684. 5350.43   3
  -4  -2   0 244412. 4634.85   3
   4  -2   1 143758. 4010.51   3
   4   2   1 141779. 4232.86   1
  -4  -2  -1 146612. 3151.42   3
  -4  -2  -2 374604. 3571.64   2
   4  -2   2 373430. 7265.76   1
  -4   2  -2 371933. 5576.91   2
   4  -2   2 370535. 5909.26   3
   4   2   2 386947. 7486.97   1
   4   2   3 28609.9 2226.40   1
   4  -2   3 32836.2 1308.95   3
  -4   2  -3 31442.9 1387.94   2
   4  -2   3 30441.2 2252.46   1
   4  -2   3 31272.0 1418.38   3
   4   2   4 3285.17 822.132   1
   4  -2   4 3876.59 885.449   1
   4  -2   5 40618.0 2971.61   1
   4   2   5 39572.8 3062.13   1
   4  -2   6 71710.9 4246.83   1
  -4   4   9 32805.4 3026.52   2
  -4  -4   9 33526.0 3336.07   3
  -4  -4   8 44488.8 3601.01   3
  -4   4   8 43381.5 3399.23   2
  -4  -4   7 3557.69 1015.78   3
  -4   4   7 3189.83 929.633   2
   4   4  -6 236453. 3378.97   1
  -4   4   6 243989. 7653.90   2
  -4  -4   6 239911. 7486.25   3
   4   4  -5 23390.1 1010.71   1
  -4   4   5 23977.2 2302.48   2
  -4  -4   5 22835.7 2194.59   3
  -4  -4   4 2022.42 613.647   3
  -4   4   4 740.612 440.854   2
   4   4  -3 192024. 3260.10   1
  -4   4   3 198750. 6477.90   2
  -4  -4   3 202250. 5842.04   3
   4   4  -2 695019. 7096.52   1
  -4  -4   2 678682. 10174.6   3
   4   4  -1 46702.2 2051.83   1
  -4   4   1 45305.2 2890.53   2
  -4  -4   1 47189.2 2549.10   3
   4   4   0 56317.8 2472.43   1
   4  -4   0 58408.6 3216.44   2
  -4  -4   0 61027.7 2594.46   2
  -4   4   0 58689.7 3163.71   2
  -4  -4   0 59398.5 2693.45   3
  -4  -4  -1 875.868 293.422   2
  -4   4  -1 369.007 244.308   2
   4  -4   1 857.381 383.839   2
   4   4   1 201.578 196.166   1
   4  -4   2 201997. 5834.80   2
   4   4   2 204238. 5708.94   1
  -4  -4  -2 215806. 4262.91   3
  -4   4  -2 199875. 5371.77   2
  -4  -4  -2 212403. 4121.54   2
   4  -4   3 39379.6 2229.24   3
   4   4   3 34832.7 2533.34   1
  -4   4  -3 35721.4 2150.03   2
   4  -4   3 36628.0 2458.11   1
   4   4   4 18444.5 2027.85   1
   4  -4   4 18887.5 1906.72   1
   4  -4   5 23408.9 2215.73   1
  -4   6   8 150831. 6670.89   2
  -4  -6   7 7033.83 1488.60   3
  -4   6   7 7986.39 1480.57   2
  -4   6   6 15718.1 2062.44   2
  -4  -6   6 17006.1 2252.23   3
  -4  -6   5 1178.50 608.834   3
  -4   6   5 3847.81 1007.64   2
  -4   6   4 421506. 10504.4   2
  -4  -6   4 414837. 10061.7   3
  -4  -6   3 32410.5 2717.43   3
   4   6  -3 32871.8 972.620   1
  -4   6   3 30794.5 2846.12   2
  -4  -6   2 1699.72 626.845   3
  -4   6   2 442.231 432.186   2
   4   6  -2 1308.23 304.503   1
  -4   6   1 6238.33 1298.98   2
  -4  -6   1 4519.32 944.743   3
   4   6  -1 5723.68 771.424   1
  -4  -6   0 283443. 6969.87   3
   4   6   0 291086. 6069.59   1
  -4   6   0 290650. 8351.50   2
  -4   6  -1 5034.51 1101.85   2
  -4  -6  -1 5434.90 918.074   3
   4   6   1 5200.64 913.450   1
  -4  -6  -2 27485.7 1989.42   3
  -4   6  -2 26808.0 2442.65   2
   4   6   2 28309.8 2310.13   1
   4  -6   3 73012.5 3826.65   3
  -4   6  -3 70560.8 3774.14   2
   4  -6   3 69456.6 3434.63   1
   4   6   3 71365.2 3984.00   1
   4   6   4 177286. 6760.45   1
  -4   8   5 50121.7 4187.59   2
  -4  -8   4 98901.3 5678.41   3
  -4   8   4 99366.7 5829.04   2
  -4   8   3 2678.42 954.905   2
  -4  -8   3 3549.73 1047.45   3
  -4  -8   2 62456.7 4195.18   3
  -4   8   2 67242.9 4832.55   2
  -4  -8   1 37994.5 3155.42   3
  -4   8   1 39823.1 3691.38   2
  -4  -8   0 72850.6 4255.20   3
  -4   8   0 83207.4 5325.04   2
  -4  -8  -1 111244. 5087.43   3
  -4   8  -1 122671. 6330.56   2
   4   8   2 33317.8 2771.45   1
  -4   8  -2 36672.0 3332.75   2
  -5   1  10 28196.1 2980.91   2
  -5  -1  10 32224.2 3403.39   3
  -5   1   9 95779.7 5480.86   2
  -5  -1   9 104756. 5909.80   3
  -5  -1   8 15932.0 2192.76   3
  -5   1   7 258298. 8472.43   3
  -5  -1   7 255444. 8131.90   3
  -5   1   6 2264.32 760.660   3
  -5  -1   6 1625.71 611.395   3
  -5   1   5 51604.2 3415.18   3
  -5  -1   5 45772.4 3058.13   3
  -5   1   4 1804.89 631.268   3
  -5  -1   4 1484.79 575.965   3
  -5  -1   3 132910. 4701.66   3
   5  -1  -3 134143. 4778.52   3
   5   1  -3 139370. 4526.95   3
  -5  -1   2 13967.8 1450.42   3
   5  -1  -2 16323.4 1584.79   3
   5   1  -2 14537.6 1376.40   3
  -5   1   1 129128. 4756.73   2
   5  -1  -1 135820. 4200.05   3
   5   1  -1 131101. 3730.75   3
   5   1   0 116192. 3052.64   3
  -5  -1   0 116365. 3734.90   3
   5   1   0 112327. 3940.30   1
   5  -1   0 115425. 3508.79   3
  -5  -1  -1 340476. 6072.58   2
   5   1   1 348403. 4104.56   3
   5   1   1 335565. 7304.54   1
   5  -1   1 347107. 5353.48   3
  -5   1  -2 53296.6 1880.54   2
   5  -1   2 50854.4 3031.00   1
  -5  -1  -2 46485.1 1242.11   2
   5   1   2 50342.6 3047.38   1
   5  -1   2 53357.6 1419.67   3
   5  -1   3 109506. 4752.94   1
   5   1   3 113426. 4821.68   1
   5  -1   4 751.896 384.833   1
   5   1   4 1805.35 669.515   1
  -5   3  10 16620.9 2322.03   2
  -5  -3   9 206221. 8391.59   3
  -5   3   9 199895. 7809.98   2
  -5  -3   8 273.423 307.252   3
  -5   3   8 215.536 390.748   2
  -5   3   7 50873.3 3687.31   2
  -5  -3   7 48630.5 3599.62   3
  -5   3   6 47197.0 3436.68   2
  -5  -3   6 46373.8 3286.69   3
  -5   3   5 285213. 8208.61   2
  -5  -3   5 292399. 7939.42   3
  -5   3   4 7668.85 1363.65   2
  -5  -3   4 8198.58 1286.09   3
  -5  -3   3 14986.4 1635.47   3
  -5   3   3 16016.5 1895.37   2
   5   3  -2 13814.8 1380.80   3
   5   3  -2 15799.6 1279.74   1
  -5  -3   2 12912.4 1438.59   3
  -5   3   2 13924.9 1750.48   2
   5   3  -1 262135. 5608.23   3
   5   3  -1 260974. 5615.06   1
   5  -3  -1 276865. 7049.37   3
  -5   3   1 249363. 7012.34   2
  -5  -3   1 271629. 6222.11   3
   5  -3   0 676.636 432.032   3
  -5   3   0 492.311 262.498   2
   5   3   0 715.531 330.437   1
  -5  -3  -1 123201. 3203.91   2
   5  -3   1 122646. 4383.82   3
  -5   3  -1 122424. 4243.30   2
  -5  -3  -1 128438. 3495.32   3
   5   3   1 122481. 4422.95   1
   5  -3   2 927.437 401.049   1
  -5   3  -2 667.748 301.315   2
   5   3   2 876.778 419.280   1
   5   3   3 223766. 7004.49   1
   5  -3   3 220940. 6711.94   1
   5   3   4 449.429 373.110   1
   5  -3   4 510.140 374.610   1
  -5  -5   8 20651.0 2667.58   3
  -5   5   8 20908.6 2545.50   2
  -5   5   7 164816. 6998.84   2
  -5  -5   7 154888. 6951.92   3
  -5   5   6 10614.3 1754.23   2
  -5  -5   6 11536.9 1830.21   3
  -5   5   5 38224.8 3246.05   2
  -5  -5   5 38962.9 3154.74   3
   5   5  -4 80069.8 2162.95   1
  -5   5   4 82124.0 4738.22   2
  -5  -5   4 76290.3 4223.04   3
  -5   5   3 179108. 6897.95   2
   5   5  -3 182875. 3764.63   1
  -5  -5   3 173400. 6045.00   3
  -5   5   2 54830.4 3762.45   2
   5   5  -2 45284.7 2108.35   1
  -5  -5   2 52777.4 3196.02   3
   5   5  -1 121928. 3829.19   1
  -5   5   1 119004. 5436.94   2
  -5  -5   1 129189. 4757.59   3
  -5  -5   0 3651.89 789.957   3
  -5   5   0 3874.55 949.586   2
   5   5   0 2740.33 621.753   1
   5   5   1 95061.5 4046.42   1
  -5   5  -1 97662.5 4580.03   2
  -5  -5  -1 99610.1 3731.36   3
   5  -5   2 1843.06 606.288   1
   5   5   2 1915.66 612.019   1
   5   5   3 68566.6 4008.30   1
   5  -5   3 66605.9 3737.50   1
   5  -5   4 60470.2 3723.97   1
  -5   7   6 58679.9 4456.41   2
  -5   7   5 92432.4 5574.59   2
  -5  -7   5 94237.1 5512.87   3
  -5   7   4 14530.9 2213.44   2
  -5  -7   4 15047.0 2150.90   3
  -5   7   3 187107. 7956.21   2
  -5  -7   3 170324. 6909.91   3
  -5   7   2 944.868 602.829   2
  -5  -7   2-172.393 277.481   3
  -5   7   1 21847.5 2701.99   2
  -5  -7   1 20039.7 2179.16   3
  -5   7   0 10577.1 1844.08   2
   5   7   0 12355.6 1427.94   1
  -5  -7   0 10158.1 1472.86   3
  -5   7  -1 187948. 7559.84   2
   5   7   1 171823. 5850.21   1
  -5   7  -2 4870.98 1161.82   2
   5   7   2 4083.37 983.263   1
  -6   0   9-27.3247 232.603   3
  -6   0   8 40275.2 3663.47   3
  -6   0   7 376.590 361.090   3
  -6   0   6 409050. 10477.9   3
  -6   0   5-197.065 329.419   3
  -6   0   4 9931.74 1495.69   3
  -6   0   3-88.4188 220.487   3
   6   0  -2 501070. 8886.66   3
   6   0  -1 419.778 231.651   3
  -6   0   1 578.683 378.258   2
  -6   0   0 14825.1 1592.73   2
   6   0   0 14568.8 1234.20   3
   6   0   1-391.297 319.931   1
   6   0   2 302466. 8225.96   1
   6   0   3 108.812 223.343   1
  -6   2   9 33088.2 3380.94   2
  -6  -2   9 27487.9 3191.11   3
  -6   2   8 107816. 5890.68   2
  -6  -2   8 108574. 5968.01   3
  -6   2   7 90716.0 5206.84   2
  -6  -2   7 92368.6 5181.04   3
  -6   2   6 204689. 7553.32   2
  -6  -2   6 227496. 7718.46   3
  -6   2   5 108355. 5307.05   2
  -6  -2   5 111530. 5161.00   3
  -6   2   4 279307. 8323.95   2
  -6  -2   4 277438. 7789.89   3
  -6   2   3 30806.2 2718.28   2
  -6  -2   3 34403.1 2623.30   3
  -6  -2   2 2791.85 743.357   3
   6   2  -2 2722.66 650.362   3
  -6   2   2 2014.51 738.526   2
   6   2  -1 55453.9 2637.13   3
   6   2  -1 54287.3 2913.15   1
  -6  -2   1 55456.1 3005.44   3
   6  -2  -1 54091.3 3080.94   3
  -6   2   1 51383.6 3363.09   2
   6   2   0 189167. 4331.65   3
   6   2   0 185737. 5729.66   1
   6  -2   0 186381. 5292.10   3
  -6   2   0 185403. 5846.13   2
  -6   2  -1 96408.6 3667.67   2
   6   2   1 96521.9 4404.79   1
   6  -2   2 96090.0 4611.21   1
   6   2   2 95258.3 4598.61   1
   6   2   3 43458.3 3302.60   1
   6  -2   3 44371.3 3322.76   1
  -6  -4   8 293485. 10072.5   3
  -6   4   8 306213. 10039.5   2
  -6  -4   7 26465.4 2880.39   3
  -6   4   7 25706.9 2896.37   2
  -6  -4   6 7557.14 1501.08   3
  -6   4   6 8325.16 1587.13   2
  -6  -4   5 14761.1 1974.99   3
  -6   4   5 16520.0 2198.84   2
  -6  -4   4 298582. 8488.18   3
  -6   4   4 304801. 9345.28   2
   6   4  -3 53292.2 2516.55   1
  -6  -4   3 56992.9 3541.95   3
  -6   4   3 60089.0 4133.42   2
   6   4  -2 38004.3 2271.46   1
  -6   4   2 45199.4 3505.58   2
  -6  -4   2 39943.4 2822.86   3
  -6   4   1 9758.47 1542.34   2
   6   4  -1 11509.1 1345.61   1
  -6  -4   1 11112.0 1395.94   3
  -6   4   0 186113. 6490.24   2
  -6  -4   0 193687. 5444.12   3
   6   4   0 173180. 5488.51   1
  -6   4  -1 2596.38 739.563   2
   6   4   1 3485.89 827.711   1
   6  -4   2 6409.97 1184.39   1
   6   4   2 6363.30 1266.10   1
   6  -4   3 49664.8 3512.19   1
  -6   6   6 273595. 9563.09   2
  -6  -6   6 272005. 9595.40   3
  -6  -6   5 855.047 571.393   3
  -6   6   5 621.235 486.539   2
  -6   6   4 12611.6 2055.90   2
  -6  -6   4 11945.0 1878.39   3
  -6   6   3 84182.7 5345.24   2
  -6  -6   3 82281.1 4660.91   3
   6   6  -2 198937. 5068.48   1
  -6   6   2 195789. 8106.13   2
  -6  -6   2 192205. 6822.82   3
   6   6  -1 36220.2 2377.79   1
  -6   6   1 42021.6 3721.52   2
  -6  -6   1 40290.2 3002.75   3
   6   6   0 17244.7 1794.77   1
  -6   6   0 21891.9 2599.25   2
  -6   6  -1 939.991 537.997   2
   6   6   1 1020.32 472.196   1
   6  -6   2 208281. 7087.99   1
  -6  -8   2 157648. 6902.31   3
  -7  -1   8-369.635 408.825   3
  -7   1   8 657.576 493.471   2
  -7   1   7 34148.1 3339.22   2
  -7  -1   7 32273.4 3265.53   3
  -7   1   6 32543.7 3160.53   2
  -7  -1   6 34864.7 3256.52   3
  -7   1   5 220418. 7997.38   2
  -7  -1   5 233206. 8086.65   3
  -7   1   4 57903.5 3980.24   2
  -7  -1   4 64186.8 4058.79   3
  -7   1   3 163677. 6557.65   2
  -7  -1   3 163092. 6228.93   3
  -7   1   2 26345.3 2569.16   2
  -7  -1   2 27135.5 2471.75   3
  -7  -1   1 153642. 5784.17   2
  -7   1   1 155532. 6002.45   2
   7   1   0 6609.73 1208.18   1
  -7   1   0 6911.27 1147.32   2
  -7  -1   0 5573.80 1040.14   2
   7  -1   1 13465.5 1817.32   1
   7   1   1 13080.8 1793.56   1
  -7   3   8 1579.87 800.040   2
  -7   3   7 167331. 7574.23   2
  -7  -3   7 151658. 7144.50   3
  -7  -3   6 6206.76 1399.65   3
  -7   3   6 4669.90 1226.25   2
  -7   3   5 74473.7 4836.46   2
  -7  -3   5 71837.3 4498.64   3
  -7  -3   4 15396.5 1968.51   3
  -7   3   4 11011.6 1817.36   2
  -7  -3   3 242977. 7598.94   3
  -7   3   3 248979. 8606.27   2
   7   3  -2 13566.4 1542.95   1
  -7  -3   2 13646.3 1726.78   3
  -7   3   2 15672.6 2133.18   2
   7   3  -1 24288.9 2208.40   1
  -7  -3   1 26442.0 2303.44   3
  -7   3   1 28473.9 2756.36   2
  -7   3   0 19951.2 2096.09   2
   7   3   0 15526.0 1860.60   1
   7  -3   1 146192. 6090.31   1
   7   3   1 143651. 5886.57   1
  -7  -5   6-415.675 424.879   3
  -7   5   6-474.617 566.240   2
  -7  -5   5 88917.2 5225.21   3
  -7   5   5 94583.6 5781.24   2
  -7  -5   4 4760.34 1158.85   3
  -7   5   4 4091.09 1256.48   2
   7   5  -3 109453. 4021.28   1
  -7   5   3 110438. 6141.07   2
  -7  -5   3 97182.3 5023.68   3
  -7   5   2 28925.9 3109.49   2
  -7  -5   2 30949.6 2707.10   3
   7   5  -2 30079.8 2242.38   1
  -7   5   1 105358. 5777.69   2
   7   5  -1 94717.2 4262.31   1
  -7   5   0 10279.6 1749.97   2
   7   5   0 8660.93 1340.87   1
  -7  -7   3 4029.61 1115.11   3
  -7  -7   2 2.38641 186.365   3
  -8   0   7-1185.20 718.550   3
  -8   0   6 29223.6 3271.21   3
  -8   0   4 366487. 10722.5   2
  -8   0   3 435.275 405.368   2
  -8   0   2 51842.5 3815.94   2
  -8   0   1 168.532 244.089   2
  -8   2   7 45210.9 4152.21   2
  -8  -2   7 44759.2 4097.64   3
  -8   2   6 147876. 7318.55   2
  -8  -2   6 156056. 7413.10   3
  -8   2   5 64165.1 4665.73   2
  -8  -2   5 64107.3 4569.99   3
  -8   2   4 26433.3 2959.11   2
  -8  -2   4 25756.8 2764.67   3
  -8  -2   3 30990.3 2916.06   3
  -8   2   3 34022.0 3286.75   2
   8   2  -2 145731. 5664.27   1
  -8  -2   2 160673. 6389.42   3
  -8   2   2 159464. 6917.99   2
   8   2  -1 52340.8 3570.74   1
  -8   2   1 57674.4 3926.40   2
  -8  -4   6 100288. 6010.23   3
  -8  -4   5 516.161 502.551   3
  -8   4   5 895.254 626.823   2
   8   4  -4 18018.3 1794.88   1
  -8  -4   4 20888.5 2537.22   3
  -8   4   4 20717.6 2752.03   2
   8   4  -3 44935.0 2976.25   1
  -8  -4   3 50967.3 3800.55   3
  -8   4   3 51497.3 4267.62   2
   8   4  -2 279570. 7785.90   1
  -8   4   2 284930. 9798.98   2
  -8   4   1 42281.6 3653.67   2
   8   4  -1 43148.5 3194.70   1
  -9  -1   6 34519.2 3762.64   3
  -9   1   5 16763.0 2578.54   2
  -9  -1   5 13737.4 2240.85   3
  -9   1   4 1758.63 819.654   2
  -9   1   3 75572.9 5036.24   2
  -9  -1   3 72414.0 4871.00   2
  -9  -3   5 114214. 6470.70   3
   9   3  -4 5558.83 1129.39   1
  -9  -3   4 4957.10 1293.03   3
   9   3  -3 3445.54 927.604   1
  -9   3   3 2900.75 1045.44   2
   0   0   0    0.00    0.00   0

TITL cryst2-He-45K in C2/c
REM C2/c (#15 in standard setting)
CELL 0.71073   7.026987   7.572052   7.585788  90.0000 116.2564  90.0000
ZERR    4.00   0.000786   0.000595   0.000809   0.0000   0.0138   0.0000
LATT  7
SYMM -x, y,-z+1/2
SFAC H O S Fe
UNIT 8.00 20.00 4.00 4.00
TREF
HKLF 4
END
;
_shelx_hkl_checksum              74635
loop_
_space_group_symop_operation_xyz
'x, y, z'
'-x, y, -z+1/2'
'x+1/2, y+1/2, z'
'-x+1/2, y+1/2, -z+1/2'
'-x, -y, -z'
'x, -y, z-1/2'
'-x+1/2, -y+1/2, -z'
'x+1/2, -y+1/2, z-1/2'
loop_
_atom_site_label
_atom_site_type_symbol
_atom_site_fract_x
_atom_site_fract_y
_atom_site_fract_z
_atom_site_U_iso_or_equiv
_atom_site_adp_type
_atom_site_occupancy
_atom_site_site_symmetry_order
_atom_site_calc_flag
_atom_site_refinement_flags_posn
_atom_site_refinement_flags_adp
_atom_site_refinement_flags_occupancy
_atom_site_disorder_assembly
_atom_site_disorder_group
Fe Fe 0.000000 0.500000 0.000000 0.00235(16) Uani 1 2 d S . P . .
S S 0.000000 0.15535(7) 0.250000 0.00229(17) Uani 1 2 d S T P . .
O1 O 0.1683(2) 0.04564(17) 0.40068(17) 0.0046(3) Uani 1 1 d . . . . .
O2 O 0.10045(19) 0.27064(15) 0.15967(16) 0.0044(3) Uani 1 1 d . . . . .
O3 O 0.000000 0.6435(2) 0.250000 0.0045(4) Uani 1 2 d S T P . .
H H 0.101(4) 0.715(3) 0.290(3) 0.020(6) Uiso 1 1 d . . . . .
loop_
_atom_site_aniso_label
_atom_site_aniso_U_11
_atom_site_aniso_U_22
_atom_site_aniso_U_33
_atom_site_aniso_U_23
_atom_site_aniso_U_13
_atom_site_aniso_U_12
Fe 0.0025(2) 0.0022(2) 0.0022(2) 0.00075(11) 0.00098(16) 0.00025(12)
S 0.0019(3) 0.0024(3) 0.0026(3) 0.000 0.0011(2) 0.000
O1 0.0036(7) 0.0049(6) 0.0045(5) 0.0008(5) 0.0013(5) 0.0010(5)
O2 0.0038(7) 0.0042(6) 0.0052(5) 0.0017(4) 0.0023(5) 0.0002(5)
O3 0.0036(10) 0.0045(9) 0.0056(8) 0.000 0.0024(7) 0.000
loop_
_atom_type_symbol
_atom_type_description
_atom_type_scat_dispersion_real
_atom_type_scat_dispersion_imag
_atom_type_scat_source
O O 0.0106 0.0060 'International Tables Vol C Tables 4.2.6.8 and 6.1.1.4'
H H 0.0000 0.0000 'International Tables Vol C Tables 4.2.6.8 and 6.1.1.4'
S S 0.1246 0.1234 'International Tables Vol C Tables 4.2.6.8 and 6.1.1.4'
Fe Fe 0.3463 0.8444 'International Tables Vol C Tables 4.2.6.8 and 6.1.1.4'
loop_
_geom_angle_atom_site_label_1
_geom_angle_atom_site_label_2
_geom_angle_atom_site_label_3
_geom_angle
_geom_angle_site_symmetry_1
_geom_angle_site_symmetry_3
_geom_angle_publ_flag
O2 Fe O2 180.0 5_565 . ?
O2 Fe O1 85.09(5) 5_565 8_455 ?
O2 Fe O1 94.91(5) . 8_455 ?
O2 Fe O1 94.91(5) 5_565 4 ?
O2 Fe O1 85.09(5) . 4 ?
O1 Fe O1 180.00(7) 8_455 4 ?
O2 Fe O3 91.87(5) 5_565 5_565 ?
O2 Fe O3 88.13(5) . 5_565 ?
O1 Fe O3 93.39(3) 8_455 5_565 ?
O1 Fe O3 86.61(3) 4 5_565 ?
O2 Fe O3 88.12(5) 5_565 . ?
O2 Fe O3 91.88(5) . . ?
O1 Fe O3 86.61(3) 8_455 . ?
O1 Fe O3 93.39(3) 4 . ?
O3 Fe O3 180.0 5_565 . ?
O2 Fe O2 83.09(2) 5_565 4 ?
O2 Fe O2 96.91(2) . 4 ?
O1 Fe O2 137.00(4) 8_455 4 ?
O1 Fe O2 43.00(4) 4 4 ?
O3 Fe O2 128.11(3) 5_565 4 ?
O3 Fe O2 51.89(3) . 4 ?
O2 Fe O2 96.91(2) 5_565 8_455 ?
O2 Fe O2 83.09(2) . 8_455 ?
O1 Fe O2 43.00(4) 8_455 8_455 ?
O1 Fe O2 137.00(4) 4 8_455 ?
O3 Fe O2 51.89(3) 5_565 8_455 ?
O3 Fe O2 128.11(3) . 8_455 ?
O2 Fe O2 180.0 4 8_455 ?
O2 Fe O2 137.67(4) 5_565 2 ?
O2 Fe O2 42.33(4) . 2 ?
O1 Fe O2 67.01(4) 8_455 2 ?
O1 Fe O2 112.99(4) 4 2 ?
O3 Fe O2 119.76(4) 5_565 2 ?
O3 Fe O2 60.24(4) . 2 ?
O2 Fe O2 95.88(3) 4 2 ?
O2 Fe O2 84.12(3) 8_455 2 ?
O2 Fe O2 42.33(4) 5_565 6_565 ?
O2 Fe O2 137.67(4) . 6_565 ?
O1 Fe O2 112.99(4) 8_455 6_565 ?
O1 Fe O2 67.01(4) 4 6_565 ?
O3 Fe O2 60.24(4) 5_565 6_565 ?
O3 Fe O2 119.76(4) . 6_565 ?
O2 Fe O2 84.12(3) 4 6_565 ?
O2 Fe O2 95.88(3) 8_455 6_565 ?
O2 Fe O2 180.00(3) 2 6_565 ?
O1 S O1 110.76(11) 2 . ?
O1 S O2 110.09(6) 2 . ?
O1 S O2 108.85(7) . . ?
O1 S O2 108.85(7) 2 2 ?
O1 S O2 110.09(6) . 2 ?
O2 S O2 108.17(9) . 2 ?
S O1 Fe 136.03(7) . 4_545 ?
S O1 O2 35.94(4) . . ?
Fe O1 O2 100.21(6) 4_545 . ?
S O1 O1 34.62(5) . 2 ?
Fe O1 O1 139.58(8) 4_545 2 ?
O2 O1 O1 60.41(5) . 2 ?
S O1 O2 35.31(4) . 2 ?
Fe O1 O2 144.37(7) 4_545 2 ?
O2 O1 O2 60.04(6) . 2 ?
O1 O1 O2 59.66(5) 2 2 ?
S O1 O2 126.92(7) . 4_545 ?
Fe O1 O2 46.63(3) 4_545 4_545 ?
O2 O1 O2 108.32(4) . 4_545 ?
O1 O1 O2 102.64(5) 2 4_545 ?
O2 O1 O2 161.61(7) 2 4_545 ?
S O1 O3 171.27(7) . 7_556 ?
Fe O1 O3 48.24(3) 4_545 7_556 ?
O2 O1 O3 146.13(6) . 7_556 ?
O1 O1 O3 150.20(4) 2 7_556 ?
O2 O1 O3 136.04(5) 2 7_556 ?
O2 O1 O3 61.81(4) 4_545 7_556 ?
S O1 O2 116.01(7) . 8_556 ?
Fe O1 O2 41.84(3) 4_545 8_556 ?
O2 O1 O2 87.44(5) . 8_556 ?
O1 O1 O2 147.80(5) 2 8_556 ?
O2 O1 O2 104.29(6) 2 8_556 ?
O2 O1 O2 88.47(5) 4_545 8_556 ?
O3 O1 O2 61.16(4) 7_556 8_556 ?
S O1 O3 91.83(5) . 3_545 ?
Fe O1 O3 44.68(3) 4_545 3_545 ?
O2 O1 O3 56.96(4) . 3_545 ?
O1 O1 O3 101.62(6) 2 3_545 ?
O2 O1 O3 114.18(6) 2 3_545 ?
O2 O1 O3 61.70(4) 4_545 3_545 ?
O3 O1 O3 92.92(4) 7_556 3_545 ?
O2 O1 O3 57.13(3) 8_556 3_545 ?
S O1 O3 103.06(6) . 1_545 ?
Fe O1 O3 97.31(4) 4_545 1_545 ?
O2 O1 O3 118.61(5) . 1_545 ?
O1 O1 O3 68.44(3) 2 1_545 ?
O2 O1 O3 118.01(6) 2 1_545 ?
O2 O1 O3 52.55(4) 4_545 1_545 ?
O3 O1 O3 82.53(4) 7_556 1_545 ?
O2 O1 O3 137.15(5) 8_556 1_545 ?
O3 O1 O3 107.04(5) 3_545 1_545 ?
S O1 O2 126.96(7) . 6_556 ?
Fe O1 O2 96.48(5) 4_545 6_556 ?
O2 O1 O2 162.61(7) . 6_556 ?
O1 O1 O2 103.26(5) 2 6_556 ?
O2 O1 O2 107.73(5) 2 6_556 ?
O2 O1 O2 79.87(4) 4_545 6_556 ?
O3 O1 O2 51.25(3) 7_556 6_556 ?
O2 O1 O2 108.46(5) 8_556 6_556 ?
O3 O1 O2 137.82(5) 3_545 6_556 ?
O3 O1 O2 53.76(3) 1_545 6_556 ?
S O1 O2 113.46(6) . 7_556 ?
Fe O1 O2 76.98(4) 4_545 7_556 ?
O2 O1 O2 108.65(5) . 7_556 ?
O1 O1 O2 140.79(6) 2 7_556 ?
O2 O1 O2 81.93(4) 2 7_556 ?
O2 O1 O2 116.23(6) 4_545 7_556 ?
O3 O1 O2 58.38(4) 7_556 7_556 ?
O2 O1 O2 44.32(4) 8_556 7_556 ?
O3 O1 O2 101.11(4) 3_545 7_556 ?
O3 O1 O2 132.60(4) 1_545 7_556 ?
O2 O1 O2 79.81(3) 6_556 7_556 ?
S O2 Fe 132.41(7) . . ?
S O2 O1 35.21(4) . . ?
Fe O2 O1 162.33(7) . . ?
S O2 O2 35.92(5) . 2 ?
Fe O2 O2 102.69(5) . 2 ?
O1 O2 O2 60.36(5) . 2 ?
S O2 O1 34.60(4) . 2 ?
Fe O2 O1 117.77(6) . 2 ?
O1 O2 O1 59.93(7) . 2 ?
O2 O2 O1 59.60(5) 2 2 ?
S O2 O3 109.41(6) . 3_545 ?
Fe O2 O3 118.12(6) . 3_545 ?
O1 O2 O3 75.48(5) . 3_545 ?
O2 O2 O3 131.76(6) 2 3_545 ?
O1 O2 O3 114.53(6) 2 3_545 ?
S O2 O1 162.12(7) . 4 ?
Fe O2 O1 48.29(4) . 4 ?
O1 O2 O1 137.46(5) . 4 ?
O2 O2 O1 129.71(4) 2 4 ?
O1 O2 O1 161.61(7) 2 4 ?
O3 O2 O1 72.45(5) 3_545 4 ?
S O2 O3 134.63(7) . 5_565 ?
Fe O2 O3 48.23(4) . 5_565 ?
O1 O2 O3 147.36(7) . 5_565 ?
O2 O2 O3 135.16(7) 2 5_565 ?
O1 O2 O3 100.34(5) 2 5_565 ?
O3 O2 O3 92.60(4) 3_545 5_565 ?
O1 O2 O3 61.65(4) 4 5_565 ?
S O2 O1 91.70(6) . 8_455 ?
Fe O2 O1 43.24(3) . 8_455 ?
O1 O2 O1 126.85(7) . 8_455 ?
O2 O2 O1 73.01(5) 2 8_455 ?
O1 O2 O1 75.71(6) 2 8_455 ?
O3 O2 O1 155.23(5) 3_545 8_455 ?
O1 O2 O1 91.53(5) 4 8_455 ?
O3 O2 O1 62.85(4) 5_565 8_455 ?
S O2 O3 102.80(6) . . ?
Fe O2 O3 46.21(2) . . ?
O1 O2 O3 117.31(5) . . ?
O2 O2 O3 66.88(2) 2 . ?
O1 O2 O3 116.70(5) 2 . ?
O3 O2 O3 125.89(6) 3_545 . ?
O1 O2 O3 64.53(4) 4 . ?
O3 O2 O3 94.43(4) 5_565 . ?
O1 O2 O3 57.85(3) 8_455 . ?
S O2 O1 95.51(6) . 6 ?
Fe O2 O1 110.91(5) . 6 ?
O1 O2 O1 85.59(3) . 6 ?
O2 O2 O1 130.13(4) 2 6 ?
O1 O2 O1 72.27(5) 2 6 ?
O3 O2 O1 58.10(4) 3_545 6 ?
O1 O2 O1 100.13(4) 4 6 ?
O3 O2 O1 62.71(4) 5_565 6 ?
O1 O2 O1 108.45(5) 8_455 6 ?
O3 O2 O1 157.06(4) . 6 ?
S O2 O1 82.84(5) . 7_556 ?
Fe O2 O1 97.10(4) . 7_556 ?
O1 O2 O1 71.35(5) . 7_556 ?
O2 O2 O1 62.66(5) 2 7_556 ?
O1 O2 O1 116.98(5) 2 7_556 ?
O3 O2 O1 86.61(4) 3_545 7_556 ?
O1 O2 O1 79.50(4) 4 7_556 ?
O3 O2 O1 139.25(5) 5_565 7_556 ?
O1 O2 O1 109.43(5) 8_455 7_556 ?
O3 O2 O1 55.39(3) . 7_556 ?
O1 O2 O1 142.11(4) 6 7_556 ?
Fe O3 Fe 121.29(8) . 2 ?
Fe O3 O2 88.32(2) . 4 ?
Fe O3 O2 112.05(3) 2 4 ?
Fe O3 O2 112.05(3) . 3_455 ?
Fe O3 O2 88.32(3) 2 3_455 ?
O2 O3 O2 138.65(8) 4 3_455 ?
Fe O3 O1 45.15(3) . 8_455 ?
Fe O3 O1 103.41(6) 2 8_455 ?
O2 O3 O1 132.24(4) 4 8_455 ?
O2 O3 O1 70.65(4) 3_455 8_455 ?
Fe O3 O1 103.41(6) . 7_556 ?
Fe O3 O1 45.15(3) 2 7_556 ?
O2 O3 O1 70.65(4) 4 7_556 ?
O2 O3 O1 132.24(4) 3_455 7_556 ?
O1 O3 O1 122.27(8) 8_455 7_556 ?
Fe O3 O2 159.71(6) . 6_566 ?
Fe O3 O2 43.65(2) 2 6_566 ?
O2 O3 O2 87.40(4) 4 6_566 ?
O2 O3 O2 83.74(4) 3_455 6_566 ?
O1 O3 O2 139.68(4) 8_455 6_566 ?
O1 O3 O2 56.54(3) 7_556 6_566 ?
Fe O3 O2 43.65(2) . 5_565 ?
Fe O3 O2 159.71(6) 2 5_565 ?
O2 O3 O2 83.74(3) 4 5_565 ?
O2 O3 O2 87.40(4) 3_455 5_565 ?
O1 O3 O2 56.54(3) 8_455 5_565 ?
O1 O3 O2 139.68(4) 7_556 5_565 ?
O2 O3 O2 154.74(8) 6_566 5_565 ?
Fe O3 O2 80.93(6) . 2 ?
Fe O3 O2 41.92(3) 2 2 ?
O2 O3 O2 125.89(6) 4 2 ?
O2 O3 O2 93.63(3) 3_455 2 ?
O1 O3 O2 66.23(5) 8_455 2 ?
O1 O3 O2 60.99(4) 7_556 2 ?
O2 O3 O2 85.57(4) 6_566 2 ?
O2 O3 O2 118.65(5) 5_565 2 ?
Fe O3 O2 41.92(3) . . ?
Fe O3 O2 80.93(6) 2 . ?
O2 O3 O2 93.62(3) 4 . ?
O2 O3 O2 125.89(6) 3_455 . ?
O1 O3 O2 60.99(4) 8_455 . ?
O1 O3 O2 66.23(5) 7_556 . ?
O2 O3 O2 118.65(5) 6_566 . ?
O2 O3 O2 85.57(4) 5_565 . ?
O2 O3 O2 46.23(5) 2 . ?
Fe O3 O1 120.87(5) . 3_455 ?
Fe O3 O1 41.93(2) 2 3_455 ?
O2 O3 O1 147.26(3) 4 3_455 ?
O2 O3 O1 47.56(3) 3_455 3_455 ?
O1 O3 O1 79.83(4) 8_455 3_455 ?
O1 O3 O1 87.09(4) 7_556 3_455 ?
O2 O3 O1 60.03(3) 6_566 3_455 ?
O2 O3 O1 127.05(3) 5_565 3_455 ?
O2 O3 O1 53.77(4) 2 3_455 ?
O2 O3 O1 99.08(5) . 3_455 ?
Fe O3 O1 41.93(2) . 4 ?
Fe O3 O1 120.87(5) 2 4 ?
O2 O3 O1 47.56(3) 4 4 ?
O2 O3 O1 147.26(3) 3_455 4 ?
O1 O3 O1 87.09(4) 8_455 4 ?
O1 O3 O1 79.83(4) 7_556 4 ?
O2 O3 O1 127.05(3) 6_566 4 ?
O2 O3 O1 60.03(3) 5_565 4 ?
O2 O3 O1 99.08(5) 2 4 ?
O2 O3 O1 53.77(4) . 4 ?
O1 O3 O1 152.76(8) 3_455 4 ?
Fe O3 H 107.0(15) . . ?
Fe O3 H 110.3(15) 2 . ?
O2 O3 H 22.5(16) 4 . ?
O2 O3 H 117.5(16) 3_455 . ?
O1 O3 H 145.2(15) 8_455 . ?
O1 O3 H 79.0(16) 7_556 . ?
O2 O3 H 74.3(15) 6_566 . ?
O2 O3 H 89.2(15) 5_565 . ?
O2 O3 H 139.8(16) 2 . ?
O2 O3 H 115.9(16) . . ?
O1 O3 H 132.0(15) 3_455 . ?
O1 O3 H 68.8(16) 4 . ?
Fe O3 H 110.3(15) . 2 ?
Fe O3 H 107.0(15) 2 2 ?
O2 O3 H 117.5(16) 4 2 ?
O2 O3 H 22.5(16) 3_455 2 ?
O1 O3 H 79.0(16) 8_455 2 ?
O1 O3 H 145.2(15) 7_556 2 ?
O2 O3 H 89.2(15) 6_566 2 ?
O2 O3 H 74.3(15) 5_565 2 ?
O2 O3 H 115.9(16) 2 2 ?
O2 O3 H 139.8(16) . 2 ?
O1 O3 H 68.8(16) 3_455 2 ?
O1 O3 H 132.0(15) 4 2 ?
H O3 H 98(3) . 2 ?
loop_
_geom_bond_atom_site_label_1
_geom_bond_atom_site_label_2
_geom_bond_distance
_geom_bond_site_symmetry_2
_geom_bond_publ_flag
Fe O2 2.0540(11) 5_565 ?
Fe O2 2.0540(11) . ?
Fe O1 2.1093(13) 8_455 ?
Fe O1 2.1093(13) 4 ?
Fe O3 2.2193(9) 5_565 ?
Fe O3 2.2193(9) . ?
Fe O2 3.4663(13) 4 ?
Fe O2 3.4663(13) 8_455 ?
Fe O2 3.4955(11) 2 ?
Fe O2 3.4955(11) 6_565 ?
S O1 1.4635(13) 2 ?
S O1 1.4635(13) . ?
S O2 1.4896(11) . ?
S O2 1.4896(11) 2 ?
O1 O2 2.4019(17) . ?
O1 O1 2.409(3) 2 ?
O1 O2 2.4204(17) 2 ?
O1 O2 2.8153(17) 4_545 ?
O1 O3 2.9699(15) 7_556 ?
O1 O2 3.0676(18) 8_556 ?
O1 O3 3.1509(13) 3_545 ?
O1 O3 3.277(2) 1_545 ?
O1 O2 3.3008(16) 6_556 ?
O1 O2 3.3026(17) 7_556 ?
O2 O2 2.413(2) 2 ?
O2 O3 2.7285(14) 3_545 ?
O2 O3 2.9742(12) 5_565 ?
O2 O3 3.0729(19) . ?
O3 H 0.82(2) . ?
O3 H 0.82(2) 2 ?
loop_
_geom_hbond_atom_site_label_D
_geom_hbond_atom_site_label_H
_geom_hbond_atom_site_label_A
_geom_hbond_distance_DH
_geom_hbond_distance_HA
_geom_hbond_distance_DA
_geom_hbond_angle_DHA
_geom_hbond_site_symmetry_A
_geom_hbond_publ_flag
O3 H O2 0.82(2) 1.99(2) 2.7285(14) 148(2) 4 yes
loop_
_geom_torsion_atom_site_label_1
_geom_torsion_atom_site_label_2
_geom_torsion_atom_site_label_3
_geom_torsion_atom_site_label_4
_geom_torsion
_geom_torsion_site_symmetry_1
_geom_torsion_site_symmetry_2
_geom_torsion_site_symmetry_3
_geom_torsion_site_symmetry_4
_geom_torsion_publ_flag
O1 S O1 Fe 115.38(11) 2 . . 4_545 ?
O2 S O1 Fe -5.78(13) . . . 4_545 ?
O2 S O1 Fe -124.19(10) 2 . . 4_545 ?
O1 S O1 O2 121.17(6) 2 . . . ?
O2 S O1 O2 -118.40(9) 2 . . . ?
O2 S O1 O1 -121.17(6) . . . 2 ?
O2 S O1 O1 120.43(6) 2 . . 2 ?
O1 S O1 O2 -120.43(6) 2 . . 2 ?
O2 S O1 O2 118.40(9) . . . 2 ?
O1 S O1 O2 52.66(7) 2 . . 4_545 ?
O2 S O1 O2 -68.50(9) . . . 4_545 ?
O2 S O1 O2 173.10(10) 2 . . 4_545 ?
O1 S O1 O2 161.90(8) 2 . . 8_556 ?
O2 S O1 O2 40.73(8) . . . 8_556 ?
O2 S O1 O2 -77.67(8) 2 . . 8_556 ?
O1 S O1 O3 107.96(5) 2 . . 3_545 ?
O2 S O1 O3 -13.21(7) . . . 3_545 ?
O2 S O1 O3 -131.61(6) 2 . . 3_545 ?
O1 S O1 O3 0.000(0) 2 . . 1_545 ?
O2 S O1 O3 -121.17(6) . . . 1_545 ?
O2 S O1 O3 120.43(6) 2 . . 1_545 ?
O1 S O1 O2 -54.20(6) 2 . . 6_556 ?
O2 S O1 O2 -175.37(7) . . . 6_556 ?
O2 S O1 O2 66.23(10) 2 . . 6_556 ?
O1 S O1 O2 -149.10(7) 2 . . 7_556 ?
O2 S O1 O2 89.74(7) . . . 7_556 ?
O2 S O1 O2 -28.67(8) 2 . . 7_556 ?
O1 S O2 Fe 77.73(10) 2 . . . ?
O1 S O2 Fe -160.70(9) . . . . ?
O2 S O2 Fe -41.09(6) 2 . . . ?
O1 S O2 O1 -121.57(10) 2 . . . ?
O2 S O2 O1 119.60(6) 2 . . . ?
O1 S O2 O2 118.82(6) 2 . . 2 ?
O1 S O2 O2 -119.60(6) . . . 2 ?
O1 S O2 O1 121.57(10) . . . 2 ?
O2 S O2 O1 -118.82(6) 2 . . 2 ?
O1 S O2 O3 -105.34(7) 2 . . 3_545 ?
O1 S O2 O3 16.24(8) . . . 3_545 ?
O2 S O2 O3 135.84(7) 2 . . 3_545 ?
O1 S O2 O1 161.8(3) 2 . . 4 ?
O1 S O2 O1 -76.7(2) . . . 4 ?
O2 S O2 O1 42.9(2) 2 . . 4 ?
O1 S O2 O3 9.21(12) 2 . . 5_565 ?
O1 S O2 O3 130.78(10) . . . 5_565 ?
O2 S O2 O3 -109.61(10) 2 . . 5_565 ?
O1 S O2 O1 61.45(8) 2 . . 8_455 ?
O1 S O2 O1 -176.97(6) . . . 8_455 ?
O2 S O2 O1 -57.37(4) 2 . . 8_455 ?
O1 S O2 O3 118.82(6) 2 . . . ?
O1 S O2 O3 -119.60(6) . . . . ?
O2 S O2 O3 0.0 2 . . . ?
O1 S O2 O1 -47.27(8) 2 . . 6 ?
O1 S O2 O1 74.30(6) . . . 6 ?
O2 S O2 O1 -166.10(6) 2 . . 6 ?
O1 S O2 O1 170.83(6) 2 . . 7_556 ?
O1 S O2 O1 -67.60(7) . . . 7_556 ?
O2 S O2 O1 52.00(3) 2 . . 7_556 ?
