#------------------------------------------------------------------------------
#$Date: 2022-02-06 06:43:00 +0200 (Sun, 06 Feb 2022) $
#$Revision: 272820 $
#$URL: file:///home/coder/svn-repositories/cod/cif/1/56/58/1565830.cif $
#------------------------------------------------------------------------------
#
# This file is available in the Crystallography Open Database (COD),
# http://www.crystallography.net/
#
# All data on this site have been placed in the public domain by the
# contributors.
#
data_1565830
loop_
_publ_author_name
'Gajda, Roman'
'Zhang, Dongzhou'
'Parafiniuk, Jan'
'Dera, Przemys\/law'
'Wo\'zniak, Krzysztof'
_publ_section_title
;
 Tracing electron density changes in langbeinite under pressure
;
_journal_issue                   1
_journal_name_full               IUCrJ
_journal_page_first              146
_journal_page_last               162
_journal_paper_doi               10.1107/S2052252521012628
_journal_volume                  9
_journal_year                    2022
_chemical_formula_moiety         'K2 Mg2 O12 S3'
_chemical_formula_sum            'K2 Mg2 O12 S3'
_chemical_formula_weight         415.00
_space_group_crystal_system      cubic
_space_group_IT_number           198
_space_group_name_Hall           'P 2ac 2ab 3'
_space_group_name_H-M_alt        'P 21 3'
_audit_creation_date             2020-10-28
_audit_creation_method
;
Olex2 1.3
(compiled 2020.07.31 svn.rc2a77460 for OlexSys, GUI svn.r6145)
;
_cell_angle_alpha                90
_cell_angle_beta                 90
_cell_angle_gamma                90
_cell_formula_units_Z            4
_cell_length_a                   9.90450(7)
_cell_length_b                   9.90450(7)
_cell_length_c                   9.90450(7)
_cell_measurement_reflns_used    2862
_cell_measurement_temperature    293(2)
_cell_measurement_theta_max      27.7000
_cell_measurement_theta_min      2.1720
_cell_volume                     971.623(12)
_computing_molecular_graphics    'Olex2 1.3 (Dolomanov et al., 2009)'
_computing_publication_material  'Olex2 1.3 (Dolomanov et al., 2009)'
_computing_structure_refinement  'SHELXL 2018/3 (Sheldrick, 2015)'
_diffrn_ambient_temperature      293(2)
_diffrn_measured_fraction_theta_full 1.000
_diffrn_measured_fraction_theta_max 0.934
_diffrn_measurement_device_type  '13-BM-C station at the APS'
_diffrn_radiation_type           synchrotron
_diffrn_radiation_wavelength     0.434
_diffrn_reflns_av_R_equivalents  0.0311
_diffrn_reflns_av_unetI/netI     0.0613
_diffrn_reflns_Laue_measured_fraction_full 1.000
_diffrn_reflns_Laue_measured_fraction_max 0.934
_diffrn_reflns_number            3008
_diffrn_reflns_point_group_measured_fraction_full 1.000
_diffrn_reflns_point_group_measured_fraction_max 0.896
_diffrn_reflns_theta_full        15.094
_diffrn_reflns_theta_max         27.695
_diffrn_reflns_theta_min         1.776
_exptl_absorpt_coefficient_mu    0.445
_exptl_absorpt_correction_T_max  1.00000
_exptl_absorpt_correction_T_min  0.83189
_exptl_absorpt_correction_type   multi-scan
_exptl_absorpt_process_details
;
CrysAlisPro 1.171.40.67a (Rigaku Oxford Diffraction, 2019)
Empirical absorption correction using spherical harmonics,
 implemented in SCALE3 ABSPACK scaling algorithm.
;
_exptl_crystal_colour            'pale grey'
_exptl_crystal_density_diffrn    2.837
_exptl_crystal_description       block
_exptl_crystal_F_000             824
_refine_diff_density_max         0.729
_refine_diff_density_min         -0.641
_refine_diff_density_rms         0.129
_refine_ls_abs_structure_details
;
 Flack x determined using 1033 quotients [(I+)-(I-)]/[(I+)+(I-)]
 (Parsons, Flack and Wagner, Acta Cryst. B69 (2013) 249-259).
;
_refine_ls_abs_structure_Flack   0.11(7)
_refine_ls_extinction_method     none
_refine_ls_goodness_of_fit_ref   1.031
_refine_ls_hydrogen_treatment    undef
_refine_ls_matrix_type           full
_refine_ls_number_parameters     58
_refine_ls_number_reflns         3008
_refine_ls_number_restraints     0
_refine_ls_restrained_S_all      1.031
_refine_ls_R_factor_all          0.0380
_refine_ls_R_factor_gt           0.0333
_refine_ls_shift/su_max          0.000
_refine_ls_shift/su_mean         0.000
_refine_ls_structure_factor_coef Fsqd
_refine_ls_weighting_details
'w=1/[\s^2^(Fo^2^)+(0.0267P)^2^] where P=(Fo^2^+2Fc^2^)/3'
_refine_ls_weighting_scheme      calc
_refine_ls_wR_factor_gt          0.0739
_refine_ls_wR_factor_ref         0.0756
_reflns_Friedel_coverage         0.740
_reflns_Friedel_fraction_full    1.000
_reflns_Friedel_fraction_max     0.849
_reflns_number_gt                2712
_reflns_number_total             3008
_reflns_threshold_expression     'I > 2\s(I)'
_iucr_refine_instructions_details
;
TITL c1_HA in P213 #198
    c1_ha.res
    created by SHELXL-2018/3 at 13:55:48 on 28-Oct-2020
REM reset to P213 #198
CELL 0.434 9.9045 9.9045 9.9045 90 90 90
ZERR 4 0.000068 0.000068 0.000068 0 0 0
LATT -1
SYMM +Z,+X,+Y
SYMM +Y,+Z,+X
SYMM 0.5-Y,-Z,0.5+X
SYMM 0.5+Z,0.5-X,-Y
SYMM -Y,0.5+Z,0.5-X
SYMM 0.5-Z,-X,0.5+Y
SYMM -Z,0.5+X,0.5-Y
SYMM 0.5+Y,0.5-Z,-X
SYMM 0.5-X,-Y,0.5+Z
SYMM 0.5+X,0.5-Y,-Z
SYMM -X,0.5+Y,0.5-Z
SFAC O Mg S K
DISP K 0.0958 0.0996 246.9202
DISP Mg 0.0174 0.0133 41.3196
DISP O 0.0025 0.002 10.704
DISP S 0.0499 0.0456 125.0555
UNIT 48 8 12 8

L.S. 14
PLAN  5
CONF
MORE -1
fmap 2 53
acta
REM <olex2.extras>
REM <HklSrc "%.\\c1_HA.hkl">
REM </olex2.extras>

WGHT    0.026700
FVAR       3.00467
K1    4    0.048022    0.451978    0.548022    10.33333    0.01676    0.01676 =
         0.01676   -0.00078    0.00078   -0.00078
S3    3    0.375596    0.482336    0.716146    11.00000    0.00263    0.00279 =
         0.00231   -0.00004    0.00117   -0.00055
MG4   2    0.401108    0.401108    0.401108    10.33333    0.00419    0.00419 =
         0.00419   -0.00013   -0.00013   -0.00013
O6    1    0.273693    0.541658    0.805008    11.00000    0.01461    0.02250 =
         0.01320   -0.00125    0.00938    0.00876
O7    1    0.329530    0.492199    0.575608    11.00000    0.01665    0.02050 =
         0.00355   -0.00089   -0.00331    0.00707
O9    1    0.500585    0.559127    0.735607    11.00000    0.01232    0.02427 =
         0.02103   -0.00294    0.00194   -0.01444
O8    1    0.402243    0.341952    0.752217    11.00000    0.02288    0.00616 =
         0.01730    0.00711    0.00399    0.00359
MG5   2    0.664986    0.664986    0.664986    10.33333    0.00413    0.00413 =
         0.00413   -0.00085   -0.00085   -0.00085
K2    4    0.683365    0.316635    0.816635    10.33333    0.01457    0.01457 =
         0.01457   -0.00139    0.00139    0.00139
HKLF 4




REM  c1_HA in P213 #198
REM wR2 = 0.0756, GooF = S = 1.031, Restrained GooF = 1.031 for all data
REM R1 = 0.0333 for 2712 Fo > 4sig(Fo) and 0.0380 for all 3008 data
REM 58 parameters refined using 0 restraints

END  
     
WGHT      0.0267      0.0000 

REM Highest difference peak  0.729,  deepest hole -0.641,  1-sigma level  0.129
Q1    1   0.4812  0.5830  0.6905  11.00000  0.05    0.73
Q2    1   0.6519  0.2975  0.7786  11.00000  0.05    0.63
Q3    1   0.3055  0.4362  0.5817  11.00000  0.05    0.62
Q4    1   0.3858  0.3765  0.7996  11.00000  0.05    0.58
Q5    1   0.3675  0.3675  0.3675  10.33333  0.05    0.57

  REM The information below was added by Olex2.
  REM
  REM R1 = 0.0333 for 2712 Fo > 4sig(Fo) and 0.0380 for all 3008 data
  REM 58 parameters refined using n/a restraints
  REM Highest difference peak 0.73, deepest hole -0.64
  REM Mean Shift 0, Max Shift 0.000.

  REM +++ Tabular Listing of Refinement Information +++
  REM R1_all = 0.0380
  REM R1_gt = 0.0333
  REM wR_ref = 0.0756
  REM GOOF = 1.031
  REM Shift_max = 0.000
  REM Shift_mean = 0
  REM Reflections_all = 3008
  REM Reflections_gt = 2712
  REM Parameters = 58
  REM Hole = -0.64
  REM Peak = 0.73
  REM Flack = 0.11(7)

  
;
_cod_data_source_file            ti5023.cif
_cod_data_source_block           Langbeinite_synchrotron_source_structural
_cod_depositor_comments
'Adding full bibliography for 1565826--1565831.cif.'
_cod_original_cell_volume        971.62(2)
_cod_database_code               1565830
_shelx_shelxl_version_number     2018/3
_shelx_space_group_comment
;
The symmetry employed for this shelxl refinement is uniquely defined
by the following loop, which should always be used as a source of
symmetry information in preference to the above space-group names.
They are only intended as comments.
;
_olex2_refinement_description
;
;
_olex2_submission_special_instructions 'No special instructions were received'
loop_
_space_group_symop_operation_xyz
'x, y, z'
'z, x, y'
'y, z, x'
'-y+1/2, -z, x+1/2'
'z+1/2, -x+1/2, -y'
'-y, z+1/2, -x+1/2'
'-z+1/2, -x, y+1/2'
'-z, x+1/2, -y+1/2'
'y+1/2, -z+1/2, -x'
'-x+1/2, -y, z+1/2'
'x+1/2, -y+1/2, -z'
'-x, y+1/2, -z+1/2'
loop_
_atom_site_label
_atom_site_type_symbol
_atom_site_fract_x
_atom_site_fract_y
_atom_site_fract_z
_atom_site_U_iso_or_equiv
_atom_site_adp_type
_atom_site_occupancy
_atom_site_site_symmetry_order
_atom_site_calc_flag
_atom_site_refinement_flags_posn
_atom_site_refinement_flags_adp
_atom_site_refinement_flags_occupancy
_atom_site_disorder_assembly
_atom_site_disorder_group
K1 K 0.04802(4) 0.45198(4) 0.54802(4) 0.01676(12) Uani 1 3 d S T P . .
S3 S 0.37560(3) 0.48234(3) 0.71615(3) 0.00258(5) Uani 1 1 d . . . . .
Mg4 Mg 0.40111(5) 0.40111(5) 0.40111(5) 0.00419(14) Uani 1 3 d S T P . .
O6 O 0.27369(13) 0.54166(15) 0.80501(13) 0.0168(2) Uani 1 1 d . . . . .
O7 O 0.32953(12) 0.49220(13) 0.57561(11) 0.0136(2) Uani 1 1 d . . . . .
O9 O 0.50058(13) 0.55913(15) 0.73561(14) 0.0192(3) Uani 1 1 d . . . . .
O8 O 0.40224(15) 0.34195(12) 0.75222(13) 0.0154(2) Uani 1 1 d . . . . .
Mg5 Mg 0.66499(5) 0.66499(5) 0.66499(5) 0.00413(13) Uani 1 3 d S T P . .
K2 K 0.68336(4) 0.31664(4) 0.81664(4) 0.01457(11) Uani 1 3 d S T P . .
loop_
_atom_site_aniso_label
_atom_site_aniso_U_11
_atom_site_aniso_U_22
_atom_site_aniso_U_33
_atom_site_aniso_U_23
_atom_site_aniso_U_13
_atom_site_aniso_U_12
K1 0.01676(12) 0.01676(12) 0.01676(12) -0.00078(13) 0.00078(13) -0.00078(13)
S3 0.00263(11) 0.00279(11) 0.00231(11) -0.00004(8) 0.00117(8) -0.00055(8)
Mg4 0.00419(14) 0.00419(14) 0.00419(14) -0.00013(14) -0.00013(14) -0.00013(14)
O6 0.0146(5) 0.0225(6) 0.0132(5) -0.0013(4) 0.0094(4) 0.0088(4)
O7 0.0167(5) 0.0205(5) 0.0035(4) -0.0009(4) -0.0033(4) 0.0071(4)
O9 0.0123(5) 0.0243(6) 0.0210(6) -0.0029(5) 0.0019(4) -0.0144(5)
O8 0.0229(6) 0.0062(4) 0.0173(5) 0.0071(4) 0.0040(5) 0.0036(4)
Mg5 0.00413(13) 0.00413(13) 0.00413(13) -0.00085(14) -0.00085(14) -0.00085(14)
K2 0.01457(11) 0.01457(11) 0.01457(11) -0.00139(11) 0.00139(11) 0.00139(11)
loop_
_atom_type_symbol
_atom_type_description
_atom_type_scat_dispersion_real
_atom_type_scat_dispersion_imag
_atom_type_scat_source
O O 0.0025 0.0020 'International Tables Vol C Tables 4.2.6.8 and 6.1.1.4'
Mg Mg 0.0174 0.0133 'International Tables Vol C Tables 4.2.6.8 and 6.1.1.4'
S S 0.0499 0.0456 'International Tables Vol C Tables 4.2.6.8 and 6.1.1.4'
K K 0.0958 0.0996 'International Tables Vol C Tables 4.2.6.8 and 6.1.1.4'
loop_
_diffrn_refln_index_h
_diffrn_refln_index_k
_diffrn_refln_index_l
_diffrn_refln_intensity_net
_diffrn_refln_intensity_u
_diffrn_refln_scale_group_code
1 1 -1 8873.51 563.181 1
1 1 0 5.273 4.5811 1
1 1 1 9381 253.687 1
1 2 0 176.727 12.4762 1
1 3 0 256150 7448.57 1
1 4 0 50447.9 1172.96 1
1 5 0 510.998 21.8639 1
1 6 0 55056.4 1425.21 1
1 7 0 1509.9 48.6567 1
1 8 0 6367.55 186.625 1
1 9 0 176.137 23.4704 1
1 10 0 648.452 40.9296 1
1 11 0 348.941 53.8072 1
1 12 0 49167.3 4153.27 1
1 13 0 1002.65 193.376 1
1 14 0 2714.04 197.607 1
1 15 0 541.882 101.676 1
1 16 0 1432.27 287.685 1
1 17 0 7919.61 477.454 1
1 18 0 2372.07 285.6 1
1 19 0 1542.13 186.862 1
1 20 0 244.176 127.611 1
2 0 0 76.0784 14.7937 1
2 1 -1 40224.8 935.17 1
2 1 0 4.1362 4.4662 1
2 1 1 40527.8 929.293 1
2 2 -2 7662.77 301.808 1
2 2 -1 9756.86 234.624 1
2 2 0 3104.39 83.7571 1
2 2 1 9342.09 281.769 1
2 2 2 8084.48 241.333 1
2 3 -1 100287 2383.13 1
2 3 0 3230.24 81.3735 1
2 3 1 97672.3 2266.42 1
2 4 -1 26815.1 627.131 1
2 4 0 12772.5 348.522 1
2 4 1 26407.8 658.917 1
2 5 -1 1234.09 37.7951 1
2 5 0 1110.45 34.6591 1
2 5 1 1289.38 38.3522 1
2 6 -1 5519.36 148.774 1
2 6 0 40697.2 1239.38 1
2 6 1 5989.82 150.751 1
2 7 -1 54812.6 1470 1
2 7 0 386.004 24.1734 1
2 7 1 54420.3 1456.92 1
2 8 -1 2984.37 92.2956 1
2 8 0 35213.8 932.83 1
2 8 1 2945.61 88.9845 1
2 9 -1 7152.27 281.651 1
2 9 0 2629.15 84.1139 1
2 9 1 7477.37 236.673 1
2 10 -1 18128.1 517.025 1
2 10 0 1751.43 83.9036 1
2 10 1 19009.1 604.339 1
2 11 -1 11339.8 403.896 1
2 11 0 1182.07 115.486 1
2 11 1 11313.2 492.304 1
2 12 -1 7246.77 384.021 1
2 12 0 2857.64 128.176 1
2 12 1 8035.99 486.898 1
2 13 -1 9506.31 399.067 1
2 13 0 16173.8 1708.49 1
2 13 1 8382.82 612.453 1
2 14 -1 1389.44 143.636 1
2 14 0 6407.97 481.908 1
2 14 1 1399.76 141.877 1
2 15 -1 2744.88 175.84 1
2 15 0 18124.9 879.814 1
2 15 1 2627.19 170.548 1
2 16 -1 866.073 119.27 1
2 16 0 7737.66 1514.12 1
2 16 1 858.195 188.645 1
2 17 -1 1235.02 135.76 1
2 17 0 109.76 85.4707 1
2 17 1 1321.38 131.157 1
2 18 -1 1482.55 166.904 1
2 18 0 289.975 131.008 1
2 18 1 1412.79 387.894 1
2 19 -1 2654.15 219.276 1
2 19 0 323.178 222.719 1
2 19 1 3060.73 367.175 1
2 20 -1 1380.57 269.784 1
3 1 -1 45188.7 1134.68 1
3 1 0 275621 6822.38 1
3 1 1 44213.4 1034.77 1
3 2 -2 23643.9 551.465 1
3 2 -1 46264.2 1083.21 1
3 2 0 110117 2504.09 1
3 2 1 46130.1 1159.04 1
3 2 2 23519.2 600.441 1
3 3 -3 28899.4 766.98 1
3 3 -2 36590.3 995.283 1
3 3 -1 28126.1 663.052 1
3 3 0 1534.72 46.3072 1
3 3 1 27644.2 651.857 1
3 3 2 35964.6 904.851 1
3 3 3 31109.8 1075.45 1
3 4 -2 43414.6 1028.96 1
3 4 -1 47695.4 1195.51 1
3 4 0 19926.1 503.399 1
3 4 1 47065.1 1127.35 1
3 4 2 43842.1 1052.94 1
3 5 -2 52564.5 1315.8 1
3 5 -1 15710.2 404.948 1
3 5 0 857.102 32.0513 1
3 5 1 15305.5 376.253 1
3 5 2 52176.4 1352.43 1
3 6 -2 22317.3 572.907 1
3 6 -1 59395.5 1581.88 1
3 6 0 34503.3 939.472 1
3 6 1 59761.6 1561.64 1
3 6 2 23404 600.485 1
3 7 -2 1876.88 58.5172 1
3 7 -1 68203.7 1917.6 1
3 7 0 414.456 25.499 1
3 7 1 67579.1 1901.21 1
3 7 2 1961.86 59.3783 1
3 8 -2 394.196 27.6101 1
3 8 -1 14084.9 358.551 1
3 8 0 2562.08 80.0218 1
3 8 1 14080.7 386.298 1
3 8 2 415.383 30.3357 1
3 9 -2 21176.9 599.62 1
3 9 -1 11364.1 372.805 1
3 9 0 15227.9 664.555 1
3 9 1 11363.3 437.573 1
3 9 2 21961.8 606.078 1
3 10 -2 8686.23 292.679 1
3 10 -1 14771.8 531.32 1
3 10 0 13351.1 404.045 1
3 10 1 14834 460.048 1
3 10 2 8845.42 292.967 1
3 11 -2 10978 359.655 1
3 11 -1 110.93 43.5988 1
3 11 0 212.884 47.4703 1
3 11 1 62.2638 38.0923 1
3 11 2 11633.2 384.936 1
3 12 -2 2595.16 152.075 1
3 12 -1 845.123 65.0868 1
3 12 0 1685.57 91.0537 1
3 12 1 886.819 69.3781 1
3 12 2 2739.58 128.794 1
3 13 -2 5461.56 275.885 1
3 13 -1 2633.16 198.143 1
3 13 0 1539.25 125.036 1
3 13 1 3098.1 302.795 1
3 13 2 4828.74 761.89 1
3 14 -2 5312.76 387.164 1
3 14 -1 1657.15 202.437 1
3 14 0 1074.96 95.0359 1
3 14 2 4997.93 396.027 1
3 15 -2 2616.38 423.934 1
3 15 -1 1760.81 142.131 1
3 15 0 114.597 76.5616 1
3 15 1 1892.72 149.294 1
3 15 2 2495.87 263.022 1
3 16 -2 2935.57 215.204 1
3 16 -1 1742.93 145.36 1
3 16 0 2147.58 289.483 1
3 16 1 1671.15 140.715 1
3 16 2 2984.12 238.975 1
3 17 -2 4055.86 245.255 1
3 17 -1 1134.24 131.072 1
3 17 0 106.078 97.359 1
3 17 1 1257.3 185.217 1
3 17 2 4143.83 321.804 1
3 18 -2 1104.13 237.612 1
3 18 -1 521.873 159.983 1
3 18 0 2325.5 244.409 1
3 18 1 564.552 177.528 1
3 18 2 1246.98 243.822 1
3 19 -2 1489.83 221.326 1
3 19 -1 1556.43 213.128 1
3 19 0 112.29 112.534 1
3 19 1 1443.17 217.926 1
3 19 2 1537.79 272.949 1
3 20 -2 198.051 147.157 1
3 20 -1 1664.32 288.694 1
3 20 0 704.623 250.779 1
3 20 1 1768.98 297.448 1
4 0 0 37456.5 1235.15 1
4 1 -1 2338.78 64.2887 1
4 1 0 22199.3 593.199 1
4 1 1 2192.32 59.4585 1
4 2 -2 59444.8 1492.41 1
4 2 -1 6947.54 187.458 1
4 2 0 1737.57 46.0747 1
4 2 1 6873.37 167.676 1
4 2 2 58051.1 1377.23 1
4 3 -3 3108.2 88.2505 1
4 3 -2 3434.57 87.4425 1
4 3 -1 44550.2 1083.1 1
4 3 0 1980.83 55.9249 1
4 3 1 43252.9 1086.55 1
4 3 2 3381.98 88.0959 1
4 3 3 3068.93 84.1015 1
4 4 -4 66395.2 2290.08 1
4 4 -3 15785.1 397.869 1
4 4 -2 1571.76 48.7543 1
4 4 -1 77454.4 1997.04 1
4 4 0 10.0534 9.1533 1
4 4 1 76850.1 1925.26 1
4 4 2 1595.77 51.566 1
4 4 3 16407.7 430.913 1
4 4 4 65717 2475.38 1
4 5 -3 8591.38 228.025 1
4 5 -2 17883.5 456.303 1
4 5 -1 7617.37 189.577 1
4 5 0 15672.7 386.263 1
4 5 1 7563.31 207.421 1
4 5 2 17683.7 441.151 1
4 5 3 8937.85 229.64 1
4 6 -3 31831.9 807.437 1
4 6 -2 27199.2 720.306 1
4 6 -1 1764.36 52.8419 1
4 6 0 36535.3 973.444 1
4 6 1 1734.24 67.169 1
4 6 2 27884 725.681 1
4 6 3 32667.1 856.104 1
4 7 -3 3094.67 86.6843 1
4 7 -2 56860.6 1603.42 1
4 7 -1 9145.22 239.173 1
4 7 0 16664.1 436.898 1
4 7 1 9586.12 257.996 1
4 7 2 57504.4 1694.84 1
4 7 3 3146.54 94.7436 1
4 8 -3 1513.22 66.6493 1
4 8 -2 24524.4 652.845 1
4 8 -1 33517.4 925.433 1
4 8 0 4052.33 121.719 1
4 8 1 33777.9 978.598 1
4 8 2 23488.6 715.003 1
4 8 3 1816.53 63.0111 1
4 9 -3 1389.11 62.3138 1
4 9 -2 6057.41 180.33 1
4 9 -1 20674.9 685.069 1
4 9 0 918.259 56.3398 1
4 9 1 21806.8 737.163 1
4 9 2 6110.81 195.769 1
4 9 3 1342.25 54.2222 1
4 10 -3 11666 390.379 1
4 10 -2 3482.89 116.781 1
4 10 -1 9035.33 311.728 1
4 10 0 210.761 51.544 1
4 10 1 9070.85 284.176 1
4 10 2 3478.29 117.025 1
4 10 3 11861.2 349.834 1
4 11 -3 11178 452.165 1
4 11 -2 2831.62 125.834 1
4 11 -1 8925.74 314.076 1
4 11 0 5041.02 188.7 1
4 11 1 8605.52 337.165 1
4 11 2 2599 117.465 1
4 11 3 11581.8 479.56 1
4 12 -3 2332.77 160.556 1
4 12 -2 2499.11 144.667 1
4 12 -1 8534.87 524.174 1
4 12 0 25538.6 1488.26 1
4 12 1 8421.21 479.66 1
4 12 2 2870.93 150.471 1
4 12 3 2270.57 111.927 1
4 13 -3 3454.64 181.25 1
4 13 -2 2306.4 310.463 1
4 13 -1 503.87 64.1226 1
4 13 0 2321.28 148.326 1
4 13 1 502.533 65.03 1
4 13 2 2291.79 131.536 1
4 13 3 3292.79 296.547 1
4 14 -3 4864.06 361.75 1
4 14 -2 72.4651 51.8498 1
4 14 -1 1666.1 587.473 1
4 14 0 8128.89 429.63 1
4 14 1 1800.14 129.148 1
4 14 2 54.2941 39.1969 1
4 14 3 4583.66 737.181 1
4 15 -3 2113.24 175.816 1
4 15 -2 266.849 102.987 1
4 15 -1 7735.76 1348.67 1
4 15 0 6822.31 395.83 1
4 15 1 10405.8 1249.96 1
4 15 2 343.552 109.554 1
4 15 3 2426.47 209.125 1
4 16 -3 10323.4 612.14 1
4 16 -2 3367.53 386.598 1
4 16 -1 1561.81 195.55 1
4 16 0 1410.08 189.692 1
4 16 1 1507.05 394.973 1
4 16 2 3100.36 524.794 1
4 16 3 10828.3 697.735 1
4 17 -3 1324.76 190.241 1
4 17 -2 1449.33 196.546 1
4 17 -1 1258.43 179.898 1
4 17 0 8531.17 577.153 1
4 17 1 1542.93 221.722 1
4 17 2 1173.38 226.495 1
4 17 3 1401.98 199.809 1
4 18 -3 2763.14 741.925 1
4 18 -2 260.572 158.007 1
4 18 -1 2568.51 260.715 1
4 18 0 1003.32 203.803 1
4 18 1 2261.12 269.232 1
4 18 2 287.833 168.166 1
4 18 3 3266.14 471.897 1
4 19 -3 2104.82 669.374 1
4 19 -2 506.405 158.887 1
4 19 -1 504.842 176.593 1
4 19 0 469.493 270.273 1
4 19 1 444.443 176.6 1
4 19 2 592.723 228.57 1
4 19 3 2571.13 470.512 1
4 20 -3 2077.02 401.035 1
4 20 -2 1187.12 377.7 1
5 1 -1 643.97 22.9328 1
5 1 0 89.8228 15.2833 1
5 1 1 691.409 25.0765 1
5 2 -2 14008.1 369.339 1
5 2 -1 13526.6 329.858 1
5 2 0 32135.6 834.039 1
5 2 1 14005.5 338.291 1
5 2 2 14160 348.01 1
5 3 -3 10003.3 273.76 1
5 3 -2 57988.9 1483.81 1
5 3 -1 643.912 26.201 1
5 3 0 32013.4 765.453 1
5 3 1 678.557 26.5077 1
5 3 2 58214.7 1481.53 1
5 3 3 10253.5 251.807 1
5 4 -4 6930.75 181.035 1
5 4 -3 4979.74 130.864 1
5 4 -2 39503.5 979.983 1
5 4 -1 43045.7 1080.84 1
5 4 0 13885.6 351.303 1
5 4 1 42813.4 1070.43 1
5 4 2 40895.7 1033.15 1
5 4 3 4997.5 134.365 1
5 4 4 7317.9 194.4 1
5 5 -5 101392 4484.65 1
5 5 -4 8735.15 235.467 1
5 5 -3 9665.5 259.264 1
5 5 -2 17179 527.862 1
5 5 -1 112.589 18.8978 1
5 5 0 7882.45 196.554 1
5 5 1 111.785 19.8395 1
5 5 2 18030.7 456.064 1
5 5 3 9507.43 244.661 1
5 5 4 9043.47 238.287 1
5 5 5 98930.5 5900.35 1
5 6 -4 6925.39 197.29 1
5 6 -3 32833.3 859.94 1
5 6 -2 6839.86 196.686 1
5 6 -1 9057.32 229.757 1
5 6 0 27829.2 702.243 1
5 6 1 8896.91 253.967 1
5 6 2 7174.52 191.258 1
5 6 3 32949.6 893.618 1
5 6 4 7676.44 202.902 1
5 7 -4 13287.5 378.833 1
5 7 -3 26213.7 769.746 1
5 7 -2 18691.5 484.505 1
5 7 -1 7885.08 212.864 1
5 7 0 42307.2 1196.81 1
5 7 1 7693.7 233.56 1
5 7 2 18653.4 496.334 1
5 7 3 25646.5 739.141 1
5 7 4 13467.3 470.96 1
5 8 -4 30935.2 1024.48 1
5 8 -3 4583.94 278.605 1
5 8 -2 9317.85 278.867 1
5 8 -1 9892.76 295.402 1
5 8 0 2940.66 118.288 1
5 8 1 10340.6 280.708 1
5 8 2 9183.37 253.875 1
5 8 3 4281.41 145.267 1
5 8 4 30854.1 968.047 1
5 9 -4 5297.46 206.719 1
5 9 -3 1505.12 74.1581 1
5 9 -2 3331.46 111.454 1
5 9 -1 11990.5 372.392 1
5 9 0 33976.7 1213.91 1
5 9 1 11488.1 346.993 1
5 9 2 3451.32 107.166 1
5 9 3 1512.75 67.5636 1
5 9 4 5414.43 171.982 1
5 10 -4 8322.73 633.68 1
5 10 -3 3486.29 210.504 1
5 10 -2 21148.8 689.472 1
5 10 -1 74.4779 39.2583 1
5 10 0 839.638 65.2899 1
5 10 1 78.5784 40.108 1
5 10 2 20811.9 618.904 1
5 10 3 3500.82 123.678 1
5 10 4 8644.15 270.051 1
5 11 -4 1301.36 97.5983 1
5 11 -3 7267.55 285.109 1
5 11 -2 3254.08 128.293 1
5 11 -1 7742.8 286.395 1
5 11 0 3801.51 220.193 1
5 11 1 9297.57 331.299 1
5 11 2 3293.75 133.158 1
5 11 3 7905.07 282.952 1
5 11 4 1363.11 157.615 1
5 12 -4 6836.59 728.764 1
5 12 -3 9495.64 510.85 1
5 12 -2 590.878 70.2002 1
5 12 -1 2932.1 197.046 1
5 12 0 2143.03 116.634 1
5 12 1 3148.97 142.763 1
5 12 2 601.979 87.8639 1
5 12 3 11015.5 561.031 1
5 12 4 6898.43 873.144 1
5 13 -4 13084.6 748.211 1
5 13 -3 12381.7 1044.56 1
5 13 -2 2099.1 149.618 1
5 13 -1 5814.95 641.344 1
5 13 0 1026.44 105.005 1
5 13 1 6766.91 336.557 1
5 13 2 2309.98 153.042 1
5 13 3 13635.6 649.872 1
5 13 4 14125.2 896.874 1
5 14 -4 4311.05 320.263 1
5 14 -3 3676.01 337.577 1
5 14 -2 3801.9 253.47 1
5 14 -1 9093.79 488.77 1
5 14 0 25055.3 2449.88 1
5 14 1 8104.06 613.538 1
5 14 2 2872.7 424.493 1
5 14 3 3841.61 498.257 1
5 14 4 4100.87 236.435 1
5 15 -4 221.624 118.53 1
5 15 -3 1558.94 245.692 1
5 15 -2 4744.91 902.399 1
5 15 -1 6778.69 998.592 1
5 15 0 890.198 120.546 1
5 15 1 5075.96 1703.09 1
5 15 2 4691.12 361.744 1
5 15 3 1458.66 126.415 1
5 15 4 159.421 96.8034 1
5 16 -4 401.668 198.567 1
5 16 -3 571.791 140.228 1
5 16 -2 2618.13 233.159 1
5 16 -1 3029.38 252.318 1
5 16 0 637.071 156.918 1
5 16 1 2885.97 196.523 1
5 16 2 2566.76 230.659 1
5 16 3 645.253 128.485 1
5 16 4 378.439 161.154 1
5 17 -4 321.419 148.63 1
5 17 -3 1112.83 274.124 1
5 17 -2 4087.76 449.864 1
5 17 -1 1476.98 303.383 1
5 17 0 311.748 171.02 1
5 17 1 1601.94 207.414 1
5 17 2 4469.2 277.051 1
5 17 3 1494.99 293.855 1
5 17 4 266.249 148.185 1
5 18 -4 846.908 364.307 1
5 18 -3 682.02 169.119 1
5 18 -2 1956.56 322.835 1
5 18 -1 1130.27 198.89 1
5 18 0 5062.39 576.023 1
5 18 1 928.01 333.711 1
5 18 2 1602.28 216.341 1
5 18 3 721.742 189.492 1
5 18 4 779.221 202.59 1
5 19 -4 120.09 89.5044 1
5 19 -3 2728.15 774.894 1
5 19 -2 486.7 178.631 1
5 19 -1 339.613 162.345 1
5 19 0 1867.78 322.649 1
5 19 1 459.614 243.913 1
5 19 2 414.118 193.692 1
5 19 3 3380.34 548.649 1
5 19 4 200.311 159.277 1
6 0 0 12797.6 362.684 1
6 1 -1 83092.5 2173.7 1
6 1 0 38069.5 979.633 1
6 1 1 82394.2 2288.51 1
6 2 -2 12088.9 328.003 1
6 2 -1 40155.8 1010.52 1
6 2 0 41095.8 1002.87 1
6 2 1 39693.3 979.275 1
6 2 2 12192.5 303.693 1
6 3 -3 4700.48 134.294 1
6 3 -2 18938.2 462.125 1
6 3 -1 6374.49 162.972 1
6 3 0 80167.2 2094.6 1
6 3 1 6437.1 164.102 1
6 3 2 19196.8 491.169 1
6 3 3 4654.49 141.149 1
6 4 -4 4776.67 140.107 1
6 4 -3 10343.9 270.254 1
6 4 -2 20850.3 527.729 1
6 4 -1 4656.33 123.944 1
6 4 0 21705.3 543.606 1
6 4 1 4901.83 130.264 1
6 4 2 19728.4 493.159 1
6 4 3 10057.2 301.691 1
6 4 4 4919.47 135.464 1
6 5 -5 13745.4 375.322 1
6 5 -4 2941.46 85.0796 1
6 5 -3 915.864 38.4417 1
6 5 -2 22368.6 571.499 1
6 5 -1 45972.1 1230.02 1
6 5 0 649.534 29.8883 1
6 5 1 46854.1 1297.59 1
6 5 2 22304.2 571.045 1
6 5 3 904.481 41.0696 1
6 5 4 3086.67 103.316 1
6 5 5 13978.3 384.818 1
6 6 -6 25773.2 1050.72 1
6 6 -5 9489.91 265.308 1
6 6 -4 18612.2 536.424 1
6 6 -3 343.313 29.3434 1
6 6 -2 1146.49 48.569 1
6 6 -1 4345.91 131.261 1
6 6 0 4195.31 126.841 1
6 6 1 4756.27 133.38 1
6 6 2 1176.28 46.6702 1
6 6 3 355.161 26.5333 1
6 6 4 18536.2 538.143 1
6 6 5 9738.93 316.668 1
6 6 6 25571.2 1092.64 1
6 7 -5 22553.7 654.262 1
6 7 -4 4290.25 139.792 1
6 7 -3 12520.3 367.465 1
6 7 -2 15144.9 402.857 1
6 7 -1 39.4578 21.3398 1
6 7 0 13062.9 461.058 1
6 7 1 40.4169 21.5656 1
6 7 2 15494.4 439.341 1
6 7 3 13466.8 424.179 1
6 7 4 4425.68 186.737 1
6 7 5 23683.8 844.312 1
6 8 -5 14398.4 476.774 1
6 8 -4 1497.68 75.8299 1
6 8 -3 7148.95 281.826 1
6 8 -2 19811.5 730.796 1
6 8 -1 26689.9 902.426 1
6 8 0 13581 686.256 1
6 8 1 25590.8 767.43 1
6 8 2 19594.2 608.652 1
6 8 3 7234.28 221.949 1
6 8 4 1477.14 68.2511 1
6 8 5 14314.9 443.044 1
6 9 -5 7105.94 388.89 1
6 9 -4 17783 606.978 1
6 9 -3 9249.57 924.457 1
6 9 -2 446.783 49.3487 1
6 9 -1 2281.49 92.1606 1
6 9 0 5286.33 173.302 1
6 9 1 2300.87 124.415 1
6 9 2 398.296 49.842 1
6 9 3 9723.08 343.2 1
6 9 4 18111.3 912.355 1
6 9 5 6904.68 459.725 1
6 10 -5 58.987 41.3729 1
6 10 -4 11890.7 2440.54 1
6 10 -3 2226.4 168.959 1
6 10 -2 174.644 50.8249 1
6 10 -1 3466.73 192.179 1
6 10 0 66.4916 57.8247 1
6 10 1 3441.88 200.086 1
6 10 2 172.447 63.5902 1
6 10 3 2241.73 103.693 1
6 10 4 10735.3 843.787 1
6 10 5 54.2033 37.353 1
6 11 -5 1314.97 126.844 1
6 11 -4 3322.02 417.615 1
6 11 -3 6134.6 1064.6 1
6 11 -2 2049.58 185.651 1
6 11 -1 840.777 82.5182 1
6 11 0 14595.6 2033.34 1
6 11 1 730.735 84.6411 1
6 11 2 2390.88 171.896 1
6 11 3 7311.54 291.685 1
6 11 4 3636.16 163.422 1
6 11 5 1412.95 121.608 1
6 12 -5 8381.55 451.956 1
6 12 -4 1276.71 135.66 1
6 12 -3 5603.35 1058.75 1
6 12 -2 390.128 107.171 1
6 12 -1 5516.2 257.867 1
6 12 0 195.937 72.1065 1
6 12 1 5350.88 1232.05 1
6 12 2 305.12 90.2637 1
6 12 3 6446.32 271.535 1
6 12 4 1248.96 100.83 1
6 12 5 8172.13 349.21 1
6 13 -5 693.835 132.171 1
6 13 -4 1178.78 145.477 1
6 13 -3 1429.83 357.751 1
6 13 -2 15400.6 1857.21 1
6 13 -1 266.682 83.6164 1
6 13 0 34.4736 37.2457 1
6 13 1 255.024 79.8888 1
6 13 2 15971.7 1227.14 1
6 13 3 1469.43 133.979 1
6 13 4 1168.21 108.774 1
6 13 5 652.886 112.608 1
6 14 -5 1472.72 166.722 1
6 14 -4 7339.5 804.826 1
6 14 -3 1201.71 202.738 1
6 14 -2 1024.77 253.969 1
6 14 -1 2623.22 397.856 1
6 14 0 2996.74 178.219 1
6 14 1 2602.19 219.962 1
6 14 2 900.932 106.867 1
6 14 3 1210.66 113.571 1
6 14 4 7362.08 448.665 1
6 14 5 1436.43 158.164 1
6 15 -5 3178.26 704.292 1
6 15 -4 1542.46 223.032 1
6 15 -3 1746.37 268.746 1
6 15 -2 13754 810.124 1
6 15 -1 169.037 103.353 1
6 15 0 62.753 68.1398 1
6 15 1 124.474 73.7147 1
6 15 2 11449.3 1782.95 1
6 15 3 1349.01 174.088 1
6 15 4 1310.56 213.744 1
6 15 5 2742.16 873.773 1
6 16 -5 569.103 153.512 1
6 16 -4 2306.65 523.798 1
6 16 -3 2291.47 419.815 1
6 16 -2 1888.53 226.652 1
6 16 -1 4204.19 307.155 1
6 16 0 78.1439 82.9089 1
6 16 1 3948.36 416.913 1
6 16 2 1936.74 172.102 1
6 16 3 2362.19 393.87 1
6 16 4 2353.48 293.849 1
6 16 5 324.208 140.813 1
6 17 -5 1411.22 349.887 1
6 17 -4 3430.83 423.561 1
6 17 -3 567.041 170.336 1
6 17 -2 694.472 166.041 1
6 17 -1 1195.35 183.484 1
6 17 0 142.585 123.535 1
6 17 1 1238.93 378.146 1
6 17 2 698.782 133.402 1
6 17 3 622.293 164.877 1
6 17 4 3804.34 398.161 1
6 17 5 1181.02 335.383 1
6 18 -5 202.268 149.854 1
6 18 -4 2819.08 274.772 1
6 18 -3 1517.92 330.867 1
6 18 -2 302.153 185.771 1
6 18 -1 159.693 124.707 1
6 18 0 442.289 178.753 1
6 18 1 161.134 125.952 1
6 18 2 382.611 171.207 1
6 18 3 1583.76 216.136 1
6 18 4 2383.1 277.958 1
6 18 5 225.66 141.491 1
6 19 -5 497.51 280.545 1
6 19 -4 2119.3 374.226 1
6 19 -3 1632.42 345.803 1
6 19 -1 371.135 247.731 1
6 19 0 3735.88 1034.17 1
6 19 1 287.544 153.182 1
6 19 2 852.404 280.053 1
6 19 4 2405.75 368.613 1
6 19 5 503.504 251.835 1
7 1 -1 474.909 24.0496 1
7 1 0 822.831 32.497 1
7 1 1 470.979 26.6901 1
7 2 -2 19009.3 510.992 1
7 2 -1 14050 365.49 1
7 2 0 52467.5 1337.46 1
7 2 1 13685.5 341.938 1
7 2 2 18653.2 558.06 1
7 3 -3 20648.5 571.924 1
7 3 -2 4297.74 113.872 1
7 3 -1 8962.75 225.18 1
7 3 0 21983.5 552.341 1
7 3 1 8760.83 242.096 1
7 3 2 4307.35 116.99 1
7 3 3 21167.8 653.149 1
7 4 -4 323.372 26.937 1
7 4 -3 38923.2 1061.1 1
7 4 -2 1813.8 62.43 1
7 4 -1 330.772 27.6914 1
7 4 0 21841.4 558.547 1
7 4 1 354.027 28.1024 1
7 4 2 1795.8 61.2025 1
7 4 3 39079.7 1133.42 1
7 4 4 374.329 37.9855 1
7 5 -5 4901.24 156.972 1
7 5 -4 10391.7 282.952 1
7 5 -3 7903.35 217.218 1
7 5 -2 28157.5 758.622 1
7 5 -1 16935.8 479.708 1
7 5 0 1023.77 39.4713 1
7 5 1 17259.5 462.203 1
7 5 2 28423.1 766.579 1
7 5 3 7480.25 213.33 1
7 5 4 10542.1 299.922 1
7 5 5 5031.36 153.726 1
7 6 -6 2179.23 143.171 1
7 6 -5 3665.04 145.728 1
7 6 -4 23175.8 672.434 1
7 6 -3 4951.56 160.973 1
7 6 -2 12324.7 342.564 1
7 6 -1 5917.37 168.571 1
7 6 0 14876.6 418.755 1
7 6 1 5580.42 152.466 1
7 6 2 12611.9 352.182 1
7 6 3 4734.67 143.495 1
7 6 4 24650.8 727.269 1
7 6 5 3794.18 180.49 1
7 6 6 2538.86 113.167 1
7 7 -7 12915.5 665.932 1
7 7 -6 1034.83 62.1048 1
7 7 -5 32.8036 24.5011 1
7 7 -4 484.841 43.2512 1
7 7 -3 4736.71 141.694 1
7 7 -2 11069.5 373.076 1
7 7 -1 19655 586.606 1
7 7 0 11258.8 339.14 1
7 7 1 21053.8 594.891 1
7 7 2 11325.9 334.377 1
7 7 3 5114.63 158.53 1
7 7 4 499.015 47.8061 1
7 7 5 52.1513 38.0054 1
7 7 6 1130.46 90.9161 1
7 7 7 13175.9 1103.71 1
7 8 -6 12651.8 471.563 1
7 8 -5 9283.09 419.447 1
7 8 -4 6194.58 204.182 1
7 8 -3 1188.7 76.7325 1
7 8 -2 3381.3 130.348 1
7 8 -1 17762.2 695.797 1
7 8 0 6441.8 266.803 1
7 8 1 17913 574.258 1
7 8 2 3131.93 117.988 1
7 8 3 1203.14 71.0523 1
7 8 4 6294.27 198.48 1
7 8 5 9263.03 499.907 1
7 8 6 12014.8 496.857 1
7 9 -6 12267 563.016 1
7 9 -5 4912.04 193.888 1
7 9 -4 6024.54 503.879 1
7 9 -3 2467.48 164.053 1
7 9 -2 6625.67 246.46 1
7 9 -1 4051.02 153.103 1
7 9 0 2774.66 127.039 1
7 9 1 3842.21 358.531 1
7 9 2 6563.33 207.767 1
7 9 3 1957.94 91.9468 1
7 9 4 6064.47 225.942 1
7 9 5 4487.09 264.872 1
7 9 6 11268.5 879.802 1
7 10 -6 857.786 177.768 1
7 10 -5 3319.56 288.177 1
7 10 -4 675.029 141.094 1
7 10 -3 14952.5 1738.54 1
7 10 -2 12150.9 486.268 1
7 10 -1 4318.3 193.344 1
7 10 0 935.617 93.3917 1
7 10 1 4055.62 159.144 1
7 10 2 11315.6 380.522 1
7 10 3 14128.3 770.929 1
7 10 4 741.802 70.6953 1
7 10 5 2747.62 217.804 1
7 10 6 631.769 84.2319 1
7 11 -6 919.141 90.4677 1
7 11 -5 5767.05 344.067 1
7 11 -4 3180.94 274.168 1
7 11 -3 2767.18 250.748 1
7 11 -2 3525.54 318.391 1
7 11 -1 2010.77 202.904 1
7 11 0 12475.1 1448.2 1
7 11 1 2342.32 196.147 1
7 11 2 3481.09 185.791 1
7 11 3 2287.54 244.859 1
7 11 4 3575.98 206.08 1
7 11 5 5984.33 538.383 1
7 11 6 918.935 94.084 1
7 12 -6 2846.91 186.67 1
7 12 -5 6147.46 411.61 1
7 12 -4 573.92 91.6968 1
7 12 -3 831.402 131.725 1
7 12 -2 5079.53 374.013 1
7 12 -1 462.45 87.5542 1
7 12 0 1103.34 142.205 1
7 12 1 537.071 99.8391 1
7 12 2 6175.79 267.393 1
7 12 3 701.036 90.3392 1
7 12 4 721.114 92.3021 1
7 12 5 6168.94 373.137 1
7 12 6 2750.6 148.206 1
7 13 -6 1721.5 134.407 1
7 13 -5 542.127 129.559 1
7 13 -4 4542.44 812.488 1
7 13 -3 1866.85 176.333 1
7 13 -2 1355.22 154.075 1
7 13 -1 6273.05 582.476 1
7 13 0 69.8032 77.1822 1
7 13 1 6606.9 534.386 1
7 13 2 1068.72 120.899 1
7 13 3 1695.37 174.245 1
7 13 4 4609.7 391.964 1
7 13 5 463.793 92.3784 1
7 13 6 1988.66 134.976 1
7 14 -6 409.162 134.966 1
7 14 -5 831.776 177.506 1
7 14 -4 7525.59 584.36 1
7 14 -3 1439.25 334.774 1
7 14 -2 4263.96 978.186 1
7 14 -1 3439.53 205.893 1
7 14 0 3025.95 390.567 1
7 14 1 2923.85 165.591 1
7 14 2 5118.11 340.386 1
7 14 3 1613.46 127.543 1
7 14 4 7558.33 618.691 1
7 14 5 818.075 114.067 1
7 14 6 411.888 119.505 1
7 15 -6 967.751 163.275 1
7 15 -5 8383.46 1035.66 1
7 15 -4 3630.62 534.284 1
7 15 -3 1200.57 239.988 1
7 15 -2 1155.11 158.088 1
7 15 -1 536.367 105.981 1
7 15 0 6426.89 634.152 1
7 15 1 446.456 109.486 1
7 15 2 1259.5 123.835 1
7 15 3 1097.7 241.487 1
7 15 4 3331.52 298.327 1
7 15 5 7358.29 694.777 1
7 15 6 913.448 120.918 1
7 16 -6 198.121 119.279 1
7 16 -5 3509.23 880.085 1
7 16 -4 2220.75 208.672 1
7 16 -3 1358.28 188.193 1
7 16 -2 4358.06 329.885 1
7 16 -1 1942.89 330.335 1
7 16 0 150.401 122.039 1
7 16 1 2373.49 318.357 1
7 16 2 3957.15 300.975 1
7 16 3 1329.91 180.341 1
7 16 4 1816.51 276.095 1
7 16 5 3491.39 282.816 1
7 16 6 142.887 91.8572 1
7 17 -6 4885.6 547.947 1
7 17 -5 832.065 324.9 1
7 17 -4 2270.09 292.5 1
7 17 -3 628.934 196.204 1
7 17 -2 393.646 146.854 1
7 17 -1 7484.2 529.182 1
7 17 0 86.1517 100.453 1
7 17 1 8096.25 862.146 1
7 17 2 426.872 154.862 1
7 17 3 704.159 171.283 1
7 17 4 1871.58 535.603 1
7 17 5 816.325 169.765 1
7 17 6 3760.05 321.263 1
7 18 -5 1231.35 425.494 1
7 18 -4 1774.17 364.642 1
7 18 -3 217.08 127.03 1
7 18 -2 2744.1 500.683 1
7 18 -1 398.625 164.402 1
7 18 0 98.945 110.489 1
7 18 1 371.33 168.038 1
7 18 2 3128.72 313.708 1
7 18 3 216.091 148.252 1
7 18 4 1576.81 219.403 1
7 18 5 1054.82 387.504 1
7 18 6 2594.47 370.531 1
7 19 -5 1561.56 322.955 1
7 19 -4 286.164 201.15 1
7 19 -3 360.581 227.817 1
7 19 -1 1358.03 362.344 1
7 19 4 179.686 138.378 1
8 0 0 437.859 32.1805 1
8 1 -1 6393.86 172.154 1
8 1 0 1944.37 59.3835 1
8 1 1 6450.35 173.696 1
8 2 -2 32369.1 901.963 1
8 2 -1 6139.76 165.763 1
8 2 0 35632 968.11 1
8 2 1 5918.24 183.546 1
8 2 2 31985.2 850.032 1
8 3 -3 4371.43 128.101 1
8 3 -2 1036.79 39.1573 1
8 3 -1 13946.2 367.322 1
8 3 0 2049.88 66.1602 1
8 3 1 14071.4 360.851 1
8 3 2 1018.43 40.1835 1
8 3 3 4386.25 124.71 1
8 4 -4 3678.61 112.375 1
8 4 -3 35063.4 1642.61 1
8 4 -2 19711.9 647.754 1
8 4 -1 304.274 26.6587 1
8 4 0 4057.61 114.194 1
8 4 1 253.455 28.3516 1
8 4 2 20780.2 590.675 1
8 4 3 38766.9 1264.16 1
8 4 4 3966.5 121.319 1
8 5 -5 7120.13 250.229 1
8 5 -4 13142.6 487.47 1
8 5 -3 3540.22 109.774 1
8 5 -2 17756.6 504.389 1
8 5 -1 18581.9 509.701 1
8 5 0 36436.3 1039.3 1
8 5 1 18850.7 553.281 1
8 5 2 17966.4 535.042 1
8 5 3 3672.03 114.96 1
8 5 4 12856.6 356.136 1
8 5 5 6970.98 239.001 1
8 6 -6 8124.68 252.004 1
8 6 -5 6746.77 249.696 1
8 6 -4 9187.5 270.596 1
8 6 -3 7933.79 233.385 1
8 6 -2 1484.85 83.9148 1
8 6 -1 1990.89 71.3126 1
8 6 0 3894.23 116.539 1
8 6 1 1878.53 69.5774 1
8 6 2 1471.62 61.0142 1
8 6 3 7873.84 242.644 1
8 6 4 9375.44 437.176 1
8 6 5 6327.38 199.229 1
8 6 6 8310.53 319.069 1
8 7 -7 4159.46 145.687 1
8 7 -6 2769.05 139.348 1
8 7 -5 10344.7 325.542 1
8 7 -4 14780.4 444.443 1
8 7 -3 20874.4 618.147 1
8 7 -2 13158 406.644 1
8 7 -1 1246.69 59.2403 1
8 7 0 1868.06 89.2113 1
8 7 1 1396.55 62.4249 1
8 7 2 13298.7 384.402 1
8 7 3 21304.3 647.382 1
8 7 4 14613.5 433.65 1
8 7 5 10023 384.146 1
8 7 6 3367.2 188.288 1
8 7 7 4107.84 287.259 1
8 8 -8 10278 725.657 1
8 8 -7 189.054 61.5197 1
8 8 -6 2011.86 161.833 1
8 8 -5 1545.14 96.3345 1
8 8 -4 3448.47 145.515 1
8 8 -3 10133.7 377.378 1
8 8 -2 8527.41 381.987 1
8 8 -1 12030 644.456 1
8 8 0 10654.1 351.641 1
8 8 1 11166.6 455.472 1
8 8 2 9581.58 316.022 1
8 8 3 9097.05 738.857 1
8 8 4 3785.88 172.605 1
8 8 5 1502.22 95.7136 1
8 8 6 2363.27 116.14 1
8 8 7 225.68 65.0258 1
8 8 8 9622.54 1386.05 1
8 9 -7 1230.44 132.21 1
8 9 -6 8158.79 489.488 1
8 9 -5 880.906 84.0602 1
8 9 -4 370.9 90.7531 1
8 9 -3 544.636 105.905 1
8 9 -2 1099.49 155.368 1
8 9 -1 3558.33 235.049 1
8 9 0 5459.69 203.526 1
8 9 1 3609.81 226.648 1
8 9 2 1371.69 83.7562 1
8 9 3 494.085 83.9556 1
8 9 4 310.054 59.122 1
8 9 5 752.413 73.0075 1
8 9 6 8528.62 327.578 1
8 9 7 1078.96 93.6092 1
8 10 -7 1263.52 110.511 1
8 10 -6 8176.05 456.409 1
8 10 -5 985.09 83.2983 1
8 10 -4 223.055 101.886 1
8 10 -3 3210.21 297.062 1
8 10 -2 2868.3 215.329 1
8 10 -1 9876.54 436.305 1
8 10 0 9071.5 459.943 1
8 10 1 9426.81 757.893 1
8 10 2 2750.15 179.194 1
8 10 3 2933.67 168.65 1
8 10 4 166.906 60.202 1
8 10 5 869.459 89.755 1
8 10 6 7242.22 407.708 1
8 10 7 1110.02 119.279 1
8 11 -7 5124.28 434.833 1
8 11 -6 3707.29 200.817 1
8 11 -5 8607.86 416.444 1
8 11 -4 10146.9 739.977 1
8 11 -3 12966 646.323 1
8 11 -2 5580.29 784.713 1
8 11 -1 2212.68 241.997 1
8 11 0 46.5007 46.7842 1
8 11 1 2280.4 134.112 1
8 11 2 5742.58 239.344 1
8 11 3 11086.1 670.444 1
8 11 4 9983.64 589.524 1
8 11 5 8895.54 357.559 1
8 11 6 3881.51 327.807 1
8 11 7 5659.8 290.585 1
8 12 -7 8208.89 360.539 1
8 12 -6 1372.43 124.877 1
8 12 -5 10133.9 823.361 1
8 12 -4 2535.43 374.267 1
8 12 -3 3053.2 907.726 1
8 12 -2 645.564 133.35 1
8 12 -1 4187.3 257.831 1
8 12 0 34.0259 37.1599 1
8 12 1 3691.94 243.179 1
8 12 2 588.341 94.5722 1
8 12 3 2977.02 153.709 1
8 12 4 2336.4 147.753 1
8 12 5 10729.3 463.743 1
8 12 6 1307.15 129.256 1
8 12 7 9368.96 514.102 1
8 13 -7 2773.09 1058.43 1
8 13 -6 764.504 127.074 1
8 13 -5 5700 440.607 1
8 13 -4 3956.52 348.243 1
8 13 -3 8673.37 497.626 1
8 13 -2 1610.44 170.456 1
8 13 -1 6692.88 330.459 1
8 13 0 47.5244 48.8088 1
8 13 1 6524.59 357.947 1
8 13 2 1711.27 146.517 1
8 13 3 7897.96 376.35 1
8 13 4 4407.81 450.403 1
8 13 5 5822.03 335.489 1
8 13 6 968.176 109.159 1
8 13 7 3590.56 213.72 1
8 14 -7 283.32 176.877 1
8 14 -6 1386.69 259.188 1
8 14 -5 2145.55 219.281 1
8 14 -4 1694.85 187.111 1
8 14 -3 3168.98 322.026 1
8 14 -2 4007.51 376.503 1
8 14 -1 6381.86 1703.72 1
8 14 0 7079.52 610.296 1
8 14 1 7749.54 878.737 1
8 14 2 3706.91 332.764 1
8 14 3 3103.68 182.442 1
8 14 4 1640.46 153.88 1
8 14 5 1951.67 166.188 1
8 14 6 1480.11 123.913 1
8 14 7 114.82 73.4354 1
8 15 -7 3829.06 454.985 1
8 15 -6 534.712 157.233 1
8 15 -5 1202.53 356.657 1
8 15 -4 317.316 142.166 1
8 15 -3 1546.42 279.365 1
8 15 -2 303.356 133.401 1
8 15 -1 311.818 102.229 1
8 15 0 3373.23 798.344 1
8 15 1 359.411 167.392 1
8 15 2 171.734 93.4248 1
8 15 3 1291.08 159.503 1
8 15 4 266.222 115.116 1
8 15 5 1323.46 192.787 1
8 15 6 573.026 114.695 1
8 15 7 3682.97 221.411 1
8 16 -7 199.068 138.24 1
8 16 -6 637.938 164.368 1
8 16 -5 1440.53 379.519 1
8 16 -4 902.009 261.071 1
8 16 -3 2126.32 433.786 1
8 16 -2 473.966 146.613 1
8 16 -1 8319.9 549.919 1
8 16 0 3829.21 692.893 1
8 16 1 4653.35 2010.07 1
8 16 2 402.341 104.102 1
8 16 3 1890.02 176.547 1
8 16 4 762.049 148.201 1
8 16 5 1348.9 195.186 1
8 16 6 415.76 162.96 1
8 16 7 136.111 83.5815 1
8 17 -7 2698.91 451.298 1
8 17 -6 1160.69 294.919 1
8 17 -5 835.362 184.259 1
8 17 -4 181.807 117.607 1
8 17 -3 533.89 171.798 1
8 17 -2 2628.63 269.14 1
8 17 -1 1107.65 201.79 1
8 17 0 3549.33 323.163 1
8 17 1 877.203 202.371 1
8 17 2 3162.13 308.225 1
8 17 3 700.411 178.123 1
8 17 4 181.728 103.031 1
8 17 5 704.261 138.806 1
8 17 6 956.005 156.04 1
8 17 7 2588.98 383.982 1
8 18 -5 945.896 268.862 1
8 18 -4 888.983 271.958 1
8 18 -3 497.215 181.962 1
8 18 -2 1198.63 213.563 1
8 18 -1 240.353 142.465 1
8 18 0 104.944 105.62 1
8 18 1 429.885 189.156 1
8 18 2 1363.82 231.702 1
8 18 3 266.441 200.258 1
8 18 4 962.527 258.737 1
8 18 5 1330.81 306.971 1
8 18 6 286.926 184.557 1
8 18 7 205.357 154.54 1
9 1 -1 38024.7 1083.8 1
9 1 0 9905.01 301.027 1
9 1 1 37465.4 1073.05 1
9 2 -2 32612.5 924.16 1
9 2 -1 19020.6 509.103 1
9 2 0 16628.2 445.05 1
9 2 1 19913.4 647.02 1
9 2 2 32514.6 1039.17 1
9 3 -3 1565.23 65.3252 1
9 3 -2 4007.56 129.367 1
9 3 -1 224.992 30.7111 1
9 3 0 4744.67 164.783 1
9 3 1 245.013 25.333 1
9 3 2 4135.58 118.428 1
9 3 3 1682.05 59.6959 1
9 4 -4 1187.8 70.9024 1
9 4 -3 7097.68 237.251 1
9 4 -2 8225.15 245.858 1
9 4 -1 12411.1 355.258 1
9 4 0 7294.42 201.588 1
9 4 1 12418.5 334.808 1
9 4 2 8234.95 225.769 1
9 4 3 7426.43 248.342 1
9 4 4 1201.5 59.7781 1
9 5 -5 4822.69 190.847 1
9 5 -4 6560.5 271.813 1
9 5 -3 11809.1 364.96 1
9 5 -2 5314.61 171.31 1
9 5 -1 7518.81 233.882 1
9 5 0 37955.2 1178.04 1
9 5 1 7107.65 240.027 1
9 5 2 5660.46 164.338 1
9 5 3 11989.5 356.894 1
9 5 4 7057.23 227.84 1
9 5 5 4678.3 158.748 1
9 6 -6 3873.05 151.643 1
9 6 -5 2888.71 210.431 1
9 6 -4 782.317 77.9392 1
9 6 -3 2129.21 103.882 1
9 6 -2 1482.44 89.3311 1
9 6 -1 222.712 43.7209 1
9 6 0 12883.4 523.348 1
9 6 1 223.259 37.429 1
9 6 2 1828.02 72.1684 1
9 6 3 2093.03 93.0508 1
9 6 4 610.912 49.9994 1
9 6 5 2795.24 105.077 1
9 6 6 3823.55 320.154 1
9 7 -7 5779.16 259.103 1
9 7 -6 8952.11 508.312 1
9 7 -5 6596.68 260.501 1
9 7 -4 3847.35 160.495 1
9 7 -3 10720 346.336 1
9 7 -2 21768 767.895 1
9 7 -1 2554.88 119.175 1
9 7 0 3280.29 151.142 1
9 7 1 2360.76 146.795 1
9 7 2 23542.5 775.693 1
9 7 3 10665.8 424.923 1
9 7 4 3865.3 148.175 1
9 7 5 6654.01 373.522 1
9 7 6 9222.34 486.314 1
9 7 7 5912.8 471.715 1
9 8 -8 533.746 84.3153 1
9 8 -7 675.246 99.6399 1
9 8 -6 308.565 91.132 1
9 8 -5 13081.4 723.547 1
9 8 -4 8851.41 626.768 1
9 8 -3 7387.68 331.178 1
9 8 -2 5543.78 346.856 1
9 8 -1 9201.89 345.795 1
9 8 0 10075.4 391.203 1
9 8 1 9325.99 413.459 1
9 8 2 5894.54 396.805 1
9 8 3 7950.79 311.765 1
9 8 4 9092.85 751.413 1
9 8 5 13582 535.112 1
9 8 6 211.317 74.4904 1
9 8 7 624.708 74.0869 1
9 8 8 559.906 76.3423 1
9 9 -9 5849.57 499.469 1
9 9 -8 13214.5 635.689 1
9 9 -7 3812.96 376.412 1
9 9 -6 1048.76 99.6819 1
9 9 -5 5392.44 247.603 1
9 9 -4 272.037 79.4497 1
9 9 -3 3870.17 308.592 1
9 9 -2 910.331 84.0717 1
9 9 -1 4379.26 275.922 1
9 9 0 560.447 70.0027 1
9 9 1 4728.26 166.341 1
9 9 2 889.547 75.926 1
9 9 3 3690.48 178.803 1
9 9 4 246.779 56.2927 1
9 9 5 5540.77 294.417 1
9 9 6 1218.66 88.4874 1
9 9 7 3991.24 162.19 1
9 9 8 11405.3 417.008 1
9 9 9 5135.15 535.616 1
9 10 -8 2468.83 178.226 1
9 10 -7 6017.01 557.617 1
9 10 -6 2205.49 135.143 1
9 10 -5 13094.9 1179.1 1
9 10 -4 16227.4 721.487 1
9 10 -3 6262.18 294.766 1
9 10 -2 653.299 129.736 1
9 10 -1 2538 199.082 1
9 10 0 8385.35 802.709 1
9 10 1 2356.01 134.158 1
9 10 2 672.728 67.0899 1
9 10 3 5719.9 221.854 1
9 10 4 15169.2 672.209 1
9 10 5 12352.5 1031.14 1
9 10 6 2126.46 197.911 1
9 10 7 6045.43 483.683 1
9 10 8 2465.2 181.875 1
9 11 -8 11421.6 694.649 1
9 11 -7 4514.44 355.225 1
9 11 -6 552.748 89.0755 1
9 11 -5 315.313 94.243 1
9 11 -4 2748.58 209.482 1
9 11 -3 5434.65 301.022 1
9 11 -2 8187.77 415.032 1
9 11 -1 7320.94 339.383 1
9 11 0 1664.31 131.607 1
9 11 1 6719.86 259.326 1
9 11 2 7631.69 301.246 1
9 11 3 5172.33 351.225 1
9 11 4 2902.59 161.407 1
9 11 5 294.205 73.4923 1
9 11 6 488.086 78.4066 1
9 11 7 4684.37 230.674 1
9 11 8 7216.63 1669.69 1
9 12 -8 1790.89 283.492 1
9 12 -7 1646.13 144.079 1
9 12 -6 3366.28 713.707 1
9 12 -5 424.517 120.679 1
9 12 -4 329.696 162.187 1
9 12 -3 187.018 104.326 1
9 12 -2 2089.91 188.647 1
9 12 -1 958.676 114.133 1
9 12 0 1260.48 135.584 1
9 12 1 917.489 101.081 1
9 12 2 1728.42 109.748 1
9 12 3 156.508 65.6932 1
9 12 4 324.634 74.2824 1
9 12 5 414.469 90.0814 1
9 12 6 4100.32 324.957 1
9 12 7 1870.7 187.459 1
9 12 8 1625.52 144.505 1
9 13 -8 844.972 165.798 1
9 13 -7 1013.17 170.618 1
9 13 -6 6083.2 372.532 1
9 13 -5 2553.28 508.15 1
9 13 -4 7901.83 805.81 1
9 13 -3 4127.87 515.173 1
9 13 -2 488.142 121.355 1
9 13 -1 5971.12 419.824 1
9 13 0 439.565 145.663 1
9 13 1 6461.37 328.372 1
9 13 2 324.694 91.6527 1
9 13 3 3890.7 207.435 1
9 13 4 6375.11 640.474 1
9 13 5 2684.12 160.033 1
9 13 6 5414.54 307.434 1
9 13 7 1065.18 114.686 1
9 13 8 691.368 108.952 1
9 14 -8 256.162 131.412 1
9 14 -7 1625.61 299.561 1
9 14 -6 4280.68 291.105 1
9 14 -5 2264.19 317.41 1
9 14 -4 1633.76 327.585 1
9 14 -3 1503.94 340.802 1
9 14 -2 18556 1599.3 1
9 14 -1 196.005 95.2958 1
9 14 0 604.948 119.873 1
9 14 1 215.981 85.055 1
9 14 2 16902.7 1126.4 1
9 14 3 1444.8 153.618 1
9 14 4 1316.39 188.075 1
9 14 5 1897.76 205.349 1
9 14 6 4004.71 297.625 1
9 14 7 1400.42 127.466 1
9 14 8 257.422 102.97 1
9 15 -6 170.382 118.113 1
9 15 -5 3777.72 370.78 1
9 15 -4 628.098 156.734 1
9 15 -3 282.401 174.626 1
9 15 -2 1111.71 178.046 1
9 15 -1 2612.27 233.234 1
9 15 0 636.086 139.178 1
9 15 1 2016.82 691.923 1
9 15 2 1148.33 123.335 1
9 15 3 184.746 92.2658 1
9 15 4 523.634 123.908 1
9 15 5 4005.64 219.35 1
9 15 6 119.521 82.7254 1
9 15 7 2312.99 399.994 1
9 15 8 616.579 108.326 1
9 16 -8 325.414 213.979 1
9 16 -7 4509.44 539.647 1
9 16 -6 1863.04 1036.12 1
9 16 -5 1567.83 338.887 1
9 16 -4 912.141 228.367 1
9 16 -2 1645.13 302.225 1
9 16 -1 371.793 155.307 1
9 16 0 845.953 251.521 1
9 16 1 387.905 141.461 1
9 16 2 1506 165.1 1
9 16 3 1540.21 139.872 1
9 16 4 850.039 140.346 1
9 16 5 1758.37 228.685 1
9 16 6 2679.11 229.042 1
9 16 7 3955.25 389.373 1
9 16 8 207.564 105.126 1
9 17 -5 823.033 322.338 1
9 17 -4 1749.29 536.003 1
9 17 -3 3902.87 1557.7 1
9 17 -2 676.662 178.18 1
9 17 -1 223.392 158.023 1
9 17 0 146.516 157.061 1
9 17 1 273.931 194.076 1
9 17 2 667.631 142.133 1
9 17 3 3974.6 813.331 1
9 17 4 1552.81 168.007 1
9 17 5 838.768 181.084 1
9 17 6 391.511 142.275 1
9 17 7 428.255 217.29 1
9 17 8 3386.73 441.16 1
9 18 -5 706.676 276.146 1
9 18 -4 1613.57 306.399 1
9 18 -3 333.315 219.626 1
9 18 -2 311.079 211.62 1
9 18 -1 1529.62 364.511 1
9 18 0 315.732 257.677 1
9 18 4 1948.36 312.668 1
9 18 5 637.874 270.763 1
9 18 6 535.481 222.656 1
10 0 0 3610.77 136.201 1
10 1 -1 12965.3 496.085 1
10 1 0 6322.4 186.847 1
10 1 1 13114.2 443.296 1
10 2 -2 3226.11 123.101 1
10 2 -1 7383.88 355.798 1
10 2 0 2998.02 118.907 1
10 2 1 7249.23 220.628 1
10 2 2 3852.36 134.174 1
10 3 -3 4693.42 155.208 1
10 3 -2 4538.36 179.888 1
10 3 -1 498.7 51.1343 1
10 3 0 601.896 44.3829 1
10 3 1 481.795 45.9028 1
10 3 2 4636.66 160.725 1
10 3 3 4949.22 154.938 1
10 4 -4 15007.5 652.523 1
10 4 -3 2512.32 105.861 1
10 4 -2 7300.28 247.412 1
10 4 -1 18947 617.213 1
10 4 0 9648.16 293.254 1
10 4 1 18632.2 572.669 1
10 4 2 8450.14 308.609 1
10 4 3 2637.54 96.4631 1
10 4 4 15041.2 468.869 1
10 5 -5 1896.89 103.935 1
10 5 -4 6799.4 288.466 1
10 5 -3 18590.3 889.224 1
10 5 -2 780.403 57.1371 1
10 5 -1 7358.69 393.176 1
10 5 0 291.653 48.9305 1
10 5 1 6938.7 253.952 1
10 5 2 883.972 67.5932 1
10 5 3 19313 875.632 1
10 5 4 7003.43 321.844 1
10 5 5 1887.82 103.622 1
10 6 -6 4015.58 293.237 1
10 6 -5 4163.61 244.479 1
10 6 -4 5756.95 285.018 1
10 6 -3 678.562 64.7975 1
10 6 -2 1635.87 105.385 1
10 6 -1 1418.88 79.8521 1
10 6 0 1697.96 97.7706 1
10 6 1 1526.12 88.6241 1
10 6 2 1815.67 124.236 1
10 6 3 792.312 65.8536 1
10 6 4 5874.6 267.763 1
10 6 5 4048.75 141.73 1
10 6 6 3954.75 163.311 1
10 7 -7 843.984 134.553 1
10 7 -6 2959.14 154.356 1
10 7 -5 408.594 75.9253 1
10 7 -4 11117.1 697.875 1
10 7 -3 3194.66 140.583 1
10 7 -2 1487.43 88.1011 1
10 7 -1 20757.2 1001.22 1
10 7 0 14189.2 898.443 1
10 7 1 21272.1 832.921 1
10 7 2 1912.37 90.9809 1
10 7 3 3496.44 147.642 1
10 7 4 11180.2 450.495 1
10 7 5 446.922 57.1003 1
10 7 6 3150.61 185.384 1
10 7 7 893.343 88.9515 1
10 8 -8 4223.17 198.612 1
10 8 -7 9449.29 423.721 1
10 8 -6 8113.8 440.239 1
10 8 -5 1949.75 166.224 1
10 8 -4 2761.64 184.077 1
10 8 -3 11774.6 563.37 1
10 8 -2 10018.3 475.059 1
10 8 -1 4831.01 209.258 1
10 8 0 209.396 61.9259 1
10 8 1 4566.98 307.212 1
10 8 2 9045.92 343.799 1
10 8 3 11707.1 447.834 1
10 8 4 2583.59 115.423 1
10 8 5 1970.15 157.309 1
10 8 6 9612.91 761.501 1
10 8 7 10288.3 667.201 1
10 8 8 4276.96 192.4 1
10 9 -9 213.876 101.71 1
10 9 -8 5136.6 341.695 1
10 9 -7 2562.64 167.917 1
10 9 -6 6837.59 1154.29 1
10 9 -5 10189.9 449.943 1
10 9 -4 1815.27 133.937 1
10 9 -3 2709.82 805.672 1
10 9 -2 3205.64 284.48 1
10 9 -1 3352.08 230.189 1
10 9 0 51.9468 49.7428 1
10 9 1 3454.51 187.908 1
10 9 2 3683.71 216.199 1
10 9 3 3045.41 127.74 1
10 9 4 1638.57 100.576 1
10 9 5 9338.01 384.972 1
10 9 6 7937.19 817.753 1
10 9 7 2701.68 165.565 1
10 9 8 4280.61 518.717 1
10 9 9 236.32 78.3752 1
10 10 -10 8261.79 758.915 1
10 10 -9 3767.88 240.929 1
10 10 -8 255.229 103.583 1
10 10 -7 4070.91 227.887 1
10 10 -6 2692.89 200.417 1
10 10 -5 516.682 102.025 1
10 10 -4 7162.87 501.128 1
10 10 -3 934.37 130.636 1
10 10 -2 17389.1 797.405 1
10 10 -1 416.105 72.22 1
10 10 0 5553.66 270.241 1
10 10 1 489.674 79.888 1
10 10 2 15948.6 654.305 1
10 10 3 891.635 127.86 1
10 10 4 7998.79 437.594 1
10 10 5 517.257 89.9825 1
10 10 6 2521.87 135.949 1
10 10 7 3925.03 170.838 1
10 10 8 282.592 76.43 1
10 10 9 3063.02 155.414 1
10 10 10 7185.16 833.604 1
10 11 -9 256.742 132.321 1
10 11 -8 6186.34 346.844 1
10 11 -7 1048.52 170.137 1
10 11 -6 254.576 99.6551 1
10 11 -5 2883.77 196.791 1
10 11 -4 2609.19 216.81 1
10 11 -3 1917.24 392.109 1
10 11 -2 15624.6 1209.7 1
10 11 -1 5208.23 265.73 1
10 11 0 45.8697 48.9452 1
10 11 1 5066.79 251.863 1
10 11 2 14599.9 648.616 1
10 11 3 1507.42 112.132 1
10 11 4 2327.68 307.963 1
10 11 5 3044.28 243.824 1
10 11 6 228.547 80.924 1
10 11 7 847.602 93.75 1
10 11 8 5157.93 361.561 1
10 11 9 277.967 95.6112 1
10 12 -9 116.059 85.6105 1
10 12 -8 2862.26 568.581 1
10 12 -7 2134.1 492.78 1
10 12 -6 4219.21 723.083 1
10 12 -5 12477 713.603 1
10 12 -4 377.201 178.204 1
10 12 -3 4874.42 302.958 1
10 12 -2 1227.17 155.836 1
10 12 -1 1633.98 145.803 1
10 12 0 614.57 140.719 1
10 12 1 1398.87 121.186 1
10 12 2 1093.17 163.437 1
10 12 3 4734.23 248.836 1
10 12 4 424.277 111.555 1
10 12 5 14131.1 723.33 1
10 12 6 4021.89 465.661 1
10 12 7 2108.28 145.547 1
10 12 8 2762.46 241.287 1
10 12 9 137.717 106.422 1
10 13 -9 368.896 148.395 1
10 13 -8 1540.87 329.385 1
10 13 -7 717.423 221.537 1
10 13 -6 1690.64 181.828 1
10 13 -5 3024.29 500.264 1
10 13 -4 1985.91 187.313 1
10 13 -3 1417.46 392.347 1
10 13 -2 131.964 90.0533 1
10 13 -1 2684.35 274.359 1
10 13 0 20598.1 1186.36 1
10 13 1 2374.27 261.901 1
10 13 2 95.7764 64.4034 1
10 13 3 1409.65 130.671 1
10 13 4 1808.19 173.535 1
10 13 5 3412.53 222.062 1
10 13 6 1903.97 161.401 1
10 13 7 1342.88 143.643 1
10 13 8 1737.67 157.955 1
10 13 9 309.214 103.4 1
10 14 -9 2808.52 880.953 1
10 14 -8 5535.38 609.107 1
10 14 -7 3504.81 430.795 1
10 14 -6 624.279 242.186 1
10 14 -5 1234.17 584.188 1
10 14 -4 1806.92 431.659 1
10 14 -3 4560.81 312.975 1
10 14 -2 104.586 77.3547 1
10 14 -1 1967.92 206.425 1
10 14 0 935.765 140.533 1
10 14 1 2042 174.136 1
10 14 2 115.867 92.4225 1
10 14 3 4492.11 443.088 1
10 14 4 1699.05 177.258 1
10 14 5 1433.29 210.141 1
10 14 6 836.486 137.366 1
10 14 7 2783.35 201.613 1
10 14 8 4955.25 300.716 1
10 14 9 3220.15 328.296 1
10 15 -8 771.2 247.647 1
10 15 -7 1377.46 310.277 1
10 15 -6 824.475 167.011 1
10 15 -5 473.449 161.857 1
10 15 -4 7621.38 865.648 1
10 15 -3 221.809 149.475 1
10 15 -2 185.046 111.638 1
10 15 -1 901.251 176.608 1
10 15 0 96.5176 82.3853 1
10 15 1 892.729 146.154 1
10 15 2 118.918 75.0726 1
10 15 3 123.337 78.5218 1
10 15 4 7460.2 433.646 1
10 15 5 524.321 175.695 1
10 15 6 722.29 193.657 1
10 15 7 1443.31 157.455 1
10 15 8 1023.86 191.452 1
10 15 9 2205.71 285.141 1
10 16 -7 1002.48 301.947 1
10 16 -6 3048.66 1325.05 1
10 16 -5 839.567 172.882 1
10 16 -4 2905.39 385.342 1
10 16 -3 1148.45 274.677 1
10 16 -2 1433.19 200.604 1
10 16 -1 6546.23 541.179 1
10 16 0 181.998 115.522 1
10 16 1 5218.68 1186.15 1
10 16 2 1465.01 165.648 1
10 16 3 873.674 121.743 1
10 16 4 3014.51 232.323 1
10 16 5 622.024 181.438 1
10 16 6 4591.64 323.293 1
10 16 7 952.777 170.408 1
10 16 8 440.837 256.52 1
10 17 -5 298.315 180.863 1
10 17 -4 1198.18 208.609 1
10 17 -3 1170.89 508.582 1
10 17 -2 3156.71 632.015 1
10 17 -1 860.398 192.013 1
10 17 0 6006.34 470.182 1
10 17 1 577.611 250.027 1
10 17 2 3416.9 644.328 1
10 17 3 1517.86 305.483 1
10 17 4 1116.52 186.962 1
10 17 5 308.377 150.78 1
10 17 6 582.073 180.411 1
10 18 4 189.883 142.663 1
10 18 5 529.208 242.857 1
11 1 -1 1993.76 114.622 1
11 1 0 8058.14 437.843 1
11 1 1 2293.23 106.458 1
11 2 -2 814.998 65.4096 1
11 2 -1 10656.4 732.152 1
11 2 0 406.117 51.3805 1
11 2 1 11488 484.234 1
11 2 2 910.078 73.6549 1
11 3 -3 4168.66 201.864 1
11 3 -2 104.901 40.8533 1
11 3 -1 3057.07 126.778 1
11 3 0 1620.32 81.9676 1
11 3 1 3228.3 143.15 1
11 3 2 131.204 48.0489 1
11 3 3 3979.67 192.827 1
11 4 -4 3838.91 171.933 1
11 4 -3 10926.9 641.966 1
11 4 -2 9864.71 345.243 1
11 4 -1 6138.4 219.47 1
11 4 0 386.694 53.747 1
11 4 1 5895.17 213.686 1
11 4 2 11581.8 967.002 1
11 4 3 12463.3 539.652 1
11 4 4 3924.3 171.09 1
11 5 -5 4899.94 255.522 1
11 5 -4 1566.2 175.713 1
11 5 -3 9342.47 316.737 1
11 5 -2 2504.29 130.177 1
11 5 -1 3869.4 216.715 1
11 5 0 11817 414.193 1
11 5 1 4288.85 165.518 1
11 5 2 2515.63 128.858 1
11 5 3 9852.38 324.211 1
11 5 4 1664.83 88.7863 1
11 5 5 4875.45 351.179 1
11 6 -6 9390.82 594.134 1
11 6 -5 15088.8 1474.84 1
11 6 -4 7872.4 498.031 1
11 6 -3 4103.26 246.389 1
11 6 -2 15603.5 707.812 1
11 6 -1 3039.05 129.203 1
11 6 0 1739.03 91.8503 1
11 6 1 3190.49 128.39 1
11 6 2 17559.2 715.642 1
11 6 3 4371.9 299.741 1
11 6 4 8247.96 283.293 1
11 6 5 15975.5 1018.69 1
11 6 6 9354.25 363.096 1
11 7 -7 5378.58 246.333 1
11 7 -6 5184.98 289.303 1
11 7 -5 1286.66 107.119 1
11 7 -4 23287 1079.72 1
11 7 -3 518.951 170.459 1
11 7 -2 3740.53 157.265 1
11 7 -1 6340.91 257.988 1
11 7 0 2348.9 144.651 1
11 7 1 7038.93 316.521 1
11 7 2 3402.79 140.401 1
11 7 3 463.573 63.4182 1
11 7 4 20933.3 821.389 1
11 7 5 1359.78 109.086 1
11 7 6 5041.87 231.053 1
11 7 7 6269.96 747.154 1
11 8 -8 193.417 90.3207 1
11 8 -7 132.17 77.2721 1
11 8 -6 2091.59 150.566 1
11 8 -5 412.96 109.26 1
11 8 -4 444.264 97.3486 1
11 8 -3 1529.85 140.927 1
11 8 -2 2247.5 142.762 1
11 8 -1 8486.86 377.052 1
11 8 0 1111.14 88.43 1
11 8 1 9004.93 422.568 1
11 8 2 1983.98 105.85 1
11 8 3 1445.92 87.0259 1
11 8 4 405.324 64.6502 1
11 8 5 567.929 75.275 1
11 8 6 1917.52 216.916 1
11 8 7 197.26 117.301 1
11 8 8 211.464 98.2308 1
11 9 -9 318.184 140.452 1
11 9 -8 3158.7 363.538 1
11 9 -7 258.779 95.8297 1
11 9 -6 4124.21 449.115 1
11 9 -5 11000.6 505.053 1
11 9 -4 6846.71 422.103 1
11 9 -3 7696.8 414.89 1
11 9 -2 2774.35 168.632 1
11 9 -1 4839.86 510.709 1
11 9 0 315.47 72.7917 1
11 9 1 4651.55 402.02 1
11 9 2 2735.83 134.549 1
11 9 3 7444.83 280.81 1
11 9 4 6598.28 309.113 1
11 9 5 11539.5 615.44 1
11 9 6 4292.88 271.07 1
11 9 7 292.957 94.1933 1
11 9 8 2573.3 220.499 1
11 9 9 287.946 94.9433 1
11 10 -10 2497.92 202.164 1
11 10 -9 1934.7 168.45 1
11 10 -8 615.68 144.436 1
11 10 -7 6364.97 839.871 1
11 10 -6 5357.17 634.719 1
11 10 -5 3521.62 244.157 1
11 10 -4 1900.2 180.973 1
11 10 -3 7297.74 444.755 1
11 10 -2 3905.18 449.163 1
11 10 -1 8195.98 376.295 1
11 10 0 11873.9 497.331 1
11 10 1 8124.66 408.29 1
11 10 2 4175.34 191.553 1
11 10 3 7200.75 298.143 1
11 10 4 1966.01 124.556 1
11 10 5 3518.89 221.256 1
11 10 6 5275.25 342.78 1
11 10 7 6998.24 570.136 1
11 10 8 494.945 105.936 1
11 10 9 1991.96 203.659 1
11 10 10 2078.89 249.985 1
11 11 -11 4084.37 479.279 1
11 11 -10 141.9 88.4686 1
11 11 -9 2682.02 212.502 1
11 11 -8 3464.83 387.107 1
11 11 -7 2276.55 172.691 1
11 11 -6 1071.29 142.742 1
11 11 -5 632.059 121.219 1
11 11 -4 4930.14 876.704 1
11 11 -3 3064.77 249.682 1
11 11 -2 426.013 161.448 1
11 11 -1 7533.26 438.147 1
11 11 0 2484.98 197.908 1
11 11 1 6938 1142.36 1
11 11 2 364.384 85.2541 1
11 11 3 2924.61 145.501 1
11 11 4 5018.1 463.437 1
11 11 5 492.236 111.034 1
11 11 6 981.962 110.609 1
11 11 7 2126.38 364.664 1
11 11 8 3117.93 306.633 1
11 11 9 2156.25 228.907 1
11 11 10 92.44 68.8644 1
11 11 11 3418.87 554.997 1
11 12 -10 132.884 90.7988 1
11 12 -9 2774.57 272.489 1
11 12 -8 505.421 205.876 1
11 12 -7 913.157 132.746 1
11 12 -6 2473.44 185.018 1
11 12 -5 3687.35 226.953 1
11 12 -4 4853.25 684.455 1
11 12 -3 2562.84 241.828 1
11 12 -2 3483.66 249.429 1
11 12 -1 3197.51 379.846 1
11 12 0 1023.14 268.372 1
11 12 1 3045.55 241.829 1
11 12 2 3056.51 358.214 1
11 12 3 2617.14 173.842 1
11 12 4 5147.39 280.379 1
11 12 5 3900.71 234.385 1
11 12 6 2776.45 283.814 1
11 12 7 857.584 160.294 1
11 12 8 391.26 148.521 1
11 12 9 2451.92 417.347 1
11 12 10 102.87 74.4376 1
11 13 -10 603.032 227.207 1
11 13 -9 1829.03 344.411 1
11 13 -8 1054.48 287.752 1
11 13 -7 2176.66 327.799 1
11 13 -6 1606.56 182.693 1
11 13 -5 3455.5 267.483 1
11 13 -4 399.28 137.405 1
11 13 -3 7345.03 1721.49 1
11 13 -2 5717 376.647 1
11 13 -1 1180.32 166.685 1
11 13 0 4343.02 259.449 1
11 13 1 1056.28 139.3 1
11 13 2 5693.38 636.402 1
11 13 3 6160.6 1325.9 1
11 13 4 454.404 126.672 1
11 13 5 3538.66 465.626 1
11 13 6 1748.96 183.374 1
11 13 7 2084.68 176.599 1
11 13 8 1172.57 192.739 1
11 13 9 1977.13 180.335 1
11 13 10 664.294 176.45 1
11 14 -9 3598.75 487.244 1
11 14 -8 4809.17 596.499 1
11 14 -7 2783.47 398.397 1
11 14 -6 1247.34 330.2 1
11 14 -5 1658.47 197.579 1
11 14 -4 718.269 148.846 1
11 14 -3 1000.38 174.257 1
11 14 -2 5119.28 589.25 1
11 14 -1 1952.94 203.484 1
11 14 0 118.881 102.928 1
11 14 1 1582.45 186.347 1
11 14 2 4534.67 395.179 1
11 14 3 846.221 118.501 1
11 14 4 649.214 142.965 1
11 14 5 1765.44 176.293 1
11 14 6 1436.14 183.657 1
11 14 7 2787.25 216.951 1
11 14 8 4660.72 347.694 1
11 14 9 3588.56 252.35 1
11 14 10 350.992 201.671 1
11 15 -7 1953.6 358.521 1
11 15 -6 2350.43 778.064 1
11 15 -5 665.679 176.166 1
11 15 -4 1486.08 274.647 1
11 15 -3 217.246 147.906 1
11 15 -2 392.155 157.613 1
11 15 -1 5386.66 387.906 1
11 15 0 3016.31 221.302 1
11 15 1 5612.77 447.421 1
11 15 2 366.288 127.417 1
11 15 3 122.851 79.777 1
11 15 4 1419.45 279.49 1
11 15 5 400.767 141.805 1
11 15 6 3125.38 247.47 1
11 15 7 1496.76 168.192 1
11 15 8 210.025 118.714 1
11 15 9 208.329 162.858 1
11 16 -6 596.341 236.046 1
11 16 -5 724.313 244.41 1
11 16 -4 1265.56 502.502 1
11 16 -3 595.748 254.375 1
11 16 -2 2427.75 367.978 1
11 16 -1 1545.22 212.358 1
11 16 0 4310.53 352.43 1
11 16 1 1454.22 350.21 1
11 16 2 2446.38 207.202 1
11 16 3 646.129 143.192 1
11 16 4 1271.66 166.559 1
11 16 5 593.473 140.655 1
11 16 6 923.919 199.664 1
11 17 -5 327.775 207.289 1
11 17 -4 468.207 231.006 1
11 17 -3 387.602 229.275 1
11 17 -2 251.04 184.151 1
11 17 1 709.276 224.608 1
11 17 2 248.434 157.421 1
11 17 3 388.236 211.535 1
11 17 4 537.339 160.27 1
11 17 5 263.211 138.779 1
12 0 0 92.6998 81.7785 1
12 1 -1 9330.45 751.716 1
12 1 0 905.866 95.4403 1
12 1 1 8906.7 1283.55 1
12 2 -2 2046.85 208.343 1
12 2 -1 2515.25 139.777 1
12 2 0 13015.8 447.753 1
12 2 1 2385.25 116.406 1
12 2 2 1919.31 106.108 1
12 3 -3 7804.2 484.107 1
12 3 -2 2546.59 199.299 1
12 3 -1 5482.54 483.411 1
12 3 0 20473.9 1528.29 1
12 3 1 5864.26 327.736 1
12 3 2 2098.82 211.875 1
12 3 3 7581.38 446.696 1
12 4 -4 2082.16 406.923 1
12 4 -2 20876.6 1535.43 1
12 4 -1 3841.16 182.571 1
12 4 0 1403.21 625.577 1
12 4 1 3997.92 193.752 1
12 4 2 21389.5 1091.91 1
12 4 3 1053.16 90.9143 1
12 4 4 1981.67 108.607 1
12 5 -5 6384.44 311.02 1
12 5 -4 1080.51 97.0797 1
12 5 -3 726.193 100.662 1
12 5 -2 933.151 148.704 1
12 5 -1 2510.07 143.14 1
12 5 0 47.2998 49.5768 1
12 5 1 2568.17 171.489 1
12 5 2 1150.38 89.2984 1
12 5 3 759.623 72.6538 1
12 5 4 1178.07 91.4574 1
12 5 5 6966.67 350.779 1
12 6 -6 3054.54 331.391 1
12 6 -5 13938.9 655.871 1
12 6 -4 1523.86 161.621 1
12 6 -3 472.004 67.7116 1
12 6 -2 16661.7 598.258 1
12 6 -1 623.509 68.069 1
12 6 0 35.9105 35.1583 1
12 6 1 707.401 74.2699 1
12 6 2 17876.2 1501.21 1
12 6 3 469.844 86.1694 1
12 6 4 1517.78 104.34 1
12 6 5 14909.4 604.027 1
12 6 6 3346.66 176.886 1
12 7 -7 6889.75 526.183 1
12 7 -6 851.957 109.974 1
12 7 -5 4139.15 499.106 1
12 7 -4 4618.02 368.019 1
12 7 -3 10325.2 609.417 1
12 7 -2 3742.16 295.32 1
12 7 -1 3340.19 447.618 1
12 7 0 2309.61 182.067 1
12 7 1 3843.46 186.926 1
12 7 2 4121.15 243.124 1
12 7 3 10853.2 473.498 1
12 7 4 4713.04 273.117 1
12 7 5 4222.02 212.172 1
12 7 6 836.58 100.069 1
12 7 7 7663.87 413.802 1
12 8 -8 2177.04 190.748 1
12 8 -7 1889.87 229.501 1
12 8 -6 8048.66 409.331 1
12 8 -5 307.463 105.734 1
12 8 -4 6139.78 314.833 1
12 8 -3 6686.97 372.821 1
12 8 -2 1642.35 143.558 1
12 8 -1 5328.68 398.464 1
12 8 0 6544.13 374.638 1
12 8 1 5595.34 345.607 1
12 8 2 1604.51 92.2371 1
12 8 3 7057.94 311.018 1
12 8 4 5676.75 339.436 1
12 8 5 236.207 71.2667 1
12 8 6 8247.23 440.979 1
12 8 7 1865.54 152.117 1
12 8 8 2556.53 245.651 1
12 9 -9 5553.08 373.254 1
12 9 -8 1814.76 251.098 1
12 9 -7 4497.95 395.621 1
12 9 -6 2641.04 183.126 1
12 9 -5 2469.16 170.02 1
12 9 -4 7773.7 610.957 1
12 9 -3 5069.39 293.466 1
12 9 -2 1677.89 137.107 1
12 9 -1 5354.24 310.467 1
12 9 0 7759.19 443.888 1
12 9 1 5451.74 231.267 1
12 9 2 1435.09 97.0034 1
12 9 3 4921.72 283.967 1
12 9 4 8173.26 319.938 1
12 9 5 2569.1 206.906 1
12 9 6 2698.64 156.161 1
12 9 7 4556.73 224.275 1
12 9 8 2055.22 188.548 1
12 9 9 5042.28 260.084 1
12 10 -10 1771.77 375.005 1
12 10 -9 4638.95 459.864 1
12 10 -8 1882.51 250.731 1
12 10 -7 363.676 109.414 1
12 10 -6 4314.2 267.256 1
12 10 -5 2336.38 208.861 1
12 10 -4 1762.9 174.324 1
12 10 -3 5615.53 340.868 1
12 10 -2 5835.04 414.881 1
12 10 -1 2252.09 202.144 1
12 10 0 92.1224 69.3224 1
12 10 1 2448.38 163.359 1
12 10 2 5815.26 238.537 1
12 10 3 5953.96 347.458 1
12 10 4 1958.69 139.117 1
12 10 5 2373.4 154.572 1
12 10 6 4182.01 259.606 1
12 10 7 366.155 103.694 1
12 10 8 1797.41 140.162 1
12 10 9 3653.43 523.805 1
12 10 10 1619.1 135.249 1
12 11 -11 934.605 259.987 1
12 11 -10 1072.75 261.829 1
12 11 -9 7568.88 546.002 1
12 11 -8 1130.72 201.178 1
12 11 -7 1386.94 226.217 1
12 11 -6 399.318 114.756 1
12 11 -5 3177.29 248.374 1
12 11 -4 3564.15 276.357 1
12 11 -3 1480.65 141.351 1
12 11 -2 432.85 114.794 1
12 11 -1 163.072 87.2562 1
12 11 0 65.6677 77.4165 1
12 11 1 127.84 73.192 1
12 11 2 301.612 85.9161 1
12 11 3 1562.15 136.746 1
12 11 4 4013.32 274.289 1
12 11 5 3262.28 287.716 1
12 11 6 526.57 105.247 1
12 11 7 1563.77 181.861 1
12 11 8 1013.94 121.854 1
12 11 9 6143.85 318.871 1
12 11 10 995.699 121.019 1
12 11 11 753.149 172.114 1
12 12 -11 2673.36 294.306 1
12 12 -10 1683.73 400.233 1
12 12 -9 758.531 288.711 1
12 12 -8 231.298 162.096 1
12 12 -7 1134.7 520.097 1
12 12 -6 3065.53 261.754 1
12 12 -5 232.697 111.434 1
12 12 -4 3107.45 343.986 1
12 12 -3 544.759 125.914 1
12 12 -2 5233 299.969 1
12 12 -1 3773.04 602.814 1
12 12 0 10977.1 911.88 1
12 12 1 3514.26 493.366 1
12 12 2 4977.06 286.052 1
12 12 3 411.108 93.8785 1
12 12 4 3209.19 224.887 1
12 12 5 265.812 131.856 1
12 12 6 3190.01 391.406 1
12 12 7 1600.32 165.876 1
12 12 8 139.9 96.4695 1
12 12 9 516.519 133.628 1
12 12 10 1532.78 165.992 1
12 13 -10 1544.8 348.374 1
12 13 -9 196.504 151.455 1
12 13 -8 3335.1 408.623 1
12 13 -7 4235.92 490.749 1
12 13 -6 1813.55 266.061 1
12 13 -5 939.957 232.714 1
12 13 -4 4359.04 413.48 1
12 13 -3 4869.28 456.957 1
12 13 -2 246.615 120.177 1
12 13 -1 2444.41 222.194 1
12 13 0 500.115 149.522 1
12 13 1 2578.48 200.71 1
12 13 2 173.283 86.8034 1
12 13 3 4688.91 280.836 1
12 13 4 5019.81 414.047 1
12 13 5 1044.94 147.076 1
12 13 6 2202.38 179.635 1
12 13 7 3481.59 244.184 1
12 13 8 3801.62 320.497 1
12 13 9 174.583 111.5 1
12 13 10 966.643 230.749 1
12 14 -8 221.597 160.878 1
12 14 -7 2032.64 348.935 1
12 14 -6 159.434 104.657 1
12 14 -5 1934.72 236.153 1
12 14 -4 146.874 99.1592 1
12 14 -3 835.227 168.565 1
12 14 -2 216.14 149.535 1
12 14 -1 4083.79 427.402 1
12 14 0 87.992 89.5843 1
12 14 1 4172.79 271.076 1
12 14 2 133.909 87.2743 1
12 14 3 786.76 118.418 1
12 14 4 137.286 93.5703 1
12 14 5 2040.66 202.338 1
12 14 6 180.811 106.452 1
12 14 7 1824.26 189.592 1
12 14 8 200.642 117.727 1
12 14 9 237.932 170.335 1
12 14 10 890.597 257.307 1
12 15 -6 500.951 221.252 1
12 15 -5 205.087 121.434 1
12 15 -4 2484.87 247.764 1
12 15 -3 3381.79 291.058 1
12 15 -2 832.841 164.636 1
12 15 -1 828.469 169.504 1
12 15 0 1843.5 320.614 1
12 15 1 740.557 189.847 1
12 15 2 823.309 279.114 1
12 15 3 3170.61 278.017 1
12 15 4 2479.03 276.461 1
12 15 5 174.287 108.114 1
12 15 6 542.065 151.346 1
12 16 -6 1607.35 279.088 1
12 16 -5 3695.01 429.848 1
12 16 -4 221.724 154.935 1
12 16 -3 2940.09 408.431 1
12 16 -2 948.098 190.544 1
12 16 -1 274.13 138.277 1
12 16 0 1219.75 204.173 1
12 16 1 276.071 142.043 1
12 16 2 1054.48 189.362 1
12 16 3 2329.88 344.938 1
12 16 4 179.829 116.952 1
12 16 5 3687.91 454.262 1
12 17 1 342.5 203.324 1
12 17 2 458.175 214.5 1
13 1 -1 5805.96 357.151 1
13 1 0 125.095 83.471 1
13 1 1 5983.26 422.627 1
13 2 -2 12878.2 710.341 1
13 2 -1 3805.06 281.801 1
13 2 0 1445.25 170.366 1
13 2 1 4190.52 568.588 1
13 2 2 13338.8 726.157 1
13 3 -3 14913.8 1053.61 1
13 3 -2 2619.38 181.604 1
13 3 -1 6006.23 314.212 1
13 3 0 8725.1 436.765 1
13 3 1 5345.87 340.143 1
13 3 2 2472.47 121.338 1
13 3 3 13718.2 528.864 1
13 4 -4 4308.51 301.149 1
13 4 -3 1858.85 287.234 1
13 4 -2 213.103 100.372 1
13 4 -1 1578.79 148.157 1
13 4 0 125.655 102.212 1
13 4 1 1525.45 159.747 1
13 4 2 209.305 89.5312 1
13 4 3 1763.91 260.183 1
13 4 4 4383.41 292.346 1
13 5 -5 1224.81 145.97 1
13 5 -4 8890.95 447.584 1
13 5 -3 1249.15 145.242 1
13 5 -2 2297.44 179.055 1
13 5 -1 993.484 197.966 1
13 5 0 6223.45 337.23 1
13 5 1 1050.73 153.105 1
13 5 2 2377.14 189.758 1
13 5 3 1128.81 125.944 1
13 5 4 9504.84 552.277 1
13 5 5 1300.13 106.526 1
13 6 -6 2606.24 400.887 1
13 6 -5 880.855 298.028 1
13 6 -4 3560.45 988.131 1
13 6 -3 3131.77 206.845 1
13 6 -2 5907.89 668.288 1
13 6 -1 17771.7 784.776 1
13 6 0 3790.48 193.445 1
13 6 1 19034.4 946.99 1
13 6 2 6297.37 370.218 1
13 6 3 3029.9 153.644 1
13 6 4 4184.36 207.23 1
13 6 5 1094.57 107.058 1
13 6 6 2665 156.228 1
13 7 -7 2072.19 298.546 1
13 7 -6 899.171 129.397 1
13 7 -5 602.169 236.29 1
13 7 -4 7943.74 699.359 1
13 7 -3 1901.48 272.137 1
13 7 -2 4164.3 275.353 1
13 7 -1 228.444 89.3247 1
13 7 0 1743.42 125.435 1
13 7 1 347.085 81.0294 1
13 7 2 3576.62 169.093 1
13 7 3 2063.25 138.741 1
13 7 4 8340.29 377.783 1
13 7 5 518.822 110.788 1
13 7 6 831.247 104.623 1
13 7 7 1897.62 179.861 1
13 8 -8 1057.11 129.498 1
13 8 -7 7542.17 402.359 1
13 8 -6 2140.55 163.208 1
13 8 -5 2839.22 479.675 1
13 8 -4 964.96 132.913 1
13 8 -3 2192.54 154.537 1
13 8 -2 3147.11 258.923 1
13 8 -1 1241.2 105.347 1
13 8 0 1140.03 94.4905 1
13 8 1 1325.49 106.228 1
13 8 2 3577.14 164.267 1
13 8 3 2140.85 145.554 1
13 8 4 1172.06 128.13 1
13 8 5 3189.78 205.414 1
13 8 6 2249.75 158.065 1
13 8 7 8591.95 440.687 1
13 8 8 1089.84 119.712 1
13 9 -9 1843.34 209.16 1
13 9 -8 992.985 189.433 1
13 9 -7 822.705 116.484 1
13 9 -6 1393.26 146.17 1
13 9 -5 1450.95 139.57 1
13 9 -4 5076.67 431.403 1
13 9 -3 1929.19 190.075 1
13 9 -2 5079.43 287.511 1
13 9 -1 463.462 89.209 1
13 9 0 18242.8 1304.43 1
13 9 1 417.816 71.4472 1
13 9 2 4774.48 246.405 1
13 9 3 1914.03 136.598 1
13 9 4 5514.12 254.249 1
13 9 5 1570.51 130.418 1
13 9 6 1357.78 123.823 1
13 9 7 908.879 190.661 1
13 9 8 973.027 138.229 1
13 9 9 1715.21 245.972 1
13 10 -10 2981.54 413.824 1
13 10 -9 364.53 141.315 1
13 10 -8 2322.76 471.747 1
13 10 -7 1672.43 227.292 1
13 10 -6 2309.19 297.587 1
13 10 -5 636.653 115.563 1
13 10 -4 308.858 107.57 1
13 10 -3 13547.8 698.228 1
13 10 -2 541.028 109.294 1
13 10 -1 1309.17 135.463 1
13 10 0 750.109 105.472 1
13 10 1 1115.98 115.493 1
13 10 2 520.418 77.705 1
13 10 3 12258.9 725.021 1
13 10 4 256.832 88.7936 1
13 10 5 610.066 106.63 1
13 10 6 2662.25 176.756 1
13 10 7 1773.2 149.688 1
13 10 8 2204.68 157.225 1
13 10 9 271.109 109.362 1
13 10 10 2737.93 174.706 1
13 11 -11 2263.14 347.448 1
13 11 -10 1945.67 233.529 1
13 11 -9 442.194 155.727 1
13 11 -8 1705.24 218.375 1
13 11 -7 1603.46 157.973 1
13 11 -6 5142.26 868.92 1
13 11 -5 1368.16 142.986 1
13 11 -4 126.096 100.204 1
13 11 -3 2880.28 386.599 1
13 11 -2 204.404 93.4445 1
13 11 -1 1936.67 158.287 1
13 11 0 4279.64 244.783 1
13 11 1 1799.24 164.873 1
13 11 2 182.217 84.4504 1
13 11 3 2519.43 207.92 1
13 11 4 137.386 106.582 1
13 11 5 1379.3 139.725 1
13 11 6 5658.8 391.419 1
13 11 7 1338.44 155.207 1
13 11 8 1737.42 157.03 1
13 11 9 409.065 107.684 1
13 11 10 1728.25 146.803 1
13 12 -10 5066.8 534.424 1
13 12 -9 329.014 192.299 1
13 12 -8 2065.49 340.012 1
13 12 -7 265.412 119.24 1
13 12 -6 195.569 108.123 1
13 12 -5 2287.21 187.901 1
13 12 -4 1887.53 409.54 1
13 12 -3 366.691 118.922 1
13 12 -2 1564.58 155.518 1
13 12 -1 2596.87 235.717 1
13 12 0 2775.66 314.226 1
13 12 1 2896.03 343.885 1
13 12 2 1359.25 162.697 1
13 12 3 388.941 97.887 1
13 12 4 2178.41 218.613 1
13 12 5 2473.13 193.047 1
13 12 6 179.831 99.8718 1
13 12 7 337.672 119.63 1
13 12 8 1791.84 208.628 1
13 12 9 184.61 102.815 1
13 12 10 4560.24 441.239 1
13 13 -9 1258.82 294.945 1
13 13 -8 154.576 107.633 1
13 13 -7 4903.88 874.986 1
13 13 -6 1556.29 196.766 1
13 13 -5 1199.24 177.427 1
13 13 -4 464.421 153.572 1
13 13 -3 250.03 121.595 1
13 13 -2 1035.88 182.209 1
13 13 -1 2959.83 252.725 1
13 13 0 515.673 184.275 1
13 13 1 2866.28 211.959 1
13 13 2 964.227 232.988 1
13 13 3 225.258 96.6251 1
13 13 4 449.358 110.469 1
13 13 5 1354.11 162.479 1
13 13 6 1604.56 197.773 1
13 13 7 4338.86 308.095 1
13 13 8 166.699 101.098 1
13 13 9 1054.51 261.632 1
13 13 10 399.162 217.092 1
13 14 -7 182.575 140.936 1
13 14 -6 359.023 149.034 1
13 14 -5 3745.52 461.171 1
13 14 -4 880.895 168.377 1
13 14 -3 207.691 121.721 1
13 14 -2 925.417 168.302 1
13 14 -1 544.187 156.487 1
13 14 0 2039.51 229.1 1
13 14 1 354.303 124.395 1
13 14 2 890.478 148.714 1
13 14 3 150.704 86.4973 1
13 14 4 645.684 384.169 1
13 14 5 4263.98 302.744 1
13 14 6 372.045 131.783 1
13 14 7 158.765 114.001 1
13 15 -6 2262.63 307.465 1
13 15 -5 329.464 142.602 1
13 15 -4 646.736 162.916 1
13 15 -3 2743.32 341.009 1
13 15 -2 441.89 150.807 1
13 15 -1 437.97 164.737 1
13 15 0 157.429 125.093 1
13 15 1 426.725 145.166 1
13 15 2 383.676 134.647 1
13 15 3 2740.85 224.857 1
13 15 4 783.022 188.079 1
13 15 5 452.488 235.462 1
13 16 1 282.829 194.209 1
14 0 0 605.513 150.265 1
14 1 -1 6611.4 360.788 1
14 1 0 2473.68 290.749 1
14 1 1 6593.93 352.208 1
14 2 -2 6059.45 355.239 1
14 2 -1 422.598 115.167 1
14 2 0 42.6523 45.7752 1
14 2 1 399.615 85.4368 1
14 2 2 5740.03 246.866 1
14 3 -3 14409.9 786.086 1
14 3 -2 4013.54 1339.52 1
14 3 -1 221.032 82.9738 1
14 3 0 8127.16 642.863 1
14 3 1 247.812 81.0955 1
14 3 2 5886.3 256.693 1
14 3 3 13995.2 1168.54 1
14 4 -4 6905.2 485.352 1
14 4 -3 153.092 88.5622 1
14 4 -2 6615.02 943.914 1
14 4 -1 1789.21 167.869 1
14 4 0 1509.28 206.637 1
14 4 1 1964.02 399.703 1
14 4 2 6807.56 608.726 1
14 4 3 172.357 74.0975 1
14 4 4 6687.84 378.515 1
14 5 -5 3913.54 366.701 1
14 5 -4 1857.4 244.639 1
14 5 -3 1033.13 145.394 1
14 5 -2 5618.63 668.384 1
14 5 -1 11616.4 974.444 1
14 5 1 12154.5 1425.14 1
14 5 2 5712.09 504.184 1
14 5 3 746.199 103.664 1
14 5 4 2004.58 244.696 1
14 5 5 3487.09 419.665 1
14 6 -6 4118.52 387.289 1
14 6 -5 1267.58 155.821 1
14 6 -4 1799.1 225.384 1
14 6 -3 5315.39 1257.42 1
14 6 -2 5270.91 304.038 1
14 6 -1 7297.46 561.946 1
14 6 1 6336.21 705.818 1
14 6 2 5593.1 435.849 1
14 6 3 6157.05 399.5 1
14 6 4 2237.14 158.547 1
14 6 5 1298.39 114.709 1
14 6 6 4471.97 311.622 1
14 7 -7 2867.75 361.75 1
14 7 -6 1724.17 280.756 1
14 7 -5 2702.13 300.35 1
14 7 -4 395.311 166.366 1
14 7 -3 12445 1012.17 1
14 7 -2 2711.05 300.553 1
14 7 -1 109.81 77.9875 1
14 7 0 1107.9 204.14 1
14 7 1 65.118 47.2682 1
14 7 2 2333.89 136.097 1
14 7 3 10908.9 789.888 1
14 7 4 279.181 92.8215 1
14 7 5 2026.71 151.532 1
14 7 6 1577.01 128.366 1
14 7 7 2731.07 237.421 1
14 8 -8 2969.23 387.979 1
14 8 -7 947.039 248.753 1
14 8 -6 4053.2 454.906 1
14 8 -5 1427.44 273.466 1
14 8 -4 3244.13 685.729 1
14 8 -3 324.221 131.047 1
14 8 -2 1584.86 254.675 1
14 8 -1 1047.55 227.564 1
14 8 0 3938.92 515.582 1
14 8 1 975.919 108.988 1
14 8 2 1205.78 136.886 1
14 8 3 282.683 86.1791 1
14 8 4 3326.15 185.639 1
14 8 5 1118.64 144.616 1
14 8 6 3930.5 228.036 1
14 8 7 1225.18 138.909 1
14 8 8 2156.53 174.845 1
14 9 -9 343.225 165.041 1
14 9 -8 448.284 116.401 1
14 9 -7 2465.06 184.318 1
14 9 -6 849.161 123.707 1
14 9 -5 704.06 119.839 1
14 9 -4 277.195 130.147 1
14 9 -3 2825.71 595.608 1
14 9 -2 1067.13 205.941 1
14 9 -1 4480.97 796.703 1
14 9 0 1558.17 163.749 1
14 9 1 4566.51 411.155 1
14 9 2 961.727 139.5 1
14 9 3 2384.5 177.458 1
14 9 4 270.247 120.07 1
14 9 5 798.406 116.022 1
14 9 6 1080.67 124.753 1
14 9 7 2408.25 205.621 1
14 9 8 485.793 105.608 1
14 9 9 323.45 108.747 1
14 10 -10 727.507 229.793 1
14 10 -9 1117.98 233.128 1
14 10 -8 234.686 128.814 1
14 10 -7 1055.28 137.488 1
14 10 -6 4063.17 636.346 1
14 10 -5 1359.66 171.265 1
14 10 -4 852.612 130.36 1
14 10 -3 3142.31 221.642 1
14 10 -2 483.023 110.355 1
14 10 -1 130.016 91.4352 1
14 10 0 2084.1 310.779 1
14 10 1 104.419 66.6342 1
14 10 2 403.158 91.2754 1
14 10 3 3157.45 205.868 1
14 10 4 956.208 122.788 1
14 10 5 1326.44 137.861 1
14 10 6 3951.2 274.975 1
14 10 7 1279.95 168.616 1
14 10 8 279.752 106.334 1
14 10 9 1333.32 167.047 1
14 10 10 698.438 126.943 1
14 11 -10 176.462 133.512 1
14 11 -9 423.825 199.844 1
14 11 -8 938.415 256.513 1
14 11 -7 713.138 130.16 1
14 11 -6 743.886 140.915 1
14 11 -5 1499.1 179.324 1
14 11 -4 95.7925 68.4677 1
14 11 -3 605.911 121.257 1
14 11 -2 4056.43 349.927 1
14 11 -1 222.017 111.914 1
14 11 0 5831.71 1153.8 1
14 11 1 161.967 76.739 1
14 11 2 4035.16 236.6 1
14 11 3 606.463 126.489 1
14 11 4 122.572 81.1354 1
14 11 5 1849.9 214.818 1
14 11 6 940.943 121.277 1
14 11 7 695.576 115.139 1
14 11 8 745.26 122.779 1
14 11 9 430.969 109.431 1
14 11 10 114.036 92.2843 1
14 11 11 195.46 145.885 1
14 12 -9 195.85 140.446 1
14 12 -8 2637.98 353.966 1
14 12 -7 1710.23 226.06 1
14 12 -6 481.852 126.334 1
14 12 -5 398.097 143.911 1
14 12 -4 1448.2 204.645 1
14 12 -3 1295.92 152.878 1
14 12 -2 3680.89 368.02 1
14 12 -1 743.117 149.06 1
14 12 0 1759.84 214.347 1
14 12 1 818.081 130.712 1
14 12 2 3566.47 531.629 1
14 12 3 1114.61 123.257 1
14 12 4 1449.01 175.767 1
14 12 5 425.972 127.72 1
14 12 6 613.496 157.25 1
14 12 7 2061.58 232.702 1
14 12 8 2934.81 405.142 1
14 12 9 267.35 178.07 1
14 12 10 936.332 255.824 1
14 13 -8 614.889 246.514 1
14 13 -7 1533.65 292.46 1
14 13 -6 730.938 161.494 1
14 13 -5 337.759 129.751 1
14 13 -4 6792.62 397.772 1
14 13 -3 771.489 155.022 1
14 13 -2 425.351 153.923 1
14 13 -1 1128.23 244.29 1
14 13 0 154.437 131.797 1
14 13 1 1198.16 205.1 1
14 13 2 342.798 128.674 1
14 13 3 941.615 127.2 1
14 13 4 6830.46 869.113 1
14 13 5 267.64 123.106 1
14 13 6 867.11 164.812 1
14 13 7 1600.1 197.594 1
14 14 -6 2554.02 246.303 1
14 14 -5 145.372 97.075 1
14 14 -4 369.92 152.165 1
14 14 -3 2280.74 248.081 1
14 14 -2 664.687 265.239 1
14 14 -1 950.793 176.223 1
14 14 0 757.373 261.686 1
14 14 1 1019.88 149.594 1
14 14 2 946.16 155.669 1
14 14 3 2579.09 311.702 1
14 14 4 243.436 139.17 1
14 14 5 240.098 176.766 1
14 15 -2 1372.21 262.042 1
14 15 -1 1602.5 262.664 1
14 15 0 3682.81 407.891 1
14 15 1 1161.24 247.494 1
14 15 2 1295.35 231.12 1
14 15 3 183.253 136.441 1
14 15 4 487.451 228.677 1
15 1 -1 6664.34 328.168 1
15 1 0 5978.21 348.469 1
15 1 1 6709.41 329.118 1
15 2 -2 1326.68 126.475 1
15 2 -1 12085 642.096 1
15 2 0 62.6317 68.5684 1
15 2 1 11831.7 555.932 1
15 2 2 1310.58 125.206 1
15 3 -3 6004.28 425.675 1
15 3 -2 8853.05 404.404 1
15 3 -1 5973.24 347.355 1
15 3 0 5033.56 414.834 1
15 3 1 5935.46 730.04 1
15 3 2 10946.2 622.565 1
15 3 3 6824.76 302.861 1
15 4 -4 1978.6 193.443 1
15 4 -3 6671.83 395.123 1
15 4 -2 4039.9 390.608 1
15 4 -1 1525.42 218.016 1
15 4 1 1224.19 195.855 1
15 4 2 4003.49 266.382 1
15 4 3 6405.34 638.015 1
15 4 4 1957.94 195.621 1
15 5 -5 3528.23 902.595 1
15 5 -4 1151.2 168.88 1
15 5 -3 213.257 124.746 1
15 5 -2 3702.49 296.436 1
15 5 -1 1418.32 216.11 1
15 5 0 2579.44 276.048 1
15 5 1 1147.8 188.114 1
15 5 2 3820.06 292.7 1
15 5 3 218.299 83.8013 1
15 5 4 1033.47 228.26 1
15 5 5 3423.69 727.444 1
15 6 -6 2471.46 1211.91 1
15 6 -5 1721.8 345.554 1
15 6 -4 3176.5 444.172 1
15 6 -3 9936.95 794.147 1
15 6 -2 157.59 109.135 1
15 6 -1 1057.95 208.197 1
15 6 0 754.199 197.269 1
15 6 1 1006.42 193.478 1
15 6 2 111.995 75.5222 1
15 6 3 9699.28 1098.5 1
15 6 4 3299.87 319.869 1
15 6 5 1807.39 213.101 1
15 6 6 3094.26 316.531 1
15 7 -7 397.951 203.24 1
15 7 -6 2078.01 316.372 1
15 7 -4 643.671 221.479 1
15 7 -3 1138.22 209.675 1
15 7 -2 188.588 125.43 1
15 7 -1 130.59 96.2244 1
15 7 0 12625.3 1050.7 1
15 7 1 109.236 85.7277 1
15 7 2 137.983 77.0112 1
15 7 3 972.835 145.097 1
15 7 4 583.211 115.381 1
15 7 5 3853.38 224.03 1
15 7 6 2057.84 163.13 1
15 7 7 157.465 85.0261 1
15 8 -8 5080.87 573.138 1
15 8 -7 4012.3 454.533 1
15 8 -6 2694.32 371.689 1
15 8 -4 164.959 118.07 1
15 8 -3 1029.55 253.485 1
15 8 -2 1433.46 246.153 1
15 8 -1 499.214 183.274 1
15 8 0 7123.05 607.899 1
15 8 1 643.071 124.598 1
15 8 2 1358.19 123.835 1
15 8 3 911.891 140.73 1
15 8 4 150.283 81.2564 1
15 8 5 3643.17 206.644 1
15 8 6 2317.25 162.608 1
15 8 7 3203 190.85 1
15 8 8 5199.02 294.489 1
15 9 -9 1391.73 310.129 1
15 9 -8 851.434 283.75 1
15 9 -7 482.901 212.75 1
15 9 -6 1585.15 310.788 1
15 9 -4 5569.14 555.328 1
15 9 -3 1616.36 203.511 1
15 9 -2 1027.68 165.64 1
15 9 0 161.131 120.488 1
15 9 1 4093.95 210.474 1
15 9 2 985.935 107.065 1
15 9 3 1213.58 275.747 1
15 9 4 4229.81 274.223 1
15 9 5 1285.44 140.075 1
15 9 6 1190.32 143.492 1
15 9 7 441.996 134.724 1
15 9 8 883.561 127.374 1
15 9 9 910.667 136.102 1
15 10 -8 430.766 234.904 1
15 10 -7 517.791 255.379 1
15 10 -6 2005.05 249.635 1
15 10 -5 214.76 130.112 1
15 10 -4 2595.72 316.551 1
15 10 -3 270.097 140.33 1
15 10 -2 1865.54 208.716 1
15 10 -1 4557.02 493.047 1
15 10 0 396.159 125.519 1
15 10 1 3983.62 288.912 1
15 10 2 1630.97 131.126 1
15 10 3 225.626 100.597 1
15 10 4 2504.36 179.709 1
15 10 5 331.926 118.817 1
15 10 6 1697.31 173.857 1
15 10 7 547.886 167.573 1
15 10 8 245.266 111.29 1
15 10 9 4218.12 378.512 1
15 10 10 570.132 158.107 1
15 11 -9 2367.48 340.002 1
15 11 -7 183.783 113.948 1
15 11 -6 859.157 171.834 1
15 11 -5 361.416 157.105 1
15 11 -4 1388.99 300.251 1
15 11 -3 1944.3 395.41 1
15 11 -2 680.979 165.323 1
15 11 -1 522.22 166.237 1
15 11 0 785.014 182.605 1
15 11 1 353.827 120.694 1
15 11 2 626.037 102.359 1
15 11 3 1970.42 169.332 1
15 11 4 1559.68 181.625 1
15 11 5 404.763 113.943 1
15 11 6 1014.98 142.9 1
15 11 7 236.729 121.956 1
15 11 8 3868.32 418.714 1
15 11 9 2397 228.043 1
15 11 10 1070.62 170.581 1
15 12 -8 290.683 186.812 1
15 12 -7 1609.33 194.612 1
15 12 -6 1449.93 165.251 1
15 12 -5 2437.66 197.141 1
15 12 -4 1913.51 334.612 1
15 12 -3 144.619 102.242 1
15 12 -2 1335.46 202.93 1
15 12 -1 264.216 141.364 1
15 12 0 172.668 136.723 1
15 12 1 345.117 203.061 1
15 12 2 1450.43 301.57 1
15 12 3 134.663 86.506 1
15 12 4 1591.76 160.331 1
15 12 5 2615.38 289.904 1
15 12 6 1664.5 226.882 1
15 12 7 2142.69 247.615 1
15 13 -6 206.133 118.983 1
15 13 -5 150.864 120.357 1
15 13 -4 1544.31 179.938 1
15 13 -3 129.322 85.6775 1
15 13 -2 2221.94 462.748 1
15 13 -1 2046.39 362.887 1
15 13 1 1874.36 332.363 1
15 13 2 3069.95 333.977 1
15 13 3 124.302 89.4452 1
15 13 4 1099.71 204.903 1
15 13 5 218.787 164.895 1
15 14 -4 254.622 168.424 1
15 14 -3 2730.9 339.383 1
15 14 -2 1383.9 232.604 1
15 14 -1 1148.29 225.451 1
15 14 0 633.967 209.491 1
15 14 4 282.371 186.681 1
16 1 -1 671.185 125.535 1
16 1 1 642.678 123.925 1
16 2 -2 3184.89 301.095 1
16 2 -1 2887.34 622.003 1
16 2 0 3127.53 228.508 1
16 2 1 2914.98 220.659 1
16 2 2 3151.62 381.657 1
16 3 -3 1747.31 182.542 1
16 3 -2 1585.85 170.483 1
16 3 -1 3557.04 333.117 1
16 3 0 632.221 177.731 1
16 3 1 3810.02 346.703 1
16 3 2 1449.39 243.763 1
16 3 3 1511.44 320.703 1
16 4 -4 6417.94 1173.86 1
16 4 -3 486.151 141.532 1
16 4 -2 291.946 127.394 1
16 4 -1 3659.28 346.808 1
16 4 0 10467 826.234 1
16 4 1 3455.25 334.289 1
16 4 2 210.817 108.856 1
16 4 3 552.647 247.472 1
16 4 4 6610.73 446.91 1
16 5 -5 482.113 203.286 1
16 5 -4 2475.29 626.161 1
16 5 -3 1555.8 202.174 1
16 5 -2 1454.34 201.85 1
16 5 -1 1943.6 254.046 1
16 5 0 2097.76 258.705 1
16 5 1 2228.57 253.481 1
16 5 2 1392.5 179.791 1
16 5 3 1691.7 218.21 1
16 5 4 2745.91 377.66 1
16 5 5 498.541 118.766 1
16 6 -6 1964.79 306.62 1
16 6 -4 685.737 215.395 1
16 6 -3 2941.23 354.601 1
16 6 -2 1660.71 247.499 1
16 6 0 2914.59 320.283 1
16 6 1 1364.82 228.592 1
16 6 2 1797.14 178.812 1
16 6 3 2796.16 526.076 1
16 6 4 642.954 180.551 1
16 6 5 369.882 156.764 1
16 6 6 1820.87 175.896 1
16 7 -7 410.734 215.357 1
16 7 -6 2717.18 369.487 1
16 7 -5 3839.46 450.048 1
16 7 -4 494.605 225.014 1
16 7 -3 1728.68 269.856 1
16 7 -2 167.029 118.978 1
16 7 0 334.512 183.622 1
16 7 1 1761.78 251.316 1
16 7 2 103.858 76.7543 1
16 7 3 1651.91 241.644 1
16 7 4 307.561 120.991 1
16 7 5 3208.18 247.115 1
16 7 6 2321.23 206.847 1
16 7 7 284.678 130.694 1
16 8 -8 346.864 215.601 1
16 8 -7 476.371 229.924 1
16 8 -6 3570.49 464.879 1
16 8 -5 670.213 251.801 1
16 8 -4 611.967 232.68 1
16 8 -3 1283.57 256.138 1
16 8 -2 6979.72 632.12 1
16 8 -1 1717.01 269.483 1
16 8 0 2392.59 297.628 1
16 8 1 1728.32 254.801 1
16 8 2 5890.16 509.153 1
16 8 3 1098.57 350.242 1
16 8 4 562.91 141.179 1
16 8 5 526.035 123.496 1
16 8 6 3257.04 294.4 1
16 8 7 641.91 129.986 1
16 8 8 180.257 99.47 1
16 9 -8 308.245 200.081 1
16 9 -7 4631.67 596.099 1
16 9 -6 1258.37 317.284 1
16 9 -5 1409.15 308.587 1
16 9 -4 422.528 220.313 1
16 9 -3 6456.97 649.188 1
16 9 -2 2529.68 328.274 1
16 9 -1 1154.11 252.654 1
16 9 0 729.705 218.602 1
16 9 1 1121.24 275.962 1
16 9 2 2745.05 410.734 1
16 9 3 5431.39 535.297 1
16 9 4 400.003 124.77 1
16 9 5 1249.89 164.216 1
16 9 6 1184.94 186.129 1
16 9 7 3839.06 226.851 1
16 9 8 188.272 96.6183 1
16 9 9 624.837 167.947 1
16 10 -6 1158.39 310.312 1
16 10 -5 5719.98 650.993 1
16 10 -4 185.574 139.811 1
16 10 -3 237.375 152.566 1
16 10 -2 2833.81 270.849 1
16 10 -1 348.808 155.74 1
16 10 0 435.852 204.355 1
16 10 1 420.467 144.138 1
16 10 2 2259.02 194.445 1
16 10 3 280.084 124.634 1
16 10 4 110.592 75.6498 1
16 10 5 5148.96 277.761 1
16 10 6 1055.24 131.856 1
16 10 7 428.898 181.293 1
16 10 8 1028.51 185.476 1
16 10 9 1372.11 264.94 1
16 11 -5 2043.21 238.302 1
16 11 -4 726.903 175.46 1
16 11 -3 1744.44 221.008 1
16 11 -2 1105.97 299.904 1
16 11 -1 2171.09 238.467 1
16 11 0 195.505 139.932 1
16 11 1 1981.16 268.644 1
16 11 2 856.723 155.086 1
16 11 3 1497 296.347 1
16 11 4 694.512 137.942 1
16 11 5 2020.23 162.725 1
16 11 6 1321.93 338.43 1
16 11 7 2792.37 484.876 1
16 11 8 2148.73 364.209 1
16 12 -5 1596.47 300.993 1
16 12 -3 798.794 201.98 1
16 12 -2 1305.17 313.801 1
16 12 -1 4437.76 704.003 1
16 12 0 959.097 253.495 1
16 12 1 4401.95 443.223 1
16 12 2 1195.01 360.68 1
16 12 3 606.738 163.705 1
16 12 4 1468.62 216.046 1
16 12 5 1408.86 208.608 1
16 13 4 984.302 273.975 1
17 1 -1 214.882 101.96 1
17 1 0 49.2934 54.1561 1
17 1 1 252.785 103.347 1
17 2 -2 1675.62 176.601 1
17 2 -1 604.468 183.138 1
17 2 0 1210.59 155.044 1
17 2 1 716.024 136.229 1
17 2 2 1271.72 347.806 1
17 3 -3 630.647 159.629 1
17 3 -2 4083.87 444.306 1
17 3 0 362.55 184.072 1
17 3 1 1559.53 224.264 1
17 3 2 3862.58 346.231 1
17 3 3 650.89 279.259 1
17 4 -4 422.204 153.48 1
17 4 -3 679.464 209.937 1
17 4 -2 1289.64 226.477 1
17 4 0 795.974 192.945 1
17 4 1 1682.69 256.799 1
17 4 2 1185.74 207.248 1
17 4 3 570.903 248.282 1
17 4 4 489.739 172.03 1
17 5 -5 1469.41 203.493 1
17 5 -4 7337.8 1354.45 1
17 5 -3 1384.37 195.116 1
17 5 -2 2601.28 316.385 1
17 5 -1 2611.02 294.057 1
17 5 0 257.749 163.101 1
17 5 1 2695.32 301.33 1
17 5 2 2062.94 246.565 1
17 5 3 1424.62 225.171 1
17 5 4 8588.21 824.576 1
17 5 5 1620.42 225.792 1
17 6 -6 1427.47 290.898 1
17 6 -5 123.467 98.1112 1
17 6 -4 3184.42 386.974 1
17 6 -3 2998.76 350.474 1
17 6 -2 442.052 198.301 1
17 6 -1 6945.21 638.606 1
17 6 0 2565.29 308.349 1
17 6 1 6721.94 590.397 1
17 6 2 451.919 163.765 1
17 6 3 3111.76 316.868 1
17 6 4 3151.48 305.782 1
17 6 5 166.972 121.624 1
17 6 6 1221.09 230.597 1
17 7 -7 1004.15 287.289 1
17 7 -6 390.636 197.625 1
17 7 -5 2038.19 336.555 1
17 7 -4 4614.85 499.071 1
17 7 -3 1786.76 287.869 1
17 7 -2 502.367 206.382 1
17 7 -1 243.447 145.984 1
17 7 0 937.721 227.993 1
17 7 1 254.68 141.464 1
17 7 3 2110.98 375.515 1
17 7 4 3575.13 995.537 1
17 7 5 1785.15 333.311 1
17 7 6 506.147 142.325 1
17 7 7 726.116 148.008 1
17 8 -7 332.981 208.845 1
17 8 -5 2727.52 398.74 1
17 8 -4 283.164 182.42 1
17 8 -3 2711.92 343.771 1
17 8 -1 547.203 194.801 1
17 8 0 110.489 112.91 1
17 8 1 497.279 195.17 1
17 8 3 3267.15 477.685 1
17 8 4 181.898 126.732 1
17 8 5 2669.43 493.607 1
17 8 6 388.814 138.433 1
17 8 7 265.582 133.812 1
17 8 8 2336.42 360.372 1
17 9 -5 259.049 175.551 1
17 9 -4 2281.61 382.299 1
17 9 -3 4497.9 505.104 1
17 9 -1 128.776 101.47 1
17 9 0 4417.02 446.746 1
17 9 1 120.763 94.7957 1
17 9 4 2311.85 385.227 1
17 9 5 217.883 131.424 1
17 9 6 2090.19 208.734 1
17 9 7 1347.35 196.613 1
17 9 8 1975.79 227.915 1
17 10 -4 196.779 150.854 1
17 10 -3 1137.35 299.781 1
17 10 -2 1183.61 270.232 1
17 10 -1 952.087 223.464 1
17 10 0 238.155 182.276 1
17 10 1 672.667 195.747 1
17 10 2 850.467 245.063 1
17 10 3 982.24 383.033 1
17 10 4 115.372 80.8534 1
17 10 5 3948.14 249.979 1
17 10 6 1264.35 207.387 1
17 10 7 149.586 124.396 1
17 11 -3 287.186 184.845 1
17 11 -2 954.85 263.503 1
17 11 -1 3582.96 425.527 1
17 11 0 1408.69 267.186 1
17 11 1 3474.71 388.162 1
17 11 3 207.953 149.816 1
17 11 4 771.627 178.361 1
17 11 5 519.201 224.335 1
17 12 -1 524.428 245.26 1
17 12 0 1688.54 308.064 1
17 12 3 407.642 223.036 1
18 0 0 3197.23 354.258 1
18 1 -1 1333.33 222.91 1
18 1 0 2946.76 237.479 1
18 1 1 1484.42 231.227 1
18 2 -2 2525.43 480.38 1
18 2 -1 776.865 133.774 1
18 2 0 2013.33 189.024 1
18 2 1 764.638 130.723 1
18 2 2 2317.65 492.675 1
18 3 -3 2674.14 410.448 1
18 3 -2 547.076 200.486 1
18 3 -1 6293.59 582.067 1
18 3 0 2797.54 318.909 1
18 3 1 6468.35 556.948 1
18 3 2 469.649 163.531 1
18 3 3 2849.11 438.542 1
18 4 -4 448.891 153.276 1
18 4 -3 3210.25 288.255 1
18 4 -2 963.643 219.697 1
18 4 -1 861.838 210.377 1
18 4 0 703.828 205.126 1
18 4 1 850.401 188.422 1
18 4 3 3910.94 554.677 1
18 4 4 437.819 173.932 1
18 5 -5 2304.54 382.203 1
18 5 -4 487.385 154.443 1
18 5 -3 3243.37 751.612 1
18 5 -1 230.207 139.11 1
18 5 0 986.812 215.928 1
18 5 1 188.943 121.932 1
18 5 4 574.867 183.562 1
18 5 5 2649.8 280.048 1
18 6 -5 1529.16 321.572 1
18 6 -4 504.219 240.483 1
18 6 -3 1763.36 304.366 1
18 6 -1 296.8 165.118 1
18 6 0 92.6721 98.0698 1
18 6 1 310.067 157.589 1
18 6 4 489.439 195.792 1
18 6 5 1440.64 359.84 1
18 6 6 1224.9 243.818 1
18 7 -5 2489.66 373.07 1
18 7 -4 458.12 224.546 1
18 7 -3 449.208 222.237 1
18 7 -1 2141.03 303.731 1
18 7 0 104.124 107.133 1
18 7 1 2218.25 308.831 1
18 7 4 297.81 162.662 1
18 7 5 2230.8 287.591 1
18 7 6 2754.46 332.519 1
18 8 -4 1204.19 290.604 1
18 8 -3 1804.26 320.828 1
18 8 -2 2868.93 359.349 1
18 8 -1 159.402 121.887 1
18 8 0 341.82 196.257 1
18 8 1 181.681 128.714 1
18 8 4 1180.87 361.244 1
18 8 5 1764.74 401.532 1
18 9 -3 3143.04 423.08 1
18 9 -2 418.302 204.902 1
18 9 -1 356.524 190.853 1
18 9 0 9892.53 957.632 1
18 10 -2 1105.51 290.23 1
18 10 -1 198.591 145.24 1
18 10 0 1543.47 277.665 1
18 11 0 440.251 233.784 1
19 1 -1 1471.58 171.554 1
19 1 0 61.3061 64.2153 1
19 1 1 1415.68 162.317 1
19 2 -2 2884.08 296.675 1
19 2 -1 2207.28 195.649 1
19 2 0 60.2524 62.8313 1
19 2 1 1884.41 743.83 1
19 2 2 3151.81 360.087 1
19 3 -3 571.832 207.686 1
19 3 -1 1285.23 255.025 1
19 3 0 2316.68 293.032 1
19 3 1 1336.18 218.95 1
19 4 -4 1066.19 322.455 1
19 4 -3 1273.42 282.813 1
19 4 -1 309.924 169.73 1
19 4 0 67.9844 79.0786 1
19 4 1 231.945 141.827 1
19 4 4 953.104 372.949 1
19 5 -5 207.571 154.416 1
19 5 -4 217.748 150.626 1
19 5 -3 405.155 207.58 1
19 5 -2 512.879 218.745 1
19 5 -1 2422.53 317.383 1
19 5 0 4686.06 464.803 1
19 5 1 1697.45 242.041 1
19 5 4 441.602 265.508 1
19 5 5 192.02 148.88 1
19 6 -4 2752.04 413.423 1
19 6 -3 2671.8 364.213 1
19 6 -2 363.534 198.802 1
19 6 -1 187.431 133.098 1
19 6 0 3484 400.888 1
19 6 5 3401.85 481.004 1
19 7 -3 2001.51 333.73 1
19 7 -2 336.822 188.03 1
19 7 -1 679.335 230.035 1
19 7 0 1274.68 248.517 1
19 8 -2 1040.79 292.265 1
19 8 -1 1195.6 267.447 1
19 8 0 4544.95 461.497 1
19 9 0 2173.36 305.4 1
20 0 0 2299.37 299.814 1
20 1 -1 124.489 84.0713 1
20 1 0 1268.14 165.972 1
20 1 1 105.355 74.9115 1
20 2 -2 1840.61 292.36 1
20 2 -1 500.335 203.195 1
20 2 0 101.684 107.263 1
20 2 1 363.964 173.466 1
20 3 -3 478.952 210.193 1
20 3 -2 765.271 234.658 1
20 3 -1 181.526 133.396 1
20 3 0 61.6638 74.2291 1
20 4 -4 483.831 263.418 1
20 4 -2 3271.64 400.004 1
20 4 -1 2943.47 349.158 1
20 4 0 584.316 210.588 1
20 5 -2 1825.95 292.463 1
20 5 -1 815.782 237.277 1
20 5 0 165.513 144.048 1
20 6 -1 1330.88 266.699 1
20 6 0 5518.99 563.971 1
20 7 0 4253.29 451.72 1
21 1 0 56.8547 59.1406 1
21 2 0 101.31 109.159 1
21 3 0 3147.29 373.4 1
loop_
_geom_angle_atom_site_label_1
_geom_angle_atom_site_label_2
_geom_angle_atom_site_label_3
_geom_angle
_geom_angle_site_symmetry_1
_geom_angle_site_symmetry_3
_geom_angle_publ_flag
S3 K1 S3 94.083(15) 9_466 10_564 ?
S3 K1 S3 94.083(15) 2_455 10_564 ?
S3 K1 S3 94.083(15) 2_455 9_466 ?
O6 K1 S3 105.62(3) 9_466 2_455 ?
O6 K1 S3 114.70(3) 2_455 9_466 ?
O6 K1 S3 25.10(2) 9_466 9_466 ?
O6 K1 S3 105.62(3) 10_564 9_466 ?
O6 K1 S3 105.62(3) 2_455 10_564 ?
O6 K1 S3 114.70(3) 9_466 10_564 ?
O6 K1 S3 25.10(2) 2_455 2_455 ?
O6 K1 S3 114.70(3) 10_564 2_455 ?
O6 K1 S3 25.10(2) 10_564 10_564 ?
O6 K1 O6 118.177(11) 9_466 2_455 ?
O6 K1 O6 118.177(11) 2_455 10_564 ?
O6 K1 O6 118.177(11) 9_466 10_564 ?
O6 K1 O9 127.52(4) 9_466 10_564 ?
O6 K1 O9 80.48(4) 10_564 9_466 ?
O6 K1 O9 45.22(3) 10_564 10_564 ?
O6 K1 O9 80.48(4) 2_455 10_564 ?
O6 K1 O9 45.22(3) 9_466 9_466 ?
O6 K1 O9 127.52(4) 2_455 9_466 ?
O6 K1 O9 45.22(3) 2_455 2_455 ?
O6 K1 O9 127.52(4) 10_564 2_455 ?
O6 K1 O9 80.48(4) 9_466 2_455 ?
O7 K1 S3 81.30(2) 5_456 2_455 ?
O7 K1 S3 91.76(3) . 9_466 ?
O7 K1 S3 172.81(2) 4_565 10_564 ?
O7 K1 S3 91.76(3) 4_565 2_455 ?
O7 K1 S3 91.76(3) 5_456 10_564 ?
O7 K1 S3 172.81(2) . 2_455 ?
O7 K1 S3 81.30(2) . 10_564 ?
O7 K1 S3 81.30(2) 4_565 9_466 ?
O7 K1 S3 172.81(2) 5_456 9_466 ?
O7 K1 O6 59.48(3) 5_456 2_455 ?
O7 K1 O6 151.59(4) 4_565 10_564 ?
O7 K1 O6 81.39(4) 5_456 10_564 ?
O7 K1 O6 81.39(4) 4_565 2_455 ?
O7 K1 O6 81.39(4) . 9_466 ?
O7 K1 O6 151.59(4) . 2_455 ?
O7 K1 O6 59.48(3) 4_565 9_466 ?
O7 K1 O6 59.48(3) . 10_564 ?
O7 K1 O6 151.59(4) 5_456 9_466 ?
O7 K1 O7 93.28(4) 5_456 . ?
O7 K1 O7 93.28(4) 5_456 4_565 ?
O7 K1 O7 93.28(4) 4_565 . ?
O7 K1 O9 104.58(3) 5_456 2_455 ?
O7 K1 O9 161.44(3) 5_456 9_466 ?
O7 K1 O9 80.86(4) . 9_466 ?
O7 K1 O9 80.86(4) 4_565 2_455 ?
O7 K1 O9 161.44(3) 4_565 10_564 ?
O7 K1 O9 161.44(3) . 2_455 ?
O7 K1 O9 104.58(3) 4_565 9_466 ?
O7 K1 O9 80.86(4) 5_456 10_564 ?
O7 K1 O9 104.58(3) . 10_564 ?
O9 K1 S3 70.02(3) 2_455 9_466 ?
O9 K1 S3 70.02(3) 9_466 10_564 ?
O9 K1 S3 25.25(2) 2_455 2_455 ?
O9 K1 S3 70.02(3) 10_564 2_455 ?
O9 K1 S3 102.82(4) 2_455 10_564 ?
O9 K1 S3 102.82(4) 9_466 2_455 ?
O9 K1 S3 102.82(4) 10_564 9_466 ?
O9 K1 S3 25.25(2) 10_564 10_564 ?
O9 K1 S3 25.25(2) 9_466 9_466 ?
O9 K1 O9 83.59(5) 10_564 9_466 ?
O9 K1 O9 83.59(5) 9_466 2_455 ?
O9 K1 O9 83.59(5) 10_564 2_455 ?
K1 S3 K1 130.262(13) 3_556 . ?
K1 S3 K2 68.625(15) 3_556 . ?
O6 S3 K1 60.00(6) . 3_556 ?
O6 S3 K1 72.24(6) . . ?
O6 S3 O7 109.23(8) . . ?
O6 S3 O9 107.18(8) . . ?
O6 S3 K2 62.92(6) . 3 ?
O6 S3 K2 126.93(6) . . ?
O7 S3 K1 45.45(5) . . ?
O7 S3 K1 164.39(5) . 3_556 ?
O7 S3 K2 123.73(5) . . ?
O7 S3 K2 77.87(5) . 3 ?
O9 S3 K1 148.36(6) . . ?
O9 S3 K1 65.79(5) . 3_556 ?
O9 S3 O7 110.65(8) . . ?
O9 S3 K2 69.51(6) . 3 ?
O9 S3 K2 59.03(6) . . ?
O8 S3 K1 101.15(6) . . ?
O8 S3 K1 84.63(6) . 3_556 ?
O8 S3 O6 111.11(8) . . ?
O8 S3 O7 110.59(8) . . ?
O8 S3 O9 108.02(9) . . ?
O8 S3 K2 49.11(6) . . ?
O8 S3 K2 171.32(6) . 3 ?
K2 S3 K1 86.813(11) 3 3_556 ?
K2 S3 K1 83.311(11) 3 . ?
K2 S3 K1 146.993(13) . . ?
K2 S3 K2 128.276(13) 3 . ?
K1 Mg4 K1 114.770(10) 3 2 ?
K1 Mg4 K1 114.770(10) . 3 ?
K1 Mg4 K1 114.770(10) . 2 ?
O6 Mg4 K1 129.36(5) 10_564 2 ?
O6 Mg4 K1 50.88(4) 6_645 3 ?
O6 Mg4 K1 50.88(4) 10_564 . ?
O6 Mg4 K1 65.31(4) 5_456 . ?
O6 Mg4 K1 50.88(4) 5_456 2 ?
O6 Mg4 K1 65.31(4) 10_564 3 ?
O6 Mg4 K1 129.36(5) 6_645 . ?
O6 Mg4 K1 129.36(5) 5_456 3 ?
O6 Mg4 K1 65.31(4) 6_645 2 ?
O6 Mg4 O6 88.28(6) 10_564 5_456 ?
O6 Mg4 O6 88.28(6) 10_564 6_645 ?
O6 Mg4 O6 88.28(6) 5_456 6_645 ?
O6 Mg4 O7 88.76(6) 5_456 . ?
O6 Mg4 O7 175.86(7) 6_645 . ?
O6 Mg4 O7 88.74(5) 6_645 3 ?
O6 Mg4 O7 88.74(5) 5_456 2 ?
O6 Mg4 O7 88.74(5) 10_564 . ?
O6 Mg4 O7 88.76(6) 6_645 2 ?
O6 Mg4 O7 88.76(6) 10_564 3 ?
O6 Mg4 O7 175.86(7) 5_456 3 ?
O6 Mg4 O7 175.86(7) 10_564 2 ?
O6 Mg4 K2 53.53(4) 6_645 4_564 ?
O6 Mg4 K2 53.53(4) 10_564 4_564 ?
O6 Mg4 K2 53.53(4) 5_456 4_564 ?
O7 Mg4 K1 129.93(4) 3 2 ?
O7 Mg4 K1 46.58(4) 2 2 ?
O7 Mg4 K1 114.73(3) 2 3 ?
O7 Mg4 K1 114.73(3) 3 . ?
O7 Mg4 K1 129.93(4) 2 . ?
O7 Mg4 K1 114.73(3) . 2 ?
O7 Mg4 K1 46.58(4) . . ?
O7 Mg4 K1 46.58(4) 3 3 ?
O7 Mg4 K1 129.94(4) . 3 ?
O7 Mg4 O7 94.07(5) 2 . ?
O7 Mg4 O7 94.07(6) 3 2 ?
O7 Mg4 O7 94.07(6) 3 . ?
O7 Mg4 K2 122.33(4) . 4_564 ?
O7 Mg4 K2 122.33(4) 2 4_564 ?
O7 Mg4 K2 122.33(4) 3 4_564 ?
K2 Mg4 K1 76.561(13) 4_564 . ?
K2 Mg4 K1 76.562(13) 4_564 3 ?
K2 Mg4 K1 76.561(13) 4_564 2 ?
K1 O6 K2 102.72(4) 3_556 3 ?
S3 O6 K1 94.90(6) . 3_556 ?
S3 O6 Mg4 166.14(10) . 4_565 ?
S3 O6 K2 91.44(6) . 3 ?
Mg4 O6 K1 96.84(5) 4_565 3_556 ?
Mg4 O6 K2 93.14(5) 4_565 3 ?
K1 O7 K2 97.28(4) . 3 ?
S3 O7 K1 112.86(6) . . ?
S3 O7 Mg4 130.90(8) . . ?
S3 O7 K2 77.07(5) . 3 ?
Mg4 O7 K1 101.25(5) . . ?
Mg4 O7 K2 133.45(5) . 3 ?
K1 O9 K2 95.79(4) 3_556 3 ?
S3 O9 K1 88.96(6) . 3_556 ?
S3 O9 Mg5 152.56(9) . . ?
S3 O9 K2 84.88(6) . 3 ?
S3 O9 K2 97.17(7) . . ?
Mg5 O9 K1 118.35(5) . 3_556 ?
Mg5 O9 K2 91.18(5) . . ?
Mg5 O9 K2 89.39(5) . 3 ?
K2 O9 K1 78.91(4) . 3_556 ?
K2 O9 K2 174.25(5) . 3 ?
S3 O8 Mg5 148.77(9) . 6_646 ?
S3 O8 K2 108.26(7) . . ?
Mg5 O8 K2 98.74(5) 6_646 . ?
O9 Mg5 O9 92.23(6) 2 3 ?
O9 Mg5 O9 92.23(6) . 3 ?
O9 Mg5 O9 92.23(6) . 2 ?
O9 Mg5 K2 57.48(4) 3 2 ?
O9 Mg5 K2 130.61(5) 3 . ?
O9 Mg5 K2 55.70(4) 2 2 ?
O9 Mg5 K2 57.48(4) . 3 ?
O9 Mg5 K2 130.62(5) . 2 ?
O9 Mg5 K2 130.62(5) 2 3 ?
O9 Mg5 K2 55.70(4) . . ?
O9 Mg5 K2 55.70(4) 3 3 ?
O9 Mg5 K2 57.48(4) 2 . ?
O8 Mg5 O9 81.97(6) 7_665 . ?
O8 Mg5 O9 172.68(6) 12_656 2 ?
O8 Mg5 O9 92.45(6) 12_656 . ?
O8 Mg5 O9 81.97(6) 12_656 3 ?
O8 Mg5 O9 92.45(6) 7_665 2 ?
O8 Mg5 O9 172.68(6) 9_566 . ?
O8 Mg5 O9 92.45(6) 9_566 3 ?
O8 Mg5 O9 81.97(6) 9_566 2 ?
O8 Mg5 O9 172.68(6) 7_665 3 ?
O8 Mg5 O8 93.77(6) 7_665 9_566 ?
O8 Mg5 O8 93.77(6) 12_656 9_566 ?
O8 Mg5 O8 93.77(6) 12_656 7_665 ?
O8 Mg5 K2 129.82(4) 9_566 3 ?
O8 Mg5 K2 117.09(4) 9_566 . ?
O8 Mg5 K2 48.79(4) 7_665 . ?
O8 Mg5 K2 48.79(4) 9_566 2 ?
O8 Mg5 K2 129.82(4) 7_665 2 ?
O8 Mg5 K2 48.79(4) 12_656 3 ?
O8 Mg5 K2 117.09(4) 7_665 3 ?
O8 Mg5 K2 129.82(4) 12_656 . ?
O8 Mg5 K2 117.09(4) 12_656 2 ?
K2 Mg5 K2 112.962(11) 3 2 ?
K2 Mg5 K2 112.962(11) 3 . ?
K2 Mg5 K2 112.962(11) 2 . ?
O6 K2 O6 56.83(4) 4_665 2 ?
O6 K2 O6 56.83(4) 4_665 12_646 ?
O6 K2 O6 56.83(4) 2 12_646 ?
O6 K2 O9 96.23(3) 2 . ?
O6 K2 O9 100.06(3) 4_665 12_646 ?
O6 K2 O9 44.68(3) 2 2 ?
O6 K2 O9 44.68(3) 4_665 4_665 ?
O6 K2 O9 44.68(3) 12_646 12_646 ?
O6 K2 O9 88.21(4) 12_646 4_665 ?
O6 K2 O9 132.65(4) 12_646 . ?
O6 K2 O9 96.23(3) 4_665 7_665 ?
O6 K2 O9 100.06(3) 2 4_665 ?
O6 K2 O9 132.65(4) 2 7_665 ?
O6 K2 O9 88.21(4) 4_665 2 ?
O6 K2 O9 143.04(4) 12_646 7_665 ?
O6 K2 O9 100.06(3) 12_646 2 ?
O6 K2 O9 132.65(4) 4_665 6_646 ?
O6 K2 O9 88.21(4) 2 12_646 ?
O6 K2 O9 143.04(4) 2 6_646 ?
O6 K2 O9 96.23(3) 12_646 6_646 ?
O6 K2 O9 143.04(4) 4_665 . ?
O9 K2 O9 84.27(4) 7_665 6_646 ?
O9 K2 O9 56.31(5) . 2 ?
O9 K2 O9 104.118(7) . 12_646 ?
O9 K2 O9 115.029(18) 2 12_646 ?
O9 K2 O9 137.77(3) 7_665 12_646 ?
O9 K2 O9 84.27(4) 7_665 . ?
O9 K2 O9 137.77(3) 6_646 2 ?
O9 K2 O9 84.27(4) 6_646 . ?
O9 K2 O9 115.029(18) 4_665 2 ?
O9 K2 O9 56.31(5) 7_665 4_665 ?
O9 K2 O9 56.31(5) 6_646 12_646 ?
O9 K2 O9 137.77(3) . 4_665 ?
O9 K2 O9 115.029(18) 4_665 12_646 ?
O9 K2 O9 104.118(7) 7_665 2 ?
O9 K2 O9 104.118(7) 6_646 4_665 ?
O8 K2 O6 101.53(4) 6_646 12_646 ?
O8 K2 O6 101.53(4) . 2 ?
O8 K2 O6 97.32(4) 6_646 4_665 ?
O8 K2 O6 97.32(4) . 12_646 ?
O8 K2 O6 101.53(4) 7_665 4_665 ?
O8 K2 O6 151.96(4) 6_646 2 ?
O8 K2 O6 151.96(4) 7_665 12_646 ?
O8 K2 O6 151.96(4) . 4_665 ?
O8 K2 O6 97.32(4) 7_665 2 ?
O8 K2 O9 157.13(4) 6_646 2 ?
O8 K2 O9 58.47(3) 7_665 2 ?
O8 K2 O9 157.13(4) . 4_665 ?
O8 K2 O9 85.95(4) . 2 ?
O8 K2 O9 58.47(3) . 12_646 ?
O8 K2 O9 46.41(3) 7_665 7_665 ?
O8 K2 O9 46.41(3) 6_646 6_646 ?
O8 K2 O9 53.33(3) . 6_646 ?
O8 K2 O9 85.95(4) 6_646 12_646 ?
O8 K2 O9 111.79(4) 7_665 6_646 ?
O8 K2 O9 111.79(4) . 7_665 ?
O8 K2 O9 53.33(3) 7_665 . ?
O8 K2 O9 85.95(4) 7_665 4_665 ?
O8 K2 O9 111.79(4) 6_646 . ?
O8 K2 O9 58.47(3) 6_646 4_665 ?
O8 K2 O9 46.41(3) . . ?
O8 K2 O9 157.13(4) 7_665 12_646 ?
O8 K2 O9 53.33(3) 6_646 7_665 ?
O8 K2 O8 98.66(4) 6_646 . ?
O8 K2 O8 98.66(4) 7_665 6_646 ?
O8 K2 O8 98.66(4) 7_665 . ?
loop_
_geom_bond_atom_site_label_1
_geom_bond_atom_site_label_2
_geom_bond_distance
_geom_bond_site_symmetry_2
_geom_bond_publ_flag
K1 S3 3.4352(5) 9_466 ?
K1 S3 3.4352(5) 2_455 ?
K1 S3 3.4352(5) 10_564 ?
K1 O6 2.9859(14) 2_455 ?
K1 O6 2.9859(14) 9_466 ?
K1 O6 2.9859(14) 10_564 ?
K1 O7 2.8297(13) . ?
K1 O7 2.8297(13) 4_565 ?
K1 O7 2.8297(13) 5_456 ?
K1 O9 3.1335(14) 9_466 ?
K1 O9 3.1335(14) 10_564 ?
K1 O9 3.1335(14) 2_455 ?
S3 O6 1.4624(12) . ?
S3 O7 1.4681(11) . ?
S3 O9 1.4657(13) . ?
S3 O8 1.4597(12) . ?
S3 K2 3.3778(5) 3 ?
S3 K2 3.6022(5) . ?
Mg4 O6 2.0554(12) 10_564 ?
Mg4 O6 2.0554(12) 5_456 ?
Mg4 O6 2.0554(12) 6_645 ?
Mg4 O7 2.0745(12) 2 ?
Mg4 O7 2.0745(12) . ?
Mg4 O7 2.0745(12) 3 ?
Mg4 K2 3.7354(11) 4_564 ?
O6 K2 3.0083(16) 3 ?
O7 K2 3.3884(13) 3 ?
O9 Mg5 2.0591(13) . ?
O9 K2 3.1768(16) 3 ?
O9 K2 3.1129(16) . ?
O8 Mg5 2.0464(12) 6_646 ?
O8 K2 2.8675(15) . ?
Mg5 K2 3.7674(3) 2 ?
Mg5 K2 3.7674(3) . ?
Mg5 K2 3.7674(3) 3 ?
loop_
_geom_torsion_atom_site_label_1
_geom_torsion_atom_site_label_2
_geom_torsion_atom_site_label_3
_geom_torsion_atom_site_label_4
_geom_torsion
_geom_torsion_site_symmetry_1
_geom_torsion_site_symmetry_2
_geom_torsion_site_symmetry_3
_geom_torsion_site_symmetry_4
_geom_torsion_publ_flag
K1 S3 O6 K1 165.59(5) . . . 3_556 ?
K1 S3 O6 Mg4 -147.8(4) 3_556 . . 4_565 ?
K1 S3 O6 Mg4 17.8(4) . . . 4_565 ?
K1 S3 O6 K2 102.89(5) 3_556 . . 3 ?
K1 S3 O6 K2 -91.52(3) . . . 3 ?
K1 S3 O7 K1 -81.2(2) 3_556 . . . ?
K1 S3 O7 Mg4 148.64(12) 3_556 . . . ?
K1 S3 O7 Mg4 -130.18(13) . . . . ?
K1 S3 O7 K2 11.4(2) 3_556 . . 3 ?
K1 S3 O7 K2 92.54(5) . . . 3 ?
K1 S3 O9 K1 128.39(8) . . . 3_556 ?
K1 S3 O9 Mg5 -46.2(3) . . . . ?
K1 S3 O9 Mg5 -174.6(2) 3_556 . . . ?
K1 S3 O9 K2 -95.91(4) 3_556 . . 3 ?
K1 S3 O9 K2 32.48(11) . . . 3 ?
K1 S3 O9 K2 78.69(4) 3_556 . . . ?
K1 S3 O9 K2 -152.92(7) . . . . ?
K1 S3 O8 Mg5 82.26(17) 3_556 . . 6_646 ?
K1 S3 O8 Mg5 -47.76(18) . . . 6_646 ?
K1 S3 O8 K2 -66.25(5) 3_556 . . . ?
K1 S3 O8 K2 163.73(4) . . . . ?
O6 S3 O7 K1 -37.17(9) . . . . ?
O6 S3 O7 Mg4 -167.35(10) . . . . ?
O6 S3 O7 K2 55.38(7) . . . 3 ?
O6 S3 O9 K1 44.54(8) . . . 3_556 ?
O6 S3 O9 Mg5 -130.1(2) . . . . ?
O6 S3 O9 K2 -51.37(7) . . . 3 ?
O6 S3 O9 K2 123.22(7) . . . . ?
O6 S3 O8 Mg5 27.3(2) . . . 6_646 ?
O6 S3 O8 K2 -121.17(7) . . . . ?
O7 S3 O6 K1 -167.53(6) . . . 3_556 ?
O7 S3 O6 Mg4 44.7(4) . . . 4_565 ?
O7 S3 O6 K2 -64.64(7) . . . 3 ?
O7 S3 O9 K1 163.54(6) . . . 3_556 ?
O7 S3 O9 Mg5 -11.1(2) . . . . ?
O7 S3 O9 K2 67.64(7) . . . 3 ?
O7 S3 O9 K2 -117.77(6) . . . . ?
O7 S3 O8 Mg5 -94.15(17) . . . 6_646 ?
O7 S3 O8 K2 117.35(7) . . . . ?
O9 S3 O6 K1 -47.61(8) . . . 3_556 ?
O9 S3 O6 Mg4 164.6(4) . . . 4_565 ?
O9 S3 O6 K2 55.28(8) . . . 3 ?
O9 S3 O7 K1 -154.93(7) . . . . ?
O9 S3 O7 Mg4 74.89(12) . . . . ?
O9 S3 O7 K2 -62.38(7) . . . 3 ?
O9 S3 O8 Mg5 144.63(17) . . . 6_646 ?
O9 S3 O8 K2 -3.88(9) . . . . ?
O8 S3 O6 K1 70.20(8) . . . 3_556 ?
O8 S3 O6 Mg4 -77.6(4) . . . 4_565 ?
O8 S3 O6 K2 173.09(7) . . . 3 ?
O8 S3 O7 K1 85.42(8) . . . . ?
O8 S3 O7 Mg4 -44.76(13) . . . . ?
O8 S3 O7 K2 177.96(7) . . . 3 ?
O8 S3 O9 K1 -75.27(7) . . . 3_556 ?
O8 S3 O9 Mg5 110.1(2) . . . . ?
O8 S3 O9 K2 3.42(8) . . . . ?
O8 S3 O9 K2 -171.18(6) . . . 3 ?
K2 S3 O6 K1 16.18(8) . . . 3_556 ?
K2 S3 O6 K1 -102.89(5) 3 . . 3_556 ?
K2 S3 O6 Mg4 -131.6(4) . . . 4_565 ?
K2 S3 O6 Mg4 109.3(4) 3 . . 4_565 ?
K2 S3 O6 K2 119.08(4) . . . 3 ?
K2 S3 O7 K1 -92.54(5) 3 . . . ?
K2 S3 O7 K1 139.26(3) . . . . ?
K2 S3 O7 Mg4 137.28(10) 3 . . . ?
K2 S3 O7 Mg4 9.08(13) . . . . ?
K2 S3 O7 K2 -128.20(3) . . . 3 ?
K2 S3 O9 K1 -78.69(4) . . . 3_556 ?
K2 S3 O9 K1 95.91(4) 3 . . 3_556 ?
K2 S3 O9 Mg5 106.7(2) . . . . ?
K2 S3 O9 Mg5 -78.7(2) 3 . . . ?
K2 S3 O9 K2 -174.60(5) . . . 3 ?
K2 S3 O9 K2 174.60(5) 3 . . . ?
K2 S3 O8 Mg5 148.5(2) . . . 6_646 ?
