#------------------------------------------------------------------------------
#$Date: 2022-03-06 06:37:54 +0200 (Sun, 06 Mar 2022) $
#$Revision: 273468 $
#$URL: file:///home/coder/svn-repositories/cod/cif/1/56/59/1565951.cif $
#------------------------------------------------------------------------------
#
# This file is available in the Crystallography Open Database (COD),
# http://www.crystallography.net/
#
# All data on this site have been placed in the public domain by the
# contributors.
#
data_1565951
loop_
_publ_author_name
'Wildner, Manfred'
'Zakharov, Boris A.'
'Bogdanov, Nikita E.'
'Talla, Dominik'
'Boldyreva, Elena V.'
'Miletich, Ronald'
_publ_section_title
;
 Crystallography relevant to Mars and Galilean icy moons: crystal behavior
 of kieserite-type monohydrate sulfates at extraterrestrial conditions
 down to 15 K
;
_journal_issue                   2
_journal_name_full               IUCrJ
_journal_page_first              194
_journal_page_last               203
_journal_paper_doi               10.1107/S2052252521012720
_journal_volume                  9
_journal_year                    2022
_chemical_formula_sum            'Co H2 O5 S'
_chemical_formula_weight         173.01
_space_group_crystal_system      monoclinic
_space_group_IT_number           15
_space_group_name_Hall           '-C 2yc'
_space_group_name_H-M_alt        'C 1 2/c 1'
_atom_sites_solution_hydrogens   difmap
_audit_creation_method           SHELXL-2017/1
_cell_angle_alpha                90
_cell_angle_beta                 118.191(16)
_cell_angle_gamma                90
_cell_formula_units_Z            4
_cell_length_a                   6.9143(10)
_cell_length_b                   7.6290(8)
_cell_length_c                   7.5815(10)
_cell_measurement_temperature    15(2)
_cell_volume                     352.48(9)
_computing_structure_refinement  'SHELXL-2017/1 (Sheldrick, 2017)'
_diffrn_ambient_temperature      15(2)
_diffrn_measured_fraction_theta_full 1.000
_diffrn_measured_fraction_theta_max 0.882
_diffrn_radiation_type           MoK\a
_diffrn_radiation_wavelength     0.71073
_diffrn_reflns_av_R_equivalents  0.0488
_diffrn_reflns_av_unetI/netI     0.0465
_diffrn_reflns_Laue_measured_fraction_full 1.000
_diffrn_reflns_Laue_measured_fraction_max 0.882
_diffrn_reflns_limit_h_max       7
_diffrn_reflns_limit_h_min       -9
_diffrn_reflns_limit_k_max       7
_diffrn_reflns_limit_k_min       -9
_diffrn_reflns_limit_l_max       10
_diffrn_reflns_limit_l_min       -7
_diffrn_reflns_number            1229
_diffrn_reflns_point_group_measured_fraction_full 1.000
_diffrn_reflns_point_group_measured_fraction_max 0.882
_diffrn_reflns_theta_full        25.242
_diffrn_reflns_theta_max         29.232
_diffrn_reflns_theta_min         4.241
_exptl_absorpt_coefficient_mu    5.340
_exptl_crystal_density_diffrn    3.260
_exptl_crystal_F_000             340
_exptl_crystal_size_max          0.200
_exptl_crystal_size_mid          0.200
_exptl_crystal_size_min          0.050
_refine_diff_density_max         0.835
_refine_diff_density_min         -0.710
_refine_diff_density_rms         0.157
_refine_ls_extinction_coef       0.020(2)
_refine_ls_extinction_expression Fc^*^=kFc[1+0.001xFc^2^\l^3^/sin(2\q)]^-1/4^
_refine_ls_extinction_method     'SHELXL-2017/1 (Sheldrick 2017)'
_refine_ls_goodness_of_fit_ref   1.146
_refine_ls_hydrogen_treatment    refall
_refine_ls_matrix_type           full
_refine_ls_number_parameters     40
_refine_ls_number_reflns         428
_refine_ls_number_restraints     0
_refine_ls_restrained_S_all      1.146
_refine_ls_R_factor_all          0.0331
_refine_ls_R_factor_gt           0.0269
_refine_ls_shift/su_max          0.000
_refine_ls_shift/su_mean         0.000
_refine_ls_structure_factor_coef Fsqd
_refine_ls_weighting_details
'w=1/[\s^2^(Fo^2^)+(0.0210P)^2^+0.3600P] where P=(Fo^2^+2Fc^2^)/3'
_refine_ls_weighting_scheme      calc
_refine_ls_wR_factor_gt          0.0593
_refine_ls_wR_factor_ref         0.0650
_reflns_Friedel_coverage         0.000
_reflns_number_gt                383
_reflns_number_total             428
_reflns_threshold_expression     'I > 2\s(I)'
_cod_data_source_file            lt5044.cif
_cod_data_source_block           CoSO4H2O_He_15K
_cod_depositor_comments
'Adding full bibliography for 1565934--1565967.cif.'
_cod_original_sg_symbol_H-M      'C 2/c'
_cod_database_code               1565951
_shelx_shelxl_version_number     2017/1
_shelx_space_group_comment
;
The symmetry employed for this shelxl refinement is uniquely defined
by the following loop, which should always be used as a source of
symmetry information in preference to the above space-group names.
They are only intended as comments.
;
_shelx_estimated_absorpt_t_min   0.415
_shelx_estimated_absorpt_t_max   0.776
_shelx_res_file
;
TITL cryst9-He-15K, kieserite cell setting from literature
    CoSO4_viekies_He-15K.res
    created by SHELXL-2017/1 at 09:12:55 on 25-Dec-2020
REM meas. CELL 0.71073   6.917271   7.630369   7.5846  90.0000 118.184  90.0000
REM latt corr for Nonius20C  -.0030 -.0014 -.0031         +.007
CELL 0.71073   6.914271   7.628969   7.5815  90.0000 118.191  90.0000
ZERR    4.00   0.000998   0.000809   0.0010   0.0000   0.016   0.0000
LATT  7
SYMM -X, Y, 1/2-Z
SFAC O H S CO
UNIT 20 8 4 4
L.S. 6
BOND
CONF
CONN 12 1.8 $O
EQIV $9 -x+1/2, y+1/2, -z+1/2
BOND $H
FMAP 2
PLAN 20
ACTA
HTAB O3 O2_$9
HTAB
TEMP -258
SIZE 0.20 0.20 0.05
WGHT    0.021000    0.360000
EXTI    0.019962
FVAR       3.31790
CO    4    0.000000    0.500000    0.000000    10.50000    0.00448    0.00253 =
         0.00495    0.00021    0.00188   -0.00019
S     3    0.000000    0.155795    0.250000    10.50000    0.00458    0.00260 =
         0.00504    0.00000    0.00194    0.00000
O1    1    0.172218    0.045233    0.402501    11.00000    0.00446    0.00254 =
         0.00794    0.00033    0.00255    0.00134
O2    1    0.100574    0.268686    0.155750    11.00000    0.00597    0.00341 =
         0.00839    0.00192    0.00360    0.00034
O3    1    0.000000    0.637269    0.250000    10.50000    0.00416    0.00622 =
         0.00883    0.00000    0.00211    0.00000
H     2    0.100460    0.696704    0.292988    11.00000    0.00828
HKLF 4 1   -1 0 0  0 -1 0  1 0 1




REM  cryst9-He-15K, kieserite cell setting from literature
REM R1 =  0.0269 for     383 Fo > 4sig(Fo)  and  0.0331 for all     428 data
REM     40 parameters refined using      0 restraints

END

WGHT      0.0214      0.3597

REM Instructions for potential hydrogen bonds
EQIV $5 x+1/2, y+1/2, z
HTAB O3 S_$5
HTAB O3 O2_$9

REM Highest difference peak  0.835,  deepest hole -0.710,  1-sigma level  0.157
Q1    1   0.0000  0.8370  0.2500  10.50000  0.05    0.83
Q2    1   0.0700  0.2271  0.2141  11.00000  0.05    0.59
Q3    1   0.1389  0.4347  0.0022  11.00000  0.05    0.51
Q4    1   0.1986  0.3498  0.2775  11.00000  0.05    0.45
Q5    1   0.2306  0.3795  0.1475  11.00000  0.05    0.44
Q6    1   0.2292  0.1353  0.3979  11.00000  0.05    0.43
Q7    1   0.2602 -0.0159  0.5649  11.00000  0.05    0.42
Q8    1   0.1175 -0.0718  0.2467  11.00000  0.05    0.41
Q9    1   0.2988  0.0438  0.4920  11.00000  0.05    0.41
Q10   1   0.2718 -0.0072  0.3975  11.00000  0.05    0.41
Q11   1  -0.0072  0.5818  0.1279  11.00000  0.05    0.40
Q12   1   0.1603  0.1769  0.1166  11.00000  0.05    0.40
Q13   1  -0.0042  0.2893  0.0849  11.00000  0.05    0.39
Q14   1   0.1561  0.6114  0.2134  11.00000  0.05    0.38
Q15   1   0.1746  0.2134  0.2851  11.00000  0.05    0.38
Q16   1   0.3385  0.1920  0.4773  11.00000  0.05    0.37
Q17   1   0.2657  0.5488  0.3569  11.00000  0.05    0.37
Q18   1   0.2246  0.7354  0.3456  11.00000  0.05    0.36
Q19   1   0.1604  0.0897  0.2954  11.00000  0.05    0.35
Q20   1   0.1768 -0.0584  0.4656  11.00000  0.05    0.33
;
_shelx_res_checksum              82763
_shelx_hkl_file
;
  -7  -1   6 6247.17 709.130   3
  -7   1   6 6016.45 735.191   3
  -7   1   7 8187.04 936.261   3
  -7  -1   7 7649.33 890.596   3
  -7  -1   8-38.3662 87.4535   3
  -7   1   8-28.4875 143.585   3
  -7   1   9 10713.4 1288.27   3
  -7  -1   9 10544.0 1284.15   3
  -7  -3   5 15332.0 1025.93   3
  -7  -3   6 203.600 169.435   3
  -7  -3   7 33037.1 1980.97   3
  -7  -3   8 72.6592 112.897   3
  -7  -3   9-131.185 205.137   3
  -6   0   4 1869.82 298.185   3
  -6   0   5-125.768 120.195   3
  -6   0   6 74022.9 2753.77   3
  -6   0   7-109.780 156.604   3
  -6   0   8 7793.19 1014.84   3
  -6   0   9 100.771 176.051   3
  -6  -2   3 5857.38 398.264   3
  -6  -2   4 53350.7 1797.31   3
  -6  -2   5 18614.6 1159.51   3
  -6   2   6 40260.0 2088.96   3
  -6  -2   6 38105.9 2185.83   2
  -6  -2   6 40941.4 2001.27   3
  -6   2   7 14673.4 1324.38   3
  -6  -2   7 14887.6 1299.15   3
  -6  -2   8 21595.1 1747.22   3
  -6   2   8 20544.2 1696.98   3
  -6   2   9 4537.67 849.460   3
  -6  -2   9 4128.61 830.227   3
  -6  -4   2 8168.56 674.358   3
  -6  -4   4 55692.4 2280.82   3
  -6  -4   5 1389.15 372.547   3
  -6  -4   6 1589.42 428.611   3
  -6  -4   7 3412.37 681.691   3
  -6  -4   8 52473.6 3001.33   3
  -6  -6   4 2842.97 627.168   3
  -6  -6   5 160.795 178.939   3
  -6  -6   6 45315.3 2774.17   3
  -6  -6   7 415.775 287.415   3
  -5  -1   2 3509.62 616.615   2
  -5  -1   3 25592.2 980.982   3
  -5  -1   3 28105.3 1715.37   2
  -5  -1   4 317.441 221.069   2
  -5  -1   4 67.3136 70.0949   3
  -5  -1   5 8518.10 780.920   3
  -5   1   5 8831.36 818.871   3
  -5  -1   5 10832.9 1004.06   2
  -5  -1   6 150.253 136.403   3
  -5   1   6 397.561 215.732   3
  -5   1   7 42459.1 2273.83   3
  -5  -1   7 43429.7 2294.23   3
  -5   1   8 3119.43 659.320   3
  -5  -1   8 2328.35 579.927   3
  -5   1   9 17572.3 1722.22   3
  -5  -1   9 21959.4 1946.93   3
  -5  -3  -1 24584.3 1058.83   3
  -5  -3   0 285.985 108.051   3
  -5  -3   1 59373.5 1685.56   3
  -5  -3   3 3890.94 479.866   3
  -5  -3   4 1376.23 332.810   3
  -5  -3   4 1770.42 419.545   2
  -5  -3   5 54167.3 2423.96   2
  -5  -3   5 52644.2 2328.37   3
  -5  -3   6 6777.26 859.740   3
  -5  -3   6 7790.27 854.485   2
  -5   3   6 7814.55 947.383   3
  -5   3   7 9359.88 1099.96   3
  -5  -3   7 9777.65 1130.58   3
  -5  -3   8-306.904 245.216   3
  -5   3   8-49.0559 171.459   3
  -5  -3   9 32691.2 2506.28   3
  -5   3   9 35997.3 2549.85   3
  -5   5   2 10043.2 1282.42   1
  -5   5   3 35649.9 2470.70   1
  -5   5   4 15203.2 1592.61   1
  -5  -5   4 11174.9 1149.86   3
  -5   5   5 9202.80 1259.88   1
  -5  -5   5 7475.51 1001.38   3
  -5  -5   6 1200.93 433.186   3
  -5   5   6 2227.31 642.271   1
  -5  -5   7 27285.0 2147.34   3
  -5   5   7 27726.7 2305.90   1
  -5  -5   8 2926.91 762.065   3
  -5   7   1 4067.99 900.524   1
  -5   7   2-560.470 351.769   1
  -5   7   3 37223.6 2767.02   1
  -5   7   4 4529.68 942.739   1
  -5  -7   5 15628.7 1655.90   3
  -5   7   5 16089.4 1863.06   1
  -5  -7   6 9123.32 1325.67   3
  -5   7   6 12801.1 1708.98   1
  -4   0  -2 1025.50 347.429   2
  -4   0  -1-180.099 169.262   2
  -4   0   2 60896.1 2396.64   2
  -4   0   2 58829.9 1419.50   3
  -4   0   3-224.152 146.214   2
  -4   0   3-1.49684 54.5323   3
  -4   0   4 63147.2 2315.35   2
  -4   0   5 77.3492 106.094   3
  -4   0   6 990.155 309.547   3
  -4   0   7-236.773 195.352   3
  -4   0   8 76575.5 3486.04   3
  -4   0   9-223.279 247.596   3
  -4  -2  -3 6284.26 662.739   3
  -4  -2  -2 75672.0 2268.72   3
  -4  -2  -1 24512.1 1645.79   2
  -4  -2  -1 26120.3 1001.80   3
  -4  -2   0 49727.3 2255.44   2
  -4  -2   0 45130.5 1253.40   3
  -4  -2   2 63806.4 2438.23   2
  -4  -2   2 60295.5 1771.44   3
  -4  -2   3 14171.1 866.356   3
  -4  -2   3 14805.0 1064.87   2
  -4  -2   4 39391.5 1769.75   2
  -4  -2   5 23824.8 1459.52   3
  -4  -2   5 23989.5 1303.94   2
  -4   2   5 24213.9 1459.05   3
  -4  -2   6 29422.3 1324.78   2
  -4  -2   6 28492.4 1770.45   3
  -4   2   6 27797.6 1708.03   3
  -4   2   7 12546.7 1245.15   3
  -4  -2   7 13727.7 1320.22   3
  -4  -2   8 1621.48 499.144   3
  -4   2   8 1477.60 494.669   3
  -4   2   9 3316.16 773.845   3
  -4  -2   9 2524.83 706.290   3
  -4  -4  -2 41315.0 1884.40   3
  -4  -4  -1-54.8855 87.5017   3
  -4  -4   0 13179.9 888.129   3
  -4   4   1 9164.92 1073.20   1
  -4   4   2 145690. 4809.29   1
  -4  -4   3 29870.8 1706.64   2
  -4   4   3 36528.4 2184.08   1
  -4   4   4 476.828 259.832   1
  -4  -4   4 189.611 188.857   2
  -4  -4   4 232.025 160.446   3
  -4  -4   5 2957.99 506.728   2
  -4   4   5 2838.04 615.247   1
  -4  -4   5 1566.40 451.111   3
  -4   4   6 44306.4 2553.11   1
  -4  -4   6 40443.7 1879.67   2
  -4  -4   6 40654.5 2376.31   3
  -4   4   7 34.5883 170.788   3
  -4  -4   7-30.8609 159.166   3
  -4   4   8 9092.38 1213.82   3
  -4  -4   8 5674.60 988.199   3
  -4   6  -1 943.481 404.103   1
  -4   6   0 56998.8 3119.72   1
  -4   6   1 1091.03 401.842   1
  -4   6   2 194.664 179.191   1
  -4   6   3 4851.42 852.926   1
  -4   6   4 78027.3 3723.15   1
  -4   6   5 529.946 322.374   1
  -4  -6   5 249.664 243.526   3
  -4  -6   6 4181.95 828.716   3
  -4   6   6 4729.08 916.012   1
  -4  -6   7 676.633 362.656   3
  -4   6   7 1619.44 531.964   1
  -4   6   8 28870.7 2431.86   1
  -4   8  -1 20433.8 2072.99   1
  -4   8   0 19050.8 1980.20   1
  -4   8   1 7151.88 1189.81   1
  -4   8   2 12500.7 1568.03   1
  -4   8   3 797.259 369.625   1
  -4   8   4 18795.2 1964.55   1
  -3  -1  -4 8285.92 952.269   2
  -3  -1  -4 9246.83 894.893   3
  -3  -1  -3 27889.1 1665.42   2
  -3  -1  -3 25853.3 1342.74   3
  -3  -1  -2 4893.25 644.716   2
  -3  -1  -2 4088.25 428.948   3
  -3  -1  -1 11590.5 567.558   3
  -3  -1   0 418.941 69.2696   3
  -3  -1   1 103669. 2035.21   3
  -3  -1   2 4733.02 506.341   2
  -3   1   2 5097.60 411.277   3
  -3  -1   2 5213.09 385.612   3
  -3  -1   3 101483. 2755.90   2
  -3  -1   3 98442.8 2610.82   3
  -3   1   3 101287. 2686.67   3
  -3  -1   4 5370.93 491.556   2
  -3  -1   5 64106.4 2488.05   3
  -3   1   5 62891.6 2438.04   3
  -3  -1   6 18343.2 1381.58   3
  -3   1   6 19062.3 1388.03   3
  -3   1   7 7541.12 967.552   3
  -3  -1   7 8540.04 1038.48   3
  -3  -1   8 5891.00 936.522   3
  -3   1   8 4967.60 855.551   3
  -3  -1   9 11069.4 1416.39   3
  -3   1   9 11819.3 1457.94   3
  -3  -3  -3 8199.97 806.119   3
  -3  -3  -2 48.3313 143.985   2
  -3  -3  -2-138.629 114.606   3
  -3  -3  -1 59829.5 1993.74   3
  -3  -3  -1 65309.6 2564.15   2
  -3   3   0 25685.4 1545.08   1
  -3   3   1 21469.1 1406.76   1
  -3   3   2 300.528 166.834   1
  -3  -3   2 629.775 223.340   2
  -3   3   3 125658. 3934.48   1
  -3  -3   3 128206. 3436.04   2
  -3   3   4 3515.08 588.923   1
  -3  -3   4 3849.46 468.347   2
  -3  -3   4 2892.05 523.854   3
  -3   3   5 25347.6 1619.52   1
  -3   3   5 27409.1 1644.29   3
  -3  -3   5 24338.6 1182.86   2
  -3  -3   5 21493.7 1524.27   3
  -3  -3   6 419.103 239.798   3
  -3   3   6 201.033 170.903   1
  -3  -3   6 274.621 111.839   2
  -3   3   6 75.6769 159.719   3
  -3   3   7 29908.9 2035.30   3
  -3  -3   7 27821.8 2006.96   3
  -3   3   7 31172.8 1796.35   1
  -3   3   8 1002.71 415.732   3
  -3  -3   8-65.2381 141.314   3
  -3   5  -2 3105.02 607.307   1
  -3  -5  -1 15484.7 1134.36   3
  -3   5  -1 14849.5 1343.40   1
  -3   5   0 2010.63 488.244   1
  -3   5   1 72805.2 3081.99   1
  -3   5   2 27613.2 1821.05   1
  -3   5   3 21619.3 1612.26   1
  -3  -5   3 21644.7 1415.79   2
  -3   5   4 7050.10 936.093   1
  -3  -5   4 6137.68 730.252   2
  -3   5   5 30186.5 2040.51   1
  -3  -5   5 30227.2 2044.64   3
  -3  -5   5 28535.5 1633.29   2
  -3  -5   6 813.102 367.858   3
  -3   5   6 575.461 290.580   1
  -3  -5   7 15105.7 1580.40   3
  -3   5   7 13809.4 1441.87   1
  -3  -5   8 959.512 502.789   3
  -3   7  -3 48491.7 2885.58   1
  -3   7  -2 1265.77 492.207   1
  -3   7  -1 16409.5 1628.56   1
  -3   7   0 16605.1 1624.21   1
  -3   7   1 25544.1 2005.77   1
  -3   7   2 2558.17 621.703   1
  -3   7   3 8755.29 1174.84   1
  -3   7   4-46.7574 126.184   1
  -3   7   5 40009.5 2699.64   1
  -3  -7   6 3482.33 773.458   3
  -3   7   6 2254.39 676.884   1
  -3   7   7 3790.86 868.883   1
  -3   9  -2 410.751 304.490   1
  -3   9  -1 41068.6 3013.84   1
  -3   9   0 1026.52 463.003   1
  -3   9   1 7666.28 1262.11   1
  -2   0  -4 11659.5 986.464   3
  -2   0  -3-28.2598 77.3175   3
  -2   0  -3-38.1010 77.7079   2
  -2   0  -2 101613. 2894.71   2
  -2   0  -2 98258.5 2566.40   3
  -2   0  -1 57.6926 47.6563   3
  -2   0  -1-29.3085 65.5464   2
  -2   0   1 20.4982 30.1750   3
  -2   0   2 179473. 3770.55   2
  -2   0   2 178929. 3612.88   3
  -2   0   3-6.34107 63.1886   3
  -2   0   5 107.394 177.312   3
  -2   0   6 158299. 4743.43   3
  -2   0   7 208.730 203.280   3
  -2   0   8 5285.39 914.578   3
  -2   0   9-167.658 190.719   3
  -2  -2  -5 10402.5 1006.19   2
  -2  -2  -4 89402.5 3083.12   2
  -2  -2  -4 89653.4 3100.81   3
  -2  -2  -3 13228.4 946.772   3
  -2  -2  -2 70170.7 2167.45   3
  -2  -2  -1 74515.7 2032.93   3
  -2   2   0 12848.0 878.993   1
  -2   2   1 60642.6 2076.30   1
  -2   2   2 10180.8 786.013   1
  -2  -2   2 9261.36 622.611   2
  -2  -2   3 7283.65 517.324   2
  -2  -2   3 7932.51 707.193   3
  -2   2   3 8309.79 710.025   1
  -2  -2   4 165511. 3425.99   2
  -2   2   4 165401. 4140.46   1
  -2  -2   4 161373. 4405.36   3
  -2  -2   5 17975.7 657.584   2
  -2   2   5 16967.8 1077.07   1
  -2   2   5 18755.9 1304.29   3
  -2  -2   5 16497.9 1278.20   3
  -2   2   6 24798.1 1316.90   1
  -2   2   6 26279.5 1720.66   3
  -2  -2   6 25186.4 1713.06   3
  -2   2   7 17539.9 1530.41   3
  -2  -2   7 17009.0 1525.35   3
  -2   2   8 20466.9 1816.56   3
  -2  -2   8 22012.9 1889.01   3
  -2  -2   9 4473.70 901.806   3
  -2   2   9 4991.21 992.317   3
  -2  -4  -3 25373.7 1631.44   2
  -2  -4  -3 25725.6 1550.43   3
  -2  -4  -2 722.172 273.781   2
  -2   4  -2 207.250 149.161   1
  -2  -4  -2 495.549 200.674   3
  -2   4  -1 5606.12 684.692   1
  -2  -4  -1 4924.65 564.602   3
  -2  -4  -1 5678.37 688.424   2
  -2   4   0 137529. 3963.45   1
  -2   4   1 6079.90 707.942   1
  -2   4   2 10060.1 932.698   1
  -2  -4   2 11359.2 885.319   2
  -2   4   3 19967.6 1350.01   1
  -2  -4   3 20565.9 1187.20   2
  -2   4   4 60857.3 2546.07   1
  -2  -4   4 57213.8 2101.38   2
  -2   4   5 781.383 277.628   1
  -2  -4   5 405.763 169.975   2
  -2   4   6 12222.5 1162.24   1
  -2   4   6 13046.9 1287.57   3
  -2  -4   6 12743.1 815.631   2
  -2  -4   6 12528.8 1312.46   3
  -2   4   7 734.774 283.040   1
  -2  -4   7 670.310 402.094   3
  -2   4   7 1578.87 500.021   3
  -2  -4   8 45627.7 2899.37   3
  -2   4   8 51894.5 3108.40   3
  -2   6  -4 2869.71 561.714   1
  -2   6  -3 6905.78 913.256   1
  -2   6  -2 97293.7 3716.76   1
  -2   6  -1 598.210 279.531   1
  -2   6   0 2550.83 560.405   1
  -2   6   1 1100.89 404.315   1
  -2   6   2 71836.2 3110.89   1
  -2   6   3 26025.3 1821.03   1
  -2   6   4 10129.3 1161.59   1
  -2   6   5 4733.49 820.201   1
  -2   6   6 35816.8 2409.23   1
  -2  -6   6 40631.2 2607.21   3
  -2  -6   7 59.4201 163.481   3
  -2   6   7 88.8167 269.744   1
  -2   8  -3 2037.87 576.501   1
  -2   8  -2 18549.2 1757.44   1
  -2   8  -1 8250.83 1161.24   1
  -2   8   0 31295.3 2288.09   1
  -2   8   1 9597.19 1248.17   1
  -2   8   2 34261.8 2408.65   1
  -2   8   3 8281.52 1182.19   1
  -2   8   4 5883.21 1029.89   1
  -2   8   5 18488.9 1895.92   1
  -2   8   6 15246.8 1823.17   1
  -1  -1  -6 4396.63 510.530   2
  -1  -1  -5 45944.2 1769.80   2
  -1  -1  -4 2136.65 337.228   2
  -1  -1  -4 1710.71 360.886   3
  -1  -1  -3 83862.4 2357.57   2
  -1  -1  -3 90913.8 2608.17   3
  -1  -1  -2 4464.55 415.235   3
  -1  -1  -2 4139.81 396.812   2
  -1  -1  -1 173500. 3451.72   3
  -1   1   0 31783.9 1071.00   1
  -1   1   1 45451.0 1332.07   1
  -1   1   2 42180.4 1295.96   1
  -1  -1   2 42400.9 1039.35   2
  -1   1   3 21621.0 885.868   1
  -1  -1   3 20733.5 556.543   2
  -1   1   4 6113.16 460.225   1
  -1   1   5 24422.2 969.460   1
  -1   1   5 23338.7 1481.43   3
  -1  -1   5 24750.1 1532.54   3
  -1   1   6 796.215 337.809   3
  -1  -1   6 254.957 241.502   3
  -1  -1   7 50209.4 2695.83   3
  -1   1   7 51763.8 2743.53   3
  -1  -1   8-55.2047 161.417   3
  -1   1   8 344.506 171.117   3
  -1  -3  -5 8259.52 838.601   2
  -1  -3  -4 525.799 218.507   2
  -1  -3  -4 300.222 192.247   3
  -1   3  -3 132896. 3349.69   1
  -1  -3  -3 142822. 3885.28   3
  -1  -3  -2 4408.94 503.103   3
  -1   3  -2 3826.80 443.673   1
  -1   3  -1 59111.8 1977.59   1
  -1   3   0 3405.47 432.192   1
  -1   3   1 59336.6 2047.28   1
  -1   3   2 29228.5 1397.16   1
  -1  -3   2 30368.8 1264.22   2
  -1   3   3 16392.1 1059.34   1
  -1   3   4 6989.72 706.948   1
  -1  -3   4 7075.25 551.131   2
  -1  -3   5 59733.8 1772.55   2
  -1   3   5 56591.6 2263.21   1
  -1   3   5 59224.7 2602.10   3
  -1  -3   5 60052.4 2702.24   3
  -1   3   6 6542.65 714.587   1
  -1  -3   6 6702.84 922.466   3
  -1  -3   6 6671.24 438.669   2
  -1  -3   6 6101.15 415.172   2
  -1   3   6 6092.24 867.155   3
  -1   3   7 8184.06 777.343   1
  -1   3   7 10023.3 1201.36   3
  -1  -3   7 9960.87 1200.22   3
  -1   3   8 636.890 356.499   3
  -1  -3   8 2239.10 630.900   3
  -1   5  -4 29530.9 1580.39   1
  -1   5  -3 16725.7 1205.81   1
  -1  -5  -2 18633.6 1383.01   2
  -1  -5  -2 19416.7 1325.58   3
  -1   5  -2 17308.9 1239.12   1
  -1  -5  -1 69954.9 2734.46   2
  -1   5  -1 60735.9 2526.77   1
  -1   5   0 2192.03 454.527   1
  -1  -5   1 51138.7 2183.32   2
  -1   5   1 43341.4 2113.03   1
  -1  -5   2 1283.08 338.633   2
  -1   5   2 411.789 248.425   1
  -1   5   3 31547.0 1841.04   1
  -1  -5   4 8233.50 829.616   2
  -1   5   4 7185.62 890.218   1
  -1  -5   5 17291.7 1527.17   3
  -1  -5   5 15862.4 1174.14   2
  -1   5   5 16573.7 1424.62   1
  -1   5   6 1857.45 482.076   1
  -1  -5   6 1337.45 492.293   3
  -1  -5   7 33168.9 2384.33   3
  -1   5   7 30635.8 2052.96   1
  -1   7  -4 984.337 345.090   1
  -1   7  -3 13826.8 1335.83   1
  -1   7  -2 4021.60 729.968   1
  -1   7  -1 36296.3 2220.64   1
  -1   7   0 8678.04 1064.48   1
  -1   7   1 8554.76 1055.92   1
  -1   7   2-191.872 183.602   1
  -1   7   3 60751.7 3069.31   1
  -1   7   4 171.404 152.725   1
  -1   7   5 10655.5 1323.41   1
  -1  -7   6 7937.15 1202.93   3
  -1   7   6 11842.6 1453.47   1
  -1   7   7 12935.2 1560.26   1
  -1   9  -3 11865.0 1458.93   1
  -1   9  -2 69.2511 151.170   1
  -1   9  -1 2500.42 665.233   1
  -1   9   0 3238.76 751.034   1
  -1   9   1 60104.7 3406.39   1
  -1   9   2 724.000 374.471   1
  -1   9   3 4442.90 934.694   1
   0   0  -5-149.509 145.887   3
   0   0  -4 63607.5 2359.94   3
   0   0  -3 1.02186 31.1816   2
   0   0  -3 115.912 107.828   3
   0   0  -2 1339.14 132.917   2
   0   0  -2 1271.55 221.659   3
   0   0   2 1307.82 126.995   2
   0   0   3 50.0609 35.6229   2
   0   0   4 54746.5 1335.01   2
   0   0   4 54013.7 2126.82   3
   0   0   5-30.7948 149.067   3
   0   0   6 2036.14 491.502   3
   0   0   7 60.6354 163.879   3
   0   0   8 50608.7 2969.35   3
   0  -2  -6 12869.9 813.481   2
   0  -2  -5 23677.8 1128.29   2
   0  -2  -4 31312.9 1609.67   3
   0  -2  -4 30597.9 1258.53   2
   0  -2  -3 14129.2 782.735   2
   0   2  -3 14398.1 590.050   1
   0  -2  -3 15447.6 965.004   3
   0  -2  -2 186242. 4140.07   3
   0  -2  -2 188551. 4123.42   1
   0  -2  -2 187771. 4047.44   2
   0   2  -2 191050. 3761.48   1
   0   2  -1 66358.5 1753.80   1
   0  -2  -1 65671.1 1802.60   3
   0   2   0 38253.9 1256.87   1
   0  -2   1 61947.5 1684.57   1
   0   2   1 64477.8 1824.37   1
   0  -2   2 171815. 3530.81   1
   0   2   2 180218. 3884.86   1
   0  -2   3 14185.1 591.960   1
   0   2   3 14491.6 845.141   1
   0  -2   4 26353.0 1071.33   2
   0   2   4 25810.0 1466.37   3
   0   2   4 28860.5 1302.84   1
   0  -2   4 28247.6 1594.79   3
   0  -2   5 22134.7 1504.43   3
   0   2   5 21052.3 1143.83   1
   0  -2   5 21176.3 902.627   2
   0   2   5 20366.2 1437.13   3
   0  -2   6 10872.3 1164.54   3
   0   2   6 10627.4 759.516   1
   0   2   6 10802.9 1141.58   3
   0   2   7 17913.6 1616.37   3
   0  -2   7 16188.2 1524.78   3
   0   2   8 10660.4 1359.26   3
   0  -2   8 9275.25 1251.56   3
   0  -4  -5 8851.79 867.102   2
   0   4  -5 10732.9 686.668   1
   0  -4  -4 302.929 154.094   2
   0   4  -4 433.313 176.032   1
   0  -4  -3 37865.4 1793.84   2
   0  -4  -3 35407.9 1756.89   3
   0   4  -3 34136.1 1523.40   1
   0  -4  -2 121344. 3449.24   3
   0   4  -2 116313. 3293.52   1
   0  -4  -2 120171. 3607.48   1
   0   4  -1 19.9690 88.4749   1
   0   4   0 63979.1 2294.91   1
   0   4   1 52.0870 126.010   1
   0  -4   1 94.5276 95.1627   1
   0  -4   2 106581. 3105.60   1
   0   4   2 104670. 3279.50   1
   0  -4   3 32287.9 1489.46   1
   0   4   3 32209.4 1707.40   1
   0   4   4 88.4104 132.075   1
   0  -4   4-17.1950 169.120   3
   0  -4   5 10000.6 1100.48   3
   0   4   5 8819.36 952.313   1
   0  -4   6 64436.0 2231.24   2
   0  -4   6 60416.9 3012.27   3
   0   4   6 65999.9 3146.93   3
   0   4   6 56160.6 2619.17   1
   0  -4   7 1207.45 435.145   3
   0   4   7 1047.13 429.572   3
   0   6  -5 315.191 175.615   1
   0   6  -4 89799.9 3228.73   1
   0   6  -3 14354.2 1207.88   1
   0   6  -2 9085.97 971.615   1
   0   6  -1 4587.68 701.039   1
   0   6   0 55803.2 2560.83   1
   0   6   1 4077.10 665.822   1
   0  -6   2 9635.54 1029.09   1
   0   6   2 9186.96 1032.89   1
   0   6   3 14270.3 1332.71   1
   0   6   4 80257.4 3479.39   1
   0  -6   5 313.735 266.121   3
   0   6   5 397.058 284.519   1
   0  -6   6-254.137 231.702   3
   0   6   6 401.900 257.327   1
   0   8  -4 22570.9 1805.83   1
   0   8  -3 2040.22 519.077   1
   0   8  -2 10226.1 1234.58   1
   0   8  -1 22964.6 1891.77   1
   0   8   0 28588.8 2129.03   1
   0   8   1 24351.5 1961.73   1
   0   8   2 9450.60 1228.09   1
   0   8   3 1714.43 531.740   1
   0   8   4 20923.7 1979.03   1
   0   8   5 2520.25 689.260   1
   1  -1  -5 32448.8 1708.36   3
   1   1  -5 29049.4 1698.63   3
   1  -1  -4 7735.81 516.816   1
   1  -1  -4 7280.13 374.330   2
   1  -1  -4 7156.64 687.202   3
   1   1  -4 6497.93 702.488   3
   1  -1  -3 23775.4 927.196   1
   1  -1  -3 24842.8 1146.37   3
   1   1  -3 23418.2 1199.36   3
   1  -1  -2 44220.8 1394.76   3
   1  -1  -2 44992.6 1320.33   1
   1  -1  -1 46928.7 1219.02   3
   1   1  -1 46133.9 1209.60   2
   1   1   0 31757.2 1010.63   2
   1  -1   1 160804. 3476.64   2
   1  -1   1 156020. 3321.85   1
   1   1   1 164479. 3395.81   2
   1   1   1 159459. 3219.25   3
   1  -1   2 4527.62 448.245   3
   1  -1   2 3702.68 328.349   1
   1   1   2 4046.50 383.748   2
   1   1   2 4123.07 402.193   3
   1  -1   2 4301.75 422.000   2
   1  -1   3 78555.5 1878.19   1
   1  -1   3 77836.6 2215.18   2
   1   1   3 78953.2 2192.25   2
   1   1   3 76650.7 2424.16   3
   1  -1   3 78122.4 2503.17   3
   1   1   4 2385.02 325.806   1
   1   1   4 1982.57 400.990   3
   1  -1   4 2029.54 418.351   3
   1   1   4 2290.89 334.503   2
   1  -1   4 1945.94 301.236   2
   1  -1   4 1805.64 192.344   1
   1  -1   5 42150.4 1554.74   2
   1   1   5 45138.0 1555.15   1
   1   1   5 39923.3 1597.73   2
   1   1   5 41422.6 2115.91   3
   1  -1   5 40928.8 2091.64   3
   1   1   6 3885.63 697.113   3
   1  -1   6 4757.68 741.855   3
   1  -1   6 4429.50 442.301   2
   1   1   6 4597.49 407.130   1
   1   1   7 4842.91 836.033   3
   1  -1   7 3524.49 718.227   3
   1   1   8 5881.79 1012.05   3
   1  -1   8 7370.41 1127.04   3
   1  -3  -6 6994.24 637.604   2
   1   3  -5 67864.9 1592.51   1
   1  -3  -5 65522.6 2206.38   2
   1   3  -4 8012.48 551.808   1
   1  -3  -4 8392.31 704.970   2
   1  -3  -4 8193.22 811.024   3
   1   3  -3 18514.3 928.576   1
   1  -3  -3 17810.3 1095.02   3
   1   3  -2 33085.0 1350.16   1
   1  -3  -2 31156.9 1374.46   3
   1   3  -1 60966.8 2014.03   1
   1   3   0 3624.24 448.528   1
   1   3   1 55548.0 2030.38   1
   1  -3   1 56589.6 1940.51   1
   1   3   2 2984.27 455.894   1
   1  -3   2 4322.50 469.870   1
   1   3   3 127193. 3595.34   1
   1  -3   3 116776. 3086.11   1
   1  -3   4 483.437 146.141   1
   1  -3   4 443.280 218.945   3
   1   3   4-114.223 119.709   1
   1  -3   4 125.518 95.9035   2
   1   3   4 242.875 205.249   3
   1  -3   5 8358.83 752.977   2
   1   3   5 7504.84 807.736   1
   1  -3   5 7338.20 915.405   3
   1   3   5 7147.41 893.670   3
   1  -3   6 1091.37 396.346   3
   1  -3   6 1156.71 277.927   2
   1   3   6 600.619 234.041   1
   1   3   6 826.595 347.078   3
   1   3   7 20416.5 1827.09   3
   1  -3   7 20328.0 1749.49   3
   1  -5  -5 17171.8 1334.03   2
   1   5  -5 21321.7 1209.51   1
   1  -5  -4 7115.31 878.696   2
   1   5  -4 8338.36 796.932   1
   1  -5  -3 37871.3 2088.40   1
   1   5  -3 36176.6 1793.42   1
   1  -5  -2 1149.32 340.643   1
   1   5  -2 688.223 268.533   1
   1  -5  -2 704.418 298.207   3
   1   5  -1 46681.5 2114.90   1
   1  -5   0 2030.72 433.779   1
   1   5   0 2200.66 453.769   1
   1  -5   1 66499.5 2674.09   1
   1   5   1 64890.8 2669.03   1
   1  -5   2 17598.1 1284.82   1
   1   5   2 16309.5 1301.82   1
   1  -5   3 14736.7 1163.64   1
   1   5   3 15183.0 1287.63   1
   1  -5   4 22142.1 1405.73   1
   1   5   4 23635.9 1702.52   1
   1  -5   5 33324.2 1931.46   2
   1   5   5 31120.1 2053.16   1
   1  -5   5 33176.6 2155.74   3
   1  -5   6 475.550 292.626   3
   1   5   6 514.850 248.546   1
   1  -5   7 8940.29 1235.96   3
   1   7  -5 10726.1 1099.19   1
   1   7  -4 51.1527 81.0230   1
   1   7  -3 70103.1 3121.41   1
   1   7  -2 400.688 239.295   1
   1   7  -1 7855.07 1004.25   1
   1   7   0 9965.20 1145.08   1
   1   7   1 33561.3 2181.89   1
   1   7   2 6222.22 939.940   1
   1   7   3 11683.9 1326.27   1
   1   7   4 1061.03 426.922   1
   1   7   5 20635.0 1934.38   1
   1  -7   5 19690.7 1867.93   3
   1   7   6 3592.17 812.915   1
   1   9  -4 215.132 192.866   1
   1   9  -3 3653.41 802.338   1
   1   9  -2 1920.94 576.547   1
   1   9  -1 64669.4 3535.96   1
   1   9   0 3422.62 775.500   1
   1   9   1 2957.27 727.503   1
   1   9   2 164.358 184.183   1
   2   0  -6 170575. 3261.63   1
   2   0  -5-23.4027 91.5939   3
   2   0  -5-75.0942 55.7247   1
   2   0  -4 482.647 79.5090   2
   2   0  -4 746.033 237.812   3
   2   0  -4 432.833 124.828   1
   2   0  -3 42.9208 64.0399   3
   2   0  -3 35.5110 53.7236   1
   2   0  -3-27.2512 31.9662   2
   2   0  -2 190165. 3856.37   2
   2   0  -2 187033. 3790.41   3
   2   0  -1 15.6310 34.1067   3
   2   0  -1 109.543 106.319   2
   2   0   0 534.373 185.604   2
   2   0   1 61.3640 61.5769   3
   2   0   1-12.6062 78.7028   2
   2   0   2 90102.4 2656.32   2
   2   0   2 89152.1 2357.81   3
   2   0   3 112.070 110.060   2
   2   0   3 287.688 162.594   3
   2   0   4 11135.3 881.758   2
   2   0   4 11101.7 950.194   3
   2   0   5 388.062 208.581   3
   2   0   5 105.161 100.499   2
   2   0   5 128.175 86.0441   1
   2   0   6 98384.7 3102.60   2
   2   0   6 95505.5 3756.03   3
   2   0   7-81.6436 218.254   3
   2   0   8-343.616 284.303   3
   2  -2  -6 28227.4 1420.70   1
   2  -2  -6 29901.6 1045.22   2
   2   2  -5 20431.5 817.482   1
   2  -2  -5 21251.4 1171.00   1
   2  -2  -5 20625.7 1361.68   3
   2  -2  -4 190588. 4493.75   1
   2  -2  -4 191137. 4697.28   3
   2  -2  -3 8207.32 668.531   3
   2  -2  -3 9251.51 723.825   1
   2  -2  -2 9017.71 608.291   3
   2   2  -2 8936.12 617.061   2
   2   2  -1 57908.7 1865.27   2
   2   2   0 12076.2 802.907   2
   2  -2   1 64718.0 2119.10   1
   2  -2   1 64556.8 2289.65   2
   2   2   1 65250.1 2164.11   2
   2  -2   2 65815.3 2147.87   3
   2  -2   2 59096.4 2043.94   1
   2  -2   2 62489.0 2294.40   2
   2   2   2 64178.7 2236.36   2
   2   2   2 60358.0 1969.64   3
   2  -2   3 13091.6 834.604   1
   2  -2   3 12790.1 984.665   2
   2   2   3 11004.5 899.886   2
   2   2   3 11178.2 877.178   3
   2  -2   3 11974.7 940.643   3
   2   2   4 73602.9 2768.72   3
   2   2   4 69414.8 2594.49   1
   2  -2   4 72819.3 2606.91   2
   2   2   4 73702.9 2641.34   2
   2  -2   4 72181.7 2753.63   3
   2  -2   4 73026.9 2152.15   1
   2   2   5 8429.51 827.643   1
   2  -2   5 8978.39 840.060   2
   2  -2   5 9655.56 582.429   1
   2   2   5 7644.87 843.399   2
   2  -2   5 9576.27 1006.83   3
   2   2   5 9003.26 993.852   3
   2  -2   6 6988.86 732.671   2
   2  -2   6 7125.79 950.816   3
   2   2   6 6099.52 910.328   3
   2  -2   7 10291.9 1242.24   3
   2   2   7 10628.0 1292.68   3
   2  -4  -6 15133.6 1288.64   1
   2  -4  -6 14299.2 1065.49   2
   2   4  -6 15427.2 833.114   1
   2  -4  -5 1332.83 392.118   1
   2   4  -5 1172.33 252.494   1
   2   4  -4 71486.8 2433.78   1
   2  -4  -4 67935.8 2723.17   1
   2   4  -3 20177.4 1243.96   1
   2  -4  -3 22890.7 1457.74   1
   2  -4  -3 22245.5 1328.91   3
   2   4  -2 11885.3 959.084   1
   2  -4  -2 10545.2 869.175   3
   2   4  -1 5824.73 680.703   1
   2   4   0 139252. 4051.51   1
   2  -4   0 134560. 4000.66   1
   2   4   1 5524.20 715.655   1
   2  -4   1 5599.93 689.721   1
   2  -4   2 984.572 306.834   1
   2   4   2 485.450 251.932   1
   2  -4   3 19572.0 1439.45   2
   2   4   3 21772.6 1550.94   1
   2  -4   3 21063.5 1303.87   1
   2  -4   4 67880.4 2816.84   2
   2   4   4 66454.9 2929.55   1
   2  -4   4 63995.2 2337.55   1
   2  -4   4 66380.8 2870.98   3
   2  -4   5 3999.09 722.319   3
   2   4   5 3990.08 677.622   1
   2  -4   5 3879.17 632.877   2
   2   4   6 9379.79 1084.86   1
   2  -4   6 9714.93 1166.59   3
   2  -4   7-133.747 171.524   3
   2   6  -6 45750.3 2089.30   1
   2   6  -5 4519.75 668.221   1
   2   6  -4 11429.4 1091.69   1
   2   6  -3 28569.4 1787.47   1
   2   6  -2 70426.7 2987.52   1
   2   6  -1 1062.63 362.197   1
   2   6   0 959.568 379.332   1
   2   6   1 530.172 325.753   1
   2   6   2 89098.5 3720.04   1
   2   6   3 5342.19 886.760   1
   2   6   4 2238.36 580.632   1
   2  -6   5 3502.42 746.904   3
   2   6   5 2765.43 674.648   1
   2  -6   5 4345.28 799.265   2
   2   8  -5 16550.5 1574.44   1
   2   8  -4 5099.43 883.202   1
   2   8  -3 7185.30 1054.12   1
   2   8  -2 37784.1 2478.23   1
   2   8  -1 9635.50 1229.92   1
   2   8   0 33734.1 2375.01   1
   2   8   1 6881.68 1074.32   1
   2   8   2 15375.6 1676.00   1
   2   8   3 1169.83 483.419   1
   3  -1  -7 11164.3 779.353   1
   3   1  -7 10269.5 495.137   1
   3   1  -6 23813.0 1071.99   1
   3  -1  -6 21666.2 755.668   2
   3  -1  -6 20268.3 1149.89   1
   3  -1  -5 69620.6 1974.27   2
   3   1  -5 72309.0 1804.32   2
   3   1  -5 67746.6 2310.71   1
   3  -1  -5 73899.2 2664.68   3
   3  -1  -5 73323.8 2375.89   1
   3   1  -5 71644.1 2779.75   3
   3  -1  -4 5312.72 582.943   1
   3  -1  -4 6072.14 551.096   2
   3   1  -4 6134.58 479.947   2
   3  -1  -4 5442.11 581.989   3
   3  -1  -3 97865.5 2878.58   2
   3  -1  -3 104813. 3082.25   1
   3   1  -3 107198. 2698.46   2
   3  -1  -3 102932. 2690.82   3
   3  -1  -2 5895.47 611.160   2
   3   1  -2 5414.56 525.063   2
   3  -1  -2 4885.61 383.589   3
   3  -1  -1 100278. 3081.40   2
   3   1  -1 105476. 2938.04   2
   3  -1  -1 103758. 2144.69   3
   3   1   0 418.141 173.727   2
   3  -1   0 535.878 204.480   1
   3  -1   0 217.712 140.104   2
   3  -1   1 11432.6 974.641   2
   3   1   1 11364.2 918.765   2
   3  -1   1 11567.4 915.729   1
   3  -1   1 11988.3 643.016   3
   3   1   2 3658.73 550.789   2
   3  -1   2 3849.61 573.009   2
   3   1   2 4629.93 456.718   3
   3  -1   2 4317.22 557.326   1
   3  -1   2 4561.27 464.475   3
   3  -1   3 22272.7 1437.97   2
   3   1   3 23690.8 1487.58   2
   3  -1   3 24791.2 1381.09   1
   3  -1   3 22728.7 1258.94   3
   3   1   3 23542.9 1274.78   3
   3  -1   4 7449.34 834.328   2
   3  -1   4 8720.82 789.088   1
   3   1   4 9404.04 946.424   2
   3   1   4 8266.83 834.852   3
   3  -1   4 7665.37 804.332   3
   3  -1   5 15840.9 1263.50   2
   3   1   5 17706.8 1353.47   2
   3   1   5 17427.3 1374.50   3
   3  -1   5 16146.8 1313.67   3
   3   1   6 5646.62 858.956   3
   3  -1   6 5704.63 832.880   3
   3   1   7 26612.9 2044.02   3
   3  -1   7 25098.1 1959.81   3
   3  -3  -7 32232.1 1499.94   2
   3  -3  -7 30830.4 1761.87   1
   3   3  -7 31840.1 1078.96   1
   3  -3  -6 224.736 156.851   1
   3   3  -6 314.684 142.309   1
   3  -3  -5 30040.9 1692.76   1
   3  -3  -4 4312.32 565.603   3
   3  -3  -4 3474.40 552.303   1
   3   3  -3 131723. 3600.04   2
   3  -3  -3 133570. 3562.91   3
   3  -3  -3 134468. 3993.48   1
   3   3  -2 436.129 183.503   2
   3  -3  -2 416.471 155.030   3
   3   3  -1 19697.2 1229.25   2
   3  -3   0 23598.6 1428.88   1
   3   3   0 23441.7 1401.69   2
   3  -3   1 60706.5 2392.37   1
   3  -3   1 55150.7 2459.85   2
   3   3   1 54641.6 2321.36   2
   3   3   2 1.27393 131.715   2
   3  -3   2 15.6947 69.5234   1
   3  -3   3 9677.27 1005.04   2
   3   3   3 8078.84 914.581   2
   3  -3   3 7133.15 777.961   3
   3  -3   3 8267.18 814.143   1
   3  -3   4 5278.41 764.295   2
   3   3   4 5901.21 833.424   2
   3  -3   4 5084.73 607.948   1
   3   3   4 5372.50 788.315   1
   3  -3   4 5478.83 743.259   3
   3   3   5 30300.4 1956.05   1
   3  -3   5 35260.6 1997.10   2
   3   3   5 30729.6 2028.18   2
   3  -3   5 31746.7 1957.02   3
   3  -3   6 74.6498 227.687   3
   3   5  -6 1173.41 311.928   1
   3   5  -5 34059.1 1847.37   1
   3   5  -4 6288.43 787.428   1
   3   5  -3 23544.7 1567.91   1
   3   5  -2 26828.3 1717.31   1
   3  -5  -2 27776.0 1615.54   3
   3   5  -1 71697.7 3024.45   1
   3   5   0 1536.54 434.317   1
   3   5   1 15940.7 1431.74   1
   3   5   2 2448.14 566.932   1
   3  -5   3 20884.9 1718.92   2
   3   5   3 19052.6 1676.01   1
   3   5   4 3242.22 696.902   1
   3  -5   4 3366.44 664.424   3
   3  -5   4 2800.32 635.815   2
   3  -5   5 17831.3 1569.73   2
   3   5   5 14863.3 1546.21   1
   3  -5   5 15824.9 1513.32   3
   3  -5   6-235.950 219.558   3
   3   7  -5 40757.8 2394.39   1
   3   7  -4 158.082 174.380   1
   3   7  -3 8088.50 1065.56   1
   3   7  -2 1392.65 476.278   1
   3   7  -1 23374.1 1911.86   1
   3   7   0 15117.3 1552.50   1
   3   7   1 16297.6 1654.43   1
   3   7   2 1056.46 449.119   1
   3   7   3 44724.5 2960.05   1
   3  -7   4 355.863 131.087   3
   3   7   4-267.846 252.090   1
   3  -7   4-100.396 218.169   2
   3   9  -4 7.68944 105.236   1
   3   9  -3 18880.2 1901.57   1
   3   9  -2 299.567 255.124   1
   3   9  -1 6908.03 1171.33   1
   4   0  -6 1278.38 220.648   2
   4   0  -5 76.8293 120.560   3
   4   0  -5 154.622 117.368   2
   4   0  -4 65257.0 2213.95   2
   4   0  -4 65736.4 2261.07   3
   4   0  -3 52.1682 66.9217   3
   4   0  -3-26.7091 100.240   2
   4   0  -2 54196.3 2197.18   2
   4   0  -1-22.4550 106.529   2
   4   0   0 181668. 4983.08   2
   4   0   1 18.7031 40.6135   3
   4   0   1 172.356 199.250   2
   4   0   2 915.635 199.683   3
   4   0   2 1084.38 341.001   2
   4   0   3-14.6058 72.8818   3
   4   0   3-10.7007 114.303   2
   4   0   4 49342.4 2553.70   2
   4   0   4 53465.3 2239.32   3
   4   0   5 126.454 146.987   3
   4   0   5 43.2071 107.820   2
   4  -2  -7 14484.7 841.007   2
   4  -2  -7 15227.8 1179.11   1
   4  -2  -6 30052.4 1486.92   2
   4  -2  -6 30659.2 1743.07   1
   4  -2  -5 24178.0 1427.98   2
   4   2  -5 25434.3 1268.58   2
   4  -2  -5 26978.7 1525.23   3
   4  -2  -5 25609.3 1578.53   1
   4  -2  -4 43903.5 2101.08   1
   4  -2  -4 38000.7 1909.85   2
   4   2  -4 43042.0 1762.93   2
   4  -2  -4 43561.3 1804.25   3
   4  -2  -3 13846.2 1123.39   2
   4  -2  -3 14952.6 1191.42   1
   4   2  -3 13267.5 975.788   2
   4  -2  -3 15076.9 890.253   3
   4  -2  -2 57997.6 2494.11   2
   4   2  -2 56299.8 2256.23   2
   4  -2  -2 59545.9 1767.37   3
   4  -2  -1 27683.2 1690.82   2
   4  -2  -1 28621.9 1670.69   1
   4   2  -1 25674.0 1503.40   2
   4  -2  -1 26453.6 1015.20   3
   4  -2   0 43273.8 2206.99   2
   4  -2   0 48019.3 2236.25   1
   4   2   0 45021.1 2136.95   2
   4  -2   1 24930.1 1677.91   2
   4  -2   1 28416.5 1687.60   1
   4   2   1 22550.8 1556.73   2
   4  -2   1 24203.7 1105.34   3
   4  -2   2 64514.1 2905.88   2
   4  -2   2 73782.3 2882.46   1
   4   2   2 68119.6 2919.72   2
   4  -2   2 70188.6 2269.92   3
   4   2   3 4694.34 740.251   2
   4  -2   3 5251.85 697.805   1
   4  -2   3 5317.76 614.713   3
   4  -2   3 5019.88 777.307   2
   4  -2   4 1405.29 372.897   3
   4   2   4 1462.21 438.912   2
   4  -2   4 1683.72 444.386   2
   4   2   4 1852.50 429.432   3
   4   2   5 7153.45 994.413   2
   4   2   5 7304.11 926.825   3
   4  -2   5 6611.05 859.220   3
   4  -2   5 5835.56 852.112   2
   4  -4  -7 477.544 239.641   2
   4   4  -7 532.156 215.895   1
   4  -4  -3 32722.0 1654.90   3
   4   4  -3 32455.5 1807.78   2
   4  -4  -2 139774. 3824.81   3
   4   4  -2 136557. 4267.00   2
   4   4  -1 5234.24 733.678   2
   4  -4   0 13807.5 1322.94   2
   4   4   0 12925.7 1195.53   2
   4   4   1-8.06385 124.695   2
   4  -4   1-7.13814 177.277   2
   4  -4   2 38577.4 2359.24   2
   4   4   2 37998.9 2280.08   2
   4  -4   2 37007.4 1898.84   3
   4   4   3 5263.30 892.493   2
   4  -4   3 5937.34 907.484   2
   4  -4   3 5863.31 770.294   3
   4  -4   4 3518.76 633.425   3
   4   4   4 2559.06 634.360   2
   4  -4   4 2843.92 647.662   2
   4   4   4 2364.58 599.243   1
   4  -4   5 4615.38 772.693   3
   4  -4   5 3825.71 746.360   2
   4   6  -6 3808.36 687.566   1
   4   6  -5-228.608 173.032   1
   4   6  -4 80000.3 3468.31   1
   4   6  -3 5985.32 902.970   1
   4   6  -2 280.904 236.715   1
   4   6  -1 1540.68 474.340   1
   4   6   0 51555.6 2947.06   1
   4   6   1 1030.39 397.701   1
   4  -6   2 8786.57 1256.05   2
   4   6   2 4918.25 946.234   1
   4  -6   3 11105.8 1431.70   2
   4   6   3 10554.1 1441.32   1
   4  -6   3 11539.0 1283.58   3
   4  -6   4 29030.2 2348.65   2
   4   6   4 31490.2 2536.65   1
   4  -6   4 31643.0 2212.95   3
   4   8  -5 8126.42 1164.49   1
   4   8  -4 17404.4 1754.52   1
   4   8  -3 417.303 289.592   1
   4   8  -2 12913.5 1546.32   1
   4   8  -1 6708.50 1120.93   1
   4   8   0 14412.1 1695.83   1
   5  -1  -7 50754.9 1876.14   2
   5   1  -7 51116.6 1800.56   2
   5  -1  -7 49329.5 2453.77   1
   5   1  -6 630.460 231.743   2
   5  -1  -6 702.125 293.032   1
   5   1  -6 508.954 252.568   1
   5  -1  -6 242.620 155.391   2
   5  -1  -5 10462.2 1101.84   1
   5  -1  -5 9715.17 905.266   2
   5   1  -5 9346.39 839.868   2
   5  -1  -5 11136.5 951.337   3
   5   1  -4-3.27222 111.993   2
   5  -1  -4 52.5602 93.3356   3
   5  -1  -4 144.121 174.658   1
   5  -1  -4-158.659 152.828   2
   5  -1  -3 26127.9 1664.84   2
   5   1  -3 25087.0 1542.95   2
   5  -1  -3 28368.6 1827.87   1
   5  -1  -3 25628.1 1074.86   3
   5   1  -2 2801.65 536.987   2
   5  -1  -2 2255.77 517.033   1
   5  -1  -2 2977.92 581.555   2
   5  -1  -2 3189.45 251.980   3
   5  -1  -1 27904.7 1828.32   2
   5   1  -1 27820.0 1762.11   2
   5  -1   0 19973.7 1564.84   2
   5   1   0 18406.2 1472.85   2
   5  -1   1 59278.2 2865.55   2
   5   1   1 58252.4 2818.13   2
   5  -1   1 58997.9 1477.96   3
   5  -1   2 8301.22 1050.77   2
   5   1   2 6737.84 952.878   2
   5  -1   2 6940.10 548.954   3
   5  -1   3 16899.6 1546.86   2
   5   1   3 15952.2 1531.89   2
   5  -1   3 18479.8 1087.46   3
   5  -1   4-281.707 206.526   2
   5   1   4-55.8535 117.966   2
   5   1   5 14146.7 1492.02   2
   5  -3  -7 9342.84 958.948   2
   5  -3  -6 7302.11 905.343   2
   5   3  -6 7584.35 806.416   2
   5  -3  -5 47222.3 2424.46   2
   5   3  -5 41828.0 2058.75   2
   5  -3  -4 1665.43 357.257   3
   5   3  -4 1175.11 334.507   2
   5  -3  -4 1306.81 391.665   2
   5   3  -3 4118.30 634.940   2
   5  -3  -3 4012.47 510.628   3
   5  -3  -3 3700.22 692.714   2
   5   3  -2 3259.34 601.354   2
   5  -3  -2 3294.06 420.228   3
   5  -3  -2 2661.15 595.541   2
   5  -3  -1 49335.6 2627.45   2
   5   3  -1 52765.3 2532.20   2
   5  -3  -1 48041.8 1719.39   3
   5   3   0-39.5227 176.965   2
   5  -3   0 359.490 242.417   2
   5  -3   1 22461.6 1792.02   2
   5   3   1 21681.2 1717.00   2
   5  -3   1 22548.5 1192.94   3
   5  -3   2 157.007 112.776   3
   5  -3   2-34.0203 117.285   2
   5   3   3 38843.2 2538.96   2
   5  -3   3 43262.4 1957.69   3
   5   3   4 196.163 202.026   2
   5  -3   4-131.741 156.331   2
   5  -5  -7 27821.5 2128.36   2
   5   5  -7 35851.0 2125.48   1
   5  -5  -6 1127.99 426.423   2
   5  -5  -3 34805.6 2370.05   2
   5   5  -3 38102.2 2250.17   2
   5  -5  -2 10506.9 1281.17   2
   5  -5  -2 9921.53 952.496   3
   5   5  -2 11945.2 1252.45   2
   5  -5  -1 21843.4 1891.36   2
   5   5  -1 20007.2 1684.94   2
   5   5   0 840.907 388.668   2
   5  -5   0 652.587 342.685   2
   5  -5   1 22174.8 1983.04   2
   5   5   1 20812.1 1841.67   2
   5  -5   2 1003.29 333.017   3
   5   5   2 418.476 290.791   2
   5  -5   2 507.045 302.999   2
   5  -5   3 12082.9 1497.79   2
   5   5   3 9746.81 1363.62   2
   5   5   3 9347.32 1368.69   1
   5   5   4 10478.5 1478.83   1
   5  -5   4 11346.5 1441.96   2
   5   7  -6 11072.2 1355.02   1
   5   7  -5 16409.1 1684.59   1
   5   7  -4 2529.07 661.544   1
   5   7  -3 32651.6 2437.09   1
   5   7  -2-95.4735 153.683   1
   5   7  -1 3838.71 850.129   1
   5  -7   0 2201.98 698.958   2
   5   7   0 894.737 437.152   1
   5  -7   1 31210.1 2668.32   2
   6   0  -7 31.1796 78.1503   2
   6   0  -6 77225.0 2875.28   2
   6   0  -6 73837.2 3003.41   3
   6   0  -5 70.1801 112.720   2
   6   0  -4 1390.52 396.905   2
   6   0  -3 26.1796 219.555   2
   6   0  -2 89211.1 3643.18   2
   6   0  -1 317.271 233.624   2
   6   0   0 389.151 342.345   2
   6   0   1-81.0957 174.591   2
   6   0   2 48221.7 2853.34   2
   6   0   3 74.2450 122.536   2
   6   0   4 10195.1 1341.99   2
   6  -2  -7 14884.5 1224.21   2
   6   2  -7 17609.9 1236.36   2
   6  -2  -6 40081.1 2214.36   2
   6   2  -6 42484.6 2077.89   2
   6  -2  -5 18387.4 1543.30   2
   6   2  -5 20327.4 1451.47   2
   6  -2  -5 20699.9 1326.26   3
   6  -2  -4 48802.1 2621.65   2
   6   2  -4 51480.0 2474.41   2
   6  -2  -4 47197.2 1863.91   3
   6   2  -3 6431.91 865.716   2
   6  -2  -3 5662.39 491.324   3
   6  -2  -3 5542.30 871.846   2
   6   2  -2 659.810 294.196   2
   6  -2  -2 770.944 134.714   3
   6  -2  -2 244.372 219.194   2
   6   2  -1 9021.15 1115.13   2
   6  -2  -1 6481.85 983.123   2
   6  -2   0 33944.0 2292.94   2
   6   2   0 30493.5 2146.50   2
   6  -2   1 14870.7 1540.75   2
   6   2   1 16163.4 1593.50   2
   6  -2   2 19456.2 1798.60   2
   6   2   2 18157.1 1768.93   2
   6   2   3 5317.59 983.462   2
   6  -2   3 6090.01 1050.63   2
   6  -2   4 16286.2 1709.43   2
   6   2   4 13947.9 1643.50   2
   6  -4  -7 3338.56 714.384   2
   6   4  -6 1109.88 365.154   2
   6  -4  -6 1738.01 540.698   2
   6   4  -5 981.938 359.040   2
   6  -4  -5 554.534 308.361   2
   6  -4  -4 48649.3 2850.75   2
   6   4  -4 54963.0 2734.09   2
   6  -4  -3 7845.64 1119.14   2
   6   4  -3 7004.28 971.495   2
   6  -4  -3 8255.21 812.579   3
   6   4  -2 7873.69 1063.97   2
   6  -4  -2 6744.43 1053.08   2
   6   4  -1 2861.97 660.890   2
   6  -4  -1 2265.35 614.448   2
   6  -4   0 36865.7 2566.34   2
   6   4   0 36648.9 2497.81   2
   6   4   1 207.818 218.467   2
   6  -4   1 122.638 192.255   2
   6   4   2 909.081 432.085   2
   6  -4   2 614.510 347.683   2
   6  -4   3 8262.16 1258.32   2
   6  -6  -7 62.1727 118.197   2
   6  -6  -6 49167.1 3181.83   2
   6   6  -6 48189.7 2932.63   1
   6  -6  -5-312.783 259.593   2
   6  -6  -4 4076.29 908.257   2
   6  -6  -3 13924.9 1666.69   2
   6  -6  -2 36730.4 2765.18   2
   6   6  -2 29032.8 2265.32   2
   6   6  -1 6573.38 1080.91   2
   6  -6  -1 7029.57 1226.08   2
   6   6   0 3529.47 815.136   2
   6  -6   0 4988.81 1013.59   2
   7  -1  -7 7439.06 916.354   2
   7   1  -7 8576.75 933.271   2
   7   1  -6 5517.68 795.140   2
   7  -1  -6 5225.21 824.963   2
   7  -1  -5 46856.8 2608.45   2
   7   1  -5 41063.7 2364.19   2
   7  -1  -4 10554.2 1250.64   2
   7   1  -4 10713.0 1197.18   2
   7  -1  -3 25599.3 2032.53   2
   7   1  -3 26656.9 1992.54   2
   7   1  -2 4186.63 824.056   2
   7  -1  -2 3800.57 802.896   2
   7  -1  -1 25847.1 2104.29   2
   7   1  -1 23906.1 2005.76   2
   7   1   0 643.348 378.111   2
   7  -1   0 491.601 300.351   2
   7   1   1 2904.40 733.024   2
   7  -1   1 1597.29 547.733   2
   7  -1   2 20.9458 179.608   2
   7   1   2 56.8154 119.009   2
   7  -3  -7 31014.5 2141.16   2
   7   3  -7 28139.0 1900.48   2
   7   3  -6 212.624 174.351   2
   7  -3  -6 317.133 336.027   2
   7  -3  -5 10899.6 1341.19   2
   7   3  -5 12965.1 1314.95   2
   7   3  -4 1344.45 456.423   2
   7  -3  -4 1780.82 529.819   2
   7  -3  -3 45047.9 2840.55   2
   7   3  -3 47049.2 2731.50   2
   7   3  -2 2054.07 582.176   2
   7  -3  -2 3049.32 743.090   2
   7   3  -1 4036.98 829.772   2
   7  -3  -1 4054.18 857.083   2
   7   3   0 2546.12 686.322   2
   7  -3   0 3938.43 866.441   2
   7  -3   1 30256.8 2434.58   2
   7   3   1 24266.3 2197.64   2
   7  -5  -7 6455.50 1101.77   2
   7  -5  -6 27.3167 142.478   2
   7  -5  -5 19164.4 1969.66   2
   7   5  -5 16522.5 1649.43   2
   7   5  -4 411.830 286.142   2
   7  -5  -4 199.216 339.076   2
   7  -5  -3 16803.2 1849.96   2
   7   5  -3 18514.8 1798.97   2
   7   5  -2 5893.26 1041.22   2
   7  -5  -2 6610.41 1164.16   2
   7  -5  -1 22642.0 2190.78   2
   8   0  -7-247.196 201.912   2
   8   0  -6 2221.57 591.176   2
   8   0  -5 361.776 254.787   2
   8   0  -4 62098.8 3393.73   2
   8   0  -3 69.9853 260.462   2
   8   0  -2 10639.3 1421.66   2
   8   0  -1-557.476 337.900   2
   8   2  -7 6306.26 936.201   2
   8  -2  -7 4354.61 831.767   2
   8  -2  -6 23319.0 1994.49   2
   8   2  -6 20429.9 1754.55   2
   8  -2  -5 9985.04 1334.88   2
   8   2  -5 9591.13 1228.90   2
   8   2  -4 7554.92 1128.88   2
   8  -2  -4 6499.06 1109.54   2
   8   2  -3 5774.77 1030.24   2
   8  -2  -3 5176.13 999.068   2
   8  -2  -2 24168.2 2189.25   2
   8   2  -2 25268.1 2227.80   2
   8  -4  -7 275.162 351.503   2
   8  -4  -6 17454.5 1884.41   2
   8   4  -6 14518.2 1561.28   2
   8   4  -5-139.998 188.669   2
   8  -4  -5-138.463 215.557   2
   8   4  -4 3154.00 759.629   2
   8  -4  -4 3380.95 846.705   2
   9  -1  -7 14977.7 1627.46   2
   9  -1  -6 3103.22 770.991   2
   9   1  -6 3613.81 772.436   2
   9   1  -5 1009.54 443.994   2
   9  -1  -5 1964.68 651.646   2
   0   0   0    0.00    0.00   0

TITL cryst9-He-15K in Cc
REM Cc (#9 in standard setting)
CELL 0.71073   6.917271   7.630369   7.471019  90.0000 116.5125  90.0000
ZERR    4.00   0.000998   0.000809   0.000967   0.0000   0.0162   0.0000
LATT -7
SYMM  x,-y, z+1/2
SFAC H O S Co
UNIT 8.00 20.00 4.00 4.00
TREF
HKLF 4
END
;
_shelx_hkl_checksum              16274
loop_
_space_group_symop_operation_xyz
'x, y, z'
'-x, y, -z+1/2'
'x+1/2, y+1/2, z'
'-x+1/2, y+1/2, -z+1/2'
'-x, -y, -z'
'x, -y, z-1/2'
'-x+1/2, -y+1/2, -z'
'x+1/2, -y+1/2, z-1/2'
loop_
_atom_site_label
_atom_site_type_symbol
_atom_site_fract_x
_atom_site_fract_y
_atom_site_fract_z
_atom_site_U_iso_or_equiv
_atom_site_adp_type
_atom_site_occupancy
_atom_site_site_symmetry_order
_atom_site_calc_flag
_atom_site_refinement_flags_posn
_atom_site_refinement_flags_adp
_atom_site_refinement_flags_occupancy
_atom_site_disorder_assembly
_atom_site_disorder_group
Co Co 0.000000 0.500000 0.000000 0.0041(2) Uani 1 2 d S . P . .
S S 0.000000 0.15579(15) 0.250000 0.0042(3) Uani 1 2 d S T P . .
O1 O 0.1722(3) 0.0452(3) 0.4025(3) 0.0051(5) Uani 1 1 d . . . . .
O2 O 0.1006(3) 0.2687(3) 0.1558(3) 0.0058(5) Uani 1 1 d . . . . .
O3 O 0.000000 0.6373(5) 0.250000 0.0068(7) Uani 1 2 d S T P . .
H H 0.100(5) 0.697(5) 0.293(5) 0.008(10) Uiso 1 1 d . . . . .
loop_
_atom_site_aniso_label
_atom_site_aniso_U_11
_atom_site_aniso_U_22
_atom_site_aniso_U_33
_atom_site_aniso_U_23
_atom_site_aniso_U_13
_atom_site_aniso_U_12
Co 0.0045(3) 0.0025(4) 0.0049(4) 0.0002(2) 0.0019(3) -0.0002(2)
S 0.0046(5) 0.0026(6) 0.0050(5) 0.000 0.0019(4) 0.000
O1 0.0045(10) 0.0025(11) 0.0079(10) 0.0003(9) 0.0026(9) 0.0013(9)
O2 0.0060(10) 0.0034(12) 0.0084(10) 0.0019(8) 0.0036(9) 0.0003(9)
O3 0.0042(15) 0.0062(18) 0.0088(16) 0.000 0.0021(14) 0.000
loop_
_atom_type_symbol
_atom_type_description
_atom_type_scat_dispersion_real
_atom_type_scat_dispersion_imag
_atom_type_scat_source
O O 0.0106 0.0060 'International Tables Vol C Tables 4.2.6.8 and 6.1.1.4'
H H 0.0000 0.0000 'International Tables Vol C Tables 4.2.6.8 and 6.1.1.4'
S S 0.1246 0.1234 'International Tables Vol C Tables 4.2.6.8 and 6.1.1.4'
Co Co 0.3494 0.9721 'International Tables Vol C Tables 4.2.6.8 and 6.1.1.4'
loop_
_geom_angle_atom_site_label_1
_geom_angle_atom_site_label_2
_geom_angle_atom_site_label_3
_geom_angle
_geom_angle_site_symmetry_1
_geom_angle_site_symmetry_3
_geom_angle_publ_flag
O2 Co O2 180.0 5_565 . ?
O2 Co O1 85.48(8) 5_565 8_455 ?
O2 Co O1 94.53(8) . 8_455 ?
O2 Co O1 94.52(8) 5_565 4 ?
O2 Co O1 85.47(8) . 4 ?
O1 Co O1 180.0 8_455 4 ?
O2 Co O3 93.00(10) 5_565 5_565 ?
O2 Co O3 87.00(10) . 5_565 ?
O1 Co O3 93.44(6) 8_455 5_565 ?
O1 Co O3 86.56(6) 4 5_565 ?
O2 Co O3 87.00(10) 5_565 . ?
O2 Co O3 93.00(10) . . ?
O1 Co O3 86.56(6) 8_455 . ?
O1 Co O3 93.44(6) 4 . ?
O3 Co O3 180.0 5_565 . ?
O2 Co O2 81.75(3) 5_565 4 ?
O2 Co O2 98.25(3) . 4 ?
O1 Co O2 136.64(7) 8_455 4 ?
O1 Co O2 43.36(7) 4 4 ?
O3 Co O2 128.34(5) 5_565 4 ?
O3 Co O2 51.66(5) . 4 ?
O2 Co O2 98.25(3) 5_565 8_455 ?
O2 Co O2 81.75(3) . 8_455 ?
O1 Co O2 43.36(7) 8_455 8_455 ?
O1 Co O2 136.64(7) 4 8_455 ?
O3 Co O2 51.66(5) 5_565 8_455 ?
O3 Co O2 128.34(5) . 8_455 ?
O2 Co O2 180.00(6) 4 8_455 ?
O2 Co O2 137.16(7) 5_565 2 ?
O2 Co O2 42.84(7) . 2 ?
O1 Co O2 66.89(7) 8_455 2 ?
O1 Co O2 113.11(7) 4 2 ?
O3 Co O2 119.57(9) 5_565 2 ?
O3 Co O2 60.43(9) . 2 ?
O2 Co O2 96.10(5) 4 2 ?
O2 Co O2 83.90(5) 8_455 2 ?
O2 Co O2 42.84(7) 5_565 6_565 ?
O2 Co O2 137.16(7) . 6_565 ?
O1 Co O2 113.11(7) 8_455 6_565 ?
O1 Co O2 66.89(7) 4 6_565 ?
O3 Co O2 60.43(9) 5_565 6_565 ?
O3 Co O2 119.57(9) . 6_565 ?
O2 Co O2 83.90(5) 4 6_565 ?
O2 Co O2 96.10(5) 8_455 6_565 ?
O2 Co O2 180.00(7) 2 6_565 ?
O1 S O1 110.05(19) . 2 ?
O1 S O2 110.08(11) . 2 ?
O1 S O2 108.75(12) 2 2 ?
O1 S O2 108.75(12) . . ?
O1 S O2 110.08(11) 2 . ?
O2 S O2 109.11(19) 2 . ?
S O1 Co 136.45(14) . 4_545 ?
S O1 O2 35.81(7) . . ?
Co O1 O2 100.72(10) 4_545 . ?
S O1 O1 34.97(10) . 2 ?
Co O1 O1 140.09(15) 4_545 2 ?
O2 O1 O1 60.43(8) . 2 ?
S O1 O2 35.14(7) . 2 ?
Co O1 O2 144.62(12) 4_545 2 ?
O2 O1 O2 60.17(11) . 2 ?
O1 O1 O2 59.61(8) 2 2 ?
S O1 O2 128.08(13) . 4_545 ?
Co O1 O2 47.25(6) 4_545 4_545 ?
O2 O1 O2 109.75(8) . 4_545 ?
O1 O1 O2 102.90(9) 2 4_545 ?
O2 O1 O2 162.18(13) 2 4_545 ?
S O1 O3 170.44(13) . 7_556 ?
Co O1 O3 48.33(5) 4_545 7_556 ?
O2 O1 O3 146.59(11) . 7_556 ?
O1 O1 O3 150.10(8) 2 7_556 ?
O2 O1 O3 135.38(11) 2 7_556 ?
O2 O1 O3 61.48(7) 4_545 7_556 ?
S O1 O2 114.65(13) . 8_556 ?
Co O1 O2 42.73(6) 4_545 8_556 ?
O2 O1 O2 86.62(8) . 8_556 ?
O1 O1 O2 146.95(9) 2 8_556 ?
O2 O1 O2 103.33(9) 2 8_556 ?
O2 O1 O2 89.98(9) 4_545 8_556 ?
O3 O1 O2 62.34(8) 7_556 8_556 ?
S O1 O3 92.31(10) . 3_545 ?
Co O1 O3 44.70(5) 4_545 3_545 ?
O2 O1 O3 57.48(8) . 3_545 ?
O1 O1 O3 102.06(11) 2 3_545 ?
O2 O1 O3 114.81(11) 2 3_545 ?
O2 O1 O3 62.76(9) 4_545 3_545 ?
O3 O1 O3 93.03(8) 7_556 3_545 ?
O2 O1 O3 56.98(6) 8_556 3_545 ?
S O1 O2 126.43(12) . 6_556 ?
Co O1 O2 96.53(8) 4_545 6_556 ?
O2 O1 O2 161.72(11) . 6_556 ?
O1 O1 O2 102.08(9) 2 6_556 ?
O2 O1 O2 107.65(9) 2 6_556 ?
O2 O1 O2 77.91(8) 4_545 6_556 ?
O3 O1 O2 51.69(6) 7_556 6_556 ?
O2 O1 O2 110.40(8) 8_556 6_556 ?
O3 O1 O2 137.38(10) 3_545 6_556 ?
S O1 O2 111.97(12) . 7_556 ?
Co O1 O2 77.89(7) 4_545 7_556 ?
O2 O1 O2 108.14(9) . 7_556 ?
O1 O1 O2 139.45(11) 2 7_556 ?
O2 O1 O2 80.65(7) 2 7_556 ?
O2 O1 O2 117.13(10) 4_545 7_556 ?
O3 O1 O2 59.11(8) 7_556 7_556 ?
O2 O1 O2 45.00(7) 8_556 7_556 ?
O3 O1 O2 101.71(8) 3_545 7_556 ?
O2 O1 O2 81.30(5) 6_556 7_556 ?
S O1 O3 103.80(11) . 1_545 ?
Co O1 O3 96.92(8) 4_545 1_545 ?
O2 O1 O3 118.89(9) . 1_545 ?
O1 O1 O3 68.82(4) 2 1_545 ?
O2 O1 O3 118.25(10) 2 1_545 ?
O2 O1 O3 51.31(6) 4_545 1_545 ?
O3 O1 O3 82.21(7) 7_556 1_545 ?
O2 O1 O3 137.87(9) 8_556 1_545 ?
O3 O1 O3 106.77(9) 3_545 1_545 ?
O2 O1 O3 52.31(5) 6_556 1_545 ?
O2 O1 O3 132.74(8) 7_556 1_545 ?
S O2 Co 131.82(12) . . ?
S O2 O1 35.44(7) . . ?
Co O2 O1 161.18(12) . . ?
S O2 O2 35.45(9) . 2 ?
Co O2 O2 101.93(7) . 2 ?
O1 O2 O2 60.32(8) . 2 ?
S O2 O1 34.77(7) . 2 ?
Co O2 O1 118.48(10) . 2 ?
O1 O2 O1 59.95(11) . 2 ?
O2 O2 O1 59.51(8) 2 2 ?
S O2 O3 108.09(12) . 3_545 ?
Co O2 O3 119.86(10) . 3_545 ?
O1 O2 O3 73.83(9) . 3_545 ?
O2 O2 O3 130.22(11) 2 3_545 ?
O1 O2 O3 113.46(13) 2 3_545 ?
S O2 O1 160.43(13) . 4 ?
Co O2 O1 47.27(6) . 4 ?
O1 O2 O1 137.38(8) . 4 ?
O2 O2 O1 128.16(7) 2 4 ?
O1 O2 O1 162.18(13) 2 4 ?
O3 O2 O1 74.94(9) 3_545 4 ?
S O2 O3 136.09(12) . 5_565 ?
Co O2 O3 48.10(8) . 5_565 ?
O1 O2 O3 149.05(13) . 5_565 ?
O2 O2 O3 135.12(11) 2 5_565 ?
O1 O2 O3 101.79(10) 2 5_565 ?
O3 O2 O3 94.32(7) 3_545 5_565 ?
O1 O2 O3 61.07(8) 4 5_565 ?
S O2 O1 92.12(10) . 8_455 ?
Co O2 O1 42.75(6) . 8_455 ?
O1 O2 O1 127.49(11) . 8_455 ?
O2 O2 O1 73.17(9) 2 8_455 ?
O1 O2 O1 76.67(9) 2 8_455 ?
O3 O2 O1 156.61(9) 3_545 8_455 ?
O1 O2 O1 90.02(9) 4 8_455 ?
O3 O2 O1 62.48(6) 5_565 8_455 ?
S O2 O3 102.17(11) . . ?
Co O2 O3 44.95(5) . . ?
O1 O2 O3 117.12(9) . . ?
O2 O2 O3 66.72(5) 2 . ?
O1 O2 O3 116.47(9) 2 . ?
O3 O2 O3 126.62(11) 3_545 . ?
O1 O2 O3 63.19(7) 4 . ?
O3 O2 O3 93.05(8) 5_565 . ?
O1 O2 O3 56.86(6) 8_455 . ?
S O2 O1 95.37(12) . 6 ?
Co O2 O1 113.47(8) . 6 ?
O1 O2 O1 84.51(7) . 6 ?
O2 O2 O1 129.75(6) 2 6 ?
O1 O2 O1 72.35(9) 2 6 ?
O3 O2 O1 57.32(7) 3_545 6 ?
O1 O2 O1 102.09(8) 4 6 ?
O3 O2 O1 65.39(9) 5_565 6 ?
O1 O2 O1 110.40(8) 8_455 6 ?
O3 O2 O1 158.35(8) . 6 ?
S O2 O1 82.34(9) . 7_556 ?
Co O2 O1 94.82(9) . 7_556 ?
O1 O2 O1 71.86(9) . 7_556 ?
O2 O2 O1 61.83(8) 2 7_556 ?
O1 O2 O1 116.57(11) 2 7_556 ?
O3 O2 O1 87.35(7) 3_545 7_556 ?
O1 O2 O1 78.46(7) 4 7_556 ?
O3 O2 O1 137.30(11) 5_565 7_556 ?
O1 O2 O1 107.41(9) 8_455 7_556 ?
O3 O2 O1 54.22(5) . 7_556 ?
O1 O2 O1 142.18(7) 6 7_556 ?
Co O3 Co 122.16(17) . 2 ?
Co O3 O2 89.33(4) . 4 ?
Co O3 O2 111.79(5) 2 4 ?
Co O3 O2 111.79(5) . 3_455 ?
Co O3 O2 89.33(4) 2 3_455 ?
O2 O3 O2 136.37(17) 4 3_455 ?
Co O3 O1 45.11(6) . 8_455 ?
Co O3 O1 103.91(11) 2 8_455 ?
O2 O3 O1 133.11(6) 4 8_455 ?
O2 O3 O1 70.99(6) 3_455 8_455 ?
Co O3 O1 103.91(11) . 7_556 ?
Co O3 O1 45.11(6) 2 7_556 ?
O2 O3 O1 70.99(6) 4 7_556 ?
O2 O3 O1 133.11(6) 3_455 7_556 ?
O1 O3 O1 122.48(15) 8_455 7_556 ?
Co O3 O2 161.31(13) . 6_566 ?
Co O3 O2 44.90(5) 2 6_566 ?
O2 O3 O2 85.69(7) 4 6_566 ?
O2 O3 O2 83.78(7) 3_455 6_566 ?
O1 O3 O2 140.86(7) 8_455 6_566 ?
O1 O3 O2 57.46(6) 7_556 6_566 ?
Co O3 O2 44.90(5) . 5_565 ?
Co O3 O2 161.31(13) 2 5_565 ?
O2 O3 O2 83.78(7) 4 5_565 ?
O2 O3 O2 85.68(7) 3_455 5_565 ?
O1 O3 O2 57.46(6) 8_455 5_565 ?
O1 O3 O2 140.86(7) 7_556 5_565 ?
O2 O3 O2 151.40(16) 6_566 5_565 ?
Co O3 O2 42.06(7) . . ?
Co O3 O2 81.61(11) 2 . ?
O2 O3 O2 94.94(6) 4 . ?
O2 O3 O2 126.62(11) 3_455 . ?
O1 O3 O2 60.80(8) 8_455 . ?
O1 O3 O2 66.67(9) 7_556 . ?
O2 O3 O2 120.46(10) 6_566 . ?
O2 O3 O2 86.95(8) 5_565 . ?
Co O3 O2 81.61(11) . 2 ?
Co O3 O2 42.06(7) 2 2 ?
O2 O3 O2 126.62(11) 4 2 ?
O2 O3 O2 94.94(6) 3_455 2 ?
O1 O3 O2 66.67(9) 8_455 2 ?
O1 O3 O2 60.80(8) 7_556 2 ?
O2 O3 O2 86.95(8) 6_566 2 ?
O2 O3 O2 120.46(10) 5_565 2 ?
O2 O3 O2 46.56(9) . 2 ?
Co O3 O1 121.59(11) . 3_455 ?
Co O3 O1 41.86(4) 2 3_455 ?
O2 O3 O1 146.09(6) 4 3_455 ?
O2 O3 O1 48.69(6) 3_455 3_455 ?
O1 O3 O1 80.39(6) 8_455 3_455 ?
O1 O3 O1 86.97(8) 7_556 3_455 ?
O2 O3 O1 60.54(6) 6_566 3_455 ?
O2 O3 O1 127.21(5) 5_565 3_455 ?
O2 O3 O1 99.63(11) . 3_455 ?
O2 O3 O1 54.06(7) 2 3_455 ?
Co O3 O1 41.86(4) . 4 ?
Co O3 O1 121.59(11) 2 4 ?
O2 O3 O1 48.69(6) 4 4 ?
O2 O3 O1 146.09(6) 3_455 4 ?
O1 O3 O1 86.97(8) 8_455 4 ?
O1 O3 O1 80.39(6) 7_556 4 ?
O2 O3 O1 127.21(5) 6_566 4 ?
O2 O3 O1 60.54(6) 5_565 4 ?
O2 O3 O1 54.06(7) . 4 ?
O2 O3 O1 99.63(11) 2 4 ?
O1 O3 O1 153.58(16) 3_455 4 ?
Co O3 H 107(3) . . ?
Co O3 H 107(3) 2 . ?
O2 O3 H 19(3) 4 . ?
O2 O3 H 120(3) 3_455 . ?
O1 O3 H 147(3) 8_455 . ?
O1 O3 H 75(3) 7_556 . ?
O2 O3 H 72(3) 6_566 . ?
O2 O3 H 91(3) 5_565 . ?
O2 O3 H 113(3) . . ?
O2 O3 H 135(3) 2 . ?
O1 O3 H 131(3) 3_455 . ?
O1 O3 H 67(3) 4 . ?
Co O3 H 107(3) . 2 ?
Co O3 H 107(3) 2 2 ?
O2 O3 H 120(3) 4 2 ?
O2 O3 H 19(3) 3_455 2 ?
O1 O3 H 75(3) 8_455 2 ?
O1 O3 H 147(3) 7_556 2 ?
O2 O3 H 91(3) 6_566 2 ?
O2 O3 H 72(3) 5_565 2 ?
O2 O3 H 135(3) . 2 ?
O2 O3 H 113(3) 2 2 ?
O1 O3 H 67(3) 3_455 2 ?
O1 O3 H 131(3) 4 2 ?
H O3 H 107(6) . 2 ?
loop_
_geom_bond_atom_site_label_1
_geom_bond_atom_site_label_2
_geom_bond_distance
_geom_bond_site_symmetry_2
_geom_bond_publ_flag
Co O2 2.053(2) 5_565 ?
Co O2 2.053(2) . ?
Co O1 2.054(2) 8_455 ?
Co O1 2.054(2) 4 ?
Co O3 2.1654(17) 5_565 ?
Co O3 2.1654(17) . ?
Co O2 3.440(2) 4 ?
Co O2 3.440(2) 8_455 ?
Co O2 3.482(2) 2 ?
Co O2 3.482(2) 6_565 ?
S O1 1.472(2) . ?
S O1 1.472(2) 2 ?
S O2 1.485(2) 2 ?
S O2 1.485(2) . ?
O1 O2 2.403(3) . ?
O1 O1 2.412(4) 2 ?
O1 O2 2.423(3) 2 ?
O1 O2 2.787(3) 4_545 ?
O1 O3 2.894(3) 7_556 ?
O1 O2 3.017(3) 8_556 ?
O1 O3 3.073(2) 3_545 ?
O1 O2 3.251(3) 6_556 ?
O1 O2 3.276(3) 7_556 ?
O1 O3 3.338(4) 1_545 ?
O2 O2 2.420(4) 2 ?
O2 O3 2.698(2) 3_545 ?
O2 O3 2.905(2) 5_565 ?
O2 O3 3.061(4) . ?
O3 H 0.76(3) . ?
O3 H 0.76(3) 2 ?
loop_
_geom_hbond_atom_site_label_D
_geom_hbond_atom_site_label_H
_geom_hbond_atom_site_label_A
_geom_hbond_distance_DH
_geom_hbond_distance_HA
_geom_hbond_distance_DA
_geom_hbond_angle_DHA
_geom_hbond_site_symmetry_A
_geom_hbond_publ_flag
O3 H O2 0.76(3) 1.99(3) 2.698(2) 154(4) 4 yes
loop_
_geom_torsion_atom_site_label_1
_geom_torsion_atom_site_label_2
_geom_torsion_atom_site_label_3
_geom_torsion_atom_site_label_4
_geom_torsion
_geom_torsion_site_symmetry_1
_geom_torsion_site_symmetry_2
_geom_torsion_site_symmetry_3
_geom_torsion_site_symmetry_4
_geom_torsion_publ_flag
O1 S O1 Co 116.0(2) 2 . . 4_545 ?
O2 S O1 Co -124.15(19) 2 . . 4_545 ?
O2 S O1 Co -4.7(2) . . . 4_545 ?
O1 S O1 O2 120.66(11) 2 . . . ?
O2 S O1 O2 -119.48(19) 2 . . . ?
O2 S O1 O1 119.86(11) 2 . . 2 ?
O2 S O1 O1 -120.66(11) . . . 2 ?
O1 S O1 O2 -119.86(11) 2 . . 2 ?
O2 S O1 O2 119.48(19) . . . 2 ?
O1 S O1 O2 51.29(12) 2 . . 4_545 ?
O2 S O1 O2 171.15(17) 2 . . 4_545 ?
O2 S O1 O2 -69.37(17) . . . 4_545 ?
O1 S O1 O2 162.34(15) 2 . . 8_556 ?
O2 S O1 O2 -77.81(14) 2 . . 8_556 ?
O2 S O1 O2 41.68(15) . . . 8_556 ?
O1 S O1 O3 107.90(10) 2 . . 3_545 ?
O2 S O1 O3 -132.25(11) 2 . . 3_545 ?
O2 S O1 O3 -12.77(14) . . . 3_545 ?
O1 S O1 O2 -53.04(10) 2 . . 6_556 ?
O2 S O1 O2 66.81(18) 2 . . 6_556 ?
O2 S O1 O2 -173.70(12) . . . 6_556 ?
O1 S O1 O2 -148.49(14) 2 . . 7_556 ?
O2 S O1 O2 -28.64(15) 2 . . 7_556 ?
O2 S O1 O2 90.84(13) . . . 7_556 ?
O1 S O1 O3 -0.001(0) 2 . . 1_545 ?
O2 S O1 O3 119.85(11) 2 . . 1_545 ?
O2 S O1 O3 -120.66(11) . . . 1_545 ?
O1 S O2 Co -158.96(15) . . . . ?
O1 S O2 Co 80.4(2) 2 . . . ?
O2 S O2 Co -38.87(12) 2 . . . ?
O1 S O2 O1 -120.64(19) 2 . . . ?
O2 S O2 O1 120.09(11) 2 . . . ?
O1 S O2 O2 -120.09(11) . . . 2 ?
O1 S O2 O2 119.27(12) 2 . . 2 ?
O1 S O2 O1 120.64(19) . . . 2 ?
O2 S O2 O1 -119.27(12) 2 . . 2 ?
O1 S O2 O3 15.34(16) . . . 3_545 ?
O1 S O2 O3 -105.30(13) 2 . . 3_545 ?
O2 S O2 O3 135.43(12) 2 . . 3_545 ?
O1 S O2 O1 -80.6(4) . . . 4 ?
O1 S O2 O1 158.8(4) 2 . . 4 ?
O2 S O2 O1 39.5(3) 2 . . 4 ?
O1 S O2 O3 132.30(18) . . . 5_565 ?
O1 S O2 O3 11.7(2) 2 . . 5_565 ?
O2 S O2 O3 -107.60(19) 2 . . 5_565 ?
O1 S O2 O1 -176.61(11) . . . 8_455 ?
O1 S O2 O1 62.75(15) 2 . . 8_455 ?
O2 S O2 O1 -56.52(6) 2 . . 8_455 ?
O1 S O2 O3 -120.09(11) . . . . ?
O1 S O2 O3 119.27(12) 2 . . . ?
O2 S O2 O3 -0.001(0) 2 . . . ?
O1 S O2 O1 72.67(11) . . . 6 ?
O1 S O2 O1 -47.97(14) 2 . . 6 ?
O2 S O2 O1 -167.24(9) 2 . . 6 ?
O1 S O2 O1 -69.33(13) . . . 7_556 ?
O1 S O2 O1 170.03(11) 2 . . 7_556 ?
O2 S O2 O1 50.77(6) 2 . . 7_556 ?
