#------------------------------------------------------------------------------
#$Date: 2022-03-06 06:37:54 +0200 (Sun, 06 Mar 2022) $
#$Revision: 273468 $
#$URL: file:///home/coder/svn-repositories/cod/cif/1/56/59/1565959.cif $
#------------------------------------------------------------------------------
#
# This file is available in the Crystallography Open Database (COD),
# http://www.crystallography.net/
#
# All data on this site have been placed in the public domain by the
# contributors.
#
data_1565959
loop_
_publ_author_name
'Wildner, Manfred'
'Zakharov, Boris A.'
'Bogdanov, Nikita E.'
'Talla, Dominik'
'Boldyreva, Elena V.'
'Miletich, Ronald'
_publ_section_title
;
 Crystallography relevant to Mars and Galilean icy moons: crystal behavior
 of kieserite-type monohydrate sulfates at extraterrestrial conditions
 down to 15 K
;
_journal_issue                   2
_journal_name_full               IUCrJ
_journal_page_first              194
_journal_page_last               203
_journal_paper_doi               10.1107/S2052252521012720
_journal_volume                  9
_journal_year                    2022
_chemical_formula_sum            'H2 Ni O5 S'
_chemical_formula_weight         172.79
_space_group_crystal_system      monoclinic
_space_group_IT_number           15
_space_group_name_Hall           '-C 2yc'
_space_group_name_H-M_alt        'C 1 2/c 1'
_atom_sites_solution_hydrogens   difmap
_audit_creation_method           SHELXL-2018/3
_cell_angle_alpha                90
_cell_angle_beta                 117.51(2)
_cell_angle_gamma                90
_cell_formula_units_Z            4
_cell_length_a                   6.7979(11)
_cell_length_b                   7.6403(9)
_cell_length_c                   7.4489(12)
_cell_measurement_temperature    15(2)
_cell_volume                     343.14(11)
_computing_structure_refinement  'SHELXL-2018/3 (Sheldrick, 2018)'
_diffrn_ambient_temperature      15(2)
_diffrn_measured_fraction_theta_full 1.000
_diffrn_measured_fraction_theta_max 0.900
_diffrn_radiation_type           MoK\a
_diffrn_radiation_wavelength     0.71073
_diffrn_reflns_av_R_equivalents  0.0363
_diffrn_reflns_av_unetI/netI     0.0376
_diffrn_reflns_Laue_measured_fraction_full 1.000
_diffrn_reflns_Laue_measured_fraction_max 0.900
_diffrn_reflns_limit_h_max       9
_diffrn_reflns_limit_h_min       -5
_diffrn_reflns_limit_k_max       10
_diffrn_reflns_limit_k_min       -9
_diffrn_reflns_limit_l_max       8
_diffrn_reflns_limit_l_min       -10
_diffrn_reflns_number            1157
_diffrn_reflns_point_group_measured_fraction_full 1.000
_diffrn_reflns_point_group_measured_fraction_max 0.900
_diffrn_reflns_theta_full        25.242
_diffrn_reflns_theta_max         29.443
_diffrn_reflns_theta_min         4.292
_exptl_absorpt_coefficient_mu    6.138
_exptl_crystal_density_diffrn    3.345
_exptl_crystal_F_000             344
_refine_diff_density_max         0.883
_refine_diff_density_min         -0.659
_refine_diff_density_rms         0.160
_refine_ls_extinction_coef       0.033(3)
_refine_ls_extinction_expression Fc^*^=kFc[1+0.001xFc^2^\l^3^/sin(2\q)]^-1/4^
_refine_ls_extinction_method     'SHELXL-2018/3 (Sheldrick 2018)'
_refine_ls_goodness_of_fit_ref   1.107
_refine_ls_hydrogen_treatment    refall
_refine_ls_matrix_type           full
_refine_ls_number_parameters     40
_refine_ls_number_reflns         430
_refine_ls_number_restraints     0
_refine_ls_restrained_S_all      1.107
_refine_ls_R_factor_all          0.0280
_refine_ls_R_factor_gt           0.0260
_refine_ls_shift/su_max          0.000
_refine_ls_shift/su_mean         0.000
_refine_ls_structure_factor_coef Fsqd
_refine_ls_weighting_details
'w=1/[\s^2^(Fo^2^)+(0.0350P)^2^] where P=(Fo^2^+2Fc^2^)/3'
_refine_ls_weighting_scheme      calc
_refine_ls_wR_factor_gt          0.0641
_refine_ls_wR_factor_ref         0.0661
_reflns_Friedel_coverage         0.000
_reflns_number_gt                398
_reflns_number_total             430
_reflns_threshold_expression     'I > 2\s(I)'
_cod_data_source_file            lt5044.cif
_cod_data_source_block           NiSO4H2O_He_15K
_cod_depositor_comments
'Adding full bibliography for 1565934--1565967.cif.'
_cod_original_cell_volume        343.15(10)
_cod_original_sg_symbol_H-M      'C 2/c'
_cod_database_code               1565959
_shelx_shelxl_version_number     2018/3
_shelx_space_group_comment
;
The symmetry employed for this shelxl refinement is uniquely defined
by the following loop, which should always be used as a source of
symmetry information in preference to the above space-group names.
They are only intended as comments.
;
_shelx_res_file
;
TITL kieserite cell setting from literature
    crystal1-he-15k.res
    created by SHELXL-2018/3 at 13:23:20 on 15-Feb-2021
REM CELL meas. 0.71073 6.786974 7.634226 7.4404  90.0 117.51  90.0
REM latt corr for Nonius20C  +.0109 +.0061 +.0085         -.003
CELL 0.71073   6.797874   7.640326   7.4489  90.0000 117.507  90.0000
ZERR    4.00   0.001109   0.000854   0.001218   0.0000   0.0205   0.0000
LATT  7
SYMM -X, Y, 1/2-Z
SFAC O H S NI
UNIT 20 8 4 4
L.S. 6
OMIT -3 9 4
REM DAMP 10
BOND
CONF
CONN 12 1.8 $O
EQIV $9 -x+1/2, y+1/2, -z+1/2
BOND $H
FMAP 2
PLAN 20
ACTA
HTAB O3 O2_$9
HTAB
REM TEMP -258
REM SIZE 0.34 0.17 0.12
REM ISOR 0.005 O3
WGHT    0.035000
EXTI    0.032736
FVAR       7.75102
NI    4    0.000000    0.500000    0.000000    10.50000    0.00726    0.00687 =
         0.00925   -0.00008    0.00407   -0.00018
S     3    0.000000    0.157720    0.250000    10.50000    0.00746    0.00721 =
         0.00918    0.00000    0.00409    0.00000
O1    1    0.172670    0.048001    0.405018    11.00000    0.00909    0.00926 =
         0.01180    0.00134    0.00473   -0.00034
O2    1    0.105145    0.271002    0.155623    11.00000    0.00877    0.00821 =
         0.00996    0.00089    0.00560   -0.00033
O3    1    0.000000    0.630150    0.250000    10.50000    0.00859    0.00991 =
         0.01099    0.00000    0.00405    0.00000
H     2    0.112668    0.695726    0.296127    11.00000    0.01366
HKLF 4 1   -1 0 0  0 -1 0  1 0 1




REM  kieserite cell setting from literature
REM wR2 = 0.0661, GooF = S = 1.107, Restrained GooF = 1.107 for all data
REM R1 = 0.0260 for 398 Fo > 4sig(Fo) and 0.0280 for all 430 data
REM 40 parameters refined using 0 restraints

END

WGHT      0.0351      0.0000

REM Instructions for potential hydrogen bonds
EQIV $5 x+1/2, y+1/2, z
HTAB O3 S_$5
HTAB O3 O2_$9

REM Highest difference peak  0.883,  deepest hole -0.659,  1-sigma level  0.160
Q1    1  -0.0425  0.4949  0.0974  11.00000  0.05    0.88
Q2    1   0.0503  0.1721  0.1475  11.00000  0.05    0.69
Q3    1   0.2448  0.0000  0.3173  11.00000  0.05    0.54
Q4    1   0.2240  0.1212  0.4245  11.00000  0.05    0.46
Q5    1   0.2136  0.2430  0.1655  11.00000  0.05    0.46
Q6    1   0.1484  0.5023  0.0573  11.00000  0.05    0.46
Q7    1   0.0196 -0.0882  0.4428  11.00000  0.05    0.43
Q8    1  -0.0384  0.5809  0.1738  11.00000  0.05    0.41
Q9    1   0.1248  0.0913  0.4574  11.00000  0.05    0.40
Q10   1   0.0518  0.2405 -0.0175  11.00000  0.05    0.40
Q11   1   0.2493  0.0815  0.5561  11.00000  0.05    0.40
Q12   1   0.1145  0.0021  0.5428  11.00000  0.05    0.38
Q13   1   0.0784  0.0165  0.1574  11.00000  0.05    0.38
Q14   1   0.2193 -0.1037  0.4227  11.00000  0.05    0.36
Q15   1   0.2721  0.1708  0.4045  11.00000  0.05    0.36
Q16   1  -0.0588  0.4063  0.0478  11.00000  0.05    0.36
Q17   1  -0.1217  0.2450  0.0034  11.00000  0.05    0.36
Q18   1  -0.0990  0.5531  0.3051  11.00000  0.05    0.34
Q19   1   0.1558  0.1237  0.0914  11.00000  0.05    0.34
Q20   1   0.1151  0.4471  0.1830  11.00000  0.05    0.34
;
_shelx_res_checksum              2061
_shelx_hkl_file
;
   0   0  -2 19470.6 1000.25   2
   0   0   2 15956.4 984.495   1
   0   0   2 15510.3 1419.54   3
   0   0   3 122.218 244.444   3
   0   0   3 31.3579 156.980   1
   0   0  -3 154.757 128.992   2
   0   0  -4 315208. 6691.33   2
   0   0   4 331603. 9864.67   3
   0   0  -4 325303. 10180.9   3
   0   0   4 301315. 7412.61   1
   0   0   5 190.492 211.766   1
   0   0  -5 208.085 162.959   2
   0   0  -5 268.686 567.836   3
   0   0  -6 16462.2 2577.39   3
   0   0  -6 15242.5 1188.84   2
   0   0   6 18327.3 1594.35   1
   0   0   7-174.800 259.442   1
   0   0  -7 504.588 572.114   3
   0   0  -8 204434. 10664.3   3
   0   2   0 232286. 5988.72   1
   0   2   1 342170. 7627.88   1
   0   2   1 354678. 8249.65   3
   0  -2  -1 344306. 7997.60   1
   0  -2  -1 361580. 7932.30   3
   0   2  -1 329233. 8037.29   1
   0  -2   2 886201. 16370.6   3
   0  -2   2 873503. 17623.7   1
   0   2   2 934909. 16462.2   1
   0   2   2 914873. 17057.1   2
   0   2  -2 909836. 17627.4   1
   0  -2   3 76575.2 3630.96   3
   0   2   3 69508.1 4211.75   3
   0  -2   3 79451.6 3823.81   1
   0   2  -3 69404.7 3628.08   3
   0   2  -3 74350.3 3494.83   1
   0   2   3 71864.7 3076.90   1
   0   2   3 68236.8 2707.44   2
   0   2   4 172035. 4064.07   2
   0   2   4 139975. 7140.97   3
   0   2  -4 160934. 6512.41   3
   0   2   4 160308. 5162.24   1
   0   2  -4 174175. 5768.44   2
   0  -2   4 188156. 6664.77   3
   0  -2   5 124709. 5968.85   3
   0   2   5 97709.3 3784.33   1
   0  -2  -5 109353. 6154.09   3
   0   2  -5 114754. 6039.53   3
   0   2  -5 111530. 4522.55   2
   0   2   6 50817.7 2193.35   1
   0   2  -6 68265.5 5179.46   3
   0  -2  -6 62597.3 4977.14   3
   0  -2   6 66563.5 3819.75   1
   0   2  -6 61779.3 3213.57   2
   0  -2  -7 71867.6 5777.38   3
   0  -2   7 82657.2 4502.61   1
   0  -2  -8 26052.0 3670.01   3
   0   2  -8 15800.8 3203.58   3
   0  -4   0 343626. 7968.96   3
   0   4   0 357861. 10012.6   1
   0  -4  -1 137.921 200.199   3
   0  -4  -1 419.580 385.296   1
   0   4  -1 551.003 389.734   1
   0   4   2 568866. 12828.0   1
   0  -4  -2 543183. 14132.3   1
   0  -4   2 558176. 11030.7   3
   0  -4   3 159016. 6897.95   1
   0   4   3 152479. 6206.14   2
   0  -4   3 150719. 5104.15   3
   0   4   3 143487. 5198.00   1
   0   4  -3 170333. 6841.00   1
   0  -4  -3 150455. 6423.68   3
   0  -4   4 4799.25 1208.65   1
   0   4  -4 5974.38 1258.50   1
   0  -4   4 4154.87 909.850   3
   0   4   4 3958.05 917.901   2
   0   4   4 3115.30 680.702   1
   0  -4  -4 3965.90 1195.00   3
   0  -4   5 41577.8 3164.68   3
   0   4   5 41881.9 2281.66   2
   0  -4   5 39492.9 3511.69   1
   0  -4  -5 41457.0 3845.98   3
   0   4   5 38978.4 2280.51   1
   0  -4   6 489646. 13464.0   1
   0  -4  -6 301135. 12566.1   3
   0  -4  -7 6731.34 1807.13   3
   0  -4   7 6691.79 1499.49   1
   0  -6   0 280314. 10332.4   1
   0  -6   0 283513. 7573.72   3
   0  -6   1 25777.6 1680.00   3
   0   6   1 25872.5 2684.07   1
   0  -6   1 21872.6 2735.59   1
   0  -6  -1 25751.3 2918.00   1
   0  -6   2 49509.4 4189.37   1
   0   6   2 54716.3 3853.93   1
   0  -6  -2 47108.6 3306.12   3
   0  -6  -2 49289.6 4249.26   1
   0  -6   2 54307.6 2276.33   3
   0  -6   3 61319.6 4767.33   1
   0  -6  -3 54225.5 3927.95   3
   0  -6   3 58298.6 2643.29   3
   0   6   3 59083.1 3827.58   1
   0  -6   4 368277. 12756.6   1
   0  -6  -4 332041. 11678.9   3
   0   6   4 355920. 10108.3   1
   0  -6   4 350233. 8723.28   3
   0   6   4 322316. 10941.2   2
   0  -6   5 905.218 668.917   1
   0  -6  -5-2.82785 219.242   3
   0   6   5 202.997 285.687   2
   0  -6  -6 9023.17 2008.27   3
   0  -6   6 7805.49 1787.73   1
   0  -6   7 541.299 534.166   1
   0  -8   0 117973. 7305.70   1
   0  -8   0 123324. 4434.95   3
   0  -8   1 103538. 6843.00   1
   0  -8  -1 103165. 4633.88   3
   0  -8  -1 99116.2 6739.93   1
   0  -8  -2 59152.9 5216.33   1
   0  -8  -2 56638.0 3807.23   3
   0  -8   2 64226.6 5386.91   1
   0  -8   3 12298.3 2414.35   1
   0  -8  -3 9696.05 1730.89   3
   0  -8  -4 102300. 6106.44   3
   0  -8   4 108643. 7366.52   1
   0   8   4 102810. 6526.71   2
   0  -8  -5 7407.90 1751.54   3
   0 -10  -1 9996.52 2329.91   1
   0 -10  -2 127879. 8349.43   1
   1   1  -8 1501.25 1151.55   3
   1  -1  -8 643.221 734.865   3
  -1  -1   8 229.305 321.020   1
   1   1  -7 234579. 6942.75   2
   1  -1  -7 231415. 10385.5   3
  -1  -1   7 246328. 7539.54   1
  -1  -1   6 4595.12 1030.68   1
   1   1  -6 5375.48 1465.63   3
   1  -1  -6 3725.24 778.079   2
   1  -1  -6 7223.21 1660.45   3
   1   1  -6 5068.17 896.321   2
   1   1  -5 136963. 4965.99   2
   1  -1  -5 128388. 6503.51   3
  -1   1   5 137261. 4451.36   2
  -1  -1   5 127988. 6545.20   3
   1   1  -5 140336. 6885.68   3
  -1   1   5 139417. 6351.99   3
   1  -1  -5 136254. 4868.32   2
  -1   1   4 42835.6 2354.14   2
   1  -1  -4 41616.7 2430.94   2
   1   1  -4 42377.7 2514.50   2
   1   1  -4 45195.7 3413.28   3
  -1  -1   4 41916.2 2590.96   1
  -1  -1   4 41302.2 2950.09   3
  -1   1   4 41315.9 3038.51   3
   1   1  -3 131642. 4421.35   2
   1  -1  -3 124797. 4288.79   2
  -1   1   3 121828. 4796.55   3
  -1  -1   3 123329. 4848.07   3
  -1   1   3 129327. 4186.94   2
   1  -1  -2 218417. 6124.24   2
   1   1  -2 232701. 5931.10   2
  -1   1   2 221419. 5991.43   2
  -1   1   1 276601. 5626.91   3
   1  -1  -1 277349. 7087.31   2
   1   1  -1 266597. 6198.34   2
   1   1   0 169597. 4039.90   2
  -1   1   0 174114. 5235.43   1
   1   1   1 776007. 12731.2   2
   1  -1   1 787107. 14577.0   1
  -1   1  -1 774166. 14320.0   1
  -1   1  -1 798213. 14270.6   3
  -1   1  -2 27305.3 1633.62   1
   1  -1   2 24981.8 1901.27   3
   1   1   2 24032.9 2221.71   3
  -1   1  -2 23704.7 1933.16   3
   1  -1   2 24226.6 1637.36   1
   1   1   3 479936. 12441.3   3
  -1   1  -3 450009. 11754.2   3
   1  -1   3 449757. 9781.84   1
  -1   1  -3 442029. 9287.50   1
   1  -1   3 414374. 11622.4   3
  -1   1  -4 6874.09 1433.44   3
   1  -1   4 8808.78 1594.23   3
   1  -1   4 9627.70 1147.35   1
   1   1   4 12147.9 1868.15   3
  -1   1  -4 9272.39 934.496   2
  -1  -1  -4 9138.80 1716.04   3
  -1   1  -5 229115. 5705.73   2
  -1   1  -5 237592. 9762.46   3
  -1  -1  -5 227254. 9635.93   3
   1  -1   5 256027. 7062.07   1
   1  -1   6 25134.7 1972.36   1
  -1   1  -6 20962.0 3000.72   3
  -1  -1  -6 23755.4 3303.30   3
  -1  -1  -7 26014.9 3627.65   3
  -1   1  -7 24976.8 3515.52   3
  -1   1  -8 28516.6 3937.16   3
   1  -3  -8 5721.54 1707.78   3
  -1  -3   8 6678.78 1370.74   1
   1  -3  -7 35530.5 3946.38   3
  -1  -3   7 41251.7 3379.98   1
   1   3  -6 29102.0 2607.36   2
   1  -3  -6 25596.4 3124.01   3
  -1  -3   6 30036.1 2798.26   1
  -1   3   6 29080.3 1968.04   2
  -1  -3   5 334550. 10060.3   3
   1   3  -5 331354. 9727.25   2
  -1  -3   5 305253. 9716.65   1
  -1   3   5 319760. 8480.96   2
  -1   3   5 303851. 10029.6   1
   1  -3  -5 294707. 10681.0   3
   1  -3  -4 46051.4 3554.32   3
  -1  -3   4 48780.2 3202.30   3
  -1   3   4 49995.7 3661.04   1
  -1  -3   4 47553.3 3335.68   1
  -1   3   4 44652.9 3043.70   2
   1   3  -4 51731.8 3390.63   2
  -1   3   4 44875.8 3483.28   3
  -1   3   3 106814. 4952.88   3
  -1   3   3 114439. 5551.33   1
  -1  -3   3 110090. 4566.25   3
  -1   3   3 113627. 5482.17   2
   1   3  -3 116376. 5150.66   1
   1   3  -2 197700. 6601.14   1
  -1   3   2 187576. 7091.56   1
  -1   3   2 189882. 7254.11   2
   1  -3  -2 174163. 5814.33   3
  -1   3   1 380228. 10459.8   1
   1   3  -1 384754. 9493.14   1
   1  -3  -1 398502. 7934.00   3
  -1  -3   0 17099.8 1603.28   1
  -1   3   0 18361.5 1921.40   1
   1   3   0 18513.4 1659.12   1
  -1  -3  -1 312095. 8953.34   3
  -1  -3  -1 294948. 7458.86   1
   1   3   1 315135. 7600.75   1
  -1  -3  -2 9852.60 1146.10   1
   1  -3   2 11115.0 1051.86   3
   1   3   2 12365.1 1097.42   1
  -1   3  -2 12469.3 1184.19   3
  -1   3  -2 12732.8 1627.46   1
   1  -3   3 588044. 13057.0   3
  -1   3  -3 643134. 13449.0   3
  -1  -3  -3 608986. 15453.1   3
   1   3   3 515773. 10789.6   1
   1   3   3 609997. 11641.1   2
  -1   3  -3 707629. 14927.2   1
  -1   3  -4 761.012 536.958   3
   1  -3   4 1119.38 528.408   3
   1  -3   4 1104.81 595.998   1
  -1   3  -4 640.452 430.083   1
  -1  -3  -4 229.413 433.267   3
   1  -3   5 54184.8 4397.45   3
  -1  -3  -5 44373.3 4179.98   3
  -1   3  -5 59158.6 3622.49   1
   1  -3   5 48661.9 3653.13   1
  -1   3  -5 46297.7 3882.43   3
  -1   3  -6 2185.56 1022.37   3
   1  -3   6 3083.32 935.793   1
  -1  -3  -6 1883.26 878.488   3
  -1   3  -7 49272.5 5248.26   3
  -1  -3  -7 92163.4 6868.83   3
  -1  -5   8 30481.9 3397.61   1
  -1  -5   7 151705. 7516.20   1
   1  -5  -7 140047. 8153.46   3
  -1  -5   6 5593.14 1415.78   1
  -1   5   6 6880.85 1165.21   2
   1  -5  -6 7240.14 1748.20   3
  -1  -5   5 72913.1 4989.45   1
   1  -5  -5 73735.9 5067.83   3
  -1   5   5 70375.5 4232.41   2
  -1  -5   5 62904.8 3815.52   3
  -1   5   4 35562.6 3368.70   2
  -1   5   4 38611.6 3632.64   3
  -1  -5   4 39787.7 3605.15   1
   1  -5  -4 33534.7 3142.20   3
  -1   5   4 31026.7 2824.93   1
  -1  -5   4 32336.2 2515.77   3
  -1  -5   3 212109. 8554.28   1
  -1   5   3 201271. 8813.35   2
  -1  -5   3 228350. 7193.03   3
  -1   5   3 208163. 8033.76   1
   1  -5  -3 206749. 7478.56   3
  -1   5   3 217450. 8769.40   3
   1  -5  -2 9148.94 1250.91   3
   1   5  -2 9896.58 1650.72   1
   1  -5  -2 7358.17 1569.53   1
  -1  -5   2 9104.36 1618.97   1
  -1   5   2 7785.33 1526.63   1
   1  -5  -1 233921. 9582.40   1
  -1  -5   1 239058. 8753.81   1
  -1   5   1 235425. 9139.65   1
   1   5  -1 253325. 9027.43   1
  -1   5   0 10315.0 1799.62   1
  -1  -5   0 4627.35 990.940   3
  -1  -5   0 10131.0 1581.16   1
   1   5   0 10891.6 1602.98   1
   1  -5   0 9975.18 1794.49   1
  -1   5  -1 402988. 12609.1   1
   1  -5   1 379206. 12413.4   1
  -1  -5  -1 385076. 11065.0   1
   1   5   1 423398. 11013.4   1
   1   5   2 94968.4 4431.29   1
  -1  -5  -2 94700.1 4868.91   1
   1  -5   2 98644.7 5845.02   1
   1  -5   3 56624.0 2517.25   3
   1   5   3 66322.7 3457.47   1
   1  -5   3 61690.2 4671.58   1
  -1  -5  -3 53328.1 4076.38   3
  -1  -5  -4 104617. 6182.73   3
   1  -5   4 111021. 6350.66   1
   1   5   4 96294.8 4190.60   2
   1  -5   4 108788. 4383.54   3
  -1  -5  -5 166417. 8734.09   3
   1  -5   5 192356. 8725.04   1
  -1  -5  -6 1002.50 727.325   3
   1  -5   6 383.802 549.148   1
   1  -7  -6 47502.3 4447.36   3
  -1  -7   6 51616.8 4700.71   1
   1  -7  -5 59935.1 4726.89   3
  -1   7   5 50689.9 4223.04   2
  -1  -7   5 57321.1 4892.18   1
  -1   7   4 2164.88 1010.69   2
   1  -7  -4 1393.17 729.938   3
  -1  -7   4 1248.68 934.985   1
   1  -7  -3 364663. 10957.5   3
  -1   7   3 357325. 13664.1   2
  -1  -7   3 388055. 13253.0   1
  -1  -7   2 249.304 488.137   1
   1  -7  -2 1304.44 971.757   1
   1  -7  -1 57603.7 2742.29   3
   1  -7  -1 48707.1 4747.64   1
  -1  -7   1 51919.2 4325.56   1
  -1  -7   0 57324.5 3614.43   3
   1  -7   0 60698.2 5114.51   1
  -1  -7   0 64053.2 4756.14   1
   1  -7   1 172135. 8871.17   1
  -1  -7  -1 173144. 8055.35   1
  -1  -7  -1 178268. 7358.05   3
  -1  -7  -2 26540.3 2811.51   3
   1  -7   2 32421.4 3799.94   1
  -1  -7  -2 34267.4 3478.50   1
  -1  -7  -3 68860.9 4753.05   1
   1  -7   3 76973.0 5950.44   1
  -1  -7  -3 66321.8 4724.30   3
  -1  -7  -4 11825.3 2093.52   3
   1   7   4 10492.4 1688.77   2
   1  -7   4 13497.8 2526.23   1
  -1  -7  -5 82912.5 6111.46   3
   1  -7   5 100539. 7139.70   1
   1  -7   6 20418.9 3270.02   1
  -1   9   4 1339.43 925.677   2
  -1  -9   3 13175.7 2652.36   1
  -1   9   3 15469.5 2996.39   2
  -1  -9   2 2802.92 1137.61   1
   1  -9  -2 3433.57 1366.37   1
   1  -9  -1 315064. 13801.6   1
  -1  -9   1 304852. 12413.5   1
   1  -9   0 9175.85 2207.45   1
  -1  -9   0 7760.43 1810.52   1
   1  -9   1 9174.23 2254.01   1
  -1  -9  -1 8907.94 2034.82   1
  -1  -9  -2 115.243 280.591   3
   1  -9   2 285.883 475.013   1
  -1  -9  -2-446.693 502.005   1
  -1  -9  -3 63464.6 4755.61   3
  -1  -9  -4 114.790 353.929   3
  -2   0   8 32796.4 2700.41   1
   2   0  -7 477.855 301.434   2
  -2   0   7-327.556 310.319   1
   2   0  -6 761813. 16332.4   2
  -2   0   5-263.880 408.117   3
   2   0  -5 464.957 363.861   2
  -2   0   4 5850.41 1053.59   2
   2   0  -4 5361.49 971.129   2
  -2   0   4 6393.29 1182.70   3
  -2   0   3 491.124 317.259   2
  -2   0   3 272.266 296.361   3
   2   0  -3 85.7869 190.397   2
   2   0  -2 964277. 18167.5   2
   2   0  -1 429.630 296.024   2
  -2   0   0 7683.42 938.031   2
   2   0   0 8534.72 1059.17   2
  -2   0  -1 22.4462 147.380   2
  -2   0  -1 296.809 263.052   1
  -2   0  -2 469112. 12521.4   3
  -2   0  -2 464395. 8821.40   1
  -2   0  -2 472944. 9008.87   2
  -2   0  -3 262.355 420.026   3
  -2   0  -3-14.9338 80.6573   2
  -2   0  -4 59276.2 4513.64   3
  -2   0  -5 592.930 583.738   3
  -2   0  -6 476700. 16275.3   3
  -2   0  -7-8.08411 656.886   3
   2  -2  -8 82668.0 6537.13   3
  -2  -2   8 99507.0 5191.18   1
   2  -2  -7 65732.5 5280.97   3
  -2  -2   7 72096.3 4546.57   1
   2  -2  -7 72577.9 4112.94   2
   2  -2  -6 119624. 6663.99   3
  -2  -2   6 136092. 6037.14   1
   2  -2  -6 121843. 5643.92   2
   2   2  -6 136172. 5785.00   2
   2   2  -5 94893.5 4691.52   2
  -2  -2   5 90061.9 5022.74   3
  -2   2   5 90164.2 4995.11   3
  -2  -2   5 90040.5 4729.18   1
   2  -2  -5 84315.1 5104.42   3
   2  -2  -5 87721.2 4682.04   2
  -2  -2   4 856248. 18316.4   3
   2   2  -4 825642. 17919.4   2
  -2   2   4 846362. 18223.7   2
  -2   2   4 815826. 18269.7   3
   2  -2  -4 862116. 18624.1   2
   2   2  -3 39327.9 2731.88   2
   2  -2  -3 43672.9 3084.79   3
  -2   2   3 35745.1 2500.94   3
  -2   2   3 33975.2 2873.60   2
   2  -2  -3 38362.4 2988.07   2
   2   2  -2 81577.9 3817.59   2
   2  -2  -2 82653.7 4546.59   2
  -2   2   2 88825.4 3445.75   3
  -2  -2   1 323716. 8045.79   1
   2   2  -1 327220. 8203.04   2
  -2   2   1 323953. 10440.7   1
  -2   2   0 83187.3 4496.13   1
   2   2   0 77024.3 3184.15   2
  -2  -2   0 79683.8 3004.44   1
   2  -2   1 356347. 10241.4   1
   2   2   1 348172. 7606.99   2
  -2  -2  -1 351649. 7112.41   1
  -2   2  -1 353890. 9633.53   1
  -2   2  -1 365964. 8343.08   3
   2  -2   2 343966. 9702.04   1
   2   2   2 331426. 6567.47   2
  -2   2  -2 327970. 8875.55   3
  -2   2  -2 336694. 9098.21   1
  -2   2  -3 63235.2 3292.12   1
   2  -2   3 55872.6 3451.33   1
  -2   2  -3 59489.5 3893.85   3
  -2  -2  -3 56508.7 4474.00   3
  -2  -2  -4 365549. 12586.4   3
  -2   2  -4 375868. 9526.21   1
   2  -2   4 377393. 11878.9   3
  -2   2  -4 398909. 12220.8   3
  -2   2  -5 47838.6 2622.38   2
  -2   2  -5 45384.6 4158.51   3
  -2  -2  -5 44590.1 4343.01   3
  -2   2  -5 47676.4 3099.44   2
  -2  -2  -6 40155.6 4379.53   3
  -2   2  -6 39661.5 4250.35   3
  -2   2  -7 37166.7 4341.78   3
  -2  -2  -7 41943.3 4626.24   3
  -2  -4   9 36079.1 3568.86   1
  -2  -4   8 183512. 8277.19   1
   2  -4  -8 187756. 9590.05   3
  -2   4   7 5011.18 1054.26   2
  -2  -4   7 5554.75 1338.26   1
   2  -4  -7 4033.62 1318.65   3
  -2  -4   6 70286.6 4689.14   1
  -2   4   6 68246.6 4186.40   2
   2  -4  -6 73809.7 5215.17   3
   2  -4  -5 2503.26 949.946   3
  -2  -4   5 2321.05 775.055   3
  -2   4   5 1464.70 777.702   2
  -2   4   5 1848.45 869.984   1
  -2  -4   5 3201.97 1027.94   1
  -2  -4   4 349997. 10910.7   3
  -2   4   4 367401. 12646.1   1
   2  -4  -4 345787. 10685.4   3
  -2  -4   4 331897. 10844.2   1
  -2   4   4 340938. 11736.5   2
  -2   4   4 368612. 10976.0   3
  -2   4   3 102864. 4757.94   3
   2   4  -3 108320. 5448.14   2
  -2   4   3 101572. 6136.83   1
  -2   4   3 96661.7 6063.03   2
   2  -4  -2 83708.8 3781.75   3
   2   4  -2 73827.8 4322.34   2
   2   4  -2 73959.1 4221.88   1
  -2   4   2 67627.9 4911.76   1
  -2   4   2 70043.7 4981.61   2
  -2   4   2 66466.0 3269.81   3
   2   4  -1 33357.7 2744.98   2
  -2  -4   1 31093.0 2538.34   1
   2   4  -1 37262.4 2802.54   1
  -2   4   1 29412.0 3131.90   1
   2   4   0 746950. 16488.7   2
   2   4   0 789734. 16203.8   1
  -2   4   0 750544. 18609.7   1
  -2  -4   0 746589. 16127.6   1
  -2  -4  -1 32387.7 3080.39   3
   2   4   1 31746.3 2371.99   2
   2   4   1 30612.8 2175.36   1
  -2   4  -1 27612.2 2880.59   1
   2  -4   1 25732.9 2865.10   1
  -2  -4  -1 27413.4 2102.52   1
  -2  -4  -2 8378.82 1698.40   3
   2   4   2 7941.79 1029.72   2
  -2   4  -2 8817.09 1590.01   1
  -2  -4  -2 8585.33 1085.14   1
   2  -4   2 7411.96 1569.67   1
   2   4   3 103109. 3330.58   2
  -2   4  -3 112687. 5688.32   1
   2  -4   3 105150. 6023.79   1
  -2   4  -3 118795. 4770.76   3
  -2  -4  -3 102591. 6183.58   3
   2  -4   4 328171. 11393.9   1
  -2  -4  -4 316634. 11837.7   3
  -2   4  -4 312904. 10037.0   3
  -2  -4  -5 11098.3 2175.30   3
   2  -4   5 14886.2 2254.81   1
  -2   4  -5 14010.0 2192.94   3
   2  -4   6 58929.3 4590.62   1
  -2  -4  -6 48894.1 4910.62   3
   2  -6  -7 998.666 738.814   3
  -2  -6   7 595.187 484.813   1
  -2  -6   6 172317. 8542.27   1
  -2   6   6 162106. 7273.51   2
   2  -6  -6 145809. 7753.77   3
  -2  -6   5 20809.7 2840.92   1
   2  -6  -5 20206.0 2614.03   3
  -2   6   5 18194.5 2621.94   2
  -2   6   4 52914.1 4314.67   3
  -2  -6   4 68592.1 5060.24   1
   2  -6  -4 66229.9 4316.36   3
  -2  -6   4 48039.5 3589.01   3
  -2   6   4 56914.5 4968.22   2
  -2  -6   3 125955. 6786.68   1
  -2   6   3 119214. 7347.23   2
  -2   6   3 106939. 5752.05   3
  -2  -6   2 382578. 12119.6   1
   2  -6  -2 345829. 9035.97   3
  -2   6   2 378953. 13692.8   2
  -2  -6   1 2009.48 852.362   1
   2  -6  -1 2266.35 1116.19   1
   2   6   0 26355.5 2727.67   1
  -2  -6   0 18635.4 2375.06   3
   2  -6   0 26962.0 3468.32   1
  -2  -6   0 22138.3 2412.59   1
   2   6   1 3848.41 994.051   1
  -2  -6  -1 4817.78 1132.85   1
  -2  -6  -1 4834.48 1256.02   3
   2  -6   1 5555.19 1569.13   1
   2   6   2 424536. 11317.2   1
   2   6   2 423676. 11696.1   2
   2  -6   2 405957. 14417.8   1
  -2  -6  -2 416580. 11744.5   1
  -2  -6  -2 409302. 13753.4   3
  -2  -6  -3 33425.8 2715.93   1
   2  -6   3 32206.2 3771.69   1
  -2  -6  -3 26588.0 3146.75   3
   2  -6   4 18614.3 2922.44   1
  -2  -6  -4 20450.5 2869.02   3
   2  -6   5 19759.4 3035.87   1
  -2  -6  -5 22149.7 3219.70   3
   2  -6   6 110254. 7434.00   1
   2  -8  -6 55147.6 4606.97   3
  -2  -8   5 60314.1 5474.07   1
   2  -8  -5 63800.3 4599.42   3
  -2   8   5 63791.4 5511.10   2
   2  -8  -4 35905.4 3107.15   3
  -2   8   4 29056.2 3969.17   2
  -2  -8   4 26620.0 3451.88   1
  -2  -8   3 33786.8 3759.00   1
  -2   8   3 35417.8 4464.97   2
  -2   8   2 180148. 10218.2   2
  -2  -8   2 166838. 8368.19   1
  -2  -8   1 29212.5 2851.14   3
   2  -8  -1 35286.5 4323.12   1
  -2  -8   1 32830.3 3481.91   1
  -2  -8   0 175518. 7422.57   3
   2  -8   0 179652. 10271.8   1
  -2  -8   0 158961. 7865.86   1
   2  -8   1 21009.4 3491.72   1
  -2  -8  -1 20793.4 2723.61   1
  -2  -8  -1 21837.0 2649.59   3
  -2  -8  -2 90194.1 5849.31   1
  -2  -8  -2 78743.1 5610.96   3
   2  -8   3 6808.01 1998.56   1
  -2  -8  -3 6422.95 1588.17   3
  -2  -8  -4 21502.2 3005.28   3
  -2 -10   0 180423. 9273.95   1
  -2 -10  -1 3309.14 1238.10   1
  -3  -1   9 52452.7 4027.70   1
  -3   1   9 47628.8 3637.33   1
  -3  -1   8 23151.3 2587.84   1
  -3   1   8 26058.7 2501.59   2
  -3   1   7 64217.8 4121.81   2
  -3  -1   7 61988.5 4257.59   1
   3  -1  -7 60077.9 4101.76   2
  -3  -1   6 104689. 5443.99   2
  -3   1   6 116937. 5762.63   2
   3   1  -6 104513. 5212.99   2
   3  -1  -6 109081. 5507.79   2
  -3  -1   5 365840. 10912.3   2
  -3   1   5 363604. 11132.7   2
   3   1  -5 370057. 10636.3   2
   3  -1  -5 380644. 11008.2   2
  -3  -1   5 354402. 11167.4   3
  -3   1   5 398016. 11410.2   3
   3   1  -4 25058.1 2347.98   2
   3  -1  -4 26073.2 2480.68   2
  -3   1   4 24203.9 2415.70   3
   3   1  -3 569802. 13416.4   2
   3  -1  -3 549917. 13863.6   2
   3   1  -2 31875.3 2440.78   2
   3  -1  -2 29482.8 2610.07   2
  -3  -1   1 570430. 12634.1   2
   3   1  -1 549973. 12593.1   2
   3  -1  -1 541640. 13922.4   2
   3  -1   0 492.521 513.404   2
  -3   1   0 532.920 468.987   1
   3   1   0 625.583 378.165   2
  -3  -1   0 407.501 280.744   2
  -3   1  -1 86031.2 4528.68   3
  -3  -1  -1 86847.7 3329.23   2
  -3   1  -1 86795.3 4280.81   1
  -3   1  -1 82328.2 4195.26   2
   3   1   1 85396.2 3792.61   2
  -3  -1  -2 24136.1 2699.92   3
  -3   1  -2 26816.5 2740.20   3
  -3  -1  -2 25912.3 1386.27   2
  -3  -1  -2 25727.3 1226.91   1
  -3   1  -2 27207.2 2198.29   2
  -3   1  -2 27625.3 2039.87   1
  -3   1  -3 130960. 4334.74   1
  -3   1  -3 129360. 4653.68   2
  -3   1  -3 115338. 6090.65   3
  -3  -1  -3 109697. 6364.16   3
  -3   1  -4 40883.4 1990.84   1
  -3   1  -4 38319.6 3769.67   3
  -3   1  -4 45424.1 2238.54   2
  -3  -1  -4 37129.2 3806.49   3
  -3  -1  -5 84185.0 6070.38   3
  -3   1  -5 76406.8 5762.55   3
  -3   1  -6 27504.7 3672.97   3
  -3  -1  -6 25537.6 3516.90   3
  -3   1  -7 122545. 8251.61   3
  -3  -3   9 8668.71 1682.42   1
  -3  -3   8 4725.32 1299.76   1
  -3   3   8 5215.04 1224.09   2
  -3   3   7 160768. 7073.56   2
  -3  -3   7 123255. 7439.24   1
  -3   3   6 1108.64 603.418   2
   3  -3  -6 1610.75 685.417   2
  -3  -3   6 1503.14 758.671   1
  -3   3   5 130871. 6696.10   2
  -3  -3   5 140344. 6627.63   1
  -3   3   5 137385. 6350.76   3
   3  -3  -5 149058. 7099.32   2
  -3  -3   4 21613.6 2412.36   1
   3   3  -4 18021.1 2208.49   2
  -3   3   4 15863.9 2342.43   2
   3  -3  -4 17468.0 2360.68   2
  -3   3   4 18874.8 2003.43   3
  -3   3   3 677599. 14881.6   3
  -3   3   3 713420. 19099.8   1
   3   3  -3 693432. 16488.9   2
  -3   3   3 719378. 18918.5   2
  -3   3   2 1196.40 453.861   3
  -3  -3   2 1171.78 572.425   1
  -3   3   2 1031.65 694.134   1
   3   3  -2 1019.84 564.427   2
   3   3  -1 113200. 4983.54   2
  -3   3   1 106637. 6402.46   1
  -3  -3   1 112000. 4655.52   1
   3   3   0 96887.0 4249.59   2
  -3   3   0 104535. 5997.64   1
  -3  -3   0 105944. 4162.33   1
  -3   3   0 97423.0 5673.24   2
  -3  -3  -1 330196. 11496.9   3
  -3  -3  -1 331051. 7432.31   1
   3   3   1 302919. 7898.69   2
  -3   3  -1 297204. 7921.27   3
  -3   3  -1 342008. 10748.9   1
  -3   3  -1 303317. 10391.7   2
   3   3   2 2787.25 549.165   2
  -3   3  -2 2750.76 761.104   3
  -3  -3  -2 2743.24 1031.33   3
  -3   3  -2 1796.49 759.436   2
   3  -3   2 2251.14 878.844   1
  -3   3  -2 2925.21 862.943   1
  -3  -3  -2 3005.33 435.377   1
  -3   3  -3 49303.9 3419.90   1
   3  -3   3 44877.6 3630.68   1
  -3   3  -3 50659.7 3564.49   3
  -3   3  -3 46295.9 3670.75   2
  -3  -3  -3 42086.1 4201.23   3
   3  -3   4 30315.6 3016.99   1
  -3   3  -4 33946.8 3287.66   3
  -3   3  -4 34403.6 2856.02   1
  -3  -3  -4 31257.5 3557.64   3
  -3   3  -4 35893.6 3179.38   2
  -3   3  -5 142894. 7549.94   3
  -3  -3  -5 148866. 8325.99   3
  -3   3  -6-236.849 408.319   3
   3  -5  -8 4337.09 1624.63   3
  -3  -5   8 11557.8 2140.84   1
  -3   5   7 68390.6 4556.17   2
  -3  -5   7 76027.1 5404.77   1
   3  -5  -6 3903.18 1354.05   3
  -3   5   6 3291.74 1103.71   2
  -3  -5   6 4562.16 1309.05   1
  -3  -5   5 181219. 8268.77   1
  -3   5   5 161241. 8302.45   2
  -3  -5   4 40773.6 3654.86   1
  -3   5   4 37474.0 4093.31   2
  -3   5   4 34633.2 3042.37   3
  -3  -5   3 87970.8 5212.96   1
  -3   5   3 91098.4 6440.40   2
  -3   5   3 87856.3 4356.17   3
  -3  -5   2 125716. 6072.71   1
  -3   5   2 143332. 8066.89   2
  -3   5   2 144050. 4804.59   3
  -3  -5   1 397453. 11355.5   1
  -3   5   1 372317. 13544.6   2
  -3  -5   0 9498.31 1414.46   1
  -3   5   0 10401.5 2019.17   2
   3   5   0 11201.3 1639.95   2
   3  -5   0 7797.39 1827.27   1
  -3  -5  -1 72485.6 5311.74   3
   3   5   1 76578.7 3986.83   2
   3  -5   1 68198.6 5402.57   1
  -3  -5  -2 14841.7 2400.82   3
   3  -5   2 17523.5 2706.43   1
   3   5   2 13960.5 1510.86   2
  -3  -5  -2 15601.1 1572.90   1
   3  -5   3 131340. 7720.33   1
  -3  -5  -3 119478. 7652.27   3
   3  -5   4 16492.7 2732.63   1
  -3  -5  -4 13880.1 2563.71   3
   3  -5   5 75232.9 5876.68   1
  -3  -5  -5 65176.7 5635.51   3
  -3  -7   6 21860.8 3178.21   1
  -3   7   6 19213.2 2805.31   2
  -3  -7   5 183515. 9215.40   1
  -3   7   5 171327. 9291.91   2
  -3   7   4 8360.98 2108.83   2
  -3  -7   4 9915.79 2023.66   1
  -3  -7   3 53408.4 4525.24   1
  -3   7   3 53388.6 5371.91   2
  -3  -7   2 16976.2 2429.25   1
  -3   7   2 20740.3 3263.12   2
  -3   7   1 110077. 7556.00   2
  -3  -7   1 108633. 5987.11   1
  -3  -7   0 75934.1 5337.73   3
   3  -7   0 75154.7 6248.38   1
  -3  -7   0 73233.4 4696.65   1
  -3  -7  -1 78301.9 5454.09   3
   3  -7   1 91253.4 6978.18   1
  -3  -7  -1 89863.1 5104.96   1
  -3  -7  -2 11531.2 2185.82   3
  -3  -7  -2 13791.9 1895.67   1
   3  -7   2 11564.2 2591.55   1
   3  -7   3 231707. 11805.3   1
  -3  -7  -3 177656. 9725.85   3
   3  -7   4 512.068 823.940   1
  -3   9   5 1029.53 943.357   2
  -3   9   4-1407.45 1084.02   2
  -3   9   3 118047. 8911.33   2
  -3  -9   3 107168. 6985.97   1
  -3   9   2 268.435 581.913   2
  -3  -9   2 624.598 769.282   1
  -3  -9   1 30780.4 3100.81   3
  -3  -9   1 29529.1 3379.02   1
  -3   9   1 34329.1 4744.62   2
  -3  -9   0 2385.09 971.119   1
  -3  -9   0 671.724 585.172   3
  -3  -9  -1 122667. 6895.13   3
  -3  -9  -2 1852.65 868.915   3
  -4   0   9 169.821 382.356   1
  -4   0   8 336951. 11456.4   2
  -4   0   7 76.4716 327.990   2
  -4   0   6 2063.14 846.761   2
  -4   0   5 401.085 391.450   2
   4   0  -5 276.718 265.443   2
  -4   0   4 343947. 10940.5   2
   4   0  -4 361605. 10997.9   2
   4   0  -3 473.871 422.183   2
  -4   0   2 285187. 9201.23   2
   4   0  -2 300343. 9576.56   2
  -4   0   1 496.727 406.069   2
   4   0  -1 7.60696 288.854   2
  -4   0   0 970604. 19716.3   2
   4   0   0 988976. 21400.4   2
  -4   0  -1 201.962 310.236   2
  -4   0  -1-38.4066 370.824   3
   4   0   1-131.887 302.234   2
  -4   0  -1-213.341 348.996   1
  -4   0  -2 2363.92 559.983   2
  -4   0  -2 2113.68 524.657   1
  -4   0  -2 1845.29 770.349   3
  -4   0  -3 205.735 160.721   2
  -4   0  -3 1297.32 860.576   3
  -4   0  -3 843.043 232.271   1
  -4   0  -4 229916. 9990.07   3
  -4   0  -5-335.125 542.053   3
  -4   0  -6 4152.90 1446.33   3
  -4   2   9 11476.9 1851.28   2
  -4  -2   9 12785.0 2214.04   1
  -4  -2   8 13769.8 2245.90   1
  -4   2   8 15113.8 2281.49   2
  -4  -2   7 68514.7 4888.20   1
  -4   2   7 62447.6 4722.63   2
  -4  -2   6 155323. 7385.24   2
  -4   2   6 147062. 7402.76   2
  -4  -2   5 127702. 6434.29   2
  -4   2   5 117823. 6505.46   2
  -4  -2   4 238103. 8903.83   2
   4   2  -4 240587. 8773.58   2
  -4   2   4 223254. 9427.11   2
  -4   2   4 251457. 8312.81   3
   4  -2  -4 252409. 9729.16   2
   4   2  -3 71747.3 4344.07   2
   4  -2  -3 73840.4 5036.37   2
  -4  -2   2 328800. 9980.96   2
   4   2  -2 332028. 9876.64   2
   4  -2  -2 338498. 11556.4   2
  -4  -2   1 130029. 5479.37   2
  -4   2   1 124668. 6960.07   1
   4   2  -1 139874. 5627.29   2
  -4   2   1 129592. 6664.08   2
  -4  -2   0 215110. 6879.27   2
   4   2   0 223417. 7322.01   2
  -4   2   0 219015. 8613.71   2
  -4   2  -1 104519. 5251.59   3
  -4  -2  -1 115770. 6672.50   3
  -4  -2  -1 123782. 3895.10   1
  -4  -2  -1 107955. 4205.73   2
  -4   2  -1 115300. 5825.79   1
   4   2   1 110861. 4745.57   2
  -4   2  -1 108957. 5678.98   2
  -4  -2  -2 358275. 12461.5   3
  -4  -2  -2 362358. 6580.04   1
  -4  -2  -2 367152. 7011.11   1
  -4   2  -2 354700. 10629.6   2
   4   2   2 340115. 8724.69   2
  -4   2  -2 372372. 10464.5   1
  -4   2  -2 333077. 10848.3   3
  -4   2  -3 23782.5 2142.99   1
  -4   2  -3 23164.7 2267.15   2
  -4   2  -3 23379.5 2741.82   3
  -4  -2  -3 22540.8 3090.16   3
  -4   2  -4 11336.9 2107.08   3
  -4  -2  -4 15689.3 2524.52   3
  -4   2  -5 33353.9 3696.56   3
  -4  -2  -5 27806.0 3577.04   3
  -4  -4   9 21578.7 2944.54   1
  -4   4   8 35661.0 3547.84   2
  -4  -4   8 47607.3 4478.17   1
  -4  -4   7 3369.11 1319.77   1
  -4   4   7 1932.19 951.018   2
  -4   4   6 213132. 9736.32   2
  -4  -4   6 241518. 9933.68   1
  -4   4   5 11211.6 2178.74   2
  -4  -4   5 13939.2 2219.38   1
  -4   4   4 3701.55 943.454   3
  -4   4   4 5886.43 1606.57   2
  -4  -4   4 6747.31 1456.91   1
  -4   4   3 160488. 8662.90   2
  -4   4   3 165133. 6053.05   3
  -4  -4   3 167234. 7232.25   1
  -4   4   2 636738. 18703.6   2
  -4   4   2 633871. 13368.5   3
  -4  -4   2 638814. 15500.1   1
   4   4  -1 29157.4 2658.79   2
  -4  -4   1 30152.4 2609.56   1
  -4   4   1 28847.6 3428.14   2
  -4   4   0 77803.3 3229.44   3
   4   4   0 78029.8 4111.86   2
  -4  -4   0 76377.9 3785.66   1
  -4   4   0 69304.2 5242.32   2
   4   4   1 128.311 199.996   2
  -4   4  -1 440.569 272.252   3
  -4  -4  -1 555.439 667.858   3
  -4   4  -1 16.7435 466.223   2
  -4  -4  -1 279.809 278.795   1
  -4  -4  -2 196456. 9362.77   3
   4   4   2 191115. 5805.54   2
  -4  -4  -2 184896. 4856.96   1
  -4   4  -2 185325. 8624.18   2
  -4   4  -2 201787. 6648.46   3
  -4   4  -3 27645.5 3186.72   2
  -4   4  -3 29348.0 2683.12   3
  -4  -4  -3 22833.0 3709.30   3
  -4   4  -4 21332.7 2727.45   2
  -4  -4  -4 15343.5 2690.82   3
  -4   6   7 6066.54 1601.59   2
  -4  -6   7 5855.53 1765.58   1
  -4  -6   6 28325.6 3479.74   1
  -4   6   6 25630.5 3379.94   2
  -4   6   5 500.884 577.287   2
  -4  -6   5 692.566 564.928   1
  -4  -6   4 379913. 12895.5   1
  -4   6   4 377543. 14867.8   2
  -4  -6   3 23961.7 2861.63   1
  -4   6   3 24095.1 3509.98   2
  -4  -6   2 7531.71 1519.15   1
  -4   6   2 8832.10 2141.04   2
  -4   6   1 6162.70 1785.46   2
  -4  -6   1 8108.87 1501.34   1
  -4  -6   0 228298. 7969.89   1
  -4   6   0 206925. 10372.5   2
  -4  -6  -1 8588.80 1970.51   3
  -4   6  -1 7514.08 1969.76   2
  -4  -6  -1 8327.94 1354.54   1
  -4  -6  -2 46379.7 4634.25   3
  -4   6  -2 41993.8 4581.81   2
  -4   6  -3 56464.7 5461.28   2
  -4  -6  -3 40981.7 4665.84   3
  -4   6  -4 175080. 10093.6   2
  -4   8   6 69113.6 5959.05   2
  -4   8   5 23187.3 3741.54   2
  -4  -8   4 76007.4 5850.62   1
  -4   8   4 99740.5 7802.71   2
  -4   8   3-4.54657 357.608   2
  -4  -8   3 574.163 546.347   1
  -4   8   2 56145.8 5891.39   2
  -4  -8   2 48289.3 4278.62   1
  -4  -8   1 14745.4 2401.11   3
  -4  -8   1 16836.2 2326.82   1
  -4  -8   0 63606.3 5073.04   3
  -4  -8   0 65242.4 4516.28   1
  -4   8   0 69802.4 6428.83   2
  -4  -8  -1 72261.0 5693.20   3
  -4   8  -1 77666.4 6911.28   2
  -5  -1  10 21134.1 2974.48   1
  -5   1   9 91555.9 6062.99   2
  -5  -1   9 93189.0 6523.04   1
  -5  -1   8 7151.64 1707.19   2
  -5   1   8 9413.52 1943.58   2
  -5  -1   7 220971. 9609.92   2
  -5   1   7 227146. 9970.05   2
  -5   1   6 2423.22 965.777   2
  -5  -1   6 968.105 665.989   2
  -5  -1   5 60151.4 4518.03   2
  -5   1   5 55145.1 4572.29   2
  -5  -1   4 191.619 340.267   2
  -5   1   4-114.511 355.541   2
  -5  -1   3 138981. 6681.87   2
  -5   1   3 136088. 6957.77   2
   5   1  -3 148606. 6863.43   2
  -5  -1   2 23567.8 2543.99   2
  -5   1   2 22518.3 2691.44   2
   5   1  -2 28794.4 2860.40   2
   5  -1  -2 30085.3 3246.52   2
  -5  -1   1 159598. 6637.38   2
  -5   1   1 150173. 7051.46   2
   5   1  -1 165986. 7160.30   2
  -5   1   0 113754. 6509.32   1
  -5  -1   0 101486. 4864.63   2
  -5   1   0 102946. 5453.53   2
   5   1   0 103821. 5611.58   2
  -5   1  -1 272774. 10458.5   3
  -5  -1  -1 281056. 11396.2   3
  -5  -1  -1 311801. 9572.83   1
  -5  -1  -1 303663. 8430.39   2
  -5   1  -1 308987. 9551.01   2
  -5   1  -1 316388. 10081.6   1
   5   1   1 288186. 9684.26   2
  -5   1  -2 28922.2 3321.13   3
  -5  -1  -2 27324.3 3263.43   3
  -5  -1  -2 28296.5 1890.71   2
  -5   1  -2 30383.5 2474.72   2
  -5   1  -2 26862.0 2288.84   1
  -5   1  -3 91438.6 5910.47   3
  -5  -1  -3 92633.2 6346.70   3
  -5   1  -4-156.993 337.932   3
  -5  -1  -4-308.921 472.197   3
  -5   1  -5 64836.9 5541.77   3
  -5   3   9 161307. 8425.34   2
  -5  -3   9 179677. 9129.19   1
  -5   3   8 1028.50 659.876   2
  -5  -3   8 1311.20 826.687   1
  -5  -3   7 39097.2 3932.14   1
  -5   3   7 41983.2 4242.72   2
  -5  -3   6 30344.9 3397.42   1
  -5   3   6 31603.2 3691.40   2
  -5  -3   5 281717. 10791.2   2
  -5  -3   5 280759. 10559.2   1
  -5   3   5 290462. 12000.3   2
  -5   3   4 3753.77 986.639   3
  -5   3   4 2462.88 1126.56   2
  -5  -3   4 3480.84 1134.84   2
  -5  -3   3 26420.9 2845.41   2
  -5   3   3 27416.7 3439.90   2
  -5  -3   2 28826.1 2817.85   2
  -5  -3   2 26612.3 2599.30   1
  -5   3   2 28039.8 3404.52   2
  -5  -3   1 257037. 8705.62   2
  -5  -3   1 265832. 8287.30   1
   5   3  -1 253225. 8600.31   2
  -5   3   1 247733. 10299.5   2
   5   3   0 1324.72 567.953   2
  -5   3   0 369.901 418.492   2
  -5   3   0 2926.28 922.969   3
  -5  -3   0 2568.83 668.337   1
  -5   3  -1 115308. 5579.40   3
  -5  -3  -1 113420. 7374.70   3
  -5  -3  -1 107512. 3980.47   1
   5   3   1 108154. 5004.33   2
  -5   3  -1 104075. 6021.00   2
  -5   3  -2 663.556 535.383   3
  -5  -3  -2 186.429 527.065   3
  -5   3  -2 1169.51 638.193   2
  -5   3  -3 215305. 8245.04   2
  -5   3  -3 210765. 8654.27   3
  -5   5   8 18501.9 2798.17   2
  -5   5   7 141323. 8353.42   2
  -5  -5   7 172512. 9161.67   1
  -5   5   6 9821.09 2156.75   2
  -5  -5   6 9774.66 2146.25   1
  -5   5   5 33126.8 4080.40   2
  -5  -5   5 41771.1 4104.62   1
  -5   5   4 58692.6 5439.40   2
  -5  -5   4 64711.5 4937.63   1
  -5   5   4 62742.0 4013.71   3
  -5  -5   3 221543. 9111.70   1
  -5   5   3 211459. 10506.9   2
  -5   5   3 218938. 7240.98   3
  -5  -5   2 40920.3 3483.56   1
  -5   5   2 37505.5 4222.04   2
  -5  -5   1 100903. 4895.38   1
  -5   5   1 110855. 7092.31   2
  -5  -5   0 3508.93 853.945   1
  -5   5   0 2371.77 1068.33   2
  -5  -5  -1 121664. 7858.47   3
  -5   5  -1 111120. 7125.26   2
  -5  -5  -2 3352.06 1449.61   3
  -5   5  -2 5135.86 1528.75   2
  -5   5  -3 41956.5 4296.78   2
  -5   7   7 66618.9 5759.85   2
  -5   7   6 52689.5 5312.34   2
  -5  -7   5 91823.6 6444.52   1
  -5   7   5 95814.3 7385.03   2
  -5  -7   4 20170.8 2881.37   1
  -5   7   4 20843.4 3472.13   2
  -5  -7   3 166280. 8161.99   1
  -5   7   3 187265. 10551.3   2
  -5   7   2 1839.98 1131.86   2
  -5  -7   2 1081.92 699.070   1
  -5  -7   1 16543.9 2199.72   1
  -5   7   1 21935.6 3468.57   2
  -5  -7   0 13834.6 2705.60   3
  -5   7   0 20747.2 3440.11   2
  -5  -7  -1 158332. 9034.27   3
  -5   7  -1 140624. 9175.22   2
  -6   0  10 139408. 8166.54   2
  -6   0   9 167.785 657.425   2
  -6   0   8 50672.1 4820.45   2
  -6   0   7 643.030 529.432   2
  -6   0   6 392010. 13917.1   2
  -6   0   5 1766.88 890.343   2
  -6   0   4 8307.57 1781.77   2
  -6   0   3 37.1240 567.425   2
  -6   0   2 458318. 13983.0   2
  -6   0   1 591.343 373.064   2
  -6   0   0 531.308 471.418   2
  -6   0   0 1874.18 817.316   1
  -6   0  -1-20.4857 133.389   2
  -6   0  -1 811.649 743.292   3
  -6   0  -2 211105. 9703.33   3
  -6   0  -3-528.489 496.866   3
  -6   2   9 20276.5 3095.50   2
  -6  -2   8 106549. 7079.65   2
  -6   2   8 97081.2 6948.89   2
  -6  -2   7 69592.0 5465.09   2
  -6   2   7 71915.4 5944.56   2
  -6  -2   6 184553. 8859.09   2
  -6   2   6 188964. 9743.48   2
  -6  -2   5 81318.4 5530.40   2
  -6   2   5 83827.1 6215.52   2
  -6  -2   4 267039. 10302.2   2
  -6   2   4 275059. 11525.1   2
  -6  -2   3 18275.9 2433.18   2
  -6   2   3 22427.4 3092.65   2
  -6   2   2 6074.79 1612.97   2
  -6  -2   2 7176.98 1442.12   2
  -6  -2   1 43801.7 3451.69   2
  -6   2   1 37441.7 3726.91   2
  -6  -2   0 141160. 5938.14   2
  -6   2   0 150104. 7273.61   2
  -6   2  -1 68076.4 4893.91   3
  -6  -2  -1 81853.8 6375.20   3
  -6  -2  -1 68116.7 3611.29   2
  -6   2  -1 75329.6 4819.41   2
  -6   2  -2 100341. 5254.49   2
  -6   2  -2 86731.5 5883.20   3
  -6   2  -3 32825.4 3527.39   3
  -6  -2  -3 27266.7 3579.10   3
  -6   4   9 40500.7 4364.90   2
  -6   4   8 243779. 11482.0   2
  -6   4   7 21672.7 3366.00   2
  -6  -4   7 18091.1 2847.91   1
  -6  -4   6 15896.4 2541.12   1
  -6   4   6 15516.0 2887.97   2
  -6   4   5 5632.18 1714.94   2
  -6  -4   5 6076.49 1494.81   1
  -6  -4   4 238696. 9653.45   1
  -6   4   4 249965. 11494.4   2
  -6  -4   3 31668.7 3183.19   1
  -6   4   3 34799.1 4043.29   2
  -6   4   3 43275.6 3474.77   3
  -6   4   2 46022.0 4542.39   2
  -6  -4   2 47467.9 3630.28   1
  -6   4   1 7868.97 1829.77   2
  -6  -4   1 8141.55 1373.83   1
  -6  -4   0 177341. 6282.70   1
  -6   4   0 176560. 8744.35   2
  -6   4  -1 3338.65 1216.85   2
  -6  -4  -1 3759.14 1487.25   3
  -6   4  -2 5063.47 1390.28   2
  -6  -6   6 205563. 10305.7   1
  -6   6   6 185881. 10549.9   2
  -6   6   5 1686.78 1146.17   2
  -6  -6   5 780.824 676.009   1
  -6  -6   4 28698.9 3443.77   1
  -6   6   4 27309.1 3882.01   2
  -6  -6   3 56407.3 4458.58   1
  -6   6   3 63622.1 5802.32   2
  -6  -6   2 143420. 6775.07   1
  -6   6   2 174496. 9603.59   2
  -6  -6   1 22095.6 2417.38   1
  -6   6   1 25902.8 3585.54   2
  -6  -6   0 23754.1 3802.21   3
  -6   6   0 23395.4 3448.87   2
  -6   6  -1 15.2533 348.187   2
  -6  -8   2 101330. 6044.86   1
  -7   1   8 380.840 782.049   2
  -7  -1   8 320.168 417.557   2
  -7  -1   7 41282.7 4447.09   2
  -7   1   7 46794.6 4945.49   2
  -7  -1   6 33850.6 3857.82   2
  -7   1   6 34410.6 4108.86   2
  -7  -1   5 205381. 9719.64   2
  -7   1   5 225724. 10731.1   2
  -7  -1   4 57078.3 4825.41   2
  -7   1   4 48565.8 4745.75   2
  -7  -1   3 143757. 7667.68   2
  -7   1   3 152711. 8209.40   2
  -7  -1   2 12292.7 2087.91   2
  -7   1   2 12725.2 2228.87   2
  -7  -1   1 142686. 6871.66   2
  -7   1   1 128924. 6963.55   2
  -7   1   0 2314.36 935.399   2
  -7   1   0 2001.26 979.793   3
  -7  -1   0 2743.28 866.384   2
  -7   1  -1 15724.6 2559.25   3
  -7  -1  -1 13773.7 2661.12   3
  -7   1  -2-1259.42 830.421   3
  -7  -1  -2-755.522 717.680   3
  -7   3   8-307.020 723.390   2
  -7  -3   7 139183. 8324.53   2
  -7  -3   7 143359. 8181.48   1
  -7   3   7 161475. 9801.34   2
  -7   3   6 1594.79 1026.35   2
  -7  -3   6 366.391 530.284   2
  -7  -3   5 70241.8 5396.62   2
  -7   3   5 62225.0 5738.79   2
  -7   3   4 12211.1 2505.57   2
  -7  -3   4 10707.6 2054.63   2
  -7  -3   3 216264. 9324.12   2
  -7   3   3 226159. 10646.3   2
  -7   3   2 9708.61 2079.78   2
  -7  -3   2 8719.75 1716.49   2
  -7  -3   1 22349.9 2305.59   1
  -7  -3   1 19560.8 2406.27   2
  -7   3   1 22972.6 3043.45   2
  -7   3   0 11953.8 2119.89   2
  -7   3  -1 126681. 6817.51   2
  -7   5   5 88654.0 7135.96   2
  -7  -5   5 91149.4 6156.09   1
  -7   5   4 705.325 739.708   2
  -7  -5   4 3202.63 1123.94   1
  -7   5   3 71590.4 5985.10   2
  -7  -5   3 69003.8 4891.72   1
  -7   5   2 33865.4 4056.37   2
  -7  -5   2 31968.5 3108.94   1
  -7   5   1 123364. 7667.68   2
  -7   5   0 10906.4 2257.21   2
  -7  -7   3 5153.88 1399.22   1
  -8   0   7-276.433 590.361   2
  -8   0   6 12780.0 2671.39   2
  -8   0   5 178.821 548.495   2
  -8   0   4 288847. 12185.9   2
  -8   0   3 322.725 595.836   2
  -8   0   2 62923.8 5057.20   2
  -8   0   1-679.334 489.303   2
  -8   0   0 131424. 9264.52   3
  -8  -2   6 128313. 7970.55   2
  -8   2   6 126235. 8699.62   2
  -8  -2   5 46118.1 4552.30   2
  -8   2   5 49594.2 5245.15   2
  -8  -2   4 44861.8 4405.43   2
  -8   2   4 39659.0 4515.68   2
  -8  -2   3 24261.4 3110.70   2
  -8   2   3 26755.5 3571.95   2
  -8  -2   2 98525.6 6030.41   2
  -8   2   2 108343. 6956.55   2
  -8  -2   1 32553.1 3198.72   2
  -8   2   1 36520.4 3794.41   2
  -8  -4   5 501.139 567.995   1
  -8  -4   4 16715.8 2563.99   1
  -8  -4   3 35621.2 3495.21   1
  -9  -1   3 67060.9 5424.22   2
  -9   1   2 498.492 460.305   2
  -9  -1   2-1099.20 751.731   2
   0   0   0    0.00    0.00   0

TITL crystal1-He-15K in C2/c
REM C2/c (#15 in standard setting)
CELL 0.71073   6.786974   7.634226   7.401179  90.0000 116.9174  90.0000
ZERR    3.00   0.001109   0.000854   0.001218   0.0000   0.0205   0.0000
LATT  7
SYMM -x, y,-z+1/2
SFAC H O S Ni
UNIT 6.00 15.00 3.00 3.00
TREF
HKLF 4
END
;
_shelx_hkl_checksum              72334
loop_
_space_group_symop_operation_xyz
'x, y, z'
'-x, y, -z+1/2'
'x+1/2, y+1/2, z'
'-x+1/2, y+1/2, -z+1/2'
'-x, -y, -z'
'x, -y, z-1/2'
'-x+1/2, -y+1/2, -z'
'x+1/2, -y+1/2, z-1/2'
loop_
_atom_site_label
_atom_site_type_symbol
_atom_site_fract_x
_atom_site_fract_y
_atom_site_fract_z
_atom_site_U_iso_or_equiv
_atom_site_adp_type
_atom_site_occupancy
_atom_site_site_symmetry_order
_atom_site_calc_flag
_atom_site_refinement_flags_posn
_atom_site_refinement_flags_adp
_atom_site_refinement_flags_occupancy
_atom_site_disorder_assembly
_atom_site_disorder_group
Ni Ni 0.000000 0.500000 0.000000 0.0077(2) Uani 1 2 d S . P . .
S S 0.000000 0.15772(12) 0.250000 0.0078(3) Uani 1 2 d S T P . .
O1 O 0.1727(3) 0.0480(3) 0.4050(3) 0.0101(4) Uani 1 1 d . . . . .
O2 O 0.1051(3) 0.2710(3) 0.1556(2) 0.0085(4) Uani 1 1 d . . . . .
O3 O 0.000000 0.6302(4) 0.250000 0.0100(6) Uani 1 2 d S T P . .
H H 0.113(6) 0.696(5) 0.296(5) 0.014(9) Uiso 1 1 d . . . . .
loop_
_atom_site_aniso_label
_atom_site_aniso_U_11
_atom_site_aniso_U_22
_atom_site_aniso_U_33
_atom_site_aniso_U_23
_atom_site_aniso_U_13
_atom_site_aniso_U_12
Ni 0.0073(3) 0.0069(3) 0.0093(3) -0.00008(14) 0.0041(2) -0.00018(16)
S 0.0075(5) 0.0072(5) 0.0092(5) 0.000 0.0041(4) 0.000
O1 0.0091(11) 0.0093(9) 0.0118(9) 0.0013(7) 0.0047(8) -0.0003(8)
O2 0.0088(10) 0.0082(9) 0.0100(9) 0.0009(7) 0.0056(7) -0.0003(7)
O3 0.0086(15) 0.0099(13) 0.0110(13) 0.000 0.0040(11) 0.000
loop_
_atom_type_symbol
_atom_type_description
_atom_type_scat_dispersion_real
_atom_type_scat_dispersion_imag
_atom_type_scat_source
O O 0.0106 0.0060 'International Tables Vol C Tables 4.2.6.8 and 6.1.1.4'
H H 0.0000 0.0000 'International Tables Vol C Tables 4.2.6.8 and 6.1.1.4'
S S 0.1246 0.1234 'International Tables Vol C Tables 4.2.6.8 and 6.1.1.4'
Ni Ni 0.3393 1.1124 'International Tables Vol C Tables 4.2.6.8 and 6.1.1.4'
loop_
_geom_angle_atom_site_label_1
_geom_angle_atom_site_label_2
_geom_angle_atom_site_label_3
_geom_angle
_geom_angle_site_symmetry_1
_geom_angle_site_symmetry_3
_geom_angle_publ_flag
O1 Ni O1 180.0 8_455 4 ?
O1 Ni O2 85.23(8) 8_455 5_565 ?
O1 Ni O2 94.77(8) 4 5_565 ?
O1 Ni O2 94.77(8) 8_455 . ?
O1 Ni O2 85.23(8) 4 . ?
O2 Ni O2 180.0 5_565 . ?
O1 Ni O3 93.09(6) 8_455 5_565 ?
O1 Ni O3 86.91(6) 4 5_565 ?
O2 Ni O3 92.61(8) 5_565 5_565 ?
O2 Ni O3 87.39(8) . 5_565 ?
O1 Ni O3 86.91(6) 8_455 . ?
O1 Ni O3 93.09(6) 4 . ?
O2 Ni O3 87.39(8) 5_565 . ?
O2 Ni O3 92.61(8) . . ?
O3 Ni O3 180.00(14) 5_565 . ?
O1 Ni O2 43.65(6) 8_455 8_455 ?
O1 Ni O2 136.35(6) 4 8_455 ?
O2 Ni O2 98.37(3) 5_565 8_455 ?
O2 Ni O2 81.63(3) . 8_455 ?
O3 Ni O2 51.20(4) 5_565 8_455 ?
O3 Ni O2 128.80(4) . 8_455 ?
O1 Ni O2 136.35(6) 8_455 4 ?
O1 Ni O2 43.65(6) 4 4 ?
O2 Ni O2 81.64(3) 5_565 4 ?
O2 Ni O2 98.37(3) . 4 ?
O3 Ni O2 128.80(4) 5_565 4 ?
O3 Ni O2 51.20(4) . 4 ?
O2 Ni O2 180.00(6) 8_455 4 ?
O1 Ni O2 113.77(6) 8_455 6_565 ?
O1 Ni O2 66.23(6) 4 6_565 ?
O2 Ni O2 43.81(7) 5_565 6_565 ?
O2 Ni O2 136.19(7) . 6_565 ?
O3 Ni O2 59.83(7) 5_565 6_565 ?
O3 Ni O2 120.17(7) . 6_565 ?
O2 Ni O2 96.31(4) 8_455 6_565 ?
O2 Ni O2 83.69(4) 4 6_565 ?
O1 Ni O2 66.23(6) 8_455 2 ?
O1 Ni O2 113.77(6) 4 2 ?
O2 Ni O2 136.19(7) 5_565 2 ?
O2 Ni O2 43.81(7) . 2 ?
O3 Ni O2 120.17(7) 5_565 2 ?
O3 Ni O2 59.83(7) . 2 ?
O2 Ni O2 83.69(4) 8_455 2 ?
O2 Ni O2 96.31(4) 4 2 ?
O2 Ni O2 180.00(3) 6_565 2 ?
O1 S O1 110.48(17) 2 . ?
O1 S O2 110.10(10) 2 . ?
O1 S O2 108.60(11) . . ?
O1 S O2 108.60(11) 2 2 ?
O1 S O2 110.10(10) . 2 ?
O2 S O2 108.94(16) . 2 ?
S O1 Ni 136.44(12) . 4_545 ?
S O1 O2 35.97(7) . . ?
Ni O1 O2 100.63(9) 4_545 . ?
S O1 O1 34.76(9) . 2 ?
Ni O1 O1 139.19(13) 4_545 2 ?
O2 O1 O1 60.45(7) . 2 ?
S O1 O2 35.21(6) . 2 ?
Ni O1 O2 145.52(12) 4_545 2 ?
O2 O1 O2 60.26(9) . 2 ?
O1 O1 O2 59.52(8) 2 2 ?
S O1 O2 127.47(11) . 4_545 ?
Ni O1 O2 47.45(6) 4_545 4_545 ?
O2 O1 O2 109.95(7) . 4_545 ?
O1 O1 O2 101.97(8) 2 4_545 ?
O2 O1 O2 161.31(11) 2 4_545 ?
S O1 O3 171.06(12) . 7_556 ?
Ni O1 O3 47.69(4) 4_545 7_556 ?
O2 O1 O3 145.71(10) . 7_556 ?
O1 O1 O3 150.58(7) 2 7_556 ?
O2 O1 O3 136.02(9) 2 7_556 ?
O2 O1 O3 61.47(7) 4_545 7_556 ?
S O1 O2 115.09(11) . 8_556 ?
Ni O1 O2 42.68(5) 4_545 8_556 ?
O2 O1 O2 86.36(7) . 8_556 ?
O1 O1 O2 146.77(8) 2 8_556 ?
O2 O1 O2 104.32(9) 2 8_556 ?
O2 O1 O2 90.13(8) 4_545 8_556 ?
O3 O1 O2 61.69(7) 7_556 8_556 ?
S O1 O3 92.48(9) . 3_545 ?
Ni O1 O3 44.48(5) 4_545 3_545 ?
O2 O1 O3 57.76(7) . 3_545 ?
O1 O1 O3 101.39(10) 2 3_545 ?
O2 O1 O3 115.60(10) 2 3_545 ?
O2 O1 O3 62.54(8) 4_545 3_545 ?
O3 O1 O3 92.17(7) 7_556 3_545 ?
O2 O1 O3 57.03(5) 8_556 3_545 ?
S O1 O2 112.55(11) . 7_556 ?
Ni O1 O2 78.42(7) 4_545 7_556 ?
O2 O1 O2 108.31(8) . 7_556 ?
O1 O1 O2 139.93(10) 2 7_556 ?
O2 O1 O2 81.19(6) 2 7_556 ?
O2 O1 O2 117.50(9) 4_545 7_556 ?
O3 O1 O2 58.91(7) 7_556 7_556 ?
O2 O1 O2 45.78(7) 8_556 7_556 ?
O3 O1 O2 102.59(7) 3_545 7_556 ?
S O1 O2 127.54(11) . 6_556 ?
Ni O1 O2 95.03(8) 4_545 6_556 ?
O2 O1 O2 162.64(11) . 6_556 ?
O1 O1 O2 102.58(8) 2 6_556 ?
O2 O1 O2 109.36(8) 2 6_556 ?
O2 O1 O2 75.53(7) 4_545 6_556 ?
O3 O1 O2 51.58(6) 7_556 6_556 ?
O2 O1 O2 110.42(8) 8_556 6_556 ?
O3 O1 O2 135.00(9) 3_545 6_556 ?
O2 O1 O2 82.04(5) 7_556 6_556 ?
S O1 O1 89.75(11) . 5_556 ?
Ni O1 O1 133.20(11) 4_545 5_556 ?
O2 O1 O1 124.29(11) . 5_556 ?
O1 O1 O1 80.91(11) 2 5_556 ?
O2 O1 O1 66.01(8) 2 5_556 ?
O2 O1 O1 116.56(11) 4_545 5_556 ?
O3 O1 O1 85.52(7) 7_556 5_556 ?
O2 O1 O1 121.19(9) 8_556 5_556 ?
O3 O1 O1 177.63(10) 3_545 5_556 ?
O2 O1 O1 75.79(7) 7_556 5_556 ?
O2 O1 O1 43.35(6) 6_556 5_556 ?
S O2 Ni 130.46(12) . . ?
S O2 O1 35.44(7) . . ?
Ni O2 O1 160.07(10) . . ?
S O2 O2 35.53(8) . 2 ?
Ni O2 O2 100.61(7) . 2 ?
O1 O2 O2 60.33(7) . 2 ?
S O2 O1 34.69(6) . 2 ?
Ni O2 O1 117.31(10) . 2 ?
O1 O2 O1 60.03(10) . 2 ?
O2 O2 O1 59.41(7) 2 2 ?
S O2 O3 106.56(11) . 3_545 ?
Ni O2 O3 122.85(9) . 3_545 ?
O1 O2 O3 72.58(8) . 3_545 ?
O2 O2 O3 129.67(10) 2 3_545 ?
O1 O2 O3 111.58(11) 2 3_545 ?
S O2 O1 160.47(11) . 4 ?
Ni O2 O1 47.31(6) . 4 ?
O1 O2 O1 138.38(8) . 4 ?
O2 O2 O1 127.57(6) 2 4 ?
O1 O2 O1 161.31(11) 2 4 ?
O3 O2 O1 78.00(9) 3_545 4 ?
S O2 O3 135.26(10) . 5_565 ?
Ni O2 O3 47.37(6) . 5_565 ?
O1 O2 O3 150.13(11) . 5_565 ?
O2 O2 O3 133.21(11) 2 5_565 ?
O1 O2 O3 101.25(8) 2 5_565 ?
O3 O2 O3 96.59(7) 3_545 5_565 ?
O1 O2 O3 60.90(7) 4 5_565 ?
S O2 O1 90.89(9) . 8_455 ?
Ni O2 O1 42.56(5) . 8_455 ?
O1 O2 O1 126.24(10) . 8_455 ?
O2 O2 O1 71.91(8) 2 8_455 ?
O1 O2 O1 75.68(9) 2 8_455 ?
O3 O2 O1 158.31(7) 3_545 8_455 ?
O1 O2 O1 89.87(8) 4 8_455 ?
O3 O2 O1 61.72(6) 5_565 8_455 ?
S O2 O3 101.70(9) . . ?
Ni O2 O3 44.67(4) . . ?
O1 O2 O3 116.64(8) . . ?
O2 O2 O3 66.17(4) 2 . ?
O1 O2 O3 115.90(9) 2 . ?
O3 O2 O3 128.83(9) 3_545 . ?
O1 O2 O3 62.86(6) 4 . ?
O3 O2 O3 92.04(6) 5_565 . ?
O1 O2 O3 56.78(5) 8_455 . ?
S O2 O1 82.63(8) . 7_556 ?
Ni O2 O1 94.95(7) . 7_556 ?
O1 O2 O1 71.69(8) . 7_556 ?
O2 O2 O1 62.31(7) 2 7_556 ?
O1 O2 O1 116.80(9) 2 7_556 ?
O3 O2 O1 87.87(7) 3_545 7_556 ?
O1 O2 O1 78.53(6) 4 7_556 ?
O3 O2 O1 136.96(9) 5_565 7_556 ?
O1 O2 O1 107.47(8) 8_455 7_556 ?
O3 O2 O1 54.47(5) . 7_556 ?
S O2 O1 93.53(9) . 6 ?
Ni O2 O1 115.18(7) . 6 ?
O1 O2 O1 83.36(6) . 6 ?
O2 O2 O1 127.92(6) 2 6 ?
O1 O2 O1 70.64(8) 2 6 ?
O3 O2 O1 56.87(6) 3_545 6 ?
O1 O2 O1 104.47(7) 4 6 ?
O3 O2 O1 67.81(7) 5_565 6 ?
O1 O2 O1 110.42(8) 8_455 6 ?
O3 O2 O1 159.85(7) . 6 ?
O1 O2 O1 141.97(7) 7_556 6 ?
Ni O3 Ni 123.80(14) . 2 ?
Ni O3 O2 111.56(4) . 3_455 ?
Ni O3 O2 90.72(4) 2 3_455 ?
Ni O3 O2 90.72(4) . 4 ?
Ni O3 O2 111.56(4) 2 4 ?
O2 O3 O2 132.41(14) 3_455 4 ?
Ni O3 O1 45.40(5) . 8_455 ?
Ni O3 O1 104.61(9) 2 8_455 ?
O2 O3 O1 71.55(6) 3_455 8_455 ?
O2 O3 O1 134.57(5) 4 8_455 ?
Ni O3 O1 104.61(9) . 7_556 ?
Ni O3 O1 45.40(5) 2 7_556 ?
O2 O3 O1 134.57(5) 3_455 7_556 ?
O2 O3 O1 71.55(6) 4 7_556 ?
O1 O3 O1 122.96(13) 8_455 7_556 ?
Ni O3 O2 162.25(9) . 6_566 ?
Ni O3 O2 45.24(4) 2 6_566 ?
O2 O3 O2 84.39(6) 3_455 6_566 ?
O2 O3 O2 83.41(7) 4 6_566 ?
O1 O3 O2 141.90(7) 8_455 6_566 ?
O1 O3 O2 57.64(6) 7_556 6_566 ?
Ni O3 O2 45.24(4) . 5_565 ?
Ni O3 O2 162.25(9) 2 5_565 ?
O2 O3 O2 83.41(7) 3_455 5_565 ?
O2 O3 O2 84.39(6) 4 5_565 ?
O1 O3 O2 57.64(6) 8_455 5_565 ?
O1 O3 O2 141.90(7) 7_556 5_565 ?
O2 O3 O2 149.45(13) 6_566 5_565 ?
Ni O3 O2 82.70(9) . 2 ?
Ni O3 O2 42.72(6) 2 2 ?
O2 O3 O2 96.38(5) 3_455 2 ?
O2 O3 O2 128.83(9) 4 2 ?
O1 O3 O2 66.62(7) 8_455 2 ?
O1 O3 O2 61.53(7) 7_556 2 ?
O2 O3 O2 87.96(6) 6_566 2 ?
O2 O3 O2 121.17(8) 5_565 2 ?
Ni O3 O2 42.72(6) . . ?
Ni O3 O2 82.70(9) 2 . ?
O2 O3 O2 128.83(9) 3_455 . ?
O2 O3 O2 96.38(5) 4 . ?
O1 O3 O2 61.53(7) 8_455 . ?
O1 O3 O2 66.62(7) 7_556 . ?
O2 O3 O2 121.17(8) 6_566 . ?
O2 O3 O2 87.96(6) 5_565 . ?
O2 O3 O2 47.67(8) 2 . ?
Ni O3 O1 122.79(9) . 3_455 ?
Ni O3 O1 42.43(4) 2 3_455 ?
O2 O3 O1 49.66(5) 3_455 3_455 ?
O2 O3 O1 144.65(6) 4 3_455 ?
O1 O3 O1 80.71(6) 8_455 3_455 ?
O1 O3 O1 87.83(7) 7_556 3_455 ?
O2 O3 O1 61.25(5) 6_566 3_455 ?
O2 O3 O1 126.23(5) 5_565 3_455 ?
O2 O3 O1 54.60(6) 2 3_455 ?
O2 O3 O1 101.40(9) . 3_455 ?
Ni O3 O1 42.43(4) . 4 ?
Ni O3 O1 122.79(9) 2 4 ?
O2 O3 O1 144.65(6) 3_455 4 ?
O2 O3 O1 49.66(5) 4 4 ?
O1 O3 O1 87.83(7) 8_455 4 ?
O1 O3 O1 80.71(6) 7_556 4 ?
O2 O3 O1 126.23(5) 6_566 4 ?
O2 O3 O1 61.25(5) 5_565 4 ?
O2 O3 O1 101.40(9) 2 4 ?
O2 O3 O1 54.60(6) . 4 ?
O1 O3 O1 155.92(13) 3_455 4 ?
Ni O3 H 106(2) . . ?
Ni O3 H 107(2) 2 . ?
O2 O3 H 119(2) 3_455 . ?
O2 O3 H 16(2) 4 . ?
O1 O3 H 147(2) 8_455 . ?
O1 O3 H 74(2) 7_556 . ?
O2 O3 H 71(2) 6_566 . ?
O2 O3 H 91(2) 5_565 . ?
O2 O3 H 136(2) 2 . ?
O2 O3 H 112(2) . . ?
O1 O3 H 131(2) 3_455 . ?
O1 O3 H 66(2) 4 . ?
Ni O3 H 107(2) . 2 ?
Ni O3 H 106(2) 2 2 ?
O2 O3 H 16(2) 3_455 2 ?
O2 O3 H 119(2) 4 2 ?
O1 O3 H 74(2) 8_455 2 ?
O1 O3 H 147(2) 7_556 2 ?
O2 O3 H 91(2) 6_566 2 ?
O2 O3 H 71(2) 5_565 2 ?
O2 O3 H 112(2) 2 2 ?
O2 O3 H 136(2) . 2 ?
O1 O3 H 66(2) 3_455 2 ?
O1 O3 H 131(2) 4 2 ?
H O3 H 107(5) . 2 ?
loop_
_geom_bond_atom_site_label_1
_geom_bond_atom_site_label_2
_geom_bond_distance
_geom_bond_site_symmetry_2
_geom_bond_publ_flag
Ni O1 2.033(2) 8_455 ?
Ni O1 2.033(2) 4 ?
Ni O2 2.0373(19) 5_565 ?
Ni O2 2.0373(19) . ?
Ni O3 2.1111(14) 5_565 ?
Ni O3 2.1111(14) . ?
Ni O2 3.422(2) 8_455 ?
Ni O2 3.422(2) 4 ?
Ni O2 3.4418(17) 6_565 ?
Ni O2 3.4418(17) 2 ?
S O1 1.470(2) 2 ?
S O1 1.470(2) . ?
S O2 1.4894(18) . ?
S O2 1.4894(18) 2 ?
O1 O2 2.404(3) . ?
O1 O1 2.416(4) 2 ?
O1 O2 2.426(3) 2 ?
O1 O2 2.756(3) 4_545 ?
O1 O3 2.851(2) 7_556 ?
O1 O2 2.995(3) 8_556 ?
O1 O3 3.009(2) 3_545 ?
O1 O2 3.215(3) 7_556 ?
O1 O2 3.229(3) 6_556 ?
O1 O1 3.335(4) 5_556 ?
O2 O2 2.424(3) 2 ?
O2 O3 2.667(2) 3_545 ?
O2 O3 2.8663(18) 5_565 ?
O2 O3 3.000(3) . ?
O3 H 0.84(3) . ?
O3 H 0.84(3) 2 ?
loop_
_geom_hbond_atom_site_label_D
_geom_hbond_atom_site_label_H
_geom_hbond_atom_site_label_A
_geom_hbond_distance_DH
_geom_hbond_distance_HA
_geom_hbond_distance_DA
_geom_hbond_angle_DHA
_geom_hbond_site_symmetry_A
_geom_hbond_publ_flag
O3 H O2 0.84(3) 1.87(3) 2.667(2) 157(3) 4 yes
loop_
_geom_torsion_atom_site_label_1
_geom_torsion_atom_site_label_2
_geom_torsion_atom_site_label_3
_geom_torsion_atom_site_label_4
_geom_torsion
_geom_torsion_site_symmetry_1
_geom_torsion_site_symmetry_2
_geom_torsion_site_symmetry_3
_geom_torsion_site_symmetry_4
_geom_torsion_publ_flag
O1 S O1 Ni 114.28(19) 2 . . 4_545 ?
O2 S O1 Ni -6.6(2) . . . 4_545 ?
O2 S O1 Ni -125.77(17) 2 . . 4_545 ?
O1 S O1 O2 120.85(9) 2 . . . ?
O2 S O1 O2 -119.20(16) 2 . . . ?
O2 S O1 O1 -120.85(9) . . . 2 ?
O2 S O1 O1 119.95(10) 2 . . 2 ?
O1 S O1 O2 -119.95(10) 2 . . 2 ?
O2 S O1 O2 119.20(16) . . . 2 ?
O1 S O1 O2 49.77(11) 2 . . 4_545 ?
O2 S O1 O2 -71.08(15) . . . 4_545 ?
O2 S O1 O2 169.72(16) 2 . . 4_545 ?
O1 S O1 O2 160.99(13) 2 . . 8_556 ?
O2 S O1 O2 40.14(12) . . . 8_556 ?
O2 S O1 O2 -79.07(12) 2 . . 8_556 ?
O1 S O1 O3 106.52(8) 2 . . 3_545 ?
O2 S O1 O3 -14.33(11) . . . 3_545 ?
O2 S O1 O3 -133.54(10) 2 . . 3_545 ?
O1 S O1 O2 -148.76(12) 2 . . 7_556 ?
O2 S O1 O2 90.39(11) . . . 7_556 ?
O2 S O1 O2 -28.81(13) 2 . . 7_556 ?
O1 S O1 O2 -51.29(9) 2 . . 6_556 ?
O2 S O1 O2 -172.14(11) . . . 6_556 ?
O2 S O1 O2 68.66(16) 2 . . 6_556 ?
O1 S O1 O1 -74.29(8) 2 . . 5_556 ?
O2 S O1 O1 164.86(9) . . . 5_556 ?
O2 S O1 O1 45.66(12) 2 . . 5_556 ?
O1 S O2 Ni 80.06(16) 2 . . . ?
O1 S O2 Ni -158.85(13) . . . . ?
O2 S O2 Ni -38.93(9) 2 . . . ?
O1 S O2 O1 -121.08(17) 2 . . . ?
O2 S O2 O1 119.93(10) 2 . . . ?
O1 S O2 O2 118.99(10) 2 . . 2 ?
O1 S O2 O2 -119.93(10) . . . 2 ?
O1 S O2 O1 121.08(17) . . . 2 ?
O2 S O2 O1 -118.99(10) 2 . . 2 ?
O1 S O2 O3 -104.16(11) 2 . . 3_545 ?
O1 S O2 O3 16.92(12) . . . 3_545 ?
O2 S O2 O3 136.85(10) 2 . . 3_545 ?
O1 S O2 O1 154.9(4) 2 . . 4 ?
O1 S O2 O1 -84.0(4) . . . 4 ?
O2 S O2 O1 35.9(3) 2 . . 4 ?
O1 S O2 O3 13.89(19) 2 . . 5_565 ?
O1 S O2 O3 134.97(15) . . . 5_565 ?
O2 S O2 O3 -105.10(16) 2 . . 5_565 ?
O1 S O2 O1 62.79(12) 2 . . 8_455 ?
O1 S O2 O1 -176.13(9) . . . 8_455 ?
O2 S O2 O1 -56.20(6) 2 . . 8_455 ?
O1 S O2 O3 118.99(10) 2 . . . ?
O1 S O2 O3 -119.93(10) . . . . ?
O2 S O2 O3 0.001(0) 2 . . . ?
O1 S O2 O1 170.29(10) 2 . . 7_556 ?
O1 S O2 O1 -68.63(11) . . . 7_556 ?
O2 S O2 O1 51.30(5) 2 . . 7_556 ?
O1 S O2 O1 -47.73(13) 2 . . 6 ?
O1 S O2 O1 73.35(9) . . . 6 ?
O2 S O2 O1 -166.72(9) 2 . . 6 ?
