#------------------------------------------------------------------------------
#$Date: 2022-03-06 06:37:54 +0200 (Sun, 06 Mar 2022) $
#$Revision: 273468 $
#$URL: file:///home/coder/svn-repositories/cod/cif/1/56/59/1565934.cif $
#------------------------------------------------------------------------------
#
# This file is available in the Crystallography Open Database (COD),
# http://www.crystallography.net/
#
# All data on this site have been placed in the public domain by the
# contributors.
#
data_1565934
loop_
_publ_author_name
'Wildner, Manfred'
'Zakharov, Boris A.'
'Bogdanov, Nikita E.'
'Talla, Dominik'
'Boldyreva, Elena V.'
'Miletich, Ronald'
_publ_section_title
;
 Crystallography relevant to Mars and Galilean icy moons: crystal behavior
 of kieserite-type monohydrate sulfates at extraterrestrial conditions
 down to 15 K
;
_journal_issue                   2
_journal_name_full               IUCrJ
_journal_page_first              194
_journal_page_last               203
_journal_paper_doi               10.1107/S2052252521012720
_journal_volume                  9
_journal_year                    2022
_chemical_formula_sum            'H2 Mg O5 S'
_chemical_formula_weight         138.39
_space_group_crystal_system      monoclinic
_space_group_IT_number           15
_space_group_name_Hall           '-C 2yc'
_space_group_name_H-M_alt        'C 1 2/c 1'
_atom_sites_solution_hydrogens   difmap
_audit_creation_method           SHELXL-2017/1
_cell_angle_alpha                90
_cell_angle_beta                 117.787(12)
_cell_angle_gamma                90
_cell_formula_units_Z            4
_cell_length_a                   6.8611(6)
_cell_length_b                   7.6716(6)
_cell_length_c                   7.6014(7)
_cell_measurement_temperature    15(2)
_cell_volume                     353.97(7)
_computing_structure_refinement  'SHELXL-2017/1 (Sheldrick, 2017)'
_diffrn_ambient_temperature      15(2)
_diffrn_measured_fraction_theta_full 0.991
_diffrn_measured_fraction_theta_max 0.874
_diffrn_radiation_type           MoK\a
_diffrn_radiation_wavelength     0.71073
_diffrn_reflns_av_R_equivalents  0.0230
_diffrn_reflns_av_unetI/netI     0.0270
_diffrn_reflns_Laue_measured_fraction_full 0.991
_diffrn_reflns_Laue_measured_fraction_max 0.874
_diffrn_reflns_limit_h_max       9
_diffrn_reflns_limit_h_min       -7
_diffrn_reflns_limit_k_max       9
_diffrn_reflns_limit_k_min       -8
_diffrn_reflns_limit_l_max       8
_diffrn_reflns_limit_l_min       -9
_diffrn_reflns_number            1215
_diffrn_reflns_point_group_measured_fraction_full 0.991
_diffrn_reflns_point_group_measured_fraction_max 0.874
_diffrn_reflns_theta_full        25.242
_diffrn_reflns_theta_max         29.185
_diffrn_reflns_theta_min         4.246
_exptl_absorpt_coefficient_mu    0.973
_exptl_crystal_density_diffrn    2.597
_exptl_crystal_F_000             280
_exptl_crystal_size_max          0.380
_exptl_crystal_size_mid          0.300
_exptl_crystal_size_min          0.060
_refine_diff_density_max         0.408
_refine_diff_density_min         -0.505
_refine_diff_density_rms         0.084
_refine_ls_extinction_coef       0.077(5)
_refine_ls_extinction_expression Fc^*^=kFc[1+0.001xFc^2^\l^3^/sin(2\q)]^-1/4^
_refine_ls_extinction_method     'SHELXL-2017/1 (Sheldrick 2017)'
_refine_ls_goodness_of_fit_ref   1.112
_refine_ls_hydrogen_treatment    refall
_refine_ls_matrix_type           full
_refine_ls_number_parameters     40
_refine_ls_number_reflns         422
_refine_ls_number_restraints     0
_refine_ls_restrained_S_all      1.112
_refine_ls_R_factor_all          0.0266
_refine_ls_R_factor_gt           0.0230
_refine_ls_shift/su_max          0.000
_refine_ls_shift/su_mean         0.000
_refine_ls_structure_factor_coef Fsqd
_refine_ls_weighting_details
'w=1/[\s^2^(Fo^2^)+(0.0260P)^2^+0.4700P] where P=(Fo^2^+2Fc^2^)/3'
_refine_ls_weighting_scheme      calc
_refine_ls_wR_factor_gt          0.0547
_refine_ls_wR_factor_ref         0.0577
_reflns_Friedel_coverage         0.000
_reflns_number_gt                381
_reflns_number_total             422
_reflns_threshold_expression     'I > 2\s(I)'
_cod_data_source_file            lt5044.cif
_cod_data_source_block           MgSO4H2O_He_15K
_cod_depositor_comments
'Adding full bibliography for 1565934--1565967.cif.'
_cod_original_cell_volume        353.97(6)
_cod_original_sg_symbol_H-M      'C 2/c'
_cod_database_code               1565934
_shelx_shelxl_version_number     2017/1
_shelx_space_group_comment
;
The symmetry employed for this shelxl refinement is uniquely defined
by the following loop, which should always be used as a source of
symmetry information in preference to the above space-group names.
They are only intended as comments.
;
_shelx_estimated_absorpt_t_min   0.709
_shelx_estimated_absorpt_t_max   0.944
_shelx_res_file
;
TITL kieserite cell setting from literature
    MgSO4_viekies_He-exp2-15K.res
    created by SHELXL-2017/1 at 09:15:53 on 25-Dec-2020
REM meas. CELL 0.71073   6.848134   7.665281   7.5952  90.0000 117.709  90.0000
REM latt corr for Nonius20C  +.0130 +.0063 +.0062         +.078
CELL 0.71073   6.861134   7.671581   7.6014  90.0000 117.787  90.0000
ZERR    4.00   0.000618   0.000573   0.0007   0.0000   0.012   0.0000
LATT  7
SYMM -X, Y, 1/2-Z
SFAC O H S MG
UNIT 20 8 4 4
OMIT -2 2 2
OMIT 1 1 2
OMIT -1 1 3
L.S. 6
BOND
CONF
CONN 12 1.8 $O
EQIV $9 -x+1/2, y+1/2, -z+1/2
BOND $H
FMAP 2
PLAN 20
ACTA
HTAB O3 O2_$9
HTAB
TEMP -258
SIZE 0.38 0.30 0.06
WGHT    0.026000    0.470000
EXTI    0.076818
FVAR      10.04063
MG    4    0.000000    0.500000    0.000000    10.50000    0.00348    0.00379 =
         0.00492    0.00048    0.00255   -0.00005
S     3    0.000000    0.157425    0.250000    10.50000    0.00305    0.00293 =
         0.00372    0.00000    0.00219    0.00000
O1    1    0.175227    0.048230    0.397244    11.00000    0.00403    0.00421 =
         0.00621    0.00112    0.00215    0.00103
O2    1    0.095975    0.270050    0.151415    11.00000    0.00423    0.00410 =
         0.00690    0.00122    0.00337   -0.00003
O3    1    0.000000    0.633384    0.250000    10.50000    0.00366    0.00405 =
         0.00647    0.00000    0.00199    0.00000
H     2    0.100713    0.699719    0.288318    11.00000    0.02083
HKLF 4 1   -1 0 0  0 -1 0  1 0 1




REM  kieserite cell setting from literature
REM R1 =  0.0230 for     381 Fo > 4sig(Fo)  and  0.0266 for all     422 data
REM     40 parameters refined using      0 restraints

END

WGHT      0.0259      0.4526

REM Instructions for potential hydrogen bonds
EQIV $20 x+1/2, y+1/2, z
HTAB O3 S_$20
HTAB O3 O2_$9

REM Highest difference peak  0.408,  deepest hole -0.505,  1-sigma level  0.084
Q1    1  -0.0033  0.2276  0.1624  11.00000  0.05    0.41
Q2    1   0.1223  0.2310  0.2437  11.00000  0.05    0.33
Q3    1   0.1566  0.0723  0.2794  11.00000  0.05    0.28
Q4    1   0.0950  0.0996  0.3377  11.00000  0.05    0.25
Q5    1   0.0691  0.3970  0.0812  11.00000  0.05    0.24
Q6    1  -0.0159  0.4602  0.0949  11.00000  0.05    0.23
Q7    1   0.2233  0.3571  0.2965  11.00000  0.05    0.21
Q8    1   0.0947 -0.0421  0.3458  11.00000  0.05    0.21
Q9    1   0.0720  0.3730  0.1968  11.00000  0.05    0.20
Q10   1  -0.0662 -0.0431  0.4154  11.00000  0.05    0.20
Q11   1   0.0112  0.3080  0.0944  11.00000  0.05    0.20
Q12   1   0.0271  0.4120 -0.0984  11.00000  0.05    0.20
Q13   1   0.1097  0.8581  0.0981  11.00000  0.05    0.19
Q14   1   0.0752  0.0618  0.4521  11.00000  0.05    0.18
Q15   1   0.2073  0.0342  0.6165  11.00000  0.05    0.17
Q16   1   0.0493  0.7956  0.3491  11.00000  0.05    0.17
Q17   1   0.1773 -0.0252  0.2613  11.00000  0.05    0.16
Q18   1   0.1497  0.1914  0.1232  11.00000  0.05    0.16
Q19   1   0.2278  0.5518  0.2851  11.00000  0.05    0.15
Q20   1   0.0035  0.6750  0.3579  11.00000  0.05    0.15
;
_shelx_res_checksum              15309
_shelx_hkl_file
;
   0   0   2 182640. 3162.01   2
   0   0   2 185131. 2664.37   3
   0   0  -2 179751. 3444.77   1
   0   0  -3 262.629 227.693   1
   0   0   3 24.1232 109.687   2
   0   0   3 83.0295 125.166   1
   0   0   3 100.060 118.138   3
   0   0   4 82574.6 3229.70   1
   0   0   4 78721.0 2468.97   3
   0   0  -4 83700.5 3389.56   1
   0   0   4 83290.1 3088.15   2
   0   0   5-157.803 193.835   2
   0   0   5-421.917 302.809   1
   0   0  -5-289.688 294.600   1
   0   0   6 24614.7 2065.28   2
   0   0   6 24702.1 1750.49   3
   0   0  -6 23395.7 2245.31   1
   0   0   7-191.389 171.699   3
   0   0  -7 21.2378 311.786   1
   0   0  -8 268775. 8942.49   1
   0   0   8 275550. 6967.84   3
   0   0  -9-333.961 365.092   1
   0   2   0 1124.71 284.102   3
   0   2   1 480902. 5969.22   2
   0   2  -1 492488. 5039.50   3
   0   2  -2 523240. 5750.70   1
   0  -2  -2 526774. 7058.79   2
   0   2  -2 525470. 5534.93   3
   0   2   2 520688. 7033.98   2
   0  -2   2 526798. 5818.20   3
   0   2  -3 136823. 3386.09   1
   0  -2  -3 137417. 4067.93   2
   0   2   3 136568. 3937.90   2
   0  -2  -3 131320. 4311.13   1
   0   2  -3 136023. 3130.02   3
   0  -2   3 136707. 3280.41   3
   0   2   4 18438.6 1806.53   1
   0   2   4 18412.7 1582.01   2
   0  -2  -4 17085.0 1750.87   1
   0   2  -4 18029.6 1277.32   3
   0  -2  -4 19123.8 1711.04   2
   0  -2   4 12636.0 1094.51   3
   0   2  -4 18411.4 1443.85   1
   0   2  -5 186114. 5309.31   1
   0  -2  -5 190309. 5944.20   2
   0   2   5 198319. 6563.09   1
   0  -2  -5 191732. 6360.74   1
   0   2   5 192907. 5572.32   2
   0  -2   6 4280.81 754.472   3
   0   2   6 4657.96 967.245   2
   0   2  -6 3004.93 788.885   1
   0  -2  -6 4924.33 1138.04   1
   0  -2   6 4744.02 971.938   2
   0  -2   7 169232. 5203.94   3
   0   2  -7 158657. 6064.35   1
   0   2   7 153319. 5289.84   3
   0  -2  -7 164559. 7018.82   1
   0   2   8 3282.87 824.075   3
   0   2  -8 2970.35 897.273   1
   0  -2  -8 1953.65 987.183   1
   0   4   0 107607. 3582.07   3
   0   4  -1 204.487 195.836   3
   0   4   1 251.062 217.376   3
   0  -4  -2 340098. 7379.98   2
   0   4   2 342550. 7057.55   2
   0   4  -2 338901. 5958.18   3
   0  -4  -3 300134. 7254.60   2
   0   4   3 315459. 7170.58   2
   0  -4   3 292731. 6355.80   3
   0   4  -3 297317. 5801.91   3
   0   4  -4 93903.2 3416.61   3
   0   4   4 100035. 4328.40   2
   0  -4   4 95372.7 3750.74   3
   0   4  -4 85905.9 3309.87   1
   0  -4  -4 94547.7 4286.19   2
   0   4  -5 118061. 4025.01   3
   0  -4  -5 112881. 5112.06   2
   0  -4   5 105596. 4153.39   3
   0   4  -5 112052. 4048.58   1
   0   4  -6 255427. 6776.33   1
   0  -4  -6 269643. 8408.66   2
   0  -4   6 264959. 6966.29   3
   0  -4  -7 9025.00 1668.03   2
   0   4  -7 7464.51 1284.91   1
   0  -4   7 7370.68 1269.97   3
   0  -6   0 111645. 4962.64   2
   0  -6  -1 39456.2 2992.28   2
   0   6   1 39988.0 2744.20   1
   0  -6   1 37695.0 2842.27   2
   0  -6   2 3503.78 897.643   2
   0  -6  -2 3409.37 904.639   2
   0  -6  -3 96745.6 4988.89   2
   0  -6   3 108289. 4949.57   3
   0  -6   4 353844. 9045.73   3
   0   6  -4 344513. 7531.05   1
   0  -6  -4 354496. 9891.14   2
   0  -6  -5 4491.39 1139.17   2
   0  -6   5 5100.60 1150.65   3
   0   6  -5 2025.99 636.487   1
   0  -6  -6 20373.5 2595.42   2
   0   6  -6 22756.4 2110.91   1
   0  -6   6 23380.9 2515.55   3
   0  -6  -7 351.715 494.009   2
   0  -8   0 35485.0 3410.75   2
   0  -8  -1 212718. 8484.07   2
   0  -8   1 217431. 8479.40   2
   0  -8   2 3716.22 1191.41   2
   0  -8  -2 3110.92 1030.25   2
   0  -8  -3 19679.0 2644.15   2
   0  -8   3 24553.1 2898.00   2
   0  -8   4 48232.8 4104.08   2
   0  -8  -4 43936.2 4066.57   2
   0  -8  -5 18298.7 2759.04   2
   0  -8   5 13941.5 2251.72   2
  -1   1   9 13114.7 1755.82   3
  -1  -1   9 9886.31 1486.45   3
   1   1  -8 1796.86 656.060   1
  -1   1   8 1218.27 496.814   3
   1  -1  -8 3268.05 959.008   1
  -1  -1   8 1910.38 684.211   3
   1   1  -7 198921. 6088.46   1
  -1  -1   7 187087. 5504.13   3
   1  -1  -7 190668. 6673.39   1
  -1  -1   7 196239. 5985.95   1
  -1   1   7 185612. 5714.09   3
   1   1  -6 2014.15 601.387   1
  -1  -1   6 3390.49 687.942   3
  -1  -1   6 3018.06 691.607   1
   1  -1  -6 3163.00 837.013   1
  -1   1   6 4225.35 942.181   1
  -1  -1   6 5042.54 1006.11   2
  -1   1   6 2746.36 655.753   3
  -1   1   6 5240.99 988.769   2
  -1   1   5 21102.1 1850.15   2
   1   1  -5 19211.3 1510.07   1
  -1   1   5 20215.9 1559.98   3
  -1   1   5 19599.6 1771.82   1
  -1  -1   5 18987.7 1765.24   2
   1  -1  -5 19070.3 1749.36   1
  -1  -1   5 22316.0 1561.57   1
  -1  -1   5 20394.3 1504.23   3
  -1  -1   4 47693.8 1928.51   1
  -1   1   4 46498.1 2408.61   1
   1  -1  -4 43645.9 2451.65   2
   1   1  -4 45519.7 1968.11   1
  -1   1   4 42192.1 2346.11   2
   1   1  -3 2002.16 402.295   3
  -1   1   3 2864.50 513.197   1
  -1  -1   3 3107.78 488.414   3
  -1  -1   3 2017.27 326.316   1
  -1   1   3 2480.39 509.997   2
   1   1  -3 2646.34 386.210   1
   1   1  -2 365137. 4389.67   3
  -1  -1   2 351983. 2491.75   1
   1   1  -2 351268. 2625.65   1
  -1   1   2 371168. 5267.67   2
   1   1  -1 14081.0 742.930   3
  -1   1   1 13767.7 866.047   2
  -1   1   0 262139. 3033.50   2
  -1  -1   0 265137. 3468.32   1
   1   1   0 257648. 2896.77   3
  -1  -1  -1 494788. 6222.88   1
   1  -1   1 529904. 3558.53   3
  -1   1  -1 489246. 5828.90   1
  -1  -1  -1 498980. 4474.42   2
   1  -1   2 39629.1 1927.91   1
  -1  -1  -2 43064.7 2208.48   1
  -1   1  -2 39900.5 1908.87   1
   1   1   2 44360.1 1605.27   2
  -1  -1  -2 41200.5 1576.32   2
   1  -1   2 42102.6 1169.34   3
  -1   1  -2 40540.9 1120.95   3
  -1  -1  -3 200247. 4052.80   2
  -1  -1  -3 205828. 5525.22   1
   1   1   3 189556. 3835.79   2
  -1   1  -3 192992. 4828.50   1
   1  -1   3 200711. 4957.24   1
   1  -1   3 189599. 3123.38   3
   1  -1   4 18731.5 1135.78   3
   1  -1   4 18845.8 1702.91   1
   1   1   4 17742.9 1338.53   2
  -1  -1  -4 20131.3 1959.13   1
  -1   1  -4 18344.7 1731.39   1
   1   1   4 18458.0 1824.72   1
   1  -1   4 18260.5 1344.94   2
   1  -1   5 73697.8 3055.24   2
   1  -1   5 80273.9 3860.35   1
   1   1   5 76121.8 3068.78   2
  -1  -1  -5 73883.5 4174.24   1
   1  -1   5 72148.0 2538.25   3
  -1   1  -5 75850.2 3896.75   1
   1   1   6 49189.0 2429.69   3
   1  -1   6 53346.8 2808.63   2
   1   1   6 52387.3 2785.10   2
  -1   1  -6 48310.7 3419.30   1
  -1  -1  -6 56597.6 3887.59   1
  -1   1  -7 1877.80 728.703   1
  -1  -1  -7 1164.94 721.227   1
   1   1   7 2500.70 616.381   3
  -1   1  -8 74017.9 4937.15   1
  -1  -1  -8 80061.4 5361.87   1
  -1   3   9 121897. 5740.10   3
  -1   3   8 15908.8 1984.27   3
  -1  -3   8 12663.3 1672.10   3
  -1  -3   7 340.333 279.956   3
   1  -3  -7 649.419 468.485   2
   1   3  -7-467.688 294.164   1
   1  -3  -6 61179.2 3970.38   2
  -1  -3   6 61415.6 3195.34   3
   1   3  -6 64000.3 2981.11   1
   1   3  -5 192060. 4637.91   1
  -1   3   5 222807. 6652.20   2
   1   3  -5 221998. 5429.61   3
  -1  -3   5 210927. 5528.12   3
   1  -3  -5 203356. 6677.61   2
   1   3  -4 74898.3 2367.61   1
   1  -3  -4 72526.3 3652.36   2
  -1  -3   4 75033.3 3083.73   3
   1   3  -4 66871.2 2795.99   3
  -1   3   4 82963.1 3776.94   2
  -1   3   4 86743.2 3895.78   1
   1   3  -3 701.953 283.180   3
   1   3  -3 380.129 171.122   1
  -1   3   3 528.962 324.999   2
   1   3  -2 290886. 5060.35   3
  -1   3   2 300018. 6208.17   2
   1   3  -1 85704.4 2671.39   3
  -1   3   1 83566.4 3005.63   2
   1   3   0 30171.8 1619.22   1
  -1   3   0 28056.1 1591.27   3
   1   3   0 27008.5 1560.05   3
  -1  -3  -1 71438.2 3012.55   1
   1   3   1 65661.3 2629.91   3
  -1   3  -1 63202.8 2140.45   3
   1  -3   1 69279.7 2598.51   2
  -1  -3  -1 62457.4 2551.19   2
  -1  -3  -2 41720.6 2243.48   2
   1   3   2 43494.4 2166.25   2
  -1  -3  -2 44650.9 2633.02   1
  -1   3  -2 40141.4 1716.59   3
   1  -3   2 41699.6 1947.09   3
   1  -3   3 472956. 6739.45   3
  -1  -3  -3 467585. 9350.30   1
  -1   3  -3 465602. 7964.25   1
   1   3   3 470759. 7724.28   2
  -1  -3  -3 471041. 7923.36   2
  -1   3  -3 472168. 6123.17   3
   1  -3   4-90.2217 110.569   3
   1   3   4 149.368 188.523   2
  -1  -3  -4 488.195 350.396   2
  -1   3  -4-221.594 187.485   1
  -1  -3  -4 236.628 323.730   1
  -1   3  -4 28.4742 90.2467   3
  -1   3  -5 3200.78 603.675   3
  -1   3  -5 2384.57 746.370   1
  -1  -3  -5 2713.09 735.506   2
   1   3   5 3295.54 740.464   2
  -1  -3  -5 2193.57 842.321   1
  -1   3  -6 1344.35 553.011   1
   1  -3   6 2064.90 540.454   3
  -1  -3  -6 2786.17 761.119   2
  -1   3  -7 39850.8 3297.74   1
  -1  -3  -7 42789.7 3949.40   1
   1   3   7 44245.6 2879.83   3
  -1   3  -8 3461.38 1023.79   1
  -1  -5   8 39393.5 3322.60   3
   1  -5  -8 41750.1 3944.90   2
   1  -5  -7 109827. 6102.60   2
  -1  -5   7 109701. 5224.78   3
   1  -5  -6 19691.1 2469.82   2
  -1  -5   6 19936.2 2142.17   3
   1   5  -6 24263.8 1804.93   1
   1   5  -5 4256.06 695.361   1
  -1  -5   5 2859.25 822.838   3
   1  -5  -5 4217.60 1051.47   2
   1   5  -4 86254.6 3004.06   1
  -1  -5   4 92419.9 4215.00   3
   1  -5  -4 90880.8 4702.64   2
   1   5  -3 66643.6 3098.39   3
  -1  -5   3 63415.3 3383.33   3
   1  -5  -3 63687.8 3769.51   2
  -1   5   2 11298.2 1445.63   2
   1   5  -2 12236.4 1305.19   3
   1  -5  -2 9551.27 1430.30   2
  -1  -5   2 11102.6 1399.79   3
   1   5  -1 67230.1 3087.96   3
   1  -5  -1 65135.9 3584.51   2
  -1   5   1 64637.2 3348.46   3
  -1   5   0 20261.2 1751.38   3
   1   5   0 24661.5 1941.35   3
  -1  -5   0 22655.5 1933.68   2
   1  -5   0 21560.9 2011.51   2
   1  -5   1 183935. 5708.91   2
  -1  -5  -1 177578. 5631.82   2
   1   5   1 173728. 5395.83   3
   1   5   1 173609. 5341.30   1
  -1   5  -1 185740. 4933.92   3
   1   5   2 146118. 5415.80   1
  -1  -5  -2 145678. 5420.28   2
   1   5   2 142138. 5114.10   3
  -1   5  -2 143374. 4271.97   3
   1  -5   2 141870. 5030.57   2
  -1   5  -3 301.818 245.457   3
   1  -5   3 223.761 319.727   3
  -1  -5  -3-57.8560 245.687   2
  -1   5  -4 216466. 6372.48   1
  -1  -5  -4 224955. 7087.72   2
  -1   5  -4 225098. 5486.81   3
   1  -5   4 219337. 6252.60   3
  -1   5  -5 86275.3 4297.47   1
   1  -5   5 90594.9 4141.64   3
  -1  -5  -5 92430.4 4773.14   2
   1  -5   6 2122.18 654.992   3
  -1   5  -6 2284.45 755.506   1
  -1  -5  -6 2578.09 862.636   2
  -1  -7   7 9450.40 1788.66   3
   1  -7  -6 116204. 6731.65   2
  -1  -7   6 104497. 5771.30   3
  -1  -7   5 4669.01 1174.58   3
   1  -7  -5 5996.18 1434.00   2
  -1  -7   4 3377.23 1028.84   3
   1  -7  -4 3216.51 1035.31   2
   1  -7  -3 268801. 9043.87   2
  -1  -7   3 257452. 8495.01   3
   1  -7  -2-326.129 413.656   2
  -1  -7   2 41.0625 354.270   2
   1  -7  -1 601.444 565.405   2
   1   7  -1 151.834 177.483   1
  -1  -7   1-159.416 282.704   2
   1  -7   0 95827.1 5226.20   2
  -1  -7   0 102290. 5226.65   2
  -1  -7  -1 55236.8 3907.47   2
   1  -7   1 56576.4 3991.90   2
  -1  -7  -2 68134.7 4483.90   2
   1  -7   2 74089.4 4540.59   2
   1  -7   3 7157.12 1433.64   2
  -1  -7  -3 7823.31 1572.72   2
  -1   7  -4 15061.0 1888.92   1
  -1  -7  -4 18771.1 2494.82   2
   1  -7   4 15337.3 2116.39   2
  -1   7  -5 54122.8 3662.16   1
   1  -7   5 57398.1 4181.77   2
  -1  -7  -5 55373.3 4349.03   2
   1  -7   6 38945.2 3528.89   2
  -1  -7  -6 34520.1 3552.50   2
   1  -9  -3 2733.41 1189.86   2
  -1  -9   3 3165.72 1223.15   2
  -1  -9   2 7509.68 1730.67   2
   1  -9  -2 7631.53 1691.21   2
  -1  -9   1 283354. 10455.2   2
   1  -9  -1 298370. 10991.2   2
  -1  -9   0 17088.8 2592.22   2
   1  -9   0 17842.3 2755.14   2
   1  -9   1 16589.9 2616.59   2
  -1  -9  -1 16755.5 2646.23   2
  -1  -9  -2 644.524 579.474   2
   1  -9   2-622.230 628.802   2
   1  -9   3 15493.1 2575.23   2
  -1  -9  -3 15562.8 2518.33   2
  -2   0   9-271.386 426.026   3
  -2   0   8 1831.13 644.012   3
  -2   0   7-71.7173 216.769   3
  -2   0   7 410.678 375.754   1
  -2   0   6 645928. 9592.59   1
  -2   0   6 670714. 9838.58   3
  -2   0   5 364.893 211.578   1
  -2   0   5 421.311 265.287   3
  -2   0   5 207.992 239.925   2
  -2   0   4 142635. 4522.25   2
  -2   0   4 136388. 3280.59   1
  -2   0   3 74.8870 189.688   2
  -2   0   3 447.238 182.430   1
  -2   0   2 685205. 7535.69   2
  -2   0   1 372.723 164.933   2
  -2   0   1 35.3293 97.0721   3
  -2   0   0 201171. 3803.41   1
  -2   0   0 198280. 2320.38   2
   2   0   0 197689. 2071.27   3
  -2   0   0 199293. 2129.80   3
  -2   0  -1-12.9631 209.522   1
  -2   0  -2 313697. 6431.00   1
   2   0   3 275.914 103.387   3
   2   0   3-176.965 260.528   1
   2   0   3 139.110 99.0923   2
  -2   0  -3 425.442 359.529   1
   2   0   4 992.389 251.251   2
   2   0   4 222.495 122.453   3
  -2   0  -4 393.726 391.144   1
  -2   0  -5-94.6444 258.826   1
   2   0   5 31.4939 92.1782   2
   2   0   5 57.0183 106.779   3
  -2   0  -6 449618. 11613.3   1
  -2   0  -7-192.862 324.410   1
  -2  -2   9 53177.9 3669.18   3
  -2   2   9 54807.8 3796.70   3
  -2   2   8 17144.8 1995.57   3
  -2  -2   8 18645.6 2008.52   3
   2   2  -8 20995.6 1879.24   1
  -2   2   7 172982. 5881.61   3
  -2  -2   7 162682. 5500.08   3
   2   2  -7 181300. 4806.55   1
   2  -2  -6 42573.3 3246.59   2
  -2   2   6 38682.2 2765.03   1
   2   2  -6 39745.0 1921.97   1
  -2  -2   6 37648.4 2444.12   3
   2   2  -5 176268. 4815.78   3
  -2  -2   5 154925. 4599.40   3
   2  -2  -5 158884. 5714.18   2
  -2   2   5 168917. 5216.05   1
  -2   2   5 173869. 5698.75   2
   2   2  -5 161455. 3159.87   1
  -2   2   4 723834. 10638.7   2
  -2  -2   4 742945. 9355.07   3
  -2   2   4 710940. 10179.3   1
   2   2  -4 731306. 8902.68   3
  -2   2   3 64180.1 2879.96   2
   2   2  -3 66263.7 2465.35   3
   2   2  -2 54450.9 989.131   1
  -2   2   2 55761.4 2460.25   2
   2   2  -2 52300.8 2033.39   3
   2   2  -1 451676. 5049.87   1
  -2   2   1 439163. 6504.03   2
  -2  -2   1 454395. 5040.53   1
   2  -2  -1 451932. 6609.94   2
   2   2  -1 457638. 5651.92   3
   2   2   0 16400.2 1034.97   3
  -2  -2   0 19174.7 1328.60   1
  -2  -2   0 22804.7 1284.33   3
   2  -2   0 18391.3 1211.45   2
  -2   2   0 21230.5 1186.81   2
   2   2   0 17866.7 1284.44   1
   2   2   1 572890. 6298.88   3
  -2   2  -1 577760. 4813.98   3
   2  -2   1 584904. 6244.67   2
  -2  -2  -1 554947. 8446.65   1
  -2  -2  -1 563844. 6302.52   2
  -2  -2  -2 169416. 5206.20   1
  -2  -2  -2 162934. 3549.41   2
  -2   2  -2 166948. 4901.89   1
   2   2   2 165994. 3656.93   3
  -2   2  -2 163818. 2413.07   3
   2  -2   2 164069. 3229.72   2
   2  -2   3 117565. 2455.00   3
  -2  -2  -3 124038. 3478.95   2
   2   2   3 122276. 3126.50   2
   2   2   3 114409. 3442.52   3
   2   2   3 128878. 5083.03   1
  -2   2  -3 123125. 4568.56   1
  -2  -2  -3 126468. 5039.84   1
   2  -2   4 306668. 4273.51   3
   2  -2   4 304053. 5332.28   2
  -2  -2  -4 304124. 5935.23   2
  -2   2  -4 292248. 7655.59   1
   2   2   4 306600. 5423.60   2
  -2  -2  -4 287255. 8456.38   1
   2   2   5 74784.8 2894.03   2
   2  -2   5 69458.0 2729.49   2
  -2  -2  -5 73698.3 4558.95   1
   2  -2   5 72178.2 2291.22   3
  -2   2  -5 68970.7 4108.37   1
  -2   2  -6 851.480 577.827   1
  -2  -2  -6 1274.90 838.705   1
   2   2   6 960.895 334.200   3
  -2   2  -7 100963. 5790.29   1
  -2  -2  -7 103957. 6209.40   1
  -2   4   9 91110.3 5238.35   3
  -2  -4   9 90547.5 5046.60   3
   2  -4  -8 200562. 8661.29   2
  -2  -4   8 199677. 7051.25   3
   2  -4  -7 9232.30 1754.59   2
  -2  -4   7 8777.43 1415.45   3
  -2  -4   6 694.130 425.462   3
   2   4  -6 583.583 223.378   1
   2  -4  -6 629.824 440.630   2
   2  -4  -5 10407.0 1629.13   2
   2   4  -5 11944.3 795.025   1
  -2  -4   5 12123.5 1493.70   3
  -2   4   4 177957. 5788.31   1
  -2  -4   4 177252. 5371.41   3
   2  -4  -4 172668. 6181.72   2
   2   4  -4 174964. 4981.46   3
   2   4  -4 168912. 2593.65   1
  -2  -4   3 183659. 5253.74   3
   2   4  -3 185276. 4895.49   3
   2   4  -3 182323. 3117.43   1
  -2   4   3 188925. 5955.59   2
  -2   4   2 3945.76 833.887   2
   2   4  -2 5654.29 858.327   3
   2   4  -2 5157.41 633.937   1
   2   4  -1 67688.2 2682.80   1
  -2   4   1 65695.7 3044.17   2
   2   4  -1 62711.3 2737.11   3
  -2  -4   0 539633. 8799.18   3
  -2   4   0 541049. 8050.15   3
   2   4   0 529958. 8171.34   3
  -2  -4   0 531517. 8419.42   2
   2   4   1 45091.2 2792.16   1
  -2  -4  -1 42085.9 2690.59   1
   2   4   1 36430.0 2218.01   3
  -2   4  -1 39225.7 1988.87   3
  -2  -4  -1 38423.8 2341.53   2
  -2  -4  -2 70210.2 3335.48   2
  -2   4  -2 71142.2 2549.58   3
   2   4   2 66915.0 3132.60   3
  -2  -4  -2 72613.1 3901.23   1
   2   4   2 69873.9 3865.53   1
  -2   4  -3 183902. 4055.96   3
  -2   4  -3 185360. 5933.78   1
  -2  -4  -3 184572. 5444.67   2
  -2  -4  -3 195738. 6820.46   1
   2   4   3 186164. 5480.63   3
  -2  -4  -4 262952. 8586.62   1
  -2  -4  -4 260106. 6692.43   2
   2   4   4 246355. 6619.46   3
  -2   4  -4 248137. 4773.67   3
  -2  -4  -5 47080.6 3034.48   2
  -2  -4  -5 47612.8 3993.32   1
  -2   4  -5 41665.2 3254.53   1
  -2  -4  -6 1868.29 942.587   1
  -2   4  -6 2762.94 946.814   1
  -2   4  -7 362.221 581.333   1
  -2  -6   8 25974.4 2939.61   3
  -2  -6   7 78.7727 376.439   3
   2  -6  -7-640.988 633.278   2
   2  -6  -6 135040. 6937.51   2
  -2  -6   6 126644. 5890.32   3
   2  -6  -5 48047.1 3949.83   2
   2   6  -5 48609.0 1942.86   1
  -2  -6   5 40180.1 3244.99   3
   2  -6  -4 247.896 360.786   2
  -2  -6   4 480.140 398.551   3
   2   6  -3 230735. 5128.10   1
   2  -6  -3 239159. 8052.15   2
  -2  -6   3 217404. 7018.37   3
  -2  -6   2 260841. 7647.64   3
   2  -6  -2 244961. 8022.19   2
   2   6  -1 10269.9 1285.80   1
   2  -6  -1 10230.4 1633.03   2
  -2  -6   1 9936.57 1513.62   3
  -2  -6   1 12927.7 1668.12   2
   2   6   0 26357.3 2224.47   1
   2  -6   0 24065.9 2462.16   2
  -2  -6   0 24031.3 2286.56   2
   2  -6   1 9618.52 1525.01   2
  -2  -6  -1 10442.7 1549.16   2
   2  -6   2 344623. 9048.71   2
  -2  -6  -2 333797. 9210.76   2
  -2   6  -2 347834. 7268.27   3
  -2   6  -3 56019.8 3596.23   1
  -2  -6  -3 60634.1 3934.74   2
   2  -6   3 55999.2 3593.03   2
  -2  -6  -4 10017.9 1675.26   2
  -2   6  -4 9663.25 1573.82   1
   2  -6   4 8828.05 1463.16   2
  -2  -6  -5 69364.7 4364.52   2
  -2   6  -5 63698.0 4231.14   1
   2  -6   5 71097.0 4127.08   2
  -2   6  -6 58852.3 4431.75   1
  -2  -8   6 9617.63 1891.85   3
   2  -8  -5 136736. 7429.20   2
  -2  -8   5 139715. 7169.38   3
  -2  -8   4 2370.55 934.347   3
   2  -8  -4 1343.26 778.550   2
   2  -8  -3 88480.4 5668.03   2
  -2  -8   3 77517.8 5166.28   3
   2  -8  -2 104285. 6123.92   2
  -2  -8   2 96618.3 5551.26   2
   2  -8  -1 85367.0 5565.41   2
  -2  -8   1 81001.4 5040.28   2
  -2  -8   0 85986.1 5335.17   2
   2  -8   0 83828.2 5544.08   2
  -2  -8  -1 54232.5 4324.27   2
   2  -8   1 54096.7 4398.63   2
   2  -8   2 17055.9 2463.30   2
  -2  -8  -2 20078.4 2637.40   2
  -2  -8  -3 20681.9 2757.73   2
   2  -8   3 17618.6 2475.75   2
  -2  -8  -4-585.355 711.132   2
  -2   8  -4-945.975 577.425   1
  -3  -1  10-117.277 222.392   3
  -3  -1   9 12464.8 1781.60   3
  -3   1   9 13711.2 1911.40   3
  -3  -1   8 37174.1 2836.63   3
  -3   1   8 36980.8 2866.52   3
  -3  -1   7 40.3463 230.084   3
  -3   1   7 248.737 260.515   3
  -3   1   7 308.368 321.591   1
  -3  -1   7 816.587 306.880   1
  -3   1   6 201911. 5440.50   1
  -3  -1   6 201768. 3878.50   1
  -3   1   6 202380. 5755.93   3
  -3  -1   6 190819. 5542.91   3
  -3   1   5 177737. 5006.08   3
  -3  -1   5 192230. 6109.93   2
  -3   1   5 181208. 5920.32   2
  -3   1   5 189064. 4753.66   1
  -3  -1   5 189444. 3168.44   1
  -3  -1   5 179155. 5009.29   3
   3   1  -4 74348.6 2951.17   3
  -3  -1   4 74549.2 3462.76   2
  -3  -1   4 70094.4 1568.46   1
  -3   1   4 71188.1 3377.13   2
  -3  -1   3 324036. 3394.31   1
  -3   1   3 315830. 6377.15   2
   3   1  -3 321704. 5563.90   3
   3  -1  -2 44095.5 2161.35   2
   3   1  -2 43662.5 1831.85   3
  -3   1   2 42579.9 2072.56   2
  -3  -1   2 43622.8 1577.90   1
  -3  -1   2 41752.3 1848.71   3
   3   1  -1 245565. 4459.59   1
   3  -1  -1 239347. 4330.16   2
   3   1  -1 246523. 3922.41   3
  -3   1   1 244056. 4448.20   2
  -3  -1   1 244886. 4476.35   1
  -3  -1   1 248120. 3987.52   3
  -3   1   0 3174.21 330.973   3
  -3   1   0 2844.07 641.508   1
   3   1   0 2484.04 558.560   1
   3  -1   0 3132.70 402.001   2
  -3   1   0 2987.09 404.484   2
  -3  -1   0 3158.50 419.617   3
  -3  -1   0 3655.64 681.280   1
   3   1   0 3453.82 416.093   3
  -3   1  -1 12142.4 1362.99   1
  -3  -1  -1 11308.3 581.550   2
  -3  -1  -1 10834.4 1283.27   1
   3   1   1 10924.8 642.093   3
   3   1   2 57652.4 3241.39   1
  -3   1  -2 58906.9 3226.21   1
  -3  -1  -2 57351.4 3256.48   1
   3   1   2 53806.2 1296.27   3
  -3  -1  -3 29379.0 2605.47   1
  -3   1  -3 30368.3 2532.96   1
   3   1   3 29967.9 975.300   3
  -3  -1  -4 78123.0 4567.69   1
   3   1   4 82584.5 1738.63   3
  -3   1  -4 83692.1 4605.33   1
   3   1   4 80879.0 1664.30   3
  -3  -1  -5 37429.3 3453.56   1
  -3   1  -5 35979.8 3306.21   1
  -3   1  -6 40518.4 3782.04   1
  -3  -1  -6 47701.2 4171.41   1
  -3  -3   9 10087.2 1672.67   3
  -3   3   9 12273.7 1914.62   3
  -3  -3   8 2331.77 769.944   3
  -3   3   8 2211.68 740.822   3
   3  -3  -7 74618.2 4912.26   2
  -3  -3   7 61867.4 3638.13   3
  -3  -3   6 2585.07 645.020   3
   3  -3  -6 2140.46 829.712   2
   3  -3  -5 21976.9 2334.94   2
  -3  -3   5 20765.0 1874.18   3
  -3   3   5 23092.2 2022.68   1
   3  -3  -4 50554.8 3278.55   2
  -3   3   4 49665.9 3056.67   2
  -3  -3   4 47351.6 2669.06   3
   3   3  -4 54422.9 2728.56   3
   3  -3  -3 455371. 9161.79   2
  -3   3   3 476270. 9031.38   2
   3   3  -3 477083. 7556.83   3
  -3  -3   2-123.858 212.264   3
   3   3  -2 79.4251 109.090   1
   3  -3  -1 983.012 404.221   2
   3   3  -1 677.174 278.520   3
  -3   3   1 593.778 321.755   2
  -3  -3   1 1078.99 334.618   1
   3   3  -1 912.573 300.045   1
  -3  -3   1 741.442 352.256   3
  -3  -3   0 177580. 4889.22   1
   3  -3   0 181788. 4632.50   2
  -3  -3   0 181784. 4599.84   3
   3   3   0 183982. 4278.24   3
  -3   3   0 180084. 4220.11   2
   3   3   1 129631. 3579.43   3
   3   3   1 145217. 5009.80   1
  -3  -3  -1 139101. 4906.21   1
   3  -3   1 127520. 3706.72   2
  -3   3  -1 138660. 2968.25   3
  -3  -3  -1 138437. 3854.11   2
   3   3   2-156.929 180.032   3
  -3  -3  -2 123.890 134.718   2
  -3   3  -2 67.9909 101.192   3
  -3   3  -2 94.5967 297.879   1
   3  -3   2 475.287 255.555   2
  -3  -3  -2-242.601 283.924   1
  -3  -3  -3 207.433 173.249   2
   3   3   3-98.4332 173.939   3
   3  -3   3 673.742 252.693   2
  -3   3  -3 70.8367 57.6793   3
  -3   3  -3 36.2052 337.895   1
  -3  -3  -3-182.442 427.765   1
  -3  -3  -4 78067.7 3005.71   2
  -3  -3  -4 74820.8 4742.79   1
  -3   3  -4 80439.6 4614.44   1
   3   3   4 77336.3 3071.71   3
   3  -3   4 80998.9 2738.64   2
  -3  -3  -5 120678. 6439.01   1
  -3   3  -5 124875. 6180.18   1
  -3   3  -6 588.996 374.649   1
  -3  -3  -6 269.848 508.533   1
   3  -5  -8 26403.0 3314.50   2
  -3  -5   8 22456.0 2543.26   3
  -3  -5   7 11248.8 1736.10   3
   3  -5  -7 11852.4 2179.17   2
   3  -5  -6 11836.7 2025.10   2
  -3  -5   6 8817.23 1499.49   3
   3  -5  -5 57960.0 4240.90   2
  -3  -5   5 55756.7 3542.88   3
   3  -5  -4 44198.4 3462.17   2
  -3  -5   4 50328.5 3235.86   3
  -3  -5   3 5116.46 1075.00   3
   3  -5  -3 7220.94 1344.27   2
   3   5  -3 4953.75 609.452   1
   3   5  -2 237701. 5202.42   1
   3  -5  -2 243114. 7495.55   2
  -3  -5   2 241606. 6760.89   3
   3  -5  -1 244550. 7280.33   2
  -3  -5   1 239470. 6800.29   3
  -3   5   1 255868. 6710.66   2
  -3   5   0 27357.3 2020.66   3
   3  -5   0 25528.1 2319.63   2
   3   5   0 28197.1 2137.95   3
  -3  -5   0 30101.2 2314.50   2
   3   5   0 28801.0 2340.82   1
  -3   5  -1 2319.12 552.244   3
   3  -5   1 2093.95 662.498   2
  -3  -5  -1 2281.78 671.635   2
  -3  -5  -1 2843.77 848.029   1
  -3   5  -2 10774.1 1567.84   1
  -3  -5  -2 15430.1 1756.70   2
   3  -5   2 13284.0 1603.03   2
  -3   5  -2 15604.9 1326.45   3
  -3  -5  -2 12836.4 1833.47   1
  -3   5  -3 36982.8 3021.95   1
  -3  -5  -3 37881.0 2727.08   2
   3  -5   3 40794.6 2743.18   2
  -3  -5  -3 38404.0 3420.75   1
  -3  -5  -4 47361.6 3048.26   2
  -3   5  -4 44293.3 3554.89   1
   3  -5   4 40921.3 2759.03   2
  -3  -5  -4 46093.0 4027.62   1
  -3   5  -5 21389.9 2634.92   1
  -3  -5  -5 20898.3 2913.76   1
  -3   5  -6 7273.29 1699.56   1
   3  -7  -6 38211.2 3985.39   2
  -3  -7   6 41596.7 3735.59   3
   3  -7  -5 120376. 6731.88   2
  -3  -7   5 114733. 5991.12   3
   3  -7  -4 10901.9 2028.66   2
  -3  -7   4 6561.75 1404.71   3
  -3  -7   3-3.44657 84.2364   3
   3  -7  -3 4.05974 252.308   2
   3   7  -2 30013.1 2325.25   1
  -3  -7   2 34299.2 3133.02   3
   3  -7  -2 27541.4 2982.04   2
   3  -7  -1 34064.1 3283.14   2
  -3  -7   1 35454.1 3094.85   2
   3  -7   0 154603. 6900.57   2
  -3  -7   0 151522. 6503.88   2
   3  -7   1 21452.6 2552.35   2
  -3  -7  -1 25482.7 2740.96   2
  -3  -7  -2 33877.5 3207.17   2
   3  -7   2 30882.7 3039.29   2
  -3   7  -3 156562. 7004.32   1
  -3  -7  -3 166086. 7072.90   2
   3  -7   3 149731. 6562.99   2
  -3   7  -4-73.4400 295.315   1
   3  -9  -2 1720.91 903.358   2
  -3  -9   2 534.151 647.959   2
   3  -9  -1 1803.61 915.115   2
  -3  -9   1 632.437 489.903   2
   3  -9   0 2264.98 1042.56   2
  -3  -9   0 2590.88 1015.30   2
  -3  -9  -1 156791. 8175.96   2
   3  -9   1 161784. 8206.31   2
  -3  -9  -2 4562.34 1418.18   2
   3  -9   2 5209.84 1521.63   2
  -4   0   9-463.114 396.679   3
  -4   0   8 330517. 8772.28   3
  -4   0   7 191.459 213.872   3
  -4   0   7-17.1261 182.663   1
  -4   0   6 194130. 4521.71   1
  -4   0   6 197301. 5825.35   3
  -4   0   5-376.288 236.768   3
  -4   0   5-250.913 226.794   1
  -4   0   4 190773. 5796.38   2
  -4   0   4 185507. 4884.86   3
  -4   0   3 199.207 197.502   3
  -4   0   3 134.556 159.998   2
  -4   0   2 123688. 3708.09   1
  -4   0   2 124769. 3837.24   2
  -4   0   2 122712. 3292.59   3
  -4   0   1 68.5918 170.192   2
  -4   0   1-59.4516 86.0455   3
  -4   0   1 154.046 239.931   1
  -4   0   0 810190. 6402.56   2
  -4   0   0 811490. 11314.5   1
  -4   0   0 823062. 5901.12   3
  -4   0  -1-141.935 215.080   1
  -4   0  -2 219372. 7002.93   1
  -4   0  -3-881.353 568.908   1
  -4   0  -4 173602. 7428.81   1
  -4   0  -5 1443.28 857.317   1
  -4   2   9 30068.8 2884.26   3
  -4  -2   9 32104.5 2979.88   3
  -4   2   8 13756.1 1826.98   3
  -4  -2   8 7907.75 1415.69   3
  -4   2   7 116433. 4995.29   3
  -4  -2   7 122350. 5114.88   3
  -4   2   6 57014.0 3279.92   3
   4  -2  -6 57216.4 3938.27   2
  -4   2   6 61732.5 3216.78   1
  -4  -2   6 55216.4 3232.30   3
   4  -2  -5 204185. 6885.12   2
  -4  -2   5 221083. 6105.58   3
   4   2  -4 62870.4 2956.53   3
   4  -2  -4 62905.4 3540.80   2
  -4   2   4 66972.6 3497.00   2
  -4  -2   4 63563.1 3070.38   3
   4  -2  -3 131706. 4713.44   2
  -4   2   3 133834. 4632.84   2
  -4  -2   3 132636. 4112.64   3
  -4  -2   3 134575. 2775.32   1
   4   2  -3 132319. 3972.55   3
  -4   2   2 135493. 4402.94   2
  -4  -2   2 130177. 3822.70   3
  -4  -2   2 136478. 3561.91   1
   4   2  -2 133113. 3763.84   3
   4  -2  -1 212850. 4863.20   2
  -4   2   1 213778. 5080.42   2
  -4  -2   1 219480. 4771.87   3
  -4  -2   1 225514. 5401.55   1
   4   2  -1 223224. 4527.83   3
  -4   2   0 63076.1 3369.80   1
   4  -2   0 59466.5 2193.54   2
   4   2   0 62729.3 3115.83   1
  -4  -2   0 58055.9 2361.18   3
  -4   2   0 57926.3 2035.18   2
   4   2   0 59716.6 2198.90   3
  -4  -2   0 63470.8 3233.24   1
  -4  -2  -1 233753. 6896.06   1
   4  -2   1 227804. 3165.66   2
  -4   2  -1 218292. 6756.25   1
   4   2   1 242948. 6810.74   1
  -4  -2  -1 218140. 3808.01   2
   4   2   1 222360. 3950.38   3
  -4  -2  -2 225204. 7436.49   1
  -4  -2  -2 214580. 2702.56   2
  -4   2  -2 211867. 7162.23   1
   4   2   2 213262. 3558.58   3
  -4  -2  -3 62818.6 4255.79   1
  -4   2  -3 69921.4 4365.76   1
   4   2   3 63855.9 1750.15   3
  -4  -2  -4 19594.0 2573.07   1
  -4   2  -4 17670.7 2410.85   1
  -4  -2  -5 53089.8 4501.92   1
  -4   2  -5 56684.4 4617.16   1
  -4  -4   8-210.145 438.192   3
   4  -4  -8 558.260 517.337   2
  -4  -4   7 1668.72 773.220   3
   4  -4  -7 2072.69 873.487   2
   4  -4  -6 117051. 6135.25   2
  -4  -4   6 117898. 5224.10   3
   4  -4  -5 17117.4 2275.79   2
  -4  -4   5 22890.5 2199.71   3
   4  -4  -4 59035.4 3906.59   2
  -4  -4   4 59291.5 3339.93   3
   4   4  -3 291240. 4045.21   1
   4  -4  -3 281566. 8009.15   2
  -4  -4   3 280449. 6979.53   3
   4  -4  -2 578629. 10673.4   2
   4   4  -2 566678. 7812.15   1
  -4  -4   2 570270. 9814.14   3
  -4   4   2 576549. 10598.0   2
  -4  -4   2 573414. 8051.42   1
   4   4  -2 592997. 9401.62   3
   4  -4  -1 93105.4 4061.89   2
  -4  -4   1 86022.4 3557.13   1
   4   4  -1 87900.6 3539.93   1
  -4  -4   1 93200.5 3937.55   3
  -4   4   1 92392.3 3782.39   2
   4   4  -1 92960.6 3662.89   3
  -4  -4   0-2.05737 248.467   3
  -4   4   0-175.967 157.076   3
   4   4   0-400.009 272.068   3
  -4  -4   0-79.3776 213.278   2
  -4  -4   0 401.658 354.933   1
   4   4   0-176.086 217.463   1
  -4   4  -1 705.763 460.070   1
  -4   4  -1 476.329 225.153   3
   4   4   1-88.8602 155.298   3
  -4  -4  -1-2.65024 239.458   1
  -4  -4  -1 540.762 267.946   2
  -4   4  -2 78810.9 4437.83   1
  -4  -4  -2 78937.8 4598.98   1
   4  -4   2 77575.6 3126.02   2
  -4  -4  -2 82814.6 3455.21   2
   4   4   2 78125.6 3198.50   3
  -4   4  -2 86437.4 2146.75   3
  -4  -4  -3 40293.6 2278.01   2
  -4   4  -3 44635.0 3584.00   1
  -4  -4  -3 41044.5 3588.19   1
  -4  -4  -4 5281.24 1421.33   1
  -4   4  -4 6058.35 1423.98   1
  -4   4  -5 67735.2 5027.78   1
  -4  -6   7 15704.2 2282.35   3
   4  -6  -7 14558.4 2493.12   2
   4  -6  -6 481.174 466.035   2
  -4  -6   6-245.741 288.823   3
   4  -6  -5 1950.34 891.696   2
  -4  -6   5 1871.29 867.646   3
   4  -6  -4 304632. 10078.4   2
  -4  -6   4 293237. 8779.14   3
   4  -6  -3 43839.1 3697.11   2
   4   6  -3 50089.7 2233.49   1
  -4  -6   3 46720.3 3447.71   3
   4  -6  -2 51543.4 3862.87   2
  -4  -6   2 50231.6 3575.99   3
   4   6  -2 58623.2 2911.67   1
   4  -6  -1 19953.5 2321.60   2
  -4  -6   1 19705.5 2287.46   3
   4   6  -1 19009.8 1907.59   1
   4  -6   0 158545. 6294.73   2
  -4  -6   0 160228. 6137.26   2
   4  -6   1 8182.28 1410.28   2
  -4  -6  -1 10204.0 1585.16   2
  -4   6  -2 297.362 408.388   1
   4  -6   2 504.159 379.716   2
  -4  -6  -2 375.092 432.846   2
  -4  -6  -2 1020.67 587.644   1
  -4   6  -3 85436.2 5277.38   1
  -4  -6  -3 87752.3 5733.85   1
   4  -8  -4 21664.9 3054.01   2
  -4  -8   4 27101.0 3165.59   3
   4  -8  -3 4480.16 1348.51   2
  -4  -8   3 2121.53 908.502   3
   4  -8  -2 3183.17 1047.09   2
  -4  -8   2 6451.88 1449.41   2
   4  -8  -1 43979.8 4071.03   2
  -4  -8   1 42485.6 3848.54   2
   4  -8   0 18053.5 2566.45   2
  -4  -8   0 19375.0 2653.84   2
   4  -8   1 168184. 7656.71   2
  -4  -8  -1 158001. 7538.21   2
  -4  -8  -2 2292.93 952.591   2
  -5  -1   9 37997.9 3264.32   3
  -5   1   9 36350.5 3196.44   3
  -5  -1   8 34473.1 2930.24   3
  -5   1   8 36487.1 2971.51   3
  -5   1   7 123993. 4367.75   1
  -5  -1   7 128030. 5334.12   3
  -5   1   7 125029. 5186.84   3
  -5   1   6 8491.22 1292.53   3
  -5   1   6 8545.13 1080.67   1
  -5  -1   6 7337.68 1186.20   3
  -5  -1   6 9668.18 739.521   1
  -5  -1   5 987.168 288.508   1
  -5  -1   5 846.274 388.929   3
  -5   1   5 910.687 417.299   3
  -5   1   4 1250.25 531.957   2
  -5  -1   4 1248.12 427.141   3
  -5   1   4 1304.71 445.813   3
  -5  -1   4 946.857 283.219   1
  -5  -1   4 1734.55 598.835   2
  -5   1   3 22876.5 1702.64   3
  -5  -1   3 22984.9 2029.36   2
  -5   1   3 25815.8 2079.78   2
  -5  -1   3 23924.8 1653.24   1
  -5  -1   3 23085.1 1732.40   3
   5   1  -2 23611.1 1588.88   3
  -5  -1   2 24429.0 1905.94   2
  -5   1   2 25434.4 2079.90   1
  -5   1   2 24742.0 1878.23   2
  -5  -1   2 25300.5 1874.39   1
  -5  -1   2 25216.0 1674.54   3
  -5   1   2 24566.6 1572.89   3
   5   1  -1 44368.0 1947.68   3
  -5  -1   1 48250.5 2352.46   2
  -5   1   1 52153.8 3135.88   1
  -5   1   1 50011.5 2357.58   2
  -5  -1   1 44221.1 2723.10   1
  -5  -1   1 46614.4 2105.09   3
  -5   1   1 47379.4 1875.53   3
  -5  -1   0 182710. 3461.79   2
  -5   1   0 185339. 6343.84   1
  -5  -1   0 183820. 3644.18   3
  -5  -1   0 177136. 5999.26   1
  -5   1   0 178904. 2846.66   2
  -5   1   0 180692. 2534.69   3
  -5   1  -1 218770. 7388.33   1
  -5  -1  -1 211012. 7178.94   1
  -5   1  -2 81015.8 4843.69   1
  -5  -1  -2 75163.6 4657.72   1
  -5  -1  -3 15826.3 2316.74   1
  -5   1  -3 17078.8 2400.08   1
  -5   1  -4 655.282 665.688   1
  -5  -1  -4 442.348 554.923   1
  -5  -3   8 11674.8 1834.43   3
  -5   3   8 10216.3 1693.47   3
  -5  -3   7 246.548 288.940   3
  -5   3   7 997.229 501.617   3
   5  -3  -7 339.665 365.080   2
   5  -3  -6 54228.1 4136.14   2
  -5  -3   6 56288.5 3592.62   3
   5  -3  -5 163021. 6683.50   2
  -5  -3   5 159092. 5700.45   3
   5  -3  -4 14704.7 1888.69   2
  -5  -3   4 17454.5 811.074   1
  -5  -3   4 16736.2 1758.60   3
  -5  -3   3 19885.0 1395.59   1
   5  -3  -3 23285.6 2205.73   2
  -5   3   3 20669.3 2120.88   2
  -5  -3   3 17428.3 1710.92   3
  -5  -3   2 41542.4 2387.69   1
   5  -3  -2 38121.0 2594.71   2
  -5   3   2 44891.7 2957.84   2
  -5  -3   2 45344.0 2675.14   3
   5   3  -2 39077.4 2350.20   3
  -5  -3   1 159690. 5273.93   1
   5   3  -1 165227. 5320.62   1
  -5  -3   1 167444. 5020.93   3
  -5   3   1 162769. 4714.87   2
   5   3  -1 167758. 4578.67   3
  -5   3   0 5401.65 1184.12   1
   5  -3   0 6629.46 861.525   2
  -5  -3   0 6643.93 1223.58   1
  -5  -3   0 7307.33 1041.18   3
  -5   3   0 7554.71 779.576   3
   5   3   0 6319.80 859.005   3
  -5  -3  -1 22212.1 2430.19   1
   5  -3   1 25744.7 1309.20   2
  -5   3  -1 27837.4 2736.01   1
  -5  -3  -1 27217.4 1670.64   2
   5   3   1 23992.9 1558.05   3
  -5   3  -2 758.746 558.152   1
  -5  -3  -2 687.144 504.823   1
  -5  -3  -3 144131. 7121.22   1
  -5   3  -3 144115. 6971.34   1
  -5   3  -4 563.834 501.822   1
   5  -5  -7 77420.2 5678.74   2
  -5  -5   7 65935.7 4441.22   3
  -5  -5   6 14017.2 2000.94   3
   5  -5  -6 14152.9 2364.93   2
  -5  -5   5 889.040 470.483   3
   5  -5  -5-193.845 354.634   2
   5  -5  -4 110303. 5875.36   2
  -5  -5   4 113762. 5243.71   3
   5   5  -3 120989. 3475.85   1
   5  -5  -3 124505. 5910.62   2
  -5  -5   3 113949. 5164.42   3
  -5  -5   2 116891. 4449.90   1
   5  -5  -2 103458. 5082.90   2
   5   5  -2 102674. 3920.26   1
  -5  -5   2 104980. 4927.08   3
   5  -5  -1 24778.2 2342.63   2
  -5  -5   1 25144.0 2404.59   3
  -5  -5   1 23162.9 2178.23   1
   5  -5   0 711.397 457.849   2
  -5  -5   0 802.569 466.068   2
  -5  -5   0 1618.45 640.399   1
  -5   5  -1 31671.1 3202.79   1
   5  -5   1 31651.9 2363.22   2
  -5  -5  -1 31757.8 2967.76   1
  -5  -5  -1 33269.2 2545.91   2
  -5   5  -2 2115.44 865.366   1
  -5  -5  -2 2349.20 922.642   1
  -5   5  -3 4165.37 1311.64   1
  -5  -5  -3 2180.13 975.057   1
   5  -7  -5 29312.8 3585.89   2
  -5  -7   5 31954.4 3299.00   3
   5  -7  -4 55881.8 4807.83   2
  -5  -7   4 49670.0 4076.29   3
   5  -7  -3 87998.5 5696.50   2
  -5  -7   3 85909.7 5292.94   3
   5  -7  -2 724.349 519.764   2
  -5  -7   2 2592.67 1048.24   3
   5  -7  -1 4207.43 1151.47   2
  -5  -7   1 4635.95 1199.00   2
   5  -7   0 22234.2 2616.36   2
  -5  -7   0 21713.3 2588.78   2
  -5  -7  -1 82080.6 4924.95   2
  -6   0   9-310.023 351.497   3
  -6   0   8 596.960 465.236   3
  -6   0   7-578.491 370.503   3
  -6   0   6 297654. 8092.28   3
  -6   0   5 484.532 333.799   1
  -6   0   5-203.233 314.698   3
  -6   0   4 44950.6 2638.78   1
  -6   0   4 43538.5 2674.74   3
  -6   0   3 165.206 184.299   2
  -6   0   3 369.009 244.379   3
  -6   0   3 303.218 236.980   1
  -6   0   2 341563. 7243.97   2
  -6   0   2 346052. 8313.52   1
  -6   0   2 356091. 6426.50   3
  -6   0   1 191.132 202.153   2
  -6   0   1 99.8342 133.134   3
  -6   0   1 250.316 353.209   1
  -6   0   0 108918. 1995.82   3
  -6   0   0 108219. 5285.18   1
  -6   0  -1-207.553 308.069   1
  -6   0  -2 244926. 9325.28   1
  -6   0  -3 1511.20 832.812   1
  -6  -2   8 42493.4 3467.56   3
  -6   2   8 49635.1 3686.30   3
  -6   2   7 145450. 5983.35   3
  -6  -2   7 138084. 5991.27   3
  -6   2   6 118762. 5146.37   3
  -6  -2   6 114486. 5210.01   3
  -6   2   5 196153. 6292.15   3
  -6  -2   5 203316. 6562.72   3
  -6  -2   5 203827. 3561.77   1
  -6   2   4 119653. 4574.62   3
  -6  -2   4 120949. 4743.96   3
  -6  -2   4 120589. 3605.94   1
  -6   2   3 61320.7 3018.54   3
  -6  -2   3 54608.7 3406.92   2
  -6   2   3 56957.8 3465.17   2
  -6  -2   3 60243.6 3161.34   3
  -6  -2   3 61184.0 2983.94   1
   6   2  -2 59965.9 2884.16   3
  -6  -2   2 54419.9 3132.60   2
  -6   2   2 56580.4 3575.29   1
  -6   2   2 58660.2 3211.92   2
  -6  -2   2 54228.2 2836.15   3
  -6  -2   2 60396.7 3341.50   1
  -6   2   2 57787.2 2561.31   3
   6   2  -1 65744.3 2771.93   3
  -6  -2   1 66854.0 3108.40   2
  -6   2   1 65373.0 4039.24   1
  -6  -2   1 62894.3 2825.61   3
  -6   2   1 65632.0 2747.40   2
  -6  -2   1 67335.6 3888.63   1
  -6   2   1 67657.2 2365.10   3
  -6   2   0 89423.6 4993.94   1
  -6  -2   0 97947.1 2661.34   2
  -6  -2   0 91259.6 4933.82   1
  -6  -2  -1 151396. 6837.28   1
  -6   2  -1 161242. 7169.49   1
  -6  -2  -2 57891.4 4521.82   1
  -6   2  -2 58745.7 4519.39   1
  -6   4   7 48762.9 3787.35   3
   6  -4  -7 54020.1 4668.61   2
  -6  -4   7 47293.0 3756.90   3
   6  -4  -6 16964.5 2504.79   2
  -6  -4   6 17736.3 2202.54   3
  -6  -4   5 14379.5 1915.44   3
   6  -4  -5 10518.0 1808.64   2
   6  -4  -4 173396. 6988.01   2
  -6  -4   4 171219. 6315.14   3
   6  -4  -3 69458.3 4146.18   2
  -6  -4   3 75129.9 3232.38   1
  -6  -4   3 70368.9 3969.61   3
  -6  -4   2-156.492 319.353   1
  -6  -4   2-35.9844 238.041   3
   6  -4  -2 225.434 232.289   2
  -6   4   1 35240.0 3194.52   1
   6  -4  -1 32451.8 2377.23   2
  -6  -4   1 33588.0 2770.60   1
  -6  -4   1 32858.8 2587.69   3
  -6   4   0 108242. 5750.25   1
  -6  -4   0 109133. 5448.21   1
  -6  -4   0 104629. 3976.83   2
  -6   4  -1 2257.33 975.859   1
  -6  -4  -1 4383.85 1178.12   1
  -6   4  -2 20150.3 2729.16   1
  -6  -4  -2 15200.2 2394.40   1
   6  -6  -6 186075. 9113.93   2
  -6  -6   6 183934. 7904.65   3
  -6  -6   5-386.036 500.209   3
   6  -6  -5 816.311 684.793   2
   6  -6  -4 5853.53 1454.25   2
  -6  -6   4 4137.57 1114.31   3
   6  -6  -3 109736. 6084.91   2
  -6  -6   3 112747. 5879.66   3
   6  -6  -2 112311. 5833.97   2
  -6  -6   2 110369. 5841.55   3
  -6  -6   1 88689.9 4964.79   1
   6  -6  -1 96727.8 5126.71   2
  -6  -6   1 81567.3 4568.20   2
  -6   6   0 2483.71 1144.39   1
  -6  -6   0 1281.01 666.463   1
  -6  -6  -1-12.7345 723.816   1
   6  -8  -2 103543. 6513.43   2
  -6  -8   2 99856.2 6173.07   2
  -7  -1   8-882.532 603.561   3
  -7   1   8-214.388 280.818   3
  -7  -1   7 1791.37 710.399   3
  -7   1   7 2062.44 735.737   3
  -7  -1   6 53440.6 3640.14   3
  -7   1   6 49881.9 3500.14   3
  -7   1   5 162943. 5823.05   1
  -7  -1   5 169230. 4861.18   1
  -7  -1   5 157391. 5890.16   3
  -7   1   5 158351. 5882.30   3
  -7   1   4 116752. 5111.65   1
  -7  -1   4 115380. 4470.33   1
  -7  -1   4 107484. 4577.15   3
  -7   1   4 114811. 4586.80   3
  -7   1   3 45185.8 3273.07   1
  -7  -1   3 48225.8 3148.07   1
  -7  -1   3 45546.6 2767.19   3
  -7   1   3 45435.9 2604.99   3
  -7   1   2 44248.5 3420.85   1
  -7  -1   2 43670.2 3241.61   1
  -7  -1   2 37839.4 2282.36   3
  -7   1   2 37909.5 2094.02   3
  -7   1   1 39534.6 3426.98   1
  -7  -1   1 37795.0 3297.99   1
  -7   1   0 6022.25 1386.48   1
  -7  -1   0 7050.71 1491.84   1
  -7  -1  -1 4562.43 1302.92   1
  -7   1  -1 4319.73 1353.92   1
  -7   3   7 114951. 5700.61   3
  -7  -3   7 113217. 5866.69   3
  -7  -3   6 5304.83 1199.05   3
  -7   3   6 5116.74 1166.75   3
  -7  -3   5 9451.15 1561.31   3
  -7   3   5 10427.7 1522.18   3
  -7   3   4 11536.5 1509.58   3
  -7  -3   4 14758.5 1460.48   1
  -7  -3   4 13115.7 1753.33   3
  -7   3   3 128242. 4552.41   3
  -7  -3   3 135866. 5045.05   1
  -7  -3   3 127245. 5235.73   3
  -7  -3   2 34731.6 2838.97   1
  -7   3   2 34981.3 3168.52   1
  -7  -3   2 36101.1 2651.06   3
  -7   3   2 32699.5 2005.12   3
  -7  -3   1 4562.81 881.091   3
  -7   3   1 5338.61 1315.82   1
  -7  -3   1 5093.56 1266.71   1
  -7  -3   0 15939.2 2325.42   1
  -7   3   0 17767.8 2521.45   1
  -7  -3  -1 81590.9 5587.52   1
  -7  -5   6 718.759 509.265   3
  -7   5   6-297.809 416.682   3
   7  -5  -6-633.893 645.913   2
   7  -5  -5 31409.1 3415.28   2
  -7  -5   5 31784.9 3162.69   3
  -7  -5   4 194.317 301.490   3
   7  -5  -4-378.690 401.700   2
   7  -5  -3 18127.3 2304.33   2
  -7  -5   3 17687.9 2262.25   3
  -7  -5   2 60138.9 4094.47   3
  -7  -5   1 50303.4 3717.68   1
  -7  -5   0 32462.8 3283.13   1
   7  -7  -4 6002.27 1683.54   2
   7  -7  -3 13023.5 2281.59   2
  -8   0   7 959.968 544.175   3
  -8   0   6 165139. 6686.98   3
  -8   0   5 302.284 320.566   3
  -8   0   5 283.224 270.266   1
  -8   0   4 372917. 9724.53   1
  -8   0   4 345474. 8333.79   3
  -8   0   3 139.439 161.647   3
  -8   0   3 108.537 307.366   1
  -8   0   2 3930.65 1102.36   1
  -8   0   1-1090.47 635.370   1
  -8   0   0 110281. 6643.88   1
  -8  -2   7 58346.7 4337.76   3
  -8   2   7 56623.4 4093.85   3
  -8  -2   6 75660.8 4677.92   3
  -8   2   6 79626.8 4582.97   3
  -8   2   5 114138. 5514.77   1
  -8  -2   5 102444. 5132.03   3
  -8   2   5 108724. 5049.17   3
  -8  -2   4 426.215 314.567   3
  -8   2   4 113.198 215.314   3
  -8   2   3 59116.9 4238.59   1
  -8  -2   3 66919.5 3656.02   3
  -8  -2   3 64232.6 4050.16   1
  -8   2   2 70653.5 4839.29   1
  -8  -2   2 73938.5 4711.29   1
  -8   2   1 73523.8 5207.88   1
  -8  -2   1 65109.5 4736.75   1
  -8  -2   0 30029.2 3498.77   1
  -8   4   6 35954.5 3082.84   3
  -8  -4   6 33281.6 3339.62   3
  -8  -4   5-156.169 459.585   3
  -8   4   5 306.716 294.578   3
  -8  -4   4-85.9612 366.170   3
  -8   4   4 171.435 293.717   3
  -8   4   3 55132.8 4338.73   1
  -8  -4   3 51331.8 3690.58   3
  -8  -4   1 94554.1 5641.03   1
  -9  -1   6 49934.8 3849.10   3
  -9   1   6 53638.4 3867.41   3
  -9  -1   5 5542.37 1205.55   3
  -9   1   4 7336.66 1560.30   1
  -9   1   3 33376.6 3434.68   1
  -9  -1   2-1511.87 899.878   1
  -9   3   5 47173.5 3885.13   1
   0   0   0    0.00    0.00   0

TITL cryst4-He-exp2-15K in C2/c
REM C2/c (#15 in standard setting)
CELL 0.71073   6.848134   7.665281   7.497574  90.0000 116.2534  90.0000
ZERR    4.00   0.000618   0.000573   0.000703   0.0000   0.0118   0.0000
LATT  7
SYMM -x, y,-z+1/2
SFAC H O Mg S
UNIT 8.00 20.00 4.00 4.00
TREF
HKLF 4
END
;
_shelx_hkl_checksum              11089
loop_
_space_group_symop_operation_xyz
'x, y, z'
'-x, y, -z+1/2'
'x+1/2, y+1/2, z'
'-x+1/2, y+1/2, -z+1/2'
'-x, -y, -z'
'x, -y, z-1/2'
'-x+1/2, -y+1/2, -z'
'x+1/2, -y+1/2, z-1/2'
loop_
_atom_site_label
_atom_site_type_symbol
_atom_site_fract_x
_atom_site_fract_y
_atom_site_fract_z
_atom_site_U_iso_or_equiv
_atom_site_adp_type
_atom_site_occupancy
_atom_site_site_symmetry_order
_atom_site_calc_flag
_atom_site_refinement_flags_posn
_atom_site_refinement_flags_adp
_atom_site_refinement_flags_occupancy
_atom_site_disorder_assembly
_atom_site_disorder_group
Mg Mg 0.000000 0.500000 0.000000 0.0038(3) Uani 1 2 d S . P . .
S S 0.000000 0.15743(8) 0.250000 0.0030(2) Uani 1 2 d S T P . .
O1 O 0.17523(19) 0.04823(17) 0.39724(17) 0.0049(3) Uani 1 1 d . . . . .
O2 O 0.09598(19) 0.27005(17) 0.15141(18) 0.0048(3) Uani 1 1 d . . . . .
O3 O 0.000000 0.6334(3) 0.250000 0.0049(4) Uani 1 2 d S T P . .
H H 0.101(4) 0.700(4) 0.288(4) 0.021(7) Uiso 1 1 d . . . . .
loop_
_atom_site_aniso_label
_atom_site_aniso_U_11
_atom_site_aniso_U_22
_atom_site_aniso_U_33
_atom_site_aniso_U_23
_atom_site_aniso_U_13
_atom_site_aniso_U_12
Mg 0.0035(4) 0.0038(5) 0.0049(4) 0.0005(3) 0.0025(3) 0.0000(3)
S 0.0030(3) 0.0029(4) 0.0037(3) 0.000 0.0022(2) 0.000
O1 0.0040(6) 0.0042(7) 0.0062(6) 0.0011(5) 0.0022(5) 0.0010(5)
O2 0.0042(6) 0.0041(7) 0.0069(6) 0.0012(5) 0.0034(5) 0.0000(5)
O3 0.0037(9) 0.0040(9) 0.0065(9) 0.000 0.0020(7) 0.000
loop_
_atom_type_symbol
_atom_type_description
_atom_type_scat_dispersion_real
_atom_type_scat_dispersion_imag
_atom_type_scat_source
O O 0.0106 0.0060 'International Tables Vol C Tables 4.2.6.8 and 6.1.1.4'
H H 0.0000 0.0000 'International Tables Vol C Tables 4.2.6.8 and 6.1.1.4'
S S 0.1246 0.1234 'International Tables Vol C Tables 4.2.6.8 and 6.1.1.4'
Mg Mg 0.0486 0.0363 'International Tables Vol C Tables 4.2.6.8 and 6.1.1.4'
loop_
_geom_angle_atom_site_label_1
_geom_angle_atom_site_label_2
_geom_angle_atom_site_label_3
_geom_angle
_geom_angle_site_symmetry_1
_geom_angle_site_symmetry_3
_geom_angle_publ_flag
O1 Mg O1 180.0 8_455 4 ?
O1 Mg O2 86.13(5) 8_455 5_565 ?
O1 Mg O2 93.87(5) 4 5_565 ?
O1 Mg O2 93.87(5) 8_455 . ?
O1 Mg O2 86.13(5) 4 . ?
O2 Mg O2 180.0 5_565 . ?
O1 Mg O3 88.54(4) 8_455 . ?
O1 Mg O3 91.46(4) 4 . ?
O2 Mg O3 87.38(6) 5_565 . ?
O2 Mg O3 92.62(6) . . ?
O1 Mg O3 91.46(4) 8_455 5_565 ?
O1 Mg O3 88.54(4) 4 5_565 ?
O2 Mg O3 92.62(6) 5_565 5_565 ?
O2 Mg O3 87.38(6) . 5_565 ?
O3 Mg O3 180.0 . 5_565 ?
O1 Mg O2 41.84(4) 8_455 8_455 ?
O1 Mg O2 138.16(4) 4 8_455 ?
O2 Mg O2 98.74(2) 5_565 8_455 ?
O2 Mg O2 81.26(2) . 8_455 ?
O3 Mg O2 128.66(3) . 8_455 ?
O3 Mg O2 51.34(3) 5_565 8_455 ?
O1 Mg O2 138.16(4) 8_455 4 ?
O1 Mg O2 41.84(4) 4 4 ?
O2 Mg O2 81.26(2) 5_565 4 ?
O2 Mg O2 98.74(2) . 4 ?
O3 Mg O2 51.34(3) . 4 ?
O3 Mg O2 128.66(3) 5_565 4 ?
O2 Mg O2 180.0 8_455 4 ?
O1 Mg O2 111.28(4) 8_455 6_565 ?
O1 Mg O2 68.72(4) 4 6_565 ?
O2 Mg O2 42.33(4) 5_565 6_565 ?
O2 Mg O2 137.67(4) . 6_565 ?
O3 Mg O2 120.40(5) . 6_565 ?
O3 Mg O2 59.60(5) 5_565 6_565 ?
O2 Mg O2 95.04(3) 8_455 6_565 ?
O2 Mg O2 84.96(3) 4 6_565 ?
O1 Mg O2 68.72(4) 8_455 2 ?
O1 Mg O2 111.28(4) 4 2 ?
O2 Mg O2 137.67(4) 5_565 2 ?
O2 Mg O2 42.33(4) . 2 ?
O3 Mg O2 59.60(5) . 2 ?
O3 Mg O2 120.40(5) 5_565 2 ?
O2 Mg O2 84.96(3) 8_455 2 ?
O2 Mg O2 95.04(3) 4 2 ?
O2 Mg O2 180.0 6_565 2 ?
O1 Mg O1 118.46(5) 8_455 6_565 ?
O1 Mg O1 61.54(5) 4 6_565 ?
O2 Mg O1 32.85(4) 5_565 6_565 ?
O2 Mg O1 147.15(4) . 6_565 ?
O3 Mg O1 83.14(5) . 6_565 ?
O3 Mg O1 96.86(5) 5_565 6_565 ?
O2 Mg O1 126.25(3) 8_455 6_565 ?
O2 Mg O1 53.75(3) 4 6_565 ?
O2 Mg O1 37.56(3) 6_565 6_565 ?
O2 Mg O1 142.44(3) 2 6_565 ?
O1 Mg O1 61.54(5) 8_455 2 ?
O1 Mg O1 118.46(5) 4 2 ?
O2 Mg O1 147.15(4) 5_565 2 ?
O2 Mg O1 32.85(4) . 2 ?
O3 Mg O1 96.86(5) . 2 ?
O3 Mg O1 83.14(5) 5_565 2 ?
O2 Mg O1 53.75(3) 8_455 2 ?
O2 Mg O1 126.25(3) 4 2 ?
O2 Mg O1 142.44(3) 6_565 2 ?
O2 Mg O1 37.56(3) 2 2 ?
O1 Mg O1 180.0 6_565 2 ?
O1 S O1 110.23(11) 2 . ?
O1 S O2 110.27(6) 2 . ?
O1 S O2 108.63(7) . . ?
O1 S O2 108.63(6) 2 2 ?
O1 S O2 110.27(6) . 2 ?
O2 S O2 108.78(10) . 2 ?
S O1 Mg 139.81(8) . 4_545 ?
S O1 O2 35.95(4) . . ?
Mg O1 O2 103.88(6) 4_545 . ?
S O1 O1 34.88(5) . 2 ?
Mg O1 O1 143.48(8) 4_545 2 ?
O2 O1 O1 60.56(5) . 2 ?
S O1 O2 35.12(4) . 2 ?
Mg O1 O2 144.90(7) 4_545 2 ?
O2 O1 O2 60.15(6) . 2 ?
O1 O1 O2 59.56(5) 2 2 ?
S O1 O2 130.69(7) . 4_545 ?
Mg O1 O2 47.21(4) 4_545 4_545 ?
O2 O1 O2 112.29(5) . 4_545 ?
O1 O1 O2 104.98(5) 2 4_545 ?
O2 O1 O2 164.44(8) 2 4_545 ?
S O1 O3 167.91(7) . 7_556 ?
Mg O1 O3 47.64(3) 4_545 7_556 ?
O2 O1 O3 148.65(6) . 7_556 ?
O1 O1 O3 149.24(5) 2 7_556 ?
O2 O1 O3 132.79(6) 2 7_556 ?
O2 O1 O3 61.21(4) 4_545 7_556 ?
S O1 O2 115.57(7) . 8_556 ?
Mg O1 O2 43.31(4) 4_545 8_556 ?
O2 O1 O2 88.41(5) . 8_556 ?
O1 O1 O2 148.60(5) 2 8_556 ?
O2 O1 O2 102.39(5) 2 8_556 ?
O2 O1 O2 90.52(5) 4_545 8_556 ?
O3 O1 O2 62.10(5) 7_556 8_556 ?
S O1 O3 94.49(6) . 3_545 ?
Mg O1 O3 46.09(3) 4_545 3_545 ?
O2 O1 O3 59.42(5) . 3_545 ?
O1 O1 O3 104.33(6) 2 3_545 ?
O2 O1 O3 116.27(6) 2 3_545 ?
O2 O1 O3 63.40(5) 4_545 3_545 ?
O3 O1 O3 93.73(4) 7_556 3_545 ?
O2 O1 O3 58.23(4) 8_556 3_545 ?
S O1 O2 124.60(7) . 6_556 ?
Mg O1 O2 95.21(5) 4_545 6_556 ?
O2 O1 O2 159.99(7) . 6_556 ?
O1 O1 O2 100.27(5) 2 6_556 ?
O2 O1 O2 106.50(5) 2 6_556 ?
O2 O1 O2 76.56(5) 4_545 6_556 ?
O3 O1 O2 51.32(4) 7_556 6_556 ?
O2 O1 O2 109.93(5) 8_556 6_556 ?
O3 O1 O2 137.04(6) 3_545 6_556 ?
S O1 O2 111.81(7) . 7_556 ?
Mg O1 O2 76.94(4) 4_545 7_556 ?
O2 O1 O2 109.38(5) . 7_556 ?
O1 O1 O2 138.06(6) 2 7_556 ?
O2 O1 O2 79.81(4) 2 7_556 ?
O2 O1 O2 115.71(6) 4_545 7_556 ?
O3 O1 O2 57.58(5) 7_556 7_556 ?
O2 O1 O2 44.49(4) 8_556 7_556 ?
O3 O1 O2 102.56(4) 3_545 7_556 ?
O2 O1 O2 80.50(3) 6_556 7_556 ?
S O1 O3 104.20(6) . 1_545 ?
Mg O1 O3 96.47(5) 4_545 1_545 ?
O2 O1 O3 119.42(5) . 1_545 ?
O1 O1 O3 69.32(2) 2 1_545 ?
O2 O1 O3 118.62(5) 2 1_545 ?
O2 O1 O3 51.07(3) 4_545 1_545 ?
O3 O1 O3 81.78(4) 7_556 1_545 ?
O2 O1 O3 137.81(5) 8_556 1_545 ?
O3 O1 O3 106.95(5) 3_545 1_545 ?
O2 O1 O3 51.19(3) 6_556 1_545 ?
O2 O1 O3 130.78(5) 7_556 1_545 ?
S O2 Mg 133.30(7) . . ?
S O2 O1 35.42(4) . . ?
Mg O2 O1 161.91(7) . . ?
S O2 O2 35.61(5) . 2 ?
Mg O2 O2 102.96(4) . 2 ?
O1 O2 O2 60.43(5) . 2 ?
S O2 O1 34.60(4) . 2 ?
Mg O2 O1 119.93(6) . 2 ?
O1 O2 O1 59.88(6) . 2 ?
O2 O2 O1 59.42(4) 2 2 ?
S O2 O3 105.75(7) . 3_545 ?
Mg O2 O3 120.51(6) . 3_545 ?
O1 O2 O3 71.33(5) . 3_545 ?
O2 O2 O3 127.57(7) 2 3_545 ?
O1 O2 O3 112.53(7) 2 3_545 ?
S O2 O1 157.99(8) . 4 ?
Mg O2 O1 46.66(4) . 4 ?
O1 O2 O1 135.55(5) . 4 ?
O2 O2 O1 126.12(4) 2 4 ?
O1 O2 O1 164.44(8) 2 4 ?
O3 O2 O1 76.47(5) 3_545 4 ?
S O2 O3 138.00(7) . 5_565 ?
Mg O2 O3 47.99(4) . 5_565 ?
O1 O2 O3 149.27(7) . 5_565 ?
O2 O2 O3 136.99(7) 2 5_565 ?
O1 O2 O3 103.74(6) 2 5_565 ?
O3 O2 O3 95.20(4) 3_545 5_565 ?
O1 O2 O3 61.87(5) 4 5_565 ?
S O2 O1 94.37(6) . 8_455 ?
Mg O2 O1 42.83(3) . 8_455 ?
O1 O2 O1 129.77(7) . 8_455 ?
O2 O2 O1 75.96(5) 2 8_455 ?
O1 O2 O1 77.61(5) 2 8_455 ?
O3 O2 O1 156.46(5) 3_545 8_455 ?
O1 O2 O1 89.49(5) 4 8_455 ?
O3 O2 O1 61.35(4) 5_565 8_455 ?
S O2 O3 102.21(6) . . ?
Mg O2 O3 45.23(3) . . ?
O1 O2 O3 117.13(5) . . ?
O2 O2 O3 66.60(3) 2 . ?
O1 O2 O3 116.33(5) 2 . ?
O3 O2 O3 126.56(6) 3_545 . ?
O1 O2 O3 61.85(4) 4 . ?
O3 O2 O3 93.22(4) 5_565 . ?
O1 O2 O3 58.17(3) 8_455 . ?
S O2 O1 95.60(6) . 6 ?
Mg O2 O1 113.95(5) . 6 ?
O1 O2 O1 83.80(4) . 6 ?
O2 O2 O1 130.39(4) 2 6 ?
O1 O2 O1 73.50(5) 2 6 ?
O3 O2 O1 56.88(4) 3_545 6 ?
O1 O2 O1 103.44(5) 4 6 ?
O3 O2 O1 66.00(5) 5_565 6 ?
O1 O2 O1 109.93(5) 8_455 6 ?
O3 O2 O1 159.06(5) . 6 ?
S O2 O1 80.27(5) . 7_556 ?
Mg O2 O1 95.28(5) . 7_556 ?
O1 O2 O1 70.62(5) . 7_556 ?
O2 O2 O1 59.55(5) 2 7_556 ?
O1 O2 O1 114.22(6) 2 7_556 ?
O3 O2 O1 86.98(4) 3_545 7_556 ?
O1 O2 O1 77.98(4) 4 7_556 ?
O3 O2 O1 137.83(6) 5_565 7_556 ?
O1 O2 O1 108.74(5) 8_455 7_556 ?
O3 O2 O1 54.25(3) . 7_556 ?
O1 O2 O1 141.31(4) 6 7_556 ?
Mg O3 Mg 123.40(9) . 2 ?
Mg O3 O2 110.99(3) . 3_455 ?
Mg O3 O2 90.40(3) 2 3_455 ?
Mg O3 O2 90.40(3) . 4 ?
Mg O3 O2 110.99(3) 2 4 ?
O2 O3 O2 134.69(9) 3_455 4 ?
Mg O3 O2 162.51(7) . 6_566 ?
Mg O3 O2 44.63(3) 2 6_566 ?
O2 O3 O2 83.91(4) 3_455 6_566 ?
O2 O3 O2 84.80(4) 4 6_566 ?
Mg O3 O2 44.63(3) . 5_565 ?
Mg O3 O2 162.51(7) 2 5_565 ?
O2 O3 O2 84.80(4) 3_455 5_565 ?
O2 O3 O2 83.91(4) 4 5_565 ?
O2 O3 O2 150.42(9) 6_566 5_565 ?
Mg O3 O1 43.82(3) . 8_455 ?
Mg O3 O1 105.61(6) 2 8_455 ?
O2 O3 O1 71.80(4) 3_455 8_455 ?
O2 O3 O1 132.84(4) 4 8_455 ?
O2 O3 O1 142.13(4) 6_566 8_455 ?
O2 O3 O1 56.92(3) 5_565 8_455 ?
Mg O3 O1 105.61(6) . 7_556 ?
Mg O3 O1 43.82(3) 2 7_556 ?
O2 O3 O1 132.84(4) 3_455 7_556 ?
O2 O3 O1 71.80(4) 4 7_556 ?
O2 O3 O1 56.92(3) 6_566 7_556 ?
O2 O3 O1 142.13(4) 5_565 7_556 ?
O1 O3 O1 123.00(9) 8_455 7_556 ?
Mg O3 O1 122.07(6) . 3_455 ?
Mg O3 O1 42.45(3) 2 3_455 ?
O2 O3 O1 49.25(3) 3_455 3_455 ?
O2 O3 O1 145.16(4) 4 3_455 ?
O2 O3 O1 60.42(3) 6_566 3_455 ?
O2 O3 O1 127.23(3) 5_565 3_455 ?
O1 O3 O1 81.77(4) 8_455 3_455 ?
O1 O3 O1 86.27(4) 7_556 3_455 ?
Mg O3 O1 42.45(3) . 4 ?
Mg O3 O1 122.07(6) 2 4 ?
O2 O3 O1 145.16(4) 3_455 4 ?
O2 O3 O1 49.25(3) 4 4 ?
O2 O3 O1 127.23(3) 6_566 4 ?
O2 O3 O1 60.42(3) 5_565 4 ?
O1 O3 O1 86.27(4) 8_455 4 ?
O1 O3 O1 81.77(4) 7_556 4 ?
O1 O3 O1 154.80(9) 3_455 4 ?
Mg O3 O2 42.15(4) . . ?
Mg O3 O2 82.60(6) 2 . ?
O2 O3 O2 126.56(6) 3_455 . ?
O2 O3 O2 96.39(3) 4 . ?
O2 O3 O2 121.65(6) 6_566 . ?
O2 O3 O2 86.78(4) 5_565 . ?
O1 O3 O2 59.73(5) 8_455 . ?
O1 O3 O2 68.18(5) 7_556 . ?
O1 O3 O2 100.18(6) 3_455 . ?
O1 O3 O2 54.76(4) 4 . ?
Mg O3 O2 82.60(6) . 2 ?
Mg O3 O2 42.15(4) 2 2 ?
O2 O3 O2 96.39(3) 3_455 2 ?
O2 O3 O2 126.56(6) 4 2 ?
O2 O3 O2 86.78(4) 6_566 2 ?
O2 O3 O2 121.65(6) 5_565 2 ?
O1 O3 O2 68.18(5) 8_455 2 ?
O1 O3 O2 59.73(5) 7_556 2 ?
O1 O3 O2 54.76(4) 3_455 2 ?
O1 O3 O2 100.18(6) 4 2 ?
O2 O3 O2 46.81(5) . 2 ?
Mg O3 H 105.6(18) . . ?
Mg O3 H 109.7(19) 2 . ?
O2 O3 H 117.0(19) 3_455 . ?
O2 O3 H 18.9(19) 4 . ?
O2 O3 H 73.7(18) 6_566 . ?
O2 O3 H 87.4(19) 5_565 . ?
O1 O3 H 143.3(18) 8_455 . ?
O1 O3 H 79.0(19) 7_556 . ?
O1 O3 H 132.3(18) 3_455 . ?
O1 O3 H 66.8(19) 4 . ?
O2 O3 H 115.2(19) . . ?
O2 O3 H 138.4(19) 2 . ?
Mg O3 H 109.7(19) . 2 ?
Mg O3 H 105.6(18) 2 2 ?
O2 O3 H 18.9(19) 3_455 2 ?
O2 O3 H 117.0(19) 4 2 ?
O2 O3 H 87.4(19) 6_566 2 ?
O2 O3 H 73.7(18) 5_565 2 ?
O1 O3 H 79.0(19) 8_455 2 ?
O1 O3 H 143.3(18) 7_556 2 ?
O1 O3 H 66.8(19) 3_455 2 ?
O1 O3 H 132.3(18) 4 2 ?
O2 O3 H 138.4(19) . 2 ?
O2 O3 H 115.2(19) 2 2 ?
H O3 H 101(4) . 2 ?
loop_
_geom_bond_atom_site_label_1
_geom_bond_atom_site_label_2
_geom_bond_distance
_geom_bond_site_symmetry_2
_geom_bond_publ_flag
Mg O1 2.0223(12) 8_455 ?
Mg O1 2.0223(12) 4 ?
Mg O2 2.0405(13) 5_565 ?
Mg O2 2.0405(13) . ?
Mg O3 2.1583(9) . ?
Mg O3 2.1583(9) 5_565 ?
Mg O2 3.4855(13) 8_455 ?
Mg O2 3.4855(13) 4 ?
Mg O2 3.4920(12) 6_565 ?
Mg O2 3.4920(12) 2 ?
Mg O1 3.8656(13) 6_565 ?
Mg O1 3.8656(13) 2 ?
S O1 1.4647(13) 2 ?
S O1 1.4647(13) . ?
S O2 1.4838(12) . ?
S O2 1.4839(12) 2 ?
O1 O2 2.3950(17) . ?
O1 O1 2.403(2) 2 ?
O1 O2 2.4194(17) 2 ?
O1 O2 2.7743(17) 4_545 ?
O1 O3 2.9199(16) 7_556 ?
O1 O2 2.9681(17) 8_556 ?
O1 O3 2.9950(13) 3_545 ?
O1 O2 3.3121(18) 6_556 ?
O1 O2 3.3402(18) 7_556 ?
O1 O3 3.402(2) 1_545 ?
O2 O2 2.413(2) 2 ?
O2 O3 2.7218(14) 3_545 ?
O2 O3 2.9016(13) 5_565 ?
O2 O3 3.037(2) . ?
O3 H 0.80(3) . ?
O3 H 0.80(3) 2 ?
loop_
_geom_hbond_atom_site_label_D
_geom_hbond_atom_site_label_H
_geom_hbond_atom_site_label_A
_geom_hbond_distance_DH
_geom_hbond_distance_HA
_geom_hbond_distance_DA
_geom_hbond_angle_DHA
_geom_hbond_site_symmetry_A
_geom_hbond_publ_flag
O3 H O2 0.80(3) 1.99(2) 2.7218(14) 154(3) 4 yes
loop_
_geom_torsion_atom_site_label_1
_geom_torsion_atom_site_label_2
_geom_torsion_atom_site_label_3
_geom_torsion_atom_site_label_4
_geom_torsion
_geom_torsion_site_symmetry_1
_geom_torsion_site_symmetry_2
_geom_torsion_site_symmetry_3
_geom_torsion_site_symmetry_4
_geom_torsion_publ_flag
O1 S O1 Mg 118.67(13) 2 . . 4_545 ?
O2 S O1 Mg -2.26(14) . . . 4_545 ?
O2 S O1 Mg -121.39(12) 2 . . 4_545 ?
O1 S O1 O2 120.93(6) 2 . . . ?
O2 S O1 O2 -119.13(10) 2 . . . ?
O2 S O1 O1 -120.93(6) . . . 2 ?
O2 S O1 O1 119.94(6) 2 . . 2 ?
O1 S O1 O2 -119.94(6) 2 . . 2 ?
O2 S O1 O2 119.13(10) . . . 2 ?
O1 S O1 O2 50.41(7) 2 . . 4_545 ?
O2 S O1 O2 -70.52(10) . . . 4_545 ?
O2 S O1 O2 170.36(10) 2 . . 4_545 ?
O1 S O1 O3 -118.5(4) 2 . . 7_556 ?
O2 S O1 O3 120.5(4) . . . 7_556 ?
O2 S O1 O3 1.4(4) 2 . . 7_556 ?
O1 S O1 O2 165.53(8) 2 . . 8_556 ?
O2 S O1 O2 44.60(8) . . . 8_556 ?
O2 S O1 O2 -74.52(9) 2 . . 8_556 ?
O1 S O1 O3 108.75(6) 2 . . 3_545 ?
O2 S O1 O3 -12.18(8) . . . 3_545 ?
O2 S O1 O3 -131.30(7) 2 . . 3_545 ?
O1 S O1 O2 -52.35(6) 2 . . 6_556 ?
O2 S O1 O2 -173.28(7) . . . 6_556 ?
O2 S O1 O2 67.59(10) 2 . . 6_556 ?
O1 S O1 O2 -145.79(7) 2 . . 7_556 ?
O2 S O1 O2 93.28(7) . . . 7_556 ?
O2 S O1 O2 -25.85(8) 2 . . 7_556 ?
O1 S O1 O3 -0.002(0) 2 . . 1_545 ?
O2 S O1 O3 -120.93(6) . . . 1_545 ?
O2 S O1 O3 119.94(6) 2 . . 1_545 ?
O1 S O2 Mg 80.87(11) 2 . . . ?
O1 S O2 Mg -158.22(9) . . . . ?
O2 S O2 Mg -38.16(7) 2 . . . ?
O1 S O2 O1 -120.90(11) 2 . . . ?
O2 S O2 O1 120.06(6) 2 . . . ?
O1 S O2 O2 119.04(6) 2 . . 2 ?
O1 S O2 O2 -120.06(6) . . . 2 ?
O1 S O2 O1 120.90(11) . . . 2 ?
O2 S O2 O1 -119.04(6) 2 . . 2 ?
O1 S O2 O3 -106.99(7) 2 . . 3_545 ?
O1 S O2 O3 13.91(8) . . . 3_545 ?
O2 S O2 O3 133.97(7) 2 . . 3_545 ?
O1 S O2 O1 160.2(2) 2 . . 4 ?
O1 S O2 O1 -78.9(2) . . . 4 ?
O2 S O2 O1 41.15(17) 2 . . 4 ?
O1 S O2 O3 10.00(13) 2 . . 5_565 ?
O1 S O2 O3 130.91(10) . . . 5_565 ?
O2 S O2 O3 -109.03(11) 2 . . 5_565 ?
O1 S O2 O1 60.68(8) 2 . . 8_455 ?
O1 S O2 O1 -178.42(6) . . . 8_455 ?
O2 S O2 O1 -58.36(4) 2 . . 8_455 ?
O1 S O2 O3 119.04(6) 2 . . . ?
O1 S O2 O3 -120.06(6) . . . . ?
O2 S O2 O3 0.000(1) 2 . . . ?
O1 S O2 O1 -49.87(8) 2 . . 6 ?
O1 S O2 O1 71.03(6) . . . 6 ?
O2 S O2 O1 -168.91(6) 2 . . 6 ?
O1 S O2 O1 168.97(6) 2 . . 7_556 ?
O1 S O2 O1 -70.13(7) . . . 7_556 ?
O2 S O2 O1 49.94(3) 2 . . 7_556 ?
