#------------------------------------------------------------------------------
#$Date: 2022-01-01 07:07:36 +0200 (Sat, 01 Jan 2022) $
#$Revision: 271674 $
#$URL: file:///home/coder/svn-repositories/cod/cif/1/56/58/1565850.cif $
#------------------------------------------------------------------------------
#
# This file is available in the Crystallography Open Database (COD),
# http://www.crystallography.net/. The original data for this entry
# were provided by IUCr Journals, http://journals.iucr.org/.
#
# The file may be used within the scientific community so long as
# proper attribution is given to the journal article from which the
# data were obtained.
#
data_1565850
loop_
_publ_author_name
'Novelli, Giulia'
'Kamenev, Konstantin V.'
'Maynard-Casely, Helen E.'
'Parsons, Simon'
'McIntyre, Garry J.'
_publ_section_title
;
 Use of a miniature diamond-anvil cell in a joint X-ray and neutron
 high-pressure study on copper sulfate pentahydrate
;
_journal_issue                   1
_journal_name_full               IUCrJ
_journal_page_first              73
_journal_page_last               85
_journal_paper_doi               10.1107/S2052252521010708
_journal_volume                  9
_journal_year                    2022
_chemical_formula_moiety         'Cu H8 O8 S, H2 O'
_chemical_formula_sum            'Cu H10 O9 S'
_chemical_formula_weight         249.69
_chemical_name_common            'blue vitriol'
_chemical_name_systematic        'copper(II) sulfate pentahydrate'
_space_group_IT_number           2
_space_group_name_Hall           '-P 1'
_space_group_name_H-M_alt        'P -1'
_symmetry_cell_setting           triclinic
_symmetry_space_group_name_Hall  '-P 1'
_symmetry_space_group_name_H-M   'P -1'
_atom_sites_solution_hydrogens   difmap
_atom_sites_solution_primary     other
_audit_creation_date             2020-11-17
_audit_creation_method           'CRYSTALS_ver_14.61_build_7089 '
_cell_angle_alpha                77.308(10)
_cell_angle_beta                 82.353(10)
_cell_angle_gamma                72.640(10)
_cell_formula_units_Z            2
_cell_length_a                   5.9523(12)
_cell_length_b                   6.1001(13)
_cell_length_c                   10.6470(7)
_cell_measurement_reflns_used    2094
_cell_measurement_temperature    295(2)
_cell_measurement_theta_max      20
_cell_measurement_theta_min      3
_cell_volume                     359.02(11)
_computing_cell_refinement       'LaueG (Piltz, 2011)'
_computing_data_collection       'MAATEL/ANSTO control program'
_computing_data_reduction
'argonne_boxes (Wilkinson et al., 1988) & LaueG (Piltz, 2011)'
_computing_molecular_graphics    'CAMERON (Watkin et al., 1996)'
_computing_publication_material  'CRYSTALS (Betteridge et al., 2003)'
_computing_structure_refinement  'CRYSTALS (Betteridge et al., 2003)'
_computing_structure_solution
'From ambient pressure coordinates by X-ray diffraction experiment'
_diffrn_ambient_pressure         0.71
_diffrn_ambient_temperature      295(2)
_diffrn_measured_fraction_theta_full 0.827
_diffrn_measured_fraction_theta_max 0.827
_diffrn_measurement_device       'Laue image-plate diffractometer'
_diffrn_measurement_device_type  KOALA
_diffrn_measurement_method       Laue
_diffrn_radiation_probe          neutron
_diffrn_radiation_type           neutron
_diffrn_radiation_wavelength     0.78
_diffrn_reflns_av_R_equivalents  0.2916
_diffrn_reflns_av_unetI/netI     0.2094
_diffrn_reflns_limit_h_max       7
_diffrn_reflns_limit_h_min       -7
_diffrn_reflns_limit_k_max       7
_diffrn_reflns_limit_k_min       -7
_diffrn_reflns_limit_l_max       13
_diffrn_reflns_limit_l_min       -13
_diffrn_reflns_number            9163
_diffrn_reflns_reduction_process 'LaueG (Piltz, 2011)'
_diffrn_reflns_resolution_max    1.25
_diffrn_reflns_theta_full        27.598
_diffrn_reflns_theta_max         28.748
_diffrn_reflns_theta_min         2.158
_diffrn_source                   'nuclear reactor'
_diffrn_source_details           'thermal neutrons, supermirror guides'
_diffrn_source_type
'OPAL reactor, ANSTO, Lucas Heights, Australia'
_exptl_absorpt_coefficient_mu    0.0
_exptl_absorpt_correction_type   none
_exptl_crystal_colour            blue
_exptl_crystal_density_diffrn    2.310
_exptl_crystal_density_meas      ?
_exptl_crystal_density_method    'not measured'
_exptl_crystal_description       trapezoid
_exptl_crystal_F_000             50
_exptl_crystal_size_max          0.40
_exptl_crystal_size_mid          0.22
_exptl_crystal_size_min          0.20
_refine_diff_density_max         2.69
_refine_diff_density_min         -2.65
_refine_ls_abs_structure_details
;
Absolute structure known from synthesis
;
_refine_ls_extinction_method     None
_refine_ls_goodness_of_fit_ref   0.9999
_refine_ls_hydrogen_treatment    refall
_refine_ls_matrix_type           full
_refine_ls_number_parameters     193
_refine_ls_number_reflns         990
_refine_ls_number_restraints     0
_refine_ls_shift/su_max          0.0000536
_refine_ls_shift/su_mean         0.0000109
_refine_ls_structure_factor_coef Fsqd
_refine_ls_weighting_details
;
 Method= Modified Sheldrick 
 w=1/[\s^2^(F^2^) + ( 0.03P)^2^ + 0.00P] 
 ,where P=(max(Fo^2^,0) + 2Fc^2^)/3 
;
_refine_ls_weighting_scheme      calc
_refine_ls_wR_factor_ref         0.1651
_reflns_number_total             1147
_oxford_refine_ls_r_factor_ref   0.2398
_oxford_refine_ls_scale          1.51(4)
_iucr_refine_instructions_details
;
#
# Punched on 02/11/20 at 15:28:42
#
#LIST     12                                                                    
BLOCK 
CONT SCALE 
CONT CU    (     1 ,X'S,U'S)  UNTIL S    (     1 ) 
CONT O   (     1 ,X'S,U'S)  UNTIL O    (     9 ) 
CONT H    (     11 ,X'S,U'S)  UNTIL H    (     92 ) 
END                                                                             
#
# Punched on 02/11/20 at 15:28:42
#
#LIST     16                                                                    
NO 
REM   HREST   START (DO NOT REMOVE THIS LINE) 
REM   HREST   END (DO NOT REMOVE THIS LINE) 
END                                                                             
;
_cod_data_source_file            fs5200.cif
_cod_data_source_block           Ncuso4h2o_0.71GPa
_cod_depositor_comments
;
The following automatic conversions were performed:

data item '_exptl_crystal_density_meas' value 'not measured' was
changed to '?' -- the value is perceived as not measured.

Automatic conversion script
Id: cif_fix_values 7556 2019-12-06 15:28:31Z antanas 
;
_cod_database_code               1565850
_diffrn_wilson_b_factor          0.31
_diffrn_wilson_scale             7.46
_refine_reflns_threshold_expression_ref I>-3.0\s(I)
_iucr_refine_reflections_details
; 
 
# Data was input as F-squared 
# punching LIST  6 as LIST  6 with all keys set 
# NBGNXT=    36 
#LIST   6 
READ NCOEF= 8 TYPE=FIX, F'S = FSQ UNIT=DATA, CHECK=NO L30=NO ARCH=NO 
STORE  NCOEF= 6 
OUTPUT INDICES     /FO/        SIGMA(/FO/) RATIO/JCODE CORRECTIONS SERIAL 
CONT 
INPUT  H           K           L           /FO/        SIGMA(/FO/) JCODE 
CONT   CORRECTIONS SERIAL 
FOR (I4,I4,I4,F10.2,F8.2,F4.0,F7.4,F7.0) 
END 
  -7  -3   1   1017.60  440.31  0. 1.0000     0. 
  -7  -2   1    418.88  176.12  0. 1.0000     0. 
  -7  -2   2   -103.33  949.11  0. 1.0000     0. 
  -7  -1   1    610.17  254.40  0. 1.0000     0. 
  -6  -5   1   -358.70  430.52  0. 1.0000     0. 
  -6  -5   2    490.99  244.62  0. 1.0000     0. 
  -6  -4   1    148.63  136.98  0. 1.0000     0. 
  -6  -4   3    120.25  176.12  0. 1.0000     0. 
  -6  -3   1    587.96  156.55  0. 1.0000     0. 
  -6  -3   2    386.00  185.91  0. 1.0000     0. 
  -6  -3   4    286.20  352.25  0. 1.0000     0. 
  -6  -3   5   1773.95  371.82  0. 1.0000     0. 
  -6  -2   1    -27.36  273.97  0. 1.0000     0. 
  -6  -2   3    -21.76  293.54  0. 1.0000     0. 
  -6  -2   5    217.71  117.42  0. 1.0000     0. 
  -6  -1   1   4443.20  195.69  0. 1.0000     0. 
  -6  -1   2     34.10  166.34  0. 1.0000     0. 
  -6  -1   3   2611.52  684.92  0. 1.0000     0. 
  -6  -1   4     58.57  195.69  0. 1.0000     0. 
  -6  -1   5    397.26  127.20  0. 1.0000     0. 
  -6  -1   6     12.41  244.62  0. 1.0000     0. 
  -6   0   1    619.66  391.39  0. 1.0000     0. 
  -6   0   5   -202.35 1076.31  0. 1.0000     0. 
  -6   1   0    417.31  234.83  0. 1.0000     0. 
  -6   1   1    509.00  322.89  0. 1.0000     0. 
  -6   1   2   -284.73 1174.16  0. 1.0000     0. 
  -6   1   3    485.71  538.16  0. 1.0000     0. 
  -6   1   4   1053.81  332.68  0. 1.0000     0. 
  -6   2   1   2452.03 1272.00  0. 1.0000     0. 
  -5  -6   1    162.91  146.77  0. 1.0000     0. 
  -5  -6   2    165.75  176.12  0. 1.0000     0. 
  -5  -5   1   -158.41  283.75  0. 1.0000     0. 
  -5  -5   2    -49.78  371.82  0. 1.0000     0. 
  -5  -5   3    388.16  146.77  0. 1.0000     0. 
  -5  -5   4   2302.33  459.88  0. 1.0000     0. 
  -5  -4   1   3479.42  362.03  0. 1.0000     0. 
  -5  -4   2    700.29  136.98  0. 1.0000     0. 
  -5  -4   3     18.69  371.82  0. 1.0000     0. 
  -5  -4   4   1296.46  146.77  0. 1.0000     0. 
  -5  -4   5    446.67 1467.70  0. 1.0000     0. 
  -5  -4   6   -529.84 1272.00  0. 1.0000     0. 
  -5  -3   1   -128.18  283.75  0. 1.0000     0. 
  -5  -3   2   2254.38  450.09  0. 1.0000     0. 
  -5  -3   3    326.12   70.45  0. 1.0000     0. 
  -5  -3   4    113.01  166.34  0. 1.0000     0. 
  -5  -3   5     83.80  420.74  0. 1.0000     0. 
  -5  -3   6    800.19  410.95  0. 1.0000     0. 
  -5  -3   7   1962.80  596.86  0. 1.0000     0. 
  -5  -2   1   3930.49  205.48  0. 1.0000     0. 
  -5  -2   2   2679.03  176.12  0. 1.0000     0. 
  -5  -2   3     76.30   61.64  0. 1.0000     0. 
  -5  -2   4   6542.01  215.26  0. 1.0000     0. 
  -5  -2   5   1407.03  401.17  0. 1.0000     0. 
  -5  -2   6    590.21  391.39  0. 1.0000     0. 
  -5  -2   7    540.50  273.97  0. 1.0000     0. 
  -5  -1   1    -28.36  381.60  0. 1.0000     0. 
  -5  -1   2    140.41  166.34  0. 1.0000     0. 
  -5  -1   3   6970.58  352.25  0. 1.0000     0. 
  -5  -1   4    390.02  117.42  0. 1.0000     0. 
  -5  -1   5    841.58  146.77  0. 1.0000     0. 
  -5  -1   6    -54.07  528.37  0. 1.0000     0. 
  -5  -1   7    176.03  322.89  0. 1.0000     0. 
  -5  -1   8    342.76  371.82  0. 1.0000     0. 
  -5   0   1   -162.91  332.68  0. 1.0000     0. 
  -5   0   2    951.16  166.34  0. 1.0000     0. 
  -5   0   3     55.67  205.48  0. 1.0000     0. 
  -5   0   4   -247.75  371.82  0. 1.0000     0. 
  -5   0   6    667.51  303.32  0. 1.0000     0. 
  -5   0   7   -469.76  401.17  0. 1.0000     0. 
  -5   0   8   -226.22 2054.77  0. 1.0000     0. 
  -5   1   0    343.05  107.63  0. 1.0000     0. 
  -5   1   1    -41.06  900.19  0. 1.0000     0. 
  -5   1   2     85.89  283.75  0. 1.0000     0. 
  -5   1   3    900.87  244.62  0. 1.0000     0. 
  -5   1   4    160.08  225.05  0. 1.0000     0. 
  -5   1   5    -38.11  596.86  0. 1.0000     0. 
  -5   1   6    -70.18  919.76  0. 1.0000     0. 
  -5   1   7   1814.07  567.51  0. 1.0000     0. 
  -5   2   0    437.18  322.89  0. 1.0000     0. 
  -5   2   2    867.60  107.63  0. 1.0000     0. 
  -5   2   3   -332.87 1076.31  0. 1.0000     0. 
  -5   2   4   1974.54 2152.62  0. 1.0000     0. 
  -5   2   5    769.17  626.22  0. 1.0000     0. 
  -5   2   6      0.00  342.46  0. 1.0000     0. 
  -5   3   0    683.95 1076.31  0. 1.0000     0. 
  -5   3   1    674.36 1663.39  0. 1.0000     0. 
  -5   3   2    334.15  225.05  0. 1.0000     0. 
  -5   3   3   -833.26 2152.62  0. 1.0000     0. 
  -5   3   4    507.33  342.46  0. 1.0000     0. 
  -5   3   5   -129.16  978.46  0. 1.0000     0. 
  -4  -6   1   1054.78  450.09  0. 1.0000     0. 
  -4  -6   3    908.60  283.75  0. 1.0000     0. 
  -4  -5   1   3201.53  371.82  0. 1.0000     0. 
  -4  -5   2    236.49  205.48  0. 1.0000     0. 
  -4  -5   3    793.44   97.85  0. 1.0000     0. 
  -4  -5   4    555.57  401.17  0. 1.0000     0. 
  -4  -5   5   -522.01  626.22  0. 1.0000     0. 
  -4  -5   6  -2159.47 2544.01  0. 1.0000     0. 
  -4  -4   1     48.20   73.38  0. 1.0000     0. 
  -4  -4   3    506.26  146.77  0. 1.0000     0. 
  -4  -4   5    514.97  420.74  0. 1.0000     0. 
  -4  -4   7   -137.96 1467.70  0. 1.0000     0. 
  -4  -3   1    708.80  156.55  0. 1.0000     0. 
  -4  -3   2   1326.80  127.20  0. 1.0000     0. 
  -4  -3   3   2587.06  234.83  0. 1.0000     0. 
  -4  -3   4    216.93  127.20  0. 1.0000     0. 
  -4  -3   5   3501.92  684.92  0. 1.0000     0. 
  -4  -3   6    405.28  244.62  0. 1.0000     0. 
  -4  -3   7    -54.92  919.76  0. 1.0000     0. 
  -4  -3   8    338.35 1174.16  0. 1.0000     0. 
  -4  -2   1   2062.60  107.63  0. 1.0000     0. 
  -4  -2   3    853.12   55.77  0. 1.0000     0. 
  -4  -2   5    289.33  185.91  0. 1.0000     0. 
  -4  -2   7   1091.97  244.62  0. 1.0000     0. 
  -4  -2   9  -3615.42 5185.86  0. 1.0000     0. 
  -4  -1   1    260.86   74.36  0. 1.0000     0. 
  -4  -1   2     70.07   73.38  0. 1.0000     0. 
  -4  -1   3    -21.36  156.55  0. 1.0000     0. 
  -4  -1   4     65.62   76.32  0. 1.0000     0. 
  -4  -1   5     68.57   61.64  0. 1.0000     0. 
  -4  -1   6     93.27   85.13  0. 1.0000     0. 
  -4  -1   7   -623.77 1174.16  0. 1.0000     0. 
  -4  -1   8    482.09  371.82  0. 1.0000     0. 
  -4  -1   9    488.64 1467.70  0. 1.0000     0. 
  -4   0   1   2132.07  146.77  0. 1.0000     0. 
  -4   0   3    252.64   58.71  0. 1.0000     0. 
  -4   0   5   3556.72  342.46  0. 1.0000     0. 
  -4   0   7    156.26  166.34  0. 1.0000     0. 
  -4   0   9  -2330.70 1076.31  0. 1.0000     0. 
  -4   1   0    153.81   51.86  0. 1.0000     0. 
  -4   1   1     76.36  107.63  0. 1.0000     0. 
  -4   1   2   1215.25  176.12  0. 1.0000     0. 
  -4   1   3   1017.60  127.20  0. 1.0000     0. 
  -4   1   5   1471.61  205.48  0. 1.0000     0. 
  -4   1   6    276.91  146.77  0. 1.0000     0. 
  -4   1   7   1353.22  283.75  0. 1.0000     0. 
  -4   1   8   -715.06 1076.31  0. 1.0000     0. 
  -4   1   9    898.23 1467.70  0. 1.0000     0. 
  -4   2   1    132.68  322.89  0. 1.0000     0. 
  -4   2   3   1462.80  518.59  0. 1.0000     0. 
  -4   2   5    753.12  714.28  0. 1.0000     0. 
  -4   2   7   3455.93  733.85  0. 1.0000     0. 
  -4   2   9  -1942.25 4403.09  0. 1.0000     0. 
  -4   3   0  -1148.72 2935.39  0. 1.0000     0. 
  -4   3   1   -589.33 2054.77  0. 1.0000     0. 
  -4   3   2    114.87  391.39  0. 1.0000     0. 
  -4   3   3   1574.35  978.46  0. 1.0000     0. 
  -4   3   4   1125.23  225.05  0. 1.0000     0. 
  -4   3   5    111.15  450.09  0. 1.0000     0. 
  -4   3   6    462.32 1663.39  0. 1.0000     0. 
  -4   4   1  -1242.65 2054.77  0. 1.0000     0. 
  -4   4   3   2202.52 1076.31  0. 1.0000     0. 
  -4   4   5   -247.06  978.46  0. 1.0000     0. 
  -3  -7   1    358.90  185.91  0. 1.0000     0. 
  -3  -6   1   1624.25  156.55  0. 1.0000     0. 
  -3  -6   2   -298.04  636.00  0. 1.0000     0. 
  -3  -6   4     19.24  254.40  0. 1.0000     0. 
  -3  -5   1    275.63   68.49  0. 1.0000     0. 
  -3  -5   2    352.74   61.64  0. 1.0000     0. 
  -3  -5   3    991.18  185.91  0. 1.0000     0. 
  -3  -5   4     24.76  166.34  0. 1.0000     0. 
  -3  -5   5    461.05  234.83  0. 1.0000     0. 
  -3  -5   6   -278.08  684.92  0. 1.0000     0. 
  -3  -4   1    695.69   77.30  0. 1.0000     0. 
  -3  -4   2   3505.84  303.32  0. 1.0000     0. 
  -3  -4   3   2894.30  303.32  0. 1.0000     0. 
  -3  -4   4    134.64  195.69  0. 1.0000     0. 
  -3  -4   5    930.71  127.20  0. 1.0000     0. 
  -3  -4   6    409.68  117.42  0. 1.0000     0. 
  -3  -4   7    237.96  254.40  0. 1.0000     0. 
  -3  -4   8    845.69  410.95  0. 1.0000     0. 
  -3  -3   1    -33.45  225.05  0. 1.0000     0. 
  -3  -3   2    158.90   91.00  0. 1.0000     0. 
  -3  -3   4   4144.77  205.48  0. 1.0000     0. 
  -3  -3   5    140.31   75.34  0. 1.0000     0. 
  -3  -3   7     36.57  401.17  0. 1.0000     0. 
  -3  -3   8   1297.44  675.14  0. 1.0000     0. 
  -3  -2   1    179.55   31.31  0. 1.0000     0. 
  -3  -2   2    186.10  107.63  0. 1.0000     0. 
  -3  -2   3     17.76   41.10  0. 1.0000     0. 
  -3  -2   4    264.09  156.55  0. 1.0000     0. 
  -3  -2   5   3279.81  303.32  0. 1.0000     0. 
  -3  -2   6   1138.93  146.77  0. 1.0000     0. 
  -3  -2   7    440.50  313.11  0. 1.0000     0. 
  -3  -2   8   -745.20 1565.54  0. 1.0000     0. 
  -3  -2   9    441.29  166.34  0. 1.0000     0. 
  -3  -2  10   -479.84 1272.00  0. 1.0000     0. 
  -3  -1   1   6169.21  313.11  0. 1.0000     0. 
  -3  -1   2   4270.99  234.83  0. 1.0000     0. 
  -3  -1   3   4429.51  313.11  0. 1.0000     0. 
  -3  -1   4   2044.01  117.42  0. 1.0000     0. 
  -3  -1   5   2429.53  176.12  0. 1.0000     0. 
  -3  -1   6    860.95  176.12  0. 1.0000     0. 
  -3  -1   7    234.64  342.46  0. 1.0000     0. 
  -3  -1   8   1046.96  528.37  0. 1.0000     0. 
  -3  -1   9   1515.64  978.46  0. 1.0000     0. 
  -3  -1  10    354.69  391.39  0. 1.0000     0. 
  -3   0   1   2292.54  107.63  0. 1.0000     0. 
  -3   0   2    697.74   65.56  0. 1.0000     0. 
  -3   0   4   1043.04   86.10  0. 1.0000     0. 
  -3   0   5   2019.55  127.20  0. 1.0000     0. 
  -3   0   7   2758.29  283.75  0. 1.0000     0. 
  -3   0   8    569.07  763.20  0. 1.0000     0. 
  -3   0  10   1888.44 4305.24  0. 1.0000     0. 
  -3   0  11  -2776.88 1272.00  0. 1.0000     0. 
  -3   1   0   2109.57   86.10  0. 1.0000     0. 
  -3   1   1    363.70   68.49  0. 1.0000     0. 
  -3   1   2    268.10   83.17  0. 1.0000     0. 
  -3   1   3     92.09   64.58  0. 1.0000     0. 
  -3   1   4    -95.81  665.36  0. 1.0000     0. 
  -3   1   5   3586.07  244.62  0. 1.0000     0. 
  -3   1   6   -285.71  665.36  0. 1.0000     0. 
  -3   1   7   1580.22  176.12  0. 1.0000     0. 
  -3   1   8    168.79  332.68  0. 1.0000     0. 
  -3   1   9   2106.63 1174.16  0. 1.0000     0. 
  -3   1  10   -440.90 6066.48  0. 1.0000     0. 
  -3   1  11  -4592.91 5088.01  0. 1.0000     0. 
  -3   2   0   4328.72  459.88  0. 1.0000     0. 
  -3   2   1    -44.29  469.66  0. 1.0000     0. 
  -3   2   2   1439.32  371.82  0. 1.0000     0. 
  -3   2   3   2884.51  342.46  0. 1.0000     0. 
  -3   2   4    293.25  273.97  0. 1.0000     0. 
  -3   2   5   1839.51  636.00  0. 1.0000     0. 
  -3   2   6     43.13  244.62  0. 1.0000     0. 
  -3   2   7   2062.60  567.51  0. 1.0000     0. 
  -3   2   8    460.27  401.17  0. 1.0000     0. 
  -3   2   9    662.91 1467.70  0. 1.0000     0. 
  -3   2  10  -1386.4815655.42  0. 1.0000     0. 
  -3   3   1   8081.13  557.72  0. 1.0000     0. 
  -3   3   2   1202.53  332.68  0. 1.0000     0. 
  -3   3   4   4804.26  225.05  0. 1.0000     0. 
  -3   3   5   1640.88 1272.00  0. 1.0000     0. 
  -3   3   7   -530.13 4011.70  0. 1.0000     0. 
  -3   3   8  -1517.60 2935.39  0. 1.0000     0. 
  -3   4   0   -572.11 1076.31  0. 1.0000     0. 
  -3   4   1    131.70  636.00  0. 1.0000     0. 
  -3   4   2   1963.78  929.54  0. 1.0000     0. 
  -3   4   3   1698.61  254.40  0. 1.0000     0. 
  -3   4   4   2383.54  225.05  0. 1.0000     0. 
  -3   4   5   1999.00 1076.31  0. 1.0000     0. 
  -3   4   6    976.80  958.89  0. 1.0000     0. 
  -3   4   7    614.08  851.26  0. 1.0000     0. 
  -3   4   8  -1951.06 5968.63  0. 1.0000     0. 
  -3   5   0   2028.36 1761.23  0. 1.0000     0. 
  -3   5   1    322.60  900.19  0. 1.0000     0. 
  -3   5   2  -1733.84  841.48  0. 1.0000     0. 
  -3   5   3   1292.55  792.56  0. 1.0000     0. 
  -3   5   4    909.97  900.19  0. 1.0000     0. 
  -3   5   5   -392.36  499.02  0. 1.0000     0. 
  -3   5   6   -265.16  763.20  0. 1.0000     0. 
  -2  -7   1    191.09  293.54  0. 1.0000     0. 
  -2  -7   2   5280.77 3913.86  0. 1.0000     0. 
  -2  -6   1    128.47  283.75  0. 1.0000     0. 
  -2  -6   3    338.84  146.77  0. 1.0000     0. 
  -2  -6   5  -8448.06 7240.63  0. 1.0000     0. 
  -2  -5   1   3226.00   96.87  0. 1.0000     0. 
  -2  -5   2   1697.63  303.32  0. 1.0000     0. 
  -2  -5   3    -79.21  547.94  0. 1.0000     0. 
  -2  -5   4   -319.57  743.63  0. 1.0000     0. 
  -2  -5   5   1330.71  244.62  0. 1.0000     0. 
  -2  -5   6   -465.94  547.94  0. 1.0000     0. 
  -2  -5   7    234.64  166.34  0. 1.0000     0. 
  -2  -4   1   1049.89   81.21  0. 1.0000     0. 
  -2  -4   3    -64.58  381.60  0. 1.0000     0. 
  -2  -4   5   2726.98  313.11  0. 1.0000     0. 
  -2  -4   7    419.66   90.02  0. 1.0000     0. 
  -2  -4   9   -264.87  714.28  0. 1.0000     0. 
  -2  -3   1     11.65   76.32  0. 1.0000     0. 
  -2  -3   2    353.91   58.71  0. 1.0000     0. 
  -2  -3   3   1058.70   87.08  0. 1.0000     0. 
  -2  -3   4    279.25  117.42  0. 1.0000     0. 
  -2  -3   5    201.37   93.93  0. 1.0000     0. 
  -2  -3   6    420.94  117.42  0. 1.0000     0. 
  -2  -3   7    147.65  273.97  0. 1.0000     0. 
  -2  -3   8   -365.26  782.77  0. 1.0000     0. 
  -2  -3   9   1574.35  176.12  0. 1.0000     0. 
  -2  -3  10   -692.75 1663.39  0. 1.0000     0. 
  -2  -2   1    608.12   60.66  0. 1.0000     0. 
  -2  -2   3   1010.75  215.26  0. 1.0000     0. 
  -2  -2   5     97.33   80.23  0. 1.0000     0. 
  -2  -2   7    408.31  342.46  0. 1.0000     0. 
  -2  -2   9    491.87  362.03  0. 1.0000     0. 
  -2  -2  11   1408.01  420.74  0. 1.0000     0. 
  -2  -1   2    -72.22   56.75  0. 1.0000     0. 
  -2  -1   3    321.23   45.01  0. 1.0000     0. 
  -2  -1   4   1226.99   78.28  0. 1.0000     0. 
  -2  -1   5    246.38   41.10  0. 1.0000     0. 
  -2  -1   6   -320.15  655.57  0. 1.0000     0. 
  -2  -1   7   2820.91  244.62  0. 1.0000     0. 
  -2  -1   8   3163.37  371.82  0. 1.0000     0. 
  -2  -1   9   -264.77 5772.94  0. 1.0000     0. 
  -2  -1  10    481.21 2152.62  0. 1.0000     0. 
  -2  -1  11   -597.84 2641.85  0. 1.0000     0. 
  -2   0   1   1549.89  117.42  0. 1.0000     0. 
  -2   0   3   3371.79   83.17  0. 1.0000     0. 
  -2   0   5    -74.84  234.83  0. 1.0000     0. 
  -2   0   7   1726.01  273.97  0. 1.0000     0. 
  -2   0   9   3189.79  831.69  0. 1.0000     0. 
  -2   0  11   1131.10  547.94  0. 1.0000     0. 
  -2   1   0   1159.48   49.90  0. 1.0000     0. 
  -2   1   1   2132.07   84.15  0. 1.0000     0. 
  -2   1   2    412.81   48.92  0. 1.0000     0. 
  -2   1   3   2602.71  127.20  0. 1.0000     0. 
  -2   1   4    334.73   97.85  0. 1.0000     0. 
  -2   1   5   4332.64  146.77  0. 1.0000     0. 
  -2   1   6    -22.98  645.79  0. 1.0000     0. 
  -2   1   7   4654.55 1076.31  0. 1.0000     0. 
  -2   1   8   2839.50 1272.00  0. 1.0000     0. 
  -2   1   9    132.88 1076.31  0. 1.0000     0. 
  -2   1  10    532.48  733.85  0. 1.0000     0. 
  -2   1  11   2883.53  694.71  0. 1.0000     0. 
  -2   1  12  -3098.79 3620.32  0. 1.0000     0. 
  -2   2   1   1350.28   88.06  0. 1.0000     0. 
  -2   2   3   2789.60  185.91  0. 1.0000     0. 
  -2   2   5   7850.22  322.89  0. 1.0000     0. 
  -2   2   7    143.44  146.77  0. 1.0000     0. 
  -2   2   9   1639.91  792.56  0. 1.0000     0. 
  -2   2  11   3485.29 2054.77  0. 1.0000     0. 
  -2   3   0    886.59  127.20  0. 1.0000     0. 
  -2   3   1   1393.33  146.77  0. 1.0000     0. 
  -2   3   2    547.25   90.02  0. 1.0000     0. 
  -2   3   3   1029.34  205.48  0. 1.0000     0. 
  -2   3   4    775.82  156.55  0. 1.0000     0. 
  -2   3   5    545.79  391.39  0. 1.0000     0. 
  -2   3   6   1005.86  684.92  0. 1.0000     0. 
  -2   3   7    595.98  205.48  0. 1.0000     0. 
  -2   3   8    186.01  352.25  0. 1.0000     0. 
  -2   3  10    830.13  391.39  0. 1.0000     0. 
  -2   3  11   1009.77  733.85  0. 1.0000     0. 
  -2   4   1    118.79  283.75  0. 1.0000     0. 
  -2   4   3    696.86  342.46  0. 1.0000     0. 
  -2   4   5   -783.75 2446.16  0. 1.0000     0. 
  -2   4   7   1153.61  958.89  0. 1.0000     0. 
  -2   4   9    337.57  636.00  0. 1.0000     0. 
  -2   5   0    666.82  342.46  0. 1.0000     0. 
  -2   5   1   -417.80 1565.54  0. 1.0000     0. 
  -2   5   2     68.53  479.45  0. 1.0000     0. 
  -2   5   3  22631.87 4403.09  0. 1.0000     0. 
  -2   5   4    628.86  322.89  0. 1.0000     0. 
  -2   5   5   1688.83  166.34  0. 1.0000     0. 
  -2   5   6    195.01  587.08  0. 1.0000     0. 
  -2   5   7   1599.79  293.54  0. 1.0000     0. 
  -2   5   8   3827.75  733.85  0. 1.0000     0. 
  -2   6   1    482.77  410.95  0. 1.0000     0. 
  -2   6   3   -395.30  958.89  0. 1.0000     0. 
  -2   6   5    456.75  684.92  0. 1.0000     0. 
  -1  -7   1  -1603.70 3522.47  0. 1.0000     0. 
  -1  -6   1   1259.28  587.08  0. 1.0000     0. 
  -1  -6   2    172.01  410.95  0. 1.0000     0. 
  -1  -6   3     25.92  244.62  0. 1.0000     0. 
  -1  -6   4   2776.88  596.86  0. 1.0000     0. 
  -1  -6   5   1699.59  440.31  0. 1.0000     0. 
  -1  -5   1   5539.08  362.03  0. 1.0000     0. 
  -1  -5   2    234.73  410.95  0. 1.0000     0. 
  -1  -5   3   1223.08  352.25  0. 1.0000     0. 
  -1  -5   4   -452.15 1565.54  0. 1.0000     0. 
  -1  -5   5    351.56  440.31  0. 1.0000     0. 
  -1  -5   6    125.24  322.89  0. 1.0000     0. 
  -1  -5   7   -134.05 1076.31  0. 1.0000     0. 
  -1  -4   1   1979.43   97.85  0. 1.0000     0. 
  -1  -4   2     50.67   55.77  0. 1.0000     0. 
  -1  -4   3     31.54  107.63  0. 1.0000     0. 
  -1  -4   4    959.78  185.91  0. 1.0000     0. 
  -1  -4   5   1408.99  244.62  0. 1.0000     0. 
  -1  -4   6   2271.01  391.39  0. 1.0000     0. 
  -1  -4   7   -235.22  636.00  0. 1.0000     0. 
  -1  -4   8    228.28  841.48  0. 1.0000     0. 
  -1  -4   9    905.76  362.03  0. 1.0000     0. 
  -1  -3   1    316.44   33.27  0. 1.0000     0. 
  -1  -3   2    109.69   58.71  0. 1.0000     0. 
  -1  -3   3    334.34  176.12  0. 1.0000     0. 
  -1  -3   4    996.08   85.13  0. 1.0000     0. 
  -1  -3   5    348.92   81.21  0. 1.0000     0. 
  -1  -3   6    691.38  195.69  0. 1.0000     0. 
  -1  -3   7    -46.54  342.46  0. 1.0000     0. 
  -1  -3   8    224.17  225.05  0. 1.0000     0. 
  -1  -3   9    250.98  264.19  0. 1.0000     0. 
  -1  -3  10    284.64 1467.70  0. 1.0000     0. 
  -1  -2   1     30.81   79.26  0. 1.0000     0. 
  -1  -2   2    790.11   40.12  0. 1.0000     0. 
  -1  -2   3   2648.70   97.85  0. 1.0000     0. 
  -1  -2   4    550.58   38.16  0. 1.0000     0. 
  -1  -2   5   1389.42  107.63  0. 1.0000     0. 
  -1  -2   6   4580.19  841.48  0. 1.0000     0. 
  -1  -2   7    532.09  127.20  0. 1.0000     0. 
  -1  -2   8   2832.65 1174.16  0. 1.0000     0. 
  -1  -2   9   1886.48  792.56  0. 1.0000     0. 
  -1  -2  10    877.09  684.92  0. 1.0000     0. 
  -1  -2  11   3301.34 2054.77  0. 1.0000     0. 
  -1  -1   1    336.10   10.76  0. 1.0000     0. 
  -1  -1   2    731.50  117.42  0. 1.0000     0. 
  -1  -1   3    247.84   44.03  0. 1.0000     0. 
  -1  -1   4   1747.54   87.08  0. 1.0000     0. 
  -1  -1   5  10264.08  919.76  0. 1.0000     0. 
  -1  -1   6     80.85   85.13  0. 1.0000     0. 
  -1  -1   7    846.47  195.69  0. 1.0000     0. 
  -1  -1   8    -65.22  283.75  0. 1.0000     0. 
  -1  -1   9     87.41  244.62  0. 1.0000     0. 
  -1  -1  10    666.14  587.08  0. 1.0000     0. 
  -1  -1  11    126.71  479.45  0. 1.0000     0. 
  -1  -1  12   -350.29 2739.70  0. 1.0000     0. 
  -1   0   1    640.99   79.26  0. 1.0000     0. 
  -1   0   2   4796.43  479.45  0. 1.0000     0. 
  -1   0   3     48.75   10.76  0. 1.0000     0. 
  -1   0   4     93.44   11.74  0. 1.0000     0. 
  -1   0   5   3135.98  136.98  0. 1.0000     0. 
  -1   0   6     72.61  166.34  0. 1.0000     0. 
  -1   0   7    472.30  234.83  0. 1.0000     0. 
  -1   0   8   -274.36  968.68  0. 1.0000     0. 
  -1   0   9   1990.20  283.75  0. 1.0000     0. 
  -1   0  10    -29.88  557.72  0. 1.0000     0. 
  -1   0  11    161.64  900.19  0. 1.0000     0. 
  -1   0  12   1565.54 1076.31  0. 1.0000     0. 
  -1   1   0   1456.93   97.85  0. 1.0000     0. 
  -1   1   1    267.32   27.40  0. 1.0000     0. 
  -1   1   2     49.54   15.66  0. 1.0000     0. 
  -1   1   3     34.87   36.20  0. 1.0000     0. 
  -1   1   4   4323.83   84.15  0. 1.0000     0. 
  -1   1   5    433.66   39.14  0. 1.0000     0. 
  -1   1   6   1244.61  107.63  0. 1.0000     0. 
  -1   1   7    -27.52  469.66  0. 1.0000     0. 
  -1   1   8   3323.84  665.36  0. 1.0000     0. 
  -1   1   9   4202.50  802.34  0. 1.0000     0. 
  -1   1  10    722.20  440.31  0. 1.0000     0. 
  -1   1  11   1204.49 1663.39  0. 1.0000     0. 
  -1   1  12   -346.47  684.92  0. 1.0000     0. 
  -1   2   0   5639.87  225.05  0. 1.0000     0. 
  -1   2   1   1117.41   51.86  0. 1.0000     0. 
  -1   2   2    595.98   58.71  0. 1.0000     0. 
  -1   2   3    168.00   37.18  0. 1.0000     0. 
  -1   2   4   5195.64  861.05  0. 1.0000     0. 
  -1   2   5     13.45  136.98  0. 1.0000     0. 
  -1   2   6   1981.39  322.89  0. 1.0000     0. 
  -1   2   7   1698.61  215.26  0. 1.0000     0. 
  -1   2   8   1272.00  362.03  0. 1.0000     0. 
  -1   2   9   -212.72  518.59  0. 1.0000     0. 
  -1   2  10   1093.92  342.46  0. 1.0000     0. 
  -1   2  11   2985.29  567.51  0. 1.0000     0. 
  -1   3   0   1154.59  146.77  0. 1.0000     0. 
  -1   3   1    658.80  107.63  0. 1.0000     0. 
  -1   3   2   1598.81  117.42  0. 1.0000     0. 
  -1   3   3    118.00   80.23  0. 1.0000     0. 
  -1   3   4   2519.54  293.54  0. 1.0000     0. 
  -1   3   5    -52.05  185.91  0. 1.0000     0. 
  -1   3   6    -65.00  381.60  0. 1.0000     0. 
  -1   3   7    917.90   72.41  0. 1.0000     0. 
  -1   3   8   2983.34  410.95  0. 1.0000     0. 
  -1   3   9   2465.73  371.82  0. 1.0000     0. 
  -1   3  10    226.51  381.60  0. 1.0000     0. 
  -1   3  11  -1851.25 2250.47  0. 1.0000     0. 
  -1   3  12   -391.87 1076.31  0. 1.0000     0. 
  -1   4   0    190.02  127.20  0. 1.0000     0. 
  -1   4   1   1125.23  127.20  0. 1.0000     0. 
  -1   4   2   1639.91  136.98  0. 1.0000     0. 
  -1   4   3   6622.24  234.83  0. 1.0000     0. 
  -1   4   4    231.80   97.85  0. 1.0000     0. 
  -1   4   5    699.50   96.87  0. 1.0000     0. 
  -1   4   6     27.76  136.98  0. 1.0000     0. 
  -1   4   7   5567.46  410.95  0. 1.0000     0. 
  -1   4   8   1174.16  410.95  0. 1.0000     0. 
  -1   4   9    362.91  136.98  0. 1.0000     0. 
  -1   4  10    -86.39  655.57  0. 1.0000     0. 
  -1   4  11    442.95  254.40  0. 1.0000     0. 
  -1   5   0    -19.66 1076.31  0. 1.0000     0. 
  -1   5   1   -185.52  714.28  0. 1.0000     0. 
  -1   5   2   1293.53  127.20  0. 1.0000     0. 
  -1   5   3    362.72  342.46  0. 1.0000     0. 
  -1   5   4   -437.37  978.46  0. 1.0000     0. 
  -1   5   5    301.95  401.17  0. 1.0000     0. 
  -1   5   6    420.74  234.83  0. 1.0000     0. 
  -1   5   7    -17.86  900.19  0. 1.0000     0. 
  -1   5   8    390.80  518.59  0. 1.0000     0. 
  -1   5   9    383.66  391.39  0. 1.0000     0. 
  -1   5  10   4142.82 1272.00  0. 1.0000     0. 
  -1   6   0   1234.82  176.12  0. 1.0000     0. 
  -1   6   1     82.04  136.98  0. 1.0000     0. 
  -1   6   2   2314.07  303.32  0. 1.0000     0. 
  -1   6   3   -281.01  821.91  0. 1.0000     0. 
  -1   6   4   -166.53  978.46  0. 1.0000     0. 
  -1   6   5   -452.34 1369.85  0. 1.0000     0. 
  -1   6   6   -429.94  851.26  0. 1.0000     0. 
  -1   6   7    371.33  636.00  0. 1.0000     0. 
   0  -6   1   -286.49  753.42  0. 1.0000     0. 
   0  -5   1    292.76   90.02  0. 1.0000     0. 
   0  -5   2   -112.62  489.23  0. 1.0000     0. 
   0  -5   3    450.39  557.72  0. 1.0000     0. 
   0  -5   4  -3876.67 4892.32  0. 1.0000     0. 
   0  -5   6   -375.34 1369.85  0. 1.0000     0. 
   0  -5   7   2491.17 1076.31  0. 1.0000     0. 
   0  -4   1     31.33  127.20  0. 1.0000     0. 
   0  -4   3    591.09  146.77  0. 1.0000     0. 
   0  -4   5   1963.78  195.69  0. 1.0000     0. 
   0  -4   7    -18.07  577.29  0. 1.0000     0. 
   0  -4   9    927.68  733.85  0. 1.0000     0. 
   0  -3   1     77.24   48.92  0. 1.0000     0. 
   0  -3   2    -22.92  166.34  0. 1.0000     0. 
   0  -3   4   1787.65  362.03  0. 1.0000     0. 
   0  -3   5    385.91  136.98  0. 1.0000     0. 
   0  -3   7   3137.93  371.82  0. 1.0000     0. 
   0  -3   8    223.87  166.34  0. 1.0000     0. 
   0  -3  10  -2341.46 4500.93  0. 1.0000     0. 
   0  -2   1     -8.22   97.85  0. 1.0000     0. 
   0  -2   3   2975.51  264.19  0. 1.0000     0. 
   0  -2   5    216.04   66.54  0. 1.0000     0. 
   0  -2   7    145.69  136.98  0. 1.0000     0. 
   0  -2   9   1127.19 1174.16  0. 1.0000     0. 
   0  -2  11  10547.84 3913.86  0. 1.0000     0. 
   0  -1   1    735.71   30.33  0. 1.0000     0. 
   0  -1   2    827.58   28.38  0. 1.0000     0. 
   0  -1   3   1999.00  117.42  0. 1.0000     0. 
   0  -1   4    438.45   34.25  0. 1.0000     0. 
   0  -1   5    921.32   69.47  0. 1.0000     0. 
   0  -1   6   5770.98  107.63  0. 1.0000     0. 
   0  -1   7    175.93   97.85  0. 1.0000     0. 
   0  -1   8   1280.81  410.95  0. 1.0000     0. 
   0  -1   9   1146.76  313.11  0. 1.0000     0. 
   0  -1  10   2160.45 2152.62  0. 1.0000     0. 
   0  -1  11    910.85 2739.70  0. 1.0000     0. 
   0  -1  12  -2092.93 4403.09  0. 1.0000     0. 
   0   0   1    177.79   19.57  0. 1.0000     0. 
   0   1   0   1835.60   96.87  0. 1.0000     0. 
   0   1   2   1700.57  313.11  0. 1.0000     0. 
   0   1   3   1223.08  127.20  0. 1.0000     0. 
   0   1   4   1658.50  117.42  0. 1.0000     0. 
   0   1   5    106.07   31.31  0. 1.0000     0. 
   0   1   6    511.35  107.63  0. 1.0000     0. 
   0   1   7    369.47   97.85  0. 1.0000     0. 
   0   1   8     25.15  176.12  0. 1.0000     0. 
   0   1   9    240.21  195.69  0. 1.0000     0. 
   0   1  10   1232.86  528.37  0. 1.0000     0. 
   0   1  11   1028.37  919.76  0. 1.0000     0. 
   0   1  12    549.90  156.55  0. 1.0000     0. 
   0   2   1     60.23   45.01  0. 1.0000     0. 
   0   2   3   1272.00   76.32  0. 1.0000     0. 
   0   2   5    935.22   63.60  0. 1.0000     0. 
   0   2   7   2243.62  127.20  0. 1.0000     0. 
   0   2   9   1531.30  342.46  0. 1.0000     0. 
   0   2  11   -730.91 1272.00  0. 1.0000     0. 
   0   3   1    563.20  136.98  0. 1.0000     0. 
   0   3   2   1111.53  146.77  0. 1.0000     0. 
   0   3   4    245.69  136.98  0. 1.0000     0. 
   0   3   5    -16.09  166.34  0. 1.0000     0. 
   0   3   7    110.27   59.69  0. 1.0000     0. 
   0   3   8     76.62   90.02  0. 1.0000     0. 
   0   3  10    -12.13 1174.16  0. 1.0000     0. 
   0   3  11   -354.99  841.48  0. 1.0000     0. 
   0   4   1   1518.58   79.26  0. 1.0000     0. 
   0   4   3    344.32   39.14  0. 1.0000     0. 
   0   4   5     72.49   78.28  0. 1.0000     0. 
   0   4   7   3596.83  293.54  0. 1.0000     0. 
   0   4   9    182.78  136.98  0. 1.0000     0. 
   0   4  11    905.76  313.11  0. 1.0000     0. 
   0   5   1   5321.86  205.48  0. 1.0000     0. 
   0   5   2    115.95  107.63  0. 1.0000     0. 
   0   5   3   2363.97  166.34  0. 1.0000     0. 
   0   5   4   4511.70  244.62  0. 1.0000     0. 
   0   5   6    330.62  146.77  0. 1.0000     0. 
   0   5   7  -3744.58 4598.78  0. 1.0000     0. 
   0   5   8    545.98  195.69  0. 1.0000     0. 
   0   5   9    561.54  156.55  0. 1.0000     0. 
   0   6   1    148.43  127.20  0. 1.0000     0. 
   0   6   5    215.65  244.62  0. 1.0000     0. 
   0   6   7    181.90  352.25  0. 1.0000     0. 
   0   7   1    945.39  205.48  0. 1.0000     0. 
   0   7   2    204.50  264.19  0. 1.0000     0. 
   0   7   3    252.64  234.83  0. 1.0000     0. 
   0   7   4   1904.09  626.22  0. 1.0000     0. 
   0   7   5    171.82  166.34  0. 1.0000     0. 
   1  -6   1    725.73  293.54  0. 1.0000     0. 
   1  -6   2   -240.90  538.16  0. 1.0000     0. 
   1  -6   3   1844.40 1859.08  0. 1.0000     0. 
   1  -5   1    142.86  244.62  0. 1.0000     0. 
   1  -5   2   1375.72  185.91  0. 1.0000     0. 
   1  -5   3   -606.94 2446.16  0. 1.0000     0. 
   1  -5   4   -443.05 1272.00  0. 1.0000     0. 
   1  -5   5   1253.41  156.55  0. 1.0000     0. 
   1  -5   6   -342.46  528.37  0. 1.0000     0. 
   1  -4   1   4149.67  352.25  0. 1.0000     0. 
   1  -4   2   -134.05  264.19  0. 1.0000     0. 
   1  -4   3   1946.16  283.75  0. 1.0000     0. 
   1  -4   4   1454.98  352.25  0. 1.0000     0. 
   1  -4   5   3337.54 1174.16  0. 1.0000     0. 
   1  -4   6    450.97 1369.85  0. 1.0000     0. 
   1  -4   7    748.13  401.17  0. 1.0000     0. 
   1  -4   8   1109.58 2054.77  0. 1.0000     0. 
   1  -3   1   3156.52  322.89  0. 1.0000     0. 
   1  -3   2   1248.52  127.20  0. 1.0000     0. 
   1  -3   3    163.21   78.28  0. 1.0000     0. 
   1  -3   4    -72.29  440.31  0. 1.0000     0. 
   1  -3   5    789.72  763.20  0. 1.0000     0. 
   1  -3   6   1299.40  410.95  0. 1.0000     0. 
   1  -3   7   -414.38 1369.85  0. 1.0000     0. 
   1  -3   8   4997.99  880.62  0. 1.0000     0. 
   1  -3   9     96.50  958.89  0. 1.0000     0. 
   1  -3  10   2907.99 3228.93  0. 1.0000     0. 
   1  -2   1   1438.34   71.43  0. 1.0000     0. 
   1  -2   2  12720.03  293.54  0. 1.0000     0. 
   1  -2   3    122.31   61.64  0. 1.0000     0. 
   1  -2   4  14950.93  528.37  0. 1.0000     0. 
   1  -2   5   4952.01  254.40  0. 1.0000     0. 
   1  -2   6     70.48  215.26  0. 1.0000     0. 
   1  -2   7   4555.73  596.86  0. 1.0000     0. 
   1  -2   8    557.14  440.31  0. 1.0000     0. 
   1  -2   9   -539.52  733.85  0. 1.0000     0. 
   1  -2  10    306.16  831.69  0. 1.0000     0. 
   1  -2  11   5286.64 2446.16  0. 1.0000     0. 
   1  -1   1   3961.80  332.68  0. 1.0000     0. 
   1  -1   2    363.99   24.46  0. 1.0000     0. 
   1  -1   3    623.18   22.50  0. 1.0000     0. 
   1  -1   4   1145.78   42.07  0. 1.0000     0. 
   1  -1   5    -56.50  127.20  0. 1.0000     0. 
   1  -1   6    151.66   55.77  0. 1.0000     0. 
   1  -1   7   -108.51  352.25  0. 1.0000     0. 
   1  -1   8    183.56  136.98  0. 1.0000     0. 
   1  -1   9    429.84  352.25  0. 1.0000     0. 
   1  -1  10    236.98  489.23  0. 1.0000     0. 
   1  -1  11   -820.54 2152.62  0. 1.0000     0. 
   1  -1  12   -592.66 3131.08  0. 1.0000     0. 
   1   0   1   1050.87  166.34  0. 1.0000     0. 
   1   0   2   1915.83  185.91  0. 1.0000     0. 
   1   0   3    210.76   88.06  0. 1.0000     0. 
   1   0   4    185.42   17.61  0. 1.0000     0. 
   1   0   5   2984.31  117.42  0. 1.0000     0. 
   1   0   6     36.14   57.73  0. 1.0000     0. 
   1   0   7     36.84  136.98  0. 1.0000     0. 
   1   0   8    657.04  215.26  0. 1.0000     0. 
   1   0   9   3101.73  381.60  0. 1.0000     0. 
   1   0  10    -73.69  352.25  0. 1.0000     0. 
   1   0  11    234.73  205.48  0. 1.0000     0. 
   1   0  12    -21.73 1076.31  0. 1.0000     0. 
   1   1   3    -16.63   53.82  0. 1.0000     0. 
   1   1   4     83.25   27.40  0. 1.0000     0. 
   1   1   5     12.53   27.40  0. 1.0000     0. 
   1   1   6    203.81   88.06  0. 1.0000     0. 
   1   1   7     98.82  146.77  0. 1.0000     0. 
   1   1   8   1875.72   96.87  0. 1.0000     0. 
   1   1   9   4154.56  303.32  0. 1.0000     0. 
   1   1  10    335.52  195.69  0. 1.0000     0. 
   1   1  11    665.06  293.54  0. 1.0000     0. 
   1   1  12    189.72  684.92  0. 1.0000     0. 
   1   1  13  -2106.63 4305.24  0. 1.0000     0. 
   1   2   0    405.08  205.48  0. 1.0000     0. 
   1   2   2    780.32  107.63  0. 1.0000     0. 
   1   2   3    264.67   23.48  0. 1.0000     0. 
   1   2   4   1207.42   35.22  0. 1.0000     0. 
   1   2   5     77.16   32.29  0. 1.0000     0. 
   1   2   6   2871.79  156.55  0. 1.0000     0. 
   1   2   7   2054.77  117.42  0. 1.0000     0. 
   1   2   8   4629.11  215.26  0. 1.0000     0. 
   1   2   9    608.02  195.69  0. 1.0000     0. 
   1   2  10    625.24  156.55  0. 1.0000     0. 
   1   2  11   -438.45  958.89  0. 1.0000     0. 
   1   2  12   -235.91  225.05  0. 1.0000     0. 
   1   2  13   1295.49  313.11  0. 1.0000     0. 
   1   3   0   3060.63  479.45  0. 1.0000     0. 
   1   3   1   1962.80  313.11  0. 1.0000     0. 
   1   3   2    745.59   39.14  0. 1.0000     0. 
   1   3   3   2146.75  176.12  0. 1.0000     0. 
   1   3   4   7649.63  244.62  0. 1.0000     0. 
   1   3   5  10870.73  684.92  0. 1.0000     0. 
   1   3   6   2375.71  185.91  0. 1.0000     0. 
   1   3   7    183.07   45.01  0. 1.0000     0. 
   1   3   8    165.26   68.49  0. 1.0000     0. 
   1   3   9   1478.46  107.63  0. 1.0000     0. 
   1   3  10    233.36  166.34  0. 1.0000     0. 
   1   3  11    537.76  244.62  0. 1.0000     0. 
   1   3  12   -818.19 3228.93  0. 1.0000     0. 
   1   4   0   2967.68  303.32  0. 1.0000     0. 
   1   4   1    684.83   92.95  0. 1.0000     0. 
   1   4   2   6194.65  440.31  0. 1.0000     0. 
   1   4   3    197.65   65.56  0. 1.0000     0. 
   1   4   4    397.75   40.12  0. 1.0000     0. 
   1   4   5    477.39  107.63  0. 1.0000     0. 
   1   4   6    116.83   55.77  0. 1.0000     0. 
   1   4   7   1551.84   89.04  0. 1.0000     0. 
   1   4   8     66.92   51.86  0. 1.0000     0. 
   1   4   9     81.38   97.85  0. 1.0000     0. 
   1   4  10     93.47  156.55  0. 1.0000     0. 
   1   4  11    369.96  362.03  0. 1.0000     0. 
   1   4  12    746.57  489.23  0. 1.0000     0. 
   1   5   0    394.22  117.42  0. 1.0000     0. 
   1   5   1    324.26   81.21  0. 1.0000     0. 
   1   5   2    413.01   85.13  0. 1.0000     0. 
   1   5   3   1377.68   80.23  0. 1.0000     0. 
   1   5   4    236.10  244.62  0. 1.0000     0. 
   1   5   5   4099.76  264.19  0. 1.0000     0. 
   1   5   6    866.82  234.83  0. 1.0000     0. 
   1   5   7    485.91  117.42  0. 1.0000     0. 
   1   5   8   2411.91   70.45  0. 1.0000     0. 
   1   5   9      4.23  166.34  0. 1.0000     0. 
   1   5  10    516.34  205.48  0. 1.0000     0. 
   1   5  11   -102.84  978.46  0. 1.0000     0. 
   1   6   0    913.00  283.75  0. 1.0000     0. 
   1   6   1     -4.30  410.95  0. 1.0000     0. 
   1   6   2    -49.77  391.39  0. 1.0000     0. 
   1   6   3   1085.12  176.12  0. 1.0000     0. 
   1   6   4    200.88  166.34  0. 1.0000     0. 
   1   6   5  63795.8447944.73  0. 1.0000     0. 
   1   6   6   4229.90  234.83  0. 1.0000     0. 
   1   6   7    285.61  205.48  0. 1.0000     0. 
   1   6   8  10195.59  606.65  0. 1.0000     0. 
   1   6   9    207.63  156.55  0. 1.0000     0. 
   1   7   0    636.78  273.97  0. 1.0000     0. 
   1   7   1    736.00  254.40  0. 1.0000     0. 
   1   7   2    582.77  479.45  0. 1.0000     0. 
   1   7   3   8624.18 2641.85  0. 1.0000     0. 
   1   7   4   -547.55 1174.16  0. 1.0000     0. 
   1   7   5   -290.70  401.17  0. 1.0000     0. 
   1   7   6  99999.01 1174.16  0. 1.0000     0. 
   2  -6   1   -405.96  724.06  0. 1.0000     0. 
   2  -5   1    391.68  303.32  0. 1.0000     0. 
   2  -5   2    312.62  205.48  0. 1.0000     0. 
   2  -5   3    614.96  489.23  0. 1.0000     0. 
   2  -5   4   -332.68  900.19  0. 1.0000     0. 
   2  -5   5   -258.80 1761.23  0. 1.0000     0. 
   2  -4   1    813.49  489.23  0. 1.0000     0. 
   2  -4   3   -139.24  636.00  0. 1.0000     0. 
   2  -4   5   1675.13  313.11  0. 1.0000     0. 
   2  -4   7    625.24  958.89  0. 1.0000     0. 
   2  -3   1    -54.65  410.95  0. 1.0000     0. 
   2  -3   2    700.97  117.42  0. 1.0000     0. 
   2  -3   3    698.33  195.69  0. 1.0000     0. 
   2  -3   4  -2467.69 6164.32  0. 1.0000     0. 
   2  -3   5   1894.31  225.05  0. 1.0000     0. 
   2  -3   6    243.54  733.85  0. 1.0000     0. 
   2  -3   7   1695.68 2446.16  0. 1.0000     0. 
   2  -3   8   -633.07 1369.85  0. 1.0000     0. 
   2  -3   9    287.67 3033.24  0. 1.0000     0. 
   2  -2   1   4360.03  166.34  0. 1.0000     0. 
   2  -2   3   1032.28  156.55  0. 1.0000     0. 
   2  -2   5   4623.24  313.11  0. 1.0000     0. 
   2  -2   7    936.78  479.45  0. 1.0000     0. 
   2  -2   9   1267.11 1272.00  0. 1.0000     0. 
   2  -1   1    139.82   17.61  0. 1.0000     0. 
   2  -1   2    631.79   38.16  0. 1.0000     0. 
   2  -1   3   3982.35  313.11  0. 1.0000     0. 
   2  -1   4    420.64   71.43  0. 1.0000     0. 
   2  -1   5   2081.19  185.91  0. 1.0000     0. 
   2  -1   6   2029.33  283.75  0. 1.0000     0. 
   2  -1   7   -836.20 1565.54  0. 1.0000     0. 
   2  -1   8   1687.85  401.17  0. 1.0000     0. 
   2  -1   9    972.20  293.54  0. 1.0000     0. 
   2  -1  10   2533.24  636.00  0. 1.0000     0. 
   2  -1  11    891.87  283.75  0. 1.0000     0. 
   2   0   1    323.87   10.76  0. 1.0000     0. 
   2   0   3   5767.07  264.19  0. 1.0000     0. 
   2   0   5   1345.39   76.32  0. 1.0000     0. 
   2   0   7   5130.09  176.12  0. 1.0000     0. 
   2   0   9    646.47  225.05  0. 1.0000     0. 
   2   0  11   -162.62  645.79  0. 1.0000     0. 
   2   1   2     99.31  195.69  0. 1.0000     0. 
   2   1   3    108.61   83.17  0. 1.0000     0. 
   2   1   4     17.88  136.98  0. 1.0000     0. 
   2   1   5      9.01   15.66  0. 1.0000     0. 
   2   1   6    489.82   66.54  0. 1.0000     0. 
   2   1   7   1066.53   69.47  0. 1.0000     0. 
   2   1   8    771.03  136.98  0. 1.0000     0. 
   2   1   9   2068.47  127.20  0. 1.0000     0. 
   2   1  10   -115.36  587.08  0. 1.0000     0. 
   2   1  11    392.85  254.40  0. 1.0000     0. 
   2   1  12    477.49  381.60  0. 1.0000     0. 
   2   2   3    667.80  401.17  0. 1.0000     0. 
   2   2   5    203.52   37.18  0. 1.0000     0. 
   2   2   7   3523.45  234.83  0. 1.0000     0. 
   2   2   9   -181.80  499.02  0. 1.0000     0. 
   2   2  11   -159.20  743.63  0. 1.0000     0. 
   2   3   0   2279.82  283.75  0. 1.0000     0. 
   2   3   1   2596.84  538.16  0. 1.0000     0. 
   2   3   4      8.64   73.38  0. 1.0000     0. 
   2   3   5    242.56   44.03  0. 1.0000     0. 
   2   3   6     21.64   74.36  0. 1.0000     0. 
   2   3   7   2786.67  254.40  0. 1.0000     0. 
   2   3   8     61.90  371.82  0. 1.0000     0. 
   2   3   9     97.62  401.17  0. 1.0000     0. 
   2   3  10   -295.59 1174.16  0. 1.0000     0. 
   2   3  11   -170.94 2054.77  0. 1.0000     0. 
   2   3  12    340.21  479.45  0. 1.0000     0. 
   2   4   1     64.09  185.91  0. 1.0000     0. 
   2   4   3   1962.80  156.55  0. 1.0000     0. 
   2   4   5    266.73   87.08  0. 1.0000     0. 
   2   4   7    438.55   76.32  0. 1.0000     0. 
   2   4   9    222.31  127.20  0. 1.0000     0. 
   2   4  11     33.89  244.62  0. 1.0000     0. 
   2   5   0     83.79  117.42  0. 1.0000     0. 
   2   5   1    639.82   97.85  0. 1.0000     0. 
   2   5   2   2455.94  234.83  0. 1.0000     0. 
   2   5   3   2521.50  156.55  0. 1.0000     0. 
   2   5   4    293.05   54.79  0. 1.0000     0. 
   2   5   5    425.04   59.69  0. 1.0000     0. 
   2   5   6    626.90   87.08  0. 1.0000     0. 
   2   5   7    244.03  117.42  0. 1.0000     0. 
   2   5   8     42.80  127.20  0. 1.0000     0. 
   2   5   9   5203.47  401.17  0. 1.0000     0. 
   2   5  10   -160.96  694.71  0. 1.0000     0. 
   2   5  11   -468.78 1859.08  0. 1.0000     0. 
   2   6   1    197.65  195.69  0. 1.0000     0. 
   2   6   3    454.50  146.77  0. 1.0000     0. 
   2   6   5     85.67  234.83  0. 1.0000     0. 
   2   6   7    326.32  146.77  0. 1.0000     0. 
   2   6   9   -265.85  733.85  0. 1.0000     0. 
   2   7   0   -193.54  313.11  0. 1.0000     0. 
   2   7   1     67.13  244.62  0. 1.0000     0. 
   2   7   2   -272.80  645.79  0. 1.0000     0. 
   2   7   3    548.23  254.40  0. 1.0000     0. 
   2   7   4    129.94  166.34  0. 1.0000     0. 
   2   7   5   1739.71  205.48  0. 1.0000     0. 
   2   7   6   1061.63  342.46  0. 1.0000     0. 
   2   7   7   1373.76  176.12  0. 1.0000     0. 
   3  -5   1   2248.51  978.46  0. 1.0000     0. 
   3  -5   2    963.69 1174.16  0. 1.0000     0. 
   3  -5   3  -4017.57 5675.09  0. 1.0000     0. 
   3  -4   1   -665.45 1076.31  0. 1.0000     0. 
   3  -4   2  12074.24  684.92  0. 1.0000     0. 
   3  -4   3   1227.97 3131.08  0. 1.0000     0. 
   3  -4   4   1725.03  479.45  0. 1.0000     0. 
   3  -4   5  38072.03 8316.94  0. 1.0000     0. 
   3  -4   6  -1209.38 1272.00  0. 1.0000     0. 
   3  -3   1    605.57  117.42  0. 1.0000     0. 
   3  -3   2   -194.71  890.40  0. 1.0000     0. 
   3  -3   4   -241.58  851.26  0. 1.0000     0. 
   3  -3   5    994.12 1076.31  0. 1.0000     0. 
   3  -3   7   4420.70 1956.93  0. 1.0000     0. 
   3  -3   8    177.00 4011.70  0. 1.0000     0. 
   3  -2   1   2296.45  166.34  0. 1.0000     0. 
   3  -2   2    161.35   71.43  0. 1.0000     0. 
   3  -2   3   1177.09  136.98  0. 1.0000     0. 
   3  -2   4   1031.30  352.25  0. 1.0000     0. 
   3  -2   5   5322.84 1272.00  0. 1.0000     0. 
   3  -2   6   1014.67  410.95  0. 1.0000     0. 
   3  -2   7    808.90 1076.31  0. 1.0000     0. 
   3  -2   8   1244.61  293.54  0. 1.0000     0. 
   3  -2   9    388.94  244.62  0. 1.0000     0. 
   3  -2  10   1612.51  440.31  0. 1.0000     0. 
   3  -1   1   2179.04   66.54  0. 1.0000     0. 
   3  -1   2   1875.72   96.87  0. 1.0000     0. 
   3  -1   3    144.71   29.35  0. 1.0000     0. 
   3  -1   4    306.94   72.41  0. 1.0000     0. 
   3  -1   5    205.97  146.77  0. 1.0000     0. 
   3  -1   6    567.12  156.55  0. 1.0000     0. 
   3  -1   7    580.33  410.95  0. 1.0000     0. 
   3  -1   8    432.38  352.25  0. 1.0000     0. 
   3  -1   9   -563.69  753.42  0. 1.0000     0. 
   3  -1  10   -785.41  733.85  0. 1.0000     0. 
   3  -1  11    504.99  450.09  0. 1.0000     0. 
   3   0   1   2142.84  117.42  0. 1.0000     0. 
   3   0   2    211.64   47.94  0. 1.0000     0. 
   3   0   4    208.22   59.69  0. 1.0000     0. 
   3   0   5   1935.40  225.05  0. 1.0000     0. 
   3   0   7    -94.92  557.72  0. 1.0000     0. 
   3   0   8    531.89  107.63  0. 1.0000     0. 
   3   0  10     79.43  264.19  0. 1.0000     0. 
   3   0  11    162.72  244.62  0. 1.0000     0. 
   3   1   0    505.18   72.41  0. 1.0000     0. 
   3   1   1   6504.83   89.04  0. 1.0000     0. 
   3   1   2    330.92  117.42  0. 1.0000     0. 
   3   1   3    196.87   87.08  0. 1.0000     0. 
   3   1   4    244.81  127.20  0. 1.0000     0. 
   3   1   5   1383.55   89.04  0. 1.0000     0. 
   3   1   7   1679.04  156.55  0. 1.0000     0. 
   3   1   8    106.85   64.58  0. 1.0000     0. 
   3   1   9    -27.57  440.31  0. 1.0000     0. 
   3   1  10   1346.37  254.40  0. 1.0000     0. 
   3   1  11     71.85  273.97  0. 1.0000     0. 
   3   1  12    403.32  332.68  0. 1.0000     0. 
   3   2   0   3992.13  557.72  0. 1.0000     0. 
   3   2   3    930.52  254.40  0. 1.0000     0. 
   3   2   5    290.11   84.15  0. 1.0000     0. 
   3   2   6   1157.52   59.69  0. 1.0000     0. 
   3   2   7     -4.72  117.42  0. 1.0000     0. 
   3   2   8   2326.79  675.14  0. 1.0000     0. 
   3   2   9    340.80  136.98  0. 1.0000     0. 
   3   2  10   2291.56  293.54  0. 1.0000     0. 
   3   2  11    -50.91  596.86  0. 1.0000     0. 
   3   2  12    -86.45  978.46  0. 1.0000     0. 
   3   3   5    356.36  146.77  0. 1.0000     0. 
   3   3   7    231.11   55.77  0. 1.0000     0. 
   3   3   8   1673.17  215.26  0. 1.0000     0. 
   3   3  10   2459.86  215.26  0. 1.0000     0. 
   3   3  11   2030.31  264.19  0. 1.0000     0. 
   3   4   0   1381.59  332.68  0. 1.0000     0. 
   3   4   1   1459.87  636.00  0. 1.0000     0. 
   3   4   2   -371.82  244.62  0. 1.0000     0. 
   3   4   3   3387.44  283.75  0. 1.0000     0. 
   3   4   4    105.97  127.20  0. 1.0000     0. 
   3   4   5    -46.04  215.26  0. 1.0000     0. 
   3   4   6   -112.03  176.12  0. 1.0000     0. 
   3   4   7   2837.55  244.62  0. 1.0000     0. 
   3   4   8    -71.43  264.19  0. 1.0000     0. 
   3   4   9     84.87  146.77  0. 1.0000     0. 
   3   4  10   1089.03  283.75  0. 1.0000     0. 
   3   4  12    249.51  293.54  0. 1.0000     0. 
   3   5   0    491.87   73.38  0. 1.0000     0. 
   3   5   1    459.98   73.38  0. 1.0000     0. 
   3   5   2    145.79   65.56  0. 1.0000     0. 
   3   5   3   1512.71  117.42  0. 1.0000     0. 
   3   5   4    266.63  127.20  0. 1.0000     0. 
   3   5   5   2131.09  185.91  0. 1.0000     0. 
   3   5   6    -68.31  225.05  0. 1.0000     0. 
   3   5   7   -194.23  283.75  0. 1.0000     0. 
   3   5   8    408.41  264.19  0. 1.0000     0. 
   3   5   9   4839.48  626.22  0. 1.0000     0. 
   3   5  10    346.28  234.83  0. 1.0000     0. 
   3   5  11   1926.60  146.77  0. 1.0000     0. 
   3   6   1    226.71   79.26  0. 1.0000     0. 
   3   6   2     52.48   57.73  0. 1.0000     0. 
   3   6   4   4206.42  273.97  0. 1.0000     0. 
   3   6   5    168.30   84.15  0. 1.0000     0. 
   3   6   7      1.90  107.63  0. 1.0000     0. 
   3   6   8    146.77   97.85  0. 1.0000     0. 
   3   7   0   -235.03  724.06  0. 1.0000     0. 
   3   7   1   2919.74  410.95  0. 1.0000     0. 
   3   7   2    254.60  156.55  0. 1.0000     0. 
   3   7   3   1329.73   97.85  0. 1.0000     0. 
   3   7   4     86.78  234.83  0. 1.0000     0. 
   3   7   5     17.75  195.69  0. 1.0000     0. 
   3   7   6   -157.92  450.09  0. 1.0000     0. 
   3   7   7   -192.46 1467.70  0. 1.0000     0. 
   4  -4   1  -1477.48 2446.16  0. 1.0000     0. 
   4  -4   3    846.86 2250.47  0. 1.0000     0. 
   4  -3   1   1395.29  371.82  0. 1.0000     0. 
   4  -3   2   -570.25  508.80  0. 1.0000     0. 
   4  -3   3   1344.41  273.97  0. 1.0000     0. 
   4  -3   4    431.40  459.88  0. 1.0000     0. 
   4  -3   5    159.00  518.59  0. 1.0000     0. 
   4  -3   6   2481.38 1076.31  0. 1.0000     0. 
   4  -2   1    135.13  313.11  0. 1.0000     0. 
   4  -2   3    782.09  107.63  0. 1.0000     0. 
   4  -2   7   -614.87 1076.31  0. 1.0000     0. 
   4  -1   1   2207.41  117.42  0. 1.0000     0. 
   4  -1   2    131.31   68.49  0. 1.0000     0. 
   4  -1   3   -105.28  371.82  0. 1.0000     0. 
   4  -1   4   1491.18  127.20  0. 1.0000     0. 
   4  -1   5   1516.62  176.12  0. 1.0000     0. 
   4  -1   6  15166.19 1272.00  0. 1.0000     0. 
   4  -1   7   -288.35  684.92  0. 1.0000     0. 
   4  -1   8   4006.81  401.17  0. 1.0000     0. 
   4  -1   9    305.97  958.89  0. 1.0000     0. 
   4  -1  10    -94.51  861.05  0. 1.0000     0. 
   4   0   1   2326.79   85.13  0. 1.0000     0. 
   4   0   3      8.09   81.21  0. 1.0000     0. 
   4   0   5   1433.45  401.17  0. 1.0000     0. 
   4   0   7      2.97  127.20  0. 1.0000     0. 
   4   0   9    514.97  273.97  0. 1.0000     0. 
   4   1   0   2737.74  127.20  0. 1.0000     0. 
   4   1   1   2594.89  205.48  0. 1.0000     0. 
   4   1   2    193.64   65.56  0. 1.0000     0. 
   4   1   3    268.20  166.34  0. 1.0000     0. 
   4   1   4   1017.60  127.20  0. 1.0000     0. 
   4   1   5    159.29  117.42  0. 1.0000     0. 
   4   1   6   1197.64  371.82  0. 1.0000     0. 
   4   1   7    465.36  107.63  0. 1.0000     0. 
   4   1   8    234.83  215.26  0. 1.0000     0. 
   4   1   9   1544.99  273.97  0. 1.0000     0. 
   4   1  10   1970.63  244.62  0. 1.0000     0. 
   4   1  11    111.54  185.91  0. 1.0000     0. 
   4   2   1   4491.15  283.75  0. 1.0000     0. 
   4   2   3    229.06   63.60  0. 1.0000     0. 
   4   2   5   1258.30   91.98  0. 1.0000     0. 
   4   2   7    104.21   92.95  0. 1.0000     0. 
   4   2   9   1200.58  176.12  0. 1.0000     0. 
   4   2  11   -143.44  665.36  0. 1.0000     0. 
   4   3   0   -381.80  606.65  0. 1.0000     0. 
   4   3   1   2580.21   97.85  0. 1.0000     0. 
   4   3   2     14.77  117.42  0. 1.0000     0. 
   4   3   3    318.00  107.63  0. 1.0000     0. 
   4   3   4   4636.94  127.20  0. 1.0000     0. 
   4   3   5   1113.49  156.55  0. 1.0000     0. 
   4   3   6    163.50  176.12  0. 1.0000     0. 
   4   3   7   1529.34  136.98  0. 1.0000     0. 
   4   3   8   1246.56  254.40  0. 1.0000     0. 
   4   3   9    275.05   97.85  0. 1.0000     0. 
   4   3  10    457.43  273.97  0. 1.0000     0. 
   4   3  11    569.37  362.03  0. 1.0000     0. 
   4   4   1   1014.67   48.92  0. 1.0000     0. 
   4   4   3  10880.52 1076.31  0. 1.0000     0. 
   4   4   5    149.90   92.95  0. 1.0000     0. 
   4   4   7    204.60  107.63  0. 1.0000     0. 
   4   4   9     92.00   92.95  0. 1.0000     0. 
   4   4  11   -292.07 1663.39  0. 1.0000     0. 
   4   5   0    604.49   65.56  0. 1.0000     0. 
   4   5   1   2538.14  225.05  0. 1.0000     0. 
   4   5   2    135.81  107.63  0. 1.0000     0. 
   4   5   3     54.80   85.13  0. 1.0000     0. 
   4   5   4    431.50  107.63  0. 1.0000     0. 
   4   5   5   4117.38  176.12  0. 1.0000     0. 
   4   5   6   2322.87  273.97  0. 1.0000     0. 
   4   5   7   3130.11  127.20  0. 1.0000     0. 
   4   5   8     90.94   92.95  0. 1.0000     0. 
   4   5   9    120.25  107.63  0. 1.0000     0. 
   4   5  10    103.13   91.00  0. 1.0000     0. 
   4   6   1    677.29  205.48  0. 1.0000     0. 
   4   6   3   -233.85  440.31  0. 1.0000     0. 
   4   6   5   -205.38  273.97  0. 1.0000     0. 
   4   6   7    291.29  146.77  0. 1.0000     0. 
   4   6   9   2023.46  166.34  0. 1.0000     0. 
   4   7   0    663.99  362.03  0. 1.0000     0. 
   4   7   1     31.23  127.20  0. 1.0000     0. 
   4   7   2  19755.18  978.46  0. 1.0000     0. 
   4   7   3   1169.26  234.83  0. 1.0000     0. 
   4   7   4    309.19  352.25  0. 1.0000     0. 
   4   7   5   1238.74  166.34  0. 1.0000     0. 
   5  -3   1    -93.71  694.71  0. 1.0000     0. 
   5  -3   2   1807.22  792.56  0. 1.0000     0. 
   5  -3   3    910.56  616.43  0. 1.0000     0. 
   5  -3   4   -125.15 2250.47  0. 1.0000     0. 
   5  -2   1    -98.24  352.25  0. 1.0000     0. 
   5  -2   2    296.57  107.63  0. 1.0000     0. 
   5  -2   3    329.94  244.62  0. 1.0000     0. 
   5  -2   4    -35.57  430.52  0. 1.0000     0. 
   5  -2   5    -17.93  890.40  0. 1.0000     0. 
   5  -2   6   3704.46 1272.00  0. 1.0000     0. 
   5  -1   1   2085.11  146.77  0. 1.0000     0. 
   5  -1   2    137.28  107.63  0. 1.0000     0. 
   5  -1   3   3394.29  244.62  0. 1.0000     0. 
   5  -1   4    612.81  313.11  0. 1.0000     0. 
   5  -1   5   1470.63  215.26  0. 1.0000     0. 
   5  -1   6   -684.14 1467.70  0. 1.0000     0. 
   5  -1   7   -376.12 1663.39  0. 1.0000     0. 
   5  -1   8   -326.42  802.34  0. 1.0000     0. 
   5   0   1    -38.28  362.03  0. 1.0000     0. 
   5   0   2    553.13   65.56  0. 1.0000     0. 
   5   0   3     24.55   92.95  0. 1.0000     0. 
   5   0   4    727.78  107.63  0. 1.0000     0. 
   5   0   6   -210.17 1174.16  0. 1.0000     0. 
   5   0   7    -17.41 1761.23  0. 1.0000     0. 
   5   0   8    185.13  410.95  0. 1.0000     0. 
   5   0   9    174.26  273.97  0. 1.0000     0. 
   5   1   0    126.42  283.75  0. 1.0000     0. 
   5   1   1    143.64  127.20  0. 1.0000     0. 
   5   1   2   2366.90  146.77  0. 1.0000     0. 
   5   1   3   1327.78   97.85  0. 1.0000     0. 
   5   1   4   2287.65  146.77  0. 1.0000     0. 
   5   1   5    -21.98  234.83  0. 1.0000     0. 
   5   1   6   2242.64  215.26  0. 1.0000     0. 
   5   1   7   2602.71  283.75  0. 1.0000     0. 
   5   1   8    975.04  273.97  0. 1.0000     0. 
   5   1   9  -1981.39 2935.39  0. 1.0000     0. 
   5   1  10   -389.23 1467.70  0. 1.0000     0. 
   5   2   0   1635.01  127.20  0. 1.0000     0. 
   5   2   1   1275.92  117.42  0. 1.0000     0. 
   5   2   2   1187.86  205.48  0. 1.0000     0. 
   5   2   3    689.91  107.63  0. 1.0000     0. 
   5   2   4   3370.81  225.05  0. 1.0000     0. 
   5   2   5   1600.77  195.69  0. 1.0000     0. 
   5   2   6    427.00   73.38  0. 1.0000     0. 
   5   2   7    596.37  234.83  0. 1.0000     0. 
   5   2   8    182.48  127.20  0. 1.0000     0. 
   5   2   9     67.79  215.26  0. 1.0000     0. 
   5   2  10    -16.21 1174.16  0. 1.0000     0. 
   5   3   0    660.76   81.21  0. 1.0000     0. 
   5   3   1   1898.22   89.04  0. 1.0000     0. 
   5   3   2     28.18  107.63  0. 1.0000     0. 
   5   3   3    -88.77  362.03  0. 1.0000     0. 
   5   3   4   1908.00  156.55  0. 1.0000     0. 
   5   3   5    511.35   94.91  0. 1.0000     0. 
   5   3   6     47.64   68.49  0. 1.0000     0. 
   5   3   7    890.30  107.63  0. 1.0000     0. 
   5   3   8    404.50  225.05  0. 1.0000     0. 
   5   3   9   1206.45  273.97  0. 1.0000     0. 
   5   3  10    528.37  459.88  0. 1.0000     0. 
   5   4   0    -32.08  362.03  0. 1.0000     0. 
   5   4   1    341.97   97.85  0. 1.0000     0. 
   5   4   2    255.38  195.69  0. 1.0000     0. 
   5   4   3   3322.86  215.26  0. 1.0000     0. 
   5   4   4   1696.66  127.20  0. 1.0000     0. 
   5   4   5   -333.17  273.97  0. 1.0000     0. 
   5   4   6   1109.58  117.42  0. 1.0000     0. 
   5   4   7    290.70  176.12  0. 1.0000     0. 
   5   4   8    401.95  166.34  0. 1.0000     0. 
   5   4   9   -139.14  371.82  0. 1.0000     0. 
   5   4  10     52.79  264.19  0. 1.0000     0. 
   5   5   1   1322.88  185.91  0. 1.0000     0. 
   5   5   2   -173.97  313.11  0. 1.0000     0. 
   5   5   3    -17.77  342.46  0. 1.0000     0. 
   5   5   6     80.52  136.98  0. 1.0000     0. 
   5   5   7   1674.15  205.48  0. 1.0000     0. 
   5   5   8     23.59  146.77  0. 1.0000     0. 
   5   5   9    -67.83  714.28  0. 1.0000     0. 
   5   6   0    281.80   97.85  0. 1.0000     0. 
   5   6   1     -2.32  606.65  0. 1.0000     0. 
   5   6   2    771.91  293.54  0. 1.0000     0. 
   5   6   3    -28.73  342.46  0. 1.0000     0. 
   5   6   4    257.53  146.77  0. 1.0000     0. 
   5   6   5    401.86  107.63  0. 1.0000     0. 
   5   6   6     -4.65  528.37  0. 1.0000     0. 
   5   6   7     17.03  107.63  0. 1.0000     0. 
   6  -2   1    258.22  234.83  0. 1.0000     0. 
   6  -1   1    554.89  166.34  0. 1.0000     0. 
   6  -1   2    771.71  283.75  0. 1.0000     0. 
   6  -1   3   -137.38  440.31  0. 1.0000     0. 
   6  -1   4    146.87  146.77  0. 1.0000     0. 
   6  -1   5   -263.01 1174.16  0. 1.0000     0. 
   6   0   1   1285.70  225.05  0. 1.0000     0. 
   6   0   5    104.01  185.91  0. 1.0000     0. 
   6   0   7    181.21  176.12  0. 1.0000     0. 
   6   1   0     35.66  136.98  0. 1.0000     0. 
   6   1   1   2574.34  205.48  0. 1.0000     0. 
   6   1   2    196.08  205.48  0. 1.0000     0. 
   6   1   3   -178.37  567.51  0. 1.0000     0. 
   6   1   4     62.53  127.20  0. 1.0000     0. 
   6   1   5    597.84  185.91  0. 1.0000     0. 
   6   1   6   1125.23  391.39  0. 1.0000     0. 
   6   1   7   -384.05  518.59  0. 1.0000     0. 
   6   1   8    124.17  283.75  0. 1.0000     0. 
   6   2   1   1297.44  136.98  0. 1.0000     0. 
   6   2   3     76.17  127.20  0. 1.0000     0. 
   6   2   5    660.37  205.48  0. 1.0000     0. 
   6   2   7   1189.81  215.26  0. 1.0000     0. 
   6   3   1    459.98  107.63  0. 1.0000     0. 
   6   3   2     66.56   58.71  0. 1.0000     0. 
   6   3   4    326.32  127.20  0. 1.0000     0. 
   6   3   5    730.52  127.20  0. 1.0000     0. 
   6   3   7    486.39  205.48  0. 1.0000     0. 
   6   3   8    156.46  234.83  0. 1.0000     0. 
   6   4   1    120.35  146.77  0. 1.0000     0. 
   6   4   3     42.40   53.82  0. 1.0000     0. 
   6   4   5    165.16  136.98  0. 1.0000     0. 
   6   4   7    211.64  195.69  0. 1.0000     0. 
   6   5   0   1487.27  234.83  0. 1.0000     0. 
   6   5   1    -71.22  391.39  0. 1.0000     0. 
   6   5   2    528.47  205.48  0. 1.0000     0. 
   6   5   3   2250.47   97.85  0. 1.0000     0. 
   6   5   4   2472.58  195.69  0. 1.0000     0. 
   6   5   5    155.87  166.34  0. 1.0000     0. 
   6   5   6   1110.56  283.75  0. 1.0000     0. 
   6   5   7   -413.01  626.22  0. 1.0000     0. 
   7   0   1    565.06  469.66  0. 1.0000     0. 
   7   1   0   -226.22  508.80  0. 1.0000     0. 
   7   1   1  17123.12  244.62  0. 1.0000     0. 
   7   1   2   -159.69  332.68  0. 1.0000     0. 
   7   1   3   -235.81  978.46  0. 1.0000     0. 
   7   2   0    -98.92  450.09  0. 1.0000     0. 
   7   2   1     55.87  136.98  0. 1.0000     0. 
   7   2   2     97.64  107.63  0. 1.0000     0. 
   7   2   3    276.91  293.54  0. 1.0000     0. 
   7   2   4    322.31   88.06  0. 1.0000     0. 
   7   2   5    245.89  342.46  0. 1.0000     0. 
   7   3   0    895.98  410.95  0. 1.0000     0. 
   7   3   1    441.39  166.34  0. 1.0000     0. 
   7   3   2    607.43  136.98  0. 1.0000     0. 
   7   3   3    532.28  244.62  0. 1.0000     0. 
   7   3   4    253.13  136.98  0. 1.0000     0. 
   7   3   5   1275.92  273.97  0. 1.0000     0. 
   7   4   1   -316.04  547.94  0. 1.0000     0. 
   7   4   2   3961.80  322.89  0. 1.0000     0. 
   7   4   3     42.18  146.77  0. 1.0000     0. 
   7   4   4    135.13  185.91  0. 1.0000     0. 
-512 
#   1147 reflections output 
;
loop_
_symmetry_equiv_pos_as_xyz
x,y,z
-x,-y,-z
loop_
_atom_site_label
_atom_site_type_symbol
_atom_site_fract_x
_atom_site_fract_y
_atom_site_fract_z
_atom_site_U_iso_or_equiv
_atom_site_occupancy
_atom_site_adp_type
_atom_site_refinement_flags_posn
_atom_site_refinement_flags_adp
_atom_site_refinement_flags_occupancy
_atom_site_disorder_assembly
_atom_site_disorder_group
_atom_site_attached_hydrogens
Cu1 Cu 0.5000 1.0000 0.5000 0.0177 1.0000 Uani S . . . . .
Cu2 Cu 0.5000 0.5000 1.0000 0.0202 1.0000 Uani S . . . . .
S1 S 0.131(2) 0.988(2) 0.7870(11) 0.0274 1.0000 Uani . . . . . .
O1 O 0.3483(14) 0.8089(16) 0.4305(10) 0.0293 1.0000 Uani . . . . . .
O2 O 0.6481(15) 0.7113(13) 0.6186(9) 0.0288 1.0000 Uani . . . . . .
O3 O 0.1725(11) 1.0904(11) 0.6524(6) 0.0264 1.0000 Uani . . . . . .
O4 O 0.1343(10) 1.1445(11) 0.8714(6) 0.0289 1.0000 Uani . . . . . .
O5 O -0.1179(10) 0.9525(11) 0.8037(6) 0.0277 1.0000 Uani . . . . . .
O6 O 0.2961(11) 0.7505(11) 0.8192(6) 0.0282 1.0000 Uani . . . . . .
O7 O 0.7965(13) 0.5347(15) 0.9056(7) 0.0313 1.0000 Uani . . . . . .
O8 O 0.5191(14) 0.2434(12) 0.9154(7) 0.0331 1.0000 Uani . . . . . .
O9 O 1.1300(11) 0.5663(13) 0.6221(7) 0.0270 1.0000 Uani . . . . . .
H11 H 0.245(2) 0.902(3) 0.3537(15) 0.0528 1.0000 Uani . . . . . .
H12 H 0.284(3) 0.719(3) 0.4865(15) 0.0520 1.0000 Uani . . . . . .
H21 H 0.577(3) 0.694(3) 0.6987(16) 0.0471 1.0000 Uani . . . . . .
H22 H 0.8244(19) 0.666(2) 0.6228(12) 0.0400 1.0000 Uani . . . . . .
H71 H 0.928(2) 0.396(3) 0.8942(14) 0.0528 1.0000 Uani . . . . . .
H72 H 0.837(2) 0.679(2) 0.8768(11) 0.0414 1.0000 Uani . . . . . .
H81 H 0.391(2) 0.1974(19) 0.8995(13) 0.0499 1.0000 Uani . . . . . .
H82 H 0.669(2) 0.140(2) 0.8828(13) 0.0444 1.0000 Uani . . . . . .
H91 H 1.172(2) 0.393(3) 0.6317(11) 0.0439 1.0000 Uani . . . . . .
H92 H 1.204(3) 0.591(2) 0.6954(14) 0.0643 1.0000 Uani . . . . . .
loop_
_atom_site_aniso_label
_atom_site_aniso_U_11
_atom_site_aniso_U_22
_atom_site_aniso_U_33
_atom_site_aniso_U_23
_atom_site_aniso_U_13
_atom_site_aniso_U_12
Cu1 0.014(3) 0.018(3) 0.018(4) 0.003(3) -0.007(3) -0.003(3)
Cu2 0.024(3) 0.012(3) 0.020(4) 0.000(3) 0.002(3) -0.003(3)
S1 0.034(7) 0.030(8) 0.019(8) -0.005(6) 0.000(6) -0.011(6)
O1 0.026(4) 0.030(5) 0.035(6) -0.012(4) -0.014(5) -0.003(4)
O2 0.021(5) 0.022(4) 0.043(6) -0.003(4) -0.014(4) -0.002(3)
O3 0.031(4) 0.027(4) 0.018(4) 0.004(3) -0.000(3) -0.011(3)
O4 0.023(3) 0.036(4) 0.027(4) -0.005(3) 0.001(3) -0.010(3)
O5 0.022(3) 0.027(4) 0.031(4) -0.002(3) -0.011(3) -0.001(3)
O6 0.030(4) 0.024(4) 0.023(4) 0.003(3) 0.000(3) -0.002(3)
O7 0.024(4) 0.019(4) 0.046(5) -0.008(4) 0.013(4) -0.004(3)
O8 0.025(4) 0.025(4) 0.054(5) -0.028(4) 0.001(4) -0.001(4)
O9 0.033(4) 0.023(5) 0.029(5) -0.002(4) -0.002(3) -0.015(3)
H11 0.038(7) 0.061(9) 0.063(9) -0.001(8) -0.036(7) -0.013(6)
H12 0.067(11) 0.044(9) 0.048(13) -0.015(8) -0.015(9) -0.010(8)
H21 0.056(9) 0.031(8) 0.046(11) -0.008(8) -0.009(8) 0.003(7)
H22 0.018(6) 0.043(8) 0.045(8) -0.005(6) -0.007(6) 0.011(5)
H71 0.025(6) 0.047(9) 0.076(11) -0.021(8) -0.020(7) 0.019(6)
H72 0.067(8) 0.026(7) 0.033(7) 0.000(6) 0.001(6) -0.022(7)
H81 0.025(6) 0.040(8) 0.101(11) -0.043(8) 0.004(6) -0.015(6)
H82 0.024(6) 0.028(7) 0.074(10) -0.025(7) 0.007(6) 0.011(5)
H91 0.064(8) 0.034(8) 0.041(8) -0.000(6) -0.013(6) -0.028(7)
H92 0.114(12) 0.043(8) 0.052(10) -0.012(7) -0.032(9) -0.033(8)
loop_
_atom_type_symbol
_atom_type_scat_dispersion_real
_atom_type_scat_dispersion_imag
_atom_type_scat_Cromer_Mann_a1
_atom_type_scat_Cromer_Mann_b1
_atom_type_scat_Cromer_Mann_a2
_atom_type_scat_Cromer_Mann_b2
_atom_type_scat_Cromer_Mann_a3
_atom_type_scat_Cromer_Mann_b3
_atom_type_scat_Cromer_Mann_a4
_atom_type_scat_Cromer_Mann_b4
_atom_type_scat_Cromer_Mann_c
_atom_type_scat_source
H 0.0000 0.0000 0.0000 0.0000 0.0000 0.0000 0.0000 0.0000 0.0000 0.0000 -3.7409
'International Tables Vol C 4.2.6.8 and 6.1.1.4'
Cu 0.2873 1.4974 0.0000 0.0000 0.0000 0.0000 0.0000 0.0000 0.0000 0.0000 7.7180
'International Tables Vol C 4.2.6.8 and 6.1.1.4'
O 0.0134 0.0075 0.0000 0.0000 0.0000 0.0000 0.0000 0.0000 0.0000 0.0000 5.8050
'International Tables Vol C 4.2.6.8 and 6.1.1.4'
S 0.1445 0.1499 0.0000 0.0000 0.0000 0.0000 0.0000 0.0000 0.0000 0.0000 2.8470
'International Tables Vol C 4.2.6.8 and 6.1.1.4'
loop_
_geom_angle_atom_site_label_1
_geom_angle_site_symmetry_1
_geom_angle_atom_site_label_2
_geom_angle_site_symmetry_2
_geom_angle_atom_site_label_3
_geom_angle_site_symmetry_3
_geom_angle
_geom_angle_publ_flag
O3 2_676 Cu1 . O1 2_676 90.7(3) yes
O3 2_676 Cu1 . O2 2_676 91.0(3) yes
O1 2_676 Cu1 . O2 2_676 86.8(3) yes
O3 2_676 Cu1 . O1 . 89.3(3) yes
O1 2_676 Cu1 . O1 . 179.99 yes
O2 2_676 Cu1 . O1 . 93.2(3) yes
O3 2_676 Cu1 . O2 . 89.0(3) yes
O1 2_676 Cu1 . O2 . 93.2(3) yes
O2 2_676 Cu1 . O2 . 179.99 yes
O1 . Cu1 . O2 . 86.8(3) yes
O3 2_676 Cu1 . O3 . 180.00 yes
O1 2_676 Cu1 . O3 . 89.3(3) yes
O2 2_676 Cu1 . O3 . 89.0(3) yes
O1 . Cu1 . O3 . 90.7(3) yes
O2 . Cu1 . O3 . 91.0(3) yes
O6 2_667 Cu2 . O7 2_667 88.4(3) yes
O6 2_667 Cu2 . O8 2_667 86.3(3) yes
O7 2_667 Cu2 . O8 2_667 89.5(3) yes
O6 2_667 Cu2 . O6 . 180.00 yes
O7 2_667 Cu2 . O6 . 91.6(3) yes
O8 2_667 Cu2 . O6 . 93.7(3) yes
O6 2_667 Cu2 . O7 . 91.6(3) yes
O7 2_667 Cu2 . O7 . 179.99 yes
O8 2_667 Cu2 . O7 . 90.5(3) yes
O6 . Cu2 . O7 . 88.4(3) yes
O6 2_667 Cu2 . O8 . 93.7(3) yes
O7 2_667 Cu2 . O8 . 90.5(3) yes
O8 2_667 Cu2 . O8 . 179.99 yes
O6 . Cu2 . O8 . 86.3(3) yes
O7 . Cu2 . O8 . 89.5(3) yes
O3 . S1 . O4 . 111.2(8) yes
O3 . S1 . O5 . 107.4(7) yes
O4 . S1 . O5 . 107.7(8) yes
O3 . S1 . O6 . 110.3(8) yes
O4 . S1 . O6 . 114.0(9) yes
O5 . S1 . O6 . 105.8(8) yes
Cu1 . O1 . H11 . 114.0(10) no
Cu1 . O1 . H12 . 115.7(9) no
H11 . O1 . H12 . 113.9(13) no
Cu1 . O2 . H21 . 115.1(9) no
Cu1 . O2 . H22 . 118.0(9) no
H21 . O2 . H22 . 110.1(12) no
Cu1 . O3 . S1 . 132.1(6) yes
Cu2 . O6 . S1 . 138.8(6) yes
Cu2 . O7 . H71 . 120.5(10) no
Cu2 . O7 . H72 . 125.5(10) no
H71 . O7 . H72 . 113.5(13) no
Cu2 . O8 . H81 . 125.6(9) no
Cu2 . O8 . H82 . 124.7(9) no
H81 . O8 . H82 . 109.7(11) no
H91 . O9 . H92 . 104.0(11) no
loop_
_geom_bond_atom_site_label_1
_geom_bond_site_symmetry_1
_geom_bond_atom_site_label_2
_geom_bond_site_symmetry_2
_geom_bond_distance
_geom_bond_publ_flag
Cu1 . O3 2_676 2.376(6) yes
Cu1 . O1 2_676 1.977(7) yes
Cu1 . O2 2_676 1.966(8) yes
Cu1 . O1 . 1.977(7) yes
Cu1 . O2 . 1.966(8) yes
Cu1 . O3 . 2.376(6) yes
Cu2 . O6 2_667 2.395(6) yes
Cu2 . O7 2_667 1.956(7) yes
Cu2 . O8 2_667 1.939(7) yes
Cu2 . O6 . 2.395(6) yes
Cu2 . O7 . 1.956(7) yes
Cu2 . O8 . 1.939(7) yes
S1 . O3 . 1.452(13) yes
S1 . O4 . 1.454(13) yes
S1 . O5 . 1.541(13) yes
S1 . O6 . 1.486(13) yes
O1 . H11 . 1.04(2) no
O1 . H12 . 0.85(2) no
O2 . H21 . 0.90(2) no
O2 . H22 . 1.006(16) no
O7 . H71 . 0.984(19) no
O7 . H72 . 0.956(17) no
O8 . H81 . 0.933(17) no
O8 . H82 . 0.994(19) no
O9 . H91 . 0.993(19) no
O9 . H92 . 1.004(18) no
loop_
_oxford_refln_omitted_index_h
_oxford_refln_omitted_index_k
_oxford_refln_omitted_index_l
_oxford_refln_omitted_flag
_oxford_refln_omitted_details
1 7 6 x .
7 1 1 x .
4 -1 6 x .
1 6 5 x .
0 -2 11 x .
1 6 8 x .
4 4 3 x .
4 7 2 x .
3 -4 5 x .
6 1 1 x .
2 3 0 x .
-2 1 7 x .
-5 -3 2 x .
-2 5 3 x .
4 6 9 x .
-6 2 1 x .
3 2 8 x .
-1 5 10 x .
-6 -3 5 x .
1 7 3 x .
6 1 6 x .
-6 -1 3 x .
7 3 0 x .
-1 2 11 x .
1 4 11 x .
2 5 11 x .
2 1 2 x .
1 5 4 x .
-3 0 10 x .
1 -3 9 x .
2 -4 7 x .
-3 2 10 x .
1 -4 8 x .
-1 0 11 x .
-3 5 5 x .
-5 -4 6 x .
3 -5 2 x .
-1 1 12 x .
1 0 12 x .
-5 3 3 x .
-4 1 9 x .
-1 -1 11 x .
-2 5 1 x .
-1 1 11 x .
-5 0 8 x .
7 1 0 x .
1 -1 11 x .
-1 -3 10 x .
3 -4 6 x .
-3 5 2 x .
-3 1 11 x .
4 -4 1 x .
-3 0 11 x .
-2 1 12 x .
3 -3 4 x .
-3 -2 10 x .
-4 2 9 x .
4 -1 10 x .
-5 3 5 x .
3 -1 9 x .
-2 -7 2 x .
3 -5 1 x .
-1 2 8 x .
2 -4 5 x .
1 -2 11 x .
4 -3 6 x .
-2 1 11 x .
-4 4 3 x .
-3 4 8 x .
0 -1 11 x .
-2 -2 11 x .
-2 5 8 x .
1 7 2 x .
1 -4 3 x .
5 3 2 x .
6 5 6 x .
3 4 6 x .
-1 0 9 x .
-3 1 10 x .
1 -6 3 x .
-4 1 8 x .
2 -5 5 x .
-1 -3 9 x .
-6 1 3 x .
-2 6 3 x .
-3 -4 8 x .
-7 -3 1 x .
-3 4 6 x .
-5 2 4 x .
3 -2 10 x .
0 -4 9 x .
-4 3 6 x .
-3 5 4 x .
-2 4 7 x .
-1 -4 9 x .
0 -1 9 x .
-2 0 11 x .
-6 1 4 x .
0 -5 7 x .
-3 1 9 x .
-4 3 4 x .
-3 4 3 x .
4 -3 3 x .
0 -1 12 x .
1 2 2 x .
-3 -4 3 x .
-1 0 7 x .
1 7 1 x .
-1 2 0 x .
3 -4 2 x .
3 5 8 x .
-2 3 2 x .
-1 5 5 x .
6 1 3 x .
0 -5 3 x .
1 2 0 x .
4 5 6 x .
3 -1 8 x .
1 -2 7 x .
1 -4 5 x .
-2 3 6 x .
-1 1 4 x .
3 1 3 x .
-3 2 5 x .
-3 -4 4 x .
0 4 5 x .
2 2 3 x .
-1 -2 2 x .
3 6 5 x .
4 6 1 x .
-1 -2 1 x .
6 1 2 x .
-2 2 5 x .
-3 3 4 x .
-4 -3 3 x .
-1 2 1 x .
-5 -1 5 x .
0 7 4 x .
1 -4 4 x .
5 2 2 x .
1 3 2 x .
-5 -1 3 x .
2 7 7 x .
1 -2 3 x .
-3 3 2 x .
-6 -2 1 x .
3 2 0 x .
3 7 6 x .
0 -3 5 x .
5 5 2 x .
0 -3 7 x .
-4 -2 1 x .
-6 -1 1 x .
3 1 4 x .
-3 -1 3 x .
2 0 3 x .
3 0 1 x .
