#------------------------------------------------------------------------------
#$Date: 2022-02-01 12:22:45 +0200 (Tue, 01 Feb 2022) $
#$Revision: 272392 $
#$URL: file:///home/coder/svn-repositories/cod/cif/1/56/62/1566236.cif $
#------------------------------------------------------------------------------
#
# This file is available in the Crystallography Open Database (COD),
# http://www.crystallography.net/
#
# All data on this site have been placed in the public domain by the
# contributors.
#
data_1566236
loop_
_publ_author_name
'Jiri Sejkora'
'Ian E. Grey'
'Anthony R. Kampf'
'Jakub Plasil'
'Pavel Skacha'
_publ_section_title
;
 Bouskaite, a new molybdenyl-hydrogensulfate mineral,
 (MoO2)2O(SO3OH)2(H2O)2 . 2H2O, from the Lill mine, Pribram ore area,
 Czech Republic
;
_journal_name_full               'Journal of GeoSciences'
_journal_page_first              197
_journal_page_last               205
_journal_paper_doi               10.3190/jgeosci.287
_journal_volume                  64
_journal_year                    2019
_chemical_absolute_configuration .
_chemical_formula_sum            'H10 Mo2 O17 S2'
_chemical_formula_weight         538.1
_space_group_IT_number           2
_space_group_name_Hall           '-P 1'
_space_group_name_H-M_alt        'P -1'
_symmetry_cell_setting           triclinic
_symmetry_Int_Tables_number      2
_symmetry_space_group_name_Hall  '-P 1'
_symmetry_space_group_name_H-M   'P -1'
_cell_angle_alpha                97.430(10)
_cell_angle_beta                 100.05(2)
_cell_angle_gamma                89.960(10)
_cell_formula_units_Z            2
_cell_length_a                   5.581(3)
_cell_length_b                   9.5720(10)
_cell_length_c                   14.425(4)
_cell_measurement_reflns_used    64
_cell_measurement_temperature    100
_cell_measurement_theta_max      59.0
_cell_measurement_theta_min      6.0
_cell_volume                     752.2(5)
_diffrn_ambient_temperature      100
_diffrn_measured_fraction_theta_full 0.79
_diffrn_measured_fraction_theta_max 0.6
_diffrn_measurement_device       'Area detector'
_diffrn_radiation_probe          x-ray
_diffrn_radiation_source         synchroron
_diffrn_radiation_type           synchrotron
_diffrn_radiation_wavelength     0.7107
_diffrn_reflns_av_R_equivalents  0.1218
_diffrn_reflns_av_unetI/netI     0.1977
_diffrn_reflns_limit_h_max       7
_diffrn_reflns_limit_h_min       -7
_diffrn_reflns_limit_k_max       13
_diffrn_reflns_limit_k_min       -13
_diffrn_reflns_limit_l_max       19
_diffrn_reflns_limit_l_min       -19
_diffrn_reflns_number            8412
_diffrn_reflns_theta_full        14.1
_diffrn_reflns_theta_max         32.1
_diffrn_reflns_theta_min         1.45
_diffrn_source                   synchrotron
_exptl_absorpt_coefficient_mu    2.027
_exptl_absorpt_correction_T_max  0.75
_exptl_absorpt_correction_T_min  0.41
_exptl_absorpt_correction_type   empirical
_exptl_absorpt_process_details   SADABS
_exptl_crystal_density_diffrn    2.3756
_exptl_crystal_description       needle
_exptl_crystal_F_000             504
_exptl_crystal_size_max          0.05
_exptl_crystal_size_mid          0.005
_exptl_crystal_size_min          0.005
_refine_diff_density_max         0.94
_refine_diff_density_min         -1.04
_refine_ls_extinction_method     none
_refine_ls_goodness_of_fit_gt    2.29
_refine_ls_goodness_of_fit_ref   1.82
_refine_ls_hydrogen_treatment    constr
_refine_ls_number_constraints    0
_refine_ls_number_parameters     85
_refine_ls_number_reflns         951
_refine_ls_number_restraints     0
_refine_ls_R_factor_all          0.1728
_refine_ls_R_factor_gt           0.0931
_refine_ls_shift/su_max          0.0703
_refine_ls_shift/su_mean         0.0211
_refine_ls_structure_factor_coef F
_refine_ls_weighting_details     w=1/(\s^2^(F)+0.0001F^2^)
_refine_ls_weighting_scheme      sigma
_refine_ls_wR_factor_gt          0.0963
_refine_ls_wR_factor_ref         0.1104
_reflns_number_gt                492
_reflns_number_total             951
_reflns_threshold_expression     I>3\s(I)
_cod_data_source_file            jgeosci.287_bouskaite.cif
_cod_data_source_block           I
_cod_depositor_comments
;
The following automatic conversions were performed:

data item '_diffrn_radiation_probe' value 'X-ray' was changed to
'x-ray' in accordance with the built-in table derived from the CIF
Core dictionary named 'cif_core.dic' version 2.4.5 last updated on
2014-11-21.

Automatic conversion script
Id: cif_fix_values 8738 2021-04-28 16:35:53Z antanas 
;
_cod_database_code               1566236
loop_
_space_group_symop_id
_space_group_symop_operation_xyz
1 x,y,z
2 -x,-y,-z
loop_
_atom_site_label
_atom_site_type_symbol
_atom_site_fract_x
_atom_site_fract_y
_atom_site_fract_z
_atom_site_adp_type
_atom_site_U_iso_or_equiv
_atom_site_site_symmetry_multiplicity
_atom_site_occupancy
_atom_site_calc_flag
_atom_site_refinement_flags
_atom_site_disorder_assembly
_atom_site_disorder_group
Mo01 Mo 0.3042(3) 0.52983(19) 0.32050(13) Uiso 0.0173(7) 2 1 d . . .
Mo02 Mo 0.3040(3) 0.89967(18) 0.31801(13) Uiso 0.0173(7) 2 1 d . . .
S001 S 0.4442(9) 0.6763(6) 0.1300(4) Uiso 0.0196(12) 2 1 d . . .
S002 S 0.5188(8) 1.2130(5) 0.3033(4) Uiso 0.0156(12) 2 1 d . . .
O1 O 0.352(3) 0.6549(17) 0.0308(12) Uiso 0.032(4) 2 1 d . . .
O2 O 0.711(2) 0.6857(15) 0.1539(10) Uiso 0.019(3) 2 1 d . . .
O3 O 0.342(2) 0.8071(14) 0.1665(10) Uiso 0.019(3) 2 1 d . . .
O4 O 0.359(3) 0.5572(15) 0.1761(10) Uiso 0.025(3) 2 1 d . . .
O5 O 0.536(2) 1.2369(14) 0.4064(9) Uiso 0.018(3) 2 1 d . . .
O6 O 0.752(3) 1.2079(17) 0.2712(12) Uiso 0.034(4) 2 1 d . . .
O7 O 0.367(2) 1.0822(13) 0.2623(9) Uiso 0.013(3) 2 1 d . . .
O8 O 0.365(3) 1.3188(16) 0.2525(11) Uiso 0.030(4) 2 1 d . . .
O9 O 0.191(3) 0.4760(17) 0.4139(11) Uiso 0.032(4) 2 1 d . . .
O10 O 0.601(3) 0.5639(18) 0.3621(12) Uiso 0.035(4) 2 1 d . . .
O11 O 0.200(3) 0.9845(18) 0.4107(12) Uiso 0.035(4) 2 1 d . . .
O12 O 0.612(2) 0.8753(15) 0.3617(10) Uiso 0.023(3) 2 1 d . . .
O13 O 0.177(2) 0.7178(15) 0.3208(10) Uiso 0.022(3) 2 1 d . . .
Ow1 O -0.035(2) 0.9331(14) 0.2255(10) Uiso 0.020(3) 2 1 d . . .
Ow2 O -0.045(2) 0.4509(14) 0.2223(10) Uiso 0.019(3) 2 1 d . . .
Ow3 O 0.048(3) 0.2520(19) 0.5083(13) Uiso 0.043(4) 2 1 d . . .
Ow4 O 0.167(3) 0.318(2) 0.0433(14) Uiso 0.052(5) 2 1 d . . .
loop_
_atom_type_symbol
_atom_type_scat_dispersion_real
_atom_type_scat_dispersion_imag
_atom_type_scat_source
H 0.0000 0.0000 'International Tables Vol C tables 4.2.6.8 and 6.1.1.1'
Mo -1.6832 0.6857 'International Tables Vol C tables 4.2.6.8 and 6.1.1.1'
O 0.0106 0.0060 'International Tables Vol C tables 4.2.6.8 and 6.1.1.1'
S 0.1246 0.1234 'International Tables Vol C tables 4.2.6.8 and 6.1.1.1'
loop_
_geom_angle_atom_site_label_1
_geom_angle_atom_site_label_2
_geom_angle_atom_site_label_3
_geom_angle_site_symmetry_1
_geom_angle_site_symmetry_2
_geom_angle_site_symmetry_3
_geom_angle
Mo02 Mo01 S001 . . . 58.78(10)
Mo02 Mo01 S002 . . 1_545 156.95(11)
Mo02 Mo01 O4 . . . 75.5(4)
Mo02 Mo01 O8 . . 1_545 149.6(5)
Mo02 Mo01 O9 . . . 114.2(5)
Mo02 Mo01 O10 . . . 81.6(6)
Mo02 Mo01 O13 . . . 21.6(4)
Mo02 Mo01 Ow2 . . . 104.4(4)
S001 Mo01 S002 . . 1_545 105.83(14)
S001 Mo01 O4 . . . 17.9(4)
S001 Mo01 O8 . . 1_545 90.9(5)
S001 Mo01 O9 . . . 169.8(5)
S001 Mo01 O10 . . . 81.8(6)
S001 Mo01 O13 . . . 70.2(5)
S001 Mo01 Ow2 . . . 85.9(4)
S002 Mo01 O4 1_545 . . 92.2(4)
S002 Mo01 O8 1_545 . 1_545 22.9(4)
S002 Mo01 O9 1_545 . . 83.1(5)
S002 Mo01 O10 1_545 . . 79.1(6)
S002 Mo01 O13 1_545 . . 175.7(5)
S002 Mo01 Ow2 1_545 . . 90.4(4)
O4 Mo01 O8 . . 1_545 74.5(6)
O4 Mo01 O9 . . . 162.6(6)
O4 Mo01 O10 . . . 90.3(7)
O4 Mo01 O13 . . . 83.6(6)
O4 Mo01 Ow2 . . . 74.1(5)
O8 Mo01 O9 1_545 . . 96.1(7)
O8 Mo01 O10 1_545 . . 93.8(7)
O8 Mo01 O13 1_545 . . 153.3(6)
O8 Mo01 Ow2 1_545 . . 71.8(5)
O9 Mo01 O10 . . . 105.0(8)
O9 Mo01 O13 . . . 100.8(7)
O9 Mo01 Ow2 . . . 89.2(6)
O10 Mo01 O13 . . . 101.5(7)
O10 Mo01 Ow2 . . . 161.0(7)
O13 Mo01 Ow2 . . . 87.8(5)
Mo01 Mo02 S001 . . . 59.17(11)
Mo01 Mo02 S002 . . . 157.68(11)
Mo01 Mo02 O3 . . . 75.3(4)
Mo01 Mo02 O7 . . . 153.9(4)
Mo01 Mo02 O11 . . . 112.0(6)
Mo01 Mo02 O12 . . . 79.6(5)
Mo01 Mo02 O13 . . . 22.2(4)
Mo01 Mo02 Ow1 . . . 103.4(4)
S001 Mo02 S002 . . . 107.12(14)
S001 Mo02 O3 . . . 18.5(4)
S001 Mo02 O7 . . . 95.0(4)
S001 Mo02 O11 . . . 169.4(6)
S001 Mo02 O12 . . . 80.9(5)
S001 Mo02 O13 . . . 70.9(5)
S001 Mo02 Ow1 . . . 86.2(4)
S002 Mo02 O3 . . . 94.9(4)
S002 Mo02 O7 . . . 20.0(3)
S002 Mo02 O11 . . . 83.1(6)
S002 Mo02 O12 . . . 80.9(5)
S002 Mo02 O13 . . . 177.5(4)
S002 Mo02 Ow1 . . . 92.3(4)
O3 Mo02 O7 . . . 79.7(5)
O3 Mo02 O11 . . . 162.9(6)
O3 Mo02 O12 . . . 92.4(6)
O3 Mo02 O13 . . . 82.8(6)
O3 Mo02 Ow1 . . . 72.5(5)
O7 Mo02 O11 . . . 94.0(7)
O7 Mo02 O12 . . . 94.3(6)
O7 Mo02 O13 . . . 157.7(5)
O7 Mo02 Ow1 . . . 75.6(5)
O11 Mo02 O12 . . . 104.0(7)
O11 Mo02 O13 . . . 98.9(7)
O11 Mo02 Ow1 . . . 90.6(6)
O12 Mo02 O13 . . . 100.1(6)
O12 Mo02 Ow1 . . . 162.9(7)
O13 Mo02 Ow1 . . . 86.1(5)
Mo01 S001 Mo02 . . . 62.05(11)
Mo01 S001 O1 . . . 133.6(7)
Mo01 S001 O2 . . . 101.1(7)
Mo01 S001 O3 . . . 88.5(6)
Mo01 S001 O4 . . . 26.7(5)
Mo02 S001 O1 . . . 134.2(7)
Mo02 S001 O2 . . . 99.4(6)
Mo02 S001 O3 . . . 30.1(6)
Mo02 S001 O4 . . . 87.0(6)
O1 S001 O2 . . . 113.9(9)
O1 S001 O3 . . . 106.0(9)
O1 S001 O4 . . . 109.8(9)
O2 S001 O3 . . . 109.6(8)
O2 S001 O4 . . . 108.0(9)
O3 S001 O4 . . . 109.5(9)
Mo01 S002 Mo02 1_565 . . 134.66(17)
Mo01 S002 O5 1_565 . . 82.0(6)
Mo01 S002 O6 1_565 . . 112.2(7)
Mo01 S002 O7 1_565 . . 124.0(5)
Mo01 S002 O8 1_565 . . 34.3(6)
Mo02 S002 O5 . . . 85.3(6)
Mo02 S002 O6 . . . 112.7(7)
Mo02 S002 O7 . . . 28.0(5)
Mo02 S002 O8 . . . 121.7(6)
O5 S002 O6 . . . 114.4(8)
O5 S002 O7 . . . 110.3(8)
O5 S002 O8 . . . 113.6(8)
O6 S002 O7 . . . 110.9(8)
O6 S002 O8 . . . 107.9(10)
O7 S002 O8 . . . 98.7(8)
Mo02 O3 S001 . . . 131.4(9)
Mo01 O4 S001 . . . 135.4(8)
Mo02 O7 S002 . . . 132.1(8)
Mo01 O8 S002 1_565 . . 122.8(8)
Mo01 O13 Mo02 . . . 136.2(7)
loop_
_geom_bond_atom_site_label_1
_geom_bond_atom_site_label_2
_geom_bond_site_symmetry_1
_geom_bond_site_symmetry_2
_geom_bond_distance
Mo01 Mo02 . . 3.545(3)
Mo01 S001 . . 3.446(6)
Mo01 S002 . 1_545 3.255(5)
Mo01 O4 . . 2.205(16)
Mo01 O8 . 1_545 2.182(15)
Mo01 O9 . . 1.720(18)
Mo01 O10 . . 1.677(15)
Mo01 O13 . . 1.933(14)
Mo01 Ow2 . . 2.266(12)
Mo02 S001 . . 3.432(6)
Mo02 S002 . . 3.277(5)
Mo02 O3 . . 2.296(14)
Mo02 O7 . . 2.071(14)
Mo02 O11 . . 1.665(17)
Mo02 O12 . . 1.750(13)
Mo02 O13 . . 1.887(14)
Mo02 Ow1 . . 2.164(13)
S001 O1 . . 1.422(16)
S001 O2 . . 1.469(14)
S001 O3 . . 1.449(14)
S001 O4 . . 1.509(17)
S002 O5 . . 1.461(14)
S002 O6 . . 1.453(17)
S002 O7 . . 1.507(13)
S002 O8 . . 1.507(16)
loop_
_refln_index_h
_refln_index_k
_refln_index_l
_refln_F_squared_calc
_refln_F_squared_meas
_refln_F_squared_sigma
_refln_observed_status
1 0 0 15732.80 12322.80 1111.45 o
-3 1 0 28.48 21.87 7.29 <
-2 1 0 3449.17 3141.63 201.04 o
1 1 0 6114.49 6895.76 623.95 o
4 1 0 123.52 136.46 27.08 o
5 1 0 255.23 213.54 44.79 o
-2 2 0 4927.92 4005.16 210.41 o
-2 3 0 4183.71 3618.71 194.79 o
0 3 0 3399.11 3562.46 331.25 o
2 3 0 83.69 50.00 31.25 <
-3 4 0 1048.36 910.41 78.12 o
1 4 0 259.89 285.41 51.04 o
4 4 0 112.44 82.29 34.37 <
5 4 0 0.77 2.08 32.29 <
-4 5 0 407.18 390.62 53.12 o
-3 5 0 1484.94 1743.73 105.21 o
-3 6 0 1883.83 1884.35 129.16 o
0 6 0 78.58 51.04 37.50 <
3 6 0 29.53 6.25 205.21 <
-4 7 0 248.95 133.33 29.17 o
-2 7 0 169.48 251.04 41.67 o
3 7 0 41.57 127.08 39.58 o
-2 9 0 2.96 26.04 30.21 <
2 9 0 195.32 316.66 86.46 o
-1 10 0 25.60 114.58 38.54 <
0 -10 1 193.77 110.42 69.79 <
-2 -9 1 17.94 40.62 38.54 <
1 -9 1 24.15 57.29 40.62 <
2 -9 1 660.94 649.99 65.62 o
0 -8 1 79.24 98.96 38.54 <
-4 -7 1 441.88 549.99 80.21 o
-3 -7 1 165.03 230.21 62.50 o
-2 -7 1 40.41 155.21 42.71 o
-1 -7 1 5.09 50.00 35.42 <
0 -7 1 45.12 26.04 28.12 <
1 -7 1 736.20 1013.53 109.37 o
2 -7 1 193.11 190.62 36.46 o
3 -7 1 185.63 328.12 64.58 o
-4 -6 1 626.87 889.57 108.33 o
1 -6 1 7594.89 7518.67 738.53 o
2 -6 1 566.10 588.53 52.08 o
3 -6 1 833.62 970.82 76.04 o
4 -6 1 76.41 139.58 40.62 o
-5 -5 1 34.79 40.62 32.29 <
-4 -5 1 839.13 1290.61 134.37 o
-1 -5 1 10665.00 12990.50 1236.44 o
0 -5 1 39.32 36.46 29.17 <
3 -5 1 353.41 463.54 41.67 o
4 -5 1 791.77 583.33 70.83 o
2 -4 1 897.25 909.36 59.37 o
4 -4 1 1169.72 2510.39 434.37 o
2 -3 1 85.23 53.12 16.67 o
4 -3 1 5555.16 6105.14 564.58 o
1 -2 1 5556.99 4679.11 245.83 o
3 -2 1 5.27 28.12 20.83 <
-5 -1 1 73.58 25.00 43.75 <
-4 -1 1 70.97 100.00 27.08 o
-3 -1 1 260.86 219.79 41.67 o
1 -1 1 2611.99 2174.98 117.71 o
4 -1 1 218.03 212.50 27.08 o
-5 0 1 173.33 202.08 20.83 o
-1 0 1 26479.70 24519.50 2191.64 o
1 0 1 21027.20 19295.60 1230.19 o
-1 1 1 89.31 67.71 29.17 <
0 1 1 1008.51 1155.20 70.83 o
1 1 1 80.63 11.46 22.92 <
5 1 1 100.87 12.50 25.00 <
-2 2 1 1389.45 1590.61 86.46 o
0 2 1 1677.12 1279.15 92.71 o
5 2 1 55.83 110.42 62.50 <
2 3 1 4560.14 3832.25 404.16 o
-3 4 1 1129.74 1037.49 65.62 o
0 4 1 132.75 70.83 58.33 <
1 4 1 7.91 36.46 34.37 <
2 4 1 34.98 77.08 43.75 <
3 4 1 6.51 61.46 33.33 <
5 4 1 163.34 165.62 46.87 o
-3 5 1 7067.92 8818.65 468.74 o
4 5 1 254.58 219.79 118.75 <
-3 6 1 519.17 695.83 56.25 o
-4 7 1 5.31 31.25 16.67 <
-3 7 1 14.56 127.08 46.87 <
1 7 1 27.38 107.29 38.54 <
3 7 1 10.97 22.92 35.42 <
4 7 1 397.14 452.08 85.42 o
-1 8 1 97.38 136.46 39.58 o
0 9 1 8.00 11.46 54.17 <
2 9 1 556.76 815.62 90.62 o
0 -9 2 15.17 52.08 36.46 <
1 -9 2 425.74 748.95 110.42 o
2 -9 2 6.90 19.79 28.12 <
0 -8 2 12.83 44.79 29.17 <
2 -8 2 4070.29 4590.57 261.45 o
-3 -7 2 14.41 70.83 43.75 <
0 -7 2 25.58 63.54 29.17 <
1 -7 2 23.73 12.50 26.04 <
2 -7 2 194.46 158.33 34.37 o
3 -7 2 42.99 18.75 22.92 <
4 -7 2 22.51 26.04 27.08 <
2 -6 2 1112.54 1006.24 71.87 o
3 -6 2 226.74 254.16 35.42 o
1 -5 2 2613.61 3806.21 366.66 o
3 -5 2 9382.82 9480.10 502.08 o
4 -5 2 737.53 485.41 73.96 o
-3 -4 2 11.64 40.62 41.67 <
1 -4 2 4.79 27.08 19.79 <
2 -4 2 441.72 335.41 33.33 o
-5 -3 2 2978.16 1693.73 257.29 o
-4 -3 2 120.30 253.12 43.75 o
1 -3 2 6986.30 7377.00 478.12 o
2 -3 2 4485.21 4215.58 226.04 o
-5 -2 2 0.14 -6.25 21.87 <
-4 -2 2 1033.04 1544.77 151.04 o
-3 -2 2 31.30 71.87 23.96 o
0 -2 2 21.91 8.33 14.58 <
2 -2 2 6013.01 6856.17 363.54 o
3 -2 2 4345.97 3518.71 204.16 o
-5 -1 2 343.03 114.58 131.25 <
-4 -1 2 94.91 115.62 26.04 o
-1 -1 2 57.69 101.04 15.62 o
4 -1 2 145.68 25.00 20.83 <
5 -1 2 7.32 -2.08 76.04 <
-4 0 2 8878.25 10188.40 530.20 o
-1 0 2 486.42 505.20 27.08 o
2 1 2 646.96 589.58 48.96 o
3 1 2 59.67 71.87 58.33 <
4 1 2 111.29 82.29 52.08 <
5 1 2 17.10 29.17 32.29 <
1 2 2 4343.88 5487.44 357.29 o
4 2 2 47.14 67.71 34.37 <
-1 4 2 2917.59 4208.29 391.66 o
0 4 2 47.11 77.08 48.96 <
1 4 2 2481.05 2741.64 266.66 o
2 4 2 112.90 120.83 47.92 <
4 4 2 5.28 -1.04 35.42 <
5 4 2 3.84 76.04 58.33 <
-4 5 2 3742.14 5167.65 338.54 o
0 5 2 172.93 123.96 52.08 <
1 5 2 10009.20 9606.14 669.78 o
-4 6 2 428.35 327.08 37.50 o
-2 6 2 1091.57 1088.53 86.46 o
1 6 2 17.08 38.54 52.08 <
3 6 2 354.81 246.87 1987.48 <
-3 7 2 30.61 32.29 38.54 <
-2 7 2 141.94 156.25 36.46 o
2 7 2 153.33 317.70 71.87 o
3 7 2 68.55 69.79 54.17 <
-2 8 2 7.82 8.33 29.17 <
-1 9 2 594.95 977.07 112.50 o
0 9 2 2449.18 2379.14 1939.56 <
2 9 2 175.79 161.46 44.79 o
1 -9 3 1611.34 1760.40 123.96 o
2 -9 3 67.39 85.42 21.87 o
-4 -7 3 27.16 153.12 59.37 <
-2 -7 3 7.58 38.54 29.17 <
2 -7 3 6.81 31.25 26.04 <
3 -7 3 37.16 41.67 28.12 <
-1 -6 3 26.11 50.00 33.33 <
1 -6 3 4466.08 4469.74 250.00 o
3 -6 3 1974.30 1731.23 110.42 o
1 -5 3 5840.10 6979.09 376.04 o
2 -5 3 10494.60 13790.50 882.28 o
3 -5 3 1102.39 1374.98 104.17 o
-5 -4 3 686.34 518.74 61.46 o
-3 -4 3 1737.51 2769.76 268.75 o
-2 -4 3 115.87 68.75 29.17 <
0 -4 3 105.50 47.92 21.87 <
1 -4 3 236.83 247.91 30.21 o
3 -4 3 354.70 313.54 440.62 <
4 -4 3 62.99 119.79 31.25 o
5 -4 3 69.72 23.96 31.25 <
-5 -3 3 215.88 84.37 84.37 <
1 -3 3 153.41 166.66 18.75 o
-5 -2 3 660.17 526.04 53.12 o
-4 -2 3 18.40 41.67 19.79 <
-2 -2 3 340.64 294.79 30.21 o
0 -2 3 7967.97 9685.31 437.49 o
2 -2 3 3881.33 3114.55 171.87 o
4 -2 3 35.85 -11.46 17.71 <
5 -2 3 2369.72 663.53 327.08 <
-5 -1 3 6.24 2.08 15.62 <
-4 -1 3 1933.49 1658.31 102.08 o
-3 -1 3 3158.81 2653.10 148.96 o
-2 -1 3 15.48 38.54 14.58 <
-1 -1 3 5007.81 5431.19 246.87 o
1 -1 3 573.00 638.53 47.92 o
2 -1 3 1.45 -3.12 20.83 <
5 -1 3 42.00 50.00 23.96 <
-3 0 3 2233.84 2502.06 136.46 o
-2 0 3 963.60 917.70 45.83 o
-1 0 3 6689.27 6020.77 317.70 o
1 1 3 121.81 -3.12 26.04 <
2 1 3 355.03 203.12 65.62 o
3 1 3 775.95 377.08 89.58 o
4 1 3 914.24 412.49 783.33 <
5 1 3 86.95 114.58 53.12 <
-2 2 3 635.53 779.16 57.29 o
-1 2 3 3024.20 3237.46 212.50 o
0 2 3 2178.24 2609.35 176.04 o
1 2 3 171.58 41.67 26.04 <
4 2 3 149.76 139.58 118.75 <
5 2 3 223.56 36.46 71.87 <
-1 3 3 144.12 116.67 82.29 <
4 3 3 161.69 57.29 163.54 <
-2 4 3 12.09 0.00 25.00 <
-1 4 3 1271.86 1399.98 105.21 o
0 4 3 2.84 -1.04 28.12 <
2 4 3 109.96 162.50 37.50 o
3 4 3 250.74 208.33 57.29 o
4 4 3 179.15 247.91 62.50 o
5 4 3 86.51 92.71 64.58 <
-4 5 3 216.81 227.08 21.87 o
1 5 3 586.96 621.87 84.37 o
2 5 3 6002.96 9419.69 857.28 o
4 5 3 15.33 54.17 69.79 <
-4 6 3 1734.34 1557.27 102.08 o
0 6 3 33.08 56.25 35.42 <
2 6 3 278.00 240.62 46.87 o
3 6 3 852.99 357.29 2191.64 <
4 6 3 1019.00 1318.74 234.37 o
-4 7 3 76.53 85.42 18.75 o
-3 7 3 1.08 2.08 26.04 <
-2 7 3 166.53 126.04 34.37 o
0 7 3 106.80 147.91 40.62 o
1 7 3 4.06 11.46 35.42 <
2 8 3 98.42 253.12 78.12 o
-2 9 3 7.77 22.92 56.25 <
1 9 3 305.88 579.16 108.33 o
-1 -10 4 4.77 26.04 31.25 <
0 -10 4 989.60 1249.99 100.00 o
1 -10 4 1595.29 1599.98 152.08 o
-2 -9 4 404.19 507.29 95.83 o
1 -9 4 3.20 16.67 30.21 <
2 -9 4 434.44 471.87 62.50 o
-1 -8 4 2.45 35.42 29.17 <
1 -8 4 1383.04 1584.36 109.37 o
2 -8 4 251.06 210.41 41.67 o
-4 -7 4 55.53 54.17 51.04 <
-3 -7 4 46.93 195.83 46.87 o
0 -7 4 14.62 31.25 21.87 <
1 -7 4 302.03 341.66 41.67 o
2 -7 4 1183.66 1229.15 88.54 o
3 -7 4 5.00 16.67 20.83 <
4 -7 4 163.91 152.08 38.54 o
-4 -6 4 75.15 128.12 34.37 o
0 -6 4 5296.53 6663.47 364.58 o
2 -6 4 1620.31 1540.61 101.04 o
-5 -5 4 416.00 303.12 66.67 o
-1 -5 4 14122.70 16487.30 867.70 o
-5 -4 4 46.03 60.42 47.92 <
-4 -4 4 418.58 364.58 45.83 o
-3 -4 4 51.71 30.21 36.46 <
-2 -4 4 394.16 478.12 47.92 o
-1 -4 4 41.23 54.17 23.96 <
1 -4 4 4481.82 4063.50 271.87 o
2 -4 4 1.18 2.08 19.79 <
4 -4 4 131.30 61.46 42.71 <
5 -4 4 255.35 156.25 66.67 <
-4 -3 4 9683.66 10412.40 559.37 o
-3 -3 4 745.73 610.41 51.04 o
-2 -3 4 4134.23 3884.33 214.58 o
-1 -3 4 7.14 53.12 19.79 <
1 -3 4 4212.14 3889.54 183.33 o
2 -3 4 16.38 58.33 21.87 <
3 -3 4 4605.52 5121.82 335.41 o
4 -3 4 240.74 141.66 35.42 o
5 -3 4 1948.19 2315.60 228.12 o
-5 -2 4 1159.42 1358.32 95.83 o
-4 -2 4 1448.32 1142.70 109.37 o
-3 -2 4 1684.15 1797.90 106.25 o
-2 -2 4 71.98 40.62 17.71 <
-1 -2 4 1570.72 1739.56 86.46 o
1 -2 4 877.01 812.49 55.21 o
3 -2 4 231.41 156.25 35.42 o
5 -2 4 41.58 5.21 23.96 <
-5 -1 4 19.44 20.83 32.29 <
-4 -1 4 61.73 102.08 19.79 o
-3 -1 4 2074.90 1717.69 100.00 o
0 -1 4 114.23 200.00 31.25 o
1 -1 4 84.18 -2.08 20.83 <
3 -1 4 216.48 260.41 45.83 o
4 -1 4 76.76 65.62 42.71 <
5 -1 4 239.54 348.95 69.79 o
-1 0 4 32355.60 36523.50 1887.48 o
0 0 4 852.51 976.03 105.21 o
1 0 4 2499.44 2639.55 198.96 o
-1 1 4 375.09 320.83 35.42 o
1 1 4 98.67 169.79 31.25 o
3 1 4 12.30 3.12 31.25 <
4 1 4 63.21 59.37 43.75 <
5 1 4 187.95 118.75 58.33 <
-3 2 4 102.04 62.50 20.83 <
0 2 4 32.40 53.12 28.12 <
5 2 4 101.11 73.96 57.29 <
-1 3 4 3167.17 3640.58 337.50 o
0 3 4 10587.20 14285.30 1285.40 o
-2 4 4 345.94 234.37 109.37 <
-1 4 4 262.64 61.46 50.00 <
0 4 4 0.60 5.21 27.08 <
2 4 4 307.60 261.45 56.25 o
4 4 4 330.89 241.66 347.91 <
-4 5 4 142.11 205.21 38.54 o
-2 5 4 36.97 68.75 52.08 <
3 5 4 115.15 36.46 38.54 <
4 5 4 2071.76 867.70 2290.60 <
-3 6 4 242.83 369.79 51.04 o
-1 6 4 5.41 1.04 66.67 <
0 6 4 10756.80 14497.80 1313.53 o
1 6 4 1783.68 1252.07 2551.01 <
2 6 4 168.36 155.21 51.04 o
3 6 4 1349.95 313.54 819.78 <
4 6 4 206.65 131.25 71.87 <
-4 7 4 716.00 466.66 81.25 o
-3 7 4 136.16 110.42 34.37 o
-2 7 4 64.94 44.79 32.29 <
-1 7 4 12.55 94.79 48.96 <
2 7 4 8.56 30.21 42.71 <
-1 8 4 20.02 36.46 35.42 <
1 8 4 0.57 31.25 37.50 <
0 9 4 277.86 432.29 63.54 o
1 9 4 368.07 879.16 143.75 o
-1 -10 5 479.57 491.66 66.67 o
0 -10 5 1025.19 1284.36 137.50 o
-2 -9 5 416.43 481.24 62.50 o
-1 -9 5 101.26 154.16 37.50 o
2 -9 5 110.69 163.54 39.58 o
-2 -8 5 47.28 18.75 29.17 <
0 -8 5 3061.29 3705.17 220.83 o
2 -8 5 4018.49 4663.49 266.66 o
3 -8 5 1327.56 1035.41 109.37 o
-3 -7 5 21.47 19.79 19.79 <
-2 -7 5 163.65 158.33 35.42 o
-1 -7 5 334.82 435.41 65.62 o
0 -7 5 3437.53 3490.59 204.16 o
1 -7 5 1784.44 1588.52 107.29 o
2 -7 5 19.51 17.71 22.92 <
-4 -6 5 1764.55 1483.32 108.33 o
-3 -6 5 3152.04 2815.59 172.91 o
-2 -6 5 669.27 833.32 68.75 o
1 -6 5 2049.68 1865.60 118.75 o
2 -6 5 222.63 213.54 34.37 o
3 -6 5 440.20 377.08 67.71 o
-5 -5 5 392.34 449.99 76.04 o
-4 -5 5 111.07 155.21 27.08 o
-3 -5 5 6954.55 8139.49 442.70 o
-2 -5 5 5402.72 6531.18 355.20 o
-1 -5 5 1314.27 1739.56 110.42 o
4 -5 5 5.63 2.08 30.21 <
-5 -4 5 45.20 33.33 31.25 <
-4 -4 5 125.58 102.08 22.92 o
-3 -4 5 1570.20 1541.65 98.96 o
-2 -4 5 0.14 27.08 44.79 <
1 -4 5 1.96 18.75 13.54 <
3 -4 5 1.30 3.12 21.87 <
4 -4 5 14.06 6.25 14.58 <
-4 -3 5 69.38 56.25 25.00 <
-3 -3 5 3971.83 4001.00 222.91 o
-2 -3 5 2885.51 2987.47 202.08 o
-1 -3 5 1458.76 1290.61 96.87 o
0 -3 5 9429.72 9817.60 445.83 o
1 -3 5 2577.29 2392.68 169.79 o
3 -3 5 4696.81 5225.98 493.74 o
4 -3 5 235.76 226.04 40.62 o
-5 -2 5 1005.20 1023.95 81.25 o
-4 -2 5 5599.51 5427.02 297.91 o
-3 -2 5 9.14 52.08 20.83 <
-2 -2 5 4319.53 3909.33 214.58 o
2 -2 5 49.23 41.67 20.83 <
5 -2 5 235.85 76.04 36.46 <
-5 -1 5 227.67 270.83 35.42 o
-4 -1 5 6.78 14.58 15.62 <
-2 -1 5 979.43 1021.86 55.21 o
1 -1 5 12.62 36.46 22.92 <
3 -1 5 22.25 14.58 25.00 <
4 -1 5 6.59 -1.04 23.96 <
5 -1 5 3.26 11.46 22.92 <
-2 0 5 4515.96 4119.75 276.04 o
0 0 5 8101.49 7595.75 722.91 o
4 0 5 123.28 166.66 60.42 <
-3 1 5 1044.57 851.03 57.29 o
-2 1 5 0.41 -5.21 19.79 <
1 1 5 17.83 106.25 35.42 <
3 1 5 55.39 33.33 36.46 <
4 1 5 3.42 67.71 36.46 <
5 1 5 2.13 31.25 40.62 <
5 2 5 974.25 464.58 1020.82 <
4 3 5 3610.92 1032.28 5820.77 <
-4 4 5 6.89 26.04 12.50 <
-3 4 5 600.48 739.58 81.25 o
-2 4 5 1.55 22.92 35.42 <
-1 4 5 3.48 23.96 29.17 <
0 4 5 2.09 14.58 35.42 <
1 4 5 620.30 583.33 90.62 o
3 4 5 130.99 82.29 38.54 <
4 4 5 0.90 22.92 68.75 <
-3 5 5 25.80 37.50 36.46 <
2 5 5 37.21 31.25 33.33 <
-4 6 5 162.65 112.50 30.21 o
-2 6 5 44.25 39.58 35.42 <
-1 6 5 2366.96 2809.34 1731.23 <
2 6 5 4851.37 1966.64 1577.07 <
3 6 5 406.84 121.87 64.58 <
-4 7 5 32.00 58.33 33.33 <
-3 7 5 11.04 -6.25 31.25 <
-2 7 5 118.36 36.46 37.50 <
-1 7 5 0.51 -8.33 35.42 <
0 7 5 17.03 4.17 33.33 <
1 7 5 575.73 497.91 80.21 o
2 7 5 29.53 -4.17 36.46 <
3 7 5 2.14 5.21 40.62 <
-2 8 5 250.83 97.92 2871.84 <
1 8 5 552.99 2141.64 1608.32 <
-1 9 5 42.71 75.00 38.54 <
-2 -9 6 21.16 10.42 30.21 <
-1 -9 6 444.50 497.91 61.46 o
0 -9 6 1043.16 1357.28 103.12 o
1 -9 6 77.06 145.83 58.33 <
-3 -8 6 464.24 514.58 62.50 o
1 -8 6 5275.25 6353.05 419.79 o
2 -8 6 368.45 242.71 41.67 o
-4 -7 6 13.73 18.75 23.96 <
-3 -7 6 151.38 132.29 36.46 o
-2 -7 6 34.40 72.92 27.08 <
-1 -7 6 134.78 84.37 44.79 <
1 -7 6 75.45 119.79 34.37 o
3 -7 6 171.40 93.75 34.37 <
-4 -6 6 1053.72 1097.90 88.54 o
-3 -6 6 108.92 110.42 29.17 o
-2 -6 6 2180.90 1963.52 125.00 o
2 -6 6 5.04 -3.12 20.83 <
4 -6 6 74.98 68.75 32.29 <
-5 -5 6 646.44 826.03 139.58 o
-4 -5 6 240.16 204.16 36.46 o
-3 -5 6 1208.08 1637.48 107.29 o
-2 -5 6 268.00 314.58 41.67 o
0 -5 6 2775.02 3116.63 181.25 o
2 -5 6 6397.79 6545.76 356.25 o
3 -5 6 79.01 151.04 33.33 o
-5 -4 6 3.99 1.04 26.04 <
-4 -4 6 31.10 81.25 25.00 o
-3 -4 6 2.56 12.50 18.75 <
-2 -4 6 62.53 88.54 25.00 o
0 -4 6 496.33 420.83 46.87 o
1 -4 6 1115.31 1037.49 83.33 o
2 -4 6 404.04 377.08 42.71 o
4 -4 6 198.42 107.29 35.42 o
-1 -3 6 16614.20 18446.70 830.20 o
1 -3 6 6412.61 5927.02 322.91 o
3 -3 6 203.10 262.50 39.58 o
4 -3 6 3200.79 3051.01 211.46 o
-5 -2 6 2122.77 1623.94 119.79 o
-4 -2 6 123.27 123.96 25.00 o
-3 -2 6 5357.53 5090.57 334.37 o
-2 -2 6 4753.94 4964.53 232.29 o
-1 -2 6 5044.40 4459.33 210.41 o
0 -2 6 16.43 77.08 42.71 <
4 -2 6 0.10 -2.08 19.79 <
5 -2 6 1453.68 340.62 1777.06 <
-4 -1 6 185.76 311.45 56.25 o
-3 -1 6 171.24 83.33 21.87 o
-2 -1 6 1529.85 1532.27 94.79 o
-1 -1 6 4306.12 3705.17 206.25 o
0 -1 6 156.90 128.12 29.17 o
3 -1 6 13.20 -18.75 33.33 <
4 -1 6 71.26 36.46 31.25 <
5 -1 6 0.78 -1.04 26.04 <
-3 0 6 4785.25 5752.02 311.45 o
-2 0 6 282.41 320.83 36.46 o
0 0 6 11230.60 8457.20 801.03 o
1 0 6 0.21 11.46 41.67 <
3 0 6 4781.11 6763.47 682.28 o
-3 1 6 100.09 54.17 25.00 <
-1 1 6 2381.33 2608.30 177.08 o
2 1 6 19.97 -2.08 32.29 <
4 1 6 642.23 507.29 71.87 o
-4 2 6 2488.84 1616.65 291.66 o
-2 2 6 523.11 753.12 64.58 o
0 2 6 1879.51 1935.40 137.50 o
1 2 6 322.01 140.62 94.79 <
3 2 6 2.49 -12.50 29.17 <
-4 3 6 1242.56 1067.70 295.83 o
-1 3 6 42.17 44.79 31.25 <
2 3 6 405.17 356.25 66.67 o
4 3 6 21.32 25.00 39.58 <
-4 4 6 35.86 17.71 16.67 <
-3 4 6 471.87 539.58 83.33 o
-2 4 6 127.91 101.04 38.54 <
0 4 6 1228.92 1977.06 195.83 o
2 4 6 192.62 247.91 46.87 o
4 4 6 137.81 27.08 42.71 <
1 5 6 79.95 47.92 62.50 <
-2 6 6 361.66 340.62 82.29 o
2 6 6 563.75 744.78 351.04 <
3 6 6 1406.67 1513.52 189.58 o
-3 7 6 299.77 209.37 336.45 <
-2 7 6 35.16 83.33 40.62 <
-1 7 6 78.41 26.04 36.46 <
0 7 6 301.64 195.83 70.83 <
1 7 6 245.94 286.45 61.46 o
2 7 6 62.92 46.87 50.00 <
-2 -9 7 201.68 204.16 45.83 o
-1 -9 7 191.74 325.00 131.25 <
0 -9 7 10.21 48.96 29.17 <
1 -9 7 812.43 891.66 82.29 o
-1 -8 7 0.92 29.17 54.17 <
1 -8 7 30.63 59.37 30.21 <
-4 -7 7 888.73 790.62 76.04 o
-3 -7 7 97.78 112.50 36.46 o
-2 -7 7 78.69 54.17 17.71 o
-1 -7 7 0.64 29.17 31.25 <
2 -7 7 0.45 5.21 23.96 <
-4 -6 7 282.13 200.00 29.17 o
-3 -6 7 1136.46 1257.28 119.79 o
-2 -6 7 81.27 168.75 35.42 o
0 -6 7 8532.34 9547.81 515.62 o
1 -6 7 9.50 27.08 23.96 <
-4 -5 7 1034.79 1409.36 100.00 o
-3 -5 7 1.22 3.12 19.79 <
-1 -5 7 1517.61 1577.07 105.21 o
0 -5 7 2083.59 2264.56 137.50 o
1 -5 7 4485.34 5024.94 238.54 o
2 -5 7 107.53 119.79 28.12 o
3 -5 7 2605.29 2208.31 142.71 o
-5 -4 7 195.91 157.29 30.21 o
-4 -4 7 3.85 25.00 19.79 <
-3 -4 7 1.30 8.33 20.83 <
-2 -4 7 74.88 26.04 23.96 <
-1 -4 7 145.64 169.79 31.25 o
0 -4 7 474.94 454.16 35.42 o
1 -4 7 22.66 2.08 14.58 <
2 -4 7 247.68 344.79 44.79 o
4 -4 7 92.32 41.67 45.83 <
-5 -3 7 2107.29 1963.52 143.75 o
-4 -3 7 2398.14 2135.39 132.29 o
-2 -3 7 9822.72 10264.50 955.20 o
0 -3 7 4087.38 4112.45 276.04 o
2 -3 7 74.30 43.75 25.00 <
4 -3 7 259.93 73.96 36.46 <
-4 -2 7 2747.24 2406.22 143.75 o
-3 -2 7 1100.79 1182.28 79.17 o
-2 -2 7 3004.19 2960.38 143.75 o
-1 -2 7 9672.78 9510.31 437.49 o
1 -2 7 306.18 205.21 38.54 o
3 -2 7 125.77 40.62 32.29 <
-4 -1 7 152.95 297.91 50.00 o
-3 -1 7 834.73 765.62 58.33 o
1 -1 7 76.68 81.25 25.00 o
4 -1 7 599.51 257.29 111.46 <
-3 0 7 4838.28 6154.10 398.95 o
-2 0 7 6308.00 6829.09 366.66 o
0 0 7 1724.45 1370.82 127.08 o
1 0 7 22657.10 26244.50 2406.22 o
-4 1 7 10.00 -2.08 15.62 <
0 1 7 4672.96 4966.61 328.12 o
4 1 7 115.64 85.42 40.62 <
-4 2 7 621.49 560.41 461.45 <
-3 2 7 228.91 94.79 30.21 o
0 2 7 86.83 95.83 41.67 <
1 2 7 160.20 108.33 40.62 <
2 2 7 27.23 34.37 59.37 <
1 3 7 297.41 302.08 44.79 o
-4 4 7 2.06 2.08 20.83 <
-2 4 7 150.18 175.00 51.04 o
-1 4 7 336.55 196.87 50.00 o
0 4 7 0.26 38.54 31.25 <
1 4 7 309.80 83.33 96.87 <
2 4 7 235.48 142.71 52.08 <
3 4 7 135.94 123.96 45.83 <
4 4 7 4.58 -9.37 40.62 <
-3 6 7 630.27 1116.65 135.41 o
-2 6 7 1555.87 480.20 2020.81 <
-1 6 7 0.08 25.00 32.29 <
0 6 7 2074.37 256.25 1028.11 <
1 6 7 1246.11 968.74 798.95 <
2 6 7 1420.24 1273.94 692.70 <
3 6 7 1006.30 -38.54 395.83 <
-2 7 7 5.88 15.62 39.58 <
-1 7 7 67.28 110.42 76.04 <
2 7 7 726.35 242.71 206.25 <
-1 8 7 1712.78 2954.13 482.29 o
1 8 7 179.27 180.21 1226.03 <
-2 -9 8 186.93 273.95 51.04 o
-1 -9 8 71.73 87.50 38.54 <
0 -9 8 196.57 170.83 41.67 o
1 -9 8 113.57 115.62 36.46 o
-2 -8 8 222.57 248.96 45.83 o
-4 -7 8 0.49 -14.58 25.00 <
-3 -7 8 52.19 110.42 51.04 <
-2 -7 8 127.25 145.83 35.42 o
-1 -7 8 0.25 -9.37 20.83 <
0 -7 8 58.69 77.08 25.00 o
1 -7 8 410.61 233.33 44.79 o
2 -7 8 4.45 -7.29 26.04 <
3 -7 8 31.64 137.50 59.37 <
-4 -6 8 2370.13 2622.89 166.66 o
-3 -6 8 1646.29 1443.73 103.12 o
-2 -6 8 106.07 147.91 37.50 o
-1 -6 8 2219.31 2732.26 168.75 o
0 -6 8 44.48 67.71 30.21 <
1 -6 8 5451.01 5309.32 300.00 o
3 -6 8 194.50 421.87 103.12 o
-4 -5 8 488.26 519.79 53.12 o
-1 -5 8 644.40 484.37 47.92 o
0 -5 8 4300.46 5371.81 256.25 o
1 -5 8 166.00 178.12 26.04 o
2 -5 8 5632.51 6617.63 364.58 o
3 -5 8 3623.08 3488.50 240.62 o
-5 -4 8 203.56 148.96 31.25 o
-4 -4 8 376.96 323.95 40.62 o
-2 -4 8 15.49 9.37 20.83 <
-1 -4 8 1658.03 1906.23 101.04 o
2 -4 8 0.01 -2.08 27.08 <
3 -4 8 223.85 139.58 37.50 o
4 -4 8 0.63 5.21 25.00 <
-5 -3 8 838.59 728.12 67.71 o
-3 -3 8 6400.61 5685.35 311.45 o
-2 -3 8 87.36 92.71 20.83 o
-1 -3 8 10455.70 8595.74 458.33 o
0 -3 8 7616.03 7572.83 412.49 o
1 -3 8 0.51 32.29 30.21 <
-3 -2 8 754.54 1061.45 134.37 o
-2 -2 8 8907.86 8897.82 809.37 o
0 -2 8 415.21 293.75 47.92 o
2 -2 8 86.92 10.42 20.83 <
-5 -1 8 34.74 48.96 32.29 <
-3 -1 8 2.18 0.00 22.92 <
1 -1 8 1812.81 1770.81 184.37 o
2 -1 8 889.55 555.20 90.62 o
3 -1 8 0.36 -8.33 27.08 <
-4 0 8 1764.69 2471.85 248.96 o
-3 0 8 21.55 51.04 35.42 <
-2 0 8 8872.80 8713.44 465.62 o
2 0 8 3175.49 4234.33 467.70 o
4 0 8 33.22 41.67 36.46 <
-5 1 8 91.57 81.25 20.83 o
-4 1 8 612.93 492.70 47.92 o
-3 1 8 75.60 18.75 38.54 <
-2 1 8 2982.92 3331.21 227.08 o
1 1 8 1391.46 1780.19 131.25 o
2 1 8 121.27 62.50 41.67 <
-4 2 8 428.87 462.49 52.08 o
1 2 8 58.01 117.71 31.25 o
4 2 8 6.56 11.46 37.50 <
2 3 8 3311.71 776.03 6922.84 <
3 3 8 642.22 12.50 73.96 <
4 3 8 623.92 227.08 92.71 <
-4 4 8 549.89 1271.86 280.20 o
-3 4 8 329.87 104.17 117.71 <
-1 4 8 137.13 96.87 34.37 <
0 4 8 56.81 55.21 61.46 <
1 4 8 22.36 39.58 41.67 <
0 5 8 5.80 37.50 33.33 <
-2 6 8 0.55 -7.29 37.50 <
-1 6 8 4112.26 8668.65 2866.63 o
1 6 8 360.36 91.67 61.46 <
2 6 8 2330.69 1283.32 472.91 <
-3 7 8 0.06 23.96 44.79 <
-2 7 8 13.79 29.17 71.87 <
-1 7 8 462.03 414.58 77.08 o
1 7 8 464.74 712.49 175.00 o
-1 8 8 2331.76 3745.79 369.79 o
0 8 8 61.03 77.08 39.58 <
-1 -9 9 326.92 437.49 60.42 o
-1 -8 9 3378.31 4452.03 264.58 o
0 -8 9 176.52 182.29 109.37 <
-3 -7 9 700.04 751.03 70.83 o
-2 -7 9 110.85 119.79 60.42 <
-1 -7 9 106.41 91.67 31.25 <
0 -7 9 199.87 95.83 31.25 o
1 -7 9 19.39 12.50 25.00 <
2 -7 9 1.82 21.87 28.12 <
-3 -6 9 19.43 15.62 25.00 <
-2 -6 9 1097.53 901.03 76.04 o
-2 -5 9 446.71 312.50 40.62 o
0 -5 9 1042.50 1167.70 70.83 o
1 -5 9 2157.94 2461.43 148.96 o
2 -5 9 732.59 563.53 64.58 o
3 -5 9 717.72 645.83 66.67 o
-5 -4 9 2.66 1.04 25.00 <
-4 -4 9 200.46 155.21 32.29 o
-3 -4 9 18.89 54.17 23.96 <
-1 -4 9 80.57 118.75 21.87 o
0 -4 9 21.99 5.21 16.67 <
1 -4 9 124.88 65.62 28.12 <
2 -4 9 433.10 354.16 50.00 o
3 -4 9 134.63 113.54 34.37 o
-3 -3 9 539.77 509.37 50.00 o
-2 -3 9 3501.67 3713.50 181.25 o
-1 -3 9 2903.69 2563.51 155.21 o
0 -3 9 1017.79 828.12 71.87 o
3 -3 9 220.60 59.37 43.75 <
-3 -2 9 2711.77 2403.10 146.87 o
-2 -2 9 420.27 330.20 43.75 o
4 -2 9 130.04 18.75 23.96 <
-5 -1 9 13.74 8.33 22.92 <
-4 -1 9 3.60 22.92 27.08 <
-3 -1 9 406.75 404.16 41.67 o
1 -1 9 15.59 -2.08 21.87 <
2 -1 9 1153.25 1004.16 125.00 o
3 -1 9 955.15 640.62 82.29 o
4 -1 9 537.65 157.29 105.21 <
-4 0 9 1554.90 1956.23 137.50 o
-2 0 9 87.16 70.83 22.92 o
-1 0 9 5109.65 5789.52 389.58 o
1 0 9 3665.74 3520.79 395.83 o
-5 1 9 43.98 115.62 26.04 o
-4 1 9 0.74 13.54 37.50 <
0 1 9 39.36 92.71 32.29 <
1 1 9 15.38 11.46 28.12 <
4 1 9 208.12 112.50 46.87 <
-4 2 9 28.01 39.58 70.83 <
2 2 9 1793.42 152.08 2248.93 <
3 2 9 29.78 -5.21 32.29 <
-4 3 9 1221.71 506.24 1043.74 <
-2 3 9 1600.97 612.49 1639.56 <
3 3 9 3234.15 -246.87 2417.68 <
-4 4 9 86.76 68.75 42.71 <
-3 4 9 235.87 136.46 41.67 o
-2 4 9 18.79 5.21 32.29 <
-1 4 9 185.98 291.66 64.58 o
0 4 9 235.54 139.58 85.42 <
2 4 9 103.50 159.37 51.04 o
3 4 9 97.86 29.17 38.54 <
-4 5 9 18.72 38.54 43.75 <
1 5 9 58.64 68.75 51.04 <
2 5 9 2328.39 785.41 1321.86 <
-3 6 9 0.90 23.96 42.71 <
-2 6 9 1038.32 2388.51 628.12 o
2 6 9 665.02 188.54 79.17 <
-2 7 9 135.74 110.42 92.71 <
-1 7 9 81.15 52.08 52.08 <
0 7 9 6.21 -4.17 33.33 <
1 7 9 12.73 -2.08 34.37 <
-2 -8 10 921.52 1284.36 100.00 o
1 -8 10 514.90 402.08 55.21 o
-3 -7 10 427.59 463.54 53.12 o
-2 -7 10 0.25 -1.04 27.08 <
-1 -7 10 166.67 227.08 48.96 o
2 -7 10 913.00 1616.65 214.58 o
-4 -6 10 1081.34 1305.19 101.04 o
-2 -6 10 402.96 305.20 43.75 o
-1 -6 10 1284.23 1134.36 88.54 o
0 -6 10 312.90 308.33 46.87 o
1 -6 10 31.00 9.37 25.00 <
0 -5 10 53.88 48.96 20.83 <
3 -5 10 2951.66 1211.44 1079.15 <
-4 -4 10 342.98 183.33 83.33 <
-2 -4 10 83.82 79.17 20.83 o
-1 -4 10 420.31 526.04 42.71 o
0 -4 10 163.16 118.75 82.29 <
1 -4 10 203.13 73.96 34.37 <
2 -4 10 308.21 151.04 44.79 o
3 -4 10 28.10 45.83 46.87 <
-3 -3 10 467.71 572.91 62.50 o
-2 -3 10 1166.92 1110.40 84.37 o
-1 -3 10 885.84 826.03 73.96 o
0 -3 10 7203.55 6065.56 344.79 o
-5 -2 10 5.17 20.83 27.08 <
-3 -2 10 866.76 802.07 68.75 o
-2 -2 10 3689.95 3031.22 187.50 o
0 -2 10 39.52 -6.25 45.83 <
-5 -1 10 73.61 18.75 25.00 <
-4 -1 10 0.28 1.04 18.75 <
-3 -1 10 474.86 521.87 54.17 o
-2 -1 10 306.74 182.29 39.58 o
-1 -1 10 310.56 231.25 103.12 <
1 -1 10 11.23 16.67 26.04 <
2 -1 10 671.81 444.79 72.92 o
3 -1 10 183.07 8.33 51.04 <
-4 0 10 3689.39 4561.41 303.12 o
-3 0 10 2139.16 2637.47 181.25 o
-2 0 10 2140.57 2223.93 159.37 o
-1 0 10 7575.36 6588.47 366.66 o
0 0 10 657.11 826.03 143.75 o
-4 1 10 100.41 70.83 22.92 o
-3 1 10 93.96 87.50 34.37 <
-2 1 10 14.04 6.25 25.00 <
1 1 10 258.70 211.46 36.46 o
3 1 10 93.57 137.50 41.67 o
-4 2 10 830.33 492.70 79.17 o
-3 2 10 165.71 26.04 22.92 <
0 2 10 743.30 17.71 89.58 <
1 2 10 31.05 18.75 28.12 <
-2 3 10 2.27 29.17 30.21 <
0 3 10 192.09 11.46 26.04 <
2 3 10 2652.58 -144.79 44783.90 <
3 3 10 0.86 10.42 34.37 <
-4 4 10 193.44 83.33 47.92 <
-3 4 10 59.19 148.96 45.83 o
1 4 10 96.67 122.92 37.50 o
2 4 10 316.63 34.37 66.67 <
-3 5 10 92.59 146.87 51.04 <
0 5 10 226.24 177.08 50.00 o
-2 6 10 159.16 172.91 71.87 <
1 6 10 89.18 14.58 50.00 <
-1 -8 11 3018.55 2895.80 295.83 o
0 -8 11 160.58 110.42 36.46 o
-2 -7 11 95.21 55.21 30.21 <
-1 -7 11 39.69 111.46 78.12 <
1 -7 11 366.55 232.29 53.12 o
-3 -6 11 137.50 76.04 30.21 <
0 -6 11 30.02 -1.04 26.04 <
1 -6 11 2449.42 1841.65 143.75 o
-4 -5 11 16.20 98.96 52.08 <
-2 -5 11 777.49 1089.57 87.50 o
-1 -5 11 2301.42 2355.18 178.12 o
0 -5 11 5729.07 6792.63 629.16 o
1 -5 11 0.56 17.71 31.25 <
2 -5 11 2387.58 1845.81 137.50 o
-4 -4 11 162.65 104.17 31.25 o
-3 -4 11 11.53 28.12 21.87 <
-2 -4 11 21.00 34.37 19.79 <
-1 -4 11 14.58 21.87 29.17 <
3 -4 11 73.72 30.21 28.12 <
-3 -3 11 4368.95 4021.83 234.37 o
-2 -3 11 31.98 57.29 29.17 <
0 -3 11 94.47 46.87 32.29 <
3 -3 11 84.58 71.87 32.29 <
-3 -2 11 797.46 635.41 61.46 o
-2 -2 11 6097.95 5881.18 389.58 o
1 -2 11 35.98 0.00 21.87 <
-4 -1 11 142.82 113.54 30.21 o
-3 -1 11 244.14 173.96 34.37 o
1 -1 11 281.79 137.50 92.71 <
3 -1 11 14.78 -5.21 28.12 <
-4 0 11 1479.53 1771.86 127.08 o
-3 0 11 1248.69 1279.15 97.92 o
-2 0 11 1686.98 1693.73 130.21 o
-1 0 11 35.87 39.58 26.04 <
-4 1 11 13.88 -8.33 22.92 <
-3 1 11 129.52 53.12 27.08 <
0 1 11 34.44 7.29 31.25 <
3 1 11 109.67 42.71 36.46 <
-4 2 11 6.20 32.29 25.00 <
-1 2 11 200.28 276.04 53.12 o
1 2 11 93.40 -3.12 28.12 <
-3 3 11 1.92 6.25 33.33 <
1 3 11 5125.46 -198.96 24798.70 <
2 3 11 447.95 297.91 72.92 o
-3 4 11 113.92 187.50 51.04 o
-2 4 11 0.06 -6.25 38.54 <
-1 4 11 337.62 68.75 101.04 <
0 4 11 126.12 14.58 41.67 <
1 4 11 258.43 116.67 56.25 <
2 4 11 71.09 22.92 32.29 <
-3 5 11 342.00 179.16 157.29 <
-2 5 11 2395.64 2876.01 271.87 o
-1 5 11 315.55 466.66 87.50 o
1 5 11 324.85 42.71 101.04 <
-2 6 11 46.53 27.08 40.62 <
-1 6 11 437.67 147.91 69.79 <
0 6 11 10.12 6.25 34.37 <
-2 -7 12 128.35 150.00 35.42 o
-1 -7 12 0.72 12.50 34.37 <
0 -7 12 0.06 3.12 22.92 <
-3 -6 12 310.11 284.37 43.75 o
-1 -6 12 515.36 471.87 55.21 o
-3 -5 12 83.90 107.29 31.25 o
-1 -5 12 4411.34 4789.53 323.95 o
0 -5 12 42.49 15.62 19.79 <
-4 -4 12 4.88 7.29 28.12 <
1 -4 12 15.05 1.04 22.92 <
2 -4 12 86.58 32.29 30.21 <
-3 -3 12 279.63 148.96 36.46 o
-2 -3 12 2742.89 2173.93 145.83 o
0 -3 12 253.33 271.87 73.96 o
-4 -2 12 193.29 442.70 73.96 o
-2 -2 12 368.43 179.16 40.62 o
1 -2 12 11.00 9.37 25.00 <
2 -2 12 1584.37 567.70 1827.06 <
-4 -1 12 103.06 73.96 23.96 o
-3 -1 12 59.71 14.58 22.92 <
-1 -1 12 250.75 56.25 31.25 <
1 -1 12 8.23 43.75 28.12 <
-4 0 12 1351.46 892.70 173.96 o
-3 0 12 5737.53 6413.47 419.79 o
-2 0 12 317.08 223.96 39.58 o
0 0 12 1075.38 1561.44 1870.81 <
-4 1 12 410.30 255.21 45.83 o
-3 1 12 181.05 85.42 36.46 <
-1 1 12 228.33 311.45 68.75 o
1 1 12 7.57 17.71 32.29 <
-4 2 12 318.06 209.37 45.83 o
-3 2 12 139.97 81.25 29.17 <
0 2 12 87.28 111.46 37.50 <
1 2 12 387.55 71.87 80.21 <
2 2 12 760.68 -50.00 1165.61 <
-1 3 12 1952.36 2708.30 291.66 o
1 3 12 344.39 27.08 66.67 <
-3 4 12 231.51 409.37 76.04 o
-1 4 12 518.22 36.46 103.12 <
0 4 12 142.78 94.79 36.46 <
1 4 12 26.16 -2.08 41.67 <
-2 5 12 795.42 42.71 3883.29 <
-2 -6 13 106.75 3.12 23.96 <
-1 -6 13 854.54 937.49 315.62 <
0 -6 13 141.37 110.42 37.50 <
-2 -5 13 2780.66 3209.34 195.83 o
-1 -5 13 212.62 116.67 73.96 <
1 -5 13 409.58 104.17 106.25 <
-3 -4 13 76.75 55.21 31.25 <
0 -2 13 2.60 11.46 29.17 <
2 -2 13 922.72 221.87 135.41 <
-4 -1 13 28.71 9.37 43.75 <
-3 -1 13 219.72 90.62 33.33 <
-1 -1 13 15.76 0.00 25.00 <
0 -1 13 92.94 30.21 33.33 <
1 -1 13 235.67 59.37 41.67 <
-3 0 13 0.22 3.12 25.00 <
-1 0 13 3068.94 2461.43 164.58 o
2 0 13 315.62 656.24 111.46 o
-3 1 13 340.02 157.29 42.71 o
-2 1 13 94.74 137.50 54.17 <
-1 1 13 306.21 754.16 120.83 o
0 1 13 354.73 176.04 60.42 <
2 1 13 630.58 383.33 77.08 o
-2 2 13 279.23 384.37 55.21 o
-1 2 13 112.11 96.87 61.46 <
-1 3 13 2820.47 3540.59 379.16 o
0 3 13 1.12 6.25 29.17 <
-2 4 13 34.19 71.87 42.71 <
-1 4 13 93.80 10.42 35.42 <
0 4 13 309.38 139.58 51.04 <
-1 -5 14 697.95 369.79 496.87 <
-1 -4 14 12.30 26.04 31.25 <
0 -4 14 39.34 2.08 30.21 <
1 -4 14 2.64 -9.37 29.17 <
-2 -3 14 250.79 180.21 44.79 o
0 -3 14 83.35 57.29 36.46 <
1 -3 14 2065.33 461.45 1309.36 <
-1 -2 14 17.24 9.37 27.08 <
-3 -1 14 15.87 25.00 26.04 <
0 -1 14 13.07 4.17 29.17 <
1 -1 14 87.00 23.96 40.62 <
-3 0 14 3832.76 4209.33 248.96 o
-2 0 14 2667.43 2304.14 175.00 o
-1 0 14 507.06 317.70 58.33 o
-3 1 14 185.70 84.37 39.58 <
0 1 14 69.71 33.33 31.25 <
-2 2 14 56.36 30.21 28.12 <
-1 3 14 4.43 6.25 35.42 <
-1 -4 15 9.33 18.75 31.25 <
-2 -3 15 936.20 793.74 79.17 o
-1 -3 15 7.44 15.62 31.25 <
-2 -2 15 4.29 7.29 26.04 <
0 -2 15 453.73 574.99 118.75 o
-1 -1 15 141.74 83.33 32.29 <
0 -1 15 87.63 9.37 41.67 <
-2 0 15 505.79 387.50 64.58 o
0 0 15 24.20 26.04 30.21 <
-1 1 15 86.17 27.08 31.25 <
