#------------------------------------------------------------------------------
#$Date: 2022-02-02 12:16:51 +0200 (Wed, 02 Feb 2022) $
#$Revision: 272424 $
#$URL: file:///home/coder/svn-repositories/cod/cif/1/56/62/1566261.cif $
#------------------------------------------------------------------------------
#
# This file is available in the Crystallography Open Database (COD),
# http://www.crystallography.net/
#
# All data on this site have been placed in the public domain by the
# contributors.
#
data_1566261
loop_
_publ_author_name
'Jakub Plasil'
'Jan Hlousek'
'Anatoly V. Kasatkin'
'Dmitry I. Belakovskiy'
'Jiri Cejka'
'Dmitry Chernyshov'
_publ_section_title
;
 Jezekite, Na8[(UO2)(CO3)3](SO4)2 . 3H2O, a new uranyl mineral from
 Jachymov, Czech Republic
;
_journal_name_full               'Journal of GeoSciences'
_journal_page_first              259
_journal_page_last               267
_journal_paper_doi               10.3190/jgeosci.203
_journal_volume                  60
_journal_year                    2015
_chemical_formula_sum            'C3 Na8 O22 S2 U'
_chemical_formula_weight         874.1
_space_group_IT_number           189
_space_group_name_Hall           'P -6 -2'
_space_group_name_H-M_alt        'P -6 2 m'
_symmetry_cell_setting           hexagonal
_symmetry_Int_Tables_number      189
_symmetry_space_group_name_Hall  'P -6 -2'
_symmetry_space_group_name_H-M   'P -6 2 m'
_cell_angle_alpha                90
_cell_angle_beta                 90
_cell_angle_gamma                120
_cell_formula_units_Z            1
_cell_length_a                   9.0664(12)
_cell_length_b                   9.0664(12)
_cell_length_c                   6.9110(6)
_cell_measurement_reflns_used    1403
_cell_measurement_temperature    302(2)
_cell_measurement_theta_max      27.15
_cell_measurement_theta_min      3.91
_cell_volume                     491.97(10)
_computing_cell_refinement
;
CrysAlisPro, Agilent Technologies,
Version 1.171.37.33 (release 27-03-2014 CrysAlis171 .NET)
(compiled Mar 27 2014,17:12:48)
;
_computing_data_collection
;
CrysAlisPro, Agilent Technologies,
Version 1.171.37.33 (release 27-03-2014 CrysAlis171 .NET)
(compiled Mar 27 2014,17:12:48)
;
_computing_data_reduction
;
CrysAlisPro, Agilent Technologies,
Version 1.171.37.33 (release 27-03-2014 CrysAlis171 .NET)
(compiled Mar 27 2014,17:12:48)
;
_diffrn_ambient_temperature      302
_diffrn_detector                 'CCD plate'
_diffrn_detector_area_resol_mean 10.3784
_diffrn_measured_fraction_theta_full 0.98
_diffrn_measured_fraction_theta_max 0.98
_diffrn_measurement_device       'four-cycle diffractometer'
_diffrn_measurement_device_type  'Xcalibur, Atlas, Gemini ultra'
_diffrn_measurement_method       '\w scans'
_diffrn_radiation_monochromator  graphite
_diffrn_radiation_probe          x-ray
_diffrn_radiation_source         'X-ray tube'
_diffrn_radiation_type           'Mo K\a'
_diffrn_radiation_wavelength     0.71073
_diffrn_reflns_av_R_equivalents  0.1157
_diffrn_reflns_av_unetI/netI     0.0592
_diffrn_reflns_limit_h_max       10
_diffrn_reflns_limit_h_min       -11
_diffrn_reflns_limit_k_max       11
_diffrn_reflns_limit_k_min       -12
_diffrn_reflns_limit_l_max       9
_diffrn_reflns_limit_l_min       -8
_diffrn_reflns_number            3392
_diffrn_reflns_theta_full        29.06
_diffrn_reflns_theta_max         29.18
_diffrn_reflns_theta_min         2.95
_diffrn_source                   'Enhance (Mo) X-ray Source'
_exptl_absorpt_coefficient_mu    8.749
_exptl_absorpt_correction_T_max  15.5328
_exptl_absorpt_correction_T_min  0.5263
_exptl_absorpt_correction_type   gaussian
_exptl_absorpt_process_details
'Jana2006  (Petricek, Dusek & Palatinus, 2000)'
_exptl_crystal_density_diffrn    2.9503
_exptl_crystal_description
;
;
_exptl_crystal_F_000             406
_exptl_crystal_size_max          0.103
_exptl_crystal_size_mid          0.03
_exptl_crystal_size_min          0.019
_refine_diff_density_max         1.46
_refine_diff_density_min         -1.37
_refine_ls_abs_structure_details
'  165 of Friedel pairs used in the refinement'
_refine_ls_abs_structure_Flack   0.10(3)
_refine_ls_extinction_method     none
_refine_ls_goodness_of_fit_gt    1.43
_refine_ls_goodness_of_fit_ref   1.41
_refine_ls_number_constraints    0
_refine_ls_number_parameters     38
_refine_ls_number_reflns         444
_refine_ls_number_restraints     2
_refine_ls_R_factor_all          0.0454
_refine_ls_R_factor_gt           0.0426
_refine_ls_shift/su_max          0.0270
_refine_ls_shift/su_mean         0.0025
_refine_ls_structure_factor_coef Fsqd
_refine_ls_weighting_details     w=1/(\s^2^(I)+0.0004I^2^)
_refine_ls_weighting_scheme      sigma
_refine_ls_wR_factor_gt          0.0832
_refine_ls_wR_factor_ref         0.0846
_reflns_number_gt                420
_reflns_number_total             444
_reflns_threshold_expression     I>3\s(I)
_cod_data_source_file            jgeosci.203_plasil_supplement.cif
_cod_data_source_block           I
_cod_original_sg_symbol_Hall     'P -6;-2'
_cod_original_formula_sum        'C3 Na8 O22 S2 U1'
_cod_database_code               1566261
loop_
_space_group_symop_id
_space_group_symop_operation_xyz
1 x,y,z
2 -y,x-y,z
3 -x+y,-x,z
4 x,y,-z
5 -y,x-y,-z
6 -x+y,-x,-z
7 y,x,-z
8 x-y,-y,-z
9 -x,-x+y,-z
10 y,x,z
11 x-y,-y,z
12 -x,-x+y,z
loop_
_atom_site_label
_atom_site_type_symbol
_atom_site_fract_x
_atom_site_fract_y
_atom_site_fract_z
_atom_site_adp_type
_atom_site_U_iso_or_equiv
_atom_site_site_symmetry_multiplicity
_atom_site_occupancy
_atom_site_calc_flag
_atom_site_refinement_flags
_atom_site_disorder_assembly
_atom_site_disorder_group
U1 U 0 0 0.5 Uani 0.0112(3) 1 1 d . . .
Na1 Na 0.666667 0.333333 0.5 Uani 0.068(4) 2 1 d . . .
S1 S 0.6736(9) 0.4041(9) 0 Uiso 0.019(2) 6 0.3333 d . . .
O1 O 0.666667 0.333333 0.176(2) Uiso 0.066(3) 4 1 d . . .
O2 O -0.1394(15) 0.1730(16) 0.5 Uiso 0.018(2) 6 1 d . . .
O3 O 0 0 0.2404(19) Uiso 0.023(3) 2 1 d . . .
Na2 Na -0.3631(8) 0 0.7532(13) Uani 0.097(7) 6 1 d . . .
O4 O 0 0.4556(12) 0.5 Uiso 0.029(4) 3 1 d . . .
O5 O 0.599(3) 0.494(3) 0 Uiso 0.057(8) 6 0.5 d . . .
C1 C 0 0.3173(18) 0.5 Uani 0.018(7) 3 1 d . . .
O6 O 0.819(3) 0.700(3) 0 Uiso 0.047(7) 6 0.5 d . . .
O7 O 0.814(3) 0.532(3) 0 Uiso 0.10(4) 6 0.1667 d . . .
loop_
_atom_site_aniso_label
_atom_site_aniso_type_symbol
_atom_site_aniso_U_11
_atom_site_aniso_U_22
_atom_site_aniso_U_33
_atom_site_aniso_U_12
_atom_site_aniso_U_13
_atom_site_aniso_U_23
U1 U 0.0115(3) 0.0115(3) 0.0106(5) 0.00574(17) 0 0
Na1 Na 0.097(5) 0.097(5) 0.010(5) 0.048(2) 0 0
Na2 Na 0.083(4) 0.248(13) 0.016(5) 0.124(7) 0.000(3) 0
C1 C 0.034(10) 0.016(6) 0.010(11) 0.017(5) 0 0
loop_
_atom_type_symbol
_atom_type_scat_dispersion_real
_atom_type_scat_dispersion_imag
_atom_type_scat_source
C 0.0033 0.0016 'International Tables Vol C tables 4.2.6.8 and 6.1.1.1'
Na 0.0362 0.0249 'International Tables Vol C tables 4.2.6.8 and 6.1.1.1'
O 0.0106 0.0060 'International Tables Vol C tables 4.2.6.8 and 6.1.1.1'
S 0.1246 0.1234 'International Tables Vol C tables 4.2.6.8 and 6.1.1.1'
U -9.6767 9.6646 'International Tables Vol C tables 4.2.6.8 and 6.1.1.1'
loop_
_exptl_crystal_face_index_h
_exptl_crystal_face_index_k
_exptl_crystal_face_index_l
_exptl_crystal_face_perp_dist
0 -1 -10 0.07896
2 -12 -1 0.01606
-2 12 1 0.00998
1 -11 1 0.00714
12 -3 0 0.01235
-13 5 1 0.00652
12 -4 -1 0.00806
8 4 -1 0.01808
3 -12 1 0.00597
0 4 9 0.03678
loop_
_geom_bond_atom_site_label_1
_geom_bond_atom_site_label_2
_geom_bond_site_symmetry_1
_geom_bond_site_symmetry_2
_geom_bond_distance
U1 O2 . . 2.458(17)
U1 O2 . 2_555 2.458(16)
U1 O2 . 3_555 2.458(18)
U1 O2 . 7_556 2.458(17)
U1 O2 . 8_556 2.458(16)
U1 O2 . 9_556 2.458(18)
U1 O3 . . 1.794(13)
U1 O3 . 4_556 1.794(13)
U1 C1 . . 2.877(16)
U1 C1 . 2_555 2.877(12)
U1 C1 . 3_555 2.877(16)
Na1 O1 . . 2.240(17)
Na1 O1 . 4_556 2.240(17)
Na1 O2 . 1_655 2.786(17)
Na1 O2 . 2_665 2.786(18)
Na1 O2 . 3_555 2.786(16)
Na1 O4 . 1_655 2.6481(19)
Na1 O4 . 2_665 2.648(13)
Na1 O4 . 3_555 2.6481(19)
S1 S1 . 2_655 1.061(11)
S1 S1 . 3_665 1.061(16)
S1 O1 . . 1.361(15)
S1 O1 . 4_555 1.361(15)
S1 O5 . . 1.29(3)
S1 O5 . 2_655 2.36(3)
S1 O5 . 3_665 2.02(4)
S1 O5 . 7_555 2.94(3)
S1 O6 . . 2.32(2)
S1 O7 . . 1.22(2)
S1 O7 . 2_655 1.62(3)
S1 O7 . 3_665 2.20(4)
O1 O1 . 4_555 2.43(2)
O1 Na2 . 4_656 2.938(4)
O1 Na2 . 5_666 2.938(4)
O1 Na2 . 6_556 2.938(8)
O1 O5 . . 2.21(3)
O1 O5 . 2_655 2.21(2)
O1 O5 . 3_665 2.21(3)
O1 O7 . . 2.02(2)
O1 O7 . 2_655 2.02(3)
O1 O7 . 3_665 2.02(3)
O2 O2 . 8_556 2.717(18)
O2 O2 . 9_556 2.189(16)
O2 Na2 . . 2.541(10)
O2 Na2 . 4_556 2.541(10)
O2 O4 . . 2.218(16)
O2 C1 . . 1.287(13)
O3 O6 . 1_445 2.898(18)
O3 O6 . 2_655 2.90(2)
O3 O6 . 3_565 2.90(3)
O3 O6 . 7_445 2.898(18)
O3 O6 . 8_565 2.90(2)
O3 O6 . 9_655 2.90(3)
Na2 O4 . 3_455 2.401(11)
Na2 O5 . 2_556 2.52(3)
Na2 O5 . 9_556 2.522(18)
Na2 O6 . 3_566 2.62(2)
Na2 O6 . 7_446 2.62(3)
Na2 O7 . 3_566 2.249(19)
Na2 O7 . 7_446 2.249(17)
O4 C1 . . 1.25(2)
O5 O5 . 7_555 1.65(4)
O5 O6 . . 1.93(3)
O5 O6 . 7_555 2.61(4)
O5 O7 . . 1.80(4)
O5 O7 . 2_655 1.68(4)
O5 O7 . 8_565 2.76(5)
O6 O6 . 7_555 1.88(5)
O6 O6 . 9_765 2.84(3)
O6 O7 . . 1.50(4)
O7 O7 . 2_655 2.80(3)
O7 O7 . 3_665 2.80(4)
O7 O7 . 9_765 2.92(4)
loop_
_refln_index_h
_refln_index_k
_refln_index_l
_refln_F_squared_calc
_refln_F_squared_meas
_refln_F_squared_sigma
_refln_observed_status
_jana_refln_twin_domain
1 -3 0 2404.00 2483.83 61.76 o -3
-1 3 0 2404.00 2483.83 61.76 o 1
0 -3 0 15023.90 14375.00 163.64 o -3
0 3 0 15023.90 14375.00 163.64 o 1
2 -4 0 13756.50 14062.40 222.55 o -3
-2 4 0 13756.50 14062.40 222.55 o 1
-2 -2 0 14133.60 14244.10 312.77 o -3
2 2 0 14133.60 14244.10 312.77 o 1
1 -4 0 2315.40 2373.90 67.89 o -3
-1 4 0 2315.40 2373.90 67.89 o 1
-1 -3 0 2303.76 2196.59 82.66 o -3
1 3 0 2303.76 2196.59 82.66 o 1
0 -4 0 972.51 821.70 53.59 o -3
0 4 0 972.51 821.70 53.59 o 1
2 -5 0 4894.99 4875.14 104.83 o -3
-2 5 0 4894.99 4875.14 104.83 o 1
-2 -3 0 4494.38 4378.34 138.03 o -3
2 3 0 4494.38 4378.34 138.03 o 1
1 -5 0 4186.14 3954.66 103.03 o -3
-1 5 0 4186.14 3954.66 103.03 o 1
-1 -4 0 3738.39 3565.75 107.19 o -3
1 4 0 3738.39 3565.75 107.19 o 1
0 -5 0 1881.93 1694.19 79.41 o -3
0 5 0 1881.93 1694.19 79.41 o 1
3 -6 0 5010.60 4617.93 182.88 o -3
-3 6 0 5010.60 4617.93 182.88 o 1
-3 -3 0 5603.29 5502.41 213.96 o -3
3 3 0 5603.29 5502.41 213.96 o 1
2 -6 0 1409.39 1423.73 65.77 o -3
-2 6 0 1409.39 1423.73 65.77 o 1
-2 -4 0 1643.33 1620.90 82.29 o -3
2 4 0 1643.33 1620.90 82.29 o 1
1 -6 0 2089.82 2053.53 89.94 o -3
-1 6 0 2089.82 2053.53 89.94 o 1
-1 -5 0 2192.93 2346.43 100.25 o -3
1 5 0 2192.93 2346.43 100.25 o 1
0 -6 0 5189.28 4898.05 169.90 o -3
0 6 0 5189.28 4898.05 169.90 o 1
3 -7 0 1199.72 1142.50 68.05 o -3
-3 7 0 1199.72 1142.50 68.05 o 1
-3 -4 0 1123.06 1180.68 75.48 o -3
3 4 0 1123.06 1180.68 75.48 o 1
2 -7 0 1657.68 1657.03 101.90 o -3
-2 7 0 1657.68 1657.03 101.90 o 1
-2 -5 0 1608.30 1397.33 83.89 o -3
2 5 0 1608.30 1397.33 83.89 o 1
1 -7 0 1941.30 2116.03 127.74 o -3
-1 7 0 1941.30 2116.03 127.74 o 1
-1 -6 0 1772.00 2091.99 120.65 o -3
1 6 0 1772.00 2091.99 120.65 o 1
0 -7 0 2184.69 2126.79 132.17 o -3
0 7 0 2184.69 2126.79 132.17 o 1
4 -8 0 2561.50 2733.22 158.53 o -3
-4 8 0 2561.50 2733.22 158.53 o 1
-4 -4 0 2712.32 2769.06 184.79 o -3
4 4 0 2712.32 2769.06 184.79 o 1
3 -8 0 1876.87 1699.68 83.55 o -3
-3 8 0 1876.87 1699.68 83.55 o 1
-3 -5 0 1768.96 1833.34 100.88 o -3
3 5 0 1768.96 1833.34 100.88 o 1
2 -8 0 1703.22 1806.19 94.86 o -3
-2 8 0 1703.22 1806.19 94.86 o 1
-2 -6 0 1567.77 1603.10 106.74 o -3
2 6 0 1567.77 1603.10 106.74 o 1
1 -8 0 1146.26 1343.22 98.18 o -3
-1 8 0 1146.26 1343.22 98.18 o 1
-1 -7 0 1356.44 1613.68 123.58 o -3
1 7 0 1356.44 1613.68 123.58 o 1
0 -8 0 984.97 896.10 77.52 o -3
0 8 0 984.97 896.10 77.52 o 1
4 -9 0 1827.61 2006.35 104.18 o -3
-4 9 0 1827.61 2006.35 104.18 o 1
-4 -5 0 1838.13 1973.29 154.81 o -3
4 5 0 1838.13 1973.29 154.81 o 1
3 -9 0 1256.83 1127.69 86.77 o -3
-3 9 0 1256.83 1127.69 86.77 o 1
-3 -6 0 1343.52 1235.29 108.84 o -3
3 6 0 1343.52 1235.29 108.84 o 1
2 -9 0 952.36 984.16 97.16 o -3
-2 9 0 952.36 984.16 97.16 o 1
-2 -7 0 1008.61 972.35 119.65 o -3
2 7 0 1008.61 972.35 119.65 o 1
1 -9 0 888.81 843.01 87.47 o -3
-1 9 0 888.81 843.01 87.47 o 1
-1 -8 0 1020.31 1079.51 105.80 o -3
1 8 0 1020.31 1079.51 105.80 o 1
0 -9 0 1057.65 1076.05 114.00 o -3
0 9 0 1057.65 1076.05 114.00 o 1
5 -10 0 585.09 640.94 85.04 o -3
-5 10 0 585.09 640.94 85.04 o 1
-5 -5 0 739.78 724.51 233.62 o -3
5 5 0 739.78 724.51 233.62 o 1
4 -10 0 927.26 918.36 96.74 o -3
-4 10 0 927.26 918.36 96.74 o 1
-4 -6 0 768.05 1085.87 137.27 o -3
4 6 0 768.05 1085.87 137.27 o 1
3 -10 0 937.93 993.97 105.04 o -3
-3 10 0 937.93 993.97 105.04 o 1
-3 -7 0 841.25 661.54 100.70 o -3
3 7 0 841.25 661.54 100.70 o 1
2 -10 0 918.46 796.43 96.32 o -3
-2 10 0 918.46 796.43 96.32 o 1
-2 -8 0 922.50 681.57 86.24 o -3
2 8 0 922.50 681.57 86.24 o 1
1 -10 0 769.50 707.93 93.44 o -3
-1 10 0 769.50 707.93 93.44 o 1
-1 -9 0 740.28 873.72 129.50 o -3
1 9 0 740.28 873.72 129.50 o 1
0 -10 0 766.16 612.53 121.14 o -3
0 10 0 766.16 612.53 121.14 o 1
5 -11 0 810.66 890.06 144.94 o -3
-5 11 0 810.66 890.06 144.94 o 1
-5 -6 0 824.45 896.08 128.08 o -3
5 6 0 824.45 896.08 128.08 o 1
4 -11 0 795.73 1136.19 132.61 o -3
-4 11 0 795.73 1136.19 132.61 o 1
-4 -7 0 853.94 1087.26 146.10 o -3
4 7 0 853.94 1087.26 146.10 o 1
3 -11 0 871.49 1080.77 138.45 o -3
-3 11 0 871.49 1080.77 138.45 o 1
-3 -8 0 808.93 649.73 135.20 o -3
3 8 0 808.93 649.73 135.20 o 1
2 -11 0 964.25 1160.88 132.66 o -3
-2 11 0 964.25 1160.88 132.66 o 1
-2 -9 0 926.11 1331.20 309.60 o -3
2 9 0 926.11 1331.20 309.60 o 1
1 -11 0 596.87 498.40 115.31 o -3
-1 11 0 596.87 498.40 115.31 o 1
-1 -10 0 585.31 535.87 184.24 < -3
1 10 0 585.31 535.87 184.24 < 1
5 -12 0 550.72 540.08 187.54 < -3
-5 12 0 550.72 540.08 187.54 < 1
4 -12 0 513.76 435.28 171.23 < -3
-4 12 0 513.76 435.28 171.23 < 1
1 -3 1 3590.01 3551.88 53.18 o -3
-1 3 1 3590.01 3551.88 53.18 o 1
0 -3 1 3383.73 3166.69 63.83 o -3
0 3 1 3383.73 3166.69 63.83 o 1
2 -4 1 5604.59 5556.16 96.17 o -3
-2 4 1 5604.59 5556.16 96.17 o 1
1 -4 1 2710.45 2745.24 56.53 o -3
-1 4 1 2710.45 2745.24 56.53 o 1
-1 -3 1 2797.31 2918.53 60.85 o -3
1 3 1 2797.31 2918.53 60.85 o 1
0 -4 1 2873.42 2750.13 63.94 o -3
0 4 1 2873.42 2750.13 63.94 o 1
2 -5 1 2799.80 2912.51 59.72 o -3
-2 5 1 2799.80 2912.51 59.72 o 1
-2 -3 1 2844.81 2877.32 74.44 o -3
2 3 1 2844.81 2877.32 74.44 o 1
1 -5 1 1557.81 1690.49 52.91 o -3
-1 5 1 1557.81 1690.49 52.91 o 1
-1 -4 1 1491.87 1458.76 45.87 o -3
1 4 1 1491.87 1458.76 45.87 o 1
0 -5 1 2244.71 2189.63 62.21 o -3
0 5 1 2244.71 2189.63 62.21 o 1
3 -6 1 1830.27 1986.90 71.63 o -3
-3 6 1 1830.27 1986.90 71.63 o 1
-3 -3 1 1934.81 2028.50 86.43 o -3
3 3 1 1934.81 2028.50 86.43 o 1
2 -6 1 2016.63 1860.28 52.84 o -3
-2 6 1 2016.63 1860.28 52.84 o 1
-2 -4 1 1974.90 1874.40 61.24 o -3
2 4 1 1974.90 1874.40 61.24 o 1
1 -6 1 1297.50 1280.09 48.23 o -3
-1 6 1 1297.50 1280.09 48.23 o 1
-1 -5 1 1468.96 1415.58 54.17 o -3
1 5 1 1468.96 1415.58 54.17 o 1
0 -6 1 3367.32 3470.90 85.67 o -3
0 6 1 3367.32 3470.90 85.67 o 1
3 -7 1 1437.02 1435.45 50.85 o -3
-3 7 1 1437.02 1435.45 50.85 o 1
-3 -4 1 1494.10 1472.55 58.49 o -3
3 4 1 1494.10 1472.55 58.49 o 1
2 -7 1 1884.04 1972.32 66.32 o -3
-2 7 1 1884.04 1972.32 66.32 o 1
-2 -5 1 1702.80 1787.68 61.27 o -3
2 5 1 1702.80 1787.68 61.27 o 1
1 -7 1 1626.14 1731.52 67.00 o -3
-1 7 1 1626.14 1731.52 67.00 o 1
-1 -6 1 1567.00 1658.58 71.19 o -3
1 6 1 1567.00 1658.58 71.19 o 1
0 -7 1 1716.80 1653.34 77.39 o -3
0 7 1 1716.80 1653.34 77.39 o 1
4 -8 1 2363.72 2291.87 91.09 o -3
-4 8 1 2363.72 2291.87 91.09 o 1
-4 -4 1 2206.00 2454.30 132.85 o -3
4 4 1 2206.00 2454.30 132.85 o 1
3 -8 1 1035.74 1124.99 49.54 o -3
-3 8 1 1035.74 1124.99 49.54 o 1
-3 -5 1 1152.01 1260.04 61.19 o -3
3 5 1 1152.01 1260.04 61.19 o 1
2 -8 1 815.89 811.64 52.39 o -3
-2 8 1 815.89 811.64 52.39 o 1
-2 -6 1 799.76 786.82 51.60 o -3
2 6 1 799.76 786.82 51.60 o 1
1 -8 1 1074.51 1134.39 73.57 o -3
-1 8 1 1074.51 1134.39 73.57 o 1
-1 -7 1 1193.32 1271.11 75.38 o -3
1 7 1 1193.32 1271.11 75.38 o 1
0 -8 1 752.17 754.28 68.33 o -3
0 8 1 752.17 754.28 68.33 o 1
4 -9 1 1157.32 1221.34 56.03 o -3
-4 9 1 1157.32 1221.34 56.03 o 1
-4 -5 1 1241.68 1600.53 93.55 o -3
4 5 1 1241.68 1600.53 93.55 o 1
3 -9 1 1474.16 1464.80 66.42 o -3
-3 9 1 1474.16 1464.80 66.42 o 1
-3 -6 1 1303.99 1388.04 97.08 o -3
3 6 1 1303.99 1388.04 97.08 o 1
2 -9 1 958.77 986.59 63.44 o -3
-2 9 1 958.77 986.59 63.44 o 1
-2 -7 1 1048.17 1146.04 84.07 o -3
2 7 1 1048.17 1146.04 84.07 o 1
1 -9 1 615.52 758.39 63.60 o -3
-1 9 1 615.52 758.39 63.60 o 1
-1 -8 1 660.25 704.79 70.22 o -3
1 8 1 660.25 704.79 70.22 o 1
0 -9 1 1037.01 1040.32 86.45 o -3
0 9 1 1037.01 1040.32 86.45 o 1
5 -10 1 969.41 828.97 75.95 o -3
-5 10 1 969.41 828.97 75.95 o 1
-5 -5 1 916.40 927.10 135.05 o -3
5 5 1 916.40 927.10 135.05 o 1
4 -10 1 710.95 818.29 59.54 o -3
-4 10 1 710.95 818.29 59.54 o 1
-4 -6 1 728.27 897.54 76.95 o -3
4 6 1 728.27 897.54 76.95 o 1
3 -10 1 696.29 752.73 62.03 o -3
-3 10 1 696.29 752.73 62.03 o 1
-3 -7 1 717.30 689.82 74.59 o -3
3 7 1 717.30 689.82 74.59 o 1
2 -10 1 973.91 1026.05 79.25 o -3
-2 10 1 973.91 1026.05 79.25 o 1
-2 -8 1 883.48 927.39 85.75 o -3
2 8 1 883.48 927.39 85.75 o 1
1 -10 1 793.75 826.07 72.84 o -3
-1 10 1 793.75 826.07 72.84 o 1
-1 -9 1 807.02 802.74 75.09 o -3
1 9 1 807.02 802.74 75.09 o 1
0 -10 1 492.51 441.66 63.78 o -3
0 10 1 492.51 441.66 63.78 o 1
5 -11 1 469.23 577.23 80.64 o -3
-5 11 1 469.23 577.23 80.64 o 1
-5 -6 1 525.20 594.99 74.88 o -3
5 6 1 525.20 594.99 74.88 o 1
4 -11 1 760.94 767.11 82.53 o -3
-4 11 1 760.94 767.11 82.53 o 1
-4 -7 1 692.71 752.45 85.04 o -3
4 7 1 692.71 752.45 85.04 o 1
3 -11 1 657.01 787.61 86.32 o -3
-3 11 1 657.01 787.61 86.32 o 1
-3 -8 1 675.72 803.87 146.25 o -3
3 8 1 675.72 803.87 146.25 o 1
2 -11 1 695.70 680.55 85.07 o -3
-2 11 1 695.70 680.55 85.07 o 1
-2 -9 1 687.76 675.13 163.61 o -3
2 9 1 687.76 675.13 163.61 o 1
1 -11 1 438.68 421.77 111.77 o -3
-1 11 1 438.68 421.77 111.77 o 1
-1 -10 1 406.23 553.28 151.15 o -3
1 10 1 406.23 553.28 151.15 o 1
6 -12 1 789.53 725.48 188.33 o -3
-6 12 1 789.53 725.48 188.33 o 1
5 -12 1 478.59 478.48 103.29 o -3
-5 12 1 478.59 478.48 103.29 o 1
4 -12 1 390.18 417.29 179.58 < -3
-4 12 1 390.18 417.29 179.58 < 1
1 -3 2 1379.04 1426.29 41.11 o -3
-1 3 2 1379.04 1426.29 41.11 o 1
0 -3 2 612.18 483.92 26.68 o -3
0 3 2 612.18 483.92 26.68 o 1
2 -4 2 9600.03 10027.00 163.06 o -3
-2 4 2 9600.03 10027.00 163.06 o 1
1 -4 2 2818.78 2736.46 61.55 o -3
-1 4 2 2818.78 2736.46 61.55 o 1
-1 -3 2 2998.42 2829.41 64.20 o -3
1 3 2 2998.42 2829.41 64.20 o 1
0 -4 2 2343.94 2314.36 58.96 o -3
0 4 2 2343.94 2314.36 58.96 o 1
2 -5 2 1826.34 1636.19 46.94 o -3
-2 5 2 1826.34 1636.19 46.94 o 1
-2 -3 2 1839.65 1725.11 51.34 o -3
2 3 2 1839.65 1725.11 51.34 o 1
1 -5 2 1423.54 1455.96 51.71 o -3
-1 5 2 1423.54 1455.96 51.71 o 1
-1 -4 2 1520.82 1606.76 54.25 o -3
1 4 2 1520.82 1606.76 54.25 o 1
0 -5 2 659.02 651.22 34.98 o -3
0 5 2 659.02 651.22 34.98 o 1
3 -6 2 940.78 1037.28 52.36 o -3
-3 6 2 940.78 1037.28 52.36 o 1
-3 -3 2 1229.97 1415.32 70.01 o -3
3 3 2 1229.97 1415.32 70.01 o 1
2 -6 2 1052.19 1122.16 46.19 o -3
-2 6 2 1052.19 1122.16 46.19 o 1
-2 -4 2 928.35 880.11 35.56 o -3
2 4 2 928.35 880.11 35.56 o 1
1 -6 2 1331.35 1225.03 52.65 o -3
-1 6 2 1331.35 1225.03 52.65 o 1
-1 -5 2 1106.96 930.90 42.94 o -3
1 5 2 1106.96 930.90 42.94 o 1
0 -6 2 2012.96 2162.53 69.70 o -3
0 6 2 2012.96 2162.53 69.70 o 1
3 -7 2 1744.60 1702.93 59.33 o -3
-3 7 2 1744.60 1702.93 59.33 o 1
-3 -4 2 1778.49 1885.65 76.24 o -3
3 4 2 1778.49 1885.65 76.24 o 1
2 -7 2 1189.56 1185.63 52.68 o -3
-2 7 2 1189.56 1185.63 52.68 o 1
-2 -5 2 1129.71 1101.01 49.93 o -3
2 5 2 1129.71 1101.01 49.93 o 1
1 -7 2 1814.50 2013.27 76.53 o -3
-1 7 2 1814.50 2013.27 76.53 o 1
-1 -6 2 1781.64 1787.71 70.17 o -3
1 6 2 1781.64 1787.71 70.17 o 1
0 -7 2 2389.83 2513.42 90.28 o -3
0 7 2 2389.83 2513.42 90.28 o 1
4 -8 2 949.71 861.39 61.34 o -3
-4 8 2 949.71 861.39 61.34 o 1
-4 -4 2 1225.22 961.22 84.96 o -3
4 4 2 1225.22 961.22 84.96 o 1
3 -8 2 784.08 923.67 50.79 o -3
-3 8 2 784.08 923.67 50.79 o 1
-3 -5 2 777.50 973.73 52.55 o -3
3 5 2 777.50 973.73 52.55 o 1
2 -8 2 789.46 788.89 53.67 o -3
-2 8 2 789.46 788.89 53.67 o 1
-2 -6 2 773.84 818.29 51.37 o -3
2 6 2 773.84 818.29 51.37 o 1
1 -8 2 508.86 413.81 42.73 o -3
-1 8 2 508.86 413.81 42.73 o 1
-1 -7 2 746.49 714.66 61.08 o -3
1 7 2 746.49 714.66 61.08 o 1
0 -8 2 521.21 717.83 68.73 o -3
0 8 2 521.21 717.83 68.73 o 1
4 -9 2 1627.21 1609.75 71.61 o -3
-4 9 2 1627.21 1609.75 71.61 o 1
-4 -5 2 1471.86 1513.08 100.80 o -3
4 5 2 1471.86 1513.08 100.80 o 1
3 -9 2 739.04 1128.16 73.05 o -3
-3 9 2 739.04 1128.16 73.05 o 1
-3 -6 2 704.06 914.96 75.56 o -3
3 6 2 704.06 914.96 75.56 o 1
2 -9 2 832.72 735.95 64.75 o -3
-2 9 2 832.72 735.95 64.75 o 1
-2 -7 2 787.06 864.11 78.73 o -3
2 7 2 787.06 864.11 78.73 o 1
1 -9 2 635.04 635.41 66.19 o -3
-1 9 2 635.04 635.41 66.19 o 1
-1 -8 2 690.16 655.52 69.46 o -3
1 8 2 690.16 655.52 69.46 o 1
0 -9 2 677.88 697.93 72.08 o -3
0 9 2 677.88 697.93 72.08 o 1
5 -10 2 515.21 493.74 70.67 o -3
-5 10 2 515.21 493.74 70.67 o 1
-5 -5 2 742.39 888.15 129.86 o -3
5 5 2 742.39 888.15 129.86 o 1
4 -10 2 829.75 705.40 61.11 o -3
-4 10 2 829.75 705.40 61.11 o 1
-4 -6 2 767.72 771.61 81.79 o -3
4 6 2 767.72 771.61 81.79 o 1
3 -10 2 856.09 783.08 81.01 o -3
-3 10 2 856.09 783.08 81.01 o 1
-3 -7 2 826.82 782.14 73.57 o -3
3 7 2 826.82 782.14 73.57 o 1
2 -10 2 639.07 575.87 76.87 o -3
-2 10 2 639.07 575.87 76.87 o 1
-2 -8 2 677.30 671.15 75.67 o -3
2 8 2 677.30 671.15 75.67 o 1
1 -10 2 629.83 699.19 92.42 o -3
-1 10 2 629.83 699.19 92.42 o 1
-1 -9 2 632.92 579.98 68.15 o -3
1 9 2 632.92 579.98 68.15 o 1
0 -10 2 640.48 764.12 126.75 o -3
0 10 2 640.48 764.12 126.75 o 1
5 -11 2 399.44 452.82 70.40 o -3
-5 11 2 399.44 452.82 70.40 o 1
-5 -6 2 413.93 513.95 72.08 o -3
5 6 2 413.93 513.95 72.08 o 1
4 -11 2 341.74 323.17 59.67 o -3
-4 11 2 341.74 323.17 59.67 o 1
-4 -7 2 401.02 400.17 81.98 o -3
4 7 2 401.02 400.17 81.98 o 1
3 -11 2 537.25 750.95 87.32 o -3
-3 11 2 537.25 750.95 87.32 o 1
-3 -8 2 479.08 686.02 122.38 o -3
3 8 2 479.08 686.02 122.38 o 1
2 -11 2 667.66 710.74 93.39 o -3
-2 11 2 667.66 710.74 93.39 o 1
-2 -9 2 636.59 671.04 118.60 o -3
2 9 2 636.59 671.04 118.60 o 1
1 -11 2 382.66 211.13 86.06 < -3
-1 11 2 382.66 211.13 86.06 < 1
-6 -6 2 477.97 375.55 143.69 < -3
6 6 2 477.97 375.55 143.69 < 1
5 -12 2 541.41 656.54 209.93 o -3
-5 12 2 541.41 656.54 209.93 o 1
-5 -7 2 514.52 499.53 156.20 o -3
5 7 2 514.52 499.53 156.20 o 1
-1 -1 3 3860.34 3860.33 122.03 o -3
1 -2 -3 3860.34 3860.33 122.03 o -2
1 1 3 3860.34 3860.33 122.03 o 1
1 -3 3 2030.24 2181.04 52.76 o -3
-1 3 3 2030.24 2181.04 52.76 o 1
0 -3 3 4562.73 4973.01 95.70 o -3
0 3 3 4562.73 4973.01 95.70 o 1
2 -4 3 5750.19 6341.18 154.71 o -3
-2 4 3 5750.19 6341.18 154.71 o 1
1 -4 3 1673.74 1626.71 50.66 o -3
-1 4 3 1673.74 1626.71 50.66 o 1
-1 -3 3 1730.14 1789.88 52.63 o -3
1 3 3 1730.14 1789.88 52.63 o 1
0 -4 3 1726.66 1609.09 56.50 o -3
0 4 3 1726.66 1609.09 56.50 o 1
2 -5 3 1887.54 1866.25 53.52 o -3
-2 5 3 1887.54 1866.25 53.52 o 1
-2 -3 3 1906.50 1869.45 55.14 o -3
2 3 3 1906.50 1869.45 55.14 o 1
1 -5 3 2161.01 2127.52 60.85 o -3
-1 5 3 2161.01 2127.52 60.85 o 1
-1 -4 3 2092.26 2038.16 63.75 o -3
1 4 3 2092.26 2038.16 63.75 o 1
0 -5 3 1554.78 1402.36 59.83 o -3
0 5 3 1554.78 1402.36 59.83 o 1
3 -6 3 2316.91 2298.13 110.75 o -3
-3 6 3 2316.91 2298.13 110.75 o 1
-3 -3 3 2397.78 2420.87 105.62 o -3
3 3 3 2397.78 2420.87 105.62 o 1
2 -6 3 1387.45 1322.95 56.61 o -3
-2 6 3 1387.45 1322.95 56.61 o 1
-2 -4 3 1383.84 1371.15 61.58 o -3
2 4 3 1383.84 1371.15 61.58 o 1
1 -6 3 958.60 930.40 43.49 o -3
-1 6 3 958.60 930.40 43.49 o 1
-1 -5 3 1095.09 1094.15 60.98 o -3
1 5 3 1095.09 1094.15 60.98 o 1
0 -6 3 3369.89 3138.04 110.44 o -3
0 6 3 3369.89 3138.04 110.44 o 1
3 -7 3 1042.26 1091.50 56.63 o -3
-3 7 3 1042.26 1091.50 56.63 o 1
-3 -4 3 1088.67 1260.93 72.66 o -3
3 4 3 1088.67 1260.93 72.66 o 1
2 -7 3 1978.42 1987.58 71.27 o -3
-2 7 3 1978.42 1987.58 71.27 o 1
-2 -5 3 1822.02 1793.36 84.72 o -3
2 5 3 1822.02 1793.36 84.72 o 1
1 -7 3 1250.65 1268.54 61.19 o -3
-1 7 3 1250.65 1268.54 61.19 o 1
-1 -6 3 1201.36 1237.75 75.22 o -3
1 6 3 1201.36 1237.75 75.22 o 1
0 -7 3 1306.05 1266.29 80.93 o -3
0 7 3 1306.05 1266.29 80.93 o 1
4 -8 3 2320.21 2047.22 116.33 o -3
-4 8 3 2320.21 2047.22 116.33 o 1
-4 -4 3 2190.85 2206.10 154.00 o -3
4 4 3 2190.85 2206.10 154.00 o 1
3 -8 3 837.07 813.50 54.22 o -3
-3 8 3 837.07 813.50 54.22 o 1
-3 -5 3 928.11 1001.57 70.46 o -3
3 5 3 928.11 1001.57 70.46 o 1
2 -8 3 665.09 620.78 53.73 o -3
-2 8 3 665.09 620.78 53.73 o 1
-2 -6 3 650.46 681.52 63.54 o -3
2 6 3 650.46 681.52 63.54 o 1
1 -8 3 1130.91 1034.95 81.66 o -3
-1 8 3 1130.91 1034.95 81.66 o 1
-1 -7 3 1229.07 1159.55 87.58 o -3
1 7 3 1229.07 1159.55 87.58 o 1
0 -8 3 629.85 645.20 67.50 o -3
0 8 3 629.85 645.20 67.50 o 1
4 -9 3 929.78 956.59 70.46 o -3
-4 9 3 929.78 956.59 70.46 o 1
-4 -5 3 1008.54 987.11 88.02 o -3
4 5 3 1008.54 987.11 88.02 o 1
3 -9 3 1444.65 1465.77 104.05 o -3
-3 9 3 1444.65 1465.77 104.05 o 1
-3 -6 3 1303.58 1273.57 99.81 o -3
3 6 3 1303.58 1273.57 99.81 o 1
2 -9 3 776.20 713.38 74.75 o -3
-2 9 3 776.20 713.38 74.75 o 1
-2 -7 3 857.37 938.73 83.76 o -3
2 7 3 857.37 938.73 83.76 o 1
1 -9 3 511.09 529.45 68.52 o -3
-1 9 3 511.09 529.45 68.52 o 1
-1 -8 3 556.61 587.34 67.71 o -3
1 8 3 556.61 587.34 67.71 o 1
0 -9 3 993.84 1063.62 102.71 o -3
0 9 3 993.84 1063.62 102.71 o 1
5 -10 3 947.38 791.09 110.12 o -3
-5 10 3 947.38 791.09 110.12 o 1
-5 -5 3 895.68 959.05 148.50 o -3
5 5 3 895.68 959.05 148.50 o 1
4 -10 3 592.97 590.17 67.10 o -3
-4 10 3 592.97 590.17 67.10 o 1
-4 -6 3 604.78 658.35 70.98 o -3
4 6 3 604.78 658.35 70.98 o 1
3 -10 3 582.71 593.76 82.79 o -3
-3 10 3 582.71 593.76 82.79 o 1
-3 -7 3 597.04 691.41 76.11 o -3
3 7 3 597.04 691.41 76.11 o 1
2 -10 3 933.42 778.31 98.52 o -3
-2 10 3 933.42 778.31 98.52 o 1
-2 -8 3 853.36 797.40 85.93 o -3
2 8 3 853.36 797.40 85.93 o 1
1 -10 3 674.12 822.14 119.42 o -3
-1 10 3 674.12 822.14 119.42 o 1
-1 -9 3 683.48 641.43 113.63 o -3
1 9 3 683.48 641.43 113.63 o 1
0 -10 3 432.49 427.61 165.13 < -3
0 10 3 432.49 427.61 165.13 < 1
5 -11 3 407.32 519.24 85.27 o -3
-5 11 3 407.32 519.24 85.27 o 1
-5 -6 3 457.26 555.40 112.48 o -3
5 6 3 457.26 555.40 112.48 o 1
4 -11 3 734.22 706.18 116.61 o -3
-4 11 3 734.22 706.18 116.61 o 1
-4 -7 3 675.39 652.46 142.88 o -3
4 7 3 675.39 652.46 142.88 o 1
3 -11 3 565.72 805.20 132.24 o -3
-3 11 3 565.72 805.20 132.24 o 1
-3 -8 3 581.75 687.59 146.23 o -3
3 8 3 581.75 687.59 146.23 o 1
2 -11 3 597.61 600.51 151.65 o -3
-2 11 3 597.61 600.51 151.65 o 1
-2 -9 3 589.45 472.48 166.15 < -3
2 9 3 589.45 472.48 166.15 < 1
1 -3 4 1927.14 2216.73 49.48 o -3
-1 3 4 1927.14 2216.73 49.48 o 1
0 -3 4 5669.00 6271.77 101.87 o -3
0 3 4 5669.00 6271.77 101.87 o 1
2 -4 4 4502.91 4665.79 100.28 o -3
-2 4 4 4502.91 4665.79 100.28 o 1
1 -4 4 1714.98 1854.58 62.58 o -3
-1 4 4 1714.98 1854.58 62.58 o 1
-1 -3 4 1680.22 1813.34 57.31 o -3
1 3 4 1680.22 1813.34 57.31 o 1
0 -4 4 975.76 940.12 47.52 o -3
0 4 4 975.76 940.12 47.52 o 1
2 -5 4 3051.45 2983.20 81.30 o -3
-2 5 4 3051.45 2983.20 81.30 o 1
1 -5 4 1771.85 1768.12 60.74 o -3
-1 5 4 1771.85 1768.12 60.74 o 1
-1 -4 4 1530.22 1564.90 67.99 o -3
1 4 4 1530.22 1564.90 67.99 o 1
0 -5 4 1525.66 1356.52 64.98 o -3
0 5 4 1525.66 1356.52 64.98 o 1
3 -6 4 2296.25 2171.40 117.43 o -3
-3 6 4 2296.25 2171.40 117.43 o 1
-3 -3 4 2663.21 2736.86 151.46 o -3
3 3 4 2663.21 2736.86 151.46 o 1
2 -6 4 1194.92 1198.19 61.34 o -3
-2 6 4 1194.92 1198.19 61.34 o 1
-2 -4 4 1327.34 1275.74 61.00 o -3
2 4 4 1327.34 1275.74 61.00 o 1
1 -6 4 1586.45 1525.23 74.10 o -3
-1 6 4 1586.45 1525.23 74.10 o 1
-1 -5 4 1665.74 1744.61 77.71 o -3
1 5 4 1665.74 1744.61 77.71 o 1
0 -6 4 2604.85 2305.59 95.80 o -3
0 6 4 2604.85 2305.59 95.80 o 1
3 -7 4 1017.82 1071.89 62.81 o -3
-3 7 4 1017.82 1071.89 62.81 o 1
-3 -4 4 960.75 1128.68 71.29 o -3
3 4 4 960.75 1128.68 71.29 o 1
2 -7 4 859.44 831.75 51.74 o -3
-2 7 4 859.44 831.75 51.74 o 1
-2 -5 4 836.47 779.12 59.80 o -3
2 5 4 836.47 779.12 59.80 o 1
1 -7 4 1419.35 1419.12 88.34 o -3
-1 7 4 1419.35 1419.12 88.34 o 1
-1 -6 4 1302.04 1356.99 85.88 o -3
1 6 4 1302.04 1356.99 85.88 o 1
0 -7 4 1581.57 1282.24 89.44 o -3
0 7 4 1581.57 1282.24 89.44 o 1
4 -8 4 1405.79 1305.98 113.53 o -3
-4 8 4 1405.79 1305.98 113.53 o 1
-4 -4 4 1518.05 1692.72 171.94 o -3
4 4 4 1518.05 1692.72 171.94 o 1
3 -8 4 1380.48 1247.05 77.00 o -3
-3 8 4 1380.48 1247.05 77.00 o 1
-3 -5 4 1300.06 1239.82 97.61 o -3
3 5 4 1300.06 1239.82 97.61 o 1
2 -8 4 1272.17 1200.73 93.81 o -3
-2 8 4 1272.17 1200.73 93.81 o 1
-2 -6 4 1173.50 1253.18 96.01 o -3
2 6 4 1173.50 1253.18 96.01 o 1
1 -8 4 676.29 682.83 73.39 o -3
-1 8 4 676.29 682.83 73.39 o 1
-1 -7 4 827.40 819.26 78.55 o -3
1 7 4 827.40 819.26 78.55 o 1
0 -8 4 756.01 639.00 76.14 o -3
0 8 4 756.01 639.00 76.14 o 1
4 -9 4 1318.25 1237.15 98.71 o -3
-4 9 4 1318.25 1237.15 98.71 o 1
-4 -5 4 1327.77 1403.51 101.95 o -3
4 5 4 1327.77 1403.51 101.95 o 1
3 -9 4 775.13 688.77 82.05 o -3
-3 9 4 775.13 688.77 82.05 o 1
-3 -6 4 843.61 856.91 84.02 o -3
3 6 4 843.61 856.91 84.02 o 1
2 -9 4 742.90 679.47 86.24 o -3
-2 9 4 742.90 679.47 86.24 o 1
-2 -7 4 784.52 749.28 76.27 o -3
2 7 4 784.52 749.28 76.27 o 1
1 -9 4 693.64 600.69 75.06 o -3
-1 9 4 693.64 600.69 75.06 o 1
-1 -8 4 786.69 752.18 87.32 o -3
1 8 4 786.69 752.18 87.32 o 1
0 -9 4 704.81 547.99 110.99 o -3
0 9 4 704.81 547.99 110.99 o 1
5 -10 4 382.82 291.83 66.08 o -3
-5 10 4 382.82 291.83 66.08 o 1
-5 -5 4 494.00 674.37 111.48 o -3
5 5 4 494.00 674.37 111.48 o 1
4 -10 4 723.34 603.99 80.64 o -3
-4 10 4 723.34 603.99 80.64 o 1
-4 -6 4 607.22 624.55 77.34 o -3
4 6 4 607.22 624.55 77.34 o 1
3 -10 4 739.47 618.86 95.12 o -3
-3 10 4 739.47 618.86 95.12 o 1
-3 -7 4 666.68 717.73 110.17 o -3
3 7 4 666.68 717.73 110.17 o 1
2 -10 4 609.83 707.57 129.13 o -3
-2 10 4 609.83 707.57 129.13 o 1
-2 -8 4 612.01 517.41 127.45 o -3
2 8 4 612.01 517.41 127.45 o 1
1 -10 4 602.26 576.27 238.15 < -3
-1 10 4 602.26 576.27 238.15 < 1
-1 -9 4 578.22 611.53 204.69 < -3
1 9 4 578.22 611.53 204.69 < 1
5 -11 4 616.65 445.98 137.30 o -3
-5 11 4 616.65 445.98 137.30 o 1
4 -11 4 529.05 374.85 148.19 < -3
-4 11 4 529.05 374.85 148.19 < 1
-4 -7 4 576.18 660.10 233.10 < -3
4 7 4 576.18 660.10 233.10 < 1
1 -2 5 871.21 731.42 55.27 o -3
-1 2 5 871.21 731.42 55.27 o 1
1 -3 5 1588.77 1931.03 68.65 o -3
-1 3 5 1588.77 1931.03 68.65 o 1
2 -4 5 2319.29 2439.12 94.41 o -3
-2 4 5 2319.29 2439.12 94.41 o 1
1 -4 5 1427.38 1426.06 52.21 o -3
-1 4 5 1427.38 1426.06 52.21 o 1
0 -4 5 1386.02 1515.05 72.58 o -3
0 4 5 1386.02 1515.05 72.58 o 1
2 -5 5 1347.99 1296.90 57.16 o -3
-2 5 5 1347.99 1296.90 57.16 o 1
1 -5 5 946.09 887.78 52.49 o -3
-1 5 5 946.09 887.78 52.49 o 1
-1 -4 5 922.18 961.59 56.81 o -3
1 4 5 922.18 961.59 56.81 o 1
0 -5 5 1092.43 1140.04 64.04 o -3
0 5 5 1092.43 1140.04 64.04 o 1
3 -6 5 1099.62 1009.13 118.29 o -3
-3 6 5 1099.62 1009.13 118.29 o 1
2 -6 5 1025.36 1086.29 68.49 o -3
-2 6 5 1025.36 1086.29 68.49 o 1
-2 -4 5 1025.25 1104.91 67.79 o -3
2 4 5 1025.25 1104.91 67.79 o 1
1 -6 5 752.18 696.28 57.42 o -3
-1 6 5 752.18 696.28 57.42 o 1
-1 -5 5 818.59 845.34 65.59 o -3
1 5 5 818.59 845.34 65.59 o 1
0 -6 5 1747.77 1562.88 98.97 o -3
0 6 5 1747.77 1562.88 98.97 o 1
3 -7 5 840.04 807.16 66.24 o -3
-3 7 5 840.04 807.16 66.24 o 1
-3 -4 5 882.78 827.77 78.21 o -3
3 4 5 882.78 827.77 78.21 o 1
2 -7 5 1089.82 977.92 82.50 o -3
-2 7 5 1089.82 977.92 82.50 o 1
-2 -5 5 967.07 998.27 83.81 o -3
2 5 5 967.07 998.27 83.81 o 1
1 -7 5 965.21 990.91 87.19 o -3
-1 7 5 965.21 990.91 87.19 o 1
-1 -6 5 940.33 914.33 80.98 o -3
1 6 5 940.33 914.33 80.98 o 1
0 -7 5 979.56 904.27 88.50 o -3
0 7 5 979.56 904.27 88.50 o 1
4 -8 5 1258.03 836.04 116.61 o -3
-4 8 5 1258.03 836.04 116.61 o 1
-4 -4 5 1177.01 1171.49 132.43 o -3
4 4 5 1177.01 1171.49 132.43 o 1
3 -8 5 616.64 665.10 79.62 o -3
-3 8 5 616.64 665.10 79.62 o 1
-3 -5 5 682.16 686.65 77.52 o -3
3 5 5 682.16 686.65 77.52 o 1
2 -8 5 496.32 416.56 59.35 o -3
-2 8 5 496.32 416.56 59.35 o 1
-2 -6 5 492.82 528.67 65.17 o -3
2 6 5 492.82 528.67 65.17 o 1
1 -8 5 645.80 692.93 78.55 o -3
-1 8 5 645.80 692.93 78.55 o 1
-1 -7 5 719.68 615.07 75.72 o -3
1 7 5 719.68 615.07 75.72 o 1
0 -8 5 473.09 435.20 64.46 o -3
0 8 5 473.09 435.20 64.46 o 1
4 -9 5 698.70 677.15 84.28 o -3
-4 9 5 698.70 677.15 84.28 o 1
-4 -5 5 749.65 733.62 78.44 o -3
4 5 5 749.65 733.62 78.44 o 1
3 -9 5 909.76 893.57 110.44 o -3
-3 9 5 909.76 893.57 110.44 o 1
-3 -6 5 797.26 766.35 84.07 o -3
3 6 5 797.26 766.35 84.07 o 1
2 -9 5 578.90 676.52 116.17 o -3
-2 9 5 578.90 676.52 116.17 o 1
-2 -7 5 636.06 612.68 99.02 o -3
2 7 5 636.06 612.68 99.02 o 1
1 -9 5 386.86 523.80 212.94 < -3
-1 9 5 386.86 523.80 212.94 < 1
-1 -8 5 424.21 338.53 99.65 o -3
1 8 5 424.21 338.53 99.65 o 1
0 -9 5 636.33 323.24 175.10 < -3
0 9 5 636.33 323.24 175.10 < 1
5 -10 5 603.61 387.91 136.80 < -3
-5 10 5 603.61 387.91 136.80 < 1
-5 -5 5 566.20 408.12 158.06 < -3
5 5 5 566.20 408.12 158.06 < 1
4 -10 5 459.69 428.18 151.96 < -3
-4 10 5 459.69 428.18 151.96 < 1
-4 -6 5 473.10 449.52 173.98 < -3
4 6 5 473.10 449.52 173.98 < 1
0 0 6 3867.04 5762.27 316.57 o -3
0 0 6 3867.04 5762.27 316.57 o 1
1 -2 6 3022.14 3550.36 170.03 o -3
-1 2 6 3022.14 3550.36 170.03 o 1
1 -3 6 603.95 491.10 42.55 o -3
-1 3 6 603.95 491.10 42.55 o 1
2 -4 6 3653.04 3890.72 244.72 o -3
-2 4 6 3653.04 3890.72 244.72 o 1
1 -4 6 1001.88 968.94 68.91 o -3
-1 4 6 1001.88 968.94 68.91 o 1
0 -4 6 973.93 966.61 70.12 o -3
0 4 6 973.93 966.61 70.12 o 1
2 -5 6 735.46 696.81 70.27 o -3
-2 5 6 735.46 696.81 70.27 o 1
1 -5 6 1028.20 1059.14 79.33 o -3
-1 5 6 1028.20 1059.14 79.33 o 1
-1 -4 6 1112.53 1379.06 93.29 o -3
1 4 6 1112.53 1379.06 93.29 o 1
0 -5 6 409.39 497.51 57.42 o -3
0 5 6 409.39 497.51 57.42 o 1
3 -6 6 757.84 697.12 125.44 o -3
-3 6 6 757.84 697.12 125.44 o 1
2 -6 6 586.37 553.15 69.09 o -3
-2 6 6 586.37 553.15 69.09 o 1
-2 -4 6 514.53 548.62 62.73 o -3
2 4 6 514.53 548.62 62.73 o 1
1 -6 6 650.10 556.05 66.16 o -3
-1 6 6 650.10 556.05 66.16 o 1
-1 -5 6 557.95 518.04 62.42 o -3
1 5 6 557.95 518.04 62.42 o 1
0 -6 6 1159.59 1101.58 97.63 o -3
0 6 6 1159.59 1101.58 97.63 o 1
3 -7 6 834.65 879.56 109.89 o -3
-3 7 6 834.65 879.56 109.89 o 1
-3 -4 6 843.41 886.86 79.04 o -3
3 4 6 843.41 886.86 79.04 o 1
2 -7 6 751.69 638.06 69.51 o -3
-2 7 6 751.69 638.06 69.51 o 1
-2 -5 6 728.28 831.20 82.03 o -3
2 5 6 728.28 831.20 82.03 o 1
1 -7 6 837.85 717.52 80.25 o -3
-1 7 6 837.85 717.52 80.25 o 1
-1 -6 6 816.55 802.61 77.39 o -3
1 6 6 816.55 802.61 77.39 o 1
0 -7 6 1089.63 1174.29 106.14 o -3
0 7 6 1089.63 1174.29 106.14 o 1
4 -8 6 595.40 502.62 118.00 o -3
-4 8 6 595.40 502.62 118.00 o 1
-4 -4 6 741.59 410.38 76.08 o -3
4 4 6 741.59 410.38 76.08 o 1
3 -8 6 436.80 421.32 77.13 o -3
-3 8 6 436.80 421.32 77.13 o 1
-3 -5 6 425.54 470.33 66.19 o -3
3 5 6 425.54 470.33 66.19 o 1
2 -8 6 440.93 418.55 144.50 < -3
-2 8 6 440.93 418.55 144.50 < 1
-2 -6 6 425.70 470.41 86.98 o -3
2 6 6 425.70 470.41 86.98 o 1
1 -8 6 358.66 269.23 121.75 < -3
-1 8 6 358.66 269.23 121.75 < 1
-1 -7 6 487.35 487.98 134.99 o -3
1 7 6 487.35 487.98 134.99 o 1
0 -8 6 298.84 133.21 66.21 < -3
0 8 6 298.84 133.21 66.21 < 1
4 -9 6 783.13 585.61 172.25 o -3
-4 9 6 783.13 585.61 172.25 o 1
-4 -5 6 707.28 690.03 144.76 o -3
4 5 6 707.28 690.03 144.76 o 1
-3 -6 6 476.76 698.64 195.16 o -3
3 6 6 476.76 698.64 195.16 o 1
0 0 7 1979.44 1389.27 240.32 o -3
0 0 7 1979.44 1389.27 240.32 o 1
0 -1 7 1293.37 1523.74 100.28 o -3
0 1 7 1293.37 1523.74 100.28 o 1
1 -2 7 663.12 588.18 86.92 o -3
-1 2 7 663.12 588.18 86.92 o 1
0 -2 7 1079.08 1250.69 84.83 o -3
0 2 7 1079.08 1250.69 84.83 o 1
1 -3 7 1018.18 1080.69 87.26 o -3
-1 3 7 1018.18 1080.69 87.26 o 1
2 -4 7 1385.40 1395.79 261.27 o -3
-2 4 7 1385.40 1395.79 261.27 o 1
1 -4 7 908.75 909.07 103.13 o -3
-1 4 7 908.75 909.07 103.13 o 1
0 -4 7 805.77 893.64 84.25 o -3
0 4 7 805.77 893.64 84.25 o 1
2 -5 7 916.94 992.72 166.99 o -3
-2 5 7 916.94 992.72 166.99 o 1
1 -5 7 738.62 701.42 83.91 o -3
-1 5 7 738.62 701.42 83.91 o 1
-1 -4 7 709.13 837.51 74.38 o -3
1 4 7 709.13 837.51 74.38 o 1
0 -5 7 734.21 797.56 88.36 o -3
0 5 7 734.21 797.56 88.36 o 1
3 -6 7 893.06 966.74 239.59 o -3
-3 6 7 893.06 966.74 239.59 o 1
2 -6 7 658.06 689.22 106.51 o -3
-2 6 7 658.06 689.22 106.51 o 1
-2 -4 7 683.33 805.75 77.16 o -3
2 4 7 683.33 805.75 77.16 o 1
1 -6 7 542.28 406.79 64.62 o -3
-1 6 7 542.28 406.79 64.62 o 1
-1 -5 7 590.78 558.07 73.99 o -3
1 5 7 590.78 558.07 73.99 o 1
0 -6 7 1224.68 1144.15 141.07 o -3
0 6 7 1224.68 1144.15 141.07 o 1
-3 -4 7 567.50 583.52 81.35 o -3
3 4 7 567.50 583.52 81.35 o 1
-2 -5 7 668.40 694.77 120.31 o -3
2 5 7 668.40 694.77 120.31 o 1
1 -7 7 650.08 438.63 148.66 < -3
-1 7 7 650.08 438.63 148.66 < 1
-1 -6 7 629.26 549.40 142.95 o -3
1 6 7 629.26 549.40 142.95 o 1
0 -7 7 635.63 456.56 146.75 o -3
0 7 7 635.63 456.56 146.75 o 1
-4 -4 7 835.16 832.41 217.10 o -3
4 4 7 835.16 832.41 217.10 o 1
0 0 8 4669.43 4756.01 481.36 o -3
0 0 8 4669.43 4756.01 481.36 o 1
0 -1 8 605.75 656.33 71.58 o -3
0 1 8 605.75 656.33 71.58 o 1
1 -2 8 865.00 1000.60 158.56 o -3
-1 2 8 865.00 1000.60 158.56 o 1
-1 -1 8 795.02 763.68 114.23 o -3
1 1 8 795.02 763.68 114.23 o 1
0 -2 8 651.53 811.67 89.94 o -3
0 2 8 651.53 811.67 89.94 o 1
1 -3 8 638.73 581.34 85.41 o -3
-1 3 8 638.73 581.34 85.41 o 1
0 -3 8 1682.64 1469.39 127.09 o -3
0 3 8 1682.64 1469.39 127.09 o 1
2 -4 8 1177.21 1437.86 210.21 o -3
-2 4 8 1177.21 1437.86 210.21 o 1
1 -4 8 606.04 567.91 90.96 o -3
-1 4 8 606.04 567.91 90.96 o 1
0 -4 8 437.80 543.98 81.03 o -3
0 4 8 437.80 543.98 81.03 o 1
2 -5 8 912.88 816.98 227.44 o -3
-2 5 8 912.88 816.98 227.44 o 1
1 -5 8 604.03 826.43 177.70 o -3
-1 5 8 604.03 826.43 177.70 o 1
-1 -4 8 548.29 783.37 131.33 o -3
1 4 8 548.29 783.37 131.33 o 1
-2 -4 8 526.56 684.55 148.79 o -3
2 4 8 526.56 684.55 148.79 o 1
-1 -5 8 620.07 748.23 225.71 o -3
1 5 8 620.07 748.23 225.71 o 1
0 0 9 822.61 710.40 203.01 o -3
0 0 9 822.61 710.40 203.01 o 1
0 -1 9 625.04 545.21 99.05 o -3
0 1 9 625.04 545.21 99.05 o 1
1 -2 9 389.14 505.47 117.58 o -3
-1 2 9 389.14 505.47 117.58 o 1
-1 -1 9 464.69 856.96 231.71 o -3
1 1 9 464.69 856.96 231.71 o 1
0 -2 9 479.92 289.81 82.55 o -3
0 2 9 479.92 289.81 82.55 o 1
1 -3 9 481.13 407.34 114.39 o -3
-1 3 9 481.13 407.34 114.39 o 1
-1 -2 9 482.37 220.19 138.35 < -3
1 2 9 482.37 220.19 138.35 < 1
0 -3 9 528.65 446.19 149.29 < -3
0 3 9 528.65 446.19 149.29 < 1
loop_
_restr_distance_atom_site_label_1
_restr_distance_site_symmetry_1
_restr_distance_atom_site_label_2
_restr_distance_site_symmetry_2
_restr_distance_target
_restr_distance_target_weight_param
O5 . O7 . 1.8 0.003
O6 . O7 . 1.5 0.01
loop_
_jana_cell_twin_matrix_id
_jana_cell_twin_volume_fraction
_jana_cell_twin_matrix_1_1
_jana_cell_twin_matrix_1_2
_jana_cell_twin_matrix_1_3
_jana_cell_twin_matrix_2_1
_jana_cell_twin_matrix_2_2
_jana_cell_twin_matrix_2_3
_jana_cell_twin_matrix_3_1
_jana_cell_twin_matrix_3_2
_jana_cell_twin_matrix_3_3
1 0.68(6) 1 0 0 0 1 0 0 0 1
2 0.22(5) 1.0385 -0.956 -0.0124 0.0836 -1.0385 0.0224 -0.0385 -0.0124 -0.9989
3 0.10(3) -1 0 0 0 -1 0 0 0 1
