#------------------------------------------------------------------------------
#$Date: 2022-02-02 11:38:40 +0200 (Wed, 02 Feb 2022) $
#$Revision: 272417 $
#$URL: file:///home/coder/svn-repositories/cod/cif/1/56/62/1566254.cif $
#------------------------------------------------------------------------------
#
# This file is available in the Crystallography Open Database (COD),
# http://www.crystallography.net/
#
# All data on this site have been placed in the public domain by the
# contributors.
#
data_1566254
loop_
_publ_author_name
'Jakub Plasil'
'Pavel Skacha'
'Jiri Sejkora'
'Radek Skoda'
'Milan Novak'
'Frantisek Veselovsky'
'Jan Hlousek'
_publ_section_title
;
 Babanekite, Cu3(AsO4)2 . 8H2O, from Jachymov, Czech Republic - a new
 member of the vivianite group
;
_journal_name_full               'Journal of GeoSciences'
_journal_page_first              261
_journal_page_last               270
_journal_paper_doi               10.3190/jgeosci.248
_journal_volume                  62
_journal_year                    2017
_chemical_absolute_configuration .
_chemical_formula_sum            'As2 Co0 Cu2.92 H16 O16 Zn0'
_chemical_formula_weight         607.5
_space_group_IT_number           12
_space_group_name_Hall           '-C 2y'
_space_group_name_H-M_alt        'C 1 2/m 1'
_symmetry_cell_setting           monoclinic
_symmetry_Int_Tables_number      12
_symmetry_space_group_name_Hall  '-C 2y'
_symmetry_space_group_name_H-M   'C 1 2/m 1'
_cell_angle_alpha                90
_cell_angle_beta                 105.399(2)
_cell_angle_gamma                90
_cell_formula_units_Z            2
_cell_length_a                   10.1729(3)
_cell_length_b                   13.5088(4)
_cell_length_c                   4.7496(1)
_cell_measurement_reflns_used    3642
_cell_measurement_temperature    297.0(10)
_cell_measurement_theta_max      31.08
_cell_measurement_theta_min      4.16
_cell_volume                     629.28(3)
_computing_cell_refinement
;
CrysAlisPro, Agilent Technologies,
Version 1.171.36.24 (release 03-12-2012 CrysAlis171 .NET)
(compiled Dec  3 2012,18:21:49)
;
_computing_data_collection
;
CrysAlisPro, Agilent Technologies,
Version 1.171.36.24 (release 03-12-2012 CrysAlis171 .NET)
(compiled Dec  3 2012,18:21:49)
;
_computing_data_reduction
;
CrysAlisPro, Agilent Technologies,
Version 1.171.36.24 (release 03-12-2012 CrysAlis171 .NET)
(compiled Dec  3 2012,18:21:49)
;
_diffrn_ambient_temperature      297
_diffrn_detector_area_resol_mean 10.3784
_diffrn_measured_fraction_theta_full 0.98
_diffrn_measured_fraction_theta_max 0.95
_diffrn_measurement_device       'four-circle diffractometer'
_diffrn_measurement_device_type  'Xcalibur, Atlas, Gemini ultra'
_diffrn_measurement_method       '\w scans'
_diffrn_radiation_monochromator  graphite
_diffrn_radiation_probe          x-ray
_diffrn_radiation_source         'Enhance (Mo) X-ray Source'
_diffrn_radiation_type           'Mo K\a'
_diffrn_radiation_wavelength     0.7107
_diffrn_reflns_av_R_equivalents  0.0325
_diffrn_reflns_av_unetI/netI     0.0214
_diffrn_reflns_limit_h_max       14
_diffrn_reflns_limit_h_min       -13
_diffrn_reflns_limit_k_max       19
_diffrn_reflns_limit_k_min       -18
_diffrn_reflns_limit_l_max       6
_diffrn_reflns_limit_l_min       -6
_diffrn_reflns_number            5722
_diffrn_reflns_theta_full        30.63
_diffrn_reflns_theta_max         31.13
_diffrn_reflns_theta_min         3.02
_exptl_absorpt_coefficient_mu    10.201
_exptl_absorpt_correction_T_max  0.73
_exptl_absorpt_correction_T_min  0.514
_exptl_absorpt_correction_type   analytical
_exptl_absorpt_process_details
;
CrysAlisPro, Agilent Technologies,
Version 1.171.36.24 (release 03-12-2012 CrysAlis171 .NET)
(compiled Dec  3 2012,18:21:49)
Analytical numeric absorption correction using a multifaceted crystal
			model based on expressions derived by R.C. Clark & J.S. Reid.
(Clark, R. C. & Reid, J. S. (1995). Acta Cryst. A51, 887-897)
;
_exptl_crystal_colour
;
;
_exptl_crystal_density_diffrn    3.2062
_exptl_crystal_description
;
;
_exptl_crystal_F_000             589
_exptl_crystal_size_max          0.097
_exptl_crystal_size_mid          0.037
_exptl_crystal_size_min          0.034
_refine_diff_density_max         0.65
_refine_diff_density_min         -0.70
_refine_ls_extinction_method     none
_refine_ls_goodness_of_fit_gt    1.47
_refine_ls_goodness_of_fit_ref   1.40
_refine_ls_hydrogen_treatment    refall
_refine_ls_number_constraints    4
_refine_ls_number_parameters     69
_refine_ls_number_reflns         1005
_refine_ls_number_restraints     6
_refine_ls_R_factor_all          0.0277
_refine_ls_R_factor_gt           0.0218
_refine_ls_shift/su_max          0.0441
_refine_ls_shift/su_mean         0.0049
_refine_ls_structure_factor_coef Fsqd
_refine_ls_weighting_details     w=1/(\s^2^(I)+0.0004I^2^)
_refine_ls_weighting_scheme      sigma
_refine_ls_wR_factor_gt          0.0508
_refine_ls_wR_factor_ref         0.0527
_reflns_number_gt                864
_reflns_number_total             1005
_reflns_threshold_expression     I>3\s(I)
_cod_data_source_file            jgeosci.248_babanekite.cif
_cod_data_source_block           I
_cod_database_code               1566254
loop_
_space_group_symop_id
_space_group_symop_operation_xyz
1 x,y,z
2 -x,y,-z
3 -x,-y,-z
4 x,-y,z
5 x+1/2,y+1/2,z
6 -x+1/2,y+1/2,-z
7 -x+1/2,-y+1/2,-z
8 x+1/2,-y+1/2,z
loop_
_symmetry_equiv_pos_site_id
_symmetry_equiv_pos_as_xyz
1 x,y,z
2 -x,y,-z
3 -x,-y,-z
4 x,-y,z
5 x+1/2,y+1/2,z
6 -x+1/2,y+1/2,-z
7 -x+1/2,-y+1/2,-z
8 x+1/2,-y+1/2,z
loop_
_atom_site_label
_atom_site_type_symbol
_atom_site_fract_x
_atom_site_fract_y
_atom_site_fract_z
_atom_site_adp_type
_atom_site_U_iso_or_equiv
_atom_site_site_symmetry_multiplicity
_atom_site_occupancy
_atom_site_calc_flag
_atom_site_refinement_flags
_atom_site_disorder_assembly
_atom_site_disorder_group
As As 0.18474(3) 0 0.13164(7) Uani 0.00955(11) 4 1 d . . .
Cu1 Cu 0.5 0 0.5 Uani 0.01041(19) 2 0.973(3) d . . .
Cu2 Cu 0 0.11392(3) 0.5 Uani 0.01112(14) 4 0.974(2) d . . .
O1 O 0.3535(2) 0 0.1357(5) Uani 0.0149(7) 4 1 d . . .
O2 O 0.15612(17) 0.10610(12) 0.2920(4) Uani 0.0129(5) 8 1 d . . .
O3 O 0.0978(2) 0 -0.2216(5) Uani 0.0136(7) 4 1 d . . .
O4 O 0.4019(2) 0.11629(16) 0.6978(4) Uani 0.0251(7) 8 1 d . . .
O5 O 0.10118(20) 0.22550(14) 0.7839(4) Uani 0.0215(6) 8 1 d . . .
H5a H 0.044(3) 0.2831(15) 0.778(4) Uiso 0.0258 8 1 d . . .
H4a H 0.381(3) 0.097(2) 0.879(4) Uiso 0.0302 8 1 d . . .
H5b H 0.128(3) 0.2060(18) 0.990(3) Uiso 0.0258 8 1 d . . .
H4b H 0.3132(17) 0.126(2) 0.560(5) Uiso 0.0302 8 1 d . . .
loop_
_atom_site_aniso_label
_atom_site_aniso_type_symbol
_atom_site_aniso_U_11
_atom_site_aniso_U_22
_atom_site_aniso_U_33
_atom_site_aniso_U_12
_atom_site_aniso_U_13
_atom_site_aniso_U_23
As As 0.00547(17) 0.01346(19) 0.00880(17) 0 0.00029(12) 0
Cu1 Cu 0.0053(3) 0.0152(3) 0.0092(3) 0 -0.0006(2) 0
Cu2 Cu 0.0089(2) 0.0129(2) 0.0116(2) 0 0.00284(16) 0
O1 O 0.0068(11) 0.0257(14) 0.0114(11) 0 0.0009(9) 0
O2 O 0.0113(8) 0.0129(8) 0.0144(8) 0.0003(6) 0.0032(7) -0.0027(7)
O3 O 0.0111(12) 0.0164(12) 0.0107(11) 0 -0.0018(9) 0
O4 O 0.0113(9) 0.0418(13) 0.0192(10) -0.0038(8) -0.0014(7) 0.0077(9)
O5 O 0.0236(10) 0.0209(10) 0.0203(9) -0.0002(8) 0.0062(8) -0.0008(8)
loop_
_atom_type_symbol
_atom_type_scat_dispersion_real
_atom_type_scat_dispersion_imag
_atom_type_scat_source
As 0.0499 2.0058 'International Tables Vol C tables 4.2.6.8 and 6.1.1.1'
Co 0.3494 0.9721 'International Tables Vol C tables 4.2.6.8 and 6.1.1.1'
Cu 0.3201 1.2651 'International Tables Vol C tables 4.2.6.8 and 6.1.1.1'
H 0.0000 0.0000 'International Tables Vol C tables 4.2.6.8 and 6.1.1.1'
O 0.0106 0.0060 'International Tables Vol C tables 4.2.6.8 and 6.1.1.1'
Zn 0.2839 1.4301 'International Tables Vol C tables 4.2.6.8 and 6.1.1.1'
loop_
_geom_bond_atom_site_label_1
_geom_bond_atom_site_label_2
_geom_bond_site_symmetry_1
_geom_bond_site_symmetry_2
_geom_bond_distance
As O1 . . 1.712(3)
As O2 . . 1.6844(17)
As O2 . 4_555 1.6844(17)
As O3 . . 1.676(2)
As H4a . 1_554 2.90(3)
As H4a . 4_554 2.90(3)
As H5b . 1_554 2.88(2)
As H5b . 4_554 2.88(2)
As H4b . . 2.70(2)
As H4b . 4_555 2.70(2)
Cu1 O1 . . 1.961(2)
Cu1 O1 . 2_656 1.961(2)
Cu1 O4 . . 2.201(2)
Cu1 O4 . 2_656 2.201(2)
Cu1 O4 . 3_656 2.201(2)
Cu1 O4 . 4_555 2.201(2)
Cu1 H4a . . 2.75(3)
Cu1 H4a . 2_656 2.75(3)
Cu1 H4a . 3_656 2.75(3)
Cu1 H4a . 4_555 2.75(3)
Cu1 H4b . . 2.62(2)
Cu1 H4b . 2_656 2.62(2)
Cu1 H4b . 3_656 2.62(2)
Cu1 H4b . 4_555 2.62(2)
Cu2 O2 . . 2.084(2)
Cu2 O2 . 2_556 2.084(2)
Cu2 O3 . 1_556 2.0994(14)
Cu2 O3 . 2_555 2.0994(14)
Cu2 O5 . . 2.1005(18)
Cu2 O5 . 2_556 2.1005(18)
Cu2 H5a . . 2.62(2)
Cu2 H5a . 2_556 2.62(2)
Cu2 H5b . . 2.658(18)
Cu2 H5b . 2_556 2.658(18)
O1 O2 . . 2.726(3)
O1 O2 . 4_555 2.726(3)
O1 O3 . . 2.703(3)
O1 O4 . 1_554 2.753(3)
O1 O4 . 2_656 2.870(3)
O1 O4 . 3_656 2.870(3)
O1 O4 . 4_554 2.753(3)
O1 H4a . 1_554 1.86(3)
O1 H4a . 4_554 1.86(3)
O1 H4b . . 2.75(3)
O1 H4b . 4_555 2.75(3)
O2 O2 . 4_555 2.867(2)
O2 O3 . . 2.755(3)
O2 O3 . 1_556 2.911(3)
O2 O3 . 2_555 2.894(3)
O2 O4 . . 2.725(2)
O2 O5 . 1_554 2.833(2)
O2 H5b . 1_554 1.93(2)
O2 H4b . . 1.778(17)
O3 O3 . 2_554 2.856(3)
O3 H5b . 1_554 2.95(2)
O3 H5b . 4_554 2.95(2)
O4 O5 . 8_555 2.899(3)
O4 H5a . 7_556 2.82(2)
O4 H5a . 7_557 2.76(2)
O4 H5a . 8_555 1.94(2)
O4 H4a . . 0.98(2)
O4 H4a . 2_657 2.57(2)
O4 H5b . 7_557 2.88(2)
O4 H4b . . 0.973(17)
O5 O5 . 2_556 2.926(2)
O5 H5a . . 0.97(2)
O5 H5a . 2_556 2.80(2)
O5 H5a . 2_557 2.95(3)
O5 H4a . 7_557 2.86(3)
O5 H5b . . 0.982(16)
O5 H5b . 2_557 2.83(3)
O5 H5b . 7_557 2.83(3)
O5 H4b . . 2.97(2)
O5 H4b . 7_556 2.87(3)
H5a H5a . 2_556 2.55(3)
H5a H5a . 2_557 2.49(4)
H5a H4a . 7_557 2.28(3)
H5a H4a . 8_455 2.45(4)
H5a H5b . . 1.54(3)
H5a H5b . 2_557 2.53(4)
H5a H4b . 7_556 2.73(4)
H5a H4b . 8_455 2.61(3)
H4a H4a . 2_657 2.39(3)
H4a H4a . 4_555 2.62(4)
H4a H5b . 7_557 2.74(4)
H4a H4b . . 1.54(3)
H5b H5b . 2_557 2.64(4)
H5b H5b . 7_557 2.72(4)
loop_
_geom_hbond_atom_site_label_D
_geom_hbond_atom_site_label_H
_geom_hbond_atom_site_label_A
_geom_hbond_site_symmetry_D
_geom_hbond_site_symmetry_H
_geom_hbond_site_symmetry_A
_geom_hbond_distance_DH
_geom_hbond_distance_HA
_geom_hbond_distance_DA
_geom_hbond_angle_DHA
O5 H5a O4 . . 8_455 0.97(2) 1.94(2) 2.899(3) 167.7(18)
O4 H4a O1 . . 1_556 0.98(2) 1.86(3) 2.753(3) 151(3)
O5 H5b O2 . . 1_556 0.982(16) 1.93(2) 2.833(2) 151(2)
O4 H4b O2 . . . 0.973(17) 1.778(17) 2.725(2) 164(3)
loop_
_refln_index_h
_refln_index_k
_refln_index_l
_refln_F_squared_calc
_refln_F_squared_meas
_refln_F_squared_sigma
_refln_observed_status
2 0 0 8661.11 10284.60 126.71 o
4 0 0 178.34 338.85 18.31 o
6 0 0 25200.20 28353.90 234.07 o
8 0 0 1151.96 1164.11 68.22 o
10 0 0 13313.00 14143.50 240.26 o
12 0 0 6567.47 6647.82 234.23 o
3 1 0 8121.97 9231.40 72.36 o
5 1 0 12937.50 14567.70 102.38 o
7 1 0 1.86 12.29 13.02 <
9 1 0 1012.29 1110.95 45.74 o
11 1 0 4001.56 4222.67 100.75 o
13 1 0 734.55 760.90 62.16 o
0 2 0 43486.30 42182.90 461.97 o
2 2 0 1183.61 1182.15 20.36 o
4 2 0 1363.99 1389.30 22.87 o
6 2 0 17922.90 19717.90 117.83 o
8 2 0 1064.49 1078.31 37.74 o
10 2 0 2705.82 2811.01 83.45 o
12 2 0 1445.41 1340.43 65.44 o
1 3 0 3392.66 3658.29 30.29 o
3 3 0 26301.40 27277.10 141.78 o
5 3 0 430.30 534.63 17.35 o
7 3 0 13112.00 13422.40 106.78 o
9 3 0 4852.60 5014.52 105.66 o
11 3 0 607.08 533.90 39.87 o
13 3 0 6039.37 5852.30 144.52 o
0 4 0 3732.29 3694.34 61.08 o
2 4 0 9126.24 9263.31 61.16 o
4 4 0 2041.13 2189.03 33.76 o
6 4 0 217.98 253.85 14.76 o
8 4 0 7159.43 7203.40 85.76 o
10 4 0 436.37 445.74 33.53 o
12 4 0 116.10 105.27 27.43 o
1 5 0 2352.90 2199.03 32.10 o
3 5 0 33356.80 32139.00 154.10 o
5 5 0 7464.21 7831.17 70.74 o
7 5 0 20016.80 20543.70 167.09 o
9 5 0 3602.12 3742.90 80.05 o
11 5 0 461.62 419.24 39.71 o
13 5 0 8453.78 8179.95 213.25 o
0 6 0 6144.39 5899.44 92.99 o
2 6 0 3257.51 3095.23 34.34 o
4 6 0 157.85 174.50 11.47 o
6 6 0 4212.32 4351.32 60.38 o
8 6 0 3120.01 3129.96 62.51 o
10 6 0 1148.27 1127.10 48.75 o
12 6 0 81.13 54.24 26.00 <
1 7 0 76.37 106.32 12.01 o
3 7 0 4666.36 4716.05 45.05 o
5 7 0 4910.70 4823.95 55.67 o
7 7 0 1400.32 1420.55 38.94 o
9 7 0 1835.03 1761.95 58.14 o
11 7 0 1480.05 1512.34 73.90 o
13 7 0 1610.11 1560.29 158.86 o
0 8 0 67749.20 66310.70 507.13 o
2 8 0 1689.84 1721.65 34.54 o
4 8 0 1009.38 1028.24 25.54 o
6 8 0 13930.00 14289.70 149.62 o
8 8 0 137.44 142.55 17.93 o
10 8 0 6852.69 6660.46 130.50 o
12 8 0 3365.78 3257.95 128.18 o
1 9 0 6680.89 6528.18 105.27 o
3 9 0 3170.28 3070.77 51.38 o
5 9 0 6107.38 6142.86 74.91 o
7 9 0 105.40 96.66 16.88 o
9 9 0 103.77 76.80 18.66 o
11 9 0 3568.66 3600.23 117.29 o
0 10 0 37281.40 36393.80 427.00 o
2 10 0 226.95 214.80 17.23 o
4 10 0 527.23 525.83 25.85 o
6 10 0 11079.40 11024.20 143.37 o
8 10 0 4.50 24.15 16.38 <
10 10 0 3263.28 3284.49 94.42 o
12 10 0 2286.79 2167.28 192.62 o
1 11 0 27.35 32.10 17.58 <
3 11 0 7153.41 7071.39 116.55 o
5 11 0 1177.76 1135.21 47.02 o
7 11 0 1198.26 1255.78 44.47 o
9 11 0 1993.77 2070.77 69.42 o
11 11 0 569.36 471.43 91.13 o
0 12 0 2428.83 2429.86 90.48 o
2 12 0 2641.25 2695.54 72.67 o
4 12 0 150.09 126.29 20.48 o
6 12 0 1325.22 1249.53 51.38 o
8 12 0 2340.63 2270.12 74.21 o
10 12 0 163.25 130.00 27.47 o
1 13 0 951.89 1022.83 54.97 o
3 13 0 10918.40 11003.90 180.99 o
5 13 0 1405.94 1318.79 54.59 o
7 13 0 6310.81 6442.18 117.40 o
9 13 0 1873.33 1914.89 73.02 o
0 14 0 1273.74 1257.56 97.74 o
2 14 0 1711.10 1823.87 73.40 o
4 14 0 282.79 265.21 31.79 o
6 14 0 119.38 106.16 23.37 o
8 14 0 1853.55 1810.66 70.93 o
1 15 0 310.98 272.86 35.35 o
3 15 0 2710.49 2707.94 92.41 o
5 15 0 145.30 131.31 26.50 o
7 15 0 1744.37 1802.20 79.35 o
9 15 0 860.72 835.35 128.30 o
0 16 0 5211.42 5213.25 208.38 o
2 16 0 6.09 27.12 25.96 <
4 16 0 547.26 532.66 46.28 o
6 16 0 2589.08 2576.32 95.69 o
8 16 0 55.62 53.39 52.27 <
1 17 0 983.76 1059.96 64.67 o
3 17 0 478.26 464.55 44.47 o
5 17 0 1493.13 1519.68 75.99 o
7 17 0 0.41 61.85 70.00 <
0 18 0 8929.18 9670.19 255.82 o
2 18 0 232.62 213.21 32.22 o
4 18 0 264.32 210.43 55.44 o
-14 0 1 5594.48 5145.95 293.84 o
-12 0 1 507.45 457.87 61.08 o
-10 0 1 9213.79 9484.64 240.83 o
-8 0 1 11307.00 11613.50 243.19 o
-6 0 1 494.48 567.59 36.04 o
-4 0 1 68225.10 66926.40 756.23 o
-2 0 1 18356.40 18405.90 231.83 o
0 0 1 4469.13 4833.99 48.87 o
2 0 1 63809.10 68072.60 398.92 o
4 0 1 1302.68 1295.69 30.60 o
6 0 1 9459.25 10517.90 124.59 o
8 0 1 20387.40 22209.30 291.95 o
10 0 1 9.43 46.09 32.80 <
12 0 1 5596.36 5540.16 219.12 o
-13 1 1 1001.19 907.74 55.79 o
-11 1 1 522.22 471.86 40.60 o
-9 1 1 1600.20 1716.44 65.40 o
-7 1 1 2744.46 2827.89 72.55 o
-5 1 1 2258.69 2453.74 44.93 o
-3 1 1 22951.70 22604.50 164.38 o
-1 1 1 8006.71 7792.27 50.76 o
1 1 1 6002.99 6267.02 47.36 o
3 1 1 29.98 39.44 5.95 o
5 1 1 8127.20 8834.65 65.44 o
7 1 1 16721.80 17830.30 130.65 o
9 1 1 93.21 103.26 27.51 o
11 1 1 2095.83 2106.86 82.63 o
13 1 1 1404.79 1561.68 115.47 o
-14 2 1 2922.51 2864.86 220.90 o
-12 2 1 591.75 642.34 46.98 o
-10 2 1 2530.38 2592.77 76.84 o
-8 2 1 7667.84 7532.39 110.57 o
-6 2 1 1892.79 2008.30 40.49 o
-4 2 1 14615.30 15147.80 122.62 o
-2 2 1 1444.09 1420.74 19.28 o
0 2 1 222.61 227.47 7.73 o
2 2 1 36018.90 37293.90 166.24 o
4 2 1 12.15 18.97 7.38 <
6 2 1 838.26 851.34 24.22 o
8 2 1 5992.57 6256.90 91.44 o
10 2 1 547.39 615.96 41.61 o
12 2 1 2906.93 3060.26 103.73 o
-13 3 1 753.01 699.79 57.25 o
-11 3 1 8843.06 8804.86 175.31 o
-9 3 1 167.23 169.09 17.31 o
-7 3 1 7856.44 8072.12 98.59 o
-5 3 1 12024.30 11843.00 102.18 o
-3 3 1 1615.28 1677.42 25.77 o
-1 3 1 41015.80 39628.50 213.02 o
1 3 1 707.12 680.47 16.11 o
3 3 1 2126.68 2070.16 25.96 o
5 3 1 25960.90 27410.80 160.71 o
7 3 1 17.54 56.98 18.08 o
9 3 1 4161.31 4376.35 96.23 o
11 3 1 3778.80 3756.11 98.05 o
13 3 1 88.24 27.08 61.81 <
-14 4 1 1873.41 1813.25 177.90 o
-12 4 1 2749.74 2717.94 100.25 o
-10 4 1 125.21 133.05 20.36 o
-8 4 1 21.74 13.41 12.75 <
-6 4 1 25617.50 25760.90 179.25 o
-4 4 1 7048.42 7251.88 60.19 o
-2 4 1 9412.13 10267.50 64.09 o
0 4 1 28228.60 27865.30 178.17 o
2 4 1 4983.59 5805.98 51.84 o
4 4 1 6799.02 6832.29 58.84 o
6 4 1 49.08 46.17 10.82 o
8 4 1 1367.09 1409.89 56.36 o
10 4 1 4084.41 4129.49 98.13 o
12 4 1 12.02 48.60 31.83 <
-13 5 1 1055.65 947.42 64.98 o
-11 5 1 10659.90 10433.80 194.67 o
-9 5 1 36.21 51.96 14.95 o
-7 5 1 14475.70 14000.30 129.34 o
-5 5 1 19785.50 19872.10 125.75 o
-3 5 1 389.84 348.66 12.32 o
-1 5 1 35403.10 32375.80 181.26 o
1 5 1 11066.10 10859.30 91.37 o
3 5 1 6814.76 7196.21 63.63 o
5 5 1 22735.20 24325.30 167.97 o
7 5 1 287.98 291.83 20.55 o
9 5 1 5806.89 6005.02 122.54 o
11 5 1 4755.63 4691.98 122.58 o
-14 6 1 2028.22 2010.04 185.09 o
-12 6 1 1895.24 1809.15 82.48 o
-10 6 1 301.85 286.07 27.43 o
-8 6 1 2661.50 2608.77 58.64 o
-6 6 1 7918.06 7823.64 84.60 o
-4 6 1 5023.06 4927.75 50.45 o
-2 6 1 1941.04 2006.30 29.05 o
0 6 1 5533.34 5517.36 69.11 o
2 6 1 3911.85 3852.54 50.07 o
4 6 1 650.89 607.88 19.93 o
6 6 1 59.18 77.07 15.72 o
8 6 1 1651.76 1732.59 55.21 o
10 6 1 1313.09 1357.85 61.04 o
12 6 1 994.49 1042.19 97.12 o
-13 7 1 21.94 9.43 33.92 <
-11 7 1 2264.08 2254.90 88.08 o
-9 7 1 1498.70 1424.22 54.86 o
-7 7 1 1588.03 1704.00 44.97 o
-5 7 1 609.53 611.51 23.84 o
-3 7 1 2348.81 2290.51 35.50 o
-1 7 1 9793.23 9545.37 87.93 o
1 7 1 1058.94 1024.45 26.77 o
3 7 1 141.38 144.64 13.64 o
5 7 1 8144.65 7909.83 93.76 o
7 7 1 2621.83 2638.32 64.86 o
9 7 1 369.48 380.64 29.32 o
11 7 1 1349.42 1260.30 64.59 o
-12 8 1 53.93 83.29 30.98 <
-10 8 1 4677.58 4600.35 105.93 o
-8 8 1 7831.15 7864.67 108.90 o
-6 8 1 11.87 17.69 12.94 <
-4 8 1 22808.80 22136.90 143.71 o
-2 8 1 6698.32 6761.52 63.67 o
0 8 1 1495.35 1384.24 30.98 o
2 8 1 28789.20 27931.30 190.15 o
4 8 1 651.19 633.42 26.12 o
6 8 1 3852.32 3915.16 75.87 o
8 8 1 9873.58 10122.10 122.85 o
10 8 1 2.24 29.05 26.08 <
-13 9 1 1268.10 1127.99 141.43 o
-11 9 1 38.78 27.00 25.69 <
-9 9 1 1194.84 1229.24 54.97 o
-7 9 1 1288.54 1200.89 42.03 o
-5 9 1 1890.52 1851.30 38.01 o
-3 9 1 15353.20 14787.40 114.66 o
-1 9 1 1426.59 1370.37 34.85 o
1 9 1 2878.20 2785.12 51.69 o
3 9 1 223.09 227.62 17.27 o
5 9 1 2339.54 2277.46 50.03 o
7 9 1 12666.10 12633.20 143.98 o
9 9 1 321.45 300.83 25.73 o
11 9 1 1162.16 966.35 84.64 o
-12 10 1 30.28 30.60 33.49 <
-10 10 1 2898.11 2801.39 87.08 o
-8 10 1 4099.80 4334.86 84.84 o
-6 10 1 22.37 0.70 12.13 <
-4 10 1 14972.80 14610.40 134.48 o
-2 10 1 2538.65 2450.26 47.32 o
0 10 1 291.71 280.86 16.77 o
2 10 1 19155.30 18474.30 164.73 o
4 10 1 44.70 83.25 14.87 o
6 10 1 1954.66 2029.40 53.24 o
8 10 1 7144.21 7184.50 104.46 o
10 10 1 75.04 51.46 32.37 <
-11 11 1 2027.47 1975.31 106.12 o
-9 11 1 386.94 379.18 32.03 o
-7 11 1 1607.75 1646.01 45.66 o
-5 11 1 672.37 658.95 31.02 o
-3 11 1 86.09 81.86 16.92 o
-1 11 1 9684.13 9454.54 124.09 o
1 11 1 563.01 531.00 42.80 o
3 11 1 1.12 17.93 14.06 <
5 11 1 7772.62 7646.28 107.78 o
7 11 1 748.26 731.89 36.28 o
9 11 1 611.70 565.69 40.91 o
-10 12 1 12.68 55.71 25.46 <
-8 12 1 209.47 180.72 24.11 o
-6 12 1 4475.88 4449.21 81.44 o
-4 12 1 1791.65 1723.20 59.26 o
-2 12 1 29.50 47.32 18.62 <
0 12 1 3191.38 3077.11 101.87 o
2 12 1 1034.35 1006.26 52.00 o
4 12 1 1683.74 1589.14 47.25 o
6 12 1 3.84 13.83 16.57 <
8 12 1 870.70 888.70 56.02 o
10 12 1 1407.62 1270.27 151.79 o
-11 13 1 4486.72 4427.50 273.86 o
-9 13 1 62.27 57.76 25.30 <
-7 13 1 5625.34 5737.33 109.25 o
-5 13 1 5638.08 5795.90 117.98 o
-3 13 1 57.95 49.06 21.83 <
-1 13 1 10650.10 10800.20 183.23 o
1 13 1 2660.51 2721.03 99.01 o
3 13 1 2391.43 2368.94 80.86 o
5 13 1 8556.64 8576.78 145.91 o
7 13 1 41.91 42.57 20.17 <
9 13 1 2370.60 2286.38 114.12 o
-10 14 1 8.88 103.73 66.25 <
-8 14 1 113.65 101.91 28.59 o
-6 14 1 4693.23 4682.79 111.14 o
-4 14 1 944.21 795.17 50.76 o
-2 14 1 213.28 161.99 28.86 o
0 14 1 3378.99 3495.73 104.00 o
2 14 1 42.68 36.47 22.37 <
4 14 1 1180.83 1122.81 53.35 o
6 14 1 4.64 2.74 22.75 <
8 14 1 284.30 237.28 46.09 o
-9 15 1 256.41 263.24 55.09 o
-7 15 1 1274.55 1203.13 66.45 o
-5 15 1 1652.85 1671.93 67.84 o
-3 15 1 152.98 152.37 28.78 o
-1 15 1 3947.03 4113.89 117.52 o
1 15 1 130.09 124.78 28.24 o
3 15 1 48.49 57.18 24.49 <
5 15 1 3064.14 3104.69 91.60 o
7 15 1 54.93 65.83 35.89 <
-8 16 1 2250.68 2233.61 117.29 o
-6 16 1 168.43 151.52 28.82 o
-4 16 1 2815.30 2957.73 102.30 o
-2 16 1 799.20 757.89 54.16 o
0 16 1 0.38 -1.85 25.03 <
2 16 1 4539.30 4765.92 127.83 o
4 16 1 68.37 34.77 26.85 <
6 16 1 381.30 372.73 47.05 o
-7 17 1 160.38 228.16 81.90 <
-5 17 1 122.82 107.24 26.73 o
-3 17 1 2647.68 2661.11 99.09 o
-1 17 1 373.80 374.93 42.53 o
1 17 1 610.99 646.67 46.55 o
3 17 1 224.53 231.56 37.24 o
5 17 1 496.32 579.49 64.40 o
-4 18 1 4614.26 5018.85 220.90 o
-2 18 1 1294.16 1369.02 82.75 o
0 18 1 187.40 139.81 30.02 o
2 18 1 4183.51 4451.26 167.78 o
4 18 1 45.32 4.64 41.76 <
1 19 1 428.12 333.17 80.70 o
-14 0 2 543.77 400.54 89.90 o
-12 0 2 7802.07 7861.07 246.82 o
-10 0 2 38.56 70.31 34.54 <
-8 0 2 8531.52 7741.89 112.50 o
-6 0 2 41308.80 41790.00 550.63 o
-4 0 2 11235.20 12217.10 142.79 o
-2 0 2 11592.10 10390.60 104.46 o
0 0 2 40.23 122.16 7.46 o
2 0 2 12607.60 13600.00 102.57 o
4 0 2 60469.10 63504.90 383.46 o
6 0 2 963.94 1040.83 51.61 o
8 0 2 3081.34 3171.53 128.92 o
10 0 2 6328.05 6567.31 211.43 o
12 0 2 62.04 19.70 56.60 <
-13 1 2 810.07 688.89 56.17 o
-11 1 2 344.18 325.75 36.55 o
-9 1 2 881.71 809.35 47.36 o
-7 1 2 5492.08 5516.20 89.78 o
-5 1 2 1137.20 1204.09 28.70 o
-3 1 2 975.72 989.76 23.10 o
-1 1 2 10547.30 10108.00 58.06 o
1 1 2 8136.44 8281.32 56.25 o
3 1 2 4166.36 4205.56 45.93 o
5 1 2 1774.24 1813.91 33.84 o
7 1 2 2955.89 2963.57 65.64 o
9 1 2 3826.63 4196.75 113.19 o
11 1 2 64.52 110.61 33.96 o
-14 2 2 18.49 32.30 45.24 <
-12 2 2 5725.47 5378.63 142.40 o
-10 2 2 226.88 214.53 29.75 o
-8 2 2 1645.36 1595.13 51.42 o
-6 2 2 7297.54 7039.09 90.13 o
-4 2 2 617.19 617.58 19.35 o
-2 2 2 15259.20 14643.90 78.04 o
0 2 2 2251.56 2125.75 25.92 o
2 2 2 118.83 124.98 8.42 o
4 2 2 13445.50 13493.10 94.11 o
6 2 2 605.82 604.17 28.28 o
8 2 2 1325.73 1385.13 61.16 o
10 2 2 4311.40 4495.77 123.86 o
12 2 2 832.05 646.51 107.59 o
-13 3 2 56.63 75.60 29.79 <
-11 3 2 2697.71 2732.62 73.56 o
-9 3 2 10250.00 10230.40 130.46 o
-7 3 2 964.94 957.70 33.22 o
-5 3 2 15048.10 14700.40 114.43 o
-3 3 2 14408.10 14152.60 88.82 o
-1 3 2 3.70 21.67 5.64 o
1 3 2 36812.90 36548.90 215.84 o
3 3 2 2091.98 2015.61 34.54 o
5 3 2 13.67 13.06 9.77 <
7 3 2 12001.50 12663.30 180.45 o
9 3 2 240.72 290.67 36.93 o
11 3 2 2208.33 2225.50 90.17 o
-14 4 2 476.88 319.18 86.58 o
-12 4 2 1464.25 1379.76 72.55 o
-10 4 2 7651.31 7253.81 104.08 o
-8 4 2 187.04 188.49 20.17 o
-6 4 2 1771.88 1658.99 39.60 o
-4 4 2 15951.10 15393.00 122.70 o
-2 4 2 348.23 320.07 11.01 o
0 4 2 1445.66 1307.44 23.45 o
2 4 2 10143.90 10191.10 79.47 o
4 4 2 2170.21 2185.16 40.80 o
6 4 2 3115.21 3194.32 76.65 o
8 4 2 383.71 424.34 37.82 o
10 4 2 336.26 293.49 36.58 o
-13 5 2 233.37 195.48 36.62 o
-11 5 2 6418.63 6107.24 144.83 o
-9 5 2 15061.80 14890.10 168.36 o
-7 5 2 1476.01 1393.90 44.31 o
-5 5 2 13216.60 12847.30 111.88 o
-3 5 2 23839.00 24088.10 111.92 o
-1 5 2 1928.29 2042.42 31.76 o
1 5 2 45017.80 44663.30 248.56 o
3 5 2 3130.05 3021.67 44.39 o
5 5 2 24.21 49.22 13.37 o
7 5 2 14098.50 14620.10 190.69 o
9 5 2 2161.18 2124.74 81.09 o
11 5 2 3353.10 3476.53 145.84 o
-12 6 2 2957.81 2820.74 105.08 o
-10 6 2 2377.64 2382.65 73.29 o
-8 6 2 198.49 219.97 22.10 o
-6 6 2 2854.99 2827.81 49.80 o
-4 6 2 6607.77 6426.96 66.14 o
-2 6 2 4866.31 4820.09 52.50 o
0 6 2 464.53 460.92 16.07 o
2 6 2 2519.65 2517.52 45.82 o
4 6 2 4091.13 3999.30 58.61 o
6 6 2 1148.91 1278.42 45.70 o
8 6 2 49.78 83.21 24.96 o
10 6 2 1501.71 1612.32 86.88 o
-13 7 2 266.93 248.56 43.62 o
-11 7 2 0.92 4.06 23.41 <
-9 7 2 1812.97 1785.90 54.86 o
-7 7 2 2332.29 2372.65 54.16 o
-5 7 2 5541.41 5399.07 67.80 o
-3 7 2 725.03 706.62 21.44 o
-1 7 2 6945.68 7011.70 71.01 o
1 7 2 8452.21 8096.85 86.23 o
3 7 2 5.36 10.39 11.78 <
5 7 2 217.51 220.82 17.69 o
7 7 2 3498.57 3555.73 80.86 o
9 7 2 1076.08 1148.00 70.08 o
11 7 2 256.33 238.63 61.08 o
-12 8 2 5307.37 5118.68 143.87 o
-10 8 2 1.38 -3.28 20.63 <
-8 8 2 4275.54 4290.20 77.77 o
-6 8 2 16608.50 17218.10 147.42 o
-4 8 2 1669.49 1537.38 34.73 o
-2 8 2 10538.00 10011.10 105.04 o
0 8 2 1051.53 971.76 28.59 o
2 8 2 2894.14 2930.03 58.80 o
4 8 2 25084.20 25083.90 242.69 o
6 8 2 276.05 269.08 24.11 o
8 8 2 1758.54 1941.86 75.72 o
10 8 2 4163.88 4119.02 134.32 o
-11 9 2 328.36 251.42 43.89 o
-9 9 2 317.06 330.23 31.33 o
-7 9 2 4851.85 4838.63 74.06 o
-5 9 2 6.87 15.53 12.52 <
-3 9 2 948.58 928.26 34.27 o
-1 9 2 4554.94 4375.35 79.39 o
1 9 2 2870.52 2759.28 62.89 o
3 9 2 4557.66 4345.14 77.26 o
5 9 2 2304.18 2377.05 62.24 o
7 9 2 1184.36 1211.74 57.29 o
9 9 2 2701.38 2558.35 101.25 o
-12 10 2 3885.12 3484.56 173.50 o
-10 10 2 17.66 8.19 22.52 <
-8 10 2 2272.82 2255.13 56.75 o
-6 10 2 7883.06 8185.24 107.86 o
-4 10 2 358.24 329.61 23.33 o
-2 10 2 7608.55 7421.55 112.92 o
0 10 2 660.67 615.72 25.54 o
2 10 2 1347.33 1305.89 42.46 o
4 10 2 14080.90 14257.00 162.80 o
6 10 2 1.81 -3.32 20.63 <
8 10 2 1435.30 1410.70 63.98 o
10 10 2 3455.18 3310.10 157.12 o
-11 11 2 85.43 92.10 35.04 <
-9 11 2 2053.10 2051.80 78.89 o
-7 11 2 495.38 513.62 33.19 o
-5 11 2 3213.31 3251.03 75.49 o
-3 11 2 944.88 942.36 37.43 o
-1 11 2 881.07 892.72 38.71 o
1 11 2 6787.40 6707.32 116.63 o
3 11 2 0.75 -16.96 15.96 <
5 11 2 1.73 1.08 17.08 <
7 11 2 3543.42 3528.10 97.35 o
9 11 2 376.07 559.86 80.55 o
-10 12 2 1405.89 1399.50 70.12 o
-8 12 2 3.29 11.82 23.02 <
-6 12 2 444.23 450.30 31.79 o
-4 12 2 3348.18 3439.83 79.81 o
-2 12 2 1103.00 1144.99 50.61 o
0 12 2 80.03 72.05 14.68 o
2 12 2 1604.79 1542.67 52.58 o
4 12 2 1339.28 1372.49 50.03 o
6 12 2 1358.82 1290.32 63.28 o
8 12 2 0.80 14.41 27.16 <
-9 13 2 6186.03 6251.84 149.16 o
-7 13 2 226.21 250.45 31.18 o
-5 13 2 4496.48 4817.03 99.59 o
-3 13 2 6381.91 6529.61 115.28 o
-1 13 2 647.21 610.70 40.60 o
1 13 2 13598.00 13350.50 190.50 o
3 13 2 893.25 950.90 49.80 o
5 13 2 37.17 57.49 28.39 <
7 13 2 5886.35 5926.90 159.40 o
-10 14 2 2401.67 2379.14 215.84 o
-8 14 2 3.54 11.98 27.62 <
-6 14 2 659.40 639.13 44.62 o
-4 14 2 3471.62 3438.44 95.69 o
-2 14 2 277.53 260.77 36.16 o
0 14 2 186.20 113.58 28.16 o
2 14 2 2164.11 2165.73 82.17 o
4 14 2 979.53 955.77 60.15 o
6 14 2 627.46 688.47 52.27 o
-9 15 2 1744.80 1760.48 129.26 o
-7 15 2 554.92 571.30 48.41 o
-5 15 2 2670.44 2778.17 89.55 o
-3 15 2 1618.62 1731.12 79.24 o
-1 15 2 678.07 563.14 47.52 o
1 15 2 4075.96 4362.10 111.84 o
3 15 2 283.90 290.90 38.79 o
5 15 2 2.44 -9.77 26.00 <
-6 16 2 2297.41 2423.37 97.24 o
-4 16 2 97.05 90.28 31.22 <
-2 16 2 2823.32 3105.70 109.95 o
0 16 2 613.68 595.13 52.42 o
2 16 2 6.20 -12.71 22.75 <
4 16 2 3398.82 3363.92 150.09 o
-5 17 2 17.62 51.34 53.08 <
-3 17 2 61.08 83.14 29.24 <
-1 17 2 1487.79 1529.15 80.36 o
1 17 2 663.81 744.37 51.69 o
3 17 2 736.77 936.18 104.31 o
-4 18 2 296.82 361.29 91.37 o
-2 18 2 2183.23 2154.91 195.87 o
0 18 2 222.45 157.35 44.04 o
-12 0 3 141.79 108.32 42.15 <
-10 0 3 13493.20 13411.50 308.67 o
-8 0 3 2602.16 2498.01 112.11 o
-6 0 3 9299.53 9029.78 199.85 o
-4 0 3 14731.00 14327.40 155.77 o
-2 0 3 1047.02 1048.56 26.97 o
0 0 3 26072.30 25649.80 208.46 o
2 0 3 7369.75 6974.61 93.53 o
4 0 3 3211.25 3304.19 90.36 o
6 0 3 16389.10 16541.40 298.28 o
8 0 3 45.90 78.46 34.31 <
10 0 3 2143.09 1970.17 120.11 o
-13 1 3 2404.91 2365.65 102.18 o
-11 1 3 2286.42 2248.83 88.93 o
-9 1 3 2200.51 2057.60 76.49 o
-7 1 3 1920.18 1803.98 62.93 o
-5 1 3 3777.54 3721.42 70.31 o
-3 1 3 853.42 833.49 18.58 o
-1 1 3 32.77 35.89 5.87 o
1 1 3 9102.73 9000.61 66.95 o
3 1 3 535.61 525.90 20.98 o
5 1 3 657.36 720.22 35.81 o
7 1 3 23.00 23.76 23.37 <
9 1 3 985.85 1078.93 64.25 o
-14 2 3 143.24 131.89 80.24 <
-12 2 3 2.05 17.96 24.11 <
-10 2 3 5228.17 5049.95 110.10 o
-8 2 3 318.24 314.89 27.78 o
-6 2 3 2896.20 2901.64 67.65 o
-4 2 3 7056.48 7075.14 66.68 o
-2 2 3 474.41 431.76 13.79 o
0 2 3 10893.00 10649.80 69.89 o
2 2 3 188.72 192.31 12.13 o
4 2 3 78.39 70.77 12.48 o
6 2 3 10158.10 10463.50 159.09 o
8 2 3 158.29 186.94 31.33 o
10 2 3 183.68 145.91 40.64 o
-13 3 3 4951.47 4670.62 126.52 o
-11 3 3 0.05 17.11 19.78 <
-9 3 3 2865.05 2725.36 76.69 o
-7 3 3 14057.50 14086.60 175.31 o
-5 3 3 1026.75 1041.99 31.91 o
-3 3 3 11117.90 10905.30 73.36 o
-1 3 3 11887.50 11603.90 96.12 o
1 3 3 5.34 9.54 8.54 <
3 3 3 14915.90 14869.10 116.98 o
5 3 3 652.66 600.93 36.55 o
7 3 3 344.43 334.29 35.97 o
9 3 3 5970.33 6033.80 165.42 o
-12 4 3 1232.08 1167.39 62.28 o
-10 4 3 1503.13 1498.74 54.09 o
-8 4 3 2671.44 2578.98 71.43 o
-6 4 3 1.11 51.54 16.65 o
-4 4 3 2070.50 2128.45 33.30 o
-2 4 3 20886.00 20871.10 150.82 o
0 4 3 7937.27 7703.45 72.09 o
2 4 3 58.32 61.12 9.35 o
4 4 3 7326.56 7239.94 90.09 o
6 4 3 572.65 570.79 36.70 o
8 4 3 2817.33 2828.01 107.09 o
10 4 3 149.71 143.60 46.40 o
-13 5 3 6499.01 6306.66 239.33 o
-11 5 3 142.84 117.36 26.93 o
-9 5 3 4051.71 3961.48 94.77 o
-7 5 3 13217.50 13146.90 172.80 o
-5 5 3 171.91 143.17 15.80 o
-3 5 3 22317.90 21952.80 175.78 o
-1 5 3 16627.60 15786.20 156.89 o
1 5 3 46.97 46.78 10.43 o
3 5 3 16828.40 16772.50 131.16 o
5 5 3 2487.40 2362.68 61.00 o
7 5 3 1031.90 1016.26 72.98 o
9 5 3 7377.52 7402.47 186.01 o
-12 6 3 96.79 138.61 43.38 o
-10 6 3 2144.33 2188.56 65.52 o
-8 6 3 1983.44 1918.41 61.66 o
-6 6 3 753.62 733.47 32.84 o
-4 6 3 901.50 943.64 39.06 o
-2 6 3 5321.30 5094.26 77.26 o
0 6 3 6875.11 6428.55 72.51 o
2 6 3 0.10 -8.65 14.37 <
4 6 3 2364.54 2351.32 66.22 o
6 6 3 4215.48 4409.04 117.79 o
8 6 3 650.77 666.33 55.79 o
10 6 3 22.37 3.01 69.42 <
-11 7 3 726.56 624.69 59.53 o
-9 7 3 8.86 -14.10 20.09 <
-7 7 3 3683.22 3770.41 83.87 o
-5 7 3 3102.36 3109.29 74.99 o
-3 7 3 1965.39 1933.47 45.90 o
-1 7 3 1244.64 1246.94 37.78 o
1 7 3 2313.54 2268.15 40.18 o
3 7 3 3560.31 3559.82 78.39 o
5 7 3 92.99 77.77 26.89 <
7 7 3 11.07 -11.86 28.16 <
9 7 3 1863.61 1945.60 110.49 o
-12 8 3 152.30 113.69 38.40 <
-10 8 3 7315.13 7273.71 166.93 o
-8 8 3 520.73 484.45 35.31 o
-6 8 3 5118.26 5175.47 84.30 o
-4 8 3 8510.63 8728.33 109.95 o
-2 8 3 166.54 135.87 15.61 o
0 8 3 13554.50 13095.00 143.94 o
2 8 3 2671.92 2637.82 52.54 o
4 8 3 798.52 787.14 36.31 o
6 8 3 10348.60 10315.50 189.65 o
8 8 3 29.36 12.36 41.26 <
-11 9 3 1834.79 1795.21 100.52 o
-9 9 3 2734.84 2820.09 80.32 o
-7 9 3 304.76 312.54 27.08 o
-5 9 3 2536.49 2594.74 60.07 o
-3 9 3 377.08 370.95 23.76 o
-1 9 3 77.75 84.72 15.76 o
1 9 3 7690.55 7298.55 90.52 o
3 9 3 38.50 33.26 15.88 <
5 9 3 625.39 572.46 38.25 o
7 9 3 18.48 71.55 34.88 <
9 9 3 327.98 438.75 73.83 o
-10 10 3 5216.86 5031.98 127.14 o
-8 10 3 226.48 209.50 26.23 o
-6 10 3 2452.25 2585.20 63.90 o
-4 10 3 5159.66 5362.91 90.67 o
-2 10 3 33.56 39.91 16.42 <
0 10 3 7665.84 7408.57 101.37 o
2 10 3 1313.15 1239.25 38.90 o
4 10 3 467.01 459.49 31.22 o
6 10 3 6532.93 6463.89 152.02 o
8 10 3 7.48 60.58 47.90 <
-11 11 3 156.42 202.94 81.44 <
-9 11 3 119.80 93.34 30.25 o
-7 11 3 4222.26 4373.26 86.85 o
-5 11 3 922.39 948.89 40.18 o
-3 11 3 1009.82 1059.11 45.01 o
-1 11 3 1482.24 1524.67 62.93 o
1 11 3 139.49 127.64 19.16 o
3 11 3 3359.45 3331.66 86.27 o
5 11 3 19.23 35.62 26.39 <
7 11 3 36.58 50.96 36.82 <
-10 12 3 901.54 855.75 87.81 o
-8 12 3 986.58 1013.95 59.88 o
-6 12 3 23.18 22.10 21.44 <
-4 12 3 37.11 77.50 25.07 o
-2 12 3 3527.53 3570.83 99.75 o
0 12 3 1763.60 1745.72 60.34 o
2 12 3 19.04 17.85 18.31 <
4 12 3 1351.43 1229.59 70.16 o
6 12 3 953.25 903.15 72.36 o
-9 13 3 1446.88 1669.27 126.06 o
-7 13 3 5178.31 5290.44 120.88 o
-5 13 3 0.32 15.26 22.87 <
-3 13 3 7542.36 7735.44 155.49 o
-1 13 3 5111.42 5178.63 142.28 o
1 13 3 5.84 2.86 21.33 <
3 13 3 6189.94 5878.73 185.05 o
5 13 3 1107.28 1093.76 81.90 o
-8 14 3 1132.97 1231.68 115.47 o
-6 14 3 27.08 34.19 27.08 <
-4 14 3 31.08 100.75 29.13 o
-2 14 3 4247.68 4064.44 130.23 o
0 14 3 1645.47 1675.76 101.33 o
2 14 3 3.75 30.71 33.03 <
4 14 3 1920.18 1873.83 95.31 o
-7 15 3 2046.28 2300.67 239.83 o
-5 15 3 572.53 574.62 60.88 o
-3 15 3 2048.59 2130.54 107.01 o
-1 15 3 1315.33 1428.43 87.43 o
1 15 3 292.37 249.18 42.80 o
3 15 3 2743.69 2737.45 139.19 o
-6 16 3 1073.08 885.88 135.87 o
-4 16 3 1757.13 1785.16 134.44 o
-2 16 3 75.03 77.38 37.71 <
0 16 3 2785.43 2985.70 128.57 o
-12 0 4 1960.07 1881.71 98.24 o
-10 0 4 1841.76 1826.00 111.96 o
-8 0 4 12002.40 11770.30 271.47 o
-6 0 4 298.28 265.56 41.41 o
-4 0 4 7742.83 7763.76 115.74 o
-2 0 4 30620.20 30395.60 368.98 o
0 0 4 1267.47 1255.17 43.65 o
2 0 4 7043.69 7156.07 152.29 o
4 0 4 1540.01 1434.85 82.25 o
6 0 4 778.75 607.57 51.57 o
8 0 4 9354.02 8656.90 328.84 o
-11 1 4 2036.93 2056.63 76.69 o
-9 1 4 2079.49 2037.43 70.35 o
-7 1 4 1396.19 1328.10 52.12 o
-5 1 4 2805.94 2697.12 61.73 o
-3 1 4 3498.53 3440.91 53.97 o
-1 1 4 12.97 -2.20 10.59 <
1 1 4 13.56 26.46 12.90 <
3 1 4 2452.37 2283.72 70.39 o
5 1 4 1637.46 1670.85 59.76 o
7 1 4 687.78 642.19 54.24 o
-12 2 4 1.98 18.47 24.07 <
-10 2 4 13.96 5.14 18.66 <
-8 2 4 6474.70 6418.93 121.96 o
-6 2 4 603.48 569.36 30.71 o
-4 2 4 2752.37 2656.87 48.14 o
-2 2 4 5317.93 5360.94 67.26 o
0 2 4 1784.85 1710.18 36.51 o
2 2 4 6049.08 5835.89 87.39 o
4 2 4 1049.23 962.80 44.43 o
6 2 4 101.88 79.39 33.80 <
8 2 4 3265.12 3321.73 123.47 o
-11 3 4 5242.28 5179.79 124.43 o
-9 3 4 191.69 165.42 24.61 o
-7 3 4 2287.28 2240.83 68.26 o
-5 3 4 9423.27 9533.01 107.36 o
-3 3 4 145.46 142.86 14.22 o
-1 3 4 7084.64 7008.77 85.11 o
1 3 4 3291.62 3247.55 51.92 o
3 3 4 50.50 42.26 14.22 <
5 3 4 10236.90 9835.88 165.12 o
7 3 4 34.72 20.55 30.48 <
-12 4 4 670.73 684.76 56.75 o
-10 4 4 275.31 241.96 30.44 o
-8 4 4 463.63 445.74 33.96 o
-6 4 4 7863.83 7884.14 110.10 o
-4 4 4 5.94 -0.19 10.97 <
-2 4 4 170.40 165.42 15.99 o
0 4 4 7482.60 7300.87 85.80 o
2 4 4 1802.71 1778.71 44.81 o
4 4 4 551.04 615.07 41.61 o
6 4 4 3542.39 3627.39 134.60 o
8 4 4 1169.13 1103.73 99.44 o
-11 5 4 4394.27 4377.59 115.32 o
-9 5 4 762.24 670.43 44.43 o
-7 5 4 6546.85 6642.68 114.24 o
-5 5 4 12457.90 12542.70 168.48 o
-3 5 4 52.74 48.41 12.52 o
-1 5 4 7729.56 7926.17 123.20 o
1 5 4 4536.74 4506.93 75.37 o
3 5 4 957.15 895.42 37.74 o
5 5 4 14566.40 14370.90 265.95 o
7 5 4 78.53 12.44 42.65 <
-12 6 4 147.31 160.67 65.91 <
-10 6 4 27.68 49.60 25.03 <
-8 6 4 2018.44 1996.25 70.43 o
-6 6 4 2310.75 2492.21 72.82 o
-4 6 4 786.98 713.31 38.52 o
-2 6 4 866.01 883.99 42.73 o
0 6 4 3902.99 3788.72 88.78 o
2 6 4 3795.03 3680.12 73.21 o
4 6 4 21.65 41.80 18.93 <
6 6 4 1205.63 1240.14 81.55 o
8 6 4 1857.10 1898.74 131.74 o
-11 7 4 2567.19 2521.96 120.34 o
-9 7 4 308.37 286.92 29.90 o
-7 7 4 92.18 128.38 21.25 o
-5 7 4 1908.74 1964.96 64.55 o
-3 7 4 1184.67 1209.46 51.61 o
-1 7 4 2060.62 2077.03 66.80 o
1 7 4 239.95 207.07 19.82 o
3 7 4 1375.36 1348.12 46.90 o
5 7 4 2719.37 2790.61 97.59 o
7 7 4 105.35 97.01 68.80 <
-12 8 4 893.17 874.75 132.70 o
-10 8 4 881.02 869.31 53.00 o
-8 8 4 6972.46 7158.81 130.11 o
-6 8 4 114.64 128.07 22.72 o
-4 8 4 4291.33 4313.50 97.20 o
-2 8 4 12410.80 13007.50 185.24 o
0 8 4 132.92 129.23 22.99 o
2 8 4 5326.76 5242.88 112.92 o
4 8 4 1054.36 910.80 56.02 o
6 8 4 233.21 204.02 42.50 o
-11 9 4 638.58 586.05 61.62 o
-9 9 4 1960.09 2067.30 72.24 o
-7 9 4 964.43 1025.27 53.04 o
-5 9 4 1421.09 1459.84 69.92 o
-3 9 4 3416.81 3446.24 92.52 o
-1 9 4 262.77 295.23 31.22 o
1 9 4 114.22 98.86 22.37 o
3 9 4 1515.96 1494.61 70.50 o
5 9 4 683.48 602.74 58.30 o
7 9 4 835.82 954.76 123.20 o
-10 10 4 212.33 176.36 40.91 o
-8 10 4 5512.49 5842.57 150.71 o
-6 10 4 83.52 38.86 25.46 <
-4 10 4 2227.40 2189.41 88.74 o
-2 10 4 7424.56 7475.79 143.25 o
0 10 4 5.04 12.67 21.36 <
2 10 4 3320.62 3345.72 103.11 o
4 10 4 917.49 833.15 57.25 o
6 10 4 118.51 369.33 69.19 o
-9 11 4 72.46 130.19 40.49 o
-7 11 4 3.56 3.25 27.12 <
-5 11 4 2839.66 2994.40 107.05 o
-3 11 4 339.60 363.30 42.38 o
-1 11 4 1263.27 1312.30 74.33 o
1 11 4 609.83 553.91 50.11 o
3 11 4 202.85 178.87 31.14 o
5 11 4 2271.66 2357.54 149.51 o
-8 12 4 794.01 813.14 65.17 o
-6 12 4 1747.97 1801.58 87.27 o
-4 12 4 40.14 107.17 29.86 o
-2 12 4 260.07 301.14 42.11 o
0 12 4 2555.51 2418.54 98.36 o
2 12 4 899.08 787.79 85.26 o
4 12 4 4.49 54.39 40.10 <
-9 13 4 324.01 381.80 116.40 o
-7 13 4 2624.85 2801.16 140.47 o
-5 13 4 5425.62 5380.26 180.99 o
-3 13 4 6.55 -24.45 30.52 <
-1 13 4 2918.64 3105.27 136.76 o
1 13 4 2020.04 2123.24 112.96 o
3 13 4 430.59 297.62 60.34 o
-6 14 4 2196.52 2349.20 129.19 o
-4 14 4 38.14 106.82 37.74 <
-2 14 4 111.57 92.91 41.68 <
0 14 4 1986.02 2155.65 118.79 o
2 14 4 668.81 689.05 84.99 o
-5 15 4 1186.11 964.11 142.05 o
-3 15 4 143.71 97.89 61.54 <
-1 15 4 1811.35 1944.99 185.09 o
-12 0 5 8030.97 8166.69 361.25 o
-10 0 5 324.88 281.86 42.80 o
-8 0 5 319.59 314.82 42.88 o
-6 0 5 14444.20 14853.00 229.44 o
-4 0 5 373.88 363.03 39.95 o
-2 0 5 4720.71 5063.01 135.06 o
0 0 5 9563.04 9282.51 259.88 o
2 0 5 0.69 -4.67 24.88 <
4 0 5 4626.96 4455.13 163.84 o
6 0 5 2298.16 2248.44 205.25 o
-11 1 5 745.03 716.21 46.09 o
-9 1 5 2154.70 2173.69 71.55 o
-7 1 5 2226.78 2356.81 59.61 o
-5 1 5 774.16 764.61 40.06 o
-3 1 5 855.28 909.75 41.38 o
-1 1 5 3362.62 3450.22 89.51 o
1 1 5 1111.85 1064.90 49.99 o
3 1 5 122.45 121.58 27.43 o
5 1 5 3330.65 3150.39 114.62 o
-12 2 5 2988.99 2977.78 154.88 o
-10 2 5 4.18 -44.54 24.76 <
-8 2 5 1.77 1.04 19.24 <
-6 2 5 5850.83 5945.52 100.25 o
-4 2 5 676.03 639.75 36.35 o
-2 2 5 998.08 1014.14 49.45 o
0 2 5 4113.42 4073.71 118.72 o
2 2 5 355.04 348.19 30.48 o
4 2 5 2242.13 2096.43 81.01 o
6 2 5 203.92 89.70 51.73 <
-11 3 5 6.35 6.53 25.46 <
-9 3 5 4058.11 4252.96 110.41 o
-7 3 5 167.54 183.08 21.71 o
-5 3 5 2285.44 2387.71 66.99 o
-3 3 5 5331.50 5370.71 102.22 o
-1 3 5 259.26 211.63 26.35 o
1 3 5 5244.54 5093.53 108.94 o
3 3 5 2066.06 1979.76 75.10 o
5 3 5 29.72 101.83 31.87 o
-12 4 5 278.70 175.20 82.44 <
-10 4 5 1561.84 1612.21 72.09 o
-8 4 5 2067.21 2009.54 62.08 o
-6 4 5 1297.83 1347.96 51.19 o
-4 4 5 1154.71 1122.85 51.81 o
-2 4 5 18.61 68.38 20.28 o
0 4 5 335.08 309.17 38.21 o
2 4 5 4529.75 4534.44 109.25 o
4 4 5 1277.23 1213.17 82.56 o
-11 5 5 159.43 54.32 32.41 <
-9 5 5 5647.08 5883.75 112.69 o
-7 5 5 1143.49 1118.21 53.54 o
-5 5 5 2835.45 2924.59 76.92 o
-3 5 5 4376.43 4667.91 106.47 o
-1 5 5 6.29 -23.60 20.98 <
1 5 5 8849.57 8582.65 143.87 o
3 5 5 2689.48 2648.75 97.51 o
5 5 5 0.24 -75.84 42.15 <
-10 6 5 123.39 123.86 25.23 o
-8 6 5 240.31 212.63 27.51 o
-6 6 5 2113.73 2315.66 88.85 o
-4 6 5 1014.61 1071.78 54.39 o
-2 6 5 137.79 171.49 25.65 o
0 6 5 490.25 523.66 40.76 o
2 6 5 1174.20 1040.02 61.00 o
4 6 5 1525.97 1388.95 106.39 o
-11 7 5 290.43 203.90 83.21 <
-9 7 5 1477.16 1511.18 78.27 o
-7 7 5 388.80 414.18 43.50 o
-5 7 5 35.39 -10.55 25.54 <
-3 7 5 1483.42 1601.70 65.71 o
-1 7 5 1488.47 1479.16 61.85 o
1 7 5 1420.80 1433.80 71.28 o
3 7 5 291.61 322.08 48.56 o
-10 8 5 261.20 346.38 60.61 o
-8 8 5 221.05 132.62 32.30 o
-6 8 5 7734.94 8418.19 183.08 o
-4 8 5 51.79 37.09 23.87 <
-2 8 5 2492.49 2619.12 84.99 o
0 8 5 5417.06 5466.44 117.79 o
2 8 5 1.48 -0.73 29.17 <
4 8 5 3005.56 3028.59 189.72 o
-9 9 5 1365.49 1316.24 86.85 o
-7 9 5 1895.99 2164.84 95.38 o
-5 9 5 1267.92 1386.83 66.95 o
-3 9 5 157.85 181.76 32.84 o
-1 9 5 2425.60 2538.50 99.36 o
1 9 5 514.68 478.11 49.41 o
3 9 5 17.85 -38.56 61.50 <
-8 10 5 59.38 17.58 32.10 <
-6 10 5 5818.87 6268.76 164.88 o
-4 10 5 3.34 3.44 28.32 <
-2 10 5 1395.91 1450.84 78.23 o
0 10 5 3874.45 3839.48 112.96 o
2 10 5 52.46 79.62 53.70 <
-7 11 5 166.07 242.46 44.39 o
-5 11 5 245.13 169.29 34.85 o
-3 11 5 2274.64 2405.29 103.15 o
-1 11 5 706.83 763.38 50.72 o
1 11 5 937.28 859.69 134.32 o
-6 12 5 932.60 839.64 74.21 o
-4 12 5 813.98 884.18 78.23 o
-2 12 5 4.74 -46.32 41.03 <
0 12 5 91.44 107.05 47.60 <
-5 13 5 1163.76 830.02 127.80 o
-3 13 5 2136.01 2457.17 206.34 o
-1 13 5 16.16 64.09 41.30 <
-10 0 6 4947.12 5074.71 211.55 o
-8 0 6 1463.00 1552.21 93.41 o
-6 0 6 1699.12 1883.10 129.42 o
-4 0 6 6065.02 6415.49 236.31 o
-2 0 6 186.51 42.26 40.99 <
0 0 6 2982.44 2969.01 162.26 o
2 0 6 6487.86 6354.53 232.95 o
-9 1 6 501.58 518.79 51.38 o
-7 1 6 1206.42 1328.76 60.50 o
-5 1 6 2611.82 2796.60 110.41 o
-3 1 6 108.39 55.32 27.78 <
-1 1 6 1636.58 1786.67 88.85 o
1 1 6 2324.71 2177.17 86.58 o
3 1 6 104.48 97.01 31.76 o
-10 2 6 2281.68 2330.89 141.12 o
-8 2 6 22.01 44.81 21.25 <
-6 2 6 0.26 11.94 25.34 <
-4 2 6 3160.93 3223.49 117.67 o
-2 2 6 144.64 154.18 35.97 o
0 2 6 991.62 1079.00 72.71 o
2 2 6 1198.19 1201.00 84.95 o
-9 3 6 2.84 -35.12 36.47 <
-7 3 6 4000.98 4318.21 122.50 o
-5 3 6 18.53 6.07 23.87 <
-3 3 6 1022.28 1145.30 72.24 o
-1 3 6 4542.08 4782.57 145.95 o
1 3 6 107.24 93.34 30.87 o
3 3 6 1554.10 1449.26 172.03 o
-8 4 6 170.01 162.14 42.77 o
-6 4 6 690.11 683.83 50.76 o
-4 4 6 296.97 347.46 42.57 o
-2 4 6 1746.12 2075.25 96.43 o
0 4 6 43.41 79.08 31.79 <
2 4 6 4.48 130.85 56.33 <
-7 5 6 3550.00 3783.23 147.50 o
-5 5 6 332.17 346.34 38.63 o
-3 5 6 2281.78 2380.72 103.11 o
-1 5 6 5740.48 6120.14 167.39 o
1 5 6 2.45 5.41 40.37 <
-8 6 6 10.42 -56.56 64.36 <
-6 6 6 242.66 228.97 44.54 o
-4 6 6 1107.44 1309.52 78.66 o
-2 6 6 409.53 384.20 47.02 o
0 6 6 119.45 79.24 35.12 <
-7 7 6 1975.76 1970.41 137.34 o
-5 7 6 440.67 354.14 63.63 o
-3 7 6 5.21 17.50 48.06 <
-1 7 6 1280.74 1408.50 159.16 o
-6 8 6 666.51 504.27 73.32 o
-2 8 6 45.47 -6.72 51.57 <
-5 9 6 2448.53 3116.78 240.68 o
loop_
_restr_angle_atom_site_label_1
_restr_angle_site_symmetry_1
_restr_angle_atom_site_label_2
_restr_angle_site_symmetry_2
_restr_angle_atom_site_label_3
_restr_angle_site_symmetry_3
_restr_angle_target
_restr_angle_target_weight_param
H4a . O4 . H4b . 104.5 0.02
H5a . O5 . H5b . 104.5 0.02
loop_
_restr_distance_atom_site_label_1
_restr_distance_site_symmetry_1
_restr_distance_atom_site_label_2
_restr_distance_site_symmetry_2
_restr_distance_target
_restr_distance_target_weight_param
O4 . H4a . 1 0.01
O4 . H4b . 1 0.01
O5 . H5a . 1 0.01
O5 . H5b . 1 0.01
