#------------------------------------------------------------------------------
#$Date: 2022-02-07 11:18:48 +0200 (Mon, 07 Feb 2022) $
#$Revision: 272833 $
#$URL: file:///home/coder/svn-repositories/cod/cif/1/56/63/1566330.cif $
#------------------------------------------------------------------------------
#
# This file is available in the Crystallography Open Database (COD),
# http://www.crystallography.net/
#
# All data on this site have been placed in the public domain by the
# contributors.
#
data_1566330
loop_
_publ_author_name
'Jiri Sejkora'
'Jakub Plasil'
'Ivana Cisarova'
'Radek Skoda'
'Jan Hlousek'
'Frantisek Veselovsky'
'Ivana Jebava'
_publ_section_title
;
 Interesting supergene Pb-rich mineral association from the Rovnost mining
 field, Jachymov (St. Joachimsthal), Czech Republic
;
_journal_name_full               'Journal of GeoSciences'
_journal_page_first              257
_journal_page_last               271
_journal_paper_doi               10.3190/jgeosci.100
_journal_volume                  56
_journal_year                    2011
_chemical_absolute_configuration .
_chemical_formula_sum            'As3 Cl O12 Pb5 Si0'
_chemical_formula_weight         1488.2
_space_group_IT_number           176
_space_group_name_Hall           '-P 6c'
_space_group_name_H-M_alt        'P 63/m'
_symmetry_cell_setting           hexagonal
_symmetry_space_group_name_Hall  '-P 6c'
_symmetry_space_group_name_H-M   'P 63/m'
_cell_angle_alpha                90
_cell_angle_beta                 90
_cell_angle_gamma                120.000
_cell_formula_units_Z            2
_cell_length_a                   10.237
_cell_length_b                   10.237
_cell_length_c                   7.426
_cell_measurement_temperature    293
_cell_volume                     673.955
_computing_cell_refinement       unknown
_computing_data_collection       unknown
_computing_data_reduction        unknown
_computing_molecular_graphics    unknown
_computing_structure_solution    unknown
_diffrn_ambient_temperature      293
_diffrn_measured_fraction_theta_full 0.99
_diffrn_measured_fraction_theta_max 0.99
_diffrn_radiation_source         'X-ray tube'
_diffrn_radiation_type           'Mo K\a'
_diffrn_radiation_wavelength     0.71073
_diffrn_reflns_av_R_equivalents  0.2248
_diffrn_reflns_av_sigmaI/netI    0.0285
_diffrn_reflns_limit_h_max       11
_diffrn_reflns_limit_h_min       -11
_diffrn_reflns_limit_k_max       11
_diffrn_reflns_limit_k_min       -11
_diffrn_reflns_limit_l_max       8
_diffrn_reflns_limit_l_min       -8
_diffrn_reflns_number            13490
_diffrn_reflns_theta_full        24.04
_diffrn_reflns_theta_max         24.04
_diffrn_reflns_theta_min         3.58
_exptl_absorpt_coefficient_mu    69.805
_exptl_crystal_density_diffrn    7.3309
_exptl_crystal_F_000             1244
_refine_diff_density_max         2.93
_refine_diff_density_min         -3.09
_refine_ls_extinction_method     none
_refine_ls_goodness_of_fit_gt    2.50
_refine_ls_goodness_of_fit_ref   2.25
_refine_ls_number_constraints    0
_refine_ls_number_parameters     35
_refine_ls_number_reflns         390
_refine_ls_number_restraints     0
_refine_ls_R_factor_all          0.0646
_refine_ls_R_factor_gt           0.0381
_refine_ls_shift/su_max          0.0364
_refine_ls_shift/su_mean         0.0105
_refine_ls_structure_factor_coef Fsqd
_refine_ls_weighting_details     w=1/(\s^2^(I)+0.0004I^2^)
_refine_ls_weighting_scheme      sigma
_refine_ls_wR_factor_gt          0.0866
_refine_ls_wR_factor_ref         0.0916
_reflns_number_gt                292
_reflns_number_total             390
_reflns_threshold_expression     I>3\s(I)
_cod_data_source_file            jgeosci.100_2011_3_sejkora_supplement.cif
_cod_data_source_block           I
_cod_original_cell_volume        673.9545
_cod_original_formula_sum        'As3 Cl1 O12 Pb5 Si0'
_cod_database_code               1566330
loop_
_symmetry_equiv_pos_site_id
_symmetry_equiv_pos_as_xyz
1 x,y,z
2 -y,x-y,z
3 -x+y,-x,z
4 -x,-y,z+1/2
5 y,-x+y,z+1/2
6 x-y,x,z+1/2
7 -x,-y,-z
8 y,-x+y,-z
9 x-y,x,-z
10 x,y,-z+1/2
11 -y,x-y,-z+1/2
12 -x+y,-x,-z+1/2
loop_
_atom_site_label
_atom_site_type_symbol
_atom_site_fract_x
_atom_site_fract_y
_atom_site_fract_z
_atom_site_adp_type
_atom_site_U_iso_or_equiv
_atom_site_symmetry_multiplicity
_atom_site_occupancy
_atom_site_calc_flag
_atom_site_refinement_flags
_atom_site_disorder_assembly
_atom_site_disorder_group
Pb1 Pb 0.74911(15) 0.75184(15) 0.25 Uani 0.0307(6) 6 1 d . . .
Pb2 Pb 0.666667 0.333333 0.0068(2) Uani 0.0292(5) 4 1 d . . .
As3 As 0.3836(4) 0.4079(4) 0.25 Uiso 0.0204(7) 6 1 d . . .
Cl4 Cl 0 0 0 Uani 0.041(5) 2 1 d . . .
O6 O 0.489(2) 0.328(2) 0.25 Uani 0.029(12) 6 1 d . . .
O8 O 0.488(3) 0.597(3) 0.25 Uiso 0.045(7) 6 1 d . . .
O9 O 0.273(2) 0.359(3) 0.072(2) Uani 0.067(12) 12 1 d . . .
loop_
_atom_site_aniso_label
_atom_site_aniso_type_symbol
_atom_site_aniso_U_11
_atom_site_aniso_U_22
_atom_site_aniso_U_33
_atom_site_aniso_U_12
_atom_site_aniso_U_13
_atom_site_aniso_U_23
Pb1 Pb 0.0235(8) 0.0244(8) 0.0430(8) 0.0110(7) 0 0
Pb2 Pb 0.0317(7) 0.0317(7) 0.0242(9) 0.0158(3) 0 0
Cl4 Cl 0.045(6) 0.045(6) 0.033(9) 0.023(3) 0 0
O6 O 0.039(15) 0.041(14) 0.025(13) 0.033(13) 0 0
O9 O 0.080(14) 0.096(17) 0.059(13) 0.069(14) -0.052(11) -0.052(12)
loop_
_atom_type_symbol
_atom_type_scat_dispersion_real
_atom_type_scat_dispersion_imag
_atom_type_scat_source
_atom_type_scat_Cromer_Mann_a1
_atom_type_scat_Cromer_Mann_b1
_atom_type_scat_Cromer_Mann_a2
_atom_type_scat_Cromer_Mann_b2
_atom_type_scat_Cromer_Mann_a3
_atom_type_scat_Cromer_Mann_b3
_atom_type_scat_Cromer_Mann_a4
_atom_type_scat_Cromer_Mann_b4
_atom_type_scat_Cromer_Mann_c
Pb -3.394 10.111 'International Tables Vol C tables 4.2.6.8 and 6.1.1.4'
31.061701 0.6902 13.0637 2.3576 18.441999 8.618 5.9696 47.2579 13.4118
As 0.050 2.006 'International Tables Vol C tables 4.2.6.8 and 6.1.1.4' 16.6723
2.6345 6.0701 0.2647 3.4313 12.9479 4.2779 47.797199 2.531
O 0.011 0.006 'International Tables Vol C tables 4.2.6.8 and 6.1.1.4' 3.0485
13.2771 2.2868 5.7011 1.5463 0.3239 0.867 32.908901 0.2508
Cl 0.148 0.159 'International Tables Vol C tables 4.2.6.8 and 6.1.1.4' 11.4604
0.0104 7.1964 1.1662 6.2556 18.5194 1.6455 47.7784 -9.5574
Si 0.082 0.070 'International Tables Vol C tables 4.2.6.8 and 6.1.1.4' 6.2915
2.4386 3.0353 32.333698 1.9891 0.6785 1.541 81.693703 1.1407
loop_
_geom_bond_atom_site_label_1
_geom_bond_atom_site_label_2
_geom_bond_site_symmetry_1
_geom_bond_site_symmetry_2
_geom_bond_distance
_geom_bond_publ_flag
Pb1 Cl4 . 1_665 3.1579(9) yes
Pb1 Cl4 . 4_665 3.1579(9) yes
Pb1 O6 . 3_665 3.03(4) yes
Pb1 O8 . . 2.32(2) yes
Pb1 O9 . 2_665 2.75(4) yes
Pb1 O9 . 4_665 2.60(2) yes
Pb1 O9 . 7_665 2.60(2) yes
Pb1 O9 . 11_665 2.75(4) yes
Pb2 O6 . . 2.55(2) yes
Pb2 O6 . 2_655 2.55(3) yes
Pb2 O6 . 3_665 2.547(15) yes
Pb2 O8 . 4_664 2.79(3) yes
Pb2 O8 . 5_554 2.79(3) yes
Pb2 O8 . 6_654 2.79(2) yes
Pb2 O9 . 7_665 2.95(3) yes
Pb2 O9 . 8_555 2.95(2) yes
Pb2 O9 . 9_655 2.95(4) yes
As3 O6 . . 1.64(3) yes
As3 O8 . . 1.68(2) yes
As3 O9 . . 1.65(2) yes
As3 O9 . 10_555 1.65(2) yes
O6 O6 . 2_655 3.11(5) yes
O6 O6 . 3_665 3.11(4) yes
O6 O8 . . 2.75(4) yes
O6 O9 . . 2.72(4) yes
O6 O9 . 10_555 2.72(4) yes
O8 O9 . . 2.68(3) yes
O8 O9 . 2_665 3.11(4) yes
O8 O9 . 10_555 2.68(3) yes
O8 O9 . 11_665 3.11(4) yes
O9 O9 . 10_555 2.65(3) yes
loop_
_refln_index_h
_refln_index_k
_refln_index_l
_refln_F_squared_calc
_refln_F_squared_meas
_refln_F_squared_sigma
_refln_observed_status
-1 2 0 4674.43 4432.32 168.16 o
0 2 0 30129.22 33598.18 430.13 o
-2 3 0 73830.89 70722.38 785.92 o
-1 3 0 44316.52 46034.87 577.05 o
0 3 0 251301.16 275440.97 2472.82 o
-3 4 0 2671.19 2602.04 228.34 o
-2 4 0 10748.98 10137.34 313.31 o
-1 4 0 588.22 685.03 269.05 <
0 4 0 41653.08 43174.39 561.12 o
-4 5 0 113859.85 107827.12 1129.32 o
-3 5 0 6266.18 6367.03 308.00 o
-2 5 0 45974.21 49238.74 649.62 o
-1 5 0 108610.37 105426.88 1125.78 o
0 5 0 9495.58 9735.52 350.48 o
-5 6 0 47516.01 52757.69 975.32 o
-4 6 0 38392.62 38380.98 587.67 o
-3 6 0 8415.94 7990.21 354.02 o
-2 6 0 64884.67 64429.70 823.09 o
-1 6 0 20878.80 19492.29 458.45 o
0 6 0 4560.52 4922.63 354.02 o
-6 7 0 29454.54 27917.94 585.90 o
-5 7 0 25385.14 27801.12 598.29 o
-4 7 0 2273.41 2435.65 339.86 o
-3 7 0 2928.04 2541.86 325.70 o
-2 7 0 13730.03 14169.61 444.29 o
-1 7 0 39567.54 41489.26 677.95 o
0 7 0 622.69 357.56 362.87 <
-7 8 0 35895.70 35067.36 723.97 o
-6 8 0 11069.65 11038.31 454.91 o
-5 8 0 240.36 1148.79 385.88 <
-4 8 0 132561.34 132787.23 1539.98 o
-3 8 0 11106.97 11250.72 474.39 o
-2 8 0 25161.30 25246.87 667.33 o
-1 8 0 59052.49 59793.82 957.62 o
0 8 0 33794.31 35885.14 803.62 o
-8 9 0 1021.33 -54.87 472.62 <
-7 9 0 13094.09 12344.64 523.95 o
-6 9 0 115.97 897.44 380.57 <
-5 9 0 138.14 486.78 384.11 <
-4 9 0 48.66 587.67 375.26 <
-3 9 0 1367.97 1295.71 387.65 o
-2 9 0 19936.44 19527.69 598.29 o
-1 9 0 696.53 646.08 481.47 <
0 9 0 16671.22 17130.98 754.06 o
-9 10 0 10191.33 8944.29 768.22 o
-8 10 0 12029.60 11197.62 658.48 o
-7 10 0 14390.75 13658.05 662.02 o
-6 10 0 5876.09 5354.54 557.58 o
-5 10 0 10255.91 9951.48 539.88 o
-4 10 0 16543.86 14798.00 635.46 o
-3 10 0 1910.85 1932.94 561.12 o
-2 10 0 1651.62 2085.17 607.14 o
-1 10 0 6245.26 4710.22 704.50 o
0 10 0 3081.19 2890.57 729.28 o
-9 11 0 10338.60 8645.15 923.99 o
-8 11 0 227.38 -1062.06 693.88 <
-7 11 0 14851.18 11360.47 1019.57 o
-6 11 0 7254.09 6002.39 731.05 o
-5 11 0 15322.59 14201.47 821.32 o
-4 11 0 16496.95 13928.88 869.12 o
-3 11 0 755.79 106.21 685.03 <
-2 11 0 9466.38 8022.07 998.33 o
0 1 1 122.94 421.28 69.03 o
-1 2 1 18993.20 19028.52 187.63 o
0 2 1 2154.67 2660.45 120.37 o
-2 3 1 133690.77 127184.89 885.05 o
-1 3 1 90661.93 89529.65 639.00 o
0 3 1 1869.15 2115.26 155.77 o
-3 4 1 1223.15 718.66 157.54 o
-2 4 1 3208.80 3124.22 173.47 o
-1 4 1 9952.20 10086.00 221.26 o
0 4 1 1530.15 1824.97 196.48 o
-4 5 1 88.05 -231.88 175.24 <
-3 5 1 47638.75 46234.89 451.37 o
-2 5 1 62749.45 68954.06 794.77 o
-1 5 1 1186.88 1378.90 201.79 o
0 5 1 1627.16 1557.68 224.80 o
-5 6 1 57798.25 56545.69 541.65 o
-4 6 1 3300.91 3125.99 200.02 o
-3 6 1 54616.70 54308.29 516.87 o
-2 6 1 9431.91 9638.17 253.12 o
-1 6 1 24452.16 26416.90 401.81 o
0 6 1 3868.17 3078.20 249.58 o
-6 7 1 10689.44 10436.48 311.54 o
-5 7 1 36692.25 36063.92 426.59 o
-4 7 1 5274.86 5025.30 244.27 o
-3 7 1 616.26 900.98 210.64 o
-2 7 1 17919.77 17681.48 336.32 o
-1 7 1 14491.84 17651.39 419.51 o
0 7 1 189.20 -200.02 244.27 <
-7 8 1 3289.69 3035.71 270.82 o
-6 8 1 368.23 555.81 235.42 <
-5 8 1 496.35 226.57 226.57 <
-4 8 1 4796.71 4416.39 263.74 o
-3 8 1 7.57 700.96 256.66 <
-2 8 1 1503.33 7887.54 339.86 o
-1 8 1 40.65 431.90 270.82 <
0 8 1 83.57 495.63 320.39 <
-8 9 1 12.48 129.22 348.71 <
-7 9 1 13131.09 11992.40 366.41 o
-6 9 1 40350.07 40190.01 543.42 o
-5 9 1 1028.40 539.88 267.28 <
-4 9 1 2272.62 2329.45 290.30 o
-3 9 1 17773.58 16491.98 387.65 o
-2 9 1 11593.44 15406.91 477.93 o
-1 9 1 2115.61 2373.70 368.18 o
0 9 1 2900.21 2653.37 400.04 o
-9 10 1 10780.29 9454.08 536.34 o
-8 10 1 5.02 538.11 389.42 <
-7 10 1 11477.83 12121.61 493.86 o
-6 10 1 687.42 495.63 352.25 <
-5 10 1 12798.10 13063.30 458.45 o
-4 10 1 3.41 998.33 400.04 <
-3 10 1 11353.76 10655.97 467.31 o
-2 10 1 1877.20 1524.05 440.75 o
-1 10 1 8052.11 6305.08 541.65 o
0 10 1 20.19 189.40 477.93 <
-8 11 1 158.91 1099.23 538.11 <
-7 11 1 1134.78 610.68 451.37 <
-6 11 1 6350.22 5689.09 481.47 o
-5 11 1 22301.32 20526.02 681.49 o
-4 11 1 284.74 773.53 483.24 <
-3 11 1 25.71 58.41 499.17 <
0 0 2 93433.56 78301.94 1302.79 o
0 1 2 36506.37 33442.41 272.59 o
-1 2 2 218932.50 215760.45 1247.92 o
0 2 2 5912.07 6869.74 154.00 o
-2 3 2 99.50 -401.81 130.99 <
-1 3 2 2458.15 2205.54 130.99 o
0 3 2 9458.32 8961.99 185.86 o
-3 4 2 29471.65 29714.59 325.70 o
-2 4 2 149429.66 145303.58 950.54 o
-1 4 2 23577.46 24599.01 279.68 o
0 4 2 140848.62 140731.42 955.85 o
-4 5 2 16220.90 15798.10 295.61 o
-3 5 2 10553.38 10755.10 244.27 o
-2 5 2 0.98 -175.24 171.70 <
-1 5 2 11624.36 11710.95 235.42 o
0 5 2 73791.59 77264.66 644.31 o
-5 6 2 3969.24 3740.21 221.26 o
-4 6 2 4853.28 4855.37 253.12 o
-3 6 2 82185.60 79509.13 700.96 o
-2 6 2 6800.46 6738.75 242.50 o
-1 6 2 32.79 30.09 214.18 <
0 6 2 68283.93 69865.66 676.18 o
-6 7 2 721.79 950.54 261.97 o
-5 7 2 33396.89 32081.21 442.52 o
-4 7 2 9095.68 9223.97 276.13 o
-3 7 2 39209.55 37818.09 493.86 o
-2 7 2 59175.36 59507.06 615.99 o
-1 7 2 4346.69 3637.55 249.58 o
0 7 2 21823.21 22147.43 424.82 o
-7 8 2 10041.59 11604.74 364.64 o
-6 8 2 611.82 302.69 258.43 <
-5 8 2 18611.05 18552.37 373.49 o
-4 8 2 2078.53 1994.90 286.76 o
-3 8 2 49297.58 49238.74 610.68 o
-2 8 2 1348.42 1081.53 253.12 o
-1 8 2 634.97 824.86 261.97 o
0 8 2 71117.91 74827.23 812.47 o
-8 9 2 11447.94 11282.59 437.21 o
-7 9 2 123.78 -215.95 336.32 <
-6 9 2 50171.92 52166.48 670.87 o
-5 9 2 9160.95 9636.40 359.33 o
-4 9 2 8564.15 7910.56 361.10 o
-3 9 2 39635.35 37998.63 585.90 o
-2 9 2 1710.01 2515.31 341.63 o
-1 9 2 4872.53 4023.43 357.56 o
0 9 2 5504.94 5136.82 453.14 o
-9 10 2 433.69 1077.99 472.62 <
-8 10 2 6868.17 6643.17 446.06 o
-7 10 2 530.18 916.91 389.42 <
-6 10 2 188.81 354.02 382.34 <
-5 10 2 14671.18 14569.65 483.24 o
-4 10 2 678.73 357.56 366.41 <
-3 10 2 1664.52 1874.53 389.42 o
-2 10 2 25456.03 24529.98 722.20 o
-1 10 2 34.86 417.74 485.01 <
-8 11 2 2570.13 525.72 504.48 <
-7 11 2 3382.63 2610.89 488.55 o
-6 11 2 12.19 263.74 424.82 <
-5 11 2 1775.37 2032.07 449.60 o
-4 11 2 2224.97 2099.33 488.55 o
-3 11 2 8119.28 8020.30 612.45 o
0 1 3 637.80 350.48 106.21 o
-1 2 3 23289.03 22232.40 224.80 o
0 2 3 1293.13 5726.26 357.56 o
-2 3 3 71648.57 71851.70 592.98 o
-1 3 3 78728.96 76993.84 536.34 o
0 3 3 1372.20 1247.92 145.15 o
-3 4 3 2229.81 2442.73 169.93 o
-2 4 3 1141.60 1000.10 143.38 o
-1 4 3 13127.11 12965.95 214.18 o
0 4 3 2467.39 2336.53 169.93 o
-4 5 3 14.10 17.70 203.56 <
-3 5 3 44908.86 58737.07 793.00 o
-2 5 3 22073.20 22630.67 336.32 o
-1 5 3 1692.16 1630.26 184.09 o
0 5 3 357.08 509.79 194.71 <
-5 6 3 30925.67 31410.34 437.21 o
-4 6 3 5139.88 5290.81 251.35 o
-3 6 3 32539.77 32537.89 415.97 o
-2 6 3 5910.92 5811.22 240.73 o
-1 6 3 20539.31 21211.05 331.01 o
0 6 3 4288.26 4250.00 274.36 o
-6 7 3 8625.05 9186.79 346.94 o
-5 7 3 28434.25 28919.82 421.28 o
-4 7 3 9045.48 9307.16 320.39 o
-3 7 3 98.15 -70.80 223.03 <
-2 7 3 12655.81 12762.39 306.23 o
-1 7 3 5602.98 6524.57 295.61 o
0 7 3 1676.27 1357.66 274.36 o
-7 8 3 2342.90 2026.76 309.77 o
-6 8 3 134.15 1122.24 339.86 o
-5 8 3 2013.58 1502.81 290.30 o
-4 8 3 2013.55 1894.00 270.82 o
-3 8 3 276.23 -116.83 261.97 <
-2 8 3 2897.82 3003.85 274.36 o
-1 8 3 43.20 -327.47 292.07 <
0 8 3 52.57 148.69 368.18 <
-8 9 3 268.36 196.48 368.18 <
-7 9 3 6600.14 5928.05 431.90 o
-6 9 3 28781.65 29109.22 608.91 o
-5 9 3 126.20 -61.95 378.80 <
-4 9 3 635.02 -162.85 329.24 <
-3 9 3 10211.71 10135.57 410.66 o
-2 9 3 11648.52 10781.65 474.39 o
-1 9 3 977.13 754.06 392.96 <
0 9 3 2854.37 2881.72 442.52 o
-8 10 3 6.63 932.84 511.56 <
-7 10 3 12486.15 10898.48 607.14 o
-6 10 3 66.49 81.42 433.67 <
-5 10 3 9087.01 8448.66 518.64 o
-4 10 3 229.30 -354.02 410.66 <
-3 10 3 5568.20 5828.92 506.25 o
-2 10 3 1641.32 1141.71 449.60 <
0 0 4 469434.62 382756.56 7167.12 o
0 1 4 1142.95 985.94 134.53 o
-1 2 4 6187.74 5158.06 157.54 o
0 2 4 10821.17 11273.74 192.94 o
-2 3 4 30436.21 29827.88 316.85 o
-1 3 4 28955.35 28371.09 297.38 o
0 3 4 111727.32 123290.68 1003.64 o
-3 4 4 658.36 642.54 177.01 o
-2 4 4 6588.80 6496.25 192.94 o
-1 4 4 1421.54 1593.09 164.62 o
0 4 4 17106.22 17950.54 284.99 o
-4 5 4 55978.09 58409.61 577.05 o
-3 5 4 2043.57 1755.93 194.71 o
-2 5 4 19909.41 20108.28 286.76 o
-1 5 4 60508.60 62857.86 573.51 o
0 5 4 7105.43 7664.51 261.97 o
-5 6 4 28572.78 29753.53 435.44 o
-4 6 4 27385.16 28339.22 407.12 o
-3 6 4 7200.76 7521.13 260.20 o
-2 6 4 32940.15 34130.98 414.20 o
-1 6 4 12000.72 13943.04 302.69 o
0 6 4 4445.88 4248.23 283.22 o
-6 7 4 15394.32 15387.44 401.81 o
-5 7 4 14060.37 14031.54 385.88 o
-4 7 4 1713.78 1649.73 261.97 o
-3 7 4 1674.11 1350.58 254.89 o
-2 7 4 6054.43 5913.89 272.59 o
-1 7 4 23925.59 24784.87 424.82 o
0 7 4 473.10 -139.84 283.22 <
-7 8 4 19203.06 22296.12 573.51 o
-6 8 4 5049.32 4650.04 392.96 o
-5 8 4 124.09 -162.85 300.92 <
-4 8 4 74805.95 81105.77 860.27 o
-3 8 4 5979.98 4940.34 297.38 o
-2 8 4 15880.08 15849.43 431.90 o
-1 8 4 36802.99 37823.39 646.08 o
0 8 4 16665.96 17458.45 564.66 o
-8 9 4 96.11 -734.59 444.29 <
-7 9 4 7428.27 8103.50 550.50 o
-6 9 4 307.85 308.00 401.81 <
-5 9 4 17.53 686.80 387.65 <
-4 9 4 97.23 810.70 339.86 <
-3 9 4 1406.43 1561.22 369.95 o
-2 9 4 11326.86 10107.24 479.70 o
-1 9 4 375.33 449.60 438.98 <
-7 10 4 7474.00 8115.89 768.22 o
-6 10 4 3673.50 3403.89 548.73 o
-5 10 4 6191.51 6526.34 545.19 o
-4 10 4 8767.09 7590.17 555.81 o
-3 10 4 1019.19 970.01 529.26 <
0 1 5 423.62 716.89 162.85 o
-1 2 5 3627.43 3110.06 192.94 o
0 2 5 2666.66 2283.42 182.32 o
-2 3 5 55198.57 54203.86 546.96 o
-1 3 5 20683.86 21465.94 284.99 o
0 3 5 355.31 354.02 177.01 <
-3 4 5 2641.20 2557.79 200.02 o
-2 4 5 1485.31 1017.80 182.32 o
-1 4 5 1939.26 1748.85 178.78 o
0 4 5 136.92 182.32 194.71 <
-4 5 5 7.08 417.74 217.72 <
-3 5 5 10383.60 10661.28 281.45 o
-2 5 5 29020.33 28976.46 385.88 o
-1 5 5 443.21 377.03 200.02 <
0 5 5 1788.52 1460.33 226.57 o
-5 6 5 28049.89 34033.62 506.25 o
-4 6 5 257.33 1318.72 292.07 o
-3 6 5 18093.47 17635.46 343.40 o
-2 6 5 7482.12 7894.62 299.15 o
-1 6 5 4648.80 4996.98 286.76 o
0 6 5 1390.55 1051.44 244.27 o
-6 7 5 1692.60 1230.22 313.31 o
-5 7 5 12268.89 12711.05 392.96 o
-4 7 5 936.54 61.95 269.05 <
-3 7 5 791.30 640.77 251.35 <
-2 7 5 5965.95 5751.04 300.92 o
-1 7 5 6648.77 7314.03 371.72 o
0 7 5 3.28 215.95 391.19 <
-7 8 5 1736.83 1210.75 485.01 <
-6 8 5 676.39 612.45 437.21 <
-5 8 5 3.74 53.10 435.44 <
-4 8 5 2081.44 2141.82 375.26 o
-3 8 5 119.74 515.10 352.25 <
-2 8 5 135.72 166.39 410.66 <
-1 8 5 69.54 -947.00 431.90 <
0 8 5 423.65 607.14 527.49 <
-7 9 5 6385.00 6506.87 729.28 o
-6 9 5 16056.19 15975.11 771.76 o
-5 9 5 1271.20 1175.34 555.81 <
-4 9 5 2247.40 1481.57 511.56 <
-3 9 5 6904.84 5933.36 612.45 o
-2 9 5 2599.50 2141.82 621.30 o
0 0 6 23104.04 20313.61 1138.17 o
0 1 6 9874.87 9478.86 331.01 o
-1 2 6 65486.41 65376.70 663.79 o
0 2 6 2145.11 2074.55 208.87 o
-2 3 6 90.75 86.73 224.80 <
-1 3 6 206.80 230.11 210.64 <
0 3 6 2067.63 1347.04 238.96 o
-3 4 6 5640.41 5030.61 258.43 o
-2 4 6 42575.84 43723.12 536.34 o
-1 4 6 7948.11 6542.27 258.43 o
0 4 6 32975.24 34056.63 483.24 o
-4 5 6 7518.27 7933.57 318.62 o
-3 5 6 4951.95 5090.79 267.28 o
-2 5 6 26.10 -10.62 226.57 <
-1 5 6 6111.01 6110.37 272.59 o
0 5 6 21564.68 22345.68 428.36 o
-5 6 6 505.13 -61.95 313.31 <
-4 6 6 170.73 446.06 253.12 <
-3 6 6 27913.23 28850.78 499.17 o
-2 6 6 1553.97 989.48 274.36 o
-1 6 6 134.38 -104.44 300.92 <
0 6 6 24995.48 26485.94 672.64 o
-6 7 6 199.70 155.77 477.93 <
-5 7 6 9808.99 9353.18 562.89 o
-4 7 6 2455.75 2548.94 424.82 o
-3 7 6 11139.05 11102.04 479.70 o
-2 7 6 16178.38 16302.58 594.75 o
-1 7 6 666.26 173.47 446.06 <
0 7 6 6699.96 6869.74 649.62 o
-6 8 6 359.73 1281.55 633.69 <
-5 8 6 5732.27 5338.61 617.76 o
-4 8 6 24.76 647.85 508.02 <
-3 8 6 16049.81 19150.66 892.13 o
-2 8 6 225.24 1246.15 646.08 <
0 1 7 1376.49 1108.08 320.39 o
-1 2 7 1233.88 1520.51 311.54 o
0 2 7 508.01 28.32 261.97 <
-2 3 7 8299.49 7252.08 401.81 o
-1 3 7 18947.25 19375.46 520.41 o
0 3 7 195.08 824.86 343.40 <
-3 4 7 12.47 295.61 378.80 <
-2 4 7 608.10 -320.39 284.99 <
-1 4 7 6147.29 5290.81 398.27 o
0 4 7 2055.16 3138.38 460.22 o
-4 5 7 37.58 -63.72 398.27 <
-3 5 7 10273.90 8593.81 504.48 o
-2 5 7 2745.62 2155.98 442.52 o
-1 5 7 226.52 -10.62 394.73 <
0 5 7 238.84 686.80 488.55 <
-5 6 7 4276.81 3628.70 582.36 o
-4 6 7 2571.51 1621.41 522.18 o
-3 6 7 7742.60 5522.70 522.18 o
-2 6 7 492.72 1157.64 511.56 <
-1 6 7 6275.77 5345.69 591.21 o
0 0 8 74822.61 80935.84 3984.48 o
0 1 8 580.55 589.44 631.92 <
-1 2 8 2113.93 3513.64 847.88 o
0 2 8 1695.60 1555.91 752.29 <
-2 3 8 5737.99 5058.93 709.81 o
-1 3 8 5086.63 4942.11 727.51 o
0 3 8 22337.71 22843.08 1129.32 o
-2 4 8 2697.55 2341.84 697.42 o
