#------------------------------------------------------------------------------
#$Date: 2022-08-17 13:18:04 +0300 (Wed, 17 Aug 2022) $
#$Revision: 277278 $
#$URL: file:///home/coder/svn-repositories/cod/cif/1/56/74/1567490.cif $
#------------------------------------------------------------------------------
#
# This file is available in the Crystallography Open Database (COD),
# http://www.crystallography.net/
#
# All data on this site have been placed in the public domain by the
# contributors.
#
data_1567490
loop_
_publ_author_name
'Ali, R.'
'Yashima, M.'
_publ_section_title
;
 Space group and crystal structure of the perovskite CaTiO3 from 296 to
 1720 K : tetragonal phase at 1720 K
;
_journal_name_full               'Journal of Solid State Chemistry'
_journal_page_first              2867
_journal_page_last               2872
_journal_paper_doi               10.1016/j.jssc.2005.06.027
_journal_volume                  178
_journal_year                    2005
_chemical_formula_sum            'Ca O3 Ti'
_chemical_name_common            CaTiO3
_chemical_name_mineral           'perovskite at 1720 K'
_space_group_IT_number           221
_space_group_name_Hall           '-P 4 2 3'
_space_group_name_H-M_alt        'P m -3 m'
_cell_angle_alpha                90.000000
_cell_angle_beta                 90.000000
_cell_angle_gamma                90.000000
_cell_formula_units_Z            1
_cell_length_a                   3.89670(10)
_cell_length_b                   3.89670(10)
_cell_length_c                   3.89670(10)
_cell_volume                     59.169(3)
_diffrn_ambient_pressure         100
_diffrn_ambient_temperature      298
_cod_data_source_file            CaTiO3-cubic.cif
_cod_data_source_block           CaTiO3-tetragonal
_cod_original_cell_volume        59.169
_cod_original_formula_sum        'Ca Ti O3'
_cod_database_code               1567490
loop_
_space_group_symop_id
_space_group_symop_operation_xyz
1 x,y,z
2 -x,-y,-z
3 -x,-y,z
4 x,y,-z
5 -x,y,-z
6 x,-y,z
7 x,-y,-z
8 -x,y,z
9 z,x,y
10 -z,-x,-y
11 z,-x,-y
12 -z,x,y
13 -z,-x,y
14 z,x,-y
15 -z,x,-y
16 z,-x,y
17 y,z,x
18 -y,-z,-x
19 -y,z,-x
20 y,-z,x
21 y,-z,-x
22 -y,z,x
23 -y,-z,x
24 y,z,-x
25 y,x,-z
26 -y,-x,z
27 -y,-x,-z
28 y,x,z
29 y,-x,z
30 -y,x,-z
31 -y,x,z
32 y,-x,-z
33 x,z,-y
34 -x,-z,y
35 -x,z,y
36 x,-z,-y
37 -x,-z,-y
38 x,z,y
39 x,-z,y
40 -x,z,-y
41 z,y,-x
42 -z,-y,x
43 z,-y,x
44 -z,y,-x
45 -z,y,x
46 z,-y,-x
47 -z,-y,-x
48 z,y,x
loop_
_atom_site_label
_atom_site_occupancy
_atom_site_fract_x
_atom_site_fract_y
_atom_site_fract_z
_atom_site_adp_type
_atom_site_B_iso_or_equiv
_atom_site_type_symbol
Ca 1.0 0.000000 0.000000 0.000000 Biso 4.1(1) Ca
Ti 1.0 0.500000 0.500000 0.500000 Biso 1.8(1) Ti
O 1.0 0.000000 0.500000 0.500000 Biso 5.64 O
