#------------------------------------------------------------------------------
#$Date: 2022-07-23 07:17:47 +0300 (Sat, 23 Jul 2022) $
#$Revision: 276901 $
#$URL: file:///home/coder/svn-repositories/cod/cif/1/56/73/1567346.cif $
#------------------------------------------------------------------------------
#
# This file is available in the Crystallography Open Database (COD),
# http://www.crystallography.net/. The original data for this entry
# were provided by IUCr Journals, http://journals.iucr.org/.
#
# The file may be used within the scientific community so long as
# proper attribution is given to the journal article from which the
# data were obtained.
#
data_1567346
loop_
_publ_author_name
'Chodkiewicz, Michal L.'
'Gajda, Roman'
'Lavina, Barbara'
'Tkachev, Sergey'
'Prakapenka, Vitali B.'
'Dera, Przemyslaw'
'Wozniak, Krzysztof'
_publ_section_title
;
 Accurate crystal structure of ice VI from X-ray diffraction with
 Hirshfeld atom refinement
;
_journal_issue                   5
_journal_name_full               IUCrJ
_journal_page_first
;
;
_journal_paper_doi               10.1107/S2052252522006662
_journal_volume                  9
_journal_year                    2022
_chemical_formula_moiety         'H2 O'
_chemical_formula_sum            'H2 O'
_chemical_formula_weight         18.015
_space_group_crystal_system      tetragonal
_space_group_IT_number           137
_space_group_name_Hall           '-P 4ac 2a'
_space_group_name_H-M_alt        'P 42/n m c :2'
_symmetry_Int_Tables_number      137
_audit_creation_date             2021-12-06
_audit_creation_method
;
Olex2 1.3
(compiled 2020.07.31 svn.rc2a77460 for OlexSys, GUI svn.r6145)
;
_cell_angle_alpha                90
_cell_angle_beta                 90
_cell_angle_gamma                90
_cell_formula_units_Z            10
_cell_length_a                   6.1732(3)
_cell_length_b                   6.1732(3)
_cell_length_c                   5.6881(5)
_cell_measurement_reflns_used    922
_cell_measurement_temperature    293(3)
_cell_measurement_theta_max      16.0740
_cell_measurement_theta_min      1.8000
_cell_volume                     216.76(2)
_computing_molecular_graphics    'Olex2 1.3 (Dolomanov et al., 2009)'
_computing_publication_material  'Olex2 1.3 (Dolomanov et al., 2009)'
_computing_structure_refinement  'olex2.refine 1.3 (Bourhis et al., 2015)'
_diffrn_ambient_temperature      293(3)
_diffrn_detector                 'CCD plate'
_diffrn_measured_fraction_theta_full 0.8934
_diffrn_measured_fraction_theta_max 0.6534
_diffrn_measurement_device       'abstract diffractometer'
_diffrn_measurement_device_type
'esperanto-CrysAlisPro-abstract goniometer imported esperanto images'
_diffrn_radiation_monochromator  synchrotron
_diffrn_radiation_probe          x-ray
_diffrn_radiation_type           synchrotron
_diffrn_radiation_wavelength     0.27552
_diffrn_reflns_av_R_equivalents  0.0000
_diffrn_reflns_av_unetI/netI     0.0322
_diffrn_reflns_Laue_measured_fraction_full 0.8934
_diffrn_reflns_Laue_measured_fraction_max 0.6534
_diffrn_reflns_limit_h_max       14
_diffrn_reflns_limit_h_min       1
_diffrn_reflns_limit_k_max       10
_diffrn_reflns_limit_k_min       0
_diffrn_reflns_limit_l_max       12
_diffrn_reflns_limit_l_min       0
_diffrn_reflns_number            629
_diffrn_reflns_point_group_measured_fraction_full 0.8934
_diffrn_reflns_point_group_measured_fraction_max 0.6534
_diffrn_reflns_theta_full        9.5154
_diffrn_reflns_theta_max         19.98
_diffrn_reflns_theta_min         1.81
_diffrn_source                   synchrotron
_exptl_absorpt_coefficient_mu    0.034
_exptl_crystal_colour            colourless
_exptl_crystal_density_diffrn    1.380
_exptl_crystal_description       disc
_exptl_crystal_F_000             99.950
_exptl_crystal_size_max          0.3
_exptl_crystal_size_mid          0.2
_exptl_crystal_size_min          0.2
_refine_diff_density_max         0.3001
_refine_diff_density_min         -0.2879
_refine_diff_density_rms         0.0554
_refine_ls_d_res_high            0.4032
_refine_ls_d_res_low             4.3651
_refine_ls_goodness_of_fit_ref   1.4392
_refine_ls_hydrogen_treatment    refall
_refine_ls_matrix_type           full
_refine_ls_number_constraints    0
_refine_ls_number_parameters     36
_refine_ls_number_reflns         622
_refine_ls_number_restraints     0
_refine_ls_restrained_S_all      1.4392
_refine_ls_R_factor_all          0.0632
_refine_ls_R_factor_gt           0.0334
_refine_ls_shift/su_max          0.0010
_refine_ls_shift/su_mean         0.0001
_refine_ls_structure_factor_coef Fsqd
_refine_ls_weighting_details
'w=1/[\s^2^(Fo^2^)+(0.0230P)^2^] where P=(Fo^2^+2Fc^2^)/3'
_refine_ls_weighting_scheme      calc
_refine_ls_wR_factor_gt          0.0650
_refine_ls_wR_factor_ref         0.0830
_reflns_Friedel_coverage         0.0
_reflns_limit_h_max              14
_reflns_limit_h_min              1
_reflns_limit_k_max              10
_reflns_limit_k_min              0
_reflns_limit_l_max              12
_reflns_limit_l_min              0
_reflns_number_gt                364
_reflns_number_total             622
_reflns_threshold_expression     I>=2u(I)
_iucr_refine_instructions_details
;
TITL ice6_2appr3res06 in P42/nmc #137
REM reset to P42/nmc #137
CELL 0.27552 6.173168 6.173168 5.68809 90 90 90
ZERR 10 0.000253 0.000253 0.0005 0 0 0
LATT 1
SYMM 0.5-Y,+X,0.5+Z
SYMM 0.5-X,0.5-Y,+Z
SYMM +Y,0.5-X,0.5+Z
SYMM 0.5+X,-Y,-Z
SYMM -X,0.5+Y,-Z
SYMM 0.5+Y,0.5+X,0.5-Z
SYMM -Y,-X,0.5-Z
SFAC H O
DISP H 0 0 0.5699
DISP O -0.0043 0.0007 6.1632
UNIT 20 10

L.S. 14
PLAN  5
CONF
BOND 
MORE -1
BOND $H
fmap 2 53
ACTA 
OMIT 2 2 0
OMIT 4 0 0
OMIT 2 1 1
OMIT 2 0 1
OMIT 1 0 2
OMIT 2 0 3
OMIT 2 0 0
WGHT 0.022998 0
FVAR 4.590555
REM <olex2.extras>
REM <HklSrc "%.\\sortav.hkl">
REM </olex2.extras>

O1    2     0.52944  0.75000  0.12894  10.50000  0.03106  0.04247  0.04129 =
 0.00000  0.00084  0.00000 
O2    2     0.25000  0.75000 -0.25000  10.12500  0.04362  0.04362  0.03290 =
 0.00000  0.00000 -0.00000 
D1A   1     0.46856  0.62957  0.21004  10.50000  0.04653  0.05232  0.04923 =
 0.02492  0.00611 -0.00164 
D1B   1     0.68973  0.75000  0.12837  10.25000  0.02324  0.03567  0.05175 =
 0.00000 -0.00295 -0.00000 
D2    1     0.13664  0.75000 -0.13676  10.25000  0.05944  0.04080  0.03135 =
 0.00000  0.02178  0.00000 
D1C   1     0.46151  0.75000 -0.02318  10.25000  0.03384  0.04401  0.03965 =
 0.00000 -0.00132 -0.00000 
HKLF 4

END
Q2 1 0.55 0.75 -0.111111 11 0.05 0.22
Q3 1 0.25 0.625 -0.055556 11 0.05 0.17
Q4 1 0.425 0.75 0.222222 11 0.05 0.17
Q1 1 0.75 0.75 0.083333 11 0.05 0.3
Q5 1 0.125 0.75 -0.055556 11 0.05 0.14

  REM The information below was added by Olex2.
  REM
  REM R1 = 0.0334 for 364 Fo > 4sig(Fo) and 0.0632 for all 622 data
  REM 36 parameters refined using 0 restraints
  REM Highest difference peak 0.3001, deepest hole -0.2879
  REM Mean Shift 0.0001, Max Shift 0.0010.

  REM +++ Tabular Listing of Refinement Information +++
  REM R1_all = 0.0632
  REM R1_gt = 0.0334
  REM wR_ref = 0.0830
  REM GOOF = 1.4392
  REM Shift_max = 0.0010
  REM Shift_mean = 0.0001
  REM Reflections_all = 622
  REM Reflections_gt = 364
  REM Parameters = 36
  REM Hole = -0.2879
  REM Peak = 0.3001
  REM Flack = n/a

  
;
_cod_data_source_file            lt5051.cif
_cod_data_source_block           D2O_APS_HAR_mod1
_cod_original_sg_symbol_H-M      'P 42/n m c'
_cod_database_code               1567346
_olex2_refinement_description
;
1. Others
 Fixed Sof: D1A(0.5) D1B(0.25) D2(0.25) D1C(0.25)
;
_olex2_submission_special_instructions 'No special instructions were received'
loop_
_space_group_symop_id
_space_group_symop_operation_xyz
1 x,y,z
2 -y+1/2,x,z+1/2
3 y,-x+1/2,z+1/2
4 x+1/2,-y,-z
5 -x,y+1/2,-z
6 -x+1/2,-y+1/2,z
7 y+1/2,x+1/2,-z+1/2
8 -y,-x,-z+1/2
9 -x,-y,-z
10 y-1/2,-x,-z-1/2
11 -y,x-1/2,-z-1/2
12 -x-1/2,y,z
13 x,-y-1/2,z
14 x-1/2,y-1/2,-z
15 -y-1/2,-x-1/2,z-1/2
16 y,x,z-1/2
loop_
_atom_site_label
_atom_site_type_symbol
_atom_site_fract_x
_atom_site_fract_y
_atom_site_fract_z
_atom_site_U_iso_or_equiv
_atom_site_adp_type
_atom_site_occupancy
_atom_site_site_symmetry_order
_atom_site_refinement_flags_posn
_atom_site_refinement_flags_adp
_atom_site_refinement_flags_occupancy
O1 O 0.52944(4) 0.75 0.12894(5) 0.03827(11) Uani 1.000000 2 S T P
O2 O 0.25 0.75 -0.25 0.04005(14) Uani 1.000000 8 S T P
D1A H 0.4686(19) 0.630(2) 0.210(2) 0.049(3) Uani 0.500000 1 . . .
D1B H 0.690(2) 0.75 0.128(2) 0.037(4) Uani 0.500000 2 S T P
D2 H 0.137(4) 0.75 -0.137(3) 0.044(4) Uani 0.500000 2 S T P
D1C H 0.462(3) 0.75 -0.023(3) 0.039(4) Uani 0.500000 2 S T P
loop_
_atom_site_aniso_label
_atom_site_aniso_U_11
_atom_site_aniso_U_22
_atom_site_aniso_U_33
_atom_site_aniso_U_12
_atom_site_aniso_U_13
_atom_site_aniso_U_23
O1 0.03106(14) 0.04247(16) 0.04129(19) -0.000000 0.00084(8) 0.000000
O2 0.04362(19) 0.04362(19) 0.0329(2) -0.000000 -0.000000 0.000000
D1A 0.047(7) 0.052(8) 0.049(6) -0.002(6) 0.006(6) 0.025(6)
D1B 0.023(6) 0.036(8) 0.052(12) -0.000000 -0.003(4) 0.000000
D2 0.059(10) 0.041(10) 0.031(9) -0.000000 0.022(8) 0.000000
D1C 0.034(8) 0.044(9) 0.040(11) -0.000000 -0.001(6) 0.000000
loop_
_atom_type_symbol
_atom_type_scat_dispersion_real
_atom_type_scat_dispersion_imag
_atom_type_scat_Cromer_Mann_a1
_atom_type_scat_Cromer_Mann_a2
_atom_type_scat_Cromer_Mann_a3
_atom_type_scat_Cromer_Mann_a4
_atom_type_scat_Cromer_Mann_b1
_atom_type_scat_Cromer_Mann_b2
_atom_type_scat_Cromer_Mann_b3
_atom_type_scat_Cromer_Mann_b4
_atom_type_scat_Cromer_Mann_c
_atom_type_scat_source
_atom_type_scat_dispersion_source
H 0.00000 0.00000 0.49300 0.32291 0.14019 0.04081 10.51090 26.12570 3.14236
57.79970 0.0030380000826
'International Tables Volume C Table 6.1.1.4 (pp. 500-502)' custom
O -0.00430 0.00070 3.04850 2.28680 1.54630 0.86700 13.27710 5.70110 0.32390
32.90890 0.250800013542
'International Tables Volume C Table 6.1.1.4 (pp. 500-502)' custom
loop_
_diffrn_refln_index_h
_diffrn_refln_index_k
_diffrn_refln_index_l
_diffrn_refln_intensity_net
_diffrn_refln_intensity_u
_diffrn_refln_scale_group_code
1 0 1 161.199 3.7911 1
1 0 2 6357.2 214.878 1
1 0 3 3355.82 107.488 1
1 0 4 41.268 1.7549 1
1 1 0 383.137 9.4905 1
1 1 2 1835.69 45.9411 1
1 1 4 1332.95 35.9994 1
2 0 0 2854.89 108.438 1
2 0 1 8489.33 356.605 1
2 0 2 1341.46 32.5849 1
2 0 3 4757.79 131.745 1
2 0 4 214.938 5.1095 1
2 0 5 603.546 15.5309 1
2 0 6 69.6014 2.0635 1
2 1 1 6631.44 192.111 1
2 1 2 2326.47 57.0005 1
2 1 3 114.592 2.6361 1
2 1 4 11.1627 0.2923 1
2 1 5 63.8127 1.5574 1
2 1 6 94.256 2.3939 1
2 1 7 129.205 3.6903 1
2 2 0 6328.48 293.887 1
2 2 2 765.209 17.9392 1
2 2 4 3965.57 103.964 1
2 2 6 131.583 3.3526 1
2 2 8 38.9638 1.5903 1
3 0 1 1530.72 39.2144 1
3 0 2 578.915 13.6059 1
3 0 3 3553.43 91.2727 1
3 0 4 0.064 0.0663 1
3 0 5 1143.75 27.3369 1
3 0 6 27.7157 0.8336 1
3 0 7 4.0368 0.355 1
3 0 8 0.5105 0.4498 1
3 1 0 2764.79 82.936 1
3 1 1 966.534 22.5113 1
3 1 2 767.955 17.6528 1
3 1 3 474.108 10.7991 1
3 1 4 19.4485 0.4906 1
3 1 5 78.8373 1.8551 1
3 1 6 39.7612 0.9801 1
3 1 7 23.839 0.6865 1
3 1 8 25.7898 1.0076 1
3 1 9 1.0338 0.7057 1
3 2 1 1597.44 37.6867 1
3 2 2 3631.11 90.9561 1
3 2 3 75.4311 1.7443 1
3 2 4 11.8064 0.3095 1
3 2 5 21.2299 0.532 1
3 2 6 269.687 6.2969 1
3 2 7 39.3145 1.0345 1
3 2 8 2.2167 0.2374 1
3 2 9 8.0667 0.5282 1
3 3 0 3955.62 126.344 1
3 3 2 438.071 10.3427 1
3 3 4 139.02 3.2712 1
3 3 6 15.1162 0.5133 1
3 3 8 50.3232 1.5412 1
3 3 10 1.7982 0.8384 1
4 0 0 8041.46 349.424 1
4 0 1 58.6898 1.5248 1
4 0 2 407.656 9.6109 1
4 0 3 17.8118 0.4622 1
4 0 4 680.935 15.7034 1
4 0 5 6.3213 0.2451 1
4 0 6 9.7604 0.3507 1
4 0 7 1.5997 0.28 1
4 0 8 111.418 3.3449 1
4 0 9 0.3833 0.3055 1
4 1 1 3.5593 0.1298 1
4 1 2 1521.27 35.6618 1
4 1 3 619.331 14.1456 1
4 1 4 10.3149 0.2693 1
4 1 5 212.838 4.9041 1
4 1 6 88.6366 2.0937 1
4 1 7 3.3579 0.199 1
4 1 8 0.3369 0.221 1
4 1 9 1.2069 1.4016 1
4 1 10 1.5827 0.6674 1
4 2 0 243.735 5.7418 1
4 2 1 2010.6 47.9181 1
4 2 2 296.138 6.7608 1
4 2 3 893.72 20.5119 1
4 2 4 162.328 3.7442 1
4 2 5 196.816 4.5064 1
4 2 6 30.7713 0.7729 1
4 2 7 73.7785 1.7706 1
4 2 8 4.1517 0.2566 1
4 2 9 4.8019 0.3669 1
4 2 10 0.3733 0.4095 1
4 3 1 231.738 5.3781 1
4 3 2 32.7137 0.8001 1
4 3 3 832.158 19.1528 1
4 3 4 0.0779 0.0697 1
4 3 5 342.253 7.7968 1
4 3 6 3.9392 0.1986 1
4 3 7 0.702 0.193 1
4 3 8 0.1311 0.1388 1
4 3 9 0.3036 0.2729 1
4 3 10 0.3153 0.3023 1
4 3 11 0.4789 0.5829 1
4 4 0 2192.98 59.11 1
4 4 2 82.4711 2.109 1
4 4 4 161.656 3.7959 1
4 4 6 6.3777 0.2949 1
4 4 8 39.0237 1.6721 1
4 4 10 0.3388 0.3813 1
5 0 1 153.019 3.7485 1
5 0 2 2114.14 52.9473 1
5 0 3 156.382 3.7214 1
5 0 4 2.538 0.1557 1
5 0 5 45.7389 1.1551 1
5 0 6 226.713 5.3526 1
5 0 7 8.584 0.3834 1
5 0 8 2.4315 0.4823 1
5 0 9 2.0834 0.5466 1
5 0 10 4.1452 0.9035 1
5 1 0 291.612 7.0785 1
5 1 1 177.824 4.1323 1
5 1 2 109.881 2.5891 1
5 1 3 125.559 2.9108 1
5 1 4 619.195 14.0997 1
5 1 5 22.5952 0.5712 1
5 1 6 34.5451 0.8684 1
5 1 7 9.7018 0.3376 1
5 1 8 1.6309 0.2332 1
5 1 9 0.7816 0.3122 1
5 1 10 0.2426 0.2662 1
5 2 1 1909.58 45.2257 1
5 2 2 1.1344 0.1218 1
5 2 3 158.863 3.6614 1
5 2 4 0.2516 0.1253 1
5 2 5 80.6398 1.8919 1
5 2 6 0.267 0.1562 1
5 2 7 64.3448 1.5977 1
5 2 8 0.0984 0.1073 1
5 2 9 17.6375 0.6725 1
5 2 10 0.8834 1.1743 1
5 2 11 0.462 0.5533 1
5 3 0 8.397 0.3119 1
5 3 1 426.398 9.8262 1
5 3 2 69.925 1.6787 1
5 3 3 315.262 7.3091 1
5 3 4 106.924 2.5078 1
5 3 5 57.3464 1.3761 1
5 3 6 16.3165 0.4689 1
5 3 7 26.0024 0.7107 1
5 3 8 0.6561 0.2261 1
5 3 9 0.6816 0.3346 1
5 3 10 0.363 0.3345 1
5 4 1 93.306 2.1824 1
5 4 2 600.179 13.9444 1
5 4 3 32.6808 0.8406 1
5 4 4 2.1889 0.1771 1
5 4 5 10.4279 0.3144 1
5 4 6 75.064 1.808 1
5 4 7 4.9719 0.2594 1
5 4 8 0.5572 0.2672 1
5 4 9 1.0162 0.3465 1
5 4 10 0.7418 0.5061 1
5 5 0 305.09 7.9226 1
5 5 2 12.1422 0.4638 1
5 5 4 318.776 8.2148 1
5 5 6 13.7437 0.5002 1
5 5 8 3.3214 0.3645 1
5 5 10 0.3387 0.3725 1
5 5 12 0.7606 1.0339 1
6 0 0 290.31 8.3226 1
6 0 1 490.66 12.1502 1
6 0 2 62.0955 1.659 1
6 0 3 277.831 6.6252 1
6 0 4 0.4327 0.1809 1
6 0 5 61.5314 1.519 1
6 0 6 8.1606 0.3189 1
6 0 7 24.2496 0.7661 1
6 0 8 6.9099 0.4094 1
6 0 9 1.0114 0.5051 1
6 0 10 1.123 0.6717 1
6 0 11 0.9206 0.8479 1
6 1 1 398.163 9.2231 1
6 1 2 33.3876 0.8372 1
6 1 3 0.7487 0.8326 1
6 1 4 0.1249 0.1063 1
6 1 5 0.0947 0.0882 1
6 1 6 3.7794 0.1818 1
6 1 7 16.3837 0.4903 1
6 1 8 0.1911 0.1695 1
6 1 9 3.5153 0.3684 1
6 1 10 0.2407 0.2641 1
6 2 0 332.888 8.2185 1
6 2 1 14.5506 0.405 1
6 2 2 50.0458 1.2405 1
6 2 3 8.1721 0.2758 1
6 2 4 388.156 8.9129 1
6 2 5 3.1395 0.1628 1
6 2 6 16.3323 0.4739 1
6 2 7 1.4285 0.2091 1
6 2 8 3.0506 0.2792 1
6 2 9 1.0734 1.3361 1
6 2 10 0.2792 0.2786 1
6 2 11 0.3283 0.3883 1
6 3 1 41.7082 1.0328 1
6 3 2 203.456 4.7585 1
6 3 3 26.334 0.6808 1
6 3 4 0.3311 0.149 1
6 3 5 14.2343 0.4489 1
6 3 6 24.8712 0.6831 1
6 3 7 4.3643 0.2562 1
6 3 8 0.1509 0.1563 1
6 3 9 0.7942 0.3668 1
6 3 10 0.4201 0.3735 1
6 3 11 0.1256 0.1682 1
6 3 12 0.6098 0.7099 1
6 4 0 64.5098 1.6706 1
6 4 1 117.277 2.771 1
6 4 2 24.3947 0.6471 1
6 4 3 71.6161 1.779 1
6 4 4 4.1334 0.2322 1
6 4 5 21.1635 0.599 1
6 4 6 4.0156 0.2421 1
6 4 7 7.7436 0.3265 1
6 4 8 2.1701 0.3164 1
6 4 9 0.3444 0.2707 1
6 4 12 0.5509 0.6315 1
6 5 1 180.088 4.2322 1
6 5 2 8.8871 0.3348 1
6 5 3 10.5437 0.357 1
6 5 4 0.5999 0.1895 1
6 5 5 6.1229 0.3335 1
6 5 6 1.1633 0.2288 1
6 5 7 8.7686 0.3718 1
6 5 8 0.2654 0.2357 1
6 5 9 1.0181 0.4137 1
6 5 12 0.7665 0.7881 1
6 6 0 18.915 0.8288 1
6 6 2 8.1663 0.4506 1
6 6 4 46.393 1.4678 1
6 6 6 2.5268 0.597 1
6 6 8 0.2467 0.2577 1
7 0 1 199.967 4.982 1
7 0 2 11.2206 0.4314 1
7 0 3 362.143 9.1707 1
7 0 4 0.2216 0.2105 1
7 0 5 185.087 4.5422 1
7 0 6 1.3552 0.2206 1
7 0 7 3.4911 0.3385 1
7 0 8 1.2822 1.517 1
7 0 9 1.9482 0.5839 1
7 0 10 0.5906 0.8192 1
7 1 0 381.935 9.5669 1
7 1 1 142.127 3.4519 1
7 1 2 35.5342 0.928 1
7 1 3 106.797 2.5349 1
7 1 4 18.511 0.5168 1
7 1 5 26.5958 0.7067 1
7 1 6 2.5969 0.1783 1
7 1 7 10.8622 0.374 1
7 1 8 8.3143 0.423 1
7 1 9 0.9654 1.2513 1
7 1 10 0.3345 0.3463 1
7 1 12 0.615 0.7977 1
7 2 1 5.0952 0.2399 1
7 2 2 495.969 11.756 1
7 2 3 36.2899 0.9641 1
7 2 4 2.13 0.17 1
7 2 5 18.9499 0.5419 1
7 2 6 66.5825 1.6535 1
7 2 7 1.4385 0.2373 1
7 2 8 0.8288 0.287 1
7 2 9 0.252 0.249 1
7 2 10 0.2863 0.2887 1
7 2 12 0.6105 0.7627 1
7 3 0 523.614 12.4551 1
7 3 1 22.4206 0.6071 1
7 3 2 27.2968 0.7272 1
7 3 3 17.7653 0.5108 1
7 3 4 62.1296 1.5338 1
7 3 5 3.5761 0.2555 1
7 3 6 0.7901 0.2546 1
7 3 7 1.3968 0.2738 1
7 3 8 11.4571 0.5268 1
7 3 9 0.5921 0.8206 1
7 3 10 0.4483 0.3993 1
7 4 1 68.3377 1.6678 1
7 4 2 12.3243 0.3944 1
7 4 3 130.667 3.1259 1
7 4 4 0.3955 0.2247 1
7 4 5 68.5935 1.7333 1
7 4 6 1.1297 0.2716 1
7 4 7 1.1583 0.2847 1
7 4 8 1.0023 1.2643 1
7 4 9 0.2244 0.2275 1
7 4 10 0.2911 0.3033 1
7 5 0 29.3934 0.9707 1
7 5 1 88.3985 2.1647 1
7 5 2 8.1197 0.3099 1
7 5 3 68.3819 1.7968 1
7 5 4 1.0953 1.2211 1
7 5 5 15.5364 0.5541 1
7 5 6 1.235 0.2672 1
7 5 7 6.3215 0.4233 1
7 5 8 0.4658 0.3344 1
7 5 9 0.8933 0.4618 1
7 5 11 0.3258 0.4037 1
7 6 1 0.124 0.1278 1
7 6 2 61.0829 1.6571 1
7 6 3 11.5261 0.4464 1
7 6 4 0.1899 0.1796 1
7 6 5 6.6128 0.3982 1
7 6 6 8.6574 0.4604 1
7 6 7 0.5326 0.3886 1
7 6 9 0.3405 0.3359 1
7 6 11 0.9576 0.8725 1
7 7 0 95.761 5.2001 1
7 7 2 3.8052 0.4316 1
7 7 4 18.178 0.8259 1
7 7 6 0.3836 0.3961 1
7 7 8 2.3401 1.0489 1
7 7 10 0.6685 0.8854 1
8 0 1 22.4065 0.8632 1
8 0 2 13.7141 0.5438 1
8 0 3 17.5595 0.7243 1
8 0 4 10.0946 0.4783 1
8 0 5 3.2389 0.409 1
8 0 6 1.7453 0.3093 1
8 0 7 1.5773 0.3451 1
8 0 8 4.537 0.4519 1
8 0 9 0.1888 0.2177 1
8 0 10 0.6698 0.9284 1
8 0 12 0.4783 0.6438 1
8 1 1 15.7553 0.588 1
8 1 2 6.0955 0.3007 1
8 1 3 8.3572 0.335 1
8 1 4 1.1629 1.2986 1
8 1 5 2.3323 0.2407 1
8 1 6 0.649 0.234 1
8 1 7 1.4214 0.233 1
8 1 8 0.1903 0.191 1
8 1 9 0.2741 0.2585 1
8 2 0 5.3463 0.3715 1
8 2 1 31.1956 0.8535 1
8 2 2 8.455 0.4065 1
8 2 3 18.735 0.6174 1
8 2 4 35.7476 0.972 1
8 2 5 6.0161 0.2815 1
8 2 6 3.3514 0.2926 1
8 2 7 1.7794 0.2506 1
8 2 8 0.3111 0.2928 1
8 2 10 0.2368 0.2611 1
8 3 1 0.944 1.0466 1
8 3 2 5.2299 0.3079 1
8 3 3 23.5046 0.72 1
8 3 4 0.1538 0.1566 1
8 3 5 10.5924 0.4094 1
8 3 6 0.5685 0.3419 1
8 3 7 1.037 1.2916 1
8 3 8 0.8249 1.0954 1
8 3 9 0.3444 0.3236 1
8 4 0 56.4309 1.6092 1
8 4 1 5.192 0.2672 1
8 4 2 5.6729 0.278 1
8 4 3 4.1163 0.2846 1
8 4 4 1.8814 0.2004 1
8 4 5 0.3508 0.2785 1
8 4 6 0.9197 0.385 1
8 4 7 0.3712 0.2918 1
8 4 8 1.1131 0.43 1
8 4 9 0.2457 0.2657 1
8 5 1 18.9737 0.6084 1
8 5 2 15.7633 0.5328 1
8 5 3 1.1398 1.2745 1
8 5 4 0.3574 0.2666 1
8 5 5 0.2209 0.2161 1
8 5 6 2.7067 0.407 1
8 5 7 0.7717 0.3859 1
8 5 8 0.1821 0.2181 1
8 5 9 0.2084 0.2451 1
8 6 0 0.2481 0.2436 1
8 6 1 2.4493 0.3357 1
8 6 2 1.6876 0.2845 1
8 6 3 1.088 0.2965 1
8 6 4 2.8044 0.3556 1
8 6 5 0.3323 0.2733 1
8 6 6 0.7721 0.3731 1
8 6 7 0.3987 0.3797 1
8 6 8 0.2521 0.3021 1
8 7 1 1.8785 0.4748 1
8 7 2 5.7128 0.3878 1
8 7 3 5.5751 0.476 1
8 7 4 0.2884 0.2647 1
8 7 5 1.8083 0.48 1
8 7 6 0.3416 0.3366 1
8 7 7 0.5434 0.4169 1
8 8 2 0.3684 0.3765 1
8 8 4 0.4575 0.4407 1
8 8 6 0.2768 0.3181 1
9 0 1 21.8925 1.1518 1
9 0 2 148.871 4.2292 1
9 0 3 0.2227 0.2222 1
9 0 4 0.501 0.3349 1
9 0 5 1.3654 1.5649 1
9 0 6 18.8722 1.0044 1
9 0 7 0.8643 0.4278 1
9 0 8 0.7953 1.0708 1
9 0 9 0.3227 0.3396 1
9 0 11 0.4459 0.5206 1
9 1 0 43.2581 1.4507 1
9 1 1 23.376 0.8053 1
9 1 2 2.756 0.3456 1
9 1 3 17.2312 0.5812 1
9 1 4 53.1897 1.4472 1
9 1 5 4.4137 0.3412 1
9 1 6 2.0812 0.3215 1
9 1 7 1.7572 0.344 1
9 1 8 0.1706 0.1814 1
9 2 1 115.881 2.8132 1
9 2 2 8.2128 0.4734 1
9 2 3 17.7505 0.7373 1
9 2 4 0.5234 0.2594 1
9 2 5 10.9903 0.4838 1
9 2 6 0.9316 0.3258 1
9 2 7 4.5619 0.3978 1
9 2 9 0.3002 0.312 1
9 3 0 6.1327 0.409 1
9 3 1 35.0489 0.9917 1
9 3 2 2.4152 0.244 1
9 3 3 27.348 0.9208 1
9 3 4 15.4647 0.7857 1
9 3 5 6.8296 0.3567 1
9 3 6 1.4176 0.3138 1
9 3 7 2.4487 0.4064 1
9 3 8 0.4086 0.3835 1
9 3 9 0.3022 0.3211 1
9 4 1 12.4144 0.4844 1
9 4 2 54.9628 1.5389 1
9 4 3 0.1888 0.1969 1
9 4 4 0.3698 0.2954 1
9 4 5 0.2148 0.2243 1
9 4 6 6.2593 0.5736 1
9 4 7 0.3921 0.3443 1
9 4 8 0.3186 0.3003 1
9 5 0 31.9598 1.1918 1
9 5 1 1.9206 0.2816 1
9 5 2 0.5824 0.2994 1
9 5 3 0.6863 0.3166 1
9 5 4 26.232 1.0261 1
9 5 5 0.4806 0.3594 1
9 5 6 0.5481 0.4963 1
9 5 7 0.2821 0.3288 1
9 5 8 0.2879 0.3336 1
9 6 1 15.8865 0.6978 1
9 6 2 3.6528 0.3727 1
9 6 3 1.3261 0.4844 1
9 6 4 0.4016 0.3198 1
9 6 5 0.7392 0.4409 1
9 6 7 0.4233 0.4497 1
9 7 0 1.305 1.5993 1
9 7 1 7.6092 0.5315 1
9 7 2 0.2509 0.27 1
9 7 3 5.3088 0.4769 1
9 7 4 0.183 0.2006 1
9 7 5 0.8569 0.5103 1
9 7 7 0.2957 0.3107 1
9 8 1 0.6879 0.6177 1
9 8 2 1.9785 0.7583 1
9 8 3 0.6599 0.4602 1
9 8 4 0.1705 0.2055 1
9 8 6 0.1932 0.2458 1
9 8 8 0.4319 0.5988 1
9 9 2 0.5695 0.7897 1
9 9 4 2.4765 1.2497 1
10 0 2 2.7576 0.6337 1
10 0 3 0.8054 0.4458 1
10 0 4 3.7468 0.4958 1
10 0 5 1.5072 1.8154 1
10 0 6 1.3767 1.6638 1
10 0 7 0.4347 0.3793 1
10 0 8 0.9856 0.6825 1
10 1 1 0.9482 0.3671 1
10 1 2 2.1262 0.6557 1
10 1 3 2.2006 0.348 1
10 1 4 0.1438 0.1564 1
10 1 5 1.1179 0.4017 1
10 1 6 0.4908 0.3559 1
10 1 8 0.2426 0.2656 1
10 1 10 0.2818 0.3507 1
10 2 0 1.2161 1.387 1
10 2 1 8.3038 0.4186 1
10 2 2 0.416 0.3391 1
10 2 3 6.6613 0.5228 1
10 2 4 2.8544 0.4539 1
10 2 5 1.0335 0.377 1
10 2 6 0.2157 0.23 1
10 2 7 0.2163 0.2417 1
10 2 10 0.3479 0.4395 1
10 3 1 0.5402 0.3436 1
10 3 2 1.206 1.4134 1
10 3 3 4.2919 0.5393 1
10 3 4 0.3657 0.3532 1
10 3 5 2.4012 0.5897 1
10 3 6 0.7078 0.9632 1
10 4 0 13.923 0.68 1
10 4 1 1.0772 1.2803 1
10 4 2 0.8002 0.3583 1
10 4 3 0.2774 0.2672 1
10 4 4 1.0938 0.6985 1
10 4 5 0.3665 0.3834 1
10 4 6 0.2456 0.2994 1
10 4 9 0.1688 0.2253 1
10 5 1 1.246 0.3595 1
10 5 2 3.7448 0.435 1
10 5 3 1.0598 1.3266 1
10 5 4 0.2923 0.2989 1
10 5 5 0.5129 0.699 1
10 5 6 0.5754 0.5266 1
10 5 9 0.4272 0.5248 1
10 6 0 0.3324 0.3439 1
10 6 1 0.6204 0.376 1
10 6 2 0.3519 0.3107 1
10 6 3 0.9478 1.2457 1
10 6 5 0.2862 0.3132 1
10 6 6 1.1668 0.8957 1
10 6 9 0.3147 0.4099 1
10 7 1 0.4296 0.3673 1
10 7 2 0.4286 0.4031 1
10 7 3 0.6172 0.5128 1
10 7 5 0.4566 0.4879 1
10 8 0 0.3605 0.423 1
10 8 2 0.2559 0.3158 1
10 8 7 0.4319 0.5419 1
10 9 1 0.5053 0.6311 1
10 9 6 0.6768 0.7031 1
10 10 4 0.918 0.9331 1
11 0 2 2.1791 0.7483 1
11 0 3 9.9508 0.8376 1
11 0 4 1.319 1.5925 1
11 0 5 3.9547 0.9215 1
11 0 7 0.4051 0.4025 1
11 0 9 0.5797 0.7815 1
11 1 1 6.3351 0.5951 1
11 1 2 0.8609 0.5355 1
11 1 3 4.0347 0.5366 1
11 1 4 1.4906 0.4237 1
11 1 5 0.4575 0.3989 1
11 1 7 0.4936 0.3791 1
11 2 1 1.5221 0.6128 1
11 2 2 16.0848 0.9811 1
11 2 3 1.8526 0.5935 1
11 2 4 0.4507 0.4091 1
11 2 5 0.2754 0.2907 1
11 2 6 0.2668 0.2906 1
11 2 7 0.3113 0.3319 1
11 3 0 16.0959 1.1268 1
11 3 1 0.8391 0.4225 1
11 3 2 0.6523 0.4483 1
11 3 3 0.4702 0.3884 1
11 3 4 2.3515 0.6884 1
11 3 6 0.2367 0.2892 1
11 3 7 0.1478 0.1946 1
11 4 1 2.8238 0.3569 1
11 4 2 1.1494 0.4864 1
11 4 3 3.6681 0.6233 1
11 4 4 0.4143 0.45 1
11 4 5 0.3257 0.3607 1
11 4 6 0.5786 0.7101 1
11 4 9 0.4244 0.5725 1
11 5 0 1.9449 0.7543 1
11 5 1 3.2795 0.5341 1
11 5 2 0.3572 0.3292 1
11 5 3 1.318 0.5085 1
11 5 5 0.4672 0.6447 1
11 5 8 0.7738 0.8554 1
11 6 2 1.8236 0.655 1
11 6 4 0.5864 0.5966 1
11 6 7 0.3579 0.4965 1
11 7 0 2.6822 0.9368 1
11 7 3 0.2869 0.3389 1
11 8 1 0.2638 0.3464 1
11 8 6 0.4907 0.6682 1
11 9 5 0.3596 0.492 1
12 0 3 0.6278 0.5589 1
12 0 4 0.4066 0.4398 1
12 0 5 0.5578 0.4965 1
12 1 2 0.4457 0.4542 1
12 1 5 0.2842 0.3115 1
12 1 8 0.4891 0.5364 1
12 2 0 0.7937 0.8439 1
12 2 1 0.3222 0.3617 1
12 2 2 0.6394 0.8862 1
12 2 3 0.4956 0.4835 1
12 2 5 0.2873 0.3393 1
12 3 1 0.6271 0.5087 1
12 3 2 0.8913 0.6314 1
12 3 3 0.2713 0.3006 1
12 3 4 0.2813 0.3398 1
12 3 5 0.3692 0.4278 1
12 4 0 0.5724 0.7874 1
12 4 1 0.3031 0.3008 1
12 4 2 0.2422 0.2805 1
12 4 3 0.5167 0.5174 1
12 5 1 0.2185 0.2506 1
12 6 0 0.7105 0.9565 1
12 6 2 0.253 0.2949 1
12 8 2 0.1978 0.2676 1
12 9 2 0.4482 0.6172 1
13 0 4 0.1883 0.2611 1
13 1 3 0.3188 0.3824 1
13 1 6 0.197 0.2647 1
13 1 7 0.3702 0.4497 1
13 2 1 0.4287 0.5489 1
13 2 2 0.3485 0.4304 1
13 2 3 0.2459 0.3114 1
13 2 7 0.458 0.5874 1
13 3 1 0.2912 0.3558 1
13 3 6 0.5239 0.6117 1
13 4 1 0.168 0.2171 1
13 7 0 0.6844 0.9442 1
14 0 5 0.7506 1.0234 1
14 1 5 0.614 0.7548 1
14 2 4 0.4589 0.5827 1
14 3 3 0.31 0.4256 1
14 3 5 0.2552 0.34 1
14 4 2 0.3333 0.4434 1
14 4 3 0.3421 0.4341 1
14 4 4 0.3542 0.4694 1
14 5 1 1.0258 1.0883 1
14 5 2 0.4894 0.5558 1
14 5 3 0.3522 0.4858 1
14 6 1 0.3841 0.4647 1
loop_
_geom_angle_atom_site_label_1
_geom_angle_atom_site_label_2
_geom_angle_atom_site_label_3
_geom_angle
_geom_angle_site_symmetry_1
_geom_angle_site_symmetry_3
_geom_angle_publ_flag
D1A O1 D1A 102.7(17) 13_575 . ?
D1B O1 D1A 113.3(9) . . ?
D1B O1 D1A 113.3(9) . 13_575 ?
D1C O1 D1A 105.3(11) . . ?
D1C O1 D1A 105.3(11) . 13_575 ?
D1C O1 D1B 115.7(13) . . ?
D2 O2 D2 117.3(14) . 7_454 ?
D2 O2 D2 117.3(14) 8_664 6_565 ?
D2 O2 D2 117.3(14) 8_664 . ?
D2 O2 D2 95(3) 6_565 . ?
D2 O2 D2 95(3) 8_664 7_454 ?
D2 O2 D2 117.3(14) 6_565 7_454 ?
D1A D1A O1 164.0(8) 8_665 . ?
D1B D1B O1 179.8(8) 6_665 . ?
D1C D2 O2 176(3) 6_565 7_454 ?
D2 D1C O1 163(3) 6_565 . ?
loop_
_geom_bond_atom_site_label_1
_geom_bond_atom_site_label_2
_geom_bond_distance
_geom_bond_site_symmetry_2
_geom_bond_publ_flag
O1 D1A 0.952(12) . ?
O1 D1A 0.952(12) 13_575 ?
O1 D1B 0.990(14) . ?
O1 D1C 0.962(16) . ?
O2 D2 0.951(15) 6_565 ?
O2 D2 0.951(15) 8_664 ?
O2 D2 0.951(15) 7_454 ?
O2 D2 0.951(15) . ?
D1A D1A 0.97(2) 8_665 ?
D1B D1B 0.74(3) 6_665 ?
D2 D1C 0.89(2) 6_565 ?
loop_
_geom_torsion_atom_site_label_1
_geom_torsion_atom_site_label_2
_geom_torsion_atom_site_label_3
_geom_torsion_atom_site_label_4
_geom_torsion
_geom_torsion_site_symmetry_1
_geom_torsion_site_symmetry_2
_geom_torsion_site_symmetry_3
_geom_torsion_site_symmetry_4
_geom_torsion_publ_flag
O1 D1A D1A O1 -16(12) . . 8_665 8_665 ?
O1 D1A D1A O1 -16(12) 10_566 8_665 . . ?
