#------------------------------------------------------------------------------
#$Date: 2022-07-23 07:17:47 +0300 (Sat, 23 Jul 2022) $
#$Revision: 276901 $
#$URL: file:///home/coder/svn-repositories/cod/cif/1/56/73/1567350.cif $
#------------------------------------------------------------------------------
#
# This file is available in the Crystallography Open Database (COD),
# http://www.crystallography.net/. The original data for this entry
# were provided by IUCr Journals, http://journals.iucr.org/.
#
# The file may be used within the scientific community so long as
# proper attribution is given to the journal article from which the
# data were obtained.
#
data_1567350
loop_
_publ_author_name
'Chodkiewicz, Michal L.'
'Gajda, Roman'
'Lavina, Barbara'
'Tkachev, Sergey'
'Prakapenka, Vitali B.'
'Dera, Przemyslaw'
'Wozniak, Krzysztof'
_publ_section_title
;
 Accurate crystal structure of ice VI from X-ray diffraction with
 Hirshfeld atom refinement
;
_journal_issue                   5
_journal_name_full               IUCrJ
_journal_page_first
;
;
_journal_paper_doi               10.1107/S2052252522006662
_journal_volume                  9
_journal_year                    2022
_chemical_formula_moiety         'H2 O'
_chemical_formula_sum            'H2 O'
_chemical_formula_weight         18.015
_space_group_crystal_system      tetragonal
_space_group_IT_number           137
_space_group_name_Hall           '-P 4ac 2a'
_space_group_name_H-M_alt        'P 42/n m c :2'
_symmetry_Int_Tables_number      137
_atom_sites_solution_primary     direct
_audit_creation_date             2022-03-16
_audit_creation_method
;
Olex2 1.5
(compiled 2021.12.09 svn.r5202d8cf for OlexSys, GUI svn.r6439)
;
_cell_angle_alpha                90
_cell_angle_beta                 90
_cell_angle_gamma                90
_cell_formula_units_Z            10
_cell_length_a                   6.1711(3)
_cell_length_b                   6.1711(3)
_cell_length_c                   5.6747(5)
_cell_measurement_reflns_used    594
_cell_measurement_temperature    293(2)
_cell_measurement_theta_max      23.2430
_cell_measurement_theta_min      2.3260
_cell_volume                     216.11(2)
_computing_cell_refinement       'CrysAlisPro 1.171.40.67a (Rigaku OD, 2019)'
_computing_data_collection       'CrysAlisPro 1.171.40.67a (Rigaku OD, 2019)'
_computing_data_reduction        'CrysAlisPro 1.171.40.67a (Rigaku OD, 2019)'
_computing_molecular_graphics    'Olex2 1.5 (Dolomanov et al., 2009)'
_computing_publication_material  'Olex2 1.5 (Dolomanov et al., 2009)'
_computing_structure_refinement  'olex2.refine 1.5 (Bourhis et al., 2015)'
_computing_structure_solution    'SHELXS  (Sheldrick, 2008)'
_diffrn_ambient_temperature      293(2)
_diffrn_detector                 'Hybrid Pixel Array Detector'
_diffrn_detector_area_resol_mean 5.8140
_diffrn_measured_fraction_theta_full 0.9669
_diffrn_measured_fraction_theta_max 0.7640
_diffrn_measurement_details
;
List of Runs (angles in degrees, time in seconds):

  # Type    Start    End  Width  t~exp~   \w     \q     \k     \f   Frames
--------------------------------------------------------------------------
  1  \f     40.00 141.00   1.00    8.00  90.00   0.00   0.00    --   101
  2  \f    220.00 321.00   1.00    8.00  90.00   0.00   0.00    --   101
;
_diffrn_measurement_device       'abstract diffractometer'
_diffrn_measurement_device_type
'esperanto-CrysAlisPro-abstract goniometer imported esperanto images'
_diffrn_measurement_method       '\f scans'
_diffrn_orient_matrix_type
'CrysAlisPro convention (1999,Acta A55,543-557)'
_diffrn_orient_matrix_UB_11      0.0398331000
_diffrn_orient_matrix_UB_12      0.0681823000
_diffrn_orient_matrix_UB_13      0.0191399000
_diffrn_orient_matrix_UB_21      -0.0705867000
_diffrn_orient_matrix_UB_22      0.0390939000
_diffrn_orient_matrix_UB_23      0.0091277000
_diffrn_orient_matrix_UB_31      -0.0014347000
_diffrn_orient_matrix_UB_32      -0.0195093000
_diffrn_orient_matrix_UB_33      0.0855992000
_diffrn_radiation_monochromator  synchrotron
_diffrn_radiation_probe          x-ray
_diffrn_radiation_type           synchrotron
_diffrn_radiation_wavelength     0.50014
_diffrn_reflns_av_R_equivalents  0.0230
_diffrn_reflns_av_unetI/netI     0.0113
_diffrn_reflns_Laue_measured_fraction_full 0.9669
_diffrn_reflns_Laue_measured_fraction_max 0.7640
_diffrn_reflns_limit_h_max       7
_diffrn_reflns_limit_h_min       -7
_diffrn_reflns_limit_k_max       7
_diffrn_reflns_limit_k_min       -7
_diffrn_reflns_limit_l_max       7
_diffrn_reflns_limit_l_min       -7
_diffrn_reflns_number            1022
_diffrn_reflns_point_group_measured_fraction_full 0.9669
_diffrn_reflns_point_group_measured_fraction_max 0.7640
_diffrn_reflns_theta_full        17.4626
_diffrn_reflns_theta_max         22.95
_diffrn_reflns_theta_min         3.29
_diffrn_source                   synchrotron
_exptl_absorpt_coefficient_mu    0.071
_exptl_absorpt_correction_T_max  1.00000
_exptl_absorpt_correction_T_min  0.61263
_exptl_absorpt_correction_type   multi-scan
_exptl_absorpt_process_details
;
CrysAlisPro 1.171.40.67a (Rigaku Oxford Diffraction, 2019)
Empirical absorption correction using spherical harmonics,
 implemented in SCALE3 ABSPACK scaling algorithm.
;
_exptl_crystal_colour            colourless
_exptl_crystal_density_diffrn    1.384
_exptl_crystal_description       disc
_exptl_crystal_F_000             100.044
_exptl_crystal_size_max          0.3
_exptl_crystal_size_mid          0.2
_exptl_crystal_size_min          0.2
_refine_diff_density_max         0.8179
_refine_diff_density_min         -0.5335
_refine_diff_density_rms         0.2228
_refine_ls_d_res_high            0.6414
_refine_ls_d_res_low             4.3636
_refine_ls_goodness_of_fit_ref   0.9361
_refine_ls_hydrogen_treatment    refall
_refine_ls_matrix_type           full
_refine_ls_number_constraints    0
_refine_ls_number_parameters     22
_refine_ls_number_reflns         191
_refine_ls_number_restraints     7
_refine_ls_restrained_S_all      0.9174
_refine_ls_R_factor_all          0.0783
_refine_ls_R_factor_gt           0.0776
_refine_ls_shift/su_max          0.0018
_refine_ls_shift/su_mean         0.0002
_refine_ls_structure_factor_coef Fsqd
_refine_ls_weighting_details
'w=1/[\s^2^(Fo^2^)+(0.1575P)^2^] where P=(Fo^2^+2Fc^2^)/3'
_refine_ls_weighting_scheme      calc
_refine_ls_wR_factor_gt          0.1468
_refine_ls_wR_factor_ref         0.1485
_reflns_Friedel_coverage         0.0
_reflns_limit_h_max              7
_reflns_limit_h_min              0
_reflns_limit_k_max              5
_reflns_limit_k_min              0
_reflns_limit_l_max              7
_reflns_limit_l_min              0
_reflns_number_gt                178
_reflns_number_total             191
_reflns_threshold_expression     I>=2u(I)
_iucr_refine_instructions_details
;
TITL ang45 in P42/nmc #137
REM reset to P42/nmc #137
CELL 0.50014 6.171117 6.171117 5.67473 90 90 90
ZERR 10 0.000328 0.000328 0.000518 0 0 0
LATT 1
SYMM 0.5-Y,+X,0.5+Z
SYMM 0.5-X,0.5-Y,+Z
SYMM +Y,0.5-X,0.5+Z
SYMM 0.5+X,-Y,-Z
SYMM -X,0.5+Y,-Z
SYMM 0.5+Y,0.5+X,0.5-Z
SYMM -Y,-X,0.5-Z
SFAC H O
DISP H 0 0 0.6081
DISP O 0.0044 0.0028 14.2089
UNIT 20 10
DFIX 0.952 O1 H1a
DFIX 0.952 O1 H1b
DFIX 0.952 O1 H1c
DFIX 0.952 O2 H2
DANG 1.5 H1a H1b
DANG 1.5 H1b H1a
DANG 1.5 H1b H1c

L.S. 24
PLAN  4
CONF
BOND 
MORE -1
BOND $H
fmap 2
acta 
WGHT 0.157462 0
FVAR 38.632388
REM <olex2.extras>
REM <HklSrc "%.\\ang45.hkl">
REM </olex2.extras>

O1    2     0.52952  0.75000  0.12898  10.50000  0.03211  0.04362  0.04788 =
 0.00000  0.00078 -0.00000 

O2    2     0.25000  0.75000 -0.25000  10.12500  0.04449  0.04449  0.03910 =
 0.00000 -0.00000 -0.00000 

H1a   1     0.46811  0.64379  0.21644  10.50000  0.03741 
H1b   1     0.67472  0.75000  0.12703  10.25000  0.04167 

H2    1     0.12881  0.75000 -0.15668  10.25000  0.05282 

H1c   1     0.46288  0.75000 -0.01797  10.25000  0.09824 
HKLF 4

END
Q1 1 0.25 0.75 0.25 11 0.05 0.82
Q2 1 0.75 0.75 -0.125 11 0.05 0.41
Q3 1 0.5 0.75 0.5 11 0.05 0.39
Q4 1 0.55 0.45 0.25 11 0.05 0.23

  REM The information below was added by Olex2.
  REM
  REM R1 = 0.0776 for 178 Fo > 4sig(Fo) and 0.0783 for all 191 data
  REM 22 parameters refined using 7 restraints
  REM Highest difference peak 0.8179, deepest hole -0.5335
  REM Mean Shift 0.0002, Max Shift 0.0018.

  REM +++ Tabular Listing of Refinement Information +++
  REM R1_all = 0.0783
  REM R1_gt = 0.0776
  REM wR_ref = 0.1485
  REM GOOF = 0.9361
  REM Shift_max = 0.0018
  REM Shift_mean = 0.0002
  REM Reflections_all = 191
  REM Reflections_gt = 178
  REM Parameters = 22
  REM Hole = -0.5335
  REM Peak = 0.8179
  REM Flack = n/a

  
;
_cod_data_source_file            lt5051.cif
_cod_data_source_block           D2O_DESY_IAM
_cod_original_cell_volume        216.11(3)
_cod_original_sg_symbol_H-M      'P 42/n m c'
_cod_database_code               1567350
_chemical_oxdiff_formula         H2O
_olex2_refinement_description
;
1. Restrained distances
 O1-H1a
 0.952 with sigma of 0.02
 O1-H1b
 0.952 with sigma of 0.02
 O1-H1c
 0.952 with sigma of 0.02
 O2-H2
 0.952 with sigma of 0.02
 H1a-H1b
 1.5 with sigma of 0.04
 H1b-H1a
 1.5 with sigma of 0.04
 H1b-H1c
 1.5 with sigma of 0.04
2. Others
 Fixed Sof: H1a(0.5) H1b(0.25) H2(0.25) H1c(0.25)
;
_olex2_submission_special_instructions 'No special instructions were received'
_oxdiff_exptl_absorpt_empirical_details
;
Empirical correction (ABSPACK) includes:
- Absorption correction using spherical harmonics
- Frame scaling
;
_oxdiff_exptl_absorpt_empirical_full_max 1.422
_oxdiff_exptl_absorpt_empirical_full_min 0.681
loop_
_space_group_symop_id
_space_group_symop_operation_xyz
1 x,y,z
2 -y+1/2,x,z+1/2
3 y,-x+1/2,z+1/2
4 x+1/2,-y,-z
5 -x,y+1/2,-z
6 -x+1/2,-y+1/2,z
7 y+1/2,x+1/2,-z+1/2
8 -y,-x,-z+1/2
9 -x,-y,-z
10 y-1/2,-x,-z-1/2
11 -y,x-1/2,-z-1/2
12 -x-1/2,y,z
13 x,-y-1/2,z
14 x-1/2,y-1/2,-z
15 -y-1/2,-x-1/2,z-1/2
16 y,x,z-1/2
loop_
_atom_site_label
_atom_site_type_symbol
_atom_site_fract_x
_atom_site_fract_y
_atom_site_fract_z
_atom_site_U_iso_or_equiv
_atom_site_adp_type
_atom_site_occupancy
_atom_site_site_symmetry_order
_atom_site_refinement_flags_posn
_atom_site_refinement_flags_adp
_atom_site_refinement_flags_occupancy
O1 O 0.52952(12) 0.75 0.12898(11) 0.0412(5) Uani 1.000000 2 DS T P
O2 O 0.25 0.75 -0.25 0.0427(6) Uani 1.000000 8 DS T P
H1a H 0.468(3) 0.644(3) 0.216(3) 0.037(4) Uiso 0.500000 1 D . .
H1b H 0.675(2) 0.75 0.127(3) 0.042(8) Uiso 0.500000 2 DS T P
H2 H 0.129(4) 0.75 -0.157(6) 0.053(8) Uiso 0.500000 2 DS T P
H1c H 0.463(8) 0.75 -0.018(6) 0.10(3) Uiso 0.500000 2 DS T P
loop_
_atom_site_aniso_label
_atom_site_aniso_U_11
_atom_site_aniso_U_22
_atom_site_aniso_U_33
_atom_site_aniso_U_12
_atom_site_aniso_U_13
_atom_site_aniso_U_23
O1 0.0321(7) 0.0436(7) 0.0479(7) -0.000000 0.0008(2) 0.000000
O2 0.0445(7) 0.0445(7) 0.0391(7) -0.000000 -0.000000 0.000000
loop_
_atom_type_symbol
_atom_type_scat_dispersion_real
_atom_type_scat_dispersion_imag
_atom_type_scat_Cromer_Mann_a1
_atom_type_scat_Cromer_Mann_a2
_atom_type_scat_Cromer_Mann_a3
_atom_type_scat_Cromer_Mann_a4
_atom_type_scat_Cromer_Mann_b1
_atom_type_scat_Cromer_Mann_b2
_atom_type_scat_Cromer_Mann_b3
_atom_type_scat_Cromer_Mann_b4
_atom_type_scat_Cromer_Mann_c
_atom_type_scat_source
_atom_type_scat_dispersion_source
H 0.00000 0.00000 0.49300 0.32291 0.14019 0.04081 10.51090 26.12570 3.14236
57.79970 0.00304 'International Tables Volume C Table 6.1.1.4 (pp. 500-502)'
custom
O 0.00440 0.00280 3.04850 2.28680 1.54630 0.86700 13.27710 5.70110 0.32390
32.90890 0.25080 'International Tables Volume C Table 6.1.1.4 (pp. 500-502)'
custom
loop_
_diffrn_refln_index_h
_diffrn_refln_index_k
_diffrn_refln_index_l
_diffrn_refln_intensity_net
_diffrn_refln_intensity_u
_diffrn_refln_scale_group_code
0 0 3 15.116 11.5444 2
0 0 -3 153.922 10.2936 1
0 0 -4 203492 998.306 1
1 0 0 9.27941 6.95 1
1 0 0 19.7348 7.2381 2
-1 0 0 32.0287 8.25034 2
-1 0 -1 15495.6 95.5558 1
1 0 1 16543.8 97.1481 2
1 0 -1 13733.4 90.3557 1
-1 0 1 14420.3 93.4079 1
-1 0 2 496736 2416.27 2
-1 0 3 287563 1421.93 1
1 0 -3 292602 1420.28 1
1 0 -4 3009.33 35.0882 1
0 -1 -6 16166.4 94.8507 1
0 1 6 15338.9 91.0894 2
0 -1 -7 103.35 20.4273 1
0 1 7 64.6054 22.2832 2
1 -1 0 35867.9 200.902 1
-1 1 0 36624.8 203.316 2
-1 1 0 34904.8 200.824 1
1 -1 0 34570 199.692 2
-1 1 1 108.508 15.4396 1
-1 1 -1 83.0464 12.1586 1
1 -1 1 1.6057 11.3839 1
1 -1 1 88.2137 15.6146 2
1 -1 -1 1.02211 13.018 1
-1 1 1 -5.11712 12.8684 2
-1 1 -1 1.56894 12.8044 2
1 -1 2 150200 754.378 2
1 -1 2 151598 753.049 1
1 -1 -2 150698 763.009 1
-1 1 3 -10.1426 23.7738 2
-1 1 -3 7.1601 12.5442 1
1 -1 -3 -2.89637 20.2387 1
1 -1 3 17.1543 16.567 2
-1 -1 3 19.3101 13.5347 1
1 1 -3 12.3565 13.9499 2
1 -1 -4 85582.7 454.562 1
-1 1 6 4361.7 56.7604 2
1 -1 -6 5173.81 59.7682 1
-1 1 7 0.12181 26.5659 2
1 -1 -7 12.4253 21.2574 1
-2 0 0 306576 1499.97 2
2 0 0 307267 1502.38 1
-2 0 1 730444 3491.69 2
-2 0 1 700671 3505.88 1
2 0 2 111120 568.262 2
-2 0 2 107196 568.071 1
0 -2 3 446243 2177.65 1
-2 0 3 449201 2192.29 2
2 0 -4 14344.8 101.581 2
2 0 -4 14374.3 101.201 1
-2 0 4 14412.9 101.974 1
2 0 -5 41087.9 226.75 1
-2 0 -5 35810.8 228.256 1
-2 0 -6 3273.58 46.5819 1
2 0 6 2595.75 47.0386 2
-2 0 -7 4157.27 48.7593 1
2 0 7 4859.61 51.2732 2
1 -2 0 -5.75792 19.5086 1
-2 1 0 3.049 19.1715 1
1 -2 0 -7.59577 22.1929 2
-1 2 0 4.70695 16.4178 1
2 -1 0 3.23704 21.6394 2
2 -1 0 -7.08914 19.4359 1
-2 1 0 -2.42446 20.4379 2
-1 2 0 6.52951 20.5503 2
-2 1 1 594602 2909.72 1
1 -2 -1 600455 2911.05 2
2 -1 1 597392 2906.99 2
2 1 -2 210344 1050.83 2
2 -1 -2 214387 1057.77 2
2 -1 2 208514 1045.68 1
2 -1 -2 207281 1060.35 1
1 -2 2 210286 1044.67 1
-1 2 -2 206542 1041.54 1
-2 -1 2 203948 1050.25 1
1 -2 -2 210157 1062.18 1
2 -1 2 211860 1053.67 2
1 -2 -3 8211.82 90.4767 1
2 1 -3 8798.68 74.6641 2
-1 2 -3 7863.09 61.9482 1
1 -2 3 7088.9 66.3785 1
-1 2 -3 7870.93 68.0164 2
2 -1 -3 7803.32 77.1303 2
2 -1 3 7805.68 75.973 2
2 -1 -3 7795.14 80.025 1
-2 1 3 7996.07 80.6039 2
-2 1 3 9164.92 84.3955 1
2 -1 3 8669.1 78.8382 1
-1 2 3 7641.4 81.7529 2
-2 -1 3 9507.57 82.7586 1
-2 1 -3 8006.97 72.9209 1
1 -2 4 831.881 20.714 1
2 -1 -4 612.702 32.5191 2
-1 -2 4 668.219 21.2909 1
-2 1 4 691.617 37.0396 2
-2 1 4 731.502 34.7045 1
2 -1 -4 767.389 32.5613 1
1 -2 -4 698.467 34.0974 1
-1 2 4 652.429 37.7897 2
-2 -1 4 687.305 27.7166 1
-1 2 5 3254.39 54.5165 2
1 -2 -5 3285.55 56.6997 1
-1 2 6 4813.79 67.0577 2
2 -1 6 3632.52 41.1151 2
1 -2 -6 5199.66 68.3947 1
2 -1 -6 5378.84 62.5322 1
-2 1 6 5246.03 66.2702 2
-2 1 7 5068.29 60.9014 2
2 -1 -7 6558.89 68.7685 1
-1 2 7 4612.54 67.6634 2
1 -2 -7 5927.94 74.7242 1
2 -2 0 686282 3508.91 1
2 -2 0 742474 3499.5 2
2 -2 1 -7.18384 24.8379 2
-2 2 -1 2.73448 27.1571 2
-2 2 1 4.68727 29.2664 2
2 -2 -1 23.8735 26.5561 1
2 -2 1 -1.35866 24.2094 1
2 -2 -1 53.354 29.6706 2
-2 2 1 18.7452 24.7066 1
-2 2 -1 -7.47143 20.2646 1
2 -2 -2 56820.8 335.41 1
2 -2 2 57255.9 325.583 1
-2 2 3 11.4224 37.5439 2
-2 2 3 29.8485 27.7842 1
-2 2 -3 -2.63559 18.7686 1
2 -2 3 8.60416 23.9178 1
2 -2 3 11.1644 24.7332 2
2 -2 -3 -1.58862 29.666 2
2 -2 -3 -20.6881 28.4171 1
2 -2 4 300855 1477.26 1
-2 -2 4 295899 1479.1 1
2 -2 -4 303704 1510.7 1
-2 2 4 296047 1514.28 2
-2 2 5 -6.78456 36.1257 2
-2 2 -5 -0.87981 18.4475 1
2 2 -5 2.68888 23.0143 2
2 -2 5 -2.09168 23.079 2
-2 -2 5 -5.1483 20.6191 1
2 -2 -5 25.3534 32.5767 1
-2 2 6 6954.51 87.2615 2
2 -2 -6 7603.09 87.8703 1
2 -2 -7 -5.96625 31.1028 1
-2 2 7 -7.02319 36.2052 2
-3 0 1 132366 697.374 1
-3 0 -1 131314 689.136 2
3 0 2 41726.3 262.777 2
-3 0 2 40684.6 251.895 2
3 0 -3 291475 1457.14 2
3 0 -3 287503 1446.04 1
-3 0 3 289473 1449 2
-3 0 3 290671 1455.71 1
0 -3 4 14.1667 18.5066 1
0 3 -4 -3.4589 19.9783 2
-3 0 4 43.068 29.9226 1
-3 0 5 68613 377.917 2
-3 0 5 69205.2 386.055 1
-3 0 6 1782.81 42.2922 1
3 0 -6 1679.32 45.0703 1
3 0 7 141.63 36.7542 2
-3 0 -7 105.141 30.267 1
-3 1 0 243281 1243.04 2
3 -1 0 247109 1240.77 1
-3 1 0 246134 1245.82 1
3 -1 0 242675 1247.36 2
3 -1 -1 77921.8 451.967 2
-3 1 -1 79698.6 449.881 1
-3 1 1 76562.5 448.45 1
3 -1 -1 89293 468.954 1
-1 3 -1 81962.8 447.394 2
3 -1 1 75851.5 448.571 2
-3 1 -1 78675.2 448.814 2
3 -1 1 86024.4 454.833 1
3 -1 2 55017.6 321.679 2
-1 3 -2 55860.2 311.976 2
3 -1 -2 46498.8 316.203 1
-3 1 2 51466.1 326.011 2
3 -1 -2 55907.6 321.291 2
-3 1 2 55794.4 321.895 1
1 -3 2 56692.2 310.616 1
3 1 -2 48595.2 306.087 2
-3 -1 2 53860.2 314.675 1
3 -1 2 56482 312.095 1
-1 3 -3 32976.8 210.611 2
-3 -1 3 36783.7 226.123 1
1 -3 3 35593.3 211.554 1
3 -1 -3 33974.7 221.845 1
-3 1 -3 33887.7 218.193 2
-3 1 -3 32969.2 218.662 1
3 -1 3 31269 220.893 2
-3 1 3 34665.1 229.805 2
-3 1 3 34660.4 225.692 1
3 1 -3 35954 227.324 2
3 -1 -3 34083.1 222.621 2
3 -1 -4 1512.13 52.2054 1
-3 1 4 1162.77 45.3169 2
1 -3 4 1338.97 33.1847 1
-3 -1 4 1287.1 39.3845 1
-3 1 -4 1337.59 42.524 1
3 -1 -4 1311.44 42.9516 2
-3 1 4 1293.23 41.336 1
3 1 -4 1174.8 41.4927 2
-1 3 -4 1120.52 33.7389 2
3 -1 -5 4702.77 69.9722 2
-3 -1 5 4714.16 62.0015 1
1 -3 5 4414.26 39.6627 1
3 -1 -5 5344.05 69.4171 1
3 -1 6 1958.68 49.8928 2
3 -1 -6 2344.86 49.743 1
-3 -1 6 2513.05 47.7945 1
3 1 -6 2215.64 45.6646 2
-3 1 -6 2072.13 44.2131 1
-3 1 6 2146.3 51.4691 2
3 -1 -7 1281.3 39.4394 1
-3 1 7 1095.04 40.5299 2
3 -2 0 16.28 30.9597 1
-3 2 0 5.3994 34.0288 2
2 -3 0 -10.7368 31.8855 1
3 -2 0 12.1005 36.7737 2
-2 3 0 4.30383 33.504 2
2 -3 0 2.76888 35.3683 2
-3 2 0 27.5231 32.8988 1
-2 3 0 3.27143 28.2189 1
3 -2 1 127849 675.789 1
-2 3 -1 126511 675.04 2
-3 2 -1 127881 674.736 2
-2 3 1 131648 673.027 1
3 -2 -1 125317 671.087 2
-2 3 1 122109 674.278 2
3 -2 1 124783 671.213 2
-3 2 -1 120855 667.043 1
2 -3 -1 121959 672.44 1
3 -2 -1 123820 679.936 1
-2 3 -1 125270 665.112 1
3 -2 -2 294593 1585.24 2
-3 2 -2 312915 1602.3 2
3 -2 2 315197 1597.01 1
3 -2 2 307868 1589.59 2
3 -2 -2 316881 1609.17 1
2 -3 2 318268 1584.23 2
-2 3 2 321998 1593.65 1
-3 2 -2 309069 1591.83 1
-2 3 -2 327047 1595.08 2
2 -3 2 340004 1595.86 1
-2 3 -2 324465 1585.14 1
2 -3 -2 321687 1608.01 1
-2 3 3 4921.72 75.2952 2
3 -2 -3 5616.14 80.7897 1
-3 2 -3 5191.22 68.3028 1
3 -2 -3 5490.22 77.9586 2
3 -2 3 5386.02 74.5136 2
-3 2 -3 5512.64 76.0153 2
-2 3 -3 5332.46 65.0129 1
2 -3 3 5294.57 69.7244 2
-3 2 3 5381.61 79.3187 2
2 -3 -3 5197.95 73.8145 1
2 -3 3 5302.86 69.1353 1
-3 2 3 5742.39 79.9963 1
-2 3 -4 723.174 38.6252 2
2 -3 4 824.845 38.6863 2
3 -2 4 765.917 41.3022 2
3 -2 -4 836.104 48.8161 2
-2 3 4 844.909 50.4091 2
3 -2 -4 792.635 42.5731 1
-3 2 -4 822.042 41.6415 2
-3 -2 4 796.519 34.9145 1
-2 3 -4 789.293 30.2058 1
-3 2 -4 839.904 35.0136 1
3 -2 4 830.663 39.422 1
3 2 -4 791.889 41.9929 2
-3 2 4 862.209 42.58 1
-3 2 4 738.031 47.0391 2
3 -2 5 1242.37 40.963 2
-2 3 5 1064.21 48.2735 2
2 -3 -5 1186.39 49.6398 1
-2 -3 5 1097.86 35.3146 1
-2 3 -5 1031.31 35.8143 2
-3 2 -5 1354.46 39.4658 1
3 -2 -5 1391.22 53.6847 2
3 -2 -5 1205.72 46.6133 1
2 -3 5 1233.74 32.0973 1
3 2 -6 13995.9 106.284 2
-3 2 6 13694.5 126.427 2
2 -3 -7 1638.74 49.9886 1
-2 3 7 1570.15 50.9724 2
-3 2 7 1733.39 51.1135 2
-3 3 0 336239 1694.78 1
3 -3 0 338744 1705.37 1
3 -3 -1 72.6779 41.0242 1
-3 3 -1 -19.2909 43.3958 2
-3 3 1 33.8251 43.1831 2
3 -3 -1 9.85664 39.9711 2
-3 3 1 7.59556 38.2184 1
3 -3 2 27221.7 192.767 2
-3 3 -2 26812.8 189.777 1
3 -3 2 30965.8 206.789 1
3 -3 -2 26133.3 200.015 2
-3 3 2 28820.6 202.636 1
-3 3 -2 31280.6 211.168 2
3 -3 3 -8.19938 31.7831 1
3 -3 -3 -3.92108 40.5248 1
-3 3 -3 2.58212 43.2717 2
-3 3 3 4.78177 46.5854 2
3 -3 -3 -8.45147 45.4945 2
-3 3 3 7.04629 38.1085 1
-3 3 -3 3.00313 30.0189 1
3 -3 3 9.49326 33.807 2
-3 3 -4 9636.86 93.35 1
3 -3 4 8956.25 89.7984 2
3 -3 -4 9559.38 112.011 2
-3 3 4 8459.65 105.687 2
-3 3 -4 8249.25 91.6331 2
-3 3 4 8837.6 97.7304 1
3 -3 4 8751.74 88.2788 1
3 -3 5 -0.47001 25.7648 1
3 -3 -5 -0.27599 40.3522 1
-3 3 -5 -6.39463 31.8192 2
-3 3 5 7.3577 45.086 2
3 -3 5 13.7951 33.8888 2
-3 3 -5 -5.89015 28.1547 1
3 -3 -6 783.072 47.3472 1
-3 3 6 785.537 51.4375 2
3 -3 6 828.153 38.7342 2
-3 3 -6 777.439 29.9915 1
-3 -3 6 480.674 30.8055 1
3 3 -6 521.034 36.2468 2
3 -3 -7 5.82025 38.2507 1
-3 3 7 -12.8221 41.9602 2
-4 0 0 999999 4892.02 1
-4 0 -1 4636.98 73.975 1
-4 0 1 4397.62 66.6836 2
4 0 -1 4581.24 77.8853 2
4 0 -1 4535.28 65.354 1
4 0 1 4474.21 77.6581 1
-4 0 2 31354 220.026 1
4 0 2 31877.3 226.534 2
-4 0 3 1207.76 49.4347 1
4 0 -3 1338.36 45.3629 1
-4 0 3 1238.64 47.0907 2
4 0 -3 1266.94 52.2634 2
4 0 -4 40717.1 259.534 2
-4 0 4 41168 254.774 1
0 -4 5 364.176 25.6893 1
-4 0 5 414.397 41.744 1
-4 0 6 625.205 44.5402 1
4 0 -6 548.017 43.3003 2
4 0 -6 603.83 43.6489 1
-4 0 6 465.77 38.2884 2
4 0 -7 123.376 41.1249 2
-4 1 0 5.27157 42.1739 2
4 -1 0 -1.07222 41.795 2
4 -1 0 -13.1717 36.9641 1
-4 1 0 6.1486 39.6029 1
4 -1 1 275.8 40.3772 2
-4 1 1 340.91 42.4039 1
4 -1 1 292.763 33.3346 1
4 -1 -1 264.06 35.8095 1
-4 1 -1 226.344 37.1765 2
-4 1 1 170.741 38.2015 2
-4 1 -1 375.975 44.35 1
4 -1 -1 257.208 42.9539 2
-4 1 2 106329 580.201 2
4 -1 2 108185 587.504 2
-4 1 2 105779 581.657 1
4 1 -2 104189 582.967 2
-4 -1 2 108431 581.188 1
-4 1 -3 41996.7 270.494 1
4 -1 -3 44150.2 279.071 2
-1 4 -3 37064 252.137 2
1 -4 3 41124.2 260.917 1
4 -1 3 39365.4 271.526 2
-4 1 3 40144.8 268.572 1
4 -1 3 42471.6 273.041 1
-4 1 -3 40844.8 262.475 2
-4 1 3 40721.7 265.284 2
4 1 -3 41571.6 272.992 2
4 -1 -3 40812.2 264.559 1
-4 1 4 653.507 45.6401 2
4 -1 -4 640.647 40.1597 1
4 -1 -4 721.756 46.4405 2
-4 -1 4 667.642 41.8095 1
4 1 -4 671.325 46.1236 2
-4 1 4 794.433 44.1098 1
4 -1 4 649.378 48.0146 2
4 1 -5 13089.6 119.725 2
4 -1 5 13433.6 128.71 2
-4 -1 5 11960.1 112.283 1
4 -1 -5 12633.8 117.068 2
4 -1 -5 12969.2 118.962 1
1 -4 5 11751.3 98.5665 1
-4 1 5 12914.1 118.673 1
-1 4 -5 11939.5 103.646 2
4 -1 -6 5238.82 81.8176 2
4 1 -6 5166.2 76.3813 2
-4 1 6 5485.36 80.0151 1
-4 1 -6 4758.03 77.1459 1
4 -1 6 4262.79 75.9858 2
4 -1 -6 5060.18 72.589 1
-4 -1 6 5511.64 76.0382 1
-4 1 6 4070.12 63.8806 2
-4 1 7 138.797 34.6472 2
4 -1 -7 197.287 33.6656 1
-4 1 -7 132.199 33.2522 1
4 -2 0 21954.5 177.838 1
2 -4 0 16598 148.752 1
-2 4 0 15951.7 153.45 2
-4 2 0 17482.5 155.393 1
-2 4 0 20394.8 158.664 1
-4 2 1 136689 749.683 1
-4 2 -1 138104 745.991 1
4 -2 1 136367 745.923 1
-2 4 -2 20580.3 166.012 2
4 -2 -2 21110.6 169.827 1
-4 2 -2 18809.1 161.659 1
4 -2 2 20056.2 168.916 2
-2 4 -2 22969.2 166.918 1
4 -2 2 20450.4 159.518 1
-4 2 -2 18681.7 159.195 2
2 -4 2 21531.1 169.029 1
4 -2 -3 64029.9 375.864 1
4 -2 -3 56635 350.086 2
4 -2 3 62131.3 351.187 1
-4 2 -3 59687.1 354.031 1
-4 2 -3 57780.2 348.547 2
4 -2 3 58193.8 355.696 2
-4 2 3 57081.4 359.703 2
-4 2 3 53571.4 347.089 1
-4 2 4 9935.91 113.354 2
4 -2 4 9741.9 105.071 2
-4 2 -4 9968.15 102.239 1
4 -2 4 10143.7 104.648 1
-4 2 4 11584.8 116.845 1
4 -2 -4 10077.4 109.375 1
4 2 -4 10231 110.33 2
-4 -2 4 9916.09 107.844 1
-4 2 -4 11091.5 111.294 2
4 -2 -4 10811.7 111.686 2
-2 4 -4 9382.32 102.684 2
4 -2 5 12391.8 120.27 2
-4 -2 5 11648.5 120.355 1
4 2 -5 11168.4 117.887 2
4 -2 -5 11749 120.318 2
-4 2 -5 11144.5 111.794 1
4 -2 -5 11369.7 118.703 1
-2 4 -5 12277 112.9 2
4 -2 6 1768.65 52.7974 2
4 -2 -6 1740.6 61.2489 2
4 2 -6 1533.68 50.9988 2
-4 2 -6 1703.76 48.5675 1
-4 2 6 1882.62 54.0945 1
-4 -2 6 1471.87 43.5331 1
2 -4 6 1524.99 31.6128 1
-2 4 -6 1497.79 41.1746 2
-4 2 6 1708.14 58.7765 2
4 -2 -6 1850 58.0758 1
-4 2 7 3360.09 68.5171 2
4 -2 -7 3596.72 67.0718 1
-4 3 0 -3.9906 34.7475 1
3 -4 0 10.7123 41.9768 1
-3 4 0 -10.6268 39.1936 1
4 -3 0 4.63953 41.7088 1
-4 3 0 18.4392 52.1056 2
-3 4 0 16.2339 49.5375 2
4 -3 0 5.34021 38.1677 2
3 -4 0 -9.25079 49.124 2
-3 4 1 15248.2 160.272 2
-4 3 -1 16467.3 148.141 1
4 -3 -1 15641.3 141.728 2
3 -4 1 15025.7 142.057 2
4 -3 -1 17001.2 156.959 1
-3 4 1 15854.6 144.148 1
3 -4 1 16766.6 153.458 1
-4 3 1 16524 146.231 1
3 -4 -1 17580.4 160.726 1
-4 3 -1 16462.9 151.6 2
-4 3 1 15064.3 153.664 2
4 -3 2 2136 54.2298 1
4 -3 2 1680.77 57.3634 2
4 -3 -2 2143.42 62.5618 2
-4 3 -2 2150.85 66.4959 2
3 -4 2 1804.67 59.3347 2
4 -3 -2 2322.65 65.6096 1
-3 4 -2 1920.52 53.1743 1
3 -4 2 2046.34 56.2202 1
-3 4 -2 2006.82 65.5711 2
-3 4 2 1904.73 56.8971 1
3 -4 -2 2259.35 63.3364 1
-4 3 -2 2225.85 56.1912 1
-3 4 2 1949.74 67.1209 2
-3 4 3 53682.3 349.704 2
4 -3 3 52182.3 326.306 2
4 -3 -3 53003.7 334.524 2
3 -4 3 51677.4 330.14 1
-4 3 3 59501.6 354.049 1
3 -4 3 52504.5 319.251 2
4 -3 -3 53469.7 347.769 1
3 -4 -3 50822.1 332.466 2
-3 4 -3 52954.3 321.986 1
-3 4 3 61592.3 352.913 1
-3 4 -3 49358 331.072 2
3 -4 -3 52331 346.991 1
-4 3 -3 52880 330.061 1
-4 3 3 51432 343.015 2
-3 4 -4 15.777 29.5448 1
3 -4 -4 11.3333 45.489 1
-3 4 -4 6.64371 43.8046 2
-4 3 4 -16.0134 46.5017 2
4 -3 -4 -16.7869 44.593 1
-3 4 4 -5.06711 52.5476 2
4 -3 -4 -7.95665 45.9831 2
-4 3 -4 0.99325 33.5417 1
-4 3 4 0.77737 40.7314 1
-3 4 5 19512.2 177.349 2
4 -3 5 19148.7 146.83 2
4 -3 -5 19097.6 168.973 1
4 -3 -5 19652.8 167.273 2
3 -4 5 16467.1 137.82 2
-3 4 -5 19144.1 148.755 2
3 -4 -5 18692.3 170.871 1
-3 4 -5 21458.3 153.11 1
4 -3 5 17860.7 146.977 1
-4 3 -5 18102.1 142.821 1
3 -4 5 19753.3 145.083 1
3 -4 -6 144.182 41.7152 1
4 -3 6 215.914 40.0277 2
-4 3 -6 213.705 37.5808 1
4 -3 -6 212.664 44.1542 1
-4 -3 6 149.393 38.3106 1
-4 3 6 213.143 48.3644 2
4 3 -6 151.097 43.9922 2
-3 4 6 157.709 49.5146 2
3 -4 6 198.271 30.2022 1
-3 4 -6 203.988 39.3657 2
4 -3 -7 27.3083 36.2161 1
-4 3 7 -15.7905 47.4515 2
-3 4 7 -13.2007 47.7616 2
3 -4 -7 29.1246 40.3263 1
-4 4 0 159550 856.552 1
4 -4 0 157762 864.084 1
4 -4 0 157009 845.564 2
-4 4 0 157672 870.932 2
-4 4 1 -2.05897 50.2185 2
4 -4 1 21.0672 43.1547 1
-4 4 1 -27.4535 40.829 1
4 -4 1 -20.6012 43.9594 2
4 -4 -1 -37.9522 43.5015 2
4 -4 -1 16.5885 44.6435 1
-4 4 -2 5494.47 96.4521 2
4 -4 2 5823.96 91.3756 1
4 -4 -2 5551.31 89.5785 2
-4 4 2 5869.73 89.2243 1
4 -4 -2 5796.8 95.4081 1
4 -4 3 21.5188 37.2728 1
-4 4 -3 4.85364 43.3928 1
-4 4 -3 -4.85853 49.6804 2
-4 4 3 -0.33717 55.2859 2
4 -4 3 -23.5568 44.3663 2
4 -4 -3 10.045 43.4273 2
4 -4 -3 21.9507 43.4748 1
-4 4 3 7.8379 41.6978 1
4 -4 4 9391.44 102.534 2
4 -4 -4 9397.49 118.793 2
-4 4 4 9271.18 106.63 1
4 -4 4 9832.65 104.548 1
-4 4 4 9828.18 126.103 2
-4 4 -5 -2.41437 40.3009 2
-4 4 5 17.9466 51.3489 2
4 -4 5 -7.81333 42.179 2
4 -4 -5 -17.0492 45.0394 1
-4 4 -5 -13.4606 34.7275 1
4 -4 5 3.54139 31.3166 1
4 -4 -6 290.607 44.948 1
-4 4 -6 310.299 42.702 2
-4 4 -6 191.106 31.5782 1
4 -4 6 323.863 34.4288 1
-4 4 6 314.208 52.5753 2
4 -4 -7 5.20318 44.7909 1
-4 4 7 -24.3476 46.6841 2
-5 0 0 2.55456 44.474 1
-5 0 0 6.99484 42.118 2
5 0 1 11398.2 133.57 2
-5 0 -1 11468.7 129.429 1
-5 0 2 158988 858.592 1
-5 0 2 156609 838.834 2
-5 0 4 197.696 42.8643 2
5 0 -4 216.897 46.699 2
5 0 -4 212.719 39.883 1
-5 0 4 164.735 43.4487 1
5 0 -5 2907.99 69.6868 2
5 0 -5 2769.44 66.8283 1
-5 0 5 2710.98 65.4237 1
-5 0 5 2766.05 62.3659 2
5 0 -6 12603.4 121.444 2
5 0 -6 12295.5 132.28 1
-5 1 0 22519.6 192.131 1
5 -1 0 22736 181.752 1
-5 1 1 12391 133.038 1
5 -1 -1 12736.7 125.229 1
-5 1 -2 7184.54 98.5689 1
5 -1 2 7447.45 106.444 2
5 -1 2 7385.54 96.6383 1
5 1 -2 7258.06 105.298 2
-5 1 -2 7348.26 103.203 2
-5 -1 2 7364.25 97.1644 1
5 -1 -3 8399.27 105.891 2
-5 1 -3 8335.71 103.801 1
-5 1 3 8366.73 105.014 1
5 -1 3 8261.29 107.247 1
-5 1 -3 8692.2 104.346 2
5 -1 -3 8119.95 98.8899 1
5 1 -3 8585.58 109.316 2
5 -1 3 7992.8 109.71 2
1 -5 4 40622.5 258.592 1
5 -1 -4 40714 266.333 2
-5 1 -4 42295.7 280.7 1
-5 -1 4 38327.2 267.579 1
5 -1 -4 39372.1 258.332 1
-5 1 4 37828.5 259.362 1
5 -1 4 38483.8 271.231 2
5 1 -4 38442.9 270.285 2
-1 5 -5 1181.3 49.6866 2
-5 -1 5 1432.17 54.6514 1
1 -5 5 1142.78 39.1596 1
-5 1 5 1351.32 53.5699 2
-5 1 5 1414.27 53.0924 1
5 1 -5 1430.93 58.7195 2
5 1 -6 1884.8 62.2688 2
-5 1 6 2342.6 69.5361 1
-5 1 6 1914.67 54.5407 2
5 -1 -6 2117.2 61.44 2
-5 -1 6 1991.62 57.9627 1
5 -1 -6 2173.05 57.0246 1
5 -1 -7 494.28 42.5094 2
5 -1 -7 554.684 44.193 1
-5 2 0 -0.29092 44.5722 2
5 -2 0 -12.8673 47.4623 2
-5 2 0 -13.0316 41.2893 1
5 -2 0 -4.3053 40.1735 1
-5 2 -1 136306 754.568 1
-5 2 1 140687 759.765 1
-5 2 -1 134871 758.245 2
-5 2 1 134979 753.412 2
5 -2 -1 142544 755.307 1
5 -2 -2 40.8165 42.0461 1
-5 2 -2 76.3226 43.6689 2
5 -2 2 65.8153 52.7379 2
5 -2 -2 58.8657 46.5529 2
-2 5 -2 32.8752 45.2949 2
-5 2 -2 85.9724 44.8644 1
2 -5 2 53.1928 37.7861 1
5 -2 2 69.8227 35.0336 1
-2 5 -3 9139.13 113.946 2
5 -2 -3 10795.3 118.456 2
-5 2 -3 9781.73 107.541 2
-5 2 -3 10589.1 119.009 1
5 -2 3 9328.72 103.27 1
2 -5 3 10063 111.485 1
5 -2 3 10004.6 120.505 2
-5 2 3 10826.3 124.452 2
-5 2 3 10753.2 119.381 1
5 -2 -3 11310 123.558 1
-5 2 4 26.5472 46.3134 2
5 -2 4 29.5537 50.2767 2
-5 2 -4 -4.3311 40.58 1
5 -2 4 24.4777 41.4544 1
5 -2 -4 11.5109 43.2565 1
5 -2 5 4766.75 83.4638 2
-5 -2 5 5277.03 89.9445 1
-5 2 5 5619.33 90.8887 1
5 -2 -5 5330.02 86.9557 2
-5 2 -5 4578.84 76.9412 1
-5 2 5 4758.68 82.4198 2
-5 2 6 30.1372 39.2812 1
-5 2 -6 9.76875 38.5428 1
-5 2 6 6.9068 41.9996 2
-2 5 -6 14.3271 35.0126 2
5 2 -6 -1.43682 46.5466 2
5 -2 6 9.00144 48.7071 2
5 -2 -6 -2.25566 48.9238 2
-5 -2 6 -22.7802 37.7093 1
5 -2 -6 -10.2878 40.0275 1
5 -2 -7 2434.72 67.5667 2
5 -2 -7 2882.72 64.71 1
5 -3 0 594.441 47.3844 1
5 -3 0 517.616 53.0642 2
-3 5 0 559.498 59.6035 2
3 -5 0 402.97 49.1371 2
-3 5 0 543.633 48.6688 1
-5 3 0 576.934 51.6611 1
3 -5 0 611.97 51.7599 1
-5 3 0 613.977 58.9167 2
5 -3 -1 30631 230.823 1
-3 5 -1 27115.3 238.902 2
3 -5 1 29654 232.929 1
-3 5 1 28823.5 244.034 2
5 -3 -1 29364.5 231.032 2
3 -5 1 28364.1 220.851 2
-3 5 -1 30916.1 225.277 1
-3 5 1 34517.6 239.586 1
-5 3 -1 28646.6 220.621 1
-5 3 -1 31143.7 240.371 2
3 -5 -1 33590.1 250.768 1
-5 3 1 28873.4 235.079 2
-5 3 1 31365 233.796 1
-3 5 -2 4383.31 89.6662 2
5 -3 2 4546.74 81.4549 2
5 -3 -2 5122.47 91.7113 1
-5 3 -2 4763.52 78.8512 1
3 -5 2 4395.04 82.8513 1
-3 5 -2 4914.37 79.7867 1
-5 3 -2 4575.81 85.9664 2
5 -3 2 4708.06 78.8919 1
5 -3 3 21681.1 178.006 1
5 -3 3 19020.3 167.15 2
5 -3 -3 21613.2 189.591 1
-5 3 3 20121.5 166.759 1
5 -3 -3 19283 167.457 2
3 -5 3 19292.5 162.579 2
3 -5 3 19540.7 170.18 1
-5 3 -3 19031.9 165.361 1
-3 5 -3 20497.8 161.508 1
-5 3 -3 21656.7 181.032 2
-3 5 -3 19380.7 177.501 2
-5 3 3 19889.5 180.786 2
5 -3 -4 6422.94 97.0944 1
3 -5 4 6286.55 89.1237 1
5 -3 -4 6382.38 94.1277 2
-5 3 -4 6823.25 94.4137 2
-5 3 -4 6987.79 93.776 1
-5 3 4 6874.9 104.207 2
-3 5 -4 5920.4 94.5458 2
5 -3 -5 3268.2 74.6559 1
5 -3 5 3573.43 75.0865 2
5 -3 -5 3546.18 78.404 2
5 -3 5 3293.16 68.306 1
-3 5 -5 3141.32 68.7507 2
-5 3 -5 3475.59 71.4679 1
3 -5 5 3092.24 60.3655 1
5 -3 6 863.198 48.9964 2
5 -3 -6 862.084 60.035 2
-5 3 6 943.917 52.1874 1
-5 3 6 888.147 58.2639 2
-5 3 -6 863.992 45.8219 1
-5 3 7 708.657 45.8009 2
5 -3 -7 1293.6 56.1521 1
5 -4 0 -14.4874 49.1361 1
-5 4 0 -10.9683 51.8614 2
-4 5 0 1.40231 54.7186 2
5 -4 0 6.64043 48.8078 2
4 -5 0 11.0137 39.0717 2
-4 5 0 -2.46738 39.7544 1
-5 4 0 0.54289 40.2532 1
4 -5 0 3.30115 45.0934 1
-4 5 1 6069.86 105.297 2
5 -4 1 7122.33 103.94 1
5 -4 1 5803.11 89.0323 2
5 -4 -1 5878.36 93.2094 2
5 -4 -1 6816.58 103.53 1
4 -5 1 6132.1 95.3137 2
4 -5 -1 4742.58 84.0219 2
-4 5 -1 5842.35 90.6965 1
4 -5 1 6589.79 100.521 1
-4 5 1 6702.78 94.8313 1
4 -5 -1 6878.13 105.191 1
-4 5 -1 6161.52 106.125 2
-4 5 2 37987.2 285.626 2
5 -4 2 34645.8 253.148 2
5 -4 -2 36975.9 264.172 2
5 -4 -2 40064.7 284.943 1
-5 4 2 45376.5 294.901 1
4 -5 2 36306.6 259.429 2
4 -5 -2 36717.5 272.205 2
4 -5 2 39577.9 281.668 1
-4 5 -2 37854.9 261.078 1
-4 5 2 34922.9 255.814 1
4 -5 -2 40891.7 290.349 1
-5 4 2 38653.8 283.898 2
-4 5 -2 38917.2 281.303 2
-4 5 3 1973.03 75.1321 2
4 -5 3 2075.37 60.5083 1
5 -4 -3 2019.5 69.5707 1
5 -4 -3 1965.6 69.0415 2
-5 4 3 2118.12 63.3694 1
-4 5 -3 1899.36 53.7863 1
4 -5 -3 1992.93 69.2674 1
-4 5 3 2071.49 66.2094 1
-4 5 -3 2023.47 70.7055 2
5 -4 3 2084.94 64.0094 1
-5 4 3 2022.62 74.6784 2
4 -5 -4 155.403 51.6286 1
4 -5 4 159.601 41.9556 1
-5 4 4 165.995 46.8522 1
-4 5 -4 121.082 55.7445 2
5 -4 -4 188.031 48.3026 1
-5 4 4 125.373 55.9269 2
-4 5 4 119.618 57.6609 2
5 -4 4 137.237 42.9905 2
5 -4 -4 128.454 57.0387 2
4 -5 4 141.859 46.7273 2
5 -4 4 134.658 43.8461 1
-5 4 -5 634.018 49.9519 1
5 -4 -5 599.172 55.3734 1
5 -4 5 586.574 51.7115 2
5 -4 -5 495.381 60.4655 2
4 -5 5 475.093 44.7639 2
4 -5 -5 503.285 51.2846 1
-4 5 -5 539.8 44.6333 1
5 -4 5 602.257 41.5865 1
-5 4 -5 547.948 50.9737 2
-4 5 -5 501.271 50.9973 2
4 -5 5 592.983 42.6676 1
-5 4 -6 3768.86 70.5965 1
-5 4 6 3636.53 84.5955 2
5 -5 0 19072.4 172.773 2
-5 5 0 19081.3 169.474 1
-5 5 0 19389 188.719 2
-5 5 -1 -26.8421 55.1145 2
5 -5 1 1.7587 46.1988 1
-5 5 1 0.74531 53.2615 2
5 -5 -1 -1.14369 50.3644 1
5 -5 1 -2.47204 52.0641 2
5 -5 -1 12.1356 50.1323 2
-5 5 -1 36.6076 43.5542 1
-5 5 1 50.5195 47.7856 1
5 -5 2 927.769 61.6439 1
5 -5 2 718.664 57.1986 2
-5 5 -2 786.489 50.0519 1
5 -5 -2 819.372 58.007 1
-5 5 -2 760.173 66.1337 2
5 -5 3 9.86553 42.9144 1
-5 5 -3 -4.37929 57.4931 2
-5 5 3 6.32222 57.5662 2
-5 5 -3 9.05112 42.7055 1
-5 5 3 2.27049 42.9539 1
5 -5 -3 30.0771 51.3042 1
5 -5 3 20.1919 49.8376 2
5 -5 -3 12.7858 52.7204 2
5 -5 4 18358.2 164.414 2
5 -5 -4 16200.6 168.315 2
-5 5 -4 18001.1 160.336 1
-5 5 4 17331.6 158.399 1
-5 5 -4 17041.9 166.647 2
5 -5 4 18674 164.417 1
-5 5 -5 8.21691 41.8589 2
5 -5 5 29.7066 39.7725 2
-5 5 -5 -5.64269 39.3855 1
5 -5 5 32.7114 43.2908 1
6 0 0 21077.5 197.568 1
-6 0 0 27747.2 234.166 1
-6 0 1 33324.2 252.494 1
6 0 -1 33646.8 250.619 1
-6 0 2 4310.24 89.4094 1
-6 0 2 4145.63 79.3779 2
6 0 -2 4329.23 90.194 2
-6 0 3 17360.3 166.211 1
6 0 -3 17419.3 166.052 2
-6 0 4 23.5016 44.1532 2
6 0 -4 36.3795 53.2105 2
-6 0 4 41.5666 46.737 1
6 0 -4 23.0374 42.5334 1
6 0 -5 3497.74 84.4612 2
-6 0 5 3458.31 71.018 2
-6 0 5 3423.3 77.4207 1
6 0 -5 3508.46 77.1086 1
6 0 -6 493.164 56.3245 2
-6 0 6 529.842 50.9924 1
-6 1 0 -0.2568 44.9951 2
-6 1 0 -13.5382 48.8097 1
6 -1 0 33.539 53.9946 2
6 -1 0 -1.3141 38.4301 1
-6 1 -1 27366.7 225.613 1
-6 1 1 27831.2 223.698 1
6 -1 1 26576.4 209.253 1
-6 1 -1 27334.5 213.942 2
6 -1 -1 26453 204.048 1
-6 1 1 26319.9 205.372 2
6 -1 1 26983.2 224.473 2
-6 1 -2 2087.19 72.801 1
-6 1 2 2035.39 68.5838 1
6 -1 2 2099.97 65.4661 1
-6 1 -2 1946.11 67.246 2
-6 1 2 2071.69 65.8645 2
6 -1 2 2046.77 71.8039 2
-6 -1 3 -6.86474 42.2905 1
-6 1 -3 -22.4487 49.0597 1
-6 1 3 4.52466 47.4459 2
6 -1 3 7.11043 54.7783 2
6 -1 -3 -43.9599 46.2629 2
6 -1 -3 8.50087 42.9155 1
-6 1 3 -21.738 41.0636 1
-6 1 4 11.6369 46.7735 1
-6 -1 4 5.31241 44.9033 1
-6 1 4 14.7998 45.8064 2
6 1 -4 -8.66086 52.2945 2
6 -1 -4 17.4348 54.1755 2
6 -1 -4 19.8584 42.1714 1
-6 1 -5 16.0824 47.5386 1
-6 1 5 -5.20197 46.6644 2
6 -1 5 30.7304 58.6853 2
6 1 -5 -42.9552 50.6251 2
-1 6 -5 21.3402 45.233 2
6 -1 -5 -25.2452 50.9775 2
-6 1 5 1.29359 44.8876 1
-6 -1 5 -6.24364 42.6127 1
6 -1 -5 14.5352 41.9818 1
-6 -1 6 222.179 47.3466 1
-6 1 6 210.117 47.3474 2
6 -1 6 146.341 54.7425 2
-6 1 -6 208.616 46.7543 1
6 1 -6 182.888 52.4889 2
6 -1 -6 225.138 49.3299 2
6 -1 -6 228.021 46.7879 1
-6 1 6 189.54 41.4798 1
6 -2 0 21509.7 194.265 2
6 -2 0 20882.1 175.883 1
6 -2 -1 906.371 59.899 2
-6 2 -1 1005.8 58.2685 1
-6 2 1 1055.6 55.8485 1
-6 2 1 1001.59 63.9937 2
6 -2 -1 1134.88 61.8568 1
-6 2 -2 3517.99 77.677 1
6 -2 2 3116.08 65.9639 1
-6 2 2 3491.08 77.8156 1
-6 2 -2 3073.3 74.468 2
6 -2 2 3287.65 83.8468 2
6 -2 -3 546.13 59.036 2
-6 2 -3 563.201 49.8743 1
6 -2 3 557.468 47.094 1
-6 2 3 612.353 54.163 1
-6 2 3 555.951 55.1526 2
6 -2 -3 575.787 47.4024 1
6 -2 3 568.047 61.7198 2
-2 6 -4 21102.2 191.267 2
-6 2 -4 24113.2 187.439 2
6 -2 -4 21657.1 181.099 2
-6 2 -4 23594 195.69 1
2 -6 4 22076.2 183.884 1
-6 2 4 21042.5 181.709 2
-6 2 4 20920.7 178.184 1
-6 2 5 217 42.0199 1
-6 -2 5 201.935 46.8679 1
-6 2 5 203.223 54.3748 2
6 2 -5 112.035 53.4386 2
-2 6 -5 181.926 49.9761 2
6 -2 5 182.664 56.5555 2
2 -6 5 165.374 39.6996 1
-6 2 -5 135.723 42.1212 1
6 -2 6 846.548 61.2577 2
6 -2 -6 913.816 57.2707 2
-6 2 6 984.518 55.4994 1
-6 -2 6 897.108 55.0843 1
-6 2 -6 866.402 51.9395 1
-6 2 6 789.964 48.3239 2
6 -2 -6 876.365 47.2436 1
-6 3 0 17.3128 54.1943 2
-6 3 0 9.87513 44.7911 1
6 -3 0 -5.43568 48.9891 2
6 -3 0 14.2987 43.8011 1
6 -3 -1 2513.05 75.9547 2
-6 3 -1 2782.26 69.5392 1
-6 3 -1 2558.41 73.5563 2
-6 3 1 2705.3 72.9341 1
6 -3 -1 2912.2 74.2613 1
6 -3 2 13147.1 144.046 2
-3 6 -2 12259.6 148.473 2
6 -3 -2 13574.3 146.573 2
-6 3 -2 12920 136.053 1
3 -6 2 12598.3 142.044 1
6 -3 2 13985.2 145.484 1
6 -3 -2 13939.1 146.953 1
-6 3 3 1766.72 63.1128 1
-3 6 -3 1495.64 67.6443 2
6 -3 3 1555.67 69.7025 2
6 -3 -3 1577.95 60.6681 2
-6 3 -3 1699.95 61.9123 1
6 -3 3 1786.49 60.8929 1
-6 3 -3 1710.04 66.1257 2
-6 3 3 1745.09 75.2079 2
6 -3 -3 1614.28 66.7394 1
-6 3 4 29.9437 46.0986 1
6 -3 -4 49.0884 47.3549 1
-6 3 4 48.8267 56.8611 2
-3 6 -4 26.9031 50.4065 2
6 -3 4 34.8842 56.1523 2
6 -3 -4 26.7289 49.1591 2
3 -6 4 30.911 45.0609 1
6 -3 4 26.6872 44.0507 1
6 -3 5 875.077 62.0777 2
3 -6 5 755.941 46.8237 1
-6 3 5 966.902 56.6744 1
6 -3 5 731.006 52.9978 1
-6 3 -5 863.072 55.4619 2
-6 3 -5 806.388 49.5298 1
-6 3 5 909.957 61.343 2
-3 6 -5 757.185 58.4537 2
6 -3 -6 1346.8 56.3075 1
-6 3 -6 1377.09 59.1118 1
6 -4 0 4687.05 84.957 1
-4 6 0 4154.67 98.9461 2
-4 6 0 4432.38 82.096 1
-6 4 0 4006.5 81.7809 1
-4 6 -1 6918.41 110.699 2
6 -4 -1 7430.29 105.741 1
-6 4 1 7003.11 97.449 1
-4 6 1 7484.83 121.799 2
6 -4 -1 7076.9 102.377 2
4 -6 1 7900.39 113.94 1
-4 6 -1 7732.45 102.281 1
4 -6 -1 7377.55 114.469 1
-4 6 1 7157.22 104.401 1
6 -4 1 7533.51 109.338 1
6 -4 -2 1540.96 63.4873 1
-6 4 2 1472.01 58.5648 1
6 -4 2 1440.31 62.1046 2
6 -4 -2 1446.97 61.2755 2
4 -6 2 1156.14 57.0398 2
4 -6 2 1616.41 63.1307 1
-4 6 -2 1655.45 58.5505 1
-6 4 -2 1609.04 67.9368 2
-6 4 2 1655.06 72.0926 2
6 -4 2 1739.49 61.4818 1
-6 4 -2 1402.06 53.3792 1
-4 6 -2 1484.17 75.7662 2
6 -4 -3 4233.76 86.4476 1
6 -4 3 3986.36 81.0017 2
6 -4 -3 4154.33 83.7619 2
-6 4 3 5256.68 97.5371 1
-4 6 -3 4122.51 77.0511 1
-6 4 -3 4666.42 96.1799 2
6 -4 3 5018.01 92.9626 1
-6 4 3 4224.66 92.4312 2
-6 4 -3 3733.42 73.6229 1
-4 6 -3 4052.64 91.9532 2
-6 4 -4 239.073 42.6716 1
4 -6 4 229.162 47.7473 1
-6 4 4 295.625 49.4358 1
-4 6 -4 249.362 57.2071 2
6 -4 4 203.202 47.7747 2
6 -4 -4 196.476 52.4568 2
6 -4 4 232.621 41.4766 1
-6 4 -5 978.92 50.4105 1
6 -4 5 1278.31 60.1075 2
6 -4 5 1108.85 55.8053 1
-6 4 -5 1349.89 63.7372 2
6 -5 0 -5.81935 51.2115 1
-6 5 0 1.06859 53.0328 1
-5 6 0 17.5618 44.2026 1
-5 6 0 -6.82141 59.8737 2
6 -5 1 11426.2 131.641 1
6 -5 1 11027 128.268 2
5 -6 1 11497.8 140.623 1
-5 6 -1 10262.5 119.91 1
-6 5 -1 11198.4 140.37 2
-5 6 -1 10619.6 142.331 2
-6 5 -2 650.69 55.4143 1
6 -5 2 550.447 54.4179 2
5 -6 2 587.446 57.4379 1
5 -6 2 437.267 55.1923 2
-5 6 -2 543.415 45.3752 1
-6 5 -2 532.898 62.321 2
-5 6 -2 532.196 67.0101 2
-6 5 -3 652.918 51.9721 1
6 -5 3 533.853 60.3184 2
-5 6 -3 537.886 45.139 1
-6 5 -3 599.892 60.7678 2
-5 6 -3 590.064 66.656 2
6 -5 3 566.574 53.0278 1
5 -6 4 35.7769 40.7793 1
-6 5 -4 55.0127 59.1017 2
-5 6 -4 24.1008 55.1481 2
-6 5 -4 27.1997 50.4332 1
-5 6 -4 -7.21871 38.6597 1
6 -5 4 25.4628 51.0361 2
5 -6 4 30.1947 53.2083 2
6 -5 4 3.54446 50.8311 1
6 -5 5 335.68 53.0444 2
5 -6 5 295.909 52.0922 2
-6 5 -5 315.451 42.5026 1
-5 6 -5 307.679 44.8619 1
6 -5 5 414.401 47.2997 1
-6 5 -5 369.465 56.1966 2
-5 6 -5 307.672 55.4926 2
5 -6 5 369.937 45.5701 1
-7 0 1 13371.9 150.934 1
7 0 -1 13065.8 149.426 1
-7 0 2 687.294 60.7852 1
7 0 -2 658.912 54.3256 1
-7 0 2 671.461 55.6821 2
7 0 -2 615.159 63.1749 2
-7 0 3 23293.4 206.968 1
7 0 -3 22905.8 201.478 1
-7 0 3 22631 186.017 2
7 0 -4 -26.8433 58.6738 2
7 0 -4 10.5536 50.7008 1
-7 0 4 33.9284 51.548 1
-7 0 5 10142.1 130.211 1
-7 0 6 94.0406 47.0651 1
7 0 -6 83.4718 53.2675 2
-7 1 0 26443.6 220.837 1
7 -1 0 23232.6 203.188 1
-7 1 0 24422.9 208.565 2
7 -1 0 25836.3 224.189 2
-7 1 1 9933.94 131.255 1
7 -1 1 9081.45 118.699 1
7 -1 -1 9294.79 118.902 1
-7 1 1 9798.47 122.234 2
7 -1 1 9431.74 135.695 2
7 -1 -1 9771.25 131.434 2
-7 1 -2 2345.14 76.6794 1
-7 1 2 2210 75.4752 1
7 -1 2 2192.4 73.4285 1
-7 1 -2 2171.83 69.5408 2
7 -1 2 2226.57 83.7731 2
7 -1 -3 6523.21 105.83 2
-7 1 -3 6375.09 109.962 1
-7 1 3 6049.7 98.464 1
7 -1 -3 5875.13 89.4987 1
-7 1 3 6402.96 93.9717 2
7 -1 3 5919.21 117.065 2
7 -1 -4 1172.7 69.0283 2
7 -1 -4 1010.74 49.7514 1
-7 1 4 1242.33 60.7587 2
7 1 -4 945.611 68.6003 2
-7 -1 5 1380.35 65.9344 1
7 -1 -5 1405.05 63.3155 1
-7 1 5 1524.17 64.4687 1
-7 -1 6 171.677 50.7189 1
7 1 -6 115.531 55.7114 2
7 -1 -6 103.205 43.6946 1
-7 2 0 131.949 52.5332 2
7 -2 0 79.3585 59.3315 2
7 -2 0 -2.76347 44.8375 1
-7 2 -1 363.807 54.6361 1
7 -2 -1 348.547 63.1161 2
-7 2 1 318.116 53.9429 1
-7 2 -1 413.806 52.1525 2
7 -2 -1 327.535 46.6289 1
-7 2 -2 33623.5 257.245 1
-7 2 2 30000.6 246.806 1
7 -2 2 30999 241.583 1
-7 2 -2 31364.8 240.942 2
-7 2 2 30875.5 238.283 2
7 -2 2 33236.9 261.28 2
7 -2 -3 2261.61 72.9342 2
-7 2 -3 2359.76 72.6194 1
7 -2 3 2354.6 69.3693 1
-7 2 -3 2352.32 72.2337 2
-7 2 3 2385.81 69.5021 1
7 -2 -3 2175.07 63.8033 1
7 -2 3 2373.01 79.9168 2
-7 2 4 132.051 49.6735 2
7 -2 -4 120.679 56.3493 2
-7 2 4 131.782 55.2611 1
-7 2 -4 116.607 47.3601 1
7 -2 -4 34.0215 41.3371 1
7 -2 5 1108.81 71.9258 2
7 -3 0 34413 269.244 2
-7 3 0 34019.8 264.148 2
7 -3 1 1382.86 74.4731 2
7 -3 -1 1414.92 68.1615 2
-7 3 1 1466.17 65.2212 1
7 -3 1 1394.98 58.464 1
-7 3 1 1323.09 63.9059 2
7 -3 -1 1413.98 58.5011 1
7 -3 2 1891.62 76.6038 2
7 -3 -2 1692.45 70.0815 2
-7 3 -2 1870.04 65.6656 1
7 -3 2 1837.54 62.962 1
-7 3 -2 1856.26 69.642 2
7 -3 3 1116.61 72.9651 2
-7 3 -3 1040.99 60.6575 1
-7 3 -3 1017.23 57.0266 2
3 -7 4 3290.06 79.5799 1
-3 7 -4 3091.6 87.2553 2
-3 7 -5 146.764 50.7951 2
-7 3 -5 202.257 49.4344 1
7 -3 5 251.939 59.1435 2
-4 7 -2 709.801 64.5063 2
4 -7 2 812.347 57.2338 1
4 -7 3 7167.44 112.383 1
-4 7 -4 -22.0499 53.8294 2
4 -7 4 -8.33284 45.7881 1
loop_
_geom_angle_atom_site_label_1
_geom_angle_atom_site_label_2
_geom_angle_atom_site_label_3
_geom_angle
_geom_angle_site_symmetry_1
_geom_angle_site_symmetry_3
_geom_angle_publ_flag
H1a O1 H1a 93(3) 13_575 . ?
H1b O1 H1a 115.2(14) . . ?
H1b O1 H1a 115.2(14) . 13_575 ?
H1c O1 H1a 108(3) . . ?
H1c O1 H1a 108(3) . 13_575 ?
H1c O1 H1b 116(3) . . ?
H2 O2 H2 110(2) . 7_454 ?
H2 O2 H2 110(2) 8_664 6_565 ?
H2 O2 H2 110(2) 8_664 . ?
H2 O2 H2 109(4) 6_565 . ?
H2 O2 H2 109(4) 8_664 7_454 ?
H2 O2 H2 110(2) 6_565 7_454 ?
H1a H1a O1 162(3) 8_665 . ?
H1b H1b O1 179.3(12) 6_665 . ?
H1c H2 O2 161(6) 6_565 7_454 ?
H2 H1c O1 171(7) 6_565 . ?
loop_
_geom_bond_atom_site_label_1
_geom_bond_atom_site_label_2
_geom_bond_distance
_geom_bond_site_symmetry_2
_geom_bond_publ_flag
O1 H1a 0.905(15) 13_575 ?
O1 H1a 0.905(15) . ?
O1 H1b 0.896(15) . ?
O1 H1c 0.930(18) . ?
O2 H2 0.916(18) 7_454 ?
O2 H2 0.916(18) 8_664 ?
O2 H2 0.916(18) 6_565 ?
O2 H2 0.916(18) . ?
H1a H1a 1.05(3) 8_665 ?
H1b H1b 0.93(3) 6_665 ?
H2 H1c 0.97(3) 6_565 ?
loop_
_restr_distance_atom_site_label_1
_restr_distance_atom_site_label_2
_restr_distance_site_symmetry_2
_restr_distance_target
_restr_distance_target_weight_param
_restr_distance_diff
O1 H1a 1 0.9520 0.0200 0.0468
O1 H1b 1 0.9520 0.0200 0.0559
O1 H1c 1 0.9520 0.0200 0.0222
O2 H2 1 0.9520 0.0200 0.0356
H1a H1b 1 1.5000 0.0400 -0.0207
H1b H1a 1 1.5000 0.0400 -0.0207
H1b H1c 1 1.5000 0.0400 -0.0447
