#------------------------------------------------------------------------------
#$Date: 2016-02-14 16:26:36 +0200 (Sun, 14 Feb 2016) $
#$Revision: 176435 $
#$URL: svn://www.crystallography.net/cod/cif/2/00/24/2002481.cif $
#------------------------------------------------------------------------------
#
# This file is available in the Crystallography Open Database (COD),
# http://www.crystallography.net/
#
# All data on this site have been placed in the public domain by the
# contributors.
#
data_2002481
loop_
_publ_author_name
'Boehlke, A'
'Mueller-Buschbaum, Hk'
_publ_section_title              'Zur Kenntnis von Ba2 Cu O2 Br0.5 I0.5'
_journal_name_full               'Journal of the Less-Common Metals'
_journal_page_first              L33
_journal_page_last               L35
_journal_paper_doi               10.1016/0022-5088(90)90451-O
_journal_volume                  158
_journal_year                    1990
_chemical_formula_structural     'Ba2 Cu O2 Br0.5 I0.5'
_chemical_formula_sum            'Ba2 Br0.5 Cu I0.5 O2'
_chemical_name_systematic
;
Barium copper(I) oxide bromide iodide (2/1/2/0.5/0.5)
;
_space_group_IT_number           166
_symmetry_cell_setting           trigonal
_symmetry_space_group_name_Hall  '-R 3 2"'
_symmetry_space_group_name_H-M   'R -3 m :H'
_cell_angle_alpha                90
_cell_angle_beta                 90
_cell_angle_gamma                120
_cell_formula_units_Z            3
_cell_length_a                   4.294(9)
_cell_length_b                   4.294(9)
_cell_length_c                   29.97299(8500)
_cell_volume                     478.6
_refine_ls_R_factor_all          0.069
_cod_original_sg_symbol_H-M      'R -3 m H'
_cod_original_formula_sum        'Ba2 Br.5 Cu I.5 O2'
_cod_database_code               2002481
loop_
_symmetry_equiv_pos_as_xyz
x,y,z
-y,x-y,z
y-x,-x,z
-y,-x,z
x,x-y,z
y-x,y,z
-x,-y,-z
y,y-x,-z
x-y,x,-z
y,x,-z
-x,y-x,-z
x-y,-y,-z
1/3+x,2/3+y,2/3+z
2/3+x,1/3+y,1/3+z
1/3-y,2/3+x-y,2/3+z
2/3-y,1/3+x-y,1/3+z
1/3-x+y,2/3-x,2/3+z
2/3-x+y,1/3-x,1/3+z
1/3-y,2/3-x,2/3+z
2/3-y,1/3-x,1/3+z
1/3+x,2/3+x-y,2/3+z
2/3+x,1/3+x-y,1/3+z
1/3-x+y,2/3+y,2/3+z
2/3-x+y,1/3+y,1/3+z
1/3-x,2/3-y,2/3-z
2/3-x,1/3-y,1/3-z
1/3+y,2/3-x+y,2/3-z
2/3+y,1/3-x+y,1/3-z
1/3+x-y,2/3+x,2/3-z
2/3+x-y,1/3+x,1/3-z
1/3+y,2/3+x,2/3-z
2/3+y,1/3+x,1/3-z
1/3-x,2/3-x+y,2/3-z
2/3-x,1/3-x+y,1/3-z
1/3+x-y,2/3-y,2/3-z
2/3+x-y,1/3-y,1/3-z
loop_
_atom_site_label
_atom_site_type_symbol
_atom_site_symmetry_multiplicity
_atom_site_Wyckoff_symbol
_atom_site_fract_x
_atom_site_fract_y
_atom_site_fract_z
_atom_site_occupancy
_atom_site_attached_hydrogens
_atom_site_calc_flag
Ba1 Ba2+ 6 c 0. 0. 0.7474(2) 1. 0 d
Cu1 Cu1+ 3 b 0. 0. 0.5 1. 0 d
Br1 Br1- 3 a 0. 0. 0. 0.5 0 d
I1 I1- 3 a 0. 0. 0. 0.5 0 d
O1 O2- 6 c 0. 0. 0.441(2) 1. 0 d
loop_
_atom_type_symbol
_atom_type_oxidation_number
Ba2+ 2.000
Cu1+ 1.000
Br1- -1.000
I1- -1.000
O2- -2.000
