#------------------------------------------------------------------------------
#$Date: 2016-02-14 16:26:36 +0200 (Sun, 14 Feb 2016) $
#$Revision: 176435 $
#$URL: svn://www.crystallography.net/cod/cif/2/00/31/2003105.cif $
#------------------------------------------------------------------------------
#
# This file is available in the Crystallography Open Database (COD),
# http://www.crystallography.net/. The original data for this entry
# were provided by IUCr Journals, http://journals.iucr.org/.
#
# The file may be used within the scientific community so long as
# proper attribution is given to the journal article from which the
# data were obtained.
#
data_2003105
loop_
_publ_author_name
'Ling, C. D.'
'Withers, R. L.'
'Thompson, J. G.'
'Schmid, S.'
_publ_section_title
;
 Structures of Bi~14~WO~24~ and Bi~14~MoO~24~ from neutron powder
 diffraction data
;
_journal_issue                   3
_journal_name_full               'Acta Crystallographica Section B'
_journal_page_first              306
_journal_page_last               312
_journal_paper_doi               10.1107/S0108768198014086
_journal_volume                  55
_journal_year                    1999
_chemical_formula_sum            'Bi14 O24 W'
_chemical_formula_weight         3493.57
_chemical_name_systematic
;
bismuth tungsten oxide
;
_space_group_IT_number           87
_symmetry_cell_setting           tetragonal
_symmetry_space_group_name_Hall  '-I 4'
_symmetry_space_group_name_H-M   'I 4/m'
_cell_angle_alpha                90.0
_cell_angle_beta                 90.0
_cell_angle_gamma                90.0
_cell_formula_units_Z            2
_cell_length_a                   8.71083(4)
_cell_length_b                   8.71083
_cell_length_c                   17.32202(10)
_cell_measurement_temperature    293
_cell_volume                     1314.370(10)
_computing_structure_refinement  GSAS
_diffrn_ambient_temperature      293
_diffrn_measurement_device       '6Li-doped glass scintillar'
_diffrn_measurement_method       time-of-flight
_diffrn_radiation_probe          neutron
_diffrn_radiation_source         spallation
_diffrn_radiation_type           neutron
_refine_ls_goodness_of_fit_all   2.71
_refine_ls_number_parameters     56
_cod_data_source_file            os0017.cif
_cod_data_source_block           W
_cod_original_cell_volume        1314.369(11)
_cod_original_formula_sum        Bi14WO24
_cod_database_code               2003105
loop_
_symmetry_equiv_pos_as_xyz
+x,+y,+z
-y,+x,+z
-x,-y,+z
+y,-x,+z
-x,-y,-z
+y,-x,-z
+x,+y,-z
-y,+x,-z
+x+1/2,+y+1/2,+z+1/2
-y+1/2,+x+1/2,+z+1/2
-x+1/2,-y+1/2,+z+1/2
+y+1/2,-x+1/2,+z+1/2
-x+1/2,-y+1/2,-z+1/2
+y+1/2,-x+1/2,-z+1/2
+x+1/2,+y+1/2,-z+1/2
-y+1/2,+x+1/2,-z+1/2
loop_
_atom_site_aniso_label
_atom_site_aniso_U_11
_atom_site_aniso_U_22
_atom_site_aniso_U_33
_atom_site_aniso_U_12
_atom_site_aniso_U_13
_atom_site_aniso_U_23
O(1) .050(4) .050(4) .017(5) .0 .0 .0
O(3) .042(5) .309(15) .230(12) -.047(6) .0 .0
loop_
_atom_site_label
_atom_site_fract_x
_atom_site_fract_y
_atom_site_fract_z
_atom_site_U_iso_or_equiv
_atom_site_thermal_displace_type
_atom_site_occupancy
Bi(1) .4396(2) .2132(2) .0 .0175(5) Uiso 1.0
Bi(2) .39520(17) .2004(2) .32999(8) .0145(3) Uiso 1.0
Bi(3) .0 .0 .34328(18) .0313(10) Uiso 1.0
W(1) .0 .0 .0 .040(2) Uiso 1.0
O(1) .0 .0 .1160(5) .03937 Uani .5
O(2) .0 .5 .1213(2) .0241(7) Uiso 1.0
O(3) .1937(9) .0173(14) .0 .19359 Uani .75
O(4) .6258(3) .3194(2) .07821(14) .0228(5) Uiso 1.0
O(5) .2541(3) .0741(2) .25610(12) .0233(5) Uiso 1.0
