#------------------------------------------------------------------------------
#$Date: 2016-02-14 16:26:36 +0200 (Sun, 14 Feb 2016) $
#$Revision: 176435 $
#$URL: svn://www.crystallography.net/cod/cif/2/00/98/2009817.cif $
#------------------------------------------------------------------------------
#
# This file is available in the Crystallography Open Database (COD),
# http://www.crystallography.net/. The original data for this entry
# were provided by IUCr Journals, http://journals.iucr.org/.
#
# The file may be used within the scientific community so long as
# proper attribution is given to the journal article from which the
# data were obtained.
#
data_2009817
loop_
_publ_author_name
'Valkonen, J.'
_publ_section_title
;
 Cadmium selenite--water (4/3) and two polymorphic forms of cadmium
 selenite
;
_journal_issue                   7
_journal_name_full               'Acta Crystallographica Section C'
_journal_page_first              991
_journal_page_last               994
_journal_paper_doi               10.1107/S0108270193011278
_journal_volume                  50
_journal_year                    1994
_chemical_formula_sum            'Cd O3 Se'
_chemical_formula_weight         239.36
_symmetry_cell_setting           monoclinic
_symmetry_space_group_name_Hall  '-P 2ybc'
_symmetry_space_group_name_H-M   'P 1 21/c 1'
_atom_type_scat_source           'IntTabIV Tables 2.2B and 2.3.1'
_cell_angle_alpha                90.
_cell_angle_beta                 101.210(8)
_cell_angle_gamma                90.
_cell_formula_units_Z            8
_cell_length_a                   5.7084(5)
_cell_length_b                   12.8283(11)
_cell_length_c                   8.5860(8)
_cell_measurement_reflns_used    25
_cell_measurement_temperature    298
_cell_measurement_theta_max      12.15
_cell_measurement_theta_min      7.99
_cell_volume                     616.75(10)
_diffrn_measurement_device       'Enraf-Nonius CAD-4'
_diffrn_measurement_method       2\q/\w
_diffrn_radiation_type           MoK\a
_diffrn_radiation_wavelength     0.71073
_diffrn_reflns_limit_h_max       10
_diffrn_reflns_limit_h_min       0
_diffrn_reflns_limit_k_max       23
_diffrn_reflns_limit_k_min       0
_diffrn_reflns_limit_l_max       15
_diffrn_reflns_limit_l_min       -15
_diffrn_reflns_number            3946
_diffrn_reflns_theta_max         39.98
_diffrn_standards_decay_%        <2
_diffrn_standards_interval_time  60
_diffrn_standards_number         3
_exptl_absorpt_coefficient_mu    18.54
_exptl_absorpt_correction_T_max  1.091
_exptl_absorpt_correction_T_min  0.900
_exptl_absorpt_correction_type   DIFABS
_exptl_crystal_colour            white
_exptl_crystal_density_diffrn    5.16
_exptl_crystal_description       prismatic
_exptl_crystal_size_max          0.20
_exptl_crystal_size_mid          0.10
_exptl_crystal_size_min          0.10
_refine_diff_density_max         3.12
_refine_diff_density_min         -4.39
_refine_ls_extinction_coef       'g = 5.60x10^-7^'
_refine_ls_extinction_method
'|F~c~| +|F~o~|x(1+gIc) (Stout & Jenson, 1968)'
_refine_ls_goodness_of_fit_obs   4.36
_refine_ls_number_parameters     92
_refine_ls_number_reflns         2862
_refine_ls_R_factor_obs          4.3
_refine_ls_shift/esd_max         0.005
_refine_ls_structure_factor_coef F
_refine_ls_weighting_scheme      unit
_refine_ls_wR_factor_obs         6.2
_reflns_number_observed          2862
_reflns_number_total             3946
_reflns_observed_criterion       I>3\s(I)
_cod_data_source_file            ab1066.cif
_cod_data_source_block           ab1066_structure_2_of_3
_cod_original_cell_volume        616.70(10)
_cod_original_sg_symbol_H-M      'P 21/c'
_cod_original_formula_sum        'Cd1 O3 Se1'
_cod_database_code               2009817
loop_
_atom_site_label
_atom_site_fract_x
_atom_site_fract_y
_atom_site_fract_z
_atom_site_U_iso_or_equiv
Cd(1) .18300(10) .07755(4) .38823(7) .00700(10)
Cd(2) .37795(9) .74434(4) .35202(6) .00600(10)
Se(1) .41470(10) .02604(6) .76717(9) .00650(10)
Se(2) .02870(10) .16879(6) .97980(10) .00720(10)
O(1) .5954(11) .0790(5) .6529(8) .0108(10)
O(2) .5347(12) -.0952(5) .7734(9) .0139(12)
O(3) .1568(11) .0193(6) .6331(8) .0152(12)
O(4) -.2229(12) .2386(6) .9136(7) .0139(12)
O(5) .2427(12) .2619(6) 1.0016(10) .0190(12)
O(6) -.0321(13) .1494(8) 1.1600(9) .0241(12)
loop_
_geom_angle_atom_site_label_1
_geom_angle_atom_site_label_2
_geom_angle_atom_site_label_3
_geom_angle
_geom_angle_publ_flag
O(1) Cd(1) O(2) 63.6(2) no
O(1) Cd(1) O(3) 89.6(2) no
O(1) Cd(1) O(3) 89.8(2) no
O(1) Cd(1) O(5) 140.3(2) no
O(1) Cd(1) O(6) 114.5(3) no
O(2) Cd(1) O(3) 139.7(2) no
O(2) Cd(1) O(3) 132.9(2) no
O(2) Cd(1) O(5) 95.9(3) no
O(2) Cd(1) O(6) 76.7(3) no
O(3) Cd(1) O(3) 71.7(2) no
O(3) Cd(1) O(5) 86.2(3) no
O(3) Cd(1) O(6) 143.6(3) no
O(3) Cd(1) O(5) 125.6(3) no
O(3) Cd(1) O(6) 81.1(3) no
O(5) Cd(1) O(6) 90.7(3) no
O(1) Cd(2) O(2) 143.5(3) no
O(1) Cd(2) O(4) 84.3(2) no
O(1) Cd(2) O(4) 94.9(3) no
O(1) Cd(2) O(5) 81.5(2) no
O(1) Cd(2) O(6) 125.9(3) no
O(2) Cd(2) O(4) 83.3(3) no
O(2) Cd(2) O(4) 117.6(3) no
O(2) Cd(2) O(5) 82.0(2) no
O(2) Cd(2) O(6) 85.7(3) no
O(4) Cd(2) O(4) 135.9(2) no
O(4) Cd(2) O(5) 132.6(3) no
O(4) Cd(2) O(6) 81.0(3) no
O(4) Cd(2) O(5) 90.4(3) no
O(4) Cd(2) O(6) 63.9(3) no
O(5) Cd(2) O(6) 141.8(3) no
O(1) Se(1) O(2) 95.6(3) no
O(1) Se(1) O(3) 100.0(3) no
O(2) Se(1) O(3) 105.5(3) no
O(4) Se(2) O(5) 102.2(3) no
O(4) Se(2) O(6) 94.3(4) no
O(5) Se(2) O(6) 106.2(4) no
loop_
_geom_bond_atom_site_label_1
_geom_bond_atom_site_label_2
_geom_bond_distance
_geom_bond_publ_flag
Cd(1) O(1) 2.436(7) yes
Cd(1) O(2) 2.333(8) yes
Cd(1) O(3) 2.264(7) yes
Cd(1) O(3) 2.280(7) yes
Cd(1) O(5) 2.275(7) yes
Cd(1) O(6) 2.293(7) yes
Cd(2) O(1) 2.272(6) yes
Cd(2) O(2) 2.270(7) yes
Cd(2) O(4) 2.291(6) yes
Cd(2) O(4) 2.351(7) yes
Cd(2) O(5) 2.293(7) yes
Cd(2) O(6) 2.305(8) yes
Se(1) O(1) 1.697(7) yes
Se(1) O(2) 1.696(7) yes
Se(1) O(3) 1.685(6) yes
Se(2) O(4) 1.694(7) yes
Se(2) O(5) 1.693(7) yes
Se(2) O(6) 1.669(8) yes
