#------------------------------------------------------------------------------
#$Date: 2016-02-14 16:26:36 +0200 (Sun, 14 Feb 2016) $
#$Revision: 176435 $
#$URL: svn://www.crystallography.net/cod/cif/2/00/95/2009593.cif $
#------------------------------------------------------------------------------
#
# This file is available in the Crystallography Open Database (COD),
# http://www.crystallography.net/. The original data for this entry
# were provided by IUCr Journals, http://journals.iucr.org/.
#
# The file may be used within the scientific community so long as
# proper attribution is given to the journal article from which the
# data were obtained.
#
data_2009593
loop_
_publ_author_name
'Harrison, William T. A.'
'Gier, Thurman E.'
'Stucky, Galen D.'
_publ_section_title
;
 Two lithium chloroberyllo(phosphate/arsenate) sodalites:
 Li~4~Cl(BePO~4~)~3~ and Li~4~Cl(BeAsO~4~)~3~
;
_journal_issue                   4
_journal_name_full               'Acta Crystallographica Section C'
_journal_page_first              471
_journal_page_last               473
_journal_paper_doi               10.1107/S0108270193009692
_journal_volume                  50
_journal_year                    1994
_chemical_formula_structural     'Li4 Cl(BePO4)3'
_chemical_formula_sum            'Be3 Cl Li4 O12 P3'
_chemical_formula_weight         375.16
_chemical_name_common            'lithuim chloro beryllophosphate sodalite'
_chemical_name_systematic
;
Tetralithium chloro tecto-trikis(beryllatophosphate)
;
_space_group_IT_number           218
_symmetry_cell_setting           cubic
_symmetry_space_group_name_Hall  'P -4n 2 3'
_symmetry_space_group_name_H-M   'P -4 3 n'
_cell_angle_alpha                90
_cell_angle_beta                 90
_cell_angle_gamma                90
_cell_formula_units_Z            2
_cell_length_a                   8.0269(3)
_cell_length_b                   8.0269(3)
_cell_length_c                   8.0269(3)
_cell_measurement_temperature    298(2)
_cell_volume                     517.18(3)
_computing_molecular_graphics    'ORTEPII (Johnson, 1976)'
_computing_structure_refinement
'GSAS, with local modifications (Larson & Von Dreele, 1990)'
_diffrn_ambient_temperature      298
_diffrn_measurement_device       'Scintag PAD-X powder diffractometer'
_diffrn_measurement_method       '\q/\q powder scan'
_diffrn_radiation_monochromator  graphite
_diffrn_radiation_source         'xray tube'
_diffrn_radiation_type           'Copper K\a'
_exptl_absorpt_coefficient_mu    8.484
_exptl_absorpt_correction_type   none
_exptl_crystal_density_diffrn    2.409
_exptl_crystal_F_000             364
_refine_diff_density_max         0.6
_refine_diff_density_min         -0.7
_refine_ls_matrix_type           full
_refine_ls_number_constraints    0
_refine_ls_number_parameters     20
_refine_ls_number_reflns         130
_refine_ls_number_restraints     0
_refine_ls_shift/esd_max         <0.01
_refine_ls_shift/esd_mean        <0.01
_refine_ls_structure_factor_coef 'powder data points'
_refine_ls_weighting_details     'w = 1/[\s(y)]^2^'
_refine_ls_weighting_scheme      calc
_cod_data_source_file            br1052.cif
_cod_data_source_block           I
_cod_depositor_comments
;
The following automatic conversions were performed:

'_refine_ls_weighting_scheme' value '1/[\s(y)]^2^' was changed to
'calc'. New tag '_refine_ls_weighting_details' was created. The value
of the new tag was set to 'w = 1/[\s(y)]^2^'.

Automatic conversion script
Id: cif_fix_values 3143 2015-03-26 13:38:13Z robertas 
;
_cod_original_cell_volume        517.18(4)
_cod_original_sg_symbol_H-M      'P -4 3 n '
_cod_original_formula_sum        'Be3 Cl1 Li4 O12 P3'
_cod_database_code               2009593
loop_
_symmetry_equiv_pos_as_xyz
'x,  y,  z'
'z,  x,  y'
'y,  z,  x'
'1/2+y,  1/2-x,  1/2-z'
'1/2-z,  1/2+y,  1/2-x'
'1/2-x,  1/2-z,  1/2+y'
'-x,  -y,  z'
'-z,  x,  -y'
'-y,  -z,  x'
'x,  -y,  -z'
'z,  -x,  -y'
'-y,  z,  -x'
'1/2-y,  1/2+x,  1/2-z'
'1/2-z,  1/2-y,  1/2+x'
'1/2+x,  1/2-z,  1/2-y'
'1/2+x,  1/2+z,  1/2+y'
'1/2+y,  1/2+x,  1/2+z'
'1/2+z,  1/2+y,  1/2+x'
'y,  -z,  -x'
'1/2-y,  1/2-x,  1/2+z'
'1/2+z,  1/2-y,  1/2-x'
'1/2-x,  1/2+z,  1/2-y'
'-x,  y,  -z'
'-z,  -x,  y'
loop_
_atom_site_label
_atom_site_fract_x
_atom_site_fract_y
_atom_site_fract_z
_atom_site_U_iso_or_equiv
_atom_site_thermal_displace_type
_atom_site_calc_flag
_atom_site_calc_attached_atom
_atom_site_type_symbol
Be(1) 0.25 0 0.50 0.016(4) Uiso ? ? Be
P(1) 0.25 0.50 0 0.0075(7) Uiso ? ? P
O(1) 0.1428(3) 0.4145(3) 0.1378(3) 0.0020(9) Uiso ? ? O
Li(1) 0.1814(10) 0.1814(10) 0.1814(10) 0.010(X) Uiso ? ? Li
Cl(1) 0 0 0 0.013(2) Uiso ? ? Cl
loop_
_atom_type_symbol
_atom_type_scat_source
Li International_Tables_Vol_IV_Table_2.2B
Cl International_Tables_Vol_IV_Table_2.2B
Be International_Tables_Vol_IV_Table_2.2B
P International_Tables_Vol_IV_Table_2.2B
O International_Tables_Vol_IV_Table_2.2B
loop_
_geom_angle_atom_site_label_1
_geom_angle_atom_site_label_2
_geom_angle_atom_site_label_3
_geom_angle_site_symmetry_1
_geom_angle_site_symmetry_3
_geom_angle
_geom_angle_publ_flag
O(1) Be(1) O(1) 2_555 5_545 108.21(8) yes
O(1) Be(1) O(1) 2_555 11_556 112.03(16) yes
O(1) Be(1) O(1) 2_555 14_555 108.21(8) no
O(1) Be(1) O(1) 5_545 11_556 108.21(8) no
O(1) Be(1) O(1) 5_545 14_555 112.03(16) no
O(1) Be(1) O(1) 11_556 14_555 108.21(8) no
O(1) P(1) O(1) 1_555 6_554 107.70(8) yes
O(1) P(1) O(1) 1_555 10_565 113.07(16) yes
O(1) P(1) O(1) 1_555 22_555 107.70(8) no
O(1) P(1) O(1) 6_554 10_565 107.70(8) no
O(1) P(1) O(1) 6_554 22_555 113.07(16) no
O(1) P(1) O(1) 10_565 22_555 107.70(8) no
Be(1) O(1) P(1) 3_555 1_555 126.95(15) yes
Be(1) O(1) Li(1) 3_555 1_555 115.22(13) yes
P(1) O(1) Li(1) 1_555 1_555 117.84(12) yes
O(1) Li(1) O(1) 1_555 2_555 107.6(4) yes
O(1) Li(1) O(1) 1_555 3_555 107.6(4) no
O(1) Li(1) Cl(1) 1_555 1_555 111.2(4) yes
O(1) Li(1) O(1) 2_555 3_555 107.6(4) no
O(1) Li(1) Cl(1) 2_555 1_555 111.2(4) no
O(1) Li(1) Cl(1) 3_555 1_555 111.2(4) no
Li(1) Cl(1) Li(1) 1_555 7_555 109.471 yes
Li(1) Cl(1) Li(1) 1_555 8_555 109.4710(10) no
Li(1) Cl(1) Li(1) 1_555 10_555 109.4710(10) no
Li(1) Cl(1) Li(1) 7_555 8_555 109.4710(10) no
Li(1) Cl(1) Li(1) 7_555 10_555 109.4710(10) no
Li(1) Cl(1) Li(1) 8_555 10_555 109.471(2) no
loop_
_geom_bond_atom_site_label_1
_geom_bond_atom_site_label_2
_geom_bond_site_symmetry_1
_geom_bond_site_symmetry_2
_geom_bond_distance
_geom_bond_publ_flag
Be(1) O(1) . 2_555 1.611(2) yes
Be(1) O(1) . 5_545 1.611(2) no
Be(1) O(1) . 11_556 1.611(2) no
Be(1) O(1) . 14_555 1.611(2) no
P(1) O(1) . 1_555 1.560(2) yes
P(1) O(1) . 6_554 1.560(2) no
P(1) O(1) . 10_565 1.560(2) no
P(1) O(1) . 22_555 1.560(2) no
Li(1) O(1) . 1_555 1.928(5) yes
Li(1) O(1) . 2_555 1.928(5) no
Li(1) O(1) . 3_555 1.928(5) no
Li(1) Cl(1) . 1_555 2.523(15) yes
