#------------------------------------------------------------------------------
#$Date: 2018-01-30 16:30:45 +0200 (Tue, 30 Jan 2018) $
#$Revision: 205898 $
#$URL: file:///home/coder/svn-repositories/cod/cif/2/00/98/2009818.cif $
#------------------------------------------------------------------------------
#
# This file is available in the Crystallography Open Database (COD),
# http://www.crystallography.net/. The original data for this entry
# were provided by IUCr Journals, http://journals.iucr.org/.
#
# The file may be used within the scientific community so long as
# proper attribution is given to the journal article from which the
# data were obtained.
#
data_2009818
loop_
_publ_author_name
'Valkonen, J.'
_publ_section_title
;
 Cadmium selenite--water (4/3) and two polymorphic forms of cadmium
 selenite
;
_journal_issue                   7
_journal_name_full               'Acta Crystallographica Section C'
_journal_page_first              991
_journal_page_last               994
_journal_paper_doi               10.1107/S0108270193011278
_journal_volume                  50
_journal_year                    1994
_chemical_formula_sum            'Cd4 H6 O15 Se4'
_chemical_formula_weight         1011.48
_space_group_crystal_system      monoclinic
_space_group_IT_number           4
_space_group_name_Hall           'P 2yb'
_space_group_name_H-M_alt        'P 1 21 1'
_atom_type_scat_source           'IntTabIV Tables 2.2B and 2.3.1'
_cell_angle_alpha                90.
_cell_angle_beta                 117.371(5)
_cell_angle_gamma                90.
_cell_formula_units_Z            2
_cell_length_a                   9.4746(9)
_cell_length_b                   8.7696(3)
_cell_length_c                   10.1455(5)
_cell_measurement_reflns_used    25
_cell_measurement_temperature    298
_cell_measurement_theta_max      13.41
_cell_measurement_theta_min      8.04
_cell_volume                     748.60(9)
_diffrn_measurement_device       'Enraf-Nonius CAD-4'
_diffrn_measurement_method       2\q/\w
_diffrn_radiation_type           MoK\a
_diffrn_radiation_wavelength     0.71073
_diffrn_reflns_limit_h_max       17
_diffrn_reflns_limit_h_min       0
_diffrn_reflns_limit_k_max       15
_diffrn_reflns_limit_k_min       0
_diffrn_reflns_limit_l_max       16
_diffrn_reflns_limit_l_min       -18
_diffrn_reflns_number            4845
_diffrn_reflns_theta_max         40.00
_diffrn_standards_decay_%        <2
_diffrn_standards_interval_time  60
_diffrn_standards_number         3
_exptl_absorpt_coefficient_mu    15.32
_exptl_absorpt_correction_T_max  1.274
_exptl_absorpt_correction_T_min  0.886
_exptl_absorpt_correction_type   DIFABS
_exptl_crystal_colour            white
_exptl_crystal_density_diffrn    4.49
_exptl_crystal_description       prismatic
_exptl_crystal_size_max          0.30
_exptl_crystal_size_mid          0.30
_exptl_crystal_size_min          0.20
_refine_diff_density_max         1.30
_refine_diff_density_min         -1.01
_refine_ls_extinction_coef       'g = 3.40x10^-7^'
_refine_ls_extinction_method
'F|~c~| = |F~o~|x(1+gIc) (Stout & Jensen, 1968)'
_refine_ls_goodness_of_fit_obs   1.82
_refine_ls_number_parameters     208
_refine_ls_number_reflns         3672
_refine_ls_R_factor_obs          2.4
_refine_ls_shift/esd_max         0.005
_refine_ls_structure_factor_coef F
_refine_ls_weighting_scheme      unit
_refine_ls_wR_factor_obs         2.8
_reflns_number_observed          3672
_reflns_number_total             4845
_reflns_observed_criterion       I>3\s(I)
_cod_data_source_file            ab1066.cif
_cod_data_source_block           ab1066_structure_3_of_3
_cod_original_cell_volume        748.61(9)
_cod_original_sg_symbol_H-M      'P 21'
_cod_original_formula_sum        'H6 Cd4 O15 Se4'
_cod_database_code               2009818
loop_
_space_group_symop_id
_space_group_symop_operation_xyz
1 x,y,z
2 -x,y+1/2,-z
loop_
_atom_site_label
_atom_site_fract_x
_atom_site_fract_y
_atom_site_fract_z
_atom_site_U_iso_or_equiv
Cd(1) .31914(4) .341 1.01338(4) .01110(10)
Cd(2) .04193(5) .32973(6) .34225(4) .01110(10)
Cd(3) .32007(5) .73798(6) .99353(4) .01190(10)
Cd(4) .98243(5) .23509(6) .65491(4) .01170(10)
Se(1) .36334(6) .53630(10) 1.33902(6) .01130(10)
Se(2) .23874(6) .53710(10) .67117(5) .00920(10)
Se(3) .66810(6) .53660(10) 1.22914(5) .00880(10)
Se(4) .03258(7) .16177(9) 1.00634(6) .01160(10)
O(1) .3129(5) .5494(7) 1.1558(4) .0151(9)
O(2) .1872(5) .5420(9) 1.3431(5) .0162(9)
O(3) .4369(6) .7116(7) 1.4007(5) .0181(11)
O(4) .2560(6) .5277(8) .8440(5) .0172(10)
O(5) .1555(5) .3659(6) .6022(5) .0142(9)
O(6) .0815(6) .6556(7) .5859(5) .0191(10)
O(7) .8553(5) .5213(6) 1.2493(5) .0146(10)
O(8) .5919(5) .3663(6) 1.1463(5) .0127(9)
O(9) .5874(5) .6615(7) 1.0883(5) .0163(10)
O(10) .0409(5) .2967(6) .8893(5) .0141(9)
O(11) .2330(5) .1664(7) 1.1312(5) .0160(10)
O(12) -.0497(5) .2626(7) 1.0979(5) .0170(10)
O(13) .2616(6) .1795(7) 1.3983(5) .0179(11)
O(14) -.2358(6) .3820(7) .5394(6) .0215(13)
O(15) .4023(7) -.0930(7) 1.1810(6) .0228(13)
loop_
_geom_angle_atom_site_label_1
_geom_angle_atom_site_label_2
_geom_angle_atom_site_label_3
_geom_angle
_geom_angle_publ_flag
O(1) Cd(1) O(4) 80.2(2) no
O(1) Cd(1) O(8) 84.4(2) no
O(1) Cd(1) O(9) 160.7(2) no
O(1) Cd(1) O(10) 96.7(2) no
O(1) Cd(1) O(11) 94.7(2) no
O(4) Cd(1) O(8) 102.0(2) no
O(4) Cd(1) O(9) 100.4(2) no
O(4) Cd(1) O(10) 82.7(2) no
O(4) Cd(1) O(11) 147.7(2) no
O(8) Cd(1) O(9) 76.5(2) no
O(8) Cd(1) O(10) 175.3(2) no
O(8) Cd(1) O(11) 109.2(2) no
O(9) Cd(1) O(10) 102.5(2) no
O(9) Cd(1) O(11) 94.7(2) no
O(10) Cd(1) O(11) 66.2(2) no
O(2) Cd(2) O(5) 85.6(2) no
O(2) Cd(2) O(6) 161.2(2) no
O(2) Cd(2) O(7) 76.0(2) no
O(2) Cd(2) O(12) 98.0(2) no
O(2) Cd(2) O(13) 89.5(2) no
O(5) Cd(2) O(6) 76.5(2) no
O(5) Cd(2) O(7) 103.2(2) no
O(5) Cd(2) O(12) 172.0(2) no
O(5) Cd(2) O(13) 84.6(2) no
O(6) Cd(2) O(7) 102.3(2) no
O(6) Cd(2) O(12) 100.5(2) no
O(6) Cd(2) O(13) 94.4(2) no
O(7) Cd(2) O(12) 84.6(2) no
O(7) Cd(2) O(13) 162.7(2) no
O(12) Cd(2) O(13) 88.3(2) no
O(1) Cd(3) O(4) 79.2(2) no
O(1) Cd(3) O(8) 158.4(2) no
O(1) Cd(3) O(9) 83.5(2) no
O(1) Cd(3) O(12) 87.9(2) no
O(1) Cd(3) O(15) 88.9(2) no
O(4) Cd(3) O(8) 92.7(2) no
O(4) Cd(3) O(9) 87.1(2) no
O(4) Cd(3) O(12) 84.3(2) no
O(4) Cd(3) O(15) 167.4(2) no
O(8) Cd(3) O(9) 76.1(2) no
O(8) Cd(3) O(12) 111.5(2) no
O(8) Cd(3) O(15) 96.8(2) no
O(9) Cd(3) 0(12) 168.8(2) no
O(9) Cd(3) O(15) 87.3(2) no
O(12) Cd(3) O(15) 99.7(2) no
O(2) Cd(4) O(5) 161.0(2) no
O(2) Cd(4) O(6) 86.8(2) no
O(2) Cd(4) O(7) 74.9(2) no
O(2) Cd(4) O(10) 90.1(2) no
O(2) Cd(4) O(14) 87.0(2) no
O(5) Cd(4) O(6) 76.8(2) no
O(5) Cd(4) O(7) 95.5(2) no
O(5) Cd(4) O(10) 106.0(2) no
O(5) Cd(4) O(14) 100.3(2) no
O(6) Cd(4) O(7) 90.0(2) no
O(6) Cd(4) O(10) 176.4(2) no
O(6) Cd(4) O(14) 83.8(2) no
O(7) Cd(4) O(10) 87.6(2) no
O(7) Cd(4) O(14) 161.2(2) no
O(10) Cd(4) O(14) 97.7(2) no
O(1) Se(1) O(2) 104.0(2) no
O(1) Se(1) O(3) 101.8(3) no
O(2) Se(1) O(3) 102.0(3) no
O(4) Se(2) O(5) 101.0(3) no
O(4) Se(2) O(6) 101.7(3) no
O(5) Se(2) O(6) 101.5(2) no
O(7) Se(3) O(8) 99.9(2) no
O(7) Se(3) O(9) 101.3(3) no
O(8) Se(3) O(9) 103.2(2) no
O(10) Se(4) O(11) 96.1(2) no
O(10) Se(4) O(12) 101.5(3) no
O(11) Se(4) O(12) 102.2(2) no
loop_
_geom_bond_atom_site_label_1
_geom_bond_atom_site_label_2
_geom_bond_distance
_geom_bond_publ_flag
Cd(1) O(1) 2.348(6) yes
Cd(1) O(4) 2.247(6) yes
Cd(1) O(8) 2.310(4) yes
Cd(1) O(9) 2.270(6) yes
Cd(1) O(10) 2.372(4) yes
Cd(1) O(11) 2.307(6) yes
Cd(2) O(2) 2.311(7) yes
Cd(2) O(5) 2.366(5) yes
Cd(2) O(6) 2.238(6) yes
Cd(2) O(7) 2.302(5) yes
Cd(2) O(12) 2.294(5) yes
Cd(2) O(13) 2.301(6) yes
Cd(3) O(1) 2.355(6) yes
Cd(3) O(4) 2.284(6) yes
Cd(3) O(8) 2.249(6) yes
Cd(3) O(9) 2.354(5) yes
Cd(3) O(12) 2.297(5) yes
Cd(3) O(15) 2.248(6) yes
Cd(4) O(2) 2.339(6) yes
Cd(4) O(5) 2.256(6) yes
Cd(4) O(6) 2.336(5) yes
Cd(4) O(7) 2.333(5) yes
Cd(4) O(10) 2.244(5) yes
Cd(4) O(14) 2.252(5) yes
Se(1) O(1) 1.696(5) yes
Se(1) O(2) 1.688(5) yes
Se(1) O(3) 1.684(6) yes
Se(2) O(4) 1.686(5) yes
Se(2) O(5) 1.689(5) yes
Se(2) O(6) 1.691(5) yes
Se(3) O(7) 1.694(5) yes
Se(3) O(8) 1.702(5) yes
Se(3) O(9) 1.678(5) yes
Se(4) O(10) 1.703(6) yes
Se(4) O(11) 1.731(4) yes
Se(4) O(12) 1.707(6) yes
