#------------------------------------------------------------------------------
#$Date: 2016-02-20 00:18:51 +0200 (Sat, 20 Feb 2016) $
#$Revision: 176760 $
#$URL: svn://www.crystallography.net/cod/cif/2/01/26/2012674.cif $
#------------------------------------------------------------------------------
#
# This file is available in the Crystallography Open Database (COD),
# http://www.crystallography.net/. The original data for this entry
# were provided by IUCr Journals, http://journals.iucr.org/.
#
# The file may be used within the scientific community so long as
# proper attribution is given to the journal article from which the
# data were obtained.
#
data_2012674
loop_
_publ_author_name
'Naumov, Dmitry Yu.'
'Naumova, Marina I.'
'Kuratieva, Natalia V.'
'Boldyreva, Elena V.'
'Howard, Judith A. K.'
_publ_section_title
;
 Copper(II) hypophosphite: the \a- and \b-forms at 270 and 100K, and
 the \g-form at 270K
;
_journal_issue                   5
_journal_name_full               'Acta Crystallographica Section C'
_journal_page_first              i55
_journal_page_last               i60
_journal_paper_doi               10.1107/S0108270102005176
_journal_volume                  58
_journal_year                    2002
_chemical_formula_iupac          'Cu (H2 P O2)2'
_chemical_formula_moiety         'Cu 2+, 2H2 O2 P 1-'
_chemical_formula_structural     'Cu (H2 P O2)2'
_chemical_formula_sum            'Cu H4 O4 P2'
_chemical_formula_weight         193.51
_chemical_name_common            'Copper(II) Hypophosphite'
_chemical_name_systematic
;
 ?
;
_space_group_IT_number           61
_symmetry_cell_setting           orthorhombic
_symmetry_space_group_name_Hall  '-P 2ac 2ab'
_symmetry_space_group_name_H-M   'P b c a'
_atom_sites_solution_hydrogens   difmap
_atom_sites_solution_primary     direct
_atom_sites_solution_secondary   difmap
_audit_creation_method           SHELXL97
_cell_angle_alpha                90.00
_cell_angle_beta                 90.00
_cell_angle_gamma                90.00
_cell_formula_units_Z            4
_cell_length_a                   5.3014(2)
_cell_length_b                   6.2319(2)
_cell_length_c                   14.2427(2)
_cell_measurement_reflns_used    1900
_cell_measurement_temperature    100(2)
_cell_measurement_theta_max      29.12
_cell_measurement_theta_min      2.86
_cell_volume                     470.55(2)
_computing_cell_refinement       'SAINT (Siemens, 1994)'
_computing_data_collection       'SMART (Siemens, 1994)'
_computing_data_reduction        SAINT
_computing_molecular_graphics    'SHELXTL (Siemens, 1994)'
_computing_publication_material  SHELXL97
_computing_structure_refinement  'SHELXL97 (Sheldrick, 1997)'
_computing_structure_solution    'SHELXS97 (Sheldrick, 1997)'
_diffrn_ambient_temperature      100(2)
_diffrn_detector_area_resol_mean 8.192
_diffrn_measured_fraction_theta_full 0.983
_diffrn_measured_fraction_theta_max 0.983
_diffrn_measurement_device_type  'Siemens SMART CCD'
_diffrn_measurement_method       \w
_diffrn_radiation_monochromator  graphite
_diffrn_radiation_source         'fine-focus sealed tube'
_diffrn_radiation_type           MoK\a
_diffrn_radiation_wavelength     0.71073
_diffrn_reflns_av_R_equivalents  0.0286
_diffrn_reflns_av_sigmaI/netI    0.0197
_diffrn_reflns_limit_h_max       7
_diffrn_reflns_limit_h_min       -7
_diffrn_reflns_limit_k_max       8
_diffrn_reflns_limit_k_min       -7
_diffrn_reflns_limit_l_max       19
_diffrn_reflns_limit_l_min       -17
_diffrn_reflns_number            2974
_diffrn_reflns_theta_full        29.12
_diffrn_reflns_theta_max         29.12
_diffrn_reflns_theta_min         2.86
_diffrn_standards_decay_%        0
_exptl_absorpt_coefficient_mu    5.213
_exptl_absorpt_correction_T_max  0.8086
_exptl_absorpt_correction_T_min  0.4171
_exptl_absorpt_correction_type   analytical
_exptl_absorpt_process_details   '(XPREP; Siemens, 1995)'
_exptl_crystal_colour            Blue
_exptl_crystal_density_diffrn    2.732
_exptl_crystal_density_method    'not measured'
_exptl_crystal_description       Prism
_exptl_crystal_F_000             380
_exptl_crystal_size_max          0.23
_exptl_crystal_size_mid          0.13
_exptl_crystal_size_min          0.05
_refine_diff_density_max         0.679
_refine_diff_density_min         -0.326
_refine_ls_extinction_coef       0.0101(17)
_refine_ls_extinction_expression Fc^*^=kFc[1+0.001xFc^2^\l^3^/sin(2\q)]^-1/4^
_refine_ls_extinction_method     SHELXL97
_refine_ls_goodness_of_fit_ref   1.288
_refine_ls_hydrogen_treatment    refall
_refine_ls_matrix_type           full
_refine_ls_number_parameters     43
_refine_ls_number_reflns         624
_refine_ls_number_restraints     0
_refine_ls_restrained_S_all      1.288
_refine_ls_R_factor_all          0.0288
_refine_ls_R_factor_gt           0.0277
_refine_ls_shift/su_max          <0.001
_refine_ls_shift/su_mean         0.000
_refine_ls_structure_factor_coef Fsqd
_refine_ls_weighting_details
'calc w = 1/[\s^2^(Fo^2^)+(0.0198P)^2^+1.1490P] where P = (Fo^2^+2Fc^2^)/3'
_refine_ls_weighting_scheme      calc
_refine_ls_wR_factor_gt          0.0614
_refine_ls_wR_factor_ref         0.0617
_reflns_number_gt                606
_reflns_number_total             624
_reflns_threshold_expression     I>2\s(I)
_cod_data_source_file            av1101.cif
_cod_data_source_block           beta100
_cod_depositor_comments
;
The following automatic conversions were performed:
'_symmetry_cell_setting' value 'Orthorhombic' changed to 'orthorhombic'
according to '/home/saulius/struct/CIF-dictionaries/cif_core.dic'
dictionary named 'cif_core.dic' version 2.4.1 from 2010-06-29.

Automatic conversion script
Id: cif_fix_enum 1527 2010-12-29 10:47:43Z saulius 

The following automatic conversions were performed:

'_symmetry_cell_setting' value 'Orthorhombic' changed to
'orthorhombic' according to
/home/saulius/struct/CIF-dictionaries/cif_core.dic dictionary named
'cif_core.dic' version 2.4.1 from 2010-06-29.

Automatic conversion script
Id: cif_fix_values 1715 2011-07-08 13:25:40Z adriana 
;
_cod_database_code               2012674
loop_
_symmetry_equiv_pos_as_xyz
'x, y, z'
'-x+1/2, -y, z+1/2'
'-x, y+1/2, -z+1/2'
'x+1/2, -y+1/2, -z'
'-x, -y, -z'
'x-1/2, y, -z-1/2'
'x, -y-1/2, z-1/2'
'-x-1/2, y-1/2, z'
loop_
_atom_site_label
_atom_site_fract_x
_atom_site_fract_y
_atom_site_fract_z
_atom_site_U_iso_or_equiv
_atom_site_adp_type
_atom_site_calc_flag
_atom_site_refinement_flags
_atom_site_occupancy
_atom_site_disorder_assembly
_atom_site_disorder_group
_atom_site_type_symbol
Cu1 0.0000 0.0000 0.0000 0.00728(17) Uani d S 1 . . Cu
P1 0.45577(12) 0.10826(10) 0.13094(5) 0.00789(18) Uani d . 1 . . P
H1 0.480(6) 0.214(6) 0.211(2) 0.009(8) Uiso d . 1 . . H
H2 0.573(7) -0.066(5) 0.145(2) 0.008(8) Uiso d . 1 . . H
O1 0.1756(3) 0.0667(3) 0.11692(12) 0.0095(4) Uani d . 1 . . O
O2 0.6015(3) 0.2177(3) 0.05204(13) 0.0091(4) Uani d . 1 . . O
loop_
_atom_site_aniso_label
_atom_site_aniso_U_11
_atom_site_aniso_U_22
_atom_site_aniso_U_33
_atom_site_aniso_U_12
_atom_site_aniso_U_13
_atom_site_aniso_U_23
Cu1 0.0077(2) 0.0066(2) 0.0075(2) -0.00120(15) -0.00048(14) 0.00108(16)
P1 0.0081(3) 0.0079(3) 0.0076(3) 0.0004(2) -0.0003(2) 0.0009(2)
O1 0.0093(8) 0.0098(8) 0.0094(8) -0.0011(6) 0.0007(6) -0.0007(7)
O2 0.0073(8) 0.0091(8) 0.0108(8) 0.0012(7) 0.0004(7) 0.0009(7)
loop_
_atom_type_symbol
_atom_type_description
_atom_type_scat_dispersion_real
_atom_type_scat_dispersion_imag
_atom_type_scat_source
O O 0.0106 0.0060 'International Tables Vol C Tables 4.2.6.8 and 6.1.1.4'
H H 0.0000 0.0000 'International Tables Vol C Tables 4.2.6.8 and 6.1.1.4'
P P 0.1023 0.0942 'International Tables Vol C Tables 4.2.6.8 and 6.1.1.4'
Cu Cu 0.3201 1.2651 'International Tables Vol C Tables 4.2.6.8 and 6.1.1.4'
loop_
_geom_angle_atom_site_label_1
_geom_angle_atom_site_label_2
_geom_angle_atom_site_label_3
_geom_angle_site_symmetry_1
_geom_angle_site_symmetry_3
_geom_angle
_geom_angle_publ_flag
O1 Cu1 O1 . 5 180.00(5) no
O1 Cu1 O2 . 4_455 90.03(7) yes
O2 Cu1 O2 8_655 4_455 180.00(10) no
O1 Cu1 O2 . 1_455 91.89(7) yes
O2 Cu1 O2 4_455 1_455 82.25(5) yes
O1 P1 O2 . . 118.31(10) yes
O1 P1 H1 . . 107.0(13) no
O2 P1 H1 . . 111.3(15) no
O1 P1 H2 . . 110.6(16) no
O2 P1 H2 . . 104.4(16) no
H1 P1 H2 . . 104(2) no
P1 O1 Cu1 . . 127.87(11) yes
P1 O2 Cu1 . 4 122.32(11) yes
P1 O2 Cu1 . 1_655 112.70(9) yes
Cu1 O2 Cu1 4 1_655 124.94(8) yes
loop_
_geom_bond_atom_site_label_1
_geom_bond_atom_site_label_2
_geom_bond_site_symmetry_2
_geom_bond_distance
_geom_bond_publ_flag
Cu1 O1 . 1.9526(18) yes
Cu1 O2 4_455 1.9835(18) yes
Cu1 O2 1_455 2.6178(18) yes
P1 O1 . 1.5209(19) yes
P1 O2 . 1.5247(19) yes
P1 H1 . 1.32(3) no
P1 H2 . 1.27(3) no
loop_
_geom_hbond_atom_site_label_D
_geom_hbond_atom_site_label_H
_geom_hbond_atom_site_label_A
_geom_hbond_site_symmetry_A
_geom_hbond_distance_DH
_geom_hbond_distance_HA
_geom_hbond_distance_DA
_geom_hbond_angle_DHA
_geom_hbond_publ_flag
P1 H1 O1 8_665 1.32(3) 2.70(3) 2.9475(19) 87.1(16) no
P1 H2 O1 8_655 1.27(3) 2.67(3) 3.4517(19) 118(2) no
P1 H2 O2 8_755 1.27(3) 2.56(3) 3.5632(19) 135(2) no
P1 H1 O1 6_656 1.32(3) 2.82(3) 3.7843(19) 129(2) no
