#------------------------------------------------------------------------------
#$Date: 2016-02-20 00:18:51 +0200 (Sat, 20 Feb 2016) $
#$Revision: 176760 $
#$URL: svn://www.crystallography.net/cod/cif/2/01/21/2012143.cif $
#------------------------------------------------------------------------------
#
# This file is available in the Crystallography Open Database (COD),
# http://www.crystallography.net/. The original data for this entry
# were provided by IUCr Journals, http://journals.iucr.org/.
#
# The file may be used within the scientific community so long as
# proper attribution is given to the journal article from which the
# data were obtained.
#
data_2012143
loop_
_publ_author_name
'Figgis, Brian N.'
'Sobolev, Alexandre N.'
_publ_section_title
;
 Na~3~Co(NO~2~)~6~ at 293 and 10K
;
_journal_issue                   8
_journal_name_full               'Acta Crystallographica Section C'
_journal_page_first              885
_journal_page_last               886
_journal_paper_doi               10.1107/S0108270101007995
_journal_volume                  57
_journal_year                    2001
_chemical_formula_iupac          'Na3 Co(NO2 )6 '
_chemical_formula_sum            'Co N6 Na3 O12'
_chemical_formula_weight         403.96
_chemical_name_common            'sodum cobaltinitrite'
_chemical_name_systematic
;
  trisodium hexanitrocobaltate(III)
;
_space_group_IT_number           148
_symmetry_cell_setting           trigonal
_symmetry_space_group_name_Hall  '-R 3'
_symmetry_space_group_name_H-M   'R -3 :H'
_audit_creation_method           SHELXL-97
_cell_angle_alpha                90.0
_cell_angle_beta                 90.0
_cell_angle_gamma                120.0
_cell_formula_units_Z            3
_cell_length_a                   7.7724(4)
_cell_length_b                   7.7724(4)
_cell_length_c                   14.763(2)
_cell_measurement_reflns_used    24
_cell_measurement_temperature    10.5(5)
_cell_measurement_theta_max      40.1
_cell_measurement_theta_min      29.8
_cell_volume                     772.35(12)
_computing_cell_refinement       'Local diffractometer control software'
_computing_data_collection       'Local diffractometer control software'
_computing_data_reduction        'PROFIT (Streltsov & Zavodnik, 1989)'
_computing_molecular_graphics    'SHELXTL (Bruker, 1997)'
_computing_publication_material  SHELXTL
_computing_structure_refinement  'SHELXL97 (Sheldrick, 1997)'
_computing_structure_solution    'SHELXS97 (Sheldrick, 1990)'
_diffrn_ambient_temperature      10.5(5)
_diffrn_measured_fraction_theta_full .999
_diffrn_measured_fraction_theta_max .999
_diffrn_measurement_device_type  'Huber 512 goniometer'
_diffrn_measurement_method       '\w-2\q scan'
_diffrn_radiation_monochromator  none
_diffrn_radiation_source         'normal-focus sealed tube'
_diffrn_radiation_type           MoK\a
_diffrn_radiation_wavelength     .71073
_diffrn_reflns_av_R_equivalents  .0289
_diffrn_reflns_av_sigmaI/netI    .0135
_diffrn_reflns_limit_h_max       16
_diffrn_reflns_limit_h_min       -16
_diffrn_reflns_limit_k_max       16
_diffrn_reflns_limit_k_min       -16
_diffrn_reflns_limit_l_max       31
_diffrn_reflns_limit_l_min       -31
_diffrn_reflns_number            10695
_diffrn_reflns_theta_full        50.13
_diffrn_reflns_theta_max         50.13
_diffrn_reflns_theta_min         3.33
_diffrn_standards_decay_%        1
_diffrn_standards_interval_count 100
_diffrn_standards_number         3
_exptl_absorpt_coefficient_mu    1.890
_exptl_absorpt_correction_T_max  .6731
_exptl_absorpt_correction_T_min  .5909
_exptl_absorpt_correction_type   gaussian
_exptl_absorpt_process_details
'XTAL 3.7 (Hall, du Boulay & Olthof-Hazekamp, 2000)'
_exptl_crystal_colour            dark-red
_exptl_crystal_density_diffrn    2.606
_exptl_crystal_density_meas      ?
_exptl_crystal_density_method    'not measured'
_exptl_crystal_description       Prism
_exptl_crystal_F_000             594
_exptl_crystal_size_max          .38
_exptl_crystal_size_mid          .26
_exptl_crystal_size_min          .25
_refine_diff_density_max         .851
_refine_diff_density_min         -1.391
_refine_ls_extinction_coef       .0083(11)
_refine_ls_extinction_method     SHELXL
_refine_ls_goodness_of_fit_ref   1.071
_refine_ls_matrix_type           full
_refine_ls_number_parameters     36
_refine_ls_number_reflns         1819
_refine_ls_number_restraints     0
_refine_ls_restrained_S_all      1.071
_refine_ls_R_factor_all          .0213
_refine_ls_R_factor_gt           .0213
_refine_ls_shift/su_max          <0.001
_refine_ls_shift/su_mean         .000
_refine_ls_structure_factor_coef Fsqd
_refine_ls_weighting_details
'calc w=1/[\s^2^(Fo^2^)+(0.0390P)^2^+0.4843P] where P=(Fo^2^+2Fc^2^)/3'
_refine_ls_weighting_scheme      calc
_refine_ls_wR_factor_ref         .0614
_reflns_number_gt                1819
_reflns_number_total             1819
_reflns_threshold_expression     I>2\s(I)
_cod_data_source_file            iz1013.cif
_cod_data_source_block           Iat10K
_cod_depositor_comments
;
The following automatic conversions were performed:
'_symmetry_cell_setting' value 'Trigonal' changed to 'trigonal' according
to '/home/saulius/struct/CIF-dictionaries/cif_core.dic' dictionary named
'cif_core.dic' version 2.4.1 from 2010-06-29.

Automatic conversion script
Id: cif_fix_enum 1527 2010-12-29 10:47:43Z saulius 

The following automatic conversions were performed:

'_chemical_melting_point' value 'not measured' was changed to '?' -
the value is undefined or not given.

'_symmetry_cell_setting' value
'Trigonal' changed to 'trigonal' according to
/home/saulius/struct/CIF-dictionaries/cif_core.dic dictionary named
'cif_core.dic' version 2.4.1 from
2010-06-29.

'_exptl_absorpt_correction_type' value 'Gaussian'
changed to 'gaussian' according to
/home/saulius/struct/CIF-dictionaries/cif_core.dic dictionary named
'cif_core.dic' version 2.4.1 from 2010-06-29.

Automatic conversion script
Id: cif_fix_values 1715 2011-07-08 13:25:40Z adriana 

The following automatic conversions were performed:

'_exptl_crystal_density_meas' value 'not measured' was changed to '?'
- the value is perceived as not measured.

Automatic conversion script
Id: cif_fix_values 3008 2015-01-20 13:52:24Z robertas 
;
_cod_original_cell_volume        772.40(10)
_cod_original_sg_symbol_H-M      'R -3'
_cod_database_code               2012143
loop_
_symmetry_equiv_pos_as_xyz
'x, y, z'
'-y, x-y, z'
'-x+y, -x, z'
'x+2/3, y+1/3, z+1/3'
'-y+2/3, x-y+1/3, z+1/3'
'-x+y+2/3, -x+1/3, z+1/3'
'x+1/3, y+2/3, z+2/3'
'-y+1/3, x-y+2/3, z+2/3'
'-x+y+1/3, -x+2/3, z+2/3'
'-x, -y, -z'
'y, -x+y, -z'
'x-y, x, -z'
'-x+2/3, -y+1/3, -z+1/3'
'y+2/3, -x+y+1/3, -z+1/3'
'x-y+2/3, x+1/3, -z+1/3'
'-x+1/3, -y+2/3, -z+2/3'
'y+1/3, -x+y+2/3, -z+2/3'
'x-y+1/3, x+2/3, -z+2/3'
loop_
_atom_site_label
_atom_site_fract_x
_atom_site_fract_y
_atom_site_fract_z
_atom_site_U_iso_or_equiv
_atom_site_adp_type
_atom_site_calc_flag
_atom_site_refinement_flags
_atom_site_occupancy
_atom_site_disorder_assembly
_atom_site_disorder_group
_atom_site_type_symbol
Co .0000 .0000 .0000 .00511(3) Uani d S 1 . . Co
Na1 .0000 .0000 .26420(3) .01020(6) Uani d S 1 . . Na
Na2 .3333 -.3333 .1667 .01068(9) Uani d S 1 . . Na
N .11241(10) -.13232(10) .07273(3) .00757(6) Uani d . 1 . . N
O1 .08919(8) -.15443(8) .15537(3) .01086(7) Uani d . 1 . . O
O2 .20588(12) -.20117(12) .03362(3) .01024(6) Uani d . 1 . . O
loop_
_atom_site_aniso_label
_atom_site_aniso_U_11
_atom_site_aniso_U_22
_atom_site_aniso_U_33
_atom_site_aniso_U_12
_atom_site_aniso_U_13
_atom_site_aniso_U_23
Co .00537(4) .00537(4) .00460(5) .00269(2) .000 .000
Na1 .01132(9) .01132(9) .00794(13) .00566(5) .000 .000
Na2 .01201(13) .01201(13) .00802(19) .00601(7) .000 .000
N .00850(17) .00829(16) .00685(11) .00489(13) -.00007(12) .00009(11)
O1 .01444(16) .01370(16) .00683(12) .00882(14) .00079(10) .00151(11)
O2 .01193(19) .01216(18) .01019(12) .00868(11) .00009(17) -.00136(17)
loop_
_atom_type_symbol
_atom_type_description
_atom_type_scat_dispersion_real
_atom_type_scat_dispersion_imag
_atom_type_scat_source
N N .0061 .0033 'International Tables Vol C Tables 4.2.6.8 and 6.1.1.4'
O O .0106 .0060 'International Tables Vol C Tables 4.2.6.8 and 6.1.1.4'
Na Na .0362 .0249 'International Tables Vol C Tables 4.2.6.8 and 6.1.1.4'
Co Co .3494 .9721 'International Tables Vol C Tables 4.2.6.8 and 6.1.1.4'
loop_
_geom_angle_atom_site_label_1
_geom_angle_atom_site_label_2
_geom_angle_atom_site_label_3
_geom_angle_site_symmetry_1
_geom_angle_site_symmetry_3
_geom_angle
_geom_angle_publ_flag
N Co N . 10 180.0 no
N Co N 11 2 180.0 no
N Co N 12 3 180.0 no
N Co N . 11 86.94(2) no
N Co N . 12 86.94(2) no
N Co N 2 10 86.94(2) no
N Co N 2 12 86.94(2) no
N Co N 3 10 86.94(2) no
N Co N 3 11 86.94(2) no
N Co N . 2 93.06(2) no
N Co N . 3 93.06(2) no
N Co N 10 11 93.06(2) no
N Co N 10 12 93.06(2) no
N Co N 11 12 93.06(2) no
N Co N 2 3 93.06(2) no
O1 Na1 O1 . 2 76.95(2) no
O1 Na1 O1 . 3 76.95(2) no
O1 Na1 O1 3 2 76.95(2) no
O1 Na1 O2 . 6 104.74(2) no
O1 Na1 O2 2 4_455 104.74(2) no
O1 Na1 O2 3 5_445 104.74(2) no
O1 Na1 O2 . 4_455 173.21(2) no
O1 Na1 O2 2 5_445 173.21(2) no
O1 Na1 O2 3 6 173.21(2) no
O1 Na1 O2 . 5_445 96.93(2) no
O1 Na1 O2 2 6 96.93(2) no
O1 Na1 O2 3 4_455 96.93(2) no
O2 Na1 O2 5_445 4_455 81.69(2) no
O2 Na1 O2 6 4_455 81.69(2) no
O2 Na1 O2 6 5_445 81.69(2) no
O1 Na1 Na2 3 4_455 134.08(2) no
O1 Na1 Na2 . 4_455 134.08(2) no
O1 Na1 Na2 2 4_455 134.08(2) no
O2 Na1 Na2 6 4_455 49.040(10) no
O2 Na1 Na2 5_445 4_455 49.040(10) no
O2 Na1 Na2 4_455 4_455 49.040(10) no
O1 Na2 O1 15_445 14 119.664(2) no
O1 Na2 O1 . 2_545 119.664(2) no
O1 Na2 O1 . 3_655 119.664(2) no
O1 Na2 O1 13_545 14 119.664(2) no
O1 Na2 O1 13_545 15_445 119.664(2) no
O1 Na2 O1 3_655 2_545 119.664(2) no
O1 Na2 O1 13_545 . 180.0 no
O1 Na2 O1 2_545 14 180.0 no
O1 Na2 O1 3_655 15_445 180.0 no
O1 Na2 O1 . 14 60.336(2) no
O1 Na2 O1 . 15_445 60.336(2) no
O1 Na2 O1 13_545 2_545 60.336(2) no
O1 Na2 O1 13_545 3_655 60.336(2) no
O1 Na2 O1 2_545 15_445 60.336(2) no
O1 Na2 O1 3_655 14 60.336(2) no
O2 Na2 O1 . 3_655 103.28(2) no
O2 Na2 O1 13_545 15_445 103.28(2) no
O2 Na2 O1 14 13_545 103.28(2) no
O2 Na2 O1 15_445 14 103.28(2) no
O2 Na2 O1 2_545 . 103.28(2) no
O2 Na2 O1 3_655 2_545 103.28(2) no
O2 Na2 O1 . 2_545 110.10(2) no
O2 Na2 O1 13_545 14 110.10(2) no
O2 Na2 O1 14 15_445 110.10(2) no
O2 Na2 O1 15_445 13_545 110.10(2) no
O2 Na2 O1 2_545 3_655 110.10(2) no
O2 Na2 O1 3_655 . 110.10(2) no
O2 Na2 O1 . 13_545 134.740(10) no
O2 Na2 O1 13_545 . 134.740(10) no
O2 Na2 O1 14 2_545 134.740(10) no
O2 Na2 O1 15_445 3_655 134.740(10) no
O2 Na2 O1 2_545 14 134.740(10) no
O2 Na2 O1 3_655 15_445 134.740(10) no
O2 Na2 O1 . . 45.260(10) no
O2 Na2 O1 13_545 13_545 45.260(10) no
O2 Na2 O1 14 14 45.260(10) no
O2 Na2 O1 15_445 15_445 45.260(10) no
O2 Na2 O1 2_545 2_545 45.260(10) no
O2 Na2 O1 3_655 3_655 45.260(10) no
O2 Na2 O1 . 14 69.90(2) no
O2 Na2 O1 13_545 2_545 69.90(2) no
O2 Na2 O1 14 3_655 69.90(2) no
O2 Na2 O1 15_445 . 69.90(2) no
O2 Na2 O1 2_545 15_445 69.90(2) no
O2 Na2 O1 3_655 13_545 69.90(2) no
O2 Na2 O1 . 15_445 76.72(2) no
O2 Na2 O1 13_545 3_655 76.72(2) no
O2 Na2 O1 14 . 76.72(2) no
O2 Na2 O1 15_445 2_545 76.72(2) no
O2 Na2 O1 2_545 13_545 76.72(2) no
O2 Na2 O1 3_655 14 76.72(2) no
O2 Na2 O2 . 14 109.71(2) no
O2 Na2 O2 . 15_445 109.71(2) no
O2 Na2 O2 13_545 3_655 109.71(2) no
O2 Na2 O2 2_545 13_545 109.71(2) no
O2 Na2 O2 2_545 15_445 109.71(2) no
O2 Na2 O2 3_655 14 109.71(2) no
O2 Na2 O2 . 13_545 180.0 no
O2 Na2 O2 2_545 14 180.0 no
O2 Na2 O2 3_655 15_445 180.0 no
O2 Na2 O2 . 2_545 70.29(2) no
O2 Na2 O2 . 3_655 70.29(2) no
O2 Na2 O2 13_545 14 70.29(2) no
O2 Na2 O2 13_545 15_445 70.29(2) no
O2 Na2 O2 14 15_445 70.29(2) no
O2 Na2 O2 2_545 3_655 70.29(2) no
O1 N O2 . . 118.51(5) no
O1 N Co . . 122.73(4) no
O2 N Co . . 118.73(4) no
N O1 Na1 . . 132.61(4) no
N O1 Na2 . . 92.24(3) no
Na1 O1 Na2 . . 130.97(2) no
N O2 Na1 . 7_544 166.03(4) no
N O2 Na2 . . 103.73(3) no
Na1 O2 Na2 7_544 . 89.30(2) no
loop_
_geom_bond_atom_site_label_1
_geom_bond_atom_site_label_2
_geom_bond_site_symmetry_2
_geom_bond_distance
_geom_bond_publ_flag
Co N . 1.9679(4) no
Co N 2 1.9679(4) no
Co N 3 1.9679(4) no
Co N 10 1.9679(4) no
Co N 11 1.9679(4) no
Co N 12 1.9679(4) no
N O1 . 1.2326(7) no
N O2 . 1.2395(6) no
Na1 O1 . 2.3098(6) no
Na1 O1 2 2.3098(6) no
Na1 O1 3 2.3098(6) no
Na1 O2 6 2.3141(5) no
Na1 O2 4_455 2.3141(5) no
Na1 O2 5_445 2.3141(5) no
Na1 Na2 4_455 3.4811(7) no
Na2 O1 . 2.8637(5) no
Na2 O1 14 2.8637(5) no
Na2 O1 2_545 2.8637(5) no
Na2 O1 3_655 2.8637(5) no
Na2 O1 13_545 2.8637(5) no
Na2 O1 15_445 2.8637(5) no
Na2 O2 . 2.6291(5) no
Na2 O2 14 2.6291(5) no
Na2 O2 2_545 2.6291(5) no
Na2 O2 3_655 2.6291(5) no
Na2 O2 13_545 2.6291(5) no
Na2 O2 15_445 2.6291(5) no
O2 Na1 7_544 2.3142(5) no
