#------------------------------------------------------------------------------
#$Date: 2016-02-14 16:26:36 +0200 (Sun, 14 Feb 2016) $
#$Revision: 176435 $
#$URL: svn://www.crystallography.net/cod/cif/2/01/39/2013919.cif $
#------------------------------------------------------------------------------
#
# This file is available in the Crystallography Open Database (COD),
# http://www.crystallography.net/. The original data for this entry
# were provided by IUCr Journals, http://journals.iucr.org/.
#
# The file may be used within the scientific community so long as
# proper attribution is given to the journal article from which the
# data were obtained.
#
data_2013919
loop_
_publ_author_name
'Redhammer, G\"unther J.'
'Roth, G.'
_publ_section_title
;
The ferri-annite KFe^2+^~3~(Al~0.26~Fe^3+^~0.76~Si~3~)O~10~(OH)~2~
at 100 and 270 K
;
_journal_name_full               'Acta Crystallographica, Section C'
_journal_page_first              i33
_journal_page_last               i36
_journal_paper_doi               10.1107/S010827010400321X
_journal_volume                  60
_journal_year                    2004
_chemical_formula_iupac          'K Fe3 (Al0.26 Fe0.76 Si3) O10 (O H)2'
_chemical_formula_moiety         'K , Fe3 Al0.24 Fe0.74 Si3 , O10 , 2 OH'
_chemical_formula_sum            'Al0.24 Fe3.76 H2 K O12 Si3'
_chemical_formula_weight         533.82
_chemical_name_common            'trioctahedral mica'
_chemical_name_systematic
'potassium triiron(II) aluminasilaferrate(III) decaoxide dihydroxide'
_space_group_IT_number           12
_symmetry_cell_setting           monoclinic
_symmetry_space_group_name_Hall  '-C 2y'
_symmetry_space_group_name_H-M   'C 1 2/m 1'
_audit_creation_method           'WinGX routine CIF_UPDATE'
_cell_angle_alpha                90
_cell_angle_beta                 100.03(2)
_cell_angle_gamma                90
_cell_formula_units_Z            2
_cell_length_a                   5.4106(13)
_cell_length_b                   9.3709(16)
_cell_length_c                   10.293(3)
_cell_measurement_reflns_used    4863
_cell_measurement_temperature    100.0(10)
_cell_measurement_theta_max      32.3
_cell_measurement_theta_min      2.1
_cell_volume                     513.9(2)
_computing_cell_refinement       X-AREA
_computing_data_collection       'X-AREA (Stoe & Cie, 2002)'
_computing_data_reduction        X-AREA
_computing_molecular_graphics    'DIAMOND (Brandenburg & Berndt, 1999)'
_computing_publication_material  'WinGX (Farrugia, 1999)'
_computing_structure_refinement  'SHELXL97 (Sheldrick, 1997)'
_computing_structure_solution    'SHELXS97 (Sheldrick, 1997)'
_diffrn_ambient_temperature      100.0(10)
_diffrn_measured_fraction_theta_full 0.987
_diffrn_measured_fraction_theta_max 0.987
_diffrn_measurement_device       '2-circle goniometer'
_diffrn_measurement_device_type  'Stoe IPDS 2'
_diffrn_measurement_method       'rotation method'
_diffrn_radiation_type           MoK\a
_diffrn_radiation_wavelength     0.71073
_diffrn_reflns_av_R_equivalents  0.028
_diffrn_reflns_limit_h_max       8
_diffrn_reflns_limit_h_min       -8
_diffrn_reflns_limit_k_max       14
_diffrn_reflns_limit_k_min       -11
_diffrn_reflns_limit_l_max       15
_diffrn_reflns_limit_l_min       -15
_diffrn_reflns_number            4927
_diffrn_reflns_theta_full        32.1
_diffrn_reflns_theta_max         32.1
_diffrn_reflns_theta_min         2.01
_diffrn_standards_decay_%        0
_diffrn_standards_interval_count 0
_diffrn_standards_interval_time  0
_diffrn_standards_number         0
_exptl_absorpt_coefficient_mu    6.072
_exptl_absorpt_correction_T_max  0.52
_exptl_absorpt_correction_T_min  0.36
_exptl_absorpt_correction_type   numerical
_exptl_absorpt_process_details
'via equivalents (X-SHAPE and X-RED; Stoe & Cie 1996)'
_exptl_crystal_colour            'dark brown'
_exptl_crystal_density_diffrn    3.453
_exptl_crystal_density_meas      ?
_exptl_crystal_density_method    'not measured'
_exptl_crystal_description       cuboid
_exptl_crystal_F_000             520.2
_exptl_crystal_size_max          0.17
_exptl_crystal_size_mid          0.14
_exptl_crystal_size_min          0.10
_refine_diff_density_max         0.421
_refine_diff_density_min         -0.419
_refine_ls_extinction_coef       0.0090(8)
_refine_ls_extinction_expression Fc^*^=kFc[1+0.001xFc^2^\l^3^/sin(2\q)]^-1/4^
_refine_ls_extinction_method     'SHELXL97 (Sheldrick, 1997)'
_refine_ls_goodness_of_fit_ref   1.09
_refine_ls_hydrogen_treatment    refall
_refine_ls_matrix_type           full
_refine_ls_number_parameters     59
_refine_ls_number_reflns         934
_refine_ls_number_restraints     1
_refine_ls_restrained_S_all      1.089
_refine_ls_R_factor_gt           0.0191
_refine_ls_shift/su_max          0
_refine_ls_structure_factor_coef Fsqd
_refine_ls_weighting_details
'calc w = 1/[\s^2^(Fo^2^)+(0.0298P)^2^+0.3868P] where P=(Fo^2^+2Fc^2^)/3'
_refine_ls_weighting_scheme      calc
_refine_ls_wR_factor_ref         0.0523
_reflns_number_gt                825
_reflns_number_total             934
_reflns_threshold_expression     I>2\s(I)
_cod_data_source_file            bc1034.cif
_cod_data_source_block           II
_cod_depositor_comments
;
The following automatic conversions were performed:

'_exptl_crystal_density_meas' value 'not measured' was changed to '?'
- the value is perceived as not measured.

Automatic conversion script
Id: cif_fix_values 3008 2015-01-20 13:52:24Z robertas 
;
_cod_original_sg_symbol_H-M      'C 2/m'
_cod_original_formula_sum        'Al0.24 Fe3.76 H2 K1 O12 Si3'
_cod_database_code               2013919
loop_
_symmetry_equiv_pos_as_xyz
'x, y, z'
'-x, y, -z'
'x+1/2, y+1/2, z'
'-x+1/2, y+1/2, -z'
'-x, -y, -z'
'x, -y, z'
'-x+1/2, -y+1/2, -z'
'x+1/2, -y+1/2, z'
loop_
_atom_site_label
_atom_site_fract_x
_atom_site_fract_y
_atom_site_fract_z
_atom_site_U_iso_or_equiv
_atom_site_adp_type
_atom_site_calc_flag
_atom_site_refinement_flags
_atom_site_occupancy
_atom_site_disorder_assembly
_atom_site_disorder_group
_atom_site_type_symbol
Fe1 0.5 0.0 0.5 0.00628(10) Uani d S 1 . . Fe
Fe2 1.0 0.16807(3) 0.5 0.00630(10) Uani d S 1 . . Fe
Si 0.57461(7) 0.16660(3) 0.22365(3) 0.00888(12) Uani d P 0.75 . . Si
Fe3 0.57461(7) 0.16660(3) 0.22365(3) 0.00888(12) Uani d P 0.191(3) . . Fe
Al 0.57461(7) 0.16660(3) 0.22365(3) 0.00888(12) Uani d P 0.059(3) . . Al
K 0.0 0.0 0.0 0.01952(16) Uani d S 1 . . K
O1 0.8284(2) 0.22740(16) 0.16760(12) 0.0253(3) Uani d . 1 . . O
O2 0.5110(4) 0.0 0.16757(17) 0.0252(4) Uani d S 1 . . O
O3 0.62975(19) 0.16648(10) 0.38892(10) 0.0089(2) Uani d . 1 . . O
O4 0.1307(3) 0.0 0.39515(13) 0.0082(3) Uani d S 1 . . O
H 0.097(7) 0.0 0.303(4) 0.025(9) Uiso d S 1 . . H
loop_
_atom_site_aniso_label
_atom_site_aniso_U_11
_atom_site_aniso_U_22
_atom_site_aniso_U_33
_atom_site_aniso_U_12
_atom_site_aniso_U_13
_atom_site_aniso_U_23
Fe1 0.00539(17) 0.00508(17) 0.00867(17) 0.0 0.00205(12) 0.0
Fe2 0.00500(14) 0.00525(14) 0.00882(14) 0.0 0.00167(9) 0.0
Si 0.00882(18) 0.00905(18) 0.00893(18) -0.00015(11) 0.00198(11) -0.00008(11)
Fe3 0.00882(18) 0.00905(18) 0.00893(18) -0.00015(11) 0.00198(11) -0.00008(11)
Al 0.00882(18) 0.00905(18) 0.00893(18) -0.00015(11) 0.00198(11) -0.00008(11)
K 0.0226(3) 0.0234(3) 0.0123(3) 0.0 0.0023(2) 0.0
O1 0.0276(7) 0.0333(8) 0.0150(5) -0.0045(5) 0.0037(4) -0.0017(5)
O2 0.0339(10) 0.0266(9) 0.0141(7) 0.0 0.0016(7) 0.0
O3 0.0074(5) 0.0075(5) 0.0122(4) 0.0002(3) 0.0025(3) 0.0002(3)
O4 0.0080(6) 0.0087(6) 0.0082(6) 0.0 0.0020(4) 0.0
loop_
_atom_type_symbol
_atom_type_description
_atom_type_scat_dispersion_real
_atom_type_scat_dispersion_imag
_atom_type_scat_source
K K 0.2009 0.2494 'International Tables Vol C Tables 4.2.6.8 and 6.1.1.4'
Fe Fe 0.3463 0.8444 'International Tables Vol C Tables 4.2.6.8 and 6.1.1.4'
Al Al 0.0645 0.0514 'International Tables Vol C Tables 4.2.6.8 and 6.1.1.4'
Si Si 0.0817 0.0704 'International Tables Vol C Tables 4.2.6.8 and 6.1.1.4'
O O 0.0106 0.006 'International Tables Vol C Tables 4.2.6.8 and 6.1.1.4'
H H 0 0 'International Tables Vol C Tables 4.2.6.8 and 6.1.1.4'
loop_
_geom_angle_atom_site_label_1
_geom_angle_atom_site_label_2
_geom_angle_atom_site_label_3
_geom_angle_site_symmetry_1
_geom_angle_site_symmetry_3
_geom_angle
_geom_angle_publ_flag
O4 Fe1 O3 . 6 95.60(4) yes
O4 Fe1 O3 5_656 6 84.40(4) yes
O3 Fe1 O3 6 . 94.50(6) yes
O3 Fe1 O3 2_656 . 85.50(6) yes
O4 Fe2 O4 1_655 5_656 82.84(6) yes
O4 Fe2 O3 1_655 7_656 178.21(4) ?
O4 Fe2 O3 5_656 7_656 95.66(4) yes
O3 Fe2 O3 8 7_656 85.85(6) yes
O4 Fe2 O3 5_656 . 84.32(5) yes
O4 Fe2 O3 1_655 . 95.07(5) yes
O3 Fe2 O3 7_656 . 85.73(4) yes
O3 Fe2 O3 8 . 94.86(4) yes
O3 Fe2 O3 . 2_756 179.20(5) ?
O3 Si O1 . . 109.72(6) yes
O3 Si O2 . . 109.76(7) yes
O1 Si O2 . . 109.17(8) yes
O3 Si O1 . 8_455 109.82(6) yes
O1 Si O1 . 8_455 109.16(5) yes
O2 Si O1 . 8_455 109.19(8) yes
O1 K O1 5_655 1_455 180.00(5) ?
O1 K O1 5_655 6_455 89.07(5) ?
O1 K O1 1_455 6_455 90.93(5) ?
O1 K O1 5_655 2_655 90.93(5) ?
O1 K O1 1_455 2_655 89.07(5) ?
O1 K O1 6_455 2_655 180.00(4) ?
O1 K O2 5_655 . 89.08(4) ?
O1 K O2 1_455 . 90.92(4) ?
O1 K O2 6_455 . 90.92(4) ?
O1 K O2 2_655 . 89.08(4) ?
O1 K O2 5_655 5 90.92(4) ?
O1 K O2 1_455 5 89.08(4) ?
O1 K O2 6_455 5 89.08(4) ?
O1 K O2 2_655 5 90.92(4) ?
O2 K O2 . 5 180.00(6) ?
O1 K O2 5_655 5_655 50.21(3) ?
O1 K O2 1_455 5_655 129.79(3) ?
O1 K O2 6_455 5_655 129.79(3) ?
O1 K O2 2_655 5_655 50.21(3) ?
O2 K O2 . 5_655 64.53(6) ?
O2 K O2 5 5_655 115.47(6) ?
O1 K O2 5_655 1_455 129.79(3) ?
O1 K O2 1_455 1_455 50.21(3) ?
O1 K O2 6_455 1_455 50.21(3) ?
O1 K O2 2_655 1_455 129.79(3) ?
O2 K O2 . 1_455 115.47(6) ?
O2 K O2 5 1_455 64.53(6) ?
O2 K O2 5_655 1_455 180.00(3) ?
O1 K O1 5_655 8_455 129.799(17) ?
O1 K O1 1_455 8_455 50.201(17) ?
O1 K O1 6_455 8_455 115.44(4) ?
O1 K O1 2_655 8_455 64.56(4) ?
O2 K O1 . 8_455 50.19(3) ?
O2 K O1 5 8_455 129.81(3) ?
O2 K O1 5_655 8_455 82.73(3) ?
O2 K O1 1_455 8_455 97.27(3) ?
O1 K O1 5_655 4_545 50.201(17) ?
O1 K O1 1_455 4_545 129.799(17) ?
O1 K O1 6_455 4_545 64.56(4) ?
O1 K O1 2_655 4_545 115.44(4) ?
O2 K O1 . 4_545 129.81(3) ?
O2 K O1 5 4_545 50.19(3) ?
O2 K O1 5_655 4_545 97.27(3) ?
O2 K O1 1_455 4_545 82.73(3) ?
O1 K O1 8_455 4_545 180.00(5) ?
O1 K O1 5_655 7 115.44(4) ?
O1 K O1 1_455 7 64.56(4) ?
O1 K O1 6_455 7 129.799(17) ?
O1 K O1 2_655 7 50.201(17) ?
O2 K O1 . 7 129.81(3) ?
O2 K O1 5 7 50.19(3) ?
O2 K O1 5_655 7 97.27(3) ?
O2 K O1 1_455 7 82.73(3) ?
O1 K O1 8_455 7 82.76(5) ?
O1 K O1 4_545 7 97.24(5) ?
O1 K O1 5_655 3_445 64.56(4) ?
O1 K O1 1_455 3_445 115.44(4) ?
O1 K O1 6_455 3_445 50.201(17) ?
O1 K O1 2_655 3_445 129.799(17) ?
O2 K O1 . 3_445 50.19(3) ?
O2 K O1 5 3_445 129.81(3) ?
O2 K O1 5_655 3_445 82.73(3) ?
O2 K O1 1_455 3_445 97.27(3) ?
O1 K O1 8_455 3_445 97.24(5) ?
O1 K O1 4_545 3_445 82.76(5) ?
O1 K O1 7 3_445 180.00(5) ?
loop_
_geom_bond_atom_site_label_1
_geom_bond_atom_site_label_2
_geom_bond_site_symmetry_2
_geom_bond_distance
_geom_bond_publ_flag
Fe1 O4 . 2.0990(15) yes
Fe1 O3 . 2.1245(10) yes
Fe2 O4 1_655 2.1003(9) yes
Fe2 O3 8 2.1174(10) yes
Fe2 O3 . 2.1266(12) yes
Si O3 . 1.6751(12) yes
Si O1 . 1.6790(14) yes
Si O2 . 1.6792(8) yes
Si O1 8_455 1.6811(14) yes
K O1 5_655 2.9894(15) yes
K O2 . 2.993(2) yes
K O2 5_655 3.401(2) yes
K O1 8_455 3.4045(16) yes
O4 H . 0.94(4) yes
