#------------------------------------------------------------------------------
#$Date: 2016-02-14 16:26:36 +0200 (Sun, 14 Feb 2016) $
#$Revision: 176435 $
#$URL: svn://www.crystallography.net/cod/cif/2/01/34/2013452.cif $
#------------------------------------------------------------------------------
#
# This file is available in the Crystallography Open Database (COD),
# http://www.crystallography.net/. The original data for this entry
# were provided by IUCr Journals, http://journals.iucr.org/.
#
# The file may be used within the scientific community so long as
# proper attribution is given to the journal article from which the
# data were obtained.
#
data_2013452
loop_
_publ_author_name
'Azhar A. Rahman'
'Anwar Usman'
'Suchada Chantrapromma'
'Hoong-Kun Fun'
_publ_section_title
;
 Redetermination of hydronium perchlorate at 193 and 293K
;
_journal_issue                   9
_journal_name_full               'Acta Crystallographica Section C'
_journal_page_first              i92
_journal_page_last               i94
_journal_paper_doi               10.1107/S0108270103010461
_journal_volume                  59
_journal_year                    2003
_chemical_formula_iupac          'H3 O 1+, Cl O4 1-'
_chemical_formula_moiety         'H3 O 1+, Cl O4 1-'
_chemical_formula_sum            'Cl H3 O5'
_chemical_formula_weight         118.47
_chemical_name_systematic
;
hydronium perchlorate
;
_space_group_IT_number           62
_symmetry_cell_setting           orthorhombic
_symmetry_space_group_name_Hall  '-P 2ac 2n'
_symmetry_space_group_name_H-M   'P n m a'
_atom_sites_solution_hydrogens   geom
_atom_sites_solution_primary     direct
_atom_sites_solution_secondary   difmap
_audit_creation_method           SHELXL-97
_cell_angle_alpha                90.00
_cell_angle_beta                 90.00
_cell_angle_gamma                90.00
_cell_formula_units_Z            4
_cell_length_a                   9.2343(15)
_cell_length_b                   5.8178(9)
_cell_length_c                   7.4606(12)
_cell_measurement_reflns_used    1439
_cell_measurement_temperature    293(2)
_cell_measurement_theta_max      28.28
_cell_measurement_theta_min      3.51
_cell_volume                     400.81(11)
_computing_cell_refinement       'SAINT (Siemens, 1996)'
_computing_data_collection       'SMART (Siemens, 1996)'
_computing_data_reduction        SAINT
_computing_molecular_graphics    SHELXTL
_computing_publication_material  SHELXTL
_computing_structure_refinement  SHELXTL
_computing_structure_solution    'SHELXTL (Sheldrick, 1997)'
_diffrn_ambient_temperature      293(2)
_diffrn_detector_area_resol_mean 8.33
_diffrn_measured_fraction_theta_full 0.998
_diffrn_measured_fraction_theta_max 0.998
_diffrn_measurement_device_type
;
Siemens SMART CCD area-detector
;
_diffrn_measurement_method       \w
_diffrn_radiation_monochromator  graphite
_diffrn_radiation_source         'fine-focus sealed tube'
_diffrn_radiation_type           MoK\a
_diffrn_radiation_wavelength     0.71073
_diffrn_reflns_av_R_equivalents  0.0186
_diffrn_reflns_av_sigmaI/netI    0.0161
_diffrn_reflns_limit_h_max       10
_diffrn_reflns_limit_h_min       -12
_diffrn_reflns_limit_k_max       7
_diffrn_reflns_limit_k_min       -7
_diffrn_reflns_limit_l_max       9
_diffrn_reflns_limit_l_min       -8
_diffrn_reflns_number            2348
_diffrn_reflns_theta_full        28.26
_diffrn_reflns_theta_max         28.26
_diffrn_reflns_theta_min         3.51
_diffrn_standards_decay_%        negligible
_diffrn_standards_interval_count none
_diffrn_standards_number         0
_exptl_absorpt_coefficient_mu    0.841
_exptl_absorpt_correction_T_max  0.8914
_exptl_absorpt_correction_T_min  0.7987
_exptl_absorpt_correction_type   multi-scan
_exptl_absorpt_process_details   '(SADABS; Sheldrick, 1996)'
_exptl_crystal_colour            colorless
_exptl_crystal_density_diffrn    1.963
_exptl_crystal_density_method    'not measured'
_exptl_crystal_description       block
_exptl_crystal_F_000             240
_exptl_crystal_size_max          0.28
_exptl_crystal_size_mid          0.24
_exptl_crystal_size_min          0.14
_refine_diff_density_max         0.468
_refine_diff_density_min         -0.373
_refine_ls_extinction_method     none
_refine_ls_goodness_of_fit_ref   1.161
_refine_ls_hydrogen_treatment    undef
_refine_ls_matrix_type           full
_refine_ls_number_parameters     34
_refine_ls_number_reflns         545
_refine_ls_number_restraints     0
_refine_ls_restrained_S_all      1.161
_refine_ls_R_factor_all          0.0518
_refine_ls_R_factor_gt           0.0467
_refine_ls_shift/su_max          <0.001
_refine_ls_shift/su_mean         0.000
_refine_ls_structure_factor_coef Fsqd
_refine_ls_weighting_details
'calc w = 1/[\s^2^(Fo^2^)+(0.0596P)^2^+0.6383P] where P = (Fo^2^+2Fc^2^)/3'
_refine_ls_weighting_scheme      calc
_refine_ls_wR_factor_gt          0.1261
_refine_ls_wR_factor_ref         0.1300
_reflns_number_gt                483
_reflns_number_total             545
_reflns_threshold_expression     I>2\s(I)
_cod_data_source_file            gd1256.cif
_cod_data_source_block           II
_cod_depositor_comments
;
The following automatic conversions were performed:
'_symmetry_cell_setting' value 'Orthorhombic' changed to 'orthorhombic'
according to '/home/saulius/struct/CIF-dictionaries/cif_core.dic'
dictionary named 'cif_core.dic' version 2.4.1 from 2010-06-29.

Automatic conversion script
Id: cif_fix_enum 1527 2010-12-29 10:47:43Z saulius 

The following automatic conversions were performed:

'_symmetry_cell_setting' value 'Orthorhombic' changed to
'orthorhombic' according to
/home/saulius/struct/CIF-dictionaries/cif_core.dic dictionary named
'cif_core.dic' version 2.4.1 from 2010-06-29.

Automatic conversion script
Id: cif_fix_values 1715 2011-07-08 13:25:40Z adriana 
;
_cod_original_formula_sum        'H3 Cl O5'
_cod_database_code               2013452
loop_
_symmetry_equiv_pos_as_xyz
'x, y, z'
'-x+1/2, -y, z+1/2'
'x+1/2, -y+1/2, -z+1/2'
'-x, y+1/2, -z'
'-x, -y, -z'
'x-1/2, y, -z-1/2'
'-x-1/2, y-1/2, z-1/2'
'x, -y-1/2, z'
loop_
_atom_site_label
_atom_site_fract_x
_atom_site_fract_y
_atom_site_fract_z
_atom_site_U_iso_or_equiv
_atom_site_adp_type
_atom_site_calc_flag
_atom_site_refinement_flags
_atom_site_occupancy
_atom_site_disorder_assembly
_atom_site_disorder_group
_atom_site_type_symbol
Cl1 0.43197(9) 0.2500 0.19179(11) 0.0262(3) Uani d S 1 . . Cl
O1 0.3147(4) 0.2500 0.0651(4) 0.0456(8) Uani d S 1 . . O
O2 0.5686(4) 0.2500 0.1019(5) 0.0575(11) Uani d S 1 . . O
O3 0.4202(2) 0.0486(4) 0.3035(3) 0.0400(6) Uani d . 1 . . O
O1W 0.3192(4) 0.2500 0.6655(4) 0.0440(8) Uani d S 1 . . O
loop_
_atom_site_aniso_label
_atom_site_aniso_U_11
_atom_site_aniso_U_22
_atom_site_aniso_U_33
_atom_site_aniso_U_12
_atom_site_aniso_U_13
_atom_site_aniso_U_23
Cl1 0.0245(5) 0.0289(5) 0.0252(5) 0.000 0.0016(3) 0.000
O1 0.0487(19) 0.053(2) 0.0352(16) 0.000 -0.0180(15) 0.000
O2 0.0367(18) 0.072(3) 0.063(2) 0.000 0.0243(16) 0.000
O3 0.0456(12) 0.0324(12) 0.0420(11) 0.0006(9) -0.0033(9) 0.0097(9)
O1W 0.0381(17) 0.0493(19) 0.0447(17) 0.000 0.0018(14) 0.000
loop_
_atom_type_symbol
_atom_type_description
_atom_type_scat_dispersion_real
_atom_type_scat_dispersion_imag
_atom_type_scat_source
H H 0.0000 0.0000 'International Tables Vol C Tables 4.2.6.8 and 6.1.1.4'
Cl Cl 0.1484 0.1585 'International Tables Vol C Tables 4.2.6.8 and 6.1.1.4'
O O 0.0106 0.0060 'International Tables Vol C Tables 4.2.6.8 and 6.1.1.4'
loop_
_geom_angle_atom_site_label_1
_geom_angle_atom_site_label_2
_geom_angle_atom_site_label_3
_geom_angle_site_symmetry_1
_geom_angle_site_symmetry_3
_geom_angle
_geom_angle_publ_flag
O1 Cl1 O2 . . 110.9(2) y
O2 Cl1 O3 . 8_565 109.77(13) no
O1 Cl1 O3 . 8_565 108.85(12) no
O2 Cl1 O3 . . 109.77(13) y
O3 Cl1 O1 . . 108.85(12) y
O3 Cl1 O3 8_565 . 108.68(18) y
loop_
_geom_bond_atom_site_label_1
_geom_bond_atom_site_label_2
_geom_bond_site_symmetry_2
_geom_bond_distance
_geom_bond_publ_flag
Cl1 O2 . 1.429(3) y
Cl1 O1 . 1.437(3) y
Cl1 O3 8_565 1.442(2) no
Cl1 O3 . 1.442(2) y
