#------------------------------------------------------------------------------
#$Date: 2016-02-20 00:18:51 +0200 (Sat, 20 Feb 2016) $
#$Revision: 176760 $
#$URL: svn://www.crystallography.net/cod/cif/2/01/67/2016743.cif $
#------------------------------------------------------------------------------
#
# This file is available in the Crystallography Open Database (COD),
# http://www.crystallography.net/. The original data for this entry
# were provided by IUCr Journals, http://journals.iucr.org/.
#
# The file may be used within the scientific community so long as
# proper attribution is given to the journal article from which the
# data were obtained.
#
data_2016743
loop_
_publ_author_name
'Ringe, Emilie'
'Ibers, James A.'
_publ_section_title
;
 Partial Cu occupancy in uranium copper diantimonide, UCu~0.60(4)~Sb~2~
;
_journal_coeditor_code           SQ3154
_journal_issue                   8
_journal_name_full               'Acta Crystallographica Section C'
_journal_page_first              i76
_journal_page_last               i78
_journal_paper_doi               10.1107/S0108270108020386
_journal_volume                  64
_journal_year                    2008
_chemical_formula_iupac          'U Cu0.60(4) Sb2'
_chemical_formula_moiety         'Cu0.634 Sb2 U'
_chemical_formula_sum            'Cu0.634 Sb2 U'
_chemical_formula_weight         521.84
_chemical_name_common            'uranium copper diantimonide'
_chemical_name_systematic
;
uranium copper diantimonide
;
_space_group_IT_number           129
_symmetry_cell_setting           tetragonal
_symmetry_space_group_name_Hall  '-P 4a 2a'
_symmetry_space_group_name_H-M   'P 4/n m m :2'
_atom_sites_solution_primary     direct
_atom_sites_solution_secondary   difmap
_audit_creation_method           SHELXL97
_cell_angle_alpha                90.00
_cell_angle_beta                 90.00
_cell_angle_gamma                90.00
_cell_formula_units_Z            2
_cell_length_a                   4.320(4)
_cell_length_b                   4.320(4)
_cell_length_c                   9.341(9)
_cell_measurement_reflns_used    1655
_cell_measurement_temperature    100(2)
_cell_measurement_theta_max      28.52
_cell_measurement_theta_min      4.36
_cell_volume                     174.3(3)
_computing_cell_refinement       'SAINT (Bruker, 2003)'
_computing_data_collection       'SMART (Bruker, 2003)'
_computing_data_reduction        'SAINT (Bruker, 2003)'
_computing_molecular_graphics    'CrystalMaker (Palmer, 2008)'
_computing_publication_material  'SHELXTL (Sheldrick, 2008)'
_computing_structure_refinement  'SHELXL97 (Sheldrick, 2008)'
_computing_structure_solution    'SHELXS97 (Sheldrick, 2008)'
_diffrn_ambient_temperature      100(2)
_diffrn_measured_fraction_theta_full 0.975
_diffrn_measured_fraction_theta_max 0.975
_diffrn_measurement_device_type  'Bruker SMART 1000 CCD'
_diffrn_measurement_method       \w
_diffrn_radiation_monochromator  graphite
_diffrn_radiation_source         'fine-focus sealed tube'
_diffrn_radiation_type           MoK\a
_diffrn_radiation_wavelength     0.71073
_diffrn_reflns_av_R_equivalents  0.0750
_diffrn_reflns_av_sigmaI/netI    0.0267
_diffrn_reflns_limit_h_max       5
_diffrn_reflns_limit_h_min       -5
_diffrn_reflns_limit_k_max       5
_diffrn_reflns_limit_k_min       -5
_diffrn_reflns_limit_l_max       12
_diffrn_reflns_limit_l_min       -12
_diffrn_reflns_number            1951
_diffrn_reflns_theta_full        28.11
_diffrn_reflns_theta_max         28.11
_diffrn_reflns_theta_min         2.18
_exptl_absorpt_coefficient_mu    65.203
_exptl_absorpt_correction_T_max  0.0859
_exptl_absorpt_correction_T_min  0.0199
_exptl_absorpt_correction_type   numerical
_exptl_absorpt_process_details   'face-indexed (SADABS; Bruker, 2003)'
_exptl_crystal_colour            black
_exptl_crystal_density_diffrn    9.943
_exptl_crystal_density_method    'not measured'
_exptl_crystal_description       plate
_exptl_crystal_F_000             424.80
_exptl_crystal_size_max          0.1389
_exptl_crystal_size_mid          0.08158
_exptl_crystal_size_min          0.05221
_refine_diff_density_max         1.322
_refine_diff_density_min         -3.324
_refine_ls_extinction_coef       0.0174(16)
_refine_ls_extinction_expression Fc^*^=kFc[1+0.001xFc^2^\l^3^/sin(2\q)]^-1/4^
_refine_ls_extinction_method     'SHELXL97 (Sheldrick, 2008)'
_refine_ls_goodness_of_fit_ref   1.200
_refine_ls_matrix_type           full
_refine_ls_number_parameters     13
_refine_ls_number_reflns         155
_refine_ls_number_restraints     0
_refine_ls_restrained_S_all      1.200
_refine_ls_R_factor_all          0.0241
_refine_ls_R_factor_gt           0.0241
_refine_ls_shift/su_max          0.000
_refine_ls_shift/su_mean         0.000
_refine_ls_structure_factor_coef Fsqd
_refine_ls_weighting_details
'calc w = 1/[\s^2^(Fo^2^)+(0.0306P)^2^+1.6422P] where P=(Fo^2^+2Fc^2^)/3'
_refine_ls_weighting_scheme      calc
_refine_ls_wR_factor_gt          0.0582
_refine_ls_wR_factor_ref         0.0582
_reflns_number_gt                155
_reflns_number_total             155
_reflns_threshold_expression     I>2\s(I)
_cod_data_source_file            sq3154.cif
_cod_data_source_block           I_100K
_cod_original_sg_symbol_H-M      'P 4/n m m'
_cod_database_code               2016743
_cod_database_fobs_code          2016743
loop_
_symmetry_equiv_pos_as_xyz
'x, y, z'
'-x+1/2, -y+1/2, z'
'-y+1/2, x, z'
'y, -x+1/2, z'
'-x, y+1/2, -z'
'x+1/2, -y, -z'
'y+1/2, x+1/2, -z'
'-y, -x, -z'
'-x, -y, -z'
'x-1/2, y-1/2, -z'
'y-1/2, -x, -z'
'-y, x-1/2, -z'
'x, -y-1/2, z'
'-x-1/2, y, z'
'-y-1/2, -x-1/2, z'
'y, x, z'
loop_
_atom_site_type_symbol
_atom_site_label
_atom_site_fract_x
_atom_site_fract_y
_atom_site_fract_z
_atom_site_U_iso_or_equiv
_atom_site_adp_type
_atom_site_calc_flag
_atom_site_refinement_flags
_atom_site_occupancy
U U1 0.2500 0.2500 0.25716(6) 0.0067(3) Uani d S 1
Sb Sb1 0.2500 0.2500 0.65348(12) 0.0087(4) Uani d S 1
Sb Sb2 0.7500 0.2500 0.0000 0.0062(4) Uani d S 1
Cu Cu1 0.7500 0.2500 0.5000 0.0080(13) Uani d SP 0.634(12)
loop_
_atom_site_aniso_label
_atom_site_aniso_U_11
_atom_site_aniso_U_22
_atom_site_aniso_U_33
_atom_site_aniso_U_12
_atom_site_aniso_U_13
_atom_site_aniso_U_23
U1 0.0045(4) 0.0045(4) 0.0113(5) 0.000 0.000 0.000
Sb1 0.0054(4) 0.0054(4) 0.0153(7) 0.000 0.000 0.000
Sb2 0.0045(5) 0.0045(5) 0.0097(7) 0.000 0.000 0.000
Cu1 0.0095(15) 0.0095(15) 0.0051(18) 0.000 0.000 0.000
loop_
_atom_type_symbol
_atom_type_description
_atom_type_scat_dispersion_real
_atom_type_scat_dispersion_imag
_atom_type_scat_source
Cu Cu 0.3201 1.2651 'International Tables Vol C Tables 4.2.6.8 and 6.1.1.4'
Sb Sb -0.5866 1.5461 'International Tables Vol C Tables 4.2.6.8 and 6.1.1.4'
U U -9.6767 9.6646 'International Tables Vol C Tables 4.2.6.8 and 6.1.1.4'
loop_
_geom_angle_atom_site_label_1
_geom_angle_atom_site_label_2
_geom_angle_atom_site_label_3
_geom_angle_site_symmetry_1
_geom_angle_site_symmetry_3
_geom_angle
_geom_angle_publ_flag
Cu1 U1 Cu1 9_666 . 58.37(5) ?
Cu1 U1 Cu1 9_666 9_656 87.20(8) ?
Cu1 U1 Cu1 . 9_656 58.37(5) ?
Cu1 U1 Cu1 9_666 1_455 58.37(5) ?
Cu1 U1 Cu1 . 1_455 87.20(8) ?
Cu1 U1 Cu1 9_656 1_455 58.37(5) ?
Cu1 U1 Sb1 9_666 9_666 48.603(15) ?
Cu1 U1 Sb1 . 9_666 48.603(15) ?
Cu1 U1 Sb1 9_656 9_666 106.23(5) ?
Cu1 U1 Sb1 1_455 9_666 106.23(5) ?
Cu1 U1 Sb1 9_666 9_556 106.23(5) ?
Cu1 U1 Sb1 . 9_556 106.23(5) ?
Cu1 U1 Sb1 9_656 9_556 48.603(15) ?
Cu1 U1 Sb1 1_455 9_556 48.603(15) ?
Sb1 U1 Sb1 9_666 9_556 149.44(6) ?
Cu1 U1 Sb1 9_666 9_566 48.603(15) ?
Cu1 U1 Sb1 . 9_566 106.23(5) ?
Cu1 U1 Sb1 9_656 9_566 106.23(5) ?
Cu1 U1 Sb1 1_455 9_566 48.603(15) ?
Sb1 U1 Sb1 9_666 9_566 86.016(15) ?
Sb1 U1 Sb1 9_556 9_566 86.016(15) ?
Cu1 U1 Sb1 9_666 9_656 106.23(5) ?
Cu1 U1 Sb1 . 9_656 48.603(15) ?
Cu1 U1 Sb1 9_656 9_656 48.603(15) ?
Cu1 U1 Sb1 1_455 9_656 106.23(5) ?
Sb1 U1 Sb1 9_666 9_656 86.016(15) ?
Sb1 U1 Sb1 9_556 9_656 86.016(15) ?
Sb1 U1 Sb1 9_566 9_656 149.44(6) ?
Cu1 U1 Sb2 9_666 1_455 122.58(5) ?
Cu1 U1 Sb2 . 1_455 178.364(13) ?
Cu1 U1 Sb2 9_656 1_455 122.58(5) ?
Cu1 U1 Sb2 1_455 1_455 94.43(8) ?
Sb1 U1 Sb2 9_666 1_455 130.699(18) ?
Sb1 U1 Sb2 9_556 1_455 74.92(5) ?
Sb1 U1 Sb2 9_566 1_455 74.92(5) ?
Sb1 U1 Sb2 9_656 1_455 130.699(18) ?
Cu1 U1 Sb2 9_666 9_655 178.364(13) ?
Cu1 U1 Sb2 . 9_655 122.58(5) ?
Cu1 U1 Sb2 9_656 9_655 94.43(8) ?
Cu1 U1 Sb2 1_455 9_655 122.58(5) ?
Sb1 U1 Sb2 9_666 9_655 130.699(18) ?
Sb1 U1 Sb2 9_556 9_655 74.92(5) ?
Sb1 U1 Sb2 9_566 9_655 130.699(18) ?
Sb1 U1 Sb2 9_656 9_655 74.92(5) ?
Sb2 U1 Sb2 1_455 9_655 56.44(5) ?
Cu1 U1 Sb2 9_666 . 122.58(5) ?
Cu1 U1 Sb2 . . 94.43(8) ?
Cu1 U1 Sb2 9_656 . 122.58(5) ?
Cu1 U1 Sb2 1_455 . 178.364(13) ?
Sb1 U1 Sb2 9_666 . 74.92(5) ?
Sb1 U1 Sb2 9_556 . 130.699(18) ?
Sb1 U1 Sb2 9_566 . 130.699(18) ?
Sb1 U1 Sb2 9_656 . 74.92(5) ?
Sb2 U1 Sb2 1_455 . 83.93(8) ?
Sb2 U1 Sb2 9_655 . 56.44(5) ?
Cu1 U1 Sb2 9_666 9_665 94.43(8) ?
Cu1 U1 Sb2 . 9_665 122.58(5) ?
Cu1 U1 Sb2 9_656 9_665 178.364(13) ?
Cu1 U1 Sb2 1_455 9_665 122.58(5) ?
Sb1 U1 Sb2 9_666 9_665 74.92(5) ?
Sb1 U1 Sb2 9_556 9_665 130.699(18) ?
Sb1 U1 Sb2 9_566 9_665 74.92(5) ?
Sb1 U1 Sb2 9_656 9_665 130.699(18) ?
Sb2 U1 Sb2 1_455 9_665 56.44(5) ?
Sb2 U1 Sb2 9_655 9_665 83.93(8) ?
Sb2 U1 Sb2 . 9_665 56.44(5) ?
Cu1 Sb1 Cu1 9_656 1_455 72.20(4) ?
Cu1 Sb1 Cu1 9_656 9_666 112.86(8) ?
Cu1 Sb1 Cu1 1_455 9_666 72.20(4) ?
Cu1 Sb1 Cu1 9_656 . 72.20(4) ?
Cu1 Sb1 Cu1 1_455 . 112.86(8) ?
Cu1 Sb1 Cu1 9_666 . 72.20(4) ?
Cu1 Sb1 U1 9_656 9_666 135.568(16) ?
Cu1 Sb1 U1 1_455 9_666 135.568(16) ?
Cu1 Sb1 U1 9_666 9_666 65.00(4) ?
Cu1 Sb1 U1 . 9_666 65.00(4) ?
Cu1 Sb1 U1 9_656 9_556 65.00(4) ?
Cu1 Sb1 U1 1_455 9_556 65.00(4) ?
Cu1 Sb1 U1 9_666 9_556 135.568(16) ?
Cu1 Sb1 U1 . 9_556 135.568(16) ?
U1 Sb1 U1 9_666 9_556 149.44(6) ?
Cu1 Sb1 U1 9_656 9_566 135.568(16) ?
Cu1 Sb1 U1 1_455 9_566 65.00(4) ?
Cu1 Sb1 U1 9_666 9_566 65.00(4) ?
Cu1 Sb1 U1 . 9_566 135.568(16) ?
U1 Sb1 U1 9_666 9_566 86.016(15) ?
U1 Sb1 U1 9_556 9_566 86.016(15) ?
Cu1 Sb1 U1 9_656 9_656 65.00(4) ?
Cu1 Sb1 U1 1_455 9_656 135.568(16) ?
Cu1 Sb1 U1 9_666 9_656 135.568(16) ?
Cu1 Sb1 U1 . 9_656 65.00(4) ?
U1 Sb1 U1 9_666 9_656 86.016(15) ?
U1 Sb1 U1 9_556 9_656 86.016(15) ?
U1 Sb1 U1 9_566 9_656 149.43(6) ?
Cu1 Sb1 U1 9_656 . 56.43(4) ?
Cu1 Sb1 U1 1_455 . 56.43(4) ?
Cu1 Sb1 U1 9_666 . 56.43(4) ?
Cu1 Sb1 U1 . . 56.43(4) ?
U1 Sb1 U1 9_666 . 105.28(3) ?
U1 Sb1 U1 9_556 . 105.28(3) ?
U1 Sb1 U1 9_566 . 105.28(3) ?
U1 Sb1 U1 9_656 . 105.28(3) ?
Sb2 Sb2 Sb2 9_765 9_655 180.0 ?
Sb2 Sb2 Sb2 9_765 9_665 90.0 ?
Sb2 Sb2 Sb2 9_655 9_665 90.0 ?
Sb2 Sb2 Sb2 9_765 9_755 90.0 ?
Sb2 Sb2 Sb2 9_655 9_755 90.0 ?
Sb2 Sb2 Sb2 9_665 9_755 180.0 ?
Sb2 Sb2 U1 9_765 9_655 118.22(2) ?
Sb2 Sb2 U1 9_655 9_655 61.78(2) ?
Sb2 Sb2 U1 9_665 9_655 118.22(2) ?
Sb2 Sb2 U1 9_755 9_655 61.78(2) ?
Sb2 Sb2 U1 9_765 1_655 61.78(2) ?
Sb2 Sb2 U1 9_655 1_655 118.22(2) ?
Sb2 Sb2 U1 9_665 1_655 118.22(2) ?
Sb2 Sb2 U1 9_755 1_655 61.78(2) ?
U1 Sb2 U1 9_655 1_655 123.56(5) ?
Sb2 Sb2 U1 9_765 . 118.22(2) ?
Sb2 Sb2 U1 9_655 . 61.78(2) ?
Sb2 Sb2 U1 9_665 . 61.78(2) ?
Sb2 Sb2 U1 9_755 . 118.22(2) ?
U1 Sb2 U1 9_655 . 123.56(5) ?
U1 Sb2 U1 1_655 . 83.93(8) ?
Sb2 Sb2 U1 9_765 9_665 61.78(2) ?
Sb2 Sb2 U1 9_655 9_665 118.22(2) ?
Sb2 Sb2 U1 9_665 9_665 61.78(2) ?
Sb2 Sb2 U1 9_755 9_665 118.22(2) ?
U1 Sb2 U1 9_655 9_665 83.93(8) ?
U1 Sb2 U1 1_655 9_665 123.56(5) ?
U1 Sb2 U1 . 9_665 123.56(5) ?
Sb1 Cu1 Sb1 9_656 1_655 107.80(4) ?
Sb1 Cu1 Sb1 9_656 9_666 112.86(8) y
Sb1 Cu1 Sb1 1_655 9_666 107.80(4) ?
Sb1 Cu1 Sb1 9_656 . 107.80(4) ?
Sb1 Cu1 Sb1 1_655 . 112.86(8) ?
Sb1 Cu1 Sb1 9_666 . 107.80(4) ?
Sb1 Cu1 Cu1 9_656 9_766 126.10(2) ?
Sb1 Cu1 Cu1 1_655 9_766 53.90(2) ?
Sb1 Cu1 Cu1 9_666 9_766 53.90(2) ?
Sb1 Cu1 Cu1 . 9_766 126.10(2) ?
Sb1 Cu1 Cu1 9_656 9_656 53.90(2) ?
Sb1 Cu1 Cu1 1_655 9_656 126.10(2) ?
Sb1 Cu1 Cu1 9_666 9_656 126.10(2) ?
Sb1 Cu1 Cu1 . 9_656 53.90(2) ?
Cu1 Cu1 Cu1 9_766 9_656 180.0 ?
Sb1 Cu1 Cu1 9_656 9_666 126.10(2) ?
Sb1 Cu1 Cu1 1_655 9_666 126.10(2) ?
Sb1 Cu1 Cu1 9_666 9_666 53.90(2) ?
Sb1 Cu1 Cu1 . 9_666 53.90(2) ?
Cu1 Cu1 Cu1 9_766 9_666 90.0 ?
Cu1 Cu1 Cu1 9_656 9_666 90.0 ?
Sb1 Cu1 Cu1 9_656 9_756 53.90(2) ?
Sb1 Cu1 Cu1 1_655 9_756 53.90(2) ?
Sb1 Cu1 Cu1 9_666 9_756 126.10(2) ?
Sb1 Cu1 Cu1 . 9_756 126.10(2) ?
Cu1 Cu1 Cu1 9_766 9_756 90.0 ?
Cu1 Cu1 Cu1 9_656 9_756 90.0 ?
Cu1 Cu1 Cu1 9_666 9_756 180.0 ?
Sb1 Cu1 U1 9_656 9_666 167.17(2) ?
Sb1 Cu1 U1 1_655 9_666 66.39(4) ?
Sb1 Cu1 U1 9_666 9_666 79.97(8) ?
Sb1 Cu1 U1 . 9_666 66.39(4) ?
Cu1 Cu1 U1 9_766 9_666 60.81(2) ?
Cu1 Cu1 U1 9_656 9_666 119.19(2) ?
Cu1 Cu1 U1 9_666 9_666 60.81(2) ?
Cu1 Cu1 U1 9_756 9_666 119.19(2) ?
Sb1 Cu1 U1 9_656 . 66.39(4) ?
Sb1 Cu1 U1 1_655 . 167.17(2) ?
Sb1 Cu1 U1 9_666 . 66.39(4) ?
Sb1 Cu1 U1 . . 79.97(8) ?
Cu1 Cu1 U1 9_766 . 119.19(2) ?
Cu1 Cu1 U1 9_656 . 60.81(2) ?
Cu1 Cu1 U1 9_666 . 60.81(2) ?
Cu1 Cu1 U1 9_756 . 119.19(2) ?
U1 Cu1 U1 9_666 . 121.63(5) ?
Sb1 Cu1 U1 9_656 9_656 79.97(8) ?
Sb1 Cu1 U1 1_655 9_656 66.39(4) ?
Sb1 Cu1 U1 9_666 9_656 167.17(2) ?
Sb1 Cu1 U1 . 9_656 66.39(4) ?
Cu1 Cu1 U1 9_766 9_656 119.19(2) ?
Cu1 Cu1 U1 9_656 9_656 60.81(2) ?
Cu1 Cu1 U1 9_666 9_656 119.19(2) ?
Cu1 Cu1 U1 9_756 9_656 60.81(2) ?
U1 Cu1 U1 9_666 9_656 87.20(8) ?
U1 Cu1 U1 . 9_656 121.63(5) ?
Sb1 Cu1 U1 9_656 1_655 66.39(4) ?
Sb1 Cu1 U1 1_655 1_655 79.97(8) ?
Sb1 Cu1 U1 9_666 1_655 66.39(4) ?
Sb1 Cu1 U1 . 1_655 167.17(2) ?
Cu1 Cu1 U1 9_766 1_655 60.81(2) ?
Cu1 Cu1 U1 9_656 1_655 119.19(2) ?
Cu1 Cu1 U1 9_666 1_655 119.19(2) ?
Cu1 Cu1 U1 9_756 1_655 60.81(2) ?
U1 Cu1 U1 9_666 1_655 121.63(5) ?
U1 Cu1 U1 . 1_655 87.20(8) ?
U1 Cu1 U1 9_656 1_655 121.63(5) ?
loop_
_geom_bond_atom_site_label_1
_geom_bond_atom_site_label_2
_geom_bond_site_symmetry_2
_geom_bond_distance
_geom_bond_publ_flag
U1 Cu1 9_666 3.132(2) y
U1 Cu1 . 3.132(2) ?
U1 Cu1 9_656 3.132(2) ?
U1 Cu1 1_455 3.132(2) ?
U1 Sb1 9_666 3.167(3) y
U1 Sb1 9_556 3.167(3) ?
U1 Sb1 9_566 3.167(3) ?
U1 Sb1 9_656 3.167(3) ?
U1 Sb2 1_455 3.231(2) y
U1 Sb2 9_655 3.231(2) ?
U1 Sb2 . 3.231(2) ?
U1 Sb2 9_665 3.231(2) ?
Sb1 Cu1 9_656 2.593(2) y
Sb1 Cu1 1_455 2.593(2) ?
Sb1 Cu1 9_666 2.593(2) ?
Sb1 Cu1 . 2.593(2) ?
Sb1 U1 9_666 3.167(3) ?
Sb1 U1 9_556 3.167(3) ?
Sb1 U1 9_566 3.167(3) ?
Sb1 U1 9_656 3.167(3) ?
Sb2 Sb2 9_765 3.055(3) y
Sb2 Sb2 9_655 3.055(3) ?
Sb2 Sb2 9_665 3.055(3) ?
Sb2 Sb2 9_755 3.055(3) ?
Sb2 U1 9_655 3.231(2) ?
Sb2 U1 1_655 3.231(2) ?
Sb2 U1 9_665 3.231(2) ?
Cu1 Sb1 9_656 2.593(2) ?
Cu1 Sb1 1_655 2.593(2) ?
Cu1 Sb1 9_666 2.593(2) ?
Cu1 Cu1 9_766 3.055(3) y
Cu1 Cu1 9_656 3.055(3) ?
Cu1 Cu1 9_666 3.055(3) ?
Cu1 Cu1 9_756 3.055(3) ?
Cu1 U1 9_666 3.132(2) ?
Cu1 U1 9_656 3.132(2) ?
Cu1 U1 1_655 3.132(2) ?
