#------------------------------------------------------------------------------
#$Date: 2016-02-20 00:18:51 +0200 (Sat, 20 Feb 2016) $
#$Revision: 176760 $
#$URL: svn://www.crystallography.net/cod/cif/2/01/60/2016015.cif $
#------------------------------------------------------------------------------
#
# This file is available in the Crystallography Open Database (COD),
# http://www.crystallography.net/. The original data for this entry
# were provided by IUCr Journals, http://journals.iucr.org/.
#
# The file may be used within the scientific community so long as
# proper attribution is given to the journal article from which the
# data were obtained.
#
data_2016015
loop_
_publ_author_name
'Filaretov, Andrey'
'Schenk, Kurt J.'
'Rusakov, Dmitriy'
'Chapuis, Gervais'
_publ_section_title
;
 Potassium gallium hydrogenphosphate fluoride, K~2~Ga[H(HPO~4~)~2~]F~2~
;
_journal_coeditor_code           BC3042
_journal_issue                   7
_journal_name_full               'Acta Crystallographica Section C'
_journal_page_first              i54
_journal_page_last               i56
_journal_paper_doi               10.1107/S0108270107025437
_journal_volume                  63
_journal_year                    2007
_chemical_formula_iupac          'K2 Ga [H (H P O4)2] F2'
_chemical_formula_moiety         'F2 Ga H3 O8 P2 2-, 2(K+)'
_chemical_formula_structural     'K2 Ga [H (H P O4)2] F2'
_chemical_formula_sum            'F2 Ga H3 K2 O8 P2'
_chemical_formula_weight         378.9
_chemical_name_common
'potassium gallium hydrogen phosphate fluoride'
_chemical_name_systematic
;
dipotassium gallium {hydrogen bis[hydrogenphosphate(V)]} difluoride
;
_space_group_IT_number           14
_symmetry_cell_setting           monoclinic
_symmetry_space_group_name_Hall  '-P 2ybc'
_symmetry_space_group_name_H-M   'P 1 21/c 1'
_atom_sites_solution_hydrogens   difmap
_atom_sites_solution_primary     direct
_atom_sites_solution_secondary   difmap
_cell_angle_alpha                90
_cell_angle_beta                 92.941(10)
_cell_angle_gamma                90
_cell_formula_units_Z            2
_cell_length_a                   4.7449(6)
_cell_length_b                   8.2814(8)
_cell_length_c                   10.8351(13)
_cell_measurement_reflns_used    24572
_cell_measurement_temperature    293(2)
_cell_measurement_theta_max      38.27
_cell_measurement_theta_min      4.30
_cell_volume                     425.20(8)
_computing_cell_refinement       X-AREA???
_computing_data_collection       'X-AREA (Stoe & Cie, 2006)'
_computing_data_reduction        'X-RED (Stoe & Cie, 2005)'
_computing_molecular_graphics    'DIAMOND (Brandenburg, 1999 or 2001?)'
_computing_publication_material  JANA2000
_computing_structure_refinement
'JANA2000 (Pet\<r\'i\<cek <i>et al.</i>,  2000)'
_computing_structure_solution    'SIR02 (Burla <i>et al.</i>,  2003)'
_diffrn_ambient_temperature      293(2)
_diffrn_detector_area_resol_mean 6.67
_diffrn_measured_fraction_theta_full 0.96
_diffrn_measurement_device       '2-circle goniometer'
_diffrn_measurement_device_type  'STOE IPDS II'
_diffrn_measurement_method       'rotation method'
_diffrn_radiation_monochromator  graphite
_diffrn_radiation_source         'fine-focus sealed tube'
_diffrn_radiation_type           'Mo K\a'
_diffrn_radiation_wavelength     0.71073
_diffrn_reflns_av_R_equivalents  0.0241
_diffrn_reflns_av_sigmaI/netI    0.0031
_diffrn_reflns_limit_h_max       8
_diffrn_reflns_limit_h_min       -8
_diffrn_reflns_limit_k_max       14
_diffrn_reflns_limit_k_min       -13
_diffrn_reflns_limit_l_max       18
_diffrn_reflns_limit_l_min       -18
_diffrn_reflns_number            11412
_diffrn_reflns_theta_full        38.88
_diffrn_reflns_theta_max         38.88
_diffrn_reflns_theta_min         4.30
_diffrn_standards_number         0
_exptl_absorpt_coefficient_mu    4.65
_exptl_absorpt_correction_T_max  0.6442
_exptl_absorpt_correction_T_min  0.4679
_exptl_absorpt_correction_type   integration
_exptl_absorpt_process_details   'X-RED (Stoe & Cie, 2005)'
_exptl_crystal_colour            colourless
_exptl_crystal_density_diffrn    2.9583
_exptl_crystal_density_method    'not measured'
_exptl_crystal_description       'pseudo cubic'
_exptl_crystal_F_000             368
_exptl_crystal_size_max          0.13
_exptl_crystal_size_mid          0.13
_exptl_crystal_size_min          0.12
_refine_diff_density_max         0.35
_refine_diff_density_min         -0.33
_refine_ls_extinction_coef       0.0042(4)
_refine_ls_extinction_method
;
B-C type 1 Gaussian isotropic
[Becker, P. J. & Coppens, P. (1974). Acta Cryst. A30, 129--153]
;
_refine_ls_goodness_of_fit_ref   1.23
_refine_ls_hydrogen_treatment    mixed
_refine_ls_number_constraints    0
_refine_ls_number_parameters     77
_refine_ls_number_reflns         1824
_refine_ls_number_restraints     0
_refine_ls_restrained_S_all      1.23
_refine_ls_R_factor_all          0.0168
_refine_ls_R_factor_gt           0.0156
_refine_ls_shift/su_max          0.0012
_refine_ls_shift/su_mean         0.0001
_refine_ls_structure_factor_coef F
_refine_ls_weighting_details     'w = 1/[\s^2^(F)+0.000625F^2^]'
_refine_ls_weighting_scheme      sigma
_refine_ls_wR_factor_gt          0.0319
_refine_ls_wR_factor_ref         0.0333
_reflns_number_gt                1768
_reflns_number_total             1824
_reflns_threshold_expression     I>3\s(I)
_cod_data_source_file            bc3042.cif
_cod_data_source_block           I
_cod_original_sg_symbol_H-M      'P 21/c'
_cod_database_code               2016015
loop_
_symmetry_equiv_pos_site_id
_symmetry_equiv_pos_as_xyz
1 x,y,z
2 -x,1/2+y,1/2-z
3 -x,-y,-z
4 x,1/2-y,1/2+z
loop_
_atom_site_type_symbol
_atom_site_label
_atom_site_fract_x
_atom_site_fract_y
_atom_site_fract_z
_atom_site_U_iso_or_equiv
_atom_site_adp_type
_atom_site_calc_flag
_atom_site_occupancy
Ga Ga1 0.5 0.5 0.5 0.00634(5) Uani d 1
K K1 0.50416(5) 0.09965(3) 0.33230(2) 0.01614(7) Uani d 1
P P1 0.01485(4) 0.26253(3) 0.58517(2) 0.00680(7) Uani d 1
F F1 0.32320(13) 0.40952(8) 0.35374(6) 0.01161(14) Uani d 1
O O1 -0.24822(15) 0.31059(9) 0.50932(7) 0.01073(16) Uani d 1
O O2 0.23576(15) 0.39271(9) 0.60658(7) 0.01034(16) Uani d 1
O O3 0.15181(16) 0.11252(9) 0.52894(9) 0.01435(18) Uani d 1
O O4 -0.09342(17) 0.21143(12) 0.71591(8) 0.0166(2) Uani d 1
H H1 0.025(5) 0.166(3) 0.764(3) 0.035 Uiso d 1
H H2 0.059(12) 0.051(8) 0.509(5) 0.035 Uiso d 0.5
loop_
_atom_site_aniso_label
_atom_site_aniso_U_11
_atom_site_aniso_U_22
_atom_site_aniso_U_33
_atom_site_aniso_U_12
_atom_site_aniso_U_13
_atom_site_aniso_U_23
_atom_site_aniso_type_symbol
Ga1 0.00602(9) 0.00642(9) 0.00643(10) -0.00058(3) -0.00116(6) -0.00051(3) Ga
K1 0.01872(11) 0.01775(12) 0.01182(12) 0.00461(7) -0.00052(8) -0.00101(7) K
P1 0.00568(11) 0.00597(11) 0.00871(12) 0.00003(6) -0.00009(8) 0.00102(6) P
F1 0.0117(2) 0.0132(3) 0.0095(2) -0.00176(18) -0.00295(19) -0.00266(19) F
O1 0.0092(2) 0.0098(3) 0.0128(3) 0.00198(19) -0.0037(2) -0.0004(2) O
O2 0.0097(2) 0.0104(3) 0.0110(3) -0.0035(2) 0.0003(2) -0.0009(2) O
O3 0.0115(3) 0.0075(3) 0.0241(4) 0.0019(2) 0.0010(3) -0.0039(2) O
O4 0.0126(3) 0.0240(4) 0.0135(3) 0.0020(3) 0.0030(3) 0.0094(3) O
loop_
_atom_type_symbol
_atom_type_scat_dispersion_real
_atom_type_scat_dispersion_imag
_atom_type_scat_source
K 0.201 0.249 'International Tables Vol C Tables  4.2.6.8 and 6.1.1.1'
Ga 0.231 1.608 'International Tables Vol C Tables  4.2.6.8 and 6.1.1.1'
F 0.017 0.010 'International Tables Vol C Tables  4.2.6.8 and 6.1.1.1'
H 0.000 0.000 'International Tables Vol C Tables  4.2.6.8 and 6.1.1.1'
O 0.011 0.006 'International Tables Vol C Tables  4.2.6.8 and 6.1.1.1'
P 0.102 0.094 'International Tables Vol C Tables  4.2.6.8 and 6.1.1.1'
loop_
_exptl_crystal_face_index_h
_exptl_crystal_face_index_k
_exptl_crystal_face_index_l
_exptl_crystal_face_perp_dist
0 -1 1 0.0682
0 1 -1 0.0638
0 1 1 0.0437
0 -1 -1 0.0760
-3 1 1 0.0607
3 -1 -1 0.0686
-1 1 2 0.0741
loop_
_geom_angle_atom_site_label_1
_geom_angle_atom_site_label_2
_geom_angle_atom_site_label_3
_geom_angle_site_symmetry_1
_geom_angle_site_symmetry_3
_geom_angle
_geom_angle_publ_flag
F1 Ga1 F1 . 3_666 180 yes
F1 Ga1 O1 . 1_655 88.26(3) yes
F1 Ga1 O1 . 3_566 91.74(3) yes
F1 Ga1 O2 . . 92.53(3) yes
F1 Ga1 O2 . 3_666 87.47(3) yes
F1 Ga1 F1 3_666 . 180 no
F1 Ga1 O1 3_666 1_655 91.74(3) no
F1 Ga1 O1 3_666 3_566 88.26(3) no
F1 Ga1 O2 3_666 . 87.47(3) no
F1 Ga1 O2 3_666 3_666 92.53(3) no
O1 Ga1 O1 1_655 3_566 180 yes
O1 Ga1 O2 1_655 . 90.77(3) yes
O1 Ga1 O2 1_655 3_666 89.23(3) yes
O1 Ga1 O1 3_566 1_655 180 no
O1 Ga1 O2 3_566 . 89.23(3) no
O1 Ga1 O2 3_566 3_666 90.77(3) no
O2 Ga1 O2 . 3_666 180 yes
O2 Ga1 O2 3_666 . 180 no
F1 K1 F1 . 2_645 135.94(2) no
F1 K1 O1 . 1_655 58.49(2) no
F1 K1 O2 . 4_554 85.35(2) no
F1 K1 O3 . . 72.13(2) no
F1 K1 O3 . 3_656 136.71(2) no
F1 K1 O4 . 3_556 124.83(2) no
F1 K1 O4 . 4_654 74.83(2) no
F1 K1 F1 2_645 . 135.94(2) no
F1 K1 O1 2_645 1_655 137.39(2) no
F1 K1 O2 2_645 4_554 59.18(2) no
F1 K1 O3 2_645 . 143.87(2) no
F1 K1 O3 2_645 3_656 81.04(2) no
F1 K1 O4 2_645 3_556 67.87(2) no
F1 K1 O4 2_645 4_654 75.67(2) no
O1 K1 O2 1_655 4_554 139.99(2) no
O1 K1 O3 1_655 . 72.50(2) no
O1 K1 O3 1_655 3_656 79.08(2) no
O1 K1 O4 1_655 3_556 145.90(2) no
O1 K1 O4 1_655 4_654 71.98(2) no
O2 K1 O3 4_554 . 114.81(2) no
O2 K1 O3 4_554 3_656 137.72(3) no
O2 K1 O4 4_554 3_556 67.82(2) no
O2 K1 O4 4_554 4_654 83.13(2) no
O3 K1 O3 . 3_656 88.24(3) no
O3 K1 O4 . 3_556 76.97(2) no
O3 K1 O4 . 4_654 140.44(3) no
O3 K1 O3 3_656 . 88.24(3) no
O3 K1 O4 3_656 3_556 85.23(2) no
O3 K1 O4 3_656 4_654 101.54(2) no
O4 K1 O4 3_556 4_654 141.41(3) no
O4 K1 O4 4_654 3_556 141.41(3) no
O1 P1 O2 . . 116.22(4) yes
O1 P1 O3 . . 110.50(4) yes
O1 P1 O4 . . 105.01(4) yes
O2 P1 O3 . . 109.39(4) yes
O2 P1 O4 . . 107.83(5) yes
O3 P1 O4 . . 107.44(5) yes
loop_
_geom_bond_atom_site_label_1
_geom_bond_atom_site_label_2
_geom_bond_site_symmetry_2
_geom_bond_distance
_geom_bond_publ_flag
Ga1 F1 . 1.9079(6) yes
Ga1 F1 3_666 1.9079(6) yes
Ga1 O1 1_655 1.9712(7) yes
Ga1 O1 3_566 1.9712(7) yes
Ga1 O2 . 1.9604(7) yes
Ga1 O2 3_666 1.9604(7) yes
K1 F1 . 2.7197(7) yes
K1 F1 2_645 2.7172(7) yes
K1 O1 1_655 2.8070(8) yes
K1 O2 4_554 2.6996(8) yes
K1 O3 . 2.7770(9) yes
K1 O3 3_656 2.7858(8) yes
K1 O4 3_556 3.2562(9) yes
K1 O4 4_654 2.8163(9) yes
P1 F1 . 3.2073(7) yes
P1 F1 3_566 3.2398(7) yes
P1 O1 . 1.5121(7) yes
P1 O2 . 1.5133(7) yes
P1 O3 . 1.5419(8) yes
P1 O4 . 1.5889(9) yes
H1 O4 . 0.84(3) yes
H2 O3 . 0.70(6) yes
loop_
_geom_hbond_atom_site_label_D
_geom_hbond_atom_site_label_H
_geom_hbond_atom_site_label_A
_geom_hbond_site_symmetry_A
_geom_hbond_distance_DH
_geom_hbond_distance_HA
_geom_hbond_distance_DA
_geom_hbond_angle_DHA
_geom_hbond_publ_flag
O4 H1 F1 4_555 0.84(3) 1.79(3) 2.6151(10) 170(3) yes
O3 H2 O3 3_556 0.70(6) 1.72(6) 2.4185(11) 174(7) yes
loop_
_refln_index_h
_refln_index_k
_refln_index_l
2 0 0
3 0 0
4 0 0
5 0 0
6 0 0
7 0 0
1 1 0
2 1 0
3 1 0
4 1 0
5 1 0
6 1 0
7 1 0
0 2 0
1 2 0
2 2 0
3 2 0
4 2 0
5 2 0
6 2 0
7 2 0
1 3 0
2 3 0
3 3 0
4 3 0
5 3 0
6 3 0
7 3 0
0 4 0
1 4 0
2 4 0
3 4 0
4 4 0
5 4 0
6 4 0
7 4 0
1 5 0
2 5 0
3 5 0
4 5 0
5 5 0
6 5 0
7 5 0
0 6 0
1 6 0
2 6 0
3 6 0
4 6 0
5 6 0
6 6 0
1 7 0
2 7 0
3 7 0
4 7 0
5 7 0
6 7 0
0 8 0
1 8 0
2 8 0
3 8 0
4 8 0
5 8 0
6 8 0
1 9 0
2 9 0
3 9 0
4 9 0
5 9 0
0 10 0
1 10 0
2 10 0
3 10 0
4 10 0
1 11 0
2 11 0
3 11 0
4 11 0
0 12 0
1 12 0
2 12 0
3 12 0
1 13 0
-7 1 1
-6 1 1
-5 1 1
-4 1 1
-3 1 1
-2 1 1
-1 1 1
1 1 1
2 1 1
3 1 1
4 1 1
5 1 1
6 1 1
7 1 1
-7 2 1
-6 2 1
-5 2 1
-4 2 1
-3 2 1
-2 2 1
-1 2 1
0 2 1
1 2 1
2 2 1
3 2 1
4 2 1
5 2 1
6 2 1
7 2 1
-7 3 1
-6 3 1
-5 3 1
-4 3 1
-3 3 1
-2 3 1
-1 3 1
0 3 1
1 3 1
2 3 1
3 3 1
4 3 1
5 3 1
6 3 1
7 3 1
-7 4 1
-6 4 1
-5 4 1
-4 4 1
-3 4 1
-2 4 1
-1 4 1
0 4 1
1 4 1
2 4 1
3 4 1
4 4 1
5 4 1
6 4 1
7 4 1
-7 5 1
-6 5 1
-5 5 1
-4 5 1
-3 5 1
-2 5 1
-1 5 1
0 5 1
1 5 1
2 5 1
3 5 1
4 5 1
5 5 1
6 5 1
-6 6 1
-5 6 1
-4 6 1
-3 6 1
-2 6 1
-1 6 1
0 6 1
1 6 1
2 6 1
3 6 1
4 6 1
5 6 1
6 6 1
-6 7 1
-5 7 1
-4 7 1
-3 7 1
-2 7 1
-1 7 1
0 7 1
1 7 1
2 7 1
3 7 1
4 7 1
5 7 1
6 7 1
-6 8 1
-5 8 1
-4 8 1
-3 8 1
-2 8 1
-1 8 1
0 8 1
1 8 1
2 8 1
3 8 1
4 8 1
5 8 1
6 8 1
-5 9 1
-4 9 1
-3 9 1
-2 9 1
-1 9 1
0 9 1
1 9 1
2 9 1
3 9 1
4 9 1
5 9 1
-4 10 1
-3 10 1
-2 10 1
-1 10 1
0 10 1
1 10 1
2 10 1
3 10 1
4 10 1
-4 11 1
-3 11 1
-2 11 1
-1 11 1
0 11 1
1 11 1
2 11 1
3 11 1
4 11 1
-3 12 1
-2 12 1
-1 12 1
0 12 1
1 12 1
2 12 1
3 12 1
-1 13 1
0 13 1
1 13 1
-7 0 2
-6 0 2
-5 0 2
-4 0 2
-3 0 2
-2 0 2
-1 0 2
1 0 2
2 0 2
3 0 2
4 0 2
5 0 2
6 0 2
7 0 2
-7 1 2
-6 1 2
-5 1 2
-4 1 2
-3 1 2
-2 1 2
-1 1 2
0 1 2
1 1 2
2 1 2
3 1 2
4 1 2
5 1 2
6 1 2
7 1 2
-7 2 2
-6 2 2
-5 2 2
-4 2 2
-3 2 2
-2 2 2
-1 2 2
0 2 2
1 2 2
2 2 2
3 2 2
4 2 2
5 2 2
6 2 2
7 2 2
-7 3 2
-6 3 2
-5 3 2
-4 3 2
-3 3 2
-2 3 2
-1 3 2
0 3 2
1 3 2
2 3 2
3 3 2
4 3 2
5 3 2
6 3 2
7 3 2
-7 4 2
-6 4 2
-5 4 2
-4 4 2
-3 4 2
-2 4 2
-1 4 2
0 4 2
1 4 2
2 4 2
3 4 2
4 4 2
5 4 2
6 4 2
7 4 2
-7 5 2
-6 5 2
-5 5 2
-4 5 2
-3 5 2
-2 5 2
-1 5 2
0 5 2
1 5 2
2 5 2
3 5 2
4 5 2
5 5 2
6 5 2
-6 6 2
-5 6 2
-4 6 2
-3 6 2
-2 6 2
-1 6 2
0 6 2
1 6 2
2 6 2
3 6 2
4 6 2
5 6 2
6 6 2
-6 7 2
-5 7 2
-4 7 2
-3 7 2
-2 7 2
-1 7 2
0 7 2
1 7 2
2 7 2
3 7 2
4 7 2
5 7 2
6 7 2
-6 8 2
-5 8 2
-4 8 2
-3 8 2
-2 8 2
-1 8 2
0 8 2
1 8 2
2 8 2
3 8 2
4 8 2
5 8 2
-5 9 2
-4 9 2
-3 9 2
-2 9 2
-1 9 2
0 9 2
1 9 2
2 9 2
3 9 2
4 9 2
5 9 2
-4 10 2
-3 10 2
-2 10 2
-1 10 2
0 10 2
1 10 2
2 10 2
3 10 2
4 10 2
-4 11 2
-3 11 2
-2 11 2
-1 11 2
0 11 2
1 11 2
2 11 2
3 11 2
4 11 2
-3 12 2
-2 12 2
-1 12 2
0 12 2
1 12 2
2 12 2
3 12 2
-1 13 2
0 13 2
1 13 2
-7 1 3
-6 1 3
-5 1 3
-4 1 3
-3 1 3
-2 1 3
-1 1 3
0 1 3
1 1 3
2 1 3
3 1 3
4 1 3
5 1 3
6 1 3
7 1 3
-7 2 3
-6 2 3
-5 2 3
-4 2 3
-3 2 3
-2 2 3
-1 2 3
0 2 3
1 2 3
2 2 3
3 2 3
4 2 3
5 2 3
6 2 3
7 2 3
-7 3 3
-6 3 3
-5 3 3
-4 3 3
-3 3 3
-2 3 3
-1 3 3
0 3 3
1 3 3
2 3 3
3 3 3
4 3 3
5 3 3
6 3 3
7 3 3
-7 4 3
-6 4 3
-5 4 3
-4 4 3
-3 4 3
-2 4 3
-1 4 3
0 4 3
1 4 3
2 4 3
3 4 3
4 4 3
5 4 3
6 4 3
7 4 3
-6 5 3
-5 5 3
-4 5 3
-3 5 3
-2 5 3
-1 5 3
0 5 3
1 5 3
2 5 3
3 5 3
4 5 3
5 5 3
6 5 3
-6 6 3
-5 6 3
-4 6 3
-3 6 3
-2 6 3
-1 6 3
0 6 3
1 6 3
2 6 3
3 6 3
4 6 3
5 6 3
6 6 3
-6 7 3
-5 7 3
-4 7 3
-3 7 3
-2 7 3
-1 7 3
0 7 3
1 7 3
2 7 3
3 7 3
4 7 3
5 7 3
6 7 3
-5 8 3
-4 8 3
-3 8 3
-2 8 3
-1 8 3
0 8 3
1 8 3
2 8 3
3 8 3
4 8 3
5 8 3
-5 9 3
-4 9 3
-3 9 3
-2 9 3
-1 9 3
0 9 3
1 9 3
2 9 3
3 9 3
4 9 3
5 9 3
-4 10 3
-3 10 3
-2 10 3
-1 10 3
0 10 3
1 10 3
2 10 3
3 10 3
4 10 3
-4 11 3
-3 11 3
-2 11 3
-1 11 3
0 11 3
1 11 3
2 11 3
3 11 3
-3 12 3
-2 12 3
-1 12 3
0 12 3
1 12 3
2 12 3
0 13 3
-7 0 4
-6 0 4
-5 0 4
-4 0 4
-3 0 4
-2 0 4
-1 0 4
0 0 4
1 0 4
2 0 4
3 0 4
4 0 4
5 0 4
6 0 4
7 0 4
-7 1 4
-6 1 4
-5 1 4
-4 1 4
-3 1 4
-2 1 4
-1 1 4
0 1 4
1 1 4
2 1 4
3 1 4
4 1 4
5 1 4
6 1 4
7 1 4
-7 2 4
-6 2 4
-5 2 4
-4 2 4
-3 2 4
-2 2 4
-1 2 4
0 2 4
1 2 4
2 2 4
3 2 4
4 2 4
5 2 4
6 2 4
7 2 4
-7 3 4
-6 3 4
-5 3 4
-4 3 4
-3 3 4
-2 3 4
-1 3 4
0 3 4
1 3 4
2 3 4
3 3 4
4 3 4
5 3 4
6 3 4
7 3 4
-7 4 4
-6 4 4
-5 4 4
-4 4 4
-3 4 4
-2 4 4
-1 4 4
0 4 4
1 4 4
2 4 4
3 4 4
4 4 4
5 4 4
6 4 4
-6 5 4
-5 5 4
-4 5 4
-3 5 4
-2 5 4
-1 5 4
0 5 4
1 5 4
2 5 4
3 5 4
4 5 4
5 5 4
6 5 4
-6 6 4
-5 6 4
-4 6 4
-3 6 4
-2 6 4
-1 6 4
0 6 4
1 6 4
2 6 4
3 6 4
4 6 4
5 6 4
6 6 4
-6 7 4
-5 7 4
-4 7 4
-3 7 4
-2 7 4
-1 7 4
0 7 4
1 7 4
2 7 4
3 7 4
4 7 4
5 7 4
6 7 4
-5 8 4
-4 8 4
-3 8 4
-2 8 4
-1 8 4
0 8 4
1 8 4
2 8 4
3 8 4
4 8 4
5 8 4
-5 9 4
-4 9 4
-3 9 4
-2 9 4
-1 9 4
0 9 4
1 9 4
2 9 4
3 9 4
4 9 4
5 9 4
-4 10 4
-3 10 4
-2 10 4
-1 10 4
0 10 4
1 10 4
2 10 4
3 10 4
4 10 4
-3 11 4
-2 11 4
-1 11 4
0 11 4
1 11 4
2 11 4
3 11 4
-2 12 4
-1 12 4
0 12 4
1 12 4
2 12 4
-7 1 5
-6 1 5
-5 1 5
-4 1 5
-3 1 5
-2 1 5
-1 1 5
0 1 5
1 1 5
2 1 5
3 1 5
4 1 5
5 1 5
6 1 5
7 1 5
-7 2 5
-6 2 5
-5 2 5
-4 2 5
-3 2 5
-2 2 5
-1 2 5
0 2 5
1 2 5
2 2 5
3 2 5
4 2 5
5 2 5
6 2 5
7 2 5
-7 3 5
-6 3 5
-5 3 5
-4 3 5
-3 3 5
-2 3 5
-1 3 5
0 3 5
1 3 5
2 3 5
3 3 5
4 3 5
5 3 5
6 3 5
-7 4 5
-6 4 5
-5 4 5
-4 4 5
-3 4 5
-2 4 5
-1 4 5
0 4 5
1 4 5
2 4 5
3 4 5
4 4 5
5 4 5
6 4 5
-6 5 5
-5 5 5
-4 5 5
-3 5 5
-2 5 5
-1 5 5
0 5 5
1 5 5
2 5 5
3 5 5
4 5 5
5 5 5
6 5 5
-6 6 5
-5 6 5
-4 6 5
-3 6 5
-2 6 5
-1 6 5
0 6 5
1 6 5
2 6 5
3 6 5
4 6 5
5 6 5
6 6 5
-6 7 5
-5 7 5
-4 7 5
-3 7 5
-2 7 5
-1 7 5
0 7 5
1 7 5
2 7 5
3 7 5
4 7 5
5 7 5
-5 8 5
-4 8 5
-3 8 5
-2 8 5
-1 8 5
0 8 5
1 8 5
2 8 5
3 8 5
4 8 5
5 8 5
-5 9 5
-4 9 5
-3 9 5
-2 9 5
-1 9 5
0 9 5
1 9 5
2 9 5
3 9 5
4 9 5
5 9 5
-4 10 5
-3 10 5
-2 10 5
-1 10 5
0 10 5
1 10 5
2 10 5
3 10 5
4 10 5
-3 11 5
-2 11 5
-1 11 5
0 11 5
1 11 5
2 11 5
3 11 5
-2 12 5
-1 12 5
0 12 5
1 12 5
2 12 5
-7 0 6
-6 0 6
-5 0 6
-4 0 6
-3 0 6
-2 0 6
-1 0 6
0 0 6
1 0 6
2 0 6
3 0 6
4 0 6
5 0 6
6 0 6
-7 1 6
-6 1 6
-5 1 6
-4 1 6
-3 1 6
-2 1 6
-1 1 6
0 1 6
1 1 6
2 1 6
3 1 6
4 1 6
5 1 6
6 1 6
-7 2 6
-6 2 6
-5 2 6
-4 2 6
-3 2 6
-2 2 6
-1 2 6
0 2 6
1 2 6
2 2 6
3 2 6
4 2 6
5 2 6
6 2 6
-7 3 6
-6 3 6
-5 3 6
-4 3 6
-3 3 6
-2 3 6
-1 3 6
0 3 6
1 3 6
2 3 6
3 3 6
4 3 6
5 3 6
6 3 6
-6 4 6
-5 4 6
-4 4 6
-3 4 6
-2 4 6
-1 4 6
0 4 6
1 4 6
2 4 6
3 4 6
4 4 6
5 4 6
6 4 6
-6 5 6
-5 5 6
-4 5 6
-3 5 6
-2 5 6
-1 5 6
0 5 6
1 5 6
2 5 6
3 5 6
4 5 6
5 5 6
6 5 6
-6 6 6
-5 6 6
-4 6 6
-3 6 6
-2 6 6
-1 6 6
0 6 6
1 6 6
2 6 6
3 6 6
4 6 6
5 6 6
6 6 6
-6 7 6
-5 7 6
-4 7 6
-3 7 6
-2 7 6
-1 7 6
0 7 6
1 7 6
2 7 6
3 7 6
4 7 6
5 7 6
-5 8 6
-4 8 6
-3 8 6
-2 8 6
-1 8 6
0 8 6
1 8 6
2 8 6
3 8 6
4 8 6
5 8 6
-5 9 6
-4 9 6
-3 9 6
-2 9 6
-1 9 6
0 9 6
1 9 6
2 9 6
3 9 6
4 9 6
-4 10 6
-3 10 6
-2 10 6
-1 10 6
0 10 6
1 10 6
2 10 6
3 10 6
4 10 6
-3 11 6
-2 11 6
-1 11 6
0 11 6
1 11 6
2 11 6
3 11 6
-1 12 6
0 12 6
1 12 6
-7 1 7
-6 1 7
-5 1 7
-4 1 7
-3 1 7
-2 1 7
-1 1 7
0 1 7
1 1 7
2 1 7
3 1 7
4 1 7
5 1 7
6 1 7
-6 2 7
-5 2 7
-4 2 7
-3 2 7
-2 2 7
-1 2 7
0 2 7
1 2 7
2 2 7
3 2 7
4 2 7
5 2 7
6 2 7
-6 3 7
-5 3 7
-4 3 7
-3 3 7
-2 3 7
-1 3 7
0 3 7
1 3 7
2 3 7
3 3 7
4 3 7
5 3 7
6 3 7
-6 4 7
-5 4 7
-4 4 7
-3 4 7
-2 4 7
-1 4 7
0 4 7
1 4 7
2 4 7
3 4 7
4 4 7
5 4 7
6 4 7
-6 5 7
-5 5 7
-4 5 7
-3 5 7
-2 5 7
-1 5 7
0 5 7
1 5 7
2 5 7
3 5 7
4 5 7
5 5 7
6 5 7
-6 6 7
-5 6 7
-4 6 7
-3 6 7
-2 6 7
-1 6 7
0 6 7
1 6 7
2 6 7
3 6 7
4 6 7
5 6 7
-5 7 7
-4 7 7
-3 7 7
-2 7 7
-1 7 7
0 7 7
1 7 7
2 7 7
3 7 7
4 7 7
5 7 7
-5 8 7
-4 8 7
-3 8 7
-2 8 7
-1 8 7
0 8 7
1 8 7
2 8 7
3 8 7
4 8 7
5 8 7
-4 9 7
-3 9 7
-2 9 7
-1 9 7
0 9 7
1 9 7
2 9 7
3 9 7
4 9 7
-4 10 7
-3 10 7
-2 10 7
-1 10 7
0 10 7
1 10 7
2 10 7
3 10 7
-3 11 7
-2 11 7
-1 11 7
0 11 7
1 11 7
2 11 7
-1 12 7
0 12 7
-6 0 8
-5 0 8
-4 0 8
-3 0 8
-2 0 8
-1 0 8
0 0 8
1 0 8
2 0 8
3 0 8
4 0 8
5 0 8
6 0 8
-6 1 8
-5 1 8
-4 1 8
-3 1 8
-2 1 8
-1 1 8
0 1 8
1 1 8
2 1 8
3 1 8
4 1 8
5 1 8
6 1 8
-6 2 8
-5 2 8
-4 2 8
-3 2 8
-2 2 8
-1 2 8
0 2 8
1 2 8
2 2 8
3 2 8
4 2 8
5 2 8
6 2 8
-6 3 8
-5 3 8
-4 3 8
-3 3 8
-2 3 8
-1 3 8
0 3 8
1 3 8
2 3 8
3 3 8
4 3 8
5 3 8
6 3 8
-6 4 8
-5 4 8
-4 4 8
-3 4 8
-2 4 8
-1 4 8
0 4 8
1 4 8
2 4 8
3 4 8
4 4 8
5 4 8
6 4 8
-6 5 8
-5 5 8
-4 5 8
-3 5 8
-2 5 8
-1 5 8
0 5 8
1 5 8
2 5 8
3 5 8
4 5 8
5 5 8
-5 6 8
-4 6 8
-3 6 8
-2 6 8
-1 6 8
0 6 8
1 6 8
2 6 8
3 6 8
4 6 8
5 6 8
-5 7 8
-4 7 8
-3 7 8
-2 7 8
-1 7 8
0 7 8
1 7 8
2 7 8
3 7 8
4 7 8
5 7 8
-5 8 8
-4 8 8
-3 8 8
-2 8 8
-1 8 8
0 8 8
1 8 8
2 8 8
3 8 8
4 8 8
-4 9 8
-3 9 8
-2 9 8
-1 9 8
0 9 8
1 9 8
2 9 8
3 9 8
4 9 8
-3 10 8
-2 10 8
-1 10 8
0 10 8
1 10 8
2 10 8
3 10 8
-2 11 8
-1 11 8
0 11 8
1 11 8
2 11 8
-6 1 9
-5 1 9
-4 1 9
-3 1 9
-2 1 9
-1 1 9
0 1 9
1 1 9
2 1 9
3 1 9
4 1 9
5 1 9
6 1 9
-6 2 9
-5 2 9
-4 2 9
-3 2 9
-2 2 9
-1 2 9
0 2 9
1 2 9
2 2 9
3 2 9
4 2 9
5 2 9
6 2 9
-6 3 9
-5 3 9
-4 3 9
-3 3 9
-2 3 9
-1 3 9
0 3 9
1 3 9
2 3 9
3 3 9
4 3 9
5 3 9
6 3 9
-6 4 9
-5 4 9
-4 4 9
-3 4 9
-2 4 9
-1 4 9
0 4 9
1 4 9
2 4 9
3 4 9
4 4 9
5 4 9
-6 5 9
-5 5 9
-4 5 9
-3 5 9
-2 5 9
-1 5 9
0 5 9
1 5 9
2 5 9
3 5 9
4 5 9
5 5 9
-5 6 9
-4 6 9
-3 6 9
-2 6 9
-1 6 9
0 6 9
1 6 9
2 6 9
3 6 9
4 6 9
5 6 9
-5 7 9
-4 7 9
-3 7 9
-2 7 9
-1 7 9
0 7 9
1 7 9
2 7 9
3 7 9
4 7 9
-4 8 9
-3 8 9
-2 8 9
-1 8 9
0 8 9
1 8 9
2 8 9
3 8 9
4 8 9
-4 9 9
-3 9 9
-2 9 9
-1 9 9
0 9 9
1 9 9
2 9 9
3 9 9
-3 10 9
-2 10 9
-1 10 9
0 10 9
1 10 9
2 10 9
-1 11 9
0 11 9
1 11 9
-5 0 10
-4 0 10
-3 0 10
-2 0 10
-1 0 10
0 0 10
1 0 10
2 0 10
3 0 10
4 0 10
5 0 10
-5 1 10
-4 1 10
-3 1 10
-2 1 10
-1 1 10
0 1 10
1 1 10
2 1 10
3 1 10
4 1 10
5 1 10
-6 2 10
-5 2 10
-4 2 10
-3 2 10
-2 2 10
-1 2 10
0 2 10
1 2 10
2 2 10
3 2 10
4 2 10
5 2 10
-6 3 10
-5 3 10
-4 3 10
-3 3 10
-2 3 10
-1 3 10
0 3 10
1 3 10
2 3 10
3 3 10
4 3 10
5 3 10
-5 4 10
-4 4 10
-3 4 10
-2 4 10
-1 4 10
0 4 10
1 4 10
2 4 10
3 4 10
4 4 10
5 4 10
-5 5 10
-4 5 10
-3 5 10
-2 5 10
-1 5 10
0 5 10
1 5 10
2 5 10
3 5 10
4 5 10
5 5 10
-5 6 10
-4 6 10
-3 6 10
-2 6 10
-1 6 10
0 6 10
1 6 10
2 6 10
3 6 10
4 6 10
-4 7 10
-3 7 10
-2 7 10
-1 7 10
0 7 10
1 7 10
2 7 10
3 7 10
4 7 10
-4 8 10
-3 8 10
-2 8 10
-1 8 10
0 8 10
1 8 10
2 8 10
3 8 10
-3 9 10
-2 9 10
-1 9 10
0 9 10
1 9 10
2 9 10
3 9 10
-2 10 10
-1 10 10
0 10 10
1 10 10
2 10 10
-5 1 11
-4 1 11
-3 1 11
-2 1 11
-1 1 11
0 1 11
1 1 11
2 1 11
3 1 11
4 1 11
5 1 11
-5 2 11
-4 2 11
-3 2 11
-2 2 11
-1 2 11
0 2 11
1 2 11
2 2 11
3 2 11
4 2 11
5 2 11
-5 3 11
-4 3 11
-3 3 11
-2 3 11
-1 3 11
0 3 11
1 3 11
2 3 11
3 3 11
4 3 11
5 3 11
-5 4 11
-4 4 11
-3 4 11
-2 4 11
-1 4 11
0 4 11
1 4 11
2 4 11
3 4 11
4 4 11
5 4 11
-5 5 11
-4 5 11
-3 5 11
-2 5 11
-1 5 11
0 5 11
1 5 11
2 5 11
3 5 11
4 5 11
-4 6 11
-3 6 11
-2 6 11
-1 6 11
0 6 11
1 6 11
2 6 11
3 6 11
4 6 11
-4 7 11
-3 7 11
-2 7 11
-1 7 11
0 7 11
1 7 11
2 7 11
3 7 11
4 7 11
-3 8 11
-2 8 11
-1 8 11
0 8 11
1 8 11
2 8 11
3 8 11
-3 9 11
-2 9 11
-1 9 11
0 9 11
1 9 11
2 9 11
-1 10 11
0 10 11
1 10 11
-5 0 12
-4 0 12
-3 0 12
-2 0 12
-1 0 12
0 0 12
1 0 12
2 0 12
3 0 12
4 0 12
5 0 12
-5 1 12
-4 1 12
-3 1 12
-2 1 12
-1 1 12
0 1 12
1 1 12
2 1 12
3 1 12
4 1 12
5 1 12
-5 2 12
-4 2 12
-3 2 12
-2 2 12
-1 2 12
0 2 12
1 2 12
2 2 12
3 2 12
4 2 12
5 2 12
-5 3 12
-4 3 12
-3 3 12
-2 3 12
-1 3 12
0 3 12
1 3 12
2 3 12
3 3 12
4 3 12
-5 4 12
-4 4 12
-3 4 12
-2 4 12
-1 4 12
0 4 12
1 4 12
2 4 12
3 4 12
4 4 12
-4 5 12
-3 5 12
-2 5 12
-1 5 12
0 5 12
1 5 12
2 5 12
3 5 12
4 5 12
-4 6 12
-3 6 12
-2 6 12
-1 6 12
0 6 12
1 6 12
2 6 12
3 6 12
-3 7 12
-2 7 12
-1 7 12
0 7 12
1 7 12
2 7 12
3 7 12
-3 8 12
-2 8 12
-1 8 12
0 8 12
1 8 12
2 8 12
-2 9 12
-1 9 12
0 9 12
1 9 12
-5 1 13
-4 1 13
-3 1 13
-2 1 13
-1 1 13
0 1 13
1 1 13
2 1 13
3 1 13
4 1 13
-5 2 13
-4 2 13
-3 2 13
-2 2 13
-1 2 13
0 2 13
1 2 13
2 2 13
3 2 13
4 2 13
-5 3 13
-4 3 13
-3 3 13
-2 3 13
-1 3 13
0 3 13
1 3 13
2 3 13
3 3 13
4 3 13
-4 4 13
-3 4 13
-2 4 13
-1 4 13
0 4 13
1 4 13
2 4 13
3 4 13
4 4 13
-4 5 13
-3 5 13
-2 5 13
-1 5 13
0 5 13
1 5 13
2 5 13
3 5 13
-3 6 13
-2 6 13
-1 6 13
0 6 13
1 6 13
2 6 13
3 6 13
-3 7 13
-2 7 13
-1 7 13
0 7 13
1 7 13
2 7 13
-2 8 13
-1 8 13
0 8 13
1 8 13
-4 0 14
-3 0 14
-2 0 14
-1 0 14
0 0 14
1 0 14
2 0 14
3 0 14
4 0 14
-4 1 14
-3 1 14
-2 1 14
-1 1 14
0 1 14
1 1 14
2 1 14
3 1 14
4 1 14
-4 2 14
-3 2 14
-2 2 14
-1 2 14
0 2 14
1 2 14
2 2 14
3 2 14
4 2 14
-4 3 14
-3 3 14
-2 3 14
-1 3 14
0 3 14
1 3 14
2 3 14
3 3 14
-4 4 14
-3 4 14
-2 4 14
-1 4 14
0 4 14
1 4 14
2 4 14
3 4 14
-3 5 14
-2 5 14
-1 5 14
0 5 14
1 5 14
2 5 14
3 5 14
-3 6 14
-2 6 14
-1 6 14
0 6 14
1 6 14
2 6 14
-2 7 14
-1 7 14
0 7 14
1 7 14
-4 1 15
-3 1 15
-2 1 15
-1 1 15
0 1 15
1 1 15
2 1 15
3 1 15
-3 2 15
-2 2 15
-1 2 15
0 2 15
1 2 15
2 2 15
3 2 15
-3 3 15
-2 3 15
-1 3 15
0 3 15
1 3 15
2 3 15
3 3 15
-3 4 15
-2 4 15
-1 4 15
0 4 15
1 4 15
2 4 15
-2 5 15
-1 5 15
0 5 15
1 5 15
2 5 15
-1 6 15
0 6 15
1 6 15
-2 0 16
-1 0 16
0 0 16
1 0 16
2 0 16
-3 1 16
-2 1 16
-1 1 16
0 1 16
1 1 16
2 1 16
-3 2 16
-2 2 16
-1 2 16
0 2 16
1 2 16
2 2 16
-2 3 16
-1 3 16
0 3 16
1 3 16
2 3 16
-2 4 16
-1 4 16
0 4 16
1 4 16
0 5 16
-1 1 17
0 1 17
-1 2 17
0 2 17
