#------------------------------------------------------------------------------
#$Date: 2015-05-13 22:35:40 +0300 (Wed, 13 May 2015) $
#$Revision: 136356 $
#$URL: svn://www.crystallography.net/cod/cif/2/01/99/2019931.cif $
#------------------------------------------------------------------------------
#
# This file is available in the Crystallography Open Database (COD),
# http://www.crystallography.net/. The original data for this entry
# were provided by IUCr Journals, http://journals.iucr.org/.
#
# The file may be used within the scientific community so long as
# proper attribution is given to the journal article from which the
# data were obtained.
#
data_2019931
loop_
_publ_author_name
'Yu, Zi-Qun'
'Wang, Jing-Quan'
'Huang, Ya-Xi'
'Botis, Sanda M.'
'Pan, Yuanming'
'Mi, Jin-Xiao'
_publ_section_title
;
 Polymorphism of NaVO~2~F~2~: a <i>P</i>2~1~/<i>c</i> superstructure with
 pseudosymmetry of <i>P</i>2~1~/<i>m</i> in the subcell
;
_journal_coeditor_code           YP3086
_journal_issue                   6
_journal_name_full               'Acta Crystallographica Section C'
_journal_page_first
;
;
_journal_paper_doi               10.1107/S2053229615008530
_journal_volume                  71
_journal_year                    2015
_chemical_formula_iupac          'Na V O2 F2'
_chemical_formula_moiety         'F2 O2 V, Na'
_chemical_formula_sum            'F2 Na O2 V'
_chemical_formula_weight         143.93
_chemical_name_systematic
;
Sodium vanadium dioxide difluoride
;
_space_group_crystal_system      monoclinic
_space_group_IT_number           14
_space_group_name_Hall           '-P 2ybc'
_space_group_name_H-M_alt        'P 1 21/c 1'
_symmetry_space_group_name_Hall  '-P 2ybc'
_symmetry_space_group_name_H-M   'P 1 21/c 1'
_atom_sites_solution_primary     direct
_atom_sites_solution_secondary   difmap
_audit_creation_method           SHELXL-2013
_cell_angle_alpha                90
_cell_angle_beta                 110.369(10)
_cell_angle_gamma                90
_cell_formula_units_Z            4
_cell_length_a                   6.400(5)
_cell_length_b                   3.614(2)
_cell_length_c                   14.453(12)
_cell_measurement_reflns_used    1882
_cell_measurement_temperature    295(2)
_cell_measurement_theta_max      28.555
_cell_measurement_theta_min      3.015
_cell_volume                     313.4(4)
_computing_cell_refinement
;
SAINT (Bruker, 2001)
;
_computing_data_collection
;
SMART (Bruker, 2001)
;
_computing_data_reduction
;
SAINT (Bruker, 2001)
;
_computing_molecular_graphics
;
DIAMOND (Brandenburg, 2012)
;
_computing_publication_material
;
SHELXL2013 (Sheldrick, 2015)
;
_computing_structure_refinement
;
SHELXL2013 (Sheldrick, 2015)
;
_computing_structure_solution
;
SHELXS2013 (Sheldrick, 2015)
;
_diffrn_ambient_temperature      295(2)
_diffrn_measured_fraction_theta_full 0.991
_diffrn_measured_fraction_theta_max 0.919
_diffrn_measurement_device_type  'Bruker CCD area-detector'
_diffrn_measurement_method
'1265 images,\f=0, 90, 180 degree, and \D\w=0.3 degree, \c= 54.74 degree'
_diffrn_radiation_monochromator  graphite
_diffrn_radiation_source         'fine-focus sealed tube'
_diffrn_radiation_type           MoK\a
_diffrn_radiation_wavelength     0.71073
_diffrn_reflns_av_R_equivalents  0.0247
_diffrn_reflns_limit_h_max       8
_diffrn_reflns_limit_h_min       -8
_diffrn_reflns_limit_k_max       4
_diffrn_reflns_limit_k_min       -4
_diffrn_reflns_limit_l_max       19
_diffrn_reflns_limit_l_min       -13
_diffrn_reflns_number            1711
_diffrn_reflns_theta_full        25.242
_diffrn_reflns_theta_max         28.554
_diffrn_reflns_theta_min         3.396
_diffrn_standards_number         0
_exptl_absorpt_coefficient_mu    3.171
_exptl_absorpt_correction_T_max  0.834
_exptl_absorpt_correction_T_min  0.556
_exptl_absorpt_correction_type   multi-scan
_exptl_absorpt_process_details
;
(SMART; Bruker, 2001)
;
_exptl_crystal_colour            green
_exptl_crystal_density_diffrn    3.051
_exptl_crystal_description       prism
_exptl_crystal_F_000             272
_exptl_crystal_size_max          0.400
_exptl_crystal_size_mid          0.200
_exptl_crystal_size_min          0.100
_refine_diff_density_max         1.167
_refine_diff_density_min         -0.924
_refine_ls_extinction_coef       0.067(11)
_refine_ls_extinction_expression Fc^*^=kFc[1+0.001xFc^2^\l^3^/sin(2\q)]^-1/4^
_refine_ls_extinction_method
;
SHELXL2013 (Sheldrick, 2015)
;
_refine_ls_goodness_of_fit_ref   1.041
_refine_ls_hydrogen_treatment    undef
_refine_ls_matrix_type           full
_refine_ls_number_parameters     56
_refine_ls_number_reflns         728
_refine_ls_number_restraints     0
_refine_ls_restrained_S_all      1.041
_refine_ls_R_factor_all          0.0523
_refine_ls_R_factor_gt           0.0509
_refine_ls_shift/su_max          0.001
_refine_ls_shift/su_mean         0.000
_refine_ls_structure_factor_coef Fsqd
_refine_ls_weighting_details
;
w=1/[\s^2^(Fo^2^)+(0.0998P)^2^+0.8843P] where P=(Fo^2^+2Fc^2^)/3
;
_refine_ls_weighting_scheme      calc
_refine_ls_wR_factor_gt          0.1550
_refine_ls_wR_factor_ref         0.1574
_reflns_number_gt                685
_reflns_number_total             728
_reflns_threshold_expression     I>2\s(I)
_cod_data_source_file            yp3086sup1.cif
_cod_data_source_block           yzq295
_cod_original_cell_volume        313.4(6)
_cod_database_code               2019931
_shelx_space_group_comment
;
The symmetry employed for this shelxl refinement is uniquely defined
by the following loop, which should always be used as a source of
symmetry information in preference to the above space-group names.
They are only intended as comments.
;
_shelx_estimated_absorpt_t_min   0.364
_shelx_estimated_absorpt_t_max   0.742
_shelx_hkl_file
;
   1   0  -1   -0.04    0.04
  -2   0   2  357.48   14.43
   2   0  -2  390.43   14.32
  -3   0   3    0.04    0.03
   3   0  -3    0.00    0.02
   4   0  -4  345.73   13.00
  -4   0   4  372.84   13.44
  -5   0   5    0.00    0.02
   5   0  -5    0.03    0.03
  -6   0   6   23.84    1.03
   6   0  -6   23.01    1.00
   7   0  -7    0.03    0.03
  -7   0   7    0.02    0.02
   8   0  -8    0.11    0.04
  -8   0   8    0.22    0.05
   0  -1   0   -0.46    0.06
  -1   1   1   -0.08    0.02
  -1  -1   1   -0.14    0.02
   2   1  -2    1.07    0.09
  -2   1   2    1.10    0.09
  -2  -1   2    0.99    0.08
   2  -1  -2    1.13    0.08
  -3   1   3    0.32    0.05
   3   1  -3    0.27    0.06
   3  -1  -3    0.29    0.04
  -3  -1   3    0.28    0.04
  -4   1   4   65.36    2.42
   4  -1  -4   63.55    2.30
  -4  -1   4   55.34    2.37
   5   1  -5    0.34    0.08
  -5   1   5    0.14    0.05
   5  -1  -5    0.29    0.06
  -5  -1   5    0.53    0.10
  -6   1   6   13.54    0.74
   6   1  -6   15.76    0.72
   6  -1  -6   15.21    0.68
  -6  -1   6   15.06    0.70
  -7   1   7    0.32    0.08
   7   1  -7    0.42    0.09
  -7  -1   7    0.40    0.05
   7  -1  -7    0.59    0.11
  -8   1   8    3.69    0.28
   8  -1  -8    3.60    0.26
  -8  -1   8    3.14    0.24
   0  -2   0 1000.00   38.39
  -1  -2   1    5.56    0.26
   1  -2  -1    5.31    0.27
  -2   2   2  190.52    7.27
  -2  -2   2  198.04    7.27
  -3   2   3    0.07    0.02
  -3  -2   3    0.06    0.02
   3  -2  -3    0.04    0.01
  -4   2   4  177.28    6.61
   4  -2  -4  169.53    6.38
  -4  -2   4  178.21    6.59
  -5   2   5    1.14    0.12
   5  -2  -5    1.31    0.11
  -5  -2   5    1.34    0.12
  -6   2   6   13.18    0.70
  -6  -2   6   14.41    0.68
  -7   2   7    0.14    0.06
  -7  -2   7    0.11    0.04
   0  -3   0    0.05    0.03
   1  -3  -1    0.07    0.04
  -1  -3   1    0.12    0.05
   2  -3  -2    0.63    0.08
  -2  -3   2    0.52    0.07
  -3   3   3    0.34    0.07
  -3  -3   3    0.32    0.07
  -4   3   4   13.17    0.63
  -4  -3   4   13.38    0.61
  -5   3   5    1.43    0.14
  -5  -3   5    1.56    0.13
  -6   3   6    5.05    0.36
  -6  -3   6    5.73    0.34
   0  -4   0  145.40    5.55
  -1  -4   1    5.12    0.31
   1  -4  -1    4.91    0.31
  -2  -4   2   32.79    1.36
   2  -4  -2   32.21    1.37
  -3  -4   3    0.22    0.06
   3  -4  -3    0.33    0.07
   4  -4  -4   30.44    1.34
  -4  -4   4   32.28    1.35
   8   0  -7    0.02    0.03
  -8   0   7    0.00    0.03
   7   0  -6   13.17    0.66
  -7   0   6   13.77    0.66
   6   0  -5   -0.02    0.02
  -6   0   5    0.02    0.02
   5   0  -4    4.75    0.28
  -5   0   4    5.07    0.29
  -4   0   3    0.02    0.04
   4   0  -3   -0.01    0.02
   3   0  -2   17.19    0.70
  -3   0   2   17.09    0.73
  -2   0   1    0.03    0.03
   2   0  -1   -0.07    0.03
   1   0   0   95.09    3.30
  -1   0   0   86.89    3.41
   1   0   0   91.64    3.54
   1   0  -2  155.52    5.49
  -1   0   2  134.95    5.71
   2   0  -3   -0.18    0.04
  -2   0   3    0.01    0.06
   3   0  -4  532.45   20.31
  -3   0   4  548.76   21.10
   4   0  -5    0.04    0.04
   5   0  -6   16.29    0.74
  -5   0   6   17.84    0.78
  -6   0   7    0.13    0.05
   6   0  -7    0.08    0.03
   7   0  -8   64.83    2.54
  -7   0   8   65.33    2.60
  -8   0   9   -0.02    0.03
   8   0  -9    0.09    0.03
  -8  -1   7    0.21    0.05
   8  -1  -7    0.17    0.05
  -7   1   6   90.43    3.57
   7   1  -6   90.45    3.47
  -7  -1   6   88.24    3.50
   7  -1  -6   91.67    3.44
   6   1  -5    0.83    0.10
  -6   1   5    0.56    0.11
   6  -1  -5    0.75    0.09
  -6  -1   5    0.64    0.08
   5   1  -4   33.44    1.36
   5  -1  -4   31.76    1.31
  -5  -1   4   34.03    1.36
   4   1  -3    0.18    0.05
  -4   1   3    0.28    0.06
   4  -1  -3    0.33    0.04
  -4  -1   3    0.32    0.06
  -3   1   2  437.30   16.63
   3   1  -2  441.46   16.38
   3  -1  -2  410.99   15.50
  -3  -1   2  432.44   16.74
   2   1  -1    9.01    0.39
   2   1  -1    8.44    0.39
  -2   1   1    9.10    0.38
  -2  -1   1    9.49    0.38
   1   1   0  425.75   16.33
  -1   1   0  396.83   15.51
   1   1   0  390.77   15.14
  -1  -1   0  397.83   15.38
   0   1   1    0.13    0.03
   0  -1   1    0.10    0.02
   0  -1  -1    0.13    0.02
  -1   1   2  155.17    5.85
  -1   1   2  148.64    5.62
  -1  -1   2  148.32    5.62
  -2   1   3    0.45    0.06
   2  -1  -3    0.51    0.05
  -2  -1   3    0.50    0.06
  -3   1   4    6.21    0.31
   3   1  -4    5.80    0.30
  -3  -1   4    5.63    0.29
   3  -1  -4    5.76    0.28
   4   1  -5    0.04    0.02
  -4   1   5    0.04    0.03
  -4  -1   5    0.12    0.03
   4  -1  -5    0.05    0.02
   5   1  -6    5.47    0.32
  -5  -1   6    5.61    0.32
  -6   1   7    0.09    0.04
   6   1  -7    0.08    0.03
  -6  -1   7    0.12    0.03
   6  -1  -7    0.17    0.04
  -7   1   8   69.55    2.75
   7   1  -8   66.92    2.62
  -7  -1   8   64.36    2.64
   7  -1  -8   65.51    2.58
  -8   1   9    0.31    0.07
  -8  -1   9    0.28    0.06
  -7  -2   6    7.94    0.46
  -6   2   5    0.06    0.03
  -6  -2   5    0.07    0.03
   6  -2  -5    0.00    0.02
  -5   2   4    1.51    0.14
  -5  -2   4    1.69    0.14
   5  -2  -4    1.79    0.14
  -4   2   3    0.71    0.08
  -4  -2   3    0.71    0.08
  -3   2   2    9.48    0.43
  -3  -2   2    9.16    0.42
  -2   2   1    0.05    0.03
  -2  -2   1    0.07    0.03
  -1  -2   0   37.87    1.48
   1  -2   0   38.18    1.47
   0  -2   1   14.11    0.59
   0  -2  -1   14.43    0.60
  -1   2   2   53.08    2.07
  -1  -2   2   54.79    2.07
  -2   2   3    0.16    0.05
  -2  -2   3    0.11    0.04
  -3   2   4  235.48    8.57
  -3  -2   4  219.65    8.55
   3  -2  -4  230.83    8.27
  -4   2   5    2.31    0.17
  -4  -2   5    2.24    0.16
   4  -2  -5    2.14    0.15
  -5   2   6    9.45    0.52
  -5  -2   6    9.92    0.49
  -6   2   7    0.18    0.06
  -6  -2   7    0.46    0.09
  -7   2   8   33.80    1.62
  -7  -2   8   38.55    1.57
  -6   3   5    2.91    0.23
  -6  -3   5    3.23    0.23
  -5   3   4   15.17    0.68
  -5  -3   4   12.39    0.64
  -4   3   3    1.34    0.13
  -4  -3   3    1.38    0.12
  -3  -3   2  104.36    3.98
  -2  -3   1   17.86    0.77
   2  -3  -1   17.95    0.77
   1  -3   0   74.70    2.87
  -1  -3   0   74.12    2.86
   0  -3   1    0.75    0.09
   0  -3  -1    0.97    0.10
   1  -3  -2   25.08    1.03
  -1  -3   2   24.74    1.03
  -2  -3   3    1.44    0.12
   2  -3  -3    1.55    0.13
  -3   3   4    1.07    0.11
  -3  -3   4    1.20    0.11
  -4   3   5    0.08    0.03
  -4  -3   5    0.08    0.03
  -5   3   6    1.35    0.15
  -5  -3   6    1.30    0.13
  -6   3   7    0.51    0.07
  -6  -3   7    0.57    0.07
   4  -4  -3    0.53    0.10
  -4  -4   3    0.70    0.12
  -3  -4   2    2.83    0.21
   3  -4  -2    2.87    0.21
  -2  -4   1    0.08    0.04
   2  -4  -1    0.16    0.04
  -1  -4   0    7.25    0.40
   1  -4   0    7.31    0.40
   0  -4   1    4.67    0.29
   0  -4  -1    4.99    0.30
  -1  -4   2    9.50    0.49
   1  -4  -2    9.66    0.50
   2  -4  -3    0.48    0.10
  -2  -4   3    0.41    0.08
  -3  -4   4   35.91    1.50
   3  -4  -4   35.89    1.50
   4  -4  -5    0.83    0.10
   8   0  -6   54.69    2.21
  -7   0   5    0.02    0.02
   7   0  -5    0.06    0.03
  -6   0   4   64.41    2.49
   6   0  -4   61.86    2.44
   5   0  -3    0.02    0.02
  -5   0   3    0.01    0.02
   4   0  -2  138.98    5.20
  -4   0   2  144.51    5.36
   3   0  -1   -0.03    0.01
   3   0  -1   -0.06    0.01
  -3   0   1    0.00    0.02
  -2   0   0   66.05    2.44
   2   0   0   61.90    2.52
   2   0   0   62.66    2.36
   1   0   1    0.07    0.03
  -1   0  -1    0.07    0.02
  -1   0   3    0.22    0.04
  -2   0   4   88.87    3.66
   2   0  -4  103.96    3.52
  -3   0   5    0.00    0.02
   3   0  -5    0.02    0.01
  -4   0   6  412.44   14.67
   4   0  -6  371.36   14.16
   5   0  -7    0.01    0.02
  -5   0   7    0.05    0.03
   6   0  -8  259.26    9.71
  -6   0   8  272.54   10.05
   7   0  -9    0.01    0.03
  -7   0   9    0.08    0.03
   8   0 -10   53.58    2.17
  -8   0  10   54.61    2.23
   8  -1  -6    0.17    0.04
   7   1  -5    0.14    0.04
  -7  -1   5    0.15    0.04
   7  -1  -5    0.15    0.04
  -6   1   4    2.54    0.21
   6   1  -4    3.00    0.23
   6  -1  -4    2.83    0.21
  -6  -1   4    2.83    0.20
   5   1  -3    0.32    0.08
  -5   1   3    0.11    0.04
   5  -1  -3    0.29    0.07
  -5  -1   3    0.19    0.05
  -4   1   2   30.55    1.23
   4   1  -2   30.60    1.23
   4   1  -2   30.65    1.23
   4  -1  -2   30.88    1.23
   4  -1  -2   30.16    1.20
  -4  -1   2   30.35    1.22
  -3   1   1    0.44    0.05
   3   1  -1    0.55    0.07
   3   1  -1    0.52    0.05
  -3  -1   1    0.47    0.05
   3  -1  -1    0.48    0.05
   3  -1  -1    0.46    0.05
   2   1   0  131.16    4.97
  -2   1   0  126.97    4.77
   2   1   0  131.17    4.66
  -2  -1   0  120.34    4.77
  -1   1  -1    0.14    0.03
   1   1   1    0.13    0.03
   1   1   1    0.16    0.03
  -1  -1  -1    0.12    0.03
   0   1   2  316.36   12.55
   0   1   2  310.86   12.11
   0  -1   2  305.60   12.05
  -1   1   3    0.55    0.05
  -1   1   3    0.58    0.05
  -1  -1   3    0.64    0.05
  -2   1   4    7.77    0.35
   2  -1  -4    7.89    0.32
  -2  -1   4    7.51    0.34
  -3   1   5    0.47    0.06
   3  -1  -5    0.47    0.05
  -3  -1   5    0.48    0.06
   4  -1  -6   31.30    1.21
  -4  -1   6   30.77    1.27
   5   1  -7    0.08    0.03
  -5   1   7    0.03    0.03
  -5  -1   7    0.03    0.02
   5  -1  -7    0.07    0.03
   6   1  -8    2.42    0.20
  -6   1   8    1.85    0.21
  -6  -1   8    2.42    0.19
   6  -1  -8    2.46    0.18
  -7   1   9    0.04    0.04
   7   1  -9    0.03    0.03
  -7  -1   9    0.00    0.02
   7  -1  -9    0.01    0.03
  -8   1  10    0.18    0.05
   7   2  -5    0.06    0.04
  -7  -2   5    0.09    0.03
   6   2  -4   36.99    1.55
  -6   2   4   35.05    1.52
   6  -2  -4   36.15    1.48
  -6  -2   4   38.19    1.53
  -5   2   3    1.35    0.12
   5   2  -3    1.45    0.15
   5  -2  -3    1.47    0.12
  -5  -2   3    1.45    0.12
   4   2  -2   67.86    2.57
  -4   2   2   68.23    2.59
   4  -2  -2   66.53    2.52
  -4  -2   2   65.94    2.58
  -3   2   1    0.61    0.06
  -3  -2   1    0.59    0.06
  -2   2   0   17.95    0.75
   2   2   0   18.40    0.80
  -2  -2   0   18.71    0.76
   1   2   1    0.40    0.06
   1  -2   1    0.35    0.04
  -1  -2  -1    0.33    0.05
   0   2   2   52.74    2.17
   0  -2  -2   54.22    2.07
   0  -2   2   54.70    2.06
  -1   2   3    0.94    0.08
  -1  -2   3    0.98    0.08
  -2   2   4   50.30    2.00
  -2  -2   4   49.51    1.99
   2  -2  -4   54.87    1.89
  -3   2   5    0.41    0.08
  -3  -2   5    0.44    0.06
  -4   2   6  194.56    7.24
  -4  -2   6  188.09    7.20
  -5   2   7    3.90    0.28
  -5  -2   7    3.95    0.26
  -6   2   8  116.01    5.10
  -6  -2   8  145.00    5.06
  -7   2   9    0.02    0.04
  -7  -2   9    0.11    0.04
  -6  -3   4    0.69    0.08
  -5   3   3    0.87    0.09
  -5  -3   3    0.85    0.09
  -4   3   2   11.59    0.53
  -4  -3   2   10.06    0.51
  -3  -3   1    0.60    0.07
   3  -3  -1    0.57    0.07
   2  -3   0   11.10    0.51
  -2  -3   0   11.06    0.51
   1  -3   1    0.35    0.07
  -1  -3  -1    0.19    0.05
   0  -3   2   46.56    1.86
   0  -3  -2   48.05    1.87
  -1  -3   3    1.06    0.10
   1  -3  -3    1.05    0.10
  -2  -3   4    2.58    0.17
  -3   3   5    0.68    0.12
  -3  -3   5    0.59    0.07
  -4   3   6    5.98    0.35
  -4  -3   6    6.01    0.34
  -5   3   7    0.25    0.06
  -5  -3   7    0.35    0.07
  -6   3   8    0.66    0.13
  -6  -3   8    0.75    0.10
   4  -4  -2    9.98    0.52
  -4  -4   2   10.22    0.52
   3  -4  -1    0.70    0.08
  -2  -4   0    1.13    0.12
   2  -4   0    1.25    0.12
  -1  -4  -1    0.32    0.07
   1  -4   1    0.45    0.08
   0  -4   2    9.56    0.50
   0  -4  -2   10.19    0.51
  -1  -4   3    0.89    0.10
   1  -4  -3    0.94    0.10
   2  -4  -4   11.75    0.58
  -2  -4   4   11.55    0.57
  -3  -4   5    0.14    0.04
   3  -4  -5    0.04    0.03
   4  -4  -6   32.60    1.40
   8   0  -5    0.07    0.04
   7   0  -4   73.16    2.85
   6   0  -3    0.04    0.02
  -6   0   3    0.04    0.02
  -5   0   2    2.78    0.18
   5   0  -2    2.60    0.19
   4   0  -1    0.04    0.03
  -4   0   1    0.08    0.03
  -3   0   0   39.74    1.50
   3   0   0   37.79    1.53
   3   0   0   37.74    1.46
  -2   0  -1    0.05    0.02
   2   0   1    0.01    0.02
   1   0   2   55.09    2.19
   0   0   3    0.68    0.09
  -1   0   4   39.46    1.55
  -1   0   4   36.79    1.48
  -2   0   5   -0.02    0.02
  -2   0   5    0.03    0.05
   3   0  -6    9.89    0.42
  -3   0   6    8.79    0.46
  -4   0   7    0.04    0.03
   4   0  -7    0.05    0.02
  -5   0   8    0.77    0.10
   5   0  -8    0.66    0.08
   6   0  -9    0.04    0.03
  -6   0   9    0.06    0.03
  -7   0  10   63.11    2.50
   7   0 -10   59.94    2.41
   8   0 -11    0.04    0.03
  -8   0  11    0.04    0.03
   8  -1  -5    0.05    0.03
   7   1  -4    2.75    0.24
   7  -1  -4    2.93    0.23
  -7  -1   4    2.83    0.20
  -6   1   3    0.10    0.03
   6   1  -3    0.10    0.04
   6  -1  -3    0.20    0.06
  -6  -1   3    0.12    0.04
  -5   1   2    3.11    0.21
   5   1  -2    3.51    0.24
  -5  -1   2    3.20    0.21
   5  -1  -2    3.27    0.21
  -4   1   1    0.04    0.02
   4   1  -1    0.02    0.01
   4   1  -1    0.02    0.02
  -4  -1   1    0.02    0.01
   4  -1  -1    0.03    0.01
   4  -1  -1    0.02    0.02
   3   1   0   22.59    0.94
  -3   1   0   24.02    0.91
   3   1   0   22.25    0.94
   3  -1   0   23.38    0.95
   3  -1   0   22.83    0.91
  -2   1  -1    6.50    0.27
   2   1   1    5.83    0.29
   2   1   1    6.34    0.30
  -2  -1  -1    6.59    0.27
   2  -1   1    5.81    0.29
   1   1   2  149.82    5.82
   1   1   2  152.72    5.41
   1  -1   2  148.05    5.70
  -1  -1  -2  147.82    5.64
   0   1   3   -0.13    0.03
   0   1   3   -0.08    0.04
   0  -1   3   -0.18    0.02
  -1   1   4   26.87    1.03
  -1   1   4   26.17    1.08
  -1  -1   4   26.06    1.03
  -2   1   5    4.82    0.24
  -2   1   5    4.53    0.23
  -2  -1   5    4.96    0.24
   2  -1  -5    4.57    0.20
  -3   1   6  483.21   19.65
  -3   1   6  488.86   19.74
  -3  -1   6  492.66   18.60
   3  -1  -6  509.85   18.61
  -3  -1   6  522.35   19.78
  -4  -1   7    0.84    0.10
   4  -1  -7    1.19    0.09
  -5   1   8   29.25    1.33
  -6   1   9    0.10    0.05
  -6  -1   9    0.15    0.05
   6  -1  -9    0.15    0.05
  -7   1  10   48.71    2.05
  -7  -1  10   45.43    1.92
   7   2  -4   45.20    1.92
  -7  -2   4   45.67    1.89
   7  -2  -4   45.86    1.84
   6   2  -3    0.04    0.03
  -6  -2   3    0.07    0.04
   6  -2  -3    0.03    0.02
   5   2  -2    3.54    0.26
  -5   2   2    3.65    0.22
   5  -2  -2    3.48    0.23
  -5  -2   2    3.66    0.22
   4   2  -1    3.69    0.25
  -4   2   1    3.57    0.21
  -4  -2   1    3.85    0.22
   4  -2  -1    3.96    0.23
   4  -2  -1    4.10    0.23
   3   2   0   22.10    0.90
   3   2   0   21.67    0.93
  -3   2   0   21.92    0.88
  -3  -2   0   21.31    0.88
   2   2   1    0.09    0.03
  -2  -2  -1    0.10    0.03
   2  -2   1    0.09    0.02
   1   2   2   23.49    1.01
   1  -2   2   24.12    0.95
  -1  -2  -2   24.22    0.96
   0   2   3    0.04    0.03
   0  -2  -3    0.17    0.05
   0  -2   3    0.05    0.03
  -1   2   4   10.55    0.47
  -1   2   4   10.42    0.49
  -1  -2   4   10.76    0.46
  -2   2   5    0.12    0.03
  -2   2   5    0.12    0.03
  -2  -2   5    0.13    0.04
  -3   2   6    5.96    0.32
  -3  -2   6    5.67    0.30
  -4   2   7    0.51    0.10
  -4  -2   7    0.52    0.07
  -5   2   8    0.20    0.06
  -5  -2   8    0.14    0.05
  -6   2   9    0.53    0.11
  -6  -2   9    0.80    0.10
  -6  -3   3    0.51    0.06
  -5  -3   2    1.11    0.11
  -4  -3   1    0.02    0.03
  -3  -3   0    8.65    0.42
   3  -3   0    8.73    0.42
  -2  -3  -1   13.09    0.60
   2  -3   1   13.49    0.59
   1  -3   2   48.74    1.93
  -1  -3  -2   50.17    1.95
   0  -3  -3    0.69    0.08
   0  -3   3    0.69    0.08
  -1  -3   4   21.62    0.91
   1  -3  -4   22.12    0.92
  -2   3   5   11.24    0.53
  -2  -3   5   11.33    0.52
  -3   3   6  123.11    4.69
  -3  -3   6  122.10    4.67
  -4   3   7    3.52    0.26
  -4  -3   7    3.98    0.25
  -5   3   8   17.36    0.83
  -5  -3   8   16.17    0.78
  -6   3   9    0.66    0.12
  -4  -4   1    1.90    0.16
   3  -4   0    6.10    0.35
  -3  -4   0    5.89    0.35
   2  -4   1    0.36    0.08
  -2  -4  -1    0.36    0.08
   1  -4   2    3.63    0.24
  -1  -4  -2    3.59    0.25
   0  -4  -3    0.05    0.03
   0  -4   3    0.02    0.02
   1  -4  -4    0.78    0.10
  -1  -4   4    0.72    0.09
   2  -4  -5    0.12    0.04
  -2  -4   5    0.19    0.05
  -3  -4   6    2.28    0.18
   3  -4  -6    1.96    0.18
   8   0  -4   37.48    1.59
   7   0  -3    0.02    0.03
   6   0  -2   51.58    2.03
  -5   0   1    0.00    0.02
   5   0  -1    0.03    0.02
   4   0   0  518.24   21.22
  -4   0   0  549.71   20.32
   3   0   1   -0.03    0.01
   3   0   1   -0.06    0.01
  -3   0  -1    0.03    0.02
   2   0   2  102.81    3.76
  -2   0  -2  103.97    3.85
   2   0   2  101.01    4.05
   1   0   3    0.16    0.06
   0   0   4  248.93    9.68
  -1   0   5    0.01    0.01
  -1   0   5    0.03    0.02
  -2   0   6  142.64    5.64
  -2   0   6  156.53    5.82
  -3   0   7   -0.07    0.02
  -3   0   7   -0.03    0.04
   4   0  -8   39.75    1.53
  -5   0   9   -0.01    0.02
   5   0  -9    0.02    0.02
  -6   0  10    1.23    0.14
   7   0 -11    0.02    0.02
  -7   0  11    0.02    0.03
   8  -1  -4   17.05    0.82
   7   1  -3    0.23    0.07
   7  -1  -3    0.21    0.06
  -6  -1   2    4.58    0.28
   6  -1  -2    5.21    0.31
   5   1  -1    0.14    0.05
  -5   1   1    0.18    0.04
  -5  -1   1    0.19    0.04
   5  -1  -1    0.24    0.06
  -4   1   0    2.38    0.14
   4   1   0    2.44    0.18
   4   1   0    2.46    0.14
  -4  -1   0    2.24    0.14
   4  -1   0    2.39    0.17
   4  -1   0    2.37    0.15
  -3   1  -1    0.17    0.02
   3   1   1    0.15    0.05
   3   1   1    0.17    0.04
  -3  -1  -1    0.19    0.03
   3  -1   1    0.13    0.04
  -2   1  -2   84.14    3.21
   2   1   2   83.32    3.16
   2   1   2   89.45    3.39
  -2  -1  -2   84.87    3.22
   2  -1   2   86.20    3.37
   1   1   3    0.05    0.04
   1   1   3    0.07    0.03
   1  -1   3    0.06    0.04
  -1  -1  -3    0.03    0.02
   1  -1   3    0.03    0.02
   0   1   4    0.83    0.08
   0   1   4    0.80    0.06
   0  -1   4    0.81    0.07
  -1   1   5    0.98    0.07
  -1   1   5    0.98    0.08
  -1  -1   5    1.00    0.08
  -1  -1   5    1.16    0.08
  -2   1   6   39.61    1.63
  -2   1   6   40.41    1.59
  -2  -1   6   42.94    1.64
   2  -1  -6   40.00    1.50
  -2  -1   6   41.84    1.60
  -3   1   7    1.90    0.15
  -3   1   7    1.81    0.11
  -3  -1   7    1.69    0.14
   3  -1  -7    1.86    0.11
  -3  -1   7    1.76    0.11
  -4   1   8    0.22    0.07
  -4  -1   8    0.28    0.07
   4  -1  -8    0.19    0.04
  -5   1   9    0.11    0.05
   5  -1  -9    0.24    0.05
  -5  -1   9    0.34    0.08
  -6   1  10   31.84    1.54
  -6  -1  10   36.20    1.45
  -7   1  11    0.17    0.05
  -7  -1  11    0.18    0.05
   7   2  -3    0.21    0.06
   7  -2  -3    0.14    0.05
   6   2  -2   32.70    1.42
  -6  -2   2   33.28    1.37
   6  -2  -2   32.57    1.35
   5   2  -1    1.55    0.16
   5  -2  -1    1.85    0.15
  -5  -2   1    1.74    0.13
   4   2   0  282.79   10.70
   4   2   0  272.23   10.04
  -4   2   0  271.59   10.27
  -4  -2   0  273.75   10.28
   3   2   1    1.40    0.12
  -3   2  -1    1.28    0.09
   3  -2   1    1.31    0.11
  -3  -2  -1    1.47    0.10
   2   2   2   81.60    3.23
   2   2   2   82.60    2.98
  -2  -2  -2   80.32    3.07
   2  -2   2   79.18    3.06
   1   2   3    0.27    0.06
  -1  -2  -3    0.26    0.05
   1  -2   3    0.27    0.03
   0   2   4  301.53   11.89
   0  -2  -4  307.89   11.54
   0  -2   4  308.67   11.61
  -1   2   5    4.29    0.25
  -1   2   5    4.54    0.23
  -1  -2   5    4.55    0.22
  -2   2   6   76.52    3.15
  -2   2   6   80.77    3.04
  -2  -2   6   81.07    3.03
  -3   2   7    0.51    0.07
  -3  -2   7    0.54    0.07
  -4   2   8   18.59    0.82
  -4  -2   8   16.84    0.78
  -5   2   9    0.01    0.04
  -5  -2   9    0.05    0.03
  -6   2  10    0.83    0.16
  -6  -2  10    1.23    0.13
  -7   2  11    0.05    0.05
  -6  -3   2    3.25    0.23
  -5  -3   1    0.43    0.05
  -4  -3   0    2.05    0.16
   4  -3   0    2.31    0.18
  -3  -3  -1    0.45    0.06
   3  -3   1    0.32    0.06
   2  -3   2   14.06    0.63
  -2  -3  -2   14.90    0.64
   1   3   3    0.16    0.06
   1  -3   3    0.10    0.03
  -1  -3  -3    0.15    0.05
   0  -3   4    0.84    0.09
   0  -3  -4    1.01    0.10
   1  -3  -5    1.70    0.14
  -1  -3   5    1.72    0.13
  -2   3   6    4.05    0.24
  -2  -3   6    3.09    0.21
  -3   3   7    2.80    0.21
  -3  -3   7    3.04    0.20
  -4   3   8    0.79    0.10
  -4  -3   8    0.89    0.10
  -5   3   9    1.24    0.14
  -5  -3   9    1.15    0.12
  -4  -4   0   57.00    2.29
  -3  -4  -1    1.76    0.15
  -2  -4  -2   20.06    0.89
   2  -4   2   19.73    0.88
   1  -4   3    1.08    0.11
  -1  -4  -3    1.01    0.10
   0  -4  -4   49.18    1.99
   0  -4   4   49.17    1.97
  -1  -4   5    3.98    0.25
   1  -4  -5    3.78    0.26
  -2  -4   6   13.44    0.64
   2  -4  -6   13.44    0.65
   3  -4  -7    0.68    0.09
  -3  -4   7    0.72    0.09
   8   0  -3    0.05    0.04
   7   0  -2   11.84    0.61
   6   0  -1    0.04    0.03
   5   0   0   16.92    0.75
   4   0   1    0.07    0.02
   4   0   1    0.08    0.03
  -4   0  -1    0.02    0.02
   3   0   2   46.52    1.92
   3   0   2   45.65    1.80
  -3   0  -2   50.53    1.82
   2   0   3    0.02    0.03
   1   0   4  182.26    7.14
   0   0   5    0.09    0.06
   0   0   5   -0.05    0.02
  -1   0   6   17.59    0.80
  -2   0   7   -0.02    0.04
  -2   0   7    0.00    0.03
  -3   0   8   96.87    3.72
  -3   0   8   95.87    3.77
  -4   0   9    0.04    0.02
  -5   0  10    7.14    0.42
  -6   0  11    0.00    0.03
  -7   0  12    5.64    0.38
   7   1  -2  121.59    4.54
   7  -1  -2  117.33    4.50
   6   1  -1    0.84    0.11
   6  -1  -1    1.00    0.11
   5   1   0  107.68    4.06
   5  -1   0  108.81    4.03
  -4   1  -1    0.02    0.01
   4   1   1    0.02    0.01
   4   1   1   -0.02    0.02
   4  -1   1    0.00    0.02
  -4  -1  -1    0.04    0.01
   4  -1   1    0.01    0.01
   3   1   2  112.99    4.30
   3   1   2  108.32    4.04
  -3   1  -2  107.20    4.08
  -3  -1  -2  105.89    4.09
   3  -1   2  111.71    4.30
   2   1   3    0.03    0.02
   2   1   3    0.02    0.02
   2  -1   3    0.02    0.01
   2  -1   3    0.04    0.02
  -2  -1  -3    0.01    0.01
   1   1   4   48.77    1.96
   1   1   4   48.33    1.79
  -1  -1  -4   46.70    1.83
   1  -1   4   48.66    1.94
   1  -1   4   49.73    1.82
   0   1   5   -0.06    0.01
   0   1   5    0.01    0.03
   0  -1   5    0.01    0.02
   0  -1   5   -0.04    0.02
  -1   1   6   64.84    2.58
  -1   1   6   65.06    2.47
  -1  -1   6   65.17    2.47
  -1  -1   6   64.14    2.58
  -2   1   7    0.43    0.05
  -2   1   7    0.43    0.06
  -2  -1   7    0.43    0.06
  -2  -1   7    0.35    0.05
  -3   1   8   47.56    1.96
  -3  -1   8   51.36    1.98
  -4   1   9    0.56    0.12
   4  -1  -9    0.78    0.07
  -4  -1   9    0.62    0.12
  -5   1  10    0.90    0.18
  -5  -1  10    0.87    0.11
  -6   1  11    0.01    0.04
  -6  -1  11    0.04    0.03
  -7   1  12   49.47    2.15
  -7  -1  12   49.22    2.03
   7   2  -2    6.63    0.44
   7  -2  -2    6.91    0.41
   6   2  -1    0.30    0.07
   6  -2  -1    0.21    0.04
  -6  -2   1    0.20    0.04
   5   2   0    8.65    0.50
  -5  -2   0    9.09    0.43
   5  -2   0    8.78    0.46
   4   2   1    3.37    0.22
   4   2   1    3.24    0.24
   4  -2   1    3.33    0.22
  -4  -2  -1    3.57    0.20
   3   2   2   21.18    0.91
   3   2   2   21.91    0.97
   3  -2   2   22.66    0.96
   3  -2   2   22.74    0.88
  -3  -2  -2   21.72    0.89
   2   2   3    0.34    0.07
   2   2   3    0.31    0.04
  -2  -2  -3    0.32    0.06
   2  -2   3    0.21    0.05
   2  -2   3    0.20    0.03
   1   2   4   90.45    4.00
   1  -2   4  107.44    3.80
  -1  -2  -4  104.93    3.81
   0  -2  -5    7.16    0.33
   0  -2   5    6.59    0.31
  -1   2   6    1.31    0.12
  -1   2   6    1.64    0.11
  -1  -2   6    1.46    0.10
  -2   2   7    0.93    0.09
  -2   2   7    0.97    0.09
  -2  -2   7    0.98    0.09
  -3   2   8   53.05    2.04
  -3   2   8   50.20    2.07
  -3  -2   8   51.08    2.02
  -4   2   9    0.13    0.05
  -4  -2   9    0.08    0.03
  -5   2  10    4.15    0.33
  -5  -2  10    4.82    0.31
  -6   2  11    0.05    0.04
  -6  -2  11    0.06    0.03
  -6  -3   1    3.18    0.22
  -5  -3   0   38.24    1.60
   5  -3   0   40.71    1.60
  -4  -3  -1    0.20    0.04
   4  -3   1    0.22    0.05
   3   3   2   39.19    1.66
  -3  -3  -2   38.08    1.55
   2   3   3    0.30    0.08
   2  -3   3    0.36    0.05
  -2  -3  -3    0.34    0.07
   1   3   4   17.80    0.83
  -1  -3  -4   17.08    0.75
   1  -3   4   16.89    0.73
   0   3   5    0.02    0.02
   0  -3  -5    0.04    0.02
   0  -3   5    0.01    0.02
  -1   3   6   12.03    0.63
   1  -3  -6   11.78    0.58
  -1  -3   6   14.31    0.58
  -2   3   7    0.98    0.10
  -2  -3   7    1.12    0.10
  -3   3   8   12.01    0.58
  -3  -3   8   11.75    0.56
  -4   3   9    2.51    0.21
  -4  -3   9    2.33    0.18
  -5   3  10    1.44    0.16
  -5  -3  10    0.93    0.11
   4  -4   1    2.20    0.20
  -4  -4  -1    2.23    0.18
  -3  -4  -2    5.19    0.31
  -2  -4  -3    0.46    0.06
   1  -4   4   19.42    0.87
  -1  -4  -4   20.09    0.89
   0  -4   5    2.54    0.18
   0  -4  -5    2.55    0.19
   1  -4  -6    2.10    0.18
  -1  -4   6    2.54    0.18
  -2  -4   7    0.23    0.06
   2  -4  -7    0.27    0.06
   3  -4  -8   11.56    0.60
  -3  -4   8   11.47    0.58
   7   0  -1    0.00    0.03
   6   0   0   15.02    0.71
   5   0   1    0.01    0.02
   4   0   2   52.00    1.99
   4   0   2   52.18    2.10
  -3   0  -3   -0.01    0.01
   3   0   3    0.03    0.02
   3   0   3   -0.03    0.02
   2   0   4   58.08    2.37
   1   0   5    0.03    0.03
   0   0   6  344.64   13.90
  -1   0   7    0.01    0.03
  -1   0   7    0.00    0.01
  -2   0   8  299.35   11.41
  -2   0   8  275.91   10.75
  -3   0   9    0.06    0.03
  -3   0   9    0.04    0.02
  -4   0  10  107.75    4.18
  -5   0  11    0.02    0.03
  -6   0  12  130.93    5.09
  -7   0  13    0.00    0.03
   7   1  -1    0.20    0.06
   7  -1  -1    0.15    0.04
   6   1   0    1.29    0.14
   6  -1   0    1.21    0.13
   5   1   1    0.13    0.04
   5  -1   1    0.06    0.03
   4   1   2  132.60    5.00
   4   1   2  126.94    4.71
   4  -1   2  126.64    5.00
   4  -1   2  124.70    4.68
  -4  -1  -2  124.05    4.77
   3   1   3    0.10    0.03
   3   1   3    0.06    0.03
  -3  -1  -3    0.07    0.02
   3  -1   3    0.02    0.01
   2   1   4    5.79    0.29
   2   1   4    5.74    0.32
   2  -1   4    5.50    0.30
  -2  -1  -4    6.04    0.25
   1   1   5    1.42    0.09
   1   1   5    1.07    0.11
   1  -1   5    1.41    0.07
   1  -1   5    1.36    0.11
  -1  -1  -5    1.46    0.08
   0   1   6   28.66    1.21
   0   1   6   28.23    1.10
   0  -1   6   28.17    1.18
   0  -1   6   28.47    1.09
  -1   1   7    0.43    0.05
  -1   1   7    0.37    0.06
  -1  -1   7    0.38    0.05
  -1  -1   7    0.45    0.05
  -2   1   8   11.24    0.52
  -2   1   8   11.28    0.51
  -2  -1   8   11.33    0.52
  -2  -1   8   11.97    0.53
  -3   1   9    0.04    0.02
  -3   1   9    0.05    0.02
  -3  -1   9    0.06    0.03
  -4   1  10   13.80    0.72
  -4  -1  10   14.87    0.69
  -5   1  11    0.14    0.05
  -5  -1  11    0.25    0.06
  -6   1  12    1.86    0.21
  -6  -1  12    1.96    0.17
  -7   1  13    0.02    0.04
  -7  -1  13    0.03    0.03
   7   2  -1    0.45    0.10
   7  -2  -1    0.59    0.11
   6   2   0    9.25    0.54
   6  -2   0    9.24    0.49
   5   2   1    0.19    0.06
   5  -2   1    0.20    0.05
  -5  -2  -1    0.18    0.04
   4   2   2   19.75    0.93
   4   2   2   21.38    0.94
  -4  -2  -2   20.83    0.87
   4  -2   2   22.43    0.94
   3   2   3    0.44    0.09
   3   2   3    0.24    0.05
  -3  -2  -3    0.27    0.05
   3  -2   3    0.29    0.06
   2   2   4   23.42    0.98
   2   2   4   20.91    0.87
  -2  -2  -4   20.75    0.88
   2  -2   4   22.44    0.95
   2  -2   4   22.20    0.87
   1   2   5    0.50    0.10
   1  -2   5    0.43    0.06
   1  -2   5    0.52    0.05
  -1  -2  -5    0.57    0.06
   0   2   6  242.11    9.31
   0  -2   6  229.92    8.89
   0  -2   6  243.06    9.28
  -1   2   7    6.94    0.38
  -1   2   7    7.35    0.34
  -1  -2   7    6.97    0.33
  -1  -2   7    7.06    0.37
  -2   2   8  175.13    6.93
  -2   2   8  173.46    6.67
  -2  -2   8  183.75    6.93
  -2  -2   8  176.03    6.66
  -3   2   9    0.18    0.05
  -3   2   9    0.13    0.04
  -3  -2   9    0.07    0.03
  -3  -2   9    0.13    0.04
  -4   2  10   67.97    2.70
  -4  -2  10   66.88    2.67
  -5   2  11    1.57    0.18
  -5  -2  11    1.30    0.14
   6  -3   0    1.20    0.14
  -5  -3  -1    0.02    0.02
   5  -3   1    0.07    0.03
   4   3   2   35.95    1.62
   4  -3   2   39.06    1.62
  -4  -3  -2   37.50    1.52
   3   3   3    0.05    0.02
   3  -3   3    0.10    0.03
  -3  -3  -3    0.03    0.02
   2   3   4    4.47    0.31
  -2  -3  -4    4.64    0.26
   2  -3   4    4.85    0.30
   1   3   5    1.82    0.17
   1  -3   5    1.91    0.14
  -1  -3  -5    2.45    0.16
   0   3   6   11.93    0.61
   0  -3  -6   12.10    0.54
   0  -3   6   11.12    0.52
  -1   3   7    0.63    0.12
   1  -3  -7    0.72    0.08
  -1  -3   7    0.65    0.07
  -2   3   8    5.89    0.35
  -2   3   8    5.73    0.33
  -2  -3   8    5.86    0.31
  -3   3   9    0.07    0.02
  -3  -3   9    0.03    0.02
  -3  -3   9    0.03    0.02
  -4   3  10    5.59    0.37
  -4  -3  10    5.77    0.34
  -5   3  11    0.82    0.16
  -5  -3  11    0.72    0.09
   4  -4   2    3.63    0.27
  -3  -4  -3    0.13    0.03
   3  -4   3    0.15    0.04
  -2  -4  -4    3.65    0.24
  -1  -4  -5    0.02    0.03
   0  -4   6   35.12    1.43
   0  -4  -6   34.80    1.46
  -1  -4   7    5.87    0.34
   1  -4  -7    6.15    0.36
  -2  -4   8   32.27    1.31
   2  -4  -8   29.64    1.31
  -3  -4   9    0.08    0.03
   7   0   0   28.85    1.25
   6   0   1    0.05    0.03
   5   0   2   23.99    1.01
   4   0   3    0.01    0.02
   4   0   3    0.02    0.02
   3   0   4    5.22    0.29
   3   0   4    4.34    0.24
   2   0   5    0.04    0.03
   1   0   6   74.76    3.05
   0   0   7   -0.03    0.01
   0   0   7    0.06    0.06
  -2   0   9    0.04    0.02
  -2   0   9    0.05    0.03
  -3   0  10  145.51    5.64
  -3   0  10  142.90    5.50
  -4   0  11    0.00    0.03
  -5   0  12    7.64    0.45
  -6   0  13    0.06    0.03
  -7   0  14   19.33    0.95
   7   1   0    3.49    0.28
   7  -1   0    3.67    0.27
   6   1   1    0.86    0.11
   6  -1   1    0.83    0.10
   5   1   2   47.61    1.93
   5  -1   2   49.92    1.92
   4   1   3    0.03    0.03
   4   1   3    0.07    0.02
   4  -1   3    0.04    0.02
   4  -1   3    0.04    0.03
   3   1   4  114.12    4.40
   3   1   4  106.42    4.09
   3  -1   4  109.37    4.39
  -3  -1  -4  112.91    4.15
   2   1   5    2.85    0.21
   2   1   5    3.16    0.17
   2  -1   5    2.38    0.18
   1   1   6  508.33   19.42
   1   1   6  520.31   20.46
   1  -1   6  524.31   20.61
   1  -1   6  524.33   19.94
  -1  -1  -6  560.25   20.22
   0   1   7    0.52    0.08
   0   1   7    0.79    0.06
   0  -1   7    0.80    0.06
   0  -1   7    0.84    0.09
  -1   1   8  155.91    6.12
  -1   1   8  159.91    5.84
  -1  -1   8  157.52    5.86
  -1  -1   8  149.82    6.11
  -2   1   9    0.26    0.05
  -2   1   9    0.35    0.06
  -2  -1   9    0.23    0.05
  -2  -1   9    0.26    0.06
  -3   1  10  152.57    5.94
  -3   1  10  152.19    5.78
  -3  -1  10  154.17    5.97
  -3  -1  10  149.03    5.78
  -4   1  11    0.07    0.04
  -4  -1  11    0.10    0.04
  -5   1  12   31.55    1.50
  -5  -1  12   35.14    1.42
  -6   1  13    0.01    0.04
  -6  -1  13    0.00    0.03
   7   2   0   18.37    0.92
   7  -2   0   18.16    0.87
   6   2   1    0.12    0.04
   6  -2   1    0.15    0.05
   5   2   2   12.97    0.67
   5  -2   2   13.27    0.63
   4   2   3    0.05    0.03
   4   2   3    0.01    0.02
  -4  -2  -3    0.04    0.02
   4  -2   3    0.05    0.02
   3   2   4    3.46    0.22
   3   2   4    2.94    0.22
  -3  -2  -4    3.34    0.19
   3  -2   4    3.20    0.22
   2   2   5    0.18    0.06
  -2  -2  -5    0.08    0.03
   2  -2   5    0.11    0.04
   1   2   6   23.83    1.05
  -1  -2  -6   22.09    0.93
   1  -2   6   23.66    1.01
   1  -2   6   23.30    0.91
   0   2   7    0.36    0.08
   0   2   7    0.36    0.05
   0  -2   7    0.48    0.05
   0  -2   7    0.48    0.07
  -1   2   8    0.34    0.05
  -1   2   8    0.34    0.08
  -1  -2   8    0.26    0.05
  -1  -2   8    0.25    0.06
  -2   2   9    0.80    0.09
  -2   2   9    0.79    0.09
  -2  -2   9    0.80    0.08
  -2  -2   9    0.80    0.09
  -3   2  10   69.03    2.72
  -3   2  10   69.36    2.79
  -3  -2  10   68.46    2.71
  -3  -2  10   71.01    2.80
  -4   2  11    0.05    0.03
  -4  -2  11    0.06    0.03
  -5   2  12    4.83    0.37
  -5  -2  12    4.69    0.32
  -6   2  13    0.92    0.18
  -6  -2  13    1.27    0.13
   6  -3   1    3.87    0.28
   4   3   3    0.30    0.07
  -4  -3  -3    0.32    0.07
   4  -3   3    0.35    0.07
   3   3   4   29.51    1.34
   3  -3   4   30.77    1.32
  -3  -3  -4   29.63    1.23
   2   3   5    8.48    0.49
  -2  -3  -5    8.95    0.41
   2  -3   5    7.53    0.45
   1   3   6  149.46    5.90
   1  -3   6  150.92    5.85
  -1  -3  -6  142.77    5.58
   0   3   7    2.55    0.22
   0  -3   7    2.66    0.21
   0  -3   7    2.80    0.17
   0  -3  -7    2.91    0.19
  -1   3   8   49.19    2.07
  -1  -3   8   50.78    2.05
  -1  -3   8   49.11    1.93
   1  -3  -8   47.17    1.94
  -2   3   9    1.16    0.11
  -2   3   9    1.13    0.12
  -2  -3   9    1.18    0.11
  -2  -3   9    1.05    0.11
  -3   3  10   48.13    2.04
  -3  -3  10   49.56    2.02
  -3  -3  10   53.84    2.11
  -4   3  11    0.53    0.11
  -4  -3  11    0.50    0.07
  -5  -3  12   14.09    0.74
  -3  -4  -4    0.79    0.09
   3  -4   4    0.82    0.10
  -2  -4  -5    0.04    0.02
   2  -4   5    0.02    0.03
  -1  -4  -6    2.64    0.20
   1  -4   6    2.63    0.22
   0  -4  -7    0.45    0.08
   0  -4   7    0.43    0.09
  -1  -4   8    0.45    0.06
   1  -4  -8    0.43    0.06
  -1  -4   8    0.44    0.09
  -2  -4   9    0.67    0.08
   2  -4  -9    0.58    0.08
  -2  -4   9    0.59    0.08
  -3  -4  10   13.44    0.70
   7   0   1    0.01    0.03
   6   0   2   46.59    1.87
   5   0   3    0.04    0.02
   4   0   4  253.24    9.96
   4   0   4  257.70    9.30
   3   0   5    0.01    0.02
   3   0   5    0.01    0.01
   2   0   6  205.29    8.07
   1   0   7    0.00    0.02
   0   0   8   65.95    2.84
   0   0   8   72.14    2.60
  -1   0   9    0.01    0.03
  -1   0   9    0.04    0.02
  -2   0  10    3.32    0.22
  -2   0  10    3.20    0.20
  -3   0  11    0.00    0.02
  -3   0  11    0.02    0.02
  -4   0  12    3.78    0.27
  -5   0  13    0.03    0.03
  -6   0  14   99.03    3.93
   7   1   1    0.05    0.03
   7  -1   1    0.05    0.03
   6   1   2   38.72    1.61
   6  -1   2   39.20    1.60
   5   1   3    0.05    0.03
   5  -1   3   -0.01    0.02
   4   1   4    1.73    0.15
   4  -1   4    1.39    0.14
   3   1   5    0.42    0.09
   3   1   5    0.42    0.08
   3  -1   5    0.40    0.08
   2   1   6    3.64    0.20
  -2  -1  -6    3.80    0.17
   2  -1   6    3.44    0.24
   1   1   7    0.69    0.14
   1   1   7    1.21    0.08
  -1  -1  -7    1.05    0.07
   0   1   8   29.97    1.42
   0   1   8   32.94    1.26
   0  -1   8   33.29    1.39
   0  -1   8   34.30    1.28
  -1   1   9    0.54    0.05
  -1   1   9    0.56    0.11
  -1  -1   9    0.50    0.07
  -1  -1   9    0.48    0.05
  -2   1  10   81.89    3.12
  -2   1  10   82.46    3.25
  -2  -1  10   79.97    3.14
  -2  -1  10   81.16    3.27
  -3   1  11    0.58    0.08
  -3   1  11    0.46    0.06
  -3  -1  11    0.45    0.09
  -3  -1  11    0.56    0.07
  -4   1  12    9.72    0.54
  -4  -1  12    9.94    0.51
  -5   1  13    0.01    0.03
  -5  -1  13    0.02    0.03
  -6   1  14   24.07    1.17
  -6  -1  14   22.85    1.06
   7   2   1    0.42    0.09
   6   2   2   25.87    1.21
   6  -2   2   27.38    1.17
   5   2   3    1.13    0.14
   5  -2   3    1.03    0.11
   4   2   4  140.35    5.53
   4   2   4  131.86    5.20
   4  -2   4  145.43    5.53
   3   2   5    3.46    0.25
  -3  -2  -5    3.95    0.20
   3  -2   5    3.13    0.23
   2   2   6   98.25    3.94
   2  -2   6   97.10    3.89
   1   2   7    1.69    0.17
   1  -2   7    1.83    0.15
  -1  -2  -7    1.55    0.11
   0   2   8   35.02    1.50
   0   2   8   34.46    1.37
   0  -2   8   35.00    1.35
   0  -2   8   34.10    1.46
  -1   2   9    0.19    0.05
  -1   2   9    0.13    0.05
  -1  -2   9    0.13    0.03
  -1  -2   9    0.15    0.05
  -2   2  10    0.61    0.08
  -2   2  10    0.64    0.08
  -2  -2  10    0.73    0.09
  -2  -2  10    0.93    0.09
  -3   2  11    0.57    0.08
  -3   2  11    0.73    0.08
  -3  -2  11    0.68    0.08
  -3  -2  11    0.68    0.09
  -4   2  12    1.82    0.17
  -4  -2  12    1.69    0.16
  -5   2  13    0.19    0.06
  -5  -2  13    0.21    0.06
   4   3   4    0.50    0.11
   4  -3   4    0.39    0.09
   3   3   5    1.19    0.14
  -3  -3  -5    1.24    0.11
   3  -3   5    1.18    0.12
   2   3   6    1.63    0.18
   2  -3   6    1.82    0.16
  -2  -3  -6    1.70    0.13
   1   3   7    1.36    0.16
   1  -3   7    1.52    0.15
  -1  -3  -7    1.74    0.13
   0   3   8    6.86    0.43
   0  -3   8    6.33    0.38
   0  -3  -8    6.58    0.34
  -1   3   9    1.33    0.14
  -1  -3   9    1.40    0.14
  -1  -3   9    1.42    0.11
  -2   3  10   19.92    0.91
  -2   3  10   22.51    0.98
  -2  -3  10   19.71    0.95
  -2  -3  10   20.93    0.90
  -3   3  11    0.81    0.10
  -3   3  11    0.79    0.10
  -3  -3  11    0.99    0.10
  -3  -3  11    0.80    0.09
  -4   3  12    4.66    0.34
  -4  -3  12    5.23    0.33
  -3  -4  -5    4.67    0.28
  -2  -4  -6   15.13    0.70
   2  -4   6   14.73    0.77
   1   4   7    2.87    0.27
  -1  -4  -7    2.83    0.20
   1  -4   7    2.45    0.22
   0  -4  -8    4.89    0.31
   0  -4   8    5.86    0.37
   1  -4  -9    0.49    0.06
  -1  -4   9    0.43    0.09
  -2  -4  10    0.25    0.05
  -2  -4  10    0.26    0.06
   7   0   2    0.80    0.15
   6   0   3   -0.02    0.02
   5   0   4   17.66    0.79
   4   0   5    0.03    0.02
   4   0   5    0.09    0.03
   3   0   6    1.80    0.16
   2   0   7    0.04    0.03
   1   0   8   95.78    3.89
   0   0   9    0.05    0.01
   0   0   9    0.06    0.04
  -1   0  10   33.83    1.48
  -1   0  10   34.01    1.34
  -2   0  11    0.04    0.02
  -2   0  11    0.01    0.02
  -3   0  12    7.44    0.38
  -3   0  12    7.00    0.40
  -4   0  13    0.02    0.03
  -5   0  14    0.88    0.12
  -6   0  15   -0.01    0.04
   7   1   2   56.75    2.32
   7  -1   2   58.99    2.32
   6   1   3    0.07    0.03
   6  -1   3    0.05    0.03
   5   1   4   86.25    3.28
   5  -1   4   85.54    3.26
   4   1   5    0.08    0.03
   4   1   5    0.17    0.05
   4  -1   5    0.14    0.05
   3   1   6  118.98    4.47
   3  -1   6  102.71    4.42
   2   1   7    0.08    0.04
   2   1   7    0.25    0.05
   2  -1   7    0.14    0.05
   1   1   8    7.67    0.34
   1  -1   8    7.70    0.43
  -1  -1  -8    8.03    0.33
   0   1   9    0.47    0.05
   0   1   9    0.35    0.10
   0  -1   9    0.49    0.10
   0  -1   9    0.40    0.04
  -1   1  10    0.16    0.04
  -1   1  10    0.13    0.06
  -1  -1  10    0.17    0.03
  -1  -1  10    0.16    0.05
  -2   1  11    0.08    0.03
  -2   1  11    0.05    0.03
  -2  -1  11    0.08    0.04
  -2  -1  11    0.09    0.03
  -3   1  12  149.13    5.60
  -3   1  12  146.88    5.77
  -3  -1  12  148.53    5.82
  -3  -1  12  143.34    5.59
  -4   1  13    1.08    0.13
  -4  -1  13    1.05    0.11
  -5   1  14   78.80    3.25
  -5  -1  14   81.51    3.17
  -6   1  15    0.03    0.04
  -6  -1  15    0.02    0.03
   7   2   2    0.55    0.13
   6   2   3    0.23    0.07
   6  -2   3    0.37    0.08
   5  -2   4   11.72    0.59
   4   2   5    0.92    0.11
   4  -2   5    0.88    0.10
   3   2   6    1.66    0.16
   3  -2   6    1.44    0.14
   2   2   7    0.12    0.05
  -2  -2  -7    0.02    0.02
   2  -2   7    0.05    0.03
   1   2   8   52.22    2.28
   1  -2   8   54.14    2.23
  -1  -2  -8   55.78    2.08
   0   2   9    0.07    0.04
   0   2   9    0.01    0.02
   0  -2   9    0.01    0.02
  -1   2  10   14.13    0.71
  -1   2  10   14.88    0.64
  -1  -2  10   14.75    0.63
  -1  -2  10   14.44    0.69
  -2   2  11    0.01    0.02
  -2   2  11    0.03    0.02
  -2  -2  11    0.08    0.03
  -2  -2  11    0.05    0.03
  -3   2  12    3.63    0.25
  -3   2  12    4.10    0.25
  -3  -2  12    3.97    0.26
  -3  -2  12    3.58    0.25
  -4   2  13    0.05    0.03
  -4  -2  13    0.01    0.03
  -5   2  14    0.69    0.15
  -5  -2  14    0.59    0.12
   4   3   5    0.52    0.07
   4  -3   5    0.46    0.06
   3   3   6   33.73    1.52
   3  -3   6   32.96    1.47
   2   3   7    0.49    0.12
   2  -3   7    0.36    0.08
  -2  -3  -7    0.49    0.06
   1   3   8    1.71    0.18
   1  -3   8    1.50    0.15
  -1  -3  -8    1.49    0.12
   0   3   9    1.34    0.16
   0  -3  -9    1.48    0.12
   0  -3   9    1.21    0.13
  -1   3  10    0.28    0.07
  -1  -3  10    0.35    0.08
  -2   3  11    0.49    0.10
  -2   3  11    0.52    0.07
  -2  -3  11    0.43    0.09
  -2  -3  11    0.53    0.06
  -3   3  12   41.04    1.75
  -3   3  12   43.45    1.85
  -3  -3  12   42.08    1.74
  -3  -3  12   42.73    1.81
  -4   3  13    4.73    0.33
  -4  -3  13    4.41    0.30
  -2  -4  -7    0.26    0.04
  -1  -4  -8    8.87    0.46
   0  -4  -9    0.26    0.05
   7   0   3    0.02    0.03
   6   0   4    9.20    0.50
   5   0   5   -0.01    0.02
   4   0   6   30.76    1.34
   4   0   6   30.87    1.25
   3   0   7    0.05    0.03
   2   0   8   59.90    2.50
   1   0   9    0.02    0.03
   0   0  10  121.45    4.89
  -1   0  11   -0.02    0.03
  -1   0  11    0.04    0.02
  -2   0  12  254.65    9.58
  -2   0  12  256.16   10.00
  -3   0  13    0.00    0.02
  -3   0  13    0.06    0.03
  -4   0  14   95.74    3.75
  -5   0  15    0.03    0.03
  -6   0  16   26.45    1.23
   7   1   3    0.04    0.04
   6   1   4   10.56    0.56
   6  -1   4   10.44    0.55
   5   1   5    0.26    0.07
   5  -1   5    0.22    0.06
   4   1   6   44.16    1.83
   4   1   6   42.63    1.71
   4  -1   6   42.12    1.82
   3   1   7    0.27    0.08
   3   1   7    0.11    0.04
   3  -1   7    0.21    0.06
   2   1   8   75.10    3.12
   2   1   8   76.70    2.78
   2  -1   8   71.65    3.05
   1   1   9   -0.01    0.03
   1  -1   9    0.03    0.02
   0   1  10   76.99    2.86
   0  -1  10   73.77    3.09
  -1   1  11    0.40    0.05
  -1   1  11    0.40    0.10
  -1  -1  11    0.39    0.10
  -1  -1  11    0.40    0.05
  -2   1  12    1.56    0.15
  -2   1  12    1.82    0.14
  -2  -1  12    1.61    0.13
  -2  -1  12    1.64    0.16
  -3   1  13    0.08    0.03
  -3   1  13    0.04    0.02
  -3  -1  13    0.06    0.03
  -3  -1  13    0.08    0.03
  -4   1  14   12.80    0.66
  -4  -1  14   12.88    0.63
  -5   1  15    0.00    0.03
  -5  -1  15    0.04    0.02
  -6   1  16   24.24    1.22
  -6  -1  16   24.09    1.11
   6  -2   4    5.24    0.35
   4   2   6   19.04    0.91
   4  -2   6   19.09    0.91
   3   2   7    2.03    0.19
   3  -2   7    1.94    0.18
   2   2   8   31.14    1.43
   2  -2   8   31.23    1.37
   1   2   9    0.06    0.03
  -1  -2  -9    0.06    0.02
   1  -2   9    0.06    0.03
   0   2  10   69.18    2.60
   0   2  10   66.63    2.82
   0  -2  10   66.74    2.76
  -1   2  11    3.91    0.22
  -1   2  11    3.91    0.28
  -1  -2  11    3.47    0.25
  -2   2  12  132.48    5.06
  -2   2  12  134.85    5.29
  -2  -2  12  135.99    5.29
  -2  -2  12  128.67    5.07
  -3   2  13    1.25    0.13
  -3   2  13    1.32    0.12
  -3  -2  13    1.27    0.12
  -3  -2  13    1.24    0.13
  -4   2  14   51.64    2.06
  -4  -2  14   47.28    2.02
  -5   2  15    0.70    0.14
  -5  -2  15    0.57    0.08
   4   3   6   17.25    0.90
   4  -3   6   18.12    0.89
   3   3   7    0.27    0.08
   3  -3   7    0.21    0.05
   2   3   8   23.74    1.16
   2  -3   8   23.00    1.08
   1   3   9    0.06    0.03
  -1  -3  -9    0.07    0.03
   0   3  10   21.19    1.03
   0  -3  10   19.69    0.95
   0  -3 -10   20.18    0.87
  -1   3  11    0.87    0.12
  -1  -3  11    0.87    0.11
  -2   3  12    0.78    0.10
  -2   3  12    0.65    0.08
  -2  -3  12    0.83    0.10
  -3   3  13    0.20    0.05
  -3  -3  13    0.16    0.04
  -3  -3  13    0.13    0.04
  -4  -3  14    4.40    0.31
  -1  -4  -9    0.16    0.03
   6   0   5    0.05    0.03
   5   0   6    0.20    0.06
   4   0   7    0.04    0.03
   4   0   7    0.02    0.02
   3   0   8   35.01    1.54
   2   0   9    0.01    0.03
   1   0  10   12.20    0.66
   0   0  11    0.11    0.05
  -1   0  12    6.75    0.42
  -2   0  13    0.05    0.03
  -2   0  13    0.02    0.02
  -3   0  14   16.34    0.78
  -3   0  14   17.35    0.78
  -4   0  15    0.00    0.02
  -5   0  16   25.92    1.19
   6   1   5    0.30    0.08
   6  -1   5    0.28    0.07
   5   1   6   77.31    2.91
   5  -1   6   73.81    2.89
   4   1   7    0.12    0.04
   4   1   7    0.11    0.04
   4  -1   7    0.17    0.06
   3   1   8   83.17    3.36
   3   1   8   80.24    3.04
   3  -1   8   79.01    3.31
   2   1   9    0.17    0.07
   2  -1   9    0.36    0.09
   1   1  10   95.14    3.97
   0   1  11    0.56    0.15
   0  -1  11    0.39    0.11
  -1   1  12  181.13    6.78
  -1   1  12  190.38    7.21
  -1  -1  12  170.43    7.16
  -2   1  13    0.34    0.08
  -2   1  13    0.18    0.05
  -2  -1  13    0.27    0.08
  -2  -1  13    0.25    0.05
  -3   1  14   55.40    2.24
  -3   1  14   57.18    2.34
  -3  -1  14   57.78    2.35
  -3  -1  14   54.55    2.23
  -4   1  15    0.18    0.05
  -4  -1  15    0.18    0.05
  -5   1  16    5.97    0.40
  -5  -1  16    5.59    0.36
   4   2   7    0.47    0.10
   3   2   8   16.40    0.84
   3  -2   8   15.70    0.80
   2   2   9    0.20    0.08
   2  -2   9    0.18    0.06
   1   2  10    5.52    0.42
   1  -2  10    6.35    0.38
   0   2  11   -0.01    0.03
   0   2  11    0.03    0.02
   0  -2  11    0.00    0.02
  -1   2  12    2.16    0.21
  -1   2  12    2.16    0.15
  -1  -2  12    2.31    0.20
  -2   2  13    1.09    0.10
  -2   2  13    1.22    0.13
  -2  -2  13    1.19    0.13
  -3   2  14    9.20    0.49
  -3  -2  14    9.30    0.51
  -3  -2  14    9.13    0.49
  -4   2  15    0.24    0.05
  -4  -2  15    0.25    0.05
  -5  -2  16   12.96    0.66
   4   3   7    0.50    0.07
   4  -3   7    0.40    0.08
   3   3   8   32.64    1.51
   3  -3   8   31.22    1.44
   2   3   9    0.78    0.16
   2  -3   9    0.65    0.08
   1   3  10   60.94    2.64
   1  -3  10   59.99    2.54
   0   3  11    0.77    0.16
   0  -3 -11    0.74    0.08
   0  -3  11    0.79    0.10
  -1   3  12   57.04    2.44
  -1  -3  12   56.41    2.39
  -2   3  13    0.66    0.13
  -2   3  13    0.69    0.08
  -2  -3  13    0.74    0.09
  -3   3  14   17.63    0.83
   6   0   6   26.42    1.15
   5   0   7    0.00    0.02
   4   0   8   23.60    1.08
   4   0   8   22.80    0.98
   3   0   9    0.02    0.03
   2   0  10   17.93    0.90
   1   0  11   -0.01    0.03
   0   0  12   25.16    1.20
  -1   0  13    0.03    0.03
  -2   0  14   21.26    1.01
  -3   0  15   -0.01    0.02
  -4   0  16    0.82    0.10
  -5   0  17    0.01    0.03
   6   1   6    1.72    0.17
   5   1   7    0.33    0.06
   5  -1   7    0.19    0.05
   4   1   8    3.97    0.30
   4   1   8    3.62    0.25
   4  -1   8    4.24    0.30
   3   1   9   -0.02    0.03
   3  -1   9    0.06    0.03
   2   1  10    8.83    0.60
   2  -1  10   10.00    0.55
   1   1  11    0.43    0.14
   1  -1  11    0.51    0.12
   0   1  12    6.00    0.46
   0  -1  12    6.64    0.42
  -1   1  13    0.13    0.06
  -1  -1  13    0.22    0.07
  -2   1  14   41.68    1.65
  -2   1  14   42.16    1.78
  -2  -1  14   38.51    1.77
  -3   1  15    0.14    0.04
  -3  -1  15    0.09    0.03
  -4   1  16   43.30    1.79
  -4  -1  16   42.11    1.76
  -5   1  17   -0.01    0.03
  -5  -1  17    0.04    0.03
   4   2   8   14.43    0.76
   4  -2   8   13.94    0.75
   3   2   9    0.13    0.04
   3  -2   9    0.09    0.03
   2   2  10    7.51    0.54
   2  -2  10    9.48    0.52
   1   2  11    0.65    0.15
   1  -2  11    0.93    0.12
   0   2  12   10.31    0.63
   0  -2  12   10.35    0.57
  -1   2  13    0.28    0.06
  -1   2  13    0.18    0.07
  -1  -2  13    0.09    0.05
  -2   2  14   11.97    0.62
  -2   2  14   11.22    0.55
  -2  -2  14   11.61    0.62
  -3   2  15    0.07    0.02
  -4   2  16    0.65    0.12
  -4  -2  16    0.55    0.07
   4  -3   8    2.20    0.24
   3   3   9    0.13    0.05
   3  -3   9    0.06    0.03
   2   3  10    4.63    0.39
   2  -3  10    5.10    0.35
   1   3  11    0.93    0.19
   1  -3  11    1.25    0.13
   0   3  12    4.40    0.37
   0  -3  12    4.40    0.32
  -1   3  13    0.15    0.06
   1  -3 -13    0.36    0.05
  -1  -3  13    0.25    0.06
  -2   3  14   15.74    0.74
  -2   3  14   15.35    0.81
  -2  -3  14   15.24    0.79
   6   0   7   -0.02    0.03
   5   0   8   10.09    0.54
   5   0   8   11.16    0.59
   4   0   9    0.03    0.02
   4   0   9    0.03    0.03
   3   0  10    3.12    0.27
   2   0  11   -0.01    0.03
   1   0  12    0.64    0.15
   0   0  13    0.10    0.05
  -1   0  14   10.14    0.59
  -2   0  15   -0.02    0.02
  -4   0  17    0.02    0.03
  -5   0  18    0.12    0.05
   6   1   7    0.07    0.03
   5   1   8    0.53    0.11
   5  -1   8    0.62    0.12
   4   1   9   -0.01    0.03
   4  -1   9    0.03    0.03
   3   1  10    2.81    0.27
   3  -1  10    2.20    0.22
   2   1  11    0.02    0.04
   2  -1  11    0.01    0.03
   1   1  12   38.91    2.03
   1  -1  12   49.72    1.97
   0   1  13    0.33    0.10
   0  -1  13    0.39    0.10
  -1   1  14   39.95    1.79
  -1  -1  14   38.28    1.73
  -2   1  15    0.02    0.03
  -2  -1  15    0.01    0.03
  -3   1  16   58.25    2.33
  -4   1  17    0.21    0.06
  -5  -1  18   55.56    2.27
   4   2   9    0.02    0.03
   4  -2   9    0.03    0.03
   3   2  10    2.70    0.27
   3  -2  10    2.64    0.24
   2   2  11    0.04    0.03
   2  -2  11    0.01    0.03
   1   2  12    0.30    0.08
   1  -2  12    0.67    0.13
   0   2  13    0.08    0.05
   0  -2  13    0.06    0.04
  -1   2  14    5.69    0.41
  -1  -2  14    5.54    0.38
  -2   2  15    0.52    0.10
  -2   2  15    0.46    0.11
  -2  -2  15    0.32    0.09
  -3   2  16    2.63    0.21
  -4   2  17    0.08    0.04
   1   3  12   14.46    0.88
   1  -3  12   16.05    0.82
   0   3  13    1.22    0.16
   0  -3  13    1.30    0.15
  -1   3  14   15.17    0.83
  -1  -3  14   14.16    0.78
  -2   3  15    0.00    0.03
  -2   3  15    0.00    0.03
   5   0   9   -0.01    0.03
   5   0   9    0.01    0.03
   4   0  10   26.58    1.16
   4   0  10   28.99    1.30
   3   0  11   -0.01    0.03
   2   0  12   75.00    3.17
   1   0  13    0.03    0.04
   0   0  14   51.77    2.27
  -1   0  15   -0.02    0.03
  -2   0  16   23.70    1.13
   5   1   9    0.02    0.03
   5  -1   9    0.02    0.03
   4   1  10    9.88    0.59
   4  -1  10    9.92    0.58
   3   1  11    0.18    0.06
   3  -1  11    0.41    0.12
   2  -1  12    0.42    0.11
   1   1  13    0.02    0.05
   1  -1  13    0.07    0.04
   0   1  14    9.24    0.63
   0  -1  14    9.08    0.56
  -1   1  15    0.04    0.04
  -1  -1  15    0.05    0.03
  -2   1  16   10.73    0.62
  -2  -1  16   11.19    0.63
  -4   1  18    0.15    0.05
   4   2  10   16.19    0.86
   4  -2  10   14.85    0.82
   3   2  11    1.51    0.19
   3  -2  11    1.39    0.16
   2   2  12   28.26    1.52
   2  -2  12   34.46    1.48
   1   2  13    0.34    0.11
   0   2  14   22.59    1.21
   0  -2  14   24.47    1.15
  -1   2  15    0.68    0.15
  -1  -2  15    0.61    0.09
  -2   2  16   13.47    0.73
  -2  -2  16   13.78    0.74
   5   0  10    1.19    0.14
   5   0  10    0.99    0.11
   4   0  11    0.01    0.03
   4   0  11    0.01    0.03
   3   0  12    1.47    0.17
   2   0  13    0.04    0.03
   1   0  14    9.42    0.60
   0   0  15    0.20    0.07
  -1   0  16    6.61    0.46
  -2   0  17    0.00    0.03
   5   1  10   59.01    2.51
   4   1  11    0.07    0.04
   4  -1  11    0.10    0.05
   3   1  12   93.83    3.89
   3  -1  12   89.53    3.80
   2   1  13    0.05    0.04
   2  -1  13    0.12    0.05
   1   1  14   24.41    1.34
   1  -1  14   26.37    1.25
   0   1  15   -0.04    0.05
   0  -1  15    0.03    0.04
  -1   1  16   10.01    0.63
  -1  -1  16    9.72    0.59
  -2   1  17    0.08    0.04
  -2  -1  17    0.06    0.03
   3   2  12    1.44    0.26
   3  -2  12    1.13    0.15
   2   2  13    0.13    0.07
   2  -2  13    0.11    0.05
   1   2  14    1.49    0.21
   0   2  15    0.05    0.05
   0  -2  15    0.16    0.06
  -1   2  16    3.13    0.30
  -1  -2  16    3.04    0.27
  -2   2  17    0.07    0.04
  -2  -2  17    0.09    0.04
   4   0  12   24.49    1.19
   3   0  13    0.00    0.03
   2   0  14    1.18    0.22
   1   0  15    0.03    0.03
   0   0  16    0.08    0.04
  -1   0  17   -0.07    0.03
  -2   0  18   35.98    1.64
   4   1  12   14.33    0.84
   4  -1  12   14.15    0.80
   3   1  13    0.08    0.04
   3  -1  13    0.10    0.04
   2   1  14   31.07    1.57
   2  -1  14   31.05    1.47
   1   1  15    0.00    0.04
   1  -1  15    0.14    0.06
   0   1  16   38.08    1.84
   0  -1  16   37.50    1.74
  -1   1  17    0.10    0.05
  -1  -1  17    0.06    0.04
  -2   1  18    4.79    0.36
  -2  -1  18    4.85    0.35
   2   0  15   -0.01    0.03
   1   0  16   13.18    0.78
   0   0  17    0.01    0.04
  -1   0  18    1.74    0.20
  -2   0  19   -0.02    0.04
   0   1  17    0.21    0.08
  -1   1  18   78.88    3.45
   0   0   0    0.00    0.00
;
_shelx_hkl_checksum              31218
_shelx_res_file
;
TITL yzq1 in P2(1)/c
CELL 0.71073   6.400    3.614   14.453  90.000 110.369  90.000
ZERR    4.00   0.005    0.002   0.012    0.000   0.010   0.000
LATT  1
SYMM -X, 0.5+Y, 0.5-Z
SFAC O F NA V
UNIT 8 8 4 4
TEMP 20
L.S. 10
BOND
FMAP 2
PLAN 20
SIZE 0.4 0.20 0.10
ACTA
WGHT    0.099800    0.884300
EXTI    0.067420
FVAR       0.24065
MOLE   1
V1    4    0.638837    0.254816    0.358078    11.00000    0.00971    0.02482 =
         0.01374   -0.00079    0.00597   -0.00061
NA1   3    0.134713    0.728731    0.353992    11.00000    0.01911    0.01594 =
         0.01806   -0.00059    0.00731   -0.00044
F1    2    0.878217    0.227596    0.309331    11.00000    0.01105    0.02032 =
         0.01912   -0.00052    0.00858    0.00052
F2    2    0.359617    0.227583    0.370367    11.00000    0.01476    0.01846 =
         0.02992   -0.00024    0.01445   -0.00001
O1    1    0.593944    0.734874    0.321394    11.00000    0.01527    0.00971 =
         0.02158    0.00064    0.00919    0.00049
O2    1    0.786053    0.259946    0.471745    11.00000    0.02220    0.05014 =
         0.01613   -0.00204    0.00457   -0.00249
MOLE   2
HKLF 4
REM  yzq1 in P2(1)/c
REM R1 =  0.0509 for     685 Fo > 4sig(Fo)  and  0.0523 for all     728 data
REM     56 parameters refined using      0 restraints
END
WGHT      0.0737      0.8620
REM Highest difference peak  1.167,  deepest hole -0.924,  1-sigma level  0.270
Q1    1   0.6446  0.2472  0.4185  11.00000  0.05    1.17
Q2    1   0.5465  0.7448  0.2662  11.00000  0.05    0.93
Q3    1   0.6264  0.2625  0.3015  11.00000  0.05    0.88
Q4    1   0.7588  0.2514  0.4063  11.00000  0.05    0.75
Q5    1   0.9280  0.2415  0.2781  11.00000  0.05    0.74
Q6    1   0.9436  0.2682  0.3715  11.00000  0.05    0.67
Q7    1   0.1371  0.7302  0.4014  11.00000  0.05    0.64
Q8    1   0.1360  0.7147  0.2998  11.00000  0.05    0.62
Q9    1   0.4379  0.2485  0.4251  11.00000  0.05    0.55
Q10   1   0.6705  0.2833  0.2169  11.00000  0.05    0.55
Q11   1  -0.0714  0.7612  0.4206  11.00000  0.05    0.50
Q12   1   0.1639  0.2496  0.2621  11.00000  0.05    0.49
Q13   1   0.5812  0.2595  0.5200  11.00000  0.05    0.48
Q14   1   0.5909  0.4486  0.2762  11.00000  0.05    0.46
Q15   1   0.8828  0.7438  0.5329  11.00000  0.05    0.46
Q16   1   0.5824  1.0465  0.2783  11.00000  0.05    0.39
Q17   1   0.6443  0.0857  0.3566  11.00000  0.05    0.36
Q18   1   0.2772  0.2508  0.4577  11.00000  0.05    0.36
Q19   1   0.8526  0.5073  0.2398  11.00000  0.05    0.36
Q20   1   0.8396 -0.0185  0.2420  11.00000  0.05    0.34
;
_shelx_res_checksum              19886
_shelxl_version_number           20.13
loop_
_space_group_symop_operation_xyz
'x, y, z'
'-x, y+1/2, -z+1/2'
'-x, -y, -z'
'x, -y-1/2, z-1/2'
loop_
_atom_site_type_symbol
_atom_site_label
_atom_site_fract_x
_atom_site_fract_y
_atom_site_fract_z
_atom_site_U_iso_or_equiv
_atom_site_adp_type
_atom_site_calc_flag
_atom_site_occupancy
V V1 0.63884(10) 0.25482(13) 0.35808(5) 0.0156(4) Uani d 1
Na Na1 0.1347(2) 0.7287(3) 0.35399(12) 0.0175(5) Uani d 1
F F1 0.8782(4) 0.2276(5) 0.30933(19) 0.0159(6) Uani d 1
F F2 0.3596(4) 0.2276(5) 0.3704(2) 0.0193(6) Uani d 1
O O1 0.5939(4) 0.7349(5) 0.3214(2) 0.0148(6) Uani d 1
O O2 0.7861(6) 0.2599(7) 0.4717(2) 0.0300(9) Uani d 1
loop_
_atom_site_aniso_label
_atom_site_aniso_U_11
_atom_site_aniso_U_22
_atom_site_aniso_U_33
_atom_site_aniso_U_12
_atom_site_aniso_U_13
_atom_site_aniso_U_23
V1 0.0097(5) 0.0248(6) 0.0137(6) -0.00061(16) 0.0060(3) -0.00079(16)
Na1 0.0191(10) 0.0159(9) 0.0181(10) -0.0004(4) 0.0073(8) -0.0006(4)
F1 0.0110(11) 0.0203(11) 0.0191(12) 0.0005(6) 0.0086(9) -0.0005(6)
F2 0.0148(11) 0.0185(11) 0.0299(13) 0.0000(6) 0.0145(10) -0.0002(7)
O1 0.0153(13) 0.0097(12) 0.0216(15) 0.0005(7) 0.0092(12) 0.0006(7)
O2 0.0222(16) 0.050(2) 0.0161(16) -0.0025(10) 0.0046(13) -0.0020(9)
loop_
_atom_type_symbol
_atom_type_description
_atom_type_scat_dispersion_real
_atom_type_scat_dispersion_imag
_atom_type_scat_source
O O 0.0106 0.0060 'International Tables Vol C Tables 4.2.6.8 and 6.1.1.4'
F F 0.0171 0.0103 'International Tables Vol C Tables 4.2.6.8 and 6.1.1.4'
Na Na 0.0362 0.0249 'International Tables Vol C Tables 4.2.6.8 and 6.1.1.4'
V V 0.3005 0.5294 'International Tables Vol C Tables 4.2.6.8 and 6.1.1.4'
loop_
_geom_angle_atom_site_label_1
_geom_angle_atom_site_label_2
_geom_angle_atom_site_label_3
_geom_angle_site_symmetry_1
_geom_angle_site_symmetry_3
_geom_angle
O2 V1 O1 . . 105.63(13)
O2 V1 F2 . . 98.40(17)
O1 V1 F2 . . 91.08(10)
O2 V1 F1 . . 96.89(18)
O1 V1 F1 . . 90.42(10)
F2 V1 F1 . . 163.63(13)
O2 V1 O1 . 1_545 105.78(12)
O1 V1 O1 . 1_545 148.58(18)
F2 V1 O1 . 1_545 85.37(10)
F1 V1 O1 . 1_545 84.87(10)
O2 V1 Na1 . 1_655 78.66(13)
O1 V1 Na1 . 1_655 65.95(10)
F2 V1 Na1 . 1_655 154.53(7)
F1 V1 Na1 . 1_655 36.32(7)
O1 V1 Na1 1_545 1_655 119.92(9)
O2 V1 Na1 . . 102.44(13)
O1 V1 Na1 . . 59.57(9)
F2 V1 Na1 . . 31.70(7)
F1 V1 Na1 . . 147.64(8)
O1 V1 Na1 1_545 . 113.85(9)
Na1 V1 Na1 1_655 . 123.66(8)
F2 Na1 F2 1_565 . 105.46(14)
F2 Na1 F1 1_565 2_655 84.53(10)
F2 Na1 F1 . 2_655 84.38(10)
F2 Na1 F1 1_565 1_465 77.18(12)
F2 Na1 F1 . 1_465 170.72(13)
F1 Na1 F1 2_655 1_465 87.05(9)
F2 Na1 F1 1_565 1_455 170.81(13)
F2 Na1 F1 . 1_455 76.93(12)
F1 Na1 F1 2_655 1_455 86.90(9)
F1 Na1 F1 1_465 1_455 99.10(13)
F2 Na1 O2 1_565 3_666 88.98(11)
F2 Na1 O2 . 3_666 90.55(11)
F1 Na1 O2 2_655 3_666 170.39(13)
F1 Na1 O2 1_465 3_666 98.43(11)
F1 Na1 O2 1_455 3_666 99.92(11)
F2 Na1 Na1 1_565 2_545 128.33(11)
F2 Na1 Na1 . 2_545 77.15(9)
F1 Na1 Na1 2_655 2_545 43.89(8)
F1 Na1 Na1 1_465 2_545 94.19(11)
F1 Na1 Na1 1_455 2_545 43.01(7)
O2 Na1 Na1 3_666 2_545 142.50(9)
F2 Na1 Na1 1_565 2 77.23(9)
F2 Na1 Na1 . 2 128.34(11)
F1 Na1 Na1 2_655 2 44.05(8)
F1 Na1 Na1 1_465 2 43.00(7)
F1 Na1 Na1 1_455 2 94.28(10)
O2 Na1 Na1 3_666 2 140.83(9)
Na1 Na1 Na1 2_545 2 63.88(9)
F2 Na1 Na1 1_565 1_565 37.33(7)
F2 Na1 Na1 . 1_565 142.79(7)
F1 Na1 Na1 2_655 1_565 90.10(5)
F1 Na1 Na1 1_465 1_565 40.52(7)
F1 Na1 Na1 1_455 1_565 139.61(7)
O2 Na1 Na1 3_666 1_565 89.02(6)
Na1 Na1 Na1 2_545 1_565 121.94(5)
Na1 Na1 Na1 2 1_565 58.06(5)
F2 Na1 Na1 1_565 1_545 142.67(7)
F2 Na1 Na1 . 1_545 37.21(7)
F1 Na1 Na1 2_655 1_545 89.90(5)
F1 Na1 Na1 1_465 1_545 139.48(7)
F1 Na1 Na1 1_455 1_545 40.39(7)
O2 Na1 Na1 3_666 1_545 90.98(6)
Na1 Na1 Na1 2_545 1_545 58.06(5)
Na1 Na1 Na1 2 1_545 121.94(5)
Na1 Na1 Na1 1_565 1_545 180.0
F2 Na1 V1 1_565 1_455 154.37(8)
F2 Na1 V1 . 1_455 98.51(10)
F1 Na1 V1 2_655 1_455 107.02(7)
F1 Na1 V1 1_465 1_455 80.60(10)
F1 Na1 V1 1_455 1_455 28.22(6)
O2 Na1 V1 3_666 1_455 81.76(9)
Na1 Na1 V1 2_545 1_455 65.65(6)
Na1 Na1 V1 2 1_455 95.03(8)
Na1 Na1 V1 1_565 1_455 118.20(4)
Na1 Na1 V1 1_545 1_455 61.80(4)
F2 Na1 V1 1_565 . 81.10(10)
F2 Na1 V1 . . 25.44(6)
F1 Na1 V1 2_655 . 74.59(6)
F1 Na1 V1 1_465 . 152.75(7)
F1 Na1 V1 1_455 . 99.82(10)
O2 Na1 V1 3_666 . 97.43(9)
Na1 Na1 V1 2_545 . 86.47(7)
Na1 Na1 V1 2 . 115.91(8)
Na1 Na1 V1 1_565 . 118.11(4)
Na1 Na1 V1 1_545 . 61.89(4)
V1 Na1 V1 1_455 . 123.66(8)
V1 F1 Na1 . 2_645 128.78(13)
V1 F1 Na1 . 1_645 120.66(12)
Na1 F1 Na1 2_645 1_645 93.10(9)
V1 F1 Na1 . 1_655 115.46(11)
Na1 F1 Na1 2_645 1_655 92.94(9)
Na1 F1 Na1 1_645 1_655 99.10(13)
V1 F2 Na1 . 1_545 128.95(11)
V1 F2 Na1 . . 122.86(11)
Na1 F2 Na1 1_545 . 105.46(14)
V1 O1 V1 . 1_565 148.58(18)
V1 O2 Na1 . 3_666 157.6(2)
loop_
_geom_bond_atom_site_label_1
_geom_bond_atom_site_label_2
_geom_bond_site_symmetry_2
_geom_bond_distance
V1 O2 . 1.584(4)
V1 O1 . 1.808(3)
V1 F2 . 1.859(3)
V1 F1 . 1.899(3)
V1 O1 1_545 1.946(3)
V1 Na1 1_655 3.625(3)
V1 Na1 . 3.635(4)
Na1 F2 1_565 2.267(3)
Na1 F2 . 2.274(3)
Na1 F1 2_655 2.333(4)
Na1 F1 1_465 2.372(3)
Na1 F1 1_455 2.378(3)
Na1 O2 3_666 2.390(5)
Na1 Na1 2_545 3.416(4)
Na1 Na1 2 3.416(4)
Na1 Na1 1_565 3.614(4)
Na1 Na1 1_545 3.614(4)
Na1 V1 1_455 3.625(3)
F1 Na1 2_645 2.333(4)
F1 Na1 1_645 2.372(3)
F1 Na1 1_655 2.378(3)
F2 Na1 1_545 2.267(3)
O1 V1 1_565 1.946(3)
O2 Na1 3_666 2.390(5)

_cod_database_fobs_code 2019931
