#------------------------------------------------------------------------------
#$Date: 2016-02-20 00:18:51 +0200 (Sat, 20 Feb 2016) $
#$Revision: 176760 $
#$URL: svn://www.crystallography.net/cod/cif/2/01/97/2019750.cif $
#------------------------------------------------------------------------------
#
# This file is available in the Crystallography Open Database (COD),
# http://www.crystallography.net/. The original data for this entry
# were provided by IUCr Journals, http://journals.iucr.org/.
#
# The file may be used within the scientific community so long as
# proper attribution is given to the journal article from which the
# data were obtained.
#
data_2019750
loop_
_publ_author_name
'Pavlyuk, Volodymyr'
'Milashys, Viktoriya'
'Dmytriv, Grygoriy'
'Ehrenberg, Helmut'
_publ_section_title
;
 A new tetragonal structure type for Li~2~B~2~C
;
_journal_coeditor_code           FN3184
_journal_issue                   1
_journal_name_full               'Acta Crystallographica Section C'
_journal_page_first
;
;
_journal_paper_doi               10.1107/S2053229614025510
_journal_volume                  71
_journal_year                    2015
_chemical_formula_iupac          'Li2 B2 C'
_chemical_formula_moiety         'C B2 Li2'
_chemical_formula_sum            'C B2 Li2'
_chemical_formula_weight         47.51
_chemical_name_systematic
;
dilithium diboron carbide
;
_space_group_crystal_system      tetragonal
_space_group_IT_number           115
_space_group_name_Hall           'P -4 -2'
_space_group_name_H-M_alt        'P -4 m 2'
_symmetry_space_group_name_Hall  'P -4 -2'
_symmetry_space_group_name_H-M   'P -4 m 2'
_atom_sites_solution_primary     direct
_atom_sites_solution_secondary   difmap
_audit_creation_method           SHELXL-2014/7
_cell_angle_alpha                90
_cell_angle_beta                 90
_cell_angle_gamma                90
_cell_formula_units_Z            2
_cell_length_a                   4.1389(4)
_cell_length_b                   4.1389(4)
_cell_length_c                   7.1055(11)
_cell_measurement_reflns_used    182
_cell_measurement_temperature    293(2)
_cell_measurement_theta_max      27.27
_cell_measurement_theta_min      2.87
_cell_volume                     121.72(3)
_computing_cell_refinement
;
CrysAlis CCD (Oxford Diffraction, 2008)
;
_computing_data_collection
;
CrysAlis CCD (Oxford Diffraction, 2008)
;
_computing_data_reduction
;
CrysAlis RED (Oxford Diffraction, 2008)
;
_computing_molecular_graphics
;
DIAMOND (Brandenburg, 2006)
;
_computing_publication_material
;
SHELXL2014 (Sheldrick, 2008)
;
_computing_structure_refinement
;
SHELXL2014 (Sheldrick, 2008)
;
_computing_structure_solution
;
SHELXS2014 (Sheldrick, 2008)
;
_diffrn_ambient_temperature      293(2)
_diffrn_detector_area_resol_mean 0
_diffrn_measured_fraction_theta_full 1.000
_diffrn_measured_fraction_theta_max 1.000
_diffrn_measurement_device_type  'Oxford Xcalibur3 CCD area-detector'
_diffrn_measurement_method       \w
_diffrn_radiation_monochromator  graphite
_diffrn_radiation_source         'fine-focus sealed tube'
_diffrn_radiation_type           MoK\a
_diffrn_radiation_wavelength     0.71073
_diffrn_reflns_av_R_equivalents  0.0258
_diffrn_reflns_limit_h_max       5
_diffrn_reflns_limit_h_min       -5
_diffrn_reflns_limit_k_max       5
_diffrn_reflns_limit_k_min       -5
_diffrn_reflns_limit_l_max       9
_diffrn_reflns_limit_l_min       -9
_diffrn_reflns_number            1356
_diffrn_reflns_theta_full        25.242
_diffrn_reflns_theta_max         27.273
_diffrn_reflns_theta_min         2.867
_diffrn_standards_decay_%        0
_diffrn_standards_interval_count 0
_diffrn_standards_interval_time  0
_diffrn_standards_number         0
_exptl_absorpt_coefficient_mu    0.048
_exptl_absorpt_correction_T_max  0.998
_exptl_absorpt_correction_T_min  0.891
_exptl_absorpt_correction_type   analytical
_exptl_absorpt_process_details
;
(CrysAlis RED; Oxford Diffraction, 2008)
;
_exptl_crystal_colour            'metallic dark grey'
_exptl_crystal_density_diffrn    1.296
_exptl_crystal_density_method    'not measured'
_exptl_crystal_description       plate
_exptl_crystal_F_000             44
_exptl_crystal_size_max          0.07
_exptl_crystal_size_mid          0.05
_exptl_crystal_size_min          0.01
_refine_diff_density_max         0.215
_refine_diff_density_min         -0.191
_refine_ls_abs_structure_details none
_refine_ls_extinction_method     none
_refine_ls_goodness_of_fit_ref   1.444
_refine_ls_matrix_type           full
_refine_ls_number_parameters     19
_refine_ls_number_reflns         182
_refine_ls_number_restraints     0
_refine_ls_restrained_S_all      1.444
_refine_ls_R_factor_all          0.0236
_refine_ls_R_factor_gt           0.0172
_refine_ls_shift/su_max          0.000
_refine_ls_shift/su_mean         0.000
_refine_ls_structure_factor_coef Fsqd
_refine_ls_weighting_details
'w = 1/[\s^2^(Fo^2^)+(0.0091P)^2^+0.0124P] where P=(Fo^2^+2Fc^2^)/3'
_refine_ls_weighting_scheme      calc
_refine_ls_wR_factor_gt          0.0466
_refine_ls_wR_factor_ref         0.0570
_reflns_number_gt                178
_reflns_number_total             182
_reflns_threshold_expression     I>2\s(I)
_cod_data_source_file            fn3184sup1.cf
_cod_data_source_block           I
_cod_database_code               2019750
_cod_database_fobs_code          2019750
#BEGIN Tags that were not found in dictionaries:
_shelx_space_group_comment
;
The symmetry employed for this shelxl refinement is uniquely defined
by the following loop, which should always be used as a source of
symmetry information in preference to the above space-group names.
They are only intended as comments.
;
_shelx_hkl_file
;
   1   0   0 2122.17  160.54
   1  -1   0 2687.48  185.32
   2   0   0 5646.89  371.82
   2  -1   0  688.60   50.21
   2  -2   0  286.92   30.78
   3   0   0  592.87   53.08
   3  -1   0  466.50   31.04
   3  -2   0  261.22   21.39
   3  -3   0  155.72   22.69
   4   0   0 5834.81  389.29
   4  -1   0  269.44   20.87
   4  -2   0 1379.41   81.25
   4  -3   0  292.13   22.17
   5   0   0  131.47   17.87
   5  -1   0  476.93   29.60
   0   0   1 9988.07  790.45
   1   0   1 4340.22  166.80
   1  -1   1 1462.49   85.16
   2   0   1  380.81   26.74
   2  -1   1  639.30   29.73
   2  -2   1 2216.68  118.68
   3   0   1  727.98   44.99
   3  -1   1  463.76   23.34
   3  -2   1  215.58   13.43
   3  -3   1  162.24   15.39
   4   0   1  724.46   46.56
   4  -1   1  390.73   20.34
   4  -2   1  120.37    9.00
   4  -3   1  384.34   20.21
   5   0   1  293.04   23.47
   5  -1   1  312.22   17.35
   0   0   2  535.10   70.56
   1   0   2 1637.77   92.33
   1  -1   2 5080.10  239.70
   2   0   2 1460.92   84.90
   2  -1   2  530.14   25.69
   2  -2   2 2711.22  138.37
   3   0   2  513.32   34.82
   3  -1   2 2359.88   87.12
   3  -2   2  232.92   15.00
   3  -3   2 1705.19   89.07
   4   0   2  151.02   13.69
   4  -1   2  280.26   16.95
   4  -2   2  579.05   26.60
   4  -3   2  252.75   15.26
   5   0   2  235.01   20.74
   5  -1   2  730.59   31.69
   0   0   3  457.24   60.64
   1   0   3  330.08   25.04
   1  -1   3   80.73   10.95
   2   0   3 3313.48  159.11
   2  -1   3  849.66   35.73
   2  -2   3 3480.80  170.45
   3   0   3  157.15   17.61
   3  -1   3   68.86    6.13
   3  -2   3  639.04   28.43
   3  -3   3   -0.13   22.69
   4   0   3   81.25    9.52
   4  -1   3  130.55    8.87
   4  -2   3 1257.08   49.56
   4  -3   3   83.47    7.43
   5   0   3   80.73   10.30
   0   0   4 4399.33  406.90
   1   0   4  325.00   27.78
   1  -1   4  133.68   13.56
   2   0   4 3151.63  155.59
   2  -1   4  518.93   26.60
   2  -2   4  578.40   38.86
   3   0   4  146.98   15.00
   3  -1   4   65.60    6.13
   3  -2   4  505.88   25.30
   3  -3   4   -0.52   32.34
   4   0   4 1349.15   76.03
   4  -1   4  131.98    9.65
   4  -2   4 1353.20   54.12
   0   0   5  355.51   54.12
   1   0   5  833.62   57.77
   1  -1   5 2242.24  116.20
   2   0   5 1616.77   88.42
   2  -1   5  107.85   10.17
   2  -2   5  217.01   18.78
   3   0   5  422.55   33.26
   3  -1   5 1304.81   52.43
   3  -2   5  134.85   10.95
   3  -3   5  841.97   52.30
   4   0   5  155.06   15.13
   4  -1   5  432.33   23.08
   4  -2   5  883.44   38.34
   0   0   6   52.43   14.22
   1   0   6  580.48   43.04
   1  -1   6  493.10   34.69
   2   0   6 1044.50   61.95
   2  -1   6  116.07    9.13
   2  -2   6  161.72   15.39
   3   0   6  373.51   29.60
   3  -1   6  277.79   16.17
   3  -2   6  102.90    8.35
   4   0   6   -0.65   21.00
   0   0   7 3697.43  358.12
   1   0   7  177.24   19.69
   1  -1   7  321.21   27.78
   2   0   7 1944.37  103.03
   2  -1   7  339.60   21.91
   2  -2   7  242.83   20.74
   3   0   7  133.94   14.22
   3  -1   7  203.84   13.82
   0   0   8  353.82   54.12
   1   0   8  130.68   14.22
   1  -1   8  185.06   20.21
   2   0   8  292.52   23.61
   2  -1   8  381.86   20.21
   0   0   9  167.32   32.08
   1   0   9  169.67   17.35
   0  -1   0 1804.18  157.28
   1  -1   0 2660.88  181.67
   0  -2   0 5591.07  364.38
   1  -2   0  681.68   49.04
   2  -2   0  284.05   30.00
   0  -3   0  587.00   52.17
   1  -3   0  461.93   30.39
   2  -3   0  258.62   21.00
   3  -3   0  154.28   22.17
   0  -4   0 5777.04  381.47
   1  -4   0  266.83   20.34
   2  -4   0 1365.85   79.55
   3  -4   0  289.26   21.91
   0  -5   0  120.82   17.48
   1  -5   0  472.24   29.08
   0   0   1 9997.04  774.80
   0  -1   1 3307.22  163.67
   1  -1   1 1448.01   83.47
   0  -2   1  377.03   26.08
   1  -2   1  633.04   29.34
   2  -2   1 2194.64  116.20
   0  -3   1  720.81   44.08
   1  -3   1  459.19   22.82
   2  -3   1  213.49   13.17
   3  -3   1  160.54   15.13
   0  -4   1  717.29   45.52
   1  -4   1  386.81   19.95
   2  -4   1  119.20    8.87
   3  -4   1  380.55   19.82
   0  -5   1  290.18   22.95
   1  -5   1  309.09   16.95
   0   0   2  529.75   68.99
   0  -1   2 1621.59   90.51
   1  -1   2 5029.89  234.88
   0  -2   2 1446.31   83.34
   1  -2   2  524.92   25.17
   2  -2   2 2684.35  135.50
   0  -3   2  508.23   34.04
   1  -3   2 2336.53   85.42
   2  -3   2  230.71   14.74
   3  -3   2 1688.24   87.38
   0  -4   2  149.59   13.43
   1  -4   2  277.53   16.69
   2  -4   2  573.31   25.95
   3  -4   2  250.27   15.00
   0  -5   2  232.79   20.21
   1  -5   2  723.42   31.04
   0   0   3  452.67   59.34
   0  -1   3  326.69   24.52
   1  -1   3   79.95   10.56
   0  -2   3 3280.75  156.11
   1  -2   3  841.18   35.08
   2  -2   3 3446.38  166.93
   0  -3   3  155.59   17.21
   1  -3   3   68.21    6.00
   2  -3   3  632.65   27.78
   3  -3   3   -0.13   22.17
   0  -4   3   80.47    9.39
   1  -4   3  129.24    8.61
   2  -4   3 1244.56   48.65
   3  -4   3   82.55    7.30
   0  -5   3   79.95   10.04
   0   0   4 4355.77  398.81
   0  -1   4  321.87   27.26
   1  -1   4  132.37   13.30
   0  -2   4 3120.47  152.46
   1  -2   4  513.71   25.95
   2  -2   4  572.66   37.95
   0  -3   4  145.54   14.74
   1  -3   4   64.95    6.00
   2  -3   4  500.80   24.78
   3  -3   4   -0.52   31.69
   0  -4   4 1335.85   74.60
   1  -4   4  130.68    9.52
   2  -4   4 1339.76   52.95
   0   0   5  351.86   52.95
   0  -1   5  825.27   56.47
   1  -1   5 2220.07  113.85
   0  -2   5 1600.73   86.60
   1  -2   5  106.81    9.91
   2  -2   5  214.80   18.26
   0  -3   5  418.24   32.60
   1  -3   5 1291.90   51.25
   2  -3   5  133.55   10.56
   3  -3   5  833.62   51.12
   0  -4   5  153.50   14.87
   1  -4   5  428.16   22.69
   2  -4   5  874.70   37.43
   0   0   6   51.91   13.95
   0  -1   6  574.61   42.39
   1  -1   6  488.28   33.91
   0  -2   6 1034.20   60.64
   1  -2   6  114.90    9.13
   2  -2   6  160.02   15.13
   0  -3   6  369.86   29.08
   1  -3   6  275.05   15.91
   2  -3   6  101.85    8.22
   0  -4   6   -0.65   20.61
   0   0   7 3660.78  350.95
   0  -1   7  175.54   19.30
   1  -1   7  317.95   27.26
   0  -2   7 1925.07  100.94
   1  -2   7  336.21   21.52
   2  -2   7  240.49   20.21
   0  -3   7  132.50   14.08
   1  -3   7  201.88   13.56
   0   0   8  350.30   52.95
   0  -1   8  129.50   13.95
   1  -1   8  183.23   19.82
   0  -2   8  289.52   23.08
   1  -2   8  378.08   19.82
   0   0   9  165.76   31.43
   0  -1   9  167.98   16.95
   0   1   0 1824.00  157.28
  -1   1   0 2690.22  181.67
   0   2   0 5652.62  364.51
  -1   2   0  689.25   49.17
  -2   2   0  287.18   30.13
   0   3   0  593.52   52.17
  -1   3   0  467.02   30.52
  -2   3   0  261.48   21.00
  -3   3   0  155.98   22.17
   0   4   0 5840.68  381.60
  -1   4   0  269.83   20.34
  -2   4   0 1380.85   79.55
  -3   4   0  292.52   21.78
   0   5   0  121.60   17.61
  -1   5   0  477.32   28.95
   0   0   1 9997.20  775.06
   0   1   1 3343.61  163.67
  -1   1   1 1463.92   83.47
   0   2   1  381.21   26.08
  -1   2   1  639.95   29.21
  -2   2   1 2218.90  116.20
   0   3   1  728.63   44.08
  -1   3   1  464.28   22.95
  -2   3   1  215.84   13.17
  -3   3   1  162.37   15.13
   0   4   1  725.11   45.52
  -1   4   1  390.99   19.95
  -2   4   1  120.37    8.61
  -3   4   1  384.73   19.82
   0   5   1  293.31   23.08
  -1   5   1  312.48   17.08
   0   0   2  535.62   69.12
   0   1   2 1639.46   90.51
  -1   1   2 5085.18  234.88
   0   2   2 1462.36   83.34
  -1   2   2  530.66   25.17
  -2   2   2 2713.96  135.63
   0   3   2  513.84   34.04
  -1   3   2 2362.23   85.42
  -2   3   2  233.18   14.74
  -3   3   2 1706.89   87.38
   0   4   2  151.28   13.43
  -1   4   2  280.66   16.69
  -2   4   2  579.70   25.95
  -3   4   2  253.01   15.00
   0   5   2  235.27   20.21
  -1   5   2  731.37   31.04
   0   0   3  457.63   59.34
   0   1   3  330.34   24.65
  -1   1   3   80.86   10.56
   0   2   3 3316.87  156.11
  -1   2   3  850.44   35.08
  -2   2   3 3484.33  167.06
   0   3   3  157.28   17.35
  -1   3   3   68.99    6.00
  -2   3   3  639.69   27.78
  -3   3   3   -0.13   22.17
   0   4   3   81.38    9.39
  -1   4   3  130.68    8.48
  -2   4   3 1258.25   48.65
  -3   4   3   83.47    7.30
   0   5   3   80.86   10.17
   0   0   4 4403.76  398.94
   0   1   4  325.39   27.26
  -1   1   4  133.81   13.30
   0   2   4 3154.76  152.46
  -1   2   4  519.45   25.95
  -2   2   4  578.92   37.95
   0   3   4  147.24   14.74
  -1   3   4   65.73    6.00
  -2   3   4  506.41   24.91
  -3   3   4   -0.52   31.69
   0   4   4 1350.59   74.60
  -1   4   4  132.11    9.52
  -2   4   4 1354.63   52.95
   0   0   5  355.78   52.95
   0   1   5  834.40   56.60
  -1   1   5 2244.46  113.98
   0   2   5 1618.33   86.60
  -1   2   5  107.98   10.04
  -2   2   5  217.14   18.26
   0   3   5  422.94   32.60
  -1   3   5 1306.12   51.25
  -2   3   5  134.98   10.56
  -3   3   5  842.88   51.12
   0   4   5  155.20   14.87
  -1   4   5  432.85   22.69
  -2   4   5  884.35   37.56
   0   0   6   52.43   13.95
   0   1   6  581.00   42.25
  -1   1   6  493.62   33.91
   0   2   6 1045.55   60.64
  -1   2   6  116.20    9.00
  -2   2   6  161.85   15.13
   0   3   6  373.90   28.95
  -1   3   6  278.05   15.78
  -2   3   6  103.03    8.22
   0   4   6   -0.65   20.61
   0   0   7 3701.21  351.21
   0   1   7  177.37   19.43
  -1   1   7  321.48   27.26
   0   2   7 1946.20  101.07
  -1   2   7  339.86   21.39
  -2   2   7  243.10   20.21
   0   3   7  133.94   13.95
  -1   3   7  204.10   13.56
   0   0   8  354.21   52.95
   0   1   8  130.81   13.95
  -1   1   8  185.19   19.82
   0   2   8  292.78   23.21
  -1   2   8  382.25   19.82
   0   0   9  167.58   31.43
   0   1   9  169.80   17.08
  -1   0   0 2185.87  154.28
  -1   1   0 2663.49  178.02
  -2   0   0 5596.68  357.34
  -2   1   0  682.47   48.12
  -2   2   0  284.31   29.47
  -3   0   0  587.65   50.99
  -3   1   0  462.32   29.73
  -3   2   0  258.88   20.61
  -3   3   0  154.41   21.78
  -4   0   0 5782.78  374.03
  -4   1   0  267.09   19.95
  -4   2   0 1367.15   77.99
  -4   3   0  289.52   21.39
  -5   0   0  130.95   17.21
  -5   1   0  472.63   28.56
   0   0   1 9906.17  759.54
  -1   0   1 3310.48  160.41
  -1   1   1 1449.44   81.77
  -2   0   1  377.42   25.56
  -2   1   1  633.69   28.82
  -2   2   1 2196.86  113.98
  -3   0   1  721.46   43.17
  -3   1   1  459.72   22.30
  -3   2   1  213.75   12.91
  -3   3   1  160.67   14.87
  -4   0   1  717.94   44.73
  -4   1   1  387.21   19.56
  -4   2   1  119.33    8.48
  -4   3   1  380.95   19.56
  -5   0   1  290.44   22.56
  -5   1   1  309.35   16.69
   0   0   2  530.27   67.82
  -1   0   2 1623.29   88.68
  -1   1   2 5034.84  230.31
  -2   0   2 1447.88   81.64
  -2   1   2  525.45   24.78
  -2   2   2 2687.09  132.89
  -3   0   2  508.75   33.39
  -3   1   2 2338.88   83.73
  -3   2   2  230.97   14.35
  -3   3   2 1689.93   85.68
  -4   0   2  149.72   13.17
  -4   1   2  277.79   16.17
  -4   2   2  573.96   25.43
  -4   3   2  250.53   14.74
  -5   0   2  232.92   19.82
  -5   1   2  724.07   30.52
   0   0   3  453.07   58.30
  -1   0   3  327.08   24.00
  -1   1   3   80.08   10.30
  -2   0   3 3284.01  152.98
  -2   1   3  841.97   34.43
  -2   2   3 3449.77  163.80
  -3   0   3  155.72   16.95
  -3   1   3   68.21    5.87
  -3   2   3  633.30   27.26
  -3   3   3   -0.13   21.78
  -4   0   3   80.60    9.26
  -4   1   3  129.37    8.35
  -4   2   3 1245.86   47.60
  -4   3   3   82.68    7.17
  -5   0   3   80.08    9.91
   0   0   4 4360.07  390.99
  -1   0   4  322.13   26.87
  -1   1   4  132.50   13.04
  -2   0   4 3123.60  149.46
  -2   1   4  514.23   25.43
  -2   2   4  573.18   37.30
  -3   0   4  145.67   14.35
  -3   1   4   65.08    5.87
  -3   2   4  501.32   24.26
  -3   3   4   -0.52   31.04
  -4   0   4 1337.16   73.16
  -4   1   4  130.81    9.39
  -4   2   4 1341.20   52.04
   0   0   5  352.25   52.04
  -1   0   5  826.19   55.30
  -1   1   5 2222.29  111.64
  -2   0   5 1602.29   84.90
  -2   1   5  106.81    9.78
  -2   2   5  215.06   17.87
  -3   0   5  418.77   31.95
  -3   1   5 1293.21   50.34
  -3   2   5  133.68   10.30
  -3   3   5  834.53   50.21
  -4   0   5  153.63   14.48
  -4   1   5  428.55   22.17
  -4   2   5  875.61   36.78
   0   0   6   51.91   13.69
  -1   0   6  575.27   41.47
  -1   1   6  488.80   33.26
  -2   0   6 1035.11   59.47
  -2   1   6  115.03    8.87
  -2   2   6  160.28   14.87
  -3   0   6  370.25   28.56
  -3   1   6  275.31   15.65
  -3   2   6  101.99    8.09
  -4   0   6   -0.65   20.08
   0   0   7 3664.43  344.17
  -1   0   7  175.67   19.04
  -1   1   7  318.35   26.87
  -2   0   7 1927.03   98.99
  -2   1   7  336.60   21.13
  -2   2   7  240.75   19.82
  -3   0   7  132.63   13.82
  -3   1   7  202.01   13.30
   0   0   8  350.69   52.04
  -1   0   8  129.63   13.69
  -1   1   8  183.37   19.56
  -2   0   8  289.91   22.69
  -2   1   8  378.47   19.56
   0   0   9  165.89   30.78
  -1   0   9  168.24   16.69
   0   1   0 2296.90  169.28
   1   1   0 2797.82  195.36
   0   2   0 5878.77  391.90
   1   2   0  716.77   52.82
   2   2   0  298.65   32.47
   0   3   0  617.26   56.08
   1   3   0  485.67   32.73
   2   3   0  271.92   22.56
   3   3   0  162.24   23.87
   0   4   0 6074.26  410.42
   1   4   0  280.52   21.91
   2   4   0 1436.14   85.55
   3   4   0  304.13   23.47
   0   5   0  124.47   18.91
   1   5   0  496.49   31.17
   0   0   1 9965.11  833.36
   0   1   1 3477.28  175.93
   1   1   1 1522.48   89.73
   0   2   1  396.46   28.04
   1   2   1  665.64   31.43
   2   2   1 2307.58  125.07
   0   3   1  757.85   47.34
   1   3   1  482.80   24.65
   2   3   1  224.45   14.08
   3   3   1  168.76   16.17
   0   4   1  754.20   49.04
   1   4   1  406.77   21.52
   2   4   1  125.20    9.39
   3   4   1  400.12   21.39
   0   5   1  305.17   24.78
   1   5   1  325.00   18.26
   0   0   2  557.01   74.34
   0   1   2 1705.06   97.42
   1   1   2 5288.63  252.62
   0   2   2 1520.78   89.60
   1   2   2  551.92   27.13
   2   2   2 2822.46  145.94
   0   3   2  534.45   36.65
   1   3   2 2456.65   91.81
   2   3   2  242.57   15.78
   3   3   2 1775.09   93.90
   0   4   2  157.28   14.35
   1   4   2  291.87   17.87
   2   4   2  602.91   27.91
   3   4   2  263.18   16.04
   0   5   2  244.79   21.78
   1   5   2  760.59   33.39
   0   0   3  475.89   63.90
   0   1   3  343.52   26.47
   1   1   3   83.99   11.48
   0   2   3 3449.51  167.85
   1   2   3  884.48   37.69
   2   2   3 3623.61  179.71
   0   3   3  163.54   18.65
   1   3   3   71.73    6.39
   2   3   3  665.25   29.87
   3   3   3   -0.13   23.87
   0   4   3   84.64   10.04
   1   4   3  135.89    9.26
   2   4   3 1308.59   52.30
   3   4   3   86.86    7.82
   0   5   3   84.12   10.95
   0   0   4 4579.95  428.94
   0   1   4  338.30   29.34
   1   1   4  139.15   14.22
   0   2   4 3281.01  163.93
   1   2   4  540.18   27.91
   2   2   4  602.13   40.95
   0   3   4  153.11   15.78
   1   3   4   68.34    6.39
   2   3   4  526.62   26.74
   3   3   4   -0.52   34.04
   0   4   4 1404.58   80.21
   1   4   4  137.33   10.17
   2   4   4 1408.75   56.99
   0   0   5  369.99   56.99
   0   1   5  867.79   60.77
   1   1   5 2334.19  122.59
   0   2   5 1683.02   93.25
   1   2   5  112.29   10.82
   2   2   5  225.88   19.69
   0   3   5  439.89   35.08
   1   3   5 1358.41   55.17
   2   3   5  140.46   11.48
   3   3   5  876.53   55.04
   0   4   5  161.32   15.91
   1   4   5  450.20   24.26
   2   4   5  919.69   40.43
   0   0   6   54.51   15.00
   0   1   6  604.22   45.38
   1   1   6  513.32   36.52
   0   2   6 1087.28   65.21
   1   2   6  120.90    9.65
   2   2   6  168.24   16.17
   0   3   6  388.90   31.17
   1   3   6  289.13   17.08
   2   3   6  107.07    8.87
   0   4   6   -0.65   22.04
   0   0   7 3849.23  377.55
   0   1   7  184.54   20.87
   1   1   7  334.39   29.34
   0   2   7 2024.06  108.64
   1   2   7  353.56   23.08
   2   2   7  252.88   21.78
   0   3   7  139.41   15.13
   1   3   7  212.19   14.48
   0   0   8  368.43   56.99
   0   1   8  136.15   15.00
   1   1   8  192.62   21.39
   0   2   8  304.52   24.91
   1   2   8  397.51   21.39
   0   0   9  174.24   33.78
   0   1   9  176.58   18.26
   1   0   0 2278.12  165.89
   1   1   0 2770.04  191.45
   2   0   0 5820.47  384.08
   2   1   0  709.72   51.64
   2   2   0  295.78   31.69
   3   0   0  611.13   54.91
   3   1   0  480.84   31.95
   3   2   0  269.31   22.04
   3   3   0  160.54   23.47
   4   0   0 6014.14  402.20
   4   1   0  277.79   21.52
   4   2   0 1421.93   83.86
   4   3   0  301.13   23.08
   5   0   0  123.69   18.39
   5   1   0  491.54   30.65
   0   0   1 9970.42  816.80
   1   0   1 3442.85  172.41
   1   1   1 1507.48   87.90
   2   0   1  392.55   27.52
   2   1   1  658.99   30.91
   2   2   1 2284.76  122.59
   3   0   1  750.28   46.43
   3   1   1  478.11   24.00
   3   2   1  222.23   13.82
   3   3   1  167.06   15.91
   4   0   1  746.63   48.12
   4   1   1  402.72   21.13
   4   2   1  124.03    9.26
   4   3   1  396.20   21.00
   5   0   1  302.04   24.13
   5   1   1  321.74   17.87
   0   0   2  551.53   72.77
   1   0   2 1688.11   95.46
   1   1   2 5236.21  247.66
   2   0   2 1505.78   87.77
   2   1   2  546.44   26.60
   2   2   2 2794.56  142.94
   3   0   2  529.10   35.86
   3   1   2 2432.39   89.99
   3   2   2  240.10   15.52
   3   3   2 1757.62   92.07
   4   0   2  155.72   14.08
   4   1   2  288.87   17.48
   4   2   2  596.91   27.39
   4   3   2  260.57   15.78
   5   0   2  242.31   21.39
   5   1   2  753.15   32.73
   0   0   3  471.19   62.60
   1   0   3  340.13   25.82
   1   1   3   83.21   11.22
   2   0   3 3415.34  164.45
   2   1   3  875.74   37.04
   2   2   3 3587.75  176.06
   3   0   3  161.98   18.13
   3   1   3   70.95    6.26
   3   2   3  658.60   29.34
   3   3   3   -0.13   23.47
   4   0   3   83.86    9.91
   4   1   3  134.59    9.13
   4   2   3 1295.68   51.25
   4   3   3   85.94    7.69
   5   0   3   83.21   10.56
   0   0   4 4534.57  420.46
   1   0   4  335.04   28.82
   1   1   4  137.72   13.95
   2   0   4 3248.53  160.67
   2   1   4  534.84   27.39
   2   2   4  596.13   40.17
   3   0   4  151.54   15.52
   3   1   4   67.69    6.26
   3   2   4  521.40   26.08
   3   3   4   -0.52   33.39
   4   0   4 1390.76   78.64
   4   1   4  136.02   10.04
   4   2   4 1394.80   55.95
   0   0   5  366.34   55.95
   1   0   5  859.18   59.47
   1   1   5 2311.10  119.98
   2   0   5 1666.33   91.42
   2   1   5  111.11   10.43
   2   2   5  223.66   19.30
   3   0   5  435.46   34.43
   3   1   5 1344.98   54.12
   3   2   5  139.02   11.22
   3   3   5  867.92   53.99
   4   0   5  159.76   15.65
   4   1   5  445.63   23.87
   4   2   5  910.57   39.52
   0   0   6   53.99   14.74
   1   0   6  598.22   44.60
   1   1   6  508.36   35.73
   2   0   6 1076.58   64.03
   2   1   6  119.59    9.52
   2   2   6  166.67   15.91
   3   0   6  384.99   30.65
   3   1   6  286.26   16.82
   3   2   6  106.03    8.61
   4   0   6   -0.65   21.65
   0   0   7 3811.15  369.99
   1   0   7  182.71   20.34
   1   1   7  331.00   28.82
   2   0   7 2004.10  106.29
   2   1   7  350.04   22.69
   2   2   7  250.27   21.39
   3   0   7  137.98   14.87
   3   1   7  210.10   14.22
   0   0   8  364.77   55.95
   1   0   8  134.72   14.74
   1   1   8  190.67   21.00
   2   0   8  301.39   24.26
   2   1   8  393.60   21.00
   0   0   9  172.54   33.13
   1   0   9  174.89   17.87
  -1   0   0 2204.86  236.57
  -1   1   0 2809.42  272.96
  -2   0   0 5903.15  547.75
  -2   1   0  719.77   73.95
  -2   2   0  299.83   45.25
  -3   0   0  619.74   78.25
  -3   1   0  487.63   45.65
  -3   2   0  273.09   31.43
  -3   3   0  162.89   33.39
  -4   0   0 6099.56  573.44
  -4   1   0  281.70   30.65
  -4   2   0 1442.01  119.59
  -4   3   0  305.43   32.73
  -5   0   0  114.73   26.47
  -5   1   0  498.58   43.56
   0   0  -1 9904.88 1164.35
  -1   0  -1 3491.76  245.83
  -1   1  -1 1528.87  125.33
  -2   0  -1  398.03   39.26
  -2   1  -1  668.38   43.82
  -2   2  -1 2317.23  174.76
  -3   0  -1  760.98   66.25
  -3   1  -1  484.89   34.43
  -3   2  -1  225.36   19.69
  -3   3  -1  169.54   22.69
  -4   0  -1  757.20   68.60
  -4   1  -1  408.33   30.00
  -4   2  -1  125.85   13.17
  -4   3  -1  401.81   29.87
  -5   0  -1  306.35   34.56
  -5   1  -1  326.30   25.56
   0   0  -2  559.35  103.94
  -1   0  -2 1712.10  136.15
  -1   1  -2 5310.54  352.91
  -2   0  -2 1527.17  125.20
  -2   1  -2  554.14   37.82
  -2   2  -2 2834.20  203.71
  -3   0  -2  536.66   51.25
  -3   1  -2 2466.82  128.33
  -3   2  -2  243.62   22.04
  -3   3  -2 1782.53  131.07
  -4   0  -2  157.93   20.08
  -4   1  -2  293.04   24.91
  -4   2  -2  605.39   39.12
  -4   3  -2  264.22   22.56
  -5   0  -2  245.70   30.52
  -5   1  -2  763.72   46.69
   0   0  -3  477.97   89.34
  -1   0  -3  344.95   36.91
  -1   1  -3   84.38   16.04
  -2   0  -3 3463.85  234.49
  -2   1  -3  888.13   52.69
  -2   2  -3 3638.74  251.05
  -3   0  -3  164.19   25.95
  -3   1  -3   71.99    9.13
  -3   2  -3  667.99   41.73
  -3   3  -3   -0.13   33.39
  -4   0  -3   85.03   13.95
  -4   1  -3  136.42   13.04
  -4   2  -3 1314.07   73.03
  -4   3  -3   87.25   10.95
  -5   0  -3   84.51   15.26
   0   0  -4 4598.99  599.39
  -1   0  -4  339.73   40.95
  -1   1  -4  139.81   19.95
  -2   0  -4 3294.57  229.14
  -2   1  -4  542.40   39.12
  -2   2  -4  604.61   57.25
  -3   0  -4  153.76   22.04
  -3   1  -4   68.60    9.13
  -3   2  -4  528.84   37.30
  -3   3  -4   -0.52   47.47
  -4   0  -4 1410.45  111.90
  -4   1  -4  137.98   14.22
  -4   2  -4 1414.62   79.68
   0   0  -5  371.56   79.68
  -1   0  -5  871.31   84.90
  -1   1  -5 2343.97  171.37
  -2   0  -5 1690.06  130.29
  -2   1  -5  112.81   15.13
  -2   2  -5  226.92   27.52
  -3   0  -5  441.59   49.04
  -3   1  -5 1364.02   77.08
  -3   2  -5  140.98   16.04
  -3   3  -5  880.18   76.95
  -4   0  -5  162.11   22.17
  -4   1  -5  452.02   33.91
  -4   2  -5  923.48   56.47
   0   0  -6   54.77   21.00
  -1   0  -6  606.70   63.38
  -1   1  -6  515.53   50.99
  -2   0  -6 1091.84   91.29
  -2   1  -6  121.42   13.43
  -2   2  -6  169.02   22.69
  -3   0  -6  390.47   43.56
  -3   1  -6  290.44   23.87
  -3   2  -6  107.46   12.26
  -4   0  -6   -0.65   30.91
   0   0  -7 3865.14  527.66
  -1   0  -7  185.32   29.08
  -1   1  -7  335.69   40.95
  -2   0  -7 2032.53  151.80
  -2   1  -7  354.99   32.34
  -2   2  -7  253.92   30.52
  -3   0  -7  139.94   21.00
  -3   1  -7  213.10   20.34
   0   0  -8  369.86   79.68
  -1   0  -8  136.68   21.00
  -1   1  -8  193.41   29.87
  -2   0  -8  305.70   34.82
  -2   1  -8  399.20   29.87
   0   0  -9  175.02   47.34
  -1   0  -9  177.37   25.56
   0   1   0 2285.95  231.88
  -1   1   0 2781.64  267.61
   0   2   0 5844.60  536.79
  -1   2   0  712.72   72.25
  -2   2   0  296.96   44.34
   0   3   0  613.74   76.68
  -1   3   0  482.80   44.73
  -2   3   0  270.35   30.91
  -3   3   0  161.19   32.73
   0   4   0 6039.18  561.96
  -1   4   0  278.96   30.00
  -2   4   0 1427.80  117.11
  -3   4   0  302.43   32.34
   0   5   0  134.08   25.69
  -1   5   0  493.62   42.78
   0   0  -1 9909.81 1141.27
   0   1  -1 3457.20  241.01
  -1   1  -1 1513.74  122.85
   0   2  -1  394.12   38.47
  -1   2  -1  661.73   43.17
  -2   2  -1 2294.28  171.37
   0   3  -1  753.41   64.82
  -1   3  -1  480.06   33.52
  -2   3  -1  223.14   19.30
  -3   3  -1  167.85   22.17
   0   4  -1  749.76   67.03
  -1   4  -1  404.42   29.47
  -2   4  -1  124.55   13.04
  -3   4  -1  397.77   29.21
   0   5  -1  303.35   33.78
  -1   5  -1  323.04   24.91
   0   0  -2  553.88  101.72
   0   1  -2 1695.15  133.42
  -1   1  -2 5257.98  345.99
   0   2  -2 1512.04  122.72
  -1   2  -2  548.66   37.04
  -2   2  -2 2806.16  199.67
   0   3  -2  531.32   50.21
  -1   3  -2 2442.43  125.72
  -2   3  -2  241.14   21.65
  -3   3  -2 1764.92  128.72
   0   4  -2  156.37   19.69
  -1   4  -2  290.18   24.52
  -2   4  -2  599.39   38.34
  -3   4  -2  261.61   22.04
   0   5  -2  243.36   29.87
  -1   5  -2  756.15   45.65
   0   0  -3  473.15   87.51
   0   1  -3  341.56   35.99
  -1   1  -3   83.60   15.65
   0   2  -3 3429.55  229.92
  -1   2  -3  879.27   51.64
  -2   2  -3 3602.61  245.96
   0   3  -3  162.63   25.30
  -1   3  -3   71.21    8.87
  -2   3  -3  661.34   40.95
  -3   3  -3   -0.13   32.73
   0   4  -3   84.12   13.82
  -1   4  -3  135.11   12.78
  -2   4  -3 1301.03   71.73
  -3   4  -3   86.34   10.82
   0   5  -3   83.60   14.87
   0   0  -4 4553.35  587.39
   0   1  -4  336.47   40.17
  -1   1  -4  138.37   19.56
   0   2  -4 3261.97  224.58
  -1   2  -4  537.05   38.34
  -2   2  -4  598.61   56.08
   0   3  -4  152.20   21.65
  -1   3  -4   67.95    8.87
  -2   3  -4  523.49   36.52
  -3   3  -4   -0.52   46.69
   0   4  -4 1396.50  109.94
  -1   4  -4  136.55   13.95
  -2   4  -4 1400.67   77.99
   0   0  -5  367.90   77.99
   0   1  -5  862.70   83.21
  -1   1  -5 2320.75  167.85
   0   2  -5 1673.37  127.55
  -1   2  -5  111.64   14.74
  -2   2  -5  224.58   27.00
   0   3  -5  437.29   47.99
  -1   3  -5 1350.59   75.64
  -2   3  -5  139.55   15.65
  -3   3  -5  871.44   75.38
   0   4  -5  160.41   21.78
  -1   4  -5  447.46   33.39
  -2   4  -5  914.35   55.17
   0   0  -6   54.25   20.61
   0   1  -6  600.70   62.34
  -1   1  -6  510.45   50.08
   0   2  -6 1081.02   89.34
  -1   2  -6  120.11   13.43
  -2   2  -6  167.32   22.17
   0   3  -6  386.68   42.78
  -1   3  -6  287.57   23.47
  -2   3  -6  106.42   12.13
   0   4  -6   -0.65   30.39
   0   0  -7 3826.93  516.97
   0   1  -7  183.50   28.43
  -1   1  -7  332.43   40.17
   0   2  -7 2012.32  148.67
  -1   2  -7  351.47   31.69
  -2   2  -7  251.31   29.87
   0   3  -7  138.50   20.87
  -1   3  -7  211.01   19.95
   0   0  -8  366.21   77.99
   0   1  -8  135.37   20.61
  -1   1  -8  191.45   29.21
   0   2  -8  302.70   33.91
  -1   2  -8  395.29   29.21
   0   0  -9  173.19   46.30
   0   1  -9  175.67   24.91
   0  -1   0 2196.68  231.88
   1  -1   0 2812.29  267.61
   0  -2   0 5909.02  537.05
   1  -2   0  720.55   72.51
   2  -2   0  300.22   44.47
   0  -3   0  620.39   76.68
   1  -3   0  488.15   44.86
   2  -3   0  273.35   30.91
   3  -3   0  163.02   32.73
   0  -4   0 6105.56  562.09
   1  -4   0  281.96   30.00
   2  -4   0 1443.58  117.11
   3  -4   0  305.70   32.08
   0  -5   0  124.86   25.95
   1  -5   0  499.10   42.65
   0   0  -1 9914.40 1141.79
   0  -1  -1 3495.28  241.01
   1  -1  -1 1530.30  122.85
   0  -2  -1  398.55   38.47
   1  -2  -1  669.03   43.04
   2  -2  -1 2319.58  171.37
   0  -3  -1  761.76   64.82
   1  -3  -1  485.41   33.78
   2  -3  -1  225.62   19.30
   3  -3  -1  169.67   22.17
   0  -4  -1  757.98   67.03
   1  -4  -1  408.85   29.47
   2  -4  -1  125.85   12.78
   3  -4  -1  402.20   29.21
   0  -5  -1  306.74   33.91
   1  -5  -1  326.69   25.17
   0   0  -2  560.01  101.85
   0  -1  -2 1713.80  133.42
   1  -1  -2 5315.89  345.99
   0  -2  -2 1528.61  122.72
   1  -2  -2  554.79   37.04
   2  -2  -2 2837.07  199.80
   0  -3  -2  537.18   50.21
   1  -3  -2 2469.43  125.72
   2  -3  -2  243.75   21.65
   3  -3  -2 1784.35  128.72
   0  -4  -2  158.06   19.69
   1  -4  -2  293.31   24.52
   2  -4  -2  605.91   38.34
   3  -4  -2  264.48   22.04
   0  -5  -2  245.96   29.87
   1  -5  -2  764.50   45.65
   0   0  -3  478.37   87.51
   0  -1  -3  345.34   36.26
   1  -1  -3   84.51   15.65
   0  -2  -3 3467.24  229.92
   1  -2  -3  889.05   51.64
   2  -2  -3 3642.39  246.23
   0  -3  -3  164.32   25.56
   1  -3  -3   72.12    8.87
   2  -3  -3  668.64   40.95
   3  -3  -3   -0.13   32.73
   0  -4  -3   85.03   13.82
   1  -4  -3  136.55   12.52
   2  -4  -3 1315.38   71.73
   3  -4  -3   87.25   10.82
   0  -5  -3   84.51   15.13
   0   0  -4 4603.56  587.65
   0  -1  -4  340.13   40.17
   1  -1  -4  139.94   19.56
   0  -2  -4 3297.83  224.58
   1  -2  -4  542.92   38.34
   2  -2  -4  605.13   56.08
   0  -3  -4  153.89   21.65
   1  -3  -4   68.73    8.87
   2  -3  -4  529.36   36.65
   3  -3  -4   -0.52   46.69
   0  -4  -4 1411.88  109.94
   1  -4  -4  138.11   13.95
   2  -4  -4 1416.06   77.99
   0   0  -5  371.95   77.99
   0  -1  -5  872.22   83.47
   1  -1  -5 2346.19  167.98
   0  -2  -5 1691.76  127.55
   1  -2  -5  112.81   14.87
   2  -2  -5  227.05   27.00
   0  -3  -5  442.11   47.99
   1  -3  -5 1365.33   75.64
   2  -3  -5  141.11   15.65
   3  -3  -5  881.09   75.38
   0  -4  -5  162.24   21.78
   1  -4  -5  452.41   33.39
   2  -4  -5  924.39   55.30
   0   0  -6   54.77   20.61
   0  -1  -6  607.35   62.21
   1  -1  -6  515.93   50.08
   0  -2  -6 1092.89   89.34
   1  -2  -6  121.42   13.17
   2  -2  -6  169.15   22.17
   0  -3  -6  390.86   42.65
   1  -3  -6  290.70   23.21
   2  -3  -6  107.59   12.13
   0  -4  -6   -0.65   30.39
   0   0  -7 3869.05  517.23
   0  -1  -7  185.45   28.69
   1  -1  -7  336.08   40.17
   0  -2  -7 2034.49  148.80
   1  -2  -7  355.38   31.43
   2  -2  -7  254.05   29.87
   0  -3  -7  140.07   20.61
   1  -3  -7  213.23   19.95
   0   0  -8  370.25   77.99
   0  -1  -8  136.81   20.61
   1  -1  -8  193.67   29.21
   0  -2  -8  306.09   34.30
   1  -2  -8  399.59   29.21
   0   0  -9  175.15   46.30
   0  -1  -9  177.50   25.17
   1   0   0 2187.77  227.18
   1  -1   0 2784.38  262.27
   2   0   0 5850.46  526.36
   2  -1   0  713.38   70.82
   2  -2   0  297.22   43.43
   3   0   0  614.26   75.12
   3  -1   0  483.32   43.82
   3  -2   0  270.61   30.39
   3  -3   0  161.46   32.08
   4   0   0 6045.18  551.14
   4  -1   0  279.22   29.47
   4  -2   0 1429.23  114.90
   4  -3   0  302.70   31.43
   5   0   0  114.21   25.30
   5  -1   0  494.15   42.12
   0   0  -1 9919.20 1118.97
   1   0  -1 3460.59  236.31
   1  -1  -1 1515.30  120.50
   2   0  -1  394.51   37.69
   2  -1  -1  662.38   42.39
   2  -2  -1 2296.63  167.98
   3   0  -1  754.20   63.64
   3  -1  -1  480.58   33.00
   3  -2  -1  223.40   19.04
   3  -3  -1  167.98   21.78
   4   0  -1  750.54   65.86
   4  -1  -1  404.68   28.82
   4  -2  -1  124.68   12.52
   4  -3  -1  398.16   28.82
   5   0  -1  303.61   33.13
   5  -1  -1  323.43   24.52
   0   0  -2  554.40   99.77
   1   0  -2 1696.84  130.68
   1  -1  -2 5263.20  339.21
   2   0  -2 1513.48  120.11
   2  -1  -2  549.18   36.52
   2  -2  -2 2809.03  195.75
   3   0  -2  531.84   49.17
   3  -1  -2 2444.91  123.24
   3  -2  -2  241.40   21.26
   3  -3  -2 1766.62  126.24
   4   0  -2  156.50   19.30
   4  -1  -2  290.44   23.87
   4  -2  -2  600.04   37.43
   4  -3  -2  261.88   21.65
   5   0  -2  243.62   29.21
   5  -1  -2  756.93   44.86
   0   0  -3  473.67   85.81
   1   0  -3  341.95   35.34
   1  -1  -3   83.60   15.26
   2   0  -3 3432.94  225.36
   2  -1  -3  880.18   50.60
   2  -2  -3 3606.26  241.14
   3   0  -3  162.76   24.91
   3  -1  -3   71.34    8.61
   3  -2  -3  662.12   40.17
   3  -3  -3   -0.13   32.08
   4   0  -3   84.25   13.56
   4  -1  -3  135.24   12.26
   4  -2  -3 1302.33   70.16
   4  -3  -3   86.47   10.43
   5   0  -3   83.60   14.74
   0   0  -4 4557.91  575.92
   1   0  -4  336.73   39.52
   1  -1  -4  138.50   19.17
   2   0  -4 3265.23  220.27
   2  -1  -4  537.58   37.43
   2  -2  -4  599.13   54.91
   3   0  -4  152.33   21.26
   3  -1  -4   67.95    8.61
   3  -2  -4  524.14   35.73
   3  -3  -4   -0.52   45.65
   4   0  -4 1397.93  107.85
   4  -1  -4  136.68   13.82
   4  -2  -4 1401.97   76.55
   0   0  -5  368.29   76.55
   1   0  -5  863.62   81.51
   1  -1  -5 2322.97  164.45
   2   0  -5 1675.06  125.20
   2  -1  -5  111.64   14.35
   2  -2  -5  224.71   26.47
   3   0  -5  437.68   47.08
   3  -1  -5 1351.89   74.08
   3  -2  -5  139.68   15.26
   3  -3  -5  872.35   73.95
   4   0  -5  160.54   21.39
   4  -1  -5  447.98   32.73
   4  -2  -5  915.26   54.12
   0   0  -6   54.25   20.08
   1   0  -6  601.35   61.17
   1  -1  -6  510.97   49.04
   2   0  -6 1082.19   87.77
   2  -1  -6  120.24   13.04
   2  -2  -6  167.58   21.78
   3   0  -6  386.94   42.12
   3  -1  -6  287.70   23.08
   3  -2  -6  106.55   11.87
   4   0  -6   -0.65   29.60
   0   0  -7 3830.71  506.93
   1   0  -7  183.63   27.91
   1  -1  -7  332.82   39.52
   2   0  -7 2014.41  145.81
   2  -1  -7  351.86   31.04
   2  -2  -7  251.57   29.21
   3   0  -7  138.76   20.34
   3  -1  -7  211.14   19.56
   0   0  -8  366.60   76.55
   1   0  -8  135.50   20.08
   1  -1  -8  191.71   28.82
   2   0  -8  302.96   33.39
   2  -1  -8  395.68   28.82
   0   0  -9  173.45   45.25
   1   0  -9  175.80   24.52
   0  -1   0 2192.98  249.23
  -1  -1   0 2924.71  287.70
   0  -2   0 6145.34  577.35
  -1  -2   0  749.37   77.86
  -2  -2   0  312.22   47.73
   0  -3   0  645.30   82.55
  -1  -3   0  507.71   48.25
  -2  -3   0  284.31   33.13
  -3  -3   0  169.54   35.21
   0  -4   0 6349.83  604.61
  -1  -4   0  293.31   32.34
  -2  -4   0 1501.22  125.98
  -3  -4   0  317.95   34.56
   0  -5   0  137.86   27.78
  -1  -5   0  519.06   46.04
   0   0  -1 9999.00 1227.74
   0  -1  -1 3635.09  259.27
  -1  -1  -1 1591.60  132.24
   0  -2  -1  414.46   41.34
  -1  -2  -1  695.77   46.30
  -2  -2  -1 2412.31  184.15
   0  -3  -1  792.15   69.77
  -1  -3  -1  504.71   36.26
  -2  -3  -1  234.62   20.87
  -3  -3  -1  176.45   23.87
   0  -4  -1  788.37   72.25
  -1  -4  -1  425.16   31.69
  -2  -4  -1  130.94   13.82
  -3  -4  -1  418.24   31.43
   0  -5  -1  319.00   36.52
  -1  -5  -1  339.73   27.00
   0   0  -2  582.31  109.55
   0  -1  -2 1782.40  143.46
  -1  -1  -2 5528.47  372.08
   0  -2  -2 1589.77  131.85
  -1  -2  -2  576.96   39.91
  -2  -2  -2 2950.53  214.93
   0  -3  -2  558.57   53.99
  -1  -3  -2 2568.15  135.24
  -2  -3  -2  253.53   23.21
  -3  -3  -2 1855.69  138.37
   0  -4  -2  164.32   21.26
  -1  -4  -2  305.04   26.47
  -2  -4  -2  630.17   41.21
  -3  -4  -2  275.18   23.61
   0  -5  -2  255.88   32.08
  -1  -5  -2  795.15   49.17
   0   0  -3  497.54   94.03
   0  -1  -3  359.17   38.86
  -1  -1  -3   87.90   16.95
   0  -2  -3 3606.00  247.14
  -1  -2  -3  924.65   55.56
  -2  -2  -3 3788.06  264.61
   0  -3  -3  170.98   27.39
  -1  -3  -3   74.99    9.52
  -2  -3  -3  695.38   44.08
  -3  -3  -3   -0.13   35.21
   0  -4  -3   88.42   14.87
  -1  -4  -3  142.02   13.56
  -2  -4  -3 1368.06   76.95
  -3  -4  -3   90.77   11.48
   0  -5  -3   87.90   16.04
   0   0  -4 4787.57  631.87
   0  -1  -4  353.69   43.17
  -1  -1  -4  145.41   21.00
   0  -2  -4 3429.81  241.40
  -1  -2  -4  564.70   41.21
  -2  -2  -4  629.39   60.38
   0  -3  -4  160.02   23.21
  -1  -3  -4   71.47    9.52
  -2  -3  -4  550.49   39.26
  -3  -3  -4   -0.52   50.21
   0  -4  -4 1468.35  118.16
  -1  -4  -4  143.59   15.13
  -2  -4  -4 1472.66   83.99
   0   0  -5  386.81   83.99
   0  -1  -5  907.17   89.60
  -1  -1  -5 2440.08  180.50
   0  -2  -5 1759.44  137.33
  -1  -2  -5  117.37   15.78
  -2  -2  -5  236.18   29.08
   0  -3  -5  459.85   51.64
  -1  -3  -5 1419.97   81.38
  -2  -3  -5  146.72   16.95
  -3  -3  -5  916.30   80.99
   0  -4  -5  168.76   23.47
  -1  -4  -5  470.54   35.73
  -2  -4  -5  961.43   59.47
   0   0  -6   56.99   22.04
   0  -1  -6  631.74   66.90
  -1  -1  -6  536.66   53.60
   0  -2  -6 1136.58   96.12
  -1  -2  -6  126.37   14.22
  -2  -2  -6  175.93   23.87
   0  -3  -6  406.51   46.04
  -1  -3  -6  302.30   25.17
  -2  -3  -6  111.90   13.04
   0  -4  -6   -0.65   32.60
   0   0  -7 4023.86  556.09
   0  -1  -7  192.89   30.65
  -1  -1  -7  349.52   43.17
   0  -2  -7 2115.87  160.02
  -1  -2  -7  369.60   33.91
  -2  -2  -7  264.35   32.08
   0  -3  -7  145.67   22.17
  -1  -3  -7  221.84   21.39
   0   0  -8  385.12   83.99
   0  -1  -8  142.28   22.04
  -1  -1  -8  201.36   31.43
   0  -2  -8  318.22   36.65
  -1  -2  -8  415.51   31.43
   0   0  -9  182.19   49.69
   0  -1  -9  184.67   27.00
  -1   0   0 2196.41  244.40
  -1  -1   0 2895.76  281.96
  -2   0   0 6084.56  565.88
  -2  -1   0  741.94   76.16
  -2  -2   0  309.09   46.69
  -3   0   0  638.91   80.86
  -3  -1   0  502.62   47.08
  -3  -2   0  281.44   32.60
  -3  -3   0  167.85   34.56
  -4   0   0 6286.97  592.48
  -4  -1   0  290.44   31.69
  -4  -2   0 1486.35  123.50
  -4  -3   0  314.82   33.91
  -5   0   0  144.08   27.13
  -5  -1   0  513.84   45.12
   0   0  -1 9900.01 1203.09
  -1   0  -1 3599.09  254.05
  -1  -1  -1 1575.82  129.50
  -2   0  -1  410.29   40.56
  -2  -1  -1  688.86   45.52
  -2  -2  -1 2388.44  180.50
  -3   0  -1  784.45   68.34
  -3  -1  -1  499.75   35.34
  -3  -2  -1  232.27   20.34
  -3  -3  -1  174.76   23.47
  -4   0  -1  780.54   70.82
  -4  -1  -1  420.98   31.04
  -4  -2  -1  129.63   13.56
  -4  -3  -1  414.07   30.91
  -5   0  -1  315.74   35.60
  -5  -1  -1  336.34   26.47
   0   0  -2  576.57  107.20
  -1   0  -2 1764.79  140.59
  -1  -1  -2 5473.82  364.64
  -2   0  -2 1573.99  129.24
  -2  -1  -2  571.22   39.12
  -2  -2  -2 2921.32  210.62
  -3   0  -2  553.09   52.95
  -3  -1  -2 2542.72  132.63
  -3  -2  -2  251.05   22.95
  -3  -3  -2 1837.30  135.63
  -4   0  -2  162.76   20.87
  -4  -1  -2  302.04   25.69
  -4  -2  -2  624.04   40.43
  -4  -3  -2  272.44   23.21
  -5   0  -2  253.27   31.43
  -5  -1  -2  787.32   48.25
   0   0  -3  492.58   92.20
  -1   0  -3  355.51   38.21
  -1  -1  -3   86.99   16.43
  -2   0  -3 3570.27  242.31
  -2  -1  -3  915.39   54.51
  -2  -2  -3 3750.51  259.40
  -3   0  -3  169.28   26.87
  -3  -1  -3   74.21    9.26
  -3  -2  -3  688.47   43.17
  -3  -3  -3   -0.13   34.56
  -4   0  -3   87.64   14.74
  -4  -1  -3  140.72   13.43
  -4  -2  -3 1354.37   75.64
  -4  -3  -3   89.86   11.35
  -5   0  -3   86.99   15.65
   0   0  -4 4740.23  619.48
  -1   0  -4  350.17   42.39
  -1  -1  -4  143.98   20.61
  -2   0  -4 3395.90  236.71
  -2  -1  -4  559.09   40.43
  -2  -2  -4  623.13   59.08
  -3   0  -4  158.46   22.95
  -3  -1  -4   70.69    9.26
  -3  -2  -4  545.01   38.47
  -3  -3  -4   -0.52   49.17
  -4   0  -4 1453.75  115.81
  -4  -1  -4  142.15   14.87
  -4  -2  -4 1458.05   82.29
   0   0  -5  383.03   82.29
  -1   0  -5  898.18   87.77
  -1  -1  -5 2415.96  176.71
  -2   0  -5 1741.97  134.59
  -2  -1  -5  116.20   15.39
  -2  -2  -5  233.84   28.43
  -3   0  -5  455.28   50.60
  -3  -1  -5 1406.02   79.68
  -3  -2  -5  145.28   16.43
  -3  -3  -5  907.17   79.55
  -4   0  -5  167.06   23.08
  -4  -1  -5  465.85   35.21
  -4  -2  -5  951.91   58.30
   0   0  -6   56.47   21.65
  -1   0  -6  625.35   65.73
  -1  -1  -6  531.32   52.69
  -2   0  -6 1125.36   94.29
  -2  -1  -6  125.07   13.95
  -2  -2  -6  174.24   23.47
  -3   0  -6  402.46   45.12
  -3  -1  -6  299.30   24.78
  -3  -2  -6  110.85   12.78
  -4   0  -6   -0.65   31.82
   0   0  -7 3983.95  545.14
  -1   0  -7  191.06   30.00
  -1  -1  -7  345.99   42.39
  -2   0  -7 2095.00  156.63
  -2  -1  -7  365.95   33.39
  -2  -2  -7  261.61   31.43
  -3   0  -7  144.24   21.78
  -3  -1  -7  219.62   21.00
   0   0  -8  381.21   82.29
  -1   0  -8  140.85   21.65
  -1  -1  -8  199.41   30.91
  -2   0  -8  315.09   35.73
  -2  -1  -8  411.46   30.91
   0   0  -9  180.37   48.78
  -1   0  -9  182.84   26.47
_computing_structure_solution     'SHELXT 2014/4 (Sheldrick, 2014)'
;
_shelx_hkl_checksum              91668
_shelx_res_file
;
    5_a.res created by SHELXL-2014/7
TITL li3bc in P-4                     P-4m2
CELL  0.71073    4.1389    4.1389    7.1055    90.000    90.000    90.000
ZERR 1           0.0004    0.0004    0.0011     0.000     0.000     0.000
LATT  -1
SYMM               Y ,            - X ,            - Z
SYMM             - X ,            - Y ,              Z
SYMM             - Y ,              X ,            - Z
SYMM             - X ,              Y ,              Z
SYMM               Y ,              X ,            - Z
SYMM               X ,            - Y ,              Z
SYMM             - Y ,            - X ,            - Z
SFAC  C   2.31000  20.84392   1.02000  10.20751   1.58860   0.56870   0.86500 =
         51.65125   0.21560   0.00330   0.00160    11.500   0.68000  12.01000
SFAC  B   2.05450  23.21852   1.33260   1.02100   1.09790  60.34987   0.70680 =
          0.14030  -0.19320   0.00130   0.00070     6.610   0.83000  10.81000
SFAC Li   1.12820   3.95460   0.75080   1.05240   0.61750  85.39058   0.46530 =
        168.26120   0.03770  -0.00030   0.00010     2.280   0.68000   6.94000
UNIT     2    4   4
L.S. 5
ACTA
BOND
WGHT    0.009100    0.012400
FVAR       6.25761
C1    1    0.000000    0.500000    0.218421    10.25000    0.00486    0.00537 =
         0.00763    0.00000    0.00000    0.00000
B2    2   10.242427   10.500000    0.050060    10.50000    0.00530    0.00542 =
         0.00692    0.00000   -0.00031    0.00000
LI3   3    0.000000    0.000000    0.500000    10.12500    0.00381    0.00381 =
         0.00591    0.00000    0.00000    0.00000
LI4   3    0.500000    0.500000    0.500000    10.12500    0.00343    0.00343 =
         0.00483    0.00000    0.00000    0.00000
LI5   3    0.500000    0.000000    0.211271    10.25000    0.00716    0.00639 =
         0.00710    0.00000    0.00000    0.00000
hklf 4
REM  li3bc in P-4                     P-4m2
REM R1 =  0.0172 for     178 Fo > 4sig(Fo)  and  0.0236 for all     182 data
REM     18 parameters refined using      0 restraints
END
WGHT      0.0086      0.0119
REM Highest difference peak  0.215,  deepest hole -0.191,  1-sigma level  0.048
Q1    1   0.1677  0.5000  0.4943  10.50000  0.05    0.21
Q2    1   0.5000  0.0000  0.3520  10.25000  0.05    0.19
Q3    1   0.3292  0.5000  0.3395  10.50000  0.05    0.15
Q4    1   0.5000  0.5000  0.1733  10.25000  0.05    0.15
Q5    1   0.1714  0.1714  0.5000  10.50000  0.05    0.14
Q6    1   0.3345  0.3345  0.5000  10.50000  0.05    0.13
Q7    1   0.3393  0.0000  0.4988  10.50000  0.05    0.13
Q8    1   0.0000  0.5000  0.3433  10.25000  0.05    0.12
Q9    1   0.3320  0.1787  0.3550  11.00000  0.05    0.12
Q10   1   0.5000  0.3340  0.3621  10.50000  0.05    0.11
Q11   1   0.1723  0.1604  0.2139  11.00000  0.05    0.11
Q12   1   0.1698  0.3253  0.3525  11.00000  0.05    0.11
Q13   1   0.1795  0.0000  0.3481  10.50000  0.05    0.10
Q14   1   0.1768  0.5000  0.1750  10.50000  0.05    0.09
Q15   1   0.2357  0.6886 -0.0025  11.00000  0.05    0.09
Q16   1   0.3462  0.3663  0.2312  11.00000  0.05    0.09
Q17   1   0.0000  0.3378  0.2226  10.50000  0.05    0.09
Q18   1   0.0000  0.5000 -0.0202  10.25000  0.05    0.08
Q19   1   0.5000  0.2009  0.1763  10.50000  0.05    0.07
Q20   1   0.3248  0.0000  0.1813  10.50000  0.05    0.07
;
_shelx_res_checksum              11528
#END Tags that were not found in dictionaries
loop_
_space_group_symop_operation_xyz
'x, y, z'
'y, -x, -z'
'-x, -y, z'
'-y, x, -z'
'-x, y, z'
'y, x, -z'
'x, -y, z'
'-y, -x, -z'
loop_
_atom_site_type_symbol
_atom_site_label
_atom_site_fract_x
_atom_site_fract_y
_atom_site_fract_z
_atom_site_U_iso_or_equiv
_atom_site_adp_type
_atom_site_calc_flag
_atom_site_occupancy
C C1 0.0000 0.5000 0.2184(2) 0.0060(4) Uani d 1
B B2 0.2424 0.5000 0.0501(2) 0.0059(3) Uani d 1
Li Li3 0.0000 0.0000 0.5000 0.0045(9) Uani d 1
Li Li4 0.5000 0.5000 0.5000 0.0039(8) Uani d 1
Li Li5 0.5000 0.0000 0.2113(4) 0.0069(6) Uani d 1
loop_
_atom_site_aniso_label
_atom_site_aniso_U_11
_atom_site_aniso_U_22
_atom_site_aniso_U_33
_atom_site_aniso_U_12
_atom_site_aniso_U_13
_atom_site_aniso_U_23
C1 0.0049(11) 0.0054(11) 0.0076(8) 0.000 0.000 0.000
B2 0.0053(7) 0.0054(6) 0.0069(6) 0.000 -0.0003(5) 0.000
Li3 0.0038(11) 0.0038(11) 0.0059(19) 0.000 0.000 0.000
Li4 0.0034(11) 0.0034(11) 0.0048(19) 0.000 0.000 0.000
Li5 0.0072(19) 0.0064(19) 0.0071(14) 0.000 0.000 0.000
loop_
_atom_type_symbol
_atom_type_description
_atom_type_scat_dispersion_real
_atom_type_scat_dispersion_imag
_atom_type_scat_source
C C 0.0033 0.0016 'International Tables Vol C Tables 4.2.6.8 and 6.1.1.4'
B B 0.0013 0.0007 'International Tables Vol C Tables 4.2.6.8 and 6.1.1.4'
Li Li -0.0003 0.0001 'International Tables Vol C Tables 4.2.6.8 and 6.1.1.4'
loop_
_geom_angle_atom_site_label_1
_geom_angle_atom_site_label_2
_geom_angle_atom_site_label_3
_geom_angle_site_symmetry_1
_geom_angle_site_symmetry_3
_geom_angle
B2 C1 B2 . 3_565 79.98(10)
C1 B2 B2 . 2_565 137.55(8)
C1 B2 B2 . 4_655 137.55(8)
B2 B2 B2 2_565 4_655 79.51(7)
C1 B2 B2 . 3_565 50.01(5)
B2 B2 B2 2_565 3_565 129.75(4)
B2 B2 B2 4_655 3_565 129.75(4)
C1 B2 B2 . 3_665 129.99(5)
B2 B2 B2 2_565 3_665 50.25(4)
B2 B2 B2 4_655 3_665 50.25(4)
B2 B2 B2 3_565 3_665 180.0
loop_
_geom_bond_atom_site_label_1
_geom_bond_atom_site_label_2
_geom_bond_site_symmetry_2
_geom_bond_distance
C1 B2 . 1.5614(17)
C1 B2 3_565 1.5614(17)
B2 B2 2_565 1.6671(13)
B2 B2 4_655 1.6671(13)
B2 B2 3_565 2.00675(19)
B2 B2 3_665 2.1322(2)
