#------------------------------------------------------------------------------
#$Date: 2016-02-20 00:18:51 +0200 (Sat, 20 Feb 2016) $
#$Revision: 176760 $
#$URL: svn://www.crystallography.net/cod/cif/2/01/95/2019528.cif $
#------------------------------------------------------------------------------
#
# This file is available in the Crystallography Open Database (COD),
# http://www.crystallography.net/. The original data for this entry
# were provided by IUCr Journals, http://journals.iucr.org/.
#
# The file may be used within the scientific community so long as
# proper attribution is given to the journal article from which the
# data were obtained.
#
data_2019528
loop_
_publ_author_name
'Jouffret, Laurent'
'Lhoste, Jerome'
'Hemon-Ribaud, Annie'
'Leblanc, Marc'
'Maisonneuve, Vincent'
_publ_section_title
;
 (H~3~O)~2~NaAl~3~F~12~, isostructural with <i>A</i>~2~NaAl~3~F~12~
 (<i>A</i> = K^+^, Rb^+^, Cs^+^) fluorides having HTB-type sheets
;
_journal_coeditor_code           EG3155
_journal_issue                   5
_journal_name_full               'Acta Crystallographica Section C'
_journal_page_first              512
_journal_page_last               516
_journal_paper_doi               10.1107/S205322961400919X
_journal_volume                  70
_journal_year                    2014
_chemical_formula_iupac          '(H3 O)2 Na Al3 F12'
_chemical_formula_sum            'Al3 F12 H6 Na O2'
_chemical_formula_weight         369.98
_chemical_name_common
;
Dihydronium sodium trialuminum(III) dodecafluoride
;
_chemical_name_systematic
;
Dihydronium sodium tris(tetrafluoroaluminate)
;
_space_group_IT_number           11
_symmetry_cell_setting           monoclinic
_symmetry_space_group_name_Hall  '-P 2yb'
_symmetry_space_group_name_H-M   'P 1 21/m 1'
_atom_sites_solution_hydrogens   geom
_atom_sites_solution_primary     direct
_atom_sites_solution_secondary   difmap
_audit_creation_method           SHELXL-97
_cell_angle_alpha                90.00
_cell_angle_beta                 91.3930(10)
_cell_angle_gamma                90.00
_cell_formula_units_Z            2
_cell_length_a                   7.0869(2)
_cell_length_b                   6.9749(2)
_cell_length_c                   9.8196(3)
_cell_measurement_temperature    120
_cell_volume                     485.24(2)
_computing_cell_refinement       'SAINT-Plus (Bruker, 2013)'
_computing_data_collection       'APEX2 (Bruker, 2013)'
_computing_data_reduction        'SAINT-Plus (Bruker, 2013)'
_computing_molecular_graphics    'DIAMOND (Brandenburg, 2012)'
_computing_publication_material  'WinGX (Farrugia, 2012)'
_computing_structure_refinement
'SHELXL97 (Sheldrick, 2008) in WinGX (Farrugia, 2012)'
_computing_structure_solution
'SHELXS86 (Sheldrick, 2008) in WinGX (Farrugia, 2012)'
_diffrn_ambient_temperature      120
_diffrn_detector_area_resol_mean 10.0
_diffrn_measured_fraction_theta_full 0.997
_diffrn_measured_fraction_theta_max 0.997
_diffrn_measurement_device       'four-cycle diffractometer'
_diffrn_measurement_device_type  'Bruker Kappa APEXII CCD'
_diffrn_measurement_method       '\w and \f scans'
_diffrn_radiation_monochromator  graphite
_diffrn_radiation_source         'fine-focus sealed tube'
_diffrn_radiation_type           MoK\a
_diffrn_radiation_wavelength     0.71073
_diffrn_reflns_av_R_equivalents  0.0259
_diffrn_reflns_av_sigmaI/netI    0.0116
_diffrn_reflns_limit_h_max       10
_diffrn_reflns_limit_h_min       -10
_diffrn_reflns_limit_k_max       9
_diffrn_reflns_limit_k_min       -9
_diffrn_reflns_limit_l_max       13
_diffrn_reflns_limit_l_min       -14
_diffrn_reflns_number            15274
_diffrn_reflns_theta_full        30.56
_diffrn_reflns_theta_max         30.56
_diffrn_reflns_theta_min         2.07
_exptl_absorpt_coefficient_mu    0.614
_exptl_absorpt_correction_T_max  0.9146
_exptl_absorpt_correction_T_min  0.7431
_exptl_absorpt_correction_type   multi-scan
_exptl_absorpt_process_details   '(SHELX76; Sheldrick, 2008)'
_exptl_crystal_colour            colourless
_exptl_crystal_density_diffrn    2.532
_exptl_crystal_density_method    'not measured'
_exptl_crystal_description       platelet
_exptl_crystal_F_000             360
_exptl_crystal_size_max          0.51
_exptl_crystal_size_mid          0.34
_exptl_crystal_size_min          0.15
_refine_diff_density_max         0.389
_refine_diff_density_min         -1.037
_refine_ls_extinction_method     none
_refine_ls_goodness_of_fit_ref   1.106
_refine_ls_hydrogen_treatment    refall
_refine_ls_matrix_type           full
_refine_ls_number_parameters     114
_refine_ls_number_reflns         1596
_refine_ls_number_restraints     10
_refine_ls_restrained_S_all      1.106
_refine_ls_R_factor_all          0.0284
_refine_ls_R_factor_gt           0.0281
_refine_ls_shift/su_max          0.000
_refine_ls_shift/su_mean         0.000
_refine_ls_structure_factor_coef Fsqd
_refine_ls_weighting_details
'calc w=1/[\s^2^(Fo^2^)+(0.0465P)^2^+0.5543P] where P=(Fo^2^+2Fc^2^)/3'
_refine_ls_weighting_scheme      calc
_refine_ls_wR_factor_gt          0.0831
_refine_ls_wR_factor_ref         0.0835
_reflns_number_gt                1570
_reflns_number_total             1596
_reflns_threshold_expression     I>2sigma(I)
_iucr_refine_instructions_details
;
TITL Al3F12NaO2H6 in P2(1)/m
CELL 0.71073   7.0869   6.9749   9.8196  90.000  91.393  90.000
ZERR    2.00   0.0002   0.0002   0.0003   0.000   0.001   0.000
LATT  1
SYMM -X, 0.5+Y, -Z
SFAC O H F AL Na
UNIT 4 12 24 6 2
TEMP -100.000
SIZE 0.148 0.345 0.514
ACTA
OMIT -3 2 1
L.S. 10
FMAP 2
PLAN 6
HTAB
DFIX 1.02 O1 H1
DFIX 1.02 O1 H2
DFIX 1.02 O1 H3
DFIX 1.02 O2 H4
DFIX 1.02 O2 H5
DFIX 1.02 O2 H6
DFIX 1.72 H1 H2
DFIX 1.72 H1 H3
DFIX 1.72 H2 H3
DFIX -1.72 H4 H5
DFIX -1.72 H5 H6
DFIX -1.72 H4 H6
BOND $H
WGHT    0.046500    0.554300
FVAR       0.24679   0.02458
AL1   4    0.500000    0.000000    0.500000    10.50000    0.00495    0.00246 =
         0.00356    0.00019   -0.00103    0.00017
AL2   4    0.000000    0.500000    0.000000    10.50000    0.00469    0.00255 =
         0.00340    0.00027   -0.00093   -0.00001
AL3   4    0.206228    0.250000    0.273953    10.50000    0.00446    0.00360 =
         0.00369    0.00000   -0.00152    0.00000
F1    3    0.575690    0.250000    0.508198    10.50000    0.00947    0.00286 =
         0.01363    0.00000   -0.00398    0.00000
F2    3   -0.009791    0.250000    0.361249    10.50000    0.00603    0.01832 =
         0.00890    0.00000    0.00041    0.00000
F3    3   -0.016484    0.750000    0.055393    10.50000    0.01202    0.00316 =
         0.00594    0.00000   -0.00068    0.00000
F4    3    0.410088    0.250000    0.179815    10.50000    0.00865    0.01673 =
         0.00791    0.00000    0.00114    0.00000
F5    3    0.362664    0.030808    0.644951    11.00000    0.01118    0.01080 =
         0.00670    0.00095    0.00234    0.00284
F6    3    0.296293    0.064822    0.390408    11.00000    0.00832    0.00550 =
         0.00773    0.00175   -0.00402    0.00011
F7    3   -0.225123    0.456341    0.064337    11.00000    0.00796    0.00746 =
         0.01503    0.00107    0.00337   -0.00021
F8    3    0.105679    0.440613    0.165696    11.00000    0.01591    0.00600 =
         0.00660    0.00067   -0.00582    0.00205
O1    1    0.029486    0.250000    0.636028    10.50000    0.02114    0.02605 =
         0.01773    0.00000    0.00161    0.00000
H1    2   -0.004716    0.250000    0.535363    10.50000   21.00000
H2    2    0.135577    0.161747    0.666237    10.50000   21.00000
H3    2   -0.036789    0.340258    0.698082    10.50000   21.00000
O2    1    0.492745    0.250000    0.886515    10.50000    0.02543    0.02512 =
         0.02103    0.00000   -0.00366    0.00000
H4    2    0.393402    0.151779    0.919471    10.50000   21.00000
H5    2    0.614149    0.250000    0.944234    10.50000   21.00000
H6    2    0.497257    0.317640    0.793729    10.50000   21.00000
NA1   5    0.713516    0.250000    0.241926    10.50000    0.00478    0.00562 =
         0.00565    0.00000   -0.00004    0.00000
HKLF 4 1 1 0 0 0 1 0 0 0 1
REM  Al3F12NaO2H6 in P2(1)/m
REM R1 =  0.0281 for   1570 Fo > 4sig(Fo)  and  0.0284 for all   1596 data
REM    114 parameters refined using     10 restraints
END
;
_cod_data_source_file            eg3155sup1.cf
_cod_data_source_block           I
_cod_original_sg_symbol_H-M      'P 21/m'
_cod_database_code               2019528
_cod_database_fobs_code          2019528
loop_
_symmetry_equiv_pos_as_xyz
'x, y, z'
'-x, y+1/2, -z'
'-x, -y, -z'
'x, -y-1/2, z'
loop_
_atom_site_type_symbol
_atom_site_label
_atom_site_fract_x
_atom_site_fract_y
_atom_site_fract_z
_atom_site_U_iso_or_equiv
_atom_site_adp_type
_atom_site_calc_flag
_atom_site_refinement_flags
_atom_site_occupancy
_atom_site_symmetry_multiplicity
Al Al1 0.5000 0.0000 0.5000 0.00368(13) Uani d S 1 2
Al Al2 0.0000 0.5000 0.0000 0.00356(13) Uani d S 1 2
Al Al3 0.20623(7) 0.2500 0.27395(5) 0.00394(13) Uani d S 1 2
F F1 0.57569(16) 0.2500 0.50820(12) 0.0087(2) Uani d S 1 2
F F2 -0.00979(16) 0.2500 0.36125(12) 0.0111(2) Uani d S 1 2
F F3 -0.01648(16) 0.7500 0.05539(11) 0.0071(2) Uani d S 1 2
F F4 0.41009(17) 0.2500 0.17982(12) 0.0111(2) Uani d S 1 2
F F5 0.36266(12) 0.03081(13) 0.64495(8) 0.00953(17) Uani d . 1 1
F F6 0.29629(11) 0.06482(11) 0.39041(8) 0.00725(16) Uani d . 1 1
F F7 -0.22512(11) 0.45634(12) 0.06434(9) 0.01010(17) Uani d . 1 1
F F8 0.10568(12) 0.44061(12) 0.16570(8) 0.00960(17) Uani d . 1 1
O O1 0.0295(3) 0.2500 0.63603(18) 0.0216(4) Uani d SD 1 2
H H1 -0.005(4) 0.2500 0.5354(17) 0.025(4) Uiso d SD 1 2
H H2 0.136(5) 0.162(5) 0.666(3) 0.025(4) Uiso d PD 0.50 1
H H3 -0.037(5) 0.340(5) 0.698(3) 0.025(4) Uiso d PD 0.50 1
O O2 0.4927(3) 0.2500 0.8865(2) 0.0239(4) Uani d SD 1 2
H H4 0.393(4) 0.152(6) 0.919(4) 0.025(4) Uiso d PD 0.50 1
H H5 0.614(3) 0.2500 0.944(3) 0.025(4) Uiso d SD 1 2
H H6 0.497(6) 0.318(6) 0.794(3) 0.025(4) Uiso d PD 0.50 1
Na Na1 0.71352(11) 0.2500 0.24193(8) 0.00535(15) Uani d S 1 2
loop_
_atom_site_aniso_label
_atom_site_aniso_U_11
_atom_site_aniso_U_22
_atom_site_aniso_U_33
_atom_site_aniso_U_12
_atom_site_aniso_U_13
_atom_site_aniso_U_23
Al1 0.0049(2) 0.0025(3) 0.0036(2) 0.00017(16) -0.00103(17) 0.00019(16)
Al2 0.0047(2) 0.0025(3) 0.0034(2) -0.00001(16) -0.00093(17) 0.00027(16)
Al3 0.0045(2) 0.0036(2) 0.0037(2) 0 -0.00152(18) 0
F1 0.0095(5) 0.0029(5) 0.0136(5) 0 -0.0040(4) 0
F2 0.0060(5) 0.0183(6) 0.0089(5) 0 0.0004(4) 0
F3 0.0120(5) 0.0032(5) 0.0059(5) 0 -0.0007(4) 0
F4 0.0087(5) 0.0167(6) 0.0079(5) 0 0.0011(4) 0
F5 0.0112(4) 0.0108(4) 0.0067(3) 0.0028(3) 0.0023(3) 0.0010(3)
F6 0.0083(3) 0.0055(3) 0.0077(3) 0.0001(3) -0.0040(3) 0.0018(3)
F7 0.0080(4) 0.0075(4) 0.0150(4) -0.0002(3) 0.0034(3) 0.0011(3)
F8 0.0159(4) 0.0060(4) 0.0066(3) 0.0021(3) -0.0058(3) 0.0007(3)
O1 0.0211(8) 0.0261(9) 0.0177(8) 0 0.0016(6) 0
O2 0.0254(9) 0.0251(9) 0.0210(8) 0 -0.0037(7) 0
Na1 0.0048(3) 0.0056(3) 0.0057(3) 0 0.0000(2) 0
loop_
_atom_type_symbol
_atom_type_description
_atom_type_scat_dispersion_real
_atom_type_scat_dispersion_imag
_atom_type_scat_source
O O 0.0106 0.0060 'International Tables Vol C Tables 4.2.6.8 and 6.1.1.4'
H H 0.0000 0.0000 'International Tables Vol C Tables 4.2.6.8 and 6.1.1.4'
F F 0.0171 0.0103 'International Tables Vol C Tables 4.2.6.8 and 6.1.1.4'
Al Al 0.0645 0.0514 'International Tables Vol C Tables 4.2.6.8 and 6.1.1.4'
Na Na 0.0362 0.0249 'International Tables Vol C Tables 4.2.6.8 and 6.1.1.4'
loop_
_geom_angle_atom_site_label_1
_geom_angle_atom_site_label_2
_geom_angle_atom_site_label_3
_geom_angle_site_symmetry_1
_geom_angle_site_symmetry_3
_geom_angle
F5 Al1 F5 . 3_656 180.0
F5 Al1 F1 . 3_656 89.12(5)
F5 Al1 F1 3_656 3_656 90.88(5)
F5 Al1 F1 . . 90.88(5)
F5 Al1 F1 3_656 . 89.12(5)
F1 Al1 F1 3_656 . 180.0
F5 Al1 F6 . 3_656 89.91(4)
F5 Al1 F6 3_656 3_656 90.09(4)
F1 Al1 F6 3_656 3_656 90.95(4)
F1 Al1 F6 . 3_656 89.05(4)
F5 Al1 F6 . . 90.09(4)
F5 Al1 F6 3_656 . 89.91(4)
F1 Al1 F6 3_656 . 89.05(4)
F1 Al1 F6 . . 90.95(4)
F6 Al1 F6 3_656 . 180.0
F5 Al1 Na1 . . 142.52(3)
F5 Al1 Na1 3_656 . 37.48(3)
F1 Al1 Na1 3_656 . 125.67(4)
F1 Al1 Na1 . . 54.33(4)
F6 Al1 Na1 3_656 . 101.66(3)
F6 Al1 Na1 . . 78.34(3)
F5 Al1 Na1 . 3_656 37.48(3)
F5 Al1 Na1 3_656 3_656 142.52(3)
F1 Al1 Na1 3_656 3_656 54.33(4)
F1 Al1 Na1 . 3_656 125.67(4)
F6 Al1 Na1 3_656 3_656 78.34(3)
F6 Al1 Na1 . 3_656 101.66(3)
Na1 Al1 Na1 . 3_656 180.0
F7 Al2 F7 . 3_565 180.00(6)
F7 Al2 F8 . 3_565 90.19(4)
F7 Al2 F8 3_565 3_565 89.81(4)
F7 Al2 F8 . . 89.81(4)
F7 Al2 F8 3_565 . 90.19(4)
F8 Al2 F8 3_565 . 180.00(5)
F7 Al2 F3 . 3_565 90.39(5)
F7 Al2 F3 3_565 3_565 89.61(5)
F8 Al2 F3 3_565 3_565 88.80(4)
F8 Al2 F3 . 3_565 91.20(4)
F7 Al2 F3 . . 89.61(5)
F7 Al2 F3 3_565 . 90.39(5)
F8 Al2 F3 3_565 . 91.20(4)
F8 Al2 F3 . . 88.80(4)
F3 Al2 F3 3_565 . 180.00(7)
F4 Al3 F2 . . 176.71(6)
F4 Al3 F6 . 4_565 92.90(4)
F2 Al3 F6 . 4_565 89.43(4)
F4 Al3 F6 . . 92.90(4)
F2 Al3 F6 . . 89.43(4)
F6 Al3 F6 4_565 . 89.81(5)
F4 Al3 F8 . 4_565 90.46(4)
F2 Al3 F8 . 4_565 87.27(4)
F6 Al3 F8 4_565 4_565 176.34(5)
F6 Al3 F8 . 4_565 88.58(4)
F4 Al3 F8 . . 90.46(4)
F2 Al3 F8 . . 87.27(4)
F6 Al3 F8 4_565 . 88.58(4)
F6 Al3 F8 . . 176.34(5)
F8 Al3 F8 4_565 . 92.83(5)
F4 Al3 Na1 . 1_455 142.64(5)
F2 Al3 Na1 . 1_455 34.07(4)
F6 Al3 Na1 4_565 1_455 112.86(3)
F6 Al3 Na1 . 1_455 112.86(3)
F8 Al3 Na1 4_565 1_455 64.87(3)
F8 Al3 Na1 . 1_455 64.87(3)
Al1 F1 Al1 . 2_656 145.56(7)
Al1 F1 Na1 . . 93.86(4)
Al1 F1 Na1 2_656 . 93.86(4)
Al3 F2 Na1 . 1_455 119.87(6)
Al2 F3 Al2 . 2 144.44(7)
Al3 F4 Na1 . . 131.86(7)
Al1 F5 Na1 . 3_656 115.10(5)
Al3 F6 Al1 . . 142.89(5)
Al2 F7 Na1 . 1_455 124.65(5)
Al2 F8 Al3 . . 145.81(5)
H1 O1 H2 . . 116.5(19)
H1 O1 H3 . . 119.3(19)
H2 O1 H3 . . 124(2)
H4 O2 H5 . . 113(2)
H4 O2 H6 . . 128(3)
H5 O2 H6 . . 117(3)
F4 Na1 F2 . 1_655 164.71(6)
F4 Na1 F7 . 4_665 89.51(4)
F2 Na1 F7 1_655 4_665 102.39(4)
F4 Na1 F7 . 1_655 89.51(4)
F2 Na1 F7 1_655 1_655 102.39(4)
F7 Na1 F7 4_665 1_655 77.06(5)
F4 Na1 F5 . 2_656 84.06(3)
F2 Na1 F5 1_655 2_656 87.76(3)
F7 Na1 F5 4_665 2_656 159.52(4)
F7 Na1 F5 1_655 2_656 83.45(3)
F4 Na1 F5 . 3_656 84.06(3)
F2 Na1 F5 1_655 3_656 87.76(3)
F7 Na1 F5 4_665 3_656 83.45(3)
F7 Na1 F5 1_655 3_656 159.52(4)
F5 Na1 F5 2_656 3_656 115.04(5)
F4 Na1 F1 . . 84.23(4)
F2 Na1 F1 1_655 . 80.48(4)
F7 Na1 F1 4_665 . 141.03(2)
F7 Na1 F1 1_655 . 141.03(2)
F5 Na1 F1 2_656 . 57.68(3)
F5 Na1 F1 3_656 . 57.68(3)
F4 Na1 Al1 . 2_656 76.29(3)
F2 Na1 Al1 1_655 2_656 90.55(3)
F7 Na1 Al1 4_665 2_656 164.10(3)
F7 Na1 Al1 1_655 2_656 109.45(2)
F5 Na1 Al1 2_656 2_656 27.42(2)
F5 Na1 Al1 3_656 2_656 87.92(3)
F1 Na1 Al1 . 2_656 31.813(10)
F4 Na1 Al1 . . 76.29(3)
F2 Na1 Al1 1_655 . 90.55(3)
F7 Na1 Al1 4_665 . 109.45(2)
F7 Na1 Al1 1_655 . 164.10(3)
F5 Na1 Al1 2_656 . 87.92(3)
F5 Na1 Al1 3_656 . 27.42(2)
F1 Na1 Al1 . . 31.813(10)
Al1 Na1 Al1 2_656 . 60.617(13)
F4 Na1 Al3 . 1_655 169.22(4)
F2 Na1 Al3 1_655 1_655 26.07(3)
F7 Na1 Al3 4_665 1_655 82.07(3)
F7 Na1 Al3 1_655 1_655 82.07(3)
F5 Na1 Al3 2_656 1_655 101.55(3)
F5 Na1 Al3 3_656 1_655 101.55(3)
F1 Na1 Al3 . 1_655 106.55(3)
Al1 Na1 Al3 2_656 1_655 112.83(2)
Al1 Na1 Al3 . 1_655 112.83(2)
loop_
_geom_bond_atom_site_label_1
_geom_bond_atom_site_label_2
_geom_bond_site_symmetry_2
_geom_bond_distance
Al1 F5 . 1.7569(8)
Al1 F5 3_656 1.7569(8)
Al1 F1 3_656 1.8256(3)
Al1 F1 . 1.8256(3)
Al1 F6 3_656 1.8361(7)
Al1 F6 . 1.8361(7)
Al1 Na1 . 3.4553(6)
Al1 Na1 3_656 3.4553(6)
Al2 F7 . 1.7568(8)
Al2 F7 3_565 1.7568(8)
Al2 F8 3_565 1.8222(8)
Al2 F8 . 1.8222(8)
Al2 F3 3_565 1.8312(3)
Al2 F3 . 1.8312(3)
Al3 F4 . 1.7340(13)
Al3 F2 . 1.7726(13)
Al3 F6 4_565 1.8297(8)
Al3 F6 . 1.8297(8)
Al3 F8 4_565 1.8354(9)
Al3 F8 . 1.8354(9)
Al3 Na1 1_455 3.4983(9)
F1 Al1 2_656 1.8256(3)
F1 Na1 . 2.8133(15)
F2 Na1 1_455 2.2597(14)
F3 Al2 2 1.8312(3)
F4 Na1 . 2.2209(14)
F5 Na1 3_656 2.3218(10)
F7 Na1 1_455 2.3105(10)
O1 H1 . 1.012(15)
O1 H2 . 1.011(16)
O1 H3 . 1.001(15)
O2 H4 . 1.040(18)
O2 H5 . 1.019(17)
O2 H6 . 1.027(19)
Na1 F2 1_655 2.2597(14)
Na1 F7 4_665 2.3105(10)
Na1 F7 1_655 2.3105(10)
Na1 F5 2_656 2.3218(10)
Na1 F5 3_656 2.3218(10)
Na1 Al1 2_656 3.4553(6)
Na1 Al3 1_655 3.4983(9)
loop_
_geom_hbond_atom_site_label_D
_geom_hbond_atom_site_label_H
_geom_hbond_atom_site_label_A
_geom_hbond_site_symmetry_A
_geom_hbond_distance_DH
_geom_hbond_distance_HA
_geom_hbond_distance_DA
_geom_hbond_angle_DHA
_geom_hbond_publ_flag
O1 H1 F2 . 1.012(17) 1.710(17) 2.706(2) 167(3) yes
O1 H2 F5 . 1.01(3) 1.86(4) 2.812(2) 155(3) yes
O1 H3 F8 3_566 1.00(3) 2.10(3) 3.0750(16) 165(3) yes
O2 H4 F7 2_546 1.04(4) 1.82(4) 2.8406(17) 166(3) yes
O2 H5 F7 1_656 1.02(2) 2.168(19) 2.992(2) 136.8(6) yes
O2 H5 F7 4_666 1.02(2) 2.168(19) 2.992(2) 136.8(6) yes
O2 H6 F5 4_565 1.03(3) 2.02(4) 2.9507(19) 149(3) yes
loop_
_refln_index_h
_refln_index_k
_refln_index_l
_refln_observed_status
_refln_F_squared_meas
_refln_F_squared_calc
1 0 0 o 31.15 41.63
2 0 0 o 679.20 877.60
3 0 0 o 1655.71 1616.10
4 0 0 o 3116.93 3337.91
5 0 0 o 268.81 273.96
6 0 0 o 426.69 447.94
7 0 0 o 10.75 8.40
8 0 0 o 513.94 525.53
9 0 0 o 115.40 121.74
10 0 0 o 1207.36 1208.46
1 1 0 o 570.40 584.27
2 1 0 o 298.69 323.47
3 1 0 o 338.27 331.19
4 1 0 o 17.05 16.35
5 1 0 o 25.88 18.81
6 1 0 o 395.78 387.69
7 1 0 o 22.39 22.27
8 1 0 o 62.60 67.73
9 1 0 o 5.81 7.27
10 1 0 o 14.40 13.67
0 2 0 o 136.71 68.56
1 2 0 o 54.77 54.61
2 2 0 o 890.76 901.14
3 2 0 o 20.91 16.86
4 2 0 o 170.61 182.20
5 2 0 o 1075.60 1094.19
6 2 0 o 258.10 231.05
7 2 0 o 465.22 449.71
8 2 0 o 678.52 689.67
9 2 0 o 13.91 11.37
1 3 0 o 614.83 564.35
2 3 0 o 738.54 776.23
3 3 0 o 335.73 299.59
4 3 0 o 2106.39 2062.35
5 3 0 o 192.03 222.25
6 3 0 o 1811.07 1824.39
7 3 0 o 46.34 46.05
8 3 0 o 162.45 166.51
9 3 0 o 19.29 13.63
0 4 0 o 15103.42 19294.35
1 4 0 o 6.66 6.63
2 4 0 o 1155.50 1269.11
3 4 0 o 259.13 266.46
4 4 0 o 2135.30 2194.55
5 4 0 o 774.02 784.21
6 4 0 o 551.26 548.03
7 4 0 o 1.45 0.86
8 4 0 o 355.03 338.52
9 4 0 o 35.33 39.16
1 5 0 o 418.55 416.86
2 5 0 o 19.80 24.42
3 5 0 o 473.05 481.29
4 5 0 o 104.66 114.40
5 5 0 o 183.07 178.11
6 5 0 o 49.94 47.33
7 5 0 o 9.86 9.38
8 5 0 o 17.72 20.43
0 6 0 o 1703.81 1758.14
1 6 0 o 82.03 79.43
2 6 0 o 639.36 590.90
3 6 0 o 41.75 41.47
4 6 0 o 1.25 1.04
5 6 0 o 20.49 21.83
6 6 0 o 363.27 385.39
7 6 0 o 168.03 175.82
8 6 0 o 323.77 344.65
1 7 0 o 0.40 0.15
2 7 0 o 334.67 342.96
3 7 0 o 195.54 194.55
4 7 0 o 370.68 390.49
5 7 0 o 146.18 141.33
6 7 0 o 410.35 409.02
7 7 0 o 25.50 19.54
0 8 0 o 1126.24 1062.29
1 8 0 o 9.24 8.96
2 8 0 o 866.23 825.26
3 8 0 o 8.47 8.97
4 8 0 o 867.82 814.32
5 8 0 o 457.57 467.78
6 8 0 o 373.72 370.20
1 9 0 o 2.34 1.68
2 9 0 o 2.15 2.76
3 9 0 o 39.53 37.02
4 9 0 o 43.79 43.66
-10 0 1 o 39.26 42.05
-9 0 1 o 1.10 3.45
-8 0 1 o 1.63 1.85
-7 0 1 o 3.98 1.61
-6 0 1 o 381.18 397.30
-5 0 1 o 928.69 848.49
-4 0 1 o 15.07 17.26
-3 0 1 o -0.11 1.10
-2 0 1 o 1275.54 1157.90
-1 0 1 o 5770.78 6946.64
0 0 1 o 12.98 16.46
1 0 1 o 3753.74 3615.87
2 0 1 o 1199.91 1110.38
3 0 1 o 701.70 596.03
4 0 1 o 1007.82 1036.55
5 0 1 o 966.94 907.69
6 0 1 o 2.75 1.27
7 0 1 o 195.36 187.08
8 0 1 o 321.08 331.65
9 0 1 o 1880.01 1874.27
10 0 1 o 18.35 26.30
-10 1 1 o 112.67 109.04
-9 1 1 o 13.73 10.35
-8 1 1 o 197.11 198.57
-7 1 1 o 60.13 64.34
-6 1 1 o 55.73 62.21
-5 1 1 o 4.81 1.84
-4 1 1 o 362.64 320.73
-3 1 1 o 1111.21 1054.22
-2 1 1 o 1338.05 1462.28
-1 1 1 o 202.56 203.17
0 1 1 o 3237.98 3052.18
1 1 1 o 14.77 18.16
2 1 1 o 2553.26 2725.78
3 1 1 o 1440.64 1297.36
4 1 1 o 9.50 20.12
5 1 1 o 157.16 155.38
6 1 1 o 143.45 158.97
7 1 1 o 28.72 27.44
8 1 1 o 6.51 4.50
9 1 1 o 11.18 11.24
10 1 1 o 367.74 389.65
-9 2 1 o 907.81 870.92
-8 2 1 o 254.19 262.56
-7 2 1 o 486.15 499.66
-6 2 1 o 2840.90 2903.09
-5 2 1 o 2718.25 2939.34
-4 2 1 o 3049.12 3109.25
-2 2 1 o 411.02 404.27
-1 2 1 o 3958.12 4380.99
0 2 1 o 47.43 42.48
1 2 1 o 5801.34 6566.47
2 2 1 o 843.37 792.01
3 2 1 o 18.32 32.42
4 2 1 o 1446.09 1452.00
5 2 1 o 1016.32 1034.04
6 2 1 o 463.93 433.91
7 2 1 o 177.17 180.69
8 2 1 o 381.72 377.26
9 2 1 o 654.75 650.41
-9 3 1 o 2.08 2.20
-8 3 1 o 102.98 102.43
-7 3 1 o 18.56 20.70
-6 3 1 o 7.85 4.37
-5 3 1 o 254.96 263.05
-4 3 1 o 66.25 50.60
-3 3 1 o 252.79 251.27
-2 3 1 o 302.79 218.88
-1 3 1 o 3563.01 3417.05
0 3 1 o 23.45 12.75
1 3 1 o 275.24 247.19
2 3 1 o 2581.55 2721.11
3 3 1 o 2.35 0.59
4 3 1 o 3.31 5.79
5 3 1 o 1637.65 1641.48
6 3 1 o 32.52 26.01
7 3 1 o 1.00 0.99
8 3 1 o 5.45 5.28
9 3 1 o 13.84 13.33
-9 4 1 o 0.00 0.80
-8 4 1 o 29.33 29.85
-7 4 1 o 158.63 164.91
-6 4 1 o 75.77 73.88
-5 4 1 o 288.80 264.86
-4 4 1 o 291.43 300.64
-3 4 1 o 476.98 397.31
-2 4 1 o 66.24 61.68
-1 4 1 o 1003.65 883.87
0 4 1 o 5.94 4.69
1 4 1 o 2022.46 1816.05
2 4 1 o 375.07 345.28
3 4 1 o 290.85 279.73
4 4 1 o 1662.02 1726.93
5 4 1 o 311.93 326.93
6 4 1 o 75.98 73.03
7 4 1 o 346.98 361.15
8 4 1 o 146.82 137.90
9 4 1 o 587.54 574.31
-8 5 1 o 226.15 218.65
-7 5 1 o 67.96 66.43
-6 5 1 o 16.05 15.00
-5 5 1 o 32.60 33.53
-4 5 1 o 233.49 249.38
-3 5 1 o 1400.69 1455.48
-2 5 1 o 1313.27 1366.22
-1 5 1 o 1214.21 1228.17
0 5 1 o 2179.78 2069.98
1 5 1 o 68.38 72.31
2 5 1 o 521.95 537.00
3 5 1 o 514.45 514.91
4 5 1 o 28.19 22.44
5 5 1 o 4.87 3.79
6 5 1 o 361.65 355.73
7 5 1 o 36.30 35.71
8 5 1 o 3.33 1.46
-8 6 1 o 10.23 11.01
-7 6 1 o 751.73 720.43
-6 6 1 o 91.27 94.45
-5 6 1 o 662.71 673.63
-4 6 1 o 275.37 278.05
-3 6 1 o 473.07 494.59
-2 6 1 o 101.81 98.99
-1 6 1 o 12.59 14.22
0 6 1 o 6.78 5.21
1 6 1 o 1341.86 1369.46
2 6 1 o 10.16 11.38
3 6 1 o 946.92 929.69
4 6 1 o 73.40 71.43
5 6 1 o 217.60 214.78
6 6 1 o 26.01 25.67
7 6 1 o 341.00 346.03
8 6 1 o 362.99 351.48
-7 7 1 o 0.40 0.76
-6 7 1 o 39.17 30.07
-5 7 1 o 30.74 25.91
-4 7 1 o 19.58 19.75
-3 7 1 o 23.02 23.19
-2 7 1 o 2.47 1.51
-1 7 1 o 540.45 548.57
0 7 1 o 257.86 263.55
1 7 1 o 34.33 35.67
2 7 1 o 618.06 612.35
3 7 1 o 54.44 50.54
4 7 1 o 38.21 31.88
5 7 1 o 294.98 288.30
6 7 1 o 66.40 73.71
7 7 1 o 11.65 8.90
-6 8 1 o 601.69 615.33
-5 8 1 o 42.62 49.87
-4 8 1 o 342.74 348.79
-3 8 1 o 466.80 481.84
-2 8 1 o 0.55 0.11
-1 8 1 o 105.67 107.13
0 8 1 o 14.84 14.80
1 8 1 o 338.30 349.27
2 8 1 o 1.60 1.75
3 8 1 o 904.87 906.89
4 8 1 o 734.27 739.04
5 8 1 o 61.20 62.78
6 8 1 o 84.89 102.93
-4 9 1 o 62.37 67.40
-3 9 1 o 153.31 157.52
-2 9 1 o 57.24 50.83
-1 9 1 o 29.90 28.71
0 9 1 o 39.06 42.90
1 9 1 o 0.03 0.34
2 9 1 o 239.91 220.82
3 9 1 o 4.84 2.72
4 9 1 o 70.37 79.06
-10 0 2 o 3.74 1.40
-9 0 2 o 248.93 247.01
-8 0 2 o 405.12 401.91
-7 0 2 o 64.12 67.13
-6 0 2 o 1136.58 1147.68
-5 0 2 o 131.00 122.40
-4 0 2 o 2878.03 2900.33
-3 0 2 o 5713.05 6017.46
-2 0 2 o 2936.71 3155.67
-1 0 2 o 347.82 347.06
0 0 2 o 562.83 605.00
1 0 2 o 29.14 20.25
2 0 2 o 3124.69 3003.91
3 0 2 o 5638.43 5482.13
4 0 2 o 1529.97 1465.95
5 0 2 o 1172.31 1130.85
6 0 2 o 191.27 169.67
7 0 2 o 286.41 284.66
8 0 2 o 511.59 522.65
9 0 2 o 45.34 42.79
-10 1 2 o 7.39 8.59
-9 1 2 o 114.74 113.33
-8 1 2 o 213.65 217.89
-7 1 2 o 71.99 69.07
-6 1 2 o 0.48 0.01
-5 1 2 o 14.26 19.74
-4 1 2 o 4890.89 4939.52
-3 1 2 o 126.32 184.66
-2 1 2 o 52.90 42.62
-1 1 2 o 248.57 393.21
0 1 2 o 43.15 44.26
1 1 2 o 564.61 437.45
2 1 2 o 122.16 112.59
3 1 2 o 687.72 526.25
4 1 2 o 125.83 121.54
5 1 2 o 2.87 0.04
6 1 2 o 1408.36 1463.49
7 1 2 o 3.40 3.83
8 1 2 o 134.43 137.19
9 1 2 o 69.86 65.50
-9 2 2 o 23.92 25.48
-8 2 2 o 14.06 11.04
-7 2 2 o 138.83 146.78
-6 2 2 o 469.74 452.68
-5 2 2 o 250.74 268.52
-4 2 2 o 3344.77 3313.00
-3 2 2 o 387.34 323.25
-2 2 2 o 397.92 359.02
-1 2 2 o 44.18 41.62
0 2 2 o 3824.53 3894.63
1 2 2 o 5.79 8.45
2 2 2 o 758.68 656.46
3 2 2 o 1432.73 1372.46
4 2 2 o 2785.36 2970.73
5 2 2 o 742.60 792.43
6 2 2 o 267.71 275.91
7 2 2 o 4.57 2.40
8 2 2 o 569.85 545.63
9 2 2 o 49.86 51.92
-9 3 2 o 588.21 594.99
-8 3 2 o 346.60 360.50
-7 3 2 o 521.30 523.66
-6 3 2 o 32.17 31.44
-5 3 2 o 187.45 175.30
-4 3 2 o 937.95 933.67
-3 3 2 o 701.34 779.96
-2 3 2 o 1033.14 966.16
-1 3 2 o 1286.40 963.53
0 3 2 o 1164.92 1152.79
1 3 2 o 498.30 345.09
2 3 2 o 28.21 26.15
3 3 2 o 47.29 57.66
4 3 2 o 886.16 876.64
5 3 2 o 162.57 143.98
6 3 2 o 277.74 293.12
7 3 2 o 207.97 205.89
8 3 2 o 227.87 218.43
9 3 2 o 9.02 10.32
-9 4 2 o 77.82 74.17
-8 4 2 o 666.81 644.61
-7 4 2 o 6.01 5.89
-6 4 2 o 511.13 528.08
-5 4 2 o 31.90 30.91
-4 4 2 o 1049.30 1100.26
-3 4 2 o 388.46 425.22
-2 4 2 o 1477.34 1517.63
-1 4 2 o 44.58 40.72
0 4 2 o 236.96 251.37
1 4 2 o 2.00 2.97
2 4 2 o 5371.38 5450.08
3 4 2 o 367.24 387.45
4 4 2 o 236.15 217.11
5 4 2 o 108.83 112.00
6 4 2 o 253.87 247.57
7 4 2 o 34.87 33.71
8 4 2 o 196.29 213.31
9 4 2 o 0.61 0.01
-8 5 2 o 78.32 75.45
-7 5 2 o 409.78 415.22
-6 5 2 o 1.94 2.43
-5 5 2 o 97.30 94.73
-4 5 2 o 2896.49 2968.95
-3 5 2 o 1.15 1.61
-2 5 2 o 23.55 18.01
-1 5 2 o 347.81 407.40
0 5 2 o 169.69 163.00
1 5 2 o 526.90 491.33
2 5 2 o 136.60 130.93
3 5 2 o 291.81 263.14
4 5 2 o 11.11 7.99
5 5 2 o 11.03 7.99
6 5 2 o 1145.99 1165.81
7 5 2 o 25.13 27.27
8 5 2 o 488.72 498.28
-8 6 2 o 67.59 74.26
-7 6 2 o 1.52 2.15
-6 6 2 o 156.04 158.95
-5 6 2 o 15.82 14.32
-4 6 2 o 722.29 719.77
-3 6 2 o 495.17 505.23
-2 6 2 o 58.22 57.59
-1 6 2 o 228.71 234.46
0 6 2 o 1443.02 1400.83
1 6 2 o 39.60 36.44
2 6 2 o 215.04 213.38
3 6 2 o 74.97 78.39
4 6 2 o 424.64 429.66
5 6 2 o 1.34 0.39
6 6 2 o 255.44 250.29
7 6 2 o 135.75 141.16
-7 7 2 o 195.32 184.57
-6 7 2 o 1.02 0.82
-5 7 2 o 57.05 65.13
-4 7 2 o 365.26 368.50
-3 7 2 o 55.49 51.92
-2 7 2 o 0.43 0.08
-1 7 2 o 76.02 75.26
0 7 2 o 497.03 507.57
1 7 2 o 8.64 6.29
2 7 2 o 2.20 2.59
3 7 2 o 25.19 29.53
4 7 2 o 217.40 229.37
5 7 2 o 49.73 51.18
6 7 2 o 142.05 143.33
7 7 2 o 84.86 79.02
-5 8 2 o 0.76 0.05
-4 8 2 o 96.32 93.59
-3 8 2 o 42.85 42.97
-2 8 2 o 774.17 764.22
-1 8 2 o 45.99 48.07
0 8 2 o 72.30 72.40
1 8 2 o 7.50 7.86
2 8 2 o 2653.22 2686.65
3 8 2 o 123.85 129.19
4 8 2 o 4.55 3.75
5 8 2 o 48.69 40.49
-4 9 2 o 453.21 455.57
-3 9 2 o 50.68 42.13
-2 9 2 o 95.63 91.69
-1 9 2 o 0.57 0.94
0 9 2 o 42.60 42.31
1 9 2 o 323.02 325.14
2 9 2 o 67.95 69.99
3 9 2 o 39.44 33.22
4 9 2 o 71.03 77.20
-9 0 3 o 67.18 60.17
-8 0 3 o 723.82 725.44
-7 0 3 o 73.36 75.16
-6 0 3 o 394.62 406.19
-5 0 3 o 1847.61 1830.14
-4 0 3 o 4636.06 4550.62
-3 0 3 o 5193.59 5398.27
-2 0 3 o 2930.42 2911.19
-1 0 3 o 2005.35 2089.67
0 0 3 o 592.66 588.80
1 0 3 o 5295.84 5588.35
2 0 3 o 2.54 2.25
3 0 3 o 7636.87 8015.57
4 0 3 o 94.06 80.70
5 0 3 o 3220.75 3462.23
6 0 3 o 5513.71 5675.75
7 0 3 o 78.56 82.23
8 0 3 o 274.95 275.48
9 0 3 o 672.89 658.74
-9 1 3 o 14.13 14.18
-8 1 3 o 3.95 4.38
-7 1 3 o 56.11 52.36
-6 1 3 o 60.93 63.70
-5 1 3 o 138.55 135.66
-4 1 3 o 170.05 195.16
-3 1 3 o 128.53 112.87
-2 1 3 o 19.49 6.91
-1 1 3 o 63.05 68.33
0 1 3 o 2227.49 2322.80
1 1 3 o 180.54 187.15
2 1 3 o 196.03 174.04
3 1 3 o 51.69 50.27
4 1 3 o 212.68 212.85
5 1 3 o 11.21 10.27
6 1 3 o 7.12 5.00
7 1 3 o 135.38 136.24
8 1 3 o 23.90 21.93
9 1 3 o 0.97 0.07
-9 2 3 o 0.38 0.18
-8 2 3 o 2.42 0.04
-7 2 3 o 964.49 985.71
-6 2 3 o 6.45 8.33
-5 2 3 o 881.12 889.00
-4 2 3 o 328.01 318.49
-3 2 3 o 2426.69 2330.94
-2 2 3 o 67.62 59.32
-1 2 3 o 3201.37 3117.99
0 2 3 o 358.23 313.56
1 2 3 o 1502.02 1503.83
2 2 3 o 1123.40 1101.17
3 2 3 o 869.64 773.83
4 2 3 o 199.30 196.54
5 2 3 o 684.13 645.46
6 2 3 o 245.41 240.44
7 2 3 o 26.41 27.30
8 2 3 o 41.49 39.84
9 2 3 o 88.31 96.20
-9 3 3 o 11.71 7.36
-8 3 3 o 233.52 243.21
-7 3 3 o 0.74 0.40
-6 3 3 o 7.71 5.98
-5 3 3 o 107.50 114.86
-4 3 3 o 697.85 774.52
-3 3 3 o 67.81 61.99
-2 3 3 o 5.90 19.57
-1 3 3 o 94.58 80.60
0 3 3 o 5781.64 6095.06
1 3 3 o 98.62 95.02
2 3 3 o 5237.89 5172.20
3 3 3 o 25.85 28.62
4 3 3 o 1561.13 1578.59
5 3 3 o 136.03 154.56
6 3 3 o 2.43 1.19
7 3 3 o 30.30 33.14
8 3 3 o 0.39 0.00
9 3 3 o 12.79 14.25
-9 4 3 o 248.89 258.19
-8 4 3 o 303.28 312.09
-7 4 3 o 3.32 2.82
-6 4 3 o 81.82 78.97
-5 4 3 o 886.15 885.84
-4 4 3 o 619.96 630.20
-3 4 3 o 1773.95 1884.73
-2 4 3 o 218.84 231.57
-1 4 3 o 1698.91 1790.10
0 4 3 o 172.25 164.71
1 4 3 o 4821.55 5127.12
2 4 3 o 50.48 53.17
3 4 3 o 1808.30 1968.67
4 4 3 o 26.38 20.84
5 4 3 o 1361.33 1416.84
6 4 3 o 1575.86 1577.32
7 4 3 o 144.36 137.00
8 4 3 o 10.96 11.39
-8 5 3 o 15.29 9.70
-7 5 3 o 84.22 84.16
-6 5 3 o 189.62 182.26
-5 5 3 o 22.05 24.35
-4 5 3 o 5.75 4.13
-3 5 3 o 51.02 50.51
-2 5 3 o 156.36 131.27
-1 5 3 o 42.22 45.21
0 5 3 o 200.98 231.81
1 5 3 o 79.48 83.03
2 5 3 o 1057.29 1141.15
3 5 3 o 57.60 55.67
4 5 3 o 1.32 0.15
5 5 3 o 66.19 63.43
6 5 3 o 6.76 5.87
7 5 3 o 196.71 187.28
8 5 3 o 33.24 31.10
-7 6 3 o 311.72 308.63
-6 6 3 o 67.81 64.91
-5 6 3 o 223.02 226.48
-4 6 3 o 1340.69 1374.64
-3 6 3 o 390.06 383.59
-2 6 3 o 457.53 461.76
-1 6 3 o 1.40 0.15
0 6 3 o 34.06 31.34
1 6 3 o 138.47 128.23
2 6 3 o 113.49 114.85
3 6 3 o 77.56 76.19
4 6 3 o 5.36 4.33
5 6 3 o 63.61 66.84
6 6 3 o 1096.80 1078.69
7 6 3 o 113.76 127.03
-6 7 3 o 19.84 24.24
-5 7 3 o 225.35 226.96
-4 7 3 o 205.65 196.39
-3 7 3 o 68.49 70.06
-2 7 3 o 0.83 0.15
-1 7 3 o 71.10 69.03
0 7 3 o 990.88 984.19
1 7 3 o 0.87 0.70
2 7 3 o 954.48 970.33
3 7 3 o 5.59 5.16
4 7 3 o 601.88 604.64
5 7 3 o 19.60 17.62
6 7 3 o 0.08 0.43
-5 8 3 o 208.86 206.24
-4 8 3 o 0.72 0.04
-3 8 3 o 214.16 215.61
-2 8 3 o 5.85 5.99
-1 8 3 o 1169.64 1137.07
0 8 3 o 12.57 12.31
1 8 3 o 2004.70 2022.73
2 8 3 o 61.29 57.75
3 8 3 o 254.99 240.19
4 8 3 o 0.63 0.75
5 8 3 o 209.27 198.07
-3 9 3 o 104.29 102.95
-2 9 3 o 37.78 45.67
-1 9 3 o 26.86 25.00
0 9 3 o 377.81 354.60
1 9 3 o 69.67 66.96
2 9 3 o 5.20 6.87
3 9 3 o 1.06 0.02
-9 0 4 o 16.25 18.59
-8 0 4 o 11.26 7.39
-7 0 4 o 173.20 170.03
-6 0 4 o 7.89 4.98
-5 0 4 o 29.21 26.63
-4 0 4 o 1239.63 1068.35
-3 0 4 o 3002.60 3009.70
-2 0 4 o 157.83 115.20
-1 0 4 o 3797.88 3626.08
0 0 4 o 231.32 191.34
1 0 4 o 2137.59 2097.01
2 0 4 o 102.12 64.42
3 0 4 o 92.87 86.77
4 0 4 o 2175.28 2090.56
5 0 4 o 508.71 558.88
6 0 4 o 87.30 78.52
7 0 4 o 104.91 103.81
8 0 4 o 3.05 1.60
9 0 4 o 27.44 20.65
-9 1 4 o 20.35 14.94
-8 1 4 o 97.13 91.88
-7 1 4 o 238.57 242.02
-6 1 4 o 426.76 422.18
-5 1 4 o 195.19 201.16
-4 1 4 o 763.35 775.21
-3 1 4 o 55.88 43.42
-2 1 4 o 2616.74 2643.45
-1 1 4 o 628.43 619.37
0 1 4 o 638.46 660.53
1 1 4 o 541.02 514.44
2 1 4 o 17.53 15.15
3 1 4 o 955.49 1019.48
4 1 4 o 92.40 102.31
5 1 4 o 5.95 3.30
6 1 4 o 591.90 577.11
7 1 4 o 75.81 73.06
8 1 4 o 335.97 333.39
9 1 4 o 51.21 53.63
-9 2 4 o 9.09 8.03
-8 2 4 o 1981.98 1943.65
-7 2 4 o 74.98 70.83
-6 2 4 o 711.96 714.95
-5 2 4 o 106.38 107.27
-4 2 4 o 1708.78 1811.83
-3 2 4 o 223.35 229.36
-2 2 4 o 4187.20 4512.57
-1 2 4 o 345.45 349.88
0 2 4 o 650.25 469.25
1 2 4 o 4477.92 4422.15
2 2 4 o 9351.91 9796.88
3 2 4 o 1058.31 1060.63
4 2 4 o 1682.90 1791.46
5 2 4 o 8.65 7.89
6 2 4 o 1186.65 1223.72
7 2 4 o 48.99 45.94
8 2 4 o 70.80 66.46
9 2 4 o 11.86 9.06
-9 3 4 o 10.89 8.27
-8 3 4 o 69.04 69.96
-7 3 4 o 28.39 26.66
-6 3 4 o 48.96 52.42
-5 3 4 o 13.51 9.80
-4 3 4 o 455.74 488.48
-3 3 4 o 4.43 6.95
-2 3 4 o 286.47 294.97
-1 3 4 o 209.81 191.63
0 3 4 o 7.19 3.70
1 3 4 o 870.38 833.97
2 3 4 o 25.45 19.70
3 3 4 o 146.23 164.41
4 3 4 o 140.30 146.89
5 3 4 o 688.78 720.55
6 3 4 o 109.91 108.54
7 3 4 o 4.95 3.85
8 3 4 o 216.40 211.92
9 3 4 o 0.31 0.07
-8 4 4 o 18.61 12.14
-7 4 4 o 83.30 76.97
-6 4 4 o 1.71 1.52
-5 4 4 o 26.39 27.13
-4 4 4 o 875.49 819.06
-3 4 4 o 742.92 753.39
-2 4 4 o 101.04 69.67
-1 4 4 o 143.82 136.94
0 4 4 o 1180.73 1042.67
1 4 4 o 3.44 2.94
2 4 4 o 85.92 97.67
3 4 4 o 6.26 6.27
4 4 4 o 919.84 901.65
5 4 4 o 10.92 15.53
6 4 4 o 129.80 132.87
7 4 4 o 6.67 6.27
8 4 4 o 22.15 24.55
-8 5 4 o 34.73 34.74
-7 5 4 o 272.37 280.27
-6 5 4 o 384.99 401.89
-5 5 4 o 211.51 218.51
-4 5 4 o 1363.47 1403.08
-3 5 4 o 52.80 51.77
-2 5 4 o 1950.30 2030.62
-1 5 4 o 567.55 582.27
0 5 4 o 176.56 194.13
1 5 4 o 561.39 584.10
2 5 4 o 5.84 5.06
3 5 4 o 775.63 803.88
4 5 4 o 16.93 16.64
5 5 4 o 242.90 249.34
6 5 4 o 318.13 332.07
7 5 4 o 75.76 69.81
8 5 4 o 243.04 230.64
-7 6 4 o 6.29 6.25
-6 6 4 o 297.53 276.70
-5 6 4 o 29.93 28.93
-4 6 4 o 764.13 776.60
-3 6 4 o 375.05 376.81
-2 6 4 o 1384.94 1421.92
-1 6 4 o 128.03 124.19
0 6 4 o 302.34 316.77
1 6 4 o 53.42 54.80
2 6 4 o 1436.59 1446.22
3 6 4 o 52.41 54.24
4 6 4 o 233.74 237.14
5 6 4 o 253.77 253.75
6 6 4 o 781.57 744.91
7 6 4 o 49.99 55.20
-6 7 4 o 81.01 81.29
-5 7 4 o 20.50 16.87
-4 7 4 o 86.48 87.22
-3 7 4 o 1.45 1.10
-2 7 4 o 46.33 44.34
-1 7 4 o 58.82 54.18
0 7 4 o 7.56 7.51
1 7 4 o 47.35 52.94
2 7 4 o 12.53 11.44
3 7 4 o 22.69 20.57
4 7 4 o 186.52 174.76
5 7 4 o 195.05 197.24
6 7 4 o 213.12 219.11
-5 8 4 o 34.55 34.51
-4 8 4 o 220.11 240.67
-3 8 4 o 82.92 80.33
-2 8 4 o 56.52 64.45
-1 8 4 o 114.24 117.59
0 8 4 o 1491.57 1520.85
1 8 4 o 292.64 291.29
2 8 4 o 142.00 124.77
3 8 4 o 68.24 62.69
4 8 4 o 206.06 221.23
5 8 4 o 28.57 31.13
-3 9 4 o 0.87 1.43
-2 9 4 o 506.96 498.21
-1 9 4 o 13.25 12.61
0 9 4 o 3.00 2.79
1 9 4 o 3.45 3.34
2 9 4 o 1.69 3.00
3 9 4 o 297.81 285.25
-9 0 5 o 211.90 192.28
-8 0 5 o 24.16 23.02
-7 0 5 o 2325.18 2322.44
-6 0 5 o 673.30 689.31
-5 0 5 o 344.32 305.83
-4 0 5 o 565.66 538.66
-3 0 5 o 5759.02 6200.71
-2 0 5 o 670.20 630.05
-1 0 5 o 234.87 310.90
0 0 5 o 231.79 176.87
1 0 5 o 3934.04 4032.42
2 0 5 o 302.10 275.24
3 0 5 o 2655.72 2675.15
4 0 5 o 1.75 0.55
5 0 5 o 223.90 224.98
6 0 5 o 654.10 679.07
7 0 5 o 600.16 604.81
8 0 5 o 47.55 47.42
9 0 5 o 1.61 0.65
-9 1 5 o 4.97 5.34
-8 1 5 o 230.34 225.83
-7 1 5 o 47.37 48.16
-6 1 5 o 38.78 33.92
-5 1 5 o 103.80 100.61
-4 1 5 o 56.50 58.59
-3 1 5 o 1137.91 1118.92
-2 1 5 o 530.12 480.67
-1 1 5 o 550.64 463.42
0 1 5 o 20.22 30.83
1 1 5 o 57.47 54.71
2 1 5 o 3414.42 3268.01
3 1 5 o 47.06 48.42
4 1 5 o 111.92 142.16
5 1 5 o 8.36 6.15
6 1 5 o 112.80 105.97
7 1 5 o 378.05 375.66
8 1 5 o 5.49 2.40
9 1 5 o 79.80 78.65
-9 2 5 o 363.51 393.60
-8 2 5 o 62.12 60.62
-7 2 5 o 190.21 201.26
-6 2 5 o 17.25 15.95
-5 2 5 o 0.96 0.17
-4 2 5 o 243.52 236.86
-3 2 5 o 981.17 910.53
-2 2 5 o 2391.16 2372.51
-1 2 5 o 172.79 136.23
0 2 5 o 698.33 721.03
1 2 5 o 1035.98 1003.04
2 2 5 o 1486.49 1482.87
3 2 5 o 143.42 121.55
4 2 5 o 336.42 296.39
5 2 5 o 753.98 766.77
6 2 5 o 73.01 79.09
7 2 5 o 235.22 235.81
8 2 5 o 378.28 395.46
9 2 5 o 90.68 87.82
-9 3 5 o 81.20 80.35
-8 3 5 o 353.97 336.47
-7 3 5 o 33.44 35.92
-6 3 5 o 43.81 46.08
-5 3 5 o 824.40 826.61
-4 3 5 o 121.95 134.39
-3 3 5 o 1700.11 1722.38
-2 3 5 o 64.08 36.98
-1 3 5 o 1286.74 1336.20
0 3 5 o 18.31 21.54
1 3 5 o 593.67 562.44
2 3 5 o 1233.66 1125.72
3 3 5 o 93.18 92.73
4 3 5 o 246.84 237.40
5 3 5 o 827.84 850.54
6 3 5 o 2.63 2.45
7 3 5 o 19.41 19.78
8 3 5 o 7.79 7.32
-8 4 5 o 26.23 25.98
-7 4 5 o 857.69 830.57
-6 4 5 o 238.29 248.05
-5 4 5 o 43.47 42.45
-4 4 5 o 208.19 211.84
-3 4 5 o 2297.26 2409.88
-2 4 5 o 37.11 28.71
-1 4 5 o 913.12 1007.90
0 4 5 o 102.27 109.65
1 4 5 o 940.82 1006.54
2 4 5 o 34.11 29.63
3 4 5 o 1074.08 1065.52
4 4 5 o 0.66 0.09
5 4 5 o 527.37 532.05
6 4 5 o 226.55 223.27
7 4 5 o 355.51 356.70
8 4 5 o 183.93 198.73
-8 5 5 o 58.43 54.63
-7 5 5 o 149.97 150.72
-6 5 5 o 61.76 59.89
-5 5 5 o 18.68 19.61
-4 5 5 o 19.69 17.38
-3 5 5 o 238.90 241.23
-2 5 5 o 496.67 477.39
-1 5 5 o 926.39 932.57
0 5 5 o 132.92 148.17
1 5 5 o 8.96 7.01
2 5 5 o 1984.76 1944.44
3 5 5 o 31.74 31.90
4 5 5 o 246.59 255.49
5 5 5 o 126.93 122.86
6 5 5 o 101.44 105.75
7 5 5 o 572.57 571.27
-7 6 5 o 7.45 3.03
-6 6 5 o 92.41 97.17
-5 6 5 o 645.53 676.86
-4 6 5 o 258.02 269.81
-3 6 5 o 92.64 93.69
-2 6 5 o 29.51 26.05
-1 6 5 o 724.13 711.88
0 6 5 o 4.31 3.77
1 6 5 o 73.23 68.00
2 6 5 o 106.39 104.98
3 6 5 o 1.55 0.76
4 6 5 o 147.30 156.64
5 6 5 o 992.57 1012.14
6 6 5 o 163.77 162.80
7 6 5 o 89.60 85.38
-6 7 5 o 3.16 2.12
-5 7 5 o 251.85 243.67
-4 7 5 o 19.01 17.94
-3 7 5 o 545.33 558.89
-2 7 5 o 2.86 1.08
-1 7 5 o 218.96 224.49
0 7 5 o 18.57 18.09
1 7 5 o 75.43 78.61
2 7 5 o 349.91 350.84
3 7 5 o 5.18 4.20
4 7 5 o 0.26 0.04
5 7 5 o 220.40 227.09
6 7 5 o 28.14 33.46
-4 8 5 o 42.62 40.63
-3 8 5 o 373.57 349.07
-2 8 5 o 269.59 263.79
-1 8 5 o 805.16 785.33
0 8 5 o 227.99 225.19
1 8 5 o 78.08 69.05
2 8 5 o 53.19 45.36
3 8 5 o 330.56 326.53
4 8 5 o 14.82 14.04
-2 9 5 o 125.68 133.38
-1 9 5 o 0.20 0.14
0 9 5 o 207.70 195.61
1 9 5 o 79.50 77.81
2 9 5 o 441.12 467.74
-9 0 6 o 46.21 37.09
-8 0 6 o 1045.48 1082.97
-7 0 6 o 0.96 0.10
-6 0 6 o 217.76 226.55
-5 0 6 o 1.61 0.89
-4 0 6 o 83.41 95.21
-3 0 6 o 30.14 33.75
-2 0 6 o 4447.13 4340.10
-1 0 6 o 652.33 590.26
0 0 6 o 1151.10 1133.59
1 0 6 o 524.63 534.09
2 0 6 o 7141.65 7625.06
3 0 6 o 10.01 13.46
4 0 6 o 900.82 905.33
5 0 6 o 72.18 83.36
6 0 6 o 1704.53 1716.83
7 0 6 o 19.15 17.55
8 0 6 o 238.25 232.47
9 0 6 o 187.17 184.12
-9 1 6 o 23.57 22.23
-8 1 6 o 5.60 6.76
-7 1 6 o 366.78 394.17
-6 1 6 o 34.44 31.45
-5 1 6 o 142.82 147.05
-4 1 6 o 132.05 129.89
-3 1 6 o 7.13 1.59
-2 1 6 o 43.88 41.00
-1 1 6 o 808.13 821.20
0 1 6 o 24.53 23.29
1 1 6 o 127.18 139.73
2 1 6 o -0.08 0.03
3 1 6 o 42.62 29.44
4 1 6 o 229.05 234.08
5 1 6 o 292.31 299.30
6 1 6 o 153.98 162.48
7 1 6 o 3.20 4.39
8 1 6 o 45.47 37.36
-9 2 6 o 77.32 83.75
-8 2 6 o 833.78 813.56
-7 2 6 o 26.16 26.74
-6 2 6 o 627.88 610.40
-5 2 6 o 15.76 13.70
-4 2 6 o 544.19 566.34
-3 2 6 o 65.81 70.72
-2 2 6 o 968.87 1028.09
-1 2 6 o 305.17 280.44
0 2 6 o 1740.45 1717.55
1 2 6 o 17.70 12.44
2 2 6 o 45.18 41.22
3 2 6 o 103.47 89.44
4 2 6 o 81.22 62.07
5 2 6 o 695.60 719.40
6 2 6 o 850.38 854.96
7 2 6 o 531.97 523.43
8 2 6 o 113.81 116.49
-8 3 6 o 110.20 107.41
-7 3 6 o 0.56 0.05
-6 3 6 o 289.95 280.08
-5 3 6 o 31.68 33.17
-4 3 6 o 1002.01 1035.90
-3 3 6 o 236.62 220.39
-2 3 6 o 1979.80 1984.54
-1 3 6 o 48.94 63.58
0 3 6 o 214.80 218.13
1 3 6 o 753.74 826.24
2 3 6 o 0.42 0.34
3 3 6 o 178.70 205.16
4 3 6 o 1.24 1.32
5 3 6 o 20.12 20.36
6 3 6 o 250.60 253.77
7 3 6 o 79.29 85.89
8 3 6 o 755.72 735.23
-8 4 6 o 296.81 329.08
-7 4 6 o 2.08 1.63
-6 4 6 o 2.49 0.20
-5 4 6 o 4.79 4.43
-4 4 6 o 2.45 1.54
-3 4 6 o 183.50 201.92
-2 4 6 o 1847.38 1867.16
-1 4 6 o 1103.52 1058.57
0 4 6 o 488.25 516.53
1 4 6 o 118.72 117.00
2 4 6 o 2263.69 2347.84
3 4 6 o 5.86 6.72
4 4 6 o 3.80 4.93
5 4 6 o 121.64 118.66
6 4 6 o 797.36 788.80
7 4 6 o 138.07 126.59
8 4 6 o 200.88 191.73
-7 5 6 o 508.62 536.66
-6 5 6 o 14.47 12.16
-5 5 6 o 111.14 105.78
-4 5 6 o 0.56 0.10
-3 5 6 o 24.49 24.41
-2 5 6 o 41.78 43.79
-1 5 6 o 588.18 614.25
0 5 6 o 24.93 25.76
1 5 6 o 11.59 9.49
2 5 6 o 7.40 7.48
3 5 6 o 57.62 52.81
4 5 6 o 290.41 302.69
5 5 6 o 316.33 303.05
6 5 6 o 71.69 74.15
7 5 6 o 8.37 4.49
-6 6 6 o 1093.92 1057.98
-5 6 6 o 9.09 7.95
-4 6 6 o 585.17 573.14
-3 6 6 o 6.33 5.11
-2 6 6 o 141.53 141.48
-1 6 6 o 4.20 2.98
0 6 6 o 766.06 745.58
1 6 6 o 26.54 24.03
2 6 6 o 138.28 145.68
3 6 6 o 46.95 49.10
4 6 6 o 1442.70 1443.59
5 6 6 o 126.93 119.99
6 6 6 o 161.48 173.67
-5 7 6 o 54.11 47.84
-4 7 6 o 445.43 441.38
-3 7 6 o 92.11 101.42
-2 7 6 o 246.26 250.81
-1 7 6 o 6.49 4.64
0 7 6 o 23.55 22.64
1 7 6 o 548.30 535.64
2 7 6 o 16.76 12.50
3 7 6 o 2.86 2.92
4 7 6 o 1.31 1.02
5 7 6 o 41.28 40.49
-4 8 6 o 84.05 89.25
-3 8 6 o 89.03 87.23
-2 8 6 o 331.21 339.93
-1 8 6 o 420.81 435.22
0 8 6 o 117.36 116.50
1 8 6 o 0.46 0.25
2 8 6 o 343.49 335.14
3 8 6 o 0.20 0.01
4 8 6 o 417.17 414.95
0 9 6 o 46.83 48.65
-8 0 7 o 35.81 29.88
-7 0 7 o 1.18 0.64
-6 0 7 o 207.37 213.66
-5 0 7 o 41.23 34.15
-4 0 7 o 74.25 81.38
-3 0 7 o 285.82 273.89
-2 0 7 o 38.14 45.66
-1 0 7 o 1022.68 969.86
0 0 7 o 1596.74 1680.56
1 0 7 o 1388.89 1397.57
2 0 7 o 129.44 143.41
3 0 7 o 1291.91 1360.89
4 0 7 o 82.18 85.55
5 0 7 o 27.66 21.72
6 0 7 o 41.14 36.83
7 0 7 o 430.22 442.97
8 0 7 o 120.83 116.74
-8 1 7 o 123.14 115.19
-7 1 7 o 26.36 27.53
-6 1 7 o 44.72 43.13
-5 1 7 o 24.02 23.00
-4 1 7 o 0.48 0.81
-3 1 7 o 23.98 22.83
-2 1 7 o 238.76 260.05
-1 1 7 o 722.70 764.35
0 1 7 o 211.48 181.97
1 1 7 o 147.52 138.31
2 1 7 o 564.80 605.77
3 1 7 o 493.26 522.19
4 1 7 o 920.87 904.65
5 1 7 o 39.74 36.53
6 1 7 o 11.16 10.28
7 1 7 o 94.08 87.24
8 1 7 o 1.05 0.29
-8 2 7 o 161.60 149.71
-7 2 7 o 1900.30 1906.42
-6 2 7 o 124.11 129.72
-5 2 7 o 17.30 16.67
-4 2 7 o 4.60 2.21
-3 2 7 o 2202.83 2278.56
-2 2 7 o 4203.25 4503.85
-1 2 7 o 849.52 883.82
0 2 7 o 21.54 19.29
1 2 7 o 3608.70 3842.74
2 2 7 o 64.97 64.54
3 2 7 o 897.41 931.96
4 2 7 o 120.78 119.52
5 2 7 o 367.93 365.91
6 2 7 o 132.13 132.84
7 2 7 o 2052.57 2038.22
8 2 7 o 238.13 249.54
-8 3 7 o 7.85 11.54
-7 3 7 o 0.41 0.82
-6 3 7 o 1.31 0.03
-5 3 7 o 3.60 2.44
-4 3 7 o 27.79 26.17
-3 3 7 o 56.35 51.94
-2 3 7 o 461.04 482.69
-1 3 7 o 1016.21 1068.16
0 3 7 o 148.43 134.30
1 3 7 o 171.46 177.21
2 3 7 o 162.67 170.52
3 3 7 o 14.33 12.27
4 3 7 o 105.92 105.20
5 3 7 o 67.07 64.27
6 3 7 o 86.65 80.31
7 3 7 o 57.93 62.52
8 3 7 o 8.12 5.74
-7 4 7 o 7.54 6.67
-6 4 7 o 190.47 191.90
-5 4 7 o 231.85 232.62
-4 4 7 o 10.34 8.07
-3 4 7 o 6.88 6.00
-2 4 7 o 660.30 682.99
-1 4 7 o 803.67 774.37
0 4 7 o 502.75 530.83
1 4 7 o 308.20 283.53
2 4 7 o 4.46 4.19
3 4 7 o 51.63 54.98
4 4 7 o 48.55 47.50
5 4 7 o 99.71 104.45
6 4 7 o 100.83 100.41
7 4 7 o 54.87 61.89
-7 5 7 o 24.61 24.53
-6 5 7 o 54.15 57.30
-5 5 7 o 100.37 101.79
-4 5 7 o 7.51 4.20
-3 5 7 o 12.30 13.35
-2 5 7 o 9.51 7.38
-1 5 7 o 237.05 241.91
0 5 7 o 86.71 81.96
1 5 7 o 366.93 373.60
2 5 7 o 972.39 963.73
3 5 7 o 686.92 685.57
4 5 7 o 862.42 883.65
5 5 7 o 115.82 126.30
6 5 7 o 53.58 50.84
7 5 7 o 198.08 187.79
-6 6 7 o 41.69 43.82
-5 6 7 o 242.18 235.63
-4 6 7 o 60.67 59.13
-3 6 7 o 397.55 404.35
-2 6 7 o 278.26 278.54
-1 6 7 o 475.84 479.23
0 6 7 o 2.65 2.38
1 6 7 o 482.65 491.14
2 6 7 o 142.18 142.60
3 6 7 o 1790.31 1799.56
4 6 7 o 67.79 64.78
5 6 7 o 360.98 355.82
6 6 7 o 23.76 24.20
-5 7 7 o 29.10 26.13
-4 7 7 o 2.16 3.60
-3 7 7 o 6.22 4.91
-2 7 7 o 337.16 326.86
-1 7 7 o 310.20 306.75
0 7 7 o 106.30 115.22
1 7 7 o 2.53 1.02
2 7 7 o 13.29 14.78
3 7 7 o 6.05 5.83
4 7 7 o 77.51 78.04
5 7 7 o 44.59 38.22
-3 8 7 o 14.22 13.96
-2 8 7 o 929.80 922.15
-1 8 7 o 284.63 304.18
0 8 7 o 21.92 18.73
1 8 7 o 13.42 14.59
2 8 7 o 0.09 0.25
3 8 7 o 115.80 119.17
-8 0 8 o 8.80 7.78
-7 0 8 o 59.58 58.70
-6 0 8 o 1169.52 1161.56
-5 0 8 o 203.52 214.70
-4 0 8 o 1038.15 1092.88
-3 0 8 o 286.34 322.12
-2 0 8 o 366.51 405.14
-1 0 8 o 663.77 703.39
0 0 8 o 1831.17 1857.38
1 0 8 o 3234.58 3350.82
2 0 8 o 276.15 324.47
3 0 8 o 314.59 299.95
4 0 8 o 432.68 447.38
5 0 8 o 57.36 57.64
6 0 8 o 690.06 678.44
7 0 8 o 109.36 115.07
8 0 8 o 178.24 179.38
-8 1 8 o 51.71 50.13
-7 1 8 o 173.57 158.85
-6 1 8 o 138.66 139.60
-5 1 8 o 106.88 106.94
-4 1 8 o 3.64 3.03
-3 1 8 o 1.78 1.24
-2 1 8 o 352.85 319.01
-1 1 8 o 3.07 3.16
0 1 8 o 445.61 471.81
1 1 8 o 87.18 87.71
2 1 8 o 5.97 6.81
3 1 8 o 646.01 658.86
4 1 8 o 40.67 37.88
5 1 8 o 0.91 0.39
6 1 8 o 14.77 13.14
7 1 8 o 30.82 33.91
8 1 8 o 270.62 289.93
-8 2 8 o 112.68 129.53
-7 2 8 o 18.59 16.50
-6 2 8 o 220.12 215.46
-5 2 8 o 104.54 104.05
-4 2 8 o 260.64 252.40
-3 2 8 o 794.96 806.04
-2 2 8 o 538.06 492.24
-1 2 8 o 30.55 31.52
0 2 8 o 43.11 30.46
1 2 8 o 132.41 139.97
2 2 8 o 1566.19 1502.56
3 2 8 o 1.08 0.39
4 2 8 o 72.29 78.75
5 2 8 o 83.65 83.36
6 2 8 o 1038.96 1062.12
7 2 8 o 101.64 95.22
-7 3 8 o 129.36 120.30
-6 3 8 o 23.85 24.88
-5 3 8 o 659.87 687.73
-4 3 8 o 107.77 115.70
-3 3 8 o 662.08 669.36
-2 3 8 o 525.11 506.63
-1 3 8 o 254.45 265.48
0 3 8 o 124.06 125.82
1 3 8 o 830.12 832.67
2 3 8 o 388.53 408.38
3 3 8 o 179.71 180.39
4 3 8 o 14.12 13.13
5 3 8 o 130.09 130.82
6 3 8 o 12.09 9.15
7 3 8 o 121.91 131.58
-7 4 8 o 12.33 10.83
-6 4 8 o 887.19 865.64
-5 4 8 o 31.01 31.54
-4 4 8 o 328.92 321.50
-3 4 8 o 1.51 0.00
-2 4 8 o 326.87 332.83
-1 4 8 o 154.76 157.77
0 4 8 o 1221.12 1278.54
1 4 8 o 522.87 530.99
2 4 8 o 338.28 359.14
3 4 8 o 69.30 68.63
4 4 8 o 698.46 681.31
5 4 8 o 11.12 9.64
6 4 8 o 84.05 82.90
7 4 8 o 0.39 0.00
-6 5 8 o 171.67 172.11
-5 5 8 o 6.75 8.19
-4 5 8 o 34.45 36.18
-3 5 8 o 103.25 103.19
-2 5 8 o 103.08 97.64
-1 5 8 o 111.39 110.73
0 5 8 o 706.26 712.18
1 5 8 o 12.55 13.90
2 5 8 o 36.09 37.10
3 5 8 o 489.59 489.66
4 5 8 o 115.87 127.56
5 5 8 o 13.15 14.24
6 5 8 o 36.20 30.40
-5 6 8 o 1.48 1.35
-4 6 8 o 21.54 24.23
-3 6 8 o 23.18 23.40
-2 6 8 o 292.66 306.50
-1 6 8 o 121.13 121.64
0 6 8 o 45.03 47.94
1 6 8 o 381.83 377.76
2 6 8 o 1044.26 1053.84
3 6 8 o 58.45 57.97
4 6 8 o 39.63 38.18
5 6 8 o 82.47 79.08
-4 7 8 o 53.49 50.55
-3 7 8 o 207.68 205.48
-2 7 8 o 214.46 222.09
-1 7 8 o 153.28 158.69
0 7 8 o 4.74 5.74
1 7 8 o 201.72 204.95
2 7 8 o 68.26 62.68
3 7 8 o 121.86 123.93
4 7 8 o 38.27 29.29
-1 8 8 o 4.83 3.98
0 8 8 o 579.89 565.55
1 8 8 o 1.01 1.36
-7 0 9 o 123.19 135.35
-6 0 9 o 92.99 84.25
-5 0 9 o 103.13 108.19
-4 0 9 o 443.49 452.76
-3 0 9 o 313.59 301.05
-2 0 9 o 862.28 881.76
-1 0 9 o 12.50 12.94
0 0 9 o 2084.56 2183.04
1 0 9 o 373.71 336.49
2 0 9 o 9.63 8.44
3 0 9 o 1068.89 1033.62
4 0 9 o 106.46 102.80
5 0 9 o 38.20 35.29
6 0 9 o 137.15 118.92
7 0 9 o 168.96 180.96
-7 1 9 o 57.44 58.44
-6 1 9 o 70.38 67.13
-5 1 9 o 9.28 8.29
-4 1 9 o 144.10 142.60
-3 1 9 o 5.92 6.99
-2 1 9 o 2.77 1.54
-1 1 9 o 659.11 661.30
0 1 9 o 7.31 4.47
1 1 9 o 128.95 126.68
2 1 9 o 238.27 241.24
3 1 9 o 104.20 105.35
4 1 9 o 36.83 33.00
5 1 9 o 54.05 55.76
6 1 9 o 0.95 1.09
7 1 9 o 2.03 0.93
-7 2 9 o 187.54 160.26
-6 2 9 o 6.18 4.84
-5 2 9 o 3232.99 3276.53
-4 2 9 o 0.47 0.29
-3 2 9 o 230.56 230.38
-2 2 9 o 285.97 297.75
-1 2 9 o 571.23 574.15
0 2 9 o 1.29 0.42
1 2 9 o 298.13 313.30
2 2 9 o 14.91 13.19
3 2 9 o 744.12 781.74
4 2 9 o 49.29 44.41
5 2 9 o 1325.64 1335.47
6 2 9 o 61.60 65.44
7 2 9 o 92.67 95.65
-7 3 9 o 1.13 0.70
-6 3 9 o 689.57 692.95
-5 3 9 o 18.43 18.40
-4 3 9 o 57.03 58.21
-3 3 9 o 28.04 29.16
-2 3 9 o 121.20 122.17
-1 3 9 o 73.58 71.41
0 3 9 o 182.68 174.20
1 3 9 o 17.20 16.08
2 3 9 o 203.40 215.10
3 3 9 o 441.14 448.06
4 3 9 o 492.39 492.99
5 3 9 o 36.43 34.57
6 3 9 o 383.62 368.01
7 3 9 o 23.97 26.68
-6 4 9 o 16.69 15.04
-5 4 9 o 11.07 5.64
-4 4 9 o 196.66 205.12
-3 4 9 o 333.50 358.60
-2 4 9 o 127.55 124.84
-1 4 9 o 17.56 19.35
0 4 9 o 286.57 296.22
1 4 9 o 394.53 401.20
2 4 9 o 47.04 51.66
3 4 9 o 735.97 755.51
4 4 9 o 38.46 34.85
5 4 9 o 28.83 27.30
6 4 9 o 31.11 20.28
-6 5 9 o 5.25 6.29
-5 5 9 o 48.33 49.47
-4 5 9 o 279.16 288.90
-3 5 9 o 2.27 1.44
-2 5 9 o 25.11 24.29
-1 5 9 o 499.53 518.75
0 5 9 o 27.71 28.73
1 5 9 o 60.27 58.52
2 5 9 o 158.50 155.97
3 5 9 o 1.59 1.34
4 5 9 o 1.97 1.21
5 5 9 o 46.66 46.31
-5 6 9 o 733.13 716.70
-4 6 9 o 31.05 32.16
-3 6 9 o 211.89 191.30
-2 6 9 o 22.05 18.06
-1 6 9 o 606.46 584.72
0 6 9 o 584.08 593.52
1 6 9 o 403.17 384.52
2 6 9 o 9.47 7.50
3 6 9 o 355.92 344.87
4 6 9 o 44.02 37.36
-3 7 9 o 20.88 16.36
-2 7 9 o 55.62 51.22
-1 7 9 o 120.65 123.74
0 7 9 o 109.21 121.18
1 7 9 o 112.29 109.45
2 7 9 o 97.48 98.20
3 7 9 o 233.16 249.68
-7 0 10 o 83.15 69.70
-6 0 10 o 398.91 397.37
-5 0 10 o 79.90 77.68
-4 0 10 o 371.82 380.24
-3 0 10 o 209.05 200.21
-2 0 10 o 345.36 341.45
-1 0 10 o 1129.09 1118.67
0 0 10 o 3.86 1.94
1 0 10 o 1.60 1.96
2 0 10 o 502.98 499.25
3 0 10 o 75.55 71.33
4 0 10 o 201.77 213.36
5 0 10 o 53.69 44.65
6 0 10 o 1.61 0.96
-7 1 10 o 64.42 57.52
-6 1 10 o 80.38 71.49
-5 1 10 o 101.76 107.50
-4 1 10 o 44.71 45.03
-3 1 10 o 544.95 563.00
-2 1 10 o 98.84 103.09
-1 1 10 o 48.19 47.04
0 1 10 o 272.00 269.96
1 1 10 o 22.90 24.48
2 1 10 o 2.86 2.59
3 1 10 o 3.62 2.10
4 1 10 o 10.88 11.37
5 1 10 o 42.60 46.24
6 1 10 o 52.81 50.59
-6 2 10 o 1021.82 1059.37
-5 2 10 o 3.62 2.27
-4 2 10 o 279.79 286.42
-3 2 10 o 9.55 8.60
-2 2 10 o 130.61 132.42
-1 2 10 o 937.07 938.52
0 2 10 o 373.36 373.77
1 2 10 o 1.27 0.94
2 2 10 o 654.64 649.38
3 2 10 o 590.88 586.35
4 2 10 o 3011.31 3048.18
5 2 10 o 68.43 74.17
6 2 10 o 106.45 104.15
-6 3 10 o 6.43 5.05
-5 3 10 o 54.93 63.35
-4 3 10 o 15.54 12.34
-3 3 10 o 7.89 4.35
-2 3 10 o 1.57 1.92
-1 3 10 o 43.60 40.04
0 3 10 o 21.40 21.71
1 3 10 o 43.20 43.19
2 3 10 o 1.93 2.03
3 3 10 o 199.92 193.84
4 3 10 o 0.76 1.49
5 3 10 o 596.75 604.90
6 3 10 o 68.06 60.56
-6 4 10 o 56.15 50.58
-5 4 10 o 19.59 18.06
-4 4 10 o 348.71 340.45
-3 4 10 o 158.05 150.54
-2 4 10 o 494.77 490.70
-1 4 10 o 356.54 350.21
0 4 10 o 4.00 2.78
1 4 10 o 1.00 1.32
2 4 10 o 418.62 421.31
3 4 10 o 323.73 302.12
4 4 10 o 1.95 0.83
5 4 10 o 1.16 0.08
-5 5 10 o 112.60 128.07
-4 5 10 o 38.15 39.93
-3 5 10 o 820.18 800.71
-2 5 10 o 111.02 112.66
-1 5 10 o 88.83 96.81
0 5 10 o 407.48 405.02
1 5 10 o 0.31 0.03
2 5 10 o 46.49 46.37
3 5 10 o 50.95 52.07
4 5 10 o 1.01 1.66
-3 6 10 o 2.85 1.66
-2 6 10 o 266.56 271.29
-1 6 10 o 899.04 892.58
0 6 10 o 327.56 328.23
1 6 10 o 2.08 4.13
2 6 10 o 345.86 357.52
3 6 10 o 26.23 21.10
-6 0 11 o 59.95 46.01
-5 0 11 o 1111.58 1135.87
-4 0 11 o 11.83 9.88
-3 0 11 o 0.87 0.19
-2 0 11 o 160.23 174.32
-1 0 11 o 1817.55 1858.31
0 0 11 o 294.58 291.56
1 0 11 o 18.31 14.62
2 0 11 o 323.37 317.32
3 0 11 o 1015.39 1030.38
4 0 11 o 139.69 138.31
5 0 11 o 469.23 477.08
6 0 11 o 0.69 0.28
-6 1 11 o 1.31 0.19
-5 1 11 o 1.70 1.17
-4 1 11 o 68.08 71.11
-3 1 11 o 22.33 23.35
-2 1 11 o 10.22 11.16
-1 1 11 o 163.95 168.89
0 1 11 o 66.26 66.20
1 1 11 o 439.94 437.44
2 1 11 o 3.77 3.71
3 1 11 o 28.71 24.33
4 1 11 o 137.65 135.26
5 1 11 o 83.32 75.05
6 1 11 o 94.12 90.39
-6 2 11 o 51.49 59.13
-5 2 11 o 0.04 0.01
-4 2 11 o 217.05 198.85
-3 2 11 o 330.91 323.43
-2 2 11 o 18.88 16.84
-1 2 11 o 204.42 209.23
0 2 11 o 17.35 12.61
1 2 11 o 56.17 57.09
2 2 11 o 156.76 159.61
3 2 11 o 1049.80 1065.49
4 2 11 o 84.40 77.88
5 2 11 o 17.42 20.03
-5 3 11 o 4.13 4.03
-4 3 11 o 41.44 43.58
-3 3 11 o 17.30 16.82
-2 3 11 o 66.46 68.88
-1 3 11 o 32.67 30.90
0 3 11 o 29.18 27.22
1 3 11 o 720.26 735.44
2 3 11 o 5.33 4.08
3 3 11 o 285.66 301.15
4 3 11 o 211.36 209.17
5 3 11 o 201.67 188.35
-5 4 11 o 696.18 720.88
-4 4 11 o 1.00 0.02
-3 4 11 o 128.35 120.35
-2 4 11 o 33.30 37.66
-1 4 11 o 780.37 777.50
0 4 11 o 162.88 156.21
1 4 11 o 81.65 78.22
2 4 11 o 2.01 1.01
3 4 11 o 290.09 285.45
4 4 11 o 8.57 8.92
-3 5 11 o 71.78 71.80
-2 5 11 o 11.27 12.89
-1 5 11 o 373.90 384.93
0 5 11 o 60.79 58.06
1 5 11 o 213.20 202.58
2 5 11 o 7.05 4.54
3 5 11 o 197.90 182.79
-1 6 11 o 1.77 1.06
0 6 11 o 20.08 14.45
1 6 11 o 171.57 181.09
-5 0 12 o 14.28 13.85
-4 0 12 o 124.06 108.42
-3 0 12 o 271.55 281.06
-2 0 12 o 666.58 665.68
-1 0 12 o 7.89 7.10
0 0 12 o 486.84 497.09
1 0 12 o 49.14 43.56
2 0 12 o 0.28 0.29
3 0 12 o 40.43 35.80
4 0 12 o 316.05 332.34
5 0 12 o 262.32 264.09
-5 1 12 o 452.28 446.52
-4 1 12 o 10.16 12.14
-3 1 12 o 79.93 90.58
-2 1 12 o 3.03 3.11
-1 1 12 o 156.03 154.39
0 1 12 o 42.25 47.18
1 1 12 o 0.34 0.00
2 1 12 o 65.94 78.42
3 1 12 o 3.56 4.29
4 1 12 o 0.20 0.20
-5 2 12 o 88.54 92.41
-4 2 12 o 177.11 161.05
-3 2 12 o 9.32 10.00
-2 2 12 o 1088.79 1051.10
-1 2 12 o 2.60 2.74
0 2 12 o 376.46 372.70
1 2 12 o 867.62 895.30
2 2 12 o 277.57 270.59
3 2 12 o 60.94 60.47
4 2 12 o 321.95 324.66
-4 3 12 o 33.03 35.00
-3 3 12 o 50.96 45.71
-2 3 12 o 4.65 1.58
-1 3 12 o 78.49 73.53
0 3 12 o 629.51 658.81
1 3 12 o 35.62 32.59
2 3 12 o 227.10 203.44
3 3 12 o 1.21 1.46
4 3 12 o 1.34 2.12
-3 4 12 o 114.78 110.30
-2 4 12 o 205.46 219.78
-1 4 12 o 3.78 3.97
0 4 12 o 228.41 246.03
1 4 12 o 266.05 261.56
2 4 12 o 7.86 8.16
3 4 12 o 100.36 96.19
-1 5 12 o 134.30 147.91
0 5 12 o 22.51 16.72
1 5 12 o 9.32 6.34
-4 0 13 o 35.00 30.89
-3 0 13 o 834.07 826.49
-2 0 13 o 74.53 75.84
-1 0 13 o 948.20 917.96
0 0 13 o 25.57 16.08
1 0 13 o 107.77 107.53
2 0 13 o 54.53 46.07
3 0 13 o 43.10 38.99
-3 1 13 o 5.60 3.33
-2 1 13 o 10.89 8.14
-1 1 13 o 76.98 71.35
0 1 13 o 55.74 50.14
1 1 13 o 45.78 51.58
2 1 13 o 0.26 0.11
3 1 13 o 208.53 210.69
-3 2 13 o 33.19 28.26
-2 2 13 o 0.19 0.34
-1 2 13 o 976.43 1019.36
0 2 13 o 234.48 224.93
1 2 13 o 15.78 17.38
2 2 13 o 11.95 14.62
3 2 13 o 193.43 189.53
-2 3 13 o 18.29 14.28
-1 3 13 o 121.52 119.72
0 3 13 o 4.80 5.65
1 3 13 o 159.48 171.34
2 3 13 o 23.49 23.85
0 0 14 o 283.34 280.19
