#------------------------------------------------------------------------------
#$Date: 2016-02-20 00:18:51 +0200 (Sat, 20 Feb 2016) $
#$Revision: 176760 $
#$URL: svn://www.crystallography.net/cod/cif/2/01/96/2019651.cif $
#------------------------------------------------------------------------------
#
# This file is available in the Crystallography Open Database (COD),
# http://www.crystallography.net/. The original data for this entry
# were provided by IUCr Journals, http://journals.iucr.org/.
#
# The file may be used within the scientific community so long as
# proper attribution is given to the journal article from which the
# data were obtained.
#
data_2019651
loop_
_publ_author_name
'Gras, Pierre'
'Ratel-Ramond, Nicolas'
'Teych\'en\'e, S\'ebastien'
'Rey, Christian'
'Elkaim, Erik'
'Biscans, B\'eatrice'
'Sarda, St\'ephanie'
'Combes, Christ\`ele'
_publ_section_title
;
 Structure of the calcium pyrophosphate monohydrate phase
 (Ca~2~P~2~O~7~&#x00B7;H~2~O): towards understanding the dehydration
 process in calcium pyrophosphate hydrates
;
_journal_coeditor_code           KU3136
_journal_issue                   9
_journal_name_full               'Acta Crystallographica Section C'
_journal_page_first
;
;
_journal_paper_doi               10.1107/S2053229614017446
_journal_volume                  70
_journal_year                    2014
_chemical_formula_iupac          'Ca2 P2 O7 , H2 O'
_chemical_formula_moiety         'O7 P2, H2 O, 2(Ca)'
_chemical_formula_sum            'Ca2 H2 O8 P2'
_chemical_formula_weight         272.12
_chemical_name_systematic
;
Calcium pyrophosphate monohydrate
;
_space_group_IT_number           14
_symmetry_cell_setting           monoclinic
_symmetry_space_group_name_Hall  '-P 2yn'
_symmetry_space_group_name_H-M   'P 1 21/n 1'
_atom_sites_solution_hydrogens   geom
_atom_sites_solution_primary     direct
_atom_sites_solution_secondary   difmap
_audit_creation_method           'WinGX routine CIF_UPDATE'
_cell_angle_alpha                90
_cell_angle_beta                 114.4(4)
_cell_angle_gamma                90
_cell_formula_units_Z            4
_cell_length_a                   10.16(14)
_cell_length_b                   6.97(5)
_cell_length_c                   10.77(10)
_cell_measurement_reflns_used    1804
_cell_measurement_temperature    180(2)
_cell_measurement_theta_max      27.8057
_cell_measurement_theta_min      3.6498
_cell_volume                     695(13)
_computing_cell_refinement       'SAINT (Bruker, 2007)'
_computing_data_collection       'APEX2 (Bruker, 2007)'
_computing_data_reduction        'SORTAV (Blessing, 1995)'
_computing_structure_refinement  'SHELXL2014 (Sheldrick, 2014)'
_computing_structure_solution    'SHELXS97 (Sheldrick, 2008)'
_diffrn_ambient_temperature      180(2)
_diffrn_measured_fraction_theta_full 0.99
_diffrn_measured_fraction_theta_max 0.987
_diffrn_measurement_device_type
'Bruker Kappa APEXII diffractometer with Quasar CCD area-detector'
_diffrn_measurement_method       '\f and \w'
_diffrn_radiation_monochromator  'multilayer optics'
_diffrn_radiation_type           MoK\a
_diffrn_radiation_wavelength     0.71073
_diffrn_reflns_av_R_equivalents  0.0585
_diffrn_reflns_limit_h_max       12
_diffrn_reflns_limit_h_min       -12
_diffrn_reflns_limit_k_max       8
_diffrn_reflns_limit_k_min       -8
_diffrn_reflns_limit_l_max       13
_diffrn_reflns_limit_l_min       -13
_diffrn_reflns_number            7104
_diffrn_reflns_theta_full        25.242
_diffrn_reflns_theta_max         26.369
_diffrn_reflns_theta_min         5.29
_exptl_absorpt_coefficient_mu    2.109
_exptl_absorpt_correction_T_max  0.9569
_exptl_absorpt_correction_T_min  0.6650
_exptl_absorpt_correction_type   multi-scan
_exptl_absorpt_process_details   '(SADABS; Bruker, 2001)'
_exptl_crystal_colour            colourless
_exptl_crystal_density_diffrn    2.602
_exptl_crystal_density_method    'not measured'
_exptl_crystal_description       needle
_exptl_crystal_F_000             544
_exptl_crystal_size_max          0.2
_exptl_crystal_size_mid          0.03
_exptl_crystal_size_min          0.02
_refine_diff_density_max         0.888
_refine_diff_density_min         -0.694
_refine_ls_extinction_method     none
_refine_ls_goodness_of_fit_ref   1.057
_refine_ls_hydrogen_treatment    refall
_refine_ls_matrix_type           full
_refine_ls_number_parameters     117
_refine_ls_number_reflns         1402
_refine_ls_number_restraints     0
_refine_ls_restrained_S_all      1.057
_refine_ls_R_factor_all          0.0812
_refine_ls_R_factor_gt           0.0505
_refine_ls_shift/su_max          0
_refine_ls_shift/su_mean         0
_refine_ls_structure_factor_coef Fsqd
_refine_ls_weighting_details
'w = 1/[\s^2^(Fo^2^)+(0.0566P)^2^+4.0170P] where P=(Fo^2^+2Fc^2^)/3'
_refine_ls_weighting_scheme      calc
_refine_ls_wR_factor_ref         0.1334
_reflns_number_gt                996
_reflns_number_total             1402
_reflns_threshold_expression     I>2\s(I)
_iucr_refine_instructions_details
;
TITL nicolas1m in P2(1)/n
CELL  0.71073  10.1577   6.9703  10.7705   90.000  114.388   90.000
ZERR     2.00   0.1366   0.0464   0.1003    0.000    0.384    0.000
LATT   1
SYMM  1/2 - X, 1/2 + Y, 1/2 - Z
SFAC  CA   H    O    P
UNIT  8    8    32   8
MERG   2
SHEL 4 0.8
FREE Ca1 P1
FMAP   2
PLAN   40
SIZE     0.02   0.03   0.20
ACTA
BOND
LIST   4
L.S.   8
TEMP   -93.15
WGHT    0.056600    4.017000
FVAR       0.63239
MOLE    1
O1    3    0.435615    0.441729    0.619794    11.00000    0.02325    0.02180 =
         0.01767    0.00215   -0.00024   -0.00109
O2    3    0.620839    0.226744    0.598643    11.00000    0.01797    0.01878 =
         0.01013   -0.00008   -0.00114   -0.00071
O3    3    0.409912    0.074325    0.634956    11.00000    0.02107    0.02129 =
         0.01052    0.00020   -0.00202    0.00211
O4    3    0.361957    0.222025    0.406102    11.00000    0.01985    0.02350 =
         0.01217   -0.00015   -0.00390   -0.00004
O5    3    0.431163    0.170062    0.875118    11.00000    0.03347    0.03518 =
         0.01703   -0.00322    0.00496    0.00509
O6    3    0.385380   -0.179294    0.784583    11.00000    0.02395    0.02570 =
         0.02402   -0.00110   -0.00119    0.00549
O7    3    0.630630   -0.026948    0.852201    11.00000    0.01569    0.03276 =
         0.01307    0.00482   -0.00295    0.00160
O8    3    0.593736    0.544515    0.915815    11.00000    0.02293    0.02962 =
         0.01690   -0.00393   -0.00170    0.00002
P1    4    0.455459    0.248663    0.560189    11.00000    0.01464    0.01958 =
         0.01149    0.00109   -0.00410    0.00072
P2    4    0.467902    0.008019    0.798982    11.00000    0.01664    0.02326 =
         0.01348   -0.00039   -0.00032   -0.00026
CA1   1    0.704092    0.510473    0.749528    11.00000    0.01629    0.01909 =
         0.01264    0.00051   -0.00195    0.00093
CA2   1    0.736717    0.303879    0.435441    11.00000    0.01924    0.03152 =
         0.01412    0.00037   -0.00082   -0.00235
H1    2    0.572356    0.420597    0.905253    11.00000    0.05460
H2    2    0.527801    0.629286    0.885657    11.00000    0.10471
HKLF 4
REM  nicolas1m in P2(1)/n
REM R1 =  0.0505 for     996 Fo > 4sig(Fo)  and  0.0812 for all    1402 data
REM    117 parameters refined using      0 restraints
END
WGHT      0.0566      4.0377
REM Highest difference peak  0.888,  deepest hole -0.694,  1-sigma level  0.158
Q1    1   0.2411 -0.1789  0.9346  11.00000  0.05    0.89
Q2    1   0.4603  0.3102  0.8782  11.00000  0.05    0.68
Q3    1   0.7875 -0.1144  0.7365  11.00000  0.05    0.66
Q4    1   0.7191  0.0131  0.7674  11.00000  0.05    0.65
Q5    1   0.8451  0.0093  0.6978  11.00000  0.05    0.59
Q6    1   0.4015  0.0023  0.8543  11.00000  0.05    0.59
Q7    1   0.0375  0.2529  0.9270  11.00000  0.05    0.59
Q8    1   0.2399  0.0451  0.9354  11.00000  0.05    0.58
Q9    1   0.1785  0.2263  1.0022  11.00000  0.05    0.57
Q10   1   0.2889  0.1864  0.8785  11.00000  0.05    0.56
Q11   1   0.0019  0.7191  0.9933  11.00000  0.05    0.54
Q12   1   0.0769  0.0587  0.9001  11.00000  0.05    0.54
Q13   1   0.0394 -0.1137  0.9359  11.00000  0.05    0.52
Q14   1   0.2326  0.3576  0.9465  11.00000  0.05    0.50
Q15   1   0.1551  0.4331  0.6831  11.00000  0.05    0.49
Q16   1   0.6980 -0.1417  0.7377  11.00000  0.05    0.48
Q17   1   0.3593  0.2765  1.1363  11.00000  0.05    0.48
Q18   1  -0.0400  0.7516  0.9086  11.00000  0.05    0.47
Q19   1   0.0743  0.3629  0.9680  11.00000  0.05    0.46
Q20   1   0.2199  0.6324  0.8709  11.00000  0.05    0.45
Q21   1   0.2479  0.4746  0.8717  11.00000  0.05    0.45
Q22   1   0.1355  0.2646  1.2033  11.00000  0.05    0.44
Q23   1   0.1474  0.5933  0.9198  11.00000  0.05    0.43
Q24   1   0.4753  0.1784  0.8243  11.00000  0.05    0.43
Q25   1   0.3147  0.4883  1.1033  11.00000  0.05    0.43
Q26   1   0.3574  0.6098  1.0390  11.00000  0.05    0.43
Q27   1   0.4920  0.2494  0.8037  11.00000  0.05    0.43
Q28   1   0.2319  0.1713  1.1647  11.00000  0.05    0.42
Q29   1   0.2705 -0.0755  1.0215  11.00000  0.05    0.42
Q30   1   0.4287  0.1119  1.1663  11.00000  0.05    0.41
Q31   1   0.3792  0.2141  0.9422  11.00000  0.05    0.41
Q32   1   0.0546  0.3700  0.7232  11.00000  0.05    0.40
Q33   1   0.2337  0.4115  0.6925  11.00000  0.05    0.40
Q34   1   0.3171  0.7045  0.9415  11.00000  0.05    0.40
Q35   1   0.1445  0.2026  0.9105  11.00000  0.05    0.40
Q36   1   0.5264  0.5821  1.0598  11.00000  0.05    0.39
Q37   1   0.1337  0.1479  1.1273  11.00000  0.05    0.39
Q38   1  -0.0287 -0.0238  0.9232  11.00000  0.05    0.38
Q39   1   0.0738  0.1919  0.7551  11.00000  0.05    0.38
Q40   1   0.3398  0.4302  1.0143  11.00000  0.05    0.37
;
_cod_data_source_file            ku3136sup1.cf
_cod_data_source_block           I
_cod_original_cell_volume        695(12)
_cod_original_sg_symbol_H-M      'P 21/n'
_cod_database_code               2019651
_cod_database_fobs_code          2019651
loop_
_symmetry_equiv_pos_as_xyz
'x, y, z'
'-x+1/2, y+1/2, -z+1/2'
'-x, -y, -z'
'x-1/2, -y-1/2, z-1/2'
loop_
_atom_site_type_symbol
_atom_site_label
_atom_site_fract_x
_atom_site_fract_y
_atom_site_fract_z
_atom_site_U_iso_or_equiv
_atom_site_adp_type
_atom_site_calc_flag
_atom_site_occupancy
O O1 0.4356(5) 0.4417(6) 0.6198(4) 0.0238(10) Uani d 1
O O2 0.6208(4) 0.2267(6) 0.5986(4) 0.0179(9) Uani d 1
O O3 0.4099(4) 0.0743(6) 0.6350(4) 0.0205(10) Uani d 1
O O4 0.3620(4) 0.2220(6) 0.4061(4) 0.0220(10) Uani d 1
O O5 0.4312(5) 0.1701(7) 0.8751(4) 0.0304(11) Uani d 1
O O6 0.3854(5) -0.1793(7) 0.7846(5) 0.0282(11) Uani d 1
O O7 0.6306(4) -0.0269(7) 0.8522(4) 0.0235(10) Uani d 1
O O8 0.5937(5) 0.5446(9) 0.9158(5) 0.0264(11) Uani d 1
P P1 0.45546(16) 0.2487(2) 0.56019(15) 0.0184(4) Uani d 1
P P2 0.46790(17) 0.0080(2) 0.79898(15) 0.0200(4) Uani d 1
Ca Ca1 0.70409(13) 0.51047(18) 0.74953(12) 0.0186(3) Uani d 1
Ca Ca2 0.73672(14) 0.3039(2) 0.43544(13) 0.0242(4) Uani d 1
H H1 0.572(10) 0.421(15) 0.905(9) 0.05(3) Uiso d 1
H H2 0.526(13) 0.631(19) 0.885(12) 0.10(4) Uiso d 1
loop_
_atom_site_aniso_label
_atom_site_aniso_U_11
_atom_site_aniso_U_22
_atom_site_aniso_U_33
_atom_site_aniso_U_12
_atom_site_aniso_U_13
_atom_site_aniso_U_23
O1 0.023(2) 0.022(2) 0.018(2) 0.0011(19) -0.0002(19) -0.0022(19)
O2 0.018(2) 0.019(2) 0.0101(19) 0.0007(17) -0.0011(17) 0.0001(17)
O3 0.021(2) 0.021(2) 0.011(2) -0.0021(19) -0.0020(17) -0.0002(18)
O4 0.020(2) 0.024(3) 0.012(2) 0.0000(19) -0.0039(17) 0.0001(18)
O5 0.033(3) 0.035(3) 0.017(2) 0.005(2) 0.005(2) -0.003(2)
O6 0.024(2) 0.026(3) 0.024(2) -0.005(2) -0.0012(19) 0.001(2)
O7 0.016(2) 0.033(3) 0.013(2) 0.0016(19) -0.0030(17) 0.0048(19)
O8 0.023(3) 0.030(3) 0.017(2) 0.000(2) -0.0017(19) -0.004(2)
P1 0.0146(8) 0.0196(8) 0.0115(7) -0.0007(7) -0.0041(6) -0.0011(6)
P2 0.0166(8) 0.0233(9) 0.0135(8) -0.0003(7) -0.0003(6) -0.0004(7)
Ca1 0.0163(6) 0.0191(7) 0.0126(6) -0.0009(5) -0.0020(5) -0.0005(5)
Ca2 0.0192(6) 0.0315(8) 0.0141(6) 0.0024(6) -0.0008(5) -0.0004(6)
loop_
_atom_type_symbol
_atom_type_description
_atom_type_scat_dispersion_real
_atom_type_scat_dispersion_imag
_atom_type_scat_source
Ca Ca 0.2262 0.3064 'International Tables Vol C Tables 4.2.6.8 and 6.1.1.4'
H H 0 0 'International Tables Vol C Tables 4.2.6.8 and 6.1.1.4'
O O 0.0106 0.006 'International Tables Vol C Tables 4.2.6.8 and 6.1.1.4'
P P 0.1023 0.0942 'International Tables Vol C Tables 4.2.6.8 and 6.1.1.4'
loop_
_geom_angle_atom_site_label_1
_geom_angle_atom_site_label_2
_geom_angle_atom_site_label_3
_geom_angle_site_symmetry_1
_geom_angle_site_symmetry_3
_geom_angle
P1 O1 Ca2 . 3_666 138.9(4)
P1 O1 Ca1 . . 95.6(5)
Ca2 O1 Ca1 3_666 . 120.4(6)
P1 O2 Ca1 . 2_646 131.1(5)
P1 O2 Ca1 . . 97.7(4)
Ca1 O2 Ca1 2_646 . 95.7(6)
P1 O2 Ca2 . . 123.3(6)
Ca1 O2 Ca2 2_646 . 100.4(8)
Ca1 O2 Ca2 . . 98.9(6)
P1 O3 P2 . . 132.7(4)
P1 O3 Ca2 . 3_656 138.8(5)
P2 O3 Ca2 . 3_656 86.9(4)
P1 O4 Ca1 . 3_666 121.7(5)
P1 O4 Ca1 . 4_565 140.2(4)
Ca1 O4 Ca1 3_666 4_565 96.9(6)
P2 O5 Ca2 . 4_566 129.1(4)
P2 O6 Ca2 . 3_656 117.4(4)
P2 O7 Ca1 . 2_646 132.2(7)
P2 O7 Ca2 . 2_646 121.6(4)
Ca1 O7 Ca2 2_646 2_646 105.4(8)
Ca1 O8 Ca2 . 2_656 97.6(7)
O1 P1 O4 . . 115.1(4)
O1 P1 O2 . . 106.6(3)
O4 P1 O2 . . 112.9(5)
O1 P1 O3 . . 109.5(6)
O4 P1 O3 . . 105.5(6)
O2 P1 O3 . . 106.9(5)
O1 P1 Ca1 . 3_666 83.6(6)
O4 P1 Ca1 . 3_666 36.1(4)
O2 P1 Ca1 . 3_666 109.0(4)
O3 P1 Ca1 . 3_666 136.0(5)
O6 P2 O7 . . 111.4(6)
O6 P2 O5 . . 116.2(6)
O7 P2 O5 . . 112.5(5)
O6 P2 O3 . . 100.9(4)
O7 P2 O3 . . 107.1(4)
O5 P2 O3 . . 107.7(6)
O6 P2 Ca2 . 3_656 38.6(4)
O7 P2 Ca2 . 3_656 114.8(5)
O5 P2 Ca2 . 3_656 132.4(7)
O3 P2 Ca2 . 3_656 62.9(5)
O6 P2 Ca2 . 2_646 89.1(7)
O7 P2 Ca2 . 2_646 36.4(4)
O5 P2 Ca2 . 2_646 100.3(7)
O3 P2 Ca2 . 2_646 141.8(4)
Ca2 P2 Ca2 3_656 2_646 114.4(6)
O6 P2 Ca2 . 4_566 85.8(7)
O7 P2 Ca2 . 4_566 135.3(6)
O5 P2 Ca2 . 4_566 31.1(2)
O3 P2 Ca2 . 4_566 109.5(6)
Ca2 P2 Ca2 3_656 4_566 104.2(8)
Ca2 P2 Ca2 2_646 4_566 108.0(8)
O7 Ca1 O2 2_656 2_656 85.2(8)
O7 Ca1 O4 2_656 3_666 79.1(5)
O2 Ca1 O4 2_656 3_666 84.4(6)
O7 Ca1 O4 2_656 4_666 81.7(7)
O2 Ca1 O4 2_656 4_666 81.6(7)
O4 Ca1 O4 3_666 4_666 157.0(3)
O7 Ca1 O2 2_656 . 74.0(6)
O2 Ca1 O2 2_656 . 155.4(3)
O4 Ca1 O2 3_666 . 103.9(7)
O4 Ca1 O2 4_666 . 82.6(6)
O7 Ca1 O8 2_656 . 163.91(19)
O2 Ca1 O8 2_656 . 82.9(8)
O4 Ca1 O8 3_666 . 110.4(5)
O4 Ca1 O8 4_666 . 85.9(7)
O2 Ca1 O8 . . 114.6(5)
O7 Ca1 O1 2_656 . 121.9(8)
O2 Ca1 O1 2_656 . 145.2(3)
O4 Ca1 O1 3_666 . 80.6(4)
O4 Ca1 O1 4_666 . 120.7(5)
O2 Ca1 O1 . . 59.4(3)
O8 Ca1 O1 . . 73.4(8)
O7 Ca1 P1 2_656 3_666 75.4(7)
O2 Ca1 P1 2_656 3_666 105.8(6)
O4 Ca1 P1 3_666 3_666 22.21(12)
O4 Ca1 P1 4_666 3_666 155.12(17)
O2 Ca1 P1 . 3_666 81.9(6)
O8 Ca1 P1 . 3_666 118.3(7)
O1 Ca1 P1 . 3_666 66.1(4)
O7 Ca1 Ca1 2_656 2_646 70.3(2)
O2 Ca1 Ca1 2_656 2_646 119.3(6)
O4 Ca1 Ca1 3_666 2_646 138.3(4)
O4 Ca1 Ca1 4_666 2_646 41.6(3)
O2 Ca1 Ca1 . 2_646 41.2(4)
O8 Ca1 Ca1 . 2_646 106.5(2)
O1 Ca1 Ca1 . 2_646 92.1(4)
P1 Ca1 Ca1 3_666 2_646 119.1(3)
O7 Ca1 Ca1 2_656 2_656 82.9(3)
O2 Ca1 Ca1 2_656 2_656 43.1(3)
O4 Ca1 Ca1 3_666 2_656 41.6(4)
O4 Ca1 Ca1 4_666 2_656 123.5(5)
O2 Ca1 Ca1 . 2_656 142.3(4)
O8 Ca1 Ca1 . 2_656 95.7(3)
O1 Ca1 Ca1 . 2_656 113.63(15)
P1 Ca1 Ca1 3_666 2_656 63.5(3)
Ca1 Ca1 Ca1 2_646 2_656 150.2(4)
O7 Ca1 Ca2 2_656 2_656 126.4(5)
O2 Ca1 Ca2 2_656 2_656 41.3(4)
O4 Ca1 Ca2 3_666 2_656 95.8(7)
O4 Ca1 Ca2 4_666 2_656 85.6(6)
O2 Ca1 Ca2 . 2_656 154.58(16)
O8 Ca1 Ca2 . 2_656 41.9(4)
O1 Ca1 Ca2 . 2_656 109.3(5)
P1 Ca1 Ca2 3_666 2_656 115.9(6)
Ca1 Ca1 Ca2 2_646 2_656 125.0(3)
Ca1 Ca1 Ca2 2_656 2_656 62.0(3)
O7 Ca1 Ca2 2_656 . 37.8(3)
O2 Ca1 Ca2 2_656 . 122.2(6)
O4 Ca1 Ca2 3_666 . 77.1(6)
O4 Ca1 Ca2 4_666 . 95.2(6)
O2 Ca1 Ca2 . . 41.2(3)
O8 Ca1 Ca2 . . 154.8(3)
O1 Ca1 Ca2 . . 84.7(7)
P1 Ca1 Ca2 3_666 . 60.6(6)
Ca1 Ca1 Ca2 2_646 . 61.4(2)
Ca1 Ca1 Ca2 2_656 . 104.5(3)
Ca2 Ca1 Ca2 2_656 . 163.2(2)
O5 Ca2 O6 4_665 3_656 84.4(7)
O5 Ca2 O1 4_665 3_666 119.5(6)
O6 Ca2 O1 3_656 3_666 89.8(5)
O5 Ca2 O7 4_665 2_656 91.2(7)
O6 Ca2 O7 3_656 2_656 171.85(18)
O1 Ca2 O7 3_666 2_656 86.5(6)
O5 Ca2 O2 4_665 . 153.8(2)
O6 Ca2 O2 3_656 . 114.7(7)
O1 Ca2 O2 3_666 . 80.1(6)
O7 Ca2 O2 2_656 . 71.8(8)
O5 Ca2 O8 4_665 2_646 78.5(7)
O6 Ca2 O8 3_656 2_646 108.1(5)
O1 Ca2 O8 3_666 2_646 156.5(3)
O7 Ca2 O8 2_656 2_646 77.6(6)
O2 Ca2 O8 . 2_646 78.6(8)
O5 Ca2 O3 4_665 3_656 113.1(4)
O6 Ca2 O3 3_656 3_656 54.0(3)
O1 Ca2 O3 3_666 3_656 110.9(8)
O7 Ca2 O3 2_656 3_656 134.2(3)
O2 Ca2 O3 . 3_656 70.3(4)
O8 Ca2 O3 2_646 3_656 70.7(7)
O5 Ca2 P2 4_665 3_656 100.1(7)
O6 Ca2 P2 3_656 3_656 23.99(16)
O1 Ca2 P2 3_666 3_656 97.6(7)
O7 Ca2 P2 2_656 3_656 164.04(14)
O2 Ca2 P2 . 3_656 93.7(7)
O8 Ca2 P2 2_646 3_656 93.5(7)
O3 Ca2 P2 3_656 3_656 30.3(2)
O5 Ca2 P2 4_665 2_656 69.8(9)
O6 Ca2 P2 3_656 2_656 154.1(3)
O1 Ca2 P2 3_666 2_656 101.3(7)
O7 Ca2 P2 2_656 2_656 22.0(2)
O2 Ca2 P2 . 2_656 90.4(9)
O8 Ca2 P2 2_646 2_656 69.2(6)
O3 Ca2 P2 3_656 2_656 138.1(2)
P2 Ca2 P2 3_656 2_656 161.11(12)
O5 Ca2 P2 4_665 4_665 19.8(2)
O6 Ca2 P2 3_656 4_665 83.1(7)
O1 Ca2 P2 3_666 4_665 99.6(7)
O7 Ca2 P2 2_656 4_665 90.3(7)
O2 Ca2 P2 . 4_665 162.09(16)
O8 Ca2 P2 2_646 4_665 97.6(8)
O3 Ca2 P2 3_656 4_665 125.3(4)
P2 Ca2 P2 3_656 4_665 104.1(7)
P2 Ca2 P2 2_656 4_665 72.0(8)
O5 Ca2 Ca1 4_665 2_646 116.9(5)
O6 Ca2 Ca1 3_656 2_646 121.9(6)
O1 Ca2 Ca1 3_666 2_646 116.9(4)
O7 Ca2 Ca1 2_656 2_646 66.3(6)
O2 Ca2 Ca1 . 2_646 38.3(4)
O8 Ca2 Ca1 2_646 2_646 40.5(4)
O3 Ca2 Ca1 3_656 2_646 68.1(5)
P2 Ca2 Ca1 3_656 2_646 98.3(6)
P2 Ca2 Ca1 2_656 2_646 73.8(6)
P2 Ca2 Ca1 4_665 2_646 133.8(5)
O5 Ca2 Ca1 4_665 . 127.8(3)
O6 Ca2 Ca1 3_656 . 146.5(6)
O1 Ca2 Ca1 3_666 . 67.5(4)
O7 Ca2 Ca1 2_656 . 36.8(6)
O2 Ca2 Ca1 . . 39.9(4)
O8 Ca2 Ca1 2_646 . 89.7(6)
O3 Ca2 Ca1 3_656 . 110.1(4)
P2 Ca2 Ca1 3_656 . 131.6(6)
P2 Ca2 Ca1 2_656 . 58.5(7)
P2 Ca2 Ca1 4_665 . 123.4(4)
Ca1 Ca2 Ca1 2_646 . 56.6(5)
loop_
_geom_bond_atom_site_label_1
_geom_bond_atom_site_label_2
_geom_bond_site_symmetry_2
_geom_bond_distance
_geom_bond_publ_flag
O1 P1 . 1.540(10) ?
O1 Ca2 3_666 2.388(18) ?
O1 Ca1 . 2.54(3) ?
O2 P1 . 1.56(2) ?
O2 Ca1 2_646 2.389(16) ?
O2 Ca1 . 2.476(14) ?
O2 Ca2 . 2.54(2) ?
O3 P1 . 1.627(9) ?
O3 P2 . 1.680(16) ?
O3 Ca2 3_656 2.968(18) ?
O4 P1 . 1.546(15) ?
O4 Ca1 3_666 2.410(14) ?
O4 Ca1 4_565 2.410(15) ?
O5 P2 . 1.530(9) ?
O5 Ca2 4_566 2.33(3) ?
O6 P2 . 1.524(11) ?
O6 Ca2 3_656 2.34(2) ?
O7 P2 . 1.53(2) ?
O7 Ca1 2_646 2.37(2) ?
O7 Ca2 2_646 2.427(18) ?
O8 Ca1 . 2.49(2) ?
O8 Ca2 2_656 2.554(16) ?
P1 Ca1 3_666 3.48(3) ?
P2 Ca2 3_656 3.33(2) ?
P2 Ca2 2_646 3.48(3) ?
P2 Ca2 4_566 3.50(3) ?
Ca1 O7 2_656 2.37(2) y
Ca1 O2 2_656 2.389(16) y
Ca1 O4 3_666 2.410(14) y
Ca1 O4 4_666 2.410(15) ?
Ca1 P1 3_666 3.48(3) ?
Ca1 Ca1 2_646 3.61(2) ?
Ca1 Ca1 2_656 3.61(2) ?
Ca1 Ca2 2_656 3.79(3) ?
Ca1 Ca2 . 3.81(3) ?
Ca2 O5 4_665 2.33(3) y
Ca2 O6 3_656 2.34(2) y
Ca2 O1 3_666 2.388(18) y
Ca2 O7 2_656 2.427(18) y
Ca2 O8 2_646 2.554(16) y
Ca2 O3 3_656 2.968(18) y
Ca2 P2 3_656 3.33(2) ?
Ca2 P2 2_656 3.48(3) ?
Ca2 P2 4_665 3.50(3) ?
Ca2 Ca1 2_646 3.79(3) ?
