#------------------------------------------------------------------------------
#$Date: 2015-05-13 22:35:40 +0300 (Wed, 13 May 2015) $
#$Revision: 136356 $
#$URL: svn://www.crystallography.net/cod/cif/2/01/99/2019930.cif $
#------------------------------------------------------------------------------
#
# This file is available in the Crystallography Open Database (COD),
# http://www.crystallography.net/. The original data for this entry
# were provided by IUCr Journals, http://journals.iucr.org/.
#
# The file may be used within the scientific community so long as
# proper attribution is given to the journal article from which the
# data were obtained.
#
data_2019930
loop_
_publ_author_name
'Yu, Zi-Qun'
'Wang, Jing-Quan'
'Huang, Ya-Xi'
'Botis, Sanda M.'
'Pan, Yuanming'
'Mi, Jin-Xiao'
_publ_section_title
;
 Polymorphism of NaVO~2~F~2~: a <i>P</i>2~1~/<i>c</i> superstructure with
 pseudosymmetry of <i>P</i>2~1~/<i>m</i> in the subcell
;
_journal_coeditor_code           YP3086
_journal_issue                   6
_journal_name_full               'Acta Crystallographica Section C'
_journal_page_first
;
;
_journal_paper_doi               10.1107/S2053229615008530
_journal_volume                  71
_journal_year                    2015
_chemical_formula_iupac          'Na V O2 F2'
_chemical_formula_moiety         'F2 O2 V, Na'
_chemical_formula_sum            'F2 Na O2 V'
_chemical_formula_weight         143.93
_chemical_name_systematic
;
Sodium vanadium dioxide difluoride
;
_space_group_crystal_system      monoclinic
_space_group_IT_number           14
_space_group_name_Hall           '-P 2ybc'
_space_group_name_H-M_alt        'P 1 21/c 1'
_symmetry_space_group_name_Hall  '-P 2ybc'
_symmetry_space_group_name_H-M   'P 1 21/c 1'
_atom_sites_solution_primary     direct
_atom_sites_solution_secondary   difmap
_audit_creation_method           SHELXL-2013
_cell_angle_alpha                90
_cell_angle_beta                 110.636(10)
_cell_angle_gamma                90
_cell_formula_units_Z            4
_cell_length_a                   6.3846(18)
_cell_length_b                   3.6024(9)
_cell_length_c                   14.387(4)
_cell_measurement_reflns_used    2232
_cell_measurement_temperature    173(2)
_cell_measurement_theta_max      28.226
_cell_measurement_theta_min      3.015
_cell_volume                     309.67(15)
_computing_cell_refinement
;
SAINT (Bruker, 2001)
;
_computing_data_collection
;
SMART (Bruker, 2001)
;
_computing_data_reduction
;
SAINT (Bruker, 2001)
;
_computing_molecular_graphics
;
DIAMOND (Brandenburg, 2012)
;
_computing_publication_material
;
SHELXL2013 (Sheldrick, 2015)
;
_computing_structure_refinement
;
SHELXL2013 (Sheldrick, 2015)
;
_computing_structure_solution
;
SHELXS2013 (Sheldrick, 2015)
;
_diffrn_ambient_temperature      173(2)
_diffrn_measured_fraction_theta_full 0.993
_diffrn_measured_fraction_theta_max 0.947
_diffrn_measurement_device_type  'Bruker CCD area-detector'
_diffrn_measurement_method
'1265 images,\f=0, 90, 180 degree, and \D\w=0.3 degree, \c= 54.74 degree'
_diffrn_radiation_monochromator  graphite
_diffrn_radiation_source         'fine-focus sealed tube'
_diffrn_radiation_type           MoK\a
_diffrn_radiation_wavelength     0.71073
_diffrn_reflns_av_R_equivalents  0.0201
_diffrn_reflns_limit_h_max       8
_diffrn_reflns_limit_h_min       -8
_diffrn_reflns_limit_k_max       4
_diffrn_reflns_limit_k_min       -4
_diffrn_reflns_limit_l_max       18
_diffrn_reflns_limit_l_min       -18
_diffrn_reflns_number            2232
_diffrn_reflns_theta_full        25.242
_diffrn_reflns_theta_max         28.563
_diffrn_reflns_theta_min         3.026
_diffrn_standards_number         0
_exptl_absorpt_coefficient_mu    3.209
_exptl_absorpt_correction_T_max  0.834
_exptl_absorpt_correction_T_min  0.635
_exptl_absorpt_correction_type   multi-scan
_exptl_absorpt_process_details
;
(SMART; Bruker, 2001)
;
_exptl_crystal_colour            green
_exptl_crystal_density_diffrn    3.087
_exptl_crystal_description       prism
_exptl_crystal_F_000             272
_exptl_crystal_size_max          0.500
_exptl_crystal_size_mid          0.300
_exptl_crystal_size_min          0.100
_refine_diff_density_max         0.643
_refine_diff_density_min         -0.627
_refine_ls_extinction_coef       0.049(5)
_refine_ls_extinction_expression Fc^*^=kFc[1+0.001xFc^2^\l^3^/sin(2\q)]^-1/4^
_refine_ls_extinction_method
;
SHELXL2013 (Sheldrick, 2015)
;
_refine_ls_goodness_of_fit_ref   1.084
_refine_ls_hydrogen_treatment    undef
_refine_ls_matrix_type           full
_refine_ls_number_parameters     56
_refine_ls_number_reflns         744
_refine_ls_number_restraints     0
_refine_ls_restrained_S_all      1.084
_refine_ls_R_factor_all          0.0264
_refine_ls_R_factor_gt           0.0259
_refine_ls_shift/su_max          0.000
_refine_ls_shift/su_mean         0.000
_refine_ls_structure_factor_coef Fsqd
_refine_ls_weighting_details
;
w=1/[\s^2^(Fo^2^)+(0.0412P)^2^+0.4648P] where P=(Fo^2^+2Fc^2^)/3
;
_refine_ls_weighting_scheme      calc
_refine_ls_wR_factor_gt          0.0778
_refine_ls_wR_factor_ref         0.0786
_reflns_number_gt                726
_reflns_number_total             744
_reflns_threshold_expression     I>2\s(I)
_cod_data_source_file            yp3086sup1.cif
_cod_data_source_block           yzq173
_cod_database_code               2019930
_shelx_space_group_comment
;
The symmetry employed for this shelxl refinement is uniquely defined
by the following loop, which should always be used as a source of
symmetry information in preference to the above space-group names.
They are only intended as comments.
;
_shelx_estimated_absorpt_t_min   0.297
_shelx_estimated_absorpt_t_max   0.740
_shelx_hkl_file
;
   4  -1 -18    0.27    0.07
   4   0 -18   36.08    1.36
   5   0 -18    0.59    0.13
   5   1 -18   83.77    2.98
   2  -2 -17    0.17    0.06
   3  -2 -17    0.93    0.12
   3  -1 -17    0.02    0.03
   4  -1 -17    0.47    0.10
   5  -1 -17    0.09    0.04
   4   0 -17    0.06    0.04
   5   0 -17    0.06    0.05
   4   1 -17    0.47    0.11
   5   1 -17    0.10    0.05
   2  -2 -16   20.09    0.82
   3  -2 -16    3.63    0.26
   4  -2 -16    1.30    0.15
   2  -1 -16   18.51    0.75
   3  -1 -16   73.80    2.59
   4  -1 -16   53.47    2.01
   5  -1 -16    8.25    0.42
  -2   0 -16   49.82    1.66
   3   0 -16    6.03    0.32
   4   0 -16    0.98    0.12
   5   0 -16   29.22    1.17
   6   0 -16   29.67    1.20
  -1   1 -16   74.32    2.32
   4   1 -16   58.42    2.06
   6   1 -16   30.74    1.26
   1   2 -16    6.03    0.31
   1  -2 -15    1.93    0.18
   2  -2 -15    1.44    0.15
   3  -2 -15    0.24    0.08
   4  -2 -15    0.49    0.12
   5  -2 -15    2.19    0.21
   2  -1 -15    0.06    0.04
   3  -1 -15    0.25    0.07
   4  -1 -15    0.48    0.10
   5  -1 -15    0.02    0.03
   6  -1 -15    0.05    0.04
  -2   0 -15    0.03    0.04
  -1   0 -15    0.01    0.03
   3   0 -15    0.01    0.03
   4   0 -15    0.00    0.03
   5   0 -15   -0.01    0.03
   6   0 -15   -0.01    0.03
  -2   1 -15    0.06    0.05
  -1   1 -15    0.12    0.06
   0   1 -15    0.20    0.06
   3   1 -15    0.37    0.09
   4   1 -15    0.37    0.09
   5   1 -15    0.00    0.04
   6   1 -15    0.14    0.07
  -1   2 -15    0.28    0.07
   0   2 -15    0.59    0.10
   1   2 -15    2.43    0.16
   2   2 -15    1.70    0.13
   3   3 -15    0.61    0.08
   0  -3 -14    3.58    0.26
   1  -3 -14   28.28    1.06
   2  -3 -14   25.50    1.07
   1  -2 -14    6.90    0.38
   2  -2 -14   15.18    0.68
   3  -2 -14   13.39    0.62
   4  -2 -14   64.21    2.23
   5  -2 -14    0.38    0.10
  -3  -1 -14   21.73    0.84
  -2  -1 -14   42.06    1.42
   1  -1 -14   50.35    1.78
   2  -1 -14   45.13    1.65
   3  -1 -14   66.52    2.33
   4  -1 -14   14.42    0.64
   5  -1 -14  101.79    3.45
   6  -1 -14   23.74    0.98
  -3   0 -14   40.69    1.38
  -2   0 -14    2.04    0.17
  -1   0 -14    9.80    0.42
   2   0 -14   32.36    1.18
   3   0 -14   19.29    0.78
   4   0 -14  103.20    3.57
   5   0 -14    0.29    0.09
   6   0 -14  116.74    4.02
   7   0 -14   15.59    0.73
  -2   1 -14   43.90    1.43
  -1   1 -14   31.80    1.08
   0   1 -14   10.72    0.43
   1   1 -14   50.39    1.57
   3   1 -14   67.63    2.35
   4   1 -14   14.32    0.66
   5   1 -14   98.38    3.48
   6   1 -14   23.46    0.99
  -1   2 -14    6.87    0.34
   0   2 -14   39.52    1.30
   1   2 -14    6.85    0.32
   2   2 -14   15.23    0.55
   1   3 -14   22.52    0.88
   2   3 -14   26.00    0.89
   3   3 -14   26.91    0.90
   4   3 -14    3.08    0.20
   0  -3 -13    5.26    0.32
   1  -3 -13    1.24    0.14
   2  -3 -13    2.16    0.20
   3  -3 -13    0.25    0.08
   4  -3 -13   13.56    0.71
   0  -2 -13    0.49    0.10
   1  -2 -13    0.71    0.12
   2  -2 -13    3.76    0.26
   3  -2 -13    3.71    0.27
   4  -2 -13    0.26    0.08
   5  -2 -13    0.77    0.15
   6  -2 -13    4.82    0.32
  -3  -1 -13    0.16    0.06
  -2  -1 -13    0.49    0.10
   1  -1 -13    0.55    0.10
   2  -1 -13    0.60    0.09
   3  -1 -13    0.21    0.07
   4  -1 -13    3.80    0.25
   5  -1 -13    0.24    0.08
   6  -1 -13    0.08    0.05
   7  -1 -13    0.03    0.04
  -3   0 -13    0.02    0.04
  -2   0 -13    0.01    0.03
  -1   0 -13    0.02    0.04
   0   0 -13    0.07    0.04
   2   0 -13    0.04    0.04
   3   0 -13    0.02    0.03
   4   0 -13    0.03    0.03
   5   0 -13    0.07    0.04
   6   0 -13    0.09    0.04
   7   0 -13    0.03    0.04
  -3   1 -13    0.05    0.05
  -2   1 -13    0.51    0.10
  -1   1 -13    0.23    0.07
   0   1 -13    1.68    0.13
   1   1 -13    0.64    0.09
   2   1 -13    0.60    0.05
   3   1 -13    0.18    0.06
   4   1 -13    3.61    0.26
   5   1 -13    0.16    0.06
   6   1 -13    0.07    0.05
   7   1 -13    0.06    0.04
  -2   2 -13    0.66    0.12
  -1   2 -13    2.92    0.20
   0   2 -13    0.62    0.10
   1   2 -13    0.64    0.10
   2   2 -13    4.63    0.22
   3   2 -13    4.27    0.20
   0   3 -13    5.45    0.29
   1   3 -13    1.24    0.12
   2   3 -13    2.10    0.15
   3   3 -13    0.45    0.07
   4   3 -13   14.95    0.53
  -1  -3 -12   25.52    0.98
   0  -3 -12    9.39    0.47
   1  -3 -12   78.61    2.78
   2  -3 -12    0.99    0.17
   3  -3 -12   59.71    2.12
   4  -3 -12   10.27    0.55
  -3  -2 -12    1.11    0.13
   0  -2 -12   13.50    0.58
   1  -2 -12    2.10    0.17
   2  -2 -12  164.02    5.43
   3  -2 -12    6.18    0.34
   4  -2 -12    3.17    0.24
   5  -2 -12    8.55    0.44
   6  -2 -12   87.16    3.00
  -3  -1 -12  117.17    3.53
  -1  -1 -12   75.41    2.34
   0  -1 -12    9.34    0.42
   1  -1 -12  207.91    6.88
   2  -1 -12    1.24    0.12
   3  -1 -12  180.62    5.84
   4  -1 -12   11.88    0.53
   5  -1 -12   36.79    1.39
   6  -1 -12    2.22    0.19
   7  -1 -12   52.23    1.92
  -4   0 -12   32.87    1.19
  -3   0 -12    2.21    0.18
  -2   0 -12   92.21    2.83
  -1   0 -12    0.28    0.07
   0   0 -12   26.02    0.85
   1   0 -12    8.43    0.24
   2   0 -12  281.24    9.16
   3   0 -12    6.48    0.34
   4   0 -12    5.14    0.30
   5   0 -12    7.96    0.41
   6   0 -12  141.05    4.78
   7   0 -12    7.47    0.39
  -3   1 -12  116.24    3.53
  -1   1 -12   78.09    2.35
   0   1 -12    9.53    0.39
   1   1 -12  205.91    6.11
   2   1 -12    1.03    0.06
   3   1 -12  165.83    5.84
   4   1 -12   11.30    0.54
   5   1 -12   38.37    1.42
   6   1 -12    2.12    0.19
   7   1 -12   53.41    1.93
  -2   2 -12   56.62    1.80
   0   2 -12   13.46    0.52
   1   2 -12    1.68    0.13
   2   2 -12  164.74    4.77
   3   2 -12    5.22    0.23
   4   2 -12    3.11    0.16
  -1   3 -12   22.97    0.88
   0   3 -12    9.61    0.42
   1   3 -12   80.53    2.45
   2   3 -12    0.90    0.09
   3   3 -12   57.48    1.78
   4   3 -12   10.76    0.40
   5   3 -12   16.17    0.57
  -1  -3 -11    5.17    0.31
   0  -3 -11    1.56    0.15
   1  -3 -11    2.78    0.22
   2  -3 -11    1.08    0.13
   3  -3 -11    3.32    0.26
   4  -3 -11    0.91    0.16
   5  -3 -11    1.86    0.20
  -3  -2 -11    6.42    0.34
  -2  -2 -11    0.10    0.04
  -1  -2 -11    3.45    0.21
   0  -2 -11    0.07    0.03
   1  -2 -11   13.07    0.57
   2  -2 -11    0.00    0.04
   3  -2 -11    1.72    0.16
   4  -2 -11    0.14    0.06
   5  -2 -11    4.33    0.30
   6  -2 -11    0.18    0.07
   7  -2 -11    0.31    0.08
  -4  -1 -11    0.36    0.09
  -3  -1 -11    1.04    0.12
  -2  -1 -11    0.02    0.03
  -1  -1 -11    2.16    0.15
   0  -1 -11    0.42    0.05
   1  -1 -11    1.14    0.11
   2  -1 -11    0.13    0.05
   3  -1 -11    1.60    0.15
   4  -1 -11    0.27    0.08
   5  -1 -11    0.52    0.11
   6  -1 -11   -0.04    0.03
   7  -1 -11    0.27    0.08
  -4   0 -11   -0.01    0.03
  -3   0 -11    0.00    0.03
  -2   0 -11    0.08    0.04
  -1   0 -11    0.03    0.03
   0   0 -11    0.03    0.03
   1   0 -11    0.02    0.02
   2   0 -11    0.04    0.03
   3   0 -11    0.04    0.04
   4   0 -11    0.02    0.03
   5   0 -11   -0.01    0.02
   6   0 -11    0.00    0.03
   7   0 -11   -0.01    0.03
   8   0 -11    0.04    0.04
  -4   1 -11    0.29    0.09
  -3   1 -11    0.91    0.14
  -2   1 -11    0.02    0.04
  -1   1 -11    2.14    0.16
   0   1 -11    0.52    0.08
   1   1 -11    1.15    0.07
   2   1 -11    0.19    0.03
   3   1 -11    1.65    0.08
   4   1 -11    0.22    0.07
   5   1 -11    0.63    0.12
   6   1 -11    0.00    0.03
   7   1 -11    0.43    0.10
  -3   2 -11    6.16    0.35
  -2   2 -11    0.13    0.05
  -1   2 -11    3.71    0.22
   0   2 -11    0.02    0.03
   1   2 -11   14.11    0.49
   2   2 -11    0.03    0.02
   3   2 -11    1.69    0.11
   4   2 -11    0.13    0.03
  -1   3 -11    5.39    0.29
   0   3 -11    1.87    0.14
   1   3 -11    3.01    0.18
   2   3 -11    1.04    0.10
   3   3 -11    3.46    0.18
   4   3 -11    0.85    0.08
   5   3 -11    1.59    0.12
  -2  -3 -10    9.37    0.46
  -1  -3 -10   82.63    2.78
   0  -3 -10   28.94    1.10
   1  -3 -10    0.96    0.12
   2  -3 -10   35.94    1.35
   3  -3 -10   59.51    2.13
   4  -3 -10    5.24    0.34
   5  -3 -10    1.85    0.19
   6  -3 -10   19.28    0.87
  -4  -2 -10   28.93    1.06
  -3  -2 -10    4.47    0.26
  -1  -2 -10    8.61    0.39
   0  -2 -10   88.78    2.94
   1  -2 -10   21.39    0.84
   2  -2 -10    1.47    0.14
   3  -2 -10   81.68    2.84
   4  -2 -10   76.96    2.62
   5  -2 -10    6.06    0.37
   6  -2 -10    1.11    0.14
   7  -2 -10   42.42    1.60
  -4  -1 -10   12.53    0.56
  -3  -1 -10    1.92    0.16
  -2  -1 -10   14.82    0.56
  -1  -1 -10  222.41    6.50
   0  -1 -10   92.21    2.02
   2  -1 -10   91.39    3.15
   3  -1 -10  155.02    5.22
   4  -1 -10   15.11    0.66
   5  -1 -10    0.96    0.12
   6  -1 -10   40.93    1.50
   7  -1 -10   58.02    2.07
   8  -1 -10    0.08    0.05
  -4   0 -10   44.11    1.48
  -3   0 -10    3.53    0.23
  -2   0 -10   16.83    0.65
  -1   0 -10   18.59    0.66
   0   0 -10  157.02    3.42
   1   0 -10   34.10    0.78
   2   0 -10    6.38    0.18
   3   0 -10  160.09    5.32
   4   0 -10  107.58    3.74
   5   0 -10    6.33    0.34
   6   0 -10    1.94    0.17
   7   0 -10   68.19    2.36
   8   0 -10   74.34    2.60
  -4   1 -10   13.63    0.57
  -3   1 -10    1.64    0.16
  -2   1 -10   14.75    0.57
  -1   1 -10  226.39    6.52
   0   1 -10   87.49    2.71
   1   1 -10    0.28    0.04
   2   1 -10   93.58    2.07
   3   1 -10  158.01    3.44
   4   1 -10   16.34    0.41
   5   1 -10    1.08    0.12
   6   1 -10   41.54    1.49
   7   1 -10   58.44    2.06
  -3   2 -10    4.55    0.28
  -2   2 -10   10.19    0.45
  -1   2 -10    8.38    0.37
   0   2 -10   86.44    2.62
   1   2 -10   22.25    0.73
   2   2 -10    1.25    0.09
   3   2 -10   79.03    2.44
   4   2 -10   72.98    2.23
   5   2 -10    6.37    0.26
  -2   3 -10    8.91    0.43
  -1   3 -10   78.32    2.49
   0   3 -10   27.97    0.96
   1   3 -10    1.37    0.11
   2   3 -10   36.34    1.14
   3   3 -10   58.50    1.81
   4   3 -10    5.00    0.24
   5   3 -10    1.82    0.12
   6   3 -10   20.00    0.68
   1  -4  -9    0.67    0.13
  -2  -3  -9    2.02    0.17
  -1  -3  -9    0.06    0.04
   0  -3  -9    4.42    0.27
   1  -3  -9    3.35    0.23
   2  -3  -9    2.77    0.21
   3  -3  -9    0.09    0.06
   4  -3  -9    6.94    0.41
   5  -3  -9    2.79    0.23
   6  -3  -9    2.02    0.20
  -4  -2  -9    0.07    0.05
  -2  -2  -9    0.58    0.07
  -1  -2  -9    0.05    0.03
   0  -2  -9    0.00    0.02
   1  -2  -9    0.32    0.07
   2  -2  -9    2.70    0.19
   3  -2  -9    0.33    0.08
   5  -2  -9    0.12    0.06
   6  -2  -9    2.83    0.22
   7  -2  -9    0.08    0.05
  -5  -1  -9   -0.05    0.04
  -4  -1  -9    0.06    0.04
  -3  -1  -9    0.12    0.04
  -2  -1  -9    0.60    0.09
  -1  -1  -9    0.02    0.01
   0  -1  -9    1.42    0.07
   1  -1  -9    1.35    0.06
   2  -1  -9    0.57    0.10
   3  -1  -9    0.04    0.04
   4  -1  -9    2.31    0.18
   5  -1  -9    0.60    0.11
   6  -1  -9    0.58    0.11
   7  -1  -9    0.03    0.03
   8  -1  -9    1.15    0.13
  -5   0  -9    0.02    0.04
  -4   0  -9    0.02    0.04
  -3   0  -9    0.02    0.03
  -2   0  -9    0.02    0.03
  -1   0  -9    0.06    0.03
   0   0  -9    0.08    0.02
   1   0  -9   -0.04    0.02
   2   0  -9   -0.03    0.01
   3   0  -9    0.06    0.04
   4   0  -9    0.04    0.04
   5   0  -9    0.07    0.04
   6   0  -9    0.08    0.04
   7   0  -9    0.10    0.04
   8   0  -9    0.05    0.04
  -5   1  -9    0.08    0.05
  -4   1  -9   -0.02    0.04
  -3   1  -9    0.08    0.05
  -2   1  -9    0.45    0.09
  -1   1  -9    0.02    0.03
   0   1  -9    1.01    0.09
   1   1  -9    1.37    0.07
   2   1  -9    0.85    0.05
   3   1  -9    0.07    0.02
   4   1  -9    2.34    0.09
   5   1  -9    0.63    0.09
   6   1  -9    0.51    0.10
   7   1  -9    0.04    0.03
  -4   2  -9    0.04    0.04
  -3   2  -9    0.15    0.06
  -2   2  -9    0.65    0.11
   0   2  -9    0.02    0.03
   1   2  -9    0.26    0.05
   2   2  -9    2.67    0.14
   3   2  -9    0.27    0.05
   4   2  -9    0.39    0.06
   5   2  -9    0.09    0.03
   6   2  -9    3.17    0.16
  -3   3  -9    0.27    0.08
  -2   3  -9    1.78    0.16
  -1   3  -9    0.09    0.04
   0   3  -9    4.13    0.22
   1   3  -9    3.68    0.19
   2   3  -9    2.91    0.16
   3   3  -9    0.15    0.04
   4   3  -9    7.50    0.30
   5   3  -9    2.67    0.15
   6   3  -9    2.07    0.14
   1   4  -9    0.72    0.09
   2   4  -9    2.02    0.15
   0  -4  -8    9.34    0.49
   1  -4  -8    0.92    0.13
   2  -4  -8   42.80    1.63
   3  -4  -8   18.03    0.82
  -2  -3  -8   35.90    1.31
  -1  -3  -8    1.75    0.15
   0  -3  -8   15.84    0.68
   1  -3  -8   65.69    2.31
   2  -3  -8    6.63    0.36
   3  -3  -8   14.35    0.64
   4  -3  -8    1.96    0.19
   5  -3  -8   27.63    1.12
   6  -3  -8    1.09    0.14
  -2  -2  -8   41.73    1.43
  -1  -2  -8   72.12    2.41
   0  -2  -8   40.26    1.35
   1  -2  -8    0.30    0.07
   2  -2  -8  205.21    6.54
   3  -2  -8   57.26    2.03
   4  -2  -8   22.45    0.87
   5  -2  -8    0.36    0.10
   6  -2  -8  174.67    5.83
   7  -2  -8   46.19    1.70
  -5  -1  -8    1.84    0.17
  -4  -1  -8    6.47    0.33
  -3  -1  -8  103.41    3.17
  -2  -1  -8   90.59    2.73
  -1  -1  -8   11.84    0.31
   0  -1  -8   40.15    0.92
   1  -1  -8  172.29    3.70
   2  -1  -8   10.82    0.46
   3  -1  -8   53.92    1.90
   4  -1  -8    0.29    0.08
   5  -1  -8   67.26    2.35
   6  -1  -8    2.85    0.19
   7  -1  -8   84.99    2.86
  -5   0  -8   13.86    0.61
  -4   0  -8   28.85    1.02
  -3   0  -8   42.12    1.38
  -2   0  -8   75.97    2.31
  -1   0  -8  143.90    3.16
   0   0  -8   71.21    1.58
   1   0  -8    0.10    0.02
   2   0  -8  334.04    7.54
   3   0  -8  102.58    2.23
   4   0  -8   39.46    1.34
   5   0  -8    0.83    0.10
   6   0  -8  304.27    9.83
   7   0  -8   73.28    2.45
   8   0  -8    0.25    0.07
  -5   1  -8    1.67    0.17
  -4   1  -8    6.24    0.35
  -3   1  -8  105.46    3.20
  -2   1  -8   90.47    2.76
   0   1  -8   39.82    0.91
   1   1  -8  170.00    3.70
   2   1  -8   10.83    0.28
   3   1  -8   56.33    1.62
   4   1  -8    0.28    0.03
   5   1  -8   69.37    2.34
   6   1  -8    2.39    0.18
   7   1  -8   82.48    2.84
  -4   2  -8   19.85    0.77
  -3   2  -8   19.23    0.75
  -2   2  -8   37.85    1.32
  -1   2  -8   68.30    2.16
   0   2  -8   39.60    1.20
   1   2  -8    0.29    0.05
   2   2  -8  194.29    5.77
   3   2  -8   56.56    1.73
   4   2  -8   21.20    0.69
   5   2  -8    0.24    0.04
   6   2  -8  179.93    5.12
  -3   3  -8   40.90    1.43
  -2   3  -8   33.82    1.18
  -1   3  -8    1.51    0.13
   0   3  -8   15.93    0.57
   1   3  -8   66.02    2.01
   2   3  -8    6.41    0.28
   3   3  -8   13.23    0.49
   4   3  -8    2.36    0.14
   5   3  -8   28.39    0.91
   6   3  -8    1.08    0.10
   0   4  -8    9.28    0.40
   1   4  -8    1.07    0.10
   2   4  -8   44.11    1.39
   3   4  -8   18.49    0.65
  -1  -4  -7    7.42    0.41
   0  -4  -7    1.17    0.14
   1  -4  -7   17.22    0.77
   2  -4  -7    0.94    0.13
   3  -4  -7    1.72    0.18
   4  -4  -7    0.84    0.16
  -3  -3  -7    1.08    0.12
  -2  -3  -7    1.26    0.13
  -1  -3  -7    5.69    0.32
   0  -3  -7    7.28    0.37
   1  -3  -7    1.77    0.16
   2  -3  -7    2.91    0.21
   3  -3  -7    9.48    0.48
   4  -3  -7   10.98    0.53
   5  -3  -7    0.41    0.10
  -2  -2  -7    0.04    0.03
  -1  -2  -7    6.05    0.29
   0  -2  -7    1.12    0.11
   1  -2  -7   22.04    0.83
   2  -2  -7    3.38    0.21
   3  -2  -7    1.18    0.13
   4  -2  -7    1.51    0.15
   5  -2  -7   11.87    0.55
   6  -2  -7    1.27    0.13
  -5  -1  -7    1.02    0.12
  -4  -1  -7    0.25    0.07
  -3  -1  -7    0.74    0.09
  -2  -1  -7    0.49    0.05
  -1  -1  -7    3.42    0.17
   0  -1  -7    1.89    0.12
   1  -1  -7    1.24    0.05
   2  -1  -7    1.28    0.11
   3  -1  -7    5.41    0.29
   4  -1  -7    3.01    0.20
   5  -1  -7    0.14    0.05
   6  -1  -7    0.48    0.09
   7  -1  -7    1.18    0.12
  -6   0  -7    0.02    0.04
  -5   0  -7    0.03    0.04
  -4   0  -7    0.03    0.03
  -3   0  -7    0.02    0.03
  -2   0  -7    0.03    0.03
  -1   0  -7    0.00    0.01
   0   0  -7   -0.04    0.02
   1   0  -7   -0.01    0.01
   2   0  -7   -0.10    0.04
   3   0  -7   -0.07    0.02
   4   0  -7    0.03    0.01
   5   0  -7    0.04    0.03
   6   0  -7    0.08    0.03
   7   0  -7    0.06    0.04
  -5   1  -7    0.97    0.16
  -4   1  -7    0.28    0.08
  -3   1  -7    0.74    0.12
  -2   1  -7    0.47    0.08
  -1   1  -7    3.31    0.18
   0   1  -7    2.34    0.12
   1   1  -7    1.21    0.06
   2   1  -7    1.28    0.06
   3   1  -7    5.91    0.17
   4   1  -7    3.18    0.11
   5   1  -7    0.07    0.02
   6   1  -7    0.38    0.08
  -5   2  -7    2.05    0.20
  -4   2  -7    0.99    0.15
  -3   2  -7    6.98    0.36
  -2   2  -7    0.02    0.03
   0   2  -7    1.27    0.09
   1   2  -7   21.68    0.71
   2   2  -7    3.14    0.15
   3   2  -7    1.26    0.08
   4   2  -7    1.30    0.09
   5   2  -7   12.50    0.43
   6   2  -7    1.40    0.10
   7   2  -7    0.22    0.05
  -4   3  -7    0.65    0.12
  -3   3  -7    1.31    0.13
  -2   3  -7    1.23    0.12
  -1   3  -7    6.12    0.28
   0   3  -7    7.48    0.31
   1   3  -7    1.95    0.13
   2   3  -7    3.22    0.17
   3   3  -7    9.64    0.37
   4   3  -7   10.49    0.40
   5   3  -7    0.31    0.06
   6   3  -7    1.54    0.12
  -1   4  -7    7.25    0.34
   0   4  -7    1.14    0.11
   1   4  -7   17.83    0.64
   2   4  -7    0.97    0.10
   3   4  -7    1.84    0.13
  -2  -4  -6   24.41    1.01
  -1  -4  -6    2.48    0.20
   0  -4  -6   43.86    1.60
   1  -4  -6    5.64    0.36
   2  -4  -6   18.54    0.79
   3  -4  -6    1.81    0.18
   4  -4  -6   44.17    1.68
  -3  -3  -6   39.12    1.41
  -2  -3  -6    0.26    0.07
  -1  -3  -6  172.62    5.60
   0  -3  -6   16.29    0.69
   1  -3  -6   10.06    0.47
   2  -3  -6    1.10    0.12
   3  -3  -6  144.91    4.75
   4  -3  -6   10.83    0.53
   5  -3  -6    2.62    0.22
  -3  -2  -6    3.00    0.18
  -2  -2  -6  115.15    3.84
  -1  -2  -6   27.79    0.99
   0  -2  -6  247.05    8.23
   1  -2  -6    0.58    0.07
   2  -2  -6   91.21    2.85
   3  -2  -6    4.92    0.28
   4  -2  -6  209.55    6.85
   5  -2  -6   15.61    0.66
   6  -2  -6   15.79    0.65
  -6  -1  -6    2.65    0.21
  -5  -1  -6  106.77    3.31
  -4  -1  -6   53.80    1.71
  -2  -1  -6    4.06    0.18
  -1  -1  -6  590.83   19.95
   0  -1  -6   32.23    1.10
   1  -1  -6   64.04    2.08
   2  -1  -6   41.30    1.41
   3  -1  -6  471.42   17.29
   4  -1  -6   32.74    1.20
   5  -1  -6    6.78    0.33
   6  -1  -6   18.28    0.73
  -6   0  -6   38.53    1.38
  -5   0  -6    0.09    0.05
  -4   0  -6   43.35    1.43
  -3   0  -6    1.45    0.13
  -2   0  -6  210.95    6.36
  -1   0  -6  100.25    2.19
   0   0  -6  537.73   12.01
   1   0  -6   21.80    0.51
   2   0  -6  170.32    3.74
   3   0  -6   12.23    0.30
   4   0  -6  405.18    9.24
   5   0  -6   18.18    0.44
   6   0  -6   24.93    0.92
   7   0  -6   15.83    0.63
  -6   1  -6    2.11    0.20
  -5   1  -6  111.34    3.35
  -4   1  -6   54.02    1.75
  -3   1  -6  134.04    4.02
  -1   1  -6  552.24   17.65
   0   1  -6   32.42    0.98
   1   1  -6   62.70    1.37
   2   1  -6   40.42    0.91
   3   1  -6  509.98   11.42
   4   1  -6   33.71    1.01
   5   1  -6    6.90    0.20
   6   1  -6   19.62    0.63
  -5   2  -6    0.18    0.07
  -4   2  -6   22.81    0.87
  -3   2  -6    3.13    0.21
  -2   2  -6  113.25    3.46
   0   2  -6  252.11    7.74
   1   2  -6    0.56    0.06
   2   2  -6   81.44    2.48
   3   2  -6    4.91    0.20
   4   2  -6  209.36    6.04
   5   2  -6   16.15    0.54
   6   2  -6   15.57    0.53
   7   2  -6   10.38    0.40
  -4   3  -6   25.37    0.95
  -3   3  -6   37.62    1.28
  -2   3  -6    0.46    0.08
  -1   3  -6  163.25    4.96
   0   3  -6   16.53    0.58
   1   3  -6    9.23    0.37
   2   3  -6    1.07    0.09
   3   3  -6  140.13    4.16
   4   3  -6   11.14    0.41
   5   3  -6    2.91    0.16
   6   3  -6   11.10    0.43
  -2   4  -6   25.25    0.87
  -1   4  -6    1.98    0.15
   0   4  -6   42.39    1.37
   1   4  -6    6.49    0.29
   2   4  -6   17.86    0.64
   3   4  -6    1.19    0.11
  -2  -4  -5    0.04    0.04
  -1  -4  -5    0.31    0.08
   0  -4  -5    8.54    0.45
   1  -4  -5   11.28    0.55
   2  -4  -5    0.21    0.08
   3  -4  -5    0.22    0.08
   4  -4  -5    2.49    0.22
  -4  -3  -5    1.35    0.13
  -3  -3  -5    3.16    0.21
  -2  -3  -5   25.15    0.96
  -1  -3  -5    6.01    0.32
   0  -3  -5    0.01    0.02
   1  -3  -5    4.30    0.26
   2  -3  -5   30.80    1.17
   3  -3  -5    1.75    0.16
   4  -3  -5    0.08    0.05
   5  -3  -5    3.38    0.24
  -3  -2  -5   10.69    0.45
  -2  -2  -5    0.20    0.05
  -1  -2  -5    1.24    0.10
   1  -2  -5   10.44    0.49
   2  -2  -5    0.32    0.07
   3  -2  -5    1.26    0.12
   4  -2  -5    6.07    0.32
   5  -2  -5    3.84    0.23
  -6  -1  -5    0.89    0.14
  -5  -1  -5    0.76    0.12
  -3  -1  -5    1.13    0.08
  -2  -1  -5    9.16    0.36
  -1  -1  -5    4.03    0.19
   0  -1  -5   -0.05    0.02
   1  -1  -5    2.86    0.16
   2  -1  -5   13.94    0.56
   3  -1  -5    1.28    0.11
   4  -1  -5    0.06    0.03
   5  -1  -5    0.90    0.09
   6  -1  -5    2.19    0.15
  -6   0  -5   -0.01    0.03
  -5   0  -5    0.02    0.03
  -4   0  -5    0.04    0.03
  -3   0  -5    0.02    0.03
  -2   0  -5   -0.03    0.01
  -1   0  -5    0.01    0.01
   0   0  -5   -0.09    0.03
   1   0  -5    0.00    0.01
   2   0  -5   -0.06    0.02
   3   0  -5    0.01    0.01
   4   0  -5   -0.04    0.02
   5   0  -5    0.00    0.01
   6   0  -5    0.03    0.02
   7   0  -5    0.04    0.03
  -6   1  -5    1.26    0.19
  -5   1  -5    0.92    0.15
  -4   1  -5    0.44    0.10
  -3   1  -5    1.19    0.12
  -2   1  -5    9.63    0.38
  -1   1  -5    4.19    0.19
   0   1  -5   -0.03    0.02
   1   1  -5    3.28    0.10
   2   1  -5   14.54    0.35
   3   1  -5    1.30    0.06
   4   1  -5    0.04    0.01
   5   1  -5    0.95    0.05
   6   1  -5    2.11    0.12
   7   1  -5    0.44    0.07
  -6   2  -5    0.23    0.09
  -5   2  -5    0.44    0.11
  -4   2  -5    2.89    0.22
  -3   2  -5   10.29    0.44
  -2   2  -5    0.15    0.05
   1   2  -5   12.94    0.42
   2   2  -5    0.21    0.04
   3   2  -5    1.18    0.08
   4   2  -5    6.47    0.25
   5   2  -5    3.61    0.17
   6   2  -5    0.06    0.03
   7   2  -5    0.07    0.03
  -5   3  -5    1.57    0.16
  -4   3  -5    1.22    0.13
  -3   3  -5    3.13    0.20
  -2   3  -5   25.64    0.85
  -1   3  -5    6.29    0.27
   0   3  -5    0.02    0.02
   1   3  -5    4.70    0.21
   2   3  -5   31.53    1.00
   3   3  -5    1.86    0.12
   4   3  -5    0.08    0.03
   5   3  -5    3.61    0.18
   6   3  -5    8.55    0.35
  -2   4  -5    0.05    0.03
  -1   4  -5    0.45    0.08
   0   4  -5    8.69    0.36
   1   4  -5   10.89    0.43
   2   4  -5    0.35    0.07
   3   4  -5    0.29    0.06
  -3  -4  -4    1.93    0.20
  -2  -4  -4    7.19    0.39
  -1  -4  -4   27.74    1.09
   0  -4  -4   52.85    1.90
   1  -4  -4    2.05    0.19
   2  -4  -4   16.04    0.71
   3  -4  -4   51.58    1.92
  -4  -3  -4    0.44    0.09
  -3  -3  -4   46.16    1.64
  -2  -3  -4   10.19    0.47
  -1  -3  -4   16.27    0.64
   0  -3  -4    1.41    0.13
   1  -3  -4   30.92    1.13
   2  -3  -4    8.04    0.40
   3  -3  -4    1.50    0.14
   4  -3  -4   21.31    0.88
  -4  -2  -4  165.02    5.38
  -3  -2  -4    4.30    0.23
  -2  -2  -4   28.70    1.03
  -1  -2  -4  115.64    3.96
   0  -2  -4  292.65   10.22
   1  -2  -4   14.00    0.55
   2  -2  -4   63.46    2.07
   3  -2  -4  243.76    8.37
   4  -2  -4  171.71    5.81
   5  -2  -4    2.80    0.18
  -6  -1  -4   12.13    0.54
  -3  -1  -4  130.25    4.27
  -2  -1  -4    7.20    0.29
  -1  -1  -4   46.30    1.54
   0  -1  -4    1.20    0.08
   1  -1  -4   30.77    1.06
   2  -1  -4   10.93    0.43
   3  -1  -4    5.88    0.28
   4  -1  -4   74.26    1.68
   5  -1  -4   36.16    0.84
   6  -1  -4    4.05    0.14
   7  -1  -4    2.85    0.17
  -6   0  -4   11.09    0.51
  -5   0  -4   20.37    0.78
  -4   0  -4  309.75    9.05
  -3   0  -4    4.67    0.24
  -2   0  -4   67.45    1.50
  -1   0  -4  264.86    5.81
   0   0  -4  524.60   11.48
   1   0  -4   46.07    1.00
   2   0  -4  113.05    2.49
   3   0  -4  530.92   12.21
   4   0  -4  353.65    8.18
   5   0  -4    5.89    0.14
   6   0  -4   67.30    1.49
  -6   1  -4   12.79    0.58
  -5   1  -4  104.36    3.20
  -4   1  -4    2.08    0.17
  -3   1  -4  125.32    3.90
  -2   1  -4    6.86    0.30
  -1   1  -4   46.23    1.40
   0   1  -4    1.15    0.07
   1   1  -4   29.85    0.92
   2   1  -4   10.92    0.26
   3   1  -4    5.94    0.17
   4   1  -4   75.38    2.23
   5   1  -4   36.06    1.11
   6   1  -4    3.54    0.17
   7   1  -4    2.85    0.16
  -6   2  -4    5.18    0.34
  -5   2  -4   12.36    0.57
  -4   2  -4  153.55    4.88
  -3   2  -4    5.45    0.26
   1   2  -4   13.83    0.46
   2   2  -4   55.42    1.80
   3   2  -4  254.23    7.42
   4   2  -4  178.93    5.13
   5   2  -4    2.67    0.14
   6   2  -4   42.98    1.34
   7   2  -4   52.85    1.65
  -5   3  -4   37.99    1.32
  -4   3  -4    0.25    0.07
  -3   3  -4   45.61    1.45
  -2   3  -4   11.16    0.42
  -1   3  -4   15.16    0.54
   0   3  -4    1.46    0.10
   1   3  -4   29.87    0.96
   2   3  -4    9.22    0.33
   3   3  -4    1.27    0.10
   4   3  -4   22.74    0.73
   5   3  -4   20.72    0.71
   6   3  -4    0.27    0.06
  -3   4  -4    2.16    0.15
  -2   4  -4    7.30    0.32
  -1   4  -4   28.46    0.93
   0   4  -4   50.02    1.62
   1   4  -4    2.16    0.14
   2   4  -4   16.20    0.58
   3   4  -4   54.86    1.65
   4   4  -4   36.33    1.20
  -3  -4  -3    0.50    0.11
  -2  -4  -3    0.89    0.12
  -1  -4  -3    2.02    0.18
   0  -4  -3   -0.02    0.03
   1  -4  -3    1.86    0.17
   2  -4  -3    0.50    0.11
   3  -4  -3    0.34    0.09
  -5  -3  -3    0.09    0.04
  -4  -3  -3    0.41    0.09
  -3  -3  -3    0.04    0.03
  -2  -3  -3    0.52    0.09
  -1  -3  -3    0.46    0.09
   0  -3  -3    1.19    0.12
   1  -3  -3    2.26    0.17
   2  -3  -3    3.39    0.22
   3  -3  -3    0.92    0.10
   4  -3  -3    3.17    0.22
  -4  -2  -3    0.05    0.03
  -3  -2  -3    0.67    0.07
  -2  -2  -3    0.50    0.06
  -1  -2  -3    0.69    0.07
   0  -2  -3    0.26    0.06
   1  -2  -3    2.53    0.15
   2  -2  -3    0.20    0.06
   3  -2  -3    0.07    0.02
   4  -2  -3    1.66    0.09
   5  -2  -3    3.97    0.20
   6  -2  -3    0.09    0.04
   7  -2  -3    0.27    0.06
  -6  -1  -3    0.09    0.04
  -4  -1  -3    0.06    0.02
  -3  -1  -3    0.11    0.03
  -2  -1  -3    0.08    0.03
  -1  -1  -3    0.19    0.04
   0  -1  -3   -0.12    0.03
   1  -1  -3    1.70    0.10
   2  -1  -3    1.52    0.12
   3  -1  -3    0.68    0.04
   4  -1  -3    0.63    0.04
   5  -1  -3    0.50    0.04
   6  -1  -3    0.28    0.06
   7  -1  -3    0.48    0.08
   8  -1  -3    0.19    0.05
  -7   0  -3    0.01    0.04
  -6   0  -3    0.02    0.03
  -5   0  -3    0.00    0.02
  -4   0  -3    0.04    0.03
  -3   0  -3   -0.01    0.01
  -2   0  -3   -0.05    0.02
  -1   0  -3   -0.14    0.05
   0   0  -3   -0.08    0.03
   1   0  -3   -0.12    0.01
   2   0  -3   -0.28    0.11
   3   0  -3   -0.01    0.01
   4   0  -3    0.03    0.01
   5   0  -3    0.00    0.01
   6   0  -3    0.05    0.02
   7   0  -3    0.03    0.02
  -7   1  -3    0.19    0.07
  -6   1  -3    0.16    0.07
  -5   1  -3   -0.02    0.04
  -4   1  -3    0.03    0.04
  -3   1  -3    0.08    0.04
  -2   1  -3    0.08    0.04
  -1   1  -3    0.26    0.04
   0   1  -3   -0.21    0.03
   1   1  -3    1.63    0.08
   2   1  -3    1.53    0.08
   3   1  -3    0.62    0.05
   4   1  -3    0.58    0.05
   5   1  -3    0.48    0.05
   6   1  -3    0.30    0.05
   7   1  -3    0.58    0.07
  -6   2  -3    0.56    0.12
  -5   2  -3    2.62    0.21
  -4   2  -3   -0.03    0.03
  -3   2  -3    0.71    0.08
  -1   2  -3    0.65    0.06
   0   2  -3    0.27    0.04
   1   2  -3    2.51    0.12
   2   2  -3    0.16    0.04
   3   2  -3    0.03    0.02
   4   2  -3    1.88    0.10
   5   2  -3    4.04    0.18
   6   2  -3    0.23    0.05
   7   2  -3    0.33    0.06
  -5   3  -3    0.06    0.04
  -4   3  -3    0.37    0.07
  -3   3  -3    0.12    0.04
  -2   3  -3    0.55    0.06
  -1   3  -3    0.58    0.06
   0   3  -3    1.22    0.09
   1   3  -3    1.85    0.12
   2   3  -3    3.41    0.17
   3   3  -3    1.00    0.08
   4   3  -3    3.08    0.16
   5   3  -3    2.04    0.13
   6   3  -3    1.07    0.10
  -3   4  -3    0.48    0.08
  -2   4  -3    0.72    0.08
  -1   4  -3    1.86    0.13
   0   4  -3    0.03    0.02
   1   4  -3    1.92    0.13
   2   4  -3    0.57    0.07
   3   4  -3    0.17    0.05
   4   4  -3    1.28    0.11
  -3  -4  -2   11.78    0.58
  -2  -4  -2   27.99    1.10
  -1  -4  -2    7.05    0.39
   0  -4  -2    7.24    0.39
   1  -4  -2   20.64    0.87
   2  -4  -2   49.25    1.77
  -5  -3  -2   19.23    0.79
  -4  -3  -2   51.26    1.79
  -3  -3  -2   40.60    1.45
  -2  -3  -2   11.01    0.48
  -1  -3  -2   49.29    1.75
   0  -3  -2   60.55    2.12
   1  -3  -2   32.26    1.17
   2  -3  -2    1.79    0.15
   3  -3  -2  116.17    4.03
   4  -3  -2   12.77    0.46
   5  -3  -2    0.58    0.09
   6  -3  -2    4.51    0.25
  -5  -2  -2   17.65    0.68
  -4  -2  -2   25.99    0.94
  -3  -2  -2   29.12    1.05
  -1  -2  -2   28.99    1.01
   0  -2  -2   49.57    1.67
   1  -2  -2   71.15    2.34
   2  -2  -2  227.32    4.93
   3  -2  -2    8.72    0.24
   4  -2  -2   72.63    2.17
   5  -2  -2    4.36    0.21
   6  -2  -2   43.54    1.39
   7  -2  -2    8.63    0.38
  -7  -1  -2   80.12    2.54
  -4  -1  -2  147.16    4.76
  -3  -1  -2  116.92    3.69
  -2  -1  -2   85.27    2.76
  -1  -1  -2  149.53    5.33
   0  -1  -2  299.71   10.57
   1  -1  -2  160.57    5.11
   2  -1  -2    1.93    0.10
   3  -1  -2  453.40   10.45
   4  -1  -2   28.31    0.67
   5  -1  -2    2.89    0.15
   6  -1  -2    5.14    0.24
   7  -1  -2  148.69    4.37
  -6   0  -2   57.05    1.87
  -5   0  -2   26.28    0.93
  -4   0  -2   63.61    1.91
  -3   0  -2   56.75    1.27
  -2   0  -2  111.72    2.46
  -1   0  -2   72.36    1.59
   0   0  -2  123.72    2.83
   1   0  -2  165.99    5.70
   2   0  -2  355.02    7.86
   3   0  -2   16.87    0.32
   4   0  -2  150.97    2.62
   5   0  -2    1.89    0.09
   6   0  -2   68.05    1.98
   7   0  -2   16.24    0.56
  -7   1  -2   81.73    2.58
  -6   1  -2   51.68    1.71
  -5   1  -2   56.73    1.86
  -4   1  -2  142.70    4.36
  -3   1  -2  106.89    3.36
  -2   1  -2   80.13    2.49
  -1   1  -2  153.94    4.39
   0   1  -2  314.93    9.51
   1   1  -2  157.89    4.87
   3   1  -2  470.82    9.82
   4   1  -2   29.04    0.62
   5   1  -2    3.09    0.15
   6   1  -2    4.70    0.22
   7   1  -2  147.87    4.38
  -6   2  -2   32.02    1.23
  -5   2  -2   15.81    0.66
  -4   2  -2   24.25    0.87
  -3   2  -2   29.07    0.94
  -2   2  -2   81.72    2.36
  -1   2  -2   28.38    0.88
   0   2  -2   48.01    1.46
   1   2  -2   70.07    2.05
   2   2  -2  219.12    6.79
   3   2  -2    8.08    0.30
   4   2  -2   73.57    2.17
   5   2  -2    4.25    0.19
   6   2  -2   44.68    1.38
   7   2  -2    8.71    0.36
  -4   3  -2   49.96    1.58
  -3   3  -2   39.24    1.26
  -2   3  -2   10.50    0.39
  -1   3  -2   48.32    1.52
   0   3  -2   60.62    1.85
   1   3  -2   32.14    1.00
   2   3  -2    1.93    0.12
   3   3  -2  123.22    3.56
   4   3  -2   12.67    0.45
   5   3  -2    0.58    0.07
   6   3  -2    5.04    0.24
  -3   4  -2   12.02    0.47
  -2   4  -2   28.54    0.93
  -1   4  -2    7.36    0.30
   0   4  -2    6.62    0.29
   1   4  -2   22.16    0.72
   2   4  -2   46.87    1.51
   3   4  -2    3.20    0.18
   4   4  -2   12.69    0.49
  -3  -4  -1    4.11    0.28
  -2  -4  -1    0.48    0.11
  -1  -4  -1    0.68    0.12
   0  -4  -1   14.10    0.63
   1  -4  -1   11.97    0.55
   2  -4  -1    0.06    0.05
  -6  -3  -1   10.84    0.54
  -5  -3  -1    0.05    0.03
  -4  -3  -1    0.33    0.08
  -3  -3  -1    0.81    0.10
  -2  -3  -1   33.95    1.24
  -1  -3  -1    0.94    0.10
   0  -3  -1    1.80    0.14
   1  -3  -1    0.10    0.04
   2  -3  -1   45.56    1.61
   3  -3  -1    2.20    0.10
   4  -3  -1    0.13    0.04
   5  -3  -1    0.85    0.09
   6  -3  -1    8.40    0.37
  -5  -2  -1    0.44    0.08
  -4  -2  -1   10.19    0.44
  -3  -2  -1    3.36    0.19
  -2  -2  -1    0.14    0.04
  -1  -2  -1    0.97    0.08
   0  -2  -1   39.60    1.38
   1  -2  -1   14.20    0.35
   2  -2  -1    0.02    0.01
   3  -2  -1    1.51    0.09
   4  -2  -1   11.18    0.41
   5  -2  -1    4.83    0.23
   6  -2  -1    0.28    0.06
   7  -2  -1    1.19    0.12
  -7  -1  -1    0.11    0.04
  -5  -1  -1    0.11    0.04
  -4  -1  -1    0.02    0.02
  -3  -1  -1    0.32    0.04
  -2  -1  -1   18.27    0.65
  -1  -1  -1    0.48    0.05
   0  -1  -1    0.35    0.04
   1  -1  -1   -0.14    0.05
   2  -1  -1   23.43    0.56
   3  -1  -1    1.56    0.07
   4  -1  -1    0.02    0.01
   5  -1  -1    0.41    0.06
   6  -1  -1    2.11    0.14
   7  -1  -1    0.25    0.06
  -7   0  -1    0.00    0.03
  -6   0  -1    0.04    0.03
  -5   0  -1    0.02    0.02
  -4   0  -1    0.03    0.01
  -3   0  -1   -0.04    0.01
  -1   0  -1   -0.07    0.01
   0   0  -1   -0.02    0.01
   1   0  -1   -0.09    0.03
   2   0  -1   -0.13    0.04
   3   0  -1   -0.05    0.02
   4   0  -1    0.04    0.01
   5   0  -1    0.01    0.01
   6   0  -1    0.02    0.02
   7   0  -1    0.07    0.03
  -7   1  -1    0.11    0.06
  -6   1  -1    2.74    0.22
  -5   1  -1    0.08    0.05
  -4   1  -1    0.09    0.04
  -3   1  -1    0.41    0.07
  -2   1  -1   19.37    0.60
  -1   1  -1    0.76    0.05
   0   1  -1    0.30    0.03
   1   1  -1   -0.17    0.02
   2   1  -1   24.05    0.51
   3   1  -1    1.54    0.05
   4   1  -1    0.03    0.01
   5   1  -1    0.40    0.05
   6   1  -1    2.23    0.13
   7   1  -1    0.35    0.07
  -6   2  -1    0.38    0.10
  -5   2  -1    0.32    0.08
  -4   2  -1   10.90    0.42
  -3   2  -1    3.55    0.17
  -2   2  -1    0.14    0.03
  -1   2  -1    1.02    0.07
   0   2  -1   42.25    1.21
   1   2  -1   14.27    0.46
   2   2  -1    0.06    0.03
   3   2  -1    1.48    0.09
   4   2  -1   11.46    0.39
   5   2  -1    5.23    0.22
   6   2  -1    0.31    0.06
   7   2  -1    1.05    0.10
  -4   3  -1    0.27    0.06
  -3   3  -1    1.05    0.08
  -2   3  -1   34.02    1.06
  -1   3  -1    0.99    0.08
   0   3  -1    1.93    0.11
   1   3  -1    0.06    0.03
   2   3  -1   45.15    1.39
   3   3  -1    2.41    0.13
   4   3  -1    0.07    0.03
   5   3  -1    0.95    0.09
  -2   4  -1    0.48    0.07
  -1   4  -1    0.56    0.06
   0   4  -1   14.21    0.50
   1   4  -1   11.48    0.43
   2   4  -1    0.07    0.03
   3   4  -1    1.55    0.12
  -3  -4   0   10.81    0.54
  -2  -4   0    2.02    0.18
  -1  -4   0   12.81    0.58
   0  -4   0  144.52    4.78
   1  -4   0   12.78    0.58
   2  -4   0    2.15    0.18
  -6  -3   0    3.19    0.23
  -5  -3   0   48.28    1.74
  -4  -3   0    2.02    0.16
  -3  -3   0   10.06    0.47
  -2  -3   0    3.21    0.20
  -1  -3   0   87.92    3.00
   1  -3   0   90.48    3.00
   2  -3   0    3.27    0.12
   3  -3   0   10.60    0.39
   4  -3   0    2.03    0.13
   5  -3   0   49.03    1.53
  -6  -2   0   10.87    0.48
  -5  -2   0   13.33    0.53
  -4  -2   0  286.34    9.48
  -3  -2   0   24.49    0.92
  -2  -2   0   21.13    0.77
  -1  -2   0   42.44    1.46
   0  -2   0  960.12   32.29
   1  -2   0   43.01    0.95
   2  -2   0   21.52    0.50
   3  -2   0   24.93    0.80
   4  -2   0  295.15    8.37
   5  -2   0   12.19    0.46
   6  -2   0   11.09    0.44
  -5  -1   0  121.58    3.84
  -4  -1   0    2.21    0.13
  -3  -1   0   25.19    0.85
  -2  -1   0  127.31    4.03
  -1  -1   0  372.12   13.64
   0  -1   0   -0.52    0.19
   1  -1   0  392.19    9.02
   2  -1   0  120.26    2.66
   3  -1   0   24.38    0.56
   4  -1   0    1.93    0.08
   5  -1   0  119.77    3.40
   6  -1   0    1.40    0.11
   7  -1   0    4.75    0.25
  -8   0   0   75.61    2.48
  -7   0   0   35.31    1.25
  -6   0   0   17.27    0.66
  -5   0   0   20.53    0.74
   1   0   0  102.27    1.87
   2   0   0   68.11    1.20
   3   0   0   39.94    0.71
   4   0   0  550.11   12.39
   5   0   0   20.86    0.67
   6   0   0   17.21    0.59
   7   0   0   36.26    1.15
  -6   1   0    1.37    0.15
  -5   1   0  105.71    3.52
  -3   1   0   23.68    0.80
  -2   1   0  122.39    3.60
  -1   1   0  417.30   12.20
   0   1   0   -0.65    0.04
   1   1   0  425.55   12.19
   2   1   0  123.61    2.56
   3   1   0   24.22    0.52
   4   1   0    1.89    0.07
   5   1   0  116.33    3.42
   6   1   0    1.58    0.11
  -5   2   0   12.09    0.49
  -4   2   0  287.82    8.46
  -3   2   0   26.00    0.81
  -2   2   0   21.15    0.66
  -1   2   0   41.82    1.27
   0   2   0  945.78   21.96
   1   2   0   42.17    1.27
   2   2   0   19.76    0.66
   3   2   0   26.29    0.80
   4   2   0  292.22    8.70
   5   2   0   12.13    0.45
   6   2   0   10.38    0.41
   7   2   0   22.87    0.82
  -4   3   0    1.95    0.13
  -3   3   0   10.75    0.38
  -2   3   0    2.81    0.15
  -1   3   0   90.34    2.63
   0   3   0    0.12    0.04
   1   3   0   86.80    2.63
   2   3   0    2.94    0.15
   3   3   0   10.41    0.38
   4   3   0    2.01    0.13
   5   3   0   48.24    1.51
  -2   4   0    1.85    0.12
  -1   4   0   12.72    0.46
   0   4   0  139.76    4.18
   1   4   0   12.34    0.46
   2   4   0    2.16    0.13
   3   4   0   11.67    0.43
  -3  -4   1    1.58    0.16
  -2  -4   1    0.12    0.05
  -1  -4   1   11.75    0.55
   0  -4   1   13.24    0.61
   1  -4   1    0.77    0.13
  -6  -3   1    8.20    0.43
  -5  -3   1    0.87    0.11
  -4  -3   1    0.14    0.05
  -3  -3   1    2.15    0.17
  -2  -3   1   45.58    1.61
  -1  -3   1    0.08    0.04
   0  -3   1    1.83    0.14
   1  -3   1    0.91    0.10
   2  -3   1   34.25    0.80
   3  -3   1    0.78    0.07
   4  -3   1    0.31    0.06
   5  -3   1    0.09    0.04
  -6  -2   1    0.37    0.08
  -5  -2   1    5.15    0.27
  -4  -2   1   11.00    0.47
  -3  -2   1    1.35    0.11
  -2  -2   1    0.05    0.03
  -1  -2   1   14.23    0.55
   0  -2   1   39.99    0.89
   1  -2   1    1.04    0.05
   2  -2   1    0.15    0.02
   3  -2   1    3.51    0.16
   4  -2   1   10.07    0.39
   5  -2   1    0.37    0.07
   6  -2   1    0.33    0.07
  -5  -1   1    0.42    0.06
  -4  -1   1    0.01    0.01
  -3  -1   1    1.59    0.10
  -2  -1   1   25.56    0.85
  -1  -1   1   -0.10    0.03
   0  -1   1    0.29    0.02
   1  -1   1    0.58    0.03
   2  -1   1   18.15    0.57
   3  -1   1    0.39    0.03
   4  -1   1    0.04    0.02
   5  -1   1    0.03    0.02
   6  -1   1    2.41    0.15
   7  -1   1    0.03    0.03
  -7   0   1    0.02    0.03
  -6   0   1    0.03    0.03
  -5   0   1    0.01    0.02
   0   0   1    0.00    0.01
   1   0   1   -0.08    0.03
   2   0   1   -0.04    0.01
   3   0   1   -0.05    0.01
   4   0   1    0.03    0.02
   5   0   1    0.01    0.02
   6   0   1    0.01    0.02
   7   0   1    0.04    0.03
  -6   1   1    2.06    0.18
  -5   1   1    0.39    0.09
  -4   1   1   -0.01    0.02
  -3   1   1    1.76    0.11
  -2   1   1   25.62    0.75
  -1   1   1   -0.12    0.02
   0   1   1    0.33    0.02
   1   1   1    0.62    0.03
   2   1   1   18.20    0.39
   3   1   1    0.37    0.03
   4   1   1    0.04    0.01
   5   1   1    0.05    0.03
   6   1   1    2.39    0.15
  -5   2   1    5.18    0.26
  -3   2   1    1.52    0.09
  -2   2   1    0.01    0.02
  -1   2   1   14.68    0.46
   0   2   1   39.73    0.84
   1   2   1    1.00    0.04
   2   2   1    0.13    0.03
   3   2   1    3.53    0.16
   4   2   1   10.88    0.38
   5   2   1    0.33    0.06
   6   2   1    0.37    0.06
  -3   3   1    2.29    0.12
  -2   3   1   46.18    1.38
  -1   3   1    0.09    0.03
   0   3   1    1.85    0.10
   1   3   1    1.04    0.08
   2   3   1   34.58    1.06
   3   3   1    0.95    0.08
   4   3   1    0.29    0.05
   5   3   1    0.06    0.03
  -1   4   1   11.56    0.42
   0   4   1   14.22    0.49
   1   4   1    0.68    0.07
   2   4   1    0.49    0.07
   3   4   1    4.49    0.22
  -4  -4   2   12.79    0.63
  -3  -4   2    2.85    0.23
  -2  -4   2   49.97    1.78
  -1  -4   2   20.94    0.87
   0  -4   2    7.95    0.39
   1  -4   2    7.26    0.38
  -6  -3   2    4.45    0.29
  -5  -3   2    0.62    0.11
  -4  -3   2   12.28    0.55
  -3  -3   2  122.11    4.05
  -2  -3   2    1.73    0.15
  -1  -3   2   30.78    1.15
   0  -3   2   63.02    2.11
   1  -3   2   50.87    1.73
   2  -3   2   11.04    0.29
   3  -3   2   41.01    1.25
   4  -3   2   49.70    1.55
   5  -3   2   19.65    0.70
  -6  -2   2   43.73    1.57
  -5  -2   2    4.37    0.25
  -4  -2   2   73.97    2.47
  -3  -2   2    8.79    0.38
  -2  -2   2  216.20    7.24
  -1  -2   2   68.53    2.32
   0  -2   2   49.30    1.08
   1  -2   2   29.05    0.65
   2  -2   2   80.59    1.74
   3  -2   2   28.36    0.91
   4  -2   2   25.25    0.82
   5  -2   2   17.55    0.61
   6  -2   2   37.36    1.16
  -8  -1   2   18.25    0.74
  -6  -1   2    5.00    0.26
  -5  -1   2    3.09    0.18
  -4  -1   2   29.84    1.02
  -3  -1   2  450.24   15.76
  -2  -1   2    2.43    0.07
  -1  -1   2  150.91    3.52
   0  -1   2  295.77    6.90
   1  -1   2  149.31    3.45
   2  -1   2   83.69    2.44
   3  -1   2  112.64    2.57
   4  -1   2  145.43    4.22
   5  -1   2   57.87    1.73
   6  -1   2   50.60    1.57
   7  -1   2   77.77    2.43
  -7   0   2   15.40    0.63
  -6   0   2   63.87    2.06
  -1   0   2  159.45    4.88
   0   0   2  114.78    3.72
   1   0   2   70.19    2.07
   2   0   2  110.04    3.22
   3   0   2   56.56    1.67
   4   0   2   59.29    1.82
   5   0   2   27.34    0.85
   6   0   2   58.81    1.77
   7   0   2    0.69    0.08
  -3   1   2  466.86   14.14
  -2   1   2    2.09    0.10
  -1   1   2  159.20    3.28
   0   1   2  316.10    6.51
   1   1   2  151.13    3.25
   2   1   2   84.58    1.72
   3   1   2  114.86    2.31
   4   1   2  145.05    2.98
   5   1   2   56.64    1.74
   6   1   2   49.18    1.57
  -4   2   2   70.79    2.16
  -3   2   2    8.92    0.30
  -2   2   2  218.41    6.80
  -1   2   2   68.81    1.43
   0   2   2   48.37    1.01
   1   2   2   28.11    0.60
   2   2   2   74.22    2.33
   3   2   2   30.05    0.91
   4   2   2   26.02    0.82
   5   2   2   16.96    0.59
   6   2   2   36.20    1.14
  -2   3   2    2.03    0.08
  -1   3   2   32.29    0.98
   0   3   2   61.50    1.83
   1   3   2   51.22    1.51
   2   3   2   10.38    0.38
   3   3   2   39.93    1.24
   4   3   2   49.76    1.55
   5   3   2   19.62    0.68
  -1   4   2   21.58    0.70
   0   4   2    6.67    0.28
   1   4   2    7.41    0.30
   2   4   2   27.83    0.91
   3   4   2   12.88    0.46
  -4  -4   3    1.21    0.14
  -3  -4   3    0.30    0.08
  -2  -4   3    0.77    0.13
  -1  -4   3    1.76    0.17
   0  -4   3    0.08    0.05
  -6  -3   3    1.05    0.12
  -5  -3   3    1.96    0.17
  -4  -3   3    3.36    0.22
  -3  -3   3    0.98    0.11
  -2  -3   3    3.16    0.21
  -1  -3   3    2.27    0.16
   0  -3   3    1.37    0.12
   1  -3   3    0.55    0.07
   2  -3   3    0.44    0.05
   3  -3   3    0.07    0.03
   4  -3   3    0.41    0.07
   5  -3   3    0.00    0.02
  -7  -2   3    0.23    0.07
  -6  -2   3    0.10    0.04
  -5  -2   3    3.90    0.23
  -4  -2   3    1.64    0.13
  -3  -2   3    0.04    0.03
  -2  -2   3    0.26    0.06
  -1  -2   3    2.43    0.08
   0  -2   3    0.24    0.02
   1  -2   3    0.60    0.04
   2  -2   3    0.51    0.05
   3  -2   3    0.71    0.07
   4  -2   3    0.03    0.02
   5  -2   3    3.27    0.18
   6  -2   3    0.79    0.09
  -6  -1   3    0.33    0.07
  -5  -1   3    0.49    0.06
  -4  -1   3    0.69    0.05
  -3  -1   3    0.68    0.03
  -2  -1   3    1.63    0.06
  -1  -1   3    1.65    0.05
   0  -1   3   -0.16    0.06
   1  -1   3    0.26    0.02
   2  -1   3    0.05    0.02
   3  -1   3    0.11    0.03
   4  -1   3    0.03    0.02
   5  -1   3    0.00    0.02
   6  -1   3    0.07    0.03
   7  -1   3    0.19    0.05
  -6   0   3    0.04    0.03
  -2   0   3   -0.37    0.02
  -1   0   3   -0.16    0.01
   0   0   3   -0.22    0.04
   1   0   3   -0.12    0.02
   2   0   3   -0.04    0.01
   3   0   3   -0.04    0.01
   4   0   3    0.03    0.02
   5   0   3    0.03    0.02
   6   0   3    0.02    0.02
   7   0   3    0.04    0.02
  -4   1   3    0.65    0.06
  -3   1   3    0.73    0.05
  -2   1   3    1.59    0.06
  -1   1   3    1.63    0.05
   0   1   3   -0.21    0.02
   1   1   3    0.23    0.02
   2   1   3    0.07    0.02
   3   1   3    0.14    0.02
   4   1   3    0.04    0.01
   5   1   3    0.01    0.02
  -3   2   3    0.05    0.02
  -2   2   3    0.22    0.02
  -1   2   3    2.55    0.07
   0   2   3    0.23    0.02
   1   2   3    0.60    0.03
   2   2   3    0.52    0.05
   3   2   3    0.58    0.06
   4   2   3    0.03    0.03
   5   2   3    2.84    0.16
   6   2   3    0.65    0.08
  -4   3   3    3.33    0.17
  -3   3   3    1.00    0.08
  -2   3   3    3.39    0.10
  -1   3   3    2.07    0.11
   0   3   3    1.31    0.08
   1   3   3    0.46    0.05
   2   3   3    0.47    0.05
   3   3   3    0.06    0.03
   4   3   3    0.37    0.06
   5   3   3    0.01    0.02
   0   4   3    0.01    0.02
   1   4   3    1.94    0.12
   2   4   3    0.85    0.08
   3   4   3    0.52    0.08
  -4  -4   4   37.77    1.44
  -3  -4   4   51.89    1.92
  -2  -4   4   16.35    0.71
  -1  -4   4    2.09    0.18
   0  -4   4   53.50    1.87
  -4  -3   4   21.63    0.87
  -3  -3   4    1.23    0.13
  -2  -3   4    8.02    0.39
  -1  -3   4   30.36    1.11
   0  -3   4    1.52    0.12
   1  -3   4   15.87    0.61
   2  -3   4   10.73    0.39
   3  -3   4   44.88    1.41
   4  -3   4    0.44    0.07
   5  -3   4   39.09    1.26
  -7  -2   4   53.47    1.89
  -6  -2   4   43.63    1.56
  -5  -2   4    2.46    0.18
  -4  -2   4  175.61    5.80
  -3  -2   4  256.05    8.36
  -2  -2   4   61.82    2.06
  -1  -2   4   14.22    0.33
   0  -2   4  295.94    6.71
   1  -2   4  121.22    2.60
   2  -2   4   27.89    0.90
   3  -2   4    4.42    0.21
   4  -2   4  164.70    4.77
   5  -2   4   13.47    0.50
   6  -2   4    5.39    0.28
  -7  -1   4    3.05    0.20
  -6  -1   4    3.82    0.23
  -5  -1   4   37.38    1.29
  -4  -1   4   76.84    2.20
  -3  -1   4    5.91    0.20
  -2  -1   4   10.64    0.33
  -1  -1   4   30.77    0.68
   0  -1   4    1.29    0.05
   1  -1   4   45.60    1.01
   2  -1   4    7.22    0.26
   3  -1   4  129.22    3.79
   4  -1   4    2.15    0.13
   5  -1   4  101.36    3.05
   6  -1   4   12.20    0.48
  -6   0   4   65.78    2.07
  -4   0   4  364.34   10.95
  -3   0   4  562.89   16.30
  -2   0   4  110.36    3.22
  -1   0   4   44.03    1.33
   0   0   4  464.41   15.01
   1   0   4  248.92    7.98
   2   0   4   67.85    1.98
   3   0   4    5.35    0.20
   4   0   4  307.94    8.89
   5   0   4   21.21    0.70
   6   0   4   10.83    0.42
   7   0   4    3.96    0.22
  -4   1   4   78.16    2.25
  -3   1   4    5.75    0.22
  -2   1   4   10.56    0.35
  -1   1   4   30.19    0.64
   0   1   4    1.12    0.04
   1   1   4   46.38    0.96
   2   1   4    7.11    0.18
   3   1   4  133.51    2.68
   4   1   4    2.04    0.08
  -4   2   4  177.01    5.10
  -3   2   4  262.39    5.33
  -2   2   4   61.37    1.26
  -1   2   4   13.63    0.31
   0   2   4  294.20    6.30
   1   2   4  120.53    2.46
   2   2   4   30.28    0.90
   3   2   4    4.60    0.20
   4   2   4  169.37    4.79
   5   2   4   13.36    0.48
   6   2   4    5.37    0.26
  -6   3   4    0.24    0.06
  -5   3   4   21.74    0.73
  -4   3   4   22.38    0.72
  -3   3   4    1.40    0.09
  -1   3   4   30.30    0.93
   0   3   4    1.42    0.09
   1   3   4   15.19    0.51
   2   3   4   10.87    0.38
   3   3   4   46.13    1.41
   4   3   4    0.52    0.08
   1   4   4   27.13    0.89
   2   4   4    6.83    0.29
   3   4   4    2.20    0.14
  -4  -4   5    2.54    0.25
  -3  -4   5    0.30    0.09
  -2  -4   5    0.51    0.11
  -1  -4   5   11.03    0.53
  -6  -3   5    8.59    0.45
  -5  -3   5    3.42    0.24
  -4  -3   5    0.12    0.05
  -3  -3   5    1.57    0.15
  -2  -3   5   31.08    1.16
  -1  -3   5    4.50    0.25
   0  -3   5    0.06    0.03
   2  -3   5   24.74    0.81
   3  -3   5    2.94    0.17
   4  -3   5    0.98    0.10
  -7  -2   5    0.09    0.04
  -6  -2   5    0.05    0.03
  -5  -2   5    3.29    0.22
  -4  -2   5    5.90    0.31
  -3  -2   5    1.10    0.11
  -2  -2   5    0.22    0.05
  -1  -2   5   12.93    0.31
   0  -2   5   20.33    0.47
   1  -2   5    1.25    0.06
   2  -2   5    0.20    0.04
   3  -2   5   10.91    0.40
   4  -2   5    3.20    0.18
   5  -2   5    0.45    0.08
  -7  -1   5    0.38    0.08
  -6  -1   5    2.10    0.16
  -4  -1   5    0.04    0.01
  -3  -1   5    1.37    0.06
  -2  -1   5   14.84    0.44
  -1  -1   5    3.01    0.12
   0  -1   5   -0.05    0.02
   1  -1   5    4.18    0.17
   2  -1   5    9.74    0.34
   3  -1   5    1.06    0.08
   4  -1   5    0.37    0.06
   5  -1   5    0.71    0.08
   6  -1   5    0.89    0.09
  -7   0   5    0.02    0.03
  -6   0   5   -0.03    0.02
  -5   0   5    0.00    0.01
  -4   0   5   -0.12    0.02
  -3   0   5    0.03    0.01
  -2   0   5   -0.10    0.02
  -1   0   5    0.04    0.01
   1   0   5    0.01    0.01
   2   0   5   -0.02    0.02
   3   0   5    0.06    0.02
   4   0   5    0.03    0.02
   5   0   5    0.01    0.02
   6   0   5    0.03    0.02
   7   0   5    0.02    0.03
  -8   1   5    0.01    0.03
  -7   1   5    0.44    0.08
  -6   1   5    2.28    0.14
  -5   1   5    0.91    0.08
  -4   1   5    0.03    0.02
  -3   1   5    1.30    0.04
  -2   1   5   13.92    0.45
  -1   1   5    3.09    0.08
   0   1   5   -0.06    0.02
   1   1   5    4.32    0.11
   2   1   5    9.33    0.23
   3   1   5    1.06    0.05
   4   1   5    0.41    0.04
  -7   2   5    0.07    0.05
  -6   2   5    0.02    0.03
  -5   2   5    3.68    0.18
  -4   2   5    6.50    0.25
  -3   2   5    1.16    0.08
  -2   2   5    0.30    0.02
  -1   2   5   13.01    0.28
   0   2   5   20.29    0.44
   1   2   5    1.21    0.05
   2   2   5    0.22    0.04
   3   2   5   10.99    0.39
   4   2   5    3.05    0.16
   5   2   5    0.42    0.07
  -6   3   5    8.64    0.36
  -5   3   5    3.38    0.18
  -4   3   5    0.13    0.04
  -3   3   5    1.87    0.11
  -2   3   5   32.23    0.97
   0   3   5    0.02    0.02
   1   3   5    6.25    0.24
   2   3   5   25.16    0.80
   3   3   5    3.27    0.17
   4   3   5    1.22    0.10
   1   4   5    0.37    0.06
   2   4   5    0.03    0.02
   3   4   5   13.20    0.50
  -3  -4   6    1.59    0.17
  -2  -4   6   18.32    0.78
  -1  -4   6    6.19    0.35
  -6  -3   6   10.83    0.54
  -5  -3   6    2.76    0.22
  -4  -3   6   11.24    0.53
  -3  -3   6  145.87    4.75
  -2  -3   6    1.11    0.11
  -1  -3   6   10.46    0.45
   0  -3   6   17.38    0.66
   2  -3   6    0.65    0.07
   3  -3   6   38.23    1.23
   4  -3   6   26.21    0.89
  -7  -2   6   10.09    0.50
  -6  -2   6   15.67    0.66
  -5  -2   6   15.12    0.65
  -4  -2   6  202.13    6.83
  -3  -2   6    6.09    0.28
  -2  -2   6   81.28    2.82
  -1  -2   6    0.66    0.04
   0  -2   6  252.80    5.51
   2  -2   6  115.67    3.39
   3  -2   6    3.26    0.17
   4  -2   6   23.22    0.79
   5  -2   6    0.22    0.05
  -7  -1   6  107.22    3.61
  -4  -1   6   34.20    0.99
  -3  -1   6  512.02   14.91
  -2  -1   6   40.78    1.19
  -1  -1   6   60.49    1.81
   0  -1   6   32.42    0.72
   1  -1   6  566.25   17.93
   3  -1   6  128.52    3.90
   4  -1   6   52.81    1.65
   5  -1   6  104.85    3.21
   6  -1   6    2.06    0.16
  -7   0   6   15.61    0.55
  -6   0   6   24.92    0.79
  -5   0   6   17.38    0.57
  -4   0   6  401.08   12.14
  -3   0   6   12.21    0.40
  -2   0   6  168.17    5.03
  -1   0   6   21.71    0.67
   0   0   6  508.35   15.87
   1   0   6   97.51    2.90
   2   0   6  222.67    6.25
   3   0   6    1.39    0.09
   4   0   6   42.99    1.33
   5   0   6    0.07    0.03
   6   0   6   40.17    1.27
  -8   1   6    0.46    0.08
  -7   1   6  105.88    3.17
  -6   1   6   19.01    0.64
  -5   1   6    6.77    0.27
  -4   1   6   32.71    1.02
  -2   1   6   39.71    1.20
  -1   1   6   60.40    1.27
   0   1   6   30.70    0.67
   1   1   6  606.71   12.61
   2   1   6    3.66    0.16
   3   1   6  136.13    2.76
   4   1   6   53.95    1.62
  -7   2   6   10.28    0.42
  -6   2   6   14.80    0.55
  -5   2   6   16.61    0.55
  -4   2   6  208.42    5.99
  -3   2   6    4.82    0.20
  -2   2   6   82.23    2.45
  -1   2   6    0.80    0.05
   0   2   6  253.94    5.30
   1   2   6   26.96    0.59
   2   2   6  118.73    3.40
   3   2   6    3.27    0.16
   4   2   6   22.60    0.76
   5   2   6    0.16    0.05
  -6   3   6   11.63    0.45
  -5   3   6    2.70    0.16
  -4   3   6   11.22    0.41
  -3   3   6  135.05    4.11
  -2   3   6    0.92    0.07
   0   3   6   16.99    0.54
   1   3   6  169.31    4.91
   2   3   6    0.46    0.06
   3   3   6   39.91    1.22
   4   3   6   26.54    0.87
   2   4   6   24.80    0.82
  -3  -4   7    1.79    0.18
  -2  -4   7    0.97    0.13
  -6  -3   7    1.41    0.16
  -5  -3   7    0.31    0.09
  -4  -3   7   10.60    0.52
  -3  -3   7   10.26    0.48
  -2  -3   7    2.87    0.20
  -1  -3   7    2.17    0.16
   2  -3   7    1.27    0.10
   3  -3   7    0.92    0.09
   4  -3   7    0.87    0.10
  -7  -2   7    0.22    0.07
  -6  -2   7    1.34    0.14
  -5  -2   7   12.07    0.55
  -4  -2   7    1.40    0.13
  -3  -2   7    1.36    0.12
  -2  -2   7    3.08    0.19
  -1  -2   7   22.65    0.69
   0  -2   7    1.28    0.08
   1  -2   7    6.07    0.25
   2  -2   7    0.04    0.02
   3  -2   7    7.57    0.32
   4  -2   7    0.87    0.09
   5  -2   7    2.09    0.16
  -8  -1   7    0.84    0.11
  -7  -1   7    0.87    0.11
  -4  -1   7    3.12    0.13
  -3  -1   7    5.70    0.20
  -2  -1   7    1.37    0.07
  -1  -1   7    1.21    0.07
   0  -1   7    2.15    0.11
   1  -1   7    3.42    0.16
   2  -1   7    0.46    0.05
   3  -1   7    0.59    0.07
   4  -1   7    0.28    0.06
   5  -1   7    0.87    0.09
  -7   0   7    0.02    0.02
  -6   0   7    0.02    0.03
  -5   0   7    0.03    0.02
  -4   0   7    0.03    0.02
  -3   0   7   -0.12    0.02
  -2   0   7   -0.11    0.02
  -1   0   7   -0.04    0.01
   0   0   7   -0.05    0.02
   1   0   7    0.00    0.01
   2   0   7    0.06    0.02
   3   0   7    0.00    0.01
   4   0   7    0.00    0.02
   5   0   7    0.02    0.02
   6   0   7    0.03    0.03
  -8   1   7    0.86    0.09
  -7   1   7    1.02    0.10
  -6   1   7    0.36    0.06
  -5   1   7    0.09    0.03
  -4   1   7    3.18    0.15
  -3   1   7    5.13    0.21
  -2   1   7    1.26    0.08
  -1   1   7    1.11    0.07
   0   1   7    2.12    0.07
   1   1   7    3.47    0.11
   3   1   7    0.60    0.06
   4   1   7    0.27    0.05
  -7   2   7    0.18    0.06
  -6   2   7    1.38    0.11
  -5   2   7   12.85    0.45
  -4   2   7    1.19    0.09
  -3   2   7    1.38    0.09
  -2   2   7    3.31    0.14
  -1   2   7   22.13    0.48
   0   2   7    1.29    0.05
   1   2   7    6.14    0.16
   2   2   7    0.02    0.02
   3   2   7    7.48    0.30
   4   2   7    0.90    0.09
   5   2   7    2.03    0.15
  -6   3   7    1.60    0.12
  -5   3   7    0.47    0.07
  -4   3   7   10.75    0.39
  -3   3   7    9.85    0.36
  -2   3   7    3.04    0.14
   1   3   7    6.04    0.24
   2   3   7    1.29    0.10
   3   3   7    1.27    0.10
   4   3   7    0.85    0.09
  -3  -4   8   17.58    0.80
  -2  -4   8   42.84    1.62
  -5  -3   8   27.58    1.12
  -4  -3   8    1.74    0.18
  -3  -3   8   14.16    0.62
  -2  -3   8    6.50    0.35
  -1  -3   8   66.23    2.27
   2  -3   8   36.35    1.14
   3  -3   8   43.56    1.37
  -7  -2   8   45.73    1.69
  -6  -2   8  173.45    5.84
  -5  -2   8    0.15    0.06
  -4  -2   8   21.85    0.86
  -3  -2   8   58.67    2.01
  -2  -2   8  198.09    6.52
  -1  -2   8    0.28    0.03
   1  -2   8   70.51    2.12
   2  -2   8   40.52    1.27
   3  -2   8   19.86    0.69
   4  -2   8   18.09    0.68
  -8  -1   8    2.93    0.22
  -4  -1   8    0.21    0.03
  -3  -1   8   54.97    1.61
  -2  -1   8   10.77    0.36
  -1  -1   8  170.40    4.92
   0  -1   8   40.65    1.22
   1  -1   8   11.79    0.42
   2  -1   8   90.85    2.68
   3  -1   8  103.28    3.10
   4  -1   8    6.41    0.30
   5  -1   8    1.72    0.14
  -7   0   8   68.23    2.11
  -6   0   8  296.24    8.64
  -5   0   8    0.78    0.06
  -4   0   8   35.73    1.13
  -3   0   8  102.55    2.96
  -2   0   8  338.03   10.35
  -1   0   8    0.13    0.03
   0   0   8   70.05    2.09
   2   0   8   74.09    2.23
   3   0   8   41.34    1.29
   4   0   8   28.08    0.93
   5   0   8   14.44    0.54
  -8   1   8    3.15    0.19
  -7   1   8   82.28    2.49
  -6   1   8    2.31    0.14
  -5   1   8   68.45    2.03
  -3   1   8   53.50    1.62
  -2   1   8   10.51    0.36
  -1   1   8  170.19    4.91
   0   1   8   40.81    1.21
   2   1   8   90.18    2.66
   3   1   8  106.30    3.08
   4   1   8    6.34    0.28
  -7   2   8   45.66    1.45
  -6   2   8  171.42    5.10
  -5   2   8    0.15    0.04
  -4   2   8   20.85    0.69
  -3   2   8   57.68    1.72
  -2   2   8  195.23    5.71
  -1   2   8    0.39    0.04
   0   2   8   36.16    0.81
   1   2   8   71.66    1.48
   2   2   8   42.08    1.25
   3   2   8   19.81    0.66
   4   2   8   18.42    0.66
  -6   3   8    1.18    0.10
  -5   3   8   27.87    0.90
  -4   3   8    2.50    0.14
  -3   3   8   13.86    0.48
  -2   3   8    6.62    0.26
   2   3   8   35.69    1.11
   3   3   8   43.44    1.34
  -3  -4   9    0.06    0.05
  -5  -3   9    2.49    0.22
  -4  -3   9    7.14    0.41
  -3  -3   9    0.12    0.05
  -2  -3   9    2.87    0.21
   2  -3   9    2.03    0.14
   3  -3   9    0.34    0.07
  -7  -2   9    0.09    0.05
  -6  -2   9    3.03    0.23
  -5  -2   9    0.10    0.04
  -4  -2   9    0.35    0.09
  -3  -2   9    0.39    0.09
  -2  -2   9    2.73    0.18
  -1  -2   9    0.28    0.04
   0  -2   9    0.05    0.02
   1  -2   9    0.04    0.02
   2  -2   9    0.64    0.07
   3  -2   9    0.17    0.05
   4  -2   9    0.06    0.03
  -8  -1   9    1.09    0.13
  -4  -1   9    2.34    0.11
  -3  -1   9    0.10    0.02
  -2  -1   9    0.77    0.06
  -1  -1   9    1.27    0.08
   0  -1   9    1.41    0.09
   1  -1   9    0.02    0.02
   2  -1   9    0.59    0.07
   3  -1   9    0.09    0.04
   4  -1   9    0.08    0.04
  -7   0   9    0.04    0.03
  -6   0   9   -0.01    0.03
  -5   0   9    0.13    0.03
  -4   0   9    0.03    0.02
  -3   0   9    0.04    0.02
  -2   0   9   -0.04    0.01
  -1   0   9   -0.06    0.01
   0   0   9    0.03    0.02
   1   0   9    0.02    0.02
   2   0   9    0.02    0.02
   3   0   9    0.02    0.02
   4   0   9    0.00    0.02
   5   0   9    0.01    0.03
  -8   1   9    1.17    0.10
  -7   1   9    0.02    0.03
  -6   1   9    0.45    0.06
  -5   1   9    0.65    0.06
  -4   1   9    2.22    0.12
  -3   1   9    0.06    0.02
  -2   1   9    0.71    0.06
  -1   1   9    1.08    0.08
   0   1   9    1.47    0.09
   1   1   9    0.03    0.02
   2   1   9    0.47    0.06
   3   1   9    0.06    0.03
   4   1   9    0.07    0.03
  -7   2   9    0.03    0.03
  -6   2   9    3.17    0.17
  -5   2   9    0.11    0.04
  -4   2   9    0.34    0.05
  -3   2   9    0.32    0.05
  -2   2   9    2.76    0.13
  -1   2   9    0.25    0.04
   0   2   9    0.01    0.01
   1   2   9    0.07    0.02
   2   2   9    0.70    0.07
   3   2   9    0.19    0.05
  -5   3   9    2.35    0.15
  -4   3   9    7.47    0.30
  -3   3   9    0.12    0.03
  -2   3   9    2.85    0.14
   2   3   9    2.15    0.13
   3   3   9    0.38    0.07
  -3  -4  10   17.57    0.80
  -5  -3  10    1.74    0.19
  -4  -3  10    5.50    0.34
  -3  -3  10   60.01    2.11
  -2  -3  10   34.79    1.32
   2  -3  10    9.51    0.40
   3  -3  10    0.36    0.08
  -7  -2  10   44.09    1.64
  -6  -2  10    1.23    0.15
  -5  -2  10    5.81    0.37
  -4  -2  10   74.54    2.62
  -3  -2  10   85.75    2.84
   0  -2  10   83.80    2.57
   1  -2  10    8.22    0.34
   2  -2  10   10.11    0.41
   3  -2  10    3.94    0.23
  -3  -1  10  163.41    4.55
  -2  -1  10   97.40    2.74
   0  -1  10   87.95    2.67
   1  -1  10  214.83    6.42
   2  -1  10   14.23    0.53
   3  -1  10    2.23    0.15
   4  -1  10   12.67    0.51
  -7   0  10   66.52    2.02
  -6   0  10    2.12    0.13
  -5   0  10    6.93    0.26
  -4   0  10  115.10    3.25
  -3   0  10  160.86    4.64
  -2   0  10    6.31    0.24
  -1   0  10   33.04    1.04
   0   0  10  154.09    4.54
   1   0  10   18.65    0.63
   2   0  10   17.72    0.60
   3   0  10    3.71    0.20
   4   0  10   42.67    1.38
   5   0  10    2.26    0.17
  -8   1  10    0.15    0.04
  -7   1  10   58.05    1.78
  -6   1  10   40.20    1.27
  -5   1  10    1.18    0.09
  -4   1  10   15.66    0.53
  -3   1  10  151.56    4.55
  -2   1  10   91.39    2.73
   0   1  10   92.70    2.66
   1   1  10  223.43    6.41
   2   1  10   14.44    0.51
   3   1  10    2.13    0.14
   4   1  10   12.46    0.48
  -7   2  10   43.99    1.38
  -6   2  10    1.00    0.09
  -5   2  10    7.70    0.28
  -4   2  10   74.49    2.22
  -3   2  10   82.20    2.42
  -2   2  10    1.30    0.09
  -1   2  10   22.01    0.70
   0   2  10   87.44    2.55
   1   2  10    8.58    0.23
  -5   3  10    1.97    0.13
  -4   3  10    4.78    0.22
  -3   3  10   57.20    1.77
  -2   3  10   35.11    1.10
   3   3  10    0.45    0.07
  -5  -3  11    1.53    0.18
  -4  -3  11    0.85    0.16
  -3  -3  11    2.94    0.24
   2  -3  11    0.09    0.04
  -6  -2  11    0.14    0.06
  -5  -2  11    4.85    0.32
  -4  -2  11    0.06    0.05
  -3  -2  11    1.73    0.17
  -2  -2  11    0.04    0.03
  -1  -2  11   12.28    0.46
   0  -2  11    0.01    0.02
   1  -2  11    3.73    0.20
   2  -2  11    0.12    0.04
   3  -2  11    5.93    0.31
  -4  -1  11    0.18    0.04
  -3  -1  11    1.48    0.09
  -2  -1  11    0.25    0.04
  -1  -1  11    1.13    0.09
   0  -1  11    0.61    0.07
   1  -1  11    2.02    0.14
   2  -1  11    0.02    0.02
   3  -1  11    0.87    0.10
   4  -1  11    0.32    0.07
  -7   0  11    0.00    0.02
  -6   0  11    0.03    0.02
  -5   0  11    0.01    0.01
  -4   0  11    0.15    0.03
  -3   0  11    0.00    0.01
  -2   0  11    0.00    0.01
  -1   0  11    0.03    0.02
   0   0  11    0.08    0.03
   1   0  11    0.03    0.02
   2   0  11    0.04    0.02
   3   0  11    0.04    0.02
   4   0  11    0.07    0.04
  -7   1  11    0.30    0.06
  -6   1  11    0.08    0.03
  -5   1  11    0.42    0.05
  -4   1  11    0.23    0.05
  -3   1  11    1.58    0.10
  -2   1  11    0.22    0.04
  -1   1  11    1.22    0.09
   0   1  11    0.49    0.06
   1   1  11    2.11    0.13
   2   1  11    0.02    0.02
   3   1  11    0.92    0.09
   4   1  11    0.31    0.07
  -6   2  11    0.12    0.04
  -5   2  11    4.67    0.22
  -4   2  11    0.15    0.04
  -3   2  11    1.85    0.11
  -2   2  11    0.06    0.02
  -1   2  11   13.40    0.46
   0   2  11    0.03    0.02
   1   2  11    3.60    0.18
  -5   3  11    1.57    0.12
  -4   3  11    0.88    0.08
  -3   3  11    3.18    0.17
  -2   3  11    1.24    0.09
  -5  -3  12   15.55    0.77
  -4  -3  12    9.22    0.53
  -3  -3  12   53.87    2.07
   2  -3  12    0.29    0.07
  -6  -2  12   85.11    3.04
  -5  -2  12    6.93    0.43
  -4  -2  12    3.87    0.27
  -3  -2  12    5.17    0.32
  -2  -2  12  155.96    5.39
  -1  -2  12    1.90    0.13
   0  -2  12   13.47    0.51
   2  -2  12   54.28    1.74
   3  -2  12    1.09    0.13
  -4  -1  12   11.47    0.40
  -3  -1  12  183.07    5.10
  -2  -1  12    1.06    0.09
  -1  -1  12  211.39    6.06
   1  -1  12   75.04    2.30
   3  -1  12  113.33    3.46
  -7   0  12    5.83    0.27
  -6   0  12  142.34    4.14
  -5   0  12    8.04    0.31
  -4   0  12    5.06    0.21
  -3   0  12    6.36    0.25
  -2   0  12  278.94    8.07
  -1   0  12    8.49    0.33
   0   0  12   25.64    0.84
   1   0  12    0.44    0.07
   2   0  12   92.54    2.77
   3   0  12    2.13    0.15
   4   0  12   33.41    1.11
  -7   1  12   53.78    1.65
  -6   1  12    2.21    0.14
  -5   1  12   37.29    1.16
  -4   1  12   11.14    0.41
  -3   1  12  174.15    5.10
  -2   1  12    1.17    0.09
  -1   1  12  211.18    6.05
   0   1  12    9.84    0.37
   1   1  12   76.03    2.28
   3   1  12  113.86    3.42
   4   1  12   20.51    0.73
  -6   2  12   84.43    2.56
  -5   2  12    8.10    0.32
  -4   2  12    3.12    0.16
  -3   2  12    5.00    0.23
  -2   2  12  164.15    4.72
  -1   2  12    2.02    0.12
   0   2  12   13.79    0.48
  -5   3  12   16.60    0.58
  -4   3  12   10.59    0.40
  -3   3  12   59.03    1.75
  -2   3  12    0.80    0.07
  -4  -3  13   13.95    0.70
  -6  -2  13    4.18    0.32
  -5  -2  13    0.72    0.15
  -4  -2  13    0.11    0.06
  -3  -2  13    4.07    0.28
  -1  -2  13    0.60    0.07
   0  -2  13    0.47    0.08
   1  -2  13    2.75    0.18
   2  -2  13    0.41    0.08
  -4  -1  13    4.01    0.18
  -3  -1  13    0.19    0.04
  -2  -1  13    0.60    0.07
  -1  -1  13    0.58    0.07
   0  -1  13    1.54    0.12
   1  -1  13    0.11    0.04
   2  -1  13    0.47    0.09
   3  -1  13    0.15    0.06
  -7   0  13    0.01    0.02
  -6   0  13    0.03    0.02
  -5   0  13    0.01    0.02
  -4   0  13    0.04    0.02
  -3   0  13    0.00    0.01
  -2   0  13    0.05    0.03
  -1   0  13   -0.01    0.01
   0   0  13    0.05    0.02
   1   0  13    0.07    0.03
   2   0  13    0.03    0.02
   3   0  13   -0.01    0.02
  -7   1  13    0.02    0.02
  -6   1  13    0.06    0.03
  -5   1  13    0.15    0.04
  -4   1  13    4.07    0.19
  -3   1  13    0.16    0.04
  -2   1  13    0.58    0.06
  -1   1  13    0.65    0.07
   0   1  13    1.57    0.11
   1   1  13    0.21    0.05
   2   1  13    0.51    0.08
   3   1  13    0.08    0.04
  -6   2  13    4.58    0.23
  -5   2  13    0.70    0.07
  -4   2  13    0.14    0.04
  -3   2  13    4.33    0.20
  -2   2  13    4.12    0.20
  -1   2  13    0.59    0.07
   0   2  13    0.55    0.06
   1   2  13    2.97    0.16
  -4   3  13   15.24    0.53
  -3   3  13    0.31    0.06
  -2   3  13    2.21    0.14
  -4  -3  14    3.36    0.28
  -6  -2  14   55.22    2.14
  -5  -2  14    0.27    0.10
  -4  -2  14   57.26    2.24
  -3  -2  14   13.36    0.63
  -1  -2  14    7.29    0.32
   0  -2  14   38.83    1.28
   1  -2  14    6.30    0.32
  -4  -1  14   14.76    0.51
  -3  -1  14   67.89    2.00
  -2  -1  14   47.34    1.43
  -1  -1  14   51.53    1.56
   0  -1  14   10.94    0.43
   1  -1  14   32.05    1.05
   2  -1  14   43.25    1.39
  -7   0  14   16.27    0.57
  -6   0  14  117.58    3.45
  -5   0  14    0.33    0.06
  -4   0  14  107.02    3.10
  -3   0  14   19.67    0.66
  -2   0  14   31.87    1.03
  -1   0  14    9.92    0.39
   0   0  14   60.79    1.86
   1   0  14   10.48    0.41
   2   0  14    2.00    0.15
  -7   1  14    4.42    0.23
  -6   1  14   23.90    0.79
  -5   1  14  101.23    2.98
  -4   1  14   14.15    0.51
  -3   1  14   64.30    2.00
  -2   1  14   46.19    1.43
  -1   1  14   50.09    1.56
   0   1  14   10.25    0.41
   1   1  14   31.19    1.03
   2   1  14   41.23    1.35
  -5   2  14    0.26    0.05
  -4   2  14   63.70    1.88
  -3   2  14   13.78    0.49
  -2   2  14   15.79    0.55
  -1   2  14    7.35    0.31
   0   2  14   40.00    1.25
   1   2  14    6.70    0.29
  -3   3  14   26.33    0.88
  -2   3  14   25.71    0.85
  -5  -2  15    1.70    0.20
  -4  -2  15    0.33    0.10
  -1  -2  15    2.04    0.15
   0  -2  15    0.59    0.10
   1  -2  15    0.27    0.07
  -4  -1  15    0.47    0.07
  -3  -1  15    0.38    0.06
  -2  -1  15    0.02    0.02
  -1  -1  15    0.01    0.02
   0  -1  15    0.22    0.06
   1  -1  15    0.11    0.04
  -7   0  15    0.00    0.02
  -6   0  15    0.03    0.02
  -5   0  15    0.04    0.02
  -4   0  15    0.00    0.02
  -3   0  15    0.03    0.02
  -2   0  15    0.03    0.02
  -1   0  15    0.01    0.02
   0   0  15    0.12    0.04
   1   0  15    0.00    0.02
   2   0  15    0.01    0.02
  -6   1  15    0.04    0.03
  -5   1  15    0.03    0.02
  -4   1  15    0.42    0.07
  -3   1  15    0.37    0.06
  -2   1  15    0.01    0.02
  -1   1  15    0.04    0.02
   0   1  15    0.26    0.06
   1   1  15    0.14    0.05
   2   1  15    0.02    0.03
  -5   2  15    2.14    0.14
  -4   2  15    0.53    0.06
  -3   2  15    0.28    0.06
  -2   2  15    1.58    0.12
  -1   2  15    2.17    0.14
   0   2  15    0.51    0.08
   1   2  15    0.31    0.06
  -2   3  15    0.08    0.03
  -5  -2  16   18.16    0.86
  -1  -2  16    6.89    0.31
  -4  -1  16   57.17    1.73
  -3  -1  16   75.57    2.26
  -2  -1  16   17.96    0.64
  -1  -1  16    8.63    0.37
   0  -1  16   50.45    1.58
   1  -1  16   73.96    2.35
  -7   0  16    0.81    0.08
  -6   0  16   29.29    0.96
  -5   0  16   29.61    0.96
  -4   0  16    1.01    0.09
  -3   0  16    5.56    0.26
  -2   0  16   25.55    0.85
  -1   0  16    6.99    0.31
   0   0  16    0.11    0.04
   1   0  16   16.47    0.61
  -6   1  16   30.97    1.01
  -5   1  16    6.06    0.29
  -4   1  16   56.24    1.73
  -3   1  16   74.72    2.26
  -2   1  16   18.16    0.65
  -1   1  16    8.39    0.36
   0   1  16   49.81    1.57
   1   1  16   75.02    2.28
  -4   2  16    1.34    0.11
  -3   2  16    3.56    0.20
  -2   2  16   18.25    0.67
  -1   2  16    6.13    0.29
  -1  -2  17    1.10    0.11
  -4  -1  17    0.42    0.07
  -3  -1  17    0.07    0.03
  -2  -1  17    0.26    0.06
  -1  -1  17    0.17    0.05
   0  -1  17    0.45    0.09
  -6   0  17    0.01    0.02
  -5   0  17    0.00    0.02
  -4   0  17    0.02    0.02
  -3   0  17   -0.01    0.02
  -2   0  17    0.01    0.02
  -1   0  17    0.01    0.02
   0   0  17    0.04    0.03
  -5   1  17    0.05    0.03
  -3   1  17    0.07    0.03
  -2   1  17    0.33    0.06
  -1   1  17    0.13    0.04
   0   1  17    0.42    0.08
  -4  -1  18    0.33    0.07
  -3  -1  18    0.88    0.09
  -2  -1  18    5.37    0.27
  -5   0  18    0.40    0.07
  -4   0  18   35.12    1.16
  -3   0  18    4.26    0.23
  -2   0  18   52.51    1.65
   0   0   0    0.00    0.00
;
_shelx_hkl_checksum              83270
_shelx_res_file
;
TITL yzq1 in P2(1)/c
CELL 0.71073   6.3846   3.6024  14.3873  90.000 110.636  90.000
ZERR    4.00   0.0018   0.0009   0.0040   0.000   0.010   0.000
LATT  1
SYMM -X, 0.5+Y, 0.5-Z
SFAC O F NA V
UNIT 8 8 4 4
TEMP -100
L.S. 10
BOND
FMAP 2
PLAN 20
ACTA
SIZE 0.5 0.30 0.10
WGHT    0.041200    0.464800
EXTI    0.049392
FVAR       0.24617
MOLE   1
V1    4    0.638420    0.256335    0.357598    11.00000    0.00704    0.01666 =
         0.00823   -0.00107    0.00330   -0.00079
NA1   3    0.134322    0.715391    0.353950    11.00000    0.01265    0.01228 =
         0.01116   -0.00012    0.00417   -0.00012
F1    2    0.879009    0.213496    0.309038    11.00000    0.00817    0.01525 =
         0.01190    0.00013    0.00474    0.00012
F2    2    0.359479    0.213799    0.370513    11.00000    0.01070    0.01427 =
         0.01817   -0.00008    0.00826   -0.00036
O1    1    0.594089    0.725073    0.320983    11.00000    0.01034    0.00914 =
         0.01374    0.00034    0.00558    0.00000
O2    1    0.787422    0.263738    0.471971    11.00000    0.01539    0.03147 =
         0.01104   -0.00088    0.00367   -0.00163
MOLE   2
HKLF 4
REM  yzq1 in P2(1)/c
REM R1 =  0.0259 for     726 Fo > 4sig(Fo)  and  0.0264 for all     744 data
REM     56 parameters refined using      0 restraints
END
WGHT      0.0404      0.4752
REM Highest difference peak  0.643,  deepest hole -0.627,  1-sigma level  0.107
Q1    1   0.6435  0.0539  0.3579  11.00000  0.05    0.64
Q2    1   0.7143  0.2760  0.4224  11.00000  0.05    0.54
Q3    1   0.9108  0.2445  0.3653  11.00000  0.05    0.36
Q4    1   0.5938  0.2508  0.2977  11.00000  0.05    0.31
Q5    1   0.7952  0.2304  0.3634  11.00000  0.05    0.30
Q6    1   0.7693  0.0793  0.2576  11.00000  0.05    0.29
Q7    1   0.4930  0.1931  0.3830  11.00000  0.05    0.28
Q8    1   0.7653  0.2381  0.2938  11.00000  0.05    0.28
Q9    1   0.7480  0.1133  0.3179  11.00000  0.05    0.25
Q10   1   0.9111 -0.0464  0.4618  11.00000  0.05    0.24
Q11   1   0.7841  0.2954  0.2424  11.00000  0.05    0.23
Q12   1   0.6956  0.7730  0.3331  11.00000  0.05    0.22
Q13   1   0.8485  0.2331  0.5605  11.00000  0.05    0.22
Q14   1   0.2816  0.0440  0.2640  11.00000  0.05    0.22
Q15   1   0.9130  0.5690  0.4602  11.00000  0.05    0.21
Q16   1   0.4101  0.2563  0.4252  11.00000  0.05    0.21
Q17   1   0.0631  0.7752  0.2790  11.00000  0.05    0.20
Q18   1   0.6281  0.4521  0.4781  11.00000  0.05    0.19
Q19   1   0.5000  0.5000  0.5000  10.50000  0.05    0.18
Q20   1   0.4202  0.7295  0.2787  11.00000  0.05    0.17
;
_shelx_res_checksum              89552
_shelxl_version_number           20.13
loop_
_space_group_symop_operation_xyz
'x, y, z'
'-x, y+1/2, -z+1/2'
'-x, -y, -z'
'x, -y-1/2, z-1/2'
loop_
_atom_site_type_symbol
_atom_site_label
_atom_site_fract_x
_atom_site_fract_y
_atom_site_fract_z
_atom_site_U_iso_or_equiv
_atom_site_adp_type
_atom_site_calc_flag
_atom_site_occupancy
V V1 0.63842(5) 0.25633(9) 0.35760(3) 0.0105(2) Uani d 1
Na Na1 0.13432(13) 0.7154(2) 0.35395(6) 0.0120(3) Uani d 1
F F1 0.8790(2) 0.2135(3) 0.30904(10) 0.0115(3) Uani d 1
F F2 0.3595(2) 0.2138(3) 0.37051(11) 0.0135(3) Uani d 1
O O1 0.5941(2) 0.7251(3) 0.32098(12) 0.0107(3) Uani d 1
O O2 0.7874(3) 0.2637(4) 0.47197(13) 0.0196(4) Uani d 1
loop_
_atom_site_aniso_label
_atom_site_aniso_U_11
_atom_site_aniso_U_22
_atom_site_aniso_U_33
_atom_site_aniso_U_12
_atom_site_aniso_U_13
_atom_site_aniso_U_23
V1 0.0070(3) 0.0167(3) 0.0082(3) -0.00079(10) 0.00330(17) -0.00107(10)
Na1 0.0127(5) 0.0123(5) 0.0112(5) -0.0001(3) 0.0042(4) -0.0001(3)
F1 0.0082(6) 0.0152(6) 0.0119(6) 0.0001(4) 0.0047(5) 0.0001(4)
F2 0.0107(6) 0.0143(6) 0.0182(6) -0.0004(4) 0.0083(5) -0.0001(4)
O1 0.0103(7) 0.0091(7) 0.0137(8) 0.0000(4) 0.0056(6) 0.0003(5)
O2 0.0154(8) 0.0315(10) 0.0110(8) -0.0016(6) 0.0037(6) -0.0009(5)
loop_
_atom_type_symbol
_atom_type_description
_atom_type_scat_dispersion_real
_atom_type_scat_dispersion_imag
_atom_type_scat_source
O O 0.0106 0.0060 'International Tables Vol C Tables 4.2.6.8 and 6.1.1.4'
F F 0.0171 0.0103 'International Tables Vol C Tables 4.2.6.8 and 6.1.1.4'
Na Na 0.0362 0.0249 'International Tables Vol C Tables 4.2.6.8 and 6.1.1.4'
V V 0.3005 0.5294 'International Tables Vol C Tables 4.2.6.8 and 6.1.1.4'
loop_
_geom_angle_atom_site_label_1
_geom_angle_atom_site_label_2
_geom_angle_atom_site_label_3
_geom_angle_site_symmetry_1
_geom_angle_site_symmetry_3
_geom_angle
O2 V1 O1 . . 105.59(8)
O2 V1 F2 . . 98.23(8)
O1 V1 F2 . . 92.88(6)
O2 V1 F1 . . 96.64(8)
O1 V1 F1 . . 91.91(6)
F2 V1 F1 . . 162.53(7)
O2 V1 O1 . 1_545 105.66(7)
O1 V1 O1 . 1_545 148.71(9)
F2 V1 O1 . 1_545 83.96(6)
F1 V1 O1 . 1_545 83.23(6)
O2 V1 Na1 . 1_655 78.32(7)
O1 V1 Na1 . 1_655 66.64(5)
F2 V1 Na1 . 1_655 156.88(4)
F1 V1 Na1 . 1_655 37.09(4)
O1 V1 Na1 1_545 1_655 119.08(5)
O2 V1 Na1 . . 102.34(7)
O1 V1 Na1 . . 60.47(5)
F2 V1 Na1 . . 32.62(4)
F1 V1 Na1 . . 149.74(4)
O1 V1 Na1 1_545 . 113.38(5)
Na1 V1 Na1 1_655 . 125.21(3)
F2 Na1 F2 1_565 . 105.41(6)
F2 Na1 F1 1_565 2_655 84.50(5)
F2 Na1 F1 . 2_655 84.25(6)
F2 Na1 F1 1_565 1_465 77.10(5)
F2 Na1 F1 . 1_465 170.70(7)
F1 Na1 F1 2_655 1_465 87.11(5)
F2 Na1 F1 1_565 1_455 170.83(7)
F2 Na1 F1 . 1_455 76.71(5)
F1 Na1 F1 2_655 1_455 86.86(5)
F1 Na1 F1 1_465 1_455 99.41(6)
F2 Na1 O2 1_565 3_666 88.51(6)
F2 Na1 O2 . 3_666 91.40(6)
F1 Na1 O2 2_655 3_666 170.48(7)
F1 Na1 O2 1_465 3_666 97.65(6)
F1 Na1 O2 1_455 3_666 100.41(6)
F2 Na1 Na1 1_565 2_545 128.30(6)
F2 Na1 Na1 . 2_545 76.97(4)
F1 Na1 Na1 2_655 2_545 43.89(4)
F1 Na1 Na1 1_465 2_545 94.39(5)
F1 Na1 Na1 1_455 2_545 42.98(4)
O2 Na1 Na1 3_666 2_545 143.04(5)
F2 Na1 Na1 1_565 2 77.08(4)
F2 Na1 Na1 . 2 128.32(6)
F1 Na1 Na1 2_655 2 44.15(4)
F1 Na1 Na1 1_465 2 42.96(4)
F1 Na1 Na1 1_455 2 94.55(5)
O2 Na1 Na1 3_666 2 139.95(5)
Na1 Na1 Na1 2_545 2 64.11(3)
F2 Na1 V1 1_565 1_455 153.69(4)
F2 Na1 V1 . 1_455 99.27(4)
F1 Na1 V1 2_655 1_455 107.19(4)
F1 Na1 V1 1_465 1_455 80.00(4)
F1 Na1 V1 1_455 1_455 29.03(3)
O2 Na1 V1 3_666 1_455 81.84(5)
Na1 Na1 V1 2_545 1_455 66.04(3)
Na1 Na1 V1 2 1_455 94.76(4)
F2 Na1 V1 1_565 . 80.29(4)
F2 Na1 V1 . . 26.24(3)
F1 Na1 V1 2_655 . 74.17(4)
F1 Na1 V1 1_465 . 151.85(4)
F1 Na1 V1 1_455 . 100.32(4)
O2 Na1 V1 3_666 . 98.30(5)
Na1 Na1 V1 2_545 . 86.60(3)
Na1 Na1 V1 2 . 115.34(4)
V1 Na1 V1 1_455 . 125.21(3)
F2 Na1 Na1 1_565 1_545 142.62(4)
F2 Na1 Na1 . 1_545 37.21(4)
F1 Na1 Na1 2_655 1_545 89.83(3)
F1 Na1 Na1 1_465 1_545 139.60(4)
F1 Na1 Na1 1_455 1_545 40.19(4)
O2 Na1 Na1 3_666 1_545 91.81(4)
Na1 Na1 Na1 2_545 1_545 57.944(18)
Na1 Na1 Na1 2 1_545 122.057(17)
V1 Na1 Na1 1_455 1_545 62.561(17)
V1 Na1 Na1 . 1_545 62.673(17)
F2 Na1 Na1 1_565 1_565 37.38(4)
F2 Na1 Na1 . 1_565 142.79(4)
F1 Na1 Na1 2_655 1_565 90.17(3)
F1 Na1 Na1 1_465 1_565 40.40(4)
F1 Na1 Na1 1_455 1_565 139.81(4)
O2 Na1 Na1 3_666 1_565 88.19(4)
Na1 Na1 Na1 2_545 1_565 122.056(18)
Na1 Na1 Na1 2 1_565 57.944(18)
V1 Na1 Na1 1_455 1_565 117.439(17)
V1 Na1 Na1 . 1_565 117.327(17)
Na1 Na1 Na1 1_545 1_565 180.0
V1 F1 Na1 . 2_645 128.64(7)
V1 F1 Na1 . 1_645 122.04(6)
Na1 F1 Na1 2_645 1_645 93.15(5)
V1 F1 Na1 . 1_655 113.88(6)
Na1 F1 Na1 2_645 1_655 92.88(5)
Na1 F1 Na1 1_645 1_655 99.41(6)
V1 F2 Na1 . 1_545 130.59(6)
V1 F2 Na1 . . 121.15(6)
Na1 F2 Na1 1_545 . 105.41(6)
V1 O1 V1 . 1_565 148.71(9)
V1 O2 Na1 . 3_666 157.15(11)
loop_
_geom_bond_atom_site_label_1
_geom_bond_atom_site_label_2
_geom_bond_site_symmetry_2
_geom_bond_distance
V1 O2 . 1.5843(18)
V1 O1 . 1.7618(14)
V1 F2 . 1.8609(14)
V1 F1 . 1.9047(13)
V1 O1 1_545 1.9787(14)
V1 Na1 1_655 3.5887(12)
V1 Na1 . 3.6024(12)
Na1 F2 1_565 2.2596(14)
Na1 F2 . 2.2687(14)
Na1 F1 2_655 2.3163(16)
Na1 F1 1_465 2.3562(14)
Na1 F1 1_455 2.3667(15)
Na1 O2 3_666 2.376(2)
Na1 Na1 2_545 3.3937(16)
Na1 Na1 2 3.3937(16)
Na1 V1 1_455 3.5887(12)
Na1 Na1 1_545 3.6024(9)
Na1 Na1 1_565 3.6024(9)
F1 Na1 2_645 2.3163(16)
F1 Na1 1_645 2.3563(14)
F1 Na1 1_655 2.3667(15)
F2 Na1 1_545 2.2595(14)
O1 V1 1_565 1.9787(14)
O2 Na1 3_666 2.376(2)

_cod_database_fobs_code 2019930
