#------------------------------------------------------------------------------
#$Date: 2016-02-20 00:18:51 +0200 (Sat, 20 Feb 2016) $
#$Revision: 176760 $
#$URL: svn://www.crystallography.net/cod/cif/2/01/91/2019135.cif $
#------------------------------------------------------------------------------
#
# This file is available in the Crystallography Open Database (COD),
# http://www.crystallography.net/. The original data for this entry
# were provided by IUCr Journals, http://journals.iucr.org/.
#
# The file may be used within the scientific community so long as
# proper attribution is given to the journal article from which the
# data were obtained.
#
data_2019135
loop_
_publ_author_name
'Weil, Matthias'
_publ_section_title
;
 On the (non-)existence of Tutton salts with formula types
 [<i>M</i>(H~2~O)~6~](ClO~4~)~2~(H~2~O)~2~ and
 Na~2~<i>M</i>(SO~4~)~2~(H~2~O)~6~ (<i>M</i> is a first-row transition
 metal)
;
_journal_coeditor_code           FN3144
_journal_issue                   9
_journal_name_full               'Acta Crystallographica Section C'
_journal_page_first              990
_journal_page_last               994
_journal_paper_doi               10.1107/S0108270113020027
_journal_volume                  69
_journal_year                    2013
_chemical_formula_iupac          '(N H4)2 Cu (S O4)2 (H2 O)6'
_chemical_formula_moiety         '2(H4 N +), Cu H12 O6 2+, 2(O4 S 2-)'
_chemical_formula_sum            'Cu H20 N2 O14 S2'
_chemical_formula_weight         399.84
_chemical_name_common            'Tutton salt ammonium copper'
_chemical_name_systematic
;
Diammonium hexaaquacopper(II) disulfate
;
_space_group_IT_number           14
_symmetry_cell_setting           monoclinic
_symmetry_space_group_name_Hall  '-P 2ybc'
_symmetry_space_group_name_H-M   'P 1 21/c 1'
_atom_sites_solution_hydrogens   geom
_atom_sites_solution_primary     direct
_atom_sites_solution_secondary   difmap
_audit_creation_method           SHELXL-97
_cell_angle_alpha                90.00
_cell_angle_beta                 106.146(2)
_cell_angle_gamma                90.00
_cell_formula_units_Z            2
_cell_length_a                   6.2908(3)
_cell_length_b                   12.4043(6)
_cell_length_c                   9.2181(5)
_cell_measurement_reflns_used    3539
_cell_measurement_temperature    273(2)
_cell_measurement_theta_max      25.19
_cell_measurement_theta_min      2.83
_cell_volume                     690.94(6)
_computing_cell_refinement       'SMART (Bruker, 2002)'
_computing_data_collection       'SMART (Bruker, 2002)'
_computing_data_reduction        'SAINT (Bruker, 2002)'
_computing_molecular_graphics
'ATOMS for Windows (Dowty, 2006) and <i>PLATON</i> (Spek, 2009)'
_computing_publication_material  'publCIF (Westrip, 2010)'
_computing_structure_refinement  'SHELXL97 (Sheldrick, 2008)'
_computing_structure_solution    'coordinates taken from the previous model'
_diffrn_ambient_temperature      273(2)
_diffrn_measured_fraction_theta_full 0.999
_diffrn_measured_fraction_theta_max 0.999
_diffrn_measurement_device_type  'Bruker APEX area-detector'
_diffrn_measurement_method       '\f and \w'
_diffrn_radiation_monochromator  graphite
_diffrn_radiation_source         'fine-focus sealed tube'
_diffrn_radiation_type           MoK\a
_diffrn_radiation_wavelength     0.71073
_diffrn_reflns_av_R_equivalents  0.0000
_diffrn_reflns_av_sigmaI/netI    0.0163
_diffrn_reflns_limit_h_max       7
_diffrn_reflns_limit_h_min       -7
_diffrn_reflns_limit_k_max       14
_diffrn_reflns_limit_k_min       0
_diffrn_reflns_limit_l_max       11
_diffrn_reflns_limit_l_min       0
_diffrn_reflns_number            1244
_diffrn_reflns_theta_full        25.19
_diffrn_reflns_theta_max         25.19
_diffrn_reflns_theta_min         2.83
_diffrn_standards_number         0
_exptl_absorpt_coefficient_mu    1.954
_exptl_absorpt_correction_T_max  0.5553
_exptl_absorpt_correction_T_min  0.2900
_exptl_absorpt_correction_type   multi-scan
_exptl_absorpt_process_details   '(SADABS; Sheldrick, 2004)'
_exptl_crystal_colour            'pale blue'
_exptl_crystal_density_diffrn    1.922
_exptl_crystal_density_method    'not measured'
_exptl_crystal_description       prism
_exptl_crystal_F_000             414
_exptl_crystal_size_max          0.60
_exptl_crystal_size_mid          0.52
_exptl_crystal_size_min          0.29
_refine_diff_density_max         0.329
_refine_diff_density_min         -0.489
_refine_ls_extinction_method     none
_refine_ls_goodness_of_fit_ref   1.143
_refine_ls_hydrogen_treatment    mixed
_refine_ls_matrix_type           full
_refine_ls_number_parameters     104
_refine_ls_number_reflns         1244
_refine_ls_number_restraints     4
_refine_ls_restrained_S_all      1.141
_refine_ls_R_factor_all          0.0244
_refine_ls_R_factor_gt           0.0239
_refine_ls_shift/su_max          0.000
_refine_ls_shift/su_mean         0.000
_refine_ls_structure_factor_coef Fsqd
_refine_ls_weighting_details
'calc w=1/[\s^2^(Fo^2^)+(0.0409P)^2^+0.3339P] where P=(Fo^2^+2Fc^2^)/3'
_refine_ls_weighting_scheme      calc
_refine_ls_wR_factor_gt          0.0693
_refine_ls_wR_factor_ref         0.0696
_reflns_number_gt                1214
_reflns_number_total             1244
_reflns_threshold_expression     I>2sigma(I)
_iucr_refine_instructions_details
;
TITL CI6335 re-refinement
CELL  0.71073    6.2908   12.4043    9.2181    90.000   106.146    90.000
ZERR        2    0.0003    0.0006    0.0005     0.000     0.002     0.000
LATT 1
SYMM             - X ,    0.50000 + Y ,    0.50000 - Z
SFAC Cu H  O  N  S
UNIT 2  40  28  4  4
L.S. 5
ACTA
BOND $H
FMAP 2
PLAN 20
htab
TEMP 0
dfix N1 H1N 0.90 0.001
dfix N1 H2N 0.90 0.001
dfix N1 H3N 0.90 0.001
dfix N1 H4N 0.90 0.001
conn 10 3.5 N1
eqiv $1  x-1, y, z-1
eqiv $2 x-1, -y+1/2, z-1/2
eqiv $3 -x+1, -y, -z+1
eqiv $4 -x+1, y-1/2, -z+3/2
eqiv $5 x, -y+1/2, z-1/2
eqiv $6 -x+1, y+1/2, -z+3/2
eqiv $7 -x+1, -y+1, -z+1
eqiv $8 -x+2, -y+1, -z+2
eqiv $9 -x+1, -y+1, -z+2
eqiv $10 x+1, -y+1/2, z+1/2
htab O5 O1_$1
htab O5 O2_$2
htab O6 O4_$3
htab O6 O3_$4
htab O7 O2_$5
htab O7 O4_$2
htab N1 O2
htab N1 O1_$6
htab N1 O7_$7
htab N1 O4_$8
htab N1 O1_$9
htab N1 O3_$9
htab N1 O6_$10
htab N1 O3
WGHT    0.040900    0.333900
FVAR      10.21599
CU1   1    0.000000    0.000000    0.000000    10.50000    0.02153    0.02115 =
         0.01883   -0.00044    0.00514    0.00154
O5    3   -0.283334    0.064964    0.004180    11.00000    0.02871    0.02660 =
         0.02799    0.00288    0.01070    0.00412
AFIX   3
H5    2   -0.310534    0.127004   -0.025520    11.00000   -1.50000
H5A   2   -0.312834    0.062504    0.084980    11.00000   -1.50000
AFIX   0
O6    3   -0.031876   -0.109109    0.164830    11.00000    0.04044    0.03036 =
         0.02795   -0.00243    0.00614    0.00451
AFIX   3
H6    2   -0.006876   -0.170229    0.141030    11.00000   -1.50000
H6A   2    0.038924   -0.097929    0.251930    11.00000   -1.50000
AFIX   0
O7    3    0.174390    0.115584    0.173537    11.00000    0.02946    0.04651 =
         0.03263   -0.00234    0.00757    0.00387
AFIX   3
H7    2    0.303390    0.099785    0.211637    11.00000   -1.50000
H7A   2    0.113690    0.124585    0.239537    11.00000   -1.50000
AFIX   0
S1    5    0.744745    0.360887    0.908895    11.00000    0.02709    0.02408 =
         0.02166    0.00303    0.00573    0.00241
O1    3    0.599610    0.267800    0.913943    11.00000    0.03397    0.03034 =
         0.04973    0.01130    0.01247   -0.00159
O2    3    0.631575    0.429457    0.779470    11.00000    0.03450    0.03183 =
         0.02591    0.00849    0.00748    0.00501
O3    3    0.780212    0.423461    1.047479    11.00000    0.06040    0.04855 =
         0.02536   -0.00590    0.00537    0.00762
O4    3    0.956759    0.321616    0.889501    11.00000    0.02790    0.03360 =
         0.04635    0.00198    0.01098    0.00412
N1    4    0.641245    0.651407    0.866420    11.00000    0.03551    0.03203 =
         0.03262    0.00025    0.01325    0.00156
H1N   2    0.640232    0.582992    0.833764    11.00000    0.05285
H2N   2    0.612133    0.700642    0.791779    11.00000    0.06849
H3N   2    0.544560    0.664896    0.920062    11.00000    0.06960
H4N   2    0.778616    0.653855    0.930031    11.00000    0.05523
HKLF 4
REM  CI6335 re-refinement
REM R1 =  0.0239 for   1214 Fo > 4sig(Fo)  and  0.0244 for all   1244 data
REM    104 parameters refined using      4 restraints
END
WGHT      0.0436      0.3699
REM Highest difference peak  0.329,  deepest hole -0.489,  1-sigma level  0.069
Q1    1   0.8877  0.4370  1.0428  11.00000  0.05    0.33
Q2    1   0.6580  0.2964  0.9168  11.00000  0.05    0.27
Q3    1   0.8844  0.3315  0.9032  11.00000  0.05    0.26
Q4    1   0.6854  0.4015  0.8140  11.00000  0.05    0.25
Q5    1   0.6313  0.2442  0.8620  11.00000  0.05    0.24
Q6    1   0.7645  0.3820  1.0118  11.00000  0.05    0.24
Q7    1   0.0092  0.0056  0.1106  11.00000  0.05    0.24
Q8    1   0.6126  0.3998  0.7292  11.00000  0.05    0.22
Q9    1   0.9173  0.3034  0.8103  11.00000  0.05    0.22
Q10   1   0.7725  0.3871  1.1015  11.00000  0.05    0.21
Q11   1   0.7636  0.4370  1.0728  11.00000  0.05    0.20
Q12   1  -0.1699  0.0406 -0.0037  11.00000  0.05    0.17
Q13   1   0.2460  0.1259  0.1804  11.00000  0.05    0.17
Q14   1   0.1597  0.1357  0.2289  11.00000  0.05    0.16
Q15   1   0.6022  0.6651  0.7744  11.00000  0.05    0.16
Q16   1   0.1570 -0.0036  0.3216  11.00000  0.05    0.15
Q17   1   0.1620  0.1320  0.0795  11.00000  0.05    0.15
Q18   1   0.1281  0.0606  0.1408  11.00000  0.05    0.14
Q19   1  -0.0774 -0.1193  0.0556  11.00000  0.05    0.13
Q20   1   0.1111  0.1944  0.1298  11.00000  0.05    0.13
;
_cod_data_source_file            fn3144.cif
_cod_data_source_block           CI6335_redetermined
_cod_original_sg_symbol_H-M      'P 21/c'
_cod_database_code               2019135
_cod_database_fobs_code          2019135
loop_
_symmetry_equiv_pos_as_xyz
'x, y, z'
'-x, y+1/2, -z+1/2'
'-x, -y, -z'
'x, -y-1/2, z-1/2'
loop_
_atom_site_type_symbol
_atom_site_label
_atom_site_fract_x
_atom_site_fract_y
_atom_site_fract_z
_atom_site_U_iso_or_equiv
_atom_site_adp_type
_atom_site_calc_flag
_atom_site_refinement_flags
_atom_site_occupancy
_atom_site_symmetry_multiplicity
Cu Cu1 0.0000 0.0000 0.0000 0.02060(14) Uani d S 1 2
O O5 -0.2833(2) 0.06496(11) 0.00418(16) 0.0272(3) Uani d . 1 1
H H5 -0.3105 0.1270 -0.0255 0.041 Uiso d R 1 1
H H5A -0.3128 0.0625 0.0850 0.041 Uiso d R 1 1
O O6 -0.0319(3) -0.10911(12) 0.16483(17) 0.0336(4) Uani d . 1 1
H H6 -0.0069 -0.1702 0.1410 0.050 Uiso d R 1 1
H H6A 0.0389 -0.0979 0.2519 0.050 Uiso d R 1 1
O O7 0.1744(3) 0.11558(13) 0.17354(17) 0.0364(4) Uani d . 1 1
H H7 0.3034 0.0998 0.2116 0.055 Uiso d R 1 1
H H7A 0.1137 0.1246 0.2395 0.055 Uiso d R 1 1
S S1 0.74474(8) 0.36089(4) 0.90889(5) 0.02449(16) Uani d . 1 1
O O1 0.5996(3) 0.26780(13) 0.91394(19) 0.0378(4) Uani d . 1 1
O O2 0.6316(2) 0.42946(12) 0.77947(16) 0.0309(4) Uani d . 1 1
O O3 0.7802(3) 0.42346(15) 1.04748(18) 0.0461(5) Uani d . 1 1
O O4 0.9568(3) 0.32162(13) 0.88950(19) 0.0358(4) Uani d . 1 1
N N1 0.6412(3) 0.65141(16) 0.8664(2) 0.0326(4) Uani d D 1 1
H H1N 0.640(5) 0.5830(8) 0.834(3) 0.053(9) Uiso d D 1 1
H H2N 0.612(5) 0.701(2) 0.792(3) 0.068(10) Uiso d D 1 1
H H3N 0.545(4) 0.665(3) 0.920(3) 0.070(10) Uiso d D 1 1
H H4N 0.779(2) 0.654(3) 0.930(3) 0.055(9) Uiso d D 1 1
loop_
_atom_site_aniso_label
_atom_site_aniso_U_11
_atom_site_aniso_U_22
_atom_site_aniso_U_33
_atom_site_aniso_U_12
_atom_site_aniso_U_13
_atom_site_aniso_U_23
Cu1 0.0215(2) 0.0211(2) 0.0188(2) 0.00154(11) 0.00514(15) -0.00044(11)
O5 0.0287(7) 0.0266(7) 0.0280(7) 0.0041(6) 0.0107(6) 0.0029(6)
O6 0.0404(9) 0.0304(8) 0.0280(8) 0.0045(7) 0.0061(7) -0.0024(6)
O7 0.0295(8) 0.0465(9) 0.0326(8) 0.0039(7) 0.0076(7) -0.0023(7)
S1 0.0271(3) 0.0241(3) 0.0217(3) 0.00241(19) 0.0057(2) 0.00303(18)
O1 0.0340(9) 0.0303(8) 0.0497(10) -0.0016(7) 0.0125(7) 0.0113(7)
O2 0.0345(8) 0.0318(8) 0.0259(8) 0.0050(6) 0.0075(6) 0.0085(6)
O3 0.0604(12) 0.0486(10) 0.0254(8) 0.0076(9) 0.0054(8) -0.0059(7)
O4 0.0279(8) 0.0336(8) 0.0464(9) 0.0041(6) 0.0110(7) 0.0020(7)
N1 0.0355(11) 0.0320(11) 0.0326(11) 0.0016(8) 0.0132(9) 0.0003(8)
loop_
_atom_type_symbol
_atom_type_description
_atom_type_scat_dispersion_real
_atom_type_scat_dispersion_imag
_atom_type_scat_source
Cu Cu 0.3201 1.2651 'International Tables Vol C Tables 4.2.6.8 and 6.1.1.4'
H H 0.0000 0.0000 'International Tables Vol C Tables 4.2.6.8 and 6.1.1.4'
O O 0.0106 0.0060 'International Tables Vol C Tables 4.2.6.8 and 6.1.1.4'
N N 0.0061 0.0033 'International Tables Vol C Tables 4.2.6.8 and 6.1.1.4'
S S 0.1246 0.1234 'International Tables Vol C Tables 4.2.6.8 and 6.1.1.4'
loop_
_geom_angle_atom_site_label_1
_geom_angle_atom_site_label_2
_geom_angle_atom_site_label_3
_geom_angle_site_symmetry_1
_geom_angle_site_symmetry_3
_geom_angle
O5 Cu1 O5 3 . 180.00(11)
O5 Cu1 O6 3 . 91.13(6)
O5 Cu1 O6 . . 88.87(6)
O5 Cu1 O6 3 3 88.87(6)
O5 Cu1 O6 . 3 91.13(6)
O6 Cu1 O6 . 3 180.00(11)
O5 Cu1 O7 3 3 89.43(6)
O5 Cu1 O7 . 3 90.57(6)
O6 Cu1 O7 . 3 88.70(6)
O6 Cu1 O7 3 3 91.30(6)
O5 Cu1 O7 3 . 90.57(6)
O5 Cu1 O7 . . 89.43(6)
O6 Cu1 O7 . . 91.30(6)
O6 Cu1 O7 3 . 88.70(6)
O7 Cu1 O7 3 . 180.00(9)
O3 S1 O4 . . 111.00(11)
O3 S1 O2 . . 108.85(10)
O4 S1 O2 . . 109.93(9)
O3 S1 O1 . . 109.45(11)
O4 S1 O1 . . 109.40(9)
O2 S1 O1 . . 108.15(9)
H1N N1 H2N . . 114(3)
H1N N1 H3N . . 115(3)
H2N N1 H3N . . 106(3)
H1N N1 H4N . . 100(3)
H2N N1 H4N . . 115(3)
H3N N1 H4N . . 108(3)
loop_
_geom_bond_atom_site_label_1
_geom_bond_atom_site_label_2
_geom_bond_site_symmetry_2
_geom_bond_distance
_geom_bond_publ_flag
Cu1 O5 3 1.9662(14) ?
Cu1 O5 . 1.9662(14) ?
Cu1 O6 . 2.0857(15) ?
Cu1 O6 3 2.0857(15) ?
Cu1 O7 3 2.2005(16) ?
Cu1 O7 . 2.2005(16) ?
O5 H5 . 0.8188 ?
O5 H5A . 0.8167 ?
O6 H6 . 0.8166 ?
O6 H6A . 0.8145 ?
O7 H7 . 0.8135 ?
O7 H7A . 0.8109 ?
S1 O3 . 1.4580(17) y
S1 O4 . 1.4767(16) y
S1 O2 . 1.4769(14) y
S1 O1 . 1.4808(16) y
N1 H1N . 0.8999(11) ?
N1 H2N . 0.8999(11) ?
N1 H3N . 0.8998(11) ?
N1 H4N . 0.8998(11) ?
loop_
_geom_hbond_atom_site_label_D
_geom_hbond_atom_site_label_H
_geom_hbond_atom_site_label_A
_geom_hbond_site_symmetry_A
_geom_hbond_distance_DH
_geom_hbond_distance_HA
_geom_hbond_distance_DA
_geom_hbond_angle_DHA
O5 H5 O1 1_454 0.82 1.87 2.688(2) 173.8
O5 H5A O2 4_465 0.82 1.92 2.736(2) 174.3
O6 H6 O4 3_656 0.82 1.94 2.749(2) 171.9
O6 H6A O3 2_646 0.81 1.90 2.714(2) 176.3
O7 H7 O2 4_565 0.81 2.02 2.824(2) 171.7
O7 H7A O4 4_465 0.81 2.02 2.821(2) 168.4
N1 H1N O2 . 0.8999(11) 1.966(4) 2.863(2) 175(3)
N1 H2N O1 2_656 0.8999(11) 2.159(16) 2.980(3) 151(3)
N1 H2N O7 3_666 0.8999(11) 2.62(3) 3.174(3) 121(3)
N1 H4N O4 3_767 0.8998(11) 2.023(9) 2.899(3) 164(3)
N1 H3N O1 3_667 0.8998(11) 2.152(11) 3.018(3) 161(3)
N1 H3N O3 3_667 0.8998(11) 2.41(2) 3.113(3) 135(3)
