#------------------------------------------------------------------------------
#$Date: 2015-05-13 22:35:40 +0300 (Wed, 13 May 2015) $
#$Revision: 136356 $
#$URL: svn://www.crystallography.net/cod/cif/2/01/99/2019932.cif $
#------------------------------------------------------------------------------
#
# This file is available in the Crystallography Open Database (COD),
# http://www.crystallography.net/. The original data for this entry
# were provided by IUCr Journals, http://journals.iucr.org/.
#
# The file may be used within the scientific community so long as
# proper attribution is given to the journal article from which the
# data were obtained.
#
data_2019932
loop_
_publ_author_name
'Yu, Zi-Qun'
'Wang, Jing-Quan'
'Huang, Ya-Xi'
'Botis, Sanda M.'
'Pan, Yuanming'
'Mi, Jin-Xiao'
_publ_section_title
;
 Polymorphism of NaVO~2~F~2~: a <i>P</i>2~1~/<i>c</i> superstructure with
 pseudosymmetry of <i>P</i>2~1~/<i>m</i> in the subcell
;
_journal_coeditor_code           YP3086
_journal_issue                   6
_journal_name_full               'Acta Crystallographica Section C'
_journal_page_first
;
;
_journal_paper_doi               10.1107/S2053229615008530
_journal_volume                  71
_journal_year                    2015
_chemical_formula_iupac          'Na V O2 F2'
_chemical_formula_moiety         'F2 Na O2 V'
_chemical_formula_sum            'F2 Na O2 V'
_chemical_formula_weight         143.93
_chemical_name_systematic
;
Sodium vanadium dioxide difluoride
;
_space_group_crystal_system      monoclinic
_space_group_IT_number           11
_space_group_name_Hall           '-P 2yb'
_space_group_name_H-M_alt        'P 1 21/m 1'
_symmetry_space_group_name_Hall  '-P 2yb'
_symmetry_space_group_name_H-M   'P 1 21/m 1'
_audit_creation_method           SHELXL-2013
_cell_angle_alpha                90
_cell_angle_beta                 110.37(4)
_cell_angle_gamma                90
_cell_formula_units_Z            2
_cell_length_a                   6.369(5)
_cell_length_b                   3.625(2)
_cell_length_c                   7.196(6)
_cell_measurement_temperature    295(2)
_cell_volume                     155.7(2)
_computing_cell_refinement
;
SAINT (Bruker, 2001)
;
_computing_data_collection
;
SMART (Bruker, 2001)
;
_computing_data_reduction
;
SAINT (Bruker, 2001)
;
_computing_molecular_graphics
;
DIAMOND (Brandenburg, 2012)
;
_computing_publication_material
;
SHELXL2013 (Sheldrick, 2015)
;
_computing_structure_refinement
;
SHELXL2013 (Sheldrick, 2015)
;
_computing_structure_solution
;
SHELXS2013 (Sheldrick, 2015)
;
_diffrn_ambient_temperature      295(2)
_diffrn_measured_fraction_theta_full 0.994
_diffrn_measured_fraction_theta_max 0.930
_diffrn_measurement_device_type  'Bruker CCD area-detector'
_diffrn_measurement_method
'1265 images,\f=0, 90, 180 degree, and \D\w=0.3 degree, \c= 54.74 degree'
_diffrn_radiation_monochromator  graphite
_diffrn_radiation_source         'fine-focus sealed tube'
_diffrn_radiation_type           MoK\a
_diffrn_radiation_wavelength     0.71073
_diffrn_reflns_av_R_equivalents  0.0193
_diffrn_reflns_limit_h_max       8
_diffrn_reflns_limit_h_min       -5
_diffrn_reflns_limit_k_max       4
_diffrn_reflns_limit_k_min       -4
_diffrn_reflns_limit_l_max       9
_diffrn_reflns_limit_l_min       -9
_diffrn_reflns_number            960
_diffrn_reflns_theta_full        25.242
_diffrn_reflns_theta_max         28.434
_diffrn_reflns_theta_min         3.020
_diffrn_standards_number         0
_exptl_absorpt_coefficient_mu    3.190
_exptl_absorpt_correction_T_max  0.736
_exptl_absorpt_correction_T_min  0.543
_exptl_absorpt_correction_type   multi-scan
_exptl_absorpt_process_details
;
(SMART; Bruker, 2001)
;
_exptl_crystal_colour            green
_exptl_crystal_density_diffrn    3.069
_exptl_crystal_description       prism
_exptl_crystal_F_000             136
_exptl_crystal_size_max          0.450
_exptl_crystal_size_mid          0.110
_exptl_crystal_size_min          0.110
_refine_diff_density_max         0.470
_refine_diff_density_min         -0.462
_refine_ls_extinction_method     none
_refine_ls_goodness_of_fit_ref   1.089
_refine_ls_hydrogen_treatment    undef
_refine_ls_matrix_type           full
_refine_ls_number_parameters     37
_refine_ls_number_reflns         422
_refine_ls_number_restraints     0
_refine_ls_restrained_S_all      1.089
_refine_ls_R_factor_all          0.0286
_refine_ls_R_factor_gt           0.0281
_refine_ls_shift/su_max          0.000
_refine_ls_shift/su_mean         0.000
_refine_ls_structure_factor_coef Fsqd
_refine_ls_weighting_details
;
w=1/[\s^2^(Fo^2^)+(0.0508P)^2^+0.0945P] where P=(Fo^2^+2Fc^2^)/3
;
_refine_ls_weighting_scheme      calc
_refine_ls_wR_factor_gt          0.0778
_refine_ls_wR_factor_ref         0.0782
_reflns_number_gt                410
_reflns_number_total             422
_reflns_threshold_expression     I>2\s(I)
_cod_data_source_file            yp3086sup1.cif
_cod_data_source_block           yzq495
_cod_original_cell_volume        155.7(4)
_cod_database_code               2019932
_shelx_space_group_comment
;
The symmetry employed for this shelxl refinement is uniquely defined
by the following loop, which should always be used as a source of
symmetry information in preference to the above space-group names.
They are only intended as comments.
;
_shelx_estimated_absorpt_t_min   0.328
_shelx_estimated_absorpt_t_max   0.720
_shelx_hkl_file
;
   1   0   0  149.09    3.81
   1   0   0  158.54    3.62
   2   0   0   82.88    2.33
   2   0   0   84.89    2.11
   3   0   0   49.86    1.38
   3   0   0   49.16    1.61
   4   0   0  744.93   18.69
   4   0   0  771.92   17.75
   5   0   0   23.58    1.13
   5   0   0   22.57    0.89
   6   0   0   18.58    1.06
   7   0   0   36.99    1.74
   8   0   0   69.51    2.76
   0  -1   0    0.49    0.13
   1  -1   0  504.96   12.31
   1  -1   0  483.73   11.78
  -1  -1   0  500.79   11.72
  -1   1   0  528.83   11.17
   2  -1   0  157.05    3.95
   2  -1   0  157.92    3.87
   2   1   0  157.76    4.17
   2   1   0  149.67    3.84
   3  -1   0   26.18    0.93
   3  -1   0   27.25    0.92
   3   1   0   25.34    0.82
   3   1   0   25.41    1.07
   4  -1   0    2.99    0.27
   4  -1   0    2.85    0.25
   4   1   0    2.94    0.21
   4   1   0    2.66    0.33
   5  -1   0  129.77    3.82
   5  -1   0  132.34    3.61
   5   1   0  137.15    4.10
   6  -1   0    1.21    0.21
   6   1   0    1.17    0.27
   7   1   0    3.94    0.47
   0  -2   0 1000.00   22.42
   0   2   0  923.60   21.32
  -1  -2   0   42.12    1.26
   1  -2   0   40.11    1.31
  -1   2   0   40.83    1.25
   2  -2   0   19.23    0.81
   2  -2   0   19.90    0.69
   2   2   0   19.84    0.85
  -2   2   0   19.83    0.75
   3  -2   0   22.81    0.92
   3   2   0   21.65    1.04
   3   2   0   20.97    0.87
   4  -2   0  337.24    8.48
   4   2   0  345.71    9.07
   5  -2   0    8.24    0.56
   5   2   0   10.47    0.77
   6  -2   0   10.38    0.66
   6   2   0    9.82    0.79
   7  -2   0   18.90    1.00
   0  -3   0    0.81    0.19
   1  -3   0   75.72    2.32
  -1  -3   0   76.89    2.24
   1   3   0   76.54    2.36
  -2  -3   0   17.67    0.77
   2  -3   0   17.42    0.87
   3  -3   0    9.85    0.64
   3   3   0    9.57    0.71
   4  -3   0    2.52    0.29
   4   3   0    2.32    0.29
   5  -3   0   41.98    1.71
   5   3   0   41.95    1.95
   6  -3   0    0.40    0.14
   0  -4   0  144.17    4.08
   1  -4   0    5.45    0.48
  -1  -4   0    6.03    0.47
   2  -4   0    1.08    0.21
   3  -4   0    4.30    0.41
   4   4   0   69.07    2.79
   7   0  -1   15.81    1.00
   6   0  -1   66.49    2.39
   6   0  -1   64.83    2.04
   5   0  -1    2.80    0.25
   5   0  -1    3.02    0.35
   4   0  -1  191.29    5.24
   4   0  -1  197.37    4.87
   3   0  -1   22.85    0.78
   3   0  -1   21.03    0.85
   2   0  -1  581.29   15.17
   1   0  -1  237.22    5.59
   0   0   1  155.38    3.52
   0   0   1  157.71    3.89
   0   0  -1  155.78    3.70
   1   0   1   88.49    2.09
   1   0   1   86.84    2.32
   2   0   1  131.45    3.19
   2   0   1  133.31    3.55
   3   0   1   60.07    1.59
   3   0   1   58.58    1.90
   4   0   1   66.82    2.23
   4   0   1   66.10    1.82
   5   0   1   31.77    1.43
   6   0   1   57.98    2.27
   7   0   1    0.64    0.21
   7  -1  -1  140.46    4.04
   7   1  -1  141.48    4.62
   6  -1  -1    6.26    0.46
   6   1  -1    6.03    0.58
   5  -1  -1    4.23    0.35
   5  -1  -1    3.50    0.33
   5   1  -1    4.12    0.44
   5   1  -1    3.68    0.28
   4  -1  -1   35.93    1.21
   4  -1  -1   32.29    1.20
   4   1  -1   35.88    1.43
   4   1  -1   36.18    1.14
   3  -1  -1  551.46   14.06
   3  -1  -1  593.65   13.73
   3   1  -1  598.37   13.70
   2  -1  -1    1.16    0.14
   2   1  -1    0.98    0.15
  -2   1   1    1.18    0.15
  -1  -1   1  182.95    4.44
   1  -1  -1  187.83    4.45
  -1   1   1  182.10    4.32
   0  -1   1  380.97    9.12
   0  -1   1  385.07    9.45
   0  -1  -1  385.51    9.04
   0   1   1  395.01    9.41
   0   1  -1  396.92    8.76
   0   1   1  381.85    8.75
  -1  -1  -1  181.82    4.25
   1  -1   1  181.52    4.57
   1  -1   1  179.03    4.40
   1   1   1  180.85    4.64
   2  -1   1  100.40    2.75
   2  -1   1   99.70    2.60
   2   1   1  100.41    2.87
   3  -1   1  129.07    3.29
   3  -1   1  129.31    3.51
   3   1   1  123.20    3.09
   3   1   1  125.97    3.66
   4  -1   1  150.41    3.84
   4  -1   1  133.79    4.09
   4   1   1  156.37    4.33
   5  -1   1   53.89    1.76
   5  -1   1   56.85    2.03
   5   1   1   56.71    2.16
   6  -1   1   47.23    1.91
   6   1   1   46.09    2.01
   7   1   1   70.51    2.83
   7  -2  -1    7.41    0.57
   7   2  -1    7.90    0.74
   6  -2  -1   34.14    1.43
   6   2  -1   34.06    1.69
   5  -2  -1    2.64    0.29
   5   2  -1    3.55    0.41
   4  -2  -1   76.18    2.31
   4   2  -1   72.21    2.23
   4   2  -1   76.30    2.62
   3  -2  -1   10.59    0.58
   3   2  -1   11.29    0.63
  -3   2   1   10.62    0.57
   2  -2  -1  230.15    5.76
   2   2  -1  230.19    5.93
  -2   2   1  231.40    5.53
   1  -2  -1   56.10    1.65
  -1  -2   1   54.98    1.63
  -1   2   1   56.27    1.69
   0  -2  -1   63.94    1.81
   0  -2   1   63.50    1.88
   0   2   1   66.15    1.93
   0   2   1   65.51    1.88
   0   2  -1   66.69    1.74
   1  -2   1   24.78    0.93
   1  -2   1   26.19    0.92
  -1  -2  -1   26.95    0.85
  -1   2  -1   25.42    0.79
   1   2   1   24.98    0.98
   2  -2   1   85.11    2.42
   2  -2   1   86.11    2.39
   2   2   1   81.38    2.31
   2   2   1   84.17    2.58
   3  -2   1   23.21    0.98
   3  -2   1   24.07    0.97
   3   2   1   24.43    1.13
   4  -2   1   24.00    1.03
   4   2   1   24.47    1.22
   5  -2   1   13.11    0.72
   5   2   1   11.98    0.86
   6  -2   1   28.41    1.24
   6   2   1   28.19    1.49
   6  -3  -1    4.07    0.41
   6   3  -1    3.73    0.45
   5  -3  -1    1.57    0.29
   5   3  -1    1.16    0.27
   4  -3  -1    8.91    0.63
   4   3  -1   10.32    0.79
   3  -3  -1  114.59    3.35
   3   3  -1  111.92    3.45
  -3   3   1  117.35    3.18
   2  -3  -1    0.24    0.09
  -2  -3   1    0.32    0.09
  -2   3   1    0.44    0.12
   1  -3  -1   25.42    1.04
  -1  -3   1   25.38    1.02
  -1   3   1   24.32    1.08
   0  -3  -1   43.96    1.48
   0  -3   1   43.61    1.54
   0   3   1   45.27    1.62
   1  -3   1   50.96    1.74
  -1  -3  -1   44.61    1.56
   1   3   1   54.67    1.82
   1   3   1   53.28    1.85
   2  -3   1   16.88    0.85
   2   3   1   16.75    0.91
   3  -3   1   43.42    1.63
   3   3   1   42.45    1.78
   4  -3   1   35.27    1.47
   4   3   1   34.41    1.63
   5  -3   1   13.34    0.81
   5   3   1   12.83    0.91
   4  -4  -1   11.54    0.80
   4   4  -1   11.54    0.87
   3  -4  -1    3.64    0.38
   3   4  -1    3.43    0.45
   2  -4  -1   27.02    1.25
   1  -4  -1    5.66    0.47
  -1  -4   1    5.89    0.48
   0  -4  -1   11.47    0.69
   0  -4   1   11.71    0.74
   1  -4   1    2.15    0.35
   1   4   1    2.83    0.33
   2  -4   1   17.09    0.96
   2   4   1   15.76    0.98
   3  -4   1    3.74    0.38
   7   0  -2   89.04    2.76
   7   0  -2   90.77    3.15
   6   0  -2   74.33    2.31
   6   0  -2   79.62    2.68
   5   0  -2    3.91    0.38
   4   0  -2  510.56   12.83
   4   0  -2  518.14   12.28
   3   0  -2  708.73   17.63
   2   0  -2  147.70    3.67
   1   0  -2   54.88    1.51
  -1   0   2   55.14    1.43
  -1   0   2   56.49    1.53
   0   0   2  856.51   19.66
   0   0  -2  836.64   20.12
   0   0   2  891.64   20.75
   1   0   2  362.41    8.39
   1   0   2  359.64    8.96
   2   0   2   70.63    1.77
   2   0   2   70.30    2.14
   3   0   2    5.83    0.27
   3   0   2    6.32    0.47
   4   0   2  350.33    9.16
   5   0   2   22.62    1.19
   6   0   2   12.13    0.86
   7   0   2    4.44    0.52
   8  -1  -2   20.77    1.10
   7  -1  -2    3.29    0.34
   7   1  -2    2.95    0.52
   6  -1  -2    3.87    0.37
   6   1  -2    4.24    0.35
   6   1  -2    4.30    0.47
   5  -1  -2   43.49    1.51
   5   1  -2   40.76    1.73
   4  -1  -2   82.50    2.32
   4   1  -2   83.22    2.34
   3  -1  -2    7.65    0.43
   3  -1  -2    6.88    0.32
  -3   1   2    7.03    0.44
   3   1  -2    7.25    0.44
   2  -1  -2    7.50    0.38
  -2   1   2    7.82    0.43
   2   1  -2    7.75    0.45
  -1  -1   2   30.27    1.04
   1  -1  -2   33.16    0.94
  -1   1   2   30.49    1.04
   0  -1   2    1.41    0.13
   0  -1   2    1.14    0.14
   0  -1  -2    0.98    0.08
   0   1   2    1.23    0.12
   1  -1   2   55.27    1.68
   1  -1   2   54.20    1.52
   1   1   2   54.98    1.67
   2  -1   2    6.71    0.44
   2  -1   2    6.19    0.34
   2   1   2    6.15    0.43
   3  -1   2  127.41    3.68
   3  -1   2  129.84    3.37
   3   1   2  132.90    3.79
   4  -1   2    1.74    0.17
   4  -1   2    2.20    0.35
   4   1   2    2.26    0.38
   5  -1   2   99.89    3.22
   5   1   2   98.86    3.35
   6  -1   2   12.31    0.85
   6   1   2   13.66    0.96
   7  -2  -2   51.17    1.97
   7   2  -2   51.49    2.33
   6  -2  -2   40.93    1.61
   6   2  -2   38.95    1.85
   5  -2  -2    2.17    0.35
   5   2  -2    2.34    0.25
   4  -2  -2  197.56    5.27
   4   2  -2  207.41    5.36
   3  -2  -2  268.29    6.74
  -3   2   2  273.39    6.55
   2  -2  -2   66.37    1.94
  -2   2   2   66.09    2.00
   2   2  -2   66.17    2.16
  -1  -2   2   10.50    0.54
   1  -2  -2   11.94    0.53
  -1   2   2   11.33    0.62
   0  -2  -2  372.92    8.70
   0  -2   2  364.21    9.18
   0  -2   2  351.50    8.81
   0   2   2  371.30    8.66
   0   2   2  367.16    9.03
   1  -2   2  126.16    3.49
  -1  -2  -2  125.00    3.13
   1   2   2  127.94    3.51
   2  -2   2   23.14    0.93
   2  -2   2   22.61    0.89
   2   2   2   17.92    0.93
   3  -2   2    3.67    0.35
   3  -2   2    3.09    0.28
   3   2   2    3.06    0.34
   4  -2   2  157.39    4.23
   4  -2   2  153.24    4.48
   4   2   2  155.94    4.64
   5  -2   2   11.55    0.67
   5   2   2   11.97    0.84
   6   2   2    4.84    0.50
   6  -3  -2    1.28    0.27
   6   3  -2    1.22    0.33
   5  -3  -2   13.93    0.85
   5   3  -2   11.59    0.94
   4  -3  -2   13.11    0.79
  -4   3   2   12.92    0.77
   4   3  -2   14.87    0.90
   3  -3  -2    1.29    0.26
  -3   3   2    1.00    0.20
   3   3  -2    1.64    0.32
   2  -3  -2    1.14    0.23
  -2   3   2    0.90    0.19
   1  -3  -2   20.03    0.88
  -1  -3   2   21.33    0.94
  -1   3   2   19.82    1.00
   0  -3  -2    0.65    0.14
   0  -3   2    0.54    0.16
   0   3   2    0.71    0.20
   1  -3   2   19.23    0.93
   1   3   2   20.03    1.05
   2  -3   2    3.06    0.31
   2   3   2    3.28    0.34
   3  -3   2   28.43    1.24
   3   3   2   29.50    1.40
   4  -3   2    0.43    0.11
   4   3   2    0.44    0.15
   5  -3   2   31.39    1.38
   5   3   2   29.73    1.54
   4  -4  -2   34.71    1.57
   3  -4  -2   34.42    1.50
   3   4  -2   33.74    1.67
   2  -4  -2   12.35    0.76
   1  -4  -2    0.57    0.14
  -1  -4   2    0.26    0.12
  -1   4   2    0.54    0.13
   0  -4   2   49.26    1.83
   0   4   2   47.67    1.94
   1  -4   2   17.87    0.98
   1   4   2   17.08    1.04
   2  -4   2    3.20    0.32
   2   4   2    3.09    0.46
   3   4   2    0.06    0.15
   8   0  -3   67.40    2.34
   7   0  -3   15.69    0.83
   6   0  -3   30.58    1.39
   6   0  -3   30.07    1.25
   5   0  -3   20.69    0.94
   5   0  -3   21.99    1.04
   4   0  -3  486.01   11.66
   3   0  -3   12.03    0.57
   2   0  -3  226.63    5.44
  -2   0   3  218.12    5.56
  -2   0   3  218.92    5.18
  -1   0   3   21.49    0.77
   1   0  -3   21.28    0.77
  -1   0   3   21.20    0.73
   0   0   3  794.65   18.87
   0   0   3  767.72   17.17
   0   0  -3  769.01   18.07
   1   0   3  100.01    2.85
   2   0   3  259.39    6.80
   3   0   3    2.51    0.31
   4   0   3   38.16    1.63
   5   0   3    0.17    0.12
   6   0   3   38.40    1.86
   8  -1  -3    0.26    0.11
   8   1  -3   -0.09    0.15
   7  -1  -3  118.76    3.59
   7   1  -3  118.41    3.49
   7   1  -3  116.27    3.97
   6  -1  -3   19.58    0.96
   6   1  -3   18.34    1.12
   6   1  -3   19.16    0.89
   5  -1  -3    6.92    0.49
   5   1  -3    6.70    0.46
   4   1  -3   35.23    1.28
   3  -1  -3  654.33   14.83
   3   1  -3  609.14   14.94
  -3   1   3  616.35   14.20
   2  -1  -3   48.79    1.41
  -2   1   3   48.44    1.29
   2   1  -3   45.35    1.56
  -2   1   3   48.72    1.51
   1  -1  -3   75.04    1.97
  -1  -1   3   76.91    2.22
   1   1  -3   76.46    2.21
  -1   1   3   73.99    2.03
  -1   1   3   73.14    2.10
   0  -1   3   31.37    1.16
   0  -1  -3   33.82    0.91
   0  -1   3   34.07    1.05
   0   1   3   34.00    1.12
   0   1   3   32.79    1.17
   1  -1   3  782.02   19.40
   1  -1   3  790.88   18.52
   1   1   3  807.27   19.37
   2  -1   3    4.66    0.29
   2  -1   3    3.11    0.34
   2   1   3    4.50    0.38
   3  -1   3  139.36    3.68
   3  -1   3  149.07    4.21
   3   1   3  141.18    4.17
   4  -1   3   47.34    1.86
   4   1   3   49.24    1.94
   5  -1   3   92.42    3.15
   5   1   3   94.94    3.27
   6  -1   3    2.35    0.39
   6   1   3    2.04    0.38
   7  -2  -3    8.97    0.68
   7   2  -3   10.04    0.86
   6  -2  -3   17.42    0.95
   6   2  -3   16.94    0.87
   5  -2  -3    8.60    0.61
   5   2  -3    9.43    0.62
   4  -2  -3  233.86    6.09
   4   2  -3  232.52    6.24
  -4   2   3  240.26    5.95
   3  -2  -3    6.74    0.45
   3   2  -3    6.96    0.55
  -3   2   3    6.69    0.50
   2  -2  -3   99.78    2.70
  -2   2   3   97.17    2.81
   2   2  -3   97.14    2.98
   1  -2  -3    2.49    0.21
  -1  -2   3    2.76    0.25
  -1   2   3    1.78    0.29
   0  -2   3  278.93    6.97
   0  -2  -3  295.12    6.78
   0  -2   3  272.23    7.32
   0   2   3  285.64    6.96
   0   2   3  282.52    7.12
   1  -2   3   27.70    1.03
   1  -2   3   26.10    1.11
   1   2   3   26.39    1.06
   2  -2   3  108.00    3.31
   2  -2   3  112.74    3.10
   2   2   3  113.41    3.34
   3  -2   3    1.26    0.20
   3  -2   3    0.97    0.21
   3   2   3    0.92    0.20
   4  -2   3   22.58    1.15
   4  -2   3   21.57    0.96
   4   2   3   21.59    1.18
   5   2   3    0.27    0.12
   6  -3  -3    4.31    0.42
   6   3  -3    4.07    0.65
   5  -3  -3    1.34    0.26
   5   3  -3    1.06    0.22
   4  -3  -3    5.85    0.49
  -4   3   3    6.17    0.51
   4   3  -3    5.75    0.55
   3  -3  -3  145.01    4.04
   3   3  -3  144.82    4.35
  -3   3   3  142.93    4.04
   2  -3  -3    4.64    0.38
  -2   3   3    4.97    0.45
   2   3  -3    4.05    0.46
   1  -3  -3   14.35    0.70
  -1  -3   3   14.42    0.76
  -1   3   3   13.36    0.84
   0  -3   3   10.25    0.62
   0   3   3   10.12    0.71
   1  -3   3  165.38    4.50
   1  -3   3  165.04    4.68
   1   3   3  163.23    4.64
   2  -3   3    2.70    0.30
   2   3   3    2.34    0.40
   3  -3   3   36.32    1.47
   3   3   3   35.64    1.59
   4  -3   3   18.03    0.94
   4   3   3   17.39    1.05
   4  -4  -3   37.20    1.65
   4   4  -3   38.23    1.86
   3  -4  -3    2.81    0.33
  -3   4   3    3.25    0.37
   3   4  -3    3.23    0.40
   2  -4  -3   14.13    0.81
   2   4  -3   13.22    0.99
  -2   4   3   13.73    0.88
  -1  -4   3    0.58    0.14
  -1   4   3    0.60    0.14
   0  -4   3   38.82    1.62
   0   4   3   39.54    1.77
   1  -4   3    3.48    0.36
   1   4   3    3.36    0.39
   2  -4   3   14.52    0.93
   2   4   3   13.93    0.99
   8   0  -4    0.38    0.13
   7   0  -4   80.30    2.63
   6   0  -4  354.76    8.86
   6   0  -4  344.40    9.27
   5   0  -4    2.34    0.27
   4   0  -4   50.19    1.65
   3   0  -4  132.40    3.53
   2   0  -4  445.86   10.77
  -2   0   4  446.43   10.23
  -2   0   4  457.98   11.12
  -1   0   4    0.14    0.06
  -1   0   4    0.12    0.06
   1   0  -4    0.07    0.06
   0   0   4   80.72    2.35
   0   0   4   77.06    2.09
   0   0  -4   76.98    2.13
   2   0   4   69.62    2.32
   3   0   4   40.44    1.67
   4   0   4   29.45    1.45
   5   0   4   13.53    0.94
   8  -1  -4    4.47    0.44
   8   1  -4    4.95    0.46
   8   1  -4    4.50    0.56
   7  -1  -4   82.97    2.79
   7   1  -4   86.90    2.74
   7   1  -4   85.85    3.18
   6  -1  -4    2.39    0.39
   6   1  -4    2.71    0.29
   5  -1  -4   68.38    2.23
   5   1  -4   71.55    2.23
   4  -1  -4    0.42    0.12
   4   1  -4    0.45    0.14
  -4   1   4    0.36    0.11
   3  -1  -4   59.71    1.84
  -3   1   4   56.74    1.83
   3   1  -4   59.65    1.93
  -2  -1   4   12.52    0.66
   2  -1  -4   12.93    0.60
  -2   1   4   12.89    0.67
   2   1  -4   12.93    0.70
  -2   1   4   12.60    0.51
  -1  -1   4  187.68    4.95
   1  -1  -4  177.42    4.54
  -1   1   4  189.56    4.65
  -1   1   4  186.87    4.76
   1   1  -4  182.60    4.80
   0  -1   4   32.59    1.27
   0  -1  -4   34.31    0.97
   0   1   4   36.16    1.29
   0   1   4   36.60    1.24
   1  -1   4   10.17    0.48
   1   1   4    9.39    0.58
   2  -1   4   98.62    2.63
   2  -1   4   95.46    3.04
   2   1   4   97.84    3.04
   3  -1   4  101.43    3.29
   3   1   4  101.16    3.27
   4  -1   4    5.00    0.50
   4   1   4    5.08    0.49
   5  -1   4    1.27    0.27
   5   1   4    0.87    0.22
   7  -2  -4   45.40    1.90
   7   2  -4   46.58    2.26
   7   2  -4   46.61    1.77
   6  -2  -4  178.32    5.07
   6   2  -4  178.58    4.94
   5  -2  -4    0.19    0.11
   5   2  -4    0.39    0.14
   4  -2  -4   19.97    0.96
  -4   2   4   18.56    0.97
   4   2  -4   18.76    1.03
   3  -2  -4   61.03    1.92
  -3   2   4   57.16    1.99
   3   2  -4   58.37    2.12
   2  -2  -4  216.31    5.35
  -2   2   4  208.44    5.43
   2   2  -4  208.61    5.70
  -1  -2   4    0.10    0.09
   1  -2  -4    0.19    0.05
  -1   2   4    0.09    0.10
   0  -2   4   37.23    1.48
   0  -2   4   37.19    1.32
   0   2   4   40.09    1.34
   0   2   4   36.23    1.49
   1  -2   4   59.60    2.07
   1  -2   4   58.87    1.84
   1   2   4   57.13    2.04
   1   2   4   58.93    1.97
   2  -2   4   38.56    1.37
   2  -2   4   37.20    1.55
   2   2   4   37.45    1.51
   3  -2   4   18.62    1.05
   3  -2   4   19.25    0.88
   3   2   4   18.26    1.02
   4  -2   4   16.43    0.99
   4   2   4   16.24    0.99
   6  -3  -4    0.90    0.20
   6   3  -4    1.26    0.26
   5  -3  -4   17.41    1.01
  -5   3   4   18.07    1.03
   5   3  -4   17.90    1.09
   4  -3  -4    0.40    0.14
   4   3  -4    0.22    0.12
  -4   3   4    0.03    0.09
   3  -3  -4   14.93    0.81
   3   3  -4   13.66    0.93
  -3   3   4   15.35    0.92
   2  -3  -4    6.03    0.44
   2   3  -4    6.28    0.60
  -2   3   4    6.39    0.56
  -1  -3   4   49.55    1.77
  -1   3   4   51.38    1.99
   0  -3   4    5.62    0.49
   0  -3   4    5.15    0.43
   0   3   4    5.35    0.53
   1  -3   4    2.97    0.30
   1  -3   4    2.00    0.35
   1   3   4    2.64    0.45
   2  -3   4   26.30    1.29
   2  -3   4   25.27    1.16
   2   3   4   26.51    1.37
   3  -3   4   34.11    1.41
   4   3   4    2.41    0.30
   4  -4  -4    1.94    0.33
  -4   4   4    2.11    0.34
   4   4  -4    2.83    0.60
   3  -4  -4   11.44    0.81
  -3   4   4   12.50    0.85
   3   4  -4   10.96    0.88
   2   4  -4   36.70    1.89
  -2   4   4   36.78    1.70
  -1   4   4    0.05    0.13
   0  -4   4    4.35    0.41
   0   4   4    4.39    0.47
   8   0  -5   63.84    2.30
   7   0  -5   80.51    2.77
   6   0  -5    2.99    0.34
   5   0  -5    8.82    0.60
   4   0  -5  136.79    3.77
   3   0  -5  182.95    4.84
  -3   0   5  188.12    4.65
  -2   0   5    3.60    0.30
   2   0  -5    3.94    0.32
  -2   0   5    3.56    0.28
  -1   0   5   34.19    1.16
   1   0  -5   34.98    1.18
  -1   0   5   34.85    1.27
   0   0   5  156.92    3.90
   0   0   5  156.29    4.37
   1   0   5   14.50    0.69
   1   0   5   15.50    0.86
   2   0   5   22.31    1.17
   3   0   5    3.87    0.41
   4   0   5   32.41    1.58
   8   1  -5    0.09    0.15
   8   1  -5    0.04    0.11
   7  -1  -5   59.37    2.21
   7   1  -5   58.51    2.12
   6  -1  -5   44.24    1.72
   6   1  -5   43.15    1.65
   5  -1  -5    0.98    0.23
   5   1  -5    0.84    0.21
   4  -1  -5   17.23    0.89
  -4   1   5   18.03    0.91
   4   1  -5   17.42    0.91
   3  -1  -5  184.80    4.87
   3   1  -5  182.22    4.89
  -3   1   5  179.97    4.69
   2  -1  -5   83.10    2.56
  -2  -1   5   91.60    2.75
  -2   1   5   90.94    2.61
   2   1  -5   90.44    2.71
  -2   1   5   88.93    2.50
  -1  -1   5    0.14    0.10
   1  -1  -5    0.44    0.09
   1   1  -5    0.13    0.07
  -1   1   5    0.20    0.09
  -1   1   5    0.43    0.10
   0  -1   5   84.53    2.62
   0   1   5   86.99    2.49
   0   1  -5   86.88    2.50
   0   1   5   73.45    2.53
   1  -1   5  224.81    6.22
   1   1   5  229.48    6.14
   1   1   5  227.53    5.74
   2  -1   5   12.48    0.80
   2   1   5   12.50    0.78
   3  -1   5    3.19    0.37
   3   1   5    2.43    0.30
   4  -1   5   11.42    0.83
   4   1   5   11.49    0.83
   7  -2  -5   42.90    1.92
   7   2  -5   45.30    1.79
   6  -2  -5    1.88    0.36
   6   2  -5    2.07    0.36
   5  -2  -5    5.46    0.51
  -5   2   5    5.25    0.48
   5   2  -5    5.56    0.51
   4  -2  -5   76.56    2.52
   4   2  -5   78.49    2.68
  -4   2   5   75.35    2.53
   3  -2  -5   81.81    2.48
   3   2  -5   81.94    2.74
  -3   2   5   75.25    2.54
   2  -2  -5    0.92    0.18
   2   2  -5    1.14    0.28
  -2   2   5    1.55    0.30
  -1  -2   5   13.74    0.84
   1   2  -5   14.37    0.88
  -1   2   5   15.34    0.89
   0  -2   5   76.43    2.59
   0   2   5   76.71    2.51
   1  -2   5    8.33    0.63
   1  -2   5    8.50    0.51
   1   2   5    8.56    0.58
   1   2   5    8.36    0.67
   2  -2   5   11.43    0.64
   2  -2   5   13.94    0.84
   2   2   5   11.76    0.76
   2   2   5   11.46    0.79
   3  -2   5    2.74    0.34
   3   2   5    2.59    0.31
   4  -2   5   17.00    1.08
   4   2   5   17.52    1.08
   6   3  -5   14.00    0.94
   5  -3  -5    0.51    0.13
   5   3  -5    0.72    0.23
  -5   3   5    0.65    0.18
   4  -3  -5    7.30    0.57
   4   3  -5    7.24    0.68
  -4   3   5    7.24    0.61
   3  -3  -5   56.61    1.98
   3   3  -5   55.98    2.29
  -3   3   5   56.44    2.18
   2   3  -5   19.95    1.19
  -2   3   5   19.93    1.13
   1   3  -5    0.00    0.12
  -1   3   5    0.22    0.11
   0  -3   5   22.18    1.04
   0  -3   5   21.83    1.18
   0   3   5   22.01    1.22
   1  -3   5   70.13    2.33
   1  -3   5   71.11    2.60
   1   3   5   68.92    2.60
   2  -3   5    5.35    0.41
   2  -3   5    5.76    0.52
   2   3   5    5.99    0.58
   7   0  -6    7.33    0.62
   6   0  -6  168.86    4.82
   5   0  -6    9.28    0.64
   4   0  -6    4.02    0.38
   3   0  -6    7.64    0.52
  -3   0   6    8.01    0.51
  -3   0   6    7.59    0.51
  -2   0   6  299.62    7.29
  -2   0   6  309.62    7.99
   2   0  -6  315.49    7.65
   1   0  -6    7.21    0.43
  -1   0   6    6.61    0.43
  -1   0   6    6.91    0.50
   0   0   6   25.82    1.17
   1   0   6    0.42    0.12
   2   0   6   81.56    2.88
   3   0   6    1.69    0.31
   7  -1  -6   56.12    2.20
   7   1  -6   57.37    2.12
   6  -1  -6    2.43    0.42
   6   1  -6    2.42    0.30
   5  -1  -6   47.19    1.80
   5   1  -6   41.89    1.68
   4  -1  -6   11.58    0.74
  -4   1   6   11.29    0.71
   4   1  -6   11.26    0.72
  -3  -1   6  178.82    4.94
   3  -1  -6  163.15    4.78
   3   1  -6  180.13    4.80
  -3   1   6  177.85    4.63
  -2  -1   6    1.67    0.29
  -2   1   6    1.96    0.32
   2   1  -6    2.08    0.37
  -1  -1   6  212.16    5.85
  -1   1   6  211.99    5.66
   1   1  -6  206.41    5.56
  -1   1   6  215.24    5.42
   0  -1   6    8.59    0.62
   0   1   6    7.63    0.54
   0   1  -6    6.92    0.48
   0   1   6    7.31    0.55
   1  -1   6   59.20    2.28
   1   1   6   59.79    2.07
   1   1   6   65.18    2.28
   2  -1   6    0.57    0.18
   2   1   6    0.02    0.11
   2   1   6    0.06    0.11
   3  -1   6   89.69    3.20
   3   1   6   92.53    3.19
   6  -2  -6   91.42    3.20
   6   2  -6   93.41    3.08
   5  -2  -6    5.41    0.51
  -5   2   6    4.48    0.44
   5   2  -6    5.88    0.53
   4  -2  -6    1.76    0.33
  -4   2   6    1.81    0.35
   4   2  -6    2.26    0.43
   3  -2  -6    3.92    0.37
  -3   2   6    3.01    0.36
   3   2  -6    4.56    0.48
  -2  -2   6  151.69    4.50
  -2   2   6  152.60    4.29
   2   2  -6  146.61    4.41
  -1  -2   6    3.10    0.36
  -1   2   6    2.80    0.33
   1   2  -6    3.53    0.39
   0  -2   6   12.75    0.84
   0   2   6   13.09    0.85
   1  -2   6    0.32    0.12
   1   2   6    0.88    0.24
   2  -2   6   39.52    1.79
   2   2   6   44.50    1.85
   2   2   6   40.90    1.74
   3  -2   6    1.74    0.32
   3   2   6    1.96    0.33
   3   2   6    1.98    0.37
   5  -3  -6   16.21    1.01
   5   3  -6   15.43    1.16
   4   3  -6    3.76    0.62
  -4   3   6    4.07    0.42
   3   3  -6   48.75    2.12
  -3   3   6   44.71    1.95
   2   3  -6    0.96    0.23
  -2   3   6    0.52    0.15
  -1  -3   6   65.37    2.52
  -1   3   6   67.44    2.55
   1   3  -6   67.60    2.64
   0  -3   6    3.98    0.44
   0   3   6    4.21    0.59
   1  -3   6   20.96    1.22
   1   3   6   20.58    1.21
   7   0  -7   22.91    1.25
   6   0  -7  118.77    3.69
   5   0  -7    1.25    0.27
   4   0  -7  106.13    3.16
  -3   0   7   19.52    0.96
   3   0  -7   18.89    0.90
  -3   0   7   19.79    0.91
   2   0  -7   22.66    0.96
  -2   0   7   22.77    1.07
  -1   0   7    9.52    0.63
   0   0   7   55.62    2.13
   1   0   7    6.91    0.57
   2   0   7    0.89    0.21
   6  -1  -7   25.60    1.29
   6   1  -7   24.70    1.22
   5  -1  -7   92.94    3.11
   5   1  -7   96.65    3.03
   4  -1  -7   14.89    0.89
   4   1  -7   14.78    0.85
  -4   1   7   14.71    0.85
   3  -1  -7   59.85    2.12
  -3  -1   7   61.57    2.20
  -3   1   7   59.98    2.08
   3   1  -7   58.10    2.07
  -2  -1   7   42.98    1.74
  -2   1   7   42.20    1.64
   2   1  -7   42.14    1.61
  -1  -1   7   41.91    1.76
  -1   1   7   43.55    1.67
   1   1  -7   43.55    1.64
  -1   1   7   43.10    1.65
   0  -1   7    9.37    0.67
   0   1   7    8.91    0.61
   0   1   7    9.29    0.63
   1  -1   7   28.42    1.41
   1   1   7   26.94    1.33
   2  -1   7   34.75    1.69
   6  -2  -7   54.22    2.28
   5  -2  -7    0.11    0.14
   5   2  -7    0.67    0.19
  -5   2   7    1.07    0.24
   4  -2  -7   40.39    1.84
   4   2  -7   52.31    2.03
  -4   2   7   53.61    2.00
  -3   2   7    9.54    0.71
   3   2  -7    9.72    0.76
  -2  -2   7   13.94    0.91
   2   2  -7   14.49    0.94
  -2   2   7   14.60    0.91
  -1  -2   7    6.29    0.56
  -1   2   7    7.07    0.60
   1   2  -7    6.27    0.56
   0  -2   7   29.98    1.50
   0   2   7   32.29    1.47
   0   2  -7   29.65    1.40
   1  -2   7    3.72    0.40
   1   2   7    2.56    0.41
   2   2   7    0.23    0.17
  -2   3   7   16.99    1.16
   2   3  -7   16.90    1.11
  -1  -3   7   15.69    1.14
   1   3  -7   17.40    1.11
   0   3  -7    5.76    0.62
   6   0  -8   29.92    1.44
   5   0  -8   29.79    1.36
   4   0  -8    1.23    0.25
  -3   0   8    4.96    0.45
   3   0  -8    5.37    0.41
  -2   0   8   24.48    1.19
  -1   0   8    6.22    0.51
   0   0   8    0.09    0.11
   1   0   8   12.96    0.88
   6  -1  -8   26.93    1.36
   5  -1  -8    7.00    0.59
   5   1  -8    7.50    0.59
  -4   1   8   46.98    1.81
   4   1  -8   44.99    1.75
  -3  -1   8   63.89    2.31
  -3   1   8   62.67    2.17
   3   1  -8   54.31    2.08
  -2  -1   8   11.61    0.78
  -2   1   8   12.40    0.76
   2   1  -8   11.76    0.70
  -1  -1   8    8.70    0.66
   0  -1   8   36.66    1.70
   0   1   8   38.29    1.64
   1  -1   8   49.68    2.29
   1   1   8   51.21    2.07
  -4   2   8    0.50    0.17
   4   2  -8    0.85    0.21
  -3   2   8    2.81    0.32
   3   2  -8    2.02    0.39
  -2  -2   8   15.47    1.00
   2   2  -8   14.92    0.98
  -2   2   8   15.84    0.98
  -1  -2   8    3.53    0.41
  -1   2   8    3.14    0.44
   0   2   8    0.04    0.15
   5   0  -9    0.33    0.10
  -2   0   9   34.29    1.56
  -1   0   9    2.09    0.27
  -4   1   9    0.17    0.13
   4   1  -9    0.25    0.10
  -3  -1   9    1.22    0.21
  -2  -1   9    5.42    0.49
   0   0   0    0.00    0.00
;
_shelx_hkl_checksum              61545
_shelx_res_file
;
TITL mi in P2(1)                 New: P21/m
CELL  0.71073    6.369    3.625    7.196    90.000   110.37    90.000
ZERR        2    0.005    0.002    0.006     0.000     0.04     0.000
LATT   1
SYMM             - X ,    0.50000 + Y ,            - Z
SFAC     F    Na  O   V
UNIT     4    2   4   2
L.S. 5
FMAP 2
PLAN 20
ACTA
BOND $H
TEMP 22
SIZE 0.45 0.11 0.11
WGHT    0.050800    0.094500
FVAR       0.53272
V1    4    0.361247    0.250000    0.283869    10.50000    0.00931    0.03281 =
         0.01500    0.00000    0.00639    0.00000
NA1   2    0.135001    0.250000    0.708391    10.50000    0.01817    0.02220 =
         0.01984    0.00000    0.00840    0.00000
F1    1    0.121316    0.250000    0.381509    10.50000    0.01131    0.02443 =
         0.02033    0.00000    0.00879    0.00000
F2    1    0.639772    0.250000    0.258899    10.50000    0.01364    0.02532 =
         0.03056    0.00000    0.01417    0.00000
O1    3    0.593806    0.250000    0.642982    10.50000    0.01561    0.01330 =
         0.02152    0.00000    0.00981    0.00000
O2    3    0.214151    0.250000    0.056503    10.50000    0.02130    0.06327 =
         0.01858    0.00000    0.00567    0.00000
HKLF 4
REM  mi in P2(1)                 New: P21/m
REM R1 =  0.0281 for     410 Fo > 4sig(Fo)  and  0.0286 for all     422 data
REM     37 parameters refined using      0 restraints
END
WGHT      0.0467      0.0871
REM Highest difference peak  0.470,  deepest hole -0.462,  1-sigma level  0.154
Q1    1   0.6392  0.1012  0.7173  11.00000  0.05    0.47
Q2    1   0.0548 -0.0168  0.0684  11.00000  0.05    0.39
Q3    1   0.1858  0.0212  0.2930  11.00000  0.05    0.34
Q4    1   0.6258  0.0037  0.2334  11.00000  0.05    0.34
Q5    1   0.7263  0.0151  0.6151  11.00000  0.05    0.31
Q6    1   0.1326  0.0098  0.5630  11.00000  0.05    0.31
Q7    1   0.3633  0.0197  0.1554  11.00000  0.05    0.31
Q8    1   0.2902  0.0083 -0.0135  11.00000  0.05    0.30
Q9    1   0.1215  0.0053  0.3981  11.00000  0.05    0.29
Q10   1   0.1830  0.0272  0.1619  11.00000  0.05    0.28
Q11   1   0.5975 -0.0014  0.3829  11.00000  0.05    0.28
Q12   1   0.1573 -0.0510  0.6989  11.00000  0.05    0.27
Q13   1   0.2842  0.0187  0.5013  11.00000  0.05    0.27
Q14   1   0.4847 -0.0477  0.0983  11.00000  0.05    0.23
Q15   1   0.5864  0.2500  0.3185  10.50000  0.05    0.23
Q16   1   0.5800  0.0005  0.0727  11.00000  0.05    0.23
Q17   1   0.7224  0.0375  0.1797  11.00000  0.05    0.18
Q18   1   0.1435 -0.0308  0.8212  11.00000  0.05    0.18
Q19   1   0.1231  0.2500  0.1709  10.50000  0.05    0.17
Q20   1  -0.0057  0.0365  0.5807  11.00000  0.05    0.15
;
_shelx_res_checksum              80177
_shelxl_version_number           20.13
loop_
_space_group_symop_operation_xyz
'x, y, z'
'-x, y+1/2, -z'
'-x, -y, -z'
'x, -y-1/2, z'
loop_
_atom_site_type_symbol
_atom_site_label
_atom_site_fract_x
_atom_site_fract_y
_atom_site_fract_z
_atom_site_U_iso_or_equiv
_atom_site_adp_type
_atom_site_calc_flag
_atom_site_occupancy
V V1 0.36125(7) 0.2500 0.28387(7) 0.0185(2) Uani d 1
Na Na1 0.13500(18) 0.2500 0.70839(17) 0.0196(3) Uani d 1
F F1 0.1213(3) 0.2500 0.3815(3) 0.0178(4) Uani d 1
F F2 0.6398(3) 0.2500 0.2589(3) 0.0215(4) Uani d 1
O O1 0.5938(3) 0.2500 0.6430(3) 0.0159(4) Uani d 1
O O2 0.2142(4) 0.2500 0.0565(3) 0.0347(6) Uani d 1
loop_
_atom_site_aniso_label
_atom_site_aniso_U_11
_atom_site_aniso_U_22
_atom_site_aniso_U_33
_atom_site_aniso_U_12
_atom_site_aniso_U_13
_atom_site_aniso_U_23
V1 0.0093(3) 0.0328(4) 0.0150(3) 0.000 0.0064(2) 0.000
Na1 0.0182(7) 0.0222(7) 0.0198(7) 0.000 0.0084(5) 0.000
F1 0.0113(8) 0.0244(9) 0.0203(8) 0.000 0.0088(7) 0.000
F2 0.0136(8) 0.0253(9) 0.0306(9) 0.000 0.0142(7) 0.000
O1 0.0156(9) 0.0133(9) 0.0215(10) 0.000 0.0098(8) 0.000
O2 0.0213(11) 0.0633(18) 0.0186(12) 0.000 0.0057(10) 0.000
loop_
_atom_type_symbol
_atom_type_description
_atom_type_scat_dispersion_real
_atom_type_scat_dispersion_imag
_atom_type_scat_source
F F 0.0171 0.0103 'International Tables Vol C Tables 4.2.6.8 and 6.1.1.4'
Na Na 0.0362 0.0249 'International Tables Vol C Tables 4.2.6.8 and 6.1.1.4'
O O 0.0106 0.0060 'International Tables Vol C Tables 4.2.6.8 and 6.1.1.4'
V V 0.3005 0.5294 'International Tables Vol C Tables 4.2.6.8 and 6.1.1.4'
loop_
_geom_angle_atom_site_label_1
_geom_angle_atom_site_label_2
_geom_angle_atom_site_label_3
_geom_angle_site_symmetry_1
_geom_angle_site_symmetry_3
_geom_angle
O2 V1 F2 . . 98.23(13)
O2 V1 O1 . 3_666 105.54(7)
F2 V1 O1 . 3_666 88.25(6)
O2 V1 O1 . 3_656 105.54(7)
F2 V1 O1 . 3_656 88.25(6)
O1 V1 O1 3_666 3_656 148.91(13)
O2 V1 F1 . . 96.91(14)
F2 V1 F1 . . 164.86(9)
O1 V1 F1 3_666 . 87.71(6)
O1 V1 F1 3_656 . 87.71(6)
O2 V1 Na1 . 3_556 79.14(10)
F2 V1 Na1 . 3_556 150.04(5)
O1 V1 Na1 3_666 3_556 121.39(7)
O1 V1 Na1 3_656 3_556 64.33(8)
F1 V1 Na1 . 3_556 34.99(5)
O2 V1 Na1 . 3_566 79.14(10)
F2 V1 Na1 . 3_566 150.04(5)
O1 V1 Na1 3_666 3_566 64.33(8)
O1 V1 Na1 3_656 3_566 121.39(7)
F1 V1 Na1 . 3_566 34.99(5)
Na1 V1 Na1 3_556 3_566 59.36(9)
O2 V1 Na1 . 3_666 102.49(10)
F2 V1 Na1 . 3_666 30.19(5)
O1 V1 Na1 3_666 3_666 58.17(7)
O1 V1 Na1 3_656 3_666 115.13(8)
F1 V1 Na1 . 3_666 144.09(6)
Na1 V1 Na1 3_556 3_666 178.37(4)
Na1 V1 Na1 3_566 3_666 120.69(9)
O2 V1 Na1 . 3_656 102.49(10)
F2 V1 Na1 . 3_656 30.19(5)
O1 V1 Na1 3_666 3_656 115.13(8)
O1 V1 Na1 3_656 3_656 58.17(7)
F1 V1 Na1 . 3_656 144.09(6)
Na1 V1 Na1 3_556 3_656 120.69(9)
Na1 V1 Na1 3_566 3_656 178.37(4)
Na1 V1 Na1 3_666 3_656 59.22(9)
F2 Na1 F2 3_666 3_656 105.81(13)
F2 Na1 F1 3_666 . 84.53(7)
F2 Na1 F1 3_656 . 84.53(7)
F2 Na1 F1 3_666 3_556 170.71(9)
F2 Na1 F1 3_656 3_556 76.62(11)
F1 Na1 F1 . 3_556 86.80(7)
F2 Na1 F1 3_666 3_566 76.62(11)
F2 Na1 F1 3_656 3_566 170.71(9)
F1 Na1 F1 . 3_566 86.80(7)
F1 Na1 F1 3_556 3_566 99.57(13)
F2 Na1 O2 3_666 1_556 89.78(7)
F2 Na1 O2 3_656 1_556 89.78(7)
F1 Na1 O2 . 1_556 170.55(9)
F1 Na1 O2 3_556 1_556 99.25(7)
F1 Na1 O2 3_566 1_556 99.25(7)
F2 Na1 Na1 3_666 3_556 128.43(9)
F2 Na1 Na1 3_656 3_556 76.95(9)
F1 Na1 Na1 . 3_556 43.98(7)
F1 Na1 Na1 3_556 3_556 42.82(6)
F1 Na1 Na1 3_566 3_556 94.45(10)
O2 Na1 Na1 1_556 3_556 141.56(7)
F2 Na1 Na1 3_666 3_566 76.95(9)
F2 Na1 Na1 3_656 3_566 128.43(9)
F1 Na1 Na1 . 3_566 43.98(7)
F1 Na1 Na1 3_556 3_566 94.45(10)
F1 Na1 Na1 3_566 3_566 42.82(6)
O2 Na1 Na1 1_556 3_566 141.56(7)
Na1 Na1 Na1 3_556 3_566 64.16(10)
F2 Na1 Na1 3_666 1_545 142.91(6)
F2 Na1 Na1 3_656 1_545 37.09(6)
F1 Na1 Na1 . 1_545 90.0
F1 Na1 Na1 3_556 1_545 40.21(6)
F1 Na1 Na1 3_566 1_545 139.79(6)
O2 Na1 Na1 1_556 1_545 90.0
Na1 Na1 Na1 3_556 1_545 57.92(5)
Na1 Na1 Na1 3_566 1_545 122.08(5)
F2 Na1 Na1 3_666 1_565 37.09(6)
F2 Na1 Na1 3_656 1_565 142.91(6)
F1 Na1 Na1 . 1_565 90.0
F1 Na1 Na1 3_556 1_565 139.79(6)
F1 Na1 Na1 3_566 1_565 40.21(6)
O2 Na1 Na1 1_556 1_565 90.0
Na1 Na1 Na1 3_556 1_565 122.08(5)
Na1 Na1 Na1 3_566 1_565 57.92(5)
Na1 Na1 Na1 1_545 1_565 180.0
F2 Na1 V1 3_666 3_556 155.59(5)
F2 Na1 V1 3_656 3_556 96.94(10)
F1 Na1 V1 . 3_556 106.68(6)
F1 Na1 V1 3_556 3_556 27.19(4)
F1 Na1 V1 3_566 3_556 82.34(11)
O2 Na1 V1 1_556 3_556 81.46(7)
Na1 Na1 V1 3_556 3_556 64.96(7)
Na1 Na1 V1 3_566 3_556 95.90(8)
Na1 Na1 V1 1_545 3_556 60.32(5)
Na1 Na1 V1 1_565 3_556 119.68(5)
F2 Na1 V1 3_666 3_566 96.94(10)
F2 Na1 V1 3_656 3_566 155.59(5)
F1 Na1 V1 . 3_566 106.68(6)
F1 Na1 V1 3_556 3_566 82.34(11)
F1 Na1 V1 3_566 3_566 27.19(4)
O2 Na1 V1 1_556 3_566 81.46(7)
Na1 Na1 V1 3_556 3_566 95.90(8)
Na1 Na1 V1 3_566 3_566 64.96(7)
Na1 Na1 V1 1_545 3_566 119.68(5)
Na1 Na1 V1 1_565 3_566 60.32(5)
V1 Na1 V1 3_556 3_566 59.36(9)
V1 F1 Na1 . . 128.74(10)
V1 F1 Na1 . 3_556 117.83(8)
Na1 F1 Na1 . 3_556 93.20(7)
V1 F1 Na1 . 3_566 117.83(8)
Na1 F1 Na1 . 3_566 93.20(7)
Na1 F1 Na1 3_556 3_566 99.57(13)
V1 F2 Na1 . 3_666 125.72(7)
V1 F2 Na1 . 3_656 125.72(7)
Na1 F2 Na1 3_666 3_656 105.82(13)
V1 O1 V1 3_666 3_656 148.91(13)
V1 O2 Na1 . 1_554 157.63(15)
loop_
_geom_bond_atom_site_label_1
_geom_bond_atom_site_label_2
_geom_bond_site_symmetry_2
_geom_bond_distance
V1 O2 . 1.577(3)
V1 F2 . 1.844(3)
V1 O1 3_666 1.881(2)
V1 O1 3_656 1.881(2)
V1 F1 . 1.891(3)
V1 Na1 3_556 3.661(4)
V1 Na1 3_566 3.661(4)
V1 Na1 3_666 3.668(4)
V1 Na1 3_656 3.668(4)
Na1 F2 3_666 2.272(3)
Na1 F2 3_656 2.272(3)
Na1 F1 . 2.323(4)
Na1 F1 3_556 2.373(3)
Na1 F1 3_566 2.373(3)
Na1 O2 1_556 2.377(4)
Na1 Na1 3_556 3.413(4)
Na1 Na1 3_566 3.413(4)
Na1 Na1 1_545 3.625(5)
Na1 Na1 1_565 3.625(5)
Na1 V1 3_556 3.661(4)
Na1 V1 3_566 3.661(4)
F1 Na1 3_556 2.373(3)
F1 Na1 3_566 2.373(3)
F2 Na1 3_666 2.272(3)
F2 Na1 3_656 2.272(3)
O1 V1 3_666 1.881(2)
O1 V1 3_656 1.881(2)
O2 Na1 1_554 2.377(4)

_cod_database_fobs_code 2019932
