#------------------------------------------------------------------------------
#$Date: 2016-02-20 00:18:51 +0200 (Sat, 20 Feb 2016) $
#$Revision: 176760 $
#$URL: svn://www.crystallography.net/cod/cif/2/01/92/2019270.cif $
#------------------------------------------------------------------------------
#
# This file is available in the Crystallography Open Database (COD),
# http://www.crystallography.net/. The original data for this entry
# were provided by IUCr Journals, http://journals.iucr.org/.
#
# The file may be used within the scientific community so long as
# proper attribution is given to the journal article from which the
# data were obtained.
#
data_2019270
loop_
_publ_author_name
'Hennings, Erik'
'Schmidt, Horst'
'Voigt, Wolfgang'
_publ_section_title
;
 Crystal structures of hydrates of simple inorganic salts. I. Water-rich
 magnesium halide hydrates MgCl~2~&#x00B7;8H~2~O, MgCl~2~&#x00B7;12H~2~O,
 MgBr~2~&#x00B7;6H~2~O, MgBr~2~&#x00B7;9H~2~O, MgI~2~&#x00B7;8H~2~O and
 MgI~2~&#x00B7;9H~2~O
;
_journal_coeditor_code           QS3030
_journal_issue                   11
_journal_name_full               'Acta Crystallographica Section C'
_journal_page_first              1292
_journal_page_last               1300
_journal_paper_doi               10.1107/S0108270113028138
_journal_volume                  69
_journal_year                    2013
_chemical_formula_iupac          'Mg Cl2 , 12H2 O'
_chemical_formula_moiety         'H12 Mg O6, 2(Cl), 6(H2 O)'
_chemical_formula_sum            'Cl2 H24 Mg O12'
_chemical_formula_weight         311.40
_chemical_name_common            'magnesium chloride dodecahydrate'
_chemical_name_systematic
;
Magnesium chloride dodecahydrate
;
_space_group_crystal_system      monoclinic
_space_group_IT_number           14
_space_group_name_Hall           '-P 2yn'
_space_group_name_H-M_alt        'P 1 21/n 1'
_symmetry_space_group_name_Hall  '-P 2yn'
_symmetry_space_group_name_H-M   'P 1 21/n 1'
_atom_sites_solution_hydrogens   difmap
_audit_creation_method           SHELXL-2012
_cell_angle_alpha                90
_cell_angle_beta                 113.44(2)
_cell_angle_gamma                90
_cell_formula_units_Z            2
_cell_length_a                   7.3496(16)
_cell_length_b                   14.419(3)
_cell_length_c                   8.570(3)
_cell_measurement_reflns_used    1803
_cell_measurement_temperature    150
_cell_measurement_theta_max      29.54
_cell_measurement_theta_min      2.94
_cell_volume                     833.2(4)
_computing_cell_refinement       'X-AREA (Stoe & Cie, 2009)'
_computing_data_collection       'X-AREA (Stoe & Cie, 2009)'
_computing_data_reduction        'X-RED (Stoe & Cie, 2009)'
_computing_molecular_graphics    'DIAMOND (Brandenburg, 2006)'
_computing_publication_material  'publCIF (Westrip, 2010)'
_computing_structure_refinement  'SHELXL2012 (Sheldrick, 2008)'
_computing_structure_solution    'SHELXS97 (Sheldrick, 2008)'
_diffrn_ambient_temperature      150
_diffrn_measured_fraction_theta_full 0.998
_diffrn_measured_fraction_theta_max 0.998
_diffrn_measurement_device_type  'Stoe IPDS 2T'
_diffrn_radiation_type           MoK\a
_diffrn_radiation_wavelength     0.71073
_diffrn_reflns_av_R_equivalents  0.1284
_diffrn_reflns_limit_h_max       10
_diffrn_reflns_limit_h_min       -9
_diffrn_reflns_limit_k_max       16
_diffrn_reflns_limit_k_min       -19
_diffrn_reflns_limit_l_max       1
_diffrn_reflns_limit_l_min       -11
_diffrn_reflns_number            1918
_diffrn_reflns_theta_full        25.242
_diffrn_reflns_theta_max         27.498
_diffrn_reflns_theta_min         2.825
_exptl_absorpt_coefficient_mu    0.462
_exptl_absorpt_correction_T_max  0.7818
_exptl_absorpt_correction_T_min  0.6639
_exptl_absorpt_correction_type   integration
_exptl_absorpt_process_details   '(Coppens, 1970)'
_exptl_crystal_density_diffrn    1.241
_exptl_crystal_F_000             332
_exptl_crystal_size_max          0.981
_exptl_crystal_size_mid          0.757
_exptl_crystal_size_min          0.533
_refine_diff_density_max         0.977
_refine_diff_density_min         -0.616
_refine_ls_extinction_coef       0.072(11)
_refine_ls_extinction_expression Fc^*^=kFc[1+0.001xFc^2^\l^3^/sin(2\q)]^-1/4^
_refine_ls_extinction_method     'SHELXL2012 (Sheldrick, 2008)'
_refine_ls_goodness_of_fit_ref   1.044
_refine_ls_hydrogen_treatment    refall
_refine_ls_matrix_type           full
_refine_ls_number_parameters     119
_refine_ls_number_reflns         1916
_refine_ls_number_restraints     18
_refine_ls_restrained_S_all      1.039
_refine_ls_R_factor_all          0.0536
_refine_ls_R_factor_gt           0.0478
_refine_ls_shift/su_max          0.000
_refine_ls_shift/su_mean         0.000
_refine_ls_structure_factor_coef Fsqd
_refine_ls_weighting_details
'w = 1/[\s^2^(Fo^2^)+(0.1155P)^2^] where P=(Fo^2^+2Fc^2^)/3'
_refine_ls_weighting_scheme      calc
_refine_ls_wR_factor_gt          0.1316
_refine_ls_wR_factor_ref         0.1408
_reflns_number_gt                1649
_reflns_number_total             1916
_reflns_threshold_expression     I>2\s(I)
_iucr_refine_instructions_details
;
TITL
CELL  0.71073  7.34960 14.41880  8.56970 90.00000 113.44200 90.00000
ZERR 2  0.00160  0.00250  0.00280  0.00000  0.02100  0.00000
LATT 1
SYMM -X+ 0.50000, Y+ 0.50000, -Z+ 0.50000
SFAC Mg Cl O  H
UNIT 2  4  24  48
OMIT 0 55
L.S. 10
ACTA
BOND
FMAP 2
PLAN 2
HTAB O2 O4_$11
HTAB O3 Cl1_$10
HTAB O6 O5_$9
HTAB O1 Cl1_$8
HTAB O5 Cl1_$7
HTAB O2 Cl1_$6
HTAB O6 O3_$5
HTAB O3 Cl1_$4
HTAB O5 O4_$3
HTAB O4 Cl1
HTAB O4 O3_$2
HTAB O1 O5_$1
HTAB O2 O4_$11
EQIV $11 x-1, y, z
HTAB O3 Cl1_$10
EQIV $10 x+1/2, -y+1/2, z+1/2
HTAB O6 O5_$9
EQIV $9 -x+1, -y+1, -z+1
HTAB O1 Cl1_$8
EQIV $8 x, y, z+1
HTAB O5 Cl1_$7
EQIV $7 x, y+1, z
HTAB O2 Cl1_$6
EQIV $6 x-1/2, -y+1/2, z+1/2
HTAB O6 O3_$5
EQIV $5 x-1/2, -y+1/2, z-1/2
HTAB O3 Cl1_$4
EQIV $4 x+1, y, z+1
HTAB O5 O4_$3
EQIV $3 -x+1, -y+1, -z
HTAB O4 Cl1
HTAB O4 O3_$2
EQIV $2 x, y, z-1
HTAB O1 O5_$1
EQIV $1 -x, -y+1, -z+1
HTAB
HTAB O1 O5_$1
HTAB O4 O3_$2
HTAB O4 Cl1
HTAB O5 O4_$3
HTAB O3 Cl1_$4
HTAB O6 O3_$5
HTAB O2 Cl1_$6
HTAB O5 Cl1_$7
HTAB O1 Cl1_$8
HTAB O6 O5_$9
HTAB O3 Cl1_$10
HTAB O2 O4_$11
DFIX O1 H1A 0.84 0.01
DFIX O1 H1B 0.84 0.01
DFIX H1A H1B 1.4 0.1
DFIX O2 H2A 0.84 0.01
DFIX O2 H2B 0.84 0.01
DFIX H2A H2B 1.4 0.1
DFIX O3 H3A 0.84 0.01
DFIX O3 H3B 0.84 0.01
DFIX H3A H3B 1.4 0.1
DFIX O4 H4A 0.84 0.01
DFIX O4 H4B 0.84 0.01
DFIX H4A H4B 1.4 0.1
DFIX O5 H5A 0.84 0.01
DFIX O5 H5B 0.84 0.01
DFIX H5A H5B 1.4 0.1
DFIX O6 H6A 0.84 0.01
DFIX O6 H6B 0.84 0.01
DFIX H6A H6B 1.4 0.1
WGHT    0.115500
EXTI    0.072164
FVAR       1.18503
MOLE 1
CL1   2    0.249457    0.190189    0.012601    11.00000    0.02469    0.02542 =
         0.02843    0.00013    0.00713   -0.00034
MG1   1    0.000000    0.000000    0.500000    10.50000    0.01897    0.02055 =
         0.01932   -0.00117    0.00508   -0.00112
O5    3    0.337720    0.988779    0.190013    11.00000    0.02767    0.02757 =
         0.02854    0.00162    0.00880    0.00171
O3    3    0.841959    0.290310    0.907301    11.00000    0.03049    0.03399 =
         0.03227    0.00270    0.01222    0.00846
O2    3   -0.114672    0.122661    0.375456    11.00000    0.03657    0.02473 =
         0.02441    0.00127    0.00804    0.00594
O4    3    0.679526    0.151616    0.032403    11.00000    0.02742    0.03468 =
         0.03115    0.00418    0.01118    0.00576
O1    3   -0.022058    0.049929    0.717090    11.00000    0.02836    0.03739 =
         0.02683   -0.01168    0.01232   -0.00926
O6    3    0.278055    0.056790    0.574537    11.00000    0.02010    0.03110 =
         0.03063    0.00423    0.00327   -0.00523
H1B   4   -0.115022    0.037266    0.747125    11.00000    0.04921
H4A   4    0.724321    0.192720   -0.011613    11.00000    0.05504
H4B   4    0.566128    0.162501    0.029606    11.00000    0.03213
H5B   4    0.325177    0.950762    0.111975    11.00000    0.05941
H3A   4    0.958594    0.270953    0.940504    11.00000    0.04898
H6B   4    0.304516    0.101386    0.524335    11.00000    0.04390
H2B   4   -0.152137    0.164738    0.423570    11.00000    0.05325
H5A   4    0.312743    1.041782    0.145468    11.00000    0.04880
H1A   4    0.056309    0.084569    0.791826    11.00000    0.04342
H6A   4    0.385267    0.034497    0.642027    11.00000    0.04782
H3B   4    0.796272    0.291819    0.800448    11.00000    0.09970
H2A   4   -0.176508    0.126621    0.269886    11.00000    0.06863
HKLF 4
REM
REM R1 =  0.0478 for    1649 Fo > 4sig(Fo)  and  0.0536 for all    1916 data
REM    119 parameters refined using     18 restraints
END
WGHT      0.1160      0.0000
REM Instructions for potential hydrogen bonds
HTAB O1 O5_$1
HTAB O4 O3_$2
HTAB O4 Cl1
HTAB O5 O4_$3
HTAB O3 Cl1_$4
HTAB O6 O3_$5
HTAB O2 Cl1_$6
HTAB O5 Cl1_$7
HTAB O1 Cl1_$8
HTAB O6 O5_$9
HTAB O3 Cl1_$10
HTAB O2 O4_$11
REM Highest difference peak  0.977,  deepest hole -0.616,  1-sigma level  0.098
Q1    1   0.1993  0.1909  0.1037  11.00000  0.05    0.98
Q2    1   0.3026  0.1909 -0.0728  11.00000  0.05    0.86
;
_cod_data_source_file            qs3030.cif
_cod_data_source_block           MgCl2_12H2O
_cod_database_code               2019270
#BEGIN Tags that were not found in dictionaries:
_shelx_space_group_comment
;
The symmetry employed for this shelxl refinement is uniquely defined
by the following loop, which should always be used as a source of
symmetry information in preference to the above space-group names.
They are only intended as comments.
;
_shelx_hkl_checksum              14016
_shelx_hkl_file
;
   2   0   0 5210.44   21.65   0
   4   0   0 1450.14    9.34   0
   6   0   0   32.92    3.44   0
   8   0   0  451.28    5.36   0
   1   1   0 1391.06   15.84   0
   2   1   0 1204.63   10.81   0
   3   1   0 6279.46   20.02   0
   4   1   0    4.83    2.98   0
   5   1   0   33.03    3.27   0
   6   1   0   36.21    3.12   0
   7   1   0  160.64    4.02   0
   8   1   0   -2.01    3.15   0
   9   1   0   70.02    3.64   0
   0   2   0  460.85   13.20   0
   1   2   0  588.50   11.16   0
   2   2   0 4450.10   19.96   0
   3   2   0 3603.37   15.57   0
   4   2   0   32.02    2.78   0
   5   2   0  770.02    6.90   0
   6   2   0  780.92    6.08   0
   7   2   0  271.01    4.74   0
   8   2   0    8.40    2.87   0
   9   2   0   84.06    3.48   0
   1   3   0  949.97   10.27   0
   2   3   0   64.50    4.15   0
   3   3   0  919.88    9.14   0
   4   3   0  154.69    4.35   0
   5   3   0  547.59    6.06   0
   6   3   0   45.83    3.18   0
   7   3   0  107.43    3.79   0
   8   3   0   57.77    3.16   0
   9   3   0   -1.11    3.35   0
   0   4   0  935.86   13.78   0
   1   4   0 1941.26   13.52   0
   2   4   0  174.69    6.33   0
   3   4   0  134.75    5.40   0
   4   4   0  656.90    6.40   0
   5   4   0  373.77    4.86   0
   6   4   0  295.83    4.26   0
   7   4   0  167.34    4.15   0
   8   4   0   34.92    3.29   0
   9   4   0  278.01    5.46   0
   1   5   0  618.61    7.98   0
   2   5   0  303.14    8.01   0
   3   5   0 2991.15   15.93   0
   4   5   0  202.52    4.65   0
   5   5   0  159.91    4.28   0
   6   5   0  411.93    5.61   0
   7   5   0    1.21    3.02   0
   8   5   0   -0.02    2.85   0
   0   6   0 3771.73   23.39   0
   1   6   0 6704.51   23.08   0
   2   6   0  548.79    6.27   0
   3   6   0 1153.55   10.47   0
   4   6   0  284.34    5.23   0
   5   6   0   79.89    4.19   0
   6   6   0   40.05    3.21   0
   7   6   0  372.49    5.16   0
   8   6   0   96.31    3.96   0
   1   7   0  154.28    4.86   0
   2   7   0  176.54    4.21   0
   3   7   0   42.79    5.08   0
   4   7   0   37.70    3.82   0
   5   7   0    5.29    3.12   0
   6   7   0   67.33    3.83   0
   7   7   0    7.80    3.15   0
   8   7   0   -1.16    3.10   0
   0   8   0  670.56    9.76   0
   1   8   0 1283.57   10.46   0
   2   8   0 2477.98   11.86   0
   3   8   0    2.49    3.41   0
   4   8   0 1646.07   12.74   0
   5   8   0   67.91    4.26   0
   6   8   0  882.71    8.08   0
   7   8   0   74.74    4.01   0
   8   8   0   84.28    4.06   0
   1   9   0   25.53    5.45   0
   2   9   0  123.96    4.34   0
   3   9   0    8.21    2.63   0
   4   9   0  271.15    4.15   0
   5   9   0   26.48    4.45   0
   6   9   0    1.47    3.56   0
   7   9   0   21.54    3.58   0
   8   9   0   29.05    3.57   0
   0  10   0  506.24    8.03   0
   1  10   0  844.06   10.95   0
   2  10   0  198.52    4.11   0
   3  10   0  136.76    3.47   0
   4  10   0  142.41    4.18   0
   5  10   0  102.69    3.19   0
   6  10   0   34.74    3.73   0
   7  10   0  158.96    5.45   0
   1  11   0   -1.15    3.19   0
   2  11   0  164.57    4.57   0
   3  11   0    7.71    3.55   0
   4  11   0    5.83    3.53   0
   5  11   0  134.80    4.13   0
   6  11   0   41.83    3.29   0
   7  11   0    9.32    3.28   0
   0  12   0  215.16    5.82   0
   1  12   0  293.93    5.74   0
   2  12   0  115.41    4.27   0
   3  12   0  272.41    4.82   0
   4  12   0   31.47    3.41   0
   5  12   0  346.74    4.66   0
   6  12   0   64.36    3.31   0
   7  12   0   85.84    3.81   0
   1  13   0   15.74    3.47   0
   2  13   0  295.36    5.12   0
   3  13   0  241.77    4.26   0
   4  13   0   34.36    3.46   0
   5  13   0    8.54    2.41   0
   6  13   0    7.57    3.03   0
   0  14   0   63.63    4.19   0
   1  14   0  939.07    8.82   0
   2  14   0   86.17    3.93   0
   3  14   0  739.04    7.03   0
   4  14   0   50.97    3.49   0
   5  14   0   72.17    3.14   0
   6  14   0  228.73    4.14   0
   1  15   0   53.34    3.79   0
   2  15   0  134.42    4.40   0
   3  15   0  117.09    3.79   0
   4  15   0   10.88    2.53   0
   5  15   0   -1.30    2.57   0
   6  15   0    7.65    2.48   0
   0  16   0  750.21   10.53   0
   1  16   0    0.93    3.18   0
   2  16   0   86.97    4.13   0
   3  16   0    0.20    2.60   0
   4  16   0  397.57    5.46   0
   5  16   0   22.76    2.85   0
   1  17   0  155.01    5.00   0
   2  17   0    7.48    3.23   0
   3  17   0    1.19    2.99   0
   4  17   0   16.58    3.03   0
   0  18   0    0.86    4.99   0
   1  18   0    4.13    3.50   0
   2  18   0  233.92    5.37   0
   3  18   0  115.55    4.15   0
   2  19   0    3.27    3.49   0
  -9   0   1   26.16    3.28   0
  -7   0   1   -2.46    2.44   0
  -5   0   1  175.81    3.79   0
  -3   0   1   43.03    4.70   0
  -1   0   1  827.78   12.20   0
   1   0   1 4368.41   21.44   0
   5   0   1    4.61    2.48   0
   7   0   1  627.40    5.61   0
  -9   1   1   86.37    3.13   0
  -8   1   1   55.85    3.00   0
  -7   1   1  731.84    6.07   0
  -6   1   1   18.21    3.08   0
  -5   1   1 2014.79   10.14   0
  -4   1   1   40.81    3.11   0
  -3   1   1  771.07    8.09   0
  -2   1   1 4885.22   22.05   0
  -1   1   1  494.33   10.20   0
   0   1   1  646.01   10.80   0
   1   1   1   24.31    3.74   0
   2   1   1  161.57    4.87   0
   4   1   1  441.31    5.69   0
   5   1   1  781.90    6.36   0
   6   1   1  486.07    5.24   0
   7   1   1  848.48    6.61   0
   8   1   1    5.59    2.79   0
  -9   2   1   -1.08    3.34   0
  -8   2   1    3.37    3.11   0
  -7   2   1   76.01    3.72   0
  -6   2   1   41.13    3.20   0
  -5   2   1  176.71    4.47   0
  -4   2   1    3.10    3.80   0
  -3   2   1   19.51    3.96   0
  -2   2   1 6503.57   24.60   0
  -1   2   1 1170.19   13.82   0
   0   2   1  121.62    6.42   0
   1   2   1 1841.95   14.48   0
   2   2   1 2188.45   14.08   0
   3   2   1  788.59    8.20   0
   4   2   1 1739.87    9.52   0
   5   2   1   26.26    2.94   0
   6   2   1   -0.89    3.07   0
   7   2   1  591.66    5.78   0
   8   2   1    2.72    3.00   0
  -9   3   1   14.71    2.86   0
  -8   3   1  334.13    4.92   0
  -7   3   1  120.51    3.61   0
  -6   3   1  175.17    3.95   0
  -5   3   1  318.33    4.45   0
  -4   3   1 3252.76   13.54   0
  -3   3   1 6994.55   21.76   0
  -2   3   1 2585.94   15.39   0
  -1   3   1 1032.85   12.32   0
   0   3   1 6568.96   32.29   0
   1   3   1 1072.21   13.06   0
   2   3   1 1312.85   12.04   0
   3   3   1  102.59    4.83   0
   4   3   1 5113.67   16.37   0
   5   3   1  589.38    6.11   0
   6   3   1  161.07    3.57   0
   7   3   1   56.80    3.18   0
   8   3   1  158.71    4.07   0
  -9   4   1    4.09    3.41   0
  -8   4   1   13.21    3.42   0
  -7   4   1    8.58    2.89   0
  -6   4   1  147.73    4.28   0
  -5   4   1  668.58    6.22   0
  -4   4   1  388.07    5.43   0
  -3   4   1  780.64    8.69   0
  -2   4   1  352.49    6.86   0
  -1   4   1 3228.97   21.05   0
   0   4   1 5004.62   29.47   0
   1   4   1 1702.63   17.65   0
   2   4   1  203.82    6.88   0
   3   4   1 2801.70   15.26   0
   4   4   1   14.46    3.36   0
   5   4   1    3.83    2.65   0
   6   4   1    2.13    2.77   0
   7   4   1  112.17    3.58   0
   8   4   1   53.52    3.54   0
  -9   5   1    8.68    3.34   0
  -8   5   1   18.80    3.40   0
  -7   5   1  382.29    4.94   0
  -6   5   1 1435.27    8.56   0
  -5   5   1  211.11    4.52   0
  -4   5   1 1257.74    9.24   0
  -3   5   1 1218.75    9.94   0
  -2   5   1 6318.58   25.63   0
  -1   5   1   11.41    4.17   0
   0   5   1 1728.48   16.69   0
   1   5   1 3255.69   26.59   0
   2   5   1 2128.70   17.24   0
   3   5   1   14.85    3.68   0
   4   5   1   34.48    3.44   0
   5   5   1  109.13    3.67   0
   6   5   1 1056.08    7.44   0
   7   5   1   71.79    3.27   0
   8   5   1  224.61    4.44   0
  -9   6   1    3.84    3.24   0
  -8   6   1    9.97    3.01   0
  -7   6   1   26.79    3.43   0
  -6   6   1   95.15    4.11   0
  -5   6   1  684.36    6.58   0
  -4   6   1   50.18    3.15   0
  -3   6   1    8.19    3.13   0
  -2   6   1  356.37    7.86   0
  -1   6   1  179.62    6.56   0
   0   6   1 1798.01   16.76   0
   1   6   1 2359.53   24.60   0
   2   6   1   99.31    6.64   0
   3   6   1  118.98    4.16   0
   4   6   1  139.40    3.98   0
   5   6   1  247.21    4.51   0
   6   6   1   21.88    3.34   0
   7   6   1    7.47    3.17   0
   8   6   1    1.74    3.14   0
  -8   7   1  295.37    5.20   0
  -7   7   1  110.05    4.01   0
  -6   7   1  113.11    3.57   0
  -5   7   1  601.81    6.86   0
  -4   7   1  663.82    7.13   0
  -3   7   1  338.84    6.20   0
  -2   7   1 1210.30    9.33   0
  -1   7   1  784.56   10.07   0
   0   7   1   64.07    5.79   0
   1   7   1   85.82    7.59   0
   2   7   1   67.66    3.93   0
   3   7   1 1452.98   11.10   0
   4   7   1  477.85    6.63   0
   5   7   1  709.76    6.85   0
   6   7   1  205.14    4.71   0
   7   7   1  312.07    4.86   0
   8   7   1  199.29    4.52   0
  -8   8   1    4.11    3.23   0
  -7   8   1   11.80    3.43   0
  -6   8   1  176.71    4.95   0
  -5   8   1  263.64    5.99   0
  -4   8   1   43.17    4.31   0
  -3   8   1   10.22    2.67   0
  -2   8   1   31.21    4.05   0
  -1   8   1  863.92   11.06   0
   0   8   1  811.73   10.70   0
   1   8   1 1114.24   10.24   0
   2   8   1   14.61    3.74   0
   3   8   1  401.29    7.06   0
   4   8   1   25.02    3.49   0
   5   8   1   46.96    3.70   0
   6   8   1    2.13    3.41   0
   7   8   1   47.42    3.02   0
   8   8   1    4.57    3.45   0
  -8   9   1   97.18    4.52   0
  -7   9   1   83.14    4.23   0
  -6   9   1  127.82    5.04   0
  -5   9   1  297.88    6.96   0
  -4   9   1   10.82    3.67   0
  -3   9   1 1972.61   10.40   0
  -2   9   1 1034.54    8.34   0
  -1   9   1 1516.57   13.82   0
   0   9   1 1025.39   10.18   0
   1   9   1  813.76    8.64   0
   2   9   1  393.31    5.50   0
   3   9   1  439.16    5.49   0
   4   9   1   80.08    4.51   0
   5   9   1  546.33    7.35   0
   6   9   1   15.00    3.50   0
   7   9   1  131.37    4.07   0
  -8  10   1    1.36    3.73   0
  -7  10   1    4.84    3.30   0
  -6  10   1    5.85    4.47   0
  -5  10   1  186.32    4.13   0
  -4  10   1    9.44    3.39   0
  -3  10   1  607.98    6.45   0
  -2  10   1   97.10    3.50   0
  -1  10   1  146.05    5.65   0
   0  10   1   36.76    3.68   0
   1  10   1  605.84    6.63   0
   2  10   1  185.71    3.96   0
   3  10   1   88.60    3.97   0
   4  10   1   20.12    3.44   0
   5  10   1   -1.15    4.32   0
   6  10   1   75.03    3.80   0
   7  10   1    0.61    3.22   0
  -7  11   1  139.40    3.95   0
  -6  11   1  640.77    5.57   0
  -5  11   1  269.65    4.03   0
  -4  11   1  175.92    4.42   0
  -3  11   1  207.80    4.11   0
  -2  11   1 1319.47    9.30   0
  -1  11   1  203.45    6.24   0
   0  11   1  733.36    8.78   0
   1  11   1 1215.05    8.92   0
   2  11   1 1178.88    7.96   0
   3  11   1  432.31    4.82   0
   4  11   1   93.31    3.80   0
   5  11   1  178.85    3.44   0
   6  11   1  282.74    4.59   0
   7  11   1   68.74    3.58   0
  -7  12   1   58.80    3.70   0
  -6  12   1    0.55    2.99   0
  -5  12   1  292.29    4.88   0
  -4  12   1    2.82    2.46   0
  -3  12   1    7.59    2.62   0
  -2  12   1   36.61    3.89   0
  -1  12   1   46.10    4.55   0
   0  12   1    7.46    3.69   0
   1  12   1  238.44    5.11   0
   2  12   1    5.50    2.81   0
   3  12   1    4.82    3.21   0
   4  12   1  211.79    4.07   0
   5  12   1  115.48    3.52   0
   6  12   1  108.78    3.33   0
  -7  13   1    8.07    3.40   0
  -6  13   1  104.15    3.63   0
  -5  13   1    9.90    3.15   0
  -4  13   1  889.22    6.73   0
  -3  13   1   70.54    3.78   0
  -2  13   1  107.58    4.17   0
  -1  13   1   19.58    4.21   0
   0  13   1  334.99    6.40   0
   1  13   1  338.99    5.74   0
   2  13   1   98.96    3.87   0
   3  13   1  166.87    3.59   0
   4  13   1 1117.70    7.23   0
   5  13   1   56.59    3.36   0
   6  13   1  256.61    4.38   0
  -6  14   1    5.27    3.23   0
  -5  14   1  124.21    3.34   0
  -4  14   1  121.43    3.41   0
  -3  14   1   19.99    3.59   0
  -2  14   1   69.16    3.88   0
  -1  14   1    9.66    4.51   0
   0  14   1   19.26    3.64   0
   1  14   1  121.04    4.38   0
   2  14   1    3.59    3.10   0
   3  14   1  112.21    3.52   0
   4  14   1   75.24    3.22   0
   5  14   1   -0.51    3.08   0
   6  14   1    0.13    3.31   0
  -6  15   1   41.68    3.12   0
  -5  15   1   42.57    2.92   0
  -4  15   1   23.94    3.27   0
  -3  15   1   12.41    3.24   0
  -2  15   1  365.24    5.81   0
  -1  15   1  427.75    6.95   0
   0  15   1    8.58    3.71   0
   1  15   1  479.08    6.52   0
   2  15   1  126.57    4.07   0
   3  15   1  234.29    4.41   0
   4  15   1    9.83    2.50   0
   5  15   1   -1.44    2.57   0
  -5  16   1   -3.02    3.14   0
  -4  16   1   46.03    3.76   0
  -3  16   1   55.14    3.66   0
  -2  16   1   -0.42    3.20   0
  -1  16   1  110.31    4.56   0
   0  16   1    5.73    3.47   0
   1  16   1   62.04    3.82   0
   2  16   1   53.77    3.48   0
   3  16   1   27.04    3.47   0
   4  16   1    6.41    2.89   0
   5  16   1    0.21    2.81   0
  -4  17   1   20.32    2.71   0
  -3  17   1  126.28    4.45   0
  -2  17   1   33.67    3.51   0
  -1  17   1  169.12    5.38   0
   0  17   1  106.27    5.96   0
   1  17   1  686.58    7.83   0
   2  17   1    8.15    3.47   0
   3  17   1  284.60    5.13   0
   4  17   1   23.21    3.36   0
  -4  18   1    3.95    3.16   0
  -3  18   1    5.99    3.58   0
  -2  18   1   27.84    3.41   0
  -1  18   1   48.64    4.29   0
   0  18   1   -0.65    3.71   0
   1  18   1   16.25    3.60   0
   2  18   1   14.39    3.65   0
   3  18   1   78.41    3.75   0
  -2  19   1   54.82    4.23   0
   1  19   1    3.76    4.00   0
   2  19   1   34.72    3.82   0
  -8   0   2  365.68    4.51   0
  -6   0   2 1088.18    7.80   0
  -4   0   2 2508.86   12.49   0
  -2   0   2 3546.45   17.65   0
   0   0   2 7051.49   24.88   0
   2   0   2 7748.20   20.80   0
   4   0   2 1860.16    9.54   0
   6   0   2   21.84    2.31   0
   8   0   2  168.66    4.10   0
  -9   1   2    2.88    2.79   0
  -8   1   2    5.58    2.98   0
  -7   1   2   22.68    3.01   0
  -6   1   2  186.28    3.81   0
  -5   1   2   62.05    3.43   0
  -4   1   2 1275.76    9.06   0
  -3   1   2    6.54    3.81   0
  -2   1   2  285.63    5.91   0
  -1   1   2 1504.34   12.84   0
   0   1   2  533.23    7.59   0
   1   1   2 3271.19   15.11   0
   2   1   2    8.90    3.69   0
   3   1   2  197.04    4.10   0
   4   1   2  488.57    5.09   0
   5   1   2    3.39    2.71   0
   6   1   2    3.80    3.01   0
   7   1   2  238.01    4.16   0
   8   1   2   -1.39    2.91   0
  -9   2   2  337.18    4.80   0
  -8   2   2   88.88    3.01   0
  -7   2   2  469.85    5.48   0
  -6   2   2   36.67    3.70   0
  -5   2   2  647.65    6.43   0
  -4   2   2  429.33    6.07   0
  -3   2   2 2270.15   13.43   0
  -2   2   2   79.08    3.90   0
  -1   2   2 2601.52   16.16   0
   0   2   2 5616.83   22.05   0
   1   2   2  470.94    6.43   0
   2   2   2 6853.48   19.64   0
   3   2   2  116.74    3.47   0
   4   2   2  633.57    5.82   0
   5   2   2  833.48    6.54   0
   6   2   2  283.76    4.37   0
   7   2   2   94.58    3.35   0
   8   2   2    1.68    2.94   0
  -9   3   2   25.35    2.95   0
  -8   3   2  108.05    3.82   0
  -7   3   2  533.90    5.64   0
  -6   3   2   50.41    3.22   0
  -5   3   2    1.50    3.05   0
  -4   3   2   79.53    3.63   0
  -3   3   2 1442.62   10.57   0
  -2   3   2  556.40    7.46   0
  -1   3   2 3403.85   18.05   0
   0   3   2  615.13    7.85   0
   1   3   2    3.27    3.03   0
   2   3   2   23.01    4.36   0
   3   3   2   89.54    3.74   0
   4   3   2  344.59    4.68   0
   5   3   2  718.71    6.03   0
   6   3   2   24.91    2.80   0
   7   3   2    1.12    2.66   0
   8   3   2    9.63    3.13   0
  -9   4   2   87.22    3.73   0
  -8   4   2   99.99    3.35   0
  -7   4   2  489.24    5.71   0
  -6   4   2    3.07    3.43   0
  -5   4   2  371.34    4.93   0
  -4   4   2  648.19    6.89   0
  -3   4   2  151.22    5.40   0
  -2   4   2  148.64    5.35   0
  -1   4   2  330.29    6.56   0
   0   4   2  205.95    5.24   0
   1   4   2  451.30    7.39   0
   2   4   2 2560.46   12.65   0
   3   4   2 2300.33   10.84   0
   4   4   2  234.66    4.34   0
   5   4   2  507.44    5.40   0
   6   4   2   35.43    3.20   0
   7   4   2  591.21    5.95   0
   8   4   2   46.39    3.03   0
  -9   5   2    9.32    2.98   0
  -8   5   2    4.68    2.66   0
  -7   5   2   55.91    3.55   0
  -6   5   2   22.32    3.59   0
  -5   5   2  536.56    5.85   0
  -4   5   2  423.18    5.81   0
  -3   5   2   45.60    3.87   0
  -2   5   2  688.20    8.94   0
  -1   5   2  105.90    5.18   0
   0   5   2  459.85    7.43   0
   1   5   2 1143.88   10.39   0
   2   5   2  150.64    4.12   0
   3   5   2  349.07    4.81   0
   4   5   2  725.84    6.46   0
   5   5   2   25.07    2.81   0
   6   5   2   94.28    3.68   0
   7   5   2   29.80    2.99   0
   8   5   2   37.43    3.55   0
  -9   6   2  186.30    4.31   0
  -8   6   2   73.56    3.41   0
  -7   6   2  274.36    5.08   0
  -6   6   2    7.86    3.53   0
  -5   6   2  548.72    6.39   0
  -4   6   2 1292.35    9.44   0
  -3   6   2   69.10    3.79   0
  -2   6   2   19.59    4.34   0
  -1   6   2  863.55   10.08   0
   0   6   2 2119.85   14.35   0
   1   6   2 7731.70   25.09   0
   2   6   2    1.27    2.67   0
   3   6   2 1698.20    9.82   0
   4   6   2  986.65    7.43   0
   5   6   2  196.33    4.09   0
   6   6   2   77.54    3.53   0
   7   6   2    5.05    2.80   0
  -9   7   2   42.23    3.97   0
  -8   7   2    6.17    3.08   0
  -7   7   2  177.71    4.44   0
  -6   7   2  110.95    4.27   0
  -5   7   2    6.04    3.72   0
  -4   7   2    2.64    3.16   0
  -3   7   2 1570.43   11.48   0
  -2   7   2   27.64    4.06   0
  -1   7   2 1551.14   11.36   0
   0   7   2  805.69    9.22   0
   1   7   2  383.54    6.78   0
   2   7   2   13.41    3.26   0
   3   7   2   50.39    3.17   0
   4   7   2  133.11    4.38   0
   5   7   2  611.71    5.85   0
   6   7   2    9.37    3.12   0
   7   7   2   12.65    3.22   0
  -8   8   2  224.74    5.17   0
  -7   8   2    4.72    2.69   0
  -6   8   2 1011.88    8.15   0
  -5   8   2   48.59    4.20   0
  -4   8   2   21.64    4.01   0
  -3   8   2   54.53    4.08   0
  -2   8   2 5914.43   22.13   0
  -1   8   2   60.85    4.25   0
   0   8   2  834.73    9.07   0
   1   8   2  252.92    5.61   0
   2   8   2 3491.82   15.61   0
   3   8   2  293.51    5.41   0
   4   8   2  269.44    4.69   0
   5   8   2    4.86    3.24   0
   6   8   2  455.41    6.12   0
   7   8   2    2.06    3.29   0
  -8   9   2   28.33    3.78   0
  -7   9   2   47.34    3.87   0
  -6   9   2   42.99    3.51   0
  -5   9   2  229.54    5.54   0
  -4   9   2    0.23    4.47   0
  -3   9   2  583.68    7.12   0
  -2   9   2    7.37    3.28   0
  -1   9   2  764.92    8.41   0
   0   9   2   46.34    4.34   0
   1   9   2 1184.95   10.77   0
   2   9   2   77.18    4.55   0
   3   9   2   50.85    4.19   0
   4   9   2   20.43    3.32   0
   5   9   2  505.84    5.74   0
   6   9   2   51.32    3.60   0
   7   9   2   12.53    3.18   0
  -8  10   2  322.18    6.24   0
  -7  10   2  136.53    5.26   0
  -6  10   2   47.45    4.03   0
  -5  10   2  711.98    6.35   0
  -4  10   2  987.05    7.33   0
  -3  10   2  425.49    5.99   0
  -2  10   2  193.31    4.90   0
  -1  10   2   71.19    3.83   0
   0  10   2  813.95    9.49   0
   1  10   2  232.75    6.05   0
   2  10   2    9.17    4.21   0
   3  10   2  132.45    4.52   0
   4  10   2 1083.80    8.88   0
   5  10   2   51.81    3.87   0
   6  10   2  110.80    3.79   0
   7  10   2   76.88    4.42   0
  -8  11   2   26.57    3.48   0
  -7  11   2  132.17    4.08   0
  -6  11   2   33.00    2.65   0
  -5  11   2  213.92    4.42   0
  -4  11   2   11.78    2.63   0
  -3  11   2    4.80    3.81   0
  -2  11   2  322.70    7.54   0
  -1  11   2  736.81    8.10   0
   0  11   2  834.83    9.64   0
   1  11   2  591.74    7.00   0
   2  11   2   22.43    2.79   0
   3  11   2   70.29    3.55   0
   4  11   2  189.63    3.71   0
   5  11   2  288.95    4.29   0
   6  11   2   25.62    4.17   0
  -7  12   2   42.98    3.70   0
  -6  12   2  270.03    4.47   0
  -5  12   2   19.56    3.08   0
  -4  12   2  122.15    4.14   0
  -3  12   2  145.56    4.38   0
  -2  12   2   60.00    5.28   0
  -1  12   2  745.28    8.82   0
   0  12   2   32.83    3.91   0
   1  12   2 1071.59    9.63   0
   2  12   2 1482.58    8.67   0
   3  12   2  965.71    6.79   0
   4  12   2   48.92    3.12   0
   5  12   2  146.51    3.41   0
   6  12   2    4.39    2.80   0
  -7  13   2  108.51    3.13   0
  -6  13   2   -0.80    3.16   0
  -5  13   2   15.28    3.14   0
  -4  13   2   34.79    3.57   0
  -3  13   2  135.69    4.18   0
  -2  13   2   20.64    3.52   0
  -1  13   2   16.54    3.48   0
   0  13   2    0.26    3.39   0
   1  13   2  468.49    5.84   0
   2  13   2    5.05    2.53   0
   3  13   2  123.84    3.82   0
   4  13   2   89.43    3.27   0
   5  13   2   46.22    2.58   0
   6  13   2   -0.14    2.94   0
  -6  14   2  169.23    3.80   0
  -5  14   2  233.10    4.05   0
  -4  14   2    8.12    2.59   0
  -3  14   2  470.43    5.96   0
  -2  14   2  294.80    5.42   0
  -1  14   2  576.05    8.28   0
   0  14   2    6.16    3.34   0
   1  14   2  412.85    5.71   0
   2  14   2  281.81    4.69   0
   3  14   2  117.16    3.36   0
   4  14   2   -0.59    3.06   0
   5  14   2  305.01    4.76   0
  -6  15   2    2.35    3.29   0
  -5  15   2   72.23    3.55   0
  -4  15   2    6.40    2.45   0
  -3  15   2    7.83    3.57   0
  -2  15   2   39.75    3.51   0
  -1  15   2  148.78    5.41   0
   0  15   2   61.41    4.18   0
   1  15   2    3.81    3.24   0
   2  15   2   18.16    2.76   0
   3  15   2   70.30    3.13   0
   4  15   2   88.91    3.62   0
   5  15   2    4.08    2.77   0
  -5  16   2    0.89    3.18   0
  -4  16   2  637.28    6.68   0
  -3  16   2   16.71    3.23   0
  -2  16   2   68.06    3.70   0
  -1  16   2    3.26    3.82   0
   0  16   2  334.98    7.44   0
   1  16   2   61.90    3.68   0
   2  16   2   83.51    3.23   0
   3  16   2  129.73    3.64   0
   4  16   2  214.55    3.97   0
  -5  17   2    0.16    3.29   0
  -4  17   2    4.55    3.60   0
  -3  17   2   -2.69    3.28   0
  -2  17   2    0.16    3.25   0
  -1  17   2  184.89    7.09   0
   0  17   2   13.22    3.66   0
   1  17   2   14.22    2.99   0
   2  17   2   31.91    3.40   0
   3  17   2   -0.49    2.54   0
  -4  18   2   23.20    3.58   0
  -3  18   2   36.59    3.91   0
  -2  18   2  111.18    4.63   0
  -1  18   2  182.03    6.11   0
   0  18   2   62.69    4.51   0
   1  18   2   42.64    3.78   0
   2  18   2  183.90    4.85   0
  -2  19   2   12.08    3.77   0
   1  19   2    7.68    3.77   0
  -9   0   3    3.22    2.95   0
  -7   0   3   61.71    2.85   0
  -5   0   3  411.35    5.37   0
  -3   0   3  492.82    7.53   0
  -1   0   3  432.89    6.09   0
   1   0   3 1049.67    8.57   0
   3   0   3   95.97    2.97   0
   5   0   3  100.63    3.02   0
   7   0   3    0.17    2.38   0
  -9   1   3   28.89    3.35   0
  -8   1   3   17.66    2.68   0
  -7   1   3  219.07    4.50   0
  -6   1   3  182.85    4.21   0
  -5   1   3 1269.95    8.51   0
  -4   1   3  498.88    6.19   0
  -3   1   3 3997.93   16.27   0
  -2   1   3  234.59    5.24   0
  -1   1   3  618.87    7.04   0
   0   1   3  130.72    3.78   0
   1   1   3  537.54    6.63   0
   2   1   3  238.13    4.23   0
   3   1   3  447.13    5.12   0
   4   1   3  321.64    4.26   0
   5   1   3  389.85    4.76   0
   6   1   3  505.54    5.03   0
   7   1   3  337.89    4.95   0
  -9   2   3  211.28    4.18   0
  -8   2   3   17.28    2.71   0
  -7   2   3   25.74    3.02   0
  -6   2   3    0.91    2.69   0
  -5   2   3    2.51    2.60   0
  -4   2   3   13.23    3.28   0
  -3   2   3  861.66    8.90   0
  -2   2   3  270.37    5.40   0
  -1   2   3 1544.93   10.61   0
   0   2   3 2150.76   11.91   0
   1   2   3 2583.71   12.41   0
   2   2   3    1.41    2.38   0
   3   2   3 1301.26    8.02   0
   4   2   3  353.66    4.98   0
   5   2   3    1.65    3.17   0
   6   2   3   82.34    3.19   0
   7   2   3    2.43    2.79   0
  -9   3   3  115.96    3.49   0
  -8   3   3  299.31    4.89   0
  -7   3   3   40.32    3.09   0
  -6   3   3   49.00    3.40   0
  -5   3   3  488.51    5.74   0
  -4   3   3 1171.01    8.70   0
  -3   3   3  375.50    6.81   0
  -2   3   3 4998.58   18.69   0
  -1   3   3 5072.09   18.72   0
   0   3   3 9999.99   24.69   0
   1   3   3    7.07    3.39   0
   2   3   3  556.51    6.10   0
   3   3   3   -0.01    2.55   0
   4   3   3  324.06    4.87   0
   5   3   3   22.24    2.80   0
   6   3   3   70.73    3.38   0
   7   3   3   23.62    2.96   0
  -9   4   3  101.53    3.94   0
  -8   4   3    9.33    2.59   0
  -7   4   3   47.15    3.66   0
  -6   4   3  121.68    3.92   0
  -5   4   3   16.39    3.18   0
  -4   4   3    5.69    3.57   0
  -3   4   3  462.29    6.55   0
  -2   4   3 4103.85   17.08   0
  -1   4   3   53.93    4.61   0
   0   4   3 1419.74   10.04   0
   1   4   3  669.01    7.01   0
   2   4   3 1064.21    7.66   0
   3   4   3  862.68    6.42   0
   4   4   3   10.71    2.53   0
   5   4   3   49.12    2.89   0
   6   4   3    5.53    2.81   0
   7   4   3    4.96    2.80   0
  -9   5   3   91.59    3.53   0
  -8   5   3   26.95    3.36   0
  -7   5   3  146.78    3.72   0
  -6   5   3 1509.31    8.76   0
  -5   5   3 1982.33   10.10   0
  -4   5   3 1329.49    8.61   0
  -3   5   3   80.96    3.40   0
  -2   5   3 2724.40   13.94   0
  -1   5   3   15.22    4.38   0
   0   5   3    8.51    3.63   0
   1   5   3  371.35    5.81   0
   2   5   3 2035.45   10.80   0
   3   5   3  204.59    4.25   0
   4   5   3  320.01    4.82   0
   5   5   3    5.85    2.69   0
   6   5   3  644.97    5.91   0
   7   5   3    1.96    2.93   0
  -9   6   3    0.96    2.73   0
  -8   6   3   93.55    3.80   0
  -7   6   3  146.73    3.69   0
  -6   6   3  294.73    4.39   0
  -5   6   3   -0.87    2.98   0
  -4   6   3    4.37    3.38   0
  -3   6   3  738.32    7.27   0
  -2   6   3  292.26    5.65   0
  -1   6   3  365.56    6.15   0
   0   6   3   96.53    4.18   0
   1   6   3  365.59    5.73   0
   2   6   3   36.89    2.97   0
   3   6   3   52.63    3.45   0
   4   6   3   97.66    3.01   0
   5   6   3  453.99    5.24   0
   6   6   3    3.25    2.80   0
   7   6   3    7.39    3.14   0
  -9   7   3   50.76    3.27   0
  -8   7   3    0.36    2.86   0
  -7   7   3  237.24    4.24   0
  -6   7   3   15.27    3.27   0
  -5   7   3   11.39    3.20   0
  -4   7   3 1437.74    9.88   0
  -3   7   3 1191.87    9.50   0
  -2   7   3  203.34    5.15   0
  -1   7   3 1226.01    9.59   0
   0   7   3  993.62    8.78   0
   1   7   3 1305.95    9.60   0
   2   7   3  192.79    4.28   0
   3   7   3   70.30    3.65   0
   4   7   3  298.60    4.78   0
   5   7   3  426.91    5.12   0
   6   7   3    0.86    2.58   0
   7   7   3  154.05    5.15   0
  -9   8   3   41.37    3.96   0
  -8   8   3    2.65    2.76   0
  -7   8   3    5.21    3.47   0
  -6   8   3   -2.86    3.67   0
  -5   8   3   27.28    3.10   0
  -4   8   3  131.51    4.26   0
  -3   8   3 1252.09    9.62   0
  -2   8   3   16.96    3.66   0
  -1   8   3  370.65    6.00   0
   0   8   3    1.36    3.12   0
   1   8   3    3.50    3.33   0
   2   8   3  134.39    4.45   0
   3   8   3  308.42    5.08   0
   4   8   3    1.93    3.08   0
   5   8   3  417.14    5.59   0
   6   8   3   10.89    2.83   0
   7   8   3   29.91    3.62   0
  -8   9   3    0.52    3.44   0
  -7   9   3  137.75    3.99   0
  -6   9   3  129.61    4.05   0
  -5   9   3  289.07    5.38   0
  -4   9   3   62.48    4.07   0
  -3   9   3  585.60    7.17   0
  -2   9   3  412.16    6.22   0
  -1   9   3 1668.02   10.75   0
   0   9   3  896.99    8.51   0
   1   9   3  698.97    7.65   0
   2   9   3   32.07    3.80   0
   3   9   3  574.17    6.02   0
   4   9   3  705.53    6.43   0
   5   9   3  393.55    5.23   0
   6   9   3   52.41    3.62   0
  -8  10   3   -1.06    3.16   0
  -7  10   3    9.11    3.67   0
  -6  10   3    1.67    2.85   0
  -5  10   3   -0.55    3.72   0
  -4  10   3  189.72    5.44   0
  -3  10   3 1290.57   10.33   0
  -2  10   3  145.63    4.82   0
  -1  10   3  143.36    4.49   0
   0  10   3  222.77    5.16   0
   1  10   3 1001.32    9.08   0
   2  10   3  155.25    4.67   0
   3  10   3  214.49    4.94   0
   4  10   3    7.85    3.53   0
   5  10   3  110.81    4.21   0
   6  10   3   27.32    3.39   0
  -8  11   3   96.61    5.02   0
  -7  11   3    1.12    4.36   0
  -6  11   3  700.60    6.28   0
  -5  11   3  141.52    3.95   0
  -4  11   3  397.80    6.44   0
  -3  11   3  400.53    6.30   0
  -2  11   3  647.46    7.37   0
  -1  11   3  596.81    7.25   0
   0  11   3   30.85    3.84   0
   1  11   3  437.51    6.76   0
   2  11   3 1415.65   10.19   0
   3  11   3  129.41    3.92   0
   4  11   3   72.60    4.11   0
   5  11   3    7.78    3.24   0
   6  11   3  299.46    5.96   0
  -7  12   3   34.48    3.67   0
  -6  12   3   59.27    2.69   0
  -5  12   3   -4.19    3.34   0
  -4  12   3   11.17    3.51   0
  -3  12   3   47.57    3.68   0
  -2  12   3   17.24    3.65   0
  -1  12   3  355.33    5.92   0
   0  12   3   69.71    3.95   0
   1  12   3  132.65    4.93   0
   2  12   3  404.90    6.73   0
   3  12   3  199.91    4.14   0
   4  12   3  173.49    3.74   0
   5  12   3  103.30    3.22   0
  -7  13   3   10.43    3.59   0
  -6  13   3   50.87    2.83   0
  -5  13   3   13.03    3.18   0
  -4  13   3  463.73    5.27   0
  -3  13   3    3.23    3.50   0
  -2  13   3  326.70    5.75   0
  -1  13   3  233.04    5.20   0
   0  13   3 1276.54   11.82   0
   1  13   3   46.84    3.71   0
   2  13   3    1.02    3.07   0
   3  13   3    5.65    2.48   0
   4  13   3  332.28    4.54   0
   5  13   3    0.16    2.58   0
  -7  14   3    3.52    3.40   0
  -6  14   3    5.37    3.48   0
  -5  14   3  118.14    3.91   0
  -4  14   3    3.25    3.46   0
  -3  14   3   -4.47    3.05   0
  -2  14   3   93.35    4.60   0
  -1  14   3  117.89    4.31   0
   0  14   3   16.45    3.54   0
   1  14   3   50.83    3.09   0
   2  14   3   10.66    3.02   0
   3  14   3   82.33    3.43   0
   4  14   3   16.50    3.29   0
   5  14   3    5.61    3.12   0
  -6  15   3   97.23    3.39   0
  -5  15   3   34.02    2.65   0
  -4  15   3    3.60    3.30   0
  -3  15   3   56.34    3.47   0
  -2  15   3  253.78    6.50   0
  -1  15   3    2.19    3.34   0
   0  15   3   23.16    3.38   0
   1  15   3  415.21    5.41   0
   2  15   3  140.71    3.49   0
   3  15   3  545.84    5.74   0
   4  15   3   17.30    2.53   0
  -5  16   3    1.76    3.12   0
  -4  16   3   18.87    3.48   0
  -3  16   3  172.92    4.42   0
  -2  16   3   26.86    4.86   0
  -1  16   3    5.23    3.56   0
   0  16   3   23.78    3.44   0
   1  16   3   11.89    3.12   0
   2  16   3   73.70    3.61   0
   3  16   3   30.54    3.48   0
  -5  17   3   99.62    4.23   0
  -4  17   3   36.74    3.95   0
  -3  17   3  112.54    4.31   0
  -2  17   3    0.83    3.27   0
  -1  17   3  292.96    6.93   0
   0  17   3   16.27    3.30   0
   1  17   3  280.06    5.66   0
   2  17   3    4.16    2.70   0
   3  17   3  235.74    4.93   0
  -4  18   3   16.71    3.36   0
  -3  18   3    5.36    3.45   0
  -2  18   3   22.32    3.63   0
  -1  18   3   51.76    4.76   0
   0  18   3   -0.51    3.35   0
   1  18   3   16.35    3.45   0
  -2  19   3   20.04    4.14   0
 -10   0   4  119.33    3.42   0
  -8   0   4 1230.21    7.88   0
  -6   0   4   72.60    3.87   0
  -4   0   4 2932.80   12.39   0
  -2   0   4  884.60    7.95   0
   0   0   4 2422.52   11.23   0
   2   0   4 1431.77    8.33   0
   4   0   4 2643.12   10.64   0
   6   0   4   11.12    3.13   0
 -10   1   4    1.96    3.24   0
  -9   1   4   86.68    3.88   0
  -8   1   4    2.50    2.57   0
  -7   1   4   -0.18    3.04   0
  -6   1   4   45.31    3.51   0
  -5   1   4 2721.14   11.49   0
  -4   1   4  862.88    6.96   0
  -3   1   4  387.99    5.96   0
  -2   1   4 3271.00   13.91   0
  -1   1   4  317.45    5.47   0
   0   1   4  169.15    4.28   0
   1   1   4  392.58    4.79   0
   2   1   4   14.65    2.50   0
   3   1   4  989.55    6.74   0
   4   1   4   12.09    3.31   0
   5   1   4    9.09    2.57   0
   6   1   4   83.37    3.05   0
   7   1   4   91.83    3.42   0
  -9   2   4  100.33    3.90   0
  -8   2   4   17.33    2.98   0
  -7   2   4  934.87    6.81   0
  -6   2   4 1122.64    7.49   0
  -5   2   4 1066.00    7.69   0
  -4   2   4    1.99    2.83   0
  -3   2   4  263.70    5.26   0
  -2   2   4 3204.01   13.62   0
  -1   2   4 1021.51    7.96   0
   0   2   4   -0.03    2.85   0
   1   2   4   32.17    2.92   0
   2   2   4 2010.33    9.61   0
   3   2   4   34.10    2.86   0
   4   2   4  199.40    3.75   0
   5   2   4   19.73    3.17   0
   6   2   4  630.79    5.63   0
   7   2   4  156.17    3.81   0
  -9   3   4    4.96    3.30   0
  -8   3   4    2.28    2.66   0
  -7   3   4  290.50    4.80   0
  -6   3   4   76.81    3.66   0
  -5   3   4  178.96    3.90   0
  -4   3   4   82.39    3.45   0
  -3   3   4  237.75    5.07   0
  -2   3   4  906.63    8.03   0
  -1   3   4 1284.88    8.81   0
   0   3   4  232.42    4.95   0
   1   3   4 1148.82    7.67   0
   2   3   4  163.09    4.08   0
   3   3   4   26.55    2.84   0
   4   3   4   26.57    2.50   0
   5   3   4  124.87    3.74   0
   6   3   4    0.38    2.49   0
   7   3   4   -0.16    2.69   0
  -9   4   4  129.96    3.63   0
  -8   4   4  383.85    5.24   0
  -7   4   4  507.67    5.68   0
  -6   4   4   13.25    2.66   0
  -5   4   4  784.25    6.58   0
  -4   4   4   36.31    2.80   0
  -3   4   4  938.00    7.69   0
  -2   4   4 1448.58    9.44   0
  -1   4   4   89.65    4.07   0
   0   4   4  507.36    5.82   0
   1   4   4 1720.76    9.13   0
   2   4   4  166.63    3.57   0
   3   4   4  788.00    6.19   0
   4   4   4  109.30    3.64   0
   5   4   4 1172.65    7.11   0
   6   4   4    8.60    3.20   0
   7   4   4  189.37    4.11   0
  -9   5   4   37.70    3.68   0
  -8   5   4   16.61    2.78   0
  -7   5   4    1.95    2.87   0
  -6   5   4   79.81    3.57   0
  -5   5   4  642.38    6.22   0
  -4   5   4    5.17    2.81   0
  -3   5   4  132.04    4.25   0
  -2   5   4    3.63    2.96   0
  -1   5   4  233.28    4.96   0
   0   5   4  106.11    3.71   0
   1   5   4 1393.59    8.62   0
   2   5   4  563.06    5.73   0
   3   5   4  126.66    3.69   0
   4   5   4   15.11    3.16   0
   5   5   4   39.58    3.42   0
   6   5   4   13.45    3.03   0
   7   5   4  219.28    3.80   0
  -9   6   4   95.80    3.91   0
  -8   6   4  168.83    4.20   0
  -7   6   4  265.26    4.39   0
  -6   6   4    0.24    2.89   0
  -5   6   4  843.72    6.73   0
  -4   6   4   56.18    3.38   0
  -3   6   4  692.36    7.08   0
  -2   6   4    5.74    3.12   0
  -1   6   4  174.41    4.26   0
   0   6   4 2135.57   10.64   0
   1   6   4    6.52    2.68   0
   2   6   4  790.55    6.76   0
   3   6   4 1137.34    7.46   0
   4   6   4 1090.56    7.44   0
   5   6   4  102.95    3.09   0
   6   6   4    8.17    3.22   0
  -9   7   4   10.09    3.38   0
  -8   7   4    4.13    3.02   0
  -7   7   4   -0.62    2.69   0
  -6   7   4  110.21    3.75   0
  -5   7   4    2.37    3.06   0
  -4   7   4  233.61    4.35   0
  -3   7   4 1682.79    9.91   0
  -2   7   4  407.18    5.80   0
  -1   7   4 1098.18    8.09   0
   0   7   4  250.58    4.70   0
   1   7   4  317.60    5.04   0
   2   7   4  683.71    6.69   0
   3   7   4  147.81    4.10   0
   4   7   4    3.12    2.43   0
   5   7   4   68.67    3.13   0
   6   7   4    5.38    3.04   0
  -9   8   4   15.21    3.63   0
  -8   8   4  199.88    4.20   0
  -7   8   4    7.78    2.79   0
  -6   8   4 1087.45    8.14   0
  -5   8   4   37.07    3.47   0
  -4   8   4  605.43    6.41   0
  -3   8   4  186.03    4.46   0
  -2   8   4 1287.94    8.86   0
  -1   8   4   72.11    3.59   0
   0   8   4  476.73    5.80   0
   1   8   4  451.00    5.84   0
   2   8   4  415.62    5.66   0
   3   8   4  175.64    4.33   0
   4   8   4   -1.53    3.01   0
   5   8   4  109.46    3.43   0
   6   8   4  315.52    5.29   0
  -8   9   4   23.44    3.56   0
  -7   9   4    6.40    3.27   0
  -6   9   4  269.69    5.04   0
  -5   9   4   97.79    3.84   0
  -4   9   4  249.48    5.19   0
  -3   9   4   77.16    4.02   0
  -2   9   4   37.72    3.26   0
  -1   9   4  279.89    4.91   0
   0   9   4   13.62    2.84   0
   1   9   4  407.24    5.87   0
   2   9   4   33.07    3.44   0
   3   9   4    3.48    2.59   0
   4   9   4  133.23    4.06   0
   5   9   4   69.73    3.56   0
   6   9   4   42.94    3.70   0
  -8  10   4  130.25    4.55   0
  -7  10   4   29.30    3.07   0
  -6  10   4  367.84    5.49   0
  -5  10   4  140.82    4.28   0
  -4  10   4  422.67    5.90   0
  -3  10   4  325.19    5.60   0
  -2  10   4   53.94    3.86   0
  -1  10   4  112.59    4.10   0
   0  10   4  299.09    5.33   0
   1  10   4   94.92    3.97   0
   2  10   4  275.32    4.87   0
   3  10   4  236.47    4.90   0
   4  10   4  815.77    7.00   0
   5  10   4   44.65    3.63   0
  -8  11   4    1.47    3.59   0
  -7  11   4   -0.40    3.64   0
  -6  11   4    7.71    3.03   0
  -5  11   4    9.23    3.47   0
  -4  11   4    0.17    3.29   0
  -3  11   4    3.73    3.37   0
  -2  11   4   11.38    2.89   0
  -1  11   4   48.12    3.58   0
   0  11   4    3.03    3.19   0
   1  11   4   54.64    3.66   0
   2  11   4   91.34    3.93   0
   3  11   4   52.01    3.11   0
   4  11   4   11.35    3.40   0
   5  11   4    0.61    3.22   0
  -7  12   4   28.24    3.53   0
  -6  12   4   97.38    4.80   0
  -5  12   4  154.32    5.03   0
  -4  12   4  174.93    4.51   0
  -3  12   4  487.35    6.45   0
  -2  12   4   83.17    3.89   0
  -1  12   4  618.16    7.14   0
   0  12   4  205.84    4.80   0
   1  12   4  871.18    8.47   0
   2  12   4   19.89    3.36   0
   3  12   4  293.04    5.37   0
   4  12   4    1.48    3.46   0
   5  12   4  224.82    5.54   0
  -7  13   4   -1.00    3.53   0
  -6  13   4   15.87    2.76   0
  -5  13   4    2.12    3.41   0
  -4  13   4   77.61    4.13   0
  -3  13   4  179.11    4.86   0
  -2  13   4  118.61    4.03   0
  -1  13   4   55.45    4.12   0
   0  13   4   54.25    3.64   0
   1  13   4  346.50    6.23   0
   2  13   4    6.55    3.42   0
   3  13   4    2.71    2.58   0
   4  13   4    1.24    2.92   0
  -7  14   4  191.51    4.39   0
  -6  14   4   87.69    3.68   0
  -5  14   4   87.84    3.59   0
  -4  14   4   77.53    3.68   0
  -3  14   4    5.08    3.36   0
  -2  14   4  438.45    6.33   0
  -1  14   4  311.55    5.61   0
   0  14   4   15.14    3.34   0
   1  14   4  311.72    6.31   0
   2  14   4   33.39    2.95   0
   3  14   4  272.58    4.35   0
   4  14   4   -2.12    2.72   0
  -6  15   4    2.03    3.74   0
  -5  15   4  182.76    4.64   0
  -4  15   4    0.92    3.29   0
  -3  15   4    1.88    3.92   0
  -2  15   4   40.26    3.81   0
  -1  15   4   51.43    3.62   0
   0  15   4    0.21    3.15   0
   1  15   4    3.71    2.85   0
   2  15   4   50.22    3.06   0
   3  15   4   71.35    3.66   0
  -5  16   4   26.66    2.84   0
  -4  16   4  420.08    6.09   0
  -3  16   4   37.79    3.66   0
  -2  16   4   70.74    4.29   0
  -1  16   4    0.72    3.31   0
   0  16   4  216.58    5.66   0
   1  16   4    5.40    3.03   0
   2  16   4   27.41    3.30   0
   3  16   4   -2.11    2.30   0
  -4  17   4    1.84    3.52   0
  -3  17   4   10.43    3.26   0
  -2  17   4   14.73    3.89   0
  -1  17   4   68.18    4.42   0
   0  17   4   54.42    3.69   0
   1  17   4    1.51    3.18   0
   2  17   4    1.27    2.65   0
  -3  18   4   20.23    3.29   0
  -2  18   4  206.80    5.54   0
   0  18   4   47.72    3.90   0
  -9   0   5  133.52    3.51   0
  -7   0   5  893.20    6.95   0
  -5   0   5  722.89    6.31   0
  -3   0   5  284.41    4.24   0
  -1   0   5 1686.37    8.97   0
   1   0   5 1003.44    6.95   0
   3   0   5    5.61    3.18   0
   5   0   5  736.97    5.68   0
 -10   1   5   27.31    3.28   0
  -9   1   5  133.70    3.91   0
  -8   1   5   10.08    2.88   0
  -7   1   5   91.88    3.37   0
  -6   1   5   82.46    3.93   0
  -5   1   5  506.15    5.55   0
  -4   1   5  835.98    6.88   0
  -3   1   5 1649.55    9.07   0
  -2   1   5 1032.44    7.50   0
  -1   1   5 2148.67    9.86   0
   0   1   5  567.65    5.48   0
   1   1   5  345.06    4.35   0
   2   1   5 3382.42   11.38   0
   3   1   5  247.75    4.42   0
   4   1   5   24.81    2.69   0
   5   1   5  226.80    4.17   0
   6   1   5  136.63    4.05   0
  -9   2   5  110.44    3.85   0
  -8   2   5   66.50    3.48   0
  -7   2   5   -0.97    2.82   0
  -6   2   5   44.09    3.43   0
  -5   2   5  696.39    6.35   0
  -4   2   5   10.34    2.88   0
  -3   2   5    4.05    2.66   0
  -2   2   5   56.80    2.94   0
  -1   2   5 1789.27    9.21   0
   0   2   5    7.38    2.28   0
   1   2   5   25.91    2.59   0
   2   2   5  305.53    4.30   0
   3   2   5  578.22    5.26   0
   4   2   5   22.65    2.67   0
   5   2   5   52.26    2.66   0
   6   2   5   13.50    2.99   0
  -9   3   5   16.47    3.24   0
  -8   3   5  409.58    4.95   0
  -7   3   5  192.85    3.99   0
  -6   3   5   92.04    3.69   0
  -5   3   5   19.13    3.58   0
  -4   3   5  957.39    7.29   0
  -3   3   5   44.95    3.04   0
  -2   3   5    3.42    2.57   0
  -1   3   5  102.72    3.34   0
   0   3   5 2755.29   10.93   0
   1   3   5  692.26    5.94   0
   2   3   5   79.69    2.95   0
   3   3   5    3.21    3.05   0
   4   3   5  595.39    5.40   0
   5   3   5   30.98    2.85   0
   6   3   5    9.20    2.70   0
  -9   4   5   14.67    2.76   0
  -8   4   5  315.02    4.51   0
  -7   4   5   70.05    3.08   0
  -6   4   5   63.12    3.51   0
  -5   4   5   59.32    3.57   0
  -4   4   5  612.71    5.97   0
  -3   4   5   19.14    2.85   0
  -2   4   5  116.25    3.46   0
  -1   4   5 1075.28    7.40   0
   0   4   5 1356.00    7.97   0
   1   4   5  760.91    6.08   0
   2   4   5  496.80    5.21   0
   3   4   5   15.49    3.09   0
   4   4   5   76.15    2.99   0
   5   4   5   42.01    3.21   0
   6   4   5    0.97    3.25   0
  -9   5   5    6.68    2.86   0
  -8   5   5   30.58    3.42   0
  -7   5   5  253.25    4.65   0
  -6   5   5  123.78    3.83   0
  -5   5   5   29.85    3.54   0
  -4   5   5    8.42    3.21   0
  -3   5   5  814.41    6.86   0
  -2   5   5 2879.56   12.19   0
  -1   5   5   95.61    3.90   0
   0   5   5  748.00    6.27   0
   1   5   5  110.20    3.60   0
   2   5   5 1228.09    7.49   0
   3   5   5   19.46    2.61   0
   4   5   5   45.50    3.07   0
   5   5   5   -0.80    3.07   0
   6   5   5  125.06    3.63   0
  -9   6   5   21.49    2.96   0
  -8   6   5   35.71    3.08   0
  -7   6   5  507.05    5.61   0
  -6   6   5   60.05    3.12   0
  -5   6   5    6.81    3.08   0
  -4   6   5  498.35    5.97   0
  -3   6   5   50.27    3.79   0
  -2   6   5   18.84    2.92   0
  -1   6   5  278.51    4.89   0
   0   6   5   14.77    2.57   0
   1   6   5  226.41    3.99   0
   2   6   5   19.31    2.82   0
   3   6   5   56.78    2.89   0
   4   6   5   22.64    2.96   0
   5   6   5  188.69    4.08   0
   6   6   5   31.98    3.61   0
  -9   7   5   71.48    3.42   0
  -8   7   5   97.40    3.21   0
  -7   7   5  183.95    3.76   0
  -6   7   5    2.31    2.52   0
  -5   7   5  778.92    6.94   0
  -4   7   5  999.98    7.68   0
  -3   7   5  161.56    4.06   0
  -2   7   5  455.92    5.50   0
  -1   7   5  878.31    7.16   0
   0   7   5  237.59    4.28   0
   1   7   5  482.59    5.69   0
   2   7   5    3.94    2.48   0
   3   7   5  275.96    4.17   0
   4   7   5  207.17    4.26   0
   5   7   5  141.83    3.60   0
  -9   8   5    8.64    2.92   0
  -8   8   5  140.17    3.79   0
  -7   8   5   71.14    3.32   0
  -6   8   5   24.48    2.78   0
  -5   8   5  222.75    4.76   0
  -4   8   5    0.19    3.12   0
  -3   8   5   13.11    3.25   0
  -2   8   5  418.57    5.73   0
  -1   8   5   30.80    3.04   0
   0   8   5    2.35    2.94   0
   1   8   5   10.38    2.85   0
   2   8   5   56.80    3.35   0
   3   8   5  122.19    3.34   0
   4   8   5   92.69    3.74   0
   5   8   5   -1.34    2.66   0
  -8   9   5   26.27    3.38   0
  -7   9   5  182.06    4.28   0
  -6   9   5    6.35    3.11   0
  -5   9   5   61.45    3.54   0
  -4   9   5  323.73    5.02   0
  -3   9   5  198.97    4.69   0
  -2   9   5    6.61    3.13   0
  -1   9   5  788.00    6.90   0
   0   9   5    2.95    3.10   0
   1   9   5 1495.24    9.11   0
   2   9   5   17.86    3.11   0
   3   9   5  295.63    4.43   0
   4   9   5  337.91    5.21   0
   5   9   5   67.96    3.20   0
  -8  10   5   14.34    3.46   0
  -7  10   5  216.00    4.97   0
  -6  10   5    5.98    3.35   0
  -5  10   5    2.39    2.91   0
  -4  10   5   10.95    3.32   0
  -3  10   5  181.55    4.57   0
  -2  10   5   40.72    3.57   0
  -1  10   5  117.03    3.63   0
   0  10   5   61.56    3.22   0
   1  10   5  438.73    5.82   0
   2  10   5    6.77    2.77   0
   3  10   5   86.70    3.71   0
   4  10   5   13.03    2.67   0
   5  10   5    6.53    3.41   0
  -8  11   5   46.25    3.49   0
  -7  11   5    9.10    2.83   0
  -6  11   5  289.21    5.40   0
  -5  11   5    4.26    3.34   0
  -4  11   5  145.58    4.18   0
  -3  11   5  189.75    4.44   0
  -2  11   5  646.71    6.60   0
  -1  11   5  101.43    3.93   0
   0  11   5   60.06    3.61   0
   1  11   5   16.43    2.95   0
   2  11   5  133.80    4.23   0
   3  11   5   51.58    3.05   0
   4  11   5   51.75    3.58   0
  -7  12   5    5.57    3.07   0
  -6  12   5   93.38    3.99   0
  -5  12   5    3.51    3.30   0
  -4  12   5  279.17    5.47   0
  -3  12   5   59.04    3.69   0
  -2  12   5   85.69    3.50   0
  -1  12   5  168.08    4.21   0
   0  12   5   58.69    3.41   0
   1  12   5    1.66    3.26   0
   2  12   5   32.15    3.27   0
   3  12   5   -2.40    3.35   0
   4  12   5   10.60    2.77   0
  -7  13   5   90.81    3.79   0
  -6  13   5  155.37    3.71   0
  -5  13   5   59.81    3.45   0
  -4  13   5  490.54    6.47   0
  -3  13   5    3.46    3.10   0
  -2  13   5   63.53    3.47   0
  -1  13   5   76.59    3.55   0
   0  13   5  334.44    5.30   0
   1  13   5   10.42    3.28   0
   2  13   5   62.16    3.70   0
   3  13   5    2.34    3.41   0
   4  13   5   47.76    4.32   0
  -6  14   5   61.57    2.80   0
  -5  14   5  102.68    4.16   0
  -4  14   5    3.00    3.31   0
  -3  14   5   44.57    3.42   0
  -2  14   5   39.09    3.30   0
  -1  14   5  275.35    5.39   0
   0  14   5   38.84    3.58   0
   1  14   5    5.97    3.29   0
   2  14   5   88.28    4.10   0
   3  14   5    1.32    3.09   0
  -6  15   5   76.07    3.85   0
  -5  15   5   33.37    3.40   0
  -4  15   5   -3.72    3.14   0
  -3  15   5   58.49    3.83   0
  -2  15   5  241.14    5.04   0
  -1  15   5  255.47    5.52   0
   0  15   5   93.83    4.14   0
   1  15   5  142.91    4.90   0
   2  15   5  246.20    4.77   0
  -5  16   5   16.30    3.70   0
  -4  16   5   15.50    3.69   0
  -3  16   5   85.91    4.33   0
  -2  16   5   19.01    3.59   0
  -1  16   5   11.40    3.15   0
   0  16   5   63.81    4.17   0
   1  16   5   38.00    4.00   0
   2  16   5   -0.89    2.21   0
  -4  17   5    4.90    3.58   0
  -3  17   5  156.97    4.93   0
  -2  17   5   27.97    3.80   0
  -1  17   5   42.77    3.91   0
   0  17   5    7.79    3.84   0
  -8   0   6  154.65    3.73   0
  -6   0   6   31.54    3.73   0
  -4   0   6  473.74    5.01   0
  -2   0   6  718.23    6.09   0
   0   0   6  584.55    5.56   0
   2   0   6   17.54    3.32   0
   4   0   6  -64.77    5.97   0
  -9   1   6   98.94    3.19   0
  -8   1   6    9.60    2.74   0
  -7   1   6   26.10    2.65   0
  -6   1   6   22.40    3.12   0
  -5   1   6   96.42    3.69   0
  -4   1   6  254.90    3.96   0
  -3   1   6   29.67    2.89   0
  -2   1   6 1011.98    6.83   0
  -1   1   6   79.11    2.67   0
   0   1   6 1161.85    7.28   0
   1   1   6    8.23    3.11   0
   2   1   6    9.15    2.69   0
   3   1   6  314.25    4.48   0
   4   1   6   -4.30    2.39   0
   5   1   6   24.85    3.11   0
  -9   2   6    8.35    3.02   0
  -8   2   6  119.93    3.82   0
  -7   2   6  293.46    4.87   0
  -6   2   6  663.71    6.08   0
  -5   2   6  788.52    6.29   0
  -4   2   6  357.43    4.87   0
  -3   2   6  431.92    4.97   0
  -2   2   6  344.92    4.43   0
  -1   2   6   21.08    2.55   0
   0   2   6    8.77    2.84   0
   1   2   6  174.18    3.60   0
   2   2   6  972.55    6.57   0
   3   2   6    5.96    2.56   0
   4   2   6  220.70    3.63   0
   5   2   6   19.46    2.75   0
  -9   3   6    3.86    2.63   0
  -8   3   6   26.25    3.07   0
  -7   3   6   67.20    3.39   0
  -6   3   6    6.12    2.98   0
  -5   3   6  114.23    3.61   0
  -4   3   6   -0.39    2.71   0
  -3   3   6  713.88    6.36   0
  -2   3   6  162.27    3.80   0
  -1   3   6  148.46    3.64   0
   0   3   6  136.51    3.61   0
   1   3   6   -1.20    2.64   0
   2   3   6   65.40    3.48   0
   3   3   6    2.82    2.95   0
   4   3   6    8.58    2.96   0
   5   3   6  264.68    4.02   0
  -9   4   6   35.40    3.45   0
  -8   4   6    1.34    2.53   0
  -7   4   6  231.54    4.36   0
  -6   4   6    2.43    3.34   0
  -5   4   6 1379.89    8.02   0
  -4   4   6  604.43    6.02   0
  -3   4   6 1191.85    7.65   0
  -2   4   6   34.19    2.85   0
  -1   4   6 1543.14    8.57   0
   0   4   6   87.12    3.17   0
   1   4   6  148.95    3.62   0
   2   4   6  100.41    3.34   0
   3   4   6  465.67    5.23   0
   4   4   6    0.86    2.60   0
   5   4   6  161.99    3.81   0
  -9   5   6  108.01    3.97   0
  -8   5   6   11.47    2.76   0
  -7   5   6    6.69    3.15   0
  -6   5   6    9.12    3.30   0
  -5   5   6   67.39    3.50   0
  -4   5   6  278.34    4.55   0
  -3   5   6   30.59    2.95   0
  -2   5   6  102.05    3.54   0
  -1   5   6 1286.64    7.64   0
   0   5   6   72.05    3.09   0
   1   5   6  115.08    3.19   0
   2   5   6  169.44    3.94   0
   3   5   6   78.65    3.19   0
   4   5   6   12.06    2.51   0
   5   5   6    5.02    3.02   0
  -9   6   6   88.32    4.17   0
  -8   6   6  118.54    4.00   0
  -7   6   6  216.97    4.22   0
  -6   6   6   35.00    3.03   0
  -5   6   6   51.52    3.66   0
  -4   6   6  501.19    5.67   0
  -3   6   6  419.85    5.14   0
  -2   6   6   78.26    3.36   0
  -1   6   6    3.04    2.77   0
   0   6   6 1305.40    7.69   0
   1   6   6   46.73    2.97   0
   2   6   6  135.80    3.59   0
   3   6   6   18.64    2.89   0
   4   6   6  226.62    4.39   0
   5   6   6  251.90    4.55   0
  -9   7   6   30.90    3.73   0
  -8   7   6   12.85    3.17   0
  -7   7   6  147.48    3.80   0
  -6   7   6   55.09    3.03   0
  -5   7   6    1.59    2.79   0
  -4   7   6  702.40    6.43   0
  -3   7   6 1193.17    7.94   0
  -2   7   6  186.26    4.03   0
  -1   7   6  138.99    3.86   0
   0   7   6  119.60    3.76   0
   1   7   6  172.89    4.16   0
   2   7   6    0.59    2.63   0
   3   7   6  138.59    3.19   0
   4   7   6   89.46    3.47   0
   5   7   6    2.44    2.95   0
  -9   8   6    4.09    3.42   0
  -8   8   6   14.38    3.17   0
  -7   8   6    2.69    2.92   0
  -6   8   6 1231.01    8.34   0
  -5   8   6   14.95    3.07   0
  -4   8   6   48.46    3.69   0
  -3   8   6    0.56    2.76   0
  -2   8   6  196.43    4.17   0
  -1   8   6   33.34    2.76   0
   0   8   6   15.91    2.72   0
   1   8   6    3.57    2.97   0
   2   8   6  568.02    5.85   0
   3   8   6   53.99    3.32   0
   4   8   6   54.28    3.09   0
  -8   9   6   33.63    3.40   0
  -7   9   6  538.40    6.06   0
  -6   9   6   33.28    3.35   0
  -5   9   6    1.12    2.84   0
  -4   9   6   81.95    3.77   0
  -3   9   6  156.07    4.27   0
  -2   9   6  109.42    3.84   0
  -1   9   6  184.00    4.07   0
   0   9   6   10.47    2.48   0
   1   9   6   58.11    3.40   0
   2   9   6   96.12    3.58   0
   3   9   6   34.44    3.37   0
   4   9   6   41.57    3.17   0
  -8  10   6  113.66    4.49   0
  -7  10   6    0.11    3.20   0
  -6  10   6   13.82    2.86   0
  -5  10   6    4.03    2.54   0
  -4  10   6 1714.32    9.45   0
  -3  10   6  197.99    4.26   0
  -2  10   6  303.32    4.96   0
  -1  10   6  381.61    5.22   0
   0  10   6  624.27    6.10   0
   1  10   6   37.51    3.31   0
   2  10   6    4.11    2.92   0
   3  10   6    0.94    2.72   0
   4  10   6  115.75    4.25   0
  -8  11   6    2.51    2.90   0
  -7  11   6   24.44    3.43   0
  -6  11   6   19.78    3.29   0
  -5  11   6   57.89    3.37   0
  -4  11   6    3.02    3.08   0
  -3  11   6  173.75    4.39   0
  -2  11   6   40.09    3.37   0
  -1  11   6  370.55    5.23   0
   0  11   6    2.41    3.03   0
   1  11   6   23.00    3.04   0
   2  11   6    3.14    2.62   0
   3  11   6   90.55    3.68   0
   4  11   6    2.93    2.79   0
  -7  12   6  147.20    4.59   0
  -6  12   6  177.60    4.52   0
  -5  12   6  192.07    4.53   0
  -4  12   6    9.57    3.22   0
  -3  12   6   83.92    3.69   0
  -2  12   6  182.24    4.34   0
  -1  12   6  283.37    4.78   0
   0  12   6  164.45    3.97   0
   1  12   6  320.19    5.40   0
   2  12   6    1.09    3.25   0
   3  12   6  420.85    6.03   0
  -7  13   6   40.77    3.75   0
  -6  13   6    1.44    3.48   0
  -5  13   6    7.41    3.02   0
  -4  13   6    1.44    3.16   0
  -3  13   6  500.01    6.17   0
  -2  13   6    0.29    2.94   0
  -1  13   6    0.54    3.00   0
   0  13   6  107.10    3.89   0
   1  13   6  115.83    4.10   0
   2  13   6   19.21    3.35   0
   3  13   6   -1.54    3.11   0
  -6  14   6  119.82    4.13   0
  -5  14   6   67.80    3.61   0
  -4  14   6   -2.11    3.45   0
  -3  14   6   94.74    3.97   0
  -2  14   6  224.31    4.98   0
  -1  14   6    9.87    3.05   0
   0  14   6    3.37    3.07   0
   1  14   6  195.40    5.03   0
   2  14   6    5.10    4.89   0
  -5  15   6   64.76    3.46   0
  -4  15   6    1.00    2.99   0
  -3  15   6    2.97    3.10   0
  -2  15   6    6.04    3.08   0
  -1  15   6  113.78    4.14   0
   0  15   6  106.42    4.22   0
   1  15   6   -1.56    3.47   0
  -4  16   6  159.97    4.71   0
  -3  16   6    2.74    3.29   0
  -2  16   6   99.39    4.28   0
  -1  16   6    2.86    3.43   0
   0  16   6  146.63    4.90   0
  -9   0   7   -0.57    3.16   0
  -7   0   7  333.22    4.37   0
  -5   0   7   72.66    3.27   0
  -3   0   7    4.29    2.64   0
  -1   0   7    3.80    3.01   0
   1   0   7  342.53    4.62   0
   3   0   7   73.60    3.20   0
   5   0   7   84.18    3.89   0
  -9   1   7  126.99    3.62   0
  -8   1   7    3.31    2.47   0
  -7   1   7  407.44    4.90   0
  -6   1   7  185.62    4.35   0
  -5   1   7  140.98    3.97   0
  -4   1   7  235.80    4.15   0
  -3   1   7  427.39    5.03   0
  -2   1   7  211.73    3.74   0
  -1   1   7  900.32    6.32   0
   0   1   7   47.59    2.96   0
   1   1   7  456.85    4.51   0
   2   1   7  276.99    4.34   0
   3   1   7  116.76    3.54   0
   4   1   7   43.30    3.12   0
   5   1   7   54.54    3.03   0
  -9   2   7  181.73    4.04   0
  -8   2   7    8.52    2.81   0
  -7   2   7  252.91    4.27   0
  -6   2   7   29.18    2.93   0
  -5   2   7  701.33    6.09   0
  -4   2   7  165.74    3.83   0
  -3   2   7    0.77    2.58   0
  -2   2   7  184.02    3.43   0
  -1   2   7   22.20    2.70   0
   0   2   7   50.84    2.90   0
   1   2   7   12.87    2.60   0
   2   2   7   82.77    3.06   0
   3   2   7  125.51    3.14   0
   4   2   7   94.45    3.55   0
  -9   3   7   60.82    3.16   0
  -8   3   7  349.18    4.78   0
  -7   3   7   -1.39    2.91   0
  -6   3   7    4.59    3.27   0
  -5   3   7   68.58    3.44   0
  -4   3   7   23.61    3.17   0
  -3   3   7   53.24    2.90   0
  -2   3   7   63.54    3.25   0
  -1   3   7    6.03    2.87   0
   0   3   7  615.61    5.35   0
   1   3   7   64.45    3.10   0
   2   3   7  591.53    5.48   0
   3   3   7   45.65    2.57   0
   4   3   7  294.79    4.74   0
  -9   4   7   21.41    3.09   0
  -8   4   7   36.05    3.21   0
  -7   4   7   20.86    2.66   0
  -6   4   7  413.22    5.09   0
  -5   4   7  201.49    4.27   0
  -4   4   7  118.28    3.59   0
  -3   4   7  324.09    4.53   0
  -2   4   7  243.79    3.98   0
  -1   4   7   11.68    2.93   0
   0   4   7  129.92    3.48   0
   1   4   7   36.70    3.13   0
   2   4   7   92.62    3.42   0
   3   4   7    5.77    2.51   0
   4   4   7   13.99    3.41   0
  -9   5   7   10.31    3.14   0
  -8   5   7   49.79    3.17   0
  -7   5   7    2.84    2.67   0
  -6   5   7  384.74    5.17   0
  -5   5   7  122.73    4.00   0
  -4   5   7    8.54    3.38   0
  -3   5   7   29.33    3.46   0
  -2   5   7  942.04    6.57   0
  -1   5   7   77.27    3.11   0
   0   5   7  170.28    3.70   0
   1   5   7   68.62    3.45   0
   2   5   7  276.14    4.27   0
   3   5   7   84.13    3.04   0
   4   5   7    6.75    3.00   0
  -9   6   7   -0.19    2.89   0
  -8   6   7  157.07    3.96   0
  -7   6   7  163.77    3.72   0
  -6   6   7  166.02    3.82   0
  -5   6   7   10.16    2.98   0
  -4   6   7   57.33    3.49   0
  -3   6   7  416.04    4.97   0
  -2   6   7  156.05    3.54   0
  -1   6   7    2.85    3.15   0
   0   6   7   33.81    3.01   0
   1   6   7  149.89    3.58   0
   2   6   7  155.80    3.41   0
   3   6   7   21.25    3.07   0
   4   6   7   47.44    3.20   0
  -9   7   7   15.36    3.40   0
  -8   7   7  301.05    4.87   0
  -7   7   7  221.99    4.10   0
  -6   7   7    1.16    2.99   0
  -5   7   7  233.98    4.31   0
  -4   7   7  216.32    4.09   0
  -3   7   7  482.58    5.36   0
  -2   7   7    3.39    2.91   0
  -1   7   7  163.33    3.67   0
   0   7   7 1113.13    7.31   0
   1   7   7  411.05    5.02   0
   2   7   7   10.47    2.42   0
   3   7   7   95.16    4.45   0
   4   7   7   90.74    3.76   0
  -8   8   7   10.70    3.43   0
  -7   8   7    3.42    3.03   0
  -6   8   7   96.45    3.62   0
  -5   8   7  343.25    4.74   0
  -4   8   7    6.29    2.54   0
  -3   8   7    0.36    2.64   0
  -2   8   7    2.31    2.55   0
  -1   8   7  299.13    4.53   0
   0   8   7   55.25    3.01   0
   1   8   7   58.41    2.98   0
   2   8   7   -0.64    3.09   0
   3   8   7  113.76    5.62   0
   4   8   7   -2.02    3.24   0
  -8   9   7  130.65    4.36   0
  -7   9   7   96.65    3.83   0
  -6   9   7   38.92    3.14   0
  -5   9   7  223.93    4.69   0
  -4   9   7  139.27    3.75   0
  -3   9   7  132.42    3.81   0
  -2   9   7   15.08    3.12   0
  -1   9   7  182.64    4.22   0
   0   9   7  516.03    5.43   0
   1   9   7  220.22    4.13   0
   2   9   7    9.32    2.95   0
   3   9   7   52.15    4.54   0
  -8  10   7   -0.31    3.09   0
  -7  10   7  130.34    4.09   0
  -6  10   7    5.77    2.61   0
  -5  10   7    1.79    3.00   0
  -4  10   7    1.34    2.79   0
  -3  10   7  462.74    5.39   0
  -2  10   7   61.21    3.50   0
  -1  10   7   -0.61    2.92   0
   0  10   7  170.24    3.79   0
   1  10   7  391.77    5.11   0
   2  10   7   84.98    3.65   0
   3  10   7    2.48    2.79   0
  -7  11   7   22.40    3.22   0
  -6  11   7  316.02    5.46   0
  -5  11   7   39.90    3.19   0
  -4  11   7   22.37    2.94   0
  -3  11   7   48.64    3.31   0
  -2  11   7  656.63    6.43   0
  -1  11   7   36.35    2.99   0
   0  11   7   10.25    2.58   0
   1  11   7  144.93    4.17   0
   2  11   7   64.78    3.62   0
  -7  12   7    1.01    3.37   0
  -6  12   7  224.01    4.87   0
  -5  12   7  135.75    4.18   0
  -4  12   7  101.07    3.78   0
  -3  12   7  226.27    4.59   0
  -2  12   7   16.28    2.95   0
  -1  12   7   11.93    3.08   0
   0  12   7    3.51    2.93   0
   1  12   7    8.47    3.02   0
   2  12   7   -0.60    3.17   0
  -6  13   7   39.56    3.81   0
  -5  13   7   10.67    3.26   0
  -4  13   7  427.49    6.15   0
  -3  13   7    3.65    3.01   0
  -2  13   7   13.76    3.08   0
  -1  13   7   11.52    2.69   0
   0  13   7  255.57    5.14   0
   1  13   7   -1.32    3.34   0
  -5  14   7   36.61    3.61   0
  -4  14   7   53.08    3.47   0
  -3  14   7    4.86    3.16   0
  -2  14   7   41.66    3.37   0
  -1  14   7  105.97    4.02   0
   0  14   7    5.66    3.31   0
   1  14   7    0.26    3.26   0
  -4  15   7   24.95    3.76   0
  -3  15   7  137.64    4.71   0
  -2  15   7   95.25    4.15   0
  -1  15   7  122.08    4.50   0
   0  15   7    8.63    3.27   0
  -8   0   8  363.97    4.92   0
  -6   0   8    1.63    3.10   0
  -4   0   8  317.71    4.33   0
  -2   0   8    9.98    2.63   0
   0   0   8  399.85    4.48   0
   2   0   8    7.33    2.85   0
   4   0   8   99.03    4.20   0
  -9   1   8  156.77    3.81   0
  -8   1   8   11.43    2.95   0
  -7   1   8   31.37    2.80   0
  -6   1   8   40.91    3.17   0
  -5   1   8  310.76    4.62   0
  -4   1   8   19.69    3.17   0
  -3   1   8    1.98    2.65   0
  -2   1   8  212.04    3.93   0
  -1   1   8  264.76    4.12   0
   0   1   8  378.59    4.81   0
   1   1   8  187.18    3.85   0
   2   1   8  236.94    3.99   0
   3   1   8    5.55    2.49   0
   4   1   8    4.83    2.45   0
  -9   2   8    1.99    2.89   0
  -8   2   8    7.99    3.10   0
  -7   2   8    2.98    2.43   0
  -6   2   8  271.50    4.32   0
  -5   2   8  290.80    4.06   0
  -4   2   8   19.86    2.96   0
  -3   2   8  332.05    4.32   0
  -2   2   8 1036.47    6.62   0
  -1   2   8  135.30    3.27   0
   0   2   8  140.74    3.57   0
   1   2   8    3.63    2.52   0
   2   2   8  220.06    4.10   0
   3   2   8   38.96    2.65   0
  -9   3   8   32.91    3.28   0
  -8   3   8   17.91    3.08   0
  -7   3   8  353.46    5.00   0
  -6   3   8   39.77    3.13   0
  -5   3   8   42.21    2.90   0
  -4   3   8   54.32    3.06   0
  -3   3   8  242.22    4.25   0
  -2   3   8   78.67    3.47   0
  -1   3   8    5.14    2.81   0
   0   3   8  214.59    3.75   0
   1   3   8  241.32    3.77   0
   2   3   8   -1.08    2.54   0
   3   3   8   23.65    2.69   0
  -9   4   8   26.11    3.27   0
  -8   4   8    4.37    3.06   0
  -7   4   8  259.94    4.50   0
  -6   4   8    7.55    2.88   0
  -5   4   8  309.31    4.45   0
  -4   4   8  610.40    5.57   0
  -3   4   8 1246.16    7.69   0
  -2   4   8   28.87    2.73   0
  -1   4   8  322.29    4.24   0
   0   4   8   11.47    2.51   0
   1   4   8  323.82    4.42   0
   2   4   8  102.15    3.46   0
   3   4   8   21.83    2.71   0
  -9   5   8   42.10    3.23   0
  -8   5   8   10.44    2.78   0
  -7   5   8    2.31    2.78   0
  -6   5   8   17.15    2.89   0
  -5   5   8  343.08    4.74   0
  -4   5   8  104.33    3.55   0
  -3   5   8   30.63    3.12   0
  -2   5   8    2.71    2.61   0
  -1   5   8  587.66    5.13   0
   0   5   8  245.01    4.05   0
   1   5   8   38.93    2.80   0
   2   5   8   22.18    3.16   0
   3   5   8   94.64    3.64   0
  -8   6   8  169.02    4.13   0
  -7   6   8    7.13    2.70   0
  -6   6   8   54.49    3.02   0
  -5   6   8   38.03    2.73   0
  -4   6   8  283.84    4.20   0
  -3   6   8    1.17    2.74   0
  -2   6   8    8.58    2.85   0
  -1   6   8  433.08    5.07   0
   0   6   8  187.17    3.95   0
   1   6   8   30.75    2.49   0
   2   6   8    5.87    2.68   0
   3   6   8   14.87    3.15   0
  -8   7   8   54.39    3.28   0
  -7   7   8   22.29    3.28   0
  -6   7   8   53.59    3.41   0
  -5   7   8   33.31    3.26   0
  -4   7   8    4.21    2.91   0
  -3   7   8   21.78    2.67   0
  -2   7   8  278.36    4.15   0
  -1   7   8    1.31    2.62   0
   0   7   8   39.44    2.62   0
   1   7   8  400.65    4.98   0
   2   7   8   60.91    3.43   0
   3   7   8    1.08    3.02   0
  -8   8   8    2.86    3.16   0
  -7   8   8    3.08    3.16   0
  -6   8   8   31.52    3.16   0
  -5   8   8    1.52    2.66   0
  -4   8   8   94.46    3.62   0
  -3   8   8   39.20    2.70   0
  -2   8   8  484.24    5.38   0
  -1   8   8   11.81    2.79   0
   0   8   8    2.55    2.60   0
   1   8   8    6.25    2.99   0
   2   8   8  202.04    4.11   0
  -8   9   8   53.64    3.63   0
  -7   9   8  121.98    4.02   0
  -6   9   8   23.14    3.01   0
  -5   9   8   24.04    2.76   0
  -4   9   8  104.15    3.62   0
  -3   9   8    0.28    2.93   0
  -2   9   8  152.73    3.63   0
  -1   9   8  252.65    4.10   0
   0   9   8   71.83    3.49   0
   1   9   8   29.72    3.18   0
   2   9   8    0.21    2.79   0
  -7  10   8   77.04    3.73   0
  -6  10   8  136.53    3.77   0
  -5  10   8   25.68    3.07   0
  -4  10   8  553.23    6.08   0
  -3  10   8    0.37    2.76   0
  -2  10   8  171.79    4.12   0
  -1  10   8   35.40    3.19   0
   0  10   8  187.45    4.24   0
   1  10   8   49.72    3.43   0
   2  10   8   -0.59    2.85   0
  -7  11   8    0.57    3.02   0
  -6  11   8   24.37    3.58   0
  -5  11   8  132.34    4.09   0
  -4  11   8    9.85    3.05   0
  -3  11   8   29.26    3.34   0
  -2  11   8    3.95    2.76   0
  -1  11   8  122.99    4.04   0
   0  11   8   40.96    3.10   0
   1  11   8    5.23    3.21   0
  -6  12   8    1.35    3.27   0
  -5  12   8   35.11    3.48   0
  -4  12   8   12.43    3.07   0
  -3  12   8  141.91    3.88   0
  -2  12   8   86.74    3.68   0
  -1  12   8  105.21    3.64   0
   0  12   8    4.19    3.22   0
   1  12   8  164.08    4.47   0
  -5  13   8   -1.56    3.48   0
  -4  13   8    3.44    3.26   0
  -3  13   8  100.02    3.91   0
  -2  13   8    5.75    2.77   0
  -1  13   8   56.76    3.68   0
   0  13   8    1.62    2.86   0
  -4  14   8    0.56    3.39   0
  -3  14   8   12.50    3.14   0
  -2  14   8   50.83    3.44   0
  -7   0   9  502.75    5.69   0
  -5   0   9  299.15    4.28   0
  -3   0   9 1124.74    6.90   0
  -1   0   9  177.97    3.59   0
   1   0   9  142.77    3.49   0
  -8   1   9   10.09    2.84   0
  -7   1   9  205.26    4.21   0
  -6   1   9  296.37    4.50   0
  -5   1   9  316.62    4.23   0
  -4   1   9   61.63    3.00   0
  -3   1   9   93.22    3.21   0
  -2   1   9  210.12    3.85   0
  -1   1   9  123.65    3.63   0
   0   1   9   87.84    3.25   0
   1   1   9  198.97    4.06   0
   2   1   9  156.02    3.96   0
  -8   2   9    3.81    2.79   0
  -7   2   9    0.78    3.11   0
  -6   2   9   11.55    2.87   0
  -5   2   9  311.60    4.37   0
  -4   2   9   10.17    2.33   0
  -3   2   9   14.21    2.32   0
  -2   2   9  258.44    4.14   0
  -1   2   9  296.37    4.20   0
   0   2   9  284.93    4.04   0
   1   2   9   33.64    2.53   0
   2   2   9   16.11    2.89   0
  -8   3   9  149.82    3.65   0
  -7   3   9   22.15    2.73   0
  -6   3   9    8.49    2.63   0
  -5   3   9    0.49    2.73   0
  -4   3   9  335.41    4.63   0
  -3   3   9   -0.34    2.37   0
  -2   3   9    0.15    2.46   0
  -1   3   9    0.41    2.43   0
   0   3   9  216.21    4.11   0
   1   3   9    0.36    2.42   0
   2   3   9   -0.39    2.91   0
  -8   4   9   69.24    3.47   0
  -7   4   9   50.36    3.14   0
  -6   4   9   59.00    3.05   0
  -5   4   9   56.33    2.87   0
  -4   4   9  196.05    3.93   0
  -3   4   9  133.04    3.58   0
  -2   4   9   84.11    3.13   0
  -1   4   9   13.07    2.69   0
   0   4   9    8.61    2.32   0
   1   4   9   20.96    2.97   0
   2   4   9   27.27    2.92   0
  -8   5   9   79.45    3.51   0
  -7   5   9   10.16    2.79   0
  -6   5   9  445.60    5.50   0
  -5   5   9    1.48    3.06   0
  -4   5   9    5.54    2.62   0
  -3   5   9    1.77    2.40   0
  -2   5   9   28.02    2.95   0
  -1   5   9   24.05    2.74   0
   0   5   9   21.18    2.60   0
   1   5   9    4.00    2.49   0
   2   5   9  292.20    4.77   0
  -8   6   9    1.89    2.99   0
  -7   6   9  146.24    4.02   0
  -6   6   9  180.47    4.10   0
  -5   6   9   39.15    3.10   0
  -4   6   9  234.99    4.15   0
  -3   6   9  125.73    3.74   0
  -2   6   9   48.42    3.00   0
  -1   6   9   21.53    2.89   0
   0   6   9   16.58    2.58   0
   1   6   9    2.14    2.64   0
   2   6   9   44.21    3.33   0
  -8   7   9   38.03    3.82   0
  -7   7   9   15.39    3.08   0
  -6   7   9   65.12    3.20   0
  -5   7   9  182.66    3.80   0
  -4   7   9  194.57    4.00   0
  -3   7   9  283.88    4.36   0
  -2   7   9   19.90    2.99   0
  -1   7   9  186.32    3.83   0
   0   7   9  133.27    3.69   0
   1   7   9   44.29    3.12   0
  -7   8   9    9.83    3.07   0
  -6   8   9   47.55    3.48   0
  -5   8   9   28.67    3.18   0
  -4   8   9   77.76    3.29   0
  -3   8   9   85.55    3.39   0
  -2   8   9    0.05    2.79   0
  -1   8   9  418.56    5.11   0
   0   8   9   37.59    3.12   0
   1   8   9   82.91    3.78   0
  -7   9   9   96.57    4.18   0
  -6   9   9    8.36    3.12   0
  -5   9   9   37.69    2.80   0
  -4   9   9   35.20    3.07   0
  -3   9   9   41.63    3.04   0
  -2   9   9   10.98    2.97   0
  -1   9   9   11.56    2.91   0
   0   9   9   65.29    3.39   0
   1   9   9   44.70    3.57   0
  -6  10   9   35.30    3.25   0
  -5  10   9   64.11    3.65   0
  -4  10   9   78.83    3.18   0
  -3  10   9   85.85    3.46   0
  -2  10   9    2.17    3.01   0
  -1  10   9    4.74    2.82   0
   0  10   9   12.64    3.29   0
  -6  11   9   86.79    4.16   0
  -5  11   9    5.66    2.81   0
  -4  11   9    7.37    3.00   0
  -3  11   9    7.85    2.66   0
  -2  11   9   21.95    3.40   0
  -1  11   9    6.62    3.18   0
  -5  12   9   31.80    4.00   0
  -4  12   9   18.62    3.38   0
  -3  12   9    1.99    3.23   0
  -2  12   9   21.83    2.97   0
  -8   0  10   37.93    2.96   0
  -6   0  10   -1.58    3.19   0
  -4   0  10   30.89    3.10   0
  -2   0  10   11.97    3.02   0
   0   0  10  401.01    4.91   0
  -8   1  10   39.12    3.33   0
  -7   1  10   42.41    2.90   0
  -6   1  10    4.15    2.84   0
  -5   1  10   47.91    2.91   0
  -4   1  10   45.55    2.63   0
  -3   1  10  133.51    3.70   0
  -2   1  10   37.59    2.82   0
  -1   1  10   19.61    2.67   0
   0   1  10   94.43    3.46   0
   1   1  10   37.68    2.67   0
  -8   2  10    5.50    2.92   0
  -7   2  10    1.92    2.52   0
  -6   2  10  125.64    3.58   0
  -5   2  10    1.83    2.73   0
  -4   2  10   25.70    2.92   0
  -3   2  10  247.72    3.79   0
  -2   2  10  272.76    4.16   0
  -1   2  10  136.68    3.59   0
   0   2  10   -0.70    2.86   0
   1   2  10   23.00    2.97   0
  -8   3  10   22.11    3.46   0
  -7   3  10  167.56    4.05   0
  -6   3  10  107.28    3.69   0
  -5   3  10   13.56    2.84   0
  -4   3  10    6.62    2.78   0
  -3   3  10  215.56    3.79   0
  -2   3  10   54.79    3.17   0
  -1   3  10   62.80    3.14   0
   0   3  10   44.04    2.92   0
   1   3  10  209.38    4.30   0
  -7   4  10   13.20    2.67   0
  -6   4  10  117.03    3.62   0
  -5   4  10  143.05    3.83   0
  -4   4  10    4.43    2.98   0
  -3   4  10   52.15    3.09   0
  -2   4  10   15.16    2.87   0
  -1   4  10  334.68    4.70   0
   0   4  10   94.73    3.32   0
   1   4  10   45.65    3.33   0
  -7   5  10   39.09    3.19   0
  -6   5  10   17.30    3.14   0
  -5   5  10  187.44    4.25   0
  -4   5  10   -1.56    2.90   0
  -3   5  10    2.95    2.62   0
  -2   5  10   98.14    3.20   0
  -1   5  10   69.83    3.00   0
   0   5  10    2.27    2.76   0
  -7   6  10   32.58    3.29   0
  -6   6  10    2.25    2.47   0
  -5   6  10    2.33    2.55   0
  -4   6  10   29.25    3.12   0
  -3   6  10   44.06    2.87   0
  -2   6  10    1.67    2.71   0
  -1   6  10    3.86    2.64   0
   0   6  10   89.15    3.49   0
  -6   7  10    0.27    2.77   0
  -5   7  10   40.05    3.04   0
  -4   7  10   32.40    2.93   0
  -3   7  10   37.93    2.88   0
  -2   7  10   15.19    3.12   0
  -1   7  10   -0.82    2.93   0
   0   7  10  153.99    4.10   0
  -6   8  10   54.18    3.24   0
  -5   8  10   -0.28    2.84   0
  -4   8  10   19.03    2.77   0
  -3   8  10   12.95    3.04   0
  -2   8  10  265.31    4.66   0
  -1   8  10   21.90    3.25   0
  -5   9  10    2.50    2.48   0
  -4   9  10    8.97    2.87   0
  -3   9  10  101.03    3.69   0
  -2   9  10   19.14    3.35   0
  -4  10  10  104.18    3.69   0
  -3  10  10   -0.24    2.96   0
  -5   0  11   90.36    3.76   0
  -3   0  11  292.35    4.58   0
  -1   0  11  112.47    3.34   0
  -6   1  11    3.82    3.23   0
  -5   1  11  146.41    3.91   0
  -4   1  11    1.88    2.60   0
  -3   1  11  101.35    3.46   0
  -2   1  11   38.24    2.78   0
  -1   1  11   23.00    3.10   0
  -6   2  11   33.68    3.12   0
  -5   2  11   62.49    3.57   0
  -4   2  11   17.47    2.94   0
  -3   2  11   72.64    3.14   0
  -2   2  11   59.71    3.24   0
  -1   2  11   52.79    3.26   0
  -6   3  11   46.46    3.26   0
  -5   3  11    4.14    2.53   0
  -4   3  11   29.81    3.17   0
  -3   3  11   14.24    2.79   0
  -2   3  11    0.91    2.88   0
  -1   3  11    4.58    2.75   0
  -6   4  11    4.34    2.72   0
  -5   4  11   27.57    2.81   0
  -4   4  11   38.00    3.07   0
  -3   4  11    1.81    2.75   0
  -2   4  11   35.34    3.08   0
  -5   5  11    4.94    3.20   0
  -4   5  11   43.60    3.18   0
  -3   5  11   36.52    3.23   0
  -2   5  11  103.55    3.42   0
  -5   6  11    1.44    2.82   0
  -4   6  11  169.55    4.08   0
  -3   6  11   46.35    2.92   0
;
_shelx_res_checksum              61322
_shelxl_version_number           .000002012
#END Tags that were not found in dictionaries
loop_
_space_group_symop_operation_xyz
'x, y, z'
'-x+1/2, y+1/2, -z+1/2'
'-x, -y, -z'
'x-1/2, -y-1/2, z-1/2'
loop_
_atom_site_type_symbol
_atom_site_label
_atom_site_fract_x
_atom_site_fract_y
_atom_site_fract_z
_atom_site_U_iso_or_equiv
_atom_site_adp_type
_atom_site_calc_flag
_atom_site_occupancy
Cl Cl1 0.24946(6) 0.19019(3) 0.01260(6) 0.0273(2) Uani d 1
Mg Mg1 0.0000 0.0000 0.5000 0.0204(3) Uani d 1
O O5 0.3377(2) 0.98878(10) 0.19001(19) 0.0287(3) Uani d 1
O O3 0.8420(2) 0.29031(12) 0.9073(2) 0.0323(4) Uani d 1
O O2 -0.1147(2) 0.12266(10) 0.37546(17) 0.0299(4) Uani d 1
O O4 0.6795(2) 0.15162(11) 0.03240(19) 0.0312(4) Uani d 1
O O1 -0.0221(2) 0.04993(11) 0.71709(18) 0.0304(4) Uani d 1
O O6 0.2781(2) 0.05679(10) 0.57454(18) 0.0294(4) Uani d 1
H H1B -0.115(4) 0.037(2) 0.747(4) 0.049(8) Uiso d 1
H H4A 0.724(5) 0.1927(18) -0.012(4) 0.055(11) Uiso d 1
H H4B 0.566(2) 0.1625(19) 0.030(4) 0.032(7) Uiso d 1
H H5B 0.325(5) 0.951(2) 0.112(3) 0.059(10) Uiso d 1
H H3A 0.959(2) 0.271(2) 0.941(4) 0.049(8) Uiso d 1
H H6B 0.305(5) 0.1014(15) 0.524(4) 0.044(8) Uiso d 1
H H2B -0.152(5) 0.1647(18) 0.424(4) 0.053(9) Uiso d 1
H H5A 0.313(5) 1.0418(12) 0.145(4) 0.049(9) Uiso d 1
H H1A 0.056(4) 0.0846(19) 0.792(3) 0.043(8) Uiso d 1
H H6A 0.385(3) 0.034(2) 0.642(3) 0.048(8) Uiso d 1
H H3B 0.796(8) 0.292(4) 0.8004(13) 0.100(17) Uiso d 1
H H2A -0.177(5) 0.127(3) 0.2699(14) 0.069(11) Uiso d 1
loop_
_atom_site_aniso_label
_atom_site_aniso_U_11
_atom_site_aniso_U_22
_atom_site_aniso_U_33
_atom_site_aniso_U_12
_atom_site_aniso_U_13
_atom_site_aniso_U_23
Cl1 0.0247(3) 0.0254(3) 0.0284(3) -0.00034(15) 0.0071(2) 0.00013(15)
Mg1 0.0190(4) 0.0206(5) 0.0193(4) -0.0011(3) 0.0051(3) -0.0012(3)
O5 0.0277(7) 0.0276(7) 0.0285(7) 0.0017(5) 0.0088(6) 0.0016(6)
O3 0.0305(8) 0.0340(8) 0.0323(8) 0.0085(6) 0.0122(6) 0.0027(6)
O2 0.0366(8) 0.0247(7) 0.0244(7) 0.0059(6) 0.0080(5) 0.0013(5)
O4 0.0274(7) 0.0347(8) 0.0312(7) 0.0058(6) 0.0112(6) 0.0042(6)
O1 0.0284(7) 0.0374(8) 0.0268(7) -0.0093(6) 0.0123(5) -0.0117(6)
O6 0.0201(6) 0.0311(8) 0.0306(7) -0.0052(5) 0.0033(5) 0.0042(6)
loop_
_atom_type_symbol
_atom_type_description
_atom_type_scat_dispersion_real
_atom_type_scat_dispersion_imag
_atom_type_scat_source
Mg Mg 0.0486 0.0363 'International Tables Vol C Tables 4.2.6.8 and 6.1.1.4'
Cl Cl 0.1484 0.1585 'International Tables Vol C Tables 4.2.6.8 and 6.1.1.4'
O O 0.0106 0.0060 'International Tables Vol C Tables 4.2.6.8 and 6.1.1.4'
H H 0.0000 0.0000 'International Tables Vol C Tables 4.2.6.8 and 6.1.1.4'
loop_
_geom_angle_atom_site_label_1
_geom_angle_atom_site_label_2
_geom_angle_atom_site_label_3
_geom_angle_site_symmetry_1
_geom_angle_site_symmetry_3
_geom_angle
O6 Mg1 O6 . 3_556 180.0
O6 Mg1 O1 . . 90.33(6)
O6 Mg1 O1 3_556 . 89.67(6)
O6 Mg1 O1 . 3_556 89.66(6)
O6 Mg1 O1 3_556 3_556 90.33(6)
O1 Mg1 O1 . 3_556 180.0
O6 Mg1 O2 . . 88.30(6)
O6 Mg1 O2 3_556 . 91.70(6)
O1 Mg1 O2 . . 90.28(6)
O1 Mg1 O2 3_556 . 89.72(6)
O6 Mg1 O2 . 3_556 91.70(6)
O6 Mg1 O2 3_556 3_556 88.30(6)
O1 Mg1 O2 . 3_556 89.72(6)
O1 Mg1 O2 3_556 3_556 90.28(6)
O2 Mg1 O2 . 3_556 180.0
loop_
_geom_bond_atom_site_label_1
_geom_bond_atom_site_label_2
_geom_bond_site_symmetry_2
_geom_bond_distance
Mg1 O6 . 2.0533(14)
Mg1 O6 3_556 2.0533(14)
Mg1 O1 . 2.0605(15)
Mg1 O1 3_556 2.0605(15)
Mg1 O2 . 2.0644(15)
Mg1 O2 3_556 2.0644(15)
loop_
_geom_hbond_atom_site_label_D
_geom_hbond_atom_site_label_H
_geom_hbond_atom_site_label_A
_geom_hbond_site_symmetry_A
_geom_hbond_distance_DH
_geom_hbond_distance_HA
_geom_hbond_distance_DA
_geom_hbond_angle_DHA
O2 H2A O4 1_455 0.837(10) 1.918(12) 2.751(2) 173(4)
O3 H3B Cl1 4_666 0.841(10) 2.365(17) 3.186(2) 165(5)
O6 H6A O5 3_666 0.834(10) 1.999(13) 2.818(2) 167(3)
O1 H1A Cl1 1_556 0.835(10) 2.404(11) 3.2349(16) 173(3)
O5 H5A Cl1 1_565 0.841(10) 2.381(10) 3.2220(16) 178(3)
O2 H2B Cl1 4_566 0.839(10) 2.433(13) 3.2548(16) 166(3)
O6 H6B O3 4_565 0.838(10) 1.934(11) 2.770(2) 174(3)
O3 H3A Cl1 1_656 0.836(10) 2.293(12) 3.1173(17) 169(3)
O5 H5B O4 3_665 0.841(10) 1.918(12) 2.749(2) 169(4)
O4 H4B Cl1 . 0.839(10) 2.308(10) 3.1468(17) 178(3)
O4 H4A O3 1_554 0.837(10) 1.921(11) 2.755(2) 175(4)
O1 H1B O5 3_566 0.840(10) 1.952(10) 2.792(2) 178(4)
O2 H2A O4 1_455 0.837(10) 1.918(12) 2.751(2) 173(4)
O3 H3B Cl1 4_666 0.841(10) 2.365(17) 3.186(2) 165(5)
O6 H6A O5 3_666 0.834(10) 1.999(13) 2.818(2) 167(3)
O1 H1A Cl1 1_556 0.835(10) 2.404(11) 3.2349(16) 173(3)
O5 H5A Cl1 1_565 0.841(10) 2.381(10) 3.2220(16) 178(3)
O2 H2B Cl1 4_566 0.839(10) 2.433(13) 3.2548(16) 166(3)
O6 H6B O3 4_565 0.838(10) 1.934(11) 2.770(2) 174(3)
O3 H3A Cl1 1_656 0.836(10) 2.293(12) 3.1173(17) 169(3)
O5 H5B O4 3_665 0.841(10) 1.918(12) 2.749(2) 169(4)
O4 H4B Cl1 . 0.839(10) 2.308(10) 3.1468(17) 178(3)
O4 H4A O3 1_554 0.837(10) 1.921(11) 2.755(2) 175(4)
O1 H1B O5 3_566 0.840(10) 1.952(10) 2.792(2) 178(4)
O1 H1B O5 3_566 0.840(10) 1.952(10) 2.792(2) 178(4)
O4 H4A O3 1_554 0.837(10) 1.921(11) 2.755(2) 175(4)
O4 H4B Cl1 . 0.839(10) 2.308(10) 3.1468(17) 178(3)
O5 H5B O4 3_665 0.841(10) 1.918(12) 2.749(2) 169(4)
O3 H3A Cl1 1_656 0.836(10) 2.293(12) 3.1173(17) 169(3)
O6 H6B O3 4_565 0.838(10) 1.934(11) 2.770(2) 174(3)
O2 H2B Cl1 4_566 0.839(10) 2.433(13) 3.2548(16) 166(3)
O5 H5A Cl1 1_565 0.841(10) 2.381(10) 3.2220(16) 178(3)
O1 H1A Cl1 1_556 0.835(10) 2.404(11) 3.2349(16) 173(3)
O6 H6A O5 3_666 0.834(10) 1.999(13) 2.818(2) 167(3)
O3 H3B Cl1 4_666 0.841(10) 2.365(17) 3.186(2) 165(5)
O2 H2A O4 1_455 0.837(10) 1.918(12) 2.751(2) 173(4)
