#------------------------------------------------------------------------------
#$Date: 2016-02-20 00:18:51 +0200 (Sat, 20 Feb 2016) $
#$Revision: 176760 $
#$URL: svn://www.crystallography.net/cod/cif/2/01/92/2019274.cif $
#------------------------------------------------------------------------------
#
# This file is available in the Crystallography Open Database (COD),
# http://www.crystallography.net/. The original data for this entry
# were provided by IUCr Journals, http://journals.iucr.org/.
#
# The file may be used within the scientific community so long as
# proper attribution is given to the journal article from which the
# data were obtained.
#
data_2019274
loop_
_publ_author_name
'Hennings, Erik'
'Schmidt, Horst'
'Voigt, Wolfgang'
_publ_section_title
;
 Crystal structures of hydrates of simple inorganic salts. I. Water-rich
 magnesium halide hydrates MgCl~2~&#x00B7;8H~2~O, MgCl~2~&#x00B7;12H~2~O,
 MgBr~2~&#x00B7;6H~2~O, MgBr~2~&#x00B7;9H~2~O, MgI~2~&#x00B7;8H~2~O and
 MgI~2~&#x00B7;9H~2~O
;
_journal_coeditor_code           QS3030
_journal_issue                   11
_journal_name_full               'Acta Crystallographica Section C'
_journal_page_first              1292
_journal_page_last               1300
_journal_paper_doi               10.1107/S0108270113028138
_journal_volume                  69
_journal_year                    2013
_chemical_formula_iupac          'Mg Br2 , 6H2 O'
_chemical_formula_moiety         'Mg Br2, 6(H2 O)'
_chemical_formula_sum            'Br2 H12 Mg O6'
_chemical_formula_weight         292.21
_chemical_name_common            'magnesium bromide hexahydrate'
_chemical_name_systematic
;
Magnesium dibromide hexahydrate
;
_space_group_crystal_system      monoclinic
_space_group_IT_number           12
_space_group_name_Hall           '-C 2y'
_space_group_name_H-M_alt        'C 1 2/m 1'
_symmetry_space_group_name_Hall  '-C 2y'
_symmetry_space_group_name_H-M   'C 1 2/m 1'
_atom_sites_solution_hydrogens   difmap
_audit_creation_method           SHELXL-2012
_cell_angle_alpha                90
_cell_angle_beta                 93.025(12)
_cell_angle_gamma                90
_cell_formula_units_Z            2
_cell_length_a                   10.2299(16)
_cell_length_b                   7.2642(9)
_cell_length_c                   6.1964(9)
_cell_measurement_reflns_used    4549
_cell_measurement_temperature    150
_cell_measurement_theta_max      29.62
_cell_measurement_theta_min      2.78
_cell_volume                     459.83(11)
_computing_cell_refinement       'X-AREA (Stoe & Cie, 2009)'
_computing_data_collection       'X-AREA (Stoe & Cie, 2009)'
_computing_data_reduction        'X-RED (Stoe & Cie, 2009)'
_computing_molecular_graphics    'DIAMOND (Brandenburg, 2006)'
_computing_publication_material  'publCIF (Westrip, 2010)'
_computing_structure_refinement  'SHELXL2012 (Sheldrick, 2008)'
_computing_structure_solution    'SHELXS97 (Sheldrick, 2008)'
_diffrn_ambient_temperature      150
_diffrn_detector_area_resol_mean 6.67
_diffrn_measured_fraction_theta_full 0.967
_diffrn_measured_fraction_theta_max 0.967
_diffrn_measurement_device_type  'Stoe IPDS 2'
_diffrn_measurement_method       'rotation method'
_diffrn_radiation_monochromator  graphite
_diffrn_radiation_source         'fine-focus sealed tube'
_diffrn_radiation_type           MoK\a
_diffrn_radiation_wavelength     0.71073
_diffrn_reflns_av_R_equivalents  0.0841
_diffrn_reflns_limit_h_max       14
_diffrn_reflns_limit_h_min       -13
_diffrn_reflns_limit_k_max       10
_diffrn_reflns_limit_k_min       -10
_diffrn_reflns_limit_l_max       8
_diffrn_reflns_limit_l_min       -8
_diffrn_reflns_number            575
_diffrn_reflns_theta_full        25.242
_diffrn_reflns_theta_max         27.485
_diffrn_reflns_theta_min         3.292
_exptl_absorpt_coefficient_mu    8.859
_exptl_absorpt_correction_T_max  0.0429
_exptl_absorpt_correction_T_min  0.0101
_exptl_absorpt_correction_type   integration
_exptl_absorpt_process_details   '(Coppens, 1970)'
_exptl_crystal_colour            colourless
_exptl_crystal_density_diffrn    2.110
_exptl_crystal_density_method    'not measured'
_exptl_crystal_F_000             284.0
_exptl_crystal_size_max          0.6
_exptl_crystal_size_mid          0.465
_exptl_crystal_size_min          0.355
_refine_diff_density_max         1.375
_refine_diff_density_min         -1.099
_refine_ls_extinction_coef       0.075(13)
_refine_ls_extinction_expression Fc^*^=kFc[1+0.001xFc^2^\l^3^/sin(2\q)]^-1/4^
_refine_ls_extinction_method     'SHELXL2012 (Sheldrick, 2008)'
_refine_ls_goodness_of_fit_ref   1.159
_refine_ls_hydrogen_treatment    refall
_refine_ls_matrix_type           full
_refine_ls_number_parameters     41
_refine_ls_number_reflns         667
_refine_ls_number_restraints     6
_refine_ls_restrained_S_all      1.154
_refine_ls_R_factor_all          0.0379
_refine_ls_R_factor_gt           0.0377
_refine_ls_shift/su_max          0.000
_refine_ls_shift/su_mean         0.000
_refine_ls_structure_factor_coef Fsqd
_refine_ls_weighting_details
;
 w=1/[\s^2^(Fo^2^)+(0.1000P)^2^+0.1814P]
 where P=(Fo^2^+2Fc^2^)/3
;
_refine_ls_weighting_scheme      calc
_refine_ls_wR_factor_gt          0.1190
_refine_ls_wR_factor_ref         0.1192
_reflns_number_gt                550
_reflns_number_total             557
_reflns_threshold_expression     I>2\s(I)
_cod_data_source_file            qs3030.cif
_cod_data_source_block           MgBr2_6H2O
_cod_database_code               2019274
#BEGIN Tags that were not found in dictionaries:
_shelx_space_group_comment
;
The symmetry employed for this shelxl refinement is uniquely defined
by the following loop, which should always be used as a source of
symmetry information in preference to the above space-group names.
They are only intended as comments.
;
_shelx_hkl_checksum              3863
_shelx_hkl_file
;
   2   0   0 1452.05    9.89   0
   4   0   0 1077.42    5.89   0
   6   0   0 8704.63   11.88   0
   8   0   0 6266.09    9.32   0
  10   0   0  957.55    3.81   0
  12   0   0  175.83    2.47   0
  14   0   0  907.54    2.89   0
   1   1   0   53.30    2.45   0
   5   1   0 2264.78    7.04   0
   7   1   0  279.70    2.77   0
   9   1   0 2308.75    5.49   0
  11   1   0 1764.68    4.59   0
  13   1   0  587.98    3.22   0
   4   2   0   34.51    1.99   0
   6   2   0 8740.58   12.22   0
   8   2   0 3439.06    7.09   0
  10   2   0 2197.75    5.36   0
  12   2   0  620.14    3.34   0
   1   3   0 2290.77    6.59   0
   3   3   0 5035.45    9.08   0
   5   3   0 2498.38    6.53   0
   7   3   0  422.42    3.08   0
   9   3   0 2562.02    5.71   0
  11   3   0  886.67    3.69   0
  13   3   0  782.41    3.18   0
   2   4   0 1942.08    5.33   0
   4   4   0   48.72    2.08   0
   6   4   0 4659.77    7.53   0
   8   4   0 3252.20    6.15   0
  10   4   0  753.13    3.40   0
  12   4   0  202.80    2.34   0
   1   5   0   37.98    1.59   0
   3   5   0 6490.51    8.14   0
   5   5   0 1360.74    4.24   0
   7   5   0   97.79    2.31   0
   9   5   0  828.69    3.39   0
  11   5   0 1114.15    3.67   0
   0   6   0 6011.62    7.15   0
   2   6   0 1032.36    3.34   0
   4   6   0   26.36    2.38   0
   6   6   0 2846.31    5.34   0
   8   6   0 1380.73    3.86   0
  10   6   0  458.19    2.57   0
   1   7   0  398.57    2.20   0
   3   7   0 2147.84    4.23   0
   5   7   0  778.06    3.03   0
   7   7   0  184.67    2.19   0
   9   7   0  786.55    3.05   0
   0   8   0 1871.70    3.79   0
   2   8   0  691.06    2.72   0
   4   8   0    5.08    1.84   0
   6   8   0 1043.80    3.28   0
   8   8   0  538.95    2.58   0
   1   9   0   49.43    1.70   0
   3   9   0 1136.95    3.16   0
   5   9   0  380.88    2.41   0
   0  10   0 1063.53    3.11   0
 -12   0   1  403.91    3.27   0
 -10   0   1 2497.38    5.65   0
  -8   0   1 2721.37    6.88   0
  -6   0   1  611.81    4.30   0
  -4   0   1 7172.16   11.51   0
   0   0   1 2346.72   11.82   0
   2   0   1  981.17    5.94   0
   6   0   1 2930.29    7.33   0
   8   0   1 3244.59    6.32   0
  10   0   1  888.34    3.36   0
  12   0   1 1485.32    4.10   0
 -13   1   1 1368.30    3.71   0
 -11   1   1 2388.08    6.14   0
  -9   1   1   17.09    2.51   0
  -7   1   1 3050.26    7.43   0
  -3   1   1 6045.08   12.52   0
  -1   1   1  107.17    3.22   0
   3   1   1 6320.25   13.76   0
   5   1   1 4715.98    9.22   0
   7   1   1 2248.98    5.83   0
   9   1   1 2069.78    5.19   0
  11   1   1 2123.74    4.74   0
  13   1   1    2.96    1.92   0
 -12   2   1  387.93    2.95   0
 -10   2   1 1170.11    4.75   0
  -8   2   1 5697.67    8.51   0
  -6   2   1  498.56    3.80   0
  -4   2   1  469.59    3.67   0
   0   2   1 3090.53    9.22   0
   2   2   1 1051.46    5.76   0
   4   2   1 5605.98   10.24   0
   6   2   1 7314.25   10.62   0
   8   2   1 1493.12    4.67   0
  10   2   1  659.38    3.28   0
  12   2   1 1010.40    3.59   0
 -13   3   1  961.51    3.36   0
 -11   3   1 2238.62    5.84   0
  -9   3   1  184.99    2.76   0
  -7   3   1  874.32    4.13   0
  -3   3   1 1120.60    4.87   0
  -1   3   1  126.93    2.44   0
   1   3   1 6522.52   10.57   0
   3   3   1 8211.57   10.99   0
   5   3   1  849.22    3.80   0
   7   3   1  664.71    3.35   0
   9   3   1 2252.71    5.04   0
  11   3   1 1454.43    4.10   0
  13   3   1    0.21    1.70   0
 -12   4   1  293.91    2.32   0
 -10   4   1 1127.21    4.09   0
  -8   4   1 2497.53    5.59   0
  -6   4   1   44.35    1.75   0
  -4   4   1 1469.20    4.83   0
  -2   4   1 6145.08    9.05   0
   0   4   1 1353.26    4.53   0
   2   4   1  132.20    2.46   0
   4   4   1 6375.69    8.26   0
   6   4   1 2730.77    5.67   0
   8   4   1 1350.96    4.06   0
  10   4   1  348.47    2.53   0
  12   4   1  895.92    3.38   0
 -11   5   1  546.74    2.65   0
  -9   5   1   18.84    2.00   0
  -7   5   1 1802.80    4.43   0
  -5   5   1 3481.61    6.37   0
  -3   5   1 1830.77    4.74   0
  -1   5   1   26.53    1.72   0
   1   5   1 6367.23    8.16   0
   3   5   1 1608.54    4.51   0
   5   5   1 2255.48    5.13   0
   7   5   1 1410.31    3.84   0
   9   5   1  946.03    3.23   0
  11   5   1  927.45    3.20   0
 -10   6   1  700.81    3.12   0
  -8   6   1 1412.11    3.80   0
  -6   6   1   25.47    1.98   0
  -4   6   1  635.03    2.96   0
  -2   6   1 3963.61    5.97   0
   0   6   1 1149.08    3.51   0
   2   6   1   32.53    1.79   0
   4   6   1 3001.12    5.47   0
   6   6   1 1484.75    3.95   0
   8   6   1  904.70    3.19   0
  10   6   1  287.97    2.25   0
  -9   7   1   37.81    1.74   0
  -7   7   1  321.37    2.33   0
  -5   7   1 3090.84    5.26   0
  -3   7   1  297.38    2.27   0
  -1   7   1   13.93    1.54   0
   1   7   1 2113.01    4.03   0
   3   7   1 2099.97    4.22   0
   5   7   1  237.88    2.25   0
   7   7   1  316.58    2.37   0
   9   7   1  568.31    2.62   0
  -8   8   1  891.93    3.04   0
  -6   8   1    6.02    1.73   0
  -4   8   1  147.43    2.05   0
  -2   8   1 2082.00    4.19   0
   0   8   1  586.49    2.70   0
   2   8   1    1.20    1.59   0
   4   8   1  881.63    3.08   0
   6   8   1  914.28    3.05   0
   8   8   1  229.34    1.87   0
  -5   9   1  859.10    3.06   0
  -3   9   1  217.82    2.01   0
  -1   9   1    9.11    1.68   0
   1   9   1 1225.13    3.31   0
   3   9   1  326.69    2.13   0
   5   9   1  191.38    1.91   0
 -12   0   2  406.97    3.10   0
 -10   0   2 5291.19    7.29   0
  -8   0   2  587.14    3.54   0
  -6   0   2  431.01    2.86   0
  -4   0   2 4346.07    8.14   0
   0   0   2   72.19    2.09   0
   2   0   2 1426.24    5.35   0
   4   0   2 4325.09    8.51   0
   6   0   2 4828.34    8.08   0
   8   0   2  777.95    3.53   0
  10   0   2  540.22    2.97   0
  12   0   2 1860.01    4.31   0
 -13   1   2 1409.72    3.80   0
 -11   1   2   75.74    2.44   0
  -9   1   2 1531.81    5.16   0
  -7   1   2 9358.90   10.54   0
  -5   1   2 2561.82    6.73   0
  -3   1   2  450.24    4.28   0
   3   1   2 4008.28    8.48   0
   5   1   2 2773.04    6.64   0
   7   1   2 4214.05    7.01   0
   9   1   2 4670.89    6.83   0
  11   1   2   22.46    1.79   0
  13   1   2  218.14    2.32   0
 -12   2   2  798.12    3.60   0
 -10   2   2 2471.67    5.52   0
  -8   2   2  544.88    3.25   0
  -6   2   2   17.75    2.16   0
  -2   2   2  835.61    5.13   0
   0   2   2 5338.54   11.87   0
   2   2   2 6683.48   10.38   0
   4   2   2 3713.66    7.76   0
   6   2   2 2419.54    5.72   0
   8   2   2   58.79    2.21   0
  10   2   2 1294.45    3.86   0
  12   2   2 1130.90    3.60   0
 -13   3   2  588.20    3.10   0
 -11   3   2    2.08    1.90   0
  -9   3   2 1287.53    4.13   0
  -7   3   2 6081.09    8.60   0
  -5   3   2  792.60    4.25   0
  -3   3   2  157.42    2.95   0
   1   3   2 4002.63    7.39   0
   3   3   2 3937.46    7.58   0
   5   3   2 1745.70    4.97   0
   7   3   2 3987.05    6.40   0
   9   3   2 2489.69    4.89   0
  11   3   2   89.84    2.03   0
 -12   4   2  322.68    2.48   0
 -10   4   2 2230.89    4.66   0
  -8   4   2  245.64    2.68   0
  -6   4   2  115.65    2.54   0
  -4   4   2 3430.48    7.13   0
  -2   4   2 2956.20    7.01   0
   0   4   2  454.52    3.44   0
   2   4   2 2223.32    5.11   0
   4   4   2 2071.23    5.09   0
   6   4   2 2630.55    5.32   0
   8   4   2  286.86    2.55   0
  10   4   2  469.20    2.55   0
  12   4   2  936.65    3.21   0
 -11   5   2   58.19    1.88   0
  -9   5   2  439.09    2.80   0
  -7   5   2 3102.06    5.59   0
  -5   5   2 1116.01    4.06   0
  -3   5   2  216.24    2.43   0
  -1   5   2 3051.40    6.56   0
   1   5   2 5035.17    7.08   0
   3   5   2 1213.23    3.95   0
   5   5   2 1178.58    3.98   0
   7   5   2 1333.19    3.92   0
   9   5   2 2385.12    4.62   0
  11   5   2    0.30    1.78   0
 -10   6   2 1095.24    3.28   0
  -8   6   2  160.55    2.35   0
  -6   6   2   74.03    2.11   0
  -4   6   2 2274.15    4.91   0
  -2   6   2 1394.63    4.15   0
   0   6   2  247.86    2.71   0
   2   6   2 1193.16    4.06   0
   4   6   2 1744.08    4.22   0
   6   6   2 1022.79    3.26   0
   8   6   2   63.64    1.99   0
  10   6   2  317.78    2.15   0
  -9   7   2  361.05    2.42   0
  -7   7   2 1571.41    3.67   0
  -5   7   2  301.90    2.44   0
  -3   7   2   30.43    1.87   0
  -1   7   2 2773.07    5.44   0
   1   7   2 1327.39    4.08   0
   3   7   2  728.08    3.20   0
   5   7   2  308.71    2.17   0
   7   7   2 1050.96    3.23   0
   9   7   2  593.88    2.42   0
  -8   8   2   73.36    1.82   0
  -6   8   2   31.31    1.67   0
  -4   8   2 1349.10    3.57   0
  -2   8   2  424.92    2.53   0
   0   8   2  268.91    2.29   0
   2   8   2  900.18    3.47   0
   4   8   2  211.74    1.71   0
   6   8   2  563.19    2.53   0
  -5   9   2  197.69    2.10   0
  -3   9   2    8.00    1.75   0
  -1   9   2  219.25    1.65   0
   1   9   2  653.50    2.56   0
   3   9   2  325.93    2.13   0
   5   9   2  236.14    1.89   0
 -12   0   3 3189.48    5.46   0
 -10   0   3  278.27    3.03   0
  -8   0   3  148.93    2.15   0
  -4   0   3 4952.67    7.64   0
  -2   0   3 4321.22    9.86   0
   0   0   3 1786.63    5.47   0
   4   0   3 5038.32    7.87   0
   6   0   3  223.86    2.33   0
   8   0   3  942.59    3.45   0
  10   0   3 2925.72    5.25   0
  12   0   3  273.44    2.25   0
 -13   1   3   12.80    1.86   0
 -11   1   3  219.32    2.67   0
  -9   1   3 4471.24    6.26   0
  -7   1   3  880.98    4.23   0
  -5   1   3  159.33    2.46   0
  -1   1   3 4795.90    9.26   0
   1   1   3 2376.96    6.15   0
   3   1   3 1665.22    4.90   0
   5   1   3 4191.19    7.09   0
   7   1   3 4139.28    6.78   0
   9   1   3   41.61    2.54   0
  11   1   3  308.13    2.32   0
 -12   2   3 2042.20    4.47   0
 -10   2   3 1155.21    4.32   0
  -8   2   3  362.79    2.90   0
  -6   2   3 4650.16    7.26   0
  -4   2   3 6761.45   10.62   0
  -2   2   3 3258.08    7.92   0
   0   2   3 4522.49    8.40   0
   2   2   3 3314.48    7.60   0
   4   2   3 9999.99   10.52   0
   6   2   3   19.04    1.91   0
   8   2   3  692.02    3.21   0
  10   2   3 2299.74    4.73   0
  12   2   3  438.52    2.67   0
 -11   3   3  390.70    3.02   0
  -9   3   3 1808.36    4.48   0
  -7   3   3 1675.47    4.69   0
  -5   3   3    7.22    1.80   0
  -3   3   3 4177.71    8.95   0
  -1   3   3 3167.50    6.96   0
   1   3   3 3517.96    7.47   0
   3   3   3 2922.87    5.92   0
   5   3   3 1775.81    4.85   0
   7   3   3 4320.84    6.73   0
   9   3   3   16.82    1.90   0
  11   3   3  271.69    2.27   0
 -12   4   3 1427.65    4.04   0
 -10   4   3  290.60    2.57   0
  -8   4   3    4.39    1.91   0
  -6   4   3 3824.02    7.79   0
  -4   4   3 2878.32    6.60   0
  -2   4   3 1437.70    4.47   0
   0   4   3 1291.39    3.92   0
   2   4   3 4254.03    6.35   0
   4   4   3 3891.88    6.00   0
   6   4   3    5.37    1.93   0
   8   4   3  420.06    2.40   0
  10   4   3 1872.86    4.05   0
 -11   5   3   49.43    1.76   0
  -9   5   3 2069.95    4.21   0
  -7   5   3  254.63    2.30   0
  -5   5   3  175.84    2.24   0
  -3   5   3 2675.17    6.11   0
  -1   5   3 2425.47    5.31   0
   1   5   3  751.54    3.02   0
   3   5   3  208.05    2.10   0
   5   5   3 2115.05    4.04   0
   7   5   3 1632.23    3.73   0
   9   5   3   29.09    1.75   0
 -10   6   3  148.56    1.98   0
  -8   6   3    9.10    1.78   0
  -6   6   3 1831.63    4.74   0
  -4   6   3 1150.70    4.06   0
  -2   6   3  787.13    3.10   0
   0   6   3 1026.60    3.30   0
   2   6   3 1638.13    3.63   0
   4   6   3 1767.97    3.84   0
   6   6   3   16.42    1.55   0
   8   6   3  393.24    2.23   0
  -9   7   3  510.27    2.72   0
  -7   7   3  447.98    2.88   0
  -5   7   3    1.20    1.81   0
  -3   7   3 1053.70    3.75   0
  -1   7   3  859.57    3.01   0
   1   7   3 1027.39    2.96   0
   3   7   3  501.62    2.24   0
   5   7   3  522.30    2.33   0
   7   7   3 1013.47    2.84   0
  -6   8   3  550.09    2.75   0
  -4   8   3  686.01    3.02   0
  -2   8   3  240.67    1.99   0
   0   8   3  464.29    2.29   0
   2   8   3  626.81    2.51   0
   4   8   3 1061.41    2.92   0
   6   8   3   14.93    1.58   0
  -3   9   3  412.93    2.38   0
  -1   9   3  582.73    2.57   0
   1   9   3  214.77    1.83   0
   3   9   3   60.47    1.72   0
 -12   0   4  470.39    2.85   0
 -10   0   4   64.35    1.82   0
  -8   0   4 4370.74    6.00   0
  -6   0   4 2058.14    6.67   0
  -4   0   4 4167.49    9.68   0
  -2   0   4 6549.44   10.64   0
   0   0   4 3426.20    6.72   0
   2   0   4 7822.20    9.15   0
   4   0   4   12.17    1.84   0
   6   0   4 1881.02    4.70   0
   8   0   4 3374.34    5.63   0
  10   0   4  868.68    3.24   0
  12   0   4    2.67    2.06   0
 -11   1   4 1701.11    4.11   0
  -9   1   4 1658.98    4.02   0
  -7   1   4  912.96    4.32   0
  -5   1   4 2831.18    7.23   0
  -3   1   4 3096.19    7.22   0
  -1   1   4 6196.52    9.29   0
   1   1   4  212.89    2.29   0
   3   1   4 1369.52    4.17   0
   5   1   4 4676.64    7.02   0
   7   1   4  355.45    2.44   0
   9   1   4   53.47    1.92   0
  11   1   4  985.17    3.31   0
 -12   2   4  131.70    2.44   0
 -10   2   4    3.93    1.98   0
  -8   2   4 3061.13    6.61   0
  -6   2   4 4150.55    7.34   0
  -4   2   4  557.29    3.48   0
  -2   2   4 1196.32    4.76   0
   0   2   4 6145.45    8.55   0
   2   2   4 6028.91    8.35   0
   4   2   4   31.83    2.15   0
   6   2   4  742.38    3.44   0
   8   2   4 4416.30    6.41   0
  10   2   4  517.58    2.75   0
 -11   3   4 1676.92    4.87   0
  -9   3   4 1189.16    3.83   0
  -7   3   4  342.27    2.47   0
  -5   3   4 1161.39    4.96   0
  -3   3   4 4267.95    7.91   0
  -1   3   4 2289.32    5.61   0
   1   3   4   16.30    2.03   0
   3   3   4 1270.18    4.61   0
   5   3   4 4417.65    7.11   0
   7   3   4  157.56    2.28   0
   9   3   4   10.32    2.01   0
  11   3   4  952.20    3.39   0
 -10   4   4   15.01    1.95   0
  -8   4   4 2246.60    4.55   0
  -6   4   4 1593.20    5.32   0
  -4   4   4 1499.48    5.23   0
  -2   4   4 1924.26    5.01   0
   0   4   4 2903.58    5.69   0
   2   4   4 3589.24    5.74   0
   4   4   4   37.36    2.34   0
   6   4   4  983.45    3.46   0
   8   4   4 1973.77    4.08   0
  10   4   4  428.94    2.61   0
  -9   5   4  724.31    2.83   0
  -7   5   4  385.21    2.90   0
  -5   5   4 1720.97    4.78   0
  -3   5   4 1011.87    3.79   0
  -1   5   4 2732.29    5.15   0
   1   5   4  159.31    1.92   0
   3   5   4  734.29    2.58   0
   5   5   4 1758.70    3.88   0
   7   5   4  326.08    2.37   0
   9   5   4   68.01    1.94   0
  -8   6   4 1002.26    2.91   0
  -6   6   4 1002.54    3.59   0
  -4   6   4  610.49    3.09   0
  -2   6   4  722.83    3.04   0
   0   6   4 1081.44    3.25   0
   2   6   4 2207.06    4.17   0
   4   6   4    7.62    1.66   0
   6   6   4  283.72    2.06   0
   8   6   4 1105.54    3.20   0
  -7   7   4   64.22    2.05   0
  -5   7   4  314.52    2.38   0
  -3   7   4 1029.11    3.39   0
  -1   7   4  685.88    2.85   0
   1   7   4   32.88    1.68   0
   3   7   4  284.21    1.97   0
   5   7   4 1294.57    3.04   0
   7   7   4   32.22    1.62   0
  -4   8   4  155.69    1.93   0
  -2   8   4  117.39    1.89   0
   0   8   4  723.17    2.72   0
   2   8   4  660.26    2.42   0
   4   8   4    8.24    1.39   0
 -10   0   5  459.22    2.46   0
  -8   0   5 2306.55    4.45   0
  -6   0   5  953.99    4.32   0
  -4   0   5  607.42    3.98   0
  -2   0   5 1559.61    5.03   0
   0   0   5 5653.03    7.60   0
   2   0   5   48.90    1.93   0
   4   0   5  170.88    2.31   0
   6   0   5 3274.01    5.64   0
   8   0   5  598.20    2.75   0
  10   0   5    2.90    1.74   0
 -11   1   5 1118.64    3.38   0
  -9   1   5  355.00    2.42   0
  -7   1   5 1198.34    4.52   0
  -5   1   5 3690.66    7.40   0
  -3   1   5 5118.07    8.51   0
  -1   1   5   14.92    1.72   0
   1   1   5 1346.96    4.09   0
   3   1   5 6504.36    7.81   0
   5   1   5  988.26    3.58   0
   7   1   5   26.01    2.11   0
   9   1   5 1241.26    3.70   0
 -10   2   5 1374.64    3.80   0
  -8   2   5  771.14    3.67   0
  -6   2   5 1742.05    5.86   0
  -4   2   5  559.27    3.62   0
  -2   2   5 2425.92    6.05   0
   0   2   5 2543.40    5.41   0
   2   2   5  245.89    2.60   0
   4   2   5  649.53    3.39   0
   6   2   5 2758.38    5.37   0
   8   2   5  444.25    2.80   0
  10   2   5   36.85    2.13   0
 -11   3   5  529.33    2.63   0
  -9   3   5  667.14    3.49   0
  -7   3   5 1512.13    4.51   0
  -5   3   5 2196.07    6.19   0
  -3   3   5 3623.24    6.80   0
  -1   3   5   11.55    2.47   0
   1   3   5 1610.30    4.99   0
   3   3   5 3898.73    6.82   0
   5   3   5 1250.58    4.23   0
   7   3   5    1.09    2.30   0
   9   3   5 1089.78    3.52   0
 -10   4   5  461.23    2.83   0
  -8   4   5 1012.94    3.44   0
  -6   4   5  908.25    4.20   0
  -4   4   5  385.94    3.09   0
  -2   4   5  893.91    3.38   0
   0   4   5 2750.46    4.89   0
   2   4   5   15.81    1.98   0
   4   4   5  244.91    2.33   0
   6   4   5 1803.38    4.05   0
   8   4   5  448.87    2.52   0
  -9   5   5   75.81    1.68   0
  -7   5   5  334.81    2.97   0
  -5   5   5 1800.54    4.98   0
  -3   5   5 2241.70    4.86   0
  -1   5   5   57.58    2.06   0
   1   5   5  328.89    2.27   0
   3   5   5 3093.57    4.91   0
   5   5   5  310.39    2.36   0
   7   5   5    6.57    1.98   0
  -8   6   5  561.35    2.63   0
  -6   6   5  347.71    2.98   0
  -4   6   5  119.70    2.14   0
  -2   6   5  811.20    3.09   0
   0   6   5 1136.72    3.07   0
   2   6   5   25.92    1.72   0
   4   6   5   75.03    1.80   0
   6   6   5 1127.33    3.34   0
  -5   7   5  626.80    3.05   0
  -3   7   5  757.95    3.17   0
  -1   7   5   11.26    1.73   0
   1   7   5  411.29    2.34   0
   3   7   5  845.29    2.76   0
   5   7   5  183.83    1.86   0
  -2   8   5  259.04    2.00   0
   0   8   5  515.93    2.36   0
   2   8   5   54.76    1.52   0
 -10   0   6 1022.76    3.49   0
  -8   0   6 1195.44    3.60   0
  -6   0   6   38.87    2.34   0
  -4   0   6 1530.94    5.25   0
  -2   0   6 3165.40    6.60   0
   0   0   6  826.53    3.58   0
   2   0   6    6.93    1.50   0
   4   0   6 2473.88    4.65   0
   6   0   6  690.46    3.12   0
   8   0   6  307.29    2.61   0
  -9   1   6  462.61    2.55   0
  -7   1   6 1492.04    4.60   0
  -5   1   6 2097.37    5.60   0
  -3   1   6    7.42    2.38   0
  -1   1   6 1045.08    3.65   0
   1   1   6 3796.79    5.95   0
   3   1   6  758.29    3.32   0
   5   1   6    6.63    2.42   0
   7   1   6 1521.57    4.12   0
   9   1   6  748.33    3.23   0
 -10   2   6  771.48    3.03   0
  -8   2   6 1632.69    4.81   0
  -6   2   6  177.60    2.82   0
  -4   2   6  492.60    3.31   0
  -2   2   6 4258.21    7.32   0
   0   2   6  433.60    2.96   0
   2   2   6   24.95    2.07   0
   4   2   6 1642.35    4.28   0
   6   2   6 1010.20    3.62   0
   8   2   6  151.77    2.22   0
  -9   3   6  372.96    2.96   0
  -7   3   6  736.69    3.49   0
  -5   3   6 2577.27    6.45   0
  -3   3   6   71.32    2.23   0
  -1   3   6  514.27    3.21   0
   1   3   6 3064.09    6.11   0
   3   3   6  682.12    3.44   0
   5   3   6    6.35    2.08   0
   7   3   6 1035.07    3.87   0
  -8   4   6  662.71    3.29   0
  -6   4   6    6.33    2.47   0
  -4   4   6  698.09    3.53   0
  -2   4   6 2101.56    5.14   0
   0   4   6  263.82    2.38   0
   2   4   6    2.61    2.11   0
   4   4   6 1555.10    4.46   0
   6   4   6  468.32    2.70   0
  -7   5   6  523.51    3.60   0
  -5   5   6  609.12    3.27   0
  -3   5   6   33.35    2.14   0
  -1   5   6  461.84    2.50   0
   1   5   6 1596.88    3.91   0
   3   5   6  286.28    2.33   0
   5   5   6   10.82    2.07   0
  -6   6   6   10.02    1.81   0
  -4   6   6  307.12    2.50   0
  -2   6   6  844.07    3.07   0
   0   6   6  202.27    2.12   0
   2   6   6   34.87    1.80   0
   4   6   6  576.43    2.50   0
  -1   7   6  114.66    1.70   0
   1   7   6  576.15    2.52   0
  -8   0   7   76.24    2.17   0
  -6   0   7  570.70    3.55   0
  -4   0   7 2684.91    5.77   0
  -2   0   7  759.49    3.40   0
   0   0   7   64.73    2.01   0
   2   0   7 1739.65    4.42   0
   4   0   7  904.26    3.04   0
   6   0   7  402.60    2.72   0
  -7   1   7 1334.43    5.20   0
  -5   1   7   72.83    2.51   0
  -3   1   7  114.52    2.46   0
  -1   1   7 1810.45    4.74   0
   1   1   7  632.71    2.89   0
   3   1   7   47.90    1.88   0
   5   1   7  634.04    3.12   0
   7   1   7  439.41    2.90   0
  -8   2   7   -0.34    2.10   0
  -6   2   7  588.08    3.44   0
  -4   2   7 2865.23    6.04   0
  -2   2   7  330.78    2.92   0
   0   2   7    7.59    1.77   0
   2   2   7 1972.08    4.43   0
   4   2   7  940.28    3.63   0
   6   2   7  277.18    2.65   0
  -7   3   7  794.29    3.60   0
  -5   3   7   65.83    2.30   0
  -3   3   7   70.78    2.25   0
  -1   3   7 1749.07    4.83   0
   1   3   7  335.36    3.14   0
   3   3   7  108.31    2.87   0
   5   3   7  561.71    3.26   0
  -6   4   7  406.61    3.28   0
  -4   4   7 1347.23    4.44   0
  -2   4   7  394.14    2.65   0
   0   4   7   18.65    1.86   0
   2   4   7 1116.39    3.58   0
   4   4   7  587.68    3.13   0
  -3   5   7   96.31    2.03   0
  -1   5   7  629.93    2.93   0
   1   5   7  384.85    2.46   0
   3   5   7    6.32    1.85   0
  -4   0   8  121.63    2.66   0
  -2   0   8    4.85    2.27   0
   0   0   8 1057.23    4.00   0
   2   0   8  534.90    3.56   0
   4   0   8  179.08    2.62   0
  -5   1   8    5.40    2.24   0
  -3   1   8 1184.69    4.48   0
  -1   1   8  591.23    3.56   0
   1   1   8  238.86    2.95   0
   3   1   8  254.44    2.66   0
  -4   2   8  290.58    2.99   0
  -2   2   8   11.10    2.29   0
   0   2   8  888.48    3.62   0
   2   2   8  400.54    2.81   0
  -3   3   8  695.12    3.72   0
  -1   3   8  570.49    3.04   0
   1   3   8  180.82    2.83   0
;
_shelx_res_checksum              41650
_shelx_res_file
;
TITL
CELL  0.71073 10.22020  7.26210  6.19040 90.00000 93.04200 90.00000
ZERR 2  0.00110  0.00060  0.00070  0.00000  0.00900  0.00000
LATT 7
SYMM -X, Y, -Z
SFAC Br H  Mg O
UNIT 4  24  2  12
L.S. 20
ACTA
BOND
FMAP 2
PLAN 1
HTAB
EQIV $1 x+1/2, y+1/2, z
HTAB O1 Br1_$1
EQIV $2 -x+1, -y, -z+1
HTAB O2 Br1_$2
EQIV $3 x+1, y, z
HTAB O2 Br1_$3
EQIV $4 -x+3/2, -y+1/2, -z+1
HTAB O2 Br1_$4
EQIV $5 x+1/2, y+1/2, z+1
HTAB O1 Br1_$5
DFIX O1 H1A 0.84 0.01
DFIX O1 H1B 0.84 0.01
DFIX H1A H1B 1.4 0.1
DFIX O2 H2A 0.84 0.01
DFIX O2 H2B 0.84 0.01
DFIX H2A H2B 1.4 0.1
WGHT    0.100000    0.181400
EXTI    0.074522
FVAR       1.10533
MOLE 1
BR1   1    0.182355    0.000000    0.388653    10.50000    0.01184    0.01947 =
         0.01733    0.00000    0.00174    0.00000
MG1   3    1.000000    0.500000    1.000000    10.25000    0.00969    0.01768 =
         0.01343    0.00000    0.00112    0.00000
O1    4    0.806307    0.500000    0.895096    10.50000    0.01043    0.05666 =
         0.01696    0.00000    0.00040    0.00000
O2    4    1.043244    0.297547    0.783186    11.00000    0.02722    0.03306 =
         0.03978   -0.02209    0.01892   -0.01493
H1A   2    0.771418    0.500000    0.769355    10.50000    0.09247
H2A   2    0.990140    0.213524    0.744070    11.00000    0.03011
H2B   2    1.096003    0.305525    0.683882    11.00000    0.03978
H1B   2    0.751362    0.500000    0.991776    10.50000    0.04874
HKLF 4
REM
REM R1 =  0.0377 for     655 Fo > 4sig(Fo)  and  0.0379 for all     667 data
REM     41 parameters refined using      6 restraints
END
WGHT      0.0852      0.8843
REM Instructions for potential hydrogen bonds
HTAB O1 Br1_$1
HTAB O2 Br1_$2
HTAB O2 Br1_$3
HTAB O2 Br1_$4
HTAB O1 Br1_$5
REM Highest difference peak  1.375,  deepest hole -1.099,  1-sigma level  0.193
Q1    1   0.1819  0.1102  0.3880  11.00000  0.05    1.37
;
_shelxl_version_number           .000002012
#END Tags that were not found in dictionaries
loop_
_space_group_symop_operation_xyz
'x, y, z'
'-x, y, -z'
'x+1/2, y+1/2, z'
'-x+1/2, y+1/2, -z'
'-x, -y, -z'
'x, -y, z'
'-x+1/2, -y+1/2, -z'
'x+1/2, -y+1/2, z'
loop_
_atom_site_type_symbol
_atom_site_label
_atom_site_fract_x
_atom_site_fract_y
_atom_site_fract_z
_atom_site_U_iso_or_equiv
_atom_site_adp_type
_atom_site_calc_flag
_atom_site_occupancy
Br Br1 0.18235(3) 0.0000 0.38865(4) 0.0162(3) Uani d 1
Mg Mg1 1.0000 0.5000 1.0000 0.0136(4) Uani d 1
O O1 0.8063(3) 0.5000 0.8951(5) 0.0280(7) Uani d 1
O O2 1.0432(3) 0.2975(4) 0.7832(4) 0.0327(7) Uani d 1
H H1A 0.771(10) 0.5000 0.769(7) 0.09(4) Uiso d 1
H H2A 0.990(4) 0.214(5) 0.744(8) 0.030(11) Uiso d 1
H H2B 1.096(4) 0.306(7) 0.684(6) 0.040(13) Uiso d 1
H H1B 0.751(8) 0.5000 0.992(12) 0.05(2) Uiso d 1
loop_
_atom_site_aniso_label
_atom_site_aniso_U_11
_atom_site_aniso_U_22
_atom_site_aniso_U_33
_atom_site_aniso_U_12
_atom_site_aniso_U_13
_atom_site_aniso_U_23
Br1 0.0118(4) 0.0195(4) 0.0173(4) 0.000 0.00174(19) 0.000
Mg1 0.0097(9) 0.0177(9) 0.0134(8) 0.000 0.0011(6) 0.000
O1 0.0104(14) 0.057(2) 0.0170(14) 0.000 0.0004(10) 0.000
O2 0.0272(13) 0.0331(14) 0.0398(12) -0.0149(10) 0.0189(10) -0.0221(11)
loop_
_atom_type_symbol
_atom_type_description
_atom_type_scat_dispersion_real
_atom_type_scat_dispersion_imag
_atom_type_scat_source
Mg Mg 0.0486 0.0363 'International Tables Vol C Tables 4.2.6.8 and 6.1.1.4'
Br Br -0.2901 2.4595 'International Tables Vol C Tables 4.2.6.8 and 6.1.1.4'
O O 0.0106 0.0060 'International Tables Vol C Tables 4.2.6.8 and 6.1.1.4'
H H 0.0000 0.0000 'International Tables Vol C Tables 4.2.6.8 and 6.1.1.4'
loop_
_geom_angle_atom_site_label_1
_geom_angle_atom_site_label_2
_geom_angle_atom_site_label_3
_geom_angle_site_symmetry_1
_geom_angle_site_symmetry_3
_geom_angle
O1 Mg1 O1 . 5_767 180.0
O1 Mg1 O2 . 5_767 88.24(10)
O1 Mg1 O2 5_767 5_767 91.76(10)
O1 Mg1 O2 . 6_565 91.76(10)
O1 Mg1 O2 5_767 6_565 88.24(10)
O2 Mg1 O2 5_767 6_565 88.62(16)
O1 Mg1 O2 . 2_757 88.24(10)
O1 Mg1 O2 5_767 2_757 91.76(10)
O2 Mg1 O2 5_767 2_757 91.38(16)
O2 Mg1 O2 6_565 2_757 180.0
O1 Mg1 O2 . . 91.76(10)
O1 Mg1 O2 5_767 . 88.24(10)
O2 Mg1 O2 5_767 . 180.0
O2 Mg1 O2 6_565 . 91.38(16)
O2 Mg1 O2 2_757 . 88.62(16)
loop_
_geom_bond_atom_site_label_1
_geom_bond_atom_site_label_2
_geom_bond_site_symmetry_2
_geom_bond_distance
Mg1 O1 . 2.050(3)
Mg1 O1 5_767 2.050(3)
Mg1 O2 5_767 2.055(2)
Mg1 O2 6_565 2.055(2)
Mg1 O2 2_757 2.055(2)
Mg1 O2 . 2.055(2)
loop_
_geom_hbond_atom_site_label_D
_geom_hbond_atom_site_label_H
_geom_hbond_atom_site_label_A
_geom_hbond_site_symmetry_A
_geom_hbond_distance_DH
_geom_hbond_distance_HA
_geom_hbond_distance_DA
_geom_hbond_angle_DHA
O1 H1A Br1 3 0.839(10) 2.481(13) 3.318(3) 176(11)
O2 H2A Br1 5_656 0.844(10) 2.456(12) 3.295(2) 173(5)
O2 H2B Br1 1_655 0.841(10) 3.04(4) 3.609(2) 127(4)
O2 H2B Br1 7_656 0.841(10) 2.73(3) 3.387(2) 137(4)
O1 H1B Br1 3_556 0.842(10) 2.59(5) 3.369(3) 154(9)
