#------------------------------------------------------------------------------
#$Date: 2015-10-14 18:00:21 +0300 (Wed, 14 Oct 2015) $
#$Revision: 168752 $
#$URL: svn://www.crystallography.net/cod/cif/2/02/02/2020241.cif $
#------------------------------------------------------------------------------
#
# This file is available in the Crystallography Open Database (COD),
# http://www.crystallography.net/. The original data for this entry
# were provided by IUCr Journals, http://journals.iucr.org/.
#
# The file may be used within the scientific community so long as
# proper attribution is given to the journal article from which the
# data were obtained.
#
data_2020241
loop_
_publ_author_name
'Fleet, M.E.'
_publ_section_title
;
 Structures of sodium alumino-germanate sodalites (Na8 (Al6 Ge6 O24) A2,
 A= Cl, Br, I)
;
_journal_name_full               'Acta Crystallographica C (39,1983-)'
_journal_page_first              843
_journal_page_last               847
_journal_volume                  45
_journal_year                    1989
_chemical_formula_sum            'Al6 Ge6 I2 Na8 O24'
_chemical_name_systematic        'Na8 (Al6 Ge6 O24) I2'
_space_group_IT_number           218
_symmetry_space_group_name_Hall  'P -4n 2 3'
_symmetry_space_group_name_H-M   'P -4 3 n'
_cell_angle_alpha                90
_cell_angle_beta                 90
_cell_angle_gamma                90
_cell_formula_units_Z            1
_cell_length_a                   9.1755
_cell_length_b                   9.1755
_cell_length_c                   9.1755
_cell_volume                     772.484
_citation_journal_id_ASTM        ACSCEE
_cod_data_source_file            Fleet_ACSCEE_1989_734.cif
_cod_data_source_block           Al6Ge6I2Na8O24
_cod_original_cell_volume        772.4835
_cod_database_code               2020241
loop_
_symmetry_equiv_pos_as_xyz
x,y,z
y+1/2,-x+1/2,-z+1/2
-x,-y,z
-y+1/2,x+1/2,-z+1/2
x,-y,-z
-y+1/2,-x+1/2,z+1/2
-x,y,-z
y+1/2,x+1/2,z+1/2
z,x,y
x+1/2,-z+1/2,-y+1/2
-z,-x,y
-x+1/2,z+1/2,-y+1/2
z,-x,-y
-x+1/2,-z+1/2,y+1/2
-z,x,-y
x+1/2,z+1/2,y+1/2
y,z,x
y,-z,-x
-z+1/2,-y+1/2,x+1/2
-y,z,-x
z+1/2,y+1/2,x+1/2
-y,-z,x
-z+1/2,y+1/2,-x+1/2
z+1/2,-y+1/2,-x+1/2
loop_
_atom_site_label
_atom_site_type_symbol
_atom_site_fract_x
_atom_site_fract_y
_atom_site_fract_z
_atom_site_occupancy
_atom_site_U_iso_or_equiv
Al1 Al+3 0.25 0 0.5 1 0.0
I1 I-1 0 0 0 1 0.0
O1 O-2 0.146 0.147 0.4386 1 0.0
Ge1 Ge+4 0.25 0.5 0 1 0.0
Na1 Na+1 0.1933 0.1933 0.1933 1 0.0
