#------------------------------------------------------------------------------
#$Date: 2018-01-17 08:25:59 +0200 (Wed, 17 Jan 2018) $
#$Revision: 205309 $
#$URL: file:///home/coder/svn-repositories/cod/cif/2/02/09/2020909.cif $
#------------------------------------------------------------------------------
#
# This file is available in the Crystallography Open Database (COD),
# http://www.crystallography.net/. The original data for this entry
# were provided by IUCr Journals, http://journals.iucr.org/.
#
# The file may be used within the scientific community so long as
# proper attribution is given to the journal article from which the
# data were obtained.
#
data_2020909
loop_
_publ_author_name
'Milashius, Viktoria'
'Pavlyuk, Volodymyr'
'Kluziak, Karolina'
'Dmytriv, Grygoriy'
'Ehrenberg, Helmut'
_publ_section_title
;
 LiBC~3~: a new borocarbide based on graphene and heterographene networks
;
_journal_issue                   11
_journal_name_full               'Acta Crystallographica Section C'
_journal_page_first              984
_journal_page_last               989
_journal_paper_doi               10.1107/S2053229617015182
_journal_volume                  73
_journal_year                    2017
_chemical_formula_iupac          'Li0.96 B C3'
_chemical_formula_moiety         '2(C), C B, 0.96(Li)'
_chemical_formula_sum            'C3 B Li0.96'
_chemical_formula_weight         53.50
_chemical_name_systematic
;
Lithium boron tricarbide
;
_space_group_crystal_system      hexagonal
_space_group_IT_number           187
_space_group_name_Hall           'P -6 2'
_space_group_name_H-M_alt        'P -6 m 2'
_symmetry_space_group_name_Hall  'P -6 2'
_symmetry_space_group_name_H-M   'P -6 m 2'
_audit_creation_method           SHELXL-2014/7
_cell_angle_alpha                90
_cell_angle_beta                 90
_cell_angle_gamma                120
_cell_formula_units_Z            1
_cell_length_a                   2.5408(3)
_cell_length_b                   2.5408(3)
_cell_length_c                   7.5989(9)
_cell_measurement_reflns_used    77
_cell_measurement_temperature    293(2)
_cell_measurement_theta_max      29.589
_cell_measurement_theta_min      2.675
_cell_volume                     42.484(9)
_computing_cell_refinement
;
CrysAlis CCD (Oxford Diffraction, 2008)
;
_computing_data_collection
;
CrysAlis CCD (Oxford Diffraction, 2008)
;
_computing_data_reduction
;
CrysAlis RED (Oxford Diffraction, 2008)
;
_computing_molecular_graphics
;
DIAMOND (Brandenburg, 2006)
;
_computing_publication_material
;
SHELXL2014 (Sheldrick, 2015)
;
_computing_structure_refinement
;
SHELXL2014 (Sheldrick, 2015)
;
_computing_structure_solution
;
SHELXS2014 (Sheldrick, 2008)
;
_diffrn_ambient_temperature      293(2)
_diffrn_measured_fraction_theta_full 1.000
_diffrn_measured_fraction_theta_max 1.000
_diffrn_measurement_device_type  'Oxford Diffraction Xcalibur3 CCD'
_diffrn_measurement_method       '\w scans'
_diffrn_radiation_type           MoK\a
_diffrn_radiation_wavelength     0.71073
_diffrn_reflns_av_R_equivalents  0.1104
_diffrn_reflns_limit_h_max       3
_diffrn_reflns_limit_h_min       -3
_diffrn_reflns_limit_k_max       3
_diffrn_reflns_limit_k_min       -3
_diffrn_reflns_limit_l_max       10
_diffrn_reflns_limit_l_min       -10
_diffrn_reflns_number            1554
_diffrn_reflns_theta_full        29.65
_diffrn_reflns_theta_max         29.654
_diffrn_reflns_theta_min         2.680
_exptl_absorpt_coefficient_mu    0.102
_exptl_absorpt_correction_T_max  0.998
_exptl_absorpt_correction_T_min  0.993
_exptl_absorpt_correction_type   analytical
_exptl_absorpt_process_details
;
(CrysAlis RED; Oxford Diffraction, 2008)
;
_exptl_crystal_colour            'metallic grey'
_exptl_crystal_density_diffrn    2.091
_exptl_crystal_density_meas      2.13(3)
_exptl_crystal_density_method    volumetric
_exptl_crystal_description       plate
_exptl_crystal_F_000             25.9
_exptl_crystal_size_max          0.08
_exptl_crystal_size_mid          0.06
_exptl_crystal_size_min          0.01
_refine_diff_density_max         0.145
_refine_diff_density_min         -0.153
_refine_ls_abs_structure_details
;
;
_refine_ls_extinction_method     none
_refine_ls_goodness_of_fit_ref   1.231
_refine_ls_matrix_type           full
_refine_ls_number_parameters     11
_refine_ls_number_reflns         77
_refine_ls_number_restraints     0
_refine_ls_restrained_S_all      1.231
_refine_ls_R_factor_all          0.0348
_refine_ls_R_factor_gt           0.0323
_refine_ls_shift/su_max          0.000
_refine_ls_shift/su_mean         0.000
_refine_ls_structure_factor_coef Fsqd
_refine_ls_weighting_details
'w=1/[\s^2^(Fo^2^)+(0.0528P)^2^+0.0041P] where P=(Fo^2^+2Fc^2^)/3'
_refine_ls_weighting_scheme      calc
_refine_ls_wR_factor_gt          0.0959
_refine_ls_wR_factor_ref         0.0984
_reflns_number_gt                73
_reflns_number_total             77
_reflns_threshold_expression     'I > 2\s(I)'
_cod_data_source_file            yo3041sup1.cif
_cod_data_source_block           I
_cod_database_code               2020909
_shelx_space_group_comment
;
The symmetry employed for this shelxl refinement is uniquely defined
by the following loop, which should always be used as a source of
symmetry information in preference to the above space-group names.
They are only intended as comments.
;
_shelx_hkl_file
;
  -3   1  -4    6.06    1.01
  -3   1  -3    0.91    0.56
  -3   1  -3    0.92    0.68
  -3   1  -3    1.02    0.55
  -3   1  -3    1.03    0.67
  -3   1  -2   15.96    2.20
  -3   1  -2   12.74    1.84
  -3   1  -2   12.75    1.97
  -3   1  -2   15.79    2.07
  -3   1  -1    1.98    0.87
  -3   1  -1    1.96    0.75
  -3   1  -1   -0.02    0.48
  -3   1  -1    0.51    0.37
  -3   1   0   12.01    2.01
  -3   1   0   11.88    1.88
  -3   1   0   10.96    1.66
  -3   1   0   11.08    1.79
  -3   1   1    1.68    0.86
  -3   1   1    1.66    0.74
  -3   1   1   -0.03    0.49
  -3   1   1    0.52    0.38
  -3   1   2   14.26    2.01
  -3   1   2   14.43    2.16
  -3   1   2   13.97    1.88
  -3   1   2   14.27    2.03
  -3   1   3    0.90    0.67
  -3   1   3    0.76    0.37
  -3   1   3    1.30    0.56
  -3   1   3    1.31    0.68
  -3   2  -3    1.42    0.67
  -3   2  -3    1.96    0.75
  -3   2  -3    1.40    0.55
  -3   2  -3    1.98    0.87
  -3   2  -2   16.49    2.20
  -3   2  -2   16.44    2.07
  -3   2  -2   17.26    2.34
  -3   2  -2   16.94    2.21
  -3   2  -1    2.71    1.04
  -3   2  -1    1.19    0.68
  -3   2  -1    2.68    0.92
  -3   2  -1    1.18    0.56
  -3   2   0   13.78    1.97
  -3   2   0   14.49    2.07
  -3   2   0   13.63    1.84
  -3   2   0   14.65    2.20
  -3   2   1    2.87    0.94
  -3   2   1    2.90    1.06
  -3   2   1    1.15    0.55
  -3   2   1    1.16    0.67
  -3   2   2   18.47    2.38
  -3   2   2   18.27    2.25
  -3   2   2   15.46    2.16
  -3   2   2   15.16    2.03
  -3   2   3    1.57    0.56
  -3   2   3    1.80    0.86
  -3   2   3    1.59    0.68
  -3   2   3    1.78    0.74
  -2  -1  -3    0.38    0.37
  -2  -1  -3   -0.06    0.28
  -2  -1  -3    0.38    0.48
  -2  -1  -3    0.26    0.29
  -2  -1  -2   10.06    1.66
  -2  -1  -2   10.17    1.79
  -2  -1  -2   12.14    2.01
  -2  -1  -2   12.01    1.88
  -2  -1  -1    0.13    0.29
  -2  -1  -1    0.78    0.38
  -2  -1  -1    0.79    0.49
  -2  -1   0    8.32    1.63
  -2  -1   0    7.90    1.47
  -2  -1   0    7.99    1.60
  -2  -1   0    8.23    1.50
  -2  -1   1    0.77    0.48
  -2  -1   1    0.76    0.37
  -2  -1   1   -0.13    0.29
  -2  -1   2   10.69    1.82
  -2  -1   2   10.57    1.69
  -2  -1   2   11.59    1.79
  -2  -1   2   11.46    1.66
  -2  -1   3    0.53    0.49
  -2  -1   3    0.52    0.38
  -2  -1   3    0.25    0.18
  -2  -1   3    0.25    0.29
  -2   0  -6   11.23    1.69
  -2   0  -6   15.33    2.16
  -2   0  -6   15.16    2.03
  -2   0  -6   11.35    1.82
  -2   0  -5   -0.01    0.28
  -2   0  -5    2.32    0.86
  -2   0  -5    2.29    0.74
  -2   0  -4   19.32    2.34
  -2   0  -4   13.44    1.88
  -2   0  -4   18.98    2.21
  -2   0  -4   13.59    2.01
  -2   0  -3    0.52    0.48
  -2   0  -3    0.51    0.37
  -2   0  -3    1.31    0.68
  -2   0  -3    1.30    0.56
  -2   0  -2   42.10    3.53
  -2   0  -2   45.33    3.65
  -2   0  -2   41.64    3.38
  -2   0  -2   44.84    3.50
  -2   0  -1    2.42    0.74
  -2   0  -1    0.26    0.29
  -2   0  -1    2.45    0.86
  -2   0  -1    0.26    0.18
  -2   0   0   27.13    2.76
  -2   0   0   28.45    2.82
  -2   0   0   28.63    2.96
  -2   0   0   27.56    2.90
  -2   0   1    0.25    0.18
  -2   0   1    0.25    0.29
  -2   0   1    2.75    0.94
  -2   0   1    2.78    1.06
  -2   0   2   47.64    3.57
  -2   0   2   48.16    3.72
  -2   0   2   38.98    3.13
  -2   0   2   39.54    3.46
  -2   0   3    0.53    0.49
  -2   0   3    0.52    0.38
  -2   0   3    1.16    0.67
  -2   0   3    1.15    0.55
  -2   0   4   20.19    2.38
  -2   0   4   13.01    1.97
  -2   0   4   19.97    2.25
  -2   0   4   12.74    1.84
  -2   0   5    2.35    0.75
  -2   0   5   -0.07    0.29
  -2   0   5    2.38    0.87
  -2   0   6   10.56    1.79
  -2   0   6   16.24    2.20
  -2   0   6   16.06    2.07
  -2   0   6   10.45    1.66
  -2   1  -7    1.18    0.56
  -2   1  -7    1.16    0.67
  -2   1  -7    3.21    0.68
  -2   1  -7    1.15    0.55
  -2   1  -6   55.80    3.87
  -2   1  -6   58.86    4.10
  -2   1  -6   58.22    3.95
  -2   1  -6   56.41    4.02
  -2   1  -5    3.19    0.48
  -2   1  -5    2.35    1.13
  -2   1  -5    2.59    0.37
  -2   1  -5    1.80    0.58
  -2   1  -4  160.59    6.76
  -2   1  -4  153.13    6.44
  -2   1  -4  151.46    6.26
  -2   1  -4  158.98    6.58
  -2   1  -3    3.69    0.92
  -2   1  -3    3.73    1.04
  -2   1  -3    3.78    0.94
  -2   1  -3    3.82    1.06
  -2   1  -2    1.95    7.32
  -2   1  -2  197.15    7.51
  -2   1  -2  187.39    0.07
  -2   1  -2  189.45    7.19
  -2   1  -1    3.44    0.92
  -2   1  -1    3.43    1.06
  -2   1  -1    3.48    1.04
  -2   1  -1    3.52    0.94
  -2   1   0  325.94    9.60
  -2   1   0  307.26    9.02
  -2   1   0  310.64    9.23
  -2   1   0  322.39   10.41
  -2   1   1    3.48    1.04
  -2   1   1    3.39    0.94
  -2   1   1    3.44    0.92
  -2   1   1    3.56    1.06
  -2   1   2  197.15    7.51
  -2   1   2    1.95    7.32
  -2   1   2  189.45    7.19
  -2   1   2  187.39    0.07
  -2   1   3    3.78    0.94
  -2   1   3    3.82    1.06
  -2   1   3    3.69    0.92
  -2   1   3    3.73    1.04
  -2   1   4  153.13    6.44
  -2   1   4  160.73    6.76
  -2   1   4  158.84    6.58
  -2   1   4  151.46    6.26
  -2   1   5    2.76    0.37
  -2   1   5    2.83    0.38
  -2   1   5    3.19    0.89
  -2   1   5    2.96    0.80
  -2   1   6   55.80    3.87
  -2   1   6   58.86    4.10
  -2   1   6   58.22    3.95
  -2   1   6   56.41    4.02
  -2   1   7    1.15    0.55
  -2   1   7    1.18    0.56
  -2   1   7    1.19    0.68
  -2   1   7    1.16    0.67
  -2   2  -6   19.52    2.38
  -2   2  -6   13.65    1.97
  -2   2  -6   19.19    2.25
  -2   2  -6   13.50    1.84
  -2   2  -5    0.38    0.37
  -2   2  -5    3.78    0.94
  -2   2  -5    0.38    0.48
  -2   2  -5    3.82    1.06
  -2   2  -4    0.26    2.77
  -2   2  -4   25.58    2.63
  -2   2  -4   17.77    2.34
  -2   2  -4   17.58    2.21
  -2   2  -3    2.71    1.04
  -2   2  -3    1.43    0.56
  -2   2  -3    1.31    0.68
  -2   2  -3    2.68    0.92
  -2   2  -2   56.47    4.10
  -2   2  -2   55.73    3.95
  -2   2  -2   48.03    3.50
  -2   2  -2   48.56    3.65
  -2   2  -1    5.01    1.24
  -2   2  -1    0.65    0.48
  -2   2  -1    0.64    0.37
  -2   2  -1    4.96    1.12
  -2   2   0   36.58    3.27
  -2   2   0   37.07    3.19
  -2   2   0   37.61    3.34
  -2   2   0   36.31    3.13
  -2   2   1    4.84    1.10
  -2   2   1    0.66    0.38
  -2   2   1    4.89    1.22
  -2   2   1    0.67    0.49
  -2   2   2   49.75    3.72
  -2   2   2   54.52    3.87
  -2   2   2   54.99    4.02
  -2   2   2   49.21    3.57
  -2   2   3    2.75    0.94
  -2   2   3    2.78    1.06
  -2   2   3    1.42    0.67
  -2   2   3    1.27    0.55
  -2   2   4   25.24    2.72
  -2   2   4   18.01    2.25
  -2   2   4   25.10    2.58
  -2   2   4   18.21    2.38
  -2   2   5    3.69    0.92
  -2   2   5    3.73    1.04
  -2   2   5    0.39    0.49
  -2   2   5    0.39    0.38
  -2   2   6   18.94    2.34
  -2   2   6   18.85    2.21
  -2   2   6   13.83    1.88
  -2   2   6   13.98    2.01
  -2   3  -3    1.55    0.67
  -2   3  -3    1.82    0.75
  -2   3  -3    1.53    0.55
  -2   3  -3    1.84    0.87
  -2   3  -2   17.83    2.21
  -2   3  -2   15.67    2.07
  -2   3  -2   18.03    2.34
  -2   3  -2   15.70    2.20
  -2   3  -1    1.19    0.68
  -2   3  -1    2.83    1.04
  -2   3  -1    1.18    0.56
  -2   3  -1    2.80    0.92
  -2   3   0   14.30    2.16
  -2   3   0   14.12    2.01
  -2   3   0   13.97    1.88
  -2   3   0   14.14    2.03
  -2   3   1    2.75    0.94
  -2   3   1    1.15    0.55
  -2   3   1    2.78    1.06
  -2   3   1    1.16    0.67
  -2   3   2   16.23    2.16
  -2   3   2   17.55    2.38
  -2   3   2   15.92    2.03
  -2   3   2   17.49    2.25
  -2   3   3    1.43    0.56
  -2   3   3    1.93    0.86
  -2   3   3    1.91    0.74
  -2   3   3    1.45    0.68
  -1  -2  -3    0.39    0.38
  -1  -2  -3    0.39    0.49
  -1  -2  -3    0.25    0.29
  -1  -2  -3    0.25    0.18
  -1  -2  -2   10.42    1.82
  -1  -2  -2   10.31    1.69
  -1  -2  -2   11.85    1.97
  -1  -2  -2   11.72    1.84
  -1  -2  -1    0.13    0.29
  -1  -2  -1    0.77    0.48
  -1  -2  -1    0.76    0.37
  -1  -2   0    8.12    1.60
  -1  -2   0    8.09    1.50
  -1  -2   0    8.18    1.63
  -1  -2   0    8.03    1.47
  -1  -2   1   -0.13    0.29
  -1  -2   1    0.78    0.38
  -1  -2   1    0.79    0.49
  -1  -2   2   10.43    1.79
  -1  -2   2   10.32    1.66
  -1  -2   2   11.87    1.82
  -1  -2   2   11.74    1.69
  -1  -2   3    0.26    0.18
  -1  -2   3    0.52    0.48
  -1  -2   3    0.51    0.37
  -1  -2   3    0.26    0.29
  -1  -1  -7    1.02    0.55
  -1  -1  -7    1.05    0.56
  -1  -1  -7    1.03    0.67
  -1  -1  -7    1.06    0.68
  -1  -1  -6   47.77    3.50
  -1  -1  -6   48.30    3.65
  -1  -1  -6   49.48    3.72
  -1  -1  -6   48.94    3.57
  -1  -1  -5    0.52    0.48
  -1  -1  -5    0.52    0.38
  -1  -1  -5    0.51    0.37
  -1  -1  -5    0.53    0.49
  -1  -1  -4  134.78    6.08
  -1  -1  -4  138.09    6.20
  -1  -1  -4  139.61    6.38
  -1  -1  -4  136.26    6.26
  -1  -1  -3    3.48    1.04
  -1  -1  -3    3.56    1.06
  -1  -1  -3    3.52    0.94
  -1  -1  -3    3.44    0.92
  -1  -1  -2  164.71    6.76
  -1  -1  -2  166.52    6.94
  -1  -1  -2  160.76    6.63
  -1  -1  -2  162.53    6.81
  -1  -1  -1    3.06    0.92
  -1  -1  -1    3.14    0.94
  -1  -1  -1    3.03    1.06
  -1  -1  -1    2.96    1.04
  -1  -1   0  151.54    8.64
  -1  -1   0  167.80    8.67
  -1  -1   0  174.78    8.47
  -1  -1   0  164.64    8.85
  -1  -1   1    2.93    0.92
  -1  -1   1    3.09    1.04
  -1  -1   1   -0.03    0.94
  -1  -1   1    3.17    1.06
  -1  -1   2  164.71    6.76
  -1  -1   2  162.53    6.81
  -1  -1   2  160.76    6.63
  -1  -1   2  166.52    6.94
  -1  -1   3    3.52    0.94
  -1  -1   3    3.56    1.06
  -1  -1   3    3.48    1.04
  -1  -1   3    3.44    0.92
  -1  -1   4  138.09    6.20
  -1  -1   4  134.78    6.08
  -1  -1   4  139.61    6.38
  -1  -1   4  136.26    6.26
  -1  -1   5    0.53    0.49
  -1  -1   5    0.52    0.38
  -1  -1   5    0.52    0.48
  -1  -1   5    0.51    0.37
  -1  -1   6   47.77    3.50
  -1  -1   6   48.30    3.65
  -1  -1   6   49.48    3.72
  -1  -1   6   48.94    3.57
  -1  -1   7    1.05    0.56
  -1  -1   7    1.03    0.67
  -1  -1   7    1.02    0.55
  -1  -1   7    1.06    0.68
  -1   0  -9    0.13    0.18
  -1   0  -9    2.09    0.75
  -1   0  -9    2.11    0.87
  -1   0  -9    0.13    0.29
  -1   0  -8    6.88    1.29
  -1   0  -8    6.96    1.41
  -1   0  -8   15.04    2.20
  -1   0  -8   14.88    2.07
  -1   0  -7    1.02    0.55
  -1   0  -7    1.03    0.67
  -1   0  -7    1.05    0.56
  -1   0  -7    1.06    0.68
  -1   0  -6   38.25    3.27
  -1   0  -6   37.96    3.13
  -1   0  -6   58.22    3.95
  -1   0  -6   58.98    4.10
  -1   0  -5    0.65    0.48
  -1   0  -5    0.51    0.37
  -1   0  -5    8.23    1.50
  -1   0  -5    8.32    1.63
  -1   0  -4   77.01    4.51
  -1   0  -4   47.53    3.65
  -1   0  -4   78.11    4.67
  -1   0  -4   47.13    3.50
  -1   0  -3    3.70    1.06
  -1   0  -3    4.71    1.10
  -1   0  -3    4.64    1.22
  -1   0  -3    3.78    0.94
  -1   0  -2  251.27    8.30
  -1   0  -2  300.46    9.02
  -1   0  -2  248.92    8.10
  -1   0  -2  304.03    9.23
  -1   0  -1   18.35    2.38
  -1   0  -1   18.15    2.25
  -1   0  -1    4.59    1.10
  -1   0  -1    4.76    1.22
  -1   0   0  153.57    7.37
  -1   0   0  155.41    7.56
  -1   0   0  158.97    7.52
  -1   0   0  151.65    7.71
  -1   0   1   17.51    2.34
  -1   0   1    4.62    1.24
  -1   0   1    4.70    1.12
  -1   0   1   17.32    2.21
  -1   0   2  293.90    9.05
  -1   0   2  257.13    8.26
  -1   0   2  260.35    8.46
  -1   0   2  290.96    9.84
  -1   0   3    3.69    0.92
  -1   0   3    5.01    1.24
  -1   0   3    4.96    1.12
  -1   0   3    3.86    1.04
  -1   0   4   75.60    4.58
  -1   0   4   48.42    3.57
  -1   0   4   75.03    4.42
  -1   0   4   49.09    3.72
  -1   0   5    7.90    1.47
  -1   0   5    0.66    0.38
  -1   0   5    7.99    1.60
  -1   0   5    0.53    0.49
  -1   0   6   39.71    3.34
  -1   0   6   56.93    4.02
  -1   0   6   39.16    3.19
  -1   0   6   56.43    3.87
  -1   0   7    1.02    0.55
  -1   0   7    1.03    0.67
  -1   0   7    1.05    0.56
  -1   0   7    1.06    0.68
  -1   0   8    7.13    1.44
  -1   0   8   14.55    2.16
  -1   0   8    7.05    1.32
  -1   0   8   14.39    2.03
  -1   0   9    0.13    0.18
  -1   0   9    1.91    0.74
  -1   0   9    1.93    0.86
  -1   0   9    0.13    0.29
  -1   1  -9    2.19    0.86
  -1   1  -9   -0.11    0.29
  -1   1  -9    0.13    0.18
  -1   1  -9    2.17    0.74
  -1   1  -8    7.78    1.63
  -1   1  -8    7.70    1.50
  -1   1  -8   15.58    2.16
  -1   1  -8   15.41    2.03
  -1   1  -7    1.30    0.56
  -1   1  -7    1.16    0.67
  -1   1  -7    1.27    0.55
  -1   1  -7    1.31    0.68
  -1   1  -6   41.43    3.53
  -1   1  -6   58.98    4.05
  -1   1  -6   59.63    4.20
  -1   1  -6   41.12    3.38
  -1   1  -5    8.92    1.47
  -1   1  -5    0.39    0.49
  -1   1  -5    0.39    0.38
  -1   1  -5    8.89    1.60
  -1   1  -4   81.01    4.76
  -1   1  -4   52.65    3.90
  -1   1  -4   52.21    3.75
  -1   1  -4    0.80    4.60
  -1   1  -3    3.82    0.92
  -1   1  -3    6.14    1.32
  -1   1  -3    6.21    1.44
  -1   1  -3    3.73    1.04
  -1   1  -2  269.19    8.66
  -1   1  -2  306.51    9.23
  -1   1  -2  302.93    9.02
  -1   1  -2  266.53    8.46
  -1   1  -1   20.51    2.39
  -1   1  -1    4.09    1.24
  -1   1  -1   20.74    2.53
  -1   1  -1    3.91    0.94
  -1   1   0  152.41    7.70
  -1   1   0  156.69    7.55
  -1   1   0  154.46    7.89
  -1   1   0  159.46    7.74
  -1   1   1   21.24    2.58
  -1   1   1    3.86    1.04
  -1   1   1   21.01    2.44
  -1   1   1    3.95    1.10
  -1   1   2  262.99    8.49
  -1   1   2  310.64    9.20
  -1   1   2  313.79    9.41
  -1   1   2  289.87    8.29
  -1   1   3    3.78    0.94
  -1   1   3    5.99    1.29
  -1   1   3    3.95    1.06
  -1   1   3    6.06    1.41
  -1   1   4   50.83    3.68
  -1   1   4   82.87    4.85
  -1   1   4   51.52    3.83
  -1   1   4   82.10    4.69
  -1   1   5    9.24    1.63
  -1   1   5    9.01    1.50
  -1   1   5    0.38    0.37
  -1   1   5    0.38    0.48
  -1   1   6    0.40    3.31
  -1   1   6   61.09    4.29
  -1   1   6   60.43    4.13
  -1   1   6   40.57    3.46
  -1   1   7    1.18    0.56
  -1   1   7    1.28    0.67
  -1   1   7    1.31    0.68
  -1   1   7    1.27    0.55
  -1   1   8   15.96    2.20
  -1   1   8   15.79    2.07
  -1   1   8    7.60    1.60
  -1   1   8    7.52    1.47
  -1   1   9    2.24    0.87
  -1   1   9    0.13    0.18
  -1   1   9    0.13    0.29
  -1   1   9    2.22    0.75
  -1   2  -7    1.18    0.56
  -1   2  -7    1.19    0.68
  -1   2  -7    1.16    0.67
  -1   2  -7    1.15    0.55
  -1   2  -6   57.80    4.10
  -1   2  -6   57.17    3.95
  -1   2  -6   57.45    4.02
  -1   2  -6   56.82    3.87
  -1   2  -5    2.86    0.49
  -1   2  -5    3.24    0.79
  -1   2  -5    2.79    0.48
  -1   2  -5    2.86    0.67
  -1   2  -4  156.89    6.57
  -1   2  -4  156.74    6.63
  -1   2  -4  155.18    6.39
  -1   2  -4  155.16    6.45
  -1   2  -3    3.78    0.94
  -1   2  -3    3.69    0.92
  -1   2  -3    3.73    1.04
  -1   2  -3    3.82    1.06
  -1   2  -2  190.32    7.18
  -1   2  -2  192.41    7.37
  -1   2  -2    1.92    7.14
  -1   2  -2  194.11    7.33
  -1   2  -1    3.52    0.94
  -1   2  -1    3.44    0.92
  -1   2  -1    3.35    1.04
  -1   2  -1    3.56    1.06
  -1   2   0  318.28    9.41
  -1   2   0  314.65    9.21
  -1   2   0  318.11   10.43
  -1   2   0  314.82    9.20
  -1   2   1    3.31    0.92
  -1   2   1    3.56    1.06
  -1   2   1    3.52    0.94
  -1   2   1    3.48    1.04
  -1   2   2  192.41    7.37
  -1   2   2  190.32    7.18
  -1   2   2  194.11    7.33
  -1   2   2    1.92    7.14
  -1   2   3    3.78    0.94
  -1   2   3    3.69    0.92
  -1   2   3    3.73    1.04
  -1   2   3    3.82    1.06
  -1   2   4  155.03    6.45
  -1   2   4  156.89    6.57
  -1   2   4  155.18    6.39
  -1   2   4  156.87    6.63
  -1   2   5    2.26    0.99
  -1   2   5    1.78    0.69
  -1   2   5    3.24    0.38
  -1   2   5    2.68    0.49
  -1   2   6   57.17    3.95
  -1   2   6   57.80    4.10
  -1   2   6   56.82    3.87
  -1   2   6   57.45    4.02
  -1   2   7    3.18    0.56
  -1   2   7    1.16    0.67
  -1   2   7    2.95    0.55
  -1   2   7    1.19    0.68
  -1   2   8   25.73    1.76
  -1   2   8   20.03    1.56
  -1   3  -3    0.91    0.56
  -1   3  -3    1.28    0.67
  -1   3  -3    0.79    0.49
  -1   3  -3    1.27    0.55
  -1   3  -2   14.62    2.07
  -1   3  -2   14.78    2.20
  -1   3  -2   13.76    1.84
  -1   3  -2   13.78    1.97
  -1   3  -1    1.72    0.87
  -1   3  -1    0.52    0.48
  -1   3  -1    1.70    0.75
  -1   3  -1    0.51    0.37
  -1   3   0   11.72    1.97
  -1   3   0   11.23    1.69
  -1   3   0   11.35    1.82
  -1   3   0   11.59    1.84
  -1   3   1    1.91    0.74
  -1   3   1    0.52    0.38
  -1   3   1    1.93    0.86
  -1   3   1    0.53    0.49
  -1   3   2   12.92    1.88
  -1   3   2   15.41    2.03
  -1   3   2   15.58    2.16
  -1   3   2   13.19    2.01
  -1   3   3    1.05    0.56
  -1   3   3    0.90    0.67
  -1   3   3    0.89    0.55
  -1   3   3    1.06    0.68
  -1   3   4    6.33    0.82
  -1   3   5    1.11    1.23
   0  -3  -2   17.41    2.14
   0  -3  -1    2.13    0.75
   0  -3   0   19.24    1.23
   0  -3   0   19.13    1.14
   0  -3   0   19.29    1.33
   0  -2  -8    6.18    1.35
   0  -2  -7    0.13    0.54
   0  -2  -7    0.14    0.61
   0  -2  -6   11.08    1.79
   0  -2  -6   10.96    1.66
   0  -2  -6   15.70    2.20
   0  -2  -6   15.53    2.07
   0  -2  -5    2.35    0.75
   0  -2  -5    0.00    0.18
   0  -2  -5    2.38    0.87
   0  -2  -4   13.12    1.84
   0  -2  -4   19.45    2.25
   0  -2  -4   19.80    2.38
   0  -2  -4   13.26    1.97
   0  -2  -3    0.52    0.38
   0  -2  -3    0.53    0.49
   0  -2  -3    1.27    0.55
   0  -2  -3    1.28    0.67
   0  -2  -2   40.64    3.31
   0  -2  -2   46.45    3.72
   0  -2  -2   45.94    3.57
   0  -2  -2   41.09    3.46
   0  -2  -1    2.51    0.87
   0  -2  -1    0.25    0.29
   0  -2  -1    0.25    0.18
   0  -2  -1    2.48    0.75
   0  -2   0   27.94    2.90
   0  -2   0   27.80    2.82
   0  -2   0   28.24    2.96
   0  -2   0   27.77    2.76
   0  -2   1    2.68    0.92
   0  -2   1    0.26    0.29
   0  -2   1    0.26    0.18
   0  -2   1    2.71    1.04
   0  -2   2   40.51    3.53
   0  -2   2   39.94    3.19
   0  -2   2   47.01    3.65
   0  -2   2   46.50    3.50
   0  -2   3    1.19    0.68
   0  -2   3    1.18    0.56
   0  -2   3    0.52    0.48
   0  -2   3    0.51    0.37
   0  -2   4   19.70    2.34
   0  -2   4   13.34    2.01
   0  -2   4   19.49    2.21
   0  -2   4   13.05    1.88
   0  -2   5    2.29    0.74
   0  -2   5    0.00    0.29
   0  -2   5    2.32    0.86
   0  -2   6   15.67    2.03
   0  -2   6   10.71    1.69
   0  -2   6   15.84    2.16
   0  -2   6   10.83    1.82
   0  -1 -10    6.19    1.14
   0  -1  -9    2.04    0.74
   0  -1  -9    2.06    0.86
   0  -1  -9    0.13    0.29
   0  -1  -9    0.13    0.18
   0  -1  -8    7.13    1.44
   0  -1  -8   14.68    2.16
   0  -1  -8    7.05    1.32
   0  -1  -8   14.52    2.03
   0  -1  -7    1.03    0.67
   0  -1  -7    1.05    0.56
   0  -1  -7    1.02    0.55
   0  -1  -7    1.06    0.68
   0  -1  -6   56.82    3.87
   0  -1  -6   39.19    3.34
   0  -1  -6   57.57    4.02
   0  -1  -6   38.89    3.19
   0  -1  -5    0.67    0.49
   0  -1  -5    8.12    1.60
   0  -1  -5    0.52    0.38
   0  -1  -5    8.03    1.47
   0  -1  -4   48.70    3.72
   0  -1  -4   76.24    4.58
   0  -1  -4   48.29    3.57
   0  -1  -4   75.16    4.42
   0  -1  -3    3.69    0.92
   0  -1  -3    4.75    1.24
   0  -1  -3    4.83    1.12
   0  -1  -3    3.61    1.04
   0  -1  -2  255.04    8.26
   0  -1  -2  293.25    8.84
   0  -1  -2  327.06    9.05
   0  -1  -2  257.45    8.46
   0  -1  -1   17.90    2.34
   0  -1  -1    4.70    1.12
   0  -1  -1   17.71    2.21
   0  -1  -1    4.88    1.24
   0  -1   0  153.95    7.37
   0  -1   0  156.58    7.56
   0  -1   0  158.58    7.52
   0  -1   0  160.47    7.71
   0  -1   1   17.95    2.38
   0  -1   1    4.59    1.10
   0  -1   1    4.51    1.22
   0  -1   1   17.75    2.25
   0  -1   2  250.96    8.10
   0  -1   2  301.13    9.23
   0  -1   2  298.11   10.04
   0  -1   2  254.10    8.30
   0  -1   3    3.78    0.94
   0  -1   3    4.84    1.10
   0  -1   3    3.95    1.06
   0  -1   3    4.89    1.22
   0  -1   4   47.91    3.65
   0  -1   4   47.26    3.50
   0  -1   4   76.88    4.51
   0  -1   4   77.46    4.67
   0  -1   5    0.64    0.37
   0  -1   5    8.18    1.63
   0  -1   5    0.52    0.48
   0  -1   5    8.09    1.50
   0  -1   6   58.32    4.10
   0  -1   6   38.22    3.13
   0  -1   6   38.76    3.27
   0  -1   6   57.82    3.95
   0  -1   7    1.03    0.67
   0  -1   7    1.06    0.68
   0  -1   7    1.02    0.55
   0  -1   7    1.05    0.56
   0  -1   8    6.88    1.29
   0  -1   8   14.74    2.07
   0  -1   8    6.96    1.41
   0  -1   8   14.90    2.20
   0  -1   9    1.98    0.87
   0  -1   9    0.13    0.18
   0  -1   9    0.13    0.29
   0  -1   9    1.96    0.75
   0   0 -10   23.07    2.05
   0   0 -10   18.32    1.92
   0   0 -10   18.19    2.04
   0   0  -9    1.40    0.59
   0   0  -9    1.52    0.68
   0   0  -9    1.48    0.67
   0   0  -9    1.43    0.60
   0   0  -8    0.80    4.60
   0   0  -8   80.88    4.76
   0   0  -8   81.97    4.69
   0   0  -8   82.87    4.85
   0   0  -7    2.39    1.12
   0   0  -7    2.36    1.22
   0   0  -7    2.33    1.10
   0   0  -7    2.42    1.24
   0   0  -6  183.31    0.07
   0   0  -6  187.82    7.14
   0   0  -6  185.33    7.19
   0   0  -6  189.89    7.33
   0   0  -5    3.78    0.94
   0   0  -5    3.82    1.06
   0   0  -5    3.73    1.04
   0   0  -5    3.69    0.92
   0   0  -4  949.04   16.06
   0   0  -4  926.26   15.75
   0   0  -4  926.43   15.47
   0   0  -4  949.21   15.78
   0   0  -3   10.63    1.43
   0   0  -3    9.60    1.34
   0   0  -3   10.83    1.46
   0   0  -3   10.42    1.31
   0   0  -2 2364.94   46.89
   0   0  -2 2338.03   43.39
   0   0  -2 2296.18   45.97
   0   0  -2 2267.51   42.54
   0   0  -1   12.06    1.36
   0   0  -1   12.21    1.38
   0   0  -1   12.39    1.26
   0   0  -1   11.24    1.24
   0   0   1   12.99    1.24
   0   0   1   10.14    1.26
   0   0   1    9.46    1.38
   0   0   1   11.31    1.36
   0   0   2 2306.06   42.81
   0   0   2 2296.45   47.52
   0   0   2 2336.31   41.97
   0   0   2 2226.94   46.59
   0   0   3    9.95    1.31
   0   0   3    9.68    1.46
   0   0   3    9.50    1.43
   0   0   3   10.74    1.34
   0   0   4  938.71   15.78
   0   0   4  959.65   16.06
   0   0   4  916.18   15.47
   0   0   4  936.62   15.75
   0   0   5    3.73    1.04
   0   0   5    3.69    0.92
   0   0   5    3.78    0.94
   0   0   5    3.82    1.06
   0   0   6  183.31    0.07
   0   0   6  187.82    7.14
   0   0   6  189.89    7.33
   0   0   6  185.33    7.19
   0   0   7    2.42    1.24
   0   0   7    2.36    1.22
   0   0   7    2.39    1.12
   0   0   7    2.33    1.10
   0   0   8   81.97    4.69
   0   0   8   80.88    4.76
   0   0   8    0.80    4.60
   0   0   8   82.87    4.85
   0   0   9    1.54    0.80
   0   0   9    1.50    0.79
   0   0   9    1.38    0.47
   0   0   9    1.41    0.48
   0   0  10   17.99    1.91
   0   0  10   22.82    1.92
   0   0  10   18.52    2.05
   0   1  -9    0.13    0.18
   0   1  -9    1.98    0.87
   0   1  -9    1.96    0.75
   0   1  -9    0.13    0.29
   0   1  -8   14.74    2.07
   0   1  -8    6.88    1.29
   0   1  -8    6.96    1.41
   0   1  -8   14.90    2.20
   0   1  -7    1.06    0.68
   0   1  -7    1.03    0.67
   0   1  -7    1.05    0.56
   0   1  -7    1.02    0.55
   0   1  -6   38.64    3.27
   0   1  -6   58.46    4.10
   0   1  -6   57.69    3.95
   0   1  -6   38.34    3.13
   0   1  -5    8.09    1.50
   0   1  -5    0.65    0.48
   0   1  -5    8.18    1.63
   0   1  -5    0.51    0.37
   0   1  -4   47.78    3.65
   0   1  -4   47.39    3.50
   0   1  -4   76.62    4.51
   0   1  -4   77.73    4.67
   0   1  -3    3.91    0.94
   0   1  -3    4.89    1.22
   0   1  -3    3.82    1.06
   0   1  -3    4.84    1.10
   0   1  -2  301.39   10.26
   0   1  -2  253.72    8.30
   0   1  -2  297.85    9.02
   0   1  -2  251.34    8.10
   0   1  -1    4.46    1.10
   0   1  -1   17.75    2.25
   0   1  -1    4.64    1.22
   0   1  -1   17.95    2.38
   0   1   0  148.87    7.71
   0   1   0  156.19    7.56
   0   1   0  148.18    7.52
   0   1   0  150.33    7.37
   0   1   1    4.75    1.24
   0   1   1    4.83    1.12
   0   1   1   17.71    2.21
   0   1   1   17.90    2.34
   0   1   2  257.85    8.46
   0   1   2  323.50    8.84
   0   1   2  296.48    9.05
   0   1   2  254.65    8.26
   0   1   3    4.88    1.24
   0   1   3    3.57    0.92
   0   1   3    4.70    1.12
   0   1   3    3.73    1.04
   0   1   4   48.82    3.72
   0   1   4   48.17    3.57
   0   1   4   75.41    4.42
   0   1   4   75.99    4.58
   0   1   5    8.12    1.60
   0   1   5    0.66    0.38
   0   1   5    8.03    1.47
   0   1   5    0.53    0.49
   0   1   6   38.76    3.19
   0   1   6   56.94    3.87
   0   1   6   57.45    4.02
   0   1   6   39.32    3.34
   0   1   7    1.06    0.68
   0   1   7    1.03    0.67
   0   1   7    1.05    0.56
   0   1   7    1.02    0.55
   0   1   8    7.05    1.32
   0   1   8   14.68    2.16
   0   1   8    7.13    1.44
   0   1   8   14.52    2.03
   0   1   9    2.04    0.74
   0   1   9    2.06    0.86
   0   1   9    0.13    0.29
   0   1   9    0.13    0.18
   0   1  10    6.12    1.02
   0   2  -6   10.83    1.82
   0   2  -6   15.84    2.16
   0   2  -6   15.67    2.03
   0   2  -6   10.71    1.69
   0   2  -5    0.00    0.18
   0   2  -5    2.32    0.86
   0   2  -5    2.29    0.74
   0   2  -4   19.70    2.34
   0   2  -4   19.49    2.21
   0   2  -4   13.19    1.88
   0   2  -4   13.19    2.01
   0   2  -3    0.52    0.48
   0   2  -3    1.18    0.56
   0   2  -3    0.51    0.37
   0   2  -3    1.19    0.68
   0   2  -2   46.50    3.50
   0   2  -2   40.38    3.34
   0   2  -2   47.01    3.65
   0   2  -2   40.07    3.38
   0   2  -1    2.71    1.04
   0   2  -1    0.26    0.29
   0   2  -1    0.26    0.18
   0   2  -1    2.68    0.92
   0   2   0   27.64    2.76
   0   2   0   28.08    2.90
   0   2   0   28.11    2.96
   0   2   0   27.93    2.82
   0   2   1    0.25    0.18
   0   2   1    2.51    0.87
   0   2   1    2.48    0.75
   0   2   1    0.25    0.29
   0   2   2   41.09    3.46
   0   2   2   40.64    3.31
   0   2   2   45.94    3.57
   0   2   2   46.45    3.72
   0   2   3    1.28    0.67
   0   2   3    0.52    0.38
   0   2   3    0.53    0.49
   0   2   3    1.27    0.55
   0   2   4   13.26    1.97
   0   2   4   13.12    1.84
   0   2   4   19.58    2.25
   0   2   4   19.66    2.38
   0   2   5    2.38    0.87
   0   2   5    0.00    0.29
   0   2   5    2.35    0.75
   0   2   6   10.96    1.66
   0   2   6   11.08    1.79
   0   2   6   15.53    2.07
   0   2   6   15.70    2.20
   0   2   7    0.14    0.49
   0   2   7    0.13    0.43
   0   2   8    6.11    1.23
   0   3   0   19.08    1.21
   0   3   0   19.34    1.26
   0   3   0   19.03    1.11
   0   3   1    2.11    0.63
   0   3   2   17.22    2.01
   1  -3  -5    1.12    1.35
   1  -3  -4    6.40    0.94
   1  -3  -3    1.05    0.56
   1  -3  -3    0.89    0.55
   1  -3  -3    0.90    0.67
   1  -3  -3    1.06    0.68
   1  -3  -2   13.05    1.88
   1  -3  -2   13.06    2.01
   1  -3  -2   15.41    2.03
   1  -3  -2   15.58    2.16
   1  -3  -1    1.93    0.86
   1  -3  -1    0.53    0.49
   1  -3  -1    1.91    0.74
   1  -3  -1    0.52    0.38
   1  -3   0   11.72    1.97
   1  -3   0   11.59    1.84
   1  -3   0   11.35    1.82
   1  -3   0   11.23    1.69
   1  -3   1    0.51    0.37
   1  -3   1    1.70    0.75
   1  -3   1    1.72    0.87
   1  -3   1    0.52    0.48
   1  -3   2   14.62    2.07
   1  -3   2   14.78    2.20
   1  -3   2   13.63    1.84
   1  -3   2   13.91    1.97
   1  -3   3    0.78    0.38
   1  -3   3    1.28    0.67
   1  -3   3    1.27    0.55
   1  -3   3    0.92    0.68
   1  -2  -8   20.25    1.69
   1  -2  -8   26.01    1.89
   1  -2  -7    1.15    0.55
   1  -2  -7    2.98    0.67
   1  -2  -7    1.18    0.56
   1  -2  -7    3.21    0.68
   1  -2  -6   57.17    3.95
   1  -2  -6   57.45    4.02
   1  -2  -6   57.80    4.10
   1  -2  -6   56.82    3.87
   1  -2  -5    2.65    0.38
   1  -2  -5    2.28    1.11
   1  -2  -5    1.76    0.57
   1  -2  -5    3.28    0.49
   1  -2  -4  156.89    6.57
   1  -2  -4  155.16    6.45
   1  -2  -4  156.74    6.63
   1  -2  -4  155.18    6.39
   1  -2  -3    3.69    0.92
   1  -2  -3    3.82    1.06
   1  -2  -3    3.78    0.94
   1  -2  -3    3.73    1.04
   1  -2  -2  192.41    7.37
   1  -2  -2  194.11    7.33
   1  -2  -2  190.32    7.18
   1  -2  -2    1.92    7.14
   1  -2  -1    3.52    0.94
   1  -2  -1    3.35    1.04
   1  -2  -1    3.44    0.92
   1  -2  -1    3.56    1.06
   1  -2   0  314.82    9.20
   1  -2   0  318.28    9.41
   1  -2   0  318.11    9.42
   1  -2   0  314.65   10.21
   1  -2   1    3.31    0.92
   1  -2   1    3.48    1.04
   1  -2   1    3.56    1.06
   1  -2   1    3.52    0.94
   1  -2   2  194.11    7.33
   1  -2   2  190.32    7.18
   1  -2   2  192.41    7.37
   1  -2   2    1.92    7.14
   1  -2   3    3.78    0.94
   1  -2   3    3.69    0.92
   1  -2   3    3.82    1.06
   1  -2   3    3.73    1.04
   1  -2   4  155.18    6.39
   1  -2   4  156.87    6.63
   1  -2   4  155.03    6.45
   1  -2   4  156.89    6.57
   1  -2   5    3.28    0.91
   1  -2   5    2.83    0.38
   1  -2   5    2.89    0.79
   1  -2   5    2.76    0.37
   1  -2   6   57.45    4.02
   1  -2   6   57.80    4.10
   1  -2   6   57.17    3.95
   1  -2   6   56.82    3.87
   1  -2   7    1.19    0.68
   1  -2   7    1.15    0.55
   1  -2   7    1.16    0.67
   1  -2   7    1.18    0.56
   1  -1  -9   -0.13    0.29
   1  -1  -9    2.24    0.87
   1  -1  -9    2.22    0.75
   1  -1  -9    0.13    0.18
   1  -1  -8   15.79    2.07
   1  -1  -8    7.60    1.60
   1  -1  -8   15.96    2.20
   1  -1  -8    7.52    1.47
   1  -1  -7    1.27    0.55
   1  -1  -7    1.30    0.56
   1  -1  -7    1.19    0.68
   1  -1  -7    1.28    0.67
   1  -1  -6   40.13    3.31
   1  -1  -6   60.43    4.13
   1  -1  -6   40.44    3.46
   1  -1  -6   61.09    4.29
   1  -1  -5    0.38    0.37
   1  -1  -5    9.11    1.63
   1  -1  -5    0.38    0.48
   1  -1  -5    9.14    1.50
   1  -1  -4   50.96    3.68
   1  -1  -4    0.83    4.85
   1  -1  -4   51.39    3.83
   1  -1  -4   81.97    4.69
   1  -1  -3    5.99    1.29
   1  -1  -3    3.91    0.94
   1  -1  -3    3.82    1.06
   1  -1  -3    6.06    1.41
   1  -1  -2  310.38    9.20
   1  -1  -2  293.06    8.49
   1  -1  -2  314.06    9.41
   1  -1  -2  260.13    8.29
   1  -1  -1   21.01    2.44
   1  -1  -1    3.99    1.22
   1  -1  -1   21.24    2.58
   1  -1  -1    3.82    0.92
   1  -1   0  167.07    7.55
   1  -1   0  149.07    7.74
   1  -1   0  152.02    7.70
   1  -1   0  164.86    7.89
   1  -1   1   20.51    2.39
   1  -1   1    4.05    1.12
   1  -1   1   20.74    2.53
   1  -1   1    3.95    1.06
   1  -1   2  303.18    9.02
   1  -1   2  269.46    8.66
   1  -1   2  306.26    9.23
   1  -1   2  266.26    8.46
   1  -1   3    6.21    1.44
   1  -1   3    3.69    0.92
   1  -1   3    6.14    1.32
   1  -1   3    3.86    1.04
   1  -1   4   80.88    4.76
   1  -1   4   80.13    4.60
   1  -1   4   52.78    3.90
   1  -1   4   52.08    3.75
   1  -1   5    0.39    0.38
   1  -1   5    9.02    1.60
   1  -1   5    8.79    1.47
   1  -1   5    0.39    0.49
   1  -1   6   58.98    4.05
   1  -1   6   41.57    3.53
   1  -1   6   40.98    3.38
   1  -1   6   59.63    4.20
   1  -1   7    1.15    0.55
   1  -1   7    1.30    0.56
   1  -1   7    1.31    0.68
   1  -1   7    1.28    0.67
   1  -1   8   15.41    2.03
   1  -1   8   15.58    2.16
   1  -1   8    7.78    1.63
   1  -1   8    7.70    1.50
   1  -1   9    0.13    0.29
   1  -1   9    2.19    0.86
   1  -1   9    0.13    0.18
   1  -1   9    2.17    0.74
   1   0  -9    1.93    0.86
   1   0  -9   -0.03    0.28
   1   0  -9    0.13    0.29
   1   0  -9    1.91    0.74
   1   0  -8    7.05    1.32
   1   0  -8    7.13    1.44
   1   0  -8   14.39    2.03
   1   0  -8   14.55    2.16
   1   0  -7    1.06    0.68
   1   0  -7    1.02    0.55
   1   0  -7    1.05    0.56
   1   0  -7    1.03    0.67
   1   0  -6   56.31    3.87
   1   0  -6   39.28    3.19
   1   0  -6   57.05    4.02
   1   0  -6   39.59    3.34
   1   0  -5    0.67    0.49
   1   0  -5    7.99    1.60
   1   0  -5    7.90    1.47
   1   0  -5    0.52    0.38
   1   0  -4   75.86    4.58
   1   0  -4   48.95    3.72
   1   0  -4   74.78    4.42
   1   0  -4   48.56    3.57
   1   0  -3    3.73    1.04
   1   0  -3    4.96    1.12
   1   0  -3    5.01    1.24
   1   0  -3    3.82    0.92
   1   0  -2  257.52    8.26
   1   0  -2  259.96    8.46
   1   0  -2  290.70    8.84
   1   0  -2  294.16   10.06
   1   0  -1   17.51    2.34
   1   0  -1    4.75    1.24
   1   0  -1   17.32    2.21
   1   0  -1    4.57    1.12
   1   0   0  209.35    7.52
   1   0   0  155.81    7.56
   1   0   0  151.27    7.71
   1   0   0  163.18    7.37
   1   0   1    4.71    1.10
   1   0   1   18.35    2.38
   1   0   1    4.64    1.22
   1   0   1   18.15    2.25
   1   0   2  248.54    8.10
   1   0   2  303.77    9.23
   1   0   2  251.66    8.30
   1   0   2  300.72    9.02
   1   0   3    3.66    0.94
   1   0   3    3.82    1.06
   1   0   3    4.76    1.22
   1   0   3    4.59    1.10
   1   0   4   47.65    3.65
   1   0   4   77.86    4.67
   1   0   4   47.01    3.50
   1   0   4   77.26    4.51
   1   0   5    0.52    0.48
   1   0   5    8.32    1.63
   1   0   5    8.23    1.50
   1   0   5    0.64    0.37
   1   0   6   58.86    4.10
   1   0   6   38.38    3.27
   1   0   6   58.34    3.95
   1   0   6   37.83    3.13
   1   0   7    1.02    0.55
   1   0   7    1.05    0.56
   1   0   7    1.03    0.67
   1   0   7    1.06    0.68
   1   0   8    6.88    1.29
   1   0   8   15.04    2.20
   1   0   8   14.88    2.07
   1   0   8    6.96    1.41
   1   0   9    0.13    0.18
   1   0   9    2.09    0.75
   1   0   9    0.13    0.29
   1   0   9    2.11    0.87
   1   1  -7    1.02    0.55
   1   1  -7    1.06    0.68
   1   1  -7    1.05    0.56
   1   1  -7    1.03    0.67
   1   1  -6   49.48    3.72
   1   1  -6   48.94    3.57
   1   1  -6   48.30    3.65
   1   1  -6   47.77    3.50
   1   1  -5    0.52    0.48
   1   1  -5    0.53    0.49
   1   1  -5    0.51    0.37
   1   1  -5    0.52    0.38
   1   1  -4  136.26    6.26
   1   1  -4  134.78    6.08
   1   1  -4  138.09    6.20
   1   1  -4  139.61    6.38
   1   1  -3    3.44    0.92
   1   1  -3    3.48    1.04
   1   1  -3    3.52    0.94
   1   1  -3    3.56    1.06
   1   1  -2  162.53    6.81
   1   1  -2  166.52    6.94
   1   1  -2  160.76    6.63
   1   1  -2  164.71    6.76
   1   1  -1    3.03    1.06
   1   1  -1    3.06    0.92
   1   1  -1    3.14    0.94
   1   1  -1    2.96    1.04
   1   1   0  182.78    8.47
   1   1   0  171.54    8.64
   1   1   0  164.64    8.85
   1   1   0  167.80    8.67
   1   1   1    3.17    1.06
   1   1   1    2.93    0.92
   1   1   1    3.09    1.04
   1   1   1    0.03    0.94
   1   1   2  166.52    6.94
   1   1   2  160.76    6.63
   1   1   2  162.53    6.81
   1   1   2  164.71    6.76
   1   1   3    3.44    0.92
   1   1   3    3.48    1.04
   1   1   3    3.52    0.94
   1   1   3    3.56    1.06
   1   1   4  139.61    6.38
   1   1   4  138.09    6.20
   1   1   4  136.26    6.26
   1   1   4  134.78    6.08
   1   1   5    0.52    0.48
   1   1   5    0.51    0.37
   1   1   5    0.53    0.49
   1   1   5    0.52    0.38
   1   1   6   47.77    3.50
   1   1   6   48.30    3.65
   1   1   6   49.48    3.72
   1   1   6   48.94    3.57
   1   1   7    1.03    0.67
   1   1   7    1.02    0.55
   1   1   7    1.05    0.56
   1   1   7    1.06    0.68
   1   2  -3    0.52    0.48
   1   2  -3    0.26    0.29
   1   2  -3    0.51    0.37
   1   2  -3    0.26    0.18
   1   2  -2   11.74    1.69
   1   2  -2   10.32    1.66
   1   2  -2   11.87    1.82
   1   2  -2   10.43    1.79
   1   2  -1    0.79    0.49
   1   2  -1    0.78    0.38
   1   2  -1    0.13    0.18
   1   2   0    8.03    1.47
   1   2   0    8.09    1.50
   1   2   0    8.18    1.63
   1   2   0    8.12    1.60
   1   2   1    0.76    0.37
   1   2   1    0.13    0.18
   1   2   1    0.77    0.48
   1   2   2   10.31    1.69
   1   2   2   11.85    1.97
   1   2   2   10.42    1.82
   1   2   2   11.72    1.84
   1   2   3    0.39    0.49
   1   2   3   -0.05    0.29
   1   2   3    0.25    0.18
   1   2   3    0.39    0.38
   2  -3  -3    1.45    0.68
   2  -3  -3    1.91    0.74
   2  -3  -3    1.43    0.56
   2  -3  -3    1.93    0.86
   2  -3  -2   16.10    2.16
   2  -3  -2   16.05    2.03
   2  -3  -2   17.68    2.38
   2  -3  -2   17.36    2.25
   2  -3  -1    2.75    0.94
   2  -3  -1    1.16    0.67
   2  -3  -1    1.15    0.55
   2  -3  -1    2.78    1.06
   2  -3   0   14.12    2.01
   2  -3   0   14.14    2.03
   2  -3   0   13.97    1.88
   2  -3   0   14.30    2.16
   2  -3   1    2.80    0.92
   2  -3   1    1.18    0.56
   2  -3   1    2.83    1.04
   2  -3   1    1.19    0.68
   2  -3   2   18.03    2.34
   2  -3   2   15.53    2.07
   2  -3   2   15.84    2.20
   2  -3   2   17.83    2.21
   2  -3   3    1.82    0.75
   2  -3   3    1.53    0.55
   2  -3   3    1.84    0.87
   2  -3   3    1.55    0.67
   2  -2  -6   13.98    2.01
   2  -2  -6   19.06    2.34
   2  -2  -6   13.83    1.88
   2  -2  -6   18.73    2.21
   2  -2  -5    0.39    0.49
   2  -2  -5    0.39    0.38
   2  -2  -5    3.69    0.92
   2  -2  -5    3.73    1.04
   2  -2  -4   18.01    2.25
   2  -2  -4   25.38    2.72
   2  -2  -4   18.21    2.38
   2  -2  -4   24.97    2.58
   2  -2  -3    1.28    0.67
   2  -2  -3    2.78    1.06
   2  -2  -3    1.40    0.55
   2  -2  -3    2.75    0.94
   2  -2  -2   49.21    3.57
   2  -2  -2   49.75    3.72
   2  -2  -2   55.12    4.02
   2  -2  -2   54.39    3.87
   2  -2  -1    4.84    1.10
   2  -2  -1    0.67    0.49
   2  -2  -1    0.66    0.38
   2  -2  -1    4.89    1.22
   2  -2   0   36.18    3.13
   2  -2   0   37.20    3.19
   2  -2   0   37.48    3.34
   2  -2   0   36.71    3.27
   2  -2   1    0.65    0.48
   2  -2   1    4.96    1.12
   2  -2   1    5.01    1.24
   2  -2   1    0.64    0.37
   2  -2   2   48.56    3.65
   2  -2   2   55.86    3.95
   2  -2   2   48.03    3.50
   2  -2   2   56.34    4.10
   2  -2   3    1.45    0.68
   2  -2   3    2.71    1.04
   2  -2   3    1.30    0.56
   2  -2   3    2.68    0.92
   2  -2   4   25.72    2.63
   2  -2   4   17.58    2.21
   2  -2   4   17.77    2.34
   2  -2   4   25.86    2.77
   2  -2   5    0.38    0.37
   2  -2   5    3.78    0.94
   2  -2   5   -0.08    0.48
   2  -2   5    3.82    1.06
   2  -2   6   13.65    1.97
   2  -2   6   19.40    2.38
   2  -2   6   13.50    1.84
   2  -2   6   19.31    2.25
   2  -1  -7    1.16    0.67
   2  -1  -7    1.15    0.55
   2  -1  -7    1.19    0.68
   2  -1  -7    1.18    0.56
   2  -1  -6   56.41    4.02
   2  -1  -6   58.86    4.10
   2  -1  -6   55.80    3.87
   2  -1  -6   58.22    3.95
   2  -1  -5    2.93    0.68
   2  -1  -5    2.79    0.48
   2  -1  -5    3.16    0.77
   2  -1  -5    2.86    0.49
   2  -1  -4  158.98    6.58
   2  -1  -4  160.59    6.76
   2  -1  -4  153.13    6.44
   2  -1  -4  151.46    6.26
   2  -1  -3    3.73    1.04
   2  -1  -3    3.78    0.94
   2  -1  -3    3.82    1.06
   2  -1  -3    3.69    0.92
   2  -1  -2  197.15    7.51
   2  -1  -2    1.95    7.32
   2  -1  -2  187.39    0.07
   2  -1  -2  189.45    7.19
   2  -1  -1    3.44    0.92
   2  -1  -1    3.52    0.94
   2  -1  -1    3.48    1.04
   2  -1  -1    3.43    1.06
   2  -1   0  325.94   10.63
   2  -1   0  322.39    9.39
   2  -1   0  307.26    9.02
   2  -1   0  310.64    9.23
   2  -1   1    3.39    0.94
   2  -1   1    3.44    0.92
   2  -1   1    3.56    1.06
   2  -1   1    3.48    1.04
   2  -1   2    1.95    7.32
   2  -1   2  189.45    7.19
   2  -1   2  197.15    7.51
   2  -1   2  187.39    0.07
   2  -1   3    3.82    1.06
   2  -1   3    3.69    0.92
   2  -1   3    3.73    1.04
   2  -1   3    3.78    0.94
   2  -1   4  158.84    6.58
   2  -1   4  160.73    6.76
   2  -1   4  153.13    6.44
   2  -1   4  151.46    6.26
   2  -1   5    2.62    0.48
   2  -1   5    1.82    0.70
   2  -1   5    2.32    1.01
   2  -1   5    3.16    0.37
   2  -1   6   55.80    3.87
   2  -1   6   58.22    3.95
   2  -1   6   56.41    4.02
   2  -1   6   58.86    4.10
   2  -1   7    3.18    0.56
   2  -1   7    1.16    0.67
   2  -1   7    1.19    0.68
   2  -1   7    1.15    0.55
   2   0  -6   16.06    2.07
   2   0  -6   10.45    1.66
   2   0  -6   10.56    1.79
   2   0  -6   16.24    2.20
   2   0  -5    2.38    0.87
   2   0  -5    2.35    0.75
   2   0  -5    0.00    0.18
   2   0  -4   19.97    2.25
   2   0  -4   12.88    1.97
   2   0  -4   20.19    2.38
   2   0  -4   12.87    1.84
   2   0  -3    0.53    0.49
   2   0  -3    1.15    0.55
   2   0  -3    1.16    0.67
   2   0  -3    0.52    0.38
   2   0  -2   39.41    3.27
   2   0  -2   39.11    3.31
   2   0  -2   48.16    3.72
   2   0  -2   47.64    3.57
   2   0  -1    2.78    1.06
   2   0  -1    0.25    0.18
   2   0  -1    2.75    0.94
   2   0  -1    0.25    0.29
   2   0   0   27.43    2.90
   2   0   0   28.32    2.82
   2   0   0   27.26    2.76
   2   0   0   28.76    2.96
   2   0   1    0.26    0.18
   2   0   1    0.26    0.29
   2   0   1    2.45    0.86
   2   0   1    2.42    0.74
   2   0   2   45.33    3.65
   2   0   2   42.10    3.53
   2   0   2   41.64    3.38
   2   0   2   44.84    3.50
   2   0   3    0.52    0.48
   2   0   3    0.51    0.37
   2   0   3    1.30    0.56
   2   0   3    1.31    0.68
   2   0   4   13.59    2.01
   2   0   4   19.19    2.34
   2   0   4   13.44    1.88
   2   0   4   19.11    2.21
   2   0   5    2.32    0.86
   2   0   5    2.29    0.74
   2   0   5    0.00    0.29
   2   0   6   11.23    1.69
   2   0   6   15.33    2.16
   2   0   6   15.16    2.03
   2   0   6   11.35    1.82
   2   1  -3    0.25    0.29
   2   1  -3    0.52    0.38
   2   1  -3    0.25    0.18
   2   1  -3    0.53    0.49
   2   1  -2   10.69    1.82
   2   1  -2   10.57    1.69
   2   1  -2   11.59    1.79
   2   1  -2   11.46    1.66
   2   1  -1    0.76    0.37
   2   1  -1    0.77    0.48
   2   1  -1    0.13    0.18
   2   1   0    7.99    1.60
   2   1   0    8.32    1.63
   2   1   0    7.90    1.47
   2   1   0    8.23    1.50
   2   1   1    0.79    0.49
   2   1   1    0.78    0.38
   2   1   1    0.13    0.18
   2   1   2   12.14    2.01
   2   1   2   10.17    1.79
   2   1   2   12.01    1.88
   2   1   2   10.06    1.66
   2   1   3    0.38    0.48
   2   1   3    0.26    0.29
   2   1   3    0.38    0.37
   2   1   3    0.26    0.18
   3  -2  -3    1.59    0.68
   3  -2  -3    1.80    0.86
   3  -2  -3    1.57    0.56
   3  -2  -3    1.78    0.74
   3  -2  -2   18.27    2.25
   3  -2  -2   15.29    2.03
   3  -2  -2   18.47    2.38
   3  -2  -2   15.33    2.16
   3  -2  -1    2.87    0.94
   3  -2  -1    2.90    1.06
   3  -2  -1    1.16    0.67
   3  -2  -1    1.15    0.55
   3  -2   0   13.78    1.97
   3  -2   0   14.65    2.20
   3  -2   0   14.49    2.07
   3  -2   0   13.63    1.84
   3  -2   1    2.71    1.04
   3  -2   1    1.18    0.56
   3  -2   1    1.19    0.68
   3  -2   1    2.68    0.92
   3  -2   2   16.31    2.07
   3  -2   2   17.07    2.21
   3  -2   2   16.62    2.20
   3  -2   2   17.13    2.34
   3  -2   3    1.96    0.75
   3  -2   3    1.40    0.55
   3  -2   3    1.42    0.67
   3  -2   3    1.98    0.87
   3  -1  -3    0.77    0.48
   3  -1  -3    1.30    0.56
   3  -1  -3    1.31    0.68
   3  -1  -3    0.89    0.55
   3  -1  -2   14.43    2.16
   3  -1  -2   14.12    2.01
   3  -1  -2   14.10    1.88
   3  -1  -2   14.27    2.03
   3  -1  -1    1.66    0.74
   3  -1  -1    0.53    0.49
   3  -1  -1    1.68    0.86
   3  -1  -1    0.52    0.38
   3  -1   0   11.08    1.79
   3  -1   0   12.01    2.01
   3  -1   0   10.96    1.66
   3  -1   0   11.88    1.88
   3  -1   1    1.98    0.87
   3  -1   1    0.52    0.48
   3  -1   1    0.51    0.37
   3  -1   1    1.96    0.75
   3  -1   2   15.96    2.20
   3  -1   2   12.88    1.97
   3  -1   2   12.61    1.84
   3  -1   2   15.79    2.07
   3  -1   3    0.91    0.56
   3  -1   3    1.03    0.67
   3  -1   3    1.02    0.55
   3  -1   3    0.92    0.68
   3  -1   4    5.99    0.89
   0   0   0    0.00    0.00
;
_shelx_hkl_checksum              70443
_shelx_res_file
;
    libc3_Acta_Cryst_C.res created by SHELXL-2014/7
TITL LiBC3 in P-6m2
CELL 0.71073 2.5408 2.5408 7.5989 90.0000 90.0000 120.0000
ZERR        2    0.0003    0.0003    0.0009     0.000     0.000     0.000
LATT  -1
SYMM         - X + Y ,            - X ,            - Z
SYMM             - Y ,          X - Y ,              Z
SYMM               X ,              Y ,            - Z
SYMM         - X + Y ,            - X ,              Z
SYMM             - Y ,          X - Y ,            - Z
SYMM             - Y ,            - X ,            - Z
SYMM         - X + Y ,              Y ,              Z
SYMM               X ,          X - Y ,            - Z
SYMM             - Y ,            - X ,              Z
SYMM         - X + Y ,              Y ,            - Z
SYMM               X ,          X - Y ,              Z
SFAC  C  B Li
UNIT     3    1   1
L.S. 5
FMAP 2
PLAN 20
ACTA
BOND
MERG 4
WGHT    0.052800    0.004100
FVAR       3.27826
C1    1    0.000000    0.000000    0.000000    10.08333    0.03710    0.03710 =
         0.04057    0.00000    0.00000    0.01855
C2    1    0.333333    0.666667    0.500000    10.08333    0.03488    0.03488 =
         0.03528    0.00000    0.00000    0.01744
C3    1    0.333333    0.666667    0.000000    10.08333    0.02819    0.02819 =
         0.03210    0.00000    0.00000    0.01409
B1    2    0.000000    0.000000    0.500000    10.08333    0.06562    0.06562 =
         0.06797    0.00000    0.00000    0.03281
LI1   3    0.666667    0.333333   10.250000     0.08133    0.08343
HKLF 4
REM  LiBC3 in P-6m2
REM R1 =  0.0323 for     46 Fo > 4sig(Fo)  and  0.0348 for all     48 data
REM     11 parameters refined using      0 restraints
END
WGHT      0.0530      0.0041
REM Highest difference peak  0.145,  deepest hole -0.153,  1-sigma level  0.044
Q1    1   0.6667  0.3333  0.4623  10.16667  0.05    0.15
Q2    1   0.5442  0.0885  0.3731  10.50000  0.05    0.09
Q3    1  -0.3333  0.3333  0.0000  10.08333  0.05    0.09
Q4    1   0.8084  0.6168  0.1308  10.50000  0.05    0.08
Q5    1   0.2093  0.4186  0.2981  10.50000  0.05    0.07
Q6    1   0.4629 -0.0742  0.2224  10.50000  0.05    0.05
Q7    1   0.5575  0.4425  0.1126  10.50000  0.05    0.05
Q8    1   0.8608  0.1392  0.2472  10.50000  0.05    0.05
Q9    1   0.1427 -0.1427  0.1674  10.50000  0.05    0.05
;
_shelx_res_checksum              95691
loop_
_space_group_symop_operation_xyz
'x, y, z'
'-x+y, -x, -z'
'-y, x-y, z'
'x, y, -z'
'-x+y, -x, z'
'-y, x-y, -z'
'-y, -x, -z'
'-x+y, y, z'
'x, x-y, -z'
'-y, -x, z'
'-x+y, y, -z'
'x, x-y, z'
loop_
_atom_site_type_symbol
_atom_site_label
_atom_site_fract_x
_atom_site_fract_y
_atom_site_fract_z
_atom_site_U_iso_or_equiv
_atom_site_adp_type
_atom_site_calc_flag
_atom_site_refinement_flags
_atom_site_occupancy
_atom_site_symmetry_multiplicity
C C1 0.0000 0.0000 0.0000 0.0383(19) Uani d S 1 12
C C2 0.3333 0.6667 0.5000 0.0350(12) Uani d S 1 12
C C3 0.3333 0.6667 0.0000 0.0295(11) Uani d S 1 12
B B1 0.0000 0.0000 0.5000 0.066(4) Uani d S 1 12
Li Li1 0.6667 0.3333 0.2500 0.083(10) Uiso d SP 0.49(6) 6
loop_
_atom_site_aniso_label
_atom_site_aniso_U_11
_atom_site_aniso_U_22
_atom_site_aniso_U_33
_atom_site_aniso_U_12
_atom_site_aniso_U_13
_atom_site_aniso_U_23
C1 0.037(3) 0.037(3) 0.041(3) 0.0185(13) 0.000 0.000
C2 0.0349(18) 0.0349(18) 0.035(2) 0.0174(9) 0.000 0.000
C3 0.0282(15) 0.0282(15) 0.032(2) 0.0141(7) 0.000 0.000
B1 0.066(5) 0.066(5) 0.068(7) 0.033(3) 0.000 0.000
loop_
_atom_type_symbol
_atom_type_description
_atom_type_scat_dispersion_real
_atom_type_scat_dispersion_imag
_atom_type_scat_source
C C 0.0033 0.0016 'International Tables Vol C Tables 4.2.6.8 and 6.1.1.4'
B B 0.0013 0.0007 'International Tables Vol C Tables 4.2.6.8 and 6.1.1.4'
Li Li -0.0003 0.0001 'International Tables Vol C Tables 4.2.6.8 and 6.1.1.4'
loop_
_geom_angle_atom_site_label_1
_geom_angle_atom_site_label_2
_geom_angle_atom_site_label_3
_geom_angle_site_symmetry_1
_geom_angle_site_symmetry_3
_geom_angle
C3 C1 C3 1_545 . 120.0
C3 C1 C3 1_545 1_445 120.0
C3 C1 C3 . 1_445 120.0
C3 C1 Li1 1_545 2 72.206(2)
C3 C1 Li1 . 2 127.675(5)
C3 C1 Li1 1_445 2 72.206(2)
C3 C1 Li1 1_545 . 72.206(2)
C3 C1 Li1 . . 72.206(2)
C3 C1 Li1 1_445 . 127.675(5)
Li1 C1 Li1 2 . 144.413(4)
C3 C1 Li1 1_545 1_455 127.675(5)
C3 C1 Li1 . 1_455 72.206(2)
C3 C1 Li1 1_445 1_455 72.206(2)
Li1 C1 Li1 2 1_455 144.413(4)
Li1 C1 Li1 . 1_455 63.916(8)
C3 C1 Li1 1_545 2_665 72.206(2)
C3 C1 Li1 . 2_665 72.206(2)
C3 C1 Li1 1_445 2_665 127.675(5)
Li1 C1 Li1 2 2_665 63.916(7)
Li1 C1 Li1 . 2_665 104.651(9)
Li1 C1 Li1 1_455 2_665 144.413(4)
C3 C1 Li1 1_545 2_565 127.675(5)
C3 C1 Li1 . 2_565 72.206(2)
C3 C1 Li1 1_445 2_565 72.206(2)
Li1 C1 Li1 2 2_565 63.916(7)
Li1 C1 Li1 . 2_565 144.413(4)
Li1 C1 Li1 1_455 2_565 104.651(9)
Li1 C1 Li1 2_665 2_565 63.916(8)
C3 C1 Li1 1_545 1_445 72.206(2)
C3 C1 Li1 . 1_445 127.675(5)
C3 C1 Li1 1_445 1_445 72.206(2)
Li1 C1 Li1 2 1_445 104.651(9)
Li1 C1 Li1 . 1_445 63.916(7)
Li1 C1 Li1 1_455 1_445 63.916(7)
Li1 C1 Li1 2_665 1_445 144.413(4)
Li1 C1 Li1 2_565 1_445 144.413(4)
B1 C2 B1 1_565 1_665 120.0
B1 C2 B1 1_565 . 120.0
B1 C2 B1 1_665 . 120.0
B1 C2 Li1 1_565 2_676 72.206(2)
B1 C2 Li1 1_665 2_676 72.206(2)
B1 C2 Li1 . 2_676 127.675(5)
B1 C2 Li1 1_565 1_455 72.206(2)
B1 C2 Li1 1_665 1_455 127.675(5)
B1 C2 Li1 . 1_455 72.206(2)
Li1 C2 Li1 2_676 1_455 144.413(4)
B1 C2 Li1 1_565 1_565 72.206(2)
B1 C2 Li1 1_665 1_565 72.206(2)
B1 C2 Li1 . 1_565 127.675(5)
Li1 C2 Li1 2_676 1_565 104.651(9)
Li1 C2 Li1 1_455 1_565 63.916(7)
B1 C2 Li1 1_565 2_666 127.675(5)
B1 C2 Li1 1_665 2_666 72.206(2)
B1 C2 Li1 . 2_666 72.206(2)
Li1 C2 Li1 2_676 2_666 63.916(8)
Li1 C2 Li1 1_455 2_666 144.413(4)
Li1 C2 Li1 1_565 2_666 144.413(4)
B1 C2 Li1 1_565 2_566 72.206(2)
B1 C2 Li1 1_665 2_566 127.675(5)
B1 C2 Li1 . 2_566 72.206(2)
Li1 C2 Li1 2_676 2_566 63.916(8)
Li1 C2 Li1 1_455 2_566 104.651(9)
Li1 C2 Li1 1_565 2_566 144.413(4)
Li1 C2 Li1 2_666 2_566 63.916(8)
B1 C2 Li1 1_565 . 127.675(5)
B1 C2 Li1 1_665 . 72.206(2)
B1 C2 Li1 . . 72.206(2)
Li1 C2 Li1 2_676 . 144.413(4)
Li1 C2 Li1 1_455 . 63.916(8)
Li1 C2 Li1 1_565 . 63.916(7)
Li1 C2 Li1 2_666 . 104.651(9)
Li1 C2 Li1 2_566 . 144.413(4)
C1 C3 C1 1_565 1_665 120.0
C1 C3 C1 1_565 . 120.0
C1 C3 C1 1_665 . 120.0
C1 C3 Li1 1_565 1_565 72.206(2)
C1 C3 Li1 1_665 1_565 72.206(2)
C1 C3 Li1 . 1_565 127.675(5)
C1 C3 Li1 1_565 2_565 72.206(2)
C1 C3 Li1 1_665 2_565 127.675(5)
C1 C3 Li1 . 2_565 72.206(2)
Li1 C3 Li1 1_565 2_565 144.413(4)
C1 C3 Li1 1_565 2_675 72.206(2)
C1 C3 Li1 1_665 2_675 72.206(2)
C1 C3 Li1 . 2_675 127.675(5)
Li1 C3 Li1 1_565 2_675 104.651(9)
Li1 C3 Li1 2_565 2_675 63.916(8)
C1 C3 Li1 1_565 1_455 72.206(2)
C1 C3 Li1 1_665 1_455 127.675(5)
C1 C3 Li1 . 1_455 72.206(2)
Li1 C3 Li1 1_565 1_455 63.916(7)
Li1 C3 Li1 2_565 1_455 104.651(9)
Li1 C3 Li1 2_675 1_455 144.413(4)
C1 C3 Li1 1_565 2_665 127.675(5)
C1 C3 Li1 1_665 2_665 72.206(2)
C1 C3 Li1 . 2_665 72.206(2)
Li1 C3 Li1 1_565 2_665 144.413(4)
Li1 C3 Li1 2_565 2_665 63.916(8)
Li1 C3 Li1 2_675 2_665 63.916(8)
Li1 C3 Li1 1_455 2_665 144.413(4)
C1 C3 Li1 1_565 . 127.675(5)
C1 C3 Li1 1_665 . 72.206(2)
C1 C3 Li1 . . 72.206(2)
Li1 C3 Li1 1_565 . 63.916(8)
Li1 C3 Li1 2_565 . 144.413(4)
Li1 C3 Li1 2_675 . 144.413(4)
Li1 C3 Li1 1_455 . 63.916(8)
Li1 C3 Li1 2_665 . 104.651(9)
C2 B1 C2 1_545 . 120.0
C2 B1 C2 1_545 1_445 120.0
C2 B1 C2 . 1_445 120.0
C2 B1 Li1 1_545 2_666 72.206(2)
C2 B1 Li1 . 2_666 72.206(2)
C2 B1 Li1 1_445 2_666 127.675(5)
C2 B1 Li1 1_545 1_445 72.206(2)
C2 B1 Li1 . 1_445 127.675(5)
C2 B1 Li1 1_445 1_445 72.206(2)
Li1 B1 Li1 2_666 1_445 144.413(4)
C2 B1 Li1 1_545 1_455 127.675(5)
C2 B1 Li1 . 1_455 72.206(2)
C2 B1 Li1 1_445 1_455 72.206(2)
Li1 B1 Li1 2_666 1_455 144.413(4)
Li1 B1 Li1 1_445 1_455 63.916(7)
C2 B1 Li1 1_545 2_566 127.675(5)
C2 B1 Li1 . 2_566 72.206(2)
C2 B1 Li1 1_445 2_566 72.206(2)
Li1 B1 Li1 2_666 2_566 63.916(8)
Li1 B1 Li1 1_445 2_566 144.413(4)
Li1 B1 Li1 1_455 2_566 104.651(9)
C2 B1 Li1 1_545 . 72.206(2)
C2 B1 Li1 . . 72.206(2)
C2 B1 Li1 1_445 . 127.675(5)
Li1 B1 Li1 2_666 . 104.651(9)
Li1 B1 Li1 1_445 . 63.916(7)
Li1 B1 Li1 1_455 . 63.916(8)
Li1 B1 Li1 2_566 . 144.413(4)
C2 B1 Li1 1_545 2_556 72.206(2)
C2 B1 Li1 . 2_556 127.675(5)
C2 B1 Li1 1_445 2_556 72.206(2)
Li1 B1 Li1 2_666 2_556 63.916(8)
Li1 B1 Li1 1_445 2_556 104.651(9)
Li1 B1 Li1 1_455 2_556 144.413(4)
Li1 B1 Li1 2_566 2_556 63.916(8)
Li1 B1 Li1 . 2_556 144.413(4)
C3 Li1 C2 1_545 1_655 144.413(4)
C3 Li1 B1 1_545 1_665 180.0
C2 Li1 B1 1_655 1_665 35.587(4)
C3 Li1 C1 1_545 . 35.587(4)
C2 Li1 C1 1_655 . 180.0
B1 Li1 C1 1_665 . 144.413(4)
C3 Li1 B1 1_545 1_655 116.084(7)
C2 Li1 B1 1_655 1_655 35.587(4)
B1 Li1 B1 1_665 1_655 63.916(7)
C1 Li1 B1 . 1_655 144.413(4)
C3 Li1 C1 1_545 1_655 35.587(4)
C2 Li1 C1 1_655 1_655 116.084(8)
B1 Li1 C1 1_665 1_655 144.413(4)
C1 Li1 C1 . 1_655 63.916(8)
B1 Li1 C1 1_655 1_655 104.651(9)
C3 Li1 C3 1_545 1_655 63.916(7)
C2 Li1 C3 1_655 1_655 104.651(9)
B1 Li1 C3 1_665 1_655 116.084(7)
C1 Li1 C3 . 1_655 75.349(9)
B1 Li1 C3 1_655 1_655 116.084(8)
C1 Li1 C3 1_655 1_655 35.587(4)
C3 Li1 C2 1_545 1_545 104.651(9)
C2 Li1 C2 1_655 1_545 63.916(7)
B1 Li1 C2 1_665 1_545 75.349(9)
C1 Li1 C2 . 1_545 116.084(7)
B1 Li1 C2 1_655 1_545 35.587(4)
C1 Li1 C2 1_655 1_545 116.084(8)
C3 Li1 C2 1_655 1_545 144.413(4)
C3 Li1 C1 1_545 1_665 75.349(9)
C2 Li1 C1 1_655 1_665 116.084(7)
B1 Li1 C1 1_665 1_665 104.651(9)
C1 Li1 C1 . 1_665 63.916(7)
B1 Li1 C1 1_655 1_665 144.413(4)
C1 Li1 C1 1_655 1_665 63.916(8)
C3 Li1 C1 1_655 1_665 35.587(4)
C2 Li1 C1 1_545 1_665 180.0
C3 Li1 B1 1_545 . 116.084(7)
C2 Li1 B1 1_655 . 75.349(9)
B1 Li1 B1 1_665 . 63.916(7)
C1 Li1 B1 . . 104.651(9)
B1 Li1 B1 1_655 . 63.916(8)
C1 Li1 B1 1_655 . 144.413(4)
C3 Li1 B1 1_655 . 180.0
C2 Li1 B1 1_545 . 35.587(4)
C1 Li1 B1 1_665 . 144.413(4)
C3 Li1 C3 1_545 . 63.916(8)
C2 Li1 C3 1_655 . 144.413(4)
B1 Li1 C3 1_665 . 116.084(8)
C1 Li1 C3 . . 35.587(4)
B1 Li1 C3 1_655 . 180.0
C1 Li1 C3 1_655 . 75.349(9)
C3 Li1 C3 1_655 . 63.916(8)
C2 Li1 C3 1_545 . 144.413(4)
C1 Li1 C3 1_665 . 35.587(4)
B1 Li1 C3 . . 116.084(8)
C3 Li1 C2 1_545 . 144.413(4)
C2 Li1 C2 1_655 . 63.916(8)
B1 Li1 C2 1_665 . 35.587(4)
C1 Li1 C2 . . 116.084(8)
B1 Li1 C2 1_655 . 75.349(9)
C1 Li1 C2 1_655 . 180.0
C3 Li1 C2 1_655 . 144.413(4)
C2 Li1 C2 1_545 . 63.916(8)
C1 Li1 C2 1_665 . 116.084(8)
B1 Li1 C2 . . 35.587(4)
C3 Li1 C2 . . 104.651(9)
loop_
_geom_bond_atom_site_label_1
_geom_bond_atom_site_label_2
_geom_bond_site_symmetry_2
_geom_bond_distance
C1 C3 1_545 1.46693(18)
C1 C3 . 1.46693(17)
C1 C3 1_445 1.46693(17)
C1 Li1 2 2.4002(2)
C1 Li1 . 2.4002(2)
C1 Li1 1_455 2.4002(2)
C1 Li1 2_665 2.4002(2)
C1 Li1 2_565 2.4002(2)
C1 Li1 1_445 2.4002(2)
C2 B1 1_565 1.46693(18)
C2 B1 1_665 1.46693(17)
C2 B1 . 1.46693(17)
C2 Li1 2_676 2.4002(2)
C2 Li1 1_455 2.4002(2)
C2 Li1 1_565 2.4002(2)
C2 Li1 2_666 2.4002(2)
C2 Li1 2_566 2.4002(2)
C2 Li1 . 2.4002(2)
C3 C1 1_565 1.46693(18)
C3 C1 1_665 1.46693(17)
C3 Li1 1_565 2.4002(2)
C3 Li1 2_565 2.4002(2)
C3 Li1 2_675 2.4002(2)
C3 Li1 1_455 2.4002(2)
C3 Li1 2_665 2.4002(2)
C3 Li1 . 2.4002(2)
B1 C2 1_545 1.46693(18)
B1 C2 1_445 1.46693(17)
B1 Li1 2_666 2.4002(2)
B1 Li1 1_445 2.4002(2)
B1 Li1 1_455 2.4002(2)
B1 Li1 2_566 2.4002(2)
B1 Li1 . 2.4002(2)
B1 Li1 2_556 2.4002(2)
Li1 C3 1_545 2.4002(2)
Li1 C2 1_655 2.4002(2)
Li1 B1 1_665 2.4002(2)
Li1 B1 1_655 2.4002(2)
Li1 C1 1_655 2.4002(2)
Li1 C3 1_655 2.4002(2)
Li1 C2 1_545 2.4002(2)
Li1 C1 1_665 2.4002(2)

_cod_database_fobs_code 2020909
