#------------------------------------------------------------------------------
#$Date: 2018-01-24 08:30:12 +0200 (Wed, 24 Jan 2018) $
#$Revision: 205533 $
#$URL: file:///home/coder/svn-repositories/cod/cif/2/02/09/2020958.cif $
#------------------------------------------------------------------------------
#
# This file is available in the Crystallography Open Database (COD),
# http://www.crystallography.net/. The original data for this entry
# were provided by IUCr Journals, http://journals.iucr.org/.
#
# The file may be used within the scientific community so long as
# proper attribution is given to the journal article from which the
# data were obtained.
#
data_2020958
loop_
_publ_author_name
'Sohr, Julia'
'Schmidt, Horst'
'Voigt, Wolfgang'
_publ_section_title
;
 Higher hydrates of lithium chloride, lithium bromide and lithium iodide
;
_journal_coeditor_code           QF3002
_journal_issue                   2
_journal_name_full               'Acta Crystallographica Section C'
_journal_page_first
;
;
_journal_paper_doi               10.1107/S2053229618001183
_journal_volume                  74
_journal_year                    2018
_chemical_formula_iupac          'Li I, 2H2 O'
_chemical_formula_moiety         'I, 2(H2 O), Li'
_chemical_formula_sum            'H4 I Li O2'
_chemical_formula_weight         169.87
_chemical_name_systematic
;
Lithium iodide dihydrate
;
_space_group_crystal_system      triclinic
_space_group_IT_number           2
_space_group_name_Hall           '-P 1'
_space_group_name_H-M_alt        'P -1'
_symmetry_space_group_name_Hall  '-P 1'
_symmetry_space_group_name_H-M   'P -1'
_atom_sites_solution_hydrogens   difmap
_audit_creation_method           SHELXL-2016/6
_cell_angle_alpha                61.90(11)
_cell_angle_beta                 80.72(12)
_cell_angle_gamma                67.02(13)
_cell_formula_units_Z            2
_cell_length_a                   5.454(3)
_cell_length_b                   6.842(2)
_cell_length_c                   6.970(2)
_cell_measurement_reflns_used    243
_cell_measurement_temperature    200
_cell_measurement_theta_max      25.17
_cell_measurement_theta_min      3.77
_cell_volume                     211.1(3)
_computing_cell_refinement
;
X-AREA (Stoe & Cie, 2015)
;
_computing_data_collection
;
X-AREA (Stoe & Cie, 2015)
;
_computing_data_reduction
;
X-RED (Stoe & Cie, 2015)
;
_computing_molecular_graphics
;
DIAMOND (Brandenburg, 2017)
;
_computing_publication_material
;
publCIF (Westrip, 2010)
;
_computing_structure_refinement
;
SHELXL2016 (Sheldrick, 2015)
;
_computing_structure_solution
;
SHELXS97 (Sheldrick, 2008)
;
_diffrn_ambient_temperature      200
_diffrn_detector_area_resol_mean 6.67
_diffrn_measured_fraction_theta_full 0.995
_diffrn_measured_fraction_theta_max 0.995
_diffrn_measurement_device       '2-circle goniometer'
_diffrn_measurement_device_type  'Stoe IPDS 2T'
_diffrn_measurement_method       'rotation method'
_diffrn_radiation_monochromator  'plane graphite'
_diffrn_radiation_type           'Mo K\a'
_diffrn_radiation_wavelength     0.71073
_diffrn_reflns_av_R_equivalents  0.1051
_diffrn_reflns_limit_h_max       7
_diffrn_reflns_limit_h_min       -7
_diffrn_reflns_limit_k_max       9
_diffrn_reflns_limit_k_min       -9
_diffrn_reflns_limit_l_max       9
_diffrn_reflns_limit_l_min       -9
_diffrn_reflns_number            2530
_diffrn_reflns_theta_full        25.242
_diffrn_reflns_theta_max         27.499
_diffrn_reflns_theta_min         3.315
_exptl_absorpt_coefficient_mu    7.389
_exptl_absorpt_correction_T_max  0.4430
_exptl_absorpt_correction_T_min  0.1571
_exptl_absorpt_correction_type   integration
_exptl_absorpt_process_details
;
(Coppens, 1970)
;
_exptl_crystal_colour            colorless
_exptl_crystal_density_diffrn    2.672
_exptl_crystal_description       needle
_exptl_crystal_F_000             152
_exptl_crystal_size_max          0.4
_exptl_crystal_size_mid          0.2
_exptl_crystal_size_min          0.1
_refine_diff_density_max         5.123
_refine_diff_density_min         -3.411
_refine_ls_extinction_method     none
_refine_ls_goodness_of_fit_ref   1.168
_refine_ls_hydrogen_treatment    refall
_refine_ls_matrix_type           full
_refine_ls_number_parameters     53
_refine_ls_number_reflns         957
_refine_ls_number_restraints     6
_refine_ls_restrained_S_all      1.164
_refine_ls_R_factor_all          0.0782
_refine_ls_R_factor_gt           0.0772
_refine_ls_shift/su_max          0.000
_refine_ls_shift/su_mean         0.000
_refine_ls_structure_factor_coef Fsqd
_refine_ls_weighting_details
'w=1/[\s^2^(Fo^2^)+(0.1479P)^2^+4.9695P] where P=(Fo^2^+2Fc^2^)/3'
_refine_ls_weighting_scheme      calc
_refine_ls_wR_factor_gt          0.2161
_refine_ls_wR_factor_ref         0.2174
_reflns_number_gt                922
_reflns_number_total             957
_reflns_threshold_expression     'I > 2\s(I)'
_cod_data_source_file            qf3002sup1.cif
_cod_data_source_block           LiI.2H2O
_cod_original_cell_volume        211.1(7)
_cod_database_code               2020958
_shelx_space_group_comment
;
The symmetry employed for this shelxl refinement is uniquely defined
by the following loop, which should always be used as a source of
symmetry information in preference to the above space-group names.
They are only intended as comments.
;
_shelx_hkl_file
;
   1   0   0    1.88    1.71   0
   2   0   0 2307.58    6.02   0
   3   0   0  138.35    1.83   0
   4   0   0 1189.42    3.66   0
   5   0   0    1.52    1.14   0
   6   0   0  185.83    2.44   0
  -6   1   0  147.60    1.75   0
  -5   1   0  218.66    2.22   0
  -4   1   0  727.76    3.02   0
  -3   1   0 1182.32    3.97   0
  -2   1   0 1500.80    4.87   0
  -1   1   0 4604.30   10.64   0
   0   1   0 1905.69   15.14   0
   1   1   0 2761.27    9.67   0
   2   1   0 1572.76    5.36   0
   3   1   0  856.42    3.70   0
   4   1   0  389.06    2.69   0
   5   1   0  476.43    2.74   0
   6   1   0   88.94    1.68   0
   7   1   0   82.25    1.65   0
  -6   2   0    4.48    1.36   0
  -5   2   0  430.51    2.60   0
  -4   2   0   30.57    1.50   0
  -3   2   0 1351.83    4.38   0
  -2   2   0   61.43    1.97   0
  -1   2   0 3137.32    8.60   0
   0   2   0   83.94    5.09   0
   1   2   0 6901.29   15.17   0
   2   2   0    6.27    1.62   0
   3   2   0 1574.97    5.11   0
   4   2   0   86.03    1.73   0
   5   2   0  590.38    3.02   0
   6   2   0    3.25    1.23   0
   7   2   0  160.64    1.98   0
  -5   3   0  126.94    1.81   0
  -4   3   0  182.81    2.60   0
  -3   3   0  567.47    3.22   0
  -2   3   0 1657.75    5.45   0
  -1   3   0 2022.40    7.10   0
   0   3   0 2435.77   10.86   0
   1   3   0  618.18    5.40   0
   2   3   0 1959.79    6.51   0
   3   3   0  756.71    3.70   0
   4   3   0  448.12    3.19   0
   5   3   0  165.29    2.08   0
   6   3   0  331.43    2.67   0
   7   3   0   26.62    1.65   0
  -4   4   0  518.24    3.40   0
  -3   4   0   76.30    2.05   0
  -2   4   0 2157.54    6.23   0
  -1   4   0   94.68    3.34   0
   0   4   0 1887.85    7.74   0
   1   4   0   76.20    3.32   0
   2   4   0 2480.77    7.95   0
   3   4   0   88.92    2.15   0
   4   4   0  812.90    3.85   0
   5   4   0   69.96    1.59   0
   6   4   0  188.71    2.11   0
   7   4   0   55.95    1.79   0
  -3   5   0  401.42    3.51   0
  -2   5   0  199.50    2.46   0
  -1   5   0  797.49    5.72   0
   0   5   0  638.95    4.42   0
   1   5   0 1158.05    5.61   0
   2   5   0  150.39    3.25   0
   3   5   0  925.90    4.93   0
   4   5   0  172.92    2.33   0
   5   5   0  176.15    2.43   0
   6   5   0   42.30    1.72   0
   7   5   0  146.41    2.04   0
  -2   6   0   46.48    2.45   0
  -1   6   0  609.09    3.97   0
   0   6   0   84.67    2.48   0
   1   6   0  767.57    4.18   0
   2   6   0   26.18    2.48   0
   3   6   0  695.41    4.64   0
   4   6   0   52.09    2.27   0
   5   6   0  351.30    3.08   0
   6   6   0   42.87    1.82   0
  -1   7   0   57.71    1.98   0
   0   7   0  416.84    3.25   0
   1   7   0  185.40    2.57   0
   2   7   0  540.83    3.28   0
   3   7   0   34.65    2.16   0
   4   7   0  317.87    3.72   0
   5   7   0   15.42    2.08   0
   6   7   0   88.44    2.20   0
   1   8   0   73.07    2.04   0
   2   8   0  239.60    2.63   0
   3   8   0   35.99    1.74   0
   4   8   0  107.97    2.86   0
  -5  -7   1  140.21    2.81   0
  -4  -7   1   35.77    2.10   0
  -3  -7   1  332.83    3.62   0
  -2  -7   1   15.26    1.86   0
  -1  -7   1  252.60    2.91   0
   0  -7   1   25.18    1.72   0
  -6  -6   1  117.37    2.25   0
  -5  -6   1   59.49    1.90   0
  -4  -6   1  209.22    3.10   0
  -3  -6   1  144.83    2.71   0
  -2  -6   1  590.21    4.13   0
  -1  -6   1  237.25    2.63   0
   0  -6   1  517.23    3.37   0
   1  -6   1   34.29    2.13   0
   2  -6   1  294.65    3.11   0
  -6  -5   1  198.32    2.24   0
  -5  -5   1    4.67    1.50   0
  -4  -5   1  567.03    3.62   0
  -3  -5   1  156.96    2.82   0
  -2  -5   1 1055.08    5.22   0
  -1  -5   1  147.66    2.60   0
   0  -5   1  850.65    4.74   0
   1  -5   1  108.64    2.49   0
   2  -5   1  939.57    4.41   0
   3  -5   1   95.05    2.18   0
  -7  -4   1  111.03    1.90   0
  -6  -4   1   36.44    1.62   0
  -5  -4   1  460.31    3.15   0
  -4  -4   1  120.28    2.17   0
  -3  -4   1  626.82    3.81   0
  -2  -4   1  160.64    2.88   0
  -1  -4   1 1967.51    7.01   0
   0  -4   1  351.96    3.98   0
   1  -4   1 1363.81    6.10   0
   2  -4   1  170.12    2.56   0
   3  -4   1  661.83    4.16   0
   4  -4   1   19.66    2.03   0
  -7  -3   1  116.14    1.85   0
  -6  -3   1   41.97    1.41   0
  -5  -3   1  414.88    2.77   0
  -4  -3   1   93.94    1.90   0
  -3  -3   1 1311.46    4.99   0
  -2  -3   1  534.92    3.88   0
  -1  -3   1 1763.73    7.17   0
   0  -3   1  868.27    5.85   0
   1  -3   1 2713.16    8.00   0
   2  -3   1  210.58    2.96   0
   3  -3   1  610.92    4.65   0
   4  -3   1  159.20    2.09   0
   5  -3   1  215.01    2.28   0
  -7  -2   1   44.15    1.47   0
  -6  -2   1  214.97    2.14   0
  -5  -2   1   46.83    1.36   0
  -4  -2   1 1155.34    4.42   0
  -3  -2   1  197.34    2.43   0
  -2  -2   1 1253.38    5.01   0
  -1  -2   1  153.00    3.46   0
   0  -2   1 5229.48   15.31   0
   1  -2   1  961.70    5.31   0
   2  -2   1 2324.11    7.38   0
   3  -2   1   19.63    1.73   0
   4  -2   1  783.26    3.41   0
   5  -2   1   10.51    1.46   0
  -7  -1   1   33.08    1.53   0
  -6  -1   1  238.20    2.13   0
  -5  -1   1   86.65    1.61   0
  -4  -1   1  634.76    3.14   0
  -3  -1   1  375.66    2.56   0
  -2  -1   1 4073.74    8.84   0
  -1  -1   1  831.97    5.88   0
   0  -1   1 5100.31   17.45   0
   1  -1   1 3722.32   10.11   0
   2  -1   1 1741.74    5.87   0
   3  -1   1  360.62    2.66   0
   4  -1   1  427.39    2.81   0
   5  -1   1  248.61    2.04   0
   6  -1   1  214.86    2.19   0
  -6   0   1   39.42    1.34   0
  -5   0   1  348.70    2.90   0
  -4   0   1   66.67    1.43   0
  -3   0   1 2351.13    5.30   0
  -2   0   1   37.51    1.58   0
   0   0   1    6.48    6.74   0
   1   0   1 4567.20   12.47   0
   2   0   1  162.49    2.22   0
   3   0   1 2098.98    5.25   0
   4   0   1    5.06    1.31   0
   5   0   1  600.79    3.05   0
   6   0   1    2.62    1.30   0
  -6   1   1   65.70    1.64   0
  -5   1   1  434.22    2.40   0
  -4   1   1  302.27    2.15   0
  -3   1   1  550.33    2.82   0
  -2   1   1 1037.87    4.04   0
  -1   1   1 5881.76   11.69   0
   0   1   1  901.47   10.37   0
   1   1   1 2780.61    9.84   0
   2   1   1 2794.78    7.05   0
   3   1   1 1238.79    4.32   0
   4   1   1  314.89    2.54   0
   5   1   1  239.46    2.05   0
   6   1   1  161.86    1.87   0
   7   1   1  105.22    1.79   0
  -6   2   1  217.01    2.19   0
  -5   2   1   15.52    1.27   0
  -4   2   1  672.59    3.00   0
  -3   2   1   90.53    1.67   0
  -2   2   1 3305.76    6.93   0
  -1   2   1    9.96    2.01   0
   1   2   1   -4.78    2.83   0
   2   2   1 2060.73    6.35   0
   3   2   1   13.13    1.52   0
   4   2   1 1539.92    4.67   0
   5   2   1    3.42    1.42   0
   6   2   1  320.37    2.52   0
   7   2   1   10.75    1.28   0
  -5   3   1  151.76    1.88   0
  -4   3   1  591.51    3.11   0
  -3   3   1  542.91    2.87   0
  -2   3   1  830.63    3.79   0
  -1   3   1 2632.69    7.61   0
   0   3   1 2930.14   12.47   0
   1   3   1 1328.31    8.44   0
   2   3   1 1374.16    5.62   0
   3   3   1 1803.80    5.43   0
   4   3   1  490.99    2.86   0
   5   3   1  337.77    2.51   0
   6   3   1   81.93    1.70   0
   7   3   1   94.78    1.71   0
  -4   4   1    4.75    1.54   0
  -3   4   1  933.07    4.21   0
  -2   4   1  128.02    2.14   0
  -1   4   1 2662.13    7.86   0
   0   4   1   47.79    3.56   0
   1   4   1 3613.94   11.38   0
   2   4   1   15.36    2.19   0
   3   4   1  742.28    4.26   0
   4   4   1   11.42    1.61   0
   5   4   1  587.84    3.22   0
   6   4   1    0.15    1.33   0
   7   4   1  169.04    2.08   0
  -4   5   1  144.78    2.58   0
  -3   5   1  390.87    2.91   0
  -2   5   1  808.54    4.13   0
  -1   5   1  413.80    4.29   0
   0   5   1  990.62    6.58   0
   1   5   1  808.90    5.17   0
   2   5   1  745.57    5.18   0
   3   5   1  521.34    4.14   0
   4   5   1  563.54    3.46   0
   5   5   1  162.55    2.16   0
   6   5   1  206.87    2.21   0
   7   5   1   56.23    1.69   0
  -3   6   1   47.31    1.79   0
  -2   6   1  614.77    4.04   0
  -1   6   1    2.58    2.30   0
   0   6   1  959.67    5.33   0
   1   6   1   35.75    2.22   0
   2   6   1 1587.92    6.79   0
   3   6   1   25.97    2.00   0
   4   6   1  380.76    3.27   0
   5   6   1   32.97    1.63   0
   6   6   1  218.86    2.56   0
   7   6   1   58.08    1.65   0
  -2   7   1  135.25    3.00   0
  -1   7   1  362.13    3.78   0
   0   7   1  187.71    2.47   0
   1   7   1  506.58    3.78   0
   2   7   1  146.52    2.64   0
   3   7   1  396.41    4.03   0
   4   7   1  139.71    2.46   0
   5   7   1  164.25    2.76   0
   6   7   1   73.58    2.10   0
   0   8   1    1.84    1.54   0
   1   8   1  296.52    3.07   0
   2   8   1   18.83    1.77   0
   3   8   1  349.09    3.90   0
   4   8   1   10.06    1.89   0
   5   8   1  135.21    2.52   0
  -4  -7   2  151.15    2.61   0
  -3  -7   2   -1.13    1.68   0
  -2  -7   2  239.89    3.12   0
  -1  -7   2    7.22    1.54   0
  -5  -6   2  139.26    2.49   0
  -4  -6   2  138.27    2.84   0
  -3  -6   2  231.46    2.99   0
  -2  -6   2   99.34    2.23   0
  -1  -6   2  299.66    2.85   0
   0  -6   2  186.30    2.39   0
   1  -6   2  199.75    2.43   0
  -6  -5   2    2.39    1.46   0
  -5  -5   2  205.31    2.78   0
  -4  -5   2   20.59    1.87   0
  -3  -5   2  533.35    4.54   0
  -2  -5   2    2.39    1.90   0
  -1  -5   2  834.33    4.11   0
   0  -5   2   74.28    2.20   0
   1  -5   2  619.51    4.43   0
   2  -5   2   43.89    1.84   0
   3  -5   2  195.56    3.19   0
  -6  -4   2   93.31    1.71   0
  -5  -4   2  102.40    2.07   0
  -4  -4   2  357.79    3.29   0
  -3  -4   2  325.81    3.27   0
  -2  -4   2  812.01    4.99   0
  -1  -4   2  204.51    2.98   0
   0  -4   2  847.37    4.45   0
   1  -4   2  426.92    3.72   0
   2  -4   2  667.53    3.70   0
   3  -4   2  132.49    2.85   0
   4  -4   2  205.66    2.49   0
  -7  -3   2    1.72    1.52   0
  -6  -3   2  284.96    2.55   0
  -5  -3   2   13.17    1.40   0
  -4  -3   2  398.03    3.13   0
  -3  -3   2  121.46    2.63   0
  -2  -3   2 1531.11    6.24   0
  -1  -3   2   16.33    2.75   0
   0  -3   2 1416.35    6.82   0
   1  -3   2  223.75    3.23   0
   2  -3   2 1775.85    6.03   0
   3  -3   2  107.94    2.24   0
   4  -3   2  284.34    2.68   0
  -7  -2   2  183.73    2.02   0
  -6  -2   2   45.02    1.64   0
  -5  -2   2  279.27    2.18   0
  -4  -2   2  242.56    2.24   0
  -3  -2   2  744.93    4.82   0
  -2  -2   2  604.82    3.95   0
  -1  -2   2 3067.69    9.26   0
   0  -2   2  699.10    5.76   0
   1  -2   2 2395.61    7.49   0
   2  -2   2  300.78    3.42   0
   3  -2   2  971.55    4.36   0
   4  -2   2  116.37    1.95   0
   5  -2   2  332.70    2.81   0
  -6  -1   2   15.86    1.34   0
  -5  -1   2  682.10    3.29   0
  -4  -1   2   67.22    1.57   0
  -3  -1   2 1375.89    5.02   0
  -2  -1   2  807.45    4.57   0
  -1  -1   2 2564.05    9.98   0
   0  -1   2  205.88    4.40   0
   1  -1   2 3472.30    9.62   0
   2  -1   2  525.17    3.93   0
   3  -1   2 1230.57    4.33   0
   4  -1   2  207.04    2.10   0
   5  -1   2  315.23    2.56   0
   6  -1   2   74.84    1.77   0
  -6   0   2  242.58    2.20   0
  -5   0   2   29.17    1.47   0
  -4   0   2  687.67    3.44   0
  -3   0   2  242.28    2.26   0
  -2   0   2 1185.60    5.73   0
  -1   0   2  379.11    5.05   0
   0   0   2 9999.99   21.99   0
   1   0   2  637.81    6.01   0
   2   0   2 1796.50    5.77   0
   3   0   2   25.61    1.95   0
   4   0   2  989.46    3.59   0
   5   0   2   88.04    1.76   0
   6   0   2  199.59    2.06   0
  -6   1   2  117.98    1.78   0
  -5   1   2   56.19    1.34   0
  -4   1   2 1201.51    3.71   0
  -3   1   2  156.01    2.04   0
  -2   1   2 1929.94    5.43   0
   0   1   2 3780.13   17.10   0
   1   1   2  485.69    5.89   0
   2   1   2 1899.31    6.10   0
   3   1   2  401.22    2.84   0
   4   1   2  908.74    3.86   0
   5   1   2  233.54    2.07   0
   6   1   2  201.39    2.00   0
   7   1   2   87.30    1.63   0
  -6   2   2   58.21    1.37   0
  -5   2   2  365.59    2.32   0
  -4   2   2   38.92    1.36   0
  -3   2   2 1535.58    4.41   0
  -2   2   2  273.61    2.72   0
  -1   2   2 2955.43    7.92   0
   0   2   2  270.35    5.02   0
   1   2   2 6830.13   16.73   0
   2   2   2  347.55    3.04   0
   3   2   2 1754.96    5.27   0
   4   2   2    5.54    1.48   0
   5   2   2  596.05    2.94   0
   6   2   2   12.00    1.27   0
   7   2   2  114.93    1.96   0
  -5   3   2  141.40    2.32   0
  -4   3   2  146.44    1.83   0
  -3   3   2  895.73    3.94   0
  -2   3   2  690.15    3.52   0
  -1   3   2 3041.10    8.37   0
   0   3   2 1788.27   13.00   0
   1   3   2 1908.01    7.65   0
   2   3   2 1069.52    5.25   0
   3   3   2  935.50    4.22   0
   4   3   2  226.80    2.40   0
   5   3   2  378.59    2.44   0
   6   3   2  160.13    1.94   0
   7   3   2  112.93    1.84   0
  -5   4   2   27.88    1.45   0
  -4   4   2  492.16    2.87   0
  -3   4   2   24.86    1.55   0
  -2   4   2 2353.05    6.25   0
  -1   4   2   86.63    2.90   0
   0   4   2 1528.88    8.95   0
   1   4   2   48.91    3.17   0
   2   4   2 2513.66    8.42   0
   3   4   2  107.38    2.10   0
   4   4   2  809.96    4.51   0
   5   4   2    2.58    1.17   0
   6   4   2  344.59    2.64   0
   7   4   2   12.21    1.40   0
  -4   5   2  179.57    2.33   0
  -3   5   2  313.14    3.12   0
  -2   5   2  630.54    3.68   0
  -1   5   2  437.74    4.54   0
   0   5   2 1652.52    8.11   0
   1   5   2  830.39    5.49   0
   2   5   2  843.20    5.76   0
   3   5   2  691.10    4.94   0
   4   5   2  348.55    3.22   0
   5   5   2  134.57    2.12   0
   6   5   2   89.27    2.04   0
   7   5   2  146.64    2.06   0
  -3   6   2  281.77    3.72   0
  -2   6   2   50.26    2.40   0
  -1   6   2 1115.66    5.75   0
   0   6   2    1.72    2.02   0
   1   6   2 1117.90    5.83   0
   2   6   2    1.30    2.21   0
   3   6   2  789.77    5.26   0
   4   6   2    2.70    1.59   0
   5   6   2  376.28    3.24   0
   6   6   2   29.97    1.62   0
   7   6   2  108.22    2.19   0
  -2   7   2  113.76    3.27   0
  -1   7   2  178.94    2.86   0
   0   7   2  342.33    3.25   0
   1   7   2  551.65    3.78   0
   2   7   2  309.27    3.59   0
   3   7   2  196.44    3.47   0
   4   7   2  336.63    3.70   0
   5   7   2  122.44    2.32   0
   6   7   2   72.60    1.99   0
   0   8   2  437.40    3.76   0
   1   8   2    4.58    1.73   0
   2   8   2  483.47    3.92   0
   3   8   2   -0.32    1.78   0
   4   8   2  199.47    3.50   0
   5   8   2   -0.24    1.81   0
   3   9   2   87.15    2.61   0
  -4  -6   3   70.14    2.39   0
  -3  -6   3  148.66    2.49   0
  -2  -6   3  140.83    2.44   0
  -1  -6   3  191.51    2.46   0
   0  -6   3  161.58    2.20   0
  -5  -5   3    8.80    1.59   0
  -4  -5   3  269.59    3.12   0
  -3  -5   3    4.14    2.04   0
  -2  -5   3  561.32    3.85   0
  -1  -5   3   -1.97    1.58   0
   0  -5   3  376.41    2.98   0
   1  -5   3   -0.45    1.72   0
   2  -5   3  368.86    3.47   0
  -6  -4   3   69.59    1.90   0
  -5  -4   3  144.51    2.34   0
  -4  -4   3  168.60    2.39   0
  -3  -4   3  195.14    3.03   0
  -2  -4   3  310.37    3.14   0
  -1  -4   3  458.71    3.57   0
   0  -4   3  452.14    3.33   0
   1  -4   3  433.85    3.44   0
   2  -4   3  257.38    2.59   0
   3  -4   3  301.11    2.86   0
  -6  -3   3    1.59    1.36   0
  -5  -3   3  320.60    2.59   0
  -4  -3   3    4.82    1.61   0
  -3  -3   3  774.99    4.97   0
  -2  -3   3   16.02    2.02   0
  -1  -3   3 1753.79    6.22   0
   0  -3   3   60.00    2.53   0
   1  -3   3 1403.96    5.32   0
   2  -3   3   48.45    2.37   0
   3  -3   3  417.08    3.54   0
   4  -3   3   10.68    1.83   0
  -6  -2   3   79.73    1.75   0
  -5  -2   3  161.31    1.92   0
  -4  -2   3  535.01    3.19   0
  -3  -2   3  385.35    3.41   0
  -2  -2   3  745.36    4.19   0
  -1  -2   3  274.72    3.67   0
   0  -2   3 1334.02    6.97   0
   1  -2   3 1310.01    5.55   0
   2  -2   3  687.84    5.03   0
   3  -2   3  131.34    2.52   0
   4  -2   3  486.51    3.25   0
   5  -2   3   58.81    1.82   0
  -6  -1   3  215.45    2.08   0
  -5  -1   3   22.26    1.37   0
  -4  -1   3  500.96    2.90   0
  -3  -1   3   20.54    1.92   0
  -2  -1   3 1295.64    6.13   0
  -1  -1   3   41.78    2.70   0
   0  -1   3 3336.62    9.59   0
   1  -1   3  474.49    4.63   0
   2  -1   3 1285.07    5.92   0
   3  -1   3   72.55    2.27   0
   4  -1   3  504.70    3.17   0
   5  -1   3   32.88    1.86   0
  -6   0   3   83.45    1.58   0
  -5   0   3  171.26    1.92   0
  -4   0   3  182.54    2.31   0
  -3   0   3 1108.61    4.33   0
  -2   0   3  457.71    3.78   0
  -1   0   3 1640.33    8.00   0
   0   0   3  341.37    5.05   0
   1   0   3 2724.03   10.53   0
   2   0   3  784.43    4.50   0
   3   0   3 1193.68    4.64   0
   4   0   3  153.30    2.08   0
   5   0   3  602.49    3.07   0
   6   0   3   19.20    1.42   0
  -6   1   3    2.50    1.27   0
  -5   1   3  410.66    2.78   0
  -4   1   3   51.58    1.49   0
  -3   1   3  917.61    3.40   0
  -2   1   3  110.36    2.90   0
  -1   1   3 2751.60    7.84   0
   0   1   3  162.29    4.06   0
   1   1   3 3073.22   12.06   0
   2   1   3  835.21    4.59   0
   3   1   3 1668.48    5.13   0
   4   1   3  163.14    2.09   0
   5   1   3  271.00    2.36   0
   6   1   3   56.01    1.66   0
  -6   2   3  160.87    1.86   0
  -5   2   3   92.79    1.48   0
  -4   2   3  536.91    2.75   0
  -3   2   3  251.30    2.09   0
  -2   2   3 2643.91    6.59   0
  -1   2   3  717.67    4.47   0
   0   2   3 2897.96   13.01   0
   1   2   3   71.08    3.17   0
   2   2   3 1671.36    6.45   0
   3   2   3  234.71    2.50   0
   4   2   3  735.58    3.81   0
   5   2   3   69.68    1.56   0
   6   2   3  298.77    2.30   0
   7   2   3   16.63    1.44   0
  -5   3   3   41.79    1.58   0
  -4   3   3  731.52    3.22   0
  -3   3   3  142.53    2.15   0
  -2   3   3 1395.48    4.92   0
  -1   3   3 1109.69    5.22   0
   0   3   3 2592.15   12.05   0
   1   3   3   66.45    3.22   0
   2   3   3 1833.50    7.16   0
   3   3   3  467.13    3.45   0
   4   3   3  925.24    4.08   0
   5   3   3  124.81    1.89   0
   6   3   3  154.36    1.95   0
   7   3   3   51.38    1.56   0
  -4   4   3   55.75    1.68   0
  -3   4   3  793.24    3.74   0
  -2   4   3  235.10    2.46   0
  -1   4   3 2344.57    8.13   0
   0   4   3  376.47    6.86   0
   1   4   3 3420.20    9.35   0
   2   4   3   99.47    2.91   0
   3   4   3  998.90    5.51   0
   4   4   3   26.44    1.57   0
   5   4   3  481.83    3.27   0
   6   4   3   24.23    1.52   0
   7   4   3  164.18    2.16   0
  -4   5   3   71.65    1.92   0
  -3   5   3  700.55    4.04   0
  -2   5   3  392.24    3.52   0
  -1   5   3  913.73    6.18   0
   0   5   3  783.29   10.64   0
   1   5   3 1477.61    5.99   0
   2   5   3  277.82    3.41   0
   3   5   3  619.47    4.80   0
   4   5   3  264.66    2.83   0
   5   5   3  323.98    2.77   0
   6   5   3  104.13    2.03   0
   7   5   3   67.96    1.69   0
  -3   6   3   18.62    1.91   0
  -2   6   3  740.53    5.20   0
  -1   6   3   73.86    3.50   0
   0   6   3  895.11    9.04   0
   1   6   3   49.58    2.36   0
   2   6   3 1477.02    6.09   0
   3   6   3   26.99    2.39   0
   4   6   3  396.77    3.78   0
   5   6   3   -1.24    1.46   0
   6   6   3  211.21    2.49   0
   7   6   3   47.09    1.83   0
  -2   7   3  325.55    4.49   0
  -1   7   3  147.67    3.71   0
   0   7   3  499.24    4.13   0
   1   7   3  390.61    3.20   0
   2   7   3  498.59    3.52   0
   3   7   3  164.26    3.93   0
   4   7   3  265.31    3.65   0
   5   7   3  102.32    2.33   0
   6   7   3  151.80    2.52   0
  -1   8   3  308.85    4.75   0
   0   8   3   20.22    1.78   0
   1   8   3  459.49    2.91   0
   2   8   3    9.01    1.76   0
   3   8   3  464.18    4.28   0
   4   8   3    4.21    2.30   0
   5   8   3  190.41    3.26   0
   6   8   3   45.65    1.86   0
   2   9   3  186.60    2.34   0
   3   9   3   80.96    2.08   0
   4   9   3   95.20    2.18   0
  -4  -5   4    2.41    1.80   0
  -3  -5   4  206.81    2.92   0
  -2  -5   4   19.48    1.66   0
  -1  -5   4  225.16    2.99   0
   0  -5   4    6.85    1.78   0
   1  -5   4  236.89    2.95   0
  -5  -4   4   99.67    1.94   0
  -4  -4   4   83.22    2.39   0
  -3  -4   4  405.94    3.73   0
  -2  -4   4  188.63    2.58   0
  -1  -4   4  265.22    3.05   0
   0  -4   4  289.85    2.86   0
   1  -4   4  277.96    2.98   0
   2  -4   4  152.87    2.20   0
  -6  -3   4  106.36    2.13   0
  -5  -3   4    8.59    1.55   0
  -4  -3   4  388.94    3.17   0
  -3  -3   4    4.16    1.84   0
  -2  -3   4  812.38    4.36   0
  -1  -3   4    7.68    2.05   0
   0  -3   4  677.59    3.94   0
   1  -3   4   15.37    2.40   0
   2  -3   4  769.63    4.19   0
   3  -3   4    0.66    1.69   0
  -6  -2   4   95.18    1.99   0
  -5  -2   4  105.24    1.85   0
  -4  -2   4  142.75    2.44   0
  -3  -2   4  248.05    2.87   0
  -2  -2   4  615.18    3.96   0
  -1  -2   4  556.81    4.27   0
   0  -2   4  635.74    4.93   0
   1  -2   4  821.05    4.32   0
   2  -2   4  274.73    3.59   0
   3  -2   4  250.73    2.60   0
   4  -2   4  175.23    2.43   0
  -6  -1   4    2.46    1.25   0
  -5  -1   4  271.09    2.55   0
  -4  -1   4    9.34    1.55   0
  -3  -1   4  712.92    3.75   0
  -2  -1   4   35.50    2.08   0
  -1  -1   4 1553.85    6.91   0
   0  -1   4   12.50    3.32   0
   1  -1   4 1515.93    5.93   0
   2  -1   4   16.18    2.05   0
   3  -1   4 1040.70    4.30   0
   4  -1   4    5.67    1.86   0
   5  -1   4  243.04    2.90   0
  -6   0   4  101.37    1.74   0
  -5   0   4  153.84    1.99   0
  -4   0   4  304.63    2.47   0
  -3   0   4  343.16    3.01   0
  -2   0   4  503.58    3.70   0
  -1   0   4  872.36    5.94   0
   0   0   4 2276.92    9.25   0
   1   0   4  961.81    7.02   0
   2   0   4 1426.59    5.85   0
   3   0   4  241.07    3.00   0
   4   0   4  482.33    3.08   0
   5   0   4  113.77    2.14   0
  -6   1   4  114.09    1.96   0
  -5   1   4    3.09    1.12   0
  -4   1   4  564.42    3.01   0
  -3   1   4    1.16    1.39   0
  -2   1   4 1066.42    5.44   0
  -1   1   4  335.86    4.86   0
   0   1   4 3352.44   10.07   0
   1   1   4   39.11    3.25   0
   2   1   4 1079.77    5.33   0
   3   1   4   54.15    2.21   0
   4   1   4  792.32    3.85   0
   5   1   4   16.16    1.51   0
   6   1   4  179.63    2.19   0
  -5   2   4  181.33    2.19   0
  -4   2   4  190.28    1.87   0
  -3   2   4  658.09    3.17   0
  -2   2   4  344.45    2.90   0
  -1   2   4 1231.46    5.83   0
   0   2   4  677.01    6.14   0
   1   2   4 1816.01    9.11   0
   2   2   4 1016.83    5.60   0
   3   2   4  919.17    4.67   0
   4   2   4  109.37    2.11   0
   5   2   4  401.42    2.77   0
   6   2   4   61.98    1.70   0
  -5   3   4  170.86    2.20   0
  -4   3   4   21.68    1.25   0
  -3   3   4  842.76    3.73   0
  -2   3   4   58.01    1.83   0
  -1   3   4 1998.29    6.97   0
   0   3   4  196.22    5.83   0
   1   3   4 2550.03    9.96   0
   2   3   4  155.07    3.07   0
   3   3   4  863.93    4.60   0
   4   3   4   71.05    1.76   0
   5   3   4  484.98    2.93   0
   6   3   4   35.75    1.48   0
   7   3   4  139.03    1.91   0
  -4   4   4  281.75    2.62   0
  -3   4   4  182.65    2.31   0
  -2   4   4 1621.37    5.87   0
  -1   4   4  317.08    3.56   0
   0   4   4 1195.43    7.98   0
   1   4   4  250.58    3.28   0
   2   4   4 1362.19    7.71   0
   3   4   4  346.76    3.56   0
   4   4   4  623.37    3.64   0
   5   4   4   20.20    1.56   0
   6   4   4  299.86    2.50   0
   7   4   4   23.71    1.58   0
  -4   5   4  244.50    2.77   0
  -3   5   4  167.48    2.45   0
  -2   5   4  716.34    4.66   0
  -1   5   4   52.21    3.69   0
   1   5   4  224.28    3.25   0
   2   5   4 1126.19    5.74   0
   3   5   4  197.90    3.37   0
   4   5   4  378.40    3.53   0
   5   5   4   35.74    1.81   0
   6   5   4  164.93    2.20   0
   7   5   4   28.34    1.99   0
  -3   6   4  291.02    3.74   0
  -2   6   4   95.99    2.71   0
  -1   6   4  946.60    8.76   0
   0   6   4  217.48    2.60   0
   1   6   4  874.02    4.32   0
   2   6   4   67.65    2.40   0
   3   6   4  549.22    4.50   0
   4   6   4  105.95    2.48   0
   5   6   4  288.96    2.86   0
   6   6   4   63.51    1.86   0
   7   6   4  140.01    2.24   0
  -2   7   4   33.50    3.77   0
  -1   7   4  359.77    6.58   0
   0   7   4  135.75    2.08   0
   1   7   4  838.76    4.24   0
   2   7   4  120.39    2.61   0
   3   7   4  382.09    4.24   0
   4   7   4  179.27    3.51   0
   5   7   4  201.26    3.12   0
   6   7   4   48.61    1.92   0
  -1   8   4   46.45    1.70   0
   0   8   4  555.40    3.14   0
   1   8   4   39.65    1.92   0
   2   8   4  424.56    3.63   0
   3   8   4    7.04    1.87   0
   4   8   4  247.60    3.17   0
   5   8   4   19.07    2.43   0
   6   8   4  106.43    2.55   0
   1   9   4   95.45    2.15   0
   2   9   4  222.14    2.69   0
   3   9   4   43.84    1.97   0
   4   9   4  108.43    2.72   0
  -4  -4   5  125.29    2.52   0
  -3  -4   5   57.73    2.31   0
  -2  -4   5  195.04    2.77   0
  -1  -4   5   69.22    2.19   0
   0  -4   5  251.75    2.67   0
   1  -4   5   58.72    2.01   0
  -5  -3   5  150.68    2.15   0
  -4  -3   5   33.02    1.81   0
  -3  -3   5  239.37    3.07   0
  -2  -3   5   19.97    1.93   0
  -1  -3   5  657.19    4.29   0
   0  -3   5   16.75    1.88   0
   1  -3   5  453.59    3.03   0
   2  -3   5   10.07    1.91   0
  -5  -2   5  153.38    2.36   0
  -4  -2   5   98.32    2.55   0
  -3  -2   5  381.76    2.97   0
  -2  -2   5  196.51    2.71   0
  -1  -2   5  417.10    3.71   0
   0  -2   5  267.51    3.31   0
   1  -2   5  789.27    3.99   0
   2  -2   5  172.54    2.70   0
   3  -2   5  198.72    2.65   0
  -5  -1   5    0.28    1.43   0
  -4  -1   5  349.16    2.96   0
  -3  -1   5   35.83    2.21   0
  -2  -1   5  761.98    4.46   0
  -1  -1   5   25.82    2.27   0
   0  -1   5 2096.59    7.41   0
   1  -1   5    8.04    2.38   0
   2  -1   5  732.84    4.38   0
   3  -1   5    3.13    1.81   0
   4  -1   5  314.10    2.72   0
  -5   0   5   54.78    1.56   0
  -4   0   5  264.81    2.39   0
  -3   0   5  332.17    2.96   0
  -2   0   5  627.46    3.53   0
  -1   0   5  548.27    4.58   0
   0   0   5  503.21    3.92   0
   1   0   5  807.94    5.88   0
   2   0   5  601.10    4.05   0
   3   0   5  247.82    3.11   0
   4   0   5  216.21    2.61   0
   5   0   5  168.29    2.18   0
  -5   1   5  226.66    2.43   0
  -4   1   5    0.75    1.20   0
  -3   1   5  490.42    3.46   0
  -2   1   5    0.98    2.14   0
  -1   1   5 1513.61    5.96   0
   0   1   5   17.32    2.70   0
   1   1   5 1494.50    8.38   0
   2   1   5    2.07    2.17   0
   3   1   5  845.23    4.83   0
   4   1   5    6.70    1.61   0
   5   1   5  229.84    2.51   0
  -5   2   5   79.53    2.00   0
  -4   2   5   72.53    1.84   0
  -3   2   5  279.81    2.76   0
  -2   2   5  367.09    4.90   0
  -1   2   5 1315.02    7.54   0
   0   2   5 1247.37    7.17   0
   1   2   5  502.32    4.74   0
   2   2   5  938.98    5.63   0
   3   2   5  420.87    3.36   0
   4   2   5  259.67    2.75   0
   5   2   5  134.34    2.03   0
   6   2   5  172.88    2.23   0
  -5   3   5    2.08    1.31   0
  -4   3   5  333.80    3.00   0
  -3   3   5   -3.74    1.44   0
  -2   3   5 1116.39    5.49   0
  -1   3   5   86.69    2.85   0
   0   3   5 1314.01    9.08   0
   1   3   5   -0.23    2.32   0
   2   3   5 1364.68    7.00   0
   3   3   5   46.81    2.16   0
   4   3   5  828.03    4.10   0
   5   3   5   18.52    1.59   0
   6   3   5  149.05    1.97   0
  -4   4   5  104.01    1.97   0
  -3   4   5  183.14    3.19   0
  -2   4   5  202.12    2.83   0
  -1   4   5  678.59    5.49   0
   0   4   5  690.32    5.93   0
   1   4   5  989.00    6.50   0
   2   4   5  213.93    3.64   0
   3   4   5  721.15    4.79   0
   4   4   5  161.38    2.36   0
   5   4   5  199.52    2.38   0
   6   4   5   65.16    1.74   0
  -3   5   5  434.06    3.74   0
  -2   5   5   42.07    2.05   0
  -1   5   5  744.21    6.13   0
   0   5   5  111.10    3.81   0
   1   5   5 1257.60    5.46   0
   2   5   5    2.07    1.58   0
   3   5   5  565.81    5.20   0
   4   5   5   41.40    1.96   0
   5   5   5  475.51    3.37   0
   6   5   5   24.70    1.73   0
  -3   6   5   62.63    2.29   0
  -2   6   5  262.66    4.34   0
  -1   6   5  175.80    4.41   0
   0   6   5  649.17    4.15   0
   1   6   5  388.04    3.37   0
   2   6   5  711.93    4.82   0
   3   6   5  109.40    2.41   0
   4   6   5  324.21    4.22   0
   5   6   5   32.90    1.94   0
   6   6   5  123.03    2.47   0
  -2   7   5  264.11    5.23   0
   0   7   5  697.41    3.83   0
   1   7   5  169.73    2.68   0
   2   7   5  558.03    4.11   0
   3   7   5   21.08    1.74   0
   4   7   5  184.97    2.76   0
   5   7   5   29.75    1.99   0
   6   7   5  152.26    2.71   0
  -1   8   5  102.46    3.05   0
   0   8   5   80.02    2.03   0
   1   8   5  305.31    3.01   0
   2   8   5   74.90    2.07   0
   3   8   5  251.41    3.31   0
   4   8   5   51.23    2.04   0
   5   8   5  131.94    3.91   0
   1   9   5  301.88    2.81   0
   2   9   5   62.17    2.12   0
   3   9   5  184.28    3.01   0
   4   9   5   23.26    2.02   0
  -3  -3   6   29.16    2.12   0
  -2  -3   6  210.79    2.99   0
  -1  -3   6   47.12    1.94   0
   0  -3   6  207.99    2.78   0
   1  -3   6   66.32    2.05   0
  -4  -2   6   95.31    2.70   0
  -3  -2   6   40.02    2.32   0
  -2  -2   6  423.91    3.54   0
  -1  -2   6   60.62    2.13   0
   0  -2   6  395.56    3.66   0
   1  -2   6  166.90    2.67   0
   2  -2   6  264.33    3.06   0
  -4  -1   6   49.23    1.74   0
  -3  -1   6  374.95    3.01   0
  -2  -1   6   17.72    2.10   0
  -1  -1   6  571.43    4.56   0
   0  -1   6   57.62    2.76   0
   1  -1   6  515.59    3.86   0
   2  -1   6   16.70    1.82   0
   3  -1   6  385.32    2.96   0
  -5   0   6  143.67    2.29   0
  -4   0   6   60.68    2.19   0
  -3   0   6  173.38    2.83   0
  -2   0   6  123.23    2.86   0
  -1   0   6  612.21    4.21   0
   0   0   6  194.35    2.89   0
   1   0   6  574.95    4.75   0
   2   0   6  274.89    2.99   0
   3   0   6  306.87    2.86   0
   4   0   6   77.24    2.00   0
  -5   1   6    4.86    1.45   0
  -4   1   6  244.61    2.46   0
  -3   1   6   71.99    2.42   0
  -2   1   6  690.75    4.15   0
  -1   1   6   22.02    1.93   0
   0   1   6 1800.59    6.30   0
   1   1   6   32.88    2.36   0
   2   1   6  512.68    3.95   0
   3   1   6    3.99    1.91   0
   4   1   6  402.41    3.12   0
   5   1   6    6.03    1.39   0
  -4   2   6  227.15    2.53   0
  -3   2   6  165.37    2.23   0
  -2   2   6  306.22    3.82   0
  -1   2   6  536.71    4.31   0
   0   2   6  684.01    5.21   0
   1   2   6  412.81    3.75   0
   2   2   6  648.89    4.57   0
   3   2   6  341.46    3.36   0
   4   2   6  190.62    2.48   0
   5   2   6  145.56    2.33   0
  -4   3   6    0.22    1.21   0
  -3   3   6  335.15    3.38   0
  -2   3   6   29.96    1.77   0
  -1   3   6  808.80    6.48   0
   0   3   6    2.17    2.89   0
   1   3   6 1464.31    6.24   0
   2   3   6    1.21    2.17   0
   3   3   6  598.85    3.91   0
   4   3   6    0.71    1.67   0
   5   3   6  295.65    2.75   0
   6   3   6    0.83    1.32   0
  -4   4   6   58.15    1.82   0
  -3   4   6  198.56    2.80   0
  -2   4   6  341.33    3.60   0
  -1   4   6  416.00    4.58   0
   0   4   6  358.96    4.73   0
   1   4   6  325.50    4.39   0
   2   4   6  456.88    4.02   0
   3   4   6  600.09    4.13   0
   4   4   6  242.53    2.85   0
   5   4   6  122.53    2.08   0
   6   4   6  157.12    2.26   0
  -3   5   6    3.84    1.67   0
  -2   5   6  440.22    4.51   0
  -1   5   6    8.74    2.23   0
   0   5   6  695.95    6.22   0
   1   5   6    3.37    2.12   0
   2   5   6  942.94    6.39   0
   3   5   6    5.94    1.77   0
   4   5   6  412.13    3.88   0
   5   5   6    9.59    1.62   0
   6   5   6  161.15    2.23   0
  -2   6   6  159.68    3.34   0
  -1   6   6  432.40    5.01   0
   0   6   6  396.52    3.42   0
   1   6   6  448.67    3.56   0
   2   6   6   84.39    2.53   0
   3   6   6  229.48    4.24   0
   4   6   6  161.41    2.88   0
   5   6   6  137.77    2.54   0
   6   6   6   33.62    1.99   0
  -1   7   6  432.49    3.46   0
   0   7   6    3.60    1.93   0
   1   7   6  524.72    3.71   0
   2   7   6   -0.23    1.71   0
   3   7   6  301.08    3.33   0
   4   7   6    6.01    1.63   0
   5   7   6  166.20    2.94   0
   6   7   6   25.49    2.13   0
   0   8   6  332.04    2.97   0
   1   8   6  211.95    2.66   0
   2   8   6  192.94    3.12   0
   3   8   6   33.56    1.78   0
   4   8   6  140.78    2.58   0
   5   8   6   47.59    1.91   0
   2   9   6  215.45    2.97   0
   3   9   6    0.53    1.40   0
  -3  -2   7  211.04    2.63   0
  -2  -2   7   37.42    1.94   0
  -1  -2   7  187.92    2.62   0
   0  -2   7   21.52    1.83   0
   1  -2   7  286.32    3.04   0
  -3  -1   7   48.31    2.39   0
  -2  -1   7  163.34    2.59   0
  -1  -1   7   67.07    2.17   0
   0  -1   7  543.02    3.67   0
   1  -1   7   92.13    2.39   0
   2  -1   7  203.15    2.65   0
  -4   0   7  127.47    2.78   0
  -3   0   7   11.18    1.93   0
  -2   0   7  430.32    3.67   0
  -1   0   7   77.15    2.40   0
   0   0   7  531.30    4.05   0
   1   0   7   96.65    2.19   0
   2   0   7  263.17    3.48   0
   3   0   7   20.56    1.78   0
  -4   1   7   24.46    1.83   0
  -3   1   7  256.86    3.18   0
  -2   1   7   54.26    2.17   0
  -1   1   7  508.19    3.78   0
   0   1   7   83.96    2.37   0
   1   1   7  634.04    3.92   0
   2   1   7   59.91    2.35   0
   3   1   7  333.45    3.34   0
   4   1   7    4.13    1.74   0
  -4   2   7   22.64    1.66   0
  -3   2   7  156.63    2.80   0
  -2   2   7   92.37    2.94   0
  -1   2   7  816.15    4.90   0
   0   2   7  172.96    3.36   0
   1   2   7  357.74    3.39   0
   2   2   7  249.77    3.36   0
   3   2   7  297.31    3.18   0
   4   2   7   51.43    1.87   0
   5   2   7   90.82    2.06   0
  -3   3   7   15.24    1.69   0
  -2   3   7  550.04    4.87   0
  -1   3   7   28.47    2.81   0
   0   3   7  444.70    4.16   0
   1   3   7   47.37    2.27   0
   2   3   7  646.23    4.03   0
   3   3   7   35.23    2.15   0
   4   3   7  404.62    3.25   0
   5   3   7    3.96    1.49   0
  -3   4   7   27.55    2.24   0
  -2   4   7  230.44    3.01   0
  -1   4   7  172.97    4.27   0
   0   4   7  632.15    4.89   0
   1   4   7  199.06    3.10   0
   2   4   7  427.21    3.57   0
   3   4   7  308.34    3.60   0
   4   4   7  261.70    2.85   0
   5   4   7   63.97    1.99   0
  -3   5   7  172.61    3.08   0
  -2   5   7   23.49    2.00   0
  -1   5   7  413.10    4.84   0
   0   5   7    1.22    1.98   0
   1   5   7  534.71    5.37   0
   2   5   7    9.42    2.05   0
   3   5   7  379.00    4.05   0
   4   5   7    2.46    1.71   0
   5   5   7  260.98    3.18   0
  -2   6   7  102.50    3.45   0
  -1   6   7  136.26    3.57   0
   0   6   7  194.89    2.89   0
   1   6   7  270.46    3.94   0
   2   6   7  100.72    2.49   0
   3   6   7  173.42    3.52   0
   4   6   7  199.43    3.35   0
   5   6   7   85.98    2.43   0
  -1   7   7   12.46    2.13   0
   0   7   7  327.03    3.75   0
   1   7   7    0.01    1.71   0
   2   7   7  245.94    3.92   0
   3   7   7    4.15    1.37   0
   4   7   7  130.04    2.44   0
   5   7   7   -1.70    2.23   0
   0   8   7  132.21    2.46   0
   1   8   7  155.97    2.46   0
   2   8   7  127.86    2.56   0
   3   8   7   86.78    2.28   0
   4   8   7   56.15    2.14   0
  -1  -1   8  137.69    2.51   0
  -2   0   8    6.43    2.41   0
  -1   0   8  311.28    3.50   0
   0   0   8    1.74    1.68   0
   1   0   8  252.78    2.99   0
   2   0   8   33.08    1.85   0
  -3   1   8   57.17    2.16   0
  -2   1   8  191.04    2.82   0
  -1   1   8   88.21    2.43   0
   0   1   8  483.26    3.74   0
   1   1   8   56.26    2.29   0
   2   1   8  182.75    2.46   0
   3   1   8   23.99    2.09   0
  -3   2   8    5.09    1.95   0
  -2   2   8  169.56    3.02   0
  -1   2   8   80.25    2.91   0
   0   2   8  367.26    3.91   0
   1   2   8   17.38    1.82   0
   2   2   8  353.14    2.91   0
   3   2   8   37.01    2.21   0
  -3   3   8  122.40    2.54   0
  -2   3   8   87.99    2.85   0
  -1   3   8  305.43    3.72   0
   0   3   8   78.11    2.28   0
   1   3   8  582.40    4.01   0
   2   3   8   72.55    2.21   0
   3   3   8  253.40    3.32   0
   4   3   8   10.93    1.71   0
  -2   4   8   60.89    2.17   0
  -1   4   8  315.03    4.26   0
   0   4   8   84.04    3.41   0
   1   4   8  290.84    3.29   0
   2   4   8   66.58    2.22   0
   3   4   8  312.99    3.09   0
   4   4   8   48.77    2.16   0
  -2   5   8  207.92    3.99   0
  -1   5   8   33.32    2.20   0
   0   5   8  264.85    3.80   0
   1   5   8   26.41    2.13   0
   2   5   8  425.35    4.12   0
   3   5   8   36.43    1.90   0
   4   5   8  195.16    3.14   0
  -1   6   8   39.72    2.73   0
   0   6   8  254.94    4.50   0
   1   6   8   70.39    3.14   0
   2   6   8  222.75    3.67   0
   3   6   8   83.01    2.67   0
   4   6   8  244.40    3.23   0
   0   7   8   13.54    1.91   0
   1   7   8  198.66    3.25   0
   2   7   8    4.95    1.64   0
   3   7   8  152.69    3.17   0
   4   7   8    2.27    2.42   0
   2   8   8   49.05    2.09   0
   3   8   8   33.94    2.01   0
  -1   2   9  348.56    3.61   0
   0   2   9    4.60    1.63   0
   1   2   9  266.57    2.95   0
   2   2   9   20.03    1.71   0
  -1   3   9   78.19    2.39   0
   0   3   9  175.41    3.07   0
   1   3   9   49.63    2.17   0
   2   3   9  179.85    2.43   0
  -1   4   9   17.82    2.76   0
   0   4   9  301.11    3.43   0
   1   4   9    8.22    1.71   0
   2   4   9  247.60    2.89   0
   3   4   9   43.76    1.99   0
   0   5   9   47.14    2.37   0
   1   5   9  197.35    3.18   0
   2   5   9   40.16    2.03   0
   3   5   9  165.50    2.68   0
   1   6   9  257.52    3.95   0
   2   6   9   17.80    2.07   0
   3   6   9  164.01    3.09   0
;
_shelx_hkl_checksum              91263
_shelx_res_file
;
TITL
    ii2-2h2o-140717.res
    created by SHELXL-2016/6 at 11:01:06 on 13-Oct-2017
CELL  0.71073  5.4537     6.8419   6.9698  61.902  80.719  67.020
ZERR 2  0.00960  0.01240  0.00930  0.11200  0.12400  0.12900
LATT 1
SFAC Li I  O  H
UNIT 2  2  4  8
OMIT -3 55
L.S. 12
ACTA
BOND
FMAP 2
PLAN 2
DANG 1.3 0.02 H1a H1b H2a H2b
DFIX 0.82 0.02 O1 H1A  O1 H1B
DFIX 0.82 0.02 O2 H2A
DFIX 0.82 0.02 O2 H2B
WGHT    0.147900    4.969500
FVAR       0.81789
MOLE 1
I1    2    0.253090    0.132521    0.223383    11.00000    0.03099    0.01593 =
         0.02416   -0.00713   -0.00240   -0.00080
LI1   1    0.296840    0.405542    0.479771    11.00000    0.04439    0.05803 =
         0.03763   -0.03402    0.01467   -0.02765
O1    3   -0.014525    0.706657    0.308000    11.00000    0.03238    0.02237 =
         0.02755   -0.01211   -0.00100   -0.00613
O2    3    0.605548    0.482498    0.307171    11.00000    0.02872    0.02008 =
         0.03079   -0.01182    0.00524   -0.00435
H1A   4   -0.020346    0.713131    0.188111    11.00000    0.01980
H1B   4    0.062217    0.795808    0.289122    11.00000    0.06358
H2A   4    0.571207    0.607388    0.193934    11.00000    0.20437
H2B   4    0.713543    0.381844    0.272045    11.00000    0.02894
HKLF 4
REM
REM R1 =  0.0772 for     922 Fo > 4sig(Fo)  and  0.0782 for all     957 data
REM     53 parameters refined using      6 restraints
END
WGHT      0.1483      5.1157
REM Highest difference peak  5.123,  deepest hole -3.411,  1-sigma level  0.599
Q1    1   0.1086  0.1016  0.2402  11.00000  0.05    5.12
Q2    1   0.3740  0.1945  0.2196  11.00000  0.05    4.66
;
_shelx_res_checksum              82272
loop_
_space_group_symop_operation_xyz
'x, y, z'
'-x, -y, -z'
loop_
_atom_site_type_symbol
_atom_site_label
_atom_site_fract_x
_atom_site_fract_y
_atom_site_fract_z
_atom_site_U_iso_or_equiv
_atom_site_adp_type
_atom_site_calc_flag
_atom_site_occupancy
I I1 0.25309(15) 0.13252(13) 0.22338(12) 0.0267(4) Uani d 1
Li Li1 0.297(6) 0.406(6) 0.480(5) 0.040(6) Uani d 1
O O1 -0.015(2) 0.7067(18) 0.3080(17) 0.028(2) Uani d 1
O O2 0.606(2) 0.4825(19) 0.3072(18) 0.028(2) Uani d 1
H H1A -0.02(3) 0.71(3) 0.188(12) 0.02(4) Uiso d 1
H H1B 0.06(4) 0.80(3) 0.29(3) 0.06(8) Uiso d 1
H H2A 0.57(10) 0.61(2) 0.19(3) 0.2(3) Uiso d 1
H H2B 0.71(2) 0.38(2) 0.27(3) 0.03(5) Uiso d 1
loop_
_atom_site_aniso_label
_atom_site_aniso_U_11
_atom_site_aniso_U_22
_atom_site_aniso_U_33
_atom_site_aniso_U_12
_atom_site_aniso_U_13
_atom_site_aniso_U_23
I1 0.0310(6) 0.0159(6) 0.0242(6) -0.0008(4) -0.0024(4) -0.0071(4)
Li1 0.044(15) 0.058(19) 0.038(14) -0.028(14) 0.015(12) -0.034(14)
O1 0.032(5) 0.022(5) 0.028(5) -0.006(4) -0.001(4) -0.012(4)
O2 0.029(5) 0.020(5) 0.031(5) -0.004(4) 0.005(4) -0.012(4)
loop_
_atom_type_symbol
_atom_type_description
_atom_type_scat_dispersion_real
_atom_type_scat_dispersion_imag
_atom_type_scat_source
Li Li -0.0003 0.0001 'International Tables Vol C Tables 4.2.6.8 and 6.1.1.4'
I I -0.4742 1.8119 'International Tables Vol C Tables 4.2.6.8 and 6.1.1.4'
O O 0.0106 0.0060 'International Tables Vol C Tables 4.2.6.8 and 6.1.1.4'
H H 0.0000 0.0000 'International Tables Vol C Tables 4.2.6.8 and 6.1.1.4'
loop_
_geom_angle_atom_site_label_1
_geom_angle_atom_site_label_2
_geom_angle_atom_site_label_3
_geom_angle_site_symmetry_1
_geom_angle_site_symmetry_3
_geom_angle
O2 Li1 O1 . . 101.1(15)
O2 Li1 O1 . 2_566 172(2)
O1 Li1 O1 . 2_566 86.0(12)
O2 Li1 O2 . 2_666 85.2(11)
O1 Li1 O2 . 2_666 98.9(13)
O1 Li1 O2 2_566 2_666 91.0(11)
O2 Li1 Li1 . 2_566 144(2)
O1 Li1 Li1 . 2_566 43.3(10)
O1 Li1 Li1 2_566 2_566 42.7(8)
O2 Li1 Li1 2_666 2_566 96.7(13)
O2 Li1 Li1 . 2_666 44.8(8)
O1 Li1 Li1 . 2_666 103.6(17)
O1 Li1 Li1 2_566 2_666 131.1(16)
O2 Li1 Li1 2_666 2_666 40.4(7)
Li1 Li1 Li1 2_566 2_666 128(2)
O2 Li1 I1 . . 93.0(10)
O1 Li1 I1 . . 93.5(10)
O1 Li1 I1 2_566 . 89.3(9)
O2 Li1 I1 2_666 . 167.6(16)
Li1 Li1 I1 2_566 . 91.9(11)
Li1 Li1 I1 2_666 . 136.4(14)
Li1 O1 Li1 . 2_566 94.0(12)
Li1 O2 Li1 . 2_666 94.8(11)
loop_
_geom_bond_atom_site_label_1
_geom_bond_atom_site_label_2
_geom_bond_site_symmetry_2
_geom_bond_distance
I1 Li1 . 3.22(3)
Li1 O2 . 2.00(3)
Li1 O1 . 2.04(4)
Li1 O1 2_566 2.07(3)
Li1 O2 2_666 2.17(3)
Li1 Li1 2_566 3.00(6)
Li1 Li1 2_666 3.07(5)
