#------------------------------------------------------------------------------
#$Date: 2015-09-21 03:45:58 +0300 (Mon, 21 Sep 2015) $
#$Revision: 158199 $
#$URL: svn://www.crystallography.net/cod/cif/2/02/01/2020123.cif $
#------------------------------------------------------------------------------
#
# This file is available in the Crystallography Open Database (COD),
# http://www.crystallography.net/. The original data for this entry
# were provided by IUCr Journals, http://journals.iucr.org/.
#
# The file may be used within the scientific community so long as
# proper attribution is given to the journal article from which the
# data were obtained.
#
data_2020123
loop_
_publ_author_name
'Prakash, Jai'
'Sch\"afer, Marion C.'
'Bobev, Svilen'
_publ_section_title
;
 Synthesis and structure determination of seven ternary bismuthides:
 crystal chemistry of the <i>RE</i>Li~3~Bi~2~ family (<i>RE</i> = La--Nd,
 Sm, Gd, and Tb)
;
_journal_coeditor_code           SK3600
_journal_issue                   10
_journal_name_full               'Acta Crystallographica Section C'
_journal_page_first
;
;
_journal_paper_doi               10.1107/S2053229615016393
_journal_volume                  71
_journal_year                    2015
_chemical_formula_iupac          'Nd Li3 Bi2'
_chemical_formula_sum            'Bi2 Li3 Nd'
_chemical_formula_weight         583.02
_chemical_name_systematic
;
Neodymium trilithium dibismuthide
;
_space_group_crystal_system      trigonal
_space_group_IT_number           164
_space_group_name_Hall           '-P 3 2"'
_space_group_name_H-M_alt        'P -3 m 1'
_symmetry_space_group_name_Hall  '-P 3 2"'
_symmetry_space_group_name_H-M   'P -3 m 1'
_atom_sites_solution_primary     direct
_atom_sites_solution_secondary   difmap
_audit_creation_method           SHELXL
_cell_angle_alpha                90.00
_cell_angle_beta                 90.00
_cell_angle_gamma                120.00
_cell_formula_units_Z            1
_cell_length_a                   4.6596(8)
_cell_length_b                   4.6596(8)
_cell_length_c                   7.422(2)
_cell_measurement_reflns_used    643
_cell_measurement_temperature    200(2)
_cell_measurement_theta_max      25.23
_cell_measurement_theta_min      2.74
_cell_volume                     139.56(5)
_computing_cell_refinement
;
SAINT (Bruker, 2007)
;
_computing_data_collection
;
APEX2 (Bruker, 2007)
;
_computing_data_reduction
;
SAINT (Bruker, 2007)
;
_computing_molecular_graphics
;
CrystalMaker (Palmer, 2007)
;
_computing_publication_material
;
publCIF (Westrip, 2010)
;
_computing_structure_refinement
;
SHELXTL (Sheldrick, 2008)
;
_computing_structure_solution
;
SHELXS97 (Sheldrick, 2008)
;
_diffrn_ambient_temperature      200(2)
_diffrn_measured_fraction_theta_full 0.985
_diffrn_measured_fraction_theta_max 0.985
_diffrn_measurement_device_type  'Bruker APEXII CCD'
_diffrn_measurement_method       '\f and \w scans'
_diffrn_radiation_monochromator  graphite
_diffrn_radiation_source         'fine-focus sealed tube'
_diffrn_radiation_type           MoK\a
_diffrn_radiation_wavelength     0.71073
_diffrn_reflns_av_R_equivalents  0.0649
_diffrn_reflns_av_sigmaI/netI    0.0327
_diffrn_reflns_limit_h_max       6
_diffrn_reflns_limit_h_min       -6
_diffrn_reflns_limit_k_max       6
_diffrn_reflns_limit_k_min       -6
_diffrn_reflns_limit_l_max       10
_diffrn_reflns_limit_l_min       -10
_diffrn_reflns_number            2078
_diffrn_reflns_theta_full        30.25
_diffrn_reflns_theta_max         30.25
_diffrn_reflns_theta_min         2.74
_exptl_absorpt_coefficient_mu    71.879
_exptl_absorpt_correction_T_max  0.392
_exptl_absorpt_correction_T_min  0.166
_exptl_absorpt_correction_type   multi-scan
_exptl_absorpt_process_details
;
(SADABS; Sheldrick, 2008)
;
_exptl_crystal_colour            silver
_exptl_crystal_density_diffrn    6.937
_exptl_crystal_density_method    'not measured'
_exptl_crystal_description       irregular
_exptl_crystal_F_000             235
_exptl_crystal_size_max          0.04
_exptl_crystal_size_mid          0.03
_exptl_crystal_size_min          0.02
_refine_diff_density_max         1.799
_refine_diff_density_min         -1.741
_refine_ls_extinction_coef       0.0125(12)
_refine_ls_extinction_expression Fc^*^=kFc[1+0.001xFc^2^\l^3^/sin(2\q)]^-1/4^
_refine_ls_extinction_method
;
SHELXTL (Sheldrick, 2008)
;
_refine_ls_goodness_of_fit_ref   1.132
_refine_ls_matrix_type           full
_refine_ls_number_parameters     9
_refine_ls_number_reflns         191
_refine_ls_number_restraints     0
_refine_ls_restrained_S_all      1.132
_refine_ls_R_factor_all          0.0247
_refine_ls_R_factor_gt           0.0218
_refine_ls_shift/su_max          0.000
_refine_ls_shift/su_mean         0.000
_refine_ls_structure_factor_coef Fsqd
_refine_ls_weighting_details
'calc w=1/[\s^2^(Fo^2^)+(0.0162P)^2^+0.0000P] where P=(Fo^2^+2Fc^2^)/3'
_refine_ls_weighting_scheme      calc
_refine_ls_wR_factor_gt          0.0412
_refine_ls_wR_factor_ref         0.0419
_reflns_number_gt                179
_reflns_number_total             191
_reflns_threshold_expression     >2sigma(I)
_iucr_refine_instructions_details
;
TITL NdLi3Bi2 in P-3m1 after absorption correction and tidy
CELL 0.71073 4.6596 4.6596 7.4217 90 90 120
ZERR 1 0.0008 0.0008 0.0024 0 0 0
LATT 1
SYMM -Y,+X-Y,+Z
SYMM +Y-X,-X,+Z
SYMM +Y,+X,-Z
SYMM -Y+X,-Y,-Z
SYMM -X,-X+Y,-Z
SFAC Li Nd Bi
UNIT 3 1 2
EADP Li1 Li2
SIZE 0.039 0.031 0.016
L.S. 10
PLAN  20
TEMP -73
BOND
FMAP -2
acta
WGHT    0.016200
EXTI    0.012481
FVAR       0.60681
LI1   1    0.333333    0.666667    0.640547    10.16667    0.03593
LI2   1    0.000000    0.000000    0.500000    10.08333    0.03593
ND1   2    0.000000    0.000000    0.000000    10.08333    0.01000    0.01000 =
         0.00922    0.00000    0.00000    0.00500
BI1   3    0.333333    0.666667    0.250617    10.16667    0.01035    0.01035 =
         0.01049    0.00000    0.00000    0.00518
HKLF 4 1 -1 0 0 0 -1 0 0 0 1
REM  NdLi3Bi2 in P-3m1 after absorption correction and tidy
REM R1 =  0.0218 for    179 Fo > 4sig(Fo)  and  0.0247 for all    191 data
REM      9 parameters refined using      0 restraints
END
WGHT      0.0162      0.0000
REM Highest difference peak  1.799,  deepest hole -1.741,  1-sigma level  0.401
Q1    1   0.1781  0.5891  0.3001  10.50000  0.05    1.80
Q2    1   0.3333  0.6667  0.5554  10.16667  0.05   -1.64
Q3    1   0.0000  0.5000  0.5000  10.25000  0.05    1.52
Q4    1   0.2563  0.5125  0.1876  10.50000  0.05    1.46
Q5    1   0.3333  0.6667  0.4060  10.16667  0.05    1.44
Q6    1   0.3333  0.6667  0.3316  10.16667  0.05   -1.43
Q7    1  -0.1913 -0.0087  0.0619  11.00000  0.05    1.34
Q8    1   0.0000  0.0000  0.2856  10.16667  0.05   -1.29
Q9    1   0.1538  0.3076  0.0787  10.50000  0.05   -1.26
Q10   1   0.1160  0.2319  0.1542  10.50000  0.05    1.26
Q11   1   0.0618  0.5309  0.1529  10.50000  0.05    1.25
Q12   1   0.2488  0.7512  0.2729  10.50000  0.05   -1.25
Q13   1   0.0628  0.1256  0.1954  10.50000  0.05   -1.18
Q14   1   0.4848  0.9697  0.7370  10.50000  0.05    1.14
Q15   1   0.1115  0.2229 -0.1149  10.50000  0.05   -1.14
Q16   1   0.2016  0.6008  0.6042  10.50000  0.05    1.11
Q17   1   0.2992  0.3966  0.1080  11.00000  0.05    1.10
Q18   1   0.1347  0.5674  0.4026  10.50000  0.05    1.10
Q19   1   0.2718  0.5436 -0.0085  10.50000  0.05    1.09
Q20   1   0.1816  0.0908  0.0186  10.50000  0.05   -1.08
;
_cod_data_source_file            sk3600sup1.cif
_cod_data_source_block           NdLi3Bi2
_cod_original_cell_volume        139.55(6)
_cod_database_code               2020123
loop_
_symmetry_equiv_pos_as_xyz
'x, y, z'
'-y, x-y, z'
'-x+y, -x, z'
'y, x, -z'
'x-y, -y, -z'
'-x, -x+y, -z'
'-x, -y, -z'
'y, -x+y, -z'
'x-y, x, -z'
'-y, -x, z'
'-x+y, y, z'
'x, x-y, z'
loop_
_atom_site_type_symbol
_atom_site_label
_atom_site_fract_x
_atom_site_fract_y
_atom_site_fract_z
_atom_site_U_iso_or_equiv
_atom_site_adp_type
_atom_site_calc_flag
_atom_site_refinement_flags
_atom_site_occupancy
_atom_site_symmetry_multiplicity
Li Li1 0.3333 0.6667 0.641(5) 0.036(7) Uiso d S 1 6
Li Li2 0.0000 0.0000 0.5000 0.036(7) Uiso d S 1 12
Nd Nd1 0.0000 0.0000 0.0000 0.0097(3) Uani d S 1 12
Bi Bi1 0.3333 0.6667 0.25062(7) 0.0104(2) Uani d S 1 6
loop_
_atom_site_aniso_label
_atom_site_aniso_U_11
_atom_site_aniso_U_22
_atom_site_aniso_U_33
_atom_site_aniso_U_12
_atom_site_aniso_U_13
_atom_site_aniso_U_23
Nd1 0.0100(4) 0.0100(4) 0.0092(5) 0.00500(18) 0.000 0.000
Bi1 0.0104(3) 0.0104(3) 0.0105(3) 0.00518(13) 0.000 0.000
loop_
_atom_type_symbol
_atom_type_description
_atom_type_scat_dispersion_real
_atom_type_scat_dispersion_imag
_atom_type_scat_source
Li Li -0.0003 0.0001 'International Tables Vol C Tables 4.2.6.8 and 6.1.1.4'
Nd Nd -0.1943 3.0179 'International Tables Vol C Tables 4.2.6.8 and 6.1.1.4'
Bi Bi -4.1077 10.2566 'International Tables Vol C Tables 4.2.6.8 and 6.1.1.4'
loop_
_geom_angle_atom_site_label_1
_geom_angle_atom_site_label_2
_geom_angle_atom_site_label_3
_geom_angle_site_symmetry_1
_geom_angle_site_symmetry_3
_geom_angle
Bi1 Li1 Bi1 7_666 7_676 112.1(7)
Bi1 Li1 Bi1 7_666 7_566 112.1(7)
Bi1 Li1 Bi1 7_676 7_566 112.1(7)
Bi1 Li1 Li2 7_666 1_565 175.5(14)
Bi1 Li1 Li2 7_676 1_565 69.97(5)
Bi1 Li1 Li2 7_566 1_565 69.97(5)
Bi1 Li1 Li2 7_666 . 69.97(5)
Bi1 Li1 Li2 7_676 . 175.5(14)
Bi1 Li1 Li2 7_566 . 69.97(5)
Li2 Li1 Li2 1_565 . 107.7(7)
Bi1 Li1 Li2 7_666 1_665 69.97(5)
Bi1 Li1 Li2 7_676 1_665 69.97(5)
Bi1 Li1 Li2 7_566 1_665 175.5(14)
Li2 Li1 Li2 1_565 1_665 107.7(7)
Li2 Li1 Li2 . 1_665 107.7(7)
Bi1 Li1 Bi1 7_666 . 106.7(7)
Bi1 Li1 Bi1 7_676 . 106.7(7)
Bi1 Li1 Bi1 7_566 . 106.7(7)
Li2 Li1 Bi1 1_565 . 68.8(7)
Li2 Li1 Bi1 . . 68.8(7)
Li2 Li1 Bi1 1_665 . 68.8(7)
Bi1 Li1 Li1 7_666 7_666 54.5(3)
Bi1 Li1 Li1 7_676 7_666 123.7(5)
Bi1 Li1 Li1 7_566 7_666 123.7(5)
Li2 Li1 Li1 1_565 7_666 121.0(17)
Li2 Li1 Li1 . 7_666 53.8(4)
Li2 Li1 Li1 1_665 7_666 53.8(4)
Bi1 Li1 Li1 . 7_666 52.2(10)
Bi1 Li1 Li1 7_666 7_566 123.7(5)
Bi1 Li1 Li1 7_676 7_566 123.7(5)
Bi1 Li1 Li1 7_566 7_566 54.5(3)
Li2 Li1 Li1 1_565 7_566 53.8(4)
Li2 Li1 Li1 . 7_566 53.8(4)
Li2 Li1 Li1 1_665 7_566 121.0(17)
Bi1 Li1 Li1 . 7_566 52.2(10)
Li1 Li1 Li1 7_666 7_566 86.4(15)
Bi1 Li1 Li1 7_666 7_676 123.7(5)
Bi1 Li1 Li1 7_676 7_676 54.5(3)
Bi1 Li1 Li1 7_566 7_676 123.7(5)
Li2 Li1 Li1 1_565 7_676 53.8(4)
Li2 Li1 Li1 . 7_676 121.0(17)
Li2 Li1 Li1 1_665 7_676 53.8(4)
Bi1 Li1 Li1 . 7_676 52.2(10)
Li1 Li1 Li1 7_666 7_676 86.4(15)
Li1 Li1 Li1 7_566 7_676 86.4(15)
Bi1 Li1 Nd1 7_666 1_666 57.1(4)
Bi1 Li1 Nd1 7_676 1_666 57.1(4)
Bi1 Li1 Nd1 7_566 1_666 118.5(11)
Li2 Li1 Nd1 1_565 1_666 125.8(5)
Li2 Li1 Nd1 . 1_666 125.8(5)
Li2 Li1 Nd1 1_665 1_666 66.0(3)
Bi1 Li1 Nd1 . 1_666 134.8(4)
Li1 Li1 Nd1 7_666 1_666 98.7(5)
Li1 Li1 Nd1 7_566 1_666 173.0(14)
Li1 Li1 Nd1 7_676 1_666 98.7(5)
Bi1 Li1 Nd1 7_666 1_566 118.5(11)
Bi1 Li1 Nd1 7_676 1_566 57.1(4)
Bi1 Li1 Nd1 7_566 1_566 57.1(4)
Li2 Li1 Nd1 1_565 1_566 66.0(3)
Li2 Li1 Nd1 . 1_566 125.8(5)
Li2 Li1 Nd1 1_665 1_566 125.8(5)
Bi1 Li1 Nd1 . 1_566 134.8(4)
Li1 Li1 Nd1 7_666 1_566 173.0(14)
Li1 Li1 Nd1 7_566 1_566 98.7(5)
Li1 Li1 Nd1 7_676 1_566 98.7(5)
Nd1 Li1 Nd1 1_666 1_566 75.9(6)
Li1 Li2 Li1 7_556 7_666 107.7(7)
Li1 Li2 Li1 7_556 1_445 72.3(7)
Li1 Li2 Li1 7_666 1_445 180.0000(10)
Li1 Li2 Li1 7_556 . 180.0000(10)
Li1 Li2 Li1 7_666 . 72.3(7)
Li1 Li2 Li1 1_445 . 107.7(7)
Li1 Li2 Li1 7_556 7_566 107.7(7)
Li1 Li2 Li1 7_666 7_566 107.7(7)
Li1 Li2 Li1 1_445 7_566 72.3(7)
Li1 Li2 Li1 . 7_566 72.3(7)
Li1 Li2 Li1 7_556 1_545 72.3(7)
Li1 Li2 Li1 7_666 1_545 72.3(7)
Li1 Li2 Li1 1_445 1_545 107.7(7)
Li1 Li2 Li1 . 1_545 107.7(7)
Li1 Li2 Li1 7_566 1_545 180.0(14)
Li1 Li2 Bi1 7_556 7_666 126.1(3)
Li1 Li2 Bi1 7_666 7_666 55.7(7)
Li1 Li2 Bi1 1_445 7_666 124.3(7)
Li1 Li2 Bi1 . 7_666 53.9(3)
Li1 Li2 Bi1 7_566 7_666 126.1(3)
Li1 Li2 Bi1 1_545 7_666 53.9(3)
Li1 Li2 Bi1 7_556 1_445 53.9(3)
Li1 Li2 Bi1 7_666 1_445 124.3(7)
Li1 Li2 Bi1 1_445 1_445 55.7(7)
Li1 Li2 Bi1 . 1_445 126.1(3)
Li1 Li2 Bi1 7_566 1_445 53.9(3)
Li1 Li2 Bi1 1_545 1_445 126.1(3)
Bi1 Li2 Bi1 7_666 1_445 180.0
Li1 Li2 Bi1 7_556 7_556 55.7(7)
Li1 Li2 Bi1 7_666 7_556 126.1(3)
Li1 Li2 Bi1 1_445 7_556 53.9(3)
Li1 Li2 Bi1 . 7_556 124.3(7)
Li1 Li2 Bi1 7_566 7_556 126.1(3)
Li1 Li2 Bi1 1_545 7_556 53.9(3)
Bi1 Li2 Bi1 7_666 7_556 91.038(18)
Bi1 Li2 Bi1 1_445 7_556 88.962(18)
Li1 Li2 Bi1 7_556 . 124.3(7)
Li1 Li2 Bi1 7_666 . 53.9(3)
Li1 Li2 Bi1 1_445 . 126.1(3)
Li1 Li2 Bi1 . . 55.7(7)
Li1 Li2 Bi1 7_566 . 53.9(3)
Li1 Li2 Bi1 1_545 . 126.1(3)
Bi1 Li2 Bi1 7_666 . 88.963(18)
Bi1 Li2 Bi1 1_445 . 91.037(18)
Bi1 Li2 Bi1 7_556 . 180.0
Li1 Li2 Bi1 7_556 7_566 126.1(3)
Li1 Li2 Bi1 7_666 7_566 126.1(3)
Li1 Li2 Bi1 1_445 7_566 53.9(3)
Li1 Li2 Bi1 . 7_566 53.9(3)
Li1 Li2 Bi1 7_566 7_566 55.7(7)
Li1 Li2 Bi1 1_545 7_566 124.3(7)
Bi1 Li2 Bi1 7_666 7_566 91.037(18)
Bi1 Li2 Bi1 1_445 7_566 88.963(18)
Bi1 Li2 Bi1 7_556 7_566 91.037(18)
Bi1 Li2 Bi1 . 7_566 88.963(18)
Li1 Li2 Bi1 7_556 1_545 53.9(3)
Li1 Li2 Bi1 7_666 1_545 53.9(3)
Li1 Li2 Bi1 1_445 1_545 126.1(3)
Li1 Li2 Bi1 . 1_545 126.1(3)
Li1 Li2 Bi1 7_566 1_545 124.3(7)
Li1 Li2 Bi1 1_545 1_545 55.7(7)
Bi1 Li2 Bi1 7_666 1_545 88.963(18)
Bi1 Li2 Bi1 1_445 1_545 91.037(18)
Bi1 Li2 Bi1 7_556 1_545 88.963(18)
Bi1 Li2 Bi1 . 1_545 91.037(18)
Bi1 Li2 Bi1 7_566 1_545 180.0
Bi1 Nd1 Bi1 7 7_665 90.852(18)
Bi1 Nd1 Bi1 7 1_445 89.148(18)
Bi1 Nd1 Bi1 7_665 1_445 180.0
Bi1 Nd1 Bi1 7 . 180.0
Bi1 Nd1 Bi1 7_665 . 89.148(18)
Bi1 Nd1 Bi1 1_445 . 90.852(18)
Bi1 Nd1 Bi1 7 7_565 90.852(18)
Bi1 Nd1 Bi1 7_665 7_565 90.852(18)
Bi1 Nd1 Bi1 1_445 7_565 89.148(18)
Bi1 Nd1 Bi1 . 7_565 89.148(18)
Bi1 Nd1 Bi1 7 1_545 89.148(18)
Bi1 Nd1 Bi1 7_665 1_545 89.148(18)
Bi1 Nd1 Bi1 1_445 1_545 90.852(18)
Bi1 Nd1 Bi1 . 1_545 90.852(18)
Bi1 Nd1 Bi1 7_565 1_545 180.0
Bi1 Nd1 Li2 7 . 124.660(12)
Bi1 Nd1 Li2 7_665 . 124.660(13)
Bi1 Nd1 Li2 1_445 . 55.340(13)
Bi1 Nd1 Li2 . . 55.340(13)
Bi1 Nd1 Li2 7_565 . 124.660(12)
Bi1 Nd1 Li2 1_545 . 55.340(12)
Bi1 Nd1 Li2 7 1_554 55.340(12)
Bi1 Nd1 Li2 7_665 1_554 55.340(13)
Bi1 Nd1 Li2 1_445 1_554 124.660(13)
Bi1 Nd1 Li2 . 1_554 124.660(13)
Bi1 Nd1 Li2 7_565 1_554 55.340(12)
Bi1 Nd1 Li2 1_545 1_554 124.660(12)
Li2 Nd1 Li2 . 1_554 180.0
Bi1 Nd1 Li1 7 1_444 46.17(7)
Bi1 Nd1 Li1 7_665 1_444 100.6(4)
Bi1 Nd1 Li1 1_445 1_444 79.4(4)
Bi1 Nd1 Li1 . 1_444 133.83(6)
Bi1 Nd1 Li1 7_565 1_444 46.17(7)
Bi1 Nd1 Li1 1_545 1_444 133.83(7)
Li2 Nd1 Li1 . 1_444 134.8(4)
Li2 Nd1 Li1 1_554 1_444 45.2(4)
Bi1 Nd1 Li1 7 7_666 133.83(7)
Bi1 Nd1 Li1 7_665 7_666 79.4(4)
Bi1 Nd1 Li1 1_445 7_666 100.6(4)
Bi1 Nd1 Li1 . 7_666 46.17(6)
Bi1 Nd1 Li1 7_565 7_666 133.83(7)
Bi1 Nd1 Li1 1_545 7_666 46.17(7)
Li2 Nd1 Li1 . 7_666 45.2(4)
Li2 Nd1 Li1 1_554 7_666 134.8(4)
Li1 Nd1 Li1 1_444 7_666 180.0000(10)
Bi1 Nd1 Li1 7 1_554 100.6(4)
Bi1 Nd1 Li1 7_665 1_554 46.17(7)
Bi1 Nd1 Li1 1_445 1_554 133.83(7)
Bi1 Nd1 Li1 . 1_554 79.4(4)
Bi1 Nd1 Li1 7_565 1_554 46.17(7)
Bi1 Nd1 Li1 1_545 1_554 133.83(7)
Li2 Nd1 Li1 . 1_554 134.8(4)
Li2 Nd1 Li1 1_554 1_554 45.2(4)
Li1 Nd1 Li1 1_444 1_554 75.9(6)
Li1 Nd1 Li1 7_666 1_554 104.1(6)
Bi1 Nd1 Li1 7 7_556 79.4(4)
Bi1 Nd1 Li1 7_665 7_556 133.83(7)
Bi1 Nd1 Li1 1_445 7_556 46.17(7)
Bi1 Nd1 Li1 . 7_556 100.6(4)
Bi1 Nd1 Li1 7_565 7_556 133.83(7)
Bi1 Nd1 Li1 1_545 7_556 46.17(7)
Li2 Nd1 Li1 . 7_556 45.2(4)
Li2 Nd1 Li1 1_554 7_556 134.8(4)
Li1 Nd1 Li1 1_444 7_556 104.1(6)
Li1 Nd1 Li1 7_666 7_556 75.9(6)
Li1 Nd1 Li1 1_554 7_556 180.0(8)
Li1 Bi1 Li1 7_666 7_676 112.1(7)
Li1 Bi1 Li1 7_666 7_566 112.1(7)
Li1 Bi1 Li1 7_676 7_566 112.1(7)
Li1 Bi1 Li1 7_666 . 73.3(7)
Li1 Bi1 Li1 7_676 . 73.3(7)
Li1 Bi1 Li1 7_566 . 73.3(7)
Li1 Bi1 Li2 7_666 1_665 56.1(4)
Li1 Bi1 Li2 7_676 1_665 56.1(4)
Li1 Bi1 Li2 7_566 1_665 128.8(7)
Li1 Bi1 Li2 . 1_665 55.472(13)
Li1 Bi1 Li2 7_666 1_565 128.8(7)
Li1 Bi1 Li2 7_676 1_565 56.1(4)
Li1 Bi1 Li2 7_566 1_565 56.1(4)
Li1 Bi1 Li2 . 1_565 55.472(13)
Li2 Bi1 Li2 1_665 1_565 91.037(18)
Li1 Bi1 Li2 7_666 . 56.1(4)
Li1 Bi1 Li2 7_676 . 128.8(7)
Li1 Bi1 Li2 7_566 . 56.1(4)
Li1 Bi1 Li2 . . 55.472(13)
Li2 Bi1 Li2 1_665 . 91.037(18)
Li2 Bi1 Li2 1_565 . 91.037(18)
Li1 Bi1 Nd1 7_666 . 76.7(5)
Li1 Bi1 Nd1 7_676 . 162.1(7)
Li1 Bi1 Nd1 7_566 . 76.7(5)
Li1 Bi1 Nd1 . . 124.660(13)
Li2 Bi1 Nd1 1_665 . 131.389(6)
Li2 Bi1 Nd1 1_565 . 131.389(6)
Li2 Bi1 Nd1 . . 69.187(19)
Li1 Bi1 Nd1 7_666 1_565 162.1(7)
Li1 Bi1 Nd1 7_676 1_565 76.7(5)
Li1 Bi1 Nd1 7_566 1_565 76.7(5)
Li1 Bi1 Nd1 . 1_565 124.660(13)
Li2 Bi1 Nd1 1_665 1_565 131.389(6)
Li2 Bi1 Nd1 1_565 1_565 69.19(2)
Li2 Bi1 Nd1 . 1_565 131.389(6)
Nd1 Bi1 Nd1 . 1_565 90.852(18)
Li1 Bi1 Nd1 7_666 1_665 76.7(5)
Li1 Bi1 Nd1 7_676 1_665 76.7(5)
Li1 Bi1 Nd1 7_566 1_665 162.1(7)
Li1 Bi1 Nd1 . 1_665 124.660(13)
Li2 Bi1 Nd1 1_665 1_665 69.187(19)
Li2 Bi1 Nd1 1_565 1_665 131.389(6)
Li2 Bi1 Nd1 . 1_665 131.389(6)
Nd1 Bi1 Nd1 . 1_665 90.852(18)
Nd1 Bi1 Nd1 1_565 1_665 90.852(18)
loop_
_geom_bond_atom_site_label_1
_geom_bond_atom_site_label_2
_geom_bond_site_symmetry_2
_geom_bond_distance
Li1 Bi1 7_666 2.809(11)
Li1 Bi1 7_676 2.809(11)
Li1 Bi1 7_566 2.809(11)
Li1 Li2 1_565 2.885(14)
Li1 Li2 . 2.885(14)
Li1 Li2 1_665 2.885(14)
Li1 Bi1 . 2.89(4)
Li1 Li1 7_666 3.40(5)
Li1 Li1 7_566 3.40(5)
Li1 Li1 7_676 3.40(5)
Li1 Nd1 1_666 3.79(3)
Li1 Nd1 1_566 3.79(3)
Li2 Li1 7_556 2.885(14)
Li2 Li1 7_666 2.885(14)
Li2 Li1 1_445 2.885(14)
Li2 Li1 7_566 2.885(14)
Li2 Li1 1_545 2.885(14)
Li2 Bi1 7_666 3.2654(6)
Li2 Bi1 1_445 3.2654(6)
Li2 Bi1 7_556 3.2654(6)
Li2 Bi1 . 3.2654(6)
Li2 Bi1 7_566 3.2654(6)
Li2 Bi1 1_545 3.2654(6)
Nd1 Bi1 7 3.2706(6)
Nd1 Bi1 7_665 3.2706(6)
Nd1 Bi1 1_445 3.2706(6)
Nd1 Bi1 . 3.2706(6)
Nd1 Bi1 7_565 3.2706(6)
Nd1 Bi1 1_545 3.2706(6)
Nd1 Li2 1_554 3.7109(12)
Nd1 Li1 1_444 3.79(3)
Nd1 Li1 7_666 3.79(3)
Nd1 Li1 1_554 3.79(3)
Nd1 Li1 7_556 3.79(3)
Bi1 Li1 7_666 2.809(11)
Bi1 Li1 7_676 2.809(11)
Bi1 Li1 7_566 2.809(11)
Bi1 Li2 1_665 3.2654(6)
Bi1 Li2 1_565 3.2654(6)
Bi1 Nd1 1_565 3.2706(6)
Bi1 Nd1 1_665 3.2706(6)

_cod_database_fobs_code 2020123
