#------------------------------------------------------------------------------
#$Date: 2015-09-21 03:45:58 +0300 (Mon, 21 Sep 2015) $
#$Revision: 158199 $
#$URL: svn://www.crystallography.net/cod/cif/2/02/01/2020126.cif $
#------------------------------------------------------------------------------
#
# This file is available in the Crystallography Open Database (COD),
# http://www.crystallography.net/. The original data for this entry
# were provided by IUCr Journals, http://journals.iucr.org/.
#
# The file may be used within the scientific community so long as
# proper attribution is given to the journal article from which the
# data were obtained.
#
data_2020126
loop_
_publ_author_name
'Prakash, Jai'
'Sch\"afer, Marion C.'
'Bobev, Svilen'
_publ_section_title
;
 Synthesis and structure determination of seven ternary bismuthides:
 crystal chemistry of the <i>RE</i>Li~3~Bi~2~ family (<i>RE</i> = La--Nd,
 Sm, Gd, and Tb)
;
_journal_coeditor_code           SK3600
_journal_issue                   10
_journal_name_full               'Acta Crystallographica Section C'
_journal_page_first
;
;
_journal_paper_doi               10.1107/S2053229615016393
_journal_volume                  71
_journal_year                    2015
_chemical_formula_iupac          'Tb Li3 Bi2'
_chemical_formula_sum            'Bi2 Li3 Tb'
_chemical_formula_weight         597.70
_chemical_name_systematic
;
Terbium trilithium dibismuthide
;
_space_group_crystal_system      trigonal
_space_group_IT_number           164
_space_group_name_Hall           '-P 3 2"'
_space_group_name_H-M_alt        'P -3 m 1'
_symmetry_space_group_name_Hall  '-P 3 2"'
_symmetry_space_group_name_H-M   'P -3 m 1'
_atom_sites_solution_primary     direct
_atom_sites_solution_secondary   difmap
_audit_creation_method           SHELXL
_cell_angle_alpha                90.00
_cell_angle_beta                 90.00
_cell_angle_gamma                120.00
_cell_formula_units_Z            1
_cell_length_a                   4.6165(9)
_cell_length_b                   4.6165(9)
_cell_length_c                   7.3087(14)
_cell_measurement_reflns_used    1076
_cell_measurement_temperature    200(2)
_cell_measurement_theta_max      30.08
_cell_measurement_theta_min      2.79
_cell_volume                     134.90(5)
_computing_cell_refinement
;
SAINT (Bruker, 2007)
;
_computing_data_collection
;
APEX2 (Bruker, 2007)
;
_computing_data_reduction
;
SAINT (Bruker, 2007)
;
_computing_molecular_graphics
;
CrystalMaker (Palmer, 2007)
;
_computing_publication_material
;
publCIF (Westrip, 2010)
;
_computing_structure_refinement
;
SHELXTL (Sheldrick, 2008)
;
_computing_structure_solution
;
SHELXS97 (Sheldrick, 2008)
;
_diffrn_ambient_temperature      200(2)
_diffrn_measured_fraction_theta_full 0.979
_diffrn_measured_fraction_theta_max 0.979
_diffrn_measurement_device_type  'Bruker APEXII CCD'
_diffrn_measurement_method       '\f and \w scans'
_diffrn_radiation_monochromator  graphite
_diffrn_radiation_source         'fine-focus sealed tube'
_diffrn_radiation_type           MoK\a
_diffrn_radiation_wavelength     0.71073
_diffrn_reflns_av_R_equivalents  0.0370
_diffrn_reflns_av_sigmaI/netI    0.0191
_diffrn_reflns_limit_h_max       6
_diffrn_reflns_limit_h_min       -6
_diffrn_reflns_limit_k_max       6
_diffrn_reflns_limit_k_min       -6
_diffrn_reflns_limit_l_max       9
_diffrn_reflns_limit_l_min       -9
_diffrn_reflns_number            2012
_diffrn_reflns_theta_full        30.29
_diffrn_reflns_theta_max         30.29
_diffrn_reflns_theta_min         2.79
_exptl_absorpt_coefficient_mu    77.843
_exptl_absorpt_correction_T_max  0.1241
_exptl_absorpt_correction_T_min  0.0876
_exptl_absorpt_correction_type   multi-scan
_exptl_absorpt_process_details
;
(SADABS; Sheldrick, 2008)
;
_exptl_crystal_colour            silver
_exptl_crystal_density_diffrn    7.358
_exptl_crystal_density_method    'not measured'
_exptl_crystal_description       irregular
_exptl_crystal_F_000             240
_exptl_crystal_size_max          0.06
_exptl_crystal_size_mid          0.05
_exptl_crystal_size_min          0.05
_refine_diff_density_max         1.168
_refine_diff_density_min         -3.332
_refine_ls_extinction_coef       0.0260(17)
_refine_ls_extinction_expression Fc^*^=kFc[1+0.001xFc^2^\l^3^/sin(2\q)]^-1/4^
_refine_ls_extinction_method
;
SHELXTL (Sheldrick, 2008)
;
_refine_ls_goodness_of_fit_ref   1.174
_refine_ls_matrix_type           full
_refine_ls_number_parameters     9
_refine_ls_number_reflns         185
_refine_ls_number_restraints     0
_refine_ls_restrained_S_all      1.174
_refine_ls_R_factor_all          0.0185
_refine_ls_R_factor_gt           0.0184
_refine_ls_shift/su_max          0.000
_refine_ls_shift/su_mean         0.000
_refine_ls_structure_factor_coef Fsqd
_refine_ls_weighting_details
'calc w=1/[\s^2^(Fo^2^)+(0.0188P)^2^+0.6736P] where P=(Fo^2^+2Fc^2^)/3'
_refine_ls_weighting_scheme      calc
_refine_ls_wR_factor_gt          0.0393
_refine_ls_wR_factor_ref         0.0394
_reflns_number_gt                183
_reflns_number_total             185
_reflns_threshold_expression     >2sigma(I)
_iucr_refine_instructions_details
;
TITL TbLi3Bi2 in P-3m1 after absorption correction and tidy
CELL 0.71073 4.6165 4.6165 7.3087 90 90 120
ZERR 1 0.0009 0.0009 0.0014 0 0 0
LATT 1
SYMM -Y,+X-Y,+Z
SYMM +Y-X,-X,+Z
SYMM -Y+X,-Y,-Z
SYMM -X,-X+Y,-Z
SYMM +Y,+X,-Z
SFAC Bi Li Tb
UNIT 2 3 1
L.S. 10
PLAN  20
SIZE 0.046 0.049 0.061
TEMP -73
BOND
fmap -2
EADP Li1 Li2
ACTA
WGHT    0.018800    0.673600
EXTI    0.025965
FVAR       0.63962
LI1   2    0.333333    0.666667    0.647255    10.16667    0.01698
LI2   2    0.000000    0.000000    0.500000    10.08333    0.01698
TB1   3    0.000000    0.000000    0.000000    10.08333    0.00736    0.00736 =
         0.00576    0.00000    0.00000    0.00368
BI1   1    0.333333    0.666667    0.244918    10.16667    0.00718    0.00718 =
         0.00728    0.00000    0.00000    0.00359
HKLF 4
REM  TbLi3Bi2 in P-3m1 after absorption correction and tidy
REM R1 =  0.0184 for    183 Fo > 4sig(Fo)  and  0.0185 for all    185 data
REM      9 parameters refined using      0 restraints
END
WGHT      0.0188      0.6736
REM Highest difference peak  1.168,  deepest hole -3.332,  1-sigma level  0.369
Q1    1   0.3333  0.6667  0.3605  10.16667  0.05   -3.33
Q2    1   0.0000  0.0000  0.1349  10.16667  0.05   -2.49
Q3    1   0.3333  0.6667  0.1179  10.16667  0.05   -2.24
Q4    1   0.0000  0.0000  0.6032  10.16667  0.05   -1.28
Q5    1   0.2713  0.7287  0.0291  10.50000  0.05   -1.20
Q6    1   0.4438  0.8876  0.2574  10.50000  0.05    1.17
Q7    1   0.4942  0.7471  0.3313  10.50000  0.05    1.12
Q8    1   0.2176  0.4352  0.7297  10.50000  0.05   -1.12
Q9    1   0.4043  0.8087  0.1719  10.50000  0.05    1.05
Q10   1   0.1637  0.0819  0.4594  10.50000  0.05   -0.97
Q11   1   0.2659  0.5317  0.1828  10.50000  0.05    0.93
Q12   1   0.2407  0.2407  0.0000  10.50000  0.05    0.92
Q13   1   0.2360  0.1180  0.0422  10.50000  0.05    0.89
Q14   1   0.4515  0.9030 -0.0209  10.50000  0.05   -0.86
Q15   1   0.4019  0.8038  0.5509  10.50000  0.05    0.86
Q16   1   0.0678  0.1356  0.4508  10.50000  0.05    0.82
Q17   1   0.3333  0.6667  0.5621  10.16667  0.05   -0.80
Q18   1   0.0849  0.1698  0.0831  10.50000  0.05    0.80
Q19   1   0.5000  1.0000  0.5000  10.25000  0.05    0.80
Q20   1   0.1914  0.8086  0.2534  10.50000  0.05    0.79
;
_cod_data_source_file            sk3600sup1.cif
_cod_data_source_block           TbLi3Bi2
_cod_database_code               2020126
loop_
_symmetry_equiv_pos_as_xyz
'x, y, z'
'-y, x-y, z'
'-x+y, -x, z'
'x-y, -y, -z'
'-x, -x+y, -z'
'y, x, -z'
'-x, -y, -z'
'y, -x+y, -z'
'x-y, x, -z'
'-x+y, y, z'
'x, x-y, z'
'-y, -x, z'
loop_
_atom_site_type_symbol
_atom_site_label
_atom_site_fract_x
_atom_site_fract_y
_atom_site_fract_z
_atom_site_U_iso_or_equiv
_atom_site_adp_type
_atom_site_calc_flag
_atom_site_refinement_flags
_atom_site_occupancy
_atom_site_symmetry_multiplicity
Li Li1 0.3333 0.6667 0.647(3) 0.017(4) Uiso d S 1 6
Li Li2 0.0000 0.0000 0.5000 0.017(4) Uiso d S 1 12
Tb Tb1 0.0000 0.0000 0.0000 0.0068(2) Uani d S 1 12
Bi Bi1 0.3333 0.6667 0.24492(6) 0.0072(2) Uani d S 1 6
loop_
_atom_site_aniso_label
_atom_site_aniso_U_11
_atom_site_aniso_U_22
_atom_site_aniso_U_33
_atom_site_aniso_U_12
_atom_site_aniso_U_13
_atom_site_aniso_U_23
Tb1 0.0074(3) 0.0074(3) 0.0058(4) 0.00368(13) 0.000 0.000
Bi1 0.0072(2) 0.0072(2) 0.0073(3) 0.00359(11) 0.000 0.000
loop_
_atom_type_symbol
_atom_type_description
_atom_type_scat_dispersion_real
_atom_type_scat_dispersion_imag
_atom_type_scat_source
Bi Bi -4.1077 10.2566 'International Tables Vol C Tables 4.2.6.8 and 6.1.1.4'
Li Li -0.0003 0.0001 'International Tables Vol C Tables 4.2.6.8 and 6.1.1.4'
Tb Tb -0.1723 4.1537 'International Tables Vol C Tables 4.2.6.8 and 6.1.1.4'
loop_
_geom_angle_atom_site_label_1
_geom_angle_atom_site_label_2
_geom_angle_atom_site_label_3
_geom_angle_site_symmetry_1
_geom_angle_site_symmetry_3
_geom_angle
Bi1 Li1 Bi1 7_666 7_676 112.3(4)
Bi1 Li1 Bi1 7_666 7_566 112.3(4)
Bi1 Li1 Bi1 7_676 7_566 112.3(4)
Bi1 Li1 Li2 7_666 1_565 174.5(9)
Bi1 Li1 Li2 7_676 1_565 70.22(4)
Bi1 Li1 Li2 7_566 1_565 70.22(4)
Bi1 Li1 Li2 7_666 . 70.22(4)
Bi1 Li1 Li2 7_676 . 174.5(9)
Bi1 Li1 Li2 7_566 . 70.22(4)
Li2 Li1 Li2 1_565 . 106.8(5)
Bi1 Li1 Li2 7_666 1_665 70.22(4)
Bi1 Li1 Li2 7_676 1_665 70.22(4)
Bi1 Li1 Li2 7_566 1_665 174.5(9)
Li2 Li1 Li2 1_565 1_665 106.8(5)
Li2 Li1 Li2 . 1_665 106.8(5)
Bi1 Li1 Bi1 7_666 . 106.5(5)
Bi1 Li1 Bi1 7_676 . 106.5(5)
Bi1 Li1 Bi1 7_566 . 106.5(5)
Li2 Li1 Bi1 1_565 . 68.0(4)
Li2 Li1 Bi1 . . 68.0(4)
Li2 Li1 Bi1 1_665 . 68.0(4)
Bi1 Li1 Li1 7_666 7_666 55.40(15)
Bi1 Li1 Li1 7_676 7_666 123.4(3)
Bi1 Li1 Li1 7_566 7_666 123.4(3)
Li2 Li1 Li1 1_565 7_666 119.1(11)
Li2 Li1 Li1 . 7_666 53.4(2)
Li2 Li1 Li1 1_665 7_666 53.4(2)
Bi1 Li1 Li1 . 7_666 51.1(6)
Bi1 Li1 Li1 7_666 7_566 123.4(3)
Bi1 Li1 Li1 7_676 7_566 123.4(3)
Bi1 Li1 Li1 7_566 7_566 55.40(15)
Li2 Li1 Li1 1_565 7_566 53.4(2)
Li2 Li1 Li1 . 7_566 53.4(2)
Li2 Li1 Li1 1_665 7_566 119.1(11)
Bi1 Li1 Li1 . 7_566 51.1(6)
Li1 Li1 Li1 7_666 7_566 84.7(9)
Bi1 Li1 Li1 7_666 7_676 123.4(3)
Bi1 Li1 Li1 7_676 7_676 55.40(15)
Bi1 Li1 Li1 7_566 7_676 123.4(3)
Li2 Li1 Li1 1_565 7_676 53.4(2)
Li2 Li1 Li1 . 7_676 119.1(11)
Li2 Li1 Li1 1_665 7_676 53.4(2)
Bi1 Li1 Li1 . 7_676 51.1(6)
Li1 Li1 Li1 7_666 7_676 84.7(9)
Li1 Li1 Li1 7_566 7_676 84.7(9)
Bi1 Li1 Tb1 7_666 1_666 57.2(3)
Bi1 Li1 Tb1 7_676 1_666 57.2(3)
Bi1 Li1 Tb1 7_566 1_666 119.5(7)
Li2 Li1 Tb1 1_565 1_666 126.4(3)
Li2 Li1 Tb1 . 1_666 126.4(3)
Li2 Li1 Tb1 1_665 1_666 66.04(18)
Bi1 Li1 Tb1 . 1_666 134.0(3)
Li1 Li1 Tb1 7_666 1_666 99.0(3)
Li1 Li1 Tb1 7_566 1_666 174.9(9)
Li1 Li1 Tb1 7_676 1_666 99.0(3)
Bi1 Li1 Tb1 7_666 1_566 119.5(7)
Bi1 Li1 Tb1 7_676 1_566 57.2(3)
Bi1 Li1 Tb1 7_566 1_566 57.2(3)
Li2 Li1 Tb1 1_565 1_566 66.04(18)
Li2 Li1 Tb1 . 1_566 126.4(3)
Li2 Li1 Tb1 1_665 1_566 126.4(3)
Bi1 Li1 Tb1 . 1_566 134.0(3)
Li1 Li1 Tb1 7_666 1_566 174.9(9)
Li1 Li1 Tb1 7_566 1_566 99.0(3)
Li1 Li1 Tb1 7_676 1_566 99.0(3)
Tb1 Li1 Tb1 1_666 1_566 77.0(4)
Li1 Li2 Li1 7_556 7_666 106.8(5)
Li1 Li2 Li1 7_556 1_445 73.2(5)
Li1 Li2 Li1 7_666 1_445 180.0000(10)
Li1 Li2 Li1 7_556 . 180.0000(10)
Li1 Li2 Li1 7_666 . 73.2(5)
Li1 Li2 Li1 1_445 . 106.8(5)
Li1 Li2 Li1 7_556 7_566 106.8(5)
Li1 Li2 Li1 7_666 7_566 106.8(5)
Li1 Li2 Li1 1_445 7_566 73.2(5)
Li1 Li2 Li1 . 7_566 73.2(5)
Li1 Li2 Li1 7_556 1_545 73.2(5)
Li1 Li2 Li1 7_666 1_545 73.2(5)
Li1 Li2 Li1 1_445 1_545 106.8(5)
Li1 Li2 Li1 . 1_545 106.8(5)
Li1 Li2 Li1 7_566 1_545 180.0
Li1 Li2 Bi1 7_556 7_666 126.5(2)
Li1 Li2 Bi1 7_666 7_666 57.0(4)
Li1 Li2 Bi1 1_445 7_666 123.0(4)
Li1 Li2 Bi1 . 7_666 53.5(2)
Li1 Li2 Bi1 7_566 7_666 126.5(2)
Li1 Li2 Bi1 1_545 7_666 53.5(2)
Li1 Li2 Bi1 7_556 1_445 53.5(2)
Li1 Li2 Bi1 7_666 1_445 123.0(4)
Li1 Li2 Bi1 1_445 1_445 57.0(4)
Li1 Li2 Bi1 . 1_445 126.5(2)
Li1 Li2 Bi1 7_566 1_445 53.5(2)
Li1 Li2 Bi1 1_545 1_445 126.5(2)
Bi1 Li2 Bi1 7_666 1_445 180.0
Li1 Li2 Bi1 7_556 7_556 57.0(4)
Li1 Li2 Bi1 7_666 7_556 126.5(2)
Li1 Li2 Bi1 1_445 7_556 53.5(2)
Li1 Li2 Bi1 . 7_556 123.0(4)
Li1 Li2 Bi1 7_566 7_556 126.5(2)
Li1 Li2 Bi1 1_545 7_556 53.5(2)
Bi1 Li2 Bi1 7_666 7_556 90.414(13)
Bi1 Li2 Bi1 1_445 7_556 89.586(13)
Li1 Li2 Bi1 7_556 . 123.0(4)
Li1 Li2 Bi1 7_666 . 53.5(2)
Li1 Li2 Bi1 1_445 . 126.5(2)
Li1 Li2 Bi1 . . 57.0(4)
Li1 Li2 Bi1 7_566 . 53.5(2)
Li1 Li2 Bi1 1_545 . 126.5(2)
Bi1 Li2 Bi1 7_666 . 89.586(13)
Bi1 Li2 Bi1 1_445 . 90.414(13)
Bi1 Li2 Bi1 7_556 . 180.0
Li1 Li2 Bi1 7_556 7_566 126.5(2)
Li1 Li2 Bi1 7_666 7_566 126.5(2)
Li1 Li2 Bi1 1_445 7_566 53.5(2)
Li1 Li2 Bi1 . 7_566 53.5(2)
Li1 Li2 Bi1 7_566 7_566 57.0(4)
Li1 Li2 Bi1 1_545 7_566 123.0(4)
Bi1 Li2 Bi1 7_666 7_566 90.413(13)
Bi1 Li2 Bi1 1_445 7_566 89.587(13)
Bi1 Li2 Bi1 7_556 7_566 90.413(13)
Bi1 Li2 Bi1 . 7_566 89.586(13)
Li1 Li2 Bi1 7_556 1_545 53.5(2)
Li1 Li2 Bi1 7_666 1_545 53.5(2)
Li1 Li2 Bi1 1_445 1_545 126.5(2)
Li1 Li2 Bi1 . 1_545 126.5(2)
Li1 Li2 Bi1 7_566 1_545 123.0(4)
Li1 Li2 Bi1 1_545 1_545 57.0(4)
Bi1 Li2 Bi1 7_666 1_545 89.587(13)
Bi1 Li2 Bi1 1_445 1_545 90.413(13)
Bi1 Li2 Bi1 7_556 1_545 89.587(13)
Bi1 Li2 Bi1 . 1_545 90.414(13)
Bi1 Li2 Bi1 7_566 1_545 180.0
Bi1 Tb1 Bi1 7 7_665 91.934(13)
Bi1 Tb1 Bi1 7 1_445 88.066(13)
Bi1 Tb1 Bi1 7_665 1_445 180.0
Bi1 Tb1 Bi1 7 . 180.0
Bi1 Tb1 Bi1 7_665 . 88.066(13)
Bi1 Tb1 Bi1 1_445 . 91.934(13)
Bi1 Tb1 Bi1 7 7_565 91.933(13)
Bi1 Tb1 Bi1 7_665 7_565 91.933(13)
Bi1 Tb1 Bi1 1_445 7_565 88.067(13)
Bi1 Tb1 Bi1 . 7_565 88.066(13)
Bi1 Tb1 Bi1 7 1_545 88.067(13)
Bi1 Tb1 Bi1 7_665 1_545 88.067(13)
Bi1 Tb1 Bi1 1_445 1_545 91.933(13)
Bi1 Tb1 Bi1 . 1_545 91.934(13)
Bi1 Tb1 Bi1 7_565 1_545 180.0
Bi1 Tb1 Li2 7 . 123.885(10)
Bi1 Tb1 Li2 7_665 . 123.885(9)
Bi1 Tb1 Li2 1_445 . 56.115(9)
Bi1 Tb1 Li2 . . 56.115(9)
Bi1 Tb1 Li2 7_565 . 123.885(10)
Bi1 Tb1 Li2 1_545 . 56.115(10)
Bi1 Tb1 Li2 7 1_554 56.115(10)
Bi1 Tb1 Li2 7_665 1_554 56.115(9)
Bi1 Tb1 Li2 1_445 1_554 123.885(9)
Bi1 Tb1 Li2 . 1_554 123.885(9)
Bi1 Tb1 Li2 7_565 1_554 56.115(10)
Bi1 Tb1 Li2 1_545 1_554 123.885(10)
Li2 Tb1 Li2 . 1_554 180.0
Bi1 Tb1 Li1 7 1_444 46.69(4)
Bi1 Tb1 Li1 7_665 1_444 102.1(3)
Bi1 Tb1 Li1 1_445 1_444 77.9(3)
Bi1 Tb1 Li1 . 1_444 133.31(4)
Bi1 Tb1 Li1 7_565 1_444 46.69(4)
Bi1 Tb1 Li1 1_545 1_444 133.31(4)
Li2 Tb1 Li1 . 1_444 134.0(3)
Li2 Tb1 Li1 1_554 1_444 46.0(3)
Bi1 Tb1 Li1 7 7_666 133.31(4)
Bi1 Tb1 Li1 7_665 7_666 77.9(3)
Bi1 Tb1 Li1 1_445 7_666 102.1(3)
Bi1 Tb1 Li1 . 7_666 46.69(4)
Bi1 Tb1 Li1 7_565 7_666 133.31(4)
Bi1 Tb1 Li1 1_545 7_666 46.69(4)
Li2 Tb1 Li1 . 7_666 46.0(3)
Li2 Tb1 Li1 1_554 7_666 134.0(3)
Li1 Tb1 Li1 1_444 7_666 180.0000(10)
Bi1 Tb1 Li1 7 1_554 102.1(3)
Bi1 Tb1 Li1 7_665 1_554 46.69(4)
Bi1 Tb1 Li1 1_445 1_554 133.31(4)
Bi1 Tb1 Li1 . 1_554 77.9(3)
Bi1 Tb1 Li1 7_565 1_554 46.69(4)
Bi1 Tb1 Li1 1_545 1_554 133.31(4)
Li2 Tb1 Li1 . 1_554 134.0(3)
Li2 Tb1 Li1 1_554 1_554 46.0(3)
Li1 Tb1 Li1 1_444 1_554 77.0(4)
Li1 Tb1 Li1 7_666 1_554 103.0(4)
Bi1 Tb1 Li1 7 7_556 77.9(3)
Bi1 Tb1 Li1 7_665 7_556 133.31(4)
Bi1 Tb1 Li1 1_445 7_556 46.69(4)
Bi1 Tb1 Li1 . 7_556 102.1(3)
Bi1 Tb1 Li1 7_565 7_556 133.31(4)
Bi1 Tb1 Li1 1_545 7_556 46.69(4)
Li2 Tb1 Li1 . 7_556 46.0(3)
Li2 Tb1 Li1 1_554 7_556 134.0(3)
Li1 Tb1 Li1 1_444 7_556 103.0(4)
Li1 Tb1 Li1 7_666 7_556 77.0(4)
Li1 Tb1 Li1 1_554 7_556 180.0(5)
Li1 Bi1 Li1 7_666 7_676 112.3(4)
Li1 Bi1 Li1 7_666 7_566 112.3(4)
Li1 Bi1 Li1 7_676 7_566 112.3(4)
Li1 Bi1 Li1 7_666 . 73.5(5)
Li1 Bi1 Li1 7_676 . 73.5(5)
Li1 Bi1 Li1 7_566 . 73.5(5)
Li1 Bi1 Tb1 7_666 1_565 162.6(5)
Li1 Bi1 Tb1 7_676 1_565 76.1(3)
Li1 Bi1 Tb1 7_566 1_565 76.1(3)
Li1 Bi1 Tb1 . 1_565 123.885(10)
Li1 Bi1 Tb1 7_666 . 76.1(3)
Li1 Bi1 Tb1 7_676 . 162.6(5)
Li1 Bi1 Tb1 7_566 . 76.1(3)
Li1 Bi1 Tb1 . . 123.885(9)
Tb1 Bi1 Tb1 1_565 . 91.934(13)
Li1 Bi1 Tb1 7_666 1_665 76.1(3)
Li1 Bi1 Tb1 7_676 1_665 76.1(3)
Li1 Bi1 Tb1 7_566 1_665 162.6(5)
Li1 Bi1 Tb1 . 1_665 123.885(10)
Tb1 Bi1 Tb1 1_565 1_665 91.934(13)
Tb1 Bi1 Tb1 . 1_665 91.934(13)
Li1 Bi1 Li2 7_666 1_665 56.3(2)
Li1 Bi1 Li2 7_676 1_665 56.3(2)
Li1 Bi1 Li2 7_566 1_665 128.6(5)
Li1 Bi1 Li2 . 1_665 55.028(9)
Tb1 Bi1 Li2 1_565 1_665 131.276(5)
Tb1 Bi1 Li2 . 1_665 131.276(4)
Tb1 Bi1 Li2 1_665 1_665 68.857(15)
Li1 Bi1 Li2 7_666 1_565 128.6(5)
Li1 Bi1 Li2 7_676 1_565 56.3(2)
Li1 Bi1 Li2 7_566 1_565 56.3(2)
Li1 Bi1 Li2 . 1_565 55.028(9)
Tb1 Bi1 Li2 1_565 1_565 68.857(15)
Tb1 Bi1 Li2 . 1_565 131.276(5)
Tb1 Bi1 Li2 1_665 1_565 131.276(5)
Li2 Bi1 Li2 1_665 1_565 90.413(13)
Li1 Bi1 Li2 7_666 . 56.3(2)
Li1 Bi1 Li2 7_676 . 128.6(5)
Li1 Bi1 Li2 7_566 . 56.3(2)
Li1 Bi1 Li2 . . 55.028(10)
Tb1 Bi1 Li2 1_565 . 131.276(5)
Tb1 Bi1 Li2 . . 68.857(15)
Tb1 Bi1 Li2 1_665 . 131.276(5)
Li2 Bi1 Li2 1_665 . 90.413(14)
Li2 Bi1 Li2 1_565 . 90.413(13)
loop_
_geom_bond_atom_site_label_1
_geom_bond_atom_site_label_2
_geom_bond_site_symmetry_2
_geom_bond_distance
Li1 Bi1 7_666 2.779(7)
Li1 Bi1 7_676 2.779(7)
Li1 Bi1 7_566 2.779(7)
Li1 Li2 1_565 2.874(9)
Li1 Li2 . 2.874(9)
Li1 Li2 1_665 2.874(9)
Li1 Bi1 . 2.94(2)
Li1 Li1 7_666 3.43(3)
Li1 Li1 7_566 3.43(3)
Li1 Li1 7_676 3.43(3)
Li1 Tb1 1_666 3.708(17)
Li1 Tb1 1_566 3.708(17)
Li2 Li1 7_556 2.874(9)
Li2 Li1 7_666 2.874(9)
Li2 Li1 1_445 2.874(9)
Li2 Li1 7_566 2.874(9)
Li2 Li1 1_545 2.874(9)
Li2 Bi1 7_666 3.2526(5)
Li2 Bi1 1_445 3.2526(5)
Li2 Bi1 7_556 3.2526(5)
Li2 Bi1 . 3.2526(5)
Li2 Bi1 7_566 3.2527(5)
Li2 Bi1 1_545 3.2527(5)
Tb1 Bi1 7 3.2106(5)
Tb1 Bi1 7_665 3.2106(5)
Tb1 Bi1 1_445 3.2106(5)
Tb1 Bi1 . 3.2106(5)
Tb1 Bi1 7_565 3.2107(5)
Tb1 Bi1 1_545 3.2107(5)
Tb1 Li2 1_554 3.6544(7)
Tb1 Li1 1_444 3.708(17)
Tb1 Li1 7_666 3.708(17)
Tb1 Li1 1_554 3.708(17)
Tb1 Li1 7_556 3.708(17)
Bi1 Li1 7_666 2.779(7)
Bi1 Li1 7_676 2.779(7)
Bi1 Li1 7_566 2.779(7)
Bi1 Tb1 1_565 3.2106(5)
Bi1 Tb1 1_665 3.2106(5)
Bi1 Li2 1_665 3.2526(5)
Bi1 Li2 1_565 3.2526(5)

_cod_database_fobs_code 2020126
