#------------------------------------------------------------------------------
#$Date: 2018-01-24 08:30:12 +0200 (Wed, 24 Jan 2018) $
#$Revision: 205533 $
#$URL: file:///home/coder/svn-repositories/cod/cif/2/02/09/2020960.cif $
#------------------------------------------------------------------------------
#
# This file is available in the Crystallography Open Database (COD),
# http://www.crystallography.net/. The original data for this entry
# were provided by IUCr Journals, http://journals.iucr.org/.
#
# The file may be used within the scientific community so long as
# proper attribution is given to the journal article from which the
# data were obtained.
#
data_2020960
loop_
_publ_author_name
'Sohr, Julia'
'Schmidt, Horst'
'Voigt, Wolfgang'
_publ_section_title
;
 Higher hydrates of lithium chloride, lithium bromide and lithium iodide
;
_journal_coeditor_code           QF3002
_journal_issue                   2
_journal_name_full               'Acta Crystallographica Section C'
_journal_page_first
;
;
_journal_paper_doi               10.1107/S2053229618001183
_journal_volume                  74
_journal_year                    2018
_chemical_formula_iupac          'Li Br, 3H2 O'
_chemical_formula_moiety         'Br, 3(H2 O), Li'
_chemical_formula_sum            'Br H6 Li O3'
_chemical_formula_weight         140.90
_chemical_name_systematic
;
Lithium bromide trihydrate
;
_space_group_crystal_system      orthorhombic
_space_group_IT_number           63
_space_group_name_Hall           '-C 2c 2'
_space_group_name_H-M_alt        'C m c m'
_symmetry_space_group_name_Hall  '-C 2c 2'
_symmetry_space_group_name_H-M   'C m c m'
_atom_sites_solution_hydrogens   difmap
_audit_creation_method           SHELXL-2014/7
_cell_angle_alpha                90
_cell_angle_beta                 90
_cell_angle_gamma                90
_cell_formula_units_Z            4
_cell_length_a                   7.2785(17)
_cell_length_b                   11.088(3)
_cell_length_c                   5.687(2)
_cell_measurement_reflns_used    4551
_cell_measurement_temperature    150
_cell_measurement_theta_max      29.64
_cell_measurement_theta_min      3.39
_cell_volume                     459.0(2)
_computing_cell_refinement
;
X-AREA (Stoe & Cie, 2015)
;
_computing_data_collection
;
X-AREA (Stoe & Cie, 2015)
;
_computing_data_reduction
;
X-RED (Stoe & Cie, 2015)
;
_computing_molecular_graphics
;
DIAMOND (Brandenburg, 2017)
;
_computing_publication_material
;
publCIF (Westrip, 2010)
;
_computing_structure_refinement
;
SHELXL2014 (Sheldrick, 2015)
;
_computing_structure_solution
;
SHELXS97 (Sheldrick, 2008)
;
_diffrn_ambient_temperature      150
_diffrn_detector_area_resol_mean 6.67
_diffrn_measured_fraction_theta_full 1.000
_diffrn_measured_fraction_theta_max 1.000
_diffrn_measurement_device_type  'Stoe IPDS 2T'
_diffrn_measurement_method       'rotation method'
_diffrn_radiation_type           'Mo K\a'
_diffrn_radiation_wavelength     0.71073
_diffrn_reflns_av_R_equivalents  0.0779
_diffrn_reflns_limit_h_max       9
_diffrn_reflns_limit_h_min       -9
_diffrn_reflns_limit_k_max       12
_diffrn_reflns_limit_k_min       -15
_diffrn_reflns_limit_l_max       7
_diffrn_reflns_limit_l_min       -7
_diffrn_reflns_number            359
_diffrn_reflns_theta_full        25.242
_diffrn_reflns_theta_max         29.138
_diffrn_reflns_theta_min         3.348
_exptl_absorpt_coefficient_mu    8.806
_exptl_absorpt_correction_T_max  0.5673
_exptl_absorpt_correction_T_min  0.1591
_exptl_absorpt_correction_type   integration
_exptl_absorpt_process_details
;
(Coppens, 1970)
;
_exptl_crystal_colour            colourless
_exptl_crystal_density_diffrn    2.039
_exptl_crystal_description       needle
_exptl_crystal_F_000             272
_exptl_crystal_size_max          0.3
_exptl_crystal_size_mid          0.2
_exptl_crystal_size_min          0.1
_refine_diff_density_max         0.682
_refine_diff_density_min         -0.762
_refine_ls_extinction_coef       0.066(6)
_refine_ls_extinction_expression Fc^*^=kFc[1+0.001xFc^2^\l^3^/sin(2\q)]^-1/4^
_refine_ls_extinction_method
;
SHELXL2016 (Sheldrick, 2015)
;
_refine_ls_goodness_of_fit_ref   1.019
_refine_ls_hydrogen_treatment    refall
_refine_ls_matrix_type           full
_refine_ls_number_parameters     29
_refine_ls_number_reflns         359
_refine_ls_number_restraints     3
_refine_ls_restrained_S_all      1.016
_refine_ls_R_factor_all          0.0278
_refine_ls_R_factor_gt           0.0275
_refine_ls_shift/su_max          0.001
_refine_ls_shift/su_mean         0.000
_refine_ls_structure_factor_coef Fsqd
_refine_ls_weighting_details
'w=1/[\s^2^(Fo^2^)+(0.0631P)^2^+0.7506P] where P=(Fo^2^+2Fc^2^)/3'
_refine_ls_weighting_scheme      calc
_refine_ls_wR_factor_gt          0.0728
_refine_ls_wR_factor_ref         0.0730
_reflns_number_gt                347
_reflns_number_total             359
_reflns_threshold_expression     'I > 2\s(I)'
_cod_data_source_file            qf3002sup1.cif
_cod_data_source_block           LiBr.3H2O
_cod_database_code               2020960
_shelx_space_group_comment
;
The symmetry employed for this shelxl refinement is uniquely defined
by the following loop, which should always be used as a source of
symmetry information in preference to the above space-group names.
They are only intended as comments.
;
_shelx_hkl_file
;
   2   0   0 6257.70   20.99   0
   4   0   0 8266.87   17.56   0
   6   0   0 5256.95   12.69   0
   8   0   0 1298.20    7.09   0
   1   1   0  297.17    6.61   0
   3   1   0  760.51    6.83   0
   5   1   0  554.10    6.17   0
   7   1   0    6.41    4.57   0
   9   1   0    4.79    4.98   0
   0   2   0 2373.71   18.62   0
   2   2   0 9214.25   23.54   0
   4   2   0 3362.16   11.71   0
   6   2   0 1656.27    8.06   0
   8   2   0 1701.51    7.68   0
   1   3   0  167.78    5.31   0
   3   3   0 1290.16    8.35   0
   5   3   0   34.15    4.18   0
   7   3   0  301.67    5.64   0
   9   3   0  101.61    5.17   0
   0   4   0 3862.85   18.17   0
   2   4   0 2512.16   11.75   0
   4   4   0 2638.94   10.40   0
   6   4   0 1856.94    7.74   0
   8   4   0  640.94    6.03   0
   1   5   0 4744.55   17.99   0
   3   5   0 3632.15   12.57   0
   5   5   0 2319.99    9.23   0
   7   5   0 1144.26    7.06   0
   9   5   0  519.06    6.46   0
   0   6   0 3325.86   14.78   0
   2   6   0 2397.84   11.23   0
   4   6   0 1795.52    9.21   0
   6   6   0 1154.21    7.23   0
   8   6   0  476.93    6.09   0
   1   7   0 3319.42   14.09   0
   3   7   0 1703.86    9.25   0
   5   7   0 2222.81    9.37   0
   7   7   0  774.99    6.50   0
   0   8   0  638.81    7.15   0
   2   8   0 1859.02   10.22   0
   4   8   0  974.74    7.09   0
   6   8   0  354.54    5.61   0
   8   8   0  498.65    6.10   0
   1   9   0 2057.88   10.46   0
   3   9   0 3314.64   11.88   0
   5   9   0  952.32    7.30   0
   7   9   0 1175.46    7.50   0
   0  10   0  176.49    4.70   0
   2  10   0   47.58    5.26   0
   4  10   0    8.60    4.54   0
   6  10   0   46.00    5.00   0
   1  11   0 2482.56   11.09   0
   3  11   0 1095.77    8.69   0
   5  11   0 2081.84    9.73   0
   0  12   0  171.12    5.43   0
   2  12   0    6.48    4.59   0
   4  12   0   14.38    6.02   0
   6  12   0   37.36    4.51   0
   1  13   0 1282.31    8.49   0
   3  13   0 1560.90    9.50   0
   5  13   0  611.00    7.72   0
   0  14   0   40.45    4.83   0
   2  14   0  175.05    5.42   0
   1  15   0  506.15    6.94   0
   1   1   1 5193.69   21.84   0
   3   1   1 5514.78   15.57   0
   5   1   1 2421.56    9.51   0
   7   1   1 1872.32    8.16   0
   9   1   1  825.06    6.71   0
   0   2   1  563.43   11.23   0
   2   2   1 3803.59   14.67   0
   4   2   1  840.56    6.81   0
   6   2   1  324.21    5.31   0
   8   2   1  413.83    5.62   0
   1   3   1 9999.99   26.13   0
   3   3   1 3957.88   13.47   0
   5   3   1 5600.30   13.86   0
   7   3   1 1457.73    7.64   0
   9   3   1  907.97    6.70   0
   0   4   1 4922.34   18.38   0
   2   4   1  249.70    5.70   0
   4   4   1 1154.64    7.55   0
   6   4   1  992.39    6.85   0
   8   4   1   81.29    4.61   0
   1   5   1 3075.54   15.22   0
   3   5   1 5752.85   15.44   0
   5   5   1  868.23    6.67   0
   7   5   1 1547.45    7.85   0
   9   5   1  528.19    6.13   0
   0   6   1  330.39    6.44   0
   2   6   1 3558.97   13.92   0
   4   6   1 1391.50    8.47   0
   6   6   1  541.22    5.73   0
   8   6   1  907.43    6.86   0
   1   7   1 1175.00    9.64   0
   3   7   1  158.00    6.24   0
   5   7   1 1158.00    7.69   0
   7   7   1  143.31    4.95   0
   0   8   1 4422.30   15.81   0
   2   8   1 2600.11   12.05   0
   4   8   1 2913.18   11.37   0
   6   8   1 1998.59    9.11   0
   8   8   1  571.80    6.27   0
   1   9   1  248.17    5.59   0
   3   9   1  511.15    6.32   0
   5   9   1   89.44    4.54   0
   7   9   1  188.46    5.07   0
   0  10   1 2366.70   11.49   0
   2  10   1 2741.76   11.63   0
   4  10   1 1970.19    9.56   0
   6  10   1 1287.72    8.10   0
   1  11   1   22.53    4.70   0
   3  11   1   30.18    5.41   0
   5  11   1   14.30    4.72   0
   0  12   1 1211.28    9.05   0
   2  12   1 1327.65    8.77   0
   4  12   1  914.03    7.62   0
   1  13   1   90.59    4.66   0
   3  13   1  184.48    5.62   0
   5  13   1   16.14    6.20   0
   0  14   1 1384.27    7.90   0
   2  14   1  604.35    6.77   0
   0   0   2 9523.38   29.49   0
   2   0   2 3839.17   14.29   0
   4   0   2 5639.87   14.33   0
   6   0   2 3632.58   10.53   0
   8   0   2  834.49    6.91   0
   1   1   2   21.24    3.84   0
   3   1   2  807.14    6.87   0
   5   1   2  206.87    5.48   0
   7   1   2   54.58    4.37   0
   9   1   2    3.16    4.98   0
   0   2   2 2554.65   13.09   0
   2   2   2 8332.80   20.14   0
   4   2   2 3592.77   11.93   0
   6   2   2 1656.47    8.08   0
   8   2   2 1794.18    8.31   0
   1   3   2  639.82    7.80   0
   3   3   2 1710.52    8.94   0
   5   3   2  185.64    4.96   0
   7   3   2  430.95    5.74   0
   9   3   2  147.30    5.38   0
   0   4   2 2607.46   14.43   0
   2   4   2 1452.54    9.04   0
   4   4   2 1617.66    8.63   0
   6   4   2 1254.15    8.04   0
   8   4   2  398.76    5.71   0
   1   5   2 2938.58   14.22   0
   3   5   2 2134.66   10.25   0
   5   5   2 1449.73    7.84   0
   7   5   2  716.57    6.29   0
   9   5   2  368.38    5.98   0
   0   6   2 2749.80   11.46   0
   2   6   2 2609.73   12.27   0
   4   6   2 2020.25    9.38   0
   6   6   2 1305.19    7.70   0
   8   6   2  523.40    5.86   0
   1   7   2 2828.94   11.12   0
   3   7   2 1912.41    9.82   0
   5   7   2 2258.70    9.88   0
   7   7   2  822.04    7.02   0
   0   8   2  293.32    5.19   0
   2   8   2 1045.20    8.49   0
   4   8   2  516.01    6.43   0
   6   8   2  191.24    5.56   0
   8   8   2  278.07    5.62   0
   1   9   2 1375.52    7.80   0
   3   9   2 2445.92   10.89   0
   5   9   2  585.46    6.65   0
   7   9   2  821.03    7.01   0
   0  10   2  276.47    5.20   0
   2  10   2    6.97    4.13   0
   4  10   2   32.85    4.72   0
   6  10   2   72.12    4.70   0
   1  11   2 2562.17    9.85   0
   3  11   2 1120.58    7.68   0
   5  11   2 1965.16   10.02   0
   0  12   2  234.60    5.00   0
   2  12   2    0.87    4.20   0
   4  12   2   39.86    4.46   0
   1  13   2 1067.22    7.07   0
   3  13   2 1347.76    7.67   0
   0  14   2   21.68    4.11   0
   2  14   2  109.29    4.32   0
   1   1   3 3608.06   13.80   0
   3   1   3 3830.00   12.95   0
   5   1   3 1860.47    8.77   0
   7   1   3 1380.81    7.69   0
   9   1   3  574.92    6.84   0
   0   2   3  271.41    6.32   0
   2   2   3 1687.53    9.34   0
   4   2   3  478.17    6.17   0
   6   2   3  207.27    5.39   0
   8   2   3  307.93    5.49   0
   1   3   3 5817.20   17.28   0
   3   3   3 2538.23   10.82   0
   5   3   3 3826.94   11.62   0
   7   3   3 1140.15    7.43   0
   0   4   3 2528.51   11.43   0
   2   4   3  231.46    5.35   0
   4   4   3  785.23    6.89   0
   6   4   3  705.49    6.51   0
   8   4   3   52.65    4.99   0
   1   5   3 1755.64   10.88   0
   3   5   3 3478.41   12.44   0
   5   5   3  600.42    6.22   0
   7   5   3 1084.34    7.60   0
   0   6   3  450.89    5.74   0
   2   6   3 2320.75   12.49   0
   4   6   3  964.22    7.36   0
   6   6   3  388.38    5.59   0
   8   6   3  656.54    6.37   0
   1   7   3  799.67    6.28   0
   3   7   3  140.04    5.20   0
   5   7   3  725.88    6.91   0
   7   7   3   88.89    5.11   0
   0   8   3 3572.66   10.48   0
   2   8   3 1832.89   10.74   0
   4   8   3 1963.97    9.58   0
   6   8   3 1312.51    8.38   0
   1   9   3  185.92    4.86   0
   3   9   3  339.73    6.25   0
   5   9   3   64.04    4.90   0
   7   9   3  120.86    5.25   0
   0  10   3 1798.10    7.94   0
   2  10   3 1714.22    8.00   0
   4  10   3 1306.91    8.41   0
   6  10   3  854.11    7.49   0
   1  11   3   16.77    4.06   0
   3  11   3   29.64    4.51   0
   5  11   3   14.49    5.20   0
   0  12   3  888.25    6.39   0
   2  12   3  934.12    6.54   0
   4  12   3  634.58    7.22   0
   1  13   3   74.35    4.42   0
   3  13   3  162.67    4.89   0
   0  14   3  987.04    7.38   0
   0   0   4 7890.37   20.07   0
   2   0   4 2866.84   11.01   0
   4   0   4 3792.11   11.95   0
   6   0   4 2643.04   10.02   0
   8   0   4  620.83    7.01   0
   1   1   4  146.98    5.39   0
   3   1   4   72.91    4.89   0
   5   1   4  270.33    5.73   0
   7   1   4    0.51    5.05   0
   0   2   4 1229.42    9.08   0
   2   2   4 3392.57   12.00   0
   4   2   4 1614.59    8.48   0
   6   2   4  872.80    7.16   0
   8   2   4  946.92    7.90   0
   1   3   4  197.77    5.77   0
   3   3   4  572.21    6.24   0
   5   3   4   47.15    4.76   0
   7   3   4  155.61    5.40   0
   0   4   4 2675.43   12.04   0
   2   4   4 1438.46    8.85   0
   4   4   4 1440.73    8.57   0
   6   4   4  968.85    7.70   0
   8   4   4  294.27    6.29   0
   1   5   4 2006.88    9.84   0
   3   5   4 1470.50    8.64   0
   5   5   4 1112.18    7.57   0
   7   5   4  545.54    6.22   0
   0   6   4  994.20   10.19   0
   2   6   4 1083.73    9.10   0
   4   6   4  799.26    7.16   0
   6   6   4  581.61    6.43   0
   1   7   4 1499.95    9.21   0
   3   7   4  827.90    7.63   0
   5   7   4 1056.06    7.87   0
   7   7   4  360.85    6.17   0
   0   8   4  240.35    4.59   0
   2   8   4  809.72    6.94   0
   4   8   4  413.87    6.71   0
   6   8   4  166.30    5.48   0
   1   9   4 1100.21    6.69   0
   3   9   4 1589.85    9.24   0
   5   9   4  433.88    6.64   0
   0  10   4   86.18    4.18   0
   2  10   4   27.94    4.77   0
   4  10   4    4.95    5.41   0
   1  11   4 1427.78    7.29   0
   3  11   4  612.28    5.95   0
   0  12   4  105.96    4.68   0
   2  12   4    1.78    4.19   0
   1   1   5 1916.02    9.97   0
   3   1   5 1915.47    9.24   0
   5   1   5  906.48    7.26   0
   7   1   5  714.36    7.50   0
   0   2   5  137.46    5.13   0
   2   2   5  609.00    6.87   0
   4   2   5  229.52    6.16   0
   6   2   5   99.17    5.47   0
   1   3   5 2741.79   11.43   0
   3   3   5 1313.12    7.98   0
   5   3   5 1864.63    9.28   0
   7   3   5  572.41    6.76   0
   0   4   5 1186.80    8.63   0
   2   4   5  158.84    5.23   0
   4   4   5  384.95    6.02   0
   6   4   5  350.91    6.20   0
   1   5   5  944.30    7.74   0
   3   5   5 1587.02    9.19   0
   5   5   5  297.08    5.85   0
   0   6   5  292.51    5.70   0
   2   6   5 1173.06    8.31   0
   4   6   5  472.56    6.29   0
   6   6   5  205.65    6.20   0
   1   7   5  402.67    6.27   0
   3   7   5   75.96    5.56   0
   5   7   5  278.59    6.89   0
   0   8   5 1815.78    8.31   0
   2   8   5  786.03    7.35   0
   4   8   5  938.91    7.69   0
   1   9   5  104.22    4.73   0
   3   9   5  181.73    5.00   0
   0  10   5  971.17    6.76   0
   2  10   5 1079.65    7.03   0
   1  11   5    3.75    4.36   0
   0   0   6 2861.71   11.64   0
   2   0   6 1028.82    7.86   0
   4   0   6 1188.71    7.66   0
   6   0   6  921.90    8.33   0
   1   1   6    9.63    4.88   0
   3   1   6   79.54    5.11   0
   5   1   6   48.04    5.62   0
   0   2   6  848.15    7.52   0
   2   2   6 1845.70    9.50   0
   4   2   6  918.81    7.42   0
   6   2   6  392.30    7.06   0
   1   3   6  179.39    5.84   0
   3   3   6  351.61    5.97   0
   5   3   6   51.10    5.21   0
   0   4   6  862.36    7.68   0
   2   4   6  458.25    5.98   0
   4   4   6  389.68    6.52   0
   1   5   6  530.43    6.98   0
   3   5   6  480.06    7.16   0
   5   5   6  356.98    6.13   0
   0   6   6  600.93    7.95   0
   2   6   6  581.48    7.02   0
   4   6   6  463.26    6.63   0
   1   7   6  755.75    7.36   0
   3   7   6  469.76    6.22   0
   0   8   6   53.04    4.59   0
   2   8   6  263.15    5.78   0
   1   9   6  397.80    5.57   0
   1   1   7  684.03    7.08   0
   3   1   7  668.22    7.53   0
   0   2   7   44.54    5.48   0
   2   2   7  208.58    5.52   0
   4   2   7   64.44    5.11   0
   1   3   7  886.64    7.95   0
   3   3   7  444.28    6.74   0
   0   4   7  328.13    6.47   0
   2   4   7   65.24    5.71   0
   1   5   7  332.50    6.32   0
   0   6   7   97.15    5.21   0
;
_shelx_hkl_checksum              20167
_shelx_res_file
;
TITL
    libr_3h2o_1.res
    created by SHELXL-2016/6 at 14:52:43 on 15-Jan-2018
CELL  0.71073  7.27850 11.08810  5.68680 90.00000 90.00000 90.00000
ZERR 4  0.00170  0.00260  0.00200  0.00000  0.00000  0.00000
LATT 7
SYMM -X, -Y, Z+ 0.50000
SYMM X, -Y, -Z
SYMM -X, Y, -Z+ 0.50000
SFAC Li Br O  H
UNIT 4  4  12  24
OMIT -3 70
L.S. 12
ACTA
BOND
FMAP 2
PLAN 2
HTAB O1 O2
HTAB O1 Br1_$2
HTAB O2 Br1_$1
HTAB O1 O2
HTAB O1 Br1_$2
EQIV $2 x+1/2, y-1/2, z
HTAB O2 Br1_$1
EQIV $1 -x+1/2, -y+3/2, -z+2
HTAB
HTAB O2 Br1_$1
HTAB O1 Br1_$2
HTAB O1 O2
DFIX 0.82 0.02 O2 H2  O1 H1A  O1 H1B
WGHT    0.063100    0.750618
EXTI    0.066377
FVAR       0.88480
MOLE 1
BR1   2    0.000000    0.727680    0.750000    10.25000    0.01684    0.01477 =
         0.02100    0.00000    0.00000    0.00000
O1    3    0.192340    0.453481    0.750000    10.50000    0.01198    0.01821 =
         0.01767    0.00000    0.00000    0.00099
O2    3    0.500000    0.607179    0.750000    10.25000    0.01686    0.02414 =
         0.02178    0.00000    0.00000    0.00000
LI1   1    0.000000    0.500000    1.000000    10.25000    0.01461    0.03371 =
         0.01690   -0.00549    0.00000    0.00000
H2    4    0.500000    0.648142    0.868163    10.50000    0.03921
H1B   4    0.236205    0.385448    0.750000    10.50000    0.07388
H1A   4    0.288581    0.489156    0.750000    10.50000    0.01931
HKLF 4
REM
REM R1 =  0.0275 for     347 Fo > 4sig(Fo)  and  0.0278 for all     359 data
REM     29 parameters refined using      3 restraints
END
WGHT      0.0605      0.0000
REM Instructions for potential hydrogen bonds
HTAB O2 Br1_$1
HTAB O1 Br1_$2
HTAB O1 O2
REM Highest difference peak  0.682,  deepest hole -0.762,  1-sigma level  0.219
Q1    1  -0.0830  0.7883  0.7500  10.50000  0.05    0.68
Q2    1  -0.0693  0.7681  0.9010  11.00000  0.05    0.56
;
_shelx_res_checksum              31933
loop_
_space_group_symop_operation_xyz
'x, y, z'
'-x, -y, z+1/2'
'x, -y, -z'
'-x, y, -z+1/2'
'x+1/2, y+1/2, z'
'-x+1/2, -y+1/2, z+1/2'
'x+1/2, -y+1/2, -z'
'-x+1/2, y+1/2, -z+1/2'
'-x, -y, -z'
'x, y, -z-1/2'
'-x, y, z'
'x, -y, z-1/2'
'-x+1/2, -y+1/2, -z'
'x+1/2, y+1/2, -z-1/2'
'-x+1/2, y+1/2, z'
'x+1/2, -y+1/2, z-1/2'
loop_
_atom_site_type_symbol
_atom_site_label
_atom_site_fract_x
_atom_site_fract_y
_atom_site_fract_z
_atom_site_U_iso_or_equiv
_atom_site_adp_type
_atom_site_calc_flag
_atom_site_occupancy
Br Br1 0.000000 0.72768(3) 0.750000 0.0175(3) Uani d 1
O O1 0.1923(3) 0.4535(2) 0.750000 0.0160(5) Uani d 1
O O2 0.500000 0.6072(3) 0.750000 0.0209(7) Uani d 1
Li Li1 0.000000 0.500000 1.000000 0.0217(16) Uani d 1
H H2 0.500000 0.648(5) 0.868(7) 0.039(15) Uiso d 1
H H1B 0.236(11) 0.385(3) 0.750000 0.07(3) Uiso d 1
H H1A 0.289(4) 0.489(4) 0.750000 0.019(12) Uiso d 1
loop_
_atom_site_aniso_label
_atom_site_aniso_U_11
_atom_site_aniso_U_22
_atom_site_aniso_U_33
_atom_site_aniso_U_12
_atom_site_aniso_U_13
_atom_site_aniso_U_23
Br1 0.0168(3) 0.0148(4) 0.0210(4) 0.000 0.000 0.000
O1 0.0120(10) 0.0182(10) 0.0177(10) 0.0010(9) 0.000 0.000
O2 0.0169(16) 0.0241(16) 0.0218(16) 0.000 0.000 0.000
Li1 0.015(3) 0.034(4) 0.017(4) 0.000 0.000 -0.005(3)
loop_
_atom_type_symbol
_atom_type_description
_atom_type_scat_dispersion_real
_atom_type_scat_dispersion_imag
_atom_type_scat_source
Li Li -0.0003 0.0001 'International Tables Vol C Tables 4.2.6.8 and 6.1.1.4'
Br Br -0.2901 2.4595 'International Tables Vol C Tables 4.2.6.8 and 6.1.1.4'
O O 0.0106 0.0060 'International Tables Vol C Tables 4.2.6.8 and 6.1.1.4'
H H 0.0000 0.0000 'International Tables Vol C Tables 4.2.6.8 and 6.1.1.4'
loop_
_geom_angle_atom_site_label_1
_geom_angle_atom_site_label_2
_geom_angle_atom_site_label_3
_geom_angle_site_symmetry_1
_geom_angle_site_symmetry_3
_geom_angle
Li1 Br1 Li1 2_564 . 58.77(2)
Li1 O1 Li1 2_564 . 87.24(10)
O1 Li1 O1 11 3_567 180.0
O1 Li1 O1 11 9_567 94.42(11)
O1 Li1 O1 3_567 9_567 85.58(11)
O1 Li1 O1 11 . 85.58(11)
O1 Li1 O1 3_567 . 94.42(11)
O1 Li1 O1 9_567 . 180.0
O1 Li1 Li1 11 2_565 133.62(5)
O1 Li1 Li1 3_567 2_565 46.38(5)
O1 Li1 Li1 9_567 2_565 46.38(5)
O1 Li1 Li1 . 2_565 133.62(5)
O1 Li1 Li1 11 2_564 46.38(5)
O1 Li1 Li1 3_567 2_564 133.62(5)
O1 Li1 Li1 9_567 2_564 133.62(5)
O1 Li1 Li1 . 2_564 46.38(5)
Li1 Li1 Li1 2_565 2_564 180.0
O1 Li1 Br1 11 9_567 96.92(6)
O1 Li1 Br1 3_567 9_567 83.08(6)
O1 Li1 Br1 9_567 9_567 83.08(6)
O1 Li1 Br1 . 9_567 96.92(6)
Li1 Li1 Br1 2_565 9_567 60.613(11)
Li1 Li1 Br1 2_564 9_567 119.387(11)
O1 Li1 Br1 11 . 83.08(6)
O1 Li1 Br1 3_567 . 96.92(6)
O1 Li1 Br1 9_567 . 96.92(6)
O1 Li1 Br1 . . 83.08(6)
Li1 Li1 Br1 2_565 . 119.386(11)
Li1 Li1 Br1 2_564 . 60.614(11)
Br1 Li1 Br1 9_567 . 180.0
loop_
_geom_bond_atom_site_label_1
_geom_bond_atom_site_label_2
_geom_bond_site_symmetry_2
_geom_bond_distance
Br1 Li1 2_564 2.8973(7)
Br1 Li1 . 2.8973(7)
O1 Li1 2_564 2.0609(19)
O1 Li1 . 2.0609(19)
Li1 Li1 2_565 2.8434(10)
Li1 Li1 2_564 2.8434(10)
loop_
_geom_hbond_atom_site_label_D
_geom_hbond_atom_site_label_H
_geom_hbond_atom_site_label_A
_geom_hbond_site_symmetry_A
_geom_hbond_distance_DH
_geom_hbond_distance_HA
_geom_hbond_distance_DA
_geom_hbond_angle_DHA
O1 H1A O2 . 0.804(19) 2.02(2) 2.814(3) 169(5)
O1 H1B Br1 5_545 0.82(2) 2.60(4) 3.359(3) 155(8)
O2 H2 Br1 13_567 0.81(2) 2.57(2) 3.382(2) 178(6)
