#------------------------------------------------------------------------------
#$Date: 2018-01-24 08:30:12 +0200 (Wed, 24 Jan 2018) $
#$Revision: 205533 $
#$URL: file:///home/coder/svn-repositories/cod/cif/2/02/09/2020961.cif $
#------------------------------------------------------------------------------
#
# This file is available in the Crystallography Open Database (COD),
# http://www.crystallography.net/. The original data for this entry
# were provided by IUCr Journals, http://journals.iucr.org/.
#
# The file may be used within the scientific community so long as
# proper attribution is given to the journal article from which the
# data were obtained.
#
data_2020961
loop_
_publ_author_name
'Sohr, Julia'
'Schmidt, Horst'
'Voigt, Wolfgang'
_publ_section_title
;
 Higher hydrates of lithium chloride, lithium bromide and lithium iodide
;
_journal_coeditor_code           QF3002
_journal_issue                   2
_journal_name_full               'Acta Crystallographica Section C'
_journal_page_first
;
;
_journal_paper_doi               10.1107/S2053229618001183
_journal_volume                  74
_journal_year                    2018
_chemical_formula_iupac          'Li I, 3H2 O'
_chemical_formula_moiety         'I, 3(H2 O), Li'
_chemical_formula_sum            'H6 I Li O3'
_chemical_formula_weight         187.89
_chemical_name_systematic
;
Lithium iodide trihydrate
;
_space_group_crystal_system      hexagonal
_space_group_IT_number           194
_space_group_name_Hall           '-P 6c 2c'
_space_group_name_H-M_alt        'P 63/m m c'
_symmetry_space_group_name_Hall  '-P 6c 2c'
_symmetry_space_group_name_H-M   'P 63/m m c'
_atom_sites_solution_hydrogens   difmap
_audit_creation_method           SHELXL-2016/6
_cell_angle_alpha                90
_cell_angle_beta                 90
_cell_angle_gamma                120
_cell_formula_units_Z            2
_cell_length_a                   7.4610(18)
_cell_length_b                   7.4610(18)
_cell_length_c                   5.459(3)
_cell_measurement_reflns_used    369
_cell_measurement_temperature    250(2)
_cell_measurement_theta_max      29.36
_cell_measurement_theta_min      4.83
_cell_volume                     263.17(17)
_computing_cell_refinement
;
X-AREA (Stoe & Cie, 2015)
;
_computing_data_collection
;
X-AREA (Stoe & Cie, 2015)
;
_computing_data_reduction
;
X-RED (Stoe & Cie, 2015)
;
_computing_molecular_graphics
;
DIAMOND (Brandenburg, 2017)
;
_computing_publication_material
;
publCIF (Westrip, 2010)
;
_computing_structure_refinement
;
SHELXL2016 (Sheldrick, 2015)
;
_computing_structure_solution
;
SHELXS97 (Sheldrick, 2008)
;
_diffrn_ambient_temperature      250
_diffrn_detector_area_resol_mean 6.67
_diffrn_measured_fraction_theta_full 0.991
_diffrn_measured_fraction_theta_max 0.993
_diffrn_measurement_device       '2-circle goniometer'
_diffrn_measurement_device_type  'Stoe IPDS 2T'
_diffrn_measurement_method       'rotation method'
_diffrn_radiation_monochromator  'plane graphite'
_diffrn_radiation_type           'Mo K\a'
_diffrn_radiation_wavelength     0.71073
_diffrn_reflns_av_R_equivalents  0.0628
_diffrn_reflns_limit_h_max       10
_diffrn_reflns_limit_h_min       -10
_diffrn_reflns_limit_k_max       10
_diffrn_reflns_limit_k_min       -10
_diffrn_reflns_limit_l_max       7
_diffrn_reflns_limit_l_min       -7
_diffrn_reflns_number            2706
_diffrn_reflns_theta_full        25.242
_diffrn_reflns_theta_max         27.485
_diffrn_reflns_theta_min         3.153
_exptl_absorpt_coefficient_mu    5.96
_exptl_absorpt_correction_T_max  0.4761
_exptl_absorpt_correction_T_min  0.3829
_exptl_absorpt_correction_type   integration
_exptl_absorpt_process_details
;
(Coppens, 1970)
;
_exptl_crystal_colour            colorless
_exptl_crystal_density_diffrn    2.371
_exptl_crystal_description       plate
_exptl_crystal_F_000             172
_exptl_crystal_size_max          0.4
_exptl_crystal_size_mid          0.15
_exptl_crystal_size_min          0.1
_refine_diff_density_max         0.253
_refine_diff_density_min         -0.678
_refine_ls_extinction_method     none
_refine_ls_goodness_of_fit_ref   1.066
_refine_ls_hydrogen_treatment    refall
_refine_ls_matrix_type           full
_refine_ls_number_parameters     12
_refine_ls_number_reflns         137
_refine_ls_number_restraints     0
_refine_ls_restrained_S_all      1.066
_refine_ls_R_factor_all          0.0162
_refine_ls_R_factor_gt           0.0150
_refine_ls_shift/su_max          0.000
_refine_ls_shift/su_mean         0.000
_refine_ls_structure_factor_coef Fsqd
_refine_ls_weighting_details
'w=1/[\s^2^(Fo^2^)+(0.0236P)^2^+0.2177P] where P=(Fo^2^+2Fc^2^)/3'
_refine_ls_weighting_scheme      calc
_refine_ls_wR_factor_gt          0.0378
_refine_ls_wR_factor_ref         0.0380
_reflns_number_gt                131
_reflns_number_total             137
_reflns_threshold_expression     'I > 2\s(I)'
_cod_data_source_file            qf3002sup1.cif
_cod_data_source_block           LiI.3H2O
_cod_original_cell_volume        263.17(18)
_cod_database_code               2020961
_shelx_space_group_comment
;
The symmetry employed for this shelxl refinement is uniquely defined
by the following loop, which should always be used as a source of
symmetry information in preference to the above space-group names.
They are only intended as comments.
;
_shelx_hkl_file
;
   0   1   0  615.99    8.65   0
  -1   2   0 8257.24   19.33   0
   0   2   0 3315.54   11.86   0
  -1   3   0 2299.46    9.05   0
   0   3   0 4459.81   12.23   0
  -2   4   0 6049.92   13.38   0
  -1   4   0  866.55    5.38   0
   0   4   0 1015.98    6.03   0
  -2   5   0  180.56    3.44   0
  -1   5   0 3105.06    8.49   0
   0   5   0  701.40    4.55   0
  -3   6   0 3064.63    8.72   0
  -2   6   0  266.07    3.67   0
  -1   6   0  491.36    3.88   0
   0   6   0 1068.33    5.10   0
  -3   7   0  282.06    3.71   0
  -2   7   0  994.48    5.28   0
  -1   7   0  216.13    3.27   0
   0   7   0  129.57    3.12   0
  -4   8   0  579.39    4.20   0
  -3   8   0  202.86    3.38   0
  -2   8   0  152.26    3.18   0
  -1   8   0  509.37    4.25   0
   0   8   0   25.20    2.77   0
  -4   9   0   97.80    3.39   0
  -3   9   0  329.73    4.14   0
  -2   9   0   42.15    2.76   0
  -1   9   0   34.49    3.03   0
  -5  10   0  225.61    3.51   0
  -4  10   0   28.46    2.86   0
   0   1   1 6101.57   19.75   0
   0   2   1 9999.99   19.53   0
  -1   3   1 2604.11    9.73   0
   0   3   1  419.29    4.33   0
  -1   4   1 3655.58   10.21   0
   0   4   1 2452.05    8.28   0
  -2   5   1 2150.90    7.43   0
  -1   5   1   31.46    2.79   0
   0   5   1  968.96    5.47   0
  -2   6   1 1157.37    5.56   0
  -1   6   1 1390.79    6.00   0
   0   6   1   17.34    2.75   0
  -3   7   1  740.19    4.73   0
  -2   7   1    2.74    2.59   0
  -1   7   1  656.58    4.58   0
   0   7   1  395.48    3.88   0
  -3   8   1  581.17    4.44   0
  -2   8   1  257.96    3.56   0
  -1   8   1   -0.03    2.73   0
   0   8   1  216.25    3.48   0
  -4   9   1  204.43    3.55   0
  -3   9   1    1.24    2.91   0
  -2   9   1  197.90    3.59   0
  -1   9   1  146.62    3.39   0
  -4  10   1  112.24    3.51   0
   0   1   2  622.55    6.17   0
  -1   2   2 3774.03   12.79   0
   0   2   2 2258.19    9.68   0
  -1   3   2 1864.22    8.43   0
   0   3   2 2425.44    9.09   0
  -2   4   2 3240.90    9.79   0
  -1   4   2  801.29    5.41   0
   0   4   2  867.63    5.39   0
  -2   5   2  231.41    3.66   0
  -1   5   2 1801.84    7.12   0
   0   5   2  592.57    4.34   0
  -3   6   2 1767.22    6.70   0
  -2   6   2  260.75    3.58   0
  -1   6   2  426.11    4.01   0
   0   6   2  612.17    4.53   0
  -3   7   2  247.39    3.53   0
  -2   7   2  582.60    4.43   0
  -1   7   2  191.33    3.48   0
   0   7   2  111.37    3.11   0
  -4   8   2  329.90    3.85   0
  -3   8   2  173.35    3.53   0
  -2   8   2  129.59    3.24   0
  -1   8   2  326.73    3.85   0
   0   8   2   28.28    2.91   0
  -4   9   2   82.28    3.10   0
  -3   9   2  201.57    3.62   0
  -2   9   2   36.84    3.07   0
  -1   9   2    7.82    3.57   0
   0   1   3 2126.66    9.34   0
   0   2   3 3431.34   10.76   0
  -1   3   3 1179.97    6.78   0
   0   3   3  139.24    3.56   0
  -1   4   3 1627.51    7.28   0
   0   4   3 1071.42    6.17   0
  -2   5   3  931.34    5.41   0
  -1   5   3   15.77    2.85   0
   0   5   3  417.66    4.15   0
  -2   6   3  526.54    4.47   0
  -1   6   3  654.39    4.69   0
   0   6   3   10.70    2.72   0
  -3   7   3  337.63    3.85   0
  -2   7   3    3.05    2.77   0
  -1   7   3  295.77    3.92   0
   0   7   3  176.20    3.63   0
  -3   8   3  285.13    3.96   0
  -2   8   3  117.02    3.41   0
  -1   8   3   -1.13    2.91   0
   0   8   3  103.64    3.46   0
  -4   9   3   96.54    3.23   0
  -3   9   3    4.09    2.96   0
   0   0   4 3439.09   11.83   0
   0   1   4  118.60    3.52   0
  -1   2   4 1330.53    6.48   0
   0   2   4  408.67    4.33   0
  -1   3   4  363.46    4.19   0
   0   3   4  901.05    5.67   0
  -2   4   4 1136.83    6.04   0
  -1   4   4  170.12    3.55   0
   0   4   4  186.84    3.43   0
  -2   5   4   36.72    2.91   0
  -1   5   4  659.27    5.04   0
   0   5   4  138.71    3.62   0
  -3   6   4  647.69    4.86   0
  -2   6   4   52.32    3.11   0
  -1   6   4  102.52    3.32   0
   0   6   4  241.06    3.85   0
  -3   7   4   60.91    3.17   0
  -2   7   4  213.79    3.86   0
  -1   7   4   51.06    3.25   0
   0   7   4   27.46    3.11   0
  -4   8   4  117.39    3.91   0
  -3   8   4   51.66    3.20   0
  -2   8   4   37.23    3.15   0
   0   1   5  411.98    4.61   0
   0   2   5  658.04    5.11   0
  -1   3   5  240.44    3.52   0
   0   3   5   25.40    2.96   0
  -1   4   5  335.26    4.06   0
   0   4   5  229.58    3.81   0
  -2   5   5  211.58    3.90   0
  -1   5   5    1.90    2.98   0
   0   5   5   85.44    3.53   0
  -2   6   5  112.48    3.35   0
  -1   6   5  149.16    3.54   0
   0   6   5    5.03    3.05   0
  -3   7   5   72.78    3.35   0
  -2   7   5    1.20    2.98   0
  -1   7   5   70.15    3.31   0
   0   0   6  410.11    6.48   0
   0   1   6   33.67    2.89   0
  -1   2   6  153.16    3.65   0
   0   2   6   94.25    3.33   0
  -1   3   6   78.34    3.26   0
   0   3   6   87.51    3.17   0
  -2   4   6  138.68    3.44   0
  -1   4   6   37.18    3.21   0
   0   4   6   44.24    3.32   0
  -2   5   6    9.34    3.02   0
  -1   5   6   82.27    3.40   0
   0   5   6   37.24    3.50   0
  -3   6   6   95.63    3.42   0
  -2   6   6   13.73    3.07   0
   0   1   7   41.00    3.33   0
   0   2   7   79.35    3.62   0
  -1   3   7   22.34    3.20   0
   0   3   7    3.73    3.11   0
;
_shelx_hkl_checksum              60999
_shelx_res_file
;
TITL
    lii2_v1.res
    created by SHELXL-2016/6 at 08:36:16 on 09-Oct-2017
CELL  0.71073  7.46100  7.46100  5.45900 90.00000 90.00000 120.00000
ZERR 2  0.00180  0.00180  0.00250  0.00000  0.00000  0.00000
LATT 1
SYMM -X, -Y, Z+ 0.50000
SYMM -Y, -X, -Z+ 0.50000
SYMM Y, X, -Z
SYMM X-Y, -Y, -Z
SYMM -X+Y, Y, -Z+ 0.50000
SYMM X, X-Y, -Z+ 0.50000
SYMM -X, -X+Y, -Z
SYMM -Y, X-Y, Z
SYMM Y, -X+Y, Z+ 0.50000
SYMM X-Y, X, Z+ 0.50000
SYMM -X+Y, -X, Z
SFAC Li I  O  H
UNIT 2  2  6  12
OMIT -3 55
L.S. 8
ACTA
BOND
FMAP 2
PLAN 4
WGHT    0.023600    0.217700
FVAR       1.10472
MOLE 1
I1    2    0.666667    0.333333    0.250000    10.08333    0.03574    0.03574 =
         0.05550    0.00000    0.00000    0.01787
LI1   1    0.000000    0.000000    0.000000    10.08333    0.04109    0.04109 =
         0.02750    0.00000    0.00000    0.02054
O1    3    0.123835    0.247670    0.250000    10.25000    0.06492    0.02839 =
         0.03740    0.00000    0.00000    0.01420
H1    4    0.087709    0.331821    0.250000    10.50000    0.08702
HKLF 4
REM
REM R1 =  0.0150 for     131 Fo > 4sig(Fo)  and  0.0162 for all     137 data
REM     12 parameters refined using      0 restraints
END
WGHT      0.0309      0.0472
REM Highest difference peak  0.253,  deepest hole -0.678,  1-sigma level  0.067
Q1    1  -0.0699  0.3322  0.2500  10.50000  0.05    0.25
Q2    1   0.7615  0.5229  0.1212  10.50000  0.05    0.21
Q3    1   0.5541  0.1082  0.2500  10.25000  0.05    0.16
Q4    1  -0.0268  0.4071  0.2500  10.50000  0.05    0.15
;
_shelx_res_checksum              98835
loop_
_space_group_symop_operation_xyz
'x, y, z'
'-x, -y, z+1/2'
'-y, -x, -z+1/2'
'y, x, -z'
'x-y, -y, -z'
'-x+y, y, -z+1/2'
'x, x-y, -z+1/2'
'-x, -x+y, -z'
'-y, x-y, z'
'y, -x+y, z+1/2'
'x-y, x, z+1/2'
'-x+y, -x, z'
'-x, -y, -z'
'x, y, -z-1/2'
'y, x, z-1/2'
'-y, -x, z'
'-x+y, y, z'
'x-y, -y, z-1/2'
'-x, -x+y, z-1/2'
'x, x-y, z'
'y, -x+y, -z'
'-y, x-y, -z-1/2'
'-x+y, -x, -z-1/2'
'x-y, x, -z'
loop_
_atom_site_type_symbol
_atom_site_label
_atom_site_fract_x
_atom_site_fract_y
_atom_site_fract_z
_atom_site_U_iso_or_equiv
_atom_site_adp_type
_atom_site_calc_flag
_atom_site_occupancy
I I1 0.666667 0.333333 0.250000 0.0423(2) Uani d 1
Li Li1 0.000000 0.000000 0.000000 0.037(2) Uani d 1
O O1 0.1238(3) 0.2477(5) 0.250000 0.0476(8) Uani d 1
H H1 0.088(9) 0.332(7) 0.250000 0.09(2) Uiso d 1
loop_
_atom_site_aniso_label
_atom_site_aniso_U_11
_atom_site_aniso_U_22
_atom_site_aniso_U_33
_atom_site_aniso_U_12
_atom_site_aniso_U_13
_atom_site_aniso_U_23
I1 0.0357(2) 0.0357(2) 0.0555(3) 0.01787(11) 0.000 0.000
Li1 0.041(3) 0.041(3) 0.027(5) 0.0205(17) 0.000 0.000
O1 0.0649(18) 0.0284(15) 0.0374(14) 0.0142(8) 0.000 0.000
loop_
_atom_type_symbol
_atom_type_description
_atom_type_scat_dispersion_real
_atom_type_scat_dispersion_imag
_atom_type_scat_source
Li Li -0.0003 0.0001 'International Tables Vol C Tables 4.2.6.8 and 6.1.1.4'
I I -0.4742 1.8119 'International Tables Vol C Tables 4.2.6.8 and 6.1.1.4'
O O 0.0106 0.0060 'International Tables Vol C Tables 4.2.6.8 and 6.1.1.4'
H H 0.0000 0.0000 'International Tables Vol C Tables 4.2.6.8 and 6.1.1.4'
loop_
_geom_angle_atom_site_label_1
_geom_angle_atom_site_label_2
_geom_angle_atom_site_label_3
_geom_angle_site_symmetry_1
_geom_angle_site_symmetry_3
_geom_angle
O1 Li1 O1 . 13 180.0
O1 Li1 O1 . 19 97.56(9)
O1 Li1 O1 13 19 82.44(9)
O1 Li1 O1 . 7 82.44(9)
O1 Li1 O1 13 7 97.56(9)
O1 Li1 O1 19 7 180.00(16)
O1 Li1 O1 . 15 97.56(9)
O1 Li1 O1 13 15 82.44(9)
O1 Li1 O1 19 15 82.44(9)
O1 Li1 O1 7 15 97.56(9)
O1 Li1 O1 . 3 82.44(9)
O1 Li1 O1 13 3 97.56(9)
O1 Li1 O1 19 3 97.56(9)
O1 Li1 O1 7 3 82.44(9)
O1 Li1 O1 15 3 180.0(3)
O1 Li1 Li1 . 2 49.54(6)
O1 Li1 Li1 13 2 130.46(6)
O1 Li1 Li1 19 2 130.46(6)
O1 Li1 Li1 7 2 49.54(6)
O1 Li1 Li1 15 2 130.46(6)
O1 Li1 Li1 3 2 49.54(6)
O1 Li1 Li1 . 2_554 130.46(6)
O1 Li1 Li1 13 2_554 49.54(6)
O1 Li1 Li1 19 2_554 49.54(6)
O1 Li1 Li1 7 2_554 130.46(6)
O1 Li1 Li1 15 2_554 49.54(6)
O1 Li1 Li1 3 2_554 130.46(6)
Li1 Li1 Li1 2 2_554 180.0
Li1 O1 Li1 . 2 80.92(12)
loop_
_geom_bond_atom_site_label_1
_geom_bond_atom_site_label_2
_geom_bond_site_symmetry_2
_geom_bond_distance
Li1 O1 . 2.103(3)
Li1 O1 13 2.103(3)
Li1 O1 19 2.103(3)
Li1 O1 7 2.103(3)
Li1 O1 15 2.103(3)
Li1 O1 3 2.103(3)
Li1 Li1 2 2.7295(13)
Li1 Li1 2_554 2.7295(13)
