#------------------------------------------------------------------------------
#$Date: 2015-09-21 03:45:58 +0300 (Mon, 21 Sep 2015) $
#$Revision: 158199 $
#$URL: svn://www.crystallography.net/cod/cif/2/02/01/2020122.cif $
#------------------------------------------------------------------------------
#
# This file is available in the Crystallography Open Database (COD),
# http://www.crystallography.net/. The original data for this entry
# were provided by IUCr Journals, http://journals.iucr.org/.
#
# The file may be used within the scientific community so long as
# proper attribution is given to the journal article from which the
# data were obtained.
#
data_2020122
loop_
_publ_author_name
'Prakash, Jai'
'Sch\"afer, Marion C.'
'Bobev, Svilen'
_publ_section_title
;
 Synthesis and structure determination of seven ternary bismuthides:
 crystal chemistry of the <i>RE</i>Li~3~Bi~2~ family (<i>RE</i> = La--Nd,
 Sm, Gd, and Tb)
;
_journal_coeditor_code           SK3600
_journal_issue                   10
_journal_name_full               'Acta Crystallographica Section C'
_journal_page_first
;
;
_journal_paper_doi               10.1107/S2053229615016393
_journal_volume                  71
_journal_year                    2015
_chemical_formula_iupac          'Pr Li3 Bi2'
_chemical_formula_sum            'Bi2 Li3 Pr'
_chemical_formula_weight         579.69
_chemical_name_systematic
;
Praseodymium trilithium dibismuthide
;
_space_group_crystal_system      trigonal
_space_group_IT_number           164
_space_group_name_Hall           '-P 3 2"'
_space_group_name_H-M_alt        'P -3 m 1'
_symmetry_space_group_name_Hall  '-P 3 2"'
_symmetry_space_group_name_H-M   'P -3 m 1'
_atom_sites_solution_primary     direct
_atom_sites_solution_secondary   difmap
_audit_creation_method           SHELXL
_cell_angle_alpha                90.00
_cell_angle_beta                 90.00
_cell_angle_gamma                120.00
_cell_formula_units_Z            1
_cell_length_a                   4.6672(7)
_cell_length_b                   4.6672(7)
_cell_length_c                   7.435(2)
_cell_measurement_reflns_used    1110
_cell_measurement_temperature    200(2)
_cell_measurement_theta_max      30.02
_cell_measurement_theta_min      2.74
_cell_volume                     140.26(5)
_computing_cell_refinement
;
SAINT (Bruker, 2007)
;
_computing_data_collection
;
APEX2 (Bruker, 2007)
;
_computing_data_reduction
;
SAINT (Bruker, 2007)
;
_computing_molecular_graphics
;
CrystalMaker (Palmer, 2007)
;
_computing_publication_material
;
publCIF (Westrip, 2010)
;
_computing_structure_refinement
;
SHELXTL (Sheldrick, 2008)
;
_computing_structure_solution
;
SHELXS97 (Sheldrick, 2008)
;
_diffrn_ambient_temperature      200(2)
_diffrn_measured_fraction_theta_full 0.980
_diffrn_measured_fraction_theta_max 0.980
_diffrn_measurement_device_type  'Bruker APEXII CCD'
_diffrn_measurement_method       '\f and \w scans'
_diffrn_radiation_monochromator  graphite
_diffrn_radiation_source         'fine-focus sealed tube'
_diffrn_radiation_type           MoK\a
_diffrn_radiation_wavelength     0.71073
_diffrn_reflns_av_R_equivalents  0.0289
_diffrn_reflns_av_sigmaI/netI    0.0151
_diffrn_reflns_limit_h_max       6
_diffrn_reflns_limit_h_min       -6
_diffrn_reflns_limit_k_max       6
_diffrn_reflns_limit_k_min       -6
_diffrn_reflns_limit_l_max       10
_diffrn_reflns_limit_l_min       -10
_diffrn_reflns_number            2042
_diffrn_reflns_theta_full        30.67
_diffrn_reflns_theta_max         30.67
_diffrn_reflns_theta_min         2.74
_exptl_absorpt_coefficient_mu    70.943
_exptl_absorpt_correction_T_max  0.1844
_exptl_absorpt_correction_T_min  0.1546
_exptl_absorpt_correction_type   multi-scan
_exptl_absorpt_process_details
;
(SADABS; Sheldrick, 2008)
;
_exptl_crystal_colour            silver
_exptl_crystal_density_diffrn    6.863
_exptl_crystal_density_method    'not measured'
_exptl_crystal_description       irregular
_exptl_crystal_F_000             234
_exptl_crystal_size_max          0.04
_exptl_crystal_size_mid          0.04
_exptl_crystal_size_min          0.04
_refine_diff_density_max         1.619
_refine_diff_density_min         -2.497
_refine_ls_extinction_coef       0.0016(5)
_refine_ls_extinction_expression Fc^*^=kFc[1+0.001xFc^2^\l^3^/sin(2\q)]^-1/4^
_refine_ls_extinction_method
;
SHELXTL (Sheldrick, 2008)
;
_refine_ls_goodness_of_fit_ref   1.221
_refine_ls_matrix_type           full
_refine_ls_number_parameters     9
_refine_ls_number_reflns         198
_refine_ls_number_restraints     0
_refine_ls_restrained_S_all      1.221
_refine_ls_R_factor_all          0.0155
_refine_ls_R_factor_gt           0.0147
_refine_ls_shift/su_max          0.000
_refine_ls_shift/su_mean         0.000
_refine_ls_structure_factor_coef Fsqd
_refine_ls_weighting_details
'calc w=1/[\s^2^(Fo^2^)+(0.0069P)^2^+0.7531P] where P=(Fo^2^+2Fc^2^)/3'
_refine_ls_weighting_scheme      calc
_refine_ls_wR_factor_gt          0.0268
_refine_ls_wR_factor_ref         0.0269
_reflns_number_gt                193
_reflns_number_total             198
_reflns_threshold_expression     >2sigma(I)
_iucr_refine_instructions_details
;
TITL PrLi3Bi2 in P-3m1 after absorption correction and tidy
CELL 0.71073 4.6672 4.6672 7.4353 90 90 120
ZERR 1 0.0007 0.0007 0.002 0 0 0
LATT 1
SYMM -Y,+X-Y,+Z
SYMM +Y-X,-X,+Z
SYMM +Y,+X,-Z
SYMM -Y+X,-Y,-Z
SYMM -X,-X+Y,-Z
SFAC Li Pr Bi
UNIT 3 1 2
EADP Li1 Li2
SIZE 0.042 0.039 0.036
L.S. 10
PLAN  20
ACTA
TEMP -73
BOND
FMAP -2
WGHT    0.006900    0.753100
EXTI    0.001557
FVAR       0.56245
LI1   1    0.333333    0.666667    0.644410    10.16667    0.03028
LI2   1    0.000000    0.000000    0.500000    10.08333    0.03028
PR1   2    0.000000    0.000000    0.000000    10.08333    0.00716    0.00716 =
         0.00801    0.00000    0.00000    0.00358
BI1   3    0.333333    0.666667    0.252188    10.16667    0.00705    0.00705 =
         0.00923    0.00000    0.00000    0.00353
HKLF 4
REM  PrLi3Bi2 in P-3m1 after absorption correction and tidy
REM R1 =  0.0147 for    193 Fo > 4sig(Fo)  and  0.0155 for all    198 data
REM      9 parameters refined using      0 restraints
END
WGHT      0.0069      0.7530
REM Highest difference peak  1.619,  deepest hole -2.497,  1-sigma level  0.312
Q1    1   0.3333  0.6667  0.0211  10.16667  0.05    1.62
Q2    1   0.0000  0.0000  0.2195  10.16667  0.05   -1.53
Q3    1   0.3333  0.6667  0.3505  10.16667  0.05    1.26
Q4    1   0.3333  0.6667  0.5523  10.16667  0.05   -1.24
Q5    1   0.0000  0.0000 -0.1354  10.16667  0.05    1.21
Q6    1   0.0602  0.5301  0.5433  10.50000  0.05   -1.17
Q7    1   0.0647  0.1294 -0.0199  10.50000  0.05   -1.14
Q8    1   0.0598  0.5299  0.6207  10.50000  0.05    1.12
Q9    1   0.2042  0.4084 -0.0278  10.50000  0.05   -1.11
Q10   1   0.2486  0.4971  0.4363  10.50000  0.05    1.08
Q11   1   0.2644  0.7356  0.2812  10.50000  0.05    1.00
Q12   1   0.3333  0.6667  0.7773  10.16667  0.05    0.99
Q13   1   0.3333  0.6667  0.1566  10.16667  0.05    0.92
Q14   1   0.3333  0.6667  0.4699  10.16667  0.05    0.91
Q15   1   0.2684  0.1342 -0.1439  10.50000  0.05    0.87
Q16   1  -0.0779  0.0779 -0.0577  10.50000  0.05    0.86
Q17   1   0.1319  0.2639 -0.0041  10.50000  0.05    0.85
Q18   1   0.3333  0.6667  0.8517  10.16667  0.05    0.84
Q19   1   0.1810  0.5230  0.6255  11.00000  0.05   -0.79
Q20   1   0.4008  0.8017  0.4589  10.50000  0.05   -0.78
;
_cod_data_source_file            sk3600sup1.cif
_cod_data_source_block           PrLi3Bi2
_cod_database_code               2020122
loop_
_symmetry_equiv_pos_as_xyz
'x, y, z'
'-y, x-y, z'
'-x+y, -x, z'
'y, x, -z'
'x-y, -y, -z'
'-x, -x+y, -z'
'-x, -y, -z'
'y, -x+y, -z'
'x-y, x, -z'
'-y, -x, z'
'-x+y, y, z'
'x, x-y, z'
loop_
_atom_site_type_symbol
_atom_site_label
_atom_site_fract_x
_atom_site_fract_y
_atom_site_fract_z
_atom_site_U_iso_or_equiv
_atom_site_adp_type
_atom_site_calc_flag
_atom_site_refinement_flags
_atom_site_occupancy
_atom_site_symmetry_multiplicity
Li Li1 0.3333 0.6667 0.644(3) 0.030(4) Uiso d S 1 6
Li Li2 0.0000 0.0000 0.5000 0.030(4) Uiso d S 1 12
Pr Pr1 0.0000 0.0000 0.0000 0.00744(16) Uani d S 1 12
Bi Bi1 0.3333 0.6667 0.25219(5) 0.00778(13) Uani d S 1 6
loop_
_atom_site_aniso_label
_atom_site_aniso_U_11
_atom_site_aniso_U_22
_atom_site_aniso_U_33
_atom_site_aniso_U_12
_atom_site_aniso_U_13
_atom_site_aniso_U_23
Pr1 0.0072(2) 0.0072(2) 0.0080(3) 0.00358(10) 0.000 0.000
Bi1 0.00705(14) 0.00705(14) 0.00923(19) 0.00353(7) 0.000 0.000
loop_
_atom_type_symbol
_atom_type_description
_atom_type_scat_dispersion_real
_atom_type_scat_dispersion_imag
_atom_type_scat_source
Li Li -0.0003 0.0001 'International Tables Vol C Tables 4.2.6.8 and 6.1.1.4'
Pr Pr -0.2180 2.8214 'International Tables Vol C Tables 4.2.6.8 and 6.1.1.4'
Bi Bi -4.1077 10.2566 'International Tables Vol C Tables 4.2.6.8 and 6.1.1.4'
loop_
_geom_angle_atom_site_label_1
_geom_angle_atom_site_label_2
_geom_angle_atom_site_label_3
_geom_angle_site_symmetry_1
_geom_angle_site_symmetry_3
_geom_angle
Bi1 Li1 Bi1 7_666 7_676 112.8(4)
Bi1 Li1 Bi1 7_666 7_566 112.8(4)
Bi1 Li1 Bi1 7_676 7_566 112.8(4)
Bi1 Li1 Li2 7_666 1_565 174.2(9)
Bi1 Li1 Li2 7_676 1_565 69.81(4)
Bi1 Li1 Li2 7_566 1_565 69.81(4)
Bi1 Li1 Li2 7_666 . 69.81(4)
Bi1 Li1 Li2 7_676 . 174.2(9)
Bi1 Li1 Li2 7_566 . 69.81(4)
Li2 Li1 Li2 1_565 . 107.1(5)
Bi1 Li1 Li2 7_666 1_665 69.81(4)
Bi1 Li1 Li2 7_676 1_665 69.81(4)
Bi1 Li1 Li2 7_566 1_665 174.2(9)
Li2 Li1 Li2 1_565 1_665 107.1(5)
Li2 Li1 Li2 . 1_665 107.1(5)
Bi1 Li1 Bi1 7_666 . 105.9(5)
Bi1 Li1 Bi1 7_676 . 105.9(5)
Bi1 Li1 Bi1 7_566 . 105.9(5)
Li2 Li1 Bi1 1_565 . 68.3(4)
Li2 Li1 Bi1 . . 68.3(4)
Li2 Li1 Bi1 1_665 . 68.3(4)
Bi1 Li1 Li1 7_666 7_666 54.48(15)
Bi1 Li1 Li1 7_676 7_666 123.2(3)
Bi1 Li1 Li1 7_566 7_666 123.2(3)
Li2 Li1 Li1 1_565 7_666 119.7(10)
Li2 Li1 Li1 . 7_666 53.6(2)
Li2 Li1 Li1 1_665 7_666 53.6(2)
Bi1 Li1 Li1 . 7_666 51.4(6)
Bi1 Li1 Li1 7_666 7_566 123.2(3)
Bi1 Li1 Li1 7_676 7_566 123.2(3)
Bi1 Li1 Li1 7_566 7_566 54.48(15)
Li2 Li1 Li1 1_565 7_566 53.6(2)
Li2 Li1 Li1 . 7_566 53.6(2)
Li2 Li1 Li1 1_665 7_566 119.7(10)
Bi1 Li1 Li1 . 7_566 51.4(6)
Li1 Li1 Li1 7_666 7_566 85.3(9)
Bi1 Li1 Li1 7_666 7_676 123.2(3)
Bi1 Li1 Li1 7_676 7_676 54.48(15)
Bi1 Li1 Li1 7_566 7_676 123.2(3)
Li2 Li1 Li1 1_565 7_676 53.6(2)
Li2 Li1 Li1 . 7_676 119.7(10)
Li2 Li1 Li1 1_665 7_676 53.6(2)
Bi1 Li1 Li1 . 7_676 51.4(6)
Li1 Li1 Li1 7_666 7_676 85.3(9)
Li1 Li1 Li1 7_566 7_676 85.3(9)
Bi1 Li1 Pr1 7_666 1_666 57.6(3)
Bi1 Li1 Pr1 7_676 1_666 57.6(3)
Bi1 Li1 Pr1 7_566 1_666 119.6(7)
Li2 Li1 Pr1 1_565 1_666 126.2(3)
Li2 Li1 Pr1 . 1_666 126.2(3)
Li2 Li1 Pr1 1_665 1_666 66.18(18)
Bi1 Li1 Pr1 . 1_666 134.5(3)
Li1 Li1 Pr1 7_666 1_666 99.1(3)
Li1 Li1 Pr1 7_566 1_666 174.1(9)
Li1 Li1 Pr1 7_676 1_666 99.1(3)
Bi1 Li1 Pr1 7_666 1_566 119.6(7)
Bi1 Li1 Pr1 7_676 1_566 57.6(3)
Bi1 Li1 Pr1 7_566 1_566 57.6(3)
Li2 Li1 Pr1 1_565 1_566 66.18(18)
Li2 Li1 Pr1 . 1_566 126.2(3)
Li2 Li1 Pr1 1_665 1_566 126.2(3)
Bi1 Li1 Pr1 . 1_566 134.5(3)
Li1 Li1 Pr1 7_666 1_566 174.1(9)
Li1 Li1 Pr1 7_566 1_566 99.1(3)
Li1 Li1 Pr1 7_676 1_566 99.1(3)
Pr1 Li1 Pr1 1_666 1_566 76.4(4)
Li1 Li2 Li1 7_556 7_666 107.1(5)
Li1 Li2 Li1 7_556 1_445 72.9(5)
Li1 Li2 Li1 7_666 1_445 180.0000(10)
Li1 Li2 Li1 7_556 . 180.000(2)
Li1 Li2 Li1 7_666 . 72.9(5)
Li1 Li2 Li1 1_445 . 107.1(5)
Li1 Li2 Li1 7_556 7_566 107.1(5)
Li1 Li2 Li1 7_666 7_566 107.1(5)
Li1 Li2 Li1 1_445 7_566 72.9(5)
Li1 Li2 Li1 . 7_566 72.9(5)
Li1 Li2 Li1 7_556 1_545 72.9(5)
Li1 Li2 Li1 7_666 1_545 72.9(5)
Li1 Li2 Li1 1_445 1_545 107.1(5)
Li1 Li2 Li1 . 1_545 107.1(5)
Li1 Li2 Li1 7_566 1_545 180.0
Li1 Li2 Bi1 7_556 7_666 126.3(2)
Li1 Li2 Bi1 7_666 7_666 56.1(4)
Li1 Li2 Bi1 1_445 7_666 123.9(4)
Li1 Li2 Bi1 . 7_666 53.7(2)
Li1 Li2 Bi1 7_566 7_666 126.3(2)
Li1 Li2 Bi1 1_545 7_666 53.7(2)
Li1 Li2 Bi1 7_556 1_445 53.7(2)
Li1 Li2 Bi1 7_666 1_445 123.9(4)
Li1 Li2 Bi1 1_445 1_445 56.1(4)
Li1 Li2 Bi1 . 1_445 126.3(2)
Li1 Li2 Bi1 7_566 1_445 53.7(2)
Li1 Li2 Bi1 1_545 1_445 126.3(2)
Bi1 Li2 Bi1 7_666 1_445 180.0
Li1 Li2 Bi1 7_556 7_556 56.1(4)
Li1 Li2 Bi1 7_666 7_556 126.3(2)
Li1 Li2 Bi1 1_445 7_556 53.7(2)
Li1 Li2 Bi1 . 7_556 123.9(4)
Li1 Li2 Bi1 7_566 7_556 126.3(2)
Li1 Li2 Bi1 1_545 7_556 53.7(2)
Bi1 Li2 Bi1 7_666 7_556 91.267(13)
Bi1 Li2 Bi1 1_445 7_556 88.733(13)
Li1 Li2 Bi1 7_556 . 123.9(4)
Li1 Li2 Bi1 7_666 . 53.7(2)
Li1 Li2 Bi1 1_445 . 126.3(2)
Li1 Li2 Bi1 . . 56.1(4)
Li1 Li2 Bi1 7_566 . 53.7(2)
Li1 Li2 Bi1 1_545 . 126.3(2)
Bi1 Li2 Bi1 7_666 . 88.734(13)
Bi1 Li2 Bi1 1_445 . 91.266(13)
Bi1 Li2 Bi1 7_556 . 180.000(10)
Li1 Li2 Bi1 7_556 7_566 126.3(2)
Li1 Li2 Bi1 7_666 7_566 126.3(2)
Li1 Li2 Bi1 1_445 7_566 53.7(2)
Li1 Li2 Bi1 . 7_566 53.7(2)
Li1 Li2 Bi1 7_566 7_566 56.1(4)
Li1 Li2 Bi1 1_545 7_566 123.9(4)
Bi1 Li2 Bi1 7_666 7_566 91.266(13)
Bi1 Li2 Bi1 1_445 7_566 88.734(13)
Bi1 Li2 Bi1 7_556 7_566 91.266(13)
Bi1 Li2 Bi1 . 7_566 88.734(13)
Li1 Li2 Bi1 7_556 1_545 53.7(2)
Li1 Li2 Bi1 7_666 1_545 53.7(2)
Li1 Li2 Bi1 1_445 1_545 126.3(2)
Li1 Li2 Bi1 . 1_545 126.3(2)
Li1 Li2 Bi1 7_566 1_545 123.9(4)
Li1 Li2 Bi1 1_545 1_545 56.1(4)
Bi1 Li2 Bi1 7_666 1_545 88.734(13)
Bi1 Li2 Bi1 1_445 1_545 91.266(14)
Bi1 Li2 Bi1 7_556 1_545 88.734(13)
Bi1 Li2 Bi1 . 1_545 91.266(13)
Bi1 Li2 Bi1 7_566 1_545 180.0
Bi1 Pr1 Bi1 7 . 180.0
Bi1 Pr1 Bi1 7 7_665 90.609(14)
Bi1 Pr1 Bi1 . 7_665 89.391(13)
Bi1 Pr1 Bi1 7 1_445 89.391(14)
Bi1 Pr1 Bi1 . 1_445 90.609(13)
Bi1 Pr1 Bi1 7_665 1_445 180.0
Bi1 Pr1 Bi1 7 7_565 90.608(13)
Bi1 Pr1 Bi1 . 7_565 89.391(14)
Bi1 Pr1 Bi1 7_665 7_565 90.608(13)
Bi1 Pr1 Bi1 1_445 7_565 89.392(13)
Bi1 Pr1 Bi1 7 1_545 89.392(13)
Bi1 Pr1 Bi1 . 1_545 90.609(14)
Bi1 Pr1 Bi1 7_665 1_545 89.392(13)
Bi1 Pr1 Bi1 1_445 1_545 90.608(13)
Bi1 Pr1 Bi1 7_565 1_545 180.0
Bi1 Pr1 Li2 7 . 124.833(10)
Bi1 Pr1 Li2 . . 55.167(10)
Bi1 Pr1 Li2 7_665 . 124.833(9)
Bi1 Pr1 Li2 1_445 . 55.167(9)
Bi1 Pr1 Li2 7_565 . 124.833(9)
Bi1 Pr1 Li2 1_545 . 55.167(10)
Bi1 Pr1 Li2 7 1_554 55.167(10)
Bi1 Pr1 Li2 . 1_554 124.833(10)
Bi1 Pr1 Li2 7_665 1_554 55.167(9)
Bi1 Pr1 Li2 1_445 1_554 124.833(9)
Bi1 Pr1 Li2 7_565 1_554 55.167(10)
Bi1 Pr1 Li2 1_545 1_554 124.833(9)
Li2 Pr1 Li2 . 1_554 180.0
Bi1 Pr1 Li1 7 1_444 46.13(4)
Bi1 Pr1 Li1 . 1_444 133.87(4)
Bi1 Pr1 Li1 7_665 1_444 100.7(3)
Bi1 Pr1 Li1 1_445 1_444 79.3(3)
Bi1 Pr1 Li1 7_565 1_444 46.13(4)
Bi1 Pr1 Li1 1_545 1_444 133.87(4)
Li2 Pr1 Li1 . 1_444 134.5(3)
Li2 Pr1 Li1 1_554 1_444 45.5(3)
Bi1 Pr1 Li1 7 7_666 133.87(4)
Bi1 Pr1 Li1 . 7_666 46.13(4)
Bi1 Pr1 Li1 7_665 7_666 79.3(3)
Bi1 Pr1 Li1 1_445 7_666 100.7(3)
Bi1 Pr1 Li1 7_565 7_666 133.87(4)
Bi1 Pr1 Li1 1_545 7_666 46.13(4)
Li2 Pr1 Li1 . 7_666 45.5(3)
Li2 Pr1 Li1 1_554 7_666 134.5(3)
Li1 Pr1 Li1 1_444 7_666 180.0000(10)
Bi1 Pr1 Li1 7 1_554 100.7(3)
Bi1 Pr1 Li1 . 1_554 79.3(3)
Bi1 Pr1 Li1 7_665 1_554 46.13(4)
Bi1 Pr1 Li1 1_445 1_554 133.87(4)
Bi1 Pr1 Li1 7_565 1_554 46.13(4)
Bi1 Pr1 Li1 1_545 1_554 133.87(4)
Li2 Pr1 Li1 . 1_554 134.5(3)
Li2 Pr1 Li1 1_554 1_554 45.5(3)
Li1 Pr1 Li1 1_444 1_554 76.4(4)
Li1 Pr1 Li1 7_666 1_554 103.6(4)
Bi1 Pr1 Li1 7 7_556 79.3(3)
Bi1 Pr1 Li1 . 7_556 100.7(3)
Bi1 Pr1 Li1 7_665 7_556 133.87(4)
Bi1 Pr1 Li1 1_445 7_556 46.13(4)
Bi1 Pr1 Li1 7_565 7_556 133.87(4)
Bi1 Pr1 Li1 1_545 7_556 46.13(4)
Li2 Pr1 Li1 . 7_556 45.5(3)
Li2 Pr1 Li1 1_554 7_556 134.5(3)
Li1 Pr1 Li1 1_444 7_556 103.6(4)
Li1 Pr1 Li1 7_666 7_556 76.4(4)
Li1 Pr1 Li1 1_554 7_556 180.0
Li1 Bi1 Li1 7_666 7_676 112.8(4)
Li1 Bi1 Li1 7_666 7_566 112.8(4)
Li1 Bi1 Li1 7_676 7_566 112.8(4)
Li1 Bi1 Li1 7_666 . 74.1(5)
Li1 Bi1 Li1 7_676 . 74.1(5)
Li1 Bi1 Li1 7_566 . 74.1(5)
Li1 Bi1 Li2 7_666 1_665 56.5(2)
Li1 Bi1 Li2 7_676 1_665 56.5(2)
Li1 Bi1 Li2 7_566 1_665 129.7(5)
Li1 Bi1 Li2 . 1_665 55.636(10)
Li1 Bi1 Li2 7_666 1_565 129.7(5)
Li1 Bi1 Li2 7_676 1_565 56.5(2)
Li1 Bi1 Li2 7_566 1_565 56.5(2)
Li1 Bi1 Li2 . 1_565 55.636(10)
Li2 Bi1 Li2 1_665 1_565 91.266(14)
Li1 Bi1 Li2 7_666 . 56.5(2)
Li1 Bi1 Li2 7_676 . 129.7(5)
Li1 Bi1 Li2 7_566 . 56.5(2)
Li1 Bi1 Li2 . . 55.636(9)
Li2 Bi1 Li2 1_665 . 91.266(13)
Li2 Bi1 Li2 1_565 . 91.266(13)
Li1 Bi1 Pr1 7_666 1_565 161.1(5)
Li1 Bi1 Pr1 7_676 1_565 76.2(3)
Li1 Bi1 Pr1 7_566 1_565 76.2(3)
Li1 Bi1 Pr1 . 1_565 124.833(10)
Li2 Bi1 Pr1 1_665 1_565 131.390(5)
Li2 Bi1 Pr1 1_565 1_565 69.197(17)
Li2 Bi1 Pr1 . 1_565 131.390(5)
Li1 Bi1 Pr1 7_666 . 76.2(3)
Li1 Bi1 Pr1 7_676 . 161.1(5)
Li1 Bi1 Pr1 7_566 . 76.2(3)
Li1 Bi1 Pr1 . . 124.833(10)
Li2 Bi1 Pr1 1_665 . 131.390(5)
Li2 Bi1 Pr1 1_565 . 131.390(5)
Li2 Bi1 Pr1 . . 69.197(17)
Pr1 Bi1 Pr1 1_565 . 90.609(14)
Li1 Bi1 Pr1 7_666 1_665 76.2(3)
Li1 Bi1 Pr1 7_676 1_665 76.2(3)
Li1 Bi1 Pr1 7_566 1_665 161.1(5)
Li1 Bi1 Pr1 . 1_665 124.833(9)
Li2 Bi1 Pr1 1_665 1_665 69.197(17)
Li2 Bi1 Pr1 1_565 1_665 131.390(5)
Li2 Bi1 Pr1 . 1_665 131.390(5)
Pr1 Bi1 Pr1 1_565 1_665 90.609(14)
Pr1 Bi1 Pr1 . 1_665 90.609(14)
loop_
_geom_bond_atom_site_label_1
_geom_bond_atom_site_label_2
_geom_bond_site_symmetry_2
_geom_bond_distance
Li1 Bi1 7_666 2.802(6)
Li1 Bi1 7_676 2.802(6)
Li1 Bi1 7_566 2.802(6)
Li1 Li2 1_565 2.901(9)
Li1 Li2 . 2.901(9)
Li1 Li2 1_665 2.901(9)
Li1 Bi1 . 2.92(2)
Li1 Li1 7_666 3.45(3)
Li1 Li1 7_566 3.45(3)
Li1 Li1 7_676 3.45(3)
Li1 Pr1 1_666 3.775(16)
Li1 Pr1 1_566 3.775(16)
Li2 Li1 7_556 2.901(9)
Li2 Li1 7_666 2.901(9)
Li2 Li1 1_445 2.901(9)
Li2 Li1 7_566 2.901(9)
Li2 Li1 1_545 2.901(9)
Li2 Bi1 7_666 3.2643(5)
Li2 Bi1 1_445 3.2643(5)
Li2 Bi1 7_556 3.2643(5)
Li2 Bi1 . 3.2643(5)
Li2 Bi1 7_566 3.2644(5)
Li2 Bi1 1_545 3.2644(5)
Pr1 Bi1 7 3.2828(5)
Pr1 Bi1 . 3.2828(5)
Pr1 Bi1 7_665 3.2828(5)
Pr1 Bi1 1_445 3.2828(5)
Pr1 Bi1 7_565 3.2828(5)
Pr1 Bi1 1_545 3.2828(5)
Pr1 Li2 1_554 3.7177(10)
Pr1 Li1 1_444 3.775(16)
Pr1 Li1 7_666 3.775(16)
Pr1 Li1 1_554 3.775(16)
Pr1 Li1 7_556 3.775(16)
Bi1 Li1 7_666 2.802(6)
Bi1 Li1 7_676 2.802(6)
Bi1 Li1 7_566 2.802(6)
Bi1 Li2 1_665 3.2643(5)
Bi1 Li2 1_565 3.2643(5)
Bi1 Pr1 1_565 3.2828(5)
Bi1 Pr1 1_665 3.2828(5)

_cod_database_fobs_code 2020122
