#------------------------------------------------------------------------------
#$Date: 2016-02-13 21:28:24 +0200 (Sat, 13 Feb 2016) $
#$Revision: 176429 $
#$URL: svn://www.crystallography.net/cod/cif/2/02/00/2020012.cif $
#------------------------------------------------------------------------------
#
# This file is available in the Crystallography Open Database (COD),
# http://www.crystallography.net/. The original data for this entry
# were provided by IUCr Journals, http://journals.iucr.org/.
#
# The file may be used within the scientific community so long as
# proper attribution is given to the journal article from which the
# data were obtained.
#
data_2020012
loop_
_publ_author_name
'Havl\'ak, Lubom\'ir'
'F\'abry, Jan'
'Henriques, Margarida'
'Du\<sek, Michal'
_publ_section_title
;
 Structure determination of KScS~2~, RbScS~2~ and KLnS~2~ (Ln = Nd, Sm,
 Tb, Dy, Ho, Er, Tm and Yb) and crystal--chemical discussion
;
_journal_coeditor_code           FA3364
_journal_issue                   7
_journal_name_full               'Acta Crystallographica Section C'
_journal_page_first              623
_journal_page_last               630
_journal_paper_doi               10.1107/S2053229615011833
_journal_volume                  71
_journal_year                    2015
_chemical_formula_iupac          'K1 Dy1 S2'
_chemical_formula_moiety         'Dy1 K1 S2'
_chemical_formula_sum            'Dy K S2'
_chemical_formula_weight         265.7
_chemical_name_systematic
;
Potassium dysprosium sulfide
;
_space_group_IT_number           166
_symmetry_cell_setting           trigonal
_symmetry_space_group_name_Hall  '-R 3 2"'
_symmetry_space_group_name_H-M   'R -3 m :H'
_cell_angle_alpha                90
_cell_angle_beta                 90
_cell_angle_gamma                120
_cell_formula_units_Z            3
_cell_length_a                   4.0315(11)
_cell_length_b                   4.0315(11)
_cell_length_c                   21.890(5)
_cell_measurement_reflns_used    386
_cell_measurement_temperature    293.5(6)
_cell_measurement_theta_max      28.62
_cell_measurement_theta_min      5.89
_cell_volume                     308.11(14)
_computing_cell_refinement
;
<i>CrysAlis PRO</i> (Agilent, 2014)
;
_computing_data_collection
;
<i>CrysAlis PRO</i> (Agilent, 2014)
;
_computing_data_reduction
;
<i>CrysAlis PRO</i> (Agilent, 2014)
;
_computing_publication_material
;
<i>JANA2006</i> (Pet\<r\'i\<cek <i>et al.</i>, 2014)
;
_computing_structure_refinement
;
<i>JANA2006</i> (Pet\<r\'i\<cek <i>et al.</i>, 2014)
;
_computing_structure_solution
;
SUPERFLIP (Palatinus & Chapuis, 2007)
;
_diffrn_ambient_temperature      293.5
_diffrn_detector_area_resol_mean 5.1873
_diffrn_measured_fraction_theta_full 0.98
_diffrn_measured_fraction_theta_max 0.93
_diffrn_measurement_device       'four-circle diffractometer'
_diffrn_measurement_device_type
'Xcalibur Gemini Ultra diffractometer with Atlas detector'
_diffrn_measurement_method       \w
_diffrn_radiation_monochromator  graphite
_diffrn_radiation_source         'X-ray tube'
_diffrn_radiation_type           'Mo K\a'
_diffrn_radiation_wavelength     0.71073
_diffrn_reflns_av_R_equivalents  0.0995
_diffrn_reflns_limit_h_max       4
_diffrn_reflns_limit_h_min       -5
_diffrn_reflns_limit_k_max       5
_diffrn_reflns_limit_k_min       -3
_diffrn_reflns_limit_l_max       27
_diffrn_reflns_limit_l_min       -25
_diffrn_reflns_number            658
_diffrn_reflns_theta_full        27.76
_diffrn_reflns_theta_max         29.26
_diffrn_reflns_theta_min         5.59
_diffrn_standards_number         0
_exptl_absorpt_coefficient_mu    19.974
_exptl_absorpt_correction_T_max  0.7034
_exptl_absorpt_correction_T_min  0.2009
_exptl_absorpt_correction_type   gaussian
_exptl_absorpt_process_details
;
<i>JANA2006</i> (Pet\<r\'i\<cek <i>et al.</i>, 2014)
;
_exptl_crystal_colour            white
_exptl_crystal_density_diffrn    4.2962
_exptl_crystal_description       block
_exptl_crystal_F_000             351
_exptl_crystal_size_max          0.208
_exptl_crystal_size_mid          0.085
_exptl_crystal_size_min          0.031
_refine_diff_density_max         4.44
_refine_diff_density_min         -2.46
_refine_ls_extinction_coef       19E2(4)
_refine_ls_extinction_method
;
B-C type 1 Lorentzian isotropic
[Becker, P. J. & Coppens, P. (1974). <i>Acta Cryst.</i> A<b>30</b>, 129--147]
;
_refine_ls_goodness_of_fit_ref   2.32
_refine_ls_number_constraints    0
_refine_ls_number_parameters     9
_refine_ls_number_reflns         126
_refine_ls_number_restraints     0
_refine_ls_R_factor_all          0.0519
_refine_ls_R_factor_gt           0.0516
_refine_ls_shift/su_max          0.0011
_refine_ls_shift/su_mean         0.0002
_refine_ls_structure_factor_coef Fsqd
_refine_ls_weighting_details     'w = 1/[\s^2^(I) + 0.0004I^2^]'
_refine_ls_weighting_scheme      sigma
_refine_ls_wR_factor_gt          0.1050
_refine_ls_wR_factor_ref         0.1050
_reflns_number_gt                124
_reflns_number_total             126
_reflns_threshold_expression     I>3\s(I)
_iucr_refine_instructions_details
;
    3    0    0    1
 1.528449 0.000000 0.000000 0.000000 0.000000 0.000000      100000
 0.000000 0.000000                                          00
 0.000000 0.000000 0.000000 0.000000 0.000000 0.000000      000000
 0.190325 0.000000 0.000000 0.000000 0.000000 0.000000      100000
K         1  2     0.083333 0.000000 0.000000 0.000000
 0.019788 0.019788 0.025118 0.009894 0.000000 0.000000      0000101000
Dy        2  2     0.083333 0.333333 0.666667 0.166667
 0.010624 0.010624 0.019916 0.005312 0.000000 0.000000      0000101000
S         3  2     0.166667 0.000000 0.000000 0.234451
 0.011424 0.011424 0.018638 0.005712 0.000000 0.000000      0001101000
----------------------------   s.u. block   ----------------------------
 0.025661 0.000000 0.000000 0.000000 0.000000 0.000000
 0.000000 0.000000
 0.000000 0.000000 0.000000 0.000000 0.000000 0.000000
 0.037290 0.000000 0.000000 0.000000 0.000000 0.000000
K                  0.000000 0.000000 0.000000 0.000000
 0.002846 0.002846 0.005446 0.001423 0.000000 0.000000
Dy                 0.000000 0.000000 0.000000 0.000000
 0.000929 0.000929 0.001342 0.000465 0.000000 0.000000
S                  0.000000 0.000000 0.000000 0.000335
 0.002029 0.002029 0.003802 0.001014 0.000000 0.000000
--------------------------   Saved points   ----------------------------
    0
--------------------------   Fourier maxima   --------------------------
    1    1    1
max1      1  1     1.000000 0.000000 0.000000 0.500000      000  0  0  0
     3.82     1.15
max2      1  1     1.000000 0.000000 0.000000 0.459746      000  0  0  0
     4.46     0.96
max3      1  1     1.000000 0.086771 0.164567 0.125773      000  0  0  0
     1.14     0.59
max4      1  1     1.000000 0.000000 0.000000 0.194741      000  0  0  0
     1.44     0.59
max5      1  1     1.000000 0.101515 0.547487 0.968467      000  0  0  0
     1.17     0.46
max6      1  1     1.000000 0.000000 0.000000 0.232971      000  0  0  0
     1.02     0.46
max7      1  1     1.000000 0.185652 0.758319 0.364327      000  0  0  0
     1.16     0.45
max8      1  1     1.000000 0.063023 0.535643 0.152982      000  0  0  0
     1.70     0.42
max9      1  1     1.000000 0.069127 0.535657 0.885162      000  0  0  0
     1.39     0.39
max10     1  1     1.000000 0.064846 0.535661 0.653927      000  0  0  0
     0.91     0.32
--------------------------   Fourier minima   --------------------------
    1    1    1
min1      1  1     1.000000 0.000000 0.000000 0.400533      000  0  0  0
     2.12     0.86
min2      1  1     1.000000 0.087577 0.183094 0.519882      000  0  0  0
     2.47     0.79
min3      1  1     1.000000 0.000000 0.000000 0.435184      000  0  0  0
     2.06     0.73
min4      1  1     1.000000 0.074962 0.153526 0.019171      000  0  0  0
     1.79     0.62
min5      1  1     1.000000 0.000000 0.000000 0.359721      000  0  0  0
     2.05     0.56
min6      1  1     1.000000 0.000000 0.000000 0.099182      000  0  0  0
     0.93     0.43
min7      1  1     1.000000 0.000000 0.000000 0.293760      000  0  0  0
     1.90     0.38
min8      1  1     1.000000 0.058747 0.523851 0.500733      000  0  0  0
     0.67     0.36
min9      1  1     1.000000-0.013065 0.248959 0.537501      000  0  0  0
     1.10     0.34
min10     1  1     1.000000 0.074885 0.141985 0.097305      000  0  0  0
     0.79     0.30
------------------------------------------------------------------------
Version Jana2006
title
cell 4.0315 4.0315 21.89 90 90 120
esdcell 0.0011 0.0011 0.005 0 0 0
spgroup R-3m 166 5
lattice R
symmetry x y z
symmetry -y x-y z
symmetry -x+y -x z
symmetry y x -z
symmetry x-y -y -z
symmetry -x -x+y -z
symmetry -x -y -z
symmetry y -x+y -z
symmetry x-y x -z
symmetry -y -x z
symmetry -x+y y z
symmetry x x-y z
unitsnumb 3
chemform K Dy S2
formtab -62
atom K atradius 2.35 color 161033246
atom Dy atradius 1.77 color 49006252
atom S atradius 1.04 color 255250000
roundmethod 1
end
*******************************************************************************
contour
end contour
dist
  angles 1 lsttype 1 dmax 4
  bondval K S 2.59 0.37
  bondval Dy S 2.47 0.37
end dist
fourier
  maptype 6
end fourier
refine
  fsquare 1 badref 10
  iext 1 itypex 1 idistr 2 radius 0.01
end refine
;
_cod_data_source_file            fa3364sup1.cif
_cod_data_source_block           VI
_cod_original_sg_symbol_H-M      'R -3 m'
_cod_original_formula_sum        'Dy1 K1 S2'
_cod_database_code               2020012
_cod_database_fobs_code          2020012
loop_
_space_group_symop_id
_space_group_symop_operation_xyz
1 x,y,z
2 -y,x-y,z
3 -x+y,-x,z
4 y,x,-z
5 x-y,-y,-z
6 -x,-x+y,-z
7 -x,-y,-z
8 y,-x+y,-z
9 x-y,x,-z
10 -y,-x,z
11 -x+y,y,z
12 x,x-y,z
13 x+2/3,y+1/3,z+1/3
14 -y+2/3,x-y+1/3,z+1/3
15 -x+y+2/3,-x+1/3,z+1/3
16 y+2/3,x+1/3,-z+1/3
17 x-y+2/3,-y+1/3,-z+1/3
18 -x+2/3,-x+y+1/3,-z+1/3
19 -x+2/3,-y+1/3,-z+1/3
20 y+2/3,-x+y+1/3,-z+1/3
21 x-y+2/3,x+1/3,-z+1/3
22 -y+2/3,-x+1/3,z+1/3
23 -x+y+2/3,y+1/3,z+1/3
24 x+2/3,x-y+1/3,z+1/3
25 x+1/3,y+2/3,z+2/3
26 -y+1/3,x-y+2/3,z+2/3
27 -x+y+1/3,-x+2/3,z+2/3
28 y+1/3,x+2/3,-z+2/3
29 x-y+1/3,-y+2/3,-z+2/3
30 -x+1/3,-x+y+2/3,-z+2/3
31 -x+1/3,-y+2/3,-z+2/3
32 y+1/3,-x+y+2/3,-z+2/3
33 x-y+1/3,x+2/3,-z+2/3
34 -y+1/3,-x+2/3,z+2/3
35 -x+y+1/3,y+2/3,z+2/3
36 x+1/3,x-y+2/3,z+2/3
loop_
_atom_site_type_symbol
_atom_site_label
_atom_site_fract_x
_atom_site_fract_y
_atom_site_fract_z
_atom_site_U_iso_or_equiv
_atom_site_adp_type
_atom_site_calc_flag
_atom_site_occupancy
K K 0 0 0 0.022(3) Uani d 1
Dy Dy 0.333333 0.666667 0.166667 0.0137(8) Uani d 1
S S 0 0 0.2345(3) 0.0138(19) Uani d 1
loop_
_atom_site_aniso_label
_atom_site_aniso_U_11
_atom_site_aniso_U_22
_atom_site_aniso_U_33
_atom_site_aniso_U_12
_atom_site_aniso_U_13
_atom_site_aniso_U_23
_atom_site_aniso_type_symbol
K 0.020(3) 0.020(3) 0.025(5) 0.0099(14) 0 0 K
Dy 0.0106(9) 0.0106(9) 0.0199(13) 0.0053(5) 0 0 Dy
S 0.011(2) 0.011(2) 0.019(4) 0.0057(10) 0 0 S
loop_
_atom_type_symbol
_atom_type_scat_dispersion_real
_atom_type_scat_dispersion_imag
_atom_type_scat_source
Dy -0.1892 4.4098 'International Tables Vol C tables 4.2.6.8 and 6.1.1.1'
K 0.2009 0.2494 'International Tables Vol C tables 4.2.6.8 and 6.1.1.1'
S 0.1246 0.1234 'International Tables Vol C tables 4.2.6.8 and 6.1.1.1'
loop_
_exptl_crystal_face_index_h
_exptl_crystal_face_index_k
_exptl_crystal_face_index_l
_exptl_crystal_face_perp_dist
2 -5 11 0.039
-1 5 1 0.0526
-3 5 -17 0.0445
3 0 25 0.0405
-3 1 -26 0.0342
0 -5 -9 0.0452
0 -1 -29 0.028
-3 4 -18 0.0287
-2 4 21 0.0327
-1 1 -30 0.0565
-4 5 -10 0.0147
0 -1 -30 0.0155
-2 1 -29 0.0315
0 1 30 0.0155
loop_
_geom_angle_atom_site_label_1
_geom_angle_atom_site_label_2
_geom_angle_atom_site_label_3
_geom_angle_site_symmetry_1
_geom_angle_site_symmetry_3
_geom_angle
S K S 25_444 25_544 78.72(11)
S K S 25_444 25_554 78.72(11)
S K S 25_444 16_445 101.28(11)
S K S 25_444 16_455 101.28(11)
S K S 25_444 16_555 180.0(5)
S K S 25_544 25_554 78.72(11)
S K S 25_544 16_445 101.28(11)
S K S 25_544 16_455 180.0(5)
S K S 25_544 16_555 101.28(11)
S K S 25_554 16_445 180.0(5)
S K S 25_554 16_455 101.28(11)
S K S 25_554 16_555 101.28(11)
S K S 16_445 16_455 78.72(11)
S K S 16_445 16_555 78.72(11)
S K S 16_455 16_555 78.72(11)
S Dy S . 1_565 93.82(13)
S Dy S . 1_665 93.82(13)
S Dy S . 16_455 86.18(13)
S Dy S . 16_555 86.18(13)
S Dy S . 16_565 180.0(5)
S Dy S 1_565 1_665 93.82(13)
S Dy S 1_565 16_455 86.18(13)
S Dy S 1_565 16_555 180.0(5)
S Dy S 1_565 16_565 86.18(13)
S Dy S 1_665 16_455 180.0(5)
S Dy S 1_665 16_555 86.18(13)
S Dy S 1_665 16_565 86.18(13)
S Dy S 16_455 16_555 93.82(13)
S Dy S 16_455 16_565 93.82(13)
S Dy S 16_555 16_565 93.82(13)
K S K 13_445 13_455 78.72(15)
K S K 13_445 13_555 78.72(15)
Dy S Dy 1_445 1_545 93.82(18)
Dy S Dy 1_445 . 93.82(18)
Dy S Dy 1_545 . 93.82(18)
loop_
_geom_bond_atom_site_label_1
_geom_bond_atom_site_label_2
_geom_bond_site_symmetry_2
_geom_bond_distance
K S 25_444 3.179(5)
K S 25_544 3.179(5)
K S 25_554 3.179(5)
K S 16_445 3.179(5)
K S 16_455 3.179(5)
K S 16_555 3.179(5)
Dy S . 2.760(4)
Dy S 1_565 2.760(4)
Dy S 1_665 2.760(4)
Dy S 16_455 2.760(4)
Dy S 16_555 2.760(4)
Dy S 16_565 2.760(4)
S S 16_445 3.772(8)
S S 16_455 3.772(8)
S S 16_555 3.772(8)
