#------------------------------------------------------------------------------
#$Date: 2015-09-21 03:45:58 +0300 (Mon, 21 Sep 2015) $
#$Revision: 158199 $
#$URL: svn://www.crystallography.net/cod/cif/2/02/01/2020120.cif $
#------------------------------------------------------------------------------
#
# This file is available in the Crystallography Open Database (COD),
# http://www.crystallography.net/. The original data for this entry
# were provided by IUCr Journals, http://journals.iucr.org/.
#
# The file may be used within the scientific community so long as
# proper attribution is given to the journal article from which the
# data were obtained.
#
data_2020120
loop_
_publ_author_name
'Prakash, Jai'
'Sch\"afer, Marion C.'
'Bobev, Svilen'
_publ_section_title
;
 Synthesis and structure determination of seven ternary bismuthides:
 crystal chemistry of the <i>RE</i>Li~3~Bi~2~ family (<i>RE</i> = La--Nd,
 Sm, Gd, and Tb)
;
_journal_coeditor_code           SK3600
_journal_issue                   10
_journal_name_full               'Acta Crystallographica Section C'
_journal_page_first
;
;
_journal_paper_doi               10.1107/S2053229615016393
_journal_volume                  71
_journal_year                    2015
_chemical_formula_iupac          'La Li3 Bi2'
_chemical_formula_sum            'Bi2 La Li3'
_chemical_formula_weight         577.69
_chemical_name_systematic
;
Lanthanum trilithium dibismuthide
;
_space_group_crystal_system      trigonal
_space_group_IT_number           164
_space_group_name_Hall           '-P 3 2"'
_space_group_name_H-M_alt        'P -3 m 1'
_symmetry_space_group_name_Hall  '-P 3 2"'
_symmetry_space_group_name_H-M   'P -3 m 1'
_atom_sites_solution_primary     direct
_atom_sites_solution_secondary   difmap
_audit_creation_method           SHELXL
_cell_angle_alpha                90.00
_cell_angle_beta                 90.00
_cell_angle_gamma                120.00
_cell_formula_units_Z            1
_cell_length_a                   4.7010(3)
_cell_length_b                   4.7010(3)
_cell_length_c                   7.5431(11)
_cell_measurement_reflns_used    1334
_cell_measurement_temperature    200(2)
_cell_measurement_theta_max      30.41
_cell_measurement_theta_min      2.70
_cell_volume                     144.36(2)
_computing_cell_refinement
;
SAINT (Bruker, 2007)
;
_computing_data_collection
;
APEX2 (Bruker, 2007)
;
_computing_data_reduction
;
SAINT (Bruker, 2007)
;
_computing_molecular_graphics
;
CrystalMaker (Palmer, 2007)
;
_computing_publication_material
;
publCIF (Westrip, 2010)
;
_computing_structure_refinement
;
SHELXTL (Sheldrick, 2008)
;
_computing_structure_solution
;
SHELXS97 (Sheldrick, 2008)
;
_diffrn_ambient_temperature      200(2)
_diffrn_measured_fraction_theta_full 1.000
_diffrn_measured_fraction_theta_max 1.000
_diffrn_measurement_device_type  'Bruker APEXII CCD'
_diffrn_measurement_method       '\f and \w scans'
_diffrn_radiation_monochromator  graphite
_diffrn_radiation_source         'fine-focus sealed tube'
_diffrn_radiation_type           MoK\a
_diffrn_radiation_wavelength     0.71073
_diffrn_reflns_av_R_equivalents  0.0319
_diffrn_reflns_av_sigmaI/netI    0.0157
_diffrn_reflns_limit_h_max       6
_diffrn_reflns_limit_h_min       -6
_diffrn_reflns_limit_k_max       6
_diffrn_reflns_limit_k_min       -6
_diffrn_reflns_limit_l_max       10
_diffrn_reflns_limit_l_min       -10
_diffrn_reflns_number            2231
_diffrn_reflns_theta_full        30.41
_diffrn_reflns_theta_max         30.41
_diffrn_reflns_theta_min         2.70
_exptl_absorpt_coefficient_mu    67.888
_exptl_absorpt_correction_T_max  0.1824
_exptl_absorpt_correction_T_min  0.1179
_exptl_absorpt_correction_type   multi-scan
_exptl_absorpt_process_details
;
(SADABS; Sheldrick, 2008)
;
_exptl_crystal_colour            silver
_exptl_crystal_density_diffrn    6.645
_exptl_crystal_density_method    'not measured'
_exptl_crystal_description       irregular
_exptl_crystal_F_000             232
_exptl_crystal_size_max          0.05
_exptl_crystal_size_mid          0.04
_exptl_crystal_size_min          0.04
_refine_diff_density_max         1.230
_refine_diff_density_min         -1.208
_refine_ls_extinction_coef       0.0161(9)
_refine_ls_extinction_expression Fc^*^=kFc[1+0.001xFc^2^\l^3^/sin(2\q)]^-1/4^
_refine_ls_extinction_method
;
SHELXTL (Sheldrick, 2008)
;
_refine_ls_goodness_of_fit_ref   1.156
_refine_ls_matrix_type           full
_refine_ls_number_parameters     9
_refine_ls_number_reflns         202
_refine_ls_number_restraints     0
_refine_ls_restrained_S_all      1.156
_refine_ls_R_factor_all          0.0131
_refine_ls_R_factor_gt           0.0125
_refine_ls_shift/su_max          0.000
_refine_ls_shift/su_mean         0.000
_refine_ls_structure_factor_coef Fsqd
_refine_ls_weighting_details
'calc w=1/[\s^2^(Fo^2^)+(0.0079P)^2^+0.5698P] where P=(Fo^2^+2Fc^2^)/3'
_refine_ls_weighting_scheme      calc
_refine_ls_wR_factor_gt          0.0259
_refine_ls_wR_factor_ref         0.0261
_reflns_number_gt                197
_reflns_number_total             202
_reflns_threshold_expression     >2sigma(I)
_iucr_refine_instructions_details
;
TITL LaLi3Bi2 in P-3m1 after absorption correction and tidy
CELL 0.71073 4.701 4.701 7.5431 90 90 120
ZERR 1 0.0003 0.0003 0.0011 0 0 0
LATT 1
SYMM -Y,+X-Y,+Z
SYMM +Y-X,-X,+Z
SYMM +Y,+X,-Z
SYMM -Y+X,-Y,-Z
SYMM -X,-X+Y,-Z
SFAC Li La Bi
UNIT 3 1 2
EADP Li1 Li2
SIZE 0.055 0.041 0.038
L.S. 10
PLAN  20
TEMP -73
BOND
ACTA
FMAP -2
WGHT    0.007900    0.569800
EXTI    0.016071
FVAR       0.61601
LI1   1    0.333333    0.666667    0.646350    10.16667    0.02800
LI2   1    0.000000    0.000000    0.500000    10.08333    0.02800
LA1   2    0.000000    0.000000    0.000000    10.08333    0.00649    0.00649 =
         0.00619    0.00000    0.00000    0.00324
BI1   3    0.333333    0.666667    0.255746    10.16667    0.00683    0.00683 =
         0.00794    0.00000    0.00000    0.00342
HKLF 4
REM  LaLi3Bi2 in P-3m1 after absorption correction and tidy
REM R1 =  0.0125 for    197 Fo > 4sig(Fo)  and  0.0131 for all    202 data
REM      9 parameters refined using      0 restraints
END
WGHT      0.0079      0.5697
REM Highest difference peak  1.230,  deepest hole -1.208,  1-sigma level  0.210
Q1    1   0.0000  0.0000  0.7033  10.16667  0.05   -1.05
Q2    1   0.3333  0.6667  0.0113  10.16667  0.05    1.02
Q3    1   0.3333  0.6667  0.4480  10.16667  0.05   -1.00
Q4    1   0.3153  0.8314  0.3193  11.00000  0.05    0.81
Q5    1   0.3781  0.7562  0.1452  10.50000  0.05    0.76
Q6    1   0.3333  0.6667  0.5245  10.16667  0.05   -0.71
Q7    1   0.2443  0.2906  0.2852  11.00000  0.05    0.67
Q8    1   0.3333  0.6667  0.3529  10.16667  0.05    0.61
Q9    1   0.1792  0.3583  0.3479  10.50000  0.05   -0.59
Q10   1   0.1009  0.2018  0.0889  10.50000  0.05    0.58
Q11   1   0.1915  0.0020  0.6541  11.00000  0.05   -0.55
Q12   1   0.3829  0.9699  0.2980  11.00000  0.05   -0.53
Q13   1   0.2543  0.1272  0.5431  10.50000  0.05   -0.52
Q14   1   0.3079  1.0332  0.2008  11.00000  0.05   -0.52
Q15   1   0.0666  0.1332  0.2740  10.50000  0.05    0.51
Q16   1   0.2626  0.7374  0.4975  10.50000  0.05    0.50
Q17   1  -0.0974  0.0974  0.0378  10.50000  0.05    0.50
Q18   1   0.4470  0.8939  0.5531  10.50000  0.05    0.50
Q19   1   0.2500  0.8937  0.7209  11.00000  0.05   -0.49
Q20   1   0.0537  0.1073  0.1708  10.50000  0.05   -0.48
;
_cod_data_source_file            sk3600sup1.cif
_cod_data_source_block           LaLi3Bi2
_cod_database_code               2020120
loop_
_symmetry_equiv_pos_as_xyz
'x, y, z'
'-y, x-y, z'
'-x+y, -x, z'
'y, x, -z'
'x-y, -y, -z'
'-x, -x+y, -z'
'-x, -y, -z'
'y, -x+y, -z'
'x-y, x, -z'
'-y, -x, z'
'-x+y, y, z'
'x, x-y, z'
loop_
_atom_site_type_symbol
_atom_site_label
_atom_site_fract_x
_atom_site_fract_y
_atom_site_fract_z
_atom_site_U_iso_or_equiv
_atom_site_adp_type
_atom_site_calc_flag
_atom_site_refinement_flags
_atom_site_occupancy
_atom_site_symmetry_multiplicity
Li Li1 0.3333 0.6667 0.646(3) 0.028(3) Uiso d S 1 6
Li Li2 0.0000 0.0000 0.5000 0.028(3) Uiso d S 1 12
La La1 0.0000 0.0000 0.0000 0.00639(15) Uani d S 1 12
Bi Bi1 0.3333 0.6667 0.25575(4) 0.00720(13) Uani d S 1 6
loop_
_atom_site_aniso_label
_atom_site_aniso_U_11
_atom_site_aniso_U_22
_atom_site_aniso_U_33
_atom_site_aniso_U_12
_atom_site_aniso_U_13
_atom_site_aniso_U_23
La1 0.00649(19) 0.00649(19) 0.0062(3) 0.00324(10) 0.000 0.000
Bi1 0.00683(14) 0.00683(14) 0.00794(17) 0.00342(7) 0.000 0.000
loop_
_atom_type_symbol
_atom_type_description
_atom_type_scat_dispersion_real
_atom_type_scat_dispersion_imag
_atom_type_scat_source
Li Li -0.0003 0.0001 'International Tables Vol C Tables 4.2.6.8 and 6.1.1.4'
La La -0.2871 2.4523 'International Tables Vol C Tables 4.2.6.8 and 6.1.1.4'
Bi Bi -4.1077 10.2566 'International Tables Vol C Tables 4.2.6.8 and 6.1.1.4'
loop_
_geom_angle_atom_site_label_1
_geom_angle_atom_site_label_2
_geom_angle_atom_site_label_3
_geom_angle_site_symmetry_1
_geom_angle_site_symmetry_3
_geom_angle
Bi1 Li1 Bi1 7_666 7_676 113.4(4)
Bi1 Li1 Bi1 7_666 7_566 113.4(4)
Bi1 Li1 Bi1 7_676 7_566 113.4(4)
Bi1 Li1 Li2 7_666 1_565 173.1(8)
Bi1 Li1 Li2 7_676 1_565 69.64(4)
Bi1 Li1 Li2 7_566 1_565 69.64(4)
Bi1 Li1 Li2 7_666 . 69.64(4)
Bi1 Li1 Li2 7_676 . 173.1(8)
Bi1 Li1 Li2 7_566 . 69.64(4)
Li2 Li1 Li2 1_565 . 106.7(4)
Bi1 Li1 Li2 7_666 1_665 69.64(4)
Bi1 Li1 Li2 7_676 1_665 69.64(4)
Bi1 Li1 Li2 7_566 1_665 173.1(8)
Li2 Li1 Li2 1_565 1_665 106.7(4)
Li2 Li1 Li2 . 1_665 106.7(4)
Bi1 Li1 Bi1 7_666 . 105.2(4)
Bi1 Li1 Bi1 7_676 . 105.2(4)
Bi1 Li1 Bi1 7_566 . 105.2(4)
Li2 Li1 Bi1 1_565 . 67.9(4)
Li2 Li1 Bi1 . . 67.9(4)
Li2 Li1 Bi1 1_665 . 67.9(4)
Bi1 Li1 Li1 7_666 7_666 54.35(13)
Bi1 Li1 Li1 7_676 7_666 122.7(3)
Bi1 Li1 Li1 7_566 7_666 122.7(3)
Li2 Li1 Li1 1_565 7_666 118.7(10)
Li2 Li1 Li1 . 7_666 53.3(2)
Li2 Li1 Li1 1_665 7_666 53.3(2)
Bi1 Li1 Li1 . 7_666 50.9(6)
Bi1 Li1 Li1 7_666 7_566 122.7(3)
Bi1 Li1 Li1 7_676 7_566 122.7(3)
Bi1 Li1 Li1 7_566 7_566 54.35(13)
Li2 Li1 Li1 1_565 7_566 53.3(2)
Li2 Li1 Li1 . 7_566 53.3(2)
Li2 Li1 Li1 1_665 7_566 118.7(10)
Bi1 Li1 Li1 . 7_566 50.9(6)
Li1 Li1 Li1 7_666 7_566 84.4(8)
Bi1 Li1 Li1 7_666 7_676 122.7(3)
Bi1 Li1 Li1 7_676 7_676 54.35(13)
Bi1 Li1 Li1 7_566 7_676 122.7(3)
Li2 Li1 Li1 1_565 7_676 53.3(2)
Li2 Li1 Li1 . 7_676 118.7(10)
Li2 Li1 Li1 1_665 7_676 53.3(2)
Bi1 Li1 Li1 . 7_676 50.9(6)
Li1 Li1 Li1 7_666 7_676 84.4(8)
Li1 Li1 Li1 7_566 7_676 84.4(8)
Bi1 Li1 La1 7_666 1_666 58.1(3)
Bi1 Li1 La1 7_676 1_666 58.1(3)
Bi1 Li1 La1 7_566 1_666 120.3(7)
Li2 Li1 La1 1_565 1_666 126.5(3)
Li2 Li1 La1 . 1_666 126.5(3)
Li2 Li1 La1 1_665 1_666 66.64(16)
Bi1 Li1 La1 . 1_666 134.5(2)
Li1 Li1 La1 7_666 1_666 99.5(3)
Li1 Li1 La1 7_566 1_666 174.6(8)
Li1 Li1 La1 7_676 1_666 99.5(3)
Bi1 Li1 La1 7_666 1_566 120.3(7)
Bi1 Li1 La1 7_676 1_566 58.1(3)
Bi1 Li1 La1 7_566 1_566 58.1(3)
Li2 Li1 La1 1_565 1_566 66.64(16)
Li2 Li1 La1 . 1_566 126.5(3)
Li2 Li1 La1 1_665 1_566 126.5(3)
Bi1 Li1 La1 . 1_566 134.5(2)
Li1 Li1 La1 7_666 1_566 174.6(8)
Li1 Li1 La1 7_566 1_566 99.5(3)
Li1 Li1 La1 7_676 1_566 99.5(3)
La1 Li1 La1 1_666 1_566 76.3(4)
Li1 Li2 Li1 7_556 7_666 106.7(4)
Li1 Li2 Li1 7_556 1_445 73.3(4)
Li1 Li2 Li1 7_666 1_445 180.0000(10)
Li1 Li2 Li1 7_556 . 180.0000(10)
Li1 Li2 Li1 7_666 . 73.3(4)
Li1 Li2 Li1 1_445 . 106.7(4)
Li1 Li2 Li1 7_556 7_566 106.7(4)
Li1 Li2 Li1 7_666 7_566 106.7(4)
Li1 Li2 Li1 1_445 7_566 73.3(4)
Li1 Li2 Li1 . 7_566 73.3(4)
Li1 Li2 Li1 7_556 1_545 73.3(4)
Li1 Li2 Li1 7_666 1_545 73.3(4)
Li1 Li2 Li1 1_445 1_545 106.7(4)
Li1 Li2 Li1 . 1_545 106.7(4)
Li1 Li2 Li1 7_566 1_545 180.0(8)
Li1 Li2 Bi1 7_556 7_666 126.50(18)
Li1 Li2 Bi1 7_666 7_666 56.3(4)
Li1 Li2 Bi1 1_445 7_666 123.7(4)
Li1 Li2 Bi1 . 7_666 53.50(18)
Li1 Li2 Bi1 7_566 7_666 126.50(18)
Li1 Li2 Bi1 1_545 7_666 53.50(18)
Li1 Li2 Bi1 7_556 1_445 53.50(18)
Li1 Li2 Bi1 7_666 1_445 123.7(4)
Li1 Li2 Bi1 1_445 1_445 56.3(4)
Li1 Li2 Bi1 . 1_445 126.50(18)
Li1 Li2 Bi1 7_566 1_445 53.50(18)
Li1 Li2 Bi1 1_545 1_445 126.50(18)
Bi1 Li2 Bi1 7_666 1_445 180.0
Li1 Li2 Bi1 7_556 7_556 56.3(4)
Li1 Li2 Bi1 7_666 7_556 126.50(18)
Li1 Li2 Bi1 1_445 7_556 53.50(18)
Li1 Li2 Bi1 . 7_556 123.7(4)
Li1 Li2 Bi1 7_566 7_556 126.50(18)
Li1 Li2 Bi1 1_545 7_556 53.50(18)
Bi1 Li2 Bi1 7_666 7_556 91.537(9)
Bi1 Li2 Bi1 1_445 7_556 88.463(9)
Li1 Li2 Bi1 7_556 . 123.7(4)
Li1 Li2 Bi1 7_666 . 53.50(18)
Li1 Li2 Bi1 1_445 . 126.50(18)
Li1 Li2 Bi1 . . 56.3(4)
Li1 Li2 Bi1 7_566 . 53.50(18)
Li1 Li2 Bi1 1_545 . 126.50(18)
Bi1 Li2 Bi1 7_666 . 88.463(9)
Bi1 Li2 Bi1 1_445 . 91.537(8)
Bi1 Li2 Bi1 7_556 . 180.0
Li1 Li2 Bi1 7_556 7_566 126.50(18)
Li1 Li2 Bi1 7_666 7_566 126.50(18)
Li1 Li2 Bi1 1_445 7_566 53.50(18)
Li1 Li2 Bi1 . 7_566 53.50(18)
Li1 Li2 Bi1 7_566 7_566 56.3(4)
Li1 Li2 Bi1 1_545 7_566 123.7(4)
Bi1 Li2 Bi1 7_666 7_566 91.537(8)
Bi1 Li2 Bi1 1_445 7_566 88.463(8)
Bi1 Li2 Bi1 7_556 7_566 91.537(8)
Bi1 Li2 Bi1 . 7_566 88.463(8)
Li1 Li2 Bi1 7_556 1_545 53.50(18)
Li1 Li2 Bi1 7_666 1_545 53.50(18)
Li1 Li2 Bi1 1_445 1_545 126.50(18)
Li1 Li2 Bi1 . 1_545 126.50(18)
Li1 Li2 Bi1 7_566 1_545 123.7(4)
Li1 Li2 Bi1 1_545 1_545 56.3(4)
Bi1 Li2 Bi1 7_666 1_545 88.463(8)
Bi1 Li2 Bi1 1_445 1_545 91.537(8)
Bi1 Li2 Bi1 7_556 1_545 88.463(8)
Bi1 Li2 Bi1 . 1_545 91.537(8)
Bi1 Li2 Bi1 7_566 1_545 180.0
Bi1 La1 Bi1 7 7_665 89.803(9)
Bi1 La1 Bi1 7 1_445 90.197(8)
Bi1 La1 Bi1 7_665 1_445 180.0
Bi1 La1 Bi1 7 . 180.000(9)
Bi1 La1 Bi1 7_665 . 90.197(9)
Bi1 La1 Bi1 1_445 . 89.803(9)
Bi1 La1 Bi1 7 7_565 89.802(9)
Bi1 La1 Bi1 7_665 7_565 89.802(8)
Bi1 La1 Bi1 1_445 7_565 90.198(8)
Bi1 La1 Bi1 . 7_565 90.197(8)
Bi1 La1 Bi1 7 1_545 90.198(9)
Bi1 La1 Bi1 7_665 1_545 90.198(8)
Bi1 La1 Bi1 1_445 1_545 89.802(8)
Bi1 La1 Bi1 . 1_545 89.803(8)
Bi1 La1 Bi1 7_565 1_545 180.0
Bi1 La1 Li2 7 . 125.404(6)
Bi1 La1 Li2 7_665 . 125.404(6)
Bi1 La1 Li2 1_445 . 54.596(6)
Bi1 La1 Li2 . . 54.596(6)
Bi1 La1 Li2 7_565 . 125.404(6)
Bi1 La1 Li2 1_545 . 54.596(6)
Bi1 La1 Li2 7 1_554 54.596(6)
Bi1 La1 Li2 7_665 1_554 54.596(6)
Bi1 La1 Li2 1_445 1_554 125.404(6)
Bi1 La1 Li2 . 1_554 125.404(6)
Bi1 La1 Li2 7_565 1_554 54.596(6)
Bi1 La1 Li2 1_545 1_554 125.404(6)
Li2 La1 Li2 . 1_554 180.0
Bi1 La1 Li1 7 1_444 45.83(4)
Bi1 La1 Li1 7_665 1_444 100.1(2)
Bi1 La1 Li1 1_445 1_444 79.9(2)
Bi1 La1 Li1 . 1_444 134.17(4)
Bi1 La1 Li1 7_565 1_444 45.83(4)
Bi1 La1 Li1 1_545 1_444 134.17(4)
Li2 La1 Li1 . 1_444 134.5(2)
Li2 La1 Li1 1_554 1_444 45.5(2)
Bi1 La1 Li1 7 7_666 134.17(4)
Bi1 La1 Li1 7_665 7_666 79.9(2)
Bi1 La1 Li1 1_445 7_666 100.1(2)
Bi1 La1 Li1 . 7_666 45.83(4)
Bi1 La1 Li1 7_565 7_666 134.17(4)
Bi1 La1 Li1 1_545 7_666 45.83(4)
Li2 La1 Li1 . 7_666 45.5(2)
Li2 La1 Li1 1_554 7_666 134.5(2)
Li1 La1 Li1 1_444 7_666 180.0000(10)
Bi1 La1 Li1 7 1_554 100.1(2)
Bi1 La1 Li1 7_665 1_554 45.83(4)
Bi1 La1 Li1 1_445 1_554 134.17(4)
Bi1 La1 Li1 . 1_554 79.9(2)
Bi1 La1 Li1 7_565 1_554 45.83(4)
Bi1 La1 Li1 1_545 1_554 134.17(4)
Li2 La1 Li1 . 1_554 134.5(2)
Li2 La1 Li1 1_554 1_554 45.5(2)
Li1 La1 Li1 1_444 1_554 76.3(4)
Li1 La1 Li1 7_666 1_554 103.7(4)
Bi1 La1 Li1 7 7_556 79.9(2)
Bi1 La1 Li1 7_665 7_556 134.17(4)
Bi1 La1 Li1 1_445 7_556 45.83(4)
Bi1 La1 Li1 . 7_556 100.1(2)
Bi1 La1 Li1 7_565 7_556 134.17(4)
Bi1 La1 Li1 1_545 7_556 45.83(4)
Li2 La1 Li1 . 7_556 45.5(2)
Li2 La1 Li1 1_554 7_556 134.5(2)
Li1 La1 Li1 1_444 7_556 103.7(4)
Li1 La1 Li1 7_666 7_556 76.3(4)
Li1 La1 Li1 1_554 7_556 180.0
Li1 Bi1 Li1 7_666 7_676 113.4(4)
Li1 Bi1 Li1 7_666 7_566 113.4(4)
Li1 Bi1 Li1 7_676 7_566 113.4(4)
Li1 Bi1 Li1 7_666 . 74.8(4)
Li1 Bi1 Li1 7_676 . 74.8(4)
Li1 Bi1 Li1 7_566 . 74.8(4)
Li1 Bi1 Li2 7_666 1_565 130.6(4)
Li1 Bi1 Li2 7_676 1_565 56.9(2)
Li1 Bi1 Li2 7_566 1_565 56.9(2)
Li1 Bi1 Li2 . 1_565 55.830(6)
Li1 Bi1 Li2 7_666 1_665 56.9(2)
Li1 Bi1 Li2 7_676 1_665 56.9(2)
Li1 Bi1 Li2 7_566 1_665 130.6(4)
Li1 Bi1 Li2 . 1_665 55.830(7)
Li2 Bi1 Li2 1_565 1_665 91.537(8)
Li1 Bi1 Li2 7_666 . 56.9(2)
Li1 Bi1 Li2 7_676 . 130.6(4)
Li1 Bi1 Li2 7_566 . 56.9(2)
Li1 Bi1 Li2 . . 55.830(6)
Li2 Bi1 Li2 1_565 . 91.537(9)
Li2 Bi1 Li2 1_665 . 91.537(9)
Li1 Bi1 La1 7_666 1_565 159.8(4)
Li1 Bi1 La1 7_676 1_565 76.0(3)
Li1 Bi1 La1 7_566 1_565 76.0(3)
Li1 Bi1 La1 . 1_565 125.404(6)
Li2 Bi1 La1 1_565 1_565 69.574(9)
Li2 Bi1 La1 1_665 1_565 131.497(3)
Li2 Bi1 La1 . 1_565 131.497(3)
Li1 Bi1 La1 7_666 . 76.0(3)
Li1 Bi1 La1 7_676 . 159.8(4)
Li1 Bi1 La1 7_566 . 76.0(3)
Li1 Bi1 La1 . . 125.404(6)
Li2 Bi1 La1 1_565 . 131.497(3)
Li2 Bi1 La1 1_665 . 131.497(2)
Li2 Bi1 La1 . . 69.574(9)
La1 Bi1 La1 1_565 . 89.802(8)
Li1 Bi1 La1 7_666 1_665 76.0(3)
Li1 Bi1 La1 7_676 1_665 76.0(3)
Li1 Bi1 La1 7_566 1_665 159.8(4)
Li1 Bi1 La1 . 1_665 125.404(6)
Li2 Bi1 La1 1_565 1_665 131.497(3)
Li2 Bi1 La1 1_665 1_665 69.574(9)
Li2 Bi1 La1 . 1_665 131.497(3)
La1 Bi1 La1 1_565 1_665 89.802(9)
La1 Bi1 La1 . 1_665 89.802(9)
loop_
_geom_bond_atom_site_label_1
_geom_bond_atom_site_label_2
_geom_bond_site_symmetry_2
_geom_bond_distance
Li1 Bi1 7_666 2.813(6)
Li1 Bi1 7_676 2.813(6)
Li1 Bi1 7_566 2.813(6)
Li1 Li2 1_565 2.930(8)
Li1 Li2 . 2.930(8)
Li1 Li2 1_665 2.930(8)
Li1 Bi1 . 2.95(2)
Li1 Li1 7_666 3.50(3)
Li1 Li1 7_566 3.50(3)
Li1 Li1 7_676 3.50(3)
Li1 La1 1_666 3.806(15)
Li1 La1 1_566 3.806(15)
Li2 Li1 7_556 2.930(8)
Li2 Li1 7_666 2.930(8)
Li2 Li1 1_445 2.930(8)
Li2 Li1 7_566 2.930(8)
Li2 Li1 1_545 2.930(8)
Li2 Bi1 7_666 3.2804(3)
Li2 Bi1 1_445 3.2804(3)
Li2 Bi1 7_556 3.2804(3)
Li2 Bi1 . 3.2804(3)
Li2 Bi1 7_566 3.2804(3)
Li2 Bi1 1_545 3.2804(3)
La1 Bi1 7 3.3298(3)
La1 Bi1 7_665 3.3298(3)
La1 Bi1 1_445 3.3298(3)
La1 Bi1 . 3.3299(3)
La1 Bi1 7_565 3.3299(3)
La1 Bi1 1_545 3.3299(3)
La1 Li2 1_554 3.7715(5)
La1 Li1 1_444 3.806(15)
La1 Li1 7_666 3.806(15)
La1 Li1 1_554 3.806(15)
La1 Li1 7_556 3.806(15)
Bi1 Li1 7_666 2.813(6)
Bi1 Li1 7_676 2.813(6)
Bi1 Li1 7_566 2.813(6)
Bi1 Li2 1_565 3.2804(3)
Bi1 Li2 1_665 3.2804(3)
Bi1 La1 1_565 3.3299(3)
Bi1 La1 1_665 3.3299(3)

_cod_database_fobs_code 2020120
