#------------------------------------------------------------------------------
#$Date: 2016-02-13 21:28:24 +0200 (Sat, 13 Feb 2016) $
#$Revision: 176429 $
#$URL: svn://www.crystallography.net/cod/cif/2/02/00/2020009.cif $
#------------------------------------------------------------------------------
#
# This file is available in the Crystallography Open Database (COD),
# http://www.crystallography.net/. The original data for this entry
# were provided by IUCr Journals, http://journals.iucr.org/.
#
# The file may be used within the scientific community so long as
# proper attribution is given to the journal article from which the
# data were obtained.
#
data_2020009
loop_
_publ_author_name
'Havl\'ak, Lubom\'ir'
'F\'abry, Jan'
'Henriques, Margarida'
'Du\<sek, Michal'
_publ_section_title
;
 Structure determination of KScS~2~, RbScS~2~ and KLnS~2~ (Ln = Nd, Sm,
 Tb, Dy, Ho, Er, Tm and Yb) and crystal--chemical discussion
;
_journal_coeditor_code           FA3364
_journal_issue                   7
_journal_name_full               'Acta Crystallographica Section C'
_journal_page_first              623
_journal_page_last               630
_journal_paper_doi               10.1107/S2053229615011833
_journal_volume                  71
_journal_year                    2015
_chemical_formula_iupac          'K1 Nd1 S2'
_chemical_formula_moiety         'K1 Nd1 S2'
_chemical_formula_sum            'K Nd S2'
_chemical_formula_weight         247.5
_chemical_name_systematic
;
Potassium neodymium sufide
;
_space_group_IT_number           166
_symmetry_cell_setting           trigonal
_symmetry_space_group_name_Hall  '-R 3 2"'
_symmetry_space_group_name_H-M   'R -3 m :H'
_cell_angle_alpha                90.000(6)
_cell_angle_beta                 90.000(6)
_cell_angle_gamma                120.000(7)
_cell_formula_units_Z            3
_cell_length_a                   4.1626(3)
_cell_length_b                   4.1626(3)
_cell_length_c                   21.8996(19)
_cell_measurement_reflns_used    1587
_cell_measurement_temperature    301.2(4)
_cell_measurement_theta_max      29.4080
_cell_measurement_theta_min      5.6000
_cell_volume                     328.62(5)
_computing_cell_refinement
;
<i>CrysAlis PRO</i> (Agilent, 2014)
;
_computing_data_collection
;
<i>CrysAlis PRO</i> (Agilent, 2014)
;
_computing_data_reduction
;
<i>CrysAlis PRO</i> (Agilent, 2014)
;
_computing_publication_material
;
<i>JANA2006</i> (Pet\<r\'i\<cek <i>et al.</i>, 2014)
;
_computing_structure_refinement
;
<i>JANA2006</i> (Pet\<r\'i\<cek <i>et al.</i>, 2014)
;
_computing_structure_solution
;
SUPERFLIP (Palatinus & Chapuis, 2007)
;
_diffrn_ambient_temperature      301.2
_diffrn_detector_area_resol_mean 5.1873
_diffrn_measured_fraction_theta_full 0.98
_diffrn_measured_fraction_theta_max 0.97
_diffrn_measurement_device       'four-circle diffractometer'
_diffrn_measurement_device_type
'Xcalibur Gemini Ultra diffractometer with Atlas detector'
_diffrn_measurement_method       w/2q
_diffrn_radiation_monochromator  graphite
_diffrn_radiation_source         'X-ray tube'
_diffrn_radiation_type           'Mo K\a'
_diffrn_radiation_wavelength     0.71073
_diffrn_reflns_av_R_equivalents  0.0362
_diffrn_reflns_limit_h_max       5
_diffrn_reflns_limit_h_min       -5
_diffrn_reflns_limit_k_max       5
_diffrn_reflns_limit_k_min       -5
_diffrn_reflns_limit_l_max       27
_diffrn_reflns_limit_l_min       -29
_diffrn_reflns_number            1538
_diffrn_reflns_theta_full        29.13
_diffrn_reflns_theta_max         29.47
_diffrn_reflns_theta_min         5.59
_diffrn_standards_number         0
_exptl_absorpt_coefficient_mu    13.524
_exptl_absorpt_correction_T_max  0.5444
_exptl_absorpt_correction_T_min  0.2577
_exptl_absorpt_correction_type   gaussian
_exptl_absorpt_process_details
;
<i>JANA2006</i> (Pet\<r\'i\<cek <i>et al.</i>, 2014)
;
_exptl_crystal_colour            blue
_exptl_crystal_density_diffrn    3.75
_exptl_crystal_description       plate
_exptl_crystal_F_000             333
_exptl_crystal_size_max          0.1432
_exptl_crystal_size_mid          0.1269
_exptl_crystal_size_min          0.0469
_refine_diff_density_max         0.17
_refine_diff_density_min         -0.09
_refine_ls_extinction_coef       16E1(4)
_refine_ls_extinction_method
;
B-C type 1 Lorentzian isotropic
[Becker, P. J. & Coppens, P. (1974). <i>Acta Cryst.</i> A<b>30</b>, 129--147]
;
_refine_ls_goodness_of_fit_ref   0.60
_refine_ls_number_constraints    0
_refine_ls_number_parameters     9
_refine_ls_number_reflns         140
_refine_ls_number_restraints     0
_refine_ls_R_factor_all          0.0096
_refine_ls_R_factor_gt           0.0096
_refine_ls_shift/su_max          0.0017
_refine_ls_shift/su_mean         0.0007
_refine_ls_structure_factor_coef Fsqd
_refine_ls_weighting_details     'w = 1/[\s^2^(F) + 0.0001F^2^]'
_refine_ls_weighting_scheme      sigma
_refine_ls_wR_factor_gt          0.0098
_refine_ls_wR_factor_ref         0.0098
_reflns_number_gt                140
_reflns_number_total             140
_reflns_threshold_expression     I>3\s(I)
_iucr_refine_instructions_details
;
    3    0    0    1
 1.613884 0.000000 0.000000 0.000000 0.000000 0.000000      100000
 0.000000 0.000000                                          00
 0.000000 0.000000 0.000000 0.000000 0.000000 0.000000      000000
 0.015643 0.000000 0.000000 0.000000 0.000000 0.000000      100000
K         1  2     0.083333 0.000000 0.000000 0.000000
 0.016010 0.016010 0.013051 0.008005 0.000000 0.000000      0000101000
Nd        2  2     0.083333 0.333333 0.666667 0.166667
 0.006384 0.006384 0.010454 0.003192 0.000000 0.000000      0000101000
S         3  2     0.166667 0.000000 0.000000 0.235945
 0.008186 0.008186 0.010106 0.004093 0.000000 0.000000      0001101000
----------------------------   s.u. block   ----------------------------
 0.004036 0.000000 0.000000 0.000000 0.000000 0.000000
 0.000000 0.000000
 0.000000 0.000000 0.000000 0.000000 0.000000 0.000000
 0.003519 0.000000 0.000000 0.000000 0.000000 0.000000
K                  0.000000 0.000000 0.000000 0.000000
 0.000337 0.000337 0.000537 0.000169 0.000000 0.000000
Nd                 0.000000 0.000000 0.000000 0.000000
 0.000127 0.000127 0.000161 0.000064 0.000000 0.000000
S                  0.000000 0.000000 0.000000 0.000042
 0.000249 0.000249 0.000388 0.000125 0.000000 0.000000
--------------------------   Saved points   ----------------------------
    0
--------------------------   Fourier maxima   --------------------------
    1    1    1
max1      1  1     1.000000 0.023664 0.256482 0.757428      000  0  0  0
     0.06     0.02
max2      1  1     1.000000 0.074070 0.535714 0.520718      000  0  0  0
     0.07     0.02
max3      1  1     1.000000 0.027510 0.405240 0.785544      000  0  0  0
     0.06     0.02
max4      1  1     1.000000 0.071182 0.535714 0.452429      000  0  0  0
     0.06     0.02
max5      1  1     1.000000 0.074674 0.535714 0.666665      000  0  0  0
     0.09     0.02
max6      1  1     1.000000 0.073732 0.535714 0.876935      000  0  0  0
     0.09     0.02
max7      1  1     1.000000 0.047901 0.309209 0.546506      000  0  0  0
     0.06     0.02
max8      1  1     1.000000 0.075866 0.535714 0.309004      000  0  0  0
     0.09     0.02
max9      1  1     1.000000 0.025190 0.263600 0.118124      000  0  0  0
     0.06     0.02
max10     1  1     1.000000 0.018474 0.268255 0.544034      000  0  0  0
     0.06     0.02
--------------------------   Fourier minima   --------------------------
    1    1    1
min1      1  1     1.000000 0.071429 0.136836 0.062513      000  0  0  0
     0.07     0.02
min2      1  1     1.000000 0.056729 0.523810 0.270960      000  0  0  0
     0.08     0.02
min3      1  1     1.000000 0.071429 0.142090 0.141199      000  0  0  0
     0.07     0.02
min4      1  1     1.000000 0.071429 0.134166 0.485977      000  0  0  0
     0.07     0.02
min5      1  1     1.000000 0.000393 0.380431 0.179264      000  0  0  0
     0.09     0.02
min6      1  1     1.000000 0.071429 0.140544 0.705677      000  0  0  0
     0.07     0.02
min7      1  1     1.000000-0.002238 0.381126 0.392820      000  0  0  0
     0.09     0.02
min8      1  1     1.000000 0.071429 0.132504 0.273202      000  0  0  0
     0.08     0.02
min9      1  1     1.000000 0.057250 0.523810 0.058457      000  0  0  0
     0.09     0.02
min10     1  1     1.000000 0.006490 0.383399 0.315926      000  0  0  0
     0.05     0.01
------------------------------------------------------------------------
------------------------------------------------------------------------
------------------------------------------------------------------------
Version Jana2006
title
cell 4.1626 4.1626 21.8996 90 90 120
esdcell 0.0003 0.0003 0.0019 0.006 0.006 0.007
spgroup R-3m 166 5
lattice R
symmetry x y z
symmetry -y x-y z
symmetry -x+y -x z
symmetry y x -z
symmetry x-y -y -z
symmetry -x -x+y -z
symmetry -x -y -z
symmetry y -x+y -z
symmetry x-y x -z
symmetry -y -x z
symmetry -x+y y z
symmetry x x-y z
unitsnumb 3
chemform K Nd S2
formtab -62
atom K atradius 2.35 color 161033246
atom Nd atradius 1.82 color 251141006
atom S atradius 1.04 color 255250000
roundmethod 1
end
*******************************************************************************
contour
end contour
dist
  angles 1 lsttype 1 dmax 4
  bondval K S 2.59 0.37
  bondval Nd S 2.59 0.37
end dist
fourier
  maptype 6
end fourier
refine
  iext 1 itypex 1 idistr 2 radius 0.01
end refine
;
_cod_data_source_file            fa3364sup1.cif
_cod_data_source_block           III
_cod_original_sg_symbol_H-M      'R -3 m'
_cod_original_formula_sum        'K1 Nd1 S2'
_cod_database_code               2020009
_cod_database_fobs_code          2020009
loop_
_symmetry_equiv_pos_site_id
_symmetry_equiv_pos_as_xyz
1 x,y,z
2 -y,x-y,z
3 -x+y,-x,z
4 y,x,-z
5 x-y,-y,-z
6 -x,-x+y,-z
7 -x,-y,-z
8 y,-x+y,-z
9 x-y,x,-z
10 -y,-x,z
11 -x+y,y,z
12 x,x-y,z
13 x+2/3,y+1/3,z+1/3
14 -y+2/3,x-y+1/3,z+1/3
15 -x+y+2/3,-x+1/3,z+1/3
16 y+2/3,x+1/3,-z+1/3
17 x-y+2/3,-y+1/3,-z+1/3
18 -x+2/3,-x+y+1/3,-z+1/3
19 -x+2/3,-y+1/3,-z+1/3
20 y+2/3,-x+y+1/3,-z+1/3
21 x-y+2/3,x+1/3,-z+1/3
22 -y+2/3,-x+1/3,z+1/3
23 -x+y+2/3,y+1/3,z+1/3
24 x+2/3,x-y+1/3,z+1/3
25 x+1/3,y+2/3,z+2/3
26 -y+1/3,x-y+2/3,z+2/3
27 -x+y+1/3,-x+2/3,z+2/3
28 y+1/3,x+2/3,-z+2/3
29 x-y+1/3,-y+2/3,-z+2/3
30 -x+1/3,-x+y+2/3,-z+2/3
31 -x+1/3,-y+2/3,-z+2/3
32 y+1/3,-x+y+2/3,-z+2/3
33 x-y+1/3,x+2/3,-z+2/3
34 -y+1/3,-x+2/3,z+2/3
35 -x+y+1/3,y+2/3,z+2/3
36 x+1/3,x-y+2/3,z+2/3
loop_
_atom_site_type_symbol
_atom_site_label
_atom_site_fract_x
_atom_site_fract_y
_atom_site_fract_z
_atom_site_U_iso_or_equiv
_atom_site_adp_type
_atom_site_calc_flag
_atom_site_occupancy
_atom_site_symmetry_multiplicity
K K 0 0 0 0.0150(3) Uani d 1 3
Nd Nd 0.333333 0.666667 0.166667 0.00774(10) Uani d 1 3
S S 0 0 0.23595(4) 0.0088(2) Uani d 1 6
loop_
_atom_site_aniso_label
_atom_site_aniso_U_11
_atom_site_aniso_U_22
_atom_site_aniso_U_33
_atom_site_aniso_U_12
_atom_site_aniso_U_13
_atom_site_aniso_U_23
_atom_site_aniso_type_symbol
K 0.0160(3) 0.0160(3) 0.0131(5) 0.00800(17) 0 0 K
Nd 0.00639(13) 0.00639(13) 0.01047(16) 0.00320(6) 0 0 Nd
S 0.0082(2) 0.0082(2) 0.0101(4) 0.00409(13) 0 0 S
loop_
_atom_type_symbol
_atom_type_scat_dispersion_real
_atom_type_scat_dispersion_imag
_atom_type_scat_source
K 0.201 0.249 'International Tables Vol C tables 4.2.6.8 and 6.1.1.1'
Nd -0.194 3.018 'International Tables Vol C tables 4.2.6.8 and 6.1.1.1'
S 0.125 0.123 'International Tables Vol C tables 4.2.6.8 and 6.1.1.1'
loop_
_exptl_crystal_face_index_h
_exptl_crystal_face_index_k
_exptl_crystal_face_index_l
_exptl_crystal_face_perp_dist
0 0 -31 0.0235
0 0 31 0.0235
-5 -1 1 0.0631
3 -6 -5 0.0609
5 -1 -2 0.0534
0 5 3 0.0545
-5 5 5 0.0617
loop_
_geom_angle_atom_site_label_1
_geom_angle_atom_site_label_2
_geom_angle_atom_site_label_3
_geom_angle_site_symmetry_1
_geom_angle_site_symmetry_3
_geom_angle
_geom_angle_publ_flag
S K S 25_444 25_544 80.743(14) no
S K S 25_444 25_554 80.743(16) no
S K S 25_444 16_445 99.257(16) no
S K S 25_444 16_455 99.257(14) no
S K S 25_444 16_555 180 no
S K S 25_544 25_554 80.743(14) no
S K S 25_544 16_445 99.257(14) no
S K S 25_544 16_455 180 no
S K S 25_544 16_555 99.257(14) no
S K S 25_554 16_445 180 no
S K S 25_554 16_455 99.257(14) no
S K S 25_554 16_555 99.257(16) no
S K S 16_445 16_455 80.743(14) no
S K S 16_445 16_555 80.743(16) no
S K S 16_455 16_555 80.743(14) no
S Nd S . 1_565 94.161(16) no
S Nd S . 1_665 94.161(17) no
S Nd S . 16_455 85.839(17) no
S Nd S . 16_555 85.839(16) no
S Nd S . 16_565 180 no
S Nd S 1_565 1_665 94.161(16) no
S Nd S 1_565 16_455 85.839(16) no
S Nd S 1_565 16_555 180 no
S Nd S 1_565 16_565 85.839(16) no
S Nd S 1_665 16_455 180 no
S Nd S 1_665 16_555 85.839(16) no
S Nd S 1_665 16_565 85.839(17) no
S Nd S 16_455 16_555 94.161(16) no
S Nd S 16_455 16_565 94.161(17) no
S Nd S 16_555 16_565 94.161(16) no
K S K 13_445 13_455 80.743(19) no
K S K 13_445 13_555 80.74(2) no
K S K 13_455 13_555 80.743(19) no
K S Nd 13_455 1_445 92.183(7) no
K S Nd 13_455 1_545 170.68(3) no
K S Nd 13_455 . 92.183(7) no
Nd S Nd 1_445 1_545 94.16(2) no
Nd S Nd 1_445 . 94.16(2) no
Nd S Nd 1_545 . 94.16(2) no
loop_
_geom_bond_atom_site_label_1
_geom_bond_atom_site_label_2
_geom_bond_site_symmetry_2
_geom_bond_distance
_geom_bond_publ_flag
K S 25_444 3.2132(8) no
K S 25_544 3.2132(7) no
K S 25_554 3.2132(8) no
K S 16_445 3.2132(8) no
K S 16_455 3.2132(7) no
K S 16_555 3.2132(8) no
Nd S . 2.8421(7) no
Nd S 1_565 2.8421(5) no
Nd S 1_665 2.8421(7) no
Nd S 16_455 2.8421(7) no
Nd S 16_555 2.8421(5) no
Nd S 16_565 2.8421(7) no
S S 16_445 3.8708(12) no
S S 16_455 3.8708(11) no
S S 16_555 3.8708(12) no
