#------------------------------------------------------------------------------
#$Date: 2017-07-25 12:07:25 +0300 (Tue, 25 Jul 2017) $
#$Revision: 199092 $
#$URL: file:///home/coder/svn-repositories/cod/cif/2/02/08/2020805.cif $
#------------------------------------------------------------------------------
#
# This file is available in the Crystallography Open Database (COD),
# http://www.crystallography.net/. The original data for this entry
# were provided by IUCr Journals, http://journals.iucr.org/.
#
# The file may be used within the scientific community so long as
# proper attribution is given to the journal article from which the
# data were obtained.
#
data_2020805
loop_
_publ_author_name
'Kamburov, Stoyan'
'Schmidt, Horst'
'Voigt, Wolfgang'
'Balarew, Christo'
_publ_section_title
;
 Crystal structures of sodium magnesium selenate decahydrate,
 Na~2~Mg(SeO~4~)~2~&#x00B7;10H~2~O, a new selenate salt, and sodium
 magnesium selenate dihydrate, Na~2~Mg(SeO~4~)~2~&#x00B7;2H~2~O
;
_journal_coeditor_code           KU3198
_journal_issue                   7
_journal_name_full               'Acta Crystallographica Section C'
_journal_page_first              582
_journal_page_last               587
_journal_paper_doi               10.1107/S2053229617009330
_journal_volume                  73
_journal_year                    2017
_chemical_formula_iupac          'Na2 Mg (Se O4)2, 2H2 O'
_chemical_formula_moiety         'Mg Na2 O8 Se2, 2(H2 O)'
_chemical_formula_sum            'H4 Mg Na2 O10 Se2'
_chemical_formula_weight         392.24
_chemical_name_systematic        'Disodium  magnesium bis(selenate) dihydrate'
_space_group_crystal_system      triclinic
_space_group_IT_number           2
_space_group_name_Hall           '-P 1'
_space_group_name_H-M_alt        'P -1'
_symmetry_space_group_name_Hall  '-P 1'
_symmetry_space_group_name_H-M   'P -1'
_atom_sites_solution_hydrogens   difmap
_audit_creation_method           SHELXL-2014/7
_cell_angle_alpha                108.36(6)
_cell_angle_beta                 99.07(5)
_cell_angle_gamma                106.63(6)
_cell_formula_units_Z            1
_cell_length_a                   5.556(4)
_cell_length_b                   5.923(4)
_cell_length_c                   7.224(5)
_cell_measurement_reflns_used    3582
_cell_measurement_temperature    200(2)
_cell_measurement_theta_max      29.58
_cell_measurement_theta_min      2.97
_cell_volume                     208.0(3)
_computing_cell_refinement
;
X-AREA (Stoe & Cie, 2002)
;
_computing_data_collection
;
X-AREA (Stoe & Cie, 2002)
;
_computing_data_reduction
;
X-RED (Stoe & Cie, 2002)
;
_computing_molecular_graphics
;
DIAMOND (Brandenburg, 2012)
;
_computing_publication_material
;
publCIF (Westrip, 2010)
;
_computing_structure_refinement
;
SHELXL2014 (Sheldrick, 2015)
;
_computing_structure_solution
;
SHELXS2014 (Sheldrick, 2008)
;
_diffrn_ambient_temperature      200
_diffrn_detector_area_resol_mean 6.67
_diffrn_measured_fraction_theta_full 0.993
_diffrn_measured_fraction_theta_max 0.994
_diffrn_measurement_device       '2-circle goniometer'
_diffrn_measurement_device_type  'Stoe IPDS 2T'
_diffrn_measurement_method       'rotation method'
_diffrn_radiation_monochromator  'plane graphite'
_diffrn_radiation_type           'Mo K\a'
_diffrn_radiation_wavelength     0.71073
_diffrn_reflns_av_R_equivalents  0.0617
_diffrn_reflns_limit_h_max       6
_diffrn_reflns_limit_h_min       -6
_diffrn_reflns_limit_k_max       7
_diffrn_reflns_limit_k_min       -7
_diffrn_reflns_limit_l_max       9
_diffrn_reflns_limit_l_min       -5
_diffrn_reflns_number            3328
_diffrn_reflns_theta_full        25.242
_diffrn_reflns_theta_max         26.495
_diffrn_reflns_theta_min         3.883
_exptl_absorpt_coefficient_mu    9.12
_exptl_absorpt_correction_T_max  0.5842
_exptl_absorpt_correction_T_min  0.3984
_exptl_absorpt_correction_type   integration
_exptl_absorpt_process_details
;
(Coppens & Hamilton, 1970)
;
_exptl_crystal_colour            colourless
_exptl_crystal_density_diffrn    3.102
_exptl_crystal_description       prism
_exptl_crystal_F_000             186
_exptl_crystal_size_max          0.20
_exptl_crystal_size_mid          0.10
_exptl_crystal_size_min          0.05
_refine_diff_density_max         0.922
_refine_diff_density_min         -0.743
_refine_ls_extinction_method     none
_refine_ls_goodness_of_fit_ref   1.269
_refine_ls_hydrogen_treatment    refall
_refine_ls_matrix_type           full
_refine_ls_number_parameters     79
_refine_ls_number_reflns         864
_refine_ls_number_restraints     0
_refine_ls_restrained_S_all      1.269
_refine_ls_R_factor_all          0.0390
_refine_ls_R_factor_gt           0.0321
_refine_ls_shift/su_max          0.000
_refine_ls_shift/su_mean         0.000
_refine_ls_structure_factor_coef Fsqd
_refine_ls_weighting_details
'w=1/[\s^2^(Fo^2^)+(0.0149P)^2^+1.4640P] where P=(Fo^2^+2Fc^2^)/3'
_refine_ls_weighting_scheme      calc
_refine_ls_wR_factor_gt          0.0806
_refine_ls_wR_factor_ref         0.0844
_reflns_number_gt                782
_reflns_number_total             864
_reflns_threshold_expression     'I > 2\s(I)'
_cod_data_source_file            ku3198sup1.cif
_cod_data_source_block           Mg_SeO4_Na2_SeO4_2H2O
_cod_database_code               2020805
_shelx_space_group_comment
;
The symmetry employed for this shelxl refinement is uniquely defined
by the following loop, which should always be used as a source of
symmetry information in preference to the above space-group names.
They are only intended as comments.
;
_shelx_hkl_file
;
   1   0   0  747990   17940   1
   2   0   0  478220   11870   1
   3   0   0 5773860   51160   1
   4   0   0 1067100   21990   1
   5   0   0  221330    7380   1
   6   0   0  724180   18850   1
  -6   1   0  209440   14370   1
  -5   1   0 2321990   20890   1
  -4   1   0  543510    8130   1
  -3   1   0  665460   16200   1
  -2   1   0 5460460   16630   1
  -1   1   0  556370   12180   1
   0  -1   1  753500  147400  -2
   0   1   0  753500  147400   1
   1   1   0 7981560   87020   1
   2   1   0   34950   10830   1
  -3  -1   3  111810   18610  -2
   3   1   0  111810   18610   1
   4   1   0 2126170   26160   1
   5   1   0  296900    8360   1
   6   1   0   27910    6370   1
  -6   2   0  131470    6750   1
  -5   2   0  378060    7760   1
  -4   2   0 2954350   22410   1
  -3   2   0  341710    7360   1
  -2   2   0   15630    8160   1
  -1   2   0 5694880  193480   1
   0   2   0 2047680   58910   1
   1   2   0  105070   12040   1
   2   2   0 2494010   37280   1
  -3  -2   4  845570   18580  -2
   3   2   0  845570   18580   1
   4   2   0   29140    8640   1
   5   2   0  771340    9210   1
  -6   3   0  424010    6760   1
  -5   3   0  469110    8930   1
   4  -3   0  125960    6100  -2
  -4   3   0  125960    6100   1
  -3   3   0 1377330   20800   1
  -2   3   0  397080   12840   1
  -1   3   0    -860   12580   1
   0   3   0 4443570   98680   1
   1   3   0  127240   10930   1
   2   3   0   78790   10130   1
  -3  -3   5 1776030   72560  -2
   3   3   0 1776030   72560   1
   4   3   0  163140   16220   1
  -6   4   0   98580    6210   1
  -5   4   0 1355770   33500   1
   4  -4   1  708350   13970  -2
  -4   4   0  708350   13970   1
  -3   4   0  397040   11350   1
  -2   4   0 1876040   22590   1
  -1   4   0  583130   30710   1
   0   4   0  104980    7000   1
   1   4   0 1711420   49830   1
   2   4   0   18320    7190   1
  -3  -4   6   17330   14140  -2
   3   4   0   17330   14140   1
  -6   5   0   26040    8480   1
  -5   5   0  210890    6060   1
   4  -5   2 1022280   48090  -2
  -4   5   0 1022280   48090   1
  -3   5   0   25680    5520   1
  -2   5   0  204080    5520   1
   1  -5   4 1281710   46070  -2
  -1   5   0 1281710   46070   1
   0   5   0  188720    9690   1
   1   5   0   65330    6340   1
   2   5   0  732120   35330   1
  -5   6   0  182200   19150   1
   4  -6   3   76300    5270  -2
  -4   6   0   76300    5270   1
  -3   6   0  581720   13630   1
  -2   6   0  294420   15250   1
   1  -6   5   14330    7370  -2
  -1   6   0   14330    7370   1
   0   6   0  778150   61940   1
   1   6   0  119580   10680   1
  -3   7   0  117980    6000   1
  -2   7   0  294970  135500   1
  -1   7  -5  235650  105590  -2
   1  -7   1  235650  105590   1
   2  -7   1   12980    6510   1
   3  -7   1  277880   14710   1
   4  -7   1  236800   49780   1
  -1  -6   1  296700    7080   1
   0  -6   1    -990    6750   1
  -1   6  -4  794340   47230  -2
   1  -6   1  794340   47230   1
   2  -6   1  489230   25680   1
   3  -6   1  143360    4970   1
  -4   6  -2  396690   15500  -2
   4  -6   1  396690   15500   1
   5  -6   1  468800   21770   1
  -3  -5   1  173230   46810   1
  -2  -5   1   46910    5640   1
  -1  -5   1  205220   14270   1
   0  -5   1 1017110   41880   1
  -1   5  -3  146830   15230  -2
   1  -5   1  146830   15230   1
   2  -5   1  365170    9070   1
   3  -5   1  810370   24890   1
  -4   5  -1  478130   19430  -2
   4  -5   1  478130   19430   1
   5  -5   1  627100   27680   1
   6  -5   1  356420   26890   1
  -4  -4   1   19840    6480   1
   3   4  -5  778770   44650  -2
  -3  -4   1  778770   44650   1
  -2  -4   1  764310    8450   1
  -1  -4   1  405220   12050   1
   0  -4   1 1062690   11120   1
   1  -4   1 2821540   85430   1
   2  -4   1  333240    7450   1
   3  -4   1  331080   18840   1
  -4   4   0 1351860   31390  -2
   4  -4   1 1351860   31390   1
   5  -4   1  307290    7930   1
   6  -4   1  236060   10310   1
  -5  -3   1  314090    8680   1
  -4  -3   1  390640    8540   1
   3   3  -4  489390   24070  -2
  -3  -3   1  489390   24070   1
  -2  -3   1  447270   10880   1
  -1  -3   1  496100   12570   1
   0  -3   1   82290   22830   1
   1  -3   1  607040    8470   1
   2  -3   1  231470    6840   1
   3  -3   1   85670    6910   1
  -4   3   1  347240    6250  -2
   4  -3   1  347240    6250   1
   5  -3   1  435740   12850   1
   6  -3   1  108580    5960   1
  -5  -2   1   22400    7650   1
  -4  -2   1 1018700   27230   1
   3   2  -3  481260   14670  -2
  -3  -2   1  481260   14670   1
  -2  -2   1  144370   10120   1
  -1  -2   1  117110    8920   1
   0   2  -1 1539170   40460  -2
   0  -2   1 1539170   40460   1
   1  -2   1  220410    9540   1
   2  -2   1   12920    6870   1
   3  -2   1  551520    8890   1
   4  -2   1  568270   61870   1
   5  -2   1  283940    9270   1
   6  -2   1  211930    8850   1
  -6  -1   1  185940   10870   1
  -5  -1   1   44280    7390   1
  -4  -1   1   88740    9460   1
   3   1  -2 1201430   21380  -2
  -3  -1   1 1201430   21380   1
  -2  -1   1   38660   12610   1
  -1  -1   1  205960   12390   1
   0   1   0 2455650  100870  -2
   0  -1   1 2455650  100870   1
   1  -1   1 2302370   17860   1
   2  -1   1  281890   10150   1
   3  -1   1  948270   26270   1
   4  -1   1 1303530   12100   1
   5  -1   1   14940    7720   1
   6  -1   1  564370   11190   1
  -6   0   1   -3450   13490   1
  -5   0   1 1150670   12100   1
  -4   0   1  719350   25370   1
  -3   0   1   33530   16220   1
  -2   0   1 3450180   17050   1
  -1   0   1 1381170   16460   1
   1   0   1 3504390   40220   1
   2   0   1  378820   11880   1
   3   0   1   -1950    9220   1
   4   0   1  388250    7400   1
   5   0   1  379440   20670   1
   6   0   1   -3130    6040   1
  -6   1   1   56720    9930   1
  -5   1   1    2320    7300   1
  -4   1   1 2726000   30000   1
  -3   1   1   38950    8620   1
  -2   1   1  181450    9840   1
  -1   1   1 3456080  110800   1
   0   1   1 2378060   86850   1
   1   1   1   17580   11970   1
   2   1   1 1097000   13170   1
   3   1   1  965260   38210   1
   4   1   1  227600   21310   1
   5   1   1  269490   12230   1
  -6   2   1  595950    8820   1
  -5   2   1  295200    7340   1
  -4   2   1  585570   75000   1
  -3   2   1 1630050   14600   1
  -2   2   1   43970    7470   1
  -1   2   1 1720370   78350   1
   0   2   1  839040   40610   1
   1   2   1  712610   12250   1
   2   2   1   58690   13680   1
  -3  -2   5  497760   12470  -2
   3   2   1  497760   12470   1
   4   2   1  481670    9510   1
   5   2   1   -9790    6520   1
  -6   3   1   11330    5700   1
  -5   3   1  749880    6900   1
   4  -3   1  504830   10130  -2
  -4   3   1  504830   10130   1
  -3   3   1   21350    7180   1
  -2   3   1 2284310   22800   1
  -1   3   1  478930   32020   1
   0   3   1  178620   13910   1
   1   3   1 1893200  155130   1
   2   3   1  324730   11580   1
  -3  -3   6  147990   75160  -2
   3   3   1  147990   75160   1
   4   3   1  183090    7790   1
  -6   4   1  121410    8660   1
  -5   4   1   -4120    5870   1
   4  -4   2 1254280    8280  -2
  -4   4   1 1254280    8280   1
  -3   4   1   67970    6940   1
  -2   4   1   29770    8720   1
  -1   4   1  850450   10170   1
   0   4   1   67650   11620   1
   1   4   1   17760    8000   1
   2   4   1  544230   22480   1
   3   4   1   74690    9990   1
  -6   5   1  348730   23050   1
  -5   5   1  108180    6250   1
   4  -5   3   32660   11000  -2
  -4   5   1   32660   11000   1
  -3   5   1 1215540   81480   1
  -2   5   1   67010    7820   1
  -1   5   1   53790    7810   1
   0   5   1  679120   10260   1
   1   5   1  269000    7450   1
   2   5   1    6910    5100   1
  -5   6   1  301490   11440   1
   4  -6   4  202590   17330  -2
  -4   6   1  202590   17330   1
  -3   6   1   12430    8430   1
  -2   6   1  699900   15840   1
   1  -6   6  237330   15610  -2
  -1   6   1  237330   15610   1
   0   6   1    7450   13870   1
   0  -7   2   60090   25300   1
  -1   7  -4  357890   28310  -2
   1  -7   2  357890   28310   1
   2  -7   2  136920    5840   1
   3  -7   2   44760    4810   1
   4  -7   2  143840   10450   1
  -2  -6   2   24010    5690   1
  -1  -6   2  198030    6040   1
   0  -6   2  311910    8520   1
  -1   6  -3  289800   19240  -2
   1  -6   2  289800   19240   1
   2  -6   2  406560   16720   1
   3  -6   2  131000   10260   1
  -4   6  -1  372610   22710  -2
   4  -6   2  372610   22710   1
   5  -6   2  119280   17740   1
  -3  -5   2  264400   27290   1
  -2  -5   2  435740    6770   1
  -1  -5   2  136820    6170   1
   0  -5   2  551240    7770   1
  -1   5  -2 1754450   65530  -2
   1  -5   2 1754450   65530   1
   2  -5   2  504650   18040   1
   3  -5   2  827170   10200   1
  -4   5   0 1080200   38710  -2
   4  -5   2 1080200   38710   1
   5  -5   2  695220   48370   1
   6  -5   2  221020   62110   1
  -4  -4   2  896170    8790   1
   3   4  -4  335570   13970  -2
  -3  -4   2  335570   13970   1
  -2  -4   2  512620   24030   1
  -1  -4   2 1595520   22730   1
   0  -4   2 1198740    7960   1
   1  -4   2 1464750  114010   1
   2  -4   2 1282150   15790   1
   3  -4   2  569880    8590   1
  -4   4   1  702570   43220  -2
   4  -4   2  702570   43220   1
   5  -4   2  549470   25420   1
   6  -4   2  244630   44210   1
  -5  -3   2   83940    8180   1
  -4  -3   2  500500   19060   1
   3   3  -3 1810510   10090  -2
  -3  -3   2 1810510   10090   1
  -2  -3   2   88960    6600   1
  -1  -3   2  912620   12920   1
   0  -3   2 2847840   92490   1
   1  -3   2 1306290   26640   1
   2  -3   2 1273900   19400   1
   3  -3   2  743570    9250   1
  -4   3   2 1606880   20830  -2
   4  -3   2 1606880   20830   1
   5  -3   2  152870    5970   1
   6  -3   2  379810   15630   1
  -5  -2   2  436960   10230   1
  -4  -2   2  548680    9530   1
   3   2  -2  388750   17720  -2
  -3  -2   2  388750   17720   1
  -2  -2   2 1092990   14840   1
  -1  -2   2  623300   16240   1
   0  -2   2   34080   31760   1
   1  -2   2 2082200   17780   1
   2  -2   2  812350   16800   1
   3  -2   2  561110   11470   1
   4  -2   2  717340    8610   1
   5  -2   2  859870   17160   1
   6  -2   2  380840   14480   1
  -6  -1   2  111730   13940   1
  -5  -1   2  352140    7580   1
  -4  -1   2 1591620   18880   1
   3   1  -1 1022710   11780  -2
  -3  -1   2 1022710   11780   1
  -2  -1   2 1305270   26750   1
  -1  -1   2 5229620   83400   1
   0  -1   2 3334920   55560   1
   1  -1   2 1648760   32250   1
   2  -1   2 3831600   72730   1
   3  -1   2  998260    9370   1
   4  -1   2  392350    9290   1
   5  -1   2  714830   15250   1
   6  -1   2  371420    6720   1
  -6   0   2  501160    7430   1
  -5   0   2  556040    9050   1
  -4   0   2  754570   11230   1
  -3   0   2 2923290  117280   1
  -2   0   2   -4870    8890   1
  -1   0   2 1556410   27050   1
   0   0   2 5757270  423100  -2
   0   0   2 5757270  423100   1
   1   0   2  234020   14390   1
   2   0   2 2350050   24640   1
   3   0   2 1426520  255430   1
   4   0   2  723370    7090   1
   5   0   2  324000    9820   1
  -6   1   2  997690   18420   1
  -5   1   2 1056160   10420   1
  -4   1   2  996470   11110   1
  -3   1   2 1905850   23640   1
  -2   1   2 4242410   15080   1
  -1   1   2 1337930   25820   1
   0   1   2   56860   15030   1
   1   1   2 4424770   44900   1
   2   1   2 1539220   36330   1
   3   1   2  289740   13480   1
   4   1   2  745460   44480   1
   5   1   2  826990    9090   1
  -6   2   2  361870    7430   1
  -5   2   2  295630    6760   1
  -4   2   2 1350960   10420   1
  -3   2   2 1622500   14710   1
  -2   2   2  721380   20700   1
  -1   2   2 3076950   32720   1
   0   2   2 2696450  108690   1
   1   2   2  355800   12190   1
   2   2   2 2769170  133890   1
  -3  -2   6  925420   37330  -2
   3   2   2  925420   37330   1
   4   2   2   62820    7860   1
  -6   3   2  698520    7160   1
  -5   3   2 1332740    9220   1
   4  -3   2  543240   20180  -2
  -4   3   2  543240   20180   1
  -3   3   2 2636390   25630   1
  -2   3   2 1780840   24470   1
  -1   3   2   45650    8400   1
   0   3   2 1632610   52410   1
   1   3   2 1066020   54880   1
   2   3   2   51950    8310   1
  -3  -3   7  325510   26120  -2
   3   3   2  325510   26120   1
  -6   4   2  234010   40560   1
  -5   4   2  323830    7200   1
   4  -4   3  921840    9590  -2
  -4   4   2  921840    9590   1
  -3   4   2  466620   10280   1
  -2   4   2  676370   32330   1
  -1   4   2  510090    8570   1
   0   4   2   22150    7950   1
   1   4   2  779630   35510   1
   2   4   2  316680   26510   1
  -5   5   2   55930   11270   1
   4  -5   4  233500    6760  -2
  -4   5   2  233500    6760   1
  -3   5   2  609270   16440   1
  -2   5   2   86090    6680   1
  -1   5   2  225030    7950   1
   0   5   2  454130    8460   1
   1   5   2   -2050    6560   1
   4  -6   5  108770    6010  -2
  -4   6   2  108770    6010   1
  -3   6   2  388560   28730   1
  -2   6   2  275400   33880   1
   1  -6   7  125400   15810  -2
  -1   6   2  125400   15810   1
   0  -7   3   71140   23780   1
  -1   7  -3  798660  130680  -2
   1  -7   3  798660  130680   1
   2  -7   3    8320    4600   1
   3  -7   3   64930   11460   1
  -2  -6   3   14030    5890   1
  -1  -6   3  399310   21670   1
   0  -6   3   13430   13320   1
  -1   6  -2   87800   12360  -2
   1  -6   3   87800   12360   1
   2  -6   3  753180   54640   1
   3  -6   3   11990    4520   1
  -4   6   0   87270    8390  -2
   4  -6   3   87270    8390   1
   5  -6   3  542220   34200   1
  -3  -5   3  721180   21870   1
  -2  -5   3     520    6210   1
  -1  -5   3  181520   10930   1
   0  -5   3 1825650   11180   1
  -1   5  -1   91370    5390  -2
   1  -5   3   91370    5390   1
   2  -5   3  405200   14480   1
   3  -5   3 1306750   51810   1
  -4   5   1  119950    8780  -2
   4  -5   3  119950    8780   1
   5  -5   3  150740   13030   1
  -4  -4   3    4860    5680   1
   3   4  -3  370850   13800  -2
  -3  -4   3  370850   13800   1
  -2  -4   3 1046060    8600   1
  -1  -4   3   74840    7030   1
   0  -4   3  187360    5870   1
   1  -4   3 2498300   50420   1
   2  -4   3   64020    5500   1
   3  -4   3  268610    9310   1
  -4   4   2 1217080   16560  -2
   4  -4   3 1217080   16560   1
   5  -4   3  111560   32090   1
   6  -4   3  152600   14740   1
  -5  -3   3  321480    6430   1
  -4  -3   3  858300    7970   1
   3   3  -2  420810   19430  -2
  -3  -3   3  420810   19430   1
  -2  -3   3  453750    7730   1
  -1  -3   3 1915600   41250   1
   0  -3   3  325510   35640   1
   1  -3   3   46960   21780   1
   2  -3   3 2815380   17860   1
   3  -3   3  197730    7010   1
   4  -3   3  159820   12580   1
   5  -3   3  942400   12700   1
   6  -3   3  148880    5140   1
  -5  -2   3   15530   10270   1
  -4  -2   3  100600    7780   1
   3   2  -1 1226310   21160  -2
  -3  -2   3 1226310   21160   1
  -2  -2   3   10250    6200   1
  -1  -2   3    6810    6370   1
   0  -2   3 3534470   61750   1
   1  -2   3  200350    6820   1
   2  -2   3  214790    6860   1
   3  -2   3 2134770   40370   1
   4  -2   3  148630   81620   1
   5  -2   3   90070    6340   1
   6  -2   3  670110   10760   1
  -6  -1   3  282520   10420   1
  -5  -1   3  621910   15880   1
  -4  -1   3  321600    7220   1
   3   1   0  423960    9790  -2
  -3  -1   3  423960    9790   1
  -2  -1   3 2032070   17610   1
  -1  -1   3   31150    7670   1
   0  -1   3  160430    9280   1
   1  -1   3 2469510   29700   1
   2  -1   3   86570    8850   1
   3  -1   3   17460    7720   1
   4  -1   3  422970    7030   1
   5  -1   3   10340    6030   1
  -6   0   3   50170    5670   1
  -5   0   3  338030    6450   1
  -4   0   3  350260    7280   1
  -3   0   3  114950    8750   1
  -2   0   3 1199690   14100   1
  -1   0   3  277480   12540   1
   1   0   3  133850   12900   1
   2   0   3 1522250   26670   1
   3   0   3  -26010   17340   1
   4   0   3   25780    6510   1
   5   0   3  638910   38220   1
  -6   1   3  234830   10770   1
  -5   1   3   21840    5810   1
  -4   1   3  191930    7240   1
  -3   1   3  570980   14070   1
  -2   1   3   60690    8720   1
  -1   1   3   55980   13830   1
   0   1   3  690600   15900   1
   1   1   3   -5730   10690   1
   2   1   3  249660   12000   1
   3   1   3  925190   10350   1
   4   1   3    5880    7780   1
  -6   2   3  439250   16480   1
  -5   2   3  373280   18060   1
  -4   2   3   20360   22830   1
  -3   2   3 1498280   33440   1
  -2   2   3 1818020   21380   1
  -1   2   3   14810   14130   1
   0   2   3  714620   80150   1
   1   2   3 2156310   53280   1
   2   2   3    9640    8540   1
  -3  -2   7  304930   28750  -2
   3   2   3  304930   28750   1
   4   2   3  577950   27150   1
  -6   3   3   21190    5460   1
  -5   3   3  450180   38050   1
  -4   3   3  701080   38630   1
  -3   3   3    8470    7310   1
  -2   3   3 1054850   46710   1
  -1   3   3  369420    9240   1
   0   3   3  -15380   21810   1
   1   3   3  284490    9670   1
   2   3   3  565230   35390   1
  -3  -3   8  125150   14320  -2
   3   3   3  125150   14320   1
  -6   4   3  316790    9350   1
  -5   4   3   63410   15100   1
   4  -4   4  373070   13460  -2
  -4   4   3  373070   13460   1
  -3   4   3  696880    9500   1
  -2   4   3    1780    5860   1
  -1   4   3  206960   26140   1
   0   4   3  442640    9160   1
   1   4   3   67870   18930   1
   2   4   3   69170    7600   1
  -5   5   3  155880   13790   1
   4  -5   5    9030    5680  -2
  -4   5   3    9030    5680   1
  -3   5   3  226860   16520   1
  -2   5   3  374900   28430   1
  -1   5   3   -1620    7240   1
   0   5   3  188280   37880   1
   0  -7   4   90250   16920   1
  -1   7  -2   67200   19880  -2
   1  -7   4   67200   19880   1
   2  -7   4  256810   10530   1
   3  -7   4   78560   11030   1
  -2  -6   4   11660   10720   1
  -1  -6   4   49720   12090   1
   0  -6   4  432830   29390   1
  -1   6  -1  428490   13510  -2
   1  -6   4  428490   13510   1
   2  -6   4  103950   10360   1
   3  -6   4  604160   45440   1
  -4   6   1  139540   26650  -2
   4  -6   4  139540   26650   1
  -3  -5   4    1850   13450   1
  -2  -5   4  999660   35090   1
  -1  -5   4   46620    7600   1
   0  -5   4   69720    9360   1
  -1   5   0 1168070   58560  -2
   1  -5   4 1168070   58560   1
   2  -5   4  127480    5000   1
   3  -5   4  354930   10330   1
  -4   5   2  461980   27680  -2
   4  -5   4  461980   27680   1
   5  -5   4   59310   10240   1
  -4  -4   4  773660   36250   1
   3   4  -2   32370   13480  -2
  -3  -4   4   32370   13480   1
  -2  -4   4  516990   15930   1
  -1  -4   4 2148920   33910   1
   0  -4   4   42800    6060   1
   1  -4   4  467580   54680   1
   2  -4   4 2085490   29700   1
   3  -4   4  279490    7640   1
  -4   4   3  156800    5490  -2
   4  -4   4  156800    5490   1
   5  -4   4  562050   22260   1
  -5  -3   4   13230    6120   1
  -4  -3   4   23670    5310   1
   3   3  -1 1782460   50580  -2
  -3  -3   4 1782460   50580   1
  -2  -3   4   69120    6420   1
  -1  -3   4  143470    6240   1
   0  -3   4 1855680   13320   1
   1  -3   4  646320    6590   1
   2  -3   4  251000    6550   1
   3  -3   4 1763040   25780   1
   4  -3   4  427750   20390   1
   5  -3   4   47910    8870   1
  -5  -2   4 1171850   30050   1
  -4  -2   4  259450    6410   1
   3   2   0  231960   10520  -2
  -3  -2   4  231960   10520   1
  -2  -2   4 6119150   48070   1
  -1  -2   4  801950    8300   1
   0  -2   4  112490   46540   1
   1  -2   4 4892240   57160   1
   2  -2   4 1717660   21580   1
   3  -2   4  105970    6160   1
   4  -2   4 1020210   12010   1
   5  -2   4  484450    6920   1
  -6  -1   4  243090    8440   1
  -5  -1   4   72850    9880   1
  -4  -1   4 1870060   27080   1
  -3  -1   4  686980   10540   1
  -2  -1   4  164610    7620   1
  -1  -1   4 4161730   61550   1
   0  -1   4  267080   11410   1
   1  -1   4   49700    8830   1
   2  -1   4 2626530   34740   1
   3  -1   4  255410    8430   1
   4  -1   4   39310    6430   1
   5  -1   4  496780   14340   1
  -6   0   4 1179510   17830   1
  -5   0   4  118800    6860   1
  -4   0   4   43430    6910   1
  -3   0   4 3120880   33350   1
  -2   0   4  396270    7490   1
  -1   0   4    4240   12830   1
   0   0   4 2440230   19470  -2
   0   0   4 2440230   19470   1
   1   0   4  719270   14520   1
   2   0   4   28210   10060   1
   3   0   4  956370   61620   1
   4   0   4  292810    7090   1
  -6   1   4  119620    6960   1
  -5   1   4  739100   10640   1
  -4   1   4  139000    7920   1
  -3   1   4    6920    6850   1
  -2   1   4 3406510   30350   1
  -1   1   4  128740   11900   1
   0   1   4   98030   18310   1
   1   1   4 2907760   52520   1
   2   1   4  592210   11070   1
   3   1   4   94770   12590   1
   4   1   4  830950   19050   1
  -6   2   4  318390    8840   1
  -5   2   4  129260   12260   1
  -4   2   4 1646220   72940   1
  -3   2   4  892280   30160   1
  -2   2   4   79750    6660   1
  -1   2   4 2938680   26630   1
   0   2   4  169620   17970   1
   1   2   4      20    9660   1
   2   2   4 1366620   12420   1
  -3  -2   8  111790   12990  -2
   3   2   4  111790   12990   1
  -6   3   4  905190   13650   1
  -5   3   4  106980    9340   1
  -4   3   4  207120    8930   1
  -3   3   4 1849450   56720   1
  -2   3   4  299080    7540   1
  -1   3   4   78640    8540   1
   0   3   4 1406650   19550   1
   1   3   4  316270   14950   1
   2   3   4   11150    7910   1
  -5   4   4  455820   27130   1
   4  -4   5  344110   22930  -2
  -4   4   4  344110   22930   1
  -3   4   4   25820    5540   1
  -2   4   4  855020   22640   1
  -1   4   4  255670    8470   1
   0   4   4   27980   10580   1
   1   4   4  441510    9290   1
   4  -5   6  380300   12140  -2
  -4   5   4  380300   12140   1
  -3   5   4  436220   27020   1
  -2   5   4      40    5490   1
  -1   5   4  467240  155310   1
  -1   7  -1  345130   45430  -2
   1  -7   5  345130   45430   1
   2  -7   5  239150   29460   1
  -2  -6   5  147440   30220   1
  -1  -6   5  708290   54010   1
   0  -6   5  305140    7460   1
  -1   6   0   92710    5170  -2
   1  -6   5   92710    5170   1
   2  -6   5  822400   55490   1
   3  -6   5  387010   36830   1
  -4   6   2  140250   14050  -2
   4  -6   5  140250   14050   1
  -3  -5   5  364060   32370   1
  -2  -5   5   88450    5180   1
  -1  -5   5  324070    7270   1
   0  -5   5  419500    9410   1
   1  -5   5  151410    5580   1
   2  -5   5  332050   10210   1
   3  -5   5  366500   13540   1
  -4   5   3  124620    6130  -2
   4  -5   5  124620    6130   1
  -4  -4   5   33300    4950   1
   3   4  -1  344470   49280  -2
  -3  -4   5  344470   49280   1
  -2  -4   5  683280   15240   1
  -1  -4   5   79630    5350   1
   0  -4   5   94090    5960   1
   1  -4   5  498290   25140   1
   2  -4   5  438080   12610   1
   3  -4   5  181100    5940   1
  -4   4   4  251570    8970  -2
   4  -4   5  251570    8970   1
   5  -4   5  239990   19730   1
  -5  -3   5  292450   11020   1
  -4  -3   5   88520    5460   1
   3   3   0  497910   17940  -2
  -3  -3   5  497910   17940   1
  -2  -3   5  558880    9560   1
  -1  -3   5  857150   15410   1
   0  -3   5  190920   40880   1
   1  -3   5  344170    6330   1
   2  -3   5 1575590   19030   1
   3  -3   5  284950    7310   1
   4  -3   5  403740   10000   1
   5  -3   5  418440   59190   1
  -5  -2   5  119670    7950   1
  -4  -2   5  492990    7480   1
   3   2   1 1067410   14540  -2
  -3  -2   5 1067410   14540   1
  -2  -2   5  546600    8700   1
  -1  -2   5  734340   19570   1
   0  -2   5 1107770   41270   1
   1  -2   5  347260    7610   1
   2  -2   5  308250    7330   1
   3  -2   5  674680   11750   1
   4  -2   5   66370    9110   1
  -6  -1   5  682330  155800   1
  -5  -1   5  265770    6770   1
  -4  -1   5   80940    6360   1
  -3  -1   5  948060    9140   1
  -2  -1   5 1212970   19800   1
  -1  -1   5   76620   11740   1
   0  -1   5  423220   10510   1
   1  -1   5  920930    9550   1
   2  -1   5  477640    7750   1
   3  -1   5  150690    7170   1
   4  -1   5  378110    6800   1
  -6   0   5  120050    9130   1
  -5   0   5  488390   10780   1
  -4   0   5   93460    7160   1
  -3   0   5  611200   20190   1
  -2   0   5  196760    9770   1
  -1   0   5  260060   13450   1
   0   0   5  273470   13210  -2
   0   0   5  273470   13210   1
   1   0   5   13390   13080   1
   2   0   5  534470   11290   1
   3   0   5  104000    9470   1
   4   0   5  108030    5920   1
  -6   1   5  199200    6910   1
  -5   1   5   66570    9590   1
  -4   1   5  483400   30860   1
  -3   1   5  372900    8810   1
  -2   1   5  459600    9950   1
  -1   1   5  788000   27680   1
   0   1   5  615990   23030   1
   1   1   5  195160   10520   1
   2   1   5  178230    9870   1
   3   1   5  395880   22130   1
  -6   2   5  449570    8290   1
  -5   2   5  137110   11520   1
  -4   2   5  -13010    8680   1
  -3   2   5  577320   16030   1
  -2   2   5  228180   17060   1
  -1   2   5   -3550   10340   1
   0   2   5  572470   17890   1
   1   2   5  134210   14370   1
   2   2   5    2760    7620   1
  -5   3   5  710820   70430   1
  -4   3   5  136470   11610   1
  -3   3   5   79680    7040   1
  -2   3   5  636740   22810   1
  -1   3   5  210340   15120   1
   0   3   5  -10630   13470   1
   1   3   5   80600   12160   1
   4  -4   6  344200   54140  -2
  -4   4   5  344200   54140   1
  -3   4   5  155760    7150   1
  -2   4   5   86580    7410   1
  -1   4   5  567410   49740   1
  -1  -6   6   66500    4990   1
   0  -6   6  268960   24340   1
  -1   6   1  407420   32050  -2
   1  -6   6  407420   32050   1
   2  -6   6   66910   10070   1
   3  -6   6  227800   26310   1
  -3  -5   6   79500    6300   1
  -2  -5   6  624760   69030   1
  -1  -5   6  410180   24070   1
   0  -5   6  277580    6840   1
   1  -5   6  269410    7760   1
   2  -5   6  668060   27810   1
   3  -5   6   70690    5790   1
  -4   5   4  178760   29110  -2
   4  -5   6  178760   29110   1
  -4  -4   6  197420   16160   1
   3   4   0  130310   10710  -2
  -3  -4   6  130310   10710   1
  -2  -4   6   38000    5480   1
  -1  -4   6  378290   15770   1
   0  -4   6  236420    7840   1
   1  -4   6  162950   10510   1
   2  -4   6  216040   13750   1
   3  -4   6  540200   11430   1
  -4   4   5  230220   18820  -2
   4  -4   6  230220   18820   1
  -4  -3   6  131600   10080   1
   3   3   1  703910   16360  -2
  -3  -3   6  703910   16360   1
  -2  -3   6  755120   26210   1
  -1  -3   6  274640   10370   1
   0  -3   6 1055360   19570   1
   1  -3   6  893440   32110   1
   2  -3   6  153670    5710   1
   3  -3   6  582610   21610   1
   4  -3   6  457910   27030   1
  -5  -2   6  661440   16890   1
  -4  -2   6  167410    6590   1
   3   2   2  414580    8480  -2
  -3  -2   6  414580    8480   1
  -2  -2   6 1569500   31890   1
  -1  -2   6  523150    7140   1
   0  -2   6  973910   11070   1
   1  -2   6 1010840   24060   1
   2  -2   6  773640   24420   1
   3  -2   6  327210   22950   1
   4  -2   6  423680   22480   1
  -5  -1   6  359540   43110   1
  -4  -1   6 1254080   27180   1
  -3  -1   6  772950   20920   1
  -2  -1   6   91980    6390   1
  -1  -1   6 1840980   14890   1
   0  -1   6 1019250   12000   1
   1  -1   6   24280    8270   1
   2  -1   6  446780   16440   1
   3  -1   6  905640    9170   1
  -5   0   6  386380    7360   1
  -4   0   6  118120   11150   1
  -3   0   6  812710   54720   1
  -2   0   6 1202020   13510   1
  -1   0   6   74090    9350   1
   0   0   6 1737990   14070  -2
   0   0   6 1737990   14070   1
   1   0   6 1089740   13550   1
   2   0   6   12120    7320   1
   3   0   6  629410   11080   1
  -5   1   6  766770   10160   1
  -4   1   6  772120   41830   1
  -3   1   6   -7380    7400   1
  -2   1   6 1068500   60560   1
  -1   1   6 1044680   14370   1
   0   1   6   59820    9220   1
   1   1   6  396110   18910   1
   2   1   6  380710   20730   1
  -5   2   6  232390   12240   1
  -4   2   6  464870   26110   1
  -3   2   6  347590    7260   1
  -2   2   6   40770    7390   1
  -1   2   6  879740   54870   1
   0   2   6  260850   17340   1
   1   2   6    7110   13490   1
  -4   3   6   87300   22410   1
  -3   3   6  177900    9610   1
  -2   3   6  380810   18100   1
  -1   3   6   14250   12070   1
   0   3   6  242930   15580   1
   0  -6   7    4710    4860   1
  -1   6   2  116050    9050  -2
   1  -6   7  116050    9050   1
   2  -6   7  586680   59790   1
  -2  -5   7   57310   19510   1
  -1  -5   7   15410    5300   1
   0  -5   7  775960   45530   1
   1  -5   7  136250    6620   1
   2  -5   7   15300    5500   1
   3  -5   7  434690  119250   1
  -3  -4   7    4470    9290   1
  -2  -4   7  699400   31720   1
  -1  -4   7   99310   10120   1
   0  -4   7   11530    4810   1
   1  -4   7  807790   38160   1
   2  -4   7  208880    6360   1
   3  -4   7    5520    5380   1
  -4  -3   7  423910   21680   1
   3   3   2  151640   11970  -2
  -3  -3   7  151640   11970   1
  -2  -3   7    1480    5570   1
  -1  -3   7 1070390   62120   1
   0  -3   7    6780    7840   1
   1  -3   7    1190    6520   1
   2  -3   7  499610   26590   1
   3  -3   7    6400    8040   1
  -4  -2   7  278900   16040   1
   3   2   3  581880   25400  -2
  -3  -2   7  581880   25400   1
  -2  -2   7    4310    5880   1
  -1  -2   7  152880    8640   1
   0  -2   7 1086740   13060   1
   1  -2   7   18060   10390   1
   2  -2   7   19030    5860   1
   3  -2   7  538460   64300   1
  -5  -1   7  365090   13290   1
  -4  -1   7    4550    5590   1
  -3  -1   7   52650    5670   1
  -2  -1   7  544060   18980   1
  -1  -1   7    8920    8630   1
   0  -1   7   53730   12650   1
   1  -1   7  648170   13700   1
   2  -1   7   52260    6240   1
  -5   0   7  133430   14150   1
  -4   0   7  652250   10840   1
  -3   0   7   77490    7840   1
  -2   0   7   59550    9210   1
  -1   0   7 1577980   21750   1
   0   0   7  112170    8350  -2
   0   0   7  112170    8350   1
   1   0   7    9010    6230   1
   2   0   7  683890  328880   1
  -5   1   7   57010   11230   1
  -4   1   7  208790   10830   1
  -3   1   7  357490   13780   1
  -2   1   7   44940    8790   1
  -1   1   7  115880   10890   1
   0   1   7  574820   12730   1
   1   1   7   13300    7860   1
  -4   2   7    2780    7790   1
  -3   2   7   44120    7790   1
  -2   2   7  309940    9140   1
  -1   2   7   65210    9560   1
  -1  -5   8  185490   24430   1
   0  -5   8   13550    4640   1
   1  -5   8  341770   43050   1
  -2  -4   8   17230    6050   1
  -1  -4   8  672230   36730   1
   0  -4   8  473650   29670   1
   1  -4   8   -8770   16010   1
   2  -4   8  236420   10720   1
   3   3   3  563700   56300  -2
  -3  -3   8  563700   56300   1
  -2  -3   8  119960    6500   1
  -1  -3   8   -5580   10240   1
   0  -3   8  786150   63810   1
   1  -3   8  144320   27530   1
   2  -3   8    1900   11760   1
  -4  -2   8   85990    5510   1
   3   2   4   20000    6640  -2
  -3  -2   8   20000    6640   1
  -2  -2   8  528560   24700   1
  -1  -2   8  208030    8610   1
   0  -2   8   -5750   14600   1
   1  -2   8  297640  147730   1
   2  -2   8  110520   75250   1
  -4  -1   8  607820   56680   1
  -3  -1   8   63640   10790   1
  -2  -1   8   -8350    8470   1
  -1  -1   8  980830   82690   1
   0  -1   8  407900   40240   1
   1  -1   8  -13000    8670   1
  -4   0   8   16750   14590   1
  -3   0   8  685740   40830   1
  -2   0   8  245540    8830   1
  -1   0   8   14790    7610   1
   0   0   8 1063750  158930  -2
   0   0   8 1063750  158930   1
  -3   1   8   16490    6370   1
  -2   1   8  713270  102500   1
  -1   1   8   35270    9990   1
  -1  -3   9  376240    8210   1
  -1  -2   9   13560    6580   1
;
_shelx_hkl_checksum              71398
_shelx_res_file
;
    mgna2-2h20.res created by SHELXL-2014/7
TITL
CELL  0.71073  5.55610  5.92290  7.22420 108.36100 99.07500 106.62900
ZERR 1  0.00350  0.00560  0.00500  0.06300  0.05300  0.06300
LATT 1
SFAC Mg Na Se O  H
UNIT 1  2  2  10  4
OMIT -3 53
L.S. 20
ACTA
BOND
FMAP 2
PLAN 2
DFIX 0.82 0.02 O5 H1  O5 H2
WGHT    0.014900    1.464000
BASF   0.16963
FVAR      34.52951
MOLE 1
SE1   3    0.338436    0.167237    0.259863    11.00000    0.00945    0.01588 =
         0.01313    0.00544    0.00323    0.00445
MG1   1    0.000000    0.500000    0.500000    10.50000    0.01151    0.01812 =
         0.01204    0.00630    0.00262    0.00519
O5    4   -0.065331    0.542032    0.230732    11.00000    0.01326    0.01727 =
         0.01264    0.00419    0.00094    0.00160
O4    4    0.282876   -0.133047    0.124382    11.00000    0.01783    0.01723 =
         0.01623    0.00263    0.00598    0.00759
O2    4    0.105294    0.175168    0.376813    11.00000    0.01474    0.02015 =
         0.02365    0.00837    0.01010    0.00868
O3    4    0.354056    0.337091    0.120999    11.00000    0.01665    0.02455 =
         0.01913    0.01388    0.00556    0.00904
O1    4    0.613763    0.261997    0.435672    11.00000    0.01128    0.02241 =
         0.02092    0.01045    0.00069    0.00262
NA1   2    0.665712    0.790245    0.247597    11.00000    0.01929    0.02558 =
         0.02842    0.01200    0.00551    0.01105
H5A   5    0.062518    0.626402    0.209766    11.00000    0.03991
H5B   5   -0.125056    0.412116    0.133466    11.00000    0.02590
HKLF 5
REM
REM R1 =  0.0321 for     782 Fo > 4sig(Fo)  and  0.0390 for all     864 data
REM     79 parameters refined using      0 restraints
END
WGHT      0.0149      1.4640
REM Highest difference peak  0.922,  deepest hole -0.743,  1-sigma level  0.206
Q1    1   0.3936 -0.0478  0.2421  11.00000  0.05    0.92
Q2    1   0.2954  0.1230  0.4399  11.00000  0.05    0.89
;
_shelx_res_checksum              94886
loop_
_space_group_symop_operation_xyz
'x, y, z'
'-x, -y, -z'
loop_
_atom_site_type_symbol
_atom_site_label
_atom_site_fract_x
_atom_site_fract_y
_atom_site_fract_z
_atom_site_U_iso_or_equiv
_atom_site_adp_type
_atom_site_calc_flag
_atom_site_occupancy
Se Se1 0.33844(11) 0.16724(12) 0.25986(9) 0.0128(2) Uani d 1
Mg Mg1 0.0000 0.5000 0.5000 0.0138(6) Uani d 1
O O5 -0.0653(9) 0.5420(10) 0.2307(7) 0.0160(9) Uani d 1
O O4 0.2829(8) -0.1330(8) 0.1244(7) 0.0176(9) Uani d 1
O O2 0.1053(8) 0.1752(9) 0.3768(7) 0.0183(9) Uani d 1
O O3 0.3541(8) 0.3371(9) 0.1210(7) 0.0182(9) Uani d 1
O O1 0.6138(8) 0.2620(9) 0.4357(7) 0.0189(9) Uani d 1
Na Na1 0.6657(5) 0.7902(5) 0.2476(4) 0.0234(6) Uani d 1
H H5A 0.06(2) 0.63(2) 0.210(15) 0.04(3) Uiso d 1
H H5B -0.125(16) 0.412(18) 0.133(14) 0.03(2) Uiso d 1
loop_
_atom_site_aniso_label
_atom_site_aniso_U_11
_atom_site_aniso_U_22
_atom_site_aniso_U_33
_atom_site_aniso_U_12
_atom_site_aniso_U_13
_atom_site_aniso_U_23
Se1 0.0094(3) 0.0159(3) 0.0131(3) 0.0045(2) 0.0032(2) 0.0054(2)
Mg1 0.0115(13) 0.0181(15) 0.0120(14) 0.0052(11) 0.0026(11) 0.0063(12)
O5 0.013(2) 0.017(2) 0.013(2) 0.0016(18) 0.0009(18) 0.004(2)
O4 0.018(2) 0.017(2) 0.016(2) 0.0076(18) 0.0060(17) 0.0026(19)
O2 0.015(2) 0.020(2) 0.024(2) 0.0087(18) 0.0101(18) 0.008(2)
O3 0.017(2) 0.025(2) 0.019(2) 0.0090(19) 0.0056(18) 0.014(2)
O1 0.0113(19) 0.022(2) 0.021(2) 0.0026(17) 0.0007(17) 0.010(2)
Na1 0.0193(12) 0.0256(14) 0.0284(15) 0.0111(11) 0.0055(11) 0.0120(12)
loop_
_atom_type_symbol
_atom_type_description
_atom_type_scat_dispersion_real
_atom_type_scat_dispersion_imag
_atom_type_scat_source
Mg Mg 0.0486 0.0363 'International Tables Vol C Tables 4.2.6.8 and 6.1.1.4'
Na Na 0.0362 0.0249 'International Tables Vol C Tables 4.2.6.8 and 6.1.1.4'
Se Se -0.0929 2.2259 'International Tables Vol C Tables 4.2.6.8 and 6.1.1.4'
O O 0.0106 0.0060 'International Tables Vol C Tables 4.2.6.8 and 6.1.1.4'
H H 0.0000 0.0000 'International Tables Vol C Tables 4.2.6.8 and 6.1.1.4'
loop_
_exptl_crystal_face_index_h
_exptl_crystal_face_index_k
_exptl_crystal_face_index_l
_exptl_crystal_face_perp_dist
20 30 20 0.0523
20 -18 30 0.0473
9 12 -30 0.0388
-2 0 30 0.0363
6 -17 30 0.0387
-30 0 14 0.0704
-21 20 -30 0.0437
-30 22 -4 0.0655
6 -30 13 0.0484
3 -29 -30 0.0499
loop_
_geom_angle_atom_site_label_1
_geom_angle_atom_site_label_2
_geom_angle_atom_site_label_3
_geom_angle_site_symmetry_1
_geom_angle_site_symmetry_3
_geom_angle
O3 Se1 O4 . . 111.7(2)
O3 Se1 O1 . . 112.7(2)
O4 Se1 O1 . . 105.0(2)
O3 Se1 O2 . . 112.0(2)
O4 Se1 O2 . . 107.9(2)
O1 Se1 O2 . . 107.2(2)
O3 Se1 Na1 . 1_545 122.77(17)
O4 Se1 Na1 . 1_545 45.27(17)
O1 Se1 Na1 . 1_545 60.10(18)
O2 Se1 Na1 . 1_545 124.52(17)
O3 Se1 Na1 . 2_666 141.16(18)
O4 Se1 Na1 . 2_666 106.91(18)
O1 Se1 Na1 . 2_666 59.32(17)
O2 Se1 Na1 . 2_666 49.60(17)
Na1 Se1 Na1 1_545 2_666 87.86(9)
O5 Mg1 O5 . 2_566 180.0(3)
O5 Mg1 O1 . 2_666 87.64(19)
O5 Mg1 O1 2_566 2_666 92.36(19)
O5 Mg1 O1 . 1_455 92.36(19)
O5 Mg1 O1 2_566 1_455 87.64(19)
O1 Mg1 O1 2_666 1_455 180.0
O5 Mg1 O2 . 2_566 87.59(19)
O5 Mg1 O2 2_566 2_566 92.41(19)
O1 Mg1 O2 2_666 2_566 90.13(19)
O1 Mg1 O2 1_455 2_566 89.87(19)
O5 Mg1 O2 . . 92.41(19)
O5 Mg1 O2 2_566 . 87.59(19)
O1 Mg1 O2 2_666 . 89.87(19)
O1 Mg1 O2 1_455 . 90.13(19)
O2 Mg1 O2 2_566 . 180.0
O5 Mg1 Na1 . 2_666 139.98(14)
O5 Mg1 Na1 2_566 2_666 40.02(14)
O1 Mg1 Na1 2_666 2_666 79.00(14)
O1 Mg1 Na1 1_455 2_666 101.00(14)
O2 Mg1 Na1 2_566 2_666 129.49(14)
O2 Mg1 Na1 . 2_666 50.51(14)
O5 Mg1 Na1 . 1_455 40.02(14)
O5 Mg1 Na1 2_566 1_455 139.98(14)
O1 Mg1 Na1 2_666 1_455 101.00(14)
O1 Mg1 Na1 1_455 1_455 79.00(14)
O2 Mg1 Na1 2_566 1_455 50.51(14)
O2 Mg1 Na1 . 1_455 129.49(14)
Na1 Mg1 Na1 2_666 1_455 180.00(8)
O5 Mg1 Na1 . 2_676 88.22(17)
O5 Mg1 Na1 2_566 2_676 91.78(17)
O1 Mg1 Na1 2_666 2_676 47.87(15)
O1 Mg1 Na1 1_455 2_676 132.13(15)
O2 Mg1 Na1 2_566 2_676 42.31(13)
O2 Mg1 Na1 . 2_676 137.69(13)
Na1 Mg1 Na1 2_666 2_676 108.80(11)
Na1 Mg1 Na1 1_455 2_676 71.20(11)
O5 Mg1 Na1 . 1_445 91.78(17)
O5 Mg1 Na1 2_566 1_445 88.22(17)
O1 Mg1 Na1 2_666 1_445 132.13(15)
O1 Mg1 Na1 1_455 1_445 47.87(15)
O2 Mg1 Na1 2_566 1_445 137.69(13)
O2 Mg1 Na1 . 1_445 42.31(13)
Na1 Mg1 Na1 2_666 1_445 71.20(11)
Na1 Mg1 Na1 1_455 1_445 108.80(11)
Na1 Mg1 Na1 2_676 1_445 180.0
Mg1 O5 Na1 . 1_455 106.6(2)
Se1 O4 Na1 . 1_545 105.5(2)
Se1 O2 Mg1 . . 125.5(2)
Se1 O2 Na1 . 1_445 120.8(2)
Mg1 O2 Na1 . 1_445 104.18(18)
Se1 O2 Na1 . 2_666 102.8(2)
Mg1 O2 Na1 . 2_666 92.28(18)
Na1 O2 Na1 1_445 2_666 105.45(18)
Se1 O3 Na1 . 2_665 129.3(3)
Se1 O3 Na1 . . 122.3(2)
Na1 O3 Na1 2_665 . 98.95(19)
Se1 O1 Mg1 . 1_655 137.0(3)
Se1 O1 Na1 . 1_545 89.4(2)
Mg1 O1 Na1 1_655 1_545 98.82(18)
Se1 O1 Na1 . 2_666 92.55(19)
Mg1 O1 Na1 1_655 2_666 124.2(2)
Na1 O1 Na1 1_545 2_666 106.92(16)
O5 Na1 O4 1_655 1_565 153.0(2)
O5 Na1 O3 1_655 2_665 81.18(18)
O4 Na1 O3 1_565 2_665 79.65(17)
O5 Na1 O3 1_655 . 74.98(18)
O4 Na1 O3 1_565 . 83.35(18)
O3 Na1 O3 2_665 . 81.05(19)
O5 Na1 O2 1_655 1_665 84.57(19)
O4 Na1 O2 1_565 1_665 116.24(19)
O3 Na1 O2 2_665 1_665 96.15(19)
O3 Na1 O2 . 1_665 159.56(18)
O5 Na1 O2 1_655 2_666 68.51(17)
O4 Na1 O2 1_565 2_666 131.32(18)
O3 Na1 O2 2_665 2_666 148.83(17)
O3 Na1 O2 . 2_666 97.35(18)
O2 Na1 O2 1_665 2_666 74.55(18)
O5 Na1 O1 1_655 1_565 147.3(2)
O4 Na1 O1 1_565 1_565 59.56(16)
O3 Na1 O1 2_665 1_565 116.08(17)
O3 Na1 O1 . 1_565 132.60(17)
O2 Na1 O1 1_665 1_565 66.79(16)
O2 Na1 O1 2_666 1_565 88.01(17)
O5 Na1 O1 1_655 2_666 107.89(17)
O4 Na1 O1 1_565 2_666 79.80(16)
O3 Na1 O1 2_665 2_666 147.73(18)
O3 Na1 O1 . 2_666 72.08(16)
O2 Na1 O1 1_665 2_666 115.23(18)
O2 Na1 O1 2_666 2_666 55.05(14)
O1 Na1 O1 1_565 2_666 73.08(16)
O5 Na1 Se1 1_655 1_565 174.58(16)
O4 Na1 Se1 1_565 1_565 29.24(12)
O3 Na1 Se1 2_665 1_565 96.43(14)
O3 Na1 Se1 . 1_565 109.55(14)
O2 Na1 Se1 1_665 1_565 90.87(14)
O2 Na1 Se1 2_666 1_565 113.11(14)
O1 Na1 Se1 1_565 1_565 30.48(10)
O1 Na1 Se1 2_666 1_565 76.71(11)
O5 Na1 Se1 1_655 2_666 90.95(14)
O4 Na1 Se1 1_565 2_666 104.52(15)
O3 Na1 Se1 2_665 2_666 168.06(15)
O3 Na1 Se1 . 2_666 88.26(15)
O2 Na1 Se1 1_665 2_666 92.01(15)
O2 Na1 Se1 2_666 2_666 27.59(9)
O1 Na1 Se1 1_565 2_666 75.20(13)
O1 Na1 Se1 2_666 2_666 28.13(9)
Se1 Na1 Se1 1_565 2_666 92.14(9)
O5 Na1 Mg1 1_655 1_655 33.40(12)
O4 Na1 Mg1 1_565 1_655 152.72(15)
O3 Na1 Mg1 2_665 1_655 114.13(14)
O3 Na1 Mg1 . 1_655 76.21(14)
O2 Na1 Mg1 1_665 1_655 86.70(14)
O2 Na1 Mg1 2_666 1_655 37.21(10)
O1 Na1 Mg1 1_565 1_655 124.80(14)
O1 Na1 Mg1 2_666 1_655 76.85(11)
Se1 Na1 Mg1 1_565 1_655 149.43(10)
Se1 Na1 Mg1 2_666 1_655 57.55(6)
O5 Na1 Mg1 1_655 1_665 116.97(16)
O4 Na1 Mg1 1_565 1_665 87.17(15)
O3 Na1 Mg1 2_665 1_665 108.15(15)
O3 Na1 Mg1 . 1_665 165.42(14)
O2 Na1 Mg1 1_665 1_665 33.51(11)
O2 Na1 Mg1 2_666 1_665 80.66(14)
O1 Na1 Mg1 1_565 1_665 33.31(10)
O1 Na1 Mg1 2_666 1_665 95.37(13)
Se1 Na1 Mg1 1_565 1_665 59.05(8)
Se1 Na1 Mg1 2_666 1_665 83.40(10)
Mg1 Na1 Mg1 1_655 1_665 108.80(11)
loop_
_geom_bond_atom_site_label_1
_geom_bond_atom_site_label_2
_geom_bond_site_symmetry_2
_geom_bond_distance
Se1 O3 . 1.625(4)
Se1 O4 . 1.646(5)
Se1 O1 . 1.648(5)
Se1 O2 . 1.658(4)
Mg1 O5 . 2.028(5)
Mg1 O5 2_566 2.028(5)
Mg1 O1 2_666 2.086(5)
Mg1 O1 1_455 2.086(5)
Mg1 O2 2_566 2.137(5)
Mg1 O2 . 2.137(5)
O5 Na1 1_455 2.369(5)
O4 Na1 1_545 2.395(5)
O2 Na1 1_445 2.605(6)
O2 Na1 2_666 2.727(6)
O3 Na1 2_665 2.503(6)
O3 Na1 . 2.516(6)
O1 Mg1 1_655 2.086(5)
O1 Na1 1_545 2.816(6)
O1 Na1 2_666 3.006(6)
Na1 O5 1_655 2.369(5)
Na1 O4 1_565 2.395(5)
Na1 O3 2_665 2.503(6)
Na1 O2 1_665 2.605(6)
Na1 O2 2_666 2.727(6)
Na1 O1 1_565 2.816(6)
Na1 O1 2_666 3.006(6)
loop_
_geom_hbond_atom_site_label_D
_geom_hbond_atom_site_label_H
_geom_hbond_atom_site_label_A
_geom_hbond_site_symmetry_A
_geom_hbond_distance_DH
_geom_hbond_distance_HA
_geom_hbond_distance_DA
_geom_hbond_angle_DHA
O5 H5B O4 2 0.80(10) 1.92(10) 2.709(7) 171(8)
O5 H5A O4 1_565 0.81(11) 1.93(11) 2.703(7) 161(9)

_cod_database_fobs_code 2020805
