#------------------------------------------------------------------------------
#$Date: 2018-01-24 08:30:12 +0200 (Wed, 24 Jan 2018) $
#$Revision: 205533 $
#$URL: file:///home/coder/svn-repositories/cod/cif/2/02/09/2020959.cif $
#------------------------------------------------------------------------------
#
# This file is available in the Crystallography Open Database (COD),
# http://www.crystallography.net/. The original data for this entry
# were provided by IUCr Journals, http://journals.iucr.org/.
#
# The file may be used within the scientific community so long as
# proper attribution is given to the journal article from which the
# data were obtained.
#
data_2020959
loop_
_publ_author_name
'Sohr, Julia'
'Schmidt, Horst'
'Voigt, Wolfgang'
_publ_section_title
;
 Higher hydrates of lithium chloride, lithium bromide and lithium iodide
;
_journal_coeditor_code           QF3002
_journal_issue                   2
_journal_name_full               'Acta Crystallographica Section C'
_journal_page_first
;
;
_journal_paper_doi               10.1107/S2053229618001183
_journal_volume                  74
_journal_year                    2018
_chemical_formula_iupac          'Li Cl, 3H2 O'
_chemical_formula_moiety         'Cl, 3(H2 O), Li'
_chemical_formula_sum            'Cl H6 Li O3'
_chemical_formula_weight         96.44
_chemical_name_systematic
;
Lithium chloride trihydrate
;
_space_group_crystal_system      orthorhombic
_space_group_IT_number           63
_space_group_name_Hall           '-C 2c 2'
_space_group_name_H-M_alt        'C m c m'
_symmetry_space_group_name_Hall  '-C 2c 2'
_symmetry_space_group_name_H-M   'C m c m'
_atom_sites_solution_hydrogens   difmap
_audit_creation_method           SHELXL-2014/7
_cell_angle_alpha                90
_cell_angle_beta                 90
_cell_angle_gamma                90
_cell_formula_units_Z            4
_cell_length_a                   7.1626(11)
_cell_length_b                   10.351(2)
_cell_length_c                   5.6038(8)
_cell_measurement_reflns_used    9694
_cell_measurement_temperature    150
_cell_measurement_theta_max      30.92
_cell_measurement_theta_min      2.01
_cell_volume                     415.47(12)
_computing_cell_refinement
;
X-AREA (Stoe & Cie, 2015)
;
_computing_data_collection
;
X-AREA (Stoe & Cie, 2015)
;
_computing_data_reduction
;
X-RED (Stoe & Cie, 2015)
;
_computing_molecular_graphics
;
DIAMOND (Brandenburg, 2017)
;
_computing_publication_material
;
publCIF (Westrip, 2010)
;
_computing_structure_refinement
;
SHELXL2014 (Sheldrick, 2015)
;
_computing_structure_solution
;
SHELXS97 (Sheldrick, 2008)
;
_diffrn_ambient_temperature      150
_diffrn_detector_area_resol_mean 6.67
_diffrn_measured_fraction_theta_full 0.996
_diffrn_measured_fraction_theta_max 0.995
_diffrn_measurement_device_type  'Stoe IPDS 2T'
_diffrn_measurement_method       'rotation method'
_diffrn_radiation_type           MoK\a
_diffrn_radiation_wavelength     0.71073
_diffrn_reflns_av_R_equivalents  0.0411
_diffrn_reflns_limit_h_max       9
_diffrn_reflns_limit_h_min       -10
_diffrn_reflns_limit_k_max       14
_diffrn_reflns_limit_k_min       -14
_diffrn_reflns_limit_l_max       7
_diffrn_reflns_limit_l_min       -8
_diffrn_reflns_number            365
_diffrn_reflns_theta_full        25.242
_diffrn_reflns_theta_max         30.496
_diffrn_reflns_theta_min         3.459
_exptl_absorpt_coefficient_mu    0.752
_exptl_absorpt_correction_T_max  0.9317
_exptl_absorpt_correction_T_min  0.7872
_exptl_absorpt_correction_type   integration
_exptl_absorpt_process_details
;
(Coppens, 1970)
;
_exptl_crystal_colour            colourless
_exptl_crystal_density_diffrn    1.542
_exptl_crystal_description       needle
_exptl_crystal_F_000             200
_exptl_crystal_size_max          0.4
_exptl_crystal_size_mid          0.25
_exptl_crystal_size_min          0.1
_refine_diff_density_max         0.164
_refine_diff_density_min         -0.196
_refine_ls_extinction_coef       0.318(12)
_refine_ls_extinction_expression Fc^*^=kFc[1+0.001xFc^2^\l^3^/sin(2\q)]^-1/4^
_refine_ls_extinction_method
;
SHELXL2016 (Sheldrick, 2015)
;
_refine_ls_goodness_of_fit_ref   1.024
_refine_ls_hydrogen_treatment    refall
_refine_ls_matrix_type           full
_refine_ls_number_parameters     29
_refine_ls_number_reflns         365
_refine_ls_number_restraints     0
_refine_ls_restrained_S_all      1.024
_refine_ls_R_factor_all          0.0141
_refine_ls_R_factor_gt           0.0127
_refine_ls_shift/su_max          0.001
_refine_ls_shift/su_mean         0.000
_refine_ls_structure_factor_coef Fsqd
_refine_ls_weighting_details
'w=1/[\s^2^(Fo^2^)+(0.0280P)^2^+0.0220P] where P=(Fo^2^+2Fc^2^)/3'
_refine_ls_weighting_scheme      calc
_refine_ls_wR_factor_gt          0.0326
_refine_ls_wR_factor_ref         0.0334
_reflns_number_gt                350
_reflns_number_total             365
_reflns_threshold_expression     'I > 2\s(I)'
_cod_data_source_file            qf3002sup1.cif
_cod_data_source_block           LiCl.3H2O
_cod_original_cell_volume        415.48(12)
_cod_database_code               2020959
_shelx_space_group_comment
;
The symmetry employed for this shelxl refinement is uniquely defined
by the following loop, which should always be used as a source of
symmetry information in preference to the above space-group names.
They are only intended as comments.
;
_shelx_hkl_file
;
   2   0   0 3430.75   12.93   0
   4   0   0 8679.08   12.19   0
   6   0   0 5189.81    8.52   0
   8   0   0  782.46    3.73   0
  10   0   0 2095.60    5.80   0
   1   1   0  372.90    5.59   0
   3   1   0 2462.77    9.01   0
   5   1   0 1304.53    5.11   0
   7   1   0  184.98    2.54   0
   9   1   0   21.46    2.37   0
   0   2   0    5.32    3.19   0
   2   2   0 7873.95   14.54   0
   4   2   0 1071.98    5.22   0
   6   2   0  579.21    4.07   0
   8   2   0 1546.90    4.79   0
  10   2   0   47.65    2.61   0
   1   3   0  259.08    3.39   0
   3   3   0  570.56    4.40   0
   5   3   0  249.81    3.05   0
   7   3   0  206.34    3.09   0
   9   3   0   17.35    2.41   0
   0   4   0 2141.21    7.25   0
   2   4   0  295.10    3.58   0
   4   4   0  839.03    4.53   0
   6   4   0  727.25    4.61   0
   8   4   0  215.74    3.02   0
   1   5   0 4320.59    9.30   0
   3   5   0 4002.96    8.67   0
   5   5   0 2062.55    6.38   0
   7   5   0 1474.87    5.23   0
   9   5   0  723.56    3.82   0
   0   6   0 1432.01    5.27   0
   2   6   0  111.11    2.41   0
   4   6   0  394.63    3.30   0
   6   6   0  418.07    3.56   0
   8   6   0   36.68    2.68   0
   1   7   0 3437.20    7.48   0
   3   7   0  733.79    3.88   0
   5   7   0 3119.23    7.09   0
   7   7   0  473.83    3.69   0
   9   7   0  577.88    5.72   0
   0   8   0   25.21    2.11   0
   2   8   0 2238.58    6.05   0
   4   8   0  474.35    3.34   0
   6   8   0  120.82    2.70   0
   8   8   0  707.20    4.14   0
   1   9   0  886.08    4.07   0
   3   9   0 3338.40    6.86   0
   5   9   0  117.14    2.56   0
   7   9   0 1381.65    5.27   0
   0  10   0  154.90    2.53   0
   2  10   0  875.40    4.02   0
   4  10   0   35.90    2.29   0
   6  10   0    4.94    2.46   0
   1  11   0 1245.07    4.43   0
   3  11   0  134.49    2.61   0
   5  11   0 1505.53    5.08   0
   0  12   0 1231.05    4.43   0
   2  12   0   95.94    2.48   0
   4  12   0  461.66    3.40   0
   1  13   0 1043.83    4.26   0
   3  13   0 1446.73    4.97   0
   0  14   0  402.00    3.37   0
   2  14   0  517.16    3.62   0
   1   1   1 1745.95    9.09   0
   3   1   1 2882.62    8.82   0
   5   1   1  444.14    3.50   0
   7   1   1 1125.12    4.98   0
   9   1   1  426.04    3.28   0
   0   2   1  301.62    4.17   0
   2   2   1 6764.27   13.93   0
   4   2   1 1044.28    5.07   0
   6   2   1  475.91    3.84   0
   8   2   1  896.59    4.29   0
  10   2   1   25.00    2.71   0
   1   3   1 7630.61   14.20   0
   3   3   1 1071.59    5.36   0
   5   3   1 5769.49   10.19   0
   7   3   1  624.19    4.13   0
   9   3   1  927.05    4.48   0
   0   4   1 7219.68   12.74   0
   2   4   1   20.74    2.54   0
   4   4   1 1572.65    5.80   0
   6   4   1 1245.23    4.97   0
   8   4   1    7.59    2.45   0
   1   5   1 1527.59    5.81   0
   3   5   1 5970.80   10.47   0
   5   5   1   56.61    2.47   0
   7   5   1 1959.47    6.17   0
   9   5   1  324.55    3.36   0
   0   6   1  243.75    2.97   0
   2   6   1 2645.84    6.89   0
   4   6   1  340.19    3.19   0
   6   6   1  131.65    2.72   0
   8   6   1  979.20    4.82   0
   1   7   1  227.11    2.73   0
   3   7   1  244.86    2.82   0
   5   7   1  611.07    3.77   0
   7   7   1   37.07    2.64   0
   0   8   1 3789.44    7.60   0
   2   8   1 1154.58    4.62   0
   4   8   1 1933.25    5.59   0
   6   8   1 1421.13    5.13   0
   8   8   1  384.87    3.56   0
   1   9   1   50.31    2.24   0
   3   9   1    1.79    2.11   0
   5   9   1   59.11    2.36   0
   7   9   1    0.57    2.62   0
   0  10   1 2755.63    6.25   0
   2  10   1 2231.22    5.78   0
   4  10   1 1849.17    5.35   0
   6  10   1 1425.93    5.13   0
   1  11   1   50.69    2.31   0
   3  11   1   18.26    2.25   0
   5  11   1  111.22    2.64   0
   0  12   1  252.66    2.91   0
   2  12   1 1453.08    4.82   0
   4  12   1  541.65    3.56   0
   1  13   1  133.30    2.72   0
   3  13   1  710.89    3.89   0
   0  14   1  901.11    4.13   0
   2  14   1    9.34    2.57   0
   2   0   2  862.36    5.56   0
   4   0   2 5136.41   10.41   0
   6   0   2 3056.43    7.29   0
   8   0   2  332.91    3.36   0
   1   1   2   13.88    2.53   0
   3   1   2 2861.59    8.48   0
   5   1   2  389.59    3.40   0
   7   1   2  471.82    3.55   0
   9   1   2   -0.01    2.67   0
   0   2   2  284.68    3.83   0
   2   2   2 7928.28   13.13   0
   4   2   2 1889.37    6.57   0
   6   2   2 1121.86    4.90   0
   8   2   2 1925.81    6.10   0
   1   3   2  131.34    3.15   0
   3   3   2 1548.47    5.94   0
   5   3   2    4.34    2.36   0
   7   3   2  524.95    3.80   0
   9   3   2   80.44    2.83   0
   0   4   2  664.00    4.35   0
   2   4   2    6.17    2.16   0
   4   4   2  213.75    2.89   0
   6   4   2  241.44    2.97   0
   8   4   2   47.88    2.58   0
   1   5   2 2288.11    6.73   0
   3   5   2 2108.96    6.29   0
   5   5   2 1035.37    4.67   0
   7   5   2  821.60    4.33   0
   9   5   2  418.74    3.61   0
   0   6   2 2411.52    6.61   0
   2   6   2  671.73    3.89   0
   4   6   2  972.97    4.51   0
   6   6   2  792.13    4.26   0
   8   6   2  142.48    3.06   0
   1   7   2 4160.16    8.11   0
   3   7   2 1320.81    4.93   0
   5   7   2 3551.78    7.63   0
   7   7   2  703.36    4.19   0
   0   8   2   41.69    2.31   0
   2   8   2 1120.41    4.50   0
   4   8   2  128.78    2.62   0
   6   8   2   13.37    2.42   0
   8   8   2  427.50    3.87   0
   1   9   2  339.06    3.06   0
   3   9   2 2015.86    5.69   0
   5   9   2   15.00    2.43   0
   7   9   2  890.72    4.56   0
   0  10   2  367.14    3.05   0
   2  10   2  400.72    3.11   0
   4  10   2    1.64    2.33   0
   6  10   2   16.28    2.61   0
   1  11   2 1538.67    4.86   0
   3  11   2  278.81    3.00   0
   5  11   2 1649.43    5.39   0
   0  12   2 1506.84    4.88   0
   2  12   2  221.81    2.88   0
   4  12   2  615.13    3.75   0
   1  13   2  688.69    3.82   0
   3  13   2 1006.27    4.36   0
   0  14   2  239.77    3.17   0
   2  14   2  347.20    3.48   0
   1   1   3 1177.53    5.80   0
   3   1   3 2120.86    7.03   0
   5   1   3  480.25    3.77   0
   7   1   3  893.26    4.36   0
   9   1   3  334.19    3.64   0
   0   2   3   82.29    2.71   0
   2   2   3 3493.78    8.93   0
   4   2   3  556.63    3.95   0
   6   2   3  292.74    3.30   0
   8   2   3  674.30    4.14   0
   1   3   3 4978.29   10.44   0
   3   3   3  855.14    4.59   0
   5   3   3 4154.98    8.95   0
   7   3   3  481.87    3.79   0
   9   3   3  704.86    4.42   0
   0   4   3 4471.20    9.42   0
   2   4   3    2.43    2.25   0
   4   4   3 1023.22    4.71   0
   6   4   3  889.59    4.55   0
   8   4   3    4.42    2.57   0
   1   5   3  876.95    4.38   0
   3   5   3 3771.26    8.23   0
   5   5   3   43.36    2.56   0
   7   5   3 1434.39    5.40   0
   0   6   3   44.17    2.26   0
   2   6   3 1908.91    5.92   0
   4   6   3  277.27    2.97   0
   6   6   3  118.26    2.81   0
   8   6   3  740.58    4.50   0
   1   7   3  134.12    2.62   0
   3   7   3  142.04    2.65   0
   5   7   3  444.74    3.45   0
   7   7   3   27.86    2.76   0
   0   8   3 3064.62    6.91   0
   2   8   3 1014.53    4.36   0
   4   8   3 1555.10    5.22   0
   6   8   3 1102.71    4.88   0
   1   9   3   34.66    2.32   0
   3   9   3    0.53    2.30   0
   5   9   3   49.58    2.54   0
   7   9   3    3.22    2.73   0
   0  10   3 2189.51    5.83   0
   2  10   3 1753.46    5.29   0
   4  10   3 1417.37    4.97   0
   6  10   3 1089.18    4.88   0
   1  11   3   31.84    2.39   0
   3  11   3   19.44    2.44   0
   5  11   3   82.15    2.75   0
   0  12   3  205.78    2.85   0
   2  12   3 1126.58    4.53   0
   4  12   3  418.45    3.56   0
   1  13   3  108.23    2.80   0
   0   0   4 9999.99   11.89   0
   2   0   4 1370.88    5.21   0
   4   0   4 4142.16    9.14   0
   6   0   4 2745.87    7.66   0
   8   0   4  407.22    3.76   0
   1   1   4  202.78    2.87   0
   3   1   4  424.91    3.58   0
   5   1   4  666.03    4.29   0
   7   1   4   96.93    2.95   0
   0   2   4   16.35    2.40   0
   2   2   4 2900.07    7.68   0
   4   2   4  559.20    3.95   0
   6   2   4  360.32    3.54   0
   8   2   4  931.45    4.69   0
   1   3   4    1.77    2.23   0
   3   3   4  369.00    3.54   0
   5   3   4   40.35    2.47   0
   7   3   4  156.88    3.04   0
   0   4   4 1195.88    5.14   0
   2   4   4  372.26    3.52   0
   4   4   4  616.76    3.92   0
   6   4   4  446.65    3.78   0
   8   4   4  122.55    3.21   0
   1   5   4 2336.45    6.68   0
   3   5   4 2163.75    6.39   0
   5   5   4 1217.55    5.09   0
   7   5   4  846.77    4.62   0
   0   6   4  802.73    4.21   0
   2   6   4  126.40    2.61   0
   4   6   4  289.01    3.16   0
   6   6   4  267.19    3.37   0
   1   7   4 1768.20    5.65   0
   3   7   4  472.47    3.45   0
   5   7   4 1731.34    5.75   0
   7   7   4  276.05    3.58   0
   0   8   4   17.65    2.20   0
   2   8   4 1176.31    4.75   0
   4   8   4  239.11    2.97   0
   6   8   4   73.89    2.82   0
   1   9   4  544.22    3.51   0
   3   9   4 1835.96    5.67   0
   5   9   4   69.54    2.79   0
   0  10   4   69.87    2.52   0
   2  10   4  507.10    3.53   0
   4  10   4   20.22    2.59   0
   1  11   4  719.20    3.96   0
   3  11   4   83.79    2.71   0
   0  12   4  749.13    4.14   0
   2  12   4   64.61    2.87   0
   1   1   5  766.83    4.31   0
   3   1   5 1221.83    4.81   0
   5   1   5  336.74    3.59   0
   7   1   5  529.59    4.46   0
   0   2   5   66.15    2.59   0
   2   2   5 1413.60    5.17   0
   4   2   5  301.24    3.28   0
   6   2   5  165.33    3.19   0
   1   3   5 2358.84    6.84   0
   3   3   5  515.28    3.83   0
   5   3   5 2298.07    7.08   0
   7   3   5  269.59    3.77   0
   0   4   5 2023.57    6.64   0
   2   4   5    9.47    2.45   0
   4   4   5  552.18    4.05   0
   6   4   5  490.31    3.99   0
   1   5   5  526.40    3.92   0
   3   5   5 2004.82    6.36   0
   5   5   5   35.91    2.60   0
   7   5   5  845.79    5.04   0
   0   6   5   -0.55    2.30   0
   2   6   5 1168.58    5.03   0
   4   6   5  196.35    3.10   0
   6   6   5   83.18    3.03   0
   1   7   5   81.06    2.58   0
   3   7   5   60.08    2.60   0
   5   7   5  249.73    3.27   0
   0   8   5 1708.29    5.71   0
   2   8   5  580.42    3.90   0
   4   8   5  903.89    4.55   0
   1   9   5   17.39    2.58   0
   3   9   5    2.32    2.55   0
   5   9   5   21.73    2.73   0
   0  10   5 1303.28    5.04   0
   2  10   5 1028.77    4.69   0
   1  11   5   31.02    2.71   0
   0   0   6 3503.80    6.72   0
   2   0   6  390.90    3.45   0
   4   0   6 1407.79    5.28   0
   6   0   6 1076.47    5.03   0
   1   1   6    2.16    2.10   0
   3   1   6  422.34    3.52   0
   5   1   6  129.41    2.89   0
   0   2   6  301.25    2.81   0
   2   2   6 2086.63    6.18   0
   4   2   6  653.25    4.02   0
   6   2   6  380.76    3.68   0
   1   3   6  113.85    2.53   0
   3   3   6  451.62    3.54   0
   5   3   6    6.02    2.54   0
   0   4   6  263.65    3.22   0
   2   4   6   48.04    2.58   0
   4   4   6  132.47    2.82   0
   6   4   6   98.78    3.00   0
   1   5   6  634.22    4.13   0
   3   5   6  616.31    4.12   0
   5   5   6  359.46    3.65   0
   0   6   6  679.26    4.46   0
   2   6   6  199.61    3.13   0
   4   6   6  309.11    3.45   0
   1   7   6 1311.84    5.55   0
   3   7   6  449.62    3.79   0
   0   8   6   17.81    2.72   0
   2   8   6  346.98    3.63   0
   1   9   6  158.22    3.18   0
   1   1   7  351.51    3.01   0
   3   1   7  541.24    4.01   0
   0   2   7   37.96    2.42   0
   2   2   7  548.62    3.83   0
   4   2   7  133.10    3.07   0
   1   3   7 1008.76    4.22   0
   3   3   7  235.12    3.39   0
   0   4   7  925.60    4.10   0
   2   4   7   14.38    2.63   0
   4   4   7  273.72    3.54   0
   1   5   7  212.53    3.15   0
   3   5   7  880.34    4.70   0
   0   6   7    3.17    2.55   0
   2   6   7  527.71    4.09   0
   1   7   7   46.40    3.92   0
   0   0   8 1767.86    5.24   0
;
_shelx_hkl_checksum              24595
_shelx_res_file
;
TITL
    licl3_h20.res
    created by SHELXL-2016/6 at 14:45:00 on 15-Jan-2018
CELL  0.71073  7.16260 10.35130  5.60380 90.00000 90.00000 90.00000
ZERR 4  0.00110  0.00220  0.00080  0.00000  0.00000  0.00000
LATT 7
SYMM -X, -Y, Z+ 0.50000
SYMM X, -Y, -Z
SYMM -X, Y, -Z+ 0.50000
SFAC Li Cl O  H
UNIT 4  4  12  24
OMIT 0 80
L.S. 12
ACTA
BOND
FMAP 2
PLAN 2
WGHT    0.028000    0.022000
EXTI    0.318208
FVAR       1.61868
MOLE 1
CL1   2    0.500000    0.277140    0.750000    10.25000    0.01365    0.00741 =
         0.01507    0.00000    0.00000    0.00000
LI1   1    0.500000    0.500000    1.000000    10.25000    0.01283    0.02281 =
         0.01182    0.00392    0.00000    0.00000
O1    3    0.696968    0.552024    0.750000    10.50000    0.00949    0.00984 =
         0.01208    0.00000    0.00000   -0.00148
O2    3    0.000000    0.378870    0.750000    10.25000    0.01509    0.01584 =
         0.01424    0.00000    0.00000    0.00000
H1B   4    0.750618    0.619365    0.750000    10.50000    0.02729
H1A   4    0.778602    0.502174    0.750000    10.50000    0.01982
H2    4    0.000000    0.334653    0.646541    10.50000    0.03782
HKLF 4
REM
REM R1 =  0.0127 for     350 Fo > 4sig(Fo)  and  0.0141 for all     365 data
REM     29 parameters refined using      0 restraints
END
WGHT      0.0239      0.0155
REM Highest difference peak  0.164,  deepest hole -0.196,  1-sigma level  0.040
Q1    1   0.7999  0.4589  0.7500  10.50000  0.05    0.15
Q2    1   0.4138  0.3596  0.7500  10.50000  0.05    0.13
;
_shelx_res_checksum              33077
loop_
_space_group_symop_operation_xyz
'x, y, z'
'-x, -y, z+1/2'
'x, -y, -z'
'-x, y, -z+1/2'
'x+1/2, y+1/2, z'
'-x+1/2, -y+1/2, z+1/2'
'x+1/2, -y+1/2, -z'
'-x+1/2, y+1/2, -z+1/2'
'-x, -y, -z'
'x, y, -z-1/2'
'-x, y, z'
'x, -y, z-1/2'
'-x+1/2, -y+1/2, -z'
'x+1/2, y+1/2, -z-1/2'
'-x+1/2, y+1/2, z'
'x+1/2, -y+1/2, z-1/2'
loop_
_atom_site_type_symbol
_atom_site_label
_atom_site_fract_x
_atom_site_fract_y
_atom_site_fract_z
_atom_site_U_iso_or_equiv
_atom_site_adp_type
_atom_site_calc_flag
_atom_site_occupancy
Cl Cl1 0.500000 0.27714(2) 0.750000 0.01204(12) Uani d 1
Li Li1 0.500000 0.500000 1.000000 0.0158(3) Uani d 1
O O1 0.69697(7) 0.55202(4) 0.750000 0.01047(13) Uani d 1
O O2 0.000000 0.37887(7) 0.750000 0.01506(16) Uani d 1
H H1B 0.7506(19) 0.6194(11) 0.750000 0.027(3) Uiso d 1
H H1A 0.7786(16) 0.5022(11) 0.750000 0.020(2) Uiso d 1
H H2 0.000000 0.3347(12) 0.647(2) 0.038(3) Uiso d 1
loop_
_atom_site_aniso_label
_atom_site_aniso_U_11
_atom_site_aniso_U_22
_atom_site_aniso_U_33
_atom_site_aniso_U_12
_atom_site_aniso_U_13
_atom_site_aniso_U_23
Cl1 0.01365(14) 0.00741(14) 0.01507(14) 0.000 0.000 0.000
Li1 0.0128(6) 0.0228(7) 0.0118(7) 0.000 0.000 0.0039(6)
O1 0.0095(2) 0.0098(2) 0.0121(2) -0.00148(18) 0.000 0.000
O2 0.0151(3) 0.0158(3) 0.0142(3) 0.000 0.000 0.000
loop_
_atom_type_symbol
_atom_type_description
_atom_type_scat_dispersion_real
_atom_type_scat_dispersion_imag
_atom_type_scat_source
Li Li -0.0003 0.0001 'International Tables Vol C Tables 4.2.6.8 and 6.1.1.4'
Cl Cl 0.1484 0.1585 'International Tables Vol C Tables 4.2.6.8 and 6.1.1.4'
O O 0.0106 0.0060 'International Tables Vol C Tables 4.2.6.8 and 6.1.1.4'
H H 0.0000 0.0000 'International Tables Vol C Tables 4.2.6.8 and 6.1.1.4'
loop_
_geom_angle_atom_site_label_1
_geom_angle_atom_site_label_2
_geom_angle_atom_site_label_3
_geom_angle_site_symmetry_1
_geom_angle_site_symmetry_3
_geom_angle
Li1 Cl1 Li1 . 2_664 62.540(14)
O1 Li1 O1 . 11_655 86.46(2)
O1 Li1 O1 . 3_567 93.54(2)
O1 Li1 O1 11_655 3_567 180.0
O1 Li1 O1 . 9_667 180.0
O1 Li1 O1 11_655 9_667 93.54(2)
O1 Li1 O1 3_567 9_667 86.46(2)
O1 Li1 Cl1 . . 82.555(14)
O1 Li1 Cl1 11_655 . 82.555(14)
O1 Li1 Cl1 3_567 . 97.445(14)
O1 Li1 Cl1 9_667 . 97.445(15)
O1 Li1 Cl1 . 9_667 97.445(14)
O1 Li1 Cl1 11_655 9_667 97.445(14)
O1 Li1 Cl1 3_567 9_667 82.555(14)
O1 Li1 Cl1 9_667 9_667 82.555(14)
Cl1 Li1 Cl1 . 9_667 180.0
O1 Li1 Li1 . 2_665 132.853(11)
O1 Li1 Li1 11_655 2_665 132.853(11)
O1 Li1 Li1 3_567 2_665 47.147(11)
O1 Li1 Li1 9_667 2_665 47.147(11)
Cl1 Li1 Li1 . 2_665 121.270(7)
Cl1 Li1 Li1 9_667 2_665 58.730(7)
O1 Li1 Li1 . 2_664 47.147(11)
O1 Li1 Li1 11_655 2_664 47.147(11)
O1 Li1 Li1 3_567 2_664 132.853(11)
O1 Li1 Li1 9_667 2_664 132.853(11)
Cl1 Li1 Li1 . 2_664 58.730(7)
Cl1 Li1 Li1 9_667 2_664 121.270(7)
Li1 Li1 Li1 2_665 2_664 180.0
Li1 O1 Li1 2_664 . 85.71(2)
loop_
_geom_bond_atom_site_label_1
_geom_bond_atom_site_label_2
_geom_bond_site_symmetry_2
_geom_bond_distance
Cl1 Li1 . 2.6990(5)
Cl1 Li1 2_664 2.6990(5)
Li1 O1 . 2.0599(4)
Li1 O1 11_655 2.0599(4)
Li1 O1 3_567 2.0599(4)
Li1 O1 9_667 2.0599(4)
Li1 Li1 2_665 2.8019(4)
Li1 Li1 2_664 2.8019(4)
loop_
_geom_hbond_atom_site_label_D
_geom_hbond_atom_site_label_H
_geom_hbond_atom_site_label_A
_geom_hbond_site_symmetry_A
_geom_hbond_distance_DH
_geom_hbond_distance_HA
_geom_hbond_distance_DA
_geom_hbond_angle_DHA
O2 H2 Cl1 13_556 0.739(12) 2.505(12) 3.2340(5) 169.2(12)
O1 H1A O2 1_655 0.780(12) 2.036(12) 2.8149(8) 177.4(12)
O1 H1B Cl1 5 0.796(12) 2.420(13) 3.1845(7) 161.3(12)
