#------------------------------------------------------------------------------
#$Date: 2015-09-21 03:45:58 +0300 (Mon, 21 Sep 2015) $
#$Revision: 158199 $
#$URL: svn://www.crystallography.net/cod/cif/2/02/01/2020124.cif $
#------------------------------------------------------------------------------
#
# This file is available in the Crystallography Open Database (COD),
# http://www.crystallography.net/. The original data for this entry
# were provided by IUCr Journals, http://journals.iucr.org/.
#
# The file may be used within the scientific community so long as
# proper attribution is given to the journal article from which the
# data were obtained.
#
data_2020124
loop_
_publ_author_name
'Prakash, Jai'
'Sch\"afer, Marion C.'
'Bobev, Svilen'
_publ_section_title
;
 Synthesis and structure determination of seven ternary bismuthides:
 crystal chemistry of the <i>RE</i>Li~3~Bi~2~ family (<i>RE</i> = La--Nd,
 Sm, Gd, and Tb)
;
_journal_coeditor_code           SK3600
_journal_issue                   10
_journal_name_full               'Acta Crystallographica Section C'
_journal_page_first
;
;
_journal_paper_doi               10.1107/S2053229615016393
_journal_volume                  71
_journal_year                    2015
_chemical_formula_iupac          'Sm Li3 Bi2'
_chemical_formula_sum            'Bi2 Li3 Sm'
_chemical_formula_weight         589.13
_chemical_name_systematic
;
Samarium trilithium dibismuthide
;
_space_group_crystal_system      trigonal
_space_group_IT_number           164
_space_group_name_Hall           '-P 3 2"'
_space_group_name_H-M_alt        'P -3 m 1'
_symmetry_space_group_name_Hall  '-P 3 2"'
_symmetry_space_group_name_H-M   'P -3 m 1'
_atom_sites_solution_primary     direct
_atom_sites_solution_secondary   difmap
_audit_creation_method           SHELXL
_cell_angle_alpha                90.00
_cell_angle_beta                 90.00
_cell_angle_gamma                120.00
_cell_formula_units_Z            1
_cell_length_a                   4.6398(5)
_cell_length_b                   4.6398(5)
_cell_length_c                   7.3624(16)
_cell_measurement_reflns_used    1075
_cell_measurement_temperature    200(2)
_cell_measurement_theta_max      30.84
_cell_measurement_theta_min      2.77
_cell_volume                     137.26(4)
_computing_cell_refinement
;
SAINT (Bruker, 2007)
;
_computing_data_collection
;
APEX2 (Bruker, 2007)
;
_computing_data_reduction
;
SAINT (Bruker, 2007)
;
_computing_molecular_graphics
;
CrystalMaker (Palmer, 2007)
;
_computing_publication_material
;
publCIF (Westrip, 2010)
;
_computing_structure_refinement
;
SHELXTL (Sheldrick, 2008)
;
_computing_structure_solution
;
SHELXS97 (Sheldrick, 2008)
;
_diffrn_ambient_temperature      200(2)
_diffrn_measured_fraction_theta_full 0.995
_diffrn_measured_fraction_theta_max 0.995
_diffrn_measurement_device_type  'Bruker APEXII CCD'
_diffrn_measurement_method       '\f and \w scans'
_diffrn_radiation_monochromator  graphite
_diffrn_radiation_source         'fine-focus sealed tube'
_diffrn_radiation_type           MoK\a
_diffrn_radiation_wavelength     0.71073
_diffrn_reflns_av_R_equivalents  0.0368
_diffrn_reflns_av_sigmaI/netI    0.0179
_diffrn_reflns_limit_h_max       6
_diffrn_reflns_limit_h_min       -6
_diffrn_reflns_limit_k_max       6
_diffrn_reflns_limit_k_min       -6
_diffrn_reflns_limit_l_max       10
_diffrn_reflns_limit_l_min       -10
_diffrn_reflns_number            2112
_diffrn_reflns_theta_full        30.41
_diffrn_reflns_theta_max         30.41
_diffrn_reflns_theta_min         2.77
_exptl_absorpt_coefficient_mu    74.316
_exptl_absorpt_correction_T_max  0.1597
_exptl_absorpt_correction_T_min  0.0825
_exptl_absorpt_correction_type   multi-scan
_exptl_absorpt_process_details
;
(SADABS; Sheldrick, 2008)
;
_exptl_crystal_colour            silver
_exptl_crystal_density_diffrn    7.127
_exptl_crystal_density_method    'not measured'
_exptl_crystal_description       irregular
_exptl_crystal_F_000             237
_exptl_crystal_size_max          0.07
_exptl_crystal_size_mid          0.06
_exptl_crystal_size_min          0.04
_refine_diff_density_max         1.105
_refine_diff_density_min         -1.879
_refine_ls_extinction_coef       0.0159(12)
_refine_ls_extinction_expression Fc^*^=kFc[1+0.001xFc^2^\l^3^/sin(2\q)]^-1/4^
_refine_ls_extinction_method
;
SHELXTL (Sheldrick, 2008)
;
_refine_ls_goodness_of_fit_ref   1.170
_refine_ls_matrix_type           full
_refine_ls_number_parameters     9
_refine_ls_number_reflns         192
_refine_ls_number_restraints     0
_refine_ls_restrained_S_all      1.170
_refine_ls_R_factor_all          0.0162
_refine_ls_R_factor_gt           0.0154
_refine_ls_shift/su_max          0.000
_refine_ls_shift/su_mean         0.000
_refine_ls_structure_factor_coef Fsqd
_refine_ls_weighting_details
'calc w=1/[\s^2^(Fo^2^)+(0.0139P)^2^+0.7111P] where P=(Fo^2^+2Fc^2^)/3'
_refine_ls_weighting_scheme      calc
_refine_ls_wR_factor_gt          0.0336
_refine_ls_wR_factor_ref         0.0342
_reflns_number_gt                187
_reflns_number_total             192
_reflns_threshold_expression     >2sigma(I)
_iucr_refine_instructions_details
;
TITL SmLi3Bi2 after absorption correction and tidy in P-3m1
CELL 0.71073 4.6398 4.6398 7.3624 90 90 120
ZERR 1 0.0005 0.0005 0.0016 0 0 0
LATT 1
SYMM -Y,+X-Y,+Z
SYMM +Y-X,-X,+Z
SYMM +Y,+X,-Z
SYMM -Y+X,-Y,-Z
SYMM -X,-X+Y,-Z
SFAC Bi Li Sm
UNIT 2 3 1
EADP Li1 Li2
SIZE 0.067 0.061 0.039
L.S. 10
PLAN  20
ACTA
TEMP -73
BOND
FMAP -2
WGHT    0.013900    0.711100
EXTI    0.015908
FVAR       0.60595
LI1   2    0.333333    0.666667    0.647787    10.16667    0.02762
LI2   2    0.000000    0.000000    0.500000    10.08333    0.02762
SM1   3    0.000000    0.000000    0.000000    10.08333    0.00711    0.00711 =
         0.00620    0.00000    0.00000    0.00355
BI1   1    0.333333    0.666667    0.247919    10.16667    0.00720    0.00720 =
         0.00769    0.00000    0.00000    0.00360
HKLF 4
REM  SmLi3Bi2 after absorption correction and tidy in P-3m1
REM R1 =  0.0154 for    187 Fo > 4sig(Fo)  and  0.0162 for all    192 data
REM      9 parameters refined using      0 restraints
END
WGHT      0.0139      0.7112
REM Highest difference peak  1.105,  deepest hole -1.879,  1-sigma level  0.289
Q1    1   0.1963  0.1963  0.0000  10.50000  0.05    1.10
Q2    1   0.1435  0.5093  0.2203  11.00000  0.05    1.10
Q3    1   0.7351  0.8675  0.6913  10.50000  0.05    1.03
Q4    1   0.3333  0.6667  0.0177  10.16667  0.05    0.99
Q5    1   0.4468  0.8936  0.0988  10.50000  0.05    0.97
Q6    1   0.1106  0.2213 -0.0427  10.50000  0.05    0.94
Q7    1   0.3333  0.6667  0.5188  10.16667  0.05   -0.85
Q8    1   0.2100  0.4199  0.3764  10.50000  0.05    0.80
Q9    1   0.1557  0.3114  0.7647  10.50000  0.05   -0.77
Q10   1   0.2217  0.4434  0.2987  10.50000  0.05    0.77
Q11   1   0.1969  0.3939  0.1629  10.50000  0.05    0.76
Q12   1   0.3608  0.9348  0.1333  11.00000  0.05   -0.76
Q13   1   0.3333  0.6667  0.4151  10.16667  0.05   -0.73
Q14   1   0.4931  0.2466  0.0068  10.50000  0.05   -0.73
Q15   1   0.5247  0.6426  0.3573  11.00000  0.05   -0.71
Q16   1   0.2685  0.5370  0.4987  10.50000  0.05    0.70
Q17   1   0.0478  0.0956  0.6524  10.50000  0.05   -0.70
Q18   1   0.4489  0.8978  0.0151  10.50000  0.05   -0.69
Q19   1   0.0955  0.0477  0.1832  10.50000  0.05   -0.68
Q20   1  -0.3267  0.0000  0.0000  10.50000  0.05   -0.68
;
_cod_data_source_file            sk3600sup1.cif
_cod_data_source_block           SmLi3Bi2
_cod_database_code               2020124
loop_
_symmetry_equiv_pos_as_xyz
'x, y, z'
'-y, x-y, z'
'-x+y, -x, z'
'y, x, -z'
'x-y, -y, -z'
'-x, -x+y, -z'
'-x, -y, -z'
'y, -x+y, -z'
'x-y, x, -z'
'-y, -x, z'
'-x+y, y, z'
'x, x-y, z'
loop_
_atom_site_type_symbol
_atom_site_label
_atom_site_fract_x
_atom_site_fract_y
_atom_site_fract_z
_atom_site_U_iso_or_equiv
_atom_site_adp_type
_atom_site_calc_flag
_atom_site_refinement_flags
_atom_site_occupancy
_atom_site_symmetry_multiplicity
Li Li1 0.3333 0.6667 0.648(3) 0.028(4) Uiso d S 1 6
Li Li2 0.0000 0.0000 0.5000 0.028(4) Uiso d S 1 12
Sm Sm1 0.0000 0.0000 0.0000 0.00680(18) Uani d S 1 12
Bi Bi1 0.3333 0.6667 0.24792(5) 0.00736(16) Uani d S 1 6
loop_
_atom_site_aniso_label
_atom_site_aniso_U_11
_atom_site_aniso_U_22
_atom_site_aniso_U_33
_atom_site_aniso_U_12
_atom_site_aniso_U_13
_atom_site_aniso_U_23
Sm1 0.0071(2) 0.0071(2) 0.0062(3) 0.00355(12) 0.000 0.000
Bi1 0.00720(18) 0.00720(18) 0.0077(2) 0.00360(9) 0.000 0.000
loop_
_atom_type_symbol
_atom_type_description
_atom_type_scat_dispersion_real
_atom_type_scat_dispersion_imag
_atom_type_scat_source
Bi Bi -4.1077 10.2566 'International Tables Vol C Tables 4.2.6.8 and 6.1.1.4'
Li Li -0.0003 0.0001 'International Tables Vol C Tables 4.2.6.8 and 6.1.1.4'
Sm Sm -0.1638 3.4418 'International Tables Vol C Tables 4.2.6.8 and 6.1.1.4'
loop_
_geom_angle_atom_site_label_1
_geom_angle_atom_site_label_2
_geom_angle_atom_site_label_3
_geom_angle_site_symmetry_1
_geom_angle_site_symmetry_3
_geom_angle
Bi1 Li1 Bi1 7_666 7_676 112.7(4)
Bi1 Li1 Bi1 7_666 7_566 112.7(4)
Bi1 Li1 Bi1 7_676 7_566 112.7(4)
Bi1 Li1 Li2 7_666 1_565 173.9(10)
Bi1 Li1 Li2 7_676 1_565 70.02(5)
Bi1 Li1 Li2 7_566 1_565 70.02(5)
Bi1 Li1 Li2 7_666 . 70.02(5)
Bi1 Li1 Li2 7_676 . 173.9(10)
Bi1 Li1 Li2 7_566 . 70.02(5)
Li2 Li1 Li2 1_565 . 106.7(5)
Bi1 Li1 Li2 7_666 1_665 70.02(5)
Bi1 Li1 Li2 7_676 1_665 70.02(5)
Bi1 Li1 Li2 7_566 1_665 173.9(10)
Li2 Li1 Li2 1_565 1_665 106.7(5)
Li2 Li1 Li2 . 1_665 106.7(5)
Bi1 Li1 Bi1 7_666 . 106.0(5)
Bi1 Li1 Bi1 7_676 . 106.0(5)
Bi1 Li1 Bi1 7_566 . 106.0(5)
Li2 Li1 Bi1 1_565 . 67.9(5)
Li2 Li1 Bi1 . . 67.9(5)
Li2 Li1 Bi1 1_665 . 67.9(5)
Bi1 Li1 Li1 7_666 7_666 55.08(15)
Bi1 Li1 Li1 7_676 7_666 123.1(4)
Bi1 Li1 Li1 7_566 7_666 123.1(4)
Li2 Li1 Li1 1_565 7_666 118.8(11)
Li2 Li1 Li1 . 7_666 53.4(3)
Li2 Li1 Li1 1_665 7_666 53.4(3)
Bi1 Li1 Li1 . 7_666 50.9(7)
Bi1 Li1 Li1 7_666 7_566 123.1(4)
Bi1 Li1 Li1 7_676 7_566 123.1(4)
Bi1 Li1 Li1 7_566 7_566 55.08(16)
Li2 Li1 Li1 1_565 7_566 53.4(3)
Li2 Li1 Li1 . 7_566 53.4(3)
Li2 Li1 Li1 1_665 7_566 118.8(11)
Bi1 Li1 Li1 . 7_566 50.9(7)
Li1 Li1 Li1 7_666 7_566 84.5(10)
Bi1 Li1 Li1 7_666 7_676 123.1(4)
Bi1 Li1 Li1 7_676 7_676 55.08(15)
Bi1 Li1 Li1 7_566 7_676 123.1(4)
Li2 Li1 Li1 1_565 7_676 53.4(3)
Li2 Li1 Li1 . 7_676 118.8(11)
Li2 Li1 Li1 1_665 7_676 53.4(3)
Bi1 Li1 Li1 . 7_676 50.9(7)
Li1 Li1 Li1 7_666 7_676 84.5(10)
Li1 Li1 Li1 7_566 7_676 84.5(10)
Bi1 Li1 Sm1 7_666 1_666 57.5(3)
Bi1 Li1 Sm1 7_676 1_666 57.5(3)
Bi1 Li1 Sm1 7_566 1_666 119.9(8)
Li2 Li1 Sm1 1_565 1_666 126.5(3)
Li2 Li1 Sm1 . 1_666 126.5(3)
Li2 Li1 Sm1 1_665 1_666 66.18(19)
Bi1 Li1 Sm1 . 1_666 134.1(3)
Li1 Li1 Sm1 7_666 1_666 99.2(3)
Li1 Li1 Sm1 7_566 1_666 175.0(9)
Li1 Li1 Sm1 7_676 1_666 99.2(3)
Bi1 Li1 Sm1 7_666 1_566 119.9(8)
Bi1 Li1 Sm1 7_676 1_566 57.5(3)
Bi1 Li1 Sm1 7_566 1_566 57.5(3)
Li2 Li1 Sm1 1_565 1_566 66.18(19)
Li2 Li1 Sm1 . 1_566 126.5(3)
Li2 Li1 Sm1 1_665 1_566 126.5(3)
Bi1 Li1 Sm1 . 1_566 134.1(3)
Li1 Li1 Sm1 7_666 1_566 175.0(9)
Li1 Li1 Sm1 7_566 1_566 99.2(3)
Li1 Li1 Sm1 7_676 1_566 99.2(3)
Sm1 Li1 Sm1 1_666 1_566 77.0(4)
Li1 Li2 Li1 7_556 7_666 106.7(5)
Li1 Li2 Li1 7_556 1_445 73.3(5)
Li1 Li2 Li1 7_666 1_445 180.0000(10)
Li1 Li2 Li1 7_556 . 179.9990(10)
Li1 Li2 Li1 7_666 . 73.3(5)
Li1 Li2 Li1 1_445 . 106.7(5)
Li1 Li2 Li1 7_556 7_566 106.7(5)
Li1 Li2 Li1 7_666 7_566 106.7(5)
Li1 Li2 Li1 1_445 7_566 73.3(5)
Li1 Li2 Li1 . 7_566 73.3(5)
Li1 Li2 Li1 7_556 1_545 73.3(5)
Li1 Li2 Li1 7_666 1_545 73.3(5)
Li1 Li2 Li1 1_445 1_545 106.7(5)
Li1 Li2 Li1 . 1_545 106.7(5)
Li1 Li2 Li1 7_566 1_545 180.0
Li1 Li2 Bi1 7_556 7_666 126.5(2)
Li1 Li2 Bi1 7_666 7_666 56.8(5)
Li1 Li2 Bi1 1_445 7_666 123.2(5)
Li1 Li2 Bi1 . 7_666 53.5(2)
Li1 Li2 Bi1 7_566 7_666 126.5(2)
Li1 Li2 Bi1 1_545 7_666 53.5(2)
Li1 Li2 Bi1 7_556 1_445 53.5(2)
Li1 Li2 Bi1 7_666 1_445 123.2(5)
Li1 Li2 Bi1 1_445 1_445 56.8(5)
Li1 Li2 Bi1 . 1_445 126.5(2)
Li1 Li2 Bi1 7_566 1_445 53.5(2)
Li1 Li2 Bi1 1_545 1_445 126.5(2)
Bi1 Li2 Bi1 7_666 1_445 180.0
Li1 Li2 Bi1 7_556 7_556 56.8(5)
Li1 Li2 Bi1 7_666 7_556 126.5(2)
Li1 Li2 Bi1 1_445 7_556 53.5(2)
Li1 Li2 Bi1 . 7_556 123.2(5)
Li1 Li2 Bi1 7_566 7_556 126.5(2)
Li1 Li2 Bi1 1_545 7_556 53.5(2)
Bi1 Li2 Bi1 7_666 7_556 90.774(12)
Bi1 Li2 Bi1 1_445 7_556 89.226(12)
Li1 Li2 Bi1 7_556 . 123.2(5)
Li1 Li2 Bi1 7_666 . 53.5(2)
Li1 Li2 Bi1 1_445 . 126.5(2)
Li1 Li2 Bi1 . . 56.8(5)
Li1 Li2 Bi1 7_566 . 53.5(2)
Li1 Li2 Bi1 1_545 . 126.5(2)
Bi1 Li2 Bi1 7_666 . 89.226(12)
Bi1 Li2 Bi1 1_445 . 90.774(12)
Bi1 Li2 Bi1 7_556 . 180.0
Li1 Li2 Bi1 7_556 7_566 126.5(2)
Li1 Li2 Bi1 7_666 7_566 126.5(2)
Li1 Li2 Bi1 1_445 7_566 53.5(2)
Li1 Li2 Bi1 . 7_566 53.5(2)
Li1 Li2 Bi1 7_566 7_566 56.8(5)
Li1 Li2 Bi1 1_545 7_566 123.2(5)
Bi1 Li2 Bi1 7_666 7_566 90.774(12)
Bi1 Li2 Bi1 1_445 7_566 89.226(12)
Bi1 Li2 Bi1 7_556 7_566 90.774(12)
Bi1 Li2 Bi1 . 7_566 89.226(12)
Li1 Li2 Bi1 7_556 1_545 53.5(2)
Li1 Li2 Bi1 7_666 1_545 53.5(2)
Li1 Li2 Bi1 1_445 1_545 126.5(2)
Li1 Li2 Bi1 . 1_545 126.5(2)
Li1 Li2 Bi1 7_566 1_545 123.2(5)
Li1 Li2 Bi1 1_545 1_545 56.8(5)
Bi1 Li2 Bi1 7_666 1_545 89.226(12)
Bi1 Li2 Bi1 1_445 1_545 90.774(12)
Bi1 Li2 Bi1 7_556 1_545 89.226(12)
Bi1 Li2 Bi1 . 1_545 90.774(12)
Bi1 Li2 Bi1 7_566 1_545 180.0
Bi1 Sm1 Bi1 7 7_665 91.398(12)
Bi1 Sm1 Bi1 7 1_445 88.602(12)
Bi1 Sm1 Bi1 7_665 1_445 180.0
Bi1 Sm1 Bi1 7 . 180.0
Bi1 Sm1 Bi1 7_665 . 88.602(12)
Bi1 Sm1 Bi1 1_445 . 91.398(12)
Bi1 Sm1 Bi1 7 7_565 91.398(12)
Bi1 Sm1 Bi1 7_665 7_565 91.398(12)
Bi1 Sm1 Bi1 1_445 7_565 88.602(12)
Bi1 Sm1 Bi1 . 7_565 88.602(12)
Bi1 Sm1 Bi1 7 1_545 88.602(12)
Bi1 Sm1 Bi1 7_665 1_545 88.602(12)
Bi1 Sm1 Bi1 1_445 1_545 91.398(12)
Bi1 Sm1 Bi1 . 1_545 91.398(12)
Bi1 Sm1 Bi1 7_565 1_545 180.0
Bi1 Sm1 Li2 7 . 124.270(9)
Bi1 Sm1 Li2 7_665 . 124.270(9)
Bi1 Sm1 Li2 1_445 . 55.730(9)
Bi1 Sm1 Li2 . . 55.730(9)
Bi1 Sm1 Li2 7_565 . 124.269(9)
Bi1 Sm1 Li2 1_545 . 55.731(9)
Bi1 Sm1 Li2 7 1_554 55.730(8)
Bi1 Sm1 Li2 7_665 1_554 55.730(9)
Bi1 Sm1 Li2 1_445 1_554 124.270(9)
Bi1 Sm1 Li2 . 1_554 124.270(9)
Bi1 Sm1 Li2 7_565 1_554 55.731(9)
Bi1 Sm1 Li2 1_545 1_554 124.269(9)
Li2 Sm1 Li2 . 1_554 180.0
Bi1 Sm1 Li1 7 1_444 46.49(5)
Bi1 Sm1 Li1 7_665 1_444 101.7(3)
Bi1 Sm1 Li1 1_445 1_444 78.3(3)
Bi1 Sm1 Li1 . 1_444 133.51(5)
Bi1 Sm1 Li1 7_565 1_444 46.49(5)
Bi1 Sm1 Li1 1_545 1_444 133.51(5)
Li2 Sm1 Li1 . 1_444 134.1(3)
Li2 Sm1 Li1 1_554 1_444 45.9(3)
Bi1 Sm1 Li1 7 7_666 133.51(5)
Bi1 Sm1 Li1 7_665 7_666 78.3(3)
Bi1 Sm1 Li1 1_445 7_666 101.7(3)
Bi1 Sm1 Li1 . 7_666 46.49(5)
Bi1 Sm1 Li1 7_565 7_666 133.51(5)
Bi1 Sm1 Li1 1_545 7_666 46.49(5)
Li2 Sm1 Li1 . 7_666 45.9(3)
Li2 Sm1 Li1 1_554 7_666 134.1(3)
Li1 Sm1 Li1 1_444 7_666 180.0000(10)
Bi1 Sm1 Li1 7 1_554 101.7(3)
Bi1 Sm1 Li1 7_665 1_554 46.49(5)
Bi1 Sm1 Li1 1_445 1_554 133.51(5)
Bi1 Sm1 Li1 . 1_554 78.3(3)
Bi1 Sm1 Li1 7_565 1_554 46.49(5)
Bi1 Sm1 Li1 1_545 1_554 133.51(5)
Li2 Sm1 Li1 . 1_554 134.1(3)
Li2 Sm1 Li1 1_554 1_554 45.9(3)
Li1 Sm1 Li1 1_444 1_554 77.0(4)
Li1 Sm1 Li1 7_666 1_554 103.0(4)
Bi1 Sm1 Li1 7 7_556 78.3(3)
Bi1 Sm1 Li1 7_665 7_556 133.51(5)
Bi1 Sm1 Li1 1_445 7_556 46.49(5)
Bi1 Sm1 Li1 . 7_556 101.7(3)
Bi1 Sm1 Li1 7_565 7_556 133.51(5)
Bi1 Sm1 Li1 1_545 7_556 46.49(5)
Li2 Sm1 Li1 . 7_556 45.9(3)
Li2 Sm1 Li1 1_554 7_556 134.1(3)
Li1 Sm1 Li1 1_444 7_556 103.0(4)
Li1 Sm1 Li1 7_666 7_556 77.0(4)
Li1 Sm1 Li1 1_554 7_556 180.0
Li1 Bi1 Li1 7_666 7_676 112.7(4)
Li1 Bi1 Li1 7_666 7_566 112.7(4)
Li1 Bi1 Li1 7_676 7_566 112.7(4)
Li1 Bi1 Li1 7_666 . 74.0(5)
Li1 Bi1 Li1 7_676 . 74.0(5)
Li1 Bi1 Li1 7_566 . 74.0(5)
Li1 Bi1 Sm1 7_666 . 76.0(3)
Li1 Bi1 Sm1 7_676 . 161.7(5)
Li1 Bi1 Sm1 7_566 . 76.0(3)
Li1 Bi1 Sm1 . . 124.270(9)
Li1 Bi1 Sm1 7_666 1_565 161.7(5)
Li1 Bi1 Sm1 7_676 1_565 76.0(3)
Li1 Bi1 Sm1 7_566 1_565 76.0(3)
Li1 Bi1 Sm1 . 1_565 124.270(9)
Sm1 Bi1 Sm1 . 1_565 91.398(12)
Li1 Bi1 Sm1 7_666 1_665 76.0(3)
Li1 Bi1 Sm1 7_676 1_665 76.0(3)
Li1 Bi1 Sm1 7_566 1_665 161.7(5)
Li1 Bi1 Sm1 . 1_665 124.270(9)
Sm1 Bi1 Sm1 . 1_665 91.398(12)
Sm1 Bi1 Sm1 1_565 1_665 91.398(12)
Li1 Bi1 Li2 7_666 1_565 129.3(5)
Li1 Bi1 Li2 7_676 1_565 56.5(3)
Li1 Bi1 Li2 7_566 1_565 56.5(3)
Li1 Bi1 Li2 . 1_565 55.285(9)
Sm1 Bi1 Li2 . 1_565 131.325(4)
Sm1 Bi1 Li2 1_565 1_565 68.985(12)
Sm1 Bi1 Li2 1_665 1_565 131.325(4)
Li1 Bi1 Li2 7_666 1_665 56.5(3)
Li1 Bi1 Li2 7_676 1_665 56.5(3)
Li1 Bi1 Li2 7_566 1_665 129.3(5)
Li1 Bi1 Li2 . 1_665 55.285(9)
Sm1 Bi1 Li2 . 1_665 131.325(4)
Sm1 Bi1 Li2 1_565 1_665 131.325(4)
Sm1 Bi1 Li2 1_665 1_665 68.985(13)
Li2 Bi1 Li2 1_565 1_665 90.774(12)
Li1 Bi1 Li2 7_666 . 56.5(3)
Li1 Bi1 Li2 7_676 . 129.3(5)
Li1 Bi1 Li2 7_566 . 56.5(3)
Li1 Bi1 Li2 . . 55.285(9)
Sm1 Bi1 Li2 . . 68.985(13)
Sm1 Bi1 Li2 1_565 . 131.325(4)
Sm1 Bi1 Li2 1_665 . 131.325(4)
Li2 Bi1 Li2 1_565 . 90.774(12)
Li2 Bi1 Li2 1_665 . 90.774(12)
loop_
_geom_bond_atom_site_label_1
_geom_bond_atom_site_label_2
_geom_bond_site_symmetry_2
_geom_bond_distance
Li1 Bi1 7_666 2.787(7)
Li1 Bi1 7_676 2.787(7)
Li1 Bi1 7_566 2.787(7)
Li1 Li2 1_565 2.891(10)
Li1 Li2 . 2.891(10)
Li1 Li2 1_665 2.891(10)
Li1 Bi1 . 2.94(3)
Li1 Li1 7_666 3.45(3)
Li1 Li1 7_566 3.45(3)
Li1 Li1 7_676 3.45(3)
Li1 Sm1 1_666 3.728(18)
Li1 Sm1 1_566 3.728(18)
Li2 Li1 7_556 2.891(10)
Li2 Li1 7_666 2.891(10)
Li2 Li1 1_445 2.891(10)
Li2 Li1 7_566 2.891(10)
Li2 Li1 1_545 2.891(10)
Li2 Bi1 7_666 3.2589(4)
Li2 Bi1 1_445 3.2589(4)
Li2 Bi1 7_556 3.2589(4)
Li2 Bi1 . 3.2589(4)
Li2 Bi1 7_566 3.2589(4)
Li2 Bi1 1_545 3.2589(4)
Sm1 Bi1 7 3.2415(4)
Sm1 Bi1 7_665 3.2415(4)
Sm1 Bi1 1_445 3.2415(4)
Sm1 Bi1 . 3.2415(4)
Sm1 Bi1 7_565 3.2415(4)
Sm1 Bi1 1_545 3.2415(4)
Sm1 Li2 1_554 3.6812(8)
Sm1 Li1 1_444 3.728(18)
Sm1 Li1 7_666 3.728(18)
Sm1 Li1 1_554 3.728(18)
Sm1 Li1 7_556 3.728(18)
Bi1 Li1 7_666 2.787(7)
Bi1 Li1 7_676 2.787(7)
Bi1 Li1 7_566 2.787(7)
Bi1 Sm1 1_565 3.2415(4)
Bi1 Sm1 1_665 3.2415(4)
Bi1 Li2 1_565 3.2589(4)
Bi1 Li2 1_665 3.2589(4)

_cod_database_fobs_code 2020124
