#------------------------------------------------------------------------------
#$Date: 2018-01-24 08:30:12 +0200 (Wed, 24 Jan 2018) $
#$Revision: 205533 $
#$URL: file:///home/coder/svn-repositories/cod/cif/2/02/09/2020956.cif $
#------------------------------------------------------------------------------
#
# This file is available in the Crystallography Open Database (COD),
# http://www.crystallography.net/. The original data for this entry
# were provided by IUCr Journals, http://journals.iucr.org/.
#
# The file may be used within the scientific community so long as
# proper attribution is given to the journal article from which the
# data were obtained.
#
data_2020956
loop_
_publ_author_name
'Sohr, Julia'
'Schmidt, Horst'
'Voigt, Wolfgang'
_publ_section_title
;
 Higher hydrates of lithium chloride, lithium bromide and lithium iodide
;
_journal_coeditor_code           QF3002
_journal_issue                   2
_journal_name_full               'Acta Crystallographica Section C'
_journal_page_first
;
;
_journal_paper_doi               10.1107/S2053229618001183
_journal_volume                  74
_journal_year                    2018
_chemical_formula_iupac          'Li Cl, 2H2 O'
_chemical_formula_moiety         'Cl, 2(H2 O), Li'
_chemical_formula_sum            'Cl H4 Li O2'
_chemical_formula_weight         78.42
_chemical_name_systematic
;
Lithium chloride dihydrate
;
_space_group_crystal_system      monoclinic
_space_group_IT_number           14
_space_group_name_Hall           '-P 2ybc'
_space_group_name_H-M_alt        'P 1 21/c 1'
_symmetry_space_group_name_Hall  '-P 2ybc'
_symmetry_space_group_name_H-M   'P 1 21/c 1'
_atom_sites_solution_hydrogens   difmap
_audit_creation_method           SHELXL-2014/7
_cell_angle_alpha                90
_cell_angle_beta                 113.543(3)
_cell_angle_gamma                90
_cell_formula_units_Z            4
_cell_length_a                   6.0838(8)
_cell_length_b                   9.3592(13)
_cell_length_c                   6.0632(9)
_cell_measurement_reflns_used    873
_cell_measurement_temperature    200(2)
_cell_measurement_theta_max      55
_cell_measurement_theta_min      5
_cell_volume                     316.50(8)
_computing_cell_refinement
;
APEX2 (Bruker, 2005)
;
_computing_data_collection
;
APEX2 (Bruker, 2005)
;
_computing_data_reduction
;
APEX2 (Bruker, 2005)
;
_computing_molecular_graphics
;
DIAMOND (Brandenburg, 2017)
;
_computing_publication_material
;
publCIF (Westrip, 2010)
;
_computing_structure_refinement
;
SHELXL2014 (Sheldrick, 2015)
;
_computing_structure_solution
;
SHELXS97 (Sheldrick, 2008)
;
_diffrn_ambient_temperature      200(2)
_diffrn_measured_fraction_theta_full 1.000
_diffrn_measured_fraction_theta_max 0.990
_diffrn_measurement_device_type  'Bruker X8 Kappa APEXII'
_diffrn_measurement_method       '\w and \f scans'
_diffrn_radiation_monochromator  graphite
_diffrn_radiation_source         'fine-focus sealed tube'
_diffrn_radiation_type           MoK\a
_diffrn_radiation_wavelength     0.71073
_diffrn_reflns_av_R_equivalents  0.0206
_diffrn_reflns_limit_h_max       7
_diffrn_reflns_limit_h_min       -7
_diffrn_reflns_limit_k_max       10
_diffrn_reflns_limit_k_min       -11
_diffrn_reflns_limit_l_max       7
_diffrn_reflns_limit_l_min       -7
_diffrn_reflns_number            2451
_diffrn_reflns_theta_full        25.242
_diffrn_reflns_theta_max         31.158
_diffrn_reflns_theta_min         3.653
_diffrn_standards_decay_%        0
_diffrn_standards_interval_count 0
_diffrn_standards_interval_time  0
_diffrn_standards_number         0
_exptl_absorpt_coefficient_mu    0.945
_exptl_absorpt_correction_T_max  0.7462
_exptl_absorpt_correction_T_min  0.6288
_exptl_absorpt_correction_type   numerical
_exptl_absorpt_process_details
;
(APEX2; Bruker, 2005)
;
_exptl_crystal_colour            colourless
_exptl_crystal_density_diffrn    1.646
_exptl_crystal_description       needle
_exptl_crystal_F_000             160.0
_exptl_crystal_size_max          0.3
_exptl_crystal_size_mid          0.2
_exptl_crystal_size_min          0.1
_refine_diff_density_max         0.211
_refine_diff_density_min         -0.206
_refine_ls_extinction_coef       0.111(6)
_refine_ls_extinction_expression Fc^*^=kFc[1+0.001xFc^2^\l^3^/sin(2\q)]^-1/4^
_refine_ls_extinction_method
;
SHELXL2014 (Sheldrick, 2015)
;
_refine_ls_goodness_of_fit_ref   1.087
_refine_ls_hydrogen_treatment    refall
_refine_ls_matrix_type           full
_refine_ls_number_parameters     54
_refine_ls_number_reflns         831
_refine_ls_number_restraints     0
_refine_ls_restrained_S_all      1.087
_refine_ls_R_factor_all          0.0152
_refine_ls_R_factor_gt           0.0147
_refine_ls_shift/su_max          0.001
_refine_ls_shift/su_mean         0.000
_refine_ls_structure_factor_coef Fsqd
_refine_ls_weighting_details
'w=1/[\s^2^(Fo^2^)+(0.0175P)^2^+0.0458P] where P=(Fo^2^+2Fc^2^)/3'
_refine_ls_weighting_scheme      calc
_refine_ls_wR_factor_gt          0.0372
_refine_ls_wR_factor_ref         0.0374
_reflns_number_gt                698
_reflns_number_total             717
_reflns_threshold_expression     'I > 2\s(I)'
_cod_data_source_file            qf3002sup1.cif
_cod_data_source_block           LiCl.2H2O
_cod_database_code               2020956
_shelx_space_group_comment
;
The symmetry employed for this shelxl refinement is uniquely defined
by the following loop, which should always be used as a source of
symmetry information in preference to the above space-group names.
They are only intended as comments.
;
_shelx_hkl_file
;
   0   0   2  788.29   18.52
   0   0   2  839.92   18.48
   0   0  -2  809.17   18.52
   0   0  -2  786.20   18.47
   0   0  -3   -0.02    0.04
   0   0  -3    0.02    0.04
   0   0   3   -0.04    0.03
   0   0  -4  166.07    3.78
   0   0   4  156.24    3.79
   0   0  -5    0.04    0.06
   0   0   5    0.12    0.06
   0   0   6    2.60    0.21
   0   0  -6    2.73    0.20
   0   0  -7    0.00    0.08
   0   1   1    8.69    0.23
   0   1   1    8.55    0.23
   0   1  -1    8.76    0.23
   0   1  -1    8.57    0.24
   0  -1   1    8.73    0.24
   0  -1  -1    8.59    0.23
   0  -1  -1    8.70    0.23
   0  -1   1    8.41    0.23
   0   1   2  138.19    3.17
   0   1  -2  134.82    3.17
   0   1   2  138.37    3.16
   0   1  -2  135.59    3.19
   0  -1   2  137.20    3.19
   0  -1   2  137.69    3.16
   0  -1  -2  137.67    3.17
   0  -1  -2  141.47    3.18
   0   1   3    0.06    0.04
   0   1  -3    0.06    0.05
   0  -1   3    0.01    0.04
   0  -1  -3    0.00    0.04
   0  -1  -3    0.02    0.04
   0   1  -4  163.36    3.80
   0   1   4  157.88    3.81
   0  -1  -4  167.50    3.81
   0  -1   4  159.96    3.82
   0   1   5    2.19    0.16
   0   1  -5    2.22    0.17
   0  -1  -5    2.51    0.18
   0  -1   5    1.98    0.16
   0   1  -6   51.43    1.40
   0   1   6   50.25    1.40
   0  -1   6   51.64    1.42
   0  -1  -6   53.56    1.41
   0   1  -7    7.59    0.38
   0  -1  -7    6.94    0.37
   0   2   0    4.04    0.13
   0   2   0    3.66    0.12
   0  -2   0    4.06    0.12
   0  -2   0    3.88    0.13
   0  -2   0    3.77    0.13
   0   2   1  172.06    4.51
   0   2  -1  195.21    4.37
   0   2  -1  194.43    4.36
   0   2   1  196.52    4.41
   0   2   1  185.91    4.41
   0  -2   1  190.31    4.39
   0  -2  -1  196.22    4.43
   0  -2  -1  192.30    4.38
   0  -2   1  191.79    4.36
   0   2  -2   21.14    0.55
   0   2   2   20.24    0.55
   0   2   2   21.30    0.56
   0   2  -2   21.68    0.58
   0  -2  -2   22.20    0.56
   0  -2   2   21.26    0.58
   0  -2   2   21.26    0.55
   0  -2  -2   22.23    0.56
   0   2  -3   80.38    1.86
   0  -2   3   78.76    1.89
   0  -2  -3   76.56    1.87
   0  -2  -3   75.55    1.86
   0   2  -4    3.46    0.18
   0   2   4    3.37    0.18
   0  -2  -4    3.45    0.19
   0  -2   4    3.30    0.20
   0   2  -5   58.54    1.53
   0   2   5   61.01    1.54
   0  -2  -5   58.43    1.54
   0  -2   5   60.43    1.57
   0   2  -6    1.47    0.15
   0  -2   6    1.26    0.16
   0  -2  -6    1.26    0.16
   0  -2  -7    3.20    0.25
   0   3   0    0.24    0.04
   0  -3   0    0.27    0.05
   0   3   1    1.41    0.09
   0   3  -1    1.47    0.10
   0   3   1    1.60    0.09
   0   3  -1    1.43    0.08
   0   3   1    1.62    0.09
   0  -3   1    1.70    0.11
   0  -3  -1    1.56    0.09
   0  -3   1    1.37    0.08
   0  -3  -1    1.62    0.10
   0  -3  -1    1.86    0.10
   0   3   2    4.23    0.17
   0   3   2    4.20    0.17
   0   3  -2    4.38    0.17
   0  -3   2    4.54    0.17
   0  -3  -2    4.57    0.18
   0  -3   2    4.33    0.19
   0  -3  -2    4.89    0.18
   0   3   3   46.08    1.17
   0   3  -3   46.94    1.17
   0  -3   3   48.35    1.21
   0  -3  -3   47.06    1.18
   0  -3  -3   46.89    1.18
   0   3  -4   23.81    0.68
   0   3   4   24.48    0.68
   0  -3   4   23.43    0.71
   0  -3  -4   23.48    0.69
   0   3   5   47.20    1.21
   0   3  -5   44.46    1.21
   0  -3   5   44.60    1.25
   0  -3  -5   45.50    1.22
   0   3  -6   27.18    0.84
   0  -3  -6   27.47    0.86
   0  -3   6   28.02    0.88
   0  -3  -7   39.92    1.22
   0  -3   7   43.16    1.25
   0   4   0   91.90    2.17
   0   4   0   93.93    2.16
   0  -4   0   95.25    2.19
   0  -4   0   93.43    2.17
   0  -4   0   91.32    2.22
   0   4   1   16.58    0.44
   0   4   1   17.55    0.47
   0   4  -1   16.91    0.45
   0   4  -1   16.28    0.46
   0   4   1   17.02    0.45
   0  -4  -1   16.86    0.46
   0  -4   1   17.12    0.48
   0  -4  -1   16.78    0.46
   0  -4   1   17.02    0.45
   0  -4  -1   16.23    0.46
   0   4   2   44.36    1.09
   0   4   2   44.99    1.12
   0   4  -2   44.40    1.09
   0  -4  -2   44.55    1.10
   0  -4   2   43.49    1.13
   0  -4  -2   45.01    1.11
   0   4   3    2.90    0.15
   0   4  -3    2.87    0.15
   0   4   3    2.64    0.16
   0  -4  -3    2.82    0.16
   0  -4   3    3.18    0.18
   0  -4  -3    2.81    0.16
   0   4   4   49.23    1.23
   0   4   4   42.80    1.16
   0   4  -4   45.19    1.17
   0  -4  -4   44.37    1.19
   0  -4   4   44.77    1.22
   0   4  -5    6.36    0.29
   0  -4   5    6.18    0.31
   0  -4  -5    5.68    0.29
   0  -4   6   11.44    0.49
   0  -4  -6   11.82    0.48
   0   4   7    1.12    0.19
   0  -4   7    1.17    0.18
   0  -4  -7    1.05    0.17
   0   5   0    0.03    0.03
   0  -5   0    0.02    0.04
   0  -5   0    0.00    0.03
   0   5   1   54.76    1.36
   0   5   1   57.15    1.41
   0   5  -1   56.22    1.36
   0  -5   1   57.86    1.37
   0  -5  -1   56.48    1.38
   0  -5  -1   58.28    1.39
   0  -5   1   58.38    1.41
   0   5   2   10.08    0.31
   0   5   2   10.12    0.33
   0   5  -2    9.76    0.31
   0  -5   2    9.36    0.31
   0  -5  -2    9.09    0.32
   0  -5  -2    9.93    0.32
   0  -5   2    9.73    0.35
   0   5  -3  132.93    3.21
   0   5   3  139.54    3.21
   0   5   3  139.27    3.29
   0  -5   3  136.12    3.27
   0  -5  -3  136.84    3.23
   0  -5  -3  136.54    3.23
   0   5   4   47.79    1.25
   0   5  -4   50.80    1.26
   0   5   4   47.71    1.29
   0  -5   4   49.41    1.32
   0  -5  -4   48.25    1.29
   0   5  -5  113.59    2.82
   0   5   5  118.69    2.90
   0  -5  -5  116.27    2.85
   0  -5   5  115.12    2.88
   0   5   6   20.67    0.71
   0  -5  -6   19.37    0.69
   0  -5   6   20.06    0.72
   0   5   7   51.82    1.50
   0  -5   7   50.09    1.49
   0   6   0  136.13    3.08
   0  -6   0  132.75    3.12
   0  -6   0  129.54    3.09
   0   6  -1  402.05    8.89
   0   6   1  397.72    8.98
   0  -6  -1  392.99    8.97
   0  -6  -1  371.24    8.88
   0  -6   1  375.06    8.91
   0  -6   1  396.54    8.88
   0   6   2   24.61    0.65
   0   6  -2   24.46    0.66
   0   6   2   24.90    0.69
   0  -6  -2   24.90    0.69
   0  -6   2   24.71    0.72
   0  -6  -2   24.56    0.68
   0  -6   2   24.82    0.67
   0   6  -3  130.64    3.08
   0   6   3  130.03    3.08
   0   6   3  132.07    3.16
   0  -6  -3  133.48    3.12
   0  -6   3  127.92    3.15
   0   6   4    8.27    0.34
   0   6  -4    8.10    0.32
   0  -6   4    8.00    0.36
   0  -6  -4    7.82    0.34
   0   6   5   19.07    0.64
   0  -6   5   18.74    0.67
   0  -6  -5   18.68    0.64
   0   6   6    0.20    0.10
   0  -6   6    0.16    0.09
   0  -6  -6    0.75    0.14
   0  -7   0    0.03    0.05
   0  -7   0    0.07    0.07
   0   7   1    0.93    0.08
   0   7  -1    0.96    0.08
   0  -7   1    1.12    0.10
   0  -7   1    0.96    0.12
   0  -7  -1    1.00    0.12
   0  -7  -1    1.01    0.10
   0   7   2    0.58    0.10
   0   7   2    0.69    0.08
   0   7  -2    0.53    0.08
   0  -7   2    0.50    0.10
   0  -7  -2    0.50    0.10
   0  -7  -2    0.67    0.10
   0   7  -3   26.03    0.74
   0   7   3   27.46    0.78
   0  -7   3   26.96    0.82
   0  -7  -3   27.63    0.79
   0   7   4    0.29    0.09
   0  -7  -4    0.24    0.09
   0  -7   4    0.27    0.10
   0   7   5   21.68    0.71
   0  -7  -5   21.07    0.71
   0  -7   5   21.70    0.75
   0   7   6    8.73    0.42
   0  -7   6    8.89    0.45
   0  -8   0  109.18    2.65
   0  -8  -1    1.00    0.13
   0  -8   1    1.11    0.14
   0   8   2  113.71    2.76
   0  -8   2  111.83    2.75
   0  -8  -2  111.51    2.72
   0  -8  -3    0.27    0.09
   0  -8   3    0.39    0.11
   0   8   4   52.73    1.41
   0  -8   4   53.13    1.46
   0  -8  -4   50.35    1.41
   0   8   5    0.86    0.14
   0  -8   5    0.85    0.16
   0  -8  -5    0.92    0.15
   0  -9   0    0.00    0.07
   0  -9   1    3.38    0.23
   0  -9  -1    3.02    0.21
   0  -9   2    1.85    0.18
   0  -9  -2    2.14    0.19
   0   9   3    1.00    0.14
   0  -9   3    0.71    0.14
   0  -9  -3    1.02    0.15
   0   9   4   12.27    0.48
   0  -9  -4   13.04    0.51
   0  -9   4   12.67    0.53
   0 -10   0    9.18    0.40
   0 -10  -1   63.77    1.65
   0 -10   1   60.89    1.65
   0 -10   2   10.21    0.44
   0 -10  -2    9.87    0.43
   0 -10   3   42.66    1.25
   0 -10  -3   43.17    1.23
   0 -10   4   -0.08    0.07
   0 -11   0    0.01    0.08
   0 -11  -1    6.48    0.35
   0 -11   1    6.36    0.34
   0 -11  -2   20.61    0.71
   0 -11   2   20.06    0.72
  -1   0   7    0.08    0.08
   1   0  -7    0.02    0.07
   1   0  -6  128.23    3.10
  -1   0   6  126.36    3.11
   1   0  -5    0.11    0.07
  -1   0   5    0.08    0.06
   1   0  -4  106.07    2.50
  -1   0   4  103.12    2.50
  -1   0   3    0.11    0.04
  -1   0   2   63.84    1.50
  -1   0   2   61.88    1.50
   1   0  -2   65.77    1.50
   1   0  -2   64.00    1.50
   1   0  -1    1.38    0.08
  -1   0   1    1.48    0.08
  -1   0   0   21.84    0.55
   1   0   0   21.74    0.54
  -1   0   0   21.79    0.54
   1   0   2    5.66    0.19
  -1   0  -2    5.19    0.19
  -1   0  -2    5.47    0.21
   1   0   2    5.62    0.21
  -1   0  -3   -0.02    0.04
   1   0   3    0.01    0.05
  -1   0  -4   60.39    1.50
   1   0   4   58.71    1.51
  -1   0  -5    0.02    0.06
   1   0   5    0.01    0.06
  -1   0  -6   51.94    1.42
  -1   0  -7   -0.03    0.08
  -1   1   7    1.63    0.19
   1  -1  -7    1.51    0.19
  -1  -1   7    1.86    0.19
  -1   1   6    5.20    0.28
   1   1  -6    4.86    0.27
  -1  -1   6    4.82    0.28
   1  -1  -6    4.68    0.27
   1   1  -5    0.36    0.08
  -1   1   5    0.01    0.05
   1  -1  -5    0.08    0.07
  -1  -1   5    0.05    0.05
   1   1  -4   73.54    1.77
  -1   1   4   72.21    1.78
   1  -1  -4   73.73    1.78
  -1  -1   4   71.67    1.79
  -1   1   3    6.21    0.23
   1   1  -3    6.16    0.22
  -1   1   3    6.15    0.22
  -1  -1   3    6.26    0.23
  -1  -1   3    5.89    0.21
   1  -1  -3    6.06    0.23
  -1   1   2   48.87    1.19
  -1   1   2   49.29    1.18
   1   1  -2   50.11    1.18
   1   1  -2   50.25    1.17
  -1  -1   2   49.03    1.17
  -1  -1   2   50.10    1.18
   1  -1  -2   47.84    1.18
   1  -1  -2   50.07    1.19
  -1   1   1   22.54    0.56
   1   1  -1   22.69    0.53
   1   1  -1   22.99    0.54
  -1  -1   1   22.20    0.54
  -1  -1   1   23.12    0.54
   1  -1  -1   23.50    0.57
   1  -1  -1   23.17    0.56
  -1   1   0   46.20    1.07
  -1   1   0   46.28    1.08
   1  -1   0   46.33    1.07
   1  -1   0   46.18    1.08
  -1  -1   0   43.30    1.09
  -1   1  -1  116.47    2.69
  -1   1  -1  117.36    2.67
   1   1   1  115.45    2.65
  -1  -1  -1  116.24    2.66
   1  -1   1  117.16    2.67
  -1  -1  -1  112.41    2.66
   1  -1   1  118.24    2.69
   1   1   2   45.17    1.13
  -1   1  -2   45.31    1.14
  -1   1  -2   47.90    1.16
   1  -1   2   47.28    1.13
   1  -1   2   47.86    1.16
  -1  -1  -2   48.41    1.15
  -1  -1  -2   46.42    1.13
   1   1   3   45.34    1.18
  -1   1  -3   47.75    1.18
   1  -1   3   48.35    1.21
  -1  -1  -3   47.23    1.20
  -1  -1  -3   47.87    1.18
   1   1   4   18.78    0.58
  -1   1  -4   19.56    0.58
   1  -1   4   19.27    0.60
  -1  -1  -4   19.70    0.58
  -1   1  -5   28.10    0.81
   1   1   5   27.79    0.81
   1  -1   5   27.99    0.83
  -1  -1  -5   26.49    0.81
  -1   1  -6   23.86    0.78
  -1  -1  -6   24.94    0.79
  -1   1  -7    6.56    0.36
  -1  -1  -7    6.27    0.36
   1  -2  -7   71.71    1.91
  -1  -2   7   72.37    1.93
  -1   2   6   14.27    0.50
   1   2  -6   13.03    0.49
  -1  -2   6   13.39    0.51
   1  -2  -6   13.78    0.51
   1   2  -5  113.80    2.75
  -1   2   5  110.89    2.76
   1  -2  -5  113.87    2.77
  -1  -2   5  118.61    2.79
  -1   2   4   58.90    1.48
   1   2  -4   57.91    1.46
  -1  -2   4   59.87    1.50
   1  -2  -4   60.86    1.49
   1   2  -3  326.84    7.33
  -1   2   3  313.59    7.35
  -1  -2   3  308.69    7.36
  -1  -2   3  327.37    7.33
   1  -2  -3  330.58    7.36
   1   2  -2   71.09    1.69
  -1   2   2   70.72    1.70
   1   2  -2   72.15    1.68
  -1  -2   2   72.45    1.68
   1  -2  -2   72.86    1.71
  -1  -2   2   73.34    1.70
   1  -2  -2   72.86    1.71
  -1   2   1  202.54    4.82
   1   2  -1  200.39    4.71
  -1   2   1  208.43    4.72
  -1   2   1  206.97    4.81
   1   2  -1  207.70    4.71
  -1  -2   1  211.03    4.75
   1  -2  -1  217.51    4.76
  -1  -2   1  203.60    4.75
   1  -2  -1  202.35    4.74
  -1   2   0    3.37    0.14
   1   2   0    3.54    0.14
  -1   2   0    3.40    0.13
   1  -2   0    3.32    0.13
   1  -2   0    3.53    0.14
  -1  -2   0    3.44    0.13
  -1   2  -1    0.43    0.06
  -1   2  -1    0.50    0.08
   1   2   1    0.42    0.05
   1  -2   1    0.30    0.07
   1  -2   1    0.48    0.06
  -1  -2  -1    0.22    0.05
   1   2   2   67.52    1.64
  -1   2  -2   71.12    1.66
  -1   2  -2   68.19    1.68
  -1  -2  -2   68.87    1.65
  -1  -2  -2   70.69    1.64
  -1   2  -3   33.70    0.88
   1   2   3   33.76    0.88
  -1  -2  -3   33.21    0.89
   1  -2   3   34.66    0.92
  -1  -2  -3   34.83    0.88
   1   2   4   35.63    0.97
  -1   2  -4   36.32    0.97
  -1  -2  -4   35.62    0.97
   1  -2   4   37.53    1.01
  -1   2  -5   91.12    2.24
   1  -2   5   88.26    2.27
  -1  -2  -5   90.51    2.24
  -1   2  -6   15.45    0.56
  -1  -2  -6   14.73    0.56
  -1  -3   7    6.72    0.36
   1  -3  -7    6.65    0.36
  -1   3   6    0.36    0.09
   1  -3  -6    0.23    0.10
  -1  -3   6    0.28    0.09
  -1   3   5    4.23    0.22
   1   3  -5    3.44    0.20
  -1  -3   5    3.77    0.22
   1  -3  -5    3.62    0.22
  -1   3   4   15.61    0.48
   1   3  -4   15.23    0.47
  -1  -3   4   15.73    0.50
   1  -3  -4   14.91    0.49
   1   3  -3  210.91    4.77
  -1   3   3  198.17    4.79
  -1  -3   3  204.44    4.76
   1  -3  -3  212.96    4.80
  -1  -3   3  210.91    4.81
  -1   3   2  157.15    3.66
   1   3  -2  158.91    3.63
  -1   3   2  162.88    3.66
   1   3  -2  159.34    3.65
  -1   3   2  155.92    3.69
   1  -3  -2  159.78    3.67
  -1  -3   2  160.47    3.63
  -1  -3   2  156.13    3.66
   1  -3  -2  155.61    3.66
  -1   3   1  624.60   14.28
   1   3  -1  606.24   14.19
   1   3  -1  619.68   14.19
   1  -3  -1  586.51   14.51
  -1  -3   1  686.10   14.28
   1  -3  -1  633.92   14.41
   1  -3  -1  603.33   14.44
  -1  -3   1  637.10   14.32
   1   3   0  376.45    9.47
  -1   3   0  395.67    9.00
  -1  -3   0  387.56    9.05
   1  -3   0  388.14    9.20
  -1  -3   0  407.02    9.06
   1  -3   0  418.87    9.18
   1   3   1  855.17   18.71
   1   3   1  786.65   19.33
   1   3   1  857.61   18.69
  -1   3  -1  878.82   18.80
  -1   3  -1  813.78   18.99
   1  -3   1  863.45   18.99
   1  -3   1  776.66   18.89
  -1  -3  -1  785.91   18.77
  -1  -3  -1  769.78   18.78
   1   3   2  200.12    4.74
   1   3   2  197.92    4.59
  -1   3  -2  196.92    4.62
  -1  -3  -2  196.41    4.61
  -1  -3  -2  201.23    4.61
   1  -3   2  211.24    4.67
  -1   3  -3  182.93    4.29
   1   3   3  184.84    4.27
  -1  -3  -3  189.21    4.30
   1  -3   3  180.35    4.34
  -1  -3  -3  185.78    4.29
   1   3   4   48.31    1.23
  -1   3  -4   48.30    1.25
   1  -3   4   48.73    1.29
  -1  -3  -4   47.19    1.25
  -1   3  -5   31.50    0.91
   1  -3   5   31.48    0.94
  -1  -3  -5   30.36    0.90
  -1   3  -6    6.22    0.33
   1  -3   6    7.13    0.36
  -1  -3  -6    6.45    0.34
   1  -4  -7    2.57    0.23
  -1  -4   7    2.42    0.22
   1  -4  -6   40.47    1.16
  -1  -4   6   40.67    1.18
   1   4  -5    6.13    0.27
  -1   4   5    5.91    0.27
   1  -4  -5    5.78    0.28
  -1  -4   5    5.66    0.29
  -1   4   4   56.01    1.41
   1   4  -4   54.26    1.39
  -1  -4   4   56.59    1.44
   1  -4  -4   56.83    1.43
   1   4  -3   65.75    1.57
  -1   4   3   66.98    1.60
  -1   4   3   64.89    1.60
  -1  -4   3   62.88    1.61
  -1  -4   3   66.74    1.57
   1  -4  -3   65.74    1.61
  -1   4   2  102.80    2.39
  -1   4   2  100.62    2.40
  -1  -4   2   99.90    2.39
   1  -4  -2  100.56    2.40
  -1  -4   2  102.84    2.36
   1  -4  -2  102.31    2.40
  -1   4   1   28.65    0.72
   1   4  -1   28.61    0.67
  -1   4   1   27.78    0.73
   1   4  -1   28.87    0.67
  -1  -4   1   27.98    0.71
   1  -4  -1   28.44    0.73
   1  -4  -1   27.79    0.70
   1  -4  -1   27.45    0.74
  -1   4   0   20.70    0.56
   1   4   0   20.79    0.59
  -1   4   0   21.42    0.58
   1  -4   0   21.76    0.57
   1  -4   0   21.53    0.59
  -1  -4   0   22.29    0.54
  -1  -4   0   20.79    0.53
  -1   4  -1    2.77    0.13
   1   4   1    2.76    0.10
   1   4   1    2.74    0.10
   1   4   1    2.81    0.15
   1  -4   1    2.70    0.14
  -1  -4  -1    2.70    0.12
   1  -4   1    2.74    0.16
  -1  -4  -1    2.64    0.12
   1   4   2    4.40    0.21
  -1   4  -2    4.88    0.20
   1  -4   2    4.41    0.22
  -1  -4  -2    4.26    0.18
  -1  -4  -2    4.45    0.18
   1   4   3   10.65    0.34
   1   4   3   11.58    0.41
  -1   4  -3   10.81    0.37
  -1  -4  -3   10.39    0.36
  -1  -4  -3   10.86    0.37
   1  -4   3   10.17    0.40
   1   4   4   11.63    0.45
  -1   4  -4   11.55    0.41
  -1  -4  -4   11.41    0.41
   1  -4   4   11.49    0.45
   1   4   5   20.05    0.71
  -1   4  -5   20.54    0.66
  -1  -4  -5   19.82    0.66
   1  -4   5   20.99    0.70
   1   4   6   21.81    0.79
  -1  -4  -6   21.79    0.74
   1  -4   6   21.56    0.77
   1   4   7    2.14    0.27
  -1  -5   7    2.39    0.23
   1  -5  -7    1.95    0.21
  -1   5   6    0.10    0.08
  -1  -5   6    0.05    0.08
   1  -5  -6    0.12    0.09
  -1   5   5   33.76    0.94
  -1   5   5   32.78    0.93
   1  -5  -5   33.23    0.97
  -1  -5   5   33.31    0.97
  -1   5   4   27.57    0.76
  -1   5   4   28.03    0.78
   1   5  -4   26.96    0.75
   1  -5  -4   27.49    0.79
  -1  -5   4   26.97    0.80
   1   5  -3   93.44    2.16
  -1   5   3   92.25    2.20
  -1   5   3   90.84    2.19
  -1  -5   3   86.67    2.21
   1  -5  -3   93.23    2.22
  -1  -5   3   91.15    2.16
  -1   5   2   28.93    0.75
  -1   5   2   28.26    0.73
  -1  -5   2   27.94    0.72
   1  -5  -2   27.68    0.77
   1  -5  -2   29.77    0.77
  -1  -5   2   27.88    0.75
   1   5  -1  146.86    3.26
  -1   5   1  139.67    3.32
   1   5  -1  143.45    3.26
   1  -5  -1  138.90    3.33
  -1  -5   1  142.40    3.28
   1  -5  -1  145.24    3.35
   1  -5  -1  142.00    3.35
  -1  -5   1  144.47    3.31
   1   5   0   65.51    1.49
  -1   5   0   63.95    1.56
   1   5   0   64.99    1.63
   1   5   0   65.68    1.49
   1  -5   0   65.67    1.61
  -1  -5   0   65.16    1.55
   1  -5   0   66.02    1.58
  -1  -5   0   65.23    1.53
   1   5   1   74.18    1.72
  -1   5  -1   71.62    1.78
   1   5   1   74.47    1.85
   1  -5   1   76.36    1.84
  -1  -5  -1   74.93    1.76
  -1  -5  -1   75.60    1.77
   1  -5   1   74.76    1.79
   1   5   2   73.05    1.80
   1   5   2   71.10    1.68
  -1   5  -2   69.09    1.72
  -1  -5  -2   73.82    1.72
  -1  -5  -2   70.41    1.71
   1  -5   2   69.45    1.78
   1   5   3   56.60    1.47
   1   5   3   53.45    1.36
  -1   5  -3   55.08    1.41
   1  -5   3   57.05    1.47
  -1  -5  -3   57.15    1.41
  -1  -5  -3   56.58    1.41
   1   5   4   27.28    0.83
  -1   5  -4   26.84    0.78
  -1  -5  -4   27.32    0.79
   1  -5   4   26.66    0.84
  -1   5  -5   16.59    0.58
   1   5   5   17.74    0.64
  -1  -5  -5   17.75    0.60
   1  -5   5   16.90    0.63
   1   5   6   19.47    0.72
  -1  -5  -6   18.57    0.67
   1  -5   6   18.33    0.70
   1   5   7    3.46    0.30
  -1   6   6    4.60    0.26
  -1  -6   6    4.67    0.30
   1  -6  -6    5.06    0.30
  -1   6   5   66.13    1.68
  -1  -6   5   65.25    1.72
   1  -6  -5   64.42    1.71
  -1   6   4    0.83    0.11
  -1   6   4    0.98    0.11
  -1  -6   4    1.02    0.14
   1  -6  -4    0.71    0.12
   1   6  -3   38.89    0.98
  -1   6   3   39.66    1.02
  -1   6   3   38.22    1.00
  -1  -6   3   39.98    1.05
   1  -6  -3   37.38    1.04
   1   6  -2    1.92    0.10
  -1   6   2    1.93    0.13
  -1   6   2    2.13    0.12
   1  -6  -2    2.25    0.15
  -1  -6   2    2.21    0.15
  -1  -6   2    2.28    0.12
   1   6  -1    4.84    0.15
  -1   6   1    4.70    0.20
   1  -6  -1    4.91    0.21
  -1  -6   1    5.07    0.21
   1  -6  -1    5.03    0.24
  -1  -6   1    4.65    0.18
   1   6   0   15.28    0.38
  -1   6   0   15.71    0.45
  -1  -6   0   15.47    0.43
   1  -6   0   16.01    0.47
  -1  -6   0   16.44    0.45
   1  -6   0   14.72    0.49
   1   6   1    0.12    0.03
  -1   6  -1    0.12    0.05
   1   6   1    0.04    0.06
  -1  -6  -1    0.19    0.06
  -1  -6  -1    0.15    0.05
   1  -6   1    0.17    0.07
   1   6   2    0.21    0.04
  -1   6  -2    0.10    0.05
   1   6   2    0.12    0.07
   1  -6   2    0.16    0.08
  -1  -6  -2    0.26    0.07
  -1  -6  -2    0.10    0.06
   1   6   3    7.15    0.32
  -1   6  -3    7.12    0.29
  -1  -6  -3    7.15    0.30
   1  -6   3    7.89    0.35
   1   6   4    4.67    0.27
  -1   6  -4    4.50    0.24
   1  -6   4    4.21    0.27
  -1  -6  -4    4.87    0.25
   1   6   5   25.12    0.83
  -1  -6  -5   24.85    0.79
   1  -6   5   24.28    0.83
   1   6   6    1.68    0.23
   1  -6   6    1.60    0.21
   1  -7  -6    0.90    0.16
  -1  -7   6    0.14    0.09
  -1   7   5    4.58    0.24
   1  -7  -5    4.88    0.29
  -1  -7   5    4.35    0.28
  -1   7   4    0.58    0.10
   1  -7  -4    0.55    0.11
  -1  -7   4    0.50    0.11
  -1   7   3   11.76    0.40
  -1   7   3   11.88    0.39
  -1  -7   3   12.16    0.44
   1  -7  -3   11.66    0.44
   1   7  -2   37.85    0.94
  -1   7   2   39.11    1.00
   1  -7  -2   38.78    1.05
  -1  -7   2   38.06    0.98
  -1  -7   2   38.95    1.03
  -1   7   1    0.93    0.10
   1   7  -1    1.29    0.07
  -1  -7   1    1.10    0.11
  -1  -7   1    1.09    0.09
   1  -7  -1    1.09    0.13
  -1   7   0   77.51    1.86
   1   7   0   74.18    1.77
  -1  -7   0   78.67    1.86
   1  -7   0   77.70    1.92
  -1  -7   0   77.10    1.84
  -1   7  -1   15.60    0.49
   1   7   1   16.65    0.54
   1  -7   1   16.16    0.54
  -1  -7  -1   16.11    0.47
  -1  -7  -1   17.10    0.49
   1   7   2   64.20    1.64
  -1   7  -2   61.22    1.56
  -1  -7  -2   62.92    1.57
   1  -7   2   63.26    1.64
   1   7   3   14.78    0.53
  -1   7  -3   15.11    0.49
   1  -7   3   13.86    0.54
  -1  -7  -3   15.01    0.49
   1   7   4   38.94    1.12
  -1  -7  -4   38.04    1.07
   1  -7   4   37.05    1.13
   1   7   5   19.67    0.71
   1  -7   5   19.77    0.72
  -1  -7  -5   19.57    0.67
   1   7   6    2.21    0.24
  -1  -8   5    3.25    0.25
   1  -8  -5    3.53    0.25
  -1   8   4  149.38    3.55
  -1  -8   4  140.96    3.57
   1  -8  -4  151.12    3.58
  -1   8   3    0.16    0.07
  -1  -8   3    0.32    0.10
   1  -8  -3    0.25    0.10
  -1   8   2  100.88    2.41
   1  -8  -2  102.47    2.48
  -1  -8   2   97.68    2.45
  -1   8   1    1.09    0.11
   1  -8  -1    0.93    0.13
  -1  -8   1    0.92    0.12
  -1   8   0   14.45    0.45
  -1  -8   0   14.35    0.46
   1  -8   0   14.29    0.51
  -1   8  -1    0.97    0.10
   1  -8   1    0.68    0.13
  -1  -8  -1    0.84    0.11
   1   8   2   28.11    0.84
  -1   8  -2   27.31    0.77
   1  -8   2   27.07    0.85
  -1  -8  -2   27.80    0.79
   1   8   3    6.57    0.32
   1  -8   3    5.81    0.33
  -1  -8  -3    6.32    0.30
   1   8   4   72.80    1.94
   1  -8   4   72.75    1.96
  -1  -8  -4   73.59    1.88
   1   8   5    0.56    0.14
   1  -8   5    0.55    0.14
  -1  -9   5    0.48    0.13
   1  -9  -5    0.67    0.15
   1  -9  -4   12.66    0.52
  -1  -9   4   13.14    0.52
   1  -9  -3    1.65    0.19
  -1  -9   3    1.67    0.17
  -1  -9   2   74.86    1.89
   1  -9  -2   73.69    1.92
   1  -9  -1   22.19    0.72
  -1  -9   1   21.94    0.68
   1  -9   0  158.24    3.82
  -1  -9   0  158.56    3.76
  -1  -9  -1    8.61    0.35
   1  -9   1    9.15    0.40
   1   9   2  126.07    3.13
   1  -9   2  126.54    3.12
  -1  -9  -2  124.61    3.04
   1   9   3   21.72    0.72
   1  -9   3   20.61    0.74
  -1  -9  -3   21.14    0.68
   1   9   4   36.96    1.12
   1  -9   4   37.56    1.16
  -1  -9  -4   37.30    1.09
   1   9   5    7.11    0.39
   1 -10  -4    1.92    0.22
  -1 -10   4    1.76    0.19
   1 -10  -3   18.15    0.66
  -1 -10   3   18.36    0.64
   1 -10  -2    9.68    0.43
  -1 -10   2    9.09    0.40
  -1 -10   1   12.39    0.46
   1 -10  -1   12.06    0.49
  -1 -10   0    1.05    0.14
   1 -10   0    1.15    0.17
   1 -10   1    1.96    0.20
  -1 -10  -1    1.50    0.17
   1 -10   2    1.08    0.17
  -1 -10  -2    1.04    0.15
   1  10   3    2.01    0.20
   1 -10   3    2.32    0.22
  -1 -10  -3    2.54    0.21
   1  10   4    0.85    0.17
  -1 -11   3   26.45    0.86
   1 -11  -3   25.91    0.88
  -1 -11   2   25.79    0.83
   1 -11  -2   26.19    0.86
   1 -11  -1   44.40    1.29
  -1 -11   1   44.57    1.25
   1 -11   0   19.81    0.71
  -1 -11   0   20.57    0.68
  -1 -11  -1   37.95    1.08
   1 -11   1   36.31    1.13
  -1 -11  -2   12.73    0.50
   1 -11   2   12.73    0.55
  -2   0   8   20.79    0.75
  -2   0   7    0.01    0.08
   2   0  -6    8.84    0.38
  -2   0   6    9.50    0.39
  -2   0   5    0.43    0.09
   2   0  -5    0.05    0.06
   2   0  -4   15.81    0.48
  -2   0   4   16.49    0.49
   2   0  -3    0.13    0.05
  -2   0   3    0.07    0.04
  -2   0   3    0.01    0.04
   2   0  -2  594.33   13.08
  -2   0   2  582.25   13.06
  -2   0   2  567.34   13.16
   2   0  -2  523.45   13.04
   2   0  -1    0.13    0.03
  -2   0   1    0.12    0.03
  -2   0   1    0.29    0.04
  -2   0   1    0.06    0.03
   2   0  -1    0.05    0.02
  -2   0   0  930.75   21.92
  -2   0   0 1000.00   21.95
   2   0   0  932.96   22.49
   2   0   0  978.19   21.87
   2   0   1    0.09    0.04
  -2   0  -1    0.06    0.04
   2   0   1    0.15    0.04
  -2   0  -1    0.19    0.05
  -2   0  -2  644.80   15.08
   2   0   2  663.53   14.90
  -2   0  -2  640.10   14.79
  -2   0  -3    0.07    0.05
   2   0   3    0.05    0.05
  -2   0  -4  135.28    3.33
   2   0   4  145.12    3.35
  -2   0  -5    0.17    0.08
  -2   0  -6   22.63    0.75
  -2  -1   8   10.14    0.48
  -2   1   7   13.08    0.52
   2  -1  -7   13.54    0.53
  -2  -1   7   13.48    0.53
  -2   1   6   73.11    1.90
   2   1  -6   73.91    1.88
   2  -1  -6   73.83    1.90
  -2  -1   6   76.13    1.91
   2   1  -5   18.84    0.58
  -2   1   5   19.02    0.60
   2  -1  -5   19.62    0.60
  -2  -1   5   19.90    0.61
  -2   1   4  148.66    3.47
   2   1  -4  144.44    3.44
  -2  -1   4  147.22    3.46
  -2  -1   4  149.42    3.44
   2  -1  -4  147.57    3.46
  -2   1   3   19.98    0.55
   2   1  -3   19.75    0.53
  -2   1   3   20.18    0.55
  -2  -1   3   20.25    0.53
   2  -1  -3   19.95    0.55
  -2  -1   3   20.80    0.55
   2   1  -2  366.43    9.20
   2   1  -2  406.08    9.22
  -2   1   2  393.41    9.19
  -2   1   2  417.92    9.30
  -2  -1   2  413.32    9.26
   2  -1  -2  401.26    9.22
  -2  -1   2  399.15    9.23
   2  -1  -2  416.15    9.34
  -2   1   1   89.93    2.09
  -2   1   1   93.72    2.10
   2   1  -1   90.96    2.14
  -2   1   1   81.54    2.10
  -2  -1   1   91.66    2.05
  -2  -1   1   86.79    2.13
   2  -1  -1   90.36    2.10
  -2  -1   1   89.82    2.06
   2  -1  -1   90.29    2.09
   2  -1  -1   94.52    2.09
   2   1   0  144.15    3.43
  -2   1   0  142.83    3.35
  -2  -1   0  150.70    3.31
  -2  -1   0  149.91    3.32
   2  -1   0  141.68    3.33
   2  -1   0  143.64    3.35
   2   1   1   33.63    0.81
  -2   1  -1   32.95    0.86
   2   1   1   34.09    0.81
  -2  -1  -1   34.65    0.82
  -2  -1  -1   34.27    0.83
   2  -1   1   33.55    0.85
  -2   1  -2    0.63    0.10
  -2   1  -2    0.33    0.07
   2   1   3   18.64    0.54
  -2   1  -3   18.26    0.55
  -2  -1  -3   19.05    0.57
   2  -1   3   18.51    0.57
  -2  -1  -3   18.95    0.54
  -2   1  -4   15.12    0.49
  -2  -1  -4   14.57    0.49
   2  -1   4   15.29    0.51
  -2   1  -5    0.44    0.10
  -2  -1  -5    0.15    0.08
  -2   1  -6   38.98    1.14
  -2  -1  -6   39.53    1.14
  -2  -2   8    0.77    0.15
  -2   2   7    0.40    0.11
   2  -2  -7    0.54    0.13
  -2  -2   7    0.41    0.12
  -2   2   6   13.03    0.49
  -2  -2   6   13.36    0.50
   2  -2  -6   13.02    0.49
  -2   2   5    2.57    0.17
   2   2  -5    2.51    0.16
   2  -2  -5    2.71    0.18
  -2  -2   5    2.33    0.17
  -2   2   4   53.38    1.34
   2   2  -4   54.00    1.31
  -2  -2   4   52.79    1.30
  -2  -2   4   53.39    1.34
   2  -2  -4   51.02    1.34
   2   2  -3   91.88    2.20
  -2   2   3   97.40    2.24
  -2   2   3   96.32    2.24
   2  -2  -3   95.68    2.25
  -2  -2   3   92.56    2.20
  -2  -2   3   91.96    2.22
   2   2  -2   48.65    1.10
  -2   2   2   46.40    1.16
  -2   2   2   49.24    1.16
   2   2  -2   46.44    1.10
  -2  -2   2   47.48    1.12
  -2  -2   2   48.63    1.13
   2  -2  -2   47.78    1.16
   2  -2  -2   46.55    1.17
  -2   2   1   99.67    2.25
   2   2  -1   95.07    2.31
  -2   2   1   96.76    2.26
   2  -2  -1   97.59    2.25
   2  -2  -1   97.90    2.26
   2  -2  -1   91.50    2.23
   2   2   0   19.69    0.55
  -2   2   0   20.64    0.52
  -2   2   0   19.23    0.54
   2  -2   0   19.96    0.52
   2  -2   0   20.09    0.54
   2   2   1   98.68    2.24
   2   2   1   96.70    2.24
  -2   2  -1   96.86    2.34
   2   2   1  100.79    2.40
   2  -2   1   97.34    2.34
  -2  -2  -1  100.88    2.27
  -2  -2  -1   98.83    2.28
   2   2   2    3.90    0.21
  -2   2  -2    3.67    0.17
   2  -2   2    4.48    0.21
  -2  -2  -2    3.45    0.16
  -2  -2  -2    3.63    0.17
  -2   2  -3  101.80    2.49
   2   2   3  105.39    2.46
  -2  -2  -3  103.49    2.50
  -2  -2  -3  104.93    2.48
   2  -2   3  104.69    2.53
  -2   2  -4    2.39    0.17
  -2  -2  -4    2.26    0.16
   2  -2   4    2.53    0.19
  -2   2  -5   38.31    1.08
  -2  -2  -5   38.23    1.08
  -2   2  -6    1.55    0.19
  -2  -2  -6    1.70    0.18
  -2   3   7   84.48    2.12
  -2  -3   7   79.05    2.13
   2  -3  -7   81.57    2.13
  -2   3   6   51.53    1.40
   2  -3  -6   53.02    1.41
  -2  -3   6   51.86    1.41
   2   3  -5   97.78    2.29
  -2   3   5   93.98    2.32
   2  -3  -5   92.19    2.33
  -2  -3   5   94.01    2.33
   2   3  -4   51.81    1.25
  -2   3   4   50.59    1.29
   2  -3  -4   51.46    1.30
  -2  -3   4   50.08    1.28
  -2  -3   4   49.35    1.25
  -2   3   3   24.15    0.67
  -2  -3   3   24.77    0.63
   2  -3  -3   24.55    0.68
  -2  -3   3   24.68    0.65
  -2   3   2   25.88    0.68
  -2   3   2   25.76    0.69
  -2  -3   2   26.22    0.64
   2  -3  -2   25.14    0.69
  -2  -3   2   26.46    0.63
  -2   3   1    5.84    0.22
   2   3  -1    6.00    0.23
  -2   3   1    5.94    0.21
   2  -3  -1    6.04    0.21
   2  -3  -1    5.69    0.22
   2   3   0    5.85    0.23
  -2   3   0    5.84    0.23
  -2   3   0    5.63    0.20
   2  -3   0    5.80    0.21
   2  -3   0    5.95    0.23
  -2   3  -1   28.61    0.78
  -2   3  -1   29.28    0.75
  -2  -3  -1   29.24    0.70
   2  -3   1   28.40    0.78
  -2  -3  -1   28.69    0.71
  -2   3  -2    0.05    0.05
   2   3   2    0.21    0.04
   2   3   2    0.11    0.06
  -2  -3  -2    0.02    0.04
   2  -3   2    0.08    0.06
  -2  -3  -2    0.11    0.05
  -2   3  -3    4.34    0.20
   2   3   3    3.15    0.16
   2   3   3    4.07    0.24
  -2  -3  -3    3.90    0.21
  -2  -3  -3    3.95    0.19
   2  -3   3    4.07    0.23
  -2   3  -4    3.24    0.20
   2   3   4    3.38    0.24
  -2  -3  -4    3.19    0.20
   2  -3   4    3.39    0.23
   2   3   5   15.48    0.62
  -2   3  -5   16.43    0.56
  -2  -3  -5   14.99    0.54
  -2   3  -6    8.14    0.39
   2   3   6    7.24    0.43
  -2  -4   7    5.80    0.33
   2  -4  -7    6.13    0.34
  -2   4   6    3.64    0.23
  -2  -4   6    3.74    0.24
   2  -4  -6    3.80    0.25
  -2   4   5    5.88    0.28
   2  -4  -5    6.17    0.29
  -2  -4   5    5.37    0.27
   2   4  -4    0.25    0.06
  -2  -4   4    0.13    0.06
   2  -4  -4    0.21    0.07
  -2  -4   4    0.27    0.07
   2   4  -3   23.13    0.59
  -2   4   3   23.11    0.66
  -2   4   3   23.59    0.59
  -2  -4   3   22.74    0.61
  -2  -4   3   24.32    0.64
   2  -4  -3   24.30    0.68
  -2   4   2   19.69    0.56
  -2  -4   2   20.34    0.52
   2  -4  -2   20.03    0.58
  -2  -4   2   19.99    0.50
  -2   4   1    1.64    0.11
   2  -4  -1    1.86    0.14
  -2  -4   1    1.66    0.06
  -2  -4   1    1.82    0.07
   2  -4  -1    1.72    0.07
  -2   4   0   35.52    0.90
   2  -4   0   34.65    0.93
  -2  -4   0   35.71    0.82
  -2  -4   0   34.83    0.82
   2   4   1   14.29    0.46
  -2  -4  -1   14.53    0.38
   2  -4   1   13.66    0.46
  -2  -4  -1   13.55    0.38
  -2   4  -2  112.55    2.68
   2   4   2  111.28    2.59
   2   4   2  114.58    2.78
  -2  -4  -2  111.79    2.64
   2  -4   2  112.09    2.73
  -2  -4  -2  115.46    2.65
  -2   4  -3    3.37    0.19
   2   4   3    3.63    0.23
   2  -4   3    3.28    0.21
  -2  -4  -3    3.36    0.18
  -2   4  -4   69.48    1.76
   2   4   4   69.60    1.87
  -2  -4  -4   68.61    1.75
   2  -4   4   70.43    1.82
   2   4   5    1.79    0.22
  -2   4  -5    1.94    0.18
  -2  -4  -5    2.07    0.18
  -2   4  -6   37.17    1.12
   2   4   6   37.32    1.21
   2  -5  -7   37.81    1.15
  -2  -5   7   37.64    1.14
  -2   5   6   45.49    1.24
   2  -5  -6   44.86    1.27
  -2  -5   6   43.43    1.25
  -2   5   5  108.49    2.60
  -2   5   5  107.24    2.56
  -2  -5   5  102.80    2.60
   2  -5  -5  104.84    2.62
  -2   5   4   45.73    1.13
  -2   5   4   45.71    1.19
  -2  -5   4   44.68    1.19
   2  -5  -4   44.90    1.21
  -2   5   3  194.67    4.42
  -2   5   3  186.68    4.43
   2   5  -3  184.61    4.33
  -2  -5   3  192.54    4.37
  -2  -5   3  191.23    4.41
   2  -5  -3  189.77    4.46
  -2   5   2  113.17    2.64
   2  -5  -2  110.04    2.67
  -2  -5   2  108.88    2.60
  -2  -5   2  113.38    2.57
   2  -5  -1   89.73    2.07
   2  -5  -1   87.30    2.14
  -2  -5   1   90.29    2.04
  -2  -5   1   84.81    2.02
   2   5   0   47.01    1.23
  -2   5   0   47.22    1.17
   2  -5   0   47.43    1.22
  -2  -5   0   46.82    1.10
  -2  -5   0   45.14    1.10
   2   5   1    2.41    0.17
  -2  -5  -1    2.49    0.12
  -2  -5  -1    2.68    0.12
   2  -5   1    2.32    0.17
  -2   5  -2    1.60    0.13
   2   5   2    1.72    0.16
  -2  -5  -2    1.68    0.12
   2  -5   2    1.99    0.16
  -2  -5  -2    1.65    0.12
   2   5   3   36.68    1.05
  -2   5  -3   35.04    0.97
   2  -5   3   34.83    1.02
  -2  -5  -3   35.28    0.94
  -2   5  -4    0.61    0.11
   2   5   4    0.57    0.13
   2  -5   4    0.76    0.14
  -2  -5  -4    0.63    0.11
   2   5   5   47.01    1.38
  -2   5  -5   46.31    1.29
  -2  -5  -5   45.03    1.28
   2  -5   5   46.54    1.34
   2   5   6   13.14    0.60
   2  -6  -7   13.05    0.56
  -2  -6   6    0.16    0.08
   2  -6  -6    0.06    0.09
  -2   6   5    1.25    0.15
   2  -6  -5    1.26    0.17
  -2  -6   5    1.07    0.15
  -2   6   4    1.36    0.10
  -2   6   4    1.49    0.14
  -2  -6   4    1.37    0.13
   2  -6  -4    1.37    0.14
  -2   6   3   35.22    0.94
   2   6  -3   32.85    0.83
  -2  -6   3   33.77    0.88
  -2  -6   3   36.61    0.93
   2  -6  -3   35.05    0.97
  -2   6   2   39.72    1.03
   2  -6  -2   38.96    1.07
  -2  -6   2   40.06    1.00
  -2   6   1  195.31    4.55
  -2  -6   1  202.03    4.49
   2  -6  -1  197.01    4.56
  -2  -6   1  187.67    4.46
   2  -6  -1  196.17    4.59
  -2   6   0   21.37    0.61
   2   6   0   21.41    0.66
  -2  -6   0   20.81    0.55
  -2  -6   0   21.06    0.56
   2  -6   0   22.60    0.66
   2   6   1  259.58    6.24
  -2  -6  -1  257.33    6.02
   2  -6   1  268.59    6.15
  -2  -6  -1  267.35    6.02
   2   6   2   38.01    1.08
  -2   6  -2   36.79    1.01
  -2  -6  -2   38.00    0.98
   2  -6   2   38.38    1.07
  -2   6  -3  155.69    3.83
   2   6   3  160.98    3.97
  -2  -6  -3  164.78    3.81
   2  -6   3  164.82    3.91
  -2   6  -4    1.46    0.16
   2   6   4    1.82    0.19
  -2  -6  -4    1.51    0.15
   2  -6   4    1.32    0.19
   2   6   5   45.89    1.38
   2  -6   5   45.22    1.35
  -2  -6  -5   46.24    1.29
   2   6   6   -0.03    0.10
   2  -7  -6   12.25    0.52
  -2  -7   6   12.35    0.51
   2  -7  -5   33.64    1.03
  -2  -7   5   34.86    1.01
  -2   7   4   22.02    0.67
   2  -7  -4   21.88    0.72
  -2  -7   4   22.17    0.69
  -2   7   3   67.35    1.69
  -2  -7   3   67.76    1.68
   2  -7  -3   66.28    1.73
  -2   7   2    4.86    0.23
  -2  -7   2    4.28    0.20
   2  -7  -2    4.55    0.25
  -2   7   1   98.95    2.36
   2  -7  -1   99.62    2.42
  -2  -7   1   97.25    2.31
  -2  -7   1   95.65    2.28
  -2   7   0    5.70    0.25
  -2  -7   0    5.91    0.22
  -2  -7   0    5.48    0.20
   2  -7   0    5.71    0.29
  -2   7  -1   19.62    0.59
   2   7   1   19.28    0.64
   2  -7   1   19.04    0.64
  -2  -7  -1   20.05    0.55
  -2   7  -2    4.30    0.22
   2   7   2    4.02    0.25
  -2  -7  -2    4.10    0.20
   2  -7   2    4.77    0.28
   2   7   3    2.42    0.21
  -2   7  -3    2.12    0.17
  -2  -7  -3    2.22    0.17
   2  -7   3    2.32    0.21
   2   7   4    0.03    0.08
  -2  -7  -4    0.03    0.08
   2  -7   4    0.11    0.10
   2   7   5    4.69    0.33
   2  -7   5    4.89    0.33
   2  -8  -6    3.99    0.29
   2  -8  -5    5.03    0.31
  -2  -8   5    5.46    0.31
   2  -8  -4   44.63    1.26
  -2  -8   4   44.19    1.22
  -2   8   3    0.25    0.08
   2  -8  -3    0.30    0.11
  -2  -8   3    0.25    0.08
  -2   8   2   87.78    2.10
  -2  -8   2   81.96    2.07
   2  -8  -2   85.70    2.16
  -2   8   1    1.01    0.12
  -2  -8   1    1.13    0.11
   2  -8  -1    0.94    0.14
  -2   8   0  102.46    2.49
   2  -8   0  104.13    2.57
  -2  -8   0  103.04    2.46
  -2   8  -1    0.20    0.08
   2   8   1    0.29    0.10
  -2  -8  -1    0.22    0.08
   2  -8   1    0.25    0.10
  -2   8  -2   58.72    1.54
   2   8   2   60.69    1.63
   2  -8   2   60.49    1.63
  -2  -8  -2   59.85    1.51
   2   8   3    3.80    0.27
  -2  -8  -3    3.57    0.22
   2  -8   3    3.51    0.27
   2   8   4   37.92    1.17
  -2  -8  -4   36.92    1.07
   2  -8   4   37.17    1.16
   2   8   5    0.44    0.15
  -2  -9   5   12.13    0.50
   2  -9  -5   11.10    0.51
   2  -9  -4   27.02    0.88
  -2  -9   4   26.64    0.83
  -2  -9   3   24.01    0.72
   2  -9  -3   22.30    0.77
  -2  -9   2    9.46    0.37
   2  -9  -2    9.61    0.43
   2  -9  -1    9.03    0.41
  -2  -9   1    9.17    0.34
  -2  -9   0    0.45    0.09
   2  -9   0    0.56    0.13
   2  -9   1   17.44    0.64
  -2  -9  -1   17.26    0.54
   2   9   2    0.40    0.12
   2  -9   2    0.37    0.12
  -2  -9  -2    0.35    0.09
   2   9   3   -0.01    0.09
  -2  -9  -3    0.04    0.08
   2  -9   3    0.24    0.12
   2   9   4    1.40    0.21
   2  -9   4    1.15    0.19
   2   9   5    0.34    0.14
   2 -10  -4   -0.05    0.09
  -2 -10   4   -0.02    0.08
   2 -10  -3    2.99    0.25
  -2 -10   3    2.97    0.22
  -2 -10   2    1.11    0.15
   2 -10  -2    1.05    0.16
   2 -10  -1   33.16    1.03
  -2 -10   1   34.12    0.95
   2 -10   0   12.97    0.54
  -2 -10   0   12.69    0.45
  -2 -10  -1   60.62    1.58
   2 -10   1   62.55    1.70
  -2 -10  -2    3.96    0.24
   2 -10   2    2.73    0.25
   2  10   3   51.68    1.53
   2 -10   3   54.38    1.56
   2  10   4    1.13    0.20
  -2 -11   3   52.01    1.42
   2 -11  -3   50.81    1.49
  -2 -11   2   25.03    0.79
   2 -11  -2   25.03    0.86
   2 -11  -1   25.89    0.88
  -2 -11   1   25.46    0.78
   2 -11   0    7.69    0.41
  -2 -11   0    7.11    0.34
   2 -11   1    2.21    0.23
  -2 -11  -1    2.54    0.20
   2  11   3    6.22    0.38
  -3   0   8   74.91    2.01
  -3   0   7    0.18    0.09
  -3   0   6  170.06    4.06
  -3   0   5    0.13    0.06
   3   0  -5   -0.01    0.05
  -3   0   4  161.57    3.84
  -3   0   4  165.31    3.84
   3   0  -4  166.93    3.83
  -3   0   3    0.02    0.04
  -3   0   3    0.03    0.04
   3   0  -3    0.11    0.05
  -3   0   2   14.88    0.42
  -3   0   2   16.15    0.42
  -3   0   2   15.77    0.43
   3   0  -2   15.75    0.40
   3   0  -2   15.24    0.41
   3   0  -1    0.15    0.03
  -3   0   1    0.06    0.03
   3   0  -1    0.18    0.03
  -3   0   1    0.05    0.04
   3   0  -1    0.07    0.04
   3   0   0    3.90    0.13
   3   0   0    3.62    0.13
  -3   0   0    3.83    0.14
   3   0   0    4.55    0.18
  -3   0   0    3.64    0.16
  -3   0  -1    0.00    0.04
  -3   0  -1   -0.01    0.05
   3   0   1   -0.02    0.01
   3   0   2   14.93    0.45
  -3   0  -2   15.56    0.45
  -3   0  -2   15.60    0.49
  -3   0  -3    0.06    0.06
  -3   0  -4    3.76    0.22
  -3   0  -5    0.00    0.07
  -3   1   8   11.07    0.49
  -3  -1   8   10.55    0.49
  -3   1   7   22.25    0.72
  -3  -1   7   20.32    0.71
  -3   1   6    1.73    0.16
  -3  -1   6    1.87    0.17
   3  -1  -6    1.81    0.17
   3   1  -5   30.49    0.83
  -3   1   5   30.71    0.86
   3  -1  -5   29.89    0.85
  -3  -1   5   31.17    0.86
  -3   1   4   10.93    0.37
   3   1  -4   10.73    0.35
  -3  -1   4   11.32    0.36
  -3  -1   4   11.14    0.37
   3  -1  -4   11.19    0.37
   3   1  -3   27.28    0.70
  -3   1   3   28.09    0.74
  -3   1   3   28.19    0.74
   3  -1  -3   28.33    0.74
  -3  -1   3   28.14    0.72
  -3  -1   3   29.00    0.73
  -3   1   2   73.80    1.81
  -3   1   2   74.13    1.82
  -3   1   2   79.62    1.82
  -3  -1   2   77.91    1.79
  -3  -1   2   77.16    1.79
   3  -1  -2   77.20    1.82
  -3   1   1    3.87    0.15
  -3   1   1    3.79    0.16
   3   1  -1    3.76    0.17
  -3  -1   1    3.54    0.13
   3  -1  -1    3.80    0.14
  -3  -1   1    3.59    0.12
   3  -1  -1    3.75    0.15
   3   1   0   33.15    0.87
  -3   1   0   32.25    0.81
  -3   1   0   32.00    0.84
   3  -1   0   33.38    0.85
  -3  -1   0   33.09    0.80
  -3  -1   0   32.73    0.78
   3  -1   0   31.25    0.82
   3   1   1   34.76    0.81
  -3   1  -1   32.28    0.89
   3   1   1   34.13    0.93
   3  -1   1   33.68    0.87
  -3  -1  -1   34.08    0.84
  -3  -1  -1   34.37    0.86
   3   1   2   17.50    0.57
  -3   1  -2   16.48    0.49
  -3   1  -2   16.62    0.53
   3  -1   2   16.89    0.50
  -3  -1  -2   16.29    0.50
  -3  -1  -2   16.67    0.47
  -3   1  -3   82.69    2.04
   3  -1   3   86.26    2.06
  -3  -1  -3   81.49    2.02
  -3   1  -4   22.19    0.68
  -3  -1  -4   22.49    0.68
  -3   1  -5   44.40    1.25
  -3  -1  -5   44.67    1.24
  -3   2   8    0.85    0.15
  -3   2   7   30.03    0.91
  -3  -2   7   28.05    0.90
  -3   2   6    2.09    0.17
   3  -2  -6    2.15    0.18
  -3  -2   6    1.83    0.17
  -3   2   5  151.62    3.65
   3   2  -5  154.09    3.61
   3  -2  -5  152.79    3.66
  -3  -2   5  157.85    3.66
  -3   2   4    7.62    0.30
   3  -2  -4    8.36    0.31
  -3  -2   4    7.78    0.28
  -3  -2   4    8.33    0.29
  -3   2   3  245.97    5.61
  -3   2   3  236.49    5.58
   3   2  -3  235.85    5.49
  -3   2   3  246.86    5.58
   3  -2  -3  246.19    5.59
  -3  -2   3  239.65    5.54
  -3  -2   3  243.05    5.53
  -3   2   2   16.24    0.47
  -3   2   2   16.11    0.46
  -3  -2   2   16.34    0.41
  -3  -2   2   15.80    0.41
   3  -2  -2   16.27    0.47
  -3   2   1  368.61    8.39
   3   2  -1  369.00    8.61
  -3   2   1  370.83    8.36
   3  -2  -1  360.06    8.60
   3  -2  -1  362.44    8.36
   3   2   0    1.95    0.13
  -3   2   0    1.75    0.13
  -3   2   0    1.97    0.12
  -3  -2   0    1.93    0.08
   3  -2   0    1.78    0.12
  -3  -2   0    2.35    0.08
   3   2   1  109.00    2.58
  -3   2  -1  103.36    2.51
  -3  -2  -1  102.99    2.42
  -3  -2  -1  102.20    2.44
   3  -2   1  105.29    2.50
  -3   2  -2    5.05    0.21
   3   2   2    4.11    0.16
  -3  -2  -2    4.60    0.19
   3  -2   2    4.64    0.22
  -3  -2  -2    4.52    0.21
  -3   2  -3    1.32    0.12
   3   2   3    1.08    0.16
   3  -2   3    0.90    0.13
  -3  -2  -3    1.09    0.11
   3   2   4   13.95    0.58
  -3   2  -4   14.73    0.51
  -3  -2  -4   14.45    0.49
   3   2   5    4.96    0.35
  -3   2  -5    5.14    0.29
  -3  -2  -5    5.32    0.28
  -3   3   7   10.88    0.47
  -3  -3   7   11.67    0.48
  -3   3   6   10.42    0.42
  -3  -3   6   10.43    0.42
   3  -3  -6   10.52    0.43
  -3   3   5    2.33    0.17
  -3  -3   5    2.21    0.16
   3  -3  -5    2.38    0.18
   3   3  -4    1.18    0.08
  -3   3   4    1.09    0.11
  -3  -3   4    1.09    0.10
  -3  -3   4    1.08    0.10
   3  -3  -4    1.06    0.13
  -3   3   3   12.75    0.40
  -3  -3   3   12.46    0.36
  -3  -3   3   11.92    0.35
   3  -3  -3   12.50    0.42
  -3   3   2   28.10    0.73
  -3   3   2   26.29    0.73
  -3  -3   2   27.24    0.65
  -3  -3   2   27.85    0.66
   3  -3  -2   26.23    0.74
   3   3  -1  228.83    5.30
  -3   3   1  221.16    5.19
  -3   3   1  227.69    5.17
   3  -3  -1  226.84    5.19
   3  -3  -1  217.18    5.23
   3   3   0   98.23    2.42
  -3   3   0   98.08    2.36
  -3  -3   0   96.55    2.24
  -3  -3   0   99.73    2.24
   3  -3   0   98.08    2.35
   3   3   1  160.33    3.77
  -3  -3  -1  156.72    3.57
  -3  -3  -1  152.01    3.59
   3  -3   1  154.40    3.67
  -3   3  -2   91.33    2.22
   3   3   2   90.59    2.33
  -3  -3  -2   93.07    2.17
  -3  -3  -2   91.37    2.19
   3  -3   2   92.68    2.26
   3   3   3  136.15    3.46
  -3   3  -3  136.83    3.31
  -3  -3  -3  139.04    3.29
   3  -3   3  144.64    3.37
   3   3   4   49.60    1.44
  -3   3  -4   48.39    1.32
  -3  -3  -4   50.12    1.30
  -3   3  -5   29.11    0.89
   3   3   5   27.10    0.97
  -3  -3  -5   28.84    0.87
  -3   4   7    1.19    0.17
  -3  -4   7    1.20    0.16
  -3   4   6   44.21    1.23
  -3  -4   6   45.66    1.23
   3  -4  -6   43.90    1.25
  -3   4   5    5.62    0.27
  -3  -4   5    5.93    0.27
   3  -4  -5    5.26    0.28
  -3   4   4  121.06    2.90
  -3   4   4  124.45    2.82
  -3  -4   4  122.08    2.86
   3  -4  -4  120.84    2.92
  -3  -4   4  115.32    2.82
  -3   4   3    9.74    0.35
   3  -4  -3    9.24    0.36
  -3  -4   3    9.46    0.28
  -3  -4   3    9.92    0.31
   3  -4  -2  175.91    4.16
  -3  -4   2  178.28    4.03
  -3  -4   2  178.02    4.04
   3   4  -1   36.12    1.00
  -3   4   1   37.58    0.95
   3  -4  -1   35.79    0.97
   3   4   0  188.54    4.43
  -3   4   0  186.12    4.30
  -3  -4   0  187.37    4.19
  -3  -4   0  178.58    4.20
   3  -4   0  184.27    4.34
  -3   4  -1    6.61    0.27
   3   4   1    6.45    0.30
  -3  -4  -1    6.61    0.21
   3  -4   1    6.59    0.30
  -3  -4  -1    6.89    0.22
   3   4   2   37.22    1.08
  -3   4  -2   37.42    1.00
   3  -4   2   37.54    1.05
  -3  -4  -2   37.40    0.95
   3   4   3    1.06    0.17
  -3   4  -3    1.25    0.15
  -3  -4  -3    1.32    0.13
   3  -4   3    1.29    0.17
  -3   4  -4    3.31    0.22
   3   4   4    3.28    0.27
  -3  -4  -4    3.55    0.21
   3   4   5    2.09    0.23
  -3   4  -5    1.64    0.18
  -3  -5   7    0.18    0.09
  -3   5   6    2.46    0.20
  -3  -5   6    2.39    0.19
   3  -5  -6    2.37    0.21
  -3   5   5   19.48    0.63
  -3  -5   5   19.83    0.61
   3  -5  -5   18.30    0.64
  -3   5   4    2.57    0.18
  -3  -5   4    2.39    0.16
   3  -5  -4    2.43    0.19
  -3   5   3   84.80    2.10
   3  -5  -3   85.13    2.13
  -3  -5   3   88.39    2.02
  -3  -5   3   86.06    2.05
  -3   5   2   16.05    0.50
   3  -5  -2   15.69    0.52
  -3  -5   2   16.33    0.42
  -3  -5   2   15.96    0.40
  -3   5   1   73.31    1.80
   3   5  -1   75.45    1.89
   3  -5  -1   71.98    1.84
  -3   5   0   23.03    0.66
   3   5   0   23.64    0.72
  -3  -5   0   23.83    0.56
   3  -5   0   22.30    0.70
  -3  -5   0   22.84    0.56
   3   5   1   50.45    1.37
  -3  -5  -1   49.66    1.21
  -3  -5  -1   50.01    1.22
   3  -5   1   51.50    1.34
   3   5   2   34.80    1.03
  -3   5  -2   34.58    0.95
   3  -5   2   34.33    1.00
  -3  -5  -2   34.65    0.89
   3   5   3   11.63    0.49
  -3   5  -3   11.37    0.43
   3  -5   3   11.21    0.47
  -3  -5  -3   11.04    0.39
  -3   5  -4   42.94    1.21
   3   5   4   42.72    1.31
  -3  -5  -4   43.86    1.18
   3   5   5    5.76    0.39
  -3   5  -5    6.11    0.33
  -3   6   6    8.10    0.37
  -3  -6   6    8.10    0.37
   3  -6  -6    7.34    0.39
  -3   6   5  101.06    2.50
   3  -6  -5  100.79    2.55
  -3  -6   5  101.15    2.49
  -3   6   4    2.61    0.18
  -3  -6   4    2.51    0.16
   3  -6  -4    2.48    0.20
  -3   6   3   67.76    1.72
  -3  -6   3   71.82    1.66
   3  -6  -3   65.27    1.75
  -3   6   2    8.98    0.34
  -3  -6   2    8.84    0.25
   3  -6  -2    9.11    0.37
  -3  -6   2    8.94    0.28
  -3   6   1   27.94    0.77
   3  -6  -1   26.76    0.81
  -3  -6   1   29.38    0.68
  -3  -6   1   26.11    0.66
   3   6   0    3.74    0.24
  -3   6   0    3.91    0.21
   3  -6   0    3.83    0.24
  -3  -6   0    3.88    0.14
  -3  -6   0    3.75    0.14
   3   6   1    5.08    0.28
   3  -6   1    4.46    0.26
  -3  -6  -1    4.69    0.18
  -3   6  -2   15.58    0.52
   3   6   2   15.79    0.59
   3  -6   2   16.09    0.58
  -3  -6  -2   15.47    0.47
  -3   6  -3    0.12    0.08
   3   6   3    0.07    0.09
   3  -6   3    0.08    0.09
  -3  -6  -3    0.09    0.07
   3   6   4    0.57    0.15
  -3   6  -4    0.49    0.12
  -3  -6  -4    0.61    0.12
   3   6   5    1.56    0.23
  -3  -7   6   20.14    0.68
   3  -7  -6   19.29    0.72
  -3   7   5    1.96    0.17
  -3  -7   5    1.85    0.17
   3  -7  -5    2.16    0.21
  -3   7   4    3.75    0.23
   3  -7  -4    3.96    0.26
  -3  -7   4    3.84    0.21
  -3   7   3    0.06    0.06
   3  -7  -3   -0.03    0.07
  -3  -7   3    0.02    0.05
  -3   7   2    0.17    0.07
  -3  -7   2    0.08    0.05
   3  -7  -2    0.05    0.08
  -3   7   1    8.10    0.32
   3  -7  -1    8.06    0.37
  -3  -7   1    8.13    0.26
  -3   7   0   29.19    0.81
   3   7   0   28.44    0.89
   3  -7   0   27.76    0.87
  -3  -7   0   28.69    0.72
   3   7   1    8.55    0.39
  -3  -7  -1    8.34    0.28
   3  -7   1    7.54    0.37
   3   7   2   57.78    1.63
  -3   7  -2   58.58    1.53
  -3  -7  -2   60.14    1.47
   3  -7   2   58.20    1.60
   3   7   3   26.59    0.90
  -3   7  -3   26.50    0.81
   3  -7   3   26.66    0.88
  -3  -7  -3   25.81    0.77
   3   7   4   34.96    1.14
   3  -8  -6   56.22    1.61
   3  -8  -5    0.61    0.14
  -3  -8   5    0.44    0.11
  -3   8   4  110.62    2.70
  -3  -8   4  109.26    2.67
   3  -8  -4  109.04    2.77
  -3   8   3    1.17    0.15
   3  -8  -3    1.02    0.16
  -3  -8   3    1.68    0.14
  -3   8   2  128.52    3.17
  -3  -8   2  137.38    3.10
   3  -8  -2  129.00    3.23
  -3   8   1    1.37    0.15
   3  -8  -1    1.58    0.20
  -3  -8   1    1.33    0.11
  -3   8   0   50.80    1.31
   3  -8   0   48.10    1.37
  -3  -8   0   49.08    1.22
  -3   8  -1    1.90    0.16
   3   8   1    1.92    0.21
   3  -8   1    2.01    0.20
  -3  -8  -1    2.10    0.14
   3   8   2    2.88    0.24
  -3   8  -2    2.99    0.21
   3  -8   2    3.05    0.25
  -3  -8  -2    2.84    0.17
   3   8   3    1.27    0.20
  -3  -8  -3    1.29    0.15
   3  -8   3    1.05    0.19
   3   8   4   10.19    0.52
  -3  -9   5    4.82    0.29
   3  -9  -5    5.38    0.34
  -3  -9   4    0.82    0.13
   3  -9  -4    0.68    0.15
   3  -9  -3    0.01    0.10
  -3  -9   3    0.01    0.07
  -3   9   2   15.12    0.52
   3  -9  -2   14.83    0.59
  -3  -9   2   15.75    0.49
  -3   9   1    0.86    0.13
  -3  -9   1    0.95    0.11
   3  -9  -1    0.83    0.16
   3  -9   0   56.75    1.57
  -3  -9   0   55.72    1.40
   3   9   1   21.82    0.79
   3  -9   1   22.83    0.78
  -3  -9  -1   22.29    0.65
   3   9   2   67.99    1.89
  -3  -9  -2   67.30    1.70
   3  -9   2   68.06    1.87
   3   9   3   14.20    0.62
   3  -9   3   14.16    0.61
   3   9   4   42.62    1.36
  -3 -10   4    2.30    0.20
   3 -10  -4    1.94    0.24
   3 -10  -3   59.07    1.67
  -3 -10   3   60.19    1.55
  -3 -10   2   10.02    0.38
   3 -10  -2    9.40    0.46
   3 -10  -1   36.60    1.14
  -3 -10   1   37.74    1.00
  -3 -10   0   22.54    0.66
   3 -10   0   22.81    0.80
   3 -10   1   18.85    0.71
  -3 -10  -1   18.39    0.58
   3  10   2    5.32    0.35
   3 -10   2    4.87    0.34
  -3 -10  -2    5.07    0.27
   3  10   3    4.27    0.33
   3 -11  -3   14.51    0.62
   3 -11  -2   12.10    0.56
  -3 -11   2   12.58    0.46
  -3 -11   1   21.28    0.66
   3 -11  -1   20.80    0.78
   3 -11   0   17.05    0.69
  -3 -11   0   16.87    0.56
   3 -11   1   21.32    0.80
  -4   0   7    0.03    0.06
  -4   0   6   25.00    0.77
  -4   0   5    0.12    0.06
  -4   0   4    4.64    0.22
   4   0  -4    5.75    0.22
  -4   0   4    4.50    0.21
  -4   0   3    0.08    0.05
  -4   0   3    0.05    0.05
   4   0  -3    0.02    0.04
  -4   0   2   10.42    0.31
   4   0  -2   10.17    0.27
  -4   0   2    9.77    0.32
   4   0  -2    9.68    0.33
  -4   0   1    0.08    0.05
  -4   0   1    0.15    0.05
  -4   0   0  155.57    3.63
   4   0   0  158.47    3.74
   4   0   0  151.46    3.56
  -4   0   0  157.42    3.60
   4   0   1    0.21    0.05
  -4   0  -1   -0.04    0.04
   4   0   1    0.34    0.09
  -4   0  -1   -0.01    0.06
   4   0   2  107.64    2.71
  -4   0  -2  107.73    2.57
  -4   0  -3    0.03    0.06
  -4   0  -4   92.76    2.31
  -4   1   8    2.95    0.24
  -4   1   7    7.24    0.36
  -4  -1   7    7.29    0.36
  -4   1   6   11.94    0.46
  -4  -1   6   12.21    0.45
  -4   1   5   38.30    1.04
   4  -1  -5   38.06    1.03
  -4  -1   5   39.18    1.04
  -4   1   4  111.83    2.70
   4   1  -4  110.64    2.63
  -4   1   4  114.35    2.69
   4  -1  -4  111.82    2.69
  -4  -1   4  115.64    2.68
  -4  -1   4  113.68    2.67
  -4   1   3   97.18    2.32
  -4   1   3   94.90    2.32
  -4   1   3   95.90    2.31
   4  -1  -3   99.73    2.31
  -4  -1   3  101.78    2.29
  -4  -1   3   94.83    2.29
  -4   1   2  153.31    3.52
   4   1  -2  151.69    3.61
  -4   1   2  148.78    3.53
   4  -1  -2  154.34    3.57
  -4  -1   2  148.06    3.48
  -4  -1   2  152.70    3.49
   4   1  -1   95.16    2.28
  -4   1   1   93.18    2.22
  -4   1   1   96.22    2.20
   4  -1  -1   81.73    2.17
  -4  -1   1   94.75    2.16
  -4  -1   1   94.43    2.17
   4  -1  -1   95.40    2.25
  -4   1   0  144.68    3.54
  -4   1   0  152.98    3.52
   4   1   0  153.72    3.65
  -4  -1   0  147.48    3.50
  -4  -1   0  156.14    3.48
   4  -1   0  152.25    3.62
   4   1   1   78.94    1.99
  -4   1  -1   78.62    1.92
   4  -1   1   74.64    1.87
  -4  -1  -1   77.84    1.89
  -4  -1  -1   79.57    1.86
   4  -1   1   78.03    1.97
  -4   1  -2   40.68    1.07
   4   1   2   40.66    1.17
  -4  -1  -2   42.18    1.06
  -4   1  -3   13.92    0.48
   4   1   3   15.11    0.58
  -4  -1  -3   14.62    0.48
   4   1   4    0.30    0.12
  -4   1  -4    0.06    0.07
  -4  -1  -4    0.10    0.07
   4   1   5    2.40    0.25
  -4   2   8    2.39    0.22
  -4   2   7   36.10    1.08
  -4  -2   7   37.01    1.07
  -4   2   6   15.57    0.55
  -4  -2   6   15.26    0.53
  -4   2   5    1.61    0.14
  -4  -2   5    1.65    0.13
   4  -2  -5    1.72    0.15
   4   2  -4   46.13    1.13
  -4   2   4   49.60    1.24
   4  -2  -4   47.83    1.24
  -4  -2   4   49.52    1.21
  -4  -2   4   47.81    1.20
  -4   2   3    0.58    0.05
  -4   2   3    0.56    0.09
  -4   2   3    0.55    0.09
  -4  -2   3    0.83    0.08
   4  -2  -3    0.64    0.10
  -4  -2   3    0.59    0.07
  -4   2   2   58.73    1.42
  -4   2   2   57.98    1.44
  -4  -2   2   55.41    1.36
  -4  -2   2   58.00    1.35
   4  -2  -2   57.74    1.43
  -4   2   1   44.08    1.12
  -4   2   1   43.62    1.10
   4   2  -1   42.74    1.15
   4  -2  -1   42.70    1.10
  -4  -2   1   42.49    1.03
  -4  -2   1   43.47    1.02
   4  -2  -1   45.03    1.09
   4   2   0    3.06    0.19
  -4   2   0    3.10    0.19
  -4   2   0    2.85    0.16
   4  -2   0    2.81    0.16
  -4  -2   0    2.87    0.13
   4  -2   0    2.80    0.16
  -4  -2   0    3.02    0.12
   4   2   1   48.04    1.32
  -4  -2  -1   47.30    1.21
   4  -2   1   48.76    1.25
  -4  -2  -1   49.73    1.18
   4   2   2    1.23    0.16
  -4   2  -2    1.16    0.12
  -4  -2  -2    1.14    0.10
   4   2   3   37.73    1.16
  -4   2  -3   38.62    1.05
  -4  -2  -3   39.12    1.03
   4   2   4    9.37    0.48
  -4   2  -4   10.04    0.41
  -4  -2  -4   10.20    0.40
   4   2   5   35.98    1.19
  -4   3   8   16.30    0.63
  -4   3   7   51.01    1.41
  -4  -3   7   49.51    1.39
  -4   3   6   42.13    1.18
  -4  -3   6   42.08    1.16
  -4   3   5   77.94    1.97
   4  -3  -5   79.78    1.99
  -4  -3   5   78.47    1.94
  -4   3   4   59.54    1.54
   4  -3  -4   61.78    1.56
  -4  -3   4   61.26    1.49
  -4   3   3   50.11    1.26
  -4  -3   3   47.82    1.18
  -4  -3   3   48.58    1.18
   4  -3  -3   49.58    1.27
  -4   3   2   39.62    1.05
   4  -3  -2   41.28    1.07
  -4  -3   2   39.20    0.95
  -4  -3   2   41.84    0.95
   4   3  -1    0.10    0.07
  -4   3   1    0.15    0.06
  -4   3   1    0.08    0.07
   4  -3  -1    0.14    0.04
  -4  -3   1    0.14    0.03
   4  -3  -1    0.21    0.08
   4   3   0   17.01    0.57
  -4   3   0   16.98    0.51
   4  -3   0   16.59    0.53
  -4  -3   0   16.73    0.44
  -4   3  -1    0.46    0.09
   4   3   1    0.53    0.11
   4  -3   1    0.42    0.09
  -4  -3  -1    0.68    0.07
   4   3   2    3.68    0.25
  -4   3  -2    3.30    0.20
  -4  -3  -2    3.39    0.17
  -4   3  -3    3.73    0.22
   4   3   3    3.96    0.28
  -4  -3  -3    3.59    0.20
   4   3   4    0.13    0.10
  -4   3  -4    0.03    0.07
  -4  -3  -4    0.05    0.07
  -4   4   7    0.22    0.09
  -4  -4   7    0.32    0.10
  -4   4   6   41.37    1.18
  -4  -4   6   42.20    1.15
  -4   4   5   18.20    0.60
   4  -4  -5   18.24    0.62
  -4  -4   5   18.29    0.56
  -4   4   4   22.64    0.67
   4  -4  -4   22.51    0.69
  -4  -4   4   21.33    0.61
  -4   4   3   10.05    0.37
   4  -4  -3   10.66    0.40
  -4  -4   3   10.44    0.30
  -4  -4   3   10.45    0.31
  -4   4   2    1.99    0.15
   4  -4  -2    1.97    0.16
  -4  -4   2    2.11    0.08
   4   4  -1   10.07    0.40
  -4   4   1   10.30    0.36
   4  -4  -1   11.00    0.39
   4  -4  -1   10.06    0.30
  -4   4   0   30.68    0.85
   4   4   0   31.37    0.93
  -4  -4   0   32.02    0.76
  -4  -4   0   30.63    0.75
   4  -4   0   31.95    0.89
   4   4   1    0.54    0.11
  -4   4  -1    0.53    0.09
  -4  -4  -1    0.54    0.07
   4  -4   1    0.68    0.12
   4   4   2   49.28    1.41
  -4   4  -2   51.11    1.31
  -4  -4  -2   47.91    1.23
   4   4   3    6.83    0.38
  -4   4  -3    6.48    0.32
  -4  -4  -3    6.52    0.28
  -4   4  -4   67.19    1.73
   4   4   4   62.70    1.86
  -4  -4  -4   65.26    1.68
  -4   5   7   12.75    0.53
  -4   5   6   13.62    0.53
  -4  -5   6   14.10    0.50
  -4   5   5   36.50    1.04
   4  -5  -5   36.30    1.07
  -4  -5   5   37.62    1.00
  -4   5   4   76.78    1.94
   4  -5  -4   77.33    1.97
  -4  -5   4   76.81    1.86
  -4   5   3   63.95    1.64
   4  -5  -3   65.44    1.67
  -4  -5   3   65.48    1.52
  -4  -5   3   63.68    1.54
  -4   5   2   76.37    1.90
   4  -5  -2   77.05    1.94
   4   5  -1   70.12    1.84
  -4   5   1   72.03    1.76
   4  -5  -1   69.58    1.79
   4  -5  -1   69.69    1.68
  -4   5   0   83.95    2.07
   4   5   0   83.48    2.18
   4  -5   0   83.54    2.11
  -4  -5   0   84.18    1.95
  -4  -5   0   85.38    1.94
   4   5   1   16.80    0.61
   4  -5   1   16.83    0.58
  -4  -5  -1   16.13    0.45
   4   5   2   28.18    0.93
  -4   5  -2   28.71    0.84
  -4  -5  -2   28.56    0.76
   4   5   3    0.31    0.12
  -4   5  -3    0.39    0.11
  -4  -5  -3    0.49    0.10
   4   5   4    1.04    0.20
  -4   5  -4    1.15    0.16
  -4   6   6    0.68    0.13
  -4  -6   6    0.76    0.13
  -4   6   5   19.48    0.67
   4  -6  -5   21.56    0.72
  -4  -6   5   20.20    0.63
  -4   6   4    1.32    0.15
  -4  -6   4    1.37    0.12
   4  -6  -4    1.38    0.18
  -4   6   3    1.77    0.15
  -4  -6   3    1.76    0.11
   4  -6  -3    1.85    0.18
  -4   6   2    0.17    0.07
   4  -6  -2    0.30    0.10
  -4  -6   2    0.23    0.04
  -4  -6   2    0.24    0.03
  -4   6   1   23.88    0.69
   4   6  -1   21.75    0.75
   4  -6  -1   23.13    0.73
   4   6   0    9.95    0.44
  -4   6   0   10.00    0.38
  -4  -6   0   10.18    0.29
   4  -6   0   11.66    0.45
   4   6   1   72.80    1.99
  -4  -6  -1   75.21    1.76
   4  -6   1   73.60    1.93
  -4   6  -2    0.41    0.10
   4   6   2    0.44    0.13
  -4  -6  -2    0.48    0.08
   4   6   3   77.79    2.16
  -4   6  -3   76.80    2.01
  -4  -6  -3   79.37    1.94
  -4   6  -4    1.55    0.19
   4   6   4    1.43    0.24
  -4  -7   6   25.69    0.80
  -4   7   5   23.85    0.77
  -4  -7   5   24.96    0.74
   4  -7  -5   24.14    0.82
  -4   7   4   23.69    0.75
  -4  -7   4   24.90    0.70
   4  -7  -4   24.12    0.80
  -4   7   3   83.93    2.13
   4  -7  -3   85.14    2.19
  -4  -7   3   85.94    2.03
  -4   7   2   35.26    1.00
  -4  -7   2   35.61    0.88
   4  -7  -2   35.78    1.05
  -4   7   1  102.55    2.47
  -4  -7   1  102.37    2.32
   4  -7  -1   96.68    2.52
   4   7   0   13.10    0.53
  -4   7   0   12.56    0.46
   4  -7   0   11.99    0.50
  -4  -7   0   12.87    0.35
   4   7   1   86.41    2.34
  -4   7  -1   87.59    2.21
   4  -7   1   89.49    2.29
  -4  -7  -1   89.72    2.10
   4   7   2    4.73    0.33
  -4   7  -2    4.56    0.27
  -4  -7  -2    4.77    0.22
   4   7   3   16.06    0.69
  -4   7  -3   16.15    0.60
  -4  -7  -3   16.74    0.54
  -4  -8   5    2.24    0.18
   4  -8  -5    2.15    0.25
  -4   8   4    7.88    0.36
  -4  -8   4    7.41    0.31
   4  -8  -4    7.35    0.39
  -4   8   3   10.13    0.42
   4  -8  -3    9.85    0.46
  -4  -8   3   11.06    0.36
  -4   8   2   36.19    1.02
  -4  -8   2   35.94    0.90
   4  -8  -2   35.18    1.08
  -4   8   1    0.87    0.14
  -4  -8   1    0.87    0.08
   4  -8  -1    0.89    0.16
  -4   8   0   34.94    1.01
   4   8   0   34.99    1.11
   4  -8   0   35.95    1.09
  -4  -8   0   35.39    0.89
   4   8   1    0.10    0.10
  -4   8  -1    0.14    0.08
  -4  -8  -1    0.02    0.05
   4  -8   1    0.18    0.11
   4   8   2   26.68    0.95
  -4   8  -2   26.87    0.84
  -4  -8  -2   27.87    0.77
   4   8   3    0.92    0.19
   4  -9  -5   13.90    0.60
  -4  -9   4   37.86    1.04
   4  -9  -4   37.75    1.18
  -4   9   3   26.18    0.81
  -4  -9   3   25.67    0.73
   4  -9  -3   26.52    0.89
  -4   9   2   14.45    0.53
  -4  -9   2   14.92    0.45
   4  -9  -2   14.59    0.60
  -4   9   1   44.83    1.25
  -4  -9   1   46.37    1.15
   4  -9  -1   46.53    1.35
  -4   9   0    3.41    0.23
   4  -9   0    3.39    0.27
  -4  -9   0    3.54    0.18
   4   9   1   16.65    0.67
  -4  -9  -1   15.63    0.49
   4  -9   1   15.16    0.63
   4   9   2    0.54    0.16
  -4  -9  -2    0.35    0.09
   4 -10  -4   -0.02    0.10
  -4 -10   4   -0.04    0.07
  -4 -10   3    2.20    0.17
   4 -10  -3    2.05    0.25
  -4 -10   2    0.44    0.09
   4 -10  -2    0.45    0.15
   4 -10  -1    2.48    0.25
  -4 -10   1    2.06    0.15
  -4 -10   0    0.10    0.07
   4 -10   0    0.11    0.11
   4  10   1   24.86    0.91
  -4 -10  -1   24.61    0.72
   4  10   2    1.81    0.25
   4 -11  -3   30.31    1.04
  -4 -11   2   28.14    0.80
   4 -11  -2   26.85    0.96
   4 -11  -1   30.91    1.06
  -4 -11   1   32.11    0.88
   4 -11   0   10.86    0.54
  -5   0   7   -0.03    0.06
  -5   0   6   78.78    1.99
  -5   0   5    0.25    0.08
  -5   0   4   94.53    2.28
  -5   0   3    0.25    0.06
   5   0  -2   63.12    1.57
  -5   0   2   64.04    1.51
  -5   0   2   59.36    1.52
  -5   0   1    0.10    0.05
  -5   0   1    0.07    0.06
   5   0  -1   -0.01    0.05
   5   0   0    2.88    0.19
  -5   0   0    2.82    0.15
  -5   0  -1    0.05    0.06
   5   0   1   -0.01    0.07
   5   0   2    4.58    0.29
  -5   0  -2    5.00    0.24
  -5   0  -3    0.10    0.07
   5   0   3   -0.04    0.07
   5   0   4    0.03    0.07
  -5   1   7   51.33    1.42
  -5  -1   7   51.09    1.40
  -5   1   6   19.25    0.64
  -5  -1   6   19.00    0.62
  -5   1   5   63.79    1.61
  -5  -1   5   62.39    1.59
  -5   1   4    1.63    0.13
  -5  -1   4    1.77    0.12
  -5   1   3   38.23    1.00
  -5  -1   3   38.63    0.97
  -5   1   2    4.65    0.23
  -5   1   2    5.04    0.21
   5   1  -2    4.93    0.24
  -5  -1   2    4.81    0.19
   5  -1  -2    5.08    0.21
  -5  -1   2    4.87    0.20
   5   1  -1    5.12    0.25
  -5   1   1    5.03    0.22
   5  -1  -1    5.37    0.24
  -5  -1   1    5.38    0.20
  -5  -1   1    5.09    0.21
   5   1   0   20.91    0.67
  -5   1   0   21.15    0.59
  -5  -1   0   20.17    0.56
   5  -1   0   20.63    0.64
  -5   1  -1   18.01    0.55
   5   1   1   18.38    0.64
   5  -1   1   17.75    0.61
  -5  -1  -1   18.28    0.53
   5   1   2   11.82    0.50
  -5   1  -2   11.85    0.42
  -5  -1  -2   12.12    0.41
   5  -1   2   11.92    0.49
   5   1   3   29.80    1.00
  -5   1  -3   31.39    0.90
   5  -1   3   30.47    0.99
  -5  -1  -3   31.80    0.89
   5   1   4    4.63    0.33
   5  -1   4    4.40    0.32
  -5   2   7   10.76    0.45
  -5  -2   7    9.77    0.43
  -5   2   6    0.35    0.10
  -5  -2   6    0.26    0.09
  -5   2   5   34.41    0.98
  -5  -2   5   35.81    0.95
  -5   2   4    2.00    0.15
  -5  -2   4    2.12    0.13
  -5   2   3  170.28    3.96
  -5  -2   3  167.63    3.90
  -5   2   2    5.03    0.23
  -5   2   2    5.19    0.26
   5   2  -2    5.32    0.27
  -5  -2   2    5.55    0.20
   5  -2  -2    5.38    0.21
  -5  -2   2    5.36    0.19
  -5   2   1  169.55    3.85
   5   2  -1  163.15    3.98
   5  -2  -1  164.32    3.91
  -5  -2   1  164.12    3.77
  -5  -2   1  159.84    3.79
   5   2   0    0.42    0.10
  -5   2   0    0.49    0.09
  -5  -2   0    0.65    0.07
   5  -2   0    0.56    0.10
  -5   2  -1  117.24    2.74
   5   2   1  111.77    2.88
  -5  -2  -1  112.57    2.68
   5  -2   1  113.89    2.84
   5   2   2    1.95    0.20
  -5   2  -2    1.85    0.16
   5  -2   2    1.88    0.18
  -5  -2  -2    1.89    0.14
  -5   2  -3   32.83    0.95
   5   2   3   33.71    1.09
  -5  -2  -3   33.06    0.93
   5   2   4    0.83    0.17
  -5   3   7   14.96    0.57
  -5  -3   7   15.22    0.56
  -5   3   6   21.62    0.71
  -5  -3   6   21.97    0.68
  -5   3   5   11.02    0.43
  -5  -3   5   11.06    0.39
  -5   3   4   13.51    0.46
  -5  -3   4   12.66    0.40
  -5   3   3    1.94    0.15
  -5  -3   3    1.74    0.10
  -5   3   2    1.03    0.12
   5   3  -2    0.93    0.13
  -5  -3   2    0.90    0.08
  -5  -3   2    1.10    0.07
   5  -3  -2    1.18    0.08
   5   3  -1    0.05    0.08
  -5   3   1    0.02    0.05
  -5  -3   1    0.11    0.04
   5  -3  -1    0.09    0.05
  -5  -3   1    0.22    0.05
  -5   3   0    6.46    0.28
   5   3   0    6.37    0.33
  -5  -3   0    6.58    0.21
   5  -3   0    6.53    0.28
   5   3   1   26.26    0.87
   5  -3   1   26.85    0.82
  -5  -3  -1   27.69    0.71
   5   3   2   22.41    0.79
  -5   3  -2   21.25    0.68
  -5  -3  -2   22.34    0.63
   5   3   3   18.02    0.73
  -5   3  -3   19.26    0.64
  -5  -3  -3   19.29    0.60
  -5   4   7    0.82    0.15
  -5   4   6   21.05    0.70
  -5  -4   6   19.82    0.64
  -5   4   5    3.88    0.24
  -5  -4   5    4.05    0.21
  -5   4   4   92.08    2.27
  -5  -4   4   91.23    2.18
  -5   4   3    1.85    0.16
  -5  -4   3    1.98    0.10
  -5   4   2  188.11    4.36
  -5  -4   2  190.15    4.22
   5  -4  -2  184.05    4.38
  -5  -4   2  179.02    4.22
   5   4  -1    2.48    0.20
  -5   4   1    2.17    0.16
   5  -4  -1    2.42    0.13
  -5  -4   1    2.22    0.09
  -5  -4   1    2.30    0.10
   5   4   0  132.43    3.37
  -5   4   0  135.74    3.22
  -5  -4   0  133.55    3.10
   5  -4   0  137.10    3.26
   5   4   1    6.51    0.36
  -5  -4  -1    6.78    0.24
  -5   4  -2   77.38    2.00
   5   4   2   80.06    2.16
  -5  -4  -2   79.24    1.92
  -5   4  -3    2.38    0.20
   5   4   3    2.52    0.25
  -5  -4  -3    2.44    0.18
  -5   5   7    5.10    0.31
  -5   5   6   34.41    1.02
  -5  -5   6   33.03    0.96
  -5   5   5    0.80    0.14
  -5  -5   5    0.94    0.11
  -5   5   4    6.02    0.30
  -5  -5   4    6.52    0.24
  -5   5   3   16.68    0.55
  -5  -5   3   15.62    0.43
  -5   5   2    2.56    0.18
   5   5  -1   28.16    0.91
  -5   5   1   29.13    0.83
  -5   5   0    6.14    0.29
   5   5   0    5.82    0.34
  -5  -5   0    6.03    0.19
   5   5   1    9.66    0.47
  -5  -5  -1    9.59    0.31
   5   5   2   15.75    0.66
  -5   5  -2   15.71    0.56
  -5  -5  -2   16.26    0.49
   5   5   3    3.54    0.30
  -5   6   7   32.29    1.02
  -5   6   6    2.16    0.21
  -5  -6   6    2.40    0.18
  -5   6   5   68.77    1.80
  -5  -6   5   67.95    1.71
  -5   6   4    0.12    0.08
  -5  -6   4    0.06    0.05
  -5   6   3   76.93    1.94
  -5  -6   3   74.86    1.78
  -5   6   2    1.23    0.15
  -5   6   1   43.40    1.15
   5   6  -1   39.74    1.24
   5   6   0   15.10    0.61
  -5   6   0   14.93    0.53
  -5  -6   0   14.80    0.40
   5   6   1   14.41    0.62
  -5   6  -1   14.95    0.54
  -5  -6  -1   15.34    0.44
  -5   6  -2    2.19    0.19
   5   6   2    2.21    0.27
  -5  -6  -2    2.48    0.16
   5   6   3    3.69    0.32
  -5   7   6   19.14    0.68
  -5   7   5   20.47    0.70
  -5  -7   5   20.55    0.62
  -5   7   4   30.22    0.92
  -5  -7   4   30.92    0.81
  -5   7   3    3.48    0.23
  -5  -7   3    3.82    0.16
  -5   7   2    4.78    0.27
  -5   7   1    0.44    0.11
  -5   7   0    0.91    0.14
   5   7   0    0.83    0.17
  -5  -7   0    0.99    0.08
   5   7   1   11.01    0.53
  -5   7  -1   11.53    0.46
  -5  -7  -1   11.33    0.36
   5   7   2   16.95    0.72
  -5   7  -2   16.58    0.61
  -5  -7  -2   17.33    0.53
  -5   8   5   -0.02    0.08
  -5  -8   5    0.09    0.07
  -5   8   4   40.13    1.16
  -5  -8   4   39.50    1.03
  -5   8   3    2.70    0.21
  -5  -8   3    2.93    0.15
  -5   8   2   60.40    1.61
  -5  -8   2   61.26    1.44
  -5   8   1    0.59    0.13
  -5   8   0   61.17    1.62
   5   8   0   60.26    1.76
  -5  -8   0   60.33    1.45
  -5   8  -1    1.52    0.18
   5   8   1    1.49    0.23
  -5  -8  -1    1.58    0.13
   5   8   2   20.09    0.82
  -5  -9   4    9.41    0.35
  -5   9   3    6.83    0.35
  -5  -9   3    6.96    0.26
  -5   9   2    2.12    0.20
  -5   9   1    0.74    0.14
   5   9   1    3.54    0.31
  -5  -9  -1    3.68    0.19
  -5 -10   3   45.01    1.15
  -6   0   6   32.45    0.95
  -6   0   5    0.04    0.06
  -6   0   4   34.08    0.93
  -6   0   3   -0.02    0.06
  -6   0   2   11.04    0.37
   6   0  -2   10.75    0.41
   6   0  -1   -0.02    0.06
  -6   0   1    0.06    0.06
  -6   0   0    1.76    0.14
   6   0   0    1.82    0.18
   6   0   1    0.13    0.09
  -6   0  -1    0.07    0.07
  -6   0  -2   14.91    0.51
   6   0   2   14.32    0.60
   6   0   3   -0.05    0.07
  -6   1   6    2.84    0.20
  -6  -1   6    2.70    0.19
  -6   1   5   28.59    0.84
  -6  -1   5   29.60    0.83
  -6   1   4    8.51    0.34
  -6  -1   4    9.22    0.33
  -6   1   3   75.94    1.87
  -6  -1   3   76.26    1.84
   6   1  -2   62.75    1.66
  -6   1   2   63.92    1.58
   6  -1  -2   63.41    1.61
  -6  -1   2   62.78    1.54
  -6   1   1   95.68    2.28
   6   1  -1   92.46    2.40
  -6  -1   1   93.68    2.24
   6  -1  -1   94.89    2.36
   6   1   0   60.82    1.70
  -6   1   0   64.38    1.58
  -6  -1   0   62.29    1.54
   6  -1   0   63.48    1.68
  -6   1  -1   43.29    1.15
   6   1   1   43.08    1.28
   6  -1   1   42.33    1.25
  -6  -1  -1   43.17    1.12
  -6   1  -2   40.28    1.10
   6   1   2   38.72    1.23
  -6  -1  -2   39.98    1.07
   6  -1   2   39.13    1.20
   6   1   3   17.52    0.72
   6  -1   3   18.10    0.71
  -6   2   6    8.83    0.39
  -6  -2   6    9.02    0.37
  -6   2   5   52.52    1.41
  -6  -2   5   53.34    1.36
  -6   2   4   20.06    0.63
  -6  -2   4   20.58    0.59
  -6   2   3    3.87    0.22
  -6  -2   3    3.80    0.18
  -6   2   2   15.02    0.49
   6   2  -2   14.63    0.54
  -6  -2   2   15.09    0.43
  -6   2   1    0.27    0.08
   6   2  -1    0.15    0.09
  -6  -2   1    0.19    0.05
   6  -2  -1    0.09    0.06
  -6   2   0    4.76    0.25
   6   2   0    5.23    0.31
   6  -2   0    4.90    0.27
  -6   2  -1   10.53    0.40
   6   2   1   10.67    0.49
   6  -2   1   11.24    0.46
  -6  -2  -1   10.43    0.36
   6   2   2    1.74    0.23
  -6  -2  -2    1.67    0.15
   6  -2   2    1.66    0.21
   6   2   3   15.31    0.67
   6  -2   3   15.84    0.65
  -6   3   6   16.77    0.60
  -6  -3   6   16.14    0.55
  -6   3   5   28.60    0.85
  -6  -3   5   27.94    0.79
  -6   3   4   31.88    0.92
  -6  -3   4   32.03    0.84
  -6   3   3   19.75    0.63
  -6  -3   3   20.40    0.54
  -6   3   2   33.95    0.97
   6   3  -2   35.66    1.06
  -6  -3   2   36.17    0.88
  -6   3   1   14.20    0.48
   6   3  -1   13.97    0.55
  -6  -3   1   13.75    0.39
   6   3   0   18.45    0.69
  -6   3   0   19.15    0.60
   6  -3   0   19.18    0.62
  -6  -3   0   18.35    0.52
  -6   3  -1    0.27    0.09
   6   3   1    0.24    0.11
   6  -3   1    0.37    0.10
  -6  -3  -1    0.24    0.07
   6   3   2    6.56    0.40
  -6  -3  -2    7.12    0.30
   6  -3   2    7.27    0.38
   6  -3   3    1.52    0.21
  -6   4   6   85.15    2.19
  -6  -4   6   84.76    2.12
  -6   4   5    0.45    0.11
  -6  -4   5    0.68    0.10
  -6   4   4   59.06    1.57
  -6  -4   4   60.41    1.46
  -6   4   3   12.44    0.46
  -6  -4   3   12.72    0.36
  -6   4   2    9.24    0.38
  -6  -4   2   10.06    0.28
  -6   4   1    3.71    0.22
   6   4  -1    3.63    0.26
  -6  -4   1    3.51    0.14
   6   4   0    0.59    0.14
  -6   4   0    0.57    0.11
  -6  -4   0    0.54    0.07
   6   4   1    0.47    0.14
  -6   4  -1    0.38    0.10
  -6  -4  -1    0.38    0.08
   6   4   2   20.57    0.81
   6  -4   2   21.13    0.74
   6  -4   3    1.32    0.20
  -6   5   6    6.82    0.36
  -6  -5   6    6.96    0.31
  -6   5   5    2.21    0.19
  -6  -5   5    2.20    0.15
  -6   5   4   16.33    0.59
  -6  -5   4   17.66    0.49
  -6   5   3   10.65    0.42
  -6  -5   3   10.05    0.29
  -6   5   2   60.83    1.61
  -6  -5   2   62.02    1.43
  -6   5   1   18.17    0.60
   6   5  -1   17.22    0.67
  -6  -5   1   17.40    0.44
  -6   5   0   47.06    1.28
   6   5   0   47.03    1.42
  -6  -5   0   46.82    1.14
  -6   5  -1   24.49    0.76
   6   5   1   22.87    0.86
  -6  -5  -1   23.16    0.64
   6   5   2   25.47    0.95
  -6   6   5   35.65    1.07
  -6  -6   5   36.21    0.96
  -6   6   4    0.15    0.10
  -6  -6   4    0.17    0.05
  -6   6   3   22.18    0.73
  -6  -6   3   22.74    0.57
  -6   6   2    0.02    0.07
   6   6  -1    3.64    0.29
  -6   6   1    3.55    0.24
  -6   6   0    2.48    0.20
   6   6   0    2.69    0.26
  -6  -6   0    2.38    0.12
   6   6   1    2.90    0.28
  -6  -6  -1    3.17    0.17
  -6   7   5    7.39    0.37
  -6  -7   5    6.84    0.29
  -6   7   4   36.38    1.07
  -6  -7   4   35.03    0.91
  -6   7   3   35.54    1.05
  -6   7   2   27.24    0.85
   6   7  -1   70.83    2.03
  -6   7   1   72.91    1.88
   6   7   0   18.92    0.77
  -6   7   0   19.49    0.67
   6   7   1   50.54    1.59
  -6  -7  -1   51.19    1.27
  -6   8   4    1.78    0.19
  -6   8   3    2.79    0.22
  -6   8   2    1.06    0.16
  -6   8   1    3.51    0.24
   6   8   0    5.86    0.41
  -7   0   5    0.01    0.07
  -7   0   4   33.13    0.92
  -7   0   3    0.29    0.09
   7   0  -2   26.80    0.83
  -7   0   2   26.74    0.75
   7   0  -1    0.04    0.08
  -7   0   1   -0.03    0.06
   7   0   0   23.25    0.80
   7   0   1    0.05    0.10
   7   0   2    4.39    0.32
  -7   1   5   58.20    1.51
  -7  -1   5   56.69    1.48
  -7   1   4   19.00    0.61
  -7  -1   4   19.06    0.58
  -7   1   3   37.56    1.04
  -7  -1   3   39.21    1.01
   7   1  -2    0.43    0.11
  -7   1   2   -0.05    0.06
  -7  -1   2    0.08    0.06
  -7   1   1    5.92    0.27
   7   1  -1    5.72    0.33
  -7  -1   1    5.62    0.24
   7   1   0    1.08    0.18
  -7  -1   0    1.06    0.12
   7  -1   0    0.96    0.16
   7   1   1    0.32    0.12
   7  -1   1    0.11    0.11
   7  -1   2    2.38    0.24
  -7   2   5    9.38    0.40
  -7  -2   5    9.54    0.36
  -7   2   4    9.82    0.40
  -7  -2   4   10.26    0.36
  -7   2   3   25.66    0.77
  -7  -2   3   25.94    0.71
  -7   2   2    7.67    0.33
   7   2  -2    8.26    0.40
  -7  -2   2    8.06    0.29
   7   2  -1   76.34    2.03
  -7   2   1   74.96    1.88
  -7  -2   1   73.36    1.81
   7   2   0    3.22    0.27
  -7   2   0    3.14    0.22
  -7  -2   0    3.33    0.18
   7   2   1   59.35    1.73
  -7   3   5   13.12    0.51
  -7  -3   5   13.60    0.45
  -7   3   4   20.40    0.67
  -7  -3   4   20.86    0.60
  -7   3   3   18.98    0.64
  -7  -3   3   20.53    0.56
   7   3  -2   12.44    0.52
  -7   3   2   11.22    0.44
  -7  -3   2   11.22    0.36
  -7   3   1    8.98    0.37
   7   3  -1    8.54    0.44
  -7  -3   1    8.70    0.30
   7   3   0    1.68    0.23
  -7  -3   0    1.68    0.13
   7   3   1    3.89    0.31
  -7  -4   5    2.33    0.16
  -7   4   4   35.86    1.05
  -7  -4   4   35.95    0.93
  -7   4   3    5.23    0.29
  -7  -4   3    5.69    0.21
  -7   4   2   74.21    1.91
  -7  -4   2   75.05    1.76
  -7   4   1    0.05    0.07
   7   4  -1    0.01    0.10
  -7  -4   1    0.11    0.05
   7   4   0   87.65    2.43
  -7  -4   0   90.16    2.12
   7   4   1    1.63    0.24
  -7  -5   5    4.89    0.23
  -7   5   4   29.95    0.94
  -7  -5   4   32.20    0.81
  -7   5   3    0.08    0.08
  -7   5   2    5.19    0.29
   7   5  -1    0.71    0.17
   7   5   0    0.43    0.15
  -7  -5   0    0.43    0.08
  -7  -6   5   20.75    0.61
   7   6  -1   32.10    1.11
  -8  -1   3   31.00    0.87
  -8  -2   4    2.86    0.18
  -8  -2   3   32.91    0.89
  -8  -2   2    3.75    0.20
   8   2  -1    3.14    0.28
   8   2   0    0.42    0.14
  -8  -3   4    8.31    0.32
  -8  -3   3    7.05    0.27
  -8  -3   2   12.53    0.40
   8   3  -1    4.72    0.34
  -8  -4   4   51.99    1.30
   8   4  -1    2.35    0.26
   0   0   0    0.00    0.00
;
_shelx_hkl_checksum              63898
_shelx_res_file
;
    licl_2h2o.res created by SHELXL-2014/7
TITL p21_c in P2(1)/c
CELL 0.71073   6.0838   9.3592   6.0632  90.000 113.543  90.000
ZERR    4.00   0.0008   0.0013   0.0009   0.000   0.003   0.000
LATT 1
SYMM -X, 0.5+Y, 0.5-Z
SFAC Li Cl O  H
UNIT 4  4  8  16
OMIT -3 70
L.S. 12
ACTA
BOND
FMAP 2
PLAN 2
HTAB O1 Cl1_$4
HTAB O1 Cl1_$3
HTAB O2 Cl1_$2
HTAB O2 Cl1_$1
HTAB O1 Cl1_$4
HTAB O1 Cl1_$3
HTAB O2 Cl1_$2
HTAB O2 Cl1_$1
HTAB O1 Cl1_$4
EQIV $4 x-1, y, z
HTAB O1 Cl1_$3
EQIV $3 -x+2, -y+1, -z
HTAB O2 Cl1_$2
EQIV $2 x-1, -y+3/2, z-1/2
HTAB O2 Cl1_$1
EQIV $1 -x+2, y+1/2, -z+1/2
HTAB
HTAB O2 Cl1_$1
HTAB O2 Cl1_$2
HTAB O1 Cl1_$3
HTAB O1 Cl1_$4
TEMP 23.000
WGHT    0.017500    0.045800
EXTI    0.110609
FVAR       0.43033
MOLE 1
LI1   1    1.010626    0.662547    0.457288    11.00000    0.01916    0.01526 =
         0.01722    0.00179    0.00656   -0.00026
CL1   2    1.287961    0.626877    0.217929    11.00000    0.01299    0.01208 =
         0.01222    0.00058    0.00579    0.00179
O2    3    0.810433    0.805581    0.188844    11.00000    0.01236    0.01043 =
         0.01502   -0.00092    0.00405    0.00003
O1    3    0.789079    0.489240    0.292116    11.00000    0.01205    0.01399 =
         0.01191   -0.00186    0.00547    0.00082
H2A   4    0.798608    0.884124    0.230586    11.00000    0.02236
H2B   4    0.682991    0.784243    0.111197    11.00000    0.04030
H1A   4    0.774247    0.462713    0.166011    11.00000    0.02877
H1B   4    0.662113    0.511187    0.285008    11.00000    0.03190
HKLF 4
REM  p21_c in P2(1)/c
REM R1 =  0.0147 for     808 Fo > 4sig(Fo)  and  0.0152 for all     831 data
REM     54 parameters refined using      0 restraints
END
WGHT      0.0193      0.0299
REM Instructions for potential hydrogen bonds
HTAB O2 Cl1_$1
HTAB O2 Cl1_$2
HTAB O1 Cl1_$3
HTAB O1 Cl1_$4
REM Highest difference peak  0.211,  deepest hole -0.206,  1-sigma level  0.048
Q1    1   1.2414  0.5860  0.0943  11.00000  0.05    0.21
Q2    1   1.2438  0.6592  0.0743  11.00000  0.05    0.18
;
_shelx_res_checksum              18843
loop_
_space_group_symop_operation_xyz
'x, y, z'
'-x, y+1/2, -z+1/2'
'-x, -y, -z'
'x, -y-1/2, z-1/2'
loop_
_atom_site_type_symbol
_atom_site_label
_atom_site_fract_x
_atom_site_fract_y
_atom_site_fract_z
_atom_site_U_iso_or_equiv
_atom_site_adp_type
_atom_site_calc_flag
_atom_site_occupancy
Li Li1 1.0106(2) 0.66255(15) 0.4573(2) 0.0174(3) Uani d 1
Cl Cl1 1.28796(3) 0.62688(2) 0.21793(3) 0.01219(8) Uani d 1
O O1 0.78908(10) 0.48924(6) 0.29212(10) 0.01243(13) Uani d 1
O O2 0.81043(10) 0.80558(6) 0.18884(10) 0.01305(12) Uani d 1
H H1A 0.7742(19) 0.4627(14) 0.166(2) 0.029(3) Uiso d 1
H H1B 0.662(2) 0.5112(14) 0.285(2) 0.032(3) Uiso d 1
H H2A 0.7986(19) 0.8841(13) 0.2306(19) 0.022(3) Uiso d 1
H H2B 0.683(2) 0.7842(14) 0.111(3) 0.040(4) Uiso d 1
loop_
_atom_site_aniso_label
_atom_site_aniso_U_11
_atom_site_aniso_U_22
_atom_site_aniso_U_33
_atom_site_aniso_U_12
_atom_site_aniso_U_13
_atom_site_aniso_U_23
Li1 0.0192(6) 0.0153(6) 0.0172(6) -0.0003(5) 0.0066(5) 0.0018(5)
Cl1 0.01299(11) 0.01208(12) 0.01222(11) 0.00179(5) 0.00579(7) 0.00058(5)
O1 0.0121(3) 0.0140(3) 0.0119(3) 0.00082(19) 0.00547(19) -0.0019(2)
O2 0.0124(2) 0.0104(3) 0.0150(3) 0.00003(19) 0.0040(2) -0.0009(2)
loop_
_atom_type_symbol
_atom_type_description
_atom_type_scat_dispersion_real
_atom_type_scat_dispersion_imag
_atom_type_scat_source
Li Li -0.0003 0.0001 'International Tables Vol C Tables 4.2.6.8 and 6.1.1.4'
H H 0.0000 0.0000 'International Tables Vol C Tables 4.2.6.8 and 6.1.1.4'
O O 0.0106 0.0060 'International Tables Vol C Tables 4.2.6.8 and 6.1.1.4'
Cl Cl 0.1484 0.1585 'International Tables Vol C Tables 4.2.6.8 and 6.1.1.4'
loop_
_geom_angle_atom_site_label_1
_geom_angle_atom_site_label_2
_geom_angle_atom_site_label_3
_geom_angle_site_symmetry_1
_geom_angle_site_symmetry_3
_geom_angle
O1 Li1 O2 3_766 . 176.26(8)
O1 Li1 O1 3_766 . 84.12(6)
O2 Li1 O1 . . 93.46(6)
O1 Li1 O2 3_766 4_576 86.51(6)
O2 Li1 O2 . 4_576 96.36(6)
O1 Li1 O2 . 4_576 89.75(6)
O1 Li1 Cl1 3_766 . 89.92(5)
O2 Li1 Cl1 . . 87.39(5)
O1 Li1 Cl1 . . 93.99(6)
O2 Li1 Cl1 4_576 . 174.54(7)
O1 Li1 Cl1 3_766 4_576 91.40(5)
O2 Li1 Cl1 . 4_576 91.27(5)
O1 Li1 Cl1 . 4_576 172.86(7)
O2 Li1 Cl1 4_576 4_576 84.42(5)
Cl1 Li1 Cl1 . 4_576 91.56(4)
Li1 Cl1 Li1 . 4_575 80.84(4)
Li1 O2 Li1 . 4_575 106.48(6)
Li1 O1 Li1 3_766 . 95.88(6)
loop_
_geom_bond_atom_site_label_1
_geom_bond_atom_site_label_2
_geom_bond_site_symmetry_2
_geom_bond_distance
Li1 O1 3_766 2.0815(15)
Li1 O2 . 2.0835(15)
Li1 O1 . 2.0910(15)
Li1 O2 4_576 2.2158(15)
Li1 Cl1 . 2.6497(15)
Li1 Cl1 4_576 2.6643(14)
Cl1 Li1 4_575 2.6643(14)
O2 Li1 4_575 2.2157(16)
O1 Li1 3_766 2.0815(15)
loop_
_geom_hbond_atom_site_label_D
_geom_hbond_atom_site_label_H
_geom_hbond_atom_site_label_A
_geom_hbond_site_symmetry_A
_geom_hbond_distance_DH
_geom_hbond_distance_HA
_geom_hbond_distance_DA
_geom_hbond_angle_DHA
O1 H1B Cl1 1_455 0.784(13) 2.404(13) 3.1719(7) 166.7(12)
O1 H1A Cl1 3_765 0.774(13) 2.358(13) 3.1315(7) 176.8(12)
O2 H2B Cl1 4_475 0.756(14) 2.752(14) 3.3772(6) 141.6(12)
O2 H2A Cl1 2_755 0.790(12) 2.381(12) 3.1608(7) 169.5(10)
