#------------------------------------------------------------------------------
#$Date: 2018-01-24 08:30:12 +0200 (Wed, 24 Jan 2018) $
#$Revision: 205533 $
#$URL: file:///home/coder/svn-repositories/cod/cif/2/02/09/2020957.cif $
#------------------------------------------------------------------------------
#
# This file is available in the Crystallography Open Database (COD),
# http://www.crystallography.net/. The original data for this entry
# were provided by IUCr Journals, http://journals.iucr.org/.
#
# The file may be used within the scientific community so long as
# proper attribution is given to the journal article from which the
# data were obtained.
#
data_2020957
loop_
_publ_author_name
'Sohr, Julia'
'Schmidt, Horst'
'Voigt, Wolfgang'
_publ_section_title
;
 Higher hydrates of lithium chloride, lithium bromide and lithium iodide
;
_journal_coeditor_code           QF3002
_journal_issue                   2
_journal_name_full               'Acta Crystallographica Section C'
_journal_page_first
;
;
_journal_paper_doi               10.1107/S2053229618001183
_journal_volume                  74
_journal_year                    2018
_chemical_formula_iupac          'Li Br, 2H2 O'
_chemical_formula_moiety         'Br, 2(H2 O), Li'
_chemical_formula_sum            'Br H4 Li O2'
_chemical_formula_weight         122.88
_chemical_name_systematic
;
Lithium bromide dihydrate
;
_space_group_crystal_system      triclinic
_space_group_IT_number           2
_space_group_name_Hall           '-P 1'
_space_group_name_H-M_alt        'P -1'
_symmetry_space_group_name_Hall  '-P 1'
_symmetry_space_group_name_H-M   'P -1'
_atom_sites_solution_hydrogens   difmap
_audit_creation_method           SHELXL-2014/7
_cell_angle_alpha                63.694(10)
_cell_angle_beta                 82.044(7)
_cell_angle_gamma                65.567(5)
_cell_formula_units_Z            2
_cell_length_a                   5.3001(11)
_cell_length_b                   6.3970(19)
_cell_length_c                   6.4060(15)
_cell_measurement_reflns_used    454
_cell_measurement_temperature    200(2)
_cell_measurement_theta_max      55
_cell_measurement_theta_min      5
_cell_volume                     177.00(8)
_computing_cell_refinement
;
APEX2 (Bruker, 2005)
;
_computing_data_collection
;
APEX2 (Bruker, 2005)
;
_computing_data_reduction
;
APEX2 (Bruker, 2005)
;
_computing_molecular_graphics
;
DIAMOND (Brandenburg, 2017)
;
_computing_publication_material
;
publCIF (Westrip, 2010)
;
_computing_structure_refinement
;
SHELXL2014 (Sheldrick, 2015)
;
_computing_structure_solution
;
SHELXS97 (Sheldrick, 2008)
;
_diffrn_ambient_temperature      200(2)
_diffrn_measured_fraction_theta_full 0.971
_diffrn_measured_fraction_theta_max 0.835
_diffrn_measurement_device_type  'Bruker X8 Kappa APEXII'
_diffrn_measurement_method       '\w and \f scans'
_diffrn_radiation_monochromator  graphite
_diffrn_radiation_source         'fine-focus sealed tube'
_diffrn_radiation_type           MoK\a
_diffrn_radiation_wavelength     0.71073
_diffrn_reflns_av_R_equivalents  0.0374
_diffrn_reflns_limit_h_max       7
_diffrn_reflns_limit_h_min       -3
_diffrn_reflns_limit_k_max       8
_diffrn_reflns_limit_k_min       -6
_diffrn_reflns_limit_l_max       8
_diffrn_reflns_limit_l_min       -8
_diffrn_reflns_number            1251
_diffrn_reflns_theta_full        25.242
_diffrn_reflns_theta_max         29.355
_diffrn_reflns_theta_min         3.553
_diffrn_standards_decay_%        0
_diffrn_standards_interval_count 0
_diffrn_standards_interval_time  0
_diffrn_standards_number         0
_exptl_absorpt_coefficient_mu    11.378
_exptl_absorpt_correction_T_max  0.7459
_exptl_absorpt_correction_T_min  0.2105
_exptl_absorpt_correction_type   numerical
_exptl_absorpt_process_details
;
(APEX2; Bruker, 2005)
;
_exptl_crystal_colour            colourless
_exptl_crystal_density_diffrn    2.306
_exptl_crystal_description       needle
_exptl_crystal_F_000             116
_exptl_crystal_size_max          0.2
_exptl_crystal_size_mid          0.12
_exptl_crystal_size_min          0.03
_refine_diff_density_max         2.228
_refine_diff_density_min         -1.111
_refine_ls_extinction_coef       0.245(19)
_refine_ls_extinction_expression Fc^*^=kFc[1+0.001xFc^2^\l^3^/sin(2\q)]^-1/4^
_refine_ls_extinction_method
;
SHELXL2016 (Sheldrick, 2015)
;
_refine_ls_goodness_of_fit_ref   1.011
_refine_ls_hydrogen_treatment    refall
_refine_ls_matrix_type           full
_refine_ls_number_parameters     54
_refine_ls_number_reflns         810
_refine_ls_number_restraints     6
_refine_ls_restrained_S_all      1.008
_refine_ls_R_factor_all          0.0391
_refine_ls_R_factor_gt           0.0364
_refine_ls_shift/su_max          0.000
_refine_ls_shift/su_mean         0.000
_refine_ls_structure_factor_coef Fsqd
_refine_ls_weighting_details
'w=1/[\s^2^(Fo^2^)+3.2148P] where P=(Fo^2^+2Fc^2^)/3'
_refine_ls_weighting_scheme      calc
_refine_ls_wR_factor_gt          0.0956
_refine_ls_wR_factor_ref         0.0968
_reflns_number_gt                762
_reflns_number_total             810
_reflns_threshold_expression     'I > 2\s(I)'
_cod_data_source_file            qf3002sup1.cif
_cod_data_source_block           LiBr.2H2O
_cod_database_code               2020957
_shelx_space_group_comment
;
The symmetry employed for this shelxl refinement is uniquely defined
by the following loop, which should always be used as a source of
symmetry information in preference to the above space-group names.
They are only intended as comments.
;
_shelx_hkl_file
;
   1   1   0  290.16   17.12
   1   1   0  284.97   17.09
   2   2   0   28.20    1.96
   2   2   0   29.86    2.06
   3   3   0  330.11   18.70
   3   3   0  293.76   18.73
   4   4   0  360.87   21.76
   5   5   0   43.48    3.43
   6   6   0    2.43    1.59
   6   5   0   49.26    3.71
   5   4   0   30.82    2.75
   4   3   0  128.35    8.37
   4   3   0  142.43    8.31
   3   2   0  429.79   24.35
   3   2   0  388.18   24.35
   1   0   0   21.21    1.32
   1   0   0   17.21    1.30
   0   1   0  165.48   10.16
   0   1   0  174.93   10.15
   0  -1   0  169.71   10.15
   0  -1   0  165.23   10.13
   1   2   0  976.73   55.44
   1   2   0  923.52   55.39
  -1  -2   0  892.99   55.38
   2   3   0  316.02   18.58
   2   3   0  302.27   18.60
   3   4   0    2.80    1.17
   3   4   0    0.93    1.05
   4   5   0  127.64    8.18
   5   6   0  213.63   13.36
   6   4   0  133.31    8.48
   5   3   0  130.84    8.19
   4   2   0   34.15    2.35
   4   2   0   36.78    2.45
   3   1   0  182.78   10.78
   3   1   0  178.00   10.84
  -2   0   0  468.77   27.17
   2   0   0  442.44   27.19
   2   0   0  457.49   27.19
  -1   1   0  645.88   36.17
  -1   1   0  595.06   36.16
   1  -1   0  566.57   36.10
   1  -1   0  617.70   36.07
   0   2   0    9.00    1.17
   0  -2   0    5.72    0.93
   1   3   0  158.30    9.60
   1   3   0  155.71    9.61
  -1  -3   0  152.62    9.55
   2   4   0  631.15   35.35
   2   4   0  575.20   35.33
  -2  -4   0  562.29   35.27
   3   5   0  195.08   12.14
   4   6   0    2.91    1.66
   6   3   0  228.22   13.99
   5   2   0  255.64   15.34
   4   1   0  169.87   10.19
   4   1   0  168.45   10.24
   3   0   0  101.22    6.17
   3   0   0   99.45    6.16
  -2   1   0  357.04   21.62
   2  -1   0  353.25   21.43
   2  -1   0  363.59   21.40
  -1   2   0  303.04   18.50
   1  -2   0  283.39   18.33
   1  -2   0  325.93   18.35
   0   3   0  283.16   17.06
   0  -3   0  275.16   16.90
   1   4   0    6.35    1.46
  -1  -4   0    3.15    1.32
   2   5   0   67.87    4.98
  -2  -5   0   73.13    5.01
   3   6   0  221.61   13.93
   4   7   0  120.31    8.33
   6   2   0    1.75    1.18
   5   1   0  263.52   15.86
   4   0   0  389.66   22.87
   4   0   0  373.93   22.86
  -3   1   0  186.70   13.97
   3  -1   0  237.64   13.56
   3  -1   0  241.58   13.53
  -2   2   0   31.83    3.01
   2  -2   0   36.38    2.50
   2  -2   0   30.69    2.54
  -1   3   0  415.92   24.81
   1  -3   0  398.68   24.50
   0   4   0  271.06   17.40
   0  -4   0  294.59   17.32
   1   5   0  156.22   10.56
  -1  -5   0  172.54   10.50
   2   6   0    6.54    2.08
   3   7   0   55.19    4.80
   7   2   0  127.41    8.15
   6   1   0   67.42    4.58
   5   0   0   -0.20    1.06
   4  -1   0  316.01   19.08
  -3   2   0  284.23   19.48
   3  -2   0  344.56   19.13
  -2   3   0  148.71    9.52
   2  -3   0  138.57    8.96
  -1   4   0   15.68    2.75
   1  -4   0   12.90    1.84
   0   5   0  260.86   17.07
   0  -5   0  281.81   16.84
   1   6   0  138.09    9.32
   2   7   0   55.30    4.91
   6   0   0  153.59    9.68
   5  -1   0   60.63    4.34
   4  -2   0    4.08    1.28
   3  -3   0  194.36   12.06
  -2   4   0  353.33   21.50
   2  -4   0  331.55   20.81
  -1   5   0  151.01   10.11
   1  -5   0  139.38    9.38
   0   6   0    0.00    2.52
   0  -6   0    1.92    2.15
   5  -2   0  179.87   11.34
   4  -3   0   26.62    2.72
   3  -4   0    1.27    1.52
   2  -5   0  120.42    8.06
   1  -6   0  186.88   12.13
   0   7   0   68.91    6.53
   2  -6   0   -0.26    2.04
   2  -6  -1  127.70    8.60
   3  -5  -1  163.55   10.53
   0   7   1  110.82    8.50
   1  -6  -1   51.50    4.38
  -1   6   1   48.61    5.62
   2  -5  -1   60.64    4.62
   3  -4  -1  182.49   11.43
   4  -3  -1  226.57   14.01
   5  -2  -1   24.08    2.67
   1   7   1   80.52    6.49
   0  -6  -1  226.34   14.03
   0   6   1  216.97   14.43
   1  -5  -1  108.79    7.34
  -1   5   1  112.37    8.12
   2  -4  -1   48.38    3.74
  -2   4   1   49.74    5.00
   3  -3  -1   62.09    4.36
   4  -2  -1  176.72   10.97
   5  -1  -1  199.75   12.32
   6   0  -1   48.97    3.85
   1   6   1    5.31    2.04
   0  -5  -1  127.41    8.04
   0   5   1  117.25    8.39
   1  -4  -1  417.51   24.96
  -1   4   1  408.23   25.32
   2  -3  -1  154.13    9.78
  -2   3   1  161.70   10.43
   3  -2  -1   49.43    3.43
  -3   2   1   45.83    4.91
   4  -1  -1   72.36    4.76
   5   0  -1  227.66   13.88
   6   1  -1  142.81    8.98
   7   2  -1   34.05    3.66
   3   7   1   48.21    4.17
   2   6   1  354.18   21.65
  -1  -5  -1  281.66   16.26
   1   5   1  246.21   16.25
   0  -4  -1    1.89    1.18
   0   4   1    1.52    1.46
   1  -3  -1  204.14   12.92
  -1   3   1  220.69   13.22
   2  -2  -1  646.07   35.81
   2  -2  -1  588.66   35.79
  -2   2   1  560.15   36.10
   3  -1  -1  112.67    6.84
   3  -1  -1  111.96    6.85
  -3   1   1  100.74    8.07
   4   0  -1   22.52    1.92
   5   1  -1   37.69    2.89
   6   2  -1  170.29   10.71
   7   3  -1   82.88    6.28
   4   7   1   99.67    6.87
   3   6   1    5.72    1.76
  -2  -5  -1   45.38    3.63
   2   5   1   53.89    3.96
   2   5   1   45.15    3.65
  -1  -4  -1  584.79   34.10
   1   4   1  525.24   34.08
   1   4   1  596.51   34.14
   0  -3  -1  621.03   37.39
   0   3   1  608.26   37.48
   0   3   1  648.20   37.45
   1  -2  -1   20.22    1.67
   1  -2  -1   16.24    1.68
  -1   2   1   23.54    1.95
  -1   2   1   19.19    2.04
   2  -1  -1  217.73   12.79
   2  -1  -1  221.35   12.83
  -2   1   1  194.29   13.22
   3   0  -1  724.01   42.69
   3   0  -1  708.05   42.63
   4   1  -1  186.37   11.65
   4   1  -1  198.00   11.72
   5   2  -1    4.78    1.53
   6   3  -1   46.68    4.28
   5   7   1   64.82    4.91
   4   6   1  159.10   10.06
   3   5   1  237.94   14.56
  -2  -4  -1    3.91    0.74
   2   4   1    4.38    1.09
   2   4   1    1.85    1.10
  -1  -3  -1   91.02    5.71
   1   3   1   88.28    5.69
   1   3   1   93.85    5.71
   0  -2  -1  664.97   42.65
   0  -2  -1  745.22   42.67
   0   2   1  728.73   42.70
   0   2   1  726.94   42.69
   1  -1  -1  884.44   52.70
   1  -1  -1  877.84   52.65
  -1   1   1  881.40   52.70
  -1   1   1  899.56   52.82
   2   0  -1    7.99    0.96
   3   1  -1  132.30    8.42
   3   1  -1  143.59    8.46
   4   2  -1  470.10   27.95
   4   2  -1  463.45   28.00
   5   3  -1  180.97   11.44
   6   4  -1    1.04    2.10
   5   6   1    2.54    1.44
   4   5   1  150.19    9.31
   3   4   1  198.65   11.90
   3   4   1  194.31   11.93
  -2  -3  -1  356.63   20.27
  -2  -3  -1  299.83   20.24
   2   3   1  336.94   20.27
   2   3   1  363.74   20.29
   0  -1  -1   91.75    6.20
   0  -1  -1  114.53    6.23
   0   1   1  109.08    6.24
   0   1   1   92.72    6.19
   1   0  -1  483.39   29.06
   1   0  -1  475.01   29.11
  -1   0   1  428.47   29.15
  -1   0   1  561.89   29.09
   2   1  -1  803.59   46.56
   2   1  -1  773.56   46.56
  -2  -1   1  735.24   46.49
  -2  -1   1  817.38   46.52
   3   2  -1   16.45    1.79
   3   2  -1   18.33    1.96
   4   3  -1  121.82    7.87
   5   4  -1  305.36   18.75
   6   5  -1   99.93    6.91
   6   6   1  159.70    9.97
   5   5   1  153.42    9.47
   4   4   1    1.45    0.84
   4   4   1   -0.06    0.76
   3   3   1  432.15   25.84
   3   3   1  436.14   25.83
   2   2   1  364.65   21.69
   1   1   1  340.49   20.74
   1   1   1  356.94   20.75
   0   0  -1   64.93    4.08
   0   0   1   62.16    4.08
   1   1  -1  227.66   14.64
   1   1  -1  236.80   14.62
  -1  -1   1  231.23   14.68
  -1  -1   1  277.71   14.75
   2   2  -1  252.83   16.30
   2   2  -1  276.96   16.29
  -2  -2   1  279.13   16.39
   3   3  -1  367.90   23.15
   3   3  -1  399.80   23.13
   4   4  -1   14.11    2.00
   5   5  -1   45.88    3.91
   6   5   1   89.03    5.66
   5   4   1  260.71   15.64
  -1   0  -1  541.49   31.12
  -1   0  -1  517.71   31.17
   1   0   1  461.93   31.08
   1   0   1  566.84   31.14
   0   1  -1  345.58   22.53
   0   1  -1  358.99   22.51
   0  -1   1  423.99   22.57
   0  -1   1  374.05   22.54
   1   2  -1   17.31    1.81
   1   2  -1   16.93    1.93
  -1  -2   1   23.86    2.46
  -1  -2   1   17.39    1.94
   2   3  -1  244.42   14.10
   2   3  -1  215.15   14.03
  -2  -3   1  230.65   14.04
   3   4  -1  201.84   12.52
   4   5  -1  205.59   12.93
   5   6  -1   10.19    2.39
   3   1   1  327.15   19.79
   3   1   1  336.47   19.75
  -2   0  -1   52.35    3.30
  -2   0  -1   44.92    3.01
   2   0   1   43.30    3.08
   2   0   1   42.95    2.91
  -1   1  -1  722.22   45.37
  -1   1  -1  777.06   45.43
   1  -1   1  771.35   45.29
   1  -1   1  769.53   45.33
   0   2  -1  596.58   35.10
   0   2  -1  578.98   35.09
   0  -2   1  578.43   35.06
   1   3  -1  199.26   12.96
   1   3  -1  217.97   13.05
  -1  -3   1  213.89   13.01
   2   4  -1    3.01    1.60
   2   4  -1    2.36    1.39
  -2  -4   1    1.44    1.40
   3   5  -1  140.99    9.20
   4   6  -1   94.18    6.69
   5   2   1    2.44    0.72
   4   1   1  115.21    7.09
   3   0   1  527.84   32.25
   3   0   1  552.59   32.20
  -2   1  -1  321.17   19.62
   2  -1   1  312.02   19.50
   2  -1   1  337.60   19.44
  -1   2  -1   78.67    5.35
   1  -2   1   73.55    5.22
   1  -2   1   80.50    5.12
   0   3  -1  335.96   21.19
   0  -3   1  359.42   21.17
   1   4  -1  471.91   28.79
  -1  -4   1  479.96   28.82
   2   5  -1  151.81    9.80
   3   6  -1    3.62    1.95
   6   2   1  261.85   15.78
   5   1   1   91.47    5.81
   4   0   1    2.19    1.07
   3  -1   1  125.49    8.01
   3  -1   1  129.35    7.88
  -2   2  -1  515.47   31.14
   2  -2   1  512.35   30.88
  -1   3  -1  200.40   12.38
   1  -3   1  191.13   12.15
   0   4  -1   14.71    2.37
   0  -4   1   16.85    2.28
   1   5  -1  153.16   10.19
  -1  -5   1  157.21   10.11
   2   6  -1  260.64   16.45
   6   1   1  121.38    7.73
   5   0   1  259.42   15.79
   4  -1   1   80.19    5.37
   3  -2   1    6.19    1.38
  -2   3  -1   75.36    5.87
   2  -3   1   72.01    5.12
  -1   4  -1  315.14   19.66
   1  -4   1  311.32   19.22
   0   5  -1  123.19    8.72
   0  -5   1  128.51    8.47
   1   6  -1    7.85    2.72
   6   0   1   10.69    1.91
   5  -1   1  143.17    9.10
   4  -2   1  257.55   15.82
   3  -3   1   96.94    6.49
   2  -4   1   17.55    2.25
  -1   5  -1   93.41    7.09
   1  -5   1   79.38    5.97
   0   6  -1  154.18   10.75
   4  -3   1  107.00    7.15
   3  -4   1  169.61   10.84
   2  -5   1   82.28    6.05
   2  -6  -2   16.59    2.48
   3  -5  -2    8.91    1.95
   4  -4  -2  139.39    9.05
   0   7   2   33.61    4.26
   1  -6  -2  306.98   19.07
  -1   6   2  310.45   19.87
   2  -5  -2  173.38   10.98
   3  -4  -2    5.30    1.49
   4  -3  -2   23.78    2.52
   5  -2  -2  162.82   10.33
   2   8   2   92.75    7.11
   1   7   2  207.92   13.43
   0  -6  -2   26.79    2.99
   0   6   2   21.14    3.22
   1  -5  -2   36.64    3.11
  -1   5   2   38.38    4.14
   2  -4  -2  332.03   20.70
  -2   4   2  352.20   21.54
   3  -3  -2  277.62   16.92
   4  -2  -2   11.91    1.64
   5  -1  -2   22.65    2.46
   6   0  -2  171.32   10.88
   2   7   2   40.58    3.97
  -1  -6  -2  213.32   12.69
   1   6   2  188.31   12.77
   0  -5  -2  439.44   25.16
   0   5   2  388.90   25.31
   1  -4  -2   39.40    3.10
  -1   4   2   38.63    3.98
   2  -3  -2   70.64    4.66
  -2   3   2   68.63    5.80
   3  -2  -2  368.41   22.54
   3  -2  -2  403.70   22.58
  -3   2   2  344.26   23.50
   4  -1  -2  327.96   19.81
   5   0  -2    4.34    1.37
   6   1  -2   27.88    2.90
   3   7   2  102.00    7.01
   2   6   2    9.39    1.89
  -1  -5  -2   95.52    6.13
   1   5   2   88.01    6.11
   0  -4  -2  181.65   10.96
   0   4   2  170.84   11.09
   1  -3  -2  491.52   29.70
  -1   3   2  499.18   30.00
   2  -2  -2  102.90    6.73
   2  -2  -2  112.28    6.83
  -2   2   2  106.32    7.55
   3  -1  -2   51.18    3.58
   3  -1  -2   46.45    3.36
   4   0  -2  288.24   17.47
   5   1  -2  388.99   23.58
   6   2  -2   18.08    2.91
   4   7   2   96.80    6.54
  -2  -5  -2  185.10   13.05
   2   5   2  237.55   13.12
   2   5   2  216.34   13.08
  -1  -4  -2   29.60    2.53
   1   4   2   34.62    2.71
   1   4   2   28.20    2.52
   0  -3  -2  320.30   19.74
   0   3   2  323.20   19.80
   0   3   2  338.39   19.81
   1  -2  -2  303.01   17.19
   1  -2  -2  261.90   17.11
  -1   2   2  286.18   17.41
   2  -1  -2  434.77   24.90
   2  -1  -2  399.64   24.79
  -2   1   2  406.08   25.49
   3   0  -2   75.12    5.03
   3   0  -2   75.16    4.90
  -3   0   2   74.18    5.57
   4   1  -2   72.14    4.99
   5   2  -2  175.29   11.21
   6   3  -2  216.20   14.01
   4   6   2   27.11    2.54
   2   4   2  499.25   31.32
   2   4   2  549.10   31.37
  -1  -3  -2  234.90   14.81
   1   3   2  238.02   14.70
   1   3   2  258.20   14.76
   0  -2  -2   66.87    4.41
   0  -2  -2   75.86    4.46
   0   2   2   65.63    4.43
   0   2   2   59.73    4.43
   1  -1  -2  408.31   23.95
   1  -1  -2  398.91   23.84
  -1   1   2  374.06   24.16
  -1   1   2  407.02   23.91
   2   0  -2  293.81   17.48
   2   0  -2  290.57   17.41
  -2   0   2  278.16   17.80
   3   1  -2  290.31   16.94
   3   1  -2  289.48   16.92
  -3  -1   2  256.14   16.86
   4   2  -2   80.99    5.68
   5   3  -2   45.12    4.53
   6   4  -2  101.67    7.54
   6   7   2   16.86    1.94
   5   6   2  192.76   11.80
   4   5   2  199.43   12.09
   3   4   2   91.53    5.73
  -2  -3  -2  204.15   12.62
  -2  -3  -2  210.80   12.55
   2   3   2  208.91   12.59
   2   3   2  213.55   12.65
  -1  -2  -2  858.79   56.77
  -1  -2  -2  951.14   56.69
   1   2   2  998.49   56.70
   1   2   2 1000.00   56.69
   0  -1  -2  457.72   27.07
   0  -1  -2  423.67   26.99
   0   1   2  469.55   26.98
   0   1   2  449.04   27.09
   1   0  -2   53.76    3.92
   1   0  -2   58.75    3.93
  -1   0   2   62.40    4.11
  -1   0   2   55.46    4.26
   2   1  -2  344.88   21.54
   2   1  -2  380.46   21.53
  -2  -1   2  345.35   21.68
   3   2  -2  354.79   20.16
   3   2  -2  344.37   20.28
  -3  -2   2  300.55   20.06
   4   3  -2  142.02    9.31
   5   4  -2   27.02    3.28
   5   5   2   47.87    3.19
   4   4   2  321.42   19.27
   4   4   2  324.86   19.32
   3   3   2  212.74   13.20
   3   3   2  226.52   13.13
   2   2   2   99.10    6.34
   2   2   2  108.26    6.38
  -1  -1  -2  127.02    7.75
  -1  -1  -2  134.04    7.58
   1   1   2  118.40    7.47
   1   1   2  105.88    7.52
   0   0  -2  937.99   53.40
   0   0   2  849.84   53.38
   1   1  -2  392.74   22.21
   1   1  -2  343.71   22.19
  -1  -1   2  367.32   22.34
   2   2  -2   69.65    4.62
   2   2  -2   61.50    4.62
  -2  -2   2   67.97    4.82
   3   3  -2  146.62    9.37
   4   4  -2  252.67   15.83
   5   5  -2   80.23    6.24
   3   2   2  428.50   25.45
   3   2   2  425.43   25.47
  -2  -1  -2  377.68   22.22
  -2  -1  -2  383.08   22.08
   2   1   2  373.50   22.19
   2   1   2  348.33   22.15
  -1   0  -2  100.95    6.37
  -1   0  -2  104.24    6.25
   1   0   2   95.61    6.15
   1   0   2   86.91    6.15
   0   1  -2   99.59    6.20
   0   1  -2   91.49    6.19
   0  -1   2   83.22    6.15
   0  -1   2  104.23    6.34
   1   2  -2  771.70   44.51
   1   2  -2  739.43   44.48
  -1  -2   2  715.97   44.57
   2   3  -2  282.32   18.39
   2   3  -2  312.12   18.43
  -2  -3   2  308.06   18.55
   3   4  -2   24.70    2.91
   4   5  -2   79.39    6.10
   4   2   2   21.16    1.86
   4   2   2   22.96    1.58
   3   1   2  136.75    7.91
   3   1   2  122.45    7.98
  -2   0  -2  333.77   21.26
   2   0   2  367.04   21.30
   2   0   2  359.10   21.23
  -1   1  -2  305.65   18.17
   1  -1   2  296.59   18.09
   1  -1   2  289.92   18.10
   0   2  -2   26.00    2.55
   0  -2   2   27.35    2.89
   1   3  -2   24.83    2.59
  -1  -3   2   28.74    3.17
   2   4  -2  332.03   20.38
   3   5  -2  184.48   11.89
   6   3   2  141.13    8.62
   5   2   2  331.02   19.91
   4   1   2  326.40   20.64
   4   1   2  359.18   20.56
  -3   0  -2    6.65    1.17
   3   0   2    7.30    1.06
   3   0   2   10.30    1.42
  -2   1  -2  174.26   12.00
   2  -1   2  191.16   11.98
   2  -1   2  214.94   11.92
  -1   2  -2  398.56   24.05
   1  -2   2  389.60   23.89
   0   3  -2  261.19   16.72
   0  -3   2  277.26   16.72
   1   4  -2    2.89    1.81
  -1  -4   2    3.27    2.17
   2   5  -2   35.98    3.69
   3   6  -2  153.56   10.33
   6   2   2    7.28    1.52
   5   1   2  198.06   12.23
   4   0   2  296.13   18.00
   3  -1   2  268.50   16.40
  -2   2  -2    5.45    2.00
   2  -2   2    5.12    1.61
  -1   3  -2  182.10   11.68
   1  -3   2  173.62   11.32
   0   4  -2  237.46   15.33
   0  -4   2  245.49   15.21
   1   5  -2  131.43    8.96
   2   6  -2    4.70    2.48
   6   1   2  123.86    8.10
   5   0   2   20.25    2.32
   4  -1   2  130.21    8.37
   3  -2   2  267.10   16.44
   2  -3   2  256.09   15.90
  -1   4  -2   -2.35    2.51
   1  -4   2    2.36    1.97
   0   5  -2  142.19   10.47
   0  -5   2  158.93   10.22
   1   6  -2  155.27   10.78
   5  -1   2   68.99    5.17
   4  -2   2    6.84    1.84
   3  -3   2  103.53    7.07
   2  -4   2  164.49   10.67
   1  -5   2  141.12    9.44
   2  -5   2   61.37    5.08
   0   8   3   48.64    5.87
   2  -6  -3  126.07    8.48
   3  -5  -3  247.53   15.43
   4  -4  -3   32.19    3.11
   1   8   3   80.53    6.79
   0   7   3  120.40    9.10
   1  -6  -3   65.58    4.93
  -1   6   3   66.57    6.51
   2  -5  -3   21.89    2.47
   3  -4  -3  102.19    6.81
   4  -3  -3  241.99   14.94
   5  -2  -3   62.46    4.66
   2   8   3   26.01    3.41
   1   7   3   42.12    4.26
   0  -6  -3  214.15   12.62
   0   6   3  181.74   13.01
   1  -5  -3  202.81   12.43
  -1   5   3  192.29   13.14
   2  -4  -3   92.76    6.47
  -2   4   3  109.10    7.91
   3  -3  -3   35.07    2.83
   4  -2  -3  131.98    8.47
   5  -1  -3  236.36   14.65
   3   8   3  187.28   12.18
   2   7   3  142.94    9.43
  -1  -6  -3   40.25    3.58
   1   6   3   32.72    3.49
   0  -5  -3  110.84    7.27
   0   5   3  110.59    7.60
   1  -4  -3  314.87   19.50
  -1   4   3  328.12   20.04
   2  -3  -3  157.39    9.82
  -2   3   3  156.49   10.86
   3  -2  -3   80.93    5.41
   4  -1  -3   27.19    2.65
   5   0  -3  118.83    7.93
   6   1  -3  160.46   10.65
   3   7   3    9.65    1.89
   2   6   3  290.17   17.79
  -1  -5  -3  354.64   20.24
   1   5   3  308.33   20.19
   0  -4  -3  112.04    7.12
   0   4   3  106.07    7.32
   1  -3  -3  105.42    6.76
  -1   3   3  104.72    7.27
   2  -2  -3  551.88   33.25
  -2   2   3  557.26   34.07
   3  -1  -3  235.84   13.96
   3  -1  -3  221.22   13.89
  -3   1   3  218.68   15.33
   4   0  -3   58.55    4.48
   5   1  -3   43.49    4.25
   6   2  -3  109.77    8.21
   4   7   3  140.78    9.03
   3   6   3   18.88    2.24
  -2  -5  -3   16.07    2.26
   2   5   3   17.15    2.00
   2   5   3   22.52    2.46
  -1  -4  -3  497.39   31.77
   1   4   3  557.35   31.76
   1   4   3  529.36   31.75
   0  -3  -3  484.48   29.85
   0   3   3  507.74   29.95
   1  -2  -3   88.03    5.85
  -1   2   3   91.95    6.60
   2  -1  -3   83.44    5.17
   2  -1  -3   64.45    4.97
  -2   1   3   71.49    6.67
   3   0  -3  500.68   28.28
   3   0  -3  472.71   28.24
  -3   0   3  425.80   28.75
   4   1  -3  201.20   12.74
   5   2  -3   42.54    4.62
   5   7   3   32.87    2.99
   4   6   3  134.67    8.46
   3   5   3  229.47   13.96
   2   4   3   28.42    2.42
   2   4   3   29.10    2.50
  -1  -3  -3    3.93    1.49
   1   3   3    3.68    1.15
   1   3   3    3.42    1.06
   0  -2  -3  519.69   32.31
   0   2   3  523.43   32.42
   0   2   3  568.83   32.29
   1  -1  -3  746.89   42.23
   1  -1  -3  691.37   42.12
  -1   1   3  670.17   42.50
   2   0  -3  102.89    7.10
   2   0  -3  111.04    7.15
  -2   0   3  112.30    8.07
   3   1  -3   45.13    3.93
   3   1  -3   51.46    3.88
   4   2  -3  413.86   25.38
   5   3  -3  167.85   11.36
   6   7   3  136.51    8.67
   5   6   3    2.91    1.18
   4   5   3  118.03    7.33
   3   4   3  287.89   17.25
   3   4   3  282.49   17.18
  -2  -3  -3  344.72   22.35
   2   3   3  379.84   22.33
   2   3   3  388.82   22.34
  -1  -2  -3    6.85    1.73
   1   2   3    8.06    1.45
   0  -1  -3   45.54    3.50
   0  -1  -3   38.19    3.36
   0   1   3   36.01    3.53
   0   1   3   36.75    3.19
   1   0  -3  358.84   20.41
   1   0  -3  318.14   20.37
  -1   0   3  326.43   20.69
   2   1  -3  443.78   27.08
   2   1  -3  484.62   27.06
  -2  -1   3  410.89   27.34
   3   2  -3   51.48    4.33
   4   3  -3   13.89    2.75
   5   4  -3  185.62   12.39
   6   6   3  153.46    9.55
   5   5   3  239.39   14.47
   4   4   3   20.44    1.87
   4   4   3   21.58    2.15
   3   3   3  209.49   12.42
   3   3   3  197.71   12.36
  -2  -2  -3  326.94   20.40
   2   2   3  349.87   20.51
   2   2   3  341.87   20.46
  -1  -1  -3  553.92   32.23
   1   1   3  519.23   32.09
   1   1   3  531.01   32.15
   0   0  -3   12.79    1.87
   0   0   3   15.82    2.07
   0   0   3   12.86    1.98
   1   1  -3   62.92    4.58
  -1  -1   3   63.50    4.96
   2   2  -3  244.43   15.50
  -2  -2   3  257.93   15.95
   3   3  -3  285.30   17.71
   4   4  -3   28.76    3.70
   5   4   3  294.58   17.76
   4   3   3  352.04   21.07
   4   3   3  349.15   21.09
   3   2   3   49.95    3.63
   3   2   3   53.35    3.60
  -2  -1  -3  281.69   19.44
   2   1   3  337.58   19.55
   2   1   3  350.36   19.56
  -1   0  -3  462.76   27.22
   1   0   3  419.74   27.10
   1   0   3  464.91   27.16
   0   1  -3  389.21   23.02
   0  -1   3  364.58   23.04
   1   2  -3    4.92    1.70
  -1  -2   3    4.80    2.36
   2   3  -3   76.79    5.76
  -2  -3   3   78.00    6.13
   3   4  -3  109.47    7.68
   4   5  -3  142.59    9.87
   5   3   3   76.60    5.11
   4   2   3  269.13   16.31
   3   1   3  330.09   20.08
   3   1   3  335.34   20.11
  -2   0  -3  120.62    8.02
   2   0   3  131.93    8.06
   2   0   3  124.20    8.03
  -1   1  -3  255.69   15.02
   1  -1   3  223.90   14.89
   0   2  -3  374.67   23.19
   0  -2   3  382.24   23.26
   1   3  -3  298.86   19.19
  -1  -3   3  323.50   19.50
   2   4  -3   13.69    2.50
   3   5  -3   64.07    5.49
   6   3   3  111.44    7.36
   5   2   3   22.36    2.32
   4   1   3   88.77    5.94
   3   0   3  296.82   18.15
  -2   1  -3  238.81   15.51
   2  -1   3  259.12   15.45
  -1   2  -3   84.04    5.96
   1  -2   3   72.25    5.73
   0   3  -3  156.88   10.06
   0  -3   3  146.34   10.15
   1   4  -3  226.89   15.05
  -1  -4   3  250.22   15.44
   2   5  -3  144.65    9.89
   6   2   3  265.29   16.39
   5   1   3   82.20    5.83
   4   0   3   10.82    1.93
   3  -1   3   49.75    3.99
  -2   2  -3  241.71   15.60
   2  -2   3  248.94   15.32
  -1   3  -3  206.97   12.81
   1  -3   3  180.45   12.41
   0   4  -3   63.60    5.58
   0  -4   3   66.36    5.75
   1   5  -3   49.45    4.86
   6   1   3   84.52    6.39
   5   0   3  306.60   18.91
   4  -1   3   99.07    6.88
   3  -2   3    0.92    1.85
   2  -3   3   60.40    5.00
   1  -4   3  185.04   12.16
   0   5  -3   83.02    7.16
   4  -2   3  197.72   12.65
   3  -3   3   92.17    6.66
   2  -4   3    3.39    2.34
   0   8   4  166.73   12.03
   2  -6  -4   38.39    3.75
   3  -5  -4    8.24    1.98
   1   8   4   40.91    4.72
   0   7   4    1.72    2.99
   1  -6  -4  247.16   14.79
  -1   6   4  218.50   15.74
   2  -5  -4  196.49   12.36
   3  -4  -4   57.00    4.37
   4  -3  -4    4.78    1.75
   2   8   4   90.91    7.04
   1   7   4  232.24   15.01
   0  -6  -4   65.97    5.02
   0   6   4   61.97    5.64
   1  -5  -4    7.64    1.96
  -1   5   4    5.04    3.15
   2  -4  -4  306.63   19.27
  -2   4   4  326.17   20.45
   3  -3  -4  251.04   15.52
   4  -2  -4   35.82    3.36
   5  -1  -4    4.95    2.39
   3   8   4    9.82    2.52
   2   7   4    9.91    2.35
   1   6   4  111.83    7.78
   0  -5  -4  377.15   22.05
   0   5   4  342.91   22.26
   1  -4  -4  100.64    6.82
  -1   4   4  103.50    7.72
   2  -3  -4    1.95    1.45
  -2   3   4    2.22    3.48
   3  -2  -4  268.31   16.53
   4  -1  -4  354.41   21.71
   5   0  -4   45.90    4.57
   3   7   4  181.35   11.59
   2   6   4   28.14    3.03
  -1  -5  -4   57.06    4.48
   1   5   4   53.23    4.39
   0  -4  -4  200.21   12.11
   0   4   4  183.03   12.25
   1  -3  -4  443.60   27.00
  -1   3   4  448.75   27.57
   2  -2  -4   78.64    5.45
  -2   2   4   76.04    7.40
   3  -1  -4    4.39    1.93
   4   0  -4  197.43   12.66
   5   1  -4  252.65   16.09
   4   7   4   57.70    4.48
   3   6   4  197.09   12.29
  -2  -5  -4  222.55   15.16
   2   5   4  262.68   15.04
  -1  -4  -4   66.37    4.91
   1   4   4   59.81    4.69
   0  -3  -4   99.07    6.86
   0   3   4  100.61    6.97
   1  -2  -4  181.91   11.44
  -1   2   4  180.93   12.06
   2  -1  -4  382.82   24.31
  -2   1   4  419.67   25.35
   3   0  -4   99.13    6.88
   4   1  -4    1.95    2.67
   5   2  -4  111.46    8.53
   5   7   4  145.38    9.37
   4   6   4   99.63    6.62
   3   5   4   79.33    5.38
   2   4   4  423.39   25.47
   2   4   4  419.18   25.44
  -1  -3  -4  445.47   27.60
   1   3   4  464.01   27.38
   1   3   4  449.88   27.47
   0  -2  -4  104.94    7.02
   0   2   4  102.03    7.38
   1  -1  -4  197.30   12.91
  -1   1   4  218.90   13.71
   2   0  -4  220.09   14.21
  -2   0   4  234.69   15.19
   3   1  -4  231.74   14.69
   4   2  -4   45.01    5.06
   6   7   4   18.34    2.41
   5   6   4  170.07   10.68
   4   5   4  169.87   10.58
   3   4   4  137.84    8.54
   3   4   4  128.23    8.43
  -2  -3  -4   50.79    4.45
   2   3   4   63.08    4.32
   2   3   4   63.61    4.48
  -1  -2  -4  481.99   28.24
   1   2   4  453.00   27.89
   1   2   4  452.40   28.03
   0  -1  -4  438.63   26.60
   0   1   4  433.97   26.74
   1   0  -4  157.93   10.21
  -1   0   4  158.34   10.89
   2   1  -4   99.12    7.24
  -2  -1   4  111.10    8.33
   3   2  -4  183.43   11.96
   4   3  -4  160.71   11.07
   6   6   4   12.80    2.28
   5   5   4   20.60    2.28
   4   4   4  264.59   16.17
   3   3   4  243.80   14.56
   3   3   4  229.35   14.53
  -2  -2  -4  144.03    9.80
   2   2   4  162.38    9.80
   2   2   4  160.16    9.86
  -1  -1  -4   53.26    4.34
   1   1   4   45.77    4.12
   0   0  -4  521.63   32.01
   0   0   4  532.75   32.14
   1   1  -4  325.11   20.50
  -1  -1   4  342.45   21.06
   2   2  -4   89.43    6.62
  -2  -2   4   95.89    7.68
   3   3  -4   64.32    5.43
   6   5   4  171.18   11.02
   5   4   4    4.66    1.70
   4   3   4   39.79    3.32
   3   2   4  313.01   18.39
   3   2   4  288.44   18.30
  -2  -1  -4  149.96   10.49
   2   1   4  184.23   10.65
   2   1   4  167.05   10.55
  -1   0  -4  125.69    8.03
   1   0   4  106.03    7.66
   0   1  -4   12.78    2.55
   0  -1   4    7.06    2.63
   1   2  -4  301.20   19.50
  -1  -2   4  327.34   20.01
   2   3  -4  203.61   13.19
   3   4  -4   73.99    6.15
   6   4   4  276.64   17.11
   5   3   4  261.66   16.09
   4   2   4    6.44    1.61
   3   1   4   52.95    4.05
  -2   0  -4  322.47   20.49
   2   0   4  344.70   20.47
  -1   1  -4  221.06   13.71
   1  -1   4  203.32   13.57
   0   2  -4   41.90    4.15
   0  -2   4   32.70    3.96
   1   3  -4   15.14    2.79
  -1  -3   4   17.97    3.69
   2   4  -4  170.76   11.41
   6   3   4   63.67    5.49
   5   2   4  235.59   14.72
   4   1   4  244.41   15.19
   3   0   4    3.13    1.88
   2  -1   4   51.50    4.49
  -1   2  -4  265.86   16.09
   1  -2   4  233.62   15.72
   0   3  -4  162.43   11.11
   0  -3   4  163.23   11.19
   1   4  -4   17.27    3.06
   6   2   4   30.16    3.58
   5   1   4   44.83    4.45
   4   0   4  208.85   13.20
   3  -1   4  278.56   17.34
   2  -2   4    8.02    2.41
   1  -3   4   61.89    5.58
   0   4  -4  172.76   11.87
   1   5  -4  104.22    8.07
   4  -1   4   36.09    3.85
   3  -2   4  121.42    8.38
   2  -3   4  189.75   12.50
   1  -4   4   11.42    3.25
   2  -6  -5   64.03    5.16
   1   8   5   58.75    5.99
   0   7   5  151.10   11.03
   1  -6  -5   85.84    6.23
  -1   6   5   78.15    7.78
   2  -5  -5    1.39    2.09
   3  -4  -5   65.52    5.05
   4  -3  -5  236.49   14.94
   2   8   5   47.80    4.93
   1   7   5   28.70    3.82
   0  -6  -5  144.11    9.17
   0   6   5  125.51    9.73
   1  -5  -5  192.89   12.58
  -1   5   5  204.18   13.60
   2  -4  -5   99.50    6.91
   3  -3  -5    2.48    2.16
   4  -2  -5   50.40    4.48
   2   7   5  184.65   12.05
   1   6   5  128.96    8.92
   0  -5  -5   40.84    3.85
   0   5   5   31.79    3.95
   1  -4  -5  267.99   16.60
  -1   4   5  262.71   17.36
   2  -3  -5  254.13   16.58
  -2   3   5  286.56   18.06
   3  -2  -5   99.72    7.01
   4  -1  -5   19.39    3.07
   3   7   5    0.00    1.94
   2   6   5  220.28   13.95
  -1  -5  -5  287.03   17.34
   1   5   5  264.46   17.29
   0  -4  -5  188.62   11.23
   0   4   5  156.15   11.40
   1  -3  -5   25.03    2.92
  -1   3   5   24.57    3.89
   2  -2  -5  278.55   17.26
  -2   2   5  275.18   18.56
   3  -1  -5  222.29   14.19
   4   0  -5   90.53    6.89
   4   7   5  126.22    8.49
   3   6   5   57.48    4.55
   2   5   5    0.65    1.89
  -1  -4  -5  302.68   18.23
   1   4   5  277.76   18.10
   0  -3  -5  410.79   24.81
   0   3   5  395.31   24.95
   1  -2  -5  226.63   14.01
  -1   2   5  212.01   14.74
   2  -1  -5   13.43    2.54
  -2   1   5   15.20    4.83
   3   0  -5  333.53   20.81
   4   1  -5  187.04   12.54
   5   7   5   19.63    2.74
   4   6   5  185.68   11.82
   3   5   5  206.33   13.01
  -2  -4  -5   21.97    3.09
   2   4   5   29.59    3.36
  -1  -3  -5    4.65    2.75
   1   3   5    4.76    2.29
   0  -2  -5  280.43   17.00
   0   2   5  254.92   17.05
   1  -1  -5  329.92   20.63
  -1   1   5  333.95   21.29
   2   0  -5  137.99   10.07
  -2   0   5  172.09   11.77
   3   1  -5    2.01    2.81
   4   2  -5  188.07   12.76
   5   6   5   24.23    2.92
   4   5   5   28.47    3.25
   3   4   5  224.05   14.01
  -2  -3  -5  268.36   19.45
   2   3   5  330.36   19.49
   2   3   5  348.42   19.43
  -1  -2  -5   41.48    4.59
   1   2   5   38.80    4.09
   0  -1  -5    6.04    2.41
   0   1   5    3.34    2.59
   1   0  -5  225.80   15.45
  -1   0   5  266.74   16.32
   2   1  -5  250.43   15.95
   3   2  -5   77.00    6.41
   6   6   5  152.86   10.45
   5   5   5  319.84   19.73
   4   4   5   41.53    3.72
   3   3   5   71.24    5.30
  -2  -2  -5  247.41   16.09
   2   2   5  266.89   16.07
  -1  -1  -5  383.67   22.81
   1   1   5  349.45   22.61
   0   0  -5   15.11    2.87
   0   0   5   12.60    3.19
   1   1  -5    9.43    2.62
  -1  -1   5    8.46    4.06
   2   2  -5  104.53    7.66
   3   3  -5  154.08   10.83
   6   5   5   24.00    3.37
   5   4   5  124.48    8.41
   4   3   5  290.23   17.86
   3   2   5   87.96    6.21
  -2  -1  -5   44.56    4.15
   2   1   5   45.17    4.09
  -1   0  -5  286.19   17.46
   1   0   5  259.77   17.16
   0   1  -5  390.52   24.31
   0  -1   5  389.56   24.51
   1   2  -5   25.80    3.60
  -1  -2   5   26.80    4.80
   2   3  -5   20.72    3.43
   6   4   5   48.07    5.10
   5   3   5   35.81    3.93
   4   2   5  139.49    9.16
   3   1   5  239.27   14.97
   2   0   5   81.66    6.19
  -1   1  -5   58.19    5.60
   1  -1   5   53.34    5.34
   0   2  -5  171.84   11.80
   0  -2   5  175.43   12.18
   1   3  -5  195.37   13.01
   6   3   5   94.76    7.65
   5   2   5   35.33    3.79
   4   1   5   19.73    2.85
   3   0   5  107.89    7.70
   2  -1   5  184.57   12.16
   1  -2   5   95.91    7.57
   0   3  -5   26.29    4.23
   0  -3   5   32.14    4.61
   1   4  -5  105.25    8.29
   4   0   5   19.07    3.05
   3  -1   5   28.95    3.51
   2  -2   5  110.53    8.11
   1  -3   5  109.18    8.52
   2  -6  -6   90.55    6.88
   0   7   6    3.09    3.98
   2  -5  -6  178.52   11.65
   3  -4  -6   83.41    6.38
   1   7   6  155.41   11.01
   0   6   6  101.49    8.28
   1  -5  -6   11.57    2.49
  -1   5   6   10.07    4.47
   2  -4  -6  170.80   11.24
   3  -3  -6  226.49   14.50
   2   7   6    1.75    2.73
   1   6   6   99.68    7.64
   0  -5  -6  286.49   17.05
   0   5   6  248.22   17.43
   1  -4  -6  102.77    7.58
  -1   4   6  104.22    8.76
   2  -3  -6    5.34    2.58
   3  -2  -6  148.81   10.15
   3   7   6  186.39   12.27
   2   6   6   38.18    4.19
   1   5   6    9.36    3.03
   0  -4  -6  110.80    8.02
   0   4   6  105.25    8.36
   1  -3  -6  307.18   19.12
  -1   3   6  300.98   19.88
   2  -2  -6  111.31    7.99
   3  -1  -6    7.97    3.13
   4   7   6   12.31    2.80
   3   6   6  148.84    9.97
   2   5   6  317.35   19.86
  -1  -4  -6   88.47    7.26
   1   4   6   79.07    6.62
   0  -3  -6   33.75    4.10
   0   3   6   29.01    4.17
   1  -2  -6  159.49   10.43
  -1   2   6  138.71   11.16
   2  -1  -6  258.75   16.61
   3   0  -6   46.16    5.17
   4   6   6  103.16    7.42
   3   5   6   10.03    2.49
   2   4   6  151.35   10.15
  -1  -3  -6  409.98   24.17
   1   3   6  359.06   23.78
   0  -2  -6  151.47   10.14
   0   2   6  132.37   10.10
   1  -1  -6   19.92    3.30
  -1   1   6   25.03    4.92
   2   0  -6  109.84    8.05
   3   1  -6  207.19   13.84
   5   6   6  110.12    8.04
   4   5   6  163.10   10.78
   3   4   6  156.76   10.31
   2   3   6   11.57    2.55
  -1  -2  -6  226.69   14.00
   1   2   6  191.26   13.37
   0  -1  -6  388.67   23.72
   0   1   6  366.07   23.83
   1   0  -6  120.86    9.22
  -1   0   6  140.94   10.53
   2   1  -6   30.74    4.03
   5   5   6   15.18    3.02
   4   4   6  135.81    9.15
   3   3   6  124.19    8.39
   2   2   6  131.77    9.01
  -1  -1  -6    2.26    3.24
   1   1   6   -1.90    2.72
   0   0  -6  151.31   10.69
   0   0   6  154.14   11.07
   1   1  -6  222.16   14.56
   2   2  -6  118.30    8.99
   5   4   6   40.94    4.59
   4   3   6   12.91    2.60
   3   2   6  183.85   11.90
   2   1   6  123.17    8.60
   1   0   6   92.08    7.34
   0   1  -6    6.77    3.40
   0  -1   6    1.38    4.11
   1   2  -6  113.36    8.42
   5   3   6  161.63   10.87
   4   2   6   22.59    3.02
   3   1   6    9.28    2.49
   2   0   6  154.66   10.60
   1  -1   6  118.58    9.09
   0  -2   6   66.80    7.32
   1   3  -6    1.98    3.36
   4   1   6  191.31   12.59
   3   0   6   24.63    3.47
   2  -1   6   15.62    3.44
   1  -2   6  165.86   11.81
   0   7   7  140.58   11.12
   2  -5  -7    2.51    3.00
   1   7   7    5.90    3.90
   0   6   7   88.13    8.09
   1  -5  -7  228.48   14.99
   2  -4  -7   82.55    6.60
   2   7   7  155.19   10.96
   1   6   7  137.76   10.18
   0   5   7    7.10    4.16
   1  -4  -7  102.37    7.90
  -1   4   7  104.83    9.21
   2  -3  -7  186.86   12.50
   3  -2  -7  100.34    7.83
   2   6   7   90.94    7.39
   1   5   7  217.19   14.53
   0  -4  -7  249.60   15.48
   0   4   7  214.07   15.55
   1  -3  -7   -1.28    3.26
  -1   3   7    4.75    4.49
   2  -2  -7  143.74   10.29
   3   6   7   56.66    5.63
   2   5   7    4.89    2.98
   1   4   7  104.48    8.09
   0  -3  -7  201.87   13.08
   0   3   7  175.48   13.07
   1  -2  -7  206.02   13.65
  -1   2   7  196.50   14.55
   2  -1  -7    3.05    3.45
   3   5   7  147.25   10.20
   2   4   7   69.28    5.94
   1   3   7    2.48    3.11
   0  -2  -7  143.27   10.44
   0   2   7  137.37   10.54
   1  -1  -7  187.87   12.89
   2   0  -7  131.15    9.75
   4   5   7    3.86    2.97
   3   4   7  147.45   10.14
   2   3   7  173.93   11.65
   1   2   7   37.62    4.41
   0  -1  -7    3.31    3.71
   0   1   7    2.65    3.76
   1   0  -7   82.70    7.18
   2   1  -7  103.39    8.27
   4   4   7   65.31    5.76
   3   3   7   -0.72    2.58
   2   2   7  142.03    9.92
   1   1   7  226.10   15.03
   0   0   7   47.51    5.97
   1   1  -7   -2.93    3.56
   3   2   7   70.70    6.07
   2   1   7    1.52    2.98
   1   0   7  118.64    9.33
   2   0   7   78.13    6.93
   1  -1   7    3.10    4.10
   0   6   8  101.43    9.19
   0   5   8  133.85   10.64
   2  -3  -8   25.05    4.41
   1   5   8    0.32    3.76
   0   4   8   73.48    7.48
   2   5   8  198.43   13.48
   1   4   8   80.69    7.28
   0   3   8    0.82    4.32
   2   4   8   55.38    5.69
   1   3   8  231.64   15.41
   0   2   8  103.03    9.18
   2   3   8    1.43    3.36
   1   2   8   36.93    5.07
   1   1   8   -0.62    4.02
   0   0   0    0.00    0.00
;
_shelx_hkl_checksum              41098
_shelx_res_file
;
TITL libr_2h2o in P-1
    libr_2h2o.res
    created by SHELXL-2016/6 at 14:40:07 on 15-Jan-2018
CELL 0.71073   5.3001   6.3970   6.4060  63.694  82.044  65.567
ZERR    2.00   0.0011   0.0019   0.0015   0.010   0.007   0.005
LATT 1
SFAC Li H  O  Br
UNIT 2  8  4  2
OMIT -3 70
L.S. 12
ACTA
BOND
FMAP 2
PLAN 2
DANG 1.31 0.02  H2A  H2B  H1B  H1A
DFIX 0.82 0.02 O2 H2A  O2 H2B  O1 H1B  O1 H1A
TEMP 23.000
WGHT    0.000000    3.214800
EXTI    0.244824
FVAR       0.54334
MOLE 1
BR1   4    0.255442    0.122040    0.233218    11.00000    0.00638    0.00862 =
         0.00702   -0.00375    0.00137   -0.00209
LI1   1    0.308972    0.377702    0.482506    11.00000    0.00988    0.01551 =
         0.01470   -0.00649    0.00197   -0.00422
O1    3   -0.014206    0.718244    0.295128    11.00000    0.00779    0.00866 =
         0.00999   -0.00427    0.00180   -0.00317
O2    3    0.613121    0.480690    0.291388    11.00000    0.00557    0.01157 =
         0.01062   -0.00497    0.00288   -0.00042
H1B   2   -0.017189    0.840354    0.312103    11.00000    0.03007
H2A   2    0.779036    0.388133    0.299900    11.00000    0.03224
H2B   2    0.587728    0.601209    0.162241    11.00000    0.04921
H1A   2   -0.032027    0.769790    0.153310    11.00000    0.04446
HKLF 4
REM  libr_2h2o in P-1
REM R1 =  0.0364 for     762 Fo > 4sig(Fo)  and  0.0391 for all     810 data
REM     54 parameters refined using      6 restraints
END
WGHT      0.0000      2.0269
REM Highest difference peak  2.228,  deepest hole -1.111,  1-sigma level  0.220
Q1    1   0.0975  0.1105  0.2139  11.00000  0.05    2.23
Q2    1   0.4174  0.1376  0.2351  11.00000  0.05    2.17
;
_shelx_res_checksum              49174
loop_
_space_group_symop_operation_xyz
'x, y, z'
'-x, -y, -z'
loop_
_atom_site_type_symbol
_atom_site_label
_atom_site_fract_x
_atom_site_fract_y
_atom_site_fract_z
_atom_site_U_iso_or_equiv
_atom_site_adp_type
_atom_site_calc_flag
_atom_site_occupancy
Br Br1 0.25544(11) 0.12204(10) 0.23322(10) 0.0076(3) Uani d 1
Li Li1 0.309(2) 0.378(2) 0.483(2) 0.014(2) Uani d 1
O O1 -0.0142(9) 0.7182(8) 0.2951(8) 0.0089(8) Uani d 1
O O2 0.6131(9) 0.4807(9) 0.2914(8) 0.0105(9) Uani d 1
H H1B -0.02(2) 0.840(11) 0.312(14) 0.03(3) Uiso d 1
H H2A 0.779(7) 0.388(15) 0.300(15) 0.03(3) Uiso d 1
H H2B 0.588(19) 0.601(14) 0.162(10) 0.05(3) Uiso d 1
H H1A -0.03(3) 0.770(16) 0.153(5) 0.04(3) Uiso d 1
loop_
_atom_site_aniso_label
_atom_site_aniso_U_11
_atom_site_aniso_U_22
_atom_site_aniso_U_33
_atom_site_aniso_U_12
_atom_site_aniso_U_13
_atom_site_aniso_U_23
Br1 0.0064(4) 0.0086(4) 0.0070(4) -0.0021(2) 0.0014(2) -0.0037(2)
Li1 0.010(5) 0.016(5) 0.015(5) -0.004(4) 0.002(4) -0.006(4)
O1 0.008(2) 0.0087(19) 0.010(2) -0.0032(16) 0.0018(16) -0.0043(16)
O2 0.006(2) 0.012(2) 0.011(2) -0.0004(16) 0.0029(16) -0.0050(18)
loop_
_atom_type_symbol
_atom_type_description
_atom_type_scat_dispersion_real
_atom_type_scat_dispersion_imag
_atom_type_scat_source
Li Li -0.0003 0.0001 'International Tables Vol C Tables 4.2.6.8 and 6.1.1.4'
H H 0.0000 0.0000 'International Tables Vol C Tables 4.2.6.8 and 6.1.1.4'
O O 0.0106 0.0060 'International Tables Vol C Tables 4.2.6.8 and 6.1.1.4'
Br Br -0.2901 2.4595 'International Tables Vol C Tables 4.2.6.8 and 6.1.1.4'
loop_
_geom_angle_atom_site_label_1
_geom_angle_atom_site_label_2
_geom_angle_atom_site_label_3
_geom_angle_site_symmetry_1
_geom_angle_site_symmetry_3
_geom_angle
Li1 Br1 Li1 . 2_656 95.7(3)
O2 Li1 O1 . 2_566 173.3(7)
O2 Li1 O1 . . 95.2(5)
O1 Li1 O1 2_566 . 86.2(5)
O2 Li1 O2 . 2_666 84.9(5)
O1 Li1 O2 2_566 2_666 88.5(5)
O1 Li1 O2 . 2_666 93.0(5)
O2 Li1 Br1 . . 96.3(4)
O1 Li1 Br1 2_566 . 90.1(4)
O1 Li1 Br1 . . 94.9(4)
O2 Li1 Br1 2_666 . 171.8(5)
O2 Li1 Br1 . 2_656 88.4(4)
O1 Li1 Br1 2_566 2_656 90.2(4)
O1 Li1 Br1 . 2_656 176.4(6)
O2 Li1 Br1 2_666 2_656 87.7(4)
Br1 Li1 Br1 . 2_656 84.3(3)
O2 Li1 Li1 . 2_566 137.8(7)
O1 Li1 Li1 2_566 2_566 43.2(3)
O1 Li1 Li1 . 2_566 43.0(3)
O2 Li1 Li1 2_666 2_566 91.0(5)
Br1 Li1 Li1 . 2_566 93.4(5)
Br1 Li1 Li1 2_656 2_566 133.4(6)
O2 Li1 Li1 . 2_666 44.2(3)
O1 Li1 Li1 2_566 2_666 129.2(7)
O1 Li1 Li1 . 2_666 95.5(6)
O2 Li1 Li1 2_666 2_666 40.8(3)
Br1 Li1 Li1 . 2_666 139.8(6)
Br1 Li1 Li1 2_656 2_666 87.4(5)
Li1 Li1 Li1 2_566 2_666 119.9(7)
Li1 O1 Li1 2_566 . 93.8(5)
Li1 O2 Li1 . 2_666 95.1(5)
loop_
_geom_bond_atom_site_label_1
_geom_bond_atom_site_label_2
_geom_bond_site_symmetry_2
_geom_bond_distance
Br1 Li1 . 2.851(12)
Br1 Li1 2_656 2.960(11)
Li1 O2 . 2.037(12)
Li1 O1 2_566 2.061(12)
Li1 O1 . 2.070(12)
Li1 O2 2_666 2.174(13)
Li1 Li1 2_566 3.02(2)
Li1 Li1 2_666 3.11(2)
loop_
_geom_hbond_atom_site_label_D
_geom_hbond_atom_site_label_H
_geom_hbond_atom_site_label_A
_geom_hbond_site_symmetry_A
_geom_hbond_distance_DH
_geom_hbond_distance_HA
_geom_hbond_distance_DA
_geom_hbond_angle_DHA
O1 H1A Br1 2_565 0.82(2) 2.57(5) 3.345(5) 157(10)
O2 H2B Br1 2_665 0.82(2) 2.63(5) 3.389(5) 155(8)
O2 H2A Br1 1_655 0.83(2) 2.50(3) 3.307(4) 167(9)
O1 H1B Br1 1_565 0.83(2) 2.60(6) 3.296(5) 143(9)
