#------------------------------------------------------------------------------
#$Date: 2016-08-05 09:33:48 +0300 (Fri, 05 Aug 2016) $
#$Revision: 185016 $
#$URL: file:///home/coder/svn-repositories/cod/cif/2/02/05/2020535.cif $
#------------------------------------------------------------------------------
#
# This file is available in the Crystallography Open Database (COD),
# http://www.crystallography.net/. The original data for this entry
# were provided by IUCr Journals, http://journals.iucr.org/.
#
# The file may be used within the scientific community so long as
# proper attribution is given to the journal article from which the
# data were obtained.
#
data_2020535
loop_
_publ_author_name
'Pavlyuk, Volodymyr'
'Ciesielski, Wojciech'
'Rozdzynska-Kielbik, Beata'
'Dmytriv, Grygoriy'
'Ehrenberg, Helmut'
_publ_section_title
;
 Li~4~Ge~2~B as a new derivative of the Mo~2~B~5~ and Li~5~Sn~2~ structure
 types
;
_journal_issue                   7
_journal_name_full               'Acta Crystallographica Section C'
_journal_page_first              561
_journal_page_last               565
_journal_paper_doi               10.1107/S2053229616009384
_journal_volume                  72
_journal_year                    2016
_chemical_formula_iupac          'Li4 Ge2 B'
_chemical_formula_moiety         '2(Ge), B, 4(Li)'
_chemical_formula_sum            'B Ge2 Li4'
_chemical_formula_weight         183.79
_chemical_name_systematic
;
Tetralithium digermanium boride
;
_space_group_crystal_system      trigonal
_space_group_IT_number           160
_space_group_name_Hall           'R 3 -2"'
_space_group_name_H-M_alt        'R 3 m :H'
_symmetry_space_group_name_Hall  'R 3 -2"'
_symmetry_space_group_name_H-M   'R 3 m :H'
_audit_creation_method           SHELXL-2014/7
_cell_angle_alpha                90
_cell_angle_beta                 90
_cell_angle_gamma                120
_cell_formula_units_Z            3
_cell_length_a                   4.4603(3)
_cell_length_b                   4.4603(3)
_cell_length_c                   18.3197(11)
_cell_measurement_reflns_used    287
_cell_measurement_temperature    293(2)
_cell_measurement_theta_max      25.187
_cell_measurement_theta_min      3.329
_cell_volume                     315.63(4)
_computing_cell_refinement
;
CrysAlis CCD (Oxford Diffraction, 2008)
;
_computing_data_collection
;
CrysAlis CCD (Oxford Diffraction, 2008)
;
_computing_data_reduction
;
CrysAlis RED (Oxford Diffraction, 2008)
;
_computing_molecular_graphics
;
DIAMOND (Brandenburg, 2006)
;
_computing_publication_material
;
SHELXL2014 (Sheldrick, 2015b)
;
_computing_structure_refinement
;
SHELXL2014 (Sheldrick, 2015b)
;
_computing_structure_solution
;
SHELXT (Sheldrick, 2015a)
;
_diffrn_ambient_temperature      293(2)
_diffrn_measured_fraction_theta_full 1.000
_diffrn_measured_fraction_theta_max 1.000
_diffrn_measurement_device_type  'Oxford Diffraction Xcalibur3 CCD'
_diffrn_measurement_method       '\w scans'
_diffrn_radiation_type           MoK\a
_diffrn_radiation_wavelength     0.71073
_diffrn_reflns_av_R_equivalents  0.0224
_diffrn_reflns_limit_h_max       5
_diffrn_reflns_limit_h_min       -5
_diffrn_reflns_limit_k_max       6
_diffrn_reflns_limit_k_min       -6
_diffrn_reflns_limit_l_max       25
_diffrn_reflns_limit_l_min       -25
_diffrn_reflns_number            1160
_diffrn_reflns_theta_full        25.187
_diffrn_reflns_theta_max         29.882
_diffrn_reflns_theta_min         3.329
_exptl_absorpt_coefficient_mu    13.947
_exptl_absorpt_correction_T_max  0.859
_exptl_absorpt_correction_T_min  0.441
_exptl_absorpt_correction_type   analytical
_exptl_absorpt_process_details
;
(CrysAlis RED; Oxford Diffraction, 2008)
;
_exptl_crystal_colour            'metallic dark grey'
_exptl_crystal_density_diffrn    2.901
_exptl_crystal_density_meas      2.88(2)
_exptl_crystal_density_method    volumetric
_exptl_crystal_description       plate
_exptl_crystal_F_000             243
_exptl_crystal_size_max          0.06
_exptl_crystal_size_mid          0.05
_exptl_crystal_size_min          0.01
_refine_diff_density_max         0.517
_refine_diff_density_min         -0.534
_refine_ls_abs_structure_details
;
Refined as an inversion twin
;
_refine_ls_abs_structure_Flack   0.45(11)
_refine_ls_extinction_method     none
_refine_ls_goodness_of_fit_ref   1.039
_refine_ls_hydrogen_treatment    undef
_refine_ls_matrix_type           full
_refine_ls_number_parameters     16
_refine_ls_number_reflns         287
_refine_ls_number_restraints     1
_refine_ls_restrained_S_all      1.037
_refine_ls_R_factor_all          0.0253
_refine_ls_R_factor_gt           0.0223
_refine_ls_shift/su_max          0.000
_refine_ls_shift/su_mean         0.000
_refine_ls_structure_factor_coef Fsqd
_refine_ls_weighting_details
'w=1/[\s^2^(Fo^2^)+0.0090P] where P=(Fo^2^+2Fc^2^)/3'
_refine_ls_weighting_scheme      calc
_refine_ls_wR_factor_gt          0.0449
_refine_ls_wR_factor_ref         0.0469
_reflns_number_gt                269
_reflns_number_total             287
_reflns_threshold_expression     'I > 2\s(I)'
_cod_data_source_file            ku3179sup1.cif
_cod_data_source_block           I
_cod_depositor_comments          'Adding full bibliography for 2020535.cif.'
_cod_original_cell_volume        315.63(5)
_cod_database_code               2020535
_cod_database_fobs_code          2020535
_shelx_space_group_comment
;
The symmetry employed for this shelxl refinement is uniquely defined
by the following loop, which should always be used as a source of
symmetry information in preference to the above space-group names.
They are only intended as comments.
;
_shelx_hkl_file
;
  -1   2   0 2548.26  228.00
   0   3   0 1369.94  112.47
  -2   4   0  880.45   80.47
  -1   5   0  460.88   40.45
  -3   6   0  205.73   28.05
  -1   1   1 1740.74  136.06
   0   2   1 1288.35  101.37
  -2   3   1  922.76   79.05
  -4   4   1  399.12   37.72
  -1   4   1  519.13   46.24
  -3   5   1  320.75   33.80
   0   5   1  209.56   22.68
  -2   6   1  184.31   19.91
   0   1   2  842.62   65.85
  -2   2   2  566.25   39.48
  -1   3   2  413.56   30.36
  -3   4   2  234.77   20.41
   0   4   2  189.87   15.13
  -5   5   2   99.44    8.59
  -2   5   2  141.55   10.70
  -4   6   2   76.73    7.96
   0   0   3  138.25   14.57
  -1   2   3   88.53   10.07
  -3   3   3   49.94    7.18
   0   3   3   48.95    6.62
  -2   4   3   32.91    6.78
  -4   5   3   18.67    4.55
  -1   5   3   20.63    4.65
  -3   6   3    9.82    3.36
  -1   1   4   69.32    8.18
   0   2   4   48.34    6.09
  -2   3   4   40.95    7.69
  -4   4   4   11.27    4.19
  -1   4   4   21.42    5.22
  -3   5   4    9.81    4.11
   0   5   4    4.33    3.33
  -2   6   4    3.77    3.81
   0   1   5  640.83   57.66
  -2   2   5  464.68   37.84
  -1   3   5  331.34   25.18
  -3   4   5  197.15   13.97
   0   4   5  154.57   11.73
  -5   5   5   78.19    6.52
  -2   5   5  114.21    9.82
  -4   6   5   59.23    5.66
   0   0   6 1583.21  117.63
  -1   2   6 1001.61   93.50
  -3   3   6  598.63   48.20
   0   3   6  588.61   46.69
  -2   4   6  441.16   38.81
  -4   5   6  229.94   16.67
  -1   5   6  227.94   16.07
  -3   6   6  153.83   10.85
  -1   1   7 2609.12  203.37
   0   2   7 1794.97  139.07
  -2   3   7 1285.23   98.49
  -4   4   7  568.32   37.59
  -1   4   7  785.22   53.94
  -3   5   7  479.86   35.69
   0   5   7  311.57   24.25
   0   1   8 1485.34  110.72
  -2   2   8 1083.62   70.93
  -1   3   8  725.92   52.54
  -3   4   8  457.23   34.56
   0   4   8  383.99   26.86
  -5   5   8  197.27   16.51
  -2   5   8  300.45   27.73
   0   0   9  685.76   43.97
  -1   2   9  518.32   36.10
  -3   3   9  293.63   22.85
   0   3   9  293.62   19.31
  -2   4   9  218.35   16.05
  -4   5   9  107.47    8.49
  -1   5   9  107.48    8.49
  -1   1  10   91.39    7.68
   0   2  10   68.82    7.06
  -2   3  10   54.33    5.33
  -4   4  10   23.88    3.80
  -1   4  10   30.55    4.64
  -3   5  10   20.43    3.63
   0   5  10   10.34    3.82
   0   1  11   24.71    4.49
  -2   2  11   16.12    3.97
  -1   3  11   10.98    3.20
  -3   4  11    4.12    3.69
   0   4  11    0.25    3.63
  -2   5  11   -0.18    4.11
   0   0  12  356.66   22.95
  -1   2  12  271.13   17.17
  -3   3  12  151.83   11.70
   0   3  12  151.85   11.21
  -2   4  12  117.96    9.51
  -4   5  12   59.41    5.58
  -1   5  12   57.41    5.48
  -1   1  13  668.42   51.18
   0   2  13  542.22   38.81
  -2   3  13  392.65   26.33
  -4   4  13  189.34   12.62
  -1   4  13  238.82   18.14
  -3   5  13  163.96   15.35
   0   1  14 1275.96   96.21
  -2   2  14  938.42   75.80
  -1   3  14  751.32   50.37
  -3   4  14  450.62   37.77
   0   4  14  341.43   25.79
  -2   5  14  261.24   21.28
   0   0  15  862.58   69.47
  -1   2  15  625.47   50.04
  -3   3  15  389.23   31.21
   0   3  15  408.24   32.67
  -2   4  15  322.85   25.97
  -1   1  16  362.66   25.89
   0   2  16  276.33   21.58
  -2   3  16  219.71   24.20
  -4   4  16  110.86   11.25
  -1   4  16  139.26   13.66
   0   1  17   48.87    6.06
  -2   2  17   36.38    5.94
  -1   3  17   36.11    4.42
  -3   4  17   16.92    3.46
   0   4  17   12.33    4.32
   0   0  18    3.24    6.31
  -1   2  18    2.61    5.77
  -3   3  18    1.16    4.69
   0   3  18    1.17    5.19
  -2   4  18   -0.13    4.62
  -1   1  19  119.24   12.11
   0   2  19   83.62   10.84
  -2   3  19   76.32    8.95
  -1   4  19   49.94    6.62
   0   1  20  279.47   20.62
  -2   2  20  214.88   17.39
  -1   3  20  170.12   12.63
   0   0  21  501.11   32.70
  -1   2  21  398.48   28.07
  -3   3  21  248.41   20.59
   0   3  21  258.43   21.09
  -1   1  22  307.26   34.64
   0   2  22  307.25   29.59
  -2   3  22  228.51   20.60
   0   1  23  180.62   16.69
  -2   2  23  125.41   13.43
   0   0  24   20.68    4.65
  -1   2  24   16.99    3.96
  -1   1  25    0.12    3.63
   1  -2   0 2693.29  236.24
   0  -3   0 1542.54  121.53
   2  -4   0  960.84   84.84
   1  -5   0  451.66   40.15
   3  -6   0  299.62   32.90
   1  -1  -1 1901.93  144.60
   0  -2  -1 1262.58  100.44
   2  -3  -1  904.30   78.45
   4  -4  -1  391.14   37.48
   1  -4  -1  508.75   45.91
   3  -5  -1  314.34   33.64
   0  -5  -1  205.37   22.58
   2  -6  -1  180.62   19.81
   0  -1  -2  825.77   65.23
   2  -2  -2  554.93   39.01
   1  -3  -2  405.29   30.02
   3  -4  -2  230.07   20.24
   0  -4  -2  186.07   14.98
   5  -5  -2   97.45    8.51
   2  -5  -2  138.72   10.58
   4  -6  -2   75.20    7.91
   0   0  -3  135.49   14.49
   1  -2  -3   86.76   10.02
   3  -3  -3   48.94    7.16
   0  -3  -3   47.97    6.60
   2  -4  -3   32.25    6.78
   4  -5  -3   18.30    4.56
   1  -5  -3   20.22    4.65
   3  -6  -3    9.62    3.36
   1  -1  -4   67.93    8.14
   0  -2  -4   47.37    6.06
   2  -3  -4   40.13    7.69
   4  -4  -4   11.04    4.20
   1  -4  -4   20.99    5.22
   3  -5  -4    9.61    4.12
   0  -5  -4    4.24    3.34
   2  -6  -4    3.69    3.82
   0  -1  -5  628.01   37.06
   2  -2  -5  455.39   27.41
   1  -3  -5  324.71   19.87
   3  -4  -5  193.21   13.80
   0  -4  -5  151.48   11.60
   5  -5  -5   76.63    6.45
   2  -5  -5  111.93    9.73
   4  -6  -5   58.05    5.61
   0   0  -6 1551.55  116.42
   1  -2  -6  981.58   92.92
   3  -3  -6  586.66   47.76
   0  -3  -6  576.84   46.25
   2  -4  -6  432.34   38.52
   4  -5  -6  225.34   16.48
   1  -5  -6  223.38   15.87
   3  -6  -6  150.75   10.71
   1  -1  -7 2556.94  161.08
   0  -2  -7 1759.07  112.50
   2  -3  -7 1259.53   77.33
   4  -4  -7  556.95   37.10
   1  -4  -7  769.52   53.29
   3  -5  -7  470.26   35.31
   0  -5  -7  305.34   24.01
   0  -1  -8 1455.63  109.58
   2  -2  -8 1061.95   70.00
   1  -3  -8  711.40   51.96
   3  -4  -8  448.09   34.20
   0  -4  -8  376.31   26.54
   5  -5  -8  193.32   16.37
   2  -5  -8  294.44   27.54
   0   0  -9  672.04   43.36
   1  -2  -9  507.95   35.67
   3  -3  -9  287.76   22.62
   0  -3  -9  287.75   19.05
   2  -4  -9  213.98   15.87
   4  -5  -9  105.32    8.40
   1  -5  -9  105.33    8.40
   1  -1 -10   89.56    7.61
   0  -2 -10   67.44    7.01
   2  -3 -10   53.24    5.28
   4  -4 -10   23.40    3.79
   1  -4 -10   29.94    4.63
   3  -5 -10   20.02    3.62
   0  -5 -10   10.13    3.82
   0  -1 -11   24.22    4.48
   2  -2 -11   15.80    3.97
   1  -3 -11   10.76    3.20
   3  -4 -11    4.04    3.71
   0  -4 -11    0.25    3.65
   2  -5 -11   -0.18    4.13
   0   0 -12  349.53   22.63
   1  -2 -12  265.71   16.92
   3  -3 -12  148.79   11.57
   0  -3 -12  148.81   11.08
   2  -4 -12  115.60    9.41
   4  -5 -12   58.22    5.53
   1  -5 -12   56.26    5.43
   1  -1 -13  655.05   50.67
   0  -2 -13  531.38   38.37
   2  -3 -13  384.80   25.99
   4  -4 -13  185.55   12.45
   1  -4 -13  234.04   17.94
   3  -5 -13  160.68   15.24
   0  -1 -14 1250.44   95.24
   2  -2 -14  919.65   75.13
   1  -3 -14  736.29   49.72
   3  -4 -14  441.61   37.45
   0  -4 -14  334.60   25.52
   2  -5 -14  256.02   21.08
   0   0 -15  845.33   68.86
   1  -2 -15  612.96   49.59
   3  -3 -15  381.45   30.92
   0  -3 -15  400.08   32.36
   2  -4 -15  316.39   25.73
   1  -1 -16  355.41   25.59
   0  -2 -16  270.80   21.36
   2  -3 -16  215.32   24.10
   4  -4 -16  108.64   11.18
   1  -4 -16  136.47   13.57
   0  -1 -17   47.89    6.03
   2  -2 -17   35.65    5.93
   1  -3 -17   35.39    4.39
   3  -4 -17   16.58    3.45
   0  -4 -17   12.08    4.32
   0   0 -18    3.18    6.35
   1  -2 -18    2.56    5.81
   3  -3 -18    1.14    4.72
   0  -3 -18    1.15    5.23
   2  -4 -18   -0.13    4.65
   1  -1 -19  116.86   12.03
   0  -2 -19   81.95   10.80
   2  -3 -19   74.79    8.91
   1  -4 -19   48.94    6.60
   0  -1 -20  273.88   20.39
   2  -2 -20  210.58   17.23
   1  -3 -20  166.72   12.49
   0   0 -21  491.09   32.26
   1  -2 -21  390.51   27.74
   3  -3 -21  243.44   20.40
   0  -3 -21  253.26   20.89
   1  -1 -22  301.11   34.51
   0  -2 -22  301.11   29.41
   2  -3 -22  223.94   20.45
   0  -1 -23  177.01   16.57
   2  -2 -23  122.90   13.36
   0   0 -24   20.27    4.65
   1  -2 -24   16.65    3.96
   1  -1 -25    0.12    3.65
  -1   2   0 2948.26  248.00
   0   3   0 1769.94  132.47
  -2   4   0 1180.45   95.47
  -1   5   0  860.88   60.45
  -3   6   0  505.73   43.05
  -1   1   1 1940.74  146.06
   0   2   1 1688.35  121.37
  -2   3   1 1322.76   99.05
  -4   4   1 1399.12   87.72
  -1   4   1  819.13   61.24
  -3   5   1  520.75   43.80
   0   5   1  209.56   22.68
  -2   6   1  184.31   19.91
   0   1   2  842.62   65.85
  -2   2   2  566.25   39.48
  -1   3   2  413.56   30.36
  -3   4   2  234.77   20.41
   0   4   2  189.87   15.13
  -5   5   2   99.44    8.59
  -2   5   2  141.55   10.70
  -4   6   2   76.73    7.96
   0   0   3  138.25   14.57
  -1   2   3   88.53   10.07
  -3   3   3   49.94    7.18
   0   3   3   48.95    6.62
  -2   4   3   32.91    6.78
  -4   5   3   18.67    4.55
  -1   5   3   20.63    4.65
  -3   6   3    9.82    3.36
  -1   1   4   69.32    8.18
   0   2   4   48.34    6.09
  -2   3   4   40.95    7.69
  -4   4   4   11.27    4.19
  -1   4   4   21.42    5.22
  -3   5   4    9.81    4.11
   0   5   4    4.33    3.33
  -2   6   4    3.77    3.81
   0   1   5  640.83   57.66
  -2   2   5  464.68   42.84
  -1   3   5  331.34   23.68
  -3   4   5  197.15   13.97
   0   4   5  154.57   11.73
  -5   5   5   78.19    6.52
  -2   5   5  114.21    9.82
  -4   6   5   59.23    5.66
   0   0   6 1583.21  117.63
  -1   2   6 1001.61   93.50
  -3   3   6  598.63   48.20
   0   3   6  588.61   46.69
  -2   4   6  441.16   38.81
  -4   5   6  229.94   16.67
  -1   5   6  227.94   16.07
  -3   6   6  153.83   10.85
  -1   1   7 2609.12  208.37
   0   2   7 1794.97  114.07
  -2   3   7 1285.23   78.49
  -4   4   7  568.32   37.59
  -1   4   7  785.22   53.94
  -3   5   7  479.86   35.69
   0   5   7  311.57   24.25
   0   1   8 1485.34  110.72
  -2   2   8 1083.62   70.93
  -1   3   8  725.92   52.54
  -3   4   8  457.23   34.56
   0   4   8  383.99   26.86
  -5   5   8  197.27   16.51
  -2   5   8  300.45   27.73
   0   0   9  685.76   43.97
  -1   2   9  518.32   36.10
  -3   3   9  293.63   22.85
   0   3   9  293.62   19.31
  -2   4   9  218.35   16.05
  -4   5   9  107.47    8.49
  -1   5   9  107.48    8.49
  -1   1  10   91.39    7.68
   0   2  10   68.82    7.06
  -2   3  10   54.33    5.33
  -4   4  10   23.88    3.80
  -1   4  10   30.55    4.64
  -3   5  10   20.43    3.63
   0   5  10   10.34    3.82
   0   1  11   24.71    4.49
  -2   2  11   16.12    3.97
  -1   3  11   10.98    3.20
  -3   4  11    4.12    3.69
   0   4  11    0.25    3.63
  -2   5  11   -0.18    4.11
   0   0  12  356.66   22.95
  -1   2  12  271.13   17.17
  -3   3  12  151.83   11.70
   0   3  12  151.85   11.21
  -2   4  12  117.96    9.51
  -4   5  12   59.41    5.58
  -1   5  12   57.41    5.48
  -1   1  13  668.42   66.18
   0   2  13  542.22   38.81
  -2   3  13  392.65   26.33
  -4   4  13  189.34   12.62
  -1   4  13  238.82   18.14
  -3   5  13  163.96   15.35
   0   1  14 1275.96   96.21
  -2   2  14  938.42   75.80
  -1   3  14  751.32   50.37
  -3   4  14  450.62   37.77
   0   4  14  341.43   25.79
  -2   5  14  261.24   21.28
   0   0  15  862.58   69.47
  -1   2  15  625.47   50.04
  -3   3  15  389.23   31.21
   0   3  15  408.24   32.67
  -2   4  15  322.85   25.97
  -1   1  16  362.66   25.89
   0   2  16  276.33   21.58
  -2   3  16  219.71   24.20
  -4   4  16  110.86   11.25
  -1   4  16  139.26   13.66
   0   1  17   48.87    6.06
  -2   2  17   36.38    5.94
  -1   3  17   36.11    4.42
  -3   4  17   16.92    3.46
   0   4  17   12.33    4.32
   0   0  18    3.24    6.31
  -1   2  18    2.61    5.77
  -3   3  18    1.16    4.69
   0   3  18    1.17    5.19
  -2   4  18   -0.13    4.62
  -1   1  19  119.24   12.11
   0   2  19   83.62   10.84
  -2   3  19   76.32    8.95
  -1   4  19   49.94    6.62
   0   1  20  279.47   20.62
  -2   2  20  214.88   17.39
  -1   3  20  170.12   12.63
   0   0  21  501.11   32.70
  -1   2  21  398.48   28.07
  -3   3  21  248.41   20.59
   0   3  21  258.43   21.09
  -1   1  22  307.26   34.64
   0   2  22  307.25   29.59
  -2   3  22  228.51   20.60
   0   1  23  180.62   16.69
  -2   2  23  125.41   13.43
   0   0  24   20.68    4.65
  -1   2  24   16.99    3.96
  -1   1  25    0.12    3.63
   1  -2   0 2693.29  236.24
   0  -3   0 1542.54  121.53
   2  -4   0  960.84   84.84
   1  -5   0  451.66   40.15
   3  -6   0  299.62   32.90
   1  -1  -1 1901.93  144.60
   0  -2  -1 1262.58  100.44
   2  -3  -1  904.30   78.45
   4  -4  -1  391.14   37.48
   1  -4  -1  508.75   45.91
   3  -5  -1  314.34   33.64
   0  -5  -1  205.37   22.58
   2  -6  -1  180.62   19.81
   0  -1  -2  825.77   65.23
   2  -2  -2  554.93   39.01
   1  -3  -2  405.29   30.02
   3  -4  -2  230.07   20.24
   0  -4  -2  186.07   14.98
   5  -5  -2   97.45    8.51
   2  -5  -2  138.72   10.58
   4  -6  -2   75.20    7.91
   0   0  -3  135.49   14.49
   1  -2  -3   86.76   10.02
   3  -3  -3   48.94    7.16
   0  -3  -3   47.97    6.60
   2  -4  -3   32.25    6.78
   4  -5  -3   18.30    4.56
   1  -5  -3   20.22    4.65
   3  -6  -3    9.62    3.36
   1  -1  -4   67.93    8.14
   0  -2  -4   47.37    6.06
   2  -3  -4   40.13    7.69
   4  -4  -4   11.04    4.20
   1  -4  -4   20.99    5.22
   3  -5  -4    9.61    4.12
   0  -5  -4    4.24    3.34
   2  -6  -4    3.69    3.82
   0  -1  -5  628.01   62.06
   2  -2  -5  455.39   37.41
   1  -3  -5  324.71   23.37
   3  -4  -5  193.21   13.80
   0  -4  -5  151.48   11.60
   5  -5  -5   76.63    6.45
   2  -5  -5  111.93    9.73
   4  -6  -5   58.05    5.61
   0   0  -6 1551.55  116.42
   1  -2  -6  981.58   92.92
   3  -3  -6  586.66   47.76
   0  -3  -6  576.84   46.25
   2  -4  -6  432.34   38.52
   4  -5  -6  225.34   16.48
   1  -5  -6  223.38   15.87
   3  -6  -6  150.75   10.71
   1  -1  -7 2556.94  211.08
   0  -2  -7 1759.07  112.50
   2  -3  -7 1259.53   77.33
   4  -4  -7  556.95   37.10
   1  -4  -7  769.52   53.29
   3  -5  -7  470.26   35.31
   0  -5  -7  305.34   24.01
   0  -1  -8 1455.63  109.58
   2  -2  -8 1061.95   70.00
   1  -3  -8  711.40   51.96
   3  -4  -8  448.09   34.20
   0  -4  -8  376.31   26.54
   5  -5  -8  193.32   16.37
   2  -5  -8  294.44   27.54
   0   0  -9  672.04   68.36
   1  -2  -9  507.95   35.67
   3  -3  -9  287.76   22.62
   0  -3  -9  287.75   19.05
   2  -4  -9  213.98   15.87
   4  -5  -9  105.32    8.40
   1  -5  -9  105.33    8.40
   1  -1 -10   89.56    7.61
   0  -2 -10   67.44    7.01
   2  -3 -10   53.24    5.28
   4  -4 -10   23.40    3.79
   1  -4 -10   29.94    4.63
   3  -5 -10   20.02    3.62
   0  -5 -10   10.13    3.82
   0  -1 -11   24.22    4.48
   2  -2 -11   15.80    3.97
   1  -3 -11   10.76    3.20
   3  -4 -11    4.04    3.71
   0  -4 -11    0.25    3.65
   2  -5 -11   -0.18    4.13
   0   0 -12  349.53   27.63
   1  -2 -12  265.71   16.92
   3  -3 -12  148.79   11.57
   0  -3 -12  148.81   11.08
   2  -4 -12  115.60    9.41
   4  -5 -12   58.22    5.53
   1  -5 -12   56.26    5.43
   1  -1 -13  655.05   65.67
   0  -2 -13  531.38   42.87
   2  -3 -13  384.80   25.99
   4  -4 -13  185.55   12.45
   1  -4 -13  234.04   17.94
   3  -5 -13  160.68   15.24
   0  -1 -14 1250.44  120.24
   2  -2 -14  919.65   75.13
   1  -3 -14  736.29   49.72
   3  -4 -14  441.61   37.45
   0  -4 -14  334.60   25.52
   2  -5 -14  256.02   21.08
   0   0 -15  845.33   68.86
   1  -2 -15  612.96   49.59
   3  -3 -15  381.45   30.92
   0  -3 -15  400.08   32.36
   2  -4 -15  316.39   25.73
   1  -1 -16  355.41   25.59
   0  -2 -16  270.80   21.36
   2  -3 -16  215.32   24.10
   4  -4 -16  108.64   11.18
   1  -4 -16  136.47   13.57
   0  -1 -17   47.89    6.03
   2  -2 -17   35.65    5.93
   1  -3 -17   35.39    4.39
   3  -4 -17   16.58    3.45
   0  -4 -17   12.08    4.32
   0   0 -18    3.18    6.35
   1  -2 -18    2.56    5.81
   3  -3 -18    1.14    4.72
   0  -3 -18    1.15    5.23
   2  -4 -18   -0.13    4.65
   1  -1 -19  116.86   12.03
   0  -2 -19   81.95   10.80
   2  -3 -19   74.79    8.91
   1  -4 -19   48.94    6.60
   0  -1 -20  273.88   20.39
   2  -2 -20  210.58   17.23
   1  -3 -20  166.72   12.49
   0   0 -21  491.09   32.26
   1  -2 -21  390.51   27.74
   3  -3 -21  243.44   20.40
   0  -3 -21  253.26   20.89
   1  -1 -22  301.11   34.51
   0  -2 -22  301.11   29.41
   2  -3 -22  223.94   20.45
   0  -1 -23  177.01   16.57
   2  -2 -23  122.90   13.36
   0   0 -24   20.27    4.65
   1  -2 -24   16.65    3.96
   1  -1 -25    0.12    3.65
  -1   2   0 2553.36  228.48
   0   3   0 1372.68  112.70
  -2   4   0  882.21   80.64
  -1   5   0  461.80   40.54
  -3   6   0  206.14   28.10
  -1   1   1 1744.22  136.34
   0   2   1 1290.93  110.08
  -2   3   1  924.61   89.22
  -4   4   1  399.92   37.79
  -1   4   1  520.17   46.33
  -3   5   1  321.39   33.86
   0   5   1  209.98   22.73
  -2   6   1  184.68   19.94
   0   1   2  844.31   80.99
  -2   2   2  567.38   44.56
  -1   3   2  414.39   30.42
  -3   4   2  235.24   20.45
   0   4   2  190.25   15.16
  -5   5   2   99.64    8.61
  -2   5   2  141.83   10.72
  -4   6   2   76.88    7.97
   0   0   3  138.53   14.60
  -1   2   3   88.71   10.09
  -3   3   3   50.04    7.19
   0   3   3   49.05    6.63
  -2   4   3   32.98    6.79
  -4   5   3   18.71    4.56
  -1   5   3   20.67    4.66
  -3   6   3    9.84    3.36
  -1   1   4   69.46    8.19
   0   2   4   48.44    6.10
  -2   3   4   41.03    7.70
  -4   4   4   11.29    4.20
  -1   4   4   21.46    5.22
  -3   5   4    9.83    4.12
   0   5   4    4.34    3.34
  -2   6   4    3.78    3.81
   0   1   5  642.11   57.73
  -2   2   5  465.61   42.90
  -1   3   5  332.00   24.22
  -3   4   5  197.54   13.99
   0   4   5  154.88   11.75
  -5   5   5   78.35    6.53
  -2   5   5  114.44    9.83
  -4   6   5   59.35    5.67
   0   0   6 1586.38  127.87
  -1   2   6 1003.61   93.69
  -3   3   6  599.83   48.29
   0   3   6  589.79   46.78
  -2   4   6  442.04   38.89
  -4   5   6  230.40   16.71
  -1   5   6  228.40   16.10
  -3   6   6  154.14   10.87
  -1   1   7 2614.34  208.70
   0   2   7 1798.56  134.30
  -2   3   7 1287.80   78.65
  -4   4   7  569.46   37.66
  -1   4   7  786.79   54.05
  -3   5   7  480.82   35.76
   0   5   7  312.19   24.29
   0   1   8 1488.31  115.94
  -2   2   8 1085.79   86.07
  -1   3   8  727.37   52.64
  -3   4   8  458.14   34.63
   0   4   8  384.76   26.91
  -5   5   8  197.66   16.54
  -2   5   8  301.05   27.79
   0   0   9  687.13   44.06
  -1   2   9  519.36   36.17
  -3   3   9  294.22   22.89
   0   3   9  294.21   19.35
  -2   4   9  218.79   16.08
  -4   5   9  107.68    8.50
  -1   5   9  107.69    8.50
  -1   1  10   91.57    7.70
   0   2  10   68.96    7.07
  -2   3  10   54.44    5.33
  -4   4  10   23.93    3.81
  -1   4  10   30.61    4.65
  -3   5  10   20.47    3.63
   0   5  10   10.36    3.82
   0   1  11   24.76    4.49
  -2   2  11   16.15    3.98
  -1   3  11   11.00    3.21
  -3   4  11    4.13    3.70
   0   4  11    0.25    3.64
  -2   5  11   -0.18    4.11
   0   0  12  357.37   23.99
  -1   2  12  271.67   17.20
  -3   3  12  152.13   11.72
   0   3  12  152.15   11.23
  -2   4  12  118.20    9.53
  -4   5  12   59.53    5.59
  -1   5  12   57.52    5.49
  -1   1  13  669.76   66.28
   0   2  13  543.30   43.39
  -2   3  13  393.44   26.38
  -4   4  13  189.72   12.65
  -1   4  13  239.30   18.17
  -3   5  13  164.29   15.38
   0   1  14 1278.51   96.41
  -2   2  14  940.30   75.95
  -1   3  14  752.82   50.47
  -3   4  14  451.52   37.84
   0   4  14  342.11   25.84
  -2   5  14  261.76   21.32
   0   0  15  864.31   69.62
  -1   2  15  626.72   50.15
  -3   3  15  390.01   31.27
   0   3  15  409.06   32.73
  -2   4  15  323.50   26.03
  -1   1  16  363.39   25.94
   0   2  16  276.88   21.62
  -2   3  16  220.15   24.25
  -4   4  16  111.08   11.27
  -1   4  16  139.54   13.69
   0   1  17   48.97    6.07
  -2   2  17   36.45    5.95
  -1   3  17   36.18    4.42
  -3   4  17   16.95    3.46
   0   4  17   12.35    4.32
   0   0  18    3.25    6.32
  -1   2  18    2.62    5.78
  -3   3  18    1.16    4.70
   0   3  18    1.17    5.20
  -2   4  18   -0.13    4.63
  -1   1  19  119.48   12.13
   0   2  19   83.79   10.85
  -2   3  19   76.47    8.97
  -1   4  19   50.04    6.63
   0   1  20  280.03   20.66
  -2   2  20  215.31   17.43
  -1   3  20  170.46   12.65
   0   0  21  502.11   32.77
  -1   2  21  399.28   28.13
  -3   3  21  248.91   20.63
   0   3  21  258.95   21.13
  -1   1  22  307.87   34.71
   0   2  22  307.86   29.65
  -2   3  22  228.97   20.64
   0   1  23  180.98   16.72
  -2   2  23  125.66   13.45
   0   0  24   20.72    4.66
  -1   2  24   17.02    3.97
  -1   1  25    0.12    3.63
   1  -2   0 2698.68  236.73
   0  -3   0 1545.63  121.78
   2  -4   0  962.76   85.01
   1  -5   0  452.56   40.23
   3  -6   0  300.22   32.97
   1  -1  -1 1905.73  154.89
   0  -2  -1 1265.11  105.65
   2  -3  -1  906.11   78.61
   4  -4  -1  391.92   37.55
   1  -4  -1  509.77   51.00
   3  -5  -1  314.97   33.70
   0  -5  -1  205.78   22.62
   2  -6  -1  180.98   19.85
   0  -1  -2  827.42   85.36
   2  -2  -2  556.04   46.09
   1  -3  -2  406.10   30.09
   3  -4  -2  230.53   20.28
   0  -4  -2  186.44   15.01
   5  -5  -2   97.64    8.53
   2  -5  -2  139.00   10.60
   4  -6  -2   75.35    7.92
   0   0  -3  135.76   14.52
   1  -2  -3   86.93   10.04
   3  -3  -3   49.04    7.17
   0  -3  -3   48.07    6.61
   2  -4  -3   32.31    6.80
   4  -5  -3   18.34    4.56
   1  -5  -3   20.26    4.66
   3  -6  -3    9.64    3.37
   1  -1  -4   68.07    8.15
   0  -2  -4   47.46    6.07
   2  -3  -4   40.21    7.70
   4  -4  -4   11.06    4.21
   1  -4  -4   21.03    5.23
   3  -5  -4    9.63    4.13
   0  -5  -4    4.25    3.35
   2  -6  -4    3.70    3.83
   0  -1  -5  629.27   57.13
   2  -2  -5  456.30   37.46
   1  -3  -5  325.36   22.40
   3  -4  -5  193.60   13.82
   0  -4  -5  151.78   11.62
   5  -5  -5   76.78    6.46
   2  -5  -5  112.15    9.74
   4  -6  -5   58.17    5.62
   0   0  -6 1554.65  126.65
   1  -2  -6  983.54   93.11
   3  -3  -6  587.83   47.86
   0  -3  -6  577.99   46.34
   2  -4  -6  433.20   38.60
   4  -5  -6  225.79   16.51
   1  -5  -6  223.83   15.90
   3  -6  -6  151.05   10.73
   1  -1  -7 2562.05  161.40
   0  -2  -7 1762.59  112.73
   2  -3  -7 1262.05   77.48
   4  -4  -7  558.06   37.17
   1  -4  -7  771.06   53.39
   3  -5  -7  471.20   35.38
   0  -5  -7  305.95   24.05
   0  -1  -8 1458.54  134.80
   2  -2  -8 1064.07  110.14
   1  -3  -8  712.82   72.07
   3  -4  -8  448.99   34.27
   0  -4  -8  377.06   26.59
   5  -5  -8  193.71   16.40
   2  -5  -8  295.03   27.60
   0   0  -9  673.38   43.45
   1  -2  -9  508.97   35.74
   3  -3  -9  288.34   22.66
   0  -3  -9  288.33   19.08
   2  -4  -9  214.41   15.90
   4  -5  -9  105.53    8.41
   1  -5  -9  105.54    8.41
   1  -1 -10   89.74    7.62
   0  -2 -10   67.57    7.02
   2  -3 -10   53.35    5.29
   4  -4 -10   23.45    3.79
   1  -4 -10   30.00    4.64
   3  -5 -10   20.06    3.62
   0  -5 -10   10.15    3.83
   0  -1 -11   24.27    4.48
   2  -2 -11   15.83    3.98
   1  -3 -11   10.78    3.20
   3  -4 -11    4.05    3.71
   0  -4 -11    0.25    3.66
   2  -5 -11   -0.18    4.14
   0   0 -12  350.23   22.67
   1  -2 -12  266.24   16.95
   3  -3 -12  149.09   11.59
   0  -3 -12  149.11   11.10
   2  -4 -12  115.83    9.43
   4  -5 -12   58.34    5.54
   1  -5 -12   56.37    5.44
   1  -1 -13  656.36   50.77
   0  -2 -13  532.44   38.44
   2  -3 -13  385.57   26.04
   4  -4 -13  185.92   12.47
   1  -4 -13  234.51   17.98
   3  -5 -13  161.00   15.27
   0  -1 -14 1252.94   95.44
   2  -2 -14  921.49   75.28
   1  -3 -14  737.76   49.82
   3  -4 -14  442.49   37.52
   0  -4 -14  335.27   25.57
   2  -5 -14  256.53   21.12
   0   0 -15  847.02   69.00
   1  -2 -15  614.19   49.69
   3  -3 -15  382.21   30.99
   0  -3 -15  400.88   32.43
   2  -4 -15  317.02   25.78
   1  -1 -16  356.12   25.64
   0  -2 -16  271.34   21.40
   2  -3 -16  215.75   24.14
   4  -4 -16  108.86   11.20
   1  -4 -16  136.74   13.60
   0  -1 -17   47.99    6.04
   2  -2 -17   35.72    5.94
   1  -3 -17   35.46    4.39
   3  -4 -17   16.61    3.45
   0  -4 -17   12.10    4.33
   0   0 -18    3.19    6.36
   1  -2 -18    2.57    5.82
   3  -3 -18    1.14    4.73
   0  -3 -18    1.15    5.24
   2  -4 -18   -0.13    4.66
   1  -1 -19  117.09   12.05
   0  -2 -19   82.11   10.82
   2  -3 -19   74.94    8.93
   1  -4 -19   49.04    6.61
   0  -1 -20  274.43   20.43
   2  -2 -20  211.00   17.26
   1  -3 -20  167.05   12.51
   0   0 -21  492.07   32.32
   1  -2 -21  391.29   27.79
   3  -3 -21  243.93   20.44
   0  -3 -21  253.77   20.93
   1  -1 -22  301.71   34.58
   0  -2 -22  301.71   29.47
   2  -3 -22  224.39   20.48
   0  -1 -23  177.36   16.60
   2  -2 -23  123.15   13.38
   0   0 -24   20.31    4.66
   1  -2 -24   16.68    3.97
   1  -1 -25    0.12    3.65
  -1   2   0 2954.16  248.52
   0   3   0 1773.48  132.74
  -2   4   0 1182.81   95.67
  -1   5   0  862.60   60.58
  -3   6   0  506.74   43.13
  -1   1   1 1944.62  146.36
   0   2   1 1691.73  121.62
  -2   3   1 1325.41   99.26
  -4   4   1 1401.92  117.89
  -1   4   1  820.77   71.36
  -3   5   1  521.79   43.88
   0   5   1  209.98   22.73
  -2   6   1  184.68   19.94
   0   1   2  844.31   75.99
  -2   2   2  567.38   44.56
  -1   3   2  414.39   30.42
  -3   4   2  235.24   20.45
   0   4   2  190.25   15.16
  -5   5   2   99.64    8.61
  -2   5   2  141.83   10.72
  -4   6   2   76.88    7.97
   0   0   3  138.53   14.60
  -1   2   3   88.71   10.09
  -3   3   3   50.04    7.19
   0   3   3   49.05    6.63
  -2   4   3   32.98    6.79
  -4   5   3   18.71    4.56
  -1   5   3   20.67    4.66
  -3   6   3    9.84    3.36
  -1   1   4   69.46    8.19
   0   2   4   48.44    6.10
  -2   3   4   41.03    7.70
  -4   4   4   11.29    4.20
  -1   4   4   21.46    5.22
  -3   5   4    9.83    4.12
   0   5   4    4.34    3.34
  -2   6   4    3.78    3.81
   0   1   5  642.11   52.73
  -2   2   5  465.61   37.90
  -1   3   5  332.00   25.22
  -3   4   5  197.54   13.99
   0   4   5  154.88   11.75
  -5   5   5   78.35    6.53
  -2   5   5  114.44    9.83
  -4   6   5   59.35    5.67
   0   0   6 1586.38  137.87
  -1   2   6 1003.61   93.69
  -3   3   6  599.83   48.29
   0   3   6  589.79   46.78
  -2   4   6  442.04   38.89
  -4   5   6  230.40   16.71
  -1   5   6  228.40   16.10
  -3   6   6  154.14   10.87
  -1   1   7 2614.34  188.70
   0   2   7 1798.56  139.30
  -2   3   7 1287.80  103.65
  -4   4   7  569.46   37.66
  -1   4   7  786.79   54.05
  -3   5   7  480.82   35.76
   0   5   7  312.19   24.29
   0   1   8 1488.31  110.94
  -2   2   8 1085.79   71.07
  -1   3   8  727.37   52.64
  -3   4   8  458.14   34.63
   0   4   8  384.76   26.91
  -5   5   8  197.66   16.54
  -2   5   8  301.05   27.79
   0   0   9  687.13   44.06
  -1   2   9  519.36   36.17
  -3   3   9  294.22   22.89
   0   3   9  294.21   19.35
  -2   4   9  218.79   16.08
  -4   5   9  107.68    8.50
  -1   5   9  107.69    8.50
  -1   1  10   91.57    7.70
   0   2  10   68.96    7.07
  -2   3  10   54.44    5.33
  -4   4  10   23.93    3.81
  -1   4  10   30.61    4.65
  -3   5  10   20.47    3.63
   0   5  10   10.36    3.82
   0   1  11   24.76    4.49
  -2   2  11   16.15    3.98
  -1   3  11   11.00    3.21
  -3   4  11    4.13    3.70
   0   4  11    0.25    3.64
  -2   5  11   -0.18    4.11
   0   0  12  357.37   22.99
  -1   2  12  271.67   17.20
  -3   3  12  152.13   11.72
   0   3  12  152.15   11.23
  -2   4  12  118.20    9.53
  -4   5  12   59.53    5.59
  -1   5  12   57.52    5.49
  -1   1  13  669.76   51.28
   0   2  13  543.30   38.89
  -2   3  13  393.44   26.38
  -4   4  13  189.72   12.65
  -1   4  13  239.30   18.17
  -3   5  13  164.29   15.38
   0   1  14 1278.51  106.41
  -2   2  14  940.30   75.95
  -1   3  14  752.82   50.47
  -3   4  14  451.52   37.84
   0   4  14  342.11   25.84
  -2   5  14  261.76   21.32
   0   0  15  864.31   69.62
  -1   2  15  626.72   50.15
  -3   3  15  390.01   31.27
   0   3  15  409.06   32.73
  -2   4  15  323.50   26.03
  -1   1  16  363.39   25.94
   0   2  16  276.88   21.62
  -2   3  16  220.15   24.25
  -4   4  16  111.08   11.27
  -1   4  16  139.54   13.69
   0   1  17   48.97    6.07
  -2   2  17   36.45    5.95
  -1   3  17   36.18    4.42
  -3   4  17   16.95    3.46
   0   4  17   12.35    4.32
   0   0  18    3.25    6.32
  -1   2  18    2.62    5.78
  -3   3  18    1.16    4.70
   0   3  18    1.17    5.20
  -2   4  18   -0.13    4.63
  -1   1  19  119.48   12.13
   0   2  19   83.79   10.85
  -2   3  19   76.47    8.97
  -1   4  19   50.04    6.63
   0   1  20  280.03   20.66
  -2   2  20  215.31   17.43
  -1   3  20  170.46   12.65
   0   0  21  502.11   42.77
  -1   2  21  399.28   28.13
  -3   3  21  248.91   20.63
   0   3  21  258.95   21.13
  -1   1  22  307.87   34.71
   0   2  22  307.86   29.65
  -2   3  22  228.97   20.64
   0   1  23  180.98   16.72
  -2   2  23  125.66   13.45
   0   0  24   20.72    4.66
  -1   2  24   17.02    3.97
  -1   1  25    0.12    3.63
   1  -2   0 2698.68  236.73
   0  -3   0 1545.63  121.78
   2  -4   0  962.76   85.01
   1  -5   0  452.56   40.23
   3  -6   0  300.22   32.97
   1  -1  -1 1905.73  144.89
   0  -2  -1 1265.11  100.65
   2  -3  -1  906.11   93.61
   4  -4  -1  391.92   37.55
   1  -4  -1  509.77   51.00
   3  -5  -1  314.97   33.70
   0  -5  -1  205.78   22.62
   2  -6  -1  180.98   19.85
   0  -1  -2  827.42   75.36
   2  -2  -2  556.04   44.09
   1  -3  -2  406.10   30.09
   3  -4  -2  230.53   20.28
   0  -4  -2  186.44   15.01
   5  -5  -2   97.64    8.53
   2  -5  -2  139.00   10.60
   4  -6  -2   75.35    7.92
   0   0  -3  135.76   14.52
   1  -2  -3   86.93   10.04
   3  -3  -3   49.04    7.17
   0  -3  -3   48.07    6.61
   2  -4  -3   32.31    6.80
   4  -5  -3   18.34    4.56
   1  -5  -3   20.26    4.66
   3  -6  -3    9.64    3.37
   1  -1  -4   68.07    8.15
   0  -2  -4   47.46    6.07
   2  -3  -4   40.21    7.70
   4  -4  -4   11.06    4.21
   1  -4  -4   21.03    5.23
   3  -5  -4    9.63    4.13
   0  -5  -4    4.25    3.35
   2  -6  -4    3.70    3.83
   0  -1  -5  629.27   57.13
   2  -2  -5  456.30   42.46
   1  -3  -5  325.36   24.90
   3  -4  -5  193.60   13.82
   0  -4  -5  151.78   11.62
   5  -5  -5   76.78    6.46
   2  -5  -5  112.15    9.74
   4  -6  -5   58.17    5.62
   0   0  -6 1554.65  136.65
   1  -2  -6  983.54   93.11
   3  -3  -6  587.83   47.86
   0  -3  -6  577.99   46.34
   2  -4  -6  433.20   38.60
   4  -5  -6  225.79   16.51
   1  -5  -6  223.83   15.90
   3  -6  -6  151.05   10.73
   1  -1  -7 2562.05  191.40
   0  -2  -7 1762.59  137.73
   2  -3  -7 1262.05  102.48
   4  -4  -7  558.06   37.17
   1  -4  -7  771.06   53.39
   3  -5  -7  471.20   35.38
   0  -5  -7  305.95   24.05
   0  -1  -8 1458.54  109.80
   2  -2  -8 1064.07   83.14
   1  -3  -8  712.82   52.07
   3  -4  -8  448.99   34.27
   0  -4  -8  377.06   26.59
   5  -5  -8  193.71   16.40
   2  -5  -8  295.03   27.60
   0   0  -9  673.38   43.45
   1  -2  -9  508.97   40.74
   3  -3  -9  288.34   22.66
   0  -3  -9  288.33   19.08
   2  -4  -9  214.41   15.90
   4  -5  -9  105.53    8.41
   1  -5  -9  105.54    8.41
   1  -1 -10   89.74    7.62
   0  -2 -10   67.57    7.02
   2  -3 -10   53.35    5.29
   4  -4 -10   23.45    3.79
   1  -4 -10   30.00    4.64
   3  -5 -10   20.06    3.62
   0  -5 -10   10.15    3.83
   0  -1 -11   24.27    4.48
   2  -2 -11   15.83    3.98
   1  -3 -11   10.78    3.20
   3  -4 -11    4.05    3.71
   0  -4 -11    0.25    3.66
   2  -5 -11   -0.18    4.14
   0   0 -12  350.23   22.67
   1  -2 -12  266.24   16.95
   3  -3 -12  149.09   11.59
   0  -3 -12  149.11   11.10
   2  -4 -12  115.83    9.43
   4  -5 -12   58.34    5.54
   1  -5 -12   56.37    5.44
   1  -1 -13  656.36   55.77
   0  -2 -13  532.44   42.94
   2  -3 -13  385.57   27.04
   4  -4 -13  185.92   12.47
   1  -4 -13  234.51   17.98
   3  -5 -13  161.00   15.27
   0  -1 -14 1252.94   95.44
   2  -2 -14  921.49   75.28
   1  -3 -14  737.76   49.82
   3  -4 -14  442.49   37.52
   0  -4 -14  335.27   25.57
   2  -5 -14  256.53   21.12
   0   0 -15  847.02   69.00
   1  -2 -15  614.19   49.69
   3  -3 -15  382.21   30.99
   0  -3 -15  400.88   32.43
   2  -4 -15  317.02   25.78
   1  -1 -16  356.12   25.64
   0  -2 -16  271.34   21.40
   2  -3 -16  215.75   24.14
   4  -4 -16  108.86   11.20
   1  -4 -16  136.74   13.60
   0  -1 -17   47.99    6.04
   2  -2 -17   35.72    5.94
   1  -3 -17   35.46    4.39
   3  -4 -17   16.61    3.45
   0  -4 -17   12.10    4.33
   0   0 -18    3.19    6.36
   1  -2 -18    2.57    5.82
   3  -3 -18    1.14    4.73
   0  -3 -18    1.15    5.24
   2  -4 -18   -0.13    4.66
   1  -1 -19  117.09   12.05
   0  -2 -19   82.11   10.82
   2  -3 -19   74.94    8.93
   1  -4 -19   49.04    6.61
   0  -1 -20  274.43   20.43
   2  -2 -20  211.00   17.26
   1  -3 -20  167.05   12.51
   0   0 -21  492.07   37.32
   1  -2 -21  391.29   27.79
   3  -3 -21  243.93   20.44
   0  -3 -21  253.77   20.93
   1  -1 -22  301.71   34.58
   0  -2 -22  301.71   29.47
   2  -3 -22  224.39   20.48
   0  -1 -23  177.36   16.60
   2  -2 -23  123.15   13.38
   0   0 -24   20.31    4.66
   1  -2 -24   16.68    3.97
   1  -1 -25    0.12    3.65
;
_shelx_hkl_checksum              41938
_shelx_res_file
;
    li4ge2b_Acta.res created by SHELXL-2014/7
TITL  Li4Ge2B
CELL   0.7093    4.4603    4.4603   18.3197   90.0000   90.0000  120.0000
ZERR    1    0.0003    0.0003    0.0011    0.0000    0.0000    0.0000
LATT  -3
SYMM -y,x-y,z
SYMM -x+y,-x,z
SYMM -y,-x,z
SYMM -x+y,y,z
SYMM x,x-y,z
SFAC  Ge B Li
UNIT    6   3  12
L.S. 16
BOND
FMAP 2
PLAN 20
acta
merg 2
twin
WGHT    0.000000    0.009000
BASF   0.45125
FVAR       0.31018   0.01821
GE1   1    0.000000    0.000000    0.406948    10.16667    0.01119    0.01119 =
         0.01407    0.00000    0.00000    0.00559
GE2   1    0.000000    0.000000    0.266452    10.16667    0.01206    0.01206 =
         0.00804    0.00000    0.00000    0.00603
B3    2    0.000000    0.000000    0.124388    10.16667    0.01079    0.01079 =
         0.00144    0.00000    0.00000    0.00539
LI4   3    0.000000    0.000000    0.835798    10.16667   21.00000
LI5   3    0.000000    0.000000    0.700648    10.16667   21.00000
LI6   3    0.000000    0.000000    0.996705    10.16667   21.00000
LI7   3    0.000000    0.000000    0.540572    10.16667   21.00000
hklf 4
REM   Li4Ge2B
REM R1 =  0.0223 for     269 Fo > 4sig(Fo)  and  0.0253 for all     287 data
REM     16 parameters refined using      1 restraints
END
WGHT      0.0000      0.0000
REM Highest difference peak  0.517,  deepest hole -0.534,  1-sigma level  0.146
Q1    1   0.0000  0.0000  0.4769  10.16667  0.05    0.50
Q2    1   0.0000  0.0000  0.2003  10.16667  0.05    0.47
Q3    1   0.0000  0.0000  0.5707  10.16667  0.05    0.46
Q4    1   0.0000  0.0000  1.0379  10.16667  0.05    0.42
Q5    1  -0.1203 -0.0602  0.1734  10.50000  0.05    0.40
Q6    1   0.1260  0.2521  1.0092  10.50000  0.05    0.39
Q7    1  -0.0600 -0.1201  0.9755  10.50000  0.05    0.39
Q8    1   0.0000  0.0000  0.3198  10.16667  0.05    0.39
Q9    1   0.0000  0.0000  0.6324  10.16667  0.05    0.38
Q10   1   0.3383  0.3638  0.2766  11.00000  0.05    0.37
Q11   1  -0.0159 -0.3554  0.3964  11.00000  0.05    0.37
Q12   1  -0.1898  0.0491  0.6614  11.00000  0.05    0.34
Q13   1   0.0272 -0.3195  0.4268  11.00000  0.05    0.32
Q14   1  -0.1807 -0.0903  0.8787  10.50000  0.05    0.32
Q15   1  -0.2850 -0.3348  0.5322  11.00000  0.05    0.30
Q16   1   0.0472  0.3352  0.1421  11.00000  0.05    0.30
Q17   1   0.1953  0.0976  0.7955  10.50000  0.05    0.30
Q18   1  -0.0794  0.0794  0.9181  10.50000  0.05    0.29
Q19   1  -0.2694  0.0038  0.8376  11.00000  0.05    0.26
Q20   1   0.0000  0.0000  0.7638  10.16667  0.05    0.24
;
_shelx_res_checksum              88503
loop_
_space_group_symop_operation_xyz
'x, y, z'
'-y, x-y, z'
'-x+y, -x, z'
'-y, -x, z'
'-x+y, y, z'
'x, x-y, z'
'x+2/3, y+1/3, z+1/3'
'-y+2/3, x-y+1/3, z+1/3'
'-x+y+2/3, -x+1/3, z+1/3'
'-y+2/3, -x+1/3, z+1/3'
'-x+y+2/3, y+1/3, z+1/3'
'x+2/3, x-y+1/3, z+1/3'
'x+1/3, y+2/3, z+2/3'
'-y+1/3, x-y+2/3, z+2/3'
'-x+y+1/3, -x+2/3, z+2/3'
'-y+1/3, -x+2/3, z+2/3'
'-x+y+1/3, y+2/3, z+2/3'
'x+1/3, x-y+2/3, z+2/3'
loop_
_atom_site_type_symbol
_atom_site_label
_atom_site_fract_x
_atom_site_fract_y
_atom_site_fract_z
_atom_site_U_iso_or_equiv
_atom_site_adp_type
_atom_site_calc_flag
_atom_site_occupancy
Ge Ge1 0.0000 0.0000 0.40695(9) 0.0121(9) Uani d 1
Ge Ge2 0.0000 0.0000 0.26645(4) 0.0107(8) Uani d 1
B B3 0.0000 0.0000 0.1244(12) 0.008(3) Uani d 1
Li Li4 0.0000 0.0000 0.836(4) 0.018(2) Uiso d 1
Li Li5 0.0000 0.0000 0.7006(12) 0.018(2) Uiso d 1
Li Li6 0.0000 0.0000 0.9967(13) 0.018(2) Uiso d 1
Li Li7 0.0000 0.0000 0.541(3) 0.018(2) Uiso d 1
loop_
_atom_site_aniso_label
_atom_site_aniso_U_11
_atom_site_aniso_U_22
_atom_site_aniso_U_33
_atom_site_aniso_U_12
_atom_site_aniso_U_13
_atom_site_aniso_U_23
Ge1 0.0112(9) 0.0112(9) 0.0141(17) 0.0056(5) 0.000 0.000
Ge2 0.0121(9) 0.0121(9) 0.0080(13) 0.0060(5) 0.000 0.000
B3 0.011(3) 0.011(3) 0.001(8) 0.0054(13) 0.000 0.000
loop_
_atom_type_symbol
_atom_type_description
_atom_type_scat_dispersion_real
_atom_type_scat_dispersion_imag
_atom_type_scat_source
Ge Ge 0.1547 1.8001 'International Tables Vol C Tables 4.2.6.8 and 6.1.1.4'
B B 0.0013 0.0007 'International Tables Vol C Tables 4.2.6.8 and 6.1.1.4'
Li Li -0.0003 0.0001 'International Tables Vol C Tables 4.2.6.8 and 6.1.1.4'
loop_
_geom_angle_atom_site_label_1
_geom_angle_atom_site_label_2
_geom_angle_atom_site_label_3
_geom_angle_site_symmetry_1
_geom_angle_site_symmetry_3
_geom_angle
Li7 Ge1 Ge2 . . 180.0
Li7 Ge1 Li5 . 13_444 105.7(5)
Ge2 Ge1 Li5 . 13_444 74.3(5)
Li7 Ge1 Li5 . 13_554 105.7(5)
Ge2 Ge1 Li5 . 13_554 74.3(5)
Li5 Ge1 Li5 13_444 13_554 112.9(4)
Li7 Ge1 Li5 . 13_544 105.7(5)
Ge2 Ge1 Li5 . 13_544 74.3(5)
Li5 Ge1 Li5 13_444 13_544 112.9(4)
Li5 Ge1 Li5 13_554 13_544 112.9(4)
Li7 Ge1 Li6 . 7_444 118.7(4)
Ge2 Ge1 Li6 . 7_444 61.3(4)
Li5 Ge1 Li6 13_444 7_444 56.46(19)
Li5 Ge1 Li6 13_554 7_444 135.6(5)
Li5 Ge1 Li6 13_544 7_444 56.47(19)
Li7 Ge1 Li6 . 7_554 118.7(4)
Ge2 Ge1 Li6 . 7_554 61.3(4)
Li5 Ge1 Li6 13_444 7_554 135.6(5)
Li5 Ge1 Li6 13_554 7_554 56.46(19)
Li5 Ge1 Li6 13_544 7_554 56.47(19)
Li6 Ge1 Li6 7_444 7_554 98.9(5)
Li7 Ge1 Li6 . 7_454 118.7(4)
Ge2 Ge1 Li6 . 7_454 61.3(4)
Li5 Ge1 Li6 13_444 7_454 56.47(19)
Li5 Ge1 Li6 13_554 7_454 56.47(19)
Li5 Ge1 Li6 13_544 7_454 135.6(5)
Li6 Ge1 Li6 7_444 7_454 98.9(5)
Li6 Ge1 Li6 7_554 7_454 98.9(5)
Li7 Ge1 Li4 . 13_554 55.8(12)
Ge2 Ge1 Li4 . 13_554 124.2(12)
Li5 Ge1 Li4 13_444 13_554 123.4(3)
Li5 Ge1 Li4 13_554 13_554 49.9(11)
Li5 Ge1 Li4 13_544 13_554 123.4(3)
Li6 Ge1 Li4 7_444 13_554 174.5(11)
Li6 Ge1 Li4 7_554 13_554 84.7(9)
Li6 Ge1 Li4 7_454 13_554 84.7(9)
Li7 Ge1 Li4 . 13_444 55.8(12)
Ge2 Ge1 Li4 . 13_444 124.2(12)
Li5 Ge1 Li4 13_444 13_444 49.9(11)
Li5 Ge1 Li4 13_554 13_444 123.4(3)
Li5 Ge1 Li4 13_544 13_444 123.4(3)
Li6 Ge1 Li4 7_444 13_444 84.7(9)
Li6 Ge1 Li4 7_554 13_444 174.5(11)
Li6 Ge1 Li4 7_454 13_444 84.7(9)
Li4 Ge1 Li4 13_554 13_444 91.5(16)
Li7 Ge1 Li4 . 13_544 55.8(12)
Ge2 Ge1 Li4 . 13_544 124.2(12)
Li5 Ge1 Li4 13_444 13_544 123.4(3)
Li5 Ge1 Li4 13_554 13_544 123.4(3)
Li5 Ge1 Li4 13_544 13_544 49.9(11)
Li6 Ge1 Li4 7_444 13_544 84.7(9)
Li6 Ge1 Li4 7_554 13_544 84.7(9)
Li6 Ge1 Li4 7_454 13_544 174.5(11)
Li4 Ge1 Li4 13_554 13_544 91.5(16)
Li4 Ge1 Li4 13_444 13_544 91.5(16)
Ge1 Ge2 Li7 . 13_444 112.8(10)
Ge1 Ge2 Li7 . 13_554 112.8(10)
Li7 Ge2 Li7 13_444 13_554 105.9(11)
Ge1 Ge2 Li7 . 13_544 112.8(10)
Li7 Ge2 Li7 13_444 13_544 105.9(11)
Li7 Ge2 Li7 13_554 13_544 105.9(11)
Ge1 Ge2 Li6 . 7_554 65.7(4)
Li7 Ge2 Li6 13_444 7_554 178.5(10)
Li7 Ge2 Li6 13_554 7_554 74.9(7)
Li7 Ge2 Li6 13_544 7_554 74.9(7)
Ge1 Ge2 Li6 . 7_444 65.7(4)
Li7 Ge2 Li6 13_444 7_444 74.9(7)
Li7 Ge2 Li6 13_554 7_444 178.5(10)
Li7 Ge2 Li6 13_544 7_444 74.9(7)
Li6 Ge2 Li6 7_554 7_444 104.2(5)
Ge1 Ge2 Li6 . 7_454 65.7(4)
Li7 Ge2 Li6 13_444 7_454 74.9(7)
Li7 Ge2 Li6 13_554 7_454 74.9(7)
Li7 Ge2 Li6 13_544 7_454 178.5(10)
Li6 Ge2 Li6 7_554 7_454 104.2(5)
Li6 Ge2 Li6 7_444 7_454 104.2(5)
Ge1 Ge2 Li4 . 7_444 124.7(11)
Li7 Ge2 Li4 13_444 7_444 53.1(5)
Li7 Ge2 Li4 13_554 7_444 122.5(13)
Li7 Ge2 Li4 13_544 7_444 53.1(5)
Li6 Ge2 Li4 7_554 7_444 127.5(3)
Li6 Ge2 Li4 7_444 7_444 59.0(14)
Li6 Ge2 Li4 7_454 7_444 127.5(3)
Ge1 Ge2 Li4 . 7_554 124.7(11)
Li7 Ge2 Li4 13_444 7_554 122.5(13)
Li7 Ge2 Li4 13_554 7_554 53.1(4)
Li7 Ge2 Li4 13_544 7_554 53.1(5)
Li6 Ge2 Li4 7_554 7_554 59.0(14)
Li6 Ge2 Li4 7_444 7_554 127.5(3)
Li6 Ge2 Li4 7_454 7_554 127.5(3)
Li4 Ge2 Li4 7_444 7_554 90.8(16)
Ge1 Ge2 Li4 . 7_454 124.7(11)
Li7 Ge2 Li4 13_444 7_454 53.1(4)
Li7 Ge2 Li4 13_554 7_454 53.1(5)
Li7 Ge2 Li4 13_544 7_454 122.5(13)
Li6 Ge2 Li4 7_554 7_454 127.5(3)
Li6 Ge2 Li4 7_444 7_454 127.5(3)
Li6 Ge2 Li4 7_454 7_454 59.0(14)
Li4 Ge2 Li4 7_444 7_454 90.8(16)
Li4 Ge2 Li4 7_554 7_454 90.8(16)
Ge1 Ge2 Li5 . 13_554 54.3(3)
Li7 Ge2 Li5 13_444 13_554 126.9(5)
Li7 Ge2 Li5 13_554 13_554 58.5(11)
Li7 Ge2 Li5 13_544 13_554 126.9(5)
Li6 Ge2 Li5 7_554 13_554 52.4(2)
Li6 Ge2 Li5 7_444 13_554 120.0(5)
Li6 Ge2 Li5 7_454 13_554 52.4(2)
Li4 Ge2 Li5 7_444 13_554 179.0(13)
Li4 Ge2 Li5 7_554 13_554 89.9(8)
Li4 Ge2 Li5 7_454 13_554 89.9(8)
Ge1 Ge2 Li5 . 13_444 54.3(3)
Li7 Ge2 Li5 13_444 13_444 58.5(11)
Li7 Ge2 Li5 13_554 13_444 126.9(5)
Li7 Ge2 Li5 13_544 13_444 126.9(5)
Li6 Ge2 Li5 7_554 13_444 120.0(5)
Li6 Ge2 Li5 7_444 13_444 52.4(2)
Li6 Ge2 Li5 7_454 13_444 52.4(2)
Li4 Ge2 Li5 7_444 13_444 89.9(8)
Li4 Ge2 Li5 7_554 13_444 179.0(13)
Li4 Ge2 Li5 7_454 13_444 89.9(8)
Li5 Ge2 Li5 13_554 13_444 89.4(5)
Li6 B3 Li4 1_554 7_554 107.7(17)
Li6 B3 Li4 1_554 7_444 107.7(17)
Li4 B3 Li4 7_554 7_444 111.2(16)
Li6 B3 Li4 1_554 7_454 107.7(17)
Li4 B3 Li4 7_554 7_454 111.2(16)
Li4 B3 Li4 7_444 7_454 111.2(16)
Li5 Li4 Li7 . 7 105(2)
Li5 Li4 Li7 . 7_445 105(2)
Li7 Li4 Li7 7 7_445 113.4(17)
Li5 Li4 Li7 . 7_455 105(2)
Li7 Li4 Li7 7 7_455 113.4(18)
Li7 Li4 Li7 7_445 7_455 113.4(18)
Li5 Li4 B3 . 13_445 72.3(17)
Li7 Li4 B3 7 13_445 178(4)
Li7 Li4 B3 7_445 13_445 67.6(4)
Li7 Li4 B3 7_455 13_445 67.6(4)
Li5 Li4 B3 . 13 72.3(17)
Li7 Li4 B3 7 13 67.6(4)
Li7 Li4 B3 7_445 13 178(4)
Li7 Li4 B3 7_455 13 67.6(4)
B3 Li4 B3 13_445 13 111.2(16)
Li5 Li4 B3 . 13_545 72.3(17)
Li7 Li4 B3 7 13_545 67.6(4)
Li7 Li4 B3 7_445 13_545 67.6(4)
Li7 Li4 B3 7_455 13_545 178(4)
B3 Li4 B3 13_445 13_545 111.2(16)
B3 Li4 B3 13 13_545 111.2(16)
Li5 Li4 Li6 . . 180.0
Li7 Li4 Li6 7 . 75(2)
Li7 Li4 Li6 7_445 . 75(2)
Li7 Li4 Li6 7_455 . 75(2)
B3 Li4 Li6 13_445 . 107.7(17)
B3 Li4 Li6 13 . 107.7(17)
B3 Li4 Li6 13_545 . 107.7(17)
Li5 Li4 Ge1 . 7_445 55.8(12)
Li7 Li4 Ge1 7 7_445 123.1(12)
Li7 Li4 Ge1 7_445 7_445 49.4(13)
Li7 Li4 Ge1 7_455 7_445 123.1(12)
B3 Li4 Ge1 13_445 7_445 55.6(8)
B3 Li4 Ge1 13 7_445 128(3)
B3 Li4 Ge1 13_545 7_445 55.6(8)
Li6 Li4 Ge1 . 7_445 124.2(12)
Li5 Li4 Ge1 . 7 55.8(12)
Li7 Li4 Ge1 7 7 49.4(13)
Li7 Li4 Ge1 7_445 7 123.1(12)
Li7 Li4 Ge1 7_455 7 123.1(12)
B3 Li4 Ge1 13_445 7 128(3)
B3 Li4 Ge1 13 7 55.6(8)
B3 Li4 Ge1 13_545 7 55.6(8)
Li6 Li4 Ge1 . 7 124.2(12)
Ge1 Li4 Ge1 7_445 7 91.5(16)
Li5 Li4 Ge1 . 7_455 55.8(12)
Li7 Li4 Ge1 7 7_455 123.1(12)
Li7 Li4 Ge1 7_445 7_455 123.1(12)
Li7 Li4 Ge1 7_455 7_455 49.4(13)
B3 Li4 Ge1 13_445 7_455 55.6(8)
B3 Li4 Ge1 13 7_455 55.6(8)
B3 Li4 Ge1 13_545 7_455 128(3)
Li6 Li4 Ge1 . 7_455 124.2(12)
Ge1 Li4 Ge1 7_445 7_455 91.5(16)
Ge1 Li4 Ge1 7 7_455 91.5(16)
Li5 Li4 Ge2 . 13 124.7(11)
Li7 Li4 Ge2 7 13 56.9(10)
Li7 Li4 Ge2 7_445 13 130(3)
Li7 Li4 Ge2 7_455 13 56.9(10)
B3 Li4 Ge2 13_445 13 124.4(9)
B3 Li4 Ge2 13 13 52.4(7)
B3 Li4 Ge2 13_545 13 124.4(9)
Li6 Li4 Ge2 . 13 55.3(11)
Ge1 Li4 Ge2 7_445 13 180(2)
Ge1 Li4 Ge2 7 13 88.85(3)
Ge1 Li4 Ge2 7_455 13 88.85(3)
Li4 Li5 Li6 . 13_444 104.9(8)
Li4 Li5 Li6 . 13_554 104.9(8)
Li6 Li5 Li6 13_444 13_554 113.7(6)
Li4 Li5 Li6 . 13_544 104.9(8)
Li6 Li5 Li6 13_444 13_544 113.7(6)
Li6 Li5 Li6 13_554 13_544 113.7(6)
Li4 Li5 Ge1 . 7 74.3(5)
Li6 Li5 Ge1 13_444 7 179.1(12)
Li6 Li5 Ge1 13_554 7 66.7(2)
Li6 Li5 Ge1 13_544 7 66.7(2)
Li4 Li5 Ge1 . 7_445 74.3(5)
Li6 Li5 Ge1 13_444 7_445 66.7(2)
Li6 Li5 Ge1 13_554 7_445 179.1(12)
Li6 Li5 Ge1 13_544 7_445 66.7(2)
Ge1 Li5 Ge1 7 7_445 112.9(4)
Li4 Li5 Ge1 . 7_455 74.3(5)
Li6 Li5 Ge1 13_444 7_455 66.7(2)
Li6 Li5 Ge1 13_554 7_455 66.7(2)
Li6 Li5 Ge1 13_544 7_455 179.1(12)
Ge1 Li5 Ge1 7 7_455 112.9(4)
Ge1 Li5 Ge1 7_445 7_455 112.9(4)
Li4 Li5 Li7 . . 180.000(13)
Li6 Li5 Li7 13_444 . 75.1(8)
Li6 Li5 Li7 13_554 . 75.1(8)
Li6 Li5 Li7 13_544 . 75.1(8)
Ge1 Li5 Li7 7 . 105.7(5)
Ge1 Li5 Li7 7_445 . 105.7(5)
Ge1 Li5 Li7 7_455 . 105.7(5)
Li4 Li5 Ge2 . 7_445 125.7(3)
Li6 Li5 Ge2 13_444 7_445 57.2(4)
Li6 Li5 Ge2 13_554 7_445 129.5(10)
Li6 Li5 Ge2 13_544 7_445 57.2(4)
Ge1 Li5 Ge2 7 7_445 123.3(3)
Ge1 Li5 Ge2 7_445 7_445 51.41(14)
Ge1 Li5 Ge2 7_455 7_445 123.3(3)
Li7 Li5 Ge2 . 7_445 54.3(3)
Li4 Li5 Ge2 . 7 125.7(3)
Li6 Li5 Ge2 13_444 7 129.5(10)
Li6 Li5 Ge2 13_554 7 57.2(4)
Li6 Li5 Ge2 13_544 7 57.2(4)
Ge1 Li5 Ge2 7 7 51.41(14)
Ge1 Li5 Ge2 7_445 7 123.3(3)
Ge1 Li5 Ge2 7_455 7 123.3(3)
Li7 Li5 Ge2 . 7 54.3(3)
Ge2 Li5 Ge2 7_445 7 89.4(5)
Li4 Li5 Ge2 . 7_455 125.7(3)
Li6 Li5 Ge2 13_444 7_455 57.2(4)
Li6 Li5 Ge2 13_554 7_455 57.2(4)
Li6 Li5 Ge2 13_544 7_455 129.5(10)
Ge1 Li5 Ge2 7 7_455 123.3(3)
Ge1 Li5 Ge2 7_445 7_455 123.3(3)
Ge1 Li5 Ge2 7_455 7_455 51.41(14)
Li7 Li5 Ge2 . 7_455 54.3(3)
Ge2 Li5 Ge2 7_445 7_455 89.4(5)
Ge2 Li5 Ge2 7 7_455 89.4(5)
B3 Li6 Li5 1_556 7 75.1(8)
B3 Li6 Li5 1_556 7_445 75.1(8)
Li5 Li6 Li5 7 7_445 113.7(6)
B3 Li6 Li5 1_556 7_455 75.1(8)
Li5 Li6 Li5 7 7_455 113.7(6)
Li5 Li6 Li5 7_445 7_455 113.7(6)
B3 Li6 Ge2 1_556 13_445 114.3(4)
Li5 Li6 Ge2 7 13_445 170.5(11)
Li5 Li6 Ge2 7_445 13_445 70.4(3)
Li5 Li6 Ge2 7_455 13_445 70.4(3)
B3 Li6 Ge2 1_556 13 114.3(4)
Li5 Li6 Ge2 7 13 70.4(3)
Li5 Li6 Ge2 7_445 13 170.5(11)
Li5 Li6 Ge2 7_455 13 70.4(3)
Ge2 Li6 Ge2 13_445 13 104.2(5)
B3 Li6 Ge2 1_556 13_545 114.3(4)
Li5 Li6 Ge2 7 13_545 70.4(3)
Li5 Li6 Ge2 7_445 13_545 70.4(3)
Li5 Li6 Ge2 7_455 13_545 170.5(11)
Ge2 Li6 Ge2 13_445 13_545 104.2(5)
Ge2 Li6 Ge2 13 13_545 104.2(5)
B3 Li6 Ge1 1_556 13 61.3(4)
Li5 Li6 Ge1 7 13 56.8(3)
Li5 Li6 Ge1 7_445 13 136.5(11)
Li5 Li6 Ge1 7_455 13 56.8(3)
Ge2 Li6 Ge1 13_445 13 126.69(7)
Ge2 Li6 Ge1 13 13 53.02(4)
Ge2 Li6 Ge1 13_545 13 126.69(7)
B3 Li6 Ge1 1_556 13_445 61.3(4)
Li5 Li6 Ge1 7 13_445 136.5(11)
Li5 Li6 Ge1 7_445 13_445 56.8(3)
Li5 Li6 Ge1 7_455 13_445 56.8(3)
Ge2 Li6 Ge1 13_445 13_445 53.02(4)
Ge2 Li6 Ge1 13 13_445 126.69(7)
Ge2 Li6 Ge1 13_545 13_445 126.69(7)
Ge1 Li6 Ge1 13 13_445 98.9(5)
B3 Li6 Ge1 1_556 13_545 61.3(4)
Li5 Li6 Ge1 7 13_545 56.8(3)
Li5 Li6 Ge1 7_445 13_545 56.8(3)
Li5 Li6 Ge1 7_455 13_545 136.5(11)
Ge2 Li6 Ge1 13_445 13_545 126.69(7)
Ge2 Li6 Ge1 13 13_545 126.69(7)
Ge2 Li6 Ge1 13_545 13_545 53.02(4)
Ge1 Li6 Ge1 13 13_545 98.9(5)
Ge1 Li6 Ge1 13_445 13_545 98.9(5)
B3 Li6 Li4 1_556 . 180.00(2)
Li5 Li6 Li4 7 . 104.9(8)
Li5 Li6 Li4 7_445 . 104.9(8)
Li5 Li6 Li4 7_455 . 104.9(8)
Ge2 Li6 Li4 13_445 . 65.7(4)
Ge2 Li6 Li4 13 . 65.7(4)
Ge2 Li6 Li4 13_545 . 65.7(4)
Ge1 Li6 Li4 13 . 118.7(4)
Ge1 Li6 Li4 13_445 . 118.7(4)
Ge1 Li6 Li4 13_545 . 118.7(4)
B3 Li6 Li7 1_556 7_445 131.1(8)
Li5 Li6 Li7 7 7_445 122.2(5)
Li5 Li6 Li7 7_445 7_445 56.0(9)
Li5 Li6 Li7 7_455 7_445 122.2(6)
Ge2 Li6 Li7 13_445 7_445 52.1(3)
Ge2 Li6 Li7 13 7_445 114.5(11)
Ge2 Li6 Li7 13_545 7_445 52.1(3)
Ge1 Li6 Li7 13 7_445 167.5(11)
Ge1 Li6 Li7 13_445 7_445 89.2(4)
Ge1 Li6 Li7 13_545 7_445 89.2(4)
Li4 Li6 Li7 . 7_445 48.9(8)
Ge1 Li7 Li4 . 13_444 75(2)
Ge1 Li7 Li4 . 13_554 75(2)
Li4 Li7 Li4 13_444 13_554 113.4(17)
Ge1 Li7 Li4 . 13_544 75(2)
Li4 Li7 Li4 13_444 13_544 113.4(18)
Li4 Li7 Li4 13_554 13_544 113.4(18)
Ge1 Li7 Ge2 . 7 112.8(10)
Li4 Li7 Ge2 13_444 7 172(3)
Li4 Li7 Ge2 13_554 7 69.9(9)
Li4 Li7 Ge2 13_544 7 69.9(9)
Ge1 Li7 Ge2 . 7_445 112.8(10)
Li4 Li7 Ge2 13_444 7_445 69.9(9)
Li4 Li7 Ge2 13_554 7_445 172(3)
Li4 Li7 Ge2 13_544 7_445 69.9(9)
Ge2 Li7 Ge2 7 7_445 105.9(11)
Ge1 Li7 Ge2 . 7_455 112.8(10)
Li4 Li7 Ge2 13_444 7_455 69.9(9)
Li4 Li7 Ge2 13_554 7_455 69.9(9)
Li4 Li7 Ge2 13_544 7_455 172(3)
Ge2 Li7 Ge2 7 7_455 105.9(11)
Ge2 Li7 Ge2 7_445 7_455 105.9(11)
Ge1 Li7 Li5 . . 180.0
Li4 Li7 Li5 13_444 . 105(2)
Li4 Li7 Li5 13_554 . 105(2)
Li4 Li7 Li5 13_544 . 105(2)
Ge2 Li7 Li5 7 . 67.2(10)
Ge2 Li7 Li5 7_445 . 67.2(10)
Ge2 Li7 Li5 7_455 . 67.2(10)
Ge1 Li7 Li6 . 13_554 131.1(8)
Li4 Li7 Li6 13_444 13_554 122.4(14)
Li4 Li7 Li6 13_554 13_554 56.3(18)
Li4 Li7 Li6 13_544 13_554 122.4(14)
Ge2 Li7 Li6 7 13_554 53.0(6)
Ge2 Li7 Li6 7_445 13_554 116.0(18)
Ge2 Li7 Li6 7_455 13_554 53.0(6)
Li5 Li7 Li6 . 13_554 48.9(8)
Ge1 Li7 Li6 . 13_444 131.1(8)
Li4 Li7 Li6 13_444 13_444 56.3(18)
Li4 Li7 Li6 13_554 13_444 122.4(14)
Li4 Li7 Li6 13_544 13_444 122.4(14)
Ge2 Li7 Li6 7 13_444 116.0(18)
Ge2 Li7 Li6 7_445 13_444 53.0(6)
Ge2 Li7 Li6 7_455 13_444 53.0(6)
Li5 Li7 Li6 . 13_444 48.9(8)
Li6 Li7 Li6 13_554 13_444 81.4(12)
Ge1 Li7 Li6 . 13_544 131.1(8)
Li4 Li7 Li6 13_444 13_544 122.4(14)
Li4 Li7 Li6 13_554 13_544 122.4(14)
Li4 Li7 Li6 13_544 13_544 56.3(18)
Ge2 Li7 Li6 7 13_544 53.0(6)
Ge2 Li7 Li6 7_445 13_544 53.0(6)
Ge2 Li7 Li6 7_455 13_544 116.0(18)
Li5 Li7 Li6 . 13_544 48.9(8)
Li6 Li7 Li6 13_554 13_544 81.4(12)
Li6 Li7 Li6 13_444 13_544 81.4(12)
loop_
_geom_bond_atom_site_label_1
_geom_bond_atom_site_label_2
_geom_bond_site_symmetry_2
_geom_bond_distance
Ge1 Li7 . 2.45(5)
Ge1 Ge2 . 2.5738(16)
Ge1 Li5 13_444 2.676(6)
Ge1 Li5 13_554 2.676(6)
Ge1 Li5 13_544 2.676(6)
Ge1 Li6 7_444 2.935(12)
Ge1 Li6 7_554 2.935(12)
Ge1 Li6 7_454 2.935(12)
Ge1 Li4 13_554 3.11(4)
Ge1 Li4 13_444 3.11(4)
Ge1 Li4 13_544 3.11(4)
Ge2 Li7 13_444 2.79(2)
Ge2 Li7 13_554 2.79(2)
Ge2 Li7 13_544 2.79(2)
Ge2 Li6 7_554 2.826(10)
Ge2 Li6 7_444 2.826(10)
Ge2 Li6 7_454 2.826(10)
Ge2 Li4 7_444 3.13(4)
Ge2 Li4 7_554 3.13(4)
Ge2 Li4 7_454 3.13(4)
Ge2 Li5 13_554 3.169(13)
Ge2 Li5 13_444 3.169(13)
B3 Li6 1_554 2.34(4)
B3 Li4 7_554 2.70(3)
B3 Li4 7_444 2.70(3)
B3 Li4 7_454 2.70(3)
Li4 Li5 . 2.48(7)
Li4 Li7 7 2.67(3)
Li4 Li7 7_445 2.67(3)
Li4 Li7 7_455 2.67(3)
Li4 B3 13_445 2.70(3)
Li4 B3 13 2.70(3)
Li4 B3 13_545 2.70(3)
Li4 Li6 . 2.95(9)
Li4 Ge1 7_445 3.11(4)
Li4 Ge1 7 3.11(4)
Li4 Ge1 7_455 3.11(4)
Li4 Ge2 13 3.13(4)
Li5 Li6 13_444 2.664(9)
Li5 Li6 13_554 2.664(10)
Li5 Li6 13_544 2.664(9)
Li5 Ge1 7 2.676(6)
Li5 Ge1 7_445 2.676(6)
Li5 Ge1 7_455 2.676(6)
Li5 Li7 . 2.93(6)
Li5 Ge2 7_445 3.169(13)
Li5 Ge2 7 3.169(13)
Li5 Ge2 7_455 3.170(13)
Li6 B3 1_556 2.34(4)
Li6 Li5 7 2.664(10)
Li6 Li5 7_445 2.664(10)
Li6 Li5 7_455 2.664(9)
Li6 Ge2 13_445 2.826(10)
Li6 Ge2 13 2.826(10)
Li6 Ge2 13_545 2.826(10)
Li6 Ge1 13 2.935(12)
Li6 Ge1 13_445 2.935(12)
Li6 Ge1 13_545 2.935(12)
Li6 Li7 7_445 3.42(4)
Li7 Li4 13_444 2.67(3)
Li7 Li4 13_554 2.67(3)
Li7 Li4 13_544 2.67(3)
Li7 Ge2 7 2.79(2)
Li7 Ge2 7_445 2.79(2)
Li7 Ge2 7_455 2.79(2)
Li7 Li6 13_554 3.42(4)
Li7 Li6 13_444 3.42(4)
Li7 Li6 13_544 3.42(4)
