#------------------------------------------------------------------------------
#$Date: 2018-02-15 09:31:26 +0200 (Thu, 15 Feb 2018) $
#$Revision: 206451 $
#$URL: file:///home/coder/svn-repositories/cod/cif/2/02/10/2021013.cif $
#------------------------------------------------------------------------------
#
# This file is available in the Crystallography Open Database (COD),
# http://www.crystallography.net/. The original data for this entry
# were provided by IUCr Journals, http://journals.iucr.org/.
#
# The file may be used within the scientific community so long as
# proper attribution is given to the journal article from which the
# data were obtained.
#
data_2021013
loop_
_publ_author_name
'Ptashkina, Evgeniya A.'
'Kabanova, Elizaveta G.'
'Tursina, Anna I.'
'Yatsenko, Alexandr V.'
'Kuznetsov, Victor N.'
_publ_section_title
;
 Synthesis and crystal structure of a new Cu~3~Au-type ternary phase in
 the Au--In--Pd system: distribution of atoms over crystallographic
 positions
;
_journal_coeditor_code           QP3003
_journal_issue                   3
_journal_name_full               'Acta Crystallographica Section C'
_journal_page_first
;
;
_journal_paper_doi               10.1107/S2053229618001973
_journal_volume                  74
_journal_year                    2018
_chemical_formula_iupac          'Au1.23 In0.93 Pd1.84'
_chemical_formula_sum            'Au1.23 In0.93 Pd1.84'
_chemical_formula_weight         545.03
_chemical_name_systematic
;
Gold indium dipalladium
;
_space_group_crystal_system      cubic
_space_group_IT_number           221
_space_group_name_Hall           '-P 4 2 3'
_space_group_name_H-M_alt        'P m -3 m'
_symmetry_space_group_name_Hall  '-P 4 2 3'
_symmetry_space_group_name_H-M   'P m -3 m'
_audit_creation_method           SHELXL-2014/6
_cell_angle_alpha                90
_cell_angle_beta                 90
_cell_angle_gamma                90
_cell_formula_units_Z            1
_cell_length_a                   4.0340(6)
_cell_length_b                   4.0340(6)
_cell_length_c                   4.0340(6)
_cell_measurement_reflns_used    24
_cell_measurement_temperature    295(2)
_cell_measurement_theta_max      23.18
_cell_measurement_theta_min      23.13
_cell_volume                     65.646(17)
_computing_data_collection
;
<i>CAD-4 Diffractometer Control Software</i> (Enraf--Nonius, 1993)
;
_computing_data_reduction
;
PROFIT (Strel'tsov & Zavodnik, 1989)
;
_computing_molecular_graphics
;
DIAMOND (Brandenburg, 2007)
;
_computing_publication_material
;
publCIF (Westrip, 2010)
;
_computing_structure_refinement
;
SHELXL2014 (Sheldrick, 2015)
;
_diffrn_ambient_temperature      295(2)
_diffrn_measured_fraction_theta_full 1.000
_diffrn_measured_fraction_theta_max 1.000
_diffrn_measurement_device_type  'Nonius CAD-4'
_diffrn_measurement_method       'profile data from omega scans'
_diffrn_radiation_type           MoK\a
_diffrn_radiation_wavelength     0.71073
_diffrn_reflns_av_R_equivalents  0.0550
_diffrn_reflns_limit_h_max       8
_diffrn_reflns_limit_h_min       -8
_diffrn_reflns_limit_k_max       8
_diffrn_reflns_limit_k_min       -8
_diffrn_reflns_limit_l_max       8
_diffrn_reflns_limit_l_min       0
_diffrn_reflns_number            1152
_diffrn_reflns_theta_full        25.242
_diffrn_reflns_theta_max         44.809
_diffrn_reflns_theta_min         5.054
_diffrn_standards_decay_%        0
_diffrn_standards_interval_time  120
_diffrn_standards_number         2
_exptl_absorpt_coefficient_mu    88.688
_exptl_absorpt_correction_T_max  0.268
_exptl_absorpt_correction_T_min  0.108
_exptl_absorpt_correction_type   empirical
_exptl_absorpt_process_details
;
[psi-scan (North <i>et al.</i>, 1968) followed by multiscan (Blessing,
1995)]
;
_exptl_crystal_colour            black
_exptl_crystal_density_diffrn    13.787
_exptl_crystal_density_method    'not measured'
_exptl_crystal_description       'irregular block'
_exptl_crystal_F_000             227
_exptl_crystal_size_max          0.045
_exptl_crystal_size_mid          0.040
_exptl_crystal_size_min          0.035
_refine_diff_density_max         2.069
_refine_diff_density_min         -1.382
_refine_ls_extinction_coef       0.016(5)
_refine_ls_extinction_expression Fc^*^=kFc[1+0.001xFc^2^\l^3^/sin(2\q)]^-1/4^
_refine_ls_extinction_method
;
SHELXL2014 (Sheldrick, 2015)
;
_refine_ls_goodness_of_fit_ref   1.092
_refine_ls_hydrogen_treatment    undef
_refine_ls_matrix_type           full
_refine_ls_number_parameters     7
_refine_ls_number_reflns         79
_refine_ls_number_restraints     1
_refine_ls_restrained_S_all      1.085
_refine_ls_R_factor_all          0.0223
_refine_ls_R_factor_gt           0.0218
_refine_ls_shift/su_max          0.000
_refine_ls_shift/su_mean         0.000
_refine_ls_structure_factor_coef Fsqd
_refine_ls_weighting_details
'w=1/[\s^2^(Fo^2^)+(0.0407P)^2^] where P=(Fo^2^+2Fc^2^)/3'
_refine_ls_weighting_scheme      calc
_refine_ls_wR_factor_gt          0.0724
_refine_ls_wR_factor_ref         0.0726
_reflns_number_gt                74
_reflns_number_total             79
_reflns_threshold_expression     'I > 2\s(I)'
_cod_data_source_file            qp3003sup1.cif
_cod_data_source_block           1B
_cod_original_cell_volume        65.65(3)
_cod_database_code               2021013
_shelx_space_group_comment
;
The symmetry employed for this shelxl refinement is uniquely defined
by the following loop, which should always be used as a source of
symmetry information in preference to the above space-group names.
They are only intended as comments.
;
_shelx_hkl_file
;
  -1   0   0  879.15   86.43
   1   0   0  978.78   89.99
   0   1   0  926.78   94.78
   0   0   1  947.42   83.02
   0  -1   0  918.03   93.22
   2   0   091317.45 2677.68
   0   2   090106.87 2508.23
   0   0   282457.50 2562.81
   0  -2   081515.31 2202.50
  -2   0   081640.40 2332.71
   0   3   0  427.95   91.44
   0  -3   0  221.11   82.45
   3   0   0  297.82   75.41
  -3   0   0  321.17   67.86
   0   0   3  371.47   64.50
   0  -4   032627.96  988.89
   0   0   431904.92  948.50
  -4   0   033745.89 1041.04
   0   4   035701.87 1160.43
   4   0   035277.80 1162.42
   0   5   0  100.00   82.09
  -5   0   0   87.47   63.26
   5   0   0  103.41   62.74
   0   0   5   92.58   53.82
   0  -5   0   47.74   84.99
   6   0   0 9211.52  430.18
  -6   0   0 9482.84  404.89
   0   0   6 9499.43  373.94
   0  -6   0 8909.25  449.30
   0   6   010072.85  498.52
   0   0   7   50.05   47.67
   0  -7   0    7.20   63.97
  -7   0   0   25.13   45.80
   0   7   0   36.75   61.89
   7   0   0   20.10   42.04
   0  -8   0 1577.38  198.14
   0   8   0 1833.85  223.21
  -8   0   0 1732.25  122.14
   8   0   0 1586.53  111.19
   0   0   8 1765.05  120.75
  -1   1   0  782.40   80.23
  -1   0   1  796.84   75.28
   1  -1   0  735.04   80.09
   0  -1   1  752.42   74.18
   1   1   0  715.97   86.28
   1   0   1  786.61   94.86
   0   1   1  964.37   89.51
  -1  -1   0  655.43   91.86
   1   2   0  432.53   93.34
   0  -1   2  575.64   68.89
  -2   0   1  499.01   70.43
  -2   1   0  548.59   84.44
  -1   2   0  425.31   78.64
   0  -2   1  468.58   76.58
  -1  -2   0  410.03   78.13
  -1   0   2  495.53   61.51
   2  -1   0  668.25   80.48
   2   0   1  545.97   84.84
   2   1   0  514.16   84.74
   0   2   1  453.11   86.59
   1   0   2  416.01   74.82
  -2  -1   0  452.26   79.64
   1  -2   0  494.25   75.84
   0   1   2  526.06   70.45
  -3   0   1  329.79   72.88
   1   0   3  406.91   71.44
  -3   1   0  402.03   83.08
   0   3   1  351.94   94.02
  -1   0   3  406.46   61.65
  -1   3   0  260.82   96.22
  -3  -1   0  491.48   73.86
   0   1   3  329.84   62.56
   0  -3   1  365.16   78.80
   3   0   1  357.99   76.68
  -1  -3   0  232.31   91.54
   3   1   0  388.61   76.71
   3  -1   0  432.40   91.82
   0  -1   3  481.37   65.15
   1   3   0  354.07  100.60
   1  -3   0  391.86   92.59
  -1   0   4  293.66   65.84
   4  -1   0  282.81   79.33
  -1  -4   0  176.12   90.10
   1  -4   0  248.67   89.92
  -1   4   0  266.00   83.52
   1   0   4  143.02   76.77
  -4   0   1  231.15   70.00
   0   1   4  358.92   61.03
   1   4   0  227.16   85.21
   0  -4   1  281.21   79.30
   4   0   1  218.58   78.69
  -4   1   0  164.69   75.77
   0   4   1  355.95   86.34
   4   1   0  246.92   71.62
   0  -1   4  170.12   72.08
  -4  -1   0  243.37   62.59
  -5   1   0  288.08   69.25
   5   1   0  208.40   64.75
  -1  -5   0  242.92   79.80
   1  -5   0  270.20   77.01
   1   0   5  229.40   69.48
   0   1   5  138.98   72.94
  -5  -1   0  240.98   68.35
   0   5   1  196.84   83.67
  -5   0   1  213.08   68.22
   0  -1   5  178.00   59.13
   5  -1   0   85.09   73.81
   1   5   0  305.85   92.64
   0  -5   1   53.15   99.46
   5   0   1  239.65   69.83
  -1   0   5  205.09   56.23
  -1   5   0  163.76   86.08
   0  -6   1  132.81   85.53
   1   6   0  184.41   72.28
  -1  -6   0  100.92   80.58
  -6  -1   0   98.00   63.14
  -6   1   0  119.57   59.32
  -1   6   0  247.44   79.62
   6   0   1  112.17   54.56
  -1   0   6  128.09   48.07
   6  -1   0  101.59   56.48
   1  -6   0  170.12   70.43
  -6   0   1   31.55   59.53
   6   1   0  118.37   62.74
   1   0   6  197.10   70.66
   0   6   1   25.31   86.46
   0  -1   6  140.43   60.56
   0   1   6  131.37   51.87
   0   7   1   14.28   66.20
   1   7   0   93.89   60.74
  -1   7   0  135.90   56.70
   1   0   7   75.45   56.92
   0  -1   7   70.41   56.21
   7  -1   0   86.13   40.76
   1  -7   0   24.71   59.91
  -7   1   0  -23.93   48.59
   0   1   7  136.57   43.43
   7   1   0   61.74   50.46
  -1  -7   0   78.24   65.55
  -7   0   1   16.67   44.11
  -1   0   7   58.91   51.39
  -7  -1   0    5.15   49.10
   7   0   1   48.94   34.12
   0  -7   1  141.32   55.66
   2   2   064168.67 1920.72
  -2   0   262148.33 1863.98
   0   2   263650.72 1776.33
   2  -2   054305.31 1560.06
  -2  -2   053204.28 1507.42
   2   0   263990.29 1807.66
  -2   2   057491.79 1509.46
   0  -2   261403.64 1791.56
   3  -2   0  161.73   87.49
  -2   3   0  218.36   73.57
  -3   0   2  202.99   74.66
  -3  -2   0  279.84   73.14
   3   2   0  246.53   83.57
   0  -3   2  185.96   85.37
  -2   0   3  308.85   61.95
  -3   2   0  381.13   81.58
   2   0   3  280.23   84.13
  -2  -3   0  213.54   85.30
   0   3   2  233.00   84.51
   2  -3   0  278.51   84.26
   3   0   2  201.25   75.68
   0  -2   3  178.44   67.84
   2   3   0  358.35   97.49
   0   2   3  409.11   71.57
   2   0   422203.22  734.22
   4  -2   025445.10  891.21
   0  -2   424488.37  830.77
   0   4   223497.00  844.07
   4   2   026545.98  846.61
   0   2   421995.33  729.19
  -2   0   423693.80  745.30
  -4   0   223372.25  737.48
  -2   4   023543.31  866.32
  -4   2   026008.74  969.30
  -4  -2   022737.79  700.77
   2   4   027059.29  871.56
  -2  -4   022194.35  734.66
   4   0   221882.51  755.99
   2  -4   025472.22  989.24
   0  -4   221678.26  801.90
   5   2   0   94.19   68.65
   0   2   5  148.75   56.93
   0   5   2  108.32   79.36
  -5   2   0  106.39   75.89
  -2  -5   0  131.80   79.47
   0  -5   2   41.51   80.93
  -5   0   2   61.06   61.09
   5  -2   0   73.12   64.84
  -2   5   0   57.53   77.50
  -5  -2   0   13.45   70.56
   5   0   2   92.91   61.61
  -2   0   5   70.50   55.77
   2  -5   0   93.49   70.94
   0  -2   5   70.68   64.04
   2   5   0  111.26   93.69
   2   0   5  190.55   63.76
   0  -2   6 7132.51  328.37
   2  -6   0 7116.62  438.09
   6  -2   0 7204.35  350.40
   0   2   6 7293.55  287.73
   0  -6   2 7167.04  394.63
  -6   2   0 7968.08  381.02
   6   0   2 7147.89  334.90
   2   0   6 6634.47  314.05
  -2  -6   0 7173.65  362.45
  -2   0   6 7571.78  310.44
  -2   6   0 7123.16  443.08
   6   2   0 7192.31  341.84
   0   6   2 6375.19  356.11
  -6   0   2 6891.43  326.87
  -6  -2   0 7672.06  329.35
   2   6   0 7348.84  369.39
  -2  -7   0   71.55   56.84
   7   2   0   57.65   36.89
   7   0   2    9.13   30.27
   0   2   7   55.37   42.20
   0   7   2   42.80   52.46
   0  -7   2   37.82   68.94
  -7   0   2    5.19   42.44
  -2   7   0  -35.51   51.08
  -7  -2   0   30.89   39.90
   2   0   7   18.37   50.87
   0  -2   7    6.30   56.03
   2   7   0   -7.95   75.00
   7  -2   0  -17.67   47.60
  -2   0   7   21.63   43.27
  -7   2   0    8.84   42.39
   2  -7   0  -55.80   51.74
   3   3   0  262.64   77.92
  -3  -3   0  305.22   82.86
   3  -3   0  230.59   79.70
   3   0   3  236.07   82.99
   0  -3   3  246.29   75.41
  -3   0   3  241.27   59.12
   0   3   3  297.89   66.42
  -3   3   0  265.53   77.63
   3   0   4  111.97   72.13
  -3   0   4  125.71   55.52
  -3  -4   0   50.29   74.04
   0   4   3   71.18   59.95
   4   0   3  162.01   70.96
  -4   0   3  138.75   70.35
   0  -4   3  109.81   77.22
   3   4   0   58.67   82.57
   0  -3   4   34.97   68.18
   0   3   4  206.26   57.20
   3  -4   0   91.21   82.80
  -4   3   0  185.62   68.75
  -3   4   0  154.36   76.46
   4  -3   0  257.01   78.66
  -4  -3   0  229.75   68.59
   4   3   0  229.81   70.97
   5   0   3  179.01   62.11
   5  -3   0  191.29   70.47
  -5   0   3  138.85   55.09
   0   3   5  177.53   52.50
  -3  -5   0  107.71   76.22
  -5  -3   0  119.84   61.94
   3   0   5  -27.74   68.67
  -3   5   0  139.06   73.29
   0  -5   3  195.29   77.50
   5   3   0  126.90   57.37
  -5   3   0  -26.39   69.20
   3  -5   0  111.25   69.77
   0  -3   5  116.34   72.80
   3   5   0  107.71   90.70
  -3   0   5  155.65   48.11
   0   5   3   88.23   80.66
  -3   6   0   54.44   73.39
  -6   3   0   87.30   53.05
   6  -3   0   65.46   50.09
  -3   0   6   61.34   47.02
   0  -6   3   83.46   75.66
   3  -6   0   13.61   78.78
   0   3   6   91.78   53.08
   6   3   0   62.64   54.63
   0   6   3  103.54   70.90
  -3  -6   0  158.40   83.61
   0  -3   6  146.70   52.95
   3   0   6   65.27   56.94
   3   6   0  123.20   78.79
   6   0   3   33.78   53.42
  -6   0   3   36.86   63.85
  -6  -3   0    6.26   55.68
   7   3   0   65.01   42.77
  -7   3   0   94.84   36.79
  -3   0   7   53.88   39.52
   0  -3   7  -23.78   55.13
   7   0   3   50.14   41.00
   3  -7   0   25.30   53.86
   7  -3   0   47.42   38.85
   0  -7   3   51.35   76.66
   0   3   7   25.63   39.38
  -3  -7   0   82.83   51.71
   0   7   3  -61.45   65.91
  -7  -3   0   55.02   43.93
  -7   0   3   53.11   38.97
   3   7   0   37.65   63.46
   3   0   7   33.18   46.94
  -3   7   0   91.10   53.45
   0   4   4 9957.44  432.47
  -4  -4   010571.47  423.53
   0  -4   411529.71  509.47
  -4   0   410556.21  423.43
   4   4   012374.23  537.25
  -4   4   012927.78  619.78
   4  -4   011364.92  475.95
   4   0   410131.64  443.36
   0  -5   4    7.91   75.50
   5  -4   0   57.44   67.73
  -5  -4   0   65.73   55.17
  -5   0   4  102.97   53.65
   5   0   4  144.43   50.86
   0   4   5   60.68   53.55
  -4  -5   0  166.19   65.60
   4   5   0   51.87   86.38
  -5   4   0   49.65   65.13
  -4   0   5   74.80   49.22
  -4   5   0   51.43   67.49
   0   5   4   72.27   53.25
   0  -4   5  133.06   79.07
   4  -5   0  105.72   62.78
   4   0   5   64.94   64.98
   5   4   0  102.26   60.30
   0  -6   4 3760.65  258.34
   6  -4   0 3336.89  271.71
   0  -4   6 3684.82  224.07
   6   0   4 3902.77  177.83
  -6  -4   0 3843.91  197.76
  -6   4   0 4061.41  322.11
  -4  -6   0 4193.09  229.17
   6   4   0 4458.73  214.66
   0   4   6 2959.92  181.91
   0   6   4 3144.83  210.56
   4   6   0 3974.01  251.29
  -4   0   6 3468.76  185.89
  -6   0   4 3389.07  196.62
  -4   6   0 3797.17  340.77
   4   0   6 2809.33  186.42
   4  -6   0 3303.93  299.03
   5   0   5  100.73   56.63
   0  -5   5    0.00   66.50
  -5  -5   0  108.10   64.94
   5   5   0  122.52   60.83
   0   5   5   60.51   58.26
  -5   0   5    8.77   44.70
  -5   5   0  -37.84   56.00
   5  -5   0   59.47   51.21
   5   6   0   97.94   49.38
   5   0   6  -88.37   44.00
   6   5   0   80.15   53.15
   5  -6   0   66.50   40.80
   6  -5   0    8.26   36.94
   6   0   5   21.43   34.57
  -5  -6   0   84.87   55.84
   0  -5   6  -30.33   57.88
   0   5   6  -27.84   45.58
  -6   5   0  -20.64   44.35
   0   6   5   49.55   41.13
   0  -6   5   39.70   53.79
  -6  -5   0   17.17   49.58
  -6   0   5    4.66   38.11
  -5   6   0   48.77   46.29
  -5   0   6   50.89   37.34
   1   1   193370.93 2665.88
   1  -1   192449.48 2609.39
  -1  -1   192716.60 2766.39
  -1   1   198999.00 2843.98
   1   2   1  419.43   84.79
   1  -2   1  366.20   67.95
  -2   1   1  406.86   73.74
   2  -1   1  463.63   82.86
   2   1   1  535.60   74.36
   1   1   2  421.57   75.60
  -1  -2   1  504.10   74.14
  -1   2   1  341.35   71.85
  -1   1   2  465.29   66.59
  -2  -1   1  475.28   70.21
  -1  -1   2  422.85   70.04
   1  -1   2  383.16   76.37
  -3  -1   143295.45 1197.26
  -1  -3   145807.88 1358.51
   1   3   141627.55 1213.76
   1   1   346473.45 1295.06
   1  -1   344733.57 1322.39
   1  -3   144119.76 1451.66
  -1   3   146250.63 1414.04
   3   1   141860.59 1145.49
   3  -1   141936.65 1255.20
  -1   1   344105.68 1284.74
  -3   1   143637.61 1315.70
  -1  -1   346125.06 1359.59
  -4   1   1  193.57   67.71
   1   4   1  187.77   91.70
   1   1   4   71.34   67.32
   1  -1   4  248.14   70.94
   1  -4   1   57.04   72.21
  -4  -1   1  157.18   69.92
   4  -1   1  234.11   62.37
   4   1   1   67.31   70.57
  -1  -1   4  189.47   62.28
  -1   4   1  134.08   81.71
  -1   1   4  237.86   55.58
  -1  -4   1  145.32   77.68
   5   1   115169.36  552.18
   5  -1   115929.53  615.50
  -1  -1   515202.52  548.45
   1  -5   114862.81  661.70
   1   5   113963.35  567.93
   1   1   513748.65  493.19
   1  -1   514412.84  560.97
  -5   1   115941.21  607.16
  -1   5   115037.57  678.69
  -1   1   515179.61  547.70
  -5  -1   114279.10  536.26
  -1  -5   115586.52  616.54
   6  -1   1   40.48   55.19
   6   1   1   42.14   59.30
   1   6   1  -18.19   82.37
   1   1   6   40.45   57.21
   1  -1   6   64.95   54.53
   1  -6   1  176.11   73.02
  -6  -1   1    6.31   51.63
  -1   1   6   24.95   44.99
  -1   6   1  136.59   72.22
  -1  -6   1   99.86   85.71
  -1  -1   6   59.09   59.12
  -6   1   1   25.00   67.90
  -1  -7   1 3656.49  244.91
  -1   1   7 3651.73  190.96
  -7  -1   1 3641.44  197.35
   7   1   1 3927.12  207.90
   1   7   1 3857.01  250.65
   1   1   7 3239.12  185.37
  -7   1   1 3822.31  217.42
   1  -1   7 3616.78  214.35
   1  -7   1 3290.22  280.08
  -1   7   1 3443.45  279.49
   7  -1   1 3666.14  220.60
  -1  -1   7 4255.78  214.26
  -2  -2   1  448.56   71.01
  -2  -1   2  397.47   64.56
   2   1   2  395.55   84.73
  -2   1   2  419.34   65.81
   2  -2   1  470.26   91.05
  -2   2   1  360.95   77.86
   2  -1   2  470.46   86.30
   2   2   1  324.07   92.77
   1  -2   2  297.44   76.50
  -1   2   2  422.47   65.53
   1   2   2  505.92   76.89
  -1  -2   2  419.76   66.97
  -1  -3   2  312.16   73.80
  -3   2   1  214.67   81.29
  -3  -1   2  170.32   68.10
  -3  -2   1  340.15   68.90
   3  -2   1  245.82   89.29
   1   3   2  369.07   78.21
   1   2   3  290.83   70.98
  -2  -3   1  205.13   78.03
   1  -2   3  310.58   71.26
  -2  -1   3  203.96   63.04
  -2   1   3  247.87   58.94
   2  -3   1  398.71   86.18
   2  -1   3  330.52   85.76
  -2   3   1  186.06   76.85
   2   1   3  166.01   75.76
  -1  -2   3  237.05   69.10
   2   3   1  229.47   81.91
   3   1   2  325.92   87.73
   3   2   1  211.91   86.30
  -3   1   2  179.71   74.95
  -1   3   2  275.09   73.27
  -1   2   3  383.55   61.26
   1  -3   2  299.03   75.75
   3  -1   2  149.27   73.55
   2  -4   1  237.14   74.64
   4  -1   2   79.88   76.28
   1  -4   2  295.87   80.29
   1   4   2   72.85   86.92
   1   2   4  138.85   69.48
  -2  -4   1  209.32   75.35
  -4  -2   1  267.76   60.94
   1  -2   4  260.38   74.46
  -4  -1   2  162.34   65.43
  -2   1   4  201.73   54.57
  -4   1   2  248.38   62.78
   2  -1   4  301.11   76.28
  -4   2   1   73.93   81.15
  -2   4   1  207.34   70.13
   2   4   1  179.71   89.97
   2   1   4  257.87   69.66
  -1  -2   4  279.83   59.72
  -1   4   2   61.43   84.82
  -1   2   4  243.02   65.15
  -2  -1   4  135.96   58.44
   4  -2   1  209.13   78.17
   4   1   2  238.46   64.41
   4   2   1  268.25   77.95
  -1  -4   2  240.08   71.73
   1  -5   2   95.57   75.64
   5   1   2  128.46   64.61
   1   5   2  193.37   67.75
   1   2   5  140.06   53.08
  -2  -5   1   98.45   92.63
   1  -2   5   95.06   72.08
  -2  -1   5  228.06   57.92
   2  -5   1  340.15   83.83
  -2   1   5  159.00   57.01
   2  -1   5  107.47   77.57
   2   1   5  124.39   58.74
  -5   2   1  211.00   63.13
   5   2   1  211.83   56.23
   5  -1   2  104.66   63.52
  -2   5   1   89.80   84.07
   2   5   1  159.51   94.40
  -1  -2   5   79.51   70.79
  -5  -2   1  135.06   64.88
  -5   1   2   94.83   70.62
  -1   5   2  101.78   79.54
  -1   2   5   84.85   53.12
   5  -2   1  175.32   60.89
  -5  -1   2  148.23   61.18
  -1  -5   2  119.55   82.00
   6   2   1  116.47   54.61
  -6   2   1  108.24   55.27
   6  -1   2   91.02   47.73
   1   6   2   53.11   78.19
  -6  -2   1   81.97   49.31
  -2  -6   1   45.04   82.08
   1   2   6   96.42   62.05
   1  -2   6  114.88   71.89
  -2  -1   6   60.74   52.98
   1  -6   2   49.49   80.85
   2  -6   1   61.73   76.45
  -2   1   6   76.16   43.51
  -6  -1   2   95.57   57.43
   6   1   2   65.46   58.04
   2  -1   6  126.25   62.08
   2   1   6    6.70   59.52
   6  -2   1   85.33   50.74
  -2   6   1  122.23   68.12
   2   6   1  129.68   76.49
  -1   6   2   30.95   84.07
  -1  -6   2  185.29   70.35
  -1   2   6   87.72   52.12
  -6   1   2   69.45   59.61
  -1  -2   6   87.03   61.78
  -1  -7   2   92.53   65.56
   7   1   2   60.73   39.97
   7  -1   2   95.88   33.55
   1   7   2   85.64   58.79
  -7  -1   2   52.21   45.56
  -2  -7   1  -63.78   75.48
   7   2   1   39.65   44.35
   1   2   7  -55.83   49.96
   1  -2   7   81.12   57.59
  -2  -1   7   77.43   53.09
   1  -7   2  136.49   64.59
   2  -7   1   29.62   55.95
  -7   1   2  103.52   42.90
  -2   1   7   57.43   47.60
  -7  -2   1   67.89   48.20
   2  -1   7   24.45   57.34
   2   1   7    0.00   45.30
   2   7   1   59.34   71.53
  -2   7   1  -34.45   58.06
  -1   7   2   91.23   64.75
  -1   2   7   12.77   41.04
  -7   2   1   54.19   38.42
   7  -2   1   34.23   41.09
  -1  -2   7   84.34   51.89
   3  -3   125559.78  963.26
  -3  -3   122877.71  744.67
  -3   1   324969.43  840.64
  -3  -1   323495.03  722.32
   1   3   324755.66  810.57
   1  -3   324675.37  914.37
   3   1   325030.35  793.88
   3   3   123007.53  737.65
   3  -1   325700.89  873.94
  -1   3   324551.64  867.19
  -3   3   123666.46  931.34
  -1  -3   323227.74  795.49
   3   4   1  185.36   75.29
  -3   1   4   68.95   52.70
  -3  -1   4  175.41   47.73
   3   1   4   28.27   72.76
  -3  -4   1  120.70   69.76
   1   4   3  125.84   60.01
   1   3   4   83.51   74.34
  -4  -3   1  173.40   63.98
   1  -3   4   21.58   69.38
  -4  -1   3  127.45   59.20
   1  -4   3   22.10   68.73
  -4   1   3  107.33   51.01
  -4   3   1   20.51   77.64
  -1   4   3  127.38   75.67
   3  -1   4  131.38   68.22
  -1   3   4  122.19   65.39
   3  -4   1  198.78   73.50
   4  -3   1   35.23   80.65
   4  -1   3  241.37   63.29
  -3   4   1   52.75   72.86
   4   1   3   93.42   75.07
   4   3   1  107.67   73.20
  -1  -3   4   33.60   71.45
  -1  -4   3   95.54   76.79
   5   1   3 8571.61  376.67
   5  -1   3 8225.07  386.62
   5  -3   1 9467.60  470.10
  -3   1   5 9742.03  416.38
  -3  -1   5 9195.30  362.55
  -3  -5   1 8632.83  378.41
   1   5   3 8970.70  406.53
   1   3   5 8602.65  335.90
   1  -3   5 8930.43  405.89
   1  -5   3 8543.99  455.23
  -5   3   110148.92  479.46
   5   3   1 9386.33  409.59
  -5   1   3 9215.41  433.57
   3   5   1 8826.59  398.46
  -1   5   3 8433.16  414.44
   3   1   5 8644.00  373.44
   3  -1   5 8444.56  383.38
  -1   3   5 8311.04  374.84
   3  -5   1 9923.30  554.65
  -3   5   1 8796.95  477.58
  -5  -3   1 8271.35  339.16
  -5  -1   3 8578.75  361.72
  -1  -3   5 9769.04  414.74
  -1  -5   3 9304.73  435.12
  -1  -6   3   33.79   81.92
  -3   1   6    5.51   52.59
   6  -3   1  -16.02   49.80
   6  -1   3    5.43   51.84
   6   1   3  -45.61   49.73
   6   3   1  -37.03   47.81
  -6   3   1  153.67   50.19
  -3  -1   6   73.71   46.46
  -6  -3   1  100.44   42.66
  -3  -6   1   34.26   83.06
   1   6   3  -49.97   81.61
   1   3   6   43.15   43.17
   1  -3   6   34.40   57.99
   1  -6   3   91.67   76.37
  -6  -1   3    0.00   47.31
   3   1   6   19.13   45.55
   3   6   1   97.33   64.48
  -1   6   3   90.47   69.21
   3  -1   6  109.18   49.46
  -1   3   6  107.33   52.79
  -3   6   1   55.63   66.79
   3  -6   1   59.03   71.12
  -6   1   3   23.97   52.25
  -1  -3   6   74.19   51.86
  -1  -7   3 2440.11  196.11
  -3   1   7 2579.04  146.30
   7   3   1 2867.58  154.41
  -3  -1   7 2588.21  143.75
   7   1   3 2404.29  142.55
   1   7   3 2197.92  170.23
  -3  -7   1 2648.19  186.52
   7  -3   1 2260.36  198.43
  -7  -1   3 2572.28  154.97
   1   3   7 2051.69  131.64
   1  -3   7 2449.91  164.36
   1  -7   3 2516.72  259.47
  -7   1   3 2415.02  157.32
   3   7   1 2700.58  193.37
  -7   3   1 2492.05  200.47
  -1   7   3 2540.05  208.12
  -7  -3   1 2253.79  134.91
   3   1   7 2172.46  143.23
   3  -1   7 2069.05  144.19
  -3   7   1 2508.22  291.94
  -1   3   7 2168.42  138.93
   3  -7   1 2152.94  245.81
  -1  -3   7 2797.48  167.29
   7  -1   3 2122.42  158.23
  -4  -4   1  111.49   74.53
   1   4   4  106.71   73.33
  -4  -1   4  114.75   52.00
   1  -4   4  129.67   67.87
  -4   1   4  106.83   58.76
   4   1   4  -10.95   75.54
  -4   4   1  141.38   63.26
  -1   4   4  218.80   56.99
   4  -4   1   86.56   67.93
   4  -1   4  137.03   65.98
   4   4   1    2.19   82.35
  -1  -4   4   51.61   62.07
   5   1   4   -6.35   65.69
   5  -1   4   36.15   57.18
  -1  -5   4  127.46   63.89
   5  -4   1   24.50   68.22
  -5  -4   1  -28.80   73.42
  -4  -5   1   72.92   64.34
   1   5   4  116.29   52.13
   1   4   5   68.44   59.70
  -5   4   1   -5.95   56.17
  -4  -1   5  104.80   47.39
   1  -4   5   72.76   58.86
   1  -5   4  114.16   66.10
   4   5   1  100.56   74.06
  -4   1   5   36.57   43.86
  -5   1   4   66.66   51.11
  -1   5   4  145.29   60.15
  -4   5   1   91.54   53.08
  -1   4   5    2.78   65.61
   4  -5   1   70.95   64.96
  -5  -1   4   24.65   59.74
   4  -1   5  125.20   54.03
   4   1   5   71.56   52.50
  -1  -4   5    0.00   77.79
   5   4   1   65.90   60.85
  -1  -6   4   23.86   61.39
   6  -4   1  113.43   54.47
   6  -1   4  111.62   46.06
   6   1   4   20.55   44.79
   6   4   1  114.36   51.53
  -4  -6   1   15.37   73.73
  -6   4   1  107.34   47.46
   1   6   4   37.27   62.82
   1   4   6   47.34   46.62
  -4  -1   6   52.56   47.62
   1  -4   6   69.61   53.41
   1  -6   4   31.39   71.91
  -6  -1   4  -16.46   49.38
  -4   1   6  -30.80   51.85
  -1   6   4    0.00   65.51
  -1   4   6   34.66   51.03
  -4   6   1  136.02   49.36
  -6   1   4  -10.69   48.40
   4  -6   1   65.88   57.35
   4  -1   6  -33.07   58.85
   4   1   6   28.49   53.76
  -1  -4   6  105.84   57.78
  -6  -4   1   61.09   44.09
   4   6   1   15.71   80.08
  -1  -5   5 4302.85  254.28
   5   1   5 3301.81  196.90
   5  -1   5 3069.93  192.81
   5  -5   1 3878.45  356.41
  -5  -5   1 3595.42  206.18
   1   5   5 3077.27  191.20
  -5   5   1 3707.67  319.57
   1  -5   5 4008.36  267.48
  -5   1   5 3918.23  208.02
  -1   5   5 3402.43  206.66
  -5  -1   5 3653.73  192.50
   5   5   1 4348.46  234.06
   5   1   6   27.87   39.42
   5  -1   6   -8.73   36.51
   5  -6   1   84.89   48.77
   6  -5   1   26.69   42.35
   6  -1   5  -40.27   38.69
   6   1   5  -56.11   40.77
   6   5   1   72.21   38.95
  -5  -6   1  -32.01   50.01
  -6   5   1    7.48   37.04
  -5   6   1   79.09   43.52
   1   6   5   25.05   47.27
   1   5   6  -11.10   46.42
  -6  -1   5    4.63   39.60
   1  -5   6  -33.49   47.40
   1  -6   5   42.93   54.58
  -1  -5   6  104.69   52.07
  -1   6   5  -17.65   52.95
  -5   1   6    0.00   35.07
  -1   5   6   69.94   37.76
  -6   1   5   27.06   38.29
  -6  -5   1   28.31   49.70
  -5  -1   6   37.04   28.56
  -1  -6   5  -53.59   60.71
   5   6   1   -6.40   53.95
  -2  -2   239035.30 1167.26
   2  -2   240448.22 1301.39
  -2   2   242014.19 1356.90
   2   2   242964.80 1212.61
  -3   2   2  140.70   77.98
  -3  -2   2  240.34   63.94
  -2  -3   2  179.11   69.61
  -2  -2   3  234.85   55.83
   2  -3   2  182.39   70.47
   2  -2   3  230.71   66.35
  -2   2   3  133.74   64.61
  -2   3   2  198.11   63.59
   2   2   3  272.12   68.08
   2   3   2  219.53   83.11
   3   2   2  136.28   72.98
   3  -2   2  225.24   71.17
  -2  -4   216969.40  640.05
  -4  -2   216105.03  555.39
  -2  -2   417529.64  621.88
   2  -4   217356.95  787.31
   2  -2   417401.07  671.01
  -2   2   418348.52  692.66
  -4   2   216426.53  642.10
   2   2   417374.38  591.19
  -2   4   216699.08  699.19
   2   4   215082.32  576.13
   4  -2   218605.61  733.19
   4   2   216559.78  566.63
   5   2   2   48.55   63.96
   5  -2   2  128.13   65.52
  -2  -5   2   17.19   73.93
  -2  -2   5  125.67   56.33
   2  -5   2    3.56   71.30
   2  -2   5   85.62   69.97
  -2   2   5  126.36   40.59
  -5   2   2   73.87   63.40
   2   2   5   20.45   65.73
  -2   5   2   90.00   77.77
   2   5   2   46.98   86.28
  -5  -2   2   81.41   52.60
  -6   2   2 5243.79  326.28
   6  -2   2 5634.18  323.85
   6   2   2 5830.14  271.00
  -2  -6   2 5107.08  303.41
  -6  -2   2 4823.69  242.52
  -2  -2   6 5843.56  272.83
   2  -6   2 5245.94  376.63
   2  -2   6 5413.41  282.63
  -2   2   6 5522.28  273.34
   2   2   6 5749.97  242.13
  -2   6   2 5522.00  356.00
   2   6   2 5007.56  280.09
   7   2   2  -69.67   46.28
   7  -2   2   94.40   33.63
  -2  -7   2   97.96   58.99
  -2  -2   7  111.20   39.46
  -7  -2   2    5.09   37.76
   2  -7   2   20.00   60.02
   2  -2   7  120.70   47.94
  -2   2   7   54.80   42.02
   2   2   7  -21.62   46.49
   2   7   2  -46.31   56.75
  -2   7   2   18.26   58.72
  -7   2   2   -4.42   40.24
  -3   2   3  127.94   60.14
  -3  -2   3  237.78   70.14
  -3  -3   2  164.64   63.57
  -2  -3   3   59.55   64.85
   2  -3   3  262.56   56.55
  -2   3   3  125.24   67.32
   2   3   3  161.74   73.85
   3   3   2  124.04   84.90
   3   2   3  184.72   71.79
   3  -2   3  188.64   77.19
   3  -3   2  194.69   69.82
  -3   3   2  243.53   49.54
  -3  -2   4  146.02   51.88
  -3  -4   2  188.92   71.07
  -4  -3   2   88.31   69.42
  -2  -4   3  144.84   61.00
  -4  -2   3  115.42   55.20
  -2  -3   4   29.93   66.11
   2  -4   3   66.18   75.67
   2  -3   4  114.70   65.21
  -2   3   4  154.13   59.32
  -4   2   3   47.79   67.27
  -2   4   3   60.10   79.95
   2   3   4   67.27   71.64
   2   4   3  183.10   82.17
  -4   3   2  156.96   63.03
   3   4   2  122.36   67.58
   3   2   4  153.81   61.98
   3  -2   4   57.08   74.00
   3  -4   2  165.93   76.66
   4  -3   2   49.74   72.57
   4  -2   3  142.89   65.95
  -3   4   2   98.55   56.95
   4   2   3   39.51   71.54
   4   3   2  166.05   69.91
  -3   2   4   92.60   52.85
   5   2   3   40.74   55.18
  -5  -3   2   71.95   47.33
   5  -2   3  141.15   54.15
   5  -3   2   24.56   66.71
  -3  -2   5   97.94   64.85
  -3  -5   2  117.41   72.23
  -2  -5   3  115.80   79.42
  -2  -3   5   13.38   66.21
  -5   3   2  101.94   63.01
   2  -5   3  139.12   60.31
   2  -3   5  -34.54   76.01
  -5   2   3   38.08   62.21
  -2   3   5   93.07   57.96
   2   3   5   88.54   60.59
  -2   5   3   29.27   55.25
   2   5   3   69.16   64.73
   3   5   2   62.76   85.54
   3   2   5   81.39   49.90
   3  -2   5   26.27   54.97
   3  -5   2   70.24   64.31
  -3   5   2   82.72   69.73
  -5  -2   3   66.12   66.15
  -3   2   5  187.14   44.24
   5   3   2   58.63   71.77
  -6   2   3  105.87   59.91
   6  -3   2   61.92   42.07
   6  -2   3   20.48   49.64
   6   2   3   62.09   47.60
  -6   3   2   79.31   45.96
   6   3   2   77.12   46.38
  -3  -2   6   11.59   57.36
  -6  -3   2   30.71   51.77
  -3  -6   2  106.81   57.61
  -2  -6   3  140.23   72.56
  -6  -2   3   77.60   53.10
  -2  -3   6    6.36   60.63
   2  -6   3  116.39   70.94
   2  -3   6   37.69   57.59
  -2   3   6   73.99   42.29
   2   3   6   84.78   56.21
   2   6   3   25.07   66.33
  -2   6   3  -21.24   66.06
   3   6   2  -42.77   76.04
   3   2   6  121.44   52.34
   3  -2   6    6.00   53.31
  -3   6   2   94.76   67.26
   3  -6   2   -6.57   66.05
  -3   2   6  -10.88   57.57
  -7   3   2   62.71   31.40
   7   3   2   22.24   30.51
   7   2   3    8.32   42.43
  -3  -2   7    0.00   49.07
   7  -2   3   37.49   34.05
   7  -3   2  108.39   37.38
  -3  -7   2  -48.88   63.65
  -7   2   3   40.60   39.43
  -2  -7   3  133.96   55.38
  -7  -2   3   84.26   32.54
  -2  -3   7   43.57   42.90
   2  -7   3   77.97   55.72
   2  -3   7  -40.61   42.51
  -2   3   7   70.26   42.23
   2   3   7   34.35   41.93
   2   7   3  -63.86   58.99
  -2   7   3  -11.58   56.15
   3   7   2   71.12   45.05
   3   2   7   54.47   38.07
  -7  -3   2   77.17   36.80
   3  -2   7   58.81   43.36
  -3   7   2   39.31   50.09
   3  -7   2   91.03   59.24
  -3   2   7   27.33   38.67
  -4  -4   2 7417.16  338.82
  -2  -4   4 8306.39  378.98
  -4  -2   4 8541.41  346.54
   2  -4   4 8433.02  432.54
  -4   2   4 8971.33  400.49
  -2   4   4 7977.54  381.15
   2   4   4 8151.36  370.48
  -4   4   2 8912.06  483.98
   4  -4   2 8939.49  496.34
   4  -2   4 8551.36  419.10
   4   2   4 7597.23  345.52
   4   4   2 8336.51  372.27
   5   2   4  100.37   54.77
   5  -2   4    0.00   47.15
   5  -4   2   73.80   52.52
  -5  -4   2    7.00   62.22
  -4  -5   2  109.27   72.45
  -2  -5   4   39.15   71.34
  -2  -4   5    0.00   62.31
  -4  -2   5  -29.70   50.77
  -5   4   2  106.33   60.26
   2  -5   4  -61.24   69.79
   2  -4   5  116.74   59.66
  -5   2   4   93.08   44.43
  -4   2   5   -5.65   51.44
  -2   4   5   18.94   58.90
  -2   5   4  106.74   54.04
   2   4   5   75.01   52.44
   2   5   4  124.49   62.36
  -4   5   2  -35.65   52.52
   4  -5   2   32.56   53.21
   4  -2   5  120.87   45.99
   4   2   5   44.53   54.38
  -5  -2   4   30.76   49.61
   4   5   2   27.29   75.99
   5   4   2   42.73   65.28
  -6  -4   2 2474.31  161.94
  -6   2   4 2927.17  187.45
   6  -4   2 2625.91  256.44
   6  -2   4 2337.62  183.74
   6   2   4 2839.19  162.05
   6   4   2 3431.47  178.73
  -4  -6   2 2853.80  181.57
  -6   4   2 3003.58  243.63
  -2  -6   4 2988.93  210.03
  -2  -4   6 3218.02  191.88
  -6  -2   4 2731.60  153.04
  -4  -2   6 2648.60  159.17
   2  -6   4 3029.45  289.25
   2  -4   6 2595.67  190.40
  -4   2   6 2711.78  166.81
  -2   4   6 2864.32  175.50
   2   4   6 2300.19  147.10
   2   6   4 2634.36  170.52
  -2   6   4 2268.44  184.44
  -4   6   2 3053.12  301.22
   4  -6   2 2859.86  329.50
   4  -2   6 2464.87  176.13
   4   2   6 2448.92  156.68
   4   6   2 2752.44  185.35
   5   2   5   54.28   43.46
   5  -2   5  -85.52   52.25
   5  -5   2   -5.05   56.43
  -5  -5   2  121.96   49.91
  -5   5   2   71.01   44.48
  -2  -5   5  113.03   59.23
   2  -5   5   53.24   39.81
  -5   2   5  102.88   40.67
  -2   5   5   73.19   51.85
   2   5   5   66.28   53.07
  -5  -2   5   87.06   45.59
   5   5   2  108.46   59.19
  -3  -3   312789.76  506.13
   3   3   313544.03  506.36
   3  -3   314425.74  669.69
  -3   3   314766.06  647.29
  -3  -3   4   53.61   62.16
  -3  -4   3  196.32   62.56
  -4  -3   3  125.15   63.83
  -4   3   3   24.84   62.10
   3   4   3  122.00   71.81
   3   3   4  110.64   71.20
   3  -3   4  108.53   58.34
   3  -4   3  112.55   57.57
   4  -3   3  167.32   51.98
  -3   4   3  110.37   63.45
   4   3   3  100.96   64.45
  -3   3   4   92.01   62.94
  -5  -3   3 5415.59  256.42
   5  -3   3 5877.37  356.89
  -3  -3   5 5488.99  280.28
  -3  -5   3 5675.56  294.15
  -5   3   3 5735.53  326.68
   3   5   3 4554.96  256.23
   3   3   5 4823.27  247.01
   3  -3   5 5124.94  310.93
   3  -5   3 5797.38  440.90
  -3   5   3 5820.31  345.66
  -3   3   5 5958.99  298.94
   5   3   3 5319.73  257.34
   6  -3   3   18.89   44.31
  -6   3   3   72.90   40.56
   6   3   3   21.73   45.47
  -6  -3   3    5.75   49.13
  -3  -3   6   23.53   42.42
  -3  -6   3   76.85   48.68
   3   6   3   31.28   59.56
   3   3   6  -90.99   50.93
   3  -3   6  -26.42   45.17
  -3   6   3    0.00   55.59
   3  -6   3   42.75   54.11
  -3   3   6  -21.14   45.48
  -3  -4   4  103.23   68.23
  -4  -4   3   24.62   65.40
  -4  -3   4   89.41   60.70
  -4   3   4   45.57   50.33
  -4   4   3  130.53   56.18
   3   4   4  100.20   71.36
   3  -4   4   21.86   58.72
   4  -4   3   -6.67   53.60
   4  -3   4   83.71   50.53
  -3   4   4  -21.65   67.89
   4   3   4   57.16   55.78
   4   4   3   56.25   70.66
   5   3   4   66.57   51.03
  -5  -3   4   55.02   50.80
   5  -3   4   44.13   42.54
   5  -4   3   60.18   57.77
  -5  -4   3   19.81   54.84
  -4  -5   3   29.38   66.52
  -3  -4   5   33.40   60.87
  -3  -5   4   59.33   58.43
  -4  -3   5   12.12   56.21
  -5   4   3   36.48   44.58
  -5   3   4   13.64   52.44
  -4   3   5   76.63   57.49
   3   5   4   73.72   59.02
   3   4   5  123.25   50.82
  -4   5   3   25.22   50.14
   3  -4   5   48.11   46.38
   3  -5   4   57.06   46.03
   4  -5   3  -44.12   54.52
  -3   5   4   87.16   55.84
   4  -3   5   55.19   44.14
  -3   4   5   87.58   44.23
   4   3   5  -12.20   57.23
   4   5   3   28.43   62.12
   5   4   3   26.26   57.24
  -6  -4   3   91.97   43.70
  -6   3   4   -8.59   38.89
   6  -4   3  -17.35   45.53
   6  -3   4   27.92   34.15
  -6  -3   4  -20.35   43.77
   6   3   4   37.32   36.75
   6   4   3   -5.03   42.42
  -4  -6   3  107.82   45.83
  -3  -4   6  -17.38   50.16
  -6   4   3   63.43   38.71
  -3  -6   4   16.39   63.43
  -4  -3   6   36.76   48.43
  -4   3   6   37.63   35.23
   3   6   4   -6.70   51.44
   3   4   6  -26.21   42.91
  -4   6   3   35.84   45.19
  -3   6   4   93.92   52.45
   3  -4   6   37.34   44.25
   3  -6   4   15.36   46.11
   4  -6   3   -9.03   51.48
   4  -3   6   40.11   32.85
  -3   4   6   89.19   47.16
   4   3   6   59.61   38.52
   4   6   3    6.70   61.79
   5   3   5 1848.89  133.11
  -5  -3   5 2345.55  148.88
   5  -3   5 1952.07  180.31
   5  -5   3 2341.00  297.58
  -5  -5   3 2008.64  154.24
  -3  -5   5 2439.17  172.90
  -5   5   3 2456.91  230.01
  -5   3   5 2537.36  171.62
   3   5   5 1801.89  136.81
   3  -5   5 1996.99  215.24
  -3   5   5 2470.32  182.00
   5   5   3 2435.54  158.08
  -4  -4   4 3802.99  221.01
  -4   4   4 4655.20  290.75
   4  -4   4 4006.53  322.23
   4   4   4 3633.15  208.13
   5  -4   4   16.84   40.84
  -5  -4   4   47.57   55.16
  -4  -5   4   73.00   55.97
  -4  -4   5    6.04   53.66
  -5   4   4  -14.24   41.12
  -4   4   5   61.28   46.90
  -4   5   4    5.21   51.31
   4  -5   4   30.05   41.10
   4  -4   5   96.97   37.87
   4   4   5  -57.06   52.95
   4   5   4  -12.83   55.93
   5   4   4   39.58   46.30
;
_shelx_hkl_checksum              59696
_shelx_res_file
;
TITL   in Pm3m
CELL   0.71073    4.0340    4.0340    4.0340   90.000   90.000   90.000
ZERR     1        0.0006    0.0006    0.0006    0.000    0.000    0.000
LATT    1
SYMM  +X,-Y,-Z
SYMM  -X,-Y,+Z
SYMM  -X,+Y,-Z
SYMM  -Y,+X,+Z
SYMM  +Y,+X,-Z
SYMM  +Y,-X,+Z
SYMM  -Y,-X,-Z
SYMM  +Y,+Z,+X
SYMM  -Y,-Z,+X
SYMM  +Y,-Z,-X
SYMM  -Y,+Z,-X
SYMM  -Z,+Y,+X
SYMM  -Z,-Y,-X
SYMM  +Z,-Y,+X
SYMM  +Z,+Y,-X
SYMM  +Z,+X,+Y
SYMM  -Z,+X,-Y
SYMM  -Z,-X,+Y
SYMM  +Z,-X,-Y
SYMM  -X,-Z,-Y
SYMM  -X,+Z,+Y
SYMM  +X,-Z,+Y
SYMM  +X,+Z,-Y
SFAC  Au      Pd   In
UNIT  1.232 1.836  0.932
L.S. 12
FMAP  2
ACTA
BOND
PLAN  10
SUMP 0.038250 0.000001 0.02083 2 0.04308 3
EADP PD1  AU2
EADP AU3  IN4  PD5
WGHT    0.040700
EXTI    0.016213
FVAR       2.01993   0.99465   0.40694
PD1   2    0.000000    0.000000    0.000000    20.02083    0.01773    0.01773 =
         0.01773    0.00000    0.00000    0.00000
AU2   1    0.000000    0.000000    0.000000   -20.02083    0.01773    0.01773 =
         0.01773    0.00000    0.00000    0.00000
PD5   2    0.000000    0.500000    0.500000    30.04308    0.01489    0.01658 =
         0.01658    0.00000    0.00000    0.00000
AU3   1    0.000000    0.500000    0.500000   -30.04308    0.01489    0.01658 =
         0.01658    0.00000    0.00000    0.00000
IN4   3    0.000000    0.500000    0.500000    10.01942    0.01489    0.01658 =
         0.01658    0.00000    0.00000    0.00000
HKLF 4
REM    in Pm3m
REM R1 =  0.0218 for      74 Fo > 4sig(Fo)  and  0.0223 for all      79 data
REM      7 parameters refined using      1 restraints
END
WGHT      0.0396      0.0000
REM Highest difference peak  2.069,  deepest hole -1.382,  1-sigma level  0.419
Q1    1   0.0000  0.3249  0.5000  10.25000  0.05    2.07
Q2    1   0.0000  0.0000 -0.5000  10.06250  0.05    2.06
Q3    1   0.1622  0.5000  0.5000  10.12500  0.05    2.04
Q4    1  -0.5000  0.5000  0.5000  10.02083  0.05    1.27
Q5    1   0.1792  0.0000  0.0000  10.12500  0.05    1.09
Q6    1  -0.3166  0.5000  0.5000  10.12500  0.05    0.77
Q7    1   0.0000  0.2825  0.0000  10.12500  0.05    0.76
Q8    1  -0.2212  0.5000  0.3188  10.50000  0.05    0.70
Q9    1   0.0000  0.5000  0.1923  10.25000  0.05    0.68
Q10   1  -0.2215  0.4155  0.2959  11.00000  0.05    0.52
;
_shelx_res_checksum              26995
_shelxl_version_number           2014/6
loop_
_space_group_symop_operation_xyz
'x, y, z'
'x, -y, -z'
'-x, -y, z'
'-x, y, -z'
'-y, x, z'
'y, x, -z'
'y, -x, z'
'-y, -x, -z'
'y, z, x'
'-y, -z, x'
'y, -z, -x'
'-y, z, -x'
'-z, y, x'
'-z, -y, -x'
'z, -y, x'
'z, y, -x'
'z, x, y'
'-z, x, -y'
'-z, -x, y'
'z, -x, -y'
'-x, -z, -y'
'-x, z, y'
'x, -z, y'
'x, z, -y'
'-x, -y, -z'
'-x, y, z'
'x, y, -z'
'x, -y, z'
'y, -x, -z'
'-y, -x, z'
'-y, x, -z'
'y, x, z'
'-y, -z, -x'
'y, z, -x'
'-y, z, x'
'y, -z, x'
'z, -y, -x'
'z, y, x'
'-z, y, -x'
'-z, -y, x'
'-z, -x, -y'
'z, -x, y'
'z, x, -y'
'-z, x, y'
'x, z, y'
'x, -z, -y'
'-x, z, -y'
'-x, -z, y'
loop_
_atom_site_type_symbol
_atom_site_label
_atom_site_fract_x
_atom_site_fract_y
_atom_site_fract_z
_atom_site_U_iso_or_equiv
_atom_site_adp_type
_atom_site_calc_flag
_atom_site_occupancy
Pd Pd1 0.0000 0.0000 0.0000 0.0177(5) Uani d 0.994(8)
Au Au2 0.0000 0.0000 0.0000 0.0177(5) Uani d 0.005(8)
Pd Pd5 0.0000 0.5000 0.5000 0.0160(3) Uani d 0.281(3)
Au Au3 0.0000 0.5000 0.5000 0.0160(3) Uani d 0.409(3)
In In4 0.0000 0.5000 0.5000 0.0160(3) Uani d 0.3107
loop_
_atom_site_aniso_label
_atom_site_aniso_U_11
_atom_site_aniso_U_22
_atom_site_aniso_U_33
_atom_site_aniso_U_12
_atom_site_aniso_U_13
_atom_site_aniso_U_23
Pd1 0.0177(5) 0.0177(5) 0.0177(5) 0.000 0.000 0.000
Au2 0.0177(5) 0.0177(5) 0.0177(5) 0.000 0.000 0.000
Pd5 0.0149(3) 0.0166(3) 0.0166(3) 0.000 0.000 0.000
Au3 0.0149(3) 0.0166(3) 0.0166(3) 0.000 0.000 0.000
In4 0.0149(3) 0.0166(3) 0.0166(3) 0.000 0.000 0.000
loop_
_atom_type_symbol
_atom_type_description
_atom_type_scat_dispersion_real
_atom_type_scat_dispersion_imag
_atom_type_scat_source
Au Au -2.0133 8.8022 'International Tables Vol C Tables 4.2.6.8 and 6.1.1.4'
Pd Pd -0.9988 1.0072 'International Tables Vol C Tables 4.2.6.8 and 6.1.1.4'
In In -0.7276 1.3100 'International Tables Vol C Tables 4.2.6.8 and 6.1.1.4'
loop_
_geom_angle_atom_site_label_1
_geom_angle_atom_site_label_2
_geom_angle_atom_site_label_3
_geom_angle_site_symmetry_1
_geom_angle_site_symmetry_3
_geom_angle
In4 Pd1 Pd5 9 . 60.0
In4 Pd1 Au3 9 . 60.0
Pd5 Pd1 Au3 . . 0.0
In4 Pd1 In4 9 . 60.0
Pd5 Pd1 In4 . . 0.0
Au3 Pd1 In4 . . 0.0
In4 Pd1 Pd5 9 1_544 120.0
Pd5 Pd1 Pd5 . 1_544 180.0
Au3 Pd1 Pd5 . 1_544 180.0
In4 Pd1 Pd5 . 1_544 180.0
In4 Pd1 In4 9 9_445 180.0
Pd5 Pd1 In4 . 9_445 120.0
Au3 Pd1 In4 . 9_445 120.0
In4 Pd1 In4 . 9_445 120.0
Pd5 Pd1 In4 1_544 9_445 60.0
In4 Pd1 In4 9 5_655 60.0
Pd5 Pd1 In4 . 5_655 60.0
Au3 Pd1 In4 . 5_655 60.0
In4 Pd1 In4 . 5_655 60.0
Pd5 Pd1 In4 1_544 5_655 120.0
In4 Pd1 In4 9_445 5_655 120.0
In4 Pd1 Pd5 9 5_554 120.0
Pd5 Pd1 Pd5 . 5_554 120.0
Au3 Pd1 Pd5 . 5_554 120.0
In4 Pd1 Pd5 . 5_554 120.0
Pd5 Pd1 Pd5 1_544 5_554 60.0
In4 Pd1 Pd5 9_445 5_554 60.0
In4 Pd1 Pd5 5_655 5_554 180.0
In4 Pd1 In4 9 5_554 120.0
Pd5 Pd1 In4 . 5_554 120.0
Au3 Pd1 In4 . 5_554 120.0
In4 Pd1 In4 . 5_554 120.0
Pd5 Pd1 In4 1_544 5_554 60.0
In4 Pd1 In4 9_445 5_554 60.0
In4 Pd1 In4 5_655 5_554 180.0
Pd5 Pd1 In4 5_554 5_554 0.0
In4 Pd1 In4 9 1_544 120.0
Pd5 Pd1 In4 . 1_544 180.0
Au3 Pd1 In4 . 1_544 180.0
In4 Pd1 In4 . 1_544 180.0
Pd5 Pd1 In4 1_544 1_544 0.0
In4 Pd1 In4 9_445 1_544 60.0
In4 Pd1 In4 5_655 1_544 120.0
Pd5 Pd1 In4 5_554 1_544 60.0
In4 Pd1 In4 5_554 1_544 60.0
In4 Pd1 Pd5 9 5_655 60.0
Pd5 Pd1 Pd5 . 5_655 60.0
Au3 Pd1 Pd5 . 5_655 60.0
In4 Pd1 Pd5 . 5_655 60.0
Pd5 Pd1 Pd5 1_544 5_655 120.0
In4 Pd1 Pd5 9_445 5_655 120.0
In4 Pd1 Pd5 5_655 5_655 0.0
Pd5 Pd1 Pd5 5_554 5_655 180.0
In4 Pd1 Pd5 5_554 5_655 180.0
In4 Pd1 Pd5 1_544 5_655 120.0
In4 Pd1 Pd5 9 9_445 180.0
Pd5 Pd1 Pd5 . 9_445 120.0
Au3 Pd1 Pd5 . 9_445 120.0
In4 Pd1 Pd5 . 9_445 120.0
Pd5 Pd1 Pd5 1_544 9_445 60.0
In4 Pd1 Pd5 9_445 9_445 0.0
In4 Pd1 Pd5 5_655 9_445 120.0
Pd5 Pd1 Pd5 5_554 9_445 60.0
In4 Pd1 Pd5 5_554 9_445 60.0
In4 Pd1 Pd5 1_544 9_445 60.0
Pd5 Pd1 Pd5 5_655 9_445 120.0
In4 Au2 Pd5 9 . 60.0
In4 Au2 Au3 9 . 60.0
Pd5 Au2 Au3 . . 0.0
In4 Au2 In4 9 . 60.0
Pd5 Au2 In4 . . 0.0
Au3 Au2 In4 . . 0.0
In4 Au2 Pd5 9 1_544 120.0
Pd5 Au2 Pd5 . 1_544 180.0
Au3 Au2 Pd5 . 1_544 180.0
In4 Au2 Pd5 . 1_544 180.0
In4 Au2 In4 9 9_445 180.0
Pd5 Au2 In4 . 9_445 120.0
Au3 Au2 In4 . 9_445 120.0
In4 Au2 In4 . 9_445 120.0
Pd5 Au2 In4 1_544 9_445 60.0
In4 Au2 In4 9 5_655 60.0
Pd5 Au2 In4 . 5_655 60.0
Au3 Au2 In4 . 5_655 60.0
In4 Au2 In4 . 5_655 60.0
Pd5 Au2 In4 1_544 5_655 120.0
In4 Au2 In4 9_445 5_655 120.0
In4 Au2 Pd5 9 5_554 120.0
Pd5 Au2 Pd5 . 5_554 120.0
Au3 Au2 Pd5 . 5_554 120.0
In4 Au2 Pd5 . 5_554 120.0
Pd5 Au2 Pd5 1_544 5_554 60.0
In4 Au2 Pd5 9_445 5_554 60.0
In4 Au2 Pd5 5_655 5_554 180.0
In4 Au2 In4 9 5_554 120.0
Pd5 Au2 In4 . 5_554 120.0
Au3 Au2 In4 . 5_554 120.0
In4 Au2 In4 . 5_554 120.0
Pd5 Au2 In4 1_544 5_554 60.0
In4 Au2 In4 9_445 5_554 60.0
In4 Au2 In4 5_655 5_554 180.0
Pd5 Au2 In4 5_554 5_554 0.0
In4 Au2 In4 9 1_544 120.0
Pd5 Au2 In4 . 1_544 180.0
Au3 Au2 In4 . 1_544 180.0
In4 Au2 In4 . 1_544 180.0
Pd5 Au2 In4 1_544 1_544 0.0
In4 Au2 In4 9_445 1_544 60.0
In4 Au2 In4 5_655 1_544 120.0
Pd5 Au2 In4 5_554 1_544 60.0
In4 Au2 In4 5_554 1_544 60.0
In4 Au2 Pd5 9 5_655 60.0
Pd5 Au2 Pd5 . 5_655 60.0
Au3 Au2 Pd5 . 5_655 60.0
In4 Au2 Pd5 . 5_655 60.0
Pd5 Au2 Pd5 1_544 5_655 120.0
In4 Au2 Pd5 9_445 5_655 120.0
In4 Au2 Pd5 5_655 5_655 0.0
Pd5 Au2 Pd5 5_554 5_655 180.0
In4 Au2 Pd5 5_554 5_655 180.0
In4 Au2 Pd5 1_544 5_655 120.0
In4 Au2 Pd5 9 9_445 180.0
Pd5 Au2 Pd5 . 9_445 120.0
Au3 Au2 Pd5 . 9_445 120.0
In4 Au2 Pd5 . 9_445 120.0
Pd5 Au2 Pd5 1_544 9_445 60.0
In4 Au2 Pd5 9_445 9_445 0.0
In4 Au2 Pd5 5_655 9_445 120.0
Pd5 Au2 Pd5 5_554 9_445 60.0
In4 Au2 Pd5 5_554 9_445 60.0
In4 Au2 Pd5 1_544 9_445 60.0
Pd5 Au2 Pd5 5_655 9_445 120.0
In4 Pd5 Pd1 9_556 . 120.0
In4 Pd5 Au2 9_556 . 120.0
Pd1 Pd5 Au2 . . 0.0
In4 Pd5 In4 9_556 9_455 180.0
Pd1 Pd5 In4 . 9_455 60.0
Au2 Pd5 In4 . 9_455 60.0
In4 Pd5 In4 9_556 5_665 60.0
Pd1 Pd5 In4 . 5_665 120.0
Au2 Pd5 In4 . 5_665 120.0
In4 Pd5 In4 9_455 5_665 120.0
In4 Pd5 Pd1 9_556 1_566 60.0
Pd1 Pd5 Pd1 . 1_566 180.0
Au2 Pd5 Pd1 . 1_566 180.0
In4 Pd5 Pd1 9_455 1_566 120.0
In4 Pd5 Pd1 5_665 1_566 60.0
In4 Pd5 In4 9_556 5 120.0
Pd1 Pd5 In4 . 5 60.0
Au2 Pd5 In4 . 5 60.0
In4 Pd5 In4 9_455 5 60.0
In4 Pd5 In4 5_665 5 180.0
Pd1 Pd5 In4 1_566 5 120.0
In4 Pd5 Au3 9_556 9_556 0.0
Pd1 Pd5 Au3 . 9_556 120.0
Au2 Pd5 Au3 . 9_556 120.0
In4 Pd5 Au3 9_455 9_556 180.0
In4 Pd5 Au3 5_665 9_556 60.0
Pd1 Pd5 Au3 1_566 9_556 60.0
In4 Pd5 Au3 5 9_556 120.0
In4 Pd5 Au2 9_556 1_566 60.0
Pd1 Pd5 Au2 . 1_566 180.0
Au2 Pd5 Au2 . 1_566 180.0
In4 Pd5 Au2 9_455 1_566 120.0
In4 Pd5 Au2 5_665 1_566 60.0
Pd1 Pd5 Au2 1_566 1_566 0.0
In4 Pd5 Au2 5 1_566 120.0
Au3 Pd5 Au2 9_556 1_566 60.0
In4 Pd5 Pd5 9_556 5 120.0
Pd1 Pd5 Pd5 . 5 60.0
Au2 Pd5 Pd5 . 5 60.0
In4 Pd5 Pd5 9_455 5 60.0
In4 Pd5 Pd5 5_665 5 180.0
Pd1 Pd5 Pd5 1_566 5 120.0
In4 Pd5 Pd5 5 5 0.0
Au3 Pd5 Pd5 9_556 5 120.0
Au2 Pd5 Pd5 1_566 5 120.0
In4 Pd5 Au3 9_556 9_455 180.0
Pd1 Pd5 Au3 . 9_455 60.0
Au2 Pd5 Au3 . 9_455 60.0
In4 Pd5 Au3 9_455 9_455 0.0
In4 Pd5 Au3 5_665 9_455 120.0
Pd1 Pd5 Au3 1_566 9_455 120.0
In4 Pd5 Au3 5 9_455 60.0
Au3 Pd5 Au3 9_556 9_455 180.0
Au2 Pd5 Au3 1_566 9_455 120.0
Pd5 Pd5 Au3 5 9_455 60.0
In4 Pd5 Au3 9_556 5_665 60.0
Pd1 Pd5 Au3 . 5_665 120.0
Au2 Pd5 Au3 . 5_665 120.0
In4 Pd5 Au3 9_455 5_665 120.0
In4 Pd5 Au3 5_665 5_665 0.0
Pd1 Pd5 Au3 1_566 5_665 60.0
In4 Pd5 Au3 5 5_665 180.0
Au3 Pd5 Au3 9_556 5_665 60.0
Au2 Pd5 Au3 1_566 5_665 60.0
Pd5 Pd5 Au3 5 5_665 180.0
Au3 Pd5 Au3 9_455 5_665 120.0
In4 Au3 Pd1 9_556 . 120.0
In4 Au3 Au2 9_556 . 120.0
Pd1 Au3 Au2 . . 0.0
In4 Au3 In4 9_556 9_455 180.0
Pd1 Au3 In4 . 9_455 60.0
Au2 Au3 In4 . 9_455 60.0
In4 Au3 In4 9_556 5_665 60.0
Pd1 Au3 In4 . 5_665 120.0
Au2 Au3 In4 . 5_665 120.0
In4 Au3 In4 9_455 5_665 120.0
In4 Au3 Pd1 9_556 1_566 60.0
Pd1 Au3 Pd1 . 1_566 180.0
Au2 Au3 Pd1 . 1_566 180.0
In4 Au3 Pd1 9_455 1_566 120.0
In4 Au3 Pd1 5_665 1_566 60.0
In4 Au3 In4 9_556 5 120.0
Pd1 Au3 In4 . 5 60.0
Au2 Au3 In4 . 5 60.0
In4 Au3 In4 9_455 5 60.0
In4 Au3 In4 5_665 5 180.0
Pd1 Au3 In4 1_566 5 120.0
In4 Au3 Au3 9_556 9_556 0.0
Pd1 Au3 Au3 . 9_556 120.0
Au2 Au3 Au3 . 9_556 120.0
In4 Au3 Au3 9_455 9_556 180.0
In4 Au3 Au3 5_665 9_556 60.0
Pd1 Au3 Au3 1_566 9_556 60.0
In4 Au3 Au3 5 9_556 120.0
In4 Au3 Au2 9_556 1_566 60.0
Pd1 Au3 Au2 . 1_566 180.0
Au2 Au3 Au2 . 1_566 180.0
In4 Au3 Au2 9_455 1_566 120.0
In4 Au3 Au2 5_665 1_566 60.0
Pd1 Au3 Au2 1_566 1_566 0.0
In4 Au3 Au2 5 1_566 120.0
Au3 Au3 Au2 9_556 1_566 60.0
In4 Au3 Pd5 9_556 5 120.0
Pd1 Au3 Pd5 . 5 60.0
Au2 Au3 Pd5 . 5 60.0
In4 Au3 Pd5 9_455 5 60.0
In4 Au3 Pd5 5_665 5 180.0
Pd1 Au3 Pd5 1_566 5 120.0
In4 Au3 Pd5 5 5 0.0
Au3 Au3 Pd5 9_556 5 120.0
Au2 Au3 Pd5 1_566 5 120.0
In4 Au3 Au3 9_556 9_455 180.0
Pd1 Au3 Au3 . 9_455 60.0
Au2 Au3 Au3 . 9_455 60.0
In4 Au3 Au3 9_455 9_455 0.0
In4 Au3 Au3 5_665 9_455 120.0
Pd1 Au3 Au3 1_566 9_455 120.0
In4 Au3 Au3 5 9_455 60.0
Au3 Au3 Au3 9_556 9_455 180.0
Au2 Au3 Au3 1_566 9_455 120.0
Pd5 Au3 Au3 5 9_455 60.0
In4 Au3 Au3 9_556 5_665 60.0
Pd1 Au3 Au3 . 5_665 120.0
Au2 Au3 Au3 . 5_665 120.0
In4 Au3 Au3 9_455 5_665 120.0
In4 Au3 Au3 5_665 5_665 0.0
Pd1 Au3 Au3 1_566 5_665 60.0
In4 Au3 Au3 5 5_665 180.0
Au3 Au3 Au3 9_556 5_665 60.0
Au2 Au3 Au3 1_566 5_665 60.0
Pd5 Au3 Au3 5 5_665 180.0
Au3 Au3 Au3 9_455 5_665 120.0
In4 In4 Pd1 9_556 . 120.0
In4 In4 Au2 9_556 . 120.0
Pd1 In4 Au2 . . 0.0
In4 In4 In4 9_556 9_455 180.0
Pd1 In4 In4 . 9_455 60.0
Au2 In4 In4 . 9_455 60.0
In4 In4 In4 9_556 5_665 60.0
Pd1 In4 In4 . 5_665 120.0
Au2 In4 In4 . 5_665 120.0
In4 In4 In4 9_455 5_665 120.0
In4 In4 Pd1 9_556 1_566 60.0
Pd1 In4 Pd1 . 1_566 180.0
Au2 In4 Pd1 . 1_566 180.0
In4 In4 Pd1 9_455 1_566 120.0
In4 In4 Pd1 5_665 1_566 60.0
In4 In4 In4 9_556 5 120.0
Pd1 In4 In4 . 5 60.0
Au2 In4 In4 . 5 60.0
In4 In4 In4 9_455 5 60.0
In4 In4 In4 5_665 5 180.0
Pd1 In4 In4 1_566 5 120.0
In4 In4 Au3 9_556 9_556 0.0
Pd1 In4 Au3 . 9_556 120.0
Au2 In4 Au3 . 9_556 120.0
In4 In4 Au3 9_455 9_556 180.0
In4 In4 Au3 5_665 9_556 60.0
Pd1 In4 Au3 1_566 9_556 60.0
In4 In4 Au3 5 9_556 120.0
In4 In4 Au2 9_556 1_566 60.0
Pd1 In4 Au2 . 1_566 180.0
Au2 In4 Au2 . 1_566 180.0
In4 In4 Au2 9_455 1_566 120.0
In4 In4 Au2 5_665 1_566 60.0
Pd1 In4 Au2 1_566 1_566 0.0
In4 In4 Au2 5 1_566 120.0
Au3 In4 Au2 9_556 1_566 60.0
In4 In4 Pd5 9_556 5 120.0
Pd1 In4 Pd5 . 5 60.0
Au2 In4 Pd5 . 5 60.0
In4 In4 Pd5 9_455 5 60.0
In4 In4 Pd5 5_665 5 180.0
Pd1 In4 Pd5 1_566 5 120.0
In4 In4 Pd5 5 5 0.0
Au3 In4 Pd5 9_556 5 120.0
Au2 In4 Pd5 1_566 5 120.0
In4 In4 Au3 9_556 9_455 180.0
Pd1 In4 Au3 . 9_455 60.0
Au2 In4 Au3 . 9_455 60.0
In4 In4 Au3 9_455 9_455 0.0
In4 In4 Au3 5_665 9_455 120.0
Pd1 In4 Au3 1_566 9_455 120.0
In4 In4 Au3 5 9_455 60.0
Au3 In4 Au3 9_556 9_455 180.0
Au2 In4 Au3 1_566 9_455 120.0
Pd5 In4 Au3 5 9_455 60.0
In4 In4 Au3 9_556 5_665 60.0
Pd1 In4 Au3 . 5_665 120.0
Au2 In4 Au3 . 5_665 120.0
In4 In4 Au3 9_455 5_665 120.0
In4 In4 Au3 5_665 5_665 0.0
Pd1 In4 Au3 1_566 5_665 60.0
In4 In4 Au3 5 5_665 180.0
Au3 In4 Au3 9_556 5_665 60.0
Au2 In4 Au3 1_566 5_665 60.0
Pd5 In4 Au3 5 5_665 180.0
Au3 In4 Au3 9_455 5_665 120.0
loop_
_geom_bond_atom_site_label_1
_geom_bond_atom_site_label_2
_geom_bond_site_symmetry_2
_geom_bond_distance
Pd1 In4 9 2.8525(4)
Pd1 Pd5 . 2.8525(4)
Pd1 Au3 . 2.8525(4)
Pd1 In4 . 2.8525(4)
Pd1 Pd5 1_544 2.8525(4)
Pd1 In4 9_445 2.8525(4)
Pd1 In4 5_655 2.8525(4)
Pd1 Pd5 5_554 2.8525(4)
Pd1 In4 5_554 2.8525(4)
Pd1 In4 1_544 2.8525(4)
Pd1 Pd5 5_655 2.8525(4)
Pd1 Pd5 9_445 2.8525(4)
Au2 In4 9 2.8525(4)
Au2 Pd5 . 2.8525(4)
Au2 Au3 . 2.8525(4)
Au2 In4 . 2.8525(4)
Au2 Pd5 1_544 2.8525(4)
Au2 In4 9_445 2.8525(4)
Au2 In4 5_655 2.8525(4)
Au2 Pd5 5_554 2.8525(4)
Au2 In4 5_554 2.8525(4)
Au2 In4 1_544 2.8525(4)
Au2 Pd5 5_655 2.8525(4)
Au2 Pd5 9_445 2.8525(4)
Pd5 In4 9_556 2.8525(4)
Pd5 In4 9_455 2.8525(4)
Pd5 In4 5_665 2.8525(4)
Pd5 Pd1 1_566 2.8525(4)
Pd5 In4 5 2.8525(4)
Pd5 Au3 9_556 2.8525(4)
Pd5 Au2 1_566 2.8525(4)
Pd5 Pd5 5 2.8525(4)
Pd5 Au3 9_455 2.8525(4)
Pd5 Au3 5_665 2.8525(4)
Au3 In4 9_556 2.8525(4)
Au3 In4 9_455 2.8525(4)
Au3 In4 5_665 2.8525(4)
Au3 Pd1 1_566 2.8525(4)
Au3 In4 5 2.8525(4)
Au3 Au3 9_556 2.8525(4)
Au3 Au2 1_566 2.8525(4)
Au3 Pd5 5 2.8525(4)
Au3 Au3 9_455 2.8525(4)
Au3 Au3 5_665 2.8525(4)
In4 In4 9_556 2.8525(4)
In4 In4 9_455 2.8525(4)
In4 In4 5_665 2.8525(4)
In4 Pd1 1_566 2.8525(4)
In4 In4 5 2.8525(4)
In4 Au3 9_556 2.8525(4)
In4 Au2 1_566 2.8525(4)
In4 Pd5 5 2.8525(4)
In4 Au3 9_455 2.8525(4)
In4 Au3 5_665 2.8525(4)

_cod_database_fobs_code 2021013
