#------------------------------------------------------------------------------
#$Date: 2018-04-30 18:52:31 +0300 (Mon, 30 Apr 2018) $
#$Revision: 207535 $
#$URL: file:///home/coder/svn-repositories/cod/cif/2/02/11/2021100.cif $
#------------------------------------------------------------------------------
#
# This file is available in the Crystallography Open Database (COD),
# http://www.crystallography.net/. The original data for this entry
# were provided by IUCr Journals, http://journals.iucr.org/.
#
# The file may be used within the scientific community so long as
# proper attribution is given to the journal article from which the
# data were obtained.
#
data_2021100
loop_
_publ_author_name
'Baranets, Sviatoslav'
'He, Hua'
'Bobev, Svilen'
_publ_section_title
;
 Niobium-bearing arsenides and germanides from elemental mixtures not
 involving niobium: a new twist to an old problem in solid-state synthesis
;
_journal_coeditor_code           LY3065
_journal_issue                   5
_journal_name_full               'Acta Crystallographica Section C'
_journal_page_first              623
_journal_page_last               627
_journal_paper_doi               10.1107/S2053229618005739
_journal_volume                  74
_journal_year                    2018
_chemical_formula_iupac          'Nb~0.92(1)~ Ni As'
_chemical_formula_sum            'As Nb0.92 Ni'
_chemical_formula_weight         219.11
_chemical_name_systematic
;
Niobium nickel arsenide
;
_space_group_crystal_system      orthorhombic
_space_group_IT_number           62
_space_group_name_Hall           '-P 2ac 2n'
_space_group_name_H-M_alt        'P n m a'
_symmetry_space_group_name_Hall  '-P 2ac 2n'
_symmetry_space_group_name_H-M   'P n m a'
_audit_creation_method           SHELXL-2018/1
_cell_angle_alpha                90
_cell_angle_beta                 90
_cell_angle_gamma                90
_cell_formula_units_Z            4
_cell_length_a                   6.2115(19)
_cell_length_b                   3.7150(11)
_cell_length_c                   7.172(2)
_cell_measurement_reflns_used    853
_cell_measurement_temperature    200(2)
_cell_measurement_theta_max      27.91
_cell_measurement_theta_min      6.57
_cell_volume                     165.50(8)
_computing_cell_refinement
;
SAINT (Bruker, 2007)
;
_computing_data_collection
;
APEX2 (Bruker, 2007)
;
_computing_data_reduction
;
SAINT (Bruker, 2007)
;
_computing_molecular_graphics
;
CrystalMaker (Palmer, 2014)
;
_computing_publication_material
;
publCIF (Westrip, 2010)
;
_computing_structure_refinement
;
SHELXL2018 (Sheldrick, 2015b)
;
_computing_structure_solution
;
SHELXT (Sheldrick, 2015a)
;
_diffrn_ambient_temperature      200(2)
_diffrn_measured_fraction_theta_full 1.000
_diffrn_measured_fraction_theta_max 1.000
_diffrn_measurement_device_type  'Bruker SMART APEXII DUO CCD'
_diffrn_measurement_method       'phi and omega scans'
_diffrn_radiation_type           MoK\a
_diffrn_radiation_wavelength     0.71073
_diffrn_reflns_av_R_equivalents  0.0965
_diffrn_reflns_limit_h_max       8
_diffrn_reflns_limit_h_min       -8
_diffrn_reflns_limit_k_max       4
_diffrn_reflns_limit_k_min       -4
_diffrn_reflns_limit_l_max       9
_diffrn_reflns_limit_l_min       -9
_diffrn_reflns_number            2044
_diffrn_reflns_theta_full        25.242
_diffrn_reflns_theta_max         28.192
_diffrn_reflns_theta_min         4.341
_exptl_absorpt_coefficient_mu    36.983
_exptl_absorpt_correction_T_max  0.40
_exptl_absorpt_correction_T_min  0.25
_exptl_absorpt_correction_type   multi-scan
_exptl_absorpt_process_details
;
(SADABS; Sheldrick, 2003)
;
_exptl_crystal_colour            black
_exptl_crystal_density_diffrn    8.794
_exptl_crystal_description       irregular
_exptl_crystal_F_000             395
_exptl_crystal_size_max          0.040
_exptl_crystal_size_mid          0.025
_exptl_crystal_size_min          0.025
_refine_diff_density_max         1.072
_refine_diff_density_min         -1.424
_refine_ls_extinction_coef       0.0175(15)
_refine_ls_extinction_expression Fc^*^=kFc[1+0.001xFc^2^\l^3^/sin(2\q)]^-1/4^
_refine_ls_extinction_method
;
SHELXL2018 (Sheldrick, 2015b)
;
_refine_ls_goodness_of_fit_ref   0.900
_refine_ls_hydrogen_treatment    undef
_refine_ls_matrix_type           full
_refine_ls_number_parameters     21
_refine_ls_number_reflns         238
_refine_ls_number_restraints     0
_refine_ls_restrained_S_all      0.900
_refine_ls_R_factor_all          0.0225
_refine_ls_R_factor_gt           0.0194
_refine_ls_shift/su_max          0.000
_refine_ls_shift/su_mean         0.000
_refine_ls_structure_factor_coef Fsqd
_refine_ls_weighting_details     'w=1/[\s^2^(Fo^2^)] where P=(Fo^2^+2Fc^2^)/3'
_refine_ls_weighting_scheme      calc
_refine_ls_wR_factor_gt          0.0369
_refine_ls_wR_factor_ref         0.0378
_reflns_number_gt                210
_reflns_number_total             238
_reflns_threshold_expression     'I > 2\s(I)'
_cod_data_source_file            ly3065sup1.cif
_cod_data_source_block           1
_cod_original_cell_volume        165.50(9)
_cod_database_code               2021100
_shelx_space_group_comment
;
The symmetry employed for this shelxl refinement is uniquely defined
by the following loop, which should always be used as a source of
symmetry information in preference to the above space-group names.
They are only intended as comments.
;
_shelx_estimated_absorpt_t_min   0.319
_shelx_estimated_absorpt_t_max   0.458
_shelx_hkl_file
;
   0   0   1    0.39    0.15
   0   0   1    0.31    0.22
   0   0  -1    0.05    0.15
   0   0  -1    0.04    0.12
   0   0   2    1.44    0.38
   0   0   2    1.09    0.53
   0   0  -2    1.06    0.53
   0   0  -2    1.60    0.49
   0   0   3    0.22    0.31
   0   0   3   -0.07    0.35
   0   0  -3   -0.21    0.32
   0   0  -3   -0.30    0.25
   0   0   4  301.70    5.53
   0   0   4  332.94    8.84
   0   0  -4  457.80   10.35
   0   0  -4  341.36    7.37
   0   0   5    0.28    0.46
   0   0   5    0.22    0.61
   0   0  -5    0.08    0.74
   0   0  -5    0.33    0.53
   0   0   6   13.94    2.71
   0   0  -6   20.82    3.19
   0   0  -6   13.18    2.10
   0   0   7    0.08    0.64
   0   0  -7   -0.20    0.60
   0   0   8    6.30    2.22
   0   0  -8   12.49    3.23
   0   0   9    0.42    1.02
   0   0  -9   -0.02    1.07
  -1   0   0    0.03    0.16
  -1   0   0    0.21    0.19
   1   0   0    0.07    0.18
   1   0   0    0.05    0.17
  -1   0   1    1.09    0.45
  -1   0  -1    1.59    0.48
  -1   0  -1    1.13    0.25
  -1   0  -1    0.85    0.41
   1   0   1    1.16    0.44
   1   0  -1    0.75    0.42
   1   0  -1    1.13    0.44
  -1   0   2   28.82    1.85
  -1   0  -2   39.27    2.24
  -1   0  -2   32.84    2.07
   1   0   2   32.86    2.05
   1   0  -2   34.66    2.16
   1   0  -2   30.13    0.98
   1   0  -2   29.46    1.97
  -1   0   3  220.26    5.52
  -1   0  -3  305.11    7.38
  -1   0  -3  226.13    6.15
   1   0   3  233.80    6.45
   1   0  -3  266.76    7.03
   1   0  -3  223.81    3.94
   1   0  -3  221.98    6.37
  -1   0   4   40.18    2.64
  -1   0   4   32.11    2.86
  -1   0  -4   47.11    3.38
  -1   0  -4   41.23    2.99
   1   0   4   40.40    3.16
   1   0  -4   42.42    3.26
   1   0  -4   41.61    2.11
  -1   0   5   88.43    4.16
  -1   0   5   83.05    5.11
  -1   0  -5  114.64    5.92
  -1   0  -5   90.87    4.87
   1   0   5   99.19    5.53
   1   0  -5  110.37    5.89
   1   0  -5   86.05    3.55
  -1   0   6  170.96    6.17
  -1   0   6  166.73    8.03
  -1   0  -6  233.10    9.37
  -1   0  -6  191.73    7.67
   1   0   6  182.40    8.32
   1   0  -6  220.46    9.22
  -1   0   7   39.71    4.38
  -1   0  -7   54.76    5.06
  -1   0  -7   44.55    4.03
   1   0   7   42.35    4.44
   1   0  -7   49.35    4.85
  -1   0   8   -0.22    0.85
  -1   0  -8    1.18    1.05
   1   0   8    0.19    0.87
   1   0  -8    2.04    1.31
  -1   0   9   18.12    4.06
  -1   0  -9   22.86    4.54
   1   0   9   16.82    4.02
   1   0  -9   24.09    4.73
  -2   0   0   12.34    1.30
  -2   0   0   10.04    1.05
   2   0   0    9.66    1.16
   2   0   0   11.08    1.14
  -2   0   1    4.25    1.02
  -2   0   1    5.21    0.61
  -2   0  -1    5.24    0.82
  -2   0  -1    4.44    0.96
   2   0   1    6.66    1.10
   2   0   1    5.03    0.92
   2   0  -1    4.62    1.03
   2   0  -1    5.50    0.96
  -2   0   2   96.90    4.11
  -2   0  -2   92.91    2.41
  -2   0  -2   93.73    4.08
   2   0   2  125.44    4.47
   2   0   2  105.18    3.98
   2   0  -2   89.41    3.74
  -2   0   3   61.23    3.55
  -2   0  -3   81.76    4.11
  -2   0  -3   61.84    3.71
   2   0   3   60.95    3.52
   2   0  -3   63.59    3.74
   2   0  -3   56.58    3.45
  -2   0   4   35.49    2.95
  -2   0  -4   48.74    3.60
  -2   0  -4   37.71    3.22
   2   0   4   41.53    3.33
   2   0  -4   39.70    3.34
   2   0  -4   35.20    3.13
  -2   0   5  144.32    6.20
  -2   0   5  129.41    6.56
  -2   0  -5  186.50    7.76
  -2   0  -5  145.39    6.76
   2   0   5  152.68    7.00
   2   0  -5  159.58    7.35
  -2   0   6  113.15    5.82
  -2   0   6  106.49    6.58
  -2   0  -6  146.53    7.61
  -2   0  -6  121.42    6.68
   2   0   6  118.64    6.84
   2   0  -6  126.19    7.21
  -2   0   7    2.30    1.44
  -2   0  -7    1.99    1.37
  -2   0  -7    2.34    1.36
   2   0   7    0.60    0.84
   2   0  -7    2.12    1.44
  -2   0   8   75.94    6.56
  -2   0  -8  105.11    7.65
  -2   0  -8   89.62    6.63
   2   0   8   75.03    6.47
   2   0  -8   96.47    7.48
  -2   0   9    9.61    3.04
  -2   0  -9   12.22    3.60
   2   0   9    7.88    2.96
   2   0  -9    8.56    2.90
  -3   0   0   -0.37    0.34
  -3   0   0    0.15    0.36
   3   0   0    0.20    0.49
   3   0   0   -0.13    0.35
  -3   0   1  331.75    8.27
  -3   0   1  338.81    5.99
  -3   0  -1  315.12    6.92
  -3   0  -1  331.90    7.88
   3   0   1  381.44    8.35
   3   0   1  394.83    7.91
   3   0  -1  297.79    7.53
   3   0  -1  339.57    7.45
  -3   0   2  344.00    9.00
  -3   0   2  323.42    4.46
  -3   0  -2  304.59    6.11
  -3   0  -2  352.40    8.98
   3   0   2  419.04    9.32
   3   0   2  375.28    8.37
   3   0  -2  311.29    8.28
   3   0  -2  333.99    8.09
  -3   0   3  121.49    5.73
  -3   0  -3  119.25    3.18
  -3   0  -3  124.58    5.87
   3   0   3  152.58    6.14
   3   0   3  128.15    5.46
   3   0  -3  111.34    5.43
   3   0  -3  117.50    5.36
  -3   0   4    0.97    0.95
  -3   0  -4    1.14    0.92
   3   0   4    0.63    0.69
   3   0   4    2.44    1.17
   3   0  -4    1.54    1.00
   3   0  -4    0.70    0.80
  -3   0   5    1.39    1.04
  -3   0  -5    1.27    0.93
  -3   0  -5    1.00    0.86
   3   0   5    1.02    0.96
   3   0  -5    1.57    1.11
   3   0  -5    2.70    1.39
  -3   0   6   30.39    3.41
  -3   0   6   32.01    3.76
  -3   0  -6   41.70    4.22
  -3   0  -6   32.93    3.81
   3   0   6   35.42    3.89
   3   0  -6   31.87    3.80
  -3   0   7   -0.35    0.76
  -3   0   7    1.47    1.43
  -3   0  -7    1.08    0.84
  -3   0  -7    0.65    0.92
   3   0   7   -0.31    0.73
   3   0  -7    0.30    0.85
  -3   0   8    5.02    2.04
  -3   0  -8    7.25    2.51
  -3   0  -8    4.84    2.14
   3   0   8    4.13    2.04
   3   0  -8    5.95    2.36
  -4   0   0  125.28    5.55
  -4   0   0  143.19    5.35
   4   0   0  123.68    5.49
   4   0   0  149.80    5.53
  -4   0   1   15.88    2.37
  -4   0   1   17.01    1.69
  -4   0  -1   14.76    1.84
  -4   0  -1   17.26    2.14
   4   0   1   19.49    2.27
   4   0   1   20.55    2.21
   4   0  -1   16.46    2.38
   4   0  -1   16.84    2.01
  -4   0   2   92.42    5.35
  -4   0   2   90.07    3.06
  -4   0  -2   99.47    4.31
  -4   0  -2  101.87    5.44
   4   0   2  112.66    5.51
   4   0   2  126.44    5.47
   4   0  -2   93.18    5.17
   4   0  -2  100.11    4.98
  -4   0   3    0.56    0.76
  -4   0  -3   -0.28    0.41
   4   0   3    0.75    0.72
   4   0   3    0.30    0.72
   4   0  -3    0.09    0.67
   4   0  -3    0.12    0.64
  -4   0   4  132.35    7.06
  -4   0  -4  135.68    7.24
   4   0   4  162.38    7.47
   4   0   4  145.65    6.83
   4   0  -4  131.70    6.99
   4   0  -4  138.61    6.86
  -4   0   5    4.77    1.83
  -4   0  -5    2.93    1.42
   4   0   5    5.85    1.89
   4   0   5    4.73    1.81
   4   0  -5    3.93    1.72
   4   0  -5    6.44    2.17
  -4   0   6  105.79    6.98
  -4   0  -6  102.67    7.18
   4   0   6  130.32    7.80
   4   0   6  118.29    7.28
   4   0  -6  105.51    7.29
   4   0  -6  100.56    6.91
  -4   0   7   50.31    4.98
  -4   0  -7   53.71    5.51
   4   0   7   58.50    5.58
   4   0   7   55.96    5.45
   4   0  -7   53.79    5.58
  -4   0  -8   35.53    5.28
   4   0   8   42.31    5.09
   4   0   8   39.65    5.57
   4   0  -8   34.45    5.42
  -5   0   0    0.43    0.72
  -5   0   0    0.39    0.63
   5   0   0    1.05    0.82
   5   0   0    0.28    0.67
  -5   0   1    0.59    0.88
  -5   0   1    0.23    0.57
  -5   0  -1    0.37    0.69
  -5   0  -1    0.26    0.71
   5   0   1   -0.14    0.53
   5   0   1    0.71    0.78
   5   0  -1    0.19    0.69
   5   0  -1    1.04    0.80
  -5   0   2   47.47    4.31
  -5   0  -2   50.23    3.60
  -5   0  -2   52.34    4.31
   5   0   2   49.53    4.08
   5   0   2   57.96    4.14
   5   0  -2   45.16    3.99
   5   0  -2   47.12    3.83
  -5   0   3    5.99    2.03
  -5   0  -3    8.21    2.29
   5   0   3    7.59    2.17
   5   0   3    9.35    2.26
   5   0  -3    6.25    2.00
   5   0  -3    6.27    1.91
  -5   0   4  144.24    8.12
  -5   0  -4  155.36    8.39
   5   0   4  177.42    8.45
   5   0   4  174.39    7.99
   5   0  -4  141.02    7.83
   5   0  -4  141.66    7.41
  -5   0   5   38.78    4.45
  -5   0  -5   39.83    4.54
   5   0   5   46.22    4.58
   5   0   5   40.16    4.20
   5   0  -5   37.43    4.33
   5   0  -5   41.09    4.28
  -5   0   6    6.03    2.35
  -5   0  -6    5.04    2.05
   5   0   6    7.11    2.37
   5   0   6    7.01    2.31
   5   0  -6    5.43    2.13
   5   0  -6    4.86    2.03
  -5   0   7    1.29    1.41
  -5   0   7    1.30    1.23
  -5   0  -7    1.30    1.24
   5   0   7    0.93    1.55
   5   0   7    1.98    1.42
   5   0  -7    1.75    1.58
  -6   0   0   22.18    3.46
  -6   0   0   22.19    2.69
   6   0   0   19.71    3.20
   6   0   0   20.83    2.99
  -6   0   1  139.20    7.79
  -6   0  -1  155.98    7.53
  -6   0  -1  157.61    7.59
   6   0   1  139.18    7.37
   6   0   1  164.32    7.33
   6   0  -1  137.49    7.45
   6   0  -1  152.97    7.15
  -6   0   2    0.46    0.93
  -6   0  -2    0.22    0.84
   6   0   2    0.72    0.86
   6   0   2    0.02    0.75
   6   0  -2    1.42    1.04
   6   0  -2    0.03    0.68
  -6   0   3   55.18    5.31
  -6   0  -3   51.49    4.95
   6   0   3   57.51    5.00
   6   0   3   61.72    4.85
   6   0  -3   49.85    4.88
   6   0  -3   50.71    4.47
  -6   0   4    6.55    2.36
  -6   0  -4    8.25    2.64
   6   0   4    5.19    1.98
   6   0   4    7.35    2.30
   6   0  -4    8.85    2.82
   6   0  -4    7.25    2.31
  -6   0   5   21.26    4.14
  -6   0  -5   20.45    4.08
   6   0   5   25.98    4.18
   6   0  -5   22.61    4.17
   6   0  -5   28.47    4.39
  -6   0   6    0.30    1.19
  -6   0  -6    4.50    2.18
   6   0   6    1.04    1.27
   6   0  -6    0.37    1.31
   6   0  -6    2.63    1.83
  -7   0   0    1.02    1.16
   7   0   0   -0.18    0.81
  -7   0   1    1.96    1.40
  -7   0  -1    1.21    1.29
  -7   0  -1    1.61    1.10
   7   0   1    0.86    0.92
   7   0  -1    0.40    1.16
  -7   0   2  120.48    8.25
  -7   0  -2  117.50    7.59
   7   0   2   97.39    6.87
   7   0  -2   96.90    7.02
  -7   0   3   79.28    6.94
  -7   0  -3   73.96    6.36
   7   0   3   75.51    6.20
   7   0  -3   64.90    5.96
  -7   0   4   19.73    4.31
  -7   0  -4   19.80    4.10
   7   0   4   19.11    3.77
   7   0  -4   17.22    3.88
  -7   0   5   -1.00    1.19
  -7   0  -5    1.14    1.48
   7   0   5   -0.76    0.94
   7   0  -5    1.77    1.35
  -8   0   0   53.94    5.58
   8   0   0   44.66    5.05
  -8   0   1   -0.05    1.18
   8   0   1   -1.08    0.99
   8   0  -1    1.02    1.39
  -8   0   2   -0.57    1.15
   8   0  -2    1.79    1.48
   0  -1   0    0.78    0.47
   0   1   0    0.81    0.47
   0   1   0    1.15    0.41
   0  -1  -1    3.99    0.62
   0  -1  -1    5.85    1.03
   0   1   1    5.59    0.93
   0   1   1    4.19    0.77
   0   1  -1    6.55    0.86
   0   1  -1    5.49    0.96
   0   1  -1    3.89    0.81
   0   1  -1    3.47    0.68
   0  -1  -2   -0.10    0.32
   0  -1  -2    0.47    0.52
   0   1   2    0.37    0.39
   0   1   2    0.52    0.44
   0   1  -2    0.32    0.39
   0   1  -2    0.45    0.44
   0   1  -2    0.44    0.40
   0   1  -2    0.34    0.39
   0  -1  -3  433.37    8.61
   0  -1  -3  414.11    8.44
   0   1   3  412.30    7.40
   0   1   3  384.16    8.62
   0   1  -3  533.82   10.11
   0   1  -3  528.81    8.61
   0   1  -3  336.33    7.20
   0   1  -3  354.40    8.10
   0  -1   4   -0.06    0.46
   0  -1   4    0.51    0.58
   0  -1  -4    0.07    0.57
   0  -1  -4    0.18    0.55
   0   1   4    0.11    0.43
   0   1   4    0.60    0.68
   0   1  -4    0.07    0.44
   0   1  -4   -0.10    0.37
   0  -1   5  114.00    4.49
   0  -1   5   93.47    5.41
   0  -1  -5  123.79    6.13
   0  -1  -5   97.54    4.95
   0   1   5  105.52    4.19
   0   1   5   89.75    5.40
   0   1  -5  118.79    6.18
   0   1  -5   84.96    4.39
   0  -1   6   -0.63    0.53
   0  -1  -6    0.32    0.73
   0  -1  -6    0.04    0.65
   0   1   6    0.18    0.76
   0   1  -6    0.22    0.57
   0   1  -6   -0.01    0.65
   0  -1   7  117.69    7.40
   0  -1  -7  176.94    8.91
   0   1   7  119.69    7.57
   0   1  -7  169.72    9.01
   0  -1   8    0.50    0.91
   0  -1  -8    0.11    0.81
   0   1   8    0.15    0.84
   0   1  -8   -0.20    0.93
   0  -1   9    5.57    2.33
   0  -1  -9    8.11    2.96
   0   1   9   10.26    3.28
   0   1  -9    8.89    2.90
  -1  -1   0    1.88    0.70
   1  -1   0   -0.18    0.28
  -1   1   0   -0.05    0.32
  -1   1   0    0.17    0.36
   1   1   0   -0.07    0.29
   1   1   0   -0.04    0.36
  -1  -1   1    6.06    0.95
  -1  -1  -1    6.40    0.56
  -1  -1  -1    6.71    1.21
   1  -1   1    6.65    1.07
   1  -1  -1    6.67    1.08
   1  -1  -1    5.91    1.01
  -1   1   1    5.16    1.05
  -1   1   1    5.55    0.68
  -1   1  -1    6.20    1.01
  -1   1  -1    5.36    1.05
  -1   1  -1    5.33    0.58
   1   1   1    6.46    1.01
   1   1   1    5.86    1.10
   1   1  -1    6.93    0.75
   1   1  -1    5.48    1.08
   1   1  -1    4.33    0.96
  -1  -1   2  365.12    6.11
  -1  -1  -2  430.83    6.58
  -1  -1  -2  388.00    8.16
   1  -1   2  342.74    6.15
   1  -1  -2  347.18    7.32
   1  -1  -2  354.07    6.71
  -1   1   2  348.27    7.37
  -1   1   2  344.52    6.53
  -1   1  -2  472.45    8.83
  -1   1  -2  448.63    7.17
  -1   1  -2  306.71    7.14
   1   1   2  437.40    6.87
   1   1   2  348.33    7.70
   1   1  -2  451.85    7.63
   1   1  -2  456.83    8.53
   1   1  -2  311.28    7.22
  -1  -1   3  235.12    6.53
  -1  -1  -3  250.63    6.31
  -1  -1  -3  226.74    6.88
   1  -1   3  195.50    5.74
   1  -1  -3  215.01    6.59
   1  -1  -3  208.18    5.52
  -1   1   3  188.32    5.78
  -1   1   3  184.71    5.82
  -1   1  -3  258.73    7.44
  -1   1  -3  271.03    5.60
  -1   1  -3  179.77    5.97
   1   1   3  243.63    5.07
   1   1   3  204.58    6.67
   1   1  -3  264.39    7.05
   1   1  -3  189.39    4.65
   1   1  -3  170.59    6.05
  -1  -1   4   29.28    2.52
  -1  -1  -4   30.11    2.69
  -1  -1  -4   25.04    2.58
   1  -1   4   22.57    2.34
   1  -1  -4   23.78    2.56
   1  -1  -4   30.04    2.35
  -1   1   4   21.90    2.17
  -1   1   4   20.88    2.35
  -1   1  -4   29.40    2.86
  -1   1  -4   30.97    1.98
  -1   1  -4   22.96    2.39
   1   1   4   30.01    1.81
   1   1   4   21.98    2.56
   1   1  -4   29.20    2.77
   1   1  -4   21.94    1.78
   1   1  -4   23.12    2.58
  -1  -1   5   14.17    2.12
  -1  -1  -5   17.08    2.56
  -1  -1  -5   13.67    2.33
   1  -1   5   14.11    2.40
   1  -1  -5   17.23    2.72
   1  -1  -5   12.70    1.88
  -1   1   5   10.98    1.88
  -1   1   5   11.26    2.26
  -1   1  -5   16.56    2.67
  -1   1  -5   11.89    2.17
   1   1   5   12.28    2.46
   1   1  -5   14.74    2.55
   1   1  -5   11.85    1.61
   1   1  -5   14.93    2.73
  -1  -1   6    7.00    1.78
  -1  -1   6    5.63    1.90
  -1  -1  -6    7.89    2.15
  -1  -1  -6    5.97    1.77
   1  -1   6    6.56    2.05
   1  -1  -6    7.13    2.10
  -1   1   6    7.95    1.76
  -1   1   6    7.24    2.11
  -1   1  -6    6.15    1.96
  -1   1  -6    8.78    2.10
   1   1   6    7.53    2.34
   1   1  -6    5.94    1.93
  -1  -1   7  116.16    7.51
  -1  -1  -7  154.15    8.24
  -1  -1  -7  123.25    6.97
   1  -1   7  122.21    7.45
   1  -1  -7  142.36    8.20
  -1   1   7  107.40    7.16
  -1   1  -7  145.47    8.44
  -1   1  -7  115.56    6.58
   1   1   7  114.25    7.50
   1   1  -7  149.34    8.47
  -1  -1   8   25.62    4.30
  -1  -1  -8   40.38    4.58
   1  -1   8   29.36    4.37
   1  -1  -8   39.36    4.67
  -1   1   8   28.22    4.46
  -1   1  -8   30.86    4.72
   1   1   8   34.06    5.02
   1   1  -8   40.60    4.79
  -1  -1  -9   52.46    5.79
   1  -1   9   44.77    5.44
   1  -1  -9   46.23    5.66
  -1   1   9   43.30    5.35
  -1   1  -9   51.40    5.83
   1   1   9   41.07    5.93
   1   1  -9   49.34    5.66
  -2  -1   0  175.38    5.32
  -2  -1   0  188.79    5.17
   2  -1   0  153.96    5.13
  -2   1   0  151.82    4.98
  -2   1   0  139.06    4.64
   2   1   0  144.92    3.05
   2   1   0  189.93    5.54
   2   1   0  162.77    5.33
  -2  -1   1  493.15    9.49
  -2  -1   1  518.87    7.68
  -2  -1  -1  493.04    9.25
   2  -1   1  501.45    9.53
   2  -1   1  496.41    5.36
   2  -1  -1  405.97    8.52
  -2   1   1  430.49    8.87
  -2   1   1  429.14    7.68
  -2   1   1  426.75    5.54
  -2   1  -1  470.97    8.30
  -2   1  -1  403.19    8.50
   2   1   1  500.03    6.14
   2   1   1  552.45    8.88
   2   1   1  476.01    9.34
   2   1  -1  483.74    6.90
   2   1  -1  421.04    8.79
  -2  -1   2   33.29    2.68
  -2  -1   2   34.06    1.82
  -2  -1  -2   35.62    2.05
  -2  -1  -2   32.63    2.73
   2  -1   2   33.52    2.73
   2  -1   2   29.48    1.80
   2  -1  -2   27.82    2.44
   2  -1  -2   27.35    1.91
  -2   1   2   24.62    2.32
  -2   1   2   26.78    1.89
  -2   1  -2   31.90    2.07
  -2   1  -2   27.50    2.46
   2   1   2   38.73    2.25
   2   1   2   28.41    2.52
   2   1  -2   33.21    2.23
   2   1  -2   25.47    2.38
  -2  -1   3  134.58    5.62
  -2  -1   3  134.07    3.33
  -2  -1  -3  145.69    4.96
  -2  -1  -3  112.71    5.33
   2  -1   3  149.89    6.16
   2  -1   3  120.25    4.49
   2  -1  -3  114.60    5.33
   2  -1  -3  115.18    3.90
  -2   1   3   99.99    4.84
  -2   1   3  106.29    4.46
  -2   1  -3  147.82    4.19
  -2   1  -3  109.68    5.23
   2   1   3  150.53    4.03
   2   1   3  120.84    5.52
   2   1  -3  132.31    5.19
   2   1  -3  109.19    5.27
  -2  -1   4    0.92    0.85
  -2  -1   4    1.30    0.50
  -2  -1  -4    0.58    0.75
  -2  -1  -4    0.88    0.86
   2  -1   4    0.53    0.74
   2  -1  -4    0.84    0.78
   2  -1  -4    0.98    0.69
  -2   1   4    1.60    0.99
  -2   1   4    0.90    0.73
  -2   1  -4    1.79    1.05
  -2   1  -4    1.13    0.58
  -2   1  -4    0.97    0.79
   2   1   4    1.60    0.54
   2   1   4    1.22    1.05
   2   1  -4    0.79    0.62
   2   1  -4    0.99    0.84
  -2  -1   5  179.46    7.30
  -2  -1  -5  204.55    7.77
  -2  -1  -5  166.93    7.59
   2  -1   5  177.80    7.31
   2  -1  -5  167.49    7.75
  -2   1   5  147.42    6.55
  -2   1   5  153.49    7.02
  -2   1  -5  200.89    8.55
  -2   1  -5  159.68    7.32
   2   1   5  166.06    7.79
   2   1  -5  198.66    8.16
   2   1  -5  151.91    7.46
  -2  -1   6    6.35    1.83
  -2  -1  -6    8.89    2.23
  -2  -1  -6    4.85    1.85
   2  -1   6    4.99    1.75
   2  -1  -6    5.31    1.93
  -2   1   6    3.75    1.34
  -2   1   6    5.45    1.89
  -2   1  -6    9.09    2.52
  -2   1  -6    5.76    1.85
   2   1   6    6.95    2.22
   2   1  -6    6.37    2.01
   2   1  -6    5.87    2.00
  -2  -1   7    4.10    1.76
  -2  -1  -7    7.52    2.27
  -2  -1  -7    4.23    2.01
   2  -1   7    4.27    1.79
   2  -1  -7    4.93    2.12
  -2   1   7    3.85    1.80
  -2   1  -7    4.03    1.76
  -2   1  -7    6.08    2.18
   2   1   7    3.93    1.77
   2   1  -7    5.10    1.99
  -2  -1  -8   94.02    7.01
  -2  -1  -8   70.87    6.04
   2  -1   8   65.58    5.96
   2  -1  -8   66.56    6.29
  -2   1   8   59.44    5.89
  -2   1  -8   73.46    6.65
  -2   1  -8   62.65    5.56
   2   1   8   72.02    6.60
   2   1  -8   78.24    6.76
  -2  -1   9    6.04    2.42
  -2  -1  -9    6.89    2.76
   2  -1   9    6.83    2.53
   2  -1  -9    9.81    3.40
  -2   1   9    4.89    2.19
  -2   1  -9    6.37    2.49
   2   1   9    4.67    2.30
   2   1  -9    8.42    2.82
  -3  -1   0    1.09    0.71
  -3  -1   0    0.26    0.50
   3  -1   0    0.31    0.56
   3  -1   0   -0.06    0.22
  -3   1   0    0.01    0.35
  -3   1   0   -0.06    0.36
   3   1   0    0.22    0.35
   3   1   0    0.19    0.58
  -3  -1   1   80.65    4.39
  -3  -1   1   84.69    3.51
  -3  -1  -1   91.26    4.16
  -3  -1  -1   86.11    4.34
   3  -1   1   82.75    4.49
   3  -1   1   90.68    2.69
   3  -1  -1   68.72    4.12
   3  -1  -1   71.96    2.65
  -3   1   1   69.12    4.08
  -3   1   1   71.72    3.50
  -3   1  -1   74.46    3.82
  -3   1  -1   70.28    4.00
   3   1   1   76.62    3.10
   3   1   1   82.55    4.46
   3   1  -1   74.14    3.30
   3   1  -1   77.49    4.33
  -3  -1   2    4.43    1.45
  -3  -1   2    4.48    0.84
  -3  -1  -2    3.37    0.99
  -3  -1  -2    3.05    1.19
   3  -1   2    2.43    1.05
   3  -1   2    4.27    0.92
   3  -1  -2    2.15    1.05
   3  -1  -2    3.45    0.95
  -3   1   2    2.47    1.21
  -3   1   2    2.96    0.93
  -3   1  -2    3.85    1.03
  -3   1  -2    2.82    1.15
   3   1   2    4.03    1.05
   3   1   2    3.49    1.24
   3   1  -2    4.04    1.14
   3   1  -2    3.70    1.33
  -3  -1   3    1.06    0.88
  -3  -1  -3    0.71    0.52
  -3  -1  -3    0.56    0.72
   3  -1   3    0.91    0.95
   3  -1   3    0.56    0.66
   3  -1  -3    0.61    0.72
   3  -1  -3    0.99    0.56
  -3   1   3    0.54    0.70
  -3   1   3    0.81    0.66
  -3   1  -3    0.95    0.61
  -3   1  -3    0.57    0.79
   3   1   3    1.05    0.70
   3   1   3    0.21    0.64
   3   1  -3    0.29    0.64
   3   1  -3    0.49    0.75
  -3  -1   4  291.08    9.76
  -3  -1  -4  311.76    8.87
  -3  -1  -4  266.89    9.64
   3  -1   4  315.00   10.46
   3  -1   4  275.06    8.15
   3  -1  -4  250.63    9.34
  -3   1   4  230.44    8.65
  -3   1   4  239.90    8.03
  -3   1  -4  237.92    9.08
   3   1   4  264.29    9.52
   3   1  -4  266.10    8.87
   3   1  -4  232.45    8.99
  -3  -1   5  101.76    6.11
  -3  -1  -5  120.23    6.15
  -3  -1  -5  101.42    6.39
   3  -1   5  121.71    7.03
   3  -1   5  101.37    5.60
   3  -1  -5   90.12    6.08
  -3   1   5   86.08    5.59
  -3   1   5   90.67    5.56
  -3   1  -5   91.45    6.03
   3   1   5  103.39    6.45
   3   1  -5  105.76    6.21
   3   1  -5   87.83    5.98
  -3  -1   6    0.12    0.76
  -3  -1  -6    0.27    0.74
  -3  -1  -6    0.24    0.63
   3  -1   6    0.29    0.88
   3  -1   6   -0.03    0.70
   3  -1  -6    0.83    1.09
  -3   1   6   -0.16    0.77
  -3   1   6    0.79    0.72
  -3   1  -6    0.28    0.81
   3   1   6    0.24    0.85
   3   1  -6    0.51    0.86
   3   1  -6   -0.12    0.71
  -3  -1   7    0.95    1.13
  -3  -1   7    0.54    0.97
  -3  -1  -7    0.98    0.98
  -3  -1  -7    1.08    1.16
   3  -1   7    1.63    1.16
   3  -1   7    1.31    1.26
   3  -1  -7    1.86    1.31
  -3   1   7    1.92    1.28
  -3   1   7    1.96    1.37
  -3   1  -7    1.15    1.21
  -3   1  -7    1.22    1.13
   3   1   7    2.08    1.52
   3   1  -7    1.64    1.33
   3   1  -7    2.50    1.66
  -3  -1   8   19.15    4.06
  -3  -1  -8   33.83    4.74
  -3  -1  -8   29.00    4.62
   3  -1   8   29.06    4.54
   3  -1  -8   27.57    4.88
  -3   1   8   27.92    4.47
  -3   1  -8   35.07    5.27
  -3   1  -8   22.75    4.18
   3   1   8   28.89    5.01
   3   1  -8   33.52    5.09
  -4  -1   0   64.73    4.24
  -4  -1   0   65.47    3.89
   4  -1   0   59.22    4.30
   4  -1   0   57.96    2.58
  -4   1   0   53.54    3.87
  -4   1   0   51.16    3.55
   4   1   0   49.44    3.09
   4   1   0   61.73    4.25
  -4  -1   1   19.99    2.80
  -4  -1   1   23.08    2.19
  -4  -1  -1   20.11    2.32
  -4  -1  -1   21.54    2.56
   4  -1   1   21.42    2.64
   4  -1   1   24.87    1.78
   4  -1  -1   21.18    2.92
   4  -1  -1   20.75    1.73
  -4   1   1   18.12    2.67
  -4   1   1   17.23    1.98
  -4   1  -1   17.55    2.16
  -4   1  -1   16.26    2.42
   4   1   1   20.72    2.05
   4   1   1   19.13    2.78
   4   1  -1   19.47    2.09
   4   1  -1   22.11    2.66
  -4  -1   2   49.21    4.11
  -4  -1   2   48.85    2.59
  -4  -1  -2   52.59    3.42
  -4  -1  -2   42.23    3.66
   4  -1   2   50.57    4.09
   4  -1   2   53.48    2.93
   4  -1  -2   46.27    3.96
   4  -1  -2   45.50    2.88
  -4   1   2   37.93    3.59
  -4   1   2   42.61    2.80
  -4   1  -2   47.73    3.32
  -4   1  -2   39.77    3.58
   4   1   2   49.26    3.24
   4   1   2   48.63    3.94
   4   1  -2   39.59    3.12
   4   1  -2   43.82    3.76
  -4  -1   3    0.10    0.68
  -4  -1  -3   -0.14    0.48
   4  -1   3    0.27    0.61
   4  -1   3    0.12    0.63
   4  -1  -3    0.59    0.76
   4  -1  -3    0.12    0.62
  -4   1   3    0.20    0.62
  -4   1  -3    0.08    0.51
  -4   1  -3    0.36    0.61
   4   1   3   -0.22    0.57
   4   1   3    0.00    0.63
   4   1  -3   -0.14    0.51
   4   1  -3    0.42    0.73
  -4  -1   4   54.44    4.73
  -4  -1  -4   51.08    4.58
   4  -1   4   56.28    4.80
   4  -1   4   56.48    3.92
   4  -1  -4   48.94    4.50
  -4   1   4   40.70    4.07
  -4   1   4   46.86    3.75
  -4   1  -4   49.38    4.53
   4   1   4   57.78    4.14
   4   1   4   50.59    4.48
   4   1  -4   50.13    4.15
   4   1  -4   42.31    4.17
  -4  -1   5   19.20    3.44
  -4  -1  -5   17.95    3.42
   4  -1   5   24.28    3.82
   4  -1   5   21.22    3.00
   4  -1  -5   17.54    3.43
  -4   1   5   15.72    3.14
  -4   1   5   16.97    2.87
  -4   1  -5   15.96    3.24
   4   1   5   17.90    2.86
   4   1   5   17.65    3.38
   4   1  -5   20.99    3.30
   4   1  -5   13.87    3.19
  -4  -1   6   58.78    5.38
  -4  -1  -6   53.41    5.33
   4  -1   6   61.85    5.68
   4  -1   6   60.13    4.91
   4  -1  -6   49.32    5.15
  -4   1   6   49.30    4.89
  -4   1   6   50.94    4.72
  -4   1  -6   50.63    5.15
   4   1   6   61.21    5.02
   4   1   6   50.01    5.11
   4   1  -6   52.60    5.05
   4   1  -6   45.49    4.87
  -4  -1   7  124.44    8.04
  -4  -1  -7  123.85    8.57
   4  -1   7  142.69    9.24
   4  -1  -7  117.15    8.45
  -4   1   7  115.76    7.73
  -4   1   7  110.14    7.58
  -4   1  -7  111.68    8.09
   4   1   7  146.91    8.50
   4   1   7  125.07    8.56
   4   1  -7  121.79    8.24
   4   1  -7  104.15    7.90
  -4  -1   8    6.23    2.10
  -4  -1  -8   10.51    3.14
   4  -1   8   11.21    3.21
   4  -1  -8    9.51    3.19
  -4   1   8    7.39    2.67
  -4   1  -8    9.19    3.07
   4   1   8    6.00    2.84
   4   1  -8   10.97    3.14
  -5  -1   0   -0.30    0.58
  -5  -1   0    0.06    0.64
   5  -1   0   -0.07    0.63
  -5   1   0    0.08    0.65
  -5   1   0    0.35    0.69
   5   1   0    0.09    0.64
   5   1   0   -0.25    0.61
  -5  -1   1  270.05   10.05
  -5  -1   1  277.78    7.90
  -5  -1  -1  262.38    9.05
  -5  -1  -1  268.77    9.26
   5  -1   1  234.14    9.46
   5  -1  -1  225.86    9.33
  -5   1   1  218.48    9.07
  -5   1   1  242.64    7.92
  -5   1  -1  227.60    8.49
  -5   1  -1  234.62    8.89
   5   1   1  213.52    7.30
   5   1   1  247.65    9.41
   5   1  -1  201.15    7.35
   5   1  -1  247.36    9.42
  -5  -1   2  145.14    7.69
  -5  -1  -2  138.61    6.24
  -5  -1  -2  120.34    6.68
   5  -1   2  130.25    7.23
   5  -1  -2  116.00    6.87
  -5   1   2  104.76    6.56
  -5   1  -2  113.31    5.70
  -5   1  -2  131.17    7.07
   5   1   2  117.72    5.62
   5   1   2  135.05    7.12
   5   1  -2  116.86    5.90
   5   1  -2  123.07    6.86
  -5  -1   3   79.97    5.96
  -5  -1  -3   74.23    5.61
   5  -1   3   78.65    5.78
   5  -1  -3   70.21    5.60
  -5   1   3   64.92    5.41
  -5   1  -3   74.96    5.68
   5   1   3   82.05    4.96
   5   1   3   84.51    5.88
   5   1  -3   72.34    4.98
   5   1  -3   73.35    5.53
  -5  -1   4   39.28    4.47
  -5  -1  -4   38.55    4.35
   5  -1   4   41.14    4.40
   5  -1  -4   33.77    4.11
  -5   1   4   33.66    4.08
  -5   1  -4   33.74    4.06
   5   1   4   42.09    4.38
   5   1  -4   35.68    3.81
   5   1  -4   32.48    3.93
  -5  -1   5   13.55    3.27
  -5  -1  -5   10.91    2.96
   5  -1   5   13.94    3.24
   5  -1  -5   11.35    3.07
  -5   1   5   14.78    3.32
  -5   1  -5   13.11    3.27
   5   1   5   12.69    3.18
   5   1  -5   13.91    3.03
   5   1  -5   12.22    3.16
  -5  -1   6   13.74    3.40
  -5  -1  -6   14.93    3.66
   5  -1   6   16.65    3.75
   5  -1  -6   14.60    3.83
  -5   1   6   15.85    3.53
  -5   1  -6   16.79    3.82
   5   1   6   20.98    4.10
   5   1  -6   16.79    3.65
   5   1  -6   13.16    3.50
  -5  -1   7    0.09    1.43
  -5  -1  -7    0.66    1.20
   5  -1   7    1.20    1.30
   5  -1  -7   -0.27    0.96
  -5   1   7    1.19    1.37
  -5   1  -7   -0.31    0.95
   5   1   7   -0.46    1.20
   5   1  -7    0.93    1.27
   5   1  -7    0.54    1.24
  -6  -1   0    9.15    2.53
  -6  -1   0    9.81    2.20
   6  -1   0    7.51    2.30
  -6   1   0    8.94    2.46
  -6   1   0    9.67    2.30
   6   1   0    7.90    2.31
  -6  -1   1   46.33    4.73
  -6  -1  -1   45.55    4.24
  -6  -1  -1   46.05    4.17
   6  -1   1   36.08    4.10
   6  -1  -1   38.70    4.26
  -6   1   1   32.58    3.92
  -6   1  -1   38.88    3.93
  -6   1  -1   39.37    3.99
   6   1   1   50.02    4.65
   6   1  -1   45.96    4.45
  -6  -1   2   46.80    4.83
  -6  -1  -2   48.10    4.58
   6  -1   2   43.33    4.55
   6  -1  -2   39.05    4.37
  -6   1   2   40.50    4.50
  -6   1  -2   43.11    4.41
   6   1   2   41.01    4.30
   6   1  -2   44.73    4.05
   6   1  -2   45.29    4.50
  -6  -1   3    0.22    0.86
  -6  -1  -3    0.39    0.87
   6  -1   3    0.84    0.92
   6  -1  -3    0.50    0.91
  -6   1   3    0.31    0.86
  -6   1  -3    0.78    0.90
   6   1   3    1.39    1.14
   6   1  -3   -0.98    0.86
   6   1  -3   -0.08    0.91
  -6  -1   4    4.39    1.84
  -6  -1  -4    5.40    2.12
   6  -1   4    5.56    2.21
   6  -1  -4    4.69    2.08
  -6   1   4    4.72    2.09
  -6   1  -4    6.36    2.31
   6   1   4    4.71    1.97
   6   1  -4    5.69    2.14
   6   1  -4    4.18    1.88
  -6  -1   5  101.26    7.95
  -6  -1  -5   95.15    7.66
   6  -1   5  112.55    8.17
   6  -1  -5   97.87    7.81
  -6   1   5   89.08    7.41
  -6   1  -5   94.23    7.67
   6   1   5  107.58    7.76
   6   1  -5   93.30    7.33
  -6  -1  -6   62.30    6.52
   6  -1   6   58.45    6.10
   6  -1  -6   50.41    5.84
  -6   1   6   56.10    6.16
  -6   1  -6   50.54    5.95
   6   1   6   64.20    6.34
   6   1  -6   60.49    5.89
   6   1  -6   52.44    5.81
  -7  -1   0   -0.09    0.98
   7  -1   0   -0.86    0.72
  -7   1   0   -0.42    0.96
   7   1   0    0.24    1.03
  -7  -1   1    0.57    1.22
  -7  -1  -1   -0.07    1.07
   7  -1   1    1.01    1.00
   7  -1  -1   -0.11    0.87
  -7   1   1    1.18    1.32
  -7   1  -1   -0.02    1.12
  -7   1  -1    0.88    1.00
   7   1   1    0.37    0.96
   7   1  -1    0.40    0.91
  -7  -1   2    2.90    1.64
  -7  -1  -2    1.79    1.18
   7  -1   2    2.46    1.45
   7  -1  -2    2.79    1.60
  -7   1   2    0.24    1.07
  -7   1  -2    1.76    1.29
   7   1   2    1.93    1.51
   7   1  -2    1.80    1.28
  -7  -1   3   18.43    4.08
  -7  -1  -3   17.88    3.74
   7  -1   3   13.77    3.50
   7  -1  -3   16.16    3.81
  -7   1   3   17.37    4.08
  -7   1  -3   18.45    3.95
   7   1   3   17.40    3.90
   7   1  -3   16.88    3.77
  -7  -1   4    4.87    1.97
  -7  -1  -4    4.62    2.16
   7  -1   4    1.92    1.16
   7  -1  -4    4.79    2.39
  -7   1   4    3.00    1.89
  -7   1  -4    2.80    2.04
   7   1   4    3.68    2.06
   7   1  -4    5.86    2.21
  -8  -1   0  252.79   12.25
   8  -1   0  219.66   11.95
  -8   1   0  233.73   11.86
  -8  -1   1    0.54    1.42
   8  -1   1    2.16    1.35
   8  -1  -1    3.10    1.52
  -8   1   1    0.25    1.20
   8   1  -1    1.64    1.67
   0  -2   0  742.70    8.94
   0  -2   0  927.87   14.47
   0   2   0 1053.11   15.44
   0   2   0  857.45   11.33
   0  -2   1    0.42    0.43
   0  -2   1    0.03    0.52
   0  -2  -1    0.02    0.35
   0  -2  -1    0.39    0.66
   0   2   1   -0.34    0.38
   0   2   1   -0.18    0.37
   0   2  -1   -0.04    0.41
   0   2  -1   -0.13    0.29
   0  -2   2    0.39    0.46
   0  -2  -2    0.63    0.47
   0  -2  -2    3.15    1.31
   0   2   2    0.43    0.63
   0   2   2    0.71    0.65
   0   2  -2    0.65    0.57
   0   2  -2    0.28    0.63
   0   2  -2    0.37    0.52
   0  -2  -3    0.21    0.54
   0  -2  -3   -0.04    0.67
   0   2   3   -0.46    0.44
   0   2   3    0.12    0.56
   0   2  -3    0.22    0.54
   0   2  -3   -0.41    0.51
   0   2  -3    0.50    0.60
   0   2  -3   -0.27    0.51
   0  -2  -4  286.31    8.37
   0  -2  -4  241.44    8.59
   0   2   4  263.04    8.15
   0   2   4  244.15    8.57
   0   2  -4  312.07    9.48
   0   2  -4  321.24    9.21
   0   2  -4  222.48    7.78
   0   2  -4  230.89    8.07
   0  -2  -5   -0.39    0.53
   0  -2  -5    0.26    0.60
   0   2   5    0.01    0.55
   0   2   5   -0.26    0.72
   0   2  -5   -0.25    0.56
   0   2  -5   -0.19    0.58
   0   2  -5    0.87    0.79
   0   2  -5    0.81    0.98
   0  -2   6   11.49    2.68
   0  -2  -6   17.84    3.09
   0  -2  -6   14.11    2.86
   0   2   6   13.62    3.04
   0   2  -6   10.91    2.64
   0   2  -6   12.51    2.41
   0  -2   7    0.11    0.82
   0  -2  -7    0.05    0.79
   0  -2  -7    1.10    1.15
   0   2   7   -0.53    1.00
   0   2  -7    0.63    0.91
   0  -2   8    6.98    2.22
   0  -2  -8    9.06    2.75
   0   2   8    6.19    2.41
   0   2  -8    9.80    2.89
  -1  -2   0   -0.16    0.59
   1  -2   0    0.00    0.43
   1  -2   0    0.14    0.53
  -1   2   0   -0.22    0.37
  -1   2   0    0.07    0.27
   1   2   0   -0.01    0.39
   1   2   0    0.12    0.43
  -1  -2   1    0.81    0.43
  -1  -2   1    1.12    0.80
  -1  -2  -1    0.25    0.61
   1  -2   1    0.38    0.55
   1  -2  -1    0.21    0.49
   1  -2  -1    0.46    0.63
  -1   2   1    0.73    0.67
  -1   2   1    0.28    0.42
  -1   2  -1    0.85    0.75
  -1   2  -1    0.60    0.66
  -1   2  -1    0.60    0.35
   1   2   1    1.14    0.77
   1   2   1    0.52    0.65
   1   2  -1    0.78    0.70
   1   2  -1    0.91    0.64
  -1  -2   2   22.37    2.30
  -1  -2  -2   25.69    1.57
  -1  -2  -2   17.64    2.54
   1  -2   2   25.04    2.40
   1  -2  -2   21.68    2.10
   1  -2  -2   19.67    2.33
  -1   2   2   20.70    2.40
  -1   2   2   20.43    1.87
  -1   2  -2   24.18    2.42
  -1   2  -2   16.73    2.37
  -1   2  -2   19.23    1.68
   1   2   2   24.72    2.45
   1   2   2   19.80    2.30
   1   2  -2   26.36    2.00
   1   2  -2   26.63    2.70
   1   2  -2   16.60    2.02
  -1  -2   3  157.44    5.95
  -1  -2  -3  183.69    5.29
  -1  -2  -3  153.24    6.80
   1  -2   3  186.47    7.02
   1  -2  -3  151.47    5.97
   1  -2  -3  154.36    6.36
  -1   2   3  151.81    6.44
  -1   2   3  145.24    5.58
  -1   2  -3  190.45    6.73
  -1   2  -3  135.98    6.23
  -1   2  -3  144.55    5.27
   1   2   3  162.85    6.08
   1   2   3  149.05    6.49
   1   2  -3  197.19    6.39
   1   2  -3  193.74    7.34
   1   2  -3  138.08    6.13
  -1  -2  -4   33.88    2.81
  -1  -2  -4   28.22    3.21
   1  -2   4   24.30    2.55
   1  -2  -4   29.59    3.03
   1  -2  -4   27.73    2.93
  -1   2   4   25.25    2.79
  -1   2   4   24.07    2.71
  -1   2  -4   35.08    3.36
  -1   2  -4   34.90    3.00
  -1   2  -4   22.47    2.73
   1   2   4   27.72    2.56
   1   2   4   25.91    3.02
   1   2  -4   30.91    2.95
   1   2  -4   29.48    3.05
   1   2  -4   25.03    2.49
   1   2  -4   25.19    2.89
  -1  -2   5   83.28    5.18
  -1  -2  -5   94.10    5.24
  -1  -2  -5   69.21    5.15
   1  -2   5   62.66    4.47
   1  -2  -5   71.81    5.02
   1  -2  -5   71.78    4.77
  -1   2   5   66.69    4.57
  -1   2   5   61.23    4.63
  -1   2  -5   80.32    5.53
  -1   2  -5   54.02    4.36
   1   2   5   65.50    5.10
   1   2  -5   80.31    5.26
   1   2  -5   62.74    4.04
   1   2  -5   60.65    4.84
  -1  -2   6  167.99    7.62
  -1  -2  -6  182.29    8.06
  -1  -2  -6  139.06    7.68
   1  -2   6  139.02    7.35
   1  -2  -6  154.90    8.00
   1  -2  -6  155.32    7.34
  -1   2   6  135.19    6.69
  -1   2   6  143.23    7.77
  -1   2  -6  159.69    8.51
  -1   2  -6  127.45    7.06
   1   2   6  145.31    8.20
   1   2  -6  172.15    8.50
   1   2  -6  132.00    7.71
  -1  -2   7   24.48    4.01
  -1  -2  -7   44.64    4.42
  -1  -2  -7   32.62    3.99
   1  -2   7   27.74    3.96
   1  -2  -7   39.20    4.41
  -1   2   7   29.87    4.46
  -1   2  -7   40.78    4.68
  -1   2  -7   36.09    4.03
   1   2   7   32.61    4.86
   1   2  -7   43.20    4.68
  -1  -2   8   -0.45    0.91
   1  -2   8    0.62    1.08
   1  -2  -8    0.77    1.06
  -1   2   8    0.27    1.31
  -1   2  -8    0.58    1.15
   1   2   8    0.14    1.21
   1   2  -8    0.70    1.12
  -2  -2   0    9.72    1.92
   2  -2   0    7.17    1.59
  -2   2   0    6.03    1.64
  -2   2   0    5.73    1.54
   2   2   0    6.78    1.67
   2   2   0    7.21    1.86
  -2  -2   1    3.75    1.31
  -2  -2  -1    2.96    1.29
   2  -2   1    3.50    1.24
   2  -2  -1    4.08    1.28
   2  -2  -1    3.27    1.23
  -2   2   1    2.85    1.18
  -2   2   1    2.71    0.55
  -2   2  -1    2.06    1.03
  -2   2  -1    1.92    1.05
   2   2   1    3.57    1.24
   2   2   1    2.09    1.13
   2   2  -1    3.86    0.60
   2   2  -1    3.17    1.24
   2   2  -1    1.46    0.99
  -2  -2   2   62.18    3.70
  -2  -2  -2   63.70    4.44
   2  -2   2   67.27    4.32
   2  -2   2   63.63    2.49
   2  -2  -2   55.34    3.80
   2  -2  -2   57.37    3.85
  -2   2   2   57.09    4.16
  -2   2   2   59.68    2.79
  -2   2  -2   58.95    3.83
  -2   2  -2   49.93    3.92
   2   2   2   68.02    4.05
   2   2   2   57.44    4.15
   2   2  -2   73.41    3.18
   2   2  -2   67.95    4.57
   2   2  -2   50.26    3.82
  -2  -2   3   43.06    3.74
  -2  -2   3   38.98    2.93
  -2  -2  -3   46.53    2.53
  -2  -2  -3   39.65    3.72
   2  -2   3   47.93    3.90
   2  -2   3   39.04    2.55
   2  -2  -3   35.46    3.25
   2  -2  -3   35.80    3.12
  -2   2   3   32.22    3.24
  -2   2   3   39.80    2.85
  -2   2  -3   44.17    3.32
  -2   2  -3   28.62    3.10
   2   2   3   49.21    3.41
   2   2   3   39.40    3.62
   2   2  -3   43.54    2.99
   2   2  -3   29.45    3.14
  -2  -2   4   36.11    3.61
  -2  -2   4   33.39    2.77
  -2  -2  -4   33.52    2.67
  -2  -2  -4   28.30    3.37
   2  -2   4   35.33    3.62
   2  -2   4   28.72    2.64
   2  -2  -4   27.33    3.11
   2  -2  -4   29.69    2.94
  -2   2   4   27.35    3.11
  -2   2   4   27.58    2.78
  -2   2  -4   35.94    2.99
  -2   2  -4   22.64    3.20
   2   2   4   38.20    2.97
   2   2   4   26.00    3.55
   2   2  -4   34.38    3.13
   2   2  -4   21.01    3.23
  -2  -2   5  120.75    6.72
  -2  -2  -5  105.92    6.71
   2  -2   5  128.68    7.37
   2  -2   5  110.22    5.75
   2  -2  -5  112.55    6.68
   2  -2  -5  100.57    5.40
  -2   2   5   97.28    5.98
  -2   2   5  101.40    5.82
  -2   2  -5   91.03    6.09
   2   2   5  102.19    6.63
   2   2  -5  127.33    6.63
   2   2  -5   99.42    6.46
  -2  -2   6  103.52    6.46
  -2  -2  -6   82.42    6.28
   2  -2   6  112.41    7.48
   2  -2   6   99.67    6.08
   2  -2  -6   92.59    6.54
  -2   2   6   87.44    5.87
  -2   2   6   80.67    5.72
  -2   2  -6  113.20    7.48
  -2   2  -6   86.51    6.23
   2   2   6   88.54    6.66
   2   2  -6  107.82    6.74
   2   2  -6   82.89    6.41
  -2  -2  -7    0.89    0.98
   2  -2   7    0.80    1.04
   2  -2  -7    1.63    1.22
  -2   2   7    0.43    1.08
  -2   2  -7    0.78    0.98
  -2   2  -7    1.04    1.09
   2   2   7    0.57    1.21
   2   2  -7    1.10    1.31
   2   2  -7    0.53    1.28
  -2  -2  -8   66.95    6.27
   2  -2  -8   75.11    6.85
  -2   2   8   70.13    6.40
  -2   2  -8   76.22    7.06
   2   2   8   61.66    6.33
   2   2  -8   80.55    6.92
  -3  -2   0    0.13    0.63
   3  -2   0   -0.21    0.67
  -3   2   0    0.26    0.55
  -3   2   0    0.30    0.61
   3   2   0   -0.18    0.54
   3   2   0   -0.44    0.52
  -3  -2   1  261.91    9.15
  -3  -2   1  258.72    7.89
  -3  -2  -1  257.17    8.79
   3  -2   1  244.17    8.68
   3  -2  -1  219.65    8.18
  -3   2   1  215.02    8.32
  -3   2   1  212.39    7.69
  -3   2  -1  237.90    8.26
  -3   2  -1  202.71    7.98
   3   2   1  269.29    8.70
   3   2   1  240.71    8.80
   3   2  -1  224.22    8.49
  -3  -2   2  276.98    9.76
  -3  -2   2  274.12    7.72
  -3  -2  -2  264.65    9.42
   3  -2   2  285.23    9.72
   3  -2  -2  231.51    8.64
   3  -2  -2  247.98    8.12
  -3   2   2  235.02    8.99
  -3   2  -2  273.51    8.65
  -3   2  -2  218.54    8.65
   3   2   2  316.97    9.15
   3   2   2  254.34    9.36
   3   2  -2  219.26    8.66
  -3  -2   3   98.96    6.09
  -3  -2   3   91.79    4.28
  -3  -2  -3   96.26    6.04
   3  -2   3   99.84    6.08
   3  -2  -3   82.15    5.43
   3  -2  -3   89.51    4.93
  -3   2   3   72.66    5.20
  -3   2  -3   87.38    4.81
  -3   2  -3   70.98    5.19
   3   2   3  101.43    5.06
   3   2   3   91.89    5.93
   3   2  -3   97.83    4.63
   3   2  -3   78.16    5.45
  -3  -2   4    1.58    1.16
  -3  -2  -4    2.45    1.47
   3  -2   4    1.37    1.12
   3  -2  -4    1.36    1.18
  -3   2   4    1.54    1.14
  -3   2  -4    0.15    0.72
   3   2   4    1.15    1.15
   3   2  -4    1.49    0.83
   3   2  -4    0.62    0.94
  -3  -2   5    0.87    0.95
  -3  -2  -5    0.30    0.85
   3  -2   5    1.15    1.11
   3  -2  -5    0.68    1.07
  -3   2   5    0.35    1.01
  -3   2  -5    0.99    1.02
   3   2   5   -0.10    0.88
   3   2  -5    0.34    0.88
   3   2  -5    0.61    0.94
  -3  -2   6   24.87    3.83
  -3  -2  -6   21.28    3.87
   3  -2   6   32.26    4.71
   3  -2  -6   26.62    4.24
  -3   2   6   23.18    3.74
  -3   2  -6   22.20    3.87
   3   2   6   27.53    4.52
   3   2  -6   27.41    3.95
   3   2  -6   22.11    4.17
  -3  -2   7    0.17    1.05
  -3  -2  -7    0.21    0.83
   3  -2   7   -0.24    0.96
   3  -2  -7   -0.05    1.00
  -3   2   7   -0.91    0.81
  -3   2  -7    0.46    1.19
   3   2   7    0.96    1.25
   3   2  -7    0.67    1.26
   3   2  -7   -0.65    1.18
  -3  -2   8    3.77    2.09
  -3  -2  -8    2.69    1.66
   3  -2   8    5.48    2.47
   3  -2  -8    5.83    2.51
  -3   2  -8    3.14    1.67
   3   2   8    3.24    1.80
   3   2  -8    4.89    1.88
   3   2  -8    4.74    2.12
  -4  -2   0  112.55    6.30
  -4  -2   0  109.89    5.83
   4  -2   0   98.22    6.09
  -4   2   0   88.43    5.62
  -4   2   0   88.17    5.45
   4   2   0   92.50    5.95
  -4  -2   1   12.19    2.59
  -4  -2   1   13.39    2.30
  -4  -2  -1   13.60    2.49
  -4  -2  -1   16.50    2.78
   4  -2   1   10.89    2.61
   4  -2  -1   10.40    2.58
  -4   2   1   10.26    2.47
  -4   2   1   10.51    2.24
  -4   2  -1   10.41    2.34
  -4   2  -1   10.27    2.40
   4   2   1    9.89    2.52
   4   2  -1   10.25    2.58
  -4  -2   2   77.14    5.62
  -4  -2  -2   86.60    5.16
  -4  -2  -2   79.61    5.56
   4  -2   2   76.67    5.62
   4  -2  -2   72.63    5.42
   4  -2  -2   73.99    4.69
  -4   2   2   55.43    4.77
  -4   2  -2   71.86    4.80
  -4   2  -2   58.82    4.86
   4   2   2   69.08    5.31
   4   2  -2   64.51    5.16
  -4  -2   3   -0.51    0.60
  -4  -2  -3   -0.71    0.52
   4  -2   3    0.25    0.83
   4  -2  -3   -0.30    0.75
  -4   2   3    0.56    0.84
  -4   2  -3    0.38    0.84
  -4   2  -3   -0.46    0.57
   4   2   3   -0.22    0.80
   4   2  -3    0.03    0.84
  -4  -2   4  114.12    7.36
  -4  -2  -4   98.05    6.86
   4  -2   4  115.44    7.46
   4  -2  -4   97.55    6.79
  -4   2   4   92.68    6.60
  -4   2  -4   90.17    6.58
   4   2   4  107.95    7.19
   4   2  -4   88.49    6.53
  -4  -2   5    2.64    1.53
  -4  -2  -5    1.97    1.37
   4  -2   5    4.80    2.11
   4  -2  -5    2.38    1.61
  -4   2   5    3.18    1.74
  -4   2  -5    2.98    1.67
   4   2   5    2.68    1.54
   4   2  -5    0.63    1.20
  -4  -2   6   85.87    6.87
  -4  -2  -6   79.03    6.83
   4  -2   6  103.71    7.93
   4  -2  -6   84.64    7.05
  -4   2   6   78.57    6.53
  -4   2  -6   80.05    6.83
   4   2   6   87.71    7.22
   4   2  -6   73.91    6.65
  -4  -2   7   50.17    5.41
  -4  -2  -7   43.62    5.35
   4  -2   7   50.91    5.95
   4  -2  -7   39.23    5.61
  -4   2   7   42.39    4.96
  -4   2  -7   40.23    5.00
   4   2   7   42.03    6.01
   4   2  -7   39.81    5.85
  -5  -2   0    0.12    0.74
  -5  -2   0   -0.04    0.60
   5  -2   0   -0.25    0.74
  -5   2   0    0.05    0.63
  -5   2   0    0.03    0.65
   5   2   0    0.21    0.75
  -5  -2   1    0.74    0.73
  -5  -2  -1    0.60    0.79
  -5  -2  -1    0.65    0.85
   5  -2   1    0.01    1.10
   5  -2  -1    0.21    0.89
  -5   2   1    0.16    0.78
  -5   2   1   -0.20    0.67
  -5   2  -1    0.51    0.75
  -5   2  -1    0.09    0.64
   5   2   1    0.60    0.94
   5   2  -1    0.03    0.75
  -5  -2   2   38.63    4.33
  -5  -2  -2   39.74    3.87
  -5  -2  -2   35.84    3.99
   5  -2   2   36.96    4.34
   5  -2  -2   32.00    4.43
  -5   2   2   28.91    4.15
  -5   2  -2   33.68    3.58
  -5   2  -2   33.99    3.97
   5   2   2   26.59    4.17
   5   2  -2   29.08    4.28
  -5  -2   3    6.10    2.26
  -5  -2  -3    4.60    1.91
   5  -2   3    3.48    1.85
   5  -2  -3    3.95    2.01
  -5   2   3    4.27    1.80
  -5   2  -3    4.10    1.84
   5   2   3    5.67    2.09
   5   2  -3    3.71    1.86
  -5  -2   4  127.37    8.37
  -5  -2  -4  120.23    8.06
   5  -2   4  132.25    8.61
   5  -2  -4  112.34    7.86
  -5   2   4  105.53    7.58
  -5   2  -4  100.29    7.41
   5   2   4  119.91    8.08
   5   2  -4  102.00    7.48
  -5  -2   5   32.59    4.93
  -5  -2  -5   29.86    4.78
   5  -2   5   39.97    4.86
   5  -2  -5   32.47    5.02
  -5   2   5   28.70    4.64
  -5   2  -5   29.69    4.71
   5   2   5   38.09    4.74
   5   2  -5   27.30    4.80
  -5  -2   6    3.84    2.10
  -5  -2  -6    3.21    1.74
   5  -2   6    3.92    1.95
   5  -2  -6    3.28    1.97
  -5   2   6    3.82    1.85
  -5   2  -6    3.40    1.83
   5   2   6    4.10    2.31
   5   2  -6    3.52    2.01
  -6  -2   0   16.17    3.42
   6  -2   0   13.79    3.42
  -6   2   0   10.68    2.81
  -6   2   0   12.80    2.89
   6   2   0   13.03    3.18
  -6  -2   1  132.42    8.30
  -6  -2  -1  129.75    7.74
  -6  -2  -1  125.24    7.46
   6  -2   1  106.32    7.62
   6  -2  -1  110.44    7.87
  -6   2   1   98.15    7.19
  -6   2  -1  111.11    7.20
  -6   2  -1  114.15    7.42
   6   2   1  112.14    7.72
   6   2  -1  111.76    7.73
  -6  -2   2    0.20    0.84
  -6  -2  -2   -0.36    0.77
   6  -2   2   -0.01    0.93
   6  -2  -2    0.52    1.12
  -6   2   2    0.17    0.84
  -6   2  -2    0.48    0.91
   6   2   2    0.37    1.21
   6   2  -2    0.02    0.92
  -6  -2   3   42.02    5.01
  -6  -2  -3   38.19    4.60
   6  -2   3   34.27    5.06
   6  -2  -3   43.32    5.16
  -6   2   3   38.51    4.77
  -6   2  -3   34.14    4.94
   6   2   3   46.42    5.20
   6   2  -3   33.80    5.11
  -6  -2   4    4.61    2.20
  -6  -2  -4    5.80    2.27
   6  -2   4    6.63    2.58
   6  -2  -4    4.35    2.39
  -6   2   4    5.97    2.44
  -6   2  -4    5.29    2.30
   6   2   4    6.01    2.36
   6   2  -4    4.15    2.05
  -6  -2   5   23.61    4.77
  -6  -2  -5   21.58    4.50
   6  -2   5   18.50    4.13
   6  -2  -5   22.53    4.80
  -6   2   5   17.99    4.02
  -6   2  -5   15.96    3.98
   6   2   5   22.18    4.74
   6   2  -5   16.67    4.17
  -7  -2   0   -2.45    0.99
   7  -2   0    0.97    1.20
  -7   2   0   -0.83    1.07
   7   2   0   -0.12    1.17
  -7  -2   1    1.57    1.44
   7  -2   1    0.43    1.10
   7  -2  -1    0.40    1.07
  -7   2   1    0.85    1.27
  -7   2  -1    0.71    1.19
  -7   2  -1   -0.04    1.12
   7   2   1    1.18    1.24
   7   2  -1    0.89    1.31
  -7  -2  -2   93.69    7.18
   7  -2   2   80.27    7.20
   7  -2  -2   77.93    7.18
  -7   2   2   83.27    7.39
  -7   2  -2   83.10    7.05
   7   2   2   82.50    7.27
   7   2  -2   81.39    7.29
  -7  -2   3   64.96    6.61
  -7  -2  -3   66.79    6.47
   7  -2   3   53.82    5.98
   7  -2  -3   59.30    6.31
  -7   2   3   51.94    5.90
  -7   2  -3   57.30    6.09
   7   2   3   58.10    6.31
   7   2  -3   61.54    6.42
   0  -3   0    0.86    0.90
   0   3   0    0.45    0.66
   0   3   0    0.01    0.71
   0  -3   1    2.48    1.32
   0  -3  -1    2.41    1.32
   0   3   1    3.11    1.35
   0   3   1    2.94    1.24
   0   3  -1    3.12    1.45
   0   3  -1    1.89    0.94
   0  -3   2    0.10    0.65
   0  -3   2    1.74    1.07
   0  -3  -2    1.91    1.32
   0   3   2    0.67    0.84
   0   3   2   -0.73    0.66
   0   3  -2    0.11    0.67
   0   3  -2    0.44    0.70
   0  -3   3  234.34    8.03
   0  -3   3  181.01    8.26
   0  -3  -3  205.59    9.14
   0   3   3  206.97    8.79
   0   3   3  196.72    7.84
   0   3  -3  226.02    9.30
   0   3  -3  179.10    7.21
   0  -3   4    0.02    0.79
   0  -3   4    0.13    0.73
   0  -3  -4    0.13    0.88
   0   3   4    0.03    0.60
   0   3   4    0.54    0.73
   0   3  -4    0.59    0.78
   0   3  -4   -0.98    0.64
   0  -3   5   60.47    4.95
   0  -3  -5   47.32    4.74
   0   3   5   48.22    4.37
   0   3   5   48.88    4.58
   0   3  -5   55.50    4.82
   0   3  -5   38.76    4.09
   0   3  -5   46.94    4.39
   0  -3   6    0.15    0.85
   0  -3  -6   -0.37    1.11
   0   3   6    0.17    1.10
   0   3  -6   -0.72    0.88
   0  -3   7   86.71    6.76
   0  -3  -7   92.77    7.18
   0   3   7   83.12    6.97
   0   3  -7  116.19    8.02
  -1  -3   0    0.59    0.77
   1  -3   0   -0.06    0.55
   1  -3   0   -0.14    0.53
  -1   3   0    0.08    0.50
   1   3   0   -0.33    0.52
   1   3   0   -0.27    0.70
  -1  -3   1    2.79    1.35
  -1  -3  -1    3.70    1.56
   1  -3   1    3.91    1.38
   1  -3   1    4.06    1.68
   1  -3  -1    2.41    1.05
   1  -3  -1    2.73    1.38
  -1   3   1    4.30    1.61
  -1   3  -1    6.73    1.99
   1   3   1    5.28    1.76
   1   3   1    5.60    1.83
   1   3  -1    5.21    1.83
   1   3  -1    2.96    1.30
  -1  -3   2  165.78    7.64
  -1  -3  -2  165.75    8.12
   1  -3   2  175.33    6.99
   1  -3   2  149.33    7.64
   1  -3  -2  151.39    6.06
   1  -3  -2  157.65    7.79
  -1   3   2  167.71    8.04
  -1   3  -2  180.31    8.18
   1   3   2  194.54    8.38
   1   3   2  163.09    7.30
   1   3  -2  197.80    8.78
   1   3  -2  145.26    6.74
  -1  -3   3   96.25    5.88
  -1  -3  -3   98.12    6.50
   1  -3   3  112.76    6.05
   1  -3  -3  100.86    5.29
   1  -3  -3   90.80    6.07
  -1   3   3   85.15    5.83
  -1   3  -3  114.03    6.57
  -1   3  -3   88.86    6.03
   1   3   3  102.88    6.12
   1   3   3   95.20    5.90
   1   3  -3  112.08    6.75
   1   3  -3   87.77    5.52
  -1  -3   4   15.36    2.81
  -1  -3  -4   14.08    3.13
   1  -3   4   13.23    2.71
   1  -3  -4   15.87    2.71
   1  -3  -4   13.76    2.96
  -1   3   4   12.49    2.64
  -1   3  -4   15.44    2.87
  -1   3  -4   11.21    2.70
   1   3   4   16.25    2.78
   1   3   4   13.29    2.97
   1   3  -4   14.72    2.94
   1   3  -4   12.74    2.76
  -1  -3  -5    9.28    2.74
   1  -3   5   10.93    2.77
   1  -3  -5    8.34    2.48
  -1   3   5    6.64    2.06
  -1   3  -5    6.53    2.24
   1   3   5    9.68    2.81
   1   3  -5    9.82    2.55
   1   3  -5    7.49    2.39
  -1  -3   6    2.44    1.47
  -1  -3  -6    4.61    2.15
   1  -3   6    4.38    1.88
   1  -3  -6    3.82    1.68
  -1   3  -6    1.87    1.41
   1   3   6    3.81    2.09
   1   3  -6    3.39    1.74
  -1  -3   7   61.35    5.90
  -1  -3  -7   73.44    6.56
   1  -3   7   84.84    7.14
   1   3   7   65.32    6.38
   1   3  -7   66.70    6.20
  -2  -3   0   63.96    4.92
   2  -3   0   55.96    4.15
   2  -3   0   61.20    4.93
  -2   3   0   64.72    5.06
   2   3   0   77.14    5.49
   2   3   0   55.86    4.46
  -2  -3   1  242.07    9.27
  -2  -3  -1  240.59    9.71
   2  -3   1  233.29    8.53
   2  -3   1  230.33    9.63
   2  -3  -1  206.88    7.87
   2  -3  -1  218.11    9.20
  -2   3   1  234.54    9.70
  -2   3  -1  225.97    9.32
  -2   3  -1  195.55    8.87
   2   3   1  262.60    9.96
   2   3   1  208.44    8.66
   2   3  -1  272.76   10.45
   2   3  -1  196.45    8.37
  -2  -3   2   14.01    2.63
  -2  -3  -2   14.95    3.08
   2  -3   2   10.82    2.40
   2  -3  -2   10.15    2.23
   2  -3  -2   10.46    2.61
  -2   3   2    9.51    2.48
  -2   3  -2   11.89    2.59
  -2   3  -2    8.45    2.34
   2   3   2   15.34    2.79
   2   3   2   12.59    2.83
   2   3  -2   15.52    3.04
   2   3  -2    9.60    2.45
  -2  -3   3   60.85    4.60
  -2  -3  -3   54.54    5.02
   2  -3   3   61.92    4.87
   2  -3  -3   58.95    4.52
   2  -3  -3   53.50    4.64
  -2   3   3   55.40    4.90
  -2   3  -3   67.10    5.08
  -2   3  -3   50.94    4.78
   2   3   3   62.94    4.80
   2   3   3   61.84    5.12
   2   3  -3   60.27    5.21
   2   3  -3   46.20    4.38
  -2  -3   4    4.22    1.77
  -2  -3  -4   -0.16    0.75
   2  -3   4    1.31    1.16
   2  -3  -4    1.27    1.02
   2  -3  -4    2.09    1.11
  -2   3   4    0.21    0.82
  -2   3  -4    0.04    0.68
  -2   3  -4    1.54    1.30
   2   3   4   -0.23    0.69
   2   3   4    0.79    1.32
   2   3  -4    2.49    1.44
   2   3  -4    0.40    0.87
  -2  -3   5  120.95    7.73
  -2  -3  -5   93.04    7.09
   2  -3   5  117.04    7.62
   2  -3  -5  106.37    6.85
   2  -3  -5   93.75    6.42
  -2   3   5   95.56    6.78
  -2   3  -5   76.71    6.26
   2   3   5   89.28    6.80
   2   3  -5   86.32    6.60
  -2  -3   6    3.55    1.96
  -2  -3  -6    2.36    1.53
   2  -3   6    1.78    1.40
   2  -3  -6    2.42    1.44
  -2   3   6    1.96    1.28
  -2   3  -6    1.73    1.46
   2   3   6    3.21    2.03
   2   3  -6    0.61    1.10
  -2  -3  -7    2.74    1.96
   2  -3   7    4.04    2.14
  -2   3  -7    3.92    1.84
   2   3   7    3.61    1.74
   2   3  -7    3.39    1.82
  -3  -3   0    0.18    0.61
   3  -3   0   -0.40    0.71
   3  -3   0    2.37    1.32
  -3   3   0   -0.11    0.59
   3   3   0   -0.33    0.55
   3   3   0   -0.44    0.70
  -3  -3   1   40.10    3.90
  -3  -3  -1   43.58    4.30
   3  -3   1   42.38    4.14
   3  -3  -1   36.82    3.80
   3  -3  -1   36.83    3.98
  -3   3   1   33.46    3.91
  -3   3  -1   35.24    3.85
  -3   3  -1   30.60    3.71
   3   3   1   40.35    4.09
   3   3   1   32.90    3.79
   3   3  -1   47.95    4.62
   3   3  -1   31.29    3.70
  -3  -3   2    2.21    1.22
  -3  -3  -2    1.78    1.37
   3  -3   2    2.93    1.51
   3  -3  -2    2.11    1.36
   3  -3  -2    1.90    1.33
  -3   3   2    2.17    1.30
  -3   3  -2    1.09    1.02
  -3   3  -2    1.14    1.01
   3   3   2    1.85    1.09
   3   3   2    0.47    1.10
   3   3  -2    1.78    1.07
   3   3  -2    1.03    1.16
  -3  -3   3    1.17    1.10
  -3  -3  -3    0.07    0.89
   3  -3   3    1.98    1.37
   3  -3  -3    0.26    0.80
   3  -3  -3    0.72    1.09
  -3   3   3    1.17    0.92
  -3   3  -3    0.97    0.92
  -3   3  -3    0.21    0.76
   3   3   3    0.16    0.71
   3   3   3   -0.88    0.91
   3   3  -3    0.78    1.11
  -3  -3   4  166.62    9.30
  -3  -3  -4  138.66    8.61
   3  -3   4  159.27    8.87
   3  -3  -4  136.88    7.95
   3  -3  -4  138.37    7.55
  -3   3   4  128.97    8.12
  -3   3  -4  118.39    7.90
   3   3   4  139.13    8.53
   3   3  -4  125.07    7.97
  -3  -3   5   65.41    6.02
  -3  -3  -5   55.33    5.73
   3  -3   5   60.58    5.80
   3  -3  -5   56.22    5.38
  -3   3   5   44.63    4.94
  -3   3  -5   47.10    5.17
   3   3   5   56.82    5.75
   3   3  -5   42.16    4.83
  -3  -3   6    0.66    1.31
  -3  -3  -6   -0.65    0.85
   3  -3   6    0.43    1.16
   3  -3  -6    0.84    1.27
  -3   3   6    0.50    1.25
  -3   3  -6    0.65    1.05
   3   3   6   -0.36    1.14
   3   3  -6    0.49    1.17
  -4  -3   0   34.03    4.05
  -4  -3   0   38.07    4.01
   4  -3   0   30.90    4.24
  -4   3   0   26.54    4.05
  -4   3   0   24.95    3.90
   4   3   0   31.04    4.49
  -4  -3   1   12.19    3.00
  -4  -3   1   12.31    2.67
  -4  -3  -1   10.70    2.78
  -4  -3  -1   13.03    3.00
   4  -3   1    8.63    2.66
   4  -3  -1    9.11    2.67
   4  -3  -1    9.45    2.51
  -4   3   1   10.95    2.86
  -4   3  -1    8.49    2.42
  -4   3  -1    6.07    2.21
   4   3   1    8.73    2.69
   4   3  -1   11.33    3.00
  -4  -3   2   23.27    3.99
  -4  -3  -2   21.90    3.51
  -4  -3  -2   26.44    4.09
   4  -3   2   24.83    4.16
   4  -3  -2   24.92    3.97
   4  -3  -2   27.82    4.02
  -4   3   2   20.03    3.73
  -4   3  -2   23.30    3.65
  -4   3  -2   14.66    3.25
   4   3   2   26.97    3.78
   4   3   2   23.44    4.16
   4   3  -2   16.19    3.53
  -4  -3   3    0.31    0.76
  -4  -3  -3    0.11    0.96
   4  -3   3   -0.62    0.83
   4  -3  -3    0.00    0.92
   4  -3  -3    0.61    0.90
  -4   3   3    0.32    0.90
  -4   3  -3    0.23    0.93
  -4   3  -3    2.98    1.64
   4   3   3    0.41    0.82
   4   3   3   -0.37    0.91
   4   3  -3    0.63    1.16
  -4  -3   4   31.98    4.82
  -4  -3  -4   29.61    4.68
   4  -3   4   31.34    4.85
   4  -3  -4   28.51    4.45
  -4   3   4   25.41    4.42
  -4   3  -4   22.04    4.12
   4   3   4   29.45    5.01
   4   3  -4   23.99    4.44
  -4  -3   5    9.32    2.97
  -4  -3  -5    9.24    3.02
   4  -3   5   13.51    3.75
   4  -3  -5    8.06    2.88
  -4   3   5    7.74    2.73
  -4   3  -5    6.70    2.50
   4   3   5   10.49    3.31
   4   3  -5    6.29    2.51
  -4  -3  -6   29.50    5.19
   4  -3   6   35.62    5.65
   4  -3  -6   32.31    5.24
  -4   3   6   27.28    4.78
  -4   3  -6   32.01    5.26
   4   3   6   28.15    5.26
   4   3  -6   26.00    5.01
  -5  -3   0    0.18    0.86
  -5  -3   0   -0.04    0.91
   5  -3   0   -0.16    0.93
  -5   3   0    0.16    0.87
  -5   3   0    0.20    0.84
   5   3   0   -0.53    0.94
  -5  -3   1  155.62    9.31
  -5  -3  -1  149.14    8.67
  -5  -3  -1  139.57    8.33
   5  -3   1  131.49    8.57
   5  -3  -1  132.50    8.53
   5  -3  -1  134.64    8.10
  -5   3   1  132.77    8.63
  -5   3  -1  125.46    8.03
  -5   3  -1  117.97    7.94
   5   3   1  121.02    8.32
   5   3  -1  128.01    8.54
  -5  -3   2   83.72    7.02
  -5  -3  -2   84.34    6.35
  -5  -3  -2   68.68    6.10
   5  -3   2   70.94    6.51
   5  -3  -2   69.50    6.28
  -5   3   2   55.94    5.78
  -5   3  -2   73.15    6.06
   5   3   2   65.49    6.22
   5   3  -2   64.84    6.16
  -5  -3   3   49.97    5.53
  -5  -3  -3   43.10    5.07
   5  -3   3   50.43    5.61
   5  -3  -3   45.77    5.26
  -5   3   3   36.41    5.23
  -5   3  -3   42.63    5.14
   5   3   3   47.44    5.39
   5   3  -3   41.78    5.01
  -5  -3   4   31.15    5.31
  -5  -3  -4   21.94    4.49
   5  -3   4   27.26    5.06
   5  -3  -4   23.27    4.52
  -5   3   4   21.02    4.35
  -5   3  -4   16.46    3.92
   5   3   4   24.31    4.93
   5   3  -4   17.77    4.14
  -6  -3   0    7.00    2.41
   6  -3   0    4.36    2.51
  -6   3   0    3.87    1.87
  -6   3   0    3.26    1.90
   6   3   0    4.54    2.34
  -6  -3   1   29.24    4.93
  -6  -3  -1   31.35    4.83
  -6  -3  -1   24.69    4.12
   6  -3   1   24.91    4.91
   6  -3  -1   23.29    4.68
  -6   3   1   23.23    4.35
  -6   3  -1   21.99    4.17
  -6   3  -1   18.90    3.98
   6   3   1   26.89    5.04
   6   3  -1   20.86    4.55
  -6  -3   2   24.47    4.78
  -6  -3  -2   24.52    4.33
   6  -3   2   24.47    5.00
   6  -3  -2   23.98    4.75
  -6   3   2   22.69    4.53
  -6   3  -2   22.57    4.54
   6   3   2   26.00    5.03
   6   3  -2   21.97    4.55
  -6  -3   3    1.53    1.35
  -6  -3  -3   -0.34    1.14
   6  -3   3    0.77    1.58
   6  -3  -3    0.80    1.58
  -6   3   3   -0.91    0.90
  -6   3  -3    0.46    1.33
   6   3   3   -0.88    1.19
   6   3  -3    0.22    1.44
   0  -4   0  442.94   15.19
   0   4   0  503.72   16.21
   0  -4   1    0.41    1.03
   0  -4  -1    0.35    0.93
   0   4   1   -0.22    0.69
   0   4  -1    0.27    0.85
   0  -4   2   -0.02    0.87
   0  -4  -2    0.11    0.97
   0   4   2    0.01    0.74
   0   4  -2    0.29    0.86
   0  -4   3   -0.01    0.93
   0  -4  -3    0.27    1.03
   0   4   3   -0.40    0.78
   0   4  -3   -0.05    0.74
   0  -4   4  106.62    7.61
   0  -4  -4  104.33    7.91
   0   4   4  106.61    7.60
   0   4  -4  119.67    8.22
   0  -4   5   -0.59    0.96
   0  -4  -5    0.32    1.01
   0   4   5    0.08    1.01
   0   4  -5   -0.35    1.04
  -1  -4   0   -0.05    0.98
   1  -4   0   -0.88    0.66
  -1   4   0    0.24    0.73
   1   4   0   -0.25    0.67
  -1  -4   1    1.69    1.20
  -1  -4  -1    1.09    1.10
   1  -4   1   -0.35    0.75
   1  -4  -1    0.80    1.11
  -1   4   1   -0.14    0.72
  -1   4  -1    0.27    0.90
   1   4   1    0.02    0.64
   1   4  -1    0.26    1.07
  -1  -4   2    9.57    2.88
  -1  -4  -2   13.26    3.56
   1  -4   2   11.79    3.16
   1  -4  -2   11.13    3.13
  -1   4   2   10.29    2.86
  -1   4  -2   10.37    2.93
   1   4   2   10.14    2.77
   1   4  -2   10.87    3.09
  -1  -4   3   63.16    5.70
  -1  -4  -3   65.51    6.19
   1  -4   3   59.75    5.81
   1  -4  -3   62.13    5.93
  -1   4   3   59.73    5.77
  -1   4  -3   69.40    6.15
   1   4   3   65.27    5.84
   1   4  -3   70.81    6.35
  -1  -4   4   10.58    2.93
  -1  -4  -4    6.90    2.62
   1  -4   4    7.57    2.65
   1  -4  -4    6.98    2.48
  -1   4   4   10.36    2.99
  -1   4  -4   12.19    3.15
   1   4   4   10.23    2.84
   1   4  -4   10.26    3.00
  -1  -4  -5   30.11    5.19
   1  -4   5   29.94    4.88
   1  -4  -5   20.69    4.24
  -1   4   5   31.48    4.76
   1   4  -5   31.46    4.77
  -2  -4   0    2.32    1.53
   2  -4   0    3.07    1.75
  -2   4   0    3.59    1.79
   2   4   0    4.15    1.90
   2   4   0    2.85    1.55
  -2  -4   1    0.44    1.08
  -2  -4  -1    0.87    1.16
   2  -4   1    2.25    1.53
   2  -4  -1    1.90    1.36
  -2   4   1    2.42    1.47
  -2   4  -1    0.96    1.16
   2   4   1    0.88    0.98
   2   4   1    1.90    1.52
   2   4  -1    0.55    1.06
   2   4  -1    0.80    1.27
  -2  -4   2   24.63    4.05
  -2  -4  -2   23.65    4.46
   2  -4   2   21.91    4.32
   2  -4  -2   22.24    4.23
  -2   4   2   20.17    4.05
  -2   4  -2   23.44    4.09
   2   4   2   27.59    4.21
   2   4   2   22.36    4.05
   2   4  -2   25.99    4.43
   2   4  -2   20.51    3.83
  -2  -4   3   12.08    3.05
  -2  -4  -3   12.22    3.40
   2  -4   3   13.89    3.71
   2  -4  -3   17.55    3.87
  -2   4   3   15.06    3.65
  -2   4  -3   13.27    3.24
   2   4   3   16.26    3.44
   2   4   3   10.57    2.95
   2   4  -3   17.42    3.84
   2   4  -3   12.07    3.01
  -2  -4  -4   14.33    3.67
   2  -4   4   12.99    3.49
   2  -4  -4   16.36    3.94
  -2   4   4   13.34    3.48
  -2   4  -4   10.40    2.79
   2   4   4   13.36    3.46
   2   4  -4   16.41    3.80
   2   4  -4   10.41    2.92
  -2  -4   5   52.45    5.90
  -2  -4  -5   39.72    5.85
   2  -4  -5   50.53    5.44
  -2   4   5   41.11    5.08
   2   4   5   47.59    5.39
  -3  -4   0   -0.10    0.93
   3  -4   0    1.39    1.20
  -3   4   0   -0.28    0.85
   3   4   0    0.36    0.93
   3   4   0   -1.08    1.04
  -3  -4   1  100.06    7.24
  -3  -4  -1   95.68    7.40
   3  -4   1   88.91    7.28
   3  -4  -1  105.32    7.80
  -3   4   1   88.60    7.27
  -3   4  -1   82.88    6.88
   3   4   1   97.34    7.37
   3   4   1   83.03    6.75
   3   4  -1  110.31    8.11
   3   4  -1   77.31    6.45
  -3  -4   2  103.28    7.23
  -3  -4  -2  103.33    7.89
   3  -4   2  111.68    8.29
   3  -4  -2  102.45    7.66
  -3   4   2   87.08    7.29
  -3   4  -2  106.62    7.77
   3   4   2  120.47    8.13
   3   4   2   91.10    7.19
   3   4  -2  124.36    8.73
   3   4  -2   88.08    6.99
  -3  -4   3   45.97    5.46
  -3  -4  -3   35.98    5.43
   3  -4   3   46.48    5.09
   3  -4   3   40.01    5.78
   3  -4  -3   38.02    4.72
  -3   4   3   32.44    5.10
  -3   4  -3   39.69    4.63
   3   4   3   42.70    4.81
   3   4   3   37.15    5.35
   3   4  -3   46.85    5.49
   3   4  -3   35.15    5.16
  -3  -4   4    0.02    1.43
  -3  -4  -4    2.08    1.67
   3  -4   4    1.56    1.64
   3  -4  -4    3.39    1.75
  -3   4   4   -0.02    1.11
  -3   4  -4   -0.04    0.96
   3   4   4    1.39    1.39
   3   4  -4   -1.72    1.08
  -4  -4   0   51.44    5.67
  -4  -4   0   58.86    5.79
   4  -4   0   50.24    5.30
   4  -4   0   47.01    5.42
  -4   4   0   44.00    5.21
   4   4   0   51.41    5.64
   4   4   0   34.22    5.27
  -4  -4   1    6.02    2.20
  -4  -4   1    3.70    1.64
  -4  -4  -1    4.96    2.17
   4  -4   1    5.05    2.41
   4  -4   1    6.29    2.51
   4  -4  -1    4.86    2.30
   4  -4  -1    3.88    1.93
  -4   4   1    4.01    1.70
  -4   4  -1    4.59    2.09
   4   4   1    5.90    2.15
   4   4   1    4.09    2.19
   4   4  -1    4.31    2.04
  -4  -4   2   37.12    5.59
  -4  -4  -2   33.93    5.23
   4  -4   2   34.17    5.16
   4  -4   2   41.20    6.03
   4  -4  -2   30.51    5.01
  -4   4   2   28.74    5.00
  -4   4  -2   28.34    4.59
   4   4   2   39.02    4.76
   4   4   2   28.77    4.97
   4   4  -2   25.22    4.70
  -4  -4   3    0.96    1.37
  -4  -4  -3    0.44    1.30
   4  -4   3   -0.32    1.59
  -4   4   3    0.70    1.45
  -4   4  -3   -0.17    1.16
   4   4   3   -0.41    1.29
   4   4  -3    0.17    1.30
   0   0   0    0.00    0.00
;
_shelx_hkl_checksum              72130
_shelx_res_file
;
TITL NbNiAs
    shelx.res
    created by SHELXL-2018/1 at 20:08:55 on 13-Mar-2018
CELL 0.71073   6.2115   3.7150   7.1719  90.000  90.000  90.000
ZERR    4.00   0.0019   0.0011   0.0022   0.000   0.000   0.000
LATT  1
SYMM 0.5-X, -Y, 0.5+Z
SYMM -X, 0.5+Y, -Z
SYMM 0.5+X, 0.5-Y, 0.5-Z
SFAC NI AS NB
UNIT 4 4 3.68
TEMP -73.0
acta
L.S. 10
BOND
FMAP 2
PLAN 20
size 0.04         0.025        0.025
WGHT    0.000000
EXTI    0.017534
FVAR       0.14849   0.91617
NB    3    0.024953    0.250000    0.668747    20.50000    0.00839    0.00860 =
         0.00767    0.00000    0.00065    0.00000
NI    1    0.147289    0.250000    0.064028    10.50000    0.00989    0.00781 =
         0.00677    0.00000    0.00072    0.00000
AS    2    0.271026    0.250000    0.375695    10.50000    0.01159    0.00748 =
         0.00846    0.00000   -0.00115    0.00000
HKLF 4
REM  NbNiAs
REM R1 =  0.0194 for     210 Fo > 4sig(Fo)  and  0.0225 for all     238 data
REM     21 parameters refined using      0 restraints
END
WGHT      0.0000      0.0000
REM Highest difference peak  1.072,  deepest hole -1.424,  1-sigma level  0.477
Q1    1   0.2753  0.0096  0.1636  11.00000  0.05    1.07
Q2    1   0.1263  0.0091  0.4586  11.00000  0.05    1.02
Q3    1   0.3637  0.0044  0.2858  11.00000  0.05    0.98
Q4    1   0.2953  0.0361  0.4730  11.00000  0.05    0.94
Q5    1  -0.0076  0.0303  0.5958  11.00000  0.05    0.92
Q6    1   0.1592  0.0140  0.2742  11.00000  0.05    0.89
Q7    1  -0.0217 -0.0189  0.7951  11.00000  0.05    0.85
Q8    1   0.0000  0.0000  0.0000  10.50000  0.05    0.82
Q9    1  -0.0271 -0.0338  0.1143  11.00000  0.05    0.77
Q10   1   0.1706  0.0475  0.0615  11.00000  0.05    0.67
Q11   1   0.2579  0.0504  0.0147  11.00000  0.05    0.67
Q12   1   0.2641  0.0335  0.3280  11.00000  0.05    0.56
Q13   1   0.1480  0.2500  0.3826  10.50000  0.05    0.34
Q14   1  -0.0808  0.2500  0.6473  10.50000  0.05    0.32
Q15   1   0.2532  0.2500  0.1172  10.50000  0.05    0.30
Q16   1   0.0339  0.2500  0.0804  10.50000  0.05    0.13
;
_shelx_res_checksum              98474
loop_
_space_group_symop_operation_xyz
'x, y, z'
'-x+1/2, -y, z+1/2'
'-x, y+1/2, -z'
'x+1/2, -y+1/2, -z+1/2'
'-x, -y, -z'
'x-1/2, y, -z-1/2'
'x, -y-1/2, z'
'-x-1/2, y-1/2, z-1/2'
loop_
_atom_site_type_symbol
_atom_site_label
_atom_site_fract_x
_atom_site_fract_y
_atom_site_fract_z
_atom_site_U_iso_or_equiv
_atom_site_adp_type
_atom_site_calc_flag
_atom_site_occupancy
Nb Nb 0.02495(8) 0.250000 0.66875(9) 0.0082(2) Uani d 0.916(3)
Ni Ni 0.14729(12) 0.250000 0.06403(10) 0.0082(2) Uani d 1
As As 0.27103(9) 0.250000 0.37569(8) 0.0092(2) Uani d 1
loop_
_atom_site_aniso_label
_atom_site_aniso_U_11
_atom_site_aniso_U_22
_atom_site_aniso_U_33
_atom_site_aniso_U_12
_atom_site_aniso_U_13
_atom_site_aniso_U_23
Nb 0.0084(3) 0.0086(3) 0.0077(3) 0.000 0.0006(2) 0.000
Ni 0.0099(4) 0.0078(4) 0.0068(4) 0.000 0.0007(3) 0.000
As 0.0116(3) 0.0075(3) 0.0085(3) 0.000 -0.0012(2) 0.000
loop_
_atom_type_symbol
_atom_type_description
_atom_type_scat_dispersion_real
_atom_type_scat_dispersion_imag
_atom_type_scat_source
Ni Ni 0.3393 1.1124 'International Tables Vol C Tables 4.2.6.8 and 6.1.1.4'
As As 0.0499 2.0058 'International Tables Vol C Tables 4.2.6.8 and 6.1.1.4'
Nb Nb -2.0727 0.6215 'International Tables Vol C Tables 4.2.6.8 and 6.1.1.4'
loop_
_geom_angle_atom_site_label_1
_geom_angle_atom_site_label_2
_geom_angle_atom_site_label_3
_geom_angle_site_symmetry_1
_geom_angle_site_symmetry_3
_geom_angle
As Nb As . 5_556 108.23(3)
As Nb As . 5_566 108.23(3)
As Nb As 5_556 5_566 89.74(3)
As Nb As . 2_565 99.72(2)
As Nb As 5_556 2_565 151.83(3)
As Nb As 5_566 2_565 84.76(2)
As Nb As . 2 99.72(2)
As Nb As 5_556 2 84.76(2)
As Nb As 5_566 2 151.83(3)
As Nb As 2_565 2 87.17(3)
As Nb Ni . 2_565 50.813(18)
As Nb Ni 5_556 2_565 157.62(3)
As Nb Ni 5_566 2_565 90.41(3)
As Nb Ni 2_565 2_565 50.30(2)
As Nb Ni 2 2_565 104.95(3)
As Nb Ni . 2 50.813(19)
As Nb Ni 5_556 2 90.41(3)
As Nb Ni 5_566 2 157.62(3)
As Nb Ni 2_565 2 104.95(3)
As Nb Ni 2 2 50.30(2)
Ni Nb Ni 2_565 2 81.13(3)
As Nb Ni . 5_566 139.278(17)
As Nb Ni 5_556 5_566 106.06(3)
As Nb Ni 5_566 5_566 50.59(2)
As Nb Ni 2_565 5_566 50.39(2)
As Nb Ni 2 5_566 104.67(3)
Ni Nb Ni 2_565 5_566 91.17(2)
Ni Nb Ni 2 5_566 149.38(3)
As Nb Ni . 5_556 139.278(16)
As Nb Ni 5_556 5_556 50.59(2)
As Nb Ni 5_566 5_556 106.06(3)
As Nb Ni 2_565 5_556 104.67(3)
As Nb Ni 2 5_556 50.39(2)
Ni Nb Ni 2_565 5_556 149.38(3)
Ni Nb Ni 2 5_556 91.17(2)
Ni Nb Ni 5_566 5_556 80.48(3)
As Nb Ni . 6_556 90.59(3)
As Nb Ni 5_556 6_556 50.274(18)
As Nb Ni 5_566 6_556 50.274(18)
As Nb Ni 2_565 6_556 134.638(16)
As Nb Ni 2 6_556 134.638(16)
Ni Nb Ni 2_565 6_556 115.36(3)
Ni Nb Ni 2 6_556 115.36(3)
Ni Nb Ni 5_566 6_556 94.78(2)
Ni Nb Ni 5_556 6_556 94.78(2)
As Nb Ni . 1_556 128.97(3)
As Nb Ni 5_556 1_556 107.32(2)
As Nb Ni 5_566 1_556 107.32(2)
As Nb Ni 2_565 1_556 49.166(18)
As Nb Ni 2 1_556 49.166(18)
Ni Nb Ni 2_565 1_556 93.98(2)
Ni Nb Ni 2 1_556 93.98(2)
Ni Nb Ni 5_566 1_556 56.81(3)
Ni Nb Ni 5_556 1_556 56.81(3)
Ni Nb Ni 6_556 1_556 140.44(3)
As Nb Nb . 5_556 54.63(2)
As Nb Nb 5_556 5_556 53.598(19)
As Nb Nb 5_566 5_556 105.14(3)
As Nb Nb 2_565 5_556 154.14(3)
As Nb Nb 2 5_556 93.71(2)
Ni Nb Nb 2_565 5_556 104.97(3)
Ni Nb Nb 2 5_556 58.04(2)
Ni Nb Nb 5_566 5_556 151.61(3)
Ni Nb Nb 5_556 5_556 95.58(3)
Ni Nb Nb 6_556 5_556 57.32(2)
Ni Nb Nb 1_556 5_556 142.047(19)
As Ni As 2_554 2_564 104.32(4)
As Ni As 2_554 . 118.22(2)
As Ni As 2_564 . 118.22(2)
As Ni As 2_554 6_556 108.46(3)
As Ni As 2_564 6_556 108.46(3)
As Ni As . 6_556 98.50(3)
As Ni Ni 2_554 5 54.64(3)
As Ni Ni 2_564 5 118.86(5)
As Ni Ni . 5 121.96(4)
As Ni Ni 6_556 5 53.81(3)
As Ni Ni 2_554 5_565 118.86(5)
As Ni Ni 2_564 5_565 54.64(3)
As Ni Ni . 5_565 121.96(4)
As Ni Ni 6_556 5_565 53.81(3)
Ni Ni Ni 5 5_565 84.43(5)
As Ni Nb 2_554 2_564 120.72(4)
As Ni Nb 2_564 2_564 58.91(2)
As Ni Nb . 2_564 61.29(2)
As Ni Nb 6_556 2_564 130.77(2)
Ni Ni Nb 5 2_564 174.92(5)
Ni Ni Nb 5_565 2_564 97.02(3)
As Ni Nb 2_554 2_554 58.91(2)
As Ni Nb 2_564 2_554 120.72(4)
As Ni Nb . 2_554 61.29(2)
As Ni Nb 6_556 2_554 130.77(2)
Ni Ni Nb 5 2_554 97.02(3)
Ni Ni Nb 5_565 2_554 174.92(5)
Nb Ni Nb 2_564 2_554 81.13(3)
As Ni Nb 2_554 5_566 166.70(3)
As Ni Nb 2_564 5_566 87.30(3)
As Ni Nb . 5_566 59.38(3)
As Ni Nb 6_556 5_566 60.85(2)
Ni Ni Nb 5 5_566 114.16(4)
Ni Ni Nb 5_565 5_566 62.68(3)
Nb Ni Nb 2_564 5_566 70.72(2)
Nb Ni Nb 2_554 5_566 120.67(3)
As Ni Nb 2_554 5_556 87.30(3)
As Ni Nb 2_564 5_556 166.70(3)
As Ni Nb . 5_556 59.38(3)
As Ni Nb 6_556 5_556 60.85(2)
Ni Ni Nb 5 5_556 62.68(3)
Ni Ni Nb 5_565 5_556 114.16(4)
Nb Ni Nb 2_564 5_556 120.67(3)
Nb Ni Nb 2_554 5_556 70.72(2)
Nb Ni Nb 5_566 5_556 80.48(3)
As Ni Nb 2_554 6_656 59.42(2)
As Ni Nb 2_564 6_656 59.42(2)
As Ni Nb . 6_656 106.46(4)
As Ni Nb 6_556 6_656 155.04(4)
Ni Ni Nb 5 6_656 110.28(4)
Ni Ni Nb 5_565 6_656 110.28(4)
Nb Ni Nb 2_564 6_656 64.64(3)
Nb Ni Nb 2_554 6_656 64.64(3)
Nb Ni Nb 5_566 6_656 133.599(19)
Nb Ni Nb 5_556 6_656 133.599(19)
As Ni Nb 2_554 1_554 60.08(2)
As Ni Nb 2_564 1_554 60.08(2)
As Ni Nb . 1_554 176.03(4)
As Ni Nb 6_556 1_554 85.47(3)
Ni Ni Nb 5 1_554 60.51(3)
Ni Ni Nb 5_565 1_554 60.51(3)
Nb Ni Nb 2_564 1_554 116.01(3)
Nb Ni Nb 2_554 1_554 116.01(3)
Nb Ni Nb 5_566 1_554 123.19(3)
Nb Ni Nb 5_556 1_554 123.19(3)
Nb Ni Nb 6_656 1_554 69.57(3)
Ni As Ni 2_565 2 104.32(4)
Ni As Ni 2_565 . 127.82(2)
Ni As Ni 2 . 127.82(2)
Ni As Ni 2_565 6_656 71.54(3)
Ni As Ni 2 6_656 71.54(3)
Ni As Ni . 6_656 119.46(3)
Ni As Nb 2_565 . 70.27(3)
Ni As Nb 2 . 70.27(3)
Ni As Nb . . 125.00(4)
Ni As Nb 6_656 . 115.55(4)
Ni As Nb 2_565 5_556 141.02(3)
Ni As Nb 2 5_556 70.31(3)
Ni As Nb . 5_556 70.03(2)
Ni As Nb 6_656 5_556 135.126(17)
Nb As Nb . 5_556 71.77(3)
Ni As Nb 2_565 5_566 70.31(3)
Ni As Nb 2 5_566 141.02(3)
Ni As Nb . 5_566 70.03(2)
Ni As Nb 6_656 5_566 135.126(17)
Nb As Nb . 5_566 71.77(3)
Nb As Nb 5_556 5_566 89.74(3)
Ni As Nb 2_565 2_554 139.41(3)
Ni As Nb 2 2_554 70.76(3)
Ni As Nb . 2_554 68.41(3)
Ni As Nb 6_656 2_554 68.76(2)
Nb As Nb . 2_554 136.233(16)
Nb As Nb 5_556 2_554 77.02(2)
Nb As Nb 5_566 2_554 138.43(3)
Ni As Nb 2_565 2_564 70.76(3)
Ni As Nb 2 2_564 139.41(3)
Ni As Nb . 2_564 68.41(3)
Ni As Nb 6_656 2_564 68.76(2)
Nb As Nb . 2_564 136.233(16)
Nb As Nb 5_556 2_564 138.43(3)
Nb As Nb 5_566 2_564 77.02(2)
Nb As Nb 2_554 2_564 87.17(3)
loop_
_geom_bond_atom_site_label_1
_geom_bond_atom_site_label_2
_geom_bond_site_symmetry_2
_geom_bond_distance
Nb As . 2.5988(10)
Nb As 5_556 2.6328(8)
Nb As 5_566 2.6328(8)
Nb As 2_565 2.6943(8)
Nb As 2 2.6943(8)
Nb Ni 2_565 2.8564(9)
Nb Ni 2 2.8564(9)
Nb Ni 5_566 2.8754(9)
Nb Ni 5_556 2.8754(9)
Nb Ni 6_556 2.8793(11)
Nb Ni 1_556 2.9350(13)
Nb Nb 5_556 3.0668(12)
Ni As 2_554 2.3521(8)
Ni As 2_564 2.3521(8)
Ni As . 2.3637(11)
Ni As 6_556 2.3768(12)
Ni Ni 5 2.7644(12)
Ni Ni 5_565 2.7644(12)

_cod_database_fobs_code 2021100
