#------------------------------------------------------------------------------
#$Date: 2019-12-26 21:44:39 +0200 (Thu, 26 Dec 2019) $
#$Revision: 246115 $
#$URL: file:///home/coder/svn-repositories/cod/cif/2/02/18/2021895.cif $
#------------------------------------------------------------------------------
#
# This file is available in the Crystallography Open Database (COD),
# http://www.crystallography.net/. The original data for this entry
# were provided by IUCr Journals, http://journals.iucr.org/.
#
# The file may be used within the scientific community so long as
# proper attribution is given to the journal article from which the
# data were obtained.
#
data_2021895
loop_
_publ_author_name
'Federicci, R\'emi'
'Baptiste, Benoit'
'Finocchi, Fabio'
'Popa, Florin'
'Brohan, Luc'
'B\'eneut, Keevin'
'Giura, Paola'
'Rousse, Gwena\"elle'
'Descamps-Mandine, Armel'
'Douillard, Thierry'
'Shukla, Abhay'
'Leridon, Brigitte'
_publ_section_title
;
 The crystal structure of Rb2Ti2O5&#x000D;
;
_journal_coeditor_code           DK5058SUP1
_journal_issue                   6
_journal_name_full
'Acta Crystallographica Section B Structural Science, Crystal Engineering and Materials'
_journal_page_first              1142
_journal_paper_doi               10.1107/S2052520617013646
_journal_volume                  73
_journal_year                    2017
_chemical_formula_moiety         '0.5(O10 Rb4 Ti4)'
_chemical_formula_sum            'O5 Rb2 Ti2'
_chemical_formula_weight         346.74
_space_group_crystal_system      monoclinic
_space_group_IT_number           12
_space_group_name_Hall           '-C 2y'
_space_group_name_H-M_alt        'C 1 2/m 1'
_atom_sites_solution_primary     direct
_audit_creation_date             2016-03-30
_audit_creation_method
;
Olex2 1.2
(compiled 2016.02.19 svn.r3266 for OlexSys, GUI svn.r5155)
;
_cell_angle_alpha                90
_cell_angle_beta                 100.359(11)
_cell_angle_gamma                90
_cell_formula_units_Z            2
_cell_length_a                   11.3457(12)
_cell_length_b                   3.8195(5)
_cell_length_c                   6.9699(8)
_cell_measurement_reflns_used    1003
_cell_measurement_temperature    150
_cell_measurement_theta_max      32.3730
_cell_measurement_theta_min      2.9010
_cell_volume                     297.12(6)
_computing_cell_refinement       'CrysAlisPro 1.171.38.41 (Rigaku OD, 2015)'
_computing_data_collection       'CrysAlisPro 1.171.38.41 (Rigaku OD, 2015)'
_computing_data_reduction        'CrysAlisPro 1.171.38.41 (Rigaku OD, 2015)'
_computing_molecular_graphics    'Olex2 (Dolomanov et al., 2009)'
_computing_publication_material  'Olex2 (Dolomanov et al., 2009)'
_computing_structure_refinement  'ShelXL (Sheldrick, 2015)'
_computing_structure_solution    'ShelXT (Sheldrick, 2015)'
_diffrn_ambient_temperature      150.0
_diffrn_detector                 'CCD plate'
_diffrn_measured_fraction_theta_full 0.994
_diffrn_measured_fraction_theta_max 0.994
_diffrn_measurement_details
;
List of Runs (angles in degrees, time in seconds):

  # Type    Start    End  Width  t~exp~   \w     \q     \k     \f   Frames
--------------------------------------------------------------------------
  1  \w      0.17  66.17   1.00   20.00    --   26.00 -94.50 145.00   66
  2  \f   -360.01   8.99   1.00   20.00 -12.40  24.00 -49.50    --   369
  3  \w    -33.32  61.68   1.00   20.00    --  -20.00  70.50 -25.00   95
;
_diffrn_measurement_device       'abstract diffractometer'
_diffrn_measurement_device_type
'Saxi-CrysAlisPro-abstract goniometer imported SAXI images'
_diffrn_measurement_method       '\w and \f scans'
_diffrn_orient_matrix_type
'CrysAlisPro convention (1999,Acta A55,543-557)'
_diffrn_orient_matrix_UB_11      -0.0318647000
_diffrn_orient_matrix_UB_12      -0.0055802000
_diffrn_orient_matrix_UB_13      -0.0973475000
_diffrn_orient_matrix_UB_21      0.0424793000
_diffrn_orient_matrix_UB_22      -0.1199793000
_diffrn_orient_matrix_UB_23      -0.0249222000
_diffrn_orient_matrix_UB_31      -0.0348246000
_diffrn_orient_matrix_UB_32      -0.1418051000
_diffrn_orient_matrix_UB_33      0.0246636000
_diffrn_radiation_monochromator  graphite
_diffrn_radiation_probe          x-ray
_diffrn_radiation_type           MoK\a
_diffrn_radiation_wavelength     0.71073
_diffrn_reflns_av_R_equivalents  0.0411
_diffrn_reflns_av_unetI/netI     0.0265
_diffrn_reflns_Laue_measured_fraction_full 0.994
_diffrn_reflns_Laue_measured_fraction_max 0.994
_diffrn_reflns_limit_h_max       12
_diffrn_reflns_limit_h_min       -14
_diffrn_reflns_limit_k_max       4
_diffrn_reflns_limit_k_min       -4
_diffrn_reflns_limit_l_max       8
_diffrn_reflns_limit_l_min       -8
_diffrn_reflns_number            1205
_diffrn_reflns_point_group_measured_fraction_full 0.994
_diffrn_reflns_point_group_measured_fraction_max 0.994
_diffrn_reflns_theta_full        25.242
_diffrn_reflns_theta_max         26.357
_diffrn_reflns_theta_min         2.971
_diffrn_source                   'fine-focus sealed X-ray tube'
_diffrn_source_type              'Enhance (Mo) X-ray Source'
_exptl_absorpt_coefficient_mu    18.903
_exptl_absorpt_correction_T_max  1.00000
_exptl_absorpt_correction_T_min  0.39972
_exptl_absorpt_correction_type   multi-scan
_exptl_absorpt_process_details
;
CrysAlisPro 1.171.38.41 (Rigaku Oxford Diffraction, 2015)
Empirical absorption correction using spherical harmonics,
 implemented in SCALE3 ABSPACK scaling algorithm.
;
_exptl_crystal_colour            'clear light colourless'
_exptl_crystal_colour_lustre     clear
_exptl_crystal_colour_modifier   light
_exptl_crystal_colour_primary    colourless
_exptl_crystal_density_diffrn    3.876
_exptl_crystal_description       needle
_exptl_crystal_F_000             316
_exptl_crystal_size_max          0.2
_exptl_crystal_size_mid          0.1
_exptl_crystal_size_min          0.05
_refine_diff_density_max         1.523
_refine_diff_density_min         -1.932
_refine_diff_density_rms         0.376
_refine_ls_extinction_method     none
_refine_ls_goodness_of_fit_ref   1.109
_refine_ls_hydrogen_treatment    undef
_refine_ls_matrix_type           full
_refine_ls_number_parameters     29
_refine_ls_number_reflns         348
_refine_ls_number_restraints     0
_refine_ls_restrained_S_all      1.109
_refine_ls_R_factor_all          0.0537
_refine_ls_R_factor_gt           0.0499
_refine_ls_shift/su_max          0.000
_refine_ls_shift/su_mean         0.000
_refine_ls_structure_factor_coef Fsqd
_refine_ls_weighting_details
'w=1/[\s^2^(Fo^2^)+(0.1040P)^2^+1.3004P] where P=(Fo^2^+2Fc^2^)/3'
_refine_ls_weighting_scheme      calc
_refine_ls_wR_factor_gt          0.1310
_refine_ls_wR_factor_ref         0.1342
_reflns_Friedel_coverage         0.000
_reflns_number_gt                320
_reflns_number_total             348
_reflns_threshold_expression     'I > 2\s(I)'
_cod_data_source_file            dk5058sup1.cif
_cod_data_source_block           I
_cod_database_code               2021895
_chemical_oxdiff_formula         rb2ti2o5
_shelx_space_group_comment
;
The symmetry employed for this shelxl refinement is uniquely defined
by the following loop, which should always be used as a source of
symmetry information in preference to the above space-group names.
They are only intended as comments.
;
_reflns_odcompleteness_completeness 100.00
_reflns_odcompleteness_iscentric 1
_reflns_odcompleteness_theta     26.32
_olex2_refinement_description
;
;
_shelx_res_file
;
    rb2ti2o5_2_290115.res created by SHELXL-2014/7

TITL rb2ti2o5_2_290115_a.res in C2/m
REM Old TITL rb2ti2o5_2_290115 in C2/m #12
REM SHELXT solution in C2/m
REM R1 0.075, Rweak 0.004, Alpha 0.008, Orientation as input
REM Formula found by SHELXT: O5 Ti2 Rb2
CELL 0.71073 11.345672 3.819549 6.96986 90 100.3591 90
ZERR 2 0.001247 0.000489 0.000788 0 0.0109 0
LATT 7
SYMM -X,+Y,-Z
SFAC O Ti Rb
UNIT 10 4 4

L.S. 10
PLAN  20
TEMP -123.15
BOND $H
LIST 6
fmap 2
ACTA
OMIT 0 0 2
OMIT 0 0 7
REM <olex2.extras>
REM <HklSrc "%.\\rb2ti2o5_2_290115.hkl">
REM </olex2.extras>

WGHT    0.104000    1.300400
FVAR       0.55045
RB1   3    0.098117    0.500000    0.847249    10.50000    0.01230    0.01790 =
         0.01306    0.00000   -0.00163    0.00000
TI1   2    0.352289    0.500000    0.589675    10.50000    0.00552    0.01085 =
         0.01046    0.00000   -0.00432    0.00000
O1    1    0.500000    0.500000    0.500000    10.25000    0.00415    0.01853 =
         0.02163    0.00000   -0.00036    0.00000
O3    1    0.177206    0.500000    0.477555    10.50000    0.00584    0.01629 =
         0.01937    0.00000   -0.00640    0.00000
O2    1    0.376661    0.500000    0.839074    10.50000    0.01282    0.01548 =
         0.01610    0.00000   -0.00350    0.00000
HKLF 4

REM  rb2ti2o5_2_290115_a.res in C2/m
REM R1 =  0.0499 for     320 Fo > 4sig(Fo)  and  0.0537 for all     348 data
REM     29 parameters refined using      0 restraints

END

WGHT      0.1040      1.3004

REM Highest difference peak  1.523,  deepest hole -1.932,  1-sigma level  0.376
Q1    1   0.0717  0.2552  0.8550  11.00000  0.05    1.52
Q2    1   0.1104  0.2561  0.8406  11.00000  0.05    1.48
Q3    1   0.0006  0.3732  0.8410  11.00000  0.05    1.18
Q4    1   0.0000  0.6695  1.0000  10.50000  0.05    1.17
Q5    1   0.1860  0.2662  0.3994  11.00000  0.05    0.98
Q6    1   0.3258  0.3592  0.8566  11.00000  0.05    0.84
Q7    1   0.3826  0.2992  0.5716  11.00000  0.05    0.84
Q8    1   0.5423  0.6410  0.4056  11.00000  0.05    0.79
Q9    1   0.0691  0.3698  0.4843  11.00000  0.05    0.77
Q10   1   0.2152  0.5000  0.5262  10.50000  0.05    0.73
Q11   1   0.5496  0.6069  0.5249  11.00000  0.05    0.69
Q12   1   0.3872  0.4492  0.9575  11.00000  0.05    0.66
Q13   1   0.0976  0.0000  0.7947  10.50000  0.05    0.64
Q14   1   0.1734  0.3636  0.6917  11.00000  0.05    0.61
Q15   1   0.2703  0.5000  0.7780  10.50000  0.05    0.60
Q16   1   0.2318  0.3150  0.6584  11.00000  0.05    0.59
Q17   1   0.1261  0.4166  0.7101  11.00000  0.05    0.54
Q18   1   0.5299  0.5000  0.7642  10.50000  0.05    0.54
Q19   1   0.1828  0.1229  0.7918  11.00000  0.05    0.50
Q20   1   0.3953  0.1444  0.8642  11.00000  0.05    0.50
;
_shelx_res_checksum              79958
_shelx_hkl_file
;
   0   0  -1  142.88    1.88
   0   0  -1  173.59    2.40
   0   0  -1  215.91    3.84
   0   0   1  171.17    2.38
   0   0   1  173.58    2.46
   0   0   1  222.22    3.60
   0   0  -2  142.73    4.53
   0   0  -2  138.80    5.29
   0   0  -2  128.17    7.16
   0   0   2  136.51    5.96
   0   0   3 8230.82   22.69
   0   0  -3 8303.80   22.30
   0   0  -3 8296.83   28.35
   0   0   3 8366.61   28.42
   0   0   3 8174.33   22.41
   0   0  -4 3120.43   19.88
   0   0   4 3105.38   16.95
   0   0   5  542.36   10.51
   0   0  -5  547.02   13.03
   0   0   6  688.94   12.99
   0   0  -6  699.63   16.00
   0   0   6  686.53   13.38
   0   0  -7 2178.25   27.25
   0   0   7 2094.29   21.28
   0   0   8    3.74   11.23
   0   0  -8   31.85   13.36
   0  -2   0 9175.26   20.37
   0   2   0 9173.61   23.93
   0   2  -1   29.57    3.94
   0  -2   1   17.94    2.44
   0  -2   1   30.79    7.67
   0  -2  -1    8.47    1.77
   0   2   1   21.32    4.13
   0  -2   1   19.71    3.91
   0  -2  -1   26.74    4.61
   0   2  -2   17.83    4.96
   0  -2   2   13.28    3.47
   0  -2  -2   11.94    5.82
   0  -2  -2   20.61    4.76
   0  -2   2    3.73    8.76
   0  -2  -2   18.65    4.25
   0  -2   2    9.80    3.29
   0   2   2   20.20    5.75
   0  -2  -3 3034.52   15.80
   0  -2   3 3028.22   12.28
   0   2   3 3044.13   17.73
   0  -2  -3 2990.63   20.60
   0   2  -4 1501.35   13.41
   0  -2  -4 1479.79   18.66
   0  -2   4 1242.19   16.43
   0   2   4 1521.05   15.65
   0  -2  -4 1552.66   14.73
   0  -2   4 1334.02   10.00
   0  -2  -4 1119.07    6.95
   0  -2   5  217.38    8.43
   0  -2  -5  252.09   12.63
   0   2  -5  201.89    9.81
   0  -2  -5  273.76   11.50
   0   2   5  211.81   10.70
   0  -2   5  247.24   12.34
   0  -2   6  252.02    9.40
   0   2   6  266.55   12.05
   0  -2  -6  298.25   14.41
   0  -2  -6  297.60   12.42
   0  -2   6  303.61   15.20
   0  -2  -7 1050.67   22.38
   0  -2   7 1005.54   14.62
   0  -4   0 2936.27   27.60
   0  -4   0 1207.76    8.52
   0  -4  -1   -3.04    6.92
   0  -4   1    3.00   12.14
   0  -4  -1   15.71   12.35
   0  -4  -2   19.29   10.63
   0  -4  -2   -0.46    9.21
   0  -4   2    3.34   11.78
   0  -4  -3  729.21   15.72
   0  -4   3  918.66   20.19
   0  -4  -4  461.92   16.47
   0  -4   4  661.60   20.97
  -1  -1   8  707.83   15.36
   1  -1  -8  707.93   23.57
  -1   1   8  698.89   18.09
  -1  -1   7  315.10   12.59
  -1   1   7  316.04   12.29
   1  -1  -7  334.70   17.32
  -1  -1   7  312.94   11.48
  -1   1   6 1560.22   17.27
   1  -1  -6 1659.35   21.45
  -1  -1   6 1558.76   18.32
   1   1  -6 1641.47   21.11
  -1  -1   5  206.99    9.90
   1   1  -5  214.23   12.29
  -1  -1   5  146.06    8.08
   1  -1  -5  237.52   11.25
  -1   1   5  204.55    9.00
  -1  -1   5  173.68   10.82
  -1  -1   4  335.96    9.31
   1   1  -4  304.35    8.84
  -1  -1   4  253.63    6.37
   1  -1  -4  229.66    4.99
  -1   1   4  294.04    8.52
  -1  -1   4  173.05    6.98
   1  -1  -4  373.73   11.66
  -1  -1   3 4185.68   14.14
   1   1  -3 4193.59   17.91
  -1   1   3 4175.79   17.69
   1  -1  -3 4325.29   20.97
   1  -1  -3 4280.62   19.49
  -1  -1   2 1691.71   13.33
   1   1  -2 1836.20   10.25
  -1  -1   2 1633.39    6.58
   1  -1  -2 1563.66    9.30
   1  -1  -2 1906.75   14.13
  -1   1   2 1681.14   10.84
   1   1  -1   76.41    2.24
   1  -1  -1   77.68    4.37
   1  -1  -1   68.71    3.73
  -1   1   1   61.54    3.66
  -1   1   1   43.97    3.84
   1   1  -1   41.42    2.26
  -1  -1   1   56.76    4.95
  -1   1   0  339.86    4.41
   1  -1   0  353.00    5.14
   1   1   0  307.46    3.02
  -1  -1   0  366.69    4.84
   1   1   0  349.53    2.76
   1   1   0  296.68    5.74
  -1   1   0  332.21    5.00
   1  -1   0  332.26    4.17
   1   1   0  316.99    3.49
  -1  -1   0  338.01    3.52
   1   1   1 9860.88   19.42
  -1  -1  -1 9999.00   13.99
  -1  -1  -1 9723.67   21.77
   1  -1   1 9803.22   23.28
   1   1   1 9802.14   18.11
  -1   1  -1 9883.33   22.62
  -1  -1  -1 9854.69   18.32
   1  -1   1 9870.09   20.72
   1  -1   2   11.32    4.83
   1  -1   2    3.23    4.47
  -1  -1  -2   12.07    5.29
  -1  -1  -2   18.08    5.29
   1  -1   2   22.97    6.20
  -1   1  -2   14.82    4.41
  -1  -1  -2   18.04    4.59
   1   1   2   10.94    4.64
   1  -1   3   43.08    6.43
  -1  -1  -3   53.64    7.35
   1   1   3   51.87    6.07
   1  -1   3   45.25    5.32
  -1  -1  -3   59.26    7.59
   1  -1   3   37.75    7.40
  -1   1  -3   38.57    6.68
  -1   1  -4 2773.03   20.26
   1  -1   4 2772.12   17.83
   1  -1   4 2768.86   22.32
  -1   1  -5 1243.68   18.19
  -1  -1  -5 1208.92   16.76
   1  -1   5 1135.16   12.89
   1   1   5 1307.22   14.97
   1  -1   5 1343.71   16.66
  -1   1  -6  834.57   18.39
   1   1   6  941.27   15.98
  -1  -1  -6  939.91   18.57
   1  -1   6  910.29   16.71
   1  -1   6  770.71   14.32
  -1  -1  -6  709.84   16.72
  -1  -1  -7  164.97   14.73
  -1   1  -7  164.34   13.86
   1  -1   7  134.61   10.33
  -1  -1  -7  108.22   12.92
   1   1   7  135.13   11.92
   1  -1   7  145.15   11.09
  -1  -1  -8 1098.77   20.79
  -1  -1  -8 1578.72   26.02
   1  -1   8 1487.04   21.79
  -1   1  -8 1149.00   20.69
   1   1   8 1482.70   22.14
  -1  -3   6  640.39    7.15
  -1   3   6  643.67   16.18
  -1  -3   5   58.21    1.99
  -1  -3   5   67.58   14.62
   1  -3  -5   51.79   12.75
  -1   3   5   63.61   10.99
  -1  -3   4  111.71   13.59
  -1   3   4  111.33    9.84
   1  -3  -4  135.76    9.17
   1  -3  -4   98.90   11.16
  -1   3   3 1870.17   17.37
   1  -3  -3 1805.63   18.72
   1  -3  -2  528.77   11.41
  -1   3   2  539.42   10.75
  -1  -3   2  532.51   13.07
  -1  -3   1    6.30    7.54
   1   3  -1    8.09    5.23
  -1   3   1   -6.08    6.68
   1   3  -1    0.79    2.92
   1  -3  -1   -2.07    6.92
  -1  -3   0   91.62    2.85
   1  -3   0  202.13    9.32
   1   3   0  106.56    2.98
   1   3   0  192.86    7.16
  -1  -3   0  191.39    8.95
  -1   3   0  195.96    7.67
   1  -3   0  156.40    7.24
  -1  -3   0   91.14    3.21
   1  -3   1 2789.64   15.38
   1  -3   1 2819.02   15.48
  -1  -3  -1 2666.43   14.98
   1  -3   1 3330.08   26.36
  -1  -3  -1 3199.95   19.83
  -1   3  -1 2957.35   19.14
   1   3   1 3135.94   19.01
  -1  -3  -1 2608.10   13.53
   1   3   2   21.21    6.20
  -1   3  -2   20.68    7.40
   1  -3   2   36.31    6.30
  -1  -3  -2   21.69    6.86
  -1  -3  -2   22.59    3.74
  -1  -3  -2   20.12    5.15
   1  -3   2   16.87   12.22
  -1   3  -2   15.03    5.56
   1  -3   3   59.44   20.53
  -1  -3  -3   50.65    6.80
  -1  -3  -3   35.61    8.68
   1  -3   3   27.70    5.67
   1   3   3   26.40    9.82
  -1  -3  -3   37.61    5.47
  -1   3  -3   27.11    8.03
   1  -3   4 1096.57   20.82
   1  -3   4 1260.07   12.24
  -1  -3  -4 1549.92   16.80
   1   3   4 1438.60   19.51
  -1  -3  -4 1068.58   17.60
  -1  -3  -5  569.61   13.96
   1   3   5  594.47   17.75
   1  -3   5  472.38   17.58
  -1   3  -5  408.00   13.32
  -1  -3  -5  385.74   14.94
   1  -3   5  408.90    9.77
  -1  -3  -6  327.09   17.10
   1  -3   6  300.80   11.82
   1  -3   6  345.47   17.76
  -2   0   8   56.36   11.79
   2   0  -8   71.33   13.90
   2   0  -7  189.16   12.69
  -2   0   7  181.42   10.37
  -2   0   6 1443.48   15.05
   2   0  -6 1347.12   18.12
  -2   0   5 2028.95   18.62
   2   0  -5 1978.24   18.56
  -2   0   4   85.45    7.37
  -2   0   4   71.29    7.45
   2   0  -4   73.96    7.00
  -2   0   3    8.67    4.50
  -2   0   3    9.96    5.80
  -2   0   3   12.02    6.63
   2   0  -3    6.96    5.04
  -2   0   2 7314.16   15.60
   2   0  -2 7254.77   19.53
  -2   0   1   54.86    2.21
   2   0  -1   57.71    2.96
  -2   0   0  153.13    3.21
   2   0   0  149.25    3.04
   2   0   0  158.49    3.33
   2   0   1 2560.26   11.08
   2   0   1 2598.40   12.74
  -2   0  -1 2570.05   11.29
   2   0   1 2580.99   11.01
  -2   0  -1 2546.27   10.94
  -2   0  -2 5501.48   19.98
  -2   0  -2 5519.43   18.88
  -2   0  -3 1978.03   15.78
  -2   0  -3 2004.93   16.54
   2   0   3 1975.69   13.93
  -2   0  -4   95.34    9.91
  -2   0  -4   88.22   11.51
   2   0   4   79.93    7.69
   2   0   4   64.20    5.18
  -2   0  -5 2622.84   24.06
   2   0   5 2689.48   18.36
   2   0   6    4.59    9.59
   2   0   6    3.87    6.86
  -2   0  -6   -2.40   10.35
  -2   0  -6   -8.31   12.38
   2   0   7  779.23   16.41
  -2   0  -7  766.57   19.85
   2   0   8  164.85   12.81
  -2   0  -8  210.67   17.42
  -2   2   7  100.34   12.56
   2  -2  -7  109.59   15.21
  -2  -2   7  129.58    9.30
  -2  -2   7  125.85   13.40
  -2   2   6  834.20   16.24
  -2  -2   6  809.31   10.21
   2  -2  -6  732.29   18.22
  -2  -2   6  693.56   16.74
  -2  -2   5  715.17   13.62
   2  -2  -5 1130.77   18.10
  -2   2   5 1218.17   16.53
  -2  -2   5  867.60    8.77
   2   2  -4   16.20    5.79
   2  -2  -4   26.34    8.89
  -2  -2   4   36.64   11.04
  -2   2   4   28.94    7.05
  -2  -2   4   21.83    2.62
  -2  -2   4   13.97    2.87
  -2  -2   3    2.45    9.65
   2  -2  -3    8.63    7.34
   2   2  -3   10.29    5.24
  -2   2   3    4.28    6.02
  -2  -2   2 4150.70   24.80
   2  -2  -2 4201.22   17.98
   2  -2  -1   10.33    5.75
  -2  -2   1   16.92    6.51
   2   2  -1    6.96    2.38
  -2   2   1    7.21    5.01
   2   2  -1    7.45    2.96
   2  -2  -1    0.40    4.60
   2  -2   0   35.92    5.20
   2  -2   0   38.69    4.76
   2   2   0   45.08    3.42
   2   2   0   44.99    3.74
  -2  -2   0   47.19    3.59
  -2   2   0   45.02    5.05
  -2  -2  -1  735.51    6.38
   2  -2   1  866.11   10.50
  -2  -2  -1  917.68    7.46
  -2   2  -1  821.48    6.31
  -2   2  -1  917.08   10.21
   2  -2   1  793.48    8.43
   2   2   1  986.78    8.40
  -2  -2  -1 1022.89    7.37
   2   2   1 1014.89    7.78
  -2  -2  -2 2067.29   14.75
  -2   2  -2 1850.35   11.73
  -2   2  -2 2145.76   15.05
   2  -2   2 2071.65   14.40
  -2  -2  -2 2257.11   11.38
   2  -2   2 2063.54   15.33
  -2  -2  -2 1976.86    9.12
   2   2   2 2167.37   15.38
  -2   2  -3  751.89   11.02
  -2  -2  -3  781.94   14.10
  -2   2  -3  703.10   11.69
   2   2   3  665.09   12.24
  -2  -2  -3  866.39   10.38
  -2  -2  -3  803.34    9.88
   2  -2   3  759.48   14.88
   2  -2   3  707.27   11.36
   2  -2   3  875.00   12.61
   2  -2   4   43.86   12.41
   2  -2   4   42.76    7.58
  -2  -2  -4   54.93    9.56
  -2   2  -4   59.57    8.76
  -2   2  -4   40.63    9.33
  -2  -2  -4   59.73    8.59
   2   2   4   69.31    9.70
  -2   2  -5 1629.52   18.58
  -2  -2  -5 1449.35   20.38
   2  -2   5 1230.56   18.97
   2   2   5 1530.33   17.72
  -2   2  -5 1257.58   17.04
   2  -2   5 1492.91   15.72
  -2  -2  -5 1366.95   18.70
  -2  -2  -5 1560.49   17.28
  -2  -2  -6    4.25   10.23
  -2  -2  -6   22.31   11.81
   2   2   6    3.34   11.13
  -2  -2  -6   21.63   11.10
  -2   2  -6    2.58   11.90
   2  -2   6    5.63   10.67
   2  -2   6   -3.48    8.21
   2  -2   7  413.46   16.80
  -2  -2  -7  414.46   15.23
  -2   2  -7  289.33   14.74
   2   2   7  388.76   16.10
  -2  -2  -7  341.86   15.96
   2  -2   7  438.81   14.26
  -2  -2  -7  308.25   16.97
  -2  -4   4   34.89   17.03
   2  -4  -4   13.19   13.62
   2  -4  -3   10.25    9.49
   2  -4  -3   -1.03   11.25
  -2  -4   3   10.36   15.18
  -2  -4   2 1679.07   25.00
   2  -4  -2 1698.57   20.16
   2  -4  -1   16.92   10.46
   2  -4  -1    7.19   12.16
  -2  -4   1    3.06   11.91
   2  -4   0   13.73    9.68
   2  -4   0   -1.66   12.95
  -2  -4   0   20.51   10.46
   2  -4   1  438.48   18.99
  -2  -4  -1  432.41   13.02
   2  -4   2 1052.94   25.85
   2  -4   2  808.45   11.54
   2  -4   3  269.08    8.61
  -2  -4  -3  232.17   10.76
   2  -4   4   13.96   15.65
  -2  -4  -4   29.97   11.50
   2  -4   4   14.07    7.37
  -3   1   8 1327.01   21.20
   3  -1  -8 1395.48   24.04
  -3   1   7   21.38   10.42
   3  -1  -7   22.89    9.98
   3  -1  -7   17.57   10.64
  -3  -1   7   27.23   11.58
  -3  -1   7    1.66    9.17
  -3   1   6  107.57   10.01
  -3  -1   6  108.86    7.96
   3   1  -6   74.82   10.40
   3  -1  -6   72.65    9.95
   3  -1  -6   76.33    9.27
  -3  -1   5 4159.01   31.09
   3  -1  -5 4831.86   27.65
   3  -1  -5 4629.24   28.35
  -3   1   5 4118.41   24.50
  -3  -1   5 4315.74   20.72
   3   1  -5 4157.17   25.60
  -3  -1   4  372.42    5.28
  -3   1   4  390.65    7.92
  -3  -1   4  392.48   10.39
   3   1  -4  397.78    7.99
  -3   1   3    5.84    4.69
  -3  -1   3    8.98    5.70
  -3  -1   3    0.59    2.87
   3   1  -3    2.59    5.05
   3  -1  -3    1.42    6.26
  -3  -1   3    2.39    2.35
   3   1  -2 2097.87    8.41
   3  -1  -2 2100.74   13.70
  -3   1   1 4958.21   16.43
   3  -1  -1 4928.88   16.10
  -3  -1   1 4982.26   19.90
   3  -1  -1 5015.66   12.09
   3   1  -1 5002.59   15.24
   3  -1   0   44.68    5.58
   3   1   0   24.73    3.23
   3  -1   0   27.85    3.70
  -3   1   0   36.02    4.93
   3  -1   0   38.98    4.46
  -3  -1   0   48.10    4.89
  -3   1   0   23.89    3.04
  -3  -1   0   30.62    3.64
   3   1   0   32.37    3.18
   3  -1   1 2217.66   13.15
  -3  -1  -1 2398.11   12.17
  -3   1  -1 2306.07   13.33
  -3  -1  -1 2097.66   10.84
   3   1   1 2338.90   10.71
   3  -1   1 2357.35   13.71
   3   1   1 2479.84    9.90
   3  -1   1 2354.71   12.77
   3   1   1 2342.20   12.39
  -3   1  -1 2205.93   11.40
   3   1   2 2286.45    6.78
  -3   1  -2 2060.01   13.95
  -3   1  -2 2129.35   13.28
   3  -1   2 2448.47   15.75
  -3  -1  -2 2460.80   14.83
  -3  -1  -2 2114.44   15.93
   3   1   2 2200.22   14.05
  -3  -1  -2 2156.59   12.26
   3  -1   3 2027.94   16.07
  -3   1  -3 2010.00   16.27
  -3   1  -3 1997.88   15.57
  -3  -1  -3 2295.86   16.55
  -3  -1  -3 2311.31   19.49
   3   1   3 2115.63   15.02
  -3  -1  -3 2103.73   13.76
  -3   1  -4 2953.04   21.27
  -3   1  -4 2769.38   21.01
   3  -1   4 2665.46   21.06
   3   1   4 2917.62   19.21
   3  -1   4 2720.05   18.37
  -3  -1  -4 3427.66   26.36
  -3  -1  -4 3381.75   21.83
   3  -1   5  154.82   11.61
   3   1   5  127.84    9.35
  -3   1  -5  121.45   10.88
   3  -1   5  168.30   12.01
  -3   1  -5  129.07   11.62
  -3  -1  -5  134.82   11.82
  -3  -1  -5  120.06   10.33
   3  -1   6 1746.02   18.88
  -3   1  -6 1749.02   23.25
   3  -1   6 1489.15   17.98
  -3   1  -6 1360.89   20.32
  -3  -1  -6 1633.54   19.56
  -3  -1  -6 1840.35   24.69
  -3   1  -7  332.23   20.04
   3  -1   7  311.20   12.60
   3  -1   7  341.33   14.00
   3   1   7  372.27   13.41
  -3   1  -7  289.67   14.51
  -3  -1  -7  299.12   14.12
  -3  -1  -7  417.53   18.03
  -3   3   6   38.16   14.00
  -3  -3   6   71.71   12.74
   3  -3  -6   39.50   14.13
  -3  -3   5 1968.89   27.06
  -3   3   5 1930.84   22.54
  -3  -3   4  209.51   11.94
   3  -3  -4  186.10   12.34
   3  -3  -3    7.90    9.57
  -3  -3   3    8.81    8.76
  -3   3   3    9.13    9.28
  -3  -3   2  604.95   15.59
   3  -3  -2  608.15   12.72
   3  -3  -1 2541.89   21.23
  -3   3   1 2501.30   19.26
  -3  -3   0   38.01    8.28
   3  -3   0   31.40    8.69
  -3   3   0   31.05    7.94
  -3  -3  -1  451.07    7.74
   3  -3   1  459.51   11.34
  -3   3  -2  945.79   15.58
   3  -3   2  970.90   13.98
  -3  -3  -2  981.17    9.62
  -3   3  -3  755.16   14.18
   3  -3   3  754.22   18.61
  -3  -3  -3  718.15   11.98
   3  -3   4 1336.56   26.05
  -3   3  -4  965.76   13.99
  -3  -3  -4 1115.86   16.30
   3  -3   4 1206.44   15.17
  -3  -3  -5   75.41   10.91
  -3  -3  -5   44.06   12.60
  -3   3  -5   57.03    9.95
   3  -3   5   95.63   12.60
   3  -3   5   77.43   17.97
   3  -3   6 1016.22   15.68
  -3   3  -6  592.28   15.21
  -3  -3  -6  615.48   19.26
   3  -3   6  788.87   19.55
  -3  -3  -6 1135.81   22.69
  -4   0   8  378.83   12.91
  -4   0   7 1473.26   17.26
   4   0  -7 1740.34   23.62
  -4   0   6    7.85    7.08
   4   0  -6   14.46    9.12
  -4   0   5   33.23    9.04
  -4   0   5   27.44    6.06
   4   0  -5   12.66    7.71
  -4   0   4 6709.08   24.04
   4   0  -4 6918.88   31.49
  -4   0   3  228.38    5.78
   4   0  -3  208.33    5.76
   4   0  -3  222.88    5.90
  -4   0   3  197.14    6.32
  -4   0   2    7.85    3.72
   4   0  -2   11.79    4.03
  -4   0   2   11.73    3.73
  -4   0   1 3201.25   11.88
   4   0  -1 3126.53   13.11
   4   0  -1 3136.47   12.12
  -4   0   1 3180.41   13.58
  -4   0   0 8366.00   19.61
   4   0   0 8342.73   20.23
  -4   0   0 8239.82   19.88
   4   0   0 8247.22   19.31
  -4   0   0 8153.22   20.43
  -4   0  -1 1113.87    9.92
  -4   0  -1 1226.92   10.55
   4   0   1 1226.81   10.19
  -4   0  -1 1155.49   10.41
  -4   0  -2  700.75    9.98
  -4   0  -2  707.26    9.63
  -4   0  -3 5343.89   27.90
  -4   0  -3 5286.84   25.32
  -4   0  -4  217.53   10.31
   4   0   4  226.04    9.37
   4   0   5 1801.50   17.66
  -4   0  -5 1616.27   19.32
   4   0   6  504.20   13.11
  -4   0  -6  492.54   15.86
   4   0   7  915.51   16.36
  -4   0  -7  912.96   21.13
  -4  -2   7 1188.10   26.39
  -4  -2   7  788.38    8.84
  -4   2   7  958.33   17.05
   4  -2  -7 1013.27   22.14
  -4   2   6  -13.16   10.80
   4  -2  -6    9.48   11.39
  -4  -2   6   -5.25   11.97
  -4   2   5   19.91    8.93
   4  -2  -5   21.21   10.59
  -4  -2   5   12.54    9.40
   4  -2  -4 3925.77   26.72
  -4  -2   4 3725.61   29.48
   4   2  -3  111.04    3.91
   4  -2  -3   97.29    8.64
  -4  -2   3  107.85    9.39
  -4  -2   2    3.88    6.47
   4  -2  -2   14.62    7.04
  -4   2   2   12.65    3.91
   4  -2  -2    9.60    3.13
   4  -2  -1 1596.49   14.48
  -4   2   1 1571.37   13.32
  -4  -2   0 4250.08   19.32
   4  -2   0 4068.74   21.38
   4   2   0 4182.40   12.89
  -4   2   0 4016.12   21.08
  -4   2   0 4226.57   12.03
  -4  -2   0 4169.53   17.75
   4  -2   1  592.15   10.39
  -4  -2  -1  354.52    4.05
  -4   2  -1  492.33    9.01
  -4  -2  -1  597.41    8.30
   4   2   1  498.46    7.31
  -4   2  -1  532.07    6.18
  -4  -2  -1  562.92    7.81
  -4   2  -2  306.98    8.77
  -4  -2  -2  324.68    7.27
  -4   2  -2  333.41    8.26
   4   2   2  346.31    7.77
  -4  -2  -2  357.07    7.82
  -4   2  -3 2524.17   20.06
  -4   2  -3 2612.22   18.05
   4   2   3 2518.26   18.51
  -4  -2  -3 2519.27   15.81
  -4  -2  -3 2263.92   17.93
  -4  -2  -3 2178.28   18.37
   4  -2   3 2571.57   19.29
  -4  -2  -4  122.24    9.64
  -4  -2  -4   82.84    9.33
  -4   2  -4  121.01   10.45
  -4   2  -4   95.80    9.74
   4   2   4  102.30   10.36
   4  -2   4   64.58   10.34
   4  -2   4   93.40   10.20
  -4  -2  -4   88.75   11.50
  -4   2  -5  963.31   18.19
   4  -2   5  919.74   19.00
  -4  -2  -5 1159.03   16.20
  -4   2  -5  918.70   16.02
   4   2   5 1219.88   19.42
   4  -2   5 1038.93   15.94
  -4  -2  -5 1053.07   22.69
   4   2   6  270.43   14.24
  -4   2  -6  304.14   14.15
  -4   2  -6  221.76   13.01
  -4  -2  -6  348.25   15.71
   4  -2   6  262.34   12.54
   4  -2   6  230.07   13.52
  -4  -2  -6  337.94   19.69
   4  -4  -4 1555.92   25.04
  -4  -4   4 1674.85   27.88
  -4  -4   3   45.97   13.37
   4  -4  -3   48.39   14.07
   4  -4  -2    3.84   14.31
  -4  -4   2   -6.51   12.41
  -4  -4   1  460.21   14.47
   4  -4  -1  509.52   15.78
   4  -4   0 1198.36   17.26
  -4  -4   0 1281.01   18.43
   4  -4   1  274.29   13.35
  -4  -4  -1  199.92   10.00
   4  -4   2  116.61   17.98
   4  -4   2   85.91   10.26
   4  -4   3 1104.48   27.55
   4  -4   3  988.35   16.52
  -5  -1   8   73.71    9.03
  -5   1   8   65.24   12.93
   5  -1  -8   66.89   16.23
  -5  -1   7 1018.38   14.00
  -5   1   7 1072.53   18.12
  -5  -1   6  334.31    8.41
  -5   1   6  419.13   11.63
  -5  -1   6  338.05   14.52
   5  -1  -6  394.94   13.95
  -5   1   5   14.56    7.24
   5  -1  -5   -0.42    9.16
  -5  -1   5   10.25   11.33
   5   1  -5    5.05    6.81
  -5  -1   5   -1.00    7.89
  -5  -1   5    3.46    4.80
  -5  -1   4   64.20    5.74
  -5  -1   4   75.09    3.34
  -5   1   4  129.72    7.84
  -5  -1   4  143.21   11.88
   5  -1  -4  119.03    8.17
   5   1  -4  108.07    5.73
  -5   1   3 3259.21   17.24
   5  -1  -3 3271.77   20.08
   5  -1  -2    7.71    5.29
  -5   1   2   20.82    5.65
  -5  -1   2   18.68    7.21
   5   1  -2   14.48    2.67
   5   1  -1  155.38    3.29
  -5   1   1  159.88    6.26
   5  -1  -1  156.32    4.32
  -5  -1   1  165.93    6.16
  -5   1   1  168.74    5.45
   5   1   0 1532.31    8.78
   5  -1   0 1524.98   12.08
  -5   1   0 1604.17   11.95
  -5  -1   0 1500.59    5.81
  -5   1   0 1563.73    9.66
  -5  -1   0 1575.64   11.12
   5  -1   1 2345.06   16.04
  -5   1  -1 2319.91   15.10
  -5  -1  -1 2370.70   14.58
   5   1   1 2351.12   12.35
  -5  -1  -2 1618.77   12.01
  -5   1  -2 1597.22   15.13
  -5   1  -2 1628.95   13.76
  -5  -1  -2 1633.28   15.23
   5  -1   2 1607.44   15.49
  -5  -1  -3  269.95    9.33
  -5   1  -3  148.89    8.64
  -5  -1  -3  216.45    9.33
   5   1   3  238.30    6.15
   5   1   3  170.25    8.45
   5  -1   3  176.85    8.43
  -5   1  -3  204.56   10.49
  -5  -1  -3  243.76   10.98
  -5   1  -4 2008.95   19.59
  -5   1  -4 2142.61   19.41
  -5  -1  -4 2149.68   18.90
   5   1   4 2572.58   23.01
   5  -1   4 2009.26   19.21
   5   1   4 1950.85    8.79
  -5  -1  -4 2373.39   24.01
   5   1   5   19.40    9.69
   5  -1   5   22.94    9.18
  -5   1  -5   28.80   10.36
  -5  -1  -5   43.49   12.07
  -5   1  -5   32.96   11.00
  -5  -1  -5   38.29   12.92
   5  -1   5   16.67    8.96
  -5   1  -6  823.49   18.28
  -5   1  -6  797.31   16.01
  -5  -1  -6  918.97   17.41
   5   1   6  841.41   16.48
   5  -1   6  948.19   19.76
   5  -1   6  869.97   17.68
  -5  -1  -6  964.68   21.93
  -5   1  -7   64.61   15.81
  -5   1  -7   85.60   12.67
  -5  -1  -7   96.78   13.77
   5  -1   7   72.69   12.16
   5   1   7   93.06   14.07
  -5  -1  -7   71.32   14.90
  -5   3   6  170.44   14.80
   5  -3  -6  185.34   15.35
   5  -3  -5   -1.64   12.37
  -5   3   5   13.89   11.59
  -5  -3   5   10.81   12.05
   5  -3  -4   88.90   11.85
  -5   3   4   73.60    9.95
  -5  -3   4   64.44   10.94
  -5   3   3 1552.80   16.17
  -5  -3   3 1622.79   21.49
  -5  -3   2   10.49    8.72
   5  -3  -2   24.73   10.11
  -5   3   2   21.16    8.54
  -5   3   1   83.30    9.48
  -5  -3   1   75.97    7.50
   5  -3   0  821.88   16.07
  -5   3   0  821.15   13.87
  -5  -3   0  778.63   11.68
   5  -3   1  882.95   15.10
  -5   3  -1  844.05   13.78
  -5   3  -2  658.65   13.81
  -5   3  -2  701.45    9.19
  -5  -3  -2  838.64   11.61
   5  -3   2  832.34   16.29
  -5   3  -3   74.52    9.94
  -5  -3  -3   79.06    7.99
  -5   3  -3   68.43    6.52
   5  -3   3   88.96   10.14
   5  -3   4  751.00   18.34
  -5  -3  -4  959.06   16.65
  -5   3  -4  841.98   14.42
   5  -3   4 1029.29   18.39
   5  -3   5    3.93   16.07
   5  -3   5   25.12   10.85
  -5  -3  -5   -3.24   12.47
  -5  -3  -5   21.04   12.74
  -6   0   8    8.82   10.22
  -6   0   7   23.41    9.05
  -6   0   6 1684.14   17.01
   6   0  -6 1619.90   19.75
  -6   0   5  130.20    7.39
   6   0  -5  136.62    9.01
  -6   0   4  612.16    8.45
   6   0  -4  554.50   10.86
  -6   0   3  407.08    7.06
   6   0  -3  383.17    7.55
  -6   0   2 4072.14   14.86
   6   0  -2 3999.19   17.57
  -6   0   1 2846.58   13.16
   6   0  -1 2692.11   14.32
  -6   0   1 2729.99   13.31
  -6   0   1 2831.51   15.83
   6   0   0   82.31    5.62
  -6   0   0   76.62    5.01
  -6   0   0   75.57    5.23
   6   0   1 4147.02   19.88
  -6   0  -1 4350.71   20.73
  -6   0  -1 4213.11   19.60
  -6   0  -1 4004.75   19.72
   6   0   2   17.10    7.47
  -6   0  -2    7.40    7.47
  -6   0  -2    7.71    7.68
  -6   0  -3 1721.94   18.40
  -6   0  -3 1739.21   17.22
  -6   0  -4  439.31   13.98
  -6   0  -4  461.74   12.98
   6   0   4  428.16   11.61
  -6   0  -5  605.25   17.77
  -6   0  -5  607.21   16.06
   6   0   5  558.80   14.72
   6   0   6  405.44   13.71
  -6   0  -6  365.16   16.54
   6   0   7  619.67   16.16
  -6   0  -7  629.68   18.68
   6  -2  -7    1.95   12.25
  -6  -2   7   16.18   15.39
  -6   2   7   34.44   11.87
   6  -2  -6 1188.43   20.86
  -6  -2   6 1298.38   22.82
  -6   2   5  105.47   10.11
   6  -2  -5   94.36   11.04
  -6  -2   5  117.62   13.66
   6  -2  -4  332.39   12.37
  -6  -2   4  386.53   14.80
  -6   2   3  283.11    9.83
   6  -2  -3  243.88   10.11
  -6  -2   3  263.70   11.94
   6  -2  -2 3077.65   22.91
  -6   2   2 3010.12   20.81
  -6   2   1 1544.39   15.19
  -6  -2   1 1501.83   14.34
   6  -2   0   86.25    8.80
  -6   2   0   94.62    7.88
  -6   2   0   74.92    5.00
  -6  -2   0   76.76    6.49
   6   2   0  100.18    5.64
   6  -2   1 2174.51   18.56
  -6   2  -1 2324.43   18.65
  -6   2  -1 2315.89   13.82
  -6  -2  -1 2126.90   14.98
   6   2   2    6.47    9.55
   6  -2   2   14.65   10.44
  -6  -2  -2    3.84    7.00
  -6  -2  -2   -2.39    5.81
  -6   2  -2   11.33    6.54
  -6  -2  -2    1.04    6.68
  -6   2  -2   -6.34    8.57
  -6   2  -3 1043.75   16.27
  -6   2  -3 1050.10   12.70
  -6  -2  -3 1166.37   13.90
   6   2   3 1118.90   16.14
  -6  -2  -3  964.04   16.29
   6  -2   3  966.38   16.06
  -6   2  -4  278.03   12.73
  -6   2  -4  301.70   11.38
  -6  -2  -4  296.50   10.95
   6  -2   4  290.20   12.60
  -6   2  -5  341.24   14.65
  -6   2  -5  355.89   12.56
  -6  -2  -5  374.06   11.27
   6  -2   5  311.66   13.18
  -6  -2  -5  316.69   17.79
   6  -2   6  277.91   18.11
  -6   2  -6  262.01   15.26
  -6   2  -6  282.21   15.10
  -6  -2  -6  319.63   13.67
   6  -2   6  271.70   15.66
  -6  -2  -6  301.03   20.13
  -6   4   3   94.15   13.70
  -6  -4   3  107.54   13.15
   6  -4  -2 1045.01   19.54
  -6  -4   2 1253.11   23.35
   6  -4  -1  575.15   17.75
  -6  -4   1  590.51   18.64
   6  -4   0   48.81   11.96
  -6  -4   0   37.45   15.12
   6  -4   1  836.19   19.59
   6  -4   2    9.40   12.99
  -7  -1   8  231.54   10.03
  -7   1   8  338.51   15.56
   7  -1  -7   -4.68   11.97
  -7  -1   7    7.02    7.33
  -7   1   7    2.33   11.19
  -7  -1   6  165.55    6.85
  -7   1   6  224.78   10.17
  -7   1   5 1654.23   13.09
   7  -1  -5 2116.54   20.56
   7  -1  -4   -0.44    7.93
   7   1  -4    4.58    5.33
  -7   1   4    4.03    7.24
  -7   1   3  757.08   11.69
   7  -1  -3  650.39   11.45
  -7   1   2 1586.05   14.79
   7  -1  -2 1409.17   14.13
   7   1  -1 2455.07   13.27
   7  -1  -1 2413.11   18.09
  -7   1   1 2352.99   16.43
  -7  -1   1 2648.58   19.52
  -7   1   1 2622.81   17.44
   7   1   0 2698.42   14.16
   7  -1   0 2703.41   18.48
  -7   1   0 2556.89   17.11
  -7  -1   0 2630.26   10.87
  -7   1   0 2475.84   14.74
  -7  -1   0 2592.34   16.76
   7  -1   1  556.51   10.78
  -7   1  -1  508.82    9.77
  -7   1  -1  566.17    9.21
  -7  -1  -1  582.07    9.78
  -7  -1  -1  532.98    9.69
  -7   1  -2 2632.94   21.34
  -7  -1  -2 2911.15   18.25
  -7   1  -2 2359.19   17.58
   7   1   2 2619.87   18.66
  -7  -1  -2 2398.46   19.29
   7  -1   2 2672.91   22.13
  -7  -1  -2 2623.91   19.56
  -7   1  -3  122.91    9.86
  -7   1  -3   92.64    7.71
  -7  -1  -3  110.52    9.37
   7   1   3  121.90    9.79
   7  -1   3   90.02    9.22
  -7  -1  -3  147.94   11.02
  -7   1  -4 1936.79   20.78
  -7   1  -4 2167.50   20.76
  -7  -1  -4 1745.09   17.12
   7   1   4 2070.96   19.84
   7  -1   4 1990.82   20.49
  -7  -1  -4 2298.32   25.18
  -7   1  -5  137.17   13.09
  -7   1  -5  153.61   11.88
  -7  -1  -5  163.04   11.30
   7   1   5  131.37   12.18
   7  -1   5  131.22   11.60
  -7   1  -6  317.37   16.22
  -7   1  -6  302.30   13.31
  -7  -1  -6  395.69   15.67
   7   1   6  353.73   14.76
   7  -1   6  355.47   15.59
  -7  -1  -6  315.21   18.42
  -7   3   5 1215.96   19.88
  -7  -3   5 1272.42   25.95
   7  -3  -4   -2.80   12.17
  -7  -3   4   -4.51   13.45
  -7   3   4   -5.26   11.16
  -7   3   3  311.24   13.13
  -7  -3   3  335.09   14.49
   7  -3  -2  703.49   15.90
  -7   3   2  719.26   15.25
   7  -3  -1  982.67   16.57
  -7   3   1 1027.41   16.23
   7  -3   0 1118.22   18.58
  -7   3   0 1174.49   17.26
   7  -3   1  284.79   13.11
  -7  -3  -1  306.94   10.89
  -7  -3  -2 1314.42   16.10
   7  -3   2 1214.04   20.44
  -7   3  -3   57.88   11.42
  -7  -3  -3   34.44    5.39
  -7  -3  -3   64.65   10.86
   7  -3   3   75.87   12.64
  -7  -3  -4  922.37   16.11
   7  -3   4 1016.55   19.97
  -8   0   7  140.43   10.28
  -8   0   6   66.28    8.95
  -8   0   5  196.83    8.67
   8   0  -5  229.09    9.99
  -8   0   4 2643.48   16.58
   8   0  -4 2712.49   19.48
  -8   0   3  381.82    8.05
   8   0  -3  378.31    8.75
  -8   0   2  191.68    7.29
   8   0  -2  173.19    7.37
  -8   0   1 2395.88   14.77
   8   0  -1 2387.37   16.24
  -8   0   1 2429.70   17.81
   8   0   0  656.39   10.70
  -8   0   0  621.41   10.13
   8   0   1 2018.65   17.47
  -8   0  -1 1976.77   16.25
  -8   0  -2  463.72   11.31
   8   0   2  443.11   11.65
  -8   0  -3 1599.27   17.73
   8   0   3 1553.05   17.67
  -8   0  -4  480.24   15.22
   8   0   4  511.40   14.26
  -8   0  -5  957.53   16.75
   8   0   5  935.00   16.49
  -8   0  -6  146.03   19.19
  -8   0  -6  123.37   13.58
   8   0   6  148.35   16.24
  -8   2   6   84.82   11.22
   8  -2  -6   70.95   12.71
  -8   2   5  166.59   11.24
   8  -2  -5  161.60   12.19
  -8   2   4 1953.03   20.14
   8  -2  -4 1863.58   21.36
  -8   2   3  285.13   10.94
   8  -2  -3  299.10   12.16
   8  -2  -2  124.54   10.34
  -8   2   2  156.04   10.21
  -8  -2   1 1613.96   17.03
  -8   2   1 1662.65   14.93
   8  -2   0  392.64   12.61
  -8   2   0  389.62    8.71
  -8  -2   0  371.49   10.20
  -8   2  -1 1275.57   15.86
  -8   2  -1 1313.24   12.63
  -8   2  -2  264.26   10.78
  -8  -2  -2  263.75    7.09
  -8   2  -2  286.83    8.97
   8  -2   2  284.06   13.52
  -8   2  -3 1079.41   18.55
  -8   2  -3 1056.70   14.15
  -8  -2  -3 1012.34   17.29
   8  -2   3 1025.59   18.64
  -8   2  -4  299.71   13.18
  -8   2  -4  371.31   13.50
  -8  -2  -4  343.68   11.95
   8  -2   4  302.05   14.40
  -8   2  -5  695.05   17.72
   8  -2   5  657.72   17.15
  -9   1   7 1023.11   18.30
   9  -1  -6   28.11   11.57
  -9   1   6    9.29   10.02
  -9   1   5  120.13   10.51
   9  -1  -5  122.51   10.94
  -9   1   4  689.32   13.22
   9  -1  -4  696.85   14.71
  -9   1   3  760.19   12.76
   9  -1  -3  709.68   13.69
  -9   1   2  731.85   11.96
   9  -1  -2  727.61   13.00
   9   1  -1  500.56   10.11
   9  -1  -1  493.26   13.11
  -9   1   1  413.42   10.96
  -9  -1   1  477.18   12.98
  -9   1   1  417.26   11.68
   9   1   0  864.42   11.65
   9  -1   0  812.19   14.52
  -9   1   0  736.71   12.63
  -9  -1   0  863.36    9.21
  -9   1   0  743.60   11.28
  -9  -1   0  754.84   12.27
   9  -1   1   36.33    9.15
   9   1   1   33.94    9.02
  -9  -1  -1   31.94   10.64
  -9   1  -1   22.54    6.47
  -9  -1  -1   13.28    7.83
  -9   1  -1   18.06    8.80
  -9   1  -2 2297.11   22.62
  -9   1  -2 2097.62   18.41
  -9  -1  -2 2222.17   20.07
   9   1   2 2317.70   19.89
  -9  -1  -2 2164.92   20.59
   9  -1   2 2328.27   23.67
  -9   1  -3   30.53   11.19
   9  -1   3   11.88   10.71
  -9  -1  -3   19.47   11.70
  -9   1  -3   14.77    8.34
  -9  -1  -3   23.87   10.40
  -9   1  -4  657.84   15.83
  -9   1  -4  683.08   14.41
  -9  -1  -4  761.76   15.36
   9  -1   4  743.47   16.87
  -9   1  -5 1117.32   21.21
  -9   1  -5 1144.53   19.99
  -9  -1  -5 1182.64   20.33
   9  -3  -4  255.38   15.22
  -9   3   4  353.17   14.93
   9  -3  -3  348.82   16.40
  -9   3   3  398.07   14.73
   9  -3  -2  391.32   16.51
  -9   3   2  428.30   14.37
   9  -3  -1  169.86   13.68
  -9   3   1  157.46   11.97
   9  -3   0  360.32   15.10
  -9   3   0  401.54   15.45
   9  -3   1   12.53   12.65
  -9  -3  -1    3.39   11.39
  -9   3  -1   19.44   10.30
  -9   3  -2  764.12   17.28
   9  -3   2 1042.50   21.94
 -10   0   7  110.50   10.97
 -10   0   6 1458.73   16.92
 -10   0   5  355.31    9.07
 -10   0   4  239.09    9.77
 -10   0   3 1005.13   12.16
  10   0  -3 1122.84   14.77
 -10   0   2  103.16    7.49
 -10   0   2  108.90    9.97
 -10   0   1 2013.87   17.62
  10   0  -1 1939.99   17.29
  10   0   0  384.17   10.96
 -10   0   0  406.46   11.64
  10   0   1  704.68   14.29
 -10   0  -1  672.29   12.58
 -10   0  -2  580.79   14.07
 -10   0  -2  576.14   13.19
  10   0   2  596.26   14.33
 -10   0  -3 1378.14   18.57
  10   0   3 1341.76   18.57
  10   0   4   20.68   13.11
 -10   0  -4   22.25   13.58
 -10   0  -4   34.48    9.67
 -10   2   6 1064.09   19.99
  10  -2  -6 1062.14   22.93
 -10   2   5  333.17   14.32
  10  -2  -5  350.69   15.14
 -10   2   4  177.07   12.11
  10  -2  -4  179.51   13.41
  10  -2  -3  812.83   16.43
 -10   2   3  758.07   15.34
  10  -2  -2   91.73   11.39
 -10   2   2  101.23   10.47
  10  -2  -1 1389.67   18.77
 -10  -2   1 1435.39   18.72
  10  -2   0  262.96   13.49
 -10  -2   0  289.45   12.47
  10  -2   1  490.02   14.76
 -10   2  -1  473.90   12.57
 -10   2  -1  535.22   11.00
 -10  -2  -1  537.19   12.77
 -10   2  -2  380.63   14.30
 -10  -2  -2  356.96    7.39
 -10   2  -2  413.55   11.70
 -10  -2  -2  401.54   12.57
  10  -2   2  401.33   16.40
 -10   2  -3 1005.02   19.52
 -10   2  -3 1011.43   15.71
  10  -2   3  996.22   19.86
 -11   1   6  314.27   13.37
 -11   1   5  702.25   14.79
 -11   1   4  545.72   13.05
  11  -1  -4  602.81   15.14
 -11   1   3  440.87   13.47
  11  -1  -3  405.25   13.13
 -11   1   2  887.67   14.42
  11  -1  -2  965.94   16.25
  11  -1  -1    6.37    9.86
 -11  -1   1   10.61    6.07
 -11  -1   1   -3.89    9.92
 -11   1   1   20.42    8.94
 -11   1   1   22.98    9.90
  11  -1   0 2168.74   22.05
 -11   1   0 2031.53   20.49
 -11   1   0 2111.86   20.80
 -11  -1   0 2292.76   23.01
 -11  -1   0 1866.51   18.40
  11  -1   1  151.05   12.24
 -11   1  -1  146.25   13.48
 -11   1  -1  113.38    9.38
 -11  -1  -1  142.22   10.44
 -11  -1  -1  166.29   13.48
 -11   1  -2  531.76   14.35
 -11  -1  -2  518.53   12.51
 -11  -1  -2  509.17   14.92
 -11   1  -3 1169.64   20.11
 -11   1  -3 1138.26   16.72
 -11  -1  -3 1187.68   18.91
  11  -1   3 1122.41   19.83
 -11  -1  -3 1109.38   19.01
  11  -3  -1   -8.95   14.20
 -11   3   1    9.80   13.43
 -12   0   5  221.85   10.21
 -12   0   4  390.99   11.36
 -12   0   3  936.65   13.20
 -12   0   2   66.67   10.46
 -12   0   1  965.54   15.98
 -12   0   1 1078.90   17.88
 -12   0   0  369.45   13.76
 -12   0   0  332.21   13.04
 -12   0  -1  833.45   16.28
 -12   0  -1  896.07   16.01
 -12   0  -2  128.70   13.54
 -12   0  -2  129.35   10.84
 -12   0  -3   81.37   14.58
 -12   0  -3   75.84   11.21
  12  -2  -4  274.03   15.96
 -12   2   4  254.14   13.79
  12  -2  -3  883.51   19.14
 -12   2   3  893.70   18.63
  12  -2  -2   49.47   12.00
 -12   2   2   28.67   12.68
  12  -2  -1  811.39   19.27
 -12  -2   1  942.49   19.60
  12  -2   0  192.89   14.11
 -12   2   0  166.84   11.44
 -12   2   0  205.00   13.29
  12  -2   1  578.93   18.28
 -12   2  -1  526.55   15.54
 -12   2  -1  573.97   14.32
 -13   1   4  158.74   12.73
 -13   1   3   18.25    9.86
 -13   1   2 1283.70   18.50
 -13  -1   1   -2.53   12.85
 -13   1   1   17.90   10.85
 -13   1   1   16.92   11.07
 -13   1   0  320.91   13.11
 -13  -1   0  312.42   10.91
 -13   1  -1  717.79   16.81
 -13   1  -1  682.80   15.07
 -14   0   2  146.64   10.67
 -14   0   1 1007.37   17.43
 -14   0   1 1198.14   20.58
   0   0   0    0.00    0.00


TITL rb2ti2o5_2_290115 in C2/m
REM C2/m (#12 in standard setting)
CELL 0.71073  11.345672   3.819549   6.969860  90.0000 100.3591  90.0000
ZERR    2.00   0.001247   0.000489   0.000788   0.0000   0.0109   0.0000
LATT  7
SYMM -x, y,-z
SFAC O Ti Rb
UNIT 10.00 4.00 4.00
TREF
HKLF 4
END
_computing_structure_solution     'SHELXT 2014/5 (Sheldrick, 2014)'
;
_shelx_hkl_checksum              55598
_shelx_shelxl_version_number     2014/7
_olex2_submission_special_instructions 'No special instructions were received'
_oxdiff_exptl_absorpt_empirical_details
;
Empirical correction (ABSPACK) includes:
- Absorption correction using spherical harmonics
- Frame scaling
- Detector area scaling
;
_oxdiff_exptl_absorpt_empirical_full_max 2.101
_oxdiff_exptl_absorpt_empirical_full_min 0.528
loop_
_space_group_symop_operation_xyz
'x, y, z'
'-x, y, -z'
'x+1/2, y+1/2, z'
'-x+1/2, y+1/2, -z'
'-x, -y, -z'
'x, -y, z'
'-x+1/2, -y+1/2, -z'
'x+1/2, -y+1/2, z'
loop_
_atom_site_label
_atom_site_type_symbol
_atom_site_fract_x
_atom_site_fract_y
_atom_site_fract_z
_atom_site_U_iso_or_equiv
_atom_site_adp_type
_atom_site_occupancy
_atom_site_site_symmetry_order
_atom_site_calc_flag
_atom_site_refinement_flags_posn
_atom_site_refinement_flags_adp
_atom_site_refinement_flags_occupancy
Rb1 Rb 0.09812(8) 0.5000 0.84725(12) 0.0149(5) Uani 1 2 d S T P
Ti1 Ti 0.35229(14) 0.5000 0.5897(2) 0.0097(5) Uani 1 2 d S T P
O1 O 0.5000 0.5000 0.5000 0.015(2) Uani 1 4 d S T P
O3 O 0.1772(6) 0.5000 0.4776(9) 0.0149(14) Uani 1 2 d S T P
O2 O 0.3767(6) 0.5000 0.8391(9) 0.0156(15) Uani 1 2 d S T P
loop_
_atom_site_aniso_label
_atom_site_aniso_U_11
_atom_site_aniso_U_22
_atom_site_aniso_U_33
_atom_site_aniso_U_23
_atom_site_aniso_U_13
_atom_site_aniso_U_12
Rb1 0.0123(6) 0.0179(7) 0.0131(6) 0.000 -0.0016(4) 0.000
Ti1 0.0055(9) 0.0109(10) 0.0105(9) 0.000 -0.0043(6) 0.000
O1 0.004(4) 0.019(5) 0.022(5) 0.000 0.000(4) 0.000
O3 0.006(3) 0.016(4) 0.019(3) 0.000 -0.006(3) 0.000
O2 0.013(3) 0.015(3) 0.016(3) 0.000 -0.004(3) 0.000
loop_
_atom_type_symbol
_atom_type_description
_atom_type_scat_dispersion_real
_atom_type_scat_dispersion_imag
_atom_type_scat_source
O O 0.0106 0.0060 'International Tables Vol C Tables 4.2.6.8 and 6.1.1.4'
Ti Ti 0.2776 0.4457 'International Tables Vol C Tables 4.2.6.8 and 6.1.1.4'
Rb Rb -0.9393 2.9676 'International Tables Vol C Tables 4.2.6.8 and 6.1.1.4'
loop_
_geom_angle_atom_site_label_1
_geom_angle_atom_site_label_2
_geom_angle_atom_site_label_3
_geom_angle
_geom_angle_site_symmetry_1
_geom_angle_site_symmetry_3
Rb1 Rb1 Ti1 76.81(4) 5_567 3_455
Rb1 Rb1 Ti1 76.81(4) 5_567 3_445
Rb1 Rb1 O3 78.10(11) 5_567 5_566
Ti1 Rb1 Ti1 64.39(4) 3_445 3_455
O1 Rb1 Rb1 107.91(3) 3_445 5_567
O1 Rb1 Rb1 107.91(3) 3_455 5_567
O1 Rb1 Ti1 78.53(3) 3_455 3_445
O1 Rb1 Ti1 31.81(2) 3_445 3_445
O1 Rb1 Ti1 78.53(3) 3_445 3_455
O1 Rb1 Ti1 31.81(2) 3_455 3_455
O1 Rb1 O1 75.30(2) 3_445 3_455
O1 Rb1 O3 49.42(7) 3_455 5_566
O1 Rb1 O3 49.42(7) 3_445 5_566
O1 Rb1 O2 100.64(10) 3_445 3_455
O1 Rb1 O2 56.19(11) 3_455 3_455
O1 Rb1 O2 101.73(9) 3_455 .
O1 Rb1 O2 101.73(9) 3_445 .
O1 Rb1 O2 100.64(10) 3_455 3_445
O1 Rb1 O2 56.19(11) 3_445 3_445
O3 Rb1 Rb1 156.98(13) . 5_567
O3 Rb1 Ti1 83.76(10) . 3_455
O3 Rb1 Ti1 32.39(2) 5_566 3_445
O3 Rb1 Ti1 32.39(2) 5_566 3_455
O3 Rb1 Ti1 83.76(11) . 3_445
O3 Rb1 O1 55.36(8) . 3_445
O3 Rb1 O1 55.36(8) . 3_455
O3 Rb1 O3 78.88(18) . 5_566
O3 Rb1 O2 132.53(11) . 7_567
O3 Rb1 O2 111.11(14) . 3_445
O3 Rb1 O2 132.53(11) . 7_557
O3 Rb1 O2 111.11(14) . 3_455
O3 Rb1 O2 60.76(17) . .
O2 Rb1 Rb1 52.51(10) 3_455 5_567
O2 Rb1 Rb1 52.51(10) 3_445 5_567
O2 Rb1 Rb1 60.21(12) 7_567 5_567
O2 Rb1 Rb1 60.21(12) 7_557 5_567
O2 Rb1 Rb1 142.26(12) . 5_567
O2 Rb1 Ti1 28.50(12) 3_455 3_455
O2 Rb1 Ti1 134.11(13) 7_567 3_445
O2 Rb1 Ti1 134.11(13) 7_557 3_455
O2 Rb1 Ti1 28.50(12) 3_445 3_445
O2 Rb1 Ti1 76.56(9) 3_445 3_455
O2 Rb1 Ti1 89.37(11) 7_567 3_455
O2 Rb1 Ti1 132.78(8) . 3_455
O2 Rb1 Ti1 76.56(9) 3_455 3_445
O2 Rb1 Ti1 132.78(8) . 3_445
O2 Rb1 Ti1 89.37(11) 7_557 3_445
O2 Rb1 O1 98.95(9) 7_567 3_455
O2 Rb1 O1 98.95(9) 7_557 3_445
O2 Rb1 O1 165.07(13) 7_557 3_455
O2 Rb1 O1 165.07(13) 7_567 3_445
O2 Rb1 O3 51.25(12) 3_445 5_566
O2 Rb1 O3 116.42(14) 7_557 5_566
O2 Rb1 O3 51.25(12) 3_455 5_566
O2 Rb1 O3 116.42(14) 7_567 5_566
O2 Rb1 O3 139.64(17) . 5_566
O2 Rb1 O2 65.2(2) 7_567 3_455
O2 Rb1 O2 142.60(7) 3_445 .
O2 Rb1 O2 112.72(9) 7_557 3_455
O2 Rb1 O2 112.72(9) 7_567 3_445
O2 Rb1 O2 65.2(2) 7_557 3_445
O2 Rb1 O2 142.60(7) 3_455 .
O2 Rb1 O2 92.89(15) 7_557 .
O2 Rb1 O2 83.14(17) 7_567 7_557
O2 Rb1 O2 74.69(14) 3_445 3_455
O2 Rb1 O2 92.89(15) 7_567 .
Rb1 Ti1 Rb1 117.69(4) 3_545 7_566
Rb1 Ti1 Rb1 111.41(4) 3_545 .
Rb1 Ti1 Rb1 111.41(4) 3 .
Rb1 Ti1 Rb1 130.51(4) . 7_556
Rb1 Ti1 Rb1 130.51(4) . 7_566
Rb1 Ti1 Rb1 117.69(4) 3 7_556
Rb1 Ti1 Rb1 85.29(3) 3_545 7_556
Rb1 Ti1 Rb1 61.74(3) 7_556 7_566
Rb1 Ti1 Rb1 85.29(3) 3 7_566
Rb1 Ti1 Rb1 64.39(4) 3 3_545
Ti1 Ti1 Rb1 109.48(2) 7_566 3
Ti1 Ti1 Rb1 101.49(7) 7_556 7_566
Ti1 Ti1 Rb1 66.29(5) 7_566 .
Ti1 Ti1 Rb1 172.67(7) 7_566 3_545
Ti1 Ti1 Rb1 172.67(7) 7_556 3
Ti1 Ti1 Rb1 64.22(5) 7_566 7_566
Ti1 Ti1 Rb1 109.48(2) 7_556 3_545
Ti1 Ti1 Rb1 66.29(5) 7_556 .
Ti1 Ti1 Rb1 64.22(5) 7_556 7_556
Ti1 Ti1 Rb1 101.49(7) 7_566 7_556
Ti1 Ti1 Ti1 76.32(7) 7_556 7_566
O1 Ti1 Rb1 170.13(8) . .
O1 Ti1 Rb1 57.06(4) . 7_566
O1 Ti1 Rb1 57.06(4) . 7_556
O1 Ti1 Rb1 60.63(4) . 3_545
O1 Ti1 Rb1 60.63(4) . 3
O1 Ti1 Ti1 120.80(7) . 7_556
O1 Ti1 Ti1 120.80(7) . 7_566
O1 Ti1 O3 92.5(2) . 7_556
O1 Ti1 O3 92.5(2) . 7_566
O1 Ti1 O3 138.4(2) . .
O3 Ti1 Rb1 145.55(6) . 3_545
O3 Ti1 Rb1 90.1(2) 7_556 .
O3 Ti1 Rb1 145.55(6) . 3
O3 Ti1 Rb1 110.2(2) 7_556 7_566
O3 Ti1 Rb1 71.81(18) 7_556 3_545
O3 Ti1 Rb1 90.1(2) 7_566 .
O3 Ti1 Rb1 110.2(2) 7_566 7_556
O3 Ti1 Rb1 51.45(18) . .
O3 Ti1 Rb1 88.05(16) . 7_566
O3 Ti1 Rb1 135.68(18) 7_556 3
O3 Ti1 Rb1 88.05(16) . 7_556
O3 Ti1 Rb1 135.68(18) 7_566 3_545
O3 Ti1 Rb1 71.81(18) 7_566 3
O3 Ti1 Rb1 49.88(19) 7_566 7_566
O3 Ti1 Rb1 49.88(19) 7_556 7_556
O3 Ti1 Ti1 39.27(18) 7_566 7_566
O3 Ti1 Ti1 38.83(5) . 7_556
O3 Ti1 Ti1 38.83(5) . 7_566
O3 Ti1 Ti1 39.27(18) 7_556 7_556
O3 Ti1 Ti1 114.68(19) 7_566 7_556
O3 Ti1 Ti1 114.68(19) 7_556 7_566
O3 Ti1 O3 149.3(4) 7_556 7_566
O3 Ti1 O3 78.10(19) 7_566 .
O3 Ti1 O3 78.10(19) 7_556 .
O2 Ti1 Rb1 61.44(17) . 3_545
O2 Ti1 Rb1 61.44(17) . 3
O2 Ti1 Rb1 59.9(2) . .
O2 Ti1 Rb1 144.19(11) . 7_566
O2 Ti1 Rb1 144.19(11) . 7_556
O2 Ti1 Ti1 112.55(17) . 7_566
O2 Ti1 Ti1 112.55(17) . 7_556
O2 Ti1 O1 110.2(2) . .
O2 Ti1 O3 111.4(3) . .
O2 Ti1 O3 103.30(19) . 7_556
O2 Ti1 O3 103.30(19) . 7_566
Rb1 O1 Rb1 75.30(2) 7_556 7_566
Rb1 O1 Rb1 104.70(2) 3 7_566
Rb1 O1 Rb1 180.0 7_556 3
Rb1 O1 Rb1 104.70(2) 7_556 3_545
Rb1 O1 Rb1 75.30(2) 3 3_545
Rb1 O1 Rb1 180.0 3_545 7_566
Ti1 O1 Rb1 87.56(4) . 3_545
Ti1 O1 Rb1 87.56(4) 5_666 7_566
Ti1 O1 Rb1 87.56(4) . 3
Ti1 O1 Rb1 92.44(4) 5_666 3_545
Ti1 O1 Rb1 92.44(4) . 7_566
Ti1 O1 Rb1 92.44(4) . 7_556
Ti1 O1 Rb1 87.56(4) 5_666 7_556
Ti1 O1 Rb1 92.44(4) 5_666 3
Ti1 O1 Ti1 180.0 . 5_666
Rb1 O3 Rb1 101.12(18) . 5_566
Ti1 O3 Rb1 98.4(2) 7_566 .
Ti1 O3 Rb1 95.6(2) . .
Ti1 O3 Rb1 75.80(18) 7_566 5_566
Ti1 O3 Rb1 75.80(18) 7_556 5_566
Ti1 O3 Rb1 163.3(3) . 5_566
Ti1 O3 Rb1 98.4(2) 7_556 .
Ti1 O3 Ti1 101.90(19) 7_556 .
Ti1 O3 Ti1 101.90(19) 7_566 .
Ti1 O3 Ti1 149.3(4) 7_556 7_566
Rb1 O2 Rb1 83.14(17) 7_567 7_557
Rb1 O2 Rb1 87.11(15) 7_557 .
Rb1 O2 Rb1 67.28(9) 7_557 3_545
Rb1 O2 Rb1 67.28(9) 7_567 3
Rb1 O2 Rb1 74.69(14) 3 3_545
Rb1 O2 Rb1 142.60(7) 3 .
Rb1 O2 Rb1 87.11(15) 7_567 .
Rb1 O2 Rb1 114.8(2) 7_567 3_545
Rb1 O2 Rb1 142.60(7) 3_545 .
Rb1 O2 Rb1 114.8(2) 7_557 3
Ti1 O2 Rb1 92.2(2) . .
Ti1 O2 Rb1 90.1(2) . 3_545
Ti1 O2 Rb1 90.1(2) . 3
Ti1 O2 Rb1 138.40(9) . 7_557
Ti1 O2 Rb1 138.40(9) . 7_567
loop_
_geom_bond_atom_site_label_1
_geom_bond_atom_site_label_2
_geom_bond_distance
_geom_bond_site_symmetry_2
Rb1 Rb1 3.3460(16) 5_567
Rb1 Ti1 3.5845(17) 3_445
Rb1 Ti1 3.5845(17) 3_455
Rb1 O1 3.1265(7) 3_445
Rb1 O1 3.1265(7) 3_455
Rb1 O3 3.513(6) 5_566
Rb1 O3 2.877(7) .
Rb1 O2 3.171(6) .
Rb1 O2 3.148(5) 3_445
Rb1 O2 2.878(5) 7_557
Rb1 O2 2.878(5) 7_567
Rb1 O2 3.148(5) 3_455
Ti1 Rb1 3.5845(17) 3
Ti1 Rb1 3.7221(16) 7_556
Ti1 Rb1 3.7221(16) 7_566
Ti1 Rb1 3.5845(17) 3_545
Ti1 Ti1 3.091(2) 7_566
Ti1 Ti1 3.091(2) 7_556
Ti1 O1 1.8910(15) .
Ti1 O3 1.9805(17) 7_556
Ti1 O3 2.000(6) .
Ti1 O3 1.9805(17) 7_566
Ti1 O2 1.710(7) .
O1 Rb1 3.1266(7) 3
O1 Rb1 3.1266(7) 7_566
O1 Rb1 3.1266(7) 7_556
O1 Rb1 3.1266(7) 3_545
O1 Ti1 1.8910(15) 5_666
O3 Rb1 3.513(6) 5_566
O3 Ti1 1.9805(17) 7_566
O3 Ti1 1.9805(17) 7_556
O2 Rb1 2.878(5) 7_557
O2 Rb1 3.148(5) 3
O2 Rb1 3.148(5) 3_545
O2 Rb1 2.878(5) 7_567
