#------------------------------------------------------------------------------
#$Date: 2018-04-30 18:52:31 +0300 (Mon, 30 Apr 2018) $
#$Revision: 207535 $
#$URL: file:///home/coder/svn-repositories/cod/cif/2/02/11/2021101.cif $
#------------------------------------------------------------------------------
#
# This file is available in the Crystallography Open Database (COD),
# http://www.crystallography.net/. The original data for this entry
# were provided by IUCr Journals, http://journals.iucr.org/.
#
# The file may be used within the scientific community so long as
# proper attribution is given to the journal article from which the
# data were obtained.
#
data_2021101
loop_
_publ_author_name
'Baranets, Sviatoslav'
'He, Hua'
'Bobev, Svilen'
_publ_section_title
;
 Niobium-bearing arsenides and germanides from elemental mixtures not
 involving niobium: a new twist to an old problem in solid-state synthesis
;
_journal_coeditor_code           LY3065
_journal_issue                   5
_journal_name_full               'Acta Crystallographica Section C'
_journal_page_first              623
_journal_page_last               627
_journal_paper_doi               10.1107/S2053229618005739
_journal_volume                  74
_journal_year                    2018
_chemical_formula_iupac          'Nb Co As'
_chemical_formula_sum            'As Co Nb'
_chemical_formula_weight         226.76
_chemical_name_systematic
;
Niobium cobalt arsenide
;
_space_group_crystal_system      orthorhombic
_space_group_IT_number           62
_space_group_name_Hall           '-P 2ac 2n'
_space_group_name_H-M_alt        'P n m a'
_symmetry_space_group_name_Hall  '-P 2ac 2n'
_symmetry_space_group_name_H-M   'P n m a'
_audit_creation_method           SHELXL-2018/1
_cell_angle_alpha                90
_cell_angle_beta                 90
_cell_angle_gamma                90
_cell_formula_units_Z            4
_cell_length_a                   6.2656(15)
_cell_length_b                   3.7273(9)
_cell_length_c                   7.1589(17)
_cell_measurement_reflns_used    1020
_cell_measurement_temperature    200(2)
_cell_measurement_theta_max      28.11
_cell_measurement_theta_min      3.25
_cell_volume                     167.19(7)
_computing_cell_refinement
;
SAINT (Bruker, 2007)
;
_computing_data_collection
;
APEX2 (Bruker, 2007)
;
_computing_data_reduction
;
SAINT (Bruker, 2007)
;
_computing_molecular_graphics
;
CrystalMaker (Palmer, 2014)
;
_computing_publication_material
;
publCIF (Westrip, 2010)
;
_computing_structure_refinement
;
SHELXL2018 (Sheldrick, 2015b)
;
_computing_structure_solution
;
SHELXT (Sheldrick, 2015a)
;
_diffrn_ambient_temperature      200(2)
_diffrn_measured_fraction_theta_full 1.000
_diffrn_measured_fraction_theta_max 1.000
_diffrn_measurement_device_type  'Bruker SMART APEXII DUO CCD'
_diffrn_measurement_method       'phi and omega scans'
_diffrn_radiation_type           MoK\a
_diffrn_radiation_wavelength     0.71073
_diffrn_reflns_av_R_equivalents  0.1037
_diffrn_reflns_limit_h_max       8
_diffrn_reflns_limit_h_min       -8
_diffrn_reflns_limit_k_max       4
_diffrn_reflns_limit_k_min       -4
_diffrn_reflns_limit_l_max       9
_diffrn_reflns_limit_l_min       -9
_diffrn_reflns_number            1902
_diffrn_reflns_theta_full        25.242
_diffrn_reflns_theta_max         28.304
_diffrn_reflns_theta_min         4.323
_exptl_absorpt_coefficient_mu    35.792
_exptl_absorpt_correction_T_max  0.241
_exptl_absorpt_correction_T_min  0.138
_exptl_absorpt_correction_type   multi-scan
_exptl_absorpt_process_details
;
(SADABS; Sheldrick, 2003)
;
_exptl_crystal_colour            black
_exptl_crystal_density_diffrn    9.009
_exptl_crystal_description       irregular
_exptl_crystal_F_000             404
_exptl_crystal_size_max          0.045
_exptl_crystal_size_mid          0.042
_exptl_crystal_size_min          0.04
_refine_diff_density_max         0.940
_refine_diff_density_min         -1.113
_refine_ls_extinction_coef       0.0139(18)
_refine_ls_extinction_expression Fc^*^=kFc[1+0.001xFc^2^\l^3^/sin(2\q)]^-1/4^
_refine_ls_extinction_method
;
SHELXL2018 (Sheldrick, 2015b)
;
_refine_ls_goodness_of_fit_ref   1.051
_refine_ls_hydrogen_treatment    undef
_refine_ls_matrix_type           full
_refine_ls_number_parameters     20
_refine_ls_number_reflns         240
_refine_ls_number_restraints     0
_refine_ls_restrained_S_all      1.051
_refine_ls_R_factor_all          0.0215
_refine_ls_R_factor_gt           0.0209
_refine_ls_shift/su_max          0.000
_refine_ls_shift/su_mean         0.000
_refine_ls_structure_factor_coef Fsqd
_refine_ls_weighting_details
'w=1/[\s^2^(Fo^2^)+(0.0154P)^2^+0.7130P] where P=(Fo^2^+2Fc^2^)/3'
_refine_ls_weighting_scheme      calc
_refine_ls_wR_factor_gt          0.0509
_refine_ls_wR_factor_ref         0.0513
_reflns_number_gt                235
_reflns_number_total             240
_reflns_threshold_expression     'I > 2\s(I)'
_cod_data_source_file            ly3065sup1.cif
_cod_data_source_block           2
_cod_database_code               2021101
_shelx_space_group_comment
;
The symmetry employed for this shelxl refinement is uniquely defined
by the following loop, which should always be used as a source of
symmetry information in preference to the above space-group names.
They are only intended as comments.
;
_shelx_hkl_file
;
   0   0   1    1.22    0.23
   0   0   1    0.03    0.17
   0   0  -1    0.24    0.18
   0   0  -1    0.06    0.18
   0   0   2    2.10    0.44
   0   0   2    1.63    0.67
   0   0  -2    2.92    0.66
   0   0  -2    1.83    0.68
   0   0   3    3.32    0.65
   0   0   3    0.25    0.43
   0   0  -3    0.14    0.31
   0   0  -3    0.35    0.44
   0   0   4  810.57    9.75
   0   0   4  610.57   13.35
   0   0  -4  962.82   14.10
   0   0  -4  779.95   15.06
   0   0   5    0.05    0.55
   0   0  -5    1.74    0.88
   0   0  -5    0.29    0.49
   0   0  -5    0.28    0.84
   0   0   6   52.82    4.99
   0   0  -6   73.83    4.89
   0   0  -6   63.03    5.46
   0   0   7    0.76    0.91
   0   0  -7   -0.59    0.68
   0   0  -7    0.86    0.81
   0   0   8   60.69    6.44
   0   0  -8   56.68    6.26
   0   0   9   -0.08    1.20
  -1   0   0   -0.07    0.14
   1   0   0    0.16    0.24
   1   0   0    0.87    0.15
  -1   0   1    2.10    0.56
  -1   0   1    1.70    0.50
  -1   0  -1    2.30    0.51
  -1   0  -1    2.67    0.65
   1   0   1    2.26    0.64
   1   0   1    2.04    0.45
   1   0  -1    2.13    0.53
   1   0  -1    1.35    0.51
  -1   0   2  106.33    3.52
  -1   0   2   78.62    3.45
  -1   0  -2  101.70    2.85
  -1   0  -2  103.14    4.08
   1   0   2   98.85    3.78
   1   0   2   74.72    3.20
   1   0  -2   95.54    3.24
   1   0  -2   66.83    3.21
  -1   0   3  778.47   10.56
  -1   0   3  525.11   10.83
  -1   0  -3  703.99    8.29
  -1   0  -3  653.94   12.27
   1   0   3  719.67   11.72
   1   0   3  538.84   10.61
   1   0  -3  705.06   10.38
   1   0  -3  551.33   11.02
  -1   0   4   95.37    3.99
  -1   0   4   60.73    4.32
  -1   0  -4   81.78    2.97
  -1   0  -4   71.83    4.72
   1   0   4   78.48    4.37
   1   0   4   59.62    4.17
   1   0  -4   89.30    4.21
   1   0  -4   56.17    4.10
  -1   0   5  411.41    8.88
  -1   0   5  279.17   10.40
  -1   0  -5  348.74   11.63
   1   0   5  363.11   10.39
   1   0   5  309.57   10.71
   1   0  -5  420.42   10.26
   1   0  -5  296.20   10.58
  -1   0   6  515.04   15.70
  -1   0  -6  507.62   15.60
   1   0   6  605.47   14.70
   1   0   6  489.80   15.02
   1   0  -6  686.75   14.50
   1   0  -6  481.29   15.00
  -1   0   7   68.28    6.35
  -1   0  -7   69.67    6.39
   1   0   7   77.29    5.74
   1   0   7   64.43    6.03
   1   0  -7   61.72    5.95
  -1   0   8    7.16    2.82
  -1   0  -8    6.69    2.63
   1   0   8    7.30    2.79
   1   0  -8    4.62    2.15
  -1   0   9   74.56    7.83
  -1   0  -9   74.01    7.83
   1   0   9   78.24    7.85
   1   0  -9   78.47    7.98
  -2   0   0   10.32    1.41
   2   0   0    9.55    1.39
  -2   0   1   29.19    2.27
  -2   0   1   24.55    1.53
  -2   0  -1   29.61    2.16
  -2   0  -1   35.57    2.40
   2   0   1   25.97    2.19
   2   0   1   25.96    1.30
   2   0  -1   23.12    1.90
   2   0  -1   31.86    2.23
  -2   0   2  371.50    8.44
  -2   0   2  269.60    6.58
  -2   0  -2  352.09    7.24
  -2   0  -2  385.57    8.90
   2   0   2  312.31    8.09
   2   0   2  301.07    6.31
   2   0  -2  263.30    6.54
   2   0  -2  243.77    6.82
  -2   0   3  143.54    5.55
  -2   0   3  108.10    5.05
  -2   0  -3  128.64    4.41
  -2   0  -3  140.24    6.12
   2   0   3  128.05    5.67
   2   0   3  111.35    4.78
   2   0  -3  117.05    4.70
   2   0  -3   94.04    4.86
  -2   0   4  168.38    6.37
  -2   0   4  113.08    5.99
  -2   0  -4  133.70    4.56
  -2   0  -4  139.98    6.91
   2   0   4  121.07    6.03
   2   0   4  115.63    5.73
   2   0  -4  149.80    5.82
   2   0  -4  101.88    5.73
  -2   0   5  488.68   11.40
  -2   0   5  348.24   11.79
  -2   0  -5  415.36   13.16
   2   0   5  409.25   12.01
   2   0   5  381.02   11.82
   2   0  -5  458.94   11.10
   2   0  -5  335.31   11.53
  -2   0   6  360.91   13.33
  -2   0  -6  400.49   14.26
   2   0   6  389.16   12.67
   2   0   6  398.28   13.49
   2   0  -6  485.86   12.38
   2   0  -6  359.50   13.19
  -2   0   7    9.95    3.06
  -2   0  -7    5.95    2.40
   2   0   7    4.71    2.00
   2   0   7    5.43    2.16
   2   0  -7    6.24    2.34
  -2   0  -8  360.07   16.08
   2   0   8  364.51   15.62
   2   0  -8  327.91   15.05
  -2   0   9   12.24    4.07
  -2   0  -9   12.44    3.69
   2   0   9   13.27    3.58
   2   0  -9   13.14    4.01
  -3   0   0    0.79    0.74
   3   0   0    0.17    0.45
  -3   0   1  948.11   15.64
  -3   0   1  776.47    9.06
  -3   0  -1  911.00   14.64
  -3   0  -1 1197.88   16.50
   3   0   1  833.51   14.69
   3   0   1 1086.57    9.43
   3   0  -1  781.18   13.45
   3   0  -1 1003.09   14.75
  -3   0   2 1033.31   16.90
  -3   0   2  743.34   11.32
  -3   0  -2  953.09   14.81
  -3   0  -2 1094.47   17.04
   3   0   2  838.52   15.55
   3   0   2  828.25   10.37
   3   0  -2  676.05   12.61
   3   0  -2  797.79   14.03
  -3   0   3  479.13   11.94
  -3   0   3  326.59    8.97
  -3   0  -3  400.46    9.54
  -3   0  -3  464.42   12.17
   3   0   3  369.62   10.97
   3   0   3  379.83    8.71
   3   0  -3  353.83    9.41
   3   0  -3  334.41    9.95
  -3   0   4    8.86    2.05
  -3   0   4    7.03    1.93
  -3   0  -4    6.30    1.52
  -3   0  -4    8.00    2.19
   3   0   4    6.93    2.03
   3   0   4    5.72    1.60
   3   0  -4    8.02    1.83
   3   0  -4    5.76    1.87
  -3   0   5    8.23    2.14
  -3   0   5    4.24    1.72
  -3   0  -5    1.32    1.01
   3   0   5    1.55    1.18
   3   0   5    1.87    1.15
   3   0  -5    2.13    1.10
   3   0  -5    7.87    2.30
  -3   0   6  101.77    6.24
  -3   0   6   74.58    6.26
  -3   0  -6   70.57    6.23
   3   0   6   78.70    6.20
   3   0   6   82.70    6.11
   3   0  -6   75.09    6.23
  -3   0   7    1.14    1.25
  -3   0  -7    2.17    1.36
   3   0   7    1.69    1.50
   3   0   7    6.10    2.30
   3   0  -7    2.74    1.76
  -3   0   8    7.99    2.88
  -3   0  -8    8.87    3.01
   3   0   8    9.63    2.96
   3   0  -8    8.04    2.87
  -4   0   0  420.04   11.88
   4   0   0  386.46   11.26
  -4   0   1   43.86    3.96
  -4   0   1   38.24    2.00
  -4   0  -1   41.06    3.74
  -4   0  -1   55.84    4.13
   4   0   1   37.88    3.73
   4   0  -1   38.56    3.53
   4   0  -1   52.26    4.02
  -4   0   2  348.37   11.32
  -4   0   2  259.14    6.81
  -4   0  -2  312.40    9.99
  -4   0  -2  387.06   11.37
   4   0   2  292.42   10.50
   4   0   2  331.66    6.11
   4   0  -2  253.62    8.98
   4   0  -2  315.94    9.99
  -4   0   3    4.20    1.63
  -4   0   3    4.55    1.41
  -4   0  -3    5.40    1.71
  -4   0  -3    5.97    1.89
   4   0   3    4.74    1.86
   4   0   3    4.32    1.12
   4   0  -3    3.75    1.37
   4   0  -3    3.23    1.48
  -4   0   4  443.68   13.60
  -4   0   4  284.09    9.85
  -4   0  -4  357.17   10.57
  -4   0  -4  408.75   13.50
   4   0   4  343.09   12.53
   4   0   4  367.47    9.96
   4   0  -4  366.13   11.26
   4   0  -4  287.02   10.89
  -4   0   5   22.06    3.56
  -4   0   5   14.43    2.99
  -4   0  -5   14.45    3.27
   4   0   5   14.20    3.19
   4   0   5   17.12    2.82
   4   0  -5   14.27    2.77
   4   0  -5   10.37    2.79
  -4   0   6  403.16   13.84
  -4   0   6  271.15   11.97
  -4   0  -6  329.26   14.16
   4   0   6  317.47   13.43
   4   0  -6  279.02   12.57
  -4   0   7  228.28   11.99
  -4   0  -7  240.02   13.02
   4   0   7  243.87   12.42
   4   0  -7  219.58   12.03
  -4   0   8   66.11    7.12
  -4   0  -8   64.71    7.16
   4   0   8   65.20    6.73
   4   0  -8   55.09    6.49
  -5   0   0   -0.41    0.65
   5   0   0    0.10    0.85
  -5   0   1    1.80    1.31
  -5   0  -1    3.99    1.72
   5   0   1    2.74    1.55
   5   0  -1    5.80    2.00
   5   0  -1    2.35    1.48
  -5   0   2  109.73    7.21
  -5   0  -2  103.97    6.65
  -5   0  -2  123.05    7.13
   5   0   2   94.32    6.76
   5   0  -2   79.78    5.78
   5   0  -2  104.50    6.43
  -5   0   3   22.85    3.81
  -5   0  -3   21.45    3.38
  -5   0  -3   28.54    3.96
   5   0   3   18.54    3.74
   5   0  -3   18.90    3.26
   5   0  -3   22.97    3.61
  -5   0   4  598.61   17.68
  -5   0  -4  511.34   14.46
  -5   0  -4  589.66   17.54
   5   0   4  503.15   16.73
   5   0  -4  426.09   14.31
  -5   0   5  258.86   11.95
  -5   0  -5  242.01   11.97
   5   0   5  211.45   11.35
   5   0  -5  187.92   10.14
  -5   0   6   27.26    4.62
  -5   0  -6   28.97    5.04
   5   0   6   26.38    5.00
   5   0  -6   24.83    4.47
  -5   0  -7   11.97    3.49
   5   0   7   15.93    4.22
   5   0  -7    9.38    3.18
  -6   0   0   75.56    6.55
   6   0   0   65.92    6.01
  -6   0   1  519.93   17.11
  -6   0  -1  511.16   16.55
   6   0   1  459.26   15.99
   6   0  -1  447.33   15.30
   6   0  -1  565.95   16.13
  -6   0   2    0.93    1.11
  -6   0  -2   -0.60    0.81
  -6   0  -2    0.01    0.81
   6   0   2    0.63    1.20
   6   0  -2    0.67    0.93
   6   0  -2   -0.14    1.06
  -6   0   3  190.38   10.77
  -6   0  -3  156.95    9.05
  -6   0  -3  204.47   10.58
   6   0   3  158.82    9.95
   6   0  -3  141.55    8.60
   6   0  -3  149.36    8.75
  -6   0   4   27.14    4.71
  -6   0  -4   23.70    4.38
   6   0   4   21.44    4.61
   6   0  -4   18.80    3.72
   6   0  -4   16.02    3.60
  -6   0   5  123.53    9.11
  -6   0  -5   96.09    8.04
   6   0   5   99.41    8.53
   6   0  -5   80.66    7.09
  -6   0   6   17.32    4.16
  -6   0  -6   17.84    4.26
   6   0   6   12.92    3.83
   6   0  -6   14.52    3.86
  -7   0   0    1.24    1.54
   7   0   0    0.20    1.13
   7   0   0    1.17    1.31
  -7   0   1    9.84    3.23
  -7   0  -1    5.89    2.52
   7   0   1   18.20    4.39
   7   0  -1    8.07    3.00
   7   0  -1    9.67    2.92
  -7   0   2  325.66   15.19
  -7   0  -2  325.08   14.54
   7   0   2  290.78   14.38
   7   0  -2  267.10   13.06
   7   0  -2  325.38   13.67
  -7   0   3  289.58   14.61
  -7   0  -3  294.23   13.75
  -7   0  -3  317.04   14.31
   7   0   3  256.30   13.81
   7   0  -3  246.83   12.55
   7   0  -3  249.87   12.29
  -7   0   4  100.96    8.77
  -7   0  -4  100.48    8.36
   7   0   4   84.92    8.19
  -7   0   5    2.66    1.43
  -7   0  -5   -0.46    1.11
   7   0   5    0.99    1.52
  -8   0   0  127.95   10.30
   8   0   0  125.07   10.02
  -8   0   1    3.28    2.47
  -8   0  -1    2.10    2.16
   8   0   1    2.20    2.15
   8   0  -1    4.63    2.65
  -8   0   2   -0.65    1.34
  -8   0  -2    0.12    1.60
   8   0   2    0.75    1.57
   8   0  -2    0.56    1.61
   0   1   0    4.09    0.87
   0  -1   1    3.03    0.68
   0  -1  -1    1.43    0.57
   0   1   1    1.41    0.38
   0   1   1    2.06    0.75
   0   1   1    1.95    0.76
   0   1  -1    2.68    0.84
   0   1  -1    2.30    0.60
   0   1  -1    3.06    0.86
   0  -1   2    1.36    0.44
   0  -1  -2    0.91    0.64
   0   1   2    1.02    0.29
   0   1   2    0.58    0.50
   0   1   2    1.21    0.69
   0   1  -2    0.85    0.61
   0   1  -2    2.16    0.71
   0   1   3 1041.33    9.42
   0   1   3 1146.19   15.70
   0   1   3 1034.28   16.38
   0   1  -3 1269.39   17.88
   0   1  -3 1250.89   16.46
   0  -1  -4   -0.26    0.57
   0   1   4    0.49    0.43
   0   1   4    0.21    0.45
   0   1   4    0.73    0.74
   0   1  -4    0.88    0.59
   0   1  -4    1.04    0.74
   0  -1   5  233.29    9.71
   0  -1  -5  233.28    9.66
   0   1   5  255.18    8.45
   0   1   5  229.77    9.71
   0   1  -5  316.21   10.79
   0   1  -5  261.99    9.87
   0  -1   6    4.76    1.90
   0  -1  -6    0.10    0.81
   0  -1  -6   -0.19    0.63
   0   1   6    0.40    0.74
   0   1  -6    0.50    0.92
   0   1  -6    0.30    0.80
   0  -1   7  486.67   17.00
   0  -1  -7  462.61   16.58
   0   1   7  449.99   16.43
   0   1  -7  605.81   17.54
   0   1  -7  500.70   16.74
   0  -1   8    1.73    1.25
   0  -1  -8    0.49    0.94
   0   1   8   -0.09    0.84
   0   1  -8    0.15    1.20
   0   1  -8    0.12    1.01
   0  -1   9   54.67    6.64
   0  -1  -9   69.72    7.46
   0   1   9   66.38    7.35
   0   1  -9   64.76    7.17
  -1  -1   0    2.07    0.78
  -1   1   0    0.06    0.28
  -1   1   0    1.41    0.61
  -1   1   0    1.03    0.46
   1   1   0   -0.25    0.31
   1   1   0    0.27    0.37
  -1  -1   1   24.39    1.88
  -1  -1  -1   23.94    2.08
  -1  -1  -1   25.03    1.50
   1  -1  -1   22.85    1.21
   1  -1  -1   26.99    2.14
  -1   1   1   27.70    2.24
  -1   1   1   21.65    1.78
  -1   1  -1   27.30    2.14
  -1   1  -1   29.22    1.86
  -1   1  -1   29.74    2.17
  -1   1  -1   28.93    1.97
   1   1   1   19.07    1.61
   1   1   1   23.44    2.00
   1   1  -1   19.00    1.84
   1   1  -1   26.16    1.15
   1   1  -1   33.12    2.39
  -1  -1   2 1126.50   12.38
  -1  -1  -2  926.12   13.48
  -1  -1  -2  953.90   12.43
   1  -1  -2  714.84   12.20
  -1   1   2 1176.94   15.62
  -1   1   2  887.59   13.12
  -1   1  -2 1218.96   16.23
  -1   1  -2 1150.11   10.42
  -1   1  -2 1177.16   15.26
   1   1   2  901.35   10.94
   1   1   2  898.33   13.63
   1   1  -2  878.25   13.69
   1   1  -2 1111.39   11.89
  -1  -1   3  627.40    8.99
  -1  -1  -3  518.24   10.70
  -1  -1  -3  543.15   11.29
   1  -1  -3  419.34   10.60
  -1   1   3  637.39   12.33
  -1   1   3  460.03   10.87
  -1   1  -3  643.08   13.15
  -1   1  -3  620.58   12.55
   1   1   3  499.84    8.67
   1   1   3  468.62   11.10
   1   1  -3  541.00   11.84
   1   1  -3  563.53   10.52
  -1  -1   4  144.95    4.21
  -1  -1  -4  119.97    5.51
  -1  -1  -4  117.91    6.11
   1  -1   4  121.36    6.16
   1  -1  -4   93.55    5.68
  -1   1   4  134.94    3.01
  -1   1   4  141.70    6.24
  -1   1   4   97.13    5.70
  -1   1  -4  136.60    6.70
  -1   1  -4  120.68    6.26
   1   1   4  112.89    4.54
   1   1   4  109.63    6.06
   1   1  -4  129.00    6.36
   1   1  -4  112.77    5.57
  -1  -1   5   53.19    4.78
  -1  -1  -5   51.41    3.88
  -1  -1  -5   47.51    4.37
   1  -1   5   56.06    4.71
   1  -1  -5   45.83    4.38
  -1   1   5   59.86    4.36
  -1   1   5   42.76    4.22
  -1   1  -5   57.31    4.79
  -1   1  -5   54.49    4.69
   1   1   5   49.19    3.35
   1   1   5   46.97    4.41
   1   1  -5   56.93    4.61
   1   1  -5   50.86    4.34
  -1  -1   6   44.37    4.85
  -1  -1  -6   43.72    4.63
   1  -1   6   44.55    4.63
   1  -1  -6   38.06    4.42
  -1   1   6   47.48    4.10
  -1   1   6   38.43    4.45
  -1   1  -6   49.51    4.81
  -1   1  -6   46.43    4.80
   1   1   6   44.79    4.75
   1   1  -6   56.73    4.97
   1   1  -6   45.36    4.54
  -1  -1   7  281.09   13.09
  -1  -1  -7  283.59   12.99
   1  -1   7  260.43   12.30
   1  -1  -7  267.33   12.75
  -1   1   7  249.33   12.30
  -1   1  -7  328.93   13.27
  -1   1  -7  298.70   13.24
   1   1   7  287.04   13.10
   1   1  -7  350.03   13.23
   1   1  -7  281.70   12.41
  -1  -1   8   77.39    7.50
  -1  -1  -8   89.54    7.91
   1  -1   8  102.88    7.96
   1  -1   8   80.85    7.42
   1  -1  -8   67.50    7.02
  -1   1   8   81.15    7.64
  -1   1  -8   91.21    7.54
  -1   1  -8   77.77    7.45
   1   1   8   81.25    7.54
   1   1  -8  104.26    7.79
   1   1  -8   82.82    7.37
  -1  -1  -9  148.93   11.07
   1  -1   9  147.46   10.85
   1  -1  -9  145.73   11.07
  -1   1   9  154.64   11.45
  -1   1  -9  144.43   10.83
   1   1   9  151.98   11.18
   1   1  -9  143.82   10.54
  -2  -1   0  389.57    9.09
   2  -1   0  335.07    7.48
  -2   1   0  414.62    9.05
  -2   1   0  478.31    6.95
   2   1   0  279.36    7.63
   2   1   0  512.68    9.34
  -2  -1   1 1465.31   17.53
  -2  -1  -1 1405.32   17.76
  -2  -1  -1 1467.60   13.27
   2  -1   1 1353.80   16.95
   2  -1  -1 1229.37   12.84
   2  -1  -1 1450.22   18.16
  -2   1   1 1598.42   19.08
  -2   1   1 1229.57   12.97
  -2   1  -1 1604.95   16.77
  -2   1  -1 1761.87   19.95
   2   1   1 1094.22   14.97
   2   1   1 1444.39   16.26
   2   1  -1  916.71   14.42
   2   1  -1 1053.41    9.59
   2   1  -1 1864.92   18.97
  -2  -1   2   63.04    3.61
  -2  -1  -2   57.51    3.73
  -2  -1  -2   58.61    3.26
   2  -1   2   56.37    3.84
   2  -1  -2   49.60    2.23
   2  -1  -2   54.88    3.82
  -2   1   2   67.39    4.18
  -2   1   2   50.25    3.11
  -2   1  -2   58.59    2.91
  -2   1  -2   72.81    4.34
   2   1   2   48.25    3.21
   2   1   2   55.02    3.45
   2   1  -2   46.68    3.47
   2   1  -2   52.12    2.63
  -2  -1   3  303.30    8.00
  -2  -1  -3  263.95    8.23
  -2  -1  -3  257.65    8.02
   2  -1   3  284.25    9.42
   2  -1  -3  273.52    4.94
   2  -1  -3  202.38    7.96
  -2   1   3  309.18    9.45
  -2   1   3  218.66    7.50
  -2   1  -3  283.63    5.73
  -2   1  -3  318.12    9.88
   2   1   3  226.71    7.25
   2   1   3  232.03    7.93
   2   1  -3  226.62    8.15
   2   1  -3  238.69    6.92
  -2  -1   4   12.91    1.88
  -2  -1  -4   11.26    2.07
  -2  -1  -4   10.35    2.24
   2  -1   4   12.25    2.58
   2  -1   4    9.16    2.00
   2  -1  -4   13.32    1.21
   2  -1  -4    9.07    2.40
  -2   1   4   11.82    2.38
  -2   1   4    7.16    1.89
  -2   1  -4   19.21    3.10
   2   1   4    9.86    1.91
   2   1   4    7.59    2.00
   2   1  -4   11.73    2.44
   2   1  -4    9.65    1.98
  -2  -1   5  561.34   11.17
  -2  -1   5  404.97   13.35
  -2  -1  -5  439.24   11.53
  -2  -1  -5  430.57   13.34
   2  -1   5  472.43   14.31
   2  -1   5  393.55   12.23
   2  -1  -5  372.91   12.99
  -2   1   5  521.62   13.71
  -2   1   5  339.06   11.91
  -2   1  -5  491.93   14.81
   2   1   5  429.76   11.39
   2   1   5  438.36   13.49
   2   1  -5  487.45   13.79
   2   1  -5  395.56   11.92
  -2  -1   6    1.78    1.25
  -2  -1  -6    5.17    1.98
   2  -1   6    8.89    2.61
   2  -1   6    6.15    2.01
   2  -1  -6    4.99    2.09
  -2   1   6    5.94    1.90
  -2   1   6    7.13    2.40
  -2   1  -6    7.75    2.42
   2   1   6    4.81    1.92
   2   1  -6    5.66    1.95
   2   1  -6    6.04    2.16
  -2  -1   7   23.44    4.44
  -2  -1  -7   40.59    5.51
   2  -1   7   26.43    4.41
   2  -1   7   27.65    4.43
   2  -1  -7   25.17    4.62
  -2   1   7   25.65    4.48
  -2   1  -7   29.27    4.79
   2   1   7   28.90    4.67
   2   1  -7   34.90    4.32
   2   1  -7   25.55    4.21
  -2  -1   8  227.26   12.99
  -2  -1  -8  223.42   12.68
   2  -1   8  246.18   12.73
   2  -1   8  218.76   12.18
   2  -1  -8  223.59   12.91
  -2   1   8  220.10   12.63
  -2   1  -8  234.25   13.12
   2   1   8  252.39   13.37
   2   1  -8  213.86   11.85
  -2  -1   9    2.63    1.78
  -2  -1  -9    2.40    1.69
   2  -1   9    2.19    1.71
   2  -1  -9    9.41    3.41
  -2   1   9    1.38    1.88
  -2   1  -9    4.11    2.09
   2   1   9    7.14    2.55
   2   1  -9    1.85    1.59
  -3  -1   0    0.63    0.64
   3  -1   0    0.20    0.47
  -3   1   0    1.02    0.66
  -3   1   0    0.20    0.25
   3   1   0   -0.16    0.49
   3   1   0    0.58    0.55
  -3  -1   1  210.24    7.77
  -3  -1  -1  202.68    7.72
  -3  -1  -1  240.27    6.26
   3  -1   1  179.17    7.05
   3  -1  -1  191.79    6.32
   3  -1  -1  235.57    8.36
  -3   1   1  218.97    8.04
  -3   1   1  200.02    4.87
  -3   1  -1  217.84    7.32
  -3   1  -1  282.01    9.17
   3   1   1  174.13    7.07
   3   1   1  243.49    6.89
   3   1  -1  145.57    6.56
   3   1  -1  170.86    4.77
  -3  -1   2    9.11    1.96
  -3  -1  -2    9.44    2.05
  -3  -1  -2   11.73    1.80
   3  -1   2    7.89    1.97
   3  -1   2    8.55    1.21
   3  -1  -2    8.12    1.43
   3  -1  -2    8.29    2.13
  -3   1   2    6.92    1.81
  -3   1   2    6.51    1.29
  -3   1  -2    9.65    1.67
  -3   1  -2   11.29    2.25
   3   1   2    8.13    1.93
   3   1   2    6.89    1.50
   3   1  -2    7.73    1.99
   3   1  -2    8.36    1.38
  -3  -1   3    0.74    0.68
  -3  -1  -3    0.86    0.83
  -3  -1  -3    1.41    0.92
   3  -1   3    0.26    0.89
   3  -1   3    2.41    0.90
   3  -1  -3    0.64    0.48
   3  -1  -3    1.93    1.38
  -3   1   3    1.02    0.90
  -3   1   3    1.34    0.91
  -3   1  -3    0.43    0.57
  -3   1  -3    0.04    0.83
   3   1   3   -0.10    0.45
   3   1   3    0.19    0.56
   3   1  -3    0.82    0.83
   3   1  -3    2.09    1.01
  -3  -1   4  987.52   17.51
  -3  -1  -4  845.92   16.77
  -3  -1  -4  817.56   17.17
   3  -1   4  832.85   18.91
   3  -1   4  737.91   14.46
   3  -1  -4  729.30   17.68
  -3   1   4  975.72   19.57
  -3   1   4  640.76   14.74
  -3   1  -4  960.86   20.36
   3   1   4  731.38   15.99
   3   1   4  771.29   16.31
   3   1  -4  799.11   17.56
   3   1  -4  717.61   14.66
  -3  -1   5  411.14   11.49
  -3  -1   5  296.54   11.70
  -3  -1  -5  305.93   10.37
  -3  -1  -5  307.43   11.68
   3  -1   5  316.76   12.48
   3  -1   5  289.49   10.32
   3  -1  -5  303.22   12.33
  -3   1   5  393.14   13.02
  -3   1   5  239.45   10.10
  -3   1  -5  371.27   13.67
   3   1   5  294.96   10.69
   3   1   5  320.19   11.60
   3   1  -5  347.10   12.26
   3   1  -5  289.38   10.48
  -3  -1   6   11.90    3.12
  -3  -1  -6   11.17    3.04
   3  -1   6   10.43    3.00
   3  -1   6   10.12    2.53
   3  -1  -6   11.35    3.20
  -3   1   6    8.34    2.50
  -3   1   6    6.33    2.23
  -3   1  -6    7.94    2.68
   3   1   6    9.16    2.45
   3   1   6    9.06    2.63
   3   1  -6    9.28    2.58
   3   1  -6    6.17    2.10
  -3  -1   7    7.59    2.78
  -3  -1  -7    5.25    2.19
   3  -1   7    6.77    2.59
   3  -1   7    4.43    1.94
   3  -1  -7    6.68    2.54
  -3   1   7    4.60    2.02
  -3   1  -7    5.13    2.29
   3   1   7    7.89    2.75
   3   1  -7   10.51    2.93
   3   1  -7    8.03    2.63
  -3  -1   8   74.48    7.58
  -3  -1  -8   78.68    7.67
   3  -1   8   86.14    7.86
   3  -1   8   70.50    6.80
   3  -1  -8   84.37    8.12
  -3   1   8   73.85    7.35
  -3   1  -8   72.04    7.57
   3   1   8   76.90    7.43
   3   1  -8   69.28    6.81
  -4  -1   0  256.58    9.82
   4  -1   0  223.83    8.51
  -4   1   0  236.50    9.16
   4   1   0  202.86    8.76
   4   1   0  327.41    8.19
  -4  -1   1   86.69    5.75
  -4  -1  -1   86.72    5.74
  -4  -1  -1   97.66    4.75
   4  -1   1   80.05    5.37
   4  -1  -1   73.40    4.68
   4  -1  -1   94.85    6.04
  -4   1   1   78.09    5.51
  -4   1  -1   70.23    4.86
  -4   1  -1   96.24    6.06
   4   1   1   67.29    5.09
   4   1   1  105.01    4.69
   4   1  -1   64.28    5.01
   4   1  -1   73.20    3.93
  -4  -1   2  147.99    7.54
  -4  -1  -2  138.03    7.31
  -4  -1  -2  153.37    6.51
   4  -1   2  120.13    6.95
   4  -1  -2  118.19    5.68
   4  -1  -2  144.87    7.64
  -4   1   2  149.69    7.82
  -4   1   2  125.78    4.70
  -4   1  -2  128.03    6.36
  -4   1  -2  173.08    8.36
   4   1   2  115.10    6.72
   4   1   2  149.88    5.97
   4   1  -2  105.13    6.49
   4   1  -2  110.28    5.06
  -4  -1   3    5.98    1.96
  -4  -1  -3   10.21    2.44
  -4  -1  -3    4.70    1.63
   4  -1   3    6.55    2.19
   4  -1  -3    4.17    1.37
   4  -1  -3    4.39    1.81
  -4   1   3    6.23    2.09
  -4   1   3    5.00    1.38
  -4   1  -3    6.25    1.72
  -4   1  -3    3.95    1.60
   4   1   3    4.21    1.67
   4   1   3    3.96    1.39
   4   1  -3    4.56    1.72
   4   1  -3    3.62    1.44
  -4  -1   4  197.19    8.98
  -4  -1  -4  177.40    8.52
  -4  -1  -4  191.68    8.83
   4  -1   4  157.39    8.91
   4  -1  -4  148.94    8.62
  -4   1   4  190.99    9.55
  -4   1   4  133.75    6.77
  -4   1  -4  184.65    9.65
   4   1   4  146.14    8.08
   4   1   4  165.93    7.63
   4   1  -4  157.85    8.45
   4   1  -4  165.06    7.50
  -4  -1   5   50.27    4.62
  -4  -1   5   37.47    4.31
  -4  -1  -5   40.45    4.24
  -4  -1  -5   43.04    4.56
   4  -1   5   36.96    4.55
   4  -1  -5   34.11    4.91
  -4   1   5   52.70    5.31
  -4   1   5   37.63    4.06
  -4   1  -5   47.01    5.21
   4   1   5   40.59    4.43
   4   1   5   46.74    4.42
   4   1  -5   45.02    4.74
   4   1  -5   33.41    3.80
  -4  -1   6  134.61    8.81
  -4  -1  -6  148.41    9.29
   4  -1   6  140.59    9.44
   4  -1  -6  139.02    9.46
  -4   1   6  168.84    9.78
  -4   1   6  135.80    8.52
  -4   1  -6  160.81   10.27
   4   1   6  137.55    8.56
   4   1   6  147.82    8.65
   4   1  -6  161.07    9.35
   4   1  -6  143.43    8.48
  -4  -1   7  433.94   17.20
  -4  -1  -7  471.84   17.98
   4  -1   7  474.86   18.42
   4  -1  -7  446.39   18.14
  -4   1   7  535.27   17.91
  -4   1   7  431.35   16.58
  -4   1  -7  497.29   19.36
   4   1   7  484.48   17.16
  -4  -1   8   22.28    5.01
  -4  -1  -8   27.22    5.38
   4  -1   8   23.89    5.04
   4  -1  -8   22.86    5.13
  -4   1   8   20.77    4.74
  -4   1  -8   20.07    4.94
  -5  -1   0    1.12    1.03
   5  -1   0    0.86    1.02
  -5   1   0    0.02    0.72
   5   1   0    0.03    0.89
  -5  -1   1  691.62   18.14
  -5  -1  -1  717.84   18.39
   5  -1   1  608.69   16.57
   5  -1  -1  618.83   15.50
   5  -1  -1  783.69   19.03
  -5   1   1  723.94   18.56
  -5   1  -1  641.27   16.61
   5   1   1  587.70   16.77
   5   1  -1  566.57   16.41
   5   1  -1  665.05   13.57
  -5  -1   2  489.64   15.43
  -5  -1  -2  473.23   14.99
  -5  -1  -2  503.31   13.15
   5  -1   2  429.67   14.57
   5  -1  -2  397.03   12.07
   5  -1  -2  471.27   15.10
  -5   1   2  503.07   15.93
  -5   1  -2  383.08   12.54
  -5   1  -2  547.71   16.43
   5   1   2  368.79   13.50
   5   1  -2  346.80   13.01
  -5  -1   3  254.41   11.28
  -5  -1  -3  249.81   10.97
  -5  -1  -3  264.46   10.25
   5  -1   3  227.32   11.09
   5  -1  -3  210.19    8.58
   5  -1  -3  217.41   10.65
  -5   1   3  268.15   11.99
  -5   1  -3  197.31    8.82
  -5   1  -3  277.06   12.17
   5   1   3  204.10   10.28
   5   1  -3  194.85    9.97
  -5  -1   4  149.16    8.76
  -5  -1   4  107.58    6.80
  -5  -1  -4  123.58    7.81
  -5  -1  -4  142.41    8.15
   5  -1   4  114.99    8.31
   5  -1  -4  113.45    8.05
  -5   1   4  145.87    9.14
  -5   1  -4  157.40    9.62
   5   1   4  116.16    7.97
   5   1  -4  119.60    8.03
  -5  -1   5   21.64    3.94
  -5  -1   5   13.87    3.12
  -5  -1  -5   18.50    3.69
   5  -1   5   16.14    3.93
   5  -1  -5   15.38    3.82
  -5   1   5   17.39    3.94
  -5   1  -5   14.29    3.60
   5   1   5   14.72    3.50
   5   1  -5   18.96    3.97
  -5  -1   6   39.83    4.95
  -5  -1  -6   52.11    5.73
   5  -1   6   38.28    5.85
   5  -1  -6   43.15    6.20
  -5   1   6   54.83    6.03
  -5   1  -6   47.63    6.47
   5   1   6   39.03    5.58
   5   1  -6   52.65    5.69
  -5  -1   7    3.67    2.34
  -5  -1  -7    1.16    1.28
   5  -1   7    0.21    1.40
   5  -1  -7    1.20    1.82
  -5   1   7   -1.25    1.34
  -5   1  -7    1.80    1.22
  -6  -1   0   37.61    5.27
   6  -1   0   23.79    4.07
  -6   1   0   32.41    4.81
   6   1   0   25.39    4.54
  -6  -1   1  134.30    8.93
  -6  -1  -1  132.53    8.83
   6  -1   1  119.52    8.18
   6  -1  -1  120.55    7.77
   6  -1  -1  174.42    9.88
  -6   1   1  144.48    9.25
  -6   1  -1  126.99    8.34
   6   1   1  109.83    8.09
   6   1  -1  113.45    8.19
  -6  -1   2  165.83    9.98
  -6  -1  -2  170.34   10.03
   6  -1   2  145.32    9.38
   6  -1  -2  147.60    8.40
   6  -1  -2  161.65    9.69
  -6   1   2  167.45   10.18
  -6   1  -2  142.78    8.65
   6   1   2  133.78    9.04
   6   1  -2  133.87    8.99
  -6  -1   3    3.94    1.78
  -6  -1  -3    4.54    2.16
   6  -1   3    3.33    1.88
   6  -1  -3    4.08    1.85
  -6   1   3    4.69    2.04
  -6   1  -3    3.32    1.79
  -6   1  -3    4.48    2.08
   6   1   3    5.24    2.23
   6   1  -3    4.28    2.16
  -6  -1   4   40.49    5.63
  -6  -1  -4   37.61    5.31
  -6  -1  -4   40.53    4.69
   6  -1   4   29.52    5.48
   6  -1  -4   28.39    4.95
  -6   1   4   40.37    5.81
  -6   1  -4   37.78    5.65
   6   1   4   34.96    5.41
   6   1  -4   35.97    5.34
  -6  -1   5  338.62   14.95
  -6  -1  -5  325.23   14.17
   6  -1   5  308.68   15.40
   6  -1  -5  255.86   13.62
  -6   1   5  352.41   16.01
  -6   1  -5  312.54   15.35
   6   1   5  269.58   13.84
   6   1  -5  293.79   13.97
  -6  -1  -6  231.89   12.75
   6  -1   6  236.55   14.08
   6  -1  -6  220.12   13.22
  -6   1  -6  242.00   14.14
   6   1   6  203.72   12.33
  -7  -1   0   -1.94    0.86
   7  -1   0    0.32    1.04
   7  -1   0    0.42    1.09
  -7   1   0   -1.32    1.03
   7   1   0    0.05    1.14
  -7  -1   1    1.35    1.17
  -7  -1  -1    1.13    1.54
   7  -1   1    5.87    2.67
   7  -1  -1    1.07    1.32
   7  -1  -1    0.56    1.30
  -7   1   1    2.71    1.90
  -7   1  -1   -0.54    0.90
   7   1   1    1.24    1.39
   7   1  -1    0.70    1.43
  -7  -1   2    2.53    1.47
  -7  -1  -2    2.10    1.71
   7  -1   2    2.54    1.87
   7  -1  -2    1.70    1.48
   7  -1  -2    2.51    1.49
  -7   1   2    0.88    1.52
  -7   1  -2    2.04    1.75
   7   1   2    1.01    1.31
   7   1  -2    2.48    1.77
  -7  -1   3   95.19    8.30
  -7  -1  -3   84.27    7.75
   7  -1   3   77.38    7.80
   7  -1  -3   71.34    7.16
  -7   1   3   95.87    8.59
   7   1   3   72.47    7.37
   7   1  -3   65.54    6.93
  -7  -1   4    3.54    2.04
  -7  -1  -4    4.35    2.29
   7  -1   4    2.47    2.07
   7  -1  -4    1.04    1.56
  -7   1   4    9.35    3.38
  -7   1  -4    5.67    2.37
   7   1   4    2.42    1.60
   7   1  -4    2.70    2.09
  -8  -1   0  850.45   26.84
   8  -1   0  708.59   23.39
   8  -1   0  883.35   26.30
  -8   1   0  849.26   26.43
   8   1   0  715.80   24.62
  -8  -1   1    2.13    2.01
  -8  -1  -1    3.53    2.35
   8  -1   1    1.07    1.71
   8  -1  -1    1.74    1.90
   8  -1  -1    1.06    1.73
  -8   1   1    2.55    2.04
  -8   1  -1   21.10    5.14
   8   1   1    0.88    1.42
   8   1  -1    2.51    1.83
  -8  -1   2    2.05    1.51
  -8  -1  -2    3.46    2.87
   8  -1   2    2.85    2.05
   8  -1  -2    4.72    2.38
  -8   1   2    4.19    2.55
  -8   1  -2    4.59    2.45
   8   1   2    2.41    2.16
   8   1  -2    3.59    2.31
   0  -2   0 2605.24   26.10
   0  -2   0 2942.36   21.71
   0   2   0 2932.88   25.03
   0   2   0 3272.77   30.17
   0  -2   1   12.94    1.93
   0  -2  -1    0.33    0.60
   0  -2  -1    0.91    0.56
   0   2   1    0.25    0.42
   0   2   1   -0.02    0.53
   0   2   1    0.29    0.58
   0   2  -1    0.57    0.70
   0   2  -1   -0.01    0.60
   0  -2   2    1.91    0.83
   0  -2  -2    0.98    0.76
   0   2   2    1.32    0.52
   0   2   2    1.40    0.99
   0   2   2    0.91    0.78
   0   2  -2    1.86    1.13
   0   2  -2    3.71    1.07
   0   2  -2    4.10    1.51
   0  -2   3    0.22    0.41
   0  -2  -3   -0.17    0.59
   0   2   3   -0.10    0.46
   0   2   3    0.69    0.72
   0   2  -3    0.32    0.74
   0   2  -3    0.48    0.59
   0  -2  -4  627.56   15.67
   0  -2  -4  567.06   14.42
   0   2   4  560.04   15.44
   0   2  -4  690.86   17.14
   0   2  -4  692.01   14.68
   0  -2  -5   -0.17    0.67
   0  -2  -5    0.04    0.70
   0   2   5    0.34    0.85
   0   2  -5    0.59    0.85
   0   2  -5    0.17    0.65
   0  -2  -6   52.50    5.10
   0  -2  -6   40.45    4.69
   0   2   6   41.28    4.97
   0   2  -6   60.59    5.89
   0   2  -6   51.66    5.03
   0  -2   7   -0.20    0.75
   0  -2  -7    0.51    1.18
   0   2   7    0.50    0.88
   0   2  -7    0.25    1.07
   0   2  -7    0.15    0.86
   0  -2   8   50.48    6.28
   0  -2  -8   55.68    6.48
   0   2   8   47.85    6.74
   0   2  -8   62.00    6.77
   0   2  -8   47.11    5.59
  -1  -2   0    0.29    0.60
  -1  -2   0    1.06    0.37
  -1   2   0    0.56    0.64
  -1   2   0    2.00    0.96
  -1   2   0    0.79    0.69
   1   2   0    0.38    0.47
   1   2   0    1.22    0.77
  -1  -2   1    1.34    0.80
  -1  -2  -1    1.31    0.95
  -1  -2  -1    1.27    0.54
   1  -2  -1    1.29    0.88
  -1   2   1    1.28    0.63
  -1   2   1    8.57    1.91
  -1   2   1    1.41    0.90
  -1   2  -1    1.42    0.92
  -1   2  -1    1.26    0.75
  -1   2  -1    1.94    0.99
   1   2   1    1.46    0.75
   1   2   1    2.13    1.08
   1   2  -1    1.17    0.76
   1   2  -1    1.23    0.95
  -1  -2   2   65.82    3.97
  -1  -2  -2   64.73    4.68
  -1  -2  -2   64.50    3.53
   1  -2  -2   60.35    4.15
  -1   2   2   72.33    4.95
  -1   2   2   65.06    4.47
  -1   2  -2   76.80    4.93
  -1   2  -2   66.24    3.69
  -1   2  -2   83.07    4.62
  -1   2  -2   86.85    5.05
   1   2   2   53.44    3.17
   1   2   2   72.70    4.94
   1   2  -2   58.87    4.42
   1   2  -2   93.66    3.44
   1   2  -2   93.73    5.62
  -1  -2   3  524.14   10.63
  -1  -2  -3  460.28   12.91
  -1  -2  -3  455.19   10.98
   1  -2   3  437.21    8.40
   1  -2  -3  411.44   11.75
  -1   2   3  502.13   13.61
  -1   2   3  426.23   12.31
  -1   2  -3  556.82   14.43
  -1   2  -3  597.48   13.43
   1   2   3  393.70    8.16
   1   2   3  463.59   13.19
   1   2  -3  445.89   12.98
   1   2  -3  560.69   10.48
  -1  -2  -4   41.55    4.12
  -1  -2  -4   48.16    4.16
   1  -2  -4   41.13    4.09
  -1   2   4   46.98    4.45
  -1   2   4   38.82    4.08
  -1   2  -4   52.48    4.81
  -1   2  -4   53.73    4.47
   1   2   4   44.20    4.38
   1   2  -4   50.46    4.72
   1   2  -4   51.22    3.79
  -1  -2  -5  263.53   10.68
  -1  -2  -5  262.30   10.63
   1  -2  -5  249.81   10.96
  -1   2   5  270.40   11.06
  -1   2   5  240.12   10.92
  -1   2  -5  304.15   12.41
  -1   2  -5  275.52   10.97
   1   2   5  235.32   10.91
   1   2  -5  264.84   11.49
   1   2  -5  257.10    9.56
  -1  -2  -6  448.18   14.54
  -1  -2  -6  421.70   14.90
   1  -2   6  427.74   15.41
   1  -2  -6  377.03   14.65
  -1   2   6  462.15   15.14
  -1   2   6  381.06   14.91
  -1   2  -6  500.18   17.08
  -1   2  -6  465.85   15.58
   1   2   6  390.62   15.19
   1   2  -6  455.93   16.10
   1   2  -6  443.43   14.05
  -1  -2   7   53.50    6.02
  -1  -2  -7   59.46    6.11
   1  -2   7   53.11    5.89
   1  -2  -7   50.49    5.78
  -1   2   7   56.69    5.61
  -1   2   7   42.09    5.89
  -1   2  -7   58.35    6.28
  -1   2  -7   59.11    6.00
   1   2   7   53.31    6.00
   1   2  -7   68.73    6.69
   1   2  -7   55.66    5.54
  -1  -2   8    3.94    2.12
  -1  -2  -8    5.27    2.31
   1  -2   8    4.80    2.27
   1  -2  -8    4.08    2.00
  -1   2   8    4.23    2.45
  -1   2  -8    6.58    2.75
  -1   2  -8   12.40    3.56
   1   2   8    6.27    2.67
   1   2  -8    7.11    2.73
  -2  -2   0    6.64    1.88
   2  -2   0    6.49    1.49
  -2   2   0    9.15    2.01
  -2   2   0   11.96    1.91
   2   2   0    4.48    1.44
   2   2   0    9.18    2.04
  -2  -2   1   19.90    2.76
  -2  -2  -1   21.21    3.02
  -2  -2  -1   21.81    1.40
   2  -2  -1   17.30    1.78
   2  -2  -1   23.41    2.85
  -2   2   1   24.87    2.96
  -2   2   1   19.80    2.31
  -2   2  -1   20.90    2.53
  -2   2  -1   22.21    2.52
  -2   2  -1   25.55    2.57
   2   2   1   18.59    2.53
   2   2   1   22.47    2.75
   2   2  -1   12.80    2.37
   2   2  -1   28.16    3.11
  -2  -2   2  231.92    8.25
  -2  -2  -2  210.94    8.79
  -2  -2  -2  230.86    6.31
   2  -2  -2  201.34    4.72
   2  -2  -2  221.07    8.73
  -2   2   2  239.80    9.43
  -2   2   2  213.53    7.96
  -2   2  -2  233.89    8.98
  -2   2  -2  231.60    7.37
  -2   2  -2  292.43    9.78
   2   2   2  157.15    6.45
   2   2   2  234.35    9.04
   2   2  -2  196.64    8.49
   2   2  -2  285.41   10.09
  -2  -2   3   83.13    4.87
  -2  -2  -3   72.10    5.32
  -2  -2  -3   80.46    4.55
   2  -2  -3   70.72    5.30
  -2   2   3   95.45    6.27
  -2   2   3   76.65    5.20
  -2   2  -3   93.33    6.16
  -2   2  -3   82.74    4.02
  -2   2  -3   97.47    6.01
   2   2   3   65.55    4.18
   2   2   3   84.82    5.76
   2   2  -3   77.55    5.66
  -2  -2   4  113.25    5.53
  -2  -2  -4   96.91    6.42
  -2  -2  -4   97.07    5.78
   2  -2  -4   87.03    6.29
  -2   2   4  113.11    7.16
  -2   2   4   84.65    5.97
  -2   2  -4  101.29    6.91
  -2   2  -4  114.14    6.97
   2   2   4   74.88    4.49
   2   2   4   84.93    6.17
   2   2  -4   88.82    6.44
  -2  -2  -5  291.35   11.53
  -2  -2  -5  285.47   11.06
   2  -2  -5  284.76   12.24
  -2   2   5  345.24   13.05
  -2   2   5  262.73   11.40
  -2   2  -5  326.74   13.28
  -2   2  -5  331.67   12.82
   2   2   5  263.61   11.68
   2   2  -5  296.34   12.47
  -2  -2  -6  321.00   12.56
  -2  -2  -6  331.86   13.20
   2  -2   6  303.11   12.78
   2  -2  -6  318.20   13.96
  -2   2   6  321.84   13.19
  -2   2   6  250.40   12.11
  -2   2  -6  349.51   14.70
  -2   2  -6  345.46   14.14
   2   2   6  303.91   13.52
   2   2  -6  330.13   13.95
  -2  -2   7    6.90    2.72
  -2  -2  -7    3.33    1.63
   2  -2   7    5.33    2.16
   2  -2  -7    3.70    1.90
  -2   2   7    4.76    2.24
  -2   2   7    3.39    2.09
  -2   2  -7    5.33    2.57
  -2   2  -7    4.48    2.02
   2   2   7    5.11    2.23
   2   2  -7    3.80    2.02
  -2  -2   8  312.75   16.07
  -2  -2  -8  307.76   15.12
   2  -2   8  312.34   15.75
   2  -2   8  280.94   14.42
  -2   2   8  284.77   15.06
  -2   2  -8  329.33   15.98
   2   2  -8  351.48   16.17
  -3  -2   0    0.05    0.47
   3  -2   0    0.33    0.54
  -3   2   0    0.41    0.78
  -3   2   0    0.07    0.55
   3   2   0   -0.13    0.62
   3   2   0   -0.10    0.59
  -3  -2   1  701.02   16.18
  -3  -2  -1  693.51   16.64
   3  -2   1  645.70   14.75
   3  -2  -1  585.92   11.68
   3  -2  -1  821.83   17.83
  -3   2   1  829.16   17.95
  -3   2   1  780.08   13.72
  -3   2  -1  813.54   16.24
  -3   2  -1  932.55   14.37
   3   2   1  528.51   13.69
   3   2   1  803.85   16.62
   3   2  -1  557.23   14.77
   3   2  -1  938.41   18.17
  -3  -2   2  748.64   16.57
  -3  -2  -2  713.96   17.27
  -3  -2  -2  748.38   11.66
   3  -2   2  689.39   16.47
   3  -2  -2  700.76   11.20
   3  -2  -2  766.25   17.82
  -3   2   2  882.35   19.35
  -3   2   2  707.54   14.20
  -3   2  -2  835.48   15.64
  -3   2  -2  931.46   19.42
   3   2   2  575.67   14.19
   3   2   2  750.53   16.61
   3   2  -2  575.82   15.62
  -3  -2   3  341.53   11.12
  -3  -2  -3  296.02   11.44
  -3  -2  -3  294.59    8.82
   3  -2   3  293.44   11.54
   3  -2  -3  288.20   11.48
  -3   2   3  336.72   12.48
  -3   2   3  277.88    9.78
  -3   2  -3  311.41    8.95
  -3   2  -3  371.92   12.84
   3   2   3  236.43    9.15
   3   2   3  309.65   11.23
   3   2  -3  267.06   11.13
  -3  -2   4    7.88    2.04
  -3  -2  -4    6.13    2.13
  -3  -2  -4    7.76    2.09
   3  -2   4    5.60    2.16
   3  -2  -4    5.11    2.06
  -3   2   4    7.01    2.40
  -3   2   4    4.59    1.69
  -3   2  -4    6.43    2.24
   3   2   4    5.72    1.89
   3   2   4    5.40    1.92
   3   2  -4    8.00    2.56
  -3  -2  -5    2.07    1.41
  -3  -2  -5    2.66    1.31
   3  -2   5    0.35    0.92
   3  -2   5    3.22    1.42
   3  -2  -5    0.68    0.96
  -3   2   5    1.00    1.23
  -3   2   5    1.20    1.22
  -3   2  -5    2.68    1.63
   3   2   5    1.51    1.27
   3   2  -5    1.37    1.07
  -3  -2  -6   67.49    6.04
  -3  -2  -6   57.79    5.56
   3  -2   6   64.09    6.59
   3  -2   6   60.93    5.60
   3  -2  -6   56.13    6.11
  -3   2   6   66.17    6.38
  -3   2   6   50.24    5.43
  -3   2  -6   68.38    6.68
   3   2   6   55.49    5.86
   3   2  -6   63.62    6.33
  -3  -2   7    1.59    1.39
  -3  -2  -7    2.27    1.62
   3  -2   7    1.61    1.64
   3  -2   7    3.71    1.72
   3  -2  -7    1.76    1.39
  -3   2   7    1.57    1.43
  -3   2   7    2.29    1.40
  -3   2  -7    1.37    1.42
   3   2   7    1.28    1.10
   3   2  -7    1.43    1.45
  -3  -2   8    6.54    2.85
  -3  -2  -8    7.96    2.85
   3  -2   8    8.75    3.30
   3  -2  -8    7.33    2.92
  -3   2   8    9.63    3.38
  -3   2  -8   10.94    3.47
   3   2   8    4.94    2.55
   3   2  -8   11.37    3.65
  -4  -2   0  357.10   12.85
   4  -2   0  301.15   10.34
  -4   2   0  376.07   12.72
   4   2   0  276.92   11.20
   4   2   0  442.85   12.68
  -4  -2   1   29.14    4.00
  -4  -2  -1   30.00    4.25
   4  -2   1   25.44    3.55
   4  -2  -1   25.04    2.92
   4  -2  -1   35.05    4.04
  -4   2   1   37.93    4.27
  -4   2  -1   37.43    3.95
   4   2   1   23.67    3.64
   4   2   1   38.01    3.84
   4   2  -1   26.28    4.02
   4   2  -1   41.96    4.05
  -4  -2   2  231.83   10.24
  -4  -2  -2  229.04   10.61
   4  -2   2  208.65    9.82
   4  -2  -2  266.94   11.51
  -4   2   2  248.34   11.15
  -4   2  -2  261.42    9.80
  -4   2  -2  288.24   11.92
   4   2   2  185.49    9.06
   4   2   2  248.91    9.81
   4   2  -2  199.32    9.94
  -4  -2   3    3.86    1.62
  -4  -2  -3    4.68    1.96
   4  -2   3    4.57    1.94
   4  -2  -3    2.58    1.39
  -4   2   3    4.05    1.91
  -4   2  -3    5.29    2.17
   4   2   3    3.90    1.79
   4   2   3    4.79    1.80
   4   2  -3    4.99    2.04
  -4  -2   4  309.98   11.86
  -4  -2  -4  273.68   12.08
   4  -2   4  257.41   12.30
   4  -2  -4  257.61   12.33
  -4   2   4  337.87   14.05
  -4   2  -4  321.24   13.67
   4   2   4  233.18   10.41
   4   2   4  287.10   11.72
   4   2  -4  270.74   12.49
  -4  -2  -5    8.68    2.73
   4  -2   5    8.55    2.85
   4  -2  -5   14.23    3.70
  -4   2   5    8.44    2.88
  -4   2  -5    9.12    2.95
   4   2   5   10.79    2.92
   4   2  -5   10.95    3.18
   4  -2   6  244.78   13.42
   4  -2  -6  241.63   13.36
  -4   2   6  277.06   13.71
  -4   2  -6  273.88   14.10
   4   2   6  267.16   12.95
   4   2  -6  260.18   13.34
  -4  -2   7  176.92   11.75
   4  -2   7  182.53   12.24
   4  -2  -7  198.11   12.85
  -4   2   7  216.94   12.57
  -4   2  -7  218.83   13.42
   4   2   7  199.22   11.92
  -5  -2   0    0.71    0.71
   5  -2   0   -0.37    0.89
  -5   2   0   -0.12    0.84
   5   2   0   -0.56    0.74
   5   2   0    1.72    1.04
  -5  -2   1    0.98    1.04
  -5  -2  -1    5.63    2.29
   5  -2   1    2.05    1.35
   5  -2  -1    2.17    1.19
   5  -2  -1    2.33    1.58
  -5   2   1    1.54    1.53
  -5   2  -1    3.82    1.70
   5   2   1    5.71    2.20
   5   2   1    1.44    0.98
   5   2  -1    1.51    1.22
  -5  -2   2   72.13    6.31
  -5  -2  -2   76.93    6.72
   5  -2   2   62.83    5.86
   5  -2  -2   74.84    6.71
  -5   2   2   79.04    6.88
  -5   2  -2   74.05    5.89
   5   2   2   58.17    5.64
   5   2   2   86.48    5.93
   5   2  -2   63.14    6.15
  -5  -2   3   16.22    3.49
  -5  -2  -3   21.12    4.15
   5  -2   3   17.88    3.91
   5  -2  -3   19.27    4.21
  -5   2   3   19.71    4.30
  -5   2  -3   18.99    4.14
   5   2   3   15.12    3.50
   5   2  -3   14.59    3.75
  -5  -2   4  458.00   16.07
  -5  -2  -4  381.93   15.34
   5  -2   4  370.83   15.77
   5  -2  -4  360.63   15.64
  -5   2   4  468.74   17.76
  -5   2  -4  471.39   17.85
   5   2   4  345.96   14.15
   5   2  -4  376.07   15.73
  -5  -2  -5  171.00   10.48
   5  -2   5  150.82   10.60
   5  -2  -5  153.58   10.71
  -5   2   5  200.95   12.05
  -5   2  -5  180.57   11.58
   5   2   5  140.43    9.20
   5   2  -5  168.05   10.86
  -5  -2   6   15.95    4.11
   5  -2   6   17.97    4.61
   5  -2  -6   17.86    4.63
  -5   2   6   25.93    5.27
  -5   2  -6   18.07    4.62
   5   2  -6   19.64    4.73
  -6  -2   0   69.48    6.74
   6  -2   0   56.08    5.54
   6  -2   0   71.05    6.87
  -6   2   0   67.82    6.57
   6   2   0   49.25    5.67
  -6  -2   1  467.38   17.62
  -6  -2  -1  467.23   17.72
   6  -2   1  390.98   15.19
   6  -2  -1  491.13   18.15
  -6   2   1  426.36   16.72
  -6   2  -1  379.63   15.01
   6   2   1  333.89   14.85
   6   2  -1  346.83   15.26
  -6  -2   2    4.56    2.06
  -6  -2  -2    0.33    1.05
   6  -2   2   -0.35    1.15
   6  -2  -2    1.00    1.32
  -6   2   2    0.56    1.14
  -6   2  -2    0.33    1.24
   6   2   2   -0.48    0.79
   6   2  -2    0.71    1.36
  -6  -2   3  134.72    9.49
  -6  -2  -3  130.72    9.52
   6  -2   3  133.40    9.66
   6  -2  -3  131.50    9.79
  -6   2   3  139.62   10.16
   6   2   3  111.76    8.65
   6   2  -3  110.90    8.94
  -6  -2   4   14.39    3.76
  -6  -2  -4   13.57    3.77
   6  -2   4   14.91    4.14
   6  -2  -4   14.76    4.11
  -6   2   4   21.00    4.93
  -6   2  -4   19.77    4.72
   6   2   4   17.31    4.19
   6   2  -4   11.92    3.65
  -6  -2  -5   70.96    7.25
   6  -2   5   75.01    7.98
   6  -2  -5   82.78    8.36
  -6   2   5   93.11    8.87
  -6   2  -5   88.05    8.69
   6   2   5   63.94    6.70
   6   2  -5   73.42    7.67
  -7  -2   0    1.75    1.78
   7  -2   0    0.32    1.28
   7  -2   0    1.33    1.71
  -7   2   0    4.61    2.73
   7   2   0    1.06    1.40
  -7  -2   1    8.22    3.36
  -7  -2  -1    9.83    3.62
   7  -2   1    5.82    2.72
   7  -2  -1    8.56    3.12
  -7   2   1    7.53    3.15
  -7   2  -1    4.30    2.42
   7   2   1    5.17    2.42
   7   2  -1    5.06    2.49
  -7  -2   2  270.76   14.59
  -7  -2  -2  287.14   15.24
   7  -2   2  257.67   13.99
   7  -2  -2  288.47   15.28
  -7   2   2  276.51   15.02
   7   2   2  233.35   13.59
   7   2  -2  248.89   14.30
  -7  -2   3  248.34   14.05
  -7  -2  -3  255.62   14.47
   7  -2   3  230.27   13.73
  -7   2   3  259.11   14.93
   7   2   3  207.18   12.91
   7   2  -3  217.27   13.58
   0  -3   0    9.67    2.45
   0  -3   0    0.42    0.74
   0   3   0    0.02    0.80
   0   3   0    0.58    0.87
   0  -3   1    0.34    0.63
   0  -3  -1    6.61    2.11
   0  -3  -1    1.14    0.85
   0   3   1    1.91    1.05
   0   3   1    1.82    1.19
   0   3  -1    0.79    0.99
   0   3  -1    1.76    1.27
   0  -3   2    0.28    0.72
   0  -3  -2    0.38    0.80
   0  -3  -2    0.15    0.71
   0   3   2   -0.52    0.79
   0   3  -2    0.29    0.70
   0   3  -2   -0.10    0.73
   0  -3   3  611.79   13.83
   0  -3  -3  577.60   14.41
   0   3   3  638.65   18.10
   0   3  -3  621.79   17.60
   0  -3  -4    0.54    0.76
   0  -3  -4    0.44    0.79
   0   3   4    0.14    0.69
   0   3  -4    0.66    0.93
   0  -3  -5  144.61    9.36
   0  -3  -5  149.70    8.79
   0   3   5  132.13    9.19
   0   3  -5  142.75    9.59
   0  -3  -6    1.57    1.29
   0  -3  -6    0.18    1.03
   0   3   6   -0.38    1.10
   0   3  -6    0.17    1.09
   0  -3  -7  400.44   16.83
   0   3   7  327.22   16.34
   0   3  -7  339.44   16.56
  -1  -3   0    0.18    0.60
   1  -3   0    0.30    0.74
  -1   3   0    0.41    0.65
  -1   3   0    0.06    0.64
  -1   3   0    0.57    0.74
   1   3   0   -0.49    0.54
   1   3   0    1.94    1.34
  -1  -3   1   15.76    2.93
  -1  -3  -1   17.02    3.26
   1  -3   1   19.51    3.10
   1  -3  -1   18.69    2.89
  -1   3   1   15.06    3.04
  -1   3   1   17.96    3.17
  -1   3  -1   17.32    2.93
  -1   3  -1   20.45    3.29
   1   3   1   13.26    2.39
   1   3   1   20.61    3.61
   1   3  -1   16.30    3.02
   1   3  -1   22.52    3.76
  -1  -3   2  501.70   13.70
  -1  -3  -2  497.36   15.59
   1  -3   2  499.58   13.11
   1  -3  -2  450.47   12.83
  -1   3   2  504.08   15.67
  -1   3   2  527.94   15.54
  -1   3  -2  542.41   15.38
  -1   3  -2  668.89   17.24
   1   3   2  557.79   16.53
   1   3  -2  466.80   14.62
   1   3  -2  680.54   18.25
  -1  -3   3  290.79   10.02
  -1  -3  -3  287.60   12.28
   1  -3  -3  264.64   10.51
  -1   3   3  287.35   12.34
  -1   3   3  285.28   11.94
  -1   3  -3  305.12   12.37
  -1   3  -3  385.39   11.87
   1   3   3  304.36   12.69
   1   3  -3  273.60   11.89
  -1  -3  -4   78.84    6.69
  -1  -3  -4   79.84    5.54
   1  -3  -4   69.43    5.84
  -1   3   4   74.34    6.59
  -1   3   4   76.35    6.57
  -1   3  -4   69.28    6.34
  -1   3  -4   82.95    5.94
   1   3   4   72.61    6.53
   1   3  -4   68.71    6.39
  -1  -3  -5   26.10    4.66
  -1  -3  -5   34.39    4.02
   1  -3  -5   27.10    4.42
  -1   3   5   28.63    4.75
  -1   3   5   25.59    4.50
  -1   3  -5   31.24    5.15
  -1   3  -5   36.22    4.28
   1   3   5   27.03    4.68
   1   3  -5   32.94    5.22
  -1  -3  -6   30.30    5.07
  -1  -3  -6   27.96    4.55
   1  -3  -6   26.21    4.75
   1  -3  -6   24.10    4.69
  -1   3   6   27.83    5.10
  -1   3  -6   27.55    5.22
   1   3   6   25.04    4.90
   1   3  -6   27.62    5.20
  -1  -3  -7  194.04   11.63
  -1  -3  -7  206.17   11.78
   1  -3  -7  198.13   12.03
   1  -3  -7  187.90   11.81
  -1   3   7  171.49   11.78
  -1   3  -7  195.71   12.66
   1   3  -7  191.00   12.44
  -2  -3   0  140.25    8.08
   2  -3   0  185.73    8.49
  -2   3   0  166.74    7.39
  -2   3   0  159.52    8.39
  -2   3   0  194.86    8.81
   2   3   0  137.20    7.51
   2   3   0  200.43    9.84
  -2  -3   1  697.68   17.57
  -2  -3  -1  702.28   18.56
   2  -3  -1  835.92   18.42
  -2   3   1  759.70   19.03
  -2   3   1  804.04   18.23
  -2   3  -1  802.48   17.72
  -2   3  -1  748.52   17.37
  -2   3  -1  950.71   19.56
   2   3   1  681.47   16.02
   2   3   1  838.36   20.25
   2   3  -1  648.76   17.11
   2   3  -1  989.04   22.05
  -2  -3   2   21.38    3.38
  -2  -3  -2   22.34    3.92
   2  -3  -2   21.69    3.52
  -2   3   2   21.01    3.75
  -2   3   2   24.71    3.74
  -2   3  -2   24.44    3.85
  -2   3  -2   22.49    3.17
  -2   3  -2   27.65    3.44
   2   3   2   21.11    2.93
   2   3   2   26.36    4.14
   2   3  -2   18.01    3.53
   2   3  -2   35.32    4.30
  -2  -3   3  136.44    7.38
  -2  -3  -3  128.85    8.46
   2  -3  -3  127.34    7.88
  -2   3   3  137.31    8.80
  -2   3   3  136.12    8.18
  -2   3  -3  145.59    8.78
  -2   3  -3  175.89    8.86
   2   3   3  145.05    8.92
   2   3  -3  119.00    8.12
  -2  -3  -4    5.68    2.22
   2  -3  -4    6.67    2.37
  -2   3   4    6.97    2.56
  -2   3   4    6.15    2.33
  -2   3  -4    5.67    2.32
  -2   3  -4   12.96    3.05
   2   3   4   12.95    3.34
   2   3  -4    3.38    1.88
  -2  -3  -5  277.71   13.26
   2  -3  -5  270.58   12.93
  -2   3   5  294.92   13.92
  -2   3   5  264.53   12.82
  -2   3  -5  282.11   13.82
  -2   3  -5  300.63   13.00
   2   3   5  255.10   13.03
   2   3  -5  250.57   13.01
  -2  -3  -6    1.25    1.48
   2  -3  -6    4.10    2.01
  -2   3   6    3.46    2.07
  -2   3   6    0.31    1.45
  -2   3  -6    1.06    1.52
  -2   3  -6    3.52    1.85
   2   3   6    1.20    1.61
   2   3  -6    2.24    1.61
   2  -3   7   25.24    4.94
   2  -3  -7   23.99    5.16
  -2   3   7   25.54    5.10
  -2   3   7   17.73    4.56
  -2   3  -7   23.67    5.23
  -2   3  -7   26.34    5.03
   2   3   7   20.62    4.80
   2   3  -7   23.80    5.31
  -3  -3   0    0.63    0.77
   3  -3   0    0.26    0.69
   3  -3   0   -0.12    0.64
  -3   3   0    0.47    0.79
  -3   3   0   -0.13    0.71
   3   3   0    0.84    0.82
   3   3   0    0.14    0.63
  -3  -3   1   93.76    6.89
  -3  -3  -1   97.97    7.29
   3  -3   1   99.40    6.56
   3  -3  -1  125.17    7.87
  -3   3   1  113.49    7.74
  -3   3   1  105.83    6.47
  -3   3  -1  109.53    7.04
  -3   3  -1  132.07    7.12
   3   3   1   81.99    6.05
   3   3   1  113.97    7.66
   3   3  -1   85.28    6.64
   3   3  -1  131.19    8.26
  -3  -3   2    5.85    2.13
  -3  -3  -2    2.32    1.50
   3  -3   2    3.20    1.77
   3  -3  -2    3.75    1.94
  -3   3   2    3.74    2.03
  -3   3   2    4.53    1.77
  -3   3  -2    2.16    1.47
   3   3   2    3.17    1.52
   3   3   2    3.67    1.75
   3   3  -2    4.69    2.06
   3   3  -2    4.28    1.92
  -3  -3   3    1.91    1.20
  -3  -3  -3    2.15    1.27
   3  -3   3    0.48    1.13
   3  -3  -3    1.86    1.44
  -3   3   3    1.58    1.39
  -3   3   3    2.45    1.22
  -3   3  -3   -0.31    0.95
   3   3   3    0.22    0.72
   3   3  -3   -0.31    0.78
  -3  -3  -4  442.22   16.77
   3  -3   4  466.58   17.29
   3  -3  -4  484.96   17.34
  -3   3   4  512.54   18.37
  -3   3   4  473.88   16.04
  -3   3  -4  621.75   19.04
   3   3   4  503.47   17.71
   3   3  -4  409.35   16.43
  -3  -3  -5  187.06   11.21
   3  -3   5  178.15   11.33
   3  -3  -5  200.54   11.73
  -3   3   5  213.83   12.33
  -3   3   5  183.46   10.65
  -3   3  -5  215.89   11.79
   3   3   5  192.69   11.48
   3   3  -5  176.56   11.29
  -3  -3  -6    5.37    2.32
   3  -3   6    4.67    2.51
   3  -3  -6    9.14    3.04
  -3   3   6    7.36    2.87
  -3   3   6    5.26    2.40
  -3   3  -6    7.29    2.84
   3   3   6    4.67    2.22
   3   3  -6    8.25    3.00
  -4  -3   0  134.41    8.94
   4  -3   0  165.60    9.73
  -4   3   0  153.72    9.21
   4   3   0  122.29    8.32
   4   3   0  190.60   10.14
  -4  -3   1   43.61    5.05
  -4  -3  -1   48.76    5.48
   4  -3   1   37.05    4.29
   4  -3  -1   47.07    5.26
  -4   3   1   44.95    5.21
  -4   3  -1   36.01    4.30
   4   3   1   33.78    4.72
   4   3   1   47.97    5.13
   4   3  -1   36.14    5.14
   4   3  -1   52.52    5.38
  -4  -3   2   76.48    6.57
  -4  -3  -2   68.22    6.61
   4  -3   2   65.48    6.05
   4  -3  -2   78.99    6.93
  -4   3   2   79.30    7.14
   4   3   2   63.35    5.81
   4   3   2   76.14    6.53
   4   3  -2   58.71    6.11
  -4  -3   3    4.15    1.82
  -4  -3  -3    3.85    1.99
   4  -3   3    2.77    1.97
   4  -3  -3    4.14    1.98
  -4   3   3    4.35    2.28
   4   3   3    4.80    1.91
   4   3   3    6.81    2.43
   4   3  -3    4.64    2.28
  -4  -3  -4   99.80    8.30
   4  -3   4   89.82    7.96
   4  -3  -4  106.67    8.65
  -4   3   4  103.73    8.72
  -4   3  -4  121.61    9.09
   4   3   4  102.52    8.14
   4   3  -4   88.90    8.03
  -4  -3  -5   23.66    4.87
   4  -3   5   18.49    4.51
   4  -3  -5   25.34    5.28
  -4   3   5   28.32    5.52
  -4   3  -5   28.93    5.35
   4   3   5   24.02    4.70
   4   3  -5   20.76    4.94
  -4  -3  -6   87.11    8.07
   4  -3   6   86.49    8.68
  -4   3   6  106.87    9.44
  -4   3  -6  106.23    9.39
   4   3   6  101.02    8.80
   4   3  -6  100.62    9.12
  -5  -3   0    0.62    1.01
   5  -3   0   -0.22    0.85
  -5   3   0   -0.06    1.06
   5   3   0    0.01    0.86
   5   3   0    0.35    1.06
  -5  -3   1  392.54   16.26
  -5  -3  -1  365.53   15.99
   5  -3   1  343.67   13.89
   5  -3  -1  432.48   17.24
  -5   3   1  424.36   16.88
  -5   3  -1  396.73   15.34
   5   3   1  364.16   15.34
   5   3   1  482.33   16.63
   5   3  -1  369.30   15.90
   5   3  -1  511.79   17.32
  -5  -3   2  285.06   13.74
  -5  -3  -2  266.08   13.86
   5  -3   2  260.85   12.79
   5  -3  -2  308.35   14.78
  -5   3   2  291.27   14.44
   5   3   2  232.75   12.11
   5   3   2  293.76   13.16
   5   3  -2  250.99   13.42
  -5  -3   3  159.71   10.21
  -5  -3  -3  137.56   10.14
   5  -3   3  133.67    9.63
   5  -3  -3  160.21   10.93
  -5   3   3  160.13   11.06
   5   3   3  124.96    8.85
   5   3   3  167.84   10.21
   5   3  -3  139.81   10.26
  -5  -3  -4   76.90    7.71
   5  -3   4   77.11    7.74
   5  -3  -4   70.42    7.48
  -5   3   4   87.94    8.50
  -5   3  -4   96.60    8.67
   5   3   4   94.02    7.84
   5   3  -4   79.62    8.00
  -5  -3  -5    6.97    3.09
   5  -3   5   11.48    3.74
   5  -3  -5    8.77    2.90
  -5   3   5    7.76    2.95
  -5   3  -5   10.34    3.72
   5   3  -5    9.92    3.23
  -6  -3   0   14.49    3.95
   6  -3   0   11.45    3.45
  -6   3   0   14.57    4.08
   6   3   0    9.70    3.26
  -6  -3   1   92.43    8.39
  -6  -3  -1   88.86    8.43
   6  -3   1   96.68    8.70
   6  -3  -1   91.20    8.48
  -6   3   1   77.32    7.77
  -6   3  -1   82.58    7.53
   6   3   1   79.22    7.63
   6   3  -1   85.98    8.18
  -6  -3   2  106.01    8.92
  -6  -3  -2   95.19    8.91
   6  -3   2   86.97    7.92
   6  -3  -2  107.04    9.30
  -6   3   2  106.00    9.42
   6   3   2   87.45    8.08
   6   3  -2   98.76    9.02
  -6  -3   3    2.42    1.81
  -6  -3  -3    3.98    2.47
   6  -3   3    1.03    1.67
   6  -3  -3    2.56    1.38
  -6   3   3    3.46    2.40
   6   3   3    4.04    2.03
   6   3  -3    2.71    1.99
   0  -4   0 1414.09   28.88
   0   4   0 1695.27   32.72
   0  -4   1    0.34    0.83
   0  -4  -1    0.71    0.99
   0   4   1   -0.06    0.91
   0   4  -1    0.73    0.98
   0   4  -1    2.93    1.75
   0  -4   2    2.50    1.45
   0  -4  -2    1.10    1.26
   0   4   2    7.64    2.76
   0   4  -2    2.83    1.76
   0   4  -2    5.95    2.57
   0  -4  -3    1.15    1.16
   0   4   3    0.34    1.11
   0   4  -3   -0.11    0.96
   0  -4  -4  320.08   15.61
   0   4   4  340.24   16.04
   0   4  -4  283.76   14.40
   0  -4  -5    1.25    1.69
   0   4   5    0.55    1.40
   0   4  -5    0.28    1.24
  -1  -4   0   -0.26    0.80
   1  -4   0    0.32    0.91
  -1   4   0    1.26    1.10
   1   4   0    0.64    1.16
  -1  -4   1   -0.45    0.83
  -1  -4  -1    0.61    0.91
   1  -4   1    0.28    0.88
   1  -4  -1    3.30    1.72
  -1   4   1    0.98    1.04
  -1   4  -1    0.73    1.04
  -1   4  -1    0.02    0.95
   1   4   1    1.11    1.14
   1   4  -1    0.39    0.90
   1   4  -1    1.12    1.31
  -1  -4   2   34.35    4.73
  -1  -4  -2   35.53    5.42
   1  -4  -2   33.93    5.35
  -1   4   2   36.40    5.25
  -1   4  -2   42.54    5.02
  -1   4  -2   43.72    5.24
   1   4   2   35.26    5.49
   1   4  -2   26.63    4.60
   1   4  -2   41.59    5.86
  -1  -4  -3  221.44   12.64
   1  -4  -3  221.43   12.60
  -1   4   3  245.97   12.97
  -1   4  -3  232.67   12.35
   1   4   3  232.35   12.95
   1   4  -3  213.93   12.04
  -1  -4  -4   17.39    4.40
   1  -4  -4   13.93    4.09
  -1   4   4   21.43    4.70
  -1   4  -4   20.72    4.59
   1   4   4   21.11    4.76
   1   4  -4   24.82    5.06
  -1  -4  -5  136.54   10.58
   1  -4  -5  143.60   10.87
  -1   4   5  133.07   10.44
  -1   4  -5  142.69   10.82
   1   4   5  129.86   10.43
   1   4  -5  114.17    9.72
  -2  -4   0    3.71    1.60
   2  -4   0    2.40    1.63
  -2   4   0    2.57    1.62
  -2   4   0    4.06    2.00
   2   4   0    4.05    1.94
   2   4   0    5.16    2.34
  -2  -4   1   13.71    3.46
  -2  -4  -1   11.50    3.23
   2  -4   1    9.99    2.82
  -2   4   1   10.74    3.19
  -2   4   1   11.46    3.20
  -2   4  -1    9.58    2.86
   2   4   1    9.04    3.14
   2   4  -1   12.40    3.36
   2   4  -1   10.38    3.31
  -2  -4   2   87.96    7.17
  -2  -4  -2   97.77    8.27
  -2   4   2   90.10    7.98
  -2   4   2  106.64    8.15
  -2   4  -2   91.12    7.33
  -2   4  -2  121.26    8.58
   2   4   2  107.58    8.69
   2   4  -2   89.94    7.65
   2   4  -2  116.38    9.07
  -2  -4  -3   29.69    5.42
  -2   4   3   30.82    5.43
  -2   4   3   35.48    5.32
  -2   4  -3   34.78    5.48
   2   4   3   33.08    5.55
   2   4  -3   28.83    5.31
  -2  -4  -4   40.54    6.31
   2  -4  -4   50.02    5.58
  -2   4   4   38.25    6.18
  -2   4   4   44.61    6.19
  -2   4  -4   51.75    6.27
   2   4   4   46.86    6.73
   2   4  -4   37.68    6.15
  -2  -4  -5  156.12   11.43
   2  -4  -5  151.52   11.35
   2  -4  -5  147.72   10.23
  -2   4   5  157.56   11.54
  -2   4   5  149.32   10.91
  -2   4  -5  137.88   10.83
   2   4   5  151.30   11.24
   2   4  -5  127.66   10.47
  -3  -4   0    0.15    0.96
   3  -4   0    0.70    1.06
  -3   4   0    0.69    1.24
   3   4   0   -0.02    1.09
   3   4   0    3.52    2.01
  -3  -4   1  300.51   14.17
  -3  -4  -1  286.23   14.39
   3  -4   1  361.28   14.61
   3  -4  -1  342.28   14.38
  -3   4   1  288.70   14.17
  -3   4  -1  272.92   12.89
   3   4   1  336.46   15.57
   3   4  -1  275.00   13.50
   3   4  -1  375.39   16.48
  -3  -4   2  302.98   14.00
  -3  -4  -2  294.85   14.93
   3  -4   2  305.51   13.85
   3  -4  -2  321.10   14.27
  -3   4   2  339.74   15.89
   3   4   2  382.13   16.80
   3   4  -2  292.63   14.42
   3   4  -2  432.47   18.01
  -3  -4  -3  145.58   10.75
   3  -4   3  145.76   10.22
   3  -4  -3  154.78   10.25
  -3   4   3  147.37   10.88
   3   4   3  164.18   11.25
   3   4  -3  132.59   10.12
  -3  -4  -4    3.11    2.03
   3  -4   4    1.30    1.91
   3  -4  -4    9.11    2.96
  -3   4   4    6.20    2.95
   3   4   4    5.95    2.41
   3   4  -4    3.13    2.03
  -4  -4   0  160.81   11.03
   4  -4   0  212.11   12.08
  -4   4   0  162.36   10.80
   4   4   0  169.99   10.86
   4   4   0  207.07   12.44
  -4  -4   1   19.40    4.42
  -4  -4  -1   10.66    3.41
   4  -4   1   14.52    3.64
   4  -4  -1   16.95    4.24
  -4   4   1   15.50    4.09
   4   4   1   16.99    4.36
   4   4  -1   17.49    4.38
   4   4  -1   18.63    4.55
  -4  -4   2  109.68    8.87
   4  -4  -2  111.79    8.99
  -4   4   2  121.59    9.93
   4   4   2  126.74    9.82
   4   4  -2  101.88    9.00
  -4  -4  -3    2.69    1.86
   4  -4   3    3.87    2.36
   4  -4  -3    1.06    1.33
  -4   4   3    2.18    1.89
   4   4   3    3.76    1.97
   4   4  -3    1.91    1.62
   0   0   0    0.00    0.00
;
_shelx_hkl_checksum              96661
_shelx_res_file
;
TITL test in Pnma
    shelx.res
    created by SHELXL-2018/1 at 20:48:44 on 13-Mar-2018
CELL 0.71073   6.2656   3.7273   7.1589  90.000  90.000  90.000
ZERR    4.00   0.0015   0.0009   0.0017   0.000   0.000   0.000
LATT  1
SYMM 0.5-X, -Y, 0.5+Z
SYMM -X, 0.5+Y, -Z
SYMM 0.5+X, 0.5-Y, 0.5-Z
SFAC CO AS NB
UNIT 4 4 4
TEMP -73
acta
L.S. 20
BOND
FMAP 2
PLAN 20
WGHT    0.015400    0.713000
EXTI    0.013924
FVAR       0.23497
NB    3    0.024934    0.250000    0.672995    10.50000    0.00452    0.00440 =
         0.00471    0.00000   -0.00024    0.00000
CO    1    0.147376    0.250000    0.062719    10.50000    0.00548    0.00388 =
         0.00464    0.00000    0.00051    0.00000
AS    2    0.274395    0.250000    0.377112    10.50000    0.00479    0.00295 =
         0.00494    0.00000    0.00008    0.00000
HKLF 4
REM  test in Pnma
REM R1 =  0.0209 for     235 Fo > 4sig(Fo)  and  0.0215 for all     240 data
REM     20 parameters refined using      0 restraints
END
WGHT      0.0042      0.3849
REM Highest difference peak  0.940,  deepest hole -1.113,  1-sigma level  0.296
Q1    1   0.0800  0.2500 -0.0326  10.50000  0.05    0.94
Q2    1   0.0980  0.2500  0.5879  10.50000  0.05    0.93
Q3    1   0.0504  0.2500  0.5022  10.50000  0.05    0.91
Q4    1   0.2271  0.2500  0.1603  10.50000  0.05    0.82
Q5    1   0.1769  0.2500  0.2530  10.50000  0.05    0.77
Q6    1   0.0243  0.2500  0.8455  10.50000  0.05    0.75
Q7    1  -0.1021 -0.0225  0.6430  11.00000  0.05    0.75
Q8    1   0.1061  0.2500  0.7520  10.50000  0.05    0.72
Q9    1   0.2739  0.2500  0.5547  10.50000  0.05    0.71
Q10   1   0.3529  0.2500  0.3260  10.50000  0.05    0.70
Q11   1   0.1948  0.0043  0.6763  11.00000  0.05    0.70
Q12   1   0.4482 -0.0086  0.3786  11.00000  0.05    0.69
Q13   1   0.0513  0.2500  0.1609  10.50000  0.05    0.68
Q14   1  -0.0509  0.2500  0.5984  10.50000  0.05    0.65
Q15   1   0.3276  0.2500  0.4160  10.50000  0.05    0.64
Q16   1   0.1468  0.0576  0.4684  11.00000  0.05    0.59
Q17   1   0.2531 -0.0209  0.0715  11.00000  0.05    0.58
Q18   1   0.2342  0.2500  0.6873  10.50000  0.05    0.58
Q19   1  -0.0055  0.2500  0.1242  10.50000  0.05    0.58
Q20   1  -0.0226  0.0456  0.5027  11.00000  0.05    0.54
;
_shelx_res_checksum              20805
loop_
_space_group_symop_operation_xyz
'x, y, z'
'-x+1/2, -y, z+1/2'
'-x, y+1/2, -z'
'x+1/2, -y+1/2, -z+1/2'
'-x, -y, -z'
'x-1/2, y, -z-1/2'
'x, -y-1/2, z'
'-x-1/2, y-1/2, z-1/2'
loop_
_atom_site_type_symbol
_atom_site_label
_atom_site_fract_x
_atom_site_fract_y
_atom_site_fract_z
_atom_site_U_iso_or_equiv
_atom_site_adp_type
_atom_site_calc_flag
_atom_site_occupancy
Nb Nb 0.02493(9) 0.250000 0.67299(7) 0.0045(2) Uani d 1
Co Co 0.14738(14) 0.250000 0.06272(11) 0.0047(3) Uani d 1
As As 0.27439(10) 0.250000 0.37711(9) 0.0042(2) Uani d 1
loop_
_atom_site_aniso_label
_atom_site_aniso_U_11
_atom_site_aniso_U_22
_atom_site_aniso_U_33
_atom_site_aniso_U_12
_atom_site_aniso_U_13
_atom_site_aniso_U_23
Nb 0.0045(3) 0.0044(3) 0.0047(3) 0.000 -0.00024(18) 0.000
Co 0.0055(5) 0.0039(5) 0.0046(4) 0.000 0.0005(3) 0.000
As 0.0048(4) 0.0029(4) 0.0049(3) 0.000 0.0001(2) 0.000
loop_
_atom_type_symbol
_atom_type_description
_atom_type_scat_dispersion_real
_atom_type_scat_dispersion_imag
_atom_type_scat_source
Co Co 0.3494 0.9721 'International Tables Vol C Tables 4.2.6.8 and 6.1.1.4'
As As 0.0499 2.0058 'International Tables Vol C Tables 4.2.6.8 and 6.1.1.4'
Nb Nb -2.0727 0.6215 'International Tables Vol C Tables 4.2.6.8 and 6.1.1.4'
loop_
_geom_angle_atom_site_label_1
_geom_angle_atom_site_label_2
_geom_angle_atom_site_label_3
_geom_angle_site_symmetry_1
_geom_angle_site_symmetry_3
_geom_angle
As Nb As . 5_556 108.01(2)
As Nb As . 5_566 108.01(2)
As Nb As 5_556 5_566 88.61(3)
As Nb As . 2_565 99.21(2)
As Nb As 5_556 2_565 152.67(3)
As Nb As 5_566 2_565 85.26(2)
As Nb As . 2 99.21(2)
As Nb As 5_556 2 85.26(2)
As Nb As 5_566 2 152.67(3)
As Nb As 2_565 2 88.06(3)
As Nb Co . 5_566 138.995(16)
As Nb Co 5_556 5_566 106.15(3)
As Nb Co 5_566 5_566 50.95(2)
As Nb Co 2_565 5_566 50.59(3)
As Nb Co 2 5_566 105.59(3)
As Nb Co . 5_556 138.995(16)
As Nb Co 5_556 5_556 50.95(2)
As Nb Co 5_566 5_556 106.15(3)
As Nb Co 2_565 5_556 105.59(3)
As Nb Co 2 5_556 50.59(3)
Co Nb Co 5_566 5_556 81.10(3)
As Nb Co . 2_565 49.971(19)
As Nb Co 5_556 2_565 156.24(3)
As Nb Co 5_566 2_565 90.70(3)
As Nb Co 2_565 2_565 50.65(2)
As Nb Co 2 2_565 105.34(3)
Co Nb Co 5_566 2_565 91.64(2)
Co Nb Co 5_556 2_565 150.36(3)
As Nb Co . 2 49.971(19)
As Nb Co 5_556 2 90.70(3)
As Nb Co 5_566 2 156.24(3)
As Nb Co 2_565 2 105.34(3)
As Nb Co 2 2 50.65(2)
Co Nb Co 5_566 2 150.36(3)
Co Nb Co 5_556 2 91.64(2)
Co Nb Co 2_565 2 80.54(3)
As Nb Co . 1_556 128.20(4)
As Nb Co 5_556 1_556 108.42(2)
As Nb Co 5_566 1_556 108.42(2)
As Nb Co 2_565 1_556 49.473(17)
As Nb Co 2 1_556 49.473(17)
Co Nb Co 5_566 1_556 57.55(3)
Co Nb Co 5_556 1_556 57.55(3)
Co Nb Co 2_565 1_556 94.31(2)
Co Nb Co 2 1_556 94.31(2)
As Nb Co . 6_556 90.92(3)
As Nb Co 5_556 6_556 49.436(18)
As Nb Co 5_566 6_556 49.436(18)
As Nb Co 2_565 6_556 134.286(17)
As Nb Co 2 6_556 134.286(17)
Co Nb Co 5_566 6_556 94.40(2)
Co Nb Co 5_556 6_556 94.40(2)
Co Nb Co 2_565 6_556 114.88(3)
Co Nb Co 2 6_556 114.88(3)
Co Nb Co 1_556 6_556 140.88(4)
As Nb Nb . 5_556 54.54(2)
As Nb Nb 5_556 5_556 53.47(2)
As Nb Nb 5_566 5_556 103.91(3)
As Nb Nb 2_565 5_556 153.65(3)
As Nb Nb 2 5_556 93.70(2)
Co Nb Nb 5_566 5_556 151.14(4)
Co Nb Nb 5_556 5_556 95.63(2)
Co Nb Nb 2_565 5_556 103.91(3)
Co Nb Nb 2 5_556 57.79(2)
Co Nb Nb 1_556 5_556 142.484(17)
Co Nb Nb 6_556 5_556 57.09(2)
As Co As 2_554 2_564 105.53(4)
As Co As 2_554 6_556 107.99(3)
As Co As 2_564 6_556 107.99(3)
As Co As 2_554 . 117.73(3)
As Co As 2_564 . 117.73(3)
As Co As 6_556 . 99.03(4)
As Co Co 2_554 5 54.59(3)
As Co Co 2_564 5 119.39(5)
As Co Co 6_556 5 53.40(3)
As Co Co . 5 121.82(4)
As Co Co 2_554 5_565 119.39(5)
As Co Co 2_564 5_565 54.59(3)
As Co Co 6_556 5_565 53.40(3)
As Co Co . 5_565 121.82(4)
Co Co Co 5 5_565 84.45(5)
As Co Nb 2_554 5_566 166.19(3)
As Co Nb 2_564 5_566 86.33(2)
As Co Nb 6_556 5_566 60.66(2)
As Co Nb . 5_566 60.22(2)
Co Co Nb 5 5_566 113.57(5)
Co Co Nb 5_565 5_566 61.71(3)
As Co Nb 2_554 5_556 86.33(2)
As Co Nb 2_564 5_556 166.19(3)
As Co Nb 6_556 5_556 60.66(2)
As Co Nb . 5_556 60.22(2)
Co Co Nb 5 5_556 61.71(3)
Co Co Nb 5_565 5_556 113.57(5)
Nb Co Nb 5_566 5_556 81.10(3)
As Co Nb 2_554 2_564 121.40(4)
As Co Nb 2_564 2_564 59.44(2)
As Co Nb 6_556 2_564 130.60(3)
As Co Nb . 2_564 60.29(2)
Co Co Nb 5 2_564 175.83(5)
Co Co Nb 5_565 2_564 97.38(2)
Nb Co Nb 5_566 2_564 70.565(19)
Nb Co Nb 5_556 2_564 120.51(3)
As Co Nb 2_554 2_554 59.44(2)
As Co Nb 2_564 2_554 121.40(4)
As Co Nb 6_556 2_554 130.60(3)
As Co Nb . 2_554 60.29(2)
Co Co Nb 5 2_554 97.38(2)
Co Co Nb 5_565 2_554 175.83(5)
Nb Co Nb 5_566 2_554 120.51(3)
Nb Co Nb 5_556 2_554 70.565(19)
Nb Co Nb 2_564 2_554 80.54(3)
As Co Nb 2_554 1_554 60.54(2)
As Co Nb 2_564 1_554 60.54(2)
As Co Nb 6_556 1_554 85.07(4)
As Co Nb . 1_554 175.90(5)
Co Co Nb 5 1_554 60.74(3)
Co Co Nb 5_565 1_554 60.74(3)
Nb Co Nb 5_566 1_554 122.45(3)
Nb Co Nb 5_556 1_554 122.45(3)
Nb Co Nb 2_564 1_554 116.93(3)
Nb Co Nb 2_554 1_554 116.93(3)
As Co Nb 2_554 6_656 59.99(2)
As Co Nb 2_564 6_656 59.99(2)
As Co Nb 6_556 6_656 154.94(4)
As Co Nb . 6_656 106.03(4)
Co Co Nb 5 6_656 110.74(4)
Co Co Nb 5_565 6_656 110.74(4)
Nb Co Nb 5_566 6_656 133.62(2)
Nb Co Nb 5_556 6_656 133.62(2)
Nb Co Nb 2_564 6_656 65.12(3)
Nb Co Nb 2_554 6_656 65.12(3)
Nb Co Nb 1_554 6_656 69.87(2)
Co As Co 2_565 2 105.53(4)
Co As Co 2_565 6_656 72.01(3)
Co As Co 2 6_656 72.01(3)
Co As Co 2_565 . 127.23(2)
Co As Co 2 . 127.23(2)
Co As Co 6_656 . 119.92(4)
Co As Nb 2_565 . 70.58(3)
Co As Nb 2 . 70.58(3)
Co As Nb 6_656 . 115.98(4)
Co As Nb . . 124.10(4)
Co As Nb 2_565 5_556 141.22(3)
Co As Nb 2 5_556 70.57(3)
Co As Nb 6_656 5_556 135.695(16)
Co As Nb . 5_556 68.83(2)
Nb As Nb . 5_556 71.99(2)
Co As Nb 2_565 5_566 70.57(3)
Co As Nb 2 5_566 141.22(3)
Co As Nb 6_656 5_566 135.695(16)
Co As Nb . 5_566 68.83(2)
Nb As Nb . 5_566 71.99(2)
Nb As Nb 5_556 5_566 88.61(3)
Co As Nb 2_565 2_554 139.87(4)
Co As Nb 2 2_554 69.99(3)
Co As Nb 6_656 2_554 68.75(2)
Co As Nb . 2_554 69.05(3)
Nb As Nb . 2_554 135.803(15)
Nb As Nb 5_556 2_554 76.754(19)
Nb As Nb 5_566 2_554 137.89(3)
Co As Nb 2_565 2_564 69.99(3)
Co As Nb 2 2_564 139.87(4)
Co As Nb 6_656 2_564 68.75(2)
Co As Nb . 2_564 69.05(3)
Nb As Nb . 2_564 135.803(15)
Nb As Nb 5_556 2_564 137.89(3)
Nb As Nb 5_566 2_564 76.754(19)
Nb As Nb 2_554 2_564 88.06(3)
loop_
_geom_bond_atom_site_label_1
_geom_bond_atom_site_label_2
_geom_bond_site_symmetry_2
_geom_bond_distance
Nb As . 2.6324(9)
Nb As 5_556 2.6682(8)
Nb As 5_566 2.6682(8)
Nb As 2_565 2.6813(7)
Nb As 2 2.6813(7)
Nb Co 5_566 2.8668(9)
Nb Co 5_556 2.8668(9)
Nb Co 2_565 2.8830(9)
Nb Co 2 2.8830(9)
Nb Co 1_556 2.8936(11)
Nb Co 6_556 2.9058(12)
Nb Nb 5_556 3.1154(10)
Co As 2_554 2.3407(7)
Co As 2_564 2.3407(7)
Co As 6_556 2.3763(12)
Co As . 2.3873(11)
Co Co 5 2.7732(14)
Co Co 5_565 2.7731(14)

_cod_database_fobs_code 2021101
