#------------------------------------------------------------------------------
#$Date: 2019-12-26 21:44:39 +0200 (Thu, 26 Dec 2019) $
#$Revision: 246115 $
#$URL: file:///home/coder/svn-repositories/cod/cif/2/02/18/2021897.cif $
#------------------------------------------------------------------------------
#
# This file is available in the Crystallography Open Database (COD),
# http://www.crystallography.net/. The original data for this entry
# were provided by IUCr Journals, http://journals.iucr.org/.
#
# The file may be used within the scientific community so long as
# proper attribution is given to the journal article from which the
# data were obtained.
#
data_2021897
loop_
_publ_author_name
'Federicci, R\'emi'
'Baptiste, Benoit'
'Finocchi, Fabio'
'Popa, Florin'
'Brohan, Luc'
'B\'eneut, Keevin'
'Giura, Paola'
'Rousse, Gwena\"elle'
'Descamps-Mandine, Armel'
'Douillard, Thierry'
'Shukla, Abhay'
'Leridon, Brigitte'
_publ_section_title
;
 The crystal structure of Rb2Ti2O5&#x000D;
;
_journal_coeditor_code           DK5058SUP1
_journal_issue                   6
_journal_name_full
'Acta Crystallographica Section B Structural Science, Crystal Engineering and Materials'
_journal_page_first              1142
_journal_paper_doi               10.1107/S2052520617013646
_journal_volume                  73
_journal_year                    2017
_chemical_formula_moiety         '0.5(O10 Rb4 Ti4)'
_chemical_formula_sum            'O5 Rb2 Ti2'
_chemical_formula_weight         346.74
_space_group_crystal_system      monoclinic
_space_group_IT_number           12
_space_group_name_Hall           '-C 2y'
_space_group_name_H-M_alt        'C 1 2/m 1'
_atom_sites_solution_primary     direct
_audit_creation_date             2016-03-30
_audit_creation_method
;
Olex2 1.2
(compiled 2016.02.19 svn.r3266 for OlexSys, GUI svn.r5155)
;
_cell_angle_alpha                90
_cell_angle_beta                 100.298(11)
_cell_angle_gamma                90
_cell_formula_units_Z            2
_cell_length_a                   11.3419(12)
_cell_length_b                   3.8198(5)
_cell_length_c                   7.0103(8)
_cell_measurement_reflns_used    1105
_cell_measurement_temperature    400
_cell_measurement_theta_max      32.8780
_cell_measurement_theta_min      2.9310
_cell_volume                     298.82(6)
_computing_cell_refinement
;
CrysAlisPro, Agilent Technologies,
Version 1.171.37.31 (release 14-01-2014 CrysAlis171 .NET)
(compiled Jan 14 2014,18:38:05)
;
_computing_data_collection
;
CrysAlisPro, Agilent Technologies,
Version 1.171.37.31 (release 14-01-2014 CrysAlis171 .NET)
(compiled Jan 14 2014,18:38:05)
;
_computing_data_reduction
;
CrysAlisPro, Agilent Technologies,
Version 1.171.37.31 (release 14-01-2014 CrysAlis171 .NET)
(compiled Jan 14 2014,18:38:05)
;
_computing_molecular_graphics    'Olex2 (Dolomanov et al., 2009)'
_computing_publication_material  'Olex2 (Dolomanov et al., 2009)'
_computing_structure_refinement  'ShelXL (Sheldrick, 2015)'
_computing_structure_solution    'ShelXT (Sheldrick, 2015)'
_diffrn_ambient_temperature      400
_diffrn_detector                 'CCD plate'
_diffrn_measured_fraction_theta_full 1.000
_diffrn_measured_fraction_theta_max 0.926
_diffrn_measurement_details
;
#__ type_ start__ end____ width___ exp.time_
  1 omega    0.17   65.17   1.0000   20.0000
omega____ theta____ kappa____ phi______ frames
    -       26.0000  -94.4984  145.0028 65

#__ type_ start__ end____ width___ exp.time_
  2 phi   -360.01    9.00   1.0000   20.0000
omega____ theta____ kappa____ phi______ frames
 -12.3949   24.0000  -49.4975     -     369

#__ type_ start__ end____ width___ exp.time_
  3 omega  -33.32   62.68   1.0000   20.0000
omega____ theta____ kappa____ phi______ frames
    -      -20.0000   70.5022  -25.0020 96

#__ type_ start__ end____ width___ exp.time_
  4 phi    180.35  231.35   1.0000   20.0000
omega____ theta____ kappa____ phi______ frames
 -28.1615  -24.0000  140.4961     -     51
;
_diffrn_measurement_device       'abstract diffractometer'
_diffrn_measurement_device_type
'Saxi-CrysAlisPro-abstract goniometer imported SAXI images'
_diffrn_measurement_method       '\w and \p scans'
_diffrn_orient_matrix_UB_11      0.0320926000
_diffrn_orient_matrix_UB_12      -0.0055720000
_diffrn_orient_matrix_UB_13      0.0965190000
_diffrn_orient_matrix_UB_21      -0.0424729000
_diffrn_orient_matrix_UB_22      -0.1196006000
_diffrn_orient_matrix_UB_23      0.0251053000
_diffrn_orient_matrix_UB_31      0.0347162000
_diffrn_orient_matrix_UB_32      -0.1419848000
_diffrn_orient_matrix_UB_33      -0.0249981000
_diffrn_radiation_monochromator  graphite
_diffrn_radiation_probe          x-ray
_diffrn_radiation_type           MoK\a
_diffrn_radiation_wavelength     0.71073
_diffrn_reflns_av_R_equivalents  0.0233
_diffrn_reflns_av_unetI/netI     0.0213
_diffrn_reflns_Laue_measured_fraction_full 1.000
_diffrn_reflns_Laue_measured_fraction_max 0.926
_diffrn_reflns_limit_h_max       16
_diffrn_reflns_limit_h_min       -14
_diffrn_reflns_limit_k_max       4
_diffrn_reflns_limit_k_min       -5
_diffrn_reflns_limit_l_max       10
_diffrn_reflns_limit_l_min       -10
_diffrn_reflns_number            1859
_diffrn_reflns_point_group_measured_fraction_full 1.000
_diffrn_reflns_point_group_measured_fraction_max 0.926
_diffrn_reflns_theta_full        26.000
_diffrn_reflns_theta_max         32.497
_diffrn_reflns_theta_min         2.953
_diffrn_source                   'Enhance (Mo) X-ray Source'
_exptl_absorpt_coefficient_mu    18.796
_exptl_absorpt_correction_T_max  1.00000
_exptl_absorpt_correction_T_min  0.27687
_exptl_absorpt_correction_type   multi-scan
_exptl_absorpt_process_details
;
CrysAlisPro, Agilent Technologies,
Version 1.171.37.31 (release 14-01-2014 CrysAlis171 .NET)
(compiled Jan 14 2014,18:38:05)
Empirical absorption correction using spherical harmonics,
 implemented in SCALE3 ABSPACK scaling algorithm.
;
_exptl_crystal_colour            'clear light colourless'
_exptl_crystal_colour_lustre     clear
_exptl_crystal_colour_modifier   light
_exptl_crystal_colour_primary    colourless
_exptl_crystal_density_diffrn    3.854
_exptl_crystal_description       needle
_exptl_crystal_F_000             316
_exptl_crystal_size_max          0.3
_exptl_crystal_size_mid          0.1
_exptl_crystal_size_min          0.05
_refine_diff_density_max         0.821
_refine_diff_density_min         -1.628
_refine_diff_density_rms         0.228
_refine_ls_extinction_coef       0.0045(17)
_refine_ls_extinction_expression Fc^*^=kFc[1+0.001xFc^2^\l^3^/sin(2\q)]^-1/4^
_refine_ls_extinction_method     'SHELXL-2014/7 (Sheldrick 2014'
_refine_ls_goodness_of_fit_ref   1.081
_refine_ls_hydrogen_treatment    undef
_refine_ls_matrix_type           full
_refine_ls_number_parameters     30
_refine_ls_number_reflns         567
_refine_ls_number_restraints     0
_refine_ls_restrained_S_all      1.081
_refine_ls_R_factor_all          0.0400
_refine_ls_R_factor_gt           0.0353
_refine_ls_shift/su_max          0.000
_refine_ls_shift/su_mean         0.000
_refine_ls_structure_factor_coef Fsqd
_refine_ls_weighting_details
'w=1/[\s^2^(Fo^2^)+(0.0563P)^2^+1.1457P] where P=(Fo^2^+2Fc^2^)/3'
_refine_ls_weighting_scheme      calc
_refine_ls_wR_factor_gt          0.0893
_refine_ls_wR_factor_ref         0.0918
_reflns_Friedel_coverage         0.000
_reflns_number_gt                511
_reflns_number_total             567
_reflns_threshold_expression     'I > 2\s(I)'
_cod_data_source_file            dk5058sup1.cif
_cod_data_source_block           III
_cod_database_code               2021897
_shelx_space_group_comment
;
The symmetry employed for this shelxl refinement is uniquely defined
by the following loop, which should always be used as a source of
symmetry information in preference to the above space-group names.
They are only intended as comments.
;
_reflns_odcompleteness_completeness 92.66
_reflns_odcompleteness_iscentric 1
_reflns_odcompleteness_theta     32.42
_olex2_refinement_description
;
;
_shelx_res_file
;
    rb2ti2o5_2.res created by SHELXL-2014/7

TITL rb2ti2o5_2_a.res in C2/m
REM Old TITL rb2ti2o5_2 in C2/m #12
REM SHELXT solution in C2/m
REM R1 0.064, Rweak 0.004, Alpha 0.032, Orientation as input
REM Formula found by SHELXT: O5 Ti2 Rb2
CELL 0.71073 11.341937 3.81975 7.0103 90 100.2977 90
ZERR 2 0.001198 0.000512 0.000794 0 0.0114 0
LATT 7
SYMM -X,+Y,-Z
SFAC O Ti Rb
UNIT 10 4 4

L.S. 10
PLAN  20
TEMP 126.85
BOND $H
LIST 6
MORE -1
CONF
fmap 2
acta 52
REM <olex2.extras>
REM <HklSrc "%.\\rb2ti2o5_2.hkl">
REM </olex2.extras>

WGHT    0.056300    1.145700
EXTI    0.004466
FVAR       0.55271
RB1   3    0.098879    0.500000    0.848661    10.50000    0.02518    0.02766 =
         0.02866    0.00000    0.00887    0.00000
TI1   2    0.352555    0.500000    0.588374    10.50000    0.00578    0.01256 =
         0.01924    0.00000    0.00156    0.00000
O3    1    0.177993    0.500000    0.478571    10.50000    0.00554    0.01358 =
         0.03177    0.00000    0.00019    0.00000
O1    1    0.500000    0.500000    0.500000    10.25000    0.01036    0.01879 =
         0.04815    0.00000    0.01518    0.00000
O2    1    0.376253    0.500000    0.835486    10.50000    0.02953    0.02372 =
         0.02192    0.00000   -0.00047    0.00000
HKLF 4

REM  rb2ti2o5_2_a.res in C2/m
REM R1 =  0.0353 for     511 Fo > 4sig(Fo)  and  0.0400 for all     567 data
REM     30 parameters refined using      0 restraints

END

WGHT      0.0563      1.1455

REM Highest difference peak  0.821,  deepest hole -1.628,  1-sigma level  0.228
Q1    1   0.4196  0.5000  0.9983  10.50000  0.05    0.82
Q2    1   0.3749  0.5000  0.6955  10.50000  0.05    0.77
Q3    1   0.0906  0.5000  0.7345  10.50000  0.05    0.67
Q4    1   0.5598  0.5000  0.7737  10.50000  0.05    0.67
Q5    1   0.2424  0.5000  0.3116  10.50000  0.05    0.66
Q6    1   0.4593  0.5000  0.6993  10.50000  0.05    0.66
Q7    1   0.3434  0.5000  0.7964  10.50000  0.05    0.65
Q8    1   0.1118  0.3996  0.9707  11.00000  0.05    0.64
Q9    1   0.3623  0.5000  1.0781  10.50000  0.05    0.60
Q10   1   0.0980  0.0000  0.8463  10.50000  0.05    0.58
Q11   1   0.4166  0.3785  0.7887  11.00000  0.05    0.57
Q12   1   0.1346  0.1243  0.7428  11.00000  0.05    0.56
Q13   1   0.5861  0.5000  0.6562  10.50000  0.05    0.53
Q14   1   0.2844  0.3704  0.4020  11.00000  0.05    0.52
Q15   1   0.1085  0.1937  0.8757  11.00000  0.05    0.52
Q16   1   0.1526  0.3936  0.8766  11.00000  0.05    0.52
Q17   1   0.1014  0.5000  0.3301  10.50000  0.05    0.51
Q18   1   0.2208  0.5000  0.9426  10.50000  0.05    0.51
Q19   1   0.1718  0.5000  0.2569  10.50000  0.05    0.50
Q20   1   0.2608  0.4186  0.7645  11.00000  0.05    0.50
;
_shelx_res_checksum              82877
_shelx_hkl_file
;
   0   0  -1  131.27    1.51
   0   0   1  130.03    1.68
   0   0  -1  132.06    2.00
   0   0  -1  135.93    1.76
   0   0   1  138.35    2.18
   0   0   2   93.31    2.49
   0   0   2  108.17    2.58
   0   0  -2   94.04    3.38
   0   0  -2   90.85    2.19
   0   0   2  112.90    3.83
   0   0  -2   96.21    2.83
   0   0  -2   91.12    3.04
   0   0   3 5290.78   20.59
   0   0   3 5194.75   14.49
   0   0  -3 5248.90   17.02
   0   0  -3 5264.06   19.69
   0   0  -3 5286.65   21.44
   0   0  -3 5220.57   14.48
   0   0   3 5238.87   19.69
   0   0  -4 1852.01   10.33
   0   0   4 1846.38   14.03
   0   0  -4 1829.09   15.02
   0   0  -5  277.92    6.50
   0   0   5  264.90    7.12
   0   0  -5  260.10    5.49
   0   0   6  242.66    8.31
   0   0  -6  222.90    7.46
   0   0  -6  245.36    6.17
   0   0   7 1041.86   16.15
   0   0  -7  940.98   13.25
   0   0   8   -4.81    7.08
   0   0   8    3.73    8.25
   0   0  -9  219.28   10.24
   0   0   9  190.14   10.86
   0   2   0 9999.00   25.00
   0  -2   0 9927.97   26.27
   0  -2   0 9985.48   20.74
   0  -2  -1   46.34    2.08
   0  -2  -1   37.46    2.10
   0  -2  -1   40.10    4.34
   0  -2   1   42.44    3.41
   0   2  -1   43.34    2.93
   0  -2  -2   34.28    2.62
   0  -2  -2   32.89    2.18
   0   2  -2   27.83    3.55
   0  -2   2   30.49    2.88
   0  -2   2   35.29    2.42
   0   2   2   31.59    2.99
   0  -2  -3 2444.92   10.46
   0  -2   3 2467.13   17.16
   0   2  -3 2500.95   15.70
   0  -2   3 2369.79   13.80
   0  -2  -3 2365.00   13.48
   0  -2  -3 2378.68   15.32
   0  -2   3 2462.93   12.94
   0  -2   4 1207.52   14.82
   0  -2  -4 1128.39   12.31
   0  -2   4 1214.80   11.40
   0   2   4 1297.27   11.60
   0  -2  -4 1219.66    8.97
   0   2  -4 1212.65   12.45
   0   2   5  178.04    7.14
   0  -2  -5  176.95    5.22
   0   2  -5  188.49    7.18
   0  -2  -5  161.37    7.43
   0  -2   5  206.23    8.47
   0  -2   5  194.34    7.23
   0  -2  -6  111.15    7.31
   0  -2   6  133.66    7.76
   0  -2  -6  110.30    4.94
   0  -2   6  118.88    8.48
   0   2  -6  131.67    7.29
   0  -2  -7  547.28    9.14
   0  -2   7  644.61   15.22
   0   2  -7  640.01   12.99
   0  -2  -7  681.13   13.21
   0  -2   7  547.37   12.24
   0  -2  -8    1.08    5.11
   0  -2   8   -5.83    8.12
   0   2  -8    0.33    7.99
   0  -2   8    1.00    7.40
   0  -2  -8   -0.59    7.70
   0  -2   9  101.73   10.70
   0  -2   9  131.01    9.72
   0  -2  -9  136.19    6.96
   0   2  -9  107.34   10.84
   0  -4   0 2077.71   17.65
   0  -4   0 1171.79    6.71
   0  -4  -1   20.22    6.03
   0  -4   1   27.37    7.23
   0  -4   1   10.33    3.19
   0  -4  -2   11.32    6.53
   0  -4   2    5.91    4.37
   0  -4   2    3.46    5.23
   0  -4   3  425.77    9.43
   0  -4  -3  523.78   11.91
   0  -4   4  275.90   10.34
   0  -4  -4  326.46   10.77
   0  -4   5   54.22    8.80
   0  -4  -5   70.88    8.69
   0  -4   6   11.26    9.04
   0  -4  -6   21.43    8.51
   0  -4  -7  211.23   11.70
  -1  -1  10  208.31   11.97
  -1  -1  10  244.20   12.83
  -1  -1   9   18.84    8.01
   1   1  -9   13.60    7.26
  -1  -1   9   17.70    9.08
  -1  -1   9    0.41    7.81
   1  -1  -9    2.30    5.70
   1  -1  -8  257.55    8.58
   1   1  -8  262.09   10.47
  -1  -1   8  289.19   11.68
   1  -1  -8  285.91    9.73
   1   1  -7  176.60    7.65
   1  -1  -7  147.75    6.78
  -1   1   7  169.06    8.15
   1  -1  -7  162.50    7.94
  -1  -1   7  169.33    9.20
  -1   1   6 1000.20   13.46
   1  -1  -6  985.06   11.17
  -1  -1   6 1020.27   15.18
   1  -1  -6 1006.94   12.33
   1   1  -6  937.26   12.61
   1   1  -6  947.65   15.58
  -1   1   5   67.48    5.16
   1   1  -5   78.56    5.65
   1  -1  -5   66.23    5.22
   1   1  -5   86.81    6.40
   1  -1  -5   74.19    5.50
   1  -1  -5   57.74    4.51
  -1  -1   5   70.38    6.16
   1  -1  -4  258.15    5.97
   1  -1  -4  227.47    5.33
  -1   1   4  235.37    5.47
   1  -1  -4  241.29    4.71
  -1  -1   4  237.47    6.97
   1   1  -4  267.98    6.74
  -1  -1   3 3666.48   18.92
   1   1  -3 3704.34   16.46
  -1  -1   3 3676.31   18.33
   1  -1  -3 3667.24   12.31
  -1   1   3 3611.01   14.88
   1  -1  -3 3621.90   16.12
  -1  -1   2 1418.52   10.59
  -1  -1   2 1382.04    8.47
   1  -1  -2 1459.67    5.74
   1  -1  -2 1472.67    9.30
   1   1  -2 1438.44    9.20
  -1   1   2 1493.03    7.37
   1   1  -1   46.80    2.65
  -1   1   1   58.87    1.36
  -1  -1   1   45.34    2.51
   1   1  -1   57.84    2.65
  -1  -1   1   62.75    2.63
  -1   1   1   64.22    1.52
   1  -1  -1   62.84    3.09
  -1   1   0  348.65    3.80
   1   1   0  320.30    4.25
   1  -1   0  315.17    2.96
  -1   1   0  317.47    3.03
  -1  -1   0  332.91    3.80
   1   1   0  323.48    3.87
  -1   1   0  350.95    2.47
   1  -1   0  346.82    3.77
  -1   1   0  317.65    2.73
  -1  -1   0  357.91    3.99
  -1  -1  -1 8305.39   16.94
   1  -1   1 8260.34   15.15
  -1  -1  -1 8208.70   18.82
  -1   1  -1 8268.81   18.47
  -1   1  -1 8220.14   16.12
   1  -1   1 8305.68   17.70
  -1   1  -1 8274.35   15.73
   1   1   1 8236.66   19.31
   1   1   2    4.58    2.32
   1  -1   2   11.15    2.26
  -1  -1  -2    9.04    2.21
   1  -1   2    7.74    3.36
   1  -1   2    6.39    2.67
  -1  -1  -2    8.72    3.16
  -1   1  -2   11.04    2.39
  -1  -1  -2    5.69    2.47
   1   1   3   15.97    2.97
  -1  -1  -3   17.85    2.93
   1  -1   3   14.89    3.75
  -1   1  -3   19.31    3.29
   1   1   3   22.10    2.75
  -1  -1  -3   21.99    4.47
   1  -1   3   16.19    4.03
  -1  -1  -3   24.23    3.00
  -1   1  -4 1891.33   16.63
   1   1   4 1966.61   13.90
   1  -1   4 2118.48   15.05
  -1  -1  -4 2044.68   14.76
  -1   1  -4 1987.86   14.03
   1   1   4 2074.10   14.53
  -1  -1  -4 1997.82   13.26
  -1  -1  -4 2098.91   12.91
   1  -1   4 1944.35   16.40
   1   1   5  941.13   11.92
  -1   1  -5  932.45   11.21
  -1  -1  -5  922.97   10.07
   1  -1   5  933.39   13.14
  -1   1  -5  934.02   14.08
  -1  -1  -5  903.06   10.12
   1  -1   5  938.16   12.33
   1   1   6  452.40   10.36
   1  -1   6  422.50   10.54
  -1  -1  -6  430.20    8.34
  -1  -1  -6  390.62    8.48
  -1   1  -6  436.31    9.80
   1  -1   6  398.30   10.91
   1   1   7   39.93    6.73
   1   1   7   43.16    8.22
  -1  -1  -7   34.76    6.07
  -1  -1  -7   28.91    5.09
   1  -1   7   46.03    7.16
   1  -1   7   38.63    7.43
  -1   1  -7   37.24    6.37
  -1  -1  -8  697.22   12.45
  -1   1  -8  791.70   15.29
   1  -1   8  589.05   13.46
   1  -1   8  717.34   16.08
   1   1   8  645.15   14.57
  -1  -1  -9   27.92    7.15
   1  -1   9   33.43    8.36
   1  -1   9   47.96    9.44
   1  -3  -9    7.99    9.37
   1   3  -8  149.07   10.49
  -1  -3   8  132.50   11.24
   1  -3  -8  127.51   10.74
   1   3  -7   76.82    8.42
   1  -3  -7   83.03    8.35
  -1  -3   7   78.29    9.73
  -1  -3   6  326.80   12.97
   1   3  -6  368.68   11.22
   1  -3  -6  285.50    4.13
   1  -3  -6  412.01   11.09
  -1  -3   5    7.32    5.25
   1   3  -5    5.40    5.92
  -1  -3   5   21.88    7.20
   1  -3  -5   17.54    6.88
  -1  -3   4  110.55    5.05
  -1  -3   4  115.67    7.42
   1  -3  -4  115.53    7.24
   1   3  -4  105.95    6.88
   1  -3  -3 1548.15   15.65
  -1  -3   3 1673.45   16.15
   1   3  -3 1429.63   15.00
  -1  -3   3 1340.02    9.45
  -1  -3   2  350.00    7.71
   1   3  -2  370.07    8.26
  -1  -3   1    4.05    3.74
   1   3  -1    1.05    4.41
  -1   3   1   -0.77    3.37
   1  -3  -1    0.53    5.05
  -1   3   1    2.32    1.75
  -1   3   0   82.35    1.92
   1  -3   0  114.57    5.50
  -1  -3   0  118.30    6.22
  -1  -3   0  123.48    4.36
   1   3   0  106.06    5.03
  -1   3   0  111.58    5.15
   1  -3   0   82.00    1.89
   1  -3   0   62.24    1.68
  -1  -3  -1 2614.69   13.10
   1  -3   1 2454.73   12.53
  -1   3  -1 2551.03   16.20
  -1  -3  -1 2576.54   12.30
   1   3   1 2663.46   16.85
   1  -3   1 2504.12   11.90
   1  -3   1 2550.12   15.37
  -1  -3  -1 2615.29   17.98
  -1  -3  -2   29.76    6.43
  -1   3  -2   33.86    4.49
   1  -3   2   23.21    2.67
   1  -3   2   35.24    4.16
   1   3   2   24.85    2.98
  -1  -3  -2   31.19    2.80
  -1  -3  -2   35.16    3.21
   1   3   2   35.00    5.02
   1  -3   2   25.61    4.35
  -1  -3  -3    8.87   10.42
  -1   3  -3   12.89    4.93
   1  -3   3    2.27    4.98
  -1  -3  -3    6.86    2.83
   1   3   3    6.56    4.08
   1  -3   3    8.97    3.21
   1  -3   3    9.85    3.56
   1  -3   4  748.72   13.19
   1   3   4  726.45   10.38
  -1   3  -4  765.56   12.10
  -1  -3  -4  735.43    7.69
  -1  -3  -4  724.88   12.08
  -1  -3  -5  350.36    6.15
  -1   3  -5  354.13   10.17
   1  -3   5  334.92    8.27
   1   3   5  322.62    9.33
  -1  -3  -5  336.59    9.94
   1  -3   6  204.24    8.42
   1  -3   6  195.18   10.75
   1   3   6  199.05    9.19
  -1  -3  -6  191.11    9.45
  -1  -3  -7   -2.79    7.73
   1  -3   7   17.50    8.35
  -1  -3  -7    5.04    4.35
   1   3   7   18.13    9.03
  -1  -3  -8  375.86   13.00
   1  -3   8  349.14   13.68
   1   3   8  386.58   14.25
  -1  -3  -8  343.84    8.76
   1  -5  -4   51.39    9.31
  -1  -5   4   45.59    6.83
  -1  -5   3  231.29    8.28
   1  -5  -3  288.49   11.67
   1  -5  -2   38.67    8.39
  -1  -5   2   16.06    4.22
  -1  -5   1    0.72    7.52
   1  -5  -1   -1.53    7.72
  -1  -5   0    9.05    7.42
   1  -5   0    2.30    7.64
  -1  -5  -1  476.90   12.51
  -1  -5  -2   38.42    8.67
  -1  -5  -3   10.91    8.18
  -1  -5  -4  122.21   10.19
   2   0  -9  422.49   11.60
  -2   0   8    8.41    6.92
   2   0  -8   10.52    6.56
   2   0  -7   75.63    8.02
   2   0  -7   81.62    5.98
  -2   0   7   80.25    6.75
   2   0  -6  889.01   11.17
  -2   0   6  930.01   13.06
   2   0  -5 1260.71   14.23
  -2   0   5 1252.25   13.38
  -2   0   4  130.09    4.97
   2   0  -4  121.70    4.41
   2   0  -4  133.64    5.57
   2   0  -4  116.52    4.66
   2   0  -4  113.41    4.85
  -2   0   3   11.42    2.84
   2   0  -3    9.93    2.91
   2   0  -3    3.71    3.09
   2   0  -3   15.81    2.95
   2   0  -3    5.33    3.13
   2   0  -2 7611.66   19.46
  -2   0   2 7611.50   19.27
   2   0  -2 7628.58   16.22
   2   0  -2 7617.60   18.52
  -2   0   2 7592.04   17.11
   2   0  -1   65.18    1.82
  -2   0   1   68.31    1.93
  -2   0   1   66.44    2.03
   2   0   0  109.88    1.97
  -2   0   0   94.31    1.89
   2   0   0  102.63    2.03
   2   0   0  109.30    1.98
   2   0   0  102.80    2.24
  -2   0   0  104.79    1.91
  -2   0   0  100.32    2.04
  -2   0  -1 1648.57    8.56
  -2   0  -1 1665.28    7.67
  -2   0  -1 1650.46    7.95
   2   0   1 1658.43    7.78
   2   0   1 1663.31    8.01
  -2   0  -1 1709.63    8.38
   2   0   1 1596.36    8.62
   2   0   1 1697.60    7.49
   2   0   2 3700.62   14.31
  -2   0  -2 3783.03   16.45
  -2   0  -2 3685.74   13.77
   2   0   2 3793.98   13.80
   2   0   2 3721.85   15.27
   2   0   2 3719.08   16.29
  -2   0  -2 3726.14   14.42
   2   0   3 1019.29   10.13
   2   0   3 1041.36    9.97
   2   0   3 1034.12    9.77
  -2   0  -3 1057.76    9.50
   2   0   4   14.22    4.75
  -2   0  -4   23.38    4.88
   2   0   4   20.56    4.44
  -2   0  -4   17.42    2.73
   2   0   4   21.69    5.47
  -2   0  -4   11.10    3.66
  -2   0  -5 1617.70   10.35
  -2   0  -5 1606.97   17.42
   2   0   5 1587.40   16.38
   2   0   5 1548.42   15.97
  -2   0  -5 1559.46   13.84
  -2   0  -6    5.45    4.99
  -2   0  -6    4.41    6.69
   2   0   6    1.72    5.68
   2   0   6   15.44    6.83
  -2   0  -6    6.51    3.74
  -2   0  -7  222.37    7.92
   2   0   7  211.69   10.10
   2   0   7  230.48    9.00
  -2   0  -8   27.52    6.38
   2   0   8   34.91    7.66
   2   0   8   22.28    8.12
  -2   0  -9  165.46    9.73
   2   0   9  215.08   12.01
   2   0  10   66.03   10.14
   2  -2  -9  284.89   12.47
  -2  -2   9  244.59   10.92
   2  -2  -9  249.05    7.68
   2   2  -9  271.07   11.49
  -2  -2   9  302.05   13.51
   2   2  -8    9.00    7.53
  -2  -2   8   12.57    7.57
   2  -2  -8    8.73    4.46
  -2  -2   8   14.88    7.90
   2  -2  -8    3.68    7.61
   2  -2  -7   58.53    4.36
  -2  -2   7   55.01    8.18
   2  -2  -7   70.19    7.48
   2   2  -7   55.48    7.43
   2  -2  -6  554.54    7.43
  -2  -2   6  543.25   12.75
   2   2  -6  559.36   11.66
   2   2  -5  866.75   12.37
   2  -2  -5  860.08   12.98
  -2  -2   5  846.04   13.85
   2  -2  -4   63.08    5.89
  -2  -2   4   61.58    6.15
  -2   2   4   47.96    3.81
   2  -2  -4   43.64    1.98
   2   2  -4   63.17    5.18
   2  -2  -4   45.90    1.83
   2  -2  -3   13.77    4.89
  -2  -2   3    9.82    4.73
  -2   2   3    9.00    2.48
   2   2  -3    9.14    4.14
  -2  -2   2 4173.45   18.19
   2  -2  -2 4230.57   19.65
   2   2  -2 4172.83   19.90
  -2  -2   1   13.39    3.36
  -2   2   1   14.22    2.20
   2  -2  -1   15.31    3.82
  -2   2   1   17.98    1.85
   2   2  -1   17.09    3.42
  -2  -2   1   13.67    2.60
  -2   2   0   32.83    2.27
  -2  -2   0   33.84    2.72
   2   2   0   34.94    3.44
  -2   2   0   40.03    2.38
   2  -2   0   38.47    3.56
  -2  -2   0   26.43    3.34
   2  -2   0   36.16    2.51
  -2  -2  -1  783.68    7.99
   2   2   1  852.12    9.11
   2   2   1  796.32    5.02
  -2   2  -1  856.60    6.49
   2  -2   1  839.72    6.94
   2  -2   1  875.19    6.81
  -2   2  -1  842.54    7.18
   2  -2   1  831.23    6.12
   2  -2   1  767.27    5.25
  -2  -2  -1  814.58    8.38
  -2  -2  -2 2040.74   12.92
   2  -2   2 2063.37   11.12
   2   2   2 1960.90   10.50
  -2  -2  -2 2079.10   12.53
   2  -2   2 1964.39    9.34
   2   2   2 2110.66   14.58
  -2   2  -2 2056.25   12.95
   2  -2   2 1922.27   13.62
  -2  -2  -3  674.45    9.49
   2  -2   3  573.66    7.36
  -2  -2  -3  547.10    8.90
   2   2   3  583.58    7.81
   2  -2   3  575.62    7.37
   2   2   3  507.85    8.48
  -2   2  -3  617.57    8.68
  -2  -2  -3  577.06    7.49
   2  -2   3  562.38    9.23
   2  -2   4   15.79    5.93
   2   2   4    3.50    5.19
  -2   2  -4   15.22    4.84
   2  -2   4   13.24    4.40
  -2  -2  -4   16.60    6.86
   2   2   4   23.30    4.52
  -2  -2  -4   15.68    3.97
  -2  -2  -5  950.57   12.16
   2   2   5  912.32   12.62
   2  -2   5  987.44   12.54
  -2   2  -5  986.96   13.09
   2  -2   5 1040.47   15.56
   2   2   5  992.24   12.62
  -2  -2  -5 1008.04   10.65
   2  -2   5 1003.77   14.89
   2  -2   6    0.55    6.72
   2   2   6    1.34    6.52
   2  -2   6    4.35    6.13
   2   2   6    8.34    5.46
  -2  -2  -6    4.73    4.58
  -2   2  -6    1.47    6.03
  -2  -2  -6   -1.80    5.69
   2  -2   6    8.00    6.61
   2  -2   7  144.31    9.33
  -2   2  -7  160.82    9.97
   2   2   7  169.73    9.84
   2  -2   7  157.33    8.50
  -2  -2  -7  163.84    8.49
   2  -2   7  144.09    9.57
  -2  -2  -7  169.21    6.77
   2   2   8    5.78    8.70
   2  -2   8   15.86    7.59
  -2   2  -8   35.93    8.95
  -2  -2  -8   15.44    5.53
   2  -2   8   23.85    8.15
  -2  -2  -8   25.33    7.95
   2  -2   8   11.08    8.13
  -2   2  -9  153.34   11.00
   2  -4  -7   31.82    9.46
   2  -4  -6  168.08   10.50
  -2  -4   6  151.83   11.54
   2  -4  -5  208.34   10.18
  -2  -4   5  260.53   11.21
   2  -4  -4   34.64    7.69
  -2  -4   4   18.98    6.98
  -2  -4   3    9.39    6.57
  -2  -4   3    1.48    5.77
  -2  -4   2 1173.16   13.16
   2  -4  -2 1100.05   15.07
  -2  -4   1   10.62    6.36
  -2  -4   1    6.20    4.62
   2  -4  -1    6.41    6.20
  -2  -4   0    8.01    3.79
   2  -4   0    4.12    5.81
  -2  -4   0    3.25    5.98
  -2  -4  -1  200.53    9.21
  -2  -4  -1  182.89    5.18
   2  -4   1  201.86    7.65
  -2  -4  -2  566.90    6.93
  -2  -4  -2  675.40   14.77
  -2  -4  -3  198.86    4.93
  -2  -4  -3  223.42   11.19
   2  -4   4    8.99    6.29
  -2  -4  -4    3.35    7.26
  -2  -4  -4    2.06    3.13
  -2  -4  -5  307.53    5.79
   2  -4   5  290.36   11.10
  -2  -4  -5  301.89   11.33
  -2  -4  -6   10.04    8.59
   2  -4   6   11.30    9.20
  -3  -1   9   58.63    8.74
  -3  -1   9   67.42    8.85
   3  -1  -9   50.98    5.92
   3   1  -9   54.29    7.44
  -3  -1   8  873.83   15.70
  -3  -1   8  881.00   16.19
   3   1  -8  837.65   14.69
   3  -1  -8  852.26   12.16
  -3  -1   7    7.56    6.02
  -3  -1   7    6.76    5.88
   3   1  -7    4.53    6.03
   3  -1  -7    2.80    4.54
   3  -1  -7    8.21    6.47
   3   1  -6   83.47    6.80
   3  -1  -6   74.51    6.35
  -3  -1   6   81.08    6.47
  -3  -1   6   67.92    6.21
  -3   1   6   61.84    5.34
   3  -1  -6   69.69    4.86
  -3   1   5 3493.65   20.36
   3   1  -5 3411.80   24.17
  -3  -1   5 3615.73   23.63
   3  -1  -5 3786.85   21.65
  -3  -1   5 3630.70   23.13
   3   1  -5 3573.35   21.59
   3  -1  -5 3601.75   16.50
   3  -1  -4  398.69    7.99
   3  -1  -4  410.19    5.08
  -3   1   4  396.42    6.16
  -3  -1   4  381.37    8.28
   3  -1  -4  387.29    6.23
   3  -1  -3    1.76    3.58
   3  -1  -3    3.71    1.68
   3   1  -3    6.06    3.37
   3  -1  -3    1.38    1.46
  -3   1   3    8.28    2.39
  -3  -1   3    1.42    3.56
  -3   1   2 2141.12    7.35
   3   1  -2 2116.20   12.38
  -3   1   1 5270.63   16.06
  -3  -1   1 5226.40   13.31
  -3  -1   1 5243.39   17.78
   3   1  -1 5227.13   17.55
  -3  -1   1 5217.20   16.96
   3  -1   0   25.38    2.70
  -3  -1   0   25.03    2.14
  -3   1   0   27.64    1.48
  -3   1   0   23.11    2.31
   3  -1   0   22.91    2.65
  -3   1   0   35.36    1.71
  -3  -1   0   26.27    2.80
   3   1   0   22.90    2.80
   3   1   0   24.46    2.01
  -3  -1   0   28.01    2.53
  -3  -1  -1 1800.24    9.01
   3   1   1 1785.43    9.07
  -3   1  -1 1847.20    8.74
   3   1   1 1815.77   11.38
  -3   1  -1 1827.44    7.71
  -3  -1  -1 1740.42   10.87
   3  -1   1 1836.41    9.58
  -3  -1  -1 1747.32   10.58
  -3   1  -1 1855.68   10.11
   3  -1   1 1864.46   10.19
   3   1   2 1536.48   10.85
   3  -1   2 1640.64    9.58
  -3  -1  -2 1602.34   10.60
   3  -1   2 1538.26   12.50
   3   1   2 1611.68   10.24
  -3   1  -2 1594.57   11.31
  -3   1  -2 1594.22    5.53
   3  -1   2 1688.94   10.87
  -3   1  -2 1589.74   11.03
   3   1   3 1625.16   12.22
   3   1   3 1593.68   12.54
   3  -1   3 1569.00   10.54
  -3   1  -3 1501.01   13.19
   3   1   3 1629.90   12.68
   3  -1   3 1602.05   11.79
  -3   1  -3 1589.33   11.80
   3  -1   3 1595.63   13.51
  -3  -1  -3 1494.62   11.12
  -3  -1  -4 1930.03   14.35
   3  -1   4 2009.50   15.60
   3   1   4 2029.98   16.02
  -3   1  -4 1971.49   15.07
   3   1   4 2015.47   15.82
   3  -1   4 2021.73   17.85
  -3  -1  -4 2058.02   13.66
  -3   1  -4 1943.12   17.07
   3   1   4 1922.39   15.43
   3  -1   5   35.02    5.90
  -3  -1  -5   34.81    4.77
   3   1   5   41.59    6.55
  -3   1  -5   28.60    5.40
  -3  -1  -5   37.89    5.81
   3  -1   5   34.86    5.96
   3   1   5   26.14    5.48
  -3   1  -6 1065.47   14.53
  -3  -1  -6 1032.29   12.73
   3   1   6  952.38   14.34
   3  -1   6  987.93   15.93
   3   1   6 1062.81   15.38
   3  -1   6  975.42   13.92
  -3  -1  -6  975.29   11.64
  -3  -1  -7  153.82    7.34
  -3   1  -7  152.69    8.12
   3   1   7  142.67    8.95
  -3  -1  -7  145.50    7.45
   3  -1   7  146.23    8.93
   3  -1   7  147.18    8.48
   3   1   7  174.85    9.65
  -3   1  -8  147.08    9.44
   3   1   8  149.29   10.39
   3  -1   8  124.06    9.24
   3  -1   8  151.96   10.62
   3   1   8  150.40    9.51
  -3  -1  -8  131.26    7.94
  -3  -1  -9   13.30    6.75
   3  -1   9   13.25    8.95
  -3   1  -9    4.62    7.93
  -3  -3   8  369.05   14.16
   3   3  -8  389.95   13.69
   3  -3  -7    6.13    7.38
  -3  -3   7   10.72    8.20
   3   3  -7    7.32    7.66
  -3  -3   6   34.25    7.56
   3   3  -6   32.80    7.32
   3  -3  -5 1405.54   17.65
  -3  -3   5 1359.88   18.77
   3   3  -5 1383.58   18.01
  -3  -3   4  163.98    8.69
   3   3  -4  157.94    8.13
   3   3  -3    3.99    5.77
   3  -3  -3    3.74    5.60
  -3  -3   3    1.30    5.68
   3  -3  -2  456.17    9.77
  -3  -3   2  429.54    8.98
   3   3  -2  431.09    8.50
  -3  -3   1 1783.55   14.55
   3   3  -1 1880.38   16.22
  -3   3   0   36.82    3.12
  -3  -3   0   36.47    5.03
   3  -3   0   34.75    5.04
   3   3   0   24.60    5.09
   3  -3   1  346.69    6.28
  -3  -3  -1  319.86    7.23
   3   3   1  325.40    8.58
   3   3   2  491.74    6.15
   3  -3   2  639.36    7.95
   3   3   2  642.25   11.47
   3  -3   2  646.15    8.07
   3  -3   2  496.39    6.40
  -3  -3  -2  606.51    8.59
   3   3   3  547.05    7.61
  -3  -3  -3  588.15    8.57
  -3  -3  -3  491.62   10.59
   3   3   3  560.33   11.33
   3  -3   3  517.96    8.56
  -3  -3  -4  821.80   10.39
   3  -3   4  853.84   11.39
   3  -3   4  822.39   13.19
   3   3   5    6.08    5.56
   3  -3   5   17.35    5.68
  -3  -3  -5    6.71    4.23
   3  -3   5   12.27    7.18
  -3  -3  -5    4.01    8.36
   3  -3   6  413.98   13.14
  -3  -3  -6  522.51    9.14
   3  -3   6  499.89   12.18
   3   3   6  457.94   11.47
  -3  -3  -6  464.61   11.97
  -3  -3  -7   66.74    5.82
   3  -3   7   52.79   10.11
  -3  -3  -8   63.54    9.25
   3  -5  -4   18.49    8.74
  -3  -5   4    8.26    7.29
   3  -5  -3   -0.19    8.22
  -3  -5   3   -4.67    6.68
   3  -5  -2   41.87    8.91
  -3  -5   2   29.09    5.84
  -3  -5   1  311.53    8.30
   3  -5  -1  366.90   12.09
  -3  -5   0   15.25   10.40
  -3  -5   0   10.14    4.31
  -3  -5  -1   53.95   14.70
  -3  -5  -1   21.05    3.80
  -3  -5  -2   94.40   10.78
  -3  -5  -3  104.60    9.62
   4   0  -9   34.56    7.08
   4   0  -8  388.84   13.28
   4   0  -8  234.43    8.24
  -4   0   7 1066.28   15.99
   4   0  -7 1085.70   13.29
  -4   0   6    8.03    5.22
   4   0  -6    6.77    4.58
   4   0  -6   12.77    6.05
  -4   0   5   36.56    4.69
   4   0  -5   43.32    4.97
   4   0  -5   44.56    4.83
   4   0  -5   48.01    4.62
   4   0  -4 6055.14   24.77
   4   0  -4 6004.29   24.78
  -4   0   4 5955.08   25.37
   4   0  -4 6004.95   21.51
  -4   0   3  215.22    4.74
   4   0  -3  219.93    5.22
  -4   0   3  214.69    4.85
   4   0  -3  218.59    4.81
   4   0  -2    8.99    2.43
   4   0  -2    7.34    2.10
  -4   0   2   11.70    2.32
  -4   0   1 3021.29   12.97
   4   0  -1 3052.98   13.76
   4   0  -1 3122.01   11.39
  -4   0   1 2996.14   11.80
   4   0  -1 3100.69   11.41
  -4   0   0 7831.30   18.82
  -4   0   0 7769.99   19.86
   4   0   0 7832.19   18.56
   4   0   0 7850.46   17.88
   4   0   0 7742.42   20.10
   4   0   0 7711.06   19.80
   4   0   1  819.13    8.04
  -4   0  -1  791.63    6.95
   4   0   1  807.16    7.44
   4   0   1  800.46    7.21
   4   0   2  372.54    6.71
  -4   0  -2  398.20    6.81
   4   0   2  355.21    5.87
   4   0   2  383.07    5.47
   4   0   2  380.66    6.21
  -4   0  -2  353.42    5.69
   4   0   3 3737.02   21.42
  -4   0  -3 3624.07   21.06
  -4   0  -3 3659.82   18.06
   4   0   3 3607.55   19.69
   4   0   3 3523.33   18.27
   4   0   4  137.29    6.94
  -4   0  -4  149.13    7.11
   4   0   4  142.69    6.58
  -4   0  -4  147.89    5.94
   4   0   4  138.47    6.35
  -4   0  -4  140.50    4.40
   4   0   5  963.04   15.08
   4   0   5  942.30   13.95
   4   0   6  190.21    8.45
  -4   0  -6  190.63    7.67
  -4   0  -7  496.52   11.22
   4   0   7  487.09   12.98
   4   0   8  152.34   10.28
  -4   0  -8  149.48    8.95
   4   0   8  164.09    9.94
  -4   0  -9  103.89    8.73
   4   0   9  112.63   10.91
   4   2  -9   45.68    8.46
  -4  -2   9   60.67    9.29
   4  -2  -9   45.23   10.20
   4  -2  -8  139.48   10.30
   4  -2  -8  163.89    5.16
   4   2  -8  141.67    9.13
  -4  -2   8  170.42   10.24
  -4  -2   7  691.55   14.62
   4   2  -7  667.34   13.17
   4  -2  -6   15.03    6.86
   4   2  -6    3.07    5.78
  -4  -2   6    1.46    6.43
   4  -2  -5   37.71    6.17
  -4  -2   5   40.20    6.47
   4   2  -5   32.23    5.68
  -4  -2   4 3552.81   24.19
   4   2  -4 3537.67   22.80
   4  -2  -3   81.70    6.02
  -4   2   3   88.17    2.51
  -4  -2   2   10.95    2.14
   4  -2  -2   17.32    4.77
  -4  -2   2   10.23    4.53
   4   2  -2   17.59    4.00
  -4  -2   1 1283.95    6.89
  -4  -2   1 1295.73   11.89
   4  -2   0 3677.73   16.93
  -4  -2   0 3768.12   11.44
   4   2   0 3701.57   11.74
   4  -2   0 3746.75   16.80
  -4   2   0 3661.80   11.40
  -4  -2   0 3659.29   18.44
   4   2   0 3636.01   19.19
   4  -2   1  422.92    6.05
  -4   2  -1  487.76    5.99
   4  -2   1  532.55    7.07
  -4  -2  -1  502.85    7.82
   4   2   1  508.30    5.42
   4   2   1  528.14    8.58
  -4   2  -2  165.82    4.89
   4   2   2  170.92    4.75
   4  -2   2  172.91    5.10
   4   2   2  185.29    6.17
   4  -2   2  178.38    5.18
  -4  -2  -3 2070.50   14.92
   4  -2   3 1985.78   16.90
  -4   2  -3 1966.46   15.33
   4   2   3 2007.93   13.97
   4  -2   3 1968.90   14.48
   4  -2   3 1944.73   17.35
   4   2   3 2022.67   16.64
   4  -2   4   80.26    6.71
  -4   2  -4   65.31    5.68
   4   2   4   86.63    5.70
   4  -2   4  101.28    7.45
   4   2   4   72.35    5.92
   4  -2   4   87.86    6.45
  -4  -2  -4   85.03    5.47
  -4  -2  -4   85.50    6.78
  -4   2  -5  530.17   10.91
   4   2   5  519.35   10.24
  -4  -2  -5  587.61   10.04
  -4  -2  -5  580.40   11.34
   4  -2   5  592.14   13.76
   4   2   5  560.43   11.37
   4  -2   5  544.50   10.21
  -4   2  -6   98.45    7.59
  -4  -2  -6   75.37    6.78
   4   2   6   75.11    7.27
   4  -2   6   97.45    7.34
   4  -2   6  103.79    9.47
  -4  -2  -6   76.78    6.13
   4   2   6   93.23    7.26
  -4   2  -7  332.89   12.41
   4  -2   7  336.41   12.18
   4   2   7  347.79   11.77
  -4  -2  -7  342.37    9.55
   4  -2   7  265.35   10.24
   4  -2   7  346.69   13.73
  -4  -2  -7  270.66    9.70
  -4   2  -8  127.08   10.59
   4  -2   8  124.12   10.16
  -4  -2  -8  105.65    7.60
   4   2   8  118.66   10.83
   4  -2   8  118.45    9.00
   4  -4  -7  203.55   12.40
   4  -4  -6   17.71    8.63
  -4  -4   6   12.17    8.94
   4  -4  -5   23.56    9.69
  -4  -4   5   37.78    9.68
   4  -4  -4 1072.83   17.77
  -4  -4   4  979.35   16.34
   4  -4  -3    8.01    7.93
  -4  -4   3   22.55    6.74
   4  -4  -2    4.10    6.48
  -4  -4   2   -0.11    6.57
   4  -4  -1  245.67    9.41
  -4  -4   1  248.38    8.52
   4  -4   0  953.99   14.36
  -4  -4   0 1019.31   12.52
   4  -4   1  178.38    7.33
  -4  -4  -1  194.85    9.11
  -4  -4  -2   23.53    4.68
  -4  -4  -2   20.92    7.65
  -4  -4  -3  505.03    8.95
  -4  -4  -3  490.39   13.42
  -4  -4  -4   19.58    4.74
   4  -4   4    7.29    5.18
  -4  -4  -5  149.95    9.51
  -4  -4  -5  166.88    6.50
  -4  -4  -6   12.95    8.86
  -4  -4  -6    2.64    4.82
   4  -4   6  -11.17    9.22
   5  -1  -9    8.41    5.53
   5   1  -9   -3.58    7.24
  -5  -1   8   54.97    7.28
   5  -1  -8   37.46    5.23
   5   1  -8   60.98    7.40
   5   1  -7  838.23   14.55
   5   1  -7  841.20   13.59
   5   1  -6  306.82    9.43
   5   1  -6  299.24    8.43
  -5  -1   6  287.04    9.29
   5   1  -5   11.39    5.02
  -5   1   5   12.31    4.01
   5  -1  -5   10.00    4.28
   5  -1  -5   11.60    2.99
   5  -1  -5   26.31    6.82
  -5  -1   5   19.32    5.44
  -5   1   4  116.67    4.21
   5  -1  -4   83.57    3.30
   5  -1  -4   79.62    2.47
   5   1  -4  109.16    6.05
  -5  -1   4  107.53    5.65
   5  -1  -4  107.94    6.32
  -5  -1   3 3488.20   19.54
   5   1  -3 3554.72   18.89
   5  -1  -3 3527.88   20.85
  -5  -1   2   20.93    3.89
   5   1  -2   27.11    3.57
  -5   1   2   27.47    2.03
  -5  -1   1  135.50    3.60
   5  -1  -1  144.63    4.86
   5   1  -1  128.85    3.91
  -5   1   1  135.53    2.61
  -5  -1   1  124.08    4.45
   5   1  -1  123.28    4.32
   5  -1   0 1489.90   11.25
   5  -1   0 1492.20    6.91
  -5   1   0 1490.30    8.12
  -5  -1   0 1495.08    9.62
  -5  -1   0 1458.91   11.10
   5   1   0 1510.11   11.61
   5  -1   0 1479.54    5.89
   5   1   0 1444.94    9.59
   5  -1   1 2241.88   13.90
  -5   1  -1 2219.25   11.59
   5  -1   1 2235.90   12.64
  -5  -1  -1 2201.60   13.90
   5   1   1 2211.81   14.31
   5  -1   2 1135.34   11.40
  -5   1  -2 1136.07   10.15
  -5  -1  -2 1088.08   11.16
   5  -1   2 1156.70    8.94
   5   1   2 1149.67   11.27
   5  -1   2 1161.75   10.74
   5   1   2 1212.29   10.67
  -5   1  -3   60.29    4.81
   5   1   3   57.01    4.99
  -5  -1  -3   59.90    4.78
   5  -1   3   56.56    3.60
   5  -1   3   52.53    5.65
   5   1   3   54.76    4.82
   5   1   3   56.18    4.91
   5  -1   3   72.90    5.46
  -5   1  -3   39.06    2.80
   5  -1   4 1457.83   14.18
   5   1   4 1520.14   14.44
  -5   1  -4 1460.88   14.19
  -5  -1  -4 1506.21   14.07
   5  -1   4 1456.14   15.62
   5   1   4 1413.77   14.46
  -5  -1  -5    6.77    4.74
   5  -1   5    5.87    6.15
   5   1   5    8.53    5.80
   5  -1   5    4.23    5.71
  -5   1  -5    4.02    5.15
  -5  -1  -5    6.12    5.12
   5   1   5    5.67    5.36
  -5   1  -6  349.38   10.12
   5   1   6  314.59   10.03
  -5  -1  -6  388.17    9.89
   5  -1   6  353.43   10.46
  -5  -1  -6  336.32    8.94
   5  -1   6  363.23   11.44
   5   1   6  342.80   10.09
  -5   1  -7   33.65    7.35
   5  -1   7   19.24    7.96
   5   1   7   28.50    7.92
   5  -1   7   14.63    7.28
  -5  -1  -7   19.06    6.17
   5   1   7   33.00    7.65
  -5   1  -8  201.76   10.68
  -5  -1  -8  177.78    9.51
   5   1   8  198.81   11.03
   5  -1   8  178.37   10.26
   5  -1   8  186.81   11.12
   5   1   8  210.70   11.30
  -5   1  -9  151.13   11.27
  -5  -3   8   22.66    8.16
   5   3  -8   13.98    9.00
   5  -3  -7  344.68   12.69
  -5  -3   7  343.15   12.77
   5  -3  -6  113.87    9.16
  -5  -3   6  103.01    8.89
   5   3  -6  124.61    9.60
   5  -3  -5   11.74    7.66
   5   3  -5   21.03    7.69
  -5  -3   5   24.56    7.61
   5  -3  -4   30.99    6.79
  -5  -3   4   23.71    6.58
   5   3  -4   35.41    6.55
   5  -3  -3 1567.87   17.02
  -5  -3   3 1533.25   17.60
   5  -3  -2   25.88    6.03
  -5  -3   2   22.88    5.80
   5   3  -2   16.86    5.34
   5  -3  -1   53.10    5.80
  -5  -3   1   69.08    6.64
   5   3  -1   56.12    6.24
   5  -3   0  533.55    9.28
   5  -3   0  550.52    9.30
   5   3   0  567.51   10.85
  -5  -3  -1  824.05   11.94
   5   3   1  846.51   13.15
  -5  -3  -2  543.14    9.62
   5   3   2  575.52   11.50
   5   3   3   15.04    4.32
   5  -3   3   10.65    4.80
  -5  -3  -3   11.60    4.99
   5   3   3   17.81    5.84
   5  -3   3    8.13    3.82
   5   3   4  612.97   10.51
   5  -3   4  676.18   11.05
  -5  -3  -4  673.97   11.18
   5  -3   4  605.49   11.91
  -5  -3  -5   15.56    5.70
  -5  -3  -5    1.31    7.49
   5  -3   5    3.36    5.85
   5  -3   5    7.68    7.37
  -5  -3  -6  139.02    7.39
   5  -3   6  144.73    8.88
  -5  -3  -7    7.71    8.08
  -5  -3  -7    5.89    5.90
   5  -3   7    7.83    9.57
   5  -5  -4   -8.53    8.63
   5  -5  -3  305.11   12.60
  -5  -5   3  232.44   11.61
   5  -5  -2   12.33    8.72
  -5  -5   2    4.86   10.51
  -5  -5   2   13.76    6.88
   5  -5  -1   15.23    8.67
  -5  -5   1   -4.95    9.80
  -5  -5   1    8.64    6.27
  -5  -5   0   74.97    6.35
  -5  -5   0   64.11    9.38
  -5  -5  -1  174.84   11.16
  -5  -5  -1  183.69    7.54
  -5  -5  -2  141.49    6.70
  -5  -5  -2  160.52   12.31
  -5  -5  -3    0.32    4.80
   6   0  -9  321.77   10.37
   6   0  -8   23.48    6.15
   6   0  -7   21.31    6.24
   6   0  -7   20.89    5.55
  -6   0   6 1713.41   17.71
   6   0  -6 1723.47   16.02
  -6   0   5  129.91    5.94
   6   0  -5  142.81    5.45
   6   0  -5  135.16    5.55
   6   0  -4  628.15    8.60
   6   0  -4  635.39    7.71
  -6   0   4  620.25    9.34
   6   0  -3  333.21    5.75
  -6   0   3  322.41    6.06
   6   0  -2 5028.57   18.08
  -6   0   2 4999.15   19.44
   6   0  -1 2856.14   13.65
   6   0  -1 2875.57   16.69
  -6   0   1 2821.19   13.93
   6   0  -1 2874.71   13.27
   6   0  -1 2875.10   13.21
   6   0   0   32.24    3.57
   6   0   0   31.02    3.65
  -6   0   0   34.55    3.28
   6   0   0   37.32    3.42
   6   0   0   39.20    3.19
   6   0   1 3173.73   18.28
   6   0   1 3200.98   16.80
  -6   0  -1 3251.29   16.21
   6   0   1 3219.51   16.20
   6   0   1 3228.24   15.08
   6   0   2    3.11    3.83
   6   0   2    0.70    4.30
  -6   0  -2    6.49    3.65
   6   0   3 1021.27   13.64
   6   0   3  984.05   12.02
  -6   0  -3  906.45   10.70
   6   0   3  926.11   11.40
   6   0   4  162.47    7.08
  -6   0  -4  162.65    6.81
   6   0   4  136.74    6.65
   6   0   4  158.27    8.42
   6   0   5  403.45   12.09
   6   0   5  377.10   10.03
  -6   0  -5  365.23    9.71
   6   0   5  404.11   10.44
  -6   0  -5  345.95    6.66
   6   0   6  147.63    8.57
  -6   0  -6  165.27    7.77
   6   0   7  166.71   10.01
  -6   0  -7  193.76    9.12
   6   0   7  194.61   10.11
   6   0   8    8.01    7.39
  -6   0  -8   -1.21    7.29
  -6  -2   9  192.04   12.46
   6   2  -9  223.49   11.62
   6   2  -8    2.74    7.58
  -6  -2   8   19.84    8.20
   6   2  -7   -1.24    7.47
  -6  -2   7   16.26    7.48
   6  -2  -7   12.74    8.41
   6  -2  -6 1176.83   17.34
   6   2  -6 1251.82   17.64
   6  -2  -5   88.19    7.46
  -6  -2   5   75.77    6.20
   6   2  -5   84.42    7.51
   6  -2  -4  342.54    9.86
  -6  -2   4  345.26    9.84
   6   2  -4  339.95    8.43
   6  -2  -3  206.47    7.91
   6   2  -3  189.23    6.97
   6  -2  -2 2753.64   18.92
   6   2  -2 2829.15   19.69
   6  -2  -1 1425.36   13.03
  -6   2   1 1356.97    6.77
  -6  -2   1 1437.37   13.64
   6   2  -1 1349.41   13.14
   6  -2  -1 1385.41   13.67
  -6   2   0   27.13    2.74
   6   2   0   24.42    3.06
   6  -2   0   38.55    4.59
  -6  -2   0   35.75    5.11
   6   2   0   23.59    4.95
  -6   2  -1 1967.69   12.90
   6   2   1 1904.86   12.64
   6  -2   1 1926.12   14.93
  -6  -2  -1 1873.27   15.75
   6   2   1 1920.21   16.72
   6   2   2    9.33    5.09
   6   2   2    4.26    3.82
   6  -2   2    8.93    4.55
  -6   2  -2    7.78    3.90
  -6  -2  -2    2.61    4.91
   6  -2   2    0.89    2.82
   6  -2   2   12.38    4.27
  -6   2  -3  631.71   10.28
   6   2   3  622.40    9.34
   6  -2   3  609.21    9.85
  -6  -2  -3  611.31   10.85
  -6   2  -4   78.62    6.24
   6   2   4   87.82    6.19
   6  -2   4   86.20    6.24
  -6  -2  -4   82.58    6.12
   6  -2   4   66.92    8.01
   6   2   4   85.06    6.75
   6   2   5  233.88    8.27
   6  -2   5  238.19    8.62
  -6  -2  -5  256.69    8.82
   6  -2   5  248.18   11.31
  -6  -2  -5  255.45    9.25
   6   2   6  104.41    8.24
  -6  -2  -6  126.16    8.15
  -6  -2  -6  137.10   10.08
   6  -2   6  143.55   10.90
   6   2   6  102.93    8.18
   6  -2   6  108.86    7.75
   6   2   7  119.50    9.74
  -6  -2  -7  122.86    8.28
   6  -2   7  116.68    9.13
   6  -2   7   98.83   11.09
  -6  -2  -7  100.27    8.31
   6  -4  -6  355.16   13.47
   6   4  -6  334.92   11.74
   6  -4  -5   20.37    9.16
   6   4  -5    5.27    7.95
  -6  -4   5    6.29    7.99
   6  -4  -4  109.12    9.64
  -6  -4   4   90.15    9.47
   6   4  -4   92.50    9.11
   6  -4  -3   42.33    8.30
  -6  -4   3   35.02    7.19
   6   4  -3   40.75    8.27
   6  -4  -2  776.73   14.61
  -6  -4   2  886.69   14.74
   6  -4  -1  416.87   11.04
  -6  -4   1  511.79   12.16
   6  -4   0    6.55    6.40
  -6  -4   0    7.35    5.95
  -6  -4  -1  472.53   10.81
  -6  -4  -2   -2.89    5.61
  -6  -4  -3  156.98    7.98
  -6  -4  -3  183.83   11.32
  -6  -4  -4   10.08    5.92
  -6  -4  -4    2.73    8.67
  -6  -4  -5  140.26   17.27
   7   1 -10   25.75    7.66
   7   1  -9  486.34   12.95
   7   1  -9  430.88   14.07
   7   1  -8  216.36    9.46
   7   1  -8  240.82   10.85
   7   1  -7   16.30    6.27
   7  -1  -7   14.42    3.94
   7   1  -7   10.48    6.97
  -7  -1   7   15.55    6.51
   7   1  -6  127.84    7.31
   7  -1  -6  131.74    4.32
  -7  -1   6  143.17    8.10
   7  -1  -5 1503.63   11.26
   7  -1  -5 1645.26    9.02
   7   1  -5 1868.87   15.28
  -7  -1   5 2072.74   19.11
   7   1  -4    0.72    4.55
  -7  -1   4    3.17    4.38
  -7   1   4    6.88    3.56
  -7  -1   3  624.58   10.00
   7   1  -3  610.82    9.29
  -7  -1   2 1265.10   12.83
  -7   1   2 1318.75    9.37
   7  -1  -1 2508.31   17.99
   7   1  -1 2539.31   16.03
   7   1   0 2318.51   14.87
   7  -1   0 2385.93   16.80
  -7   1   0 2408.76   13.26
   7  -1   0 2221.54   12.98
  -7  -1   0 2306.34   16.37
   7   1   0 2213.03   15.85
   7  -1   0 2363.23   10.08
   7   1   1  306.18    7.80
   7   1   1  263.95    6.35
   7  -1   1  298.72    7.17
  -7   1  -1  295.56    6.02
  -7  -1  -1  307.81    7.33
   7  -1   1  330.94    7.54
   7   1   1  281.70    6.98
   7   1   2 1773.71   16.02
   7  -1   2 1828.09   15.27
  -7   1  -2 1823.27   14.29
  -7  -1  -2 1785.81   15.16
   7  -1   2 1825.70   15.71
   7  -1   2 1821.50   12.47
   7   1   2 1782.86   15.76
   7   1   3   53.19    5.72
   7   1   3   48.34    5.28
   7  -1   3   49.19    5.45
  -7   1  -3   49.11    5.41
  -7  -1  -3   48.97    5.29
   7  -1   3   68.69    6.44
   7   1   3   52.34    5.65
   7   1   4 1133.66   14.45
   7  -1   4 1044.92   13.68
  -7   1  -4 1092.33   14.08
  -7  -1  -4 1043.63   13.32
   7  -1   4 1132.51   15.76
   7   1   4 1020.47   13.94
   7   1   5   34.46    6.71
  -7   1  -5   37.36    6.26
  -7  -1  -5   42.06    6.49
   7  -1   5   24.59    7.13
   7   1   5   28.86    6.52
   7  -1   5   36.34    6.47
  -7   1  -6  242.08    9.93
   7   1   6  220.93    9.57
   7  -1   6  256.05   10.34
  -7  -1  -6  259.83    9.77
   7  -1   6  193.83   10.45
   7   1   6  201.20    9.54
  -7   1  -7  398.07   12.84
   7   1   7  421.36   12.93
   7  -1   7  445.95   14.26
  -7  -1  -7  414.37   11.51
   7  -1   7  436.49   14.20
   7   1   7  411.31   13.74
   7   1   8   16.25    8.55
  -7   1  -8   24.15    8.65
  -7  -3   8  111.71   10.87
   7   3  -8   90.37   10.10
   7  -3  -8   88.39   11.73
   7   3  -7   10.41    7.52
  -7  -3   7   19.69    8.88
   7  -3  -7    8.51    9.34
   7  -3  -6   68.76    8.95
  -7  -3   6   50.65    8.65
   7   3  -6   42.59    6.86
  -7  -3   5  895.35   16.25
   7   3  -5  921.94   15.68
   7   3  -4    0.19    6.21
  -7  -3   4    2.98    7.06
   7  -3  -4    7.71    6.98
   7  -3  -3  253.85    9.74
   7   3  -3  222.96    9.06
   7  -3  -2  413.84   10.49
  -7  -3   2  404.10   10.12
   7   3  -2  438.73   11.18
  -7  -3   1  914.36   13.48
   7   3  -1  926.44   14.71
   7  -3  -1  922.46   13.45
   7  -3   0  979.85   13.41
  -7  -3   0  953.59   14.07
   7   3   0  965.17   15.02
   7  -3   1   83.84    6.26
  -7  -3  -1   78.20    6.95
   7   3   1   74.75    7.38
   7  -3   2  844.00   12.55
  -7  -3  -2  802.66   13.25
   7   3   3   11.85    6.51
  -7  -3  -3   25.03    6.46
   7  -3   3   18.61    5.50
   7  -3   3   12.93    2.90
   7  -3   4  522.24   11.21
  -7  -3  -4  491.36   11.14
   7   3   4  532.60   13.61
  -7  -3  -5    9.63    7.99
   7  -3   5   -1.02    6.31
  -7  -3  -5   17.88    6.87
   7  -3   5   -0.66    8.13
  -7  -3  -6  147.07   12.03
  -7  -3  -6  150.42    9.23
  -7  -3  -7  207.21   11.48
   7  -5  -3   33.77    9.73
   7  -5  -2   49.48    9.88
   8   0  -9    8.57    5.15
   8   0  -8  572.14   10.85
   8   0  -7  120.17    6.48
   8   0  -6   79.84    5.54
   8   0  -5  146.46    5.78
  -8   0   5  162.06    6.98
   8   0  -4 2527.83   15.13
  -8   0   4 2480.12   16.99
   8   0  -3  432.64    6.97
  -8   0   3  451.94    8.09
   8   0  -2  129.09    4.22
   8   0  -2  124.00    6.28
  -8   0   2  150.70    5.44
   8   0  -2  145.56    4.97
   8   0  -1 2197.89   17.31
  -8   0   1 2176.74   14.91
   8   0  -1 2154.53   13.70
   8   0   0  593.30    8.38
   8   0   0  576.65    7.61
   8   0   1 1570.90   15.71
   8   0   1 1360.10   13.21
  -8   0  -1 1410.89   13.20
   8   0   1 1380.25   12.50
   8   0   1 1499.63   12.38
   8   0   2  189.41    6.88
  -8   0  -2  179.81    6.46
   8   0   2  194.32    6.73
   8   0   3 1126.87   13.60
  -8   0  -3 1134.18   13.43
   8   0   3 1149.20   13.94
  -8   0  -4  211.94    8.01
   8   0   4  211.50    8.07
  -8   0  -5  437.25   10.85
   8   0   5  447.52   11.91
   8   0   6   28.55    8.58
   8   0   6   30.54    8.43
  -8   0  -6   33.42    8.13
  -8   0  -7   90.23    8.86
   8   0   7   67.63    8.96
  -8   0  -8  262.85   11.75
  -8  -2   8  324.82   12.21
   8   2  -8  364.37   12.12
  -8  -2   7   67.53    7.97
   8   2  -7   63.83    7.04
  -8  -2   6   80.58    7.98
   8   2  -6   63.56    7.41
  -8  -2   5   92.24    8.01
   8   2  -5   82.34    7.22
  -8  -2   4 1686.46   18.48
   8   2  -4 1825.81   19.06
  -8  -2   3  287.03    8.83
   8   2  -3  322.15    9.23
  -8  -2   2   84.66    6.43
   8   2  -2   66.67    6.27
   8  -2  -1 1264.59   14.73
   8   2  -1 1260.39   12.34
  -8  -2   1 1276.13   16.53
   8   2  -1 1251.54   15.16
   8   2   0  312.92    6.87
   8  -2   0  321.35    8.40
   8   2   0  338.40    8.97
   8   2   1  971.27   11.15
   8  -2   1  960.34   12.90
  -8  -2  -1  930.03   13.08
   8   2   1  971.31   13.50
   8  -2   2   89.38    5.06
   8   2   2  111.79    5.90
   8  -2   2   92.79    6.21
   8  -2   2   95.72    5.20
  -8  -2  -2   93.60    6.68
   8   2   2   88.96    6.88
   8   2   3  712.34   11.45
   8  -2   3  747.66   12.15
  -8  -2  -3  748.38   12.43
   8   2   3  756.95   13.79
   8   2   4  139.00    7.84
   8  -2   4  132.90    7.29
  -8  -2  -4  124.74    7.66
   8   2   4  142.48    8.54
   8   2   5  262.88    9.69
   8  -2   5  256.21    9.19
  -8  -2  -5  287.99   10.08
   8   2   5  264.54   10.68
   8  -2   6   18.21   10.16
   8   2   6   16.04    7.58
   8   2   6   11.73    7.84
   8  -2   6   15.45    6.89
  -8  -2  -6   13.02    7.04
  -8  -2  -6   16.35    8.02
   8   2   7   66.29    9.47
   8   4  -6   29.91    9.39
   8   4  -5    7.45    8.96
  -8  -4   5   12.88    8.59
   8  -4  -5   12.48    9.45
  -8  -4   4  660.34   16.21
   8   4  -4  632.49   16.46
  -8  -4   3  126.48    9.52
   8   4  -3  130.59   10.69
   8  -4  -3  147.49   10.62
   8   4  -2    8.18    7.97
  -8  -4   2   15.98    7.44
   8  -4  -2   17.10    8.31
  -8  -4   1  360.51   12.01
   8   4  -1  375.69   13.14
  -8  -4   0   96.70    8.36
  -8  -4  -1  337.10   10.68
  -8  -4  -2   13.40    6.78
  -8  -4  -3  270.79   10.16
  -8  -4  -4   37.35    9.91
   9   1  -9   39.42    6.25
   9   1  -8   -1.96    4.96
   9   1  -8   10.48    7.16
   9   1  -7  691.86   11.66
   9   1  -7  814.34   13.81
   9   1  -6   29.96    5.83
  -9  -1   6   13.78    5.69
   9   1  -6   21.03    5.94
  -9  -1   5  105.40    7.28
   9   1  -5  114.23    7.01
  -9  -1   4  514.70   10.67
   9   1  -4  505.50   10.01
  -9  -1   3  780.80   12.24
   9   1  -3  747.00   10.95
  -9  -1   2  667.13   10.97
   9   1  -2  684.66   10.54
   9  -1  -1  271.32    8.53
   9   1  -1  281.56    7.75
   9  -1  -1  266.02    3.71
  -9  -1   1  291.80    8.67
   9   1  -1  260.57    7.44
   9   1   0  740.19   12.61
   9   1   0  603.30    9.70
   9  -1   0  636.58   10.79
  -9   1   0  571.48    9.64
   9  -1   0  492.17    8.53
  -9  -1   0  647.84   11.25
   9   1   0  590.63    9.78
   9  -1   0  586.45    6.07
   9   1   1   48.37    5.35
   9   1   1   54.96    5.18
   9  -1   1   51.21    5.87
  -9   1  -1   55.00    4.98
  -9  -1  -1   52.33    5.84
   9  -1   1   58.57    6.26
   9   1   1   33.47    5.53
   9   1   2 1383.84   16.40
   9   1   2 1381.70   14.69
   9  -1   2 1385.01   15.53
  -9   1  -2 1364.81   14.48
  -9  -1  -2 1343.38   15.18
   9  -1   2 1387.71   16.15
   9   1   2 1354.69   15.41
   9  -1   3    9.71    6.25
   9   1   3   11.97    5.69
   9   1   3   15.69    5.19
  -9   1  -3   20.19    5.69
  -9  -1  -3   22.47    6.14
   9  -1   3   18.44    5.74
   9  -1   4  561.16   11.88
  -9  -1  -4  565.56   11.78
   9  -1   4  567.80   13.58
   9   1   4  556.26   11.90
   9   1   5  470.22   12.23
   9  -1   5  462.25   11.86
  -9  -1  -5  491.29   12.18
   9  -1   5  472.11   12.88
   9   1   5  452.12   12.45
   9  -1   6   34.04    8.92
   9   1   6   17.06    7.53
  -9  -1  -6   24.60    7.42
   9   1   6   14.07    7.84
   9  -1   6    8.85    7.58
   9   1   7    6.37    8.29
  -9  -1  -7   13.99    7.47
  -9  -3   7  391.59   14.37
   9   3  -7  411.49   13.58
  -9  -3   6   16.50    8.77
   9   3  -6   31.68    8.25
  -9  -3   5   53.83    8.92
   9   3  -5   61.59    8.53
  -9  -3   4  175.07    9.82
   9   3  -4  185.83   10.10
  -9  -3   3  321.25   11.18
   9   3  -3  318.01   10.27
  -9  -3   2  377.38   12.08
   9   3  -2  358.91   11.12
  -9  -3   1   62.97    7.42
   9   3  -1   69.95    7.95
  -9  -3   0  243.53    9.56
   9   3   0  256.26   10.57
   9   3   1   16.11    7.07
   9  -3   1   25.17    6.14
  -9  -3  -2  667.40   13.61
   9   3   2  642.58   14.91
   9   3   3   17.30    8.02
  -9  -3  -3   24.67    7.35
   9  -3   3   19.03    6.47
   9  -3   4  288.21   10.15
  -9  -3  -4  306.05   10.75
  -9  -3  -5  221.07   11.80
   9  -3   5  212.75   10.82
  -9  -3  -6   14.94   10.13
  10   0  -9   52.28    7.13
  10   0  -8  134.43    7.73
  10   0  -7   32.76    5.23
  10   0  -6 1120.38   12.82
  10   0  -5  397.79    8.08
  10   0  -4  183.42    6.63
  10   0  -3 1017.85   10.98
 -10   0   3 1051.05   12.97
 -10   0   2  177.38    6.69
  10   0  -2  165.41    5.83
 -10   0   1 1589.06   15.36
  10   0  -1 1540.95   13.81
 -10   0   0  169.30    6.78
  10   0   0  170.42    6.51
  10   0   1  574.65   10.70
 -10   0  -1  567.23   10.24
  10   0   1  592.66   10.22
  10   0   2  261.55    8.44
 -10   0  -2  267.35    8.38
  10   0   3  624.50   12.15
 -10   0  -3  608.98   11.97
  10   0   4    2.28    6.57
  10   0   4    0.11    6.25
 -10   0  -4   -0.37    5.99
  10   0   5   59.58    7.97
 -10   0  -5   54.89    7.76
  10   0   5   68.18    8.50
 -10   0  -6  409.94   13.56
  10   0   6  411.70   13.30
 -10   0  -7   -0.65    8.23
  10   2  -7   24.31    8.51
 -10  -2   7   13.59    8.38
 -10  -2   6  901.75   17.54
  10   2  -6  872.33   16.14
 -10  -2   5  345.99   11.82
  10   2  -5  305.13   10.84
 -10  -2   4   91.91    7.89
  10   2  -4   80.61    7.05
 -10  -2   3  664.74   13.05
  10   2  -3  617.88   12.73
 -10  -2   2   99.16    7.31
  10   2  -2  109.61    7.43
  10  -2  -1  995.13   15.05
  10   2  -1  982.59   13.54
 -10  -2   1 1015.02   14.72
  10   2  -1 1037.25   14.91
  10   2   0   80.87    6.01
  10  -2   0   91.19    6.92
 -10  -2   0   87.60    7.14
  10   2   0   74.49    7.26
  10   2   1  456.58   10.14
  10  -2   1  395.64   10.01
 -10  -2  -1  445.44   11.17
  10   2   1  418.17   10.67
  10  -2   2  163.49    5.62
  10  -2   2  185.32    8.08
  10  -2   2  168.53    5.83
 -10  -2  -2  170.97    8.69
  10   2   2  186.39    8.87
  10   2   3  439.60   11.10
  10  -2   3  400.69   10.57
 -10  -2  -3  432.91   11.34
  10   2   3  414.38   12.10
  10  -2   4    0.37    9.45
  10   2   4   -3.87    7.05
  10   2   4    1.17    7.11
  10  -2   4    3.14    6.37
 -10  -2  -4    1.27    6.90
  10  -2   5   34.19   10.95
  10   2   5   48.82    8.60
  10  -2   5   52.78    7.55
 -10  -2  -5   56.19    7.98
  10   2   5   46.26    8.31
  10   2   6  285.53   12.88
  10   4  -5  132.16   12.08
  10   4  -4   30.67    9.13
 -10  -4   4   -2.81    8.53
 -10  -4   3  181.09   10.73
  10   4  -3  174.24   11.47
 -10  -4   2   42.11    9.14
  10   4  -2   38.38    9.31
 -10  -4   1  391.91   12.74
  10   4  -1  390.53   15.58
  10   4   0   17.55    8.90
 -10  -4   0    6.84    8.24
 -10  -4  -1  127.24    9.29
  11   1  -8   -1.03    2.99
  11   1  -8   -2.85    7.62
  11   1  -7   57.59    4.88
  11   1  -7   74.88    8.17
  11   1  -6  133.33    6.25
  11   1  -6  184.07    8.04
  11   1  -5  678.15   12.35
 -11  -1   4  478.07   11.55
  11   1  -4  487.91   10.43
 -11  -1   3  223.40    8.66
  11   1  -3  269.70    9.02
  11  -1  -2  682.27   13.60
 -11  -1   2  697.64   12.12
  11   1  -2  680.50   11.41
  11   1  -1   37.44    5.45
  11  -1  -1   33.69    7.02
  11   1  -1   30.69    6.07
  11  -1  -1   46.84    4.95
 -11  -1   1   38.28    6.31
  11   1  -1   29.21    5.80
  11   1   0 1517.34   17.00
  11   1   0 1365.68   15.74
  11  -1   0 1452.61   17.34
 -11  -1   0 1495.86   17.70
  11   1   0 1371.81   15.46
  11   1   1   21.33    6.01
  11  -1   1   25.57    7.85
  11   1   1   15.23    5.89
  11   1   1   21.39    5.74
  11  -1   1   11.11    6.41
 -11  -1  -1   12.93    6.19
  11   1   2  515.00   11.87
  11   1   2  463.27   10.89
  11  -1   2  465.98   10.81
 -11  -1  -2  491.77   12.05
  11  -1   2  520.15   12.59
  11   1   2  485.05   10.95
  11   1   3  560.36   12.36
  11  -1   3  536.90   12.11
 -11  -1  -3  608.14   13.51
  11  -1   3  592.98   14.44
  11   1   3  503.76   11.95
  11   1   4  178.81    9.47
  11  -1   4  153.67    8.88
 -11  -1  -4  150.61    9.17
  11   1   4  164.70    9.71
  11  -1   5   -5.00    8.91
  11   1   5    5.84    7.68
  11   1   5    1.18    7.53
 -11  -1  -5   -4.08    7.60
 -11  -1  -6   20.43    8.53
 -11  -3   6   64.39    9.39
  11   3  -6   72.34    9.92
 -11  -3   5  326.86   13.38
  11   3  -5  346.36   12.29
 -11  -3   4  290.61   12.25
  11   3  -4  265.16   11.87
 -11  -3   3   60.84    8.43
  11   3  -3   59.58    8.78
 -11  -3   2  233.52   10.45
  11   3  -2  295.02   11.30
  11   3  -1   32.72    7.92
 -11  -3   1   22.67    8.13
  11  -3   0  700.72   14.49
 -11  -3   0  677.99   14.70
  11   3   0  715.70   15.25
  11   3   1    5.03    7.79
  11  -3   1   -2.64    6.97
 -11  -3  -1   12.87    7.40
  11  -3   2  249.63    9.66
 -11  -3  -2  242.94   10.73
  11   3   2  266.02   11.80
  11  -3   3  295.22   10.82
 -11  -3  -3  304.75   11.87
  11   3   3  319.49   13.32
  11   3   4   62.31    9.44
  12   0  -8  339.41    9.29
  12   0  -7   51.42    6.93
  12   0  -6  108.30    6.78
  12   0  -5  156.87    6.76
  12   0  -4  416.17    8.66
  12   0  -3  989.79   12.10
  12   0  -2   19.95    5.60
  12   0  -2   16.62    6.93
  12   0  -1  853.32   14.66
  12   0  -1  861.39   12.47
  12   0   0  149.09    7.97
  12   0   0  172.83    7.44
  12   0   1  455.07   11.37
  12   0   1  422.90   10.24
  12   0   2   29.25    6.83
  12   0   2   32.22    7.02
  12   0   3  111.40    8.38
  12   0   3  105.75    8.47
  12   0   4  290.22   11.41
  12   0   4  352.90   12.68
  12   0   5   55.17    9.73
  12   2  -6   75.07    8.59
 -12  -2   5   82.87    8.90
  12   2  -5  102.54    9.15
 -12  -2   4  321.07   11.78
  12   2  -4  318.15   11.02
 -12  -2   3  814.00   15.31
  12   2  -3  824.07   15.85
  12   2  -2   11.09    7.08
 -12  -2   2   14.59    6.84
  12  -2  -1  559.34   12.85
  12   2  -1  574.50   13.05
 -12  -2   1  570.76   13.96
  12  -2   0  133.22    8.98
  12   2   0  120.83    8.56
 -12  -2   0  110.30    8.59
  12   2   0  116.11    8.23
  12   2   1  325.87   10.54
  12  -2   1  289.26   10.11
 -12  -2  -1  330.54   11.35
  12   2   1  286.69   10.69
  12   2   2    9.26    7.35
  12   2   2   18.53    7.52
  12  -2   2   20.38    6.64
 -12  -2  -2   12.22    7.95
  12   2   3   79.01    8.46
  12  -2   3   78.85    7.89
 -12  -2  -3   86.80    9.26
  12  -2   3   86.25    9.52
  12   2   3   81.28    8.65
  12   2   4  228.00   12.00
 -12  -2  -4  214.15   11.02
  12  -2   4  247.94   14.43
  12   2   4  213.22   11.01
  12   4  -1  225.83   12.40
  12   4   0   45.63    9.78
  13   1  -7  153.96    8.99
  13   1  -6  152.73    8.74
  13   1  -5   76.30    3.97
  13   1  -5   92.62    4.11
  13   1  -4   85.14    5.20
  13   1  -4  124.95    7.62
  13   1  -3   58.28    5.82
  13   1  -3   38.25    6.50
  13   1  -2 1097.97   14.04
  13   1  -2 1085.30   15.08
  13   1  -1   25.41    5.82
  13   1  -1   18.78    6.24
  13  -1  -1   29.44    7.36
  13   1  -1    6.73    6.66
  13  -1  -1   26.63    3.74
  13   1   0  389.33   10.39
  13   1   0  399.62   12.07
  13  -1   0  372.19   11.93
  13   1   1  434.43   11.24
  13   1   1  391.34   11.50
  13  -1   1  371.37   10.92
 -13  -1  -1  426.04   12.01
  13   1   1  401.31   10.95
  13   1   2  141.90    8.68
  13   1   2  158.31    9.33
  13  -1   2  146.64    9.20
 -13  -1  -2  157.45    9.56
  13   1   2  140.89    8.66
  13  -1   3    7.14    9.89
  13   1   3   -5.76    7.44
  13   1   3   10.14    7.31
 -13  -1  -3   21.49    7.96
  13  -1   4   27.60   10.20
  13   1   4   22.76    7.92
 -13  -1  -4   26.82    8.52
 -13  -3   5   30.50    9.22
 -13  -3   4   46.20    9.07
  13   3  -3   47.43    9.44
 -13  -3   3    7.10    8.41
 -13  -3   2  624.56   16.28
  13   3  -2  580.10   15.18
  13   3  -1   29.41    8.31
 -13  -3   1   20.71    8.47
 -13  -3   0  205.62   11.41
  13   3   0  192.99   11.23
 -13  -3  -1  172.03   10.59
  13   3   1  184.05   10.91
  14   0  -6  180.37    7.66
  14   0  -5  599.73   11.22
  14   0  -4   28.74    6.83
  14   0  -3  339.31    9.78
  14   0  -2   79.72    7.12
  14   0  -1  638.35   14.51
  14   0  -1  663.26   12.61
  14   0   0   -0.79    6.82
  14   0   0    6.57    7.95
  14   0   1   68.61    8.21
  14   0   1  115.42    8.64
  14   0   2  471.43   13.74
  14   0   2  440.36   12.82
  14   0   3   56.89    9.08
  14   2  -6   80.00    7.65
  14   2  -4    6.50    8.06
  14   2  -3  171.16    9.01
  14   2  -3  193.12    9.99
  14   2  -2   42.44    7.82
  14  -2  -1  426.33   12.99
 -14  -2   1  390.37   13.55
  14   2  -1  385.38   12.12
  14   2   0   -4.66    7.48
  14   2   0   -9.22    8.82
 -14  -2   0   -6.60    8.46
 -14  -2  -1   67.16    9.35
  14   2   1   59.98    8.92
 -14  -2  -2  315.37   12.75
  15   1  -5   33.94    7.13
  15   1  -4  415.23   11.25
  15   1  -3    1.30    1.49
  15   1  -3   17.63    6.80
  15   1  -2  121.77    5.29
  15   1  -2  132.87    8.49
  15   1  -1  101.06    6.71
  15   1  -1  133.74   10.47
  15   1  -1  128.05    8.69
  15   1   0  370.74   10.02
  15   1   0  387.23   11.32
  15   1   1   23.32    6.92
  15   1   1   28.84    7.60
  15   1   2  100.01    8.52
  15  -1   2  140.01   12.36
  15   1   3  433.37   13.28
  16   0  -3  274.89   10.15
  16   0  -2   -2.13    8.25
  16   0  -1   63.67    8.70
  16   0   0  210.54   10.93
  16   2  -1   34.36    6.47

TITL rb2ti2o5_2 in C2/m
REM C2/m (#12 in standard setting)
CELL 0.71073  11.341937   3.819750   7.010300  90.0000 100.2977  90.0000
ZERR    2.00   0.001198   0.000512   0.000794   0.0000   0.0114   0.0000
LATT  7
SYMM -x, y,-z
SFAC O Ti Rb
UNIT 10.00 4.00 4.00
TREF
HKLF 4
END
_computing_structure_solution     'SHELXT 2014/4 (Sheldrick, 2014)'
;
_shelx_hkl_checksum              77639
_shelx_shelxl_version_number     2014/7
_olex2_submission_special_instructions 'No special instructions were received'
loop_
_space_group_symop_operation_xyz
'x, y, z'
'-x, y, -z'
'x+1/2, y+1/2, z'
'-x+1/2, y+1/2, -z'
'-x, -y, -z'
'x, -y, z'
'-x+1/2, -y+1/2, -z'
'x+1/2, -y+1/2, z'
loop_
_atom_site_label
_atom_site_type_symbol
_atom_site_fract_x
_atom_site_fract_y
_atom_site_fract_z
_atom_site_U_iso_or_equiv
_atom_site_adp_type
_atom_site_occupancy
_atom_site_site_symmetry_order
_atom_site_calc_flag
_atom_site_refinement_flags_posn
_atom_site_refinement_flags_adp
_atom_site_refinement_flags_occupancy
Rb1 Rb 0.09888(5) 0.5000 0.84866(7) 0.0267(2) Uani 1 2 d S T P
Ti1 Ti 0.35256(6) 0.5000 0.58837(11) 0.0126(2) Uani 1 2 d S T P
O3 O 0.1780(3) 0.5000 0.4786(5) 0.0174(7) Uani 1 2 d S T P
O1 O 0.5000 0.5000 0.5000 0.0245(11) Uani 1 4 d S T P
O2 O 0.3763(4) 0.5000 0.8355(5) 0.0257(8) Uani 1 2 d S T P
loop_
_atom_site_aniso_label
_atom_site_aniso_U_11
_atom_site_aniso_U_22
_atom_site_aniso_U_33
_atom_site_aniso_U_23
_atom_site_aniso_U_13
_atom_site_aniso_U_12
Rb1 0.0252(3) 0.0277(3) 0.0287(3) 0.000 0.00887(19) 0.000
Ti1 0.0058(3) 0.0126(4) 0.0192(4) 0.000 0.0016(2) 0.000
O3 0.0055(12) 0.0136(15) 0.0318(17) 0.000 0.0002(11) 0.000
O1 0.010(2) 0.019(3) 0.048(3) 0.000 0.015(2) 0.000
O2 0.0295(19) 0.024(2) 0.0219(16) 0.000 -0.0005(14) 0.000
loop_
_atom_type_symbol
_atom_type_description
_atom_type_scat_dispersion_real
_atom_type_scat_dispersion_imag
_atom_type_scat_source
O O 0.0106 0.0060 'International Tables Vol C Tables 4.2.6.8 and 6.1.1.4'
Ti Ti 0.2776 0.4457 'International Tables Vol C Tables 4.2.6.8 and 6.1.1.4'
Rb Rb -0.9393 2.9676 'International Tables Vol C Tables 4.2.6.8 and 6.1.1.4'
loop_
_geom_angle_atom_site_label_1
_geom_angle_atom_site_label_2
_geom_angle_atom_site_label_3
_geom_angle
_geom_angle_site_symmetry_1
_geom_angle_site_symmetry_3
Rb1 Rb1 Ti1 76.96(2) 5_567 3_455
Rb1 Rb1 Ti1 76.96(2) 5_567 3_445
Rb1 Rb1 O3 78.10(6) 5_567 5_566
Ti1 Rb1 Ti1 64.082(19) 3_445 3_455
O3 Rb1 Rb1 156.59(7) . 5_567
O3 Rb1 Ti1 32.216(11) 5_566 3_455
O3 Rb1 Ti1 83.25(5) . 3_445
O3 Rb1 Ti1 32.216(11) 5_566 3_445
O3 Rb1 Ti1 83.25(5) . 3_455
O3 Rb1 O3 78.49(9) . 5_566
O3 Rb1 O1 55.10(4) . 3_445
O3 Rb1 O1 55.10(4) . 3_455
O3 Rb1 O2 60.29(9) . .
O3 Rb1 O2 110.41(8) . 3_455
O3 Rb1 O2 110.41(8) . 3_445
O3 Rb1 O2 132.96(7) . 7_557
O3 Rb1 O2 132.96(7) . 7_567
O1 Rb1 Rb1 107.81(2) 3_445 5_567
O1 Rb1 Rb1 107.81(2) 3_455 5_567
O1 Rb1 Ti1 77.979(18) 3_455 3_445
O1 Rb1 Ti1 31.533(13) 3_455 3_455
O1 Rb1 Ti1 31.533(13) 3_445 3_445
O1 Rb1 Ti1 77.979(18) 3_445 3_455
O1 Rb1 O3 49.10(4) 3_455 5_566
O1 Rb1 O3 49.10(4) 3_445 5_566
O1 Rb1 O1 74.748(15) 3_445 3_455
O1 Rb1 O2 99.93(6) 3_455 3_445
O1 Rb1 O2 99.93(6) 3_445 3_455
O1 Rb1 O2 55.76(6) 3_445 3_445
O1 Rb1 O2 55.76(6) 3_455 3_455
O1 Rb1 O2 101.28(5) 3_445 .
O1 Rb1 O2 101.28(5) 3_455 .
O2 Rb1 Rb1 60.09(7) 7_557 5_567
O2 Rb1 Rb1 52.82(6) 3_455 5_567
O2 Rb1 Rb1 143.12(7) . 5_567
O2 Rb1 Rb1 52.82(6) 3_445 5_567
O2 Rb1 Rb1 60.09(7) 7_567 5_567
O2 Rb1 Ti1 76.22(5) 3_455 3_445
O2 Rb1 Ti1 28.27(7) 3_445 3_445
O2 Rb1 Ti1 89.91(6) 7_557 3_445
O2 Rb1 Ti1 28.27(7) 3_455 3_455
O2 Rb1 Ti1 134.21(8) 7_567 3_445
O2 Rb1 Ti1 76.22(5) 3_445 3_455
O2 Rb1 Ti1 132.13(5) . 3_455
O2 Rb1 Ti1 132.13(5) . 3_445
O2 Rb1 Ti1 134.21(8) 7_557 3_455
O2 Rb1 Ti1 89.91(6) 7_567 3_455
O2 Rb1 O3 50.85(7) 3_445 5_566
O2 Rb1 O3 50.85(7) 3_455 5_566
O2 Rb1 O3 116.65(8) 7_567 5_566
O2 Rb1 O3 138.77(9) . 5_566
O2 Rb1 O3 116.65(8) 7_557 5_566
O2 Rb1 O1 99.55(5) 7_567 3_455
O2 Rb1 O1 164.93(8) 7_567 3_445
O2 Rb1 O1 99.55(5) 7_557 3_445
O2 Rb1 O1 164.93(8) 7_557 3_455
O2 Rb1 O2 142.58(5) 3_455 .
O2 Rb1 O2 112.91(5) 7_567 3_445
O2 Rb1 O2 93.49(9) 7_557 .
O2 Rb1 O2 65.89(12) 7_557 3_445
O2 Rb1 O2 74.53(9) 3_445 3_455
O2 Rb1 O2 65.89(12) 7_567 3_455
O2 Rb1 O2 142.58(5) 3_445 .
O2 Rb1 O2 112.91(5) 7_557 3_455
O2 Rb1 O2 82.40(10) 7_567 7_557
O2 Rb1 O2 93.49(9) 7_567 .
Rb1 Ti1 Rb1 61.529(17) 7_556 7_566
Rb1 Ti1 Rb1 118.19(2) 3_545 7_566
Rb1 Ti1 Rb1 130.644(18) . 7_566
Rb1 Ti1 Rb1 85.962(18) 3 7_566
Rb1 Ti1 Rb1 85.962(18) 3_545 7_556
Rb1 Ti1 Rb1 64.082(19) 3 3_545
Rb1 Ti1 Rb1 130.644(18) . 7_556
Rb1 Ti1 Rb1 110.74(2) 3 .
Rb1 Ti1 Rb1 118.19(2) 3 7_556
Rb1 Ti1 Rb1 110.74(2) 3_545 .
Ti1 Ti1 Rb1 109.602(15) 7_556 3_545
Ti1 Ti1 Rb1 101.41(3) 7_566 7_556
Ti1 Ti1 Rb1 64.29(2) 7_556 7_556
Ti1 Ti1 Rb1 109.602(15) 7_566 3
Ti1 Ti1 Rb1 64.29(2) 7_566 7_566
Ti1 Ti1 Rb1 66.36(3) 7_556 .
Ti1 Ti1 Rb1 172.20(3) 7_556 3
Ti1 Ti1 Rb1 66.36(3) 7_566 .
Ti1 Ti1 Rb1 101.41(3) 7_556 7_566
Ti1 Ti1 Rb1 172.20(3) 7_566 3_545
Ti1 Ti1 Ti1 76.28(4) 7_556 7_566
O3 Ti1 Rb1 88.00(9) . 7_566
O3 Ti1 Rb1 135.90(9) 7_566 3_545
O3 Ti1 Rb1 89.90(10) 7_556 .
O3 Ti1 Rb1 50.07(10) 7_556 7_556
O3 Ti1 Rb1 135.90(9) 7_556 3
O3 Ti1 Rb1 72.29(9) 7_566 3
O3 Ti1 Rb1 50.07(10) 7_566 7_566
O3 Ti1 Rb1 89.90(10) 7_566 .
O3 Ti1 Rb1 88.00(9) . 7_556
O3 Ti1 Rb1 145.45(4) . 3_545
O3 Ti1 Rb1 51.62(10) . .
O3 Ti1 Rb1 110.10(11) 7_566 7_556
O3 Ti1 Rb1 145.45(4) . 3
O3 Ti1 Rb1 110.10(11) 7_556 7_566
O3 Ti1 Rb1 72.29(9) 7_556 3_545
O3 Ti1 Ti1 114.39(9) 7_566 7_556
O3 Ti1 Ti1 38.80(3) . 7_556
O3 Ti1 Ti1 114.39(9) 7_556 7_566
O3 Ti1 Ti1 38.80(3) . 7_566
O3 Ti1 Ti1 39.02(8) 7_556 7_556
O3 Ti1 Ti1 39.02(9) 7_566 7_566
O3 Ti1 O3 77.81(9) 7_556 .
O3 Ti1 O3 77.81(9) 7_566 .
O3 Ti1 O3 148.91(19) 7_556 7_566
O1 Ti1 Rb1 169.61(4) . .
O1 Ti1 Rb1 60.84(2) . 3_545
O1 Ti1 Rb1 57.35(2) . 7_566
O1 Ti1 Rb1 57.35(2) . 7_556
O1 Ti1 Rb1 60.84(2) . 3
O1 Ti1 Ti1 121.10(4) . 7_566
O1 Ti1 Ti1 121.10(4) . 7_556
O1 Ti1 O3 92.87(10) . 7_556
O1 Ti1 O3 138.78(11) . .
O1 Ti1 O3 92.87(10) . 7_566
O2 Ti1 Rb1 61.18(11) . 3
O2 Ti1 Rb1 144.50(7) . 7_566
O2 Ti1 Rb1 61.18(11) . 3_545
O2 Ti1 Rb1 59.36(14) . .
O2 Ti1 Rb1 144.50(7) . 7_556
O2 Ti1 Ti1 112.19(11) . 7_556
O2 Ti1 Ti1 112.19(11) . 7_566
O2 Ti1 O3 103.28(11) . 7_556
O2 Ti1 O3 110.97(17) . .
O2 Ti1 O3 103.28(11) . 7_566
O2 Ti1 O1 110.25(14) . .
Rb1 O3 Rb1 101.51(9) . 5_566
Ti1 O3 Rb1 98.23(11) 7_556 .
Ti1 O3 Rb1 75.49(9) 7_556 5_566
Ti1 O3 Rb1 75.49(9) 7_566 5_566
Ti1 O3 Rb1 98.23(11) 7_566 .
Ti1 O3 Rb1 162.77(16) . 5_566
Ti1 O3 Rb1 95.72(13) . .
Ti1 O3 Ti1 102.19(9) 7_566 .
Ti1 O3 Ti1 148.91(19) 7_556 7_566
Ti1 O3 Ti1 102.19(9) 7_556 .
Rb1 O1 Rb1 180.000(13) 7_556 3
Rb1 O1 Rb1 105.253(15) 3 7_566
Rb1 O1 Rb1 105.253(15) 7_556 3_545
Rb1 O1 Rb1 180.0 3_545 7_566
Rb1 O1 Rb1 74.747(15) 3 3_545
Rb1 O1 Rb1 74.747(15) 7_556 7_566
Ti1 O1 Rb1 92.37(2) . 7_556
Ti1 O1 Rb1 92.37(2) 5_666 3_545
Ti1 O1 Rb1 87.63(2) 5_666 7_556
Ti1 O1 Rb1 92.37(2) . 7_566
Ti1 O1 Rb1 92.37(2) 5_666 3
Ti1 O1 Rb1 87.63(2) . 3
Ti1 O1 Rb1 87.63(2) 5_666 7_566
Ti1 O1 Rb1 87.63(2) . 3_545
Ti1 O1 Ti1 180.0 5_666 .
Rb1 O2 Rb1 67.09(5) 7_567 3
Rb1 O2 Rb1 142.57(5) 3_545 .
Rb1 O2 Rb1 114.11(12) 7_567 3_545
Rb1 O2 Rb1 74.53(9) 3 3_545
Rb1 O2 Rb1 86.51(9) 7_557 .
Rb1 O2 Rb1 114.11(12) 7_557 3
Rb1 O2 Rb1 142.57(5) 3 .
Rb1 O2 Rb1 82.40(9) 7_567 7_557
Rb1 O2 Rb1 67.09(5) 7_557 3_545
Rb1 O2 Rb1 86.51(9) 7_567 .
Ti1 O2 Rb1 93.02(15) . .
Ti1 O2 Rb1 138.77(5) . 7_557
Ti1 O2 Rb1 90.56(13) . 3_545
Ti1 O2 Rb1 90.56(13) . 3
Ti1 O2 Rb1 138.77(5) . 7_567
loop_
_geom_bond_atom_site_label_1
_geom_bond_atom_site_label_2
_geom_bond_distance
_geom_bond_site_symmetry_2
Rb1 Rb1 3.3518(10) 5_567
Rb1 Ti1 3.6000(9) 3_445
Rb1 Ti1 3.6000(9) 3_455
Rb1 O3 2.893(4) .
Rb1 O3 3.542(3) 5_566
Rb1 O1 3.1464(5) 3_455
Rb1 O1 3.1464(5) 3_445
Rb1 O2 3.154(3) 3_445
Rb1 O2 2.899(3) 7_567
Rb1 O2 3.164(4) .
Rb1 O2 2.899(3) 7_557
Rb1 O2 3.154(3) 3_455
Ti1 Rb1 3.6000(9) 3
Ti1 Rb1 3.7338(9) 7_556
Ti1 Rb1 3.7338(9) 7_566
Ti1 Rb1 3.6000(9) 3_545
Ti1 Ti1 3.0926(12) 7_566
Ti1 Ti1 3.0926(12) 7_556
Ti1 O3 1.9824(9) 7_556
Ti1 O3 1.992(3) .
Ti1 O3 1.9824(9) 7_566
Ti1 O1 1.8844(8) .
Ti1 O2 1.705(4) .
O3 Rb1 3.542(3) 5_566
O3 Ti1 1.9824(9) 7_566
O3 Ti1 1.9824(9) 7_556
O1 Rb1 3.1464(5) 3
O1 Rb1 3.1464(5) 7_566
O1 Rb1 3.1464(5) 3_545
O1 Rb1 3.1464(5) 7_556
O1 Ti1 1.8844(7) 5_666
O2 Rb1 3.154(3) 3_545
O2 Rb1 2.899(3) 7_557
O2 Rb1 3.154(3) 3
O2 Rb1 2.899(3) 7_567
loop_
_geom_torsion_atom_site_label_1
_geom_torsion_atom_site_label_2
_geom_torsion_atom_site_label_3
_geom_torsion_atom_site_label_4
_geom_torsion
_geom_torsion_site_symmetry_1
_geom_torsion_site_symmetry_4
Rb1 Ti1 O1 Rb1 180.0 3 7_556
Rb1 Ti1 O1 Rb1 -105.178(16) 7_556 3_545
Rb1 Ti1 O1 Rb1 -142.589(8) . 7_566
Rb1 Ti1 O1 Rb1 -74.822(16) 3_545 3
Rb1 Ti1 O1 Rb1 142.589(8) . 7_556
Rb1 Ti1 O1 Rb1 180.0 7_556 3
Rb1 Ti1 O1 Rb1 105.178(16) 3_545 7_556
Rb1 Ti1 O1 Rb1 37.411(8) . 3_545
Rb1 Ti1 O1 Rb1 180.0 7_566 3_545
Rb1 Ti1 O1 Rb1 -37.411(8) . 3
Rb1 Ti1 O1 Rb1 -105.178(16) 3 7_566
Rb1 Ti1 O1 Rb1 180.0 3_545 7_566
Rb1 Ti1 O1 Rb1 105.178(16) 7_566 3
Rb1 Ti1 O1 Rb1 -74.822(16) 7_566 7_556
Rb1 Ti1 O1 Rb1 74.822(16) 3 3_545
Rb1 Ti1 O1 Rb1 74.822(16) 7_556 7_566
Rb1 Ti1 O2 Rb1 118.24(17) 7_566 .
Rb1 Ti1 O2 Rb1 30.1(4) 7_566 7_567
Rb1 Ti1 O2 Rb1 -99.03(13) 7_566 3_545
Rb1 Ti1 O2 Rb1 153.60(11) 7_556 7_567
Rb1 Ti1 O2 Rb1 129.1(3) 3_545 7_567
Rb1 Ti1 O2 Rb1 -54.6(2) 3_545 7_557
Rb1 Ti1 O2 Rb1 74.54(9) 3_545 3
Rb1 Ti1 O2 Rb1 88.2(3) . 7_557
Rb1 Ti1 O2 Rb1 -74.54(9) 3 3_545
Rb1 Ti1 O2 Rb1 -142.73(5) 3_545 .
Rb1 Ti1 O2 Rb1 24.5(2) 7_556 3_545
Rb1 Ti1 O2 Rb1 -24.5(2) 7_566 3
Rb1 Ti1 O2 Rb1 142.73(5) 3 .
Rb1 Ti1 O2 Rb1 54.6(2) 3 7_567
Rb1 Ti1 O2 Rb1 -118.24(17) 7_556 .
Rb1 Ti1 O2 Rb1 99.03(13) 7_556 3
Rb1 Ti1 O2 Rb1 -142.73(5) . 3
Rb1 Ti1 O2 Rb1 142.73(5) . 3_545
Rb1 Ti1 O2 Rb1 -129.1(3) 3 7_557
Rb1 Ti1 O2 Rb1 -153.60(11) 7_566 7_557
Rb1 Ti1 O2 Rb1 -88.2(3) . 7_567
Rb1 Ti1 O2 Rb1 -30.1(4) 7_556 7_557
Ti1 Ti1 O1 Rb1 83.57(4) 7_556 7_566
Ti1 Ti1 O1 Rb1 -83.57(4) 7_566 7_556
Ti1 Ti1 O1 Rb1 96.43(4) 7_566 3
Ti1 Ti1 O1 Rb1 -96.43(4) 7_556 3_545
Ti1 Ti1 O1 Rb1 171.26(4) 7_566 3_545
Ti1 Ti1 O1 Rb1 -8.74(4) 7_566 7_566
Ti1 Ti1 O1 Rb1 -171.26(4) 7_556 3
Ti1 Ti1 O1 Rb1 8.74(4) 7_556 7_556
Ti1 Ti1 O2 Rb1 175.43(3) 7_556 3
Ti1 Ti1 O2 Rb1 -100.90(9) 7_566 3
Ti1 Ti1 O2 Rb1 130.0(2) 7_566 7_557
Ti1 Ti1 O2 Rb1 41.83(5) 7_566 .
Ti1 Ti1 O2 Rb1 -175.43(3) 7_566 3_545
Ti1 Ti1 O2 Rb1 100.90(9) 7_556 3_545
Ti1 Ti1 O2 Rb1 -41.83(5) 7_556 .
Ti1 Ti1 O2 Rb1 46.3(3) 7_556 7_557
Ti1 Ti1 O2 Rb1 -130.0(2) 7_556 7_567
Ti1 Ti1 O2 Rb1 -46.3(3) 7_566 7_567
O3 Ti1 O1 Rb1 37.411(8) . 7_566
O3 Ti1 O1 Rb1 -142.69(10) 7_556 3
O3 Ti1 O1 Rb1 -142.589(8) . 3_545
O3 Ti1 O1 Rb1 37.31(10) 7_556 7_556
O3 Ti1 O1 Rb1 142.589(8) . 3
O3 Ti1 O1 Rb1 -37.411(8) . 7_556
O3 Ti1 O1 Rb1 -37.31(10) 7_566 7_566
O3 Ti1 O1 Rb1 142.69(10) 7_566 3_545
O3 Ti1 O1 Rb1 112.13(10) 7_556 7_566
O3 Ti1 O1 Rb1 67.87(10) 7_566 3
O3 Ti1 O1 Rb1 -67.87(10) 7_556 3_545
O3 Ti1 O1 Rb1 -112.13(10) 7_566 7_556
O3 Ti1 O2 Rb1 142.73(5) . 3_545
O3 Ti1 O2 Rb1 -135.42(10) 7_566 3_545
O3 Ti1 O2 Rb1 0.000(0) . .
O3 Ti1 O2 Rb1 -142.73(5) . 3
O3 Ti1 O2 Rb1 81.85(10) 7_566 .
O3 Ti1 O2 Rb1 -170.0(3) 7_556 7_567
O3 Ti1 O2 Rb1 -88.2(3) . 7_567
O3 Ti1 O2 Rb1 -6.3(3) 7_566 7_567
O3 Ti1 O2 Rb1 60.88(13) 7_556 3_545
O3 Ti1 O2 Rb1 170.0(3) 7_566 7_557
O3 Ti1 O2 Rb1 88.2(3) . 7_557
O3 Ti1 O2 Rb1 6.3(3) 7_556 7_557
O3 Ti1 O2 Rb1 -81.85(10) 7_556 .
O3 Ti1 O2 Rb1 -60.88(13) 7_566 3
O3 Ti1 O2 Rb1 135.42(10) 7_556 3
O1 Ti1 O2 Rb1 -37.27(5) . 3_545
O1 Ti1 O2 Rb1 180.000(0) . .
O1 Ti1 O2 Rb1 37.27(5) . 3
O1 Ti1 O2 Rb1 91.8(3) . 7_567
O1 Ti1 O2 Rb1 -91.8(3) . 7_557
O2 Ti1 O1 Rb1 -142.589(8) . 7_566
O2 Ti1 O1 Rb1 37.411(8) . 3_545
O2 Ti1 O1 Rb1 -37.411(8) . 3
O2 Ti1 O1 Rb1 142.589(8) . 7_556
