#------------------------------------------------------------------------------
#$Date: 2018-02-28 09:17:11 +0200 (Wed, 28 Feb 2018) $
#$Revision: 206689 $
#$URL: file:///home/coder/svn-repositories/cod/cif/2/02/10/2021041.cif $
#------------------------------------------------------------------------------
#
# This file is available in the Crystallography Open Database (COD),
# http://www.crystallography.net/. The original data for this entry
# were provided by IUCr Journals, http://journals.iucr.org/.
#
# The file may be used within the scientific community so long as
# proper attribution is given to the journal article from which the
# data were obtained.
#
data_2021041
loop_
_publ_author_name
'Pavlyuk, Volodymyr'
'Kulawik, Damian'
'Ciesielski, Wojciech'
'Pavlyuk, Nazar'
'Dmytriv, Grygoriy'
_publ_section_title
;
 New quaternary carbide Mg~1.52~Li~0.24~Al~0.24~C~0.86~ as a disorder
 derivative of the family of hexagonal close-packed (hcp) structures and
 the effect of structure modification on the electrochemical behaviour of
 the electrode
;
_journal_coeditor_code           KU3217
_journal_issue                   3
_journal_name_full               'Acta Crystallographica Section C'
_journal_page_first
;
;
_journal_paper_doi               10.1107/S2053229618002851
_journal_volume                  74
_journal_year                    2018
_chemical_formula_iupac          'Mg1.52 Li0.24 Al0.24 C0.86'
_chemical_formula_moiety         '0.86(C), 1.52(Mg), 0.24(Al), 0.24(Li)'
_chemical_formula_sum            'C0.86 Al0.24 Li0.24 Mg1.52'
_chemical_formula_weight         55.42
_chemical_name_systematic
;
Dimagnesium lithium aluminium carbide
;
_space_group_crystal_system      hexagonal
_space_group_IT_number           187
_space_group_name_Hall           'P -6 2'
_space_group_name_H-M_alt        'P -6 m 2'
_symmetry_space_group_name_Hall  'P -6 2'
_symmetry_space_group_name_H-M   'P -6 m 2'
_audit_creation_method           SHELXL-2014/7
_cell_angle_alpha                90
_cell_angle_beta                 90
_cell_angle_gamma                120
_cell_formula_units_Z            1
_cell_length_a                   3.1970(5)
_cell_length_b                   3.1970(5)
_cell_length_c                   5.1943(10)
_cell_measurement_reflns_used    75
_cell_measurement_temperature    293(2)
_cell_measurement_theta_max      29.723
_cell_measurement_theta_min      3.923
_cell_volume                     45.977(13)
_computing_cell_refinement
;
CrysAlis CCD (Oxford Diffraction, 2008)
;
_computing_data_collection
;
CrysAlis CCD (Oxford Diffraction, 2008)
;
_computing_data_reduction
;
CrysAlis RED (Oxford Diffraction, 2008)
;
_computing_molecular_graphics
;
DIAMOND (Brandenburg, 2006)
;
_computing_publication_material
;
SHELXL2014 (Sheldrick, 2015)
;
_computing_structure_refinement
;
SHELXL2014 (Sheldrick, 2015)
;
_computing_structure_solution
;
WinCSD (Akselrud & Grin, 2014)
;
_diffrn_ambient_temperature      293(2)
_diffrn_measured_fraction_theta_full 1.000
_diffrn_measured_fraction_theta_max 0.979
_diffrn_measurement_device_type  'Oxford Diffraction Xcalibur3 CCD'
_diffrn_measurement_method       '\w scans'
_diffrn_radiation_type           MoK\a
_diffrn_radiation_wavelength     0.71073
_diffrn_reflns_av_R_equivalents  0.0277
_diffrn_reflns_limit_h_max       4
_diffrn_reflns_limit_h_min       -4
_diffrn_reflns_limit_k_max       4
_diffrn_reflns_limit_k_min       -4
_diffrn_reflns_limit_l_max       7
_diffrn_reflns_limit_l_min       -7
_diffrn_reflns_number            1654
_diffrn_reflns_theta_full        25.242
_diffrn_reflns_theta_max         29.723
_diffrn_reflns_theta_min         3.923
_exptl_absorpt_coefficient_mu    0.688
_exptl_absorpt_correction_T_max  0.992
_exptl_absorpt_correction_T_min  0.985
_exptl_absorpt_correction_type   analytical
_exptl_absorpt_process_details
;
(CrysAlis RED; Oxford Diffraction, 2008)
;
_exptl_crystal_colour            'metallic grey'
_exptl_crystal_density_diffrn    2.002
_exptl_crystal_description       plate
_exptl_crystal_F_000             27.2
_exptl_crystal_size_max          0.04
_exptl_crystal_size_mid          0.02
_exptl_crystal_size_min          0.01
_refine_diff_density_max         0.181
_refine_diff_density_min         -0.205
_refine_ls_abs_structure_details
;
Refined as an inversion twin
;
_refine_ls_abs_structure_Flack   0(10)
_refine_ls_extinction_method     none
_refine_ls_goodness_of_fit_ref   1.370
_refine_ls_matrix_type           full
_refine_ls_number_parameters     9
_refine_ls_number_reflns         75
_refine_ls_number_restraints     0
_refine_ls_restrained_S_all      1.370
_refine_ls_R_factor_all          0.0365
_refine_ls_R_factor_gt           0.0327
_refine_ls_shift/su_max          0.001
_refine_ls_shift/su_mean         0.000
_refine_ls_structure_factor_coef Fsqd
_refine_ls_weighting_details
'w=1/[\s^2^(Fo^2^)+(0.0125P)^2^+0.0327P] where P=(Fo^2^+2Fc^2^)/3'
_refine_ls_weighting_scheme      calc
_refine_ls_wR_factor_gt          0.0762
_refine_ls_wR_factor_ref         0.0769
_reflns_number_gt                65
_reflns_number_total             75
_reflns_threshold_expression     'I > 2\s(I)'
_cod_data_source_file            ku3217sup1.cif
_cod_data_source_block           I
_cod_original_cell_volume        45.977(17)
_cod_database_code               2021041
_shelx_space_group_comment
;
The symmetry employed for this shelxl refinement is uniquely defined
by the following loop, which should always be used as a source of
symmetry information in preference to the above space-group names.
They are only intended as comments.
;
_shelx_hkl_file
;
  -4   1  -2   10.06    1.97   0
  -4   1  -2   11.16    2.01   0
  -4   1  -2    9.97    1.89   0
  -4   1  -2    9.84    1.87   0
  -4   1  -1   23.01    2.54   0
  -4   1  -1   24.42    2.62   0
  -4   1  -1   24.79    2.77   0
  -4   1  -1   24.41    2.59   0
  -4   1   0    0.93    2.17   0
  -4   1   0    1.35    2.08   0
  -4   1   0    1.34    2.09   0
  -4   1   0    1.75    1.98   0
  -4   2  -2    8.79    2.52   0
  -4   2  -2    8.30    2.34   0
  -4   2  -2    8.77    2.53   0
  -4   2  -2    9.04    2.67   0
  -4   2  -1   -0.14    2.01   0
  -4   2  -1   -0.10    2.22   0
  -4   2  -1    0.02    2.01   0
  -4   2  -1   -0.10    2.00   0
  -4   2   0   37.04    4.20   0
  -4   2   0   36.28    4.15   0
  -4   2   0   39.91    4.37   0
  -4   2   0   38.71    4.30   0
  -4   2   1    0.14    2.00   0
  -4   2   1    0.10    2.03   0
  -4   2   1   -0.13    2.11   0
  -4   2   1    0.13    2.04   0
  -3   0  -4   18.63    3.11   0
  -3   0  -3    0.19    2.01   0
  -3   0  -3    0.27    2.03   0
  -3   0  -3    0.19    2.01   0
  -3   0  -3    0.20    2.13   0
  -3   0  -2   34.55    4.05   0
  -3   0  -2   31.15    3.85   0
  -3   0  -2   33.75    4.00   0
  -3   0  -2   35.28    4.09   0
  -3   0  -1    0.39    2.02   0
  -3   0  -1    0.47    2.03   0
  -3   0  -1    0.40    2.02   0
  -3   0  -1    0.43    2.07   0
  -3   0   0  118.76    9.06   0
  -3   0   0  124.10    9.37   0
  -3   0   0  106.75    8.34   0
  -3   0   0  111.55    8.63   0
  -3   0   1    0.40    2.02   0
  -3   0   1    0.38    2.12   0
  -3   0   1    0.39    1.99   0
  -3   0   1    0.47    2.03   0
  -3   0   2   33.06    3.96   0
  -3   0   2   34.55    4.05   0
  -3   0   2   33.75    4.00   0
  -3   0   2   35.28    4.09   0
  -3   0   3    0.20    2.01   0
  -3   0   3    0.23    2.07   0
  -3   0   3    0.19    2.02   0
  -3   0   3    0.18    2.01   0
  -3   1  -5   14.04    2.83   0
  -3   1  -4    2.99    0.88   0
  -3   1  -4    3.06    1.08   0
  -3   1  -4    2.83    1.01   0
  -3   1  -4    3.02    0.98   0
  -3   1  -3   46.73    4.78   0
  -3   1  -3   43.83    4.60   0
  -3   1  -3   46.67    4.77   0
  -3   1  -3   48.86    4.90   0
  -3   1  -2   54.65    5.25   0
  -3   1  -2   51.83    5.08   0
  -3   1  -2   51.04    5.03   0
  -3   1  -2   49.31    4.93   0
  -3   1  -1  111.85    8.65   0
  -3   1  -1  104.71    8.22   0
  -3   1  -1  117.18    8.96   0
  -3   1  -1  119.33    9.09   0
  -3   1   0   17.19    3.02   0
  -3   1   0   17.34    3.03   0
  -3   1   0   18.99    3.13   0
  -3   1   0   19.74    3.17   0
  -3   1   1  114.48    8.80   0
  -3   1   1  107.06    8.36   0
  -3   1   1  117.18    8.96   0
  -3   1   1  119.33    9.09   0
  -3   1   2   52.61    5.12   0
  -3   1   2   49.31    4.93   0
  -3   1   2   49.87    4.96   0
  -3   1   2   57.04    5.39   0
  -3   1   3   47.74    4.84   0
  -3   1   3   49.79    4.96   0
  -3   1   3   46.67    4.77   0
  -3   1   3   43.86    4.60   0
  -3   1   4    3.02    1.08   0
  -3   1   4    2.99    1.01   0
  -3   1   4    3.06    1.18   0
  -3   1   4    2.83    1.17   0
  -3   2  -4    2.96    1.17   0
  -3   2  -4    2.60    1.15   0
  -3   2  -4    2.93    1.17   0
  -3   2  -4    3.33    1.20   0
  -3   2  -3   48.67    3.89   0
  -3   2  -3   47.55    3.82   0
  -3   2  -3   49.89    3.96   0
  -3   2  -3   46.76    3.78   0
  -3   2  -2   48.94    3.91   0
  -3   2  -2   52.21    4.10   0
  -3   2  -2   44.48    4.64   0
  -3   2  -2   51.53    4.06   0
  -3   2  -1  119.54    9.10   0
  -3   2  -1  112.04    8.66   0
  -3   2  -1  114.10    8.78   0
  -3   2  -1  116.78    8.94   0
  -3   2   0   19.39    3.15   0
  -3   2   0   19.84    3.18   0
  -3   2   0   20.15    3.20   0
  -3   2   0   16.98    3.01   0
  -3   2   1  114.10    8.78   0
  -3   2   1  121.61    9.23   0
  -3   2   1  118.52    9.04   0
  -3   2   1  121.78    9.24   0
  -3   2   2   48.94    4.91   0
  -3   2   2   50.35    4.99   0
  -3   2   2   55.53    5.30   0
  -3   2   2   53.23    5.16   0
  -3   2   3   45.60    4.71   0
  -3   2   3   44.84    4.66   0
  -3   2   3   46.82    4.78   0
  -3   2   3   58.67    5.48   0
  -3   2   4    3.22    2.19   0
  -3   2   4    3.16    2.19   0
  -3   2   4    3.07    2.18   0
  -3   2   4    2.70    2.16   0
  -3   3  -3    0.20    2.01   0
  -3   3  -3    0.19    2.01   0
  -3   3  -3    0.19    2.01   0
  -3   3  -3    0.20    2.01   0
  -3   3  -2   35.28    4.09   0
  -3   3  -2   33.06    3.96   0
  -3   3  -2   33.75    4.00   0
  -3   3  -2   34.55    4.05   0
  -3   3  -1    0.39    2.07   0
  -3   3  -1    0.33    2.13   0
  -3   3  -1    0.40    2.02   0
  -3   3  -1    0.41    2.02   0
  -3   3   0  106.75    8.34   0
  -3   3   0  108.99    8.48   0
  -3   3   0  113.89    8.77   0
  -3   3   0  111.55    8.63   0
  -3   3   1    0.37    2.07   0
  -3   3   1    0.44    2.12   0
  -3   3   1    0.38    2.04   0
  -3   3   1    0.39    2.02   0
  -3   3   2   33.06    3.96   0
  -3   3   2   34.55    4.05   0
  -3   3   2   33.75    4.00   0
  -3   3   2   35.28    4.09   0
  -3   3   3    0.20    2.04   0
  -3   3   3    0.19    2.21   0
  -3   3   3    0.20    2.01   0
  -3   3   3    0.19    2.05   0
  -2  -2  -1   -0.10    2.15   0
  -2  -2  -1   -0.12    2.01   0
  -2  -2  -1   -0.10    2.07   0
  -2  -2  -1   -0.09    2.20   0
  -2  -2   0   37.04    4.20   0
  -2  -2   0   35.91    4.13   0
  -2  -2   0   36.66    4.18   0
  -2  -2   0   36.28    4.15   0
  -2  -2   1    0.10    2.12   0
  -2  -2   1    0.16    2.03   0
  -2  -2   1   -0.10    2.22   0
  -2  -2   1    0.13    2.04   0
  -2  -1  -4    3.06    1.18   0
  -2  -1  -4    2.61    1.15   0
  -2  -1  -4    2.99    1.18   0
  -2  -1  -4    2.83    1.17   0
  -2  -1  -3   49.79    3.96   0
  -2  -1  -3   48.86    3.90   0
  -2  -1  -3   46.67    3.77   0
  -2  -1  -3   47.74    3.84   0
  -2  -1  -2   49.31    3.93   0
  -2  -1  -2   52.61    4.12   0
  -2  -1  -2   49.97    4.97   0
  -2  -1  -2   51.14    5.04   0
  -2  -1  -1  117.18    8.96   0
  -2  -1  -1  124.26    9.38   0
  -2  -1  -1  119.23    9.08   0
  -2  -1  -1  111.75    8.64   0
  -2  -1   0   17.07    3.01   0
  -2  -1   0   20.26    3.20   0
  -2  -1   0   19.74    3.17   0
  -2  -1   0   19.29    3.14   0
  -2  -1   1  124.18    9.38   0
  -2  -1   1  129.44    9.69   0
  -2  -1   1  114.48    8.80   0
  -2  -1   1  121.32    9.21   0
  -2  -1   2   52.18    5.10   0
  -2  -1   2   49.97    4.97   0
  -2  -1   2   51.14    5.04   0
  -2  -1   2   52.61    5.12   0
  -2  -1   3   44.69    4.65   0
  -2  -1   3   43.80    4.60   0
  -2  -1   3   47.74    4.84   0
  -2  -1   3   48.86    4.90   0
  -2  -1   4    2.64    1.15   0
  -2  -1   4    2.98    1.18   0
  -2  -1   4    3.08    1.18   0
  -2  -1   4    3.16    1.19   0
  -2   0  -6    3.21    1.19   0
  -2   0  -5   24.85    2.47   0
  -2   0  -5   26.35    2.56   0
  -2   0  -5   27.44    2.63   0
  -2   0  -5   27.10    2.61   0
  -2   0  -4   13.65    1.91   0
  -2   0  -4    9.92    2.09   0
  -2   0  -4   11.37    2.67   0
  -2   0  -4   10.13    2.60   0
  -2   0  -3  155.77   11.26   0
  -2   0  -3  142.42   10.46   0
  -2   0  -3  130.31    9.74   0
  -2   0  -3  149.24   10.87   0
  -2   0  -2  166.40   11.89   0
  -2   0  -2  164.26   11.76   0
  -2   0  -2  146.39   10.70   0
  -2   0  -2  165.37   11.83   0
  -2   0  -1  358.91   23.33   0
  -2   0  -1  374.08   24.23   0
  -2   0  -1  385.03   24.88   0
  -2   0  -1  403.36   25.97   0
  -2   0   0   68.90    6.09   0
  -2   0   0   70.15    6.17   0
  -2   0   0   65.36    5.88   0
  -2   0   0   65.75    5.91   0
  -2   0   1  378.05   24.47   0
  -2   0   1  394.08   25.42   0
  -2   0   1  385.03   24.88   0
  -2   0   1  403.36   25.97   0
  -2   0   2  162.32   11.64   0
  -2   0   2  160.49   11.54   0
  -2   0   2  164.26   11.76   0
  -2   0   2  146.39   10.70   0
  -2   0   3  155.77   11.26   0
  -2   0   3  152.19   11.04   0
  -2   0   3  149.44   10.88   0
  -2   0   3  159.45   11.47   0
  -2   0   4   10.59    2.23   0
  -2   0   4   10.13    2.20   0
  -2   0   4    9.92    1.79   0
  -2   0   4   10.37    2.61   0
  -2   0   5   27.44    3.63   0
  -2   0   5   26.35    3.56   0
  -2   0   5   28.12    3.67   0
  -2   0   5   26.81    3.59   0
  -2   1  -6    7.84    1.46   0
  -2   1  -6    7.54    1.46   0
  -2   1  -6    8.14    1.74   0
  -2   1  -6    7.83    1.46   0
  -2   1  -5    0.30    2.02   0
  -2   1  -5    0.32    2.12   0
  -2   1  -5    0.30    2.03   0
  -2   1  -5    0.33    2.02   0
  -2   1  -4  182.89   12.87   0
  -2   1  -4  186.51   13.08   0
  -2   1  -4  182.67   12.85   0
  -2   1  -4  196.94   13.70   0
  -2   1  -3    1.61    2.09   0
  -2   1  -3    1.51    1.98   0
  -2   1  -3    1.54    2.06   0
  -2   1  -3    1.58    2.01   0
  -2   1  -2  381.65   24.68   0
  -2   1  -2  364.23   23.64   0
  -2   1  -2  398.82   25.70   0
  -2   1  -2  390.62   25.21   0
  -2   1  -1    3.81    1.22   0
  -2   1  -1    3.93    1.23   0
  -2   1  -1    3.76    1.20   0
  -2   1  -1    3.49    1.21   0
  -2   1   0 1162.22   71.07   0
  -2   1   0 1215.94   74.26   0
  -2   1   0 1270.65   77.51   0
  -2   1   0 1294.52   78.93   0
  -2   1   1    3.68    1.22   0
  -2   1   1    3.76    1.25   0
  -2   1   1    4.03    1.24   0
  -2   1   1    3.75    1.20   0
  -2   1   2  381.65   24.68   0
  -2   1   2  373.80   24.21   0
  -2   1   2  398.82   25.70   0
  -2   1   2  379.62   24.56   0
  -2   1   3    1.61    2.09   0
  -2   1   3    1.58    1.73   0
  -2   1   3    1.54    2.09   0
  -2   1   3    1.51    2.04   0
  -2   1   4  204.09   14.13   0
  -2   1   4  199.89   13.88   0
  -2   1   4  189.37   13.25   0
  -2   1   4  188.46   13.20   0
  -2   1   5    0.30    2.02   0
  -2   1   5    0.31    2.32   0
  -2   1   5    0.29    2.11   0
  -2   1   5    0.30    1.99   0
  -2   2  -5   26.90    3.60   0
  -2   2  -5   24.34    3.44   0
  -2   2  -5   28.02    3.66   0
  -2   2  -5   22.54    3.34   0
  -2   2  -4   10.72    1.64   0
  -2   2  -4   10.59    1.63   0
  -2   2  -4    9.92    1.59   0
  -2   2  -4   11.37    1.67   0
  -2   2  -3  156.17   11.28   0
  -2   2  -3  152.58   11.07   0
  -2   2  -3  144.28   10.57   0
  -2   2  -3  159.04   11.45   0
  -2   2  -2  157.50   11.36   0
  -2   2  -2  159.24   11.46   0
  -2   2  -2  152.98   11.09   0
  -2   2  -2  157.19   11.34   0
  -2   2  -1  375.16   24.29   0
  -2   2  -1  402.46   25.92   0
  -2   2  -1  358.07   23.28   0
  -2   2  -1  386.08   24.94   0
  -2   2   0   70.35    6.18   0
  -2   2   0   67.13    5.99   0
  -2   2   0   65.93    5.92   0
  -2   2   0   68.71    6.08   0
  -2   2   1  366.54   23.78   0
  -2   2   1  382.04   24.70   0
  -2   2   1  377.21   24.42   0
  -2   2   1  395.16   25.48   0
  -2   2   2  162.98   11.68   0
  -2   2   2  149.46   10.88   0
  -2   2   2  167.71   11.97   0
  -2   2   2  147.62   10.77   0
  -2   2   3  149.06   10.86   0
  -2   2   3  156.17   11.28   0
  -2   2   3  152.58   11.07   0
  -2   2   3  153.94   11.15   0
  -2   2   4   10.97    2.65   0
  -2   2   4   10.59    2.63   0
  -2   2   4    9.92    2.59   0
  -2   2   4   11.11    2.66   0
  -2   2   5   26.26    3.56   0
  -2   2   5   25.97    3.54   0
  -2   2   5   27.54    3.63   0
  -2   2   5   22.02    3.31   0
  -2   3  -4    3.08    1.18   0
  -2   3  -4    3.43    1.20   0
  -2   3  -4    2.88    1.17   0
  -2   3  -4    2.76    1.16   0
  -2   3  -3   46.67    4.77   0
  -2   3  -3   47.84    4.84   0
  -2   3  -3   43.89    4.61   0
  -2   3  -3   57.32    5.40   0
  -2   3  -2   54.26    5.22   0
  -2   3  -2   52.21    5.10   0
  -2   3  -2   49.89    4.96   0
  -2   3  -2   51.53    5.06   0
  -2   3  -1  111.08    8.60   0
  -2   3  -1  118.99    9.07   0
  -2   3  -1  116.78    8.94   0
  -2   3  -1  129.75    9.71   0
  -2   3   0   18.11    3.07   0
  -2   3   0   18.89    3.12   0
  -2   3   0   19.39    3.15   0
  -2   3   0   19.84    3.18   0
  -2   3   1  116.78    8.94   0
  -2   3   1  114.10    8.78   0
  -2   3   1  119.54    9.10   0
  -2   3   1  112.04    8.66   0
  -2   3   2   45.53    4.70   0
  -2   3   2   50.35    4.99   0
  -2   3   2   48.94    4.91   0
  -2   3   2   52.21    5.10   0
  -2   3   3   49.89    4.96   0
  -2   3   3   47.55    4.82   0
  -2   3   3   46.76    4.78   0
  -2   3   3   48.67    4.89   0
  -2   3   4    3.12    1.01   0
  -2   3   4    3.12    1.18   0
  -2   3   4    2.66    1.16   0
  -2   3   4    2.89    1.17   0
  -2   4  -1   -0.12    2.21   0
  -2   4  -1   -0.07    2.04   0
  -2   4  -1   -0.10    2.12   0
  -2   4  -1   -0.09    2.00   0
  -2   4   0   36.28    4.15   0
  -2   4   0   38.99    4.32   0
  -2   4   0   37.91    4.25   0
  -2   4   0   38.71    4.30   0
  -2   4   1   -0.13    2.06   0
  -2   4   1    0.10    2.21   0
  -2   4   1    0.13    2.01   0
  -2   4   1    0.10    2.10   0
  -2   4   2    9.00    2.53   0
  -1  -2  -4    2.89    2.17   0
  -1  -2  -4    3.12    2.18   0
  -1  -2  -4    2.56    2.15   0
  -1  -2  -4    2.93    2.17   0
  -1  -2  -3   48.77    4.50   0
  -1  -2  -3   46.76    4.78   0
  -1  -2  -3   49.89    4.96   0
  -1  -2  -3   47.65    4.83   0
  -1  -2  -2   48.94    4.91   0
  -1  -2  -2   52.21    5.10   0
  -1  -2  -2   50.35    4.99   0
  -1  -2  -2   51.53    5.06   0
  -1  -2  -1  119.64    9.11   0
  -1  -2  -1  116.78    8.94   0
  -1  -2  -1  114.10    8.78   0
  -1  -2  -1  121.70    9.23   0
  -1  -2   0   17.43    3.03   0
  -1  -2   0   18.89    3.12   0
  -1  -2   0   19.84    3.18   0
  -1  -2   0   20.15    3.20   0
  -1  -2   1  123.87    9.36   0
  -1  -2   1  112.13    8.66   0
  -1  -2   1  126.79    9.53   0
  -1  -2   1  126.78    9.53   0
  -1  -2   2   52.21    5.10   0
  -1  -2   2   48.94    4.91   0
  -1  -2   2   51.53    5.06   0
  -1  -2   2   53.28    5.16   0
  -1  -2   3   49.89    4.96   0
  -1  -2   3   46.76    4.78   0
  -1  -2   3   44.72    4.66   0
  -1  -2   3   43.77    4.60   0
  -1  -2   4    2.70    1.16   0
  -1  -2   4    3.23    1.19   0
  -1  -2   4    3.02    1.18   0
  -1  -2   4    2.92    1.17   0
  -1  -1  -5    0.30    2.02   0
  -1  -1  -5    0.33    2.02   0
  -1  -1  -5    0.29    2.02   0
  -1  -1  -5    0.32    2.02   0
  -1  -1  -4  182.89   12.87   0
  -1  -1  -4  186.73   13.10   0
  -1  -1  -4  184.58   12.97   0
  -1  -1  -4  188.46   13.20   0
  -1  -1  -3    1.54    1.49   0
  -1  -1  -3    1.58    1.29   0
  -1  -1  -3    1.61    1.19   0
  -1  -1  -3    1.51    1.28   0
  -1  -1  -2  373.80   24.21   0
  -1  -1  -2  381.65   24.68   0
  -1  -1  -2  388.61   25.09   0
  -1  -1  -2  380.62   24.62   0
  -1  -1  -1    3.93    1.23   0
  -1  -1  -1    3.40    1.20   0
  -1  -1  -1    3.85    1.23   0
  -1  -1  -1    3.47    1.20   0
  -1  -1   0 1162.22   71.07   0
  -1  -1   0 1244.52   75.96   0
  -1  -1   0 1270.65   77.51   0
  -1  -1   0 1186.63   72.52   0
  -1  -1   1    3.85    1.17   0
  -1  -1   1    3.93    1.22   0
  -1  -1   1    3.76    1.22   0
  -1  -1   1    3.68    1.23   0
  -1  -1   2  368.95   23.92   0
  -1  -1   2  376.62   24.38   0
  -1  -1   2  384.53   24.85   0
  -1  -1   2  361.36   23.47   0
  -1  -1   3    1.58    2.09   0
  -1  -1   3    1.51    2.04   0
  -1  -1   3    1.61    2.11   0
  -1  -1   3    1.54    2.09   0
  -1  -1   4  184.58   12.97   0
  -1  -1   4  192.89   13.46   0
  -1  -1   4  188.46   13.20   0
  -1  -1   4  196.94   13.70   0
  -1  -1   5    0.30    2.02   0
  -1  -1   5    0.32    2.04   0
  -1  -1   5    0.31    2.02   0
  -1  -1   5    0.33    2.07   0
  -1   0  -7    2.58    1.15   0
  -1   0  -7    2.68    1.14   0
  -1   0  -7    2.38    1.12   0
  -1   0  -7    2.66    1.15   0
  -1   0  -6   16.34    2.17   0
  -1   0  -6   16.49    2.18   0
  -1   0  -6   18.15    2.28   0
  -1   0  -6   15.88    2.14   0
  -1   0  -5   78.37    6.66   0
  -1   0  -5   86.07    7.11   0
  -1   0  -5   85.09    7.05   0
  -1   0  -5   83.14    6.94   0
  -1   0  -4   30.17    3.79   0
  -1   0  -4   30.71    3.82   0
  -1   0  -4   36.43    4.16   0
  -1   0  -4   34.23    4.03   0
  -1   0  -3  516.58   32.70   0
  -1   0  -3  505.24   32.02   0
  -1   0  -3  547.08   34.51   0
  -1   0  -3  547.12   34.51   0
  -1   0  -2  624.88   39.13   0
  -1   0  -2  611.32   38.33   0
  -1   0  -2  662.46   41.37   0
  -1   0  -2  600.76   37.70   0
  -1   0  -1 1407.51   85.65   0
  -1   0  -1 1483.71   90.17   0
  -1   0  -1 1481.32   90.03   0
  -1   0  -1 1447.68   88.03   0
  -1   0   0  176.09   12.46   0
  -1   0   0  184.30   12.95   0
  -1   0   0  184.95   12.99   0
  -1   0   0  177.66   12.56   0
  -1   0   1 1449.64   88.15   0
  -1   0   1 1521.14   92.40   0
  -1   0   1 1423.71   86.61   0
  -1   0   1 1426.65   86.78   0
  -1   0   2  624.88   39.13   0
  -1   0   2  610.53   38.28   0
  -1   0   2  642.04   40.15   0
  -1   0   2  611.32   38.33   0
  -1   0   3  512.76   32.47   0
  -1   0   3  524.78   33.19   0
  -1   0   3  547.08   34.51   0
  -1   0   3  527.12   33.32   0
  -1   0   4   36.43    4.16   0
  -1   0   4   32.09    3.91   0
  -1   0   4   35.59    4.11   0
  -1   0   4   37.30    4.21   0
  -1   0   5   86.68    7.15   0
  -1   0   5   88.09    7.23   0
  -1   0   5   83.14    6.94   0
  -1   0   5   81.24    6.83   0
  -1   0   6   16.49    2.98   0
  -1   0   6   16.34    2.97   0
  -1   0   6   17.44    3.03   0
  -1   0   6   15.88    2.94   0
  -1   1  -6   17.23    3.02   0
  -1   1  -6   17.66    3.05   0
  -1   1  -6   16.15    2.96   0
  -1   1  -6   18.08    3.07   0
  -1   1  -5   84.90    7.04   0
  -1   1  -5   82.95    6.93   0
  -1   1  -5   87.49    7.20   0
  -1   1  -5   81.43    6.84   0
  -1   1  -4   34.53    4.05   0
  -1   1  -4   31.99    3.90   0
  -1   1  -4   35.69    4.12   0
  -1   1  -4   37.20    4.21   0
  -1   1  -3  548.30   34.58   0
  -1   1  -3  523.53   33.11   0
  -1   1  -3  555.83   35.03   0
  -1   1  -3  513.89   32.54   0
  -1   1  -2  638.10   39.92   0
  -1   1  -2  588.50   36.97   0
  -1   1  -2  614.48   38.52   0
  -1   1  -2  638.92   39.97   0
  -1   1  -1 1514.77   92.02   0
  -1   1  -1 1440.75   87.62   0
  -1   1  -1 1388.12   84.49   0
  -1   1  -1 1391.01   84.67   0
  -1   1   0  176.46   12.49   0
  -1   1   0  170.02   12.10   0
  -1   1   0  188.27   13.19   0
  -1   1   0  174.01   12.34   0
  -1   1   1 1484.14   90.20   0
  -1   1   1 1419.72   86.37   0
  -1   1   1 1407.66   85.66   0
  -1   1   1 1420.75   86.43   0
  -1   1   2  598.07   37.54   0
  -1   1   2  628.92   39.37   0
  -1   1   2  624.25   39.10   0
  -1   1   2  627.89   39.31   0
  -1   1   3  535.83   33.84   0
  -1   1   3  543.06   34.27   0
  -1   1   3  548.30   34.58   0
  -1   1   3  513.89   32.54   0
  -1   1   4   34.13    4.03   0
  -1   1   4   33.73    4.00   0
  -1   1   4   34.86    4.07   0
  -1   1   4   36.53    4.17   0
  -1   1   5   84.90    7.04   0
  -1   1   5   82.95    6.93   0
  -1   1   5   86.88    7.16   0
  -1   1   5   82.00    6.87   0
  -1   1   6   17.66    3.05   0
  -1   1   6   18.08    3.07   0
  -1   1   6   17.23    3.02   0
  -1   1   6   16.15    2.96   0
  -1   2  -5    0.30    2.02   0
  -1   2  -5    0.31    2.07   0
  -1   2  -5    0.29    2.11   0
  -1   2  -5    0.30    2.02   0
  -1   2  -4  192.89   13.46   0
  -1   2  -4  195.30   13.60   0
  -1   2  -4  191.28   13.37   0
  -1   2  -4  202.05   14.01   0
  -1   2  -3    1.51    2.09   0
  -1   2  -3    1.54    2.05   0
  -1   2  -3    1.61    2.06   0
  -1   2  -3    1.58    2.09   0
  -1   2  -2  373.80   24.21   0
  -1   2  -2  398.82   25.70   0
  -1   2  -2  370.90   24.04   0
  -1   2  -2  390.62   25.21   0
  -1   2  -1    3.85    1.23   0
  -1   2  -1    3.93    1.21   0
  -1   2  -1    3.78    1.19   0
  -1   2  -1    3.67    1.22   0
  -1   2   0 1264.79   77.16   0
  -1   2   0 1244.52   75.96   0
  -1   2   0 1190.93   72.77   0
  -1   2   0 1240.02   75.69   0
  -1   2   1    3.68    1.22   0
  -1   2   1    3.73    1.20   0
  -1   2   1    3.73    1.25   0
  -1   2   1    3.85    1.23   0
  -1   2   2  388.61   25.09   0
  -1   2   2  373.80   24.21   0
  -1   2   2  381.65   24.68   0
  -1   2   2  390.62   25.21   0
  -1   2   3    1.58    2.09   0
  -1   2   3    1.51    2.09   0
  -1   2   3    1.54    2.09   0
  -1   2   3    1.61    2.09   0
  -1   2   4  194.90   13.58   0
  -1   2   4  190.89   13.34   0
  -1   2   4  178.69   12.62   0
  -1   2   4  184.58   12.97   0
  -1   2   5    0.30    2.02   0
  -1   2   5    0.30    2.04   0
  -1   2   5    0.36    2.02   0
  -1   2   5    0.30    2.01   0
  -1   2   6    8.03    2.48   0
  -1   3  -4    3.06    2.18   0
  -1   3  -4    3.02    2.18   0
  -1   3  -4    2.99    2.18   0
  -1   3  -4    2.83    2.17   0
  -1   3  -3   42.85    4.54   0
  -1   3  -3   46.67    4.77   0
  -1   3  -3   48.86    4.90   0
  -1   3  -3   49.79    4.96   0
  -1   3  -2   52.61    5.12   0
  -1   3  -2   51.04    5.03   0
  -1   3  -2   55.73    5.31   0
  -1   3  -2   49.31    4.93   0
  -1   3  -1  114.23    8.79   0
  -1   3  -1  117.18    8.96   0
  -1   3  -1  111.85    8.65   0
  -1   3  -1  114.48    8.80   0
  -1   3   0   20.26    3.20   0
  -1   3   0   17.74    3.05   0
  -1   3   0   19.29    3.14   0
  -1   3   0   16.11    2.96   0
  -1   3   1  107.18    8.37   0
  -1   3   1  111.85    8.65   0
  -1   3   1  119.33    9.09   0
  -1   3   1  114.48    8.80   0
  -1   3   2   49.87    4.96   0
  -1   3   2   53.04    5.15   0
  -1   3   2   52.61    5.12   0
  -1   3   2   51.22    5.04   0
  -1   3   3   44.86    4.66   0
  -1   3   3   43.80    4.60   0
  -1   3   3   47.74    4.84   0
  -1   3   3   49.79    4.96   0
  -1   3   4    3.06    2.18   0
  -1   3   4    3.02    2.18   0
  -1   3   4    2.83    2.17   0
  -1   3   4    2.99    2.18   0
  -1   3   5   14.37    2.85   0
  -1   4   0    1.38    2.08   0
  -1   4   1   25.00    3.48   0
  -1   4   2   10.29    2.61   0
   0  -3  -4   18.25    3.08   0
   0  -3  -3    0.19    2.01   0
   0  -3  -3    0.20    2.01   0
   0  -3  -3    0.28    2.01   0
   0  -3  -3    0.19    2.01   0
   0  -3  -2   31.80    3.89   0
   0  -3  -2   33.06    3.96   0
   0  -3  -2   34.55    4.05   0
   0  -3  -2   35.28    4.09   0
   0  -3  -1    0.48    2.03   0
   0  -3  -1    0.39    2.02   0
   0  -3  -1    0.42    2.02   0
   0  -3  -1    0.40    2.02   0
   0  -3   0  116.32    8.91   0
   0  -3   0  108.99    8.48   0
   0  -3   0  113.89    8.77   0
   0  -3   0  121.55    9.22   0
   0  -3   1    0.39    2.02   0
   0  -3   1    0.48    2.03   0
   0  -3   1    0.37    2.02   0
   0  -3   1    0.40    2.02   0
   0  -3   2   33.75    4.00   0
   0  -3   2   34.55    4.05   0
   0  -3   2   35.28    4.09   0
   0  -3   2   33.06    3.96   0
   0  -3   3    0.20    2.01   0
   0  -3   3    0.19    2.01   0
   0  -3   3    0.20    2.01   0
   0  -3   3    0.19    2.01   0
   0  -2  -6    3.14    2.18   0
   0  -2  -5   24.34    3.44   0
   0  -2  -5   26.54    3.58   0
   0  -2  -5   26.90    3.60   0
   0  -2  -5   28.02    3.66   0
   0  -2  -4    9.92    2.59   0
   0  -2  -4   10.13    2.60   0
   0  -2  -4   13.37    2.79   0
   0  -2  -4   11.61    2.69   0
   0  -2  -3  159.04   11.45   0
   0  -2  -3  133.05    9.91   0
   0  -2  -3  146.17   10.68   0
   0  -2  -3  139.49   10.29   0
   0  -2  -2  162.98   11.68   0
   0  -2  -2  167.71   11.97   0
   0  -2  -2  161.97   11.62   0
   0  -2  -2  149.46   10.88   0
   0  -2  -1  377.11   24.41   0
   0  -2  -1  381.94   24.70   0
   0  -2  -1  366.45   23.78   0
   0  -2  -1  395.06   25.48   0
   0  -2   0   67.13    5.99   0
   0  -2   0   64.02    5.80   0
   0  -2   0   68.71    6.08   0
   0  -2   0   70.35    6.18   0
   0  -2   1  385.99   24.94   0
   0  -2   1  377.11   24.41   0
   0  -2   1  402.36   25.91   0
   0  -2   1  395.06   25.48   0
   0  -2   2  158.98   11.45   0
   0  -2   2  167.71   11.97   0
   0  -2   2  149.46   10.88   0
   0  -2   2  157.19   11.34   0
   0  -2   3  149.06   10.86   0
   0  -2   3  152.58   11.07   0
   0  -2   3  156.17   11.28   0
   0  -2   3  159.04   11.45   0
   0  -2   4   10.59    2.63   0
   0  -2   4   10.37    2.61   0
   0  -2   4    9.92    2.59   0
   0  -2   4   10.13    2.60   0
   0  -2   5   27.54    3.63   0
   0  -2   5   26.26    3.56   0
   0  -2   5   26.90    3.60   0
   0  -2   5   28.02    3.66   0
   0  -1  -7    2.53    2.15   0
   0  -1  -6   17.78    3.05   0
   0  -1  -6   16.68    2.99   0
   0  -1  -6   16.21    2.96   0
   0  -1  -6   16.15    2.96   0
   0  -1  -5   81.43    6.84   0
   0  -1  -5   80.02    6.75   0
   0  -1  -5   84.30    7.01   0
   0  -1  -5   86.88    7.16   0
   0  -1  -4   37.20    4.21   0
   0  -1  -4   30.80    3.83   0
   0  -1  -4   33.53    3.99   0
   0  -1  -4   30.08    3.79   0
   0  -1  -3  558.61   35.20   0
   0  -1  -3  527.43   33.34   0
   0  -1  -3  494.85   31.41   0
   0  -1  -3  535.83   33.84   0
   0  -1  -2  588.40   36.97   0
   0  -1  -2  648.83   40.56   0
   0  -1  -2  638.00   39.91   0
   0  -1  -2  624.16   39.09   0
   0  -1  -1 1514.87   92.03   0
   0  -1  -1 1417.90   86.26   0
   0  -1  -1 1450.85   88.22   0
   0  -1  -1 1437.07   87.40   0
   0  -1   0  188.17   13.18   0
   0  -1   0  179.79   12.68   0
   0  -1   0  181.15   12.76   0
   0  -1   0  174.01   12.34   0
   0  -1   1 1489.85   90.54   0
   0  -1   1 1419.82   86.38   0
   0  -1   1 1453.61   88.39   0
   0  -1   1 1456.61   88.56   0
   0  -1   2  638.00   39.91   0
   0  -1   2  624.16   39.09   0
   0  -1   2  628.83   39.37   0
   0  -1   2  597.97   37.54   0
   0  -1   3  523.53   33.11   0
   0  -1   3  513.99   32.54   0
   0  -1   3  535.83   33.84   0
   0  -1   3  538.19   33.98   0
   0  -1   4   34.86    4.07   0
   0  -1   4   36.53    4.17   0
   0  -1   4   37.20    4.21   0
   0  -1   4   32.76    3.94   0
   0  -1   5   81.43    6.84   0
   0  -1   5   84.90    7.04   0
   0  -1   5   82.95    6.93   0
   0  -1   5   89.94    7.34   0
   0  -1   6   17.08    3.01   0
   0  -1   6   16.15    2.96   0
   0  -1   6   16.68    2.99   0
   0  -1   6   16.21    2.96   0
   0   0  -7    0.11    2.00   0
   0   0  -7    0.11    2.00   0
   0   0  -6   33.37    3.98   0
   0   0  -6   32.60    3.94   0
   0   0  -6   31.93    3.90   0
   0   0  -6   34.07    4.02   0
   0   0  -5    0.87    2.05   0
   0   0  -5    0.89    2.05   0
   0   0  -5    0.85    2.05   0
   0   0  -5    0.91    2.05   0
   0   0  -4  622.48   38.99   0
   0   0  -4  637.12   39.86   0
   0   0  -4  609.68   38.23   0
   0   0  -4  650.50   40.66   0
   0   0  -3    7.74    1.46   0
   0   0  -3    5.24    1.31   0
   0   0  -3    7.90    1.47   0
   0   0  -3    5.13    1.30   0
   0   0  -2 1332.95   81.22   0
   0   0  -2 1275.55   77.80   0
   0   0  -2 1249.31   76.24   0
   0   0  -2 1305.53   79.59   0
   0   0  -1   36.75    4.18   0
   0   0  -1   17.87    3.06   0
   0   0  -1   18.25    3.08   0
   0   0  -1   35.99    4.14   0
   0   0   1   17.46    3.04   0
   0   0   1   38.40    4.28   0
   0   0   1   37.61    4.23   0
   0   0   1   17.10    3.01   0
   0   0   2 1249.31   76.24   0
   0   0   2 1305.53   79.59   0
   0   0   2 1275.55   77.80   0
   0   0   2 1332.95   81.22   0
   0   0   3    8.26    2.49   0
   0   0   3    5.01    2.30   0
   0   0   3    8.09    2.48   0
   0   0   3    4.91    2.29   0
   0   0   4  622.48   38.99   0
   0   0   4  609.68   38.23   0
   0   0   4  637.12   39.86   0
   0   0   4  650.50   40.66   0
   0   0   5    0.85    2.05   0
   0   0   5    0.87    2.05   0
   0   0   5    0.89    2.02   0
   0   0   5    0.91    2.05   0
   0   0   6   32.60    3.94   0
   0   0   6   31.93    3.90   0
   0   0   6   34.07    4.02   0
   0   0   6   33.37    3.98   0
   0   0   7    0.12    2.01   0
   0   0   7    0.12    2.01   0
   0   1  -6   15.52    2.92   0
   0   1  -6   17.44    3.03   0
   0   1  -6   16.88    3.00   0
   0   1  -6   16.34    2.97   0
   0   1  -5   85.09    7.05   0
   0   1  -5   86.07    7.11   0
   0   1  -5   86.68    7.15   0
   0   1  -5   81.24    6.83   0
   0   1  -4   35.59    4.11   0
   0   1  -4   34.23    4.03   0
   0   1  -4   36.43    4.16   0
   0   1  -4   34.96    4.08   0
   0   1  -3  512.76   32.47   0
   0   1  -3  537.12   33.92   0
   0   1  -3  547.08   34.51   0
   0   1  -3  515.01   32.61   0
   0   1  -2  610.53   38.28   0
   0   1  -2  624.88   39.13   0
   0   1  -2  601.75   37.76   0
   0   1  -2  652.25   40.76   0
   0   1  -1 1391.01   84.67   0
   0   1  -1 1522.16   92.46   0
   0   1  -1 1483.71   90.17   0
   0   1  -1 1425.69   86.73   0
   0   1   0  187.87   13.16   0
   0   1   0  189.30   13.25   0
   0   1   0  166.52   11.89   0
   0   1   0  180.06   12.70   0
   0   1   1 1481.71   90.06   0
   0   1   1 1388.37   84.51   0
   0   1   1 1501.74   91.25   0
   0   1   1 1449.64   88.15   0
   0   1   2  652.25   40.76   0
   0   1   2  620.89   38.90   0
   0   1   2  610.53   38.28   0
   0   1   2  614.88   38.54   0
   0   1   3  551.17   34.75   0
   0   1   3  512.76   32.47   0
   0   1   3  517.12   32.73   0
   0   1   3  534.55   33.77   0
   0   1   4   32.09    3.91   0
   0   1   4   31.43    3.87   0
   0   1   4   32.19    3.91   0
   0   1   4   35.59    4.11   0
   0   1   5   83.62    6.97   0
   0   1   5   80.67    6.79   0
   0   1   5   83.14    6.94   0
   0   1   5   85.09    7.05   0
   0   1   6   17.01    3.01   0
   0   1   6   16.88    3.00   0
   0   1   6   17.44    3.03   0
   0   1   6   15.52    2.92   0
   0   1   7    2.64    2.15   0
   0   2  -5   26.35    3.56   0
   0   2  -5   27.44    3.63   0
   0   2  -5   28.12    3.67   0
   0   2  -5   26.81    3.59   0
   0   2  -4   10.13    2.60   0
   0   2  -4   10.37    2.61   0
   0   2  -4   10.59    2.63   0
   0   2  -4    9.92    2.59   0
   0   2  -3  152.19   11.04   0
   0   2  -3  159.45   11.47   0
   0   2  -3  149.44   10.88   0
   0   2  -3  155.77   11.26   0
   0   2  -2  164.26   11.76   0
   0   2  -2  152.13   11.04   0
   0   2  -2  160.49   11.54   0
   0   2  -2  156.19   11.28   0
   0   2  -1  403.36   25.97   0
   0   2  -1  378.05   24.47   0
   0   2  -1  385.03   24.88   0
   0   2  -1  394.08   25.42   0
   0   2   0   67.31    6.00   0
   0   2   0   65.75    5.91   0
   0   2   0   66.90    5.97   0
   0   2   0   70.15    6.17   0
   0   2   1  394.08   25.42   0
   0   2   1  378.05   24.47   0
   0   2   1  382.94   24.76   0
   0   2   1  365.49   23.72   0
   0   2   2  160.49   11.54   0
   0   2   2  169.26   12.06   0
   0   2   2  155.96   11.27   0
   0   2   2  156.19   11.28   0
   0   2   3  139.03   10.26   0
   0   2   3  152.19   11.04   0
   0   2   3  145.77   10.66   0
   0   2   3  139.88   10.31   0
   0   2   4   10.59    2.63   0
   0   2   4   12.79    2.76   0
   0   2   4   11.11    2.66   0
   0   2   4   10.37    2.61   0
   0   2   5   25.44    3.51   0
   0   2   5   25.40    3.51   0
   0   2   5   28.12    3.67   0
   0   2   5   26.81    3.59   0
   0   2   6    3.28    2.19   0
   0   3  -3    0.19    2.01   0
   0   3  -3    0.19    2.07   0
   0   3  -3    0.20    2.01   0
   0   3  -3    0.20    2.03   0
   0   3  -2   35.28    4.09   0
   0   3  -2   33.06    3.96   0
   0   3  -2   34.55    4.05   0
   0   3  -2   33.75    4.00   0
   0   3  -1    0.38    2.02   0
   0   3  -1    0.50    2.03   0
   0   3  -1    0.37    2.02   0
   0   3  -1    0.39    2.02   0
   0   3   0  108.99    8.48   0
   0   3   0  121.55    9.22   0
   0   3   0  113.89    8.77   0
   0   3   0  116.32    8.91   0
   0   3   1    0.38    2.02   0
   0   3   1    0.44    2.02   0
   0   3   1    0.50    2.03   0
   0   3   1    0.37    2.05   0
   0   3   2   33.75    4.00   0
   0   3   2   33.06    3.96   0
   0   3   2   34.55    4.05   0
   0   3   2   33.23    3.97   0
   0   3   3    0.19    2.03   0
   0   3   3    0.20    2.01   0
   0   3   3    0.27    1.98   0
   0   3   3    0.20    2.01   0
   0   3   4   19.07    3.13   0
   1  -4  -2    9.85    1.58   0
   1  -4  -2   10.11    1.77   0
   1  -4  -2    9.65    2.58   0
   1  -4  -2    9.87    2.59   0
   1  -4  -1   24.21    3.42   0
   1  -4  -1   23.92    3.54   0
   1  -4  -1   23.71    3.22   0
   1  -4  -1   23.93    3.61   0
   1  -4   0    1.32    2.08   0
   1  -4   0    1.74    1.89   0
   1  -4   0    1.21    2.08   0
   1  -4   0    1.33    2.01   0
   1  -3  -5   13.75    2.02   0
   1  -3  -5   13.66    1.74   0
   1  -3  -5   14.01    1.82   0
   1  -3  -5   13.31    1.89   0
   1  -3  -4    2.96    1.17   0
   1  -3  -4    2.89    1.12   0
   1  -3  -4    2.93    1.17   0
   1  -3  -4    3.12    1.18   0
   1  -3  -3   47.65    4.83   0
   1  -3  -3   49.89    4.96   0
   1  -3  -3   45.77    4.72   0
   1  -3  -3   42.93    4.55   0
   1  -3  -2   53.53    5.18   0
   1  -3  -2   50.76    5.01   0
   1  -3  -2   52.11    5.09   0
   1  -3  -2   50.35    4.99   0
   1  -3  -1  116.88    8.94   0
   1  -3  -1  119.64    9.11   0
   1  -3  -1  102.56    8.09   0
   1  -3  -1  114.20    8.78   0
   1  -3   0   19.39    3.15   0
   1  -3   0   20.15    3.20   0
   1  -3   0   16.98    3.01   0
   1  -3   0   16.84    3.00   0
   1  -3   1  119.64    9.11   0
   1  -3   1  109.31    8.49   0
   1  -3   1  116.88    8.94   0
   1  -3   1  112.13    8.66   0
   1  -3   2   48.84    4.90   0
   1  -3   2   50.35    4.99   0
   1  -3   2   51.53    5.06   0
   1  -3   2   58.24    5.46   0
   1  -3   3   46.76    4.78   0
   1  -3   3   48.77    4.90   0
   1  -3   3   44.78    4.66   0
   1  -3   3   47.65    4.83   0
   1  -3   4    3.12    1.18   0
   1  -3   4    2.93    1.17   0
   1  -3   4    2.89    1.13   0
   1  -3   4    2.96    1.17   0
   1  -2  -6    7.68    1.45   0
   1  -2  -6    8.01    1.32   0
   1  -2  -6    7.36    1.65   0
   1  -2  -6    7.67    1.42   0
   1  -2  -5    0.34    2.02   0
   1  -2  -5   -0.11    2.23   0
   1  -2  -5    0.29    2.02   0
   1  -2  -5    0.31    2.07   0
   1  -2  -4  192.89   13.46   0
   1  -2  -4  186.73   13.10   0
   1  -2  -4  182.67   12.85   0
   1  -2  -4  186.51   13.08   0
   1  -2  -3    1.61    2.09   0
   1  -2  -3    1.54    2.01   0
   1  -2  -3    1.58    2.09   0
   1  -2  -3    1.51    1.98   0
   1  -2  -2  398.82   25.70   0
   1  -2  -2  373.80   24.21   0
   1  -2  -2  371.88   24.10   0
   1  -2  -2  390.62   25.21   0
   1  -2  -1    3.56    1.23   0
   1  -2  -1    3.68    1.22   0
   1  -2  -1    3.89    1.32   0
   1  -2  -1    3.85    1.24   0
   1  -2   0 1186.63   72.52   0
   1  -2   0 1190.93   72.77   0
   1  -2   0 1321.70   80.55   0
   1  -2   0 1244.52   75.96   0
   1  -2   1    3.83    1.23   0
   1  -2   1    3.68    1.22   0
   1  -2   1    3.95    1.23   0
   1  -2   1    3.76    1.22   0
   1  -2   2  387.59   25.03   0
   1  -2   2  381.65   24.68   0
   1  -2   2  373.80   24.21   0
   1  -2   2  390.62   25.21   0
   1  -2   3    1.58    2.09   0
   1  -2   3    1.61    1.98   0
   1  -2   3    1.51    2.09   0
   1  -2   3    1.54    2.03   0
   1  -2   4  204.09   14.13   0
   1  -2   4  193.35   13.49   0
   1  -2   4  199.89   13.88   0
   1  -2   4  184.58   12.97   0
   1  -2   5    0.30    2.02   0
   1  -2   5    0.31    2.02   0
   1  -2   5    0.29    2.02   0
   1  -2   5    0.30    2.02   0
   1  -1  -6   17.30    3.03   0
   1  -1  -6   18.46    3.10   0
   1  -1  -6   16.88    3.00   0
   1  -1  -6   16.49    2.98   0
   1  -1  -5   85.69    7.09   0
   1  -1  -5   81.24    6.83   0
   1  -1  -5   83.14    6.94   0
   1  -1  -5   86.68    7.15   0
   1  -1  -4   36.43    4.16   0
   1  -1  -4   35.26    4.09   0
   1  -1  -4   32.66    3.94   0
   1  -1  -4   34.96    4.08   0
   1  -1  -3  524.68   33.18   0
   1  -1  -3  537.02   33.91   0
   1  -1  -3  567.50   35.72   0
   1  -1  -3  512.76   32.47   0
   1  -1  -2  652.34   40.77   0
   1  -1  -2  601.84   37.77   0
   1  -1  -2  624.98   39.14   0
   1  -1  -2  600.86   37.71   0
   1  -1  -1 1420.22   86.40   0
   1  -1  -1 1471.01   89.42   0
   1  -1  -1 1483.61   90.17   0
   1  -1  -1 1359.57   82.80   0
   1  -1   0  184.40   12.96   0
   1  -1   0  166.52   11.89   0
   1  -1   0  177.66   12.56   0
   1  -1   0  180.17   12.71   0
   1  -1   1 1453.61   88.39   0
   1  -1   1 1449.53   88.14   0
   1  -1   1 1450.59   88.21   0
   1  -1   1 1378.71   83.93   0
   1  -1   2  614.98   38.55   0
   1  -1   2  610.63   38.29   0
   1  -1   2  642.13   40.16   0
   1  -1   2  611.41   38.33   0
   1  -1   3  537.02   33.91   0
   1  -1   3  547.08   34.51   0
   1  -1   3  531.89   33.61   0
   1  -1   3  524.68   33.18   0
   1  -1   4   33.04    3.96   0
   1  -1   4   37.30    4.21   0
   1  -1   4   33.43    3.98   0
   1  -1   4   35.59    4.11   0
   1  -1   5   81.24    6.83   0
   1  -1   5   85.09    7.05   0
   1  -1   5   86.68    7.15   0
   1  -1   5   83.72    6.97   0
   1  -1   6   18.46    3.10   0
   1  -1   6   17.30    3.03   0
   1  -1   6   16.49    2.98   0
   1  -1   6   16.88    3.00   0
   1   0  -6   15.20    2.90   0
   1   0  -6   17.23    3.02   0
   1   0  -6   17.08    3.01   0
   1   0  -6   16.68    2.99   0
   1   0  -5   86.88    7.16   0
   1   0  -5   82.95    6.93   0
   1   0  -5   84.90    7.04   0
   1   0  -5   84.30    7.01   0
   1   0  -4   37.20    4.21   0
   1   0  -4   35.69    4.12   0
   1   0  -4   34.86    4.07   0
   1   0  -4   33.53    3.99   0
   1   0  -3  535.83   33.84   0
   1   0  -3  548.40   34.59   0
   1   0  -3  523.53   33.11   0
   1   0  -3  504.42   31.98   0
   1   0  -2  638.00   39.91   0
   1   0  -2  638.83   39.96   0
   1   0  -2  597.97   37.54   0
   1   0  -2  614.39   38.51   0
   1   0  -1 1455.63   88.51   0
   1   0  -1 1490.85   90.60   0
   1   0  -1 1362.40   82.97   0
   1   0  -1 1514.87   92.03   0
   1   0   0  184.01   12.93   0
   1   0   0  193.28   13.48   0
   1   0   0  176.36   12.48   0
   1   0   0  170.02   12.10   0
   1   0   1 1419.82   86.38   0
   1   0   1 1512.83   91.91   0
   1   0   1 1470.85   89.41   0
   1   0   1 1417.53   86.24   0
   1   0   2  627.79   39.31   0
   1   0   2  638.83   39.96   0
   1   0   2  633.93   39.67   0
   1   0   2  597.97   37.54   0
   1   0   3  527.98   33.38   0
   1   0   3  523.53   33.11   0
   1   0   3  523.56   33.11   0
   1   0   3  539.83   34.08   0
   1   0   4   32.09    3.91   0
   1   0   4   31.53    3.87   0
   1   0   4   32.76    3.94   0
   1   0   4   34.86    4.07   0
   1   0   5   81.43    6.84   0
   1   0   5   82.36    6.89   0
   1   0   5   81.90    6.87   0
   1   0   5   86.88    7.16   0
   1   0   6   15.20    2.90   0
   1   0   6   17.08    3.01   0
   1   0   6   17.23    3.02   0
   1   0   6   17.37    3.03   0
   1   0   7    2.70    1.13   0
   1   0   7    2.51    1.16   0
   1   0   7    2.89    1.07   0
   1   0   7    2.70    1.11   0
   1   1  -5    0.33    2.02   0
   1   1  -5    0.29    2.03   0
   1   1  -5    0.34    2.01   0
   1   1  -5    0.30    2.02   0
   1   1  -4  192.89   13.46   0
   1   1  -4  184.58   12.97   0
   1   1  -4  196.94   13.70   0
   1   1  -4  188.46   13.20   0
   1   1  -3    1.51    2.09   0
   1   1  -3    1.54    1.96   0
   1   1  -3    1.61    2.09   0
   1   1  -3    1.58    2.04   0
   1   1  -2  360.40   23.42   0
   1   1  -2  385.55   24.91   0
   1   1  -2  377.62   24.44   0
   1   1  -2  367.97   23.87   0
   1   1  -1    3.76    1.22   0
   1   1  -1    3.85    1.23   0
   1   1  -1    3.93    1.23   0
   1   1  -1    3.68    1.22   0
   1   1   0 1215.94   74.26   0
   1   1   0 1240.02   75.69   0
   1   1   0 1214.52   74.18   0
   1   1   0 1190.93   72.77   0
   1   1   1    3.55    1.21   0
   1   1   1    3.62    1.21   0
   1   1   1    3.76    1.22   0
   1   1   1    3.68    1.22   0
   1   1   2  371.88   24.10   0
   1   1   2  364.23   23.64   0
   1   1   2  398.82   25.70   0
   1   1   2  390.62   25.21   0
   1   1   3    1.54    2.09   0
   1   1   3    1.58    2.05   0
   1   1   3    1.51    1.87   0
   1   1   3    1.61    2.09   0
   1   1   4  175.01   12.40   0
   1   1   4  196.94   13.70   0
   1   1   4  178.69   12.62   0
   1   1   4  192.89   13.46   0
   1   1   5    0.31    2.02   0
   1   1   5    0.32    2.03   0
   1   1   5    0.30    1.92   0
   1   1   5    0.31    2.02   0
   1   2  -4    2.82    1.17   0
   1   2  -4    3.08    1.18   0
   1   2  -4    3.16    1.19   0
   1   2  -4    2.79    1.16   0
   1   2  -3   41.89    4.49   0
   1   2  -3   47.74    4.84   0
   1   2  -3   46.73    4.78   0
   1   2  -3   48.86    4.90   0
   1   2  -2   55.68    5.31   0
   1   2  -2   49.31    4.93   0
   1   2  -2   49.97    4.97   0
   1   2  -2   51.14    5.04   0
   1   2  -1  129.44    9.69   0
   1   2  -1  121.32    9.21   0
   1   2  -1  121.33    9.21   0
   1   2  -1  117.18    8.96   0
   1   2   0   18.99    3.13   0
   1   2   0   19.29    3.14   0
   1   2   0   18.21    3.08   0
   1   2   0   19.74    3.17   0
   1   2   1  127.18    9.56   0
   1   2   1  119.23    9.08   0
   1   2   1  114.48    8.80   0
   1   2   1  111.75    8.64   0
   1   2   2   49.31    4.93   0
   1   2   2   52.61    5.12   0
   1   2   2   49.97    4.97   0
   1   2   2   51.14    5.04   0
   1   2   3   49.79    4.96   0
   1   2   3   46.67    4.77   0
   1   2   3   48.86    4.90   0
   1   2   3   47.74    4.84   0
   1   2   4    3.02    1.18   0
   1   2   4    2.99    1.18   0
   1   2   4    3.06    1.18   0
   1   2   4    2.45    1.14   0
   2  -4  -2    8.61    1.51   0
   2  -4  -2    8.44    1.67   0
   2  -4  -2    8.79    1.51   0
   2  -4  -2    8.62    1.43   0
   2  -4  -1    0.12    2.01   0
   2  -4  -1    0.14    2.01   0
   2  -4  -1    0.10    2.00   0
   2  -4  -1    0.10    2.00   0
   2  -4   0   40.75    4.42   0
   2  -4   0   37.04    4.20   0
   2  -4   0   36.28    4.15   0
   2  -4   0   37.91    4.25   0
   2  -4   1    0.13    2.01   0
   2  -4   1    0.13    2.01   0
   2  -4   1    0.10    2.00   0
   2  -4   1    0.10    2.00   0
   2  -3  -4    2.99    1.18   0
   2  -3  -4    3.26    1.19   0
   2  -3  -4    2.55    1.15   0
   2  -3  -4    3.02    1.18   0
   2  -3  -3   48.86    4.90   0
   2  -3  -3   46.57    4.77   0
   2  -3  -3   49.69    4.95   0
   2  -3  -3   47.74    4.84   0
   2  -3  -2   49.97    4.97   0
   2  -3  -2   52.61    5.12   0
   2  -3  -2   51.14    5.04   0
   2  -3  -2   43.57    4.59   0
   2  -3  -1  111.75    8.64   0
   2  -3  -1  117.08    8.96   0
   2  -3  -1  114.39    8.80   0
   2  -3  -1  119.23    9.08   0
   2  -3   0   17.34    3.03   0
   2  -3   0   19.74    3.17   0
   2  -3   0   20.26    3.20   0
   2  -3   0   18.99    3.13   0
   2  -3   1  124.16    9.38   0
   2  -3   1  116.08    8.90   0
   2  -3   1  111.75    8.64   0
   2  -3   1  124.34    9.39   0
   2  -3   2   49.31    4.93   0
   2  -3   2   52.14    5.10   0
   2  -3   2   56.70    5.37   0
   2  -3   2   49.97    4.97   0
   2  -3   3   44.66    4.65   0
   2  -3   3   59.90    5.56   0
   2  -3   3   45.86    4.72   0
   2  -3   3   45.78    4.72   0
   2  -3   4    3.23    1.19   0
   2  -3   4    2.64    1.15   0
   2  -3   4    3.01    1.18   0
   2  -3   4    3.29    1.19   0
   2  -2  -5   24.85    3.47   0
   2  -2  -5   26.35    3.56   0
   2  -2  -5   23.01    3.37   0
   2  -2  -5   27.44    3.63   0
   2  -2  -4   10.50    2.62   0
   2  -2  -4   10.13    2.60   0
   2  -2  -4   10.37    2.61   0
   2  -2  -4   11.61    2.69   0
   2  -2  -3  149.44   10.88   0
   2  -2  -3  155.77   11.26   0
   2  -2  -3  147.31   10.75   0
   2  -2  -3  159.45   11.47   0
   2  -2  -2  155.96   11.27   0
   2  -2  -2  156.19   11.28   0
   2  -2  -2  154.26   11.17   0
   2  -2  -2  160.49   11.54   0
   2  -2  -1  378.14   24.47   0
   2  -2  -1  365.59   23.73   0
   2  -2  -1  383.04   24.76   0
   2  -2  -1  394.18   25.42   0
   2  -2   0   65.75    5.91   0
   2  -2   0   68.90    6.09   0
   2  -2   0   67.31    6.00   0
   2  -2   0   70.15    6.17   0
   2  -2   1  374.18   24.24   0
   2  -2   1  359.00   23.33   0
   2  -2   1  385.13   24.89   0
   2  -2   1  403.46   25.98   0
   2  -2   2  146.39   10.70   0
   2  -2   2  150.72   10.96   0
   2  -2   2  166.40   11.89   0
   2  -2   2  164.26   11.76   0
   2  -2   3  150.77   10.96   0
   2  -2   3  152.19   11.04   0
   2  -2   3  149.44   10.88   0
   2  -2   3  159.45   11.47   0
   2  -2   4   10.13    2.60   0
   2  -2   4   10.88    2.64   0
   2  -2   4   11.20    2.66   0
   2  -2   4   10.37    2.61   0
   2  -2   5   25.44    3.51   0
   2  -2   5   26.81    3.59   0
   2  -2   5   21.57    3.28   0
   2  -2   5   28.12    3.67   0
   2  -1  -5    0.30    2.02   0
   2  -1  -5    0.29    2.01   0
   2  -1  -5    0.31    2.02   0
   2  -1  -5    0.30    2.07   0
   2  -1  -4  197.89   13.76   0
   2  -1  -4  191.28   13.37   0
   2  -1  -4  196.94   13.70   0
   2  -1  -4  195.30   13.60   0
   2  -1  -3    1.54    2.09   0
   2  -1  -3    1.51    1.87   0
   2  -1  -3    1.61    2.09   0
   2  -1  -3    1.58    2.05   0
   2  -1  -2  390.62   25.21   0
   2  -1  -2  363.27   23.59   0
   2  -1  -2  398.82   25.70   0
   2  -1  -2  381.65   24.68   0
   2  -1  -1    3.85    1.23   0
   2  -1  -1    3.93    1.27   0
   2  -1  -1    3.86    1.23   0
   2  -1  -1    3.59    1.21   0
   2  -1   0 1270.65   77.51   0
   2  -1   0 1214.52   74.18   0
   2  -1   0 1238.78   75.62   0
   2  -1   0 1215.94   74.26   0
   2  -1   1    3.93    2.23   0
   2  -1   1    3.76    2.22   0
   2  -1   1    3.65    2.21   0
   2  -1   1    3.65    2.21   0
   2  -1   2  381.65   24.68   0
   2  -1   2  373.80   24.21   0
   2  -1   2  380.62   24.62   0
   2  -1   2  398.82   25.70   0
   2  -1   3    1.61    2.09   0
   2  -1   3    1.58    2.09   0
   2  -1   3    1.54    2.09   0
   2  -1   3    1.51    2.09   0
   2  -1   4  188.46   13.20   0
   2  -1   4  190.89   13.34   0
   2  -1   4  175.01   12.40   0
   2  -1   4  194.90   13.58   0
   2  -1   5    0.29    2.02   0
   2  -1   5    0.31    2.02   0
   2  -1   5    0.35    2.02   0
   2  -1   5    0.31    2.02   0
   2  -1   6    8.20    2.49   0
   2   0  -5   26.26    3.56   0
   2   0  -5   28.02    3.66   0
   2   0  -5   26.90    3.60   0
   2   0  -5   27.54    3.63   0
   2   0  -4   10.59    2.63   0
   2   0  -4    9.92    2.59   0
   2   0  -4   10.13    2.60   0
   2   0  -4   10.37    2.61   0
   2   0  -3  152.58   11.07   0
   2   0  -3  156.17   11.28   0
   2   0  -3  149.06   10.86   0
   2   0  -3  159.04   11.45   0
   2   0  -2  155.32   11.23   0
   2   0  -2  167.71   11.97   0
   2   0  -2  152.98   11.09   0
   2   0  -2  157.19   11.34   0
   2   0  -1  377.11   24.41   0
   2   0  -1  395.06   25.48   0
   2   0  -1  402.36   25.91   0
   2   0  -1  385.99   24.94   0
   2   0   0   67.13    5.99   0
   2   0   0   68.71    6.08   0
   2   0   0   65.93    5.92   0
   2   0   0   68.30    6.06   0
   2   0   1  357.97   23.27   0
   2   0   1  402.36   25.91   0
   2   0   1  385.99   24.94   0
   2   0   1  375.06   24.29   0
   2   0   2  159.24   11.46   0
   2   0   2  157.19   11.34   0
   2   0   2  152.98   11.09   0
   2   0   2  172.81   12.27   0
   2   0   3  149.06   10.86   0
   2   0   3  136.17   10.09   0
   2   0   3  142.82   10.49   0
   2   0   3  148.83   10.84   0
   2   0   4   13.06    2.77   0
   2   0   4   10.37    2.61   0
   2   0   4   10.59    2.63   0
   2   0   4   10.88    2.64   0
   2   0   5   26.26    3.56   0
   2   0   5   25.93    3.54   0
   2   0   5   27.54    3.63   0
   2   0   5   25.97    3.54   0
   2   0   6    3.35    1.20   0
   2   1  -4    3.23    1.19   0
   2   1  -4    3.02    1.18   0
   2   1  -4    2.85    1.17   0
   2   1  -4    2.76    1.16   0
   2   1  -3   46.76    4.78   0
   2   1  -3   45.77    4.72   0
   2   1  -3   42.77    4.54   0
   2   1  -3   49.89    4.96   0
   2   1  -2   54.53    5.24   0
   2   1  -2   48.94    4.91   0
   2   1  -2   52.21    5.10   0
   2   1  -2   50.35    4.99   0
   2   1  -1  118.83    9.06   0
   2   1  -1  123.87    9.36   0
   2   1  -1  119.64    9.11   0
   2   1  -1  126.78    9.53   0
   2   1   0   18.89    3.12   0
   2   1   0   17.84    3.06   0
   2   1   0   19.39    3.15   0
   2   1   0   20.15    3.20   0
   2   1   1  129.85    9.71   0
   2   1   1  116.78    8.94   0
   2   1   1  112.13    8.66   0
   2   1   1  114.10    8.78   0
   2   1   2   52.21    5.10   0
   2   1   2   50.35    4.99   0
   2   1   2   51.53    5.06   0
   2   1   2   48.94    4.91   0
   2   1   3   48.77    4.90   0
   2   1   3   47.65    4.83   0
   2   1   3   49.89    4.96   0
   2   1   3   46.76    4.78   0
   2   1   4    3.12    1.18   0
   2   1   4    2.96    1.21   0
   2   1   4    2.93    1.17   0
   2   1   4    2.50    1.15   0
   2   2  -1   -0.01    2.31   0
   2   2  -1    0.17    2.00   0
   2   2  -1   -0.10    2.11   0
   2   2  -1    0.13    2.04   0
   2   2   0   35.08    4.08   0
   2   2   0   37.91    4.25   0
   2   2   0   38.71    4.30   0
   2   2   0   34.36    4.04   0
   2   2   1    0.10    2.00   0
   2   2   1    0.11    1.98   0
   2   2   1    0.10    2.00   0
   2   2   1    0.13    2.02   0
   3  -3  -3    0.20    2.01   0
   3  -3  -3    0.25    2.09   0
   3  -3  -3    0.19    2.01   0
   3  -3  -3    0.19    2.11   0
   3  -3  -2   33.75    4.00   0
   3  -3  -2   33.06    3.96   0
   3  -3  -2   34.55    4.05   0
   3  -3  -2   35.28    4.09   0
   3  -3  -1    0.40    2.02   0
   3  -3  -1    0.42    2.03  0
   3  -3  -1    0.37    2.02   0
   3  -3  -1    0.39    2.07   0
   3  -3   0  113.89    8.77   0
   3  -3   0  106.75    8.34   0
   3  -3   0  108.99    8.48   0
   3  -3   0  111.55    8.63   0
   3  -3   1    0.37    2.02   0
   3  -3   1    0.43    2.02   0
   3  -3   1    0.38    2.02   0
   3  -3   1    0.40    2.02   0
   3  -3   2   35.28    4.09   0
   3  -3   2   34.55    4.05   0
   3  -3   2   33.75    4.00   0
   3  -3   2   33.06    3.96   0
   3  -3   3    0.19    2.01   0
   3  -3   3    0.20    2.01   0
   3  -3   3    0.20    2.01   0
   3  -3   3    0.19    2.01   0
   3  -2  -4    3.02    1.18   0
   3  -2  -4    2.94    1.17   0
   3  -2  -4    3.36    1.22   0
   3  -2  -4    2.82    1.17   0
   3  -2  -3   56.14    5.33   0
   3  -2  -3   44.81    4.66   0
   3  -2  -3   47.65    4.83   0
   3  -2  -3   46.86    4.78   0
   3  -2  -2   50.94    5.03   0
   3  -2  -2   53.14    5.16   0
   3  -2  -2   51.14    5.04   0
   3  -2  -2   52.61    5.12   0
   3  -2  -1  116.54    8.92   0
   3  -2  -1  127.08    9.55   0
   3  -2  -1  113.41    8.74   0
   3  -2  -1  119.23    9.08   0
   3  -2   0   17.74    3.05   0
   3  -2   0   18.99    3.13   0
   3  -2   0   19.29    3.14   0
   3  -2   0   20.26    3.20   0
   3  -2   1  117.08    8.96   0
   3  -2   1  119.23    9.08   0
   3  -2   1  111.75    8.64   0
   3  -2   1  114.39    8.80   0
   3  -2   2   49.97    4.97   0
   3  -2   2   49.31    4.93   0
   3  -2   2   46.49    4.76   0
   3  -2   2   51.14    5.04   0
   3  -2   3   47.74    4.84   0
   3  -2   3   49.69    4.95   0
   3  -2   3   48.86    4.90   0
   3  -2   3   46.57    4.77   0
   3  -2   4    3.19    1.19   0
   3  -2   4    2.83    1.17   0
   3  -2   4    2.72    1.16   0
   3  -2   4    3.06    1.21   0
   3  -1  -4    3.12    1.18   0
   3  -1  -4    2.93    1.17   0
   3  -1  -4    2.89    1.13   0
   3  -1  -4    2.96    1.17   0
   3  -1  -3   48.77    4.90   0
   3  -1  -3   47.65    4.83   0
   3  -1  -3   41.97    4.49   0
   3  -1  -3   49.89    4.96   0
   3  -1  -2   50.35    4.99   0
   3  -1  -2   54.58    5.24   0
   3  -1  -2   52.11    5.09   0
   3  -1  -2   51.53    5.06   0
   3  -1  -1  114.20    8.78   0
   3  -1  -1  119.64    9.11   0
   3  -1  -1  111.88    8.65   0
   3  -1  -1  112.13    8.66   0
   3  -1   0   19.84    3.18   0
   3  -1   0   18.11    3.07   0
   3  -1   0   16.45    2.98   0
   3  -1   0   18.89    3.12   0
   3  -1   1  112.13    8.66   0
   3  -1   1  116.88    8.94   0
   3  -1   1  114.20    8.78   0
   3  -1   1  109.43    8.50   0
   3  -1   2   48.84    4.90   0
   3  -1   2   52.30    5.11   0
   3  -1   2   54.15    5.22   0
   3  -1   2   51.53    5.06   0
   3  -1   3   48.77    4.90   0
   3  -1   3   45.80    4.72   0
   3  -1   3   44.72    4.66   0
   3  -1   3   46.76    4.78   0
   3  -1   4    2.89    1.17   0
   3  -1   4    2.96    1.15   0
   3  -1   4    2.93    1.27   0
   3  -1   4    3.12    1.19   0
   3  -1   5   14.67    2.07   0
   3  -1   5   15.02    1.99   0
   3  -1   5   14.63    2.33   0
   3  -1   5   14.29    2.11   0
   3   0  -3    0.19    2.01   0
   3   0  -3   -0.09    2.07   0
   3   0  -3    0.20    2.22   0
   3   0  -3    0.11    2.01   0
   3   0  -2   35.28    4.09   0
   3   0  -2   33.06    3.96   0
   3   0  -2   33.75    4.00   0
   3   0  -2   34.55    4.05   0
   3   0  -1    0.37    2.02   0
   3   0  -1    0.38    2.07   0
   3   0  -1    0.40    2.02   0
   3   0  -1    0.49    2.03   0
   3   0   0  111.55    8.63   0
   3   0   0  118.76    9.06   0
   3   0   0  106.75    8.34   0
   3   0   0  124.10    9.37   0
   3   0   1    0.49    2.03   0
   3   0   1    0.37    2.02   0
   3   0   1    0.38    2.02   0
   3   0   1    0.45    2.02   0
   3   0   2   33.06    3.96   0
   3   0   2   33.75    4.00   0
   3   0   2   32.55    3.93   0
   3   0   2   35.28    4.09   0
   3   0   3    0.26    2.01   0
   3   0   3    0.20    2.03   0
   3   0   3    0.22    2.21   0
   3   0   3    0.19    2.01   0
   3   0   4   19.47    3.16   0
   4  -2  -1   -0.10    2.00   0
   4  -2  -1    0.12    2.04   0
   4  -2  -1    0.14    2.01   0
   4  -2  -1   -0.12    2.32   0
   4  -2   0   38.19    4.27   0
   4  -2   0   37.04    4.20   0
   4  -2   0   37.91    4.25   0
   4  -2   0   38.71    4.30   0
   4  -2   1    0.10    2.00   0
   4  -2   1    0.13    2.01   0
   4  -2   1   -0.08    2.25   0
   4  -2   1    0.13    2.04   0
   4  -2   2    9.19    2.04   0
   4  -2   2    9.32    1.91   0
   4  -2   2    9.07    2.11   0
   4  -2   2    9.14    2.05   0
   4  -1   0    1.41    2.08   0
   4  -1   0    1.55    2.11   0
   4  -1   0    1.34    1.99   0
   4  -1   0    1.27    2.04   0
   4  -1   1   25.53    3.21   0
   4  -1   1   25.46    3.19   0
   4  -1   1   25.37    3.14   0
   4  -1   1   25.70    3.52   0
   4  -1   2   10.51    2.22   0
   4  -1   2   10.72    2.32   0
   4  -1   2   10.33    2.21   0
   4  -1   2   10.47    2.24   0
;
_shelx_hkl_checksum              54709
_shelx_res_file
;
    Mg76Li12Al12Cx.res created by SHELXL-2014/7
TITL mglialcx in P-6m2
CELL 0.71073   3.1970   3.1970   5.1943  90.000  90.000 120.000
ZERR    1.00   0.0005   0.0005   0.0010   0.000   0.000   0.000
LATT -1
SYMM -Y, X-Y, Z
SYMM -X+Y, -X, Z
SYMM X, Y, -Z
SYMM -Y, X-Y, -Z
SYMM -X+Y, -X, -Z
SYMM -Y, -X, Z
SYMM -X+Y, Y, Z
SYMM X, X-Y, Z
SYMM -Y, -X, -Z
SYMM -X+Y, Y, -Z
SYMM X, X-Y, -Z
SFAC C LI MG AL
UNIT 0.86 0.24 1.52 0.24
L.S. 4
BOND
FMAP 2
PLAN 20
exyz Mg1 Al
eadp Mg1 Al
exyz Mg2 LI
eadp Mg2 LI
twin
acta
WGHT    0.012500    0.032700
BASF   0.41189
FVAR       3.24516
MG1   3    0.333333    0.666667    0.500000    10.06333    0.05347    0.05347 =
         0.05659    0.00000    0.00000    0.02674
AL    4    0.333333    0.666667    0.500000    10.02000    0.05347    0.05347 =
         0.05659    0.00000    0.00000    0.02674
MG2   3    0.000000    0.000000    0.000000    10.06333    0.04283    0.04283 =
         0.04289    0.00000    0.00000    0.02141
LI    2    0.000000    0.000000    0.000000    10.02000    0.04283    0.04283 =
         0.04289    0.00000    0.00000    0.02141
C     1    0.666667    0.333333    0.243172    10.07173    0.03921    0.03921 =
         0.04482    0.00000    0.00000    0.01961
HKLF 4 1 -1.000 0.000 0.000 0.000 -1.000 0.000 0.000 0.000 -1.000
REM  mglialcx in P-6m2
REM R1 =  0.0327 for      65 Fo > 4sig(Fo)  and  0.0365 for all      75 data
REM      9 parameters refined using      0 restraints
END
WGHT      0.0121      0.0323
REM Highest difference peak  0.181,  deepest hole -0.205,  1-sigma level  0.057
Q1    1   0.0000  0.0000  0.2194  10.16667  0.05    0.18
Q2    1   0.4265 -0.1469  0.0000  10.25000  0.05    0.17
Q3    1   0.7786  0.5571  0.2436  10.50000  0.05    0.15
Q4    1   0.5498  0.0997  0.2665  10.50000  0.05    0.15
Q5    1   0.0701  0.9299  0.5000  10.25000  0.05    0.15
Q6    1   0.0527 -0.2815  0.0000  10.50000  0.05    0.14
Q7    1  -0.1354 -0.2708  0.0630  10.50000  0.05    0.14
Q8    1   0.3333  0.6667  0.2807  10.16667  0.05    0.13
Q9    1   0.1213  0.2426  0.0703  10.50000  0.05    0.11
Q10   1  -0.3298  0.1512  0.0000  10.50000  0.05    0.11
Q11   1   0.6667  0.3333  0.0000  10.08333  0.05    0.10
Q12   1   0.4703  0.9406  0.4276  10.50000  0.05    0.09
Q13   1   0.0000  1.0000  0.3790  10.16667  0.05    0.09
Q14   1   0.6667  0.3333  0.5000  10.08333  0.05    0.08
Q15   1   0.3333 -0.3333  0.1179  10.16667  0.05    0.07
Q16   1   0.7637  0.5273  0.4463  10.50000  0.05    0.06
Q17   1   0.2344  0.4688  0.1786  10.50000  0.05    0.06
Q18   1   0.3650  0.0210  0.3064  11.00000  0.05    0.06
Q19   1   0.2164  0.4328  0.4181  10.50000  0.05    0.05
;
_shelx_res_checksum              94835
loop_
_space_group_symop_operation_xyz
'x, y, z'
'-y, x-y, z'
'-x+y, -x, z'
'x, y, -z'
'-y, x-y, -z'
'-x+y, -x, -z'
'-y, -x, z'
'-x+y, y, z'
'x, x-y, z'
'-y, -x, -z'
'-x+y, y, -z'
'x, x-y, -z'
loop_
_atom_site_type_symbol
_atom_site_label
_atom_site_fract_x
_atom_site_fract_y
_atom_site_fract_z
_atom_site_U_iso_or_equiv
_atom_site_adp_type
_atom_site_calc_flag
_atom_site_occupancy
Mg Mg1 0.3333 0.6667 0.5000 0.0545(18) Uani d 0.76(4)
Al Al 0.3333 0.6667 0.5000 0.0545(18) Uani d 0.24(4)
Mg Mg2 0.0000 0.0000 0.0000 0.0429(16) Uani d 0.76(8)
Li Li 0.0000 0.0000 0.0000 0.0429(16) Uani d 0.24(8)
C C 0.6667 0.3333 0.243(5) 0.041(3) Uani d 0.430(11)
loop_
_atom_site_aniso_label
_atom_site_aniso_U_11
_atom_site_aniso_U_22
_atom_site_aniso_U_33
_atom_site_aniso_U_12
_atom_site_aniso_U_13
_atom_site_aniso_U_23
Mg1 0.053(2) 0.053(2) 0.057(3) 0.0267(12) 0.000 0.000
Al 0.053(2) 0.053(2) 0.057(3) 0.0267(12) 0.000 0.000
Mg2 0.043(2) 0.043(2) 0.043(3) 0.0214(12) 0.000 0.000
Li 0.043(2) 0.043(2) 0.043(3) 0.0214(12) 0.000 0.000
C 0.039(4) 0.039(4) 0.045(6) 0.0196(18) 0.000 0.000
loop_
_atom_type_symbol
_atom_type_description
_atom_type_scat_dispersion_real
_atom_type_scat_dispersion_imag
_atom_type_scat_source
C C 0.0033 0.0016 'International Tables Vol C Tables 4.2.6.8 and 6.1.1.4'
Li Li -0.0003 0.0001 'International Tables Vol C Tables 4.2.6.8 and 6.1.1.4'
Mg Mg 0.0486 0.0363 'International Tables Vol C Tables 4.2.6.8 and 6.1.1.4'
Al Al 0.0645 0.0514 'International Tables Vol C Tables 4.2.6.8 and 6.1.1.4'
loop_
_geom_angle_atom_site_label_1
_geom_angle_atom_site_label_2
_geom_angle_atom_site_label_3
_geom_angle_site_symmetry_1
_geom_angle_site_symmetry_3
_geom_angle
C Mg1 C 4_556 . 71.7(10)
C Mg1 C 4_556 4_566 89.2(7)
C Mg1 C . 4_566 132.2(3)
C Mg1 C 4_556 1_455 132.2(3)
C Mg1 C . 1_455 89.2(7)
C Mg1 C 4_566 1_455 132.2(3)
C Mg1 C 4_556 4_456 89.2(7)
C Mg1 C . 4_456 132.2(3)
C Mg1 C 4_566 4_456 89.2(7)
C Mg1 C 1_455 4_456 71.7(10)
C Mg1 C 4_556 1_565 132.2(3)
C Mg1 C . 1_565 89.2(7)
C Mg1 C 4_566 1_565 71.7(10)
C Mg1 C 1_455 1_565 89.2(7)
C Mg1 C 4_456 1_565 132.2(3)
C Mg1 Mg2 4_556 . 104.0(4)
C Mg1 Mg2 . . 44.6(3)
C Mg1 Mg2 4_566 . 161.3(5)
C Mg1 Mg2 1_455 . 44.6(3)
C Mg1 Mg2 4_456 . 104.0(4)
C Mg1 Mg2 1_565 . 89.5(5)
C Mg1 Li 4_556 1_666 44.6(3)
C Mg1 Li . 1_666 104.0(4)
C Mg1 Li 4_566 1_666 44.6(3)
C Mg1 Li 1_455 1_666 161.3(5)
C Mg1 Li 4_456 1_666 89.5(5)
C Mg1 Li 1_565 1_666 104.0(4)
Mg2 Mg1 Li . 1_666 146.3
C Mg1 Mg2 4_556 1_666 44.6(3)
C Mg1 Mg2 . 1_666 104.0(4)
C Mg1 Mg2 4_566 1_666 44.6(3)
C Mg1 Mg2 1_455 1_666 161.3(5)
C Mg1 Mg2 4_456 1_666 89.5(5)
C Mg1 Mg2 1_565 1_666 104.0(4)
Mg2 Mg1 Mg2 . 1_666 146.326(6)
Li Mg1 Mg2 1_666 1_666 0.0
C Mg1 Li 4_556 1_566 89.5(5)
C Mg1 Li . 1_566 161.3(5)
C Mg1 Li 4_566 1_566 44.6(3)
C Mg1 Li 1_455 1_566 104.0(4)
C Mg1 Li 4_456 1_566 44.6(3)
C Mg1 Li 1_565 1_566 104.0(4)
Mg2 Mg1 Li . 1_566 146.3
Li Mg1 Li 1_666 1_566 60.224(11)
Mg2 Mg1 Li 1_666 1_566 60.224(11)
C Mg1 Li 4_556 1_565 161.3(5)
C Mg1 Li . 1_565 89.5(5)
C Mg1 Li 4_566 1_565 104.0(4)
C Mg1 Li 1_455 1_565 44.6(3)
C Mg1 Li 4_456 1_565 104.0(4)
C Mg1 Li 1_565 1_565 44.6(3)
Mg2 Mg1 Li . 1_565 60.2
Li Mg1 Li 1_666 1_565 146.326(6)
Mg2 Mg1 Li 1_666 1_565 146.326(6)
Li Mg1 Li 1_566 1_565 109.197(13)
C Mg2 C 4_445 4 91.2(7)
C Mg2 C 4_445 1_445 68.8(10)
C Mg2 C 4 1_445 131.3(3)
C Mg2 C 4_445 . 131.3(3)
C Mg2 C 4 . 68.8(10)
C Mg2 C 1_445 . 91.2(7)
C Mg2 C 4_445 4_455 91.2(7)
C Mg2 C 4 4_455 91.2(7)
C Mg2 C 1_445 4_455 131.3(3)
C Mg2 C . 4_455 131.3(3)
C Mg2 C 4_445 1_455 131.3(3)
C Mg2 C 4 1_455 131.3(3)
C Mg2 C 1_445 1_455 91.2(7)
C Mg2 C . 1_455 91.2(7)
C Mg2 C 4_455 1_455 68.8(10)
C Mg2 Mg1 4_445 1_444 45.6(4)
C Mg2 Mg1 4 1_444 91.0(5)
C Mg2 Mg1 1_445 1_444 102.8(4)
C Mg2 Mg1 . 1_444 159.8(5)
C Mg2 Mg1 4_455 1_444 45.6(4)
C Mg2 Mg1 1_455 1_444 102.8(4)
C Mg2 Al 4_445 1_444 45.6(4)
C Mg2 Al 4 1_444 91.0(5)
C Mg2 Al 1_445 1_444 102.8(4)
C Mg2 Al . 1_444 159.8(5)
C Mg2 Al 4_455 1_444 45.6(4)
C Mg2 Al 1_455 1_444 102.8(4)
Mg1 Mg2 Al 1_444 1_444 0.0
C Mg2 Mg1 4_445 1_554 91.0(5)
C Mg2 Mg1 4 1_554 45.6(4)
C Mg2 Mg1 1_445 1_554 159.8(5)
C Mg2 Mg1 . 1_554 102.8(4)
C Mg2 Mg1 4_455 1_554 45.6(4)
C Mg2 Mg1 1_455 1_554 102.8(4)
Mg1 Mg2 Mg1 1_444 1_554 60.224(10)
Al Mg2 Mg1 1_444 1_554 60.2
C Mg2 Mg1 4_445 1_445 102.8(4)
C Mg2 Mg1 4 1_445 159.8(5)
C Mg2 Mg1 1_445 1_445 45.6(4)
C Mg2 Mg1 . 1_445 91.0(5)
C Mg2 Mg1 4_455 1_445 102.8(4)
C Mg2 Mg1 1_455 1_445 45.6(4)
Mg1 Mg2 Mg1 1_444 1_445 109.198(14)
Al Mg2 Mg1 1_444 1_445 109.2
Mg1 Mg2 Mg1 1_554 1_445 146.327(6)
C Mg2 Al 4_445 1_445 102.8(4)
C Mg2 Al 4 1_445 159.8(5)
C Mg2 Al 1_445 1_445 45.6(4)
C Mg2 Al . 1_445 91.0(5)
C Mg2 Al 4_455 1_445 102.8(4)
C Mg2 Al 1_455 1_445 45.6(4)
Mg1 Mg2 Al 1_444 1_445 109.198(14)
Al Mg2 Al 1_444 1_445 109.198(14)
Mg1 Mg2 Al 1_554 1_445 146.327(6)
Mg1 Mg2 Al 1_445 1_445 0.0
C Mg2 Al 4_445 1_554 91.0(5)
C Mg2 Al 4 1_554 45.6(4)
C Mg2 Al 1_445 1_554 159.8(5)
C Mg2 Al . 1_554 102.8(4)
C Mg2 Al 4_455 1_554 45.6(4)
C Mg2 Al 1_455 1_554 102.8(4)
Mg1 Mg2 Al 1_444 1_554 60.224(10)
Al Mg2 Al 1_444 1_554 60.224(10)
Mg1 Mg2 Al 1_554 1_554 0.0
Mg1 Mg2 Al 1_445 1_554 146.327(6)
Al Mg2 Al 1_445 1_554 146.327(6)
Li C Mg2 1_655 1_655 0.0
Li C Mg2 1_655 . 91.2
Mg2 C Mg2 1_655 . 91.2(7)
Li C Li 1_655 1_665 91.2(7)
Mg2 C Li 1_655 1_665 91.2(7)
Mg2 C Li . 1_665 91.2
Li C Mg2 1_655 1_665 91.2
Mg2 C Mg2 1_655 1_665 91.2(7)
Mg2 C Mg2 . 1_665 91.2(7)
Li C Mg2 1_665 1_665 0.0
Li C Mg1 1_655 1_655 89.79(2)
Mg2 C Mg1 1_655 1_655 89.79(2)
Mg2 C Mg1 . 1_655 178.5(10)
Li C Mg1 1_665 1_655 89.79(2)
Mg2 C Mg1 1_665 1_655 89.79(2)
Li C Al 1_655 1_655 89.79(2)
Mg2 C Al 1_655 1_655 89.79(2)
Mg2 C Al . 1_655 178.5(10)
Li C Al 1_665 1_655 89.79(2)
Mg2 C Al 1_665 1_655 89.79(2)
Mg1 C Al 1_655 1_655 0.0
Li C Mg1 1_655 . 178.5(10)
Mg2 C Mg1 1_655 . 178.5(10)
Mg2 C Mg1 . . 89.79(2)
Li C Mg1 1_665 . 89.79(2)
Mg2 C Mg1 1_665 . 89.79(2)
Mg1 C Mg1 1_655 . 89.2(7)
Al C Mg1 1_655 . 89.2
Li C Mg1 1_655 1_545 89.79(2)
Mg2 C Mg1 1_655 1_545 89.79(2)
Mg2 C Mg1 . 1_545 89.79(2)
Li C Mg1 1_665 1_545 178.5(10)
Mg2 C Mg1 1_665 1_545 178.5(10)
Mg1 C Mg1 1_655 1_545 89.2(7)
Al C Mg1 1_655 1_545 89.2
Mg1 C Mg1 . 1_545 89.2(7)
Li C Al 1_655 1_545 89.79(2)
Mg2 C Al 1_655 1_545 89.79(2)
Mg2 C Al . 1_545 89.79(2)
Li C Al 1_665 1_545 178.5(10)
Mg2 C Al 1_665 1_545 178.5(10)
Mg1 C Al 1_655 1_545 89.2(7)
Al C Al 1_655 1_545 89.2(7)
Mg1 C Al . 1_545 89.2
Mg1 C Al 1_545 1_545 0.0
loop_
_geom_bond_atom_site_label_1
_geom_bond_atom_site_label_2
_geom_bond_site_symmetry_2
_geom_bond_distance
Mg1 C 4_556 2.277(14)
Mg1 C . 2.277(14)
Mg1 C 4_566 2.277(14)
Mg1 C 1_455 2.277(14)
Mg1 C 4_456 2.277(14)
Mg1 C 1_565 2.277(14)
Mg1 Mg2 . 3.1862(4)
Mg1 Li 1_666 3.1862(4)
Mg1 Mg2 1_666 3.1862(4)
Mg1 Li 1_566 3.1862(4)
Mg1 Li 1_565 3.1862(4)
Mg2 C 4_445 2.237(13)
Mg2 C 4 2.237(13)
Mg2 C 1_445 2.237(13)
Mg2 C . 2.237(13)
Mg2 C 4_455 2.237(13)
Mg2 C 1_455 2.237(13)
Mg2 Mg1 1_444 3.1862(4)
Mg2 Al 1_444 3.1862(4)
Mg2 Mg1 1_554 3.1862(4)
Mg2 Mg1 1_445 3.1862(4)
Mg2 Al 1_445 3.1862(4)
Mg2 Al 1_554 3.1862(4)
C Li 1_655 2.237(13)
C Mg2 1_655 2.237(13)
C Li 1_665 2.237(13)
C Mg2 1_665 2.237(13)
C Mg1 1_655 2.277(14)
C Al 1_655 2.277(14)
C Mg1 1_545 2.277(14)
C Al 1_545 2.277(14)

_cod_database_fobs_code 2021041
