#------------------------------------------------------------------------------
#$Date: 2018-04-30 18:52:31 +0300 (Mon, 30 Apr 2018) $
#$Revision: 207535 $
#$URL: file:///home/coder/svn-repositories/cod/cif/2/02/11/2021102.cif $
#------------------------------------------------------------------------------
#
# This file is available in the Crystallography Open Database (COD),
# http://www.crystallography.net/. The original data for this entry
# were provided by IUCr Journals, http://journals.iucr.org/.
#
# The file may be used within the scientific community so long as
# proper attribution is given to the journal article from which the
# data were obtained.
#
data_2021102
loop_
_publ_author_name
'Baranets, Sviatoslav'
'He, Hua'
'Bobev, Svilen'
_publ_section_title
;
 Niobium-bearing arsenides and germanides from elemental mixtures not
 involving niobium: a new twist to an old problem in solid-state synthesis
;
_journal_coeditor_code           LY3065
_journal_issue                   5
_journal_name_full               'Acta Crystallographica Section C'
_journal_page_first              623
_journal_page_last               627
_journal_paper_doi               10.1107/S2053229618005739
_journal_volume                  74
_journal_year                    2018
_chemical_formula_iupac          'Nb Ni Ge'
_chemical_formula_sum            'Ge Nb Ni'
_chemical_formula_weight         224.21
_chemical_name_systematic
;
Niobium nickel germanide
;
_space_group_crystal_system      orthorhombic
_space_group_IT_number           62
_space_group_name_Hall           '-P 2ac 2n'
_space_group_name_H-M_alt        'P n m a'
_symmetry_space_group_name_Hall  '-P 2ac 2n'
_symmetry_space_group_name_H-M   'P n m a'
_audit_creation_method           SHELXL-2018/1
_cell_angle_alpha                90
_cell_angle_beta                 90
_cell_angle_gamma                90
_cell_formula_units_Z            4
_cell_length_a                   6.2989(8)
_cell_length_b                   3.7613(4)
_cell_length_c                   7.2033(8)
_cell_measurement_reflns_used    791
_cell_measurement_temperature    200(2)
_cell_measurement_theta_max      27.53
_cell_measurement_theta_min      6.53
_cell_volume                     170.66(3)
_computing_cell_refinement
;
SAINT (Bruker, 2007)
;
_computing_data_collection
;
APEX2 (Bruker, 2007)
;
_computing_data_reduction
;
SAINT (Bruker, 2007)
;
_computing_molecular_graphics
;
CrystalMaker (Palmer, 2014)
;
_computing_publication_material
;
publCIF (Westrip, 2010)
;
_computing_structure_refinement
;
SHELXL2018 (Sheldrick, 2015b)
;
_computing_structure_solution
;
SHELXT (Sheldrick, 2015a)
;
_diffrn_ambient_temperature      200(2)
_diffrn_measured_fraction_theta_full 1.000
_diffrn_measured_fraction_theta_max 1.000
_diffrn_measurement_device_type  'Bruker SMART APEXII DUO CCD'
_diffrn_measurement_method       'phi and omega scans'
_diffrn_radiation_type           MoK\a
_diffrn_radiation_wavelength     0.71073
_diffrn_reflns_av_R_equivalents  0.0360
_diffrn_reflns_limit_h_max       7
_diffrn_reflns_limit_h_min       -8
_diffrn_reflns_limit_k_max       5
_diffrn_reflns_limit_k_min       -5
_diffrn_reflns_limit_l_max       9
_diffrn_reflns_limit_l_min       -9
_diffrn_reflns_number            1826
_diffrn_reflns_theta_full        25.242
_diffrn_reflns_theta_max         28.135
_diffrn_reflns_theta_min         4.298
_exptl_absorpt_coefficient_mu    34.407
_exptl_absorpt_correction_T_max  0.50
_exptl_absorpt_correction_T_min  0.19
_exptl_absorpt_correction_type   multi-scan
_exptl_absorpt_process_details
;
(SADABS; Sheldrick, 2003)
;
_exptl_crystal_colour            silver
_exptl_crystal_density_diffrn    8.726
_exptl_crystal_description       needle
_exptl_crystal_F_000             404
_exptl_crystal_size_max          0.065
_exptl_crystal_size_mid          0.025
_exptl_crystal_size_min          0.02
_refine_diff_density_max         1.293
_refine_diff_density_min         -2.255
_refine_ls_extinction_coef       0.038(3)
_refine_ls_extinction_expression Fc^*^=kFc[1+0.001xFc^2^\l^3^/sin(2\q)]^-1/4^
_refine_ls_extinction_method
;
SHELXL2018 (Sheldrick, 2015b)
;
_refine_ls_goodness_of_fit_ref   1.331
_refine_ls_hydrogen_treatment    undef
_refine_ls_matrix_type           full
_refine_ls_number_parameters     20
_refine_ls_number_reflns         240
_refine_ls_number_restraints     0
_refine_ls_restrained_S_all      1.331
_refine_ls_R_factor_all          0.0251
_refine_ls_R_factor_gt           0.0234
_refine_ls_shift/su_max          0.000
_refine_ls_shift/su_mean         0.000
_refine_ls_structure_factor_coef Fsqd
_refine_ls_weighting_details
'w=1/[\s^2^(Fo^2^)+(0.0303P)^2^] where P=(Fo^2^+2Fc^2^)/3'
_refine_ls_weighting_scheme      calc
_refine_ls_wR_factor_gt          0.0581
_refine_ls_wR_factor_ref         0.0588
_reflns_number_gt                230
_reflns_number_total             240
_reflns_threshold_expression     'I > 2\s(I)'
_cod_data_source_file            ly3065sup1.cif
_cod_data_source_block           3
_cod_database_code               2021102
_shelx_space_group_comment
;
The symmetry employed for this shelxl refinement is uniquely defined
by the following loop, which should always be used as a source of
symmetry information in preference to the above space-group names.
They are only intended as comments.
;
_shelx_hkl_file
;
   0  -1   0   -3.94    2.73
   0  -1   0   -9.19    3.75
   0   1   0   -2.59    3.17
   0   1   0    0.53    4.21
   0  -2   0 9990.42  331.79
   0   2   0 9351.57  297.11
   0   2   0 9283.61  322.93
   0  -2   0 9363.34  301.86
   0   3   0   -0.72    5.53
   0   3   0   17.86    7.91
   0  -3   0    4.24    6.43
   0  -3   0   -1.49    4.89
   0  -4   0 6342.14  242.70
   0   5   0   -3.33   10.53
   0  -5   0    2.31   14.39
   1   0   0   -1.92    0.99
  -1   0   0    2.24    2.56
  -1   0   0   -0.66    1.26
  -1   1   0    2.58    2.87
  -1  -1   0    1.61    3.18
  -1  -1   0   10.52    3.67
  -1   1   0    3.54    1.78
   1  -1   0   -3.36    2.57
   1  -1   0    2.06    2.85
  -1  -1   0   -0.50    1.40
   1   1   0    6.96    3.49
  -1   2   0    3.06    4.13
  -1  -2   0    0.87    3.27
  -1   2   0    2.17    3.00
   1  -2   0    2.34    3.60
  -1  -2   0   10.22    3.94
   1   2   0   -0.46    4.88
   1  -2   0    4.31    4.41
   1   2   0    6.45    4.28
   1   3   0   10.59    6.66
   1  -3   0    0.94    6.15
  -1  -3   0   -4.22    5.22
  -1   3   0    2.92    5.81
   1  -3   0   -1.20    4.62
   1   3   0   -7.46    5.44
   1  -4   0   -4.71    6.93
  -1   4   0   -4.20    6.93
   1   4   0   -2.70    6.42
   1  -4   0   23.94   10.73
  -1  -4   0    5.40    7.95
  -2   0   0   69.79   11.86
   2   0   0   80.44    7.90
  -2   0   0   79.27    8.84
  -2   1   0 1533.67   63.49
  -2  -1   0 1576.04   62.19
  -2  -1   0 1574.23   58.67
  -2   1   0 1541.93   52.75
   2  -1   0 1537.88   58.63
   2  -1   0 1478.22   57.79
  -2  -2   0   41.90    9.72
  -2  -2   0   43.99    9.90
  -2   2   0   57.08   11.59
  -2   2   0   62.56    6.87
   2  -2   0   44.77    9.30
   2   2   0   35.16    8.73
   2  -2   0   51.18    9.71
   2   3   0  602.84   36.09
   2  -3   0  574.57   35.49
  -2   3   0  611.12   39.76
  -2  -3   0  538.72   37.13
   2   3   0  557.70   36.14
   2  -3   0  544.29   33.86
  -2   4   0    4.67    9.30
   2  -4   0   35.87   12.80
   2  -4   0   19.08   12.45
   2   4   0   24.63   11.91
  -2  -4   0   15.82    9.59
  -3   0   0    6.02    6.26
   3   0   0   -1.95    2.80
  -3   0   0   -1.93    3.19
  -3   1   0   -0.52    2.96
  -3  -1   0   -3.89    2.84
  -3   1   0   15.55    7.99
   3  -1   0    1.20    4.55
   3  -1   0    8.77    4.65
   3   1   0    1.58    2.63
  -3  -1   0    1.74    3.36
  -3  -2   0    2.25    5.23
   3  -2   0   -0.75    4.73
  -3  -2   0   -0.90    4.67
   3   2   0   24.18    8.93
  -3   2   0   -0.80    5.35
   3  -2   0   -1.04    5.04
  -3   2   0    3.71    3.83
   3   3   0   -5.29    4.73
  -3   3   0    7.27    7.87
   3   3   0  -13.17    8.97
   3  -3   0    4.58    7.35
  -3  -3   0    7.37    7.44
   3  -3   0   -0.70    6.70
   3   4   0  -12.31   15.22
  -3  -4   0    4.06    9.03
   3  -4   0   12.68   10.87
   3   4   0  -24.76    6.58
  -3   4   0   -6.77    7.44
  -4   0   0 2871.00  119.92
   4   0   0 2966.76  102.10
  -4   0   0 2921.34  104.17
  -4   1   0  731.32   32.95
   4  -1   0  677.83   35.56
  -4  -1   0  713.46   36.98
   4   1   0  714.89   28.08
  -4  -1   0  708.78   38.84
  -4   1   0  671.58   43.62
   4  -1   0  639.00   35.38
   4  -2   0 2301.81   88.91
   4  -2   0 2194.06   90.65
  -4  -2   0 2127.52   95.75
  -4   2   0 2218.36  101.29
  -4   2   0 2349.03   80.10
  -4  -2   0 2253.95   91.55
   4   3   0  445.14   41.28
  -4  -3   0  398.62   39.63
  -4   3   0  394.32   42.01
   4  -3   0  424.08   39.52
   4   3   0  486.54   37.36
  -4  -3   0  408.96   38.60
   4   4   0 1148.79   66.20
   4   4   0 1123.15   68.49
  -4   4   0 1054.32   70.34
  -4  -4   0 1078.12   67.49
  -5   0   0    4.56    4.31
   5   0   0    1.05    4.95
   5  -1   0    4.39    6.73
  -5  -1   0    7.05    6.02
  -5   1   0    6.28    5.75
  -5   1   0    8.97   10.20
   5  -1   0    0.57    7.64
  -5   2   0   -8.10    7.02
   5  -2   0    2.23    7.71
  -5  -2   0    3.26    6.45
  -5  -2   0    9.29    8.61
  -5  -3   0  -10.17    7.29
  -5   3   0   -2.67    8.48
   5  -3   0    1.09    8.66
   5   3   0   -3.95    9.57
  -5  -3   0    1.04    6.69
   5  -4   0   -5.72   14.08
  -5   4   0   -4.83   14.39
  -5  -4   0   18.72   14.78
   5   4   0   13.54   23.09
   5   4   0   -4.88   11.94
   6   0   0 1971.90   80.33
  -6   0   0 2075.67   85.46
  -6  -1   0  167.70   23.00
  -6   1   0  180.83   29.87
  -6   1   0  279.27   27.27
   6  -1   0  229.74   26.69
   6  -2   0 1572.52   74.13
  -6  -2   0 1398.58   71.84
  -6   2   0 1445.44   84.95
  -6   3   0   99.25   25.70
   6  -3   0   96.70   22.73
   6   3   0  122.94   27.95
  -6  -3   0   53.24   16.31
  -6  -3   0  133.26   24.57
  -7   0   0   -7.82    6.70
  -7   1   0    5.73    7.70
  -7   1   0  -10.94    7.86
   7  -1   0    7.04    9.22
  -7  -1   0    4.43    9.10
  -7   2   0    6.46   14.80
   7  -2   0   12.05   14.02
  -7  -2   0   15.78    9.21
  -8   0   0  402.36   39.93
  -8  -1   0 4431.82  173.66
   0   0  -1    1.02    1.14
   0   0   1    0.25    1.15
   0  -1  -1   12.80    2.71
   0   1  -1    8.94    3.67
   0  -1   1   11.85    3.90
   0  -1   1    8.20    3.29
   0  -1  -1    6.13    3.77
   0   1  -1   13.27    4.00
   0   1   1    6.00    3.22
   0   1   1    3.60    2.75
   0   2   1   -1.22    3.27
   0  -2  -1    3.30    4.73
   0  -2   1    6.93    4.26
   0   2   1   -1.26    3.32
   0   2   1    1.99    2.78
   0  -2   1    2.94    3.55
   0   2  -1    5.96    4.72
   0   2  -1    2.72    3.95
   0   3   1    4.87    6.06
   0  -3  -1    4.15    4.93
   0   3  -1   -2.20    4.89
   0  -3   1    9.92    6.66
   0  -3  -1   14.14    8.64
   0   3  -1    3.22    5.71
   0  -3   1   12.23    7.67
   0  -4   1    5.02    8.65
   0   4  -1    2.80    7.62
   0  -4  -1   10.75    9.48
   0   4   1   -1.03    8.01
  -1   0   1   11.28    3.74
  -1   0  -1    8.44    3.28
  -1   0   1   26.77    4.97
   1   0  -1   11.76    3.38
  -1   0  -1    2.83    3.86
   1   0   1   11.85    3.49
  -1   0  -1   19.14    2.75
  -1   1  -1   54.59    8.34
   1   1   1   39.49    7.01
   1  -1  -1   59.90    8.89
  -1  -1   1   55.60    5.55
  -1  -1  -1   56.18    7.17
  -1  -1   1   45.65    8.32
   1  -1   1   84.88    9.69
  -1  -1  -1   52.16    8.05
   1   1   1   56.94    5.79
  -1   1  -1   52.79    6.26
   1  -1   1   71.67    7.09
  -1   1   1   69.34    9.21
   1   1  -1   49.83    6.58
   1   1  -1   43.01    6.91
  -1   1   1   62.41    8.63
   1   2   1    9.45    4.81
   1  -2  -1    5.32    5.18
  -1   2   1   13.25    2.59
  -1   2  -1   39.21    8.91
   1   2  -1    7.07    5.28
   1   2  -1   14.01    5.69
  -1   2   1    4.71    4.47
   1  -2   1   14.97    6.09
  -1   2  -1   12.49    4.93
   1  -2   1   20.40    6.24
  -1   2   1    4.26    4.64
  -1  -2   1    5.61    3.46
  -1  -2  -1   10.57    3.48
  -1  -2  -1    9.45    4.61
  -1  -2   1   47.41    9.87
  -1  -2  -1    9.26    5.06
   1  -3  -1   48.87   12.62
  -1  -3   1   54.13    9.19
  -1  -3   1   40.24   11.79
   1  -3   1   93.60   15.81
  -1   3   1   53.53   12.85
   1   3  -1   49.51   12.34
  -1   3  -1   58.45   14.10
   1   3   1   46.23   11.81
   1   3   1   56.65   11.30
   1  -3   1   42.47   11.20
   1  -3  -1   55.55   11.81
  -1   3  -1   56.21   10.27
  -1  -3  -1   38.00   11.69
   1   3  -1   22.65    8.96
   1  -4   1    6.76    9.48
  -1   4  -1   -1.68    7.45
   1  -4  -1   11.94    9.82
   1   4  -1    4.23    9.80
  -1  -4  -1    0.91    8.59
   1   4   1    0.64    8.35
   1  -4   1   -8.03    6.87
   1  -4  -1    3.55    6.51
  -1   4   1    0.96    8.64
  -1  -4   1   -1.93    7.11
  -2   0  -1   62.08   11.69
   2   0   1   76.76    8.32
  -2   0  -1   76.93    6.17
  -2   0   1   74.09    8.65
  -2   0   1   65.22   10.59
  -2   0   1   62.63    8.08
  -2   0  -1   67.22    8.31
   2   1   1 7503.61  223.16
   2  -1  -1 7686.50  249.05
  -2   1  -1 7467.41  224.33
  -2   1   1 6569.83  233.05
  -2   1  -1 7487.00  249.18
  -2  -1   1 6823.92  225.24
  -2  -1   1 7873.36  251.20
  -2  -1  -1 6953.93  227.74
  -2  -1  -1 7344.37  248.14
   2  -1   1 7038.69  231.07
  -2  -1   1 6566.44  229.01
  -2   1   1 7066.22  242.32
   2  -1   1 6762.66  241.70
  -2   1   1 6590.82  221.12
  -2  -2   1   43.18   10.12
   2   2  -1   44.17    9.32
  -2  -2  -1   64.13   11.08
  -2  -2  -1   51.23   10.61
   2   2  -1   41.40   11.13
   2  -2  -1   43.00    9.94
   2  -2   1   42.25    9.66
   2   2   1   43.88   10.38
  -2  -2   1   64.43    6.18
   2  -2  -1   53.24   10.50
  -2   2  -1   46.39    7.55
   2  -2   1   58.70    9.26
  -2   2   1   41.83    9.56
  -2   2  -1   57.87   11.82
   2  -3   1 4017.04  156.18
   2  -3  -1 4145.47  149.29
   2   3   1 4117.67  147.14
   2  -3   1 4018.77  148.13
  -2   3   1 4132.03  160.40
  -2  -3   1 4171.54  162.99
   2  -3  -1 4340.98  161.83
   2   3  -1 4030.95  147.63
  -2  -3  -1 3935.82  161.33
   2   3  -1 4333.03  158.25
   2   3   1 4297.35  159.32
   2   4   1   24.82   11.40
   2  -4  -1   31.30   13.55
   2  -4   1   23.66   10.92
  -2  -4   1   19.77   11.63
  -2  -4  -1   28.41   12.39
   2  -4   1   11.52   11.42
   2   4  -1   15.84   11.78
  -2   4   1   18.97   11.79
  -2   4  -1   18.22   13.04
   2   4  -1   15.70   13.80
   2  -4  -1   28.95   13.40
  -3   0  -1 6073.76  212.88
  -3   0   1 5802.43  191.03
  -3   0   1 6048.29  192.84
  -3   0   1 6162.84  210.21
  -3   0  -1 5460.07  190.67
   3   0   1 5768.40  191.82
  -3  -1   1  872.89   45.11
  -3  -1   1  908.47   41.54
  -3   1   1  916.80   35.58
  -3  -1  -1  861.61   40.72
  -3  -1  -1  832.72   39.69
   3   1   1  878.00   32.30
   3  -1  -1  892.61   44.42
  -3   1   1  936.13   41.62
  -3   1   1  859.87   44.80
   3  -1   1  912.02   34.47
  -3   1  -1  888.97   37.37
   3  -1   1  888.40   40.44
  -3  -1   1  895.65   33.50
  -3   1  -1  985.98   51.14
   3  -2   1 4615.03  160.41
   3   2  -1 4608.45  166.94
  -3   2   1 4543.77  169.86
   3  -2   1 4586.59  163.04
  -3  -2   1 4520.41  160.73
  -3  -2  -1 4629.64  171.67
  -3  -2   1 4744.15  174.37
  -3   2  -1 4460.21  173.06
  -3   2  -1 4670.61  150.04
   3  -2  -1 4563.13  168.88
   3  -2  -1 4485.44  162.21
   3   2   1 4419.72  169.49
  -3  -2  -1 4468.83  158.24
   3   3  -1  438.96   32.83
   3   3   1  397.44   32.17
  -3   3  -1  420.64   41.18
   3   3  -1  389.39   35.72
   3  -3  -1  426.38   31.17
   3  -3   1  439.66   28.67
   3  -3  -1  440.22   32.28
  -3  -3  -1  390.59   35.42
   3  -3   1  490.48   32.83
  -3  -3   1  373.64   37.43
  -3  -3  -1  406.19   31.79
  -3   3   1  440.30   34.07
   3  -4  -1 2017.19   93.74
  -3   4   1 1905.68   97.45
   3  -4   1 1962.35   89.64
   3  -4  -1 2029.68   89.71
  -3  -4  -1 1898.49   95.69
   3   4  -1 1982.97   90.56
   3   4  -1 2039.46   96.04
   3   4   1 1939.28   98.25
  -3  -4   1 1997.23   98.90
  -3   4  -1 1729.07   97.07
   4   0   1  146.97   15.77
  -4   0  -1  133.86   16.24
  -4   0   1  143.00   15.15
  -4   0   1   95.46   17.70
  -4   0   1  164.62   17.49
  -4  -1   1  954.56   36.79
   4  -1   1  907.36   44.60
  -4   1  -1  917.49   41.11
  -4  -1   1  939.88   46.03
  -4   1   1  885.84   50.56
   4   1   1  923.09   35.94
   4  -1   1  887.55   36.88
  -4   1  -1  902.53   55.36
   4  -1  -1  946.31   45.20
  -4  -1  -1  937.01   44.58
   4  -1  -1  929.73   50.58
  -4   1   1  973.07   40.47
  -4  -1  -1  948.07   45.26
   4  -2  -1   74.35   14.51
  -4   2  -1   96.05   19.58
  -4   2  -1  110.68   14.26
  -4  -2   1   68.54   14.78
  -4  -2   1   76.39   15.50
  -4   2   1   56.96   15.06
  -4  -2  -1   93.80   16.31
   4  -2   1   87.49   16.41
   4  -2  -1  112.06   19.39
  -4  -2  -1   78.17   14.82
  -4  -3  -1  397.77   37.68
  -4   3   1  486.16   46.17
  -4  -3  -1  482.49   35.70
   4  -3   1  476.96   36.17
   4   3  -1  493.44   37.37
   4  -3  -1  494.65   34.58
  -4  -3   1  423.77   41.44
  -4   3  -1  532.23   50.94
   4  -3  -1  468.11   43.16
   4   3   1  446.54   43.82
   4   3  -1  468.48   41.99
   4  -4   1   55.92   18.92
  -4   4   1   34.79   14.54
   4   4  -1   59.73   23.01
   4   4   1   57.08   18.00
  -4  -4   1   29.94   11.80
  -4  -4  -1   39.65   15.58
   4  -4  -1   59.61   18.28
  -4   4  -1   36.42   16.85
   4   4  -1   29.26   16.91
   5   0  -1  214.17   21.14
  -5   0   1  214.54   22.43
   5   0   1  178.44   19.74
  -5   0  -1  210.75   22.32
  -5   0   1  148.04   24.04
  -5   1   1 3036.12  108.73
  -5   1  -1 2949.42  134.74
   5  -1   1 3040.89  115.43
  -5  -1   1 2999.09  115.82
  -5   1   1 2901.54  128.34
  -5  -1  -1 3143.16  122.55
  -5   1  -1 3092.27  110.81
   5  -1  -1 3092.72  116.94
   5  -1  -1 3179.26  128.82
  -5  -1  -1 3025.81  116.41
   5  -2  -1  156.68   23.21
  -5  -2  -1  142.52   21.70
  -5   2  -1  151.28   17.70
   5  -2  -1  113.88   18.58
  -5  -2  -1  113.95   18.19
   5  -2   1  124.67   20.84
  -5   2   1  143.65   25.94
  -5  -2   1  119.29   21.70
  -5   2  -1  132.15   25.75
  -5  -2   1   95.30   19.06
  -5   3  -1 1662.45   92.99
   5  -3   1 1747.61   82.77
  -5   3   1 1514.02   85.94
  -5  -3  -1 1654.93   82.45
   5   3   1 1572.25   86.06
   5   3  -1 1622.85   83.21
   5  -3  -1 1726.18   82.55
  -5  -3   1 1487.18   82.93
   5   3  -1 1683.07   82.55
  -5  -3  -1 1480.72   75.56
  -6   0  -1 2355.07   93.99
  -6   0   1 2212.02   91.30
   6   0  -1 2270.04   89.23
   6   0   1 2280.20   89.74
   6  -1  -1  749.54   44.03
  -6   1  -1  735.95   41.16
  -6   1   1  767.95   40.37
  -6   1  -1  634.04   52.19
  -6  -1   1  776.09   44.84
  -6  -1  -1  756.42   46.09
   6  -1   1  721.08   43.70
  -6   1   1  775.65   52.72
  -6  -2   1 1834.68   84.26
   6  -2  -1 1735.13   82.84
  -6  -2  -1 1717.47   84.34
  -6   2   1 1795.94   94.96
  -6   2  -1 1686.51   96.09
   6  -2   1 1730.80   82.92
  -6  -2  -1 1755.19   83.01
  -6   3   1  460.85   53.98
   6   3  -1  444.15   48.08
  -6  -3  -1  423.14   35.36
   6  -3  -1  475.42   48.45
  -6   3  -1  434.91   53.26
   6  -3   1  547.25   52.69
   6   3  -1  460.10   49.74
  -6  -3  -1  452.92   43.99
   6   3   1  481.15   54.15
  -7   0  -1  258.16   30.45
  -7   0   1  233.29   27.32
  -7   1  -1   51.31   14.70
  -7   1  -1   25.95   16.34
  -7   1   1   38.49   17.58
  -7  -1  -1   40.37   13.85
  -7  -1   1   33.23   11.93
   7  -1   1   42.59   13.78
   7  -1  -1   39.96   14.06
   7  -2  -1  240.58   33.93
  -7   2   1  182.91   33.79
  -7  -2   1  249.50   33.30
   7  -2   1  260.16   35.81
  -7   2  -1  192.96   34.82
  -7  -2  -1  253.06   33.35
  -8   0   1    5.90    9.29
  -8   0  -1   -0.11    8.40
  -8   1   1  273.44   39.14
  -8  -1  -1  368.52   42.37
  -8  -1   1  312.21   35.86
   0   0  -2   74.58    7.90
   0  -1  -2   -3.20    3.71
   0   1   2   -4.60    2.52
   0  -1  -2    1.13    2.36
   0  -1   2   -3.08    2.57
   0   1  -2   -3.20    3.43
   0  -1   2   -2.51    3.17
   0   1  -2   -0.65    2.88
   0   1   2    1.51    3.98
   0   2   2    6.13    5.19
   0  -2   2    8.28    5.03
   0   2   2    2.65    4.19
   0   2  -2   11.44    6.17
   0   2  -2    6.53    4.46
   0  -2  -2    6.05    6.18
   0  -2   2    2.74    5.39
   0  -2  -2   15.55    3.88
   0   3  -2   -3.50    5.70
   0  -3  -2   12.47    7.79
   0   3   2    3.93    6.23
   0  -3   2    5.45    5.65
   0  -3   2    9.38    6.39
   0   3  -2   -5.12    6.52
   0  -3  -2    0.77    6.83
   0  -4  -2   16.32   11.22
   0   4   2   10.76    6.86
   0   4  -2    3.19    8.85
   0  -4   2   12.23   10.16
   1   0  -2  359.41   17.30
  -1   0   2  380.26   15.27
   1   0   2  357.38   17.91
  -1   0  -2  313.76   17.05
  -1   0   2  387.72   19.43
  -1   0  -2  355.07   16.48
   1   1  -2 5419.08  185.00
  -1  -1  -2 5643.57  176.57
   1  -1  -2 5812.33  197.24
  -1   1  -2 5158.11  192.72
  -1  -1  -2 5581.18  195.21
   1   1   2 5667.94  190.08
   1   1  -2 5249.12  179.52
   1  -1   2 5654.29  191.84
   1   1   2 5179.92  180.06
   1  -1   2 5800.92  181.89
  -1   1   2 5334.55  189.46
  -1   1  -2 5663.43  177.95
   1  -1  -2 5643.96  171.02
  -1  -1   2 5740.48  178.59
  -1   2  -2  267.94   17.95
  -1  -2   2  195.16   22.01
  -1   2   2  280.01   19.80
  -1  -2  -2  261.76   21.47
   1   2  -2  274.21   19.32
   1  -2  -2  263.73   25.10
   1   2   2  232.15   14.81
  -1   2   2  278.92   21.22
   1   2   2  261.27   19.46
   1  -2   2  264.05   18.46
   1  -2   2  278.75   19.48
  -1  -2  -2  266.08   16.77
  -1  -2   2  224.86   15.34
  -1   2  -2  267.88   20.57
   1   2  -2  290.21   18.84
   1  -3  -2 2959.86  120.87
   1   3   2 2886.33  116.44
  -1   3   2 2771.29  116.96
  -1  -3  -2 2854.83  120.24
   1  -3   2 2876.29  114.57
   1   3  -2 2901.48  114.62
  -1   3  -2 3016.43  104.36
  -1  -3   2 2905.17  101.43
  -1   3  -2 2814.33  116.82
   1   3  -2 2904.48  107.52
   1  -3   2 2815.54  106.99
   1  -3  -2 2882.43  107.82
  -1  -3   2 2862.34  119.81
   1   4  -2   91.35   19.73
   1  -4   2  118.25   19.84
   1  -4  -2  127.57   19.68
  -1   4   2   89.93   18.30
   1   4  -2  121.09   20.71
  -1  -4  -2  111.63   23.94
  -1   4  -2  101.34   20.63
   1  -4   2  132.61   20.14
   1  -4  -2  160.55   25.63
  -1  -4   2  114.34   21.48
   1   4   2  133.17   23.21
   2   0  -2 2693.90   90.75
  -2   0   2 2861.86   98.08
   2   0   2 2576.91   92.50
  -2   0  -2 2751.43   93.26
  -2   0   2 2651.38   94.72
  -2   0  -2 2547.84   91.94
   2  -1   2  228.44   17.09
   2   1  -2  233.37   16.88
  -2  -1  -2  262.55   16.87
  -2   1  -2  278.87   27.74
  -2   1   2  260.75   18.85
  -2   1  -2  247.13   16.24
  -2  -1  -2  275.29   16.90
   2   1   2  246.27   14.34
  -2   1   2  276.52   17.86
   2  -1  -2  255.38   20.68
   2  -1  -2  272.93   12.79
  -2  -1   2  262.75   14.57
   2  -2   2 1922.58   73.06
  -2  -2   2 1945.86   66.23
  -2  -2   2 1887.66   81.39
   2   2  -2 1827.27   73.90
  -2  -2  -2 1763.30   78.55
  -2  -2  -2 1926.56   72.46
   2   2   2 1880.00   64.77
   2  -2   2 1878.65   73.87
  -2   2  -2 1966.89   82.27
  -2   2  -2 1861.37   69.08
   2   2   2 1901.97   79.37
  -2   2   2 1889.64   78.10
   2   2  -2 1841.05   74.55
  -2   2   2 1988.48   79.12
   2  -2  -2 1779.36   79.89
   2  -3  -2  117.32   18.90
   2  -3  -2   90.16   17.70
  -2   3  -2   95.29   17.33
   2  -3   2   71.99   14.62
   2   3  -2  102.72   17.89
  -2  -3  -2  102.98   18.07
  -2   3   2  114.83   18.85
  -2  -3  -2  148.29   18.02
   2   3   2   78.12   16.75
  -2   3  -2   95.25   13.21
  -2  -3   2  114.30   20.18
   2  -3   2  120.32   16.31
   2   3  -2   95.35   15.83
  -2   4   2  713.33   50.08
  -2  -4  -2  757.99   52.11
  -2   4  -2  746.39   51.15
   2   4   2  732.74   51.26
   2   4  -2  793.64   49.57
  -2  -4   2  804.39   53.59
   2  -4  -2  754.06   51.78
   2  -4   2  852.44   48.03
   2  -4  -2  764.28   47.15
   2   4  -2  903.48   52.93
  -3   0   2 3539.09  122.01
  -3   0   2 3697.72  130.98
   3   0   2 3254.99  119.34
  -3   0   2 3649.78  119.46
  -3   0  -2 3518.71  122.44
  -3   0  -2 3404.04  120.89
   3   1  -2  192.38   20.69
  -3  -1  -2  184.60   18.66
  -3   1   2  200.47   21.13
   3  -1  -2  186.32   24.48
  -3  -1   2  233.26   15.52
  -3   1  -2  178.30   25.78
   3  -1   2  220.10   20.79
  -3   1   2  193.05   20.69
  -3   1   2  199.29   13.02
  -3  -1  -2  240.82   16.90
   3   1   2  235.37   13.96
  -3   1  -2  211.65   18.67
  -3   2  -2 2564.75  112.35
  -3  -2  -2 2582.78  105.03
  -3   2   2 2616.96  104.35
   3   2  -2 2588.76  101.31
  -3   2   2 2694.92  103.37
  -3  -2   2 2656.15  111.64
  -3   2  -2 2634.16   93.27
   3  -2  -2 2575.44  107.87
  -3  -2  -2 2649.69   98.67
   3   2  -2 2535.68  100.63
   3  -2   2 2648.93  100.72
   3   2   2 2698.50  108.22
   3  -3  -2   75.06   16.69
  -3   3  -2   51.47   15.36
   3   3   2   88.70   18.17
   3   3  -2   84.85   16.48
   3   3  -2   56.90   16.06
  -3  -3   2   83.23   18.13
   3  -3   2   65.40   15.14
  -3  -3  -2   99.41   18.13
   3  -3  -2   76.97   17.84
  -3  -3  -2   71.34   14.78
  -3   3   2  103.79   20.27
   3   4  -2 1245.18   66.75
  -3   4   2 1073.26   66.70
   3   4  -2 1176.53   65.58
   3   4   2 1184.93   68.86
  -3   4  -2 1129.27   70.58
   3  -4   2 1124.80   61.08
  -3  -4   2  936.81   63.71
   3  -4  -2 1154.87   62.40
  -3  -4  -2 1117.20   66.56
  -4   0  -2 1755.70   70.49
  -4   0   2 1746.90   68.86
   4   0   2 1657.90   67.61
  -4   0   2 1740.05   78.44
  -4   0   2 1846.87   69.54
   4  -1  -2  632.61   45.90
  -4  -1  -2  699.93   37.44
  -4  -1   2  739.85   32.33
  -4   1  -2  709.82   35.59
  -4  -1  -2  683.14   35.28
  -4   1   2  693.23   38.39
  -4   1   2  671.95   41.52
   4   1   2  677.90   30.84
  -4   1  -2  670.22   49.11
   4  -1   2  689.64   37.60
  -4   1   2  712.41   32.79
  -4  -1   2  699.92   38.39
   4   2  -2 1156.94   59.95
  -4   2   2 1171.62   59.29
  -4   2   2 1190.09   62.00
   4  -2  -2 1178.17   62.42
   4  -2   2 1182.84   57.88
  -4  -2  -2 1174.92   57.92
  -4  -2  -2 1178.56   56.92
  -4   2  -2 1214.43   51.05
   4   2  -2 1230.06   58.45
  -4   2  -2 1181.65   69.56
   4  -3  -2  368.11   39.29
   4   3   2  372.89   40.47
  -4   3   2  405.62   40.84
   4  -3  -2  314.22   34.07
  -4  -3  -2  398.74   37.55
   4  -3   2  324.46   35.26
   4   3  -2  469.52   42.11
  -4  -3  -2  284.51   31.81
  -4  -3   2  288.05   36.35
  -4   3  -2  372.35   44.20
   4   3  -2  411.52   32.27
   4   4  -2  547.94   51.88
  -4  -4  -2  534.03   41.58
  -4   4  -2  512.07   55.76
   4  -4  -2  505.26   49.35
  -4  -4   2  404.82   45.65
   4   4   2  550.01   54.83
  -4   4   2  514.67   52.35
  -5   0   2  720.20   39.03
  -5   0   2  753.46   38.18
   5   0   2  744.48   38.71
  -5   0  -2  729.43   40.41
  -5   0   2  778.71   47.03
  -5  -1   2 4223.42  149.06
   5  -1   2 4109.49  148.65
  -5   1   2 4262.81  140.77
  -5   1   2 3999.76  149.13
  -5  -1  -2 4182.59  149.83
   5  -1  -2 3839.29  168.51
  -5  -1  -2 3949.10  151.19
  -5   1   2 4125.67  161.91
  -5   1  -2 4027.77  143.52
  -5   1  -2 3967.06  170.48
  -5   2  -2  464.36   51.10
  -5  -2  -2  513.47   35.48
   5  -2  -2  548.15   40.10
  -5   2   2  476.26   46.09
  -5  -2  -2  514.22   36.16
  -5   2  -2  508.83   31.29
   5  -2   2  515.43   44.72
   5  -2  -2  506.32   40.00
   5   2  -2  522.29   44.99
   5  -3  -2 2395.43  107.85
  -5   3   2 2322.67  113.58
  -5  -3  -2 2383.95  107.09
   5   3   2 2343.97  113.36
   5   3  -2 2449.49  106.71
   5   3  -2 2434.82  107.41
  -5  -3   2 2270.70  114.32
  -5  -3  -2 2397.16  103.05
  -5   3  -2 2144.57  117.47
  -6   0   2   17.63    9.49
  -6   0  -2   14.20    8.32
   6   0  -2   25.02   11.27
   6   0   2   20.01    9.79
  -6  -1   2  607.10   38.54
  -6   1  -2  568.75   35.42
  -6  -1  -2  502.64   37.12
   6  -1  -2  563.36   53.64
   6  -1  -2  591.01   40.61
  -6   1   2  518.53   49.21
  -6   1  -2  534.40   57.87
   6  -1   2  579.07   38.58
  -6   2   2   17.47   13.21
   6   2  -2   34.08   17.14
   6  -2  -2   -2.66    8.80
  -6   2  -2   21.12   15.63
   6  -2   2   16.45   12.78
  -6  -2  -2   19.05   12.46
   6  -3  -2  353.78   41.20
   6   3  -2  380.56   44.38
   6  -3   2  398.62   44.53
   6   3   2  258.86   39.51
  -6   3  -2  347.05   48.35
  -6  -3  -2  313.50   37.58
  -6   3   2  334.07   43.35
  -6  -3  -2  373.18   38.53
  -7   0   2 1329.63   66.19
  -7   0  -2 1457.10   71.06
  -7  -1   2   40.71   11.92
  -7   1  -2   19.68   10.08
  -7  -1  -2   61.00   16.58
  -7   1   2   21.70   15.16
  -7   1  -2   43.47   18.33
   7  -1   2   40.88   13.90
   7  -1  -2   43.26   14.85
  -7   2   2  948.60   68.89
   7  -2   2 1110.37   64.94
  -7  -2  -2 1105.83   64.37
   7  -2  -2 1170.62   66.02
  -7   2  -2 1160.06   79.06
   7   2  -2 1090.78   65.75
  -8   0   2  171.48   25.78
  -8   0  -2  151.43   26.06
  -8   1  -2   22.46   14.55
  -8  -1   2   35.79   14.45
  -8   1   2   19.02   14.84
  -8  -1  -2  -10.92   11.17
   0   0  -3    0.22    3.02
   0   0  -3    4.62    4.15
   0   0   3    0.84    3.28
   0  -1   3 7819.42  242.25
   0   1  -3 7591.44  251.33
   0  -1  -3 7948.40  264.35
   0  -1  -3 7527.77  234.64
   0   1   3 6374.67  245.89
   0   1   3 7510.16  251.81
   0   1  -3 7502.24  239.68
   0  -2  -3    2.85    5.28
   0   2  -3    3.33    3.78
   0   2   3    1.44    3.72
   0  -2   3   -4.79    3.50
   0   2  -3    0.56    4.92
   0   2   3   -0.12    4.78
   0  -2  -3    2.33    2.86
   0  -2   3   -1.90    3.93
   0  -3  -3 4172.35  165.60
   0   3   3 4171.93  147.52
   0  -3   3 4225.01  161.47
   0  -3   3 4198.16  146.07
   0   3   3 3913.36  157.01
   0   3  -3 4193.88  156.43
   0   3  -3 4145.49  146.46
   0  -4  -3   -8.00    7.47
   0   4   3   -1.11    5.63
   0  -4   3    1.94    7.77
   0   4  -3    0.00   10.32
   0   4  -3    3.85    8.91
   1   0  -3 3170.62  101.87
  -1   0  -3 2959.38  108.99
  -1   0   3 3195.95  100.39
  -1   0  -3 2847.20  102.29
   1   0   3 2924.22  104.77
  -1   0   3 2936.62  104.82
   1   1  -3 2097.48   70.00
  -1  -1   3 2011.55   73.41
  -1  -1  -3 1971.56   71.62
   1   1   3 2044.60   75.45
   1   1   3 1995.46   77.36
  -1   1   3 2124.12   76.13
  -1   1  -3 1912.85   73.74
   1  -1  -3 1978.96   67.73
  -1  -1  -3 2156.22   80.79
   1  -1   3 2050.52   75.67
   1  -1  -3 1923.92   82.33
  -1   1   3 2078.93   79.77
  -1   1  -3 2067.37   81.36
   1   1  -3 2060.58   75.87
   1   2   3 2394.86   91.99
  -1  -2   3 2439.86   89.20
  -1   2  -3 2502.26   91.60
   1   2  -3 2639.97   93.56
   1   2   3 2467.75   97.25
   1   2  -3 2420.88   93.47
   1  -2   3 2560.36   97.84
  -1  -2  -3 2513.52   87.70
  -1   2  -3 2441.56   98.96
  -1   2   3 2413.54   96.04
  -1  -2  -3 2551.10  101.80
   1  -2  -3 2548.46  103.33
  -1  -2   3 2503.06  103.29
   1  -2   3 2605.51   93.72
  -1   2   3 2413.25   97.21
   1   3   3 1051.46   46.68
  -1   3   3 1035.68   50.91
  -1   3  -3 1009.93   53.99
  -1   3  -3  980.84   49.02
   1   3  -3 1109.73   52.79
   1   3  -3 1080.44   52.28
  -1  -3  -3 1090.81   58.83
  -1   3   3 1124.06   57.69
  -1  -3   3  999.02   46.16
   1  -3  -3 1034.17   57.56
  -1  -3   3  951.50   53.97
   1   3   3  954.31   53.41
   1  -3   3 1046.45   53.03
   1  -3   3 1050.53   50.34
   1   4  -3 1109.79   61.61
   1  -4   3 1124.49   56.92
   1   4   3 1080.75   62.83
  -1   4  -3 1112.45   63.93
  -1   4   3 1048.95   62.11
  -1  -4   3 1101.28   63.36
  -1  -4  -3 1052.77   65.61
   1   4  -3 1088.74   58.24
   1  -4  -3 1154.13   67.98
   2   0   3  681.96   32.20
   2   0  -3  669.56   30.92
  -2   0   3  710.71   34.10
  -2   0  -3  676.70   27.68
  -2   0   3  664.56   29.82
  -2   0  -3  603.35   30.76
   2  -1  -3 1687.74   77.50
   2  -1  -3 1725.43   59.20
  -2   1  -3 1708.94   65.34
  -2   1   3 1707.93   71.32
   2   1  -3 1724.48   66.88
  -2  -1  -3 1772.31   65.44
   2   1  -3 1691.31   60.71
  -2  -1  -3 1699.30   68.12
  -2  -1   3 1746.89   64.07
  -2   1   3 1768.72   67.11
   2   1   3 1630.04   63.84
  -2   1  -3 1699.91   76.72
   2   2   3  386.12   23.53
   2  -2  -3  377.16   29.68
  -2   2  -3  385.10   24.91
  -2  -2  -3  413.32   27.95
  -2  -2   3  410.50   22.79
   2  -2   3  410.09   23.27
   2  -2   3  405.58   27.36
  -2  -2  -3  401.81   24.63
  -2  -2   3  370.21   30.62
  -2   2  -3  422.70   31.22
  -2   2   3  479.23   28.47
  -2   2   3  412.33   28.58
   2   2  -3  399.60   22.94
   2   2   3  394.71   28.64
   2   2  -3  395.23   27.72
  -2  -3  -3  930.64   45.23
   2   3   3  875.58   51.01
  -2   3   3  867.78   49.77
  -2  -3  -3  816.87   50.39
  -2   3   3  826.67   46.85
   2   3  -3  858.15   48.94
  -2  -3   3  843.22   52.55
   2  -3  -3  860.40   52.54
   2  -3   3  918.82   47.36
   2   3  -3  906.92   46.25
  -2   3  -3  897.15   43.66
  -2   3  -3  895.91   53.01
   2   4  -3  140.62   24.67
  -2   4   3  145.76   24.63
   2  -4  -3  175.03   28.15
   2  -4   3  202.99   26.32
  -2   4  -3  178.68   29.98
  -2  -4   3  109.97   21.05
   2  -4  -3  138.10   23.21
   2   4   3  113.47   22.57
  -2  -4  -3  175.47   28.66
  -3   0  -3 2777.77   99.99
   3   0   3 2701.97   99.72
  -3   0  -3 2811.80   97.35
  -3   0   3 2706.02  104.16
   3   0  -3 2770.35   97.54
  -3   0   3 2791.72  102.81
  -3   1  -3   27.31   12.86
   3  -1  -3   21.67   11.98
  -3   1   3   15.25    6.00
  -3   1  -3   11.79    5.79
   3   1  -3   15.97    7.96
   3  -1  -3   21.26    6.41
  -3  -1  -3   12.34    5.38
   3  -1   3   17.74    7.15
  -3  -1   3   18.11    6.69
   3   1   3   16.03    6.27
  -3   1   3   24.80    8.29
  -3  -1  -3   17.54    6.79
  -3   2  -3 2046.61   78.64
   3   2  -3 2034.78   80.38
  -3   2   3 2031.71   85.96
   3   2  -3 2001.83   83.78
   3  -2   3 2153.75   84.99
  -3  -2  -3 2039.50   86.62
  -3   2  -3 2080.79   97.66
   3  -2  -3 2034.68   94.02
  -3   2   3 2067.45   87.62
  -3  -2  -3 2040.02   81.46
   3   2   3 2011.82   90.00
  -3  -3  -3   17.15    8.98
  -3  -3   3    3.58    9.25
  -3  -3  -3   14.61    9.06
   3   3   3   13.91   10.28
   3   3  -3   18.37   12.31
  -3   3   3   -8.18    5.43
  -3   3   3   17.57    9.52
  -3   3  -3    6.77   10.14
  -3   3  -3   17.28    8.57
   3  -3   3    6.36    8.61
   3  -3  -3    2.96    8.71
  -3   4  -3 1000.48   68.00
  -3   4   3  967.48   63.13
  -3  -4   3  966.66   65.09
   3   4   3 1073.54   66.11
   3  -4  -3 1052.49   65.03
   3   4  -3 1052.08   63.25
  -3  -4  -3  990.23   62.65
   3  -4  -3 1073.69   62.48
   3  -4   3 1123.58   58.67
   4   0   3   10.75    7.78
  -4   0   3   22.42    8.82
  -4   0  -3   10.83    7.03
  -4   0   3   11.21    6.33
   4   0  -3    9.48    7.49
  -4  -1  -3   87.11   12.64
  -4  -1   3  182.03   19.49
  -4  -1  -3   99.04   15.91
  -4   1  -3  116.30   23.64
   4  -1  -3   86.20   22.06
  -4   1   3   92.04   15.60
   4  -1  -3   61.60   10.97
   4   1  -3  109.06   17.62
  -4   1  -3  108.22   15.44
  -4   1   3   82.83   15.31
   4   1   3   90.32   12.88
   4  -1   3   82.99   14.55
  -4  -2  -3   -0.82    5.32
   4  -2  -3   10.06   11.14
   4   2  -3   -7.36    5.01
  -4   2   3   14.23    8.37
   4  -2   3    1.81    7.00
  -4   2  -3   11.09    6.12
   4   2  -3    0.83    8.04
  -4   2   3   13.62    8.00
  -4   2  -3    3.21    9.77
  -4  -2  -3   11.19    7.78
  -4   3   3   76.89   18.36
   4  -3   3   42.59   14.15
  -4  -3  -3   63.29   16.19
  -4  -3  -3   51.01   13.65
   4  -3  -3   66.34   17.67
   4  -3  -3  142.95   24.56
  -4   3  -3   57.82   19.03
   4   3  -3   89.46   21.26
   4   3   3   56.69   16.45
  -4   4  -3   23.37   15.66
  -4   4   3    5.34   10.31
   4  -4  -3   23.45   15.29
  -4  -4   3    1.75    9.68
   4   4  -3  -13.57   19.35
   4  -4  -3   -0.57    9.47
  -4  -4  -3   17.00    9.50
   4  -4   3   16.70   12.92
   4   4   3    7.75   12.67
  -5   0  -3  391.06   29.12
   5   0  -3  396.88   29.29
   5   0   3  430.60   29.47
  -5   0   3  415.20   28.18
  -5   1  -3  732.76   56.41
  -5   1  -3  716.97   39.49
   5   1  -3  727.22   43.89
  -5  -1  -3  678.04   41.48
  -5   1   3  702.19   42.64
   5  -1  -3  660.16   52.55
   5  -1  -3  702.18   36.83
   5  -1   3  694.77   41.61
  -5   1   3  713.75   45.16
  -5   2   3  392.13   40.01
   5  -2  -3  357.34   45.14
  -5   2   3  333.29   35.60
  -5   2  -3  347.05   30.63
  -5  -2  -3  288.67   31.74
  -5  -2  -3  306.78   30.66
   5  -2   3  264.04   31.75
  -5   2  -3  382.60   48.69
   5   2  -3  344.82   35.90
   5   3  -3  523.98   51.26
   5  -3  -3  396.75   44.37
   5  -3   3  457.59   44.58
  -5   3  -3  485.89   55.21
  -5  -3  -3  470.77   43.86
   5  -3  -3  404.17   46.95
   5   3   3  412.12   47.17
  -5  -3  -3  468.79   35.89
  -5   3   3  489.63   48.54
  -6   0   3  784.02   43.05
   6   0   3  699.22   43.37
   6   0  -3  754.13   44.99
  -6   0  -3  783.40   45.56
   6  -1  -3  281.96   40.13
  -6   1   3  284.58   34.75
   6  -1   3  291.15   31.42
  -6  -1  -3  295.11   33.82
   6   1  -3  248.50   31.65
  -6   1  -3  296.49   41.93
  -6   1   3  266.20   30.13
  -6   1  -3  356.35   33.26
   6   2  -3  671.44   48.04
   6  -2   3  603.56   43.60
   6  -2  -3  603.50   61.79
  -6   2   3  583.26   46.70
  -6  -2  -3  591.83   43.61
   6  -2  -3  619.51   44.44
  -6   2  -3  499.98   58.64
  -6   2  -3  653.54   39.14
  -6   3   3  138.80   28.58
   6   3   3  146.47   28.39
  -6  -3  -3  157.74   28.78
  -6   3  -3  166.53   37.17
   6  -3   3  152.81   27.63
   6  -3  -3  145.05   28.13
   6   3  -3  157.99   34.49
  -7   0  -3 1959.39   89.93
   7   0  -3 1968.69   89.26
   7  -1  -3  482.81   45.14
  -7  -1  -3  559.41   50.14
   7   1  -3  506.64   47.33
  -7   1  -3  499.44   35.75
   7  -1   3  481.88   43.64
   7   2  -3 1534.94   82.41
   7  -2  -3 1542.51   81.63
  -7   2  -3 1622.15  102.47
  -7   2   3 1618.23   89.74
  -7  -2  -3 1522.22   81.37
   7  -2   3 1563.80   82.12
   0   0   4 4096.32  138.39
   0   0  -4 4162.45  153.30
   0   0   4 4110.10  142.62
   0   0  -4 4104.09  138.36
   0  -1   4    2.66    3.66
   0   1   4    1.31    2.96
   0  -1  -4    2.36    3.69
   0   1   4   -2.65    5.04
   0   1  -4   -1.59    4.05
   0   1  -4    8.83    5.40
   0  -1  -4    3.59    5.27
   0   2  -4 3405.16  129.19
   0   2  -4 3607.47  127.78
   0   2   4 3507.00  132.53
   0  -2   4 3613.45  126.41
   0  -2  -4 3447.49  139.96
   0   2   4 3541.98  132.13
   0  -2  -4 3614.42  118.26
   0   3  -4    0.17    7.22
   0   3   4    4.85    6.04
   0  -3  -4   -6.24    6.12
   0  -3   4    5.89    7.67
   0   3   4   -0.10    5.84
   0   3  -4  -15.48    6.96
   0  -3   4    9.77    6.76
   0   4  -4 1480.11   72.11
   0  -4   4 1514.19   80.18
   0   4   4 1438.56   78.01
   0  -4  -4 1625.73   85.80
  -1   0   4  330.89   21.93
   1   0  -4  342.70   20.65
  -1   0  -4  320.83   21.32
   1   0   4  348.20   22.72
  -1   0  -4  343.78   21.31
  -1   1   4  778.90   41.91
   1  -1   4  796.07   38.49
  -1   1  -4  770.10   39.01
   1   1  -4  850.67   39.74
  -1  -1  -4  843.50   41.03
   1   1   4  825.70   39.91
  -1   1  -4  786.28   38.15
   1  -1  -4  747.62   32.41
  -1   1   4  776.61   34.96
   1   1   4  799.81   37.44
  -1  -1  -4  753.18   35.15
  -1  -1   4  788.41   37.30
   1  -1  -4  748.44   42.69
  -1  -2   4  217.57   20.46
  -1  -2  -4  195.86   18.27
   1  -2  -4  180.40   24.27
   1   2   4  203.34   21.76
  -1   2   4  272.75   25.41
   1   2  -4  204.84   15.74
   1   2  -4  179.96   21.88
   1  -2   4  222.75   23.11
  -1  -2  -4  221.78   25.12
  -1   2  -4  209.10   22.44
  -1   2  -4  210.82   23.44
   1   2   4  224.06   24.18
  -1   2   4  209.68   25.55
   1  -3  -4  469.98   44.90
   1  -3   4  486.44   35.10
   1   3  -4  454.09   33.98
  -1  -3   4  539.29   31.34
  -1   3   4  481.80   33.84
   1   3   4  484.11   35.35
  -1  -3   4  489.11   38.91
  -1   3  -4  499.66   33.82
  -1  -3  -4  573.97   40.60
  -1   3  -4  532.82   36.70
  -1   3   4  438.82   34.33
   1  -3   4  476.93   32.50
   1   4  -4   95.03   20.36
   1   4   4   58.11   15.80
  -1  -4  -4   44.13   15.93
  -1  -4   4   53.07   16.20
   1  -4   4   61.55   15.29
   1  -4  -4   67.68   18.96
  -1   4   4   68.40   16.72
   2   0  -4 1011.34   44.02
  -2   0   4 1012.83   39.53
   2   0   4 1019.72   46.46
  -2   0   4 1056.60   49.10
  -2   0  -4  937.71   44.32
  -2   0  -4  991.14   42.09
   2  -1   4   49.57   11.19
  -2  -1  -4   45.46    9.58
  -2   1  -4   69.09   14.70
  -2   1   4   49.75    8.70
  -2  -1  -4   60.16   10.83
   2  -1  -4   49.76    8.80
  -2  -1   4   50.48    9.96
   2   1   4   52.91   10.77
  -2   1  -4   55.36   11.26
   2  -1  -4   71.40   16.61
   2   1  -4   44.11   11.05
  -2   1  -4   60.86    8.13
  -2   1   4   49.03   12.17
   2   2   4  688.16   38.74
  -2   2  -4  730.33   45.66
  -2  -2   4  695.38   35.86
  -2  -2  -4  650.33   35.36
  -2   2   4  719.09   42.69
  -2   2  -4  656.44   37.09
  -2   2   4  658.96   37.33
   2   2   4  730.37   41.68
  -2  -2  -4  709.46   40.89
   2  -2   4  717.78   40.69
   2   2  -4  721.40   40.96
   2  -2  -4  675.47   45.78
  -2  -3  -4   34.66   12.89
   2   3  -4   55.55   15.43
  -2   3  -4   43.25   16.35
  -2   3   4   23.40   10.29
   2  -3   4   29.93   11.40
  -2   3  -4   29.67   10.78
  -2   3   4   30.79   11.86
   2   3   4   39.87   12.88
   2  -3  -4   35.41   14.32
  -2   4   4  260.20   33.93
  -2  -4  -4  256.78   35.99
   2  -4   4  273.96   32.41
   2   4   4  293.37   37.91
   2   4  -4  306.28   35.88
  -2  -4   4  300.42   40.61
   2  -4  -4  256.79   32.14
   2  -4  -4  231.28   34.03
  -2   4  -4  239.21   35.51
  -3   0  -4    9.22    6.61
   3   0   4   -1.41    5.83
  -3   0   4   -1.22    4.07
  -3   0   4   13.75    7.03
   3   0  -4    5.93    6.88
  -3  -1  -4 5454.22  205.79
   3   1  -4 5984.22  198.10
  -3   1   4 5651.12  203.77
  -3  -1   4 6112.20  199.21
   3  -1   4 5827.83  199.54
  -3   1  -4 5903.00  195.45
  -3   1   4 6090.19  203.35
  -3  -1  -4 5703.75  195.51
   3  -1  -4 5675.00  188.24
   3  -1  -4 5808.82  226.59
   3   1   4 5641.74  194.48
  -3   1  -4 5413.36  216.46
  -3  -2  -4   15.48    8.82
  -3   2   4    7.98    8.27
  -3  -2   4    4.76    5.83
   3   2  -4    9.67    9.08
   3   2   4    5.92    7.51
  -3  -2  -4   20.47    8.83
   3  -2   4   24.53    9.91
   3  -2  -4   -5.77    8.01
  -3   2  -4    8.90   10.06
  -3   2   4   15.82    8.34
  -3   2  -4   11.59    7.37
   3  -3   4 3357.02  131.57
  -3   3   4 3589.07  139.88
   3   3  -4 3379.47  135.08
  -3   3   4 3249.60  136.74
  -3   3  -4 3570.10  127.11
  -3   3  -4 3201.93  147.80
   3   3   4 3395.86  142.43
   3  -3  -4 3270.71  147.86
  -3  -3  -4 3472.36  130.30
  -3  -3  -4 3321.21  140.78
   3   4  -4   -2.54   14.97
   3   4   4  -18.26    6.83
   3  -4  -4   -0.60   12.19
   3  -4   4   13.17    9.33
  -3   4   4   -0.16    7.18
   3  -4  -4    2.24   10.67
  -3   4  -4    0.13   15.16
  -3  -4  -4    6.63    9.55
  -4   0   4 1335.99   60.41
   4   0   4 1309.09   58.92
  -4   0  -4 1218.72   58.05
   4   0  -4 1255.98   56.07
   4  -1  -4  717.71   35.54
   4   1   4  629.03   35.48
   4   1  -4  677.54   39.93
  -4  -1  -4  638.60   38.91
  -4   1   4  671.99   39.33
  -4   1  -4  688.98   38.39
   4  -1  -4  542.37   54.89
   4  -1   4  660.83   41.53
  -4   1   4  650.51   40.30
  -4  -1   4  697.07   38.08
  -4   1  -4  646.13   48.51
  -4  -2  -4  945.85   49.27
   4   2  -4  980.73   53.35
  -4   2   4  916.01   53.93
  -4   2  -4  915.82   47.34
  -4  -2  -4  966.77   50.94
  -4   2   4  910.06   51.28
   4  -2  -4  917.66   64.98
  -4   2  -4  895.07   63.37
   4  -2   4  929.95   51.55
  -4   3  -4  339.64   45.73
  -4  -3  -4  412.84   33.12
  -4   3   4  322.38   37.74
   4  -3   4  336.94   36.85
  -4  -3  -4  458.15   41.98
   4   3  -4  390.68   42.66
  -4   3   4  450.94   42.11
  -4   3  -4  430.53   30.28
   4  -3  -4  393.56   47.51
   4   3   4  388.99   42.95
  -5   0  -4 2377.02   98.57
   5   0  -4 2514.90   96.39
  -5   0   4 2510.88   99.49
   5   0   4 2429.45   97.48
  -5   1  -4  505.32   32.91
   5   1  -4  411.69   37.03
   5  -1  -4  417.19   50.10
  -5  -1  -4  457.09   33.47
  -5   1  -4  380.39   46.20
  -5   1   4  437.56   33.19
   5  -1   4  429.10   39.43
   5  -2   4 1930.72   87.96
   5   2  -4 1958.87   89.96
   5  -2  -4 1954.40  108.75
  -5   2  -4 2004.20   82.21
  -5  -2  -4 1940.82   87.34
  -5   2  -4 1954.31  107.09
  -5   2   4 1723.24   88.09
  -5   2   4 1948.63   92.79
   5  -3  -4  274.91   35.26
  -5  -3  -4  214.44   27.97
  -5  -3  -4  303.32   36.36
   5   3  -4  311.58   40.70
   5  -3   4  266.34   34.55
   5   3   4  243.06   35.97
  -5   3  -4  290.98   43.96
  -5   3   4  329.51   40.18
   5  -3  -4  407.06   52.11
  -5   3   4  269.38   36.77
  -6   0   4   19.54   10.50
  -6   0  -4    1.98    6.48
   6   0   4   -4.77    9.14
   6   0  -4    2.40   11.08
   6  -1  -4  329.23   46.28
  -6   1  -4  455.22   32.62
  -6   1   4  481.63   36.26
   6   1  -4  472.58   42.05
  -6  -1  -4  438.18   42.66
   6  -1   4  449.90   41.42
   6  -2   4    2.02   10.39
   6  -2  -4   -6.00   18.73
   6   2  -4    4.05   14.57
  -6   2   4    4.44    9.54
  -6   2  -4   -7.66   13.11
  -6  -2  -4    9.46   10.51
  -6   2  -4   -6.51    5.90
  -7   0  -4   99.50   20.84
   7  -1   4   95.26   21.26
  -7  -1  -4  105.77   21.75
   7   1  -4  102.54   23.43
  -7   1   4  120.59   21.05
  -7   1  -4  135.80   23.52
   7  -1  -4   66.03   26.78
   0   0  -5   -2.85    4.83
   0   0   5    7.90    3.10
   0   0   5   -4.23    4.10
   0   0  -5    4.11    7.13
   0   1   5 1667.88   72.65
   0  -1   5 1599.88   67.23
   0  -1  -5 1626.33   74.30
   0   1  -5 1488.05   66.98
   0  -1  -5 1635.42   63.23
   0   1   5 1625.29   63.33
   0   2   5    4.03    5.17
   0  -2   5   -0.47    4.55
   0   2   5    0.93    7.71
   0  -2  -5   -5.72    6.81
   0   2  -5    9.99    7.59
   0  -3   5  788.94   44.51
   0   3  -5  929.05   50.91
   0   3   5  842.40   49.37
   0  -3  -5  785.37   52.34
   0   3   5  799.68   48.54
   0   4   5   17.90   10.56
   0   4  -5   -3.70   11.32
   0  -4  -5   -1.22    7.92
  -1   0  -5 2769.30  102.82
   1   0   5 2877.03  105.98
  -1   0   5 2798.45  105.70
  -1   0  -5 2856.24  109.74
   1   0  -5 2757.12  101.31
   1   0  -5 2649.38  117.69
  -1  -1  -5  238.06   21.81
  -1   1   5  227.80   26.21
   1   1   5  227.84   17.80
   1  -1   5  225.20   23.79
  -1  -1   5  245.35   23.81
   1  -1  -5  240.64   20.40
   1  -1  -5  183.81   25.24
  -1   1  -5  214.98   22.66
  -1   1   5  243.74   16.52
   1   1   5  248.43   26.32
   1   1  -5  168.15   20.48
  -1  -1  -5  225.88   24.33
  -1   2  -5 2159.56   88.70
  -1   2   5 2263.38   96.66
   1   2   5 2128.75   91.75
   1  -2   5 2182.57   88.39
  -1  -2  -5 2143.07   82.05
  -1  -2  -5 2220.22   96.02
   1   2  -5 2129.74   89.11
  -1  -2   5 2154.55   85.23
  -1   2   5 2080.78   87.64
   1  -2  -5 2158.21   98.83
   1   2   5 2131.07   89.43
   1  -3  -5  113.93   23.33
  -1   3  -5  163.38   23.89
  -1  -3   5  139.48   19.54
  -1   3   5  122.08   20.96
   1   3  -5  111.03   20.42
  -1  -3  -5  110.08   22.08
  -1   3   5  148.25   24.56
   1   3   5  118.20   20.84
   1  -3   5  128.11   20.87
   1  -4  -5  988.70   67.23
   1   4   5 1179.87   67.91
  -1   4   5  986.91   62.22
  -1   4  -5 1186.32   62.71
  -1  -4  -5 1042.37   69.00
   1   4  -5 1028.38   62.26
   1  -4   5 1086.98   58.91
  -2   0  -5 1642.37   70.63
   2   0  -5 1733.11   69.14
  -2   0  -5 1741.53   69.38
   2   0   5 1620.93   70.66
  -2   0   5 1699.09   74.18
   2  -1  -5 1559.76   59.36
  -2   1   5 1543.69   59.60
   2   1   5 1515.75   65.59
  -2  -1  -5 1502.47   65.78
  -2   1   5 1473.76   69.54
   2   1  -5 1421.46   64.87
  -2  -1   5 1404.50   63.06
  -2   1  -5 1485.80   65.27
   2  -1   5 1451.82   65.38
  -2  -1  -5 1452.88   62.30
   2  -1  -5 1453.69   78.47
  -2   2   5 1148.59   62.96
   2   2   5 1184.05   59.87
   2   2  -5 1200.02   59.91
  -2  -2  -5 1166.45   60.36
   2  -2   5 1230.77   59.40
  -2   2   5 1148.84   54.87
   2   2   5 1265.06   61.81
  -2  -2   5 1245.91   55.27
  -2  -2  -5 1262.56   56.53
  -2   2  -5 1191.96   57.99
   2  -2  -5 1115.07   67.50
  -2   2  -5 1232.49   63.62
   2  -3   5  908.86   51.59
  -2   3   5  913.06   56.23
  -2  -3  -5  927.15   56.68
   2   3  -5  937.04   54.04
   2  -3  -5  847.17   59.17
  -2   3   5  922.20   52.15
   2   3   5  868.17   54.19
  -2   3  -5  992.88   52.62
   2   4  -5  606.41   55.19
   2   4   5  553.61   54.47
   2  -4   5  609.64   42.57
  -2   4   5  583.62   52.29
  -2  -4  -5  548.90   55.99
  -2   4   5  480.76   47.34
   3   0   5   15.77    9.20
  -3   0   5   19.03    7.75
  -3   0  -5   20.03    8.84
   3   0  -5   29.29   10.39
  -3  -1  -5 1582.98   69.37
  -3  -1  -5 1669.41   71.16
   3   1  -5 1634.93   72.20
  -3   1  -5 1643.30   71.96
   3   1   5 1663.30   71.23
   3  -1   5 1665.95   73.59
   3  -1  -5 1698.18   66.08
  -3   1   5 1633.11   76.60
  -3  -1   5 1718.52   73.21
   3  -1  -5 1595.96   88.84
   3   2   5    7.69    9.31
   3   2  -5   -0.91    8.06
   3  -2   5   10.86    9.36
  -3  -2  -5    7.69    7.77
  -3   2  -5   16.36    8.87
  -3   2   5    5.77    6.00
   3  -2  -5   12.88   13.07
  -3  -2   5   23.39    8.83
  -3   2  -5   14.30   12.22
  -3  -2  -5   14.01    9.14
  -3   2   5   12.32    9.84
  -3   3  -5  959.16   64.01
  -3   3   5  893.40   53.54
  -3   3   5  876.01   57.36
   3   3   5 1015.82   59.93
   3  -3  -5  796.74   62.13
   3   3  -5  961.00   58.42
  -3   3  -5  986.85   52.48
   3  -3   5  923.25   53.98
  -3  -3  -5  943.68   56.67
  -4   0   5  323.72   31.57
  -4   0  -5  264.44   28.22
   4   0   5  319.81   30.64
   4   0  -5  240.04   25.94
  -4  -1  -5   34.85   12.28
  -4   1  -5   14.07    7.21
  -4   1   5   16.76    8.20
  -4  -1   5   20.78    9.63
   4   1  -5   25.61   10.22
   4  -1  -5    9.75   13.79
   4  -1   5   20.57   10.69
   4   1   5   11.20    8.04
  -4   2  -5  185.36   23.51
   4   2   5  195.27   28.40
   4  -2   5  201.45   27.69
   4   2  -5  143.77   24.20
  -4   2  -5  171.12   30.61
  -4  -2  -5  132.23   21.33
  -4   2   5  210.27   28.54
   4  -2  -5  184.20   35.25
   4   3  -5    8.92   17.02
  -4   3   5   -0.30    8.97
  -4  -3  -5   12.97    9.24
   4  -3  -5   -2.60   21.59
  -4   3  -5    2.86    7.93
   4   3   5  -12.54    7.74
   4  -3   5   33.04   15.39
  -4   3   5   20.44   10.05
  -4   3  -5   -5.61   12.92
   5   0  -5 2410.50   95.74
  -5   0  -5 2360.29   99.33
   5   0   5 2354.53   98.09
  -5   0   5 2335.27   99.06
  -5  -1  -5  223.77   28.39
  -5   1  -5  209.88   26.12
   5   1  -5  205.61   27.39
   5  -1  -5  221.02   36.98
  -5   1   5  179.54   25.91
   5  -1   5  165.69   24.01
  -5   2  -5 1853.21  103.98
  -5  -2  -5 1759.41   84.21
  -5   2  -5 1916.73   81.79
  -5   2   5 1803.61   89.10
   5  -2  -5 1661.12  105.23
   5  -3  -5  131.78   35.71
  -5   3  -5   90.60   28.70
   5  -3   5  117.30   25.19
  -5   3   5   94.82   23.84
   5   3   5  115.45   27.17
   5   3  -5  157.05   34.93
  -5  -3  -5   82.20   25.17
   6   0  -5  430.74   38.27
  -6   0   5  435.28   39.66
  -6   0  -5  380.94   39.43
   6  -1   5 1610.61   78.20
  -6   1   5 1572.94   78.54
  -6   1  -5 1514.23   75.09
  -6  -1  -5 1653.43   79.56
   6   1  -5 1543.06   76.47
   6  -1  -5 1552.18   97.77
   6   2  -5  346.18   41.38
  -6   2  -5  411.19   52.40
  -6   2   5  332.01   39.30
  -6   2  -5  350.12   36.33
   6  -2  -5  270.43   47.19
   6  -2   5  330.21   41.31
  -6  -2  -5  390.55   42.50
   7   0  -5   46.57   31.99
  -7   0  -5   24.45   15.21
   0   0  -6   25.81   12.62
   0   0   6    9.12    8.40
   0   0  -6   41.85   11.90
   0  -1   6   -0.65    5.12
   0   1  -6    4.63    7.22
   0  -1  -6    6.92    6.34
   0  -1  -6   11.06    9.72
   0   1   6    1.71    6.12
   0  -2   6   11.36    8.13
   0  -2  -6   27.89   11.86
   0   2   6   28.18   13.04
   0   2  -6   27.86   12.18
   0   2   6   10.49    7.24
   0  -3   6   -4.28    6.92
   0  -3  -6   -6.08   10.26
   0   3   6   21.57   13.18
   0   3  -6    1.11    8.66
   0   3   6   -0.74    8.56
   1   0   6 2521.86  103.72
   1   0  -6 2519.96   98.49
   1   0  -6 2612.98  116.37
  -1   0   6 2639.05  103.42
  -1   0  -6 2578.70  100.95
  -1   0  -6 2560.50  105.94
   1  -1  -6  319.77   24.04
  -1  -1   6  263.80   28.68
  -1  -1  -6  382.49   29.94
  -1  -1  -6  295.28   27.87
   1   1   6  336.80   22.77
   1   1   6  295.74   31.82
   1  -1   6  286.74   29.36
  -1   1  -6  412.06   30.72
   1  -1  -6  258.18   32.29
  -1   1   6  386.21   37.45
   1   1  -6  310.95   30.73
  -1   1  -6  328.74   30.57
   1   2   6 1924.91   83.78
  -1   2   6 2065.84   94.06
   1   2   6 1880.13   89.23
  -1  -2   6 1976.63   82.74
  -1  -2  -6 1966.24   91.76
   1  -2   6 1870.45   84.00
  -1   2   6 1909.44   82.54
   1   2  -6 1950.04   86.41
   1  -2  -6 1972.48   96.35
  -1   2  -6 2063.96   86.71
  -1   3   6  188.52   30.62
  -1   3  -6  212.47   29.45
  -1  -3  -6  245.96   32.52
  -1  -3   6  207.04   25.75
   1   3   6  185.05   25.67
   1   3  -6  236.77   31.99
   1  -3  -6  193.81   30.99
   1  -3   6  151.37   24.06
  -1   3   6  204.14   26.34
   2   0  -6 3448.63  127.15
   2   0  -6 3457.73  151.06
  -2   0  -6 3369.76  129.31
  -2   0   6 3439.11  134.59
   2   0   6 3506.88  132.21
  -2  -1   6  108.17   18.00
  -2  -1  -6   86.09   15.74
   2   1   6  102.23   16.20
   2  -1   6  106.31   18.70
   2  -1  -6  100.53   22.46
   2   1  -6  100.41   17.57
  -2   1   6   77.20   16.98
  -2   1  -6   83.58   17.14
   2   1   6   65.80   15.33
   2  -1  -6  112.64   17.18
  -2  -1  -6  110.38   17.37
  -2  -2   6 2661.84  105.93
   2   2  -6 2567.08  110.55
   2  -2   6 2642.21  110.02
  -2  -2  -6 2710.14  115.90
   2   2   6 2762.31  115.94
  -2  -2  -6 2857.32  106.51
   2   2   6 2595.44  111.42
  -2   2   6 2756.21  118.58
   2  -2  -6 2694.91  127.93
  -2   2  -6 2747.13  110.38
   2  -3  -6   46.83   19.93
  -2   3  -6   50.86   17.40
  -2  -3  -6   77.49   19.70
   2   3   6   39.16   13.18
   2   3  -6   41.72   17.86
   2  -3   6   39.97   13.45
  -2   3   6   43.50   13.32
  -2   3   6   34.81   17.41
  -3   0  -6  417.75   36.68
  -3   0   6  441.60   32.54
   3   0  -6  396.80   35.18
   3   0   6  464.72   33.55
   3   0  -6  394.41   46.24
  -3   1  -6  293.63   31.40
   3  -1   6  279.52   31.35
   3   1   6  319.87   33.52
  -3  -1   6  331.93   33.17
   3   1  -6  287.00   30.77
  -3   1   6  286.92   33.10
  -3  -1  -6  280.59   29.58
   3  -1  -6  295.32   40.64
   3   2   6  308.01   34.83
   3  -2  -6  323.48   45.19
  -3  -2  -6  305.95   32.66
  -3   2   6  394.70   41.50
   3   2  -6  269.40   32.34
  -3   2  -6  285.86   32.66
  -3  -2   6  394.36   35.71
   3  -2   6  343.86   37.03
  -3  -2  -6  316.88   33.32
   3  -3  -6  157.19   33.25
   3  -3   6  217.75   30.61
  -3   3  -6  169.69   26.12
  -3   3   6  234.56   35.42
   3   3  -6  131.78   26.45
  -3  -3  -6  204.47   29.04
   3   3   6  158.59   26.11
   4   0  -6 1594.14   91.93
  -4   0   6 1470.16   74.03
  -4   0  -6 1512.02   73.02
   4   0   6 1633.12   74.68
   4   0  -6 1617.16   71.49
  -4  -1   6  697.43   40.96
   4  -1  -6  520.91   58.68
   4   1  -6  611.46   40.77
  -4  -1  -6  575.31   39.66
  -4   1  -6  547.24   38.36
   4   1   6  566.67   40.40
   4  -1   6  573.28   41.33
  -4   1   6  591.86   41.94
  -4  -2  -6 1232.40   64.64
   4   2  -6 1251.51   67.78
   4   2   6 1241.76   70.96
   4  -2  -6 1212.10   85.39
  -4   2  -6 1250.80   73.94
  -4   2   6 1267.59   70.00
   4  -2   6 1296.06   69.01
  -4   2  -6 1271.51   64.05
  -4   3  -6  374.69   38.49
   4   3  -6  355.25   44.01
   4  -3  -6  342.07   53.74
   4  -3   6  340.52   40.07
   4   3   6  381.35   45.23
  -4   3   6  379.59   47.27
  -5   0  -6  104.93   21.35
   5   0  -6  141.91   23.46
   5   0   6  134.69   23.28
   5   0  -6  135.69   32.15
  -5   0   6  172.39   25.31
  -5  -1  -6  104.20   20.94
   5  -1   6   85.65   19.18
   5   1  -6   76.23   18.97
  -5   1   6   37.30   12.75
   5  -1  -6   76.52   26.14
  -5   1  -6  101.29   20.19
  -5  -2  -6   95.01   21.65
  -5   2  -6   96.69   19.85
   5  -2   6  134.22   24.25
   5   2   6   92.74   20.58
  -5   2   6  130.81   24.82
   5  -2  -6   78.71   28.59
  -5   2  -6   94.34   26.21
   5   2  -6   80.55   21.66
  -6   0   6  111.99   20.40
  -6   0  -6   86.56   19.51
   6   0  -6  117.31   33.29
   6  -1  -6 1099.00   82.88
  -6   1  -6  959.72   59.08
  -6  -1  -6  979.81   59.73
   6   1  -6  919.21   59.70
   0   0  -7    3.30    7.78
   0   0  -7    6.35    9.80
   0   0   7   -2.13    6.84
   0   1  -7 4280.17  175.99
   0   1   7 4132.53  167.75
   0  -1   7 4333.07  160.77
   0   1  -7 4259.24  159.12
   0  -1  -7 4413.15  154.65
   0  -1  -7 4181.99  174.92
   0   2   7    7.28   10.57
   0   2  -7    3.81   11.30
   0  -2  -7    2.60    9.66
   0  -2   7   -6.44    6.58
   0   3  -7 2946.78  126.33
   0  -3   7 2875.61  119.23
   0  -3  -7 2822.96  136.39
   0   3   7 2951.33  132.10
  -1   0  -7  254.91   28.48
   1   0   7  279.18   32.92
   1   0  -7  220.38   26.65
   1   0  -7  209.04   33.39
  -1   0   7  226.48   29.55
  -1   0  -7  229.54   28.19
   1  -1  -7 1338.69   63.45
  -1   1  -7 1355.05   67.03
   1  -1  -7 1250.89   74.48
  -1  -1   7 1346.29   65.43
   1   1  -7 1415.87   67.79
   1   1   7 1349.40   69.43
   1  -1   7 1229.97   64.57
  -1  -1  -7 1352.00   69.68
  -1  -1  -7 1280.56   62.74
  -1   1   7 1312.61   71.75
  -1   2  -7  164.34   26.48
   1   2  -7  181.18   27.25
  -1  -2  -7  152.33   26.73
   1  -2   7  171.29   25.52
   1   2   7  218.65   32.12
  -1  -2   7  219.64   27.18
  -1   2   7  242.45   33.83
   1  -2  -7  207.47   31.38
   1  -3   7  703.23   49.43
  -1  -3  -7  754.36   54.56
  -1   3  -7  869.35   57.01
  -1   3   7  815.71   57.43
   1   3  -7  725.58   54.25
   1  -3  -7  680.83   56.03
   1   3   7  775.02   48.77
  -1  -3   7  781.11   46.87
   2   0   7   24.47   11.61
  -2   0   7   34.04   11.17
   2   0  -7   28.74   14.22
  -2   0  -7   38.16   13.73
   2   0  -7   49.06   14.75
   2  -1  -7  116.75   26.67
   2   1  -7  111.21   20.88
   2  -1   7  103.22   20.43
   2   1   7  120.08   22.27
  -2   1   7  125.96   22.38
  -2   1  -7  104.03   21.08
  -2  -1   7  132.39   21.86
  -2  -1  -7  132.72   21.97
   2   2   7    2.86    7.48
  -2   2   7    8.86   10.75
   2   2  -7   27.18   12.28
   2  -2  -7   25.92   19.17
   2  -2   7   19.43   12.19
  -2  -2  -7   13.48   11.78
  -2   2  -7   40.83   15.65
  -2  -2   7   28.98   12.32
   2   2   7   10.76   16.66
   2   3   7  125.74   21.96
   2   3  -7   84.27   23.52
   2  -3   7  141.30   27.18
  -2   3  -7  126.28   24.72
  -2  -3  -7  101.67   23.94
  -2   3   7  141.98   28.14
   2  -3  -7   98.55   24.32
   3   0   7  194.45   28.69
  -3   0  -7  218.61   28.27
   3   0  -7  218.74   36.98
   3   0  -7  261.06   30.51
  -3   0   7  203.36   28.04
  -3  -1   7   19.76   10.84
   3   1   7   20.55   12.06
  -3  -1  -7   38.52   14.21
  -3   1   7   28.43   13.15
   3   1  -7   36.35   14.72
  -3   1  -7   29.35   12.86
   3  -1  -7   24.63   16.35
   3  -1   7   50.30   14.98
  -3   2  -7  168.50   27.47
  -3  -2  -7  151.26   25.03
  -3   2   7  189.74   30.50
  -3  -2   7  165.26   24.79
   3   2   7  129.81   22.79
   3   2  -7  142.85   25.55
   3  -2   7   80.24   19.44
   3  -2  -7  129.36   32.66
  -4   0  -7 1243.84   65.87
  -4   0   7 1103.57   64.57
   4   0  -7 1223.11   63.29
   4   0  -7 1248.12   81.77
   4   0   7 1218.49   66.48
  -4  -1  -7 2580.99  108.75
   4  -1  -7 2622.17  136.61
   4  -1   7 2571.36  111.20
  -4   1   7 2487.88  112.46
  -4  -1   7 2542.73  108.13
  -4   1  -7 2611.04  110.07
   4   1  -7 2218.55  104.42
   4   2   7  950.40   60.26
   4  -2   7  854.50   54.89
  -4   2   7  830.34   57.27
  -4  -2  -7  816.92   53.11
   4   2  -7  862.15   56.59
  -4   2  -7 1019.70   57.68
  -5   0  -7    3.87   11.21
   5   0   7   14.52   11.66
   5   0  -7    8.59   16.26
  -5   0   7  -14.68    7.02
   5  -1  -7   78.28   28.67
   5  -1   7   91.36   21.54
   5   1  -7   87.82   21.32
  -5  -1  -7  100.41   21.42
  -5   1  -7   84.47   20.40
  -5   1   7  112.55   21.27
   0   0   8  633.89   48.20
   0   0  -8  734.28   47.82
   0   0  -8  729.96   53.09
   0  -1  -8    5.74   12.64
   0   1  -8   23.15   12.53
   0  -1   8  -10.78    5.07
   0   1   8    9.52   11.40
   0   2   8  620.69   58.01
   0  -2  -8  603.93   48.83
   0  -2   8  553.91   50.24
   0   2  -8  513.14   50.25
  -1   0  -8   48.83   15.94
   1   0  -8  121.26   29.50
   1   0   8   34.93   15.47
  -1   0   8   66.35   18.52
   1   0  -8   56.43   18.12
   1   1  -8  147.34   24.70
   1  -1   8  117.50   22.50
   1   1  -8  251.88   37.42
  -1  -1  -8  173.94   26.20
   1  -1  -8  122.40   27.79
  -1   1  -8  122.05   24.86
  -1  -1   8  119.98   21.96
  -1   1   8  144.44   26.83
  -1  -1  -8  145.56   25.62
   1   1   8  163.43   29.65
  -1  -2  -8   37.05   17.71
   1  -2   8   50.61   18.35
  -1  -2   8   33.21   13.12
   1   2   8   44.39   18.01
  -1   2   8   57.39   20.10
  -1   2  -8   56.73   18.96
   1  -2  -8   34.76   18.17
   1   2  -8   38.37   16.65
   2   0  -8 2349.91  119.54
  -2   0  -8 2021.02   94.47
   2   0  -8 2066.35   94.19
  -2   0   8 2071.68  101.58
   2   0   8 2006.74   96.65
   2  -1   8 1206.98   66.88
  -2  -1   8 1361.25   70.95
  -2   1   8 1190.08   70.71
   2  -1  -8 1170.83   80.58
   2   1   8 1351.29   72.27
   2   1  -8 1127.71   66.47
  -2  -1  -8 1315.59   67.16
  -2   1  -8 1211.54   69.08
   2   1  -8 1259.56   77.87
   2  -2   8 1653.71   84.71
   2  -2  -8 1687.22  102.85
  -2   2  -8 1836.93   90.23
  -2   2   8 1738.22   93.71
   2   2   8 1667.18   89.36
  -2  -2   8 1701.88   82.83
   3   0  -8    9.07   14.51
   3   0   8   23.43   13.07
  -3   0   8   24.58   11.25
   3   0  -8   13.09   17.54
  -3   0  -8   12.12   12.55
   3  -1  -8  842.76   81.12
   3   1   8  874.41   57.31
   3  -1   8  880.34   55.99
  -3   1   8  842.45   58.18
  -3  -1   8  892.28   56.60
  -3  -1  -8  904.12   54.82
   3   1  -8  780.01   54.09
  -3   1  -8  750.86   53.32
   3   2  -8    5.64   15.40
  -3   2  -8    1.80   12.83
  -3  -2   8    4.83   14.44
   3  -2  -8   48.34   27.23
  -3   2   8   17.03   15.08
   3  -2   8   -3.42   10.50
   4   0  -8   44.32   20.85
  -4   0   8   23.16   11.88
  -4   0  -8   27.81   13.57
   4   0   8   33.00   14.60
  -4   1  -8  372.80   42.63
   4  -1   8  301.71   37.44
   4   1  -8  289.36   36.00
  -4   1   8  323.92   39.25
  -4  -1  -8  317.33   38.83
   4  -1  -8  298.11   48.68
   0   0   9    5.16   11.86
   0   0  -9   -2.94   13.35
   0  -1  -9  156.66   29.36
   0   1   9  119.97   26.66
   0  -1   9  110.74   23.74
   0   1  -9  132.18   27.24
   1   0  -9  805.81   74.50
  -1   0   9  590.09   58.29
   1   0   9  588.07   56.76
  -1   0  -9  583.98   54.73
   1   0  -9  562.69   52.88
  -1   1   9 1217.27   74.50
   1   1   9 1147.19   74.52
   1   1  -9 1215.56   80.26
  -1  -1   9 1176.78   68.00
   1   1  -9 1173.78   69.53
   1  -1   9  999.66   64.42
   1  -1  -9 1111.18   78.99
  -1   1  -9 1155.46   70.29
  -2   0  -9  167.32   29.12
   2   0  -9  187.67   39.21
  -2   0   9  137.56   28.04
   2   0   9  124.25   25.83
  -2  -1  -9  156.66   28.92
   2  -1  -9  240.66   43.26
  -2  -1   9  236.63   33.79
  -2   1  -9  172.49   31.75
   2  -1   9  181.97   30.90
   2   1  -9  272.16   42.08
  -2   1   9  194.16   33.98
   2   1   9  188.84   35.02
   2   1  -9  253.72   37.01
   0   0   0    0.00    0.00
;
_shelx_hkl_checksum              30855
_shelx_res_file
;
TITL test in Pnma
    shelx.res
    created by SHELXL-2018/1 at 11:59:17 on 12-Feb-2018
CELL 0.71073   6.2989   3.7613   7.2033  90.000  90.000  90.000
ZERR    4.00   0.0008   0.0004   0.0008   0.000   0.000   0.000
LATT  1
SYMM 0.5-X, -Y, 0.5+Z
SYMM -X, 0.5+Y, -Z
SYMM 0.5+X, 0.5-Y, 0.5-Z
SFAC NI GE NB
UNIT 4 4 4
TEMP -73
L.S. 20
BOND
FMAP -2
PLAN 20
acta
WGHT    0.030300
EXTI    0.038294
FVAR       0.57679
NB    3    0.017893    0.250000    0.676560    10.50000    0.00470    0.00681 =
         0.00414    0.00000   -0.00030    0.00000
NI    1    0.157378    0.250000    0.069221    10.50000    0.00687    0.00806 =
         0.00576    0.00000    0.00109    0.00000
GE    2    0.279967    0.250000    0.383113    10.50000    0.00562    0.00667 =
         0.00473    0.00000    0.00075    0.00000
HKLF 4
REM  test in Pnma
REM R1 =  0.0234 for     230 Fo > 4sig(Fo)  and  0.0251 for all     240 data
REM     20 parameters refined using      0 restraints
END
WGHT      0.0304      0.0000
REM Highest difference peak  1.293,  deepest hole -2.255,  1-sigma level  0.753
Q1    1   0.4465  0.2500  0.2227  10.50000  0.05   -2.26
Q2    1   0.1613  0.2500  0.4675  10.50000  0.05   -2.13
Q3    1   0.2733  0.2500 -0.0057  10.50000  0.05   -1.93
Q4    1  -0.0140  0.2500  0.8956  10.50000  0.05   -1.90
Q5    1   0.2451  0.2500 -0.1234  10.50000  0.05   -1.89
Q6    1   0.3091  0.2500  0.5725  10.50000  0.05   -1.88
Q7    1  -0.1863  0.2500  0.6833  10.50000  0.05   -1.76
Q8    1   0.1004  0.2500 -0.0472  10.50000  0.05   -1.75
Q9    1   0.1029  0.2500  0.5832  10.50000  0.05   -1.69
Q10   1  -0.0931  0.2500  0.6104  10.50000  0.05   -1.65
Q11   1  -0.0597  0.2500  0.4958  10.50000  0.05   -1.64
Q12   1   0.3575  0.2500  0.0524  10.50000  0.05   -1.60
Q13   1   0.2226  0.2500  0.3115  10.50000  0.05   -1.43
Q14   1   0.4119  0.2500  0.4618  10.50000  0.05   -1.33
Q15   1   0.1780  0.2500  0.7715  10.50000  0.05   -1.32
Q16   1   0.1943 -0.0032  0.4716  11.00000  0.05    1.29
Q17   1   0.2949  0.2500  0.1935  10.50000  0.05   -1.21
Q18   1   0.0163  0.0837  0.7510  11.00000  0.05    1.16
Q19   1   0.0684  0.0026  0.5242  11.00000  0.05    1.16
Q20   1   0.1508 -0.0191  0.2284  11.00000  0.05    1.16
;
_shelx_res_checksum              12200
loop_
_space_group_symop_operation_xyz
'x, y, z'
'-x+1/2, -y, z+1/2'
'-x, y+1/2, -z'
'x+1/2, -y+1/2, -z+1/2'
'-x, -y, -z'
'x-1/2, y, -z-1/2'
'x, -y-1/2, z'
'-x-1/2, y-1/2, z-1/2'
loop_
_atom_site_type_symbol
_atom_site_label
_atom_site_fract_x
_atom_site_fract_y
_atom_site_fract_z
_atom_site_U_iso_or_equiv
_atom_site_adp_type
_atom_site_calc_flag
_atom_site_occupancy
Nb Nb 0.01789(10) 0.250000 0.67656(9) 0.0052(3) Uani d 1
Ni Ni 0.15738(15) 0.250000 0.06922(13) 0.0069(3) Uani d 1
Ge Ge 0.27997(12) 0.250000 0.38311(11) 0.0057(3) Uani d 1
loop_
_atom_site_aniso_label
_atom_site_aniso_U_11
_atom_site_aniso_U_22
_atom_site_aniso_U_33
_atom_site_aniso_U_12
_atom_site_aniso_U_13
_atom_site_aniso_U_23
Nb 0.0047(4) 0.0068(4) 0.0041(4) 0.000 -0.0003(2) 0.000
Ni 0.0069(6) 0.0081(5) 0.0058(5) 0.000 0.0011(4) 0.000
Ge 0.0056(5) 0.0067(4) 0.0047(4) 0.000 0.0008(3) 0.000
loop_
_atom_type_symbol
_atom_type_description
_atom_type_scat_dispersion_real
_atom_type_scat_dispersion_imag
_atom_type_scat_source
Ni Ni 0.3393 1.1124 'International Tables Vol C Tables 4.2.6.8 and 6.1.1.4'
Ge Ge 0.1547 1.8001 'International Tables Vol C Tables 4.2.6.8 and 6.1.1.4'
Nb Nb -2.0727 0.6215 'International Tables Vol C Tables 4.2.6.8 and 6.1.1.4'
loop_
_geom_angle_atom_site_label_1
_geom_angle_atom_site_label_2
_geom_angle_atom_site_label_3
_geom_angle_site_symmetry_1
_geom_angle_site_symmetry_3
_geom_angle
Ge Nb Ge . 5_556 107.65(3)
Ge Nb Ge . 5_566 107.65(3)
Ge Nb Ge 5_556 5_566 88.67(3)
Ge Nb Ge . 2_565 98.236(18)
Ge Nb Ge 5_556 2_565 153.97(3)
Ge Nb Ge 5_566 2_565 86.009(16)
Ge Nb Ge . 2 98.236(18)
Ge Nb Ge 5_556 2 86.009(16)
Ge Nb Ge 5_566 2 153.97(3)
Ge Nb Ge 2_565 2 87.68(3)
Ge Nb Ni . 5_566 138.198(16)
Ge Nb Ni 5_556 5_566 107.09(3)
Ge Nb Ni 5_566 5_566 51.01(2)
Ge Nb Ni 2_565 5_566 51.09(2)
Ge Nb Ni 2 5_566 106.67(3)
Ge Nb Ni . 5_556 138.198(16)
Ge Nb Ni 5_556 5_556 51.01(2)
Ge Nb Ni 5_566 5_556 107.09(3)
Ge Nb Ni 2_565 5_556 106.67(3)
Ge Nb Ni 2 5_556 51.09(2)
Ni Nb Ni 5_566 5_556 82.66(3)
Ge Nb Ni . 6_556 90.05(3)
Ge Nb Ni 5_556 6_556 49.606(18)
Ge Nb Ni 5_566 6_556 49.606(18)
Ge Nb Ni 2_565 6_556 134.973(16)
Ge Nb Ni 2 6_556 134.973(16)
Ni Nb Ni 5_566 6_556 95.143(18)
Ni Nb Ni 5_556 6_556 95.143(18)
Ge Nb Ni . 2_565 49.625(19)
Ge Nb Ni 5_556 2_565 155.14(3)
Ge Nb Ni 5_566 2_565 89.77(2)
Ge Nb Ni 2_565 2_565 50.41(2)
Ge Nb Ni 2 2_565 105.43(3)
Ni Nb Ni 5_566 2_565 90.96(2)
Ni Nb Ni 5_556 2_565 151.40(3)
Ni Nb Ni 6_556 2_565 113.23(3)
Ge Nb Ni . 2 49.625(19)
Ge Nb Ni 5_556 2 89.77(2)
Ge Nb Ni 5_566 2 155.14(3)
Ge Nb Ni 2_565 2 105.43(3)
Ge Nb Ni 2 2 50.41(2)
Ni Nb Ni 5_566 2 151.40(3)
Ni Nb Ni 5_556 2 90.96(2)
Ni Nb Ni 6_556 2 113.23(3)
Ni Nb Ni 2_565 2 81.39(3)
Ge Nb Ni . 1_556 124.76(4)
Ge Nb Ni 5_556 1_556 111.06(3)
Ge Nb Ni 5_566 1_556 111.06(3)
Ge Nb Ni 2_565 1_556 48.514(19)
Ge Nb Ni 2 1_556 48.514(19)
Ni Nb Ni 5_566 1_556 60.06(3)
Ni Nb Ni 5_556 1_556 60.06(3)
Ni Nb Ni 6_556 1_556 145.20(4)
Ni Nb Ni 2_565 1_556 92.62(2)
Ni Nb Ni 2 1_556 92.62(2)
Ge Nb Nb . 5_556 53.96(2)
Ge Nb Nb 5_556 5_556 53.69(2)
Ge Nb Nb 5_566 5_556 103.70(3)
Ge Nb Nb 2_565 5_556 152.08(4)
Ge Nb Nb 2 5_556 93.560(17)
Ni Nb Nb 5_566 5_556 151.62(4)
Ni Nb Nb 5_556 5_556 95.542(19)
Ni Nb Nb 6_556 5_556 56.69(2)
Ni Nb Nb 2_565 5_556 102.83(3)
Ni Nb Nb 2 5_556 56.54(2)
Ni Nb Nb 1_556 5_556 141.909(18)
Ge Ni Ge 2_554 2_564 106.77(5)
Ge Ni Ge 2_554 . 119.15(3)
Ge Ni Ge 2_564 . 119.15(3)
Ge Ni Ge 2_554 6_556 104.39(4)
Ge Ni Ge 2_564 6_556 104.39(4)
Ge Ni Ge . 6_556 100.64(4)
Ge Ni Nb 2_554 5_566 164.44(4)
Ge Ni Nb 2_564 5_566 84.44(2)
Ge Ni Nb . 5_566 61.10(3)
Ge Ni Nb 6_556 5_566 61.60(2)
Ge Ni Nb 2_554 5_556 84.44(2)
Ge Ni Nb 2_564 5_556 164.44(4)
Ge Ni Nb . 5_556 61.10(3)
Ge Ni Nb 6_556 5_556 61.60(2)
Nb Ni Nb 5_566 5_556 82.66(3)
Ge Ni Nb 2_554 6_656 61.01(3)
Ge Ni Nb 2_564 6_656 61.01(3)
Ge Ni Nb . 6_656 109.09(4)
Ge Ni Nb 6_556 6_656 150.28(5)
Nb Ni Nb 5_566 6_656 134.519(19)
Nb Ni Nb 5_556 6_656 134.519(19)
Ge Ni Nb 2_554 2_564 123.87(4)
Ge Ni Nb 2_564 2_564 60.70(2)
Ge Ni Nb . 2_564 61.13(2)
Ge Ni Nb 6_556 2_564 131.57(3)
Nb Ni Nb 5_566 2_564 70.848(16)
Nb Ni Nb 5_556 2_564 122.22(3)
Nb Ni Nb 6_656 2_564 66.77(3)
Ge Ni Nb 2_554 2_554 60.70(2)
Ge Ni Nb 2_564 2_554 123.87(4)
Ge Ni Nb . 2_554 61.13(2)
Ge Ni Nb 6_556 2_554 131.57(3)
Nb Ni Nb 5_566 2_554 122.22(3)
Nb Ni Nb 5_556 2_554 70.848(17)
Nb Ni Nb 6_656 2_554 66.77(3)
Nb Ni Nb 2_564 2_554 81.39(3)
Ge Ni Ni 2_554 5 53.11(3)
Ge Ni Ni 2_564 5 115.95(5)
Ge Ni Ni . 5 123.00(4)
Ge Ni Ni 6_556 5 51.28(3)
Nb Ni Ni 5_566 5 112.53(5)
Nb Ni Ni 5_556 5 61.92(3)
Nb Ni Ni 6_656 5 109.07(4)
Nb Ni Ni 2_564 5 175.42(6)
Nb Ni Ni 2_554 5 98.842(18)
Ge Ni Ni 2_554 5_565 115.95(5)
Ge Ni Ni 2_564 5_565 53.11(3)
Ge Ni Ni . 5_565 123.00(4)
Ge Ni Ni 6_556 5_565 51.28(3)
Nb Ni Ni 5_566 5_565 61.92(3)
Nb Ni Ni 5_556 5_565 112.53(5)
Nb Ni Ni 6_656 5_565 109.07(4)
Nb Ni Ni 2_564 5_565 98.842(18)
Nb Ni Ni 2_554 5_565 175.42(6)
Ni Ni Ni 5 5_565 80.56(5)
Ge Ni Nb 2_554 1_554 60.23(3)
Ge Ni Nb 2_564 1_554 60.23(3)
Ge Ni Nb . 1_554 178.40(5)
Ge Ni Nb 6_556 1_554 80.96(4)
Nb Ni Nb 5_566 1_554 119.94(3)
Nb Ni Nb 5_556 1_554 119.94(3)
Nb Ni Nb 6_656 1_554 69.32(2)
Nb Ni Nb 2_564 1_554 117.80(3)
Nb Ni Nb 2_554 1_554 117.80(3)
Ni Ni Nb 5 1_554 58.02(3)
Ni Ni Nb 5_565 1_554 58.02(3)
Ni Ge Ni 2_565 2 106.77(5)
Ni Ge Ni 2_565 . 126.58(2)
Ni Ge Ni 2 . 126.58(2)
Ni Ge Ni 2_565 6_656 75.61(4)
Ni Ge Ni 2 6_656 75.61(4)
Ni Ge Ni . 6_656 117.07(4)
Ni Ge Nb 2_565 . 69.68(3)
Ni Ge Nb 2 . 69.68(3)
Ni Ge Nb . . 123.16(4)
Ni Ge Nb 6_656 . 119.77(4)
Ni Ge Nb 2_565 5_556 140.33(4)
Ni Ge Nb 2 5_556 69.38(3)
Ni Ge Nb . 5_556 67.88(3)
Ni Ge Nb 6_656 5_556 135.469(14)
Nb Ge Nb . 5_556 72.35(3)
Ni Ge Nb 2_565 5_566 69.38(3)
Ni Ge Nb 2 5_566 140.33(4)
Ni Ge Nb . 5_566 67.88(3)
Ni Ge Nb 6_656 5_566 135.469(15)
Nb Ge Nb . 5_566 72.35(3)
Nb Ge Nb 5_556 5_566 88.67(3)
Ni Ge Nb 2_565 2_554 142.23(4)
Ni Ge Nb 2 2_554 71.25(3)
Ni Ge Nb . 2_554 68.47(3)
Ni Ge Nb 6_656 2_554 67.31(2)
Nb Ge Nb . 2_554 136.099(15)
Nb Ge Nb 5_556 2_554 75.839(14)
Nb Ge Nb 5_566 2_554 136.34(3)
Ni Ge Nb 2_565 2_564 71.25(3)
Ni Ge Nb 2 2_564 142.23(4)
Ni Ge Nb . 2_564 68.47(3)
Ni Ge Nb 6_656 2_564 67.31(2)
Nb Ge Nb . 2_564 136.099(15)
Nb Ge Nb 5_556 2_564 136.34(3)
Nb Ge Nb 5_566 2_564 75.839(14)
Nb Ge Nb 2_554 2_564 87.68(3)
loop_
_geom_bond_atom_site_label_1
_geom_bond_atom_site_label_2
_geom_bond_site_symmetry_2
_geom_bond_distance
Nb Ge . 2.6820(10)
Nb Ge 5_556 2.6910(7)
Nb Ge 5_566 2.6910(7)
Nb Ge 2_565 2.7151(7)
Nb Ge 2 2.7151(7)
Nb Ni 5_566 2.8476(9)
Nb Ni 5_556 2.8476(9)
Nb Ni 6_556 2.8794(12)
Nb Ni 2_565 2.8842(9)
Nb Ni 2 2.8842(8)
Nb Ni 1_556 2.9618(12)
Nb Nb 5_556 3.1714(10)
Ni Ge 2_554 2.3430(7)
Ni Ge 2_564 2.3430(7)
Ni Ge . 2.3893(12)
Ni Ge 6_556 2.4019(12)
Ni Ni 5 2.9090(15)
Ni Ni 5_565 2.9090(15)

_cod_database_fobs_code 2021102
