#------------------------------------------------------------------------------
#$Date: 2022-04-12 05:18:35 +0300 (Tue, 12 Apr 2022) $
#$Revision: 274469 $
#$URL: file:///home/coder/svn-repositories/cod/cif/2/02/25/2022595.cif $
#------------------------------------------------------------------------------
#
# This file is available in the Crystallography Open Database (COD),
# http://www.crystallography.net/. The original data for this entry
# were provided by IUCr Journals, http://journals.iucr.org/.
#
# The file may be used within the scientific community so long as
# proper attribution is given to the journal article from which the
# data were obtained.
#
data_2022595
loop_
_publ_author_name
'Kiriukhina, Galina V.'
'Yakubovich, Olga V.'
'Verchenko, Polina A.'
'Volkov, Anatoly S.'
'Dimitrova, Olga V.'
_publ_section_title
;
 Novel first-row transition-metal phosphates: hydrothermal synthesis and
 crystal structures
;
_journal_coeditor_code           OV3158
_journal_issue                   5
_journal_name_full               'Acta Crystallographica Section C'
_journal_page_first
;
;
_journal_paper_doi               10.1107/S2053229622003692
_journal_volume                  78
_journal_year                    2022
_chemical_formula_iupac          'Mn2 Cu (P O4)2'
_chemical_formula_moiety         'Mn2 Cu P2 O8'
_chemical_formula_sum            'Cu Mn2 O8 P2'
_chemical_formula_weight         363.36
_chemical_name_common            'Manganese copper phosphate'
_chemical_name_systematic        'Dimanganese copper diorthophosphate'
_space_group_crystal_system      triclinic
_space_group_IT_number           2
_space_group_name_Hall           '-P 1'
_space_group_name_H-M_alt        'P -1'
_atom_sites_solution_primary     direct
_atom_sites_solution_secondary   difmap
_audit_creation_method           SHELXL-2018/3
_cell_angle_alpha                72.716(8)
_cell_angle_beta                 86.579(8)
_cell_angle_gamma                69.064(9)
_cell_formula_units_Z            1
_cell_length_a                   4.8292(5)
_cell_length_b                   5.4051(5)
_cell_length_c                   6.5968(6)
_cell_measurement_reflns_used    1224
_cell_measurement_temperature    293(2)
_cell_measurement_theta_max      29.8190
_cell_measurement_theta_min      3.2130
_cell_volume                     153.35(3)
_computing_cell_refinement
;
CrysAlis PRO (Rigaku OD, 2018)
;
_computing_data_collection
;
CrysAlis PRO (Rigaku OD, 2018)
;
_computing_data_reduction
;
CrysAlis PRO (Rigaku OD, 2018)
;
_computing_molecular_graphics
;
DIAMOND (Brandenburg, 2006)
;
_computing_publication_material
;
WinGX (Farrugia, 2012)
;
_computing_structure_refinement
;
SHELXL2018 (Sheldrick, 2015<i>b</i>)
;
_computing_structure_solution
;
SHELXT (Sheldrick, 2015<i>a</i>)
;
_diffrn_ambient_temperature      293(2)
_diffrn_detector_area_resol_mean 16.0630
_diffrn_measured_fraction_theta_full 1.000
_diffrn_measured_fraction_theta_max 0.951
_diffrn_measurement_device_type  'Rigaku OD Xcalibur Sapphire3'
_diffrn_measurement_method       '\w scans'
_diffrn_radiation_type           MoK\a
_diffrn_radiation_wavelength     0.71073
_diffrn_reflns_av_R_equivalents  0.0426
_diffrn_reflns_av_unetI/netI     0.0503
_diffrn_reflns_limit_h_max       6
_diffrn_reflns_limit_h_min       -6
_diffrn_reflns_limit_k_max       7
_diffrn_reflns_limit_k_min       -7
_diffrn_reflns_limit_l_max       9
_diffrn_reflns_limit_l_min       -9
_diffrn_reflns_number            2449
_diffrn_reflns_theta_full        25.242
_diffrn_reflns_theta_max         29.902
_diffrn_reflns_theta_min         3.239
_diffrn_source                   'fine-focus sealed X-ray tube'
_exptl_absorpt_coefficient_mu    8.021
_exptl_absorpt_correction_T_max  0.749
_exptl_absorpt_correction_T_min  0.600
_exptl_absorpt_correction_type   gaussian
_exptl_absorpt_process_details
;
(CrysAlis PRO; Rigaku OD, 2018)
;
_exptl_crystal_colour            'light green'
_exptl_crystal_density_diffrn    3.935
_exptl_crystal_description       flattened
_exptl_crystal_F_000             173
_exptl_crystal_size_max          0.100
_exptl_crystal_size_mid          0.046
_exptl_crystal_size_min          0.045
_refine_diff_density_max         1.188
_refine_diff_density_min         -0.812
_refine_ls_extinction_coef       0.023(4)
_refine_ls_extinction_expression Fc^*^=kFc[1+0.001xFc^2^\l^3^/sin(2\q)]^-1/4^
_refine_ls_extinction_method
;
SHELXL2018 (Sheldrick, 2015<i>b</i>)
;
_refine_ls_goodness_of_fit_ref   1.138
_refine_ls_hydrogen_treatment    undef
_refine_ls_matrix_type           full
_refine_ls_number_parameters     62
_refine_ls_number_reflns         846
_refine_ls_number_restraints     0
_refine_ls_restrained_S_all      1.138
_refine_ls_R_factor_all          0.0409
_refine_ls_R_factor_gt           0.0316
_refine_ls_shift/su_max          0.000
_refine_ls_shift/su_mean         0.000
_refine_ls_structure_factor_coef Fsqd
_refine_ls_weighting_details
'w=1/[\s^2^(Fo^2^)+(0.0200P)^2^+0.0060P] where P=(Fo^2^+2Fc^2^)/3'
_refine_ls_weighting_scheme      calc
_refine_ls_wR_factor_gt          0.0620
_refine_ls_wR_factor_ref         0.0675
_reflns_number_gt                723
_reflns_number_total             846
_reflns_threshold_expression     'I > 2\s(I)'
_cod_data_source_file            ov3158sup1.cif
_cod_data_source_block           II
_cod_database_code               2022595
_shelx_space_group_comment
;
The symmetry employed for this shelxl refinement is uniquely defined
by the following loop, which should always be used as a source of
symmetry information in preference to the above space-group names.
They are only intended as comments.
;
_shelx_hkl_file
;
   0   0   1 24368.9 897.243   7
   0   0  -1 28286.5 1056.49   8
   0   0  -1 24512.8 989.510   5
   0   0   1 25588.0 1040.91   9
   0   0  -1 25676.4 849.817   3
   0   0   1 24394.5 995.674   8
   0   0  -1 27101.6 933.889   7
   0   0   1 26433.4 855.451   3
   0   0  -1 27098.5 1044.09   9
   0   0  -2 46686.4 1615.88   3
   0   0   2 49174.7 2038.49   9
   0   0  -2 54281.4 1844.18   7
   0   0   2 49023.6 1772.55   7
   0   0  -2 52206.3 2019.96   8
   0   0  -2 46738.7 1912.47   5
   0   0   2 50032.6 2010.00   8
   0   0   2 47920.5 1617.14   3
   0   0  -2 50994.2 2029.83   9
   0   0  -3 180571. 4841.54   3
   0   0   3 186365. 5120.70   7
   0   0  -3 180623. 5476.37   5
   0   0   3 184546. 5706.25   9
   0   0   4 38606.8 1975.90   7
   0   0  -4 36506.4 1726.79   3
   0   0  -4 39701.6 2287.44   5
   0   0   4 37822.4 2399.27   9
   0   0   5 4080.10 679.344   7
   0   0   5 3776.83 859.827   9
   0   0  -5 4257.75 838.401   5
   0   0  -5 4354.72 608.844   3
   0   0  -6 57165.2 3563.02   5
   0   0   6 58756.0 3071.40   7
   0   0   6 61549.0 3894.40   9
   0   0   7 2830.54 871.972   9
   0   0  -7 5162.76 1130.88   5
   0   0   7 4453.68 872.206   7
   0   0  -8 926.188 642.723   5
   0   0   8 499.139 459.087   9
   0  -1   8 19322.9 2727.07   9
   0   1  -8 17950.6 2481.50   5
   0   1  -7 35983.2 3252.68   5
   0  -1   7 33013.5 2632.09   7
   0  -1   7 32477.9 3258.84   9
   0  -1   6 18602.7 1811.36   7
   0  -1   6 13166.8 1878.56   9
   0   1  -6 20043.4 2184.48   5
   0   1  -5 284.177 333.691   5
   0  -1   5 468.030 328.512   7
   0  -1   5 731.606 491.484   9
   0   1  -4 135288. 5361.10   5
   0  -1   4 144388. 4102.13   6
   0  -1   4 133276. 5559.82   9
   0   1  -4 135276. 3989.16   6
   0  -1   4 147061. 5095.06   7
   0   1  -4 142084. 3316.80   2
   0   1  -3 19940.0 1573.61   5
   0  -1   3 20408.2 940.823   3
   0  -1   3 19938.0 1168.77   6
   0  -1   3 20248.1 1463.33   7
   0  -1   3 20577.8 1692.07   9
   0   1  -3 19526.4 1122.46   6
   0   1  -3 19661.0 718.618   2
   0   1  -2 420.746 271.759   5
   0  -1   2 384.420 183.125   6
   0  -1   2 390.155 223.034   7
   0  -1   2 433.645 112.581   3
   0   1  -2 481.892 160.778   6
   0   1  -2 461.125 93.8598   2
   0   1  -1 55247.9 2164.25   5
   0   1  -1 48315.5 1526.02   2
   0   1  -1 53019.1 1947.51   6
   0  -1   1 58957.2 2195.13   5
   0   1  -1 56001.1 2134.53   9
   0  -1   1 51546.3 2082.49   9
   0  -1   1 51984.8 1526.30   2
   0  -1   1 49321.2 1927.58   6
   0  -1   0 1303.45 283.992   5
   0  -1   0 735.037 210.783   6
   0   1   0 964.288 189.358   9
   0   1   0 775.201 235.967   5
   0   1   0 874.933 206.968   6
   0  -1  -1 9893.64 694.316   8
   0   1   1 9792.79 650.648   6
   0  -1  -1 9296.15 425.199   4
   0   1   1 9003.72 664.101   8
   0  -1  -1 9198.66 637.162   6
   0   1   1 8860.32 418.046   4
   0  -1  -2 392890. 8435.54   7
   0   1   2 346065. 8174.19   6
   0  -1  -2 366005. 8293.79   9
   0  -1  -2 329851. 8166.97   6
   0   1   2 361060. 8327.13   9
   0   1   2 364615. 8774.29   8
   0  -1  -3 73171.3 2854.05   3
   0   1   3 76292.6 2812.89   9
   0   1   3 77753.6 2056.39   6
   0   1   3 75814.2 2622.87   7
   0   1   3 76966.9 3042.52   8
   0   1   4 66069.1 3129.02   8
   0   1   4 67699.6 2654.54   7
   0   1   4 69032.6 3050.10   9
   0  -1  -4 69199.5 2917.61   3
   0  -1  -5 25977.4 1805.97   3
   0   1   5 25935.2 2082.37   8
   0   1   5 25571.5 2017.23   9
   0   1   5 25338.3 1641.40   7
   0   1   6 94887.2 4782.24   8
   0   1   6 93919.7 4717.98   9
   0  -1  -6 96454.1 4662.53   5
   0  -1  -6 107010. 4278.11   3
   0   1   6 99624.7 4015.25   7
   0  -1  -7-48.0872 212.729   5
   0   1   7-268.165 344.941   9
   0   1   8 1315.99 710.512   9
   0  -1  -8 806.397 459.650   5
   0   1   9 8118.92 1721.26   9
   0   2  -7 992.348 665.949   5
   0  -2   7-184.729 372.009   9
   0  -2   6 1048.81 479.851   7
   0   2  -6 1647.28 787.623   5
   0  -2   6 719.639 539.187   9
   0   2  -5 45297.1 3438.01   5
   0  -2   5 53287.1 3811.44   9
   0  -2   5 50288.1 3279.50   7
   0  -2   4 14224.7 1320.42   6
   0   2  -4 14955.1 1753.42   5
   0  -2   4 14572.0 1589.49   7
   0  -2   4 19201.6 2008.78   9
   0  -2   3 24128.1 1924.99   7
   0  -2   3 23060.8 1075.27   3
   0   2  -3 27809.3 2192.59   5
   0  -2   3 23229.2 1698.10   6
   0   2  -2 286315. 8445.71   5
   0  -2   2 267626. 8200.52   9
   0  -2   2 281784. 8000.36   6
   0  -2   2 272766. 6633.88   2
   0  -2   1 36596.4 1601.71   2
   0  -2   1 39351.0 2146.54   6
   0   2  -1 34205.9 2144.88   5
   0  -2   0 105526. 3848.22   6
   0   2   0 104198. 3389.26   9
   0  -2   0 103488. 2814.03   1
   0   2   0 104748. 3926.38   5
   0   2   1 24585.7 1090.64   4
   0  -2  -1 23477.3 1542.26   6
   0   2   1 23078.6 1550.65   8
   0   2   2 10010.3 577.687   4
   0   2   2 10728.2 1025.87   8
   0  -2  -2 8919.32 892.659   6
   0  -2  -2 9942.46 587.462   4
   0   2   3 371.796 241.040   8
   0   2   3 135.430 119.626   9
   0  -2  -3 118.440 147.378   6
   0  -2  -3 215.214 103.431   4
   0  -2  -4 62959.8 3098.27   3
   0   2   4 63947.2 2688.94   9
   0  -2  -4 67900.6 2467.38   6
   0   2   4 65668.1 3214.49   8
   0   2   4 62789.8 2390.73   6
   0   2   5 8445.60 1197.76   8
   0   2   5 10928.4 1177.79   9
   0  -2  -5 8329.02 1134.80   3
   0  -2  -6 12853.9 1518.96   3
   0   2   6 14752.9 1583.74   9
   0   2   6 14932.4 1761.91   8
   0   2   7 3113.21 882.988   8
   0   2   7 1182.53 462.796   9
   0  -2  -7 1946.73 627.975   3
   0  -2  -8 30033.1 2894.64   5
   0   2   8 30834.1 3068.23   8
   0   2   8 32501.9 2941.70   9
   0  -2  -9 728.365 543.813   5
   0  -3   6 18921.7 2358.96   7
   0   3  -6 17745.5 2546.73   5
   0   3  -5 14210.2 2112.52   5
   0  -3   5 12583.4 1793.24   7
   0  -3   4 1045.89 490.948   7
   0  -3   4 381.951 294.394   6
   0   3  -3 11858.5 1675.28   5
   0  -3   3 10881.7 1390.24   6
   0  -3   3 12205.7 1568.68   7
   0  -3   2 2964.55 769.484   6
   0   3  -2 2102.29 678.984   5
   0  -3   1 1253.45 437.605   6
   0   3  -1 1967.22 606.805   5
   0  -3   0 107265. 4616.11   6
   0  -3   0 114127. 3201.39   1
   0   3   1 125872. 3967.84   4
   0  -3  -1 129925. 5052.59   6
   0  -3  -2 50673.2 2826.01   6
   0   3   2 48633.7 1808.69   4
   0   3   2 46032.9 2742.80   8
   0  -3  -3 5555.29 494.116   4
   0   3   3 6953.43 1023.58   8
   0  -3  -3 7488.83 995.306   6
   0  -3  -4 97303.7 4488.81   3
   0   3   4 102099. 4521.80   8
   0   3   4 106128. 3472.78   9
   0  -3  -4 102113. 3177.97   4
   0  -3  -4 107929. 4161.89   6
   0   3   5 5510.90 761.169   9
   0  -3  -5 6294.67 830.586   6
   0   3   5 4977.29 981.238   8
   0  -3  -5 6857.47 1128.34   3
   0   3   6 669.282 423.789   8
   0  -3  -6 592.490 458.393   3
   0   3   6 535.881 301.467   9
   0  -3  -7 11497.4 1674.64   3
   0   3   7 13636.9 1881.54   8
   0   3   8-126.038 307.497   8
   0  -3  -8-64.0957 242.181   3
   0  -4   5 4704.49 1267.42   7
   0   4  -5 5418.47 1516.05   5
   0  -4   4 40391.8 3160.43   6
   0  -4   4 36525.6 3368.14   7
   0   4  -4 39271.9 3705.98   5
   0  -4   3 71005.2 4210.85   6
   0  -4   3 58267.2 4140.85   7
   0   4  -3 64073.6 4560.67   5
   0   4  -2 596.661 428.656   5
   0  -4   2 368.533 365.727   6
   0   4  -1 4021.14 1019.87   5
   0  -4   1 4519.86 993.645   6
   0  -4   0 27400.3 2455.57   6
   0   4   0 25560.8 1960.54   4
   0   4   1 14738.7 1272.59   4
   0  -4  -1 15773.0 1236.08   1
   0  -4  -1 16546.8 1868.12   6
   0   4   2 51106.3 3410.35   8
   0   4   2 54253.3 2284.84   4
   0   4   3 47270.9 3183.82   8
   0  -4  -3 45540.8 3051.09   6
   0   4   3 45020.8 1726.22   4
   0   4   4-136.771 267.555   8
   0  -4  -4 26.7078 195.397   3
   0  -4  -4 396.179 296.860   6
   0  -4  -5 254.588 271.208   6
   0   4   5 517.206 412.479   8
   0  -4  -5 1165.18 556.333   3
   0  -4  -6 45306.8 3488.44   3
   0   4   6 46991.5 3526.50   8
   0  -4  -7 30855.8 2976.34   3
   0   4   7 29497.8 2944.33   8
   0  -4  -8 3715.37 1125.85   3
   0   4   8 3936.72 1155.69   8
   0  -4  -9 1252.62 679.122   3
   0  -5   4 6109.24 1525.68   7
   0  -5   3 822.337 606.468   7
   0  -5   3 164.654 455.383   6
   0   5  -3 590.740 540.280   5
   0  -5   2 12709.5 1917.37   6
   0   5  -2 14096.1 2217.82   5
   0   5  -2 13732.6 1904.01   4
   0   5  -1 92690.9 5698.17   5
   0  -5   1 86259.5 5224.07   6
   0   5  -1 88913.4 4760.87   4
   0  -5   0 350.273 286.666   6
   0   5   0 471.432 320.475   4
   0   5   1 13506.8 1408.82   4
   0   5   1 15949.4 2160.98   8
   0  -5  -1 10944.9 1734.27   6
   0  -5  -2 47437.0 3622.81   6
   0   5   2 42835.9 3508.96   8
   0  -5  -2 48905.8 2799.82   1
   0  -5  -3 45073.0 3437.24   6
   0   5   3 43006.4 3475.16   8
   0  -5  -4 1363.11 578.130   6
   0  -5  -4 947.394 502.591   3
   0   5   4 1938.96 785.502   8
   0  -5  -5 11462.7 1775.58   3
   0  -5  -5 13502.4 1776.14   6
   0   5   5 11727.9 1804.03   8
   0  -5  -6 4354.50 1193.91   3
   0   5   6 3139.23 982.427   8
   0  -5  -7-814.198 580.888   3
   0   5   7-970.582 583.397   8
   0  -6   2 2095.60 883.598   6
   0  -6   1 4044.47 1192.08   6
   0  -6   0 6828.20 1550.90   6
   0   6   1 13257.3 2202.34   8
   0  -6  -1 19830.8 2569.59   6
   0  -6  -1 18289.8 2088.14   3
   0   6   2 2759.04 1006.64   8
   0  -6  -2 2705.67 946.159   6
   0  -6  -2 3117.08 912.656   3
   0   6   3 9917.79 1827.76   8
   0  -6  -3 11679.3 1937.73   6
   0  -6  -3 11075.7 1774.14   3
   0  -6  -4 5563.42 1355.87   3
   0   6   4 3798.66 1126.02   8
   0  -6  -4 5513.64 1302.62   6
   0  -6  -5 48045.8 3897.20   6
   0  -6  -5 52286.3 4208.71   3
   0   6   5 50814.5 4213.00   8
   0  -6  -6 827.668 632.874   3
   0   6   6 7.83926 297.036   8
   0  -7  -2 565.299 484.107   3
   0  -7  -3 2118.39 894.520   3
  -1   6   4-137.728 299.417   8
   1  -6  -4 14.6780 352.491   3
   1  -6  -3 21936.8 2603.82   3
  -1   6   3 15989.1 2433.20   8
   1  -6  -2 41978.5 3526.78   3
  -1   6   2 46728.7 4196.24   8
   1  -6  -2 46650.7 4130.03   6
  -1   6   1 3767.73 1193.78   8
   1  -6  -1 4094.51 1283.85   6
  -1   5   7 21344.2 2722.07   8
  -1   5   6 58101.9 4373.77   8
   1  -5  -6 57061.2 4503.16   3
  -1   5   5 2434.10 881.518   8
   1  -5  -5 1822.72 795.198   3
  -1   5   4 1177.49 595.315   8
   1  -5  -4-190.029 333.475   3
   1  -5  -3 26694.6 2627.82   3
   1  -5  -3 27030.7 2770.13   6
  -1   5   3 22072.6 2533.20   8
  -1   5   2 1729.42 829.386   8
   1  -5  -2 1625.71 775.975   6
   1  -5  -2 880.201 476.112   3
  -1   5   1 14583.6 1666.97   4
   1  -5  -1 13447.4 1703.35   3
   1  -5  -1 13965.1 2037.15   6
  -1   5   1 16158.9 2248.68   8
   1  -5   0 42593.3 3646.20   6
  -1   5   0 39729.2 3044.89   4
   1  -5   0 40147.7 2844.80   3
  -1   5  -1 113.808 249.124   4
   1  -5   1 438.731 466.400   6
  -1   5  -2-11.2637 219.989   4
   1  -5   2-25.3370 318.455   7
  -1   5  -3 48621.8 4467.20   5
  -1   5  -3 37649.5 3711.37   4
  -1   4   8 967.023 700.243   8
   1  -4  -8 78.9375 340.475   3
  -1   4   7 4418.68 1141.21   8
   1  -4  -7 3757.29 1092.13   3
  -1   4   6 9070.78 1524.90   8
   1  -4  -6 6452.39 1378.64   3
  -1   4   5 3260.13 935.518   8
   1  -4  -5 3447.31 989.480   3
   1  -4  -4 100558. 5208.00   3
  -1   4   4 99671.6 5113.89   8
   1  -4  -3 400.096 344.238   6
  -1   4   3 533.150 411.473   8
  -1   4   3 838.029 320.096   4
   1  -4  -3 261.999 455.770   3
  -1   4   2 32136.3 2124.83   4
  -1   4   2 28553.2 2618.75   8
   1  -4  -2 32484.0 2696.57   6
   1  -4  -2 31987.1 2506.26   3
   1  -4  -1 56859.7 3746.15   6
  -1   4   1 60724.1 3232.56   4
   1  -4  -1 58134.4 3314.02   3
  -1   4   0 20867.6 1955.79   4
   1  -4   0 17391.7 1637.99   3
   1  -4   0 19266.4 2127.64   6
  -1   4  -1 3057.09 826.947   4
   1  -4   1 2608.58 796.796   6
   1  -4   1 3618.00 676.447   3
  -1   4  -2 21913.1 2395.81   4
   1  -4   2 19829.8 2365.74   7
  -1   4  -2 26655.2 2825.70   5
   1  -4   2 21286.5 2338.52   6
   1  -4   3 3662.53 1070.14   7
  -1   4  -3 5960.35 1315.33   4
  -1   4  -3 5496.30 1344.15   5
   1  -4   4-818.344 616.097   7
  -1   4  -4 560.036 493.024   4
  -1   4  -4 616.513 545.249   5
   1  -3  -9-281.282 413.089   3
  -1   3   8 53570.3 4144.42   8
   1  -3  -8 49445.7 3928.18   3
  -1   3   7-238.509 273.430   9
  -1   3   7 291.068 340.688   8
   1  -3  -7-244.341 330.030   3
  -1   3   6 1991.97 629.483   9
  -1   3   6 1618.11 617.796   8
   1  -3  -6 3489.98 940.622   3
  -1   3   5 11413.0 1513.81   8
  -1   3   5 13533.2 1387.01   9
   1  -3  -5 10788.4 1546.82   3
   1  -3  -4 479.574 378.405   3
  -1   3   4 862.089 340.678   9
  -1   3   4 405.454 361.238   8
   1  -3  -3 4970.74 888.177   6
   1  -3  -3 5419.10 969.709   3
  -1   3   3 5108.53 713.423   4
  -1   3   3 4248.05 864.630   8
  -1   3   2 91940.4 3552.05   4
   1  -3  -2 86690.9 4123.79   6
  -1   3   2 83462.0 4087.06   8
   1  -3  -2 89720.9 4048.42   3
  -1   3   1 775.591 337.971   4
   1  -3  -1 609.532 394.411   6
   1  -3  -1 572.569 344.119   3
  -1   3   0 25626.5 1956.31   4
   1  -3   0 25413.5 2157.65   6
   1  -3   0 26543.4 1783.32   3
   1  -3   1 30811.6 1787.88   3
   1  -3   1 30114.4 2395.95   6
  -1   3  -1 33364.7 2647.79   5
  -1   3  -1 30098.9 2339.72   4
  -1   3  -2 52851.4 3470.01   4
   1  -3   2 51666.2 3284.24   6
   1  -3   2 46658.0 3288.72   7
   1  -3   2 55707.6 2173.67   3
  -1   3  -2 55319.1 3637.72   5
   1  -3   3 4981.36 1130.67   7
  -1   3  -3 5237.02 1150.53   5
   1  -3   4 141.990 465.296   7
  -1   3  -4 6.24893 376.623   5
  -1   3  -5 26596.6 2949.79   5
   1  -3   5 20365.7 2482.54   7
   1  -3   6 574.397 494.959   7
  -1   3  -6 1412.73 765.777   5
  -1   2   8 1497.91 632.049   9
   1  -2  -8 561.925 337.564   3
   1  -2  -8 2322.65 840.876   5
  -1   2   8 2261.73 852.603   8
  -1   2   7 84.0215 341.016   8
  -1   2   7-65.5773 230.148   9
   1  -2  -7 461.845 390.871   3
   1  -2  -6 121661. 5566.84   3
  -1   2   6 119576. 5478.87   8
  -1   2   6 126813. 5385.47   9
  -1   2   5 26187.9 2162.47   8
   1  -2  -5 31658.6 2463.57   3
  -1   2   5 29616.9 2141.90   9
  -1   2   4 46882.3 2690.76   8
  -1   2   4 46883.4 2486.29   9
   1  -2  -4 41511.7 2717.68   3
   1  -2  -3 43539.6 2577.36   3
  -1   2   3 41682.3 2350.07   8
  -1   2   3 42435.1 2125.45   4
  -1   2   2 97297.4 3769.94   8
  -1   2   2 94796.8 3384.36   4
   1  -2  -2 93721.7 3813.01   3
  -1   2   1 523.942 256.591   4
   1  -2  -1 344.939 254.244   6
   1  -2  -1-10.6139 151.892   3
   1  -2   0 86520.9 3679.89   6
   1  -2   0 87043.4 3179.04   3
  -1   2   0 92454.6 3575.90   4
  -1   2  -1 41600.1 2460.34   4
   1  -2   1 39338.9 2358.49   6
  -1   2  -1 40808.4 2510.33   5
   1  -2   1 38906.9 1713.39   3
   1  -2   2 5762.31 451.267   3
  -1   2  -2 5083.94 904.830   5
   1  -2   2 4889.55 899.122   7
   1  -2   2 5255.69 501.074   2
  -1   2  -3 33930.4 2564.30   5
   1  -2   3 34944.2 2577.25   7
  -1   2  -4 50884.9 3437.40   5
   1  -2   4 46574.3 3225.83   7
  -1   2  -5 1054.81 614.684   5
   1  -2   5 1188.18 591.255   7
   1  -2   6 106.082 279.702   7
  -1   2  -6-136.804 274.196   5
   1  -2   7 24425.8 2762.49   7
  -1   2  -7 24970.0 3000.15   5
  -1   1   9 9645.12 1875.19   9
  -1   1   8-61.7468 209.589   9
   1  -1  -8-154.352 296.540   5
   1  -1  -7 9534.84 1379.18   3
   1  -1  -7 8976.97 1482.83   5
  -1   1   7 8229.14 1427.19   9
  -1   1   6 3952.50 882.144   8
   1  -1  -6 3017.32 710.585   3
  -1   1   6 2105.41 696.525   9
  -1   1   5 11010.9 1346.35   8
  -1   1   5 11272.9 1344.55   9
   1  -1  -5 12325.9 1371.90   3
   1  -1  -4 137524. 5034.15   3
   1  -1  -4 127235. 3786.60   7
  -1   1   4 136840. 4903.08   9
  -1   1   4 133530. 4845.34   8
  -1   1   4 143888. 4059.39   6
   1  -1  -3 80468.1 3411.34   3
  -1   1   3 81666.4 3210.37   9
   1  -1  -3 79763.1 2460.55   7
  -1   1   3 82575.0 3221.50   8
  -1   1   2 3676.33 508.799   8
   1  -1  -2 3233.40 552.930   3
  -1   1   2 3448.07 500.993   4
  -1   1   2 3487.99 499.140   6
  -1   1   1 11498.4 875.760   4
   1  -1  -1 12057.2 897.114   4
   1  -1  -1 11324.5 926.470   3
  -1   1   1 11279.7 864.723   8
  -1   1   0 300053. 7848.03   4
   1  -1   0 294402. 7463.53   3
  -1   1   0 320815. 7494.28   3
   1  -1   0 307742. 7893.64   5
  -1   1  -1 78034.5 3118.23   4
   1  -1   1 81835.6 2206.17   1
   1  -1   1 74808.3 2217.11   3
  -1   1  -1 70995.5 2892.92   5
   1  -1   1 78008.5 3045.92   7
   1  -1   2-91.8291 223.772   7
  -1   1  -2 122.351 125.066   1
  -1   1  -2 320.806 215.633   5
  -1   1  -3 99921.5 4083.64   5
   1  -1   3 94802.7 4084.36   7
  -1   1  -3 101700. 3279.22   1
   1  -1   4 37003.1 2534.24   7
  -1   1  -4 35850.0 2476.84   5
   1  -1   5 500.246 369.187   7
  -1   1  -5 1512.94 572.618   5
   1  -1   6 22809.4 2278.60   7
  -1   1  -6 25411.1 2515.26   5
   1  -1   7 4047.47 1021.75   7
  -1   1  -7 3273.88 976.753   5
  -1   1  -8-303.300 424.302   5
  -1   0   8 31984.5 3333.38   9
   1   0  -8 29643.1 3083.60   5
   1   0  -7 47547.5 3615.08   5
  -1   0   7 53034.5 3990.94   9
   1   0  -6 13668.6 1433.66   3
  -1   0   6 15193.4 1892.46   9
   1   0  -6 14914.5 1797.46   5
   1   0  -5 1133.14 516.274   5
  -1   0   5 238.709 230.420   9
   1   0  -5 394.450 323.490   3
  -1   0   5 240.565 187.650   7
   1   0  -4 66564.5 3283.16   5
   1   0  -4 66076.8 2985.97   3
  -1   0   4 66303.5 2282.20   7
  -1   0   4 69530.5 2058.79   6
  -1   0   4 67085.8 3335.54   9
  -1   0   4 67432.6 3163.42   8
  -1   0   3 10645.7 1085.63   9
  -1   0   3 12101.6 639.670   7
   1   0  -3 13808.9 1121.76   3
  -1   0   3 12541.5 1055.50   8
   1   0  -2 77560.3 2834.55   3
  -1   0   2 79245.9 2902.04   9
   1   0  -2 82157.6 2634.10   8
  -1   0   2 76992.9 2593.41   8
  -1   0   1 91831.4 2918.19   4
  -1   0   1 88211.3 2426.07   8
   1   0  -1 91602.8 2450.63   8
   1   0  -1 90567.5 2923.99   3
   1   0  -1 98230.7 2961.68   4
  -1   0   1 102473. 3016.75   3
  -1   0   0 5817.22 537.378   4
   1   0   0 5416.93 486.090   3
  -1   0   0 7180.66 537.806   3
   1   0   0 7417.95 605.668   4
   1   0   0 5083.14 420.563   7
  -1   0   0 6342.37 465.884   7
   1   0   1 11032.2 804.419   7
  -1   0  -1 11851.6 832.540   7
  -1   0  -1 12099.6 786.440   1
  -1   0  -1 11062.7 860.846   4
  -1   0  -1 11831.6 592.133   3
   1   0   1 10871.3 616.737   5
  -1   0  -1 10790.6 632.707   5
   1   0   1 12163.6 782.740   1
   1   0   1 12231.9 660.878   2
   1   0   2 145135. 3915.00   5
  -1   0  -2 132500. 3884.85   5
   1   0   2 138191. 4279.43   7
   1   0   2 132936. 3381.33   2
  -1   0  -2 134109. 3351.75   2
  -1   0  -2 137301. 4052.54   1
  -1   0  -3 46896.2 1786.13   6
  -1   0  -3 40969.3 1308.83   2
   1   0   3 42449.0 2226.85   7
  -1   0  -3 41543.5 1315.21   3
  -1   0  -3 39918.6 2020.72   5
  -1   0  -4 2987.95 628.508   5
   1   0   4 3811.81 772.755   9
  -1   0  -4 3397.94 332.346   3
  -1   0  -4 3056.74 408.208   6
  -1   0  -4 2598.23 255.241   2
   1   0   4 3189.82 649.488   7
   1   0   5 17546.3 1655.59   7
   1   0   5 16945.7 1847.93   9
  -1   0  -5 15350.2 1569.89   5
   1   0   6 66300.0 4186.78   9
   1   0   6 63477.4 3643.22   7
  -1   0  -6 71072.4 3935.40   5
   1   0   7-174.619 268.588   7
  -1   0  -7 64.4320 225.718   5
  -1   0  -8 1056.53 649.001   5
   1   0   8 990.712 527.348   7
  -1  -1   8 58.4399 365.956   9
   1   1  -7 83.4882 307.130   5
  -1  -1   7-309.793 354.627   9
  -1  -1   6 11550.2 1750.73   9
   1   1  -6 12582.3 1749.91   5
   1   1  -5 43780.7 3069.28   5
  -1  -1   5 51671.4 3445.96   9
   1   1  -5 48025.0 2303.68   2
  -1  -1   5 54762.2 2536.07   7
   1   1  -4 2682.01 518.252   3
   1   1  -4 2063.84 591.875   5
  -1  -1   4 1938.64 411.646   7
   1   1  -4 2932.64 481.035   2
  -1  -1   4 2250.24 374.478   6
  -1  -1   4 1040.46 424.133   9
  -1  -1   3 64457.4 3103.42   9
  -1  -1   3 65973.5 2388.85   6
   1   1  -3 64907.9 2477.34   2
  -1  -1   3 63465.4 2420.66   7
   1   1  -3 64285.3 3028.76   5
   1   1  -3 61027.5 2539.88   3
   1   1  -2 74534.6 2965.86   5
  -1  -1   2 79597.0 3108.38   9
  -1  -1   2 77587.5 2627.59   6
   1   1  -2 80060.0 2694.38   2
   1   1  -1 184943. 4828.73   9
  -1  -1   1 174853. 4730.40   6
   1   1  -1 171977. 4790.98   5
  -1  -1   1 184218. 4848.54   3
  -1  -1   1 165547. 4777.37   9
  -1  -1   1 180637. 4791.76   5
   1   1  -1 171724. 4707.94   2
   1   1   0 45823.2 1797.94   2
  -1  -1   0 50098.2 1594.63   5
  -1  -1   0 46972.2 1663.50   4
   1   1   0 51670.8 1715.01   4
   1   1   0 46908.9 1614.61   5
  -1  -1   0 52138.1 1866.06   2
  -1  -1  -1 11370.9 888.542   1
   1   1   1 12955.5 707.591   8
  -1  -1  -1 12785.5 676.886   4
   1   1   1 13418.7 708.252   4
   1   1   1 12083.3 903.413   1
  -1  -1  -1 11747.2 791.045   7
   1   1   1 12590.8 805.844   7
   1   1   1 12571.0 847.869   2
  -1  -1  -1 13077.6 839.221   2
  -1  -1  -1 13206.7 725.732   8
  -1  -1  -2 64116.6 2274.15   4
   1   1   2 68209.2 2440.24   8
   1   1   2 65255.8 2382.24   2
   1   1   2 62858.7 2435.57   7
  -1  -1  -2 69636.0 2394.55   2
  -1  -1  -2 70155.2 2307.11   9
   1   1   3 20651.2 1391.87   7
   1   1   3 19447.8 1312.45   9
  -1  -1  -3 23012.3 1292.33   2
   1   1   3 21930.4 1478.10   8
   1   1   4 20058.8 1579.53   9
  -1  -1  -4 20267.4 1459.75   5
  -1  -1  -4 21005.6 908.380   6
   1   1   4 20818.0 1674.86   8
   1   1   4 18937.5 1493.34   7
   1   1   5 30170.3 2109.76   7
  -1  -1  -5 32000.8 1791.74   3
  -1  -1  -5 30196.0 2069.48   5
   1   1   5 28515.9 2188.22   9
   1   1   5 34825.1 2448.52   8
   1   1   6 12560.8 1450.53   7
  -1  -1  -6 13258.5 1511.91   5
  -1  -1  -6 12513.1 1158.28   3
   1   1   6 11883.7 1561.54   9
   1   1   7 3503.84 830.420   7
   1   1   7 4082.15 1039.69   9
  -1  -1  -7 5416.65 1058.76   5
  -1  -1  -8 38996.8 3290.36   5
   1   1   8 42733.6 3151.65   7
  -1  -1  -9 876.892 589.284   5
   1   2  -7 3850.07 1143.08   5
  -1  -2   7 4289.02 1318.00   9
   1   2  -6 17387.9 2207.56   5
  -1  -2   6 11223.6 1858.53   9
   1   2  -5 13581.4 1808.50   5
  -1  -2   5 13431.5 1436.57   7
  -1  -2   5 16676.9 2052.96   9
  -1  -2   4 8482.89 987.175   6
  -1  -2   4 10388.9 1467.85   9
   1   2  -4 9347.41 840.259   2
   1   2  -4 9664.40 1383.64   5
  -1  -2   4 9067.09 1109.76   7
   1   2  -3 48115.7 2898.46   5
  -1  -2   3 47714.3 2510.23   7
  -1  -2   3 48367.2 2457.92   6
  -1  -2   3 47181.7 2878.09   9
   1   2  -3 44873.0 2046.39   2
   1   2  -2 2506.43 570.218   5
   1   2  -2 2869.44 450.983   2
  -1  -2   2 2756.64 558.429   6
  -1  -2   2 2731.07 571.108   9
  -1  -2   1 15956.3 1192.60   9
   1   2  -1 15886.4 1337.52   5
  -1  -2   1 17592.6 1299.47   6
   1   2  -1 16287.1 1122.11   2
  -1  -2   0 48838.5 1861.98   9
  -1  -2   0 51250.7 2295.48   6
   1   2   0 50978.4 2218.54   2
   1   2   0 51555.2 1856.11   9
   1   2   0 47869.4 2292.38   5
   1   2   0 55139.5 2169.33   1
   1   2   1 200051. 4633.50   4
   1   2   1 198489. 5789.15   2
  -1  -2  -1 195076. 4489.92   9
  -1  -2  -1 206564. 5735.55   6
  -1  -2  -1 191346. 5642.55   1
  -1  -2  -1 206258. 5618.79   5
   1   2   1 212319. 5638.22   8
   1   2   2 2426.91 443.130   8
  -1  -2  -2 3488.56 512.271   6
   1   2   3 9338.85 971.818   8
  -1  -2  -3 7762.64 585.825   9
   1   2   3 8408.54 635.648   9
  -1  -2  -3 7705.67 751.127   6
   1   2   4 124937. 4523.75   7
  -1  -2  -4 128754. 3867.06   6
   1   2   4 121738. 4076.15   9
   1   2   4 121283. 4703.01   8
   1   2   5 5248.94 950.410   8
   1   2   5 5062.79 846.549   7
  -1  -2  -5 6361.42 563.645   6
  -1  -2  -5 6048.82 872.934   3
   1   2   5 5916.62 843.050   9
   1   2   6 7812.21 1134.19   9
   1   2   6 8908.85 1201.39   7
  -1  -2  -6 9903.78 1221.45   3
   1   2   6 11374.5 1523.92   8
   1   2   7 18177.8 1851.03   7
   1   2   7 16097.4 2020.54   8
   1   2   7 17269.1 1918.60   9
  -1  -2  -7 19873.9 1852.09   3
  -1  -2  -7 16197.5 1842.57   5
  -1  -2  -8 2544.05 856.508   5
   1   2   8 1858.90 695.291   9
  -1  -2  -9 43.9356 298.206   5
   1   3  -6 11022.6 1954.92   5
  -1  -3   6 11311.5 2018.53   9
  -1  -3   5 20392.1 2108.66   7
  -1  -3   5 25509.4 2719.71   9
   1   3  -5 22015.6 2564.03   5
  -1  -3   4 18719.4 1812.06   6
  -1  -3   4 17146.2 1852.20   7
  -1  -3   4 22472.2 2320.41   9
   1   3  -4 19319.3 2227.74   5
   1   3  -3 170790. 5308.69   2
  -1  -3   3 179529. 6403.81   6
  -1  -3   3 172378. 6737.13   9
   1   3  -3 168043. 6902.37   5
   1   3  -2 381.816 247.446   2
  -1  -3   2 554.795 304.400   6
   1   3  -2 1567.76 557.141   5
  -1  -3   2 1274.63 479.749   9
  -1  -3   1 10959.5 1138.32   9
   1   3  -1 10865.2 1102.60   2
   1   3  -1 11732.7 954.145   1
   1   3  -1 12371.6 1419.02   5
  -1  -3   1 12726.7 1360.96   6
   1   3   0 119937. 4892.32   5
  -1  -3   0 132788. 4936.00   6
   1   3   0 131280. 4641.55   2
  -1  -3   0 128431. 4120.30   9
   1   3   1 1259.69 484.582   8
   1   3   1 1088.56 195.954   9
  -1  -3  -1 1038.90 401.735   6
  -1  -3  -1 1006.96 369.508   1
  -1  -3  -2 28508.6 1942.38   1
  -1  -3  -2 33338.0 2096.82   6
   1   3   2 31516.6 2033.23   8
  -1  -3  -3 175753. 5825.57   6
   1   3   3 180053. 6006.66   8
   1   3   4 295.127 311.513   8
  -1  -3  -4 294.833 78.4513   4
  -1  -3  -4 724.863 303.644   6
  -1  -3  -4 266.813 111.550   4
   1   3   4 522.696 180.853   9
   1   3   5 75.9728 225.420   8
   1   3   5 233.022 175.551   9
  -1  -3  -5 175.161 176.699   6
   1   3   6 91854.5 3838.17   9
  -1  -3  -6 83067.4 4350.68   3
  -1  -3  -7 17862.6 1943.63   3
   1   3   7 14587.2 1953.07   8
  -1  -3  -8 8177.57 1448.56   5
   1   3   8 4917.24 1224.92   8
  -1  -3  -8 7679.73 1332.32   3
  -1  -3  -9 2698.96 891.955   5
  -1  -4   5 15775.8 2124.39   7
  -1  -4   5 18887.3 2557.87   9
   1   4  -5 20883.4 2792.29   5
  -1  -4   4 11289.4 1749.61   7
  -1  -4   4 14826.4 1869.42   6
  -1  -4   4 10394.6 1715.09   9
   1   4  -4 13237.8 2071.99   5
  -1  -4   3 8969.76 1409.30   6
   1   4  -3 4573.41 1186.54   5
  -1  -4   3 6676.66 1260.14   9
  -1  -4   2 9416.22 1342.54   9
  -1  -4   2 7877.72 1304.94   6
   1   4  -2 7993.94 1443.86   5
  -1  -4   1 179037. 6949.26   6
   1   4  -1 172692. 7166.03   5
  -1  -4   0 11119.3 1483.52   6
   1   4   0 11404.0 1549.14   5
   1   4   1 12079.2 1526.98   8
  -1  -4  -1 12683.0 1227.39   1
  -1  -4  -1 15372.8 1679.15   6
   1   4   2 91166.3 2363.02   9
   1   4   2 89540.2 2301.99   4
   1   4   2 92050.1 2331.62   4
  -1  -4  -2 90891.7 4407.99   6
  -1  -4  -2 99396.1 4111.28   1
   1   4   2 85949.7 4300.67   8
   1   4   3 46303.1 2992.67   8
  -1  -4  -3 48696.1 2986.23   1
  -1  -4  -3 46589.2 2965.06   6
  -1  -4  -4 2736.66 712.751   6
   1   4   4 2314.77 706.843   8
   1   4   5 41404.0 3053.06   8
  -1  -4  -5 47877.5 2915.99   6
  -1  -4  -6 11704.7 1652.93   3
   1   4   6 15427.8 1934.38   8
   1   4   7 1431.17 661.241   8
  -1  -4  -7 1549.76 655.079   3
   1   4   8 39697.6 3614.11   8
  -1  -4  -8 35159.9 3219.88   3
  -1  -5   4 980.396 635.182   7
   1   5  -4 1719.68 855.690   5
  -1  -5   3 496.440 456.163   6
   1   5  -3-932.217 636.739   5
  -1  -5   2 19160.3 2343.94   6
   1   5  -2 16743.0 2348.02   5
  -1  -5   1 1834.00 759.621   6
   1   5  -1 80.6011 341.495   5
   1   5   0-64.9187 363.388   5
  -1  -5   0 268.856 382.351   6
  -1  -5  -1 90123.1 5019.77   6
   1   5   1 80722.0 4803.18   8
   1   5   2 2267.29 798.496   8
  -1  -5  -2 1600.29 568.202   1
  -1  -5  -2 1518.62 668.402   6
  -1  -5  -3 15954.5 1941.21   6
  -1  -5  -3 16194.1 1791.34   1
   1   5   3 14933.5 1898.09   8
  -1  -5  -4 33077.3 2834.64   6
   1   5   4 28418.8 2655.01   8
  -1  -5  -4 25719.4 2482.55   1
   1   5   5 29510.5 2802.99   8
  -1  -5  -5 41913.6 3153.27   6
   1   5   6 3560.33 1023.58   8
  -1  -5  -6 1956.27 708.320   3
   1   5   7 858.703 731.315   8
  -1  -5  -7 331.596 396.347   3
  -1  -5  -8 13175.9 2127.74   3
  -1  -6   3 37382.1 3672.41   6
  -1  -6   2 11618.1 2025.73   6
   1   6  -2 11238.6 2166.55   5
  -1  -6   1 12911.8 2107.25   6
   1   6  -1 12918.9 2225.93   5
  -1  -6   0 4666.91 1256.82   6
  -1  -6  -1 18133.6 2452.27   6
   1   6   1 18128.4 2417.27   8
   1   6   2 1887.16 742.683   8
  -1  -6  -2 1014.52 616.543   6
   1   6   3 8645.21 1638.85   8
  -1  -6  -3 11126.1 1893.68   6
  -1  -6  -4 9671.21 1584.13   1
   1   6   4 8425.86 1631.22   8
  -1  -6  -4 9754.68 1752.06   6
   1   6   5 8999.33 1686.37   8
  -1  -6  -5 13097.0 1975.33   6
  -1  -6  -5 11297.1 1834.57   1
   1   6   6 10495.9 1921.00   8
  -1  -6  -6 7211.31 1545.17   1
  -1  -6  -6 8544.37 1680.09   3
  -1  -6  -6 7015.58 1376.52   6
  -1  -6  -7 17411.6 2618.57   1
   1   7   2 2919.18 1110.58   8
  -1  -7  -2 1791.08 869.459   6
   1   7   3 26817.7 3215.31   8
  -1  -7  -3 28840.1 3369.43   6
  -1  -7  -4 1662.58 975.596   6
  -1  -7  -5 573.610 536.353   6
   2  -6  -3 8707.13 1704.30   3
  -2   5   6 4909.81 1245.99   8
  -2   5   5 4057.59 1116.63   8
   2  -5  -5 4893.77 1262.29   3
   2  -5  -4 20717.0 2572.79   3
  -2   5   4 22556.9 2619.89   8
  -2   5   3 236.263 369.786   8
   2  -5  -3-368.709 382.654   3
  -2   5   2 3960.42 1184.80   8
   2  -5  -2 2651.47 888.952   3
  -2   5   1 18852.9 2500.63   8
   2  -5  -1 17649.8 2047.38   3
  -2   5   0 17026.5 2164.50   4
   2  -5   0 16713.9 2347.92   7
   2  -5   1-264.380 522.488   7
  -2   5  -1 565.536 479.011   4
  -2   5  -2 126.992 399.245   4
  -2   4   7 1000.08 609.150   8
   2  -4  -7 2610.51 983.021   3
   2  -4  -6 136.116 390.534   3
  -2   4   6 244.360 340.865   8
   2  -4  -5 9753.28 1704.87   3
  -2   4   5 10554.4 1632.98   8
  -2   4   5 7298.46 1202.09   9
  -2   4   4 239.879 315.777   8
   2  -4  -4-1024.96 582.957   3
  -2   4   3-46.8556 161.847   4
  -2   4   3 501.971 396.229   8
   2  -4  -3 544.420 444.398   3
  -2   4   2 28920.7 2386.99   4
   2  -4  -2 34247.4 2812.58   3
  -2   4   2 29850.6 2735.75   8
  -2   4   1-550.664 460.792   8
   2  -4  -1 508.717 367.344   3
  -2   4   1 461.072 396.926   4
   2  -4   0 6277.20 1028.06   3
  -2   4   0 6508.51 1221.72   4
  -2   4  -1 23746.2 2510.10   4
   2  -4   1 23693.3 2597.11   7
  -2   4  -2 33139.5 3196.71   4
   2  -4   2 31128.4 3154.64   7
   2  -4   3 2523.03 903.996   7
  -2   4  -3 2280.64 894.049   4
  -2   4  -3 4540.84 1297.22   5
  -2   4  -4 2986.86 1083.10   5
  -2   3   8 2276.25 854.011   8
   2  -3  -8 574.696 512.083   3
  -2   3   7 318.226 388.851   8
   2  -3  -7 301.652 262.476   3
  -2   3   7 1245.51 601.602   9
   2  -3  -6 45564.9 3635.09   3
  -2   3   6 44176.4 3200.19   9
  -2   3   6 36116.5 3038.69   8
  -2   3   5 24846.9 2205.57   9
   2  -3  -5 31113.9 2841.41   3
  -2   3   5 24527.4 2295.78   8
  -2   3   4 7708.53 1193.44   8
   2  -3  -4 7864.73 1360.53   3
  -2   3   4 6321.83 1038.65   4
  -2   3   3 12162.9 1394.11   4
  -2   3   3 10924.5 1395.04   8
   2  -3  -3 10500.3 1473.05   3
   2  -3  -2 81101.0 4136.49   3
  -2   3   2 75247.2 3763.48   4
  -2   3   2 77285.2 4025.37   8
   2  -3  -1-73.8858 197.177   3
  -2   3   1-16.0520 212.729   4
  -2   3   0 4566.94 915.976   4
   2  -3   0 3535.86 693.318   3
   2  -3   1 32401.2 2742.14   7
  -2   3  -1 35484.7 2849.56   4
   2  -3   1 35276.0 2076.83   3
  -2   3  -2 1661.42 626.604   5
   2  -3   2 475.670 359.116   7
  -2   3  -2 490.980 418.096   4
  -2   3  -3 14261.4 2052.21   4
   2  -3   3 10434.3 1697.52   7
  -2   3  -3 14394.7 1987.85   5
   2  -3   4 54699.9 4195.17   7
  -2   3  -4 54438.7 4390.97   4
  -2   3  -4 58543.6 4326.17   5
   2  -3   5 3358.54 1106.95   7
  -2   3  -5 3235.22 1058.27   5
  -2   3  -5 3900.41 1311.50   4
  -2   2   8-124.491 287.278   8
  -2   2   8-289.268 337.311   9
   2  -2  -8-782.962 490.863   3
  -2   2   7 15812.6 2051.55   9
   2  -2  -7 18788.0 2258.88   3
  -2   2   7 16296.5 2005.68   8
  -2   2   6 5182.69 1021.74   8
  -2   2   6 4701.79 1038.62   9
   2  -2  -6 7112.31 1330.35   3
  -2   2   5 587.785 388.044   8
   2  -2  -5 463.779 375.782   3
  -2   2   5 237.342 349.124   9
   2  -2  -4 70725.9 3982.68   3
  -2   2   4 77337.1 3654.66   8
  -2   2   3 65303.5 3324.48   4
  -2   2   3 71241.5 3294.81   8
   2  -2  -3 65669.5 3590.45   3
   2  -2  -2 6958.84 1036.94   3
  -2   2   2 4909.38 821.477   4
  -2   2   2 5862.64 868.400   8
  -2   2   1 25072.8 1909.21   4
   2  -2  -1 24143.5 1824.17   3
  -2   2   0 173848. 6289.84   4
   2  -2   0 189539. 5827.66   3
   2  -2   0 175421. 6226.96   7
   2  -2   1 6778.89 1082.51   7
  -2   2  -1 7331.20 1139.09   4
   2  -2   1 6746.41 636.637   1
   2  -2   1 7633.37 818.377   3
   2  -2   2 3337.16 433.402   3
  -2   2  -2 3821.02 847.353   5
  -2   2  -2 3297.81 862.526   4
   2  -2   2 4550.81 940.015   7
  -2   2  -3 50037.1 3536.49   4
   2  -2   3 44191.9 3209.64   7
  -2   2  -3 44079.1 3109.31   5
   2  -2   4 27125.8 2628.19   7
  -2   2  -4 29235.8 2919.93   4
  -2   2  -4 32861.9 2820.07   5
  -2   2  -5 2387.20 979.797   4
   2  -2   5 3533.78 987.466   7
  -2   2  -5 2018.73 762.090   5
  -2   2  -6 26021.3 3152.82   4
   2  -2   6 24572.8 2812.53   7
  -2   2  -6 25370.4 2858.46   5
   2  -1  -8 11467.3 1766.02   3
  -2   1   8 12042.7 2029.72   9
   2  -1  -8 9732.44 1806.55   5
  -2   1   7 55304.0 4016.26   9
   2  -1  -7 54081.6 3749.51   3
   2  -1  -7 50783.9 3854.00   5
  -2   1   7 47978.6 3521.77   8
  -2   1   6 3629.22 860.553   8
  -2   1   6 3829.98 931.458   9
   2  -1  -6 3016.69 822.287   3
  -2   1   5 4.52533 177.742   8
   2  -1  -5 532.830 375.953   3
  -2   1   5 614.369 450.472   9
  -2   1   4 89706.7 4164.25   9
  -2   1   4 93338.3 3856.14   8
   2  -1  -4 94698.6 4375.73   3
  -2   1   3 136.443 229.101   4
  -2   1   3 473.099 197.811   8
   2  -1  -3 375.700 297.295   3
  -2   1   2-2.29206 107.717   8
   2  -1  -2 39.9472 194.062   3
  -2   1   2 0.85994 167.712   4
  -2   1   1 177011. 5149.30   8
   2  -1  -1 170682. 5107.71   7
  -2   1   1 172161. 5668.92   4
   2  -1  -1 178942. 5619.12   3
   2  -1   0 1927.92 412.890   3
   2  -1   0 1466.84 373.210   7
  -2   1   0 1808.66 500.925   4
   2  -1   1 1008.54 266.450   3
   2  -1   1 686.671 335.799   7
  -2   1  -1 661.451 328.260   4
  -2   1  -2 233615. 5784.42   3
   2  -1   2 237113. 7521.49   7
  -2   1  -2 220687. 7669.42   4
  -2   1  -2 238584. 7130.64   5
   2  -1   3 2129.26 657.921   7
   2  -1   3 2063.24 275.338   2
  -2   1  -3 1377.99 639.279   4
  -2   1  -3 1199.49 428.024   5
   2  -1   4 33717.5 2655.08   7
  -2   1  -4 28043.9 2596.62   4
  -2   1  -4 27826.5 2279.73   5
   2  -1   5 37002.8 3012.38   7
  -2   1  -5 36063.8 3190.33   4
  -2   1  -5 38208.7 2902.38   5
   2  -1   6 36704.4 3220.53   7
  -2   1  -6 40558.1 3679.64   4
  -2   1  -6 42543.2 3347.39   5
   2  -1   7 376.316 338.927   7
  -2   1  -7 1101.58 609.170   5
  -2   1  -7 160.339 368.060   4
   2   0  -8 1311.66 710.080   5
  -2   0   8 3453.76 1117.04   9
   2   0  -7 9543.60 1652.83   5
   2   0  -7 10957.1 1545.26   3
  -2   0   7 10891.9 1783.46   9
   2   0  -6 10202.3 1549.48   5
  -2   0   6 9481.01 1543.72   9
   2   0  -6 14251.3 1668.39   3
  -2   0   5 69957.5 3961.14   9
   2   0  -5 71188.1 3731.05   3
   2   0  -5 61766.3 3693.13   5
   2   0  -4 7610.10 1084.73   3
  -2   0   4 7439.34 1124.25   9
  -2   0   4 8466.57 988.597   8
   2   0  -3 11590.6 1244.42   3
  -2   0   3 9922.44 1149.12   9
  -2   0   3 10382.7 934.567   8
  -2   0   2 119793. 4360.71   4
   2   0  -2 113206. 4279.04   3
  -2   0   2 114775. 3388.51   8
   2   0  -2 118735. 3470.81   8
   2   0  -1 14678.6 821.443   7
  -2   0   1 15680.1 1260.11   4
   2   0  -1 16145.6 1280.08   3
  -2   0   1 15686.4 743.926   8
   2   0   0 56250.1 2218.53   7
  -2   0   0 59797.2 2646.05   4
   2   0   0 60110.8 2489.65   3
   2   0   1 30682.5 1638.92   2
   2   0   1 30765.6 1734.78   7
  -2   0  -1 32297.2 1940.29   4
   2   0   1 30689.9 1375.11   5
   2   0   2 48518.7 2545.04   7
  -2   0  -2 51205.6 2737.19   4
  -2   0  -2 54350.0 1983.06   3
  -2   0  -2 50639.8 2100.69   5
   2   0   2 53604.9 2153.67   2
   2   0   2 54600.2 2068.39   5
  -2   0  -3 2031.52 282.594   3
  -2   0  -3 1164.91 348.092   5
   2   0   3 1971.68 516.449   7
   2   0   3 1491.31 280.320   2
  -2   0  -3 1500.20 523.457   4
  -2   0  -3 1639.43 507.582   1
  -2   0  -4 42004.6 2398.84   5
   2   0   4 44583.9 2845.17   7
  -2   0  -4 40991.6 2894.10   4
  -2   0  -4 45883.8 2621.91   1
   2   0   5 10433.1 1437.05   7
  -2   0  -5 11399.6 1616.02   4
  -2   0  -5 13337.4 1465.14   5
  -2   0  -5 11657.6 1385.39   1
  -2   0  -6 36006.3 2709.75   1
   2   0   6 32658.7 2814.56   7
  -2   0  -6 37208.6 2786.82   5
   2   0   7 5053.31 1145.88   7
  -2   0  -7 5003.05 1076.74   5
   2   0   8 42061.9 3687.96   7
  -2   0  -8 46635.0 4227.82   4
   2   1  -7 3478.54 1036.26   5
  -2  -1   7 996.901 641.053   9
  -2  -1   6 28239.5 2798.11   9
   2   1  -6 29981.5 2225.62   2
   2   1  -6 26377.2 2628.43   5
   2   1  -5 1556.28 517.058   3
   2   1  -5 565.833 405.024   5
  -2  -1   5 360.508 357.420   9
  -2  -1   4-44.5821 60.2261   7
   2   1  -4 261.461 216.545   3
   2   1  -4-234.349 238.395   5
  -2  -1   4 15.4390 103.386   6
  -2  -1   4 29.7559 278.627   9
  -2  -1   3 147926. 3494.00   7
  -2  -1   3 147422. 5454.23   9
   2   1  -3 143345. 5160.78   3
   2   1  -3 147603. 5227.52   5
   2   1  -2 520.994 181.166   8
   2   1  -2 407.607 258.988   3
   2   1  -2 821.760 281.463   5
  -2  -1   2 888.352 141.343   7
  -2  -1   2 649.975 268.516   9
  -2  -1   1 21390.0 977.496   7
  -2  -1   1 22609.6 1513.23   4
   2   1  -1 21884.6 1490.20   2
   2   1  -1 21366.9 1229.76   5
   2   1  -1 22068.1 819.788   8
   2   1   0 264033. 7281.75   2
   2   1   0 251155. 6556.79   7
  -2  -1   0 261846. 7102.91   4
  -2  -1   0 280094. 6691.93   7
   2   1   0 268790. 6198.68   5
   2   1   1 37045.6 1864.40   2
   2   1   1 31434.6 1666.09   7
  -2  -1  -1 33550.1 1758.70   4
   2   1   1 33228.2 1307.74   8
  -2  -1  -1 37080.6 1328.26   8
   2   1   2 69294.7 2903.73   7
  -2  -1  -2 71756.9 3152.65   1
  -2  -1  -2 66118.1 2821.19   4
  -2  -1  -2 68027.7 1873.02   5
   2   1   2 69302.3 2741.32   2
   2   1   2 69430.6 2574.34   8
  -2  -1  -3 19108.8 1523.08   4
   2   1   3 18241.0 1513.08   7
   2   1   3 18244.3 1284.82   2
  -2  -1  -3 19832.3 1635.04   1
  -2  -1  -3 18041.7 1064.80   5
   2   1   4 79528.9 3737.84   7
  -2  -1  -4 75686.6 3681.15   4
  -2  -1  -4 81454.8 3834.91   1
  -2  -1  -4 78794.2 3071.96   5
   2   1   5 7005.94 1118.18   7
  -2  -1  -5 4893.50 964.222   4
  -2  -1  -5 7799.86 976.737   5
  -2  -1  -5 7316.50 1173.35   1
  -2  -1  -6 1823.62 541.938   5
   2   1   6 2189.98 711.168   7
  -2  -1  -6 590.416 405.884   1
  -2  -1  -7 3553.68 831.036   5
   2   1   7 2620.51 839.375   7
  -2  -1  -7 2496.11 854.401   1
   2   1   8 605.233 473.996   7
  -2  -1  -8 806.347 523.918   4
   2   2  -7 65721.4 4861.72   5
  -2  -2   7 61099.3 4864.23   9
   2   2  -6 6654.22 1387.95   5
  -2  -2   6 10163.6 1775.17   9
   2   2  -5 5150.96 1110.02   5
   2   2  -5 4738.77 805.156   2
  -2  -2   5 3622.07 946.516   9
  -2  -2   4 41095.4 2097.22   7
  -2  -2   4 42631.8 2403.18   6
  -2  -2   4 38918.0 2915.35   9
   2   2  -4 40204.7 2916.82   5
   2   2  -4 42026.4 2435.12   2
  -2  -2   3 73933.9 3795.32   9
  -2  -2   3 83527.5 3511.58   6
   2   2  -3 78775.1 3873.55   5
   2   2  -3 83968.3 3517.72   2
   2   2  -2 40.2322 158.544   5
   2   2  -2 148.954 122.076   2
  -2  -2   2 451.754 211.898   6
  -2  -2   2 212.883 283.611   9
   2   2  -1 39889.7 2196.25   2
  -2  -2   1 43431.6 2286.05   6
   2   2  -1 43388.5 2189.42   5
  -2  -2   1 37820.1 2044.13   9
   2   2   0 145515. 4124.11   8
  -2  -2   0 154509. 4304.99   5
  -2  -2   0 150309. 4938.26   6
  -2  -2   0 142800. 4323.31   9
   2   2   0 149948. 4515.95   5
   2   2   0 150178. 4930.58   2
  -2  -2  -1 5480.51 585.752   4
   2   2   1 6120.51 650.629   4
   2   2   1 5569.93 775.897   2
  -2  -2  -1 4534.35 461.280   5
   2   2   1 5526.88 546.330   8
  -2  -2  -2 74280.6 3484.92   1
   2   2   2 70702.7 3058.35   7
  -2  -2  -2 79525.3 2703.17   4
   2   2   2 75401.1 2832.87   4
   2   2   2 81184.7 3338.51   2
  -2  -2  -2 78624.6 2443.65   5
   2   2   2 77193.5 2829.14   8
   2   2   3 129541. 4713.85   7
  -2  -2  -3 135438. 4245.53   4
   2   2   3 127451. 4716.40   2
  -2  -2  -3 129155. 5100.44   1
   2   2   3 136888. 4572.54   8
   2   2   4 15123.8 1455.15   7
  -2  -2  -4 15444.8 1310.76   4
  -2  -2  -4 13484.4 1563.38   1
  -2  -2  -4 15490.5 1209.85   6
   2   2   4 15369.1 1446.52   8
   2   2   5 771.008 438.065   8
  -2  -2  -5 461.238 252.540   5
   2   2   5-124.420 289.891   7
  -2  -2  -5 140.023 125.392   6
  -2  -2  -5 864.126 376.709   4
  -2  -2  -5 726.293 530.334   1
   2   2   6 118633. 5317.42   7
  -2  -2  -6 106381. 5589.78   1
  -2  -2  -6 127790. 5342.86   4
  -2  -2  -6 118969. 4665.71   3
  -2  -2  -6 126842. 4914.92   5
   2   2   6 123251. 5623.68   8
   2   2   7 13801.7 1762.19   7
  -2  -2  -7 13111.6 1690.45   4
  -2  -2  -7 12926.9 1546.44   5
  -2  -2  -7 12598.4 1879.43   1
   2   2   8 1484.47 635.501   7
  -2  -2  -8 1742.60 764.048   1
  -2  -2  -9 1816.15 864.965   1
   2   2   9 2665.65 852.126   7
  -2  -3   6-104.446 383.710   9
   2   3  -6 132.658 312.872   5
   2   3  -5 53492.4 4044.71   5
  -2  -3   5 52288.3 4003.99   9
  -2  -3   4 15942.1 1604.10   7
  -2  -3   4 12602.6 1480.63   6
   2   3  -4 17352.8 1535.77   2
  -2  -3   4 17206.4 2043.63   9
   2   3  -4 14181.0 1893.98   5
  -2  -3   3 9659.72 1258.03   6
   2   3  -3 9085.73 1103.75   2
  -2  -3   3 10627.9 1435.70   9
   2   3  -3 8451.58 1334.88   5
   2   3  -2 54686.9 3261.59   5
  -2  -3   2 54211.9 3074.36   6
   2   3  -2 56550.3 2899.48   2
  -2  -3   2 59681.5 3174.47   9
  -2  -3   1 106763. 4487.15   6
   2   3  -1 107329. 4312.52   2
   2   3  -1 107643. 4561.94   5
  -2  -3   1 114137. 4199.02   9
  -2  -3   0 188.312 152.413   9
   2   3   0-38.7160 239.522   2
  -2  -3   0 4.90897 141.933   6
   2   3   0-41.4077 225.434   5
   2   3   1 4786.54 705.778   8
   2   3   1 3884.41 506.147   4
   2   3   1 3951.75 757.245   2
  -2  -3  -1 3222.91 672.159   6
  -2  -3  -1 3755.03 434.417   9
   2   3   1 4167.34 693.391   5
   2   3   2 85091.8 2633.72   4
  -2  -3  -2 88866.9 3745.01   6
   2   3   2 84532.6 3891.87   2
  -2  -3  -2 85944.5 2221.98   9
  -2  -3  -2 85599.0 3971.16   1
   2   3   2 85816.1 3411.57   8
  -2  -3  -3 69280.3 2074.71   4
  -2  -3  -3 67258.7 3140.51   6
   2   3   3 65503.1 3455.25   2
  -2  -3  -3 60851.5 3427.47   1
  -2  -3  -3 64916.6 1825.99   9
   2   3   3 65827.1 3065.98   8
  -2  -3  -4 12172.8 851.207   4
  -2  -3  -4 10255.9 1421.05   1
  -2  -3  -4 10673.9 1149.02   6
   2   3   4 10323.6 1234.52   8
  -2  -3  -5 13450.4 1122.23   4
  -2  -3  -5 16609.3 1410.92   6
  -2  -3  -5 12089.6 1677.55   1
   2   3   5 12841.9 1536.45   8
   2   3   6 4338.41 998.269   8
  -2  -3  -6 2891.80 905.152   1
   2   3   7 231.625 347.022   8
  -2  -3  -7 17.7764 164.262   5
  -2  -3  -7 58.0142 244.870   1
  -2  -3  -7 369.713 326.744   3
  -2  -3  -8 33222.2 3442.95   1
   2   3   8 39190.0 3520.88   8
  -2  -4   5 15835.8 2289.95   9
   2   4  -5 14963.5 2331.98   5
  -2  -4   4 2112.83 726.411   7
  -2  -4   4 1136.86 518.166   6
  -2  -4   4 1186.10 603.412   9
   2   4  -4 708.556 538.462   5
   2   4  -3 355.751 397.254   5
   2   4  -3 605.597 321.232   2
  -2  -4   3 154.179 276.748   9
  -2  -4   3 532.726 375.339   6
  -2  -4   2 22925.8 2212.65   6
   2   4  -2 25023.9 2033.34   2
  -2  -4   2 21179.6 2031.84   9
   2   4  -2 26553.4 2541.41   5
   2   4  -1 39.3398 176.899   2
  -2  -4   1 423.943 338.049   6
  -2  -4   1 65.8702 243.775   9
   2   4  -1 339.335 347.251   5
   2   4   0 1912.08 577.527   2
  -2  -4   0 2640.67 731.288   6
   2   4   0 1101.83 517.565   5
  -2  -4   0 1658.54 414.770   9
  -2  -4  -1 81492.3 4201.21   6
   2   4   1 84876.7 4204.65   2
   2   4   1 75277.5 3830.21   8
   2   4   2 125.170 249.802   8
  -2  -4  -2 92.9311 284.939   1
   2   4   2 467.013 340.542   2
  -2  -4  -2 334.253 311.817   6
  -2  -4  -3 20037.6 1879.14   6
  -2  -4  -3 16507.7 1795.11   1
   2   4   3 19090.4 1757.35   8
  -2  -4  -4 63732.8 3458.44   6
   2   4   4 57169.2 3325.04   8
  -2  -4  -4 54381.6 3604.32   1
  -2  -4  -5 47406.3 3557.73   1
  -2  -4  -5 55981.5 3177.56   6
   2   4   5 49767.4 3314.38   8
   2   4   6 757.545 459.607   8
  -2  -4  -6 1392.00 704.118   1
   2   4   7 111.657 293.090   8
  -2  -4  -7-116.735 324.145   1
   2   4   8 3698.63 1115.57   8
  -2  -4  -8 3719.42 1007.58   3
  -2  -4  -8 3004.77 1076.77   1
  -2  -5   4 955.579 588.827   9
   2   5  -4 1065.46 678.157   5
  -2  -5   3 21294.4 2476.93   6
   2   5  -3 24203.4 2920.22   5
  -2  -5   3 29647.3 2849.78   9
  -2  -5   2 7627.49 1430.89   6
  -2  -5   2 6325.02 1209.87   9
   2   5  -2 10158.4 1772.65   5
  -2  -5   1 3335.58 1006.49   6
  -2  -5   1 2837.32 706.240   9
   2   5  -1 2204.37 837.636   5
  -2  -5   0 3348.09 904.712   6
   2   5   0 5306.98 1214.33   5
  -2  -5  -1 32193.2 2811.17   6
   2   5   1 28188.7 2559.31   8
   2   5   2 1551.06 638.025   8
  -2  -5  -2 858.763 463.898   6
   2   5   3 2935.04 777.945   8
  -2  -5  -3 3057.23 832.617   1
  -2  -5  -3 2365.14 740.889   6
   2   5   4 6473.33 1204.27   8
  -2  -5  -4 6351.80 1270.52   1
  -2  -5  -4 8516.46 1386.11   6
   2   5   5 7129.54 1289.92   8
  -2  -5  -5 9081.47 1411.38   6
  -2  -5  -5 5196.75 1245.47   1
   2   5   6 3943.71 1045.64   8
  -2  -5  -6 7313.56 1546.65   1
  -2  -5  -7 48681.2 4252.40   1
   2   5   7 54427.4 4150.98   8
  -2  -5  -8 3223.03 967.296   3
  -2  -6   3 3306.96 1167.66   6
  -2  -6   2 56.3423 321.357   6
   2   6  -2 1991.40 907.881   5
  -2  -6   1 38525.2 3605.70   6
   2   6  -1 36074.4 3651.25   5
  -2  -6   0 22984.1 2723.94   6
   2   6   1 9239.79 1651.28   8
  -2  -6  -1 7310.46 1509.25   6
   2   6   2 5580.90 1298.11   8
  -2  -6  -2 6502.28 1425.52   6
  -2  -6  -3 63087.5 4070.48   1
  -2  -6  -3 65750.7 4520.45   6
   2   6   3 56146.8 4060.89   8
  -2  -6  -4 4152.74 1116.76   1
   2   6   4 1706.56 696.561   8
  -2  -6  -4 3292.09 984.037   6
   2   6   5 1336.72 648.374   8
  -2  -6  -5 645.292 455.760   1
  -2  -6  -5 675.405 477.357   6
   2   6   6 4457.90 1210.38   8
  -2  -6  -6 5541.14 1392.62   1
  -2  -6  -6 7736.54 1467.28   6
  -2  -6  -7 1718.32 806.908   1
   2   7   0 1066.38 714.971   8
   2   7   1 3413.91 1141.74   8
  -2  -7  -1 3786.10 1214.50   6
  -2  -7  -2 24513.0 3094.43   6
   2   7   2 21521.6 2743.83   8
  -2  -7  -3 881.241 635.199   6
   2   7   3 213.051 464.952   8
   2   7   4 324.274 482.743   8
  -2  -7  -4 623.500 556.185   6
  -2  -7  -5 67470.6 5092.53   6
  -2  -7  -5 66687.1 4897.31   1
   2   7   5 61933.6 4825.53   8
  -2  -7  -6 6700.71 1599.67   1
  -3   5   4 4258.51 1166.42   8
   3  -5  -3-326.734 474.115   3
  -3   5   3 331.370 447.665   8
   3  -5  -2 31639.0 3187.83   7
  -3   5   2 29839.4 3217.88   8
  -3   5   1 825.516 605.621   8
   3  -5  -1 937.451 576.171   7
  -3   5   0 12661.4 2035.45   4
  -3   4   6 41450.4 3527.02   8
  -3   4   5 1526.12 636.049   8
   3  -4  -5 2527.70 960.138   3
  -3   4   4 3571.89 985.064   8
   3  -4  -4 3583.73 1063.73   3
   3  -4  -3 9744.47 1668.42   3
   3  -4  -3 10255.2 1537.37   7
  -3   4   3 11696.1 1717.68   8
  -3   4   3 10886.7 1629.67   4
  -3   4   2 19660.3 2214.52   4
   3  -4  -2 15277.1 1979.27   7
   3  -4  -2 15277.4 1978.26   3
  -3   4   2 18053.6 2189.11   8
  -3   4   1 1105.61 661.722   8
   3  -4  -1 1705.95 670.094   3
   3  -4  -1 2692.15 894.324   7
  -3   4   1 3410.38 953.026   4
   3  -4   0 11392.3 1848.12   7
  -3   4   0 11414.2 1822.92   4
   3  -4   1 1845.01 839.991   7
  -3   4  -1 1681.32 752.067   4
  -3   4  -2 2874.83 999.470   4
  -3   3   7 10704.6 1879.95   9
   3  -3  -6 3079.62 1004.36   3
  -3   3   6 2258.38 749.430   8
  -3   3   6 2700.99 872.684   9
  -3   3   5 626.736 414.660   8
   3  -3  -5 594.512 453.446   3
  -3   3   5-732.678 472.465   9
  -3   3   4 68029.4 4165.60   4
   3  -3  -4 66337.5 4416.70   3
  -3   3   4 69688.1 3921.72   8
  -3   3   3 14615.9 1796.32   4
   3  -3  -3 18206.2 1743.91   7
   3  -3  -3 13311.2 1817.99   3
  -3   3   3 16955.5 1829.11   8
  -3   3   2 21503.9 2209.39   4
   3  -3  -2 21663.9 2040.05   7
   3  -3  -2 24373.1 2320.76   3
  -3   3   2 21672.3 2108.24   8
  -3   3   1 27048.6 2426.41   8
  -3   3   1 20437.4 2189.99   4
   3  -3  -1 21072.3 2138.52   7
   3  -3  -1 21047.5 2073.39   3
   3  -3   0 80344.1 4567.65   7
  -3   3   0 74116.4 4502.39   4
   3  -3   0 77085.0 3928.11   3
   3  -3   1 2821.98 887.090   7
  -3   3  -1 3279.49 934.567   4
   3  -3   2 2733.77 904.016   7
  -3   3  -2 2250.25 834.703   4
   3  -3   3 9494.67 1755.08   7
  -3   3  -3 8134.00 1628.56   4
   3  -2  -7 8953.18 1709.75   3
  -3   2   7 10697.7 1838.23   9
  -3   2   6 1900.96 654.090   8
   3  -2  -6 2676.20 907.230   3
  -3   2   6 2657.53 867.257   9
  -3   2   5 1229.19 482.728   8
  -3   2   5 137.429 263.955   9
  -3   2   4 22374.4 2244.62   4
   3  -2  -4 23798.3 2398.55   3
  -3   2   4 22810.0 1911.78   8
   3  -2  -3 8742.17 1368.71   3
   3  -2  -3 9572.64 1027.22   7
  -3   2   3 9692.03 1390.72   4
  -3   2   3 8012.18 1060.76   8
  -3   2   2 11519.5 1499.88   4
   3  -2  -2 12457.5 1300.27   7
   3  -2  -2 12863.9 1582.43   3
  -3   2   2 12647.9 1346.12   8
  -3   2   1 15856.1 1773.88   4
   3  -2  -1 16616.9 1612.29   7
   3  -2  -1 16018.6 1676.61   3
  -3   2   1 16959.0 1625.68   8
   3  -2   0 5296.96 885.791   3
   3  -2   0 4272.17 894.562   7
  -3   2   0 5305.37 1033.23   4
   3  -2   1 1096.93 382.191   3
   3  -2   1 1697.05 589.455   7
  -3   2  -1 2057.08 727.046   4
   3  -2   2 99120.6 5170.50   7
  -3   2  -2 106687. 5575.70   4
   3  -2   3 8770.73 1506.15   7
  -3   2  -3 10984.4 1793.74   4
   3  -2   4 9821.55 1722.41   7
  -3   2  -4 12032.5 2005.93   4
  -3   2  -4 9438.43 1546.24   5
   3  -2   5 9155.69 1756.08   7
  -3   2  -5 9960.37 1884.40   4
   3  -1  -8 969.848 599.165   3
   3  -1  -7 4644.59 1192.93   5
   3  -1  -7 4579.78 1181.00   3
  -3   1   7 4991.24 1251.15   9
   3  -1  -6 12883.6 1869.70   3
  -3   1   6 13842.4 1954.35   9
  -3   1   6 18149.7 1865.75   8
   3  -1  -5 35553.2 2985.01   3
  -3   1   5 30029.0 2714.73   9
  -3   1   5 35395.3 2405.36   8
   3  -1  -4 22521.9 2238.55   3
  -3   1   4 20900.7 2073.86   9
  -3   1   4 22636.1 1715.35   8
  -3   1   3 1080.70 325.663   8
   3  -1  -3 1469.46 567.982   3
   3  -1  -3 1536.94 278.833   7
  -3   1   3 744.849 466.189   4
  -3   1   2 71987.9 3800.15   4
   3  -1  -2 75984.7 2886.00   7
   3  -1  -2 70651.6 3761.67   3
  -3   1   2 74983.1 2942.76   8
  -3   1   1 17577.7 1738.87   4
   3  -1  -1 17552.8 1412.38   7
   3  -1  -1 16919.3 1638.85   3
  -3   1   1 18800.8 1351.10   8
   3  -1   0 254.010 329.522   3
   3  -1   0 138.545 223.292   7
  -3   1   0 411.630 369.551   4
   3  -1   1 1318.65 407.519   3
   3  -1   1 1210.18 503.877   7
  -3   1  -1 1042.35 449.432   4
   3  -1   2 644.063 274.936   2
   3  -1   2 1041.82 498.065   7
  -3   1  -2 873.400 484.036   4
   3  -1   3 2702.28 761.522   7
  -3   1  -3 2138.29 723.601   4
  -3   1  -3 3968.35 808.316   5
   3  -1   4 22432.2 2394.13   7
  -3   1  -4 31807.6 3002.78   4
  -3   1  -4 27840.6 2308.04   5
   3  -1   5 9770.50 1670.41   7
  -3   1  -5 13660.7 2095.37   4
   3  -1   6 9838.56 1780.41   7
  -3   1  -6 9141.31 1824.68   4
   3   0  -7 867.240 544.902   5
   3   0  -7 902.690 507.885   3
  -3   0   7 172.931 371.736   9
   3   0  -6 6030.68 1234.65   5
   3   0  -6 9896.44 1568.07   3
  -3   0   6 9086.48 1598.76   9
   3   0  -5 12198.4 1649.78   3
  -3   0   5 11684.8 1701.27   9
   3   0  -5 12040.5 1632.84   5
  -3   0   4 3477.30 615.904   8
   3   0  -4 4475.96 961.795   3
  -3   0   4 3122.94 797.595   9
   3   0  -3 31372.7 2443.68   3
  -3   0   3 38194.5 1822.73   8
  -3   0   2 494.899 188.939   8
   3   0  -2 30.8359 245.183   3
   3   0  -2 814.451 180.642   7
  -3   0   2 818.283 453.914   4
  -3   0   1 14899.0 1503.29   4
   3   0  -1 15703.0 1100.61   7
   3   0  -1 15351.9 1495.47   3
  -3   0   1 16966.5 831.038   8
   3   0   0 132222. 4437.28   7
  -3   0   0 126990. 5062.81   4
   3   0   0 130912. 4839.91   3
   3   0   1 126441. 4571.23   2
   3   0   1 115813. 4433.94   7
  -3   0  -1 116079. 4851.81   4
   3   0   1 110470. 3677.82   5
   3   0   2 24858.2 1970.29   7
  -3   0  -2 26030.5 2174.21   4
   3   0   2 24288.8 1362.96   5
   3   0   2 29807.4 1898.03   2
   3   0   3 686.697 382.891   7
  -3   0  -3 66.7006 209.238   4
   3   0   3 162.689 152.566   2
  -3   0  -3 279.873 205.328   5
   3   0   4 40144.6 2971.56   7
  -3   0  -4 38735.6 3097.50   4
  -3   0  -4 42829.7 2462.15   5
   3   0   5 3955.40 1011.01   7
  -3   0  -5 2188.82 769.992   4
   3   0   6 4880.05 1176.00   7
  -3   0  -6 5020.11 1275.96   4
   3   0   7 5967.16 1386.43   7
  -3   0  -7 8060.21 1711.51   4
  -3  -1   7 45063.6 4054.92   9
   3   1  -7 42747.2 3779.72   5
   3   1  -6 324.853 363.187   5
   3   1  -6 3237.61 829.207   2
  -3  -1   6 1984.99 785.672   9
   3   1  -5 2643.96 747.686   3
   3   1  -5 2350.66 751.042   5
  -3  -1   5 3431.00 913.552   9
   3   1  -4 39942.4 2847.73   3
  -3  -1   4 41037.2 3006.66   9
   3   1  -4 38485.6 2725.09   5
   3   1  -3 88057.2 4245.47   3
  -3  -1   3 85494.6 4204.00   9
   3   1  -3 90977.2 3970.08   5
  -3  -1   2 11710.1 633.007   7
   3   1  -2 11895.6 1380.23   3
   3   1  -2 11858.1 1147.40   5
   3   1  -2 12001.1 690.119   8
   3   1  -1 5767.79 578.997   7
  -3  -1   1 5285.99 580.645   7
   3   1  -1 5032.20 885.255   2
  -3  -1   1 5560.80 897.313   4
   3   1  -1 6333.73 686.361   5
   3   1   0 34716.8 2228.02   2
   3   1   0 35101.9 1803.13   7
  -3  -1   0 33479.6 2156.46   4
   3   1   0 33462.4 1358.10   5
   3   1   1 13050.3 1194.98   7
  -3  -1  -1 12291.3 1280.63   4
  -3  -1  -1 11714.5 702.133   8
   3   1   1 11356.9 1226.06   2
   3   1   2 56753.4 2934.92   7
  -3  -1  -2 58930.1 3083.36   4
   3   1   2 58687.6 2916.71   2
   3   1   3 144157. 5545.33   7
  -3  -1  -3 149129. 5708.41   4
  -3  -1  -3 144186. 3836.95   5
   3   1   3 149999. 5137.48   2
   3   1   4 288.472 209.878   2
   3   1   4 560.025 386.787   7
  -3  -1  -4 1259.46 548.860   4
  -3  -1  -4 1034.73 318.034   5
  -3  -1  -5 10127.9 1455.33   1
   3   1   5 8598.26 1380.12   7
  -3  -1  -5 7166.74 1260.40   4
  -3  -1  -6 68547.0 4249.77   1
   3   1   6 71633.3 4451.67   7
  -3  -1  -6 71376.6 4516.49   4
   3   1   7 16412.2 2179.99   7
  -3  -1  -7 15654.3 2190.80   4
  -3  -1  -8 2078.18 848.094   4
   3   2  -6 1067.50 589.606   5
  -3  -2   6 231.877 247.324   9
  -3  -2   5 26593.6 2732.87   9
   3   2  -5 24656.4 2528.19   5
   3   2  -5 32050.7 2517.06   2
  -3  -2   4 21964.1 1864.50   6
  -3  -2   4 21927.1 2265.17   9
   3   2  -4 23806.5 2229.89   5
   3   2  -4 23655.4 2092.85   2
  -3  -2   3 20174.4 1781.28   6
  -3  -2   3 20814.4 1980.14   9
   3   2  -3 19250.5 1812.69   5
   3   2  -3 21561.6 1927.58   2
  -3  -2   2 36929.4 2477.56   9
   3   2  -2 38928.8 2352.85   5
   3   2  -2 39421.1 2567.12   2
   3   2  -1 274790. 7459.80   5
  -3  -2   1 260687. 7852.27   9
   3   2  -1 265054. 6147.59   8
   3   2  -1 263346. 8263.34   2
  -3  -2   0 441.814 296.407   4
   3   2   0 368.023 311.366   2
   3   2   0 550.633 219.648   5
  -3  -2  -1 5618.42 800.030   4
   3   2   1 5052.54 736.002   7
   3   2   1 5686.08 900.541   2
   3   2   1 5793.69 475.158   8
   3   2   2 82427.2 3601.36   7
  -3  -2  -2 85257.4 3509.18   4
   3   2   2 84689.1 3838.95   2
   3   2   2 84310.4 2971.05   8
   3   2   3 21786.8 1834.05   7
  -3  -2  -3 25424.0 1835.81   4
   3   2   3 24482.0 1918.85   2
   3   2   3 25194.5 1672.44   8
  -3  -2  -4 17820.5 1950.33   1
   3   2   4 16639.2 1741.12   7
  -3  -2  -4 16955.3 1601.30   4
   3   2   4 16302.0 1591.09   2
  -3  -2  -4 19198.7 1048.23   5
   3   2   4 18236.9 1609.25   8
   3   2   5 47940.6 3259.82   7
  -3  -2  -5 55068.4 3247.15   4
  -3  -2  -5 49238.6 3509.01   1
   3   2   6 163.932 384.839   7
  -3  -2  -6 569.654 470.664   4
  -3  -2  -6 110.379 349.562   1
  -3  -2  -7 871.158 469.256   4
  -3  -2  -7 1718.21 767.530   1
   3   2   8 22702.5 2649.66   7
  -3  -2  -8 24542.5 2907.42   1
   3   3  -6 484.548 550.721   5
  -3  -3   6 267.609 344.602   9
  -3  -3   5 31220.0 3138.50   9
   3   3  -5 28475.2 2938.57   5
   3   3  -4 2374.10 802.097   5
  -3  -3   4 3193.72 769.935   6
   3   3  -4 1809.44 577.588   2
  -3  -3   4 2253.18 803.752   9
  -3  -3   3 219.794 209.865   9
  -3  -3   3 810.474 402.883   6
   3   3  -3 64.5568 212.041   2
   3   3  -3 166.615 281.600   5
  -3  -3   2 14331.7 1585.01   6
   3   3  -2 15676.1 1659.97   5
  -3  -3   2 15990.6 1647.49   9
   3   3  -2 17017.4 1711.92   2
   3   3  -1-238.470 261.227   2
  -3  -3   1 297.327 266.542   6
  -3  -3   1 249.560 222.161   9
   3   3  -1 247.131 222.628   5
   3   3   0 1456.08 365.423   8
   3   3   0 1610.69 526.541   2
  -3  -3   0 1568.34 487.134   6
  -3  -3   0 1369.87 385.334   9
   3   3   0 1535.35 468.944   5
  -3  -3  -1 179851. 6404.16   6
   3   3   1 174691. 5347.67   5
   3   3   1 171884. 6404.62   2
   3   3   1 180833. 5092.75   8
  -3  -3  -2 2538.41 371.502   5
   3   3   2 3240.93 549.187   8
   3   3   2 3262.72 762.511   2
  -3  -3  -2 3558.61 568.246   4
  -3  -3  -2 5165.08 914.834   6
  -3  -3  -3 82174.4 3178.77   4
  -3  -3  -3 72717.9 4184.79   1
  -3  -3  -3 86021.9 3957.46   6
   3   3   3 82043.7 4112.38   2
   3   3   3 80651.8 3404.69   8
   3   3   4 45326.1 2978.67   7
  -3  -3  -4 47981.7 2398.50   4
  -3  -3  -4 46386.3 2773.34   6
   3   3   4 48376.3 3123.01   2
   3   3   4 43376.8 2630.08   8
  -3  -3  -4 40031.8 3134.61   1
   3   3   5 54902.1 3547.02   7
  -3  -3  -5 64391.1 3096.79   4
  -3  -3  -5 61293.6 3229.90   6
  -3  -3  -5 55765.4 3902.62   1
   3   3   5 56849.4 3370.54   8
   3   3   6 3985.06 945.613   8
   3   3   6 2634.32 839.524   7
  -3  -3  -6 1095.94 604.576   1
   3   3   7 4836.40 1155.97   8
   3   3   7 3586.44 1020.65   7
  -3  -3  -7 2978.76 1067.46   1
   3   3   8 6884.35 1454.18   7
  -3  -3  -8 3550.52 1194.31   1
  -3  -4   5 8233.00 1705.30   9
   3   4  -5 12032.6 2079.09   5
  -3  -4   4 192.098 377.521   6
  -3  -4   4 181.553 285.575   9
   3   4  -4 1080.27 653.653   5
  -3  -4   3 86013.5 4774.43   6
   3   4  -3 90454.3 4560.79   2
   3   4  -3 86529.8 5099.69   5
  -3  -4   3 95588.3 5068.92   9
   3   4  -2 4145.02 912.911   2
  -3  -4   2 3757.19 906.371   6
  -3  -4   2 4326.90 911.617   9
   3   4  -2 3577.37 919.956   5
  -3  -4   1 14627.4 1743.19   6
   3   4  -1 15307.7 1723.62   2
   3   4  -1 14806.3 1740.87   5
  -3  -4   1 14176.6 1499.54   9
  -3  -4   0 19150.8 1957.08   6
   3   4   0 17956.1 1885.45   2
   3   4   0 15467.1 1681.04   5
  -3  -4   0 17152.4 1442.48   9
   3   4   0 15496.5 1483.16   8
   3   4   1 9416.31 1382.31   2
  -3  -4  -1 10255.3 1422.29   6
  -3  -4  -1 10207.5 935.684   9
   3   4   1 9075.95 1064.33   8
   3   4   2 2945.59 611.627   8
   3   4   2 2993.21 811.989   2
  -3  -4  -2 2735.49 710.969   6
  -3  -4  -2 3372.45 430.889   9
  -3  -4  -3 41784.6 3241.11   1
  -3  -4  -3 51470.3 3193.27   6
   3   4   3 46849.8 3297.04   2
   3   4   3 47390.7 2711.01   8
   3   4   4 2776.70 709.306   8
   3   4   4 2196.92 721.274   2
  -3  -4  -4 1152.85 639.634   1
  -3  -4  -4 2149.39 664.536   6
  -3  -4  -5 23035.6 2068.54   6
  -3  -4  -5 18871.5 2316.96   1
   3   4   5 23135.6 2154.93   8
   3   4   6 6514.72 1231.82   8
  -3  -4  -6 7601.29 1571.25   1
  -3  -4  -7 44059.1 3986.61   1
   3   4   7 44982.0 3588.20   8
   3   4   8-250.612 403.082   8
  -3  -4  -8 517.908 532.609   1
  -3  -5   4 12910.7 2055.96   9
   3   5  -4 13502.8 2298.06   5
  -3  -5   3 1025.30 518.608   6
  -3  -5   3 987.935 593.123   9
   3   5  -3 1132.16 668.289   5
   3   5  -2 328.130 305.304   2
  -3  -5   2-53.2136 295.411   6
  -3  -5   2 393.275 360.299   9
  -3  -5   1 93127.3 5317.78   6
   3   5  -1 98379.7 5127.06   2
   3   5  -1 86660.2 5141.54   5
  -3  -5   1 100429. 4617.92   9
   3   5   0 31551.4 2580.65   8
  -3  -5   0 37931.8 3175.82   6
   3   5   0 40974.5 3172.07   2
   3   5   0 37722.9 3083.66   5
  -3  -5  -1 37378.7 3094.55   6
   3   5   1 36816.8 3029.04   2
   3   5   1 29617.3 2415.61   8
   3   5   2 8860.79 1266.05   8
   3   5   2 9590.15 1534.48   2
  -3  -5  -2 9712.36 1560.55   6
  -3  -5  -3 85699.3 4760.01   6
   3   5   3 75210.4 4030.83   8
   3   5   4 746.671 443.847   8
  -3  -5  -4 2265.86 709.290   6
  -3  -5  -4 2323.13 876.698   1
   3   5   5 6296.38 1179.39   8
  -3  -5  -5 5469.90 1305.44   1
  -3  -5  -5 8460.99 1410.81   6
   3   5   6 9933.47 1612.36   8
  -3  -5  -6 9506.58 1810.11   1
   3   5   7 1901.66 751.438   8
  -3  -5  -7 1297.28 735.847   1
  -3  -6   3 837.837 651.586   6
  -3  -6   2 3803.08 1123.79   6
   3   6  -2 5961.71 1497.96   5
   3   6  -1 9504.28 1642.46   2
  -3  -6   1 9979.52 1829.13   6
   3   6  -1 10228.8 1853.01   5
   3   6   0 5388.75 1181.04   8
  -3  -6   0 4265.38 1195.32   6
   3   6   0 5899.15 1348.82   5
  -3  -6  -1 37080.9 3436.03   6
   3   6   1 29513.8 2771.58   8
  -3  -6  -2 28819.3 2978.69   6
   3   6   2 25248.2 2491.45   8
   3   6   3 3362.16 936.900   8
  -3  -6  -3 5288.63 1236.89   6
   3   6   4 87.8649 240.049   8
  -3  -6  -4 112.571 308.512   6
  -3  -6  -5 65977.6 4888.23   1
  -3  -6  -5 68263.8 4596.42   6
   3   6   5 64063.1 4323.72   8
   3   6   6 14263.4 2070.26   8
  -3  -6  -6 13492.6 2260.48   1
   3   6   7 1989.82 873.405   8
   3   7  -1 3932.56 1204.59   8
   3   7   0 1731.43 801.124   8
  -3  -7  -1 23701.6 3029.51   6
   3   7   1 21056.8 2597.04   8
   3   7   2 3989.58 1093.64   8
  -3  -7  -2 4802.35 1355.18   6
   3   7   3 3699.44 1071.05   8
  -3  -7  -3 2979.97 1036.63   6
   3   7   4 5789.95 1342.34   8
  -3  -7  -4 8348.20 1730.66   6
   3   7   5 201.505 371.103   8
  -3  -7  -5 695.390 399.906   6
   4  -4  -3 14066.2 2165.91   3
   4  -4  -2 6112.13 1352.54   3
  -4   4   2 2465.46 887.911   4
   4  -4  -1 1467.62 700.663   7
  -4   4   1 1549.64 825.690   4
   4  -3  -4 6104.78 1422.38   3
  -4   3   4 3700.39 1072.51   4
   4  -3  -3 1748.97 725.902   3
  -4   3   3 2.11710 402.718   4
   4  -3  -2 13689.6 1929.02   3
  -4   3   2 13359.0 1973.07   4
  -4   3   1 17965.2 2294.28   4
   4  -3  -1 16514.6 1999.42   7
   4  -3  -1 15193.9 1928.40   3
   4  -3   0 3025.18 877.474   7
  -4   3   0 4251.72 1203.60   4
   4  -3   1-46.1271 273.414   7
  -4   3  -1-438.626 461.107   4
   4  -3   2 35913.7 3489.30   7
  -4   3  -2 36657.0 3678.87   4
  -4   2   6 5939.73 1476.99   9
   4  -2  -5 49590.8 4105.24   3
  -4   2   5 53547.5 4090.28   9
   4  -2  -4 6018.42 1309.52   3
  -4   2   4 8874.35 1595.90   4
  -4   2   3 8161.17 1511.58   4
   4  -2  -3 13741.6 1918.45   3
  -4   2   2 40306.3 3290.69   4
   4  -2  -2 39893.1 3178.98   3
   4  -2  -1 3885.50 944.938   3
   4  -2  -1 4100.06 836.317   7
  -4   2   1 2292.89 758.298   4
   4  -2   0 100.080 190.359   3
   4  -2   0 481.859 352.360   7
  -4   2   0-1.98827 193.855   4
   4  -2   1 21742.7 2334.34   7
  -4   2  -1 18890.5 2375.23   4
   4  -2   2 581.867 453.333   7
  -4   2  -2 583.157 513.813   4
   4  -2   3 659.455 520.546   7
  -4   2  -3 1692.75 813.123   4
   4  -1  -6 4791.61 1240.25   3
  -4   1   6 5046.66 1345.12   9
   4  -1  -5 722.064 628.983   3
  -4   1   5 70.1116 363.880   9
   4  -1  -4 11155.8 1743.19   3
  -4   1   3 52315.7 3757.46   4
   4  -1  -3 58461.4 3911.37   3
   4  -1  -2 377.784 319.416   3
  -4   1   2 97.0568 257.442   4
  -4   1   1 13966.4 1809.37   4
   4  -1  -1 19569.7 1687.92   7
   4  -1  -1 19768.3 1993.63   3
   4  -1   0 53278.9 3133.69   7
  -4   1   0 44484.1 3398.63   4
   4  -1   0 48829.3 3110.80   3
   4  -1   1 53191.7 3375.11   7
  -4   1  -1 49004.3 3623.21   4
   4  -1   2 5418.24 962.969   2
  -4   1  -2 5891.40 1267.75   4
   4  -1   3 2584.25 860.016   7
  -4   1  -3 3335.65 1016.24   4
   4  -1   4 22181.2 2598.36   7
  -4   1  -4 23599.8 2826.29   4
   4  -1   5 373.746 406.549   7
  -4   1  -5-1114.16 693.335   4
   4   0  -6 3149.26 987.954   3
   4   0  -6 3828.62 1044.23   5
  -4   0   6 3602.16 1136.68   9
   4   0  -5 11079.1 1765.69   3
   4   0  -5 10571.2 1605.93   5
  -4   0   5 12091.6 1865.55   9
   4   0  -4 39746.8 3255.56   3
  -4   0   4 40357.7 3231.93   9
  -4   0   3 31414.1 2794.31   4
   4   0  -3 28573.3 2598.66   3
   4   0  -2 3295.99 834.780   3
  -4   0   2 4296.83 991.924   4
  -4   0   1 62448.9 3807.06   4
   4   0  -1 65841.6 2887.93   7
   4   0  -1 58998.3 3582.58   3
   4   0   0 5533.57 850.846   7
  -4   0   0 6183.73 1150.31   4
   4   0   1 3634.91 796.056   2
   4   0   1 3549.22 761.059   7
  -4   0  -1 2950.52 821.587   4
   4   0   2 61766.6 3639.82   7
  -4   0  -2 59602.8 3902.99   4
   4   0   2 68079.6 3583.55   2
   4   0   3 51546.5 3537.54   7
  -4   0  -3 52779.3 3817.01   4
   4   0   3 60073.0 3217.81   2
   4   0   4 1232.80 550.082   7
  -4   0  -4 1747.39 723.571   4
   4   0   5 1338.80 644.982   7
  -4   0  -5 1329.14 664.095   4
  -4   0  -6 28342.4 3199.90   4
   4   1  -6 1152.60 631.134   5
   4   1  -6 1810.41 723.720   2
  -4  -1   6 2987.67 1016.43   9
   4   1  -5 51156.6 3764.13   2
  -4  -1   5 55792.8 4143.20   9
   4   1  -5 48813.0 3565.42   5
   4   1  -4 9545.10 1526.04   3
   4   1  -4 8697.44 1461.89   2
   4   1  -4 9972.92 1423.69   5
  -4  -1   4 11463.0 1704.84   9
   4   1  -3 25861.0 2435.03   2
  -4  -1   3 27339.5 2462.93   9
   4   1  -3 24064.4 2000.03   5
   4   1  -2 20435.2 2088.52   2
  -4  -1   2 19690.1 2077.33   4
   4   1  -2 19313.5 1587.83   5
   4   1  -1 133327. 5727.96   2
   4   1  -1 131326. 4270.54   7
  -4  -1   1 128076. 5605.86   4
   4   1  -1 130875. 4356.07   5
   4   1   0 1248.91 263.121   5
   4   1   0 1673.90 603.923   2
   4   1   0 1031.05 357.663   7
  -4  -1   0 1428.11 575.650   4
   4   1   1 3246.91 697.819   7
  -4  -1  -1 4563.82 922.338   4
   4   1   1 3126.50 795.136   2
   4   1   2 47314.1 2959.62   7
  -4  -1  -2 51821.8 3330.63   4
   4   1   2 49995.9 3079.88   2
   4   1   3 491.013 447.342   7
  -4  -1  -3 1023.46 497.025   4
   4   1   3 491.150 320.019   2
   4   1   4 10895.7 1590.22   7
  -4  -1  -4 9105.19 1474.30   4
   4   1   4 9903.41 1281.00   2
   4   1   5 39076.2 3276.81   7
  -4  -1  -5 38224.3 3302.66   4
   4   1   6 538.084 371.338   7
  -4  -1  -6 205.822 332.707   4
  -4  -1  -7-5.16558 260.524   4
   4   2  -6 676.738 492.078   5
  -4  -2   6 2116.63 891.916   9
   4   2  -6 1984.83 756.607   2
   4   2  -5 10345.2 1678.50   5
  -4  -2   5 6404.40 1408.75   9
   4   2  -5 8137.23 1463.04   2
   4   2  -4 1209.28 574.955   2
   4   2  -4 1048.18 539.498   5
  -4  -2   4 1256.53 524.898   6
  -4  -2   4 1614.07 703.702   9
   4   2  -3 23813.5 2356.07   2
  -4  -2   3 31079.4 2663.08   9
   4   2  -3 27170.8 2244.07   5
   4   2  -2 4535.33 789.907   5
  -4  -2   2 3280.03 809.813   9
   4   2  -2 3577.89 889.498   2
  -4  -2   1 16956.8 1823.31   4
   4   2  -1 19143.4 1415.21   5
   4   2  -1 18817.2 1971.39   2
  -4  -2   0 10040.0 1341.44   4
   4   2   0 11322.4 842.648   5
   4   2   0 8981.32 1335.73   2
   4   2   1 77525.4 3592.01   7
  -4  -2  -1 81937.3 3981.41   4
   4   2   1 82901.8 4231.72   2
   4   2   2 3193.46 712.140   7
  -4  -2  -2 3401.37 765.342   4
   4   2   2 1512.11 542.348   2
   4   2   3 4730.30 936.676   7
   4   2   3 5249.52 980.282   2
  -4  -2  -3 4326.02 894.740   4
   4   2   4 18480.8 2011.41   7
  -4  -2  -4 17818.6 1899.02   4
   4   2   4 18039.1 1860.23   2
   4   2   5 23437.1 2402.58   7
  -4  -2  -5 21076.7 2208.91   4
   4   2   6 97.0939 466.830   7
  -4  -2  -6-84.6466 284.434   4
   4   2   7 173.200 510.755   7
  -4  -2  -7 1338.36 644.162   4
   4   3  -5 9493.68 1738.37   5
   4   3  -5 10746.8 1659.91   2
  -4  -3   5 8786.84 1699.78   9
   4   3  -4 1937.44 760.934   5
  -4  -3   4 2296.26 716.229   6
   4   3  -4 3344.56 878.401   2
  -4  -3   4 1973.56 755.230   9
  -4  -3   3 64486.3 3882.83   6
  -4  -3   3 54768.0 3751.09   9
   4   3  -3 58822.5 3694.32   5
   4   3  -3 55990.5 3751.51   2
  -4  -3   2 11696.2 1583.33   6
   4   3  -2 10468.9 1531.29   2
   4   3  -2 12922.6 1504.06   5
  -4  -3   2 13288.6 1637.05   9
  -4  -3   1 291.122 310.468   6
   4   3  -1 566.677 449.569   2
  -4  -3   1 269.693 221.405   9
   4   3  -1 381.364 351.808   5
   4   3   0 15973.4 1302.00   5
  -4  -3   0 14329.6 1451.10   9
   4   3   0 15650.0 1804.12   2
  -4  -3  -1 337.454 289.329   4
   4   3   1-2.98048 213.040   2
   4   3   2 731.719 240.009   8
  -4  -3  -2 539.719 325.728   4
   4   3   3 44208.2 3043.86   7
  -4  -3  -3 50235.9 2876.39   4
   4   3   3 51797.5 3445.34   2
   4   3   3 48235.7 2450.41   8
   4   3   4 2905.77 648.573   8
   4   3   4 2269.72 720.083   7
   4   3   4 2501.63 736.024   2
  -4  -3  -4 3939.92 800.495   4
   4   3   5 5398.37 1134.02   2
   4   3   5 4909.27 1111.35   7
  -4  -3  -5 6917.22 1118.05   4
  -4  -3  -5 7431.60 1215.50   6
   4   3   6 8931.48 1571.81   7
  -4  -3  -6 13101.2 2083.02   1
   4   3   7 20695.5 2557.53   7
  -4  -3  -7 21879.1 2812.20   1
   4   4  -5 11859.5 2079.32   5
  -4  -4   4 13809.4 1915.01   6
   4   4  -4 13911.1 1897.89   2
  -4  -4   4 11249.1 1866.04   9
   4   4  -4 12754.9 1974.81   5
   4   4  -3 634.474 397.681   2
  -4  -4   3 1014.64 519.927   6
  -4  -4   3 1316.01 635.731   9
   4   4  -3 336.216 426.166   5
   4   4  -2-376.860 347.615   2
  -4  -4   2 189.483 357.714   6
  -4  -4   2 767.917 488.359   9
   4   4  -2 588.477 405.206   5
  -4  -4   1 60753.0 3969.41   6
   4   4  -1 64687.5 3720.77   5
   4   4  -1 63142.2 4024.41   2
  -4  -4   1 61593.7 3523.74   9
  -4  -4   0 55707.2 3745.75   6
   4   4   0 49952.8 3039.06   5
   4   4   0 56097.4 3745.58   2
  -4  -4   0 56570.7 3063.79   9
   4   4   1 1516.07 632.360   2
  -4  -4  -1 1409.74 649.541   6
  -4  -4  -1 1322.83 426.689   9
   4   4   2 1770.86 422.967   8
   4   4   2 2868.03 834.829   2
  -4  -4  -2 2632.27 754.685   6
  -4  -4  -2 2048.93 453.365   9
  -4  -4  -3 58453.1 2867.03   4
  -4  -4  -3 52972.4 3590.45   6
   4   4   3 56216.8 3884.10   2
   4   4   3 57169.5 2890.04   8
   4   4   4 3704.79 761.917   8
   4   4   4 2073.47 753.403   2
  -4  -4  -4 2737.11 775.077   6
   4   4   5 1991.96 597.928   8
   4   4   5 1502.11 656.934   2
  -4  -4  -5 2401.31 736.550   6
  -4  -4  -6 22155.9 2803.85   1
   4   4   6 19200.5 2148.83   8
   4   4   7 912.240 525.654   8
  -4  -4  -7 1171.59 714.555   1
   4   5  -4 21525.9 2900.09   5
  -4  -5   4 25267.6 2950.56   9
   4   5  -3 1223.07 614.043   2
  -4  -5   3 1008.56 605.617   6
  -4  -5   3 895.861 525.269   9
   4   5  -3 1117.89 801.959   5
   4   5  -2 5491.39 1222.38   2
  -4  -5   2 7707.05 1512.19   6
  -4  -5   2 8178.15 1404.95   9
   4   5  -2 5081.45 1208.07   5
   4   5  -1 6495.66 1336.33   2
  -4  -5   1 6105.23 1321.75   6
  -4  -5   1 6978.56 1184.97   9
   4   5  -1 4438.92 1068.07   5
   4   5   0 566.782 458.596   2
  -4  -5   0 1131.91 547.493   6
   4   5   0 1111.39 517.367   5
  -4  -5  -1 44224.9 3504.36   6
   4   5   1 41412.0 3464.57   2
  -4  -5  -2 41165.2 3371.81   6
   4   5   2 44406.9 3618.30   2
   4   5   3 702.496 363.052   8
   4   5   3 1098.20 584.445   2
  -4  -5  -3 816.336 475.347   6
   4   5   4 1221.23 543.238   8
   4   5   4 1128.53 624.054   2
  -4  -5  -4 2121.41 736.631   6
  -4  -5  -5 51067.6 3711.24   6
   4   5   5 48132.8 3331.00   8
   4   5   6 9032.36 1506.15   8
  -4  -5  -6 11348.6 2087.06   1
   4   5   7 277.638 372.206   8
  -4  -6   2 46980.5 4168.19   6
   4   6  -2 42726.5 3742.41   2
   4   6  -2 37947.5 3793.73   5
   4   6  -1 16.2406 239.247   2
  -4  -6   1 344.441 424.029   6
   4   6  -1 856.026 577.406   5
   4   6   0 2966.93 969.059   2
  -4  -6   0 5268.34 1358.48   6
   4   6   0 5442.37 1300.30   5
  -4  -6  -1 17652.2 2444.92   6
   4   6   1 25215.5 2834.07   2
   4   6   2 8226.62 1649.56   2
  -4  -6  -2 5050.19 1284.42   6
   4   6   3-270.311 411.773   2
  -4  -6  -3 149.155 328.154   6
  -4  -6  -4 28325.9 3000.69   6
   4   6   4 21883.6 2251.38   8
   4   6   5 91.4452 286.966   8
  -4  -6  -5 527.132 462.335   6
   4   6   6 1152.91 734.259   8
   5  -3  -2 9282.13 1759.46   3
  -5   2   4 7364.91 1621.31   4
  -5   2   3 20776.3 2670.43   4
   5  -2  -3 20618.2 2601.83   3
   5  -2  -2-41.9693 248.189   3
  -5   2   2 141.236 344.065   4
   5  -2  -1 123.100 297.270   3
  -5   2   1 883.028 553.908   4
  -5   2   0 22801.3 2801.69   4
   5  -2   0 19482.5 2245.24   7
   5  -2   1 11192.5 1814.55   7
   5  -1  -4 12355.8 2022.24   3
  -5   1   3 15621.3 2261.54   4
   5  -1  -3 14294.1 2140.71   3
   5  -1  -2 1576.52 648.334   3
  -5   1   2 1428.35 742.316   4
  -5   1   1 20672.1 2494.75   4
   5  -1  -1 17828.2 2168.74   3
   5  -1   0 8982.09 1354.72   7
  -5   1   0 7400.98 1510.44   4
   5  -1   1 268.478 314.350   2
   5  -1   1 746.393 462.228   7
  -5   1  -1 117.523 317.087   4
   5  -1   2 30558.8 2935.97   7
  -5   1  -2 29999.5 3233.38   4
   5  -1   3 24202.2 2756.23   7
  -5   1  -3 19837.2 2718.66   4
   5   0  -5 30686.3 3284.87   3
  -5   0   5 25609.8 3014.23   9
   5   0  -5 30468.5 2892.95   5
   5   0  -4 8191.79 1628.58   3
   5   0  -4 7754.40 1343.87   5
  -5   0   4 7946.35 1584.72   9
   5   0  -3 1547.27 724.646   3
  -5   0   3 3739.95 1077.33   4
   5   0  -2 6082.73 1295.20   3
  -5   0   2 5452.91 1275.17   4
   5   0  -1 45164.4 3537.65   2
  -5   0   1 47521.1 3702.73   4
   5   0   0 2308.04 780.500   2
   5   0   0 1930.68 595.404   7
  -5   0   0 2530.39 862.819   4
   5   0   1 148.821 307.341   2
   5   0   1 744.523 414.008   7
  -5   0  -1 306.813 376.800   4
   5   0   2 24141.0 2419.84   7
  -5   0  -2 24809.9 2749.44   4
   5   0   2 22738.2 2323.21   2
   5   0   3 8781.01 1546.80   7
  -5   0  -3 11138.8 1901.01   4
   5   0   4 4533.14 1189.86   7
  -5   0  -4 2663.49 952.872   4
   5   1  -6 719.648 550.395   5
   5   1  -5 7734.75 1448.11   5
   5   1  -5 7506.16 1550.38   2
  -5  -1   5 6313.30 1502.77   9
   5   1  -4 237.966 272.457   5
   5   1  -4-357.990 376.064   2
  -5  -1   4 291.888 412.909   9
   5   1  -3 7690.82 1524.03   2
  -5  -1   3 9496.99 1616.23   9
   5   1  -2 18395.3 2233.06   2
  -5  -1   2 15441.0 2086.37   4
   5   1  -1 7352.87 1368.44   2
  -5  -1   1 4524.98 1092.70   4
   5   1   0 3470.88 993.586   2
   5   1   0 3734.52 749.696   7
  -5  -1   0 3628.64 947.660   4
   5   1   1 57396.8 3405.58   7
  -5  -1  -1 63497.7 4118.28   4
   5   1   1 56269.7 3831.55   2
   5   1   2 378.151 216.812   7
  -5  -1  -2 898.799 477.392   4
   5   1   2 1561.69 619.140   2
   5   1   3 9641.92 1531.75   7
  -5  -1  -3 6232.27 1328.42   4
   5   1   3 9542.54 1458.00   2
   5   1   4 21707.7 2488.51   7
  -5  -1  -4 20273.4 2498.52   4
   5   1   5 15741.9 2248.92   7
  -5  -1  -5 16101.8 2294.95   4
   5   2  -5 2052.35 876.389   5
   5   2  -5 507.505 470.171   2
   5   2  -4 1748.98 623.546   5
  -5  -2   4 3097.69 1011.71   9
   5   2  -4 1150.62 622.809   2
  -5  -2   3 26103.6 2716.34   9
   5   2  -3 31088.0 3016.81   2
  -5  -2   2 6787.79 1295.65   9
   5   2  -2 7015.98 1375.19   2
  -5  -2   1 3494.97 907.469   4
   5   2  -1 2573.73 822.292   2
  -5  -2   0 21321.2 2255.26   4
   5   2   0 21526.5 2353.99   2
   5   2   1 6305.52 1027.01   7
  -5  -2  -1 6137.98 1181.58   4
   5   2   1 6634.46 1292.90   2
   5   2   2 410.239 323.750   7
  -5  -2  -2 3.35847 328.271   4
   5   2   2 97.4280 252.262   2
   5   2   3 35683.9 2916.30   7
  -5  -2  -3 37730.4 3076.01   4
   5   2   3 38684.3 3115.85   2
   5   2   4 3048.52 893.597   7
   5   2   4 1842.77 694.139   2
  -5  -2  -4 1802.32 778.509   4
   5   2   5 21167.8 2508.76   7
  -5  -2  -5 17979.2 2260.72   4
  -5  -2  -6 16735.0 2307.40   4
   5   3  -5 7314.47 1496.08   5
   5   3  -5 4779.48 1265.41   2
  -5  -3   4 33887.8 3097.72   6
  -5  -3   4 33106.2 3298.71   9
   5   3  -4 35923.8 3157.12   5
   5   3  -4 37077.5 3424.55   2
  -5  -3   3 27.9065 232.173   6
   5   3  -3 426.101 428.337   2
  -5  -3   3 646.871 484.309   9
   5   3  -2 43.2701 240.643   2
  -5  -3   2-293.775 365.777   9
  -5  -3   1 70053.8 4097.31   9
   5   3  -1 68769.2 4516.99   2
  -5  -3   0 15077.5 1875.14   4
   5   3   0 15602.7 2035.55   2
  -5  -3  -1 5424.74 1061.62   4
   5   3   1 6254.74 1304.92   2
  -5  -3  -2 19497.1 1994.38   4
   5   3   2 12033.8 1775.78   2
   5   3   3 38055.6 3049.39   7
  -5  -3  -3 45982.0 3158.37   4
   5   3   3 40916.3 3365.91   2
   5   3   4 3035.64 916.763   7
   5   3   4 3219.81 947.902   2
  -5  -3  -4 4144.43 961.983   4
   5   3   5 3001.22 918.772   2
   5   3   5 3475.58 1037.80   7
   5   4  -4 14148.3 2122.58   2
  -5  -4   4 13378.1 2151.86   9
   5   4  -3-596.976 462.483   2
  -5  -4   3 107.419 255.784   6
  -5  -4   2 21627.2 2505.25   6
  -5  -4   2 18536.9 2183.11   9
   5   4  -2 19655.6 2413.02   2
  -5  -4   1 14291.9 2002.92   6
   5   4  -1 13107.7 1961.43   2
  -5  -4   1 12003.4 1640.42   9
   5   4   0 302.559 452.139   2
  -5  -4   0 816.166 520.980   6
  -5  -4   0-186.859 239.940   9
  -5  -4  -1 49041.9 3767.56   6
   5   4   1 48370.1 3792.01   2
  -5  -4  -1 47753.9 2958.34   9
  -5  -4  -2 36222.1 2701.72   4
  -5  -4  -2 36958.0 3241.21   6
   5   4   2 37408.8 3334.42   2
   5   4   3 10243.2 1752.46   2
  -5  -4  -3 11544.6 1793.41   6
   5   4   4 7873.92 1543.63   2
  -5  -4  -4 8671.10 1535.57   6
  -5  -4  -5 39862.1 3423.02   6
   5   4   5 74608.1 4913.76   2
   5   5  -3 12277.1 2016.38   2
  -5  -5   3 10149.2 1874.98   6
  -5  -5   3 9894.96 1767.53   9
  -5  -5   2 19395.5 2543.93   6
   5   5  -2 17993.4 2432.52   2
  -5  -5   2 22204.6 2477.50   9
   5   5  -1 478.390 365.154   2
  -5  -5   1 463.647 419.981   6
   5   5   0 1223.44 668.271   2
  -5  -5   0 1014.99 603.977   6
  -5  -5  -1 19869.5 2497.11   6
   5   5   1 21344.2 2617.70   2
   5   5   2 3783.53 1136.34   2
  -5  -5  -2 5178.96 1269.79   6
   5   5   3 2963.91 1024.98   2
  -5  -5  -3 2058.02 821.471   6
   5   5   4 11762.6 2014.20   2
  -5  -5  -4 10424.5 1780.27   6
   5   5   5-443.400 460.782   2
  -5  -5  -5 244.732 296.225   6
   5   6   0 24808.1 3005.04   2
   5   6   1 1758.00 826.468   2
  -5  -6  -1 2726.63 990.236   6
   5   6   2 971.658 764.378   2
  -5  -6  -2 744.003 568.424   6
  -5  -6  -3 23427.3 2858.92   6
   5   6   3 28255.7 3274.13   2
  -5  -6  -4 8291.49 1680.83   6
  -5  -6  -5 1042.77 648.915   6
   6  -1   0 238.718 355.607   2
   6   0  -1 8633.25 1716.65   2
  -6   0   1 12920.3 2127.88   4
   6   0   0 3968.44 1136.75   2
  -6   0   0 5185.37 1388.85   4
   6   0   1 44162.1 3742.39   2
   6   0   2 629.589 480.309   7
   6   1  -2 2548.22 943.721   2
  -6  -1   2 1636.32 860.201   4
   6   1  -1-2.42436 250.093   2
  -6  -1   1-247.782 392.031   4
  -6  -1   0 731.974 534.513   4
   6   1   0 1322.87 672.218   2
  -6  -1  -1 226.181 280.599   4
   6   1   1-170.700 313.859   2
   6   1   2 2659.20 824.925   7
  -6  -1  -2 3666.23 1195.26   4
   6   1   2 4478.84 1134.04   2
   6   1   3 28924.1 2954.11   7
  -6  -1  -3 26215.7 3071.35   4
  -6  -2   2-419.581 439.443   9
   6   2  -2 1438.80 721.775   2
  -6  -2   1 62028.1 4572.86   4
   6   2  -1 63333.5 4674.66   2
  -6  -2   0 11618.3 1880.50   4
   6   2   0 10881.7 1861.27   2
  -6  -2  -1 2022.41 795.998   4
   6   2   1 1530.99 731.961   2
   6   2   2 3026.62 854.515   7
  -6  -2  -2 5622.31 1299.98   4
   6   2   2 4569.19 1166.23   2
   6   2   3 10352.0 1650.01   7
  -6  -2  -3 7270.98 1517.91   4
   6   2   3 11453.3 1856.91   2
   6   2   4 5204.05 1228.77   7
  -6  -2  -4 7903.49 1606.63   4
  -6  -3   3 4921.62 1245.43   6
   6   3  -2 2925.35 986.873   2
  -6  -3   2 3137.89 986.848   9
   6   3  -1 2544.62 928.324   2
  -6  -3   1 1769.15 744.139   9
  -6  -3   0 2985.70 923.666   4
   6   3   0 2483.55 909.325   2
  -6  -3  -1 40080.4 3396.83   4
   6   3   1 35730.0 3442.31   2
  -6  -3  -2 29071.2 2861.32   4
   6   3   2 32024.5 3249.49   2
   6   3   3 3361.53 948.026   7
  -6  -3  -3 5753.47 1241.47   4
   6   3   3 5304.88 1310.82   2
   6   3   4-51.1333 251.157   2
  -6  -3  -4 203.650 290.003   4
  -6  -4   2 20524.8 2521.30   9
   6   4  -1 598.147 645.983   2
  -6  -4   1 568.473 490.735   6
  -6  -4   1 1024.65 556.216   9
   6   4   0 268.334 425.010   2
  -6  -4   0 360.256 435.473   6
  -6  -4   0-164.547 317.655   9
   6   4   1 8814.69 1752.33   2
  -6  -4  -1 4652.99 1213.37   6
  -6  -4  -2 5273.88 1138.23   4
   6   4   2 6857.04 1567.59   2
  -6  -4  -2 5961.15 1370.63   6
   6   4   3 9697.02 1859.08   2
  -6  -4  -3 10253.7 1825.58   6
   6   4   4 12021.1 2079.24   2
  -6  -4  -4 9481.72 1786.56   6
  -6  -4  -5 592.683 488.144   6
   0   0   0    0.00    0.00   0
TITL 9000-3_full in P-1
REM P-1 (#2 in standard setting)
CELL 0.71073   4.829158   5.405089   6.596833  72.7163  86.5794  69.0645
ZERR    1.00   0.000456   0.000510   0.000601   0.0083   0.0076   0.0087
LATT  1
SFAC O P Mn Cu
UNIT 8.00 2.00 2.00 1.00
TREF
HKLF 4
END
;
_shelx_hkl_checksum              55604
_shelx_res_file
;
TITL shelxt_a.res in P-1
    shelx.res
    created by SHELXL-2018/3 at 16:49:45 on 12-Oct-2021
CELL  0.71073   4.8292   5.4051   6.5968   72.716   86.579   69.064
ZERR     1.00   0.0005   0.0005   0.0006    0.008    0.008    0.009
LATT   1
SFAC  O    P    MN   CU
UNIT  8 2 2 1
MERG   2
FMAP   2
PLAN   20
BOND
OMIT -3 60
ACTA
LIST   6
L.S.  10
WGHT    0.020000    0.006000
EXTI    0.022739
FVAR       7.31279
CU1   4    0.500000    0.000000    0.500000    10.50000    0.00831    0.00905 =
         0.01344   -0.00054   -0.00192   -0.00485
MN1   3    0.211841    0.738173    0.191710    11.00000    0.01180    0.00827 =
         0.00793   -0.00199   -0.00033   -0.00266
P     2    0.866479    0.339236    0.281461    11.00000    0.00644    0.00717 =
         0.00618   -0.00183    0.00055   -0.00319
O1    1    1.179588    0.333713    0.331623    11.00000    0.00734    0.01164 =
         0.01107   -0.00195    0.00040   -0.00583
O2    1    0.733544    0.225723    0.492998    11.00000    0.00720    0.00853 =
         0.00689   -0.00246    0.00122   -0.00378
O3    1    0.890212    0.150225    0.140995    11.00000    0.01154    0.01123 =
         0.00882   -0.00588    0.00117   -0.00365
O4    1    0.675598    0.637233    0.172189    11.00000    0.01255    0.00983 =
         0.01228   -0.00014    0.00158   -0.00354
HKLF 4
REM  shelxt_a.res in P-1
REM wR2 = 0.0675, GooF = S = 1.138, Restrained GooF = 1.138 for all data
REM R1 = 0.0316 for 723 Fo > 4sig(Fo) and 0.0409 for all 846 data
REM 62 parameters refined using 0 restraints
END
WGHT      0.0232      0.2240
REM Highest difference peak  1.188,  deepest hole -0.812,  1-sigma level  0.183
Q1    1   0.4158  0.0684  0.6275  11.00000  0.05    1.19
Q2    1   0.8756  0.2589  0.1967  11.00000  0.05    0.73
Q3    1   0.6609  0.6851  0.2476  11.00000  0.05    0.59
Q4    1   0.0686  0.7417  0.0463  11.00000  0.05    0.58
Q5    1   1.2791  0.3996  0.1909  11.00000  0.05    0.57
Q6    1   0.7589  0.4784  0.1408  11.00000  0.05    0.57
Q7    1   0.6664  0.2937  0.1795  11.00000  0.05    0.54
Q8    1   0.0799  0.9125  0.2325  11.00000  0.05    0.54
Q9    1   0.9949  0.2007  0.0795  11.00000  0.05    0.54
Q10   1   0.5944  0.2147  0.4922  11.00000  0.05    0.53
Q11   1   0.7626  0.6609  0.1724  11.00000  0.05    0.53
Q12   1   0.7987  0.2037  0.0867  11.00000  0.05    0.52
Q13   1   1.1140  0.4816  0.3906  11.00000  0.05    0.52
Q14   1   0.4742  0.7387  0.2552  11.00000  0.05    0.51
Q15   1   1.0766  0.3034  0.3782  11.00000  0.05    0.51
Q16   1   0.3403  0.0135  0.3437  11.00000  0.05    0.51
Q17   1   0.4736 -0.1973  0.5979  11.00000  0.05    0.50
Q18   1   0.9004  0.0596  0.1050  11.00000  0.05    0.50
Q19   1   0.3146  0.5606  0.3683  11.00000  0.05    0.49
Q20   1   0.2256  0.6066  0.1604  11.00000  0.05    0.48
;
_shelx_res_checksum              8546
loop_
_space_group_symop_operation_xyz
'x, y, z'
'-x, -y, -z'
loop_
_atom_site_type_symbol
_atom_site_label
_atom_site_fract_x
_atom_site_fract_y
_atom_site_fract_z
_atom_site_U_iso_or_equiv
_atom_site_adp_type
_atom_site_calc_flag
_atom_site_occupancy
_atom_site_disorder_assembly
_atom_site_disorder_group
Cu Cu1 0.500000 0.000000 0.500000 0.01030(19) Uani d 1 . .
Mn Mn1 0.21184(13) 0.73817(12) 0.19171(9) 0.00965(18) Uani d 1 . .
P P 0.8665(2) 0.3392(2) 0.28146(15) 0.0064(2) Uani d 1 . .
O O1 1.1796(6) 0.3337(5) 0.3316(4) 0.0096(5) Uani d 1 . .
O O2 0.7335(5) 0.2257(5) 0.4930(4) 0.0073(5) Uani d 1 . .
O O3 0.8902(6) 0.1502(5) 0.1410(4) 0.0100(6) Uani d 1 . .
O O4 0.6756(6) 0.6372(5) 0.1722(4) 0.0124(6) Uani d 1 . .
loop_
_atom_site_aniso_label
_atom_site_aniso_U_11
_atom_site_aniso_U_22
_atom_site_aniso_U_33
_atom_site_aniso_U_12
_atom_site_aniso_U_13
_atom_site_aniso_U_23
Cu1 0.0083(3) 0.0090(4) 0.0134(4) -0.0048(3) -0.0019(3) -0.0005(3)
Mn1 0.0118(3) 0.0083(3) 0.0079(3) -0.0027(2) -0.0003(2) -0.0020(2)
P 0.0064(5) 0.0072(5) 0.0062(4) -0.0032(4) 0.0006(3) -0.0018(4)
O1 0.0073(12) 0.0116(14) 0.0111(13) -0.0058(11) 0.0004(10) -0.0019(11)
O2 0.0072(12) 0.0085(13) 0.0069(12) -0.0038(10) 0.0012(10) -0.0025(10)
O3 0.0115(13) 0.0112(14) 0.0088(12) -0.0036(11) 0.0012(10) -0.0059(11)
O4 0.0125(14) 0.0098(14) 0.0123(14) -0.0035(11) 0.0016(11) -0.0001(11)
loop_
_atom_type_symbol
_atom_type_description
_atom_type_scat_dispersion_real
_atom_type_scat_dispersion_imag
_atom_type_scat_source
O O 0.0106 0.0060 'International Tables Vol C Tables 4.2.6.8 and 6.1.1.4'
P P 0.1023 0.0942 'International Tables Vol C Tables 4.2.6.8 and 6.1.1.4'
Mn Mn 0.3368 0.7283 'International Tables Vol C Tables 4.2.6.8 and 6.1.1.4'
Cu Cu 0.3201 1.2651 'International Tables Vol C Tables 4.2.6.8 and 6.1.1.4'
loop_
_geom_angle_atom_site_label_1
_geom_angle_atom_site_label_2
_geom_angle_atom_site_label_3
_geom_angle_site_symmetry_1
_geom_angle_site_symmetry_2
_geom_angle_site_symmetry_3
_geom_angle
_geom_angle_publ_flag
O2 Cu1 O2 2_656 . . 180.00(9) ?
O2 Cu1 O1 2_656 . 1_455 90.92(10) ?
O2 Cu1 O1 . . 1_455 89.08(10) ?
O2 Cu1 O1 2_656 . 2_756 89.08(10) ?
O2 Cu1 O1 . . 2_756 90.92(10) ?
O1 Cu1 O1 1_455 . 2_756 180.00(14) ?
O4 Mn1 O3 . . 2_665 96.73(10) ?
O4 Mn1 O3 . . 1_465 125.32(10) ?
O3 Mn1 O3 2_665 . 1_465 79.75(11) ?
O4 Mn1 O1 . . 1_455 101.81(10) ?
O3 Mn1 O1 2_665 . 1_455 106.77(10) ?
O3 Mn1 O1 1_465 . 1_455 131.75(10) ?
O4 Mn1 O2 . . 2_666 86.87(9) ?
O3 Mn1 O2 2_665 . 2_666 160.81(10) ?
O3 Mn1 O2 1_465 . 2_666 82.80(9) ?
O1 Mn1 O2 1_455 . 2_666 90.81(9) ?
O4 P O3 . . . 111.58(15) ?
O4 P O2 . . . 110.45(14) ?
O3 P O2 . . . 108.03(15) ?
O4 P O1 . . . 107.78(15) ?
O3 P O1 . . . 110.22(15) ?
O2 P O1 . . . 108.75(14) ?
P O1 Cu1 . . 1_655 123.91(15) ?
P O1 Mn1 . . 1_655 110.66(14) ?
Cu1 O1 Mn1 1_655 . 1_655 125.43(12) ?
P O2 Cu1 . . . 119.17(14) ?
P O2 Mn1 . . 2_666 129.51(14) ?
Cu1 O2 Mn1 . . 2_666 111.23(11) ?
P O3 Mn1 . . 2_665 129.12(16) ?
P O3 Mn1 . . 1_645 125.17(15) ?
Mn1 O3 Mn1 2_665 . 1_645 100.25(11) ?
P O4 Mn1 . . . 116.27(15) ?
? ? ? ? ? ? ? ?
loop_
_geom_bond_atom_site_label_1
_geom_bond_atom_site_label_2
_geom_bond_site_symmetry_1
_geom_bond_site_symmetry_2
_geom_bond_distance
_geom_bond_publ_flag
Cu1 O2 . 2_656 1.925(2) y
Cu1 O2 . . 1.925(2) y
Cu1 O1 . 1_455 1.975(3) y
Cu1 O1 . 2_756 1.975(3) y
Mn1 O4 . . 2.113(3) y
Mn1 O3 . 2_665 2.134(2) y
Mn1 O3 . 1_465 2.152(3) y
Mn1 O1 . 1_455 2.164(3) y
Mn1 O2 . 2_666 2.186(2) y
P O4 . . 1.514(3) y
P O3 . . 1.543(3) y
P O2 . . 1.550(2) y
P O1 . . 1.555(3) y
? ? ? ? ? ?

_cod_database_fobs_code 2022595
