#------------------------------------------------------------------------------
#$Date: 2021-02-05 16:53:33 +0200 (Fri, 05 Feb 2021) $
#$Revision: 261800 $
#$URL: file:///home/coder/svn-repositories/cod/cif/2/02/22/2022291.cif $
#------------------------------------------------------------------------------
#
# This file is available in the Crystallography Open Database (COD),
# http://www.crystallography.net/. The original data for this entry
# were provided by IUCr Journals, http://journals.iucr.org/.
#
# The file may be used within the scientific community so long as
# proper attribution is given to the journal article from which the
# data were obtained.
#
data_2022291
loop_
_publ_author_name
'Stoyko, Stanislav S.'
'Craig, Andrew J.'
'Kotchey, Joshua W.'
'Aitken, Jennifer A.'
_publ_section_title
;
 Synthesis, crystal structure, and electronic structure of Li~2~PbSiS~4~:
 a quaternary thiosilicate with a compressed chalcopyrite-like structure
;
_journal_coeditor_code           KU3266
_journal_issue                   1
_journal_name_full               'Acta Crystallographica Section C'
_journal_page_first              1
_journal_page_last               10
_journal_paper_doi               10.1107/S2053229620015338
_journal_volume                  77
_journal_year                    2021
_chemical_formula_iupac          'Li2 Pb Si S4'
_chemical_formula_sum            'Li2 Pb S4 Si'
_chemical_formula_weight         377.40
_chemical_name_common            'lithium lead silicon sulfide'
_chemical_name_systematic
;
Dilithium lead silicon tetrasulfide
;
_space_group_crystal_system      tetragonal
_space_group_IT_number           121
_space_group_name_Hall           'I -4 2'
_space_group_name_H-M_alt        'I -4 2 m'
_atom_sites_solution_primary     direct
_atom_sites_solution_secondary   difmap
_audit_creation_method           SHELXL-2018/3
_cell_angle_alpha                90
_cell_angle_beta                 90
_cell_angle_gamma                90
_cell_formula_units_Z            2
_cell_length_a                   6.46180(10)
_cell_length_b                   6.46180(10)
_cell_length_c                   7.7333(2)
_cell_measurement_reflns_used    1002
_cell_measurement_temperature    296(2)
_cell_measurement_theta_max      25.4165
_cell_measurement_theta_min      4.0915
_cell_volume                     322.903(11)
_computing_cell_refinement
;
SAINT (Bruker, 2012)
;
_computing_data_collection
;
APEX2 (Bruker, 2012)
;
_computing_data_reduction
;
SAINT (Bruker, 2012)
;
_computing_molecular_graphics
;
shelXle (H\"ubschle <i>et al.</i>,  2011) and CrystalMaker (Palmer,
2014)
;
_computing_publication_material
;
publCIF (Westrip, 2010)
;
_computing_structure_refinement
;
SHELXL2018 (Sheldrick, 2015b)
;
_computing_structure_solution
;
SHELXS2018 (Sheldrick, 2015a)
;
_diffrn_ambient_temperature      296(2)
_diffrn_measured_fraction_theta_full 1.000
_diffrn_measured_fraction_theta_max 1.000
_diffrn_measurement_device_type  'Bruker SMART APEXII'
_diffrn_measurement_method       '\f and \w Scans'
_diffrn_radiation_type           MoK\a
_diffrn_radiation_wavelength     0.71073
_diffrn_reflns_av_R_equivalents  0.0413
_diffrn_reflns_av_unetI/netI     0.0293
_diffrn_reflns_limit_h_max       8
_diffrn_reflns_limit_h_min       -8
_diffrn_reflns_limit_k_max       8
_diffrn_reflns_limit_k_min       -8
_diffrn_reflns_limit_l_max       10
_diffrn_reflns_limit_l_min       -10
_diffrn_reflns_number            1559
_diffrn_reflns_theta_full        25.242
_diffrn_reflns_theta_max         28.486
_diffrn_reflns_theta_min         4.110
_diffrn_source                   'fine-focus sealed tube'
_exptl_absorpt_coefficient_mu    27.465
_exptl_absorpt_correction_T_max  0.4352
_exptl_absorpt_correction_T_min  0.2948
_exptl_absorpt_correction_type   multi-scan
_exptl_absorpt_process_details
;
(SADABS; Sheldrick, 1996)
;
_exptl_crystal_colour            yellow
_exptl_crystal_density_diffrn    3.882
_exptl_crystal_density_method    'not measured'
_exptl_crystal_description       'square plate'
_exptl_crystal_F_000             332
_exptl_crystal_size_max          0.059
_exptl_crystal_size_mid          0.055
_exptl_crystal_size_min          0.022
_refine_diff_density_max         0.436
_refine_diff_density_min         -0.457
_refine_ls_abs_structure_details
;
Refined as an inversion twin
;
_refine_ls_abs_structure_Flack   0.062(15)
_refine_ls_extinction_method     none
_refine_ls_goodness_of_fit_ref   1.011
_refine_ls_hydrogen_treatment    undef
_refine_ls_matrix_type           full
_refine_ls_number_parameters     14
_refine_ls_number_reflns         236
_refine_ls_number_restraints     0
_refine_ls_restrained_S_all      1.011
_refine_ls_R_factor_all          0.0157
_refine_ls_R_factor_gt           0.0155
_refine_ls_shift/su_max          0.000
_refine_ls_shift/su_mean         0.000
_refine_ls_structure_factor_coef Fsqd
_refine_ls_weighting_details     'w=1/[\s^2^(Fo^2^)] where P=(Fo^2^+2Fc^2^)/3'
_refine_ls_weighting_scheme      calc
_refine_ls_wR_factor_gt          0.0278
_refine_ls_wR_factor_ref         0.0278
_reflns_number_gt                235
_reflns_number_total             236
_reflns_threshold_expression     'I > 2\s(I)'
_cod_data_source_file            ku3266sup1.cif
_cod_data_source_block           I
_cod_depositor_comments          'Adding full bibliography for 2022291.cif.'
_cod_original_cell_volume        322.903(13)
_cod_database_code               2022291
_cod_database_fobs_code          2022291
_shelx_space_group_comment
;
The symmetry employed for this shelxl refinement is uniquely defined
by the following loop, which should always be used as a source of
symmetry information in preference to the above space-group names.
They are only intended as comments.
;
_shelx_estimated_absorpt_t_min   0.294
_shelx_estimated_absorpt_t_max   0.583
_shelx_hkl_file
;
  -1  -2 -11   11.55    8.28
   1  -2 -11    3.35    5.99
  -2  -1 -11    8.41    7.72
   0  -1 -11    8.22    7.01
   2  -1 -11    7.70    6.27
  -3   0 -11   -0.17    6.34
  -1   0 -11    5.71    7.72
   1   0 -11    7.45    7.46
  -2   1 -11    6.37    4.80
  -1   2 -11    7.61    5.38
   1   2 -11   12.96   10.33
  -2  -4 -10   25.18    9.71
   0  -4 -10   10.58    7.85
   2  -4 -10    8.35    5.90
  -3  -3 -10    7.77    6.81
  -1  -3 -10   41.67   10.82
   1  -3 -10   23.71    7.95
   3  -3 -10    0.57    4.55
  -4  -2 -10   24.60    9.55
  -2  -2 -10    3.47    5.87
   0  -2 -10   66.78   12.92
   2  -2 -10   10.61    5.79
   4  -2 -10   11.71    6.33
  -3  -1 -10   38.15   10.92
  -1  -1 -10   37.46   10.87
   1  -1 -10   42.43   10.14
   3  -1 -10   28.48    8.31
   5  -1 -10    6.86    6.64
  -4   0 -10   20.09    5.93
  -2   0 -10   76.23   14.70
   0   0 -10    7.99    6.23
   2   0 -10   59.18   11.11
   4   0 -10   36.42   11.42
  -3   1 -10   38.97    7.34
  -1   1 -10   36.21    7.16
   1   1 -10   29.01    9.87
  -4   2 -10   24.50   10.56
  -2   2 -10   16.74    6.57
   0   2 -10   66.02   11.53
  -1   3 -10   45.31    9.27
   1   3 -10   43.87    9.85
   3   3 -10    5.60    5.36
   0   4 -10   20.58    7.31
  -1  -6  -9    8.52    8.09
   1  -6  -9    6.38   10.98
  -2  -5  -9    1.56    6.09
   0  -5  -9   31.50    9.43
   2  -5  -9    5.08    6.05
  -3  -4  -9    9.19    7.44
  -1  -4  -9   10.87    6.67
   1  -4  -9   18.34    7.35
   3  -4  -9    3.09    5.27
  -4  -3  -9    2.13    5.54
  -2  -3  -9   44.16   11.83
   0  -3  -9    3.58    4.55
   2  -3  -9   27.19    7.91
   4  -3  -9    9.15    5.85
  -5  -2  -9   -3.30    5.18
  -3  -2  -9   21.75    8.29
  -1  -2  -9    8.26    5.39
   1  -2  -9   13.74    6.17
   3  -2  -9   31.91    8.42
   5  -2  -9   -0.26    3.74
  -6  -1  -9    9.77    8.43
  -4  -1  -9   25.96    8.78
  -2  -1  -9    9.29    7.02
   0  -1  -9   43.86   10.06
   2  -1  -9   20.99    6.25
   4  -1  -9   10.21    5.52
   6  -1  -9    9.82    6.19
  -5   0  -9   46.82    7.84
  -3   0  -9   -0.06    2.95
  -1   0  -9   41.37   10.77
   1   0  -9   41.98    8.84
   3   0  -9    1.81    4.05
   5   0  -9   31.28    8.97
  -6   1  -9   22.85   10.44
  -4   1  -9   16.28    5.12
  -2   1  -9   22.69    5.51
   0   1  -9   48.71    7.34
   2   1  -9   10.32    5.55
  -5   2  -9    2.01    3.27
  -3   2  -9   49.01    7.63
  -1   2  -9   13.35    4.31
   1   2  -9    9.79    5.22
  -4   3  -9   13.02    5.45
  -2   3  -9   45.58    8.98
   0   3  -9    0.52    2.97
   2   3  -9   50.03   10.33
   4   3  -9   11.51    6.85
  -3   4  -9    8.73    4.28
  -1   4  -9   15.77    5.36
   1   4  -9   34.06    8.37
   3   4  -9    5.59    5.03
  -2   5  -9    2.77    3.46
   0   5  -9   33.25    7.59
  -1   6  -9   16.08    4.15
  -1  -7  -8   30.64   10.39
   1  -7  -8   18.90    9.16
  -4  -6  -8   25.80   10.00
  -2  -6  -8   38.56   11.38
   0  -6  -8   42.90   10.28
   2  -6  -8   26.04    9.55
  -5  -5  -8    5.09    7.49
  -3  -5  -8   31.42   10.89
  -1  -5  -8   35.83    9.78
   1  -5  -8   46.21   10.73
   3  -5  -8   33.35   10.40
  -4  -4  -8   47.26   11.70
  -2  -4  -8   45.53   11.34
   0  -4  -8   49.97    9.89
   2  -4  -8   83.17   13.34
   4  -4  -8   43.05   10.13
  -5  -3  -8   30.85    9.67
  -3  -3  -8   27.74    8.91
  -1  -3  -8   52.95   10.51
   1  -3  -8   67.48   11.02
   3  -3  -8   53.63   10.45
   5  -3  -8   41.89   10.12
  -6  -2  -8   30.05    9.93
  -4  -2  -8   49.75   11.41
  -2  -2  -8   99.88   14.98
   0  -2  -8   80.41   11.67
   2  -2  -8   77.75   11.83
   4  -2  -8   63.42   10.95
  -5  -1  -8   31.65    6.43
  -3  -1  -8   67.77   13.01
  -1  -1  -8  144.99   14.28
   1  -1  -8   98.32   13.13
   3  -1  -8   65.00   10.07
   5  -1  -8   34.75    8.29
  -6   0  -8   27.48    6.18
  -4   0  -8   52.55    7.37
  -2   0  -8  103.25    9.26
   0   0  -8   87.56   12.64
   2   0  -8   89.13   12.12
   4   0  -8   57.22    9.78
  -5   1  -8   55.07    7.99
  -3   1  -8   82.49    9.23
  -1   1  -8  103.71    9.27
   1   1  -8  142.08    9.22
   3   1  -8   67.29   10.57
  -6   2  -8   31.60    6.12
  -4   2  -8   64.75    8.04
  -2   2  -8   75.92    8.66
   0   2  -8   99.27    8.89
   2   2  -8   91.47   12.45
  -5   3  -8   21.64    4.84
  -3   3  -8   39.60    6.09
  -1   3  -8   71.14   10.30
   1   3  -8   70.62   10.77
   3   3  -8   55.72   10.34
   5   3  -8   23.99   10.51
  -4   4  -8   37.85    6.98
  -2   4  -8   65.24    9.49
   0   4  -8   58.93    9.64
   2   4  -8   61.40    7.44
   4   4  -8   60.86    8.18
   6   4  -8   23.19   11.47
  -3   5  -8   30.50    5.20
  -1   5  -8   55.03    6.40
   1   5  -8   31.44    5.43
   3   5  -8   33.64    6.18
   5   5  -8   17.73   10.03
  -2   6  -8   29.10    8.77
   0   6  -8   21.62    4.14
   2   6  -8   40.49    5.92
   4   6  -8   34.45   16.86
  -1   7  -8   22.50    8.92
   1   7  -8   26.86    9.54
   0  -7  -7   21.93    8.21
   2  -7  -7    5.82    6.27
  -3  -6  -7   19.31    8.61
  -1  -6  -7   14.54    7.38
   1  -6  -7   17.53    6.95
   3  -6  -7   24.88    8.92
  -6  -5  -7   11.51    8.00
  -4  -5  -7   11.87    7.36
  -2  -5  -7   58.58   12.30
   0  -5  -7    5.78    4.56
   2  -5  -7   61.19   11.84
   4  -5  -7   18.16    7.74
  -5  -4  -7   15.93    7.69
  -3  -4  -7   30.56    9.02
  -1  -4  -7   44.93    9.42
   1  -4  -7   34.26    8.40
   3  -4  -7   43.84    9.48
  -6  -3  -7   33.14    9.65
  -4  -3  -7   34.98    8.76
  -2  -3  -7   11.30    5.95
   0  -3  -7  152.33   14.20
   2  -3  -7    5.00    3.87
  -7  -2  -7    2.58    4.22
  -5  -2  -7   61.01   12.36
  -3  -2  -7   12.77    6.10
  -1  -2  -7   85.85   12.50
   1  -2  -7   74.25   10.57
   3  -2  -7    5.37    3.62
  -6  -1  -7   11.68    4.52
  -4  -1  -7   50.69    6.99
  -2  -1  -7   90.38   13.77
   0  -1  -7   27.39    6.06
   2  -1  -7  110.59   10.47
  -7   0  -7   22.13    5.83
  -5   0  -7   -0.44    2.37
  -3   0  -7  143.73   10.17
  -1   0  -7   39.50    5.42
   1   0  -7   44.64    7.59
   3   0  -7  138.27   12.43
  -6   1  -7   22.90    5.46
  -4   1  -7   38.39    6.07
  -2   1  -7  103.48    8.65
   0   1  -7   40.28    5.31
   2   1  -7   88.49    7.51
   4   1  -7   57.35    6.42
   6   1  -7   10.55    6.96
   8   1  -7   20.53   14.04
  -7   2  -7    8.90    7.50
  -5   2  -7   56.14    7.43
  -3   2  -7   10.90    3.38
  -1   2  -7   97.72    8.07
   1   2  -7   78.96    5.71
   3   2  -7   13.98    3.85
   5   2  -7   47.17   10.58
   7   2  -7    6.68    6.98
  -6   3  -7   33.76    5.29
  -4   3  -7   43.26    5.86
  -2   3  -7    8.45    2.26
   0   3  -7  141.98    8.86
   2   3  -7   14.14    3.54
   4   3  -7   31.37    6.03
   6   3  -7   24.74    6.32
  -5   4  -7   15.94    3.23
  -3   4  -7   33.48    4.69
  -1   4  -7   35.90    5.02
   1   4  -7   56.96    6.36
   3   4  -7   35.91    6.09
   5   4  -7    9.41    4.80
  -4   5  -7   15.34    6.69
  -2   5  -7   64.79    5.65
   0   5  -7    3.70    2.28
   2   5  -7   63.23    7.31
   4   5  -7   13.97    4.98
  -3   6  -7   25.39    8.43
  -1   6  -7   27.20    7.78
   1   6  -7   10.51    3.16
   3   6  -7   29.75    5.39
  -2   7  -7    7.36    6.43
   0   7  -7   19.12    7.81
   2   7  -7   -3.59    5.58
  -1  -7  -6   29.79    8.79
   1  -7  -6   29.69    8.44
   3  -7  -6   67.05   13.67
  -4  -6  -6   44.64   10.72
  -2  -6  -6   22.36    8.12
   0  -6  -6   96.84   13.68
   2  -6  -6   34.08    8.90
  -5  -5  -6  106.92   16.00
  -3  -5  -6    6.32    5.68
  -1  -5  -6  136.09   13.75
   1  -5  -6  160.49   14.91
   3  -5  -6   12.16    5.72
  -6  -4  -6   55.57   11.19
  -4  -4  -6   58.35   11.19
  -2  -4  -6  101.02   13.73
   0  -4  -6  124.15   12.37
   2  -4  -6   91.37   12.57
  -7  -3  -6   43.67   11.11
  -5  -3  -6    8.99    5.30
  -3  -3  -6  248.88   21.41
  -1  -3  -6  110.09   11.26
   1  -3  -6  106.08   11.09
  -8  -2  -6   67.17   15.32
  -6  -2  -6   17.70    5.26
  -4  -2  -6  111.88   14.62
  -2  -2  -6  243.56   20.00
   0  -2  -6   49.65    7.74
   2  -2  -6  269.31   18.56
  -7  -1  -6   26.48    6.30
  -5  -1  -6  140.76   10.44
  -3  -1  -6  113.44    8.97
  -1  -1  -6  245.77   12.60
   1  -1  -6  247.44   17.20
   5  -1  -6  146.27   18.82
   7  -1  -6   28.74   10.31
  -8   0  -6    0.40    5.63
  -6   0  -6  118.69   10.51
  -4   0  -6  135.82    9.55
  -2   0  -6   51.19    6.10
   0   0  -6  503.89   20.79
   2   0  -6   56.82    4.71
   4   0  -6  119.65   15.38
   6   0  -6  126.43   18.26
   8   0  -6    2.80    7.47
  -7   1  -6   29.99    6.06
  -5   1  -6  128.61   10.37
  -3   1  -6  102.29    8.51
  -1   1  -6  260.48    9.88
   1   1  -6  240.37    9.48
   3   1  -6  111.60    6.10
   5   1  -6  162.14   16.21
   7   1  -6   27.63    9.20
  -8   2  -6   44.67   15.84
  -6   2  -6   25.99    5.00
  -4   2  -6   92.98    8.04
  -2   2  -6  258.31   10.39
   0   2  -6   60.23    4.51
   2   2  -6  261.25   10.39
   4   2  -6   92.90    9.26
   6   2  -6   15.19    6.87
   8   2  -6   31.79   10.27
  -7   3  -6   51.22    5.27
  -5   3  -6   13.24    3.42
  -3   3  -6  258.75   10.58
  -1   3  -6  110.50    5.88
   1   3  -6  104.05    7.24
   3   3  -6  278.19   14.85
   5   3  -6   16.73    4.68
   7   3  -6   63.59    9.01
  -6   4  -6   24.10    8.00
  -4   4  -6   73.85    4.94
  -2   4  -6  102.15    6.88
   0   4  -6  124.84    8.12
   2   4  -6  100.33    8.09
   4   4  -6   54.72    7.68
   6   4  -6   35.11    6.79
  -3   5  -6   11.98    5.15
  -1   5  -6  142.54   13.86
   1   5  -6  133.16    8.88
   3   5  -6   13.35    4.09
   5   5  -6  102.05   10.54
  -4   6  -6   48.20   10.64
  -2   6  -6   37.10    8.98
   0   6  -6  105.09   14.41
   2   6  -6   17.98    3.55
   4   6  -6   38.90    6.37
  -3   7  -6   47.31   10.49
  -1   7  -6   43.49    9.66
   1   7  -6   27.39    8.91
   3   7  -6   41.43   12.22
  -2   8  -6   53.37   16.31
   0   8  -6   -3.25    5.01
   0  -7  -5   26.87    7.46
   2  -7  -5   24.23    7.64
  -3  -6  -5   27.06    8.53
  -1  -6  -5   63.31    9.84
   1  -6  -5   35.81    7.97
   3  -6  -5   44.09    9.80
  -6  -5  -5   18.29    7.48
  -4  -5  -5   47.60    9.75
  -2  -5  -5   50.28    9.66
   0  -5  -5   38.65    7.63
   2  -5  -5   77.41   11.33
  -7  -4  -5   11.58    6.57
  -5  -4  -5   32.16    8.29
  -3  -4  -5   64.12   10.93
  -1  -4  -5  101.78   10.60
  -8  -3  -5    4.62    5.86
  -6  -3  -5   41.05    9.67
  -4  -3  -5   72.08   11.13
  -2  -3  -5   62.03   10.23
   0  -3  -5  160.67   12.68
   4  -3  -5   61.76    8.90
   6  -3  -5   41.03    9.04
   8  -3  -5    6.57    6.67
  -7  -2  -5   37.93    7.10
  -5  -2  -5   51.88    6.91
  -3  -2  -5   60.38    6.82
  -1  -2  -5  193.09   13.91
   1  -2  -5  144.22   12.56
   3  -2  -5   94.10    8.55
   5  -2  -5   67.97   10.36
   7  -2  -5   18.76    7.65
  -8  -1  -5   20.42    5.74
  -6  -1  -5   74.27    8.63
  -4  -1  -5  102.26    8.69
  -2  -1  -5  193.67   10.26
   0  -1  -5  130.80    7.35
   6  -1  -5   35.34    9.19
   8  -1  -5   28.50   10.44
  -7   0  -5   22.72    5.29
  -5   0  -5   39.66    5.89
  -3   0  -5  157.48    9.39
  -1   0  -5  136.45    5.65
   1   0  -5  138.27    5.67
   3   0  -5  144.88    9.10
   5   0  -5   43.69   10.03
   7   0  -5   18.71    8.69
  -8   1  -5   17.01    4.61
  -6   1  -5   37.67    6.02
  -4   1  -5  150.12   14.02
  -2   1  -5  153.35    7.22
   0   1  -5  138.02    5.91
   2   1  -5  200.63    7.54
   4   1  -5   95.87    8.49
   6   1  -5   65.34   12.92
   8   1  -5   11.14    7.98
  -7   2  -5   17.44    3.94
  -5   2  -5   71.48    6.64
  -3   2  -5   84.97    5.07
  -1   2  -5  150.28    7.15
   1   2  -5  205.67    7.55
   3   2  -5   64.69    6.84
   5   2  -5   54.97    6.95
   7   2  -5   28.69    9.23
  -8   3  -5    3.60    5.97
  -6   3  -5   44.61    4.56
  -4   3  -5   53.33    5.18
  -2   3  -5   85.24    4.67
   0   3  -5  146.05    6.45
   2   3  -5   67.99    6.35
   4   3  -5   69.56    7.43
   6   3  -5   30.80    5.83
   8   3  -5    5.68    4.46
  -7   4  -5   34.00    8.82
  -5   4  -5   27.83    6.82
  -3   4  -5   52.29    3.94
   1   4  -5  106.23    7.19
   3   4  -5   76.26    7.73
   5   4  -5   39.56    6.23
   7   4  -5   12.14    4.59
  -6   5  -5    9.30    5.30
  -4   5  -5   27.69    7.35
  -2   5  -5   69.11   10.58
   0   5  -5   33.00    4.02
   2   5  -5   59.57    6.53
   4   5  -5   36.23    5.80
   6   5  -5    7.30    4.01
  -3   6  -5   45.37    9.77
  -1   6  -5   43.54    9.08
   1   6  -5   79.58   12.18
   3   6  -5   31.85    4.99
   5   6  -5    7.13    3.59
  -4   7  -5   26.66    8.57
  -2   7  -5   23.62    7.67
   0   7  -5   20.70    7.35
   2   7  -5   31.67    9.95
   4   7  -5   17.44    9.10
  -3   8  -5    4.01    5.85
  -1   8  -5   18.59    7.31
   1   8  -5   11.78    7.35
   3   8  -5   -0.80    6.49
   1  -9  -4   22.06    7.92
   1  -7  -4  102.77   12.86
   3  -7  -4   21.89    7.60
  -2  -6  -4  143.22   14.48
   0  -6  -4   53.47    8.65
   2  -6  -4  168.02   14.71
  -5  -5  -4   18.91    6.57
  -3  -5  -4  198.34   17.15
  -1  -5  -4  110.37   10.18
   1  -5  -4   90.44    9.96
   3  -5  -4  204.09   20.05
   5  -5  -4   19.83    6.27
   7  -5  -4   42.54   10.56
  -6  -4  -4   78.25   12.37
  -4  -4  -4  133.09   13.73
  -2  -4  -4  242.88   17.54
   0  -4  -4  222.01   15.40
   2  -4  -4  209.40   14.44
   4  -4  -4  184.39   13.99
   6  -4  -4   61.16   10.82
   8  -4  -4   17.53    8.80
  -7  -3  -4   28.66    8.51
  -5  -3  -4  195.80   16.77
  -3  -3  -4   81.10   10.84
  -1  -3  -4  351.19   20.85
   1  -3  -4  311.73   13.23
   3  -3  -4   85.55    7.94
   5  -3  -4  196.71   15.89
   7  -3  -4   20.99    7.64
  -8  -2  -4    9.73    4.79
  -6  -2  -4  146.59   11.14
  -4  -2  -4  257.85   13.22
  -2  -2  -4  196.70   10.50
   0  -2  -4  615.62   33.24
   2  -2  -4  209.86   12.79
   4  -2  -4  207.68   15.73
   6  -2  -4  155.59   14.75
   8  -2  -4   15.22    7.60
  -9  -1  -4   40.27   13.16
  -7  -1  -4   95.44   10.45
  -5  -1  -4  125.57    8.82
  -3  -1  -4  350.01   15.24
  -1  -1  -4  328.82   14.69
   1  -1  -4  378.36   11.60
   3  -1  -4  313.91   19.94
   5  -1  -4   82.58   11.26
   7  -1  -4  107.21   14.96
   9  -1  -4   19.07    9.65
  -8   0  -4  104.71   10.18
  -6   0  -4   55.17    7.33
  -4   0  -4  201.77   11.56
  -2   0  -4  627.07   24.28
   0   0  -4  171.45    6.15
   2   0  -4  567.30   23.39
   4   0  -4  220.18   17.08
   6   0  -4   48.31   10.10
   8   0  -4   93.02   17.55
  -7   1  -4   84.62    8.25
  -5   1  -4   84.47    7.45
  -3   1  -4  312.29   14.70
  -1   1  -4  374.31   11.95
   1   1  -4  333.53   11.57
   3   1  -4  347.72   15.40
   5   1  -4  106.00    8.87
   7   1  -4   79.65   14.83
  -8   2  -4   12.93    3.29
  -6   2  -4  155.93    9.49
  -4   2  -4  210.77   11.24
  -2   2  -4  216.19    8.04
   0   2  -4  606.79   18.93
   2   2  -4  193.55    7.90
   4   2  -4  256.31   12.89
   6   2  -4  127.70   11.16
   8   2  -4    9.81    7.38
  -7   3  -4   22.99    7.17
  -5   3  -4  196.58    9.79
  -3   3  -4   78.43    4.36
  -1   3  -4  309.85   10.95
   1   3  -4  333.02   11.13
   3   3  -4   77.57    6.77
   5   3  -4  196.65   12.20
   7   3  -4   21.23    5.07
  -8   4  -4   41.88   10.42
  -6   4  -4   54.43   10.09
  -4   4  -4  170.53    9.75
  -2   4  -4  204.59   10.74
   0   4  -4  224.08   15.90
   2   4  -4  253.79   12.19
   4   4  -4  131.82    9.82
   6   4  -4   76.09    8.35
   8   4  -4   28.04    9.66
  -7   5  -4   22.88    7.35
  -5   5  -4   13.61    5.19
  -3   5  -4  204.62   16.93
  -1   5  -4   95.71   10.55
   1   5  -4   96.73    6.36
   3   5  -4  197.37   11.69
   5   5  -4   14.59    4.02
   7   5  -4   38.85    7.02
  -4   6  -4   50.35   10.36
  -2   6  -4  154.85   14.97
   0   6  -4   55.19    9.68
   2   6  -4  161.31   16.71
   4   6  -4   67.43    7.64
   6   6  -4   15.83    4.98
  -3   7  -4   22.73    7.39
  -1   7  -4   88.01   12.92
   1   7  -4   86.97   14.59
   3   7  -4   22.17    8.96
   5   7  -4   35.03   10.52
  -4   8  -4   36.06   10.32
  -2   8  -4   20.31    7.54
   0   8  -4   83.84   14.83
   2   8  -4   20.60    9.05
   4   8  -4   19.69    9.11
  -2  -9  -3    7.14    6.55
   0  -9  -3   11.95    6.67
  -3  -8  -3   35.72    9.29
  -6  -7  -3    4.00    5.63
  -1  -6  -3   80.92    8.73
   1  -6  -3   90.77   11.00
   3  -6  -3    9.49    4.33
   5  -6  -3   73.66   11.43
   7  -6  -3    2.41    5.66
  -4  -5  -3   53.19    8.68
  -2  -5  -3   10.17    4.58
   0  -5  -3  295.70   18.95
   4  -5  -3   63.14    9.47
   6  -5  -3   62.32   11.22
   8  -5  -3    1.29    5.48
  -7  -4  -3   18.24    7.34
  -5  -4  -3   67.10   10.04
  -3  -4  -3   80.68   10.36
  -1  -4  -3  148.26   11.21
   3  -4  -3   78.89    8.21
   5  -4  -3   60.15    9.49
   7  -4  -3   14.68    6.98
  -8  -3  -3   57.30    8.49
  -6  -3  -3    9.53    3.74
  -4  -3  -3   86.03   11.19
  -2  -3  -3  377.15   22.81
   0  -3  -3   26.13    4.40
   2  -3  -3  366.37   20.67
   4  -3  -3   83.06    8.72
   6  -3  -3    5.78    4.03
   8  -3  -3   92.35   14.94
  -9  -2  -3   12.32    7.83
  -7  -2  -3   70.39    9.03
  -5  -2  -3   16.09    4.08
  -3  -2  -3  364.83   16.20
  -1  -2  -3  134.09    7.05
   1  -2  -3  149.36    8.79
   3  -2  -3  358.26   21.28
   5  -2  -3    7.18    3.95
   7  -2  -3   61.93   11.40
   9  -2  -3    9.20    7.10
  -8  -1  -3    8.61    4.21
  -6  -1  -3   81.75    8.99
  -4  -1  -3  158.67    9.18
  -2  -1  -3  136.04    7.67
   0  -1  -3  490.68   17.86
   2  -1  -3  152.43    6.83
   4  -1  -3  130.85   11.43
   6  -1  -3   85.25   12.13
   8  -1  -3   -2.45    4.19
  -9   0  -3    8.77    8.03
  -7   0  -3    9.89    3.51
  -5   0  -3  286.63   14.90
  -3   0  -3   20.20    3.17
  -1   0  -3  477.26   14.54
   1   0  -3  475.93   17.84
   3   0  -3   22.48    3.12
   5   0  -3  300.89   21.17
   7   0  -3    9.06    5.30
   9   0  -3    5.69    6.81
  -8   1  -3    4.27    2.81
  -6   1  -3   91.71    7.52
  -4   1  -3  144.25    8.38
  -2   1  -3  156.17    6.08
   0   1  -3  486.58   14.53
   2   1  -3  134.12    7.59
   4   1  -3  156.62    9.28
   6   1  -3   78.24   13.61
   8   1  -3    9.86    7.83
  -9   2  -3   10.25    7.61
  -7   2  -3   61.12    5.56
  -5   2  -3   12.73    2.67
  -3   2  -3  359.68   10.68
  -1   2  -3  160.56    5.82
   1   2  -3  147.23    5.65
   3   2  -3  369.41   16.18
   5   2  -3   12.37    3.47
   7   2  -3   62.23    8.64
   9   2  -3   12.97    9.30
  -8   3  -3   60.36   11.96
  -6   3  -3    7.02    4.34
  -4   3  -3   82.15    8.58
  -2   3  -3  369.89   10.13
   0   3  -3   22.25    1.70
   2   3  -3  371.74   12.03
   4   3  -3   73.24    6.75
   6   3  -3    9.83    3.53
   8   3  -3   62.14    9.05
  -7   4  -3   15.32    6.04
  -5   4  -3   57.34    9.24
  -3   4  -3   85.21    6.04
  -1   4  -3  135.23    7.05
   1   4  -3  142.14    6.46
   3   4  -3   69.65    6.50
   5   4  -3   42.79    5.97
   7   4  -3   22.38    5.34
  -8   5  -3    2.88    4.71
  -6   5  -3   57.73    9.92
  -4   5  -3   62.34    6.78
  -2   5  -3   14.96    4.97
   0   5  -3  304.74   20.92
   2   5  -3    9.75    2.43
   4   5  -3   50.64    6.44
   6   5  -3   58.53    7.94
  -7   6  -3    2.04    6.04
  -3   6  -3   12.61    5.42
  -1   6  -3   76.46   11.39
   1   6  -3   69.17   11.72
   3   6  -3    5.49    4.40
   5   6  -3   64.68    7.53
   7   6  -3   -0.62    4.86
  -4   7  -3   19.89    7.23
  -2   7  -3   59.27   10.94
   0   7  -3   14.69    5.85
   2   7  -3   56.80   11.55
   4   7  -3   18.15    7.48
   6   7  -3   -0.21    4.72
  -3   8  -3   45.28   10.12
  -1   8  -3    7.95    5.18
   1   8  -3   13.71    6.81
   3   8  -3   39.53   11.35
  -2   9  -3    9.73    6.30
   0   9  -3    2.51    5.32
   2   9  -3   14.39    8.52
  -1  -9  -2   34.94    9.98
   1  -9  -2   37.76   10.63
  -4  -8  -2   24.14    8.33
  -2  -8  -2   27.54    8.48
   0  -8  -2   88.22   13.74
   2  -8  -2   28.03    8.59
   4  -8  -2   27.39    8.43
  -5  -7  -2   40.33    9.58
  -3  -7  -2   63.87   11.64
   5  -7  -2   64.55   11.57
  -6  -6  -2   44.73    9.64
   0  -6  -2   79.65    8.65
   4  -6  -2  105.76   13.32
   6  -6  -2   24.00    7.92
  -3  -5  -2  246.69   16.66
  -1  -5  -2  167.87   12.54
   3  -5  -2  233.25   17.38
   5  -5  -2   60.34   10.51
   7  -5  -2   65.39   12.20
  -6  -4  -2   89.63    8.55
  -4  -4  -2  215.83   14.89
  -2  -4  -2  243.83   17.42
   0  -4  -2  277.36   16.64
   4  -4  -2  167.97   14.68
   6  -4  -2  126.21   13.36
   8  -4  -2   38.52    9.95
  -7  -3  -2   57.14    8.10
  -5  -3  -2  257.08   13.83
  -3  -3  -2  228.33   11.09
  -1  -3  -2  487.83   27.89
   3  -3  -2  210.87   14.49
   5  -3  -2  240.92   18.14
   7  -3  -2   77.83   12.65
   9  -3  -2   14.09   11.95
  -8  -2  -2   20.50    5.69
  -6  -2  -2  162.91   11.16
  -4  -2  -2  248.11   13.51
  -2  -2  -2  356.59   14.23
   0  -2  -2  697.37   34.81
   2  -2  -2  316.52   18.24
   4  -2  -2  294.15   18.39
   6  -2  -2  151.00   14.12
   8  -2  -2   25.89    8.33
  -9  -1  -2   34.90    7.11
  -7  -1  -2  136.79   10.91
  -5  -1  -2  181.05   11.10
  -3  -1  -2  505.34   21.06
  -1  -1  -2  839.05   27.94
   1  -1  -2  722.69   38.14
   3  -1  -2  530.28   19.96
   5  -1  -2  188.70   14.83
   7  -1  -2   95.77   14.07
   9  -1  -2   52.23   12.35
  -8   0  -2   84.70    9.44
  -6   0  -2   83.27    7.50
  -4   0  -2  286.15   13.14
  -2   0  -2  669.29   25.22
   0   0  -2  351.00   10.27
   2   0  -2  689.53   24.70
   4   0  -2  273.89   18.31
   6   0  -2   90.71   12.68
   8   0  -2   94.68   14.79
  -9   1  -2   47.51    5.98
  -7   1  -2  103.55    8.41
  -5   1  -2  197.46   10.19
  -3   1  -2  544.87   20.43
  -1   1  -2  732.85   22.52
   1   1  -2  815.74   27.87
   3   1  -2  514.20   21.09
   5   1  -2  207.15   11.33
   7   1  -2  115.63   16.72
   9   1  -2   31.76   11.47
  -8   2  -2   13.35    6.80
  -6   2  -2  144.36    8.17
  -4   2  -2  303.14   12.01
  -2   2  -2  314.76    8.97
   0   2  -2  700.58   17.11
   2   2  -2  331.21   13.75
   4   2  -2  262.45   13.62
   6   2  -2  174.96   11.50
   8   2  -2   21.38    6.17
  -7   3  -2   62.94   10.82
  -5   3  -2  247.54   18.02
  -3   3  -2  198.04   10.05
  -1   3  -2  556.29   19.79
   1   3  -2  523.08   16.30
   3   3  -2  218.03   10.81
   5   3  -2  242.33   13.31
   7   3  -2   55.67    8.14
  -8   4  -2   29.11    8.57
  -6   4  -2  101.22   13.00
  -4   4  -2  175.48   10.38
  -2   4  -2  291.64   12.30
   0   4  -2  269.60   18.00
   2   4  -2  256.67   12.57
   4   4  -2  236.41   11.85
   6   4  -2   73.82    8.70
   8   4  -2   28.86    6.51
  -7   5  -2   55.51   10.61
  -5   5  -2   61.47    9.66
  -3   5  -2  236.48   11.92
  -1   5  -2  210.73   15.29
   1   5  -2  179.24   15.04
   3   5  -2  241.88   12.70
   5   5  -2   53.25    7.08
   7   5  -2   39.26    6.57
  -6   6  -2   21.33    6.90
  -4   6  -2   93.54   13.25
  -2   6  -2  125.73   13.29
   0   6  -2   86.48   11.81
   2   6  -2  181.49   16.71
   4   6  -2   80.23   14.14
   6   6  -2   41.71    5.97
  -3   7  -2   72.15   11.44
  -1   7  -2  109.69   14.82
   1   7  -2  146.79   15.23
   3   7  -2   44.90   11.16
   5   7  -2   43.94   10.54
  -4   8  -2   22.59    7.28
  -2   8  -2   35.50    9.07
   0   8  -2   63.06   12.45
   2   8  -2   20.65    7.78
   4   8  -2   24.64    9.14
  -3   9  -2   19.01    9.07
  -1   9  -2   64.78   13.39
   1   9  -2   23.01    8.80
   3   9  -2   24.85   10.06
  -2  -9  -1   22.14    8.22
   0  -9  -1   24.60    8.51
   4  -9  -1   33.55   11.94
  -5  -8  -1   20.91    8.01
  -3  -8  -1    1.38    5.29
  -1  -8  -1   48.17   10.95
   1  -8  -1   27.89    8.59
   5  -8  -1   24.35    8.42
  -6  -7  -1   13.99    6.81
  -4  -7  -1   53.19   11.13
  -2  -7  -1   23.63    7.52
   0  -7  -1   71.75   12.36
   2  -7  -1   49.39    9.93
   4  -7  -1   33.30    8.29
   6  -7  -1   33.62    9.50
  -5  -6  -1   20.89    7.05
  -3  -6  -1  109.25   14.40
   1  -6  -1   80.67   11.74
   5  -6  -1   14.70    6.45
   7  -6  -1   26.83    8.73
  -6  -5  -1   15.65    6.35
  -4  -5  -1   49.80    9.39
   0  -5  -1   42.98    5.37
   4  -5  -1   72.05   10.54
   6  -5  -1   12.14    5.80
   8  -5  -1   31.66   10.11
  -5  -4  -1   60.29    6.55
  -3  -4  -1  115.15   10.26
  -1  -4  -1  258.85   13.46
   5  -4  -1   79.25   11.22
   7  -4  -1   37.14    9.46
  -8  -3  -1    4.45    4.17
  -6  -3  -1   86.39    8.73
  -4  -3  -1  130.49    8.58
  -2  -3  -1  132.21    6.71
   0  -3  -1  496.08   26.02
   4  -3  -1  165.33   12.75
   6  -3  -1   89.14   12.68
   8  -3  -1   -0.20    3.93
  -9  -2  -1   15.58    5.50
  -7  -2  -1   26.57    5.81
  -5  -2  -1  174.16    8.24
  -3  -2  -1  127.25    7.31
  -1  -2  -1  453.91   24.70
   3  -2  -1  105.75    9.01
   5  -2  -1  172.88   14.25
   7  -2  -1   37.97    8.43
   9  -2  -1   14.40    7.46
  -8  -1  -1   38.56    6.75
  -6  -1  -1   61.37    7.53
  -4  -1  -1  277.81   12.01
  -2  -1  -1  452.75   18.35
   0  -1  -1  282.33   14.10
   2  -1  -1  509.80   25.23
   4  -1  -1  194.59   10.28
   6  -1  -1   81.47   10.84
   8  -1  -1   38.11    9.03
  -9   0  -1   17.61    4.75
  -7   0  -1   67.18    7.61
  -5   0  -1   38.03    4.80
  -3   0  -1  515.75   19.61
  -1   0  -1  271.40   10.28
   1   0  -1  265.44    9.93
   3   0  -1  510.34   19.44
   5   0  -1   42.53    5.10
   7   0  -1   79.52   12.60
   9   0  -1   15.80    7.39
  -8   1  -1   40.65    5.23
  -6   1  -1  105.66   11.04
  -4   1  -1  193.46    8.01
  -2   1  -1  514.40   14.33
   0   1  -1  274.47    6.91
   2   1  -1  464.48   18.49
   4   1  -1  260.91   15.89
   6   1  -1   60.49    7.30
   8   1  -1   21.92    8.21
  -9   2  -1    9.29    6.34
  -7   2  -1   51.59    9.69
  -5   2  -1  169.68    8.03
  -3   2  -1  104.81    8.73
  -1   2  -1  533.36   17.68
   1   2  -1  447.97   14.38
   3   2  -1  140.23    7.42
   5   2  -1  188.45   11.30
   7   2  -1   18.36    5.00
   9   2  -1   18.06    9.11
  -8   3  -1    3.78    4.08
  -6   3  -1   83.99   11.78
  -4   3  -1  142.80   11.58
  -2   3  -1  100.61    5.96
   0   3  -1  500.08   18.29
   2   3  -1  122.88    5.35
   4   3  -1  120.98    8.42
   6   3  -1   92.06    9.44
   8   3  -1    6.17    4.33
  -7   4  -1   22.09    6.64
  -5   4  -1   61.46    9.11
  -3   4  -1  151.97    8.12
  -1   4  -1  186.39    9.39
   1   4  -1  259.92   15.92
   3   4  -1  126.10    8.42
   5   4  -1   49.94    6.58
   7   4  -1   39.72    6.83
  -8   5  -1   28.95    8.67
  -6   5  -1   15.31    5.70
  -4   5  -1   77.57    7.26
  -2   5  -1  174.66    9.05
   0   5  -1   38.48    6.72
   2   5  -1  169.98   15.14
   4   5  -1   49.81    5.64
   6   5  -1   16.27    3.95
   8   5  -1   17.23    7.43
  -7   6  -1   34.86    8.85
  -5   6  -1   10.96    4.85
  -3   6  -1   88.69   12.26
  -1   6  -1  103.13   10.32
   1   6  -1   72.51   11.48
   3   6  -1   86.85   13.13
   5   6  -1   16.46    3.13
   7   6  -1   12.64    3.95
  -4   7  -1   19.97    6.74
  -2   7  -1   37.06    8.04
   0   7  -1   64.72   11.01
   2   7  -1   13.80    6.55
   4   7  -1   52.06   11.33
   6   7  -1    7.27    6.06
  -3   8  -1    4.38    4.33
  -1   8  -1   34.15    8.66
   1   8  -1   45.35   10.27
   3   8  -1    3.46    5.52
   5   8  -1   18.74    7.49
  -2   9  -1    4.65    5.09
   0   9  -1   15.43    7.58
   2   9  -1   23.23    8.95
  -3  -9   0   18.38    7.57
  -1  -9   0   22.07    8.45
   1  -9   0   18.58    7.65
  -4  -8   0   19.11    7.48
  -2  -8   0  133.06   18.05
   0  -8   0    6.96    5.53
   2  -8   0  136.28   14.71
  -5  -7   0    9.75    5.86
  -3  -7   0  146.65   18.75
  -1  -7   0   58.94   11.49
   1  -7   0   83.10   12.43
   5  -7   0   16.71    6.76
  -6  -6   0   76.93   12.74
  -4  -6   0  115.40   15.29
  -2  -6   0   80.56   12.52
   0  -6   0  332.74   23.72
   2  -6   0   78.74   10.25
   6  -6   0   82.18   13.83
  -5  -5   0  260.53   20.25
  -3  -5   0   31.62    7.53
  -1  -5   0  248.12   20.81
   1  -5   0  334.82   20.90
   3  -5   0   35.83    5.36
   5  -5   0  253.78   20.26
   7  -5   0    9.88    6.23
  -8  -4   0   40.14   10.29
  -6  -4   0  116.19   12.00
  -4  -4   0  192.51   15.89
  -2  -4   0  314.53   13.10
   0  -4   0  409.44   16.27
   2  -4   0  289.83   17.90
   4  -4   0  197.73   15.44
   6  -4   0  117.17   12.99
   8  -4   0   36.44   10.17
  -7  -3   0  132.06   10.30
  -5  -3   0   35.95    4.09
  -3  -3   0  601.03   19.69
  -1  -3   0  289.19   15.00
   3  -3   0  608.53   30.81
   5  -3   0   34.91    7.33
   7  -3   0  128.22   16.65
   9  -3   0   31.38    9.80
  -8  -2   0  141.32   13.01
  -6  -2   0   70.19    8.04
  -4  -2   0  305.61   11.30
  -2  -2   0  928.37   34.23
   2  -2   0  959.09   46.14
   4  -2   0  294.10   19.36
   6  -2   0   82.28   11.51
   8  -2   0  121.67   17.58
  -9  -1   0   24.13    5.53
  -7  -1   0   76.67    8.72
  -5  -1   0  314.94   11.27
  -3  -1   0  291.73    9.83
  -1  -1   0  848.07   29.71
   3  -1   0  275.68   11.72
   5  -1   0  319.90   20.83
   7  -1   0   85.51   12.64
   9  -1   0   16.03    6.77
  -8   0   0    5.65    2.90
  -6   0   0  320.75   15.35
  -4   0   0  421.05   13.08
  -2   0   0  238.82    7.38
   2   0   0  236.13    9.56
   4   0   0  416.36   17.26
   6   0   0  307.69   22.35
   8   0   0    7.20    4.89
  -9   1   0   28.39    9.23
  -7   1   0   64.48    5.62
  -5   1   0  310.21   13.52
  -3   1   0  290.08    9.15
  -1   1   0  859.48   23.87
   1   1   0  867.84   29.57
   3   1   0  280.49   12.25
   5   1   0  305.59   14.95
   7   1   0   54.47    7.76
   9   1   0   17.03    8.65
  -8   2   0  128.68   16.50
  -6   2   0   70.12   10.19
  -4   2   0  296.13   19.24
  -2   2   0  981.50   33.93
   0   2   0  237.13    7.49
   2   2   0  964.87   28.20
   4   2   0  298.81   14.55
   6   2   0   65.08    8.27
   8   2   0  118.03   13.24
  -9   3   0   36.45   10.36
  -7   3   0  108.32   14.54
  -5   3   0   33.14    6.43
  -3   3   0  633.95   33.28
  -1   3   0  279.63   11.40
   1   3   0  281.27   12.38
   3   3   0  647.20   24.60
   5   3   0   28.81    5.14
   7   3   0  126.98   12.48
   9   3   0   27.75    7.54
  -8   4   0   38.48    9.72
  -6   4   0  115.04   12.30
  -4   4   0  182.93   14.14
  -2   4   0  307.35   13.12
   0   4   0  417.72   23.99
   2   4   0  294.56   20.43
   4   4   0  187.55   10.27
   6   4   0  109.04    9.21
   8   4   0   24.38    5.67
  -7   5   0   12.20    5.86
  -5   5   0  265.25   19.15
  -3   5   0   35.87    4.50
  -1   5   0  292.73   12.96
   1   5   0  337.88   21.03
   3   5   0   37.12    8.31
   5   5   0  232.14   12.51
   7   5   0   13.21    3.83
  -6   6   0   72.19   11.93
  -4   6   0  119.03   10.84
  -2   6   0   85.26    6.36
   0   6   0  330.70   22.07
   2   6   0   79.67   12.41
   4   6   0  112.52   15.42
   6   6   0   67.92    6.25
  -7   7   0   19.42    7.93
  -3   7   0  115.93   12.84
  -1   7   0   67.84   10.65
   1   7   0   62.58   11.17
   3   7   0  135.71   17.58
   5   7   0   15.45    6.64
  -4   8   0   43.38   10.49
  -2   8   0  138.82   14.88
   0   8   0   13.02    6.03
   2   8   0  122.33   17.53
   4   8   0   29.75    8.87
  -3   9   0   32.92   10.08
  -1   9   0   22.88    8.37
   1   9   0   24.29    9.73
   3   9   0   39.24   11.67
  -2  -9   1    4.03    5.84
   0  -9   1    3.16    5.67
  -5  -8   1   33.73   10.54
  -3  -8   1   -2.18    4.80
  -1  -8   1   27.63    8.83
   1  -8   1   30.29    8.24
   5  -8   1   36.68   10.21
  -6  -7   1   32.93    9.90
  -4  -7   1   27.03    8.30
  -2  -7   1   42.52    9.68
   0  -7   1   79.08   12.04
   2  -7   1   22.84    6.17
   6  -7   1   11.89    7.22
  -5  -6   1   14.19    6.72
  -3  -6   1   54.83   10.73
  -1  -6   1  107.56   13.81
   1  -6   1   74.58   10.25
   5  -6   1   11.41    5.42
   7  -6   1   17.59    7.94
  -6  -5   1    5.84    5.28
  -4  -5   1   54.20   10.03
  -2  -5   1  158.04   14.80
   0  -5   1   46.12    7.54
   2  -5   1  177.82   12.73
   6  -5   1   19.56    7.31
   8  -5   1   35.15   10.52
  -7  -4   1   18.92    6.80
  -5  -4   1   61.70    7.17
  -3  -4   1  156.65   13.03
  -1  -4   1  188.00   15.05
   1  -4   1  260.71   14.68
   3  -4   1  134.94    9.84
   5  -4   1   57.33    9.90
   7  -4   1   42.41    9.32
  -8  -3   1   10.04    5.98
  -6  -3   1   81.08    8.48
  -4  -3   1  155.63    6.94
  -2  -3   1  107.02    4.68
   0  -3   1  501.47   27.16
   2  -3   1  126.08    8.06
   4  -3   1  114.21   11.23
   6  -3   1  105.41   13.19
   8  -3   1    1.47    3.99
  -9  -2   1   10.31    6.40
  -7  -2   1   41.14    6.53
  -5  -2   1  177.82    8.00
  -3  -2   1  101.40    5.00
  -1  -2   1  493.38   17.77
   1  -2   1  447.00   24.42
   3  -2   1  132.77    4.83
   5  -2   1  164.93   13.71
   7  -2   1   23.98    6.70
   9  -2   1   17.13    7.59
  -8  -1   1   31.58    5.92
  -6  -1   1  107.78    7.81
  -4  -1   1  192.69    8.07
  -2  -1   1  519.64   14.69
   0  -1   1  277.02    9.97
   2  -1   1  453.28   14.32
   4  -1   1  261.18   11.28
   6  -1   1   55.33    9.16
   8  -1   1   43.95   10.10
  -9   0   1   20.47    4.60
  -7   0   1   74.81    6.81
  -5   0   1   39.66    4.60
  -3   0   1  513.18   15.21
  -1   0   1  267.39    8.13
   1   0   1  276.54    8.10
   3   0   1  510.86   15.73
   5   0   1   46.84    5.79
   7   0   1   69.28   11.17
   9   0   1    8.37    6.38
  -8   1   1   37.78    9.30
  -6   1   1   60.32    5.05
  -4   1   1  253.32    9.69
  -2   1   1  451.48   17.14
   0   1   1  268.06    9.70
   2   1   1  522.30   14.84
   4   1   1  194.76    8.44
   6   1   1  104.62    8.64
   8   1   1   20.97    7.34
  -9   2   1   29.56    9.82
  -7   2   1   21.34    6.85
  -5   2   1  176.73   13.90
  -3   2   1  125.30    5.61
  -1   2   1  444.88   14.43
   1   2   1  510.25   18.24
   3   2   1  103.47    5.35
   5   2   1  175.62   10.90
   7   2   1   53.12    7.89
   9   2   1   14.40    5.92
  -8   3   1    6.63    4.93
  -6   3   1  103.72   10.98
  -4   3   1  128.69   11.37
  -2   3   1  133.40    5.28
   0   3   1  494.35   19.33
   2   3   1   98.95    4.07
   4   3   1  155.94    7.07
   6   3   1  102.33    9.90
   8   3   1    5.25    3.68
  -7   4   1   43.29    9.17
  -5   4   1   54.48    8.96
  -3   4   1  128.45    7.94
  -1   4   1  255.46    8.51
   1   4   1  195.09   10.49
   3   4   1  164.70    5.52
   5   4   1   62.87    5.89
   7   4   1   22.68    4.95
  -8   5   1   22.35    8.00
  -6   5   1   16.35    6.09
  -4   5   1   56.84    8.70
  -2   5   1  188.31    9.42
   0   5   1   41.84    4.95
   2   5   1  190.18   10.62
   4   5   1   68.73    4.72
   6   5   1    8.62    2.79
   8   5   1   23.72    7.98
  -7   6   1   25.29    7.91
  -5   6   1   20.44    6.04
  -3   6   1   87.41    7.11
  -1   6   1   61.38    9.41
   1   6   1  102.51   10.45
   3   6   1   80.96   12.19
   5   6   1   14.61    6.02
   7   6   1   29.64    4.78
  -6   7   1   15.43    6.58
  -2   7   1   22.46    6.60
   0   7   1   86.96   12.30
   2   7   1   38.13    9.05
   4   7   1   34.55    8.71
   6   7   1   17.71    7.72
  -3   8   1    3.52    4.55
  -1   8   1   43.11    9.61
   1   8   1   39.48    9.52
   3   8   1    5.92    5.83
  -2   9   1   14.19    6.89
   0   9   1   10.00    7.18
  -1  -9   2   45.56   11.69
   1  -9   2   44.81   11.37
  -4  -8   2   23.25    9.41
  -2  -8   2   17.38    7.75
   0  -8   2   92.19   14.11
   2  -8   2   27.07    7.73
  -5  -7   2   49.87   11.85
  -3  -7   2   60.52   12.26
  -1  -7   2  111.92   15.75
   1  -7   2  140.84   13.33
   5  -7   2   52.11   11.49
  -6  -6   2   28.38    9.49
  -4  -6   2   92.09   14.16
  -2  -6   2  134.61   14.64
   0  -6   2   91.44   12.11
   2  -6   2  179.40   13.55
   6  -6   2   52.11   11.41
  -5  -5   2   54.11   10.36
  -3  -5   2  227.92   18.81
  -1  -5   2  192.99   15.01
   1  -5   2  180.17   13.69
   3  -5   2  230.71   15.85
   5  -5   2   57.91   10.54
   7  -5   2   52.95   11.25
  -8  -4   2   23.28    8.10
  -6  -4   2  108.08   10.00
  -4  -4   2  169.72   11.13
  -2  -4   2  310.40   13.63
   0  -4   2  269.03   17.46
   2  -4   2  257.39   16.95
   6  -4   2   76.82   12.13
   8  -4   2   28.26    8.91
  -7  -3   2   74.47   12.10
  -5  -3   2  240.48   12.98
  -3  -3   2  196.70    7.99
  -1  -3   2  544.10   20.31
   1  -3   2  530.19   28.42
   3  -3   2  206.31   12.41
   5  -3   2  261.00   18.72
   7  -3   2   47.92   10.04
   9  -3   2   21.88   12.43
  -8  -2   2   18.57    6.97
  -6  -2   2  139.43    9.85
  -4  -2   2  299.58   10.34
  -2  -2   2  311.19   10.54
   0  -2   2  689.50   24.62
   2  -2   2  355.26   13.02
   4  -2   2  247.76   17.80
   6  -2   2  163.82   14.22
   8  -2   2   25.85    7.76
  -9  -1   2   49.46    7.37
  -7  -1   2  106.43    9.48
  -5  -1   2  188.01    7.78
  -3  -1   2  545.55   16.55
  -1  -1   2  750.31   22.44
   1  -1   2  867.85   27.74
   3  -1   2  497.03   16.25
   5  -1   2  191.89   10.95
   7  -1   2  156.13   13.93
   9  -1   2   25.79    8.40
  -8   0   2   81.49    7.38
  -6   0   2  100.03    7.39
  -4   0   2  278.94    8.26
  -2   0   2  687.13   20.04
   0   0   2  348.68   12.85
   2   0   2  663.04   20.00
   4   0   2  271.64    9.92
   6   0   2   91.40    7.89
   8   0   2   77.02   12.92
  -9   1   2   41.83   11.37
  -7   1   2  128.18   13.41
  -5   1   2  182.26    6.92
  -3   1   2  507.49   15.46
  -1   1   2  848.42   27.62
   1   1   2  768.47   19.39
   3   1   2  552.76   16.55
   5   1   2  198.82    8.34
   7   1   2  118.73    9.69
   9   1   2   53.92   12.22
  -8   2   2   27.48    8.26
  -6   2   2  178.07   14.87
  -4   2   2  230.68   11.47
  -2   2   2  361.32   13.08
   0   2   2  691.59   24.17
   2   2   2  307.61    9.38
   4   2   2  301.28   10.68
   6   2   2  145.31   10.22
   8   2   2   23.83    5.93
  -7   3   2   54.91   10.43
  -5   3   2  243.90   18.14
  -3   3   2  208.10   10.14
  -1   3   2  532.63   16.46
   1   3   2  539.39   20.34
   3   3   2  212.35    7.14
   5   3   2  234.02   10.17
   7   3   2   73.05    8.56
   9   3   2   11.45    8.05
  -8   4   2   39.53    9.86
  -6   4   2   81.93   12.57
  -4   4   2  244.49   15.91
  -2   4   2  252.35   10.09
   0   4   2  276.75   12.45
   2   4   2  281.35   13.07
   4   4   2  182.10    8.10
   6   4   2  108.83    7.91
   8   4   2   25.10    5.51
  -7   5   2   41.57    9.21
  -5   5   2   52.11    9.29
  -3   5   2  253.27   12.29
  -1   5   2  169.59    7.74
   1   5   2  203.31   10.49
   3   5   2  257.91   13.22
   5   5   2   51.10    4.77
   7   5   2   49.50    6.31
  -6   6   2   46.12    9.45
  -4   6   2   86.18   11.68
  -2   6   2  158.74    7.70
   0   6   2   89.69    7.59
   2   6   2  143.90    9.86
   4   6   2  128.30   12.67
   6   6   2   34.45   10.08
  -5   7   2   41.44    8.91
  -3   7   2   59.21    6.81
  -1   7   2  147.49   13.19
   1   7   2  114.69    9.97
   3   7   2   69.88   11.80
  -2   8   2   24.00    7.54
   0   8   2   97.97   14.31
  -2  -9   3    6.24    8.25
   0  -9   3    1.08    5.27
  -3  -8   3   21.08    9.91
  -1  -8   3    4.82    5.97
   1  -8   3    5.30    5.19
  -6  -7   3    0.50    6.32
  -4  -7   3   17.54    8.10
  -2  -7   3   58.47   11.76
   0  -7   3   14.46    6.19
   2  -7   3   60.62    9.56
   6  -7   3    0.55    4.89
  -5  -6   3   58.43   12.21
  -3  -6   3    9.39    5.93
  -1  -6   3   84.71   12.31
   1  -6   3   71.89   10.52
   5  -6   3   57.37   11.57
   7  -6   3    1.79    5.17
  -6  -5   3   51.15   10.69
  -4  -5   3   51.21   10.08
  -2  -5   3    8.99    4.51
   0  -5   3  299.58   20.54
   2  -5   3   10.83    3.86
   6  -5   3   56.81   11.45
  -7  -4   3   22.39    7.97
  -5  -4   3   56.94    7.07
  -3  -4   3   89.54    7.77
  -1  -4   3  125.27   11.50
   1  -4   3  163.28   11.57
   3  -4   3   79.21    7.49
   5  -4   3   52.73    9.18
   7  -4   3   18.66    6.60
  -8  -3   3   58.12   11.84
  -6  -3   3    5.37    3.98
  -4  -3   3   78.85    6.82
  -2  -3   3  351.88   15.59
   0  -3   3   20.13    2.86
   2  -3   3  351.90   14.86
   4  -3   3   84.91    9.08
   6  -3   3    8.05    4.24
   8  -3   3   63.53   12.24
  -7  -2   3   50.62   10.58
  -5  -2   3   14.47    2.61
  -3  -2   3  366.72   12.54
  -1  -2   3  158.81    7.64
   1  -2   3  129.77    6.98
   3  -2   3  372.82   15.12
   5  -2   3   19.11    5.19
   7  -2   3   61.41   11.13
   9  -2   3   20.30    8.23
  -8  -1   3    2.80    3.39
  -6  -1   3   89.66    7.66
  -4  -1   3  130.04    6.22
  -2  -1   3  155.36    5.97
   0  -1   3  468.08   17.95
   2  -1   3  148.06    7.29
   4  -1   3  144.12    6.19
   6  -1   3   97.99   12.67
   8  -1   3   10.36    5.42
  -9   0   3    5.14    7.45
  -7   0   3    7.73    2.75
  -5   0   3  314.22   13.96
  -3   0   3   22.43    1.92
  -1   0   3  482.46   14.61
   1   0   3  476.92   17.94
   3   0   3   19.53    2.13
   5   0   3  294.00   14.51
   7   0   3   17.99    6.10
   9   0   3    8.30    5.53
  -8   1   3    4.76    5.17
  -6   1   3   76.80   11.02
  -4   1   3  146.38    5.36
  -2   1   3  147.12    7.04
   0   1   3  474.59   14.18
   2   1   3  155.24    5.78
   4   1   3  137.12    6.40
   6   1   3   87.67    8.38
   8   1   3    6.60    3.97
  -9   2   3    8.45    6.53
  -7   2   3   64.29   11.50
  -5   2   3   17.45    5.22
  -3   2   3  366.74   14.89
  -1   2   3  144.85    7.25
   1   2   3  149.60    4.41
   3   2   3  351.47   12.55
   5   2   3   13.72    2.44
   7   2   3   58.79    7.87
   9   2   3   14.38    9.09
  -8   3   3   83.94   14.12
  -6   3   3   17.34    6.09
  -4   3   3   66.39    9.29
  -2   3   3  361.44   15.16
   0   3   3   20.11    2.39
   2   3   3  348.59   15.21
   4   3   3   78.34    5.09
   6   3   3   12.63    3.58
   8   3   3   58.78    8.24
  -7   4   3   17.80    6.58
  -5   4   3   56.56    9.74
  -3   4   3   81.36    6.73
  -1   4   3  145.92    7.84
   1   4   3  129.22    7.65
   3   4   3   85.84    6.81
   5   4   3   53.06    4.68
   7   4   3   21.75    6.42
  -6   5   3   68.45   11.77
  -4   5   3   58.26    9.37
  -2   5   3   13.43    2.52
   0   5   3  293.09   13.86
   2   5   3   12.95    3.09
   4   5   3   57.74    6.54
   6   5   3   58.73    5.75
  -7   6   3    3.62    4.89
  -5   6   3   69.41   11.40
  -3   6   3   11.57    3.67
  -1   6   3   92.51    7.48
   1   6   3   96.03    7.83
   3   6   3    6.94    4.37
   5   6   3   84.40   12.65
  -6   7   3    7.71    5.33
  -4   7   3   24.13    7.17
  -2   7   3   65.56   11.71
   0   7   3    9.54    5.34
   2   7   3   57.26   10.67
   4   7   3   20.51    7.56
   1   8   3   -0.35    4.89
  -1  -9   4   21.63   13.80
   1  -9   4   30.36    8.99
  -4  -8   4   31.72   10.54
  -2  -8   4    9.74    6.51
   0  -8   4  100.84   14.65
   2  -8   4   12.39    6.00
  -5  -7   4   25.88    9.89
  -3  -7   4   20.66    8.12
  -1  -7   4   99.77   14.40
   1  -7   4   64.73   10.86
  -6  -6   4   23.70    9.16
  -4  -6   4   66.00   11.93
  -2  -6   4  147.48   14.84
   0  -6   4   60.31    9.70
   2  -6   4  144.67   13.60
   6  -6   4   17.45    7.31
  -7  -5   4   45.28   10.98
  -5  -5   4   12.91    6.03
  -3  -5   4  214.80   17.30
  -1  -5   4   92.54   11.64
   1  -5   4  100.04   10.13
   3  -5   4  213.59   15.39
   5  -5   4   12.34    5.52
   7  -5   4   59.69   11.77
  -6  -4   4   47.16    7.11
  -4  -4   4  179.47   11.50
  -2  -4   4  207.12   11.78
   0  -4   4  213.26   15.53
   2  -4   4  238.95   15.79
   6  -4   4   70.63   11.38
   8  -4   4   26.88    8.90
  -7  -3   4   24.71    7.87
  -5  -3   4  195.93   11.90
  -3  -3   4   92.79    6.97
  -1  -3   4  323.50   14.62
   1  -3   4  326.02   14.15
   3  -3   4   71.66    7.28
   5  -3   4  183.31   15.84
   7  -3   4   30.96    8.16
  -8  -2   4    9.27    5.31
  -6  -2   4  160.32   15.67
  -4  -2   4  210.07    9.24
  -2  -2   4  217.60   10.45
   0  -2   4  608.66   23.33
   2  -2   4  191.46    9.78
   4  -2   4  236.10   10.61
   6  -2   4  135.64   13.24
   8  -2   4   16.41    6.90
  -7  -1   4   84.45    8.61
  -5  -1   4   87.05    5.36
  -3  -1   4  314.40   11.65
  -1  -1   4  384.26   14.81
   1  -1   4  334.37   14.52
   3  -1   4  339.38   11.51
   5  -1   4  106.53    8.17
   7  -1   4   67.75   11.49
   9  -1   4   27.42    9.07
  -8   0   4  105.54   15.46
  -6   0   4   56.32    5.46
  -4   0   4  209.22    8.33
  -2   0   4  611.57   19.23
   0   0   4  167.88    7.97
   2   0   4  629.74   18.74
   4   0   4  208.82    8.60
   6   0   4   63.65    7.09
   8   0   4   84.48   13.88
  -9   1   4   31.64   10.15
  -7   1   4   76.59   12.09
  -5   1   4  102.00   10.30
  -3   1   4  338.45   10.61
  -1   1   4  334.21   11.27
   1   1   4  391.49   14.63
   3   1   4  308.57   11.25
   5   1   4  101.76    5.81
   7   1   4   95.01    9.43
   9   1   4   30.73   11.29
  -8   2   4    5.03    5.53
  -6   2   4  126.51   13.45
  -4   2   4  240.67   11.03
  -2   2   4  199.21    9.85
   0   2   4  642.86   33.20
   2   2   4  218.28    6.60
   4   2   4  209.39    9.23
   6   2   4  147.84   10.25
   8   2   4   24.75    8.16
  -7   3   4   33.55    8.76
  -5   3   4  207.94   16.90
  -3   3   4   70.26    5.73
  -1   3   4  335.59   19.97
   1   3   4  312.08   12.84
   3   3   4   86.06    4.54
   5   3   4  210.53   11.62
   7   3   4   17.04    6.00
  -8   4   4   14.50    7.49
  -6   4   4   84.15   12.81
  -4   4   4  138.50   13.63
  -2   4   4  244.51   11.95
   0   4   4  223.24   16.44
   2   4   4  239.58   18.25
   4   4   4  175.04    9.06
   6   4   4   55.51    8.66
  -7   5   4   38.92   10.34
  -5   5   4   13.49    5.56
  -3   5   4  194.24   11.87
  -1   5   4  112.43   14.11
   1   5   4   93.74   13.20
   3   5   4  210.80   17.90
   5   5   4   23.37    7.06
   7   5   4   39.66    6.66
  -6   6   4    7.62    4.94
  -4   6   4   52.91   10.03
  -2   6   4  166.14   15.61
   0   6   4   80.85   12.41
   2   6   4  142.88   14.70
   4   6   4   64.88   11.35
   6   6   4   27.16    8.71
  -5   7   4   51.76   10.55
  -1   7   4  105.86   14.48
   1   7   4   92.68   13.62
   3   7   4    3.83    5.12
   5   7   4   42.07   10.03
  -2   8   4   10.42    7.50
   0   8   4  108.66   15.40
   2   8   4   10.93    6.02
  -3  -8   5    8.73    7.25
  -1  -8   5    8.98    6.91
   1  -8   5   13.49    6.77
  -4  -7   5   21.00    8.76
  -2  -7   5   16.28    7.21
   0  -7   5   28.66    7.90
   2  -7   5   27.56    7.47
  -5  -6   5    5.20    6.14
  -3  -6   5   30.06    8.36
  -1  -6   5   35.59    8.54
   1  -6   5   62.31   10.06
   5  -6   5    9.71    5.66
  -6  -5   5   10.92    5.15
  -4  -5   5   15.67    6.40
  -2  -5   5   66.62   10.93
   0  -5   5   30.38    7.08
   2  -5   5   63.06    9.75
   6  -5   5   10.16    5.52
  -7  -4   5   29.65    9.09
  -5  -4   5   34.92    6.29
  -3  -4   5   57.31    7.11
   1  -4   5  107.03   10.49
   3  -4   5   76.90    7.90
   5  -4   5   42.19    8.20
   7  -4   5   18.62    7.07
  -6  -3   5   47.12   10.30
  -4  -3   5   54.47    7.03
  -2  -3   5   86.75    7.22
   0  -3   5  143.36    8.48
   2  -3   5   63.22    8.22
   4  -3   5   75.80    9.87
   6  -3   5   24.23    7.16
   8  -3   5   -0.20    4.75
  -7  -2   5   15.34    6.57
  -5  -2   5   71.95    7.07
  -3  -2   5   95.38    6.97
  -1  -2   5  148.25    9.03
   1  -2   5  183.86    9.31
   3  -2   5   74.08    6.27
   5  -2   5   68.47   10.23
   7  -2   5   33.89    8.88
  -8  -1   5   15.81    5.66
  -6  -1   5   29.17    5.27
  -4  -1   5  146.13   10.86
  -2  -1   5  156.03    9.27
   0  -1   5  132.95    7.47
   2  -1   5  205.85    9.65
   4  -1   5   99.62    5.79
   6  -1   5   68.82   10.20
   8  -1   5   14.99    6.97
  -9   0   5   12.44   11.88
  -7   0   5   30.44    4.14
  -5   0   5   36.46    4.70
  -3   0   5  144.74    6.78
  -1   0   5  135.00    7.47
   1   0   5  132.78    7.47
   3   0   5  146.01    6.45
   5   0   5   43.73    5.69
   7   0   5   33.04    9.22
  -8   1   5   12.28    6.95
  -6   1   5   80.48   11.82
  -4   1   5   93.78    6.54
  -2   1   5  199.95    5.86
   0   1   5  131.22    5.67
   2   1   5  143.44    8.79
   4   1   5  150.94    6.99
   6   1   5   38.31    9.18
   8   1   5   18.45    7.66
  -7   2   5   38.36    9.34
  -5   2   5   52.87    9.44
  -3   2   5   69.53    5.77
  -1   2   5  201.24   13.26
   1   2   5  149.81    6.52
   3   2   5   83.68    6.09
   5   2   5   78.60    7.85
   7   2   5   16.18    6.21
  -8   3   5    5.10    5.90
  -6   3   5   38.85    8.94
  -4   3   5   70.88    6.46
  -2   3   5   70.57    6.57
   0   3   5  139.50   11.84
   2   3   5   84.66    8.96
   4   3   5   62.53    6.49
   6   3   5   35.99    7.85
  -7   4   5    5.67    5.18
  -5   4   5   37.23    8.23
  -3   4   5   80.79    7.51
  -1   4   5   81.27   11.46
   3   4   5   53.72    9.99
   5   4   5   34.11    4.72
   7   4   5   27.00    6.62
  -6   5   5    8.39    5.11
  -4   5   5   39.75    8.64
  -2   5   5   54.32    9.82
   0   5   5   41.63    9.11
   2   5   5   58.25   10.92
   4   5   5   26.83    7.60
   6   5   5    5.86    5.49
  -5   6   5   11.65    6.11
  -3   6   5   50.23   10.83
  -1   6   5   69.28   11.95
   1   6   5   45.57    9.97
   3   6   5   47.76   10.40
   5   6   5   13.33    6.66
  -2   7   5   34.34    9.17
   0   7   5   26.51    8.53
   2   7   5   19.11    7.10
   4   7   5   35.08    9.58
  -1   8   5   16.89    7.72
   1   8   5   12.24    6.96
   3   8   5   11.55    6.84
   0  -8   6    6.73    6.02
  -3  -7   6   49.08   12.32
  -1  -7   6   30.25    8.94
   1  -7   6   25.82    7.82
  -6  -6   6   21.65   10.26
  -4  -6   6   48.11   11.16
  -2  -6   6   27.24    8.10
   0  -6   6  115.87   14.83
   2  -6   6   19.51    6.08
  -5  -5   6   87.88   13.87
  -3  -5   6   15.12    6.13
  -1  -5   6  125.47   13.31
   1  -5   6  151.39   13.69
   3  -5   6   11.73    4.69
   5  -5   6  110.45   15.29
  -6  -4   6   27.08    8.58
  -4  -4   6   67.64    8.59
  -2  -4   6   85.68    8.54
   0  -4   6  121.60   11.87
   2  -4   6  101.37   10.13
   6  -4   6   39.23    9.25
  -7  -3   6   37.23    9.52
  -5  -3   6   17.86    4.53
  -3  -3   6  252.32   14.17
  -1  -3   6   98.61    7.61
   1  -3   6  103.34    7.41
   3  -3   6  278.24   18.41
   5  -3   6   11.78    5.01
   7  -3   6   45.78   10.04
  -6  -2   6   26.34    7.63
  -4  -2   6   90.28    8.25
  -2  -2   6  261.14   13.23
   0  -2   6   54.93    5.51
   2  -2   6  261.02   13.05
   4  -2   6  104.79    6.24
   6  -2   6   12.22    5.45
  -7  -1   6   29.30    7.07
  -5  -1   6  135.90    7.51
  -3  -1   6  108.82    8.14
  -1  -1   6  264.10   12.59
   1  -1   6  252.03   12.40
   3  -1   6  112.86    5.91
   5  -1   6  131.46   15.56
  -8   0   6    1.31    6.38
  -6   0   6  115.79    7.48
  -4   0   6  122.50    6.49
  -2   0   6   59.17    6.03
   0   0   6  506.14   20.80
   2   0   6   65.16    6.39
   4   0   6  121.27    8.87
   6   0   6  136.23   15.86
   8   0   6    3.15    5.85
  -7   1   6   27.79    8.33
  -5   1   6  133.86   13.07
  -3   1   6  118.33    7.38
  -1   1   6  247.03   12.02
   1   1   6  253.38   11.99
   3   1   6   96.86    7.34
   5   1   6  136.99    9.31
   7   1   6   42.57   10.18
  -8   2   6   47.41   11.28
  -6   2   6   18.11    6.39
  -4   2   6  101.68    7.65
  -2   2   6  245.69   17.43
   0   2   6   51.39    7.77
   2   2   6  258.84   12.54
   4   2   6   92.91    7.88
   6   2   6   25.41    7.22
  -7   3   6   72.02   12.83
  -5   3   6   12.38    5.85
  -3   3   6  271.13   13.58
  -1   3   6  114.06   11.05
   1   3   6  103.50   10.52
   3   3   6  267.04   12.63
   5   3   6   20.33    4.24
   7   3   6   56.95   10.48
  -6   4   6   68.71   12.64
  -4   4   6   52.20    9.95
  -2   4   6  100.86   10.67
   0   4   6  127.00   12.55
   2   4   6   87.41   12.54
   4   4   6   60.01   11.29
   6   4   6   40.61    6.65
  -5   5   6  107.85   15.87
  -3   5   6   13.15    6.32
  -1   5   6  129.65   14.20
   1   5   6  140.50   17.37
   3   5   6   12.87    6.54
   5   5   6  112.40   16.22
  -2   6   6   22.40    7.98
   0   6   6  105.31   16.24
   2   6   6   36.42   10.10
   4   6   6   31.85    9.42
   6   6   6   24.54    9.56
  -1   7   6   33.20    9.68
   1   7   6   35.59    9.96
   3   7   6   56.32   12.11
  -2   8   6   47.95   12.11
   0   8   6    2.56    6.08
  -2  -7   7    5.99    5.79
   0  -7   7   17.86    7.08
   2  -7   7    6.26    5.58
  -5  -6   7   -1.50    5.74
  -3  -6   7   26.35    8.41
  -1  -6   7   20.22    7.30
   1  -6   7   15.16    6.19
   5  -6   7    0.28    4.86
  -6  -5   7    3.76    7.75
  -4  -5   7   12.21    6.09
  -2  -5   7   59.00   10.96
   0  -5   7    2.72    3.82
   2  -5   7   58.52    9.98
   6  -5   7    5.28    5.81
  -5  -4   7   11.20    4.84
  -3  -4   7   36.81    6.03
  -1  -4   7   38.48    5.96
   1  -4   7   57.91    9.23
   3  -4   7   19.47    5.78
   5  -4   7    2.29    4.02
  -6  -3   7   28.96    8.83
  -4  -3   7   29.02    5.60
  -2  -3   7    5.97    2.85
   0  -3   7  150.06    9.65
   2  -3   7   13.12    3.49
   4  -3   7   32.16    6.90
  -5  -2   7   61.48    7.47
  -3  -2   7    6.84    3.40
  -1  -2   7  103.16    7.66
   1  -2   7   84.54    7.24
   3  -2   7   17.90    3.85
  -6  -1   7   19.19    6.29
  -4  -1   7   36.13    5.59
  -2  -1   7  112.69    8.05
   0  -1   7   41.59    5.23
   2  -1   7   84.29    7.29
   4  -1   7   58.47    6.70
   6  -1   7   14.08    7.72
  -7   0   7   34.97   10.17
  -5   0   7    2.77    2.18
  -3   0   7  138.38    9.12
  -1   0   7   39.49    5.10
   1   0   7   41.63    5.15
   3   0   7  145.03    9.58
   5   0   7    5.03    4.51
   7   0   7   31.08    9.77
  -6   1   7   15.63    6.75
  -4   1   7   59.19    6.35
  -2   1   7   85.27    6.14
   0   1   7   38.10    4.74
   2   1   7  100.74    7.36
   4   1   7   40.21    5.77
   6   1   7   19.67    7.38
  -7   2   7   -1.40    4.50
  -5   2   7   65.36   11.30
  -3   2   7   14.51    4.80
  -1   2   7   89.69   11.34
   1   2   7  106.17    6.52
   3   2   7    6.79    2.69
   5   2   7   66.18    7.66
  -6   3   7   35.19    9.65
  -4   3   7   40.15    8.81
  -2   3   7   14.73    5.26
   0   3   7  152.42   13.82
   2   3   7    9.76    4.59
   4   3   7   35.33    4.93
   6   3   7   25.87    6.61
  -5   4   7   11.51    6.44
  -3   4   7   26.18    7.26
  -1   4   7   43.67    8.34
   1   4   7   27.83    7.49
   3   4   7   40.35    9.06
   5   4   7    4.95    6.09
  -2   5   7   90.76   13.41
   0   5   7    7.02    5.05
   2   5   7   70.77   13.23
   4   5   7    9.58    6.34
  -1   6   7   14.46    7.53
   1   6   7    6.87    7.00
   3   6   7   30.43    9.60
   5   6   7    6.99    7.31
  -2   7   7    0.42    6.24
   0   7   7   20.65    8.92
   2   7   7    1.64    5.52
   1  -7   8   30.36    8.97
  -2  -6   8   35.69    9.33
   0  -6   8   27.55    8.32
   2  -6   8   33.69    9.21
  -5  -5   8   17.46    7.67
  -3  -5   8   27.13    8.67
  -1  -5   8   44.08    9.94
   1  -5   8   37.86    8.66
   3  -5   8   36.50    8.63
  -4  -4   8   47.60    7.97
  -2  -4   8   58.86    7.75
   0  -4   8   70.52   11.32
   2  -4   8   55.80    9.90
  -5  -3   8   37.18    6.44
  -3  -3   8   43.67    6.92
  -1  -3   8   87.24    8.85
   1  -3   8   53.09    6.74
   3  -3   8   37.95    7.57
  -6  -2   8   25.68    8.25
  -4  -2   8   73.58    8.62
  -2  -2   8   82.86    8.78
   0  -2   8   83.32    8.31
   2  -2   8   92.33    8.69
   4  -2   8   52.61    7.32
  -5  -1   8   37.39    5.75
  -3  -1   8   84.55    8.83
  -1  -1   8   99.40    8.14
   1  -1   8  135.40    8.94
   3  -1   8   71.15    7.92
   5  -1   8   25.48    8.94
  -6   0   8   38.55    9.94
  -4   0   8   57.42    6.11
  -2   0   8   86.04    8.63
   0   0   8   97.77    7.62
   2   0   8   96.23    9.04
   4   0   8   58.61    7.54
   6   0   8   39.05   10.52
  -7   1   8   27.29    9.65
  -3   1   8   61.89    9.76
  -1   1   8  131.87    8.57
   1   1   8   93.03    8.09
   3   1   8   72.03    7.72
   5   1   8   48.42    7.54
  -6   2   8   24.74    8.46
  -4   2   8   56.66    9.41
  -2   2   8  103.07   12.52
   0   2   8   98.10   12.25
   2   2   8   81.97    7.05
   4   2   8   70.41    7.41
   6   2   8   26.88    7.16
  -3   3   8   58.76   10.06
  -1   3   8   63.96   10.89
   1   3   8   74.49   11.24
   3   3   8   55.98    9.99
   5   3   8   33.75    5.28
  -2   4   8   45.18    9.20
   0   4   8   60.96   10.47
   2   4   8   70.05   11.67
   4   4   8   44.04   10.50
  -3   5   8   42.16   10.33
  -1   5   8   32.21    9.09
   1   5   8   44.98   10.48
   3   5   8   42.65   11.08
   5   5   8    6.96    7.57
  -2   6   8   31.58   10.47
   0   6   8   24.76    9.23
   2   6   8   21.13    9.63
  -1   7   8   13.09    9.20
   1  -6   9    8.72    6.40
  -2  -5   9    2.09    5.40
   0  -5   9   43.24   10.41
   2  -5   9    2.16    4.85
  -5  -4   9    8.74    8.20
  -3  -4   9   11.24    5.04
  -1  -4   9   17.39    5.03
   1  -4   9   26.90    7.75
   3  -4   9    7.86    4.92
  -4  -3   9   11.86    4.75
  -2  -3   9   42.09    6.93
   0  -3   9    1.08    2.58
   2  -3   9   49.31    6.85
  -5  -2   9    1.67    3.32
  -3  -2   9   42.11    7.19
  -1  -2   9   19.91    4.75
   1  -2   9   12.82    3.70
   3  -2   9   45.63    6.93
   5  -2   9    4.17    6.41
  -4  -1   9   18.71    4.68
  -2  -1   9   15.75    4.44
   0  -1   9   51.08    6.93
   2  -1   9    7.63    3.34
   4  -1   9   17.03    4.76
  -3   0   9    1.12    2.29
  -1   0   9   46.43    6.37
   1   0   9   48.52    6.65
   3   0   9    0.87    2.57
   5   0   9   40.95   10.74
  -4   1   9   26.55    7.06
  -2   1   9   16.44    5.55
   0   1   9   49.59    6.09
   2   1   9   13.84    3.86
   4   1   9   17.45    4.46
  -3   2   9   52.66    9.93
  -1   2   9   13.79    5.45
   1   2   9   12.37    5.47
   3   2   9   41.52    5.77
   5   2   9    0.67    2.63
  -2   3   9   52.31   10.39
   0   3   9   -2.56    3.16
   2   3   9   34.62    8.46
   4   3   9   14.30    6.60
  -3   4   9    9.71    5.84
  -1   4   9   29.39    7.82
   1   4   9   16.18    6.64
   3   4   9    6.23    5.77
   5   4   9    7.59   10.04
  -2   5   9    4.91    6.09
   0   5   9   45.71   10.64
   2   5   9    3.13    5.55
  -1   6   9   25.85   10.22
  -2  -4  10   16.11    5.49
   0  -4  10   21.99    5.67
   2  -4  10   26.83    7.64
  -3  -3  10    3.66    5.60
  -1  -3  10   37.04    6.85
   1  -3  10   46.71    7.28
   3  -3  10    6.49    4.00
  -4  -2  10   18.26    7.39
  -2  -2  10   12.13    4.39
   0  -2  10   77.41    9.08
   2  -2  10   11.53    4.12
   4  -2  10   38.19   11.82
  -3  -1  10   48.22    7.21
  -1  -1  10   40.00    6.71
   1  -1  10   26.87    5.63
   3  -1  10   37.33    6.44
  -4   0  10   15.45    7.02
  -2   0  10   76.92    8.30
   0   0  10    5.42    3.27
   2   0  10   56.90    7.65
   4   0  10    9.63    4.31
  -3   1  10   41.29    9.21
  -1   1  10   26.10    7.50
   1   1  10   33.24    5.42
   3   1  10   40.50    6.71
  -2   2  10    9.83    5.51
   0   2  10   70.28   11.83
   2   2  10   12.37    6.17
   4   2  10   16.81    6.86
  -3   3  10   -0.18    5.15
  -1   3  10   40.20    9.88
   1   3  10   45.16   10.15
   3   3  10    6.59    5.29
  -2   4  10   16.37    7.38
   0   4  10   20.57    7.32
   2   4  10   12.66    7.40
  -1  -2  11    4.10    5.11
   1  -2  11    9.02    5.95
  -2  -1  11   10.38    6.54
   0  -1  11   10.00    4.58
   2  -1  11   13.42    6.18
  -3   0  11   12.86    6.93
  -1   0  11    8.11    4.29
   1   0  11    9.76    4.04
   3   0  11    0.20    4.70
  -2   1  11   14.21    7.14
   0   1  11    8.70    5.68
   2   1  11   11.39    6.01
  -3   2  11    5.33    9.11
  -1   2  11   11.54    6.35
   1   2  11    6.14    5.97
   0   0   0    0.00    0.00
;
_shelx_hkl_checksum              30925
_shelx_res_file
;
TITL Li2PbSiS4 in I-42m
    Li2PbSiS4.res
    created by SHELXL-2018/3 at 19:31:51 on 01-Jun-2020
CELL 0.71073   6.46180   6.46180   7.73330  90.0000  90.0000  90.0000
ZERR    2.00   0.00010   0.00010   0.00020   0.0000   0.0000   0.0000
LATT -2
SYMM -X, -Y, Z
SYMM Y, -X, -Z
SYMM -Y, X, -Z
SYMM -X, Y, -Z
SYMM X, -Y, -Z
SYMM -Y, -X, Z
SYMM Y, X, Z
SFAC LI SI S PB
UNIT 4 2 8 2
LIST 6 ! automatically inserted. Change 6 to 4 for CHECKCIF!!
TEMP 23
SIZE 0.022 0.055 0.059
L.S. 4
ACTA
BOND
CONN 8 2.0 $PB
FMAP 2
SHEL 999 0.74
PLAN 20
TWIN
WGHT    0.000000
BASF   0.06169
FVAR       0.16681
LI    1    0.000000    0.500000    0.250000    10.25000    0.01580    0.01580 =
         0.03903    0.00000    0.00000    0.00000
PB    4    0.000000    0.000000    0.500000    10.12500    0.02467    0.02467 =
         0.02899    0.00000    0.00000    0.00000
SI    2    0.000000    0.000000    0.000000    10.12500    0.00859    0.00859 =
         0.01214    0.00000    0.00000    0.00000
S     3    0.190907    0.190907    0.156941    10.50000    0.01257    0.01257 =
         0.01672   -0.00181   -0.00181   -0.00300
HKLF 4
REM  Li2PbSiS4 in I-42m
REM wR2 = 0.0278, GooF = S = 1.011, Restrained GooF = 1.011 for all data
REM R1 = 0.0155 for 235 Fo > 4sig(Fo) and 0.0157 for all 236 data
REM 14 parameters refined using 0 restraints
END
WGHT      0.0000      0.0000
REM Highest difference peak  0.436,  deepest hole -0.457,  1-sigma level  0.114
Q1    1   0.0000  0.0000  0.3260  10.25000  0.05    0.44
Q2    1   0.0026  0.0567  0.4661  11.00000  0.05    0.40
Q3    1   0.2525  0.1358 -0.0031  11.00000  0.05    0.40
Q4    1   0.1245  0.1245  0.2694  10.50000  0.05    0.35
Q5    1   0.1036  0.1036  0.6059  10.50000  0.05    0.32
Q6    1   0.1117  0.1117 -0.1204  10.50000  0.05    0.32
Q7    1   0.0014  0.2602  0.0425  11.00000  0.05    0.30
Q8    1   0.1083  0.1083  0.1211  10.50000  0.05    0.29
Q9    1   0.1059  0.0016  0.2226  11.00000  0.05    0.28
Q10   1   0.1086  0.1086  0.3914  10.50000  0.05    0.27
Q11   1   0.0002  0.6228  0.2979  11.00000  0.05    0.27
Q12   1   0.3791  0.3791  0.2420  10.50000  0.05    0.27
Q13   1   0.0000  0.0000 -0.1343  10.25000  0.05    0.26
Q14   1  -0.1964  0.6339  0.4030  11.00000  0.05    0.25
Q15   1   0.0440  0.1497  0.0711  11.00000  0.05    0.25
Q16   1   0.2357  0.0588  0.1846  11.00000  0.05    0.24
Q17   1   0.2020  0.6576  0.0849  11.00000  0.05    0.23
Q18   1   0.0773  0.3042  0.1786  11.00000  0.05    0.22
Q19   1   0.0714  0.1469  0.1350  11.00000  0.05    0.22
Q20   1   0.0238  0.1891  0.1629  11.00000  0.05    0.21
;
_shelx_res_checksum              90975
loop_
_space_group_symop_operation_xyz
'x, y, z'
'-x, -y, z'
'y, -x, -z'
'-y, x, -z'
'-x, y, -z'
'x, -y, -z'
'-y, -x, z'
'y, x, z'
'x+1/2, y+1/2, z+1/2'
'-x+1/2, -y+1/2, z+1/2'
'y+1/2, -x+1/2, -z+1/2'
'-y+1/2, x+1/2, -z+1/2'
'-x+1/2, y+1/2, -z+1/2'
'x+1/2, -y+1/2, -z+1/2'
'-y+1/2, -x+1/2, z+1/2'
'y+1/2, x+1/2, z+1/2'
loop_
_atom_site_type_symbol
_atom_site_label
_atom_site_fract_x
_atom_site_fract_y
_atom_site_fract_z
_atom_site_U_iso_or_equiv
_atom_site_adp_type
_atom_site_calc_flag
_atom_site_occupancy
_atom_site_disorder_assembly
_atom_site_disorder_group
Li Li 0.000000 0.500000 0.250000 0.024(3) Uani d 1 . .
Pb Pb 0.000000 0.000000 0.500000 0.02611(17) Uani d 1 . .
Si Si 0.000000 0.000000 0.000000 0.0098(6) Uani d 1 . .
S S 0.19091(19) 0.19091(19) 0.1569(2) 0.0140(4) Uani d 1 . .
loop_
_atom_site_aniso_label
_atom_site_aniso_U_11
_atom_site_aniso_U_22
_atom_site_aniso_U_33
_atom_site_aniso_U_12
_atom_site_aniso_U_13
_atom_site_aniso_U_23
Li 0.016(4) 0.016(4) 0.039(8) 0.000 0.000 0.000
Pb 0.0247(2) 0.0247(2) 0.0290(3) 0.000 0.000 0.000
Si 0.0086(8) 0.0086(8) 0.0121(13) 0.000 0.000 0.000
S 0.0126(5) 0.0126(5) 0.0167(9) -0.0030(7) -0.0018(5) -0.0018(5)
loop_
_atom_type_symbol
_atom_type_description
_atom_type_scat_dispersion_real
_atom_type_scat_dispersion_imag
_atom_type_scat_source
Li Li -0.0003 0.0001 'International Tables Vol C Tables 4.2.6.8 and 6.1.1.4'
Si Si 0.0817 0.0704 'International Tables Vol C Tables 4.2.6.8 and 6.1.1.4'
S S 0.1246 0.1234 'International Tables Vol C Tables 4.2.6.8 and 6.1.1.4'
Pb Pb -3.3944 10.1111 'International Tables Vol C Tables 4.2.6.8 and 6.1.1.4'
loop_
_geom_angle_atom_site_label_1
_geom_angle_atom_site_label_2
_geom_angle_atom_site_label_3
_geom_angle_site_symmetry_1
_geom_angle_site_symmetry_3
_geom_angle
_geom_angle_publ_flag
S Li S 12 11_455 145.91(8) ?
S Li S 12 2_565 94.93(2) ?
S Li S 11_455 2_565 94.93(2) ?
S Li S 12 . 94.93(2) ?
S Li S 11_455 . 94.93(2) ?
S Li S 2_565 . 145.91(8) ?
S Li Pb 12 9_454 148.05(4) ?
S Li Pb 11_455 9_454 56.80(4) ?
S Li Pb 2_565 9_454 54.44(4) ?
S Li Pb . 9_454 106.30(4) ?
S Li Pb 12 1_565 54.44(4) ?
S Li Pb 11_455 1_565 106.30(4) ?
S Li Pb 2_565 1_565 56.80(4) ?
S Li Pb . 1_565 148.05(4) ?
Pb Li Pb 9_454 1_565 105.2870(10) ?
S Li Pb 12 . 106.30(4) ?
S Li Pb 11_455 . 54.44(4) ?
S Li Pb 2_565 . 148.05(4) ?
S Li Pb . . 56.80(4) ?
Pb Li Pb 9_454 . 105.2870(10) ?
Pb Li Pb 1_565 . 118.209(2) ?
S Li Pb 12 9_554 56.80(4) ?
S Li Pb 11_455 9_554 148.05(4) ?
S Li Pb 2_565 9_554 106.30(4) ?
S Li Pb . 9_554 54.44(4) ?
Pb Li Pb 9_454 9_554 118.2090(10) ?
Pb Li Pb 1_565 9_554 105.2870(10) ?
Pb Li Pb . 9_554 105.2870(10) ?
S Pb S 10 9_445 133.49(6) ?
S Pb S 10 12_545 98.97(2) ?
S Pb S 9_445 12_545 98.97(2) ?
S Pb S 10 11_455 98.97(2) ?
S Pb S 9_445 11_455 98.97(2) ?
S Pb S 12_545 11_455 133.49(6) ?
S Pb S 10 2 146.58(6) ?
S Pb S 9_445 2 79.923(19) ?
S Pb S 12_545 2 70.74(2) ?
S Pb S 11_455 2 70.74(2) ?
S Pb S 10 4_556 70.74(2) ?
S Pb S 9_445 4_556 70.74(2) ?
S Pb S 12_545 4_556 146.58(6) ?
S Pb S 11_455 4_556 79.924(19) ?
S Pb S 2 4_556 134.28(4) ?
S Pb S 10 3_556 70.74(2) ?
S Pb S 9_445 3_556 70.74(2) ?
S Pb S 12_545 3_556 79.924(19) ?
S Pb S 11_455 3_556 146.58(6) ?
S Pb S 2 3_556 134.28(4) ?
S Pb S 4_556 3_556 66.66(6) ?
S Pb S 10 . 79.924(19) ?
S Pb S 9_445 . 146.58(6) ?
S Pb S 12_545 . 70.74(2) ?
S Pb S 11_455 . 70.74(2) ?
S Pb S 2 . 66.66(6) ?
S Pb S 4_556 . 134.28(4) ?
S Pb S 3_556 . 134.28(4) ?
S Si S . 4 109.03(5) ?
S Si S . 3 109.03(5) ?
S Si S 4 3 110.35(9) ?
S Si S . 2 110.35(9) ?
S Si S 4 2 109.03(5) ?
S Si S 3 2 109.03(5) ?
Si S Li . 13_545 110.36(4) ?
Si S Li . . 110.36(4) ?
Li S Li 13_545 . 137.01(7) ?
Si S Pb . 9_554 121.92(7) ?
Li S Pb 13_545 9_554 85.05(4) ?
Li S Pb . 9_554 85.05(4) ?
Si S Pb . . 91.50(6) ?
Li S Pb 13_545 . 82.87(4) ?
Li S Pb . . 82.87(4) ?
Pb S Pb 9_554 . 146.58(6) ?
loop_
_geom_bond_atom_site_label_1
_geom_bond_atom_site_label_2
_geom_bond_site_symmetry_2
_geom_bond_distance
_geom_bond_publ_flag
Li S 12 2.4554(6) yes
Li S 11_455 2.4554(6) yes
Li S 2_565 2.4554(6) yes
Li S . 2.4554(6) yes
Li Pb 9_454 3.76516(5) no
Li Pb 1_565 3.76516(5) no
Li Pb . 3.76516(5) no
Li Pb 9_554 3.76516(5) no
Pb S 10 3.0743(18) yes
Pb S 9_445 3.0743(18) yes
Pb S 12_545 3.0743(18) yes
Pb S 11_455 3.0743(18) yes
Pb S 2 3.1752(17) yes
Pb S 4_556 3.1752(17) yes
Pb S 3_556 3.1752(17) yes
Pb S . 3.1752(17) yes
Si S . 2.1252(17) yes
Si S 4 2.1253(17) yes
Si S 3 2.1253(17) yes
Si S 2 2.1253(17) yes
