#------------------------------------------------------------------------------
#$Date: 2022-09-27 01:45:58 +0300 (Tue, 27 Sep 2022) $
#$Revision: 278197 $
#$URL: file:///home/coder/svn-repositories/cod/cif/2/10/08/2100897.cif $
#------------------------------------------------------------------------------
#
# This file is available in the Crystallography Open Database (COD),
# http://www.crystallography.net/. The original data for this entry
# were provided by IUCr Journals, http://journals.iucr.org/.
#
# The file may be used within the scientific community so long as
# proper attribution is given to the journal article from which the
# data were obtained.
#
data_2100897
loop_
_publ_author_name
'Makarova, I. P.'
_publ_section_title
;
 Thermal vibrations of atoms and phase transition in RbHSeO~4~ and
 NH~4~HSeO~4~ single crystals
;
_journal_issue                   1
_journal_name_full               'Acta Crystallographica Section B'
_journal_page_first              11
_journal_page_last               18
_journal_paper_doi               10.1107/S010876819200613X
_journal_volume                  49
_journal_year                    1993
_chemical_formula_sum            'H O4 Rb Se'
_chemical_formula_weight         229
_space_group_crystal_system      monoclinic
_space_group_IT_number           5
_space_group_name_Hall           'B 2'
_space_group_name_H-M_alt        'B 1 1 2'
_symmetry_space_group_name_Hall  'B 2'
_symmetry_space_group_name_H-M   'B 1 1 2'
_cell_angle_alpha                90
_cell_angle_beta                 90
_cell_angle_gamma                102.76(3)
_cell_formula_units_Z            6
_cell_length_a                   19.962(9)
_cell_length_b                   4.634(2)
_cell_length_c                   7.611(3)
_cell_volume                     686.7(5)
_diffrn_radiation_probe          neutron
_diffrn_radiation_type           Neutron
_diffrn_radiation_wavelength     1.1674
_exptl_crystal_F_000             624
_cod_data_source_file            sh0005.cif
_cod_data_source_block           sh0005a
_cod_original_cell_volume        686.7(4)
_cod_original_formula_sum        'H1 O4 Rb1 Se1'
_cod_database_code               2100897
loop_
_space_group_symop_id
_space_group_symop_operation_xyz
1 x,y,z
2 -x,-y,z
3 x+1/2,y,z+1/2
4 -x+1/2,-y,z+1/2
loop_
_atom_site_label
_atom_site_fract_x
_atom_site_fract_y
_atom_site_fract_z
Rb(1) .0 .0 .4876(6)
Rb(2) .16552(9) .5827(5) .0862(5)
Se(1) .0 .0 .0
Se(2) .16745(8) .6983(3) .5768(4)
O(1) .02940(10) .2846(6) .8654(5)
O(2) .06320(10) .9450(7) .1163(5)
O(3) .19380(10) .4706(6) .7100(5)
O(4) .2299(2) .9000(7) .4705(6)
O(5) .1324(2) .9194(6) .7138(6)
O(6) .1046(2) .5350(8) .4544(6)
H(12) .0025(9) .447(2) .8740(10)
H(11) .0 .5 .8740(10)
H(2) .1581(3) .1330(10) .7078(9)
loop_
_geom_angle_atom_site_label_1
_geom_angle_atom_site_label_2
_geom_angle_atom_site_label_3
_geom_angle
O(1) H(1) O(1'') 171.0(10)
O(3') H(2) O(5) 175.3(5)
O(1) Se(1) O(1') 104.4(3)
O(1) Se(1) O(2) 108.2(2)
O(2) Se(1) O(2') 113.2(3)
O(1) Se(1) O(2') 111.30(10)
O(3) Se(2) O(4) 111.7(2)
O(3) Se(2) O(5) 104.0(2)
O(3) Se(2) O(6) 112.6(2)
O(4) Se(2) O(5) 109.0(2)
O(4) Se(2) O(6) 114.0(2)
O(5) Se(2) O(6) 104.7(2)
loop_
_geom_bond_atom_site_label_1
_geom_bond_atom_site_label_2
_geom_bond_distance
O(1) H(1) 1.020(10)
O(5) H(2) 1.010(5)
Se(2) O(3) 1.632(3)
Se(2) O(4) 1.603(3)
Se(2) O(5) 1.716(3)
Se(2) O(6) 1.611(3)
