#------------------------------------------------------------------------------
#$Date: 2016-02-14 16:26:36 +0200 (Sun, 14 Feb 2016) $
#$Revision: 176435 $
#$URL: svn://www.crystallography.net/cod/cif/2/10/11/2101140.cif $
#------------------------------------------------------------------------------
#
# This file is available in the Crystallography Open Database (COD),
# http://www.crystallography.net/. The original data for this entry
# were provided by IUCr Journals, http://journals.iucr.org/.
#
# The file may be used within the scientific community so long as
# proper attribution is given to the journal article from which the
# data were obtained.
#
data_2101140
loop_
_publ_author_name
'Kellersohn, T.'
'Delaplane, R. G.'
'Olovsson, I.'
_publ_section_title
;
 The synergetic effect in beryllium sulfate tetrahydrate -- an
 experimental electron-density study
;
_journal_issue                   3
_journal_name_full               'Acta Crystallographica Section B'
_journal_page_first              316
_journal_page_last               326
_journal_paper_doi               10.1107/S010876819400039X
_journal_volume                  50
_journal_year                    1994
_chemical_formula_moiety         'Be O4 S1,H8 O4'
_chemical_formula_sum            'Be H8 O8 S'
_chemical_formula_weight         177.14
_symmetry_cell_setting           tetragonal
_symmetry_space_group_name_Hall  'I -4 -2c'
_symmetry_space_group_name_H-M   'I -4 c 2'
_cell_angle_alpha                90.
_cell_angle_beta                 90.
_cell_angle_gamma                90.
_cell_formula_units_Z            4
_cell_length_a                   7.9922(9)
_cell_length_b                   7.9922(9)
_cell_length_c                   10.702(2)
_cell_volume                     683.59(17)
_diffrn_radiation_probe          neutron
_diffrn_radiation_type           neutron
_diffrn_radiation_wavelength     1.037
_exptl_absorpt_coefficient_mu    0.171
_exptl_crystal_density_diffrn    1.721
_exptl_crystal_F_000             108.6
_cod_data_source_file            ab0310.cif
_cod_data_source_block           ab0310c
_cod_original_cell_volume        683.60(10)
_cod_original_formula_sum        'Be1 H8 O8 S1'
_cod_database_code               2101140
loop_
_atom_site_label
_atom_site_fract_x
_atom_site_fract_y
_atom_site_fract_z
Be .0 .5 .25
S .0 .0 .0
O1 .1259(3) .0847(3) .0773(2)
O2 .1368(3) .3963(3) .1718(2)
H1 .2305(5) .4585(5) .1317(4)
H2 .1259(5) .2848(5) .1367(4)
loop_
_geom_angle_atom_site_label_1
_geom_angle_atom_site_label_2
_geom_angle_atom_site_label_3
_geom_angle
O2 Be O2 117.20(16)
O2 Be O2 105.75(7)
O1 S O1 111.4(2)
O1 S O1 108.54(9)
H1 O2 H2 111.0(4)
O2 H1 O1 171.5(4)
O2 H2 O1 174.7(4)
loop_
_geom_bond_atom_site_label_1
_geom_bond_atom_site_label_2
_geom_bond_distance
Be O2 1.607(2)
S O1 1.468(2)
O2 H1 0.996(4)
O2 H2 0.971(4)
H1 O1 1.635(4)
H2 O1 1.721(4)
