#------------------------------------------------------------------------------
#$Date: 2016-02-14 16:26:36 +0200 (Sun, 14 Feb 2016) $
#$Revision: 176435 $
#$URL: svn://www.crystallography.net/cod/cif/2/10/15/2101590.cif $
#------------------------------------------------------------------------------
#
# This file is available in the Crystallography Open Database (COD),
# http://www.crystallography.net/. The original data for this entry
# were provided by IUCr Journals, http://journals.iucr.org/.
#
# The file may be used within the scientific community so long as
# proper attribution is given to the journal article from which the
# data were obtained.
#
data_2101590
loop_
_publ_author_name
'Abrahams, S. C.'
_publ_section_title
;
 New ferroelectric inorganic materials predicted in point group
 4<i>mm</i>
;
_journal_issue                   5
_journal_name_full               'Acta Crystallographica Section B'
_journal_page_first              790
_journal_page_last               805
_journal_paper_doi               10.1107/S0108768196004594
_journal_volume                  52
_journal_year                    1996
_chemical_formula_sum            'H3 Na O3 Zn'
_symmetry_cell_setting           tetragonal
_symmetry_space_group_name_Hall  'P 4c -2ab'
_symmetry_space_group_name_H-M   'P 42 b c'
_cell_angle_alpha                90.0
_cell_angle_beta                 90.0
_cell_angle_gamma                90.0
_cell_length_a                   10.839(6)
_cell_length_b                   10.839(6)
_cell_length_c                   5.308(4)
_cell_volume                     623.6(7)
_diffrn_radiation_type           MoK\a
_diffrn_radiation_wavelength     0.71069
_cod_data_source_file            an0527.cif
_cod_data_source_block           AN0527p
_cod_original_formula_sum        'H3 Na1 O3 Zn1'
_cod_database_code               2101590
loop_
_atom_site_label
_atom_site_fract_x
_atom_site_fract_y
_atom_site_fract_z
Na .3801(5) .4073(5) .997(2)
Zn .05670(10) .30710(10) .0293
O1 .6700(10) .0680(10) .903(2)
O2 .097(9) .1320(10) .965(2)
O3 .8800(10) .3150(10) .962(2)
H1 .602(8) .015(8) .870(9)
H2 .161(8) .145(8) .968(9)
H3 .863(8) .319(8) .776(9)
