#------------------------------------------------------------------------------
#$Date: 2016-02-14 06:40:26 +0200 (Sun, 14 Feb 2016) $
#$Revision: 176432 $
#$URL: svn://www.crystallography.net/cod/cif/2/10/22/2102291.cif $
#------------------------------------------------------------------------------
#
# This file is available in the Crystallography Open Database (COD),
# http://www.crystallography.net/. The original data for this entry
# were provided by IUCr Journals, http://journals.iucr.org/.
#
# The file may be used within the scientific community so long as
# proper attribution is given to the journal article from which the
# data were obtained.
#
data_2102291
loop_
_publ_author_name
'Angel, R. J.'
'Bismayer, U.'
'Marshall, W. G.'
_publ_section_title
;
 Local and long-range order in ferroelastic lead phosphate at high
 pressure
;
_journal_issue                   1
_journal_name_full               'Acta Crystallographica Section B'
_journal_page_first              1
_journal_page_last               9
_journal_paper_doi               10.1107/S0108768103026582
_journal_volume                  60
_journal_year                    2004
_chemical_formula_analytical     'Pb2.952 Ba0.048 P2 O8'
_chemical_formula_structural     '(Pb0.984 Ba0.016)3 (PO4)2'
_chemical_formula_sum            'O8 P2 Pb3'
_chemical_formula_weight         811.54
_chemical_name_common            'Ba-doped lead phosphate'
_chemical_name_systematic        ' ?'
_space_group_IT_number           166
_symmetry_cell_setting           trigonal
_symmetry_space_group_name_Hall  '-R 3 2"'
_symmetry_space_group_name_H-M   'R -3 m :H'
_cell_angle_alpha                90.0
_cell_angle_beta                 90.0
_cell_angle_gamma                120.0
_cell_formula_units_Z            3
_cell_length_a                   5.4415(3)
_cell_length_b                   5.44152
_cell_length_c                   20.0312(14)
_cell_measurement_pressure       2240000.
_cell_measurement_temperature    298
_cell_volume                     513.66(5)
_cod_data_source_file            ws5002.cif
_cod_data_source_block           S4P29_phase_1
_cod_depositor_comments
;
The following automatic conversions were performed:
'_geom_bond_publ_flag' value 'N' changed to 'n' according to
'/home/saulius/struct/CIF-dictionaries/cif_core.dic' dictionary named
'cif_core.dic' version 2.4.1 from 2010-06-29 (362
times).

'_geom_angle_publ_flag' value 'N' changed to 'n' according to
'/home/saulius/struct/CIF-dictionaries/cif_core.dic' dictionary named
'cif_core.dic' version 2.4.1 from 2010-06-29 (50 times).

Automatic conversion script
Id: cif_fix_enum 1527 2010-12-29 10:47:43Z saulius 

The following automatic conversions were performed:

'_geom_bond_publ_flag' value 'N' changed to 'n' according to
/home/saulius/struct/CIF-dictionaries/cif_core.dic dictionary named
'cif_core.dic' version 2.4.1 from 2010-06-29 (362
times).

'_geom_angle_publ_flag' value 'N' changed to 'n' according
to /home/saulius/struct/CIF-dictionaries/cif_core.dic dictionary
named 'cif_core.dic' version 2.4.1 from 2010-06-29 (50 times).

Automatic conversion script
Id: cif_fix_values 1715 2011-07-08 13:25:40Z adriana 
;
_cod_original_sg_symbol_Hall     -R32''-P3*2
_cod_original_sg_symbol_H-M      'R -3 m'
_cod_original_formula_sum        'O8.00 P2 Pb3.00'
_cod_database_code               2102291
loop_
_symmetry_equiv_pos_site_id
_symmetry_equiv_pos_as_xyz
1 +x,+y,+z
2 -y,x-y,+z
3 y-x,-x,+z
4 y-x,+y,+z
5 -y,-x,+z
6 +x,x-y,+z
-1 -x,-y,-z
-2 +y,y-x,-z
-3 x-y,+x,-z
-4 x-y,-y,-z
-5 +y,+x,-z
-6 -x,y-x,-z
101 +x+1/3,+y+2/3,+z+2/3
102 -y+1/3,x-y+2/3,+z+2/3
103 y-x+1/3,-x+2/3,+z+2/3
104 y-x+1/3,+y+2/3,+z+2/3
105 -y+1/3,-x+2/3,+z+2/3
106 +x+1/3,x-y+2/3,+z+2/3
-101 -x+2/3,-y+1/3,-z+1/3
-102 +y+2/3,y-x+1/3,-z+1/3
-103 x-y+2/3,+x+1/3,-z+1/3
-104 x-y+2/3,-y+1/3,-z+1/3
-105 +y+2/3,+x+1/3,-z+1/3
-106 -x+2/3,y-x+1/3,-z+1/3
201 +x+2/3,+y+1/3,+z+1/3
202 -y+2/3,x-y+1/3,+z+1/3
203 y-x+2/3,-x+1/3,+z+1/3
204 y-x+2/3,+y+1/3,+z+1/3
205 -y+2/3,-x+1/3,+z+1/3
206 +x+2/3,x-y+1/3,+z+1/3
-201 -x+1/3,-y+2/3,-z+2/3
-202 +y+1/3,y-x+2/3,-z+2/3
-203 x-y+1/3,+x+2/3,-z+2/3
-204 x-y+1/3,-y+2/3,-z+2/3
-205 +y+1/3,+x+2/3,-z+2/3
-206 -x+1/3,y-x+2/3,-z+2/3
loop_
_atom_site_label
_atom_site_fract_x
_atom_site_fract_y
_atom_site_fract_z
_atom_site_U_iso_or_equiv
_atom_site_thermal_displace_type
_atom_site_occupancy
_atom_site_type_symbol
PB1 0.0 0.0 0.0 0.0222(18) Uiso 1.0 PB
PB2 0.0 0.034(3) 0.21016(19) 0.0222(18) Uiso 0.16667 PB
P 0.0 0.0 0.4039(3) 0.0094(15) Uiso 1.0 P
O1 0.016(2) -0.016(2) 0.3284(3) 0.0166(13) Uiso 0.3333 O
O2 -0.149(2) 0.158(2) 0.42964(17) 0.0166(13) Uiso 0.5 O
loop_
_atom_type_symbol
Pb
P
O
loop_
_geom_angle_atom_site_label_1
_geom_angle_atom_site_label_2
_geom_angle_atom_site_label_3
_geom_angle_site_symmetry_1
_geom_angle_site_symmetry_3
_geom_angle
_geom_angle_publ_flag
PB2 PB2 PB2 2_555 3_555 60.0000(2) n
PB2 PB2 PB2 2_555 4_555 90.0000(11) n
PB2 PB2 PB2 2_555 5_555 30.0000(4) n
PB2 PB2 PB2 2_555 6_555 30.00000(10) n
PB2 PB2 PB2 3_555 4_555 30.0000(5) n
PB2 PB2 PB2 3_555 5_555 90.0000(11) n
PB2 PB2 PB2 3_555 6_555 30.00000(10) n
PB2 PB2 PB2 4_555 5_555 120.0 n
PB2 PB2 PB2 4_555 6_555 60.0 n
PB2 PB2 PB2 5_555 6_555 60.0 n
O1 P O1 1_555 2_555 9.6(12) n
O1 P O1 1_555 3_555 9.6(12) n
O1 P O2 1_555 1_555 115.1(7) n
O1 P O2 1_555 2_555 106.8(4) n
O1 P O2 1_555 3_555 106.7(4) n
O1 P O2 1_555 4_555 106.8(4) n
O1 P O2 1_555 5_555 115.1(7) n
O1 P O2 1_555 6_555 106.7(4) n
O1 P O1 2_555 3_555 9.6(12) n
O1 P O2 2_555 1_555 106.7(4) n
O1 P O2 2_555 2_555 115.1(7) n
O1 P O2 2_555 3_555 106.8(4) n
O1 P O2 2_555 4_555 106.7(4) n
O1 P O2 2_555 5_555 106.8(4) n
O1 P O2 2_555 6_555 115.1(7) n
O1 P O2 3_555 1_555 106.8(4) n
O1 P O2 3_555 2_555 106.7(4) n
O1 P O2 3_555 3_555 115.1(7) n
O1 P O2 3_555 4_555 115.1(7) n
O1 P O2 3_555 5_555 106.7(4) n
O1 P O2 3_555 6_555 106.8(4) n
O2 P O2 1_555 2_555 109.3(2) n
O2 P O2 1_555 3_555 109.3(2) n
O2 P O2 1_555 4_555 107.7(8) n
O2 P O2 1_555 5_555 1.8(8) n
O2 P O2 1_555 6_555 110.9(8) n
O2 P O2 2_555 3_555 109.3(2) n
O2 P O2 2_555 4_555 110.9(8) n
O2 P O2 2_555 5_555 107.7(8) n
O2 P O2 2_555 6_555 1.8(8) n
O2 P O2 3_555 4_555 1.8(8) n
O2 P O2 3_555 5_555 110.9(8) n
O2 P O2 3_555 6_555 107.7(8) n
O2 P O2 4_555 5_555 109.3(2) n
O2 P O2 4_555 6_555 109.3(2) n
O2 P O2 5_555 6_555 109.3(2) n
P O1 O1 1_555 2_555 85.2(6) n
P O1 O1 1_555 3_555 85.2(6) n
O1 O1 O1 2_555 3_555 60.0 n
P O2 O2 1_555 5_555 89.1(4) n
loop_
_geom_bond_atom_site_label_1
_geom_bond_atom_site_label_2
_geom_bond_site_symmetry_2
_geom_bond_distance
_geom_bond_publ_flag
PB1 PB2 1_555 4.214(4) n
PB1 PB2 2_555 4.214(4) n
PB1 PB2 3_555 4.214(4) n
PB1 PB2 4_555 4.214(4) n
PB1 PB2 5_555 4.214(4) n
PB1 PB2 6_555 4.214(4) n
PB1 PB2 -1_555 4.214(4) n
PB1 PB2 -2_555 4.214(4) n
PB1 PB2 -3_555 4.214(4) n
PB1 PB2 -4_555 4.214(4) n
PB1 PB2 -5_555 4.214(4) n
PB1 PB2 -6_555 4.214(4) n
PB1 PB2 101_444 3.999(2) n
PB1 PB2 101_544 3.871(10) n
PB1 PB2 101_554 4.122(11) n
PB1 PB2 102_444 4.122(11) n
PB1 PB2 102_544 3.999(2) n
PB1 PB2 102_554 3.871(10) n
PB1 PB2 103_444 3.871(10) n
PB1 PB2 103_544 4.122(11) n
PB1 PB2 103_554 3.999(2) n
PB1 PB2 104_444 3.871(10) n
PB1 PB2 104_544 3.999(2) n
PB1 PB2 104_554 4.122(11) n
PB1 PB2 105_444 4.122(11) n
PB1 PB2 105_544 3.871(10) n
PB1 PB2 105_554 3.999(2) n
PB1 PB2 106_444 3.999(2) n
PB1 PB2 106_544 4.122(11) n
PB1 PB2 106_554 3.871(10) n
PB1 PB2 -201_445 4.122(11) n
PB1 PB2 -201_455 3.871(10) n
PB1 PB2 -201_555 3.999(2) n
PB1 PB2 -202_445 3.871(10) n
PB1 PB2 -202_455 3.999(2) n
PB1 PB2 -202_555 4.122(11) n
PB1 PB2 -203_445 3.999(2) n
PB1 PB2 -203_455 4.122(11) n
PB1 PB2 -203_555 3.871(10) n
PB1 PB2 -204_445 4.122(11) n
PB1 PB2 -204_455 3.999(2) n
PB1 PB2 -204_555 3.871(10) n
PB1 PB2 -205_445 3.999(2) n
PB1 PB2 -205_455 3.871(10) n
PB1 PB2 -205_555 4.122(11) n
PB1 PB2 -206_445 3.871(10) n
PB1 PB2 -206_455 4.122(11) n
PB1 PB2 -206_555 3.999(2) n
PB1 P 101_444 3.445(2) n
PB1 P 101_544 3.445(2) n
PB1 P 101_554 3.445(2) n
PB1 P -201_445 3.445(2) n
PB1 P -201_455 3.445(2) n
PB1 P -201_555 3.445(2) n
PB1 O1 101_444 3.073(9) n
PB1 O1 101_544 3.290(18) n
PB1 O1 101_554 3.073(9) n
PB1 O1 102_444 3.073(9) n
PB1 O1 102_544 3.073(9) n
PB1 O1 102_554 3.290(18) n
PB1 O1 103_444 3.290(18) n
PB1 O1 103_544 3.073(9) n
PB1 O1 103_554 3.073(9) n
PB1 O1 -201_445 3.073(9) n
PB1 O1 -201_455 3.290(18) n
PB1 O1 -201_555 3.073(9) n
PB1 O1 -202_445 3.290(18) n
PB1 O1 -202_455 3.073(9) n
PB1 O1 -202_555 3.073(9) n
PB1 O1 -203_445 3.073(9) n
PB1 O1 -203_455 3.073(9) n
PB1 O1 -203_555 3.290(18) n
PB1 O2 101_544 2.567(4) n
PB1 O2 102_554 2.567(4) n
PB1 O2 103_444 2.567(4) n
PB1 O2 104_444 2.567(4) n
PB1 O2 105_544 2.567(4) n
PB1 O2 106_554 2.567(4) n
PB1 O2 -201_455 2.567(4) n
PB1 O2 -202_445 2.567(4) n
PB1 O2 -203_555 2.567(4) n
PB1 O2 -204_555 2.567(4) n
PB1 O2 -205_455 2.567(4) n
PB1 O2 -206_445 2.567(4) n
PB2 PB1 1_555 4.214(4) n
PB2 PB1 201_445 4.122(11) n
PB2 PB1 201_455 3.871(10) n
PB2 PB1 201_555 3.999(2) n
PB2 PB2 2_555 0.32(3) n
PB2 PB2 3_555 0.32(3) n
PB2 PB2 4_555 0.184(15) n
PB2 PB2 5_555 0.184(15) n
PB2 PB2 6_555 0.37(3) n
PB2 PB2 -201_445 3.88(3) n
PB2 PB2 -201_455 3.32(2) n
PB2 PB2 -201_555 3.611(5) n
PB2 PB2 -202_445 3.597(4) n
PB2 PB2 -202_455 3.455(12) n
PB2 PB2 -202_555 3.734(13) n
PB2 PB2 -203_445 3.734(13) n
PB2 PB2 -203_455 3.597(4) n
PB2 PB2 -203_555 3.455(12) n
PB2 PB2 -204_445 3.88(2) n
PB2 PB2 -204_455 3.465(10) n
PB2 PB2 -204_555 3.465(10) n
PB2 PB2 -205_445 3.743(14) n
PB2 PB2 -205_455 3.32(2) n
PB2 PB2 -205_555 3.743(14) n
PB2 PB2 -206_445 3.593(4) n
PB2 PB2 -206_455 3.593(4) n
PB2 PB2 -206_555 3.593(4) n
PB2 P 1_555 3.885(8) n
PB2 P 101_444 4.210(5) n
PB2 P 101_544 4.328(11) n
PB2 P 101_554 4.089(11) n
PB2 P -101_445 3.3189(19) n
PB2 P -101_545 3.467(13) n
PB2 P -101_555 3.164(13) n
PB2 O1 1_555 2.389(7) n
PB2 O1 2_555 2.369(7) n
PB2 O1 3_555 2.379(7) n
PB2 O1 -101_445 4.114(8) n
PB2 O1 -101_545 4.068(17) n
PB2 O1 -101_555 3.991(12) n
PB2 O1 -102_445 4.126(10) n
PB2 O1 -102_545 4.246(15) n
PB2 O1 -102_555 3.826(18) n
PB2 O1 -103_445 3.949(14) n
PB2 O1 -103_545 4.240(14) n
PB2 O1 -103_555 3.996(12) n
PB2 O2 101_544 2.940(9) n
PB2 O2 102_554 2.750(9) n
PB2 O2 103_444 2.849(4) n
PB2 O2 104_444 2.845(4) n
PB2 O2 105_544 2.941(9) n
PB2 O2 106_554 2.751(9) n
PB2 O2 -101_445 2.888(13) n
PB2 O2 -101_555 2.659(13) n
PB2 O2 -102_445 2.674(13) n
PB2 O2 -102_545 2.902(14) n
PB2 O2 -103_545 2.933(18) n
PB2 O2 -103_555 2.620(19) n
PB2 O2 -104_545 2.981(19) n
PB2 O2 -104_555 2.572(19) n
PB2 O2 -105_445 2.840(13) n
PB2 O2 -105_555 2.707(13) n
PB2 O2 -106_445 2.722(13) n
PB2 O2 -106_545 2.854(14) n
P PB1 201_445 3.445(2) n
P PB1 201_455 3.445(2) n
P PB1 201_555 3.445(2) n
P PB2 1_555 3.885(8) n
P PB2 2_555 3.885(8) n
P PB2 3_555 3.885(8) n
P PB2 4_555 3.885(8) n
P PB2 5_555 3.885(8) n
P PB2 6_555 3.885(8) n
P PB2 -101_445 3.3189(19) n
P PB2 -101_545 3.467(13) n
P PB2 -101_555 3.164(13) n
P PB2 -102_445 3.164(13) n
P PB2 -102_545 3.3189(19) n
P PB2 -102_555 3.467(13) n
P PB2 -103_445 3.467(13) n
P PB2 -103_545 3.164(13) n
P PB2 -103_555 3.3189(19) n
P PB2 -104_445 3.467(13) n
P PB2 -104_545 3.3189(19) n
P PB2 -104_555 3.164(13) n
P PB2 -105_445 3.164(13) n
P PB2 -105_545 3.467(13) n
P PB2 -105_555 3.3189(19) n
P PB2 -106_445 3.3189(19) n
P PB2 -106_545 3.164(13) n
P PB2 -106_555 3.467(13) n
P PB2 201_445 4.089(11) n
P PB2 201_455 4.328(11) n
P PB2 201_555 4.210(5) n
P PB2 202_445 4.328(11) n
P PB2 202_455 4.210(5) n
P PB2 202_555 4.089(11) n
P PB2 203_445 4.210(5) n
P PB2 203_455 4.089(11) n
P PB2 203_555 4.328(11) n
P PB2 204_445 4.089(11) n
P PB2 204_455 4.210(5) n
P PB2 204_555 4.328(11) n
P PB2 205_445 4.210(5) n
P PB2 205_455 4.328(11) n
P PB2 205_555 4.089(11) n
P PB2 206_445 4.328(11) n
P PB2 206_455 4.089(11) n
P PB2 206_555 4.210(5) n
P P -1_556 3.850(11) n
P P -101_445 4.226(8) n
P P -101_545 4.226(8) n
P P -101_555 4.226(8) n
P O1 1_555 1.520(6) n
P O1 2_555 1.520(6) n
P O1 3_555 1.520(6) n
P O1 -101_445 3.475(10) n
P O1 -101_545 3.271(17) n
P O1 -101_555 3.475(10) n
P O1 -102_445 3.475(10) n
P O1 -102_545 3.475(10) n
P O1 -102_555 3.271(17) n
P O1 -103_445 3.271(17) n
P O1 -103_545 3.475(10) n
P O1 -103_555 3.475(10) n
P O2 1_545 4.265(8) n
P O2 1_555 1.537(4) n
P O2 1_655 4.297(8) n
P O2 2_555 1.537(4) n
P O2 2_565 4.297(8) n
P O2 2_665 4.265(8) n
P O2 3_445 4.297(8) n
P O2 3_455 4.265(8) n
P O2 3_555 1.537(4) n
P O2 4_445 4.265(8) n
P O2 4_455 4.297(8) n
P O2 4_555 1.537(4) n
P O2 5_545 4.297(8) n
P O2 5_555 1.537(4) n
P O2 5_655 4.265(8) n
P O2 6_555 1.537(4) n
P O2 6_565 4.265(8) n
P O2 6_665 4.297(8) n
P O2 -1_556 3.635(6) n
P O2 -2_556 3.635(6) n
P O2 -3_556 3.635(6) n
P O2 -4_556 3.635(6) n
P O2 -5_556 3.635(6) n
P O2 -6_556 3.635(6) n
P O2 -101_445 4.327(9) n
P O2 -101_555 4.296(9) n
P O2 -102_445 4.296(9) n
P O2 -102_545 4.327(9) n
P O2 -103_545 4.296(9) n
P O2 -103_555 4.327(9) n
P O2 -104_545 4.327(9) n
P O2 -104_555 4.296(9) n
P O2 -105_445 4.296(9) n
P O2 -105_555 4.327(9) n
P O2 -106_445 4.327(9) n
P O2 -106_545 4.296(9) n
O1 PB1 201_445 3.073(9) n
O1 PB1 201_455 3.290(18) n
O1 PB1 201_555 3.073(9) n
O1 PB2 1_555 2.389(7) n
O1 PB2 2_555 2.379(7) n
O1 PB2 3_555 2.369(7) n
O1 PB2 4_555 2.379(7) n
O1 PB2 5_555 2.389(7) n
O1 PB2 6_555 2.369(7) n
O1 PB2 -101_445 4.114(8) n
O1 PB2 -101_545 4.068(17) n
O1 PB2 -101_555 3.991(12) n
O1 PB2 -102_445 3.996(12) n
O1 PB2 -102_545 3.949(14) n
O1 PB2 -102_555 4.240(14) n
O1 PB2 -103_445 4.246(15) n
O1 PB2 -103_545 3.826(18) n
O1 PB2 -103_555 4.126(10) n
O1 PB2 -104_445 4.240(14) n
O1 PB2 -104_545 3.949(14) n
O1 PB2 -104_555 3.996(12) n
O1 PB2 -105_445 3.991(12) n
O1 PB2 -105_545 4.068(17) n
O1 PB2 -105_555 4.114(8) n
O1 PB2 -106_445 4.126(10) n
O1 PB2 -106_545 3.826(18) n
O1 PB2 -106_555 4.246(15) n
O1 P 1_555 1.520(6) n
O1 P -101_445 3.475(10) n
O1 P -101_545 3.271(17) n
O1 P -101_555 3.475(10) n
O1 O1 2_555 0.25(3) n
O1 O1 3_555 0.25(3) n
O1 O1 -101_445 3.30(2) n
O1 O1 -101_545 2.86(4) n
O1 O1 -101_555 3.30(2) n
O1 O1 -102_445 3.294(18) n
O1 O1 -102_545 3.077(9) n
O1 O1 -102_555 3.077(9) n
O1 O1 -103_445 3.077(9) n
O1 O1 -103_545 3.077(9) n
O1 O1 -103_555 3.294(18) n
O1 O2 1_555 2.580(12) n
O1 O2 2_555 2.455(7) n
O1 O2 3_555 2.453(7) n
O1 O2 4_555 2.455(7) n
O1 O2 5_555 2.580(12) n
O1 O2 6_555 2.453(7) n
O1 O2 -101_445 3.310(10) n
O1 O2 -101_555 3.269(10) n
O1 O2 -102_445 3.364(16) n
O1 O2 -102_545 3.195(16) n
O1 O2 -103_545 3.154(17) n
O1 O2 -103_555 3.406(17) n
O1 O2 -104_545 3.195(16) n
O1 O2 -104_555 3.364(16) n
O1 O2 -105_445 3.269(10) n
O1 O2 -105_555 3.310(10) n
O1 O2 -106_445 3.406(17) n
O1 O2 -106_545 3.154(17) n
O2 PB1 201_455 2.567(4) n
O2 PB2 -101_445 2.888(13) n
O2 PB2 -101_555 2.659(13) n
O2 PB2 -102_445 2.620(19) n
O2 PB2 -102_555 2.933(18) n
O2 PB2 -103_445 2.902(14) n
O2 PB2 -103_555 2.674(13) n
O2 PB2 -104_445 2.981(19) n
O2 PB2 -104_555 2.572(19) n
O2 PB2 -105_445 2.707(13) n
O2 PB2 -105_555 2.840(13) n
O2 PB2 -106_445 2.722(13) n
O2 PB2 -106_555 2.854(14) n
O2 PB2 201_455 2.940(9) n
O2 PB2 202_455 2.849(4) n
O2 PB2 203_455 2.750(9) n
O2 PB2 204_455 2.845(4) n
O2 PB2 205_455 2.941(9) n
O2 PB2 206_455 2.751(9) n
O2 P 1_455 4.297(8) n
O2 P 1_555 1.537(4) n
O2 P 1_565 4.265(8) n
O2 P -1_556 3.635(6) n
O2 P -101_445 4.327(9) n
O2 P -101_555 4.296(9) n
O2 O1 1_555 2.580(12) n
O2 O1 2_555 2.453(7) n
O2 O1 3_555 2.455(7) n
O2 O1 -101_445 3.310(10) n
O2 O1 -101_555 3.269(10) n
O2 O1 -102_445 3.406(17) n
O2 O1 -102_555 3.154(17) n
O2 O1 -103_445 3.195(16) n
O2 O1 -103_555 3.364(16) n
O2 O2 2_555 2.508(6) n
O2 O2 2_565 2.934(6) n
O2 O2 3_455 2.934(6) n
O2 O2 3_555 2.508(6) n
O2 O2 4_455 2.959(13) n
O2 O2 4_555 2.483(13) n
O2 O2 5_555 0.05(2) n
O2 O2 6_555 2.532(13) n
O2 O2 6_565 2.909(13) n
O2 O2 -1_456 4.350(15) n
O2 O2 -1_556 4.041(7) n
O2 O2 -1_566 4.288(15) n
O2 O2 -2_556 3.169(6) n
O2 O2 -3_556 3.169(6) n
O2 O2 -4_556 3.189(11) n
O2 O2 -5_456 4.319(5) n
O2 O2 -5_556 4.041(7) n
O2 O2 -5_566 4.319(5) n
O2 O2 -6_556 3.150(11) n
O2 O2 -102_445 4.214(6) n
O2 O2 -103_555 4.214(6) n
O2 O2 -104_555 4.197(10) n
O2 O2 -106_445 4.231(10) n
