#------------------------------------------------------------------------------
#$Date: 2016-02-20 02:53:41 +0200 (Sat, 20 Feb 2016) $
#$Revision: 176768 $
#$URL: svn://www.crystallography.net/cod/cif/2/10/27/2102742.cif $
#------------------------------------------------------------------------------
#
# This file is available in the Crystallography Open Database (COD),
# http://www.crystallography.net/. The original data for this entry
# were provided by IUCr Journals, http://journals.iucr.org/.
#
# The file may be used within the scientific community so long as
# proper attribution is given to the journal article from which the
# data were obtained.
#
data_2102742
loop_
_publ_author_name
'Redhammer, G\"unther J.'
_publ_section_title
;
 Temperature-dependent crystal structure refinement and ^57^Fe
 M\"ossbauer spectroscopy of Cu~2~Fe~2~Ge~4~O~13~
;
_journal_coeditor_code           WS5044
_journal_issue                   1
_journal_name_full               'Acta Crystallographica Section B'
_journal_page_first              4
_journal_page_last               16
_journal_paper_doi               10.1107/S0108768106051652
_journal_volume                  63
_journal_year                    2007
_chemical_formula_moiety         'Cu2 Fe2 Ge4 O13'
_chemical_formula_sum            'Cu2 Fe2 Ge4 O13'
_chemical_formula_weight         737.14
_space_group_crystal_system      monoclinic
_space_group_IT_number           11
_space_group_name_Hall           '-P 2yb'
_space_group_name_H-M_alt        'P 1 21/m 1'
_symmetry_space_group_name_Hall  '-P 2yb'
_symmetry_space_group_name_H-M   'P 1 21/m 1'
_audit_creation_method           'WinGX routine CIF_UPDATE'
_cell_angle_alpha                90
_cell_angle_beta                 96.143(9)
_cell_angle_gamma                90
_cell_formula_units_Z            2
_cell_length_a                   12.0859(9)
_cell_length_b                   8.4947(5)
_cell_length_c                   4.8667(4)
_cell_measurement_temperature    200(2)
_cell_volume                     496.78(6)
_computing_cell_refinement       'STOE X-Area (Stoe & Cie, 2002)'
_computing_data_collection       'STOE X-Area (Stoe & Cie, 2002)'
_computing_data_reduction        'Stoe X-Area (Stoe & Cie, 2002)'
_computing_molecular_graphics    'Diamond 3.0 Bradenburg & Berndt 1999)'
_computing_publication_material  'Wingx 1.70.00 (Farrugia, 1999)'
_computing_structure_refinement  'SHELXL-97 (Sheldrick, 1997)'
_computing_structure_solution    'SHELXS-97 (Sheldrick, 1997)'
_diffrn_measured_fraction_theta_full 0.995
_diffrn_measured_fraction_theta_max 0.995
_diffrn_measurement_device       two-circle-diffractometer
_diffrn_measurement_device_type  'STOE IPDS-II'
_diffrn_measurement_method       'rotation method, \w'
_diffrn_radiation_type           MoK\a
_diffrn_radiation_wavelength     0.71073
_diffrn_reflns_av_R_equivalents  0.0594
_diffrn_reflns_limit_h_max       16
_diffrn_reflns_limit_h_min       -17
_diffrn_reflns_limit_k_max       11
_diffrn_reflns_limit_k_min       -11
_diffrn_reflns_limit_l_max       6
_diffrn_reflns_limit_l_min       -6
_diffrn_reflns_number            5779
_diffrn_reflns_theta_full        30.02
_diffrn_reflns_theta_max         30.02
_diffrn_reflns_theta_min         2.94
_diffrn_standards_decay_%        0
_diffrn_standards_interval_count 0
_diffrn_standards_interval_time  0
_diffrn_standards_number         0
_exptl_absorpt_coefficient_mu    19.036
_exptl_absorpt_correction_T_max  0.25
_exptl_absorpt_correction_T_min  0.12
_exptl_absorpt_correction_type   numerical
_exptl_absorpt_process_details
'via equivalents using Stoe X-SHAPE and X-RED (Stoe & Cie 1996)'
_exptl_crystal_colour            'pale green'
_exptl_crystal_density_diffrn    4.928
_exptl_crystal_density_method    'not measured'
_exptl_crystal_description       prismatic
_exptl_crystal_F_000             684
_exptl_crystal_size_max          0.12
_exptl_crystal_size_mid          0.11
_exptl_crystal_size_min          0.08
_refine_diff_density_max         0.918
_refine_diff_density_min         -1.091
_refine_ls_extinction_coef       0.0063(4)
_refine_ls_extinction_expression Fc^*^=kFc[1+0.001xFc^2^\l^3^/sin(2\q)]^-1/4^
_refine_ls_extinction_method     SHELXL
_refine_ls_goodness_of_fit_ref   0.969
_refine_ls_hydrogen_treatment    noref
_refine_ls_matrix_type           full
_refine_ls_number_parameters     110
_refine_ls_number_reflns         1530
_refine_ls_number_restraints     4
_refine_ls_restrained_S_all      0.968
_refine_ls_R_factor_gt           0.0305
_refine_ls_shift/su_max          0.001
_refine_ls_structure_factor_coef Fsqd
_refine_ls_weighting_details
'calc w=1/[\s^2^(Fo^2^)+(0.0234P)^2^+0.0000P] where P=(Fo^2^+2Fc^2^)/3'
_refine_ls_weighting_scheme      calc
_refine_ls_wR_factor_ref         0.0551
_reflns_number_gt                1196
_reflns_number_total             1530
_reflns_threshold_expression     >2sigma(I)
_cod_data_source_file            ws5044.cif
_cod_data_source_block           cf5_200
_cod_original_sg_symbol_H-M      'P 21/m'
_cod_database_code               2102742
loop_
_symmetry_equiv_pos_as_xyz
'x, y, z'
'-x, y+1/2, -z'
'-x, -y, -z'
'x, -y-1/2, z'
loop_
_atom_site_type_symbol
_atom_site_label
_atom_site_fract_x
_atom_site_fract_y
_atom_site_fract_z
_atom_site_U_iso_or_equiv
_atom_site_adp_type
_atom_site_calc_flag
_atom_site_refinement_flags
_atom_site_occupancy
Ge Ge1 0.23976(5) 0.25 0.49366(14) 0.00450(14) Uani d S 1
Ge Ge2 0.74750(5) 0.25 0.33851(14) 0.00461(14) Uani d S 1
Ge Ge3 -0.00513(5) 0.25 0.40630(14) 0.00530(14) Uani d SD 1
Ge Ge4 0.51223(5) 0.25 0.60629(13) 0.00416(14) Uani d SD 1
Fe Fe1 0.37604(5) 0.06131(7) 1.04822(14) 0.00478(13) Uani d . 1
Cu Cu1 0.12574(4) -0.00325(7) 1.04322(13) 0.00795(12) Uani d D 1
O O1 0.3328(3) 0.25 0.7953(10) 0.0075(8) Uani d S 1
O O2 0.6536(3) 0.25 0.5744(10) 0.0084(8) Uani d S 1
O O3 0.1131(4) 0.25 0.6456(10) 0.0068(8) Uani d S 1
O O4 0.2477(2) 0.0837(3) 0.2854(7) 0.0069(6) Uani d . 1
O O5 0.8724(4) 0.25 0.5695(10) 0.0070(8) Uani d S 1
O O6 0.5034(2) 0.0749(2) 0.7923(6) 0.0061(6) Uani d D 1
O O7 0.7428(2) 0.0805(4) 0.1348(7) 0.0074(6) Uani d . 1
O O8 0.4358(3) 0.25 0.2810(6) 0.0070(8) Uani d SD 1
O O9 -0.00267(17) 0.0827(3) 0.2031(6) 0.0115(7) Uani d D 1
loop_
_atom_site_aniso_label
_atom_site_aniso_U_11
_atom_site_aniso_U_22
_atom_site_aniso_U_33
_atom_site_aniso_U_12
_atom_site_aniso_U_13
_atom_site_aniso_U_23
Ge1 0.0041(3) 0.0063(3) 0.0031(3) 0 0.0002(2) 0
Ge2 0.0043(3) 0.0056(3) 0.0041(3) 0 0.0009(2) 0
Ge3 0.0036(3) 0.0080(3) 0.0044(3) 0 0.0004(2) 0
Ge4 0.0048(2) 0.0052(3) 0.0023(3) 0 -0.0001(2) 0
Fe1 0.0044(2) 0.0059(2) 0.0041(3) 0.0002(2) 0.00075(19) -0.0003(2)
Cu1 0.0043(2) 0.0112(2) 0.0083(3) -0.00087(17) 0.00064(16) -0.0042(2)
O1 0.0087(18) 0.0068(18) 0.007(2) 0 -0.0002(15) 0
O2 0.0070(19) 0.013(2) 0.006(2) 0 0.0047(15) 0
O3 0.0072(18) 0.0107(19) 0.003(2) 0 0.0018(14) 0
O4 0.0060(12) 0.0085(14) 0.0065(16) -0.0022(10) 0.0017(10) -0.0005(12)
O5 0.0062(16) 0.0120(18) 0.002(2) 0 -0.0008(14) 0
O6 0.0073(13) 0.0056(13) 0.0059(16) 0.0017(10) 0.0030(10) 0.0006(11)
O7 0.0068(12) 0.0089(14) 0.0066(16) -0.0012(10) 0.0013(10) -0.0016(12)
O8 0.0099(19) 0.0053(18) 0.005(2) 0 -0.0007(15) 0
O9 0.0051(13) 0.0168(16) 0.0119(18) 0.0013(11) -0.0016(11) -0.0091(14)
loop_
_atom_type_symbol
_atom_type_description
_atom_type_scat_dispersion_real
_atom_type_scat_dispersion_imag
_atom_type_scat_source
Cu Cu 0.3201 1.2651 'International Tables Vol C Tables 4.2.6.8 and 6.1.1.4'
Fe Fe 0.3463 0.8444 'International Tables Vol C Tables 4.2.6.8 and 6.1.1.4'
Ge Ge 0.1547 1.8001 'International Tables Vol C Tables 4.2.6.8 and 6.1.1.4'
O O 0.0106 0.006 'International Tables Vol C Tables 4.2.6.8 and 6.1.1.4'
loop_
_geom_angle_atom_site_label_1
_geom_angle_atom_site_label_2
_geom_angle_atom_site_label_3
_geom_angle_site_symmetry_1
_geom_angle_site_symmetry_3
_geom_angle
O4 Ge1 O4 . 4_565 107.9(2)
O4 Ge1 O1 . . 114.61(12)
O4 Ge1 O1 4_565 . 114.61(12)
O4 Ge1 O3 . . 110.23(12)
O4 Ge1 O3 4_565 . 110.23(12)
O1 Ge1 O3 . . 99.0(2)
O2 Ge2 O7 . . 113.60(13)
O2 Ge2 O7 . 4_565 113.60(13)
O7 Ge2 O7 . 4_565 111.1(2)
O2 Ge2 O5 . . 98.9(2)
O7 Ge2 O5 . . 109.40(13)
O7 Ge2 O5 4_565 . 109.40(13)
O9 Ge3 O9 . 4_565 110.1(2)
O9 Ge3 O3 . . 108.56(10)
O9 Ge3 O3 4_565 . 108.56(10)
O9 Ge3 O5 . 1_455 108.98(12)
O9 Ge3 O5 4_565 1_455 108.98(12)
O3 Ge3 O5 . 1_455 111.6(2)
O2 Ge4 O8 . . 110.5(2)
O2 Ge4 O6 . 4_565 99.32(13)
O8 Ge4 O6 . 4_565 114.41(11)
O2 Ge4 O6 . . 99.32(13)
O8 Ge4 O6 . . 114.41(11)
O6 Ge4 O6 4_565 . 116.4(2)
O6 Fe1 O7 3_657 3_656 106.76(11)
O6 Fe1 O4 3_657 1_556 114.24(12)
O7 Fe1 O4 3_656 1_556 75.86(13)
O6 Fe1 O8 3_657 1_556 92.28(11)
O7 Fe1 O8 3_656 1_556 155.15(15)
O4 Fe1 O8 1_556 1_556 81.87(15)
O6 Fe1 O1 3_657 . 146.17(14)
O7 Fe1 O1 3_656 . 94.49(13)
O4 Fe1 O1 1_556 . 96.09(16)
O8 Fe1 O1 1_556 . 76.88(11)
O6 Fe1 O6 3_657 . 72.74(10)
O7 Fe1 O6 3_656 . 107.88(13)
O4 Fe1 O6 1_556 . 171.21(10)
O8 Fe1 O6 1_556 . 92.75(15)
O1 Fe1 O6 . . 75.85(14)
O9 Cu1 O4 3_556 1_556 177.99(14)
O9 Cu1 O9 3_556 1_556 77.61(9)
O4 Cu1 O9 1_556 1_556 101.59(11)
O9 Cu1 O7 3_556 3_656 102.20(12)
O4 Cu1 O7 1_556 3_656 78.48(13)
O9 Cu1 O7 1_556 3_656 176.70(15)
loop_
_geom_bond_atom_site_label_1
_geom_bond_atom_site_label_2
_geom_bond_site_symmetry_2
_geom_bond_distance
Ge1 O4 . 1.747(3)
Ge1 O4 4_565 1.747(3)
Ge1 O1 . 1.751(4)
Ge1 O3 . 1.770(5)
Ge2 O2 . 1.698(5)
Ge2 O7 . 1.746(3)
Ge2 O7 4_565 1.746(3)
Ge2 O5 . 1.783(4)
Ge3 O9 . 1.7332(17)
Ge3 O9 4_565 1.7332(17)
Ge3 O3 . 1.744(4)
Ge3 O5 1_455 1.754(5)
Ge4 O2 . 1.732(4)
Ge4 O8 . 1.7455(19)
Ge4 O6 4_565 1.7505(17)
Ge4 O6 . 1.7505(17)
Fe1 O6 3_657 1.955(2)
Fe1 O7 3_656 2.008(3)
Fe1 O4 1_556 2.039(3)
Fe1 O8 1_556 2.0491(13)
Fe1 O1 . 2.054(3)
Fe1 O6 . 2.084(3)
Cu1 O9 3_556 1.930(3)
Cu1 O4 1_556 1.932(3)
Cu1 O9 1_556 1.951(3)
Cu1 O7 3_656 2.000(3)
