#------------------------------------------------------------------------------
#$Date: 2016-02-20 02:53:41 +0200 (Sat, 20 Feb 2016) $
#$Revision: 176768 $
#$URL: svn://www.crystallography.net/cod/cif/2/10/27/2102721.cif $
#------------------------------------------------------------------------------
#
# This file is available in the Crystallography Open Database (COD),
# http://www.crystallography.net/. The original data for this entry
# were provided by IUCr Journals, http://journals.iucr.org/.
#
# The file may be used within the scientific community so long as
# proper attribution is given to the journal article from which the
# data were obtained.
#
data_2102721
loop_
_publ_author_name
'Mercier, Patrick H. J.'
'Dong, Zhili'
'Baikie, Thomas'
'Le Page, Yvon'
'White, T. J.'
'Whitfield, Pamela S.'
'Mitchel, Lyndon D.'
_publ_section_title
;
 <i>Ab initio</i> constrained crystal-chemical Rietveld refinement of
 Ca~10~(V~<i>x~</i>P~1 - <i>x~</i>O~4~)~6~F~2~ apatites
;
_journal_issue                   1
_journal_name_full               'Acta Crystallographica Section B'
_journal_page_first              37
_journal_page_last               48
_journal_paper_doi               10.1107/S0108768106045538
_journal_volume                  63
_journal_year                    2007
_space_group_IT_number           176
_symmetry_space_group_name_Hall  '-P 6c'
_symmetry_space_group_name_H-M   'P 63/m'
_cell_angle_alpha                90
_cell_angle_beta                 90
_cell_angle_gamma                120
_cell_length_a                   9.5820(3)
_cell_length_b                   9.5820(3)
_cell_length_c                   6.9628(2)
_cell_volume                     553.64(4)
_cod_data_source_file            kd5006.cif
_cod_database_code               2102721
loop_
_symmetry_equiv_pos_as_xyz
'-x, -y, -z'
'-x, -y, z+1/2'
'-x+y, -x, -z+1/2'
'-x+y, -x, z'
'-y, x-y, -z+1/2'
'-y, x-y, z'
'y, -x+y, -z'
'y, -x+y, z+1/2'
'x-y, x, -z'
'x-y, x, z+1/2'
'x, y, -z+1/2'
'x, y, z'
loop_
_atom_site_type_symbol
_atom_site_label
_atom_site_fract_x
_atom_site_fract_y
_atom_site_fract_z
_atom_site_occupancy
Ca+2 Ca1 0.3333333 0.6666667 0.0018(4) 1
Ca+2 Ca2 0.24135(19) -0.0035(2) 0.25 1
P P1/V1 0.3978(2) 0.37031(18) 0.25 0.4
V+5 P1/V1 0.3978(2) 0.37031(18) 0.25 0.6
O-2 O1 0.3201(5) 0.4857(5) 0.25 1
O-2 O2 0.5949(5) 0.4720(5) 0.25 1
O-2 O3 0.3397(4) 0.2533(4) 0.0687(4) 1
F-1 F1 0 0 0.25 1
