#------------------------------------------------------------------------------
#$Date: 2016-02-20 02:53:41 +0200 (Sat, 20 Feb 2016) $
#$Revision: 176768 $
#$URL: svn://www.crystallography.net/cod/cif/2/10/27/2102750.cif $
#------------------------------------------------------------------------------
#
# This file is available in the Crystallography Open Database (COD),
# http://www.crystallography.net/. The original data for this entry
# were provided by IUCr Journals, http://journals.iucr.org/.
#
# The file may be used within the scientific community so long as
# proper attribution is given to the journal article from which the
# data were obtained.
#
data_2102750
loop_
_publ_author_name
'Redhammer, G\"unther J.'
_publ_section_title
;
 Temperature-dependent crystal structure refinement and ^57^Fe
 M\"ossbauer spectroscopy of Cu~2~Fe~2~Ge~4~O~13~
;
_journal_coeditor_code           WS5044
_journal_issue                   1
_journal_name_full               'Acta Crystallographica Section B'
_journal_page_first              4
_journal_page_last               16
_journal_paper_doi               10.1107/S0108768106051652
_journal_volume                  63
_journal_year                    2007
_chemical_formula_moiety         'Cu2 Fe2 Ge4 O13'
_chemical_formula_sum            'Cu2 Fe2 Ge4 O13'
_chemical_formula_weight         737.14
_space_group_crystal_system      monoclinic
_space_group_IT_number           11
_space_group_name_Hall           '-P 2yb'
_symmetry_space_group_name_Hall  '-P 2yb'
_symmetry_space_group_name_H-M   'P 1 21/m 1'
_audit_creation_method           'WinGX routine CIF_UPDATE'
_cell_angle_alpha                90
_cell_angle_beta                 96.24(2)
_cell_angle_gamma                90
_cell_formula_units_Z            2
_cell_length_a                   12.1011(8)
_cell_length_b                   8.5290(7)
_cell_length_c                   4.8841(5)
_cell_measurement_reflns_used    4497
_cell_measurement_temperature    611(2)
_cell_measurement_theta_max      28.09
_cell_measurement_theta_min      2.94
_cell_volume                     501.10(8)
_computing_structure_refinement  'SHELXL-97 (Sheldrick, 1997)'
_diffrn_measured_fraction_theta_full 0.909
_diffrn_measured_fraction_theta_max 0.909
_diffrn_measurement_device       one-circle-diffractometer
_diffrn_measurement_device_type  'STOE IPDS-I'
_diffrn_measurement_method       'rotation method, \f'
_diffrn_radiation_type           MoK\a
_diffrn_radiation_wavelength     0.71073
_diffrn_reflns_av_R_equivalents  0.0461
_diffrn_reflns_limit_h_max       15
_diffrn_reflns_limit_h_min       -15
_diffrn_reflns_limit_k_max       11
_diffrn_reflns_limit_k_min       -11
_diffrn_reflns_limit_l_max       5
_diffrn_reflns_limit_l_min       -5
_diffrn_reflns_number            4515
_diffrn_reflns_theta_full        27.92
_diffrn_reflns_theta_max         27.92
_diffrn_reflns_theta_min         2.93
_diffrn_standards_decay_%        0
_diffrn_standards_interval_count 0
_diffrn_standards_interval_time  0
_diffrn_standards_number         0
_exptl_absorpt_coefficient_mu    18.872
_exptl_absorpt_correction_T_max  0.25
_exptl_absorpt_correction_T_min  0.12
_exptl_absorpt_correction_type   numerical
_exptl_absorpt_process_details
'via equivalents using Stoe X-SHAPE and X-RED (Stoe & Cie 1996)'
_exptl_crystal_colour            'pale green'
_exptl_crystal_density_diffrn    4.885
_exptl_crystal_density_method    'not measured'
_exptl_crystal_description       prismatic
_exptl_crystal_F_000             684
_exptl_crystal_size_max          0.12
_exptl_crystal_size_mid          0.11
_exptl_crystal_size_min          0.08
_refine_diff_density_max         0.827
_refine_diff_density_min         -0.904
_refine_ls_extinction_coef       0.0211(9)
_refine_ls_extinction_expression Fc^*^=kFc[1+0.001xFc^2^\l^3^/sin(2\q)]^-1/4^
_refine_ls_extinction_method     SHELXL
_refine_ls_goodness_of_fit_ref   0.994
_refine_ls_hydrogen_treatment    noref
_refine_ls_matrix_type           full
_refine_ls_number_parameters     110
_refine_ls_number_reflns         1165
_refine_ls_number_restraints     3
_refine_ls_restrained_S_all      0.993
_refine_ls_R_factor_gt           0.0284
_refine_ls_shift/su_max          0.001
_refine_ls_structure_factor_coef Fsqd
_refine_ls_weighting_details
'calc w=1/[\s^2^(Fo^2^)+(0.0335P)^2^+0.0000P] where P=(Fo^2^+2Fc^2^)/3'
_refine_ls_weighting_scheme      calc
_refine_ls_wR_factor_ref         0.0621
_reflns_number_gt                914
_reflns_number_total             1165
_reflns_threshold_expression     >2sigma(I)
_cod_data_source_file            ws5044.cif
_cod_data_source_block           cf9_400
_cod_original_sg_symbol_H-M      'P 21/m'
_cod_database_code               2102750
loop_
_symmetry_equiv_pos_as_xyz
'x, y, z'
'-x, y+1/2, -z'
'-x, -y, -z'
'x, -y-1/2, z'
loop_
_atom_site_type_symbol
_atom_site_label
_atom_site_fract_x
_atom_site_fract_y
_atom_site_fract_z
_atom_site_U_iso_or_equiv
_atom_site_adp_type
_atom_site_calc_flag
_atom_site_refinement_flags
_atom_site_occupancy
Ge Ge1 0.24021(5) 0.25 0.49216(17) 0.00973(19) Uani d S 1
Ge Ge2 0.74727(5) 0.25 0.33568(18) 0.01009(19) Uani d SD 1
Ge Ge3 -0.00516(5) 0.25 0.40374(17) 0.0119(2) Uani d SD 1
Ge Ge4 0.51268(6) 0.25 0.60690(17) 0.00892(18) Uani d S 1
Fe Fe1 0.37569(5) 0.06147(8) 1.04850(17) 0.01032(18) Uani d . 1
Cu Cu1 0.12516(5) -0.00330(9) 1.04360(16) 0.0195(2) Uani d D 1
O O1 0.3319(4) 0.25 0.7946(12) 0.0136(11) Uani d S 1
O O2 0.6524(4) 0.25 0.5652(10) 0.0236(14) Uani d SD 1
O O3 0.1135(4) 0.25 0.6420(13) 0.0145(11) Uani d S 1
O O4 0.2478(2) 0.0839(4) 0.2845(7) 0.0150(8) Uani d . 1
O O5 0.8720(3) 0.25 0.5646(11) 0.0161(12) Uani d S 1
O O6 0.5046(3) 0.0755(4) 0.7924(9) 0.0138(8) Uani d . 1
O O7 0.7428(3) 0.0808(4) 0.1329(9) 0.0161(8) Uani d . 1
O O8 0.4357(4) 0.25 0.2834(12) 0.0130(11) Uani d S 1
O O9 -0.0030(3) 0.0836(6) 0.1995(11) 0.0288(11) Uani d . 1
loop_
_atom_site_aniso_label
_atom_site_aniso_U_11
_atom_site_aniso_U_22
_atom_site_aniso_U_33
_atom_site_aniso_U_12
_atom_site_aniso_U_13
_atom_site_aniso_U_23
Ge1 0.0068(3) 0.0104(4) 0.0115(5) 0 -0.0010(3) 0
Ge2 0.0060(3) 0.0093(4) 0.0149(5) 0 0.0010(3) 0
Ge3 0.0056(3) 0.0161(4) 0.0140(5) 0 0.0005(3) 0
Ge4 0.0080(3) 0.0081(3) 0.0104(5) 0 -0.0005(3) 0
Fe1 0.0070(3) 0.0094(3) 0.0146(5) 0.0003(2) 0.0011(2) -0.0005(3)
Cu1 0.0069(3) 0.0253(4) 0.0264(5) -0.0025(2) 0.0016(2) -0.0118(3)
O1 0.012(2) 0.009(2) 0.018(3) 0 -0.0024(19) 0
O2 0.008(2) 0.041(4) 0.022(4) 0 0.007(2) 0
O3 0.006(2) 0.027(3) 0.010(3) 0 0.0009(18) 0
O4 0.0078(15) 0.017(2) 0.021(3) -0.0044(13) 0.0027(13) -0.0068(16)
O5 0.008(2) 0.025(3) 0.016(4) 0 0.0021(19) 0
O6 0.0110(15) 0.0128(18) 0.018(2) 0.0067(13) 0.0019(13) 0.0079(16)
O7 0.0109(16) 0.0124(18) 0.025(3) -0.0011(13) 0.0023(14) -0.0090(16)
O8 0.013(2) 0.012(2) 0.013(3) 0 -0.0016(19) 0
O9 0.0098(17) 0.039(3) 0.037(3) -0.0006(16) -0.0004(16) -0.023(2)
loop_
_atom_type_symbol
_atom_type_description
_atom_type_scat_dispersion_real
_atom_type_scat_dispersion_imag
_atom_type_scat_source
Cu Cu 0.3201 1.2651 'International Tables Vol C Tables 4.2.6.8 and 6.1.1.4'
Fe Fe 0.3463 0.8444 'International Tables Vol C Tables 4.2.6.8 and 6.1.1.4'
Ge Ge 0.1547 1.8001 'International Tables Vol C Tables 4.2.6.8 and 6.1.1.4'
O O 0.0106 0.006 'International Tables Vol C Tables 4.2.6.8 and 6.1.1.4'
loop_
_geom_angle_atom_site_label_1
_geom_angle_atom_site_label_2
_geom_angle_atom_site_label_3
_geom_angle_site_symmetry_1
_geom_angle_site_symmetry_3
_geom_angle
O1 Ge1 O4 . . 114.90(13)
O1 Ge1 O4 . 4_565 114.90(13)
O4 Ge1 O4 . 4_565 108.1(3)
O1 Ge1 O3 . . 98.6(3)
O4 Ge1 O3 . . 109.99(14)
O4 Ge1 O3 4_565 . 109.99(14)
O2 Ge2 O7 . . 113.24(16)
O2 Ge2 O7 . 4_565 113.24(15)
O7 Ge2 O7 . 4_565 111.3(3)
O2 Ge2 O5 . . 100.0(2)
O7 Ge2 O5 . . 109.17(13)
O7 Ge2 O5 4_565 . 109.17(13)
O9 Ge3 O9 . 4_565 109.6(4)
O9 Ge3 O3 . . 108.67(17)
O9 Ge3 O3 4_565 . 108.67(17)
O9 Ge3 O5 . 1_455 108.88(17)
O9 Ge3 O5 4_565 1_455 108.88(17)
O3 Ge3 O5 . 1_455 112.1(3)
O2 Ge4 O8 . . 109.1(2)
O2 Ge4 O6 . 4_565 99.90(14)
O8 Ge4 O6 . 4_565 114.46(14)
O2 Ge4 O6 . . 99.90(14)
O8 Ge4 O6 . . 114.46(14)
O6 Ge4 O6 4_565 . 116.5(3)
O6 Fe1 O7 3_657 3_656 106.08(16)
O6 Fe1 O4 3_657 1_556 114.02(16)
O7 Fe1 O4 3_656 1_556 75.90(13)
O6 Fe1 O8 3_657 1_556 92.51(16)
O7 Fe1 O8 3_656 1_556 155.23(18)
O4 Fe1 O8 1_556 1_556 81.68(16)
O6 Fe1 O1 3_657 . 146.59(18)
O7 Fe1 O1 3_656 . 94.68(17)
O4 Fe1 O1 1_556 . 96.07(19)
O8 Fe1 O1 1_556 . 77.20(17)
O6 Fe1 O6 3_657 . 72.86(18)
O7 Fe1 O6 3_656 . 108.13(16)
O4 Fe1 O6 1_556 . 171.18(14)
O8 Fe1 O6 1_556 . 92.73(19)
O1 Fe1 O6 . . 75.95(18)
O9 Cu1 O4 3_556 1_556 178.3(2)
O9 Cu1 O9 3_556 1_556 77.6(2)
O4 Cu1 O9 1_556 1_556 101.90(16)
O9 Cu1 O7 3_556 3_656 102.27(17)
O4 Cu1 O7 1_556 3_656 78.14(15)
O9 Cu1 O7 1_556 3_656 176.3(2)
loop_
_geom_bond_atom_site_label_1
_geom_bond_atom_site_label_2
_geom_bond_site_symmetry_2
_geom_bond_distance
Ge1 O1 . 1.749(5)
Ge1 O4 . 1.751(3)
Ge1 O4 4_565 1.751(3)
Ge1 O3 . 1.770(5)
Ge2 O2 . 1.690(5)
Ge2 O7 . 1.748(4)
Ge2 O7 4_565 1.748(4)
Ge2 O5 . 1.778(5)
Ge3 O9 . 1.737(4)
Ge3 O9 4_565 1.737(4)
Ge3 O3 . 1.747(5)
Ge3 O5 1_455 1.755(4)
Ge4 O2 . 1.725(4)
Ge4 O8 . 1.745(6)
Ge4 O6 4_565 1.751(4)
Ge4 O6 . 1.751(4)
Fe1 O6 3_657 1.955(3)
Fe1 O7 3_656 2.009(4)
Fe1 O4 1_556 2.037(4)
Fe1 O8 1_556 2.061(4)
Fe1 O1 . 2.064(4)
Fe1 O6 . 2.106(4)
Cu1 O9 3_556 1.919(4)
Cu1 O4 1_556 1.939(4)
Cu1 O9 1_556 1.947(4)
Cu1 O7 3_656 2.009(4)
