#------------------------------------------------------------------------------
#$Date: 2016-02-14 16:26:36 +0200 (Sun, 14 Feb 2016) $
#$Revision: 176435 $
#$URL: svn://www.crystallography.net/cod/cif/2/10/20/2102084.cif $
#------------------------------------------------------------------------------
#
# This file is available in the Crystallography Open Database (COD),
# http://www.crystallography.net/. The original data for this entry
# were provided by IUCr Journals, http://journals.iucr.org/.
#
# The file may be used within the scientific community so long as
# proper attribution is given to the journal article from which the
# data were obtained.
#
data_2102084
loop_
_publ_author_name
'Figgis, Brian N.'
'Sobolev, Alexandre N.'
'Simmons, Charles J.'
'Hitchman, Michael A.'
'Stratemeier, Horst'
'Riley, Mark J.'
_publ_section_title
;
 Bonding effects and the crystal structures of
 (NH~4~)~2~[Cu(H~2~O)~6~](SO~4~)~2~ and its H~2~^18^O substituted form
 at 9.5K
;
_journal_issue                   3
_journal_name_full               'Acta Crystallographica Section B'
_journal_page_first              438
_journal_page_last               443
_journal_paper_doi               10.1107/S0108768100000963
_journal_volume                  56
_journal_year                    2000
_chemical_formula_iupac          '(N H4)2[Cu(H2 O)6](S O4)2'
_chemical_formula_sum            'Cu H20 N2 O14 S2'
_chemical_formula_weight         399.84
_chemical_name_common            'Ammonium copper Tutton salt'
_chemical_name_systematic
;
 ?
;
_space_group_IT_number           14
_symmetry_cell_setting           monoclinic
_symmetry_space_group_name_Hall  '-P 2yab'
_symmetry_space_group_name_H-M   'P 1 21/a 1'
_audit_creation_method           SHELXL-97
_cell_angle_alpha                90.00
_cell_angle_beta                 106.295(7)
_cell_angle_gamma                90.00
_cell_formula_units_Z            2
_cell_length_a                   9.0964(9)
_cell_length_b                   12.2225(11)
_cell_length_c                   6.3447(7)
_cell_measurement_reflns_used    12
_cell_measurement_temperature    9.5(2)
_cell_measurement_theta_max      23.35
_cell_measurement_theta_min      20.75
_cell_volume                     677.07(12)
_computing_cell_refinement       'Local diffractometer control software'
_computing_data_collection       'Local diffractometer control software'
_computing_data_reduction        'PROFIT (Streltsov & Zavodnik, 1989)'
_computing_molecular_graphics    'SHELXTL (Sheldrick, 1983)'
_computing_publication_material  'SHELXTL (Sheldrick, 1983)'
_computing_structure_refinement  'SHELXL-97 (Sheldrick, 1997)'
_computing_structure_solution    'SHELXS-97 (Sheldrick, 1990)'
_diffrn_ambient_temperature      9.5(2)
_diffrn_measured_fraction_theta_full 1.000
_diffrn_measured_fraction_theta_max 1.000
_diffrn_measurement_device_type  'Huber 512'
_diffrn_measurement_method       \w/2\q
_diffrn_radiation_monochromator  none
_diffrn_radiation_source         'normal-focus sealed tube'
_diffrn_radiation_type           MoK\a
_diffrn_radiation_wavelength     .71073
_diffrn_reflns_av_R_equivalents  .0389
_diffrn_reflns_av_sigmaI/netI    .0367
_diffrn_reflns_limit_h_max       12
_diffrn_reflns_limit_h_min       -12
_diffrn_reflns_limit_k_max       17
_diffrn_reflns_limit_k_min       -17
_diffrn_reflns_limit_l_max       8
_diffrn_reflns_limit_l_min       0
_diffrn_reflns_number            4295
_diffrn_reflns_theta_full        30.07
_diffrn_reflns_theta_max         30.07
_diffrn_reflns_theta_min         2.87
_diffrn_standards_decay_%        .5
_diffrn_standards_interval_count 100
_diffrn_standards_number         3
_exptl_absorpt_coefficient_mu    1.994
_exptl_absorpt_correction_T_max  .7129
_exptl_absorpt_correction_T_min  .3363
_exptl_absorpt_correction_type   gaussian
_exptl_crystal_colour            LightBlue
_exptl_crystal_density_diffrn    1.961
_exptl_crystal_density_method    'not measured'
_exptl_crystal_description       plate
_exptl_crystal_F_000             414
_exptl_crystal_size_max          .57
_exptl_crystal_size_mid          .50
_exptl_crystal_size_min          .20
_refine_diff_density_max         .652
_refine_diff_density_min         -.665
_refine_ls_extinction_coef       .0162(18)
_refine_ls_extinction_method     SHELXL
_refine_ls_goodness_of_fit_ref   1.122
_refine_ls_hydrogen_treatment    mixed
_refine_ls_matrix_type           full
_refine_ls_number_parameters     129
_refine_ls_number_reflns         1988
_refine_ls_number_restraints     0
_refine_ls_restrained_S_all      1.122
_refine_ls_R_factor_all          .0226
_refine_ls_R_factor_gt           .0213
_refine_ls_shift/su_max          .000
_refine_ls_shift/su_mean         .000
_refine_ls_structure_factor_coef Fsqd
_refine_ls_weighting_details
'calc w=1/[\s^2^(Fo^2^)+(0.0310P)^2^+0.2280P] where P=(Fo^2^+2Fc^2^)/3'
_refine_ls_weighting_scheme      calc
_refine_ls_wR_factor_ref         .0597
_reflns_number_gt                1930
_reflns_number_total             1988
_reflns_threshold_expression     >2sigma(I)
_cod_data_source_file            ta0006.cif
_cod_data_source_block           sn
_cod_depositor_comments
;
The following automatic conversions were performed:
'_symmetry_cell_setting' value 'Monoclinic' changed to 'monoclinic'
according to '/home/saulius/struct/CIF-dictionaries/cif_core.dic'
dictionary named 'cif_core.dic' version 2.4.1 from
2010-06-29.

'_exptl_absorpt_correction_type' value 'Gaussian' changed to
'gaussian' according to
'/home/saulius/struct/CIF-dictionaries/cif_core.dic' dictionary named
'cif_core.dic' version 2.4.1 from 2010-06-29.

Automatic conversion script
Id: cif_fix_enum 1527 2010-12-29 10:47:43Z saulius 

The following automatic conversions were performed:

'_symmetry_cell_setting' value 'Monoclinic' changed to 'monoclinic'
according to /home/saulius/struct/CIF-dictionaries/cif_core.dic
dictionary named 'cif_core.dic' version 2.4.1 from
2010-06-29.

'_exptl_absorpt_correction_type' value 'Gaussian'
changed to 'gaussian' according to
/home/saulius/struct/CIF-dictionaries/cif_core.dic dictionary named
'cif_core.dic' version 2.4.1 from 2010-06-29.

Automatic conversion script
Id: cif_fix_values 1715 2011-07-08 13:25:40Z adriana 
;
_cod_original_sg_symbol_H-M      'P 21/a'
_cod_original_formula_sum        'H20 Cu N2 O14 S2'
_cod_database_code               2102084
_cod_database_fobs_code          2102084
loop_
_symmetry_equiv_pos_as_xyz
'x, y, z'
'-x+1/2, y+1/2, -z'
'-x, -y, -z'
'x-1/2, -y-1/2, z'
loop_
_atom_site_label
_atom_site_fract_x
_atom_site_fract_y
_atom_site_fract_z
_atom_site_U_iso_or_equiv
_atom_site_adp_type
_atom_site_calc_flag
_atom_site_refinement_flags
_atom_site_occupancy
_atom_site_type_symbol
Cu .0000 .0000 .0000 .00280(8) Uani d S 1 Cu
S1 .41985(3) .13459(2) .74317(4) .00309(8) Uani d . 1 S
O3 .42991(9) .22753(7) .59587(14) .00541(15) Uani d . 1 O
O4 .55809(9) .06696(7) .78323(14) .00638(16) Uani d . 1 O
O5 .28391(9) .06777(6) .63161(13) .00535(16) Uani d . 1 O
O6 .40174(9) .17903(7) .95209(14) .00577(15) Uani d . 1 O
O7 .18660(10) .11856(7) .17780(15) .00650(16) Uani d . 1 O
O8 -.15738(9) .10924(7) .02938(14) .00562(16) Uani d . 1 O
O9 -.00600(9) -.06422(7) .28289(14) .00563(15) Uani d . 1 O
N1 .14204(11) .34170(8) .35777(17) .00646(18) Uani d . 1 N
H11 .085(2) .3280(17) .227(4) .011(4) Uiso d . 1 H
H12 .221(2) .3020(19) .391(4) .018(5) Uiso d . 1 H
H13 .087(2) .3260(19) .443(4) .018(5) Uiso d . 1 H
H14 .167(3) .414(2) .377(4) .024(5) Uiso d . 1 H
H15 .220(2) .0935(19) .305(4) .019(5) Uiso d . 1 H
H16 .244(3) .1235(19) .118(4) .023(6) Uiso d . 1 H
H17 -.239(3) .095(2) -.051(4) .024(5) Uiso d . 1 H
H18 -.136(2) .1668(19) .003(4) .016(5) Uiso d . 1 H
H19 -.084(3) -.055(2) .309(4) .024(5) Uiso d . 1 H
H20 .018(3) -.128(2) .313(4) .023(5) Uiso d . 1 H
loop_
_atom_site_aniso_label
_atom_site_aniso_U_11
_atom_site_aniso_U_22
_atom_site_aniso_U_33
_atom_site_aniso_U_12
_atom_site_aniso_U_13
_atom_site_aniso_U_23
Cu .00378(11) .00131(11) .00427(11) .00049(5) .00270(7) .00056(6)
S1 .00381(13) .00137(12) .00480(13) -.00014(8) .00237(9) -.00018(8)
O3 .0079(3) .0024(3) .0069(3) -.0004(3) .0037(3) .0015(3)
O4 .0049(3) .0045(3) .0099(3) .0017(3) .0025(3) .0001(3)
O5 .0051(3) .0037(3) .0074(3) -.0020(3) .0022(3) -.0014(3)
O6 .0088(3) .0043(3) .0053(3) -.0001(3) .0038(3) -.0009(3)
O7 .0069(3) .0068(3) .0066(4) -.0010(3) .0034(3) .0001(3)
O8 .0052(3) .0028(3) .0094(4) .0005(3) .0029(3) .0003(3)
O9 .0070(3) .0039(3) .0077(3) .0012(3) .0048(3) .0012(3)
N1 .0076(4) .0047(4) .0083(4) .0001(3) .0042(3) .0001(3)
loop_
_atom_type_symbol
_atom_type_description
_atom_type_scat_dispersion_real
_atom_type_scat_dispersion_imag
_atom_type_scat_source
N N .0061 .0033 'International Tables Vol C Tables 4.2.6.8 and 6.1.1.4'
H H .0000 .0000 'International Tables Vol C Tables 4.2.6.8 and 6.1.1.4'
O O .0106 .0060 'International Tables Vol C Tables 4.2.6.8 and 6.1.1.4'
S S .1246 .1234 'International Tables Vol C Tables 4.2.6.8 and 6.1.1.4'
Cu Cu .3201 1.2651 'International Tables Vol C Tables 4.2.6.8 and 6.1.1.4'
loop_
_geom_angle_atom_site_label_1
_geom_angle_atom_site_label_2
_geom_angle_atom_site_label_3
_geom_angle_site_symmetry_1
_geom_angle_site_symmetry_3
_geom_angle
_geom_angle_publ_flag
O9 Cu O9 3 . 180.00(5) yes
O9 Cu O8 3 3 88.72(4) yes
O9 Cu O8 . 3 91.28(4) yes
O9 Cu O8 3 . 91.28(4) yes
O9 Cu O8 . . 88.72(4) yes
O8 Cu O8 3 . 180.00(6) yes
O9 Cu O7 3 . 89.45(3) yes
O9 Cu O7 . . 90.55(3) yes
O8 Cu O7 3 . 91.00(3) yes
O8 Cu O7 . . 89.00(3) yes
O9 Cu O7 3 3 90.55(3) yes
O9 Cu O7 . 3 89.45(3) yes
O8 Cu O7 3 3 89.00(3) yes
O8 Cu O7 . 3 91.00(3) yes
O7 Cu O7 . 3 180.00(6) yes
O4 S1 O6 . . 110.87(5) yes
O4 S1 O5 . . 109.36(5) yes
O6 S1 O5 . . 109.92(5) yes
O4 S1 O3 . . 109.75(5) yes
O6 S1 O3 . . 108.85(5) yes
O5 S1 O3 . . 108.05(5) yes
Cu O7 H15 . . 105.2(15) yes
Cu O7 H16 . . 109.8(18) yes
H15 O7 H16 . . 114(2) yes
Cu O8 H17 . . 111.0(18) yes
Cu O8 H18 . . 111.2(16) yes
H17 O8 H18 . . 108(2) yes
Cu O9 H19 . . 113.2(18) yes
Cu O9 H20 . . 121.2(17) yes
H19 O9 H20 . . 107(2) yes
H11 N1 H12 . . 112(2) yes
H11 N1 H13 . . 105.5(18) yes
H12 N1 H13 . . 109(2) yes
H11 N1 H14 . . 112(2) yes
H12 N1 H14 . . 111(2) yes
H13 N1 H14 . . 107(2) yes
loop_
_geom_bond_atom_site_label_1
_geom_bond_atom_site_label_2
_geom_bond_site_symmetry_2
_geom_bond_distance
_geom_bond_publ_flag
Cu O9 3 1.9737(9) yes
Cu O9 . 1.9737(9) yes
Cu O8 3 2.0042(8) yes
Cu O8 . 2.0042(8) yes
Cu O7 . 2.2758(9) yes
Cu O7 3 2.2758(9) yes
S1 O4 . 1.4662(8) yes
S1 O6 . 1.4839(8) yes
S1 O5 . 1.4853(8) yes
S1 O3 . 1.4900(8) yes
O7 H15 . .83(2) yes
O7 H16 . .73(3) yes
O8 H17 . .79(2) yes
O8 H18 . .76(2) yes
O9 H19 . .78(3) yes
O9 H20 . .81(2) yes
N1 H11 . .87(2) yes
N1 H12 . .84(2) yes
N1 H13 . .85(2) yes
N1 H14 . .91(2) yes
loop_
_geom_hbond_atom_site_label_D
_geom_hbond_atom_site_label_H
_geom_hbond_atom_site_label_A
_geom_hbond_site_symmetry_A
_geom_hbond_distance_DH
_geom_hbond_distance_HA
_geom_hbond_distance_DA
_geom_hbond_angle_DHA
_geom_hbond_publ_flag
N1 H11 O6 4_564 .87(2) 2.05(2) 2.8827(13) 162(2) yes
N1 H12 O3 . .84(2) 2.18(2) 2.9776(13) 158(2) yes
N1 H13 O3 4_565 .85(2) 2.05(2) 2.8909(13) 169(2) yes
N1 H14 O5 2_556 .91(2) 1.94(2) 2.8403(13) 171(2) yes
O7 H15 O5 . .83(2) 2.02(2) 2.8336(13) 166(2) yes
O7 H16 O6 1_554 .73(3) 2.12(3) 2.8283(12) 166(2) yes
O8 H17 O4 1_454 .79(2) 1.88(2) 2.6715(12) 174(2) yes
O8 H18 O6 4_564 .76(2) 1.96(2) 2.7156(12) 173(2) yes
O9 H19 O5 3_556 .78(3) 1.97(3) 2.7307(11) 167(2) yes
O9 H20 O3 2_546 .81(2) 1.88(3) 2.6928(12) 175(2) yes
