#------------------------------------------------------------------------------
#$Date: 2016-02-14 06:40:26 +0200 (Sun, 14 Feb 2016) $
#$Revision: 176432 $
#$URL: svn://www.crystallography.net/cod/cif/2/10/30/2103081.cif $
#------------------------------------------------------------------------------
#
# This file is available in the Crystallography Open Database (COD),
# http://www.crystallography.net/. The original data for this entry
# were provided by IUCr Journals, http://journals.iucr.org/.
#
# The file may be used within the scientific community so long as
# proper attribution is given to the journal article from which the
# data were obtained.
#
data_2103081
loop_
_publ_author_name
'St\'ephanie Albert'
'S\'ebastien Pillet'
'Claude Lecomte'
'Annie Pradel'
'Michel Ribes'
_publ_section_title
;
 Disorder in Ag~7~GeSe~5~I, a superionic conductor:
 temperature-dependent anharmonic structural study
;
_journal_coeditor_code           CK5029
_journal_issue                   1
_journal_name_full               'Acta Crystallographica Section B'
_journal_page_first              1
_journal_page_last               11
_journal_paper_doi               10.1107/S0108768107059642
_journal_volume                  64
_journal_year                    2008
_chemical_formula_moiety         'Ag7 Ge Se5 I'
_chemical_formula_sum            'Ag7 Ge I Se5'
_chemical_formula_weight         1349.4
_chemical_name_systematic        ?
_space_group_IT_number           216
_symmetry_cell_setting           cubic
_symmetry_space_group_name_Hall  'F -4 2 3'
_symmetry_space_group_name_H-M   'F -4 3 m'
_cell_angle_alpha                90
_cell_angle_beta                 90
_cell_angle_gamma                90
_cell_formula_units_Z            4
_cell_length_a                   10.9600(7)
_cell_length_b                   10.9600(7)
_cell_length_c                   10.9600(7)
_cell_measurement_reflns_used    259
_cell_measurement_temperature    50
_cell_measurement_theta_max      32.32
_cell_measurement_theta_min      5.26
_cell_volume                     1316.53(15)
_computing_cell_refinement       'CrysAlis RED (Oxford Diffraction, 2004)'
_computing_data_collection       'CrysAlis CCD (Oxford Diffraction, 2004)'
_computing_data_reduction        'SORTAV blessing (1997)'
_computing_molecular_graphics    'ORTEPIII (Farrugia, 1997)'
_computing_publication_material  '(Jana2000; Petricek and Dusek, 2000)'
_computing_structure_refinement  '(Jana2000; Petricek and Dusek, 2000)'
_diffrn_ambient_temperature      50
_diffrn_measured_fraction_theta_full 0.97
_diffrn_measurement_device_type  Xcalibur-Saphire2
_diffrn_measurement_method       'omega scans'
_diffrn_radiation_monochromator  graphite
_diffrn_radiation_source         'fine-focus sealed tube'
_diffrn_radiation_type           'Mo K\a'
_diffrn_radiation_wavelength     0.71069
_diffrn_reflns_av_R_equivalents  0.0400
_diffrn_reflns_av_sigmaI/netI    0.0203
_diffrn_reflns_limit_h_max       16
_diffrn_reflns_limit_h_min       2
_diffrn_reflns_limit_k_max       11
_diffrn_reflns_limit_k_min       0
_diffrn_reflns_limit_l_max       9
_diffrn_reflns_limit_l_min       -9
_diffrn_reflns_number            266
_diffrn_reflns_theta_full        32.32
_diffrn_reflns_theta_max         32.32
_diffrn_reflns_theta_min         5.26
_exptl_absorpt_coefficient_mu    28.3
_exptl_absorpt_correction_T_max  0.46
_exptl_absorpt_correction_T_min  0.21
_exptl_absorpt_correction_type   numerical
_exptl_absorpt_process_details   'CrysAlis RED (Oxford Diffraction, 2004)'
_exptl_crystal_colour            black
_exptl_crystal_density_diffrn    6.8149
_exptl_crystal_description       block
_exptl_crystal_F_000             2336
_exptl_crystal_size_max          0.08
_exptl_crystal_size_mid          0.08
_exptl_crystal_size_min          0.04
_refine_diff_density_max         5.61
_refine_diff_density_min         -2.73
_refine_ls_extinction_method     none
_refine_ls_goodness_of_fit_ref   4.78
_refine_ls_number_parameters     36
_refine_ls_number_reflns         266
_refine_ls_R_factor_all          0.0493
_refine_ls_R_factor_gt           0.0473
_refine_ls_shift/su_max          0.0125
_refine_ls_shift/su_mean         0.0030
_refine_ls_structure_factor_coef Fsqd
_refine_ls_weighting_details     w=1/\s^2^(I)
_refine_ls_weighting_scheme      sigma
_refine_ls_wR_factor_gt          0.0328
_refine_ls_wR_factor_ref         0.0329
_reflns_number_gt                259
_reflns_number_total             1222
_reflns_threshold_expression     I>2\s(I)
_cod_data_source_file            ck5029.cif
_cod_data_source_block           50K
_cod_original_cell_volume        1316.5(15)
_cod_original_sg_symbol_Hall     'F -4;2;3'
_cod_original_formula_sum        'Ag7 Ge Se5 I'
_cod_database_code               2103081
_cod_database_fobs_code          2103081
loop_
_symmetry_equiv_pos_site_id
_symmetry_equiv_pos_as_xyz
1 x,y,z
2 y,-x,-z
3 x,-y,-z
4 z,x,y
5 -x,-y,z
6 -y,-x,z
7 x,-z,-y
8 -y,x,-z
9 -x,y,-z
10 -z,-x,y
11 y,x,z
12 -x,z,-y
13 z,-x,-y
14 -x,-z,y
15 -z,x,-y
16 x,z,y
17 -z,y,-x
18 y,z,x
19 z,-y,-x
20 -y,-z,x
21 -z,-y,x
22 -y,z,-x
23 z,y,x
24 y,-z,-x
25 x,1/2+y,1/2+z
26 y,1/2-x,1/2-z
27 x,1/2-y,1/2-z
28 z,1/2+x,1/2+y
29 -x,1/2-y,1/2+z
30 -y,1/2-x,1/2+z
31 x,1/2-z,1/2-y
32 -y,1/2+x,1/2-z
33 -x,1/2+y,1/2-z
34 -z,1/2-x,1/2+y
35 y,1/2+x,1/2+z
36 -x,1/2+z,1/2-y
37 z,1/2-x,1/2-y
38 -x,1/2-z,1/2+y
39 -z,1/2+x,1/2-y
40 x,1/2+z,1/2+y
41 -z,1/2+y,1/2-x
42 y,1/2+z,1/2+x
43 z,1/2-y,1/2-x
44 -y,1/2-z,1/2+x
45 -z,1/2-y,1/2+x
46 -y,1/2+z,1/2-x
47 z,1/2+y,1/2+x
48 y,1/2-z,1/2-x
49 1/2+x,y,1/2+z
50 1/2+y,-x,1/2-z
51 1/2+x,-y,1/2-z
52 1/2+z,x,1/2+y
53 1/2-x,-y,1/2+z
54 1/2-y,-x,1/2+z
55 1/2+x,-z,1/2-y
56 1/2-y,x,1/2-z
57 1/2-x,y,1/2-z
58 1/2-z,-x,1/2+y
59 1/2+y,x,1/2+z
60 1/2-x,z,1/2-y
61 1/2+z,-x,1/2-y
62 1/2-x,-z,1/2+y
63 1/2-z,x,1/2-y
64 1/2+x,z,1/2+y
65 1/2-z,y,1/2-x
66 1/2+y,z,1/2+x
67 1/2+z,-y,1/2-x
68 1/2-y,-z,1/2+x
69 1/2-z,-y,1/2+x
70 1/2-y,z,1/2-x
71 1/2+z,y,1/2+x
72 1/2+y,-z,1/2-x
73 1/2+x,1/2+y,z
74 1/2+y,1/2-x,-z
75 1/2+x,1/2-y,-z
76 1/2+z,1/2+x,y
77 1/2-x,1/2-y,z
78 1/2-y,1/2-x,z
79 1/2+x,1/2-z,-y
80 1/2-y,1/2+x,-z
81 1/2-x,1/2+y,-z
82 1/2-z,1/2-x,y
83 1/2+y,1/2+x,z
84 1/2-x,1/2+z,-y
85 1/2+z,1/2-x,-y
86 1/2-x,1/2-z,y
87 1/2-z,1/2+x,-y
88 1/2+x,1/2+z,y
89 1/2-z,1/2+y,-x
90 1/2+y,1/2+z,x
91 1/2+z,1/2-y,-x
92 1/2-y,1/2-z,x
93 1/2-z,1/2-y,x
94 1/2-y,1/2+z,-x
95 1/2+z,1/2+y,x
96 1/2+y,1/2-z,-x
loop_
_atom_site_type_symbol
_atom_site_label
_atom_site_fract_x
_atom_site_fract_y
_atom_site_fract_z
_atom_site_U_iso_or_equiv
_atom_site_adp_type
_atom_site_calc_flag
_atom_site_occupancy
Ag Ag1 0.25 0.25 0.04296(18) 0.0246(6) Uani d 0.543(6)
Ag Ag2 0.1669(6) 0.1669(6) 0.0000(8) 0.066(2) Uani d 0.312(3)
Ge Ge 0.5 0.5 0.5 0.0058(3) Uani d 1
Se Se1 0.2237(3) 0.2237(3) 0.2237(3) 0.0149(8) Uani d 0.25
Se Se2 0.62409(13) 0.62409(13) 0.62409(13) 0.00996(18) Uani d 1
I I 0 0 0 0.0959(12) Uani d 1
loop_
_atom_site_aniso_label
_atom_site_aniso_U_11
_atom_site_aniso_U_22
_atom_site_aniso_U_33
_atom_site_aniso_U_12
_atom_site_aniso_U_13
_atom_site_aniso_U_23
_atom_site_aniso_type_symbol
Ag1 0.0287(11) 0.0287(11) 0.0165(10) 0.0076(15) 0 0 Ag
Ag2 0.061(4) 0.061(4) 0.075(3) 0.019(3) 0.035(2) 0.035(2) Ag
Ge 0.0058(6) 0.0058(6) 0.0058(6) 0 0 0 Ge
Se1 0.0149(14) 0.0149(14) 0.0149(14) -0.0026(10) -0.0026(10) -0.0026(10) Se
Se2 0.0100(3) 0.0100(3) 0.0100(3) -0.0021(4) -0.0021(4) -0.0021(4) Se
I 0.096(2) 0.096(2) 0.096(2) 0 0 0 I
loop_
_atom_type_symbol
_atom_type_scat_dispersion_real
_atom_type_scat_dispersion_imag
_atom_type_scat_source
Ag -0.897 1.102 'International Tables Vol C Tables  4.2.6.8 and 6.1.1.4'
Ge 0.155 1.800 'International Tables Vol C Tables  4.2.6.8 and 6.1.1.4'
Se -0.093 2.226 'International Tables Vol C Tables  4.2.6.8 and 6.1.1.4'
I -0.474 1.812 'International Tables Vol C Tables  4.2.6.8 and 6.1.1.4'
loop_
_geom_bond_atom_site_label_1
_geom_bond_atom_site_label_2
_geom_bond_site_symmetry_2
_geom_bond_distance
_geom_bond_publ_flag
Ag1 Ag1 4_555 3.209(2) yes
Ag1 Ag1 31_555 3.209(2) yes
Ag1 Ag1 82_555 3.209(2) yes
Ag1 Ag1 60_555 3.209(2) yes
Ag1 Ag2 . 1.372(6) yes
Ag1 Ag2 4_555 3.191(8) yes
Ag1 Ag2 77_555 1.372(6) yes
Ag1 Ag2 7_555 3.691(8) yes
Ag1 Ag2 82_555 3.191(8) yes
Ag1 Ag2 84_555 3.691(8) yes
Ag1 Ag2 85_555 3.691(8) yes
Ag1 Ag2 86_555 3.191(8) yes
Ag1 Ag2 15_555 3.691(8) yes
Ag1 Ag2 16_555 3.191(8) yes
Ag1 Ge 25_544 3.9034(2) yes
Ag1 Ge 49_454 3.9034(2) yes
Ag1 Se1 . 2.022(4) yes
Ag1 Se1 26_555 2.590(4) yes
Ag1 Se1 77_555 2.022(4) yes
Ag1 Se1 56_555 2.590(4) yes
Ag1 Se2 50_465 2.676(2) yes
Ag1 Se2 32_645 2.676(2) yes
Ag1 I . 3.9034(2) yes
Ag1 I 73_555 3.9034(2) yes
Ag2 Ag2 2_555 3.658(9) yes
Ag2 Ag2 4_555 2.587(10) yes
Ag2 Ag2 77_555 2.577(9) yes
Ag2 Ag2 7_555 2.586(10) yes
Ag2 Ag2 8_555 3.658(9) yes
Ag2 Ag2 15_555 2.586(10) yes
Ag2 Ag2 16_555 2.587(10) yes
Ag2 Se1 . 2.605(9) yes
Ag2 Se1 26_555 3.317(9) yes
Ag2 Se1 77_555 2.982(9) yes
Ag2 Se1 56_555 3.317(9) yes
Ag2 Se2 50_465 2.705(7) yes
Ag2 Se2 32_645 2.705(7) yes
Ag2 I . 2.586(6) yes
Ge Se2 . 2.3556(14) yes
Ge Se2 2_566 2.3556(14) yes
Ge Se2 5_665 2.3556(14) yes
Ge Se2 8_656 2.3556(14) yes
Se1 Se1 26_555 0.817(5) yes
Se1 Se1 77_555 0.817(5) yes
Se1 Se1 56_555 0.817(5) yes
Se2 Se2 2_566 3.847(2) yes
Se2 Se2 26_566 3.903(2) yes
Se2 Se2 5_665 3.847(2) yes
Se2 Se2 77_665 3.903(2) yes
Se2 Se2 8_656 3.847(2) yes
Se2 Se2 56_656 3.903(2) yes
