#------------------------------------------------------------------------------
#$Date: 2016-02-14 16:26:36 +0200 (Sun, 14 Feb 2016) $
#$Revision: 176435 $
#$URL: svn://www.crystallography.net/cod/cif/2/10/35/2103584.cif $
#------------------------------------------------------------------------------
#
# This file is available in the Crystallography Open Database (COD),
# http://www.crystallography.net/. The original data for this entry
# were provided by IUCr Journals, http://journals.iucr.org/.
#
# The file may be used within the scientific community so long as
# proper attribution is given to the journal article from which the
# data were obtained.
#
data_2103584
loop_
_publ_author_name
'Krogh Andersen, Anne Marie'
'Carlson, Stefan'
_publ_section_title
;
 High-pressure structures of \a- and \d-ZrMo~2~O~8~
;
_journal_issue                   1
_journal_name_full               'Acta Crystallographica Section B'
_journal_page_first              20
_journal_page_last               26
_journal_paper_doi               10.1107/S0108768100013215
_journal_volume                  57
_journal_year                    2001
_chemical_formula_structural     Zr(Mo4)2
_chemical_formula_sum            'Mo2 O8 Zr'
_chemical_formula_weight         411.10
_chemical_name_systematic        'Zirconium molybdate'
_space_group_IT_number           163
_symmetry_cell_setting           trigonal
_symmetry_space_group_name_Hall  '-P 3 2c'
_symmetry_space_group_name_H-M   'P -3 1 c'
_cell_angle_alpha                90.0
_cell_angle_beta                 90.0
_cell_angle_gamma                120.0
_cell_formula_units_Z            6
_cell_length_a                   10.12640(10)
_cell_length_b                   10.12640(10)
_cell_length_c                   11.3252(2)
_cell_measurement_pressure       900000
_cell_measurement_temperature    298
_cell_volume                     1005.74(2)
_diffrn_ambient_temperature      298
_diffrn_measurement_device_type  synchrotron
_diffrn_radiation_type           synchrotron
_diffrn_radiation_wavelength     .42496
_diffrn_reflns_number            259
_refine_ls_goodness_of_fit_all   1.27
_refine_ls_number_parameters     54
_refine_ls_number_reflns         259
_refine_ls_shift/su_max          .01
_refine_ls_shift/su_mean         .01
_refine_ls_structure_factor_coef Fsqd
_reflns_number_gt                259
_reflns_number_total             259
_cod_data_source_file            sn0004.cif
_cod_data_source_block           0.90GPa
_cod_original_cell_volume        1005.75(2)
_cod_original_sg_symbol_H-M      'P-3 1 c'
_cod_original_formula_sum        'Mo2 O8 Zr1'
_cod_database_code               2103584
loop_
_symmetry_equiv_pos_as_xyz
+x,+y,+z
-y,x-y,+z
y-x,-x,+z
+y,+x,+z+1/2
-x,y-x,+z+1/2
x-y,-y,+z+1/2
-x,-y,-z
+y,y-x,-z
x-y,+x,-z
-y,-x,-z+1/2
+x,x-y,-z+1/2
y-x,+y,-z+1/2
loop_
_atom_site_label
_atom_site_fract_x
_atom_site_fract_y
_atom_site_fract_z
_atom_site_U_iso_or_equiv
_atom_site_thermal_displace_type
_atom_site_occupancy
Zr1 .0 .0 .0 .0039(17) Uiso 1.0
Zr2 .33333 .66667 .9718(5) .0039(17) Uiso 1.0
Mo1 .3283(12) .3380(11) .1542(3) .0148(9) Uiso 1.0
O1 .170(5) .164(5) .0831(18) .001(2) Uiso 1.0
O2 .344(7) .519(4) .1045(17) .001(2) Uiso 1.0
O3 .527(3) .336(5) .1409(15) .001(2) Uiso 1.0
O4 .315(4) .337(5) .2884(9) .001(2) Uiso 1.0
loop_
_atom_type_symbol
_atom_type_description
_atom_type_scat_dispersion_real
_atom_type_scat_dispersion_imag
_atom_type_scat_source
O O .0056 .0036 'International Tables Vol C Tables 4.2.6.8 and 6.1.1.4'
Mo Mo -1.2703 3.0978 'International Tables Vol C Tables 4.2.6.8 and 6.1.1.4'
Zr Zr -.5364 2.6141 'International Tables Vol C Tables 4.2.6.8 and 6.1.1.4'
loop_
_geom_angle_atom_site_label_1
_geom_angle_atom_site_label_2
_geom_angle_atom_site_label_3
_geom_angle
O1 Zr1 O1 82(2)
O1 Zr1 O1 82(2)
O1 Zr1 O1 82(2)
O1 Zr1 O1 82(2)
O1 Zr1 O1 82(2)
O1 Zr1 O1 82(2)
O1 Zr1 O1 98(2)
O1 Zr1 O1 98(2)
O1 Zr1 O1 98(2)
O1 Zr1 O1 98(2)
O1 Zr1 O1 98(2)
O1 Zr1 O1 98(2)
O1 Zr1 O1 180(3)
O1 Zr1 O1 180(3)
O1 Zr1 O1 180(3)
O2 Zr2 O2 76.8(18)
O2 Zr2 O2 76.8(18)
O2 Zr2 O2 76.8(18)
O2 Zr2 O3 99.5(18)
O2 Zr2 O3 99.5(18)
O2 Zr2 O3 99.5(18)
O2 Zr2 O3 176.1(18)
O2 Zr2 O3 176.1(18)
O2 Zr2 O3 176.1(18)
O2 Zr2 O3 103(2)
O2 Zr2 O3 103(2)
O2 Zr2 O3 103(2)
O3 Zr2 O3 80.5(17)
O3 Zr2 O3 80.5(17)
O3 Zr2 O3 80.5(17)
O1 Mo O2 114(2)
O1 Mo O3 110(2)
O1 Mo O4 113(2)
O2 Mo O3 114(2)
O2 Mo O4 105.8(19)
O3 Mo O4 99.2(19)
loop_
_geom_bond_atom_site_label_1
_geom_bond_atom_site_label_2
_geom_bond_distance
Zr1 O1 1.94(4)
Zr1 O1 1.94(4)
Zr1 O1 1.94(4)
Zr1 O1 1.94(4)
Zr1 O1 1.94(4)
Zr1 O1 1.94(4)
Zr2 O2 2.16(3)
Zr2 O2 2.16(3)
Zr2 O2 2.16(3)
Zr2 O3 1.91(3)
Zr2 O3 1.91(3)
Zr2 O3 1.91(3)
Mo O1 1.87(4)
Mo O2 1.85(4)
Mo O3 2.03(4)
Mo O4 1.525(11)
