#------------------------------------------------------------------------------
#$Date: 2017-02-07 17:13:06 +0200 (Tue, 07 Feb 2017) $
#$Revision: 191892 $
#$URL: file:///home/coder/svn-repositories/cod/cif/2/10/35/2103534.cif $
#------------------------------------------------------------------------------
#
# This file is available in the Crystallography Open Database (COD),
# http://www.crystallography.net/. The original data for this entry
# were provided by IUCr Journals, http://journals.iucr.org/.
#
# The file may be used within the scientific community so long as
# proper attribution is given to the journal article from which the
# data were obtained.
#
data_2103534
loop_
_publ_author_name
'Pavlovska, A.'
'Werner, S.'
'Maximov, B.'
'Mill, B.'
_publ_section_title
;
 Pressure-induced phase transitions of piezoelectric single crystals
 from the langasite family: La~3~Nb~0.5~Ga~5.5~O~14~ and
 La~3~Ta~0.5~Ga~5.5~O~14~
;
_journal_issue                   6
_journal_name_full               'Acta Crystallographica Section B'
_journal_page_first              939
_journal_page_last               947
_journal_paper_doi               10.1107/S0108768102010273
_journal_volume                  58
_journal_year                    2002
_chemical_formula_sum            'Ga5.54 La3 O14 Ta0.46'
_chemical_formula_weight         1110.22
_chemical_name_systematic        ?
_space_group_IT_number           150
_symmetry_space_group_name_Hall  'P 3 2"'
_symmetry_space_group_name_H-M   'P 3 2 1'
_atom_sites_solution_hydrogens   geom
_atom_sites_solution_primary     direct
_atom_sites_solution_secondary   difmap
_audit_creation_method           SHELXL-97
_cell_angle_alpha                90.00
_cell_angle_beta                 90.00
_cell_angle_gamma                120.00
_cell_formula_units_Z            1
_cell_length_a                   8.116
_cell_length_b                   8.116
_cell_length_c                   5.086
_cell_measurement_temperature    293(2)
_cell_volume                     290.1
_computing_structure_refinement  'SHELXL-97 (Sheldrick, 1997)'
_computing_structure_solution    'SHELXS-97 (Sheldrick, 1990)'
_diffrn_ambient_pressure         5.1E+6
_diffrn_ambient_temperature      293(2)
_diffrn_measured_fraction_theta_full 0.611
_diffrn_measured_fraction_theta_max 0.611
_diffrn_radiation_monochromator  graphite
_diffrn_radiation_source         'fine-focus sealed tube'
_diffrn_radiation_type           MoK\a
_diffrn_radiation_wavelength     0.71073
_diffrn_reflns_av_R_equivalents  0.0646
_diffrn_reflns_av_sigmaI/netI    0.0388
_diffrn_reflns_limit_h_max       11
_diffrn_reflns_limit_h_min       -11
_diffrn_reflns_limit_k_max       11
_diffrn_reflns_limit_k_min       -11
_diffrn_reflns_limit_l_max       4
_diffrn_reflns_limit_l_min       -4
_diffrn_reflns_number            1737
_diffrn_reflns_theta_full        31.95
_diffrn_reflns_theta_max         31.95
_diffrn_reflns_theta_min         2.90
_exptl_absorpt_coefficient_mu    27.826
_exptl_crystal_density_diffrn    6.354
_exptl_crystal_density_method    'not measured'
_exptl_crystal_F_000             488
_refine_diff_density_max         1.980
_refine_diff_density_min         -1.801
_refine_diff_density_rms         0.465
_refine_ls_abs_structure_details 'Flack H D (1983), Acta Cryst. A39, 876-881'
_refine_ls_abs_structure_Flack   0.00(4)
_refine_ls_extinction_coef       0.155(10)
_refine_ls_extinction_expression Fc^*^=kFc[1+0.001xFc^2^\l^3^/sin(2\q)]^-1/4^
_refine_ls_extinction_method     SHELXL
_refine_ls_goodness_of_fit_ref   0.716
_refine_ls_hydrogen_treatment    mixed
_refine_ls_matrix_type           full
_refine_ls_number_parameters     39
_refine_ls_number_reflns         438
_refine_ls_number_restraints     0
_refine_ls_restrained_S_all      0.716
_refine_ls_R_factor_all          0.0336
_refine_ls_R_factor_gt           0.0335
_refine_ls_shift/su_max          0.000
_refine_ls_shift/su_mean         0.000
_refine_ls_structure_factor_coef Fsqd
_refine_ls_weighting_details
'calc w=1/[\s^2^(Fo^2^)+(0.1000P)^2^+0.0000P] where P=(Fo^2^+2Fc^2^)/3'
_refine_ls_weighting_scheme      calc
_refine_ls_wR_factor_gt          0.0737
_refine_ls_wR_factor_ref         0.0738
_reflns_number_gt                437
_reflns_number_total             438
_reflns_threshold_expression     >2sigma(I)
_cod_data_source_file            sn0021-5.1cad4.cif
_cod_data_source_block           5.1cad4
_cod_depositor_comments
;
The _diffrn_ambient_pressure was taken from the original data block
header, after comparison with the paper text and supplementary
material.

Saulius Gra\<zulis
;
_cod_database_code               2103534
loop_
_symmetry_equiv_pos_as_xyz
'x, y, z'
'y, x, -z'
'-y, x-y, z'
'-x+y, -x, z'
'-x, -x+y, -z'
'x-y, -y, -z'
loop_
_atom_site_label
_atom_site_type_symbol
_atom_site_fract_x
_atom_site_fract_y
_atom_site_fract_z
_atom_site_U_iso_or_equiv
_atom_site_adp_type
_atom_site_occupancy
_atom_site_symmetry_multiplicity
_atom_site_calc_flag
_atom_site_refinement_flags
La La -0.42799(8) 0.0000 0.0000 0.0179(3) Uani 1 2 d S
Ga1 Ga 0.0000 0.0000 0.0000 0.0159(4) Uani 0.54 6 d SP
Ta Ta 0.0000 0.0000 0.0000 0.0159(4) Uani 0.46 6 d SP
Ga2 Ga -0.6667 -0.3333 0.4693(5) 0.0177(5) Uani 1 3 d S
Ga3 Ga -0.76424(15) 0.0000 -0.5000 0.0194(4) Uani 1 2 d S
O1 O -0.3333 0.3333 0.173(3) 0.020(3) Uani 1 3 d S
O2 O -0.5461(9) 0.1487(9) -0.297(2) 0.027(2) Uani 1 1 d .
O3 O -0.7812(8) 0.1452(9) 0.2426(18) 0.028(2) Uani 1 1 d .
loop_
_atom_site_aniso_label
_atom_site_aniso_U_11
_atom_site_aniso_U_22
_atom_site_aniso_U_33
_atom_site_aniso_U_23
_atom_site_aniso_U_13
_atom_site_aniso_U_12
La 0.0223(3) 0.0197(3) 0.0110(7) -0.0010(2) -0.00049(11) 0.00985(16)
Ga1 0.0212(4) 0.0212(4) 0.0054(12) 0.000 0.000 0.0106(2)
Ta 0.0212(4) 0.0212(4) 0.0054(12) 0.000 0.000 0.0106(2)
Ga2 0.0220(5) 0.0220(5) 0.0091(15) 0.000 0.000 0.0110(2)
Ga3 0.0207(4) 0.0232(6) 0.0152(13) 0.0059(5) 0.0029(2) 0.0116(3)
O1 0.023(3) 0.023(3) 0.015(11) 0.000 0.000 0.0114(15)
O2 0.023(3) 0.031(3) 0.023(7) 0.008(3) -0.004(3) 0.011(3)
O3 0.022(3) 0.024(3) 0.030(7) 0.003(3) -0.005(3) 0.006(2)
loop_
_atom_type_symbol
_atom_type_description
_atom_type_scat_dispersion_real
_atom_type_scat_dispersion_imag
_atom_type_scat_source
La La -0.2871 2.4523 'International Tables Vol C Tables 4.2.6.8 and 6.1.1.4'
Ta Ta -0.7052 6.5227 'International Tables Vol C Tables 4.2.6.8 and 6.1.1.4'
Ga Ga 0.2307 1.6083 'International Tables Vol C Tables 4.2.6.8 and 6.1.1.4'
O O 0.0106 0.0060 'International Tables Vol C Tables 4.2.6.8 and 6.1.1.4'
loop_
_geom_angle_atom_site_label_1
_geom_angle_atom_site_label_2
_geom_angle_atom_site_label_3
_geom_angle
_geom_angle_site_symmetry_1
_geom_angle_site_symmetry_3
O3 La O3 67.7(4) 3_565 5_445
O3 La O2 108.0(3) 3_565 6
O3 La O2 140.0(3) 5_445 6
O3 La O2 140.0(3) 3_565 .
O3 La O2 108.0(3) 5_445 .
O2 La O2 99.2(4) 6 .
O3 La O1 124.1(2) 3_565 2_455
O3 La O1 79.5(2) 5_445 2_455
O2 La O1 70.8(3) 6 2_455
O2 La O1 91.9(3) . 2_455
O3 La O1 79.5(2) 3_565 .
O3 La O1 124.1(2) 5_445 .
O2 La O1 91.9(3) 6 .
O2 La O1 70.8(3) . .
O1 La O1 153.70(6) 2_455 .
O3 La O2 65.5(2) 3_565 5_445
O3 La O2 78.9(3) 5_445 5_445
O2 La O2 64.6(3) 6 5_445
O2 La O2 154.45(11) . 5_445
O1 La O2 64.7(3) 2_455 5_445
O1 La O2 126.4(3) . 5_445
O3 La O2 78.9(3) 3_565 3_565
O3 La O2 65.5(2) 5_445 3_565
O2 La O2 154.45(11) 6 3_565
O2 La O2 64.6(3) . 3_565
O1 La O2 126.4(3) 2_455 3_565
O1 La O2 64.7(3) . 3_565
O2 La O2 137.2(3) 5_445 3_565
O3 La Ga2 86.0(2) 3_565 .
O3 La Ga2 110.82(19) 5_445 .
O2 La Ga2 31.67(17) 6 .
O2 La Ga2 128.90(18) . .
O1 La Ga2 64.7(3) 2_455 .
O1 La Ga2 110.5(3) . .
O2 La Ga2 32.93(15) 5_445 .
O2 La Ga2 164.79(18) 3_565 .
O3 La Ga2 110.82(19) 3_565 2_565
O3 La Ga2 86.0(2) 5_445 2_565
O2 La Ga2 128.90(18) 6 2_565
O2 La Ga2 31.67(17) . 2_565
O1 La Ga2 110.5(3) 2_455 2_565
O1 La Ga2 64.7(3) . 2_565
O2 La Ga2 164.79(18) 5_445 2_565
O2 La Ga2 32.93(15) 3_565 2_565
Ga2 La Ga2 160.17(2) . 2_565
O3 La Ta 33.84(18) 3_565 .
O3 La Ta 33.84(18) 5_445 .
O2 La Ta 130.4(2) 6 .
O2 La Ta 130.4(2) . .
O1 La Ta 103.15(3) 2_455 .
O1 La Ta 103.15(3) . .
O2 La Ta 68.60(14) 5_445 .
O2 La Ta 68.60(14) 3_565 .
Ga2 La Ta 99.912(11) . .
Ga2 La Ta 99.913(11) 2_565 .
O3 La Ga1 33.84(18) 3_565 .
O3 La Ga1 33.84(18) 5_445 .
O2 La Ga1 130.4(2) 6 .
O2 La Ga1 130.4(2) . .
O1 La Ga1 103.15(3) 2_455 .
O1 La Ga1 103.15(3) . .
O2 La Ga1 68.60(14) 5_445 .
O2 La Ga1 68.60(14) 3_565 .
Ga2 La Ga1 99.912(11) . .
Ga2 La Ga1 99.913(11) 2_565 .
Ta La Ga1 0.0 . .
O3 Ga1 O3 106.9(4) 4_445 5_445
O3 Ga1 O3 85.7(3) 4_445 1_655
O3 Ga1 O3 163.2(4) 5_445 1_655
O3 Ga1 O3 163.2(4) 4_445 2_565
O3 Ga1 O3 85.7(3) 5_445 2_565
O3 Ga1 O3 84.3(4) 1_655 2_565
O3 Ga1 O3 84.3(4) 4_445 6_655
O3 Ga1 O3 85.7(3) 5_445 6_655
O3 Ga1 O3 106.9(4) 1_655 6_655
O3 Ga1 O3 85.7(3) 2_565 6_655
O3 Ga1 O3 85.7(3) 4_445 3_565
O3 Ga1 O3 84.3(4) 5_445 3_565
O3 Ga1 O3 85.7(3) 1_655 3_565
O3 Ga1 O3 106.9(4) 2_565 3_565
O3 Ga1 O3 163.2(4) 6_655 3_565
O3 Ga1 La 42.2(2) 4_445 2
O3 Ga1 La 98.4(2) 5_445 2
O3 Ga1 La 98.4(2) 1_655 2
O3 Ga1 La 126.5(2) 2_565 2
O3 Ga1 La 42.2(2) 6_655 2
O3 Ga1 La 126.5(2) 3_565 2
O3 Ga1 La 98.4(2) 4_445 .
O3 Ga1 La 42.2(2) 5_445 .
O3 Ga1 La 126.5(2) 1_655 .
O3 Ga1 La 98.4(2) 2_565 .
O3 Ga1 La 126.5(2) 6_655 .
O3 Ga1 La 42.2(2) 3_565 .
La Ga1 La 120.0 2 .
O3 Ga1 La 126.5(2) 4_445 4
O3 Ga1 La 126.5(2) 5_445 4
O3 Ga1 La 42.2(2) 1_655 4
O3 Ga1 La 42.2(2) 2_565 4
O3 Ga1 La 98.4(2) 6_655 4
O3 Ga1 La 98.4(2) 3_565 4
La Ga1 La 120.0 2 4
La Ga1 La 120.0 . 4
O3 Ta O3 106.9(4) 4_445 5_445
O3 Ta O3 85.7(3) 4_445 1_655
O3 Ta O3 163.2(4) 5_445 1_655
O3 Ta O3 163.2(4) 4_445 2_565
O3 Ta O3 85.7(3) 5_445 2_565
O3 Ta O3 84.3(4) 1_655 2_565
O3 Ta O3 84.3(4) 4_445 6_655
O3 Ta O3 85.7(3) 5_445 6_655
O3 Ta O3 106.9(4) 1_655 6_655
O3 Ta O3 85.7(3) 2_565 6_655
O3 Ta O3 85.7(3) 4_445 3_565
O3 Ta O3 84.3(4) 5_445 3_565
O3 Ta O3 85.7(3) 1_655 3_565
O3 Ta O3 106.9(4) 2_565 3_565
O3 Ta O3 163.2(4) 6_655 3_565
O3 Ta Ga3 97.9(2) 4_445 4_445
O3 Ta Ga3 31.5(2) 5_445 4_445
O3 Ta Ga3 160.1(2) 1_655 4_445
O3 Ta Ga3 87.2(2) 2_565 4_445
O3 Ta Ga3 54.4(2) 6_655 4_445
O3 Ta Ga3 114.0(2) 3_565 4_445
O3 Ta Ga3 31.5(2) 4_445 4_446
O3 Ta Ga3 97.9(2) 5_445 4_446
O3 Ta Ga3 87.2(2) 1_655 4_446
O3 Ta Ga3 160.1(2) 2_565 4_446
O3 Ta Ga3 114.0(2) 6_655 4_446
O3 Ta Ga3 54.4(2) 3_565 4_446
Ga3 Ta Ga3 106.08(4) 4_445 4_446
O3 Ta Ga3 54.4(2) 4_445 1_656
O3 Ta Ga3 160.1(2) 5_445 1_656
O3 Ta Ga3 31.5(2) 1_655 1_656
O3 Ta Ga3 114.0(2) 2_565 1_656
O3 Ta Ga3 97.9(2) 6_655 1_656
O3 Ta Ga3 87.2(2) 3_565 1_656
Ga3 Ta Ga3 145.011(15) 4_445 1_656
Ga3 Ta Ga3 62.76(3) 4_446 1_656
O3 Ta Ga3 114.0(2) 4_445 1_655
O3 Ta Ga3 87.2(2) 5_445 1_655
O3 Ta Ga3 97.9(2) 1_655 1_655
O3 Ta Ga3 54.4(2) 2_565 1_655
O3 Ta Ga3 31.5(2) 6_655 1_655
O3 Ta Ga3 160.1(2) 3_565 1_655
Ga3 Ta Ga3 62.76(3) 4_445 1_655
Ga3 Ta Ga3 145.011(15) 4_446 1_655
Ga3 Ta Ga3 106.08(4) 1_656 1_655
O3 Ta Ga3 87.2(2) 4_445 2_565
O3 Ta Ga3 114.0(2) 5_445 2_565
O3 Ta Ga3 54.4(2) 1_655 2_565
O3 Ta Ga3 97.9(2) 2_565 2_565
O3 Ta Ga3 160.1(2) 6_655 2_565
O3 Ta Ga3 31.5(2) 3_565 2_565
Ga3 Ta Ga3 145.010(15) 4_445 2_565
Ga3 Ta Ga3 62.76(3) 4_446 2_565
Ga3 Ta Ga3 62.76(3) 1_656 2_565
Ga3 Ta Ga3 145.010(15) 1_655 2_565
O3 Ta Ga3 160.1(2) 4_445 2_564
O3 Ta Ga3 54.4(2) 5_445 2_564
O3 Ta Ga3 114.0(2) 1_655 2_564
O3 Ta Ga3 31.5(2) 2_565 2_564
O3 Ta Ga3 87.2(2) 6_655 2_564
O3 Ta Ga3 97.9(2) 3_565 2_564
Ga3 Ta Ga3 62.76(3) 4_445 2_564
Ga3 Ta Ga3 145.010(15) 4_446 2_564
Ga3 Ta Ga3 145.010(15) 1_656 2_564
Ga3 Ta Ga3 62.76(3) 1_655 2_564
Ga3 Ta Ga3 106.08(4) 2_565 2_564
O1 Ga2 O2 118.3(3) 2_456 2_455
O1 Ga2 O2 118.3(3) 2_456 5_445
O2 Ga2 O2 99.3(4) 2_455 5_445
O1 Ga2 O2 118.3(3) 2_456 6
O2 Ga2 O2 99.3(4) 2_455 6
O2 Ga2 O2 99.3(4) 5_445 6
O1 Ga2 La 134.67(3) 2_456 4_445
O2 Ga2 La 56.1(3) 2_455 4_445
O2 Ga2 La 43.3(2) 5_445 4_445
O2 Ga2 La 106.5(3) 6 4_445
O1 Ga2 La 134.67(3) 2_456 2_455
O2 Ga2 La 43.3(2) 2_455 2_455
O2 Ga2 La 106.5(3) 5_445 2_455
O2 Ga2 La 56.1(3) 6 2_455
La Ga2 La 76.04(5) 4_445 2_455
O1 Ga2 La 134.67(3) 2_456 .
O2 Ga2 La 106.5(3) 2_455 .
O2 Ga2 La 56.1(3) 5_445 .
O2 Ga2 La 43.3(2) 6 .
La Ga2 La 76.04(5) 4_445 .
La Ga2 La 76.04(5) 2_455 .
O1 Ga2 La 41.82(3) 2_456 4_446
O2 Ga2 La 98.3(3) 2_455 4_446
O2 Ga2 La 89.1(3) 5_445 4_446
O2 Ga2 La 159.0(3) 6 4_446
La Ga2 La 92.852(5) 4_445 4_446
La Ga2 La 139.555(6) 2_455 4_446
La Ga2 La 139.555(6) . 4_446
O1 Ga2 La 41.82(3) 2_456 2_456
O2 Ga2 La 89.1(3) 2_455 2_456
O2 Ga2 La 159.0(3) 5_445 2_456
O2 Ga2 La 98.3(3) 6 2_456
La Ga2 La 139.555(6) 4_445 2_456
La Ga2 La 92.852(5) 2_455 2_456
La Ga2 La 139.555(6) . 2_456
La Ga2 La 70.54(4) 4_446 2_456
O1 Ga2 La 41.82(3) 2_456 1_556
O2 Ga2 La 159.0(3) 2_455 1_556
O2 Ga2 La 98.3(3) 5_445 1_556
O2 Ga2 La 89.1(3) 6 1_556
La Ga2 La 139.555(6) 4_445 1_556
La Ga2 La 139.554(6) 2_455 1_556
La Ga2 La 92.852(5) . 1_556
La Ga2 La 70.54(4) 4_446 1_556
La Ga2 La 70.54(4) 2_456 1_556
O3 Ga3 O3 132.7(4) 6 1_554
O3 Ga3 O2 99.5(4) 6 .
O3 Ga3 O2 109.5(3) 1_554 .
O3 Ga3 O2 109.5(3) 6 6_554
O3 Ga3 O2 99.5(4) 1_554 6_554
O2 Ga3 O2 103.1(5) . 6_554
O3 Ga3 Ta 109.6(3) 6 1_454
O3 Ga3 Ta 35.1(2) 1_554 1_454
O2 Ga3 Ta 144.4(2) . 1_454
O2 Ga3 Ta 86.2(3) 6_554 1_454
O3 Ga3 Ta 35.08(19) 6 1_455
O3 Ga3 Ta 109.6(3) 1_554 1_455
O2 Ga3 Ta 86.2(3) . 1_455
O2 Ga3 Ta 144.5(2) 6_554 1_455
Ta Ga3 Ta 106.08(4) 1_454 1_455
Ga2 O1 La 110.0(3) 2_566 .
Ga2 O1 La 110.0(3) 2_566 2_565
La O1 La 109.0(3) . 2_565
Ga2 O1 La 110.0(3) 2_566 4_455
La O1 La 109.0(3) . 4_455
La O1 La 108.9(3) 2_565 4_455
Ga2 O2 Ga3 117.4(6) 2_565 .
Ga2 O2 La 105.0(3) 2_565 .
Ga3 O2 La 120.4(3) . .
Ga2 O2 La 91.0(3) 2_565 4_455
Ga3 O2 La 112.7(3) . 4_455
La O2 La 106.0(4) . 4_455
Ga3 O3 Ta 113.4(3) 1_556 1_455
Ga3 O3 Ga1 113.4(3) 1_556 1_455
Ta O3 Ga1 0.0 1_455 1_455
Ga3 O3 La 138.2(3) 1_556 4_455
Ta O3 La 104.0(4) 1_455 4_455
Ga1 O3 La 104.0(4) 1_455 4_455
loop_
_geom_bond_atom_site_label_1
_geom_bond_atom_site_label_2
_geom_bond_distance
_geom_bond_site_symmetry_2
La O3 2.403(7) 3_565
La O3 2.403(7) 5_445
La O2 2.411(8) 6
La O2 2.411(8) .
La O1 2.569(5) 2_455
La O1 2.569(5) .
La O2 2.818(8) 5_445
La O2 2.818(8) 3_565
La Ga2 3.3953(18) .
La Ga2 3.3953(18) 2_565
La Ta 3.4735(6) .
La Ga1 3.4735(6) .
Ga1 O3 1.993(7) 4_445
Ga1 O3 1.993(7) 5_445
Ga1 O3 1.993(7) 1_655
Ga1 O3 1.993(7) 2_565
Ga1 O3 1.993(7) 6_655
Ga1 O3 1.993(7) 3_565
Ga1 La 3.4735(6) 2
Ga1 La 3.4735(6) 4
Ta O3 1.993(7) 4_445
Ta O3 1.993(7) 5_445
Ta O3 1.993(7) 1_655
Ta O3 1.993(7) 2_565
Ta O3 1.993(7) 6_655
Ta O3 1.993(7) 3_565
Ta Ga3 3.1824(8) 4_445
Ta Ga3 3.1824(8) 4_446
Ta Ga3 3.1824(8) 1_656
Ta Ga3 3.1824(8) 1_655
Ta Ga3 3.1825(8) 2_565
Ta Ga3 3.1825(8) 2_564
Ga2 O1 1.821(15) 2_456
Ga2 O2 1.846(8) 2_455
Ga2 O2 1.846(8) 5_445
Ga2 O2 1.846(8) 6
Ga2 La 3.3953(18) 4_445
Ga2 La 3.3953(18) 2_455
Ga2 La 3.6216(19) 4_446
Ga2 La 3.6216(19) 2_456
Ga2 La 3.6216(19) 1_556
Ga3 O3 1.812(8) 6
Ga3 O3 1.812(8) 1_554
Ga3 O2 1.876(8) .
Ga3 O2 1.876(8) 6_554
Ga3 Ta 3.1824(8) 1_454
Ga3 Ta 3.1824(8) 1_455
O1 Ga2 1.821(15) 2_566
O1 La 2.569(5) 2_565
O1 La 2.569(5) 4_455
O2 Ga2 1.846(8) 2_565
O2 La 2.818(8) 4_455
O3 Ga3 1.812(8) 1_556
O3 Ta 1.993(7) 1_455
O3 Ga1 1.993(7) 1_455
O3 La 2.403(7) 4_455
