#------------------------------------------------------------------------------
#$Date: 2017-02-07 17:13:06 +0200 (Tue, 07 Feb 2017) $
#$Revision: 191892 $
#$URL: file:///home/coder/svn-repositories/cod/cif/2/10/35/2103530.cif $
#------------------------------------------------------------------------------
#
# This file is available in the Crystallography Open Database (COD),
# http://www.crystallography.net/. The original data for this entry
# were provided by IUCr Journals, http://journals.iucr.org/.
#
# The file may be used within the scientific community so long as
# proper attribution is given to the journal article from which the
# data were obtained.
#
data_2103530
loop_
_publ_author_name
'Pavlovska, A.'
'Werner, S.'
'Maximov, B.'
'Mill, B.'
_publ_section_title
;
 Pressure-induced phase transitions of piezoelectric single crystals
 from the langasite family: La~3~Nb~0.5~Ga~5.5~O~14~ and
 La~3~Ta~0.5~Ga~5.5~O~14~
;
_journal_issue                   6
_journal_name_full               'Acta Crystallographica Section B'
_journal_page_first              939
_journal_page_last               947
_journal_paper_doi               10.1107/S0108768102010273
_journal_volume                  58
_journal_year                    2002
_chemical_formula_sum            'Ga5.54 La3 O14 Ta0.46'
_chemical_formula_weight         1110.22
_chemical_name_systematic        ?
_space_group_IT_number           150
_symmetry_space_group_name_Hall  'P 3 2"'
_symmetry_space_group_name_H-M   'P 3 2 1'
_atom_sites_solution_hydrogens   geom
_atom_sites_solution_primary     direct
_atom_sites_solution_secondary   difmap
_audit_creation_method           SHELXL-97
_cell_angle_alpha                90.00
_cell_angle_beta                 90.00
_cell_angle_gamma                120.00
_cell_formula_units_Z            1
_cell_length_a                   8.155
_cell_length_b                   8.155
_cell_length_c                   5.091
_cell_measurement_temperature    293(2)
_cell_volume                     293.2
_computing_structure_refinement  'SHELXL-97 (Sheldrick, 1997)'
_computing_structure_solution    'SHELXS-97 (Sheldrick, 1990)'
_diffrn_ambient_pressure         3.3E+6
_diffrn_ambient_temperature      293(2)
_diffrn_measured_fraction_theta_full 0.598
_diffrn_measured_fraction_theta_max 0.598
_diffrn_radiation_monochromator  graphite
_diffrn_radiation_source         'fine-focus sealed tube'
_diffrn_radiation_type           MoK\a
_diffrn_radiation_wavelength     0.71073
_diffrn_reflns_av_R_equivalents  0.0631
_diffrn_reflns_av_sigmaI/netI    0.0386
_diffrn_reflns_limit_h_max       10
_diffrn_reflns_limit_h_min       -10
_diffrn_reflns_limit_k_max       11
_diffrn_reflns_limit_k_min       -11
_diffrn_reflns_limit_l_max       4
_diffrn_reflns_limit_l_min       -4
_diffrn_reflns_number            1624
_diffrn_reflns_theta_full        32.00
_diffrn_reflns_theta_max         32.00
_diffrn_reflns_theta_min         2.88
_exptl_absorpt_coefficient_mu    27.532
_exptl_crystal_density_diffrn    6.287
_exptl_crystal_density_method    'not measured'
_exptl_crystal_F_000             488
_refine_diff_density_max         1.600
_refine_diff_density_min         -1.269
_refine_diff_density_rms         0.360
_refine_ls_abs_structure_details 'Flack H D (1983), Acta Cryst. A39, 876-881'
_refine_ls_abs_structure_Flack   -0.01(6)
_refine_ls_extinction_coef       0.142(14)
_refine_ls_extinction_expression Fc^*^=kFc[1+0.001xFc^2^\l^3^/sin(2\q)]^-1/4^
_refine_ls_extinction_method     SHELXL
_refine_ls_goodness_of_fit_ref   1.038
_refine_ls_hydrogen_treatment    mixed
_refine_ls_matrix_type           full
_refine_ls_number_parameters     39
_refine_ls_number_reflns         433
_refine_ls_number_restraints     0
_refine_ls_restrained_S_all      1.038
_refine_ls_R_factor_all          0.0376
_refine_ls_R_factor_gt           0.0373
_refine_ls_shift/su_max          0.000
_refine_ls_shift/su_mean         0.000
_refine_ls_structure_factor_coef Fsqd
_refine_ls_weighting_details
'calc w=1/[\s^2^(Fo^2^)+(0.1000P)^2^+0.0000P] where P=(Fo^2^+2Fc^2^)/3'
_refine_ls_weighting_scheme      calc
_refine_ls_wR_factor_gt          0.1082
_refine_ls_wR_factor_ref         0.1088
_reflns_number_gt                431
_reflns_number_total             433
_reflns_threshold_expression     >2sigma(I)
_cod_data_source_file            sn0021-3.3cad4.cif
_cod_data_source_block           3.3cad4
_cod_depositor_comments
;
The _diffrn_ambient_pressure was taken from the original data block
header, after comparison with the paper text and supplementary
material.

Saulius Gra\<zulis
;
_cod_database_code               2103530
loop_
_symmetry_equiv_pos_as_xyz
'x, y, z'
'y, x, -z'
'-y, x-y, z'
'-x+y, -x, z'
'-x, -x+y, -z'
'x-y, -y, -z'
loop_
_atom_site_label
_atom_site_type_symbol
_atom_site_fract_x
_atom_site_fract_y
_atom_site_fract_z
_atom_site_U_iso_or_equiv
_atom_site_adp_type
_atom_site_occupancy
_atom_site_symmetry_multiplicity
_atom_site_calc_flag
_atom_site_refinement_flags
La La 0.42716(12) 0.0000 0.0000 0.0224(4) Uani 1 2 d S
Ga1 Ga 0.0000 0.0000 0.0000 0.0239(6) Uani 0.50 6 d SP
Ta Ta 0.0000 0.0000 0.0000 0.0239(6) Uani 0.50 6 d SP
Ga2 Ga 0.6667 0.3333 0.4680(8) 0.0243(8) Uani 1 3 d S
Ga3 Ga 0.7636(2) 0.0000 0.5000 0.0245(6) Uani 1 2 d S
O1 O 0.3333 -0.3333 0.163(5) 0.030(5) Uani 1 3 d S
O2 O 0.5468(14) -0.1479(12) -0.301(3) 0.027(3) Uani 1 1 d .
O3 O 0.7831(12) -0.1433(14) 0.240(2) 0.027(3) Uani 1 1 d .
loop_
_atom_site_aniso_label
_atom_site_aniso_U_11
_atom_site_aniso_U_22
_atom_site_aniso_U_33
_atom_site_aniso_U_23
_atom_site_aniso_U_13
_atom_site_aniso_U_12
La 0.0206(4) 0.0187(5) 0.0272(10) 0.0009(4) 0.00043(19) 0.0094(2)
Ga1 0.0200(6) 0.0200(6) 0.032(2) 0.000 0.000 0.0100(3)
Ta 0.0200(6) 0.0200(6) 0.032(2) 0.000 0.000 0.0100(3)
Ga2 0.0202(7) 0.0202(7) 0.033(2) 0.000 0.000 0.0101(4)
Ga3 0.0198(7) 0.0207(9) 0.033(2) -0.0063(8) -0.0031(4) 0.0104(5)
O1 0.017(4) 0.017(4) 0.055(18) 0.000 0.000 0.009(2)
O2 0.018(4) 0.023(4) 0.036(10) -0.015(4) 0.007(4) 0.006(4)
O3 0.017(4) 0.033(5) 0.022(10) -0.018(4) -0.015(4) 0.005(4)
loop_
_atom_type_symbol
_atom_type_description
_atom_type_scat_dispersion_real
_atom_type_scat_dispersion_imag
_atom_type_scat_source
La La -0.2871 2.4523 'International Tables Vol C Tables 4.2.6.8 and 6.1.1.4'
Ta Ta -0.7052 6.5227 'International Tables Vol C Tables 4.2.6.8 and 6.1.1.4'
Ga Ga 0.2307 1.6083 'International Tables Vol C Tables 4.2.6.8 and 6.1.1.4'
O O 0.0106 0.0060 'International Tables Vol C Tables 4.2.6.8 and 6.1.1.4'
loop_
_geom_angle_atom_site_label_1
_geom_angle_atom_site_label_2
_geom_angle_atom_site_label_3
_geom_angle
_geom_angle_site_symmetry_1
_geom_angle_site_symmetry_3
O3 La O3 66.7(6) 5_665 3_545
O3 La O2 140.1(4) 5_665 6
O3 La O2 108.4(4) 3_545 6
O3 La O2 108.4(4) 5_665 .
O3 La O2 140.1(4) 3_545 .
O2 La O2 99.2(6) 6 .
O3 La O1 123.7(3) 5_665 .
O3 La O1 80.3(4) 3_545 .
O2 La O1 92.3(4) 6 .
O2 La O1 70.1(5) . .
O3 La O1 80.3(4) 5_665 2_655
O3 La O1 123.7(3) 3_545 2_655
O2 La O1 70.1(5) 6 2_655
O2 La O1 92.3(4) . 2_655
O1 La O1 153.23(9) . 2_655
O3 La O2 65.6(4) 5_665 3_545
O3 La O2 78.8(4) 3_545 3_545
O2 La O2 154.28(14) 6 3_545
O2 La O2 64.6(4) . 3_545
O1 La O2 64.1(5) . 3_545
O1 La O2 127.3(5) 2_655 3_545
O3 La O2 78.8(4) 5_665 5_665
O3 La O2 65.6(4) 3_545 5_665
O2 La O2 64.6(4) 6 5_665
O2 La O2 154.28(14) . 5_665
O1 La O2 127.3(5) . 5_665
O1 La O2 64.1(5) 2_655 5_665
O2 La O2 137.3(4) 3_545 5_665
O3 La Ga2 110.6(3) 5_665 .
O3 La Ga2 86.6(3) 3_545 .
O2 La Ga2 31.7(2) 6 .
O2 La Ga2 128.6(3) . .
O1 La Ga2 111.6(5) . .
O1 La Ga2 63.4(5) 2_655 .
O2 La Ga2 165.2(2) 3_545 .
O2 La Ga2 32.9(2) 5_665 .
O3 La Ga2 86.6(3) 5_665 2_545
O3 La Ga2 110.6(3) 3_545 2_545
O2 La Ga2 128.6(3) 6 2_545
O2 La Ga2 31.7(2) . 2_545
O1 La Ga2 63.4(5) . 2_545
O1 La Ga2 111.6(5) 2_655 2_545
O2 La Ga2 32.9(2) 3_545 2_545
O2 La Ga2 165.2(2) 5_665 2_545
Ga2 La Ga2 159.89(4) . 2_545
O3 La Ga1 33.4(3) 5_665 .
O3 La Ga1 33.4(3) 3_545 .
O2 La Ga1 130.4(3) 6 .
O2 La Ga1 130.4(3) . .
O1 La Ga1 103.38(5) . .
O1 La Ga1 103.38(5) 2_655 .
O2 La Ga1 68.7(2) 3_545 .
O2 La Ga1 68.7(2) 5_665 .
Ga2 La Ga1 100.057(18) . .
Ga2 La Ga1 100.058(18) 2_545 .
O3 La Ta 33.4(3) 5_665 .
O3 La Ta 33.4(3) 3_545 .
O2 La Ta 130.4(3) 6 .
O2 La Ta 130.4(3) . .
O1 La Ta 103.38(5) . .
O1 La Ta 103.38(5) 2_655 .
O2 La Ta 68.7(2) 3_545 .
O2 La Ta 68.7(2) 5_665 .
Ga2 La Ta 100.057(18) . .
Ga2 La Ta 100.058(18) 2_545 .
Ga1 La Ta 0.0 . .
O3 Ga1 O3 86.0(4) 2_545 5_665
O3 Ga1 O3 106.5(6) 2_545 3_545
O3 Ga1 O3 84.1(5) 5_665 3_545
O3 Ga1 O3 86.0(4) 2_545 6_455
O3 Ga1 O3 86.0(4) 5_665 6_455
O3 Ga1 O3 163.5(6) 3_545 6_455
O3 Ga1 O3 84.1(5) 2_545 1_455
O3 Ga1 O3 163.5(6) 5_665 1_455
O3 Ga1 O3 86.0(4) 3_545 1_455
O3 Ga1 O3 106.5(6) 6_455 1_455
O3 Ga1 O3 163.5(6) 2_545 4_665
O3 Ga1 O3 106.5(6) 5_665 4_665
O3 Ga1 O3 86.0(4) 3_545 4_665
O3 Ga1 O3 84.1(5) 6_455 4_665
O3 Ga1 O3 86.0(4) 1_455 4_665
O3 Ga1 La 42.1(3) 2_545 4
O3 Ga1 La 126.8(3) 5_665 4
O3 Ga1 La 98.3(3) 3_545 4
O3 Ga1 La 98.3(3) 6_455 4
O3 Ga1 La 42.1(3) 1_455 4
O3 Ga1 La 126.8(3) 4_665 4
O3 Ga1 La 98.3(3) 2_545 .
O3 Ga1 La 42.1(3) 5_665 .
O3 Ga1 La 42.1(3) 3_545 .
O3 Ga1 La 126.8(3) 6_455 .
O3 Ga1 La 126.8(3) 1_455 .
O3 Ga1 La 98.3(3) 4_665 .
La Ga1 La 120.0 4 .
O3 Ga1 La 126.8(3) 2_545 2
O3 Ga1 La 98.3(3) 5_665 2
O3 Ga1 La 126.8(3) 3_545 2
O3 Ga1 La 42.1(3) 6_455 2
O3 Ga1 La 98.3(3) 1_455 2
O3 Ga1 La 42.1(3) 4_665 2
La Ga1 La 120.0 4 2
La Ga1 La 120.0 . 2
O3 Ta O3 86.0(4) 2_545 5_665
O3 Ta O3 106.5(6) 2_545 3_545
O3 Ta O3 84.1(5) 5_665 3_545
O3 Ta O3 86.0(4) 2_545 6_455
O3 Ta O3 86.0(4) 5_665 6_455
O3 Ta O3 163.5(6) 3_545 6_455
O3 Ta O3 84.1(5) 2_545 1_455
O3 Ta O3 163.5(6) 5_665 1_455
O3 Ta O3 86.0(4) 3_545 1_455
O3 Ta O3 106.5(6) 6_455 1_455
O3 Ta O3 163.5(6) 2_545 4_665
O3 Ta O3 106.5(6) 5_665 4_665
O3 Ta O3 86.0(4) 3_545 4_665
O3 Ta O3 84.1(5) 6_455 4_665
O3 Ta O3 86.0(4) 1_455 4_665
O3 Ta La 42.1(3) 2_545 4
O3 Ta La 126.8(3) 5_665 4
O3 Ta La 98.3(3) 3_545 4
O3 Ta La 98.3(3) 6_455 4
O3 Ta La 42.1(3) 1_455 4
O3 Ta La 126.8(3) 4_665 4
O3 Ta La 98.3(3) 2_545 .
O3 Ta La 42.1(3) 5_665 .
O3 Ta La 42.1(3) 3_545 .
O3 Ta La 126.8(3) 6_455 .
O3 Ta La 126.8(3) 1_455 .
O3 Ta La 98.3(3) 4_665 .
La Ta La 120.0 4 .
O3 Ta La 126.8(3) 2_545 2
O3 Ta La 98.3(3) 5_665 2
O3 Ta La 126.8(3) 3_545 2
O3 Ta La 42.1(3) 6_455 2
O3 Ta La 98.3(3) 1_455 2
O3 Ta La 42.1(3) 4_665 2
La Ta La 120.0 4 2
La Ta La 120.0 . 2
O2 Ga2 O2 100.5(5) 6 2_655
O2 Ga2 O2 100.5(5) 6 5_665
O2 Ga2 O2 100.5(5) 2_655 5_665
O2 Ga2 O1 117.4(4) 6 2_656
O2 Ga2 O1 117.4(4) 2_655 2_656
O2 Ga2 O1 117.4(4) 5_665 2_656
O2 Ga2 La 43.9(3) 6 .
O2 Ga2 La 107.7(4) 2_655 .
O2 Ga2 La 56.6(4) 5_665 .
O1 Ga2 La 134.46(5) 2_656 .
O2 Ga2 La 56.6(4) 6 2_655
O2 Ga2 La 43.9(3) 2_655 2_655
O2 Ga2 La 107.7(5) 5_665 2_655
O1 Ga2 La 134.46(5) 2_656 2_655
La Ga2 La 76.36(7) . 2_655
O2 Ga2 La 107.7(4) 6 4_665
O2 Ga2 La 56.6(4) 2_655 4_665
O2 Ga2 La 43.9(3) 5_665 4_665
O1 Ga2 La 134.46(5) 2_656 4_665
La Ga2 La 76.36(7) . 4_665
La Ga2 La 76.36(7) 2_655 4_665
O3 Ga3 O3 132.0(5) . 6_556
O3 Ga3 O2 109.8(5) . 1_556
O3 Ga3 O2 99.8(5) 6_556 1_556
O3 Ga3 O2 99.8(5) . 6
O3 Ga3 O2 109.8(5) 6_556 6
O2 Ga3 O2 102.7(7) 1_556 6
Ga2 O1 La 108.9(5) 2_546 .
Ga2 O1 La 108.9(5) 2_546 4_655
La O1 La 110.0(5) . 4_655
Ga2 O1 La 108.9(5) 2_546 2_545
La O1 La 110.0(5) . 2_545
La O1 La 110.0(5) 4_655 2_545
Ga2 O2 Ga3 118.7(7) 2_545 1_554
Ga2 O2 La 104.4(4) 2_545 .
Ga3 O2 La 120.4(4) 1_554 .
Ga2 O2 La 90.6(4) 2_545 4_655
Ga3 O2 La 112.7(4) 1_554 4_655
La O2 La 105.5(5) . 4_655
Ga3 O3 Ta 114.0(5) . 1_655
Ga3 O3 Ga1 114.0(5) . 1_655
Ta O3 Ga1 0.0 1_655 1_655
Ga3 O3 La 137.2(5) . 4_655
Ta O3 La 104.6(5) 1_655 4_655
Ga1 O3 La 104.6(5) 1_655 4_655
loop_
_geom_bond_atom_site_label_1
_geom_bond_atom_site_label_2
_geom_bond_distance
_geom_bond_site_symmetry_2
La O3 2.412(8) 5_665
La O3 2.412(8) 3_545
La O2 2.436(10) 6
La O2 2.436(10) .
La O1 2.567(8) .
La O1 2.567(8) 2_655
La O2 2.839(12) 3_545
La O2 2.839(12) 5_665
La Ga2 3.402(3) .
La Ga2 3.402(3) 2_545
La Ga1 3.4835(10) .
La Ta 3.4835(10) .
Ga1 O3 1.979(11) 2_545
Ga1 O3 1.979(11) 5_665
Ga1 O3 1.979(11) 3_545
Ga1 O3 1.979(11) 6_455
Ga1 O3 1.979(11) 1_455
Ga1 O3 1.979(11) 4_665
Ga1 La 3.4835(10) 4
Ga1 La 3.4836(10) 2
Ta O3 1.979(11) 2_545
Ta O3 1.979(11) 5_665
Ta O3 1.979(11) 3_545
Ta O3 1.979(11) 6_455
Ta O3 1.979(11) 1_455
Ta O3 1.979(11) 4_665
Ta La 3.4835(10) 4
Ta La 3.4836(10) 2
Ga2 O2 1.846(11) 6
Ga2 O2 1.846(11) 2_655
Ga2 O2 1.846(11) 5_665
Ga2 O1 1.88(2) 2_656
Ga2 La 3.402(3) 2_655
Ga2 La 3.402(3) 4_665
Ga3 O3 1.826(11) .
Ga3 O3 1.826(11) 6_556
Ga3 O2 1.864(11) 1_556
Ga3 O2 1.864(11) 6
O1 Ga2 1.88(2) 2_546
O1 La 2.567(8) 4_655
O1 La 2.567(8) 2_545
O2 Ga2 1.846(11) 2_545
O2 Ga3 1.864(11) 1_554
O2 La 2.839(12) 4_655
O3 Ta 1.979(11) 1_655
O3 Ga1 1.979(11) 1_655
O3 La 2.412(8) 4_655
