#------------------------------------------------------------------------------
#$Date: 2016-02-20 02:53:41 +0200 (Sat, 20 Feb 2016) $
#$Revision: 176768 $
#$URL: svn://www.crystallography.net/cod/cif/2/10/30/2103010.cif $
#------------------------------------------------------------------------------
#
# This file is available in the Crystallography Open Database (COD),
# http://www.crystallography.net/. The original data for this entry
# were provided by IUCr Journals, http://journals.iucr.org/.
#
# The file may be used within the scientific community so long as
# proper attribution is given to the journal article from which the
# data were obtained.
#
data_2103010
loop_
_publ_author_name
'Prinz, Sebastian'
'Sparta, Karine M.'
'Roth, Georg'
_publ_section_title
;
 Temperature dependence of the <i>A</i>V~3~O~7~ (<i>A</i> = Ca, Sr)
 structure
;
_journal_coeditor_code           BM5051
_journal_issue                   6
_journal_name_full               'Acta Crystallographica Section B'
_journal_page_first              836
_journal_page_last               842
_journal_paper_doi               10.1107/S0108768107050550
_journal_volume                  63
_journal_year                    2007
_chemical_formula_moiety         'O7 V3, Ca'
_chemical_formula_sum            'Ca O7 V3'
_chemical_formula_weight         304.90
_chemical_name_systematic
;
 ?
;
_space_group_IT_number           62
_symmetry_cell_setting           orthorhombic
_symmetry_space_group_name_Hall  '-P 2ac 2n'
_symmetry_space_group_name_H-M   'P n m a'
_atom_sites_solution_hydrogens   none
_atom_sites_solution_primary     direct
_atom_sites_solution_secondary   difmap
_audit_creation_method           SHELXL-97
_cell_angle_alpha                90.00
_cell_angle_beta                 90.00
_cell_angle_gamma                90.00
_cell_formula_units_Z            4
_cell_length_a                   10.423(3)
_cell_length_b                   10.367(2)
_cell_length_c                   5.2902(15)
_cell_measurement_reflns_used    2725
_cell_measurement_temperature    187.0(10)
_cell_measurement_theta_max      23.4
_cell_measurement_theta_min      1.3
_cell_volume                     571.6(3)
_computing_cell_refinement       'X-AREA (Stoe, 2002)'
_computing_data_collection       'X-AREA (Stoe, 2002)'
_computing_data_reduction        'X-RED (Stoe, 1996)'
_computing_molecular_graphics    'ATOMS Version 5.1'
_computing_publication_material  'WinGX 1.64.05 (Farrugia, 1999)'
_computing_structure_refinement  'SHELXL-97 (Sheldrick, 1997)'
_computing_structure_solution    'SHELXS-97 (Sheldrick, 1997)'
_diffrn_ambient_temperature      187.0(10)
_diffrn_detector_area_resol_mean 0
_diffrn_measured_fraction_theta_full 0.952
_diffrn_measured_fraction_theta_max 0.952
_diffrn_measurement_device_type  'STOE IPDS 2'
_diffrn_measurement_method       'Rotation method'
_diffrn_radiation_monochromator  graphite
_diffrn_radiation_source         'fine-focus sealed tube'
_diffrn_radiation_type           MoK\a
_diffrn_radiation_wavelength     0.71073
_diffrn_reflns_av_R_equivalents  0.0348
_diffrn_reflns_av_sigmaI/netI    0.0197
_diffrn_reflns_limit_h_max       11
_diffrn_reflns_limit_h_min       -11
_diffrn_reflns_limit_k_max       10
_diffrn_reflns_limit_k_min       -10
_diffrn_reflns_limit_l_max       5
_diffrn_reflns_limit_l_min       -5
_diffrn_reflns_number            2458
_diffrn_reflns_theta_full        22.98
_diffrn_reflns_theta_max         22.98
_diffrn_reflns_theta_min         3.91
_diffrn_standards_decay_%        0
_diffrn_standards_interval_count 0
_diffrn_standards_interval_time  0
_diffrn_standards_number         0
_exptl_absorpt_coefficient_mu    5.680
_exptl_absorpt_correction_T_max  0.4708
_exptl_absorpt_correction_T_min  0.3172
_exptl_absorpt_correction_type   numerical
_exptl_absorpt_process_details   'X-SHAPE (Stoe & Cie, 1996)'
_exptl_crystal_colour            brown
_exptl_crystal_density_diffrn    3.543
_exptl_crystal_density_method    'not measured'
_exptl_crystal_F_000             580
_exptl_crystal_size_max          0.3
_exptl_crystal_size_mid          0.2
_exptl_crystal_size_min          0.1
_refine_diff_density_max         0.261
_refine_diff_density_min         -0.286
_refine_ls_extinction_coef       0.0192(18)
_refine_ls_extinction_expression Fc^*^=kFc[1+0.001xFc^2^\l^3^/sin(2\q)]^-1/4^
_refine_ls_extinction_method     SHELXL
_refine_ls_goodness_of_fit_ref   0.937
_refine_ls_hydrogen_treatment    none
_refine_ls_matrix_type           full
_refine_ls_number_parameters     38
_refine_ls_number_reflns         401
_refine_ls_number_restraints     0
_refine_ls_restrained_S_all      0.937
_refine_ls_R_factor_all          0.0221
_refine_ls_R_factor_gt           0.0190
_refine_ls_shift/su_max          0.000
_refine_ls_shift/su_mean         0.000
_refine_ls_structure_factor_coef Fsqd
_refine_ls_weighting_details
'calc w=1/[\s^2^(Fo^2^)+(0.0482P)^2^+0.0000P] where P=(Fo^2^+2Fc^2^)/3'
_refine_ls_weighting_scheme      calc
_refine_ls_wR_factor_gt          0.0546
_refine_ls_wR_factor_ref         0.0557
_reflns_number_gt                368
_reflns_number_total             401
_reflns_threshold_expression     >2sigma(I)
_cod_data_source_file            bm5051.cif
_cod_data_source_block           CaV3O7_187K
_cod_original_cell_volume        571.7(3)
_cod_database_code               2103010
loop_
_symmetry_equiv_pos_as_xyz
'x, y, z'
'-x+1/2, -y, z+1/2'
'x+1/2, -y+1/2, -z+1/2'
'-x, y+1/2, -z'
'-x, -y, -z'
'x-1/2, y, -z-1/2'
'-x-1/2, y-1/2, z-1/2'
'x, -y-1/2, z'
loop_
_atom_site_type_symbol
_atom_site_label
_atom_site_fract_x
_atom_site_fract_y
_atom_site_fract_z
_atom_site_U_iso_or_equiv
_atom_site_adp_type
_atom_site_calc_flag
_atom_site_refinement_flags
_atom_site_occupancy
Ca Ca1 0.08491(9) 0.2500 0.29974(15) 0.0060(3) Uani d S 1
V V1 0.28887(7) 0.2500 0.79229(13) 0.0047(3) Uani d S 1
V V2 0.18737(6) 0.52023(6) 0.78361(10) 0.0048(3) Uani d . 1
O O1 0.4440(3) 0.2500 0.8091(5) 0.0091(8) Uiso d S 1
O O2 0.0395(2) 0.5657(2) 0.7663(4) 0.0106(6) Uiso d . 1
O O3 0.22040(19) 0.3797(2) 0.0261(4) 0.0058(5) Uiso d . 1
O O4 0.22675(19) 0.3795(2) 0.5482(4) 0.0060(5) Uiso d . 1
loop_
_atom_site_aniso_label
_atom_site_aniso_U_11
_atom_site_aniso_U_22
_atom_site_aniso_U_33
_atom_site_aniso_U_12
_atom_site_aniso_U_13
_atom_site_aniso_U_23
Ca1 0.0041(5) 0.0060(6) 0.0078(6) 0.000 -0.0005(3) 0.000
V1 0.0041(5) 0.0047(6) 0.0053(5) 0.000 -0.0004(3) 0.000
V2 0.0045(4) 0.0046(4) 0.0052(4) 0.0008(2) 0.0000(2) 0.0001(2)
loop_
_atom_type_symbol
_atom_type_description
_atom_type_scat_dispersion_real
_atom_type_scat_dispersion_imag
_atom_type_scat_source
O O 0.0106 0.0060 'International Tables Vol C Tables 4.2.6.8 and 6.1.1.4'
Ca Ca 0.2262 0.3064 'International Tables Vol C Tables 4.2.6.8 and 6.1.1.4'
V V 0.3005 0.5294 'International Tables Vol C Tables 4.2.6.8 and 6.1.1.4'
loop_
_geom_angle_atom_site_label_1
_geom_angle_atom_site_label_2
_geom_angle_atom_site_label_3
_geom_angle_site_symmetry_1
_geom_angle_site_symmetry_3
_geom_angle
O2 Ca1 O2 4_546 5_566 109.79(12)
O2 Ca1 O4 4_546 . 152.25(8)
O2 Ca1 O4 5_566 . 88.06(7)
O2 Ca1 O4 4_546 8_565 88.06(7)
O2 Ca1 O4 5_566 8_565 152.25(8)
O4 Ca1 O4 . 8_565 68.33(10)
O2 Ca1 O3 4_546 8_565 77.34(7)
O2 Ca1 O3 5_566 8_565 133.37(8)
O4 Ca1 O3 . 8_565 106.20(8)
O4 Ca1 O3 8_565 8_565 69.95(7)
O2 Ca1 O3 4_546 . 133.37(8)
O2 Ca1 O3 5_566 . 77.34(7)
O4 Ca1 O3 . . 69.95(7)
O4 Ca1 O3 8_565 . 106.20(8)
O3 Ca1 O3 8_565 . 67.24(10)
O2 Ca1 O1 4_546 6_557 78.49(7)
O2 Ca1 O1 5_566 6_557 78.49(7)
O4 Ca1 O1 . 6_557 84.82(8)
O4 Ca1 O1 8_565 6_557 84.82(8)
O3 Ca1 O1 8_565 6_557 145.35(5)
O3 Ca1 O1 . 6_557 145.35(5)
O2 Ca1 V1 4_546 . 117.83(6)
O2 Ca1 V1 5_566 . 117.83(6)
O4 Ca1 V1 . . 35.22(5)
O4 Ca1 V1 8_565 . 35.22(5)
O3 Ca1 V1 8_565 . 95.41(6)
O3 Ca1 V1 . . 95.41(6)
O1 Ca1 V1 6_557 . 74.59(7)
O2 Ca1 V2 4_546 2_564 165.32(6)
O2 Ca1 V2 5_566 2_564 78.97(6)
O4 Ca1 V2 . 2_564 34.91(5)
O4 Ca1 V2 8_565 2_564 88.58(6)
O3 Ca1 V2 8_565 2_564 88.09(6)
O3 Ca1 V2 . 2_564 35.17(5)
O1 Ca1 V2 6_557 2_564 115.42(5)
V1 Ca1 V2 . 2_564 64.76(2)
O2 Ca1 V2 4_546 7_655 78.97(6)
O2 Ca1 V2 5_566 7_655 165.32(6)
O4 Ca1 V2 . 7_655 88.58(6)
O4 Ca1 V2 8_565 7_655 34.91(5)
O3 Ca1 V2 8_565 7_655 35.17(5)
O3 Ca1 V2 . 7_655 88.09(6)
O1 Ca1 V2 6_557 7_655 115.42(5)
V1 Ca1 V2 . 7_655 64.76(2)
V2 Ca1 V2 2_564 7_655 90.17(4)
O2 Ca1 V1 4_546 1_554 103.15(5)
O2 Ca1 V1 5_566 1_554 103.15(5)
O4 Ca1 V1 . 1_554 92.70(6)
O4 Ca1 V1 8_565 1_554 92.70(6)
O3 Ca1 V1 8_565 1_554 34.07(5)
O3 Ca1 V1 . 1_554 34.07(5)
O1 Ca1 V1 6_557 1_554 177.00(8)
V1 Ca1 V1 . 1_554 102.41(4)
V2 Ca1 V1 2_564 1_554 62.75(2)
V2 Ca1 V1 7_655 1_554 62.75(2)
O2 Ca1 O1 4_546 6_556 68.50(6)
O2 Ca1 O1 5_566 6_556 68.50(6)
O4 Ca1 O1 . 6_556 139.18(6)
O4 Ca1 O1 8_565 6_556 139.18(6)
O3 Ca1 O1 8_565 6_556 72.48(7)
O3 Ca1 O1 . 6_556 72.48(7)
O1 Ca1 O1 6_557 6_556 120.11(11)
V1 Ca1 O1 . 6_556 165.31(6)
V2 Ca1 O1 2_564 6_556 105.65(4)
V2 Ca1 O1 7_655 6_556 105.65(4)
V1 Ca1 O1 1_554 6_556 62.90(6)
O2 Ca1 V2 4_546 4_546 15.78(6)
O2 Ca1 V2 5_566 4_546 94.72(7)
O4 Ca1 V2 . 4_546 153.36(6)
O4 Ca1 V2 8_565 4_546 100.18(5)
O3 Ca1 V2 8_565 4_546 91.05(5)
O3 Ca1 V2 . 4_546 136.49(6)
O1 Ca1 V2 6_557 4_546 69.88(5)
V1 Ca1 V2 . 4_546 124.92(2)
V2 Ca1 V2 2_564 4_546 170.32(3)
V2 Ca1 V2 7_655 4_546 94.68(2)
V1 Ca1 V2 1_554 4_546 112.31(2)
O1 Ca1 V2 6_556 4_546 64.97(4)
O2 Ca1 V2 4_546 5_566 94.72(7)
O2 Ca1 V2 5_566 5_566 15.78(6)
O4 Ca1 V2 . 5_566 100.18(5)
O4 Ca1 V2 8_565 5_566 153.36(6)
O3 Ca1 V2 8_565 5_566 136.49(6)
O3 Ca1 V2 . 5_566 91.05(5)
O1 Ca1 V2 6_557 5_566 69.88(5)
V1 Ca1 V2 . 5_566 124.92(2)
V2 Ca1 V2 2_564 5_566 94.68(2)
V2 Ca1 V2 7_655 5_566 170.32(3)
V1 Ca1 V2 1_554 5_566 112.31(2)
O1 Ca1 V2 6_556 5_566 64.97(4)
V2 Ca1 V2 4_546 5_566 79.35(3)
O2 Ca1 V1 4_546 6_557 68.32(6)
O2 Ca1 V1 5_566 6_557 68.32(6)
O4 Ca1 V1 . 6_557 101.05(6)
O4 Ca1 V1 8_565 6_557 101.05(6)
O3 Ca1 V1 8_565 6_557 144.90(5)
O3 Ca1 V1 . 6_557 144.90(5)
O1 Ca1 V1 6_557 6_557 19.65(7)
V1 Ca1 V1 . 6_557 94.24(3)
V2 Ca1 V1 2_564 6_557 126.35(2)
V2 Ca1 V1 7_655 6_557 126.35(2)
V1 Ca1 V1 1_554 6_557 163.35(3)
O1 Ca1 V1 6_556 6_557 100.45(6)
V2 Ca1 V1 4_546 6_557 56.25(2)
V2 Ca1 V1 5_566 6_557 56.25(2)
O2 Ca1 V2 4_546 . 145.98(6)
O2 Ca1 V2 5_566 . 70.50(6)
O4 Ca1 V2 . . 22.55(5)
O4 Ca1 V2 8_565 . 82.79(5)
O3 Ca1 V2 8_565 . 128.54(6)
O3 Ca1 V2 . . 80.57(5)
O1 Ca1 V2 6_557 . 68.12(5)
V1 Ca1 V2 . . 47.596(16)
V2 Ca1 V2 2_564 . 47.319(15)
V2 Ca1 V2 7_655 . 109.18(3)
V1 Ca1 V2 1_554 . 109.93(3)
O1 Ca1 V2 6_556 . 134.683(15)
V2 Ca1 V2 4_546 . 137.43(3)
V2 Ca1 V2 5_566 . 80.16(2)
V1 Ca1 V2 6_557 . 81.36(2)
O2 Ca1 V2 4_546 8_565 70.50(6)
O2 Ca1 V2 5_566 8_565 145.98(6)
O4 Ca1 V2 . 8_565 82.79(5)
O4 Ca1 V2 8_565 8_565 22.55(5)
O3 Ca1 V2 8_565 8_565 80.57(5)
O3 Ca1 V2 . 8_565 128.54(6)
O1 Ca1 V2 6_557 8_565 68.12(5)
V1 Ca1 V2 . 8_565 47.596(16)
V2 Ca1 V2 2_564 8_565 109.18(3)
V2 Ca1 V2 7_655 8_565 47.319(15)
V1 Ca1 V2 1_554 8_565 109.93(3)
O1 Ca1 V2 6_556 8_565 134.683(15)
V2 Ca1 V2 4_546 8_565 80.16(2)
V2 Ca1 V2 5_566 8_565 137.43(3)
V1 Ca1 V2 6_557 8_565 81.36(2)
V2 Ca1 V2 . 8_565 90.57(3)
O2 Ca1 V2 4_546 8_564 58.69(5)
O2 Ca1 V2 5_566 8_564 127.65(6)
O4 Ca1 V2 . 8_564 126.53(6)
O4 Ca1 V2 8_565 8_564 79.59(5)
O3 Ca1 V2 8_565 8_564 20.45(5)
O3 Ca1 V2 . 8_564 80.10(6)
O1 Ca1 V2 6_557 8_564 134.55(3)
V1 Ca1 V2 . 8_564 110.81(3)
V2 Ca1 V2 2_564 8_564 106.64(3)
V2 Ca1 V2 7_655 8_564 46.201(15)
V1 Ca1 V2 1_554 8_564 46.264(15)
O1 Ca1 V2 6_556 8_564 59.78(4)
V2 Ca1 V2 4_546 8_564 71.32(2)
V2 Ca1 V2 5_566 8_564 124.18(3)
V1 Ca1 V2 6_557 8_564 126.99(2)
V2 Ca1 V2 . 8_564 148.96(3)
V2 Ca1 V2 8_565 8_564 82.81(2)
O2 Ca1 V2 4_546 1_554 127.65(6)
O2 Ca1 V2 5_566 1_554 58.69(5)
O4 Ca1 V2 . 1_554 79.59(5)
O4 Ca1 V2 8_565 1_554 126.53(6)
O3 Ca1 V2 8_565 1_554 80.10(6)
O3 Ca1 V2 . 1_554 20.45(5)
O1 Ca1 V2 6_557 1_554 134.55(3)
V1 Ca1 V2 . 1_554 110.81(3)
V2 Ca1 V2 2_564 1_554 46.201(15)
V2 Ca1 V2 7_655 1_554 106.64(3)
V1 Ca1 V2 1_554 1_554 46.264(15)
O1 Ca1 V2 6_556 1_554 59.78(4)
V2 Ca1 V2 4_546 1_554 124.18(3)
V2 Ca1 V2 5_566 1_554 71.32(2)
V1 Ca1 V2 6_557 1_554 126.99(2)
V2 Ca1 V2 . 1_554 82.81(2)
V2 Ca1 V2 8_565 1_554 148.96(3)
V2 Ca1 V2 8_564 1_554 87.40(3)
O2 Ca1 O2 4_546 . 132.43(4)
O2 Ca1 O2 5_566 . 51.46(7)
O4 Ca1 O2 . . 45.30(6)
O4 Ca1 O2 8_565 . 100.80(6)
O3 Ca1 O2 8_565 . 149.58(7)
O3 Ca1 O2 . . 89.09(6)
O1 Ca1 O2 6_557 . 56.35(4)
V1 Ca1 O2 . . 66.98(3)
V2 Ca1 O2 2_564 . 62.25(3)
V2 Ca1 O2 7_655 . 131.12(4)
V1 Ca1 O2 1_554 . 122.69(4)
O1 Ca1 O2 6_556 . 119.78(4)
V2 Ca1 O2 4_546 . 119.33(4)
V2 Ca1 O2 5_566 . 58.48(3)
V1 Ca1 O2 6_557 . 64.10(3)
V2 Ca1 O2 . . 22.93(3)
V2 Ca1 O2 8_565 . 101.90(4)
V2 Ca1 O2 8_564 . 168.78(4)
V2 Ca1 O2 1_554 . 83.40(4)
O1 V1 O3 . 1_556 109.19(9)
O1 V1 O3 . 8_566 109.19(9)
O3 V1 O3 1_556 8_566 86.56(12)
O1 V1 O4 . 8_565 111.33(9)
O3 V1 O4 1_556 8_565 139.47(10)
O3 V1 O4 8_566 8_565 80.02(9)
O1 V1 O4 . . 111.33(9)
O3 V1 O4 1_556 . 80.02(9)
O3 V1 O4 8_566 . 139.47(10)
O4 V1 O4 8_565 . 85.80(12)
O1 V1 V2 . 8_565 110.705(18)
O3 V1 V2 1_556 8_565 121.49(7)
O3 V1 V2 8_566 8_565 40.52(6)
O4 V1 V2 8_565 8_565 40.29(6)
O4 V1 V2 . 8_565 120.71(7)
O1 V1 V2 . . 110.705(18)
O3 V1 V2 1_556 . 40.52(6)
O3 V1 V2 8_566 . 121.49(7)
O4 V1 V2 8_565 . 120.71(7)
O4 V1 V2 . . 40.29(6)
V2 V1 V2 8_565 . 138.59(4)
O1 V1 Ca1 . . 132.36(10)
O3 V1 Ca1 1_556 . 104.98(6)
O3 V1 Ca1 8_566 . 104.98(6)
O4 V1 Ca1 8_565 . 44.36(6)
O4 V1 Ca1 . . 44.36(6)
V2 V1 Ca1 8_565 . 76.397(17)
V2 V1 Ca1 . . 76.397(17)
O1 V1 Ca1 . 1_556 125.23(10)
O3 V1 Ca1 1_556 1_556 43.93(6)
O3 V1 Ca1 8_566 1_556 43.93(6)
O4 V1 Ca1 8_565 1_556 108.03(7)
O4 V1 Ca1 . 1_556 108.03(7)
V2 V1 Ca1 8_565 1_556 78.036(18)
V2 V1 Ca1 . 1_556 78.036(18)
Ca1 V1 Ca1 . 1_556 102.41(4)
O1 V1 Ca1 . 6_657 31.82(10)
O3 V1 Ca1 1_556 6_657 86.38(6)
O3 V1 Ca1 8_566 6_657 86.38(6)
O4 V1 Ca1 8_565 6_657 130.12(6)
O4 V1 Ca1 . 6_657 130.12(6)
V2 V1 Ca1 8_565 6_657 107.353(17)
V2 V1 Ca1 . 6_657 107.353(17)
Ca1 V1 Ca1 . 6_657 164.18(3)
Ca1 V1 Ca1 1_556 6_657 93.41(3)
O1 V1 Ca1 . 6_656 48.58(10)
O3 V1 Ca1 1_556 6_656 134.79(6)
O3 V1 Ca1 8_566 6_656 134.79(6)
O4 V1 Ca1 8_565 6_656 76.35(6)
O4 V1 Ca1 . 6_656 76.35(6)
V2 V1 Ca1 8_565 6_656 103.710(17)
V2 V1 Ca1 . 6_656 103.710(17)
Ca1 V1 Ca1 . 6_656 83.78(3)
Ca1 V1 Ca1 1_556 6_656 173.80(3)
Ca1 V1 Ca1 6_657 6_656 80.40(3)
O1 V1 Ca1 . 2_565 75.758(14)
O3 V1 Ca1 1_556 2_565 54.58(6)
O3 V1 Ca1 8_566 2_565 138.53(6)
O4 V1 Ca1 8_565 2_565 138.19(6)
O4 V1 Ca1 . 2_565 54.96(6)
V2 V1 Ca1 8_565 2_565 173.54(3)
V2 V1 Ca1 . 2_565 34.95(2)
Ca1 V1 Ca1 . 2_565 99.277(15)
Ca1 V1 Ca1 1_556 2_565 98.450(15)
Ca1 V1 Ca1 6_657 2_565 78.124(13)
Ca1 V1 Ca1 6_656 2_565 80.364(13)
O2 V2 O4 . 2_565 108.77(10)
O2 V2 O4 . . 112.38(10)
O4 V2 O4 2_565 . 138.79(5)
O2 V2 O3 . 2_565 105.89(10)
O4 V2 O3 2_565 2_565 89.52(9)
O4 V2 O3 . 2_565 81.37(9)
O2 V2 O3 . 1_556 114.79(10)
O4 V2 O3 2_565 1_556 81.24(9)
O4 V2 O3 . 1_556 80.03(8)
O3 V2 O3 2_565 1_556 139.14(4)
O2 V2 V2 . 2_565 120.66(7)
O4 V2 V2 2_565 2_565 40.58(6)
O4 V2 V2 . 2_565 111.55(7)
O3 V2 V2 2_565 2_565 118.41(7)
O3 V2 V2 1_556 2_565 40.70(6)
O2 V2 V2 . 2_564 114.15(7)
O4 V2 V2 2_565 2_564 120.56(7)
O4 V2 V2 . 2_564 40.53(6)
O3 V2 V2 2_565 2_564 40.88(6)
O3 V2 V2 1_556 2_564 113.39(7)
V2 V2 V2 2_565 2_564 125.19(4)
O2 V2 V1 . . 127.67(9)
O4 V2 V1 2_565 . 108.90(6)
O4 V2 V1 . . 40.55(6)
O3 V2 V1 2_565 . 109.38(6)
O3 V2 V1 1_556 . 40.27(6)
V2 V2 V1 2_565 . 72.54(3)
V2 V2 V1 2_564 . 74.17(3)
O2 V2 Ca1 . 2_565 117.94(9)
O4 V2 Ca1 2_565 2_565 44.27(6)
O4 V2 Ca1 . 2_565 113.27(7)
O3 V2 Ca1 2_565 2_565 45.42(6)
O3 V2 Ca1 1_556 2_565 112.56(7)
V2 V2 Ca1 2_565 2_565 76.58(3)
V2 V2 Ca1 2_564 2_565 79.22(3)
V1 V2 Ca1 . 2_565 114.38(3)
O2 V2 Ca1 . 5_566 23.19(9)
O4 V2 Ca1 2_565 5_566 95.34(6)
O4 V2 Ca1 . 5_566 123.98(6)
O3 V2 Ca1 2_565 5_566 87.31(6)
O3 V2 Ca1 1_556 5_566 132.96(6)
V2 V2 Ca1 2_565 5_566 121.88(3)
V2 V2 Ca1 2_564 5_566 108.56(3)
V1 V2 Ca1 . 5_566 150.19(3)
Ca1 V2 Ca1 2_565 5_566 95.02(2)
O2 V2 Ca1 . . 84.94(8)
O4 V2 Ca1 2_565 . 164.67(6)
O4 V2 Ca1 . . 27.86(6)
O3 V2 Ca1 2_565 . 93.30(6)
O3 V2 Ca1 1_556 . 86.82(7)
V2 V2 Ca1 2_565 . 126.52(3)
V2 V2 Ca1 2_564 . 56.10(2)
V1 V2 Ca1 . . 56.01(2)
Ca1 V2 Ca1 2_565 . 135.30(3)
Ca1 V2 Ca1 5_566 . 99.84(2)
O2 V2 Ca1 . 1_556 89.34(8)
O4 V2 Ca1 2_565 1_556 90.34(6)
O4 V2 Ca1 . 1_556 88.21(6)
O3 V2 Ca1 2_565 1_556 163.95(7)
O3 V2 Ca1 1_556 1_556 25.49(6)
V2 V2 Ca1 2_565 1_556 54.58(2)
V2 V2 Ca1 2_564 1_556 128.02(3)
V1 V2 Ca1 . 1_556 55.70(2)
Ca1 V2 Ca1 2_565 1_556 131.15(2)
Ca1 V2 Ca1 5_566 1_556 108.68(2)
Ca1 V2 Ca1 . 1_556 82.81(2)
V1 O1 Ca1 . 6_657 128.53(15)
V1 O1 Ca1 . 6_656 111.37(13)
Ca1 O1 Ca1 6_657 6_656 120.11(11)
V1 O1 Ca1 . 1_556 37.89(8)
Ca1 O1 Ca1 6_657 1_556 90.63(8)
Ca1 O1 Ca1 6_656 1_556 149.26(9)
V1 O1 Ca1 . . 32.60(8)
Ca1 O1 Ca1 6_657 . 161.13(11)
Ca1 O1 Ca1 6_656 . 78.76(6)
Ca1 O1 Ca1 1_556 . 70.50(5)
V2 O2 Ca1 . 5_566 141.03(14)
V2 O2 Ca1 . . 72.13(8)
Ca1 O2 Ca1 5_566 . 128.54(7)
V2 O2 Ca1 . 1_556 68.87(8)
Ca1 O2 Ca1 5_566 1_556 140.65(7)
Ca1 O2 Ca1 . 1_556 77.22(5)
V2 O2 Ca1 . 2_565 42.98(7)
Ca1 O2 Ca1 5_566 2_565 98.40(7)
Ca1 O2 Ca1 . 2_565 105.61(5)
Ca1 O2 Ca1 1_556 2_565 101.89(5)
V1 O3 V2 1_554 2_564 128.42(11)
V1 O3 V2 1_554 1_554 99.20(9)
V2 O3 V2 2_564 1_554 98.42(9)
V1 O3 Ca1 1_554 . 102.00(9)
V2 O3 Ca1 2_564 . 99.42(8)
V2 O3 Ca1 1_554 . 134.07(10)
V1 O3 Ca1 1_554 6_656 65.36(6)
V2 O3 Ca1 2_564 6_656 64.36(6)
V2 O3 Ca1 1_554 6_656 123.08(8)
Ca1 O3 Ca1 . 6_656 102.79(6)
V1 O3 Ca1 1_554 1_554 48.93(5)
V2 O3 Ca1 2_564 1_554 160.72(9)
V2 O3 Ca1 1_554 1_554 65.99(6)
Ca1 O3 Ca1 . 1_554 99.68(7)
Ca1 O3 Ca1 6_656 1_554 113.48(5)
V1 O3 Ca1 1_554 2_564 104.64(7)
V2 O3 Ca1 2_564 2_564 60.90(6)
V2 O3 Ca1 1_554 2_564 43.60(5)
Ca1 O3 Ca1 . 2_564 153.16(7)
Ca1 O3 Ca1 6_656 2_564 85.55(4)
Ca1 O3 Ca1 1_554 2_564 100.17(4)
V2 O4 V2 2_564 . 98.88(10)
V2 O4 V1 2_564 . 132.75(11)
V2 O4 V1 . . 99.16(9)
V2 O4 Ca1 2_564 . 100.82(8)
V2 O4 Ca1 . . 129.59(10)
V1 O4 Ca1 . . 100.42(9)
V2 O4 Ca1 2_564 6_656 58.16(5)
V2 O4 Ca1 . 6_656 132.39(8)
V1 O4 Ca1 . 6_656 77.66(6)
Ca1 O4 Ca1 . 6_656 97.13(6)
V2 O4 Ca1 2_564 1_556 161.80(9)
V2 O4 Ca1 . 1_556 65.64(6)
V1 O4 Ca1 . 1_556 47.04(5)
Ca1 O4 Ca1 . 1_556 96.68(6)
Ca1 O4 Ca1 6_656 1_556 124.55(5)
V2 O4 Ca1 2_564 2_565 63.93(6)
V2 O4 Ca1 . 2_565 43.20(5)
V1 O4 Ca1 . 2_565 104.09(7)
Ca1 O4 Ca1 . 2_565 155.34(7)
Ca1 O4 Ca1 6_656 2_565 90.81(4)
Ca1 O4 Ca1 1_556 2_565 97.92(4)
V2 O4 Ca1 2_564 5_566 90.23(7)
V2 O4 Ca1 . 5_566 37.40(5)
V1 O4 Ca1 . 5_566 128.26(8)
Ca1 O4 Ca1 . 5_566 96.65(6)
Ca1 O4 Ca1 6_656 5_566 147.37(5)
Ca1 O4 Ca1 1_556 5_566 82.79(3)
Ca1 O4 Ca1 2_565 5_566 65.74(3)
loop_
_geom_bond_atom_site_label_1
_geom_bond_atom_site_label_2
_geom_bond_site_symmetry_2
_geom_bond_distance
Ca1 O2 4_546 2.336(3)
Ca1 O2 5_566 2.336(3)
Ca1 O4 . 2.391(2)
Ca1 O4 8_565 2.391(2)
Ca1 O3 8_565 2.429(2)
Ca1 O3 . 2.429(2)
Ca1 O1 6_557 2.538(3)
Ca1 V1 . 3.3629(13)
Ca1 V2 2_564 3.3639(11)
Ca1 V2 7_655 3.3639(11)
Ca1 V1 1_554 3.4243(13)
Ca1 O1 6_556 3.540(3)
Ca1 V2 4_546 3.7314(11)
Ca1 V2 5_566 3.7314(11)
Ca1 V1 6_557 3.7656(14)
Ca1 V2 . 3.9423(10)
Ca1 V2 8_565 3.9423(10)
Ca1 V2 8_564 4.0552(10)
Ca1 V2 1_554 4.0552(10)
Ca1 O2 . 4.126(2)
V1 O1 . 1.619(3)
V1 O3 1_556 1.961(2)
V1 O3 8_566 1.961(2)
V1 O4 8_565 1.972(2)
V1 O4 . 1.972(2)
V1 V2 8_565 2.9950(9)
V1 V2 . 2.9950(9)
V1 Ca1 1_556 3.4243(13)
V1 Ca1 6_657 3.7656(14)
V1 Ca1 6_656 4.3966(15)
V1 Ca1 2_565 5.3482(12)
V2 O2 . 1.614(2)
V2 O4 2_565 1.960(2)
V2 O4 . 1.962(2)
V2 O3 2_565 1.964(2)
V2 O3 1_556 1.971(2)
V2 V2 2_565 2.9795(9)
V2 V2 2_564 2.9795(9)
V2 Ca1 2_565 3.3639(11)
V2 Ca1 5_566 3.7314(11)
V2 Ca1 1_556 4.0552(10)
O1 Ca1 6_657 2.538(3)
O1 Ca1 6_656 3.540(3)
O1 Ca1 1_556 4.554(3)
O2 Ca1 5_566 2.336(3)
O2 Ca1 1_556 4.347(2)
O2 Ca1 2_565 4.360(3)
O3 V1 1_554 1.961(2)
O3 V2 2_564 1.964(2)
O3 V2 1_554 1.971(2)
O3 Ca1 6_656 4.134(2)
O3 Ca1 1_554 4.309(2)
O3 Ca1 2_564 4.504(2)
O4 V2 2_564 1.960(2)
O4 Ca1 6_656 4.373(2)
O4 Ca1 1_556 4.449(2)
O4 Ca1 2_565 4.514(2)
O4 Ca1 5_566 5.095(2)
