#------------------------------------------------------------------------------
#$Date: 2017-02-07 17:13:06 +0200 (Tue, 07 Feb 2017) $
#$Revision: 191892 $
#$URL: file:///home/coder/svn-repositories/cod/cif/2/10/35/2103529.cif $
#------------------------------------------------------------------------------
#
# This file is available in the Crystallography Open Database (COD),
# http://www.crystallography.net/. The original data for this entry
# were provided by IUCr Journals, http://journals.iucr.org/.
#
# The file may be used within the scientific community so long as
# proper attribution is given to the journal article from which the
# data were obtained.
#
data_2103529
loop_
_publ_author_name
'Pavlovska, A.'
'Werner, S.'
'Maximov, B.'
'Mill, B.'
_publ_section_title
;
 Pressure-induced phase transitions of piezoelectric single crystals
 from the langasite family: La~3~Nb~0.5~Ga~5.5~O~14~ and
 La~3~Ta~0.5~Ga~5.5~O~14~
;
_journal_issue                   6
_journal_name_full               'Acta Crystallographica Section B'
_journal_page_first              939
_journal_page_last               947
_journal_paper_doi               10.1107/S0108768102010273
_journal_volume                  58
_journal_year                    2002
_chemical_formula_sum            'Ga5.54 La3 O14 Ta0.46'
_chemical_formula_weight         1110.22
_chemical_name_systematic        ?
_space_group_IT_number           150
_symmetry_space_group_name_Hall  'P 3 2"'
_symmetry_space_group_name_H-M   'P 3 2 1'
_atom_sites_solution_hydrogens   geom
_atom_sites_solution_primary     direct
_atom_sites_solution_secondary   difmap
_audit_creation_method           SHELXL-97
_cell_angle_alpha                90.00
_cell_angle_beta                 90.00
_cell_angle_gamma                120.00
_cell_formula_units_Z            1
_cell_length_a                   8.167
_cell_length_b                   8.167
_cell_length_c                   5.098
_cell_measurement_temperature    293(2)
_cell_volume                     294.5
_computing_structure_refinement  'SHELXL-97 (Sheldrick, 1997)'
_computing_structure_solution    'SHELXS-97 (Sheldrick, 1990)'
_diffrn_ambient_pressure         2.3E+6
_diffrn_ambient_temperature      293(2)
_diffrn_measured_fraction_theta_full 0.685
_diffrn_measured_fraction_theta_max 0.685
_diffrn_radiation_source         synchrotron
_diffrn_radiation_wavelength     0.55880
_diffrn_reflns_av_R_equivalents  0.0000
_diffrn_reflns_av_sigmaI/netI    0.0595
_diffrn_reflns_limit_h_max       7
_diffrn_reflns_limit_h_min       -7
_diffrn_reflns_limit_k_max       12
_diffrn_reflns_limit_k_min       -12
_diffrn_reflns_limit_l_max       7
_diffrn_reflns_limit_l_min       -7
_diffrn_reflns_number            412
_diffrn_reflns_theta_full        24.58
_diffrn_reflns_theta_max         24.58
_diffrn_reflns_theta_min         3.14
_exptl_absorpt_coefficient_mu    14.467
_exptl_crystal_density_diffrn    6.260
_exptl_crystal_density_method    'not measured'
_exptl_crystal_F_000             488
_refine_diff_density_max         2.045
_refine_diff_density_min         -2.205
_refine_diff_density_rms         0.508
_refine_ls_abs_structure_details 'Flack H D (1983), Acta Cryst. A39, 876-881'
_refine_ls_abs_structure_Flack   0.13(7)
_refine_ls_extinction_coef       0.045(10)
_refine_ls_extinction_expression Fc^*^=kFc[1+0.001xFc^2^\l^3^/sin(2\q)]^-1/4^
_refine_ls_extinction_method     SHELXL
_refine_ls_goodness_of_fit_ref   0.970
_refine_ls_hydrogen_treatment    mixed
_refine_ls_matrix_type           full
_refine_ls_number_parameters     39
_refine_ls_number_reflns         412
_refine_ls_number_restraints     0
_refine_ls_restrained_S_all      0.970
_refine_ls_R_factor_all          0.0396
_refine_ls_R_factor_gt           0.0396
_refine_ls_shift/su_max          0.000
_refine_ls_shift/su_mean         0.000
_refine_ls_structure_factor_coef Fsqd
_refine_ls_weighting_details
'calc w=1/[\s^2^(Fo^2^)+(0.1000P)^2^+0.0000P] where P=(Fo^2^+2Fc^2^)/3'
_refine_ls_weighting_scheme      calc
_refine_ls_wR_factor_gt          0.1069
_refine_ls_wR_factor_ref         0.1069
_reflns_number_gt                412
_reflns_number_total             412
_reflns_threshold_expression     >2sigma(I)
_cod_data_source_file            sn0021-2.3d3.cif
_cod_data_source_block           2.3d3
_cod_depositor_comments
;
The _diffrn_ambient_pressure was taken from the original data block
header, after comparison with the paper text and supplementary
material.

Changing (with the help of Perl) all _diffrn_radiation_source values in
the files that were reportedly colected on the HASYLAB D3 beamline
(Hamburg) from 'fine-focus sealed tube' to synchrotron.

The command was:

perl -i -ne \
    "s/'fine-focus sealed tube'/synchrotron/; \
    print unless /_diffrn_radiation_type|_diffrn_radiation_monochromator/" \
    *d3*.cif \
    11.57split.cif \
    21.85split.cif \
    22.85split.cif

Saulius Gra\<zulis
;
_cod_database_code               2103529
loop_
_symmetry_equiv_pos_as_xyz
'x, y, z'
'y, x, -z'
'-y, x-y, z'
'-x+y, -x, z'
'-x, -x+y, -z'
'x-y, -y, -z'
loop_
_atom_site_label
_atom_site_type_symbol
_atom_site_fract_x
_atom_site_fract_y
_atom_site_fract_z
_atom_site_U_iso_or_equiv
_atom_site_adp_type
_atom_site_occupancy
_atom_site_symmetry_multiplicity
_atom_site_calc_flag
_atom_site_refinement_flags
La La -0.42650(12) 0.0000 0.0000 0.0069(4) Uani 1 2 d S
Ga1 Ga 0.0000 0.0000 0.0000 0.0059(4) Uani 0.50 6 d SP
Ta Ta 0.0000 0.0000 0.0000 0.0059(4) Uani 0.50 6 d SP
Ga2 Ga -0.6667 -0.3333 0.4690(3) 0.0064(5) Uani 1 3 d S
Ga3 Ga -0.7627(3) 0.0000 -0.5000 0.0086(4) Uani 1 2 d S
O1 O -0.3333 0.3333 0.177(2) 0.011(3) Uani 1 3 d S
O2 O -0.6905(16) -0.1474(12) 0.3039(15) 0.010(2) Uani 1 1 d .
O3 O -0.1432(14) 0.0766(17) 0.2387(12) 0.011(2) Uani 1 1 d .
loop_
_atom_site_aniso_label
_atom_site_aniso_U_11
_atom_site_aniso_U_22
_atom_site_aniso_U_33
_atom_site_aniso_U_23
_atom_site_aniso_U_13
_atom_site_aniso_U_12
La 0.0079(5) 0.0069(5) 0.0055(4) -0.0003(3) -0.00014(15) 0.0035(3)
Ga1 0.0073(6) 0.0073(6) 0.0032(5) 0.000 0.000 0.0037(3)
Ta 0.0073(6) 0.0073(6) 0.0032(5) 0.000 0.000 0.0037(3)
Ga2 0.0080(8) 0.0080(8) 0.0031(6) 0.000 0.000 0.0040(4)
Ga3 0.0076(8) 0.0097(14) 0.0092(6) 0.0058(6) 0.0029(3) 0.0048(7)
O1 0.012(5) 0.012(5) 0.009(4) 0.000 0.000 0.006(3)
O2 0.016(5) 0.009(4) 0.010(3) -0.002(2) -0.004(3) 0.010(5)
O3 0.008(5) 0.016(5) 0.012(3) -0.008(4) 0.000(3) 0.009(4)
loop_
_atom_type_symbol
_atom_type_description
_atom_type_scat_dispersion_real
_atom_type_scat_dispersion_imag
_atom_type_scat_source
La La -0.9400 1.6200 'International Tables Vol C Tables 4.2.6.8 and 6.1.1.4'
Ta Ta -0.9400 4.4000 'International Tables Vol C Tables 4.2.6.8 and 6.1.1.4'
Ga Ga 0.2490 1.0600 'International Tables Vol C Tables 4.2.6.8 and 6.1.1.4'
O O 0.0028 0.0036 'International Tables Vol C Tables 4.2.6.8 and 6.1.1.4'
loop_
_geom_angle_atom_site_label_1
_geom_angle_atom_site_label_2
_geom_angle_atom_site_label_3
_geom_angle
_geom_angle_site_symmetry_1
_geom_angle_site_symmetry_3
O3 La O3 67.3(4) . 6
O3 La O2 139.3(4) . 6
O3 La O2 107.8(3) 6 6
O3 La O2 107.8(3) . .
O3 La O2 139.3(4) 6 .
O2 La O2 100.5(5) 6 .
O3 La O1 125.0(3) . 2_455
O3 La O1 79.1(3) 6 2_455
O2 La O1 91.1(2) 6 2_455
O2 La O1 71.6(3) . 2_455
O3 La O1 79.1(3) . .
O3 La O1 125.0(3) 6 .
O2 La O1 71.6(3) 6 .
O2 La O1 91.1(2) . .
O1 La O1 153.25(6) 2_455 .
O3 La O2 66.7(4) . 4_445
O3 La O2 78.9(3) 6 4_445
O2 La O2 153.98(15) 6 4_445
O2 La O2 63.6(4) . 4_445
O1 La O2 64.9(3) 2_455 4_445
O1 La O2 126.0(3) . 4_445
O3 La O2 78.9(3) . 2_565
O3 La O2 66.7(4) 6 2_565
O2 La O2 63.5(4) 6 2_565
O2 La O2 153.97(15) . 2_565
O1 La O2 126.0(3) 2_455 2_565
O1 La O2 64.9(3) . 2_565
O2 La O2 138.5(4) 4_445 2_565
O3 La Ga2 87.0(2) . .
O3 La Ga2 110.2(3) 6 .
O2 La Ga2 129.1(2) 6 .
O2 La Ga2 31.1(2) . .
O1 La Ga2 64.9(3) 2_455 .
O1 La Ga2 110.1(2) . .
O2 La Ga2 32.44(19) 4_445 .
O2 La Ga2 165.60(17) 2_565 .
O3 La Ga2 110.2(3) . 2_565
O3 La Ga2 87.0(2) 6 2_565
O2 La Ga2 31.1(2) 6 2_565
O2 La Ga2 129.1(2) . 2_565
O1 La Ga2 110.1(2) 2_455 2_565
O1 La Ga2 64.9(3) . 2_565
O2 La Ga2 165.60(17) 4_445 2_565
O2 La Ga2 32.44(19) 2_565 2_565
Ga2 La Ga2 159.73(3) . 2_565
O3 La Ta 33.66(18) . .
O3 La Ta 33.66(18) 6 .
O2 La Ta 129.8(2) 6 .
O2 La Ta 129.8(2) . .
O1 La Ta 103.37(3) 2_455 .
O1 La Ta 103.37(3) . .
O2 La Ta 69.3(2) 4_445 .
O2 La Ta 69.3(2) 2_565 .
Ga2 La Ta 100.135(15) . .
Ga2 La Ta 100.136(15) 2_565 .
O3 La Ga1 33.66(18) . .
O3 La Ga1 33.66(18) 6 .
O2 La Ga1 129.8(2) 6 .
O2 La Ga1 129.8(2) . .
O1 La Ga1 103.37(3) 2_455 .
O1 La Ga1 103.37(3) . .
O2 La Ga1 69.3(2) 4_445 .
O2 La Ga1 69.3(2) 2_565 .
Ga2 La Ga1 100.135(15) . .
Ga2 La Ga1 100.136(15) 2_565 .
Ta La Ga1 0.0 . .
O3 Ga1 O3 105.2(7) 6 3
O3 Ga1 O3 86.6(3) 6 2
O3 Ga1 O3 83.9(5) 3 2
O3 Ga1 O3 83.9(5) 6 .
O3 Ga1 O3 86.6(3) 3 .
O3 Ga1 O3 164.3(7) 2 .
O3 Ga1 O3 86.6(3) 6 5
O3 Ga1 O3 164.3(6) 3 5
O3 Ga1 O3 86.6(3) 2 5
O3 Ga1 O3 105.2(7) . 5
O3 Ga1 O3 164.3(6) 6 4
O3 Ga1 O3 86.6(3) 3 4
O3 Ga1 O3 105.2(7) 2 4
O3 Ga1 O3 86.6(3) . 4
O3 Ga1 O3 83.9(5) 5 4
O3 Ga1 La 97.8(3) 6 2
O3 Ga1 La 41.9(2) 3 2
O3 Ga1 La 41.9(2) 2 2
O3 Ga1 La 127.4(3) . 2
O3 Ga1 La 127.4(3) 5 2
O3 Ga1 La 97.8(3) 4 2
O3 Ga1 La 127.4(3) 6 4
O3 Ga1 La 127.4(3) 3 4
O3 Ga1 La 97.8(3) 2 4
O3 Ga1 La 97.8(3) . 4
O3 Ga1 La 41.9(2) 5 4
O3 Ga1 La 41.9(2) 4 4
La Ga1 La 120.0 2 4
O3 Ga1 La 41.9(2) 6 .
O3 Ga1 La 97.8(3) 3 .
O3 Ga1 La 127.4(3) 2 .
O3 Ga1 La 41.9(2) . .
O3 Ga1 La 97.8(3) 5 .
O3 Ga1 La 127.4(3) 4 .
La Ga1 La 120.0 2 .
La Ga1 La 120.0 4 .
O3 Ta O3 105.2(7) 6 3
O3 Ta O3 86.6(3) 6 2
O3 Ta O3 83.9(5) 3 2
O3 Ta O3 83.9(5) 6 .
O3 Ta O3 86.6(3) 3 .
O3 Ta O3 164.3(7) 2 .
O3 Ta O3 86.6(3) 6 5
O3 Ta O3 164.3(6) 3 5
O3 Ta O3 86.6(3) 2 5
O3 Ta O3 105.2(7) . 5
O3 Ta O3 164.3(6) 6 4
O3 Ta O3 86.6(3) 3 4
O3 Ta O3 105.2(7) 2 4
O3 Ta O3 86.6(3) . 4
O3 Ta O3 83.9(5) 5 4
O3 Ta La 97.8(3) 6 2
O3 Ta La 41.9(2) 3 2
O3 Ta La 41.9(2) 2 2
O3 Ta La 127.4(3) . 2
O3 Ta La 127.4(3) 5 2
O3 Ta La 97.8(3) 4 2
O3 Ta La 127.4(3) 6 4
O3 Ta La 127.4(3) 3 4
O3 Ta La 97.8(3) 2 4
O3 Ta La 97.8(3) . 4
O3 Ta La 41.9(2) 5 4
O3 Ta La 41.9(2) 4 4
La Ta La 120.0 2 4
O3 Ta La 41.9(2) 6 .
O3 Ta La 97.8(3) 3 .
O3 Ta La 127.4(3) 2 .
O3 Ta La 41.9(2) . .
O3 Ta La 97.8(3) 5 .
O3 Ta La 127.4(3) 4 .
La Ta La 120.0 2 .
La Ta La 120.0 4 .
O1 Ga2 O2 117.4(3) 2_456 3_455
O1 Ga2 O2 117.4(3) 2_456 .
O2 Ga2 O2 100.5(3) 3_455 .
O1 Ga2 O2 117.4(3) 2_456 4_445
O2 Ga2 O2 100.5(3) 3_455 4_445
O2 Ga2 O2 100.5(3) . 4_445
O1 Ga2 La 134.50(2) 2_456 4_445
O2 Ga2 La 57.2(3) 3_455 4_445
O2 Ga2 La 107.6(3) . 4_445
O2 Ga2 La 43.3(4) 4_445 4_445
O1 Ga2 La 134.50(2) 2_456 .
O2 Ga2 La 107.6(3) 3_455 .
O2 Ga2 La 43.3(4) . .
O2 Ga2 La 57.2(3) 4_445 .
La Ga2 La 76.29(3) 4_445 .
O1 Ga2 La 134.51(2) 2_456 2_455
O2 Ga2 La 43.3(4) 3_455 2_455
O2 Ga2 La 57.2(3) . 2_455
O2 Ga2 La 107.6(3) 4_445 2_455
La Ga2 La 76.29(3) 4_445 2_455
La Ga2 La 76.29(3) . 2_455
O3 Ga3 O3 133.0(7) 2_455 4_454
O3 Ga3 O2 109.5(4) 2_455 1_554
O3 Ga3 O2 100.0(4) 4_454 1_554
O3 Ga3 O2 100.0(4) 2_455 6
O3 Ga3 O2 109.5(4) 4_454 6
O2 Ga3 O2 101.0(6) 1_554 6
Ga2 O1 La 110.4(3) 2_566 2_565
Ga2 O1 La 110.4(3) 2_566 .
La O1 La 108.6(3) 2_565 .
Ga2 O1 La 110.4(3) 2_566 4_455
La O1 La 108.6(3) 2_565 4_455
La O1 La 108.6(3) . 4_455
Ga2 O2 Ga3 119.1(4) . 1_556
Ga2 O2 La 105.6(5) . .
Ga3 O2 La 120.6(4) 1_556 .
Ga2 O2 La 90.3(3) . 2_455
Ga3 O2 La 111.3(5) 1_556 2_455
La O2 La 105.1(3) . 2_455
Ga3 O3 Ta 113.9(5) 2_565 .
Ga3 O3 Ga1 113.9(5) 2_565 .
Ta O3 Ga1 0.0 . .
Ga3 O3 La 138.1(5) 2_565 .
Ta O3 La 104.4(3) . .
Ga1 O3 La 104.4(3) . .
loop_
_geom_bond_atom_site_label_1
_geom_bond_atom_site_label_2
_geom_bond_distance
_geom_bond_site_symmetry_2
La O3 2.404(9) .
La O3 2.404(9) 6
La O2 2.430(11) 6
La O2 2.430(11) .
La O1 2.595(4) 2_455
La O1 2.595(4) .
La O2 2.868(9) 4_445
La O2 2.868(9) 2_565
La Ga2 3.4113(13) .
La Ga2 3.4114(13) 2_565
La Ta 3.4834(9) .
La Ga1 3.4834(9) .
Ga1 O3 1.993(8) 6
Ga1 O3 1.993(8) 3
Ga1 O3 1.993(8) 2
Ga1 O3 1.993(8) .
Ga1 O3 1.993(8) 5
Ga1 O3 1.993(8) 4
Ga1 La 3.4833(9) 2
Ga1 La 3.4834(9) 4
Ta O3 1.993(8) 6
Ta O3 1.993(8) 3
Ta O3 1.993(8) 2
Ta O3 1.993(8) .
Ta O3 1.993(8) 5
Ta O3 1.993(8) 4
Ta La 3.4833(9) 2
Ta La 3.4834(9) 4
Ga2 O1 1.804(13) 2_456
Ga2 O2 1.830(9) 3_455
Ga2 O2 1.830(9) .
Ga2 O2 1.830(9) 4_445
Ga2 La 3.4113(13) 4_445
Ga2 La 3.4114(13) 2_455
Ga3 O3 1.825(8) 2_455
Ga3 O3 1.825(8) 4_454
Ga3 O2 1.872(10) 1_554
Ga3 O2 1.872(10) 6
O1 Ga2 1.804(13) 2_566
O1 La 2.595(4) 2_565
O1 La 2.595(4) 4_455
O2 Ga3 1.872(10) 1_556
O2 La 2.868(9) 2_455
O3 Ga3 1.825(8) 2_565
