#------------------------------------------------------------------------------
#$Date: 2016-02-14 16:26:36 +0200 (Sun, 14 Feb 2016) $
#$Revision: 176435 $
#$URL: svn://www.crystallography.net/cod/cif/2/10/44/2104437.cif $
#------------------------------------------------------------------------------
#
# This file is available in the Crystallography Open Database (COD),
# http://www.crystallography.net/. The original data for this entry
# were provided by IUCr Journals, http://journals.iucr.org/.
#
# The file may be used within the scientific community so long as
# proper attribution is given to the journal article from which the
# data were obtained.
#
data_2104437
loop_
_publ_author_name
'S\/lawi\'nski, W.'
'Przenios\/lo, R.'
'Sosnowska, I.'
'Bieringer, M.'
'Margiolaki, I.'
'Suard, E.'
_publ_section_title
;
 Modulation of atomic positions in CaCu~<i>x~</i>Mn~7{-~<i>x</i>}O~12~
 (<i>x</i> {\/leq} 0.1)
;
_journal_coeditor_code           SN5079
_journal_issue                   5
_journal_name_full               'Acta Crystallographica Section B'
_journal_page_first              535
_journal_page_last               542
_journal_paper_doi               10.1107/S0108768109025300
_journal_volume                  65
_journal_year                    2009
_chemical_formula_sum            'Ca Mn7 O12'
_chemical_formula_weight         616.6
_chemical_name_systematic        ' ?'
_space_group_ssg_name            R-3(00\g)0
_symmetry_cell_setting           trigonal
_cell_angle_alpha                90
_cell_angle_beta                 90
_cell_angle_gamma                120
_cell_formula_units_Z            18
_cell_length_a                   10.442880(10)
_cell_length_b                   10.442880(10)
_cell_length_c                   6.343851(7)
_cell_modulation_dimension       1
_cell_volume                     599.1343(10)
_computing_publication_material
'Jana2006 (Petricek, Dusek & Palatinus, 2006)'
_computing_structure_refinement
'Jana2006 (Petricek, Dusek & Palatinus, 2006)'
_diffrn_ambient_temperature      50
_diffrn_measurement_device_type  'ESRF ID-31'
_diffrn_radiation_type           synchrotron
_diffrn_radiation_wavelength     0.39996
_exptl_absorpt_coefficient_mu    12.931
_exptl_crystal_density_diffrn    5.1256
_exptl_crystal_F_000             873
_pd_instr_location               ' ?'
_pd_meas_2theta_range_inc        0.001
_pd_meas_2theta_range_max        47.938
_pd_meas_2theta_range_min        0.400
_pd_meas_number_of_points        47539
_pd_proc_2theta_range_inc        0.001
_pd_proc_2theta_range_max        40.999
_pd_proc_2theta_range_min        2.001
_pd_proc_ls_background_function  '6 Legendre polynoms'
_pd_proc_ls_pref_orient_corr     none
_pd_proc_ls_profile_function     Pseudo-Voigt
_pd_proc_ls_prof_R_factor        0.1610
_pd_proc_ls_prof_wR_expected     0.1597
_pd_proc_ls_prof_wR_factor       0.2395
_refine_ls_number_constraints    0
_refine_ls_number_parameters     62
_refine_ls_number_restraints     0
_refine_ls_shift/su_max          0.1045
_refine_ls_shift/su_mean         0.0067
_refine_ls_weighting_scheme      sigma
_cod_data_source_file            sn5079.cif
_cod_data_source_block           t050
_cod_original_cell_volume        599.1343
_cod_original_formula_sum        'Ca1 Mn7 O12'
_cod_database_code               2104437
loop_
_space_group_symop_ssg_id
_space_group_symop_ssg_operation_algebraic
1 x1,x2,x3,x4
2 -x2,x1-x2,x3,x4
3 -x1+x2,-x1,x3,x4
4 -x1,-x2,-x3,-x4
5 x2,-x1+x2,-x3,-x4
6 x1-x2,x1,-x3,-x4
7 x1+2/3,x2+1/3,x3+1/3,x4
8 -x2+2/3,x1-x2+1/3,x3+1/3,x4
9 -x1+x2+2/3,-x1+1/3,x3+1/3,x4
10 -x1+2/3,-x2+1/3,-x3+1/3,-x4
11 x2+2/3,-x1+x2+1/3,-x3+1/3,-x4
12 x1-x2+2/3,x1+1/3,-x3+1/3,-x4
13 x1+1/3,x2+2/3,x3+2/3,x4
14 -x2+1/3,x1-x2+2/3,x3+2/3,x4
15 -x1+x2+1/3,-x1+2/3,x3+2/3,x4
16 -x1+1/3,-x2+2/3,-x3+2/3,-x4
17 x2+1/3,-x1+x2+2/3,-x3+2/3,-x4
18 x1-x2+1/3,x1+2/3,-x3+2/3,-x4
loop_
_atom_site_type_symbol
_atom_site_label
_atom_site_fract_x
_atom_site_fract_y
_atom_site_fract_z
_atom_site_U_iso_or_equiv
_atom_site_adp_type
_atom_site_calc_flag
_atom_site_refinement_flags
_atom_site_occupancy
_atom_site_disorder_assembly
_atom_site_disorder_group
Ca Ca1 0 0 0 0.0047(4) Uiso d . 1 . .
Mn Mn1 0.5 0 0 0.00121(14) Uiso d . 1 . .
Mn Mn2 0.5 0.5 0.5 0.00165(13) Uiso d . 1 . .
Mn Mn3 0 0 0.5 0.0017(3) Uiso d . 1 . .
O O1 0.2232(3) 0.2749(3) 0.0816(4) 0.0028(4) Uiso d . 1 . .
O O2 0.3422(3) 0.5222(2) 0.3415(4) 0.0016(5) Uiso d . 1 . .
loop_
_atom_site_aniso_label
_atom_site_aniso_U_11
_atom_site_aniso_U_22
_atom_site_aniso_U_33
_atom_site_aniso_U_12
_atom_site_aniso_U_13
_atom_site_aniso_U_23
_atom_site_aniso_type_symbol
? ? ? ? ? ? ? ?
loop_
_atom_site_displace_Fourier_atom_site_label
_atom_site_displace_Fourier_axis
_atom_site_displace_Fourier_wave_vector_seq_id
_atom_site_displace_Fourier_param_cos
_atom_site_displace_Fourier_param_sin
Ca1 x 1 0 0
Ca1 y 1 0 0
Ca1 z 1 0 -0.0103(12)
Mn1 x 1 0 0.0111(2)
Mn1 y 1 0 -0.0043(3)
Mn1 z 1 0 0.0094(4)
Mn2 x 1 0 0.0066(2)
Mn2 y 1 0 0.0045(2)
Mn2 z 1 0 -0.0024(5)
Mn3 x 1 0 0
Mn3 y 1 0 0
Mn3 z 1 0 0.0073(8)
O1 x 1 0.0030(7) 0.0087(6)
O1 y 1 -0.0042(7) 0.0097(6)
O1 z 1 0.0016(12) 0.0007(11)
O2 x 1 -0.0020(9) 0.0070(6)
O2 y 1 -0.0018(8) 0.0002(7)
O2 z 1 -0.0108(10) 0.0064(11)
loop_
_atom_site_displace_special_func_atom_site_label
_atom_site_displace_special_func_sawtooth_ax
_atom_site_displace_special_func_sawtooth_ay
_atom_site_displace_special_func_sawtooth_az
_atom_site_displace_special_func_sawtooth_c
_atom_site_displace_special_func_sawtooth_w
? ? ? ? ? ?
loop_
_atom_site_Fourier_wave_vector_seq_id
_atom_site_Fourier_wave_vector_x
_atom_site_Fourier_wave_vector_z
1 0.00000 0.92126
loop_
_atom_site_occ_Fourier_atom_site_label
_atom_site_occ_Fourier_wave_vector_seq_id
_atom_site_occ_Fourier_param_cos
_atom_site_occ_Fourier_param_sin
? ? ? ?
loop_
_atom_site_occ_special_func_atom_site_label
_atom_site_occ_special_func_crenel_c
_atom_site_occ_special_func_crenel_w
? ? ?
loop_
_atom_site_U_Fourier_atom_site_label
_atom_site_U_Fourier_tens_elem
_atom_site_U_Fourier_wave_vector_seq_id
_atom_site_U_Fourier_param_cos
_atom_site_U_Fourier_param_sin
? ? ? ? ?
loop_
_atom_type_symbol
_atom_type_scat_dispersion_real
_atom_type_scat_dispersion_imag
_atom_type_scat_source
Ca 0.090 0.099 'International Tables Vol C tables 4.2.6.8 and 6.1.1.1'
Mn 0.171 0.248 'International Tables Vol C tables 4.2.6.8 and 6.1.1.1'
O 0.002 0.002 'International Tables Vol C tables 4.2.6.8 and 6.1.1.1'
loop_
_cell_wave_vector_seq_id
_cell_wave_vector_x
_cell_wave_vector_y
_cell_wave_vector_z
1 0.00000 0.00000 0.92126
loop_
_geom_angle_atom_site_label_1
_geom_angle_atom_site_label_2
_geom_angle_atom_site_label_3
_geom_angle_site_symmetry_1
_geom_angle_site_symmetry_2
_geom_angle_site_symmetry_3
_geom_angle_publ_flag
_geom_angle_max
_geom_angle_min
_geom_angle_av
? ? ? ? ? ? ? ? ? ?
loop_
_geom_bond_atom_site_label_1
_geom_bond_atom_site_label_2
_geom_bond_site_symmetry_1
_geom_bond_site_symmetry_2
_geom_bond_publ_flag
_geom_bond_distance_max
_geom_bond_distance_min
_geom_bond_distance_av
Ca1 O1 . . yes 2.824(6) 2.559(5) 2.693(6)
Ca1 O1 . 2_555 yes 2.824(8) 2.559(8) 2.693(8)
Ca1 O1 . 3_555 yes 2.824(10) 2.559(10) 2.693(10)
Ca1 O1 . 4_555 yes 2.824(6) 2.559(5) 2.693(6)
Ca1 O1 . 5_555 yes 2.824(8) 2.559(8) 2.693(8)
Ca1 O1 . 6_555 yes 2.824(10) 2.559(10) 2.693(10)
Ca1 O2 . 7_444 yes 2.598(9) 2.552(9) 2.575(9)
Ca1 O2 . 8_554 yes 2.598(8) 2.552(9) 2.575(8)
Ca1 O2 . 9_454 yes 2.598(11) 2.552(11) 2.575(10)
Ca1 O2 . 16_555 yes 2.598(9) 2.552(9) 2.575(9)
Ca1 O2 . 17_445 yes 2.598(8) 2.552(9) 2.575(8)
Ca1 O2 . 18_545 yes 2.598(11) 2.552(11) 2.575(10)
Mn1 O1 . 13_544 yes 1.926(8) 1.907(8) 1.916(8)
Mn1 O1 . 2_655 yes 2.969(10) 2.449(10) 2.709(10)
Mn1 O1 . 10_555 yes 1.926(8) 1.907(8) 1.916(8)
Mn1 O1 . 5_555 yes 2.969(10) 2.449(10) 2.709(10)
Mn1 O2 . 13_544 yes 1.932(6) 1.902(6) 1.917(6)
Mn1 O2 . 2_655 yes 2.846(10) 2.771(9) 2.809(9)
Mn1 O2 . 10_555 yes 1.932(6) 1.902(6) 1.917(6)
Mn1 O2 . 5_555 yes 2.846(10) 2.771(9) 2.809(9)
Mn2 O1 . 8_555 yes 2.110(9) 1.981(10) 2.047(9)
Mn2 O1 . 15_555 yes 1.891(7) 1.886(9) 1.888(8)
Mn2 O1 . 17_555 yes 2.110(9) 1.981(10) 2.047(9)
Mn2 O1 . 12_555 yes 1.891(7) 1.886(9) 1.888(8)
Mn2 O2 . . yes 2.119(9) 1.958(9) 2.037(9)
Mn2 O2 . 4_666 yes 2.119(9) 1.958(9) 2.037(9)
Mn3 O2 . 7_445 yes 1.946(8) 1.876(8) 1.910(9)
Mn3 O2 . 8_555 yes 1.946(7) 1.876(7) 1.910(7)
Mn3 O2 . 9_455 yes 1.946(10) 1.876(10) 1.910(11)
Mn3 O2 . 16_555 yes 1.946(8) 1.876(8) 1.910(9)
Mn3 O2 . 17_445 yes 1.946(7) 1.876(7) 1.910(7)
Mn3 O2 . 18_545 yes 1.946(10) 1.876(10) 1.910(11)
O1 O1 . 8_555 yes 2.847(12) 2.611(12) 2.729(11)
O1 O1 . 15_554 yes 2.847(10) 2.611(10) 2.730(10)
O1 O1 . 5_555 yes 2.890(14) 2.790(15) 2.839(14)
O1 O1 . 6_555 yes 2.890(13) 2.790(13) 2.839(13)
O1 O2 . . yes 2.856(10) 2.736(10) 2.797(10)
O1 O2 . 8_554 yes 2.935(10) 2.673(10) 2.804(10)
O1 O2 . 15_554 yes 2.965(13) 2.732(14) 2.848(14)
O1 O2 . 16_555 yes 2.660(10) 2.581(10) 2.619(10)
O1 O2 . 11_455 yes 2.772(14) 2.730(14) 2.753(15)
O1 O2 . 18_545 yes 2.979(11) 2.879(11) 2.928(11)
O2 O2 . 2_665 yes 2.753(12) 2.619(12) 2.686(12)
O2 O2 . 3_565 yes 2.753(15) 2.619(15) 2.686(16)
O2 O2 . 11_455 yes 2.754(11) 2.682(11) 2.718(11)
O2 O2 . 12_555 yes 2.754(10) 2.682(10) 2.717(10)
loop_
_geom_hbond_atom_site_label_D
_geom_hbond_atom_site_label_H
_geom_hbond_atom_site_label_A
_geom_hbond_site_symmetry_D
_geom_hbond_site_symmetry_H
_geom_hbond_site_symmetry_A
_geom_hbond_distance_DH
_geom_hbond_distance_HA
_geom_hbond_distance_DA
_geom_hbond_angle_DHA
_geom_hbond_publ_flag
? ? ? ? ? ? ? ? ? ? ?
loop_
_geom_torsion_atom_site_label_1
_geom_torsion_atom_site_label_2
_geom_torsion_atom_site_label_3
_geom_torsion_atom_site_label_4
_geom_torsion_site_symmetry_1
_geom_torsion_site_symmetry_2
_geom_torsion_site_symmetry_3
_geom_torsion_site_symmetry_4
_geom_torsion
_geom_torsion_publ_flag
? ? ? ? ? ? ? ? ? ?
loop_
_pd_proc_info_excluded_regions
'from 0.4 to 2.000'
'from 8.35 to 8.500'
'from 13.7 to 13.840'
'from 16.05 to 16.500'
'from 41 to 47.986'
