#------------------------------------------------------------------------------
#$Date: 2016-02-14 06:40:26 +0200 (Sun, 14 Feb 2016) $
#$Revision: 176432 $
#$URL: svn://www.crystallography.net/cod/cif/2/10/42/2104265.cif $
#------------------------------------------------------------------------------
#
# This file is available in the Crystallography Open Database (COD),
# http://www.crystallography.net/. The original data for this entry
# were provided by IUCr Journals, http://journals.iucr.org/.
#
# The file may be used within the scientific community so long as
# proper attribution is given to the journal article from which the
# data were obtained.
#
data_2104265
loop_
_publ_author_name
'Friese, Karen'
'Kanke, Yasushi'
'Fitch, Andy N.'
'Morgenroth, Wolfgang'
'Grzechnik, Andrzej'
_publ_section_title
;
 Isosymmetrical phase transition in \a-YbV~4~O~8~
;
_journal_coeditor_code           SN5072
_journal_issue                   6
_journal_name_full               'Acta Crystallographica Section B'
_journal_page_first              652
_journal_page_last               660
_journal_paper_doi               10.1107/S0108768108026153
_journal_volume                  64
_journal_year                    2008
_chemical_formula_sum            'O8 V4 Yb'
_chemical_formula_weight         504.8
_chemical_name_common            Ytterbiumvanadate
_chemical_name_systematic        ' ?'
_space_group_IT_number           14
_symmetry_cell_setting           monoclinic
_symmetry_space_group_name_Hall  '-P 2yn'
_symmetry_space_group_name_H-M   'P 1 21/n 1'
_cell_angle_alpha                90
_cell_angle_beta                 90.190(2)
_cell_angle_gamma                90
_cell_formula_units_Z            4
_cell_length_a                   9.0675(3)
_cell_length_b                   10.6264(4)
_cell_length_c                   5.7473(3)
_cell_measurement_reflns_used    378
_cell_measurement_temperature    100
_cell_measurement_theta_max      10
_cell_measurement_theta_min      1
_cell_volume                     553.78(4)
_computing_cell_refinement       Jana2006
_computing_data_collection       'XDS (Kabsch, 2007)'
_computing_data_reduction        'XDS, Jana2006'
_computing_molecular_graphics    'Atoms (Dowty, 1999)'
_computing_publication_material
'Jana2006 (Petricek, Dusek & Palatinus, 2006)'
_computing_structure_refinement
'Jana2006 (Petricek, Dusek & Palatinus, 2006)'
_computing_structure_solution    'coordinates from model'
_diffrn_ambient_temperature      100
_diffrn_detector_area_resol_mean Mar-CCD165
_diffrn_measured_fraction_theta_full 32.59
_diffrn_measured_fraction_theta_max 32.59
_diffrn_measurement_device       'Huber 4-circle'
_diffrn_measurement_method       \f-scans
_diffrn_radiation_source         'Hasylab; D3'
_diffrn_radiation_type           Synchrotron
_diffrn_radiation_wavelength     0.47686
_diffrn_reflns_av_R_equivalents  0.050
_diffrn_reflns_av_sigmaI/netI    0.024
_diffrn_reflns_limit_h_max       20
_diffrn_reflns_limit_h_min       -20
_diffrn_reflns_limit_k_max       18
_diffrn_reflns_limit_k_min       -23
_diffrn_reflns_limit_l_max       12
_diffrn_reflns_limit_l_min       -12
_diffrn_reflns_number            54937
_diffrn_reflns_reduction_process Jana2006
_diffrn_reflns_theta_full        32.59
_diffrn_reflns_theta_max         32.59
_diffrn_reflns_theta_min         2
_exptl_absorpt_coefficient_mu    7.903
_exptl_absorpt_correction_T_max  0.7851
_exptl_absorpt_correction_T_min  0.7072
_exptl_absorpt_correction_type   numerical
_exptl_absorpt_process_details
'Xshape (Stoe &CIE), Jana2006 (Petricek, Dusek and Palatinus)'
_exptl_crystal_colour            black
_exptl_crystal_density_diffrn    6.0527
_exptl_crystal_density_meas      ?
_exptl_crystal_description       irregular
_exptl_crystal_F_000             904
_exptl_crystal_size_max          0.11
_exptl_crystal_size_mid          0.095
_exptl_crystal_size_min          0.087
_refine_diff_density_max         5.55
_refine_diff_density_min         -8.82
_refine_ls_extinction_coef       26E2(3)
_refine_ls_extinction_method
'B-C type 1 Gaussian isotropic (Becker & Coppens, 1974)'
_refine_ls_goodness_of_fit_ref   1.92
_refine_ls_number_parameters     119
_refine_ls_number_reflns         6567
_refine_ls_R_factor_all          0.0407
_refine_ls_R_factor_gt           0.0334
_refine_ls_shift/su_max          0.0308
_refine_ls_shift/su_mean         0.0026
_refine_ls_structure_factor_coef F
_refine_ls_weighting_details     w=1/(\s^2^(F)+0.0001F^2^)
_refine_ls_weighting_scheme      sigma
_refine_ls_wR_factor_gt          0.0353
_refine_ls_wR_factor_ref         0.0363
_reflns_number_gt                5646
_reflns_number_total             6567
_reflns_threshold_expression     I>3\s(I)
_cod_data_source_file            sn5072.cif
_cod_data_source_block           IV
_cod_depositor_comments
;
The following automatic conversions were performed:
'_exptl_absorpt_correction_type' value 'Numerical' changed to 'numerical'
according to '/home/saulius/struct/CIF-dictionaries/cif_core.dic'
dictionary named 'cif_core.dic' version 2.4.1 from 2010-06-29.

Automatic conversion script
Id: cif_fix_enum 1527 2010-12-29 10:47:43Z saulius 

The following automatic conversions were performed:

'_exptl_absorpt_correction_type' value 'Numerical' changed to
'numerical' according to
/home/saulius/struct/CIF-dictionaries/cif_core.dic dictionary named
'cif_core.dic' version 2.4.1 from 2010-06-29.

Automatic conversion script
Id: cif_fix_values 1715 2011-07-08 13:25:40Z adriana 
;
_cod_original_sg_symbol_Hall     '-P 2yabc'
_cod_original_formula_sum        'O8 V4 Yb1'
_cod_database_code               2104265
_cod_database_fobs_code          2104265
loop_
_symmetry_equiv_pos_site_id
_symmetry_equiv_pos_as_xyz
1 x,y,z
2 -x+1/2,y+1/2,-z+1/2
3 -x,-y,-z
4 x+1/2,-y+1/2,z+1/2
loop_
_atom_site_type_symbol
_atom_site_label
_atom_site_fract_x
_atom_site_fract_y
_atom_site_fract_z
_atom_site_U_iso_or_equiv
_atom_site_adp_type
_atom_site_calc_flag
_atom_site_occupancy
Yb Yb 0.758051(10) 0.657602(8) 0.126199(15) 0.002486(18) Uani d 1
V V1 0.42681(4) 0.61862(3) 0.12330(6) 0.00272(6) Uani d 1
V V2 0.40833(4) 0.09728(3) 0.12454(6) 0.00271(6) Uani d 1
V V3 0.45535(4) 0.61083(3) 0.62663(6) 0.00292(6) Uani d 1
V V4 0.41837(4) 0.10582(3) 0.62571(6) 0.00286(6) Uani d 1
O O1 0.20321(19) 0.15876(15) 0.1138(3) 0.0046(3) Uani d 1
O O2 0.12024(18) 0.47306(15) 0.1175(3) 0.0039(3) Uani d 1
O O3 0.53979(19) 0.77643(15) 0.1209(3) 0.0040(3) Uani d 1
O O4 0.41343(18) 0.43114(15) 0.1162(3) 0.0042(3) Uani d 1
O O5 0.20816(19) 0.15829(15) 0.6380(3) 0.0050(3) Uani d 1
O O6 0.11365(18) 0.47497(15) 0.6337(3) 0.0042(3) Uani d 1
O O7 0.51243(19) 0.78839(15) 0.6273(3) 0.0045(3) Uani d 1
O O8 0.41503(18) 0.42737(15) 0.6331(3) 0.0044(3) Uani d 1
loop_
_atom_site_aniso_label
_atom_site_aniso_U_11
_atom_site_aniso_U_22
_atom_site_aniso_U_33
_atom_site_aniso_U_12
_atom_site_aniso_U_13
_atom_site_aniso_U_23
_atom_site_aniso_type_symbol
Yb 0.00238(3) 0.00199(3) 0.00308(3) 0.00009(2) -0.000263(19) -0.000106(19) Yb
V1 0.00284(10) 0.00186(10) 0.00346(10) -0.00021(8) -0.00024(8) -0.00012(8) V
V2 0.00304(10) 0.00210(10) 0.00299(10) 0.00030(8) -0.00016(8) 0.00014(8) V
V3 0.00334(10) 0.00225(10) 0.00315(10) -0.00005(8) -0.00042(8) 0.00016(8) V
V4 0.00349(10) 0.00193(10) 0.00315(10) 0.00001(8) 0.00015(8) -0.00004(8) V
O1 0.0043(5) 0.0049(5) 0.0046(5) 0.0005(4) 0.0003(4) 0.0001(4) O
O2 0.0043(5) 0.0035(5) 0.0039(5) -0.0001(4) -0.0004(4) -0.0006(4) O
O3 0.0049(5) 0.0029(5) 0.0043(5) -0.0005(4) -0.0005(4) 0.0002(4) O
O4 0.0039(5) 0.0043(5) 0.0044(5) -0.0002(4) -0.0005(4) 0.0001(4) O
O5 0.0051(5) 0.0047(5) 0.0052(5) -0.0005(4) -0.0006(4) 0.0000(4) O
O6 0.0044(5) 0.0034(5) 0.0048(5) 0.0003(4) -0.0005(4) 0.0006(4) O
O7 0.0049(5) 0.0032(5) 0.0054(5) -0.0003(4) -0.0004(4) 0.0001(4) O
O8 0.0043(5) 0.0042(5) 0.0045(5) 0.0001(4) 0.0000(4) 0.0003(4) O
loop_
_atom_type_symbol
_atom_type_scat_dispersion_real
_atom_type_scat_dispersion_imag
_atom_type_scat_source
Yb -0.392 2.854 'International Tables Vol C Tables  4.2.6.8 and 6.1.1.1'
V 0.183 0.250 'International Tables Vol C Tables  4.2.6.8 and 6.1.1.1'
O 0.004 0.003 'International Tables Vol C Tables  4.2.6.8 and 6.1.1.1'
loop_
_geom_angle_atom_site_label_1
_geom_angle_atom_site_label_2
_geom_angle_atom_site_label_3
_geom_angle_site_symmetry_1
_geom_angle_site_symmetry_3
_geom_angle
_geom_angle_publ_flag
V1 Yb V1 . 3_665 55.760(9) yes
V1 Yb V1 . 4_564 116.952(9) yes
V1 Yb V1 . 4_565 117.381(9) yes
V1 Yb V2 . 2_655 148.826(9) yes
V1 Yb V2 . 3_665 69.980(9) yes
V1 Yb V2 . 4_554 103.443(9) yes
V1 Yb V2 . 4_555 103.686(9) yes
V1 Yb V3 . 1_554 45.660(9) yes
V1 Yb V3 . . 46.144(9) yes
V1 Yb V3 . 3_666 51.870(9) yes
V1 Yb V3 . 4_564 133.871(10) yes
V1 Yb V4 . 2_655 148.356(10) yes
V1 Yb V4 . 3_666 68.007(9) yes
V1 Yb V4 . 4_554 109.590(10) yes
V1 Yb V1 3_665 4_564 111.360(8) yes
V1 Yb V1 3_665 4_565 157.528(8) yes
V1 Yb V2 3_665 2_655 114.709(8) yes
V1 Yb V2 3_665 3_665 104.506(9) yes
V1 Yb V2 3_665 4_554 50.415(8) yes
V1 Yb V2 3_665 4_555 84.066(8) yes
V1 Yb V3 3_665 1_554 46.215(8) yes
V1 Yb V3 3_665 . 82.437(8) yes
V1 Yb V3 3_665 3_666 45.601(8) yes
V1 Yb V3 3_665 4_564 156.227(9) yes
V1 Yb V4 3_665 2_655 95.749(9) yes
V1 Yb V4 3_665 3_666 123.766(9) yes
V1 Yb V4 3_665 4_554 59.981(9) yes
V1 Yb V1 4_564 4_565 90.920(7) yes
V1 Yb V2 4_564 2_655 94.221(8) yes
V1 Yb V2 4_564 3_665 53.422(8) yes
V1 Yb V2 4_564 4_554 76.328(7) yes
V1 Yb V2 4_564 4_555 138.511(7) yes
V1 Yb V3 4_564 1_554 79.654(7) yes
V1 Yb V3 4_564 . 147.747(8) yes
V1 Yb V3 4_564 3_666 156.785(8) yes
V1 Yb V3 4_564 4_564 45.702(8) yes
V1 Yb V4 4_564 2_655 56.599(8) yes
V1 Yb V4 4_564 3_666 92.627(8) yes
V1 Yb V4 4_564 4_554 110.210(9) yes
V1 Yb V2 4_565 2_655 58.407(8) yes
V1 Yb V2 4_565 3_665 90.899(8) yes
V1 Yb V2 4_565 4_554 138.482(7) yes
V1 Yb V2 4_565 4_555 76.879(7) yes
V1 Yb V3 4_565 1_554 147.548(8) yes
V1 Yb V3 4_565 . 79.827(7) yes
V1 Yb V3 4_565 3_666 112.256(8) yes
V1 Yb V3 4_565 4_564 45.400(9) yes
V1 Yb V4 4_565 2_655 94.193(8) yes
V1 Yb V4 4_565 3_666 55.015(8) yes
V1 Yb V4 4_565 4_554 110.584(9) yes
V2 Yb V2 2_655 3_665 136.808(9) yes
V2 Yb V2 2_655 4_554 82.945(8) yes
V2 Yb V2 2_655 4_555 45.596(8) yes
V2 Yb V3 2_655 1_554 152.406(8) yes
V2 Yb V3 2_655 . 106.502(8) yes
V2 Yb V3 2_655 3_666 99.040(8) yes
V2 Yb V3 2_655 4_564 68.295(9) yes
V2 Yb V4 2_655 2_655 50.744(9) yes
V2 Yb V4 2_655 3_666 113.102(9) yes
V2 Yb V4 2_655 4_554 54.850(9) yes
V2 Yb V2 3_665 4_554 110.821(8) yes
V2 Yb V2 3_665 4_555 161.969(8) yes
V2 Yb V3 3_665 1_554 58.540(8) yes
V2 Yb V3 3_665 . 95.562(8) yes
V2 Yb V3 3_665 3_666 121.820(9) yes
V2 Yb V3 3_665 4_564 68.519(9) yes
V2 Yb V4 3_665 2_655 109.875(9) yes
V2 Yb V4 3_665 3_666 51.212(9) yes
V2 Yb V4 3_665 4_554 154.230(9) yes
V2 Yb V2 4_554 4_555 86.929(7) yes
V2 Yb V3 4_554 1_554 69.461(7) yes
V2 Yb V3 4_554 . 129.666(7) yes
V2 Yb V3 4_554 3_666 86.445(8) yes
V2 Yb V3 4_554 4_564 109.332(9) yes
V2 Yb V4 4_554 2_655 45.799(8) yes
V2 Yb V4 4_554 3_666 161.447(8) yes
V2 Yb V4 4_554 4_554 43.471(8) yes
V2 Yb V3 4_555 1_554 129.428(7) yes
V2 Yb V3 4_555 . 69.502(7) yes
V2 Yb V3 4_555 3_666 53.860(7) yes
V2 Yb V3 4_555 4_564 109.520(9) yes
V2 Yb V4 4_555 2_655 84.527(8) yes
V2 Yb V4 4_555 3_666 110.818(8) yes
V2 Yb V4 4_555 4_554 43.468(8) yes
V3 Yb V3 1_554 . 91.705(8) yes
V3 Yb V3 1_554 3_666 79.783(8) yes
V3 Yb V3 1_554 4_564 120.241(9) yes
V3 Yb V4 1_554 2_655 105.770(8) yes
V3 Yb V4 1_554 3_666 94.145(8) yes
V3 Yb V4 1_554 4_554 101.796(9) yes
V3 Yb V3 . 3_666 43.577(8) yes
V3 Yb V3 . 4_564 120.210(9) yes
V3 Yb V4 . 2_655 154.025(8) yes
V3 Yb V4 . 3_666 56.767(8) yes
V3 Yb V4 . 4_554 101.949(9) yes
V3 Yb V3 3_666 4_564 157.502(9) yes
V3 Yb V4 3_666 2_655 119.952(8) yes
V3 Yb V4 3_666 3_666 99.492(9) yes
V3 Yb V4 3_666 4_554 63.985(9) yes
V3 Yb V4 4_564 2_655 67.301(9) yes
V3 Yb V4 4_564 3_666 70.727(9) yes
V3 Yb V4 4_564 4_554 116.538(10) yes
V4 Yb V4 2_655 3_666 138.016(9) yes
V4 Yb V4 2_655 4_554 56.282(9) yes
V4 Yb V4 3_666 4_554 154.027(9) yes
Yb V1 Yb . 3_665 124.240(11) yes
Yb V1 Yb . 4_464 107.344(10) yes
Yb V1 Yb . 4_465 107.019(10) yes
Yb V1 V1 . 3_665 72.316(10) yes
Yb V1 V2 . 2_555 154.052(14) yes
Yb V1 V2 . 3_665 58.902(8) yes
Yb V1 V3 . 1_554 85.225(12) yes
Yb V1 V3 . . 85.034(12) yes
Yb V1 V3 . 3_666 76.059(11) yes
Yb V1 V4 . 2_555 155.182(14) yes
Yb V1 V4 . 3_666 59.660(9) yes
Yb V1 Yb 3_665 4_464 91.327(8) yes
Yb V1 Yb 3_665 4_465 125.152(10) yes
Yb V1 V1 3_665 3_665 51.925(8) yes
Yb V1 V2 3_665 2_555 72.758(9) yes
Yb V1 V2 3_665 3_665 133.982(12) yes
Yb V1 V3 3_665 1_554 68.324(10) yes
Yb V1 V3 3_665 . 113.920(13) yes
Yb V1 V3 3_665 3_666 72.600(10) yes
Yb V1 V4 3_665 2_555 52.553(8) yes
Yb V1 V4 3_665 3_666 176.099(13) yes
Yb V1 Yb 4_464 4_465 90.920(7) yes
Yb V1 V1 4_464 3_665 108.093(11) yes
Yb V1 V2 4_464 2_555 90.215(10) yes
Yb V1 V2 4_464 3_665 52.397(7) yes
Yb V1 V3 4_464 1_554 49.046(9) yes
Yb V1 V3 4_464 . 139.270(13) yes
Yb V1 V3 4_464 3_666 161.590(13) yes
Yb V1 V4 4_464 2_555 51.936(8) yes
Yb V1 V4 4_464 3_666 87.128(9) yes
Yb V1 V1 4_465 3_665 160.433(13) yes
Yb V1 V2 4_465 2_555 52.438(8) yes
Yb V1 V2 4_465 3_665 87.086(9) yes
Yb V1 V3 4_465 1_554 139.751(13) yes
Yb V1 V3 4_465 . 48.559(9) yes
Yb V1 V3 4_465 3_666 105.558(12) yes
Yb V1 V4 4_465 2_555 88.550(10) yes
Yb V1 V4 4_465 3_666 51.344(8) yes
V1 V1 V2 3_665 2_555 120.973(14) yes
V1 V1 V2 3_665 3_665 107.968(13) yes
V1 V1 V3 3_665 1_554 59.673(12) yes
V1 V1 V3 3_665 . 112.635(15) yes
V1 V1 V3 3_665 3_666 54.966(11) yes
V1 V1 V4 3_665 2_555 99.413(13) yes
V1 V1 V4 3_665 3_666 131.976(14) yes
V2 V1 V2 2_555 3_665 126.261(13) yes
V2 V1 V3 2_555 1_554 120.609(15) yes
V2 V1 V3 2_555 . 69.403(12) yes
V2 V1 V3 2_555 3_666 93.378(13) yes
V2 V1 V4 2_555 2_555 50.013(10) yes
V2 V1 V4 2_555 3_666 103.651(12) yes
V2 V1 V3 3_665 1_554 66.303(11) yes
V2 V1 V3 3_665 . 112.085(14) yes
V2 V1 V3 3_665 3_666 134.920(15) yes
V2 V1 V4 3_665 2_555 104.062(12) yes
V2 V1 V4 3_665 3_666 46.879(9) yes
V3 V1 V3 1_554 . 169.198(18) yes
V3 V1 V3 1_554 3_666 114.639(15) yes
V3 V1 V4 1_554 2_555 70.718(12) yes
V3 V1 V4 1_554 3_666 113.026(14) yes
V3 V1 V3 . 3_666 58.229(12) yes
V3 V1 V4 . 2_555 119.416(15) yes
V3 V1 V4 . 3_666 65.492(11) yes
V3 V1 V4 3_666 2_555 119.044(14) yes
V3 V1 V4 3_666 3_666 109.466(14) yes
V4 V1 V4 2_555 3_666 124.020(13) yes
Yb V2 Yb 2_645 3_665 115.778(10) yes
Yb V2 Yb 2_645 4_454 134.404(10) yes
Yb V2 Yb 2_645 4_455 97.055(8) yes
Yb V2 V1 2_645 2_545 127.316(12) yes
Yb V2 V1 2_645 3_665 69.196(9) yes
Yb V2 V2 2_645 3_655 80.701(11) yes
Yb V2 V3 2_645 2_545 166.742(13) yes
Yb V2 V3 2_645 3_666 51.126(8) yes
Yb V2 V4 2_645 1_554 112.543(13) yes
Yb V2 V4 2_645 . 63.160(10) yes
Yb V2 V4 2_645 3_656 58.379(9) yes
Yb V2 Yb 3_665 4_454 93.681(8) yes
Yb V2 Yb 3_665 4_455 130.917(10) yes
Yb V2 V1 3_665 2_545 74.140(10) yes
Yb V2 V1 3_665 3_665 51.118(8) yes
Yb V2 V2 3_665 3_655 125.402(13) yes
Yb V2 V3 3_665 2_545 51.884(8) yes
Yb V2 V3 3_665 3_666 69.873(9) yes
Yb V2 V4 3_665 1_554 63.863(10) yes
Yb V2 V4 3_665 . 114.826(13) yes
Yb V2 V4 3_665 3_656 174.032(14) yes
Yb V2 Yb 4_454 4_455 86.929(7) yes
Yb V2 V1 4_454 2_545 92.631(10) yes
Yb V2 V1 4_454 3_665 113.683(10) yes
Yb V2 V2 4_454 3_655 53.704(9) yes
Yb V2 V3 4_454 2_545 56.852(8) yes
Yb V2 V3 4_454 3_666 159.386(12) yes
Yb V2 V4 4_454 1_554 49.116(9) yes
Yb V2 V4 4_454 . 135.744(13) yes
Yb V2 V4 4_454 3_656 91.751(11) yes
Yb V2 V1 4_455 2_545 56.827(8) yes
Yb V2 V1 4_455 3_665 159.385(12) yes
Yb V2 V2 4_455 3_655 93.702(11) yes
Yb V2 V3 4_455 2_545 90.128(9) yes
Yb V2 V3 4_455 3_666 113.113(10) yes
Yb V2 V4 4_455 1_554 136.034(13) yes
Yb V2 V4 4_455 . 48.826(9) yes
Yb V2 V4 4_455 3_656 51.847(9) yes
V1 V2 V1 2_545 3_665 118.733(13) yes
V1 V2 V2 2_545 3_655 138.357(15) yes
V1 V2 V3 2_545 2_545 49.081(10) yes
V1 V2 V3 2_545 3_666 94.545(12) yes
V1 V2 V4 2_545 1_554 117.250(15) yes
V1 V2 V4 2_545 . 66.096(12) yes
V1 V2 V4 2_545 3_656 108.093(14) yes
V1 V2 V2 3_665 3_655 98.869(13) yes
V1 V2 V3 3_665 2_545 100.709(12) yes
V1 V2 V3 3_665 3_666 46.335(9) yes
V1 V2 V4 3_665 1_554 64.581(11) yes
V1 V2 V4 3_665 . 110.570(14) yes
V1 V2 V4 3_665 3_656 124.081(14) yes
V2 V2 V3 3_655 2_545 110.045(13) yes
V2 V2 V3 3_655 3_666 125.794(14) yes
V2 V2 V4 3_655 1_554 61.859(12) yes
V2 V2 V4 3_655 . 118.686(15) yes
V2 V2 V4 3_655 3_656 56.684(11) yes
V3 V2 V3 2_545 3_666 115.733(12) yes
V3 V2 V4 2_545 1_554 68.287(12) yes
V3 V2 V4 2_545 . 115.177(14) yes
V3 V2 V4 2_545 3_656 133.793(14) yes
V3 V2 V4 3_666 1_554 110.766(14) yes
V3 V2 V4 3_666 . 64.533(11) yes
V3 V2 V4 3_666 3_656 104.280(13) yes
V4 V2 V4 1_554 . 174.879(17) yes
V4 V2 V4 1_554 3_656 118.543(15) yes
V4 V2 V4 . 3_656 62.245(12) yes
Yb V3 Yb . 1_556 91.705(8) yes
Yb V3 Yb . 3_666 136.423(10) yes
Yb V3 Yb . 4_465 107.628(10) yes
Yb V3 V1 . . 48.822(9) yes
Yb V3 V1 . 1_556 140.702(14) yes
Yb V3 V1 . 3_666 101.483(12) yes
Yb V3 V2 . 2_555 110.212(11) yes
Yb V3 V2 . 3_666 86.774(9) yes
Yb V3 V3 . 3_666 62.997(10) yes
Yb V3 V4 . 2_556 155.756(12) yes
Yb V3 V4 . 3_666 51.474(8) yes
Yb V3 Yb 1_556 3_666 100.217(8) yes
Yb V3 Yb 1_556 4_465 107.606(10) yes
Yb V3 V1 1_556 . 140.413(14) yes
Yb V3 V1 1_556 1_556 49.115(9) yes
Yb V3 V1 1_556 3_666 61.185(9) yes
Yb V3 V2 1_556 2_555 156.855(12) yes
Yb V3 V2 1_556 3_666 51.587(7) yes
Yb V3 V3 1_556 3_666 105.703(12) yes
Yb V3 V4 1_556 2_556 110.794(11) yes
Yb V3 V4 1_556 3_666 88.062(10) yes
Yb V3 Yb 3_666 4_465 108.240(10) yes
Yb V3 V1 3_666 . 110.879(13) yes
Yb V3 V1 3_666 1_556 66.075(10) yes
Yb V3 V1 3_666 3_666 52.072(9) yes
Yb V3 V2 3_666 2_555 69.288(9) yes
Yb V3 V2 3_666 3_666 132.811(12) yes
Yb V3 V3 3_666 3_666 73.426(10) yes
Yb V3 V4 3_666 2_556 50.373(7) yes
Yb V3 V4 3_666 3_666 167.638(13) yes
Yb V3 V1 4_465 . 85.739(12) yes
Yb V3 V1 4_465 1_556 85.555(12) yes
Yb V3 V1 4_465 3_666 149.262(15) yes
Yb V3 V2 4_465 2_555 59.597(9) yes
Yb V3 V2 4_465 3_666 60.578(9) yes
Yb V3 V3 4_465 3_666 145.652(15) yes
Yb V3 V4 4_465 2_556 57.982(8) yes
Yb V3 V4 4_465 3_666 60.127(9) yes
V1 V3 V1 . 1_556 169.198(18) yes
V1 V3 V1 . 3_666 121.771(15) yes
V1 V3 V2 . 2_555 61.516(11) yes
V1 V3 V2 . 3_666 113.393(14) yes
V1 V3 V3 . 3_666 62.948(12) yes
V1 V3 V4 . 2_556 107.847(14) yes
V1 V3 V4 . 3_666 66.108(11) yes
V1 V3 V1 1_556 3_666 65.361(12) yes
V1 V3 V2 1_556 2_555 108.350(14) yes
V1 V3 V2 1_556 3_666 67.362(11) yes
V1 V3 V3 1_556 3_666 123.492(16) yes
V1 V3 V4 1_556 2_556 61.919(11) yes
V1 V3 V4 1_556 3_666 114.471(14) yes
V1 V3 V2 3_666 2_555 118.709(14) yes
V1 V3 V2 3_666 3_666 112.481(14) yes
V1 V3 V3 3_666 3_666 58.823(12) yes
V1 V3 V4 3_666 2_556 97.404(13) yes
V1 V3 V4 3_666 3_666 140.138(15) yes
V2 V3 V2 2_555 3_666 120.171(13) yes
V2 V3 V3 2_555 3_666 91.333(13) yes
V2 V3 V4 2_555 2_556 46.431(9) yes
V2 V3 V4 2_555 3_666 99.626(12) yes
V2 V3 V3 3_666 3_666 143.143(15) yes
V2 V3 V4 3_666 2_556 99.948(12) yes
V2 V3 V4 3_666 3_666 47.428(9) yes
V3 V3 V4 3_666 2_556 116.323(14) yes
V3 V3 V4 3_666 3_666 113.360(14) yes
V4 V3 V4 2_556 3_666 118.101(13) yes
Yb V4 Yb 2_645 3_666 119.430(11) yes
Yb V4 Yb 2_645 4_455 123.718(11) yes
Yb V4 V1 2_645 2_545 128.013(12) yes
Yb V4 V1 2_645 3_666 72.057(9) yes
Yb V4 V2 2_645 . 66.095(10) yes
Yb V4 V2 2_645 1_556 118.135(14) yes
Yb V4 V2 2_645 3_656 82.354(11) yes
Yb V4 V3 2_645 2_546 169.074(13) yes
Yb V4 V3 2_645 3_666 52.571(8) yes
Yb V4 V4 2_645 3_656 59.084(9) yes
Yb V4 Yb 3_666 4_455 116.800(11) yes
Yb V4 V1 3_666 2_545 73.049(9) yes
Yb V4 V1 3_666 3_666 52.334(8) yes
Yb V4 V2 3_666 . 116.179(13) yes
Yb V4 V2 3_666 1_556 64.925(10) yes
Yb V4 V2 3_666 3_656 126.057(13) yes
Yb V4 V3 3_666 2_546 51.291(8) yes
Yb V4 V3 3_666 3_666 71.759(9) yes
Yb V4 V4 3_666 3_656 177.235(14) yes
Yb V4 V1 4_455 2_545 67.466(9) yes
Yb V4 V1 4_455 3_666 155.914(13) yes
Yb V4 V2 4_455 . 87.704(12) yes
Yb V4 V2 4_455 1_556 87.416(12) yes
Yb V4 V2 4_455 3_656 66.771(10) yes
Yb V4 V3 4_455 2_546 65.642(9) yes
Yb V4 V3 4_455 3_666 155.007(13) yes
Yb V4 V4 4_455 3_656 64.635(10) yes
V1 V4 V1 2_545 3_666 119.621(13) yes
V1 V4 V2 2_545 . 63.890(12) yes
V1 V4 V2 2_545 1_556 112.644(14) yes
V1 V4 V2 2_545 3_656 134.052(14) yes
V1 V4 V3 2_545 2_546 47.363(9) yes
V1 V4 V3 2_545 3_666 95.231(12) yes
V1 V4 V4 2_545 3_656 105.887(13) yes
V1 V4 V2 3_666 . 116.288(14) yes
V1 V4 V2 3_666 1_556 68.540(12) yes
V1 V4 V2 3_666 3_656 101.027(13) yes
V1 V4 V3 3_666 2_546 101.198(12) yes
V1 V4 V3 3_666 3_666 48.400(9) yes
V1 V4 V4 3_666 3_656 127.370(14) yes
V2 V4 V2 . 1_556 174.879(17) yes
V2 V4 V2 . 3_656 117.755(15) yes
V2 V4 V3 . 2_546 111.150(14) yes
V2 V4 V3 . 3_666 68.040(12) yes
V2 V4 V4 . 3_656 61.215(12) yes
V2 V4 V2 1_556 3_656 61.457(12) yes
V2 V4 V3 1_556 2_546 65.281(11) yes
V2 V4 V3 1_556 3_666 116.629(14) yes
V2 V4 V4 1_556 3_656 117.760(15) yes
V2 V4 V3 3_656 2_546 107.699(13) yes
V2 V4 V3 3_656 3_666 129.290(15) yes
V2 V4 V4 3_656 3_656 56.541(11) yes
V3 V4 V3 2_546 3_666 116.510(12) yes
V3 V4 V4 2_546 3_656 129.885(14) yes
V3 V4 V4 3_666 3_656 105.938(13) yes
O1 Yb O2 3_665 3_665 94.02(6) yes
O1 Yb O3 3_665 . 71.48(6) yes
O1 Yb O4 3_665 3_665 94.88(6) yes
O1 Yb O5 3_665 3_666 69.23(6) yes
O1 Yb O6 3_665 3_666 140.11(6) yes
O1 Yb O7 3_665 4_564 70.34(6) yes
O1 Yb O8 3_665 3_666 140.11(6) yes
O2 Yb O3 3_665 . 137.30(6) yes
O2 Yb O4 3_665 3_665 72.66(6) yes
O2 Yb O5 3_665 3_666 142.06(6) yes
O2 Yb O6 3_665 3_666 75.36(6) yes
O2 Yb O7 3_665 4_564 71.00(6) yes
O2 Yb O8 3_665 3_666 118.06(6) yes
O3 Yb O4 . 3_665 69.05(6) yes
O3 Yb O5 . 3_666 71.03(6) yes
O3 Yb O6 . 3_666 140.01(6) yes
O3 Yb O7 . 4_564 133.49(6) yes
O3 Yb O8 . 3_666 68.85(6) yes
O4 Yb O5 3_665 3_666 139.95(6) yes
O4 Yb O6 3_665 3_666 117.18(6) yes
O4 Yb O7 3_665 4_564 139.36(6) yes
O4 Yb O8 3_665 3_666 74.85(6) yes
O5 Yb O6 3_666 3_666 95.60(6) yes
O5 Yb O7 3_666 4_564 71.30(6) yes
O5 Yb O8 3_666 3_666 93.84(6) yes
O6 Yb O7 3_666 4_564 69.85(6) yes
O6 Yb O8 3_666 3_666 74.93(6) yes
O7 Yb O8 4_564 3_666 139.76(6) yes
O1 V1 O3 2_555 . 97.71(7) yes
O1 V1 O4 2_555 . 101.28(7) yes
O1 V1 O4 2_555 3_665 171.47(7) yes
O1 V1 O5 2_555 2_555 99.55(7) yes
O1 V1 O8 2_555 3_666 86.97(7) yes
O3 V1 O4 . . 152.02(7) yes
O3 V1 O4 . 3_665 81.22(7) yes
O3 V1 O5 . 2_555 97.69(7) yes
O3 V1 O8 . 3_666 81.11(7) yes
O4 V1 O4 . 3_665 76.95(7) yes
O4 V1 O5 . 2_555 99.19(7) yes
O4 V1 O8 . 3_666 79.59(7) yes
O4 V1 O5 3_665 2_555 88.98(7) yes
O4 V1 O8 3_665 3_666 84.50(7) yes
O5 V1 O8 2_555 3_666 173.48(7) yes
O1 V2 O2 . 2_545 96.73(7) yes
O1 V2 O3 . 3_665 88.83(7) yes
O1 V2 O6 . 2_545 95.81(7) yes
O1 V2 O6 . 4_554 176.93(7) yes
O1 V2 O7 . 3_666 99.05(7) yes
O2 V2 O3 2_545 3_665 173.58(7) yes
O2 V2 O6 2_545 2_545 96.27(7) yes
O2 V2 O6 2_545 4_554 81.44(7) yes
O2 V2 O7 2_545 3_666 85.40(7) yes
O3 V2 O6 3_665 2_545 86.29(7) yes
O3 V2 O6 3_665 4_554 93.13(7) yes
O3 V2 O7 3_665 3_666 90.60(7) yes
O6 V2 O6 2_545 4_554 81.97(7) yes
O6 V2 O7 2_545 3_666 164.75(7) yes
O6 V2 O7 4_554 3_666 83.30(7) yes
O1 V3 O4 2_555 3_666 172.80(7) yes
O1 V3 O5 2_555 2_556 83.01(7) yes
O1 V3 O7 2_555 . 86.95(7) yes
O1 V3 O8 2_555 . 97.33(7) yes
O1 V3 O8 2_555 3_666 87.64(7) yes
O4 V3 O5 3_666 2_556 89.82(7) yes
O4 V3 O7 3_666 . 93.35(7) yes
O4 V3 O8 3_666 . 82.69(7) yes
O4 V3 O8 3_666 3_666 99.53(7) yes
O5 V3 O7 2_556 . 87.35(7) yes
O5 V3 O8 2_556 . 95.42(7) yes
O5 V3 O8 2_556 3_666 170.64(7) yes
O7 V3 O8 . . 175.14(7) yes
O7 V3 O8 . 3_666 92.42(7) yes
O8 V3 O8 . 3_666 85.48(7) yes
O2 V4 O2 2_545 4_555 81.27(7) yes
O2 V4 O3 2_545 3_666 175.33(7) yes
O2 V4 O5 2_545 . 93.24(7) yes
O2 V4 O6 2_545 2_546 88.13(7) yes
O2 V4 O7 2_545 3_666 86.66(7) yes
O2 V4 O3 4_555 3_666 96.29(7) yes
O2 V4 O5 4_555 . 171.68(7) yes
O2 V4 O6 4_555 2_546 81.93(7) yes
O2 V4 O7 4_555 3_666 85.84(7) yes
O3 V4 O5 3_666 . 88.73(7) yes
O3 V4 O6 3_666 2_546 87.59(7) yes
O3 V4 O7 3_666 3_666 97.17(7) yes
O5 V4 O6 . 2_546 91.69(7) yes
O5 V4 O7 . 3_666 100.15(7) yes
O6 V4 O7 2_546 3_666 167.31(7) yes
loop_
_geom_bond_atom_site_label_1
_geom_bond_atom_site_label_2
_geom_bond_site_symmetry_2
_geom_bond_distance
_geom_bond_publ_flag
Yb V1 . 3.0319(4) yes
Yb V1 3_665 3.6695(4) yes
Yb V1 4_564 4.0472(4) yes
Yb V1 4_565 4.0162(4) yes
Yb V2 2_655 3.4038(4) yes
Yb V2 3_665 3.3351(4) yes
Yb V2 4_554 4.1870(4) yes
Yb V2 4_555 4.1677(4) yes
Yb V3 1_554 3.9965(4) yes
Yb V3 . 4.0131(4) yes
Yb V3 3_666 3.7306(4) yes
Yb V3 4_564 3.0423(4) yes
Yb V4 2_655 3.3221(4) yes
Yb V4 3_666 3.3056(4) yes
Yb V4 4_554 3.1541(4) yes
V1 V1 3_665 3.1840(5) yes
V1 V2 2_555 3.3787(5) yes
V1 V2 3_665 3.6595(5) yes
V1 V3 1_554 2.8683(5) yes
V1 V3 . 2.9047(5) yes
V1 V3 3_666 3.0236(5) yes
V1 V4 2_555 3.4399(5) yes
V1 V4 3_666 3.5515(5) yes
V2 V2 3_655 3.0172(5) yes
V2 V3 2_545 3.5983(5) yes
V2 V3 3_666 3.6307(5) yes
V2 V4 1_554 2.8701(5) yes
V2 V4 . 2.8829(5) yes
V2 V4 3_656 3.0286(5) yes
V3 V3 3_666 2.8863(5) yes
V3 V4 2_556 3.6802(5) yes
V3 V4 3_666 3.5344(5) yes
V4 V4 3_656 3.0580(5) yes
Yb O1 3_665 2.4160(16) yes
Yb O2 3_665 2.2623(16) yes
Yb O3 . 2.3477(17) yes
Yb O4 3_665 2.2877(16) yes
Yb O5 3_666 2.3992(17) yes
Yb O6 3_666 2.2872(16) yes
Yb O7 4_564 2.3769(17) yes
Yb O8 3_666 2.2817(17) yes
V1 O1 2_555 1.9664(18) yes
V1 O3 . 1.9652(17) yes
V1 O4 . 1.9963(17) yes
V1 O4 3_665 2.0703(17) yes
V1 O5 2_555 1.9793(18) yes
V1 O8 3_666 2.0596(17) yes
V2 O1 . 1.9721(17) yes
V2 O2 2_545 2.0024(16) yes
V2 O3 3_665 2.0041(17) yes
V2 O6 2_545 1.9824(17) yes
V2 O6 4_554 2.0144(17) yes
V2 O7 3_666 2.0048(17) yes
V3 O1 2_555 2.0550(18) yes
V3 O4 3_666 1.9461(17) yes
V3 O5 2_556 2.0728(18) yes
V3 O7 . 1.9565(17) yes
V3 O8 . 1.9839(17) yes
V3 O8 3_666 1.9459(17) yes
V4 O2 2_545 2.0158(16) yes
V4 O2 4_555 2.0140(17) yes
V4 O3 3_666 1.9564(17) yes
V4 O5 . 1.9874(18) yes
V4 O6 2_546 1.9829(17) yes
V4 O7 3_666 1.9438(17) yes
loop_
_refln_index_h
_refln_index_k
_refln_index_l
2 0 0
4 0 0
6 0 0
8 0 0
10 0 0
12 0 0
14 0 0
16 0 0
18 0 0
20 0 0
1 1 0
2 1 0
3 1 0
4 1 0
5 1 0
6 1 0
7 1 0
8 1 0
9 1 0
10 1 0
11 1 0
12 1 0
13 1 0
14 1 0
15 1 0
16 1 0
17 1 0
18 1 0
19 1 0
20 1 0
1 2 0
2 2 0
3 2 0
4 2 0
5 2 0
6 2 0
7 2 0
8 2 0
9 2 0
10 2 0
11 2 0
12 2 0
13 2 0
14 2 0
15 2 0
16 2 0
17 2 0
18 2 0
19 2 0
20 2 0
1 3 0
2 3 0
3 3 0
4 3 0
5 3 0
6 3 0
7 3 0
8 3 0
9 3 0
10 3 0
11 3 0
12 3 0
13 3 0
14 3 0
15 3 0
16 3 0
17 3 0
18 3 0
19 3 0
20 3 0
1 4 0
2 4 0
3 4 0
4 4 0
5 4 0
6 4 0
7 4 0
8 4 0
9 4 0
10 4 0
11 4 0
12 4 0
13 4 0
14 4 0
15 4 0
16 4 0
17 4 0
18 4 0
19 4 0
20 4 0
1 5 0
2 5 0
3 5 0
4 5 0
5 5 0
6 5 0
7 5 0
8 5 0
9 5 0
10 5 0
11 5 0
12 5 0
13 5 0
14 5 0
15 5 0
16 5 0
17 5 0
18 5 0
19 5 0
20 5 0
1 6 0
2 6 0
3 6 0
4 6 0
5 6 0
6 6 0
7 6 0
8 6 0
9 6 0
10 6 0
11 6 0
12 6 0
13 6 0
14 6 0
15 6 0
16 6 0
17 6 0
18 6 0
19 6 0
1 7 0
2 7 0
3 7 0
4 7 0
5 7 0
6 7 0
7 7 0
8 7 0
9 7 0
10 7 0
11 7 0
12 7 0
13 7 0
14 7 0
15 7 0
16 7 0
17 7 0
18 7 0
19 7 0
1 8 0
2 8 0
3 8 0
4 8 0
5 8 0
6 8 0
7 8 0
8 8 0
9 8 0
10 8 0
11 8 0
12 8 0
13 8 0
14 8 0
15 8 0
16 8 0
17 8 0
18 8 0
19 8 0
1 9 0
2 9 0
3 9 0
4 9 0
5 9 0
6 9 0
7 9 0
8 9 0
9 9 0
10 9 0
11 9 0
12 9 0
13 9 0
14 9 0
15 9 0
16 9 0
17 9 0
18 9 0
2 10 0
3 10 0
4 10 0
5 10 0
6 10 0
7 10 0
8 10 0
9 10 0
10 10 0
11 10 0
12 10 0
13 10 0
14 10 0
15 10 0
16 10 0
17 10 0
18 10 0
2 11 0
3 11 0
4 11 0
5 11 0
6 11 0
7 11 0
8 11 0
9 11 0
10 11 0
11 11 0
12 11 0
13 11 0
14 11 0
15 11 0
16 11 0
17 11 0
18 11 0
1 12 0
2 12 0
3 12 0
4 12 0
5 12 0
6 12 0
7 12 0
8 12 0
9 12 0
10 12 0
11 12 0
12 12 0
13 12 0
14 12 0
15 12 0
16 12 0
17 12 0
1 13 0
2 13 0
3 13 0
4 13 0
5 13 0
6 13 0
7 13 0
8 13 0
9 13 0
10 13 0
11 13 0
12 13 0
13 13 0
14 13 0
15 13 0
16 13 0
17 13 0
1 14 0
2 14 0
3 14 0
4 14 0
5 14 0
6 14 0
7 14 0
8 14 0
9 14 0
10 14 0
11 14 0
12 14 0
13 14 0
14 14 0
15 14 0
16 14 0
1 15 0
2 15 0
3 15 0
4 15 0
5 15 0
6 15 0
7 15 0
8 15 0
9 15 0
10 15 0
11 15 0
12 15 0
13 15 0
14 15 0
15 15 0
1 16 0
2 16 0
3 16 0
4 16 0
5 16 0
6 16 0
7 16 0
8 16 0
9 16 0
10 16 0
11 16 0
12 16 0
13 16 0
14 16 0
15 16 0
1 17 0
2 17 0
3 17 0
4 17 0
5 17 0
6 17 0
7 17 0
8 17 0
9 17 0
10 17 0
11 17 0
12 17 0
13 17 0
14 17 0
2 18 0
3 18 0
4 18 0
5 18 0
6 18 0
7 18 0
8 18 0
9 18 0
10 18 0
11 18 0
12 18 0
13 18 0
2 19 0
3 19 0
4 19 0
5 19 0
6 19 0
7 19 0
8 19 0
9 19 0
10 19 0
11 19 0
12 19 0
2 20 0
3 20 0
4 20 0
5 20 0
6 20 0
7 20 0
8 20 0
9 20 0
10 20 0
11 20 0
3 21 0
4 21 0
5 21 0
6 21 0
7 21 0
8 21 0
9 21 0
4 22 0
5 22 0
6 22 0
7 22 0
4 23 0
5 23 0
-19 0 1
-17 0 1
-15 0 1
-13 0 1
-11 0 1
-9 0 1
-7 0 1
-5 0 1
-3 0 1
-1 0 1
1 0 1
3 0 1
5 0 1
7 0 1
9 0 1
11 0 1
13 0 1
15 0 1
17 0 1
19 0 1
-20 1 1
-19 1 1
-18 1 1
-17 1 1
-16 1 1
-15 1 1
-14 1 1
-13 1 1
-12 1 1
-11 1 1
-10 1 1
-9 1 1
-8 1 1
-7 1 1
-6 1 1
-5 1 1
-4 1 1
-3 1 1
-2 1 1
-1 1 1
0 1 1
1 1 1
2 1 1
3 1 1
4 1 1
5 1 1
6 1 1
7 1 1
8 1 1
9 1 1
10 1 1
11 1 1
12 1 1
13 1 1
14 1 1
15 1 1
16 1 1
17 1 1
18 1 1
19 1 1
20 1 1
-20 2 1
-19 2 1
-18 2 1
-17 2 1
-16 2 1
-15 2 1
-14 2 1
-13 2 1
-12 2 1
-11 2 1
-10 2 1
-9 2 1
-8 2 1
-7 2 1
-6 2 1
-5 2 1
-4 2 1
-3 2 1
-2 2 1
-1 2 1
0 2 1
1 2 1
2 2 1
3 2 1
4 2 1
5 2 1
6 2 1
7 2 1
8 2 1
9 2 1
10 2 1
11 2 1
12 2 1
13 2 1
14 2 1
15 2 1
16 2 1
17 2 1
18 2 1
19 2 1
20 2 1
-20 3 1
-19 3 1
-18 3 1
-17 3 1
-16 3 1
-15 3 1
-14 3 1
-13 3 1
-12 3 1
-11 3 1
-10 3 1
-9 3 1
-8 3 1
-7 3 1
-6 3 1
-5 3 1
-4 3 1
-3 3 1
-2 3 1
-1 3 1
0 3 1
1 3 1
2 3 1
3 3 1
4 3 1
5 3 1
6 3 1
7 3 1
8 3 1
9 3 1
10 3 1
11 3 1
12 3 1
13 3 1
14 3 1
15 3 1
16 3 1
17 3 1
18 3 1
19 3 1
20 3 1
-20 4 1
-19 4 1
-18 4 1
-17 4 1
-16 4 1
-15 4 1
-14 4 1
-13 4 1
-12 4 1
-11 4 1
-10 4 1
-9 4 1
-8 4 1
-7 4 1
-6 4 1
-5 4 1
-4 4 1
-3 4 1
-2 4 1
-1 4 1
0 4 1
1 4 1
2 4 1
3 4 1
4 4 1
5 4 1
6 4 1
7 4 1
8 4 1
9 4 1
10 4 1
11 4 1
12 4 1
13 4 1
14 4 1
15 4 1
16 4 1
17 4 1
18 4 1
19 4 1
20 4 1
-19 5 1
-18 5 1
-17 5 1
-16 5 1
-15 5 1
-14 5 1
-13 5 1
-12 5 1
-11 5 1
-10 5 1
-9 5 1
-8 5 1
-7 5 1
-6 5 1
-5 5 1
-4 5 1
-3 5 1
-2 5 1
-1 5 1
0 5 1
1 5 1
2 5 1
3 5 1
4 5 1
5 5 1
6 5 1
7 5 1
8 5 1
9 5 1
10 5 1
11 5 1
12 5 1
13 5 1
14 5 1
15 5 1
16 5 1
17 5 1
18 5 1
19 5 1
-19 6 1
-18 6 1
-17 6 1
-16 6 1
-15 6 1
-14 6 1
-13 6 1
-12 6 1
-11 6 1
-10 6 1
-9 6 1
-8 6 1
-7 6 1
-6 6 1
-5 6 1
-4 6 1
-3 6 1
-2 6 1
-1 6 1
0 6 1
1 6 1
2 6 1
3 6 1
4 6 1
5 6 1
6 6 1
7 6 1
8 6 1
9 6 1
10 6 1
11 6 1
12 6 1
13 6 1
14 6 1
15 6 1
16 6 1
17 6 1
18 6 1
19 6 1
-19 7 1
-18 7 1
-17 7 1
-16 7 1
-15 7 1
-14 7 1
-13 7 1
-12 7 1
-11 7 1
-10 7 1
-9 7 1
-8 7 1
-7 7 1
-6 7 1
-5 7 1
-4 7 1
-3 7 1
-2 7 1
-1 7 1
0 7 1
1 7 1
2 7 1
3 7 1
4 7 1
5 7 1
6 7 1
7 7 1
8 7 1
9 7 1
10 7 1
11 7 1
12 7 1
13 7 1
14 7 1
15 7 1
16 7 1
17 7 1
18 7 1
19 7 1
-19 8 1
-18 8 1
-17 8 1
-16 8 1
-15 8 1
-14 8 1
-13 8 1
-12 8 1
-11 8 1
-10 8 1
-9 8 1
-8 8 1
-7 8 1
-6 8 1
-5 8 1
-4 8 1
-3 8 1
-2 8 1
-1 8 1
0 8 1
1 8 1
2 8 1
3 8 1
4 8 1
5 8 1
6 8 1
7 8 1
8 8 1
9 8 1
10 8 1
11 8 1
12 8 1
13 8 1
14 8 1
15 8 1
16 8 1
17 8 1
18 8 1
19 8 1
-18 9 1
-17 9 1
-16 9 1
-15 9 1
-14 9 1
-13 9 1
-12 9 1
-11 9 1
-10 9 1
-9 9 1
-8 9 1
-7 9 1
-6 9 1
-5 9 1
-4 9 1
-3 9 1
-2 9 1
-1 9 1
0 9 1
1 9 1
2 9 1
3 9 1
4 9 1
5 9 1
6 9 1
7 9 1
8 9 1
9 9 1
10 9 1
11 9 1
12 9 1
13 9 1
14 9 1
15 9 1
16 9 1
17 9 1
18 9 1
-18 10 1
-17 10 1
-16 10 1
-15 10 1
-14 10 1
-13 10 1
-12 10 1
-11 10 1
-10 10 1
-9 10 1
-8 10 1
-7 10 1
-6 10 1
-5 10 1
-4 10 1
-3 10 1
-2 10 1
-1 10 1
0 10 1
1 10 1
2 10 1
3 10 1
4 10 1
5 10 1
6 10 1
7 10 1
8 10 1
9 10 1
10 10 1
11 10 1
12 10 1
13 10 1
14 10 1
15 10 1
16 10 1
17 10 1
18 10 1
-18 11 1
-17 11 1
-16 11 1
-15 11 1
-14 11 1
-13 11 1
-12 11 1
-11 11 1
-10 11 1
-9 11 1
-8 11 1
-7 11 1
-6 11 1
-5 11 1
-4 11 1
-3 11 1
-2 11 1
-1 11 1
0 11 1
1 11 1
2 11 1
3 11 1
4 11 1
5 11 1
6 11 1
7 11 1
8 11 1
9 11 1
10 11 1
11 11 1
12 11 1
13 11 1
14 11 1
15 11 1
16 11 1
17 11 1
18 11 1
-17 12 1
-16 12 1
-15 12 1
-14 12 1
-13 12 1
-12 12 1
-11 12 1
-10 12 1
-9 12 1
-8 12 1
-7 12 1
-6 12 1
-5 12 1
-4 12 1
-3 12 1
-2 12 1
-1 12 1
0 12 1
1 12 1
2 12 1
3 12 1
4 12 1
5 12 1
6 12 1
7 12 1
8 12 1
9 12 1
10 12 1
11 12 1
12 12 1
13 12 1
14 12 1
15 12 1
16 12 1
17 12 1
-17 13 1
-16 13 1
-15 13 1
-14 13 1
-13 13 1
-12 13 1
-11 13 1
-10 13 1
-9 13 1
-8 13 1
-7 13 1
-6 13 1
-5 13 1
-4 13 1
-3 13 1
-2 13 1
-1 13 1
0 13 1
1 13 1
2 13 1
3 13 1
4 13 1
5 13 1
6 13 1
7 13 1
8 13 1
9 13 1
10 13 1
11 13 1
12 13 1
13 13 1
14 13 1
15 13 1
16 13 1
17 13 1
-16 14 1
-15 14 1
-14 14 1
-13 14 1
-12 14 1
-11 14 1
-10 14 1
-9 14 1
-8 14 1
-7 14 1
-6 14 1
-5 14 1
-4 14 1
-3 14 1
-2 14 1
-1 14 1
0 14 1
1 14 1
2 14 1
3 14 1
4 14 1
5 14 1
6 14 1
7 14 1
8 14 1
9 14 1
10 14 1
11 14 1
12 14 1
13 14 1
14 14 1
15 14 1
16 14 1
-15 15 1
-14 15 1
-13 15 1
-12 15 1
-11 15 1
-10 15 1
-9 15 1
-8 15 1
-7 15 1
-6 15 1
-5 15 1
-4 15 1
-3 15 1
-2 15 1
-1 15 1
0 15 1
1 15 1
2 15 1
3 15 1
4 15 1
5 15 1
6 15 1
7 15 1
8 15 1
9 15 1
10 15 1
11 15 1
12 15 1
13 15 1
14 15 1
15 15 1
-15 16 1
-14 16 1
-13 16 1
-12 16 1
-11 16 1
-10 16 1
-9 16 1
-8 16 1
-7 16 1
-6 16 1
-5 16 1
-4 16 1
-3 16 1
-2 16 1
-1 16 1
0 16 1
1 16 1
2 16 1
3 16 1
4 16 1
5 16 1
6 16 1
7 16 1
8 16 1
9 16 1
10 16 1
11 16 1
12 16 1
13 16 1
14 16 1
15 16 1
-14 17 1
-13 17 1
-12 17 1
-11 17 1
-10 17 1
-9 17 1
-8 17 1
-7 17 1
-6 17 1
-5 17 1
-4 17 1
-3 17 1
-2 17 1
-1 17 1
0 17 1
1 17 1
2 17 1
3 17 1
4 17 1
5 17 1
6 17 1
7 17 1
8 17 1
9 17 1
10 17 1
11 17 1
12 17 1
13 17 1
14 17 1
-13 18 1
-12 18 1
-11 18 1
-10 18 1
-9 18 1
-8 18 1
-7 18 1
-6 18 1
-5 18 1
-4 18 1
-3 18 1
-2 18 1
-1 18 1
2 18 1
3 18 1
4 18 1
5 18 1
6 18 1
7 18 1
8 18 1
9 18 1
10 18 1
11 18 1
12 18 1
13 18 1
-12 19 1
-11 19 1
-10 19 1
-9 19 1
-8 19 1
-7 19 1
-6 19 1
-5 19 1
-4 19 1
-3 19 1
-2 19 1
-1 19 1
2 19 1
3 19 1
4 19 1
5 19 1
6 19 1
7 19 1
8 19 1
9 19 1
10 19 1
11 19 1
12 19 1
-11 20 1
-10 20 1
-9 20 1
-8 20 1
-7 20 1
-6 20 1
-5 20 1
-4 20 1
-3 20 1
-2 20 1
3 20 1
4 20 1
5 20 1
6 20 1
7 20 1
8 20 1
9 20 1
10 20 1
11 20 1
-9 21 1
-8 21 1
-7 21 1
-6 21 1
-5 21 1
-4 21 1
-3 21 1
-2 21 1
3 21 1
4 21 1
5 21 1
6 21 1
7 21 1
8 21 1
9 21 1
-7 22 1
-6 22 1
-5 22 1
-4 22 1
-3 22 1
4 22 1
5 22 1
6 22 1
7 22 1
-4 23 1
4 23 1
-20 0 2
-18 0 2
-16 0 2
-14 0 2
-12 0 2
-10 0 2
-8 0 2
-6 0 2
-4 0 2
-2 0 2
0 0 2
2 0 2
4 0 2
6 0 2
8 0 2
10 0 2
12 0 2
14 0 2
16 0 2
18 0 2
20 0 2
-20 1 2
-19 1 2
-18 1 2
-17 1 2
-16 1 2
-15 1 2
-14 1 2
-13 1 2
-12 1 2
-11 1 2
-10 1 2
-9 1 2
-8 1 2
-7 1 2
-6 1 2
-5 1 2
-4 1 2
-3 1 2
-2 1 2
-1 1 2
0 1 2
1 1 2
2 1 2
3 1 2
4 1 2
5 1 2
6 1 2
7 1 2
8 1 2
9 1 2
10 1 2
11 1 2
12 1 2
13 1 2
14 1 2
15 1 2
16 1 2
17 1 2
18 1 2
19 1 2
20 1 2
-20 2 2
-19 2 2
-18 2 2
-17 2 2
-16 2 2
-15 2 2
-14 2 2
-13 2 2
-12 2 2
-11 2 2
-10 2 2
-9 2 2
-8 2 2
-7 2 2
-6 2 2
-5 2 2
-4 2 2
-3 2 2
-2 2 2
-1 2 2
0 2 2
1 2 2
2 2 2
3 2 2
4 2 2
5 2 2
6 2 2
7 2 2
8 2 2
9 2 2
10 2 2
11 2 2
12 2 2
13 2 2
14 2 2
15 2 2
16 2 2
17 2 2
18 2 2
19 2 2
20 2 2
-20 3 2
-19 3 2
-18 3 2
-17 3 2
-16 3 2
-15 3 2
-14 3 2
-13 3 2
-12 3 2
-11 3 2
-10 3 2
-9 3 2
-8 3 2
-7 3 2
-6 3 2
-5 3 2
-4 3 2
-3 3 2
-2 3 2
-1 3 2
0 3 2
1 3 2
2 3 2
3 3 2
4 3 2
5 3 2
6 3 2
7 3 2
8 3 2
9 3 2
10 3 2
11 3 2
12 3 2
13 3 2
14 3 2
15 3 2
16 3 2
17 3 2
18 3 2
19 3 2
20 3 2
-19 4 2
-18 4 2
-17 4 2
-16 4 2
-15 4 2
-14 4 2
-13 4 2
-12 4 2
-11 4 2
-10 4 2
-9 4 2
-8 4 2
-7 4 2
-6 4 2
-5 4 2
-4 4 2
-3 4 2
-2 4 2
-1 4 2
0 4 2
1 4 2
2 4 2
3 4 2
4 4 2
5 4 2
6 4 2
7 4 2
8 4 2
9 4 2
10 4 2
11 4 2
12 4 2
13 4 2
14 4 2
15 4 2
16 4 2
17 4 2
18 4 2
19 4 2
-19 5 2
-18 5 2
-17 5 2
-16 5 2
-15 5 2
-14 5 2
-13 5 2
-12 5 2
-11 5 2
-10 5 2
-9 5 2
-8 5 2
-7 5 2
-6 5 2
-5 5 2
-4 5 2
-3 5 2
-2 5 2
-1 5 2
0 5 2
1 5 2
2 5 2
3 5 2
4 5 2
5 5 2
6 5 2
7 5 2
8 5 2
9 5 2
10 5 2
11 5 2
12 5 2
13 5 2
14 5 2
15 5 2
16 5 2
17 5 2
18 5 2
19 5 2
-19 6 2
-18 6 2
-17 6 2
-16 6 2
-15 6 2
-14 6 2
-13 6 2
-12 6 2
-11 6 2
-10 6 2
-9 6 2
-8 6 2
-7 6 2
-6 6 2
-5 6 2
-4 6 2
-3 6 2
-2 6 2
-1 6 2
0 6 2
1 6 2
2 6 2
3 6 2
4 6 2
5 6 2
6 6 2
7 6 2
8 6 2
9 6 2
10 6 2
11 6 2
12 6 2
13 6 2
14 6 2
15 6 2
16 6 2
17 6 2
18 6 2
19 6 2
-19 7 2
-18 7 2
-17 7 2
-16 7 2
-15 7 2
-14 7 2
-13 7 2
-12 7 2
-11 7 2
-10 7 2
-9 7 2
-8 7 2
-7 7 2
-6 7 2
-5 7 2
-4 7 2
-3 7 2
-2 7 2
-1 7 2
0 7 2
1 7 2
2 7 2
3 7 2
4 7 2
5 7 2
6 7 2
7 7 2
8 7 2
9 7 2
10 7 2
11 7 2
12 7 2
13 7 2
14 7 2
15 7 2
16 7 2
17 7 2
18 7 2
19 7 2
-19 8 2
-18 8 2
-17 8 2
-16 8 2
-15 8 2
-14 8 2
-13 8 2
-12 8 2
-11 8 2
-10 8 2
-9 8 2
-8 8 2
-7 8 2
-6 8 2
-5 8 2
-4 8 2
-3 8 2
-2 8 2
-1 8 2
0 8 2
1 8 2
2 8 2
3 8 2
4 8 2
5 8 2
6 8 2
7 8 2
8 8 2
9 8 2
10 8 2
11 8 2
12 8 2
13 8 2
14 8 2
15 8 2
16 8 2
17 8 2
18 8 2
19 8 2
-18 9 2
-17 9 2
-16 9 2
-15 9 2
-14 9 2
-13 9 2
-12 9 2
-11 9 2
-10 9 2
-9 9 2
-8 9 2
-7 9 2
-6 9 2
-5 9 2
-4 9 2
-3 9 2
-2 9 2
-1 9 2
0 9 2
1 9 2
2 9 2
3 9 2
4 9 2
5 9 2
6 9 2
7 9 2
8 9 2
9 9 2
10 9 2
11 9 2
12 9 2
13 9 2
14 9 2
15 9 2
16 9 2
17 9 2
18 9 2
-18 10 2
-17 10 2
-16 10 2
-15 10 2
-14 10 2
-13 10 2
-12 10 2
-11 10 2
-10 10 2
-9 10 2
-8 10 2
-7 10 2
-6 10 2
-5 10 2
-4 10 2
-3 10 2
-2 10 2
-1 10 2
0 10 2
1 10 2
2 10 2
3 10 2
4 10 2
5 10 2
6 10 2
7 10 2
8 10 2
9 10 2
10 10 2
11 10 2
12 10 2
13 10 2
14 10 2
15 10 2
16 10 2
17 10 2
18 10 2
-17 11 2
-16 11 2
-15 11 2
-14 11 2
-13 11 2
-12 11 2
-11 11 2
-10 11 2
-9 11 2
-8 11 2
-7 11 2
-6 11 2
-5 11 2
-4 11 2
-3 11 2
-2 11 2
-1 11 2
0 11 2
1 11 2
2 11 2
3 11 2
4 11 2
5 11 2
6 11 2
7 11 2
8 11 2
9 11 2
10 11 2
11 11 2
12 11 2
13 11 2
14 11 2
15 11 2
16 11 2
17 11 2
-17 12 2
-16 12 2
-15 12 2
-14 12 2
-13 12 2
-12 12 2
-11 12 2
-10 12 2
-9 12 2
-8 12 2
-7 12 2
-6 12 2
-5 12 2
-4 12 2
-3 12 2
-2 12 2
-1 12 2
0 12 2
1 12 2
2 12 2
3 12 2
4 12 2
5 12 2
6 12 2
7 12 2
8 12 2
9 12 2
10 12 2
11 12 2
12 12 2
13 12 2
14 12 2
15 12 2
16 12 2
17 12 2
-16 13 2
-15 13 2
-14 13 2
-13 13 2
-12 13 2
-11 13 2
-10 13 2
-9 13 2
-8 13 2
-7 13 2
-6 13 2
-5 13 2
-4 13 2
-3 13 2
-2 13 2
-1 13 2
0 13 2
1 13 2
2 13 2
3 13 2
4 13 2
5 13 2
6 13 2
7 13 2
8 13 2
9 13 2
10 13 2
11 13 2
12 13 2
13 13 2
14 13 2
15 13 2
16 13 2
-16 14 2
-15 14 2
-14 14 2
-13 14 2
-12 14 2
-11 14 2
-10 14 2
-9 14 2
-8 14 2
-7 14 2
-6 14 2
-5 14 2
-4 14 2
-3 14 2
-2 14 2
-1 14 2
0 14 2
1 14 2
2 14 2
3 14 2
4 14 2
5 14 2
6 14 2
7 14 2
8 14 2
9 14 2
10 14 2
11 14 2
12 14 2
13 14 2
14 14 2
15 14 2
16 14 2
-15 15 2
-14 15 2
-13 15 2
-12 15 2
-11 15 2
-10 15 2
-9 15 2
-8 15 2
-7 15 2
-6 15 2
-5 15 2
-4 15 2
-3 15 2
-2 15 2
-1 15 2
0 15 2
1 15 2
2 15 2
3 15 2
4 15 2
5 15 2
6 15 2
7 15 2
8 15 2
9 15 2
10 15 2
11 15 2
12 15 2
13 15 2
14 15 2
15 15 2
-14 16 2
-13 16 2
-12 16 2
-11 16 2
-10 16 2
-9 16 2
-8 16 2
-7 16 2
-6 16 2
-5 16 2
-4 16 2
-3 16 2
-2 16 2
-1 16 2
0 16 2
1 16 2
2 16 2
3 16 2
4 16 2
5 16 2
6 16 2
7 16 2
8 16 2
9 16 2
10 16 2
11 16 2
12 16 2
13 16 2
14 16 2
-14 17 2
-13 17 2
-12 17 2
-11 17 2
-10 17 2
-9 17 2
-8 17 2
-7 17 2
-6 17 2
-5 17 2
-4 17 2
-3 17 2
-2 17 2
-1 17 2
0 17 2
1 17 2
2 17 2
3 17 2
4 17 2
5 17 2
6 17 2
7 17 2
8 17 2
9 17 2
10 17 2
11 17 2
12 17 2
13 17 2
14 17 2
-13 18 2
-12 18 2
-11 18 2
-10 18 2
-9 18 2
-8 18 2
-7 18 2
-6 18 2
-5 18 2
-4 18 2
-3 18 2
-2 18 2
-1 18 2
0 18 2
1 18 2
2 18 2
3 18 2
4 18 2
5 18 2
6 18 2
7 18 2
8 18 2
9 18 2
10 18 2
11 18 2
12 18 2
13 18 2
-12 19 2
-11 19 2
-10 19 2
-9 19 2
-8 19 2
-7 19 2
-6 19 2
-5 19 2
-4 19 2
-3 19 2
-2 19 2
-1 19 2
0 19 2
1 19 2
2 19 2
3 19 2
4 19 2
5 19 2
6 19 2
7 19 2
8 19 2
9 19 2
10 19 2
11 19 2
12 19 2
-10 20 2
-9 20 2
-8 20 2
-7 20 2
-6 20 2
-5 20 2
-4 20 2
-3 20 2
-2 20 2
-1 20 2
0 20 2
2 20 2
3 20 2
4 20 2
5 20 2
6 20 2
7 20 2
8 20 2
9 20 2
10 20 2
-9 21 2
-8 21 2
-7 21 2
-6 21 2
-5 21 2
-4 21 2
-3 21 2
-2 21 2
-1 21 2
3 21 2
4 21 2
5 21 2
6 21 2
7 21 2
8 21 2
9 21 2
-7 22 2
-6 22 2
-5 22 2
-4 22 2
-3 22 2
-2 22 2
3 22 2
4 22 2
5 22 2
6 22 2
7 22 2
-4 23 2
-3 23 2
-19 0 3
-17 0 3
-15 0 3
-13 0 3
-11 0 3
-9 0 3
-7 0 3
-5 0 3
-3 0 3
-1 0 3
1 0 3
3 0 3
5 0 3
7 0 3
9 0 3
11 0 3
13 0 3
15 0 3
17 0 3
19 0 3
-19 1 3
-18 1 3
-17 1 3
-16 1 3
-15 1 3
-14 1 3
-13 1 3
-12 1 3
-11 1 3
-10 1 3
-9 1 3
-8 1 3
-7 1 3
-6 1 3
-5 1 3
-4 1 3
-3 1 3
-2 1 3
-1 1 3
0 1 3
1 1 3
2 1 3
3 1 3
4 1 3
5 1 3
6 1 3
7 1 3
8 1 3
9 1 3
10 1 3
11 1 3
12 1 3
13 1 3
14 1 3
15 1 3
16 1 3
17 1 3
18 1 3
19 1 3
-19 2 3
-18 2 3
-17 2 3
-16 2 3
-15 2 3
-14 2 3
-13 2 3
-12 2 3
-11 2 3
-10 2 3
-9 2 3
-8 2 3
-7 2 3
-6 2 3
-5 2 3
-4 2 3
-3 2 3
-2 2 3
-1 2 3
0 2 3
1 2 3
2 2 3
3 2 3
4 2 3
5 2 3
6 2 3
7 2 3
8 2 3
9 2 3
10 2 3
11 2 3
12 2 3
13 2 3
14 2 3
15 2 3
16 2 3
17 2 3
18 2 3
19 2 3
-19 3 3
-18 3 3
-17 3 3
-16 3 3
-15 3 3
-14 3 3
-13 3 3
-12 3 3
-11 3 3
-10 3 3
-9 3 3
-8 3 3
-7 3 3
-6 3 3
-5 3 3
-4 3 3
-3 3 3
-2 3 3
-1 3 3
0 3 3
1 3 3
2 3 3
3 3 3
4 3 3
5 3 3
6 3 3
7 3 3
8 3 3
9 3 3
10 3 3
11 3 3
12 3 3
13 3 3
14 3 3
15 3 3
16 3 3
17 3 3
18 3 3
19 3 3
-19 4 3
-18 4 3
-17 4 3
-16 4 3
-15 4 3
-14 4 3
-13 4 3
-12 4 3
-11 4 3
-10 4 3
-9 4 3
-8 4 3
-7 4 3
-6 4 3
-5 4 3
-4 4 3
-3 4 3
-2 4 3
-1 4 3
0 4 3
1 4 3
2 4 3
3 4 3
4 4 3
5 4 3
6 4 3
7 4 3
8 4 3
9 4 3
10 4 3
11 4 3
12 4 3
13 4 3
14 4 3
15 4 3
16 4 3
17 4 3
18 4 3
19 4 3
-19 5 3
-18 5 3
-17 5 3
-16 5 3
-15 5 3
-14 5 3
-13 5 3
-12 5 3
-11 5 3
-10 5 3
-9 5 3
-8 5 3
-7 5 3
-6 5 3
-5 5 3
-4 5 3
-3 5 3
-2 5 3
-1 5 3
0 5 3
1 5 3
2 5 3
3 5 3
4 5 3
5 5 3
6 5 3
7 5 3
8 5 3
9 5 3
10 5 3
11 5 3
12 5 3
13 5 3
14 5 3
15 5 3
16 5 3
17 5 3
18 5 3
19 5 3
-19 6 3
-18 6 3
-17 6 3
-16 6 3
-15 6 3
-14 6 3
-13 6 3
-12 6 3
-11 6 3
-10 6 3
-9 6 3
-8 6 3
-7 6 3
-6 6 3
-5 6 3
-4 6 3
-3 6 3
-2 6 3
-1 6 3
0 6 3
1 6 3
2 6 3
3 6 3
4 6 3
5 6 3
6 6 3
7 6 3
8 6 3
9 6 3
10 6 3
11 6 3
12 6 3
13 6 3
14 6 3
15 6 3
16 6 3
17 6 3
18 6 3
19 6 3
-19 7 3
-18 7 3
-17 7 3
-16 7 3
-15 7 3
-14 7 3
-13 7 3
-12 7 3
-11 7 3
-10 7 3
-9 7 3
-8 7 3
-7 7 3
-6 7 3
-5 7 3
-4 7 3
-3 7 3
-2 7 3
-1 7 3
0 7 3
1 7 3
2 7 3
3 7 3
4 7 3
5 7 3
6 7 3
7 7 3
8 7 3
9 7 3
10 7 3
11 7 3
12 7 3
13 7 3
14 7 3
15 7 3
16 7 3
17 7 3
18 7 3
-18 8 3
-17 8 3
-16 8 3
-15 8 3
-14 8 3
-13 8 3
-12 8 3
-11 8 3
-10 8 3
-9 8 3
-8 8 3
-7 8 3
-6 8 3
-5 8 3
-4 8 3
-3 8 3
-2 8 3
-1 8 3
0 8 3
1 8 3
2 8 3
3 8 3
4 8 3
5 8 3
6 8 3
7 8 3
8 8 3
9 8 3
10 8 3
11 8 3
12 8 3
13 8 3
14 8 3
15 8 3
16 8 3
17 8 3
18 8 3
-18 9 3
-17 9 3
-16 9 3
-15 9 3
-14 9 3
-13 9 3
-12 9 3
-11 9 3
-10 9 3
-9 9 3
-8 9 3
-7 9 3
-6 9 3
-5 9 3
-4 9 3
-3 9 3
-2 9 3
-1 9 3
0 9 3
1 9 3
2 9 3
3 9 3
4 9 3
5 9 3
6 9 3
7 9 3
8 9 3
9 9 3
10 9 3
11 9 3
12 9 3
13 9 3
14 9 3
15 9 3
16 9 3
17 9 3
18 9 3
-18 10 3
-17 10 3
-16 10 3
-15 10 3
-14 10 3
-13 10 3
-12 10 3
-11 10 3
-10 10 3
-9 10 3
-8 10 3
-7 10 3
-6 10 3
-5 10 3
-4 10 3
-3 10 3
-2 10 3
-1 10 3
0 10 3
1 10 3
2 10 3
3 10 3
4 10 3
5 10 3
6 10 3
7 10 3
8 10 3
9 10 3
10 10 3
11 10 3
12 10 3
13 10 3
14 10 3
15 10 3
16 10 3
17 10 3
-17 11 3
-16 11 3
-15 11 3
-14 11 3
-13 11 3
-12 11 3
-11 11 3
-10 11 3
-9 11 3
-8 11 3
-7 11 3
-6 11 3
-5 11 3
-4 11 3
-3 11 3
-2 11 3
-1 11 3
0 11 3
1 11 3
2 11 3
3 11 3
4 11 3
5 11 3
6 11 3
7 11 3
8 11 3
9 11 3
10 11 3
11 11 3
12 11 3
13 11 3
14 11 3
15 11 3
16 11 3
17 11 3
-17 12 3
-16 12 3
-15 12 3
-14 12 3
-13 12 3
-12 12 3
-11 12 3
-10 12 3
-9 12 3
-8 12 3
-7 12 3
-6 12 3
-5 12 3
-4 12 3
-3 12 3
-2 12 3
-1 12 3
0 12 3
1 12 3
2 12 3
3 12 3
4 12 3
5 12 3
6 12 3
7 12 3
8 12 3
9 12 3
10 12 3
11 12 3
12 12 3
13 12 3
14 12 3
15 12 3
16 12 3
17 12 3
-16 13 3
-15 13 3
-14 13 3
-13 13 3
-12 13 3
-11 13 3
-10 13 3
-9 13 3
-8 13 3
-7 13 3
-6 13 3
-5 13 3
-4 13 3
-3 13 3
-2 13 3
-1 13 3
0 13 3
1 13 3
2 13 3
3 13 3
4 13 3
5 13 3
6 13 3
7 13 3
8 13 3
9 13 3
10 13 3
11 13 3
12 13 3
13 13 3
14 13 3
15 13 3
16 13 3
-15 14 3
-14 14 3
-13 14 3
-12 14 3
-11 14 3
-10 14 3
-9 14 3
-8 14 3
-7 14 3
-6 14 3
-5 14 3
-4 14 3
-3 14 3
-2 14 3
-1 14 3
0 14 3
1 14 3
2 14 3
3 14 3
4 14 3
5 14 3
6 14 3
7 14 3
8 14 3
9 14 3
10 14 3
11 14 3
12 14 3
13 14 3
14 14 3
15 14 3
-15 15 3
-14 15 3
-13 15 3
-12 15 3
-11 15 3
-10 15 3
-9 15 3
-8 15 3
-7 15 3
-6 15 3
-5 15 3
-4 15 3
-3 15 3
-2 15 3
-1 15 3
0 15 3
1 15 3
2 15 3
3 15 3
4 15 3
5 15 3
6 15 3
7 15 3
8 15 3
9 15 3
10 15 3
11 15 3
12 15 3
13 15 3
14 15 3
15 15 3
-14 16 3
-13 16 3
-12 16 3
-11 16 3
-10 16 3
-9 16 3
-8 16 3
-7 16 3
-6 16 3
-5 16 3
-4 16 3
-3 16 3
-2 16 3
-1 16 3
0 16 3
1 16 3
2 16 3
3 16 3
4 16 3
5 16 3
6 16 3
7 16 3
8 16 3
9 16 3
10 16 3
11 16 3
12 16 3
13 16 3
14 16 3
-13 17 3
-12 17 3
-11 17 3
-10 17 3
-9 17 3
-8 17 3
-7 17 3
-6 17 3
-5 17 3
-4 17 3
-3 17 3
-2 17 3
-1 17 3
0 17 3
1 17 3
2 17 3
3 17 3
4 17 3
5 17 3
6 17 3
7 17 3
8 17 3
9 17 3
10 17 3
11 17 3
12 17 3
13 17 3
-12 18 3
-11 18 3
-10 18 3
-9 18 3
-8 18 3
-7 18 3
-6 18 3
-5 18 3
-4 18 3
-3 18 3
-2 18 3
-1 18 3
0 18 3
1 18 3
2 18 3
3 18 3
4 18 3
5 18 3
6 18 3
7 18 3
8 18 3
9 18 3
10 18 3
11 18 3
12 18 3
-11 19 3
-10 19 3
-9 19 3
-8 19 3
-7 19 3
-6 19 3
-5 19 3
-4 19 3
-3 19 3
-2 19 3
-1 19 3
0 19 3
1 19 3
2 19 3
3 19 3
4 19 3
5 19 3
6 19 3
7 19 3
8 19 3
9 19 3
10 19 3
11 19 3
-10 20 3
-9 20 3
-8 20 3
-7 20 3
-6 20 3
-5 20 3
-4 20 3
-3 20 3
-2 20 3
-1 20 3
0 20 3
1 20 3
2 20 3
3 20 3
4 20 3
5 20 3
6 20 3
7 20 3
8 20 3
9 20 3
10 20 3
-8 21 3
-7 21 3
-6 21 3
-5 21 3
-4 21 3
-3 21 3
-2 21 3
-1 21 3
0 21 3
1 21 3
2 21 3
3 21 3
4 21 3
5 21 3
6 21 3
7 21 3
8 21 3
-6 22 3
-5 22 3
-4 22 3
-3 22 3
-2 22 3
-1 22 3
0 22 3
3 22 3
4 22 3
5 22 3
6 22 3
-1 23 3
-18 0 4
-16 0 4
-14 0 4
-12 0 4
-10 0 4
-8 0 4
-6 0 4
-4 0 4
-2 0 4
0 0 4
2 0 4
4 0 4
6 0 4
8 0 4
10 0 4
12 0 4
14 0 4
16 0 4
18 0 4
-19 1 4
-18 1 4
-17 1 4
-16 1 4
-15 1 4
-14 1 4
-13 1 4
-12 1 4
-11 1 4
-10 1 4
-9 1 4
-8 1 4
-7 1 4
-6 1 4
-5 1 4
-4 1 4
-3 1 4
-2 1 4
-1 1 4
0 1 4
1 1 4
2 1 4
3 1 4
4 1 4
5 1 4
6 1 4
7 1 4
8 1 4
9 1 4
10 1 4
11 1 4
12 1 4
13 1 4
14 1 4
15 1 4
16 1 4
17 1 4
18 1 4
19 1 4
-19 2 4
-18 2 4
-17 2 4
-16 2 4
-15 2 4
-14 2 4
-13 2 4
-12 2 4
-11 2 4
-10 2 4
-9 2 4
-8 2 4
-7 2 4
-6 2 4
-5 2 4
-4 2 4
-3 2 4
-2 2 4
-1 2 4
0 2 4
1 2 4
2 2 4
3 2 4
4 2 4
5 2 4
6 2 4
7 2 4
8 2 4
9 2 4
10 2 4
11 2 4
12 2 4
13 2 4
14 2 4
15 2 4
16 2 4
17 2 4
18 2 4
19 2 4
-19 3 4
-18 3 4
-17 3 4
-16 3 4
-15 3 4
-14 3 4
-13 3 4
-12 3 4
-11 3 4
-10 3 4
-9 3 4
-8 3 4
-7 3 4
-6 3 4
-5 3 4
-4 3 4
-3 3 4
-2 3 4
-1 3 4
0 3 4
1 3 4
2 3 4
3 3 4
4 3 4
5 3 4
6 3 4
7 3 4
8 3 4
9 3 4
10 3 4
11 3 4
12 3 4
13 3 4
14 3 4
15 3 4
16 3 4
17 3 4
18 3 4
19 3 4
-19 4 4
-18 4 4
-17 4 4
-16 4 4
-15 4 4
-14 4 4
-13 4 4
-12 4 4
-11 4 4
-10 4 4
-9 4 4
-8 4 4
-7 4 4
-6 4 4
-5 4 4
-4 4 4
-3 4 4
-2 4 4
-1 4 4
0 4 4
1 4 4
2 4 4
3 4 4
4 4 4
5 4 4
6 4 4
7 4 4
8 4 4
9 4 4
10 4 4
11 4 4
12 4 4
13 4 4
14 4 4
15 4 4
16 4 4
17 4 4
18 4 4
19 4 4
-19 5 4
-18 5 4
-17 5 4
-16 5 4
-15 5 4
-14 5 4
-13 5 4
-12 5 4
-11 5 4
-10 5 4
-9 5 4
-8 5 4
-7 5 4
-6 5 4
-5 5 4
-4 5 4
-3 5 4
-2 5 4
-1 5 4
0 5 4
1 5 4
2 5 4
3 5 4
4 5 4
5 5 4
6 5 4
7 5 4
8 5 4
9 5 4
10 5 4
11 5 4
12 5 4
13 5 4
14 5 4
15 5 4
16 5 4
17 5 4
18 5 4
-18 6 4
-17 6 4
-16 6 4
-15 6 4
-14 6 4
-13 6 4
-12 6 4
-11 6 4
-10 6 4
-9 6 4
-8 6 4
-7 6 4
-6 6 4
-5 6 4
-4 6 4
-3 6 4
-2 6 4
-1 6 4
0 6 4
1 6 4
2 6 4
3 6 4
4 6 4
5 6 4
6 6 4
7 6 4
8 6 4
9 6 4
10 6 4
11 6 4
12 6 4
13 6 4
14 6 4
15 6 4
16 6 4
17 6 4
18 6 4
-18 7 4
-17 7 4
-16 7 4
-15 7 4
-14 7 4
-13 7 4
-12 7 4
-11 7 4
-10 7 4
-9 7 4
-8 7 4
-7 7 4
-6 7 4
-5 7 4
-4 7 4
-3 7 4
-2 7 4
-1 7 4
0 7 4
1 7 4
2 7 4
3 7 4
4 7 4
5 7 4
6 7 4
7 7 4
8 7 4
9 7 4
10 7 4
11 7 4
12 7 4
13 7 4
14 7 4
15 7 4
16 7 4
17 7 4
18 7 4
-18 8 4
-17 8 4
-16 8 4
-15 8 4
-14 8 4
-13 8 4
-12 8 4
-11 8 4
-10 8 4
-9 8 4
-8 8 4
-7 8 4
-6 8 4
-5 8 4
-4 8 4
-3 8 4
-2 8 4
-1 8 4
0 8 4
1 8 4
2 8 4
3 8 4
4 8 4
5 8 4
6 8 4
7 8 4
8 8 4
9 8 4
10 8 4
11 8 4
12 8 4
13 8 4
14 8 4
15 8 4
16 8 4
17 8 4
18 8 4
-17 9 4
-16 9 4
-15 9 4
-14 9 4
-13 9 4
-12 9 4
-11 9 4
-10 9 4
-9 9 4
-8 9 4
-7 9 4
-6 9 4
-5 9 4
-4 9 4
-3 9 4
-2 9 4
-1 9 4
0 9 4
1 9 4
2 9 4
3 9 4
4 9 4
5 9 4
6 9 4
7 9 4
8 9 4
9 9 4
10 9 4
11 9 4
12 9 4
13 9 4
14 9 4
15 9 4
16 9 4
17 9 4
-17 10 4
-16 10 4
-15 10 4
-14 10 4
-13 10 4
-12 10 4
-11 10 4
-10 10 4
-9 10 4
-8 10 4
-7 10 4
-6 10 4
-5 10 4
-4 10 4
-3 10 4
-2 10 4
-1 10 4
0 10 4
1 10 4
2 10 4
3 10 4
4 10 4
5 10 4
6 10 4
7 10 4
8 10 4
9 10 4
10 10 4
11 10 4
12 10 4
13 10 4
14 10 4
15 10 4
16 10 4
17 10 4
-17 11 4
-16 11 4
-15 11 4
-14 11 4
-13 11 4
-12 11 4
-11 11 4
-10 11 4
-9 11 4
-8 11 4
-7 11 4
-6 11 4
-5 11 4
-4 11 4
-3 11 4
-2 11 4
-1 11 4
0 11 4
1 11 4
2 11 4
3 11 4
4 11 4
5 11 4
6 11 4
7 11 4
8 11 4
9 11 4
10 11 4
11 11 4
12 11 4
13 11 4
14 11 4
15 11 4
16 11 4
17 11 4
-16 12 4
-15 12 4
-14 12 4
-13 12 4
-12 12 4
-11 12 4
-10 12 4
-9 12 4
-8 12 4
-7 12 4
-6 12 4
-5 12 4
-4 12 4
-3 12 4
-2 12 4
-1 12 4
0 12 4
1 12 4
2 12 4
3 12 4
4 12 4
5 12 4
6 12 4
7 12 4
8 12 4
9 12 4
10 12 4
11 12 4
12 12 4
13 12 4
14 12 4
15 12 4
16 12 4
-16 13 4
-15 13 4
-14 13 4
-13 13 4
-12 13 4
-11 13 4
-10 13 4
-9 13 4
-8 13 4
-7 13 4
-6 13 4
-5 13 4
-4 13 4
-3 13 4
-2 13 4
-1 13 4
0 13 4
1 13 4
2 13 4
3 13 4
4 13 4
5 13 4
6 13 4
7 13 4
8 13 4
9 13 4
10 13 4
11 13 4
12 13 4
13 13 4
14 13 4
15 13 4
16 13 4
-15 14 4
-14 14 4
-13 14 4
-12 14 4
-11 14 4
-10 14 4
-9 14 4
-8 14 4
-7 14 4
-6 14 4
-5 14 4
-4 14 4
-3 14 4
-2 14 4
-1 14 4
0 14 4
1 14 4
2 14 4
3 14 4
4 14 4
5 14 4
6 14 4
7 14 4
8 14 4
9 14 4
10 14 4
11 14 4
12 14 4
13 14 4
14 14 4
15 14 4
-14 15 4
-13 15 4
-12 15 4
-11 15 4
-10 15 4
-9 15 4
-8 15 4
-7 15 4
-6 15 4
-5 15 4
-4 15 4
-3 15 4
-2 15 4
-1 15 4
0 15 4
1 15 4
2 15 4
3 15 4
4 15 4
5 15 4
6 15 4
7 15 4
8 15 4
9 15 4
10 15 4
11 15 4
12 15 4
13 15 4
14 15 4
-13 16 4
-12 16 4
-11 16 4
-10 16 4
-9 16 4
-8 16 4
-7 16 4
-6 16 4
-5 16 4
-4 16 4
-3 16 4
-2 16 4
-1 16 4
0 16 4
1 16 4
2 16 4
3 16 4
4 16 4
5 16 4
6 16 4
7 16 4
8 16 4
9 16 4
10 16 4
11 16 4
12 16 4
13 16 4
-13 17 4
-12 17 4
-11 17 4
-10 17 4
-9 17 4
-8 17 4
-7 17 4
-6 17 4
-5 17 4
-4 17 4
-3 17 4
-2 17 4
-1 17 4
0 17 4
1 17 4
2 17 4
3 17 4
4 17 4
5 17 4
6 17 4
7 17 4
8 17 4
9 17 4
10 17 4
11 17 4
12 17 4
-11 18 4
-10 18 4
-9 18 4
-8 18 4
-7 18 4
-6 18 4
-5 18 4
-4 18 4
-3 18 4
-2 18 4
-1 18 4
0 18 4
1 18 4
2 18 4
3 18 4
4 18 4
5 18 4
6 18 4
7 18 4
8 18 4
9 18 4
10 18 4
11 18 4
-10 19 4
-9 19 4
-8 19 4
-7 19 4
-6 19 4
-5 19 4
-4 19 4
-3 19 4
-2 19 4
-1 19 4
0 19 4
1 19 4
2 19 4
3 19 4
4 19 4
5 19 4
6 19 4
7 19 4
8 19 4
9 19 4
10 19 4
-9 20 4
-8 20 4
-7 20 4
-6 20 4
-5 20 4
-4 20 4
-3 20 4
-2 20 4
-1 20 4
0 20 4
1 20 4
2 20 4
3 20 4
4 20 4
5 20 4
6 20 4
7 20 4
8 20 4
9 20 4
-7 21 4
-6 21 4
-5 21 4
-4 21 4
-3 21 4
-2 21 4
-1 21 4
0 21 4
1 21 4
2 21 4
3 21 4
4 21 4
5 21 4
6 21 4
7 21 4
-4 22 4
-3 22 4
-2 22 4
-1 22 4
0 22 4
1 22 4
2 22 4
3 22 4
4 22 4
-17 0 5
-15 0 5
-13 0 5
-11 0 5
-9 0 5
-7 0 5
-5 0 5
-3 0 5
-1 0 5
1 0 5
3 0 5
5 0 5
7 0 5
9 0 5
11 0 5
13 0 5
15 0 5
17 0 5
-18 1 5
-17 1 5
-16 1 5
-15 1 5
-14 1 5
-13 1 5
-12 1 5
-11 1 5
-10 1 5
-9 1 5
-8 1 5
-7 1 5
-6 1 5
-5 1 5
-4 1 5
-3 1 5
-2 1 5
-1 1 5
0 1 5
1 1 5
2 1 5
3 1 5
4 1 5
5 1 5
6 1 5
7 1 5
8 1 5
9 1 5
10 1 5
11 1 5
12 1 5
13 1 5
14 1 5
15 1 5
16 1 5
17 1 5
18 1 5
-18 2 5
-17 2 5
-16 2 5
-15 2 5
-14 2 5
-13 2 5
-12 2 5
-11 2 5
-10 2 5
-9 2 5
-8 2 5
-7 2 5
-6 2 5
-5 2 5
-4 2 5
-3 2 5
-2 2 5
-1 2 5
0 2 5
1 2 5
2 2 5
3 2 5
4 2 5
5 2 5
6 2 5
7 2 5
8 2 5
9 2 5
10 2 5
11 2 5
12 2 5
13 2 5
14 2 5
15 2 5
16 2 5
17 2 5
18 2 5
-18 3 5
-17 3 5
-16 3 5
-15 3 5
-14 3 5
-13 3 5
-12 3 5
-11 3 5
-10 3 5
-9 3 5
-8 3 5
-7 3 5
-6 3 5
-5 3 5
-4 3 5
-3 3 5
-2 3 5
-1 3 5
0 3 5
1 3 5
2 3 5
3 3 5
4 3 5
5 3 5
6 3 5
7 3 5
8 3 5
9 3 5
10 3 5
11 3 5
12 3 5
13 3 5
14 3 5
15 3 5
16 3 5
17 3 5
18 3 5
-18 4 5
-17 4 5
-16 4 5
-15 4 5
-14 4 5
-13 4 5
-12 4 5
-11 4 5
-10 4 5
-9 4 5
-8 4 5
-7 4 5
-6 4 5
-5 4 5
-4 4 5
-3 4 5
-2 4 5
-1 4 5
0 4 5
1 4 5
2 4 5
3 4 5
4 4 5
5 4 5
6 4 5
7 4 5
8 4 5
9 4 5
10 4 5
11 4 5
12 4 5
13 4 5
14 4 5
15 4 5
16 4 5
17 4 5
18 4 5
-18 5 5
-17 5 5
-16 5 5
-15 5 5
-14 5 5
-13 5 5
-12 5 5
-11 5 5
-10 5 5
-9 5 5
-8 5 5
-7 5 5
-6 5 5
-5 5 5
-4 5 5
-3 5 5
-2 5 5
-1 5 5
0 5 5
1 5 5
2 5 5
3 5 5
4 5 5
5 5 5
6 5 5
7 5 5
8 5 5
9 5 5
10 5 5
11 5 5
12 5 5
13 5 5
14 5 5
15 5 5
16 5 5
17 5 5
18 5 5
-18 6 5
-17 6 5
-16 6 5
-15 6 5
-14 6 5
-13 6 5
-12 6 5
-11 6 5
-10 6 5
-9 6 5
-8 6 5
-7 6 5
-6 6 5
-5 6 5
-4 6 5
-3 6 5
-2 6 5
-1 6 5
0 6 5
1 6 5
2 6 5
3 6 5
4 6 5
5 6 5
6 6 5
7 6 5
8 6 5
9 6 5
10 6 5
11 6 5
12 6 5
13 6 5
14 6 5
15 6 5
16 6 5
17 6 5
18 6 5
-17 7 5
-16 7 5
-15 7 5
-14 7 5
-13 7 5
-12 7 5
-11 7 5
-10 7 5
-9 7 5
-8 7 5
-7 7 5
-6 7 5
-5 7 5
-4 7 5
-3 7 5
-2 7 5
-1 7 5
0 7 5
1 7 5
2 7 5
3 7 5
4 7 5
5 7 5
6 7 5
7 7 5
8 7 5
9 7 5
10 7 5
11 7 5
12 7 5
13 7 5
14 7 5
15 7 5
16 7 5
17 7 5
-17 8 5
-16 8 5
-15 8 5
-14 8 5
-13 8 5
-12 8 5
-11 8 5
-10 8 5
-9 8 5
-8 8 5
-7 8 5
-6 8 5
-5 8 5
-4 8 5
-3 8 5
-2 8 5
-1 8 5
0 8 5
1 8 5
2 8 5
3 8 5
4 8 5
5 8 5
6 8 5
7 8 5
8 8 5
9 8 5
10 8 5
11 8 5
12 8 5
13 8 5
14 8 5
15 8 5
16 8 5
17 8 5
-17 9 5
-16 9 5
-15 9 5
-14 9 5
-13 9 5
-12 9 5
-11 9 5
-10 9 5
-9 9 5
-8 9 5
-7 9 5
-6 9 5
-5 9 5
-4 9 5
-3 9 5
-2 9 5
-1 9 5
0 9 5
1 9 5
2 9 5
3 9 5
4 9 5
5 9 5
6 9 5
7 9 5
8 9 5
9 9 5
10 9 5
11 9 5
12 9 5
13 9 5
14 9 5
15 9 5
16 9 5
17 9 5
-16 10 5
-15 10 5
-14 10 5
-13 10 5
-12 10 5
-11 10 5
-10 10 5
-9 10 5
-8 10 5
-7 10 5
-6 10 5
-5 10 5
-4 10 5
-3 10 5
-2 10 5
-1 10 5
0 10 5
1 10 5
2 10 5
3 10 5
4 10 5
5 10 5
6 10 5
7 10 5
8 10 5
9 10 5
10 10 5
11 10 5
12 10 5
13 10 5
14 10 5
15 10 5
16 10 5
-16 11 5
-15 11 5
-14 11 5
-13 11 5
-12 11 5
-11 11 5
-10 11 5
-9 11 5
-8 11 5
-7 11 5
-6 11 5
-5 11 5
-4 11 5
-3 11 5
-2 11 5
-1 11 5
0 11 5
1 11 5
2 11 5
3 11 5
4 11 5
5 11 5
6 11 5
7 11 5
8 11 5
9 11 5
10 11 5
11 11 5
12 11 5
13 11 5
14 11 5
15 11 5
16 11 5
-15 12 5
-14 12 5
-13 12 5
-12 12 5
-11 12 5
-10 12 5
-9 12 5
-8 12 5
-7 12 5
-6 12 5
-5 12 5
-4 12 5
-3 12 5
-2 12 5
-1 12 5
0 12 5
1 12 5
2 12 5
3 12 5
4 12 5
5 12 5
6 12 5
7 12 5
8 12 5
9 12 5
10 12 5
11 12 5
12 12 5
13 12 5
14 12 5
15 12 5
-15 13 5
-14 13 5
-13 13 5
-12 13 5
-11 13 5
-10 13 5
-9 13 5
-8 13 5
-7 13 5
-6 13 5
-5 13 5
-4 13 5
-3 13 5
-2 13 5
-1 13 5
0 13 5
1 13 5
2 13 5
3 13 5
4 13 5
5 13 5
6 13 5
7 13 5
8 13 5
9 13 5
10 13 5
11 13 5
12 13 5
13 13 5
14 13 5
15 13 5
-14 14 5
-13 14 5
-12 14 5
-11 14 5
-10 14 5
-9 14 5
-8 14 5
-7 14 5
-6 14 5
-5 14 5
-4 14 5
-3 14 5
-2 14 5
-1 14 5
0 14 5
1 14 5
2 14 5
3 14 5
4 14 5
5 14 5
6 14 5
7 14 5
8 14 5
9 14 5
10 14 5
11 14 5
12 14 5
13 14 5
14 14 5
-13 15 5
-12 15 5
-11 15 5
-10 15 5
-9 15 5
-8 15 5
-7 15 5
-6 15 5
-5 15 5
-4 15 5
-3 15 5
-2 15 5
-1 15 5
0 15 5
1 15 5
2 15 5
3 15 5
4 15 5
5 15 5
6 15 5
7 15 5
8 15 5
9 15 5
10 15 5
11 15 5
12 15 5
13 15 5
-13 16 5
-12 16 5
-11 16 5
-10 16 5
-9 16 5
-8 16 5
-7 16 5
-6 16 5
-5 16 5
-4 16 5
-3 16 5
-2 16 5
-1 16 5
0 16 5
1 16 5
2 16 5
3 16 5
4 16 5
5 16 5
6 16 5
7 16 5
8 16 5
9 16 5
10 16 5
11 16 5
12 16 5
13 16 5
-12 17 5
-11 17 5
-10 17 5
-9 17 5
-8 17 5
-7 17 5
-6 17 5
-5 17 5
-4 17 5
-3 17 5
-2 17 5
-1 17 5
0 17 5
1 17 5
2 17 5
3 17 5
4 17 5
5 17 5
6 17 5
7 17 5
8 17 5
9 17 5
10 17 5
11 17 5
12 17 5
-11 18 5
-10 18 5
-9 18 5
-8 18 5
-7 18 5
-6 18 5
-5 18 5
-4 18 5
-3 18 5
-2 18 5
-1 18 5
0 18 5
1 18 5
2 18 5
3 18 5
4 18 5
5 18 5
6 18 5
7 18 5
8 18 5
9 18 5
10 18 5
-9 19 5
-8 19 5
-7 19 5
-6 19 5
-5 19 5
-4 19 5
-3 19 5
-2 19 5
-1 19 5
0 19 5
1 19 5
2 19 5
3 19 5
4 19 5
5 19 5
6 19 5
7 19 5
8 19 5
9 19 5
-8 20 5
-7 20 5
-6 20 5
-5 20 5
-4 20 5
-3 20 5
-2 20 5
-1 20 5
0 20 5
1 20 5
2 20 5
3 20 5
4 20 5
5 20 5
6 20 5
7 20 5
-5 21 5
-4 21 5
-3 21 5
-2 21 5
-1 21 5
0 21 5
1 21 5
2 21 5
3 21 5
4 21 5
5 21 5
-18 0 6
-16 0 6
-14 0 6
-12 0 6
-10 0 6
-8 0 6
-6 0 6
-4 0 6
-2 0 6
0 0 6
2 0 6
4 0 6
6 0 6
8 0 6
10 0 6
12 0 6
14 0 6
16 0 6
18 0 6
-18 1 6
-17 1 6
-16 1 6
-15 1 6
-14 1 6
-13 1 6
-12 1 6
-11 1 6
-10 1 6
-9 1 6
-8 1 6
-7 1 6
-6 1 6
-5 1 6
-4 1 6
-3 1 6
-2 1 6
-1 1 6
0 1 6
1 1 6
2 1 6
3 1 6
4 1 6
5 1 6
6 1 6
7 1 6
8 1 6
9 1 6
10 1 6
11 1 6
12 1 6
13 1 6
14 1 6
15 1 6
16 1 6
17 1 6
18 1 6
-18 2 6
-17 2 6
-16 2 6
-15 2 6
-14 2 6
-13 2 6
-12 2 6
-11 2 6
-10 2 6
-9 2 6
-8 2 6
-7 2 6
-6 2 6
-5 2 6
-4 2 6
-3 2 6
-2 2 6
-1 2 6
0 2 6
1 2 6
2 2 6
3 2 6
4 2 6
5 2 6
6 2 6
7 2 6
8 2 6
9 2 6
10 2 6
11 2 6
12 2 6
13 2 6
14 2 6
15 2 6
16 2 6
17 2 6
18 2 6
-17 3 6
-16 3 6
-15 3 6
-14 3 6
-13 3 6
-12 3 6
-11 3 6
-10 3 6
-9 3 6
-8 3 6
-7 3 6
-6 3 6
-5 3 6
-4 3 6
-3 3 6
-2 3 6
-1 3 6
0 3 6
1 3 6
2 3 6
3 3 6
4 3 6
5 3 6
6 3 6
7 3 6
8 3 6
9 3 6
10 3 6
11 3 6
12 3 6
13 3 6
14 3 6
15 3 6
16 3 6
17 3 6
-17 4 6
-16 4 6
-15 4 6
-14 4 6
-13 4 6
-12 4 6
-11 4 6
-10 4 6
-9 4 6
-8 4 6
-7 4 6
-6 4 6
-5 4 6
-4 4 6
-3 4 6
-2 4 6
-1 4 6
0 4 6
1 4 6
2 4 6
3 4 6
4 4 6
5 4 6
6 4 6
7 4 6
8 4 6
9 4 6
10 4 6
11 4 6
12 4 6
13 4 6
14 4 6
15 4 6
16 4 6
17 4 6
-17 5 6
-16 5 6
-15 5 6
-14 5 6
-13 5 6
-12 5 6
-11 5 6
-10 5 6
-9 5 6
-8 5 6
-7 5 6
-6 5 6
-5 5 6
-4 5 6
-3 5 6
-2 5 6
-1 5 6
0 5 6
1 5 6
2 5 6
3 5 6
4 5 6
5 5 6
6 5 6
7 5 6
8 5 6
9 5 6
10 5 6
11 5 6
12 5 6
13 5 6
14 5 6
15 5 6
16 5 6
17 5 6
-17 6 6
-16 6 6
-15 6 6
-14 6 6
-13 6 6
-12 6 6
-11 6 6
-10 6 6
-9 6 6
-8 6 6
-7 6 6
-6 6 6
-5 6 6
-4 6 6
-3 6 6
-2 6 6
-1 6 6
0 6 6
1 6 6
2 6 6
3 6 6
4 6 6
5 6 6
6 6 6
7 6 6
8 6 6
9 6 6
10 6 6
11 6 6
12 6 6
13 6 6
14 6 6
15 6 6
16 6 6
17 6 6
-17 7 6
-16 7 6
-15 7 6
-14 7 6
-13 7 6
-12 7 6
-11 7 6
-10 7 6
-9 7 6
-8 7 6
-7 7 6
-6 7 6
-5 7 6
-4 7 6
-3 7 6
-2 7 6
-1 7 6
0 7 6
1 7 6
2 7 6
3 7 6
4 7 6
5 7 6
6 7 6
7 7 6
8 7 6
9 7 6
10 7 6
11 7 6
12 7 6
13 7 6
14 7 6
15 7 6
16 7 6
17 7 6
-16 8 6
-15 8 6
-14 8 6
-13 8 6
-12 8 6
-11 8 6
-10 8 6
-9 8 6
-8 8 6
-7 8 6
-6 8 6
-5 8 6
-4 8 6
-3 8 6
-2 8 6
-1 8 6
0 8 6
1 8 6
2 8 6
3 8 6
4 8 6
5 8 6
6 8 6
7 8 6
8 8 6
9 8 6
10 8 6
11 8 6
12 8 6
13 8 6
14 8 6
15 8 6
16 8 6
-16 9 6
-15 9 6
-14 9 6
-13 9 6
-12 9 6
-11 9 6
-10 9 6
-9 9 6
-8 9 6
-7 9 6
-6 9 6
-5 9 6
-4 9 6
-3 9 6
-2 9 6
-1 9 6
0 9 6
1 9 6
2 9 6
3 9 6
4 9 6
5 9 6
6 9 6
7 9 6
8 9 6
9 9 6
10 9 6
11 9 6
12 9 6
13 9 6
14 9 6
15 9 6
16 9 6
-16 10 6
-15 10 6
-14 10 6
-13 10 6
-12 10 6
-11 10 6
-10 10 6
-9 10 6
-8 10 6
-7 10 6
-6 10 6
-5 10 6
-4 10 6
-3 10 6
-2 10 6
-1 10 6
0 10 6
1 10 6
2 10 6
3 10 6
4 10 6
5 10 6
6 10 6
7 10 6
8 10 6
9 10 6
10 10 6
11 10 6
12 10 6
13 10 6
14 10 6
15 10 6
-15 11 6
-14 11 6
-13 11 6
-12 11 6
-11 11 6
-10 11 6
-9 11 6
-8 11 6
-7 11 6
-6 11 6
-5 11 6
-4 11 6
-3 11 6
-2 11 6
-1 11 6
0 11 6
1 11 6
2 11 6
3 11 6
4 11 6
5 11 6
6 11 6
7 11 6
8 11 6
9 11 6
10 11 6
11 11 6
12 11 6
13 11 6
14 11 6
15 11 6
-15 12 6
-14 12 6
-13 12 6
-12 12 6
-11 12 6
-10 12 6
-9 12 6
-8 12 6
-7 12 6
-6 12 6
-5 12 6
-4 12 6
-3 12 6
-2 12 6
-1 12 6
0 12 6
1 12 6
2 12 6
3 12 6
4 12 6
5 12 6
6 12 6
7 12 6
8 12 6
9 12 6
10 12 6
11 12 6
12 12 6
13 12 6
14 12 6
-14 13 6
-13 13 6
-12 13 6
-11 13 6
-10 13 6
-9 13 6
-8 13 6
-7 13 6
-6 13 6
-5 13 6
-4 13 6
-3 13 6
-2 13 6
-1 13 6
0 13 6
1 13 6
2 13 6
3 13 6
4 13 6
5 13 6
6 13 6
7 13 6
8 13 6
9 13 6
10 13 6
11 13 6
12 13 6
13 13 6
14 13 6
-13 14 6
-12 14 6
-11 14 6
-10 14 6
-9 14 6
-8 14 6
-7 14 6
-6 14 6
-5 14 6
-4 14 6
-3 14 6
-2 14 6
-1 14 6
0 14 6
1 14 6
2 14 6
3 14 6
4 14 6
5 14 6
6 14 6
7 14 6
8 14 6
9 14 6
10 14 6
11 14 6
12 14 6
13 14 6
-12 15 6
-11 15 6
-10 15 6
-9 15 6
-8 15 6
-7 15 6
-6 15 6
-5 15 6
-4 15 6
-3 15 6
-2 15 6
-1 15 6
0 15 6
1 15 6
2 15 6
3 15 6
4 15 6
5 15 6
6 15 6
7 15 6
8 15 6
9 15 6
10 15 6
11 15 6
12 15 6
-11 16 6
-10 16 6
-9 16 6
-8 16 6
-7 16 6
-6 16 6
-5 16 6
-4 16 6
-3 16 6
-2 16 6
-1 16 6
0 16 6
1 16 6
2 16 6
3 16 6
4 16 6
5 16 6
6 16 6
7 16 6
8 16 6
9 16 6
10 16 6
11 16 6
-10 17 6
-9 17 6
-8 17 6
-7 17 6
-6 17 6
-5 17 6
-4 17 6
-3 17 6
-2 17 6
-1 17 6
0 17 6
1 17 6
2 17 6
3 17 6
4 17 6
5 17 6
6 17 6
7 17 6
8 17 6
9 17 6
10 17 6
-9 18 6
-8 18 6
-7 18 6
-6 18 6
-5 18 6
-4 18 6
-3 18 6
-2 18 6
-1 18 6
0 18 6
1 18 6
2 18 6
3 18 6
4 18 6
5 18 6
6 18 6
7 18 6
8 18 6
9 18 6
-8 19 6
-7 19 6
-6 19 6
-5 19 6
-4 19 6
-3 19 6
-2 19 6
-1 19 6
0 19 6
1 19 6
2 19 6
3 19 6
4 19 6
5 19 6
6 19 6
7 19 6
8 19 6
-6 20 6
-5 20 6
-4 20 6
-3 20 6
-2 20 6
-1 20 6
0 20 6
1 20 6
2 20 6
3 20 6
4 20 6
5 20 6
6 20 6
0 21 6
-17 0 7
-15 0 7
-13 0 7
-11 0 7
-9 0 7
-7 0 7
-5 0 7
-3 0 7
-1 0 7
1 0 7
3 0 7
5 0 7
7 0 7
9 0 7
11 0 7
13 0 7
15 0 7
17 0 7
-17 1 7
-16 1 7
-15 1 7
-14 1 7
-13 1 7
-12 1 7
-11 1 7
-10 1 7
-9 1 7
-8 1 7
-7 1 7
-6 1 7
-5 1 7
-4 1 7
-3 1 7
-2 1 7
-1 1 7
0 1 7
1 1 7
2 1 7
3 1 7
4 1 7
5 1 7
6 1 7
7 1 7
8 1 7
9 1 7
10 1 7
11 1 7
12 1 7
13 1 7
14 1 7
15 1 7
16 1 7
17 1 7
-17 2 7
-16 2 7
-15 2 7
-14 2 7
-13 2 7
-12 2 7
-11 2 7
-10 2 7
-9 2 7
-8 2 7
-7 2 7
-6 2 7
-5 2 7
-4 2 7
-3 2 7
-2 2 7
-1 2 7
0 2 7
1 2 7
2 2 7
3 2 7
4 2 7
5 2 7
6 2 7
7 2 7
8 2 7
9 2 7
10 2 7
11 2 7
12 2 7
13 2 7
14 2 7
15 2 7
16 2 7
17 2 7
-17 3 7
-16 3 7
-15 3 7
-14 3 7
-13 3 7
-12 3 7
-11 3 7
-10 3 7
-9 3 7
-8 3 7
-7 3 7
-6 3 7
-5 3 7
-4 3 7
-3 3 7
-2 3 7
-1 3 7
0 3 7
1 3 7
2 3 7
3 3 7
4 3 7
5 3 7
6 3 7
7 3 7
8 3 7
9 3 7
10 3 7
11 3 7
12 3 7
13 3 7
14 3 7
15 3 7
16 3 7
17 3 7
-16 4 7
-15 4 7
-14 4 7
-13 4 7
-12 4 7
-11 4 7
-10 4 7
-9 4 7
-8 4 7
-7 4 7
-6 4 7
-5 4 7
-4 4 7
-3 4 7
-2 4 7
-1 4 7
0 4 7
1 4 7
2 4 7
3 4 7
4 4 7
5 4 7
6 4 7
7 4 7
8 4 7
9 4 7
10 4 7
11 4 7
12 4 7
13 4 7
14 4 7
15 4 7
16 4 7
-16 5 7
-15 5 7
-14 5 7
-13 5 7
-12 5 7
-11 5 7
-10 5 7
-9 5 7
-8 5 7
-7 5 7
-6 5 7
-5 5 7
-4 5 7
-3 5 7
-2 5 7
-1 5 7
0 5 7
1 5 7
2 5 7
3 5 7
4 5 7
5 5 7
6 5 7
7 5 7
8 5 7
9 5 7
10 5 7
11 5 7
12 5 7
13 5 7
14 5 7
15 5 7
16 5 7
-16 6 7
-15 6 7
-14 6 7
-13 6 7
-12 6 7
-11 6 7
-10 6 7
-9 6 7
-8 6 7
-7 6 7
-6 6 7
-5 6 7
-4 6 7
-3 6 7
-2 6 7
-1 6 7
0 6 7
1 6 7
2 6 7
3 6 7
4 6 7
5 6 7
6 6 7
7 6 7
8 6 7
9 6 7
10 6 7
11 6 7
12 6 7
13 6 7
14 6 7
15 6 7
16 6 7
-16 7 7
-15 7 7
-14 7 7
-13 7 7
-12 7 7
-11 7 7
-10 7 7
-9 7 7
-8 7 7
-7 7 7
-6 7 7
-5 7 7
-4 7 7
-3 7 7
-2 7 7
-1 7 7
0 7 7
1 7 7
2 7 7
3 7 7
4 7 7
5 7 7
6 7 7
7 7 7
8 7 7
9 7 7
10 7 7
11 7 7
12 7 7
13 7 7
14 7 7
15 7 7
16 7 7
-15 8 7
-14 8 7
-13 8 7
-12 8 7
-11 8 7
-10 8 7
-9 8 7
-8 8 7
-7 8 7
-6 8 7
-5 8 7
-4 8 7
-3 8 7
-2 8 7
-1 8 7
0 8 7
1 8 7
2 8 7
3 8 7
4 8 7
5 8 7
6 8 7
7 8 7
8 8 7
9 8 7
10 8 7
11 8 7
12 8 7
13 8 7
14 8 7
15 8 7
-15 9 7
-14 9 7
-13 9 7
-12 9 7
-11 9 7
-10 9 7
-9 9 7
-8 9 7
-7 9 7
-6 9 7
-5 9 7
-4 9 7
-3 9 7
-2 9 7
-1 9 7
0 9 7
1 9 7
2 9 7
3 9 7
4 9 7
5 9 7
6 9 7
7 9 7
8 9 7
9 9 7
10 9 7
11 9 7
12 9 7
13 9 7
14 9 7
15 9 7
-15 10 7
-14 10 7
-13 10 7
-12 10 7
-11 10 7
-10 10 7
-9 10 7
-8 10 7
-7 10 7
-6 10 7
-5 10 7
-4 10 7
-3 10 7
-2 10 7
-1 10 7
0 10 7
1 10 7
2 10 7
3 10 7
4 10 7
5 10 7
6 10 7
7 10 7
8 10 7
9 10 7
10 10 7
11 10 7
12 10 7
13 10 7
14 10 7
-14 11 7
-13 11 7
-12 11 7
-11 11 7
-10 11 7
-9 11 7
-8 11 7
-7 11 7
-6 11 7
-5 11 7
-4 11 7
-3 11 7
-2 11 7
-1 11 7
0 11 7
1 11 7
2 11 7
3 11 7
4 11 7
5 11 7
6 11 7
7 11 7
8 11 7
9 11 7
10 11 7
11 11 7
12 11 7
13 11 7
14 11 7
-13 12 7
-12 12 7
-11 12 7
-10 12 7
-9 12 7
-8 12 7
-7 12 7
-6 12 7
-5 12 7
-4 12 7
-3 12 7
-2 12 7
-1 12 7
0 12 7
1 12 7
2 12 7
3 12 7
4 12 7
5 12 7
6 12 7
7 12 7
8 12 7
9 12 7
10 12 7
11 12 7
12 12 7
13 12 7
-13 13 7
-12 13 7
-11 13 7
-10 13 7
-9 13 7
-8 13 7
-7 13 7
-6 13 7
-5 13 7
-4 13 7
-3 13 7
-2 13 7
-1 13 7
0 13 7
1 13 7
2 13 7
3 13 7
4 13 7
5 13 7
6 13 7
7 13 7
8 13 7
9 13 7
10 13 7
11 13 7
12 13 7
13 13 7
-12 14 7
-11 14 7
-10 14 7
-9 14 7
-8 14 7
-7 14 7
-6 14 7
-5 14 7
-4 14 7
-3 14 7
-2 14 7
-1 14 7
0 14 7
1 14 7
2 14 7
3 14 7
4 14 7
5 14 7
6 14 7
7 14 7
8 14 7
9 14 7
10 14 7
11 14 7
12 14 7
-11 15 7
-10 15 7
-9 15 7
-8 15 7
-7 15 7
-6 15 7
-5 15 7
-4 15 7
-3 15 7
-2 15 7
-1 15 7
0 15 7
1 15 7
2 15 7
3 15 7
4 15 7
5 15 7
6 15 7
7 15 7
8 15 7
9 15 7
10 15 7
11 15 7
-10 16 7
-9 16 7
-8 16 7
-7 16 7
-6 16 7
-5 16 7
-4 16 7
-3 16 7
-2 16 7
-1 16 7
0 16 7
1 16 7
2 16 7
3 16 7
4 16 7
5 16 7
6 16 7
7 16 7
8 16 7
9 16 7
10 16 7
-9 17 7
-8 17 7
-7 17 7
-6 17 7
-5 17 7
-4 17 7
-3 17 7
-2 17 7
-1 17 7
0 17 7
1 17 7
2 17 7
3 17 7
4 17 7
5 17 7
6 17 7
7 17 7
8 17 7
9 17 7
-7 18 7
-6 18 7
-5 18 7
-4 18 7
-3 18 7
-2 18 7
-1 18 7
0 18 7
1 18 7
2 18 7
3 18 7
4 18 7
5 18 7
6 18 7
7 18 7
-5 19 7
-4 19 7
-3 19 7
-2 19 7
-1 19 7
0 19 7
1 19 7
2 19 7
3 19 7
4 19 7
5 19 7
-2 20 7
-1 20 7
0 20 7
1 20 7
2 20 7
-16 0 8
-14 0 8
-12 0 8
-10 0 8
-8 0 8
-6 0 8
-4 0 8
-2 0 8
0 0 8
2 0 8
4 0 8
6 0 8
8 0 8
10 0 8
12 0 8
14 0 8
16 0 8
-16 1 8
-15 1 8
-14 1 8
-13 1 8
-12 1 8
-11 1 8
-10 1 8
-9 1 8
-8 1 8
-7 1 8
-6 1 8
-5 1 8
-4 1 8
-3 1 8
-2 1 8
-1 1 8
0 1 8
1 1 8
2 1 8
3 1 8
4 1 8
5 1 8
6 1 8
7 1 8
8 1 8
9 1 8
10 1 8
11 1 8
12 1 8
13 1 8
14 1 8
15 1 8
16 1 8
-16 2 8
-15 2 8
-14 2 8
-13 2 8
-12 2 8
-11 2 8
-10 2 8
-9 2 8
-8 2 8
-7 2 8
-6 2 8
-5 2 8
-4 2 8
-3 2 8
-2 2 8
-1 2 8
0 2 8
1 2 8
2 2 8
3 2 8
4 2 8
5 2 8
6 2 8
7 2 8
8 2 8
9 2 8
10 2 8
11 2 8
12 2 8
13 2 8
14 2 8
15 2 8
-15 3 8
-14 3 8
-13 3 8
-12 3 8
-11 3 8
-10 3 8
-9 3 8
-8 3 8
-7 3 8
-6 3 8
-5 3 8
-4 3 8
-3 3 8
-2 3 8
-1 3 8
0 3 8
1 3 8
2 3 8
3 3 8
4 3 8
5 3 8
6 3 8
7 3 8
8 3 8
9 3 8
10 3 8
11 3 8
12 3 8
13 3 8
14 3 8
15 3 8
-15 4 8
-14 4 8
-13 4 8
-12 4 8
-11 4 8
-10 4 8
-9 4 8
-8 4 8
-7 4 8
-6 4 8
-5 4 8
-4 4 8
-3 4 8
-2 4 8
-1 4 8
0 4 8
1 4 8
2 4 8
3 4 8
4 4 8
5 4 8
6 4 8
7 4 8
8 4 8
9 4 8
10 4 8
11 4 8
12 4 8
13 4 8
14 4 8
15 4 8
-15 5 8
-14 5 8
-13 5 8
-12 5 8
-11 5 8
-10 5 8
-9 5 8
-8 5 8
-7 5 8
-6 5 8
-5 5 8
-4 5 8
-3 5 8
-2 5 8
-1 5 8
0 5 8
1 5 8
2 5 8
3 5 8
4 5 8
5 5 8
6 5 8
7 5 8
8 5 8
9 5 8
10 5 8
11 5 8
12 5 8
13 5 8
14 5 8
15 5 8
-15 6 8
-14 6 8
-13 6 8
-12 6 8
-11 6 8
-10 6 8
-9 6 8
-8 6 8
-7 6 8
-6 6 8
-5 6 8
-4 6 8
-3 6 8
-2 6 8
-1 6 8
0 6 8
1 6 8
2 6 8
3 6 8
4 6 8
5 6 8
6 6 8
7 6 8
8 6 8
9 6 8
10 6 8
11 6 8
12 6 8
13 6 8
14 6 8
15 6 8
-15 7 8
-14 7 8
-13 7 8
-12 7 8
-11 7 8
-10 7 8
-9 7 8
-8 7 8
-7 7 8
-6 7 8
-5 7 8
-4 7 8
-3 7 8
-2 7 8
-1 7 8
0 7 8
1 7 8
2 7 8
3 7 8
4 7 8
5 7 8
6 7 8
7 7 8
8 7 8
9 7 8
10 7 8
11 7 8
12 7 8
13 7 8
14 7 8
-14 8 8
-13 8 8
-12 8 8
-11 8 8
-10 8 8
-9 8 8
-8 8 8
-7 8 8
-6 8 8
-5 8 8
-4 8 8
-3 8 8
-2 8 8
-1 8 8
0 8 8
1 8 8
2 8 8
3 8 8
4 8 8
5 8 8
6 8 8
7 8 8
8 8 8
9 8 8
10 8 8
11 8 8
12 8 8
13 8 8
14 8 8
-14 9 8
-13 9 8
-12 9 8
-11 9 8
-10 9 8
-9 9 8
-8 9 8
-7 9 8
-6 9 8
-5 9 8
-4 9 8
-3 9 8
-2 9 8
-1 9 8
0 9 8
1 9 8
2 9 8
3 9 8
4 9 8
5 9 8
6 9 8
7 9 8
8 9 8
9 9 8
10 9 8
11 9 8
12 9 8
13 9 8
14 9 8
-13 10 8
-12 10 8
-11 10 8
-10 10 8
-9 10 8
-8 10 8
-7 10 8
-6 10 8
-5 10 8
-4 10 8
-3 10 8
-2 10 8
-1 10 8
0 10 8
1 10 8
2 10 8
3 10 8
4 10 8
5 10 8
6 10 8
7 10 8
8 10 8
9 10 8
10 10 8
11 10 8
12 10 8
13 10 8
-13 11 8
-12 11 8
-11 11 8
-10 11 8
-9 11 8
-8 11 8
-7 11 8
-6 11 8
-5 11 8
-4 11 8
-3 11 8
-2 11 8
-1 11 8
0 11 8
1 11 8
2 11 8
3 11 8
4 11 8
5 11 8
6 11 8
7 11 8
8 11 8
9 11 8
10 11 8
11 11 8
12 11 8
13 11 8
-12 12 8
-11 12 8
-10 12 8
-9 12 8
-8 12 8
-7 12 8
-6 12 8
-5 12 8
-4 12 8
-3 12 8
-2 12 8
-1 12 8
0 12 8
1 12 8
2 12 8
3 12 8
4 12 8
5 12 8
6 12 8
7 12 8
8 12 8
9 12 8
10 12 8
11 12 8
12 12 8
-11 13 8
-10 13 8
-9 13 8
-8 13 8
-7 13 8
-6 13 8
-5 13 8
-4 13 8
-3 13 8
-2 13 8
-1 13 8
0 13 8
1 13 8
2 13 8
3 13 8
4 13 8
5 13 8
6 13 8
7 13 8
8 13 8
9 13 8
10 13 8
11 13 8
-10 14 8
-9 14 8
-8 14 8
-7 14 8
-6 14 8
-5 14 8
-4 14 8
-3 14 8
-2 14 8
-1 14 8
0 14 8
1 14 8
2 14 8
3 14 8
4 14 8
5 14 8
6 14 8
7 14 8
8 14 8
9 14 8
10 14 8
-9 15 8
-8 15 8
-7 15 8
-6 15 8
-5 15 8
-4 15 8
-3 15 8
-2 15 8
-1 15 8
0 15 8
1 15 8
2 15 8
3 15 8
4 15 8
5 15 8
6 15 8
7 15 8
8 15 8
9 15 8
-8 16 8
-7 16 8
-6 16 8
-5 16 8
-4 16 8
-3 16 8
-2 16 8
-1 16 8
0 16 8
1 16 8
2 16 8
3 16 8
4 16 8
5 16 8
6 16 8
7 16 8
8 16 8
-7 17 8
-6 17 8
-5 17 8
-4 17 8
-3 17 8
-2 17 8
-1 17 8
0 17 8
1 17 8
2 17 8
3 17 8
4 17 8
5 17 8
6 17 8
-4 18 8
-3 18 8
-2 18 8
-1 18 8
0 18 8
1 18 8
2 18 8
3 18 8
4 18 8
-13 0 9
-11 0 9
-9 0 9
-7 0 9
-5 0 9
-3 0 9
-1 0 9
1 0 9
3 0 9
5 0 9
7 0 9
9 0 9
11 0 9
13 0 9
-14 1 9
-13 1 9
-12 1 9
-11 1 9
-10 1 9
-9 1 9
-8 1 9
-7 1 9
-6 1 9
-5 1 9
-4 1 9
-3 1 9
-2 1 9
-1 1 9
0 1 9
1 1 9
2 1 9
3 1 9
4 1 9
5 1 9
6 1 9
7 1 9
8 1 9
9 1 9
10 1 9
11 1 9
12 1 9
13 1 9
14 1 9
-14 2 9
-13 2 9
-12 2 9
-11 2 9
-10 2 9
-9 2 9
-8 2 9
-7 2 9
-6 2 9
-5 2 9
-4 2 9
-3 2 9
-2 2 9
-1 2 9
0 2 9
1 2 9
2 2 9
3 2 9
4 2 9
5 2 9
6 2 9
7 2 9
8 2 9
9 2 9
10 2 9
11 2 9
12 2 9
13 2 9
14 2 9
-14 3 9
-13 3 9
-12 3 9
-11 3 9
-10 3 9
-9 3 9
-8 3 9
-7 3 9
-6 3 9
-5 3 9
-4 3 9
-3 3 9
-2 3 9
-1 3 9
0 3 9
1 3 9
2 3 9
3 3 9
4 3 9
5 3 9
6 3 9
7 3 9
8 3 9
9 3 9
10 3 9
11 3 9
12 3 9
13 3 9
14 3 9
-14 4 9
-13 4 9
-12 4 9
-11 4 9
-10 4 9
-9 4 9
-8 4 9
-7 4 9
-6 4 9
-5 4 9
-4 4 9
-3 4 9
-2 4 9
-1 4 9
0 4 9
1 4 9
2 4 9
3 4 9
4 4 9
5 4 9
6 4 9
7 4 9
8 4 9
9 4 9
10 4 9
11 4 9
12 4 9
13 4 9
14 4 9
-14 5 9
-13 5 9
-12 5 9
-11 5 9
-10 5 9
-9 5 9
-8 5 9
-7 5 9
-6 5 9
-5 5 9
-4 5 9
-3 5 9
-2 5 9
-1 5 9
0 5 9
1 5 9
2 5 9
3 5 9
4 5 9
5 5 9
6 5 9
7 5 9
8 5 9
9 5 9
10 5 9
11 5 9
12 5 9
13 5 9
14 5 9
-13 6 9
-12 6 9
-11 6 9
-10 6 9
-9 6 9
-8 6 9
-7 6 9
-6 6 9
-5 6 9
-4 6 9
-3 6 9
-2 6 9
-1 6 9
0 6 9
1 6 9
2 6 9
3 6 9
4 6 9
5 6 9
6 6 9
7 6 9
8 6 9
9 6 9
10 6 9
11 6 9
12 6 9
13 6 9
-13 7 9
-12 7 9
-11 7 9
-10 7 9
-9 7 9
-8 7 9
-7 7 9
-6 7 9
-5 7 9
-4 7 9
-3 7 9
-2 7 9
-1 7 9
0 7 9
1 7 9
2 7 9
3 7 9
4 7 9
5 7 9
6 7 9
7 7 9
8 7 9
9 7 9
10 7 9
11 7 9
12 7 9
13 7 9
-13 8 9
-12 8 9
-11 8 9
-10 8 9
-9 8 9
-8 8 9
-7 8 9
-6 8 9
-5 8 9
-4 8 9
-3 8 9
-2 8 9
-1 8 9
0 8 9
1 8 9
2 8 9
3 8 9
4 8 9
5 8 9
6 8 9
7 8 9
8 8 9
9 8 9
10 8 9
11 8 9
12 8 9
13 8 9
-12 9 9
-11 9 9
-10 9 9
-9 9 9
-8 9 9
-7 9 9
-6 9 9
-5 9 9
-4 9 9
-3 9 9
-2 9 9
-1 9 9
0 9 9
1 9 9
2 9 9
3 9 9
4 9 9
5 9 9
6 9 9
7 9 9
8 9 9
9 9 9
10 9 9
11 9 9
12 9 9
-12 10 9
-11 10 9
-10 10 9
-9 10 9
-8 10 9
-7 10 9
-6 10 9
-5 10 9
-4 10 9
-3 10 9
-2 10 9
-1 10 9
0 10 9
1 10 9
2 10 9
3 10 9
4 10 9
5 10 9
6 10 9
7 10 9
8 10 9
9 10 9
10 10 9
11 10 9
-11 11 9
-10 11 9
-9 11 9
-8 11 9
-7 11 9
-6 11 9
-5 11 9
-4 11 9
-3 11 9
-2 11 9
-1 11 9
0 11 9
1 11 9
2 11 9
3 11 9
4 11 9
5 11 9
6 11 9
7 11 9
8 11 9
9 11 9
10 11 9
11 11 9
-10 12 9
-9 12 9
-8 12 9
-7 12 9
-6 12 9
-5 12 9
-4 12 9
-3 12 9
-2 12 9
-1 12 9
0 12 9
1 12 9
2 12 9
3 12 9
4 12 9
5 12 9
6 12 9
7 12 9
8 12 9
9 12 9
10 12 9
-9 13 9
-8 13 9
-7 13 9
-6 13 9
-5 13 9
-4 13 9
-3 13 9
-2 13 9
-1 13 9
0 13 9
1 13 9
2 13 9
3 13 9
4 13 9
5 13 9
6 13 9
7 13 9
8 13 9
9 13 9
-8 14 9
-7 14 9
-6 14 9
-5 14 9
-4 14 9
-3 14 9
-2 14 9
-1 14 9
0 14 9
1 14 9
2 14 9
3 14 9
4 14 9
5 14 9
6 14 9
7 14 9
8 14 9
-7 15 9
-6 15 9
-5 15 9
-4 15 9
-3 15 9
-2 15 9
-1 15 9
0 15 9
1 15 9
2 15 9
3 15 9
4 15 9
5 15 9
6 15 9
7 15 9
-5 16 9
-4 16 9
-3 16 9
-2 16 9
-1 16 9
0 16 9
1 16 9
2 16 9
3 16 9
4 16 9
5 16 9
-2 17 9
-1 17 9
0 17 9
1 17 9
2 17 9
-12 0 10
-10 0 10
-8 0 10
-6 0 10
-4 0 10
-2 0 10
0 0 10
2 0 10
4 0 10
6 0 10
8 0 10
10 0 10
12 0 10
-13 1 10
-12 1 10
-11 1 10
-10 1 10
-9 1 10
-8 1 10
-7 1 10
-6 1 10
-5 1 10
-4 1 10
-3 1 10
-2 1 10
-1 1 10
0 1 10
1 1 10
2 1 10
3 1 10
4 1 10
5 1 10
6 1 10
7 1 10
8 1 10
9 1 10
10 1 10
11 1 10
12 1 10
-12 2 10
-11 2 10
-10 2 10
-9 2 10
-8 2 10
-7 2 10
-6 2 10
-5 2 10
-4 2 10
-3 2 10
-2 2 10
-1 2 10
0 2 10
1 2 10
2 2 10
3 2 10
4 2 10
5 2 10
6 2 10
7 2 10
8 2 10
9 2 10
10 2 10
11 2 10
12 2 10
-12 3 10
-11 3 10
-10 3 10
-9 3 10
-8 3 10
-7 3 10
-6 3 10
-5 3 10
-4 3 10
-3 3 10
-2 3 10
-1 3 10
0 3 10
1 3 10
2 3 10
3 3 10
4 3 10
5 3 10
6 3 10
7 3 10
8 3 10
9 3 10
10 3 10
11 3 10
12 3 10
-12 4 10
-11 4 10
-10 4 10
-9 4 10
-8 4 10
-7 4 10
-6 4 10
-5 4 10
-4 4 10
-3 4 10
-2 4 10
-1 4 10
0 4 10
1 4 10
2 4 10
3 4 10
4 4 10
5 4 10
6 4 10
7 4 10
8 4 10
9 4 10
10 4 10
11 4 10
12 4 10
-12 5 10
-11 5 10
-10 5 10
-9 5 10
-8 5 10
-7 5 10
-6 5 10
-5 5 10
-4 5 10
-3 5 10
-2 5 10
-1 5 10
0 5 10
1 5 10
2 5 10
3 5 10
4 5 10
5 5 10
6 5 10
7 5 10
8 5 10
9 5 10
10 5 10
11 5 10
12 5 10
-12 6 10
-11 6 10
-10 6 10
-9 6 10
-8 6 10
-7 6 10
-6 6 10
-5 6 10
-4 6 10
-3 6 10
-2 6 10
-1 6 10
0 6 10
1 6 10
2 6 10
3 6 10
4 6 10
5 6 10
6 6 10
7 6 10
8 6 10
9 6 10
10 6 10
11 6 10
-11 7 10
-10 7 10
-9 7 10
-8 7 10
-7 7 10
-6 7 10
-5 7 10
-4 7 10
-3 7 10
-2 7 10
-1 7 10
0 7 10
1 7 10
2 7 10
3 7 10
4 7 10
5 7 10
6 7 10
7 7 10
8 7 10
9 7 10
10 7 10
11 7 10
-11 8 10
-10 8 10
-9 8 10
-8 8 10
-7 8 10
-6 8 10
-5 8 10
-4 8 10
-3 8 10
-2 8 10
-1 8 10
0 8 10
1 8 10
2 8 10
3 8 10
4 8 10
5 8 10
6 8 10
7 8 10
8 8 10
9 8 10
10 8 10
11 8 10
-10 9 10
-9 9 10
-8 9 10
-7 9 10
-6 9 10
-5 9 10
-4 9 10
-3 9 10
-2 9 10
-1 9 10
0 9 10
1 9 10
2 9 10
3 9 10
4 9 10
5 9 10
6 9 10
7 9 10
8 9 10
9 9 10
10 9 10
-9 10 10
-8 10 10
-7 10 10
-6 10 10
-5 10 10
-4 10 10
-3 10 10
-2 10 10
-1 10 10
0 10 10
1 10 10
2 10 10
3 10 10
4 10 10
5 10 10
6 10 10
7 10 10
8 10 10
9 10 10
-9 11 10
-8 11 10
-7 11 10
-6 11 10
-5 11 10
-4 11 10
-3 11 10
-2 11 10
-1 11 10
0 11 10
1 11 10
2 11 10
3 11 10
4 11 10
5 11 10
6 11 10
7 11 10
8 11 10
9 11 10
-8 12 10
-7 12 10
-6 12 10
-5 12 10
-4 12 10
-3 12 10
-2 12 10
-1 12 10
0 12 10
1 12 10
2 12 10
3 12 10
4 12 10
5 12 10
6 12 10
7 12 10
8 12 10
-6 13 10
-5 13 10
-4 13 10
-3 13 10
-2 13 10
-1 13 10
0 13 10
1 13 10
2 13 10
3 13 10
4 13 10
5 13 10
6 13 10
-5 14 10
-4 14 10
-3 14 10
-2 14 10
-1 14 10
0 14 10
1 14 10
2 14 10
3 14 10
4 14 10
5 14 10
-2 15 10
-1 15 10
0 15 10
1 15 10
2 15 10
-9 0 11
-7 0 11
-5 0 11
-3 0 11
-1 0 11
1 0 11
3 0 11
5 0 11
7 0 11
9 0 11
-10 1 11
-9 1 11
-8 1 11
-7 1 11
-6 1 11
-5 1 11
-4 1 11
-3 1 11
-2 1 11
-1 1 11
0 1 11
1 1 11
2 1 11
3 1 11
4 1 11
5 1 11
6 1 11
7 1 11
8 1 11
9 1 11
10 1 11
-10 2 11
-9 2 11
-8 2 11
-7 2 11
-6 2 11
-5 2 11
-4 2 11
-3 2 11
-2 2 11
-1 2 11
0 2 11
1 2 11
2 2 11
3 2 11
4 2 11
5 2 11
6 2 11
7 2 11
8 2 11
9 2 11
10 2 11
-10 3 11
-9 3 11
-8 3 11
-7 3 11
-6 3 11
-5 3 11
-4 3 11
-3 3 11
-2 3 11
-1 3 11
0 3 11
1 3 11
2 3 11
3 3 11
4 3 11
5 3 11
6 3 11
7 3 11
8 3 11
9 3 11
10 3 11
-10 4 11
-9 4 11
-8 4 11
-7 4 11
-6 4 11
-5 4 11
-4 4 11
-3 4 11
-2 4 11
-1 4 11
0 4 11
1 4 11
2 4 11
3 4 11
4 4 11
5 4 11
6 4 11
7 4 11
8 4 11
9 4 11
10 4 11
-10 5 11
-9 5 11
-8 5 11
-7 5 11
-6 5 11
-5 5 11
-4 5 11
-3 5 11
-2 5 11
-1 5 11
0 5 11
1 5 11
2 5 11
3 5 11
4 5 11
5 5 11
6 5 11
7 5 11
8 5 11
9 5 11
-9 6 11
-8 6 11
-7 6 11
-6 6 11
-5 6 11
-4 6 11
-3 6 11
-2 6 11
-1 6 11
0 6 11
1 6 11
2 6 11
3 6 11
4 6 11
5 6 11
6 6 11
7 6 11
8 6 11
9 6 11
-9 7 11
-8 7 11
-7 7 11
-6 7 11
-5 7 11
-4 7 11
-3 7 11
-2 7 11
-1 7 11
0 7 11
1 7 11
2 7 11
3 7 11
4 7 11
5 7 11
6 7 11
7 7 11
8 7 11
9 7 11
-8 8 11
-7 8 11
-6 8 11
-5 8 11
-4 8 11
-3 8 11
-2 8 11
-1 8 11
0 8 11
1 8 11
2 8 11
3 8 11
4 8 11
5 8 11
6 8 11
7 8 11
8 8 11
-7 9 11
-6 9 11
-5 9 11
-4 9 11
-3 9 11
-2 9 11
-1 9 11
0 9 11
1 9 11
2 9 11
3 9 11
4 9 11
5 9 11
6 9 11
7 9 11
-6 10 11
-5 10 11
-4 10 11
-3 10 11
-2 10 11
-1 10 11
0 10 11
1 10 11
2 10 11
3 10 11
4 10 11
5 10 11
6 10 11
-5 11 11
-4 11 11
-3 11 11
-2 11 11
-1 11 11
0 11 11
1 11 11
2 11 11
3 11 11
4 11 11
5 11 11
-3 12 11
-2 12 11
-1 12 11
0 12 11
1 12 11
2 12 11
3 12 11
-6 0 12
-4 0 12
-2 0 12
0 0 12
2 0 12
4 0 12
6 0 12
-7 1 12
-6 1 12
-5 1 12
-4 1 12
-3 1 12
-2 1 12
-1 1 12
0 1 12
1 1 12
2 1 12
3 1 12
4 1 12
5 1 12
6 1 12
7 1 12
-7 2 12
-6 2 12
-5 2 12
-4 2 12
-3 2 12
-2 2 12
-1 2 12
0 2 12
1 2 12
2 2 12
3 2 12
4 2 12
5 2 12
6 2 12
7 2 12
-7 3 12
-6 3 12
-5 3 12
-4 3 12
-3 3 12
-2 3 12
-1 3 12
0 3 12
1 3 12
2 3 12
3 3 12
4 3 12
5 3 12
6 3 12
7 3 12
-7 4 12
-6 4 12
-5 4 12
-4 4 12
-3 4 12
-2 4 12
-1 4 12
0 4 12
1 4 12
2 4 12
3 4 12
4 4 12
5 4 12
6 4 12
-6 5 12
-5 5 12
-4 5 12
-3 5 12
-2 5 12
-1 5 12
0 5 12
1 5 12
2 5 12
3 5 12
4 5 12
5 5 12
6 5 12
-5 6 12
-4 6 12
-3 6 12
-2 6 12
-1 6 12
0 6 12
1 6 12
2 6 12
3 6 12
4 6 12
5 6 12
-5 7 12
-4 7 12
-3 7 12
-2 7 12
-1 7 12
0 7 12
1 7 12
2 7 12
3 7 12
4 7 12
-3 8 12
-2 8 12
-1 8 12
0 8 12
1 8 12
2 8 12
3 8 12
-1 9 12
0 9 12
1 9 12
