#------------------------------------------------------------------------------
#$Date: 2016-02-14 16:26:36 +0200 (Sun, 14 Feb 2016) $
#$Revision: 176435 $
#$URL: svn://www.crystallography.net/cod/cif/2/10/48/2104833.cif $
#------------------------------------------------------------------------------
#
# This file is available in the Crystallography Open Database (COD),
# http://www.crystallography.net/
#
# All data on this site have been placed in the public domain by the
# contributors.
#
data_2104833
loop_
_publ_author_name
'Robertson, Kevin'
'Bish, David'
_publ_section_title
;
 Determination of the crystal structure of magnesium perchlorate
 hydrates by X-ray powder diffraction and the charge-flipping method
;
_journal_coeditor_code           KD5043
_journal_issue                   6
_journal_name_full               'Acta Crystallographica Section B'
_journal_page_first              579
_journal_page_last               584
_journal_paper_doi               10.1107/S0108768110039686
_journal_volume                  66
_journal_year                    2010
_chemical_formula_structural     Mg(ClO4)2*4H2O
_chemical_formula_sum            'Cl2 H4 Mg O10'
_chemical_formula_weight         259.24
_chemical_name_common            'Magnesium perchlorate dihydrate'
_space_group_IT_number           12
_symmetry_cell_setting           monoclinic
_symmetry_space_group_name_Hall  '-C 2y'
_symmetry_space_group_name_H-M   'C 1 2/m 1'
_cell_angle_alpha                90
_cell_angle_beta                 108.1987(21)
_cell_angle_gamma                90
_cell_formula_units_Z            2
_cell_length_a                   14.38776(64)
_cell_length_b                   5.21861(19)
_cell_length_c                   5.43805(25)
_cell_measurement_temperature    423
_cell_measurement_theta_max      110
_cell_measurement_theta_min      10
_cell_volume                     387.89(3)
_diffrn_ambient_temperature      423
_diffrn_measurement_device_type  'Bruker D8'
_diffrn_radiation_type           'Cu K\a'
_diffrn_radiation_wavelength     1.5418
_pd_char_colour                  white
_pd_meas_2theta_range_inc        0.0167
_pd_meas_2theta_range_max        110
_pd_meas_2theta_range_min        10
_pd_meas_number_of_points        8383
_pd_meas_scan_method             step
_pd_proc_info_excluded_regions   '89.5 to 90.5 2\q'
_pd_proc_ls_background_function  'third-order Chebyshev polynomial'
_pd_proc_ls_pref_orient_corr     ' sixth-order spherical harmonics'
_pd_proc_ls_profile_function     PVII
_pd_proc_ls_prof_R_factor        0.053
_pd_proc_ls_prof_wR_expected     0.012
_pd_proc_ls_prof_wR_factor       0.078
_pd_spec_mounting
'Ni-Cr plated copper front loaded sample mount'
_pd_spec_mount_mode              reflection
_pd_spec_shape                   'flat sheet'
_pd_spec_size_axial              10
_pd_spec_size_equat              14
_pd_spec_size_thick              1
_refine_ls_goodness_of_fit_all   6.23
_refine_ls_hydrogen_treatment    noref
_refine_ls_number_parameters     25
_refine_ls_R_I_factor            0.036
_cod_data_source_file            kd5043.cif
_cod_data_source_block           profile2
_cod_original_cell_volume        387.887(29)
_cod_original_sg_symbol_H-M      C2/m
_cod_original_formula_sum        'Cl2 H4 Mg O10 '
_cod_database_code               2104833
#BEGIN Tags that were not found in dictionaries:
_publcif_info_exptl_table_max_cols 6
#END Tags that were not found in dictionaries
loop_
_symmetry_equiv_pos_as_xyz
'-x, -y, -z'
'-x, y, -z'
'-x+1/2, -y+1/2, -z'
'-x+1/2, y+1/2, -z'
'x, -y, z'
'x, y, z'
'x+1/2, -y+1/2, z'
'x+1/2, y+1/2, z'
loop_
_atom_site_label
_atom_site_type_symbol
_atom_site_symmetry_multiplicity
_atom_site_fract_x
_atom_site_fract_y
_atom_site_fract_z
_atom_site_occupancy
_atom_site_B_iso_or_equiv
Mg Mg+2 2 0 0 0.5 1 0.8
Cl Cl-1 4 0.62578 1 0.83043 1 0.4
O1 O-2 4 0.38167 0.5 0.64837 1 1.2
O2 O-2 4 0.32043 1 0.89 1 1.2
O3 O-2 8 0.05762 0.25 0.79317 1 1.2
O4 O-2 4 0.31265 1 0.34525 1 1.2
H H 8 0.67187 0.62617 0.43766 1 1
#BEGIN Loops that were not found in dictionaries:
loop_
_publcif_info_exptl_table_extra_item
?
loop_
_publcif_info_exptl_table_header_item
?
loop_
_publcif_info_datablock.id
_publcif_info_datablock.publ_exptl
_publcif_info_datablock.publ_geom
_publcif_info_datablock.structure
global ? ? ?
profile1 y y y
profile2 y y y
#END Loops that were not found in dictionaries
