#------------------------------------------------------------------------------
#$Date: 2016-02-14 06:40:26 +0200 (Sun, 14 Feb 2016) $
#$Revision: 176432 $
#$URL: svn://www.crystallography.net/cod/cif/2/10/42/2104268.cif $
#------------------------------------------------------------------------------
#
# This file is available in the Crystallography Open Database (COD),
# http://www.crystallography.net/. The original data for this entry
# were provided by IUCr Journals, http://journals.iucr.org/.
#
# The file may be used within the scientific community so long as
# proper attribution is given to the journal article from which the
# data were obtained.
#
data_2104268
loop_
_publ_author_name
'Friese, Karen'
'Kanke, Yasushi'
'Fitch, Andy N.'
'Morgenroth, Wolfgang'
'Grzechnik, Andrzej'
_publ_section_title
;
 Isosymmetrical phase transition in \a-YbV~4~O~8~
;
_journal_coeditor_code           SN5072
_journal_issue                   6
_journal_name_full               'Acta Crystallographica Section B'
_journal_page_first              652
_journal_page_last               660
_journal_paper_doi               10.1107/S0108768108026153
_journal_volume                  64
_journal_year                    2008
_chemical_formula_sum            'O8 V4 Yb'
_chemical_formula_weight         504.8
_chemical_name_common            Ytterbiumvanadate
_chemical_name_systematic        ' ?'
_space_group_IT_number           14
_symmetry_cell_setting           monoclinic
_symmetry_space_group_name_Hall  '-P 2yn'
_symmetry_space_group_name_H-M   'P 1 21/n 1'
_cell_angle_alpha                90
_cell_angle_beta                 90.068(3)
_cell_angle_gamma                90
_cell_formula_units_Z            4
_cell_length_a                   9.0461(3)
_cell_length_b                   10.6156(4)
_cell_length_c                   5.7812(3)
_cell_measurement_reflns_used    378
_cell_measurement_temperature    8
_cell_measurement_theta_max      10
_cell_measurement_theta_min      1
_cell_volume                     555.17(4)
_computing_cell_refinement       Jana2006
_computing_data_collection       'XDS (Kabsch, 2007)'
_computing_data_reduction        'XDS, Jana2006'
_computing_molecular_graphics    'Atoms (Dowty, 1999)'
_computing_publication_material
'Jana2006 (Petricek, Dusek & Palatinus, 2006)'
_computing_structure_refinement
'Jana2006 (Petricek, Dusek & Palatinus, 2006)'
_computing_structure_solution    'coordinates from model'
_diffrn_ambient_temperature      8
_diffrn_detector_area_resol_mean Mar-CCD165
_diffrn_measured_fraction_theta_full 0.95
_diffrn_measured_fraction_theta_max 31.83
_diffrn_measurement_device       'Huber 4-circle'
_diffrn_measurement_method       \f-scans
_diffrn_radiation_source         'Hasylab; D3'
_diffrn_radiation_type           Synchrotron
_diffrn_radiation_wavelength     0.47686
_diffrn_reflns_av_R_equivalents  0.049
_diffrn_reflns_av_sigmaI/netI    0.039
_diffrn_reflns_limit_h_max       19
_diffrn_reflns_limit_h_min       -18
_diffrn_reflns_limit_k_max       20
_diffrn_reflns_limit_k_min       -21
_diffrn_reflns_limit_l_max       12
_diffrn_reflns_limit_l_min       -12
_diffrn_reflns_number            54380
_diffrn_reflns_reduction_process Jana2006
_diffrn_reflns_theta_full        31.83
_diffrn_reflns_theta_max         31.83
_diffrn_reflns_theta_min         2
_exptl_absorpt_coefficient_mu    7.883
_exptl_absorpt_correction_T_max  0.7863
_exptl_absorpt_correction_T_min  0.7083
_exptl_absorpt_correction_type   numerical
_exptl_absorpt_process_details
'Xshape (Stoe &CIE), Jana2006 (Petricek, Dusek and Palatinus)'
_exptl_crystal_colour            black
_exptl_crystal_density_diffrn    6.0375
_exptl_crystal_density_meas      ?
_exptl_crystal_description       irregular
_exptl_crystal_F_000             904
_exptl_crystal_size_max          0.11
_exptl_crystal_size_mid          0.095
_exptl_crystal_size_min          0.087
_refine_diff_density_max         3.83
_refine_diff_density_min         -5.91
_refine_ls_extinction_coef       32E2(3)
_refine_ls_extinction_method
'B-C type 1 Gaussian isotropic (Becker & Coppens, 1974)'
_refine_ls_goodness_of_fit_ref   1.47
_refine_ls_number_parameters     119
_refine_ls_number_reflns         5970
_refine_ls_R_factor_all          0.0355
_refine_ls_R_factor_gt           0.0299
_refine_ls_shift/su_max          -0.0406
_refine_ls_shift/su_mean         0.0033
_refine_ls_structure_factor_coef F
_refine_ls_weighting_details     w=1/(\s^2^(F)+0.0001F^2^)
_refine_ls_weighting_scheme      sigma
_refine_ls_wR_factor_gt          0.0352
_refine_ls_wR_factor_ref         0.0366
_reflns_number_gt                5254
_reflns_number_total             5970
_reflns_threshold_expression     I>3\s(I)
_cod_data_source_file            sn5072.cif
_cod_data_source_block           VII
_cod_depositor_comments
;
The following automatic conversions were performed:
'_exptl_absorpt_correction_type' value 'Numerical' changed to 'numerical'
according to '/home/saulius/struct/CIF-dictionaries/cif_core.dic'
dictionary named 'cif_core.dic' version 2.4.1 from 2010-06-29.

Automatic conversion script
Id: cif_fix_enum 1527 2010-12-29 10:47:43Z saulius 

The following automatic conversions were performed:

'_exptl_absorpt_correction_type' value 'Numerical' changed to
'numerical' according to
/home/saulius/struct/CIF-dictionaries/cif_core.dic dictionary named
'cif_core.dic' version 2.4.1 from 2010-06-29.

Automatic conversion script
Id: cif_fix_values 1715 2011-07-08 13:25:40Z adriana 
;
_cod_original_sg_symbol_Hall     '-P 2yabc'
_cod_original_formula_sum        'O8 V4 Yb1'
_cod_database_code               2104268
_cod_database_fobs_code          2104268
loop_
_symmetry_equiv_pos_site_id
_symmetry_equiv_pos_as_xyz
1 x,y,z
2 -x+1/2,y+1/2,-z+1/2
3 -x,-y,-z
4 x+1/2,-y+1/2,z+1/2
loop_
_atom_site_type_symbol
_atom_site_label
_atom_site_fract_x
_atom_site_fract_y
_atom_site_fract_z
_atom_site_U_iso_or_equiv
_atom_site_adp_type
_atom_site_calc_flag
_atom_site_occupancy
Yb Yb 0.756284(9) 0.655589(7) 0.128315(13) 0.001487(19) Uani d 1
V V1 0.42625(4) 0.61482(3) 0.13102(5) 0.00200(6) Uani d 1
V V2 0.40991(4) 0.09879(3) 0.12337(5) 0.00195(6) Uani d 1
V V3 0.45072(4) 0.61031(3) 0.62822(5) 0.00204(6) Uani d 1
V V4 0.41782(4) 0.10805(3) 0.62573(5) 0.00209(6) Uani d 1
O O1 0.20527(19) 0.16106(14) 0.1098(3) 0.0033(3) Uani d 1
O O2 0.11593(18) 0.47303(14) 0.1146(2) 0.0031(3) Uani d 1
O O3 0.53587(18) 0.77714(15) 0.1293(2) 0.0034(3) Uani d 1
O O4 0.41362(18) 0.42837(14) 0.1156(2) 0.0032(3) Uani d 1
O O5 0.2193(2) 0.15471(13) 0.6289(3) 0.0038(3) Uani d 1
O O6 0.11357(18) 0.47798(14) 0.6347(2) 0.0031(3) Uani d 1
O O7 0.50793(18) 0.78999(14) 0.6296(2) 0.0030(3) Uani d 1
O O8 0.41249(18) 0.42905(14) 0.6337(2) 0.0031(3) Uani d 1
loop_
_atom_site_aniso_label
_atom_site_aniso_U_11
_atom_site_aniso_U_22
_atom_site_aniso_U_33
_atom_site_aniso_U_12
_atom_site_aniso_U_13
_atom_site_aniso_U_23
_atom_site_aniso_type_symbol
Yb 0.00160(3) 0.00067(4) 0.00219(3) 0.000012(18) -0.00003(2) 0.000073(16) Yb
V1 0.00226(10) 0.00076(11) 0.00299(9) -0.00023(7) -0.00006(8) -0.00003(7) V
V2 0.00233(11) 0.00080(10) 0.00272(9) 0.00030(7) -0.00003(8) 0.00010(7) V
V3 0.00247(11) 0.00073(10) 0.00291(9) -0.00016(7) -0.00009(8) 0.00010(7) V
V4 0.00255(11) 0.00081(10) 0.00290(9) 0.00020(7) 0.00033(8) -0.00006(7) V
O1 0.0038(5) 0.0023(5) 0.0039(4) -0.0002(4) 0.0000(4) 0.0002(3) O
O2 0.0038(5) 0.0018(5) 0.0036(4) -0.0001(4) 0.0000(4) 0.0000(3) O
O3 0.0046(5) 0.0022(5) 0.0033(4) 0.0000(4) -0.0002(4) 0.0005(3) O
O4 0.0041(5) 0.0020(5) 0.0034(4) 0.0001(4) 0.0001(4) -0.0002(3) O
O5 0.0044(5) 0.0028(5) 0.0042(4) -0.0003(4) 0.0002(4) -0.0008(3) O
O6 0.0037(5) 0.0017(5) 0.0039(4) 0.0003(3) 0.0003(4) 0.0001(3) O
O7 0.0037(5) 0.0018(5) 0.0036(4) -0.0006(4) -0.0003(4) 0.0006(3) O
O8 0.0034(5) 0.0021(5) 0.0038(4) -0.0002(4) 0.0001(4) 0.0003(3) O
loop_
_atom_type_symbol
_atom_type_scat_dispersion_real
_atom_type_scat_dispersion_imag
_atom_type_scat_source
Yb -0.392 2.854 'International Tables Vol C Tables  4.2.6.8 and 6.1.1.1'
V 0.183 0.250 'International Tables Vol C Tables  4.2.6.8 and 6.1.1.1'
O 0.004 0.003 'International Tables Vol C Tables  4.2.6.8 and 6.1.1.1'
loop_
_geom_angle_atom_site_label_1
_geom_angle_atom_site_label_2
_geom_angle_atom_site_label_3
_geom_angle_site_symmetry_1
_geom_angle_site_symmetry_3
_geom_angle
_geom_angle_publ_flag
V1 Yb V1 . 3_665 55.921(8) yes
V1 Yb V1 . 4_564 117.649(8) yes
V1 Yb V1 . 4_565 116.927(8) yes
V1 Yb V2 . 2_655 148.411(8) yes
V1 Yb V2 . 3_665 70.704(9) yes
V1 Yb V2 . 4_554 103.819(8) yes
V1 Yb V2 . 4_555 103.440(8) yes
V1 Yb V3 . 1_554 46.214(8) yes
V1 Yb V3 . . 45.539(8) yes
V1 Yb V3 . 3_666 51.837(8) yes
V1 Yb V3 . 4_564 133.537(9) yes
V1 Yb V4 . 2_655 148.900(9) yes
V1 Yb V4 . 3_666 68.442(9) yes
V1 Yb V4 . 4_554 109.323(9) yes
V1 Yb V1 3_665 4_564 110.687(7) yes
V1 Yb V1 3_665 4_565 159.019(7) yes
V1 Yb V2 3_665 2_655 115.943(8) yes
V1 Yb V2 3_665 3_665 103.455(8) yes
V1 Yb V2 3_665 4_554 50.065(7) yes
V1 Yb V2 3_665 4_555 85.560(7) yes
V1 Yb V3 3_665 1_554 45.436(7) yes
V1 Yb V3 3_665 . 83.682(7) yes
V1 Yb V3 3_665 3_666 47.060(7) yes
V1 Yb V3 3_665 4_564 155.069(8) yes
V1 Yb V4 3_665 2_655 95.756(8) yes
V1 Yb V4 3_665 3_666 124.312(9) yes
V1 Yb V4 3_665 4_554 60.526(8) yes
V1 Yb V1 4_564 4_565 90.176(7) yes
V1 Yb V2 4_564 2_655 93.924(8) yes
V1 Yb V2 4_564 3_665 52.821(8) yes
V1 Yb V2 4_564 4_554 76.663(7) yes
V1 Yb V2 4_564 4_555 138.249(7) yes
V1 Yb V3 4_564 1_554 79.860(7) yes
V1 Yb V3 4_564 . 146.884(7) yes
V1 Yb V3 4_564 3_666 157.620(7) yes
V1 Yb V3 4_564 4_564 44.982(7) yes
V1 Yb V4 4_564 2_655 56.268(7) yes
V1 Yb V4 4_564 3_666 91.722(7) yes
V1 Yb V4 4_564 4_554 110.614(8) yes
V1 Yb V2 4_565 2_655 58.149(7) yes
V1 Yb V2 4_565 3_665 90.743(7) yes
V1 Yb V2 4_565 4_554 138.581(7) yes
V1 Yb V2 4_565 4_555 76.920(7) yes
V1 Yb V3 4_565 1_554 146.957(7) yes
V1 Yb V3 4_565 . 79.582(7) yes
V1 Yb V3 4_565 3_666 112.168(7) yes
V1 Yb V3 4_565 4_564 45.355(7) yes
V1 Yb V4 4_565 2_655 94.091(8) yes
V1 Yb V4 4_565 3_666 54.396(8) yes
V1 Yb V4 4_565 4_554 110.969(8) yes
V2 Yb V2 2_655 3_665 136.206(8) yes
V2 Yb V2 2_655 4_554 83.410(7) yes
V2 Yb V2 2_655 4_555 45.554(7) yes
V2 Yb V3 2_655 1_554 153.086(7) yes
V2 Yb V3 2_655 . 106.617(7) yes
V2 Yb V3 2_655 3_666 98.928(8) yes
V2 Yb V3 2_655 4_564 68.384(9) yes
V2 Yb V4 2_655 2_655 51.169(8) yes
V2 Yb V4 2_655 3_666 112.270(8) yes
V2 Yb V4 2_655 4_554 55.478(8) yes
V2 Yb V2 3_665 4_554 110.298(7) yes
V2 Yb V2 3_665 4_555 162.347(7) yes
V2 Yb V3 3_665 1_554 58.161(7) yes
V2 Yb V3 3_665 . 95.549(8) yes
V2 Yb V3 3_665 3_666 122.526(8) yes
V2 Yb V3 3_665 4_564 67.833(9) yes
V2 Yb V4 3_665 2_655 108.897(8) yes
V2 Yb V4 3_665 3_666 51.485(8) yes
V2 Yb V4 3_665 4_554 153.821(8) yes
V2 Yb V2 4_554 4_555 87.168(6) yes
V2 Yb V3 4_554 1_554 69.679(7) yes
V2 Yb V3 4_554 . 130.347(7) yes
V2 Yb V3 4_554 3_666 86.654(7) yes
V2 Yb V3 4_554 4_564 109.388(8) yes
V2 Yb V4 4_554 2_655 45.988(7) yes
V2 Yb V4 4_554 3_666 161.359(7) yes
V2 Yb V4 4_554 4_554 43.581(7) yes
V2 Yb V3 4_555 1_554 130.029(7) yes
V2 Yb V3 4_555 . 70.065(7) yes
V2 Yb V3 4_555 3_666 53.744(7) yes
V2 Yb V3 4_555 4_564 109.663(8) yes
V2 Yb V4 4_555 2_655 84.848(7) yes
V2 Yb V4 4_555 3_666 110.899(7) yes
V2 Yb V4 4_555 4_554 43.589(7) yes
V3 Yb V3 1_554 . 91.709(7) yes
V3 Yb V3 1_554 3_666 80.408(7) yes
V3 Yb V3 1_554 4_564 119.566(8) yes
V3 Yb V4 1_554 2_655 105.801(7) yes
V3 Yb V4 1_554 3_666 94.179(8) yes
V3 Yb V4 1_554 4_554 102.013(8) yes
V3 Yb V3 . 3_666 44.139(7) yes
V3 Yb V3 . 4_564 119.617(8) yes
V3 Yb V4 . 2_655 154.891(8) yes
V3 Yb V4 . 3_666 56.731(8) yes
V3 Yb V4 . 4_554 102.446(8) yes
V3 Yb V3 3_666 4_564 157.391(8) yes
V3 Yb V4 3_666 2_655 120.302(8) yes
V3 Yb V4 3_666 3_666 100.154(8) yes
V3 Yb V4 3_666 4_554 63.660(8) yes
V3 Yb V4 4_564 2_655 67.188(9) yes
V3 Yb V4 4_564 3_666 69.763(9) yes
V3 Yb V4 4_564 4_554 117.139(9) yes
V4 Yb V4 2_655 3_666 136.938(9) yes
V4 Yb V4 2_655 4_554 56.918(8) yes
V4 Yb V4 3_666 4_554 154.257(8) yes
Yb V1 Yb . 3_665 124.079(10) yes
Yb V1 Yb . 4_464 106.376(9) yes
Yb V1 Yb . 4_465 106.996(9) yes
Yb V1 V1 . 3_665 71.962(10) yes
Yb V1 V2 . 2_555 154.836(12) yes
Yb V1 V2 . 3_665 58.776(8) yes
Yb V1 V3 . 1_554 85.463(11) yes
Yb V1 V3 . . 86.144(11) yes
Yb V1 V3 . 3_666 75.433(11) yes
Yb V1 V4 . 2_555 153.347(12) yes
Yb V1 V4 . 3_666 59.384(8) yes
Yb V1 Yb 3_665 4_464 90.418(7) yes
Yb V1 Yb 3_665 4_465 126.318(9) yes
Yb V1 V1 3_665 3_665 52.117(8) yes
Yb V1 V2 3_665 2_555 73.948(9) yes
Yb V1 V2 3_665 3_665 131.994(10) yes
Yb V1 V3 3_665 1_554 67.094(9) yes
Yb V1 V3 3_665 . 115.625(12) yes
Yb V1 V3 3_665 3_666 74.250(10) yes
Yb V1 V4 3_665 2_555 52.871(7) yes
Yb V1 V4 3_665 3_666 175.938(12) yes
Yb V1 Yb 4_464 4_465 90.176(7) yes
Yb V1 V1 4_464 3_665 106.083(10) yes
Yb V1 V2 4_464 2_555 89.474(9) yes
Yb V1 V2 4_464 3_665 51.441(7) yes
Yb V1 V3 4_464 1_554 47.977(8) yes
Yb V1 V3 4_464 . 138.281(13) yes
Yb V1 V3 4_464 3_666 161.650(12) yes
Yb V1 V4 4_464 2_555 50.822(7) yes
Yb V1 V4 4_464 3_666 86.363(9) yes
Yb V1 V1 4_465 3_665 163.428(12) yes
Yb V1 V2 4_465 2_555 52.382(7) yes
Yb V1 V2 4_465 3_665 86.584(8) yes
Yb V1 V3 4_465 1_554 137.975(12) yes
Yb V1 V3 4_465 . 48.288(8) yes
Yb V1 V3 4_465 3_666 106.936(10) yes
Yb V1 V4 4_465 2_555 88.567(9) yes
Yb V1 V4 4_465 3_666 51.306(7) yes
V1 V1 V2 3_665 2_555 123.028(13) yes
V1 V1 V2 3_665 3_665 105.908(12) yes
V1 V1 V3 3_665 1_554 58.520(10) yes
V1 V1 V3 3_665 . 115.620(14) yes
V1 V1 V3 3_665 3_666 56.544(10) yes
V1 V1 V4 3_665 2_555 99.132(12) yes
V1 V1 V4 3_665 3_666 131.285(14) yes
V2 V1 V2 2_555 3_665 125.040(12) yes
V2 V1 V3 2_555 1_554 119.338(14) yes
V2 V1 V3 2_555 . 69.298(11) yes
V2 V1 V3 2_555 3_666 95.716(12) yes
V2 V1 V4 2_555 2_555 50.518(9) yes
V2 V1 V4 2_555 3_666 103.513(11) yes
V2 V1 V3 3_665 1_554 65.486(10) yes
V2 V1 V3 3_665 . 112.381(13) yes
V2 V1 V3 3_665 3_666 134.190(14) yes
V2 V1 V4 3_665 2_555 102.034(11) yes
V2 V1 V4 3_665 3_666 46.820(8) yes
V3 V1 V3 1_554 . 171.041(17) yes
V3 V1 V3 1_554 3_666 115.064(14) yes
V3 V1 V4 1_554 2_555 68.900(11) yes
V3 V1 V4 1_554 3_666 112.191(13) yes
V3 V1 V3 . 3_666 59.530(11) yes
V3 V1 V4 . 2_555 119.809(14) yes
V3 V1 V4 . 3_666 65.736(10) yes
V3 V1 V4 3_666 2_555 121.383(14) yes
V3 V1 V4 3_666 3_666 109.349(13) yes
V4 V1 V4 2_555 3_666 123.066(12) yes
Yb V2 Yb 2_645 3_665 116.410(10) yes
Yb V2 Yb 2_645 4_454 134.446(10) yes
Yb V2 Yb 2_645 4_455 96.590(7) yes
Yb V2 V1 2_645 2_545 128.080(11) yes
Yb V2 V1 2_645 3_665 70.410(8) yes
Yb V2 V2 2_645 3_655 80.945(10) yes
Yb V2 V3 2_645 2_545 167.731(12) yes
Yb V2 V3 2_645 3_666 51.217(7) yes
Yb V2 V4 2_645 1_554 113.149(13) yes
Yb V2 V4 2_645 . 63.308(9) yes
Yb V2 V4 2_645 3_656 58.298(9) yes
Yb V2 Yb 3_665 4_454 93.268(7) yes
Yb V2 Yb 3_665 4_455 130.770(10) yes
Yb V2 V1 3_665 2_545 74.797(9) yes
Yb V2 V1 3_665 3_665 50.521(7) yes
Yb V2 V2 3_665 3_655 125.428(11) yes
Yb V2 V3 3_665 2_545 52.118(7) yes
Yb V2 V3 3_665 3_666 70.396(8) yes
Yb V2 V4 3_665 1_554 63.264(9) yes
Yb V2 V4 3_665 . 114.779(12) yes
Yb V2 V4 3_665 3_656 174.576(14) yes
Yb V2 Yb 4_454 4_455 87.168(6) yes
Yb V2 V1 4_454 2_545 91.248(9) yes
Yb V2 V1 4_454 3_665 113.180(9) yes
Yb V2 V2 4_454 3_655 53.500(8) yes
Yb V2 V3 4_454 2_545 55.914(7) yes
Yb V2 V3 4_454 3_666 159.562(10) yes
Yb V2 V4 4_454 1_554 49.108(8) yes
Yb V2 V4 4_454 . 135.653(12) yes
Yb V2 V4 4_454 3_656 91.709(10) yes
Yb V2 V1 4_455 2_545 55.986(7) yes
Yb V2 V1 4_455 3_665 159.617(10) yes
Yb V2 V2 4_455 3_655 93.491(10) yes
Yb V2 V3 4_455 2_545 90.129(9) yes
Yb V2 V3 4_455 3_666 112.686(9) yes
Yb V2 V4 4_455 1_554 136.274(12) yes
Yb V2 V4 4_455 . 48.487(8) yes
Yb V2 V4 4_455 3_656 51.643(8) yes
V1 V2 V1 2_545 3_665 119.387(12) yes
V1 V2 V2 2_545 3_655 136.435(14) yes
V1 V2 V3 2_545 2_545 49.020(9) yes
V1 V2 V3 2_545 3_666 95.953(11) yes
V1 V2 V4 2_545 1_554 116.346(14) yes
V1 V2 V4 2_545 . 66.266(11) yes
V1 V2 V4 2_545 3_656 107.264(12) yes
V1 V2 V2 3_665 3_655 99.610(12) yes
V1 V2 V3 3_665 2_545 100.172(11) yes
V1 V2 V3 3_665 3_666 46.942(8) yes
V1 V2 V4 3_665 1_554 64.092(10) yes
V1 V2 V4 3_665 . 111.164(13) yes
V1 V2 V4 3_665 3_656 125.184(13) yes
V2 V2 V3 3_655 2_545 108.967(12) yes
V2 V2 V3 3_655 3_666 126.222(14) yes
V2 V2 V4 3_655 1_554 62.426(11) yes
V2 V2 V4 3_655 . 118.909(14) yes
V2 V2 V4 3_655 3_656 56.602(10) yes
V3 V2 V3 2_545 3_666 116.641(12) yes
V3 V2 V4 2_545 1_554 67.408(11) yes
V3 V2 V4 2_545 . 115.280(13) yes
V3 V2 V4 2_545 3_656 133.035(14) yes
V3 V2 V4 3_666 1_554 110.921(13) yes
V3 V2 V4 3_666 . 64.401(10) yes
V3 V2 V4 3_666 3_656 104.275(12) yes
V4 V2 V4 1_554 . 175.182(16) yes
V4 V2 V4 1_554 3_656 119.028(14) yes
V4 V2 V4 . 3_656 62.506(11) yes
Yb V3 Yb . 1_556 91.709(7) yes
Yb V3 Yb . 3_666 135.861(9) yes
Yb V3 Yb . 4_465 107.427(9) yes
Yb V3 V1 . . 48.317(9) yes
Yb V3 V1 . 1_556 139.981(13) yes
Yb V3 V1 . 3_666 100.048(11) yes
Yb V3 V2 . 2_555 109.809(9) yes
Yb V3 V2 . 3_666 86.793(9) yes
Yb V3 V3 . 3_666 61.329(9) yes
Yb V3 V4 . 2_556 156.027(11) yes
Yb V3 V4 . 3_666 50.978(7) yes
Yb V3 Yb 1_556 3_666 99.592(7) yes
Yb V3 Yb 1_556 4_465 107.370(9) yes
Yb V3 V1 1_556 . 139.974(13) yes
Yb V3 V1 1_556 1_556 48.323(9) yes
Yb V3 V1 1_556 3_666 60.314(9) yes
Yb V3 V2 1_556 2_555 157.260(11) yes
Yb V3 V2 1_556 3_666 51.443(7) yes
Yb V3 V3 1_556 3_666 104.549(11) yes
Yb V3 V4 1_556 2_556 110.475(9) yes
Yb V3 V4 1_556 3_666 88.067(9) yes
Yb V3 Yb 3_666 4_465 109.437(10) yes
Yb V3 V1 3_666 . 110.894(12) yes
Yb V3 V1 3_666 1_556 65.846(9) yes
Yb V3 V1 3_666 3_666 52.731(9) yes
Yb V3 V2 3_666 2_555 70.342(8) yes
Yb V3 V2 3_666 3_666 132.821(10) yes
Yb V3 V3 3_666 3_666 74.532(10) yes
Yb V3 V4 3_666 2_556 51.284(7) yes
Yb V3 V4 3_666 3_666 168.951(12) yes
Yb V3 V1 4_465 . 86.730(11) yes
Yb V3 V1 4_465 1_556 86.668(11) yes
Yb V3 V1 4_465 3_666 150.433(13) yes
Yb V3 V2 4_465 2_555 60.049(8) yes
Yb V3 V2 4_465 3_666 60.399(8) yes
Yb V3 V3 4_465 3_666 146.485(13) yes
Yb V3 V4 4_465 2_556 58.261(8) yes
Yb V3 V4 4_465 3_666 60.309(8) yes
V1 V3 V1 . 1_556 171.041(17) yes
V1 V3 V1 . 3_666 120.470(14) yes
V1 V3 V2 . 2_555 61.683(11) yes
V1 V3 V2 . 3_666 113.980(13) yes
V1 V3 V3 . 3_666 61.901(11) yes
V1 V3 V4 . 2_556 108.765(13) yes
V1 V3 V4 . 3_666 66.273(10) yes
V1 V3 V1 1_556 3_666 64.936(11) yes
V1 V3 V2 1_556 2_555 109.639(13) yes
V1 V3 V2 1_556 3_666 67.572(10) yes
V1 V3 V3 1_556 3_666 122.979(14) yes
V1 V3 V4 1_556 2_556 62.493(10) yes
V1 V3 V4 1_556 3_666 115.202(13) yes
V1 V3 V2 3_666 2_555 120.197(13) yes
V1 V3 V2 3_666 3_666 111.589(12) yes
V1 V3 V3 3_666 3_666 58.569(11) yes
V1 V3 V4 3_666 2_556 98.884(12) yes
V1 V3 V4 3_666 3_666 138.245(14) yes
V2 V3 V2 2_555 3_666 120.441(12) yes
V2 V3 V3 2_555 3_666 92.590(12) yes
V2 V3 V4 2_555 2_556 47.152(8) yes
V2 V3 V4 2_555 3_666 99.628(11) yes
V2 V3 V3 3_666 3_666 141.163(14) yes
V2 V3 V4 3_666 2_556 99.755(11) yes
V2 V3 V4 3_666 3_666 47.821(8) yes
V3 V3 V4 3_666 2_556 118.459(13) yes
V3 V3 V4 3_666 3_666 111.418(13) yes
V4 V3 V4 2_556 3_666 118.561(12) yes
Yb V4 Yb 2_645 3_666 119.965(10) yes
Yb V4 Yb 2_645 4_455 123.082(10) yes
Yb V4 V1 2_645 2_545 127.272(11) yes
Yb V4 V1 2_645 3_666 72.427(9) yes
Yb V4 V2 2_645 . 65.523(9) yes
Yb V4 V2 2_645 1_556 117.928(13) yes
Yb V4 V2 2_645 3_656 82.369(11) yes
Yb V4 V3 2_645 2_546 170.312(12) yes
Yb V4 V3 2_645 3_666 52.503(8) yes
Yb V4 V4 2_645 3_656 58.670(9) yes
Yb V4 Yb 3_666 4_455 116.912(11) yes
Yb V4 V1 3_666 2_545 74.782(9) yes
Yb V4 V1 3_666 3_666 52.174(8) yes
Yb V4 V2 3_666 . 116.540(12) yes
Yb V4 V2 3_666 1_556 65.251(9) yes
Yb V4 V2 3_666 3_656 125.958(11) yes
Yb V4 V3 3_666 2_546 51.977(7) yes
Yb V4 V3 3_666 3_666 72.291(9) yes
Yb V4 V4 3_666 3_656 177.523(13) yes
Yb V4 V1 4_455 2_545 66.602(9) yes
Yb V4 V1 4_455 3_666 156.328(11) yes
Yb V4 V2 4_455 . 87.931(11) yes
Yb V4 V2 4_455 1_556 87.303(11) yes
Yb V4 V2 4_455 3_656 66.224(9) yes
Yb V4 V3 4_455 2_546 65.057(8) yes
Yb V4 V3 4_455 3_666 155.097(12) yes
Yb V4 V4 4_455 3_656 64.412(9) yes
V1 V4 V1 2_545 3_666 120.735(12) yes
V1 V4 V2 2_545 . 63.216(11) yes
V1 V4 V2 2_545 1_556 114.039(14) yes
V1 V4 V2 2_545 3_656 132.738(14) yes
V1 V4 V3 2_545 2_546 48.606(9) yes
V1 V4 V3 2_545 3_666 96.170(11) yes
V1 V4 V4 2_545 3_656 104.303(12) yes
V1 V4 V2 3_666 . 115.650(13) yes
V1 V4 V2 3_666 1_556 69.088(11) yes
V1 V4 V2 3_666 3_656 101.830(12) yes
V1 V4 V3 3_666 2_546 101.773(11) yes
V1 V4 V3 3_666 3_666 47.991(8) yes
V1 V4 V4 3_666 3_656 127.494(14) yes
V2 V4 V2 . 1_556 175.182(16) yes
V2 V4 V2 . 3_656 117.494(14) yes
V2 V4 V3 . 2_546 111.753(13) yes
V2 V4 V3 . 3_666 67.778(10) yes
V2 V4 V4 . 3_656 61.133(11) yes
V2 V4 V2 1_556 3_656 60.972(11) yes
V2 V4 V3 1_556 2_546 65.440(11) yes
V2 V4 V3 1_556 3_666 116.890(13) yes
V2 V4 V4 1_556 3_656 117.142(14) yes
V2 V4 V3 3_656 2_546 106.677(12) yes
V2 V4 V3 3_656 3_666 129.232(14) yes
V2 V4 V4 3_656 3_656 56.361(10) yes
V3 V4 V3 2_546 3_666 117.833(12) yes
V3 V4 V4 2_546 3_656 129.135(13) yes
V3 V4 V4 3_666 3_656 105.630(12) yes
O1 Yb O2 3_665 3_665 93.34(5) yes
O1 Yb O3 3_665 . 71.60(5) yes
O1 Yb O4 3_665 3_665 93.46(5) yes
O1 Yb O5 3_665 3_666 69.67(5) yes
O1 Yb O6 3_665 3_666 139.97(6) yes
O1 Yb O7 3_665 4_564 70.28(5) yes
O1 Yb O8 3_665 3_666 140.58(6) yes
O2 Yb O3 3_665 . 139.00(5) yes
O2 Yb O4 3_665 3_665 74.02(6) yes
O2 Yb O5 3_665 3_666 142.81(6) yes
O2 Yb O6 3_665 3_666 74.76(5) yes
O2 Yb O7 3_665 4_564 69.90(5) yes
O2 Yb O8 3_665 3_666 118.99(5) yes
O3 Yb O4 . 3_665 69.30(5) yes
O3 Yb O5 . 3_666 68.24(5) yes
O3 Yb O6 . 3_666 139.82(5) yes
O3 Yb O7 . 4_564 132.85(5) yes
O3 Yb O8 . 3_666 69.16(5) yes
O4 Yb O5 3_665 3_666 137.37(6) yes
O4 Yb O6 3_665 3_666 118.37(5) yes
O4 Yb O7 3_665 4_564 139.03(5) yes
O4 Yb O8 3_665 3_666 76.28(5) yes
O5 Yb O6 3_666 3_666 96.85(5) yes
O5 Yb O7 3_666 4_564 73.20(5) yes
O5 Yb O8 3_666 3_666 92.21(5) yes
O6 Yb O7 3_666 4_564 69.74(5) yes
O6 Yb O8 3_666 3_666 74.66(6) yes
O7 Yb O8 4_564 3_666 139.17(5) yes
O1 V1 O3 2_555 . 95.12(6) yes
O1 V1 O4 2_555 . 104.31(6) yes
O1 V1 O4 2_555 3_665 173.00(7) yes
O1 V1 O5 2_555 2_555 96.78(7) yes
O1 V1 O8 2_555 3_666 88.96(6) yes
O3 V1 O4 . . 153.24(7) yes
O3 V1 O4 . 3_665 80.81(6) yes
O3 V1 O5 . 2_555 97.92(6) yes
O3 V1 O8 . 3_666 81.11(6) yes
O4 V1 O4 . 3_665 77.87(6) yes
O4 V1 O5 . 2_555 97.86(6) yes
O4 V1 O8 . 3_666 81.02(6) yes
O4 V1 O5 3_665 2_555 89.45(6) yes
O4 V1 O8 3_665 3_666 84.79(6) yes
O5 V1 O8 2_555 3_666 174.24(7) yes
O1 V2 O2 . 2_545 98.12(6) yes
O1 V2 O3 . 3_665 88.94(6) yes
O1 V2 O6 . 2_545 95.03(7) yes
O1 V2 O6 . 4_554 175.77(6) yes
O1 V2 O7 . 3_666 100.33(6) yes
O2 V2 O3 2_545 3_665 172.58(7) yes
O2 V2 O6 2_545 2_545 97.12(6) yes
O2 V2 O6 2_545 4_554 79.41(6) yes
O2 V2 O7 2_545 3_666 84.16(6) yes
O3 V2 O6 3_665 2_545 84.47(6) yes
O3 V2 O6 3_665 4_554 93.68(6) yes
O3 V2 O7 3_665 3_666 92.35(6) yes
O6 V2 O6 2_545 4_554 81.93(6) yes
O6 V2 O7 2_545 3_666 164.26(7) yes
O6 V2 O7 4_554 3_666 82.90(6) yes
O1 V3 O4 2_555 3_666 173.26(6) yes
O1 V3 O5 2_555 2_556 83.53(6) yes
O1 V3 O7 2_555 . 85.92(6) yes
O1 V3 O8 2_555 . 98.53(6) yes
O1 V3 O8 2_555 3_666 88.43(6) yes
O4 V3 O5 3_666 2_556 90.01(6) yes
O4 V3 O7 3_666 . 92.02(6) yes
O4 V3 O8 3_666 . 83.84(6) yes
O4 V3 O8 3_666 3_666 98.07(6) yes
O5 V3 O7 2_556 . 88.46(6) yes
O5 V3 O8 2_556 . 94.53(6) yes
O5 V3 O8 2_556 3_666 171.83(6) yes
O7 V3 O8 . . 174.88(7) yes
O7 V3 O8 . 3_666 92.43(6) yes
O8 V3 O8 . 3_666 85.19(6) yes
O2 V4 O2 2_545 4_555 78.82(6) yes
O2 V4 O3 2_545 3_666 173.57(7) yes
O2 V4 O5 2_545 . 92.90(7) yes
O2 V4 O6 2_545 2_546 87.97(6) yes
O2 V4 O7 2_545 3_666 85.71(6) yes
O2 V4 O3 4_555 3_666 95.92(7) yes
O2 V4 O5 4_555 . 169.69(7) yes
O2 V4 O6 4_555 2_546 81.41(6) yes
O2 V4 O7 4_555 3_666 84.52(6) yes
O3 V4 O5 3_666 . 91.92(7) yes
O3 V4 O6 3_666 2_546 87.58(6) yes
O3 V4 O7 3_666 3_666 97.54(6) yes
O5 V4 O6 . 2_546 92.27(7) yes
O5 V4 O7 . 3_666 101.11(7) yes
O6 V4 O7 2_546 3_666 165.46(7) yes
loop_
_geom_bond_atom_site_label_1
_geom_bond_atom_site_label_2
_geom_bond_site_symmetry_2
_geom_bond_distance
_geom_bond_publ_flag
Yb V1 . 3.0168(4) yes
Yb V1 3_665 3.6344(3) yes
Yb V1 4_564 4.0719(3) yes
Yb V1 4_565 4.0914(3) yes
Yb V2 2_655 3.3960(3) yes
Yb V2 3_665 3.3423(3) yes
Yb V2 4_554 4.2136(3) yes
Yb V2 4_555 4.1719(3) yes
Yb V3 1_554 4.0264(3) yes
Yb V3 . 4.0302(3) yes
Yb V3 3_666 3.6690(3) yes
Yb V3 4_564 3.0446(3) yes
Yb V4 2_655 3.3336(4) yes
Yb V4 3_666 3.2869(3) yes
Yb V4 4_554 3.1572(3) yes
V1 V1 3_665 3.1658(5) yes
V1 V2 2_555 3.3620(5) yes
V1 V2 3_665 3.6889(5) yes
V1 V3 1_554 2.9159(4) yes
V1 V3 . 2.8830(4) yes
V1 V3 3_666 2.9806(5) yes
V1 V4 2_555 3.4475(5) yes
V1 V4 3_666 3.5521(5) yes
V2 V2 3_655 3.0160(5) yes
V2 V3 2_545 3.5723(5) yes
V2 V3 3_666 3.6310(5) yes
V2 V4 1_554 2.8796(4) yes
V2 V4 . 2.9067(4) yes
V2 V4 3_656 3.0575(5) yes
V3 V3 3_666 2.9122(5) yes
V3 V4 2_556 3.6263(5) yes
V3 V4 3_666 3.5373(5) yes
V4 V4 3_656 3.0970(5) yes
Yb O1 3_665 2.4096(15) yes
Yb O2 3_665 2.2751(15) yes
Yb O3 . 2.3750(16) yes
Yb O4 3_665 2.2670(15) yes
Yb O5 3_666 2.4645(15) yes
Yb O6 3_666 2.2957(15) yes
Yb O7 4_564 2.3486(16) yes
Yb O8 3_666 2.2443(15) yes
V1 O1 2_555 1.9761(16) yes
V1 O3 . 1.9881(16) yes
V1 O4 . 1.9846(16) yes
V1 O4 3_665 2.0846(15) yes
V1 O5 2_555 2.0411(17) yes
V1 O8 3_666 2.0472(15) yes
V2 O1 . 1.9672(17) yes
V2 O2 2_545 2.0329(15) yes
V2 O3 3_665 2.0276(15) yes
V2 O6 2_545 1.9785(15) yes
V2 O6 4_554 2.0155(16) yes
V2 O7 3_666 1.9959(15) yes
V3 O1 2_555 2.0423(16) yes
V3 O4 3_666 1.9658(15) yes
V3 O5 2_556 2.1365(17) yes
V3 O7 . 1.9764(15) yes
V3 O8 . 1.9552(16) yes
V3 O8 3_666 2.0006(15) yes
V4 O2 2_545 2.0191(15) yes
V4 O2 4_555 1.9892(16) yes
V4 O3 3_666 1.9144(15) yes
V4 O5 . 1.8630(18) yes
V4 O6 2_546 1.9765(15) yes
V4 O7 3_666 1.9504(15) yes
loop_
_refln_index_h
_refln_index_k
_refln_index_l
2 0 0
4 0 0
6 0 0
8 0 0
10 0 0
12 0 0
14 0 0
16 0 0
18 0 0
1 1 0
2 1 0
3 1 0
4 1 0
5 1 0
6 1 0
7 1 0
8 1 0
9 1 0
10 1 0
11 1 0
12 1 0
13 1 0
14 1 0
15 1 0
16 1 0
17 1 0
18 1 0
19 1 0
1 2 0
2 2 0
3 2 0
4 2 0
5 2 0
6 2 0
7 2 0
8 2 0
9 2 0
10 2 0
11 2 0
12 2 0
13 2 0
14 2 0
15 2 0
16 2 0
17 2 0
18 2 0
19 2 0
1 3 0
2 3 0
3 3 0
4 3 0
5 3 0
6 3 0
7 3 0
8 3 0
9 3 0
10 3 0
11 3 0
12 3 0
13 3 0
14 3 0
15 3 0
16 3 0
17 3 0
18 3 0
19 3 0
1 4 0
2 4 0
3 4 0
4 4 0
5 4 0
6 4 0
7 4 0
8 4 0
9 4 0
10 4 0
11 4 0
12 4 0
13 4 0
14 4 0
15 4 0
16 4 0
17 4 0
18 4 0
19 4 0
1 5 0
2 5 0
3 5 0
4 5 0
5 5 0
6 5 0
7 5 0
8 5 0
9 5 0
10 5 0
11 5 0
12 5 0
13 5 0
14 5 0
15 5 0
16 5 0
17 5 0
18 5 0
19 5 0
1 6 0
2 6 0
3 6 0
4 6 0
5 6 0
6 6 0
7 6 0
8 6 0
9 6 0
10 6 0
11 6 0
12 6 0
13 6 0
14 6 0
15 6 0
16 6 0
17 6 0
18 6 0
19 6 0
1 7 0
2 7 0
3 7 0
4 7 0
5 7 0
6 7 0
7 7 0
8 7 0
9 7 0
10 7 0
11 7 0
12 7 0
13 7 0
14 7 0
15 7 0
16 7 0
17 7 0
18 7 0
19 7 0
1 8 0
2 8 0
3 8 0
4 8 0
5 8 0
6 8 0
7 8 0
8 8 0
9 8 0
10 8 0
11 8 0
12 8 0
13 8 0
14 8 0
15 8 0
16 8 0
17 8 0
18 8 0
1 9 0
2 9 0
3 9 0
4 9 0
5 9 0
6 9 0
7 9 0
8 9 0
9 9 0
10 9 0
11 9 0
12 9 0
13 9 0
14 9 0
15 9 0
16 9 0
17 9 0
18 9 0
1 10 0
2 10 0
3 10 0
4 10 0
5 10 0
6 10 0
7 10 0
8 10 0
9 10 0
10 10 0
11 10 0
12 10 0
13 10 0
14 10 0
15 10 0
16 10 0
17 10 0
18 10 0
2 11 0
3 11 0
4 11 0
5 11 0
6 11 0
7 11 0
8 11 0
9 11 0
10 11 0
11 11 0
12 11 0
13 11 0
14 11 0
15 11 0
16 11 0
17 11 0
2 12 0
3 12 0
4 12 0
5 12 0
6 12 0
7 12 0
8 12 0
9 12 0
10 12 0
11 12 0
12 12 0
13 12 0
14 12 0
15 12 0
16 12 0
17 12 0
2 13 0
3 13 0
4 13 0
5 13 0
6 13 0
7 13 0
8 13 0
9 13 0
10 13 0
11 13 0
12 13 0
13 13 0
14 13 0
15 13 0
16 13 0
3 14 0
4 14 0
5 14 0
6 14 0
7 14 0
8 14 0
9 14 0
10 14 0
11 14 0
12 14 0
13 14 0
14 14 0
15 14 0
16 14 0
3 15 0
4 15 0
5 15 0
6 15 0
7 15 0
8 15 0
9 15 0
10 15 0
11 15 0
12 15 0
13 15 0
14 15 0
15 15 0
4 16 0
5 16 0
6 16 0
7 16 0
8 16 0
9 16 0
10 16 0
11 16 0
12 16 0
13 16 0
14 16 0
4 17 0
5 17 0
6 17 0
7 17 0
8 17 0
9 17 0
10 17 0
11 17 0
12 17 0
13 17 0
5 18 0
6 18 0
7 18 0
8 18 0
9 18 0
10 18 0
11 18 0
12 18 0
5 19 0
6 19 0
7 19 0
8 19 0
9 19 0
10 19 0
11 19 0
6 20 0
7 20 0
8 20 0
9 20 0
10 20 0
7 21 0
8 21 0
-19 0 1
-17 0 1
-15 0 1
-13 0 1
-11 0 1
-9 0 1
-7 0 1
-5 0 1
-3 0 1
-1 0 1
1 0 1
3 0 1
5 0 1
7 0 1
9 0 1
11 0 1
13 0 1
15 0 1
17 0 1
19 0 1
-19 1 1
-18 1 1
-17 1 1
-16 1 1
-15 1 1
-14 1 1
-13 1 1
-12 1 1
-11 1 1
-10 1 1
-9 1 1
-8 1 1
-7 1 1
-6 1 1
-5 1 1
-4 1 1
-3 1 1
-2 1 1
-1 1 1
0 1 1
1 1 1
2 1 1
3 1 1
4 1 1
5 1 1
6 1 1
7 1 1
8 1 1
9 1 1
10 1 1
11 1 1
12 1 1
13 1 1
14 1 1
15 1 1
16 1 1
17 1 1
18 1 1
19 1 1
-19 2 1
-18 2 1
-17 2 1
-16 2 1
-15 2 1
-14 2 1
-13 2 1
-12 2 1
-11 2 1
-10 2 1
-9 2 1
-8 2 1
-7 2 1
-6 2 1
-5 2 1
-4 2 1
-3 2 1
-2 2 1
-1 2 1
0 2 1
1 2 1
2 2 1
3 2 1
4 2 1
5 2 1
6 2 1
7 2 1
8 2 1
9 2 1
10 2 1
11 2 1
12 2 1
13 2 1
14 2 1
15 2 1
16 2 1
17 2 1
18 2 1
19 2 1
-19 3 1
-18 3 1
-17 3 1
-16 3 1
-15 3 1
-14 3 1
-13 3 1
-12 3 1
-11 3 1
-10 3 1
-9 3 1
-8 3 1
-7 3 1
-6 3 1
-5 3 1
-4 3 1
-3 3 1
-2 3 1
-1 3 1
0 3 1
1 3 1
2 3 1
3 3 1
4 3 1
5 3 1
6 3 1
7 3 1
8 3 1
9 3 1
10 3 1
11 3 1
12 3 1
13 3 1
14 3 1
15 3 1
16 3 1
17 3 1
18 3 1
19 3 1
-19 4 1
-18 4 1
-17 4 1
-16 4 1
-15 4 1
-14 4 1
-13 4 1
-12 4 1
-11 4 1
-10 4 1
-9 4 1
-8 4 1
-7 4 1
-6 4 1
-5 4 1
-4 4 1
-3 4 1
-2 4 1
-1 4 1
0 4 1
1 4 1
2 4 1
3 4 1
4 4 1
5 4 1
6 4 1
7 4 1
8 4 1
9 4 1
10 4 1
11 4 1
12 4 1
13 4 1
14 4 1
15 4 1
16 4 1
17 4 1
18 4 1
19 4 1
-19 5 1
-18 5 1
-17 5 1
-16 5 1
-15 5 1
-14 5 1
-13 5 1
-12 5 1
-11 5 1
-10 5 1
-9 5 1
-8 5 1
-7 5 1
-6 5 1
-5 5 1
-4 5 1
-3 5 1
-2 5 1
-1 5 1
0 5 1
1 5 1
2 5 1
3 5 1
4 5 1
5 5 1
6 5 1
7 5 1
8 5 1
9 5 1
10 5 1
11 5 1
12 5 1
13 5 1
14 5 1
15 5 1
16 5 1
17 5 1
18 5 1
19 5 1
-19 6 1
-18 6 1
-17 6 1
-16 6 1
-15 6 1
-14 6 1
-13 6 1
-12 6 1
-11 6 1
-10 6 1
-9 6 1
-8 6 1
-7 6 1
-6 6 1
-5 6 1
-4 6 1
-3 6 1
-2 6 1
-1 6 1
0 6 1
1 6 1
2 6 1
3 6 1
4 6 1
5 6 1
6 6 1
7 6 1
8 6 1
9 6 1
10 6 1
11 6 1
12 6 1
13 6 1
14 6 1
15 6 1
16 6 1
17 6 1
18 6 1
19 6 1
-19 7 1
-18 7 1
-17 7 1
-16 7 1
-15 7 1
-14 7 1
-13 7 1
-12 7 1
-11 7 1
-10 7 1
-9 7 1
-8 7 1
-7 7 1
-6 7 1
-5 7 1
-4 7 1
-3 7 1
-2 7 1
-1 7 1
0 7 1
1 7 1
2 7 1
3 7 1
4 7 1
5 7 1
6 7 1
7 7 1
8 7 1
9 7 1
10 7 1
11 7 1
12 7 1
13 7 1
14 7 1
15 7 1
16 7 1
17 7 1
18 7 1
19 7 1
-18 8 1
-17 8 1
-16 8 1
-15 8 1
-14 8 1
-13 8 1
-12 8 1
-11 8 1
-10 8 1
-9 8 1
-8 8 1
-7 8 1
-6 8 1
-5 8 1
-4 8 1
-3 8 1
-2 8 1
-1 8 1
0 8 1
1 8 1
2 8 1
3 8 1
4 8 1
5 8 1
6 8 1
7 8 1
8 8 1
9 8 1
10 8 1
11 8 1
12 8 1
13 8 1
14 8 1
15 8 1
16 8 1
17 8 1
18 8 1
-18 9 1
-17 9 1
-16 9 1
-15 9 1
-14 9 1
-13 9 1
-12 9 1
-11 9 1
-10 9 1
-9 9 1
-8 9 1
-7 9 1
-6 9 1
-5 9 1
-4 9 1
-3 9 1
-2 9 1
-1 9 1
0 9 1
1 9 1
2 9 1
3 9 1
4 9 1
5 9 1
6 9 1
7 9 1
8 9 1
9 9 1
10 9 1
11 9 1
12 9 1
13 9 1
14 9 1
15 9 1
16 9 1
17 9 1
18 9 1
-18 10 1
-17 10 1
-16 10 1
-15 10 1
-14 10 1
-13 10 1
-12 10 1
-11 10 1
-10 10 1
-9 10 1
-8 10 1
-7 10 1
-6 10 1
-5 10 1
-4 10 1
-3 10 1
-2 10 1
-1 10 1
0 10 1
1 10 1
2 10 1
3 10 1
4 10 1
5 10 1
6 10 1
7 10 1
8 10 1
9 10 1
10 10 1
11 10 1
12 10 1
13 10 1
14 10 1
15 10 1
16 10 1
17 10 1
18 10 1
-17 11 1
-16 11 1
-15 11 1
-14 11 1
-13 11 1
-12 11 1
-11 11 1
-10 11 1
-9 11 1
-8 11 1
-7 11 1
-6 11 1
-5 11 1
-4 11 1
-3 11 1
-2 11 1
-1 11 1
0 11 1
1 11 1
2 11 1
3 11 1
4 11 1
5 11 1
6 11 1
7 11 1
8 11 1
9 11 1
10 11 1
11 11 1
12 11 1
13 11 1
14 11 1
15 11 1
16 11 1
17 11 1
-17 12 1
-16 12 1
-15 12 1
-14 12 1
-13 12 1
-12 12 1
-11 12 1
-10 12 1
-9 12 1
-8 12 1
-7 12 1
-6 12 1
-5 12 1
-4 12 1
-3 12 1
-2 12 1
-1 12 1
1 12 1
2 12 1
3 12 1
4 12 1
5 12 1
6 12 1
7 12 1
8 12 1
9 12 1
10 12 1
11 12 1
12 12 1
13 12 1
14 12 1
15 12 1
16 12 1
17 12 1
-16 13 1
-15 13 1
-14 13 1
-13 13 1
-12 13 1
-11 13 1
-10 13 1
-9 13 1
-8 13 1
-7 13 1
-6 13 1
-5 13 1
-4 13 1
-3 13 1
-2 13 1
-1 13 1
2 13 1
3 13 1
4 13 1
5 13 1
6 13 1
7 13 1
8 13 1
9 13 1
10 13 1
11 13 1
12 13 1
13 13 1
14 13 1
15 13 1
16 13 1
-15 14 1
-14 14 1
-13 14 1
-12 14 1
-11 14 1
-10 14 1
-9 14 1
-8 14 1
-7 14 1
-6 14 1
-5 14 1
-4 14 1
-3 14 1
-2 14 1
3 14 1
4 14 1
5 14 1
6 14 1
7 14 1
8 14 1
9 14 1
10 14 1
11 14 1
12 14 1
13 14 1
14 14 1
15 14 1
-15 15 1
-14 15 1
-13 15 1
-12 15 1
-11 15 1
-10 15 1
-9 15 1
-8 15 1
-7 15 1
-6 15 1
-5 15 1
-4 15 1
-3 15 1
-2 15 1
3 15 1
4 15 1
5 15 1
6 15 1
7 15 1
8 15 1
9 15 1
10 15 1
11 15 1
12 15 1
13 15 1
14 15 1
15 15 1
-14 16 1
-13 16 1
-12 16 1
-11 16 1
-10 16 1
-9 16 1
-8 16 1
-7 16 1
-6 16 1
-5 16 1
-4 16 1
-3 16 1
4 16 1
5 16 1
6 16 1
7 16 1
8 16 1
9 16 1
10 16 1
11 16 1
12 16 1
13 16 1
14 16 1
-13 17 1
-12 17 1
-11 17 1
-10 17 1
-9 17 1
-8 17 1
-7 17 1
-6 17 1
-5 17 1
-4 17 1
4 17 1
5 17 1
6 17 1
7 17 1
8 17 1
9 17 1
10 17 1
11 17 1
12 17 1
13 17 1
-12 18 1
-11 18 1
-10 18 1
-9 18 1
-8 18 1
-7 18 1
-6 18 1
-5 18 1
-4 18 1
5 18 1
6 18 1
7 18 1
8 18 1
9 18 1
10 18 1
11 18 1
12 18 1
-11 19 1
-10 19 1
-9 19 1
-8 19 1
-7 19 1
-6 19 1
-5 19 1
6 19 1
7 19 1
8 19 1
9 19 1
10 19 1
11 19 1
-10 20 1
-9 20 1
-8 20 1
-7 20 1
-6 20 1
6 20 1
7 20 1
8 20 1
9 20 1
10 20 1
-8 21 1
-7 21 1
7 21 1
8 21 1
-18 0 2
-16 0 2
-14 0 2
-12 0 2
-10 0 2
-8 0 2
-6 0 2
-4 0 2
-2 0 2
0 0 2
2 0 2
4 0 2
6 0 2
8 0 2
10 0 2
12 0 2
14 0 2
16 0 2
18 0 2
-19 1 2
-18 1 2
-17 1 2
-16 1 2
-15 1 2
-14 1 2
-13 1 2
-12 1 2
-11 1 2
-10 1 2
-9 1 2
-8 1 2
-7 1 2
-6 1 2
-5 1 2
-4 1 2
-3 1 2
-2 1 2
-1 1 2
0 1 2
1 1 2
2 1 2
3 1 2
4 1 2
5 1 2
6 1 2
7 1 2
8 1 2
9 1 2
10 1 2
11 1 2
12 1 2
13 1 2
14 1 2
15 1 2
16 1 2
17 1 2
18 1 2
19 1 2
-19 2 2
-18 2 2
-17 2 2
-16 2 2
-15 2 2
-14 2 2
-13 2 2
-12 2 2
-11 2 2
-10 2 2
-9 2 2
-8 2 2
-7 2 2
-6 2 2
-5 2 2
-4 2 2
-3 2 2
-2 2 2
-1 2 2
0 2 2
1 2 2
2 2 2
3 2 2
4 2 2
5 2 2
6 2 2
7 2 2
8 2 2
9 2 2
10 2 2
11 2 2
12 2 2
13 2 2
14 2 2
15 2 2
16 2 2
17 2 2
18 2 2
19 2 2
-19 3 2
-18 3 2
-17 3 2
-16 3 2
-15 3 2
-14 3 2
-13 3 2
-12 3 2
-11 3 2
-10 3 2
-9 3 2
-8 3 2
-7 3 2
-6 3 2
-5 3 2
-4 3 2
-3 3 2
-2 3 2
-1 3 2
0 3 2
1 3 2
2 3 2
3 3 2
4 3 2
5 3 2
6 3 2
7 3 2
8 3 2
9 3 2
10 3 2
11 3 2
12 3 2
13 3 2
14 3 2
15 3 2
16 3 2
17 3 2
18 3 2
19 3 2
-19 4 2
-18 4 2
-17 4 2
-16 4 2
-15 4 2
-14 4 2
-13 4 2
-12 4 2
-11 4 2
-10 4 2
-9 4 2
-8 4 2
-7 4 2
-6 4 2
-5 4 2
-4 4 2
-3 4 2
-2 4 2
-1 4 2
0 4 2
1 4 2
2 4 2
3 4 2
4 4 2
5 4 2
6 4 2
7 4 2
8 4 2
9 4 2
10 4 2
11 4 2
12 4 2
13 4 2
14 4 2
15 4 2
16 4 2
17 4 2
18 4 2
19 4 2
-19 5 2
-18 5 2
-17 5 2
-16 5 2
-15 5 2
-14 5 2
-13 5 2
-12 5 2
-11 5 2
-10 5 2
-9 5 2
-8 5 2
-7 5 2
-6 5 2
-5 5 2
-4 5 2
-3 5 2
-2 5 2
-1 5 2
0 5 2
1 5 2
2 5 2
3 5 2
4 5 2
5 5 2
6 5 2
7 5 2
8 5 2
9 5 2
10 5 2
11 5 2
12 5 2
13 5 2
14 5 2
15 5 2
16 5 2
17 5 2
18 5 2
19 5 2
-19 6 2
-18 6 2
-17 6 2
-16 6 2
-15 6 2
-14 6 2
-13 6 2
-12 6 2
-11 6 2
-10 6 2
-9 6 2
-8 6 2
-7 6 2
-6 6 2
-5 6 2
-4 6 2
-3 6 2
-2 6 2
-1 6 2
0 6 2
1 6 2
2 6 2
3 6 2
4 6 2
5 6 2
6 6 2
7 6 2
8 6 2
9 6 2
10 6 2
11 6 2
12 6 2
13 6 2
14 6 2
15 6 2
16 6 2
17 6 2
18 6 2
19 6 2
-18 7 2
-17 7 2
-16 7 2
-15 7 2
-14 7 2
-13 7 2
-12 7 2
-11 7 2
-10 7 2
-9 7 2
-8 7 2
-7 7 2
-6 7 2
-5 7 2
-4 7 2
-3 7 2
-2 7 2
-1 7 2
0 7 2
1 7 2
2 7 2
3 7 2
4 7 2
5 7 2
6 7 2
7 7 2
8 7 2
9 7 2
10 7 2
11 7 2
12 7 2
13 7 2
14 7 2
15 7 2
16 7 2
17 7 2
18 7 2
-18 8 2
-17 8 2
-16 8 2
-15 8 2
-14 8 2
-13 8 2
-12 8 2
-11 8 2
-10 8 2
-9 8 2
-8 8 2
-7 8 2
-6 8 2
-5 8 2
-4 8 2
-3 8 2
-2 8 2
-1 8 2
0 8 2
1 8 2
2 8 2
3 8 2
4 8 2
5 8 2
6 8 2
7 8 2
8 8 2
9 8 2
10 8 2
11 8 2
12 8 2
13 8 2
14 8 2
15 8 2
16 8 2
17 8 2
18 8 2
-18 9 2
-17 9 2
-16 9 2
-15 9 2
-14 9 2
-13 9 2
-12 9 2
-11 9 2
-10 9 2
-9 9 2
-8 9 2
-7 9 2
-6 9 2
-5 9 2
-4 9 2
-3 9 2
-2 9 2
-1 9 2
0 9 2
1 9 2
2 9 2
3 9 2
4 9 2
5 9 2
6 9 2
7 9 2
8 9 2
9 9 2
10 9 2
11 9 2
12 9 2
13 9 2
14 9 2
15 9 2
16 9 2
17 9 2
18 9 2
-17 10 2
-16 10 2
-15 10 2
-14 10 2
-13 10 2
-12 10 2
-11 10 2
-10 10 2
-9 10 2
-8 10 2
-7 10 2
-6 10 2
-5 10 2
-4 10 2
-3 10 2
-2 10 2
-1 10 2
0 10 2
1 10 2
2 10 2
3 10 2
4 10 2
5 10 2
6 10 2
7 10 2
8 10 2
9 10 2
10 10 2
11 10 2
12 10 2
13 10 2
14 10 2
15 10 2
16 10 2
17 10 2
-17 11 2
-16 11 2
-15 11 2
-14 11 2
-13 11 2
-12 11 2
-11 11 2
-10 11 2
-9 11 2
-8 11 2
-7 11 2
-6 11 2
-5 11 2
-4 11 2
-3 11 2
-2 11 2
-1 11 2
0 11 2
1 11 2
2 11 2
3 11 2
4 11 2
5 11 2
6 11 2
7 11 2
8 11 2
9 11 2
10 11 2
11 11 2
12 11 2
13 11 2
14 11 2
15 11 2
16 11 2
17 11 2
-16 12 2
-15 12 2
-14 12 2
-13 12 2
-12 12 2
-11 12 2
-10 12 2
-9 12 2
-8 12 2
-7 12 2
-6 12 2
-5 12 2
-4 12 2
-3 12 2
-2 12 2
-1 12 2
0 12 2
1 12 2
2 12 2
3 12 2
4 12 2
5 12 2
6 12 2
7 12 2
8 12 2
9 12 2
10 12 2
11 12 2
12 12 2
13 12 2
14 12 2
15 12 2
16 12 2
-16 13 2
-15 13 2
-14 13 2
-13 13 2
-12 13 2
-11 13 2
-10 13 2
-9 13 2
-8 13 2
-7 13 2
-6 13 2
-5 13 2
-4 13 2
-3 13 2
-2 13 2
-1 13 2
0 13 2
1 13 2
2 13 2
3 13 2
4 13 2
5 13 2
6 13 2
7 13 2
8 13 2
9 13 2
10 13 2
11 13 2
12 13 2
13 13 2
14 13 2
15 13 2
16 13 2
-15 14 2
-14 14 2
-13 14 2
-12 14 2
-11 14 2
-10 14 2
-9 14 2
-8 14 2
-7 14 2
-6 14 2
-5 14 2
-4 14 2
-3 14 2
-2 14 2
-1 14 2
0 14 2
1 14 2
2 14 2
3 14 2
4 14 2
5 14 2
6 14 2
7 14 2
8 14 2
9 14 2
10 14 2
11 14 2
12 14 2
13 14 2
14 14 2
15 14 2
-15 15 2
-14 15 2
-13 15 2
-12 15 2
-11 15 2
-10 15 2
-9 15 2
-8 15 2
-7 15 2
-6 15 2
-5 15 2
-4 15 2
-3 15 2
-2 15 2
-1 15 2
2 15 2
3 15 2
4 15 2
5 15 2
6 15 2
7 15 2
8 15 2
9 15 2
10 15 2
11 15 2
12 15 2
13 15 2
14 15 2
15 15 2
-14 16 2
-13 16 2
-12 16 2
-11 16 2
-10 16 2
-9 16 2
-8 16 2
-7 16 2
-6 16 2
-5 16 2
-4 16 2
-3 16 2
-2 16 2
3 16 2
4 16 2
5 16 2
6 16 2
7 16 2
8 16 2
9 16 2
10 16 2
11 16 2
12 16 2
13 16 2
14 16 2
-13 17 2
-12 17 2
-11 17 2
-10 17 2
-9 17 2
-8 17 2
-7 17 2
-6 17 2
-5 17 2
-4 17 2
-3 17 2
4 17 2
5 17 2
6 17 2
7 17 2
8 17 2
9 17 2
10 17 2
11 17 2
12 17 2
13 17 2
-12 18 2
-11 18 2
-10 18 2
-9 18 2
-8 18 2
-7 18 2
-6 18 2
-5 18 2
-4 18 2
-3 18 2
5 18 2
6 18 2
7 18 2
8 18 2
9 18 2
10 18 2
11 18 2
12 18 2
-11 19 2
-10 19 2
-9 19 2
-8 19 2
-7 19 2
-6 19 2
-5 19 2
-4 19 2
5 19 2
6 19 2
7 19 2
8 19 2
9 19 2
10 19 2
11 19 2
-9 20 2
-8 20 2
-7 20 2
-6 20 2
-5 20 2
6 20 2
7 20 2
8 20 2
9 20 2
-8 21 2
-7 21 2
-6 21 2
7 21 2
-19 0 3
-17 0 3
-15 0 3
-13 0 3
-11 0 3
-9 0 3
-7 0 3
-5 0 3
-3 0 3
-1 0 3
1 0 3
3 0 3
5 0 3
7 0 3
9 0 3
11 0 3
13 0 3
15 0 3
17 0 3
19 0 3
-19 1 3
-18 1 3
-17 1 3
-16 1 3
-15 1 3
-14 1 3
-13 1 3
-12 1 3
-11 1 3
-10 1 3
-9 1 3
-8 1 3
-7 1 3
-6 1 3
-5 1 3
-4 1 3
-3 1 3
-2 1 3
-1 1 3
0 1 3
1 1 3
2 1 3
3 1 3
4 1 3
5 1 3
6 1 3
7 1 3
8 1 3
9 1 3
10 1 3
11 1 3
12 1 3
13 1 3
14 1 3
15 1 3
16 1 3
17 1 3
18 1 3
19 1 3
-19 2 3
-18 2 3
-17 2 3
-16 2 3
-15 2 3
-14 2 3
-13 2 3
-12 2 3
-11 2 3
-10 2 3
-9 2 3
-8 2 3
-7 2 3
-6 2 3
-5 2 3
-4 2 3
-3 2 3
-2 2 3
-1 2 3
0 2 3
1 2 3
2 2 3
3 2 3
4 2 3
5 2 3
6 2 3
7 2 3
8 2 3
9 2 3
10 2 3
11 2 3
12 2 3
13 2 3
14 2 3
15 2 3
16 2 3
17 2 3
18 2 3
19 2 3
-19 3 3
-18 3 3
-17 3 3
-16 3 3
-15 3 3
-14 3 3
-13 3 3
-12 3 3
-11 3 3
-10 3 3
-9 3 3
-8 3 3
-7 3 3
-6 3 3
-5 3 3
-4 3 3
-3 3 3
-2 3 3
-1 3 3
0 3 3
1 3 3
2 3 3
3 3 3
4 3 3
5 3 3
6 3 3
7 3 3
8 3 3
9 3 3
10 3 3
11 3 3
12 3 3
13 3 3
14 3 3
15 3 3
16 3 3
17 3 3
18 3 3
19 3 3
-19 4 3
-18 4 3
-17 4 3
-16 4 3
-15 4 3
-14 4 3
-13 4 3
-12 4 3
-11 4 3
-10 4 3
-9 4 3
-8 4 3
-7 4 3
-6 4 3
-5 4 3
-4 4 3
-3 4 3
-2 4 3
-1 4 3
0 4 3
1 4 3
2 4 3
3 4 3
4 4 3
5 4 3
6 4 3
7 4 3
8 4 3
9 4 3
10 4 3
11 4 3
12 4 3
13 4 3
14 4 3
15 4 3
16 4 3
17 4 3
18 4 3
19 4 3
-18 5 3
-17 5 3
-16 5 3
-15 5 3
-14 5 3
-13 5 3
-12 5 3
-11 5 3
-10 5 3
-9 5 3
-8 5 3
-7 5 3
-6 5 3
-5 5 3
-4 5 3
-3 5 3
-2 5 3
-1 5 3
0 5 3
1 5 3
2 5 3
3 5 3
4 5 3
5 5 3
6 5 3
7 5 3
8 5 3
9 5 3
10 5 3
11 5 3
12 5 3
13 5 3
14 5 3
15 5 3
16 5 3
17 5 3
18 5 3
-18 6 3
-17 6 3
-16 6 3
-15 6 3
-14 6 3
-13 6 3
-12 6 3
-11 6 3
-10 6 3
-9 6 3
-8 6 3
-7 6 3
-6 6 3
-5 6 3
-4 6 3
-3 6 3
-2 6 3
-1 6 3
0 6 3
1 6 3
2 6 3
3 6 3
4 6 3
5 6 3
6 6 3
7 6 3
8 6 3
9 6 3
10 6 3
11 6 3
12 6 3
13 6 3
14 6 3
15 6 3
16 6 3
17 6 3
18 6 3
-18 7 3
-17 7 3
-16 7 3
-15 7 3
-14 7 3
-13 7 3
-12 7 3
-11 7 3
-10 7 3
-9 7 3
-8 7 3
-7 7 3
-6 7 3
-5 7 3
-4 7 3
-3 7 3
-2 7 3
-1 7 3
0 7 3
1 7 3
2 7 3
3 7 3
4 7 3
5 7 3
6 7 3
7 7 3
8 7 3
9 7 3
10 7 3
11 7 3
12 7 3
13 7 3
14 7 3
15 7 3
16 7 3
17 7 3
18 7 3
-18 8 3
-17 8 3
-16 8 3
-15 8 3
-14 8 3
-13 8 3
-12 8 3
-11 8 3
-10 8 3
-9 8 3
-8 8 3
-7 8 3
-6 8 3
-5 8 3
-4 8 3
-3 8 3
-2 8 3
-1 8 3
0 8 3
1 8 3
2 8 3
3 8 3
4 8 3
5 8 3
6 8 3
7 8 3
8 8 3
9 8 3
10 8 3
11 8 3
12 8 3
13 8 3
14 8 3
15 8 3
16 8 3
17 8 3
18 8 3
-17 9 3
-16 9 3
-15 9 3
-14 9 3
-13 9 3
-12 9 3
-11 9 3
-10 9 3
-9 9 3
-8 9 3
-7 9 3
-6 9 3
-5 9 3
-4 9 3
-3 9 3
-2 9 3
-1 9 3
0 9 3
1 9 3
2 9 3
3 9 3
4 9 3
5 9 3
6 9 3
7 9 3
8 9 3
9 9 3
10 9 3
11 9 3
12 9 3
13 9 3
14 9 3
15 9 3
16 9 3
17 9 3
-17 10 3
-16 10 3
-15 10 3
-14 10 3
-13 10 3
-12 10 3
-11 10 3
-10 10 3
-9 10 3
-8 10 3
-7 10 3
-6 10 3
-5 10 3
-4 10 3
-3 10 3
-2 10 3
-1 10 3
0 10 3
1 10 3
2 10 3
3 10 3
4 10 3
5 10 3
6 10 3
7 10 3
8 10 3
9 10 3
10 10 3
11 10 3
12 10 3
13 10 3
14 10 3
15 10 3
16 10 3
17 10 3
-17 11 3
-16 11 3
-15 11 3
-14 11 3
-13 11 3
-12 11 3
-11 11 3
-10 11 3
-9 11 3
-8 11 3
-7 11 3
-6 11 3
-5 11 3
-4 11 3
-3 11 3
-2 11 3
-1 11 3
0 11 3
1 11 3
2 11 3
3 11 3
4 11 3
5 11 3
6 11 3
7 11 3
8 11 3
9 11 3
10 11 3
11 11 3
12 11 3
13 11 3
14 11 3
15 11 3
16 11 3
17 11 3
-16 12 3
-15 12 3
-14 12 3
-13 12 3
-12 12 3
-11 12 3
-10 12 3
-9 12 3
-8 12 3
-7 12 3
-6 12 3
-5 12 3
-4 12 3
-3 12 3
-2 12 3
-1 12 3
0 12 3
1 12 3
2 12 3
3 12 3
4 12 3
5 12 3
6 12 3
7 12 3
8 12 3
9 12 3
10 12 3
11 12 3
12 12 3
13 12 3
14 12 3
15 12 3
16 12 3
-15 13 3
-14 13 3
-13 13 3
-12 13 3
-11 13 3
-10 13 3
-9 13 3
-8 13 3
-7 13 3
-6 13 3
-5 13 3
-4 13 3
-3 13 3
-2 13 3
-1 13 3
0 13 3
1 13 3
2 13 3
3 13 3
4 13 3
5 13 3
6 13 3
7 13 3
8 13 3
9 13 3
10 13 3
11 13 3
12 13 3
13 13 3
14 13 3
15 13 3
-15 14 3
-14 14 3
-13 14 3
-12 14 3
-11 14 3
-10 14 3
-9 14 3
-8 14 3
-7 14 3
-6 14 3
-5 14 3
-4 14 3
-3 14 3
-2 14 3
-1 14 3
0 14 3
1 14 3
2 14 3
3 14 3
4 14 3
5 14 3
6 14 3
7 14 3
8 14 3
9 14 3
10 14 3
11 14 3
12 14 3
13 14 3
14 14 3
15 14 3
-14 15 3
-13 15 3
-12 15 3
-11 15 3
-10 15 3
-9 15 3
-8 15 3
-7 15 3
-6 15 3
-5 15 3
-4 15 3
-3 15 3
-2 15 3
-1 15 3
0 15 3
1 15 3
2 15 3
3 15 3
4 15 3
5 15 3
6 15 3
7 15 3
8 15 3
9 15 3
10 15 3
11 15 3
12 15 3
13 15 3
14 15 3
-13 16 3
-12 16 3
-11 16 3
-10 16 3
-9 16 3
-8 16 3
-7 16 3
-6 16 3
-5 16 3
-4 16 3
-3 16 3
-2 16 3
-1 16 3
0 16 3
1 16 3
2 16 3
3 16 3
4 16 3
5 16 3
6 16 3
7 16 3
8 16 3
9 16 3
10 16 3
11 16 3
12 16 3
13 16 3
-12 17 3
-11 17 3
-10 17 3
-9 17 3
-8 17 3
-7 17 3
-6 17 3
-5 17 3
-4 17 3
-3 17 3
-2 17 3
-1 17 3
2 17 3
3 17 3
4 17 3
5 17 3
6 17 3
7 17 3
8 17 3
9 17 3
10 17 3
11 17 3
12 17 3
-11 18 3
-10 18 3
-9 18 3
-8 18 3
-7 18 3
-6 18 3
-5 18 3
-4 18 3
-3 18 3
-2 18 3
3 18 3
4 18 3
5 18 3
6 18 3
7 18 3
8 18 3
9 18 3
10 18 3
11 18 3
-10 19 3
-9 19 3
-8 19 3
-7 19 3
-6 19 3
-5 19 3
-4 19 3
-3 19 3
5 19 3
6 19 3
7 19 3
8 19 3
9 19 3
10 19 3
-9 20 3
-8 20 3
-7 20 3
-6 20 3
-5 20 3
-4 20 3
6 20 3
7 20 3
8 20 3
9 20 3
-7 21 3
-6 21 3
-5 21 3
7 21 3
-18 0 4
-16 0 4
-14 0 4
-12 0 4
-10 0 4
-8 0 4
-6 0 4
-4 0 4
-2 0 4
0 0 4
2 0 4
4 0 4
6 0 4
8 0 4
10 0 4
12 0 4
14 0 4
16 0 4
18 0 4
-18 1 4
-17 1 4
-16 1 4
-15 1 4
-14 1 4
-13 1 4
-12 1 4
-11 1 4
-10 1 4
-9 1 4
-8 1 4
-7 1 4
-6 1 4
-5 1 4
-4 1 4
-3 1 4
-2 1 4
-1 1 4
0 1 4
1 1 4
2 1 4
3 1 4
4 1 4
5 1 4
6 1 4
7 1 4
8 1 4
9 1 4
10 1 4
11 1 4
12 1 4
13 1 4
14 1 4
15 1 4
16 1 4
17 1 4
18 1 4
-18 2 4
-17 2 4
-16 2 4
-15 2 4
-14 2 4
-13 2 4
-12 2 4
-11 2 4
-10 2 4
-9 2 4
-8 2 4
-7 2 4
-6 2 4
-5 2 4
-4 2 4
-3 2 4
-2 2 4
-1 2 4
0 2 4
1 2 4
2 2 4
3 2 4
4 2 4
5 2 4
6 2 4
7 2 4
8 2 4
9 2 4
10 2 4
11 2 4
12 2 4
13 2 4
14 2 4
15 2 4
16 2 4
17 2 4
18 2 4
-18 3 4
-17 3 4
-16 3 4
-15 3 4
-14 3 4
-13 3 4
-12 3 4
-11 3 4
-10 3 4
-9 3 4
-8 3 4
-7 3 4
-6 3 4
-5 3 4
-4 3 4
-3 3 4
-2 3 4
-1 3 4
0 3 4
1 3 4
2 3 4
3 3 4
4 3 4
5 3 4
6 3 4
7 3 4
8 3 4
9 3 4
10 3 4
11 3 4
12 3 4
13 3 4
14 3 4
15 3 4
16 3 4
17 3 4
18 3 4
-18 4 4
-17 4 4
-16 4 4
-15 4 4
-14 4 4
-13 4 4
-12 4 4
-11 4 4
-10 4 4
-9 4 4
-8 4 4
-7 4 4
-6 4 4
-5 4 4
-4 4 4
-3 4 4
-2 4 4
-1 4 4
0 4 4
1 4 4
2 4 4
3 4 4
4 4 4
5 4 4
6 4 4
7 4 4
8 4 4
9 4 4
10 4 4
11 4 4
12 4 4
13 4 4
14 4 4
15 4 4
16 4 4
17 4 4
18 4 4
-18 5 4
-17 5 4
-16 5 4
-15 5 4
-14 5 4
-13 5 4
-12 5 4
-11 5 4
-10 5 4
-9 5 4
-8 5 4
-7 5 4
-6 5 4
-5 5 4
-4 5 4
-3 5 4
-2 5 4
-1 5 4
0 5 4
1 5 4
2 5 4
3 5 4
4 5 4
5 5 4
6 5 4
7 5 4
8 5 4
9 5 4
10 5 4
11 5 4
12 5 4
13 5 4
14 5 4
15 5 4
16 5 4
17 5 4
18 5 4
-18 6 4
-17 6 4
-16 6 4
-15 6 4
-14 6 4
-13 6 4
-12 6 4
-11 6 4
-10 6 4
-9 6 4
-8 6 4
-7 6 4
-6 6 4
-5 6 4
-4 6 4
-3 6 4
-2 6 4
-1 6 4
0 6 4
1 6 4
2 6 4
3 6 4
4 6 4
5 6 4
6 6 4
7 6 4
8 6 4
9 6 4
10 6 4
11 6 4
12 6 4
13 6 4
14 6 4
15 6 4
16 6 4
17 6 4
18 6 4
-18 7 4
-17 7 4
-16 7 4
-15 7 4
-14 7 4
-13 7 4
-12 7 4
-11 7 4
-10 7 4
-9 7 4
-8 7 4
-7 7 4
-6 7 4
-5 7 4
-4 7 4
-3 7 4
-2 7 4
-1 7 4
0 7 4
1 7 4
2 7 4
3 7 4
4 7 4
5 7 4
6 7 4
7 7 4
8 7 4
9 7 4
10 7 4
11 7 4
12 7 4
13 7 4
14 7 4
15 7 4
16 7 4
17 7 4
18 7 4
-17 8 4
-16 8 4
-15 8 4
-14 8 4
-13 8 4
-12 8 4
-11 8 4
-10 8 4
-9 8 4
-8 8 4
-7 8 4
-6 8 4
-5 8 4
-4 8 4
-3 8 4
-2 8 4
-1 8 4
0 8 4
1 8 4
2 8 4
3 8 4
4 8 4
5 8 4
6 8 4
7 8 4
8 8 4
9 8 4
10 8 4
11 8 4
12 8 4
13 8 4
14 8 4
15 8 4
16 8 4
17 8 4
-17 9 4
-16 9 4
-15 9 4
-14 9 4
-13 9 4
-12 9 4
-11 9 4
-10 9 4
-9 9 4
-8 9 4
-7 9 4
-6 9 4
-5 9 4
-4 9 4
-3 9 4
-2 9 4
-1 9 4
0 9 4
1 9 4
2 9 4
3 9 4
4 9 4
5 9 4
6 9 4
7 9 4
8 9 4
9 9 4
10 9 4
11 9 4
12 9 4
13 9 4
14 9 4
15 9 4
16 9 4
17 9 4
-16 10 4
-15 10 4
-14 10 4
-13 10 4
-12 10 4
-11 10 4
-10 10 4
-9 10 4
-8 10 4
-7 10 4
-6 10 4
-5 10 4
-4 10 4
-3 10 4
-2 10 4
-1 10 4
0 10 4
1 10 4
2 10 4
3 10 4
4 10 4
5 10 4
6 10 4
7 10 4
8 10 4
9 10 4
10 10 4
11 10 4
12 10 4
13 10 4
14 10 4
15 10 4
16 10 4
-16 11 4
-15 11 4
-14 11 4
-13 11 4
-12 11 4
-11 11 4
-10 11 4
-9 11 4
-8 11 4
-7 11 4
-6 11 4
-5 11 4
-4 11 4
-3 11 4
-2 11 4
-1 11 4
0 11 4
1 11 4
2 11 4
3 11 4
4 11 4
5 11 4
6 11 4
7 11 4
8 11 4
9 11 4
10 11 4
11 11 4
12 11 4
13 11 4
14 11 4
15 11 4
16 11 4
-15 12 4
-14 12 4
-13 12 4
-12 12 4
-11 12 4
-10 12 4
-9 12 4
-8 12 4
-7 12 4
-6 12 4
-5 12 4
-4 12 4
-3 12 4
-2 12 4
-1 12 4
0 12 4
1 12 4
2 12 4
3 12 4
4 12 4
5 12 4
6 12 4
7 12 4
8 12 4
9 12 4
10 12 4
11 12 4
12 12 4
13 12 4
14 12 4
15 12 4
-15 13 4
-14 13 4
-13 13 4
-12 13 4
-11 13 4
-10 13 4
-9 13 4
-8 13 4
-7 13 4
-6 13 4
-5 13 4
-4 13 4
-3 13 4
-2 13 4
-1 13 4
0 13 4
1 13 4
2 13 4
3 13 4
4 13 4
5 13 4
6 13 4
7 13 4
8 13 4
9 13 4
10 13 4
11 13 4
12 13 4
13 13 4
14 13 4
15 13 4
-14 14 4
-13 14 4
-12 14 4
-11 14 4
-10 14 4
-9 14 4
-8 14 4
-7 14 4
-6 14 4
-5 14 4
-4 14 4
-3 14 4
-2 14 4
-1 14 4
0 14 4
1 14 4
2 14 4
3 14 4
4 14 4
5 14 4
6 14 4
7 14 4
8 14 4
9 14 4
10 14 4
11 14 4
12 14 4
13 14 4
14 14 4
-14 15 4
-13 15 4
-12 15 4
-11 15 4
-10 15 4
-9 15 4
-8 15 4
-7 15 4
-6 15 4
-5 15 4
-4 15 4
-3 15 4
-2 15 4
-1 15 4
0 15 4
1 15 4
2 15 4
3 15 4
4 15 4
5 15 4
6 15 4
7 15 4
8 15 4
9 15 4
10 15 4
11 15 4
12 15 4
13 15 4
14 15 4
-13 16 4
-12 16 4
-11 16 4
-10 16 4
-9 16 4
-8 16 4
-7 16 4
-6 16 4
-5 16 4
-4 16 4
-3 16 4
-2 16 4
-1 16 4
0 16 4
1 16 4
2 16 4
3 16 4
4 16 4
5 16 4
6 16 4
7 16 4
8 16 4
9 16 4
10 16 4
11 16 4
12 16 4
13 16 4
-12 17 4
-11 17 4
-10 17 4
-9 17 4
-8 17 4
-7 17 4
-6 17 4
-5 17 4
-4 17 4
-3 17 4
-2 17 4
-1 17 4
0 17 4
1 17 4
2 17 4
3 17 4
4 17 4
5 17 4
6 17 4
7 17 4
8 17 4
9 17 4
10 17 4
11 17 4
12 17 4
-11 18 4
-10 18 4
-9 18 4
-8 18 4
-7 18 4
-6 18 4
-5 18 4
-4 18 4
-3 18 4
-2 18 4
-1 18 4
0 18 4
1 18 4
2 18 4
3 18 4
4 18 4
5 18 4
6 18 4
7 18 4
8 18 4
9 18 4
10 18 4
11 18 4
-9 19 4
-8 19 4
-7 19 4
-6 19 4
-5 19 4
-4 19 4
-3 19 4
-2 19 4
-1 19 4
4 19 4
5 19 4
6 19 4
7 19 4
8 19 4
9 19 4
-8 20 4
-7 20 4
-6 20 4
-5 20 4
-4 20 4
-3 20 4
5 20 4
6 20 4
7 20 4
8 20 4
-5 21 4
-4 21 4
-17 0 5
-15 0 5
-13 0 5
-11 0 5
-9 0 5
-7 0 5
-5 0 5
-3 0 5
-1 0 5
1 0 5
3 0 5
5 0 5
7 0 5
9 0 5
11 0 5
13 0 5
15 0 5
17 0 5
-18 1 5
-17 1 5
-16 1 5
-15 1 5
-14 1 5
-13 1 5
-12 1 5
-11 1 5
-10 1 5
-9 1 5
-8 1 5
-7 1 5
-6 1 5
-5 1 5
-4 1 5
-3 1 5
-2 1 5
-1 1 5
0 1 5
1 1 5
2 1 5
3 1 5
4 1 5
5 1 5
6 1 5
7 1 5
8 1 5
9 1 5
10 1 5
11 1 5
12 1 5
13 1 5
14 1 5
15 1 5
16 1 5
17 1 5
18 1 5
-18 2 5
-17 2 5
-16 2 5
-15 2 5
-14 2 5
-13 2 5
-12 2 5
-11 2 5
-10 2 5
-9 2 5
-8 2 5
-7 2 5
-6 2 5
-5 2 5
-4 2 5
-3 2 5
-2 2 5
-1 2 5
0 2 5
1 2 5
2 2 5
3 2 5
4 2 5
5 2 5
6 2 5
7 2 5
8 2 5
9 2 5
10 2 5
11 2 5
12 2 5
13 2 5
14 2 5
15 2 5
16 2 5
17 2 5
18 2 5
-18 3 5
-17 3 5
-16 3 5
-15 3 5
-14 3 5
-13 3 5
-12 3 5
-11 3 5
-10 3 5
-9 3 5
-8 3 5
-7 3 5
-6 3 5
-5 3 5
-4 3 5
-3 3 5
-2 3 5
-1 3 5
0 3 5
1 3 5
2 3 5
3 3 5
4 3 5
5 3 5
6 3 5
7 3 5
8 3 5
9 3 5
10 3 5
11 3 5
12 3 5
13 3 5
14 3 5
15 3 5
16 3 5
17 3 5
18 3 5
-18 4 5
-17 4 5
-16 4 5
-15 4 5
-14 4 5
-13 4 5
-12 4 5
-11 4 5
-10 4 5
-9 4 5
-8 4 5
-7 4 5
-6 4 5
-5 4 5
-4 4 5
-3 4 5
-2 4 5
-1 4 5
0 4 5
1 4 5
2 4 5
3 4 5
4 4 5
5 4 5
6 4 5
7 4 5
8 4 5
9 4 5
10 4 5
11 4 5
12 4 5
13 4 5
14 4 5
15 4 5
16 4 5
17 4 5
18 4 5
-17 5 5
-16 5 5
-15 5 5
-14 5 5
-13 5 5
-12 5 5
-11 5 5
-10 5 5
-9 5 5
-8 5 5
-7 5 5
-6 5 5
-5 5 5
-4 5 5
-3 5 5
-2 5 5
-1 5 5
0 5 5
1 5 5
2 5 5
3 5 5
4 5 5
5 5 5
6 5 5
7 5 5
8 5 5
9 5 5
10 5 5
11 5 5
12 5 5
13 5 5
14 5 5
15 5 5
16 5 5
17 5 5
-17 6 5
-16 6 5
-15 6 5
-14 6 5
-13 6 5
-12 6 5
-11 6 5
-10 6 5
-9 6 5
-8 6 5
-7 6 5
-6 6 5
-5 6 5
-4 6 5
-3 6 5
-2 6 5
-1 6 5
0 6 5
1 6 5
2 6 5
3 6 5
4 6 5
5 6 5
6 6 5
7 6 5
8 6 5
9 6 5
10 6 5
11 6 5
12 6 5
13 6 5
14 6 5
15 6 5
16 6 5
17 6 5
-17 7 5
-16 7 5
-15 7 5
-14 7 5
-13 7 5
-12 7 5
-11 7 5
-10 7 5
-9 7 5
-8 7 5
-7 7 5
-6 7 5
-5 7 5
-4 7 5
-3 7 5
-2 7 5
-1 7 5
0 7 5
1 7 5
2 7 5
3 7 5
4 7 5
5 7 5
6 7 5
7 7 5
8 7 5
9 7 5
10 7 5
11 7 5
12 7 5
13 7 5
14 7 5
15 7 5
16 7 5
17 7 5
-17 8 5
-16 8 5
-15 8 5
-14 8 5
-13 8 5
-12 8 5
-11 8 5
-10 8 5
-9 8 5
-8 8 5
-7 8 5
-6 8 5
-5 8 5
-4 8 5
-3 8 5
-2 8 5
-1 8 5
0 8 5
1 8 5
2 8 5
3 8 5
4 8 5
5 8 5
6 8 5
7 8 5
8 8 5
9 8 5
10 8 5
11 8 5
12 8 5
13 8 5
14 8 5
15 8 5
16 8 5
17 8 5
-16 9 5
-15 9 5
-14 9 5
-13 9 5
-12 9 5
-11 9 5
-10 9 5
-9 9 5
-8 9 5
-7 9 5
-6 9 5
-5 9 5
-4 9 5
-3 9 5
-2 9 5
-1 9 5
0 9 5
1 9 5
2 9 5
3 9 5
4 9 5
5 9 5
6 9 5
7 9 5
8 9 5
9 9 5
10 9 5
11 9 5
12 9 5
13 9 5
14 9 5
15 9 5
16 9 5
-16 10 5
-15 10 5
-14 10 5
-13 10 5
-12 10 5
-11 10 5
-10 10 5
-9 10 5
-8 10 5
-7 10 5
-6 10 5
-5 10 5
-4 10 5
-3 10 5
-2 10 5
-1 10 5
0 10 5
1 10 5
2 10 5
3 10 5
4 10 5
5 10 5
6 10 5
7 10 5
8 10 5
9 10 5
10 10 5
11 10 5
12 10 5
13 10 5
14 10 5
15 10 5
16 10 5
-15 11 5
-14 11 5
-13 11 5
-12 11 5
-11 11 5
-10 11 5
-9 11 5
-8 11 5
-7 11 5
-6 11 5
-5 11 5
-4 11 5
-3 11 5
-2 11 5
-1 11 5
0 11 5
1 11 5
2 11 5
3 11 5
4 11 5
5 11 5
6 11 5
7 11 5
8 11 5
9 11 5
10 11 5
11 11 5
12 11 5
13 11 5
14 11 5
15 11 5
-15 12 5
-14 12 5
-13 12 5
-12 12 5
-11 12 5
-10 12 5
-9 12 5
-8 12 5
-7 12 5
-6 12 5
-5 12 5
-4 12 5
-3 12 5
-2 12 5
-1 12 5
0 12 5
1 12 5
2 12 5
3 12 5
4 12 5
5 12 5
6 12 5
7 12 5
8 12 5
9 12 5
10 12 5
11 12 5
12 12 5
13 12 5
14 12 5
15 12 5
-14 13 5
-13 13 5
-12 13 5
-11 13 5
-10 13 5
-9 13 5
-8 13 5
-7 13 5
-6 13 5
-5 13 5
-4 13 5
-3 13 5
-2 13 5
-1 13 5
0 13 5
1 13 5
2 13 5
3 13 5
4 13 5
5 13 5
6 13 5
7 13 5
8 13 5
9 13 5
10 13 5
11 13 5
12 13 5
13 13 5
14 13 5
-13 14 5
-12 14 5
-11 14 5
-10 14 5
-9 14 5
-8 14 5
-7 14 5
-6 14 5
-5 14 5
-4 14 5
-3 14 5
-2 14 5
-1 14 5
0 14 5
1 14 5
2 14 5
3 14 5
4 14 5
5 14 5
6 14 5
7 14 5
8 14 5
9 14 5
10 14 5
11 14 5
12 14 5
13 14 5
14 14 5
-13 15 5
-12 15 5
-11 15 5
-10 15 5
-9 15 5
-8 15 5
-7 15 5
-6 15 5
-5 15 5
-4 15 5
-3 15 5
-2 15 5
-1 15 5
0 15 5
1 15 5
2 15 5
3 15 5
4 15 5
5 15 5
6 15 5
7 15 5
8 15 5
9 15 5
10 15 5
11 15 5
12 15 5
13 15 5
-12 16 5
-11 16 5
-10 16 5
-9 16 5
-8 16 5
-7 16 5
-6 16 5
-5 16 5
-4 16 5
-3 16 5
-2 16 5
-1 16 5
0 16 5
1 16 5
2 16 5
3 16 5
4 16 5
5 16 5
6 16 5
7 16 5
8 16 5
9 16 5
10 16 5
11 16 5
12 16 5
-11 17 5
-10 17 5
-9 17 5
-8 17 5
-7 17 5
-6 17 5
-5 17 5
-4 17 5
-3 17 5
-2 17 5
-1 17 5
0 17 5
1 17 5
2 17 5
3 17 5
4 17 5
5 17 5
6 17 5
7 17 5
8 17 5
9 17 5
10 17 5
11 17 5
-10 18 5
-9 18 5
-8 18 5
-7 18 5
-6 18 5
-5 18 5
-4 18 5
-3 18 5
-2 18 5
-1 18 5
0 18 5
1 18 5
2 18 5
3 18 5
4 18 5
5 18 5
6 18 5
7 18 5
8 18 5
9 18 5
10 18 5
-8 19 5
-7 19 5
-6 19 5
-5 19 5
-4 19 5
-3 19 5
-2 19 5
-1 19 5
0 19 5
1 19 5
2 19 5
3 19 5
4 19 5
5 19 5
6 19 5
7 19 5
8 19 5
-6 20 5
-5 20 5
-4 20 5
-3 20 5
-2 20 5
-1 20 5
0 20 5
4 20 5
5 20 5
6 20 5
-3 21 5
-2 21 5
-16 0 6
-14 0 6
-12 0 6
-10 0 6
-8 0 6
-6 0 6
-4 0 6
-2 0 6
0 0 6
2 0 6
4 0 6
6 0 6
8 0 6
10 0 6
12 0 6
14 0 6
16 0 6
-17 1 6
-16 1 6
-15 1 6
-14 1 6
-13 1 6
-12 1 6
-11 1 6
-10 1 6
-9 1 6
-8 1 6
-7 1 6
-6 1 6
-5 1 6
-4 1 6
-3 1 6
-2 1 6
-1 1 6
0 1 6
1 1 6
2 1 6
3 1 6
4 1 6
5 1 6
6 1 6
7 1 6
8 1 6
9 1 6
10 1 6
11 1 6
12 1 6
13 1 6
14 1 6
15 1 6
16 1 6
17 1 6
-17 2 6
-16 2 6
-15 2 6
-14 2 6
-13 2 6
-12 2 6
-11 2 6
-10 2 6
-9 2 6
-8 2 6
-7 2 6
-6 2 6
-5 2 6
-4 2 6
-3 2 6
-2 2 6
-1 2 6
0 2 6
1 2 6
2 2 6
3 2 6
4 2 6
5 2 6
6 2 6
7 2 6
8 2 6
9 2 6
10 2 6
11 2 6
12 2 6
13 2 6
14 2 6
15 2 6
16 2 6
17 2 6
-17 3 6
-16 3 6
-15 3 6
-14 3 6
-13 3 6
-12 3 6
-11 3 6
-10 3 6
-9 3 6
-8 3 6
-7 3 6
-6 3 6
-5 3 6
-4 3 6
-3 3 6
-2 3 6
-1 3 6
0 3 6
1 3 6
2 3 6
3 3 6
4 3 6
5 3 6
6 3 6
7 3 6
8 3 6
9 3 6
10 3 6
11 3 6
12 3 6
13 3 6
14 3 6
15 3 6
16 3 6
17 3 6
-17 4 6
-16 4 6
-15 4 6
-14 4 6
-13 4 6
-12 4 6
-11 4 6
-10 4 6
-9 4 6
-8 4 6
-7 4 6
-6 4 6
-5 4 6
-4 4 6
-3 4 6
-2 4 6
-1 4 6
0 4 6
1 4 6
2 4 6
3 4 6
4 4 6
5 4 6
6 4 6
7 4 6
8 4 6
9 4 6
10 4 6
11 4 6
12 4 6
13 4 6
14 4 6
15 4 6
16 4 6
17 4 6
-17 5 6
-16 5 6
-15 5 6
-14 5 6
-13 5 6
-12 5 6
-11 5 6
-10 5 6
-9 5 6
-8 5 6
-7 5 6
-6 5 6
-5 5 6
-4 5 6
-3 5 6
-2 5 6
-1 5 6
0 5 6
1 5 6
2 5 6
3 5 6
4 5 6
5 5 6
6 5 6
7 5 6
8 5 6
9 5 6
10 5 6
11 5 6
12 5 6
13 5 6
14 5 6
15 5 6
16 5 6
17 5 6
-16 6 6
-15 6 6
-14 6 6
-13 6 6
-12 6 6
-11 6 6
-10 6 6
-9 6 6
-8 6 6
-7 6 6
-6 6 6
-5 6 6
-4 6 6
-3 6 6
-2 6 6
-1 6 6
0 6 6
1 6 6
2 6 6
3 6 6
4 6 6
5 6 6
6 6 6
7 6 6
8 6 6
9 6 6
10 6 6
11 6 6
12 6 6
13 6 6
14 6 6
15 6 6
16 6 6
-16 7 6
-15 7 6
-14 7 6
-13 7 6
-12 7 6
-11 7 6
-10 7 6
-9 7 6
-8 7 6
-7 7 6
-6 7 6
-5 7 6
-4 7 6
-3 7 6
-2 7 6
-1 7 6
0 7 6
1 7 6
2 7 6
3 7 6
4 7 6
5 7 6
6 7 6
7 7 6
8 7 6
9 7 6
10 7 6
11 7 6
12 7 6
13 7 6
14 7 6
15 7 6
16 7 6
-16 8 6
-15 8 6
-14 8 6
-13 8 6
-12 8 6
-11 8 6
-10 8 6
-9 8 6
-8 8 6
-7 8 6
-6 8 6
-5 8 6
-4 8 6
-3 8 6
-2 8 6
-1 8 6
0 8 6
1 8 6
2 8 6
3 8 6
4 8 6
5 8 6
6 8 6
7 8 6
8 8 6
9 8 6
10 8 6
11 8 6
12 8 6
13 8 6
14 8 6
15 8 6
16 8 6
-15 9 6
-14 9 6
-13 9 6
-12 9 6
-11 9 6
-10 9 6
-9 9 6
-8 9 6
-7 9 6
-6 9 6
-5 9 6
-4 9 6
-3 9 6
-2 9 6
-1 9 6
0 9 6
1 9 6
2 9 6
3 9 6
4 9 6
5 9 6
6 9 6
7 9 6
8 9 6
9 9 6
10 9 6
11 9 6
12 9 6
13 9 6
14 9 6
15 9 6
-15 10 6
-14 10 6
-13 10 6
-12 10 6
-11 10 6
-10 10 6
-9 10 6
-8 10 6
-7 10 6
-6 10 6
-5 10 6
-4 10 6
-3 10 6
-2 10 6
-1 10 6
0 10 6
1 10 6
2 10 6
3 10 6
4 10 6
5 10 6
6 10 6
7 10 6
8 10 6
9 10 6
10 10 6
11 10 6
12 10 6
13 10 6
14 10 6
15 10 6
-14 11 6
-13 11 6
-12 11 6
-11 11 6
-10 11 6
-9 11 6
-8 11 6
-7 11 6
-6 11 6
-5 11 6
-4 11 6
-3 11 6
-2 11 6
-1 11 6
0 11 6
1 11 6
2 11 6
3 11 6
4 11 6
5 11 6
6 11 6
7 11 6
8 11 6
9 11 6
10 11 6
11 11 6
12 11 6
13 11 6
14 11 6
-14 12 6
-13 12 6
-12 12 6
-11 12 6
-10 12 6
-9 12 6
-8 12 6
-7 12 6
-6 12 6
-5 12 6
-4 12 6
-3 12 6
-2 12 6
-1 12 6
0 12 6
1 12 6
2 12 6
3 12 6
4 12 6
5 12 6
6 12 6
7 12 6
8 12 6
9 12 6
10 12 6
11 12 6
12 12 6
13 12 6
14 12 6
-13 13 6
-12 13 6
-11 13 6
-10 13 6
-9 13 6
-8 13 6
-7 13 6
-6 13 6
-5 13 6
-4 13 6
-3 13 6
-2 13 6
-1 13 6
0 13 6
1 13 6
2 13 6
3 13 6
4 13 6
5 13 6
6 13 6
7 13 6
8 13 6
9 13 6
10 13 6
11 13 6
12 13 6
13 13 6
-12 14 6
-11 14 6
-10 14 6
-9 14 6
-8 14 6
-7 14 6
-6 14 6
-5 14 6
-4 14 6
-3 14 6
-2 14 6
-1 14 6
0 14 6
1 14 6
2 14 6
3 14 6
4 14 6
5 14 6
6 14 6
7 14 6
8 14 6
9 14 6
10 14 6
11 14 6
12 14 6
13 14 6
-12 15 6
-11 15 6
-10 15 6
-9 15 6
-8 15 6
-7 15 6
-6 15 6
-5 15 6
-4 15 6
-3 15 6
-2 15 6
-1 15 6
0 15 6
1 15 6
2 15 6
3 15 6
4 15 6
5 15 6
6 15 6
7 15 6
8 15 6
9 15 6
10 15 6
11 15 6
12 15 6
-11 16 6
-10 16 6
-9 16 6
-8 16 6
-7 16 6
-6 16 6
-5 16 6
-4 16 6
-3 16 6
-2 16 6
-1 16 6
0 16 6
1 16 6
2 16 6
3 16 6
4 16 6
5 16 6
6 16 6
7 16 6
8 16 6
9 16 6
10 16 6
11 16 6
-10 17 6
-9 17 6
-8 17 6
-7 17 6
-6 17 6
-5 17 6
-4 17 6
-3 17 6
-2 17 6
-1 17 6
0 17 6
1 17 6
2 17 6
3 17 6
4 17 6
5 17 6
6 17 6
7 17 6
8 17 6
9 17 6
10 17 6
-8 18 6
-7 18 6
-6 18 6
-5 18 6
-4 18 6
-3 18 6
-2 18 6
-1 18 6
0 18 6
1 18 6
2 18 6
3 18 6
4 18 6
5 18 6
6 18 6
7 18 6
8 18 6
-6 19 6
-5 19 6
-4 19 6
-3 19 6
-2 19 6
-1 19 6
0 19 6
1 19 6
2 19 6
3 19 6
4 19 6
5 19 6
6 19 6
-4 20 6
-3 20 6
-2 20 6
-1 20 6
0 20 6
1 20 6
2 20 6
3 20 6
-15 0 7
-13 0 7
-11 0 7
-9 0 7
-7 0 7
-5 0 7
-3 0 7
-1 0 7
1 0 7
3 0 7
5 0 7
7 0 7
9 0 7
11 0 7
13 0 7
15 0 7
-16 1 7
-15 1 7
-14 1 7
-13 1 7
-12 1 7
-11 1 7
-10 1 7
-9 1 7
-8 1 7
-7 1 7
-6 1 7
-5 1 7
-4 1 7
-3 1 7
-2 1 7
-1 1 7
0 1 7
1 1 7
2 1 7
3 1 7
4 1 7
5 1 7
6 1 7
7 1 7
8 1 7
9 1 7
10 1 7
11 1 7
12 1 7
13 1 7
14 1 7
15 1 7
16 1 7
-16 2 7
-15 2 7
-14 2 7
-13 2 7
-12 2 7
-11 2 7
-10 2 7
-9 2 7
-8 2 7
-7 2 7
-6 2 7
-5 2 7
-4 2 7
-3 2 7
-2 2 7
-1 2 7
0 2 7
1 2 7
2 2 7
3 2 7
4 2 7
5 2 7
6 2 7
7 2 7
8 2 7
9 2 7
10 2 7
11 2 7
12 2 7
13 2 7
14 2 7
15 2 7
16 2 7
-16 3 7
-15 3 7
-14 3 7
-13 3 7
-12 3 7
-11 3 7
-10 3 7
-9 3 7
-8 3 7
-7 3 7
-6 3 7
-5 3 7
-4 3 7
-3 3 7
-2 3 7
-1 3 7
0 3 7
1 3 7
2 3 7
3 3 7
4 3 7
5 3 7
6 3 7
7 3 7
8 3 7
9 3 7
10 3 7
11 3 7
12 3 7
13 3 7
14 3 7
15 3 7
16 3 7
-16 4 7
-15 4 7
-14 4 7
-13 4 7
-12 4 7
-11 4 7
-10 4 7
-9 4 7
-8 4 7
-7 4 7
-6 4 7
-5 4 7
-4 4 7
-3 4 7
-2 4 7
-1 4 7
0 4 7
1 4 7
2 4 7
3 4 7
4 4 7
5 4 7
6 4 7
7 4 7
8 4 7
9 4 7
10 4 7
11 4 7
12 4 7
13 4 7
14 4 7
15 4 7
16 4 7
-16 5 7
-15 5 7
-14 5 7
-13 5 7
-12 5 7
-11 5 7
-10 5 7
-9 5 7
-8 5 7
-7 5 7
-6 5 7
-5 5 7
-4 5 7
-3 5 7
-2 5 7
-1 5 7
0 5 7
1 5 7
2 5 7
3 5 7
4 5 7
5 5 7
6 5 7
7 5 7
8 5 7
9 5 7
10 5 7
11 5 7
12 5 7
13 5 7
14 5 7
15 5 7
16 5 7
-15 6 7
-14 6 7
-13 6 7
-12 6 7
-11 6 7
-10 6 7
-9 6 7
-8 6 7
-7 6 7
-6 6 7
-5 6 7
-4 6 7
-3 6 7
-2 6 7
-1 6 7
0 6 7
1 6 7
2 6 7
3 6 7
4 6 7
5 6 7
6 6 7
7 6 7
8 6 7
9 6 7
10 6 7
11 6 7
12 6 7
13 6 7
14 6 7
15 6 7
-15 7 7
-14 7 7
-13 7 7
-12 7 7
-11 7 7
-10 7 7
-9 7 7
-8 7 7
-7 7 7
-6 7 7
-5 7 7
-4 7 7
-3 7 7
-2 7 7
-1 7 7
0 7 7
1 7 7
2 7 7
3 7 7
4 7 7
5 7 7
6 7 7
7 7 7
8 7 7
9 7 7
10 7 7
11 7 7
12 7 7
13 7 7
14 7 7
15 7 7
-15 8 7
-14 8 7
-13 8 7
-12 8 7
-11 8 7
-10 8 7
-9 8 7
-8 8 7
-7 8 7
-6 8 7
-5 8 7
-4 8 7
-3 8 7
-2 8 7
-1 8 7
0 8 7
1 8 7
2 8 7
3 8 7
4 8 7
5 8 7
6 8 7
7 8 7
8 8 7
9 8 7
10 8 7
11 8 7
12 8 7
13 8 7
14 8 7
15 8 7
-14 9 7
-13 9 7
-12 9 7
-11 9 7
-10 9 7
-9 9 7
-8 9 7
-7 9 7
-6 9 7
-5 9 7
-4 9 7
-3 9 7
-2 9 7
-1 9 7
0 9 7
1 9 7
2 9 7
3 9 7
4 9 7
5 9 7
6 9 7
7 9 7
8 9 7
9 9 7
10 9 7
11 9 7
12 9 7
13 9 7
14 9 7
-14 10 7
-13 10 7
-12 10 7
-11 10 7
-10 10 7
-9 10 7
-8 10 7
-7 10 7
-6 10 7
-5 10 7
-4 10 7
-3 10 7
-2 10 7
-1 10 7
0 10 7
1 10 7
2 10 7
3 10 7
4 10 7
5 10 7
6 10 7
7 10 7
8 10 7
9 10 7
10 10 7
11 10 7
12 10 7
13 10 7
14 10 7
-13 11 7
-12 11 7
-11 11 7
-10 11 7
-9 11 7
-8 11 7
-7 11 7
-6 11 7
-5 11 7
-4 11 7
-3 11 7
-2 11 7
-1 11 7
0 11 7
1 11 7
2 11 7
3 11 7
4 11 7
5 11 7
6 11 7
7 11 7
8 11 7
9 11 7
10 11 7
11 11 7
12 11 7
13 11 7
-13 12 7
-12 12 7
-11 12 7
-10 12 7
-9 12 7
-8 12 7
-7 12 7
-6 12 7
-5 12 7
-4 12 7
-3 12 7
-2 12 7
-1 12 7
0 12 7
1 12 7
2 12 7
3 12 7
4 12 7
5 12 7
6 12 7
7 12 7
8 12 7
9 12 7
10 12 7
11 12 7
12 12 7
13 12 7
-12 13 7
-11 13 7
-10 13 7
-9 13 7
-8 13 7
-7 13 7
-6 13 7
-5 13 7
-4 13 7
-3 13 7
-2 13 7
-1 13 7
0 13 7
1 13 7
2 13 7
3 13 7
4 13 7
5 13 7
6 13 7
7 13 7
8 13 7
9 13 7
10 13 7
11 13 7
12 13 7
-11 14 7
-10 14 7
-9 14 7
-8 14 7
-7 14 7
-6 14 7
-5 14 7
-4 14 7
-3 14 7
-2 14 7
-1 14 7
0 14 7
1 14 7
2 14 7
3 14 7
4 14 7
5 14 7
6 14 7
7 14 7
8 14 7
9 14 7
10 14 7
11 14 7
-10 15 7
-9 15 7
-8 15 7
-7 15 7
-6 15 7
-5 15 7
-4 15 7
-3 15 7
-2 15 7
-1 15 7
0 15 7
1 15 7
2 15 7
3 15 7
4 15 7
5 15 7
6 15 7
7 15 7
8 15 7
9 15 7
10 15 7
-9 16 7
-8 16 7
-7 16 7
-6 16 7
-5 16 7
-4 16 7
-3 16 7
-2 16 7
-1 16 7
0 16 7
1 16 7
2 16 7
3 16 7
4 16 7
5 16 7
6 16 7
7 16 7
8 16 7
9 16 7
-8 17 7
-7 17 7
-6 17 7
-5 17 7
-4 17 7
-3 17 7
-2 17 7
-1 17 7
0 17 7
1 17 7
2 17 7
3 17 7
4 17 7
5 17 7
6 17 7
7 17 7
8 17 7
-6 18 7
-5 18 7
-4 18 7
-3 18 7
-2 18 7
-1 18 7
0 18 7
1 18 7
2 18 7
3 18 7
4 18 7
5 18 7
6 18 7
-4 19 7
-3 19 7
-2 19 7
-1 19 7
0 19 7
1 19 7
2 19 7
3 19 7
-14 0 8
-12 0 8
-10 0 8
-8 0 8
-6 0 8
-4 0 8
-2 0 8
0 0 8
2 0 8
4 0 8
6 0 8
8 0 8
10 0 8
12 0 8
14 0 8
-15 1 8
-14 1 8
-13 1 8
-12 1 8
-11 1 8
-10 1 8
-9 1 8
-8 1 8
-7 1 8
-6 1 8
-5 1 8
-4 1 8
-3 1 8
-2 1 8
-1 1 8
0 1 8
1 1 8
2 1 8
3 1 8
4 1 8
5 1 8
6 1 8
7 1 8
8 1 8
9 1 8
10 1 8
11 1 8
12 1 8
13 1 8
14 1 8
15 1 8
-15 2 8
-14 2 8
-13 2 8
-12 2 8
-11 2 8
-10 2 8
-9 2 8
-8 2 8
-7 2 8
-6 2 8
-5 2 8
-4 2 8
-3 2 8
-2 2 8
-1 2 8
0 2 8
1 2 8
2 2 8
3 2 8
4 2 8
5 2 8
6 2 8
7 2 8
8 2 8
9 2 8
10 2 8
11 2 8
12 2 8
13 2 8
14 2 8
15 2 8
-15 3 8
-14 3 8
-13 3 8
-12 3 8
-11 3 8
-10 3 8
-9 3 8
-8 3 8
-7 3 8
-6 3 8
-5 3 8
-4 3 8
-3 3 8
-2 3 8
-1 3 8
0 3 8
1 3 8
2 3 8
3 3 8
4 3 8
5 3 8
6 3 8
7 3 8
8 3 8
9 3 8
10 3 8
11 3 8
12 3 8
13 3 8
14 3 8
15 3 8
-15 4 8
-14 4 8
-13 4 8
-12 4 8
-11 4 8
-10 4 8
-9 4 8
-8 4 8
-7 4 8
-6 4 8
-5 4 8
-4 4 8
-3 4 8
-2 4 8
-1 4 8
0 4 8
1 4 8
2 4 8
3 4 8
4 4 8
5 4 8
6 4 8
7 4 8
8 4 8
9 4 8
10 4 8
11 4 8
12 4 8
13 4 8
14 4 8
15 4 8
-14 5 8
-13 5 8
-12 5 8
-11 5 8
-10 5 8
-9 5 8
-8 5 8
-7 5 8
-6 5 8
-5 5 8
-4 5 8
-3 5 8
-2 5 8
-1 5 8
0 5 8
1 5 8
2 5 8
3 5 8
4 5 8
5 5 8
6 5 8
7 5 8
8 5 8
9 5 8
10 5 8
11 5 8
12 5 8
13 5 8
14 5 8
15 5 8
-14 6 8
-13 6 8
-12 6 8
-11 6 8
-10 6 8
-9 6 8
-8 6 8
-7 6 8
-6 6 8
-5 6 8
-4 6 8
-3 6 8
-2 6 8
-1 6 8
0 6 8
1 6 8
2 6 8
3 6 8
4 6 8
5 6 8
6 6 8
7 6 8
8 6 8
9 6 8
10 6 8
11 6 8
12 6 8
13 6 8
14 6 8
-14 7 8
-13 7 8
-12 7 8
-11 7 8
-10 7 8
-9 7 8
-8 7 8
-7 7 8
-6 7 8
-5 7 8
-4 7 8
-3 7 8
-2 7 8
-1 7 8
0 7 8
1 7 8
2 7 8
3 7 8
4 7 8
5 7 8
6 7 8
7 7 8
8 7 8
9 7 8
10 7 8
11 7 8
12 7 8
13 7 8
14 7 8
-13 8 8
-12 8 8
-11 8 8
-10 8 8
-9 8 8
-8 8 8
-7 8 8
-6 8 8
-5 8 8
-4 8 8
-3 8 8
-2 8 8
-1 8 8
0 8 8
1 8 8
2 8 8
3 8 8
4 8 8
5 8 8
6 8 8
7 8 8
8 8 8
9 8 8
10 8 8
11 8 8
12 8 8
13 8 8
14 8 8
-13 9 8
-12 9 8
-11 9 8
-10 9 8
-9 9 8
-8 9 8
-7 9 8
-6 9 8
-5 9 8
-4 9 8
-3 9 8
-2 9 8
-1 9 8
0 9 8
1 9 8
2 9 8
3 9 8
4 9 8
5 9 8
6 9 8
7 9 8
8 9 8
9 9 8
10 9 8
11 9 8
12 9 8
13 9 8
-13 10 8
-12 10 8
-11 10 8
-10 10 8
-9 10 8
-8 10 8
-7 10 8
-6 10 8
-5 10 8
-4 10 8
-3 10 8
-2 10 8
-1 10 8
0 10 8
1 10 8
2 10 8
3 10 8
4 10 8
5 10 8
6 10 8
7 10 8
8 10 8
9 10 8
10 10 8
11 10 8
12 10 8
13 10 8
-12 11 8
-11 11 8
-10 11 8
-9 11 8
-8 11 8
-7 11 8
-6 11 8
-5 11 8
-4 11 8
-3 11 8
-2 11 8
-1 11 8
0 11 8
1 11 8
2 11 8
3 11 8
4 11 8
5 11 8
6 11 8
7 11 8
8 11 8
9 11 8
10 11 8
11 11 8
12 11 8
-11 12 8
-10 12 8
-9 12 8
-8 12 8
-7 12 8
-6 12 8
-5 12 8
-4 12 8
-3 12 8
-2 12 8
-1 12 8
0 12 8
1 12 8
2 12 8
3 12 8
4 12 8
5 12 8
6 12 8
7 12 8
8 12 8
9 12 8
10 12 8
11 12 8
-10 13 8
-9 13 8
-8 13 8
-7 13 8
-6 13 8
-5 13 8
-4 13 8
-3 13 8
-2 13 8
-1 13 8
0 13 8
1 13 8
2 13 8
3 13 8
4 13 8
5 13 8
6 13 8
7 13 8
8 13 8
9 13 8
10 13 8
-10 14 8
-9 14 8
-8 14 8
-7 14 8
-6 14 8
-5 14 8
-4 14 8
-3 14 8
-2 14 8
-1 14 8
0 14 8
1 14 8
2 14 8
3 14 8
4 14 8
5 14 8
6 14 8
7 14 8
8 14 8
9 14 8
10 14 8
-8 15 8
-7 15 8
-6 15 8
-5 15 8
-4 15 8
-3 15 8
-2 15 8
-1 15 8
0 15 8
1 15 8
2 15 8
3 15 8
4 15 8
5 15 8
6 15 8
7 15 8
8 15 8
-7 16 8
-6 16 8
-5 16 8
-4 16 8
-3 16 8
-2 16 8
-1 16 8
0 16 8
1 16 8
2 16 8
3 16 8
4 16 8
5 16 8
6 16 8
7 16 8
-5 17 8
-4 17 8
-3 17 8
-2 17 8
-1 17 8
0 17 8
1 17 8
2 17 8
3 17 8
4 17 8
5 17 8
-2 18 8
-1 18 8
0 18 8
1 18 8
2 18 8
-13 0 9
-11 0 9
-9 0 9
-7 0 9
-5 0 9
-3 0 9
-1 0 9
1 0 9
3 0 9
5 0 9
7 0 9
9 0 9
11 0 9
13 0 9
-14 1 9
-13 1 9
-12 1 9
-11 1 9
-10 1 9
-9 1 9
-8 1 9
-7 1 9
-6 1 9
-5 1 9
-4 1 9
-3 1 9
-2 1 9
-1 1 9
0 1 9
1 1 9
2 1 9
3 1 9
4 1 9
5 1 9
6 1 9
7 1 9
8 1 9
9 1 9
10 1 9
11 1 9
12 1 9
13 1 9
14 1 9
-14 2 9
-13 2 9
-12 2 9
-11 2 9
-10 2 9
-9 2 9
-8 2 9
-7 2 9
-6 2 9
-5 2 9
-4 2 9
-3 2 9
-2 2 9
-1 2 9
0 2 9
1 2 9
2 2 9
3 2 9
4 2 9
5 2 9
6 2 9
7 2 9
8 2 9
9 2 9
10 2 9
11 2 9
12 2 9
13 2 9
14 2 9
-13 3 9
-12 3 9
-11 3 9
-10 3 9
-9 3 9
-8 3 9
-7 3 9
-6 3 9
-5 3 9
-4 3 9
-3 3 9
-2 3 9
-1 3 9
0 3 9
1 3 9
2 3 9
3 3 9
4 3 9
5 3 9
6 3 9
7 3 9
8 3 9
9 3 9
10 3 9
11 3 9
12 3 9
13 3 9
-13 4 9
-12 4 9
-11 4 9
-10 4 9
-9 4 9
-8 4 9
-7 4 9
-6 4 9
-5 4 9
-4 4 9
-3 4 9
-2 4 9
-1 4 9
0 4 9
1 4 9
2 4 9
3 4 9
4 4 9
5 4 9
6 4 9
7 4 9
8 4 9
9 4 9
10 4 9
11 4 9
12 4 9
13 4 9
-13 5 9
-12 5 9
-11 5 9
-10 5 9
-9 5 9
-8 5 9
-7 5 9
-6 5 9
-5 5 9
-4 5 9
-3 5 9
-2 5 9
-1 5 9
0 5 9
1 5 9
2 5 9
3 5 9
4 5 9
5 5 9
6 5 9
7 5 9
8 5 9
9 5 9
10 5 9
11 5 9
12 5 9
13 5 9
-13 6 9
-12 6 9
-11 6 9
-10 6 9
-9 6 9
-8 6 9
-7 6 9
-6 6 9
-5 6 9
-4 6 9
-3 6 9
-2 6 9
-1 6 9
0 6 9
1 6 9
2 6 9
3 6 9
4 6 9
5 6 9
6 6 9
7 6 9
8 6 9
9 6 9
10 6 9
11 6 9
12 6 9
13 6 9
-12 7 9
-11 7 9
-10 7 9
-9 7 9
-8 7 9
-7 7 9
-6 7 9
-5 7 9
-4 7 9
-3 7 9
-2 7 9
-1 7 9
0 7 9
1 7 9
2 7 9
3 7 9
4 7 9
5 7 9
6 7 9
7 7 9
8 7 9
9 7 9
10 7 9
11 7 9
12 7 9
-12 8 9
-11 8 9
-10 8 9
-9 8 9
-8 8 9
-7 8 9
-6 8 9
-5 8 9
-4 8 9
-3 8 9
-2 8 9
-1 8 9
0 8 9
1 8 9
2 8 9
3 8 9
4 8 9
5 8 9
6 8 9
7 8 9
8 8 9
9 8 9
10 8 9
11 8 9
12 8 9
-11 9 9
-10 9 9
-9 9 9
-8 9 9
-7 9 9
-6 9 9
-5 9 9
-4 9 9
-3 9 9
-2 9 9
-1 9 9
0 9 9
1 9 9
2 9 9
3 9 9
4 9 9
5 9 9
6 9 9
7 9 9
8 9 9
9 9 9
10 9 9
11 9 9
-11 10 9
-10 10 9
-9 10 9
-8 10 9
-7 10 9
-6 10 9
-5 10 9
-4 10 9
-3 10 9
-2 10 9
-1 10 9
0 10 9
1 10 9
2 10 9
3 10 9
4 10 9
5 10 9
6 10 9
7 10 9
8 10 9
9 10 9
10 10 9
11 10 9
-10 11 9
-9 11 9
-8 11 9
-7 11 9
-6 11 9
-5 11 9
-4 11 9
-3 11 9
-2 11 9
-1 11 9
0 11 9
1 11 9
2 11 9
3 11 9
4 11 9
5 11 9
6 11 9
7 11 9
8 11 9
9 11 9
10 11 9
-9 12 9
-8 12 9
-7 12 9
-6 12 9
-5 12 9
-4 12 9
-3 12 9
-2 12 9
-1 12 9
0 12 9
1 12 9
2 12 9
3 12 9
4 12 9
5 12 9
6 12 9
7 12 9
8 12 9
9 12 9
-8 13 9
-7 13 9
-6 13 9
-5 13 9
-4 13 9
-3 13 9
-2 13 9
-1 13 9
0 13 9
1 13 9
2 13 9
3 13 9
4 13 9
5 13 9
6 13 9
7 13 9
8 13 9
-7 14 9
-6 14 9
-5 14 9
-4 14 9
-3 14 9
-2 14 9
-1 14 9
0 14 9
1 14 9
2 14 9
3 14 9
4 14 9
5 14 9
6 14 9
7 14 9
-6 15 9
-5 15 9
-4 15 9
-3 15 9
-2 15 9
-1 15 9
0 15 9
1 15 9
2 15 9
3 15 9
4 15 9
5 15 9
6 15 9
-3 16 9
-2 16 9
-1 16 9
0 16 9
1 16 9
2 16 9
3 16 9
-12 0 10
-10 0 10
-8 0 10
-6 0 10
-4 0 10
-2 0 10
0 0 10
2 0 10
4 0 10
6 0 10
8 0 10
10 0 10
12 0 10
-12 1 10
-11 1 10
-10 1 10
-9 1 10
-8 1 10
-7 1 10
-6 1 10
-5 1 10
-4 1 10
-3 1 10
-2 1 10
-1 1 10
0 1 10
1 1 10
2 1 10
3 1 10
4 1 10
5 1 10
6 1 10
7 1 10
8 1 10
9 1 10
10 1 10
11 1 10
12 1 10
-12 2 10
-11 2 10
-10 2 10
-9 2 10
-8 2 10
-7 2 10
-6 2 10
-5 2 10
-4 2 10
-3 2 10
-2 2 10
-1 2 10
0 2 10
1 2 10
2 2 10
3 2 10
4 2 10
5 2 10
6 2 10
7 2 10
8 2 10
9 2 10
10 2 10
11 2 10
12 2 10
-12 3 10
-11 3 10
-10 3 10
-9 3 10
-8 3 10
-7 3 10
-6 3 10
-5 3 10
-4 3 10
-3 3 10
-2 3 10
-1 3 10
0 3 10
1 3 10
2 3 10
3 3 10
4 3 10
5 3 10
6 3 10
7 3 10
8 3 10
9 3 10
10 3 10
11 3 10
12 3 10
-11 4 10
-10 4 10
-9 4 10
-8 4 10
-7 4 10
-6 4 10
-5 4 10
-4 4 10
-3 4 10
-2 4 10
-1 4 10
0 4 10
1 4 10
2 4 10
3 4 10
4 4 10
5 4 10
6 4 10
7 4 10
8 4 10
9 4 10
10 4 10
11 4 10
-11 5 10
-10 5 10
-9 5 10
-8 5 10
-7 5 10
-6 5 10
-5 5 10
-4 5 10
-3 5 10
-2 5 10
-1 5 10
0 5 10
1 5 10
2 5 10
3 5 10
4 5 10
5 5 10
6 5 10
7 5 10
8 5 10
9 5 10
10 5 10
11 5 10
-11 6 10
-10 6 10
-9 6 10
-8 6 10
-7 6 10
-6 6 10
-5 6 10
-4 6 10
-3 6 10
-2 6 10
-1 6 10
0 6 10
1 6 10
2 6 10
3 6 10
4 6 10
5 6 10
6 6 10
7 6 10
8 6 10
9 6 10
10 6 10
11 6 10
-10 7 10
-9 7 10
-8 7 10
-7 7 10
-6 7 10
-5 7 10
-4 7 10
-3 7 10
-2 7 10
-1 7 10
0 7 10
1 7 10
2 7 10
3 7 10
4 7 10
5 7 10
6 7 10
7 7 10
8 7 10
9 7 10
10 7 10
-10 8 10
-9 8 10
-8 8 10
-7 8 10
-6 8 10
-5 8 10
-4 8 10
-3 8 10
-2 8 10
-1 8 10
0 8 10
1 8 10
2 8 10
3 8 10
4 8 10
5 8 10
6 8 10
7 8 10
8 8 10
9 8 10
10 8 10
-9 9 10
-8 9 10
-7 9 10
-6 9 10
-5 9 10
-4 9 10
-3 9 10
-2 9 10
-1 9 10
0 9 10
1 9 10
2 9 10
3 9 10
4 9 10
5 9 10
6 9 10
7 9 10
8 9 10
9 9 10
-9 10 10
-8 10 10
-7 10 10
-6 10 10
-5 10 10
-4 10 10
-3 10 10
-2 10 10
-1 10 10
0 10 10
1 10 10
2 10 10
3 10 10
4 10 10
5 10 10
6 10 10
7 10 10
8 10 10
9 10 10
-8 11 10
-7 11 10
-6 11 10
-5 11 10
-4 11 10
-3 11 10
-2 11 10
-1 11 10
0 11 10
1 11 10
2 11 10
3 11 10
4 11 10
5 11 10
6 11 10
7 11 10
8 11 10
-7 12 10
-6 12 10
-5 12 10
-4 12 10
-3 12 10
-2 12 10
-1 12 10
0 12 10
1 12 10
2 12 10
3 12 10
4 12 10
5 12 10
6 12 10
7 12 10
-5 13 10
-4 13 10
-3 13 10
-2 13 10
-1 13 10
0 13 10
1 13 10
2 13 10
3 13 10
4 13 10
5 13 10
-3 14 10
-2 14 10
-1 14 10
0 14 10
1 14 10
2 14 10
3 14 10
-9 0 11
-7 0 11
-5 0 11
-3 0 11
-1 0 11
1 0 11
3 0 11
5 0 11
7 0 11
9 0 11
-10 1 11
-9 1 11
-8 1 11
-7 1 11
-6 1 11
-5 1 11
-4 1 11
-3 1 11
-2 1 11
-1 1 11
0 1 11
1 1 11
2 1 11
3 1 11
4 1 11
5 1 11
6 1 11
7 1 11
8 1 11
9 1 11
10 1 11
-9 2 11
-8 2 11
-7 2 11
-6 2 11
-5 2 11
-4 2 11
-3 2 11
-2 2 11
-1 2 11
0 2 11
1 2 11
2 2 11
3 2 11
4 2 11
5 2 11
6 2 11
7 2 11
8 2 11
9 2 11
10 2 11
-9 3 11
-8 3 11
-7 3 11
-6 3 11
-5 3 11
-4 3 11
-3 3 11
-2 3 11
-1 3 11
0 3 11
1 3 11
2 3 11
3 3 11
4 3 11
5 3 11
6 3 11
7 3 11
8 3 11
9 3 11
-9 4 11
-8 4 11
-7 4 11
-6 4 11
-5 4 11
-4 4 11
-3 4 11
-2 4 11
-1 4 11
0 4 11
1 4 11
2 4 11
3 4 11
4 4 11
5 4 11
6 4 11
7 4 11
8 4 11
9 4 11
-9 5 11
-8 5 11
-7 5 11
-6 5 11
-5 5 11
-4 5 11
-3 5 11
-2 5 11
-1 5 11
0 5 11
1 5 11
2 5 11
3 5 11
4 5 11
5 5 11
6 5 11
7 5 11
8 5 11
9 5 11
-8 6 11
-7 6 11
-6 6 11
-5 6 11
-4 6 11
-3 6 11
-2 6 11
-1 6 11
0 6 11
1 6 11
2 6 11
3 6 11
4 6 11
5 6 11
6 6 11
7 6 11
8 6 11
-8 7 11
-7 7 11
-6 7 11
-5 7 11
-4 7 11
-3 7 11
-2 7 11
-1 7 11
0 7 11
1 7 11
2 7 11
3 7 11
4 7 11
5 7 11
6 7 11
7 7 11
8 7 11
-7 8 11
-6 8 11
-5 8 11
-4 8 11
-3 8 11
-2 8 11
-1 8 11
0 8 11
1 8 11
2 8 11
3 8 11
4 8 11
5 8 11
6 8 11
7 8 11
-6 9 11
-5 9 11
-4 9 11
-3 9 11
-2 9 11
-1 9 11
0 9 11
1 9 11
2 9 11
3 9 11
4 9 11
5 9 11
6 9 11
-5 10 11
-4 10 11
-3 10 11
-2 10 11
-1 10 11
0 10 11
1 10 11
2 10 11
3 10 11
4 10 11
5 10 11
-3 11 11
-2 11 11
-1 11 11
0 11 11
1 11 11
2 11 11
3 11 11
-6 0 12
-4 0 12
-2 0 12
0 0 12
2 0 12
4 0 12
6 0 12
-6 1 12
-5 1 12
-4 1 12
-3 1 12
-2 1 12
-1 1 12
0 1 12
1 1 12
2 1 12
3 1 12
4 1 12
5 1 12
6 1 12
-6 2 12
-5 2 12
-4 2 12
-3 2 12
-2 2 12
-1 2 12
0 2 12
1 2 12
2 2 12
3 2 12
4 2 12
5 2 12
6 2 12
-6 3 12
-5 3 12
-4 3 12
-3 3 12
-2 3 12
-1 3 12
0 3 12
1 3 12
2 3 12
3 3 12
4 3 12
5 3 12
6 3 12
-5 4 12
-4 4 12
-3 4 12
-2 4 12
-1 4 12
0 4 12
1 4 12
2 4 12
3 4 12
4 4 12
5 4 12
-5 5 12
-4 5 12
-3 5 12
-2 5 12
-1 5 12
0 5 12
1 5 12
2 5 12
3 5 12
4 5 12
5 5 12
-4 6 12
-3 6 12
-2 6 12
-1 6 12
0 6 12
1 6 12
2 6 12
3 6 12
4 6 12
-3 7 12
-2 7 12
-1 7 12
0 7 12
1 7 12
2 7 12
3 7 12
0 8 12
