#------------------------------------------------------------------------------
#$Date: 2016-02-20 02:53:41 +0200 (Sat, 20 Feb 2016) $
#$Revision: 176768 $
#$URL: svn://www.crystallography.net/cod/cif/2/10/40/2104031.cif $
#------------------------------------------------------------------------------
#
# This file is available in the Crystallography Open Database (COD),
# http://www.crystallography.net/. The original data for this entry
# were provided by IUCr Journals, http://journals.iucr.org/.
#
# The file may be used within the scientific community so long as
# proper attribution is given to the journal article from which the
# data were obtained.
#
data_2104031
loop_
_publ_author_name
'Redhammer, G\"unther J.'
'Ohashi, Haruo'
'Roth, Georg'
_publ_section_title
;
 Single-crystal structure refinement of NaTiSi~2~O~6~ clinopyroxene at
 low temperatures (298<<i>T</i><100K)
;
_journal_issue                   6
_journal_name_full               'Acta Crystallographica Section B'
_journal_page_first              730
_journal_page_last               746
_journal_paper_doi               10.1107/S0108768103022018
_journal_volume                  59
_journal_year                    2003
_chemical_formula_moiety         'O6 Na1 Si2 Ti1'
_chemical_formula_sum            'Na O6 Si2 Ti'
_chemical_formula_weight         223.07
_space_group_IT_number           15
_symmetry_cell_setting           monoclinic
_symmetry_space_group_name_Hall  '-C 2yc'
_symmetry_space_group_name_H-M   'C 1 2/c 1'
_audit_creation_method           'WinGX routine CIF_UPDATE'
_cell_angle_alpha                90
_cell_angle_beta                 106.83(2)
_cell_angle_gamma                90
_cell_formula_units_Z            4
_cell_length_a                   9.702(3)
_cell_length_b                   8.8798(17)
_cell_length_c                   5.3045(15)
_cell_measurement_reflns_used    2950
_cell_measurement_temperature    260.0(10)
_cell_measurement_theta_max      32.28
_cell_measurement_theta_min      2.1
_cell_volume                     437.4(2)
_computing_cell_refinement       'STOE X-AREA'
_computing_data_collection       'STOE X-AREA'
_computing_data_reduction        'STOE X-AREA'
_computing_structure_refinement  'shelxl-97 (sheldrick, 1997b)'
_computing_structure_solution    'SHELXS-97 (Sheldrick, 1997a)'
_diffrn_measured_fraction_theta_full 0.933
_diffrn_measured_fraction_theta_max 0.933
_diffrn_measurement_device       '2-circle goniometer'
_diffrn_measurement_device_type  'STOE IPDS 2'
_diffrn_measurement_method       'rotation method'
_diffrn_radiation_type           mok\a
_diffrn_radiation_wavelength     0.71073
_diffrn_reflns_av_R_equivalents  0.026
_diffrn_reflns_limit_h_max       11
_diffrn_reflns_limit_h_min       -13
_diffrn_reflns_limit_k_max       13
_diffrn_reflns_limit_k_min       -11
_diffrn_reflns_limit_l_max       7
_diffrn_reflns_limit_l_min       -7
_diffrn_reflns_number            2033
_diffrn_reflns_theta_full        32.03
_diffrn_reflns_theta_max         32.03
_diffrn_reflns_theta_min         3.17
_exptl_absorpt_coefficient_mu    2.552
_exptl_absorpt_correction_T_max  0.729
_exptl_absorpt_correction_T_min  0.642
_exptl_absorpt_correction_type   empirical
_exptl_absorpt_process_details   'via equivalents'
_exptl_crystal_colour            blue
_exptl_crystal_density_diffrn    3.387
_exptl_crystal_density_method    'not measured'
_exptl_crystal_description       prismatic
_exptl_crystal_F_000             436
_exptl_crystal_size_max          0.17
_exptl_crystal_size_mid          0.10
_exptl_crystal_size_min          0.08
_refine_diff_density_max         0.431
_refine_diff_density_min         -0.428
_refine_ls_extinction_coef       0.0238(14)
_refine_ls_extinction_expression Fc^*^=kFc[1+0.001xFc^2^\l^3^/sin(2\q)]^-1/4^
_refine_ls_extinction_method     SHELXL
_refine_ls_goodness_of_fit_ref   1.146
_refine_ls_matrix_type           full
_refine_ls_number_parameters     48
_refine_ls_number_reflns         710
_refine_ls_number_restraints     0
_refine_ls_restrained_S_all      1.146
_refine_ls_R_factor_gt           0.0178
_refine_ls_shift/su_max          0
_refine_ls_structure_factor_coef Fsqd
_refine_ls_weighting_details
'calc w=1/[\s^2^(Fo^2^)+(0.0226P)^2^+0.1650P] where P=(Fo^2^+2Fc^2^)/3'
_refine_ls_weighting_scheme      calc
_refine_ls_wR_factor_ref         0.045
_reflns_number_gt                633
_reflns_number_total             710
_reflns_threshold_expression     >2sigma(I)
_cod_data_source_file            ws5001.cif
_cod_data_source_block           260
_cod_original_cell_volume        437.39(19)
_cod_original_sg_symbol_H-M      C2/c
_cod_database_code               2104031
_cod_database_fobs_code          2104031
loop_
_symmetry_equiv_pos_as_xyz
'x, y, z'
'-x, y, -z+1/2'
'x+1/2, y+1/2, z'
'-x+1/2, y+1/2, -z+1/2'
'-x, -y, -z'
'x, -y, z-1/2'
'-x+1/2, -y+1/2, -z'
'x+1/2, -y+1/2, z-1/2'
loop_
_atom_site_label
_atom_site_fract_x
_atom_site_fract_y
_atom_site_fract_z
_atom_site_U_iso_or_equiv
_atom_site_adp_type
_atom_site_calc_flag
_atom_site_refinement_flags
_atom_site_occupancy
_atom_site_type_symbol
Na 0 0.30159(8) 0.25 0.01341(15) Uani d S 1 Na
Ti 0 0.90200(3) 0.25 0.00440(8) Uani d S 1 Ti
Si 0.29200(3) 0.08905(3) 0.24072(5) 0.00396(8) Uani d . 1 Si
O1 0.11694(9) 0.07925(9) 0.14556(15) 0.00568(15) Uani d . 1 O
O2 0.36092(10) 0.25294(9) 0.30388(15) 0.00788(16) Uani d . 1 O
O3 0.35200(9) 0.00796(10) 0.01526(15) 0.00709(16) Uani d . 1 O
loop_
_atom_site_aniso_label
_atom_site_aniso_U_11
_atom_site_aniso_U_22
_atom_site_aniso_U_33
_atom_site_aniso_U_12
_atom_site_aniso_U_13
_atom_site_aniso_U_23
Na 0.0167(4) 0.0101(3) 0.0103(3) 0 -0.0010(3) 0
Ti 0.00373(14) 0.00450(12) 0.00464(12) 0 0.00069(9) 0
Si 0.00353(15) 0.00511(13) 0.00321(13) -0.00051(9) 0.00091(10) -0.00015(8)
O1 0.0044(4) 0.0077(3) 0.0046(3) -0.0004(3) 0.0008(3) 0.0004(2)
O2 0.0084(4) 0.0071(4) 0.0082(3) -0.0023(3) 0.0025(3) -0.0007(2)
O3 0.0057(4) 0.0096(4) 0.0059(3) -0.0002(3) 0.0016(3) -0.0024(2)
loop_
_atom_type_symbol
_atom_type_description
_atom_type_scat_dispersion_real
_atom_type_scat_dispersion_imag
_atom_type_scat_source
Na Na 0.0362 0.0249 'International Tables Vol C Tables 4.2.6.8 and 6.1.1.4'
Ti Ti 0.2776 0.4457 'International Tables Vol C Tables 4.2.6.8 and 6.1.1.4'
Si Si 0.0817 0.0704 'International Tables Vol C Tables 4.2.6.8 and 6.1.1.4'
O O 0.0106 0.006 'International Tables Vol C Tables 4.2.6.8 and 6.1.1.4'
loop_
_geom_angle_atom_site_label_1
_geom_angle_atom_site_label_2
_geom_angle_atom_site_label_3
_geom_angle_site_symmetry_1
_geom_angle_site_symmetry_3
_geom_angle
O2 Na O2 8_455 7_556 156.81(5)
O2 Na O1 8_455 2 83.95(3)
O2 Na O1 7_556 2 77.15(3)
O2 Na O1 8_455 . 77.15(3)
O2 Na O1 7_556 . 83.95(3)
O1 Na O1 2 . 70.65(5)
O2 Na O3 8_455 4 137.11(4)
O2 Na O3 7_556 4 64.51(3)
O1 Na O3 2 4 137.96(3)
O1 Na O3 . 4 118.99(3)
O2 Na O3 8_455 3_455 64.51(3)
O2 Na O3 7_556 3_455 137.11(4)
O1 Na O3 2 3_455 118.99(3)
O1 Na O3 . 3_455 137.96(3)
O3 Na O3 4 3_455 82.43(5)
O2 Na O3 8_455 7 81.54(3)
O2 Na O3 7_556 7 112.73(3)
O1 Na O3 2 7 159.51(3)
O1 Na O3 . 7 91.98(3)
O3 Na O3 4 7 59.85(2)
O3 Na O3 3_455 7 66.84(4)
O2 Na O3 8_455 8_456 112.73(3)
O2 Na O3 7_556 8_456 81.54(3)
O1 Na O3 2 8_456 91.98(3)
O1 Na O3 . 8_456 159.51(3)
O3 Na O3 4 8_456 66.84(4)
O3 Na O3 3_455 8_456 59.85(2)
O3 Na O3 7 8_456 106.94(5)
O2 Na Si 8_455 7_556 168.62(3)
O2 Na Si 7_556 7_556 31.64(2)
O1 Na Si 2 7_556 107.04(3)
O1 Na Si . 7_556 103.33(3)
O3 Na Si 4 7_556 32.89(2)
O3 Na Si 3_455 7_556 110.91(3)
O3 Na Si 7 7_556 87.08(3)
O3 Na Si 8_456 7_556 70.66(3)
O2 Na Si 8_455 8_455 31.64(2)
O2 Na Si 7_556 8_455 168.62(3)
O1 Na Si 2 8_455 103.33(3)
O1 Na Si . 8_455 107.04(3)
O3 Na Si 4 8_455 110.91(3)
O3 Na Si 3_455 8_455 32.89(2)
O3 Na Si 7 8_455 70.66(3)
O3 Na Si 8_456 8_455 87.08(3)
Si Na Si 7_556 8_455 142.56(3)
O2 Na Ti 8_455 5_565 37.75(2)
O2 Na Ti 7_556 5_565 124.36(3)
O1 Na Ti 2 5_565 80.90(3)
O1 Na Ti . 5_565 40.46(2)
O3 Na Ti 4 5_565 134.83(2)
O3 Na Ti 3_455 5_565 98.19(3)
O3 Na Ti 7 5_565 78.76(2)
O3 Na Ti 8_456 5_565 149.932(19)
Si Na Ti 7_556 5_565 139.366(16)
Si Na Ti 8_455 5_565 66.585(19)
O2 Na Ti 8_455 5_566 124.36(3)
O2 Na Ti 7_556 5_566 37.75(2)
O1 Na Ti 2 5_566 40.46(2)
O1 Na Ti . 5_566 80.90(3)
O3 Na Ti 4 5_566 98.19(3)
O3 Na Ti 3_455 5_566 134.83(2)
O3 Na Ti 7 5_566 149.932(19)
O3 Na Ti 8_456 5_566 78.76(2)
Si Na Ti 7_556 5_566 66.586(19)
Si Na Ti 8_455 5_566 139.366(16)
Ti Na Ti 5_565 5_566 111.44(3)
O2 Ti O2 3_455 4 95.53(6)
O2 Ti O1 3_455 5_565 90.21(4)
O2 Ti O1 4 5_565 95.96(4)
O2 Ti O1 3_455 6_566 95.96(4)
O2 Ti O1 4 6_566 90.21(4)
O1 Ti O1 5_565 6_566 170.83(5)
O2 Ti O1 3_455 2_565 91.16(4)
O2 Ti O1 4 2_565 169.90(3)
O1 Ti O1 5_565 2_565 91.57(3)
O1 Ti O1 6_566 2_565 81.55(4)
O2 Ti O1 3_455 1_565 169.90(3)
O2 Ti O1 4 1_565 91.16(4)
O1 Ti O1 5_565 1_565 81.55(4)
O1 Ti O1 6_566 1_565 91.57(3)
O1 Ti O1 2_565 1_565 83.28(5)
O2 Ti Ti 3_455 5_576 94.68(3)
O2 Ti Ti 4 5_576 131.00(3)
O1 Ti Ti 5_565 5_576 131.79(3)
O1 Ti Ti 6_566 5_576 41.05(3)
O1 Ti Ti 2_565 5_576 40.50(2)
O1 Ti Ti 1_565 5_576 86.58(3)
O2 Ti Ti 3_455 5_575 131.00(3)
O2 Ti Ti 4 5_575 94.68(3)
O1 Ti Ti 5_565 5_575 41.05(3)
O1 Ti Ti 6_566 5_575 131.79(3)
O1 Ti Ti 2_565 5_575 86.58(3)
O1 Ti Ti 1_565 5_575 40.50(2)
Ti Ti Ti 5_576 5_575 113.45(2)
O2 Ti Na 3_455 5_565 84.57(3)
O2 Ti Na 4 5_565 48.51(3)
O1 Ti Na 5_565 5_565 48.93(3)
O1 Ti Na 6_566 5_565 138.34(3)
O1 Ti Na 2_565 5_565 140.10(2)
O1 Ti Na 1_565 5_565 94.28(3)
Ti Ti Na 5_576 5_565 178.995(15)
Ti Ti Na 5_575 5_565 67.55(2)
O2 Ti Na 3_455 5_566 48.51(3)
O2 Ti Na 4 5_566 84.57(3)
O1 Ti Na 5_565 5_566 138.34(3)
O1 Ti Na 6_566 5_566 48.93(3)
O1 Ti Na 2_565 5_566 94.28(3)
O1 Ti Na 1_565 5_566 140.10(2)
Ti Ti Na 5_576 5_566 67.55(2)
Ti Ti Na 5_575 5_566 178.995(15)
Na Ti Na 5_565 5_566 111.44(3)
O2 Ti Na 3_455 1_565 132.23(3)
O2 Ti Na 4 1_565 132.23(3)
O1 Ti Na 5_565 1_565 85.41(2)
O1 Ti Na 6_566 1_565 85.41(2)
O1 Ti Na 2_565 1_565 41.64(3)
O1 Ti Na 1_565 1_565 41.64(3)
Ti Ti Na 5_576 1_565 56.726(12)
Ti Ti Na 5_575 1_565 56.726(12)
Na Ti Na 5_565 1_565 124.279(14)
Na Ti Na 5_566 1_565 124.279(14)
O2 Si O1 . . 116.74(4)
O2 Si O3 . . 109.74(5)
O1 Si O3 . . 108.00(5)
O2 Si O3 . 6_556 105.79(5)
O1 Si O3 . 6_556 108.43(5)
O3 Si O3 . 6_556 107.82(4)
O2 Si Na . 7_556 52.37(3)
O1 Si Na . 7_556 131.31(4)
O3 Si Na . 7_556 120.40(4)
O3 Si Na 6_556 7_556 53.46(4)
O2 Si Na . 3_545 119.54(4)
O1 Si Na . 3_545 123.43(3)
O3 Si Na . 3_545 46.80(3)
O3 Si Na 6_556 3_545 61.06(3)
Na Si Na 7_556 3_545 89.31(2)
O2 Si Na . . 77.99(4)
O1 Si Na . . 40.45(3)
O3 Si Na . . 136.37(3)
O3 Si Na 6_556 . 111.01(4)
Na Si Na 7_556 . 98.70(2)
Na Si Na 3_545 . 161.60(2)
Si O1 Ti . 5_565 121.54(5)
Si O1 Ti . 1_545 123.47(5)
Ti O1 Ti 5_565 1_545 98.45(4)
Si O1 Na . . 113.67(4)
Ti O1 Na 5_565 . 90.61(3)
Ti O1 Na 1_545 . 103.03(4)
Si O2 Ti . 3_545 147.72(6)
Si O2 Na . 7_556 95.99(4)
Ti O2 Na 3_545 7_556 93.74(4)
Si O3 Si . 6 139.94(6)
Si O3 Na . 3_545 103.81(4)
Si O3 Na 6 3_545 93.65(4)
Si O3 Na . 7 115.90(5)
Si O3 Na 6 7 88.47(4)
Na O3 Na 3_545 7 113.16(4)
loop_
_geom_bond_atom_site_label_1
_geom_bond_atom_site_label_2
_geom_bond_site_symmetry_2
_geom_bond_distance
Na O2 8_455 2.4095(11)
Na O2 7_556 2.4095(11)
Na O1 2 2.4200(11)
Na O1 . 2.4200(11)
Na O3 4 2.4361(11)
Na O3 3_455 2.4361(11)
Na O3 7 2.8411(11)
Na O3 8_456 2.8411(11)
Na Si 7_556 3.0258(10)
Na Si 8_455 3.0258(10)
Na Ti 5_565 3.2098(8)
Na Ti 5_566 3.2098(8)
Ti O2 3_455 1.9692(9)
Ti O2 4 1.9692(9)
Ti O1 5_565 2.0830(10)
Ti O1 6_566 2.0830(10)
Ti O1 2_565 2.1061(9)
Ti O1 1_565 2.1061(9)
Ti Ti 5_576 3.1723(7)
Ti Ti 5_575 3.1723(7)
Ti Na 5_565 3.2098(8)
Ti Na 5_566 3.2098(8)
Ti Na 1_565 3.5483(10)
Si O2 . 1.5961(9)
Si O1 . 1.6279(10)
Si O3 . 1.6404(9)
Si O3 6_556 1.6464(9)
Si Na 7_556 3.0258(10)
Si Na 3_545 3.2454(8)
O1 Ti 5_565 2.0830(10)
O1 Ti 1_545 2.1061(9)
O2 Ti 3_545 1.9692(9)
O2 Na 7_556 2.4095(11)
O3 Si 6 1.6464(9)
O3 Na 3_545 2.4361(11)
O3 Na 7 2.8411(11)
