#------------------------------------------------------------------------------
#$Date: 2017-08-07 10:37:03 +0300 (Mon, 07 Aug 2017) $
#$Revision: 199608 $
#$URL: file:///home/coder/svn-repositories/cod/cif/2/10/46/2104667.cif $
#------------------------------------------------------------------------------
#
# This file is available in the Crystallography Open Database (COD),
# http://www.crystallography.net/. The original data for this entry
# were provided by IUCr Journals, http://journals.iucr.org/.
#
# The file may be used within the scientific community so long as
# proper attribution is given to the journal article from which the
# data were obtained.
#
data_2104667
loop_
_publ_author_name
'Baikie, Tom'
'Pramana, Stevin S.'
'Ferraris, Cristiano'
'Huang, Yizhong'
'Kendrick, Emma'
'Knight, Kevin S.'
'Ahmad, Zahara'
'White, T. J.'
_publ_section_title
;
 Polysomatic apatites
;
_journal_coeditor_code           BK5091
_journal_issue                   1
_journal_name_full               'Acta Crystallographica Section B'
_journal_page_first              1
_journal_page_last               16
_journal_paper_doi               10.1107/S0108768109053981
_journal_volume                  66
_journal_year                    2010
_chemical_formula_sum            'Bi1.5 Ge9 Na1.5 O33 Pb12'
_chemical_formula_weight         4015.825
_space_group_IT_number           143
_symmetry_cell_setting           hexagonal
_symmetry_space_group_name_Hall  'P 3'
_symmetry_space_group_name_H-M   'P 3'
_cell_angle_alpha                90
_cell_angle_beta                 90
_cell_angle_gamma                120
_cell_formula_units_Z            1
_cell_length_a                   10.13385(3)
_cell_length_b                   10.13385(3)
_cell_length_c                   10.52045(6)
_cell_volume                     935.651(7)
_diffrn_ambient_temperature      298
_diffrn_measurement_device_type  'ISIS HRPD'
_diffrn_radiation_probe          neutron
_diffrn_radiation_type           neutron
_pd_meas_number_of_points        4540
_pd_meas_scan_method             tof
_pd_proc_ls_prof_R_factor        0.040
_pd_proc_ls_prof_wR_expected     0.017
_pd_proc_ls_prof_wR_factor       0.040
_pd_spec_mounting                'vanadium can with He exchange gas'
_pd_spec_mount_mode              transmission
_pd_spec_shape                   cylinder
_refine_ls_goodness_of_fit_all   2.35
_refine_ls_number_parameters     96
_refine_ls_number_restraints     0
_reflns_number_total             1124
_cod_data_source_file            bk5091.cif
_cod_data_source_block           Bi1.5Na1.5Pb12Ge9O33
_cod_depositor_comments
;
 Adding the _chemical_formula_sum data item after consulting the original
 publication.

 Antanas Vaitkus,
 2017-08-07
;
_cod_original_cell_volume        935.650(10)
_cod_database_code               2104667
loop_
_symmetry_equiv_pos_site_id
_symmetry_equiv_pos_as_xyz
1 '-x+y, -x, z'
2 '-y, x-y, z'
3 'x, y, z'
loop_
_atom_site_type_symbol
_atom_site_label
_atom_site_fract_x
_atom_site_fract_y
_atom_site_fract_z
_atom_site_U_iso_or_equiv
_atom_site_occupancy
Pb2+ Pb1 0.3333 0.6667 0.312(2) 0.025(2) 0.893
Na1+ Na1 0.3333 0.6667 0.312(2) 0.025(2) 0.107
Pb2+ Pb2 0.3333 0.6667 0.646(2) 0.0090(10) 0.844
Na1+ Na2 0.3333 0.6667 0.646(2) 0.0090(10) 0.156
Pb2+ Pb3 0.6667 0.3333 0.301(2) 0.027(2) 0.469
Na1+ Na3 0.6667 0.3333 0.301(2) 0.027(2) 0.062
Bi3+ Bi3 0.6667 0.3333 0.301(2) 0.027(2) 0.469
Pb2+ Pb4 0.6667 0.3333 0.674(2) 0.024(2) 0.468
Na1+ Na4 0.6667 0.3333 0.674(2) 0.024(2) 0.065
Bi3+ Bi4 0.6667 0.3333 0.674(2) 0.024(2) 0.467
Na1+ Na5 0.3333 0.6667 0.997 0.0080(10) 0.607
Bi3+ Bi5 0.3333 0.6667 0.997 0.0080(10) 0.393
Na1+ Na6 0.6667 0.3333 -0.012(4) 0.025(2) 0.522
Bi3+ Bi6 0.6667 0.3333 -0.012(4) 0.025(2) 0.478
Pb2+ Pb7 0.2593(7) 0.2603(8) 0.170(2) 0.017(2) 1.
Pb2+ Pb8 0.2632(8) 0.2633(9) 0.809(2) 0.024(2) 1.
Pb2+ Pb9 0.2483(4) 0.9970(5) 0.493(2) 0.023(2) 1.
Ge4+ Ge1 0.0079(9) 0.3903(8) 0.142(2) 0.023(2) 1.
Ge4+ Ge2 0.0170(8) 0.3971(8) 0.837(2) 0.0130(10) 1.
Ge4+ Ge3 0.3963(4) 0.3910(5) 0.489(2) 0.016(2) 1.
O2- O1 0.0811(4) 0.3118(10) 0.249(2) 0.035(3) 1.
O2- O2 0.0870(12) 0.3291(9) 0.722(2) 0.018(2) 1.
O2- O3 0.0993(11) 0.5951(13) 0.144(2) 0.029(3) 1.
O2- O4 0.1210(11) 0.5962(13) 0.820(2) 0.018(2) 1.
O2- O5 0.8211(14) 0.3167(14) 0.151(2) 0.020(2) 1.
O2- O6 0.8168(10) 0.3171(11) 0.838(2) 0.023(2) 1.
O2- O7 0.0706(5) 0.3573(5) 0.989(2) 0.041(3) 1.
O2- O8 0.2858(6) 0.4807(6) 0.493(2) 0.026(3) 1.
O2- O9 0.5931(8) 0.5079(8) 0.514(2) 0.018(2) 1.
O2- O10 0.3706(11) 0.2766(12) 0.357(2) 0.027(3) 1.
O2- O11 0.3313(9) 0.2558(10) 0.613(2) 0.033(3) 1.
loop_
_refln_index_h
_refln_index_k
_refln_index_l
3 0 -2
3 0 2
2 2 0
1 0 4
1 0 -4
2 2 -1
2 2 1
4 -1 0
3 1 0
2 1 -3
2 1 3
3 -1 -3
3 -1 3
4 -1 1
3 1 1
4 -1 -1
3 1 -1
1 1 4
1 1 -4
2 2 -2
2 2 2
2 0 4
2 0 -4
3 0 -3
3 0 3
4 -1 2
4 -1 -2
3 1 -2
3 1 2
4 0 0
4 0 1
4 0 -1
0 0 5
2 1 -4
2 1 4
3 -1 -4
3 -1 4
2 2 3
2 2 -3
1 0 -5
1 0 5
4 0 2
4 0 -2
5 -2 0
3 2 0
3 1 3
4 -1 -3
3 1 -3
4 -1 3
5 -2 -1
5 -2 1
3 2 1
3 2 -1
3 0 -4
3 0 4
1 1 5
1 1 -5
4 1 0
5 -1 0
2 0 5
2 0 -5
4 1 1
5 -1 -1
4 1 -1
5 -1 1
3 2 2
3 2 -2
5 -2 -2
5 -2 2
4 0 -3
4 0 3
2 2 4
2 2 -4
4 1 -2
5 -1 -2
5 -1 2
4 1 2
3 1 4
3 1 -4
4 -1 -4
4 -1 4
3 -1 5
2 1 5
3 -1 -5
2 1 -5
5 0 0
0 0 6
5 -2 3
5 -2 -3
3 2 -3
3 2 3
5 0 -1
5 0 1
1 0 6
1 0 -6
3 0 5
3 0 -5
3 3 0
4 0 4
4 0 -4
4 1 -3
4 1 3
5 -1 3
5 -1 -3
3 3 1
3 3 -1
5 0 -2
5 0 2
4 2 0
6 -2 0
1 1 6
1 1 -6
4 2 -1
4 2 1
6 -2 -1
6 -2 1
2 0 -6
2 0 6
2 2 -5
2 2 5
3 3 2
3 3 -2
5 -2 4
5 -2 -4
3 2 -4
3 2 4
3 1 5
4 -1 5
3 1 -5
4 -1 -5
6 -2 -2
6 -2 2
4 2 2
4 2 -2
5 1 0
6 -1 0
5 0 3
5 0 -3
5 1 1
6 -1 1
6 -1 -1
5 1 -1
3 -1 6
3 -1 -6
2 1 6
2 1 -6
4 1 -4
5 -1 -4
5 -1 4
4 1 4
3 3 3
3 3 -3
4 0 -5
4 0 5
5 1 -2
6 -1 -2
6 -1 2
5 1 2
3 0 6
3 0 -6
0 0 7
4 2 3
6 -2 -3
6 -2 3
4 2 -3
1 0 7
1 0 -7
6 0 0
5 0 -4
5 0 4
3 2 -5
5 -2 5
3 2 5
5 -2 -5
6 0 -1
6 0 1
7 -3 0
4 3 0
2 2 -6
2 2 6
1 1 7
1 1 -7
5 1 3
5 1 -3
6 -1 3
6 -1 -3
4 3 1
7 -3 1
7 -3 -1
4 3 -1
3 1 6
4 -1 6
4 -1 -6
3 1 -6
2 0 -7
2 0 7
3 3 4
3 3 -4
4 1 5
5 -1 -5
5 -1 5
4 1 -5
6 0 2
6 0 -2
7 -2 0
5 2 0
6 -2 -4
4 2 -4
4 2 4
6 -2 4
5 2 -1
5 2 1
7 -2 1
7 -2 -1
4 3 2
4 3 -2
7 -3 2
7 -3 -2
4 0 -6
4 0 6
3 -1 7
3 -1 -7
2 1 -7
2 1 7
5 2 -2
5 2 2
7 -2 -2
7 -2 2
5 1 -4
5 1 4
6 -1 -4
6 -1 4
6 0 3
6 0 -3
5 0 -5
5 0 5
6 1 0
7 -1 0
3 0 7
3 0 -7
4 3 3
7 -3 -3
4 3 -3
7 -3 3
6 1 1
7 -1 1
7 -1 -1
6 1 -1
5 -2 -6
3 2 6
5 -2 6
3 2 -6
3 3 5
3 3 -5
0 0 8
7 -2 3
7 -2 -3
5 2 -3
5 2 3
6 -2 5
4 2 5
4 2 -5
6 -2 -5
1 0 -8
1 0 8
7 -1 -2
6 1 2
7 -1 2
6 1 -2
4 1 -6
5 -1 -6
4 1 6
5 -1 6
2 2 7
2 2 -7
4 -1 7
3 1 -7
3 1 7
4 -1 -7
6 0 -4
6 0 4
1 1 -8
1 1 8
4 4 0
7 -3 4
4 3 -4
4 3 4
7 -3 -4
5 1 5
5 1 -5
6 -1 5
6 -1 -5
2 0 8
2 0 -8
4 4 -1
4 4 1
8 -3 0
5 3 0
7 0 0
6 1 -3
6 1 3
7 -1 3
7 -1 -3
8 -3 1
5 3 -1
7 0 1
5 3 1
7 0 -1
8 -3 -1
5 0 6
5 0 -6
4 0 7
4 0 -7
7 -2 4
7 -2 -4
5 2 4
5 2 -4
4 4 2
4 4 -2
3 -1 -8
2 1 -8
2 1 8
3 -1 8
8 -3 2
7 0 -2
8 -3 -2
7 0 2
5 3 -2
5 3 2
6 2 0
8 -2 0
3 3 6
3 3 -6
6 2 -1
6 2 1
8 -2 -1
8 -2 1
6 -2 -6
4 2 6
4 2 -6
6 -2 6
5 -2 7
5 -2 -7
3 2 -7
3 2 7
6 0 -5
6 0 5
3 0 -8
3 0 8
6 1 -4
6 1 4
7 -1 4
7 -1 -4
4 4 -3
4 4 3
7 -3 -5
4 3 -5
7 -3 5
4 3 5
8 -2 -2
6 2 2
6 2 -2
8 -2 2
5 -1 7
4 1 -7
4 1 7
5 -1 -7
5 3 3
5 3 -3
8 -3 3
8 -3 -3
7 0 3
7 0 -3
6 -1 -6
5 1 -6
5 1 6
6 -1 6
0 0 9
5 2 5
7 -2 5
5 2 -5
7 -2 -5
2 2 8
2 2 -8
7 1 0
8 -1 0
1 0 -9
1 0 9
3 1 -8
4 -1 -8
4 -1 8
3 1 8
8 -1 -1
7 1 1
7 1 -1
8 -1 1
8 -2 3
6 2 3
6 2 -3
8 -2 -3
5 0 -7
5 0 7
4 4 -4
4 4 4
1 1 9
1 1 -9
8 -1 -2
7 1 -2
8 -1 2
7 1 2
7 0 4
8 -3 4
8 -3 -4
5 3 4
5 3 -4
7 0 -4
2 0 9
2 0 -9
7 -1 5
6 1 5
6 1 -5
7 -1 -5
4 0 8
4 0 -8
9 -4 0
5 4 0
6 0 -6
6 0 6
3 3 -7
3 3 7
5 4 1
5 4 -1
9 -4 1
9 -4 -1
4 3 -6
4 3 6
7 -3 -6
7 -3 6
6 -2 7
6 -2 -7
4 2 7
4 2 -7
9 -3 0
6 3 0
6 2 4
8 -2 4
6 2 -4
8 -2 -4
7 1 3
7 1 -3
8 -1 -3
8 -1 3
2 1 -9
3 -1 9
2 1 9
3 -1 -9
3 2 8
5 -2 8
3 2 -8
5 -2 -8
9 -3 1
6 3 -1
9 -3 -1
6 3 1
9 -4 2
5 4 2
9 -4 -2
5 4 -2
8 0 0
7 -2 -6
7 -2 6
5 2 6
5 2 -6
8 0 1
8 0 -1
5 1 -7
6 -1 -7
5 1 7
6 -1 7
3 0 -9
3 0 9
4 4 5
4 4 -5
4 1 -8
5 -1 8
5 -1 -8
4 1 8
9 -3 -2
9 -3 2
6 3 2
6 3 -2
5 3 -5
7 0 5
8 -3 -5
7 0 -5
8 -3 5
5 3 5
8 0 -2
8 0 2
7 2 0
9 -2 0
5 4 3
9 -4 3
5 4 -3
9 -4 -3
7 2 1
9 -2 1
9 -2 -1
7 2 -1
6 1 6
6 1 -6
7 -1 -6
7 -1 6
8 -1 -4
7 1 4
7 1 -4
8 -1 4
2 2 9
2 2 -9
9 -3 3
9 -3 -3
6 3 3
6 3 -3
3 1 -9
3 1 9
4 -1 9
4 -1 -9
8 -2 -5
8 -2 5
6 2 -5
6 2 5
5 0 -8
5 0 8
0 0 10
7 2 -2
7 2 2
9 -2 2
9 -2 -2
6 0 -7
6 0 7
8 0 3
8 0 -3
1 0 10
1 0 -10
4 3 -7
7 -3 7
7 -3 -7
4 3 7
3 3 -8
3 3 8
5 4 -4
9 -4 4
9 -4 -4
5 4 4
4 0 -9
4 0 9
4 2 8
6 -2 -8
6 -2 8
4 2 -8
1 1 -10
1 1 10
8 1 0
9 -1 0
4 4 -6
4 4 6
7 -2 -7
5 2 -7
7 -2 7
5 2 7
9 -2 3
9 -2 -3
7 2 -3
7 2 3
2 0 -10
2 0 10
8 1 -1
8 1 1
9 -1 -1
9 -1 1
5 3 6
7 0 -6
5 3 -6
8 -3 6
7 0 6
8 -3 -6
9 -3 -4
6 3 -4
6 3 4
9 -3 4
8 -1 5
7 1 5
7 1 -5
8 -1 -5
5 5 0
8 0 4
8 0 -4
5 -2 9
3 2 9
3 2 -9
5 -2 -9
5 1 -8
5 1 8
6 -1 8
6 -1 -8
5 5 -1
5 5 1
9 -1 2
8 1 2
8 1 -2
9 -1 -2
10 -4 0
6 4 0
3 -1 10
2 1 -10
2 1 10
3 -1 -10
6 4 -1
6 4 1
10 -4 1
10 -4 -1
6 2 6
8 -2 6
6 2 -6
8 -2 -6
6 1 7
6 1 -7
7 -1 7
7 -1 -7
5 -1 -9
4 1 9
4 1 -9
5 -1 9
5 5 2
5 5 -2
9 -2 4
9 -2 -4
7 2 -4
7 2 4
5 4 5
9 -4 5
5 4 -5
9 -4 -5
3 0 -10
3 0 10
10 -4 2
10 -4 -2
6 4 2
6 4 -2
10 -3 0
7 3 0
9 -1 -3
8 1 -3
9 -1 3
8 1 3
10 -3 1
10 -3 -1
7 3 -1
7 3 1
9 -3 5
9 -3 -5
6 3 -5
6 3 5
6 0 8
6 0 -8
9 0 0
5 5 3
5 5 -3
5 0 -9
5 0 9
8 0 -5
8 0 5
7 -3 -8
7 -3 8
4 3 8
4 3 -8
2 2 -10
2 2 10
9 0 1
9 0 -1
10 -3 -2
7 3 2
7 3 -2
10 -3 2
8 -1 -6
8 -1 6
7 1 6
7 1 -6
4 4 7
4 4 -7
10 -4 -3
10 -4 3
6 4 3
6 4 -3
3 1 10
4 -1 -10
3 1 -10
4 -1 10
8 -3 -7
7 0 -7
5 3 7
5 3 -7
8 -3 7
7 0 7
3 3 -9
3 3 9
5 2 8
7 -2 -8
5 2 -8
7 -2 8
9 0 -2
9 0 2
10 -2 0
8 2 0
9 -1 4
9 -1 -4
8 1 -4
8 1 4
0 0 11
4 2 -9
6 -2 -9
6 -2 9
4 2 9
9 -2 5
7 2 5
9 -2 -5
7 2 -5
8 2 1
10 -2 1
8 2 -1
10 -2 -1
1 0 11
1 0 -11
10 -3 3
7 3 -3
10 -3 -3
7 3 3
4 0 10
4 0 -10
5 4 -6
9 -4 6
9 -4 -6
5 4 6
6 2 7
8 -2 -7
8 -2 7
6 2 -7
5 5 4
5 5 -4
8 2 2
10 -2 2
10 -2 -2
8 2 -2
6 4 -4
10 -4 4
6 4 4
10 -4 -4
1 1 11
1 1 -11
9 0 3
9 0 -3
5 1 9
5 1 -9
6 -1 -9
6 -1 9
7 -1 8
7 -1 -8
6 1 8
6 1 -8
9 -3 -6
6 3 6
6 3 -6
9 -3 6
2 0 -11
2 0 11
3 2 -10
3 2 10
5 -2 10
5 -2 -10
8 0 -6
8 0 6
7 3 -4
10 -3 4
7 3 4
10 -3 -4
8 2 3
8 2 -3
10 -2 -3
10 -2 3
9 -1 -5
8 1 -5
8 1 5
9 -1 5
5 -1 10
4 1 10
5 -1 -10
4 1 -10
9 1 0
10 -1 0
6 5 0
11 -5 0
8 -1 -7
8 -1 7
7 1 7
7 1 -7
3 -1 11
3 -1 -11
2 1 -11
2 1 11
11 -5 1
6 5 1
9 1 -1
10 -1 1
11 -5 -1
10 -1 -1
9 1 1
6 5 -1
7 2 6
9 -2 -6
9 -2 6
7 2 -6
9 0 -4
9 0 4
6 0 9
6 0 -9
5 5 5
5 5 -5
4 4 -8
4 4 8
11 -4 0
7 4 0
3 0 -11
3 0 11
4 3 -9
7 -3 -9
4 3 9
7 -3 9
10 -4 -5
10 -4 5
6 4 -5
6 4 5
5 3 8
7 0 -8
7 0 8
5 3 -8
8 -3 -8
8 -3 8
11 -4 -1
11 -4 1
7 4 1
7 4 -1
9 1 2
6 5 -2
6 5 2
10 -1 -2
10 -1 2
9 1 -2
11 -5 2
11 -5 -2
5 0 -10
5 0 10
5 4 7
9 -4 -7
9 -4 7
5 4 -7
8 2 -4
10 -2 4
10 -2 -4
8 2 4
7 -2 9
5 2 -9
7 -2 -9
5 2 9
7 4 2
7 4 -2
11 -4 -2
11 -4 2
2 2 11
2 2 -11
10 -3 -5
10 -3 5
7 3 -5
7 3 5
8 -2 8
6 2 8
6 2 -8
8 -2 -8
3 3 10
3 3 -10
11 -3 0
8 3 0
9 -3 -7
9 -3 7
6 3 7
6 3 -7
3 1 11
4 -1 11
3 1 -11
4 -1 -11
10 -1 3
10 -1 -3
6 5 -3
9 1 3
9 1 -3
6 5 3
11 -5 3
11 -5 -3
4 2 10
6 -2 10
6 -2 -10
4 2 -10
11 -3 1
8 3 1
11 -3 -1
8 3 -1
9 -1 6
9 -1 -6
8 1 6
8 1 -6
8 0 7
8 0 -7
9 0 -5
9 0 5
7 4 -3
11 -4 -3
11 -4 3
7 4 3
6 1 -9
6 1 9
7 -1 -9
7 -1 9
8 3 2
8 3 -2
11 -3 -2
11 -3 2
10 0 0
5 5 6
5 5 -6
4 0 -11
4 0 11
0 0 12
5 1 -10
6 -1 10
5 1 10
6 -1 -10
10 0 -1
10 0 1
10 -4 6
10 -4 -6
6 4 -6
6 4 6
7 2 -7
7 2 7
9 -2 -7
9 -2 7
1 0 -12
1 0 12
10 -2 5
8 2 -5
10 -2 -5
8 2 5
7 1 -8
7 1 8
8 -1 8
8 -1 -8
10 -1 4
10 -1 -4
9 1 4
9 1 -4
6 5 4
11 -5 -4
6 5 -4
11 -5 4
10 0 2
10 0 -2
9 2 0
11 -2 0
3 2 -11
5 -2 11
5 -2 -11
3 2 11
1 1 12
1 1 -12
11 -3 3
8 3 -3
8 3 3
11 -3 -3
9 2 -1
9 2 1
11 -2 -1
11 -2 1
10 -3 6
10 -3 -6
7 3 6
7 3 -6
11 -4 4
7 4 4
11 -4 -4
7 4 -4
2 0 12
2 0 -12
4 4 -9
4 4 9
5 -1 -11
4 1 11
5 -1 11
4 1 -11
8 -3 -9
7 0 9
7 0 -9
5 3 9
5 3 -9
8 -3 9
9 -4 8
5 4 8
9 -4 -8
5 4 -8
6 0 10
6 0 -10
9 2 2
9 2 -2
11 -2 2
11 -2 -2
9 0 6
9 0 -6
10 0 3
10 0 -3
4 3 -10
4 3 10
7 -3 -10
7 -3 10
9 -1 7
9 -1 -7
8 1 -7
8 1 7
2 1 -12
3 -1 12
3 -1 -12
2 1 12
9 -3 8
9 -3 -8
6 3 -8
6 3 8
6 6 0
8 3 4
11 -3 4
11 -3 -4
8 3 -4
6 2 9
8 -2 -9
6 2 -9
8 -2 9
9 1 5
9 1 -5
6 5 5
10 -1 5
11 -5 5
10 -1 -5
11 -5 -5
6 5 -5
8 0 8
8 0 -8
5 2 10
5 2 -10
7 -2 -10
7 -2 10
6 6 -1
6 6 1
5 0 -11
5 0 11
3 0 12
3 0 -12
11 -2 -3
11 -2 3
9 2 -3
9 2 3
7 5 0
12 -5 0
10 -2 6
10 -2 -6
8 2 6
8 2 -6
5 5 -7
5 5 7
12 -5 1
7 5 1
7 5 -1
12 -5 -1
10 -4 -7
6 4 7
10 -4 7
6 4 -7
7 4 5
11 -4 -5
7 4 -5
11 -4 5
6 6 2
6 6 -2
11 -1 0
10 1 0
10 0 -4
10 0 4
3 3 -11
3 3 11
7 2 -8
9 -2 8
9 -2 -8
7 2 8
11 -1 -1
10 1 -1
11 -1 1
10 1 1
7 5 -2
12 -5 -2
12 -5 2
7 5 2
8 4 0
12 -4 0
6 -2 -11
4 2 -11
6 -2 11
4 2 11
2 2 12
2 2 -12
