#------------------------------------------------------------------------------
#$Date: 2016-02-14 16:26:36 +0200 (Sun, 14 Feb 2016) $
#$Revision: 176435 $
#$URL: svn://www.crystallography.net/cod/cif/2/10/40/2104035.cif $
#------------------------------------------------------------------------------
#
# This file is available in the Crystallography Open Database (COD),
# http://www.crystallography.net/. The original data for this entry
# were provided by IUCr Journals, http://journals.iucr.org/.
#
# The file may be used within the scientific community so long as
# proper attribution is given to the journal article from which the
# data were obtained.
#
data_2104035
loop_
_publ_author_name
'Redhammer, G\"unther J.'
'Ohashi, Haruo'
'Roth, Georg'
_publ_section_title
;
 Single-crystal structure refinement of NaTiSi~2~O~6~ clinopyroxene at
 low temperatures (298<<i>T</i><100K)
;
_journal_issue                   6
_journal_name_full               'Acta Crystallographica Section B'
_journal_page_first              730
_journal_page_last               746
_journal_paper_doi               10.1107/S0108768103022018
_journal_volume                  59
_journal_year                    2003
_chemical_formula_moiety         'O6 Na1 Si2 Ti1'
_chemical_formula_sum            'Na O6 Si2 Ti'
_chemical_formula_weight         223.07
_space_group_IT_number           15
_symmetry_cell_setting           monoclinic
_symmetry_space_group_name_Hall  '-C 2yc'
_symmetry_space_group_name_H-M   'C 1 2/c 1'
_audit_creation_method           'WinGX routine CIF_UPDATE'
_cell_angle_alpha                90
_cell_angle_beta                 106.82(2)
_cell_angle_gamma                90
_cell_formula_units_Z            4
_cell_length_a                   9.707(3)
_cell_length_b                   8.8735(17)
_cell_length_c                   5.3023(15)
_cell_measurement_reflns_used    1875
_cell_measurement_temperature    210.0(10)
_cell_measurement_theta_max      32.28
_cell_measurement_theta_min      2.1
_cell_volume                     437.2(2)
_computing_cell_refinement       'STOE X-AREA'
_computing_data_collection       'STOE X-AREA'
_computing_data_reduction        'STOE X-AREA'
_computing_structure_refinement  'shelxl-97 (sheldrick, 1997b)'
_computing_structure_solution    'SHELXS-97 (Sheldrick, 1997a)'
_diffrn_measured_fraction_theta_full 0.925
_diffrn_measured_fraction_theta_max 0.925
_diffrn_measurement_device       '2-circle goniometer'
_diffrn_measurement_device_type  'STOE IPDS 2'
_diffrn_measurement_method       'rotation method'
_diffrn_radiation_type           mok\a
_diffrn_radiation_wavelength     0.71073
_diffrn_reflns_av_R_equivalents  0.0335
_diffrn_reflns_limit_h_max       11
_diffrn_reflns_limit_h_min       -13
_diffrn_reflns_limit_k_max       13
_diffrn_reflns_limit_k_min       -11
_diffrn_reflns_limit_l_max       7
_diffrn_reflns_limit_l_min       -7
_diffrn_reflns_number            2020
_diffrn_reflns_theta_full        31.96
_diffrn_reflns_theta_max         31.96
_diffrn_reflns_theta_min         3.17
_exptl_absorpt_coefficient_mu    2.554
_exptl_absorpt_correction_T_max  0.739
_exptl_absorpt_correction_T_min  0.646
_exptl_absorpt_correction_type   empirical
_exptl_absorpt_process_details   'via equivalents'
_exptl_crystal_colour            blue
_exptl_crystal_density_diffrn    3.389
_exptl_crystal_density_method    'not measured'
_exptl_crystal_description       prismatic
_exptl_crystal_F_000             436
_exptl_crystal_size_max          0.17
_exptl_crystal_size_mid          0.10
_exptl_crystal_size_min          0.08
_refine_diff_density_max         0.31
_refine_diff_density_min         -0.367
_refine_ls_extinction_coef       0.0184(14)
_refine_ls_extinction_expression Fc^*^=kFc[1+0.001xFc^2^\l^3^/sin(2\q)]^-1/4^
_refine_ls_extinction_method     SHELXL
_refine_ls_goodness_of_fit_ref   1.103
_refine_ls_matrix_type           full
_refine_ls_number_parameters     48
_refine_ls_number_reflns         703
_refine_ls_number_restraints     0
_refine_ls_restrained_S_all      1.103
_refine_ls_R_factor_gt           0.0184
_refine_ls_shift/su_max          0.001
_refine_ls_structure_factor_coef Fsqd
_refine_ls_weighting_details
'calc w=1/[\s^2^(Fo^2^)+(0.0164P)^2^+0.4203P] where P=(Fo^2^+2Fc^2^)/3'
_refine_ls_weighting_scheme      calc
_refine_ls_wR_factor_ref         0.044
_reflns_number_gt                627
_reflns_number_total             703
_reflns_threshold_expression     >2sigma(I)
_cod_data_source_file            ws5001.cif
_cod_data_source_block           210
_cod_original_cell_volume        437.16(19)
_cod_original_sg_symbol_H-M      C2/c
_cod_original_formula_sum        'Na1 O6 Si2 Ti1'
_cod_database_code               2104035
_cod_database_fobs_code          2104035
loop_
_symmetry_equiv_pos_as_xyz
'x, y, z'
'-x, y, -z+1/2'
'x+1/2, y+1/2, z'
'-x+1/2, y+1/2, -z+1/2'
'-x, -y, -z'
'x, -y, z-1/2'
'-x+1/2, -y+1/2, -z'
'x+1/2, -y+1/2, z-1/2'
loop_
_atom_site_label
_atom_site_fract_x
_atom_site_fract_y
_atom_site_fract_z
_atom_site_U_iso_or_equiv
_atom_site_adp_type
_atom_site_calc_flag
_atom_site_refinement_flags
_atom_site_occupancy
_atom_site_type_symbol
Na 0 0.30171(9) 0.25 0.01145(15) Uani d S 1 Na
Ti 0 0.90234(3) 0.25 0.00402(8) Uani d S 1 Ti
Si 0.29205(4) 0.08919(3) 0.24093(6) 0.00361(8) Uani d . 1 Si
O1 0.11692(10) 0.07952(9) 0.14581(16) 0.00521(16) Uani d . 1 O
O2 0.36098(10) 0.25314(10) 0.30424(16) 0.00709(17) Uani d . 1 O
O3 0.35205(9) 0.00817(10) 0.01533(15) 0.00620(16) Uani d . 1 O
loop_
_atom_site_aniso_label
_atom_site_aniso_U_11
_atom_site_aniso_U_22
_atom_site_aniso_U_33
_atom_site_aniso_U_12
_atom_site_aniso_U_13
_atom_site_aniso_U_23
Na 0.0138(4) 0.0092(3) 0.0088(3) 0 -0.0008(2) 0
Ti 0.00341(15) 0.00422(12) 0.00427(12) 0 0.00084(9) 0
Si 0.00329(16) 0.00474(14) 0.00284(13) -0.00034(10) 0.00096(10) -0.00008(9)
O1 0.0042(4) 0.0069(4) 0.0044(3) -0.0002(3) 0.0010(3) 0.0002(3)
O2 0.0076(4) 0.0067(3) 0.0071(3) -0.0018(3) 0.0021(3) 0.0000(3)
O3 0.0054(4) 0.0086(4) 0.0046(3) -0.0003(3) 0.0015(3) -0.0019(3)
loop_
_atom_type_symbol
_atom_type_description
_atom_type_scat_dispersion_real
_atom_type_scat_dispersion_imag
_atom_type_scat_source
Na Na 0.0362 0.0249 'International Tables Vol C Tables 4.2.6.8 and 6.1.1.4'
Ti Ti 0.2776 0.4457 'International Tables Vol C Tables 4.2.6.8 and 6.1.1.4'
Si Si 0.0817 0.0704 'International Tables Vol C Tables 4.2.6.8 and 6.1.1.4'
O O 0.0106 0.006 'International Tables Vol C Tables 4.2.6.8 and 6.1.1.4'
loop_
_geom_angle_atom_site_label_1
_geom_angle_atom_site_label_2
_geom_angle_atom_site_label_3
_geom_angle_site_symmetry_1
_geom_angle_site_symmetry_3
_geom_angle
O2 Na O2 8_455 7_556 156.68(6)
O2 Na O1 8_455 2 83.84(4)
O2 Na O1 7_556 2 77.15(4)
O2 Na O1 8_455 . 77.15(3)
O2 Na O1 7_556 . 83.84(4)
O1 Na O1 2 . 70.70(5)
O2 Na O3 8_455 4 137.18(4)
O2 Na O3 7_556 4 64.57(3)
O1 Na O3 2 4 138.00(3)
O1 Na O3 . 4 118.93(3)
O2 Na O3 8_455 3_455 64.57(3)
O2 Na O3 7_556 3_455 137.18(4)
O1 Na O3 2 3_455 118.93(3)
O1 Na O3 . 3_455 138.00(3)
O3 Na O3 4 3_455 82.45(5)
O2 Na O3 8_455 8_456 112.73(3)
O2 Na O3 7_556 8_456 81.59(3)
O1 Na O3 2 8_456 91.90(3)
O1 Na O3 . 8_456 159.45(3)
O3 Na O3 4 8_456 66.91(4)
O3 Na O3 3_455 8_456 59.87(2)
O2 Na O3 8_455 7 81.59(3)
O2 Na O3 7_556 7 112.73(3)
O1 Na O3 2 7 159.45(3)
O1 Na O3 . 7 91.90(3)
O3 Na O3 4 7 59.87(2)
O3 Na O3 3_455 7 66.91(4)
O3 Na O3 8_456 7 107.07(5)
O2 Na Si 8_455 7_556 168.69(3)
O2 Na Si 7_556 7_556 31.66(2)
O1 Na Si 2 7_556 107.06(3)
O1 Na Si . 7_556 103.23(3)
O3 Na Si 4 7_556 32.92(2)
O3 Na Si 3_455 7_556 110.96(4)
O3 Na Si 8_456 7_556 70.74(3)
O3 Na Si 7 7_556 87.10(3)
O2 Na Si 8_455 8_455 31.66(2)
O2 Na Si 7_556 8_455 168.69(3)
O1 Na Si 2 8_455 103.23(3)
O1 Na Si . 8_455 107.06(3)
O3 Na Si 4 8_455 110.96(4)
O3 Na Si 3_455 8_455 32.92(2)
O3 Na Si 8_456 8_455 87.10(3)
O3 Na Si 7 8_455 70.74(3)
Si Na Si 7_556 8_455 142.65(3)
O2 Na Ti 8_455 5_565 37.76(2)
O2 Na Ti 7_556 5_565 124.24(4)
O1 Na Ti 2 5_565 80.85(3)
O1 Na Ti . 5_565 40.45(2)
O3 Na Ti 4 5_565 134.84(2)
O3 Na Ti 3_455 5_565 98.24(3)
O3 Na Ti 8_456 5_565 149.929(19)
O3 Na Ti 7 5_565 78.76(2)
Si Na Ti 7_556 5_565 139.302(17)
Si Na Ti 8_455 5_565 66.608(19)
O2 Na Ti 8_455 5_566 124.24(4)
O2 Na Ti 7_556 5_566 37.76(2)
O1 Na Ti 2 5_566 40.45(2)
O1 Na Ti . 5_566 80.85(3)
O3 Na Ti 4 5_566 98.24(3)
O3 Na Ti 3_455 5_566 134.84(2)
O3 Na Ti 8_456 5_566 78.76(2)
O3 Na Ti 7 5_566 149.929(19)
Si Na Ti 7_556 5_566 66.608(19)
Si Na Ti 8_455 5_566 139.302(17)
Ti Na Ti 5_565 5_566 111.34(3)
O2 Ti O2 3_455 4 95.55(6)
O2 Ti O1 3_455 6_566 95.81(4)
O2 Ti O1 4 6_566 90.14(4)
O2 Ti O1 3_455 5_565 90.14(4)
O2 Ti O1 4 5_565 95.81(4)
O1 Ti O1 6_566 5_565 171.14(5)
O2 Ti O1 3_455 1_565 169.96(3)
O2 Ti O1 4 1_565 91.12(4)
O1 Ti O1 6_566 1_565 91.65(4)
O1 Ti O1 5_565 1_565 81.71(4)
O2 Ti O1 3_455 2_565 91.12(4)
O2 Ti O1 4 2_565 169.96(3)
O1 Ti O1 6_566 2_565 81.71(4)
O1 Ti O1 5_565 2_565 91.65(4)
O1 Ti O1 1_565 2_565 83.31(5)
O2 Ti Ti 3_455 5_576 94.56(3)
O2 Ti Ti 4 5_576 130.98(3)
O1 Ti Ti 6_566 5_576 41.10(3)
O1 Ti Ti 5_565 5_576 131.99(3)
O1 Ti Ti 1_565 5_576 86.65(3)
O1 Ti Ti 2_565 5_576 40.60(3)
O2 Ti Ti 3_455 5_575 130.98(3)
O2 Ti Ti 4 5_575 94.56(3)
O1 Ti Ti 6_566 5_575 131.99(3)
O1 Ti Ti 5_565 5_575 41.10(3)
O1 Ti Ti 1_565 5_575 40.60(3)
O1 Ti Ti 2_565 5_575 86.65(3)
Ti Ti Ti 5_576 5_575 113.65(2)
O2 Ti Na 3_455 5_565 84.56(3)
O2 Ti Na 4 5_565 48.45(3)
O1 Ti Na 6_566 5_565 138.18(3)
O1 Ti Na 5_565 5_565 48.84(3)
O1 Ti Na 1_565 5_565 94.34(3)
O1 Ti Na 2_565 5_565 140.09(3)
Ti Ti Na 5_576 5_565 178.841(16)
Ti Ti Na 5_575 5_565 67.51(2)
O2 Ti Na 3_455 5_566 48.45(3)
O2 Ti Na 4 5_566 84.56(3)
O1 Ti Na 6_566 5_566 48.84(3)
O1 Ti Na 5_565 5_566 138.18(3)
O1 Ti Na 1_565 5_566 140.09(3)
O1 Ti Na 2_565 5_566 94.34(3)
Ti Ti Na 5_576 5_566 67.51(2)
Ti Ti Na 5_575 5_566 178.841(16)
Na Ti Na 5_565 5_566 111.34(3)
O2 Ti Na 3_455 1_565 132.22(3)
O2 Ti Na 4 1_565 132.22(3)
O1 Ti Na 6_566 1_565 85.57(2)
O1 Ti Na 5_565 1_565 85.57(2)
O1 Ti Na 1_565 1_565 41.66(3)
O1 Ti Na 2_565 1_565 41.66(3)
Ti Ti Na 5_576 1_565 56.827(12)
Ti Ti Na 5_575 1_565 56.827(12)
Na Ti Na 5_565 1_565 124.332(15)
Na Ti Na 5_566 1_565 124.332(15)
O2 Si O1 . . 116.70(5)
O2 Si O3 . . 109.71(5)
O1 Si O3 . . 108.06(5)
O2 Si O3 . 6_556 105.83(5)
O1 Si O3 . 6_556 108.44(5)
O3 Si O3 . 6_556 107.76(4)
O2 Si Na . 7_556 52.37(3)
O1 Si Na . 7_556 131.31(4)
O3 Si Na . 7_556 120.34(4)
O3 Si Na 6_556 7_556 53.51(4)
O2 Si Na . 3_545 119.50(4)
O1 Si Na . 3_545 123.50(3)
O3 Si Na . 3_545 46.80(3)
O3 Si Na 6_556 3_545 60.99(4)
Na Si Na 7_556 3_545 89.24(2)
O2 Si Na . . 78.05(4)
O1 Si Na . . 40.35(3)
O3 Si Na . . 136.34(3)
O3 Si Na 6_556 . 111.09(4)
Na Si Na 7_556 . 98.80(2)
Na Si Na 3_545 . 161.60(2)
Si O1 Ti . 5_565 121.54(5)
Si O1 Ti . 1_545 123.48(5)
Ti O1 Ti 5_565 1_545 98.29(4)
Si O1 Na . . 113.77(4)
Ti O1 Na 5_565 . 90.71(3)
Ti O1 Na 1_545 . 102.99(4)
Si O2 Ti . 3_545 147.68(6)
Si O2 Na . 7_556 95.97(4)
Ti O2 Na 3_545 7_556 93.79(4)
Si O3 Si . 6 139.90(6)
Si O3 Na . 3_545 103.79(4)
Si O3 Na 6 3_545 93.57(5)
Si O3 Na . 7 116.00(5)
Si O3 Na 6 7 88.52(4)
Na O3 Na 3_545 7 113.09(4)
loop_
_geom_bond_atom_site_label_1
_geom_bond_atom_site_label_2
_geom_bond_site_symmetry_2
_geom_bond_distance
Na O2 8_455 2.4079(11)
Na O2 7_556 2.4079(11)
Na O1 2 2.4173(11)
Na O1 . 2.4173(11)
Na O3 4 2.4357(11)
Na O3 3_455 2.4357(11)
Na O3 8_456 2.8386(11)
Na O3 7 2.8386(11)
Na Si 7_556 3.0238(10)
Na Si 8_455 3.0238(10)
Na Ti 5_565 3.2105(8)
Na Ti 5_566 3.2105(8)
Ti O2 3_455 1.9701(10)
Ti O2 4 1.9701(10)
Ti O1 6_566 2.0832(10)
Ti O1 5_565 2.0832(10)
Ti O1 1_565 2.1043(9)
Ti O1 2_565 2.1043(9)
Ti Ti 5_576 3.1674(7)
Ti Ti 5_575 3.1674(7)
Ti Na 5_565 3.2105(8)
Ti Na 5_566 3.2105(8)
Ti Na 1_565 3.5438(11)
Si O2 . 1.5959(10)
Si O1 . 1.6295(11)
Si O3 . 1.6402(10)
Si O3 6_556 1.6467(9)
Si Na 7_556 3.0238(10)
Si Na 3_545 3.2446(8)
O1 Ti 5_565 2.0832(10)
O1 Ti 1_545 2.1043(9)
O2 Ti 3_545 1.9701(10)
O2 Na 7_556 2.4079(11)
O3 Si 6 1.6467(9)
O3 Na 3_545 2.4356(11)
O3 Na 7 2.8386(11)
