#------------------------------------------------------------------------------
#$Date: 2016-02-20 02:53:41 +0200 (Sat, 20 Feb 2016) $
#$Revision: 176768 $
#$URL: svn://www.crystallography.net/cod/cif/2/10/40/2104032.cif $
#------------------------------------------------------------------------------
#
# This file is available in the Crystallography Open Database (COD),
# http://www.crystallography.net/. The original data for this entry
# were provided by IUCr Journals, http://journals.iucr.org/.
#
# The file may be used within the scientific community so long as
# proper attribution is given to the journal article from which the
# data were obtained.
#
data_2104032
loop_
_publ_author_name
'Redhammer, G\"unther J.'
'Ohashi, Haruo'
'Roth, Georg'
_publ_section_title
;
 Single-crystal structure refinement of NaTiSi~2~O~6~ clinopyroxene at
 low temperatures (298<<i>T</i><100K)
;
_journal_issue                   6
_journal_name_full               'Acta Crystallographica Section B'
_journal_page_first              730
_journal_page_last               746
_journal_paper_doi               10.1107/S0108768103022018
_journal_volume                  59
_journal_year                    2003
_chemical_formula_moiety         'O6 Na1 Si2 Ti1'
_chemical_formula_sum            'Na O6 Si2 Ti'
_chemical_formula_weight         223.07
_space_group_IT_number           15
_symmetry_cell_setting           monoclinic
_symmetry_space_group_name_Hall  '-C 2yc'
_symmetry_space_group_name_H-M   'C 1 2/c 1'
_audit_creation_method           'WinGX routine CIF_UPDATE'
_cell_angle_alpha                90
_cell_angle_beta                 106.85(2)
_cell_angle_gamma                90
_cell_formula_units_Z            4
_cell_length_a                   9.703(3)
_cell_length_b                   8.8774(17)
_cell_length_c                   5.3038(15)
_cell_measurement_reflns_used    2905
_cell_measurement_temperature    240.0(10)
_cell_measurement_theta_max      32.28
_cell_measurement_theta_min      2.1
_cell_volume                     437.2(2)
_computing_cell_refinement       'STOE X-AREA'
_computing_data_collection       'STOE X-AREA'
_computing_data_reduction        'STOE X-AREA'
_computing_structure_refinement  'shelxl-97 (sheldrick, 1997b)'
_computing_structure_solution    'SHELXS-97 (Sheldrick, 1997a)'
_diffrn_measured_fraction_theta_full 0.925
_diffrn_measured_fraction_theta_max 0.925
_diffrn_measurement_device       '2-circle goniometer'
_diffrn_measurement_device_type  'STOE IPDS 2'
_diffrn_measurement_method       'rotation method'
_diffrn_radiation_type           mok\a
_diffrn_radiation_wavelength     0.71073
_diffrn_reflns_av_R_equivalents  0.0245
_diffrn_reflns_limit_h_max       13
_diffrn_reflns_limit_h_min       -11
_diffrn_reflns_limit_k_max       13
_diffrn_reflns_limit_k_min       -11
_diffrn_reflns_limit_l_max       7
_diffrn_reflns_limit_l_min       -7
_diffrn_reflns_number            2019
_diffrn_reflns_theta_full        31.95
_diffrn_reflns_theta_max         31.95
_diffrn_reflns_theta_min         3.17
_exptl_absorpt_coefficient_mu    2.553
_exptl_absorpt_correction_T_max  0.734
_exptl_absorpt_correction_T_min  0.635
_exptl_absorpt_correction_type   empirical
_exptl_absorpt_process_details   'via equivalents'
_exptl_crystal_colour            blue
_exptl_crystal_density_diffrn    3.389
_exptl_crystal_density_method    'not measured'
_exptl_crystal_description       prismatic
_exptl_crystal_F_000             436
_exptl_crystal_size_max          0.17
_exptl_crystal_size_mid          0.10
_exptl_crystal_size_min          0.08
_refine_diff_density_max         0.414
_refine_diff_density_min         -0.315
_refine_ls_extinction_coef       0.0226(17)
_refine_ls_extinction_expression Fc^*^=kFc[1+0.001xFc^2^\l^3^/sin(2\q)]^-1/4^
_refine_ls_extinction_method     SHELXL
_refine_ls_goodness_of_fit_ref   1.11
_refine_ls_matrix_type           full
_refine_ls_number_parameters     48
_refine_ls_number_reflns         703
_refine_ls_number_restraints     0
_refine_ls_restrained_S_all      1.11
_refine_ls_R_factor_gt           0.018
_refine_ls_shift/su_max          0
_refine_ls_structure_factor_coef Fsqd
_refine_ls_weighting_details
'calc w=1/[\s^2^(Fo^2^)+(0.0223P)^2^+0.2089P] where P=(Fo^2^+2Fc^2^)/3'
_refine_ls_weighting_scheme      calc
_refine_ls_wR_factor_ref         0.0437
_reflns_number_gt                623
_reflns_number_total             703
_reflns_threshold_expression     >2sigma(I)
_cod_data_source_file            ws5001.cif
_cod_data_source_block           240
_cod_original_cell_volume        437.25(19)
_cod_original_sg_symbol_H-M      C2/c
_cod_database_code               2104032
_cod_database_fobs_code          2104032
loop_
_symmetry_equiv_pos_as_xyz
'x, y, z'
'-x, y, -z+1/2'
'x+1/2, y+1/2, z'
'-x+1/2, y+1/2, -z+1/2'
'-x, -y, -z'
'x, -y, z-1/2'
'-x+1/2, -y+1/2, -z'
'x+1/2, -y+1/2, z-1/2'
loop_
_atom_site_label
_atom_site_fract_x
_atom_site_fract_y
_atom_site_fract_z
_atom_site_U_iso_or_equiv
_atom_site_adp_type
_atom_site_calc_flag
_atom_site_refinement_flags
_atom_site_occupancy
_atom_site_type_symbol
Na 0 0.30159(8) 0.25 0.01269(15) Uani d S 1 Na
Ti 0 0.90214(3) 0.25 0.00437(8) Uani d S 1 Ti
Si 0.29202(3) 0.08917(3) 0.24086(5) 0.00393(8) Uani d . 1 Si
O1 0.11691(9) 0.07933(9) 0.14566(15) 0.00571(15) Uani d . 1 O
O2 0.36091(9) 0.25303(9) 0.30389(15) 0.00752(16) Uani d . 1 O
O3 0.35210(9) 0.00808(10) 0.01527(14) 0.00689(15) Uani d . 1 O
loop_
_atom_site_aniso_label
_atom_site_aniso_U_11
_atom_site_aniso_U_22
_atom_site_aniso_U_33
_atom_site_aniso_U_12
_atom_site_aniso_U_13
_atom_site_aniso_U_23
Na 0.0156(4) 0.0098(3) 0.0095(3) 0 -0.0013(2) 0
Ti 0.00398(14) 0.00445(12) 0.00433(11) 0 0.00066(9) 0
Si 0.00370(15) 0.00484(13) 0.00305(12) -0.00045(9) 0.00069(10) -0.00007(8)
O1 0.0045(4) 0.0078(3) 0.0044(3) -0.0006(3) 0.0007(3) 0.0000(2)
O2 0.0083(4) 0.0070(3) 0.0072(3) -0.0025(3) 0.0021(3) -0.0007(2)
O3 0.0064(4) 0.0092(3) 0.0050(3) 0.0001(3) 0.0016(2) -0.0022(2)
loop_
_atom_type_symbol
_atom_type_description
_atom_type_scat_dispersion_real
_atom_type_scat_dispersion_imag
_atom_type_scat_source
Na Na 0.0362 0.0249 'International Tables Vol C Tables 4.2.6.8 and 6.1.1.4'
Ti Ti 0.2776 0.4457 'International Tables Vol C Tables 4.2.6.8 and 6.1.1.4'
Si Si 0.0817 0.0704 'International Tables Vol C Tables 4.2.6.8 and 6.1.1.4'
O O 0.0106 0.006 'International Tables Vol C Tables 4.2.6.8 and 6.1.1.4'
loop_
_geom_angle_atom_site_label_1
_geom_angle_atom_site_label_2
_geom_angle_atom_site_label_3
_geom_angle_site_symmetry_1
_geom_angle_site_symmetry_3
_geom_angle
O2 Na O2 8_455 7_556 156.78(5)
O2 Na O1 8_455 2 83.92(3)
O2 Na O1 7_556 2 77.14(3)
O2 Na O1 8_455 . 77.14(3)
O2 Na O1 7_556 . 83.92(3)
O1 Na O1 2 . 70.68(5)
O2 Na O3 8_455 4 137.12(4)
O2 Na O3 7_556 4 64.54(3)
O1 Na O3 2 4 137.97(3)
O1 Na O3 . 4 119.00(3)
O2 Na O3 8_455 3_455 64.54(3)
O2 Na O3 7_556 3_455 137.12(4)
O1 Na O3 2 3_455 119.00(3)
O1 Na O3 . 3_455 137.97(3)
O3 Na O3 4 3_455 82.38(5)
O2 Na O3 8_455 8_456 112.75(3)
O2 Na O3 7_556 8_456 81.54(3)
O1 Na O3 2 8_456 91.95(3)
O1 Na O3 . 8_456 159.49(3)
O3 Na O3 4 8_456 66.83(4)
O3 Na O3 3_455 8_456 59.87(2)
O2 Na O3 8_455 7 81.54(3)
O2 Na O3 7_556 7 112.75(3)
O1 Na O3 2 7 159.49(3)
O1 Na O3 . 7 91.95(3)
O3 Na O3 4 7 59.87(2)
O3 Na O3 3_455 7 66.83(4)
O3 Na O3 8_456 7 106.98(4)
O2 Na Si 8_455 7_556 168.63(3)
O2 Na Si 7_556 7_556 31.64(2)
O1 Na Si 2 7_556 107.04(3)
O1 Na Si . 7_556 103.30(3)
O3 Na Si 4 7_556 32.919(19)
O3 Na Si 3_455 7_556 110.91(3)
O3 Na Si 8_456 7_556 70.68(3)
O3 Na Si 7 7_556 87.10(3)
O2 Na Si 8_455 8_455 31.64(2)
O2 Na Si 7_556 8_455 168.63(3)
O1 Na Si 2 8_455 103.30(3)
O1 Na Si . 8_455 107.04(3)
O3 Na Si 4 8_455 110.91(3)
O3 Na Si 3_455 8_455 32.919(19)
O3 Na Si 8_456 8_455 87.10(3)
O3 Na Si 7 8_455 70.68(3)
Si Na Si 7_556 8_455 142.59(3)
O2 Na Ti 8_455 5_565 37.75(2)
O2 Na Ti 7_556 5_565 124.32(3)
O1 Na Ti 2 5_565 80.89(3)
O1 Na Ti . 5_565 40.45(2)
O3 Na Ti 4 5_565 134.84(2)
O3 Na Ti 3_455 5_565 98.21(3)
O3 Na Ti 8_456 5_565 149.947(18)
O3 Na Ti 7 5_565 78.75(2)
Si Na Ti 7_556 5_565 139.338(16)
Si Na Ti 8_455 5_565 66.595(19)
O2 Na Ti 8_455 5_566 124.32(3)
O2 Na Ti 7_556 5_566 37.75(2)
O1 Na Ti 2 5_566 40.45(2)
O1 Na Ti . 5_566 80.89(3)
O3 Na Ti 4 5_566 98.21(3)
O3 Na Ti 3_455 5_566 134.84(2)
O3 Na Ti 8_456 5_566 78.75(2)
O3 Na Ti 7 5_566 149.947(18)
Si Na Ti 7_556 5_566 66.595(19)
Si Na Ti 8_455 5_566 139.338(16)
Ti Na Ti 5_565 5_566 111.41(3)
O2 Ti O2 3_455 4 95.54(5)
O2 Ti O1 3_455 6_566 95.90(4)
O2 Ti O1 4 6_566 90.19(4)
O2 Ti O1 3_455 5_565 90.19(4)
O2 Ti O1 4 5_565 95.90(4)
O1 Ti O1 6_566 5_565 170.94(5)
O2 Ti O1 3_455 1_565 169.91(3)
O2 Ti O1 4 1_565 91.14(4)
O1 Ti O1 6_566 1_565 91.62(3)
O1 Ti O1 5_565 1_565 81.59(4)
O2 Ti O1 3_455 2_565 91.14(4)
O2 Ti O1 4 2_565 169.91(3)
O1 Ti O1 6_566 2_565 81.59(4)
O1 Ti O1 5_565 2_565 91.62(3)
O1 Ti O1 1_565 2_565 83.30(5)
O2 Ti Ti 3_455 5_576 94.63(3)
O2 Ti Ti 4 5_576 130.99(3)
O1 Ti Ti 6_566 5_576 41.06(2)
O1 Ti Ti 5_565 5_576 131.87(3)
O1 Ti Ti 1_565 5_576 86.62(3)
O1 Ti Ti 2_565 5_576 40.53(2)
O2 Ti Ti 3_455 5_575 130.99(3)
O2 Ti Ti 4 5_575 94.63(3)
O1 Ti Ti 6_566 5_575 131.87(3)
O1 Ti Ti 5_565 5_575 41.06(2)
O1 Ti Ti 1_565 5_575 40.53(2)
O1 Ti Ti 2_565 5_575 86.62(3)
Ti Ti Ti 5_576 5_575 113.54(2)
O2 Ti Na 3_455 5_565 84.57(3)
O2 Ti Na 4 5_565 48.50(3)
O1 Ti Na 6_566 5_565 138.29(3)
O1 Ti Na 5_565 5_565 48.89(3)
O1 Ti Na 1_565 5_565 94.29(3)
O1 Ti Na 2_565 5_565 140.11(2)
Ti Ti Na 5_576 5_565 178.938(15)
Ti Ti Na 5_575 5_565 67.53(2)
O2 Ti Na 3_455 5_566 48.50(3)
O2 Ti Na 4 5_566 84.57(3)
O1 Ti Na 6_566 5_566 48.89(3)
O1 Ti Na 5_565 5_566 138.29(3)
O1 Ti Na 1_565 5_566 140.11(2)
O1 Ti Na 2_565 5_566 94.29(3)
Ti Ti Na 5_576 5_566 67.53(2)
Ti Ti Na 5_575 5_566 178.938(15)
Na Ti Na 5_565 5_566 111.41(3)
O2 Ti Na 3_455 1_565 132.23(3)
O2 Ti Na 4 1_565 132.23(3)
O1 Ti Na 6_566 1_565 85.47(2)
O1 Ti Na 5_565 1_565 85.47(2)
O1 Ti Na 1_565 1_565 41.65(2)
O1 Ti Na 2_565 1_565 41.65(2)
Ti Ti Na 5_576 1_565 56.768(12)
Ti Ti Na 5_575 1_565 56.768(12)
Na Ti Na 5_565 1_565 124.294(14)
Na Ti Na 5_566 1_565 124.294(14)
O2 Si O1 . . 116.74(4)
O2 Si O3 . . 109.69(5)
O1 Si O3 . . 108.03(5)
O2 Si O3 . 6_556 105.86(5)
O1 Si O3 . 6_556 108.43(5)
O3 Si O3 . 6_556 107.75(4)
O2 Si Na . 7_556 52.40(3)
O1 Si Na . 7_556 131.32(3)
O3 Si Na . 7_556 120.36(4)
O3 Si Na 6_556 7_556 53.51(4)
O2 Si Na . 3_545 119.55(4)
O1 Si Na . 3_545 123.42(3)
O3 Si Na . 3_545 46.79(3)
O3 Si Na 6_556 3_545 61.00(3)
Na Si Na 7_556 3_545 89.30(2)
O2 Si Na . . 78.03(4)
O1 Si Na . . 40.43(3)
O3 Si Na . . 136.37(3)
O3 Si Na 6_556 . 111.07(4)
Na Si Na 7_556 . 98.74(2)
Na Si Na 3_545 . 161.57(2)
Si O1 Ti . 5_565 121.52(5)
Si O1 Ti . 1_545 123.50(5)
Ti O1 Ti 5_565 1_545 98.41(4)
Si O1 Na . . 113.69(4)
Ti O1 Na 5_565 . 90.66(3)
Ti O1 Na 1_545 . 103.01(4)
Si O2 Ti . 3_545 147.73(5)
Si O2 Na . 7_556 95.95(4)
Ti O2 Na 3_545 7_556 93.75(4)
Si O3 Si . 6 139.88(6)
Si O3 Na . 3_545 103.81(4)
Si O3 Na 6 3_545 93.57(4)
Si O3 Na . 7 115.94(5)
Si O3 Na 6 7 88.53(4)
Na O3 Na 3_545 7 113.17(4)
loop_
_geom_bond_atom_site_label_1
_geom_bond_atom_site_label_2
_geom_bond_site_symmetry_2
_geom_bond_distance
Na O2 8_455 2.4091(11)
Na O2 7_556 2.4091(11)
Na O1 2 2.4187(11)
Na O1 . 2.4187(11)
Na O3 4 2.4360(11)
Na O3 3_455 2.4360(11)
Na O3 8_456 2.8398(11)
Na O3 7 2.8398(11)
Na Si 7_556 3.0242(9)
Na Si 8_455 3.0242(9)
Na Ti 5_565 3.2099(8)
Na Ti 5_566 3.2099(8)
Ti O2 3_455 1.9696(9)
Ti O2 4 1.9696(9)
Ti O1 6_566 2.0827(10)
Ti O1 5_565 2.0827(10)
Ti O1 1_565 2.1051(9)
Ti O1 2_565 2.1051(9)
Ti Ti 5_576 3.1704(7)
Ti Ti 5_575 3.1704(7)
Ti Na 5_565 3.2099(8)
Ti Na 5_566 3.2099(8)
Ti Na 1_565 3.5461(10)
Si O2 . 1.5952(9)
Si O1 . 1.6286(10)
Si O3 . 1.6413(9)
Si O3 6_556 1.6467(9)
Si Na 7_556 3.0242(9)
Si Na 3_545 3.2459(8)
O1 Ti 5_565 2.0827(10)
O1 Ti 1_545 2.1051(9)
O2 Ti 3_545 1.9696(9)
O2 Na 7_556 2.4091(11)
O3 Si 6 1.6467(9)
O3 Na 3_545 2.4360(11)
O3 Na 7 2.8398(10)
