#------------------------------------------------------------------------------
#$Date: 2016-02-14 16:26:36 +0200 (Sun, 14 Feb 2016) $
#$Revision: 176435 $
#$URL: svn://www.crystallography.net/cod/cif/2/10/44/2104443.cif $
#------------------------------------------------------------------------------
#
# This file is available in the Crystallography Open Database (COD),
# http://www.crystallography.net/. The original data for this entry
# were provided by IUCr Journals, http://journals.iucr.org/.
#
# The file may be used within the scientific community so long as
# proper attribution is given to the journal article from which the
# data were obtained.
#
data_2104443
loop_
_publ_author_name
'S\/lawi\'nski, W.'
'Przenios\/lo, R.'
'Sosnowska, I.'
'Bieringer, M.'
'Margiolaki, I.'
'Suard, E.'
_publ_section_title
;
 Modulation of atomic positions in CaCu~<i>x~</i>Mn~7{-~<i>x</i>}O~12~
 (<i>x</i> {\/leq} 0.1)
;
_journal_coeditor_code           SN5079
_journal_issue                   5
_journal_name_full               'Acta Crystallographica Section B'
_journal_page_first              535
_journal_page_last               542
_journal_paper_doi               10.1107/S0108768109025300
_journal_volume                  65
_journal_year                    2009
_chemical_formula_sum            'Ca Mn7 O12'
_chemical_formula_weight         616.6
_chemical_name_systematic        ' ?'
_space_group_ssg_name            R-3(00\g)0
_symmetry_cell_setting           trigonal
_cell_angle_alpha                90
_cell_angle_beta                 90
_cell_angle_gamma                120
_cell_formula_units_Z            18
_cell_length_a                   10.451980(10)
_cell_length_b                   10.451980(10)
_cell_length_c                   6.341717(8)
_cell_modulation_dimension       1
_cell_volume                     599.9770(11)
_computing_publication_material
'Jana2006 (Petricek, Dusek & Palatinus, 2006)'
_computing_structure_refinement
'Jana2006 (Petricek, Dusek & Palatinus, 2006)'
_diffrn_ambient_temperature      210
_diffrn_measurement_device_type  'ESRF ID-31'
_diffrn_radiation_type           synchrotron
_diffrn_radiation_wavelength     0.39996
_exptl_absorpt_coefficient_mu    12.912
_exptl_crystal_density_diffrn    5.1256
_exptl_crystal_F_000             873
_pd_instr_location               ' ?'
_pd_meas_2theta_range_inc        0.001
_pd_meas_2theta_range_max        47.938
_pd_meas_2theta_range_min        0.400
_pd_meas_number_of_points        47539
_pd_proc_2theta_range_inc        0.001
_pd_proc_2theta_range_max        40.999
_pd_proc_2theta_range_min        2.001
_pd_proc_ls_background_function  '6 Legendre polynoms'
_pd_proc_ls_pref_orient_corr     none
_pd_proc_ls_profile_function     Pseudo-Voigt
_pd_proc_ls_prof_R_factor        0.1777
_pd_proc_ls_prof_wR_expected     0.1626
_pd_proc_ls_prof_wR_factor       0.2542
_refine_ls_number_constraints    0
_refine_ls_number_parameters     59
_refine_ls_number_restraints     0
_refine_ls_shift/su_max          0.1857
_refine_ls_shift/su_mean         0.0318
_refine_ls_weighting_scheme      sigma
_cod_data_source_file            sn5079.cif
_cod_data_source_block           t210
_cod_original_cell_volume        599.9770
_cod_original_formula_sum        'Ca1 Mn7 O12'
_cod_database_code               2104443
loop_
_space_group_symop_ssg_id
_space_group_symop_ssg_operation_algebraic
1 x1,x2,x3,x4
2 -x2,x1-x2,x3,x4
3 -x1+x2,-x1,x3,x4
4 -x1,-x2,-x3,-x4
5 x2,-x1+x2,-x3,-x4
6 x1-x2,x1,-x3,-x4
7 x1+2/3,x2+1/3,x3+1/3,x4
8 -x2+2/3,x1-x2+1/3,x3+1/3,x4
9 -x1+x2+2/3,-x1+1/3,x3+1/3,x4
10 -x1+2/3,-x2+1/3,-x3+1/3,-x4
11 x2+2/3,-x1+x2+1/3,-x3+1/3,-x4
12 x1-x2+2/3,x1+1/3,-x3+1/3,-x4
13 x1+1/3,x2+2/3,x3+2/3,x4
14 -x2+1/3,x1-x2+2/3,x3+2/3,x4
15 -x1+x2+1/3,-x1+2/3,x3+2/3,x4
16 -x1+1/3,-x2+2/3,-x3+2/3,-x4
17 x2+1/3,-x1+x2+2/3,-x3+2/3,-x4
18 x1-x2+1/3,x1+2/3,-x3+2/3,-x4
loop_
_atom_site_type_symbol
_atom_site_label
_atom_site_fract_x
_atom_site_fract_y
_atom_site_fract_z
_atom_site_U_iso_or_equiv
_atom_site_adp_type
_atom_site_calc_flag
_atom_site_refinement_flags
_atom_site_occupancy
_atom_site_disorder_assembly
_atom_site_disorder_group
Ca Ca 0 0 0 0.0089(5) Uiso d . 1 . .
Mn Mn1 0.5 0 0 0.00439(17) Uiso d . 1 . .
Mn Mn2 0.5 0.5 0.5 0.00312(15) Uiso d . 1 . .
Mn Mn3 0 0 0.5 0.0034(3) Uiso d . 1 . .
O O1 0.2229(3) 0.2743(3) 0.0813(4) 0.0054(5) Uiso d . 1 . .
O O2 0.3412(3) 0.5221(3) 0.3412(4) 0.0027(5) Uiso d . 1 . .
loop_
_atom_site_aniso_label
_atom_site_aniso_U_11
_atom_site_aniso_U_22
_atom_site_aniso_U_33
_atom_site_aniso_U_12
_atom_site_aniso_U_13
_atom_site_aniso_U_23
_atom_site_aniso_type_symbol
? ? ? ? ? ? ? ?
loop_
_atom_site_displace_Fourier_atom_site_label
_atom_site_displace_Fourier_axis
_atom_site_displace_Fourier_wave_vector_seq_id
_atom_site_displace_Fourier_param_cos
_atom_site_displace_Fourier_param_sin
Ca x 1 0 0
Ca y 1 0 0
Ca z 1 0 -0.002(2)
Mn1 x 1 0 0.0067(4)
Mn1 y 1 0 -0.0033(5)
Mn1 z 1 0 0.0058(6)
Mn2 x 1 0 0.0038(3)
Mn2 y 1 0 0.0031(4)
Mn2 z 1 0 -0.0005(7)
Mn3 x 1 0 0
Mn3 y 1 0 0
Mn3 z 1 0 0.0039(14)
O1 x 1 0.0003(11) 0.0067(9)
O1 y 1 -0.0010(10) 0.0073(10)
O1 z 1 -0.0013(18) 0.0009(15)
O2 x 1 -0.0035(12) 0.0034(9)
O2 y 1 -0.0032(11) -0.0025(10)
O2 z 1 -0.0048(16) 0.0055(15)
loop_
_atom_site_displace_special_func_atom_site_label
_atom_site_displace_special_func_sawtooth_ax
_atom_site_displace_special_func_sawtooth_ay
_atom_site_displace_special_func_sawtooth_az
_atom_site_displace_special_func_sawtooth_c
_atom_site_displace_special_func_sawtooth_w
? ? ? ? ? ?
loop_
_atom_site_Fourier_wave_vector_seq_id
_atom_site_Fourier_wave_vector_x
_atom_site_Fourier_wave_vector_z
1 0.00000 0.91729
loop_
_atom_site_occ_Fourier_atom_site_label
_atom_site_occ_Fourier_wave_vector_seq_id
_atom_site_occ_Fourier_param_cos
_atom_site_occ_Fourier_param_sin
? ? ? ?
loop_
_atom_site_occ_special_func_atom_site_label
_atom_site_occ_special_func_crenel_c
_atom_site_occ_special_func_crenel_w
? ? ?
loop_
_atom_site_U_Fourier_atom_site_label
_atom_site_U_Fourier_tens_elem
_atom_site_U_Fourier_wave_vector_seq_id
_atom_site_U_Fourier_param_cos
_atom_site_U_Fourier_param_sin
? ? ? ? ?
loop_
_atom_type_symbol
_atom_type_scat_dispersion_real
_atom_type_scat_dispersion_imag
_atom_type_scat_source
Ca 0.090 0.099 'International Tables Vol C tables 4.2.6.8 and 6.1.1.1'
Mn 0.171 0.248 'International Tables Vol C tables 4.2.6.8 and 6.1.1.1'
O 0.002 0.002 'International Tables Vol C tables 4.2.6.8 and 6.1.1.1'
loop_
_cell_wave_vector_seq_id
_cell_wave_vector_x
_cell_wave_vector_y
_cell_wave_vector_z
1 0.00000 0.00000 0.91729
loop_
_geom_angle_atom_site_label_1
_geom_angle_atom_site_label_2
_geom_angle_atom_site_label_3
_geom_angle_site_symmetry_1
_geom_angle_site_symmetry_2
_geom_angle_site_symmetry_3
_geom_angle_publ_flag
_geom_angle_max
_geom_angle_min
_geom_angle_av
? ? ? ? ? ? ? ? ? ?
loop_
_geom_bond_atom_site_label_1
_geom_bond_atom_site_label_2
_geom_bond_site_symmetry_1
_geom_bond_site_symmetry_2
_geom_bond_publ_flag
_geom_bond_distance_max
_geom_bond_distance_min
_geom_bond_distance_av
Ca O1 . . yes 2.782(8) 2.594(8) 2.688(8)
Ca O1 . 2_555 yes 2.782(11) 2.594(11) 2.688(11)
Ca O1 . 3_555 yes 2.782(13) 2.594(13) 2.688(14)
Ca O1 . 4_555 yes 2.782(8) 2.594(8) 2.688(8)
Ca O1 . 5_555 yes 2.782(11) 2.594(11) 2.688(11)
Ca O1 . 6_555 yes 2.782(13) 2.594(13) 2.688(14)
Ca O2 . 7_444 yes 2.605(15) 2.549(15) 2.577(13)
Ca O2 . 8_554 yes 2.605(15) 2.549(14) 2.577(12)
Ca O2 . 9_454 yes 2.605(17) 2.549(17) 2.577(14)
Ca O2 . 16_555 yes 2.605(15) 2.549(15) 2.577(13)
Ca O2 . 17_445 yes 2.605(15) 2.549(14) 2.577(12)
Ca O2 . 18_545 yes 2.605(17) 2.549(17) 2.577(14)
Mn1 O1 . 13_544 yes 1.926(12) 1.904(12) 1.915(12)
Mn1 O1 . 2_655 yes 2.900(14) 2.534(14) 2.717(14)
Mn1 O1 . 10_555 yes 1.926(12) 1.904(12) 1.915(12)
Mn1 O1 . 5_555 yes 2.900(14) 2.534(14) 2.717(14)
Mn1 O2 . 13_544 yes 1.941(8) 1.879(8) 1.910(8)
Mn1 O2 . 2_655 yes 2.860(14) 2.763(14) 2.811(13)
Mn1 O2 . 10_555 yes 1.941(8) 1.879(8) 1.910(8)
Mn1 O2 . 5_555 yes 2.860(14) 2.763(14) 2.811(13)
Mn2 O1 . 8_555 yes 2.078(12) 2.013(13) 2.044(13)
Mn2 O1 . 15_555 yes 1.910(13) 1.868(13) 1.890(12)
Mn2 O1 . 17_555 yes 2.078(12) 2.013(13) 2.044(13)
Mn2 O1 . 12_555 yes 1.910(13) 1.868(13) 1.890(12)
Mn2 O2 . . yes 2.106(12) 1.985(12) 2.045(13)
Mn2 O2 . 4_666 yes 2.106(12) 1.985(12) 2.045(13)
Mn3 O2 . 7_445 yes 1.955(11) 1.865(11) 1.909(12)
Mn3 O2 . 8_555 yes 1.955(10) 1.865(9) 1.909(10)
Mn3 O2 . 9_455 yes 1.955(14) 1.865(14) 1.909(15)
Mn3 O2 . 16_555 yes 1.955(11) 1.865(11) 1.909(12)
Mn3 O2 . 17_445 yes 1.955(10) 1.865(9) 1.909(10)
Mn3 O2 . 18_545 yes 1.955(14) 1.865(14) 1.909(15)
O1 O1 . 8_555 yes 2.784(16) 2.681(16) 2.732(16)
O1 O1 . 15_554 yes 2.784(14) 2.681(14) 2.733(14)
O1 O1 . 5_555 yes 2.85(2) 2.81(2) 2.83(2)
O1 O1 . 6_555 yes 2.855(19) 2.809(19) 2.834(19)
O1 O2 . . yes 2.829(14) 2.763(14) 2.796(14)
O1 O2 . 8_554 yes 2.896(14) 2.713(14) 2.804(15)
O1 O2 . 15_554 yes 2.950(18) 2.755(18) 2.85(2)
O1 O2 . 16_555 yes 2.673(13) 2.545(14) 2.609(14)
O1 O2 . 11_455 yes 2.776(19) 2.756(19) 2.77(2)
O1 O2 . 18_545 yes 2.971(15) 2.889(15) 2.930(15)
O2 O2 . 2_665 yes 2.757(16) 2.617(16) 2.688(17)
O2 O2 . 3_565 yes 2.76(2) 2.62(2) 2.69(2)
O2 O2 . 11_455 yes 2.771(15) 2.658(15) 2.715(15)
O2 O2 . 12_555 yes 2.771(13) 2.658(13) 2.714(14)
loop_
_geom_hbond_atom_site_label_D
_geom_hbond_atom_site_label_H
_geom_hbond_atom_site_label_A
_geom_hbond_site_symmetry_D
_geom_hbond_site_symmetry_H
_geom_hbond_site_symmetry_A
_geom_hbond_distance_DH
_geom_hbond_distance_HA
_geom_hbond_distance_DA
_geom_hbond_angle_DHA
_geom_hbond_publ_flag
? ? ? ? ? ? ? ? ? ? ?
loop_
_geom_torsion_atom_site_label_1
_geom_torsion_atom_site_label_2
_geom_torsion_atom_site_label_3
_geom_torsion_atom_site_label_4
_geom_torsion_site_symmetry_1
_geom_torsion_site_symmetry_2
_geom_torsion_site_symmetry_3
_geom_torsion_site_symmetry_4
_geom_torsion
_geom_torsion_publ_flag
? ? ? ? ? ? ? ? ? ?
loop_
_pd_proc_info_excluded_regions
'from 0.4 to 2.000'
'from 8.35 to 8.500'
'from 13.7 to 13.840'
'from 16.05 to 16.500'
'from 41 to 47.986'
