#------------------------------------------------------------------------------
#$Date: 2016-02-14 16:26:36 +0200 (Sun, 14 Feb 2016) $
#$Revision: 176435 $
#$URL: svn://www.crystallography.net/cod/cif/2/10/51/2105131.cif $
#------------------------------------------------------------------------------
#
# This file is available in the Crystallography Open Database (COD),
# http://www.crystallography.net/. The original data for this entry
# were provided by IUCr Journals, http://journals.iucr.org/.
#
# The file may be used within the scientific community so long as
# proper attribution is given to the journal article from which the
# data were obtained.
#
data_2105131
loop_
_publ_author_name
'Merlini, Marco'
'Perchiazzi, Natale'
'Hanfland, Michael'
'Bossak, Alexei'
_publ_section_title
;
 Phase transition at high pressure in Cu~2~CO~3~(OH)~2~ related to the
 reduction of the Jahn--Teller effect
;
_journal_coeditor_code           PS5017
_journal_issue                   3
_journal_name_full               'Acta Crystallographica Section B'
_journal_page_first              266
_journal_page_last               274
_journal_paper_doi               10.1107/S0108768112011226
_journal_volume                  68
_journal_year                    2012
_chemical_formula_sum            'C Cu2 O5'
_chemical_formula_weight         219.1
_chemical_name_systematic        ' ?'
_space_group_IT_number           14
_symmetry_cell_setting           monoclinic
_symmetry_space_group_name_Hall  '-P 2yab'
_symmetry_space_group_name_H-M   'P 1 21/a 1'
_cell_angle_alpha                90
_cell_angle_beta                 98.71
_cell_angle_gamma                90
_cell_formula_units_Z            4
_cell_length_a                   9.473
_cell_length_b                   11.977
_cell_length_c                   3.2377
_cell_measurement_temperature    293
_cell_volume                     363.107
_computing_cell_refinement       unknown
_computing_data_collection       unknown
_computing_data_reduction        unknown
_computing_molecular_graphics    unknown
_computing_structure_solution    unknown
_diffrn_ambient_temperature      293
_diffrn_measured_fraction_theta_full 0.56
_diffrn_measured_fraction_theta_max 0.39
_diffrn_radiation_type           X-ray
_diffrn_radiation_wavelength     0.414
_diffrn_reflns_av_sigmaI/netI    0.0279
_diffrn_reflns_limit_h_max       11
_diffrn_reflns_limit_h_min       -11
_diffrn_reflns_limit_k_max       8
_diffrn_reflns_limit_k_min       -8
_diffrn_reflns_limit_l_max       4
_diffrn_reflns_limit_l_min       -4
_diffrn_reflns_number            724
_diffrn_reflns_theta_full        8.95
_diffrn_reflns_theta_max         15.27
_diffrn_reflns_theta_min         2.53
_exptl_absorpt_coefficient_mu    2.587
_exptl_absorpt_correction_T_max  1
_exptl_absorpt_correction_T_min  1
_exptl_absorpt_correction_type   none
_exptl_crystal_density_diffrn    4.0066
_exptl_crystal_F_000             416
_refine_ls_extinction_method     none
_refine_ls_goodness_of_fit_ref   5.69
_refine_ls_number_constraints    0
_refine_ls_number_parameters     35
_refine_ls_number_reflns         455
_refine_ls_number_restraints     3
_refine_ls_R_factor_all          0.1457
_refine_ls_R_factor_gt           0.0868
_refine_ls_shift/su_max          0.0005
_refine_ls_shift/su_mean         0.0001
_refine_ls_structure_factor_coef F
_refine_ls_weighting_details     w=1/(\s^2^(F)+0.0001F^2^)
_refine_ls_weighting_scheme      sigma
_refine_ls_wR_factor_gt          0.1273
_refine_ls_wR_factor_ref         0.1312
_reflns_number_gt                308
_reflns_number_total             455
_reflns_threshold_expression     I>3\s(I)
_cod_data_source_file            ps5017.cif
_cod_data_source_block           malachite_p0
_cod_depositor_comments
;
The following automatic conversions were performed:

'_exptl_absorpt_correction_type' value 'None' changed to 'none'
according to /home/saulius/struct/CIF-dictionaries/cif_core.dic
dictionary named 'cif_core.dic' version 2.4.1 from 2010-06-29.

Automatic conversion script
Id: cif_fix_values 1891 2012-01-12 08:04:46Z andrius 
;
_cod_original_cell_volume        363.1069
_cod_original_formula_sum        'C1 Cu2 O5'
_cod_database_code               2105131
_cod_database_fobs_code          2105131
loop_
_symmetry_equiv_pos_site_id
_symmetry_equiv_pos_as_xyz
1 x,y,z
2 -x+1/2,y+1/2,-z
3 -x,-y,-z
4 x+1/2,-y+1/2,z
loop_
_atom_site_type_symbol
_atom_site_label
_atom_site_fract_x
_atom_site_fract_y
_atom_site_fract_z
_atom_site_U_iso_or_equiv
_atom_site_adp_type
_atom_site_calc_flag
_atom_site_occupancy
_atom_site_symmetry_multiplicity
Cu Cu1 0.4995(5) 0.2884(9) 0.8936(12) 0.0113(15) Uiso d 1 4
Cu Cu2 0.2324(4) 0.3929(9) 0.3891(10) 0.0086(15) Uiso d 1 4
O O1 0.132(2) 0.137(5) 0.343(7) 0.024(7) Uiso d 1 4
O O2 0.342(2) 0.235(3) 0.459(7) 0.016(7) Uiso d 1 4
O O3 0.335(2) 0.059(3) 0.633(6) 0.012(6) Uiso d 1 4
O O4 0.083(2) 0.347(5) 0.918(6) 0.009(6) Uiso d 1 4
O O5 0.3779(17) 0.409(4) 0.860(4) 0.000(5) Uiso d 1 4
C C 0.268(2) 0.145(3) 0.461(10) 0.010(10) Uiso d 1 4
loop_
_atom_type_symbol
_atom_type_scat_dispersion_real
_atom_type_scat_dispersion_imag
_atom_type_scat_source
Cu 0.2485 0.4750 'International Tables Vol C tables 4.2.6.8 and 6.1.1.1'
C 0.0000 0.0005 'International Tables Vol C tables 4.2.6.8 and 6.1.1.1'
O 0.0019 0.0019 'International Tables Vol C tables 4.2.6.8 and 6.1.1.1'
loop_
_geom_bond_atom_site_label_1
_geom_bond_atom_site_label_2
_geom_bond_site_symmetry_2
_geom_bond_distance
_geom_bond_publ_flag
Cu1 O1 4_555 2.49(3) yes
Cu1 O1 4_556 1.98(3) yes
Cu1 O2 . 1.99(2) yes
Cu1 O2 1_556 2.61(3) yes
Cu1 O4 4_555 1.80(5) yes
Cu1 O5 . 1.84(4) yes
Cu2 O2 . 2.15(4) yes
Cu2 O3 2_556 2.09(4) yes
Cu2 O4 1_554 1.99(2) yes
Cu2 O4 . 2.44(2) yes
Cu2 O5 1_554 2.364(17) yes
Cu2 O5 . 1.904(15) yes
O1 O2 . 2.30(4) yes
O1 O3 . 2.22(4) yes
O1 O5 4_454 2.72(3) yes
O1 C . 1.29(3) yes
O2 O3 . 2.19(5) yes
O2 O4 4_555 2.71(4) yes
O2 O5 . 2.45(5) yes
O2 C . 1.29(5) yes
O3 O4 4_555 2.64(4) yes
O3 C . 1.29(5) yes
