#------------------------------------------------------------------------------
#$Date: 2016-02-14 16:26:36 +0200 (Sun, 14 Feb 2016) $
#$Revision: 176435 $
#$URL: svn://www.crystallography.net/cod/cif/2/10/55/2105521.cif $
#------------------------------------------------------------------------------
#
# This file is available in the Crystallography Open Database (COD),
# http://www.crystallography.net/. The original data for this entry
# were provided by IUCr Journals, http://journals.iucr.org/.
#
# The file may be used within the scientific community so long as
# proper attribution is given to the journal article from which the
# data were obtained.
#
data_2105521
loop_
_publ_author_name
'Schefer, J.'
'Schwarzenbach, D.'
'Fischer, P.'
'Koetzle, Th.'
'Larsen, F. K.'
'Hauss\"uhl, S.'
'R\"udlinger, M.'
'McIntyre, G.'
'Birkedal, H.'
'B\"urgi, H.-B.'
_publ_section_title
;
 Neutron and X-ray Diffraction Study of the Thermal Motion in K~2~PtCl~6~
 as a Function of Temperature
;
_journal_issue                   2
_journal_name_full               'Acta Crystallographica Section B'
_journal_page_first              121
_journal_page_last               128
_journal_paper_doi               10.1107/S0108768197011956
_journal_volume                  54
_journal_year                    1998
_chemical_formula_moiety         'K2 Pt Cl6'
_chemical_formula_sum            'Cl6 K2 Pt'
_chemical_formula_weight         486.004
_chemical_name_systematic        'Potassium hexachloroplatinate(IV)'
_space_group_IT_number           225
_symmetry_cell_setting           cubic
_symmetry_space_group_name_Hall  '-F 4 2 3'
_symmetry_space_group_name_H-M   'F m -3 m'
_cell_angle_alpha                90.00000
_cell_angle_beta                 90.00000
_cell_angle_gamma                90.00000
_cell_formula_units_Z            4
_cell_length_a                   9.6489(9)
_cell_length_b                   9.6489(9)
_cell_length_c                   9.6489(9)
_cell_measurement_reflns_used    59
_cell_measurement_temperature    8
_cell_measurement_theta_max      24.73
_cell_measurement_theta_min      20.33
_cell_volume                     898.32(15)
_computing_publication_material  xtal_BONDLA_CIFIO
_computing_structure_refinement  LSYEXP
_diffrn_ambient_temperature      8
_diffrn_measurement_device
'Huber 4-circle with displex helium cooling device'
_diffrn_radiation_type           xray_tube
_diffrn_radiation_wavelength     0.5608
_diffrn_reflns_av_R_equivalents  0.038
_diffrn_reflns_number            6141
_diffrn_reflns_theta_max         50.20
_diffrn_standards_decay_%        0
_diffrn_standards_number         3
_exptl_absorpt_coefficient_mu    9.83
_exptl_absorpt_correction_T_max  0.494
_exptl_absorpt_correction_T_min  0.450
_exptl_absorpt_correction_type   'analytical integration'
_exptl_crystal_density_diffrn    3.594
_exptl_crystal_description       'almost perfect octahedral shape'
_exptl_crystal_F_000             872.0
_exptl_crystal_size_max          0.097(2)
_exptl_crystal_size_mid          0.097(2)
_exptl_crystal_size_min          0.097(2)
_refine_ls_extinction_coef       'g = 0.114(4), ymin = 0.95'
_refine_ls_extinction_method     'Type II'
_refine_ls_goodness_of_fit_all   1.782
_refine_ls_matrix_type           full
_refine_ls_number_parameters     5
_refine_ls_number_reflns         545
_refine_ls_R_factor_all          0.016
_refine_ls_structure_factor_coef Fsqd
_refine_ls_weighting_details     w=(\s^2^(Fo^2^)+(0.05(Fo^2^)^2^)^-1^
_refine_ls_weighting_scheme      calc
_refine_ls_wR_factor_all         0.020
_cod_data_source_file            ab0382.cif
_cod_data_source_block           8k
_cod_depositor_comments
;
The following automatic conversions were performed:

'_refine_ls_weighting_scheme' value
'w=(\s^2^(Fo^2^)+(0.05(Fo^2^)^2^)^-1^' was changed to 'calc'. New tag
'_refine_ls_weighting_details' was created. The value of the new tag
was set to 'w=(\s^2^(Fo^2^)+(0.05(Fo^2^)^2^)^-1^'.

Automatic conversion script
Id: cif_fix_values 3143 2015-03-26 13:38:13Z robertas 
;
_cod_original_cell_volume        898.3(3)
_cod_original_formula_sum        'K2 Pt Cl6'
_cod_database_code               2105521
loop_
_symmetry_equiv_pos_as_xyz
+x,+y,+z
+x,-y,-z
-x,-y,+z
-x,+y,-z
-y,+x,+z
+y,+x,-z
+y,-x,+z
-y,-x,-z
+y,+z,+x
-y,-z,+x
+y,-z,-x
-y,+z,-x
-z,+y,+x
-z,-y,-x
+z,-y,+x
+z,+y,-x
+z,+x,+y
-z,+x,-y
-z,-x,+y
+z,-x,-y
-x,-z,-y
-x,+z,+y
+x,-z,+y
+x,+z,-y
-x,-y,-z
-x,+y,+z
+x,+y,-z
+x,-y,+z
+y,-x,-z
-y,-x,+z
-y,+x,-z
+y,+x,+z
-y,-z,-x
+y,+z,-x
-y,+z,+x
+y,-z,+x
+z,-y,-x
+z,+y,+x
-z,+y,-x
-z,-y,+x
-z,-x,-y
+z,-x,+y
+z,+x,-y
-z,+x,+y
+x,+z,+y
+x,-z,-y
-x,+z,-y
-x,-z,+y
+x,1/2+y,1/2+z
1/2+x,+y,1/2+z
1/2+x,1/2+y,+z
+x,1/2-y,1/2-z
1/2+x,-y,1/2-z
1/2+x,1/2-y,-z
-x,1/2-y,1/2+z
1/2-x,-y,1/2+z
1/2-x,1/2-y,+z
-x,1/2+y,1/2-z
1/2-x,+y,1/2-z
1/2-x,1/2+y,-z
-y,1/2+x,1/2+z
1/2-y,+x,1/2+z
1/2-y,1/2+x,+z
+y,1/2+x,1/2-z
1/2+y,+x,1/2-z
1/2+y,1/2+x,-z
+y,1/2-x,1/2+z
1/2+y,-x,1/2+z
1/2+y,1/2-x,+z
-y,1/2-x,1/2-z
1/2-y,-x,1/2-z
1/2-y,1/2-x,-z
+y,1/2+z,1/2+x
1/2+y,+z,1/2+x
1/2+y,1/2+z,+x
-y,1/2-z,1/2+x
1/2-y,-z,1/2+x
1/2-y,1/2-z,+x
+y,1/2-z,1/2-x
1/2+y,-z,1/2-x
1/2+y,1/2-z,-x
-y,1/2+z,1/2-x
1/2-y,+z,1/2-x
1/2-y,1/2+z,-x
-z,1/2+y,1/2+x
1/2-z,+y,1/2+x
1/2-z,1/2+y,+x
-z,1/2-y,1/2-x
1/2-z,-y,1/2-x
1/2-z,1/2-y,-x
+z,1/2-y,1/2+x
1/2+z,-y,1/2+x
1/2+z,1/2-y,+x
+z,1/2+y,1/2-x
1/2+z,+y,1/2-x
1/2+z,1/2+y,-x
+z,1/2+x,1/2+y
1/2+z,+x,1/2+y
1/2+z,1/2+x,+y
-z,1/2+x,1/2-y
1/2-z,+x,1/2-y
1/2-z,1/2+x,-y
-z,1/2-x,1/2+y
1/2-z,-x,1/2+y
1/2-z,1/2-x,+y
+z,1/2-x,1/2-y
1/2+z,-x,1/2-y
1/2+z,1/2-x,-y
-x,1/2-z,1/2-y
1/2-x,-z,1/2-y
1/2-x,1/2-z,-y
-x,1/2+z,1/2+y
1/2-x,+z,1/2+y
1/2-x,1/2+z,+y
+x,1/2-z,1/2+y
1/2+x,-z,1/2+y
1/2+x,1/2-z,+y
+x,1/2+z,1/2-y
1/2+x,+z,1/2-y
1/2+x,1/2+z,-y
-x,1/2-y,1/2-z
1/2-x,-y,1/2-z
1/2-x,1/2-y,-z
-x,1/2+y,1/2+z
1/2-x,+y,1/2+z
1/2-x,1/2+y,+z
+x,1/2+y,1/2-z
1/2+x,+y,1/2-z
1/2+x,1/2+y,-z
+x,1/2-y,1/2+z
1/2+x,-y,1/2+z
1/2+x,1/2-y,+z
+y,1/2-x,1/2-z
1/2+y,-x,1/2-z
1/2+y,1/2-x,-z
-y,1/2-x,1/2+z
1/2-y,-x,1/2+z
1/2-y,1/2-x,+z
-y,1/2+x,1/2-z
1/2-y,+x,1/2-z
1/2-y,1/2+x,-z
+y,1/2+x,1/2+z
1/2+y,+x,1/2+z
1/2+y,1/2+x,+z
-y,1/2-z,1/2-x
1/2-y,-z,1/2-x
1/2-y,1/2-z,-x
+y,1/2+z,1/2-x
1/2+y,+z,1/2-x
1/2+y,1/2+z,-x
-y,1/2+z,1/2+x
1/2-y,+z,1/2+x
1/2-y,1/2+z,+x
+y,1/2-z,1/2+x
1/2+y,-z,1/2+x
1/2+y,1/2-z,+x
+z,1/2-y,1/2-x
1/2+z,-y,1/2-x
1/2+z,1/2-y,-x
+z,1/2+y,1/2+x
1/2+z,+y,1/2+x
1/2+z,1/2+y,+x
-z,1/2+y,1/2-x
1/2-z,+y,1/2-x
1/2-z,1/2+y,-x
-z,1/2-y,1/2+x
1/2-z,-y,1/2+x
1/2-z,1/2-y,+x
-z,1/2-x,1/2-y
1/2-z,-x,1/2-y
1/2-z,1/2-x,-y
+z,1/2-x,1/2+y
1/2+z,-x,1/2+y
1/2+z,1/2-x,+y
+z,1/2+x,1/2-y
1/2+z,+x,1/2-y
1/2+z,1/2+x,-y
-z,1/2+x,1/2+y
1/2-z,+x,1/2+y
1/2-z,1/2+x,+y
+x,1/2+z,1/2+y
1/2+x,+z,1/2+y
1/2+x,1/2+z,+y
+x,1/2-z,1/2-y
1/2+x,-z,1/2-y
1/2+x,1/2-z,-y
-x,1/2+z,1/2-y
1/2-x,+z,1/2-y
1/2-x,1/2+z,-y
-x,1/2-z,1/2+y
1/2-x,-z,1/2+y
1/2-x,1/2-z,+y
loop_
_atom_site_aniso_label
_atom_site_aniso_U_11
_atom_site_aniso_U_22
_atom_site_aniso_U_33
_atom_site_aniso_U_12
_atom_site_aniso_U_13
_atom_site_aniso_U_23
K .00649(4) .00649(4) .00649(4) .00000 .00000 .00000
Pt .001920(10) .001920(10) .001920(10) .00000 .00000 .00000
Cl .00330(5) .00673(4) .00673(4) .00000 .00000 .00000
loop_
_atom_site_label
_atom_site_fract_x
_atom_site_fract_y
_atom_site_fract_z
_atom_site_U_iso_or_equiv
_atom_site_thermal_displace_type
K .25000 .25000 .25000 .00649(4) Uani
Pt .00000 .00000 .00000 .001920(10) Uani
Cl .23997(2) .00000 .00000 .00559(4) Uani
loop_
_atom_type_symbol
_atom_type_scat_source
K 'Int. Tables Vol IV Tables 2.2B and 2.3.1'
Pt 'Int. Tables Vol IV Tables 2.2B and 2.3.1'
Cl 'Int. Tables Vol IV Tables 2.2B and 2.3.1'
loop_
_diffrn_standard_refln_index_h
_diffrn_standard_refln_index_k
_diffrn_standard_refln_index_l
1 5 7
6 0 -6
-2 4 0
loop_
_geom_angle_atom_site_label_1
_geom_angle_atom_site_label_2
_geom_angle_atom_site_label_3
_geom_angle_site_symmetry_1
_geom_angle_site_symmetry_2
_geom_angle_site_symmetry_3
_geom_angle
_geom_angle_publ_flag
Cl Pt Cl 49 49 55 180.0(3) yes
Cl Pt Cl 49 49 61 90.00000 yes
Cl Pt Cl 49 49 67 90.00000 yes
Cl Pt Cl 49 49 73 90.00000 yes
Cl Pt Cl 49 49 79 90.00000 yes
Cl Pt Cl 55 49 61 90.00000 yes
Cl Pt Cl 55 49 67 90.00000 yes
Cl Pt Cl 55 49 73 90.00000 yes
Cl Pt Cl 55 49 79 90.00000 yes
Cl Pt Cl 61 49 67 180.0000 yes
Cl Pt Cl 61 49 73 90.00000 yes
Cl Pt Cl 61 49 79 90.00000 yes
Cl Pt Cl 67 49 73 90.00000 yes
Cl Pt Cl 67 49 79 90.00000 yes
Cl Pt Cl 73 49 79 180.0000 yes
loop_
_geom_bond_atom_site_label_1
_geom_bond_atom_site_label_2
_geom_bond_site_symmetry_1
_geom_bond_site_symmetry_2
_geom_bond_distance
_geom_bond_publ_flag
Pt Cl 49 49 2.3154(3) yes
Pt Cl 49 55 2.3154(3) yes
Pt Cl 49 61 2.3154(3) yes
Pt Cl 49 67 2.3154(3) yes
Pt Cl 49 73 2.3154(3) yes
Pt Cl 49 79 2.3154(3) yes
