#------------------------------------------------------------------------------
#$Date: 2018-09-13 20:34:58 +0300 (Thu, 13 Sep 2018) $
#$Revision: 210924 $
#$URL: file:///home/coder/svn-repositories/cod/cif/2/10/57/2105720.cif $
#------------------------------------------------------------------------------
#
# This file is available in the Crystallography Open Database (COD),
# http://www.crystallography.net/. The original data for this entry
# were provided the Crystal Eye server at
# http://wwmm.ch.cam.ac.uk/crystaleye/, created by Nick Day at the
# Peter Murray-Rust laboratory.
#
# The file may be used within the scientific community so long as
# proper attribution is given to the journal article from which the
# data were obtained.
#
data_2105720
loop_
_publ_author_name
'Dinnebier, Robert'
'Sofina, Natalia'
'Hildebrandt, Lars'
'Jansen, Martin'
_publ_section_title
;
 Crystal structures of the trifluoromethyl sulfonates M(SO~3~CF~3~)~2~
 (M = Mg, Ca, Ba, Zn, Cu) from synchrotron X-ray powder diffraction data
;
_journal_coden_ASTM              ASBSDK
_journal_coeditor_code           SN5032
_journal_issue                   3
_journal_name_full
;
 Acta Crystallographica, Section B: Structural Science
;
_journal_page_first              467
_journal_page_last               473
_journal_paper_doi               10.1107/s0108768106009517
_journal_volume                  62
_journal_year                    2006
_chemical_formula_sum            'C2 F6 Mg O6 S2'
_chemical_formula_weight         322.43
_space_group_IT_number           148
_symmetry_cell_setting           trigonal
_symmetry_space_group_name_Hall  '-R 3'
_symmetry_space_group_name_H-M   'R -3 :H'
_cell_angle_alpha                90.0
_cell_angle_beta                 90.0
_cell_angle_gamma                120.0
_cell_formula_units_Z            3
_cell_length_a                   5.0494(5)
_cell_length_b                   5.0494
_cell_length_c                   31.033(2)
_cell_volume                     685.23(8)
_cod_duplicate_entry             2100509
_cod_data_source_file            sn5032sup1.cif
_cod_data_source_block           MGTF_R-3_RV_phase_1
_cod_original_cell_volume        685.23(9)
_cod_original_sg_symbol_H-M      'R -3'
_cod_database_code               2105720
loop_
_symmetry_equiv_pos_site_id
_symmetry_equiv_pos_as_xyz
1 +x,+y,+z
2 -y,x-y,+z
3 y-x,-x,+z
-1 -x,-y,-z
-2 +y,y-x,-z
-3 x-y,+x,-z
101 +x+1/3,+y+2/3,+z+2/3
102 -y+1/3,x-y+2/3,+z+2/3
103 y-x+1/3,-x+2/3,+z+2/3
-101 -x+2/3,-y+1/3,-z+1/3
-102 +y+2/3,y-x+1/3,-z+1/3
-103 x-y+2/3,+x+1/3,-z+1/3
201 +x+2/3,+y+1/3,+z+1/3
202 -y+2/3,x-y+1/3,+z+1/3
203 y-x+2/3,-x+1/3,+z+1/3
-201 -x+1/3,-y+2/3,-z+2/3
-202 +y+1/3,y-x+2/3,-z+2/3
-203 x-y+1/3,+x+2/3,-z+2/3
loop_
_atom_site_aniso_label
_atom_site_aniso_U_11
_atom_site_aniso_U_22
_atom_site_aniso_U_33
_atom_site_aniso_U_12
_atom_site_aniso_U_13
_atom_site_aniso_U_23
S2 0.039(6) 0.039(6) 0.013(6) 0.020(3) 0.0 0.0
O3 0.000(7) 0.033(4) 0.009(6) 0.006(4) -0.001(2) -0.004(6)
O4 0.033(4) 0.021(3) 0.009(6) 0.027(6) 0.004(4) 0.003(5)
O5 0.021(5) 0.000(8) 0.009(6) -0.006(2) -0.003(6) 0.0007(11)
C6 -0.005(9) -0.005(9) -0.011(6) -0.002(4) 0.0 0.0
F7 0.113(8) 0.021(4) 0.002(6) 0.046(5) 0.0016(19) 0.013(4)
F8 0.043(5) 0.113(10) 0.002(6) 0.0674(14) 0.012(5) -0.0016(5)
F9 0.021(6) 0.043(4) 0.002(6) -0.024(6) -0.013(3) -0.012(4)
loop_
_atom_site_type_symbol
_atom_site_label
_atom_site_fract_x
_atom_site_fract_y
_atom_site_fract_z
_atom_site_U_iso_or_equiv
_atom_site_thermal_displace_type
_atom_site_occupancy
Mg Mg1 0.0 0.0 0.0 0.041(5) Uiso 1.0
S S2 0.0 0.0 0.28189(9) 0.03043 Uani 1.0
O O3 -0.056(2) -0.2933(7) 0.29741(9) 0.01473 Uani 0.33333
O O4 0.2933(7) 0.2376(13) 0.29741(9) 0.01473 Uani 0.33333
O O5 -0.2376(13) 0.056(2) 0.29741(9) 0.01473 Uani 0.33333
C C6 0.0 0.0 0.22384(9) -0.0067 Uani 1.0
F F7 0.032(2) 0.2575(10) 0.20986(9) 0.04021 Uani 0.33333
F F8 0.2256(14) -0.032(2) 0.20986(9) 0.04021 Uani 0.33333
F F9 -0.2575(10) -0.2256(14) 0.20986(9) 0.04021 Uani 0.33333
loop_
_atom_type_symbol
Mg
S
O
C
F
loop_
_geom_angle_atom_site_label_1
_geom_angle_atom_site_label_2
_geom_angle_atom_site_label_3
_geom_angle_site_symmetry_1
_geom_angle_site_symmetry_3
_geom_angle
O3 Mg1 O3 44501 65502 92.7(2)
O3 Mg1 O3 44501 56503 92.7(2)
O3 Mg1 O3 44501 66504 180.0(4)
O3 Mg1 O3 44501 45505 87.3(2)
O3 Mg1 O3 44501 54506 87.3(2)
O3 Mg1 O4 44501 . 92.7(2)
O3 Mg1 O4 44501 55502 92.7(2)
O3 Mg1 O4 44501 55503 0.0(3)
O3 Mg1 O4 44501 55504 87.3(2)
O3 Mg1 O4 44501 55505 87.3(2)
O3 Mg1 O4 44501 55506 180.0(3)
O3 Mg1 O5 44501 45501 92.7(2)
O3 Mg1 O5 44501 54502 0.0(4)
O3 Mg1 O5 44501 66503 92.7(2)
O3 Mg1 O5 44501 65504 87.3(2)
O3 Mg1 O5 44501 56505 180.0(4)
O3 Mg1 O5 44501 44506 87.3(2)
O3 Mg1 O3 65502 56503 92.7(2)
O3 Mg1 O3 65502 66504 87.3(2)
O3 Mg1 O3 65502 45505 180.0(2)
O3 Mg1 O3 65502 54506 87.3(2)
O3 Mg1 O4 65502 . 0.0(2)
O3 Mg1 O4 65502 55502 92.7(2)
O3 Mg1 O4 65502 55503 92.72(13)
O3 Mg1 O4 65502 55504 180.0(2)
O3 Mg1 O4 65502 55505 87.3(2)
O3 Mg1 O4 65502 55506 87.28(13)
O3 Mg1 O5 65502 45501 92.7(2)
O3 Mg1 O5 65502 54502 92.72(19)
O3 Mg1 O5 65502 66503 0.0(3)
O3 Mg1 O5 65502 65504 87.3(2)
O3 Mg1 O5 65502 56505 87.28(19)
O3 Mg1 O5 65502 44506 180.0(3)
O3 Mg1 O3 56503 66504 87.3(2)
O3 Mg1 O3 56503 45505 87.3(2)
O3 Mg1 O3 56503 54506 0E2(4)
O3 Mg1 O4 56503 . 92.7(2)
O3 Mg1 O4 56503 55502 0.0(2)
O3 Mg1 O4 56503 55503 92.72(19)
O3 Mg1 O4 56503 55504 87.3(2)
O3 Mg1 O4 56503 55505 180.0(2)
O3 Mg1 O4 56503 55506 87.28(19)
O3 Mg1 O5 56503 45501 0.0(3)
O3 Mg1 O5 56503 54502 92.7(2)
O3 Mg1 O5 56503 66503 92.7(3)
O3 Mg1 O5 56503 65504 180.0(3)
O3 Mg1 O5 56503 56505 87.3(2)
O3 Mg1 O5 56503 44506 87.3(3)
O3 Mg1 O3 66504 45505 92.7(2)
O3 Mg1 O3 66504 54506 92.7(2)
O3 Mg1 O4 66504 . 87.3(2)
O3 Mg1 O4 66504 55502 87.3(2)
O3 Mg1 O4 66504 55503 180.0(3)
O3 Mg1 O4 66504 55504 92.7(2)
O3 Mg1 O4 66504 55505 92.7(2)
O3 Mg1 O4 66504 55506 0.0(3)
O3 Mg1 O5 66504 45501 87.3(2)
O3 Mg1 O5 66504 54502 180.0(4)
O3 Mg1 O5 66504 66503 87.3(2)
O3 Mg1 O5 66504 65504 92.7(2)
O3 Mg1 O5 66504 56505 0.0(4)
O3 Mg1 O5 66504 44506 92.7(2)
O3 Mg1 O3 45505 54506 92.7(2)
O3 Mg1 O4 45505 . 180.0(2)
O3 Mg1 O4 45505 55502 87.3(2)
O3 Mg1 O4 45505 55503 87.28(13)
O3 Mg1 O4 45505 55504 0.0(2)
O3 Mg1 O4 45505 55505 92.7(2)
O3 Mg1 O4 45505 55506 92.72(13)
O3 Mg1 O5 45505 45501 87.3(2)
O3 Mg1 O5 45505 54502 87.28(19)
O3 Mg1 O5 45505 66503 180.0(3)
O3 Mg1 O5 45505 65504 92.7(2)
O3 Mg1 O5 45505 56505 92.72(19)
O3 Mg1 O5 45505 44506 0.0(3)
O3 Mg1 O4 54506 . 87.3(2)
O3 Mg1 O4 54506 55502 180.0(2)
O3 Mg1 O4 54506 55503 87.28(19)
O3 Mg1 O4 54506 55504 92.7(2)
O3 Mg1 O4 54506 55505 0.0(2)
O3 Mg1 O4 54506 55506 92.72(19)
O3 Mg1 O5 54506 45501 180.0(3)
O3 Mg1 O5 54506 54502 87.3(2)
O3 Mg1 O5 54506 66503 87.3(3)
O3 Mg1 O5 54506 65504 0.0(3)
O3 Mg1 O5 54506 56505 92.7(2)
O3 Mg1 O5 54506 44506 92.7(3)
O4 Mg1 O4 . 55502 92.72(19)
O4 Mg1 O4 . 55503 92.72(15)
O4 Mg1 O4 . 55504 180.0(2)
O4 Mg1 O4 . 55505 87.28(19)
O4 Mg1 O4 . 55506 87.28(15)
O4 Mg1 O5 . 45501 92.7(2)
O4 Mg1 O5 . 54502 92.7(2)
O4 Mg1 O5 . 66503 0.0(3)
O4 Mg1 O5 . 65504 87.3(2)
O4 Mg1 O5 . 56505 87.3(2)
O4 Mg1 O5 . 44506 180.0(3)
O4 Mg1 O4 55502 55503 92.72(19)
O4 Mg1 O4 55502 55504 87.28(19)
O4 Mg1 O4 55502 55505 180.0(2)
O4 Mg1 O4 55502 55506 87.28(19)
O4 Mg1 O5 55502 45501 0.0(2)
O4 Mg1 O5 55502 54502 92.7(2)
O4 Mg1 O5 55502 66503 92.7(2)
O4 Mg1 O5 55502 65504 180.0(2)
O4 Mg1 O5 55502 56505 87.3(2)
O4 Mg1 O5 55502 44506 87.3(2)
O4 Mg1 O4 55503 55504 87.28(15)
O4 Mg1 O4 55503 55505 87.28(19)
O4 Mg1 O4 55503 55506 180.0(2)
O4 Mg1 O5 55503 45501 92.7(2)
O4 Mg1 O5 55503 54502 0.0(3)
O4 Mg1 O5 55503 66503 92.7(2)
O4 Mg1 O5 55503 65504 87.3(2)
O4 Mg1 O5 55503 56505 180.0(3)
O4 Mg1 O5 55503 44506 87.3(2)
O4 Mg1 O4 55504 55505 92.72(19)
O4 Mg1 O4 55504 55506 92.72(15)
O4 Mg1 O5 55504 45501 87.3(2)
O4 Mg1 O5 55504 54502 87.3(2)
O4 Mg1 O5 55504 66503 180.0(3)
O4 Mg1 O5 55504 65504 92.7(2)
O4 Mg1 O5 55504 56505 92.7(2)
O4 Mg1 O5 55504 44506 0.0(3)
O4 Mg1 O4 55505 55506 92.72(19)
O4 Mg1 O5 55505 45501 180.0(2)
O4 Mg1 O5 55505 54502 87.3(2)
O4 Mg1 O5 55505 66503 87.3(2)
O4 Mg1 O5 55505 65504 0.0(2)
O4 Mg1 O5 55505 56505 92.7(2)
O4 Mg1 O5 55505 44506 92.7(2)
O4 Mg1 O5 55506 45501 87.3(2)
O4 Mg1 O5 55506 54502 180.0(3)
O4 Mg1 O5 55506 66503 87.3(2)
O4 Mg1 O5 55506 65504 92.7(2)
O4 Mg1 O5 55506 56505 0.0(3)
O4 Mg1 O5 55506 44506 92.7(2)
O5 Mg1 O5 45501 54502 92.7(3)
O5 Mg1 O5 45501 66503 92.7(3)
O5 Mg1 O5 45501 65504 180.0(3)
O5 Mg1 O5 45501 56505 87.3(3)
O5 Mg1 O5 45501 44506 87.3(3)
O5 Mg1 O5 54502 66503 92.7(2)
O5 Mg1 O5 54502 65504 87.3(3)
O5 Mg1 O5 54502 56505 180.0(4)
O5 Mg1 O5 54502 44506 87.3(2)
O5 Mg1 O5 66503 65504 87.3(3)
O5 Mg1 O5 66503 56505 87.3(2)
O5 Mg1 O5 66503 44506 180.0(4)
O5 Mg1 O5 65504 56505 92.7(3)
O5 Mg1 O5 65504 44506 92.7(3)
O5 Mg1 O5 56505 44506 92.7(2)
O3 S2 O3 . 65502 109.5(4)
O3 S2 O3 . 66503 109.5(3)
O3 S2 O4 . . 109.5(4)
O3 S2 O4 . 65502 109.5(4)
O3 S2 O4 . 66503 0.0(4)
O3 S2 O5 . . 109.5(4)
O3 S2 O5 . 65502 0.0(5)
O3 S2 O5 . 66503 109.5(5)
O3 S2 C6 . . 109.47(16)
O3 S2 O3 65502 66503 109.5(3)
O3 S2 O4 65502 . 0.0(4)
O3 S2 O4 65502 65502 109.5(3)
O3 S2 O4 65502 66503 109.5(3)
O3 S2 O5 65502 . 109.5(4)
O3 S2 O5 65502 65502 109.5(3)
O3 S2 O5 65502 66503 0.0(5)
O3 S2 C6 65502 . 109.47(17)
O3 S2 O4 66503 . 109.5(2)
O3 S2 O4 66503 65502 0.0(3)
O3 S2 O4 66503 66503 109.5(2)
O3 S2 O5 66503 . 0.0(4)
O3 S2 O5 66503 65502 109.5(3)
O3 S2 O5 66503 66503 109.5(4)
O3 S2 C6 66503 . 109.47(19)
O4 S2 O4 . 65502 109.5(2)
O4 S2 O4 . 66503 109.5(2)
O4 S2 O5 . . 109.5(3)
O4 S2 O5 . 65502 109.5(3)
O4 S2 O5 . 66503 0.0(5)
O4 S2 C6 . . 109.47(15)
O4 S2 O4 65502 66503 109.5(2)
O4 S2 O5 65502 . 0.0(4)
O4 S2 O5 65502 65502 109.5(3)
O4 S2 O5 65502 66503 109.5(4)
O4 S2 C6 65502 . 109.47(16)
O4 S2 O5 66503 . 109.5(3)
O4 S2 O5 66503 65502 0.0(3)
O4 S2 O5 66503 66503 109.5(4)
O4 S2 C6 66503 . 109.47(17)
O5 S2 O5 . 65502 109.5(4)
O5 S2 O5 . 66503 109.5(4)
O5 S2 C6 . . 109.47(19)
O5 S2 O5 65502 66503 109.5(4)
O5 S2 C6 65502 . 109.47(19)
O5 S2 C6 66503 . 109.47(16)
Mg1 O3 S2 66501 . 145.6(6)
Mg1 O4 S2 . . 145.6(4)
Mg1 O5 S2 65501 . 145.6(3)
S2 C6 F7 . . 109.47(19)
S2 C6 F7 . 65502 109.47(19)
S2 C6 F7 . 66503 109.5(2)
S2 C6 F8 . . 109.5(2)
S2 C6 F8 . 65502 109.5(2)
S2 C6 F8 . 66503 109.46(18)
S2 C6 F9 . . 109.46(17)
S2 C6 F9 . 65502 109.46(19)
S2 C6 F9 . 66503 109.46(19)
F7 C6 F7 . 65502 109.5(5)
F7 C6 F7 . 66503 109.5(5)
F7 C6 F8 . . 109.5(6)
F7 C6 F8 . 65502 0.0(6)
F7 C6 F8 . 66503 109.5(6)
F7 C6 F9 . . 109.5(5)
F7 C6 F9 . 65502 109.5(5)
F7 C6 F9 . 66503 0.0(5)
F7 C6 F7 65502 66503 109.5(5)
F7 C6 F8 65502 . 109.5(5)
F7 C6 F8 65502 65502 109.5(4)
F7 C6 F8 65502 66503 0.0(7)
F7 C6 F9 65502 . 0.0(5)
F7 C6 F9 65502 65502 109.5(5)
F7 C6 F9 65502 66503 109.5(4)
F7 C6 F8 66503 . 0.0(5)
F7 C6 F8 66503 65502 109.5(3)
F7 C6 F8 66503 66503 109.5(5)
F7 C6 F9 66503 . 109.5(3)
F7 C6 F9 66503 65502 0.0(3)
F7 C6 F9 66503 66503 109.5(3)
F8 C6 F8 . 65502 109.5(5)
F8 C6 F8 . 66503 109.5(5)
F8 C6 F9 . . 109.5(4)
F8 C6 F9 . 65502 0.0(5)
F8 C6 F9 . 66503 109.5(4)
F8 C6 F8 65502 66503 109.5(5)
F8 C6 F9 65502 . 109.5(4)
F8 C6 F9 65502 65502 109.5(4)
F8 C6 F9 65502 66503 0.0(4)
F8 C6 F9 66503 . 0.0(6)
F8 C6 F9 66503 65502 109.5(5)
F8 C6 F9 66503 66503 109.5(5)
F9 C6 F9 . 65502 109.5(3)
F9 C6 F9 . 66503 109.5(3)
F9 C6 F9 65502 66503 109.5(3)
loop_
_geom_bond_atom_site_label_1
_geom_bond_atom_site_label_2
_geom_bond_site_symmetry_2
_geom_bond_distance
Mg1 O3 44501 2.030(3)
Mg1 O3 65502 2.030(8)
Mg1 O3 56503 2.030(6)
Mg1 O3 66504 2.030(3)
Mg1 O3 45505 2.030(8)
Mg1 O3 54506 2.030(6)
Mg1 O4 . 2.030(3)
Mg1 O4 55502 2.030(5)
Mg1 O4 55503 2.030(4)
Mg1 O4 55504 2.030(3)
Mg1 O4 55505 2.030(5)
Mg1 O4 55506 2.030(4)
Mg1 O5 45501 2.030(9)
Mg1 O5 54502 2.030(6)
Mg1 O5 66503 2.030(5)
Mg1 O5 65504 2.030(9)
Mg1 O5 56505 2.030(6)
Mg1 O5 44506 2.030(5)
S2 O3 . 1.445(4)
S2 O3 65502 1.445(6)
S2 O3 66503 1.445(9)
S2 O4 . 1.445(3)
S2 O4 65502 1.445(5)
S2 O4 66503 1.445(6)
S2 O5 . 1.445(8)
S2 O5 65502 1.445(9)
S2 O5 66503 1.445(5)
S2 C6 . 1.801(3)
C6 F7 . 1.302(6)
C6 F7 65502 1.302(7)
C6 F7 66503 1.302(11)
C6 F8 . 1.302(9)
C6 F8 65502 1.302(11)
C6 F8 66503 1.302(6)
C6 F9 . 1.302(4)
C6 F9 65502 1.302(6)
C6 F9 66503 1.302(7)
loop_
_geom_contact_atom_site_label_1
_geom_contact_atom_site_label_2
_geom_contact_distance
_geom_contact_site_symmetry_2
S2 O3 3.413(4) 65506
S2 O4 3.413(3) 66505
S2 O5 3.413(4) 76504
O3 O3 3.590(12) 66502
O3 O3 2.938(10) 76502
O3 O3 2.938(5) 67503
O3 O3 2.801(8) 65506
O3 O4 3.590(11) 56501
O3 O4 2.938(7) 66502
O3 O4 2.801(7) 66505
O3 O5 2.938(10) 56501
O3 O5 3.590(13) 67503
O3 O5 2.938(9) 77503
O3 O5 2.801(7) 76504
O4 O3 3.590(11) 54501
O4 O4 3.590(9) 65503
O4 O5 3.590(12) 64502
O5 S2 3.413(4) 76504
O5 O3 2.938(10) 54501
O5 O3 2.938(13) 75502
O5 O3 3.590(8) 76502
O5 O3 2.801(7) 76504
O5 O3 2.963(7) 65506
O5 O4 2.938(11) 65503
O5 O4 3.590(6) 76503
O5 O4 2.963(7) 66505
O5 O4 2.801(5) 65506
O5 O5 2.938(13) 64502
O5 O5 3.590(8) 75502
O5 O5 2.938(13) 76503
O5 O5 3.590(11) 77503
O5 O5 2.963(9) 76504
O5 O5 2.801(6) 66505
F7 F7 3.573(14) 64502
F7 F7 3.213(8) 65503
F7 F7 3.573(16) 76503
F7 F7 3.196(8) 65510
F7 F7 3.260(8) 55511
F7 F7 3.260(10) 44512
F7 F8 3.212(13) 54501
F7 F8 3.573(16) 65503
F7 F8 3.260(8) 55510
F7 F8 3.196(7) 55511
F7 F8 3.260(9) 54512
F7 F9 3.573(13) 54501
F7 F9 3.213(9) 64502
F7 F9 3.573(12) 75502
F7 F9 3.260(7) 65510
F7 F9 3.260(8) 45511
F7 F9 3.196(7) 54512
F8 F7 3.212(13) 56501
F8 F7 3.260(8) 55510
F8 F7 3.260(6) 56511
F8 F7 3.196(6) 44512
F8 F8 3.212(16) 66502
F8 F8 3.196(8) 55510
F8 F8 3.260(6) 45511
F8 F8 3.260(7) 55512
F8 F9 3.212(13) 67503
F8 F9 3.260(6) 66510
F8 F9 3.196(7) 45511
F8 F9 3.260(6) 44512
F9 F7 3.573(13) 56501
F9 F7 3.213(14) 76503
F9 F7 3.573(7) 77503
F9 F7 3.260(7) 65510
F9 F7 3.196(8) 56511
F9 F7 3.260(5) 55512
F9 F8 3.572(14) 66502
F9 F8 3.212(7) 76502
F9 F8 3.260(6) 66510
F9 F8 3.260(9) 55511
F9 F8 3.196(8) 55512
F9 F9 3.213(9) 75502
F9 F9 3.572(7) 76502
F9 F9 3.572(10) 67503
F9 F9 3.213(5) 77503
F9 F9 3.195(6) 66510
F9 F9 3.260(5) 56511
F9 F9 3.260(6) 54512
loop_
_geom_torsion_atom_site_label_1
_geom_torsion_atom_site_label_2
_geom_torsion_atom_site_label_3
_geom_torsion_atom_site_label_4
_geom_torsion_site_symmetry_1
_geom_torsion_site_symmetry_3
_geom_torsion_site_symmetry_4
_geom_torsion
O3 Mg1 O3 S2 44501 65502 . -151.1
O3 Mg1 O3 S2 65502 44501 44501 -58.3
O3 Mg1 O3 S2 56503 44501 44501 -151.1
O3 Mg1 O3 S2 45505 44501 44501 121.7
O3 Mg1 O3 S2 54506 44501 44501 28.9
O3 Mg1 O4 S2 44501 . . -151.1
O4 Mg1 O3 S2 . 44501 44501 -58.3
O4 Mg1 O3 S2 55502 44501 44501 -151.1
O3 Mg1 O4 S2 44501 55504 55504 -28.9
O4 Mg1 O3 S2 55504 44501 44501 121.7
O4 Mg1 O3 S2 55505 44501 44501 28.9
O3 Mg1 O5 S2 44501 45501 45501 -58.3
O5 Mg1 O3 S2 45501 44501 44501 -151.1
O3 Mg1 O5 S2 44501 66503 . -151.1
O5 Mg1 O3 S2 66503 44501 44501 -58.3
O3 Mg1 O5 S2 44501 65504 65504 -121.7
O5 Mg1 O3 S2 65504 44501 44501 28.9
O5 Mg1 O3 S2 44506 44501 44501 121.7
O3 Mg1 O3 S2 56503 65502 . -58.3
O3 Mg1 O3 S2 65502 66504 66504 -121.7
O3 Mg1 O3 S2 66504 65502 . 28.9
O3 Mg1 O3 S2 54506 65502 . 121.7
O4 Mg1 O3 S2 55502 65502 . -58.3
O4 Mg1 O3 S2 55503 65502 . -151.1
O4 Mg1 O3 S2 55505 65502 . 121.7
O4 Mg1 O3 S2 55506 65502 . 28.9
O3 Mg1 O5 S2 65502 45501 45501 -151.1
O5 Mg1 O3 S2 45501 65502 . -58.3
O5 Mg1 O3 S2 54502 65502 . -151.1
O3 Mg1 O5 S2 65502 65504 65504 -28.9
O5 Mg1 O3 S2 65504 65502 . 121.7
O5 Mg1 O3 S2 56505 65502 . 28.9
O3 Mg1 O3 S2 56503 66504 66504 -28.9
O3 Mg1 O4 S2 56503 . . -58.3
O3 Mg1 O4 S2 56503 55504 55504 -121.7
O3 Mg1 O5 S2 56503 66503 . -58.3
O3 Mg1 O3 S2 45505 66504 66504 58.3
O3 Mg1 O3 S2 54506 66504 66504 151.1
O3 Mg1 O4 S2 66504 . . 28.9
O4 Mg1 O3 S2 . 66504 66504 -121.7
O4 Mg1 O3 S2 55502 66504 66504 -28.9
O3 Mg1 O4 S2 66504 55504 55504 151.1
O4 Mg1 O3 S2 55504 66504 66504 58.3
O4 Mg1 O3 S2 55505 66504 66504 151.1
O3 Mg1 O5 S2 66504 45501 45501 121.7
O5 Mg1 O3 S2 45501 66504 66504 -28.9
O3 Mg1 O5 S2 66504 66503 . 28.9
O5 Mg1 O3 S2 66503 66504 66504 -121.7
O3 Mg1 O5 S2 66504 65504 65504 58.3
O5 Mg1 O3 S2 65504 66504 66504 151.1
O5 Mg1 O3 S2 44506 66504 66504 58.3
O3 Mg1 O5 S2 45505 45501 45501 28.9
O3 Mg1 O5 S2 45505 65504 65504 151.1
O3 Mg1 O4 S2 54506 . . 121.7
O3 Mg1 O4 S2 54506 55504 55504 58.3
O3 Mg1 O5 S2 54506 66503 . 121.7
O4 Mg1 O4 S2 55502 . . -58.3
O4 Mg1 O4 S2 55503 . . -151.1
O4 Mg1 O4 S2 55505 . . 121.7
O4 Mg1 O4 S2 55506 . . 28.9
O4 Mg1 O5 S2 . 45501 45501 -151.1
O5 Mg1 O4 S2 45501 . . -58.3
O5 Mg1 O4 S2 54502 . . -151.1
O4 Mg1 O5 S2 . 65504 65504 -28.9
O5 Mg1 O4 S2 65504 . . 121.7
O5 Mg1 O4 S2 56505 . . 28.9
O4 Mg1 O4 S2 55502 55504 55504 -121.7
O4 Mg1 O5 S2 55502 66503 . -58.3
O4 Mg1 O4 S2 55503 55504 55504 -28.9
O4 Mg1 O5 S2 55503 45501 45501 -58.3
O4 Mg1 O5 S2 55503 66503 . -151.1
O4 Mg1 O5 S2 55503 65504 65504 -121.7
O4 Mg1 O4 S2 55505 55504 55504 58.3
O4 Mg1 O4 S2 55506 55504 55504 151.1
O4 Mg1 O5 S2 55504 45501 45501 28.9
O5 Mg1 O4 S2 45501 55504 55504 -121.7
O5 Mg1 O4 S2 54502 55504 55504 -28.9
O4 Mg1 O5 S2 55504 65504 65504 151.1
O5 Mg1 O4 S2 65504 55504 55504 58.3
O5 Mg1 O4 S2 56505 55504 55504 151.1
O4 Mg1 O5 S2 55505 66503 . 121.7
O4 Mg1 O5 S2 55506 45501 45501 121.7
O4 Mg1 O5 S2 55506 66503 . 28.9
O4 Mg1 O5 S2 55506 65504 65504 58.3
O5 Mg1 O5 S2 54502 45501 45501 -58.3
O5 Mg1 O5 S2 45501 66503 . -58.3
O5 Mg1 O5 S2 66503 45501 45501 -151.1
O5 Mg1 O5 S2 56505 45501 45501 121.7
O5 Mg1 O5 S2 44506 45501 45501 28.9
O5 Mg1 O5 S2 54502 66503 . -151.1
O5 Mg1 O5 S2 54502 65504 65504 -121.7
O5 Mg1 O5 S2 66503 65504 65504 -28.9
O5 Mg1 O5 S2 65504 66503 . 121.7
O5 Mg1 O5 S2 56505 66503 . 28.9
O5 Mg1 O5 S2 56505 65504 65504 58.3
O5 Mg1 O5 S2 44506 65504 65504 151.1
O3 S2 O3 Mg1 . 65502 . 1.0
O3 S2 O3 Mg1 65502 . 66501 -119.0
O3 S2 O3 Mg1 66503 . 66501 1.0
O3 S2 O4 Mg1 . . . 1.0
O4 S2 O3 Mg1 . . 66501 -119.0
O4 S2 O3 Mg1 65502 . 66501 1.0
O3 S2 O5 Mg1 . . 65501 -119.0
O5 S2 O3 Mg1 . . 66501 1.0
O3 S2 O5 Mg1 . 66503 . 1.0
O5 S2 O3 Mg1 66503 . 66501 -119.0
O3 S2 C6 F7 . . . -176.2
O3 S2 C6 F8 . . . 63.8
O3 S2 C6 F9 . . . -56.2
O3 S2 C6 F7 . . 65502 -56.2
O3 S2 C6 F7 . . 66503 63.8
O3 S2 C6 F8 . . 65502 -176.2
O3 S2 C6 F8 . . 66503 -56.2
O3 S2 C6 F9 . . 65502 63.8
O3 S2 C6 F9 . . 66503 -176.2
C6 S2 O3 Mg1 . . 66501 121.0
O3 S2 O3 Mg1 66503 65502 . -119.0
O4 S2 O3 Mg1 65502 65502 . -119.0
O4 S2 O3 Mg1 66503 65502 . 1.0
O3 S2 O5 Mg1 65502 . 65501 1.0
O5 S2 O3 Mg1 . 65502 . -119.0
O5 S2 O3 Mg1 65502 65502 . 1.0
O3 S2 C6 F7 65502 . . 63.8
O3 S2 C6 F8 65502 . . -56.2
O3 S2 C6 F9 65502 . . -176.2
O3 S2 C6 F7 65502 . 65502 -176.2
O3 S2 C6 F7 65502 . 66503 -56.2
O3 S2 C6 F8 65502 . 65502 63.8
O3 S2 C6 F8 65502 . 66503 -176.2
O3 S2 C6 F9 65502 . 65502 -56.2
O3 S2 C6 F9 65502 . 66503 63.8
C6 S2 O3 Mg1 . 65502 . 121.0
O3 S2 O4 Mg1 66503 . . -119.0
O3 S2 O5 Mg1 66503 66503 . -119.0
O3 S2 C6 F7 66503 . . -56.2
O3 S2 C6 F8 66503 . . -176.2
O3 S2 C6 F9 66503 . . 63.8
O3 S2 C6 F7 66503 . 65502 63.8
O3 S2 C6 F7 66503 . 66503 -176.2
O3 S2 C6 F8 66503 . 65502 -56.2
O3 S2 C6 F8 66503 . 66503 63.8
O3 S2 C6 F9 66503 . 65502 -176.2
O3 S2 C6 F9 66503 . 66503 -56.2
O4 S2 O4 Mg1 65502 . . -119.0
O4 S2 O4 Mg1 66503 . . 1.0
O4 S2 O5 Mg1 . . 65501 1.0
O5 S2 O4 Mg1 . . . -119.0
O5 S2 O4 Mg1 65502 . . 1.0
O4 S2 C6 F7 . . . 63.8
O4 S2 C6 F8 . . . -56.2
O4 S2 C6 F9 . . . -176.2
O4 S2 C6 F7 . . 65502 -176.2
O4 S2 C6 F7 . . 66503 -56.2
O4 S2 C6 F8 . . 65502 63.8
O4 S2 C6 F8 . . 66503 -176.2
O4 S2 C6 F9 . . 65502 -56.2
O4 S2 C6 F9 . . 66503 63.8
C6 S2 O4 Mg1 . . . 121.0
O4 S2 O5 Mg1 65502 66503 . -119.0
O4 S2 C6 F7 65502 . . -56.2
O4 S2 C6 F8 65502 . . -176.2
O4 S2 C6 F9 65502 . . 63.8
O4 S2 C6 F7 65502 . 65502 63.8
O4 S2 C6 F7 65502 . 66503 -176.2
O4 S2 C6 F8 65502 . 65502 -56.2
O4 S2 C6 F8 65502 . 66503 63.8
O4 S2 C6 F9 65502 . 65502 -176.2
O4 S2 C6 F9 65502 . 66503 -56.2
O4 S2 O5 Mg1 66503 . 65501 -119.0
O4 S2 O5 Mg1 66503 66503 . 1.0
O4 S2 C6 F7 66503 . . -176.2
O4 S2 C6 F8 66503 . . 63.8
O4 S2 C6 F9 66503 . . -56.2
O4 S2 C6 F7 66503 . 65502 -56.2
O4 S2 C6 F7 66503 . 66503 63.8
O4 S2 C6 F8 66503 . 65502 -176.2
O4 S2 C6 F8 66503 . 66503 -56.2
O4 S2 C6 F9 66503 . 65502 63.8
O4 S2 C6 F9 66503 . 66503 -176.2
O5 S2 O5 Mg1 65502 . 65501 -119.0
O5 S2 O5 Mg1 . 66503 . -119.0
O5 S2 O5 Mg1 66503 . 65501 1.0
O5 S2 C6 F7 . . . -56.2
O5 S2 C6 F8 . . . -176.2
O5 S2 C6 F9 . . . 63.8
O5 S2 C6 F7 . . 65502 63.8
O5 S2 C6 F7 . . 66503 -176.2
O5 S2 C6 F8 . . 65502 -56.2
O5 S2 C6 F8 . . 66503 63.8
O5 S2 C6 F9 . . 65502 -176.2
O5 S2 C6 F9 . . 66503 -56.2
C6 S2 O5 Mg1 . . 65501 121.0
O5 S2 O5 Mg1 65502 66503 . 1.0
O5 S2 C6 F7 65502 . . -176.2
O5 S2 C6 F8 65502 . . 63.8
O5 S2 C6 F9 65502 . . -56.2
O5 S2 C6 F7 65502 . 65502 -56.2
O5 S2 C6 F7 65502 . 66503 63.8
O5 S2 C6 F8 65502 . 65502 -176.2
O5 S2 C6 F8 65502 . 66503 -56.2
O5 S2 C6 F9 65502 . 65502 63.8
O5 S2 C6 F9 65502 . 66503 -176.2
O5 S2 C6 F7 66503 . . 63.8
O5 S2 C6 F8 66503 . . -56.2
O5 S2 C6 F9 66503 . . -176.2
O5 S2 C6 F7 66503 . 65502 -176.2
O5 S2 C6 F7 66503 . 66503 -56.2
O5 S2 C6 F8 66503 . 65502 63.8
O5 S2 C6 F8 66503 . 66503 -176.2
O5 S2 C6 F9 66503 . 65502 -56.2
O5 S2 C6 F9 66503 . 66503 63.8
C6 S2 O5 Mg1 . 66503 . 121.0
