#------------------------------------------------------------------------------
#$Date: 2016-02-20 02:53:41 +0200 (Sat, 20 Feb 2016) $
#$Revision: 176768 $
#$URL: svn://www.crystallography.net/cod/cif/2/10/56/2105660.cif $
#------------------------------------------------------------------------------
#
# This file is available in the Crystallography Open Database (COD),
# http://www.crystallography.net/. The original data for this entry
# were provided by IUCr Journals, http://journals.iucr.org/.
#
# The file may be used within the scientific community so long as
# proper attribution is given to the journal article from which the
# data were obtained.
#
data_2105660
loop_
_publ_author_name
'Pinheiro, C. B.'
'J\'orio, A.'
'Pimenta, M. A.'
'Speziali, N. L.'
_publ_section_title
;
 Structural Analysis of Cs~2~HgBr~4~ in Normal, Incommensurate and Twinned
 Phases
;
_journal_issue                   3
_journal_name_full               'Acta Crystallographica Section B'
_journal_page_first              197
_journal_page_last               203
_journal_paper_doi               10.1107/S0108768197012032
_journal_volume                  54
_journal_year                    1998
_chemical_formula_structural     'Cs (HgBr4) Cs'
_chemical_formula_sum            'Br4 Cs2 Hg'
_chemical_formula_weight         786.02
_space_group_IT_number           62
_symmetry_cell_setting           orthorhombic
_symmetry_space_group_name_Hall  '-P 2ac 2n'
_symmetry_space_group_name_H-M   'P n m a'
_atom_type_scat_source
'International Tables for Crystallography Vol-C (1992)'
_cell_angle_alpha                90
_cell_angle_beta                 90
_cell_angle_gamma                90
_cell_formula_units_Z            4
_cell_length_a                   10.270(2)
_cell_length_b                   7.9460(10)
_cell_length_c                   13.935(2)
_cell_measurement_reflns_used    55
_cell_measurement_temperature    295(2)
_cell_measurement_theta_max      15.00
_cell_measurement_theta_min      7.50
_cell_volume                     1137.2(3)
_computing_cell_refinement       'SHELXTL PC (Sheldric, 1990)'
_computing_data_collection       'XSCANS Siemens software'
_computing_data_reduction
'DATRED - JANA'96 (Petricek, V. \&, Dusek, M. 1996)'
_computing_molecular_graphics    'ORTEP III (Burnett & Johnson, 1996)'
_computing_structure_refinement
'REFINE - JANA'96 (Petricek, V. \&, Dusek, M. 1996)'
_computing_structure_solution
'FOURIER - JANA'96 (Petricek, V. \&, Dusek, M. 1996)'
_diffrn_ambient_temperature      295
_diffrn_measurement_device       'Siemens P4 diffractometer'
_diffrn_measurement_method       \q/2\q
_diffrn_radiation_monochromator  graphite
_diffrn_radiation_source         'X-ray tube'
_diffrn_radiation_type           'Ag K\a'
_diffrn_radiation_wavelength     0.5608
_diffrn_reflns_av_R_equivalents  0.055
_diffrn_reflns_limit_h_max       14
_diffrn_reflns_limit_h_min       -9
_diffrn_reflns_limit_k_max       10
_diffrn_reflns_limit_k_min       0
_diffrn_reflns_limit_l_max       18
_diffrn_reflns_limit_l_min       -18
_diffrn_reflns_number            4053
_diffrn_reflns_theta_max         22.5
_diffrn_standards_decay_%        0
_diffrn_standards_interval_count 197
_diffrn_standards_number         3
_exptl_absorpt_coefficient_mu    18.22
_exptl_absorpt_correction_T_max  0.184
_exptl_absorpt_correction_T_min  0.170
_exptl_absorpt_correction_type   Spherical
_exptl_crystal_colour            Colorless
_exptl_crystal_density_diffrn    4.59
_exptl_crystal_density_meas      ?
_exptl_crystal_description       Spherical
_exptl_crystal_size_rad          0.065(5)
_refine_diff_density_max         3.3
_refine_diff_density_min         -3.9
_refine_ls_extinction_coef       0.63(5)
_refine_ls_extinction_method     'Larson (1967)'
_refine_ls_goodness_of_fit_obs   1.13
_refine_ls_matrix_type           full
_refine_ls_number_constraints    0
_refine_ls_number_parameters     56
_refine_ls_number_reflns         1604
_refine_ls_number_restraints     0
_refine_ls_R_factor_obs          0.0410
_refine_ls_shift/esd_max         0.0005
_refine_ls_shift/esd_mean        0.0000
_refine_ls_structure_factor_coef F
_refine_ls_weighting_details     w=1/(\s^2^(F))
_refine_ls_weighting_scheme      sigma
_refine_ls_wR_factor_obs         0.0333
_reflns_number_observed          768
_reflns_number_total             1604
_reflns_observed_criterion       I>3\s(I)
_cod_data_source_file            sh0100.cif
_cod_data_source_block           III
_cod_depositor_comments
;
The following automatic conversions were performed:

'_diffrn_ambient_temperature' value '295 (K)' was changed to '295' -
the value should be numeric and without a unit
designator.

'_symmetry_cell_setting' value 'Orthorhombic' changed to
'orthorhombic' according to
/home/saulius/struct/CIF-dictionaries/cif_core.dic dictionary named
'cif_core.dic' version 2.4.2 from
2011-04-26.

'_refine_ls_matrix_type' value 'Full' changed to 'full'
according to /home/saulius/struct/CIF-dictionaries/cif_core.dic
dictionary named 'cif_core.dic' version 2.4.2 from 2011-04-26.

Automatic conversion script
Id: cif_fix_values 1891 2012-01-12 08:04:46Z andrius 

The following automatic conversions were performed:

'_exptl_crystal_density_meas' value 'not measured' was changed to '?'
- the value is perceived as not measured.

Automatic conversion script
Id: cif_fix_values 3008 2015-01-20 13:52:24Z robertas 
;
_cod_original_cell_volume        1137.1(3)
_cod_database_code               2105660
loop_
_symmetry_equiv_pos_as_xyz
x,y,z
-x+1/2,-y,z+1/2
-x,y+1/2,-z
x+1/2,-y+1/2,-z+1/2
-x,-y,-z
x+1/2,y,-z+1/2
x,-y+1/2,z
-x+1/2,y+1/2,z+1/2
loop_
_atom_site_aniso_label
_atom_site_aniso_U_11
_atom_site_aniso_U_22
_atom_site_aniso_U_33
_atom_site_aniso_U_12
_atom_site_aniso_U_13
_atom_site_aniso_U_23
Hg 0.0589(4) 0.0452(3) 0.0545(4) 0.0000 -0.0021(3) 0.0000
Cs1 0.0913(9) 0.0459(6) 0.1672(13) 0.0000 0.009(7) 0.0000
Cs2 0.0867(8) 0.0438(5) 0.0553(6) 0.0000 0.0018(5) 0.0000
Br1 0.133(10) 0.0386(9) 0.0932(14) 0.009(2) -0.0149(9) -0.040(5)
Br2 0.18(5) 0.0549(10) 0.0577(11) 0.015(5) -0.0133(8) 0.037(5)
Br3 0.056(3) 0.053(3) 0.135(6) 0.004(3) 0.019(3) 0.039(4)
Br4 0.089(7) 0.083(6) 0.165(10) 0.005(3) 0.025(5) 0.061(6)
loop_
_atom_site_label
_atom_site_fract_x
_atom_site_fract_y
_atom_site_fract_z
_atom_site_U_iso_or_equiv
_atom_site_thermal_displace_type
_atom_site_calc_flag
_atom_site_occupancy
Hg 0.22150(10) 0.2500 0.4235000 0.0529(2) Uani d 1.0
Cs1 0.12070(10) 0.2500 0.0990(10) 0.1015(6) Uani d 1.0
Cs2 -0.01730(10) 0.2500 0.67230(10) 0.0619(4) Uani d 1.0
Br1 -0.0263(2) 0.225(2) 0.40960(10) 0.088(3) Uani d 0.5
Br2 0.3212(2) 0.239(2) 0.59330(10) 0.0979(16) Uani d 0.5
Br3 0.3296(13) 0.522(2) 0.3537(12) 0.081(3) Uani d 0.5
Br4 0.3098(15) 0.497(2) 0.3263(13) 0.112(5) Uani d 0.5
loop_
_geom_bond_atom_site_label_1
_geom_bond_atom_site_label_2
_geom_bond_site_symmetry_2
_geom_bond_distance
_geom_bond_publ_flag
Hg Cs1 . 4.6386(15) yes
Hg Cs2 . 4.2469(10) yes
Hg Br1 . 2.559(2) yes
Hg Br2 . 2.580(17) yes
Hg Br3 . 2.618(15) yes
Hg Br4 . 2.549(16) yes
Cs1 Br1 6_555 3.633(3) yes
Cs1 Br1 . 4.588(2) yes
Cs2 Br4 3_546 3.616(19) yes
Cs2 Br1 3_546 4.348(15) yes
