#------------------------------------------------------------------------------
#$Date: 2016-02-13 21:28:24 +0200 (Sat, 13 Feb 2016) $
#$Revision: 176429 $
#$URL: svn://www.crystallography.net/cod/cif/2/10/63/2106309.cif $
#------------------------------------------------------------------------------
#
# This file is available in the Crystallography Open Database (COD),
# http://www.crystallography.net/. The original data for this entry
# were provided by IUCr Journals, http://journals.iucr.org/.
#
# The file may be used within the scientific community so long as
# proper attribution is given to the journal article from which the
# data were obtained.
#
data_2106309
loop_
_publ_author_name
'Figgis, B.N.'
'Mason, R.'
'Smith, A.R.P.'
'Williams, G.A.'
_publ_section_title
;
 Neutron diffraction structure of Cs3 Co Cl5 at 4.2 K
;
_journal_name_full               'Acta Crystallographica B (24,1968-38,1982)'
_journal_page_first              509
_journal_page_last               512
_journal_volume                  36
_journal_year                    1980
_chemical_formula_sum            'Cl5 Co Cs3'
_chemical_name_systematic        'Cs3 (Co Cl4) Cl'
_space_group_IT_number           140
_symmetry_space_group_name_Hall  '-I 4 2c'
_symmetry_space_group_name_H-M   'I 4/m c m'
_cell_angle_alpha                90
_cell_angle_beta                 90
_cell_angle_gamma                90
_cell_formula_units_Z            4
_cell_length_a                   9.063
_cell_length_b                   9.063
_cell_length_c                   14.45
_cell_volume                     1186.894
_citation_journal_id_ASTM        ACBCAR
_cod_data_source_file            Figgis_ACBCAR_1980_897.cif
_cod_data_source_block           Cl5Co1Cs3
_cod_original_formula_sum        'Cl5 Co1 Cs3'
_cod_database_code               2106309
loop_
_symmetry_equiv_pos_as_xyz
x,y,z
-y,x,z
-x,-y,z
y,-x,z
x,-y,-z+1/2
y,x,-z+1/2
-x,y,-z+1/2
-y,-x,-z+1/2
-x,-y,-z
y,-x,-z
x,y,-z
-y,x,-z
-x,y,z-1/2
-y,-x,z-1/2
x,-y,z-1/2
y,x,z-1/2
x+1/2,y+1/2,z+1/2
-y+1/2,x+1/2,z+1/2
-x+1/2,-y+1/2,z+1/2
y+1/2,-x+1/2,z+1/2
x+1/2,-y+1/2,-z+1
y+1/2,x+1/2,-z+1
-x+1/2,y+1/2,-z+1
-y+1/2,-x+1/2,-z+1
-x+1/2,-y+1/2,-z+1/2
y+1/2,-x+1/2,-z+1/2
x+1/2,y+1/2,-z+1/2
-y+1/2,x+1/2,-z+1/2
-x+1/2,y+1/2,z
-y+1/2,-x+1/2,z
x+1/2,-y+1/2,z
y+1/2,x+1/2,z
loop_
_atom_site_label
_atom_site_type_symbol
_atom_site_fract_x
_atom_site_fract_y
_atom_site_fract_z
_atom_site_occupancy
_atom_site_U_iso_or_equiv
Cl2 Cl-1 0.1421 0.6421 0.15711 1 0.0
Cs2 Cs+1 0.66225 1.16225 0 1 0.0
Cs1 Cs+1 0 0 0.25 1 0.0
Cl1 Cl-1 0 0 0 1 0.0
Co1 Co+2 0 0.5 0.25 1 0.0
