#------------------------------------------------------------------------------
#$Date: 2015-10-01 15:02:29 +0300 (Thu, 01 Oct 2015) $
#$Revision: 159197 $
#$URL: svn://www.crystallography.net/cod/cif/2/10/68/2106802.cif $
#------------------------------------------------------------------------------
#
# This file is available in the Crystallography Open Database (COD),
# http://www.crystallography.net/. The original data for this entry
# were provided by IUCr Journals, http://journals.iucr.org/.
#
# The file may be used within the scientific community so long as
# proper attribution is given to the journal article from which the
# data were obtained.
#
data_2106802
loop_
_publ_author_name
'Dong Zhili'
'White, T.J.'
_publ_section_title
;
 Calcium-lead fluoro-vanadinite apatites. II. Equilibrium structures
;
_journal_name_full               'Acta Crystallographica B (39,1983-)'
_journal_page_first              146
_journal_page_last               154
_journal_volume                  60
_journal_year                    2004
_chemical_formula_sum            'Ca5.58 F1.7 O24.15 Pb4.42 V6'
_chemical_name_systematic        '(Pb4.42 Ca5.58) (V O4)6 (F0.85 O0.075)2'
_space_group_IT_number           176
_symmetry_space_group_name_Hall  '-P 6c'
_symmetry_space_group_name_H-M   'P 63/m'
_cell_angle_alpha                90
_cell_angle_beta                 90
_cell_angle_gamma                120
_cell_formula_units_Z            1
_cell_length_a                   9.9856
_cell_length_b                   9.9856
_cell_length_c                   7.1825
_cell_volume                     620.233
_citation_journal_id_ASTM        ASBSDK
_cod_data_source_file            DongZhili_ASBSDK_2004_1223.cif
_cod_data_source_block           Ca5.58F1.7O24.15Pb4.42V6
_cod_original_cell_volume        620.2327
_cod_database_code               2106802
loop_
_symmetry_equiv_pos_as_xyz
x,y,z
x-y,x,z+1/2
-y,x-y,z
-x,-y,z+1/2
-x+y,-x,z
y,-x+y,z+1/2
-x,-y,-z
-x+y,-x,-z-1/2
y,-x+y,-z
x,y,-z-1/2
x-y,x,-z
-y,x-y,-z-1/2
loop_
_atom_site_label
_atom_site_type_symbol
_atom_site_fract_x
_atom_site_fract_y
_atom_site_fract_z
_atom_site_occupancy
_atom_site_U_iso_or_equiv
O4 O-2 0 0 0.25 0.075 0.0
F1 F-1 0 0 0.25 0.85 0.0
Ca1 Ca+2 0.3333 0.6667 0.0087 0.78 0.0
O2 O-2 0.6028 0.4806 0.25 1 0.0
O3 O-2 0.3378 0.2537 0.0628 1 0.0
Ca2 Ca+2 0.2434 0.0015 0.25 0.41 0.0
O1 O-2 0.3288 0.4981 0.25 1 0.0
V1 V+5 0.4029 0.3763 0.25 1 0.0
Pb2 Pb+2 0.2434 0.0015 0.25 0.59 0.0
Pb1 Pb+2 0.3333 0.6667 0.0087 0.22 0.0
