#------------------------------------------------------------------------------
#$Date: 2015-07-13 07:25:14 +0300 (Mon, 13 Jul 2015) $
#$Revision: 150018 $
#$URL: svn://www.crystallography.net/cod/cif/2/10/64/2106447.cif $
#------------------------------------------------------------------------------
#
# This file is available in the Crystallography Open Database (COD),
# http://www.crystallography.net/. The original data for this entry
# were provided by IUCr Journals, http://journals.iucr.org/.
#
# The file may be used within the scientific community so long as
# proper attribution is given to the journal article from which the
# data were obtained.
#
data_2106447
loop_
_publ_author_name
'Sudarsanan, K.'
'Young, R.A.'
'Wilson, A.J.C.'
_publ_section_title
;
 The structures of some cadmium 'apatites' Cd5 (M O4)3 X. I. Determination
 of the structures of Cd5 (V O4)3 I , Cd5 (P O4)3 Br , Cd5 (AS O4)3 Br and
 Cd5 (V O4)3 Br
;
_journal_name_full               'Acta Crystallographica B (24,1968-38,1982)'
_journal_page_first              3136
_journal_page_last               3142
_journal_volume                  33
_journal_year                    1977
_chemical_formula_sum            'Br1.52 Cd4.82 O12 P3'
_chemical_name_systematic        'Cd4.82 (P O4)3 Br1.52'
_space_group_IT_number           176
_symmetry_space_group_name_Hall  '-P 6c'
_symmetry_space_group_name_H-M   'P 63/m'
_cell_angle_alpha                90
_cell_angle_beta                 90
_cell_angle_gamma                120
_cell_formula_units_Z            2
_cell_length_a                   9.733
_cell_length_b                   9.733
_cell_length_c                   6.468
_cell_volume                     530.633
_citation_journal_id_ASTM        ACBCAR
_cod_data_source_file            Sudarsanan_ACBCAR_1977_703.cif
_cod_data_source_block           Br1.52Cd4.82O12P3
_cod_original_cell_volume        530.6328
_cod_database_code               2106447
loop_
_symmetry_equiv_pos_as_xyz
x,y,z
x-y,x,z+1/2
-y,x-y,z
-x,-y,z+1/2
-x+y,-x,z
y,-x+y,z+1/2
-x,-y,-z
-x+y,-x,-z-1/2
y,-x+y,-z
x,y,-z-1/2
x-y,x,-z
-y,x-y,-z-1/2
loop_
_atom_site_label
_atom_site_type_symbol
_atom_site_fract_x
_atom_site_fract_y
_atom_site_fract_z
_atom_site_occupancy
_atom_site_U_iso_or_equiv
Cd1 Cd+2 0.3333 0.6667 0.0054 0.963 0.0
Br2 Br-1 0 0 0.2 0.3534 0.0
P1 P+5 0.4056 0.3779 0.25 1 0.0
Br3 Br-1 0 0 0.15 0.213 0.0
Br5 Br-1 0 0 0.05 0.0408 0.0
O1 O-2 0.3547 0.5042 0.25 1 0.0
Br6 Br-1 0 0 0 0.0144 0.0
Cd2 Cd+2 -0.0202 0.2562 0.25 0.965 0.0
O3 O-2 0.348 0.2696 0.0597 1 0.0
O2 O-2 0.5903 0.4569 0.25 1 0.0
Br1 Br-1 0 0 0.25 0.1218 0.0
Br4 Br-1 0 0 0.1 0.0864 0.0
