#------------------------------------------------------------------------------
#$Date: 2016-02-13 21:28:24 +0200 (Sat, 13 Feb 2016) $
#$Revision: 176429 $
#$URL: svn://www.crystallography.net/cod/cif/2/10/68/2106839.cif $
#------------------------------------------------------------------------------
#
# This file is available in the Crystallography Open Database (COD),
# http://www.crystallography.net/. The original data for this entry
# were provided by IUCr Journals, http://journals.iucr.org/.
#
# The file may be used within the scientific community so long as
# proper attribution is given to the journal article from which the
# data were obtained.
#
data_2106839
loop_
_publ_author_name
'Bedlivy, D.'
'Mereiter, K.'
_publ_section_title
;
 The Structures of Potassium Lead Triiodide Dihydrate and Ammonium Lead
 Triiodide Dihydrate
;
_journal_name_full               'Acta Crystallographica B (24,1968-38,1982)'
_journal_page_first              782
_journal_page_last               785
_journal_volume                  36
_journal_year                    1980
_chemical_formula_sum            'H4 I3 K O2 Pb'
_chemical_name_systematic        'K Pb I3 (H2 O)2'
_space_group_IT_number           62
_symmetry_space_group_name_Hall  '-P 2ac 2n'
_symmetry_space_group_name_H-M   'P n m a'
_cell_angle_alpha                90
_cell_angle_beta                 90
_cell_angle_gamma                90
_cell_formula_units_Z            4
_cell_length_a                   10.168
_cell_length_b                   4.577
_cell_length_c                   22.484
_cell_volume                     1046.381
_citation_journal_id_ASTM        ACBCAR
_cod_data_source_file            Bedlivy_ACBCAR_1980_1027.cif
_cod_data_source_block           H4I3K1O2Pb1
_cod_original_formula_sum        'H4 I3 K1 O2 Pb1'
_cod_database_code               2106839
loop_
_symmetry_equiv_pos_as_xyz
x,y,z
-x+1/2,-y,z+1/2
x+1/2,-y+1/2,-z+1/2
-x,y+1/2,-z
-x,-y,-z
x-1/2,y,-z-1/2
-x-1/2,y-1/2,z-1/2
x,-y-1/2,z
loop_
_atom_site_label
_atom_site_type_symbol
_atom_site_fract_x
_atom_site_fract_y
_atom_site_fract_z
_atom_site_occupancy
_atom_site_U_iso_or_equiv
I1 I-1 0.41562 0.25 0.28312 1 0.0
I3 I-1 0.66135 0.25 0.54934 1 0.0
K1 K+1 0.14112 0.75 0.29991 1 0.0
Pb1 Pb+2 0.54326 0.25 0.40497 1 0.0
I2 I-1 0.7485 0.75 0.36729 1 0.0
H3 H+1 0.0161 0.4213 0.4998 0.5 0.0
O1 O-2 0.05936 0.25 0.36294 1 0.0
H1 H+1 0.0983 0.25 0.4018 1 0.0
H2 H+1 -0.0347 0.25 0.3666 1 0.0
H4 H+1 0.1492 0.25 0.5042 1 0.0
O2 O-2 0.06274 0.25 0.4871 1 0.0
