#------------------------------------------------------------------------------
#$Date: 2015-10-01 15:01:18 +0300 (Thu, 01 Oct 2015) $
#$Revision: 159191 $
#$URL: svn://www.crystallography.net/cod/cif/2/10/67/2106796.cif $
#------------------------------------------------------------------------------
#
# This file is available in the Crystallography Open Database (COD),
# http://www.crystallography.net/. The original data for this entry
# were provided by IUCr Journals, http://journals.iucr.org/.
#
# The file may be used within the scientific community so long as
# proper attribution is given to the journal article from which the
# data were obtained.
#
data_2106796
loop_
_publ_author_name
'Dong Zhili'
'White, T.J.'
_publ_section_title
;
 Calcium-lead fluoro-vanadinite apatites. II. Equilibrium structures
;
_journal_name_full               'Acta Crystallographica B (39,1983-)'
_journal_page_first              146
_journal_page_last               154
_journal_volume                  60
_journal_year                    2004
_chemical_formula_sum            'Ca9.43 F1.8 O24.1 Pb0.57 V6'
_chemical_name_systematic        '(Pb0.57 Ca9.43) (V O4)6 (F0.9 O0.05)2'
_space_group_IT_number           176
_symmetry_space_group_name_Hall  '-P 6c'
_symmetry_space_group_name_H-M   'P 63/m'
_cell_angle_alpha                90
_cell_angle_beta                 90
_cell_angle_gamma                120
_cell_formula_units_Z            1
_cell_length_a                   9.7835
_cell_length_b                   9.7835
_cell_length_c                   7.0318
_cell_volume                     582.889
_citation_journal_id_ASTM        ASBSDK
_cod_data_source_file            DongZhili_ASBSDK_2004_1217.cif
_cod_data_source_block           Ca9.43F1.8O24.1Pb0.57V6
_cod_original_cell_volume        582.8887
_cod_database_code               2106796
loop_
_symmetry_equiv_pos_as_xyz
x,y,z
x-y,x,z+1/2
-y,x-y,z
-x,-y,z+1/2
-x+y,-x,z
y,-x+y,z+1/2
-x,-y,-z
-x+y,-x,-z-1/2
y,-x+y,-z
x,y,-z-1/2
x-y,x,-z
-y,x-y,-z-1/2
loop_
_atom_site_label
_atom_site_type_symbol
_atom_site_fract_x
_atom_site_fract_y
_atom_site_fract_z
_atom_site_occupancy
_atom_site_U_iso_or_equiv
Pb1 Pb+2 0.3333 0.6667 0.0019 0.03 0.0
V1 V+5 0.3996 0.3714 0.25 1 0.0
O1 O-2 0.3209 0.4937 0.25 1 0.0
Pb2 Pb+2 0.2434 0.0006 0.25 0.07 0.0
O3 O-2 0.3323 0.2458 0.059 1 0.0
O2 O-2 0.6018 0.4739 0.25 1 0.0
Ca2 Ca+2 0.2434 0.0006 0.25 0.93 0.0
Ca1 Ca+2 0.3333 0.6667 0.0019 0.97 0.0
O4 O-2 0 0 0.25 0.05 0.0
F1 F-1 0 0 0.25 0.9 0.0
