#------------------------------------------------------------------------------
#$Date: 2015-07-14 02:35:32 +0300 (Tue, 14 Jul 2015) $
#$Revision: 151710 $
#$URL: svn://www.crystallography.net/cod/cif/2/10/65/2106597.cif $
#------------------------------------------------------------------------------
#
# This file is available in the Crystallography Open Database (COD),
# http://www.crystallography.net/. The original data for this entry
# were provided by IUCr Journals, http://journals.iucr.org/.
#
# The file may be used within the scientific community so long as
# proper attribution is given to the journal article from which the
# data were obtained.
#
data_2106597
loop_
_publ_author_name
'Sudarsanan, K.'
'Young, R.A.'
_publ_section_title
;
 Structural interactions of F, Cl and OH in Apatites
;
_journal_name_full               'Acta Crystallographica B (24,1968-38,1982)'
_journal_page_first              1401
_journal_page_last               1407
_journal_volume                  34
_journal_year                    1978
_chemical_formula_sum            'Ca9.5268 Cl1.3624 O1.648'
_chemical_name_systematic        'Ca9.53 P5.84 O23.33 Cl1.36 (O H)1.65 F0.57'
_space_group_IT_number           176
_symmetry_space_group_name_Hall  '-P 6c'
_symmetry_space_group_name_H-M   'P 63/m'
_cell_angle_alpha                90
_cell_angle_beta                 90
_cell_angle_gamma                120
_cell_formula_units_Z            1
_cell_length_a                   9.483
_cell_length_b                   9.483
_cell_length_c                   6.78
_cell_volume                     528.022
_citation_journal_id_ASTM        ACBCAR
_cod_data_source_file            Sudarsanan_ACBCAR_1978_637.cif
_cod_data_source_block           Ca9.5268Cl1.3624O1.648
_cod_original_cell_volume        528.0218
_cod_database_code               2106597
loop_
_symmetry_equiv_pos_as_xyz
x,y,z
x-y,x,z+1/2
-y,x-y,z
-x,-y,z+1/2
-x+y,-x,z
y,-x+y,z+1/2
-x,-y,-z
-x+y,-x,-z-1/2
y,-x+y,-z
x,y,-z-1/2
x-y,x,-z
-y,x-y,-z-1/2
loop_
_atom_site_label
_atom_site_type_symbol
_atom_site_fract_x
_atom_site_fract_y
_atom_site_fract_z
_atom_site_occupancy
_atom_site_U_iso_or_equiv
Ca1 Ca+2 0.3333 0.6667 0.0019 0.9459 0.0
Ca3 Ca+2 0.0059 0.2705 0.25 0.3283 0.0
Ca2 Ca+2 0.0039 0.2464 0.25 0.6289 0.0
Cl1 Cl-1 0 0 0.4072 0.3406 0.0
O1 O-2 0 0 0.1891 0.412 0.0
