#------------------------------------------------------------------------------
#$Date: 2015-07-13 07:25:22 +0300 (Mon, 13 Jul 2015) $
#$Revision: 150019 $
#$URL: svn://www.crystallography.net/cod/cif/2/10/64/2106448.cif $
#------------------------------------------------------------------------------
#
# This file is available in the Crystallography Open Database (COD),
# http://www.crystallography.net/. The original data for this entry
# were provided by IUCr Journals, http://journals.iucr.org/.
#
# The file may be used within the scientific community so long as
# proper attribution is given to the journal article from which the
# data were obtained.
#
data_2106448
loop_
_publ_author_name
'Sudarsanan, K.'
'Wilson, A.J.C.'
'Young, R.A.'
_publ_section_title
;
 The structures of some cadmium 'apatites' Cd5 (M O4)3 X. I. Determination
 of the structures of Cd5 (V O4)3 I , Cd5 (P O4)3 Br , Cd5 (AS O4)3 Br and
 Cd5 (V O4)3 Br
;
_journal_name_full               'Acta Crystallographica B (24,1968-38,1982)'
_journal_page_first              3136
_journal_page_last               3142
_journal_volume                  33
_journal_year                    1977
_chemical_formula_sum            'As3 Br1.54 Cd4.92 O12'
_chemical_name_systematic        'Cd4.92 (As O4)3 Br1.54'
_space_group_IT_number           176
_symmetry_space_group_name_Hall  '-P 6c'
_symmetry_space_group_name_H-M   'P 63/m'
_cell_angle_alpha                90
_cell_angle_beta                 90
_cell_angle_gamma                120
_cell_formula_units_Z            2
_cell_length_a                   10.1
_cell_length_b                   10.1
_cell_length_c                   6.519
_cell_volume                     575.910
_citation_journal_id_ASTM        ACBCAR
_cod_data_source_file            Sudarsanan_ACBCAR_1977_704.cif
_cod_data_source_block           As3Br1.54Cd4.92O12
_cod_original_cell_volume        575.9097
_cod_database_code               2106448
loop_
_symmetry_equiv_pos_as_xyz
x,y,z
x-y,x,z+1/2
-y,x-y,z
-x,-y,z+1/2
-x+y,-x,z
y,-x+y,z+1/2
-x,-y,-z
-x+y,-x,-z-1/2
y,-x+y,-z
x,y,-z-1/2
x-y,x,-z
-y,x-y,-z-1/2
loop_
_atom_site_label
_atom_site_type_symbol
_atom_site_fract_x
_atom_site_fract_y
_atom_site_fract_z
_atom_site_occupancy
_atom_site_U_iso_or_equiv
Cd2 Cd+2 -0.0325 0.2469 0.25 0.9802 0.0
Br5 Br-1 0 0 0.05 0.0048 0.0
O1 O-2 0.3573 0.5164 0.25 1 0.0
Br4 Br-1 0 0 0.1 0.069 0.0
O3 O-2 0.3469 0.2634 0.0456 1 0.0
Br1 Br-1 0 0 0.25 0.3132 0.0
As1 As+5 0.4072 0.3817 0.25 1 0.0
Cd1 Cd+2 0.3333 0.6667 0.0039 0.99 0.0
Br2 Br-1 0 0 0.2 0.4158 0.0
Br3 Br-1 0 0 0.15 0.1224 0.0
O2 O-2 0.6017 0.4654 0.25 1 0.0
