#------------------------------------------------------------------------------
#$Date: 2015-10-01 14:59:07 +0300 (Thu, 01 Oct 2015) $
#$Revision: 159188 $
#$URL: svn://www.crystallography.net/cod/cif/2/10/67/2106793.cif $
#------------------------------------------------------------------------------
#
# This file is available in the Crystallography Open Database (COD),
# http://www.crystallography.net/. The original data for this entry
# were provided by IUCr Journals, http://journals.iucr.org/.
#
# The file may be used within the scientific community so long as
# proper attribution is given to the journal article from which the
# data were obtained.
#
data_2106793
loop_
_publ_author_name
'Dong Zhili'
'White, T.J.'
_publ_section_title
;
 Calcium-lead fluoro-vanadinite apatites. I. Disequilibrium structures
;
_journal_name_full               'Acta Crystallographica B (39,1983-)'
_journal_page_first              138
_journal_page_last               145
_journal_volume                  60
_journal_year                    2004
_chemical_formula_sum            'Ca5.1 F0.6 O24.7 Pb4.9 V6'
_chemical_name_systematic
;
(Pb1.12 Ca2.88) (Pb3.78 Ca2.22) (V O4)6 (F0.6 O0.7)
;
_space_group_IT_number           176
_symmetry_space_group_name_Hall  '-P 6c'
_symmetry_space_group_name_H-M   'P 63/m'
_cell_angle_alpha                90
_cell_angle_beta                 90
_cell_angle_gamma                120
_cell_formula_units_Z            1
_cell_length_a                   10.0011
_cell_length_b                   10.0011
_cell_length_c                   7.1993
_cell_volume                     623.615
_citation_journal_id_ASTM        ASBSDK
_cod_data_source_file            DongZhili_ASBSDK_2004_1213.cif
_cod_data_source_block           Ca5.1F0.6O24.7Pb4.9V6
_cod_original_cell_volume        623.6147
_cod_database_code               2106793
loop_
_symmetry_equiv_pos_as_xyz
x,y,z
x-y,x,z+1/2
-y,x-y,z
-x,-y,z+1/2
-x+y,-x,z
y,-x+y,z+1/2
-x,-y,-z
-x+y,-x,-z-1/2
y,-x+y,-z
x,y,-z-1/2
x-y,x,-z
-y,x-y,-z-1/2
loop_
_atom_site_label
_atom_site_type_symbol
_atom_site_fract_x
_atom_site_fract_y
_atom_site_fract_z
_atom_site_occupancy
_atom_site_U_iso_or_equiv
V1 V+5 0.4066 0.377 0.25 1 0.0
Ca1 Ca+2 0.3333 0.6667 0.0083 0.72 0.0
O1 O-2 0.3363 0.5014 0.25 1 0.0
O3 O-2 0.3436 0.2594 0.0602 1 0.0
Pb2 Pb+2 0.2442 0.0028 0.25 0.63 0.0
F1 F-1 0 0 0.25 0.3 0.0
Pb1 Pb+2 0.3333 0.6667 0.0083 0.28 0.0
O2 O-2 0.6046 0.4782 0.25 1 0.0
O4 O-2 0 0 0.25 0.35 0.0
Ca2 Ca+2 0.2442 0.0028 0.25 0.37 0.0
