#------------------------------------------------------------------------------
#$Date: 2016-04-02 04:17:53 +0300 (Sat, 02 Apr 2016) $
#$Revision: 180695 $
#$URL: svn://www.crystallography.net/cod/cif/2/10/74/2107488.cif $
#------------------------------------------------------------------------------
#
# This file is available in the Crystallography Open Database (COD),
# http://www.crystallography.net/. The original data for this entry
# were provided by IUCr Journals, http://journals.iucr.org/.
#
# The file may be used within the scientific community so long as
# proper attribution is given to the journal article from which the
# data were obtained.
#
data_2107488
loop_
_publ_author_name
'Hejny, Clivia'
'Kahlenberg, Volker'
'Eberhard, Tim'
'Kr\"uger, Hannes'
_publ_section_title
;
 Melilite-like modulation and temperature-dependent evolution in the
 framework structure of K~2~Sc[Si~2~O~6~]F
;
_journal_coeditor_code           DK5040
_journal_issue                   2
_journal_name_full               'Acta Crystallographica Section B'
_journal_page_first              209
_journal_page_last               222
_journal_paper_doi               10.1107/S2052520615024865
_journal_volume                  72
_journal_year                    2016
_chemical_formula_sum            'F K2 O6 Sc Si2'
_chemical_formula_weight         294.3
_chemical_name_systematic        ' ?'
_space_group_IT_number           136
_symmetry_cell_setting           tetragonal
_symmetry_Int_Tables_number      136
_symmetry_space_group_name_Hall  '-P 4n 2n'
_symmetry_space_group_name_H-M   'P 42/m n m'
_cell_angle_alpha                90
_cell_angle_beta                 90
_cell_angle_gamma                90
_cell_formula_units_Z            4
_cell_length_a                   8.9939(5)
_cell_length_b                   8.9939(5)
_cell_length_c                   8.2758(7)
_cell_measurement_temperature    293
_cell_volume                     669.43(8)
_diffrn_ambient_temperature      293
_diffrn_measured_fraction_theta_full 0.98
_diffrn_measured_fraction_theta_max 0.98
_diffrn_measurement_device       'four-circle diffractometer'
_diffrn_measurement_device_type  'IPDS Stoe'
_diffrn_measurement_method       '??integration method??'
_diffrn_radiation_monochromator  graphite
_diffrn_radiation_probe          x-ray
_diffrn_radiation_source         'X-ray tube'
_diffrn_radiation_type           'Mo K\a'
_diffrn_radiation_wavelength     0.71069
_diffrn_reflns_av_R_equivalents  0.0527
_diffrn_reflns_av_unetI/netI     0.0018
_diffrn_reflns_limit_h_max       11
_diffrn_reflns_limit_h_min       -11
_diffrn_reflns_limit_k_max       11
_diffrn_reflns_limit_k_min       -11
_diffrn_reflns_limit_l_max       10
_diffrn_reflns_limit_l_min       -10
_diffrn_reflns_number            4724
_diffrn_reflns_theta_full        26.72
_diffrn_reflns_theta_max         26.72
_diffrn_reflns_theta_min         3.2
_exptl_absorpt_coefficient_mu    2.705
_exptl_crystal_density_diffrn    2.9202
_exptl_crystal_F_000             576
_refine_diff_density_max         0.40
_refine_diff_density_min         -0.89
_refine_ls_extinction_method     none
_refine_ls_goodness_of_fit_gt    3.61
_refine_ls_goodness_of_fit_ref   3.59
_refine_ls_number_constraints    0
_refine_ls_number_parameters     38
_refine_ls_number_reflns         406
_refine_ls_number_restraints     0
_refine_ls_R_factor_all          0.0265
_refine_ls_R_factor_gt           0.0262
_refine_ls_shift/su_max          0.0184
_refine_ls_shift/su_mean         0.0065
_refine_ls_structure_factor_coef F
_refine_ls_weighting_details     w=1/(\s^2^(F)+0.0001F^2^)
_refine_ls_weighting_scheme      sigma
_refine_ls_wR_factor_gt          0.0380
_refine_ls_wR_factor_ref         0.0381
_reflns_number_gt                401
_reflns_number_total             406
_reflns_threshold_expression     I>3\s(I)
_cod_data_source_file            dk5040sup1.cif
_cod_data_source_block           II_473K
_cod_depositor_comments
;
The following automatic conversions were performed:

'_diffrn_radiation_probe' value 'X-ray' changed to 'x-ray' according
to
/usr/data/users/saulius/crontab/automatic-downloads/rss-feeds/IUCr/lib/dictionaries/cif_core.dic
dictionary named 'cif_core.dic' version 2.4.2 from 2011-04-26.

Automatic conversion script
Id: cif_fix_values 4268 2015-11-12 08:31:59Z antanas 
;
_cod_original_sg_symbol_Hall     '-P 4n;-2n'
_cod_original_sg_symbol_H-M      'P 42/m 21/n 2/m'
_cod_original_formula_sum        'F1 K2 O6 Sc1 Si2'
_cod_database_code               2107488
loop_
_space_group_symop_id
_space_group_symop_operation_xyz
1 x,y,z
2 -x,-y,z
3 -y+1/2,x+1/2,z+1/2
4 y+1/2,-x+1/2,z+1/2
5 -x+1/2,y+1/2,-z+1/2
6 x+1/2,-y+1/2,-z+1/2
7 y,x,-z
8 -y,-x,-z
9 -x,-y,-z
10 x,y,-z
11 y+1/2,-x+1/2,-z+1/2
12 -y+1/2,x+1/2,-z+1/2
13 x+1/2,-y+1/2,z+1/2
14 -x+1/2,y+1/2,z+1/2
15 -y,-x,z
16 y,x,z
loop_
_atom_site_label
_atom_site_type_symbol
_atom_site_fract_x
_atom_site_fract_y
_atom_site_fract_z
_atom_site_adp_type
_atom_site_U_iso_or_equiv
_atom_site_site_symmetry_multiplicity
_atom_site_occupancy
_atom_site_calc_flag
Sc1 Sc 0.5 0 0.25 Uani 0.0098(2) 4 1 d
Si Si 0.12240(5) 0.12240(5) 0.19636(6) Uani 0.01029(19) 8 1 d
K1 K 0.79357(6) 0.20643(6) 0 Uani 0.0300(2) 4 1 d
K2 K 0.34265(7) 0.34265(7) 0 Uani 0.0415(3) 4 1 d
O2bz O 0.1163(2) 0.1163(2) 0 Uani 0.0292(6) 4 1 d
Obxx O 0 0 0.2592(3) Uani 0.0241(7) 4 1 d
F F 0.5 0 0.5 Uani 0.0281(8) 4 1 d
Ot O 0.07257(17) 0.28140(13) 0.25854(15) Uani 0.0255(4) 16 1 d
loop_
_atom_site_aniso_label
_atom_site_aniso_type_symbol
_atom_site_aniso_U_11
_atom_site_aniso_U_22
_atom_site_aniso_U_33
_atom_site_aniso_U_12
_atom_site_aniso_U_13
_atom_site_aniso_U_23
Sc1 Sc 0.0112(3) 0.0112(3) 0.0070(4) 0 0 0
Si Si 0.0113(3) 0.0113(3) 0.0083(4) 0.0002(2) -0.00030(13) -0.00030(13)
K1 K 0.0344(4) 0.0344(4) 0.0211(4) 0.0133(4) 0 0
K2 K 0.0501(5) 0.0501(5) 0.0243(5) -0.0311(5) 0 0
O2bz O 0.0398(10) 0.0398(10) 0.0079(11) -0.0147(12) 0 0
Obxx O 0.0287(11) 0.0287(11) 0.0148(13) -0.0147(10) 0 0
F F 0.0341(14) 0.0424(15) 0.0079(11) 0.0047(9) 0 0
Ot O 0.0348(7) 0.0140(6) 0.0277(8) 0.0066(5) -0.0022(6) -0.0042(4)
loop_
_atom_type_symbol
_atom_type_scat_dispersion_real
_atom_type_scat_dispersion_imag
_atom_type_scat_source
F 0.0171 0.0103 'International Tables Vol C tables 4.2.6.8 and 6.1.1.1'
K 0.2009 0.2494 'International Tables Vol C tables 4.2.6.8 and 6.1.1.1'
O 0.0106 0.0060 'International Tables Vol C tables 4.2.6.8 and 6.1.1.1'
Sc 0.2519 0.3716 'International Tables Vol C tables 4.2.6.8 and 6.1.1.1'
Si 0.0817 0.0704 'International Tables Vol C tables 4.2.6.8 and 6.1.1.1'
loop_
_geom_angle_atom_site_label_1
_geom_angle_atom_site_label_2
_geom_angle_atom_site_label_3
_geom_angle_site_symmetry_1
_geom_angle_site_symmetry_3
_geom_angle
F Sc1 F . 3_544 180.0(5)
F Sc1 Ot . 5_545 91.95(3)
F Sc1 Ot . 6_555 91.95(3)
F Sc1 Ot . 15_655 88.05(3)
F Sc1 Ot . 16_555 88.05(3)
F Sc1 Ot 3_544 5_545 88.05(3)
F Sc1 Ot 3_544 6_555 88.05(3)
F Sc1 Ot 3_544 15_655 91.95(3)
F Sc1 Ot 3_544 16_555 91.95(3)
Ot Sc1 Ot 5_545 6_555 176.09(5)
Ot Sc1 Ot 5_545 15_655 90.07(6)
Ot Sc1 Ot 5_545 16_555 90.07(6)
Ot Sc1 Ot 6_555 15_655 90.07(6)
Ot Sc1 Ot 6_555 16_555 90.07(6)
Ot Sc1 Ot 15_655 16_555 176.09(5)
O2bz Si Obxx . . 105.74(10)
O2bz Si Ot . . 110.20(8)
O2bz Si Ot . 16_555 110.20(8)
Obxx Si Ot . . 108.23(7)
Obxx Si Ot . 16_555 108.23(7)
Ot Si Ot . 16_555 113.89(8)
Ot K1 Ot 4_554 6_555 116.57(4)
Ot K1 Ot 4_554 11_555 90.22(4)
Ot K1 Ot 4_554 13_554 56.18(4)
Ot K1 Ot 6_555 11_555 56.18(4)
Ot K1 Ot 6_555 13_554 90.22(4)
Ot K1 Ot 11_555 13_554 116.57(4)
O2bz K2 Obxx . 3_554 135.12(3)
O2bz K2 Obxx . 5_555 135.12(3)
Obxx K2 Obxx 3_554 5_555 89.76(5)
loop_
_geom_bond_atom_site_label_1
_geom_bond_atom_site_label_2
_geom_bond_site_symmetry_2
_geom_bond_distance
Sc1 F . 2.0689(3)
Sc1 F 3_544 2.0689(3)
Sc1 Ot 5_545 2.0728(13)
Sc1 Ot 6_555 2.0728(13)
Sc1 Ot 15_655 2.0728(13)
Sc1 Ot 16_555 2.0728(13)
Si O2bz . 1.6269(6)
Si Obxx . 1.6413(8)
Si Ot . 1.5845(13)
Si Ot 16_555 1.5845(13)
K1 Ot 4_554 2.8206(15)
K1 Ot 6_555 2.8206(15)
K1 Ot 11_555 2.8206(15)
K1 Ot 13_554 2.8206(15)
K2 O2bz . 2.8788(19)
K2 Obxx 3_554 2.8245(17)
K2 Obxx 5_555 2.8245(17)
loop_
_refln_index_h
_refln_index_k
_refln_index_l
_refln_F_squared_calc
_refln_F_squared_meas
_refln_F_squared_sigma
_refln_observed_status
1 1 0 70.02 93.18 2.06 o
0 2 0 1538.59 1484.11 6.17 o
1 2 0 1118.53 1215.20 3.43 o
2 3 0 1667.02 1418.02 2.88 o
3 3 0 2318.28 2235.68 4.59 o
0 4 0 330.52 413.89 2.57 o
3 4 0 200.33 224.95 1.23 o
2 5 0 367.58 356.53 1.53 o
3 5 0 2587.31 2328.37 3.25 o
4 5 0 21.46 22.21 0.81 o
5 5 0 1298.84 1269.13 3.07 o
0 6 0 3173.88 2878.58 5.76 o
1 6 0 4732.55 4161.15 4.66 o
2 6 0 4081.45 3681.24 4.04 o
3 6 0 3578.03 3081.03 3.57 o
4 6 0 1625.64 1562.34 2.48 o
5 6 0 267.88 289.08 1.23 o
6 6 0 3621.26 3423.64 4.76 o
1 7 0 99.80 95.40 1.14 o
2 7 0 3908.54 3467.79 3.80 o
3 7 0 3592.16 3253.30 3.58 o
4 7 0 0.88 1.85 0.88 <
5 7 0 3782.76 3597.81 3.57 o
6 7 0 1188.60 1201.36 2.13 o
7 7 0 183.24 193.02 1.57 o
0 8 0 5468.45 5053.23 6.73 o
1 8 0 5.15 10.92 0.94 o
2 8 0 4197.99 3861.25 3.97 o
3 8 0 0.98 3.88 0.98 o
4 8 0 136.73 137.77 1.27 o
5 8 0 533.66 536.55 1.70 o
6 8 0 1432.70 1459.82 2.69 o
7 8 0 1.00 1.70 1.02 <
8 8 0 2581.86 2580.96 4.55 o
1 9 0 285.99 280.84 1.49 o
2 9 0 643.96 631.20 2.55 o
3 9 0 2854.89 2711.31 3.26 o
4 9 0 56.36 59.77 1.18 o
5 9 0 807.47 807.02 2.63 o
6 9 0 70.37 79.01 1.39 o
0 10 0 2362.02 2469.21 5.30 o
1 10 0 138.58 148.96 1.60 o
2 10 0 893.38 883.84 2.20 o
3 10 0 730.68 709.99 1.96 o
4 10 0 878.99 816.54 2.00 o
5 10 0 1072.19 1002.27 2.20 o
1 11 0 807.07 796.06 2.34 o
2 11 0 1124.39 1094.91 2.54 o
0 1 1 527.40 597.55 2.92 o
1 1 1 96.16 114.35 1.62 o
1 2 1 12.36 15.89 0.88 o
2 2 1 6597.85 5619.02 15.78 o
0 3 1 464.47 496.42 2.22 o
1 3 1 4455.78 4039.89 3.94 o
2 3 1 103.87 101.22 0.76 o
3 3 1 15.05 23.25 0.83 o
1 4 1 125.25 145.07 0.84 o
2 4 1 19.89 17.43 0.64 o
3 4 1 323.38 297.41 0.95 o
4 4 1 239.01 219.93 1.18 o
0 5 1 7.56 4.85 0.79 o
1 5 1 2382.55 2291.71 2.39 o
2 5 1 1036.43 981.02 1.54 o
3 5 1 218.67 233.48 0.93 o
4 5 1 1925.57 1830.39 1.91 o
5 5 1 908.17 877.71 1.91 o
1 6 1 343.33 346.78 1.06 o
2 6 1 2233.20 2107.93 2.10 o
3 6 1 613.08 584.18 1.20 o
4 6 1 802.04 778.89 1.38 o
5 6 1 0.14 2.09 0.58 o
6 6 1 24.89 43.76 0.89 o
0 7 1 688.69 681.14 2.08 o
1 7 1 160.07 175.96 0.90 o
2 7 1 706.92 685.87 1.31 o
3 7 1 0.54 3.84 0.63 o
4 7 1 141.37 143.31 0.75 o
5 7 1 21.78 22.10 0.67 o
6 7 1 277.61 289.23 0.95 o
7 7 1 148.95 151.78 1.15 o
1 8 1 170.34 172.44 0.85 o
2 8 1 315.24 314.38 0.97 o
3 8 1 36.23 37.52 0.69 o
4 8 1 560.41 540.20 1.16 o
5 8 1 781.59 797.36 1.30 o
6 8 1 95.20 104.05 0.81 o
7 8 1 389.74 404.97 1.11 o
8 8 1 9.73 11.57 1.00 o
0 9 1 1326.26 1348.56 3.13 o
1 9 1 599.24 636.68 1.32 o
2 9 1 86.42 85.53 0.76 o
3 9 1 25.53 27.05 0.71 o
4 9 1 363.02 361.99 1.08 o
5 9 1 8.96 10.49 0.75 o
6 9 1 64.28 63.96 0.81 o
1 10 1 72.69 75.26 0.83 o
2 10 1 30.04 36.59 0.78 o
3 10 1 333.03 332.11 1.13 o
4 10 1 50.65 46.85 0.84 o
5 10 1 115.75 109.96 0.92 o
0 11 1 50.97 43.93 1.23 o
1 11 1 59.92 58.62 0.88 o
2 11 1 6.77 11.29 0.84 o
1 1 2 913.80 982.27 2.81 o
2 2 2 1083.58 1352.16 2.81 o
1 3 2 385.60 591.44 1.50 o
2 3 2 561.27 712.32 1.53 o
3 3 2 2467.87 2326.99 3.30 o
0 4 2 1376.59 1482.44 3.02 o
1 4 2 330.39 296.55 0.97 o
2 4 2 4770.77 4501.81 3.43 o
3 4 2 137.53 134.82 0.76 o
4 4 2 3051.53 2801.49 3.47 o
1 5 2 4636.31 4005.28 3.07 o
2 5 2 1709.08 1628.25 1.85 o
3 5 2 174.46 181.44 0.82 o
4 5 2 969.62 945.34 1.46 o
5 5 2 6.00 5.78 0.94 o
0 6 2 208.28 229.33 1.91 o
1 6 2 53.84 52.15 0.73 o
2 6 2 3277.65 3102.00 2.44 o
3 6 2 3761.65 3366.19 2.46 o
4 6 2 1355.11 1319.77 1.58 o
5 6 2 448.83 481.86 1.11 o
6 6 2 865.72 887.96 1.96 o
1 7 2 220.87 191.35 0.93 o
2 7 2 136.95 132.41 0.82 o
3 7 2 1431.98 1379.73 1.61 o
4 7 2 206.48 206.03 0.87 o
5 7 2 407.13 420.46 1.01 o
6 7 2 203.56 213.16 0.93 o
7 7 2 1598.42 1593.75 2.61 o
0 8 2 3884.16 3692.27 3.76 o
1 8 2 6.66 8.82 0.66 o
2 8 2 1081.76 1057.46 1.49 o
3 8 2 627.66 608.96 1.17 o
4 8 2 4.38 5.75 0.66 o
5 8 2 33.77 34.45 0.71 o
6 8 2 545.22 583.08 1.18 o
7 8 2 0.10 2.05 0.84 <
1 9 2 118.76 128.49 0.90 o
2 9 2 236.88 242.12 0.94 o
3 9 2 1300.50 1247.52 1.61 o
4 9 2 38.54 49.15 0.75 o
5 9 2 908.73 900.46 1.40 o
6 9 2 207.32 215.08 0.96 o
0 10 2 741.35 787.64 2.00 o
1 10 2 53.59 61.62 0.81 o
2 10 2 1148.99 1133.77 1.70 o
3 10 2 37.11 37.54 0.78 o
4 10 2 68.18 68.11 0.80 o
1 11 2 312.57 306.62 1.18 o
0 1 3 1305.92 1326.95 2.48 o
1 1 3 830.40 866.79 2.05 o
1 2 3 7.84 10.40 0.50 o
2 2 3 368.94 330.29 1.52 o
0 3 3 2070.76 2058.41 3.03 o
1 3 3 325.36 358.97 1.01 o
2 3 3 200.00 204.87 0.84 o
3 3 3 2207.16 2057.69 2.93 o
1 4 3 2611.32 2489.97 2.30 o
2 4 3 53.53 55.05 0.67 o
3 4 3 3275.48 3122.06 2.44 o
4 4 3 81.12 77.87 0.97 o
0 5 3 2496.88 2456.42 3.18 o
1 5 3 41.20 47.70 0.68 o
2 5 3 561.75 551.97 1.21 o
3 5 3 282.16 271.90 0.90 o
4 5 3 26.35 28.02 0.61 o
5 5 3 55.93 49.93 0.94 o
1 6 3 139.35 134.09 0.82 o
2 6 3 200.30 199.67 0.88 o
3 6 3 330.55 330.67 0.93 o
4 6 3 718.33 718.74 1.22 o
5 6 3 0.41 2.65 0.60 o
6 6 3 2857.29 2828.24 3.30 o
0 7 3 3147.60 3029.91 3.34 o
1 7 3 332.04 328.20 1.03 o
2 7 3 866.68 877.66 1.36 o
3 7 3 836.74 801.60 1.33 o
4 7 3 353.35 376.73 0.94 o
5 7 3 829.28 855.27 1.32 o
6 7 3 154.83 151.73 0.82 o
7 7 3 182.33 197.77 1.39 o
1 8 3 432.43 450.36 1.27 o
2 8 3 618.92 611.10 1.24 o
3 8 3 698.95 716.54 1.23 o
4 8 3 382.84 373.96 0.98 o
5 8 3 58.33 62.06 0.72 o
6 8 3 29.30 35.35 0.75 o
7 8 3 19.56 23.85 0.81 o
0 9 3 23.66 26.08 1.10 o
1 9 3 9.90 14.48 0.67 o
2 9 3 84.22 76.00 0.79 o
3 9 3 475.33 467.68 1.12 o
4 9 3 202.19 212.76 0.93 o
5 9 3 124.27 126.30 0.84 o
6 9 3 175.32 179.03 0.95 o
1 10 3 19.60 22.29 0.80 o
2 10 3 1113.30 1079.11 1.85 o
3 10 3 160.02 157.44 0.94 o
4 10 3 2.34 3.34 0.77 o
1 1 4 1330.37 1364.40 2.39 o
0 2 4 843.28 941.23 1.90 o
1 2 4 177.05 161.23 0.73 o
2 2 4 6845.39 6434.78 9.06 o
1 3 4 6136.36 5771.05 6.07 o
2 3 4 13.24 14.41 0.54 o
3 3 4 145.19 155.99 1.05 o
0 4 4 2744.16 2752.89 3.21 o
1 4 4 5925.41 5664.14 3.30 o
2 4 4 6260.43 5829.38 3.60 o
3 4 4 143.99 154.43 0.75 o
4 4 4 6923.78 6507.46 5.73 o
1 5 4 3117.75 2973.49 2.32 o
2 5 4 58.65 64.37 0.70 o
3 5 4 3491.34 3280.11 2.32 o
4 5 4 8.16 8.98 0.59 o
5 5 4 50.30 51.75 0.94 o
0 6 4 2684.34 2597.41 3.08 o
1 6 4 934.80 913.76 1.41 o
2 6 4 2617.22 2577.63 2.09 o
3 6 4 450.45 415.46 0.97 o
4 6 4 1043.77 1055.23 1.39 o
5 6 4 27.29 28.09 0.66 o
6 6 4 2568.49 2544.27 3.17 o
1 7 4 110.41 123.43 0.77 o
2 7 4 696.77 691.36 1.28 o
3 7 4 1448.10 1446.56 1.58 o
4 7 4 1.68 2.22 0.61 o
5 7 4 1668.55 1675.55 1.70 o
6 7 4 92.07 93.23 0.77 o
7 7 4 455.24 459.22 1.80 o
0 8 4 1189.91 1255.58 2.22 o
1 8 4 0.36 2.05 0.70 <
2 8 4 2889.70 2812.82 2.36 o
3 8 4 3.60 7.61 0.67 o
4 8 4 330.96 342.04 0.98 o
5 8 4 298.05 295.66 0.94 o
6 8 4 1282.07 1319.75 1.61 o
1 9 4 907.93 891.06 1.39 o
2 9 4 36.83 33.50 0.81 o
3 9 4 1137.05 1112.26 1.51 o
4 9 4 49.24 49.61 0.75 o
5 9 4 169.81 174.13 0.93 o
0 10 4 1580.73 1568.39 2.52 o
1 10 4 25.54 27.83 0.83 o
2 10 4 715.01 681.37 1.34 o
3 10 4 58.22 54.05 0.84 o
0 1 5 1310.53 1458.00 2.13 o
1 1 5 440.72 507.69 1.53 o
1 2 5 20.65 20.53 0.55 o
2 2 5 8242.94 7611.60 8.84 o
0 3 5 2177.93 2176.60 2.62 o
1 3 5 3462.07 3521.80 2.31 o
2 3 5 10.51 12.15 0.58 o
3 3 5 886.97 862.32 1.74 o
1 4 5 1594.03 1586.48 1.63 o
2 4 5 0.53 5.58 0.61 o
3 4 5 90.54 88.81 0.68 o
4 4 5 200.81 195.20 1.18 o
0 5 5 514.01 528.92 1.47 o
1 5 5 2741.31 2742.64 2.16 o
2 5 5 635.76 635.55 1.20 o
3 5 5 676.03 682.85 1.17 o
4 5 5 2999.52 2837.59 2.23 o
5 5 5 1013.43 1003.85 1.93 o
1 6 5 247.84 262.63 0.98 o
2 6 5 3982.73 3955.06 2.48 o
3 6 5 402.42 396.42 0.95 o
4 6 5 446.91 458.75 1.23 o
5 6 5 0.56 2.31 0.62 o
6 6 5 474.77 496.48 1.56 o
0 7 5 11.22 17.12 1.27 o
1 7 5 625.43 661.35 1.22 o
2 7 5 253.98 257.32 0.88 o
3 7 5 192.23 200.16 0.80 o
4 7 5 595.89 606.15 1.18 o
5 7 5 87.82 93.41 0.72 o
6 7 5 221.57 229.64 0.93 o
7 7 5 529.55 535.78 2.13 o
1 8 5 692.44 667.12 1.42 o
2 8 5 73.00 77.93 0.71 o
3 8 5 455.65 461.31 1.08 o
4 8 5 409.08 394.90 1.02 o
5 8 5 1613.85 1617.77 1.71 o
6 8 5 94.08 91.68 3.03 o
0 9 5 2432.02 2347.39 2.86 o
1 9 5 876.78 892.66 1.47 o
2 9 5 52.93 55.85 0.84 o
3 9 5 19.80 20.55 0.74 o
4 9 5 1015.56 995.08 1.47 o
0 0 6 571.74 556.69 2.87 o
1 1 6 2682.36 2691.78 2.90 o
0 2 6 4200.50 4303.22 3.37 o
1 2 6 519.61 562.05 1.03 o
2 2 6 47.91 55.14 0.88 o
1 3 6 679.14 676.83 1.09 o
2 3 6 2211.58 2155.97 1.74 o
3 3 6 3613.87 3511.81 3.11 o
0 4 6 5469.00 5243.35 4.10 o
1 4 6 356.80 375.26 0.89 o
2 4 6 1913.70 1942.70 1.70 o
3 4 6 35.32 39.55 0.61 o
4 4 6 66.74 68.26 0.94 o
1 5 6 355.14 357.66 0.90 o
2 5 6 22.93 24.19 0.57 o
3 5 6 345.74 347.95 0.91 o
4 5 6 379.83 361.83 0.94 o
5 5 6 933.22 919.00 1.80 o
0 6 6 4.69 8.37 0.74 o
1 6 6 786.97 795.16 1.26 o
2 6 6 1602.52 1574.85 1.68 o
3 6 6 31.60 30.29 0.60 o
4 6 6 641.83 652.32 1.18 o
5 6 6 111.67 104.81 0.75 o
6 6 6 502.49 505.14 1.61 o
1 7 6 243.82 268.69 0.89 o
2 7 6 657.09 657.77 1.14 o
3 7 6 158.45 152.44 0.84 o
4 7 6 56.42 56.37 0.72 o
5 7 6 0.64 2.37 0.72 o
6 7 6 266.98 275.57 1.04 o
0 8 6 74.72 76.34 1.01 o
1 8 6 1.22 4.91 0.73 o
2 8 6 549.04 550.07 1.20 o
3 8 6 398.18 378.79 1.06 o
4 8 6 1434.39 1467.26 1.64 o
1 9 6 922.64 922.55 1.40 o
2 9 6 99.41 100.01 1.06 o
0 1 7 283.49 330.31 1.14 o
1 1 7 223.54 249.16 1.05 o
1 2 7 5.05 5.75 0.48 o
2 2 7 220.56 232.21 1.15 o
0 3 7 790.43 838.65 1.62 o
1 3 7 84.45 84.74 0.63 o
2 3 7 95.52 102.28 0.62 o
3 3 7 956.07 973.28 1.71 o
1 4 7 1069.95 1106.49 1.29 o
2 4 7 14.51 16.58 0.55 o
3 4 7 1048.87 1065.90 1.29 o
4 4 7 16.87 16.61 0.75 o
0 5 7 863.98 905.21 1.70 o
1 5 7 3.60 7.18 0.55 o
2 5 7 175.91 177.68 0.75 o
3 5 7 97.83 97.49 0.73 o
4 5 7 2.63 4.56 0.62 o
5 5 7 51.27 50.76 0.97 o
1 6 7 45.33 44.11 0.63 o
2 6 7 38.51 39.50 0.68 o
3 6 7 135.86 137.85 0.77 o
4 6 7 278.45 276.47 0.88 o
5 6 7 6.86 10.23 0.67 o
0 7 7 1159.16 1153.05 2.16 o
1 7 7 110.67 106.64 0.81 o
2 7 7 507.58 526.31 1.31 o
3 7 7 296.40 286.43 0.93 o
4 7 7 111.68 110.56 0.81 o
1 8 7 119.80 120.21 0.90 o
2 8 7 317.65 316.74 1.07 o
0 0 8 6751.82 6627.58 7.73 o
1 1 8 2263.20 2250.33 2.33 o
0 2 8 309.45 319.77 1.16 o
1 2 8 1737.95 1767.39 1.51 o
2 2 8 2618.90 2640.66 2.74 o
1 3 8 732.90 748.72 1.08 o
2 3 8 676.20 649.40 1.06 o
3 3 8 354.15 357.74 1.18 o
0 4 8 5274.78 5039.14 3.50 o
1 4 8 1252.01 1209.51 1.31 o
2 4 8 2084.63 2021.64 1.68 o
3 4 8 73.51 72.81 0.66 o
4 4 8 212.83 226.19 1.17 o
1 5 8 168.77 168.78 0.75 o
2 5 8 831.48 817.35 1.19 o
3 5 8 3355.18 3088.33 2.11 o
4 5 8 0.83 1.81 0.62 <
5 5 8 466.77 434.29 1.50 o
0 6 8 1688.10 1635.65 2.26 o
1 6 8 50.86 51.79 0.70 o
2 6 8 1123.20 1086.08 1.38 o
3 6 8 257.73 260.09 0.90 o
4 6 8 478.84 459.82 1.07 o
1 7 8 813.69 791.76 1.35 o
2 7 8 101.12 99.53 0.88 o
0 1 9 4.82 7.71 0.87 o
1 1 9 13.43 13.54 0.80 o
1 2 9 1.68 5.01 0.58 o
2 2 9 432.11 435.96 1.31 o
0 3 9 81.57 86.13 0.84 o
1 3 9 292.68 291.56 0.81 o
2 3 9 2.50 4.73 0.58 o
3 3 9 15.25 15.81 0.87 o
1 4 9 27.55 30.62 0.62 o
2 4 9 2.17 3.58 0.68 o
3 4 9 139.91 141.29 0.72 o
4 4 9 88.77 85.24 0.96 o
0 5 9 38.87 40.98 1.00 o
1 5 9 351.07 346.35 0.91 o
2 5 9 217.76 216.13 0.86 o
0 0 10 1204.28 1172.35 3.53 o
1 1 10 1737.49 1548.72 2.06 o
0 2 10 1387.68 1266.45 1.89 o
1 2 10 21.16 22.95 0.70 o
2 2 10 17.28 19.29 0.87 o
1 3 10 232.29 212.76 0.83 o
