#------------------------------------------------------------------------------
#$Date: 2016-02-13 21:28:24 +0200 (Sat, 13 Feb 2016) $
#$Revision: 176429 $
#$URL: svn://www.crystallography.net/cod/cif/2/10/72/2107228.cif $
#------------------------------------------------------------------------------
#
# This file is available in the Crystallography Open Database (COD),
# http://www.crystallography.net/. The original data for this entry
# were provided by IUCr Journals, http://journals.iucr.org/.
#
# The file may be used within the scientific community so long as
# proper attribution is given to the journal article from which the
# data were obtained.
#
data_2107228
loop_
_publ_author_name
'Bigi, A.'
'Ripamonti, A.'
'Brueckner, S.'
'Gazzano, M.'
'Thomas, S.A.'
'Roveri, N.'
_publ_section_title
;
 Structure refinement of lead-substituted calcium hydroxyapatite by x-ray
 powder fitting
;
_journal_name_full               'Acta Crystallographica B (39,1983-)'
_journal_page_first              247
_journal_page_last               251
_journal_volume                  45
_journal_year                    1989
_chemical_formula_sum            'Ca2.79 H O13 P3 Pb2.21'
_chemical_name_systematic        'Ca2.79 Pb2.21 (P O4)3 (O H)'
_space_group_IT_number           176
_symmetry_space_group_name_Hall  '-P 6c'
_symmetry_space_group_name_H-M   'P 63/m'
_cell_angle_alpha                90
_cell_angle_beta                 90
_cell_angle_gamma                120
_cell_formula_units_Z            2
_cell_length_a                   9.609
_cell_length_b                   9.609
_cell_length_c                   7.077
_cell_volume                     565.895
_citation_journal_id_ASTM        ASBSDK
_cod_data_source_file            Bigi_ASBSDK_1989_686.cif
_cod_data_source_block           H1Ca2.79O13P3Pb2.21
_cod_original_cell_volume        565.8955
_cod_original_formula_sum        'H1 Ca2.79 O13 P3 Pb2.21'
_cod_database_code               2107228
loop_
_symmetry_equiv_pos_as_xyz
x,y,z
x-y,x,z+1/2
-y,x-y,z
-x,-y,z+1/2
-x+y,-x,z
y,-x+y,z+1/2
-x,-y,-z
-x+y,-x,-z-1/2
y,-x+y,-z
x,y,-z-1/2
x-y,x,-z
-y,x-y,-z-1/2
loop_
_atom_site_label
_atom_site_type_symbol
_atom_site_fract_x
_atom_site_fract_y
_atom_site_fract_z
_atom_site_occupancy
_atom_site_U_iso_or_equiv
Pb1 Pb+2 0.3333 0.6667 0.0099 0.0648 0.0
O2 O-2 0.5977 0.4626 0.25 1 0.0
O4 O-2 0 0 0.1515 0.5 0.0
Ca2 Ca+2 0.2417 0.9984 0.25 0.2896 0.0
Ca1 Ca+2 0.3333 0.6667 0.0099 0.9352 0.0
Pb2 Pb+2 0.2417 0.9984 0.25 0.7104 0.0
P1 P+5 0.4126 0.3784 0.25 1 0.0
O3 O-2 0.3484 0.2741 0.0705 1 0.0
O1 O-2 0.3558 0.5029 0.25 1 0.0
