#------------------------------------------------------------------------------
#$Date: 2016-04-02 04:17:53 +0300 (Sat, 02 Apr 2016) $
#$Revision: 180695 $
#$URL: svn://www.crystallography.net/cod/cif/2/10/74/2107489.cif $
#------------------------------------------------------------------------------
#
# This file is available in the Crystallography Open Database (COD),
# http://www.crystallography.net/. The original data for this entry
# were provided by IUCr Journals, http://journals.iucr.org/.
#
# The file may be used within the scientific community so long as
# proper attribution is given to the journal article from which the
# data were obtained.
#
data_2107489
loop_
_publ_author_name
'Hejny, Clivia'
'Kahlenberg, Volker'
'Eberhard, Tim'
'Kr\"uger, Hannes'
_publ_section_title
;
 Melilite-like modulation and temperature-dependent evolution in the
 framework structure of K~2~Sc[Si~2~O~6~]F
;
_journal_coeditor_code           DK5040
_journal_issue                   2
_journal_name_full               'Acta Crystallographica Section B'
_journal_page_first              209
_journal_page_last               222
_journal_paper_doi               10.1107/S2052520615024865
_journal_volume                  72
_journal_year                    2016
_chemical_formula_sum            'F K2 O6 Sc Si2'
_chemical_formula_weight         294.3
_chemical_name_systematic        ' ?'
_space_group_IT_number           136
_symmetry_cell_setting           tetragonal
_symmetry_Int_Tables_number      136
_symmetry_space_group_name_Hall  '-P 4n 2n'
_symmetry_space_group_name_H-M   'P 42/m n m'
_cell_angle_alpha                90
_cell_angle_beta                 90
_cell_angle_gamma                90
_cell_formula_units_Z            4
_cell_length_a                   8.98780(10)
_cell_length_b                   8.98780(10)
_cell_length_c                   8.2694(2)
_cell_measurement_temperature    293
_cell_volume                     668.007(19)
_diffrn_ambient_temperature      293
_diffrn_measured_fraction_theta_full 0.64
_diffrn_measured_fraction_theta_max 0.64
_diffrn_radiation_probe          x-ray
_diffrn_radiation_source         'X-ray tube'
_diffrn_radiation_type           'Mo K\a'
_diffrn_radiation_wavelength     0.71069
_diffrn_reflns_av_R_equivalents  0.0527
_diffrn_reflns_av_unetI/netI     0.0008
_diffrn_reflns_limit_h_max       11
_diffrn_reflns_limit_h_min       -11
_diffrn_reflns_limit_k_max       11
_diffrn_reflns_limit_k_min       -11
_diffrn_reflns_limit_l_max       10
_diffrn_reflns_limit_l_min       -10
_diffrn_reflns_number            3100
_diffrn_reflns_theta_full        26.64
_diffrn_reflns_theta_max         26.64
_diffrn_reflns_theta_min         3.21
_exptl_absorpt_coefficient_mu    2.71
_exptl_crystal_density_diffrn    2.9255
_exptl_crystal_F_000             576
_refine_diff_density_max         0.19
_refine_diff_density_min         -0.24
_refine_ls_extinction_coef       100000(30000)
_refine_ls_extinction_method
'B-C type 1 Gaussian isotropic (Becker & Coppens, 1974)'
_refine_ls_goodness_of_fit_gt    3.95
_refine_ls_goodness_of_fit_ref   3.95
_refine_ls_number_constraints    0
_refine_ls_number_parameters     40
_refine_ls_number_reflns         264
_refine_ls_number_restraints     0
_refine_ls_R_factor_all          0.0290
_refine_ls_R_factor_gt           0.0290
_refine_ls_shift/su_max          0.0269
_refine_ls_shift/su_mean         0.0131
_refine_ls_structure_factor_coef F
_refine_ls_weighting_details     w=1/(\s^2^(F)+0.0001F^2^)
_refine_ls_weighting_scheme      sigma
_refine_ls_wR_factor_gt          0.0528
_refine_ls_wR_factor_ref         0.0528
_reflns_number_gt                264
_reflns_number_total             264
_reflns_threshold_expression     I>3\s(I)
_cod_data_source_file            dk5040sup1.cif
_cod_data_source_block           II_rt
_cod_depositor_comments
;
The following automatic conversions were performed:

'_diffrn_radiation_probe' value 'X-ray' changed to 'x-ray' according
to
/usr/data/users/saulius/crontab/automatic-downloads/rss-feeds/IUCr/lib/dictionaries/cif_core.dic
dictionary named 'cif_core.dic' version 2.4.2 from 2011-04-26.

Automatic conversion script
Id: cif_fix_values 4268 2015-11-12 08:31:59Z antanas 
;
_cod_original_sg_symbol_Hall     '-P 4n;-2n'
_cod_original_sg_symbol_H-M      'P 42/m 21/n 2/m'
_cod_original_formula_sum        'F1 K2 O6 Sc1 Si2'
_cod_database_code               2107489
loop_
_symmetry_equiv_pos_site_id
_symmetry_equiv_pos_as_xyz
1 x,y,z
2 -x,-y,z
3 -y+1/2,x+1/2,z+1/2
4 y+1/2,-x+1/2,z+1/2
5 -x+1/2,y+1/2,-z+1/2
6 x+1/2,-y+1/2,-z+1/2
7 y,x,-z
8 -y,-x,-z
9 -x,-y,-z
10 x,y,-z
11 y+1/2,-x+1/2,-z+1/2
12 -y+1/2,x+1/2,-z+1/2
13 x+1/2,-y+1/2,z+1/2
14 -x+1/2,y+1/2,z+1/2
15 -y,-x,z
16 y,x,z
loop_
_atom_site_label
_atom_site_type_symbol
_atom_site_fract_x
_atom_site_fract_y
_atom_site_fract_z
_atom_site_adp_type
_atom_site_U_iso_or_equiv
_atom_site_site_symmetry_multiplicity
_atom_site_occupancy
_atom_site_calc_flag
Sc Sc 0.5 0 0.25 Uani 0.0087(3) 4 1 d
K1 K 0.79325(5) 0.20675(5) 0 Uani 0.0256(4) 4 1 d
K2 K 0.34263(6) 0.34263(6) 0 Uani 0.0365(4) 4 1 d
Si Si 0.12233(4) 0.12233(4) 0.19652(6) Uani 0.0093(3) 8 1 d
O1 O 0 0 0.2604(3) Uani 0.0237(8) 4 1 d
O2 O 0.11596(17) 0.11596(17) 0 Uani 0.0239(6) 4 1 d
F F 0.5 0 0 Uani 0.0249(9) 4 1 d
O3 O 0.07211(18) 0.28113(15) 0.25936(14) Uani 0.0281(5) 16 1 d
loop_
_atom_site_aniso_label
_atom_site_aniso_type_symbol
_atom_site_aniso_U_11
_atom_site_aniso_U_22
_atom_site_aniso_U_33
_atom_site_aniso_U_12
_atom_site_aniso_U_13
_atom_site_aniso_U_23
Sc Sc 0.0106(6) 0.0106(6) 0.0050(7) 0 0 0
K1 K 0.0313(6) 0.0313(6) 0.0142(7) 0.0137(3) 0 0
K2 K 0.0467(6) 0.0467(6) 0.0159(7) -0.0328(4) 0 0
Si Si 0.0109(6) 0.0109(6) 0.0062(6) 0.00103(16) -0.00025(10) -0.00025(10)
O1 O 0.0286(13) 0.0286(13) 0.0140(16) -0.0173(9) 0 0
O2 O 0.0343(10) 0.0343(10) 0.0031(10) -0.0152(11) 0 0
F F 0.0402(17) 0.0261(14) 0.0084(17) 0.0008(8) 0 0
O3 O 0.0420(9) 0.0159(8) 0.0265(9) 0.0083(5) -0.0053(6) -0.0061(4)
loop_
_atom_type_symbol
_atom_type_scat_dispersion_real
_atom_type_scat_dispersion_imag
_atom_type_scat_source
F 0.0171 0.0103 'International Tables Vol C tables 4.2.6.8 and 6.1.1.1'
K 0.2009 0.2494 'International Tables Vol C tables 4.2.6.8 and 6.1.1.1'
O 0.0106 0.0060 'International Tables Vol C tables 4.2.6.8 and 6.1.1.1'
Sc 0.2519 0.3716 'International Tables Vol C tables 4.2.6.8 and 6.1.1.1'
Si 0.0817 0.0704 'International Tables Vol C tables 4.2.6.8 and 6.1.1.1'
loop_
_geom_bond_atom_site_label_1
_geom_bond_atom_site_label_2
_geom_bond_site_symmetry_2
_geom_bond_distance
Sc F . 2.06735(10)
Sc F 3_545 2.06735(10)
Sc O3 5_545 2.0726(14)
Sc O3 6_555 2.0726(14)
Sc O3 15_655 2.0726(14)
Sc O3 16_555 2.0726(14)
K1 O3 4_554 2.8146(14)
K1 O3 6_555 2.8146(14)
K1 O3 11_555 2.8146(14)
K1 O3 13_554 2.8146(14)
K2 O1 3_554 2.8156(19)
K2 O1 5_555 2.8156(19)
K2 O2 . 2.8811(16)
Si O1 . 1.6421(9)
Si O2 . 1.6271(5)
Si O3 . 1.5846(14)
Si O3 16_555 1.5846(14)
loop_
_refln_index_h
_refln_index_k
_refln_index_l
_refln_F_squared_calc
_refln_F_squared_meas
_refln_F_squared_sigma
_refln_observed_status
2 2 0 181.25 216.73 4.44 o
6 8 0 201.99 216.32 4.33 o
4 10 0 343.29 338.72 6.78 o
8 10 0 12.87 13.03 0.28 o
10 12 0 258.59 285.42 5.71 o
2 14 0 71.38 69.04 1.39 o
8 14 0 3.09 3.27 0.11 o
14 14 0 110.87 113.69 2.29 o
2 16 0 3.57 5.01 0.14 o
6 16 0 4.72 4.59 0.14 o
8 16 0 111.29 106.15 2.13 o
10 16 0 537.90 558.29 11.17 o
14 16 0 1.07 1.22 0.09 o
2 18 0 280.53 311.81 6.24 o
4 18 0 579.79 644.23 12.89 o
8 18 0 41.15 40.80 0.82 o
10 18 0 814.83 791.85 15.85 o
12 18 0 85.38 78.66 1.59 o
2 20 0 167.92 183.20 3.68 o
4 20 0 835.88 757.70 15.17 o
6 20 0 714.54 669.02 13.39 o
8 20 0 868.75 761.73 15.25 o
10 20 0 967.15 885.07 17.72 o
2 22 0 799.46 786.52 15.74 o
2 2 2 95.54 106.04 2.15 o
2 4 2 30.04 22.21 0.47 o
4 6 2 112.00 111.94 2.24 o
6 6 2 12.44 14.41 0.30 o
2 8 2 140.15 152.30 3.05 o
4 8 2 17.85 16.93 0.35 o
6 8 2 350.14 341.38 6.83 o
8 8 2 230.20 227.19 4.55 o
0 10 2 9.65 7.55 0.18 o
6 10 2 225.27 246.52 4.93 o
2 12 2 360.79 385.31 7.71 o
10 12 2 1.34 1.76 0.06 o
12 12 2 31.71 28.93 0.59 o
2 14 2 166.13 176.97 3.54 o
6 14 2 0.75 1.37 0.07 o
8 14 2 147.24 147.63 2.96 o
10 14 2 40.22 43.03 0.87 o
12 14 2 310.23 323.77 6.48 o
14 14 2 156.43 145.89 2.92 o
2 16 2 167.09 166.93 3.34 o
4 16 2 346.45 369.76 7.40 o
6 16 2 43.01 45.37 0.91 o
8 16 2 589.48 591.47 11.83 o
12 16 2 128.00 125.83 2.52 o
14 16 2 425.97 432.06 8.64 o
2 18 2 591.93 617.94 12.36 o
4 18 2 93.62 88.16 1.77 o
6 18 2 41.24 43.62 0.88 o
8 18 2 379.58 381.27 7.63 o
10 18 2 10.97 10.71 0.23 o
12 18 2 79.36 81.53 1.63 o
2 20 2 79.25 71.44 1.43 o
4 20 2 27.25 28.45 0.58 o
6 20 2 384.01 379.07 7.58 o
8 20 2 68.21 62.60 1.26 o
10 20 2 130.65 124.36 2.49 o
0 22 2 50.44 42.92 0.87 o
2 22 2 80.07 75.42 1.51 o
4 22 2 6.70 8.58 0.20 o
2 8 4 418.86 383.07 7.67 o
6 8 4 144.21 153.70 3.08 o
6 10 4 201.28 203.03 4.06 o
10 10 4 4.91 3.88 0.11 o
0 12 4 189.60 202.85 4.07 o
2 12 4 46.38 51.75 1.04 o
10 12 4 464.30 521.25 10.43 o
2 14 4 200.72 179.07 3.58 o
4 14 4 121.30 109.93 2.20 o
8 14 4 211.91 217.35 4.35 o
10 14 4 366.26 418.66 8.38 o
12 14 4 155.25 167.55 3.35 o
2 16 4 5.03 6.98 0.15 o
6 16 4 553.91 593.34 11.87 o
8 16 4 3.26 3.71 0.10 o
10 16 4 63.72 57.90 1.16 o
12 16 4 482.45 513.34 10.27 o
14 16 4 0.53 1.03 0.07 o
2 18 4 104.44 125.80 2.52 o
4 18 4 223.81 220.50 4.41 o
8 18 4 40.53 47.28 0.95 o
12 18 4 232.13 223.49 4.47 o
0 20 4 645.93 702.41 14.05 o
2 20 4 80.60 85.98 1.72 o
4 20 4 1027.04 961.15 19.25 o
6 20 4 21.21 16.61 0.34 o
8 20 4 53.11 47.22 0.95 o
2 22 4 303.03 300.93 6.02 o
2 4 6 13.74 10.32 0.22 o
4 4 6 289.17 276.46 5.54 o
2 6 6 362.49 395.57 7.92 o
4 6 6 197.80 202.91 4.06 o
4 8 6 63.75 59.56 1.20 o
8 8 6 82.06 78.42 1.58 o
2 10 6 59.01 64.66 1.30 o
6 10 6 252.82 250.08 5.00 o
8 10 6 10.43 11.87 0.25 o
10 10 6 71.76 65.69 1.32 o
2 12 6 170.09 170.83 3.42 o
4 12 6 176.34 182.96 3.66 o
6 12 6 375.02 381.13 7.62 o
10 12 6 1.13 1.29 0.07 o
2 14 6 327.46 333.64 6.68 o
8 14 6 345.18 377.93 7.56 o
12 14 6 191.08 197.85 3.96 o
14 14 6 195.49 198.76 3.98 o
2 16 6 391.60 425.54 8.51 o
4 16 6 646.51 690.05 13.81 o
6 16 6 649.91 691.90 13.84 o
8 16 6 398.90 396.05 7.92 o
10 16 6 36.24 36.04 0.73 o
12 16 6 46.35 48.40 0.97 o
14 16 6 10.08 12.14 0.25 o
0 18 6 7.97 7.34 0.19 o
2 18 6 20.59 22.04 0.45 o
4 18 6 94.93 83.69 1.68 o
6 18 6 502.65 526.21 10.53 o
8 18 6 176.42 174.38 3.49 o
10 18 6 131.93 133.14 2.67 o
12 18 6 220.32 219.07 4.38 o
2 20 6 20.48 20.12 0.41 o
4 20 6 1042.24 995.67 19.94 o
6 20 6 215.44 206.84 4.14 o
8 20 6 6.84 6.38 0.15 o
2 4 8 231.64 197.80 3.96 o
4 6 8 27.87 22.84 0.46 o
6 6 8 181.18 186.32 3.73 o
6 8 8 152.54 157.15 3.15 o
4 10 8 69.23 72.06 1.45 o
8 10 8 2.24 2.99 0.08 o
10 10 8 45.86 50.60 1.02 o
6 12 8 416.59 399.54 7.99 o
10 12 8 29.60 28.96 0.59 o
2 14 8 133.88 136.48 2.73 o
4 14 8 710.99 757.09 15.17 o
8 14 8 1.39 1.31 0.06 o
12 14 8 116.34 117.53 2.35 o
14 14 8 343.80 342.78 6.86 o
2 16 8 1.05 1.63 0.09 o
6 16 8 0.59 0.96 0.07 o
8 16 8 353.95 375.98 7.52 o
10 16 8 336.77 333.34 6.67 o
2 18 8 848.84 889.22 17.81 o
4 18 8 34.74 30.93 0.63 o
8 18 8 35.75 39.04 0.79 o
10 18 8 192.91 188.07 3.76 o
2 20 8 16.68 13.11 0.27 o
4 20 8 678.03 620.40 12.41 o
6 20 8 74.68 56.38 1.13 o
2 2 10 406.36 459.08 9.21 o
2 4 10 28.20 25.26 0.51 o
4 6 10 14.08 17.28 0.35 o
4 8 10 4.56 3.41 0.09 o
6 8 10 50.79 52.25 1.05 o
8 8 10 190.11 195.90 3.92 o
0 10 10 492.92 495.37 9.91 o
6 10 10 643.43 689.86 13.83 o
2 12 10 284.32 296.13 5.93 o
6 12 10 446.44 453.29 9.07 o
8 12 10 526.96 569.46 11.39 o
10 12 10 0.99 1.82 0.07 o
12 12 10 443.90 455.93 9.12 o
0 14 10 33.81 33.69 0.70 o
2 14 10 619.23 678.60 13.57 o
4 14 10 306.63 314.60 6.29 o
6 14 10 173.10 165.32 3.31 o
8 14 10 601.91 621.79 12.44 o
10 14 10 59.45 54.97 1.10 o
12 14 10 272.13 267.30 5.35 o
14 14 10 559.80 530.53 10.62 o
2 16 10 647.55 653.84 13.08 o
4 16 10 109.51 111.00 2.22 o
6 16 10 468.94 477.99 9.56 o
8 16 10 499.59 477.17 9.55 o
2 18 10 869.03 900.34 18.01 o
4 18 10 65.02 57.62 1.16 o
6 18 10 9.02 10.20 0.22 o
8 18 10 998.97 940.44 18.82 o
4 4 12 65.22 64.77 1.30 o
2 8 12 480.48 494.15 9.89 o
6 8 12 42.64 47.20 0.95 o
8 8 12 85.20 71.97 1.44 o
2 10 12 371.04 390.50 7.81 o
4 10 12 14.22 14.22 0.29 o
6 10 12 300.68 288.68 5.78 o
8 10 12 379.39 356.80 7.14 o
10 10 12 963.27 965.49 19.34 o
0 12 12 4.08 4.52 0.12 o
2 12 12 785.94 823.96 16.51 o
6 12 12 30.62 34.60 0.70 o
8 12 12 664.76 692.96 13.86 o
10 12 12 95.03 82.40 1.65 o
12 12 12 428.76 447.83 8.96 o
2 14 12 269.05 268.57 5.37 o
4 14 12 702.39 696.85 13.94 o
6 14 12 152.77 147.58 2.95 o
8 14 12 59.83 63.28 1.27 o
10 14 12 1.16 1.90 0.07 o
12 14 12 319.95 298.59 5.97 o
0 16 12 93.50 110.49 2.22 o
2 16 12 2.03 1.80 0.07 o
4 16 12 489.65 471.03 9.42 o
6 16 12 417.98 389.02 7.78 o
2 18 12 861.97 862.97 17.26 o
4 18 12 106.53 103.39 2.07 o
0 2 14 289.15 348.76 6.98 o
2 2 14 230.97 256.73 5.14 o
2 4 14 5.99 7.33 0.16 o
4 4 14 173.24 208.24 4.17 o
2 6 14 128.57 113.88 2.28 o
4 6 14 104.80 106.75 2.14 o
4 8 14 21.73 20.81 0.42 o
8 8 14 21.85 18.30 0.38 o
2 10 14 13.89 14.91 0.30 o
4 10 14 230.85 230.49 4.61 o
6 10 14 92.18 92.83 1.86 o
8 10 14 0.58 0.96 0.06 o
10 10 14 83.75 76.86 1.54 o
2 12 14 73.24 69.05 1.38 o
4 12 14 26.10 30.98 0.62 o
6 12 14 198.09 183.57 3.67 o
8 12 14 379.24 367.18 7.35 o
10 12 14 5.79 6.59 0.15 o
2 14 14 123.95 120.42 2.41 o
4 14 14 635.55 644.27 12.89 o
6 14 14 302.77 297.68 5.96 o
8 14 14 124.36 120.26 2.41 o
2 16 14 111.68 107.81 2.16 o
4 16 14 393.92 380.61 7.61 o
0 4 16 208.81 238.68 4.78 o
4 6 16 609.09 636.41 12.73 o
6 6 16 268.12 275.15 5.51 o
6 8 16 88.65 84.16 1.69 o
8 8 16 265.98 264.62 5.30 o
2 10 16 164.21 151.93 3.04 o
4 10 16 868.31 890.17 17.81 o
8 10 16 1.40 2.07 0.07 o
10 10 16 464.12 413.40 8.27 o
2 12 16 32.28 30.78 0.62 o
6 12 16 299.89 283.50 5.67 o
8 12 16 462.34 446.01 8.92 o
2 14 16 825.07 806.79 16.14 o
4 14 16 80.82 81.43 1.63 o
0 2 18 11.16 10.91 0.23 o
2 2 18 13.89 13.77 0.28 o
2 4 18 3.04 3.95 0.09 o
4 4 18 559.35 545.26 10.91 o
0 6 18 88.31 86.45 1.73 o
2 6 18 395.85 375.68 7.52 o
4 6 18 4.63 4.67 0.11 o
6 6 18 12.02 11.61 0.25 o
2 8 18 30.49 30.36 0.61 o
4 8 18 4.06 4.58 0.11 o
6 8 18 225.42 204.89 4.10 o
8 8 18 103.13 96.39 1.93 o
0 10 18 48.42 48.22 0.97 o
2 10 18 496.56 469.73 9.40 o
4 10 18 290.11 264.57 5.29 o
2 4 20 4.56 4.80 0.11 o
4 4 20 9.63 9.26 0.20 o
2 6 20 297.65 289.66 5.80 o
