#------------------------------------------------------------------------------
#$Date: 2016-02-13 21:28:24 +0200 (Sat, 13 Feb 2016) $
#$Revision: 176429 $
#$URL: svn://www.crystallography.net/cod/cif/2/10/74/2107416.cif $
#------------------------------------------------------------------------------
#
# This file is available in the Crystallography Open Database (COD),
# http://www.crystallography.net/. The original data for this entry
# were provided by IUCr Journals, http://journals.iucr.org/.
#
# The file may be used within the scientific community so long as
# proper attribution is given to the journal article from which the
# data were obtained.
#
data_2107416
loop_
_publ_author_name
'Weiss, J.'
'Pupp, M.'
_publ_section_title
;
 Mitteilungen ueber Interchalkogen-Verbindungen. II. Die Kristall- und
 Molekuelstrukturen von
 8,8-Dichlor-1,2,3,4,5,6,7,8-heptathiatellur(IV)-octan, Cl2 Te S7 und von
 8,8-Dibrom-1,2,3,4,5,6,7,8-heptathiatellur(IV)-octan, Br2 Te S7
;
_journal_name_full               'Acta Crystallographica B (24,1968-38,1982)'
_journal_page_first              3653
_journal_page_last               3655
_journal_volume                  28
_journal_year                    1972
_chemical_formula_sum            'Br2 S7 Te'
_chemical_name_systematic        'Br2 Te S7'
_space_group_IT_number           62
_symmetry_space_group_name_Hall  '-P 2bc 2a'
_symmetry_space_group_name_H-M   'P m n b'
_cell_angle_alpha                90
_cell_angle_beta                 90
_cell_angle_gamma                90
_cell_formula_units_Z            4
_cell_length_a                   8.858
_cell_length_b                   9.479
_cell_length_c                   13.344
_cell_volume                     1120.429
_citation_journal_id_ASTM        ACBCAR
_cod_data_source_file            Weiss_ACBCAR_1972_784.cif
_cod_data_source_block           Br2S7Te1
_cod_original_sg_symbol_Hall     '-P 2ac 2n (y,-x,z)'
_cod_original_formula_sum        'Br2 S7 Te1'
_cod_database_code               2107416
loop_
_symmetry_equiv_pos_as_xyz
x,y,z
-x,-y+1/2,z+1/2
-x+1/2,y+1/2,-z+1/2
x+1/2,-y,-z
-x,-y,-z
x,y-1/2,-z-1/2
x-1/2,-y-1/2,z-1/2
-x-1/2,y,z
loop_
_atom_site_label
_atom_site_type_symbol
_atom_site_fract_x
_atom_site_fract_y
_atom_site_fract_z
_atom_site_occupancy
_atom_site_U_iso_or_equiv
S3 S 0.0657 0.1522 0.2768 1 0.0
S1 S 0.0376 0.1723 0.5205 1 0.0
S4 S 0.25 0.2634 0.2263 1 0.0
Te1 Te 0.25 0.3057 0.5931 1 0.0
S2 S 0.6979 0.2643 0.3925 1 0.0
Br1 Br 0.25 0.4963 0.4576 1 0.0
Br2 Br 0.25 0.071 0.7077 1 0.0
