#------------------------------------------------------------------------------
#$Date: 2020-11-24 07:09:22 +0200 (Tue, 24 Nov 2020) $
#$Revision: 259225 $
#$URL: file:///home/coder/svn-repositories/cod/cif/2/10/87/2108700.cif $
#------------------------------------------------------------------------------
#
# This file is available in the Crystallography Open Database (COD),
# http://www.crystallography.net/. The original data for this entry
# were provided by IUCr Journals, http://journals.iucr.org/.
#
# The file may be used within the scientific community so long as
# proper attribution is given to the journal article from which the
# data were obtained.
#
data_2108700
loop_
_publ_author_name
'Poddig, Hagen'
'Doert, Thomas'
_publ_section_title
;
 Distorted Te nets in the modulated crystal structures of
 <i>RE</i>Te~1.94(1)~ (<i>RE</i> = La, Pr, Nd)
;
_journal_coeditor_code           DK5100SUP1
_journal_issue                   6
_journal_name_full               'Acta Crystallographica Section B'
_journal_page_first
;
;
_journal_paper_doi               10.1107/S2052520620013797
_journal_volume                  76
_journal_year                    2020
_chemical_formula_sum            'La Te1.933'
_chemical_formula_weight         385.82
_chemical_name_systematic        'Lanthanum telluride (1/1.933)'
_space_group_crystal_system      tetragonal
_space_group_IT_number           129
_space_group_name_Hall           'P 4ab 2ab -1ab'
_space_group_name_H-M_alt        'P 4/n m m :1'
_atom_sites_solution_primary     dual
_atom_sites_solution_secondary   difmap
_cell_angle_alpha                90
_cell_angle_beta                 90
_cell_angle_gamma                90
_cell_formula_units_Z            2
_cell_length_a                   4.5226(6)
_cell_length_b                   4.5226(6)
_cell_length_c                   9.147(1)
_cell_measurement_reflns_used    4440
_cell_measurement_temperature    296(1)
_cell_measurement_theta_max      29.06
_cell_measurement_theta_min      4.46
_cell_volume                     187.09(4)
_computing_cell_refinement       'STOE X-AREA'
_computing_data_collection       'STOE X-AREA'
_computing_data_reduction        'STOE X-RED'
_computing_publication_material
'DIAMOND v. 4.5.2 (Brandenburg, Germany, 2018)'
_computing_structure_refinement  'SHELXL 2016/6 (Sheldrick, 2015)'
_computing_structure_solution    'SHELXT 2014/5 (Sheldrick, 2014)'
_diffrn_ambient_temperature      296(1)
_diffrn_detector                 'image plate (34 cm diameter)'
_diffrn_detector_area_resol_mean 6.67
_diffrn_measured_fraction_theta_full 0.985
_diffrn_measured_fraction_theta_max 0.989
_diffrn_measurement_device       'two-circle diffractometer'
_diffrn_measurement_device_type  'IPDS II, Stoe'
_diffrn_measurement_method       'rotation method'
_diffrn_radiation_monochromator  graphite
_diffrn_radiation_probe          x-ray
_diffrn_radiation_type           'Mo K\a'
_diffrn_radiation_wavelength     0.71073
_diffrn_reflns_av_R_equivalents  0.0423
_diffrn_reflns_av_unetI/netI     0.0151
_diffrn_reflns_limit_h_max       6
_diffrn_reflns_limit_h_min       -6
_diffrn_reflns_limit_k_max       6
_diffrn_reflns_limit_k_min       -6
_diffrn_reflns_limit_l_max       12
_diffrn_reflns_limit_l_min       -12
_diffrn_reflns_number            2074
_diffrn_reflns_theta_full        25.242
_diffrn_reflns_theta_max         29.055
_diffrn_reflns_theta_min         4.456
_diffrn_source
'sealed X-ray tube, 12 x 0.4 mm long-fine focus'
_exptl_absorpt_coefficient_mu    25.927
_exptl_absorpt_correction_T_max  0.2401
_exptl_absorpt_correction_T_min  0.0706
_exptl_absorpt_correction_type   numerical
_exptl_absorpt_process_details   'STOE X-RED32, v. 1.53'
_exptl_crystal_colour            black
_exptl_crystal_density_diffrn    6.827
_exptl_crystal_description       plate
_exptl_crystal_F_000             315
_exptl_crystal_size_max          0.1819
_exptl_crystal_size_mid          0.06015
_exptl_crystal_size_min          0.0448
_refine_diff_density_max         1.824
_refine_diff_density_min         -1.344
_refine_diff_density_rms         0.241
_refine_ls_extinction_coef       0.0100(13)
_refine_ls_extinction_expression Fc^*^=kFc[1+0.001xFc^2^\l^3^/sin(2\q)]^-1/4^
_refine_ls_extinction_method     'SHELXL-2016/6 (Sheldrick 2016)'
_refine_ls_goodness_of_fit_ref   1.248
_refine_ls_hydrogen_treatment    undef
_refine_ls_matrix_type           full
_refine_ls_number_parameters     11
_refine_ls_number_reflns         184
_refine_ls_number_restraints     0
_refine_ls_restrained_S_all      1.215
_refine_ls_R_factor_all          0.0189
_refine_ls_R_factor_gt           0.0189
_refine_ls_shift/su_max          0.000
_refine_ls_shift/su_mean         0.000
_refine_ls_structure_factor_coef Fsqd
_refine_ls_weighting_details
'w=1/[\s^2^(Fo^2^)+(0.0136P)^2^+1.5828P] where P=(Fo^2^+2Fc^2^)/3'
_refine_ls_weighting_scheme      calc
_refine_ls_wR_factor_gt          0.0433
_refine_ls_wR_factor_ref         0.0433
_reflns_number_gt                182
_reflns_number_total             183
_reflns_threshold_expression     I>2\s(I)
_cod_data_source_file            dk5100sup1.cif
_cod_data_source_block           I
_cod_depositor_comments
;
The following automatic conversions were performed:

data item '_diffrn_radiation_probe' value 'X-ray' was changed to
'x-ray' in accordance with the
/home/data/users/saulius/crontab/automatic-downloads/rss-feeds/IUCr/lib/dictionaries/cif_core.dic
dictionary named 'cif_core.dic' version 2.4.2 last updated on
2011-04-26.

Automatic conversion script
Id: cif_fix_values 7556 2019-12-06 15:28:31Z antanas 
;
_cod_original_cell_volume        187.10(4)
_cod_original_sg_symbol_H-M      'P 4/n m m:1'
_cod_original_formula_sum        'La1 Te1.933'
_cod_database_code               2108700
_shelx_res_file
;
TITL la020_k2_a.res in P4/nmm
    la020_k2.res
    created by SHELXL-2016/6 at 17:55:54 on 25-Jun-2020
REM Old TITL La020_k2 in P42/nnm #134
REM SHELXT solution in P4/nmm
REM R1 0.106, Rweak 0.024, Alpha 0.054, Orientation as input
REM Formula found by SHELXT: La2 Te
CELL 0.71073 4.5226 4.5226 9.1473 90 90 90
ZERR 2 0.0006 0.0006 0.0013 0 0 0
LATT -1
SYMM 0.5-X,0.5-Y,-Z
SYMM 0.5-Y,0.5+X,+Z
SYMM -X,-Y,+Z
SYMM 0.5+Y,0.5-X,+Z
SYMM +Y,-X,-Z
SYMM -Y,+X,-Z
SYMM 0.5+X,0.5-Y,-Z
SYMM 0.5-X,0.5+Y,-Z
SYMM +Y,+X,-Z
SYMM -Y,-X,-Z
SYMM 0.5+X,0.5+Y,-Z
SYMM -X,+Y,+Z
SYMM +X,-Y,+Z
SYMM 0.5-Y,0.5-X,+Z
SYMM 0.5+Y,0.5+X,+Z
SFAC La Te
UNIT 2 3.87

L.S. 10
PLAN  5
CONF
list 4
MORE -1
fmap -2
acta
OMIT 0 0 3
REM <olex2.extras>
REM <HklSrc "%.\\La020_k2.hkl">
REM </olex2.extras>

WGHT    0.013600    1.582800
EXTI    0.010031
FVAR       0.49389
LA1   1    0.000000    0.500000    0.272324    10.12500    0.01070    0.01070 =
         0.01871    0.00000    0.00000    0.00000
TE1   2    0.000000    0.500000    0.633453    10.12500    0.00958    0.00958 =
         0.01518    0.00000    0.00000    0.00000
TE2   2    0.000000    0.000000    0.000000     0.11657    0.04117    0.04117 =
         0.01066    0.00000    0.00000    0.00000
HKLF 4




REM  la020_k2_a.res in P4/nmm
REM R1 =  0.0189 for     183 Fo > 4sig(Fo)  and  0.0189 for all     184 data
REM     11 parameters refined using      0 restraints

END

WGHT      0.0136      1.5828

REM Highest difference peak  1.824,  deepest hole -1.344,  1-sigma level  0.241
Q1    1   0.0000  0.5000  0.3496  10.12500  0.05    1.82
Q2    1  -0.5000  0.0000  0.0871  10.12500  0.05   -1.34
Q3    1   0.0000  0.5000  0.5471  10.12500  0.05    1.23
Q4    1   0.0000  0.5000  0.6986  10.12500  0.05    1.11
Q5    1   0.0000  0.0000 -0.1198  10.25000  0.05   -0.95
;
_shelx_res_checksum              29632
_shelx_hkl_file
;
   1  -1   0 2558.17   18.35
  -1  -1   0 2440.76    9.43
   1  -1   0 2617.50   17.56
   1   1   0 2449.06    9.41
   0   2   0 9707.03   19.23
   0   2   0 9999.00   18.70
   2   0   0 8783.08   16.50
  -2   0   0 9468.23   18.45
   0  -2   0 8795.09   16.87
   2  -2   0 7933.54   20.98
   2  -2   0 7864.42   19.48
  -2  -2   0 7477.57   12.34
   2   2   0 7385.80   12.16
   2  -2   0 7781.97   20.06
   3   1   0 1634.27    5.98
   1  -3   0 1638.64    7.33
  -3  -1   0 1703.44    6.50
  -1   3   0 1706.54    9.53
   1   3   0 1698.57    6.74
   3  -1   0 1725.40    7.35
  -3   1   0 1645.21    9.56
  -1  -3   0 1616.25    6.13
   3  -3   0 1375.33    8.49
   3   3   0 1261.35    5.36
   3  -3   0 1312.02    8.98
   3  -3   0 1355.49    8.86
  -3  -3   0 1278.11    5.42
  -4  -2   0 3500.36    8.77
   4   2   0 3266.02    7.97
   2  -4   0 3358.53   10.29
   4   0   0 4321.46    9.48
   0  -4   0 4262.42    9.58
   0   4   0 4732.93   11.89
  -4   0   0 4395.38   11.15
   0   4   0 4473.16   11.68
   4  -2   0 2826.69   15.55
   2   4   0 3350.71    8.61
   4  -2   0 3379.64    9.86
  -2  -4   0 3151.85    7.78
   4   4   0 1646.99    6.65
  -4  -4   0 1588.90    6.90
   4  -4   0 1730.20   10.26
   4  -4   0 1771.65   10.35
   4  -4   0 1594.15   10.39
  -5  -3   0  854.71    7.21
   3  -5   0  850.36   11.88
   3  -5   0  778.89    7.91
   5   3   0  781.42    6.09
  -1   5   0 1109.47   10.45
   1  -5   0 1063.56    6.42
  -5  -1   0 1185.41    7.26
   5   1   0 1100.27    6.10
   1   5   0 1156.90    7.52
   1   5   0 1179.33    7.97
  -1  -5   0 1049.56    5.97
  -5   1   0 1019.49   10.37
   5  -1   0 1107.34    6.58
  -3  -5   0  762.61    6.22
   5  -3   0  846.06    7.95
   3   5   0  818.29    7.24
   5  -3   0  772.01   11.74
   5  -3   0  808.86   10.64
   3   5   0  810.43    6.80
   0   6   0 1485.46   12.88
   0   6   0 1432.09   11.71
   0  -6   0 1324.69    8.09
  -6   0   0 1390.83   11.46
   6   0   0 1427.02    7.92
   0   1  -1  208.70    4.33
   0  -1  -1  203.64    4.64
  -1   0   1  205.89    4.67
   0  -1  -1  215.26    4.29
   0  -1   1  200.52    4.22
   0   1   1  213.42    4.91
   0   1   1  211.87    4.33
   1   0  -1  204.68    4.31
  -1   0  -1  210.14    4.30
   1   0   1  209.69    4.23
   1   1   1 4501.29   12.45
   1   1  -1 4494.52   12.34
  -1  -1   1 4549.24   12.75
   1  -1   1 4691.48   23.36
   1  -1   1 4807.00   24.22
   1  -1  -1 4640.40   21.93
  -1  -1  -1 4380.29   12.08
   1  -1  -1 4789.16   25.83
   1  -2  -1  134.37    4.05
   2   1  -1  132.68    2.98
  -2  -1   1  146.66    3.30
   1  -2   1  143.54    4.02
  -1   2  -1  142.51    6.38
   2   1   1  135.48    3.18
   1  -2   1  193.87    4.65
  -1   2   1  146.91    5.85
  -2  -1  -1  137.84    3.17
   1  -2  -1  151.28    4.41
   2   0   1    6.80    2.72
   0   2  -1    5.83    3.02
   0   2   1    4.79    3.05
   2   0  -1    6.73    2.67
   0   2   1    6.23    3.08
   0  -2   1    5.53    2.76
  -2   0   1    7.08    2.98
   0   2  -1    8.45    3.58
   0  -2  -1    6.13    2.58
   1   2  -1  144.00    3.30
   2  -1   1  148.52    4.39
   1   2   1  144.94    3.32
  -1  -2   1  140.80    3.26
  -1  -2  -1  135.72    3.02
   2  -1  -1  141.77    4.08
  -2   1   1  133.64    7.05
  -2   1  -1  140.98    5.72
  -2  -2   1   10.24    2.73
  -2  -2  -1    9.84    2.55
   2  -2   1   12.51    5.22
   2   2  -1    9.13    2.60
   2   2   1    9.26    2.70
   2  -2  -1   11.26    5.30
   2  -2  -1   14.08    5.28
   2  -2   1   15.72    5.70
   2  -2  -1   14.19    5.12
  -3  -2  -1   84.41    3.40
   2  -3   1   71.07    9.12
   2  -3  -1   82.66    4.61
   2  -3   1   87.79    4.39
   3   2  -1   76.14    2.92
   2  -3  -1   88.93    4.71
   3   2   1   82.63    3.11
  -3  -2   1   87.31    3.42
   2  -3   1   82.15    5.04
   2  -3  -1   84.42    8.25
   1  -3  -1 2144.07    7.94
  -1   3   1 1888.54   11.66
  -1   3   1 1974.31    9.66
  -1   3  -1 2011.85   11.04
   3   1  -1 1901.39    6.42
  -3  -1   1 2040.82    7.42
   1  -3   1 1988.88    7.89
   3   1   1 1934.00    6.51
   1  -3  -1 1909.11    7.93
  -3  -1  -1 1987.70    6.81
   0   3  -1  132.89    4.18
   0   3   1  107.86    4.06
   0  -3   1  104.83    3.27
  -3   0   1  109.62    3.85
   3   0  -1  101.16    3.09
   0   3   1  111.05    3.60
   3   0   1  103.32    3.02
  -3   0  -1  119.58    3.53
   0  -3  -1  103.45    3.26
   0   3  -1  111.93    3.84
  -3   1  -1 1928.38    9.74
  -1  -3  -1 1913.60    6.57
   3  -1   1 2073.98    7.80
   1   3  -1 1980.64    7.03
   3  -1  -1 1969.70    7.84
  -1  -3   1 1961.14    6.68
   1   3   1 2062.66    7.52
   1   3   1 2111.64    7.27
  -3   1   1 1858.00   10.91
   3  -2   1   79.70    6.80
  -2  -3  -1   81.69    3.05
   3  -2  -1   71.30    7.85
   3  -2   1   84.96    4.60
   3  -2  -1   80.89    4.42
  -2  -3   1   81.49    3.30
   2   3   1   84.46    3.19
   2   3  -1   80.28    3.19
   3  -3   1 1005.44    8.53
   3  -3  -1 1014.68    7.74
   3  -3  -1  998.89    8.05
   3   3  -1  967.93    4.91
   3  -3  -1 1049.69    8.13
  -3  -3  -1  979.98    5.11
   3  -3   1 1039.24    8.30
   3   3   1  986.70    5.03
  -3  -3   1  987.74    5.08
   3  -3   1 1046.76    7.92
  -4  -3  -1   50.95    4.01
   3  -4   1   48.51    5.90
   4   3  -1   46.65    3.75
   4   3   1   42.56    3.88
   3  -4   1   48.94    8.32
  -4  -3   1   46.68    4.15
   3  -4  -1   45.63    5.81
   3  -4  -1   50.94    5.89
   3  -4  -1   47.18    7.76
   3  -4   1   49.85    5.54
   4   2   1   80.51    3.44
   2  -4  -1   49.79    4.96
  -4  -2   1   64.25    4.38
   2  -4  -1   60.12    4.63
  -4  -2  -1   55.81    3.64
   4   2  -1   52.10    3.37
   2  -4   1   50.93    4.80
   1  -4   1   68.63    4.15
   4   1   1   68.72    3.60
  -1   4   1   82.18    6.05
  -4  -1   1   74.26    4.18
   1  -4  -1   67.26    3.89
   4   1  -1   66.90    3.31
  -1   4  -1   70.21    6.94
  -4  -1  -1   70.08    4.00
   0   4  -1   51.21    5.10
   4   0   1   43.96    3.66
   0   4   1   43.68    5.07
   4   0  -1   53.86    3.40
   0  -4  -1   59.81    3.58
  -4   0   1   51.80    4.57
   0  -4   1   40.63    3.49
  -4   0  -1   50.32    4.28
   0   4   1   49.77    4.66
   0   4  -1   45.90    4.72
   1   4   1   78.53    4.57
   4  -1   1   86.27    4.05
  -4   1   1   65.79    7.17
   1   4  -1   69.67    4.15
   1   4   1   72.29    4.05
  -1  -4   1   63.67    3.34
  -4   1  -1   64.87    6.16
   4  -1  -1   75.80    3.87
   1   4  -1   77.76    4.71
  -1  -4  -1   62.87    3.48
  -2  -4  -1   50.77    3.63
   4  -2   1   56.75    4.74
   2   4   1   51.62    3.97
   2   4   1   54.58    3.76
   2   4  -1   59.64    3.94
   4  -2  -1   50.06   10.53
  -2  -4   1   72.15    3.42
   4  -2  -1   60.28    4.54
   4  -2   1   56.67    8.92
   4  -3  -1   47.04    7.12
   3   4  -1   45.57    3.90
   4  -3  -1   47.62    5.19
   4  -3   1   48.48    5.68
   4  -3  -1   48.40    7.19
   3   4   1   47.13    4.38
   4  -3   1   58.60    6.94
   4  -3   1   42.76    8.15
  -3  -4   1   45.94    3.82
  -3  -4  -1   45.09    3.99
   4  -4   1   77.83    7.13
   4   4   1   69.85    4.72
   4  -4   1   67.89    7.41
   4   4  -1   62.74    4.50
  -4  -4  -1   66.60    4.94
   4  -4  -1   73.74    7.15
   4  -4  -1   77.70    7.49
  -4  -4   1   67.94    5.01
   4  -4   1   75.54    7.90
   4  -4  -1   61.69    7.67
   3  -5   1  332.93   11.68
   5   3  -1  312.51    5.52
   3  -5  -1  345.58   11.22
  -5  -3  -1  334.55    6.11
   3  -5   1  342.59    7.25
   3  -5  -1  319.35    7.43
   5   3   1  338.10    5.89
  -5  -3   1  340.93    6.34
   2  -5  -1   39.15    5.34
   2  -5   1   40.78    5.74
   5   2   1   39.23    4.60
  -5  -2   1   43.53    5.51
   5   2  -1   37.79    4.42
  -5  -2  -1   45.47    5.44
  -5  -1  -1  622.14    6.38
   1  -5  -1  581.22    5.82
   5   1   1  615.85    5.35
   5   1  -1  579.24    5.26
  -1   5  -1  574.96   10.51
  -5  -1   1  637.50    6.97
   1  -5   1  613.31    6.16
  -1   5   1  598.81    9.24
  -5   0   1   44.50    6.50
   5   0   1   53.69    4.32
   0   5  -1   58.15    7.46
   0  -5  -1   45.34    4.40
   5   0  -1   52.01    4.49
  -5   0  -1   46.24    5.98
   0   5  -1   61.66    6.28
   0  -5   1   51.96    4.61
   0   5   1   52.86    7.05
   0   5   1   56.00    6.41
   1   5   1  642.33    7.13
   5  -1   1  605.06    5.92
   1   5   1  661.04    6.67
   1   5  -1  668.96    7.17
  -1  -5  -1  547.95    5.23
  -5   1   1  492.59   10.30
  -1  -5   1  589.00    5.33
  -5   1  -1  567.15    9.05
   5  -1  -1  592.41    5.92
   1   5  -1  635.36    6.52
  -2  -5  -1   36.97    4.18
   2   5   1   45.41    5.72
   2   5  -1   38.92    5.68
   5  -2   1   35.22   10.80
   5  -2   1   44.37    5.28
   5  -2  -1   44.65    5.30
   5  -2  -1   28.48   12.94
  -2  -5   1   36.35    4.68
   2   5   1   42.28    5.67
   2   5  -1   41.49    5.63
   5  -3  -1  344.55    7.34
   3   5   1  330.09    5.98
   3   5   1  328.13    6.07
   5  -3  -1  278.37   10.06
   5  -3   1  280.11   11.88
  -3  -5  -1  271.52    5.41
   5  -3   1  311.19   10.41
   5  -3   1  351.85    7.35
  -3  -5   1  305.58    5.85
   3   5  -1  342.19    5.96
   5  -3  -1  296.45   11.01
   1  -6  -1   25.94    6.00
  -6  -1  -1   24.15    7.81
   6   1  -1   23.85    6.09
   6   1   1   27.63    6.11
  -6  -1   1   29.45    9.35
   1  -6   1   27.09    6.73
  -1   6  -1   24.91   14.47
  -1   6   1   31.24   11.88
   0   6  -1   84.26    9.51
   6   0   1   81.95    5.90
  -6   0   1   85.86   10.18
  -6   0  -1   82.95    9.54
   0   6  -1   78.69   11.06
   6   0  -1   77.28    5.67
   0  -6   1   76.29    6.37
   0   6   1   73.32   10.73
   1   6   1   45.07    8.84
   6  -1   1   27.78    6.47
   6  -1  -1   24.73    6.20
  -6   1   1   16.17   15.01
  -1  -6   1   23.90    5.95
   1   6  -1   22.79    9.22
   1   6  -1   35.96    8.01
   1   6   1   24.69    8.13
  -1  -6  -1   19.08    5.48
  -6   1  -1   20.50   12.55
   0   0  -2   98.22    8.55
  -1   0   2  886.87    8.70
   0  -1   2  799.45    6.83
   0  -1  -2  855.47    7.03
   0   1  -2  818.07    6.81
  -1   0  -2  840.65    6.96
   0  -1  -2  780.55    7.53
   0   1   2  826.24    6.82
   1   0  -2  789.10    7.53
   1   0   2  840.57    6.99
   0   1   2  852.11    8.46
   1  -1   2 5600.47   21.25
   1  -1  -2 5928.85   22.30
   1   1  -2 5441.26   13.11
  -1  -1  -2 5388.16   12.95
   1   1   2 5722.53   13.77
  -1  -1   2 5704.46   13.93
   1  -2  -2  512.79    6.10
  -1   2  -2  540.75    9.50
   2   1   2  543.94    4.49
  -2  -1   2  576.69    4.90
   2   1  -2  535.76    4.25
  -1   2   2  547.58    7.12
  -2  -1  -2  529.02    4.30
   1  -2  -2  589.74    6.08
   1  -2   2  564.70    6.26
   2   0   2  132.93    3.61
  -2   0  -2  127.67    3.64
  -2   0   2  133.29    4.02
   0  -2   2  130.21    3.52
   2   0  -2  124.38    3.39
   0   2   2  129.27    3.78
   0   2  -2  126.96    3.67
   0  -2  -2  135.65    3.69
   0   2   2  132.84    4.33
   0  -2  -2  124.09    3.44
  -2   1  -2  566.66    7.43
  -2   1   2  507.69   10.24
   1   2  -2  520.56    4.29
   1   2   2  559.37    4.53
  -1  -2   2  536.02    4.45
  -1  -2  -2  527.82    4.21
   2  -1   2  568.50    6.27
   1   2   2  551.85    4.79
   2  -1  -2  519.60    5.92
  -2  -2  -2  154.67    2.98
   2  -2  -2  163.71    6.13
   2  -2   2  166.76    5.63
   2   2   2  153.56    3.17
  -2  -2   2  150.91    3.22
   2  -2   2  165.45    7.25
   2  -2  -2  158.89    5.81
   2  -2  -2  156.91    6.63
   2   2  -2  143.33    3.02
  -3  -2   2  348.35    4.34
   2  -3  -2  342.75    5.81
  -3  -2  -2  332.23    3.79
   2  -3   2  337.35    6.10
   3   2  -2  310.55    3.72
   2  -3  -2  314.46    5.67
   3   2   2  331.80    3.88
   2  -3  -2  345.00    8.63
   2  -3   2  284.25    8.11
  -1   3   2 2429.32   13.88
  -1   3   2 2765.84   10.49
   3   1   2 2721.39    7.50
  -1   3  -2 2752.74   13.64
   1  -3  -2 3003.73    9.34
  -3  -1   2 2903.28    8.81
   1  -3  -2 2616.24    9.64
  -3  -1  -2 2722.18    7.61
   3   1  -2 2601.63    7.49
   1  -3   2 2803.89    9.19
  -3   0   2  437.29    5.32
   3   0  -2  409.09    4.30
   3   0   2  427.58    4.18
   0  -3   2  418.40    4.20
   0   3  -2  486.78    5.85
  -3   0  -2  419.42    4.64
   0  -3  -2  407.82    4.32
   0   3   2  433.27    4.62
   0   3   2  435.99    5.65
   0   3  -2  415.79    4.55
  -1  -3  -2 2598.24    7.53
  -3   1   2 2480.04   13.46
   1   3   2 2900.66    9.03
  -1  -3   2 2692.99    7.60
   1   3   2 2848.31    8.01
  -3   1  -2 2732.53   10.78
   3  -1   2 2921.92    9.06
   1   3  -2 2754.74    7.83
   3  -1  -2 2670.05    9.36
   3  -2   2  332.48    7.78
   2   3   2  346.19    4.14
  -2  -3  -2  318.12    3.69
   2   3  -2  318.07    3.83
  -2  -3   2  323.25    3.88
   3  -2   2  328.33    5.81
   2   3   2  326.75    4.07
   3  -2  -2  288.63    8.78
   3  -2  -2  319.29    5.42
   3  -3  -2 1419.83    9.11
  -3  -3   2 1487.98    5.98
   3   3   2 1481.92    5.95
   3  -3  -2 1426.32    9.49
   3  -3   2 1546.46    9.50
   3  -3   2 1451.98    9.26
  -3  -3  -2 1446.38    5.84
   3   3  -2 1408.83    5.60
   3  -3  -2 1506.13    9.40
   3  -3   2 1425.69    9.39
   3  -4   2  173.90    6.72
   4   3  -2  164.02    4.16
   3  -4  -2  185.58    6.20
   3  -4  -2  180.61    7.72
  -4  -3   2  180.61    4.85
   4   3   2  181.19    4.35
   3  -4   2  172.88    9.11
   3  -4  -2  164.43    6.47
  -4  -3  -2  176.12    4.50
   4   2  -2  190.36    3.69
  -4  -2   2  214.74    4.70
   2  -4  -2  190.87    5.18
   2  -4  -2  221.62   10.79
   4   2   2  199.85    3.82
   2  -4  -2  230.81    5.12
  -4  -2  -2  206.24    4.03
   2  -4   2  198.55    5.32
  -1   4   2  235.42    9.65
   4   1  -2  253.49    3.88
  -1   4  -2  256.65    8.98
  -4  -1  -2  270.19    4.23
   4   1   2  255.22    3.90
  -1   4   2  263.23    6.28
   1  -4   2  292.19    5.03
   1  -4  -2  248.12    4.70
  -4  -1   2  279.11    5.10
   0   4   2  200.09    5.84
   4   0  -2  192.19    3.92
   0   4  -2  227.07    6.02
   0   4   2  200.74    4.71
   0  -4   2  191.70    4.11
   0  -4  -2  183.61    3.98
  -4   0  -2  211.52    4.52
   0   4  -2  201.46    4.58
  -4   0   2  210.81    5.55
   4   0   2  206.62    3.91
   1   4   2  283.81    5.22
  -4   1  -2  261.93    6.37
  -1  -4  -2  241.75    3.83
   4  -1  -2  258.98    4.80
  -1  -4   2  257.30    3.93
   1   4  -2  268.59    4.32
  -4   1   2  223.96    8.59
   1   4   2  269.86    4.42
   4  -1   2  269.43    4.60
   4  -2   2  208.84    8.82
   2   4   2  216.88    4.45
   4  -2  -2  205.61    4.97
   4  -2  -2  183.89    9.47
   4  -2   2  207.11    5.05
   2   4  -2  203.51    4.27
   2   4   2  207.53    4.21
  -2  -4  -2  188.85    3.78
  -2  -4   2  201.39    3.86
   4  -3  -2  174.32    6.20
   4  -3  -2  168.40    7.76
   3   4   2  172.70    4.46
   4  -3   2  176.79    7.49
  -3  -4   2  175.69    4.17
   4  -3   2  159.82    9.12
   4  -3  -2  178.29    8.07
   3   4  -2  167.09    4.20
  -3  -4  -2  160.40    4.25
   4  -3   2  179.26    6.44
   3   4   2  170.34    4.63
  -4  -4   2  180.52    5.32
   4   4  -2  172.82    5.47
   4  -4  -2  191.01    8.04
   4  -4  -2  184.13    8.00
   4  -4   2  170.54    8.22
   4  -4   2  191.82    8.22
   4  -4  -2  182.81    7.80
  -4  -4  -2  179.62    5.29
   4   4   2  180.65    5.69
  -5  -3  -2  549.28    6.65
   3  -5  -2  597.64    8.10
  -5  -3   2  544.22    6.82
   3  -5   2  481.51   13.27
   3  -5   2  510.85    7.80
   3  -5  -2  560.97   11.18
   5   3   2  533.99    6.17
   5   3  -2  497.24    5.56
   3  -5  -2  497.85    8.26
  -5  -2  -2  163.75    5.78
   2  -5   2  151.67    5.76
  -5  -2   2  176.07    6.48
   2  -5  -2  139.90    5.91
   5   2   2  154.24    5.26
   5   2  -2  141.00    4.87
  -1   5  -2  849.83   13.33
  -1   5   2  893.87    9.10
   5   1  -2  893.34    5.79
   5   1   2  951.70    6.12
   1  -5   2  942.40    6.70
  -5  -1  -2  930.32    6.85
  -5  -1   2  998.98    8.00
   1  -5  -2  882.69    6.70
   0   5  -2  208.78    7.92
   0   5   2  195.62    6.43
   5   0   2  194.14    4.96
   5   0  -2  178.66    4.67
  -5   0   2  183.26    7.42
   0  -5  -2  169.91    4.72
   0   5  -2  189.21    6.31
   0   5   2  183.91    7.97
   0  -5   2  185.69    5.06
  -5   0  -2  182.85    6.13
  -5   1  -2  872.45    9.37
  -1  -5   2  924.73    6.28
   1   5  -2 1034.34    8.45
  -1  -5  -2  844.24    5.75
   1   5   2  957.06    7.06
   5  -1  -2  900.75    6.72
  -5   1   2  709.51   12.47
   5  -1   2  942.21    6.43
   1   5   2  980.44    8.16
   1   5  -2  987.00    7.01
   2   5   2  153.97    5.48
   2   5   2  158.08    6.32
   2   5  -2  160.34    6.11
  -2  -5   2  150.26    5.18
  -2  -5  -2  133.76    4.77
   5  -2  -2  146.45    5.99
   5  -2  -2  114.62   11.95
   2   5  -2  159.85    5.50
   5  -2   2  157.29    5.56
   5  -2   2  146.27   10.77
  -3  -5  -2  430.86    5.69
   5  -3   2  490.07   10.38
   5  -3  -2  512.06    8.16
  -3  -5   2  483.04    6.05
   3   5   2  524.15    6.45
   5  -3  -2  402.88   11.15
   5  -3  -2  470.11   11.33
   3   5   2  538.80    6.63
   3   5  -2  551.61    6.52
   5  -3   2  562.12    7.33
  -6  -1  -2  102.52    8.02
   6   1  -2   98.09    5.99
   1  -6  -2   91.17    6.63
  -1   6  -2   70.38   15.15
  -6  -1   2  121.11    9.85
   6   1   2  108.43    6.67
   1  -6   2  100.28    6.40
  -1   6   2  102.58   11.39
   0  -6  -2  166.00    6.32
   0   6  -2  173.76   11.79
   0   6   2  163.10   11.75
   0  -6   2  187.08    6.74
  -6   0  -2  202.88    9.17
   6   0   2  193.38    6.38
   0   6  -2  188.39    9.30
  -6   0   2  179.27   11.03
   6   0  -2  186.10    6.04
   0   6   2  180.87    9.10
   6  -1  -2   95.69    6.18
   6  -1   2  108.46    6.91
  -1  -6  -2   86.93    6.15
   1   6  -2  112.45    8.59
  -6   1  -2   87.30   11.59
  -6   1   2   78.36   17.56
   1   6   2  108.27   10.00
   1   6   2  103.71    7.78
  -1  -6   2   96.31    6.43
   1   6  -2  112.69   10.43
   0   0  -3 5301.12   23.88
   0   0   3 5529.21   25.12
  -1   0   3 3455.62   15.11
   1   0  -3 3317.29   14.60
   0  -1  -3 3432.08   15.21
   1   0   3 3403.33   15.65
  -1   0  -3 3434.39   12.79
   0  -1  -3 3378.49   12.84
   1   0   3 3307.99   12.72
   0  -1   3 3073.65   12.28
   0   1   3 3269.69   12.22
   0   1   3 3397.55   14.84
   1   1   3  178.54    3.84
  -1  -1   3  175.33    3.90
  -1  -1  -3  173.73    3.44
   1  -1   3  187.87    6.13
   1   1   3  180.66    3.53
   1  -1  -3  187.81    6.13
   1   1  -3  173.99    3.65
   2   1   3 2523.34    7.95
  -2  -1   3 2685.29    9.15
  -1   2  -3 2414.32   19.99
   2   1  -3 2411.53    7.90
   1  -2  -3 2681.66   10.87
   1  -2  -3 2414.05   14.78
   1  -2   3 2620.96   11.06
  -2  -1  -3 2456.86    7.69
  -1   2   3 2547.90   11.45
  -2   0   3 5005.79   15.20
  -2   0  -3 4612.99   11.59
   0  -2  -3 4410.81   12.88
   0  -2   3 4427.16   11.40
   2   0  -3 4457.41   12.75
   0   2   3 4492.52   11.44
   0  -2  -3 4782.81   11.84
   2   0   3 4672.92   11.67
   0   2  -3 4574.15   11.52
   0   2   3 5002.58   15.78
   1   2   3 2492.28    7.92
   1   2   3 2601.99    9.02
  -2   1   3 2287.12   22.32
  -1  -2   3 2463.30    8.02
   2  -1   3 2564.04   10.74
   2  -1  -3 2477.82   14.28
  -1  -2  -3 2391.50    7.88
   1   2  -3 2445.24    7.79
   2  -2  -3 3221.65   13.07
   2  -2  -3 3260.55   19.67
   2   2  -3 3212.87    8.21
   2   2   3 3357.81    8.72
   2  -2   3 2991.93   12.35
  -2  -2   3 3418.45    8.92
   2   2   3 3407.16    8.58
   2  -2  -3 3055.52   19.79
  -2  -2  -3 3225.36    8.16
  -3  -2   3 1618.87    6.68
   2  -3  -3 1580.96    8.28
   3   2  -3 1489.24    5.85
   2  -3  -3 1568.68   13.15
   2  -3   3 1385.08    9.68
   3   2   3 1577.14    6.12
  -3  -2  -3 1507.16    5.88
   2  -3  -3 1483.97   10.48
   2  -3   3 1541.75    8.52
   1  -3   3  233.83    4.62
  -3  -1   3  261.71    4.51
   3   1  -3  221.90    3.54
  -1   3   3  227.30    5.44
  -1   3   3  189.05    8.93
  -1   3  -3  229.17    8.38
  -3  -1  -3  231.51    3.63
   1  -3  -3  224.91    4.83
   1  -3  -3  253.51    4.59
   3   1   3  232.15    3.60
   0   3   3 1924.58    7.39
   0  -3   3 1844.15    7.04
   0   3   3 2065.90   10.03
  -3   0  -3 1919.18    7.43
   0  -3  -3 1873.47    7.67
   3   0  -3 1885.51    7.59
   0   3  -3 1944.66    7.42
   3   0   3 1976.24    7.19
  -3   0   3 2012.47    9.34
  -1  -3   3  226.67    3.67
  -1  -3  -3  218.92    3.61
   1   3   3  237.33    3.73
  -3   1  -3  246.53    5.58
   1   3  -3  227.92    3.64
   3  -1  -3  227.67    4.75
  -3   1   3  215.22    8.27
   3  -1   3  252.90    4.56
   1   3   3  243.61    4.61
   3  -2  -3 1435.02    9.92
   3  -2   3 1569.82   12.59
  -2  -3  -3 1518.63    5.85
  -2  -3   3 1564.54    6.17
   3  -2  -3 1518.49   10.04
   2   3   3 1575.56    6.09
   3  -2  -3 1502.32   13.12
   3  -2   3 1521.42    8.22
   2   3   3 1591.32    6.58
   2   3  -3 1502.84    5.82
   3  -3  -3  230.81    7.09
  -3  -3   3  249.82    4.34
   3   3  -3  235.62    4.03
   3  -3  -3  223.88    7.40
   3  -3   3  241.60    7.64
   3   3   3  248.02    4.28
  -3  -3  -3  237.43    3.88
   3  -3  -3  237.70    7.37
   3  -3   3  225.41    7.22
   4   3  -3  820.75    5.38
  -4  -3  -3  863.90    5.78
   3  -4  -3  889.62    8.13
   3  -4   3  829.18    8.48
   3  -4   3  738.48   10.37
   4   3   3  864.91    5.77
  -4  -3   3  875.92    6.30
   3  -4  -3  850.70   10.56
   3  -4  -3  812.19    9.54
  -4  -2   3 1463.64    7.06
   2  -4  -3 1488.79    7.91
   4   2   3 1409.07    6.31
   2  -4  -3 1432.84   14.00
   2  -4  -3 1355.10    9.06
  -4  -2  -3 1398.65    6.23
   4   2  -3 1291.16    5.80
   2  -4   3 1376.90    7.49
  -1   4  -3 1174.52   12.45
   1  -4  -3 1392.30    7.00
   4   1   3 1279.31    5.94
  -1   4   3  993.92   13.61
  -1   4   3 1276.83    8.02
   1  -4   3 1309.67    6.90
  -4  -1  -3 1275.02    6.10
   1  -4  -3 1217.05    7.35
  -4  -1   3 1377.80    7.47
   4   1  -3 1197.58    5.77
   0   4  -3 1826.86    7.49
   4   0   3 1896.16    7.04
   0   4   3 1884.01    7.56
   0   4  -3 2133.39   10.63
  -4   0  -3 1809.20    7.25
   0  -4  -3 1718.23    7.22
   0   4   3 1902.57   10.56
   4   0  -3 1753.07    7.28
  -4   0   3 1846.43    9.67
   0  -4   3 1827.67    6.92
   1   4   3 1297.26    6.36
   1   4   3 1380.65    7.84
  -4   1  -3 1254.89    8.41
  -1  -4  -3 1183.62    5.67
  -4   1   3 1029.01   11.82
   4  -1  -3 1267.92    7.21
   1   4  -3 1283.07    6.26
  -1  -4   3 1267.67    5.87
   4  -1   3 1311.45    6.67
   2   4  -3 1404.20    6.07
   2   4   3 1364.81    6.75
   4  -2  -3 1363.73    8.71
   2   4   3 1426.32    6.30
  -2  -4  -3 1266.87    5.74
   4  -2  -3 1224.20   10.36
  -2  -4   3 1396.04    6.37
   4  -2   3 1388.99    7.55
   4  -2   3 1302.63   12.51
   4  -3  -3  790.37   10.71
   4  -3   3  649.57    9.94
   4  -3   3  875.86   10.14
   4  -3  -3  721.46   10.05
  -3  -4   3  863.73    5.76
   3   4   3  851.34    5.89
  -3  -4  -3  814.41    5.56
   4  -3   3  867.55    8.18
   4  -3  -3  830.51    9.07
   3   4  -3  861.46    5.68
   3   4   3  865.15    6.27
   4  -4  -3  584.53   11.28
   4  -4  -3  603.28    9.11
   4  -4  -3  574.15   11.47
   4   4  -3  608.60    6.09
   4   4   3  582.89    6.20
   4  -4   3  630.74    9.98
   4  -4   3  569.93    9.35
  -4  -4   3  637.72    6.55
  -4  -4  -3  595.93    6.17
   4   4   3  645.64    6.62
  -5  -3   3  222.71    7.06
   3  -5  -3  227.13    7.74
   3  -5   3  149.22   11.54
   3  -5  -3  190.48    9.38
   5   3   3  221.49    6.30
   3  -5   3  191.60    7.41
   3  -5  -3  216.08   11.54
  -5  -3  -3  218.74    6.42
   5   3  -3  202.51    5.47
   2  -5  -3  774.16   14.15
   2  -5  -3  689.77    8.16
   5   2   3  748.00    6.43
   2  -5   3  756.67    7.55
   5   2  -3  679.48    5.92
  -5  -2  -3  755.36    6.63
  -5  -2   3  815.47    8.15
   5   1   3  265.97    5.33
   1  -5   3  245.28    5.82
  -5  -1  -3  263.98    5.82
   1  -5  -3  234.12    5.66
  -1   5   3  240.65    7.78
  -5  -1   3  278.31    7.50
   5   1  -3  233.81    4.86
  -1   5  -3  199.69   12.36
   0   5  -3  916.75    7.67
   0  -5  -3  817.59    6.49
   0   5   3  878.90    7.66
   5   0   3  953.57    6.52
   0   5  -3  960.40   10.79
  -5   0  -3  880.62    7.49
   0   5   3  812.44   10.87
  -5   0   3  849.33    9.78
   5   0  -3  850.45    6.40
   0  -5   3  892.24    6.38
   1   5  -3  273.48    7.60
   5  -1   3  265.96    5.59
   1   5  -3  261.81    6.07
   1   5   3  242.35    5.87
  -5   1  -3  245.74    8.04
  -5   1   3  217.08   12.68
   5  -1  -3  248.08    5.64
  -1  -5  -3  225.80    4.80
  -1  -5   3  250.10    5.35
   1   5   3  259.04    7.46
   2   5  -3  774.19    6.83
  -2  -5  -3  649.88    5.84
   5  -2   3  685.29   12.26
   2   5   3  730.37    6.67
   2   5   3  756.22    7.54
   5  -2  -3  709.19    7.98
  -2  -5   3  715.57    6.50
   5  -2   3  765.36    7.36
   5  -2  -3  649.95   11.79
  -3  -5  -3  195.02    5.43
   3   5  -3  217.51    5.88
   3   5   3  214.51    6.55
  -3  -5   3  200.94    6.17
   5  -3   3  218.65   11.38
   5  -3  -3  204.48    9.49
   5  -3  -3  155.93   12.32
   5  -3  -3  199.88   10.98
   3   5   3  205.32    6.31
   5  -3   3  213.58    7.37
   0  -6  -3  455.17    7.28
   6   0   3  563.92    7.30
   0   6  -3  463.28   13.93
   0   6   3  403.79   14.68
   0   6   3  529.42    9.86
  -6   0  -3  506.11    9.86
  -6   0   3  417.68   12.92
   0  -6   3  550.43    7.65
   6   0  -3  472.90    7.16
   0   0  -4 1006.42    9.56
   0   0   4 1032.75    9.91
   0   1   4  201.16    4.91
   1   0   4  172.58    5.54
  -1   0   4  165.52    4.86
   0  -1  -4  166.15    5.14
  -1   0  -4  172.42    5.13
   1   0  -4  156.60    4.40
   1   0   4  166.91    5.19
   0  -1  -4  198.92    5.68
   0  -1   4  150.41    5.00
   0   1   4  163.73    4.77
  -1  -1   4  991.68    6.46
   1  -1   4 1022.57    8.26
   1  -1  -4 1063.67    8.41
  -1  -1  -4 1013.97    6.26
   1   1  -4 1020.10    6.27
   1   1   4  982.43    6.21
   1   1   4 1003.68    6.29
   2   1   4  120.70    3.39
   2   1   4  117.33    3.42
   1  -2  -4  131.06    5.71
  -1   2  -4  112.02   13.05
  -2  -1   4  126.85    4.00
  -2  -1  -4  117.87    3.20
   1  -2   4  123.71    5.87
   2   1  -4  117.36    3.32
   0  -2   4  547.81    5.21
   0  -2  -4  605.35    5.47
   2   0   4  570.97    6.11
  -2   0   4  664.34    7.19
  -2   0  -4  580.08    5.28
   0   2  -4  596.04    5.03
   0   2   4  653.59    7.27
   0   2   4  572.64    5.11
   2   0  -4  563.41    5.84
   2   0   4  580.19    5.40
   0  -2  -4  571.22    5.92
   1   2   4  121.12    3.73
  -1  -2   4  116.11    3.43
   1   2   4  116.35    3.22
   1   2  -4  118.63    3.39
   2  -1   4  120.03    5.71
  -1  -2  -4  117.83    3.20
   2  -2   4  328.44    5.91
   2   2   4  362.94    4.25
  -2  -2   4  367.29    4.37
   2   2   4  349.32    3.99
  -2  -2  -4  345.52    3.95
   2   2  -4  346.47    3.99
   2  -2  -4  349.26    6.44
   3   2   4   77.84    3.68
  -3  -2   4   81.86    4.19
   3   2   4   77.20    3.70
   2  -3   4   70.49    6.13
   3   2  -4   73.12    3.41
   2  -3   4   72.65    6.07
  -3  -2  -4   78.04    3.55
   2  -3  -4   79.71    5.80
   3   1  -4  394.95    4.25
  -1   3   4    0.02    2.34
   1  -3   4  407.30    5.70
   3   1   4  400.77    4.42
  -1   3  -4  369.58   10.71
   1  -3  -4  435.78    5.74
  -3  -1   4  461.33    5.69
  -3  -1  -4  398.21    4.20
  -1   3   4  380.74   13.24
  -1   3   4  393.91    5.77
   1  -3  -4  393.74    6.90
   0   3   4  107.81    4.06
   3   0  -4   93.52    3.79
   0  -3  -4   92.45    4.02
   0   3   4  103.90    5.74
   0  -3  -4  112.66    4.04
  -3   0  -4  117.90    4.16
   0  -3   4  117.26    4.07
  -3   0   4  107.87    5.16
   3   0   4  106.76    3.97
   0   3  -4  104.22    4.06
   1   3   4  402.26    4.36
  -1  -3   4  404.84    4.35
  -3   1   4  337.99   11.76
  -1  -3  -4  387.88    4.14
   1   3  -4  404.69    4.27
   3  -1   4  388.96    5.26
   1   3   4  426.24    5.31
   3  -1  -4  397.06    6.69
   2   3  -4   74.70    3.45
   2   3   4   75.64    3.52
   3  -2   4   73.82    5.66
   2   3   4   85.22    4.23
  -2  -3   4   76.92    3.79
   3  -2  -4   78.04    5.96
  -2  -3  -4   75.07    3.57
   3  -3  -4  156.28    7.36
   3   3   4  167.21    4.03
  -3  -3   4  176.86    4.47
   3  -3   4  140.07    6.87
   3   3   4  176.67    4.38
   3   3  -4  167.25    4.17
  -3  -3  -4  169.32    4.10
   3  -3   4  148.79    6.71
  -4  -3   4   43.74    5.03
   4   3   4   38.23    4.60
   3  -4   4   41.63    7.49
   4   3  -4   44.93    4.21
   3  -4   4   37.51    8.11
   3  -4  -4   43.98    7.07
   4   3   4   42.46    4.90
  -4  -3  -4   43.02    4.72
  -4  -2   4   95.43    5.16
   2  -4   4   88.70    7.79
   2  -4  -4  101.39    6.11
   4   2  -4   85.93    3.92
   2  -4   4   87.15    6.10
   4   2   4   87.38    4.36
   2  -4  -4   93.96   10.67
  -4  -2  -4   84.34    4.05
   2  -4  -4   89.06    8.02
  -1   4   4   61.45    6.09
  -1   4  -4   53.84   10.07
   4   1   4   68.89    3.98
   1  -4  -4   62.44    4.98
   4   1  -4   58.78    4.23
   1  -4  -4   74.17    5.36
  -4  -1  -4   66.08    4.27
   1  -4   4   66.09    5.26
  -4  -1   4   82.94    5.87
   0  -4   4  143.59    4.53
   0   4  -4  170.56    7.58
   4   0   4  145.41    4.33
   0   4   4  143.37    4.59
   0  -4  -4  139.61    4.69
  -4   0  -4  133.02    4.60
   0   4  -4  154.85    4.80
   4   0  -4  137.50    4.54
  -4   0   4  144.10    6.71
   0   4   4  149.63    7.82
   1   4   4   67.15    4.35
  -1  -4  -4   62.07    4.19
  -4   1  -4   59.72    5.94
   1   4  -4   66.98    3.96
  -4   1   4   56.63   10.86
   1   4   4   72.82    5.97
   4  -1   4   67.27    5.13
   4  -1  -4   61.29    5.00
  -1  -4   4   68.94    4.00
   4  -2   4   85.49   10.28
   2   4  -4   92.51    4.45
  -2  -4  -4   93.87    3.97
  -2  -4   4   94.11    4.35
   2   4   4   93.38    4.43
   4  -2   4   88.78    6.08
   4  -2  -4   91.34    7.42
   2   4   4   91.52    4.94
   4  -2  -4   86.31    8.03
   4  -3  -4   54.84    8.61
   3   4   4   40.82    4.85
   4  -3   4   35.58    7.53
  -3  -4   4   45.96    4.87
   4  -3   4   44.94    7.37
   3   4   4   44.41    5.20
  -3  -4  -4   39.58    4.26
   3   4  -4   43.50    4.78
   4  -4  -4   20.00    8.90
  -4  -4   4   18.38    6.10
   4   4   4   16.04    5.21
   4  -4   4   14.37    9.43
   4   4  -4   20.54    5.25
   4   4   4   14.88    5.81
  -4  -4  -4   12.80    5.31
   4  -4   4   19.43    9.88
   3  -5  -4   32.30    8.12
   5   3  -4   31.18    5.51
   3  -5   4   28.13   10.03
   5   3   4   33.36    5.67
   5   3   4   28.12    6.54
  -5  -3  -4   29.10    6.54
  -5  -3   4   28.16    7.37
   3  -5   4   36.85    8.06
   2  -5  -4   35.69    8.21
   5   2  -4   35.15    5.01
   2  -5  -4   42.06    6.65
   2  -5   4   38.30    9.37
   5   2   4   36.46    5.45
   2  -5  -4   51.49   13.02
   2  -5   4   53.34    6.75
  -5  -2  -4   45.77    5.75
  -5  -2   4   42.45    7.88
  -1   5  -4   65.19   10.64
   1  -5   4   87.01    6.34
   5   1   4   84.21    5.17
  -5  -1  -4   78.76    5.60
   5   1  -4   75.58    5.00
  -5  -1   4   82.24    8.10
   1  -5  -4   72.21    5.86
  -1   5   4   78.34    7.81
   0  -5   4   50.45    5.50
   5   0   4   57.34    5.63
   0  -5  -4   44.64    5.13
   0   5  -4   46.80   10.35
   5   0  -4   50.60    5.30
  -5   0  -4   49.24    6.20
   0   5   4   42.90    6.39
   0   5   4   40.07    9.84
  -5   0   4   41.92    9.41
   5  -1   4   84.42    5.75
  -1  -5  -4   72.12    5.31
   1   5   4   82.50    5.32
   1   5  -4   88.94    8.36
  -5   1  -4   79.38    7.90
  -5   1   4   71.19   12.87
   1   5  -4   85.74    5.97
   1   5   4   78.36    8.52
  -1  -5   4   82.36    5.50
   5  -1  -4   76.57    6.17
   5  -2   4   33.10   10.42
   2   5   4   38.00    6.58
  -2  -5   4   36.48    5.39
   2   5  -4   36.06    5.87
   5  -2   4   39.92    6.54
   5  -2  -4   35.18    8.36
  -2  -5  -4   34.09    4.99
   5  -2  -4   30.54    9.82
   2   5   4   36.27    5.79
   5  -3  -4   20.92   11.22
   3   5   4   25.18    6.09
   3   5  -4   35.08    6.02
  -3  -5   4   24.49    6.23
   3   5   4   30.95    7.05
   5  -3   4   35.14    8.32
  -3  -5  -4   36.31    5.50
   0   0  -5  606.98    7.45
   0   0   5  617.79    7.60
  -1   0  -5 2862.94   13.58
  -1   0   5 2497.86   12.06
   1   0   5 2735.51   11.65
   0  -1  -5 2653.71   11.43
   0   1   5 2527.36   12.00
   0  -1   5 2617.47   11.17
   0   1   5 2717.46   11.18
   1   1   5 1085.46    6.60
   1  -1  -5 1167.17    7.68
  -1  -1   5 1020.41    6.61
   1   1  -5 1131.74    6.54
   1  -1   5 1122.22    7.49
  -1   1   5 1099.47   15.28
  -1  -1  -5 1129.94    6.71
   1   1   5 1024.86    6.54
  -1   1   5 1036.56   14.56
   1  -2  -5 2281.19   10.07
   2   1   5 2128.61    8.12
   2   1  -5 2089.52    7.74
   2   1   5 2074.01    7.59
  -2  -1  -5 2138.94    7.50
  -2  -1   5 2273.05    9.04
   1  -2   5 2163.40    9.42
   0   2   5  339.10    4.71
   2   0   5  349.07    6.19
   0  -2  -5  356.28    5.19
  -2   0  -5  354.40    4.95
  -2   0   5  408.32    7.07
   0   2   5  384.48    6.71
   0  -2  -5  366.11    6.01
   2   0   5  343.04    5.37
   2   0  -5  362.34    5.86
   0  -2   5  325.46    5.07
   1   2   5 2116.91    7.34
   1   2   5 2180.53    8.75
   1   2  -5 2164.40    7.53
   2  -1   5 2156.99    9.43
  -1  -2  -5 2136.48    7.97
  -1  -2   5 2052.62    7.84
   2  -1  -5 2228.18    9.72
   2  -2  -5  200.26    5.39
   2   2  -5  197.54    3.89
   2   2   5  203.75    3.97
   2   2   5  210.91    4.42
   2  -2   5  207.17    5.56
  -2  -2  -5  202.41    3.92
  -2  -2   5  212.49    4.63
   2  -3   5 1285.57    8.14
   2  -3  -5 1405.31    8.70
   3   2   5 1383.66    6.37
   3   2   5 1388.44    6.22
  -3  -2   5 1457.92    7.14
   2  -3   5 1284.94    7.93
  -3  -2  -5 1364.14    5.90
   3   2  -5 1349.14    6.16
   3   1   5  467.61    4.87
  -1   3  -5  424.55   12.09
   1  -3   5  467.78    6.24
   1  -3  -5  502.67    6.54
  -3  -1   5  536.47    6.20
   3   1   5  465.14    4.81
  -3  -1  -5  463.88    4.68
   3   1  -5  468.16    4.72
   1  -3  -5  470.69   11.41
  -1   3   5  476.73    6.22
  -3   0   5 1858.38   10.65
   0   3   5 1825.44   11.42
   3   0   5 1726.94    8.92
   0  -3  -5 1769.55    7.57
  -3   0  -5 1683.60    7.24
   0  -3   5 1583.93    7.28
   3   0  -5 1673.40    8.28
   0   3   5 1628.83    6.98
   0  -3  -5 1676.22    8.52
   3   0   5 1701.16    7.45
  -1  -3   5  467.52    4.81
   1   3   5  475.97    4.58
   1   3  -5  484.59    4.71
   3  -1  -5  492.10    9.97
  -3   1   5  484.33   14.99
   1   3   5  497.49    6.15
   3  -1   5  459.63    6.37
  -1  -3  -5  468.50    4.74
   3  -2  -5 1361.63    8.02
   2   3   5 1399.92    6.14
   2   3  -5 1397.87    6.13
   2   3   5 1408.72    6.90
   3  -2   5 1270.47    8.13
  -2  -3   5 1417.17    6.71
  -2  -3  -5 1363.83    6.03
   3  -3  -5  210.60    7.02
   3   3   5  217.10    4.49
  -3  -3   5  228.76    5.24
   3   3   5  230.19    5.34
   3  -3   5  212.08    6.62
   3   3  -5  228.10    4.63
  -3  -3  -5  226.49    4.68
   3  -3   5  207.33    6.70
   3  -4  -5  758.93    8.79
  -4  -3   5  797.61    7.20
   4   3   5  738.96    6.23
   3  -4   5  689.57    9.04
   3  -4   5  720.52    8.75
   4   3   5  812.31    6.75
  -4  -3  -5  794.42    6.12
   4   3  -5  769.26    6.27
   2  -4   5   40.63    6.71
  -4  -2   5   46.43    5.75
   2  -4  -5   41.79    6.40
   4   2   5   42.23    4.56
   4   2   5   36.08    4.58
   2  -4   5   53.00    6.82
   4   2  -5   41.12    4.32
  -4  -2  -5   42.04    4.34
  -4  -1   5 1267.18    8.80
  -1   4  -5 1024.23   13.35
   4   1   5 1134.45    6.34
   1  -4  -5 1223.93    7.44
   4   1  -5 1139.66    6.50
  -4  -1  -5 1142.89    6.13
   1  -4   5 1122.09    7.43
  -1   4   5   21.39    4.50
   1  -4  -5 1090.22    9.86
  -1   4   5 1084.77    8.14
   0   4   5   72.16    4.69
   0  -4   5   80.30    4.66
   0   4  -5   81.59    8.64
   4   0  -5   68.64    4.87
  -4   0  -5   71.99    4.79
   0   4   5   67.52    8.75
  -4   0   5   66.64    7.51
   0  -4  -5   68.87    4.97
   4   0   5   70.54    4.78
   1   4   5 1107.46    6.39
   1   4   5 1177.49    8.71
   4  -1   5 1140.10   10.77
   4  -1  -5 1112.64    9.42
  -4   1   5 1155.58   15.09
   1   4  -5 1173.59    6.29
   4  -1   5 1132.84    7.03
  -1  -4  -5 1109.96    6.40
  -1  -4   5 1126.73    6.40
   4  -2  -5   45.69    7.35
   2   4   5   38.63    4.41
   2   4  -5   43.14    4.56
  -2  -4   5   42.20    4.67
   4  -2   5   35.70    6.54
  -2  -4  -5   37.95    4.31
   2   4   5   40.61    5.35
   4  -3  -5  741.24    9.07
   3   4  -5  811.18    6.36
   3   4   5  771.73    6.26
  -3  -4   5  781.22    7.01
   4  -3   5  764.02    9.49
   4  -3   5  706.62    8.19
   3   4   5  822.29    7.08
  -3  -4  -5  789.56    6.22
   4  -4  -5    6.47    9.71
  -4  -4   5    9.21    6.35
   4   4   5    5.56    5.84
   4   4  -5    4.24    5.80
   4  -4   5   11.92    9.89
  -4  -4  -5    8.30    5.88
   4   4   5    9.16    6.80
   4  -4   5    7.86    9.47
  -5  -2   5  735.81    9.73
   2  -5  -5  720.89    8.69
   5   2   5  599.35    6.69
   5   2   5  724.28    7.43
   2  -5   5  585.52    9.82
   5   2  -5  635.01    6.53
   2  -5   5  621.37    8.58
  -5  -2  -5  692.27    7.23
  -1   5  -5  110.64   11.02
   5   1   5  117.78    5.62
   1  -5   5  121.30    6.61
   5   1  -5  111.93    5.73
  -5  -1  -5  114.67    6.01
  -5  -1   5  115.90    9.01
  -1   5   5  107.36    8.44
   1  -5  -5  115.95    7.77
   0   5   5  781.72    7.55
   5   0   5  907.96    7.46
   0   5  -5  705.30   13.93
   0  -5   5  840.20    7.29
   5   0  -5  788.80    7.48
  -5   0  -5  794.42    7.90
   0   5   5  541.80   13.91
  -5   0   5  580.26   11.84
   0  -5  -5  774.21    7.51
   1   5   5  124.38    5.55
   1   5  -5  122.77    6.16
   5  -1  -5  109.39    7.50
   1   5  -5  128.88    9.39
   5  -1   5  109.32    6.43
  -5   1   5  112.45   13.25
   1   5   5  110.44    9.63
  -1  -5   5  111.72    5.84
  -1  -5  -5  112.05    5.31
   5  -2  -5  603.48    9.91
   2   5   5  668.34    7.25
   2   5  -5  708.17    7.26
   2   5   5  651.71    8.61
  -2  -5   5  675.95    7.39
   5  -2   5  655.86    8.05
  -2  -5  -5  602.60    6.65
   0   0  -6  290.12    5.82
   0   0   6  301.63    5.97
   0   0   6  290.27    5.63
   0  -1  -6 2342.35    9.83
  -1   0  -6 2364.38   12.85
   1   0   6 2391.99   10.00
  -1   0   6 2009.03   11.22
   0  -1   6 2325.59    9.68
   0   1   6 2049.24   11.18
   1   1   6 1234.89    7.30
   1  -1  -6 1369.35    7.83
  -1   1  -6 1230.35   15.35
  -1  -1  -6 1269.71    8.03
  -1  -1  -6 1307.07    7.60
   1  -1   6 1297.94    7.44
  -1  -1   6 1131.67    7.34
  -1   1   6 1086.80   13.12
  -1   1   6 1069.11   12.84
   1   1   6 1128.72    7.20
   2   1   6 1901.03    8.11
   1  -2  -6 2015.22    8.66
   2   1  -6 1965.89    7.92
   1  -2   6 1939.42    8.46
   1  -2   6 1898.99    8.60
  -2  -1  -6 1937.00    7.53
  -2  -1   6 1968.98    8.88
   2   1   6 1772.93    7.57
   0  -2   6  134.65    5.21
   0  -2  -6  141.52    5.41
   2   0  -6  138.79    4.93
  -2   0  -6  145.88    5.06
   0   2   6  155.65    5.92
   0  -2  -6  151.81    6.07
  -2   0   6  165.89    6.63
   2   0   6  134.50    4.97
   2   0   6  144.58    6.45
   0   2   6  148.24    4.59
   1   2   6 1831.82    7.37
   1   2   6 1843.60    8.53
  -1  -2   6 1730.25    7.47
   1   2  -6 1957.41    7.29
   2  -1   6 1941.61    8.41
  -1  -2  -6 1939.81    8.06
   2  -1  -6 1968.12    8.59
   2  -2  -6   72.52    4.70
   2   2   6   69.09    3.95
   2   2   6   72.36    4.45
   2  -2   6   82.33    4.60
   2  -2   6   80.19    4.90
  -2  -2  -6   72.82    3.96
  -2  -2   6   72.96    4.62
   2   2  -6   75.12    3.94
   2  -3  -6 1275.39    8.14
   3   2  -6 1268.62    6.43
   3   2   6 1254.34    6.50
   3   2   6 1268.93    6.78
   2  -3   6 1179.98    7.47
  -3  -2   6 1326.47    7.52
  -3  -2  -6 1264.54    6.13
   2  -3   6 1207.99    7.75
   3   1   6  567.81    5.23
  -1   3  -6  598.62   16.75
   3   1  -6  595.93    5.63
   3   1   6  585.72    5.75
   1  -3  -6  635.60    7.51
   1  -3   6  580.41    6.67
  -3  -1   6  651.78    7.02
  -3  -1  -6  603.21    5.24
   0   3   6 1514.84   11.74
  -3   0   6 1591.02   11.36
   3   0   6 1506.57    9.63
   0  -3  -6 1561.50    7.78
  -3   0  -6 1500.85    7.31
   3   0  -6 1596.92    9.35
   0  -3   6 1354.83    7.37
   0  -3  -6 1527.87    9.18
   0   3   6 1402.89    6.95
   3   0   6 1454.17    7.63
   1   3   6  581.38    5.17
  -1  -3   6  576.39    5.42
   1   3  -6  628.87    5.24
   1   3   6  617.55    6.90
   3  -1   6  595.75    6.77
  -1  -3  -6  600.15    5.56
   3  -2  -6 1240.36    7.78
   2   3   6 1250.76    6.19
   2   3   6 1293.95    7.36
   3  -2   6 1194.69    7.37
  -2  -3  -6 1259.66    6.46
  -2  -3   6 1233.46    6.79
   2   3  -6 1307.42    6.28
   3  -3  -6  302.45    6.92
   3   3   6  296.69    5.04
   3   3  -6  318.51    5.18
   3   3   6  318.71    6.03
  -3  -3   6  313.33    5.92
   3  -3   6  284.92    6.39
   3  -3   6  300.37    6.59
  -3  -3  -6  308.69    5.16
   4   3  -6  743.31    6.51
   3  -4  -6  692.01    9.03
   4   3   6  701.25    6.94
  -4  -3   6  715.32    7.80
   3  -4   6  598.16    8.36
   4   3   6  718.52    7.27
   3  -4   6  668.22    8.32
  -4  -3  -6  709.94    6.49
   2  -4   6    8.90    7.47
  -4  -2   6    5.92    6.45
   2  -4  -6   12.39    7.50
   4   2   6    8.21    4.95
   4   2   6   10.54    5.36
   2  -4   6   12.30    6.78
  -4  -2  -6    9.04    4.76
   4   2  -6    9.85    4.72
  -4  -1   6 1142.03    9.79
  -1   4  -6 1042.43   14.84
   4   1   6 1056.92    6.50
   4   1   6 1043.77    7.35
   1  -4  -6 1146.33    8.25
  -4  -1  -6 1071.43    6.31
   1  -4  -6 1048.59   18.26
   1  -4   6 1027.08    7.81
   4   1  -6 1064.39    7.07
   0   4   6   22.95    5.00
   4   0   6   21.04    5.65
   0  -4   6   19.66    5.14
   0   4  -6   18.46    9.84
  -4   0  -6   26.18    5.36
   0  -4  -6   20.37    5.60
   0   4   6   16.90   10.21
  -4   0   6   13.35    8.93
   4   0  -6   19.52    5.50
   4   0   6   20.93    5.22
  -1  -4   6 1010.15    6.55
   1   4   6 1024.01    9.09
   1   4   6 1026.28    6.58
   4  -1  -6 1123.69   14.98
  -4   1   6 1097.14   18.08
   1   4  -6 1124.24    6.24
  -1  -4  -6 1065.78    7.08
   4  -1   6 1049.67    7.76
   4  -2  -6    7.19    6.48
   2   4   6    9.56    5.17
   2   4  -6    7.98    5.13
  -2  -4   6    6.13    5.33
   4  -2   6    7.87    7.38
  -2  -4  -6    9.85    4.81
   2   4   6    9.70    6.04
   4  -3  -6  702.20    8.75
   3   4   6  683.12    6.53
   4  -3   6  638.48    8.15
  -3  -4   6  688.77    7.38
   3   4  -6  784.77    6.63
   4  -3   6  654.66    8.70
  -3  -4  -6  700.71    6.50
   3   4   6  707.11    7.58
  -5  -2   6  632.09   10.51
   5   2   6  548.42    7.59
   2  -5  -6  629.78    9.55
   5   2   6  648.55    8.10
   2  -5   6  548.64    9.48
  -5  -2  -6  629.01    7.41
   2  -5   6  548.41    9.03
   5   2  -6  600.09    7.20
  -1   5  -6  155.60   12.98
   5   1   6  168.85    6.83
   5   1   6  154.66    7.01
   1  -5   6  181.12    7.64
  -5  -1  -6  160.83    6.44
   1  -5  -6  152.73   11.86
   5   1  -6  152.61    6.41
  -5  -1   6  134.61   10.36
   0   5   6  667.90    8.19
   5   0   6  757.39    8.08
   0  -5   6  711.31    7.96
   0   5  -6  495.68   14.66
   5   0   6  700.66    9.40
  -5   0  -6  730.41    8.49
   0   5   6  662.00   15.64
  -5   0   6  559.99   14.25
   5   0  -6  692.26    8.50
   0  -5  -6  681.71    8.42
   1   5  -6  165.50    5.72
   1   5   6  163.27    6.74
   5  -1   6  147.00   16.89
   5  -1  -6  145.79   10.36
   1   5  -6  149.98   11.01
  -5   1   6  156.43   16.15
   1   5   6  130.41   11.03
  -1  -5  -6  151.92    6.52
  -1  -5   6  160.37    6.47
   5  -1   6  160.44    7.66
   5  -2  -6  560.75    9.54
   2   5   6  582.01    7.71
   2   5   6  534.66    9.10
   2   5  -6  649.69    7.45
  -2  -5   6  569.76    8.15
  -2  -5  -6  584.44    7.09
   5  -2   6  582.56    8.85
   0   0  -7  609.56    6.38
   0   0   7  613.05    6.31
   0   0   7  615.61    6.47
   0   1  -7   26.58    5.82
   0  -1  -7   23.97    4.61
  -1   0  -7   21.56    6.32
  -1   0   7   44.57    6.03
   1   0   7   25.28    4.66
   0  -1   7   29.61    4.51
  -1   0   7   18.26    5.88
   0   1   7   19.37    5.80
   1   0  -7   22.91    5.22
   1  -1  -7  610.19    5.93
  -1   1  -7  504.89   11.24
  -1  -1  -7  528.76    6.62
  -1  -1  -7  577.53    6.51
   1  -1   7  572.81    6.07
  -1  -1   7  463.92    6.09
   1  -1   7  589.32    5.38
  -1   1   7  453.83   11.03
  -1   1   7  476.39   10.78
   1   1   7  470.46    6.24
   1   1   7  540.37    6.21
   1  -2   7   21.15    4.28
   2   1   7   18.42    4.54
   1  -2  -7   18.79    4.67
   1  -2   7   17.40    4.59
  -2  -1  -7   22.06    4.59
  -2  -1   7   19.17    5.49
   2   1   7   17.87    4.81
   2   1  -7   19.50    4.48
   0  -2   7  356.18    5.62
   0  -2  -7  372.06    5.45
   0   2   7  360.10    7.59
  -2   0   7  391.78    8.24
   2   0   7  370.50    5.88
   2  -1  -7   37.03    4.64
   1   2   7   18.20    4.14
   1   2   7   20.52    5.00
  -1  -2   7   17.30    4.93
  -1  -2  -7   20.59    4.75
   2  -1   7   22.46    4.51
   2  -2  -7  255.82    5.09
   2   2   7  230.57    4.76
   2   2   7  218.40    5.09
   2  -2   7  244.71    5.05
   2  -2   7  237.73    5.25
  -2  -2  -7  243.43    4.86
   2   2  -7  253.27    4.84
  -2  -2   7  236.32    5.46
   3   2   7   19.55    4.74
   2  -3  -7   19.00    5.36
   3   2   7   12.47    5.29
   2  -3   7   11.68    5.19
  -3  -2   7   12.78    5.70
  -3  -2  -7   13.66    4.75
   3   2  -7   17.46    4.77
   2  -3   7   18.92    5.39
   3   1   7  203.31    5.17
   3   1  -7  239.98    5.46
   3   1   7  225.37    5.59
   1  -3   7  221.16    5.95
   1  -3  -7  248.67    6.25
  -3  -1   7  242.40    7.27
  -3  -1  -7  230.52    5.18
   0   3   7   14.93    8.54
   3   0   7   17.32    7.08
  -3   0   7   15.14    8.47
   0  -3  -7   13.82    5.56
  -3   0  -7   14.28    5.41
   0  -3  -7   15.40    6.43
   0  -3   7   30.22    5.31
   3   0  -7   16.08    6.35
   3   0   7   12.75    5.81
   0   3   7   16.63    5.17
   3  -1  -7  228.40    5.95
   1   3   7  222.56    5.03
  -1  -3   7  209.80    5.28
   1   3   7  215.89    6.75
  -1  -3  -7  235.36    5.82
   3  -1   7  220.79    5.80
   3  -2  -7   15.56    5.17
   2   3   7   11.93    4.43
   2   3   7   13.47    5.80
   2   3  -7   12.91    4.71
   3  -2   7   11.24    5.12
  -2  -3  -7   13.68    4.55
  -2  -3   7   14.23    5.49
   3  -3  -7   97.25    6.28
   3   3   7   95.81    5.23
   3   3   7   97.33    6.39
   3  -3   7  102.26    6.21
  -3  -3   7   91.52    6.51
   3  -3   7   91.30    5.96
  -3  -3  -7  100.95    5.18
   3   3  -7  107.91    5.35
   4   3   7    7.13    6.08
   3  -4  -7    5.20    7.66
  -4  -3   7   11.70    7.55
   3  -4   7    9.88    7.45
   4   3  -7    9.64    6.15
   4   3   7    8.28    6.92
   3  -4   7    6.30    6.88
  -4  -3  -7    6.93    6.05
   2  -4   7   69.05    7.12
   4   2   7   62.40    5.95
  -4  -2   7   67.65    7.72
   2  -4  -7   78.21    7.49
   4   2   7   65.46    6.17
   4   2  -7   72.90    5.62
   2  -4   7   71.72    6.72
  -4  -2  -7   66.11    5.59
   4   1   7   11.70    5.61
  -4  -1   7   13.34    8.62
   4   1   7   11.12    5.78
   1  -4  -7   12.32    7.43
   4   1  -7   11.43    5.46
  -4  -1  -7   13.72    5.50
   1  -4   7   16.89    6.90
   0   4   7   97.09    5.88
   4   0  -7  114.07    7.10
   4   0   7  104.04    7.69
   0  -4   7  102.01    5.99
   0   4  -7   73.74   12.12
  -4   0  -7  110.99    5.86
   0  -4  -7  106.65    7.35
   0   4   7   73.39   13.15
  -4   0   7   64.24   11.05
   4   0   7  103.51    6.17
  -1  -4   7   13.22    5.90
   1   4   7   40.20    8.22
   1   4   7   11.53    5.37
  -1  -4  -7   12.20    5.64
   4  -1   7   11.36    6.39
   4  -2  -7   64.40    6.56
   2   4   7   69.15    5.54
  -2  -4  -7   69.14    5.61
   4  -2   7   73.79    6.61
  -2  -4   7   60.42    6.32
   2   4   7   58.80    7.28
   2   4  -7   68.02    5.58
   4  -3   7   -0.22    6.79
   4  -3  -7    8.51    7.19
   3   4   7    6.54    6.28
   3   4  -7   20.33    6.09
  -3  -4   7    5.89    7.05
  -3  -4  -7    8.85    6.12
   4  -3   7    7.17    7.35
   3   4   7    8.81    7.76
   5   1  -7   39.99    7.08
   5   1   7   48.11    7.74
   5   1   7   38.95    7.77
   1  -5   7   47.74    8.55
  -5  -1  -7   38.16    7.47
  -5  -1   7   27.82   12.61
   0   5   7    6.60    7.83
   5   0   7    8.26    8.03
   0  -5   7    3.08    7.87
   5   0   7    6.51    9.91
   0   5  -7    4.97   12.88
  -5   0  -7    6.54    8.12
   5   0  -7    6.62    8.43
   0  -5  -7    6.13    9.16
  -5   0   7    7.32   14.15
   0   5   7    7.96   14.57
   1   5   7   37.55    7.21
   1   5  -7   24.39   12.52
   1   5   7   21.67   13.39
  -1  -5  -7   43.49    7.56
  -1  -5   7   40.77    7.26
   5  -1   7   38.42    8.51
   0   0  -8 2905.84   10.16
   0   0   8 2847.77   10.02
   0   0   8 2894.34   10.20
   1   0  -8  957.94    7.15
   0   1  -8  929.47    8.27
   0  -1  -8  919.38    6.50
  -1   0  -8  873.10    8.44
   0  -1   8  933.56    7.10
  -1   0   8  935.67    8.35
   0  -1   8  913.89    6.49
  -1   0   8  891.09    8.81
   1   0   8  935.02    6.77
   0   1   8  865.97    8.65
   1  -1  -8  105.77    4.75
  -1   1  -8   89.70    8.60
   1  -1   8   96.28    4.82
  -1  -1  -8  106.02    5.51
  -1  -1   8   91.60    5.77
   1  -1   8  101.42    4.74
  -1   1   8  100.34    9.30
  -1   1   8   92.52    8.62
   1   1   8   97.89    5.69
   2   1   8  709.37    7.47
   1  -2  -8  799.32    6.29
  -2  -1  -8  750.07    6.76
   1  -2   8  740.11    6.14
  -2  -1   8  659.20    7.82
   1  -2   8  751.97    5.90
   2   1   8  670.60    6.72
   0  -2  -8 2172.35    8.40
   0   2   8 1735.89   11.87
  -2   0   8 1890.81   12.47
   2   0   8 2158.18    8.43
   0  -2   8 2011.46    8.12
   2  -1  -8  749.05    6.31
   1   2   8  633.07    7.40
  -1  -2   8  670.87    6.82
  -1  -2  -8  757.35    7.67
   2  -1   8  782.65    6.13
   1   2   8  707.98    6.39
   2   2   8 1571.64    7.82
   2  -2  -8 1705.89    7.71
   2   2   8 1378.62    8.28
  -2  -2  -8 1631.36    8.05
   2  -2   8 1611.93    7.46
  -2  -2   8 1425.98    8.52
   2   2  -8 1495.82    7.00
   2  -2   8 1693.07    7.45
   3   2   8  499.45    6.60
   2  -3  -8  538.09    6.33
   3   2   8  460.27    6.65
   2  -3   8  497.37    6.26
  -3  -2  -8  524.54    6.45
  -3  -2   8  468.47    7.72
   3   2  -8  573.67    6.63
   2  -3   8  538.05    6.32
   3   1   8  124.04    6.34
   3   1   8  132.44    6.13
   1  -3   8  130.56    5.43
   1  -3  -8  138.02    5.67
   1  -3   8  126.93    5.60
  -3  -1   8  125.22    7.92
  -3  -1  -8  130.59    5.71
   3   1  -8  148.60    6.36
  -3   0   8  440.71   11.36
   0  -3  -8  612.89    6.64
   0  -3   8  582.18    6.66
   3   0   8  597.55    6.68
   0   3   8  403.89   12.05
   1   3   8  120.57    5.26
  -1  -3   8  112.52    6.02
  -1  -3  -8  133.94    6.17
   1   3   8  119.61    7.17
   3  -1   8  140.83    5.58
   3  -1  -8  140.18    5.59
   3  -2  -8  522.55    6.07
   2   3   8  502.84    6.27
   2   3  -8  557.98    6.10
   3  -2   8  469.92    5.55
   2   3   8  453.80    7.83
  -2  -3  -8  525.67    6.66
   3  -2   8  513.60    6.01
  -2  -3   8  459.41    7.10
   3   3   8  137.59    6.37
   3  -3  -8  151.04    6.75
   3  -3   8  140.58    6.45
   3   3   8  129.38    7.28
  -3  -3   8  123.56    7.36
  -3  -3  -8  143.03    5.92
   3   3  -8  158.95    6.39
   3  -3   8  132.39    6.48
   2  -4   8  711.24    8.00
   4   2  -8  818.48    8.18
   4   2   8  671.50    8.11
  -4  -2   8  625.71    9.67
   2  -4  -8  780.94    7.96
   4   2   8  646.88    7.88
   2  -4   8  689.09    7.98
  -4  -2  -8  711.88    7.44
   4   1   8  386.52    7.42
  -4  -1   8  329.11   11.84
   4   1   8  411.19    8.36
   1  -4  -8  459.55    7.94
   4   1  -8  459.25    7.93
  -4  -1  -8  413.55    6.98
   1  -4   8  409.58    7.38
   4   0   8  890.39   14.45
   0  -4   8  857.35    8.07
   0   4  -8  818.82   13.55
   0  -4  -8  971.05   12.84
   0   4   8 1023.29   18.29
  -4   0   8  866.61   15.74
   4   0   8  931.89    8.69
   0   4   8  889.84    8.19
   1   4   8  383.64    6.47
   1   4   8  272.76   11.04
  -1  -4   8  375.88    7.46
  -1  -4  -8  429.07    7.92
   4  -1   8  432.32    7.37
   4  -1  -8  402.06    7.43
   4  -2  -8  700.92    8.11
   2   4   8  677.48    7.38
   2   4  -8  776.71    6.98
  -2  -4  -8  742.98    7.83
   4  -2   8  708.38    7.53
  -2  -4   8  629.56    8.36
   2   4   8  577.50    8.82
   0   0   9   39.75    5.14
   0   0  -9   38.35    5.11
   0   0   9   40.57    5.32
   1   0  -9  164.74    5.60
   0   1  -9  160.52    5.92
   0  -1  -9  155.81    4.99
   0  -1   9  158.45    4.84
  -1   0  -9  156.52    6.36
   0   1   9  167.73    5.87
   0  -1   9  154.89    5.42
  -1   0   9  160.75    6.11
  -1   0   9  154.22    6.62
   1   0   9  154.98    5.20
   0   1   9  150.54    6.62
   1  -1  -9 1949.75    7.87
  -1   1  -9 1870.92   13.53
  -1  -1  -9 1826.19    8.79
  -1  -1   9 1845.58    9.01
   1  -1   9 1929.18    7.78
  -1   1   9 1898.45   14.18
   1  -1   9 1898.87    7.59
  -1   1   9 1860.18   13.34
   1   1   9 1806.03    8.73
   1   1  -9 1895.72    9.65
   1  -2  -9  157.57    5.55
   1  -2   9  152.77    5.41
   1  -2   9  131.15    5.42
  -2  -1   9  111.12    7.41
   2   1   9  124.23    5.78
   0   2  -9   56.13    7.51
   0  -2  -9   56.46    4.82
   0   2   9   38.17    9.17
   0  -2   9   57.73    5.77
  -2   0   9   60.09    7.53
  -2   0   9   42.26    9.20
   2   0   9   61.26    4.99
   0  -2   9   55.49    4.83
   2   0  -9   59.47    5.42
   2  -1  -9  137.64    5.50
   1   2   9  104.02    7.07
  -1  -2   9  119.61    5.98
   2  -1   9  179.69    5.38
   2   2   9   70.08    6.13
   2  -2  -9   76.65    5.29
   2   2   9   58.85    6.49
  -2  -2  -9   72.67    6.29
   2  -2   9   69.10    5.16
   2  -2   9   76.43    5.44
  -2  -2   9   63.46    6.64
   3   2   9   86.58    6.38
   2  -3  -9   93.27    6.02
   3   2   9   77.30    6.87
  -3  -2  -9   83.50    6.74
   2  -3   9   87.54    5.81
   2  -3   9   85.47    5.95
  -3  -2   9   71.41    8.22
   3   2  -9   82.36    5.51
   3   1   9  996.92   10.02
   3   1   9 1024.20    8.16
   1  -3   9 1067.73    7.20
   1  -3  -9 1168.97    7.73
  -3  -1  -9 1074.84    8.09
   1  -3   9 1008.17    7.39
  -3  -1   9  813.90   10.82
  -3   0   9   66.85   12.36
   0  -3  -9  106.20    5.91
   0  -3   9   98.10    5.54
   3   0   9  107.66    5.90
   0   3   9   61.87   13.50
   3  -1  -9 1045.45    7.41
  -1  -3   9  998.56    8.02
  -1  -3  -9 1061.64    9.89
   1   3   9  718.98   10.07
   3  -1   9 1070.12    7.35
   1   3   9  987.63    7.95
   2   3   9   81.54    6.64
   3  -2  -9   94.63    5.95
   2   3   9   67.43    7.79
  -2  -3  -9   88.32    7.03
   3  -2   9   90.57    5.90
  -2  -3   9   76.15    7.45
   3  -2   9   89.62    5.92
   3   3   9  540.98    8.18
   3   3  -9  688.32    7.66
   3  -3  -9  635.67    7.52
   3  -3   9  652.28    7.51
   3   3   9  518.05    9.25
  -3  -3  -9  602.74    8.42
  -3  -3   9  526.86    9.67
   3  -3   9  616.82    7.14
   4   1   9   68.96    9.43
   4   1   9   68.33    7.58
  -4  -1   9   60.69   13.62
   1  -4  -9   91.99    7.59
  -4  -1  -9   69.87    7.28
   1  -4   9   83.08    7.66
   1  -4   9   78.49    7.22
   0  -4   9   80.85    6.90
   0   4  -9   89.83   12.91
  -4   0   9   99.73   15.21
   4   0   9   89.35    6.73
   0   4   9   95.41   15.08
   4  -1  -9   75.38    7.40
   1   4   9   58.53   12.32
  -1  -4   9   69.74    7.78
  -1  -4  -9   73.47    8.89
   4  -1   9   82.80    6.87
   1   4   9   58.77    7.19
   0   0 -10   33.53    5.23
   0   0  10   34.08    5.30
   0   0  10   31.26    5.29
   1   0 -10    6.55    5.08
   0   1 -10   13.29    5.75
   0  -1  10   10.19    5.00
   0  -1 -10    7.81    4.78
   1   0  10    8.55    5.19
  -1   0 -10   20.27    6.38
   0   1  10   10.01    5.98
   0  -1  10    7.80    5.39
  -1   0  10    8.11    6.58
  -1   0  10    6.44    6.18
   1   0  10    6.72    5.08
   0   1  10   12.48    6.12
   1   1 -10  792.19    7.65
   1  -1 -10  840.42    6.71
   1  -1  10  809.49    6.27
  -1  -1  10  763.73    7.43
  -1  -1  10  763.58    6.97
  -1   1  10  828.51   10.90
   1  -1  10  807.81    6.44
   1   1  10  783.86    7.06
  -1   1  10  808.85   10.31
   1  -2 -10    8.20    5.30
   1  -2  10    6.14    5.20
   1  -2  10    7.37    5.15
  -2  -1  10    9.02    8.29
   2   1  10    5.36    5.41
   2   0 -10    9.57    5.77
   0   2 -10   17.62    7.54
   0  -2 -10   15.60    5.56
   0   2  10   14.71   10.01
   0  -2  10   14.87    5.92
  -2   0  10   18.29    7.26
   0   2  10   15.08    7.17
  -2   0  10   19.67   10.23
   2   0  10   15.49    5.28
   0  -2  10   14.86    5.26
   2  -1 -10    9.03    5.51
   1   2  10    8.09    7.29
   2  -1  10    9.32    5.15
  -1  -2  10   11.16    5.81
   2  -1  10    6.18    5.21
   2  -2 -10    4.52    5.55
   2   2  10    4.07    6.95
   2  -2  10   10.44    5.25
   2  -2  10   21.49    5.42
  -2  -2  10    5.09    7.26
   3   2  10    2.65    8.79
   3   2  10    5.63    7.28
   2  -3 -10    1.64    6.37
   2  -3  10    5.78    6.23
  -3  -2 -10    5.93    7.71
  -3  -2  10    4.17    9.80
   2  -3  10    1.83    6.34
   3   1  10  399.58    7.08
   1  -3 -10  443.97    6.66
  -3  -1  10  409.92   12.16
   1  -3  10  388.19    6.60
   1  -3  10  422.36    6.49
   0   3  10    4.46   16.34
   0   3 -10    7.87   10.42
  -3   0  10    5.72   15.82
   0   3  10    2.23    7.74
   0  -3 -10    7.03    6.14
   0  -3  10    3.97    6.60
  -3   0  10    7.47   11.13
   0  -3  10    6.55    5.78
   3   0  10    3.63    6.17
   3   0 -10    7.37    6.41
   3  -1 -10  401.56    6.60
  -1  -3  10  384.87    7.09
   1   3  10  369.95   10.85
   3  -1  10  411.39    6.56
   3  -2 -10    4.05    6.36
   3  -2  10    2.01    6.25
  -2  -3 -10    3.61    8.38
   2   3  10    3.78    8.76
   3  -2  10    6.58    6.17
  -2  -3  10    8.55    8.20
   2   3  10    1.32    7.36
   0   0 -11 2241.45    9.22
   0   0  11 2177.37    9.04
   0   0  11 2206.35    9.11
   0  -1  11   13.08    5.55
   1   0 -11   27.09    5.53
   0   1 -11   16.10    6.82
   0  -1 -11   18.60    5.36
  -1   0  11   19.07    6.94
   0  -1  11   16.06    5.63
  -1   0  11   16.09    6.20
   1   0  11   18.33    5.60
   0   1  11   19.94    6.65
   1   0  11   15.52    5.48
   0   1  11   16.18    6.49
  -1   1  11  247.19   10.07
   1   1 -11  239.25    6.77
   1  -1 -11  241.59    5.77
  -1   1  11  261.18   10.64
  -1  -1  11  243.25    6.62
  -1  -1  11  230.47    6.54
   1  -1  11  240.71    5.80
   1   1  11   94.07    4.57
   1  -1  11  233.85    5.63
   1   1  11  238.59    6.54
   2   1  11   13.74    6.01
   1  -2 -11   16.66    5.58
   1  -2  11   12.13    5.61
  -2  -1  11   12.78    8.20
   1  -2  11   14.39    5.70
  -2  -1  11   13.49    8.64
   2   1 -11   11.40    6.55
   2   0 -11 1658.24    8.46
   0   2 -11 1748.87   11.88
   0   2  11 1756.72   12.25
   0  -2 -11 1785.45    8.15
   0   2  11 1779.31   14.68
   0  -2  11 1657.75    8.75
  -2   0  11 1712.88   11.82
  -2   0  11 1924.81   15.47
   0  -2  11 1656.35    7.95
   2   0  11 1699.19    7.87
   1   2 -11   13.36    8.10
   2  -1  11   14.67    5.64
   2  -1 -11   14.48    5.63
   1   2  11   12.65    7.97
  -1  -2  11   10.21    6.17
  -1  -2  11   11.33    6.80
   2  -1  11   15.30    5.52
   2  -2 -11 1367.84    8.03
   2   2  11 1316.63    9.39
   2  -2  11 1333.83    7.83
  -2  -2  11 1324.52    9.70
   2  -2  11 1361.48    8.16
   0   0  12    2.99    6.11
   0   0 -12    7.39    6.63
   0   0  12    5.40    6.19
   1   0 -12   31.51    6.25
   0   1 -12   30.07    7.11
   1   0  12   28.31    5.97
  -1   0  12   35.76    8.05
   0  -1 -12   30.86    6.05
   0   1  12   28.57    7.27
   0  -1  12   31.71    6.12
  -1   0  12   30.95    7.38
   1   0  12   30.04    6.35
   0  -1  12   27.45    6.32
   0   1  12   34.03    8.01
  -1   1  12  637.91   12.57
   1   1 -12  600.62    7.99
  -1   1  12  652.07   13.29
   1   1  12  598.00    7.82
   1  -1 -12  623.53    7.27
  -1  -1  12  605.27    8.11
   1  -1  12  596.61    6.69
  -1  -1  12  585.93    7.88
   1  -1  12  591.35    7.08
   1   1  12  613.12    7.84
   0   0   0    0.00    0.00
   0   6   1   99.52    9.96
   0  -6  -1   69.74    5.57
  -2   0  -1   11.99    3.01
;
_shelx_hkl_checksum              20954
loop_
_space_group_symop_operation_xyz
'x, y, z'
'-x+1/2, -y+1/2, -z'
'-y+1/2, x+1/2, z'
'-x, -y, z'
'y+1/2, -x+1/2, z'
'y, -x, -z'
'-y, x, -z'
'x+1/2, -y+1/2, -z'
'-x+1/2, y+1/2, -z'
'y, x, -z'
'-y, -x, -z'
'x+1/2, y+1/2, -z'
'-x, y, z'
'x, -y, z'
'-y+1/2, -x+1/2, z'
'y+1/2, x+1/2, z'
loop_
_atom_site_label
_atom_site_type_symbol
_atom_site_fract_x
_atom_site_fract_y
_atom_site_fract_z
_atom_site_U_iso_or_equiv
_atom_site_adp_type
_atom_site_occupancy
_atom_site_site_symmetry_order
_atom_site_calc_flag
_atom_site_refinement_flags_posn
_atom_site_refinement_flags_adp
_atom_site_refinement_flags_occupancy
_atom_site_disorder_assembly
_atom_site_disorder_group
La1 La 0.000000 0.500000 0.27232(7) 0.0134(2) Uani 1 8 d S T P . .
Te1 Te 0.000000 0.500000 0.63345(8) 0.0114(2) Uani 1 8 d S T P . .
Te2 Te 0.000000 0.000000 0.000000 0.0310(4) Uani 0.933(5) 8 d S T . . .
loop_
_atom_site_aniso_label
_atom_site_aniso_U_11
_atom_site_aniso_U_22
_atom_site_aniso_U_33
_atom_site_aniso_U_23
_atom_site_aniso_U_13
_atom_site_aniso_U_12
La1 0.0107(2) 0.0107(2) 0.0187(3) 0.000 0.000 0.000
Te1 0.0096(3) 0.0096(3) 0.0152(3) 0.000 0.000 0.000
Te2 0.0412(5) 0.0412(5) 0.0107(5) 0.000 0.000 0.000
loop_
_atom_type_symbol
_atom_type_description
_atom_type_scat_dispersion_real
_atom_type_scat_dispersion_imag
_atom_type_scat_source
La La -0.2871 2.4523 'International Tables Vol C Tables 4.2.6.8 and 6.1.1.4'
Te Te -0.5308 1.6751 'International Tables Vol C Tables 4.2.6.8 and 6.1.1.4'
loop_
_geom_angle_atom_site_label_1
_geom_angle_atom_site_label_2
_geom_angle_atom_site_label_3
_geom_angle
_geom_angle_site_symmetry_1
_geom_angle_site_symmetry_3
_geom_angle_publ_flag
Te1 La1 Te1 74.917(17) . 2_566 ?
Te1 La1 Te1 86.117(8) 2_456 2_556 ?
Te1 La1 Te1 74.917(17) . 2_556 ?
Te1 La1 Te1 74.917(17) . 2_456 ?
Te1 La1 Te1 86.117(8) 2_456 2_466 ?
Te1 La1 Te1 149.83(3) 2_566 2_456 ?
Te1 La1 Te1 86.117(8) 2_566 2_556 ?
Te1 La1 Te1 74.917(17) . 2_466 ?
Te1 La1 Te1 86.117(8) 2_566 2_466 ?
Te1 La1 Te1 149.83(3) 2_466 2_556 ?
Te1 La1 Te2 137.768(9) . 2 ?
Te1 La1 Te2 130.660(15) 2_466 . ?
Te1 La1 Te2 130.660(15) 2_566 . ?
Te1 La1 Te2 130.660(15) 2_466 2 ?
Te1 La1 Te2 137.768(9) . . ?
Te1 La1 Te2 137.768(9) . 1_565 ?
Te1 La1 Te2 74.560(13) 2_456 . ?
Te1 La1 Te2 130.660(15) 2_456 1_565 ?
Te1 La1 Te2 74.560(13) 2_556 . ?
Te1 La1 Te2 130.660(15) 2_556 1_565 ?
Te1 La1 Te2 130.660(15) 2_456 2 ?
Te1 La1 Te2 137.768(9) . 2_455 ?
Te1 La1 Te2 74.560(13) 2_556 2 ?
Te1 La1 Te2 130.660(15) 2_566 2_455 ?
Te1 La1 Te2 74.560(13) 2_566 1_565 ?
Te1 La1 Te2 74.560(13) 2_456 2_455 ?
Te1 La1 Te2 74.560(13) 2_466 1_565 ?
Te1 La1 Te2 74.560(13) 2_466 2_455 ?
Te1 La1 Te2 130.660(15) 2_556 2_455 ?
Te1 La1 Te2 74.560(13) 2_566 2 ?
Te2 La1 Te2 84.465(19) 2_455 2 ?
Te2 La1 Te2 56.755(11) 2_455 . ?
Te2 La1 Te2 84.465(19) . 1_565 ?
Te2 La1 Te2 56.755(11) . 2 ?
Te2 La1 Te2 56.755(11) 2_455 1_565 ?
Te2 La1 Te2 56.755(11) 2 1_565 ?
La1 Te1 La1 86.117(8) 2_566 2_466 ?
La1 Te1 La1 86.117(8) 2_456 2_556 ?
La1 Te1 La1 86.117(8) 2_566 2_556 ?
La1 Te1 La1 149.83(3) 2_556 2_466 ?
La1 Te1 La1 105.083(17) . 2_466 ?
La1 Te1 La1 105.083(17) . 2_556 ?
La1 Te1 La1 86.117(8) 2_456 2_466 ?
La1 Te1 La1 105.083(17) . 2_456 ?
La1 Te1 La1 149.83(3) 2_566 2_456 ?
La1 Te1 La1 105.083(17) . 2_566 ?
La1 Te2 La1 123.246(11) 1_545 2 ?
La1 Te2 La1 123.246(11) 2_455 1_545 ?
La1 Te2 La1 84.465(19) . 1_545 ?
La1 Te2 La1 123.246(11) . 2_455 ?
La1 Te2 La1 84.464(19) 2_455 2 ?
La1 Te2 La1 123.246(11) . 2 ?
Te2 Te2 La1 61.623(5) 2_455 2_455 ?
Te2 Te2 La1 118.377(6) 2 2_455 ?
Te2 Te2 La1 61.623(6) 2_445 2_455 ?
Te2 Te2 La1 61.623(6) 2 . ?
Te2 Te2 La1 118.377(6) 2_445 2 ?
Te2 Te2 La1 118.377(6) 2_445 . ?
Te2 Te2 La1 118.377(5) 2_545 . ?
Te2 Te2 La1 61.623(6) 2_545 2 ?
Te2 Te2 La1 61.623(5) 2 2 ?
Te2 Te2 La1 61.623(5) 2_455 . ?
Te2 Te2 La1 118.377(6) 2_455 2 ?
Te2 Te2 La1 118.377(6) 2_455 1_545 ?
Te2 Te2 La1 61.623(6) 2_545 1_545 ?
Te2 Te2 La1 118.377(6) 2 1_545 ?
Te2 Te2 La1 61.623(5) 2_445 1_545 ?
Te2 Te2 La1 118.377(6) 2_545 2_455 ?
Te2 Te2 Te2 90.0 2_445 2_545 ?
Te2 Te2 Te2 90.0 2_445 2_455 ?
Te2 Te2 Te2 90.0 2 2_455 ?
Te2 Te2 Te2 180.0 2_455 2_545 ?
Te2 Te2 Te2 90.0 2 2_545 ?
Te2 Te2 Te2 180.0 2 2_445 ?
loop_
_geom_bond_atom_site_label_1
_geom_bond_atom_site_label_2
_geom_bond_distance
_geom_bond_site_symmetry_2
_geom_bond_publ_flag
La1 Te1 3.3034(11) . ?
La1 Te1 3.3121(5) 2_456 ?
La1 Te1 3.3121(5) 2_556 ?
La1 Te1 3.3121(5) 2_566 ?
La1 Te1 3.3121(5) 2_466 ?
La1 Te2 3.3643(6) 2_455 ?
La1 Te2 3.3643(6) 1_565 ?
La1 Te2 3.3643(6) 2 ?
La1 Te2 3.3643(6) . ?
Te2 Te2 3.1980(4) 2 ?
Te2 Te2 3.1980(4) 2_455 ?
Te2 Te2 3.1980(4) 2_545 ?
Te2 Te2 3.1980(4) 2_445 ?

_cod_database_fobs_code 2108700
