#------------------------------------------------------------------------------
#$Date: 2021-02-05 16:52:09 +0200 (Fri, 05 Feb 2021) $
#$Revision: 261796 $
#$URL: file:///home/coder/svn-repositories/cod/cif/2/10/87/2108771.cif $
#------------------------------------------------------------------------------
#
# This file is available in the Crystallography Open Database (COD),
# http://www.crystallography.net/. The original data for this entry
# were provided by IUCr Journals, http://journals.iucr.org/.
#
# The file may be used within the scientific community so long as
# proper attribution is given to the journal article from which the
# data were obtained.
#
data_2108771
loop_
_publ_author_name
'Dugarte-Dugarte, Analio'
'Ram\'irez Pineda, Nahum'
'Nieves, Luis'
'Henao, Jos\'e Antonio'
'D\'iaz de Delgado, Graciela'
'Delgado, Jos\'e Miguel'
_publ_section_title
;
 The crystal structure of Cu~2~GeSe~3~ and the structure-types of the
 I~2~-IV-VI~3~ family of semiconducting compounds
;
_journal_coeditor_code           RA5092SUP1
_journal_issue                   1
_journal_name_full               'Acta Crystallographica Section B'
_journal_page_first              158
_journal_page_last               167
_journal_paper_doi               10.1107/S2052520620016571
_journal_volume                  77
_journal_year                    2021
_chemical_absolute_configuration ad
_chemical_formula_moiety         'Cu2 Ge Se3'
_chemical_formula_sum            'Cu2 Ge Se3'
_chemical_formula_weight         436.55
_space_group_crystal_system      monoclinic
_space_group_IT_number           9
_space_group_name_Hall           'C -2yc'
_space_group_name_H-M_alt        'C 1 c 1'
_atom_sites_solution_primary     dual
_audit_creation_date             2020-11-28
_audit_creation_method
;
Olex2 1.2
(compiled 2018.05.29 svn.r3508 for OlexSys, GUI svn.r5506)
;
_audit_update_record
;
2021-01-08 # Formatted by IUCr publCIF

;
_cell_angle_alpha                90
_cell_angle_beta                 108.512(6)
_cell_angle_gamma                90
_cell_formula_units_Z            4
_cell_length_a                   6.7703(4)
_cell_length_b                   11.8624(5)
_cell_length_c                   6.7705(4)
_cell_measurement_reflns_used    2471
_cell_measurement_temperature    293
_cell_measurement_theta_max      34.7790
_cell_measurement_theta_min      3.1330
_cell_volume                     515.62(5)
_computing_cell_refinement       'CrysAlisPro 1.171.39.28e (Rigaku OD, 2015)'
_computing_data_collection       'CrysAlisPro 1.171.39.28e (Rigaku OD, 2015)'
_computing_data_reduction        'CrysAlisPro 1.171.39.28e (Rigaku OD, 2015)'
_computing_molecular_graphics    'DIAMOND (Brandenburg, 1999)'
_computing_publication_material
'Olex2 (Dolomanov et al., 2009) and enCIFer (Allen et al., 2004)'
_computing_structure_refinement  'ShelXL (Sheldrick, 2015)'
_computing_structure_solution    'ShelXT (Sheldrick, 2015)'
_diffrn_ambient_temperature      293
_diffrn_detector                 PILT
_diffrn_detector_area_resol_mean 5.8140
_diffrn_detector_type            'PILATUS 200'
_diffrn_measured_fraction_theta_full 0.998
_diffrn_measured_fraction_theta_max 0.938
_diffrn_measurement_details
;
List of Runs (angles in degrees, time in seconds):

  # Type    Start    End  Width  t~exp~   \w     \q     \k     \f   Frames
--------------------------------------------------------------------------
  1  \w   -114.00  66.00   0.50   30.00    --  -24.00  24.00 108.00  360
  2  \w    -90.00  47.00   0.50   30.00    --  -24.00  36.00 -72.00  274
  3  \w    -86.50  43.50   0.50   30.00    --  -24.00  60.00 108.00  260
  4  \w   -100.50 -24.00   0.50   30.00    --  -24.00  12.00  72.00  153
  5  \w   -114.00 -69.00   0.50   30.00    --  -24.00  24.00-180.00   90
;
_diffrn_measurement_device       'AFC11 (Right): Eulerian 3 circle'
_diffrn_measurement_device_type  'Rigaku XtaLab Pro'
_diffrn_measurement_method       '\w scans'
_diffrn_measurement_specimen_support 'Mitegen 50um'
_diffrn_orient_matrix_type
'CrysAlisPro convention (1999,Acta A55,543-557)'
_diffrn_orient_matrix_UB_11      -0.0954395000
_diffrn_orient_matrix_UB_12      -0.0202830000
_diffrn_orient_matrix_UB_13      -0.0693203000
_diffrn_orient_matrix_UB_21      -0.0557223000
_diffrn_orient_matrix_UB_22      0.0347576000
_diffrn_orient_matrix_UB_23      0.0492467000
_diffrn_orient_matrix_UB_31      0.0000708000
_diffrn_orient_matrix_UB_32      0.0442099000
_diffrn_orient_matrix_UB_33      -0.0704742000
_diffrn_radiation_monochromator  graphite
_diffrn_radiation_probe          x-ray
_diffrn_radiation_type           MoK\a
_diffrn_radiation_wavelength     0.71075
_diffrn_reflns_av_R_equivalents  0.0213
_diffrn_reflns_av_unetI/netI     0.0416
_diffrn_reflns_Laue_measured_fraction_full 0.998
_diffrn_reflns_Laue_measured_fraction_max 0.938
_diffrn_reflns_limit_h_max       10
_diffrn_reflns_limit_h_min       -10
_diffrn_reflns_limit_k_max       18
_diffrn_reflns_limit_k_min       -18
_diffrn_reflns_limit_l_max       10
_diffrn_reflns_limit_l_min       -10
_diffrn_reflns_number            4227
_diffrn_reflns_point_group_measured_fraction_full 0.968
_diffrn_reflns_point_group_measured_fraction_max 0.829
_diffrn_reflns_theta_full        25.242
_diffrn_reflns_theta_max         34.632
_diffrn_reflns_theta_min         3.435
_diffrn_source                   'fine-focus sealed X-ray tube'
_diffrn_source_current           20.0
_diffrn_source_power             1.0
_diffrn_source_type              'Enhance (Mo) X-ray Source'
_diffrn_source_voltage           50.0
_exptl_absorpt_coefficient_mu    34.964
_exptl_absorpt_correction_T_max  1.00000
_exptl_absorpt_correction_T_min  0.50525
_exptl_absorpt_correction_type   multi-scan
_exptl_absorpt_process_details
;
CrysAlisPro 1.171.39.28e (Rigaku Oxford Diffraction, 2015) 
Empirical absorption correction using spherical harmonics, 
implemented in SCALE3 ABSPACK scaling algorithm.
;
_exptl_crystal_colour            grey
_exptl_crystal_colour_lustre     metallic
_exptl_crystal_colour_modifier   dark
_exptl_crystal_colour_primary    grey
_exptl_crystal_density_diffrn    5.624
_exptl_crystal_description       'irregular fragment'
_exptl_crystal_F_000             768
_exptl_crystal_size_max          0.24
_exptl_crystal_size_mid          0.23
_exptl_crystal_size_min          0.22
_refine_diff_density_max         1.533
_refine_diff_density_min         -1.830
_refine_diff_density_rms         0.410
_refine_ls_abs_structure_details
;
 Flack x determined using 626 quotients [(I+)-(I-)]/[(I+)+(I-)]
 (Parsons, Flack and Wagner, Acta Cryst. B69 (2013) 249-259).
;
_refine_ls_abs_structure_Flack   0.043(18)
_refine_ls_extinction_coef       0.0158(8)
_refine_ls_extinction_expression Fc^*^=kFc[1+0.001xFc^2^\l^3^/sin(2\q)]^-1/4^
_refine_ls_extinction_method     'SHELXL-2018/3 (Sheldrick 2018)'
_refine_ls_goodness_of_fit_ref   1.163
_refine_ls_hydrogen_treatment    undef
_refine_ls_matrix_type           full
_refine_ls_number_parameters     56
_refine_ls_number_reflns         1824
_refine_ls_number_restraints     2
_refine_ls_restrained_S_all      1.162
_refine_ls_R_factor_all          0.0311
_refine_ls_R_factor_gt           0.0270
_refine_ls_shift/su_max          0.000
_refine_ls_shift/su_mean         0.000
_refine_ls_structure_factor_coef Fsqd
_refine_ls_weighting_details
'w=1/[\s^2^(Fo^2^)+(0.0266P)^2^+0.1027P] where P=(Fo^2^+2Fc^2^)/3'
_refine_ls_weighting_scheme      calc
_refine_ls_wR_factor_gt          0.0741
_refine_ls_wR_factor_ref         0.0770
_reflns_Friedel_coverage         0.759
_reflns_Friedel_fraction_full    0.938
_reflns_Friedel_fraction_max     0.718
_reflns_number_gt                1605
_reflns_number_total             1824
_reflns_threshold_expression     'I > 2\s(I)'
_iucr_refine_instructions_details
;
TITL Cu2GeSe3_Cc in Cc #9
    cu2gese3.res
    created by SHELXL-2018/3 at 01:25:30 on 28-Nov-2020
CELL 0.71075 6.770305 11.862424 6.770486 90 108.5123 90
ZERR 4 0.000396 0.000528 0.000381 0 0.0063 0
LATT -7
SYMM +X,-Y,0.5+Z
SFAC Cu Ge Se
UNIT 8 4 12

L.S. 4
PLAN  -5
SIZE 0.24 0.23 0.22
TEMP 19.85
LIST 4
fmap 2
acta
OMIT 1 3 0
OMIT -1 3 2
OMIT -1 3 0
REM <olex2.extras>
REM <HklSrc "%.\\Cu2GeSe3.hkl">
REM </olex2.extras>

WGHT    0.026600    0.102700
EXTI    0.015755
FVAR       0.26923
CU1   1   -0.000090   -0.086567    0.499940    11.00000    0.01970    0.01572 =
         0.01375    0.00058    0.00577    0.00191
CU2   1    0.514893   -0.246768    0.504632    11.00000    0.01462    0.01758 =
         0.01261    0.00128    0.00335   -0.00138
GE    2    0.528160    0.085873    0.523023    11.00000    0.00413    0.00665 =
         0.00228   -0.00033    0.00010   -0.00048
SE1   3    0.386505   -0.081104    0.640007    11.00000    0.00536    0.00711 =
         0.00206    0.00054   -0.00050   -0.00096
SE2   3    0.388796    0.245583    0.631723    11.00000    0.00724    0.00819 =
         0.00586   -0.00053    0.00160    0.00186
SE3   3    0.892148    0.084245    0.624685    11.00000    0.00407    0.00896 =
         0.00612    0.00026    0.00058    0.00028
HKLF 4




REM  Cu2GeSe3_Cc in Cc #9
REM wR2 = 0.0770, GooF = S = 1.163, Restrained GooF = 1.162 for all data
REM R1 = 0.0270 for 1605 Fo > 4sig(Fo) and 0.0311 for all 1824 data
REM 56 parameters refined using 2 restraints

END  
     
WGHT      0.0266      0.1027 

REM Highest difference peak  1.533,  deepest hole -1.830,  1-sigma level  0.410
Q1    1  -0.1000 -0.2020  0.6616  11.00000  0.05    1.53
Q2    1   0.3819 -0.1308  0.6143  11.00000  0.05    1.50
Q3    1   0.0180 -0.0402  0.5070  11.00000  0.05    1.44
Q4    1  -0.3546 -0.0869  0.3807  11.00000  0.05    1.39
Q5    1   0.1451  0.0797  0.3806  11.00000  0.05    1.38

  REM The information below was added by Olex2.
  REM
  REM R1 = 0.0270 for 1605 Fo > 4sig(Fo) and 0.0311 for all 4360 data
  REM n/a parameters refined using n/a restraints
  REM Highest difference peak 1.53, deepest hole -1.83
  REM Mean Shift 0, Max Shift 0.000.

  REM +++ Tabular Listing of Refinement Information +++
  REM R1_all = 0.0311
  REM R1_gt = 0.0270
  REM wR_ref = 0.0770
  REM GOOF = 1.163
  REM Shift_max = 0.000
  REM Shift_mean = 0
  REM Reflections_all = 4360
  REM Reflections_gt = 1605
  REM Parameters = n/a
  REM Hole = -1.83
  REM Peak = 1.53
  REM Flack = 0.043(18)

  
;
_cod_data_source_file            ra5092sup1.cif
_cod_data_source_block           I
_cod_depositor_comments          'Adding full bibliography for 2108771.cif.'
_cod_database_code               2108771
_cod_database_fobs_code          2108771
_publcif_datablock.id            {5770b306-16e6-459e-8418-7e60a4a1a42c}
_shelx_shelxl_version_number     2018/3
_chemical_oxdiff_formula         'Cu2 Ge Se3'
_shelx_space_group_comment
;
The symmetry employed for this shelxl refinement is uniquely defined
by the following loop, which should always be used as a source of
symmetry information in preference to the above space-group names.
They are only intended as comments.
;
_shelx_estimated_absorpt_t_max   0.048
_shelx_estimated_absorpt_t_min   0.044
_reflns_odcompleteness_completeness 100.00
_reflns_odcompleteness_iscentric 1
_reflns_odcompleteness_theta     26.32
_olex2_refinement_description
;
;
_olex2_exptl_crystal_mounting_method
'The crystal was mounted on a mylar loop with grease'
_olex2_submission_special_instructions 'No special instructions were received'
_oxdiff_exptl_absorpt_empirical_details
;
Empirical correction (ABSPACK) includes:
- Absorption correction using spherical harmonics
- Frame scaling
- Detector area scaling
;
_oxdiff_exptl_absorpt_empirical_full_max 1.543
_oxdiff_exptl_absorpt_empirical_full_min 0.669
_publcif_info_exptl_table_max_cols 5
_publcif_info_exptl_table_use_headnotes n
_publcif_funding_html
;
;
loop_
_space_group_symop_operation_xyz
'x, y, z'
'x, -y, z+1/2'
'x+1/2, y+1/2, z'
'x+1/2, -y+1/2, z+1/2'
loop_
_atom_site_label
_atom_site_type_symbol
_atom_site_fract_x
_atom_site_fract_y
_atom_site_fract_z
_atom_site_U_iso_or_equiv
_atom_site_adp_type
_atom_site_occupancy
_atom_site_site_symmetry_order
_atom_site_calc_flag
_atom_site_refinement_flags_posn
_atom_site_refinement_flags_adp
_atom_site_refinement_flags_occupancy
_atom_site_disorder_assembly
_atom_site_disorder_group
Cu1 Cu -0.0001(2) -0.08657(5) 0.49994(18) 0.0163(3) Uani 1 1 d . . . . .
Cu2 Cu 0.51489(16) -0.24677(5) 0.50463(15) 0.0152(3) Uani 1 1 d . . . . .
Ge Ge 0.52816(19) 0.08587(3) 0.52302(18) 0.00457(14) Uani 1 1 d . . . . .
Se1 Se 0.38650(10) -0.08110(3) 0.64001(9) 0.00524(19) Uani 1 1 d . . . . .
Se2 Se 0.38880(11) 0.24558(4) 0.63172(10) 0.00721(16) Uani 1 1 d . . . . .
Se3 Se 0.89215(10) 0.08425(3) 0.62468(10) 0.0066(2) Uani 1 1 d . . . . .
loop_
_atom_site_aniso_label
_atom_site_aniso_U_11
_atom_site_aniso_U_22
_atom_site_aniso_U_33
_atom_site_aniso_U_23
_atom_site_aniso_U_13
_atom_site_aniso_U_12
Cu1 0.0197(9) 0.0157(3) 0.0137(6) 0.0006(3) 0.0058(6) 0.0019(3)
Cu2 0.0146(4) 0.0176(3) 0.0126(7) 0.0013(3) 0.0034(4) -0.0014(3)
Ge 0.0041(3) 0.0067(2) 0.0023(3) -0.0003(2) 0.0001(2) -0.0005(3)
Se1 0.0054(3) 0.0071(2) 0.0021(3) 0.00054(15) -0.0005(2) -0.00096(16)
Se2 0.0072(3) 0.0082(2) 0.0059(3) -0.0005(2) 0.00160(19) 0.0019(2)
Se3 0.0041(3) 0.0090(2) 0.0061(4) 0.00026(15) 0.0006(2) 0.00028(14)
loop_
_atom_type_symbol
_atom_type_description
_atom_type_scat_dispersion_real
_atom_type_scat_dispersion_imag
_atom_type_scat_source
Cu Cu 0.3201 1.2651 'International Tables Vol C Tables 4.2.6.8 and 6.1.1.4'
Ge Ge 0.1547 1.8001 'International Tables Vol C Tables 4.2.6.8 and 6.1.1.4'
Se Se -0.0929 2.2259 'International Tables Vol C Tables 4.2.6.8 and 6.1.1.4'
loop_
_geom_angle_atom_site_label_1
_geom_angle_atom_site_label_2
_geom_angle_atom_site_label_3
_geom_angle
_geom_angle_site_symmetry_1
_geom_angle_site_symmetry_3
_geom_angle_publ_flag
Se2 Cu1 Se1 107.24(5) 3_445 . ?
Se2 Cu1 Se3 112.08(5) 3_445 2_454 ?
Se3 Cu1 Se1 104.18(5) 1_455 . ?
Se3 Cu1 Se1 109.36(6) 2_454 . ?
Se3 Cu1 Se2 113.85(6) 1_455 3_445 ?
Se3 Cu1 Se3 109.73(5) 1_455 2_454 ?
Se2 Cu2 Se1 110.86(5) 3_545 . ?
Se2 Cu2 Se1 109.92(5) 2_554 . ?
Se2 Cu2 Se2 111.11(6) 2_554 3_545 ?
Se2 Cu2 Se3 106.56(5) 3_545 3_445 ?
Se2 Cu2 Se3 108.36(4) 2_554 3_445 ?
Se3 Cu2 Se1 109.94(5) 3_445 . ?
Se1 Ge Se1 105.15(5) . 2_554 ?
Se2 Ge Se1 108.44(6) . . ?
Se2 Ge Se1 106.79(5) . 2_554 ?
Se2 Ge Se3 114.02(6) . . ?
Se3 Ge Se1 112.57(5) . . ?
Se3 Ge Se1 109.35(5) . 2_554 ?
Cu2 Se1 Cu1 107.04(4) . . ?
Cu2 Se1 Ge 108.10(4) . 2 ?
Ge Se1 Cu1 114.32(5) 2 . ?
Ge Se1 Cu1 111.85(5) . . ?
Ge Se1 Cu2 107.94(5) . . ?
Ge Se1 Ge 107.37(5) . 2 ?
Cu1 Se2 Cu2 104.75(5) 3 3_455 ?
Cu2 Se2 Cu1 109.78(5) 2 3 ?
Cu2 Se2 Cu2 111.08(6) 2 3_455 ?
Ge Se2 Cu1 110.50(5) . 3 ?
Ge Se2 Cu2 113.74(6) . 3_455 ?
Ge Se2 Cu2 107.00(5) . 2 ?
Cu1 Se3 Cu1 110.92(5) 1_655 2_655 ?
Cu1 Se3 Cu2 114.12(6) 1_655 3 ?
Cu2 Se3 Cu1 108.96(4) 3 2_655 ?
Ge Se3 Cu1 108.27(5) . 1_655 ?
Ge Se3 Cu1 104.37(6) . 2_655 ?
Ge Se3 Cu2 109.76(4) . 3 ?
loop_
_geom_bond_atom_site_label_1
_geom_bond_atom_site_label_2
_geom_bond_distance
_geom_bond_site_symmetry_2
_geom_bond_publ_flag
Cu1 Se1 2.4855(18) . ?
Cu1 Se2 2.3985(10) 3_445 ?
Cu1 Se3 2.3964(10) 1_455 ?
Cu1 Se3 2.4106(16) 2_454 ?
Cu2 Se1 2.4420(10) . ?
Cu2 Se2 2.4028(16) 3_545 ?
Cu2 Se2 2.3947(15) 2_554 ?
Cu2 Se3 2.4080(10) 3_445 ?
Ge Se1 2.4398(9) . ?
Ge Se1 2.4634(15) 2_554 ?
Ge Se2 2.3371(10) . ?
Ge Se3 2.3388(17) . ?
loop_
_refln_index_h
_refln_index_k
_refln_index_l
_refln_F_squared_meas
_refln_F_squared_sigma
0 0 1 14.77 0.78
0 0 1 21.81 0.93
0 0 2 6415.55 333.73
0 0 2 6304.64 333.88
0 0 -2 6378.1 333.76
0 0 2 6330.2 333.9
0 0 3 3.84 0.51
0 0 3 5.42 0.81
0 0 3 4.9 0.93
0 0 -3 3.69 0.56
0 0 -3 6.32 0.74
0 0 3 4.58 0.77
0 0 4 115.12 7.32
0 0 4 135.62 7.8
0 0 4 126.58 7.68
0 0 -5 0.9 0.9
0 0 5 1.8 1.31
0 0 5 2.21 1.3
0 0 6 3314.95 170.45
0 0 6 3585.48 170.56
0 0 -6 3055.8 169.89
0 0 7 0.64 2.11
0 0 -7 1.78 1.28
0 0 8 3219.63 169.93
0 0 9 -1.82 3.22
0 0 10 954.32 51.76
0 2 0 0.07 0.18
0 -2 0 0.68 0.16
0 -2 0 0.07 0.17
0 2 0 0.59 0.25
0 -2 0 0.44 0.17
0 -2 1 39.19 2.02
0 -2 1 42.02 1.94
0 -2 1 37.65 1.94
0 -2 -1 29.8 2.04
0 2 -1 27.22 1.89
0 -2 -1 33.27 2.02
0 -2 -1 32.47 1.97
0 -2 1 36.1 1.9
0 -2 1 38.67 1.93
0 2 1 33.23 1.98
0 2 1 35.7 2.07
0 -2 -2 7.66 0.87
0 -2 2 9.76 0.78
0 -2 2 13.82 0.7
0 -2 -2 10.64 0.94
0 -2 2 10.17 0.75
0 2 2 9.69 0.78
0 2 2 10.8 0.95
0 -2 2 9.35 0.79
0 2 -2 7.68 0.6
0 -2 3 265.54 12.48
0 2 3 230.88 12.59
0 -2 3 210.92 12.66
0 2 -3 222.22 12.45
0 2 3 241.84 12.88
0 -2 3 242.5 12.66
0 -2 -3 229.2 12.6
0 -2 3 235.51 12.72
0 -2 4 11.69 1.27
0 -2 -4 10.47 1.14
0 2 4 12.15 1.45
0 2 -4 9.81 0.86
0 -2 4 11.87 0.85
0 -2 5 276.15 16.8
0 2 5 318.79 17.11
0 2 -5 304.6 16.4
0 -2 -5 335.68 16.73
0 -2 -6 18.23 1.97
0 -2 6 26.12 2.77
0 2 6 20.43 2.47
0 -2 6 18.53 2.2
0 2 -6 18.18 1.5
0 -2 7 47.61 4.17
0 -2 -7 56.88 3.94
0 2 7 52.2 4.36
0 -2 7 55.11 4.55
0 -2 8 24.9 3.5
0 2 8 30.72 3.66
0 -2 -8 28.27 2.88
0 2 8 30.36 3.87
0 -2 8 31.45 4.02
0 2 9 64.23 5.7
0 -2 9 63.97 5.83
0 2 9 70.38 5.87
0 -2 9 58.6 5.36
0 -4 0 18.08 1.15
0 4 0 17.42 1.1
0 -4 0 18.54 1.12
0 -4 0 17.11 1.13
0 -4 1 11.05 0.79
0 -4 -1 13.98 1.03
0 4 -1 11.71 0.78
0 4 1 10.69 0.89
0 -4 1 10.66 0.74
0 4 -1 12.1 0.84
0 -4 -1 11.98 0.92
0 4 -1 12.3 0.7
0 -4 -1 10.99 0.87
0 -4 1 10.72 0.84
0 -4 1 12.47 0.88
0 4 -2 19.86 1.37
0 -4 2 20.24 1.33
0 -4 2 24.78 1.32
0 -4 2 20.73 1.25
0 -4 -2 23.32 1.66
0 -4 2 22.77 1.36
0 -4 -2 22.41 1.53
0 -4 2 22.77 1.51
0 4 -2 22.29 1.3
0 -4 -2 21.23 1.49
0 -4 3 213.27 11.99
0 -4 3 210.47 11.84
0 -4 3 210.39 11.92
0 -4 3 254.52 11.8
0 4 3 204.04 12.16
0 4 3 204.9 12.2
0 -4 3 217.22 11.87
0 4 4 31.85 2.41
0 -4 4 28.89 2.06
0 -4 4 27.47 2.17
0 -4 4 34.11 1.85
0 4 4 30.66 2.51
0 -4 -4 30.56 2.21
0 -4 -5 374.52 19.55
0 -4 5 334.5 19.53
0 4 5 351.2 19.84
0 4 5 381.25 19.78
0 4 6 30.85 3.17
0 -4 6 27.78 2.66
0 -4 -6 33.52 2.79
0 4 6 34.36 3.05
0 -4 -7 81.64 5.26
0 -4 7 74.14 5.26
0 4 7 82.53 5.57
0 -4 7 70.58 5.79
0 4 7 67.42 5.55
0 -4 -8 21.67 3.2
0 -4 8 23.41 3.93
0 4 8 25.13 3.59
0 4 8 19.38 3.62
0 4 9 32.75 4.68
0 -4 9 36.56 4.84
0 4 9 42.24 4.7
0 -6 0 7515.97 393.59
0 6 0 7556.28 393.55
0 6 0 7401.2 393.68
0 -6 0 7556.63 393.61
0 -6 0 7500.33 393.61
0 6 0 7509.37 393.72
0 -6 1 4.2 0.52
0 6 1 4.85 0.72
0 6 1 3.68 0.7
0 6 -1 3.72 0.56
0 -6 1 4.58 0.63
0 6 -1 3.97 0.66
0 6 -1 3.93 0.73
0 -6 -1 6.37 0.9
0 -6 -1 4.25 0.73
0 6 2 4940.79 261.41
0 6 -2 5029.68 261.17
0 -6 2 4923.94 261.14
0 6 -2 5072.06 261.06
0 -6 2 4924.65 261.17
0 -6 -2 5151.5 261.36
0 6 2 4867.13 261.45
0 6 -2 4936.38 261.19
0 -6 2 4892.98 261.24
0 -6 3 6.39 0.62
0 6 3 6.32 1.13
0 -6 3 4.73 0.61
0 -6 3 6.74 0.75
0 6 -3 5.67 0.84
0 -6 3 6.04 0.74
0 -6 4 130.41 8.1
0 6 4 159.27 8.49
0 -6 -4 152.44 8.28
0 6 5 7.48 1.73
0 6 5 11.92 2.1
0 -6 -5 8.5 1.65
0 -6 5 9.75 1.44
0 6 6 2613.27 135.35
0 -6 -6 2518.05 135.02
0 -6 6 2506.72 134.93
0 6 6 2636.99 135.16
0 6 7 3.64 2.32
0 -6 -7 8.23 2.59
0 6 7 9.54 2.98
0 -6 -8 3103.3 155.92
0 -6 8 2944.77 156.43
0 6 8 2787.96 156.05
0 6 8 2956.96 155.83
0 -6 9 2.32 3.97
0 6 9 -0.55 3.45
0 6 9 1.55 3.63
0 -8 0 1.14 0.79
0 8 0 0.6 0.76
0 8 0 2.5 0.61
0 8 0 0.32 0.74
0 8 1 73.58 4.26
0 8 -1 67.1 4.13
0 -8 1 74.32 4.03
0 -8 1 66.52 4.06
0 8 -1 69.7 4.26
0 -8 -1 64.38 4.16
0 8 1 77.62 4.17
0 8 -1 73.11 4.02
0 8 2 23.5 1.97
0 8 2 21.5 1.74
0 8 2 19.31 1.63
0 -8 2 19.89 1.3
0 8 -2 16.92 1.38
0 8 -2 17.45 1.35
0 8 -2 16.96 1.08
0 8 -2 19.24 1.66
0 -8 -2 15.95 1.55
0 -8 2 18.32 1.36
0 -8 -3 167.9 10.02
0 8 3 196.86 10.23
0 -8 3 174.05 9.71
0 8 -3 177.71 9.81
0 8 3 206.43 10.32
0 8 4 16.67 2
0 8 4 11.25 1.79
0 -8 4 13.76 1.49
0 -8 -5 142.35 8.67
0 8 5 158.19 8.91
0 8 6 4.93 2.09
0 -8 -6 4.05 1.95
0 -8 -7 11.84 2.95
0 8 7 9.13 2.73
0 8 8 25.11 4.12
0 8 8 26.47 3.71
0 8 8 19.67 3.49
0 -8 -8 21.58 3.59
0 -8 -9 70.99 6.28
0 10 0 46.49 2.84
0 10 0 43.76 3.05
0 -10 0 42.79 2.93
0 10 0 43.52 2.97
0 10 -1 27.09 1.78
0 10 1 23.53 2.12
0 10 1 23.42 1.91
0 10 -1 23.02 1.96
0 -10 1 22.1 1.9
0 10 1 24.16 2.04
0 -10 -1 24.73 2.05
0 10 -1 22.84 2.07
0 10 -2 49.81 2.75
0 10 -2 48.87 3.07
0 -10 2 44.32 3.13
0 10 -2 53.62 3.51
0 10 -2 48.48 3.16
0 10 2 55.43 3.41
0 -10 -2 56.25 3.48
0 10 2 52.97 3.53
0 10 -3 185.95 10.54
0 10 3 198.16 10.98
0 -10 -3 187.85 10.93
0 10 3 208.07 11.24
0 10 3 199.45 11.05
0 -10 -4 53.35 3.89
0 10 4 51.69 4.16
0 10 4 55.42 4.06
0 10 4 51.17 3.98
0 10 5 266.01 14.99
0 10 5 254.72 14.89
0 10 5 268 15.12
0 10 6 35.97 3.86
0 10 6 32.67 3.57
0 10 6 32.28 3.74
0 -10 -6 33.17 3.58
0 10 7 55.87 5.17
0 -10 -7 63.28 5.24
0 10 7 65.36 5.11
0 10 7 61.88 5.48
0 10 8 13.16 3.6
0 10 8 21.06 3.7
0 -10 -8 11.81 3.8
0 12 0 4681.24 245.01
0 12 0 4630.75 245.07
0 -12 0 4491.16 244.93
0 12 0 4799.31 244.74
0 12 -1 2.08 0.95
0 -12 -1 2.34 1.46
0 12 -1 2.98 1.49
0 -12 1 1.31 1.24
0 12 1 0.42 1.17
0 12 1 1.59 1.42
0 12 1 1.55 1.56
0 12 -1 1.8 1.47
0 12 -2 2677.49 137.98
0 12 2 2687.78 138.37
0 12 2 2610.24 138.09
0 12 -2 2546.38 137.8
0 12 2 2641.48 138.36
0 12 -2 2628.54 138.24
0 -12 -2 2647.32 138.22
0 -12 -3 10.85 2.11
0 12 3 9.15 1.94
0 12 3 7.58 2
0 12 4 147.48 8.71
0 12 4 140.38 8.61
0 12 4 141.14 8.8
0 -12 -4 140.15 8.64
0 12 5 15.67 2.62
0 12 5 17.33 2.96
0 12 5 16.94 3.24
0 -12 -6 1113.09 63.78
0 12 6 1215.75 63.8
0 12 6 1235.71 63.95
0 12 6 1218.23 64.02
0 12 7 8.01 3.59
0 12 7 9.97 3.66
0 12 7 10.65 3.29
0 -12 -7 12.8 3.6
0 14 0 -0.29 1.2
0 -14 0 3.13 1.74
0 14 0 1.99 1.77
0 14 0 -0.77 1.79
0 14 1 71.97 5.15
0 14 1 86.66 4.86
0 14 1 74.33 5.08
0 14 -1 68.48 4.87
0 -14 -1 68.18 4.99
0 14 -1 75.28 5.1
0 -14 1 79.2 4.93
0 14 2 16.54 2.42
0 -14 -2 15.5 2.67
0 14 2 16.68 2.53
0 14 2 16.09 2.16
0 14 -2 12.3 1.93
0 14 3 125.36 7.45
0 -14 -3 98.15 7.08
0 14 3 115.66 7
0 14 4 9.75 2.53
0 14 4 10.63 2.79
0 14 4 11.28 3.04
0 -14 -4 11 2.97
0 14 5 60.57 4.84
0 -14 -5 46.77 4.72
0 14 5 51.54 5.04
0 14 5 60.2 4.89
0 14 6 -2.02 3.54
0 14 6 -1.35 2.98
0 14 6 1.09 3.2
0 16 0 36.44 3.42
0 -16 0 35.21 3.57
0 16 0 37.51 3.56
0 16 -1 25.93 3.04
0 16 1 23.91 3.07
0 16 -1 23.18 2.83
0 16 1 24.06 3.07
0 -16 -1 18.94 2.97
0 -16 -2 43.16 4.06
0 16 2 38.48 3.88
0 16 2 48.42 4.26
0 16 3 137.21 8.67
0 16 3 140.85 8.82
0 -16 -3 124.19 8.69
0 16 3 138.45 8.34
0 -16 -4 37.99 4.38
0 16 4 40.54 4.38
0 16 4 41.63 4.06
0 16 5 168.7 10.13
0 16 5 149.68 9.96
0 18 0 1604.31 85.71
0 18 0 1625.61 85.86
0 18 -1 0.83 2.47
0 18 1 -1.02 2.86
0 18 -1 -0.34 2.61
0 18 1 1.95 2.94
0 18 2 832.92 48.47
0 -18 -2 972.83 48.69
0 18 2 902.48 48.54
-1 -1 10 48.53 5.49
-1 1 10 44.32 5.74
-1 1 10 37.88 4.77
-1 -1 9 23.09 3.6
-1 1 9 21.55 3.53
-1 -1 9 22.63 4.02
-1 1 9 30.21 4.25
-1 -1 8 326.94 19.18
-1 1 8 335.39 19.32
1 -1 -8 332.94 18.69
-1 1 8 358.96 19.49
-1 -1 8 361.95 19.5
-1 1 7 19.43 2.72
1 1 -7 20.96 1.94
-1 1 7 20.99 2.88
-1 -1 7 23.79 2.67
-1 -1 7 22.91 2.94
1 -1 -7 23.07 2.15
-1 -1 6 362.78 20.27
-1 1 6 380.19 20.42
-1 -1 6 348.95 20.42
1 -1 -6 365.81 19.99
1 1 -6 381.68 19.9
-1 1 6 378.57 20.51
-1 1 5 20.53 1.98
-1 -1 5 18.26 1.91
1 1 -5 17.52 1.5
1 -1 -5 21.64 1.83
-1 1 5 21.45 2.02
-1 -1 5 20.43 2.05
-1 1 4 61.46 3.95
-1 -1 4 67.71 3.92
-1 -1 4 60.96 3.99
1 -1 -4 64.02 3.8
1 1 -4 58.33 3.64
-1 -1 4 75.84 3.75
-1 1 4 61.41 3.93
-1 -1 3 24.47 1.42
-1 1 3 17.03 1.42
-1 1 3 20.1 1.32
1 -1 -3 17.75 1.34
-1 -1 3 17.68 1.48
1 -1 -3 16.13 1.33
-1 -1 3 18.06 1.37
-1 1 3 19.16 1.47
1 1 -3 16.68 1.29
1 1 -3 17.61 1.27
1 -1 -2 7.88 0.77
-1 1 2 5.49 0.65
-1 1 2 7.65 0.61
-1 -1 2 5.05 0.57
-1 1 2 6.34 0.71
-1 1 2 7.12 0.73
1 1 -2 7.22 0.57
-1 -1 2 6.61 0.64
1 1 -2 7.67 0.61
-1 -1 1 7.06 0.6
1 -1 -1 8.68 0.69
1 1 -1 6.28 0.49
-1 1 1 9.68 0.59
-1 1 1 9.97 0.7
-1 1 1 9.01 0.61
-1 1 1 9.34 0.61
-1 -1 1 9.06 0.5
1 1 -1 7.25 0.6
-1 -1 0 16.8 1.14
1 -1 0 26.56 1.17
-1 1 0 18.11 1.14
-1 1 0 17.73 1.15
-1 -1 0 21.29 1.18
1 -1 0 24.61 1.17
-1 1 0 16.14 1.13
1 1 1 4.42 0.54
1 1 1 5.07 0.53
-1 1 -1 4.56 0.52
-1 -1 -1 3.84 0.55
1 -1 1 4.61 0.46
-1 1 -1 4.65 0.33
1 -1 1 4.76 0.49
1 1 1 5.11 0.61
1 1 2 204.88 10.43
1 1 2 186.29 10.43
-1 -1 -2 188.3 10.24
-1 -1 -2 186.93 10.43
1 -1 2 203.46 10.42
1 -1 2 195.86 10.42
1 -1 2 191.62 10.34
1 1 2 191.21 10.46
-1 1 -2 195.03 10.14
-1 -1 -2 172.98 10.39
1 1 3 11.66 0.95
1 -1 3 13.25 1.22
-1 1 -3 11.12 1.16
-1 1 -3 12.59 0.86
-1 -1 -3 11.69 0.95
1 1 3 15.09 1.34
1 1 3 12.73 1.32
1 -1 4 88.93 5.67
1 1 4 99.51 5.78
-1 1 -4 96.93 5.27
1 1 4 94.43 5.74
-1 -1 -4 95.84 5.36
-1 1 -5 23.34 1.7
1 1 5 22.77 2.32
-1 -1 -5 22.25 1.88
1 -1 5 24.55 2.31
1 1 5 27.5 2.35
1 1 6 90.7 5.7
1 1 6 96.55 5.67
1 -1 6 83.54 5.56
-1 1 -6 75.87 4.72
-1 -1 -6 82.37 5.04
1 -1 7 18.29 2.82
1 1 7 21.65 3.07
-1 -1 -7 17.35 2.26
1 1 7 18.52 2.96
1 -1 8 356.43 19.6
1 1 8 381.16 19.7
1 1 8 316.67 19.62
1 -1 8 311.11 19.52
1 1 9 14.35 3.77
1 1 9 5.72 3.33
1 -1 9 12.55 3.69
1 -1 9 8.97 3.46
-1 3 10 1.43 3.43
-1 3 9 1141.26 63.15
-1 -3 9 1213.96 63.38
-1 3 8 1.75 2.62
1 -3 -8 2.13 2.06
-1 -3 8 0.78 2.86
-1 3 7 172.46 11.37
-1 -3 7 160.93 11.06
1 3 -7 205.91 10.66
1 -3 -7 235.73 11.36
-1 -3 7 200.41 11.66
-1 3 7 171.91 11.36
-1 -3 6 0.85 1.37
-1 -3 6 -0.31 1.87
1 3 -6 1.14 0.86
1 -3 -6 2.85 1.45
-1 3 6 4.57 1.85
-1 3 6 -0.27 1.63
-1 3 5 4839.16 260.9
-1 -3 5 4987.28 260.71
1 3 -5 4990.9 260.38
1 -3 -5 5058.14 260.67
-1 3 5 4878.28 260.9
-1 -3 4 2.62 0.78
-1 -3 4 1.96 0.84
-1 -3 4 4.54 0.82
-1 -3 4 1.78 0.3
-1 -3 4 4.32 0.78
-1 3 4 2.69 0.98
1 3 -4 1.35 0.58
-1 3 4 2.63 0.97
1 -3 -4 0.95 0.82
1 3 -3 9428.81 498.78
-1 -3 3 9558.57 498.83
-1 3 3 9337.15 499.05
-1 3 3 9495.5 499.03
-1 -3 3 9445.79 498.83
-1 -3 3 9653.96 498.78
-1 -3 3 9609.15 498.78
-1 -3 2 10.09 0.58
-1 3 2 8.35 0.88
1 -3 -2 8.27 0.82
-1 -3 2 12.07 0.64
-1 3 2 9.77 0.88
-1 -3 2 8.99 0.71
-1 3 2 9.46 0.85
1 -3 -2 11.61 0.96
1 3 -2 6.57 0.48
-1 3 2 6.98 0.78
1 3 -2 6.63 0.71
1 -3 -2 10.25 0.86
-1 3 1 5605.3 288.9
-1 3 1 5625.26 288.89
-1 -3 1 5508.11 288.81
1 -3 -1 5488.61 288.89
1 -3 -1 5532.94 288.89
-1 3 1 5389.07 288.91
1 -3 -1 5423.45 288.88
1 -3 -1 5539.53 288.9
1 3 0 14.24 0.92
-1 -3 0 17.62 0.99
1 3 0 15.36 0.92
-1 3 0 11.27 0.93
1 -3 0 14.01 0.94
-1 -3 0 16.28 0.94
-1 3 0 13.29 0.99
1 -3 0 10.87 0.88
1 3 0 14.15 0.85
1 -3 0 13.91 0.89
-1 -3 0 14.49 0.85
-1 3 0 12.45 0.87
1 -3 0 15.22 0.99
1 -3 1 113.19 6.79
-1 3 -1 120.92 6.82
1 3 1 116.97 6.87
1 -3 1 118.39 6.85
-1 -3 -1 136.66 6.91
1 -3 1 134.76 6.75
-1 -3 -1 113.08 6.88
1 -3 1 120.8 6.9
-1 3 -1 123 6.72
-1 3 -1 135.85 6.95
1 -3 1 108.25 6.82
1 -3 2 10.07 0.87
-1 3 -2 9.35 0.85
-1 -3 -2 14.36 1.1
-1 3 -2 9.3 0.9
1 -3 2 9.2 0.8
-1 -3 -2 7.46 0.82
1 3 2 10.86 0.97
1 3 3 5284.09 272.09
1 3 3 5139.3 272.19
1 -3 3 5280.11 272.05
-1 -3 -3 5096.89 271.92
1 -3 3 5137.2 271.93
-1 3 -3 5223.6 271.97
-1 -3 -4 2.31 0.87
1 3 4 3.23 1.23
1 -3 4 3.34 1.03
1 3 4 2.67 1.01
1 3 5 7113.1 364.55
1 -3 5 6845.66 364.54
1 3 5 6693.62 364.73
-1 -3 -5 7041.05 364.27
1 3 6 -0.49 1.78
1 3 6 -0.32 1.93
-1 -3 -6 0.73 1.43
1 -3 6 -0.13 1.69
-1 -3 -7 2789.55 133.23
1 -3 7 2284.44 133.38
1 3 7 2337.5 133.58
1 3 7 2621.16 133.47
1 -3 8 -0.92 2.8
1 3 8 0.42 2.98
1 3 8 -0.17 2.87
1 3 9 230.34 13.14
1 3 9 191.15 13.19
-1 5 9 27.05 4
-1 -5 9 17.18 3.98
1 -5 -9 19.17 3.4
-1 -5 8 268.18 14.82
-1 5 8 224.59 14.29
-1 5 8 239.22 14.4
1 -5 -8 262.68 14.35
1 -5 -7 8.61 2.21
-1 5 7 11.01 2.04
-1 -5 7 6.64 2.61
-1 5 7 10.75 2.62
1 -5 -6 310.15 17.81
-1 5 6 337.15 18.16
-1 -5 6 329.12 17.76
-1 -5 5 22.6 1.79
1 -5 -5 17.06 1.97
-1 5 5 21.91 2.32
-1 -5 4 90.09 5.44
-1 5 4 90.38 5.85
-1 -5 4 112.45 5.5
-1 -5 4 99.1 5.57
-1 5 3 12.39 1.3
-1 5 3 11.75 1.36
-1 -5 3 12.47 0.87
-1 -5 3 12.98 0.76
1 -5 -3 11.55 1.24
-1 -5 3 13.69 0.98
-1 -5 3 14.62 1.02
1 5 -2 18.31 1.09
-1 -5 2 15.3 1.22
1 -5 -2 21.08 1.39
-1 -5 2 14.46 0.97
1 5 -2 19.65 1.04
-1 5 2 14.87 1.36
-1 -5 2 17.68 1.27
1 5 -1 3.4 0.32
-1 5 1 2.6 0.64
-1 5 1 3.82 0.67
-1 -5 1 3.99 0.43
1 -5 -1 3.74 0.63
-1 5 1 3.79 0.55
1 5 -1 4.77 0.59
-1 -5 1 3.62 0.5
1 5 -1 4.73 0.36
1 -5 -1 4.17 0.63
-1 -5 0 54.46 3.66
-1 -5 0 58.24 3.57
1 5 0 63.62 3.59
1 5 0 74.34 3.62
1 -5 0 70.51 3.62
-1 -5 0 61.59 3.64
-1 5 0 64.62 3.62
-1 5 0 62.64 3.72
1 -5 0 69 3.71
1 -5 0 68.53 3.7
-1 5 0 57.77 3.56
1 -5 0 71.15 3.64
1 5 0 64.98 3.61
-1 5 -1 13.53 0.95
1 -5 1 13.74 0.98
-1 5 -1 13.3 1.03
1 5 1 12.81 1.03
1 -5 1 13.62 1.03
1 -5 1 13.6 0.92
1 5 1 14.72 1.12
-1 -5 -1 12.26 1.17
-1 5 -1 14.64 1.19
-1 -5 -1 13.62 1.02
1 5 1 15 1.17
-1 -5 -1 11.32 1.09
-1 5 -2 87.68 5.15
1 -5 2 92.94 5.23
1 5 2 93.87 5.44
1 -5 2 96.3 5
-1 5 -2 90.08 5.24
1 5 2 95.72 5.36
1 -5 2 95.4 5.2
-1 -5 -3 4.38 0.91
-1 5 -3 5.36 0.94
1 -5 3 3.37 0.67
1 5 3 5.15 1.01
-1 5 -3 4 0.78
1 5 4 31.93 2.56
-1 5 -4 34.48 2.33
1 -5 4 33.9 2.51
-1 -5 -4 31.46 2.37
1 5 5 23.28 2.65
-1 -5 -5 21.48 2.09
1 5 5 25.6 2.41
1 -5 5 21.93 2.14
1 5 6 153.25 8.34
1 -5 6 136.84 8.23
-1 -5 -6 122.36 8.06
1 5 6 137.26 8.62
1 5 7 27.78 3.39
-1 -5 -7 25.16 3.01
1 -5 7 28.1 3.07
1 5 7 27.38 3.68
1 5 8 317.26 19.43
1 5 8 355.25 19.03
-1 -5 -8 314.1 18.84
1 -5 8 343.74 19.69
1 5 9 8.08 4.21
1 5 9 8.08 3.56
1 -5 9 11.75 4.44
1 -7 -9 29.29 4.41
-1 7 9 28.32 4.12
-1 -7 9 29 4.77
-1 7 9 27.85 4.54
-1 -7 8 310.73 17.87
1 -7 -8 312.5 17.37
-1 7 8 287.63 17.44
-1 7 8 298.09 17.3
1 -7 -7 34.56 3.51
-1 7 7 33.71 3.52
-1 7 7 47.16 3.87
-1 7 7 36.46 3.97
1 -7 -6 306.01 17.24
-1 7 6 306.44 17.39
-1 7 6 306.33 17.35
-1 7 6 319.8 17.3
-1 7 5 33.29 3.02
-1 7 5 34.02 3.06
-1 7 5 35.61 3.07
1 -7 -5 36.24 2.97
-1 7 4 55.58 3.79
-1 -7 4 52.31 3.26
-1 7 4 58.47 3.84
-1 -7 3 31.65 1.97
-1 7 3 32.25 2.57
1 -7 -3 34.02 2.39
1 7 -2 10.78 0.82
1 7 -2 11.28 0.99
-1 7 2 14.33 1.29
-1 7 2 12.88 1.36
-1 -7 2 13.86 0.86
1 -7 -2 11.3 1.29
1 7 -1 45.17 2.5
-1 7 1 41.74 2.72
1 7 -1 41.77 2.71
-1 -7 1 52.1 2.65
1 7 -1 42.73 2.72
1 -7 -1 44.41 2.78
-1 -7 1 42.47 2.76
1 7 -1 45.07 2.47
-1 -7 0 105.85 5.38
1 7 0 97.52 5.31
1 7 0 96.76 5.19
1 7 0 103.99 5.23
-1 7 0 93.39 5.25
-1 -7 0 80.33 5.31
1 -7 0 89.82 5.26
-1 7 0 94.56 5.41
-1 7 -1 45.69 2.83
-1 -7 -1 46.5 2.92
-1 7 -1 46.12 2.67
-1 7 -1 51.01 2.81
1 -7 1 43.71 2.71
1 7 1 46.87 2.86
1 7 1 43.65 2.81
-1 -7 -2 227.24 12.35
-1 7 -2 222.09 12.08
1 7 2 241.94 12.36
-1 7 -2 228.55 12.23
1 -7 2 215.38 12.04
1 7 2 239.6 12.42
-1 7 -3 34.34 2.24
1 7 3 37.45 2.58
-1 7 -3 32.94 2.42
1 7 3 38.68 2.79
1 7 4 90.19 5.72
-1 -7 -4 94.43 5.68
-1 7 -4 91.94 5.68
-1 7 -4 96.38 5.41
1 7 4 98.74 6.08
1 -7 5 23.94 2.29
-1 -7 -5 22.67 2.29
1 7 5 20.83 2.4
1 -7 6 27.69 3.01
1 7 6 31.55 3.04
-1 -7 -6 29.7 2.88
-1 -7 -7 22.12 3.15
1 7 7 18.68 3.73
1 7 7 17.77 2.93
-1 -7 -8 237.63 14.79
1 7 8 269.27 14.86
1 7 8 249.31 15.3
1 -9 -9 731.11 40.12
-1 9 8 8.49 3.12
-1 9 8 9.12 3.71
-1 9 8 15.89 3.49
1 -9 -8 11.36 3.56
-1 9 7 145.41 9.1
-1 9 7 137.88 9.3
1 -9 -7 149.55 9.18
-1 9 7 144.14 9.04
-1 9 6 4.49 2.26
1 -9 -6 6.62 2.41
-1 9 6 3.38 2.13
-1 9 5 3057.03 159.57
-1 9 5 2997.21 159.6
-1 9 4 0.61 1.54
1 -9 -4 2.03 1.57
-1 9 4 0.87 1.58
-1 9 4 1.11 1.51
-1 9 3 6352.89 328.87
1 9 -3 6238.48 328.29
-1 9 3 6259.66 328.77
1 -9 -3 6277.98 328.75
-1 9 3 6485.97 328.91
1 9 -3 6166.37 328.37
-1 -9 3 6312.17 328.57
-1 9 2 5.15 1.44
-1 9 2 3.8 1.26
1 -9 -2 4.39 1.14
1 9 -2 3.98 0.61
-1 -9 2 4.19 1.07
-1 9 2 5.53 1.14
1 9 -2 3.12 0.83
1 9 -1 3973.26 209.73
-1 9 1 3965.73 210.2
1 9 -1 3933.12 210.05
1 9 -1 4126.23 209.78
-1 -9 1 4048.82 210.07
1 9 -1 3905.96 210.03
-1 9 1 4109.96 210.02
1 -9 -1 3840.24 210.06
-1 -9 0 9.95 1.31
-1 9 0 11.81 1.44
1 9 0 14.5 1.17
-1 9 0 14.37 1.43
1 9 0 11.19 1.4
1 9 0 12.52 1.06
-1 9 0 11.06 1.19
1 9 0 11.11 1.29
1 -9 0 12.13 1.27
-1 9 -1 130.2 7.06
1 9 1 115.41 7
-1 9 -1 123.27 6.91
-1 9 -1 128.16 7.22
-1 9 -1 131.49 6.78
1 -9 1 110.1 6.88
-1 -9 -1 130 7.14
1 9 1 121.77 6.99
-1 9 -2 16.79 1.32
1 -9 2 19.48 1.41
-1 9 -2 16.84 1.88
-1 9 -2 17.49 1.6
1 9 2 16.4 1.65
1 9 2 18.82 1.78
-1 -9 -2 19.06 1.85
-1 9 -3 3166.72 165.05
1 9 3 3319.19 165.55
1 9 3 3168.26 165.48
-1 9 -3 3022.65 165.27
-1 -9 -3 3094.82 165.44
-1 9 -4 11.05 1.71
1 9 4 9.71 1.8
1 9 4 12.01 2.09
1 9 5 4338.44 225.5
1 9 5 4245.14 225.2
-1 -9 -5 4282.04 225.21
1 9 6 -2.34 2.87
1 9 6 3.95 2.29
-1 -9 -6 0.68 2.3
-1 -9 -7 1753.28 87.79
1 9 7 1484.86 87.82
1 9 7 1689.66 87.57
-1 -9 -8 2.5 3.47
1 9 8 0.48 3.23
-1 11 8 124.37 8.47
1 -11 -8 117.81 8.59
-1 11 8 125.86 8.37
-1 11 7 2.65 3.22
-1 11 7 3.92 3.05
1 -11 -7 5.98 3.04
-1 11 7 6.04 3.16
-1 11 6 206.3 11.83
-1 11 6 196.79 11.78
-1 11 6 187.28 11.69
-1 11 5 23.94 3.02
-1 11 5 23.62 2.94
1 -11 -5 17.92 2.84
-1 11 5 19.19 2.9
-1 11 4 100.32 6.52
-1 11 4 121.14 6.82
1 -11 -4 93.35 6.42
-1 11 4 107.54 6.77
1 -11 -3 3.96 1.68
-1 11 3 4.05 1.7
-1 -11 3 6.37 1.33
-1 11 3 5.9 1.76
-1 11 3 9.07 1.72
-1 -11 2 39.27 2.96
1 11 -2 45.23 2.56
-1 11 2 44.74 3.34
1 11 -2 42.91 2.84
-1 11 2 37.55 2.95
1 -11 -2 42.42 3.14
-1 -11 1 6.9 1.4
-1 11 1 5.25 1.46
1 11 -1 7.6 0.96
1 11 -1 8.77 1.27
-1 11 1 7.68 1.36
1 11 -1 7.99 1.38
1 -11 -1 7.28 1.44
-1 11 1 5.1 1.51
1 11 0 63.94 3.67
-1 11 0 62.18 3.83
1 11 0 65.39 4.05
-1 11 0 60.8 4.09
1 11 0 59.3 3.95
1 -11 0 63.79 3.97
-1 -11 0 59.11 4.06
-1 11 0 57.87 4.14
1 11 1 22.19 2.27
-1 11 -1 19.21 1.52
-1 11 -1 18.53 1.73
1 11 1 21.1 1.8
1 11 1 20.12 1.96
-1 11 -1 24.05 2.28
1 -11 1 17.91 1.78
-1 -11 -1 21.57 2.13
-1 11 -1 21.27 2.02
-1 11 -2 30.77 2.02
-1 -11 -2 32.05 2.71
1 11 2 32.28 2.6
1 11 2 28.29 2.54
-1 11 -2 33.3 2.38
1 11 2 32.9 2.95
-1 11 -2 29.06 2.71
1 11 3 1.41 1.67
-1 -11 -3 1.21 1.71
-1 11 -3 3.43 1.29
1 11 3 3.27 1.8
-1 11 -4 4.46 1.65
1 11 4 6.68 2.15
1 11 4 8.39 2.01
1 11 5 13.44 2.43
-1 -11 -5 12.98 2.71
1 11 5 12.78 2.84
1 11 6 136.26 7.84
1 11 6 126.14 8.11
-1 -11 -7 30.11 4
1 11 7 25.79 3.81
1 11 7 25.4 4.16
1 11 7 18.33 3.98
-1 13 7 38.82 4.54
1 -13 -7 40.92 4.79
-1 13 7 34.28 4.51
-1 13 7 33.87 4.23
-1 13 6 191.03 11.61
-1 13 6 187.61 11.57
-1 13 6 189.28 11.5
-1 13 5 40.63 4.08
-1 13 5 35.78 3.79
1 -13 -5 41.52 4.08
-1 13 5 37.98 3.92
-1 13 4 46.05 4.16
-1 13 4 37.6 3.68
1 -13 -4 50.62 4.09
-1 13 4 45.23 3.96
-1 13 3 39.38 3.18
-1 13 3 44.42 3.75
1 13 -3 35.1 2.65
1 -13 -3 38.48 3.33
1 13 -2 21.13 2
-1 13 2 19 2.18
-1 13 2 15.89 2.44
-1 13 2 19.01 2.62
-1 -13 2 21.14 2.19
1 -13 -2 20 2.42
-1 13 1 53.03 3.9
1 13 -1 47.54 3.57
-1 13 1 46.24 3.8
1 -13 -1 44.88 3.62
-1 13 1 55.41 3.53
-1 -13 1 51.9 3.68
1 13 -1 48.36 3.5
-1 13 0 132.74 8.09
-1 13 0 135.4 7.96
1 13 0 143.12 7.55
1 13 0 131.46 7.86
1 13 0 125.91 7.85
-1 13 0 127.61 7.66
-1 -13 0 134.41 7.97
1 -13 0 133.53 7.83
1 13 1 60.69 3.7
-1 13 -1 54.52 3.64
-1 -13 -1 59.15 4.1
-1 13 -1 54.72 3.9
1 13 1 55.4 4.11
1 13 1 53.91 3.97
-1 13 -1 51.04 4.08
-1 13 -2 189.6 10.45
-1 -13 -2 190.54 10.89
1 13 2 181.36 10.7
-1 13 -2 174.38 10.86
1 13 2 186.88 10.57
1 13 2 197.92 11.02
1 13 3 44.45 3.61
1 13 3 41.2 3.51
-1 -13 -3 41.02 3.75
1 13 4 64.76 4.67
1 13 4 56.54 5.05
-1 -13 -4 57.52 4.88
1 13 4 62.88 4.69
1 13 5 25.56 3.2
1 13 5 23.16 3.86
1 13 5 21.93 3.51
1 13 6 14.59 3.4
1 13 6 14.3 3.02
-1 -13 -6 8.61 3.49
1 13 6 12.32 3.62
1 13 7 16.84 3.46
-1 15 6 6.97 3.43
-1 15 6 5.18 3.56
-1 15 5 1123.75 64.69
-1 15 5 1215.59 64.66
-1 15 5 1251.93 64.96
1 -15 -5 1265.57 64.94
1 -15 -4 2.44 2.89
-1 15 4 -3 3.17
-1 15 4 -1.03 2.5
-1 15 4 0.69 2.71
-1 15 3 2503.96 134.78
-1 15 3 2636.38 135.24
1 -15 -3 2556 135.08
1 -15 -2 0.86 2.32
-1 15 2 1.76 2.52
1 15 -2 1.92 1.62
-1 15 2 1.78 2.07
-1 15 2 3.55 2.29
-1 -15 1 1700.64 80.95
-1 15 1 1503.69 80.98
-1 15 1 1630.73 81.22
1 15 -1 1416.61 80.75
-1 15 1 1579.38 80.66
1 -15 -1 1412.35 80.83
1 15 -1 1480.84 80.72
-1 -15 0 11.74 2.42
-1 15 0 9.41 2.52
-1 15 0 13.96 2.02
-1 15 0 10.88 2.26
1 15 0 8.27 2.12
1 15 0 10.13 2.23
-1 15 -1 103.53 6.89
-1 -15 -1 116.56 6.98
1 15 1 100.91 6.73
-1 15 -1 94.96 6.54
1 15 1 110.29 6.67
-1 -15 -2 15.28 2.93
1 15 2 12.59 2.88
1 15 2 18.68 2.67
1 15 2 19.5 2.41
1 15 3 1234.1 64.72
1 15 3 1208.08 64.72
-1 -15 -3 1234.61 65.02
1 15 3 1185.88 65
1 15 4 12.85 2.95
1 15 4 12.09 3.03
-1 -15 -4 13.32 3.47
1 15 5 1765.63 92.95
-1 -15 -5 1760.66 93.11
1 15 5 1720.17 93.2
-1 17 4 72.87 6.21
-1 17 4 74.02 5.66
-1 17 3 3.86 2.9
1 -17 -3 4.2 3.17
-1 17 3 1.69 3.25
-1 17 3 -0.56 2.9
-1 17 2 42.12 4.46
-1 17 2 33.85 4
1 17 -1 10.16 2.57
1 17 -1 7.51 2.37
-1 17 1 6.34 2.69
-1 17 1 8.49 2.9
-1 17 0 31.3 3.75
1 17 0 37.06 3.62
-1 -17 0 34.44 3.84
-1 17 0 32.89 3.6
-1 -17 -1 17.57 3.44
-1 17 -1 12.67 3.05
1 17 1 18.6 3.22
-1 -17 -2 13.85 3.47
1 17 2 5.33 2.69
-1 -17 -3 -0.19 3.57
1 17 3 1.09 3.01
-2 0 10 126.25 9.07
-2 0 9 -2.56 2.73
-2 0 9 -0.42 3.33
2 0 -8 2539.39 132.21
-2 0 8 2484.85 132.9
-2 0 8 2487.84 132.66
-2 0 7 0.77 1.88
2 0 -7 -0.35 1.53
-2 0 7 -1.4 1.84
2 0 -6 7262.29 380.34
-2 0 6 7002.14 380.76
-2 0 6 7456.28 380.62
-2 0 5 1.19 1.11
-2 0 5 1.06 1.15
2 0 -5 0.61 0.84
-2 0 5 0.93 0.56
2 0 -4 5203.34 279
-2 0 4 5573.6 279.23
-2 0 4 5278.36 278.79
-2 0 4 5381.99 279.07
-2 0 3 7.87 0.97
2 0 -3 7 0.95
-2 0 3 5.84 0.57
2 0 -3 8.8 0.82
-2 0 3 8.23 0.91
-2 0 3 6.45 0.77
-2 0 2 106.06 5.85
2 0 -2 105 5.71
-2 0 2 100.33 5.78
2 0 -2 107.44 5.78
2 0 -2 123.93 5.94
2 0 -2 113.96 5.91
-2 0 2 103.47 5.92
-2 0 1 12.03 0.89
2 0 -1 12.09 0.75
-2 0 1 10.88 0.76
2 0 -1 10.12 0.85
-2 0 1 12.17 0.73
2 0 -1 9.13 0.72
-2 0 0 6084.28 292.82
-2 0 0 6077.8 292.83
2 0 0 6117.88 292.82
-2 0 0 5870.68 292.73
2 0 0 6405.52 292.75
2 0 0 6236.96 292.81
2 0 1 7.62 0.73
-2 0 -1 5.48 0.73
-2 0 -1 7.38 0.83
-2 0 -1 8.62 0.71
2 0 1 8.87 0.76
2 0 1 7.2 0.65
2 0 2 9999 521.4
-2 0 -2 9927.35 521.16
2 0 3 1.76 0.8
-2 0 -3 1.58 0.52
2 0 4 5015.15 269.37
-2 0 -4 5178.81 268.9
-2 0 -4 5114.94 269.35
2 0 5 1.4 1.69
-2 0 -5 -0.49 0.89
2 0 5 0.48 1.63
2 0 6 330.23 18.29
2 0 6 325.2 18.43
2 0 7 -0.18 2.73
2 0 7 -0.64 2.63
2 0 8 1187.08 64.38
2 0 8 1226.04 64.75
2 0 9 1.46 4.03
2 0 9 -0.4 3.8
-2 -2 10 4.66 3.78
-2 2 10 7.84 3.58
-2 2 10 13.97 4.33
-2 2 9 332.05 18.16
2 -2 -9 307.84 17.36
-2 2 9 297.04 17.71
-2 -2 9 309.74 18.07
2 2 -8 15.21 1.87
-2 -2 8 14.32 2.53
-2 2 8 15.23 2.76
-2 -2 8 9.55 2.84
2 -2 -8 13.71 2.26
-2 2 8 11.89 2.89
-2 2 7 103.44 6.34
-2 -2 7 94.22 6.26
2 2 -7 88.65 5.46
-2 -2 7 100.14 5.97
-2 2 7 99.25 6.13
2 -2 -7 82.96 5.7
2 2 -6 27.81 2.07
-2 2 6 27.77 2.75
-2 -2 6 28.82 2.68
-2 -2 6 28.94 2.5
2 -2 -6 24.23 2.26
-2 2 6 27.74 2.61
-2 2 6 26.68 2.09
2 2 -5 17.17 1.44
-2 2 5 17.28 1.88
-2 -2 5 14.63 1.79
-2 -2 5 16.92 1.65
-2 2 5 14.69 1.65
-2 2 5 16.4 1.44
2 -2 -5 18.51 1.69
-2 2 4 16.39 1.53
-2 -2 4 17.29 1.61
2 2 -4 16.87 1.32
-2 2 4 20.03 1.63
-2 -2 4 17.35 1.4
-2 2 4 17.17 1.34
2 -2 -4 16.03 1.52
2 2 -4 14.88 1.32
-2 -2 3 69.43 3.46
2 2 -3 48.13 3.35
-2 -2 3 56.02 3.52
-2 -2 3 62.84 3.32
-2 2 3 58.79 3.5
2 2 -3 52.15 3.28
-2 2 3 67.04 3.57
-2 2 3 60.72 3.37
-2 -2 2 4.34 0.55
2 -2 -2 3.64 0.73
-2 -2 2 5.41 0.64
-2 2 2 6.31 0.8
-2 -2 2 3.85 0.34
-2 2 2 5.58 0.64
2 2 -2 3.52 0.37
-2 2 2 4.44 0.59
-2 2 2 5.45 0.58
2 -2 -2 3.24 0.48
2 2 -1 8.91 0.79
-2 -2 1 6.69 0.59
-2 2 1 7.49 0.69
2 -2 -1 9.76 0.79
-2 2 1 7.72 0.67
-2 -2 1 7.97 0.79
-2 -2 1 7.83 0.5
-2 -2 1 9.62 0.57
2 -2 -1 7.35 0.65
2 2 -1 9.41 0.56
2 2 0 0.39 0.29
-2 2 0 1.21 0.4
2 2 0 1.18 0.3
-2 -2 0 1.39 0.46
2 -2 0 1.1 0.38
2 -2 0 1.11 0.35
-2 2 0 1.24 0.41
-2 -2 0 1 0.45
-2 2 0 0.7 0.35
2 -2 0 1.37 0.36
-2 -2 -1 77.19 5.04
2 -2 1 105.3 4.85
2 2 1 96.87 4.93
2 2 1 93.66 5.03
2 -2 1 96.81 5.01
2 -2 1 89.13 4.96
-2 2 -1 78.15 4.81
-2 2 -1 74.91 4.96
2 -2 1 92.82 4.96
-2 2 -2 6.72 0.49
-2 -2 -2 5.83 0.76
-2 -2 -2 7.37 0.98
2 2 2 8.12 0.88
-2 2 -2 6.69 0.49
-2 2 -2 5.73 0.83
2 2 3 181.34 9.27
-2 2 -3 166.72 8.78
-2 2 -3 151.3 9.23
-2 -2 -3 167.34 9.38
2 -2 3 174.33 9.31
2 2 3 190.57 9.46
-2 -2 -3 165.24 9.05
-2 2 -3 160.23 8.79
-2 2 -4 21.61 2.03
-2 2 -4 20.99 1.31
2 2 4 27.03 2.06
-2 2 -4 22.49 1.33
2 -2 4 23.18 2.12
2 2 4 22.43 2.24
-2 -2 -4 19.85 1.66
-2 2 -5 384.94 20.76
2 -2 5 423.84 21.68
2 2 5 407.28 21.73
2 2 5 416.18 21.54
-2 -2 -5 393.75 21.13
2 -2 6 11.78 2.53
2 2 6 16.16 2.75
-2 -2 -6 16.32 1.9
2 2 6 17.31 2.47
2 -2 7 329.38 19.17
2 2 7 353.18 19.06
2 -2 7 329.93 19.16
2 2 7 338.21 19.36
2 -2 8 15.55 3.78
2 2 8 13.91 3.35
2 2 8 13.25 4
2 -2 8 13.14 3.46
2 2 9 60.31 5.59
2 -2 9 54.33 5.94
2 2 9 58.67 6.15
-2 4 10 20.47 4.38
-2 -4 10 21.55 4.56
-2 4 10 19.45 3.97
2 -4 -9 278.15 16.59
-2 -4 9 290.3 17.2
-2 4 9 304.24 17.06
-2 4 9 302.61 17.19
2 -4 -8 15.72 2.63
-2 -4 8 14.08 3.15
-2 4 8 19.12 3.21
-2 4 8 19.09 3.27
2 4 -7 89.55 5.12
-2 4 7 80.14 5.28
-2 -4 7 79.26 5.91
-2 4 7 87.09 5.9
2 -4 -7 83.62 5.62
-2 4 7 85.16 5.8
-2 -4 6 28.8 2.9
2 -4 -6 25.13 2.7
-2 4 6 26.3 2.72
2 4 -6 27.86 2.2
-2 -4 6 28.4 2.39
-2 4 6 28.04 2.74
-2 4 6 36.2 2.5
2 4 -5 30.97 2.16
-2 4 5 27.96 2.53
-2 4 5 31.12 2.59
-2 4 5 29.91 2.34
-2 -4 5 29.56 2.19
2 -4 -5 34.43 2.57
2 4 -4 37.81 2.59
-2 4 4 40.88 2.92
-2 -4 4 37.21 2.5
-2 -4 4 44.43 2.53
-2 4 4 44.26 2.81
-2 4 4 44.77 2.94
2 -4 -3 106.46 5.93
2 4 -3 92.78 5.75
-2 -4 3 108.75 5.51
-2 4 3 105.73 5.96
-2 4 3 96.2 5.8
-2 4 3 98.37 5.91
-2 -4 3 101.73 5.52
-2 -4 2 34.18 2.04
-2 -4 2 42.93 2.39
-2 4 2 41.24 2.37
-2 4 2 38.44 2.37
-2 -4 2 38.13 2.17
-2 4 2 37.7 2.36
2 -4 -2 38.34 2.37
-2 -4 1 119.3 6.82
-2 4 1 128.59 6.92
2 4 -1 129.62 6.72
-2 -4 1 121.9 6.71
2 -4 -1 148.35 7.02
2 4 -1 123.64 6.75
-2 4 1 124.03 6.88
-2 4 1 122 6.94
-2 -4 1 141.72 7.04
-2 4 1 130.74 6.97
2 4 -1 124.45 6.69
2 4 0 19.38 1.31
2 -4 0 19.41 1.35
2 -4 0 24.24 1.46
-2 -4 0 20.65 1.22
2 4 0 20.1 1.19
-2 4 0 21.73 1.47
2 4 0 18.01 1.34
-2 -4 0 22.39 1.48
2 4 0 20.19 1.34
-2 4 0 20.3 1.3
2 4 1 142.41 7.84
-2 -4 -1 144.01 8.08
-2 -4 -1 137.3 7.87
-2 4 -1 142.96 7.89
-2 4 -1 130.33 7.95
2 4 1 138.88 8
2 -4 1 169.31 7.78
-2 4 -1 139.55 7.71
-2 4 -2 12.58 1.17
2 4 2 14.42 1.18
2 4 2 14.05 1.36
-2 4 -2 12.55 1.19
-2 -4 -2 11.96 1.16
2 4 3 76.52 3.99
-2 4 -3 59.41 3.94
-2 4 -3 61.15 4.05
-2 -4 -3 60.26 3.87
-2 4 -4 14.12 1.62
2 4 4 16.53 1.69
-2 -4 -4 14.31 1.52
2 -4 4 14.86 1.88
2 -4 5 323.68 17.72
2 4 5 333.6 17.64
2 4 5 329.43 18.04
-2 -4 -5 304.24 17.43
2 -4 6 21.12 2.64
2 4 6 17.53 3.04
-2 -4 -6 13.99 2.18
2 4 6 19.88 2.55
2 -4 7 329.08 20.14
2 4 7 365.24 19.99
2 4 7 344.37 20.43
-2 -4 -7 381.99 19.82
2 -4 8 22.4 3.81
2 4 8 17.99 4.16
2 -4 8 19.39 4
2 4 8 21.88 3.69
2 -6 -9 3.45 3.02
-2 6 9 5.94 3.43
-2 -6 9 2.07 3.28
-2 -6 8 1871.68 105.98
2 -6 -8 2084.73 105.76
-2 6 8 2001.99 105.87
2 -6 -7 1.03 2.17
-2 6 7 -1.67 1.92
-2 -6 7 -0.19 2.33
-2 6 7 -1.94 2.5
-2 6 7 0.65 2.44
2 -6 -6 5904.17 308.57
-2 6 6 5865.55 308.68
-2 6 6 5875.06 308.44
-2 6 6 5852.54 308.66
-2 6 5 3.72 1.65
-2 6 5 5.53 1.67
-2 6 5 5.35 1.56
-2 6 4 4408.8 231.75
2 -6 -4 4324.52 231.7
-2 6 4 4454.18 231.81
-2 -6 4 4397.75 231.19
-2 6 4 4540.99 231.75
2 6 -3 8.46 0.65
2 -6 -3 10.19 1.26
-2 6 3 7.57 1.13
-2 6 3 8.73 1.33
-2 6 3 8.31 1.16
-2 6 2 89.97 5.37
2 -6 -2 106.97 5.43
-2 6 2 88.39 5.32
-2 -6 2 87.1 5.09
2 6 -1 10.55 0.78
2 -6 -1 12.86 1.17
-2 -6 1 12.07 0.87
-2 6 1 11.24 1.12
2 6 -1 11.2 0.89
2 6 -1 11.49 0.74
-2 6 1 12.2 1.18
-2 -6 0 4967.25 261.54
-2 6 0 4941.37 261.8
2 6 0 5113.46 261.54
-2 6 0 4989.21 261.7
-2 -6 0 5013.46 261.63
2 6 0 5025.02 261.59
2 6 0 4952.22 261.63
2 -6 0 4961.4 261.67
-2 6 0 4905.24 261.58
-2 6 -1 7.54 0.86
-2 -6 -1 6.87 1.09
2 6 1 6.99 0.8
-2 6 -1 10.7 1.2
2 6 1 9.46 1.13
-2 6 -1 7.71 0.72
-2 -6 -1 8.15 0.86
-2 6 -1 7.68 0.98
2 -6 1 8.39 0.85
-2 6 -2 7219.46 376.04
2 -6 2 7173.26 375.73
-2 6 -2 7225.53 376.13
2 6 2 7160.95 376.31
2 6 2 7095.78 376.08
-2 -6 -3 2.94 1.12
-2 6 -3 2.6 0.98
2 6 3 1.49 0.93
-2 6 -3 2.62 1.2
2 6 3 0.66 1.3
2 6 4 3883.14 203.99
-2 6 -4 3934.45 203.94
2 6 4 3682.74 204.34
-2 -6 -4 3980 203.99
-2 6 -4 3853.33 204.19
2 -6 5 2.96 1.67
-2 -6 -5 3.54 1.59
2 6 5 3.48 1.68
2 6 6 291.73 16.72
-2 -6 -6 270.09 16.61
2 -6 7 5.6 2.93
-2 -6 -7 5.7 2.63
2 6 7 9.4 3.57
2 6 7 4.43 2.65
2 6 8 987.91 53.17
2 6 8 998.22 53.83
-2 -8 9 194.05 13.44
2 -8 -9 214.71 13.31
-2 8 9 235.56 13.58
-2 8 9 226.51 13.54
-2 -8 8 18.91 3.51
2 -8 -8 20.92 3.66
-2 8 8 17.92 3.61
-2 8 8 18.08 3.76
-2 8 7 96.84 6.41
2 -8 -7 86.12 6.54
-2 8 7 104 6.81
2 -8 -6 14.99 2.58
-2 8 6 19.18 2.74
-2 8 5 7.15 1.84
-2 8 5 8.09 1.93
2 -8 -4 0.31 1.57
-2 8 4 2.42 1.36
2 8 -3 35.51 2.19
-2 8 3 34.41 2.75
2 -8 -3 42.92 2.83
-2 8 2 12.3 1.53
2 -8 -2 12 1.47
-2 8 2 12.89 1.39
2 8 -2 12.58 1.14
2 8 -1 6.48 0.62
2 8 -1 5.14 0.56
2 -8 -1 5 1.05
-2 8 1 7.66 1.18
2 8 -1 4.8 0.78
-2 8 1 9.48 1.14
2 8 0 8.44 0.92
-2 -8 0 7.99 0.9
2 8 0 7.23 0.9
-2 8 0 9.28 1.15
2 -8 0 8.82 1.13
-2 -8 0 9.21 1.07
-2 8 0 8.65 1.18
2 8 0 8.3 0.93
-2 8 0 8.8 1.32
-2 -8 0 11.27 1.35
2 8 1 38.06 2.32
-2 8 -1 31.82 2.4
-2 8 -1 31.75 2.6
-2 8 -1 32.37 2.26
-2 -8 -1 33.44 2.52
2 8 1 39.52 2.49
2 -8 1 41 2.36
2 8 2 8.35 1.41
-2 -8 -2 4.06 1.29
-2 8 -2 4.97 1.18
-2 8 -2 5.22 0.97
2 8 2 5.65 1.06
-2 8 -2 5.22 1.35
-2 8 -3 179.7 10.22
2 8 3 193.26 10.39
-2 8 -3 180.22 10.41
-2 -8 -3 180.62 10.46
2 8 3 198.54 10.71
2 8 4 30.9 2.51
-2 8 -4 31.14 2.36
-2 8 -4 24.57 2.68
2 8 4 31.19 2.98
-2 -8 -4 24.69 2.53
2 8 5 347.38 18.07
2 8 5 327.52 18.56
2 -8 5 332.96 18.24
-2 -8 -5 303.72 18.06
-2 -8 -6 17.67 2.75
2 8 6 13.66 3.35
2 8 6 15.41 2.54
2 8 7 231.11 13.03
2 8 7 212.35 13.67
-2 -8 -7 224.25 13.24
2 8 8 3.34 3.17
2 -10 -8 22.15 4.19
-2 10 8 32.31 4.32
-2 10 8 25.07 4.16
-2 10 8 24.36 3.56
-2 10 7 56.21 5.04
-2 10 7 58.94 4.98
2 -10 -7 46.43 4.69
-2 10 7 56.76 4.63
-2 10 6 28.73 3.18
-2 10 6 29.84 3.43
-2 10 5 27.15 3.11
-2 10 5 23.82 2.92
2 -10 -5 30.14 3.09
-2 10 5 25.78 2.93
-2 10 4 46.34 3.52
2 -10 -4 51.2 3.76
-2 10 4 46.29 3.79
-2 10 4 43.98 3.59
2 10 -3 134.86 7.62
-2 10 3 140.07 8.29
2 -10 -3 144.67 8.21
-2 10 3 142.02 8.1
2 10 -2 62.69 3.89
-2 10 2 63.07 4.11
-2 10 2 64.98 4.39
-2 -10 2 66.71 4.24
2 -10 -2 66.96 4.28
2 10 -1 211.4 10.98
-2 10 1 207.04 11.36
2 10 -1 198.22 11.22
2 10 -1 208.62 11.4
-2 -10 1 205.17 11.56
2 -10 -1 193.31 11.4
2 10 0 52.78 3.05
-2 10 0 50.21 3.46
-2 10 0 51.67 3.33
2 10 0 49.14 3.16
-2 -10 0 48.32 3.46
2 -10 0 47.47 3.28
-2 10 -1 101.82 5.93
2 10 1 98.53 6
-2 10 -1 109.72 6.15
-2 -10 -1 100.6 6.3
2 -10 1 104.63 6.07
2 10 1 115.31 6.14
-2 10 -2 30.45 2.19
2 10 2 31.4 2.38
-2 10 -2 31.24 2.5
-2 -10 -2 28.27 2.71
2 10 2 31.77 2.54
-2 10 -3 6.56 1.35
2 10 3 10.56 2.01
2 10 3 12.37 1.68
-2 10 -3 11.6 1.75
2 10 4 22.76 2.41
2 10 4 20.31 2.71
-2 -10 -4 23.75 2.74
-2 10 -4 21.86 2.57
2 10 5 193.74 10.76
-2 -10 -5 169.6 10.88
2 10 5 192.67 11.17
2 10 6 18.22 3.5
-2 -10 -6 19.63 3.18
2 10 6 25.14 3
2 10 7 267.22 14.53
2 10 7 235.96 15.02
-2 -10 -7 243.5 14.82
-2 12 8 970.16 52.29
-2 12 7 2.14 3.24
-2 12 7 1.3 3.25
-2 12 7 -1.9 2.83
-2 12 6 2708.68 140.74
-2 12 6 2601.26 140.52
2 -12 -6 2704.85 140.71
-2 12 6 2641.26 140.6
2 -12 -5 7.24 2.68
-2 12 5 8.21 2.48
-2 12 5 5.52 2.61
-2 12 5 8.43 2.46
-2 12 4 2195.86 103.88
-2 12 4 1836.93 103.37
2 -12 -4 1857.45 103.51
-2 12 4 2018.61 103.64
2 -12 -3 14.6 2.28
-2 -12 3 14.32 2.04
2 12 -3 13.46 1.45
-2 12 3 15.05 2.48
-2 12 3 11.9 2.38
-2 12 3 15.94 2.1
-2 12 2 113.41 6.85
-2 12 2 113.09 7.08
-2 -12 2 119.62 6.94
2 -12 -2 126.86 7.06
2 12 -2 105.32 6.52
-2 12 1 14.87 1.81
2 -12 -1 19.11 2.09
2 12 -1 16.11 1.69
-2 12 1 16.58 2.27
-2 12 1 15.61 2.16
-2 -12 1 19.52 2.32
2 12 -1 14.13 1.86
2 12 0 2494.56 132.67
-2 12 0 2403.75 132.94
-2 12 0 2549.52 133.28
2 12 0 2582.4 132.9
-2 12 0 2455.54 133.14
-2 -12 0 2670.75 133.2
2 -12 0 2483.85 133.04
2 12 0 2659.35 133.2
-2 12 -1 7.85 1.24
-2 -12 -1 8.96 2.05
2 12 1 10.11 2.13
2 12 1 8.26 1.56
2 12 1 9.51 1.45
-2 12 -1 10.15 2.05
-2 12 -1 7.05 1.51
-2 12 -2 3994.48 226.33
-2 12 -2 4319.7 226.06
2 12 2 4300.87 226.08
-2 -12 -2 4464.57 226.34
2 12 2 4413.8 226.14
-2 -12 -3 2.87 2.25
2 12 3 -0.49 2.09
2 12 3 2.22 1.66
-2 12 -3 2.77 1.7
2 12 4 1926 101.79
-2 12 -4 1917.43 101.9
2 12 4 1942.8 102.09
-2 -12 -5 4.39 2.92
2 12 5 5.92 2.83
2 12 5 5.94 2.36
-2 -12 -6 198.75 11.54
2 12 6 172.45 11.4
2 -14 -6 12.39 3.63
-2 14 6 12.13 3.54
-2 14 6 12.15 3.46
-2 14 6 7.86 3.26
-2 14 5 11.91 3.28
2 -14 -5 17.84 3.5
-2 14 5 17.38 3.67
-2 14 5 14.75 3
2 -14 -4 2.87 2.69
-2 14 4 2.08 2.53
-2 14 4 3.94 3
-2 14 4 -0.14 2.33
-2 14 3 17.56 2.61
2 -14 -3 23.26 3.06
-2 14 3 20.44 3.1
-2 14 2 16.18 2.3
-2 -14 2 19.12 2.56
2 -14 -2 13.13 2.47
-2 14 2 14.13 2.65
-2 14 2 15.11 2.79
2 14 -2 15.87 1.94
2 14 -1 6.86 1.76
-2 14 1 12.47 2.03
2 -14 -1 9.74 2.22
-2 14 1 14.15 2.4
-2 -14 1 16.18 2.48
-2 14 1 18.09 2.66
2 14 -1 12.38 1.84
-2 -14 0 8.5 2.46
2 14 0 8.95 2.13
-2 14 0 10.52 1.8
-2 14 0 5.87 2.33
2 14 0 7.25 1.73
-2 14 0 10.49 2.24
2 14 1 32.53 2.85
-2 14 -1 30.39 2.83
-2 14 -1 29.02 3.22
-2 -14 -1 36.67 3.49
2 14 1 35.79 3.38
-2 14 -2 1.09 1.72
-2 -14 -2 2.64 2.52
2 14 2 3.29 1.9
2 14 2 3.31 1.9
2 14 2 0.49 2.3
2 14 3 145.55 8.55
-2 -14 -3 130.27 8.81
2 14 3 141.93 9.03
-2 -14 -4 21.96 3.79
2 14 4 19.08 3.24
2 14 5 175.15 10.58
-2 -14 -5 166.86 10.78
2 14 5 171.79 11.09
-2 16 5 22.06 3.47
-2 16 5 17.15 4.04
2 -16 -4 40.84 4.35
-2 16 4 28.16 3.75
-2 16 4 35.83 4.36
-2 16 4 34.79 4.4
-2 16 3 117.72 7.51
-2 16 3 124.08 8.21
2 -16 -3 109.04 7.77
-2 16 3 111.11 7.71
-2 16 2 50.44 4
-2 16 2 51.81 4.72
-2 16 2 42.68 4.34
2 -16 -2 43.48 4.27
-2 16 1 147.86 9.01
-2 16 1 169.6 9.74
-2 -16 1 173.15 9.5
2 16 -1 138.15 8.91
-2 16 1 134.75 9.16
-2 16 0 40.64 4.18
2 16 0 38.8 3.72
-2 16 -1 58.19 4.97
-2 -16 -1 63.04 5.17
2 16 1 56 4.86
-2 -16 -2 28.73 3.96
2 16 2 27.78 3.51
-2 -16 -3 4.7 3.39
2 16 3 7.45 3.26
-2 18 2 81.74 6.84
-2 18 1 7.13 2.99
-2 18 1 9.82 3.79
2 18 0 836.11 46.15
-2 18 0 796.77 46.53
-2 -18 0 943.84 46.6
2 18 1 7.67 3.21
-3 -1 10 71.3 6.47
-3 1 10 70.3 6.32
3 -1 -9 20.34 2.88
-3 -1 9 23.52 3.82
-3 1 9 23.79 3.88
-3 1 9 23.14 3.47
3 1 -8 30.11 2.89
3 -1 -8 35.82 3.03
-3 -1 8 34 3.64
-3 1 8 36.5 3.79
-3 1 8 34.68 3.42
-3 -1 8 30.02 3.18
3 -1 -7 45.83 3.27
3 1 -7 36.15 2.95
-3 -1 7 41.77 3.27
-3 -1 7 41.12 3.56
-3 1 7 42.13 3.66
-3 1 7 34.51 3.32
3 -1 -6 199.85 11.43
3 1 -6 195.89 11.29
-3 -1 6 192.95 11.64
-3 1 6 202.94 11.72
-3 -1 6 219.84 11.49
-3 1 6 224.25 11.64
3 -1 -5 28.34 2.22
-3 1 5 29.91 2.42
3 1 -5 28.18 2.15
-3 -1 5 26.97 2.31
-3 1 5 26.88 2.24
-3 1 5 28.56 1.89
-3 -1 5 29.63 2.15
-3 -1 4 178.13 9.86
-3 1 4 176.9 9.9
3 1 -4 179.39 9.8
-3 1 4 179.62 9.81
3 1 -4 180.6 9.72
-3 -1 4 179.75 9.69
-3 1 4 173.75 9.61
3 -1 -3 12.68 1.25
-3 1 3 13.88 1.13
-3 1 3 14.43 1.16
3 1 -3 10.96 0.83
-3 -1 3 14.31 1.14
3 -1 -3 10.76 0.88
-3 -1 3 13.06 0.97
3 1 -3 12.12 0.95
3 1 -2 172.15 9
-3 -1 2 167.04 8.8
3 -1 -2 181.7 9.04
3 1 -2 160.5 8.77
-3 1 2 169.92 8.88
3 1 -2 167.15 8.85
3 -1 -2 163.17 8.9
-3 -1 2 156.23 8.79
-3 1 2 160.08 8.88
3 -1 -2 157.06 8.8
3 -1 -2 164.01 8.83
3 1 -1 2.33 0.45
3 -1 -1 3.33 0.52
-3 -1 1 3.39 0.52
-3 1 1 4.39 0.6
3 -1 -1 3.75 0.65
-3 1 1 3.54 0.55
3 1 -1 3.62 0.72
3 1 -1 3.26 0.39
3 -1 -1 3.09 0.48
-3 -1 1 3.74 0.56
-3 1 1 4.2 0.51
-3 -1 1 4.23 0.34
-3 1 1 5.3 0.68
3 -1 0 164.9 7.62
-3 1 0 141.3 7.52
-3 1 0 140.77 7.57
-3 -1 0 151.02 7.67
3 1 0 130.51 7.4
-3 1 0 139.8 7.61
3 1 0 141.5 7.56
3 -1 0 146.22 7.53
-3 1 0 137.29 7.6
-3 -1 0 128.97 7.59
-3 -1 0 127.81 7.61
-3 1 -1 1.27 0.7
-3 -1 -1 0.24 0.65
-3 1 -1 1.61 0.52
-3 -1 -1 2.06 0.69
3 -1 1 2.3 0.52
3 1 1 3.26 0.47
-3 -1 -1 1.53 0.75
-3 1 -1 2.22 0.73
-3 1 -2 239.44 12.08
-3 -1 -2 215.37 12.4
-3 1 -2 212.7 12.39
-3 -1 -3 6.56 0.9
-3 1 -3 5.05 0.71
-3 -1 -3 4.04 1.32
-3 1 -3 6.86 0.78
-3 1 -3 6.48 1.39
3 -1 3 8.33 1.45
3 1 3 8.68 1.36
3 1 4 365.06 19.19
-3 1 -4 328.38 19.27
3 -1 4 356.39 19.29
3 1 4 389.98 19.46
-3 -1 -4 343.61 18.78
-3 1 -4 347.72 18.64
-3 -1 -5 11.4 1.48
3 1 5 11.96 2.42
3 1 5 14.21 2.18
3 -1 5 16.45 2.58
3 -1 6 114.5 7.47
3 -1 6 128.63 7.83
3 1 6 114.7 7.69
3 1 6 112.09 7.3
3 -1 7 20.37 3.88
3 1 7 25.98 4.08
3 -1 7 21.62 3.53
3 1 7 25 3.33
3 -1 8 55.48 5.75
3 1 8 65.55 6.06
3 1 8 54.53 5.29
3 -1 8 55.41 5.24
-3 3 10 2.67 3.76
-3 -3 10 0.93 3.41
-3 3 10 2.1 3.4
3 -3 -9 2912.7 149.75
-3 -3 9 2652.52 150.14
-3 3 9 2797.16 150.18
-3 3 9 2957.08 150.12
3 -3 -8 2.37 2.06
3 3 -8 0.54 1.85
-3 -3 8 -0.57 2.66
-3 3 8 -3.35 2.73
-3 3 8 -0.49 2.51
3 3 -7 2624.52 133.82
-3 3 7 2629.23 134.37
-3 -3 7 2376.63 134.29
-3 3 7 2755.01 134.37
3 -3 -7 2364.14 133.98
-3 -3 6 3.07 1.2
3 -3 -6 2.3 1.45
3 3 -6 1.98 1.26
-3 -3 6 2.22 1.54
-3 3 6 0.5 1.59
-3 3 6 1.29 1.57
-3 3 6 3.02 1.11
-3 -3 5 96.19 6.15
-3 3 5 93.82 6.11
3 3 -5 117.65 5.94
3 3 -5 126.83 5.82
-3 -3 5 87.87 5.69
-3 3 5 92.25 5.81
3 -3 -5 111.28 6.06
-3 3 5 96.01 6.1
3 3 -4 3.27 0.69
3 3 -4 3.65 0.91
-3 -3 4 3.17 0.87
-3 3 4 2.51 0.98
-3 3 4 2.6 0.79
-3 3 4 1.99 0.88
-3 -3 4 2.75 0.56
-3 3 3 5523.7 285.69
3 3 -3 5486.73 285.66
-3 -3 3 5351.89 285.35
-3 -3 3 5310.63 285.6
-3 3 3 5418.92 285.69
3 3 -3 5512.68 285.39
-3 3 3 5472.34 285.61
3 -3 -3 5698.11 285.72
3 3 -2 3.72 0.41
-3 -3 2 3.51 0.56
-3 -3 2 5.32 0.53
3 -3 -2 6.08 0.94
-3 3 2 3.96 0.76
-3 -3 2 4.31 0.47
-3 3 2 3.52 0.68
-3 -3 1 9192.05 486.63
-3 3 1 9240.65 486.68
3 -3 -1 9396.61 486.65
3 3 -1 9342.99 486.51
-3 3 1 9249.81 486.67
3 -3 -1 9145.5 486.71
3 3 -1 9369.65 486.57
-3 -3 1 9363.06 486.6
-3 3 1 9146.84 486.74
-3 -3 0 4.12 0.74
3 3 0 2.68 0.57
-3 3 0 4.92 0.74
3 -3 0 3.41 0.64
-3 3 0 3.95 0.69
-3 3 0 2.54 0.66
3 3 0 3.46 0.65
-3 -3 -1 5627.28 285.81
3 -3 1 5412.61 285.45
3 3 1 5293.97 285.46
-3 3 -1 5639.82 285.64
-3 3 -1 5454.85 285.62
3 3 1 5429.6 285.69
-3 3 -1 5615.79 285.66
-3 3 -1 5370.3 285.49
-3 -3 -2 3.05 0.89
-3 -3 -2 1.92 1.06
-3 3 -2 2.47 0.48
3 3 2 2.06 0.71
-3 3 -2 1.46 0.84
3 3 2 2.04 0.95
-3 3 -3 267.92 14.8
3 3 3 262.98 14.54
-3 -3 -3 279.46 14.97
-3 -3 -3 267.91 14.53
-3 3 -4 2.09 1.39
3 3 4 3.89 1.34
-3 -3 -4 3.55 1.12
3 -3 4 3.18 1.77
3 3 5 2749.9 137.07
3 -3 5 2548.26 137.25
3 3 5 2812.31 137.5
-3 3 -5 2532.05 137.23
-3 -3 -5 2475.03 136.8
3 -3 6 6.45 2.76
3 3 6 -0.54 3.01
-3 -3 -6 2.05 1.7
3 3 6 2.41 2.19
3 -3 7 2737.49 155.5
3 3 7 2902.54 155.19
3 -3 7 2994.1 155.67
3 3 7 3212.36 155.9
3 3 8 1.67 4.22
3 -3 8 -0.22 3.72
3 -3 8 3.79 3.54
3 3 8 1.77 3.14
-3 -5 10 62.45 5.79
3 -5 -10 56.6 5.21
-3 5 10 59.09 5.72
-3 5 9 22.37 3.85
3 -5 -9 20.29 3.44
-3 -5 9 21.82 3.7
-3 5 9 26.9 3.89
3 -5 -8 10.6 2.53
-3 -5 8 13.77 2.98
-3 5 8 12.11 3.14
-3 5 8 10.26 3
3 -5 -7 13.69 2.54
3 5 -7 16.76 2.01
-3 -5 7 17.55 2.6
-3 5 7 18.11 2.85
-3 5 7 21.06 2.86
-3 5 7 19.69 2.23
3 5 -6 132.75 7.46
-3 -5 6 124.63 7.93
-3 5 6 133.5 7.97
-3 5 6 129.49 7.59
3 -5 -6 121.33 7.79
-3 5 6 134.91 7.95
-3 -5 5 5.7 1.37
3 5 -5 3.32 1.12
-3 5 5 6.2 1.59
-3 5 5 4.45 1.51
-3 5 5 5.35 1.33
-3 5 4 106.4 6.18
-3 5 4 113.36 6.32
3 -5 -4 108.81 6.33
-3 -5 4 99.73 5.67
-3 5 4 109.13 6.14
-3 5 3 10.87 1.23
-3 5 3 11.22 1.21
-3 -5 3 10.29 0.77
3 -5 -3 8.56 1.29
-3 -5 3 8.66 0.92
-3 5 3 11.13 1.24
-3 5 2 110 5.69
-3 5 2 95.36 5.62
-3 -5 2 92.54 5.28
-3 -5 2 90.95 5.38
-3 5 2 101.42 5.65
3 -5 -2 117.47 5.82
3 5 -1 0.86 0.45
-3 -5 1 0.62 0.64
-3 5 1 0.86 0.61
3 -5 -1 0.87 0.83
-3 -5 1 1.3 0.24
-3 5 1 1.72 0.69
3 5 -1 0.89 0.49
3 5 -1 0.67 0.35
-3 -5 0 199.57 11.64
3 -5 0 238.05 11.53
-3 5 0 195.38 11.48
3 5 0 213.77 11.21
-3 5 0 218.55 11.61
3 5 0 203.11 11.5
3 5 0 233.29 11.44
-3 5 0 195.38 11.38
-3 5 -1 11.78 1.23
3 5 1 11.57 0.94
-3 -5 -1 11.27 1.44
-3 5 -1 13.23 1.32
3 -5 1 13.63 0.96
3 5 1 13.69 1.35
-3 5 -1 10.63 0.9
-3 5 -2 266.54 14.75
3 5 2 269.26 14.6
-3 5 -2 273.23 14.84
3 5 2 294.92 14.99
-3 -5 -2 282.68 14.84
-3 5 -2 267.98 14.31
-3 -5 -2 288.45 15.11
3 5 3 20.51 1.69
-3 5 -3 18.31 1.9
3 5 3 17.34 2.11
-3 -5 -3 18.14 1.77
-3 5 -3 14.87 1.89
3 5 4 264.02 13.32
-3 5 -4 224.62 13.43
3 5 4 247.66 13.76
-3 -5 -4 234.4 13.28
-3 5 -4 225.45 13.63
3 5 5 8.72 2.67
-3 -5 -5 5.6 1.74
-3 5 -5 5.88 1.96
3 5 5 6.82 1.89
3 -5 5 4.85 2.23
3 5 6 68.75 4.66
3 -5 6 61.35 4.96
-3 -5 -6 57.31 4.44
3 -5 7 21.37 3.89
3 5 7 26.74 4.55
3 5 7 21.99 3.38
3 -5 8 74.98 7.03
3 5 8 84.18 6.32
3 -5 8 86.21 6.92
3 5 8 94.46 7.47
3 -7 -9 17.11 3.45
-3 -7 9 14.69 3.6
-3 7 9 17.41 3.98
-3 7 9 17.64 3.91
-3 -7 8 38.92 4.09
-3 7 8 33.11 4.17
3 -7 -8 39.4 3.96
-3 7 8 44.72 4.27
-3 -7 7 42.95 4.01
-3 7 7 44.57 4.11
-3 7 7 43.34 3.61
3 -7 -7 42.53 4.01
-3 7 7 37.09 3.92
-3 7 6 206.42 12.51
-3 7 6 225.62 12.69
-3 7 6 220.15 12.38
-3 7 5 61.21 4.41
3 -7 -5 66.77 4.54
-3 7 5 62.86 4.6
-3 7 5 67.24 4.44
-3 7 4 259.36 14.23
3 -7 -4 269.73 14.25
-3 7 4 233.3 14.12
-3 7 4 258.07 14.16
-3 7 3 48.48 3.28
-3 7 3 47.33 3.24
3 7 -3 45.53 2.74
3 -7 -3 49.8 3.32
-3 7 3 45.73 3.24
-3 7 2 165.39 9.57
3 -7 -2 180.78 9.62
-3 7 2 166.87 9.61
3 7 -1 23.06 1.55
-3 7 1 26.34 2
-3 7 1 23.62 1.99
3 7 -1 23.2 1.46
3 7 -1 26.3 1.54
3 -7 -1 23.12 1.96
-3 7 0 21.37 1.9
-3 7 0 25.63 1.88
3 7 0 25.57 1.6
-3 7 0 26.59 2.11
3 7 0 29.53 1.78
3 7 0 28.21 1.91
3 -7 0 31.41 2.03
-3 7 -1 18.35 1.58
3 7 1 14.1 1.22
-3 7 -1 17.51 1.64
-3 7 -1 18.12 1.81
3 -7 1 18.99 1.36
3 7 1 17.68 1.7
-3 7 -1 17.89 1.24
-3 7 -2 137.54 7.73
3 7 2 141.97 7.6
-3 7 -2 143.98 7.89
3 7 2 132.98 7.94
-3 -7 -2 123.06 7.82
-3 7 -3 13.83 1.78
-3 -7 -3 15.94 1.89
3 7 3 19.56 2.22
-3 7 -3 12.7 1.94
3 7 3 15.67 1.6
3 7 4 328.03 17.1
-3 7 -4 304.65 17.26
3 7 4 323.15 17.69
-3 7 -4 294.21 17.45
-3 -7 -4 309.9 17.25
-3 7 -5 16.25 2.37
-3 -7 -5 13.6 2.36
3 7 5 18.58 3.23
3 7 5 17.62 2.26
3 -7 5 17.1 2.84
3 7 6 114.36 6.85
3 -7 6 100.48 7.24
3 7 6 112.15 7.65
-3 -7 -6 105.06 7.01
-3 -7 -7 17.6 3.32
3 7 7 12.9 3.91
3 7 7 16.24 3.04
-3 9 9 1774.01 94.21
3 -9 -9 1760.85 94.09
3 -9 -8 4.23 3.32
-3 -9 8 5.55 3.07
-3 9 8 7.64 3.5
-3 -9 7 1492.69 83.03
-3 9 7 1512.31 82.86
-3 9 7 1615.81 83.13
-3 9 7 1645.99 82.8
3 -9 -7 1506.95 82.92
-3 9 6 10.61 2.58
3 -9 -6 12.02 2.87
-3 9 6 11.02 2.52
-3 9 6 9.57 2.52
-3 9 5 118.88 7.2
-3 9 5 94.48 6.84
-3 9 5 105.54 6.94
3 -9 -5 126.47 7.2
-3 9 4 10.13 2.04
3 -9 -4 9.37 2.01
-3 9 4 9.75 2.02
-3 9 3 3517.97 184.29
3 9 -3 3528.52 183.7
3 -9 -3 3457.35 184.2
-3 9 3 3463.09 184.28
-3 9 2 5.08 1.4
3 -9 -2 2.13 1.39
-3 9 2 3.04 1.52
-3 9 2 4.64 1.5
-3 9 1 6181.36 320.31
-3 9 1 6111.12 320.47
3 9 -1 6062.52 319.96
3 9 -1 6130.31 319.86
3 -9 -1 6028.97 320.36
-3 9 0 0.74 0.98
-3 -9 0 1.13 1.38
3 -9 0 2.45 1.22
3 9 0 1.09 0.85
-3 9 0 0.54 1.1
3 9 0 1.44 0.69
-3 9 0 0.9 1.3
3 9 1 3524.62 190.98
-3 9 -1 3674.24 191.28
-3 9 -1 3762.75 191.47
-3 9 -1 3636.83 191.11
-3 -9 -1 3773.27 191.43
3 9 1 3624.56 191.24
3 9 2 9.92 1.82
-3 9 -2 9.65 1.66
-3 9 -2 10.47 1.51
3 9 2 8.49 1.25
-3 9 -3 226.39 12.82
3 9 3 222.73 12.69
-3 9 -3 253.27 13.14
-3 -9 -3 236.29 13.09
3 9 3 224.91 13.17
-3 9 -4 13.85 2.13
-3 -9 -4 12.27 2.39
3 9 4 16.45 2.77
-3 9 -4 14.8 2.47
3 9 4 16.28 1.98
3 -9 5 1570.24 80.46
3 9 5 1527.12 79.98
3 9 5 1543.85 80.65
-3 -9 -5 1431.12 80.22
-3 -9 -6 12.26 2.97
3 9 6 11.65 3.56
3 9 6 8.62 2.48
3 9 7 1859.01 97.66
-3 -9 -7 1809.45 97.23
3 -11 -8 4.59 3.68
-3 11 8 4.93 3.97
-3 11 8 1.73 3.25
-3 11 8 4.08 3.31
-3 11 7 7.59 3.27
-3 11 7 2.26 2.97
-3 11 6 57.15 4.77
3 -11 -6 49.96 4.82
3 -11 -5 7.56 2.59
-3 11 5 5.45 2.2
-3 11 5 2.57 2.37
-3 11 4 68.16 4.7
3 -11 -4 56.89 4.69
-3 11 4 72.4 4.96
-3 11 3 14.02 2.4
-3 11 3 16.73 2.11
3 -11 -3 11.7 2.14
3 11 -3 9.97 1.22
-3 11 2 76.88 4.94
-3 -11 2 77.08 5.16
3 11 -2 77.64 4.7
3 -11 -2 79.36 5.11
-3 11 2 75.33 5.26
-3 11 1 0.73 1.69
-3 11 1 -0.48 1.45
3 -11 -1 1.85 1.5
-3 11 1 0.63 1.74
3 11 -1 0.79 0.9
-3 -11 1 -0.99 1.95
-3 11 0 145.92 9.35
-3 11 0 148.29 9.52
-3 11 0 164.6 9.9
3 11 0 176.78 9.31
-3 -11 0 179.51 9.91
3 -11 0 190.25 9.76
3 11 0 185.67 9.32
-3 11 -1 16.85 1.72
-3 -11 -1 15.06 2.36
3 11 1 19.19 1.65
-3 11 -1 9.43 2.21
-3 11 -1 11.73 1.89
3 11 1 20.35 1.87
-3 11 -2 212.36 11.6
3 11 2 214.11 11.52
-3 11 -2 206.6 11.83
-3 -11 -2 201.74 11.96
3 11 2 207.17 11.8
3 11 3 18.61 2.6
-3 11 -3 16.63 2.39
3 11 3 21.17 2.07
-3 11 -4 96.17 6.49
-3 -11 -4 90.69 6.44
3 11 4 105.96 6.64
-3 -11 -5 -0.93 2.76
3 11 5 1.9 2.92
-3 -11 -6 18.05 3.76
3 11 6 22.99 3.91
3 -13 -7 24.43 4.43
-3 13 7 30.62 4.36
-3 13 7 28.51 4.15
-3 13 7 36.26 4.35
-3 13 6 148.72 9.77
-3 13 6 157.77 10.23
3 -13 -6 168.03 10.22
-3 13 6 154.48 10.03
-3 13 5 49.2 4.42
-3 13 5 63.12 5.13
3 -13 -5 47.22 4.76
-3 13 5 56.38 4.89
-3 13 4 186.37 11.6
3 -13 -4 192.41 11.82
-3 13 4 197.25 11.94
3 -13 -3 46.59 4.22
-3 13 3 53.54 4.16
-3 13 3 50.02 4.46
-3 13 3 45.78 4.24
-3 -13 3 59.89 4.3
-3 13 2 93.07 6.12
-3 -13 2 109.46 6.57
3 -13 -2 101.53 6.44
3 13 -2 95.64 5.93
-3 13 1 37.46 3.11
-3 13 1 35.23 3.41
-3 -13 1 43.45 3.62
3 13 -1 33.73 3.02
3 -13 -1 30.11 3.08
-3 -13 0 0.42 2.12
-3 13 0 1.27 1.42
-3 13 0 1.89 1.63
3 13 0 -0.13 2
-3 13 -1 30.9 2.87
-3 -13 -1 31.26 3.35
-3 13 -2 101.29 6.68
-3 -13 -2 114.38 7.27
3 13 2 111.62 6.74
-3 13 -3 24.31 2.93
-3 -13 -3 18.36 3.43
3 13 3 24.27 3.01
-3 -13 -4 194.65 11.65
3 13 4 189.3 11.41
-3 -13 -5 20.95 3.8
3 13 5 18.44 3.51
-3 15 5 68.64 5.68
-3 15 5 78 6.36
3 -15 -5 78.92 6.21
-3 15 5 69.25 5.96
3 -15 -4 9.11 3.25
-3 15 4 8.88 3.03
-3 15 4 5.49 3
-3 15 4 7.53 3.42
-3 15 3 1260.58 70.95
-3 15 3 1445.69 71.68
3 -15 -3 1343.87 71.21
-3 -15 2 7.49 2.91
-3 15 2 5.02 2.35
3 -15 -2 3.63 2.36
-3 15 2 2.57 2.9
-3 15 2 2.4 2.6
-3 15 1 2545.67 143.09
-3 15 1 2720.81 143.58
-3 -15 1 3024.47 143.55
3 15 -1 2670.15 143.11
-3 -15 0 0.33 2.83
-3 15 0 -0.62 2.08
-3 15 0 -0.9 2.73
3 15 0 0.86 2.36
-3 15 -1 1409.87 79.35
-3 15 -1 1469.8 79.81
-3 -15 -1 1672.66 79.91
3 15 1 1481.26 79.72
-3 -15 -2 9.8 3.32
3 15 2 8.2 3.17
-3 -15 -3 132.03 8.72
3 15 3 128.32 8.81
-3 17 4 34.3 4.08
-3 17 3 12.18 3.01
-3 17 3 11.38 4.13
-3 17 2 41.61 4.23
-3 17 2 52.26 5.13
-3 17 2 44.99 4.54
-3 -17 1 0.74 3.52
-3 17 1 2.93 2.48
-3 17 1 2.64 3.44
-3 17 0 87.27 7.35
-3 -17 0 109.93 7.47
3 17 0 104.8 6.98
-3 -17 -1 12.48 3.78
-3 17 -1 10.31 3.47
3 17 1 14.47 3.27
-4 0 10 951.6 51.62
4 0 -9 0.23 2.25
-4 0 9 0.4 3.09
4 0 -8 111.99 6.63
-4 0 8 96.44 7.12
4 0 -7 0.87 1.65
-4 0 7 -2.16 1.83
-4 0 7 0.85 1.58
-4 0 6 3503.01 195.56
-4 0 6 3807.98 195.84
4 0 -6 3902.39 195.65
4 0 -5 -0.8 1.26
-4 0 5 1.27 1.15
-4 0 5 1.38 0.95
-4 0 4 8131.31 419.17
-4 0 4 8031.84 419.28
4 0 -4 7909.73 419
4 0 -3 1.35 0.53
-4 0 3 1.07 0.66
4 0 -3 1.82 0.96
4 0 -3 2.81 0.84
-4 0 3 1.1 0.64
-4 0 2 5580.87 290.67
4 0 -2 5384.79 290.78
4 0 -2 5516.04 290.62
-4 0 2 5635.54 290.64
-4 0 2 5556.92 290.56
-4 0 1 2.15 0.67
-4 0 1 2 0.67
4 0 -1 0.88 0.81
4 0 -1 1.65 0.43
-4 0 1 1.22 0.43
-4 0 0 178.11 9.26
4 0 0 156.73 9
-4 0 0 173.92 9.24
-4 0 -1 1.15 0.84
-4 0 -1 1.39 0.9
4 0 1 0.76 0.57
-4 0 -2 3778.23 205.46
-4 0 -2 4063.42 205.57
-4 0 -3 -0.05 0.86
4 0 3 1.17 1.61
-4 0 -4 5513.9 300.42
4 0 4 5866.02 300.32
-4 0 -4 5731.16 299.74
4 0 5 -1.4 2.43
-4 0 -5 2.65 2.39
4 0 5 -0.25 2.09
4 0 6 2064.07 115.99
4 0 6 2381.37 116.48
4 0 7 -6.01 4.01
4 0 7 -0.65 2.96
4 0 8 276.81 16.07
4 -2 -10 29.42 3.75
-4 -2 10 27.3 4.2
-4 2 10 29.52 4.59
-4 2 9 186.47 11.28
4 -2 -9 176.63 10.96
4 2 -9 200.44 10.95
-4 -2 9 185.28 11.64
-4 2 9 187.55 11.67
4 -2 -8 13.4 2.45
4 2 -8 14.89 2.26
-4 -2 8 18.33 2.86
-4 2 8 14.99 2.95
-4 2 8 14.4 2.68
-4 2 7 250.85 14.01
-4 -2 7 247.15 14.17
-4 2 7 238.57 14.12
4 -2 -7 257.47 13.94
4 2 -7 243.98 13.74
4 -2 -6 12.62 1.95
4 2 -6 8.72 1.57
-4 -2 6 10.98 1.84
-4 2 6 9.43 1.88
-4 2 6 13.63 1.77
-4 -2 6 8.81 1.28
4 2 -5 162.43 8.59
-4 2 5 153.44 8.61
-4 -2 5 142.23 8.26
-4 -2 5 149.41 8.61
-4 2 5 151.17 8.65
-4 2 4 13.66 1.42
-4 -2 4 13.84 1.1
-4 -2 4 13.63 1.29
-4 2 4 12.27 1.38
4 -2 -4 11.95 1.52
4 2 -4 10.3 1.4
4 2 -4 11.67 1.09
4 2 -4 9.2 0.82
4 -2 -3 140.57 7.26
4 2 -3 133.79 6.86
-4 -2 3 121.2 6.95
-4 -2 3 115.45 6.88
-4 -2 3 127.63 6.88
-4 2 3 118 7.04
-4 2 3 134.21 7.11
-4 -2 2 1.76 0.65
-4 2 2 2.35 0.76
4 -2 -2 0.61 0.72
4 2 -2 0.12 0.79
-4 -2 2 1.99 0.34
-4 2 2 2.29 0.63
4 2 -2 0.5 0.47
-4 -2 2 2.6 0.6
-4 2 1 69.14 3.94
-4 -2 1 65.77 3.89
4 -2 -1 72.4 3.96
4 2 -1 70.68 3.82
4 -2 -1 60.04 3.81
-4 2 1 62.65 3.91
-4 2 1 67.76 3.86
-4 -2 1 66.08 3.87
-4 2 0 0.8 0.73
-4 2 0 3.39 0.86
-4 -2 0 2.54 0.83
4 -2 0 3.53 0.75
4 2 0 1.89 0.32
-4 2 0 1.2 0.62
-4 -2 0 1.11 0.8
-4 2 -1 165.99 8.12
-4 -2 -1 138.58 8.31
4 2 1 144.4 7.92
-4 2 -1 146.88 8.27
-4 -2 -1 146.38 8.41
-4 2 -2 1.07 1.11
-4 -2 -2 2.34 1.34
-4 2 -2 2.52 0.83
4 2 2 3.43 0.92
-4 2 -2 1.02 1.16
4 2 2 3.92 1.3
-4 2 -3 143.12 8.67
-4 -2 -3 145.43 8.76
4 2 3 168.21 8.42
-4 -2 -3 145.92 8.28
-4 2 -3 143.29 7.99
-4 2 -3 144.85 8.77
-4 2 -4 13.98 2.34
-4 -2 -4 14.91 2.71
4 2 4 17.9 2.01
-4 -2 -4 14.88 1.8
4 -2 4 20.38 2.54
-4 2 -5 128.33 9.22
4 2 5 154.36 8.99
4 -2 5 167.77 9.41
4 2 5 176.76 9.62
-4 -2 -5 142.98 8.62
4 2 6 37.55 4.32
4 2 6 30.82 3.3
4 -2 6 26.54 3.97
4 -2 7 250.88 16.01
4 2 7 284.75 15.83
4 -2 7 279.28 16.5
4 2 7 295.59 16.59
4 2 8 15.05 3.68
4 -4 -10 28.24 3.97
-4 -4 10 26.24 4.29
-4 4 10 29.58 4.65
-4 4 10 32.34 4.37
4 -4 -9 229.38 12.9
-4 4 9 205.05 12.92
-4 -4 9 209.33 13.03
-4 4 9 219.76 13.25
-4 4 8 38.14 3.96
4 -4 -8 34.91 3.52
4 4 -8 40.03 3.34
-4 -4 8 40.85 3.88
-4 4 8 39.06 3.95
4 -4 -7 277.92 16.47
4 4 -7 320.59 16.39
-4 -4 7 302.78 16.79
-4 4 7 300.24 16.79
-4 4 7 278.4 16.62
4 -4 -6 28.11 2.66
-4 4 6 30.27 2.64
4 4 -6 26.36 2.48
-4 -4 6 26.84 2.58
-4 4 6 26.99 2.72
-4 4 6 27.4 2.29
-4 4 5 173.62 9.79
4 4 -5 182.22 9.65
-4 -4 5 165.82 9.65
-4 4 5 162.23 9.77
-4 4 5 169.44 9.54
4 -4 -5 167.86 9.76
4 -4 -4 17.67 1.82
-4 -4 4 18.81 1.39
-4 4 4 21.22 1.89
4 4 -4 19.07 1.76
-4 -4 4 15.76 1.54
-4 4 4 16.19 1.77
-4 -4 4 20.47 1.2
4 4 -4 17.41 1.25
4 4 -4 15.94 1.07
-4 4 4 18.75 1.65
-4 -4 3 58.66 3.42
-4 4 3 63.72 3.73
-4 -4 3 60.72 3.39
4 -4 -3 68.15 3.83
-4 4 3 53.57 3.59
-4 -4 3 56.71 3.25
4 4 -3 56.97 3.23
-4 -4 2 14.31 1.22
4 4 -2 13.19 1
-4 4 2 15.41 1.39
-4 4 2 16.84 1.41
-4 -4 2 15.31 1.13
4 -4 -2 16.5 1.49
4 -4 -1 22.3 1.73
-4 -4 1 20.86 1.66
-4 4 1 21.57 1.71
4 4 -1 23.64 1.46
-4 4 1 22.33 1.71
-4 -4 0 7.02 1.18
4 -4 0 8.26 0.93
-4 4 0 12.12 1.2
4 4 0 6.75 1.02
-4 4 0 9.22 1.16
-4 4 -1 228.16 12.68
-4 -4 -1 229.51 12.93
4 -4 1 241.91 12.49
4 4 1 251.81 12.39
4 4 1 227.43 12.32
-4 4 -1 215.98 12.67
-4 4 -1 214.31 12.71
4 4 1 238.53 12.75
-4 4 -1 225.28 12.49
4 4 2 12.12 1.66
-4 4 -2 9.2 1.52
-4 -4 -2 8.81 1.73
4 4 2 9.44 1.07
-4 4 -2 7.54 0.87
-4 4 -3 177.71 11
-4 -4 -3 191.75 11.29
4 4 3 200.84 10.65
4 4 3 219.27 11.21
-4 -4 -3 178.67 10.76
4 4 4 15.96 2.68
-4 4 -4 17.22 2.49
-4 -4 -4 11.85 1.92
4 4 4 18.78 1.95
4 -4 4 15.82 2.49
-4 4 -5 68.86 5.17
4 4 5 72.81 4.67
4 -4 5 73.69 5.33
4 4 5 68.34 5.34
-4 -4 -5 62.77 4.55
4 4 6 18.37 2.82
4 -4 6 16.2 3.51
4 4 7 225.98 13.45
4 -4 7 242.91 14.22
4 4 7 229.84 14.37
4 -6 -10 687.84 37.53
4 -6 -9 4.47 2.92
-4 -6 9 1.27 3.17
-4 6 9 8 3.66
-4 6 9 2.67 3.3
-4 6 8 87.47 7.67
-4 -6 8 87.22 7.55
-4 6 8 94.98 7.81
-4 6 7 -0.22 1.83
4 -6 -7 3.63 2.15
-4 -6 7 0.31 2.13
-4 6 7 2.61 2.39
-4 6 7 5.09 2.32
-4 6 6 2745.37 157.04
-4 -6 6 2959.97 157.06
-4 6 6 3110.07 157.21
-4 6 6 3100.79 156.9
-4 6 5 -0.5 1.34
4 -6 -5 -0.11 1.57
-4 -6 5 0.31 1.3
-4 6 5 -0.5 1.61
-4 6 5 1.19 1.6
-4 6 4 6428.8 348.84
-4 -6 4 6717.65 348.69
-4 6 4 6634.92 348.92
-4 6 4 6635.74 348.82
4 -6 -4 6824.31 348.9
-4 6 3 1.93 1.16
-4 6 3 0.8 1.23
-4 -6 3 2.28 0.7
4 -6 -3 1.82 1.23
-4 -6 3 2.24 0.72
-4 6 3 0.35 1.09
-4 -6 2 4072.93 222.79
-4 6 2 4471.73 222.98
4 6 -2 4253.83 222.46
-4 6 2 4338.83 222.99
4 6 -2 4226.57 222.52
4 -6 -2 4220.28 222.97
4 6 -1 6.92 0.86
-4 6 1 7.55 1.18
4 -6 -1 6.71 1.15
-4 6 1 6 1.19
-4 -6 1 5.39 1.16
-4 6 1 6.12 1.16
4 6 -1 6.09 0.72
-4 6 0 180.28 10.23
4 -6 0 176.15 10.09
-4 -6 0 194.52 10.45
-4 6 0 195.99 10.38
4 6 0 184.99 10.17
4 -6 1 11.54 1.07
4 6 1 11.57 1.47
-4 6 -1 11.15 1.49
-4 -6 -1 9.27 1.72
4 6 1 11.21 0.86
-4 6 -1 11.91 1.57
-4 6 -1 11.67 1.05
-4 -6 -2 3514.08 175.51
4 6 2 3409.24 174.76
-4 6 -2 3210.84 175.15
-4 6 -2 3261.67 175.09
4 6 2 3321.82 175.21
-4 -6 -2 3247.79 175.17
4 6 3 7.72 1.97
-4 -6 -3 4.71 1.67
-4 6 -3 5.01 1.7
4 6 3 7.93 1.24
-4 6 -3 6.49 1.83
-4 6 -4 4441.84 239.98
4 6 4 4668.56 239.53
4 6 4 4737.67 240.16
-4 -6 -4 4571.33 239.8
-4 6 -4 4294.44 240.14
4 6 5 0.71 2.92
-4 6 -5 -0.16 2.52
-4 -6 -5 4.63 2.1
4 6 5 1.66 1.81
4 -6 5 3.9 2.56
4 6 6 1837.49 96.69
4 -6 6 1698.18 97.13
4 6 6 1886.93 97.46
-4 -6 -6 1889.03 96.86
4 -6 7 0.22 3.87
4 6 7 1.8 3.88
-4 8 9 101.14 7.54
-4 8 9 105.07 7.9
4 -8 -9 102.41 7.41
4 -8 -8 1.77 2.6
-4 8 8 1.85 3.14
-4 8 8 2.49 2.95
-4 8 7 147.19 9.88
-4 8 7 172.32 10.23
-4 8 7 168.33 9.77
-4 8 6 10.14 2.22
4 -8 -6 13.63 2.63
-4 8 6 8.6 2.46
-4 8 6 6.91 2.38
-4 8 5 107.83 7.06
-4 8 5 115.63 7.2
-4 8 5 114.66 7.07
4 -8 -5 119.15 7.23
-4 8 4 8.94 1.78
4 -8 -4 4.99 1.79
-4 8 4 7.82 1.8
-4 8 4 8.7 1.77
4 8 -4 7.43 0.75
-4 8 3 136.54 7.93
-4 8 3 127.53 7.93
-4 8 3 122.75 7.88
4 -8 -3 148.51 8.02
4 -8 -2 1.84 1.32
-4 8 2 1.38 1.31
-4 8 1 101.12 6.72
4 8 -1 123.85 6.3
4 -8 -1 107.32 6.57
-4 8 0 15.6 1.69
4 -8 0 15.94 1.59
-4 8 0 16.6 1.93
-4 8 0 12.54 1.74
4 8 0 15.57 1.57
4 8 1 61.53 3.4
-4 8 -1 57.35 4.15
-4 8 -1 57.08 4.05
-4 8 -1 59.75 3.92
4 8 1 62.01 3.98
-4 8 -2 4.41 1.59
-4 -8 -2 2.5 1.72
4 8 2 3.86 1.66
-4 8 -2 3.62 1.7
4 8 2 4.63 0.93
4 8 3 79.18 4.38
-4 8 -3 59.76 4.65
-4 8 -3 69.07 5.01
4 8 3 76.85 5.09
-4 -8 -3 67.46 4.84
-4 8 -4 12.06 2.76
-4 8 -4 10.69 2.39
-4 -8 -4 11.34 2.55
4 8 4 7.98 2.84
-4 8 -5 147.36 9.72
4 -8 5 166.54 10.1
4 8 5 173.2 10.2
-4 -8 -5 157.98 9.66
-4 -8 -6 29.64 3.7
4 8 6 33.24 4.43
4 -8 6 23.99 4.04
4 -10 -8 41.63 4.5
-4 10 8 48.72 5.17
-4 10 8 42.15 4.73
-4 10 7 222.55 13.99
-4 10 7 259.97 14.4
-4 10 7 254.21 14.02
4 -10 -7 219.58 14.01
-4 10 6 42.81 4.19
-4 10 6 41.06 4.02
-4 10 6 50.26 4.23
4 -10 -6 39.25 4.27
-4 10 5 116.46 8.05
-4 10 5 132.95 8.4
-4 10 5 141.5 8.36
4 -10 -5 139.55 8.45
-4 10 4 33.93 3.25
4 -10 -4 30.73 3.29
-4 10 4 30.65 3.21
-4 10 3 13.47 2.23
4 -10 -3 12.21 2.22
-4 10 3 12.96 2.24
4 10 -3 12.78 1.44
-4 10 2 31.5 2.74
-4 10 2 33.35 2.95
4 -10 -2 30.57 2.89
-4 10 1 55.44 3.99
-4 10 1 61.56 4.28
-4 10 1 61.59 4.3
4 -10 -1 68.55 4.24
-4 10 0 30.76 2.59
-4 10 0 29.13 2.65
-4 10 0 36.19 3.02
-4 -10 0 31.53 3.05
4 10 0 32.16 2.36
-4 10 -1 215.32 12.63
-4 10 -1 232.76 13.03
-4 10 -1 211.99 12.82
-4 -10 -1 233.38 13
4 10 1 253.18 12.77
-4 10 -2 21.63 2.3
4 10 2 20.97 2.5
-4 10 -2 22.95 2.54
-4 10 -3 124.95 7.76
-4 10 -3 131.3 8.08
-4 -10 -3 125.81 8.03
4 10 3 137.77 8.09
-4 -10 -4 9.08 2.76
4 10 4 16.77 3.06
-4 10 -4 18.74 3.11
-4 -10 -5 5.09 3.07
4 10 5 16 3.67
4 -10 5 12.7 3.16
-4 -10 -6 16.7 3.76
4 10 6 11.67 4.15
-4 12 7 5.99 3.31
4 -12 -7 7.17 3.72
-4 12 7 5.02 3.6
-4 12 7 6.23 3.36
-4 12 6 1632.79 85.38
-4 12 6 1528.61 85.1
4 -12 -6 1648.01 85.32
-4 12 5 -0.54 2.71
4 -12 -5 2.19 2.91
-4 12 5 3.16 3.07
-4 12 5 -0.31 2.36
-4 12 4 3315.54 182.85
-4 12 4 3766.26 183.24
4 -12 -4 3501.9 183.06
-4 12 4 3369.11 183.04
-4 12 3 3.55 2.35
-4 12 3 3.15 1.98
4 -12 -3 2.47 2.13
-4 12 3 0.47 2.18
-4 12 2 2115.39 112.89
-4 12 2 2123 113.14
-4 -12 2 2277.35 113.17
4 12 -2 2081.32 112.66
4 -12 -2 2133.72 113.03
-4 12 1 8.86 1.74
-4 -12 1 10.72 2.59
-4 12 1 7.87 1.95
-4 12 1 9.85 2.35
-4 12 0 151.88 9.02
-4 12 0 148.35 9.23
-4 12 0 157.17 9.54
-4 -12 0 179.17 9.68
-4 12 -1 17.04 2.52
-4 12 -1 18.32 2.23
-4 -12 -1 21.2 3.07
-4 12 -1 21.42 2.99
-4 12 -2 1497.4 80.48
4 12 2 1537.11 80.32
-4 12 -3 13.02 2.87
-4 -12 -3 11.25 3.15
4 12 3 14.49 2.67
-4 12 -4 2286.51 120.13
-4 -12 -4 2303.72 119.98
4 12 4 2214.12 119.88
-4 -12 -5 -0.35 3.48
4 12 5 4.04 3.19
-4 14 6 14.81 3.56
-4 14 6 10.4 3.73
4 -14 -6 11.58 3.82
-4 14 5 66.3 5.57
4 -14 -5 76.78 6.02
-4 14 5 69.75 5.86
-4 14 4 5.57 3.07
-4 14 4 2.04 2.52
4 -14 -4 6.86 3.04
-4 14 3 77.14 5.9
-4 -14 3 99.39 6.54
4 -14 -3 101.59 6.45
-4 14 3 79.78 6.33
-4 -14 2 2.71 2.85
-4 14 2 3.46 2.34
-4 14 1 68.42 4.72
-4 14 1 64.17 4.93
-4 14 1 67.33 5.49
-4 -14 1 80.16 5.64
4 14 -1 80.66 5.26
-4 -14 0 16.59 3.39
-4 14 0 13.76 3.14
-4 14 0 18.31 2.68
-4 14 -1 17.72 2.76
-4 -14 -1 16.27 3.42
-4 14 -1 14.91 3.38
-4 -14 -2 2.13 3.37
-4 14 -2 4.21 2.57
-4 14 -3 24.15 3.55
-4 16 4 20.36 3.47
4 -16 -4 25.39 4.2
-4 16 3 5.87 2.96
-4 16 3 6.93 3.75
-4 -16 2 31.24 4.28
-4 16 2 20.51 3.42
-4 16 2 32.59 4.51
-4 16 1 57.82 5.08
-4 -16 1 78.63 5.88
-4 -16 0 22.31 4.25
-4 16 0 23.87 3.31
4 16 0 25.47 3.62
-4 16 -1 136.56 9
-4 -16 -1 153.16 9.6
4 16 1 137.38 9.31
5 -1 -10 220.16 13.2
-5 -1 10 230.86 13.82
-5 1 10 233.56 13.9
5 -1 -9 7.79 2.61
5 1 -9 11.12 2.78
-5 -1 9 13.53 3.33
-5 1 9 14.68 3.37
5 -1 -8 130.35 8.13
5 1 -8 136.82 8.17
-5 -1 8 143.15 8.64
-5 1 8 130.65 8.54
5 -1 -7 22.03 2.52
5 1 -7 18.69 2.36
-5 -1 7 18.94 2.5
-5 1 7 19.43 2.55
-5 1 7 18.07 2.31
5 1 -6 61.67 3.82
-5 1 6 49.05 3.53
-5 -1 6 46.81 3.33
-5 -1 6 45.71 3.62
-5 1 6 48.38 3.74
5 -1 -6 58.93 3.86
-5 1 5 26.09 2.15
-5 -1 5 25.45 1.99
-5 -1 5 23.37 2.08
-5 1 5 24.64 2.16
5 1 -5 23.84 2.39
-5 1 4 15.19 1.45
-5 -1 4 13.19 1.33
-5 -1 4 11.52 1.29
5 -1 -4 12.19 1.68
5 1 -4 13.45 1.75
-5 1 4 12.5 1.43
-5 -1 3 11.56 1.32
5 1 -3 11.57 1.16
-5 1 3 13.97 1.35
-5 -1 3 11.14 1.02
-5 1 3 12.57 1.15
-5 -1 3 12.19 1.18
5 -1 -3 10 1.48
5 1 -3 10.78 1.45
-5 1 2 112.13 6.45
-5 -1 2 110.4 6.39
5 -1 -2 113.47 6.57
5 1 -2 129.6 6.61
5 1 -2 123.01 6.19
-5 1 2 104.63 6.23
-5 1 2 112.8 6.4
-5 -1 2 109.85 6.1
-5 -1 2 111.56 6.37
-5 1 1 2.99 0.98
-5 1 1 3.19 1.05
-5 -1 1 3.52 0.99
5 -1 -1 2.53 1
-5 -1 1 3.27 0.98
5 1 -1 1.76 0.99
5 1 -1 1.58 0.47
5 -1 -1 2.31 0.68
-5 1 1 3.35 0.73
-5 1 0 254.77 13.59
-5 -1 0 256.17 13.63
5 1 0 226.99 13.2
-5 1 0 272.54 13.64
-5 -1 0 258.24 13.66
-5 1 -1 3.54 1.35
-5 -1 -1 3.75 1.33
-5 1 -1 4.47 1.37
5 1 1 4.51 0.75
-5 -1 -1 3.69 1.33
5 1 2 182.25 10.24
-5 -1 -2 175.13 10.42
-5 1 -2 181.02 10.39
-5 1 -3 12.13 1.43
-5 -1 -3 14.64 1.69
-5 -1 -3 13.99 2.51
5 -1 3 15.36 2.2
-5 1 -4 230.28 14
5 1 4 260.88 13.61
5 -1 4 243.79 13.9
-5 -1 -4 233.17 13.22
5 1 5 14.68 3.27
-5 1 -5 12.13 3.2
5 1 5 13.84 2.53
5 -1 5 15.28 3.18
5 -1 6 229.09 14.48
5 1 6 246.49 14.41
5 -1 6 260.56 15.07
5 1 6 278.1 15.2
5 -1 7 9.52 4.37
5 -1 7 7.22 3.29
5 1 7 9.86 3.43
5 -3 -10 -0.3 3.11
-5 3 10 -0.22 3.8
5 -3 -9 1528.98 84.82
-5 3 9 1544.46 85.01
5 3 -9 1780.87 84.86
-5 -3 9 1546.12 85.19
-5 3 9 1563.89 85.27
5 -3 -8 -0.65 2.24
5 3 -8 0.6 2.27
-5 -3 8 1.49 2.41
-5 3 8 -1.7 2.45
-5 3 8 0.9 2.31
5 -3 -7 4492.72 237.73
-5 3 7 4334.67 237.79
5 3 -7 4688.12 237.69
-5 -3 7 4679.22 237.9
-5 3 7 4404.56 237.9
5 3 -6 1.4 1.85
-5 -3 6 -0.64 1.53
-5 3 6 0.48 1.55
-5 3 6 1.02 1.49
5 -3 -5 3527.83 181.2
5 3 -5 3397.94 181.16
-5 3 5 3393.82 181.12
-5 -3 5 3502.21 181.01
-5 3 5 3396.13 181.18
5 3 -4 2.11 0.59
-5 3 4 1.97 1.22
-5 -3 4 2.16 0.95
5 -3 -4 2.25 1.46
5 3 -4 2.62 0.76
-5 -3 4 2.29 0.8
-5 3 4 1.29 1.15
-5 -3 4 2.34 0.75
5 3 -3 130.08 7.31
-5 -3 3 122.52 7.49
5 -3 -3 131.75 7.73
5 3 -3 120.2 7.72
-5 3 3 126.96 7.62
-5 -3 3 124.58 7.24
-5 3 3 132.54 7.59
-5 3 2 2.93 1.05
5 -3 -2 3.47 1.1
-5 3 2 3.42 1.03
-5 -3 2 5.19 1
-5 3 2 2.55 0.9
-5 -3 2 3.78 0.89
-5 3 1 4129.57 217.61
5 -3 -1 4191.22 217.59
-5 -3 1 4162.79 217.61
-5 3 1 4125.28 217.63
-5 3 1 4222.01 217.52
-5 -3 1 4031.18 217.59
-5 -3 0 0.47 1.14
-5 -3 0 1.85 1.08
-5 3 0 2.91 1.24
5 -3 0 0.35 0.96
-5 3 0 1.84 0.93
-5 -3 -1 6669.81 365.42
5 3 1 7017.95 364.82
5 3 1 6937.84 365.27
-5 3 -1 7060.19 365.31
-5 3 -2 1.22 1.56
-5 -3 -2 2.11 1.86
5 3 2 1.24 0.88
-5 3 -2 1.12 1.52
5 3 2 0.79 1.48
-5 3 -3 3215.12 175.91
-5 -3 -3 3333.74 176.05
5 3 3 3380.74 175.36
5 3 3 3264.07 175.78
-5 -3 -3 3405.66 175.57
-5 3 -3 3372.78 176.03
5 3 4 0.15 2.38
-5 -3 -4 2.89 2.9
-5 -3 -4 0.17 1.53
-5 3 -4 3.98 2.44
5 3 4 1 1.58
5 -3 4 2.78 2.42
-5 3 -5 351.48 22.37
5 -3 5 352.71 22.3
5 3 5 396.53 22.49
5 -3 6 -0.2 3.46
5 -3 7 688.96 37.68
5 -5 -10 170.06 10.79
-5 5 10 177.97 11.12
5 -5 -9 4.86 2.9
-5 5 9 8.93 3.57
-5 5 9 8.47 3.41
5 -5 -8 117.46 7.64
-5 5 8 116.27 7.76
5 5 -8 127.53 7.43
-5 5 8 106.58 7.81
5 -5 -7 13.54 2.56
5 5 -7 15.35 2.43
-5 5 7 19.24 3.02
-5 5 7 15.8 2.66
5 -5 -6 68.45 4.68
-5 5 6 57.46 4.54
5 5 -6 66.42 4.46
-5 5 6 63.72 4.75
5 -5 -5 6.73 1.85
5 5 -5 6.63 1.72
-5 5 5 8.44 1.74
-5 5 5 7.03 1.77
-5 -5 4 20.45 1.69
-5 5 4 21.34 2.27
-5 5 4 19.21 2.02
5 -5 -4 18.18 2.13
-5 -5 3 1.24 0.96
-5 5 3 0.36 1.26
5 -5 -3 2.98 1.54
-5 5 3 1.04 1.13
5 -5 -2 34.33 2.35
-5 -5 2 19.26 1.95
5 5 -2 28.76 1.75
-5 5 2 24.11 2.23
-5 5 2 22.79 2.04
5 5 -2 30.36 1.83
-5 -5 1 3.22 1.1
5 -5 -1 2.28 1.1
-5 5 1 2.68 1.19
-5 5 1 2.63 1.12
5 5 -1 2.1 0.84
-5 5 0 167 9.86
5 -5 0 182.5 9.71
-5 -5 0 166.89 10.01
-5 5 0 178.96 9.86
-5 5 0 174.32 9.95
5 5 0 179.5 9.75
-5 5 -1 4.46 1.58
-5 -5 -1 1.11 1.57
-5 5 -1 1.06 1.5
5 5 1 4.02 0.47
5 5 1 4.04 1.35
-5 5 -2 269.06 14.99
-5 -5 -2 254.07 15.23
5 5 2 274.05 14.38
5 5 2 297.41 15.06
-5 -5 -2 240.19 14.84
-5 -5 -3 20.7 2.4
-5 5 -3 18.84 2.8
-5 -5 -3 26.17 3.18
5 5 3 27.08 2.02
5 5 3 30.3 2.98
-5 5 -4 255.29 15.83
-5 -5 -4 258.74 15.37
-5 5 -4 279.14 16.08
5 5 5 20.67 3.54
-5 5 -5 22.63 3.71
-5 -5 -5 17.61 2.61
5 -5 5 12.93 3.39
5 -5 6 189.86 12.62
5 5 6 220.22 12.85
5 -7 -9 20.5 3.67
-5 7 9 25.08 4.32
-5 7 9 22.93 3.93
5 -7 -8 110.47 7.69
-5 7 8 120.13 8.01
-5 7 8 125.74 8.25
-5 7 7 18.97 3.17
-5 7 7 16.18 3.03
-5 7 6 28.77 3.15
-5 7 6 35.49 3.39
-5 7 6 26.31 2.82
5 -7 -6 31.78 3.3
-5 7 5 28.86 2.97
-5 7 5 32.41 2.96
5 -7 -5 29.37 3.01
5 -7 -4 61.65 4.14
-5 7 4 53.68 4.19
-5 7 4 55.61 4.05
5 -7 -3 37.67 3.13
-5 7 3 44 3.21
-5 7 3 37.16 3.04
5 -7 -2 222.63 11.86
-5 -7 2 198.07 11.72
-5 7 2 210.08 11.93
-5 7 2 187.06 11.83
5 7 -2 224.51 11.36
-5 7 1 19.48 2.15
5 -7 -1 26.66 2.11
-5 -7 1 24.57 2.28
-5 7 1 22.34 2.25
-5 7 1 21.19 2.21
5 7 -1 22.76 1.78
-5 7 0 222.04 12.62
5 -7 0 216.97 12.39
-5 -7 0 232.83 12.93
-5 7 0 239 12.77
5 7 0 233.74 12.51
5 7 1 15.09 1.91
-5 7 -1 14.95 1.91
-5 -7 -1 12.7 2.33
-5 7 -1 12.09 1.99
-5 7 -2 62.47 4.43
-5 7 -2 65.66 4.64
5 7 2 64.84 4.48
-5 -7 -2 64.06 4.57
5 7 3 10.19 2.55
-5 -7 -3 9.5 2.28
-5 7 -3 11.34 2.32
-5 7 -3 9.75 2.58
-5 7 -4 136.21 8.97
-5 -7 -4 134.17 8.73
-5 7 -4 134.05 9.26
5 7 5 7.47 3.43
-5 7 -5 5.97 3.04
-5 -7 -5 3.09 2.53
5 -7 5 13.28 3.37
5 -7 6 205.2 13.26
5 7 6 231.14 13.62
-5 9 8 0.66 3.36
-5 9 8 3.52 3.21
-5 9 7 2610.4 146.98
-5 9 7 2851.28 147.16
-5 9 7 2974.07 146.94
5 -9 -7 2702.46 146.89
-5 9 6 4.1 2.56
5 -9 -6 7.94 2.39
-5 9 6 3.05 2.47
-5 9 6 3.32 2.36
-5 9 5 1982.37 102.95
-5 9 5 2008.23 102.98
-5 9 5 2003.6 102.88
5 -9 -5 1809.96 102.71
-5 9 4 9.17 2.26
5 -9 -4 8.54 2.17
-5 9 4 8.65 2.21
-5 9 3 113.18 7.61
-5 9 3 134.43 7.78
5 -9 -3 131.85 7.63
5 -9 -2 13.16 2
-5 9 2 11.39 2.01
5 -9 -1 2946.76 139.64
-5 9 1 2500.4 139.58
-5 9 1 2509.49 139.71
-5 9 0 7.38 1.73
5 9 0 8.96 1.53
-5 9 0 9.41 2.05
-5 9 0 8.89 1.95
-5 9 -1 4383.6 229.93
-5 9 -1 4420.46 230.17
-5 9 -1 4412.22 230.15
5 9 1 4308.29 229.94
-5 9 -2 1.83 2.05
-5 -9 -2 -0.91 2.33
5 9 2 1.75 2.05
-5 9 -2 3.88 2.37
-5 9 -3 2221.29 116.72
-5 9 -3 2242.93 116.94
5 9 3 2182.51 116.77
-5 -9 -3 2194.03 116.73
-5 9 -4 2.39 2.78
-5 -9 -4 1.97 2.85
5 9 4 2.43 2.86
-5 9 -4 0.8 3.07
5 9 5 285 16.5
-5 -9 -5 311.13 16.32
-5 11 7 6.89 3.39
5 -11 -7 11.79 3.2
-5 11 7 11.01 3.44
-5 11 7 17.35 3.55
-5 11 6 49.32 4.69
-5 11 6 58.18 5.06
-5 11 6 50.92 4.83
5 -11 -6 54.53 4.79
-5 11 5 1.04 2.71
5 -11 -5 4.33 2.59
-5 11 5 -0.56 2.8
-5 11 5 0.84 2.61
5 -11 -4 24.84 3.01
-5 11 4 26.42 3.38
-5 11 3 5.19 2.26
5 -11 -3 5.16 2.06
-5 11 3 8.41 2.47
5 -11 -2 2.93 1.95
-5 11 2 1.21 2.12
-5 11 1 4.59 1.91
-5 11 1 6.65 2.12
-5 11 1 6.37 2.28
-5 11 0 73.85 5.03
-5 11 0 75.73 5.3
-5 11 0 80.07 5.48
-5 -11 0 79.95 5.66
-5 11 -1 0.21 1.92
-5 11 -1 2.59 2.24
-5 11 -1 1.05 2.25
-5 11 -2 203.94 11.74
-5 11 -2 201.02 11.98
-5 -11 -2 190.54 12.01
5 11 2 223.39 11.86
-5 -11 -3 16.94 3.3
5 11 3 22.69 3.16
-5 11 -3 19.41 3.39
-5 11 -4 222.44 13.15
-5 -11 -4 197 12.51
5 11 4 222.57 12.67
-5 -11 -5 19.11 3.83
5 11 5 20.18 4.1
-5 13 6 15.62 3.63
5 -13 -6 17.14 3.52
-5 13 6 14.4 4.02
-5 13 5 22.94 3.6
-5 13 5 27.6 3.65
5 -13 -5 25.14 3.65
-5 13 5 32.32 4.38
-5 13 4 63.75 5.36
-5 13 4 77.9 5.77
5 -13 -4 75.39 5.59
-5 13 3 45.43 4.06
5 -13 -3 35.41 3.69
-5 13 3 37.98 4.21
-5 13 2 174.54 10.28
-5 13 2 161.24 10.47
-5 13 2 181.15 10.82
-5 -13 2 188.9 10.96
-5 13 1 30.83 3.15
-5 13 1 29.02 3.28
-5 13 1 34.71 3.91
-5 -13 1 38.15 4.14
-5 13 0 118.55 7.48
-5 13 0 117.42 7.77
-5 13 0 117.06 8.03
-5 -13 0 140.97 8.31
-5 -13 -1 15.41 3.54
-5 13 -1 18.45 3.03
-5 13 -1 19.78 3.28
-5 13 -2 5.69 2.89
-5 -13 -3 9.12 3.6
-5 13 -3 10.36 3.42
-5 13 -4 73.66 6.5
-5 15 4 8.37 3.22
5 -15 -4 14.49 3.62
-5 15 4 13.94 3.98
-5 15 3 77.27 6.13
-5 15 3 83.81 6.66
-5 -15 3 88.55 6.67
-5 15 2 15.76 2.66
-5 -15 2 14.4 3.65
-5 15 2 14.22 2.96
-5 15 2 17.81 3.77
-5 15 1 1082.23 54.94
-5 -15 1 1115.8 54.95
-5 15 0 7.53 2.92
-5 -15 0 11.77 3.79
-5 15 0 7.72 3.48
-5 15 -1 1672.35 96.16
-5 -15 -1 1980.9 96.6
-5 15 -2 2.57 3.11
6 0 -10 1936.3 102.61
6 0 -9 0.42 2.88
6 0 -8 1487.25 80.45
-6 0 8 1560.11 80.71
6 0 -7 1.85 2.17
-6 0 7 -0.13 1.84
-6 0 6 83.75 5.86
-6 0 6 97.54 6.09
-6 0 5 1.12 1.19
6 0 -5 -0.11 1.78
-6 0 5 -0.87 1.2
-6 0 4 3277.1 176.43
6 0 -4 3661.36 176.7
-6 0 4 3294.54 176.31
-6 0 4 3315.15 176.24
-6 0 3 -0.59 1.25
6 0 -3 -0.71 1.43
-6 0 3 0.58 0.81
-6 0 3 0.8 1.15
-6 0 2 7129.5 369.95
6 0 -2 6765.61 370.02
-6 0 2 7227.92 369.92
-6 0 1 -0.48 1.22
-6 0 1 -1.11 1.37
6 0 -1 1.66 1.33
-6 0 0 4205.8 224.38
-6 0 0 4339.53 224.4
-6 0 -1 -2.35 1.78
-6 0 -1 -0.91 1.77
-6 0 -2 372.85 21.1
-6 0 -2 391.18 21.22
-6 0 -3 -0.68 1.42
6 0 3 0.41 2.09
6 0 4 1582.35 83.79
6 0 5 -1.66 3.33
-6 0 -5 2.88 3.4
6 0 5 -0.78 2.53
6 0 6 1882.03 100.21
6 -2 -10 18.18 3.64
6 2 -10 16.04 3.59
-6 2 10 21.8 4.17
6 2 -9 37.17 3.75
6 -2 -9 25.99 3.63
-6 2 9 27.6 4
6 -2 -8 22.95 3.22
6 2 -8 22.52 3.01
-6 2 8 29.69 3.31
6 -2 -7 56.01 4.42
6 2 -7 62.57 4.55
-6 2 7 60.85 4.32
-6 2 7 54.78 4.34
-6 2 6 9.52 2.02
6 2 -6 11 2.32
-6 2 6 13.6 2.08
-6 -2 5 112.24 7.04
6 -2 -5 133.15 7.44
-6 2 5 122.96 7.17
-6 2 5 118.48 7.15
-6 -2 4 3.54 1.29
-6 2 4 4.43 1.5
6 -2 -4 1.05 1.52
6 2 -4 0.23 1.62
-6 2 4 4.38 1.21
-6 -2 4 3.34 1.16
-6 2 3 237.32 13.82
-6 -2 3 258.16 13.8
6 -2 -3 248.09 13.94
6 2 -3 269.29 14.05
-6 2 3 228.86 13.74
-6 2 3 249.46 13.68
-6 -2 3 272.12 13.73
-6 2 2 2.34 1.38
-6 -2 2 0.3 1.25
6 -2 -2 -0.45 1.26
-6 -2 2 1.76 1.19
-6 2 2 1.75 0.92
-6 2 2 1.24 1.25
-6 2 1 253.08 14.26
-6 -2 1 263.1 14.28
6 -2 -1 256.66 14.2
-6 2 1 248.28 13.97
-6 2 1 260.12 14.27
-6 -2 1 279.14 14.29
-6 2 0 4.7 1.56
-6 -2 0 4.6 1.58
-6 -2 0 2.47 1.6
-6 2 0 4.76 1.59
-6 2 -1 160.38 10.35
-6 -2 -1 164.41 10.43
6 2 1 191.86 9.83
-6 2 -1 191.02 10.48
-6 -2 -2 7.7 2.25
-6 2 -2 12.21 2.46
6 2 2 13.01 1.52
6 2 2 10.84 2.22
-6 2 -3 162.72 10.5
-6 -2 -3 174.16 10.59
6 2 3 183.41 10.33
-6 -2 -3 172.61 9.96
6 2 4 9.26 2.88
-6 2 -4 3.61 2.8
-6 -2 -4 5.42 2.92
6 -2 4 3.91 2.93
-6 2 -5 96.85 7.23
6 -2 5 95.61 7.09
6 2 5 100.41 7.26
6 -2 6 20.41 4.71
6 -2 6 13.13 3.43
6 -4 -9 32.62 3.77
6 4 -9 36.38 3.84
-6 4 9 25.77 4
-6 4 8 35.79 3.55
6 4 -8 32.87 3.43
6 -4 -8 30.39 3.63
-6 4 8 30.68 3.66
6 4 -7 94.54 6.03
-6 4 7 83.98 6.06
-6 4 7 93.71 6.27
6 -4 -6 36.64 3.36
6 4 -6 35.57 3.27
-6 4 6 31.43 3.26
-6 4 6 32.91 3.01
6 4 -5 200.34 11.69
-6 4 5 208.33 11.66
-6 4 5 180.23 11.47
-6 -4 4 21.4 2.03
-6 4 4 20 2.28
-6 4 4 20.08 2.05
6 -4 -4 20.13 2.3
-6 4 3 288.77 15.79
-6 -4 3 286.57 15.56
6 -4 -3 286.51 15.76
-6 4 3 287.46 15.76
-6 4 3 279.53 15.63
-6 -4 2 5.75 1.3
-6 4 2 8.17 1.66
-6 -4 2 8.53 1.47
6 -4 -2 5.43 1.42
-6 4 2 6.39 1.34
-6 4 2 5.18 1.48
-6 4 1 126.42 7.9
-6 -4 1 142.64 8.01
6 -4 -1 133.65 7.83
-6 4 1 140.21 7.8
-6 4 1 139.86 8
-6 -4 1 138.24 8.02
-6 -4 0 1.6 1.6
-6 4 0 2.84 1.51
6 -4 0 1.5 1.08
-6 4 0 2.45 1.26
6 4 0 0.75 1.33
-6 4 -1 96.63 5.99
-6 -4 -1 77.26 5.97
6 4 1 103.55 5.83
-6 4 -1 91.52 6.03
-6 4 -2 2.96 2.13
-6 -4 -2 4.5 2.25
-6 4 -2 4.11 2.15
6 4 2 3.3 1.91
-6 4 -3 222.12 12.46
-6 -4 -3 193.78 12.32
6 4 3 226.09 12.27
-6 -4 -3 189.55 11.8
-6 4 -3 218.19 12.54
6 4 4 1.65 3.07
-6 -4 -4 4.29 2.1
-6 4 -4 5.44 2.98
6 -4 4 3.5 2.79
-6 4 -5 110.39 8.18
6 -4 5 107.82 7.89
6 4 5 118.83 8.03
6 -6 -9 0.82 3.26
-6 6 9 7.2 3.59
-6 6 9 5.1 3.24
6 -6 -8 1104.01 62.6
-6 6 8 1160.62 62.81
-6 6 8 1280.69 63.03
6 -6 -7 -0.3 2.72
-6 6 7 5.5 2.73
-6 6 7 4.69 2.64
-6 6 6 86.61 6.24
-6 6 6 75.46 5.84
-6 6 5 6.63 2.03
6 -6 -5 7.06 2.33
-6 6 5 3.06 1.75
6 -6 -4 2948.34 147.31
-6 6 4 2728.01 147.34
-6 6 4 2712.07 147.26
-6 6 3 1.79 1.71
6 -6 -3 0.52 1.57
-6 6 3 2.91 1.53
6 -6 -2 5087.59 270.71
-6 -6 2 5070.98 270.72
-6 6 2 5093.22 270.81
-6 6 2 5252.02 270.8
6 6 -2 5218.66 270.36
-6 6 1 3.77 1.63
-6 -6 1 -0.36 1.67
6 -6 -1 1.95 1.23
-6 6 1 -0.1 1.55
-6 6 1 -1.21 1.74
6 6 -1 0.7 1.15
-6 6 0 3178.27 163.67
-6 -6 0 3046.29 163.86
-6 6 0 3130.62 163.61
-6 6 0 3072.84 163.73
6 6 0 3106.89 163.48
6 6 1 4.4 1.82
-6 6 -1 5.58 2
-6 -6 -1 0.45 1.95
-6 6 -1 6.39 2.16
-6 6 -2 349.14 18.67
-6 -6 -2 323.06 18.82
6 6 2 348.5 18.56
-6 -6 -2 314.54 18.46
6 6 3 9.3 2.56
-6 -6 -3 3.48 2.18
-6 6 -3 3.49 2.76
-6 6 -3 2.29 2.73
-6 6 -4 1174.73 63.55
6 6 4 1299.4 63.46
-6 -6 -4 1102.61 62.99
6 6 5 5.59 3.79
-6 6 -5 3.46 3.53
6 -6 5 3.05 3.53
-6 6 -6 1484.45 79.57
-6 8 8 8.87 3.39
-6 8 8 7.62 3.3
-6 8 7 25.33 3.62
6 -8 -7 29.2 3.6
-6 8 7 27.39 3.68
-6 8 6 -1.81 2.77
6 -8 -6 -0.29 2.55
-6 8 6 -1.15 2.43
6 -8 -5 45.75 4.08
-6 8 5 52.35 4.23
-6 8 5 52.32 4.21
-6 8 4 6.07 2.23
6 -8 -4 2.97 2.05
-6 8 4 3.02 1.98
6 -8 -3 175.43 9.48
-6 8 3 159.84 9.59
-6 8 3 143.89 9.35
-6 8 2 -1.31 1.75
6 -8 -2 -1.13 1.74
-6 8 2 1.5 1.71
-6 8 2 -0.99 1.7
-6 8 1 212.46 12.39
-6 8 1 225.65 12.55
-6 8 1 217.52 12.45
6 8 0 13.9 1.81
-6 8 0 9.09 2.13
-6 -8 0 8.71 2.28
-6 8 0 7.18 2.06
-6 8 -1 193.57 11.13
-6 -8 -1 207.08 11.53
-6 8 -1 166.57 11.08
6 8 1 211.9 10.98
-6 -8 -1 182.01 11.12
-6 8 -2 17.11 3.13
6 8 2 18.42 2.79
-6 -8 -2 13.91 2.8
-6 8 -2 21.24 3.13
-6 8 -3 115.39 7.38
6 8 3 123.08 7.4
-6 8 -3 111.52 7.51
-6 -8 -3 90.07 7
6 8 4 5.89 3.55
-6 8 -4 -1.35 3.66
-6 8 -4 6.95 3.36
-6 -8 -4 -0.3 2.82
6 8 5 53.19 5.42
6 -8 5 42.56 5.24
6 -10 -7 92.73 6.78
-6 10 7 98.01 7.23
-6 10 7 99.33 7.22
6 -10 -6 39.81 4.27
-6 10 6 41.03 4.38
-6 10 6 43.99 4.37
6 -10 -5 196.65 11.87
-6 10 5 196.75 11.97
-6 10 5 208.64 12.09
6 -10 -4 34.13 3.33
-6 10 4 35.35 3.83
-6 10 4 27.8 3.43
6 -10 -3 200.17 11.53
-6 10 3 209.42 11.82
-6 10 3 185.48 11.62
-6 10 2 14.87 2.48
6 -10 -2 18.21 2.48
-6 10 2 19.44 2.81
-6 10 1 38.87 3.39
-6 10 1 35.44 3.57
-6 10 1 40.12 3.65
-6 10 0 10.79 2.47
-6 10 0 6.03 2.28
-6 10 0 7.29 2.57
-6 10 -1 55.66 4.29
-6 10 -1 49.76 4.33
-6 -10 -1 46.03 4.38
-6 10 -2 6.59 2.76
-6 -10 -2 6.51 2.83
-6 10 -2 6.52 2.89
-6 10 -3 181.98 10.8
-6 10 -3 176.75 11.05
6 10 3 182.71 10.55
-6 -10 -3 160.02 10.52
-6 -10 -4 6.44 3.36
6 10 4 6.2 3.4
-6 10 -4 10.61 4.31
6 -12 -6 72.86 5.62
-6 12 6 52.2 5.34
-6 12 6 61.73 5.63
-6 12 5 15.04 3.31
6 -12 -5 9.1 3.13
-6 12 5 10.17 3.21
6 -12 -4 1373.12 71.44
-6 12 4 1300.92 71.68
-6 12 3 4.52 2.63
6 -12 -3 5.24 2.52
-6 12 3 7.39 2.75
-6 12 3 0.37 2.77
-6 12 2 2599.24 136.63
-6 12 2 2534.16 136.72
-6 12 2 2632.5 136.87
-6 12 1 5.09 2.41
-6 -12 1 3.16 2.94
-6 12 1 -0.51 2.73
-6 12 1 6.12 2.83
-6 12 0 1609.79 82.73
-6 12 0 1522.17 82.99
-6 12 0 1471.84 82.86
-6 -12 0 1648.33 83.17
-6 12 -1 6.85 2.77
-6 12 -1 7.47 3.08
-6 12 -2 205.51 12.25
-6 -12 -2 194.74 12.08
-6 12 -3 11.1 3.89
6 -14 -5 19.66 3.8
-6 14 4 3.42 3.35
-6 14 4 7.29 3.44
-6 14 3 78.39 5.68
-6 14 3 61.2 5.75
-6 14 3 81.64 6.38
-6 -14 3 86.18 6.4
-6 14 2 -1.07 2.6
-6 -14 2 1.66 3.66
-6 14 2 0.36 2.85
-6 14 2 1.42 3.24
-6 14 1 136.25 8.71
-6 14 1 131.31 8.99
-6 14 1 142.2 9.32
-6 -14 1 159.03 9.55
-6 -14 0 7.92 3.62
-6 14 0 6.11 3.19
-6 14 0 11.44 3.35
-6 14 -1 118.26 8.04
7 -1 -9 13.04 3.37
7 1 -9 18.05 3.42
7 -1 -8 203.77 12.09
7 1 -8 207.76 12.18
7 -1 -7 11.91 2.89
7 1 -7 12.27 2.78
-7 -1 6 215.56 12.59
7 -1 -6 240.08 12.92
-7 1 6 211.11 12.54
-7 1 5 4.96 1.83
-7 -1 5 9.43 1.87
-7 1 5 6.47 1.71
7 -1 -5 3.54 2.2
7 1 -5 7.75 2.34
-7 1 4 136.22 8.6
-7 -1 4 138.08 8.5
7 -1 -4 150.4 8.74
7 1 -4 148.11 8.82
-7 1 4 147.65 8.45
-7 -1 4 150.49 8.4
-7 1 3 1.88 1.67
-7 -1 3 2.64 1.61
-7 -1 3 4.04 1.52
7 -1 -3 3.28 1.85
7 1 -3 3.85 1.77
-7 1 3 1.93 1.49
-7 1 2 24.19 2.55
-7 -1 2 23.79 2.39
7 -1 -2 19.61 2.35
-7 1 2 27.59 2.43
-7 -1 2 27.24 2.47
-7 1 1 0.53 1.79
-7 -1 1 1.19 1.84
-7 -1 1 -0.32 1.63
-7 1 1 -0.21 1.66
-7 1 0 138.75 8.4
-7 -1 0 140.11 8.46
-7 1 0 132.57 8.38
-7 -1 0 148.97 8.52
-7 1 -1 3.14 2.26
-7 1 -1 1.77 2.42
-7 -1 -1 0.14 2.31
-7 -1 -1 3.9 2.39
-7 1 -2 170.05 10.57
-7 -1 -2 179.23 10.68
7 1 2 164.93 10.31
-7 1 -2 188.68 10.8
-7 -1 -3 5.33 3.24
7 -1 3 9.29 2.85
7 1 3 5.9 2.52
-7 1 -4 90.4 7.19
7 1 4 98.58 6.86
7 1 5 27.81 4.49
-7 1 -5 23.43 4.78
7 -3 -9 59.42 5.15
7 -3 -8 -1.17 2.89
7 3 -8 1.36 2.71
-7 3 7 1551.3 90.97
-7 3 7 1685.94 91.14
-7 3 6 -0.64 1.94
7 -3 -6 0.4 2.34
7 3 -6 -0.55 2.26
-7 3 6 -1.81 1.84
-7 -3 5 4497.92 231.13
7 -3 -5 4478.94 231.28
-7 3 5 4381.98 231.24
-7 3 5 4248.6 231.11
-7 3 4 -1.42 1.82
-7 -3 4 0.51 1.63
7 -3 -4 0.61 1.8
7 3 -4 -1.97 1.98
-7 3 4 -1.18 1.72
-7 3 4 -1.61 1.5
-7 3 3 2864.78 150.27
-7 -3 3 3235.34 150.18
7 -3 -3 2541.27 150.18
-7 3 3 2808.61 150.19
-7 3 3 2817.63 150
-7 3 2 0.65 1.62
-7 3 2 0.33 1.77
-7 -3 2 0.84 1.69
7 -3 -2 3.92 1.61
-7 -3 2 1.43 1.66
-7 3 1 255.04 14.75
-7 -3 1 272.07 14.85
7 -3 -1 234.85 14.57
-7 3 1 270.17 14.8
-7 3 0 4.5 2.21
-7 -3 0 1.57 1.93
-7 3 0 0.12 1.96
7 3 0 3.31 1.64
-7 -3 -1 1844.44 101.86
7 3 1 1910.68 101.59
-7 3 -1 2012.55 101.84
-7 3 -2 0.32 2.57
-7 -3 -2 1.05 2.7
-7 3 -2 0.84 2.69
7 3 2 2.53 2.22
-7 3 -3 2984.15 149.2
-7 -3 -3 2654.8 149.08
7 3 3 2756.2 148.77
-7 -3 -3 2874.26 148.51
7 3 4 -1.57 3.3
-7 3 -4 -1.08 3.67
-7 -3 -4 -1.78 3.72
7 -3 4 -2.39 3.47
-7 3 -5 1275.14 68.64
-7 5 9 8.92 3.56
-7 5 8 111.41 7.85
-7 5 8 116.89 7.82
-7 5 7 1.93 2.56
7 -5 -7 -1.56 2.79
-7 5 7 -0.61 2.3
7 -5 -6 180.9 10.26
-7 5 6 170.57 10.23
-7 5 6 157.58 10.1
-7 5 5 7.03 2.43
7 -5 -5 6.07 2.34
-7 5 5 6.21 1.97
-7 5 4 176 10.27
7 -5 -4 179.14 10.14
-7 5 4 171.01 10.24
-7 5 4 164.9 10.01
-7 5 3 0.93 2.06
-7 -5 3 -0.1 1.75
7 -5 -3 -0.57 1.76
-7 5 3 0.37 1.69
-7 5 3 0.97 1.49
-7 5 2 62.16 4.61
-7 -5 2 69.61 4.58
7 -5 -2 67.25 4.51
-7 5 2 63.83 4.61
-7 5 2 67.7 4.37
7 5 -2 61.72 4.02
-7 -5 1 3 2
-7 5 1 1.74 1.99
7 -5 -1 5.59 1.72
-7 5 1 4.15 1.6
7 5 -1 5.88 1.49
-7 5 0 65.18 4.89
-7 -5 0 64.63 4.97
7 5 0 72.08 4.56
-7 5 0 71.42 5.03
-7 5 -1 0.15 2.41
-7 5 -1 -0.82 2.41
-7 -5 -1 1.18 2.44
7 5 1 -1.01 2.01
-7 5 -2 127.72 8.14
-7 -5 -2 106.46 8.22
7 5 2 140.28 8.02
-7 -5 -2 118.12 7.79
-7 5 -2 128 8.31
7 5 3 13.84 3.32
-7 -5 -3 6.45 2.53
-7 5 -3 7.59 3.64
-7 -5 -3 6.91 3.47
-7 5 -3 5.37 3.81
-7 5 -4 132.67 9.29
7 -5 4 120.65 8.92
7 5 4 148.15 8.98
7 -7 -8 203.35 12.27
-7 7 8 217.43 12.73
-7 7 8 193.9 12.38
-7 7 7 17.33 3.43
7 -7 -7 21.61 3.51
-7 7 7 21.61 3.37
7 -7 -6 190.32 11.31
-7 7 6 185.66 11.5
-7 7 6 193.57 11.36
-7 7 5 10.49 2.73
7 -7 -5 10.36 2.56
-7 7 5 11.38 2.45
-7 7 4 75.49 5.09
7 -7 -4 58.93 4.61
-7 7 4 65.83 5.03
-7 7 4 57.99 4.54
7 -7 -3 8.6 2.1
-7 7 3 6.52 2.14
-7 7 3 7.1 2.09
-7 7 2 9.69 2.36
7 -7 -2 12.74 2.11
-7 7 2 9.65 2.04
-7 7 2 11.42 2.39
-7 7 1 5.92 2.31
-7 7 1 3.49 2.19
-7 -7 1 7.2 2.34
-7 7 1 4.48 1.91
-7 7 0 147.76 9.42
-7 -7 0 153.94 9.73
-7 7 0 151.45 9.34
-7 7 0 165 9.64
7 7 0 174.2 9.27
7 7 1 8.57 2.45
-7 7 -1 5.2 2.72
-7 -7 -1 6.65 2.79
-7 7 -1 5.28 2.86
-7 7 -2 175.91 10.46
-7 -7 -2 163.52 10.66
7 7 2 176.67 10.16
-7 -7 -2 156.95 10.15
7 7 3 15.01 3.45
-7 -7 -3 9.12 3.05
-7 7 -3 12.07 3.84
-7 7 -3 12.38 3.95
7 7 4 46.98 4.96
-7 7 -4 42.34 5.21
7 -7 4 35.55 4.65
7 -9 -7 1182.79 59.64
-7 9 7 1041.66 59.77
-7 9 7 1091.32 59.78
-7 9 6 0.77 2.91
7 -9 -6 1.1 3.03
-7 9 6 3.18 3.02
7 -9 -5 2757.04 145.15
-7 9 5 2774.53 145.51
-7 9 5 2719.76 145.39
-7 9 4 -0.34 2.72
7 -9 -4 3.85 2.42
-7 9 4 4.9 2.95
-7 9 4 2.12 2.26
-7 9 3 1715.36 89.99
7 -9 -3 1624.9 89.71
-7 9 3 1743.06 90.05
-7 9 3 1717.69 89.99
-7 9 2 6.26 2.43
-7 9 2 8.33 2.3
-7 9 2 9.42 2.75
-7 9 1 182.56 11.16
-7 9 1 187.74 11.16
-7 9 1 198.84 11.42
-7 9 0 10.58 2.49
-7 9 0 9.03 2.58
-7 9 -1 1202.89 61.05
-7 9 -1 1126.56 61.1
-7 -9 -1 1099.61 61
-7 -9 -2 3.95 2.85
-7 9 -2 10.41 3.48
-7 9 -2 8.05 3.39
-7 9 -3 2095.56 102.68
-7 9 -3 2002.11 102.75
-7 -9 -3 1779.1 102.11
7 -11 -6 123.43 7.86
-7 11 6 99.78 7.75
-7 11 6 102.3 7.8
-7 11 5 4.42 3.39
7 -11 -5 2.86 2.91
-7 11 5 4.9 2.89
-7 11 4 111.64 8.07
7 -11 -4 137.72 8.07
-7 11 4 121.7 8.39
-7 11 4 116.82 8.23
-7 11 3 -1.85 2.87
-7 11 3 -2.51 2.91
-7 11 3 0.36 2.51
-7 11 2 79.11 5.62
-7 11 2 69.68 5.71
-7 11 1 10.01 3.14
-7 11 1 12.39 2.94
-7 11 1 10.18 2.93
-7 11 0 20 3.22
-7 11 0 21.15 3.41
-7 11 0 19.66 3.39
-7 11 -1 4.85 3.02
-7 -11 -1 2.99 2.88
-7 11 -1 3.08 3.13
-7 11 -2 63.4 5.1
-7 11 -2 53.59 5.27
7 -13 -5 17.18 3.94
-7 13 4 20.44 3.59
-7 13 4 16.69 3.73
-7 13 3 16.65 3.44
-7 13 3 9.13 3.19
-7 13 3 7.74 3.3
-7 13 2 22.64 3.52
-7 -13 2 25.49 4.22
-7 13 2 22.33 3.9
-7 13 2 23.64 3.81
-7 13 1 17.68 3.64
-7 13 1 5.85 3.08
-7 -13 1 8.5 3.81
-7 13 1 9.43 3.11
-7 13 0 116.5 7.65
-7 13 0 116.19 8.15
8 0 -8 2272.35 120.28
-8 0 7 1.43 2.39
-8 0 6 1658.25 93.51
8 0 -6 1892.27 93.78
-8 0 5 3.07 2.24
8 0 -5 -1.58 2.55
-8 0 4 150.31 8.66
8 0 -4 133.51 8.67
-8 0 3 -2.13 2.21
-8 0 3 0.67 1.99
8 0 -3 -0.14 2.11
-8 0 2 2064.32 116.35
-8 0 2 2357.08 116.43
-8 0 1 -0.8 2.44
-8 0 1 0.81 2.38
-8 0 0 3857.69 211.76
-8 0 0 4212.17 211.93
-8 0 -1 1 3.02
-8 0 -1 4.97 3.15
-8 0 -2 1992.76 93.61
8 0 2 1601.3 93.03
-8 0 -3 1.07 3.91
8 0 3 3.33 3.19
8 -2 -8 9.25 3.61
8 2 -8 3.7 3.11
-8 2 7 67.47 5.74
8 -2 -7 88.54 6.34
8 2 -7 90.31 6.22
-8 2 6 6.5 2.48
8 -2 -6 7.65 3.08
-8 2 5 0.45 2.36
-8 -2 5 2.45 2.25
8 -2 -5 4.97 2.64
8 2 -5 -1.89 2.66
-8 2 5 0.77 2.02
-8 2 4 1.68 2.21
-8 -2 4 2.64 2.21
8 -2 -4 2.3 2.27
8 2 -4 -1.8 2.23
-8 2 4 0.76 1.93
-8 2 3 74.13 5.4
-8 -2 3 80.53 5.35
8 -2 -3 75.19 5.4
-8 2 3 81.77 5.38
-8 2 2 1.91 2.16
-8 -2 2 -0.26 2.19
-8 2 2 -0.36 1.9
8 -2 -2 1.82 1.85
-8 2 1 237.51 13.67
-8 -2 1 235.35 13.69
-8 2 1 218.48 13.56
-8 -2 1 268.63 13.92
-8 -2 0 2.42 2.9
-8 2 0 0.43 2.54
-8 -2 0 0.31 2.6
-8 2 0 5.04 2.71
-8 2 -1 186.44 11.51
-8 -2 -1 205.9 11.74
8 2 1 170.62 11.13
-8 2 -1 206.57 11.72
-8 -2 -2 13.24 3.69
8 2 2 17.01 3.13
-8 2 -2 18.16 3.98
-8 2 -3 134.76 8.92
-8 -2 -3 117.15 8.73
8 -2 3 120.7 8.29
8 2 3 125.07 8.24
8 4 -8 3.83 3.26
8 -4 -7 60.33 5.01
-8 4 7 55.54 4.96
-8 4 6 9.15 3.05
-8 4 6 9.13 2.73
8 -4 -6 13.33 3.07
-8 4 5 4.81 2.43
8 -4 -5 4.1 2.67
-8 4 5 10.9 2.35
-8 4 4 8.75 2.68
8 -4 -4 9.1 2.5
-8 4 4 9.16 2.38
-8 4 3 120.89 8.36
-8 -4 3 147.72 8.42
8 -4 -3 137.5 8.31
-8 4 3 138.91 8.44
-8 4 2 11.13 2.79
-8 -4 2 3.81 2.44
-8 4 2 6.78 2.47
8 -4 -2 5.55 2.11
-8 4 1 225.19 13.58
-8 -4 1 268.47 13.95
8 4 -1 232.7 13.32
-8 4 1 234.04 13.67
-8 4 0 6.12 2.74
-8 -4 0 7.7 3.2
8 4 0 5.09 2.09
-8 4 -1 116.54 7.88
-8 -4 -1 121.29 8.04
8 4 1 110.19 7.35
-8 4 -1 124.73 7.96
-8 -4 -2 8.08 2.79
-8 4 -2 12.73 3.5
-8 -4 -2 9.42 3.49
-8 4 -2 12.37 3.9
8 4 2 18.87 3.32
-8 4 -3 88.68 6.83
-8 -4 -3 74.48 6.52
8 -4 3 67.17 6.16
8 4 3 88.47 6.34
-8 6 8 1710.39 91.12
-8 6 7 0.96 3.03
8 -6 -7 0.16 3.2
8 -6 -6 1233.78 68.25
-8 6 6 1353.68 68.64
-8 6 5 7.52 3.03
8 -6 -5 5.02 2.67
-8 6 5 3.49 2.74
-8 6 4 128.19 8.23
8 -6 -4 131.87 7.85
-8 6 4 112.43 8
-8 6 3 5.55 2.81
8 -6 -3 3.8 2.31
-8 6 2 1506.89 80.14
-8 6 1 2.44 2.62
-8 -6 1 4.03 2.94
-8 6 1 1.65 2.55
-8 6 0 3030.31 155.37
-8 -6 0 2926.05 155.49
8 6 0 2948.66 154.93
-8 6 0 2865.85 155.29
8 6 1 0.13 2.57
-8 6 -1 -2.73 3.29
-8 -6 -1 2.75 2.98
-8 6 -1 3.56 3.38
-8 6 -2 1678.43 86.11
-8 -6 -2 1456.66 86.06
8 6 2 1601.43 85.72
-8 -6 -2 1636.98 85.7
-8 6 -2 1680.21 86.23
8 6 3 2.67 3.5
-8 6 -3 0.22 4.09
8 -8 -7 66.24 5.46
-8 8 7 63.52 5.73
-8 8 6 1.91 3.27
8 -8 -6 2.04 2.86
-8 8 6 4.4 2.97
-8 8 5 12.68 3.47
8 -8 -5 16.58 3.04
-8 8 5 15.64 3.3
-8 8 5 12.92 3.03
8 -8 -4 4.66 2.45
-8 8 4 3.69 2.85
-8 8 4 -1.32 2.46
8 -8 -3 22.28 2.95
-8 8 3 23.69 3.14
-8 8 3 21.43 3.56
-8 8 2 0.17 2.87
-8 8 2 3.55 2.76
-8 8 1 120.4 7.97
-8 8 1 128.16 8.38
-8 8 0 0.51 2.86
-8 8 0 -1.23 3.13
-8 8 -1 170.69 10.97
-8 -8 -1 172.84 11.4
-8 8 -1 183.76 11.38
-8 -8 -1 180.09 10.9
-8 -8 -2 10.17 3.27
-8 8 -2 9 4
8 -10 -6 13.28 3.48
-8 10 6 8.86 3.31
-8 10 5 26.6 4.09
8 -10 -5 27.89 3.65
-8 10 5 30.82 4.24
-8 10 5 28.55 4.02
-8 10 4 23.46 3.89
-8 10 4 15.24 3.69
-8 10 4 18.48 3.5
-8 10 3 131.44 9.06
-8 10 3 142.76 9.26
-8 10 3 142.44 9.01
-8 10 2 11.6 3.27
-8 10 2 13.91 3.13
-8 10 2 11.51 3.56
-8 10 1 155.74 9.9
-8 10 1 160.08 9.91
-8 10 1 158.61 10.28
-8 -10 0 8.74 3.31
-8 10 0 9.92 3.58
-8 10 -1 44.65 4.97
-8 12 3 7.71 3.52
-8 12 2 725.01 40.35
-8 12 2 759.07 40.5
-9 1 7 11.43 3.26
9 -1 -7 15.98 3.85
-9 1 6 117.84 8.36
9 -1 -6 140.52 8.66
9 1 -6 123.95 8.55
-9 1 5 2.12 2.68
-9 -1 5 4.96 2.88
9 -1 -5 2.23 2.94
9 1 -5 6.6 2.92
-9 1 4 247.89 14.05
-9 -1 4 259.92 14.02
9 -1 -4 214.01 13.88
-9 1 3 5.23 2.83
-9 -1 3 4.3 2.98
-9 1 3 2.16 2.64
-9 1 2 180.46 11.26
-9 -1 2 180.72 11.16
-9 1 2 193.07 11.2
-9 1 1 0.65 3.31
-9 -1 1 8.32 3.38
-9 1 1 3.04 2.98
-9 -1 1 4.91 3.45
-9 1 0 57.19 5.52
-9 -1 0 61.15 5.66
-9 1 0 77.53 5.99
-9 -1 0 77.71 6.17
-9 1 -1 8.38 3.94
-9 1 -1 13.48 3.83
-9 -1 -1 9.34 3.76
9 1 1 2.59 2.8
9 -1 2 80.28 6.3
9 1 2 87.62 6.34
-9 3 7 59.86 5.37
9 -3 -7 63.7 5.58
-9 3 6 1.52 3.05
9 -3 -6 4.1 3.25
-9 3 5 1243.52 66.65
9 -3 -5 1271.08 66.59
-9 3 5 1222.21 66.47
-9 3 4 1.72 2.69
-9 3 4 0.33 2.91
9 -3 -4 1.46 2.78
-9 3 3 2990.91 153.29
-9 -3 3 3413.16 153.42
-9 3 3 2906.02 153.19
-9 3 2 1.07 2.92
-9 -3 2 1.52 3.24
-9 3 2 1.56 2.87
-9 3 1 1914.01 95.16
-9 -3 1 2010.55 95.31
-9 3 1 1913.1 95.18
-9 3 0 1.95 3.25
-9 -3 0 0.2 3.7
-9 3 0 0.55 3.2
9 3 0 -0.82 2.65
-9 -3 -1 313.93 17.6
9 3 1 272.42 16.79
-9 3 -1 320.54 17.65
9 3 2 -1.84 3.33
-9 5 7 1.03 3.32
-9 5 6 64.94 5.56
9 -5 -6 73.39 5.62
-9 5 6 53.91 5.23
-9 5 5 -2.38 3.14
9 -5 -5 -1.81 2.8
-9 5 5 -2.16 2.82
-9 5 4 188.1 11.32
9 -5 -4 179.02 10.98
-9 5 4 180.97 11.14
-9 5 3 -0.7 3.04
-9 5 3 1.37 3.06
9 -5 -3 2.25 2.57
-9 5 2 195.81 11.59
-9 5 2 184.18 11.45
-9 -5 1 8.41 3.73
-9 5 1 6.46 3.17
-9 -5 0 99.18 7.43
-9 5 0 93.62 7.12
-9 5 -1 12.07 3.99
-9 -5 -1 14.46 4
-9 5 -1 14.56 4.03
9 5 2 73.89 6.04
9 -7 -6 154.16 9.36
-9 7 6 129.44 9.48
-9 7 5 13.74 3.91
9 -7 -5 9.44 3.23
-9 7 5 12 3.46
-9 7 4 209.55 12.31
9 -7 -4 192.94 11.77
-9 7 4 190.95 12.14
-9 7 3 10.64 3.6
-9 7 2 89.47 6.8
-9 7 1 3.99 3.57
-9 7 1 3.96 3.49
-9 7 0 16.69 3.97
-9 7 0 19.55 4.09
-9 -7 -1 3.56 3.55
-9 -7 -1 0.92 4.24
9 -9 -5 808.83 43.69
-9 9 3 1800.59 96.78
-9 9 3 1838.06 96.95
-9 9 2 0.19 3.54
-10 0 5 3.31 3.57
-10 0 4 1484.69 79.22
-10 0 3 -0.94 3.61
-10 0 2 230.73 13.92
-10 0 1 -5.73 3.97
-10 2 6 3.14 3.62
-10 2 5 134 8.71
10 -2 -5 116.57 8.3
-10 2 4 -1.85 3.34
-10 -2 4 -2.28 3.67
10 -2 -4 -0.35 2.92
-10 2 3 19.06 4.08
-10 -2 3 29.71 4.4
-10 2 2 0.57 3.51
-10 2 2 2.09 3.51
-10 -2 2 0.4 3.78
-10 2 1 52.08 5.57
-10 -2 1 66.52 6.03
-10 2 1 54.49 5.76
10 2 0 3.85 3.19
10 -4 -5 82.3 6.37
-10 4 4 2.04 3.53
-10 4 4 0.38 3.41
10 -4 -4 -0.49 2.84
-10 4 3 -0.94 3.7
-10 4 3 5.42 3.49
-10 4 2 2.05 4.17
-10 4 2 1.75 3.51
-10 -4 1 82.23 7.11
loop_
_publcif_info_tables.block_id
_publcif_info_tables.reference_item
{5770b306-16e6-459e-8418-7e60a4a1a42c} '_publcif_info_datablock.publ_exptl'
loop_
_publcif_info_cif.paper_type
CB
loop_
_publcif_info_datablock.id
_publcif_info_datablock.publ_exptl
_publcif_info_datablock.publ_geom
_publcif_info_datablock.structure
{5770b306-16e6-459e-8418-7e60a4a1a42c} y y y
loop_
_publcif_info_exptl_table_extra_item
sin_theta_over_lambda_max
loop_
_publcif_info_exptl_table_header_item
?
