#------------------------------------------------------------------------------
#$Date: 2016-12-02 04:09:34 +0200 (Fri, 02 Dec 2016) $
#$Revision: 188820 $
#$URL: file:///home/coder/svn-repositories/cod/cif/2/10/80/2108016.cif $
#------------------------------------------------------------------------------
#
# This file is available in the Crystallography Open Database (COD),
# http://www.crystallography.net/. The original data for this entry
# were provided by IUCr Journals, http://journals.iucr.org/.
#
# The file may be used within the scientific community so long as
# proper attribution is given to the journal article from which the
# data were obtained.
#
data_2108016
loop_
_publ_author_name
'Binns, Jack'
'McIntyre, Garry J.'
'Parsons, Simon'
_publ_section_title
;
 Neutron and high-pressure X-ray diffraction study of hydrogen-bonded
 ferroelectric rubidium hydrogen sulfate
;
_journal_issue                   6
_journal_name_full               'Acta Crystallographica Section B'
_journal_page_first              855
_journal_page_last               863
_journal_paper_doi               10.1107/S2052520616013494
_journal_volume                  72
_journal_year                    2016
_chemical_formula_moiety         'Rb1, H1 O4 S1'
_chemical_formula_sum            'H O4 Rb S'
_chemical_formula_weight         182.54
_chemical_name_systematic        'Rubidium hydrogensulfate'
_space_group_IT_number           14
_symmetry_cell_setting           monoclinic
_symmetry_space_group_name_Hall  '-P 2yn'
_symmetry_space_group_name_H-M   'P 1 21/n 1'
_atom_sites_solution_hydrogens   difmap
_atom_sites_solution_primary     other
_audit_creation_method           CRYSTALS_ver_14.40
_cell_angle_alpha                90
_cell_angle_beta                 118.069(8)
_cell_angle_gamma                90
_cell_formula_units_Z            8
_cell_length_a                   14.3602(19)
_cell_length_b                   4.6156(6)
_cell_length_c                   14.413(2)
_cell_measurement_reflns_used    4265
_cell_measurement_temperature    298
_cell_measurement_theta_max      28
_cell_measurement_theta_min      3
_cell_volume                     842.9(2)
_computing_cell_refinement       'SAINT (Siemens ,1995)'
_computing_data_collection       'SMART (Siemens, 1993)'
_computing_data_reduction        'Apex2 (Bruker AXS, 2006)'
_computing_molecular_graphics    'CAMERON (Watkin et al., 1996)'
_computing_publication_material  'CRYSTALS (Betteridge et al., 2003)'
_computing_structure_refinement  'CRYSTALS (Betteridge et al., 2003)'
_computing_structure_solution    'Superflip (Palatinus & Chapuis, 2007)'
_diffrn_ambient_temperature      298
_diffrn_measured_fraction_theta_full 0.995
_diffrn_measured_fraction_theta_max 0.937
_diffrn_measurement_device       Area
_diffrn_measurement_device_type  'Bruker SMART'
_diffrn_measurement_method       \w
_diffrn_radiation_monochromator  graphite
_diffrn_radiation_type           'Mo K\a'
_diffrn_radiation_wavelength     0.71073
_diffrn_reflns_av_R_equivalents  0.030
_diffrn_reflns_limit_h_max       19
_diffrn_reflns_limit_h_min       -18
_diffrn_reflns_limit_k_max       6
_diffrn_reflns_limit_k_min       -6
_diffrn_reflns_limit_l_max       19
_diffrn_reflns_limit_l_min       -18
_diffrn_reflns_number            8818
_diffrn_reflns_theta_full        25.338
_diffrn_reflns_theta_max         28.469
_diffrn_reflns_theta_min         1.651
_diffrn_standards_number         0
_exptl_absorpt_coefficient_mu    12.113
_exptl_absorpt_correction_T_max  0.23
_exptl_absorpt_correction_T_min  0.19
_exptl_absorpt_correction_type   multi-scan
_exptl_absorpt_process_details   'SADABS (Siemens, 1996)'
_exptl_crystal_colour            colourless
_exptl_crystal_density_diffrn    2.877
_exptl_crystal_density_method    'not measured'
_exptl_crystal_description       block
_exptl_crystal_F_000             688
_exptl_crystal_size_max          0.180
_exptl_crystal_size_mid          0.150
_exptl_crystal_size_min          0.120
_refine_diff_density_max         1.19
_refine_diff_density_min         -0.78
_refine_ls_extinction_coef       13.1(8)
_refine_ls_extinction_method     'Larson (1970), Equation 22'
_refine_ls_goodness_of_fit_ref   1.0000
_refine_ls_hydrogen_treatment    noref
_refine_ls_matrix_type           full
_refine_ls_number_parameters     137
_refine_ls_number_reflns         1987
_refine_ls_number_restraints     58
_refine_ls_R_factor_all          0.0380
_refine_ls_R_factor_gt           0.0274
_refine_ls_shift/su_max          0.0009223
_refine_ls_shift/su_mean         0.0000429
_refine_ls_structure_factor_coef Fsqd
_refine_ls_weighting_details
;
 Method, part 1, Chebychev polynomial, (Watkin, 1994, Prince, 1982)
 [weight] = 1.0/[A~0~*T~0~(x)+A~1~*T~1~(x) ... +A~n-1~]*T~n-1~(x)]
 where A~i~ are the Chebychev coefficients listed below and x= Fcalc/Fmax
 Method = Robust Weighting (Prince, 1982)
 W = [weight] * [1-(deltaF/6*sigmaF)^2^]^2^
 A~i~ are:
 3.39 5.02 2.56 0.708
;
_refine_ls_weighting_scheme      calc
_refine_ls_wR_factor_all         0.0570
_refine_ls_wR_factor_gt          0.0532
_refine_ls_wR_factor_ref         0.0570
_reflns_number_gt                1636
_reflns_number_total             1992
_reflns_threshold_expression     I>2.0\s(I)
_cod_data_source_file            fx5004sup1.cif
_cod_data_source_block           1
_cod_depositor_comments
;
The following automatic conversions were performed:

'_atom_sites_solution_primary' value 'Other' changed to 'other'
according to
/usr/data/users/saulius/crontab/automatic-downloads/rss-feeds/IUCr/lib/dictionaries/cif_core.dic
dictionary named 'cif_core.dic' version 2.4.2 from 2011-04-26.

Automatic conversion script
Id: cif_fix_values 4268 2015-11-12 08:31:59Z antanas 
;
_cod_original_sg_symbol_H-M      'P 21/n '
_cod_original_formula_sum        'H1 O4 Rb1 S1'
_cod_database_code               2108016
loop_
_symmetry_equiv_pos_as_xyz
x,y,z
-x,-y,-z
x+1/2,-y+1/2,z+1/2
-x+1/2,y+1/2,-z+1/2
loop_
_atom_site_type_symbol
_atom_site_label
_atom_site_fract_x
_atom_site_fract_y
_atom_site_fract_z
_atom_site_U_iso_or_equiv
_atom_site_adp_type
_atom_site_occupancy
Rb Rb1 0.70777(3) 0.64082(7) 0.58437(3) 0.0279 Uani 1.0000
Rb Rb2 0.46118(3) 0.70202(7) 0.83628(3) 0.0309 Uani 1.0000
S S1 0.54896(7) 0.21607(16) 0.67365(8) 0.0252 Uani 1.0000
S S2 0.20686(7) 0.76118(16) 0.57925(7) 0.0211 Uani 1.0000
O O5 0.2581(2) 0.9949(5) 0.66787(19) 0.0331 Uani 1.0000
O O6 0.1979(2) 0.8821(6) 0.48282(19) 0.0322 Uani 1.0000
O O7 0.2810(2) 0.5209(5) 0.6178(2) 0.0322 Uani 1.0000
O O8 0.1063(2) 0.6925(6) 0.5735(2) 0.0384 Uani 1.0000
O O10 0.462(2) 0.035(4) 0.5901(12) 0.0345 Uani 0.4926
O O11 0.454(2) -0.006(4) 0.6070(13) 0.0358 Uani 0.5074
O O20 0.548(3) 0.240(5) 0.7682(16) 0.0474 Uani 0.4817
O O21 0.556(2) 0.169(4) 0.7787(14) 0.0436 Uani 0.5183
O O30 0.5110(11) 0.478(2) 0.6055(7) 0.0358 Uani 0.5318
O O31 0.5209(15) 0.509(3) 0.6428(9) 0.0534 Uani 0.4682
O O4 0.6455(2) 0.1174(6) 0.6772(2) 0.0389 Uani 1.0000
H H1 0.4758 -0.1539 0.6029 0.0699 Uiso 1.0000
H H2 0.2652 1.1493 0.6455 0.0497 Uiso 1.0000
loop_
_atom_site_aniso_label
_atom_site_aniso_U_11
_atom_site_aniso_U_22
_atom_site_aniso_U_33
_atom_site_aniso_U_12
_atom_site_aniso_U_13
_atom_site_aniso_U_23
Rb1 0.02901(18) 0.02961(18) 0.02711(17) 0.00104(13) 0.01488(13) 0.00102(13)
Rb2 0.02669(18) 0.0362(2) 0.02875(19) -0.00020(14) 0.01208(15) 0.00064(14)
S1 0.0254(4) 0.0187(4) 0.0330(5) -0.0007(3) 0.0148(4) -0.0027(3)
S2 0.0228(4) 0.0195(3) 0.0204(4) -0.0018(3) 0.0097(3) -0.0004(3)
O5 0.0523(16) 0.0212(12) 0.0234(12) -0.0052(11) 0.0157(12) -0.0017(9)
O6 0.0390(14) 0.0339(13) 0.0229(12) -0.0053(11) 0.0140(11) 0.0016(10)
O7 0.0375(14) 0.0217(12) 0.0378(14) 0.0024(10) 0.0182(12) 0.0003(10)
O8 0.0282(14) 0.0501(17) 0.0397(16) -0.0086(12) 0.0182(13) 0.0016(12)
O10 0.030(6) 0.023(4) 0.035(4) -0.001(3) 0.003(4) 0.006(3)
O11 0.023(3) 0.023(5) 0.054(6) -0.005(4) 0.012(5) 0.000(4)
O20 0.050(6) 0.060(10) 0.034(4) 0.017(7) 0.022(4) 0.001(4)
O21 0.044(8) 0.055(9) 0.041(3) -0.012(7) 0.027(5) -0.004(4)
O30 0.039(4) 0.020(3) 0.041(5) -0.001(2) 0.012(4) 0.001(3)
O31 0.071(7) 0.016(2) 0.065(8) 0.005(3) 0.026(8) 0.000(4)
O4 0.0304(14) 0.0443(16) 0.0448(16) 0.0015(12) 0.0201(12) -0.0084(12)
loop_
_atom_type_symbol
_atom_type_scat_Cromer_Mann_a1
_atom_type_scat_Cromer_Mann_a2
_atom_type_scat_Cromer_Mann_a3
_atom_type_scat_Cromer_Mann_a4
_atom_type_scat_Cromer_Mann_b1
_atom_type_scat_Cromer_Mann_b2
_atom_type_scat_Cromer_Mann_b3
_atom_type_scat_Cromer_Mann_b4
_atom_type_scat_Cromer_Mann_c
_atom_type_scat_dispersion_real
_atom_type_scat_dispersion_imag
_atom_type_scat_source
O 3.0485 2.2868 1.5463 0.8670 13.2771 5.7011 0.3239 32.9089 0.2508 0.0106
0.0060 'International Tables Vol C 4.2.6.8 and 6.1.1.4'
H 0.4930 0.3229 0.1402 0.0408 10.5109 26.1257 3.1424 57.7998 0.0030 0.0000
0.0000 'International Tables Vol C 4.2.6.8 and 6.1.1.4'
S 6.9053 5.2034 1.4379 1.5863 1.4679 22.2151 0.2536 56.1720 0.8669 0.1246
0.1234 'International Tables Vol C 4.2.6.8 and 6.1.1.4'
Rb 17.1784 9.6435 5.1399 1.5292 1.7888 17.3151 0.2748 164.9340 3.4873 -0.9393
2.9676 'International Tables Vol C 4.2.6.8 and 6.1.1.4'
loop_
_geom_angle_atom_site_label_1
_geom_angle_atom_site_label_2
_geom_angle_atom_site_label_3
_geom_angle
_geom_angle_publ_flag
O10 S1 O11 12.8(12) yes
O10 S1 O20 116.2(16) yes
O11 S1 O20 104.1(16) yes
O10 S1 O21 111.3(12) yes
O11 S1 O21 98.6(11) yes
O20 S1 O21 13.6(16) yes
O10 S1 O30 90.8(9) yes
O11 S1 O30 100.3(7) yes
O20 S1 O30 114.6(9) yes
O21 S1 O30 128.1(9) yes
O10 S1 O31 105.7(10) yes
O11 S1 O31 112.6(11) yes
O20 S1 O31 95.7(11) yes
O21 S1 O31 109.2(9) yes
O30 S1 O31 19.9(5) yes
O10 S1 O4 106.0(12) yes
O11 S1 O4 110.4(11) yes
O20 S1 O4 116.9(12) yes
O21 S1 O4 108.5(9) yes
O30 S1 O4 109.2(5) yes
O31 S1 O4 116.1(8) yes
O5 S2 O6 108.25(15) yes
O5 S2 O7 103.61(15) yes
O6 S2 O7 112.30(16) yes
O5 S2 O8 105.75(17) yes
O6 S2 O8 113.31(17) yes
O7 S2 O8 112.81(17) yes
S2 O5 H2 112.4 no
S1 O10 H1 110.6 no
S1 O11 H1 111.1 no
O10 H1 O11 23.4 no
loop_
_geom_bond_atom_site_label_1
_geom_bond_atom_site_label_2
_geom_bond_distance
_geom_bond_publ_flag
S1 O10 1.515(13) yes
S1 O11 1.608(13) yes
S1 O20 1.375(16) yes
S1 O21 1.487(13) yes
S1 O30 1.488(10) yes
S1 O31 1.421(13) yes
S1 O4 1.437(3) yes
S2 O5 1.566(3) yes
S2 O6 1.446(3) yes
S2 O7 1.455(3) yes
S2 O8 1.442(3) yes
O5 H2 0.808 no
O10 H1 0.895 no
O11 H1 0.763 no

_cod_database_fobs_code 2108016
