#------------------------------------------------------------------------------
#$Date: 2016-12-02 04:09:34 +0200 (Fri, 02 Dec 2016) $
#$Revision: 188820 $
#$URL: file:///home/coder/svn-repositories/cod/cif/2/10/80/2108018.cif $
#------------------------------------------------------------------------------
#
# This file is available in the Crystallography Open Database (COD),
# http://www.crystallography.net/. The original data for this entry
# were provided by IUCr Journals, http://journals.iucr.org/.
#
# The file may be used within the scientific community so long as
# proper attribution is given to the journal article from which the
# data were obtained.
#
data_2108018
loop_
_publ_author_name
'Binns, Jack'
'McIntyre, Garry J.'
'Parsons, Simon'
_publ_section_title
;
 Neutron and high-pressure X-ray diffraction study of hydrogen-bonded
 ferroelectric rubidium hydrogen sulfate
;
_journal_issue                   6
_journal_name_full               'Acta Crystallographica Section B'
_journal_page_first              855
_journal_page_last               863
_journal_paper_doi               10.1107/S2052520616013494
_journal_volume                  72
_journal_year                    2016
_chemical_formula_moiety         'H1 O4 S1, Rb1'
_chemical_formula_sum            'H O4 Rb S'
_chemical_formula_weight         182.54
_chemical_name_systematic        'rubidium hydrogen sulfate'
_space_group_IT_number           7
_symmetry_cell_setting           monoclinic
_symmetry_space_group_name_Hall  'P -2yac'
_symmetry_space_group_name_H-M   'P 1 n 1'
_atom_sites_solution_hydrogens   difmap
_atom_sites_solution_primary     direct
_audit_creation_method           CRYSTALS_ver_14.40
_cell_angle_alpha                90
_cell_angle_beta                 117.68(3)
_cell_angle_gamma                90
_cell_formula_units_Z            8
_cell_length_a                   14.166(5)
_cell_length_b                   4.5982(9)
_cell_length_c                   14.326(4)
_cell_measurement_reflns_used    3627
_cell_measurement_temperature    293
_cell_measurement_theta_max      26
_cell_measurement_theta_min      3
_cell_volume                     826.4(5)
_computing_cell_refinement       'Apex2 (Bruker AXS, 2006)'
_computing_data_collection       'Apex2 (Bruker AXS, 2006)'
_computing_data_reduction        'Apex2 (Bruker AXS, 2006)'
_computing_molecular_graphics    'CAMERON (Watkin et al., 1996)'
_computing_publication_material  'CRYSTALS (Betteridge et al., 2003)'
_computing_structure_refinement  'CRYSTALS (Betteridge et al., 2003)'
_computing_structure_solution    'SIR92 (Altomare et al., 1994)'
_diffrn_ambient_temperature      293
_diffrn_measured_fraction_theta_full 0.417
_diffrn_measured_fraction_theta_max 0.409
_diffrn_measurement_device       Area
_diffrn_measurement_device_type  'Bruker Kappa Apex2'
_diffrn_measurement_method       \w
_diffrn_radiation_monochromator  graphite
_diffrn_radiation_type           'Mo K\a'
_diffrn_radiation_wavelength     0.71073
_diffrn_reflns_av_R_equivalents  0.025
_diffrn_reflns_limit_h_max       15
_diffrn_reflns_limit_h_min       -16
_diffrn_reflns_limit_k_max       5
_diffrn_reflns_limit_k_min       -5
_diffrn_reflns_limit_l_max       17
_diffrn_reflns_limit_l_min       -17
_diffrn_reflns_number            4613
_diffrn_reflns_theta_full        25.094
_diffrn_reflns_theta_max         26.140
_diffrn_reflns_theta_min         3.343
_diffrn_standards_number         0
_exptl_absorpt_coefficient_mu    12.355
_exptl_absorpt_correction_T_max  0.29
_exptl_absorpt_correction_T_min  0.24
_exptl_absorpt_correction_type   multi-scan
_exptl_absorpt_process_details   'SADABS (Siemens, 1996)'
_exptl_crystal_colour            colourless
_exptl_crystal_density_diffrn    2.934
_exptl_crystal_density_method    'not measured'
_exptl_crystal_description       block
_exptl_crystal_F_000             688
_exptl_crystal_size_max          0.200
_exptl_crystal_size_mid          0.120
_exptl_crystal_size_min          0.100
_refine_diff_density_max         0.84
_refine_diff_density_min         -1.01
_refine_ls_abs_structure_details 'Flack (1983), 562 Friedel-pairs'
_refine_ls_abs_structure_Flack   0.236(18)
_refine_ls_extinction_coef       42(7)
_refine_ls_extinction_method     'Larson (1970), Equation 22'
_refine_ls_goodness_of_fit_ref   0.8328
_refine_ls_hydrogen_treatment    constr
_refine_ls_matrix_type           full
_refine_ls_number_parameters     99
_refine_ls_number_reflns         1149
_refine_ls_number_restraints     2
_refine_ls_R_factor_all          0.0484
_refine_ls_R_factor_gt           0.0437
_refine_ls_shift/su_max          0.0000811
_refine_ls_shift/su_mean         0.0000244
_refine_ls_structure_factor_coef Fsqd
_refine_ls_weighting_details
;
 Method, part 1, Chebychev polynomial, (Watkin, 1994, Prince, 1982)
 [weight] = 1.0/[A~0~*T~0~(x)+A~1~*T~1~(x) ... +A~n-1~]*T~n-1~(x)]
 where A~i~ are the Chebychev coefficients listed below and x= Fcalc/Fmax
 Method = Robust Weighting (Prince, 1982)
 W = [weight] * [1-(deltaF/6*sigmaF)^2^]^2^
 A~i~ are:
 22.4 35.5 18.6 5.57
;
_refine_ls_weighting_scheme      calc
_refine_ls_wR_factor_all         0.1823
_refine_ls_wR_factor_gt          0.1162
_refine_ls_wR_factor_ref         0.1162
_reflns_number_gt                1149
_reflns_number_total             1240
_reflns_threshold_expression     I>2.0\s(I)
_cod_data_source_file            fx5004sup1.cif
_cod_data_source_block           JB0005
_cod_original_sg_symbol_H-M      'P 1 n 1 '
_cod_original_formula_sum        'H1 O4 Rb1 S1'
_cod_database_code               2108018
loop_
_symmetry_equiv_pos_as_xyz
x,y,z
x+1/2,-y,z+1/2
loop_
_atom_site_type_symbol
_atom_site_label
_atom_site_fract_x
_atom_site_fract_y
_atom_site_fract_z
_atom_site_U_iso_or_equiv
_atom_site_adp_type
_atom_site_occupancy
Rb Rb1 0.2906(4) 0.6328(2) 0.4137(3) 0.0255(4) Uiso 1.0000
Rb Rb2 0.0380(3) 0.4708(3) 0.6621(3) 0.0304(4) Uiso 1.0000
Rb Rb3 0.2073(4) 1.0993(3) 0.0837(3) 0.0254(4) Uiso 1.0000
Rb Rb4 -0.0391(4) 0.0670(3) 0.3351(3) 0.0282(4) Uiso 1.0000
S S1 0.4530(7) 1.0437(7) 0.3275(6) 0.0224(8) Uiso 1.0000
S S2 0.2037(8) 1.0268(8) 0.5751(7) 0.0205(8) Uiso 1.0000
S S3 0.0530(9) 0.5303(7) 0.1765(7) 0.0221(7) Uiso 1.0000
S S4 -0.2125(9) 0.4977(7) 0.4153(8) 0.0187(6) Uiso 1.0000
O O1 0.5427(18) 1.259(2) 0.3870(17) 0.038(3) Uiso 1.0000
O O2 0.454(2) 1.016(3) 0.2296(19) 0.045(4) Uiso 1.0000
O O3 0.4944(17) 0.781(2) 0.4016(15) 0.031(3) Uiso 1.0000
O O4 0.3519(19) 1.170(2) 0.3160(18) 0.037(3) Uiso 1.0000
O O5 0.2516(17) 1.2562(18) 0.6624(15) 0.025(2) Uiso 1.0000
O O6 0.1948(19) 1.1474(19) 0.4774(16) 0.022(2) Uiso 1.0000
O O7 0.2869(18) 0.7830(19) 0.6225(16) 0.031(3) Uiso 1.0000
O O8 0.104(2) 0.959(3) 0.572(2) 0.048(4) Uiso 1.0000
O O9 -0.0404(19) 0.721(3) 0.0875(18) 0.052(4) Uiso 1.0000
O O10 0.056(3) 0.587(2) 0.276(2) 0.057(4) Uiso 1.0000
O O11 0.0126(19) 0.239(2) 0.1352(18) 0.040(3) Uiso 1.0000
O O12 0.1490(18) 0.6183(17) 0.1735(16) 0.026(3) Uiso 1.0000
O O13 -0.2566(19) 0.2547(19) 0.3307(16) 0.027(2) Uiso 1.0000
O O14 -0.201(2) 0.369(2) 0.5102(19) 0.033(3) Uiso 1.0000
O O15 -0.2817(16) 0.7356(17) 0.3849(14) 0.022(2) Uiso 1.0000
O O16 -0.1047(19) 0.5744(19) 0.4279(17) 0.031(3) Uiso 1.0000
H H1 0.5355 1.4279 0.3984 0.0290 Uiso 1.0000
H H2 0.2782 1.4060 0.6531 0.0273 Uiso 1.0000
H H3 -0.0231 0.8894 0.1053 0.0301 Uiso 1.0000
H H4 -0.2594 0.1035 0.3582 0.0220 Uiso 1.0000
loop_
_atom_type_symbol
_atom_type_scat_Cromer_Mann_a1
_atom_type_scat_Cromer_Mann_a2
_atom_type_scat_Cromer_Mann_a3
_atom_type_scat_Cromer_Mann_a4
_atom_type_scat_Cromer_Mann_b1
_atom_type_scat_Cromer_Mann_b2
_atom_type_scat_Cromer_Mann_b3
_atom_type_scat_Cromer_Mann_b4
_atom_type_scat_Cromer_Mann_c
_atom_type_scat_dispersion_real
_atom_type_scat_dispersion_imag
_atom_type_scat_source
O 3.0485 2.2868 1.5463 0.8670 13.2771 5.7011 0.3239 32.9089 0.2508 0.0106
0.0060 'International Tables Vol C 4.2.6.8 and 6.1.1.4'
H 0.4930 0.3229 0.1402 0.0408 10.5109 26.1257 3.1424 57.7998 0.0030 0.0000
0.0000 'International Tables Vol C 4.2.6.8 and 6.1.1.4'
S 6.9053 5.2034 1.4379 1.5863 1.4679 22.2151 0.2536 56.1720 0.8669 0.1246
0.1234 'International Tables Vol C 4.2.6.8 and 6.1.1.4'
Rb 17.1784 9.6435 5.1399 1.5292 1.7888 17.3151 0.2748 164.9340 3.4873 -0.9393
2.9676 'International Tables Vol C 4.2.6.8 and 6.1.1.4'
loop_
_geom_angle_atom_site_label_1
_geom_angle_atom_site_label_2
_geom_angle_atom_site_label_3
_geom_angle
_geom_angle_publ_flag
O1 S1 O2 102.7(10) yes
O1 S1 O3 100.0(12) yes
O2 S1 O3 116.0(8) yes
O1 S1 O4 108.7(10) yes
O2 S1 O4 112.4(15) yes
O3 S1 O4 115.1(7) yes
O5 S2 O6 109.3(7) yes
O5 S2 O7 100.6(12) yes
O6 S2 O7 114.1(8) yes
O5 S2 O8 103.3(10) yes
O6 S2 O8 114.3(17) yes
O7 S2 O8 113.6(9) yes
O9 S3 O10 108.8(12) yes
O9 S3 O11 98.9(13) yes
O10 S3 O11 113.1(9) yes
O9 S3 O12 105.3(10) yes
O10 S3 O12 113.0(15) yes
O11 S3 O12 116.2(8) yes
O13 S4 O14 105.9(9) yes
O13 S4 O15 110.6(13) yes
O14 S4 O15 112.1(8) yes
O13 S4 O16 106.4(9) yes
O14 S4 O16 109.1(17) yes
O15 S4 O16 112.5(7) yes
S1 O1 H1 125.9 no
S2 O5 H2 120.3 no
S3 O9 H3 104.7 no
S4 O13 H4 109.4 no
loop_
_geom_bond_atom_site_label_1
_geom_bond_atom_site_label_2
_geom_bond_distance
_geom_bond_publ_flag
S1 O1 1.52(2) yes
S1 O2 1.417(19) yes
S1 O3 1.534(16) yes
S1 O4 1.48(2) yes
S2 O5 1.533(18) yes
S2 O6 1.456(17) yes
S2 O7 1.538(19) yes
S2 O8 1.43(2) yes
S3 O9 1.61(3) yes
S3 O10 1.43(2) yes
S3 O11 1.468(15) yes
S3 O12 1.438(19) yes
S4 O13 1.551(17) yes
S4 O14 1.421(19) yes
S4 O15 1.396(15) yes
S4 O16 1.49(2) yes
O1 H1 0.810 no
O5 H2 0.825 no
O9 H3 0.815 no
O13 H4 0.809 no

_cod_database_fobs_code 2108018
