#------------------------------------------------------------------------------
#$Date: 2016-12-02 04:09:34 +0200 (Fri, 02 Dec 2016) $
#$Revision: 188820 $
#$URL: file:///home/coder/svn-repositories/cod/cif/2/10/80/2108019.cif $
#------------------------------------------------------------------------------
#
# This file is available in the Crystallography Open Database (COD),
# http://www.crystallography.net/. The original data for this entry
# were provided by IUCr Journals, http://journals.iucr.org/.
#
# The file may be used within the scientific community so long as
# proper attribution is given to the journal article from which the
# data were obtained.
#
data_2108019
loop_
_publ_author_name
'Binns, Jack'
'McIntyre, Garry J.'
'Parsons, Simon'
_publ_section_title
;
 Neutron and high-pressure X-ray diffraction study of hydrogen-bonded
 ferroelectric rubidium hydrogen sulfate
;
_journal_issue                   6
_journal_name_full               'Acta Crystallographica Section B'
_journal_page_first              855
_journal_page_last               863
_journal_paper_doi               10.1107/S2052520616013494
_journal_volume                  72
_journal_year                    2016
_chemical_formula_moiety         'H1 O4 S1, Rb1 '
_chemical_formula_sum            'H O4 Rb S'
_chemical_formula_weight         182.54
_chemical_name_systematic        'rubidium hydrogensulfate'
_space_group_IT_number           14
_symmetry_cell_setting           monoclinic
_symmetry_space_group_name_Hall  '-P 2ybc'
_symmetry_space_group_name_H-M   'P 1 21/c 1'
_atom_sites_solution_hydrogens   difmap
_atom_sites_solution_primary     direct
_audit_creation_method           CRYSTALS_ver_14.40
_cell_angle_alpha                90
_cell_angle_beta                 110.938(7)
_cell_angle_gamma                90
_cell_formula_units_Z            4
_cell_length_a                   7.3202(7)
_cell_length_b                   7.765(2)
_cell_length_c                   7.3247(8)
_cell_measurement_reflns_used    1177
_cell_measurement_temperature    293
_cell_measurement_theta_max      25
_cell_measurement_theta_min      3
_cell_volume                     388.85(12)
_computing_cell_refinement       'Apex2 (Bruker AXS, 2006)'
_computing_data_collection       'Apex2 (Bruker AXS, 2006)'
_computing_data_reduction        'Apex2 (Bruker AXS, 2006)'
_computing_molecular_graphics    'CAMERON (Watkin et al., 1996)'
_computing_publication_material  'CRYSTALS (Betteridge et al., 2003)'
_computing_structure_refinement  'CRYSTALS (Betteridge et al., 2003)'
_computing_structure_solution    'SIR92 (Altomare et al., 1994)'
_diffrn_ambient_temperature      293
_diffrn_measured_fraction_theta_full 0.415
_diffrn_measured_fraction_theta_max 0.415
_diffrn_measurement_device       Area
_diffrn_measurement_device_type  'Bruker Kappa Apex2'
_diffrn_measurement_method       \w
_diffrn_radiation_monochromator  graphite
_diffrn_radiation_type           'Mo K\a'
_diffrn_radiation_wavelength     0.71073
_diffrn_reflns_av_R_equivalents  0.030
_diffrn_reflns_limit_h_max       8
_diffrn_reflns_limit_h_min       -8
_diffrn_reflns_limit_k_max       4
_diffrn_reflns_limit_k_min       -3
_diffrn_reflns_limit_l_max       7
_diffrn_reflns_limit_l_min       -7
_diffrn_reflns_number            1844
_diffrn_reflns_theta_full        25.314
_diffrn_reflns_theta_max         25.314
_diffrn_reflns_theta_min         2.979
_diffrn_standards_number         0
_exptl_absorpt_coefficient_mu    13.129
_exptl_absorpt_correction_T_max  0.27
_exptl_absorpt_correction_T_min  0.17
_exptl_absorpt_correction_type   multi-scan
_exptl_absorpt_process_details   'SADABS (Siemens, 1996)'
_exptl_crystal_colour            colourless
_exptl_crystal_density_diffrn    3.118
_exptl_crystal_density_method    'not measured'
_exptl_crystal_description       block
_exptl_crystal_F_000             344
_exptl_crystal_size_max          0.200
_exptl_crystal_size_mid          0.120
_exptl_crystal_size_min          0.100
_refine_diff_density_max         0.50
_refine_diff_density_min         -0.35
_refine_ls_extinction_method     None
_refine_ls_goodness_of_fit_ref   0.9804
_refine_ls_hydrogen_treatment    constr
_refine_ls_matrix_type           full
_refine_ls_number_parameters     55
_refine_ls_number_reflns         254
_refine_ls_number_restraints     34
_refine_ls_R_factor_all          0.0447
_refine_ls_R_factor_gt           0.0320
_refine_ls_shift/su_max          0.0003004
_refine_ls_shift/su_mean         0.0000146
_refine_ls_structure_factor_coef Fsqd
_refine_ls_weighting_details
;
 Method, part 1, Chebychev polynomial, (Watkin, 1994, Prince, 1982)
 [weight] = 1.0/[A~0~*T~0~(x)+A~1~*T~1~(x) ... +A~n-1~]*T~n-1~(x)]
 where A~i~ are the Chebychev coefficients listed below and x= Fcalc/Fmax
 Method = Robust Weighting (Prince, 1982)
 W = [weight] * [1-(deltaF/6*sigmaF)^2^]^2^
 A~i~ are:
 9.15 14.4 7.72 2.50
;
_refine_ls_weighting_scheme      calc
_refine_ls_wR_factor_all         0.2266
_refine_ls_wR_factor_gt          0.0727
_refine_ls_wR_factor_ref         0.0727
_reflns_number_gt                254
_reflns_number_total             295
_reflns_threshold_expression     I>2.0\s(I)
_cod_data_source_file            fx5004sup1.cif
_cod_data_source_block           JB0006
_cod_original_cell_volume        388.83(13)
_cod_original_sg_symbol_H-M      'P 1 21/c 1 '
_cod_original_formula_sum        'H1 O4 Rb1 S1'
_cod_database_code               2108019
loop_
_symmetry_equiv_pos_as_xyz
x,y,z
-x,-y,-z
-x,y+1/2,-z+1/2
x,-y+1/2,z+1/2
loop_
_atom_site_type_symbol
_atom_site_label
_atom_site_fract_x
_atom_site_fract_y
_atom_site_fract_z
_atom_site_U_iso_or_equiv
_atom_site_adp_type
_atom_site_occupancy
Rb Rb1 0.79334(9) 0.6264(2) 0.79821(10) 0.0312 Uani 1.0000
O O3 0.8951(9) 0.2471(18) 0.8668(11) 0.0355 Uani 1.0000
S S1 0.7470(2) 0.1201(7) 0.7834(3) 0.0239 Uani 1.0000
O O2 0.8078(8) -0.0168(19) 0.6860(9) 0.0370 Uani 1.0000
O O1 0.5713(8) 0.2162(17) 0.6291(11) 0.0427 Uani 1.0000
O O4 0.6581(8) 0.0545(17) 0.9192(9) 0.0275 Uani 1.0000
H H11 0.6019 0.2800 0.5549 0.0670 Uiso 1.0000
loop_
_atom_site_aniso_label
_atom_site_aniso_U_11
_atom_site_aniso_U_22
_atom_site_aniso_U_33
_atom_site_aniso_U_12
_atom_site_aniso_U_13
_atom_site_aniso_U_23
Rb1 0.0246(4) 0.042(2) 0.0268(6) -0.0019(6) 0.0092(3) -0.0025(6)
O3 0.042(3) 0.032(9) 0.035(3) -0.015(3) 0.017(2) -0.012(4)
S1 0.0215(8) 0.027(5) 0.0246(12) -0.0027(10) 0.0099(7) -0.0055(12)
O2 0.050(3) 0.025(9) 0.045(4) -0.005(4) 0.028(3) -0.010(5)
O1 0.029(3) 0.053(12) 0.047(3) 0.007(3) 0.015(2) 0.018(4)
O4 0.045(3) 0.011(12) 0.034(3) -0.009(3) 0.022(2) -0.008(3)
loop_
_atom_type_symbol
_atom_type_scat_Cromer_Mann_a1
_atom_type_scat_Cromer_Mann_a2
_atom_type_scat_Cromer_Mann_a3
_atom_type_scat_Cromer_Mann_a4
_atom_type_scat_Cromer_Mann_b1
_atom_type_scat_Cromer_Mann_b2
_atom_type_scat_Cromer_Mann_b3
_atom_type_scat_Cromer_Mann_b4
_atom_type_scat_Cromer_Mann_c
_atom_type_scat_dispersion_real
_atom_type_scat_dispersion_imag
_atom_type_scat_source
O 3.0485 2.2868 1.5463 0.8670 13.2771 5.7011 0.3239 32.9089 0.2508 0.0106
0.0060 'International Tables Vol C 4.2.6.8 and 6.1.1.4'
H 0.4930 0.3229 0.1402 0.0408 10.5109 26.1257 3.1424 57.7998 0.0030 0.0000
0.0000 'International Tables Vol C 4.2.6.8 and 6.1.1.4'
S 6.9053 5.2034 1.4379 1.5863 1.4679 22.2151 0.2536 56.1720 0.8669 0.1246
0.1234 'International Tables Vol C 4.2.6.8 and 6.1.1.4'
Rb 17.1784 9.6435 5.1399 1.5292 1.7888 17.3151 0.2748 164.9340 3.4873 -0.9393
2.9676 'International Tables Vol C 4.2.6.8 and 6.1.1.4'
loop_
_geom_angle_atom_site_label_1
_geom_angle_atom_site_label_2
_geom_angle_atom_site_label_3
_geom_angle
_geom_angle_publ_flag
O3 S1 O2 113.6(5) yes
O3 S1 O1 106.4(7) yes
O2 S1 O1 108.3(5) yes
O3 S1 O4 113.8(5) yes
O2 S1 O4 111.9(7) yes
O1 S1 O4 102.0(4) yes
S1 O1 H11 114.6 no
loop_
_geom_bond_atom_site_label_1
_geom_bond_atom_site_label_2
_geom_bond_distance
_geom_bond_publ_flag
O3 S1 1.431(11) yes
S1 O2 1.437(12) yes
S1 O1 1.565(8) yes
S1 O4 1.461(7) yes
O1 H11 0.824 no

_cod_database_fobs_code 2108019
