#------------------------------------------------------------------------------
#$Date: 2016-12-02 04:09:34 +0200 (Fri, 02 Dec 2016) $
#$Revision: 188820 $
#$URL: file:///home/coder/svn-repositories/cod/cif/2/10/80/2108017.cif $
#------------------------------------------------------------------------------
#
# This file is available in the Crystallography Open Database (COD),
# http://www.crystallography.net/. The original data for this entry
# were provided by IUCr Journals, http://journals.iucr.org/.
#
# The file may be used within the scientific community so long as
# proper attribution is given to the journal article from which the
# data were obtained.
#
data_2108017
loop_
_publ_author_name
'Binns, Jack'
'McIntyre, Garry J.'
'Parsons, Simon'
_publ_section_title
;
 Neutron and high-pressure X-ray diffraction study of hydrogen-bonded
 ferroelectric rubidium hydrogen sulfate
;
_journal_issue                   6
_journal_name_full               'Acta Crystallographica Section B'
_journal_page_first              855
_journal_page_last               863
_journal_paper_doi               10.1107/S2052520616013494
_journal_volume                  72
_journal_year                    2016
_chemical_formula_moiety         'Rb1, H1 O4 S1'
_chemical_formula_sum            'H O4 Rb S'
_chemical_formula_weight         182.54
_chemical_name_systematic        'Rubidium hydrogensulfate'
_space_group_IT_number           14
_symmetry_cell_setting           monoclinic
_symmetry_space_group_name_Hall  '-P 2yn'
_symmetry_space_group_name_H-M   'P 1 21/n 1'
_atom_sites_solution_hydrogens   difmap
_atom_sites_solution_primary     direct
_audit_creation_method           CRYSTALS_ver_14.40
_cell_angle_alpha                90
_cell_angle_beta                 117.74(3)
_cell_angle_gamma                90
_cell_formula_units_Z            8
_cell_length_a                   14.324(3)
_cell_length_b                   4.6263(9)
_cell_length_c                   14.401(7)
_cell_measurement_reflns_used    1777
_cell_measurement_temperature    293
_cell_measurement_theta_max      25
_cell_measurement_theta_min      3
_cell_volume                     844.6(5)
_computing_cell_refinement       'Apex2 (Bruker AXS, 2006)'
_computing_data_collection       'Apex2 (Bruker AXS, 2006)'
_computing_data_reduction        'Apex2 (Bruker AXS, 2006)'
_computing_molecular_graphics    'CAMERON (Watkin et al., 1996)'
_computing_publication_material  'CRYSTALS (Betteridge et al., 2003)'
_computing_structure_refinement  'CRYSTALS (Betteridge et al., 2003)'
_computing_structure_solution    'SIR92 (Altomare et al., 1994)'
_diffrn_ambient_temperature      293
_diffrn_measured_fraction_theta_full 0.459
_diffrn_measured_fraction_theta_max 0.452
_diffrn_measurement_device       Area
_diffrn_measurement_device_type  'Bruker Kappa Apex2'
_diffrn_measurement_method       \w
_diffrn_radiation_monochromator  graphite
_diffrn_radiation_type           'Mo K\a'
_diffrn_radiation_wavelength     0.71073
_diffrn_reflns_av_R_equivalents  0.025
_diffrn_reflns_limit_h_max       15
_diffrn_reflns_limit_h_min       -15
_diffrn_reflns_limit_k_max       5
_diffrn_reflns_limit_k_min       -5
_diffrn_reflns_limit_l_max       13
_diffrn_reflns_limit_l_min       -13
_diffrn_reflns_number            3119
_diffrn_reflns_theta_full        25.232
_diffrn_reflns_theta_max         26.012
_diffrn_reflns_theta_min         3.314
_diffrn_standards_number         0
_exptl_absorpt_coefficient_mu    12.088
_exptl_absorpt_correction_T_max  0.30
_exptl_absorpt_correction_T_min  0.26
_exptl_absorpt_correction_type   multi-scan
_exptl_absorpt_process_details   'SADABS (Siemens, 1996)'
_exptl_crystal_colour            colourless
_exptl_crystal_density_diffrn    2.871
_exptl_crystal_density_method    'not measured'
_exptl_crystal_description       block
_exptl_crystal_F_000             688
_exptl_crystal_size_max          0.200
_exptl_crystal_size_mid          0.120
_exptl_crystal_size_min          0.100
_refine_diff_density_max         0.35
_refine_diff_density_min         -0.35
_refine_ls_extinction_coef       13(2)
_refine_ls_extinction_method     'Larson (1970), Equation 22'
_refine_ls_goodness_of_fit_ref   1.0174
_refine_ls_hydrogen_treatment    constr
_refine_ls_matrix_type           full
_refine_ls_number_parameters     110
_refine_ls_number_reflns         620
_refine_ls_number_restraints     0
_refine_ls_R_factor_all          0.0403
_refine_ls_R_factor_gt           0.0234
_refine_ls_shift/su_max          0.0003437
_refine_ls_shift/su_mean         0.0000195
_refine_ls_structure_factor_coef Fsqd
_refine_ls_weighting_details
;
 Method, part 1, Chebychev polynomial, (Watkin, 1994, Prince, 1982)
 [weight] = 1.0/[A~0~*T~0~(x)+A~1~*T~1~(x) ... +A~n-1~]*T~n-1~(x)]
 where A~i~ are the Chebychev coefficients listed below and x= Fcalc/Fmax
 Method = Robust Weighting (Prince, 1982)
 W = [weight] * [1-(deltaF/6*sigmaF)^2^]^2^
 A~i~ are:
 6.83 11.1 6.67 2.86 0.686
;
_refine_ls_weighting_scheme      calc
_refine_ls_wR_factor_all         0.0749
_refine_ls_wR_factor_gt          0.0550
_refine_ls_wR_factor_ref         0.0550
_reflns_number_gt                620
_reflns_number_total             754
_reflns_threshold_expression     I>2.0\s(I)
_cod_data_source_file            fx5004sup1.cif
_cod_data_source_block           JB0003_ord
_cod_original_cell_volume        844.7(5)
_cod_original_sg_symbol_H-M      'P 1 21/n 1 '
_cod_original_formula_sum        'H1 O4 Rb1 S1'
_cod_database_code               2108017
loop_
_symmetry_equiv_pos_as_xyz
x,y,z
-x,-y,-z
-x+1/2,y+1/2,-z+1/2
x+1/2,-y+1/2,z+1/2
loop_
_atom_site_type_symbol
_atom_site_label
_atom_site_fract_x
_atom_site_fract_y
_atom_site_fract_z
_atom_site_U_iso_or_equiv
_atom_site_adp_type
_atom_site_occupancy
Rb Rb1 0.70766(7) 0.64030(11) 0.58431(9) 0.0316 Uani 1.0000
Rb Rb2 0.46111(8) 0.70181(12) 0.83617(10) 0.0336 Uani 1.0000
S S1 0.54951(19) 0.2157(3) 0.6744(3) 0.0268 Uani 1.0000
S S2 0.2065(2) 0.7610(3) 0.5785(3) 0.0251 Uani 1.0000
O O1 0.4575(5) 0.0149(9) 0.5989(7) 0.0503 Uani 1.0000
O O2 0.5507(7) 0.2006(13) 0.7734(10) 0.0536 Uani 1.0000
O O3 0.5162(6) 0.4920(9) 0.6236(8) 0.0729 Uani 1.0000
O O4 0.6452(5) 0.1172(9) 0.6774(7) 0.0389 Uani 1.0000
O O5 0.2583(5) 0.9943(8) 0.6679(6) 0.0400 Uani 1.0000
O O6 0.1979(5) 0.8819(8) 0.4830(7) 0.0320 Uani 1.0000
O O7 0.2809(5) 0.5208(8) 0.6183(6) 0.0375 Uani 1.0000
O O8 0.1068(5) 0.6923(9) 0.5743(7) 0.0435 Uani 1.0000
H H1 0.4720 -0.1586 0.6069 0.0687 Uiso 1.0000
H H2 0.2615 1.1575 0.6459 0.0486 Uiso 1.0000
loop_
_atom_site_aniso_label
_atom_site_aniso_U_11
_atom_site_aniso_U_22
_atom_site_aniso_U_33
_atom_site_aniso_U_12
_atom_site_aniso_U_13
_atom_site_aniso_U_23
Rb1 0.0318(7) 0.0315(3) 0.0356(13) 0.0008(2) 0.0192(8) 0.0005(3)
Rb2 0.0292(8) 0.0366(3) 0.0359(14) -0.0002(3) 0.0159(9) 0.0003(4)
S1 0.0252(18) 0.0216(7) 0.036(3) -0.0011(6) 0.016(2) -0.0019(8)
S2 0.0283(17) 0.0207(7) 0.031(3) -0.0024(6) 0.017(2) -0.0006(7)
O1 0.025(5) 0.035(3) 0.069(13) 0.002(2) 0.003(7) -0.011(3)
O2 0.034(8) 0.095(5) 0.036(17) -0.011(3) 0.019(11) -0.016(4)
O3 0.054(6) 0.027(2) 0.130(13) 0.006(2) 0.036(8) 0.020(3)
O4 0.025(5) 0.047(3) 0.046(11) 0.001(2) 0.017(7) -0.008(3)
O5 0.053(5) 0.022(2) 0.045(10) -0.0065(19) 0.023(7) -0.003(2)
O6 0.039(5) 0.035(2) 0.024(10) -0.006(2) 0.016(7) 0.003(2)
O7 0.036(5) 0.022(2) 0.054(9) 0.0063(18) 0.022(6) 0.006(2)
O8 0.030(6) 0.049(3) 0.059(11) -0.006(2) 0.027(7) 0.001(3)
loop_
_atom_type_symbol
_atom_type_scat_Cromer_Mann_a1
_atom_type_scat_Cromer_Mann_a2
_atom_type_scat_Cromer_Mann_a3
_atom_type_scat_Cromer_Mann_a4
_atom_type_scat_Cromer_Mann_b1
_atom_type_scat_Cromer_Mann_b2
_atom_type_scat_Cromer_Mann_b3
_atom_type_scat_Cromer_Mann_b4
_atom_type_scat_Cromer_Mann_c
_atom_type_scat_dispersion_real
_atom_type_scat_dispersion_imag
_atom_type_scat_source
O 3.0485 2.2868 1.5463 0.8670 13.2771 5.7011 0.3239 32.9089 0.2508 0.0106
0.0060 'International Tables Vol C 4.2.6.8 and 6.1.1.4'
H 0.4930 0.3229 0.1402 0.0408 10.5109 26.1257 3.1424 57.7998 0.0030 0.0000
0.0000 'International Tables Vol C 4.2.6.8 and 6.1.1.4'
S 6.9053 5.2034 1.4379 1.5863 1.4679 22.2151 0.2536 56.1720 0.8669 0.1246
0.1234 'International Tables Vol C 4.2.6.8 and 6.1.1.4'
Rb 17.1784 9.6435 5.1399 1.5292 1.7888 17.3151 0.2748 164.9340 3.4873 -0.9393
2.9676 'International Tables Vol C 4.2.6.8 and 6.1.1.4'
loop_
_geom_angle_atom_site_label_1
_geom_angle_atom_site_label_2
_geom_angle_atom_site_label_3
_geom_angle
_geom_angle_publ_flag
O1 S1 O2 106.3(4) yes
O1 S1 O3 101.6(5) yes
O2 S1 O3 113.6(5) yes
O1 S1 O4 108.6(3) yes
O2 S1 O4 113.1(5) yes
O3 S1 O4 112.7(4) yes
O5 S2 O6 108.2(3) yes
O5 S2 O7 102.7(4) yes
O6 S2 O7 113.2(3) yes
O5 S2 O8 105.5(4) yes
O6 S2 O8 113.9(5) yes
O7 S2 O8 112.2(3) yes
S1 O1 H1 113.9 no
S2 O5 H2 113.7 no
loop_
_geom_bond_atom_site_label_1
_geom_bond_atom_site_label_2
_geom_bond_distance
_geom_bond_publ_flag
S1 O1 1.565(7) yes
S1 O2 1.419(11) yes
S1 O3 1.440(6) yes
S1 O4 1.426(5) yes
S2 O5 1.576(7) yes
S2 O6 1.436(8) yes
S2 O7 1.460(5) yes
S2 O8 1.437(5) yes
O1 H1 0.824 no
O5 H2 0.828 no

_cod_database_fobs_code 2108017
