#------------------------------------------------------------------------------
#$Date: 2023-12-11 23:40:09 +0200 (Mon, 11 Dec 2023) $
#$Revision: 288219 $
#$URL: file:///home/coder/svn-repositories/cod/cif/2/10/86/2108696.cif $
#------------------------------------------------------------------------------
#
# This file is available in the Crystallography Open Database (COD),
# http://www.crystallography.net/. The original data for this entry
# were provided by IUCr Journals, http://journals.iucr.org/.
#
# The file may be used within the scientific community so long as
# proper attribution is given to the journal article from which the
# data were obtained.
#
data_2108696
loop_
_publ_author_name
'Lindenthal, Lorenz'
'Ruh, Thomas'
'Rameshan, Raffael'
'Summerer, Harald'
'Nenning, Andreas'
'Herzig, Christopher'
'L\"offler, Stefan'
'Limbeck, Andreas'
'Opitz, Alexander Karl'
'Blaha, Peter'
'Rameshan, Christoph'
_publ_section_title
;
 Ca-doped rare earth perovskite materials for tailored exsolution of metal
 nanoparticles
;
_journal_issue                   6
_journal_name_full               'Acta Crystallographica Section B'
_journal_paper_doi               10.1107/S2052520620013475
_journal_volume                  76
_journal_year                    2020
_chemical_formula_structural     'La0.88 Ca0.12 Fe O3'
_chemical_formula_sum            'Ca0.12 Fe La0.88 O3'
_chemical_formula_weight         230.89
_chemical_name_common            'Lanthanum calcium ferrite'
_chemical_name_systematic        'Lanthanum calcium iron oxide'
_space_group_crystal_system      triclinic
_space_group_IT_number           1
_space_group_name_Hall           'P 1'
_space_group_name_H-M_alt        'P 1'
_cell_angle_alpha                90.000000
_cell_angle_beta                 89.747645
_cell_angle_gamma                90.000000
_cell_formula_units_Z            8
_cell_length_a                   7.860187
_cell_length_b                   7.839117
_cell_length_c                   7.860187
_cell_measurement_temperature    0.0
_cell_volume                     484.316
_cod_data_source_file            je5034sup1.cif
_cod_data_source_block           La0.9_DFT
_cod_original_cell_volume        484.3158
_cod_original_formula_sum        'La0.88 Ca0.12 Fe O3'
_cod_database_code               2108696
_refine_date                     '29- 6-2020'
_refine_method                   'generated from Wien2k code'
loop_
_symmetry_equiv_pos_as_xyz
+x,+y,+z
loop_
_atom_site_label
_atom_site_type_symbol
_atom_site_fract_x
_atom_site_fract_y
_atom_site_fract_z
_atom_site_U_iso_or_equiv
Ca001 Ca01 0.23424078 0.25004380 0.22279013 0.05000000
La001 La01 0.73761155 0.25001201 0.73101859 0.05000000
La001 La01 0.26344556 0.74998893 0.27249759 0.05000000
La001 La01 0.76373695 0.75002680 0.76960568 0.05000000
La001 La01 0.23093661 0.25002006 0.73634628 0.05000000
La001 La01 0.72666852 0.24999253 0.23565010 0.05000000
La001 La01 0.27029153 0.75001334 0.76633531 0.05000000
La001 La01 0.77182914 0.74996565 0.26281988 0.05000000
Fe002 Fe02 0.00170445 0.00265655 0.00218385 0.05000000
Fe002 Fe02 0.49855112 0.00198334 0.49791478 0.05000000
Fe002 Fe02 0.00288357 0.49639547 0.49707295 0.05000000
Fe002 Fe02 0.49677058 0.49810807 0.00327514 0.05000000
Fe003 Fe03 0.00286946 0.00362932 0.49704611 0.05000000
Fe003 Fe03 0.49675818 0.00187640 0.00325074 0.05000000
Fe003 Fe03 0.00169344 0.49738507 0.00219487 0.05000000
Fe003 Fe03 0.49858670 0.49801584 0.49795873 0.05000000
O0004 O04 0.05439201 0.25006288 0.46708089 0.05000000
O0004 O04 0.54621054 0.24995024 0.96713817 0.05000000
O0004 O04 0.45446892 0.74998145 0.03417464 0.05000000
O0004 O04 0.95346793 0.74994241 0.52969643 0.05000000
O0004 O04 0.47514450 0.24999058 0.55465638 0.05000000
O0004 O04 0.96930593 0.25005673 0.04630333 0.05000000
O0004 O04 0.02688639 0.74998900 0.95387123 0.05000000
O0004 O04 0.53165823 0.74995559 0.45227570 0.05000000
O0005 O05 0.24934279 0.03709498 0.96047418 0.05000000
O0005 O05 0.75052823 0.04193247 0.46410302 0.05000000
O0005 O05 0.25093290 0.95628476 0.53728775 0.05000000
O0005 O05 0.74928173 0.96140528 0.03594645 0.05000000
O0005 O05 0.03326763 0.54473951 0.25057872 0.05000000
O0005 O05 0.53539863 0.54252026 0.75160021 0.05000000
O0005 O05 0.46096941 0.45453225 0.25025781 0.05000000
O0005 O05 0.96524523 0.45896587 0.74822016 0.05000000
O0006 O06 0.46092015 0.04553942 0.25018120 0.05000000
O0006 O06 0.96527522 0.04090529 0.74819807 0.05000000
O0006 O06 0.03322823 0.95526929 0.25053346 0.05000000
O0006 O06 0.53528605 0.95743680 0.75151227 0.05000000
O0006 O06 0.25091916 0.54377211 0.53739375 0.05000000
O0006 O06 0.74933644 0.53847930 0.03600747 0.05000000
O0006 O06 0.24930285 0.46300306 0.96048262 0.05000000
O0006 O06 0.75065277 0.45807731 0.46406534 0.05000000
