#------------------------------------------------------------------------------
#$Date: 2019-10-31 07:54:23 +0200 (Thu, 31 Oct 2019) $
#$Revision: 220587 $
#$URL: file:///home/coder/svn-repositories/cod/cif/2/10/85/2108510.cif $
#------------------------------------------------------------------------------
#
# This file is available in the Crystallography Open Database (COD),
# http://www.crystallography.net/. The original data for this entry
# were provided by IUCr Journals, http://journals.iucr.org/.
#
# The file may be used within the scientific community so long as
# proper attribution is given to the journal article from which the
# data were obtained.
#
data_2108510
loop_
_publ_author_name
'Smirnova, Ekaterina S.'
'Alekseeva, Olga A.'
'Dudka, Alexander P.'
'Khmelenin, Dmitry N.'
'Frolov, Kirill V.'
'Lyubutina, Marianna V.'
'Gudim, Irina A.'
'Lyubutin, Igor S.'
_publ_section_title
;
 Crystal structure and structural phase transition in bismuth-containing
 HoFe~3~(BO~3~)~4~ in the temperature range 11--500 K
;
_journal_coeditor_code           XK5056SUP1
_journal_issue                   6
_journal_name_full               'Acta Crystallographica Section B'
_journal_page_first
;
;
_journal_paper_doi               10.1107/S2052520619010473
_journal_volume                  75
_journal_year                    2019
_chemical_formula_sum            'B4 Bi0.037 Fe3 Ho0.963 O12'
_chemical_formula_weight         569.3
_space_group_IT_number           155
_space_group_name_Hall           'R 3 2"'
_space_group_name_H-M_alt        'R 3 2 :H'
_symmetry_cell_setting           trigonal
_symmetry_Int_Tables_number      155
_symmetry_space_group_name_Hall  'R 3 2"'
_symmetry_space_group_name_H-M   'R 3 2 :H'
_cell_angle_alpha                90
_cell_angle_beta                 90
_cell_angle_gamma                120
_cell_formula_units_Z            3
_cell_length_a                   9.5394(2)
_cell_length_b                   9.5394(2)
_cell_length_c                   7.56930(10)
_cell_measurement_reflns_used    18802
_cell_measurement_temperature    500.00(10)
_cell_measurement_theta_max      73.9
_cell_measurement_theta_min      4.27
_cell_volume                     596.525(19)
_diffrn_ambient_temperature      500
_diffrn_detector                 'CCD plate'
_diffrn_detector_area_resol_mean 8.0872
_diffrn_measured_fraction_theta_full 0.99
_diffrn_measured_fraction_theta_max 0.99
_diffrn_measurement_device       'four-circle diffractometer'
_diffrn_measurement_device_type  'Xcalibur, EosS2 with high theta cut'
_diffrn_measurement_method       '\w scans'
_diffrn_radiation_monochromator  graphite
_diffrn_radiation_probe          x-ray
_diffrn_radiation_source         'X-ray tube'
_diffrn_radiation_type           'Mo K\a'
_diffrn_radiation_wavelength     0.71073
_diffrn_reflns_av_R_equivalents  0.0968
_diffrn_reflns_av_unetI/netI     0.0565
_diffrn_reflns_limit_h_max       25
_diffrn_reflns_limit_h_min       -25
_diffrn_reflns_limit_k_max       23
_diffrn_reflns_limit_k_min       -25
_diffrn_reflns_limit_l_max       19
_diffrn_reflns_limit_l_min       -18
_diffrn_reflns_number            19721
_diffrn_reflns_theta_full        74.32
_diffrn_reflns_theta_max         74.32
_diffrn_reflns_theta_min         3.65
_diffrn_source                   'fine-focus sealed X-ray tube'
_exptl_absorpt_coefficient_mu    15.63
_exptl_absorpt_correction_T_max  0.03570
_exptl_absorpt_correction_T_min  0.01170
_exptl_absorpt_correction_type   sphere
_exptl_absorpt_process_details   '(Dudka, 2007)'
_exptl_crystal_colour            light-green
_exptl_crystal_density_diffrn    4.4078
_exptl_crystal_description       Sphere
_exptl_crystal_F_000             785
_exptl_crystal_size_rad          0.155
_refine_diff_density_max         1.08
_refine_diff_density_min         -1.47
_refine_ls_abs_structure_details
'  1241 of Friedel pairs used in the refinement'
_refine_ls_abs_structure_Flack   0.495(5)
_refine_ls_extinction_coef       0.78(7)
_refine_ls_extinction_method
'Becker_Coppens G_I Isotropic   (Becker & Coppens, 1974)'
_refine_ls_goodness_of_fit_gt    0.99
_refine_ls_goodness_of_fit_ref   0.99
_refine_ls_number_constraints    2
_refine_ls_number_parameters     34
_refine_ls_number_reflns         2730
_refine_ls_number_restraints     0
_refine_ls_R_factor_all          0.0231
_refine_ls_R_factor_gt           0.0231
_refine_ls_shift/su_max          0.0500
_refine_ls_shift/su_mean         0.0058
_refine_ls_structure_factor_coef Fsqd
_refine_ls_weighting_details     w=1/\s^2^(I)
_refine_ls_weighting_scheme      sigma
_refine_ls_wR_factor_gt          0.0637
_refine_ls_wR_factor_ref         0.0637
_reflns_number_gt                2730
_reflns_number_total             2730
_reflns_threshold_expression     I>0\s(I)
_cod_data_source_file            xk5056sup1.cif
_cod_data_source_block           500
_cod_original_sg_symbol_H-M      'R 3 2'
_cod_database_code               2108510
_publcif_datablock.id            {5143f921-496f-4427-9db2-6f9b3d03ca03}
_publcif_info_exptl_table_max_cols 4
_publcif_info_exptl_table_use_headnotes n
_publcif_funding_html
;
;
loop_
_space_group_symop_id
_space_group_symop_operation_xyz
1 x,y,z
2 -y,x-y,z
3 -x+y,-x,z
4 y,x,-z
5 x-y,-y,-z
6 -x,-x+y,-z
7 x+2/3,y+1/3,z+1/3
8 -y+2/3,x-y+1/3,z+1/3
9 -x+y+2/3,-x+1/3,z+1/3
10 y+2/3,x+1/3,-z+1/3
11 x-y+2/3,-y+1/3,-z+1/3
12 -x+2/3,-x+y+1/3,-z+1/3
13 x+1/3,y+2/3,z+2/3
14 -y+1/3,x-y+2/3,z+2/3
15 -x+y+1/3,-x+2/3,z+2/3
16 y+1/3,x+2/3,-z+2/3
17 x-y+1/3,-y+2/3,-z+2/3
18 -x+1/3,-x+y+2/3,-z+2/3
loop_
_atom_site_label
_atom_site_type_symbol
_atom_site_fract_x
_atom_site_fract_y
_atom_site_fract_z
_atom_site_adp_type
_atom_site_U_iso_or_equiv
_atom_site_site_symmetry_multiplicity
_atom_site_occupancy
_atom_site_calc_flag
Ho1 Ho 0 0 0 Uani 0.00987(2) 3 0.9627 d
Bi1 Bi 0 0 0 Uani 0.00987(2) 3 0.0373 d
Fe1 Fe 0.21578(2) 0.333333 0.333333 Uani 0.00610(3) 9 1 d
O1 O 0.14438(10) 0.14438(10) 0.5 Uani 0.00837(15) 9 1 d
O2 O 0.40794(13) 0.40794(13) 0.5 Uani 0.0175(3) 9 1 d
O3 O 0.02459(10) 0.21101(13) 0.18111(14) Uani 0.01042(17) 18 1 d
B1 B 0 0 0.5 Uani 0.0054(3) 3 1 d
B2 B 0.55151(14) 0.55151(14) 0.5 Uani 0.0072(2) 9 1 d
loop_
_atom_site_aniso_label
_atom_site_aniso_type_symbol
_atom_site_aniso_U_11
_atom_site_aniso_U_22
_atom_site_aniso_U_33
_atom_site_aniso_U_12
_atom_site_aniso_U_13
_atom_site_aniso_U_23
Ho1 Ho 0.01014(3) 0.01014(3) 0.00934(4) 0.005069(14) 0 0
Bi1 Bi 0.01014(3) 0.01014(3) 0.00934(4) 0.005069(14) 0 0
Fe1 Fe 0.00560(3) 0.00569(4) 0.00703(5) 0.002846(19) -0.000003(13) -0.00001(3)
O1 O 0.00550(13) 0.00550(13) 0.0109(3) 0.00033(15) -0.00171(10) 0.00171(10)
O2 O 0.0091(2) 0.0091(2) 0.0255(8) -0.0021(3) -0.0085(3) 0.0085(3)
O3 O 0.00735(17) 0.0135(2) 0.0112(2) 0.00580(17) -0.00260(15) -0.00291(18)
B1 B 0.0043(3) 0.0043(3) 0.0077(5) 0.00213(14) 0 0
B2 B 0.0056(2) 0.0056(2) 0.0100(3) 0.0024(4) -0.00075(19) 0.00075(19)
loop_
_atom_type_symbol
_atom_type_scat_dispersion_real
_atom_type_scat_dispersion_imag
_atom_type_scat_source
B 0.0013 0.0060 'International Tables Vol C tables 4.2.6.8 and 6.1.1.1'
Bi -4.1077 10.2566 'International Tables Vol C tables 4.2.6.8 and 6.1.1.1'
Fe 0.3463 0.8444 'International Tables Vol C tables 4.2.6.8 and 6.1.1.1'
Ho -0.2175 4.6783 'International Tables Vol C tables 4.2.6.8 and 6.1.1.1'
O 0.0106 0.0007 'International Tables Vol C tables 4.2.6.8 and 6.1.1.1'
loop_
_geom_angle_atom_site_label_1
_geom_angle_atom_site_label_2
_geom_angle_atom_site_label_3
_geom_angle_site_symmetry_1
_geom_angle_site_symmetry_3
_geom_angle
Bi1 Ho1 O3 . . 0
Bi1 Ho1 O3 . 2_555 0
Bi1 Ho1 O3 . 3_555 0
Bi1 Ho1 O3 . 4_555 0
Bi1 Ho1 O3 . 5_555 0
Bi1 Ho1 O3 . 6_555 0
O3 Ho1 O3 . 2_555 89.36(4)
O3 Ho1 O3 . 3_555 89.36(4)
O3 Ho1 O3 . 4_555 122.82(3)
O3 Ho1 O3 . 5_555 141.62(5)
O3 Ho1 O3 . 6_555 72.34(4)
O3 Ho1 O3 2_555 3_555 89.36(4)
O3 Ho1 O3 2_555 4_555 141.62(5)
O3 Ho1 O3 2_555 5_555 72.34(4)
O3 Ho1 O3 2_555 6_555 122.82(5)
O3 Ho1 O3 3_555 4_555 72.34(4)
O3 Ho1 O3 3_555 5_555 122.82(5)
O3 Ho1 O3 3_555 6_555 141.62(3)
O3 Ho1 O3 4_555 5_555 89.36(4)
O3 Ho1 O3 4_555 6_555 89.36(4)
O3 Ho1 O3 5_555 6_555 89.36(4)
Ho1 Bi1 O3 . . 0
Ho1 Bi1 O3 . 2_555 0
Ho1 Bi1 O3 . 3_555 0
Ho1 Bi1 O3 . 4_555 0
Ho1 Bi1 O3 . 5_555 0
Ho1 Bi1 O3 . 6_555 0
O3 Bi1 O3 . 2_555 89.36(4)
O3 Bi1 O3 . 3_555 89.36(4)
O3 Bi1 O3 . 4_555 122.82(3)
O3 Bi1 O3 . 5_555 141.62(5)
O3 Bi1 O3 . 6_555 72.34(4)
O3 Bi1 O3 2_555 3_555 89.36(4)
O3 Bi1 O3 2_555 4_555 141.62(5)
O3 Bi1 O3 2_555 5_555 72.34(4)
O3 Bi1 O3 2_555 6_555 122.82(5)
O3 Bi1 O3 3_555 4_555 72.34(4)
O3 Bi1 O3 3_555 5_555 122.82(5)
O3 Bi1 O3 3_555 6_555 141.62(3)
O3 Bi1 O3 4_555 5_555 89.36(4)
O3 Bi1 O3 4_555 6_555 89.36(4)
O3 Bi1 O3 5_555 6_555 89.36(4)
O1 Fe1 O1 . 15_554 167.48(5)
O1 Fe1 O2 . . 76.59(3)
O1 Fe1 O2 . 15_554 94.24(4)
O1 Fe1 O3 . . 92.15(4)
O1 Fe1 O3 . 17_555 95.72(4)
O1 Fe1 O2 15_554 . 94.24(3)
O1 Fe1 O2 15_554 15_554 76.59(4)
O1 Fe1 O3 15_554 . 95.72(4)
O1 Fe1 O3 15_554 17_555 92.15(4)
O2 Fe1 O2 . 15_554 87.09(5)
O2 Fe1 O3 . . 166.59(5)
O2 Fe1 O3 . 17_555 86.52(5)
O2 Fe1 O3 15_554 . 86.52(5)
O2 Fe1 O3 15_554 17_555 166.59(4)
O3 Fe1 O3 . 17_555 102.03(5)
Fe1 O1 Fe1 . 8_555 104.09(3)
Fe1 O1 B1 . . 127.95(4)
Fe1 O1 B1 8_555 . 127.95(4)
Fe1 O2 Fe1 . 8_555 102.73(4)
Fe1 O2 B2 . . 128.63(7)
Fe1 O2 B2 8_555 . 128.63(7)
Ho1 O3 Bi1 . . 0.0(5)
Ho1 O3 Fe1 . . 120.99(6)
Ho1 O3 B2 . 13_444 108.23(6)
Bi1 O3 Fe1 . . 120.99(6)
Bi1 O3 B2 . 13_444 108.23(6)
Fe1 O3 B2 . 13_444 130.61(9)
O1 B1 O1 . 2_555 120.00(7)
O1 B1 O1 . 3_555 120.00(7)
O1 B1 O1 2_555 3_555 120.00(7)
O2 B2 O3 . 7_555 117.43(13)
O2 B2 O3 . 16_555 117.43(13)
O3 B2 O3 7_555 16_555 125.15(9)
loop_
_geom_bond_atom_site_label_1
_geom_bond_atom_site_label_2
_geom_bond_site_symmetry_2
_geom_bond_distance
Ho1 Bi1 . 0
Ho1 O3 . 2.3481(12)
Ho1 O3 2_555 2.3481(10)
Ho1 O3 3_555 2.3481(15)
Ho1 O3 4_555 2.3481(12)
Ho1 O3 5_555 2.3481(10)
Ho1 O3 6_555 2.3481(15)
Bi1 O3 . 2.3481(12)
Bi1 O3 2_555 2.3481(10)
Bi1 O3 3_555 2.3481(15)
Bi1 O3 4_555 2.3481(12)
Bi1 O3 5_555 2.3481(10)
Bi1 O3 6_555 2.3481(15)
Fe1 O1 . 2.0191(7)
Fe1 O1 15_554 2.0191(6)
Fe1 O2 . 2.0381(9)
Fe1 O2 15_554 2.0381(14)
Fe1 O3 . 1.9717(9)
Fe1 O3 17_555 1.9717(15)
O1 B1 . 1.3773(6)
O2 B2 . 1.3695(13)
O3 B2 13_444 1.3730(19)
loop_
_publcif_info_cif.paper_type
CB
loop_
_publcif_info_tables.block_id
_publcif_info_tables.reference_item
{c7d113d6-1c61-47c6-ae8f-5acb75fa2577} '_publcif_info_datablock.publ_exptl'
loop_
_publcif_info_datablock.id
_publcif_info_datablock.publ_exptl
_publcif_info_datablock.publ_geom
_publcif_info_datablock.structure
{a547b2d7-66d3-49b1-9f55-4f1d70ef4507} y y y
{b1359d07-bb1b-47b3-be84-8518bfaf2d19} y y y
{5143f921-496f-4427-9db2-6f9b3d03ca03} y y y
{c7d113d6-1c61-47c6-ae8f-5acb75fa2577} ? ? ?
{80cfc44b-89a2-43ae-b205-a1dd094df6d9} n y y
{a9bf12b7-5283-447c-80fd-06b25eec8b97} n y y
{2bad10b6-11d7-4756-81bb-2d90774594fa} n y y
{3e9629ba-aed7-40e3-9c3f-7365669c84e1} n y y
{2e72b397-41c6-4adc-a25b-85dd4723fe8d} n y y
{52963187-3095-4c3e-974e-18a16726c115} n y y
loop_
_publcif_info_exptl_table_extra_item
sin_theta_over_lambda_max
loop_
_publcif_info_exptl_table_header_item
Datablock_name

_cod_database_fobs_code 2108510
