#------------------------------------------------------------------------------
#$Date: 2018-01-26 09:43:25 +0200 (Fri, 26 Jan 2018) $
#$Revision: 205692 $
#$URL: file:///home/coder/svn-repositories/cod/cif/2/10/81/2108178.cif $
#------------------------------------------------------------------------------
#
# This file is available in the Crystallography Open Database (COD),
# http://www.crystallography.net/. The original data for this entry
# were provided by IUCr Journals, http://journals.iucr.org/.
#
# The file may be used within the scientific community so long as
# proper attribution is given to the journal article from which the
# data were obtained.
#
data_2108178
loop_
_publ_author_name
'Bull, Craig L.'
'Funnell, Nicholas P.'
'Pulham, Colin R.'
'Marshall, William G.'
'Allan, David R.'
_publ_section_title
;
 A new high-pressure polymorph of phosphoric acid
;
_journal_issue                   6
_journal_name_full               'Acta Crystallographica Section B'
_journal_page_first              1068
_journal_page_last               1074
_journal_paper_doi               10.1107/S205252061701441X
_journal_volume                  73
_journal_year                    2017
_chemical_compound_source        'Sigma Aldrich'
_chemical_formula_moiety         'D3 O4 P'
_chemical_formula_sum            'D3 O4 P'
_chemical_formula_weight         101.01
_chemical_melting_point          315.5
_chemical_name_common            'Phosphoric acid'
_chemical_name_systematic
;
Phosphoric acid
;
_space_group_IT_number           19
_symmetry_cell_setting           orthorhombic
_symmetry_Int_Tables_number      19
_symmetry_space_group_name_Hall  'P 2ac 2ab'
_symmetry_space_group_name_H-M   'P 21 21 21'
_cell_angle_alpha                90.0
_cell_angle_beta                 90.0
_cell_angle_gamma                90.0
_cell_formula_units_Z            8
_cell_length_a                   4.5791(8)
_cell_length_b                   8.4031(14)
_cell_length_c                   14.2214(21)
_cell_measurement_pressure       3.04
_cell_measurement_temperature    295
_cell_volume                     547.22(15)
_diffrn_ambient_temperature      295
_diffrn_detector                 'ZnS scintillator'
_diffrn_detector_type            custom
_diffrn_measurement_device_type  'PEARL diffractometer'
_diffrn_radiation_monochromator  none
_diffrn_radiation_type           Neutron
_diffrn_source                   'Pulsed neutron source'
_diffrn_source_target            W
_exptl_absorpt_correction_type   empirical
_exptl_absorpt_process_details
;
Calculated using custom ISIS routines.
;
_exptl_crystal_density_diffrn    2.452
_pd_char_colour                  white
_pd_instr_dist_spec/detc         800
_pd_instr_dist_src/spec          12800
_pd_instr_location
'ISIS Neutron Facility, Rutherford Appleton Laboratory'
_pd_meas_2theta_fixed            90
_pd_meas_scan_method             Time-of-flight
_pd_proc_info_data_reduction
;
Custom ISIS software
;
_pd_proc_info_excluded_regions
;
?

;
_pd_proc_ls_background_function  'Chebychev polynomial'
_pd_proc_ls_pref_orient_corr
;
No requirement for preferred orientation correction
;
_pd_proc_ls_profile_function
;
Voigt function convoluted with a back-to-back double exponential.
;
_pd_proc_ls_prof_wR_factor       0.0578
_pd_spec_mounting                'TiZr Capsule'
_pd_spec_mount_mode              transmission
_refine_ls_goodness_of_fit_all   1.00
_refine_ls_hydrogen_treatment    refxyz
_refine_ls_matrix_type           full
_refine_ls_number_parameters     84
_refine_ls_number_restraints     55
_refine_ls_R_Fsqd_factor         0.156
_refine_ls_shift/su_max          0.02
_refine_ls_weighting_scheme      sigma
_cod_data_source_file            xk5045sup1.cif
_cod_data_source_block           Phosphoric_acid_II_3.04_GPa
_cod_depositor_comments
;
The following automatic conversions were performed:

'_chemical_melting_point' value '315.5 K' was changed to '315.5' -
the value should be numeric and without a unit designator.

'_symmetry_cell_setting' value 'Orthorhombic' changed to
'orthorhombic' according to
/home/data/users/saulius/crontab/automatic-downloads/rss-feeds/IUCr/lib/dictionaries/cif_core.dic
dictionary named 'cif_core.dic' version 2.4.2 from 2011-04-26.

Automatic conversion script
Id: cif_fix_values 4973 2017-02-22 13:04:09Z antanas 
;
_cod_original_cell_volume        547.22(9)
_cod_database_code               2108178
loop_
_symmetry_equiv_pos_as_xyz
'x, y, z '
'x+1/2, -y+1/2, -z '
'-x, y+1/2, -z+1/2 '
'-x+1/2, -y, z+1/2 '
loop_
_atom_site_type_symbol
_atom_site_label
_atom_site_fract_x
_atom_site_fract_y
_atom_site_fract_z
_atom_site_occupancy
_atom_site_thermal_displace_type
_atom_site_U_iso_or_equiv
_atom_site_symmetry_multiplicity
P P11 0.8876(33) 0.2908(16) -0.2316(10) 1.0 Uiso 0.0063(13) 4
O O11 0.666(4) 0.1641(24) -0.1977(15) 1.0 Uiso 0.0063(13) 4
D D11 0.725(6) 0.0858(31) -0.1531(18) 1.0 Uiso 0.0347(34) 4
O O12 1.078(5) 0.3390(26) -0.1496(13) 1.0 Uiso 0.0063(13) 4
O O13 0.726(5) 0.4389(20) -0.2709(15) 1.0 Uiso 0.0063(13) 4
D D13 0.642(6) 0.508(4) -0.2257(18) 1.0 Uiso 0.0347(34) 4
O O14 1.076(4) 0.2175(25) -0.3110(13) 1.0 Uiso 0.0063(13) 4
D D14 1.124(7) 0.2940(33) -0.3591(17) 1.0 Uiso 0.0347(34) 4
P P22 0.5631(30) 0.5112(15) 0.0001(10) 1.0 Uiso 0.0063(13) 4
O O21 0.788(4) 0.6463(20) 0.0150(16) 1.0 Uiso 0.0063(13) 4
D D21 0.973(5) 0.6021(33) 0.0332(24) 1.0 Uiso 0.0347(34) 4
O O22 0.463(4) 0.5200(29) -0.1038(11) 1.0 Uiso 0.0063(13) 4
D D22 0.292(6) 0.462(4) -0.1205(19) 1.0 Uiso 0.0347(34) 4
O O23 0.711(4) 0.3476(18) 0.0164(16) 1.0 Uiso 0.0063(13) 4
D D23 0.656(6) 0.2764(31) 0.0662(18) 1.0 Uiso 0.0347(34) 4
O O24 0.304(4) 0.5316(22) 0.0669(13) 1.0 Uiso 0.0063(13) 4
loop_
_atom_type_symbol
_atom_type_number_in_cell
P 8.0
O 32.0
D 24.0
loop_
_geom_angle_atom_site_label_1
_geom_angle_atom_site_label_2
_geom_angle_atom_site_label_3
_geom_angle
_geom_angle_publ_flag
O11 P11 O12 108.8(14) no
O11 P11 O13 110.5(13) no
O11 P11 O14 108.7(13) no
O12 P11 O13 109.8(15) no
O12 P11 O14 110.4(14) no
O13 P11 O14 108.7(13) no
P11 O11 D11 120(2) no
P11 O13 D13 116(3) no
P11 O14 D14 113(2) no
O21 P22 O22 107.0(14) no
O21 P22 O23 109.8(13) no
O21 P22 O24 110.4(13) no
O22 P22 O23 108.3(15) no
O22 P22 O24 111.0(13) no
O23 P22 O24 110.3(13) no
P22 O21 D21 110(2) no
P22 O22 D22 117(2) no
P22 O23 D23 123(2) no
loop_
_geom_bond_atom_site_label_1
_geom_bond_atom_site_label_2
_geom_bond_distance
_geom_bond_publ_flag
P11 O11 1.55(2) no
P11 O12 1.51(3) no
P11 O13 1.55(2) no
P11 O14 1.55(2) no
O11 D11 0.95(3) no
O13 D13 0.95(4) no
O14 D14 0.96(3) no
P22 O21 1.55(2) no
P22 O22 1.55(2) no
P22 O23 1.55(2) no
P22 O24 1.53(2) no
O21 D21 0.96(3) no
O22 D22 0.95(4) no
O23 D23 0.96(3) no
loop_
_geom_torsion_atom_site_label_1
_geom_torsion_atom_site_label_2
_geom_torsion_atom_site_label_3
_geom_torsion_atom_site_label_4
_geom_torsion
_geom_torsion_publ_flag
O12 P11 O11 D11 -37(3) no
O13 P11 O11 D11 -158(3) no
O14 P11 O11 D11 83(3) no
O11 P11 O13 D13 76(3) no
O12 P11 O13 D13 -45(3) no
O14 P11 O13 D13 -165(3) no
O11 P11 O14 D14 144(2) no
O12 P11 O14 D14 -97(3) no
O13 P11 O14 D14 23(3) no
O22 P22 O21 D21 -119(3) no
O23 P22 O21 D21 -2(3) no
O24 P22 O21 D21 120(3) no
O21 P22 O22 D22 -166(3) no
O23 P22 O22 D22 76(3) no
O24 P22 O22 D22 -45(3) no
O21 P22 O23 D23 116(3) no
O22 P22 O23 D23 -127(3) no
O24 P22 O23 D23 -6(3) no
