#------------------------------------------------------------------------------
#$Date: 2016-12-02 04:09:34 +0200 (Fri, 02 Dec 2016) $
#$Revision: 188820 $
#$URL: file:///home/coder/svn-repositories/cod/cif/2/10/80/2108014.cif $
#------------------------------------------------------------------------------
#
# This file is available in the Crystallography Open Database (COD),
# http://www.crystallography.net/. The original data for this entry
# were provided by IUCr Journals, http://journals.iucr.org/.
#
# The file may be used within the scientific community so long as
# proper attribution is given to the journal article from which the
# data were obtained.
#
data_2108014
loop_
_publ_author_name
'Binns, Jack'
'McIntyre, Garry J.'
'Parsons, Simon'
_publ_section_title
;
 Neutron and high-pressure X-ray diffraction study of hydrogen-bonded
 ferroelectric rubidium hydrogen sulfate
;
_journal_issue                   6
_journal_name_full               'Acta Crystallographica Section B'
_journal_page_first              855
_journal_page_last               863
_journal_paper_doi               10.1107/S2052520616013494
_journal_volume                  72
_journal_year                    2016
_chemical_formula_moiety         'H1 O4 S1,Rb1 '
_chemical_formula_sum            'H O4 Rb S'
_chemical_formula_weight         182.54
_chemical_name_systematic        'rubidium hydrogensulfate'
_space_group_IT_number           14
_symmetry_cell_setting           monoclinic
_symmetry_space_group_name_Hall  '-P 2yn'
_symmetry_space_group_name_H-M   'P 1 21/n 1'
_atom_sites_solution_hydrogens   difmap
_atom_sites_solution_primary     direct
_audit_creation_method           CRYSTALS_ver_14.40
_cell_angle_alpha                90
_cell_angle_beta                 118.069(8)
_cell_angle_gamma                90
_cell_formula_units_Z            8
_cell_length_a                   14.3602(19)
_cell_length_b                   4.6156(6)
_cell_length_c                   14.413(2)
_cell_measurement_reflns_used    8517
_cell_measurement_temperature    293
_cell_measurement_theta_max      0
_cell_measurement_theta_min      0
_cell_volume                     842.9(2)
_computing_cell_refinement       'LaueG (Piltz, 2011)'
_computing_data_collection       'MAATEL/ANSTO control program'
_computing_data_reduction
'argonne_boxes (Wilkinson et al., 1988) & LaueG (Piltz, 2011)'
_computing_molecular_graphics    'CAMERON (Watkin et al., 1996)'
_computing_publication_material  'CRYSTALS (Betteridge et al., 2003)'
_computing_structure_refinement  'CRYSTALS (Betteridge et al., 2003)'
_computing_structure_solution    'SIR92 (Altomare et al., 1994)'
_diffrn_ambient_temperature      293
_diffrn_measured_fraction_theta_full 0.866
_diffrn_measured_fraction_theta_max 0.866
_diffrn_measurement_device       'Laue image-plate diffractometer'
_diffrn_measurement_device_type  KOALA
_diffrn_measurement_method       Laue
_diffrn_radiation_type           neutron
_diffrn_radiation_wavelength     0.85
_diffrn_reflns_av_R_equivalents  0.0913
_diffrn_reflns_limit_h_max       16
_diffrn_reflns_limit_h_min       -18
_diffrn_reflns_limit_k_max       5
_diffrn_reflns_limit_k_min       -5
_diffrn_reflns_limit_l_max       18
_diffrn_reflns_limit_l_min       -18
_diffrn_reflns_number            8517
_diffrn_reflns_reduction_process 'LaueG (Piltz, 2011)'
_diffrn_reflns_theta_full        70.98
_diffrn_reflns_theta_max         71.08
_diffrn_standards_number         0
_exptl_absorpt_coefficient_mu    0.0
_exptl_absorpt_correction_type   none
_exptl_crystal_colour            colourless
_exptl_crystal_density_diffrn    2.877
_exptl_crystal_density_method    'not measured'
_exptl_crystal_description       block
_exptl_crystal_F_000             240
_exptl_crystal_size_max          1.200
_exptl_crystal_size_mid          1.100
_exptl_crystal_size_min          0.800
_refine_diff_density_max         0.55
_refine_diff_density_min         -0.51
_refine_ls_extinction_coef       39(3)
_refine_ls_extinction_method     'Larson (1970), Equation 22'
_refine_ls_goodness_of_fit_ref   0.9998
_refine_ls_hydrogen_treatment    mixed
_refine_ls_matrix_type           full
_refine_ls_number_parameters     128
_refine_ls_number_reflns         1073
_refine_ls_number_restraints     0
_refine_ls_R_factor_all          0.0886
_refine_ls_R_factor_gt           0.0552
_refine_ls_shift/su_max          0.0002927
_refine_ls_shift/su_mean         0.0000271
_refine_ls_structure_factor_coef Fsqd
_refine_ls_weighting_details
;
 Method, part 1, Chebychev polynomial, (Watkin, 1994, Prince, 1982)
 [weight] = 1.0/[A~0~*T~0~(x)+A~1~*T~1~(x) ... +A~n-1~]*T~n-1~(x)]
 where A~i~ are the Chebychev coefficients listed below and x= Fcalc/Fmax
 Method = Robust Weighting (Prince, 1982)
 W = [weight] * [1-(deltaF/6*sigmaF)^2^]^2^
 A~i~ are:
 32.8 40.0 29.7 11.0 4.59
;
_refine_ls_weighting_scheme      calc
_refine_ls_wR_factor_all         0.1444
_refine_ls_wR_factor_gt          0.1062
_refine_ls_wR_factor_ref         0.1062
_reflns_number_gt                1073
_reflns_number_total             1612
_reflns_threshold_expression     I>2.0\s(I)
_cod_data_source_file            fx5004sup1.cif
_cod_data_source_block           rhs_300
_cod_original_sg_symbol_H-M      'P 1 21/n 1 '
_cod_original_formula_sum        'H1 O4 Rb1 S1'
_cod_database_code               2108014
loop_
_symmetry_equiv_pos_as_xyz
x,y,z
-x,-y,-z
-x+1/2,y+1/2,-z+1/2
x+1/2,-y+1/2,z+1/2
loop_
_atom_site_type_symbol
_atom_site_label
_atom_site_fract_x
_atom_site_fract_y
_atom_site_fract_z
_atom_site_U_iso_or_equiv
_atom_site_adp_type
_atom_site_occupancy
Rb Rb1 0.79199(12) 0.1405(3) 0.91551(11) 0.0299 Uani 1.0000
Rb Rb2 0.46093(14) 0.7021(4) 0.83619(14) 0.0320 Uani 1.0000
S S1 0.5489(3) 0.2162(7) 0.6735(4) 0.0251 Uani 1.0000
S S2 0.7070(3) 0.7391(6) 1.0790(3) 0.0211 Uani 1.0000
O O1 0.45770(18) 0.0155(5) 0.5980(2) 0.0486 Uani 1.0000
O O5 0.75757(18) 0.5040(4) 1.16738(15) 0.0348 Uani 1.0000
O O4 0.64524(15) 0.1173(5) 0.67676(17) 0.0387 Uani 1.0000
O O8 0.78116(16) 0.9791(4) 1.11775(16) 0.0336 Uani 1.0000
O O6 0.69811(15) 0.6185(4) 0.98300(13) 0.0330 Uani 1.0000
O O7 0.60648(16) 0.8078(5) 1.07354(17) 0.0383 Uani 1.0000
O O2 0.5508(2) 0.2012(7) 0.7736(2) 0.0590 Uani 1.0000
O O3 0.5152(2) 0.4894(5) 0.6204(3) 0.0708 Uani 1.0000
H H1 0.4788(3) -0.1907(9) 0.6088(3) 0.0442 Uani 1.0000
H H2 0.7630(3) 0.3085(8) 1.1411(3) 0.0387 Uani 1.0000
loop_
_atom_site_aniso_label
_atom_site_aniso_U_11
_atom_site_aniso_U_22
_atom_site_aniso_U_33
_atom_site_aniso_U_12
_atom_site_aniso_U_13
_atom_site_aniso_U_23
Rb1 0.0309(7) 0.0330(9) 0.0282(7) -0.0005(6) 0.0160(6) -0.0005(6)
Rb2 0.0292(8) 0.0363(8) 0.0311(8) 0.0002(6) 0.0145(6) 0.0015(6)
S1 0.0251(18) 0.0195(16) 0.035(2) -0.0005(12) 0.0171(16) -0.0028(13)
S2 0.0230(17) 0.0198(17) 0.0189(16) 0.0019(10) 0.0086(14) -0.0001(10)
O1 0.0304(11) 0.0334(13) 0.0598(14) 0.0008(8) 0.0028(10) -0.0116(9)
O5 0.0523(12) 0.0234(11) 0.0251(8) 0.0047(7) 0.0151(8) 0.0024(6)
O4 0.0305(9) 0.0454(12) 0.0434(10) 0.0011(8) 0.0200(8) -0.0076(9)
O8 0.0388(11) 0.0230(9) 0.0378(10) -0.0041(6) 0.0170(8) -0.0014(7)
O6 0.0401(10) 0.0354(11) 0.0228(8) 0.0046(7) 0.0143(7) -0.0033(6)
O7 0.0272(10) 0.0502(12) 0.0405(11) 0.0054(8) 0.0183(8) -0.0015(9)
O2 0.0519(15) 0.094(2) 0.0429(13) -0.0074(13) 0.0320(12) -0.0147(12)
O3 0.0584(17) 0.0263(12) 0.120(3) 0.0070(9) 0.0358(18) 0.0243(13)
H1 0.0433(19) 0.0348(19) 0.0504(19) -0.0049(15) 0.0186(16) -0.0064(15)
H2 0.0470(18) 0.0295(16) 0.0384(16) 0.0038(13) 0.0192(14) 0.0022(13)
loop_
_atom_type_symbol
_atom_type_scat_Cromer_Mann_a1
_atom_type_scat_Cromer_Mann_a2
_atom_type_scat_Cromer_Mann_a3
_atom_type_scat_Cromer_Mann_a4
_atom_type_scat_Cromer_Mann_b1
_atom_type_scat_Cromer_Mann_b2
_atom_type_scat_Cromer_Mann_b3
_atom_type_scat_Cromer_Mann_b4
_atom_type_scat_Cromer_Mann_c
_atom_type_scat_dispersion_real
_atom_type_scat_dispersion_imag
_atom_type_scat_source
O 0.0000 0.0000 0.0000 0.0000 0.0000 0.0000 0.0000 0.0000 5.8050 0.0000 0.0000
'International Tables Vol C 4.2.6.8 and 6.1.1.4'
H 0.0000 0.0000 0.0000 0.0000 0.0000 0.0000 0.0000 0.0000 -3.7409 0.0000 0.0000
'International Tables Vol C 4.2.6.8 and 6.1.1.4'
S 0.0000 0.0000 0.0000 0.0000 0.0000 0.0000 0.0000 0.0000 2.8470 0.0000 0.0000
'International Tables Vol C 4.2.6.8 and 6.1.1.4'
Rb 0.0000 0.0000 0.0000 0.0000 0.0000 0.0000 0.0000 0.0000 7.0800 0.0000 0.0000
'International Tables Vol C 4.2.6.8 and 6.1.1.4'
loop_
_geom_angle_atom_site_label_1
_geom_angle_atom_site_label_2
_geom_angle_atom_site_label_3
_geom_angle
_geom_angle_publ_flag
O1 S1 O4 108.3(3) yes
O1 S1 O2 106.7(3) yes
O4 S1 O2 113.0(3) yes
O1 S1 O3 100.9(3) yes
O4 S1 O3 111.9(3) yes
O2 S1 O3 115.0(3) yes
O5 S2 O8 103.9(3) yes
O5 S2 O6 108.1(2) yes
O8 S2 O6 112.4(3) yes
O5 S2 O7 105.4(3) yes
O8 S2 O7 112.7(2) yes
O6 S2 O7 113.4(3) yes
S1 O1 H1 111.6(3) no
S2 O5 H2 114.0(3) no
loop_
_geom_bond_atom_site_label_1
_geom_bond_atom_site_label_2
_geom_bond_distance
_geom_bond_publ_flag
S1 O1 1.554(4) yes
S1 O4 1.437(4) yes
S1 O2 1.432(5) yes
S1 O3 1.436(4) yes
S2 O5 1.567(4) yes
S2 O8 1.453(4) yes
S2 O6 1.440(4) yes
S2 O7 1.444(4) yes
O1 H1 0.988(5) no
O5 H2 0.996(4) no

_cod_database_fobs_code 2108014
