#------------------------------------------------------------------------------
#$Date: 2020-11-24 07:09:22 +0200 (Tue, 24 Nov 2020) $
#$Revision: 259225 $
#$URL: file:///home/coder/svn-repositories/cod/cif/2/10/87/2108701.cif $
#------------------------------------------------------------------------------
#
# This file is available in the Crystallography Open Database (COD),
# http://www.crystallography.net/. The original data for this entry
# were provided by IUCr Journals, http://journals.iucr.org/.
#
# The file may be used within the scientific community so long as
# proper attribution is given to the journal article from which the
# data were obtained.
#
data_2108701
loop_
_publ_author_name
'Poddig, Hagen'
'Doert, Thomas'
_publ_section_title
;
 Distorted Te nets in the modulated crystal structures of
 <i>RE</i>Te~1.94(1)~ (<i>RE</i> = La, Pr, Nd)
;
_journal_coeditor_code           DK5100SUP1
_journal_issue                   6
_journal_name_full               'Acta Crystallographica Section B'
_journal_page_first
;
;
_journal_paper_doi               10.1107/S2052520620013797
_journal_volume                  76
_journal_year                    2020
_chemical_formula_sum            'Pr Te1.942'
_chemical_formula_weight         389.09
_chemical_name_systematic        'Praseodymium telluride (1/1.942)'
_space_group_crystal_system      tetragonal
_space_group_IT_number           129
_space_group_name_Hall           'P 4ab 2ab -1ab'
_space_group_name_H-M_alt        'P 4/n m m :1'
_atom_sites_solution_primary     dual
_cell_angle_alpha                90
_cell_angle_beta                 90
_cell_angle_gamma                90
_cell_formula_units_Z            2
_cell_length_a                   4.4535(5)
_cell_length_b                   4.4535(5)
_cell_length_c                   9.047(1)
_cell_measurement_reflns_used    10769
_cell_measurement_temperature    296(1)
_cell_measurement_theta_max      27.50
_cell_measurement_theta_min      1.88
_cell_volume                     179.44(3)
_computing_cell_refinement       'STOE X-AREA'
_computing_data_collection       'STOE X-AREA'
_computing_data_reduction        'STOE X-RED'
_computing_publication_material
'DIAMOND v. 4.5.2 (Brandenburg, Germany, 2018)'
_computing_structure_refinement  'SHELXL 2016/6 (Sheldrick, 2015)'
_computing_structure_solution    'SHELXT 2014/5 (Sheldrick, 2014)'
_diffrn_ambient_temperature      296(1)
_diffrn_detector                 'image plate (34 cm diameter)'
_diffrn_detector_area_resol_mean 6.67
_diffrn_measured_fraction_theta_full 1.00
_diffrn_measured_fraction_theta_max 1.00
_diffrn_measurement_device       'two-circle diffractometer'
_diffrn_measurement_device_type  'IPDS II, Stoe'
_diffrn_measurement_method       'rotation method'
_diffrn_radiation_monochromator  graphite
_diffrn_radiation_probe          x-ray
_diffrn_radiation_type           'Mo K\a'
_diffrn_radiation_wavelength     0.71073
_diffrn_reflns_av_R_equivalents  0.0371
_diffrn_reflns_av_unetI/netI     0.0174
_diffrn_reflns_limit_h_max       5
_diffrn_reflns_limit_h_min       -5
_diffrn_reflns_limit_k_max       5
_diffrn_reflns_limit_k_min       -5
_diffrn_reflns_limit_l_max       11
_diffrn_reflns_limit_l_min       -11
_diffrn_reflns_number            1851
_diffrn_reflns_theta_full        25.242
_diffrn_reflns_theta_max         27.472
_diffrn_reflns_theta_min         2.251
_diffrn_source
'sealed X-ray tube, 12 x 0.4 mm long-fine focus'
_exptl_absorpt_coefficient_mu    28.787
_exptl_absorpt_correction_T_max  0.4638
_exptl_absorpt_correction_T_min  0.0295
_exptl_absorpt_correction_type   numerical
_exptl_absorpt_process_details   'STOE X-RED32, v. 1.53'
_exptl_crystal_colour            black
_exptl_crystal_density_diffrn    7.202
_exptl_crystal_description       plate
_exptl_crystal_F_000             320
_exptl_crystal_size_max          0.1043
_exptl_crystal_size_mid          0.0522
_exptl_crystal_size_min          0.0131
_refine_diff_density_max         1.171
_refine_diff_density_min         -2.608
_refine_diff_density_rms         0.562
_refine_ls_extinction_coef       0.081(6)
_refine_ls_extinction_expression Fc^*^=kFc[1+0.001xFc^2^\l^3^/sin(2\q)]^-1/4^
_refine_ls_extinction_method     'SHELXL-2016/6 (Sheldrick 2016)'
_refine_ls_number_constraints    0
_refine_ls_number_parameters     11
_refine_ls_number_reflns         152
_refine_ls_number_restraints     0
_refine_ls_restrained_S_all      1.284
_refine_ls_R_factor_all          0.0292
_refine_ls_R_factor_gt           0.0292
_refine_ls_shift/su_max          0.000
_refine_ls_shift/su_mean         0.000
_refine_ls_structure_factor_coef Fsqd
_refine_ls_weighting_details
'w=1/[\s^2^(Fo^2^)+(0.0238P)^2^+2.5000P] where P=(Fo^2^+2Fc^2^)/3'
_refine_ls_weighting_scheme      calc
_refine_ls_wR_factor_gt          0.0564
_refine_ls_wR_factor_ref         0.0564
_reflns_number_gt                152
_reflns_number_total             152
_reflns_threshold_expression     I>2\s(I)
_cod_data_source_file            dk5100sup1.cif
_cod_data_source_block           II
_cod_depositor_comments
;
The following automatic conversions were performed:

data item '_diffrn_radiation_probe' value 'X-ray' was changed to
'x-ray' in accordance with the
/home/data/users/saulius/crontab/automatic-downloads/rss-feeds/IUCr/lib/dictionaries/cif_core.dic
dictionary named 'cif_core.dic' version 2.4.2 last updated on
2011-04-26.

Automatic conversion script
Id: cif_fix_values 7556 2019-12-06 15:28:31Z antanas 
;
_cod_original_cell_volume        179.43(5)
_cod_original_sg_symbol_H-M      'P 4/n m m:1'
_cod_database_code               2108701
_shelx_res_file
;
TITL hp_pr003_k1_a.res in P4/nmm
    hp_pr003_k1.res
    created by SHELXL-2016/6 at 18:41:23 on 25-Jun-2020
REM Old TITL HP_Pr003_k1 in P4/nmm #129
REM SHELXT solution in P4/nmm: R1 0.161, Rweak 0.032, Alpha 0.019
REM <I/s> 0.000 for 0 systematic absences, Orientation as input
REM Formula found by SHELXT: Pr2 Te
CELL 0.71073 4.4535 4.4535 9.0467 90 90 90
ZERR 2 0.0005 0.0005 0.0011 0 0 0
LATT -1
SYMM 0.5-X,0.5-Y,-Z
SYMM 0.5-Y,0.5+X,+Z
SYMM -X,-Y,+Z
SYMM 0.5+Y,0.5-X,+Z
SYMM +Y,-X,-Z
SYMM -Y,+X,-Z
SYMM 0.5+X,0.5-Y,-Z
SYMM 0.5-X,0.5+Y,-Z
SYMM +Y,+X,-Z
SYMM -Y,-X,-Z
SYMM 0.5+X,0.5+Y,-Z
SYMM -X,+Y,+Z
SYMM +X,-Y,+Z
SYMM 0.5-Y,0.5-X,+Z
SYMM 0.5+Y,0.5+X,+Z
SFAC Pr Te
UNIT 2 3.89

L.S. 20
PLAN  5
SIZE 0.205 0.128 0.0275
TEMP 22.85
CONF
list 4
MORE -1
fmap -2
acta
REM <olex2.extras>
REM <HklSrc "%.\\HP_Pr003_k1.hkl">
REM </olex2.extras>

WGHT    0.023800    2.500000
EXTI    0.080801
FVAR       0.64523
PR01  1    0.000000    0.500000    0.272187    10.12500    0.01017    0.01017 =
         0.01170    0.00000    0.00000    0.00000
TE02  2    0.000000    0.500000    0.632419    10.12500    0.00824    0.00824 =
         0.00801    0.00000    0.00000    0.00000
TE03  2    0.000000    0.000000    0.000000     0.11771    0.03395    0.03395 =
         0.00609    0.00000    0.00000    0.00000
HKLF 4




REM  hp_pr003_k1_a.res in P4/nmm
REM R1 =  0.0292 for     152 Fo > 4sig(Fo)  and  0.0292 for all     152 data
REM     11 parameters refined using      0 restraints

END

WGHT      0.0227      0.6434

REM Highest difference peak  1.381,  deepest hole -3.146,  1-sigma level  0.621
Q1    1   0.0000  0.5000  0.7491  10.12500  0.05   -3.15
Q2    1   0.0000  0.5000  0.1895  10.12500  0.05   -3.02
Q3    1   0.0000  0.5000  0.4355  10.12500  0.05   -2.07
Q4    1   0.0000  0.0000  0.0744  10.25000  0.05   -1.82
Q5    1   0.0000  0.5000  0.8973  10.12500  0.05   -1.81
;
_shelx_res_checksum              74288
_shelx_hkl_file
;
   1  -1   0 2600.72   14.92
  -1   1   0 2539.30   10.98
  -1   1   0 2299.98   19.05
  -1  -1   0 2560.01    9.41
  -2   0   0 8204.70   15.59
   0  -2   0 7797.90   32.55
  -2   0   0 8053.25   12.52
   0   2   0 5861.25   17.64
   0  -2   0 9999.00   27.24
   2   0   0 6639.92   13.58
  -2   2   0 6716.29   14.91
  -2   2   0 8076.84   29.16
  -2  -2   0 7079.52   11.71
  -2  -2   0 3390.15    8.24
   2  -2   0 8350.65   17.75
  -1   3   0 2448.10   12.67
  -3  -1   0 2479.68    7.06
   1  -3   0 2670.38   18.79
   3   1   0 2357.51    6.82
  -3  -1   0 2548.31    5.90
  -1  -3   0 2562.16    8.77
  -3   1   0 2683.52    6.55
   3  -1   0 2522.90    7.67
  -1  -3   0 2482.03    9.69
  -3   1   0 2410.79    9.28
  -3   3   0 2084.94    8.54
  -3   3   0 1733.43   19.60
  -3  -3   0 1827.01    6.11
   3  -3   0 2098.86    8.50
  -3  -3   0 1815.43    6.91
  -3  -3   0 1734.22    5.47
  -2   4   0 4977.41   17.58
  -4  -2   0 4905.27    7.94
  -4  -2   0 4892.34    9.21
   2  -4   0 5169.89   15.41
   0  -4   0 5856.46   25.29
   4   0   0 5820.79   10.07
   0   4   0 6160.42   12.66
  -4   0   0 6205.00   11.48
  -4   0   0 6378.67    8.83
  -4   2   0 5541.34    9.62
  -2  -4   0 4817.89   12.58
  -2  -4   0 4809.77   10.51
  -2  -4   0 4522.20    9.37
   4  -2   0 5164.33   10.66
  -4   2   0 4657.37   16.65
  -4   4   0 2915.22   21.52
  -4  -4   0 2590.76    9.60
  -4  -4   0 2571.86    7.49
  -4  -4   0 2899.63    8.47
   4  -4   0 3123.53   10.54
  -4   4   0 2990.51   15.85
   1  -5   0 1736.94   17.01
  -5  -1   0 1762.13    6.98
  -1   5   0 1669.08    9.02
  -5  -1   0 1701.67    5.09
  -5   1   0 1704.28    9.42
  -5   1   0 1708.22    5.50
   5  -1   0 1652.31    6.80
  -1  -5   0 1723.84   15.27
   0   0   1   41.51   17.97
   0   0  -1   48.14   20.90
   0  -1  -1  409.21   10.59
   0  -1  -1  428.84    8.50
  -1   0   1  440.45    5.36
   0  -1   1  429.20    8.90
   0   1  -1  438.80    6.85
   0   1   1  439.03    8.12
   1   0  -1  415.02    5.36
   0   1   1  421.33    7.30
   1   0   1  428.32    4.92
   1   0   1  422.33    4.02
  -1   0  -1  427.10    4.06
  -1   0  -1  425.38    5.17
  -1  -1   1 4593.28   12.44
  -1  -1  -1 2685.74    9.06
   1  -1   1 4798.17   18.24
  -1   1  -1 4886.90   15.01
   1   1   1 3913.57   10.71
   1  -1  -1 4348.96   20.97
   1  -1   1 3187.73   11.66
  -1   1  -1 3958.27   26.46
  -1   1   1 4347.22   23.46
  -1   2  -1  295.33   11.68
   1  -2  -1  295.77   10.71
   1  -2   1  296.69    4.81
   2   1  -1  293.24    3.47
  -2  -1   1  300.45    3.30
   1  -2   1  304.11    9.39
  -2  -1  -1  294.99    3.45
  -2  -1  -1  301.60    2.73
  -1   2  -1  338.09   11.69
  -1   2   1  291.42   17.47
  -2   0   1   10.87    2.51
   0  -2   1   14.37    6.91
   0  -2  -1    5.88    5.72
   0   2   1    4.34    4.04
  -2   0  -1   11.07    1.68
   2   0  -1   14.28    2.51
   0   2  -1    9.89    3.11
  -2   0  -1    6.59    2.57
   2   0   1    3.47    2.19
   2  -1  -1  289.75    4.42
  -1  -2  -1  297.93    3.91
  -2   1  -1  322.29    3.22
  -1  -2  -1  305.50    3.69
  -1  -2   1  298.71    4.36
  -2   1  -1  303.17    5.87
   2  -1   1  301.42    4.09
  -2   1   1  286.88    5.28
  -2  -2  -1   12.23    2.51
  -2  -2   1  181.87    2.80
  -2   2   1   16.15    8.55
  -2   2  -1   20.75   14.26
   2  -2   1   17.54    3.88
  -2   2  -1   14.15    3.33
  -2  -2  -1   25.85    2.09
   2  -2  -1   20.34    4.50
  -2   2   1   17.45    2.90
  -2  -2  -1   19.03    2.66
  -2   3   1  158.15   17.26
  -3  -2  -1  178.66    2.60
  -2   3  -1  177.95   10.15
  -2   3  -1  187.89   12.40
  -2   3   1  179.56    5.91
  -3  -2  -1  173.35    3.25
   2  -3  -1  179.43    7.32
  -3  -2   1  170.93    2.60
  -3  -2   1  171.69    3.08
   2  -3   1  185.84    5.71
  -3  -1  -1 3012.99    6.40
   1  -3   1 3150.33   18.91
   3   1  -1 2833.63    7.55
  -3  -1   1 3055.73    7.68
   1  -3  -1 3155.95   20.91
  -1   3  -1 2992.33   12.56
  -3  -1  -1 2958.42    7.85
  -1   3   1 3109.26   15.78
   0  -3  -1  236.92    8.54
   0   3  -1  237.88    4.26
  -3   0  -1  228.06    2.45
   0   3   1  225.65    4.79
   0  -3   1  226.91   10.91
  -3   0  -1  227.47    3.73
   3   0   1  226.29    3.14
  -3   0   1  230.24    3.46
   3   0  -1  224.85    3.29
   3  -1  -1 2884.50    8.36
  -1  -3  -1 2971.26    9.88
  -1  -3  -1 2984.09   10.16
  -3   1  -1 3224.20    7.17
  -1  -3   1 3017.72   11.18
   3  -1   1 3066.81    8.28
  -3   1   1 3149.55    7.00
  -3   1   1 2955.54    9.83
  -3   1  -1 2896.55   10.49
   3  -2  -1  188.56    4.46
  -2  -3  -1  174.92    3.88
  -3   2   1  173.33    3.02
   3  -2   1  175.17    4.01
  -3   2  -1  177.61    3.16
  -3   2   1  167.63    7.98
  -3   2  -1  162.45    9.80
  -2  -3  -1  174.89    2.98
  -2  -3   1  168.00    2.88
  -2  -3   1  172.70    4.43
  -2  -3   1  204.23    3.23
  -3  -3  -1 1659.75    6.41
  -3   3  -1 1841.95    8.73
  -3   3   1 1842.51    7.76
   3  -3   1 1911.40    8.08
  -3  -3   1 1725.59    5.94
   3  -3  -1 1866.32    8.70
  -3   3   1 1763.08   17.72
  -3  -3   1 1701.37    5.38
  -3  -3  -1 1603.09    5.90
  -3   3  -1 1763.96   18.75
  -3  -3  -1 1591.81    5.31
  -4  -3  -1  103.93    4.09
   3  -4  -1  110.04    6.63
  -3   4   1   93.06   13.79
  -3   4  -1  104.53   11.09
  -4  -3  -1   99.84    3.19
  -4  -3   1  105.11    3.90
  -4  -3   1   99.64    3.08
  -4  -3  -1   98.60    3.90
  -3   4   1  105.32   16.49
   3  -4   1  107.64    5.69
  -4  -2   1   74.34    3.23
  -4  -2  -1   64.83    2.68
  -4  -2  -1   67.24    3.39
   2  -4  -1  127.35    8.07
   2  -4   1   69.07    6.82
  -2   4  -1   70.69    8.13
  -4  -2   1   72.52    2.76
  -2   4   1   76.19   10.58
  -1   4  -1  145.32    5.27
   4   1  -1  138.77    3.37
  -4  -1  -1  144.91    2.50
  -1   4   1  150.92    7.21
   1  -4  -1  162.66   14.35
  -4  -1  -1  149.84    3.63
  -4  -1   1  154.90    3.42
   1  -4   1  161.29   11.34
  -4  -1   1  133.16    2.51
   4   0  -1   54.97    3.15
  -4   0  -1   55.34    3.94
  -4   0   1   56.47    3.65
  -4   0   1   60.67    2.30
   0  -4   1   51.42   15.35
   4   0   1   54.74    3.14
  -4   0  -1   56.34    2.27
   0   4   1   56.02    4.62
   0  -4  -1   55.80   12.73
   4  -1   1  138.66    3.55
   4  -1  -1  142.68    4.02
  -1  -4  -1  146.75    7.18
  -4   1  -1  153.04    2.89
  -1  -4   1  155.98    7.73
  -4   1  -1  144.56    5.45
  -1  -4  -1  141.40    6.42
  -4   1   1  141.02    5.35
  -4   1   1  139.15    2.82
  -1  -4   1  139.64    4.29
  -2  -4  -1   62.78    5.22
  -2  -4   1   62.34    3.49
  -2  -4  -1   64.40    3.76
  -2  -4   1   64.48    3.51
   4  -2  -1   86.26    4.60
  -4   2  -1   65.63    3.20
  -4   2  -1   59.80    9.34
  -4   2   1   79.49    3.26
   4  -2   1   66.22    3.79
  -4   2   1   64.05    8.32
  -2  -4   1   65.23    5.64
  -3  -4  -1   98.18    3.77
  -3  -4   1   96.98    3.54
  -3  -4  -1   93.69    4.17
   4  -3  -1  107.93    5.20
  -4   3   1  109.84    4.40
  -3  -4   1  101.12    3.75
  -4   3  -1  107.03    4.54
  -4   3   1   88.33   12.99
  -4   3  -1   96.02   16.26
  -3  -4  -1  108.79    5.26
  -3  -4   1  105.71    5.45
   4  -3   1  103.61    4.78
  -4   4  -1   79.10   10.69
   4  -4   1   77.40    5.61
  -4   4  -1   70.29   15.34
  -4   4   1   71.79   16.11
   4  -4  -1   87.74    6.29
  -4  -4   1   91.65    4.73
  -4   4   1   85.03    8.49
  -4  -4  -1   73.89    4.89
  -4  -4   1   78.50    4.10
  -4  -4  -1   76.59    4.31
  -4  -4  -1   74.79    5.78
  -4  -4   1   73.39    6.24
  -5  -2  -1   87.27    4.60
  -5  -2   1   85.65    4.49
  -5  -2   1   79.91    3.57
  -5  -2  -1   86.58    3.40
  -2   5   1   89.80    9.37
   2  -5   1   86.74    8.52
  -2   5  -1   92.35    7.50
   2  -5  -1   92.43    9.75
  -5  -1  -1 1114.34    6.67
  -5  -1   1 1009.26    4.32
  -1   5  -1 1051.34    7.76
  -5  -1  -1 1070.44    4.39
  -5  -1   1 1092.32    6.01
   1  -5   1 1135.96   15.20
  -1   5   1 1048.94    8.87
   1  -5  -1 1134.59   16.84
  -5   0   1  105.67    5.02
  -5   0  -1  107.47    3.26
   0  -5   1  105.65   22.75
  -5   0   1  102.63    3.10
   5   0  -1   99.42    4.21
  -5   0  -1  118.69    5.91
   0  -5  -1  104.48   19.67
   0   5   1  110.71    5.52
   5   0   1   98.54    4.25
  -5   1  -1 1116.71    8.58
  -5   1   1 1025.15    4.76
  -5   1  -1 1037.78    4.81
  -5   1   1 1068.36    8.51
  -1  -5  -1 1096.41   12.91
   5  -1   1 1007.79    5.56
  -1  -5   1 1111.03   15.51
   5  -1  -1 1015.13    6.35
  -2  -5   1  114.77    9.48
  -5   2  -1   83.79   11.18
  -2  -5  -1   87.94    7.24
  -5   2   1   88.36    3.79
  -2  -5   1   84.34    5.94
   5  -2   1   86.94    4.65
   5  -2  -1   89.73    5.19
  -2  -5  -1   80.71    8.72
  -2  -5   1   79.56    4.50
  -5   2  -1   86.37    4.04
  -5   2   1   86.33   10.13
   0   0  -2  217.23   14.53
   0   0   2  195.17   12.62
   0  -1   2 1317.70   12.03
  -1   0  -2 1257.30    6.46
   0  -1  -2 1268.09   12.04
   0   1   2 1218.63   11.88
   1   0   2 1232.94    6.36
   0  -1   2 1272.79   14.89
  -1   0  -2 1267.30    8.62
   1   0  -2 1236.71    8.81
  -1   0   2 1286.17    8.49
   0   1   2 1244.11   12.45
   1  -1   2 4117.60   18.24
  -1   1  -2 5474.72   34.05
  -1   1  -2 5154.62   15.78
  -1  -1  -2 5831.98   13.90
  -1   1   2 6109.15   26.10
   1  -1  -2 5619.21   25.07
   1   1  -2 4407.28   13.89
  -1  -1  -2 5293.42   12.35
   1  -1   2 4074.85   12.49
  -1  -1   2 4715.93   13.09
   1   1   2 4920.11   11.81
   1  -2   2  905.94   10.60
  -1   2   2  860.72   13.02
   2   1  -2  859.33    5.14
  -2  -1  -2  868.03    4.06
  -2  -1  -2  844.43    5.06
  -1   2  -2  878.20   11.82
   2   1   2  855.36    4.04
   1  -2   2  881.22    6.58
   1  -2  -2  909.56   13.89
  -2  -1   2  888.82    4.80
   0  -2   2  248.84    9.52
  -2   0  -2  242.53    2.68
   0  -2  -2  253.40    6.98
   0   2   2  253.78    6.09
   2   0   2  285.70    2.70
   2   0  -2  234.75    3.75
   0   2   2  249.03    4.96
  -2   0   2  272.52    3.76
  -2   0  -2  265.64    3.95
  -1  -2  -2  857.06    5.68
  -2   1  -2  848.82    8.17
   1   2   2  855.78    5.10
  -2   1   2  835.86    7.28
  -2   1  -2  893.24    4.73
   2  -1  -2  850.65    6.82
  -1  -2   2  849.89    5.25
  -1  -2  -2  861.89    5.50
   2  -1   2  880.24    4.45
   2  -1   2  889.67    5.84
  -2   2   2  224.46    9.03
  -2  -2  -2  266.67    2.96
  -2   2  -2  272.57    4.42
  -2  -2  -2  264.44    3.47
  -2   2  -2  240.20   14.24
   2  -2   2  278.91    4.84
  -2  -2   2  273.91    3.38
   2  -2  -2  257.45    6.76
   2  -2   2  274.75    3.50
  -2   3   2  544.57   11.61
  -3  -2  -2  542.33    3.47
   2  -3  -2  534.54    8.64
  -2   3   2  545.71    6.16
   2  -3   2  573.72    6.28
  -2   3  -2  552.04   10.96
  -3  -2   2  543.74    4.01
  -3  -2  -2  520.84    4.18
  -1   3   2 4203.25   19.80
   1  -3   2 3823.28   14.82
  -3  -1  -2 4081.85    7.41
  -3  -1  -2 4022.96    9.32
   3   1  -2 3877.68    8.94
  -3  -1   2 4271.71    8.93
   1  -3   2 4158.02   19.55
  -1   3  -2 4187.10   13.90
   1  -3  -2 4293.61   19.60
  -3   0   2  704.67    4.73
  -3   0  -2  706.51    5.28
   0  -3  -2  721.54    9.36
   0   3   2    0.03    0.73
  -3   0  -2  687.09    3.52
   0  -3   2  695.33   14.85
   3   0   2  678.95    4.27
   0   3   2  664.87    6.61
   3   0  -2  660.64    4.67
  -3   1   2 3964.52   11.17
  -1  -3  -2 3798.09   10.96
   3  -1  -2 3743.42    9.96
  -1  -3   2 4134.56    9.59
  -3   1  -2 4105.21   12.68
  -1  -3  -2 3953.19   11.81
   3  -1   2 4243.74    9.55
  -3   1  -2 4282.22    8.25
  -1  -3   2 4180.97   13.64
   3  -2   2  557.38    4.80
  -3   2  -2  519.44   12.19
  -3   2   2  512.97    8.60
  -2  -3   2  526.75    4.20
  -2  -3  -2  549.46    4.06
  -3   2  -2  557.70    4.31
   3  -2  -2  561.27    6.13
  -3   2   2  533.51    3.91
  -2  -3   2  540.15    5.72
  -2  -3  -2  545.97    4.69
  -3   3   2 2737.99    8.80
   3  -3  -2 2616.52   10.55
  -3   3  -2 2583.48   10.48
  -3  -3  -2 2331.60    7.05
  -3   3  -2 2506.37   21.92
  -3  -3   2 2503.10    6.33
  -3  -3  -2 2454.70    7.31
  -3   3   2 2574.60   17.42
  -3  -3   2 2517.11    6.98
   3  -3   2 2761.71    9.35
  -3  -3  -2 2390.29    6.43
  -4  -3   2  305.76    4.37
  -4  -3  -2  286.97    4.43
  -3   4   2  296.29   12.16
  -4  -3   2  276.60    3.47
   3  -4   2  309.13    6.14
   3  -4  -2  319.99    7.65
  -3   4  -2  296.24   11.38
  -4  -3  -2  292.78    4.41
  -4  -3  -2  292.81    3.63
  -3   4   2  306.34   11.44
  -4  -2   2  312.78    4.13
  -4  -2  -2  302.70    3.24
  -4  -2   2  300.16    3.16
   2  -4  -2  301.60    9.75
  -2   4  -2  318.94    7.53
   2  -4   2  316.79    7.00
  -4  -2  -2  310.63    4.25
  -2   4   2  288.48   13.74
   1  -4   2  455.04   11.48
  -4  -1   2  447.63    4.08
  -4  -1   2  416.62    3.11
  -4  -1  -2  434.55    3.12
  -1   4   2  439.33    9.30
   4   1  -2  419.51    4.24
  -1   4  -2  443.19    5.86
   1  -4  -2  460.04   13.45
  -4  -1  -2  440.79    4.73
  -4   0  -2  330.98    2.97
  -4   0   2  330.37    4.26
   4   0  -2  308.97    4.08
   0  -4   2  312.93    7.76
  -4   0   2  314.41    2.92
   0   4   2  318.62    6.08
   0  -4  -2  309.90   11.87
   0  -4   2  320.43   11.31
  -4   0  -2  329.88    4.99
   0  -4   2  304.25   13.45
  -1  -4   2  462.65    9.84
  -1  -4  -2  423.80    8.48
  -4   1  -2  440.23    3.59
  -1  -4   2  411.29    4.82
  -4   1   2  417.50    5.64
  -1  -4  -2  439.21    7.70
  -4   1   2  419.46    3.45
   4  -1   2  428.55    4.07
  -4   1  -2  439.74    6.50
   4  -1  -2  465.11    4.82
   4  -2  -2  311.55    5.49
  -2  -4   2  302.44    4.17
   4  -2   2  318.39    4.41
  -2  -4  -2  316.29    4.79
  -2  -4   2  305.99    6.79
  -4   2  -2  316.65    3.92
  -2  -4  -2  302.48    5.96
  -4   2  -2  293.16   10.80
  -4   2   2  319.08    3.84
  -2  -4   2  308.39    3.97
  -4   2   2  393.25    9.05
  -4   3  -2  290.36   13.82
  -4   3   2  298.15    4.72
  -4   3   2  296.03   12.48
  -3  -4  -2  293.18    4.31
   4  -3  -2  321.98    6.23
  -3  -4   2  284.98    4.04
  -3  -4  -2  307.02    5.44
  -3  -4  -2  296.11    4.72
  -3  -4   2  283.86    6.18
  -3  -4   2  293.89    4.28
  -4   3  -2  306.44    5.54
   4  -3   2  304.18    5.17
   4  -4   2  336.63    6.45
   4  -4  -2  265.80    7.41
  -4   4   2  287.29    8.35
  -4  -4   2  240.35    6.83
  -4  -4  -2  245.83    4.83
  -4   4  -2  252.12   14.65
  -4   4   2  233.85   12.71
  -4  -4   2  245.95    4.53
  -4  -4  -2  264.03    6.15
  -4   4  -2  252.93   13.01
  -4  -4  -2  252.31    5.45
  -4  -4   2  265.02    4.86
  -5  -2  -2  251.23    5.47
  -5  -2  -2  253.60    3.91
  -2   5  -2  270.53    7.26
  -2   5   2  247.62   11.80
   2  -5   2  263.05    8.16
  -5  -2   2  244.27    3.77
  -5  -2   2  308.51    4.96
   2  -5  -2  256.42   10.96
  -5  -1  -2 1698.33    7.95
  -5  -1   2 1684.85    6.76
  -5  -1  -2 1594.81    5.19
  -1   5   2 1563.70   10.49
  -5  -1   2 1572.22    5.15
   5   1  -2 1557.80    6.82
   1  -5   2 1678.23   14.66
   1  -5  -2 1650.93   17.49
   0   5   2  297.81    6.57
  -5   0  -2  311.07    6.14
  -5   0  -2  304.40    3.47
  -5   0   2  308.68    5.38
  -5   0   2  298.45    3.49
   0  -5   2  311.76   20.75
   5   0  -2  291.55    4.73
   0  -5  -2  298.05   16.93
   5  -1  -2 1550.85    7.19
   5  -1   2 1568.07    6.60
  -5   1   2 1593.18    5.43
  -5   1  -2 1615.45    5.64
  -1  -5  -2 1640.99   13.51
  -5   1  -2 1669.75   10.79
  -1  -5   2 1702.90   12.26
  -1  -5   2 1564.33   18.50
  -5   1   2 1636.17    9.11
  -1  -5   2 1614.58    6.98
  -2  -5   2  267.02   11.48
  -2  -5   2  236.94    5.65
  -5   2  -2  256.47    4.39
  -2  -5   2  259.66    4.81
  -5   2  -2  236.90   12.73
  -5   2   2  251.21    4.34
  -2  -5  -2  251.16    8.75
  -5   2   2  237.57   10.83
   5  -2   2  242.60    5.06
  -2  -5  -2  251.98    9.21
   5  -2  -2  261.45    6.42
   0   0   3 8468.65   35.86
   0   0  -3 7616.11   37.59
   1   0  -3 4298.49   16.66
   0  -1  -3 4582.61   20.94
  -1   0  -3 3285.92   13.51
  -1   0   3 4760.25   16.28
   0   1   3 4674.40   21.94
  -1   0  -3 4475.01   11.86
   1   0   3 4473.11   11.75
   0  -1   3 4521.87   31.14
   0   1   3 4452.18   22.28
   1  -1  -3  315.49   11.04
  -1   1   3  324.14    9.83
   1   1   3  320.18    3.61
  -1  -1  -3  319.37    4.26
  -1   1  -3  308.67    5.41
   1  -1   3  322.82    4.41
  -1   1  -3  321.54   14.82
  -1  -1   3  342.45    4.32
   1   1  -3  318.89    4.79
  -1  -1  -3  316.12    3.72
  -2  -1  -3 3661.69    9.90
  -2  -1   3 4207.68    9.76
   2   1   3 3695.62    7.90
  -1   2  -3 3868.26   20.11
  -1   2   3 3874.44   16.71
  -2  -1  -3 3813.61    9.13
   2   1  -3 3739.70   10.20
   1  -2   3 4090.69   19.15
   1  -2  -3 3642.19   15.85
   1  -2   3 3813.08   12.21
  -2  -1  -3 3751.20    7.94
   2   0  -3 5665.67   13.52
   0  -2   3 5863.97   31.37
   0  -2  -3 6098.18   19.10
   0   2   3 5932.13   18.96
   0   2   3 6005.64   17.45
  -2   0   3 6523.94   13.43
   2   0   3 6147.86   10.32
  -2   0  -3 6166.74   10.43
   0  -2   3 4034.05   15.60
  -2   0  -3 6181.06   14.46
   2  -1   3 3966.96    8.67
  -1  -2  -3 3631.31   10.39
   1   2   3 3667.28   10.84
  -2   1  -3 3954.87    9.28
   1   2   3 3821.61    9.59
  -1  -2  -3 3716.89   10.48
  -2   1  -3 3837.88   15.70
   2  -1   3 3276.94   11.29
  -2   1   3 3644.62   13.07
  -1  -2   3 4030.87   10.65
   2  -1  -3 3506.80   13.21
  -2   2   3 4603.84   18.11
  -2   2  -3 4617.42   12.64
  -2  -2  -3 4550.62    9.76
   2   2   3 4793.92    8.98
   2  -2  -3 4706.92   16.30
   2  -2   3 4586.52   13.87
  -2  -2  -3 4593.33    8.92
  -2   2  -3 4726.94   25.09
   2  -2   3 5045.92   10.45
  -2  -2   3 4994.61   10.04
   2  -3   3 2802.25   11.18
  -3  -2   3 2686.70    7.12
  -3  -2  -3 2523.29    6.92
  -3  -2  -3 2571.58    6.24
  -3  -2  -3 2447.11    7.46
   2  -3  -3 2449.25   12.82
  -2   3   3 2574.71   12.95
   2  -3   3 2637.82    8.82
  -2   3  -3 2574.37   15.79
   3   1   3  356.80    2.94
  -3  -1  -3  363.07    2.92
   1  -3   3  367.56    8.99
  -1   3   3  360.33    9.92
   1  -3   3  371.71    5.40
  -1   3   3  364.29   12.12
   3   1  -3  358.39    4.13
  -3  -1  -3  374.59    4.41
  -3  -1   3  367.68    3.75
   1  -3  -3  385.83    8.47
  -1   3  -3  381.66    5.90
   0  -3  -3 3130.73   14.15
   0   3   3 3239.51   11.78
  -3   0   3 3246.80    8.70
   0  -3   3 3109.14   19.58
   3   0   3 3149.70    6.70
  -3   0  -3 3188.67    9.83
   0   3   3 3169.90   12.49
  -3   0  -3 3184.35    6.79
   3   0  -3 2933.22    8.75
  -1  -3  -3  368.42    5.46
   3  -1  -3  350.67    5.06
  -1  -3  -3  368.21    5.32
   1   3   3  372.19    5.07
  -3   1  -3  376.34    6.20
  -3   1   3  357.40    5.48
   3  -1   3  359.74    3.16
   1   3   3  382.88    4.04
   3  -1   3  376.50    3.87
  -3   1  -3  372.18    3.38
  -1  -3   3  374.22    3.99
  -1  -3   3  379.19    7.05
   3  -2  -3 2678.82   10.59
   3  -2   3 2668.73    7.00
  -3   2  -3 2610.26    7.92
  -3   2   3 2512.59   12.26
  -2  -3  -3 2551.16    7.50
  -3   2  -3 2333.96   18.80
  -2  -3  -3 2510.55    7.91
   3  -2   3 2635.79    8.49
  -2  -3   3 2617.69    7.31
  -3   3  -3  360.37    6.94
  -3   3  -3  332.58   14.53
  -3  -3  -3  359.17    4.30
  -3   3   3  363.98    4.66
  -3  -3  -3  361.41    3.77
   3  -3  -3  391.32    7.49
  -3   3   3  331.18   10.90
  -3  -3  -3  339.37    4.57
  -3  -3   3  359.70    4.05
   3  -3   3  370.08    5.23
   3  -4   3 1626.80    8.72
  -4  -3   3 1597.34    6.33
   3  -4  -3 1628.26   10.99
  -4  -3  -3 1488.09    5.57
  -3   4   3 1564.01   11.85
  -3   4   3 1544.18   12.40
  -4  -3   3 1474.84    5.54
  -4  -3  -3 1500.35    6.39
  -4  -3  -3 1486.28    6.79
  -3   4  -3 1557.57   12.81
   2  -4   3 2556.23   11.21
  -4  -2  -3 2324.20    6.04
  -2   4  -3 2425.64   11.73
   2  -4  -3 2320.96   14.14
  -4  -2   3 2482.36    7.15
  -2   4   3 2293.56   16.75
  -4  -2  -3 2300.19    7.90
  -4  -2  -3 2367.51    7.21
  -4  -1  -3 2205.47    5.55
  -1   4   3 2133.03   14.63
   1  -4   3 2218.91   13.24
  -4  -1  -3 2196.95    7.99
   1  -4   3 2189.92   14.52
  -4  -1   3 2284.71    6.91
   4   1  -3 2008.41    7.31
   1  -4  -3 2243.06   13.74
  -4   0  -3 3018.35    9.87
   0  -4   3 2990.86   19.03
  -4   0  -3 2948.25    6.43
   0   4   3 2980.40   11.67
  -4   0   3 3071.66    8.41
   0  -4   3 2983.32   20.14
   4   0  -3 2724.08    8.27
   0  -4  -3 2990.35   16.21
   4  -1  -3 2030.85    7.95
  -4   1  -3 2178.32   10.37
  -4   1   3 2134.08    8.75
  -1  -4   3 2148.28   15.34
   4  -1   3 2166.56    7.02
  -1  -4  -3 2120.00   10.00
  -4   1  -3 2210.46    6.17
  -1  -4   3 2134.76    7.50
  -2  -4   3 2333.03   11.66
  -2  -4  -3 2325.28    8.90
   4  -2  -3 2444.47    9.65
  -4   2  -3 2431.97    7.45
  -4   2   3 2397.57    6.89
  -4   2  -3 2277.20   16.15
   4  -2   3 2389.69    7.77
  -4   2   3 2344.75   12.44
  -2  -4   3 2409.50    7.39
  -2  -4  -3 2302.22    9.00
  -4   3  -3 1488.37   15.92
  -4   3   3 1509.43   14.73
   4  -3  -3 1586.25    9.57
  -3  -4  -3 1488.38    6.70
  -3  -4  -3 1528.91    7.39
  -4   3   3 1595.93    6.98
  -3  -4   3 1455.18    6.03
  -3  -4  -3 1440.05    6.89
  -4   3  -3 1555.71    8.42
   4  -3   3 1592.27    7.36
  -3  -4   3 1430.79    9.34
  -3  -4   3 1601.82    6.61
  -2   5   3 1203.13   15.28
   2  -5   3 1356.17   10.59
  -5  -2  -3 1283.82    5.29
   2  -5  -3 1306.81   13.44
  -5  -2   3 1273.10    5.28
  -5  -2   3 1382.99    6.63
  -2   5  -3 1335.86    9.60
  -5  -2  -3 1272.36    7.86
  -1   5   3  355.15   10.79
  -5  -1   3  356.03    3.72
  -5  -1  -3  373.30    6.41
  -5  -1   3  378.30    5.25
  -5  -1  -3  364.90    3.64
   1  -5   3  352.61   11.40
   5   1  -3  345.30    5.37
   1  -5  -3  388.99   11.91
  -5   0  -3 1609.54    9.09
   0  -5   3 1577.40   21.49
   0  -5  -3 1499.23   16.59
   0   5   3 1534.43    9.96
  -5   0  -3 1570.28    5.51
  -5   0   3 1572.68    7.36
  -5   0   3 1511.92    5.41
   5   0  -3 1462.72    7.12
  -5   1  -3  369.90    4.14
  -5   1  -3  367.49    9.23
  -1  -5  -3  357.82   11.29
  -5   1   3  349.39    7.33
  -1  -5   3  355.80    7.00
  -1  -5   3  360.49   13.73
  -1  -5   3  364.79    5.10
  -5   1   3  351.00    4.02
   5  -1  -3  351.91    6.36
  -2  -5  -3 1269.13   12.80
  -5   2  -3 1245.65   15.85
  -5   2   3 1337.66    6.09
  -2  -5   3 1238.22    7.51
  -2  -5  -3 1346.33   10.42
   5  -2   3 1283.96    6.94
  -5   2   3 1273.79   12.03
  -2  -5   3 1354.89    6.67
  -2  -5   3 1255.28   14.38
   5  -2  -3 1327.52    8.57
  -5   2  -3 1323.57    6.51
   0   0   4 1766.47   14.38
   0   0  -4 1829.02   15.87
  -1   0  -4  373.43    6.15
   0  -1  -4  372.84    9.81
  -1   0  -4  360.96    4.58
   0  -1   4  386.36   19.78
   1   0  -4  352.30    7.77
   1   0   4  351.96    4.52
  -1   0   4  363.03    7.02
   0   1  -4  369.93    9.01
   0   1   4  366.88    9.83
   0   1   4  366.24    7.60
  -1  -1  -4 1563.35    7.91
  -1   1   4 1605.44   14.22
  -1  -1  -4 1521.15    7.03
  -1  -1   4 1558.02    8.51
  -1   1  -4 1567.08   27.65
   1  -1   4 1510.40    7.95
   1  -1  -4 1630.17   12.15
  -1   1  -4 1581.31   30.25
   1   1   4 1482.86    6.76
   1   1   4 1577.98    8.83
   1   1  -4 1534.21    9.17
   1  -2   4  277.75    5.26
  -1   2   4  296.07    7.08
  -2  -1   4  288.12    3.92
   2   1   4  297.57    3.05
  -2  -1  -4  286.02    3.78
  -2  -1  -4  269.73    3.01
   1  -2  -4  267.31    6.62
   2   1  -4  264.11    4.65
   0  -2   4 1065.97   18.84
   2   0  -4 1027.65    7.09
   0  -2   4 1113.74   10.72
   0   2   4 1077.16   10.67
  -2   0  -4 1049.45    4.74
   2   0   4 1006.12    4.69
  -2   0   4 1078.96    6.44
  -2   0  -4 1105.78    6.13
   0   2   4 1094.96    9.31
   0  -2  -4 1088.14   10.02
  -2   0  -4 1096.47    7.38
  -2   1  -4  275.61    3.78
  -1  -2   4  277.63    4.32
  -1  -2  -4  314.24    4.87
  -2   1  -4  278.69    7.51
   2  -1  -4  328.73    7.24
   1   2   4  267.28    3.91
   2  -1   4  264.15    3.34
   1   2   4  281.79    5.13
  -2   1   4  260.30    6.24
  -1  -2  -4  269.52    4.51
  -2   2  -4  692.87    6.84
  -2  -2  -4  696.67    4.40
  -2   2  -4  709.33   16.61
  -2  -2   4  719.98    4.79
  -2   2   4  701.36   10.03
   2  -2   4  692.92    4.64
   2  -2  -4  737.80    9.86
   2   2   4  692.44    4.21
  -2  -2  -4  695.51    4.67
   2  -2   4  675.65    6.90
  -3  -2   4  176.76    3.63
  -2   3   4  172.84    7.14
  -3  -2  -4  172.35    3.06
  -2   3  -4  177.74    8.46
   2  -3   4  167.77    4.13
   2  -3  -4  194.97    8.12
  -3  -2  -4  188.32    3.65
   3   2   4  165.06    3.00
   3   2  -4  161.05    4.57
  -3  -2  -4  168.12    4.48
   2  -3   4  176.55    6.04
  -3  -1  -4  686.59    3.72
   1  -3   4  723.55   10.87
   1  -3   4  687.42    6.60
  -3  -1  -4  688.92    4.60
  -1   3   4  667.58   13.64
   3   1   4  646.81    3.69
  -3  -1  -4  683.88    5.72
   3   1  -4  674.97    5.62
   1  -3  -4  697.32    8.15
  -1   3   4  679.22    8.97
  -3  -1   4  714.60    4.76
   3   0  -4  222.97    4.73
  -3   0   4  210.83    4.25
   0  -3   4  210.09    8.32
  -3   0  -4  208.35    2.88
   0   3   4  233.18    4.92
   0  -3   4  222.27   11.90
   3   0   4  201.90    2.77
   0  -3  -4  210.57    8.34
   0   3   4  221.37    8.16
   0  -3   4  209.45    5.05
  -3   0  -4  224.27    4.89
   3  -1  -4  661.79    7.18
  -3   1  -4  706.75    7.86
  -1  -3   4  691.89    8.97
   1   3   4  653.34    4.81
   3  -1   4  661.78    3.96
  -3   1  -4  683.24    4.30
  -3   1   4  676.65    6.69
  -1  -3  -4  689.94    6.42
   1   3   4  689.24    6.59
  -1  -3  -4  695.96    7.22
  -1  -3   4  684.02    5.10
  -3   2  -4  234.45    4.32
  -3   2  -4  171.66   11.00
  -2  -3  -4  175.58    4.33
  -2  -3  -4  166.61    3.85
   3  -2   4  165.00    3.32
   2   3   4  165.11    3.28
   3  -2   4  167.99    4.38
   3  -2  -4  195.46    7.43
  -3   2   4  173.40    7.98
  -2  -3   4  174.41    3.55
  -3  -3   4  327.12    4.15
  -3   3  -4  329.39    8.31
  -3   3   4  352.56   10.04
  -3  -3  -4  308.29    3.74
   3  -3  -4  363.11    8.62
  -3   3  -4  365.50   14.52
   3  -3   4  307.17    4.39
  -3  -3  -4  306.75    5.00
  -3  -3  -4  307.95    4.47
   3  -3   4  309.81    5.57
  -4  -3   4  100.72    4.08
  -3   4   4  106.36    6.65
  -4  -3  -4   98.63    4.93
   3  -4  -4  101.78    9.95
  -3   4  -4  103.26    9.45
  -3   4   4  102.28    8.82
  -4  -3  -4   94.14    5.83
  -4  -3  -4   97.09    3.76
   3  -4   4   97.35    6.31
  -4  -2  -4  205.72    4.16
   2  -4   4  232.01    6.75
  -4  -2   4  231.17    4.39
  -2   4   4  211.90   14.15
  -4  -2  -4  232.51    3.48
   2  -4  -4  222.81    9.65
  -2   4  -4  209.17    7.02
   2  -4   4  204.75    5.40
  -2   4   4  207.72    8.38
  -4  -2  -4  201.93    5.52
  -2   4   4  212.86    9.72
  -4  -1  -4  197.60    2.98
  -4  -1   4  144.99    3.91
  -1   4   4  173.93   13.77
   1  -4   4  136.74    5.82
   1  -4   4  172.55    8.50
  -1   4   4  147.52    9.55
   4   1  -4  129.99    4.72
   1  -4  -4  146.70    8.17
  -4  -1  -4  144.20    5.12
  -4   0  -4  316.66    5.90
   0  -4  -4  298.85   10.53
   0  -4   4  326.99   17.25
  -4   0   4  314.78    4.76
  -4   0  -4  286.28    3.17
   0   4   4    0.05    0.97
   0  -4   4  311.43   11.29
   0   4   4  284.55    5.98
   4   0   4  284.70    3.13
   0   4   4  310.19    8.55
   4   0  -4  299.12    5.22
   0  -4   4  284.87    4.98
   4  -1  -4  143.28    5.71
  -4   1  -4  140.72    3.32
  -1  -4  -4  164.15    6.79
  -4   1   4  135.87    5.67
  -1  -4   4  137.58    4.10
  -1  -4   4  134.19   10.16
  -4   1  -4  155.52    7.89
   4  -2  -4  246.60    7.19
  -2  -4   4  202.15    8.71
  -2  -4  -4  207.45    6.00
  -4   2  -4  215.99   10.97
  -4   2  -4  213.52    4.32
   4  -2   4  202.92    4.61
  -4   2   4  228.11    8.43
  -2  -4  -4  209.96    5.65
  -2  -4   4  215.06    4.15
  -3  -4   4  110.29    4.43
  -3  -4  -4  101.46    5.41
  -4   3  -4   91.06   14.96
  -4   3   4  106.09   12.49
  -3  -4  -4   93.44    5.50
  -3  -4  -4   95.71    4.85
  -3  -4   4   96.58    7.77
  -4   3  -4   96.61    6.66
   4  -3  -4  101.33    8.34
  -4   3   4   99.23    4.62
   4  -3   4   95.18    5.36
  -5  -2   4   89.66    5.28
   2  -5   4   88.35    8.17
  -2   5   4   77.96   15.55
  -5  -2  -4   81.98    4.09
  -5  -2  -4   81.48    4.77
   2  -5  -4   85.93   10.34
  -5  -2   4   76.98    4.10
  -5  -2  -4   85.94    6.79
  -5  -1  -4  150.40    6.51
  -5  -1  -4  178.14    3.56
  -5  -1   4  200.14    5.37
   1  -5   4  153.40    9.77
   5   1  -4  132.69    6.29
   1  -5  -4  164.24   10.29
  -1   5   4  148.18   14.07
   0  -5   4  104.76   17.55
   0   5   4   92.80    9.48
   0  -5  -4  102.79   12.55
  -5   0  -4  106.63    7.36
  -5   0  -4   98.93    3.66
   0  -5   4  105.46   10.96
  -5   0   4  103.05    5.34
   0  -5   4  125.50    5.59
   5   0  -4  127.66    5.81
  -1  -5  -4  154.30   10.94
  -5   1  -4  135.11    4.20
  -5   1  -4  157.81    9.90
  -1  -5   4  141.41   12.31
  -5   1   4  153.24    7.34
  -5   1   4  134.55    3.87
  -1  -5   4  136.50    5.00
   5  -1  -4  138.20    6.53
   5  -2  -4   99.15    8.46
  -2  -5   4   80.62   12.38
  -5   2   4   80.84    4.62
  -5   2  -4   80.73   12.75
  -5   2  -4   81.91    5.10
  -2  -5   4   82.17    5.36
  -2  -5  -4   96.25    9.40
  -5   2   4   83.54   10.65
  -2  -5   4   93.12    5.17
   0   0   5 1003.21    7.49
   0   0  -5 1074.83   11.14
   0   0   5 1046.26   10.33
   0   1   5 4425.44   14.96
   0  -1  -5 4178.43   16.73
   0   1  -5 4241.14   23.03
   1   0  -5 3877.03   18.93
   1   0   5 4038.04   12.18
   0  -1   5 4470.18   27.10
  -1   0  -5 4290.65   17.23
   0   1   5 4294.62   15.38
  -1   0   5 4227.39   17.91
  -1  -1  -5 1789.13    8.17
  -1   1   5 1881.47   11.95
   1  -1   5 1789.11    8.99
   1   1   5 1786.62    7.90
  -1  -1   5 1846.96   10.40
   1  -1  -5 1946.30   10.45
  -1  -1  -5 1844.35    9.13
   1   1   5 1853.47   10.24
   1   1  -5 1824.17   10.69
  -2  -1  -5 3408.34    8.07
   1  -2   5 3450.27   12.30
  -2  -1   5 3749.41   10.23
   2   1   5 3200.62    7.87
  -1   2   5 3607.11   12.33
  -2  -1  -5 3496.79    9.48
   1  -2  -5 3375.56   11.56
   2   1  -5 3386.85   11.35
   2   0  -5  634.87    7.76
   0   2   5  652.34    9.58
  -2   0  -5  640.19    5.54
   0   2   5  622.07    7.38
   2   0   5  606.20    4.24
  -2   0   5  628.77    6.26
  -2   0  -5  652.93    6.99
   0  -2  -5  622.14    9.30
  -2   0  -5  631.32    4.32
  -1  -2  -5 3380.65   11.39
  -2   1  -5 3402.96    9.59
  -2   1  -5 3516.46   17.59
   1   2   5 3431.41   12.27
  -1  -2   5 3804.10   12.03
   2  -1  -5 3540.61   16.45
   1   2   5 3397.72    9.85
   2  -1   5 3359.89    8.59
  -1  -2  -5 3485.26   10.86
  -2   1  -5 3638.83   13.48
  -2   1   5 3439.03   13.38
  -2  -2  -5  392.61    4.22
   2  -2   5  384.76    4.37
   2  -2  -5  430.94    7.48
   2   2   5  368.76    3.88
  -2   2   5  417.48    8.40
  -2  -2  -5  396.19    4.50
  -2  -2   5  408.87    4.35
   2   2  -5  384.79    5.76
  -2   2  -5  433.86   22.70
  -3  -2   5 2509.81    7.43
  -3  -2  -5 2337.32    6.49
   2  -3   5 2340.91    8.46
  -2   3   5 2343.58   10.28
   2  -3  -5 2331.18   10.19
   3   2   5 2286.31    6.41
   3   2  -5 2323.89    9.13
  -3  -2  -5 2283.30    8.69
  -3  -2  -5 2357.33    7.37
  -1   3   5  839.97   16.80
  -3  -1  -5  853.48    4.26
   1  -3   5  862.99    7.84
  -3  -1   5  908.52    5.50
   3   1   5  823.01    4.25
  -3  -1  -5  845.70    5.16
  -3  -1  -5  872.06    6.69
   1  -3  -5  876.51    7.86
   3   1  -5  841.60    6.87
  -1   3   5  869.86    8.11
   3   0  -5 2723.33   10.37
   0   3   5 2809.28   11.22
   0  -3   5 2796.27   12.82
   0  -3  -5 2782.50   13.73
  -3   0  -5 3021.38    8.54
  -3   0  -5 2858.94    6.90
   0  -3   5 2970.96   33.17
   0  -3   5 3031.52   16.04
   3   0   5 2729.07    6.69
  -3   0   5 2959.95    9.18
   0   3   5 2743.93   12.74
  -3   0  -5 2940.59   10.93
  -1  -3   5  895.01    6.47
   3  -1  -5  847.10    8.95
  -3   1  -5  880.25    5.01
   1   3   5  877.87    5.68
   3  -1   5  838.07    4.55
  -1  -3  -5  894.65    7.32
  -1  -3   5  850.05   11.64
  -3   1  -5  916.25    9.90
  -3   1   5  854.77    7.51
   1   3   5  896.09    8.05
  -3   2   5 2331.33   11.85
  -2  -3  -5 2361.96    8.18
  -2  -3   5 2472.87    8.21
  -3   2  -5 2330.61    8.46
  -2  -3  -5 2274.33    8.15
   3  -2  -5 2649.83   12.95
   3  -2   5 2333.62    6.87
   2   3   5 2297.37    7.13
  -3   2  -5 2329.88   16.46
  -3  -3   5  475.42    4.85
  -3  -3  -5  451.90    4.65
  -3   3   5  471.97    8.48
   3  -3  -5  503.58    9.67
  -3  -3  -5  462.17    5.27
   3  -3   5  440.33    4.73
   3   3   5  416.48    4.39
  -3   3  -5  483.64   14.62
  -4  -3   5 1538.74    6.95
  -4  -3  -5 1416.30    6.32
  -3   4  -5 1467.09   15.61
   3  -4  -5 1542.50   12.35
  -3   4   5 1410.63   10.02
  -3   4   5 1458.48    9.35
  -4  -3  -5 1429.31    7.31
  -4  -3  -5 1373.41    8.89
  -2   4   5  109.42   14.35
  -4  -2   5   99.84    4.21
  -4  -2  -5   88.59    3.53
  -4  -2  -5   95.28    4.39
   2  -4   5   90.63    5.24
   2  -4  -5  106.30    7.42
   4   2  -5   89.66    6.25
  -4  -2  -5   93.97    5.92
  -2   4   5   89.43    7.60
  -4  -1  -5 2006.69    5.76
  -1   4   5 1946.11   11.83
   1  -4   5 2002.27   10.62
  -4  -1   5 2132.12    7.54
  -1   4   5 1972.22   12.94
   4   1   5 1940.67    5.76
  -4  -1  -5 1994.65    6.79
   4   1  -5 1928.00    8.98
   1  -4  -5 1971.53   10.02
  -4  -1  -5 2039.20    9.13
   0  -4   5  166.46   17.94
  -4   0  -5  155.65    6.68
   0  -4  -5  151.64    9.08
   0  -4   5  142.86   10.51
   0   4   5  148.82    9.89
  -4   0  -5  139.21    3.22
  -4   0   5  156.65    5.20
   0   4   5  137.62    5.59
   4   0   5  140.19    3.19
   4   0  -5  141.12    6.56
   0  -4   5  140.26    6.05
   4  -1  -5 1894.48   10.21
  -1  -4   5 1945.46   14.33
  -4   1  -5 1980.23    6.48
  -4   1  -5 2071.66   13.14
   1   4   5 2035.12   10.77
  -1  -4  -5 2037.38   10.76
   1   4   5 1965.96    8.40
   4  -1   5 1969.56    6.09
  -4   1   5 1976.51    9.36
  -1  -4   5 2109.55    8.71
  -2  -4   5   92.02    4.47
  -4   2  -5   94.78    4.99
  -2  -4  -5   98.03    6.72
  -2  -4   5   93.54   10.07
   4  -2  -5  104.72    8.13
   4  -2   5   88.33    3.81
  -4   2  -5   93.01   10.27
  -2  -4  -5  103.92    5.86
  -4   2   5  109.81    8.54
  -3  -4  -5 1444.25    7.99
  -3  -4   5 1524.37    7.15
  -4   3  -5 1396.20   10.33
   4  -3  -5 1555.92   11.91
  -3  -4  -5 1375.60    8.01
  -4   3  -5 1428.09   22.47
  -4   3   5 1477.42   13.63
  -3  -4   5 1320.31   11.53
  -5  -1  -5  236.41    7.91
  -5  -1  -5  217.38    4.09
   1  -5   5  238.61   12.58
  -5  -1  -5  216.45    5.08
  -5  -1   5  240.67    6.00
   1  -5   5  223.05    9.90
   5   1  -5  217.81    7.98
   1  -5  -5  216.89    9.25
   1  -5   5  221.25   10.86
  -1   5   5  209.89   15.65
   0  -5  -5 1445.77   13.09
  -5   0  -5 1445.40    6.03
   0  -5   5 1469.94   14.75
  -5   0  -5 1504.63   11.19
  -5   0   5 1479.63    8.29
   5   0  -5 1367.70    9.49
   0  -5   5 1479.32   20.36
   0  -5   5 1474.34   10.11
   0   5   5 1449.60   14.06
  -5   1  -5  208.97    4.68
  -1  -5  -5  250.71   11.97
  -1  -5   5  219.35   12.62
  -1  -5   5  221.23   13.64
  -5   1  -5  247.57   11.80
  -5   1   5  236.84    8.40
   5  -1  -5  215.38    8.41
  -1  -5   5  229.03    6.05
   0   0  -6  400.25    7.99
   0   0   6  356.40    5.28
   0   0   6  501.62    7.66
  -1   0   6 4158.12   18.34
   0   1  -6 4065.83   22.42
   0  -1   6 4043.71   11.92
   1   0   6 3877.04   12.73
   0   1   6 4215.64   13.07
  -1   0  -6 4207.58   19.54
   1   0  -6 4041.68   16.42
   0   1   6 4101.03   13.06
   0  -1  -6 4135.60   14.81
   0  -1   6 4143.24   21.47
   1   1  -6 2345.50   12.58
  -1   1  -6 2472.58   27.08
   1  -1   6 2340.18   10.99
   1   1   6 2310.27    9.78
  -1   1   6 2500.86   11.80
   1   1   6 2422.68   12.14
  -1  -1  -6 2500.31   11.45
  -1   1  -6 2365.22   29.80
   1  -1  -6 2471.00   10.67
  -1  -1   6 2433.96   13.77
  -2  -1  -6 3184.46    8.41
  -2  -1  -6 3384.20    9.98
   1  -2   6 3334.89   12.84
  -1   2   6 3378.16   12.55
   2   1   6 3176.31    8.44
  -2  -1   6 3520.44   10.90
  -1   2   6 3446.89   11.10
   1  -2  -6 3316.92   10.56
   2   1  -6 3205.98   12.16
   0  -2  -6  206.00    7.58
   0  -2   6  190.80    5.76
  -2   0  -6  193.95    3.92
  -2   0  -6  200.61    4.84
   2   0   6  186.76    3.87
   0   2   6  188.88    5.50
   0   2   6  191.43   10.06
  -2   0  -6  198.19    6.03
  -2   0   6  210.16    6.09
   2   0  -6  184.02    8.03
  -2   1   6 3316.02   13.93
   1   2   6 3358.60   13.19
  -2   1  -6 3483.58   20.61
  -2   1  -6 3276.82   10.13
  -2   1  -6 3429.70   16.92
   2  -1  -6 3617.95   14.32
   1   2   6 3234.36   10.72
   2  -1   6 3272.77    9.13
  -1  -2   6 3543.09   13.96
  -1  -2  -6 3454.08   11.73
  -2  -2  -6  106.54    4.58
  -2  -2  -6  103.32    4.15
  -2   2   6  113.73    6.62
  -2  -2   6  253.02    4.85
   2  -2   6   99.98    4.44
   2  -2  -6  115.35    5.54
   2   2   6  149.62    3.86
   2   2  -6  105.23    6.12
  -3  -2  -6 2265.26    6.94
  -3  -2   6 2482.01    8.09
   2  -3   6 2330.20    8.70
  -3  -2  -6 2296.12    7.71
   2  -3  -6 2324.60    9.24
   3   2   6 2199.00    6.87
  -2   3   6 2323.28    9.86
  -3  -2  -6 2271.42    9.64
   3   2  -6 2256.83   10.35
  -1   3   6 1275.37    7.93
  -1   3   6 1236.58   14.13
  -3  -1  -6 1246.48    5.22
   1  -3   6 1285.17    9.81
  -3  -1   6 1295.03    6.52
   3   1   6 1188.56    5.20
  -3  -1  -6 1268.22    8.04
   1  -3  -6 1215.83    7.76
   3   1  -6 1222.60    8.34
  -3  -1  -6 1265.17    6.15
   3   0  -6 2547.29   12.05
   0  -3  -6 2732.01   12.38
   0  -3   6 2746.44   11.43
  -3   0  -6 2681.50    7.16
   0   3   6 2651.88   12.57
  -3   0  -6 2805.90    8.99
   3   0   6 2620.73    7.02
  -3   0   6 2805.88   10.08
   0   3   6 2697.82   10.74
  -3   0  -6 2886.64   12.36
  -3   1  -6 1265.10    7.68
   3  -1  -6 1238.06   12.12
  -3   1  -6 1300.85   12.21
  -3   1  -6 1243.98    6.16
  -1  -3   6 1306.62    8.60
  -1  -3  -6 1326.57    8.89
   1   3   6 1168.62    7.03
   3  -1   6 1221.71    5.48
   1   3   6 1296.87   10.23
  -1  -3   6 1197.18   12.84
  -3   1   6 1301.05    9.66
  -3   2   6 2345.50   12.32
  -3   2  -6 2253.62    9.27
  -2  -3  -6 2222.76    8.84
  -2  -3   6 2461.49    8.89
   3  -2  -6 2617.11   13.19
   3  -2   6 2309.33    7.19
   2   3   6 2180.71    7.56
  -2  -3  -6 2390.59    8.87
  -3   2  -6 2396.59   13.46
  -3   2  -6 2320.77   20.28
  -3  -3  -6  695.04    5.82
  -3   3   6  743.67    8.25
   3  -3  -6  782.82    8.48
   3  -3   6  693.72    5.69
  -3  -3  -6  735.04    6.47
   3   3   6  663.00    5.30
  -3  -3   6  762.75    5.83
  -4  -2  -6   35.64    4.06
  -4  -2   6   48.49    4.88
   2  -4   6   10.69    5.74
   2  -4  -6   14.00    6.17
   4   2   6    8.47    4.08
   4   2  -6   14.26    7.66
  -4  -2  -6   15.18    6.56
  -4  -2  -6   10.46    4.24
  -2   4   6   14.92   16.58
  -2   4   6   15.61    6.47
  -4  -1  -6 1966.01    6.22
   1  -4   6 1998.30   11.40
  -1   4   6 1902.95   13.00
  -1   4   6 1970.87   10.07
  -4  -1   6 2069.80    7.83
  -4  -1  -6 1949.34    7.36
   4   1   6 1860.59    6.20
   1  -4  -6 1951.31    9.53
   4   1  -6 1893.21    9.80
  -4  -1  -6 2038.14   10.43
   0  -4  -6   24.74    8.02
  -4   0  -6   25.85    7.21
   0  -4   6   21.15    8.84
  -4   0  -6   21.27    3.40
   0   4   6   13.54    7.87
  -4   0  -6   20.62    4.20
   0   4   6   40.60    6.23
   4   0   6   17.67    3.49
  -4   0   6   25.29    5.81
   4   0  -6   32.15    8.07
   4  -1  -6 1902.38   12.68
  -1  -4   6 2085.31   10.17
  -4   1  -6 1948.91    7.18
  -4   1  -6 2023.89   14.38
  -1  -4  -6 2059.92   11.58
   1   4   6 2031.98   12.68
   1   4   6 1959.69    8.67
   4  -1   6 1973.16    6.65
  -4   1   6 1977.24   10.75
  -1  -4   6 1963.59   15.30
   4  -2  -6   11.42   10.19
  -2  -4   6   10.90    4.84
  -4   2  -6   10.60    5.55
  -2  -4   6    9.50    9.21
   4  -2   6   12.68    4.04
  -2  -4  -6   12.07    6.78
   2   4   6   13.78    4.57
  -4   2  -6   26.18   11.16
  -4   2   6   16.36    8.85
   0   0   7 1190.23    6.73
   0   0   7 1185.11    8.72
   0   0  -7 1208.57    9.13
  -1   0  -7   39.39    8.38
   0   1  -7   41.45    9.60
   0  -1   7   45.51    4.30
   0   1   7   39.02    4.76
  -1   0   7   42.60    7.58
   1   0   7   40.70    6.03
   0   1   7   41.09    4.90
   1   0  -7   45.16    5.80
   0  -1   7   39.06    7.92
   0  -1  -7   37.95    6.04
   1   1  -7  892.93   10.24
  -1  -1   7  948.30   12.23
   1  -1   7  893.97    7.26
  -1  -1  -7  964.39    9.93
   1   1   7  921.43    8.54
  -1   1  -7  910.41   19.98
  -1   1   7  953.57    7.79
   1  -1  -7  945.37    7.38
   1   1   7  898.42    8.01
  -1   1  -7  933.80   21.26
  -2  -1  -7   26.89    4.04
   1  -2   7   29.42    6.10
  -1   2   7   30.19    5.40
   2   1   7   34.46    4.10
   1  -2  -7   33.41    5.01
  -2  -1   7   31.82    5.79
  -1   2   7   39.15    5.42
  -2  -1  -7   31.05    4.86
   2   1  -7   29.79    7.07
  -2   0  -7  783.11    5.99
   0  -2   7  776.80    6.70
   2   0  -7  786.10    9.26
   0   2   7  799.83    9.81
   2   0   7  768.95    5.92
   0   2   7  783.04    6.76
  -2   0  -7  803.87    9.19
  -2   0  -7  834.64    8.27
  -2   0   7  819.24    9.39
   0  -2  -7  823.30    8.20
  -2   1   7   54.65    8.70
  -2   1  -7   33.73   11.83
   1   2   7   29.30    5.87
  -1  -2  -7   35.03    6.78
   2  -1  -7   30.24    6.17
   1   2   7   26.63    5.93
   2  -1   7   40.20    4.90
  -2   1  -7   46.21   14.24
  -1  -2   7   37.64    9.04
  -2  -2  -7  537.11    6.09
  -2   2   7  579.00    7.38
   2  -2   7  539.59    6.07
   2  -2  -7  589.43    6.61
   2   2   7  514.17    5.51
  -2  -2   7  544.06    6.76
   2   2  -7  539.23    8.45
  -2  -2  -7  576.04    6.28
  -2   3   7   19.57    6.84
  -3  -2  -7   22.10    4.78
  -3  -2  -7   17.88    4.39
   2  -3   7   28.89    5.69
  -3  -2   7   24.21    5.11
   2  -3  -7   21.11    5.06
   3   2   7   40.71    4.55
  -3  -2  -7   22.82    6.84
  -2   3   7   28.97    5.50
   3   2  -7   21.34    7.49
  -1   3   7  401.48    6.43
  -3  -1  -7  385.02    4.35
  -1   3   7  385.62    9.39
   1  -3   7  402.29    8.50
  -3  -1  -7  404.40    5.39
   3   1   7  372.18    4.41
  -3  -1   7  399.74    6.05
   1  -3  -7  400.24    6.17
  -3  -1  -7  400.30    7.78
   3   1  -7  387.45    8.18
   0  -3  -7   25.47    6.99
   3   0  -7   20.23    8.70
   0  -3   7   24.43    5.82
  -3   0  -7   29.29    3.76
   0   3   7   22.40    9.30
   3   0   7   31.92    3.65
  -3   0  -7   27.37    4.66
  -3   0   7   29.78    6.06
   0   3   7   21.64    5.68
  -3   0  -7   30.09    7.69
  -3   1  -7  381.48    5.57
   3  -1  -7  410.69    9.53
  -3   1  -7  409.46   10.19
  -1  -3  -7  421.37    8.73
   1   3   7  350.90    6.59
  -1  -3   7  381.47   11.26
   3  -1   7  383.70    4.90
  -3   1  -7  406.40    7.11
  -1  -3   7  405.30   10.19
   1   3   7  400.15    7.80
  -3   1   7  429.30    8.86
  -3   2   7   24.53    9.08
   3  -2  -7   27.76    7.11
  -2  -3   7   22.62    5.77
   3  -2   7   32.36    4.34
   2   3   7   33.02    5.14
  -2  -3  -7   36.35    6.56
  -3  -3  -7  196.74    5.73
   3  -3  -7  200.23    6.66
  -3  -3   7  191.99    5.93
  -3   3   7  197.26    7.05
   3  -3   7  188.00    5.80
   3   3   7  178.85    5.11
  -3  -3  -7  199.12    6.20
  -2   4   7  190.57    6.79
  -4  -2  -7  168.62    5.10
  -2   4   7  186.10   12.81
  -4  -2   7  185.51    6.14
   2  -4   7  181.81    7.06
  -4  -2  -7  181.10    5.64
   2  -4  -7  195.62    6.80
   4   2   7  177.00    5.00
   4   2  -7  176.29    9.70
  -4  -2  -7  185.78    9.13
  -4  -1  -7   74.92    3.97
   1  -4   7   18.87    8.08
  -1   4   7   26.25   10.69
  -1   4   7   17.22    6.33
  -4  -1   7   21.93    5.67
   4   1   7   26.66    3.94
   1  -4  -7   20.17    6.06
  -4  -1  -7   18.49    4.79
   4   1  -7   16.99    8.62
  -4  -1  -7   22.52    8.29
  -4   0  -7  285.59    9.42
  -4   0  -7  242.90    5.61
  -4   0  -7  251.60    4.60
   0  -4   7  260.92    8.75
   0   4   7  254.06    7.29
   0   4   7  238.53    7.77
   4   0   7  239.96    4.47
  -4   0   7  263.70    7.37
   4   0  -7  249.51   10.32
   0  -4  -7  259.51    8.09
   1   4   7   17.09    8.86
   4  -1  -7   20.18   12.57
  -4   1  -7   22.48    4.99
  -1  -4  -7   19.67    9.65
  -4   1  -7   21.72    9.46
  -1  -4   7   24.62    8.83
   1   4   7   38.63    5.84
  -4   1  -7   23.72    5.72
   4  -1   7   21.69    4.39
  -1  -4   7   21.13   12.19
  -4   1   7   19.96    8.52
  -4   2   7  198.55   10.98
  -2  -4   7  170.80   10.00
   4  -2  -7  208.35   11.82
  -4   2  -7  173.48    7.17
  -2  -4   7  188.35    6.59
  -4   2  -7  178.42    8.64
  -2  -4  -7  187.43    8.29
   4  -2   7  172.76    5.17
   2   4   7  172.27    5.83
  -4   2  -7  182.66   13.35
   0   0   8 5014.05   11.13
   0   0   8 5081.07   14.61
   0   0  -8 5123.29   14.97
   0   1  -8 1713.93   14.38
   0  -1   8 1688.05    7.21
   0   1   8 1735.72    7.75
   1   0   8 1684.29    8.33
   1   0  -8 1723.27    9.24
  -1   0   8 1804.61   10.50
   0   1   8 1751.00    8.29
   0  -1  -8 1767.15    9.07
   0  -1   8 1714.93   13.13
  -1   0  -8 1821.50   12.57
   1   1  -8  237.47    7.82
  -1  -1  -8  239.62    8.86
  -1  -1   8  250.33   10.47
   1  -1   8  255.09    5.55
  -1   1  -8  245.87   14.89
   1   1   8  245.72    5.91
   1   1   8  246.74    7.55
   1  -1  -8  249.93    5.27
  -1   1   8  251.01    5.85
  -1   2   8 1421.12    7.87
   1  -2   8 1395.03    8.25
   2   1   8 1379.08    8.00
  -2  -1  -8 1478.83    9.70
   1  -2  -8 1387.11    7.39
  -2  -1   8 1495.51   11.27
  -1   2   8 1463.49    7.67
   2   1  -8 1421.51   10.52
  -2   0   8 4059.39   15.67
   2   0  -8 3879.01   12.74
   0  -2   8 3876.79   10.47
   0   2   8 4084.97   13.02
   2   0   8 3799.37   11.23
  -2   0  -8 4210.00   17.44
   0   2   8 3884.09   10.83
  -2   0  -8 3984.03   15.82
   0  -2  -8 4039.79   12.72
  -1  -2   8 1511.88   18.34
  -2   1  -8 1487.64   18.63
  -1  -2  -8 1486.32   11.18
  -2   1   8 1479.88   10.60
   2  -1  -8 1437.33    8.02
   1   2   8 1437.62   11.07
   2  -1   8 1435.86    8.55
   1   2   8 1406.62    8.08
  -2   1  -8 1487.08   20.42
   2  -2   8 3151.11   10.92
   2  -2  -8 3157.97    9.86
   2   2   8 2984.31   10.41
  -2   2   8 3120.84   11.07
  -2  -2  -8 3221.70   11.52
  -2  -2   8 3272.44   14.13
   2   2  -8 3149.14   14.49
  -3  -2  -8  976.72    7.22
  -2   3   8  988.92    9.00
   2  -3   8  991.57    8.56
   2  -3  -8  996.05    7.08
   3   2   8  938.33    7.15
  -3  -2   8 1033.80    8.28
  -3  -2  -8  966.17    9.62
   3   2  -8  994.93   10.43
  -2   3   8 1038.65    7.73
  -3  -2  -8 1025.90    7.93
  -3  -1  -8  283.34    5.01
  -1   3   8  300.09    5.98
  -1   3   8  289.80    8.00
   1  -3   8  289.83    7.47
   3   1   8  277.25    5.02
   1  -3  -8  286.53    6.03
  -3  -1   8  305.66    7.69
  -3  -1  -8  283.64    8.10
   3   1  -8  282.69    8.92
  -3  -1  -8  290.98    6.36
   3   0  -8 1174.87    9.62
  -3   0  -8 1169.71    6.62
   0  -3   8 1211.69    7.95
   0   3   8 1150.62   14.59
   3   0   8 1140.20    6.55
  -3   0   8 1278.66    9.86
  -3   0  -8 1235.65   11.37
   0   3   8 1196.63    7.56
   0  -3  -8 1247.40    9.34
  -3   0  -8 1256.95    9.47
  -3   1   8  295.80    9.38
  -1  -3   8  293.09   21.34
   3  -1  -8  304.09    7.67
  -1  -3  -8  284.91   10.01
  -3   1  -8  302.37   10.41
   1   3   8  270.75    8.19
   3  -1   8  272.88    5.57
  -3   1  -8  314.94   10.89
   1   3   8  302.23    6.81
  -1  -3   8  287.20   12.62
   3  -2  -8 1097.99    8.07
  -3   2   8 1043.51    9.84
  -2  -3  -8 1054.67    9.27
   3  -2   8  973.23    6.95
   2   3   8  955.49    8.00
  -2  -3   8 1031.92    9.86
  -4  -1  -8  801.30    6.10
  -4  -1  -8  840.68    7.46
   1  -4   8  839.39   11.41
  -1   4   8  772.28   15.08
   4   1   8  790.83    6.16
  -1   4   8  823.76    8.00
  -4  -1   8  834.70    8.82
   1  -4  -8  807.64    8.02
   4   1  -8  773.51   11.20
  -4  -1  -8  818.39   10.67
  -4   0  -8 2029.16   12.62
  -4   0  -8 1924.64    7.97
   0  -4   8 1988.05   10.88
   0   4   8 1899.68    9.41
   0   4   8 1829.94   13.06
  -4   0  -8 1996.62   10.04
   4   0   8 1838.28    7.65
  -4   0   8 2009.23   11.01
   0  -4  -8 1998.48   11.22
   4   0  -8 1954.25   12.82
   4  -1  -8  843.83   11.10
  -1  -4   8  813.77    9.18
  -4   1  -8  823.85    7.27
  -1  -4  -8  830.05   13.06
  -4   1  -8  846.15   11.73
  -4   1  -8  845.19   10.29
   1   4   8  782.23    9.04
   4  -1   8  814.32    6.51
   1   4   8  838.03    9.20
  -4   1   8  866.01   11.05
   0   0   9  155.16    4.21
   0   0  -9  175.61    6.26
   0   0   9  163.64    5.81
   0   1  -9  286.99    9.75
   0  -1   9  281.26    4.64
   0   1   9  288.28    5.04
   1   0  -9  283.30    6.12
   1   0   9  282.35    5.22
   0  -1   9  279.71    8.76
  -1   0   9  307.61    6.94
   0   1   9  290.25    5.71
   0  -1  -9  292.38    6.35
  -1   0  -9  287.61    7.65
   1   1  -9 3751.38   14.42
  -1   1   9 3633.62   10.25
   1  -1   9 3687.41   10.05
   1   1   9 3667.22   11.58
   1  -1  -9 3952.17   11.00
  -1  -1   9 3961.15   15.91
   1   1   9 3840.95   11.74
  -1   1   9 3900.29   11.29
  -1  -1  -9 3923.06   14.40
  -2  -1   9  265.44   10.67
  -1   2   9  259.68    5.56
  -1   2   9  238.11    5.62
   1  -2   9  232.43    5.85
  -2  -1  -9  252.57    9.10
   2   1   9  240.10    7.87
   1  -2  -9  275.22    5.47
   2   1  -9  296.97    7.36
   2   0  -9  191.40    6.50
  -2   0  -9  202.76   12.41
   0  -2   9  192.64    5.17
  -2   0   9  209.39   10.37
   0   2   9  199.12    6.28
   2   0   9  198.15    7.20
  -2   0  -9  191.30    8.07
   0   2   9  188.24    5.32
   0  -2  -9  193.53    6.33
  -1  -2  -9  237.46    9.16
   1   2   9  233.78    6.04
   2  -1  -9  271.82    5.81
   1   2   9  229.69    9.69
   2  -1   9  240.15    8.08
  -2   1   9  254.38    7.72
  -1  -2   9  242.61   11.81
  -2  -2  -9  226.39    8.77
   2  -2   9  220.23    7.84
   2  -2  -9  217.82    5.62
   2   2   9  214.64    8.29
  -2   2   9  226.80    6.45
   2   2  -9  222.49    8.26
  -2  -2   9  230.36   11.89
  -2   3   9  163.34    7.33
   2  -3   9  156.95    8.98
   2  -3  -9  174.55    6.51
   3   2   9  153.36    7.41
  -3  -2  -9  165.91    8.24
  -3  -2  -9  152.49    7.98
   3   2  -9  156.91    8.56
  -3  -2   9  179.16    9.30
  -2   3   9  190.45    6.81
  -1   3   9 2284.42   11.12
   1  -3   9 2421.58   10.38
  -1   3   9 2415.66    9.31
   3   1   9 2219.77    9.84
   1  -3  -9 2280.61    9.12
  -3  -1  -9 2436.07   11.81
  -3  -1  -9 2313.64   11.35
  -3  -1   9 2455.74   13.04
   3   1  -9 2320.79   11.16
  -3   0   9  211.86   10.28
   3   0  -9  185.77    7.17
   0   3   9  192.18    5.98
   0  -3   9  197.31    6.00
   0   3   9  179.74   10.13
   3   0   9  186.88    6.13
  -3   0  -9  205.11    9.85
   0  -3  -9  198.10    7.38
  -3   0  -9  194.22    8.89
   1   3   9 2402.11    9.63
  -1  -3  -9 2470.23   13.26
   3  -1  -9 2373.08    9.94
  -3   1   9 2509.31   13.77
  -3   1  -9 2486.03   29.67
  -3   1  -9 2435.28   19.19
   1   3   9 2165.56   14.15
   3  -1   9 2363.89    9.90
   3  -2  -9  171.66    6.61
  -2  -3  -9  169.99    9.76
  -3   2   9  166.08    8.44
   3  -2   9  161.05    7.13
   2   3   9  188.45    8.57
  -2  -3   9  167.84   12.99
   0   0  10   73.93    6.26
   0   0  10   75.80    4.21
   0   0 -10   80.64    6.37
   0   1 -10   24.13    9.15
  -1   0  10   21.53    4.55
   0  -1  10   17.18    4.33
   1   0 -10   20.65    5.63
   0   1  10   18.20    4.64
   1   0  10   22.16    4.58
   0  -1  10   29.03    8.21
   0  -1 -10   20.27    5.55
  -1   0 -10   21.35    7.38
  -1   0  10   21.52    6.46
   0   1  10   20.51    5.08
  -1   1  10 1534.28    8.18
  -1  -1  10 1433.21    7.20
  -1   1  10 1434.04    7.41
   1  -1  10 1464.32    7.10
   1   1  10 1464.65    8.16
   1  -1 -10 1542.50    7.90
  -1  -1  10 1522.72   11.04
  -1  -1 -10 1536.76   10.45
   1   1 -10 1465.41   10.62
  -2  -1 -10   19.48   10.79
  -1   2  10   20.32    5.47
  -2  -1  10   23.24   11.02
  -1   2  10   16.13    5.54
   1  -2  10   20.50    5.45
   2   1  10   17.89    8.85
   1  -2 -10   19.48    5.20
   2   1 -10   20.63    6.62
   0   2  10   32.07    5.29
   2   0 -10   37.93    6.06
   0  -2  10   38.30    5.18
   0   2  10   35.60    5.45
  -2   0  10   44.93    8.75
   2   0  10   35.60    6.56
   0  -2 -10   39.23    6.15
  -2   0 -10   32.09    8.11
  -2   0 -10   52.78   10.62
  -1  -2  10   21.90    6.12
  -1  -2  10   21.44   10.43
   2  -1 -10   18.60    5.39
   1   2  10   18.14    7.84
   2  -1  10   14.33    6.79
  -2   1  10   31.28    6.72
   1   2  10   20.89    5.76
  -1  -2 -10   22.14    7.95
  -2   2  10   55.32    6.72
  -2  -2  10   27.34   14.31
  -2  -2 -10   17.66   11.65
   2  -2  10   25.56    7.25
   2  -2 -10   14.89    5.66
   2   2  10   14.15   10.35
   2   2 -10   13.29    8.28
  -2   2  10   14.90    6.68
   3   0 -10   16.92    6.63
  -3   0  10   21.33   11.45
   0  -3  10   14.23    5.83
  -3   0 -10   11.43   15.06
   0   3  10   14.88    8.95
   0   3  10   16.04    5.90
   3   0  10   23.69    7.56
   0  -3 -10   11.77    7.04
  -3   0 -10   17.16    8.98
   0   0  11 4310.94    9.45
   0   0 -11 4585.47   14.08
   0   0  11 4472.27   13.75
  -1   0  11   72.34    6.68
  -1   0  11   54.89    5.03
   1   0 -11   55.60    6.28
   0  -1  11   59.09    4.81
   0   1  11   60.88    5.50
   1   0  11   57.62    4.77
   0   1  11   57.87    5.91
  -1   0 -11   57.73    7.91
   0  -1 -11  129.15    6.39
   0   1 -11   69.89   10.21
  -1  -1  11  554.91    6.21
  -1   1  11  560.74    6.32
  -1   1  11  595.18    7.02
  -1  -1  11  598.97    9.69
   1  -1  11  564.57    5.83
   1   1  11  556.04    6.77
   1  -1 -11  593.35    6.80
  -1  -1 -11  593.54    9.01
   1   1 -11  583.64    9.21
   2   0 -11 3413.57   11.26
   0  -2  11 3502.60    9.47
   0   2  11 3452.68   10.71
   0   2  11 3473.03   10.29
   2   0  11 3455.43   10.74
  -2   0  11 3672.89   13.80
   0  -2 -11 3496.01   11.36
  -2   0 -11 3491.39   17.81
  -2   0 -11 3516.87   15.64
   0   0   0    0.00    0.00

_computing_structure_solution     'SHELXT 2014/5 (Sheldrick, 2014)'
_computing_structure_solution     'SHELXT 2018/2 (Sheldrick, 2018)'
;
_shelx_hkl_checksum              54572
loop_
_space_group_symop_operation_xyz
'x, y, z'
'-x+1/2, -y+1/2, -z'
'-y+1/2, x+1/2, z'
'-x, -y, z'
'y+1/2, -x+1/2, z'
'y, -x, -z'
'-y, x, -z'
'x+1/2, -y+1/2, -z'
'-x+1/2, y+1/2, -z'
'y, x, -z'
'-y, -x, -z'
'x+1/2, y+1/2, -z'
'-x, y, z'
'x, -y, z'
'-y+1/2, -x+1/2, z'
'y+1/2, x+1/2, z'
loop_
_atom_site_label
_atom_site_type_symbol
_atom_site_fract_x
_atom_site_fract_y
_atom_site_fract_z
_atom_site_U_iso_or_equiv
_atom_site_adp_type
_atom_site_occupancy
_atom_site_site_symmetry_order
_atom_site_calc_flag
_atom_site_refinement_flags_posn
_atom_site_refinement_flags_adp
_atom_site_refinement_flags_occupancy
_atom_site_disorder_assembly
_atom_site_disorder_group
Pr01 Pr 0.000000 0.500000 0.27219(9) 0.0107(4) Uani 1 8 d S T P . .
Te02 Te 0.000000 0.500000 0.63242(10) 0.0082(4) Uani 1 8 d S T P . .
Te03 Te 0.000000 0.000000 0.000000 0.0247(6) Uani 0.942(7) 8 d S T . . .
loop_
_atom_site_aniso_label
_atom_site_aniso_U_11
_atom_site_aniso_U_22
_atom_site_aniso_U_33
_atom_site_aniso_U_23
_atom_site_aniso_U_13
_atom_site_aniso_U_12
Pr01 0.0102(4) 0.0102(4) 0.0117(5) 0.000 0.000 0.000
Te02 0.0082(4) 0.0082(4) 0.0080(5) 0.000 0.000 0.000
Te03 0.0340(7) 0.0340(7) 0.0061(7) 0.000 0.000 0.000
loop_
_atom_type_symbol
_atom_type_description
_atom_type_scat_dispersion_real
_atom_type_scat_dispersion_imag
_atom_type_scat_source
Pr Pr -0.2180 2.8214 'International Tables Vol C Tables 4.2.6.8 and 6.1.1.4'
Te Te -0.5308 1.6751 'International Tables Vol C Tables 4.2.6.8 and 6.1.1.4'
loop_
_exptl_crystal_face_index_h
_exptl_crystal_face_index_k
_exptl_crystal_face_index_l
_exptl_crystal_face_perp_dist
-2 0 -30 0.0197
0 0 30 0.0145
21 -30 -8 0.0511
-27 25 13 0.0522
-8 -18 30 0.0747
30 26 2 0.1043
0 0 -30 0.0141
loop_
_geom_angle_atom_site_label_1
_geom_angle_atom_site_label_2
_geom_angle_atom_site_label_3
_geom_angle
_geom_angle_site_symmetry_1
_geom_angle_site_symmetry_3
_geom_angle_publ_flag
Te02 Pr01 Te02 74.68(2) . 2_566 ?
Te02 Pr01 Te02 85.995(11) 2_456 2_556 ?
Te02 Pr01 Te02 74.68(2) . 2_556 ?
Te02 Pr01 Te02 74.68(2) . 2_456 ?
Te02 Pr01 Te02 85.995(11) 2_456 2_466 ?
Te02 Pr01 Te02 149.35(4) 2_566 2_456 ?
Te02 Pr01 Te02 85.995(11) 2_566 2_556 ?
Te02 Pr01 Te02 74.68(2) . 2_466 ?
Te02 Pr01 Te02 85.995(11) 2_566 2_466 ?
Te02 Pr01 Te02 149.35(4) 2_466 2_556 ?
Te02 Pr01 Te03 137.877(11) . 2 ?
Te02 Pr01 Te03 130.80(2) 2_466 . ?
Te02 Pr01 Te03 130.80(2) 2_566 . ?
Te02 Pr01 Te03 130.80(2) 2_466 2 ?
Te02 Pr01 Te03 137.877(11) . . ?
Te02 Pr01 Te03 137.877(11) . 1_565 ?
Te02 Pr01 Te03 74.848(16) 2_456 . ?
Te02 Pr01 Te03 130.80(2) 2_456 1_565 ?
Te02 Pr01 Te03 74.848(16) 2_556 . ?
Te02 Pr01 Te03 130.80(2) 2_556 1_565 ?
Te02 Pr01 Te03 130.80(2) 2_456 2 ?
Te02 Pr01 Te03 137.877(11) . 2_455 ?
Te02 Pr01 Te03 74.848(16) 2_556 2 ?
Te02 Pr01 Te03 130.80(2) 2_566 2_455 ?
Te02 Pr01 Te03 74.848(16) 2_566 1_565 ?
Te02 Pr01 Te03 74.848(16) 2_456 2_455 ?
Te02 Pr01 Te03 74.848(16) 2_466 1_565 ?
Te02 Pr01 Te03 74.848(16) 2_466 2_455 ?
Te02 Pr01 Te03 130.80(2) 2_556 2_455 ?
Te02 Pr01 Te03 74.848(16) 2_566 2 ?
Te03 Pr01 Te03 84.25(2) 2_455 2 ?
Te03 Pr01 Te03 56.624(13) 2_455 . ?
Te03 Pr01 Te03 84.25(2) . 1_565 ?
Te03 Pr01 Te03 56.624(13) . 2 ?
Te03 Pr01 Te03 56.624(13) 2_455 1_565 ?
Te03 Pr01 Te03 56.624(13) 2 1_565 ?
Pr01 Te02 Pr01 85.994(11) 2_566 2_556 ?
Pr01 Te02 Pr01 85.994(11) 2_456 2_466 ?
Pr01 Te02 Pr01 85.994(11) 2_566 2_466 ?
Pr01 Te02 Pr01 149.35(4) 2_466 2_556 ?
Pr01 Te02 Pr01 105.33(2) . 2_556 ?
Pr01 Te02 Pr01 105.33(2) . 2_466 ?
Pr01 Te02 Pr01 85.994(11) 2_456 2_556 ?
Pr01 Te02 Pr01 105.33(2) . 2_456 ?
Pr01 Te02 Pr01 149.35(4) 2_566 2_456 ?
Pr01 Te02 Pr01 105.33(2) . 2_566 ?
Pr01 Te03 Pr01 123.375(13) 2 . ?
Pr01 Te03 Pr01 123.375(13) 1_545 2 ?
Pr01 Te03 Pr01 84.25(2) 2_455 2 ?
Pr01 Te03 Pr01 123.375(13) 2_455 1_545 ?
Pr01 Te03 Pr01 84.25(2) 1_545 . ?
Pr01 Te03 Pr01 123.375(13) 2_455 . ?
Te03 Te03 Pr01 118.312(6) 2_455 1_545 ?
Te03 Te03 Pr01 118.312(6) 2 1_545 ?
Te03 Te03 Pr01 61.688(6) 2_445 1_545 ?
Te03 Te03 Pr01 118.312(6) 2 2_455 ?
Te03 Te03 Pr01 118.312(6) 2_445 . ?
Te03 Te03 Pr01 61.688(7) 2_445 2_455 ?
Te03 Te03 Pr01 118.312(6) 2_545 2_455 ?
Te03 Te03 Pr01 118.312(7) 2_545 . ?
Te03 Te03 Pr01 61.688(6) 2 . ?
Te03 Te03 Pr01 61.688(6) 2_455 2_455 ?
Te03 Te03 Pr01 61.688(6) 2_455 . ?
Te03 Te03 Pr01 118.312(6) 2_455 2 ?
Te03 Te03 Pr01 61.688(6) 2_545 2 ?
Te03 Te03 Pr01 61.688(6) 2 2 ?
Te03 Te03 Pr01 118.312(6) 2_445 2 ?
Te03 Te03 Pr01 61.688(6) 2_545 1_545 ?
Te03 Te03 Te03 90.0 2_445 2_545 ?
Te03 Te03 Te03 90.0 2_445 2_455 ?
Te03 Te03 Te03 90.0 2 2_455 ?
Te03 Te03 Te03 180.0 2_455 2_545 ?
Te03 Te03 Te03 90.0 2 2_545 ?
Te03 Te03 Te03 180.0 2 2_445 ?
loop_
_geom_bond_atom_site_label_1
_geom_bond_atom_site_label_2
_geom_bond_distance
_geom_bond_site_symmetry_2
_geom_bond_publ_flag
Pr01 Te02 3.2589(12) . ?
Pr01 Te02 3.2652(5) 2_456 ?
Pr01 Te02 3.2652(5) 2_556 ?
Pr01 Te02 3.2652(5) 2_566 ?
Pr01 Te02 3.2652(5) 2_466 ?
Pr01 Te03 3.3199(7) 2_455 ?
Pr01 Te03 3.3199(7) 1_565 ?
Pr01 Te03 3.3199(7) 2 ?
Pr01 Te03 3.3199(7) . ?
Te03 Te03 3.1491(4) 2 ?
Te03 Te03 3.1491(4) 2_455 ?
Te03 Te03 3.1491(4) 2_545 ?
Te03 Te03 3.1491(4) 2_445 ?

_cod_database_fobs_code 2108701
