#------------------------------------------------------------------------------
#$Date: 2018-09-27 07:13:35 +0300 (Thu, 27 Sep 2018) $
#$Revision: 211196 $
#$URL: file:///home/coder/svn-repositories/cod/cif/2/10/82/2108221.cif $
#------------------------------------------------------------------------------
#
# This file is available in the Crystallography Open Database (COD),
# http://www.crystallography.net/. The original data for this entry
# were provided by IUCr Journals, http://journals.iucr.org/.
#
# The file may be used within the scientific community so long as
# proper attribution is given to the journal article from which the
# data were obtained.
#
data_2108221
loop_
_publ_author_name
'Smirnova, Ekaterina S.'
'Alekseeva, Olga A.'
'Dudka, Alexander P.'
'Artemov, Vladimir V.'
'Zubavichus, Yan V.'
'Gudim, Irina A.'
'Bezmaterhykh, Leonard N.'
'Frolov, Kirill V.'
'Lyubutin, Igor S.'
_publ_section_title
;
 Crystal structure, phase transition and structural deformations in iron
 borate (Y~0.95~Bi~0.05~)Fe~3~(BO~3~)~4~ in the temperature range 90--500K
;
_journal_coeditor_code           XK5046SUP1
_journal_issue                   2
_journal_name_full               'Acta Crystallographica Section B'
_journal_page_first
;
;
_journal_paper_doi               10.1107/S2052520618002962
_journal_volume                  74
_journal_year                    2018
_chemical_formula_analytical     'B4 Bi0.05 Fe3 O12 Y0.95'
_chemical_formula_iupac          'B4 Bi0.05 Fe3 O12 Y0.95'
_chemical_formula_moiety         'B4 Bi0.05 Fe3 O12 Y0.95'
_chemical_formula_structural     'B4 Bi0.05 Fe3 O12 Y0.95'
_chemical_formula_sum            'B4 Bi0.05 Fe3 O12 Y0.95'
_chemical_formula_weight         497.7
_space_group_IT_number           152
_symmetry_cell_setting           trigonal
_symmetry_Int_Tables_number      152
_symmetry_space_group_name_Hall  'P 31 2"'
_symmetry_space_group_name_H-M   'P 31 2 1'
_cell_angle_alpha                90
_cell_angle_beta                 90
_cell_angle_gamma                120
_cell_formula_units_Z            3
_cell_length_a                   9.5259(1)
_cell_length_b                   9.5259(1)
_cell_length_c                   7.5624(1)
_cell_measurement_reflns_used    11133
_cell_measurement_temperature    365
_cell_measurement_theta_max      73.0650
_cell_measurement_theta_min      5.6150
_cell_volume                     594.295(12)
_diffrn_ambient_temperature      365
_diffrn_detector                 'CCD plate'
_diffrn_detector_area_resol_mean 16.0628
_diffrn_measured_fraction_theta_full 0.99
_diffrn_measured_fraction_theta_max 0.99
_diffrn_measurement_device       'four-circle diffractometer'
_diffrn_measurement_device_type  'Oxford Diffraction CCD'
_diffrn_measurement_method       '\w scans'
_diffrn_radiation_monochromator  graphite
_diffrn_radiation_probe          x-ray
_diffrn_radiation_source         'X-ray tube'
_diffrn_radiation_type           'Mo K\a'
_diffrn_radiation_wavelength     0.71073
_diffrn_reflns_av_R_equivalents  0.0481
_diffrn_reflns_av_unetI/netI     0.0688
_diffrn_reflns_limit_h_max       22
_diffrn_reflns_limit_h_min       -24
_diffrn_reflns_limit_k_max       24
_diffrn_reflns_limit_k_min       -22
_diffrn_reflns_limit_l_max       20
_diffrn_reflns_limit_l_min       -20
_diffrn_reflns_number            53278
_diffrn_reflns_theta_full        74.21
_diffrn_reflns_theta_max         74.21
_diffrn_reflns_theta_min         4.28
_diffrn_source                   'Enhance (Mo) X-ray Source'
_exptl_absorpt_coefficient_mu    13.459
_exptl_absorpt_correction_T_max  0.2813
_exptl_absorpt_correction_T_min  0.1916
_exptl_absorpt_correction_type   sphere
_exptl_absorpt_process_details   Jana2006
_exptl_crystal_colour            light-green
_exptl_crystal_density_diffrn    4.1717
_exptl_crystal_description       Sphere
_exptl_crystal_F_000             706
_exptl_crystal_size_rad          0.09
_refine_diff_density_max         0.45
_refine_diff_density_min         -0.59
_refine_ls_abs_structure_details
'  3618 of Friedel pairs used in the refinement'
_refine_ls_abs_structure_Flack   0.5085(13)
_refine_ls_extinction_coef       433(13)
_refine_ls_extinction_method
'B-C type 1 Lorentzian isotropic (Becker & Coppens, 1974)'
_refine_ls_goodness_of_fit_gt    0.96
_refine_ls_goodness_of_fit_ref   0.68
_refine_ls_number_constraints    5
_refine_ls_number_parameters     97
_refine_ls_number_reflns         8038
_refine_ls_number_restraints     0
_refine_ls_R_factor_all          0.0696
_refine_ls_R_factor_gt           0.0179
_refine_ls_shift/su_max          0.0471
_refine_ls_shift/su_mean         0.0094
_refine_ls_structure_factor_coef F
_refine_ls_weighting_details     w=1/(\s^2^(F)+0.000001F^2^)
_refine_ls_weighting_scheme      sigma
_refine_ls_wR_factor_gt          0.0124
_refine_ls_wR_factor_ref         0.0146
_reflns_number_gt                2927
_reflns_number_total             8038
_reflns_threshold_expression     I>3\s(I)
_cod_data_source_file            xk5046sup1.cif
_cod_data_source_block           V
_cod_depositor_comments
;
The following automatic conversions were performed:

'_diffrn_radiation_probe' value 'X-ray' changed to 'x-ray' according
to
/home/data/users/saulius/crontab/automatic-downloads/rss-feeds/IUCr/lib/dictionaries/cif_core.dic
dictionary named 'cif_core.dic' version 2.4.2 from 2011-04-26.

'_exptl_absorpt_correction_type' value 'Sphere' changed to 'sphere'
according to
/home/data/users/saulius/crontab/automatic-downloads/rss-feeds/IUCr/lib/dictionaries/cif_core.dic
dictionary named 'cif_core.dic' version 2.4.2 from 2011-04-26.

Automatic conversion script
Id: cif_fix_values 4973 2017-02-22 13:04:09Z antanas 
;
_cod_original_cell_volume        594.30(1)
_cod_database_code               2108221
_cod_database_fobs_code          2108221
loop_
_space_group_symop_id
_space_group_symop_operation_xyz
1 x,y,z
2 -y,x-y,z+1/3
3 -x+y,-x,z+2/3
4 y,x,-z
5 x-y,-y,-z+2/3
6 -x,-x+y,-z+1/3
loop_
_atom_site_label
_atom_site_type_symbol
_atom_site_fract_x
_atom_site_fract_y
_atom_site_fract_z
_atom_site_adp_type
_atom_site_U_iso_or_equiv
_atom_site_site_symmetry_multiplicity
_atom_site_occupancy
_atom_site_calc_flag
Y1 Y -0.33359(3) -0.33359(3) 0 Uani 0.00891(5) 3 0.9501(6) d
Bi1 Bi -0.33359(3) -0.33359(3) 0 Uani 0.00891(5) 3 0.0499(6) d
Fe1 Fe 0.11604(4) 0.11604(4) 0 Uani 0.00585(7) 3 1 d
Fe2 Fe -0.21355(3) -0.54914(3) 0.34025(2) Uani 0.00604(5) 6 1 d
O1 O 0 -0.07680(18) 0.166667 Uani 0.0132(5) 3 1 d
O2 O -0.58496(14) -0.26910(13) 0.14251(13) Uani 0.0131(3) 6 1 d
O3 O -0.12086(16) -0.30530(15) -0.17888(14) Uani 0.0095(4) 6 1 d
O4 O -0.14716(16) -0.36028(15) 0.18318(15) Uani 0.0092(4) 6 1 d
O5 O 0.47697(14) 0.14511(15) -0.1619(2) Uani 0.0089(3) 6 1 d
O6 O 0.1891(2) 0 -0.166667 Uani 0.0079(4) 3 1 d
O7 O -0.52225(17) -0.53846(17) -0.18315(15) Uani 0.0106(4) 6 1 d
B1 B 0.3345(4) 0 -0.166667 Uani 0.0060(5) 3 1 d
B2 B -0.44733(20) -0.1198(2) 0.1576(2) Uani 0.0059(4) 6 1 d
B3 B 0 -0.2198(3) 0.166667 Uani 0.0109(8) 3 1 d
loop_
_atom_site_aniso_label
_atom_site_aniso_type_symbol
_atom_site_aniso_U_11
_atom_site_aniso_U_22
_atom_site_aniso_U_33
_atom_site_aniso_U_12
_atom_site_aniso_U_13
_atom_site_aniso_U_23
Y1 Y 0.00932(5) 0.00932(5) 0.00842(4) 0.00490(9) -0.00031(3) 0.00031(3)
Bi1 Bi 0.00932(5) 0.00932(5) 0.00842(4) 0.00490(9) -0.00031(3) 0.00031(3)
Fe1 Fe 0.00556(7) 0.00556(7) 0.00657(6) 0.00289(10) 0.00014(5) -0.00014(5)
Fe2 Fe 0.00557(7) 0.00545(6) 0.00704(4) 0.00270(6) -0.00005(5) 0.00032(5)
O1 O 0.0175(8) 0.0074(4) 0.0179(5) 0.0088(4) 0.0086(5) 0.0043(2)
O2 O 0.0077(3) 0.0071(3) 0.0197(4) 0.0002(3) -0.0052(3) 0.0053(2)
O3 O 0.0126(5) 0.0056(4) 0.0109(4) 0.0049(4) 0.0023(3) 0.0024(3)
O4 O 0.0081(5) 0.0087(4) 0.0100(4) 0.0036(4) -0.0004(3) 0.0016(3)
O5 O 0.0049(4) 0.0064(4) 0.0110(4) -0.0004(3) -0.0003(3) 0.0024(3)
O6 O 0.0080(5) 0.0048(6) 0.0099(6) 0.0024(3) -0.0015(2) -0.0031(4)
O7 O 0.0086(4) 0.0132(5) 0.0117(4) 0.0067(4) -0.0009(3) -0.0024(3)
B1 B 0.0071(5) 0.0018(7) 0.0074(3) 0.0009(4) 0.0016(3) 0.0032(7)
B2 B 0.0035(5) 0.0060(5) 0.0087(5) 0.0029(4) 0.0004(3) 0.0002(3)
B3 B 0.0171(13) 0.0102(8) 0.0076(7) 0.0085(7) 0.0024(8) 0.0012(4)
loop_
_atom_type_symbol
_atom_type_scat_dispersion_real
_atom_type_scat_dispersion_imag
_atom_type_scat_source
B 0.0013 0.0007 'International Tables Vol C tables 4.2.6.8 and 6.1.1.1'
Bi -4.1077 10.2566 'International Tables Vol C tables 4.2.6.8 and 6.1.1.1'
Fe 0.3463 0.8444 'International Tables Vol C tables 4.2.6.8 and 6.1.1.1'
O 0.0106 0.0060 'International Tables Vol C tables 4.2.6.8 and 6.1.1.1'
Y -2.7962 3.5667 'International Tables Vol C tables 4.2.6.8 and 6.1.1.1'
loop_
_geom_angle_atom_site_label_1
_geom_angle_atom_site_label_2
_geom_angle_atom_site_label_3
_geom_angle_site_symmetry_1
_geom_angle_site_symmetry_3
_geom_angle
Bi1 Y1 O3 . . 0
Bi1 Y1 O3 . 4_555 0
Bi1 Y1 O4 . . 0
Bi1 Y1 O4 . 4_555 0
Bi1 Y1 O7 . . 0
Bi1 Y1 O7 . 4_555 0
O3 Y1 O3 . 4_555 121.17(4)
O3 Y1 O4 . . 72.36(5)
O3 Y1 O4 . 4_555 89.25(5)
O3 Y1 O7 . . 90.78(5)
O3 Y1 O7 . 4_555 140.81(6)
O3 Y1 O4 4_555 . 89.25(5)
O3 Y1 O4 4_555 4_555 72.36(5)
O3 Y1 O7 4_555 . 140.81(6)
O3 Y1 O7 4_555 4_555 90.78(5)
O4 Y1 O4 . 4_555 142.45(4)
O4 Y1 O7 . . 124.30(6)
O4 Y1 O7 . 4_555 87.33(5)
O4 Y1 O7 4_555 . 87.33(5)
O4 Y1 O7 4_555 4_555 124.30(6)
O7 Y1 O7 . 4_555 73.18(4)
Y1 Bi1 O3 . . 0
Y1 Bi1 O3 . 4_555 0
Y1 Bi1 O4 . . 0
Y1 Bi1 O4 . 4_555 0
Y1 Bi1 O7 . . 0
Y1 Bi1 O7 . 4_555 0
O3 Bi1 O3 . 4_555 121.17(4)
O3 Bi1 O4 . . 72.36(5)
O3 Bi1 O4 . 4_555 89.25(5)
O3 Bi1 O7 . . 90.78(5)
O3 Bi1 O7 . 4_555 140.81(6)
O3 Bi1 O4 4_555 . 89.25(5)
O3 Bi1 O4 4_555 4_555 72.36(5)
O3 Bi1 O7 4_555 . 140.81(6)
O3 Bi1 O7 4_555 4_555 90.78(5)
O4 Bi1 O4 . 4_555 142.45(4)
O4 Bi1 O7 . . 124.30(6)
O4 Bi1 O7 . 4_555 87.33(5)
O4 Bi1 O7 4_555 . 87.33(5)
O4 Bi1 O7 4_555 4_555 124.30(6)
O7 Bi1 O7 . 4_555 73.18(4)
O1 Fe1 O1 . 3_554 87.596(10)
O1 Fe1 O3 . 2_555 85.73(4)
O1 Fe1 O3 . 5_554 167.34(7)
O1 Fe1 O6 . . 94.17(4)
O1 Fe1 O6 . 2_555 77.32(6)
O1 Fe1 O3 3_554 2_555 167.34(7)
O1 Fe1 O3 3_554 5_554 85.73(4)
O1 Fe1 O6 3_554 . 77.32(6)
O1 Fe1 O6 3_554 2_555 94.17(4)
O3 Fe1 O3 2_555 5_554 102.74(7)
O3 Fe1 O6 2_555 . 92.44(7)
O3 Fe1 O6 2_555 2_555 94.84(5)
O3 Fe1 O6 5_554 . 94.84(5)
O3 Fe1 O6 5_554 2_555 92.44(7)
O6 Fe1 O6 . 2_555 168.33(4)
O2 Fe2 O2 5_545 6_445 86.74(5)
O2 Fe2 O4 5_545 . 167.86(7)
O2 Fe2 O5 5_545 2_545 96.05(6)
O2 Fe2 O5 5_545 3_555 76.02(6)
O2 Fe2 O7 5_545 3_545 83.52(6)
O2 Fe2 O4 6_445 . 90.74(5)
O2 Fe2 O5 6_445 2_545 76.21(6)
O2 Fe2 O5 6_445 3_555 92.68(6)
O2 Fe2 O7 6_445 3_545 163.20(8)
O4 Fe2 O5 . 2_545 94.87(7)
O4 Fe2 O5 . 3_555 92.27(6)
O4 Fe2 O7 . 3_545 101.54(5)
O5 Fe2 O5 2_545 3_555 166.84(5)
O5 Fe2 O7 2_545 3_545 91.21(7)
O5 Fe2 O7 3_555 3_545 98.18(7)
Fe1 O1 Fe1 . 2_555 101.88(8)
Fe1 O1 B3 . . 129.06(4)
Fe1 O1 B3 2_555 . 129.06(4)
Fe2 O2 Fe2 5_445 6_455 102.80(4)
Fe2 O2 B2 5_445 . 125.19(10)
Fe2 O2 B2 6_455 . 129.11(12)
Y1 O3 Bi1 . . 0.0(5)
Y1 O3 Fe1 . 3_554 121.74(9)
Y1 O3 B2 . 4_555 104.66(9)
Bi1 O3 Fe1 . 3_554 121.74(9)
Bi1 O3 B2 . 4_555 104.66(9)
Fe1 O3 B2 3_554 4_555 133.34(12)
Y1 O4 Bi1 . . 0.0(5)
Y1 O4 Fe2 . . 122.29(6)
Y1 O4 B3 . . 107.27(11)
Bi1 O4 Fe2 . . 122.29(6)
Bi1 O4 B3 . . 107.27(11)
Fe2 O4 B3 . . 130.23(12)
Fe2 O5 Fe2 2_554 3_654 104.53(4)
Fe2 O5 B1 2_554 . 127.70(13)
Fe2 O5 B1 3_654 . 127.75(13)
Fe1 O6 Fe1 . 3_554 103.48(9)
Fe1 O6 B1 . . 128.26(4)
Fe1 O6 B1 3_554 . 128.26(4)
Y1 O7 Bi1 . . 0.0(5)
Y1 O7 Fe2 . 2_444 118.61(8)
Y1 O7 B2 . 3_444 112.82(11)
Bi1 O7 Fe2 . 2_444 118.61(8)
Bi1 O7 B2 . 3_444 112.82(11)
Fe2 O7 B2 2_444 3_444 128.56(10)
O5 B1 O5 . 5_554 121.9(3)
O5 B1 O6 . . 119.07(16)
O5 B1 O6 5_554 . 119.07(16)
O2 B2 O3 . 4_555 115.91(18)
O2 B2 O7 . 2_455 118.77(17)
O3 B2 O7 4_555 2_455 125.33(13)
O1 B3 O4 . . 117.57(13)
O1 B3 O4 . 6_555 117.57(14)
O4 B3 O4 . 6_555 124.9(2)
loop_
_geom_bond_atom_site_label_1
_geom_bond_atom_site_label_2
_geom_bond_site_symmetry_2
_geom_bond_distance
Y1 Bi1 . 0
Y1 O3 . 2.3373(15)
Y1 O3 4_555 2.3373(15)
Y1 O4 . 2.3641(16)
Y1 O4 4_555 2.3641(16)
Y1 O7 . 2.3344(11)
Y1 O7 4_555 2.3344(11)
Bi1 O3 . 2.3373(15)
Bi1 O3 4_555 2.3373(15)
Bi1 O4 . 2.3641(16)
Bi1 O4 4_555 2.3641(16)
Bi1 O7 . 2.3344(11)
Bi1 O7 4_555 2.3344(11)
Fe1 O1 . 2.0382(11)
Fe1 O1 3_554 2.0382(11)
Fe1 O3 2_555 1.9659(13)
Fe1 O3 5_554 1.9659(13)
Fe1 O6 . 2.0157(12)
Fe1 O6 2_555 2.0157(12)
Fe2 O2 5_545 2.0481(10)
Fe2 O2 6_445 2.0362(11)
Fe2 O4 . 1.9773(13)
Fe2 O5 2_545 2.0196(19)
Fe2 O5 3_555 2.0164(19)
Fe2 O7 3_545 1.9727(19)
O1 B3 . 1.362(3)
O2 B2 . 1.3751(16)
O3 B2 4_555 1.368(3)
O4 B3 . 1.3768(18)
O5 B1 . 1.370(2)
O6 B1 . 1.386(4)
O7 B2 3_444 1.369(3)
loop_
_twin_individual_id
_twin_individual_mass_fraction_refined
_twin_individual_twin_matrix_11
_twin_individual_twin_matrix_12
_twin_individual_twin_matrix_13
_twin_individual_twin_matrix_21
_twin_individual_twin_matrix_22
_twin_individual_twin_matrix_23
_twin_individual_twin_matrix_31
_twin_individual_twin_matrix_32
_twin_individual_twin_matrix_33
1 0.4915(13) 1 0 0 0 1 0 0 0 1
2 0.5085(13) -1 0 0 0 -1 0 0 0 -1
