#------------------------------------------------------------------------------
#$Date: 2018-12-07 05:37:15 +0200 (Fri, 07 Dec 2018) $
#$Revision: 212436 $
#$URL: file:///home/coder/svn-repositories/cod/cif/2/10/83/2108342.cif $
#------------------------------------------------------------------------------
#
# This file is available in the Crystallography Open Database (COD),
# http://www.crystallography.net/. The original data for this entry
# were provided by IUCr Journals, http://journals.iucr.org/.
#
# The file may be used within the scientific community so long as
# proper attribution is given to the journal article from which the
# data were obtained.
#
data_2108342
loop_
_publ_author_name
'Siidra, Oleg I.'
'Kozin, Michael S.'
'Depmeier, Wulf'
'Kayukov, Roman A.'
'Kovrugin, Vadim M.'
_publ_section_title
;
 Copper--lead selenite bromides: a new large family of compounds partly
 having Cu^2+^ substructures derivable from kagome nets
;
_journal_issue                   6
_journal_name_full               'Acta Crystallographica Section B'
_journal_page_first              712
_journal_page_last               724
_journal_paper_doi               10.1107/S2052520618016542
_journal_volume                  74
_journal_year                    2018
_chemical_formula_sum            'Br0.67 Cu0.67 O2 Pb0.33 Se0.67'
_chemical_formula_weight         249.34
_space_group_crystal_system      orthorhombic
_space_group_IT_number           63
_space_group_name_Hall           '-C 2c 2'
_space_group_name_H-M_alt        'C m c m'
_symmetry_space_group_name_Hall  '-C 2c 2'
_symmetry_space_group_name_H-M   'C m c m'
_audit_creation_method           SHELXL-2014/7
_cell_angle_alpha                90
_cell_angle_beta                 90
_cell_angle_gamma                90
_cell_formula_units_Z            12
_cell_length_a                   8.275(8)
_cell_length_b                   9.303(9)
_cell_length_c                   11.891(12)
_cell_measurement_reflns_used    340
_cell_measurement_temperature    296(2)
_cell_measurement_theta_max      27.536
_cell_measurement_theta_min      3.295
_cell_volume                     915.4(16)
_computing_structure_refinement  'SHELXL-2014/7 (Sheldrick, 2014)'
_diffrn_ambient_temperature      296(2)
_diffrn_measured_fraction_theta_full 0.953
_diffrn_measured_fraction_theta_max 0.931
_diffrn_measurement_device_type  'Bruker Apex2 Duo'
_diffrn_radiation_type           MoK\a
_diffrn_radiation_wavelength     0.71073
_diffrn_reflns_av_R_equivalents  0.0528
_diffrn_reflns_av_unetI/netI     0.0650
_diffrn_reflns_Laue_measured_fraction_full 0.953
_diffrn_reflns_Laue_measured_fraction_max 0.931
_diffrn_reflns_limit_h_max       10
_diffrn_reflns_limit_h_min       -5
_diffrn_reflns_limit_k_max       8
_diffrn_reflns_limit_k_min       -12
_diffrn_reflns_limit_l_max       15
_diffrn_reflns_limit_l_min       -5
_diffrn_reflns_number            1577
_diffrn_reflns_point_group_measured_fraction_full 0.953
_diffrn_reflns_point_group_measured_fraction_max 0.931
_diffrn_reflns_theta_full        25.242
_diffrn_reflns_theta_max         27.536
_diffrn_reflns_theta_min         3.295
_exptl_absorpt_coefficient_mu    39.621
_exptl_crystal_density_diffrn    5.427
_exptl_crystal_description       prism
_exptl_crystal_F_000             1304
_refine_diff_density_max         1.928
_refine_diff_density_min         -2.118
_refine_diff_density_rms         0.426
_refine_ls_extinction_coef       0.00035(7)
_refine_ls_extinction_expression Fc^*^=kFc[1+0.001xFc^2^\l^3^/sin(2\q)]^-1/4^
_refine_ls_extinction_method     'SHELXL-2014/7 (Sheldrick 2014'
_refine_ls_goodness_of_fit_ref   1.018
_refine_ls_hydrogen_treatment    undef
_refine_ls_matrix_type           full
_refine_ls_number_parameters     39
_refine_ls_number_reflns         553
_refine_ls_number_restraints     6
_refine_ls_restrained_S_all      1.015
_refine_ls_R_factor_all          0.0546
_refine_ls_R_factor_gt           0.0361
_refine_ls_shift/su_max          0.000
_refine_ls_shift/su_mean         0.000
_refine_ls_structure_factor_coef Fsqd
_refine_ls_weighting_details
'w=1/[\s^2^(Fo^2^)+(0.0282P)^2^] where P=(Fo^2^+2Fc^2^)/3'
_refine_ls_weighting_scheme      calc
_refine_ls_wR_factor_gt          0.0683
_refine_ls_wR_factor_ref         0.0745
_reflns_Friedel_coverage         0.000
_reflns_number_gt                431
_reflns_number_total             553
_reflns_threshold_expression     'I > 2\s(I)'
_cod_data_source_file            ps5074sup1.cif
_cod_data_source_block           CuPb21
_cod_original_cell_volume        915.4(15)
_cod_database_code               2108342
_shelx_shelxl_version_number     2014/7
_shelx_space_group_comment
;
The symmetry employed for this shelxl refinement is uniquely defined
by the following loop, which should always be used as a source of
symmetry information in preference to the above space-group names.
They are only intended as comments.
;
_shelx_res_file
;

    shelx.res created by SHELXL-2014/7


TITL mo_r11233_0m in Cmcm
CELL 0.71073   8.2748   9.3034  11.8910  90.000  90.000  90.000
ZERR   12.00   0.0079   0.0091   0.0115   0.000   0.000   0.000
LATT  7
SYMM -X, -Y, 0.5+Z
SYMM -X, Y, 0.5-Z
SYMM X, -Y, -Z
SFAC O SE CU PB BR
UNIT 24 8 8 4 8
TEMP 23.000
isor 0.01 0.01 O2
acta
L.S. 20
BOND
FMAP 2
PLAN 20
WGHT    0.028200
EXTI    0.000348
FVAR       0.04026   1.01289
MOLE   1
PB1   4    0.000000    0.334956    0.250000    10.25000    0.01790    0.00953 =
         0.01142    0.00000    0.00000    0.00000
SE1   2    0.000000    0.312208    0.540357    10.50000    0.00455    0.00474 =
         0.00945   -0.00062    0.00000    0.00000
BR1   5    0.227730    0.077173    0.250000    10.50000    0.01209    0.01339 =
         0.01279    0.00000    0.00000    0.00474
CU1   3    0.186237    0.000000    0.500000    10.50000    0.00424    0.00405 =
         0.02160   -0.00143    0.00000    0.00000
O1    1    0.153072    0.360202    0.453083    11.00000    0.00422    0.00680 =
         0.01977    0.00182    0.00102   -0.00332
O2    1    0.000000    0.128701    0.517684    10.50000    0.00766    0.00327 =
         0.02465   -0.00391    0.00000    0.00000
MOLE   2
HKLF 4

REM  mo_r11233_0m in Cmcm
REM R1 =  0.0361 for     431 Fo > 4sig(Fo)  and  0.0546 for all     553 data
REM     39 parameters refined using      6 restraints

END

WGHT      0.0288      0.0000

REM Highest difference peak  1.928,  deepest hole -2.118,  1-sigma level  0.426
Q1    1   0.0000  0.2658  0.4074  10.50000  0.05    1.93
Q2    1   0.0682  0.3767  0.2987  11.00000  0.05    1.79
Q3    1   0.0000  0.2467  0.3609  10.50000  0.05    1.75
Q4    1   0.3886  0.1475  0.2500  10.50000  0.05    1.71
Q5    1   0.1275  0.2757  0.2500  10.50000  0.05    1.67
Q6    1   0.2402  0.3909  0.3906  11.00000  0.05    1.58
Q7    1   0.1694  0.4134  0.4824  11.00000  0.05    1.40
Q8    1   0.4193  0.2609  0.2500  10.50000  0.05    1.39
Q9    1   0.0000  0.0960  0.4685  10.50000  0.05    1.35
Q10   1   0.2866  0.0981  0.4333  11.00000  0.05    1.30
Q11   1   0.0524  0.2980  0.6153  11.00000  0.05    1.23
Q12   1   0.2956  0.0389  0.2964  11.00000  0.05    1.18
Q13   1   0.1661  0.3232  0.6099  11.00000  0.05    1.18
Q14   1   0.1518 -0.1041  0.2500  10.50000  0.05    1.11
Q15   1   0.1111  0.3196  0.4624  11.00000  0.05    1.09
Q16   1   0.1675  0.0077  0.2915  11.00000  0.05    1.08
Q17   1   0.1673  0.4461  0.3311  11.00000  0.05    1.08
Q18   1   0.1722  0.1395  0.5527  11.00000  0.05    1.08
Q19   1   0.0000  0.0661  0.5469  10.50000  0.05    1.05
Q20   1   0.0000  0.3761  0.3843  10.50000  0.05    1.04
;
_shelx_res_checksum              26941
_shelx_hkl_file
;
  -2   0   0   37.05    2.26
   2   0   0   39.12    1.83
   2   0   0   39.87    2.25
   4   0   0  482.38   12.02
   4   0   0  486.63   12.63
   6   0   0  267.00    9.76
  -1  -1   0   27.60    1.54
   1  -1   0   28.73    1.26
   1   1   0   26.71    1.55
  -1   1   0   25.51    1.17
   1   1   0   24.94    1.40
   3   1   0  212.17    6.59
  -3  -1   0  212.71    6.76
   3  -1   0  205.49    6.74
   3   1   0  238.94    6.54
   5   1   0   11.04    1.94
   5   1   0   12.68    2.37
   5  -1   0    7.92    2.24
   0  -2   0    0.86    0.59
   0   2   0    1.64    0.64
   2   2   0  478.52   11.40
  -2  -2   0  483.10   11.78
   2  -2   0  477.91   10.82
   4  -2   0   41.42    3.49
   4   2   0   40.46    3.40
  -4  -2   0   33.15    3.34
   6   2   0   45.89    4.26
   6  -2   0   37.43    4.52
   8   2   0   92.57    5.92
   1  -3   0  533.67   12.37
  -1  -3   0  521.12   13.27
  -1   3   0  531.27   12.14
   1   3   0  542.06   12.52
  -3  -3   0   36.98    3.57
   3   3   0   43.31    2.99
   3  -3   0   37.57    2.99
   5   3   0  325.29   10.61
   5  -3   0  345.24   10.82
  -5  -3   0  341.73   11.37
   7   3   0   86.03    5.62
   0   4   0   41.95    2.66
  -2  -4   0   63.92    4.92
   2   4   0   64.68    3.74
   2  -4   0   58.42    3.39
   4  -4   0   37.46    3.57
  -4  -4   0   42.57    4.41
   4   4   0   33.50    3.54
   6  -4   0   -0.89    2.05
   6   4   0   -0.03    1.37
   8   4   0   63.47    6.14
   1  -5   0   94.51    4.66
  -1  -5   0   98.41    5.42
  -1   5   0  105.53    4.48
   1   5   0   95.96    4.72
  -3  -5   0  221.46    9.00
   3   5   0  234.62    8.54
   3  -5   0  238.06    7.91
   5  -5   0   63.71    5.29
   5   5   0   49.50    4.94
   7   5   0   35.39    4.75
   9   5   0   94.58    8.52
   0   6   0  208.75    7.43
   0  -6   0  193.72    8.49
  -2  -6   0  218.18    9.27
   2  -6   0  216.43    8.15
   2   6   0  208.25    8.33
   4   6   0   36.14    4.36
  -4  -6   0   33.89    4.81
   4  -6   0   39.24    4.12
   6   6   0  278.82   11.39
   8   6   0    4.69    2.78
  -1  -7   0   -0.90    1.70
   1   7   0    3.02    1.89
  -3  -7   0    6.50    2.66
   3   7   0    1.62    1.86
   5   7   0    0.81    2.11
   0  -8   0   28.00    4.47
  -2  -8   0   62.13    6.90
   1  -9   0   92.96    8.75
  -1  -9   0  100.92    8.97
   0 -10   0   13.18    4.32
  -2 -10   0   10.51    4.15
   1 -11   0   24.97    5.51
  -1 -11   0   14.55    4.98
   0 -12   0   73.42    9.28
   0   0   1    0.13    0.29
  -2   0   1   -1.55    0.72
   2   0   1   -0.59    0.52
   2   0   1   -0.47    0.43
   2   0  -1   -0.12    0.84
  -4   0   1   -0.33    1.22
   4   0   1    0.14    0.67
   4   0   1    0.82    0.94
   4   0  -1    0.16    1.15
   6   0   1   -0.83    1.03
   6   0  -1    1.15    1.82
   6   0   1   -1.33    1.37
   1   1  -1   81.94    2.77
  -1  -1  -1   82.28    2.84
  -1   1   1   84.09    2.82
   1   1   1   83.81    2.72
  -1  -1   1   81.16    2.90
   1  -1  -1   81.14    2.85
   1   1   1   85.59    2.87
  -3   1   1   20.32    2.24
   3  -1   1   22.30    2.07
   3   1  -1   19.90    2.13
   3  -1   1   18.50    1.49
   3  -1  -1   19.64    2.54
   3   1   1   22.01    2.13
  -3  -1   1   17.31    2.25
   3   1   1   16.18    1.76
   5   1  -1   52.43    3.51
   5  -1   1   57.13    4.33
   5   1   1   52.65    3.64
   5   1   1   54.57    3.44
   5  -1  -1   54.99    5.03
  -5  -1   1   55.11    5.25
   7   1   1    6.24    2.05
   0  -2   1    3.07    0.75
   0   2  -1    2.90    0.69
   0  -2   1    3.85    0.96
   0   2   1    3.70    0.93
  -2  -2  -1  229.47    6.64
   2   2  -1  216.89    6.37
   2  -2   1  224.83    5.45
  -2   2   1  220.18    6.06
   2   2   1  212.02    6.29
   2   2   1  211.11    6.54
  -2  -2   1  214.36    6.72
   4   2  -1    1.02    1.04
   4  -2   1    0.60    0.99
   4  -2  -1    2.79    1.45
   4   2   1    0.75    1.05
  -4  -2   1   -0.60    1.26
   4   2   1   -0.27    0.87
   6   2  -1   70.69    4.71
   6  -2   1   76.45    5.28
   6   2   1   87.12    5.44
   6   2   1   85.85    4.94
   6  -2  -1   80.54    6.84
   8   2   1    3.88    1.97
  -1  -3  -1    5.31    1.50
   1  -3   1    6.16    1.15
   1   3  -1    6.43    1.22
  -1   3   1    7.82    1.41
   1   3   1    5.93    1.37
   1  -3  -1    7.08    1.42
  -1  -3   1    7.37    1.57
   3  -3   1    7.04    1.25
   3   3  -1    4.03    1.26
  -3  -3  -1    5.63    1.68
   3   3   1    7.40    1.65
  -3  -3   1    7.43    1.82
   3  -3  -1    7.44    1.60
   5   3  -1   18.78    2.77
  -5  -3  -1   22.79    3.34
   5  -3   1   20.75    2.86
  -5  -3   1   16.78    3.13
   5  -3  -1   29.51    3.73
   5   3   1   25.35    3.13
   7   3  -1    8.46    2.48
   7   3   1   14.28    2.95
   9   3   1   11.95    3.19
   0   4  -1  214.84    6.43
   0   4   1  212.56    7.05
   0  -4   1  218.05    7.40
   0  -4   1  216.74    6.80
   2  -4   1   -0.08    0.84
  -2  -4  -1    1.75    1.40
   2   4  -1    2.73    1.13
  -2   4   1    0.50    0.92
   2   4   1    1.49    1.05
   2  -4  -1    1.62    1.14
  -2  -4   1   -0.56    1.02
   4  -4   1  100.37    4.70
  -4  -4  -1  104.05    5.79
   4   4  -1   96.65    5.13
   4  -4  -1  100.29    5.23
  -4  -4   1  108.14    6.03
   4   4   1  110.19    5.52
   6  -4   1    0.07    1.77
   6   4  -1    0.64    1.59
   6   4   1    1.90    1.71
   8   4  -1   26.68    4.37
   8   4   1   15.65    3.38
  10   4   1    3.72    2.79
  -1   5   1   51.78    3.52
   1   5  -1   45.84    3.70
  -1  -5  -1   54.90    4.94
   1  -5   1   50.65    3.36
  -1  -5   1   49.49    4.43
   1   5   1   46.87    4.00
   3   5  -1   59.02    4.05
   3  -5   1   59.53    3.67
  -3  -5  -1   70.73    5.80
   3   5   1   65.60    4.35
  -3  -5   1   65.80    5.59
   3  -5  -1   63.94    4.19
   5   5  -1    5.53    2.12
   5  -5   1    7.67    2.42
   5   5   1    9.14    2.35
  -5  -5   1    8.86    3.03
   7   5  -1   46.43    5.26
   7   5   1   43.02    5.03
   9   5  -1    1.70    2.63
   9   5   1    1.98    2.49
   0  -6   1   11.76    2.54
   0   6   1   18.33    2.81
   0   6  -1   17.38    2.54
  -2  -6  -1   -0.19    1.65
   2  -6   1   -2.43    1.22
   2   6  -1   -0.64    1.32
  -2  -6   1    0.34    1.58
   2   6   1    0.78    1.47
   4  -6   1    6.86    1.93
  -4  -6  -1    3.99    2.62
   4   6  -1    8.30    2.40
   4   6   1    5.62    2.15
  -4  -6   1    7.39    2.82
   6   6  -1   -1.09    1.61
   6   6   1    0.32    1.86
   8   6  -1    0.49    2.24
   8   6   1    0.84    2.35
  -1  -7  -1   18.60    3.61
  -1  -7   1   18.25    3.58
   1   7   1   16.09    2.99
   3   7  -1   17.71    3.21
  -3  -7  -1   25.39    4.51
  -3  -7   1   21.82    3.85
   3   7   1   22.09    3.88
   5   7   1    6.78    2.60
   7   7   1   10.06    3.30
   0  -8   1   84.07    7.49
   0  -8  -1  107.23    8.67
  -2  -8  -1    8.58    3.45
  -2  -8   1    8.21    3.04
  -1  -9  -1    3.12    2.83
   1  -9   1    1.19    2.48
  -1  -9   1    1.89    2.54
  -3  -9   1    9.68    3.66
   0 -10   1    2.67    3.12
   0 -10  -1   -1.04    2.86
   2 -10   1   42.09    6.20
  -2 -10   1   57.79    7.33
   1 -11   1   32.84    6.26
   1 -11  -1   33.22    6.45
  -1 -11   1   33.98    6.31
   0 -12   1   -0.84    3.90
   0   0   2    3.84    0.92
  -2   0   2    1.18    1.18
   2   0   2    2.50    0.60
   2   0   2    2.73    0.62
   4   0   2   86.70    3.63
  -4   0   2   79.40    5.21
   4   0   2   88.43    3.49
   6   0   2   82.69    4.32
   6   0   2   86.99    4.72
  -1   1   2   23.14    2.05
  -1  -1  -2   22.96    1.76
   1   1   2   22.45    1.48
  -1  -1   2   21.64    1.85
  -1  -1   2   24.22    1.56
   3  -1   2    1.86    0.83
   3  -1   2    2.54    0.61
  -3   1   2    2.69    1.43
  -3  -1   2    2.17    1.30
   3   1   2    5.85    1.20
   3   1   2    2.23    0.89
   5  -1   2   18.44    2.40
   5  -1   2   16.27    1.90
   5   1   2   12.89    2.05
   5  -1  -2   16.84    3.32
   5   1   2   18.22    2.49
  -5  -1   2   17.52    3.29
   7  -1   2   12.13    2.64
   7   1   2    9.29    2.23
   0  -2   2    4.76    0.96
   0  -2   2    2.68    0.74
   0   2   2    1.77    0.86
  -2   2   2    1.53    0.96
   2   2  -2    0.42    0.76
   2  -2   2    0.71    0.42
  -2  -2  -2    0.45    0.90
   2   2   2   -0.63    0.82
  -2  -2   2   -0.63    0.76
   2   2   2    0.65    0.87
  -4   2   2   19.74    2.73
   4   2  -2   15.58    2.36
   4  -2   2   15.15    1.82
   4  -2  -2   19.20    2.93
   4   2   2   15.03    2.20
  -4  -2   2   14.06    2.51
   4   2   2   17.48    2.35
   6  -2   2   16.87    2.96
   6   2   2   22.94    3.17
   6   2   2   24.51    3.17
   8   2   2   35.03    4.31
   1   3  -2    2.02    0.89
  -1   3   2    0.72    0.92
   1  -3   2    1.19    0.74
  -1  -3  -2   -0.82    1.06
  -1  -3   2    0.96    0.93
   1   3   2    0.64    0.92
  -1  -3   2    1.06    0.93
  -3  -3  -2  146.18    5.93
   3   3  -2  148.34    5.84
   3  -3   2  141.09    4.36
  -3   3   2  141.44    5.51
   3   3   2  143.42    5.70
  -3  -3   2  137.38    6.03
   3  -3  -2  157.23    6.09
   5   3  -2    3.94    1.71
   5  -3   2    5.25    1.73
   5   3   2    0.86    1.61
   5  -3  -2    6.46    2.44
  -5  -3   2    3.40    2.13
   5   3   2    3.84    1.55
   7  -3   2    4.26    2.62
   7   3   2    4.09    1.91
   9   3   2   13.29    3.27
   0  -4   2  121.82    5.17
   0   4   2  126.40    5.24
   0  -4   2  120.66    4.62
  -2  -4  -2    6.99    2.05
   2   4  -2    7.79    1.66
   2  -4   2    9.38    1.42
  -2   4   2   10.81    1.86
   2   4   2    4.96    1.48
  -2  -4   2    8.54    1.96
  -4  -4  -2   46.22    4.61
   4  -4   2   43.83    2.87
   4   4  -2   48.95    4.31
   4  -4  -2   38.96    4.05
   4   4   2   47.68    4.32
  -4  -4   2   34.33    4.04
   6   4  -2   11.95    2.62
   6  -4   2   12.54    2.70
   6   4   2   12.83    2.69
   8   4   2    1.63    2.02
  10   4   2   12.41    3.65
  -1  -5  -2    2.74    1.59
   1  -5   2    0.68    1.05
  -1   5   2    1.86    1.25
   1   5  -2    0.57    1.04
   1   5   2   -0.19    1.06
  -1  -5   2   -0.70    1.11
   3   5  -2  105.56    5.39
   3  -5   2  109.46    4.79
  -3  -5  -2  113.97    6.45
   3   5   2  118.06    5.94
  -3  -5   2  101.03    6.08
   5  -5   2   29.28    3.35
   5   5  -2   18.93    3.33
   5   5   2   24.67    3.67
  -5  -5   2   23.99    3.99
   7   5  -2   26.04    4.17
   7   5   2   27.17    4.16
   9   5   2    1.90    2.51
   0  -6   2   87.33    4.91
   0  -6   2   84.15    5.15
   0   6   2   80.20    5.09
   2  -6   2  192.81    7.18
   2   6  -2  188.31    7.42
  -2  -6  -2  192.72    8.94
  -2   6   2  190.85    7.61
   2   6   2  199.15    8.17
  -2  -6   2  182.04    8.28
   4  -6   2    0.48    1.37
   4   6  -2    0.41    1.65
  -4  -6   2   -0.21    1.87
   4   6   2    2.52    2.01
   6   6  -2    2.27    1.90
   6   6   2    5.44    2.38
   8   6   2    8.00    3.01
  -1  -7  -2   84.90    7.31
   1  -7   2   79.65    6.55
   1   7   2   81.12    5.53
  -1  -7   2   91.59    6.06
  -3  -7  -2    0.85    2.15
   3   7   2   -0.05    1.88
  -3  -7   2   -2.29    2.02
   5   7   2  151.35    8.52
   7   7   2    0.48    2.40
   0  -8  -2   60.83    6.82
   0  -8   2   66.80    6.37
  -2  -8  -2   73.15    7.42
  -2  -8   2   68.67    6.85
   4   8   2    2.94    2.57
  -4  -8   2    1.19    2.70
  -1  -9  -2    4.77    3.35
   1  -9   2    5.18    2.74
  -1  -9   2    3.31    2.85
  -3  -9   2   66.79    7.62
   0 -10  -2   72.18    8.23
   0 -10   2   69.67    7.66
   2 -10   2   15.88    3.98
  -2 -10   2   19.29    4.70
   1 -11   2    2.62    3.21
  -1 -11   2    0.55    3.42
   1 -11  -2    3.65    3.92
   3 -11   2   10.83    4.03
   0   0   3    0.25    0.74
   2   0   3   -0.39    0.45
  -2   0   3    1.09    1.24
   2   0   3    0.46    0.49
   4   0   3   -0.66    0.62
  -4   0   3   -0.88    1.17
   4   0   3    0.22    0.78
   6   0   3   -0.58    1.27
   6   0   3    1.35    1.12
   8   0   3    0.50    1.67
  -1   1   3  210.25    6.62
   1   1   3  217.76    5.81
  -1  -1   3  223.97    6.31
   3  -1   3  203.43    4.58
  -3   1   3  205.30    7.72
   3   1   3  213.09    6.10
  -3  -1   3  199.32    7.49
   3   1   3  204.62    6.10
   5  -1   3  166.37    5.63
   5  -1   3  165.50    5.27
  -5   1   3  167.13    7.97
   5   1   3  174.31    6.12
  -5  -1   3  169.18    8.35
   5   1   3  160.65    6.10
   7  -1   3   39.77    3.83
   7   1   3   40.28    4.05
   9   1   3   73.23    6.41
   0   2   3    9.23    1.54
   0  -2   3    5.93    1.05
   0  -2   3    6.97    1.03
  -2   2   3  413.99   11.00
   2   2   3  395.91   10.19
  -2  -2   3  383.86   10.67
   4  -2   3   53.64    2.09
   4  -2   3   50.19    2.52
  -4   2   3   72.55    5.46
   4   2   3   54.42    4.07
   4   2   3   47.95    3.13
  -4  -2   3   54.06    4.73
   6  -2   3  118.99    5.41
   6   2   3  110.38    5.63
   6   2   3  117.94    6.13
   8   2   3   22.96    3.53
  10   2   3   39.83    5.35
   1   3  -3    1.93    0.94
  -1   3   3    2.18    1.10
   1  -3   3    1.67    0.75
  -1  -3   3    0.65    0.90
  -1  -3   3    0.26    0.99
   1   3   3    0.72    0.93
  -3   3   3   10.03    2.01
   3  -3   3   11.90    1.16
   3   3  -3   16.56    2.41
  -3  -3   3   14.87    2.39
   3   3   3   11.93    2.33
   3   3   3   13.17    2.16
   5  -3   3    6.66    1.64
   5   3   3    7.58    2.31
  -5  -3   3    8.62    2.57
   5   3   3    7.79    2.00
   7  -3   3   39.76    4.31
   7   3   3   25.13    3.60
   9   3   3   14.44    3.32
   0   4   3  377.30   11.03
   0  -4   3  391.79   10.71
   0  -4   3  387.16   10.13
   2  -4   3   47.42    2.55
   2   4  -3   52.28    3.29
  -2  -4  -3   44.60    4.45
  -2   4   3   52.41    4.23
   2   4   3   48.39    4.22
  -2  -4   3   51.35    4.36
  -4  -4  -3  270.90    9.80
  -4   4   3  271.26    9.46
   4   4  -3  264.14    9.54
   4  -4   3  275.20    7.49
  -4  -4   3  290.82   10.48
   4   4   3  268.50    9.50
   6   4  -3   33.22    4.11
   6  -4   3   28.10    3.35
   6   4   3   35.13    4.26
   8   4   3   69.33    6.49
  -1   5   3   62.16    4.27
   1  -5   3   66.97    4.08
  -1  -5  -3   75.92    6.27
   1  -5   3   70.21    3.62
  -1  -5   3   70.14    4.10
  -1  -5   3   65.08    4.30
   1   5   3   62.34    5.12
  -3   5   3  157.40    6.93
   3   5  -3  167.61    6.91
   3  -5   3  165.33    5.67
  -3  -5  -3  142.94    7.64
   3   5   3  157.80    7.19
  -3  -5   3  159.89    7.46
   5   5  -3   33.42    4.08
   5  -5   3   31.14    3.23
  -5  -5   3   26.71    4.38
   5   5   3   31.00    4.15
   7   5   3   57.03    5.95
   9   5   3    4.10    2.71
   0   6   3    3.17    1.75
   0  -6   3   12.64    2.35
   0  -6   3    9.12    2.29
  -2  -6  -3   19.16    3.73
   2  -6   3   18.91    2.57
   2   6  -3   12.92    2.40
  -2   6   3   12.59    2.61
  -2  -6   3   13.14    2.89
   2   6   3   12.81    2.76
   4   6  -3   -0.16    1.64
   4  -6   3   -0.45    1.52
   4   6   3    0.59    1.70
  -4  -6   3    0.52    2.12
   6   6   3   11.08    3.01
   8   6   3    4.85    2.93
  -1  -7  -3   96.47    8.03
   1  -7   3   98.35    5.94
  -1  -7   3   98.35    6.31
   1   7   3   91.76    6.19
   3  -7   3   83.87    5.13
  -3  -7   3   95.96    7.91
   3   7   3   86.53    7.14
   5   7   3   65.38    6.85
   7   7   3   55.55    6.63
   0  -8   3   69.02    6.65
   2  -8   3    7.00    2.78
  -2  -8   3   12.22    3.61
   2   8   3    9.01    3.00
   4   8   3   71.66    7.13
  -4  -8   3   77.15    7.84
   6   8   3    5.66    3.03
  -1  -9  -3   14.92    4.29
   1  -9   3   11.52    3.39
  -1  -9   3   22.14    4.51
  -3  -9   3   -0.29    2.71
   0 -10   3   15.04    4.37
   0 -10  -3    9.23    4.28
   2 -10   3   96.15    8.68
  -2 -10   3  105.76    9.46
   1 -11   3    6.35    3.60
  -1 -11   3   10.17    4.24
   3 -11   3    2.59    3.33
   0   0   4 1000.00   21.54
   2   0   4    6.78    1.00
  -2   0   4    3.14    1.49
   2   0   4    6.62    1.03
   4   0   4  321.15    8.15
   4   0   4  320.94    8.07
  -4   0   4  322.43   11.40
   6   0   4  130.78    5.56
   6   0   4  134.20    5.39
   8   0   4   42.32    4.32
   1  -1   4    6.68    0.85
  -1   1   4    3.01    1.31
   1   1   4    6.35    1.20
  -1  -1   4    3.24    1.13
  -3   1   4  172.78    7.40
   3   1   4  175.27    5.66
  -3  -1   4  184.84    7.40
   3   1   4  178.30    5.57
   5  -1   4   17.91    1.80
   5  -1   4   14.09    1.77
  -5   1   4   18.16    3.57
  -5  -1   4   14.93    3.34
   5   1   4   14.78    2.17
   5   1   4   15.57    2.28
   7  -1   4   88.55    4.74
   7  -1   4   72.93    4.16
   7   1   4   86.18    4.96
   9   1   4   -1.46    1.92
   0  -2   4   15.17    1.66
   0   2   4   12.56    1.85
  -2   2   4  267.51    8.98
   2   2   4  266.84    7.89
  -2  -2   4  265.76    8.42
  -4   2   4   16.73    3.18
   4  -2   4   12.25    0.97
   4   2   4   13.54    2.25
  -4  -2   4   13.49    2.68
   4   2   4   10.94    1.92
   6  -2   4   15.42    2.19
   6   2   4    8.52    2.09
   6   2   4   14.85    2.89
   8   2   4   51.42    5.22
  10   2   4    4.89    2.62
   1  -3   4  251.82    6.33
  -1   3   4  243.12    8.16
   1  -3   4  252.91    6.71
   1   3   4  245.90    8.00
  -1  -3   4  252.06    7.80
  -1  -3   4  235.28    7.38
  -3   3   4   17.03    2.71
   3   3   4   16.46    2.50
  -3  -3   4   17.34    2.76
   5  -3   4  211.34    6.42
   5   3   4  219.49    8.73
  -5  -3   4  216.73    9.59
   5   3   4  222.94    8.20
   7  -3   4   36.41    3.87
   7   3   4   37.76    4.56
   9   3   4   27.12    4.44
   0   4   4   11.27    2.19
   0  -4   4   11.38    1.95
   0  -4   4   15.29    1.94
   2  -4   4   52.60    2.55
  -2  -4  -4   55.27    4.94
  -2   4   4   55.11    4.63
  -2  -4   4   54.71    4.58
   2   4   4   56.47    4.60
  -4   4   4   41.81    4.38
   4  -4   4   44.82    2.42
  -4  -4   4   40.73    4.64
   4   4   4   39.00    4.12
   6  -4   4    0.20    1.49
   6   4   4    0.56    1.71
   8   4   4   55.23    6.04
  -1   5   4   50.09    4.58
   1  -5   4   38.39    3.05
   1  -5   4   45.20    3.84
   1   5   4   24.86    3.32
  -1  -5   4   37.75    3.67
  -1  -5   4   41.76    4.03
  -3  -5  -4  115.49    6.85
   3   5  -4  120.51    5.85
  -3   5   4  105.52    6.11
   3  -5   4  116.90    4.55
  -3  -5   4  117.89    6.63
   3   5   4  120.30    6.41
   5   5  -4    9.48    2.56
   5  -5   4   22.40    2.50
   5   5   4   19.97    3.38
  -5  -5   4   22.88    4.35
   7  -5   4   15.79    3.14
   7   5   4    9.45    2.88
   9   5   4   70.08    7.25
   0  -6   4  107.99    5.89
   0   6   4  113.63    6.27
   0  -6   4  119.23    5.67
  -2  -6  -4  140.53    8.00
  -2   6   4  156.70    7.34
   2  -6   4  143.73    5.92
   2   6   4  144.00    7.49
  -2  -6   4  130.49    7.08
   4  -6   4   22.69    2.84
   4   6   4   15.15    3.18
  -4  -6   4   24.63    4.21
   6  -6   4  183.86    7.69
   6   6   4  185.41    9.71
   8   6   4    0.71    2.43
  -1   7   4    3.95    2.21
   1  -7   4    1.88    1.83
  -1  -7  -4    4.04    2.78
  -1  -7   4    0.13    1.48
   1   7   4    1.62    1.96
   3  -7   4   19.96    2.99
   3   7   4   15.56    3.35
  -3  -7   4   13.80    3.40
  -5  -7   4    4.72    3.15
   5   7   4    1.91    2.45
   7   7   4   -0.80    2.35
   0  -8   4   18.78    3.72
   2  -8   4   26.06    4.05
   2   8   4   24.43    4.36
  -2  -8   4   21.45    4.03
  -4  -8   4   70.07    7.55
   4   8   4   56.63    6.51
   6   8   4   -2.47    2.73
   1  -9   4   64.75    6.90
  -1  -9   4   80.97    7.72
   3  -9   4   15.85    3.66
  -3  -9   4   21.34    4.92
   0 -10   4    4.53    3.03
   2 -10   4   19.05    4.39
  -2 -10   4   25.36    5.27
   4 -10   4    3.33    3.03
   1 -11   4    9.06    3.75
  -1 -11   4    4.23    3.76
   3 -11   4   64.00    7.74
   0   0   5   -0.51    0.85
  -2   0   5   -0.73    1.17
   2   0   5    0.68    0.75
  -4   0   5   -1.64    1.50
   4   0   5   -0.71    0.70
   4   0   5    0.37    0.82
   6   0   5    1.37    1.35
   6   0   5    0.95    1.14
   8   0   5    1.44    1.55
   1  -1   5    8.72    1.24
  -1   1   5    7.95    1.79
  -1  -1   5    6.43    1.51
   1   1   5    5.38    1.37
  -3   1   5    6.23    2.04
  -3  -1   5    4.79    1.93
   3   1   5    8.33    1.50
   5  -1   5    3.68    1.15
   5  -1   5    3.58    1.06
  -5   1   5    3.25    2.58
  -5  -1   5    1.77    2.37
   5   1   5    6.45    1.69
   5   1   5    6.98    1.59
   7  -1   5   -0.38    1.50
   7  -1   5    1.39    1.23
   7   1   5    0.30    1.36
   9   1   5    2.00    2.10
   0  -2   5    0.52    0.78
   0   2   5    0.28    1.04
  -2   2   5   80.69    4.86
   2   2   5   76.68    4.00
  -2  -2   5   86.64    4.50
  -4   2   5   13.64    3.02
   4   2   5    8.97    1.93
  -4  -2   5   11.54    2.70
   4   2   5   17.21    2.65
   6  -2   5   45.19    2.87
   6  -2   5   44.56    2.54
   6   2   5   35.67    3.83
   6   2   5   36.84    4.13
   8   2   5    0.92    1.93
  10   2   5   -2.05    2.31
  -1   3   5   14.48    2.53
   1  -3   5   20.24    1.77
   1  -3   5   19.76    1.90
   1   3   5   21.03    2.75
  -1  -3   5   23.92    2.71
  -1  -3   5   17.84    2.22
  -3   3   5    1.68    1.68
   3   3   5    0.11    1.04
  -3  -3   5    2.38    1.56
   5  -3   5   32.72    2.12
  -5  -3   5   41.18    5.10
   5   3   5   29.69    3.61
   5   3   5   30.05    3.86
   7  -3   5    5.09    1.74
   7   3   5   -0.52    1.81
   9   3   5   20.03    3.92
   0  -4   5   64.92    3.46
   0   4   5   69.77    4.58
   0  -4   5   68.51    3.77
  -2  -4  -5   31.26    3.96
  -2   4   5   32.22    3.90
   2  -4   5   29.34    1.90
   2  -4   5   34.08    2.62
   2   4   5   34.82    3.80
  -2  -4   5   38.11    3.84
  -4   4   5   21.59    3.60
   4  -4   5   19.73    1.67
  -4  -4   5   23.71    3.77
   4   4   5   18.90    3.12
   6  -4   5    8.97    1.81
   6   4   5    3.42    2.23
   8   4   5    1.38    2.32
  -1   5   5   26.53    3.66
   1  -5   5   24.77    2.65
   1  -5   5   21.81    2.72
   1   5   5   23.75    3.40
  -1  -5   5   25.13    3.03
  -1  -5   5   31.72    3.67
  -3   5   5   23.67    3.83
   3  -5   5   18.48    2.09
   3   5   5   21.61    3.44
  -3  -5   5   21.64    3.68
   5  -5   5    0.64    1.21
   5   5   5    1.58    1.82
  -5  -5   5    4.43    2.74
   7  -5   5   37.86    3.93
   7   5   5   39.31    5.23
   9   5   5    0.17    2.82
   0  -6   5   62.91    5.20
   0   6   5   66.29    5.88
   0  -6   5   61.16    4.74
   2  -6   5   12.71    2.43
  -2   6   5   11.69    2.76
   2  -6   5    9.94    2.03
   2   6   5   10.96    2.76
  -2  -6   5   15.72    3.05
   4  -6   5   21.26    2.68
  -4  -6   5   23.57    4.21
   4   6   5   11.53    2.92
   6  -6   5   21.29    3.11
   6   6   5   25.18    4.42
   8   6   5   11.11    3.65
  -1   7   5    0.96    1.98
   1  -7   5    3.78    1.91
  -1  -7   5    3.23    2.01
   1   7   5   -0.16    1.93
   3  -7   5   -0.06    1.63
   3  -7   5    2.87    1.95
  -3  -7   5   -0.02    1.89
   3   7   5    1.71    2.17
  -5  -7   5   -0.77    2.72
   5   7   5    0.00    2.11
   7   7   5    2.17    2.87
   0  -8   5   97.05    6.67
   2  -8   5    6.04    2.60
   2   8   5    7.85    3.13
  -2  -8   5    7.23    2.88
   4   8   5   48.63    6.31
  -4  -8   5   43.99    6.25
   6   8   5   10.78    3.96
   1  -9   5   20.75    4.08
  -1  -9   5   24.33    4.65
   3  -9   5   17.78    3.74
  -3  -9   5   22.69    4.82
   0 -10   5    9.73    3.75
   2 -10   5   20.64    4.61
  -2 -10   5   16.60    4.72
   4 -10   5    0.47    2.69
   1 -11   5   37.28    6.29
  -1 -11   5   39.28    6.69
   0   0   6   88.32    4.31
  -2   0   6   21.16    2.97
   2   0   6   21.36    2.21
  -4   0   6  155.47    7.78
   4   0   6  143.73    4.90
   4   0   6  146.27    5.07
   6   0   6    1.16    1.51
   6   0   6    0.40    1.21
   8   0   6   95.66    5.43
  -1   1   6   42.62    4.06
   1  -1   6   49.61    2.84
   1   1   6   47.60    3.18
  -1  -1   6   43.57    3.81
   3  -1   6    2.83    0.86
  -3   1   6   -0.55    1.43
  -3  -1   6    5.41    1.98
   3   1   6    3.07    1.21
  -5   1   6   26.94    4.45
   5  -1   6   26.01    2.14
   5  -1   6   25.37    2.03
   5   1   6   22.96    2.72
  -5  -1   6   24.81    4.43
   5   1   6   28.28    3.13
   7  -1   6   27.86    2.87
   7  -1   6   30.35    3.20
   7   1   6   24.18    3.32
   9   1   6    1.62    2.43
   0  -2   6   36.43    2.97
   0   2   6   47.11    4.08
  -2   2   6    8.52    2.39
   2  -2   6   12.15    1.22
   2   2   6   13.75    2.26
  -2  -2   6   13.43    2.36
  -4   2   6    0.81    2.01
   4   2   6   -0.51    1.09
  -4  -2   6    0.88    1.70
   6  -2   6   58.60    2.96
   6  -2   6   56.25    2.70
   6   2   6   60.42    4.90
   8  -2   6    2.71    1.98
   8   2   6    6.51    2.48
   1  -3   6   51.80    2.83
  -1   3   6   46.68    4.49
  -1  -3   6   58.44    3.63
   1   3   6   55.19    4.61
  -1  -3   6   59.84    3.63
  -3   3   6  151.16    7.68
  -3  -3   6  161.20    7.32
   3   3   6  144.78    6.56
  -5  -3   6    7.46    2.86
   5   3   6   14.14    2.64
   7  -3   6   41.69    3.19
   7   3   6   42.81    4.85
   9   3   6   39.05    5.60
   0  -4   6  138.79    5.69
   0  -4   6  143.06    5.50
   0   4   6  131.54    6.62
   2  -4   6    7.87    1.28
   2  -4   6    5.62    1.35
  -2   4   6   12.50    2.81
  -2  -4   6    8.34    2.22
  -2  -4   6    5.66    1.94
   2   4   6    5.30    1.94
  -4   4   6   23.18    4.02
  -4  -4   6   29.91    4.19
   4   4   6   19.60    3.25
   6  -4   6   19.64    2.11
   6   4   6   14.39    3.11
   8  -4   6   -2.18    1.71
   8   4   6    3.27    2.43
  -1   5   6   28.20    3.99
   1  -5   6   22.50    2.47
   1  -5   6   26.21    2.94
  -1  -5   6   24.01    3.14
  -1  -5   6   30.12    3.74
   1   5   6   24.79    3.69
  -3   5   6   11.58    3.14
   3  -5   6   13.07    1.70
   3  -5   6    9.76    1.80
   3   5   6    7.85    2.49
  -3  -5   6    7.89    2.60
   5  -5   6   65.66    3.23
  -5  -5   6   61.34    6.60
   5   5   6   77.64    6.69
   7  -5   6    0.31    1.93
   7   5   6    1.32    2.52
   0  -6   6   10.81    2.36
   0  -6   6    9.65    2.34
   0   6   6   11.53    2.80
   2  -6   6  218.18    7.37
  -2   6   6  221.76   10.03
   2  -6   6  214.02    7.99
  -2  -6   6  205.63    9.29
   2   6   6  217.40    9.71
   4  -6   6    2.72    1.54
   4   6   6    2.41    2.27
  -4  -6   6    4.19    2.49
   6  -6   6   30.22    3.26
   6   6   6   34.06    5.10
   8   6   6   27.80    5.12
   1  -7   6   40.63    4.58
  -1   7   6   43.00    5.47
   1   7   6   46.66    5.66
  -1  -7   6   48.47    5.22
   3  -7   6    5.05    2.07
   3  -7   6    4.36    2.02
  -3  -7   6    2.39    2.31
   3   7   6    6.39    2.79
   5  -7   6   86.90    5.07
  -5  -7   6   94.19    9.00
   5   7   6   84.51    7.78
   7   7   6    3.49    3.04
   0  -8   6   88.84    7.20
   2  -8   6    5.40    2.46
  -2  -8   6    6.24    2.90
   2   8   6   12.36    3.50
   4  -8   6   21.17    3.73
   4   8   6   21.87    4.42
  -4  -8   6   34.84    5.85
   6   8   6    5.76    3.61
   1  -9   6   10.78    3.47
  -1  -9   6   12.51    3.50
   3  -9   6   69.08    6.59
  -3  -9   6   73.02    8.30
   5  -9   6    1.96    2.67
   0 -10   6   30.42    5.24
   2 -10   6    1.24    2.94
  -2 -10   6   -0.89    3.20
   4 -10   6    1.75    2.89
   1 -11   6    0.89    3.34
  -1 -11   6    2.99    3.30
   0   0   7    1.07    1.22
  -2   0   7    0.40    1.39
   2   0   7   -0.63    0.94
  -4   0   7    0.83    1.85
   4   0   7    1.24    0.99
   6   0   7    0.12    1.51
   6   0   7   -0.02    1.23
   8   0   7   -0.19    1.72
  -1   1   7  195.71    7.80
   1  -1   7  182.96    6.42
  -1  -1   7  188.76    7.56
   1   1   7  175.64    6.99
  -3   1   7  184.14    8.47
   3  -1   7  170.69    5.26
  -3  -1   7  172.17    8.28
   3   1   7  167.64    6.33
  -5   1   7  151.01    8.97
   5  -1   7  165.58    5.16
   5  -1   7  164.71    5.28
  -5  -1   7  165.56    9.28
   5   1   7  165.15    6.51
   7  -1   7   49.62    3.38
   7  -1   7   53.12    4.19
   7   1   7   51.30    4.71
   9  -1   7   94.89    5.49
   9   1   7   78.79    6.73
   0  -2   7   18.42    2.45
   0   2   7   17.27    2.80
   2  -2   7  250.85    6.83
  -2   2   7  249.85   10.04
   2   2   7  275.26    8.98
  -2  -2   7  254.35    9.48
  -4   2   7   45.30    5.53
  -4  -2   7   52.46    5.80
   4   2   7   52.11    4.44
   6  -2   7   93.90    3.67
   6  -2   7   98.58    3.53
   6   2   7   96.16    5.51
   8  -2   7   31.59    3.43
   8   2   7   28.46    4.26
  -1   3   7    2.67    1.73
   1  -3   7    3.46    1.18
  -1  -3   7    2.13    1.35
   1   3   7    2.31    1.61
  -1  -3   7    2.48    1.42
   3  -3   7   12.97    1.27
  -3   3   7   10.17    2.94
   3   3   7   15.01    2.77
  -3  -3   7    6.18    2.32
  -5  -3   7    1.33    2.55
   5   3   7    3.91    1.94
   7  -3   7   32.03    2.67
   7   3   7   26.95    4.06
   9   3   7    8.03    3.29
   0  -4   7  310.55    9.73
   0  -4   7  307.90    9.47
   0   4   7  337.70   11.59
   2  -4   7   54.43    2.96
   2  -4   7   50.79    2.70
  -2   4   7   44.63    5.11
  -2  -4   7   52.74    4.99
   2   4   7   46.00    4.88
  -4   4   7  252.20   11.22
   4   4   7  240.66    9.83
  -4  -4   7  236.09   10.51
   6   4   7   44.63    5.16
   8  -4   7   86.32    4.40
   8   4   7   86.55    7.66
  -1   5   7   58.65    6.03
   1  -5   7   53.89    3.74
   1  -5   7   62.05    3.67
   1   5   7   57.53    5.80
  -1  -5   7   68.87    5.52
  -3   5   7  111.55    7.62
   3  -5   7  123.78    4.50
   3  -5   7  125.52    4.86
   3   5   7  116.32    6.99
  -3  -5   7  120.26    7.06
   5  -5   7   26.33    2.17
   5   5   7   19.45    3.70
  -5  -5   7   30.63    5.14
   7  -5   7   52.72    3.87
   7   5   7   68.26    7.04
   0   6   7   11.50    3.23
   0  -6   7   16.26    2.99
   2  -6   7   26.97    2.98
   2  -6   7   22.03    2.93
  -2   6   7   26.19    4.54
  -2  -6   7   21.23    3.83
   2   6   7   26.61    4.34
   4  -6   7    2.98    1.67
   4  -6   7    3.27    1.62
   4   6   7    3.02    2.49
  -4  -6   7    3.32    2.43
   6  -6   7   12.91    2.34
   6   6   7   16.05    3.99
   1  -7   7   86.17    5.56
   1   7   7   94.74    8.10
  -1  -7   7   92.36    6.20
   3  -7   7   86.34    5.05
   3  -7   7   93.09    5.36
   3   7   7   88.29    8.34
  -3  -7   7   86.66    7.97
   5  -7   7   59.50    4.68
   5  -7   7   54.81    4.70
   5   7   7   63.98    7.15
  -5  -7   7   48.27    6.85
   7   7   7   50.48    6.88
   0  -8   7   47.38    5.46
   2  -8   7    6.76    2.40
  -2  -8   7    6.57    2.91
   2   8   7    7.33    3.48
   4  -8   7   52.02    5.16
  -4  -8   7   46.07    6.61
   4   8   7   48.07    6.52
   6   8   7   11.11    4.27
   1  -9   7   11.44    3.30
  -1  -9   7   20.69    4.54
   3  -9   7    1.81    2.42
  -3  -9   7   -0.35    2.91
   5  -9   7   20.56    3.85
   0 -10   7   12.33    3.94
   2 -10   7  110.21    8.96
  -2 -10   7   92.66    9.12
   0   0   8  246.27    8.80
   2   0   8    9.96    1.98
  -2   0   8    6.25    2.08
  -4   0   8  116.46    7.09
   4   0   8  105.08    4.72
   6   0   8    6.19    1.83
   8   0   8    1.21    1.82
  -1   1   8    3.17    1.73
   1  -1   8   -0.41    1.01
   1   1   8   -0.18    1.33
  -1  -1   8    0.61    1.47
  -3   1   8   84.48    7.12
   3  -1   8   89.24    3.97
   3   1   8   81.48    4.52
  -3  -1   8   93.07    6.26
  -5   1   8   23.25    4.37
   5  -1   8   21.44    2.20
  -5  -1   8   18.94    4.15
   5   1   8   24.41    2.98
   7  -1   8   32.94    3.42
   7  -1   8   33.49    3.20
   7   1   8   26.10    3.50
   9  -1   8   -2.91    1.81
   9   1   8    2.98    2.56
   0   2   8   37.42    4.33
   0  -2   8   42.82    3.88
  -2   2   8   67.43    6.28
   2  -2   8   61.97    3.42
  -2  -2   8   64.89    5.70
   2   2   8   73.73    4.75
  -4   2   8   -0.50    2.13
   4  -2   8    0.43    0.89
   4   2   8   -0.88    1.42
  -4  -2   8    0.57    2.08
   6  -2   8    0.32    0.92
   6  -2   8   -0.16    1.08
   6   2   8    0.81    1.69
   8  -2   8    8.64    2.29
   8  -2   8    5.83    1.84
   8   2   8   11.80    3.07
  -1   3   8   40.50    4.88
   1  -3   8   38.51    3.34
  -1  -3   8   39.74    3.95
   1   3   8   40.05    4.44
   3  -3   8    1.17    0.93
  -3   3   8   -0.33    2.05
  -3  -3   8    1.63    1.83
   3   3   8    1.31    1.79
   5   3   8   60.07    5.57
  -5  -3   8   48.32    6.23
   7   3   8    0.57    1.99
   0   4   8    0.29    1.74
   0  -4   8   -1.51    1.14
   0  -4   8    0.56    1.43
  -2   4   8   25.40    4.12
   2  -4   8   32.13    2.92
   2  -4   8   35.74    2.91
   2   4   8   38.91    4.65
  -2  -4   8   34.30    4.31
  -4  -4   8   40.77    5.47
   4   4   8   36.36    4.58
   6   4   8   -1.82    1.95
   8   4   8   43.85    5.78
  -1   5   8   -2.29    1.81
   1  -5   8    1.04    1.33
   1  -5   8   -0.13    1.27
   1   5   8    2.63    2.07
  -1  -5   8   -0.14    1.55
  -3   5   8    2.94    2.87
   3  -5   8   10.36    1.80
   3  -5   8    7.51    1.58
   3   5   8    8.75    2.84
  -3  -5   8    4.83    2.40
   5   5   8   -1.63    2.03
  -5  -5   8    0.66    2.73
   7   5   8    1.02    2.56
   0   6   8   16.65    3.74
   0  -6   8    9.20    2.51
   2  -6   8   44.73    4.06
  -2   6   8   52.71    6.50
   2  -6   8   46.19    4.03
  -2  -6   8   46.06    5.34
   2   6   8   38.52    5.31
   4  -6   8    1.59    1.55
   4  -6   8    0.62    1.40
   4   6   8   -2.06    2.27
  -4  -6   8    1.58    2.64
   6  -6   8   64.49    3.55
   6  -6   8   60.64    3.51
   6   6   8   63.57    7.01
   1  -7   8    8.30    2.53
   1   7   8    9.59    3.47
  -1  -7   8    6.53    2.78
   3  -7   8   30.29    3.56
   3   7   8   26.96    5.12
  -3  -7   8   37.82    5.71
   5  -7   8    8.67    2.20
   5  -7   8   10.18    2.29
   5   7   8    4.73    3.31
  -5  -7   8    7.79    4.02
   0  -8   8    4.18    2.56
   2  -8   8    0.31    1.84
  -2  -8   8   -1.68    2.34
   2   8   8    3.99    3.36
   4  -8   8    6.84    2.52
  -4  -8   8   -0.22    3.17
   4   8   8   -0.58    2.94
   1  -9   8   31.90    4.81
  -1  -9   8   39.28    5.69
   3  -9   8    7.25    2.87
  -3  -9   8   -0.22    3.25
   0 -10   8   -1.66    2.61
   2 -10   8   41.56    5.65
  -2 -10   8   55.45    7.42
   0   0   9    1.39    1.58
  -2   0   9   -0.84    1.42
   2   0   9   -1.46    1.25
  -4   0   9    1.27    2.01
   4   0   9    1.16    1.27
   6   0   9   -0.02    1.50
   8   0   9    0.40    1.96
   1  -1   9    8.38    1.91
  -1   1   9    3.82    1.90
  -1  -1   9    6.04    2.15
   1   1   9    6.62    2.11
  -3   1   9    0.02    1.97
   3  -1   9    1.21    1.27
  -3  -1   9    2.04    2.10
   3   1   9    0.10    1.33
  -5   1   9    9.51    3.34
   5  -1   9    7.55    1.60
  -5  -1   9    6.95    3.14
   5   1   9    6.73    2.21
   7  -1   9   -0.70    1.39
   7   1   9    1.82    1.73
   0   2   9    0.21    1.57
   0  -2   9    0.48    1.42
  -2   2   9   55.57    6.03
   2  -2   9   61.12    3.78
   2   2   9   60.27    5.41
  -2  -2   9   57.10    5.72
   4  -2   9   -0.14    1.01
  -4   2   9   -0.11    2.46
  -4  -2   9    3.06    2.46
   4   2   9   -0.62    1.61
   6  -2   9   31.60    2.40
   6   2   9   38.73    4.48
   8  -2   9    0.14    1.51
   8   2   9   -2.04    2.19
   1  -3   9    6.28    1.71
  -1   3   9    5.65    2.49
  -1  -3   9    6.16    2.19
   1   3   9    6.66    2.42
   3  -3   9    2.89    1.25
  -3   3   9    0.53    2.02
   3   3   9    3.08    2.05
  -3  -3   9    0.33    1.85
   5   3   9   17.14    3.50
  -5  -3   9   19.32    4.67
   7   3   9    4.04    2.73
   0  -4   9   48.13    4.55
   0  -4   9   46.26    4.40
   0   4   9   47.12    5.57
   2  -4   9    8.37    1.80
  -2   4   9    6.83    2.89
   2  -4   9   14.40    2.24
   2   4   9    8.57    2.92
  -2  -4   9    4.94    2.37
   4  -4   9   22.29    1.85
   4  -4   9   22.88    2.00
   4   4   9   22.41    4.03
  -4  -4   9   21.51    4.66
   6   4   9    0.02    2.32
   8   4   9    5.41    3.33
   1  -5   9   16.03    2.63
  -1   5   9    8.40    3.23
   1  -5   9   14.00    2.50
   1   5   9   15.58    3.78
  -1  -5   9   11.25    2.74
   3  -5   9   23.38    2.49
   3  -5   9   24.50    2.61
  -3  -5   9   17.50    3.94
   3   5   9   21.64    4.37
   5   5   9    2.94    2.90
  -5  -5   9    5.34    3.48
   7   5   9   21.87    4.47
   0   6   9   28.26    4.84
   0  -6   9   26.81    3.82
   2  -6   9    2.32    1.82
  -2  -6   9    3.73    2.34
   2   6   9    4.88    2.97
   4  -6   9   11.67    2.04
   4  -6   9   11.95    2.01
   4   6   9   20.09    4.41
  -4  -6   9   10.89    3.62
   6   6   9    9.96    3.70
   1  -7   9    3.01    2.10
  -1  -7   9    3.14    2.59
   1   7   9    5.99    3.36
   3  -7   9    1.04    1.74
  -3  -7   9    5.92    3.09
   3   7   9    1.79    2.89
   5  -7   9    0.54    1.60
   5  -7   9    0.47    1.83
   5   7   9   -1.80    2.83
  -5  -7   9    0.50    3.55
   0  -8   9   54.39    5.87
   2  -8   9    3.34    2.37
  -2  -8   9    5.55    3.07
   2   8   9    4.69    3.59
   4  -8   9   40.32    4.18
  -4  -8   9   42.37    6.67
   4   8   9   38.26    6.60
   1  -9   9   10.00    3.32
  -1  -9   9    5.31    3.06
   3  -9   9   10.28    3.03
  -3  -9   9   22.84    5.49
   0   0  10  206.69    8.75
  -2   0  10   65.01    6.13
   2   0  10   63.03    5.22
  -4   0  10  178.84    9.64
   4   0  10  177.99    7.19
   6   0  10   22.53    3.16
   8   0  10  114.60    6.28
   1  -1  10   49.96    4.44
  -1   1  10   39.12    4.72
  -1  -1  10   34.37    4.18
   1   1  10   40.47    4.55
   3  -1  10    8.85    2.10
  -3   1  10    1.37    2.26
  -3  -1  10    6.72    2.64
   3   1  10    6.11    2.22
   5  -1  10   22.09    2.65
  -5   1  10   18.78    4.23
   5   1  10   18.07    3.12
  -5  -1  10   15.31    3.94
   7  -1  10   36.71    3.44
   7   1  10   40.62    4.50
   0   2  10   57.91    5.97
   0  -2  10   61.82    5.55
  -2   2  10   38.62    5.23
   2  -2  10   35.54    3.44
  -2  -2  10   38.01    5.06
   2   2  10   31.39    4.28
  -4   2  10    6.47    3.29
   4  -2  10    9.93    1.86
  -4  -2  10    8.54    3.28
   4   2  10    9.75    2.78
   6  -2  10   87.45    3.83
   6   2  10   73.59    6.43
   8  -2  10    2.72    1.63
   8   2  10    1.70    2.51
   1  -3  10   86.77    5.36
  -1   3  10  103.77    7.04
   1   3  10   99.41    6.69
  -1  -3  10   99.54    6.39
  -3   3  10  137.20    8.92
   3  -3  10  142.84    5.77
  -3  -3  10  152.70    8.88
   3   3  10  150.89    8.26
  -5  -3  10   38.20    6.26
   5   3  10   42.72    5.19
   7   3  10   69.02    6.70
   0  -4  10   83.36    5.45
   0   4  10   77.61    7.50
   2  -4  10    5.35    1.82
   2  -4  10    3.32    1.65
  -2   4  10    0.37    2.05
   2   4  10    0.71    2.31
  -2  -4  10    4.68    2.40
   4  -4  10    8.98    1.68
   4  -4  10   10.69    1.81
  -4  -4  10   18.11    4.46
   4   4  10   11.75    3.47
   6   4  10   19.98    4.39
  -1   5  10   69.26    7.39
   1  -5  10   62.93    5.25
  -1  -5  10   68.81    6.37
   1   5  10   61.89    7.09
   3  -5  10    2.83    1.53
   3  -5  10    6.49    1.91
  -3  -5  10    2.09    2.67
   3   5  10    6.36    3.02
  -5  -5  10   90.86    9.62
   5   5  10   88.94    8.45
   0  -6  10    1.65    2.19
   0   6  10    2.72    2.95
   2  -6  10  196.69    7.96
  -2  -6  10  187.28    9.86
   2   6  10  209.74   11.33
   4  -6  10   15.75    2.41
   4  -6  10   16.88    2.44
   4   6  10   20.10    4.72
  -4  -6  10   20.21    4.62
   6   6  10   44.37    6.31
   1  -7  10   11.14    3.00
   1   7  10   13.87    4.60
  -1  -7  10   22.26    4.26
   3  -7  10    9.52    2.41
  -3  -7  10    9.63    3.94
   3   7  10    7.67    3.71
   5  -7  10   35.80    3.28
   5  -7  10   36.64    3.58
  -5  -7  10   32.50    6.43
   5   7  10   40.65    6.84
   0  -8  10   95.72    7.76
   2  -8  10   -0.11    1.97
  -2  -8  10    0.74    2.82
   2   8  10    7.41    4.05
   4  -8  10   52.52    4.65
   4   8  10   55.73    8.16
  -4  -8  10   54.83    7.90
   1  -9  10   16.80    3.81
  -1  -9  10   21.97    4.65
   0   0  11    1.95    1.96
   2   0  11   -1.24    1.51
  -2   0  11   -1.68    1.81
   4   0  11    0.06    1.65
  -4   0  11    0.36    2.50
   6   0  11   -1.91    1.69
  -1   1  11   60.25    6.18
   1  -1  11   57.37    5.19
  -1  -1  11   52.58    5.36
   1   1  11   53.56    5.51
  -3   1  11   41.69    5.46
   3  -1  11   31.94    3.68
   3   1  11   34.41    4.30
  -3  -1  11   29.58    4.64
   5  -1  11   46.86    4.05
   5   1  11   50.71    5.10
  -5  -1  11   64.79    7.46
   7  -1  11   15.64    2.58
   7   1  11   18.59    3.42
   0   2  11    3.55    2.30
   0  -2  11    5.40    2.36
   2  -2  11   89.27    5.00
  -2   2  11   87.80    8.06
   2   2  11   87.49    7.24
  -2  -2  11   94.15    8.04
  -4   2  11    1.35    2.73
   4  -2  11    7.58    1.93
  -4  -2  11    8.56    3.40
   4   2  11    2.65    2.32
   6  -2  11   53.30    3.29
   6   2  11   52.76    5.79
  -1   3  11    2.81    2.45
   1  -3  11    2.42    2.05
  -1  -3  11    1.77    2.45
   1   3  11    2.15    2.37
  -3   3  11    0.85    2.76
   3  -3  11    3.24    1.63
  -3  -3  11    3.25    3.01
   3   3  11    6.28    2.97
   5  -3  11    3.24    1.43
  -5  -3  11    5.20    3.72
   5   3  11    1.51    2.46
   7   3  11   13.41    3.76
   0   4  11  101.32    9.03
   0  -4  11  120.78    6.97
  -2   4  11    9.46    3.59
   2  -4  11    6.11    2.30
  -2  -4  11   10.42    3.30
   2   4  11    1.71    2.71
   4  -4  11   77.91    3.90
   4  -4  11   79.87    3.94
   4   4  11   86.01    8.14
  -4  -4  11   77.11    8.58
   6   4  11    6.22    3.35
  -1   5  11   31.02    5.64
   1  -5  11   35.30    4.30
   1   5  11   30.19    5.59
  -1  -5  11   34.53    4.97
   3  -5  11   42.14    3.86
   3  -5  11   38.90    3.83
  -3  -5  11   48.37    6.52
   3   5  11   41.77    6.03
  -5  -5  11    9.21    4.60
   5   5  11   15.99    4.40
   0  -6  11   -0.81    2.14
   0   6  11   -2.12    2.80
   2  -6  11    1.76    2.02
   2   6  11    0.76    3.08
  -2  -6  11    5.27    3.10
   4  -6  11    0.57    1.63
   4  -6  11    0.07    1.62
   4   6  11    0.75    2.85
  -4  -6  11    1.46    3.53
   1  -7  11   30.20    4.36
   1   7  11   34.69    6.47
  -1  -7  11   25.90    4.61
   3  -7  11   24.69    3.49
  -3  -7  11   24.87    5.20
   3   7  11   19.42    5.13
   0  -8  11   51.36    6.23
   2  -8  11    0.40    2.33
   2   8  11   -2.22    4.04
  -2  -8  11    0.95    3.06
   0   0  12   53.65    5.65
   2   0  12   22.26    3.59
  -2   0  12   29.63    4.62
  -4   0  12   16.02    4.28
   4   0  12   20.77    3.43
   6   0  12    0.15    2.14
  -1   1  12   -2.09    2.00
   1  -1  12   -0.45    1.88
   1   1  12   -1.95    1.83
  -1  -1  12    2.46    2.09
   3  -1  12   31.50    3.86
  -3   1  12   24.04    4.67
  -3  -1  12   21.59    4.23
   3   1  12   30.84    4.41
   5  -1  12    8.50    2.41
  -5  -1  12   12.24    4.23
   5   1  12    8.28    2.69
   0   2  12   22.73    4.26
   0  -2  12   37.31    4.56
  -2   2  12   13.64    3.82
   2  -2  12   16.31    3.04
  -2  -2  12   12.73    3.66
   2   2  12   17.48    3.76
  -4   2  12    7.26    3.89
   4  -2  12    1.75    1.70
  -4  -2  12    1.92    2.83
   4   2  12    1.93    2.38
   6  -2  12    0.85    1.63
   6   2  12   -2.14    2.39
  -1   3  12    4.35    2.99
   1  -3  12    5.88    2.51
  -1  -3  12    3.93    2.54
   1   3  12    2.13    2.53
  -3   3  12   -1.42    2.68
   3  -3  12    1.72    1.62
  -3  -3  12   -1.62    2.41
   3   3  12   -2.73    2.36
   5  -3  12   10.52    1.94
   5   3  12    6.67    3.01
  -5  -3  12   11.72    4.53
   0   4  12   -1.52    2.52
   0  -4  12    2.72    2.59
   2  -4  12   13.29    2.97
  -2   4  12    7.82    3.63
   2   4  12   13.73    4.17
  -2  -4  12   11.60    3.86
   4  -4  12   19.59    2.62
   4  -4  12   19.24    2.76
   4   4  12   10.28    3.66
  -4  -4  12   21.35    5.40
   1  -5  12    3.17    2.44
  -1   5  12    3.42    3.57
   1   5  12    3.64    3.43
  -1  -5  12    3.99    2.85
   3  -5  12    1.88    2.06
  -3  -5  12   -1.12    3.08
   3   5  12   -0.67    3.03
   5   5  12    4.78    3.76
  -5  -5  12    4.22    4.51
   0  -6  12    1.19    2.41
   0   6  12    2.35    3.78
   2  -6  12   14.47    3.14
  -2  -6  12   22.40    4.82
   2   6  12    6.33    4.05
   4  -6  12    1.50    1.99
   4   6  12    5.99    3.95
  -4  -6  12    0.96    4.01
   1  -7  12    8.00    3.04
  -1  -7  12   14.55    3.97
   1   7  12    2.21    4.23
   0   0  13    3.80    2.56
   2   0  13   -0.58    1.82
  -2   0  13   -0.76    2.28
   4   0  13   -0.60    2.01
  -4   0  13   -0.90    2.70
  -1   1  13   28.35    4.79
   1  -1  13   24.69    3.92
   1   1  13   15.77    3.69
  -1  -1  13   32.14    4.97
  -3   1  13   18.09    4.40
   3  -1  13   17.07    3.19
  -3  -1  13   25.16    5.09
   3   1  13   20.78    3.93
   5  -1  13   31.95    4.06
   5   1  13   29.08    4.51
   0   2  13    4.66    2.68
   0  -2  13    3.18    2.44
   2  -2  13   68.45    5.70
  -2   2  13   78.40    7.93
   2   2  13   60.17    6.52
  -2  -2  13   62.61    6.80
   4  -2  13    6.62    2.33
  -4  -2  13   10.38    4.04
   4   2  13    7.55    3.25
   1  -3  13    0.54    1.90
  -1   3  13   -2.42    2.63
   1   3  13    0.62    2.67
  -1  -3  13    4.31    2.92
  -3   3  13    0.50    3.13
   3  -3  13    2.15    1.95
  -3  -3  13    4.01    3.48
   3   3  13    1.39    3.05
   5  -3  13    3.02    1.55
   5   3  13    6.11    3.43
  -5  -3  13    3.07    3.90
   0  -4  13   66.54    7.08
   0   4  13   69.14    7.97
   2  -4  13    4.55    2.50
  -2   4  13    5.00    3.76
  -2  -4  13    1.58    2.87
   2   4  13    3.03    3.47
   4  -4  13   50.09    4.12
   4   4  13   50.05    6.98
  -4  -4  13   51.94    8.01
  -1   5  13    7.42    4.07
   1  -5  13    6.17    3.06
  -1  -5  13   19.63    4.71
   1   5  13    9.88    4.42
   3  -5  13   32.82    4.16
  -3  -5  13   29.06    6.10
   3   5  13   29.47    5.99
   0   6  13    1.02    3.97
   0  -6  13    1.94    3.08
   2  -6  13   -0.51    2.53
   2   6  13    0.69    3.77
  -2  -6  13   -2.23    3.34
   0   0  14  135.61    8.50
   2   0  14   43.01    5.15
  -2   0  14   42.71    5.96
   4   0  14  104.74    6.82
  -4   0  14   87.26    8.85
   1  -1  14   16.34    3.56
  -1   1  14   14.18    3.84
   1   1  14   18.48    3.90
  -1  -1  14   21.00    4.31
  -3   1  14   10.09    3.80
   3  -1  14    6.00    2.43
   3   1  14    8.92    3.39
  -3  -1  14    3.32    3.26
   0  -2  14   21.88    4.27
   0   2  14   24.60    4.68
  -2   2  14   31.32    5.80
   2  -2  14   29.28    4.22
   2   2  14   25.84    4.87
  -2  -2  14   18.99    4.14
   4  -2  14    7.37    2.33
   4   2  14    3.77    3.31
  -4  -2  14   -0.92    3.09
  -1   3  14   49.73    6.80
   1  -3  14   58.30    5.89
   1   3  14   52.12    6.89
  -1  -3  14   49.69    6.10
  -3   3  14   69.36    8.37
   3  -3  14   72.51    5.73
   3   3  14   67.35    7.53
  -3  -3  14   73.35    8.41
   0  -4  14   34.72    5.42
   0   4  14   40.74    6.51
  -2   4  14   -3.03    3.42
   2  -4  14    1.63    2.15
  -2  -4  14    6.36    3.67
   2   4  14   -0.92    3.00
   1  -5  14   46.74    6.05
  -1  -5  14   42.75    6.62
   0   0  15    2.23    2.96
  -2   0  15   -1.00    2.93
   2   0  15    1.55    2.57
  -1   1  15   11.46    4.17
   1  -1  15    6.72    3.32
   1   1  15    4.20    3.12
  -1  -1  15    0.58    2.84
   0   2  15   -2.02    2.54
   0  -2  15   -1.04    2.57
   0   0   0    0.00    0.00
;
_shelx_hkl_checksum              42530
loop_
_space_group_symop_operation_xyz
'x, y, z'
'-x, -y, z+1/2'
'-x, y, -z+1/2'
'x, -y, -z'
'x+1/2, y+1/2, z'
'-x+1/2, -y+1/2, z+1/2'
'-x+1/2, y+1/2, -z+1/2'
'x+1/2, -y+1/2, -z'
'-x, -y, -z'
'x, y, -z-1/2'
'x, -y, z-1/2'
'-x, y, z'
'-x+1/2, -y+1/2, -z'
'x+1/2, y+1/2, -z-1/2'
'x+1/2, -y+1/2, z-1/2'
'-x+1/2, y+1/2, z'
loop_
_atom_site_label
_atom_site_type_symbol
_atom_site_fract_x
_atom_site_fract_y
_atom_site_fract_z
_atom_site_U_iso_or_equiv
_atom_site_adp_type
_atom_site_occupancy
_atom_site_site_symmetry_order
_atom_site_calc_flag
_atom_site_refinement_flags_posn
_atom_site_refinement_flags_adp
_atom_site_refinement_flags_occupancy
Pb1 Pb 0.0000 0.33496(9) 0.2500 0.0130(3) Uani 1 4 d S T P
Se1 Se 0.0000 0.31221(15) 0.54036(11) 0.0062(4) Uani 1 2 d S T P
Br1 Br 0.22773(18) 0.07717(17) 0.2500 0.0128(4) Uani 1 2 d S T P
Cu1 Cu 0.1862(2) 0.0000 0.5000 0.0100(5) Uani 1 2 d S T P
O1 O 0.1531(8) 0.3602(7) 0.4531(6) 0.0103(16) Uani 1 1 d . . .
O2 O 0.0000 0.1287(11) 0.5177(9) 0.012(2) Uani 1 2 d S TU P
loop_
_atom_site_aniso_label
_atom_site_aniso_U_11
_atom_site_aniso_U_22
_atom_site_aniso_U_33
_atom_site_aniso_U_23
_atom_site_aniso_U_13
_atom_site_aniso_U_12
Pb1 0.0179(6) 0.0095(5) 0.0114(4) 0.000 0.000 0.000
Se1 0.0045(8) 0.0047(8) 0.0095(7) -0.0006(5) 0.000 0.000
Br1 0.0121(9) 0.0134(9) 0.0128(7) 0.000 0.000 0.0047(7)
Cu1 0.0042(10) 0.0041(10) 0.0216(10) -0.0014(7) 0.000 0.000
O1 0.004(4) 0.007(4) 0.020(4) 0.002(3) 0.001(3) -0.003(3)
O2 0.008(5) 0.003(5) 0.025(5) -0.004(4) 0.000 0.000
loop_
_atom_type_symbol
_atom_type_description
_atom_type_scat_dispersion_real
_atom_type_scat_dispersion_imag
_atom_type_scat_source
O O 0.0106 0.0060 'International Tables Vol C Tables 4.2.6.8 and 6.1.1.4'
Se Se -0.0929 2.2259 'International Tables Vol C Tables 4.2.6.8 and 6.1.1.4'
Cu Cu 0.3201 1.2651 'International Tables Vol C Tables 4.2.6.8 and 6.1.1.4'
Pb Pb -3.3944 10.1111 'International Tables Vol C Tables 4.2.6.8 and 6.1.1.4'
Br Br -0.2901 2.4595 'International Tables Vol C Tables 4.2.6.8 and 6.1.1.4'
loop_
_geom_angle_atom_site_label_1
_geom_angle_atom_site_label_2
_geom_angle_atom_site_label_3
_geom_angle
_geom_angle_site_symmetry_1
_geom_angle_site_symmetry_3
O1 Pb1 O1 123.8(3) 3 12
O1 Pb1 O1 55.1(3) 3 10_556
O1 Pb1 O1 170.2(3) 12 10_556
O1 Pb1 O1 170.2(3) 3 .
O1 Pb1 O1 55.1(3) 12 .
O1 Pb1 O1 123.8(3) 10_556 .
O1 Pb1 Br1 110.70(15) 3 .
O1 Pb1 Br1 110.70(15) 12 .
O1 Pb1 Br1 77.38(15) 10_556 .
O1 Pb1 Br1 77.38(15) . .
O1 Pb1 Br1 77.38(15) 3 3
O1 Pb1 Br1 77.38(15) 12 3
O1 Pb1 Br1 110.70(15) 10_556 3
O1 Pb1 Br1 110.70(15) . 3
Br1 Pb1 Br1 76.32(10) . 3
O1 Pb1 Br1 105.46(15) 3 7
O1 Pb1 Br1 105.46(15) 12 7
O1 Pb1 Br1 67.18(15) 10_556 7
O1 Pb1 Br1 67.18(15) . 7
Br1 Pb1 Br1 96.85(8) . 7
Br1 Pb1 Br1 173.17(6) 3 7
O1 Pb1 Br1 67.18(15) 3 5_455
O1 Pb1 Br1 67.18(15) 12 5_455
O1 Pb1 Br1 105.46(15) 10_556 5_455
O1 Pb1 Br1 105.46(15) . 5_455
Br1 Pb1 Br1 173.16(6) . 5_455
Br1 Pb1 Br1 96.85(8) 3 5_455
Br1 Pb1 Br1 89.99(10) 7 5_455
O1 Se1 O1 96.5(5) 12 .
O1 Se1 O2 99.5(3) 12 .
O1 Se1 O2 99.5(3) . .
Pb1 Br1 Pb1 173.16(6) . 5_545
O1 Cu1 O1 93.6(4) 13_556 16_545
O1 Cu1 O2 95.6(3) 13_556 .
O1 Cu1 O2 167.7(3) 16_545 .
O1 Cu1 O2 167.7(3) 13_556 9_556
O1 Cu1 O2 95.6(3) 16_545 9_556
O2 Cu1 O2 76.5(5) . 9_556
Se1 O1 Cu1 120.8(4) . 13_556
Se1 O1 Pb1 99.9(3) . .
Cu1 O1 Pb1 128.9(3) 13_556 .
Se1 O2 Cu1 128.3(2) . 9_556
Se1 O2 Cu1 128.3(2) . .
Cu1 O2 Cu1 103.5(5) 9_556 .
loop_
_geom_bond_atom_site_label_1
_geom_bond_atom_site_label_2
_geom_bond_distance
_geom_bond_site_symmetry_2
Pb1 O1 2.737(7) 3
Pb1 O1 2.737(7) 12
Pb1 O1 2.737(7) 10_556
Pb1 O1 2.737(7) .
Pb1 Br1 3.050(3) .
Pb1 Br1 3.050(3) 3
Pb1 Br1 3.187(3) 7
Pb1 Br1 3.187(3) 5_455
Se1 O1 1.697(7) 12
Se1 O1 1.697(7) .
Se1 O2 1.728(10) .
Br1 Pb1 3.187(3) 5_545
Cu1 O1 1.942(7) 13_556
Cu1 O1 1.942(7) 16_545
Cu1 O2 1.963(7) .
Cu1 O2 1.963(7) 9_556
O1 Cu1 1.942(7) 13_556
O2 Cu1 1.963(7) 9_556

_cod_database_fobs_code 2108342
