#------------------------------------------------------------------------------
#$Date: 2020-11-24 07:09:22 +0200 (Tue, 24 Nov 2020) $
#$Revision: 259225 $
#$URL: file:///home/coder/svn-repositories/cod/cif/2/10/87/2108702.cif $
#------------------------------------------------------------------------------
#
# This file is available in the Crystallography Open Database (COD),
# http://www.crystallography.net/. The original data for this entry
# were provided by IUCr Journals, http://journals.iucr.org/.
#
# The file may be used within the scientific community so long as
# proper attribution is given to the journal article from which the
# data were obtained.
#
data_2108702
loop_
_publ_author_name
'Poddig, Hagen'
'Doert, Thomas'
_publ_section_title
;
 Distorted Te nets in the modulated crystal structures of
 <i>RE</i>Te~1.94(1)~ (<i>RE</i> = La, Pr, Nd)
;
_journal_coeditor_code           DK5100SUP1
_journal_issue                   6
_journal_name_full               'Acta Crystallographica Section B'
_journal_page_first
;
;
_journal_paper_doi               10.1107/S2052520620013797
_journal_volume                  76
_journal_year                    2020
_chemical_formula_sum            'Nd Te1.923'
_chemical_formula_weight         389.87
_chemical_name_systematic        'Neodymium telluride (1/1.923)'
_space_group_crystal_system      tetragonal
_space_group_IT_number           129
_space_group_name_Hall           'P 4ab 2ab -1ab'
_space_group_name_H-M_alt        'P 4/n m m :1'
_atom_sites_solution_primary     dual
_atom_sites_solution_secondary   difmap
_cell_angle_alpha                90
_cell_angle_beta                 90
_cell_angle_gamma                90
_cell_formula_units_Z            2
_cell_length_a                   4.4274(6)
_cell_length_b                   4.4274(6)
_cell_length_c                   9.029(1)
_cell_measurement_reflns_used    2525
_cell_measurement_temperature    296(1)
_cell_measurement_theta_max      27.49
_cell_measurement_theta_min      1.88
_cell_volume                     176.99(4)
_computing_cell_refinement       'STOE X-AREA'
_computing_data_collection       'STOE X-AREA'
_computing_data_reduction        'STOE X-RED'
_computing_publication_material
'DIAMOND v. 4.5.2 (Brandenburg, Germany, 2018)'
_computing_structure_refinement  'Jana2006, 25/10/2015'
_computing_structure_solution    Superflip
_diffrn_ambient_temperature      296(1)
_diffrn_detector                 'image plate (34 cm diameter)'
_diffrn_detector_area_resol_mean 6.67
_diffrn_measured_fraction_theta_full 0.975
_diffrn_measured_fraction_theta_max 0.980
_diffrn_measurement_device       'two-circle diffractometer'
_diffrn_measurement_device_type  'IPDS II, Stoe'
_diffrn_measurement_method       'rotation method'
_diffrn_radiation_monochromator  graphite
_diffrn_radiation_probe          x-ray
_diffrn_radiation_type           'Mo K\a'
_diffrn_radiation_wavelength     0.71073
_diffrn_reflns_av_R_equivalents  0.0562
_diffrn_reflns_av_unetI/netI     0.0253
_diffrn_reflns_limit_h_max       5
_diffrn_reflns_limit_h_min       -5
_diffrn_reflns_limit_k_max       5
_diffrn_reflns_limit_k_min       -5
_diffrn_reflns_limit_l_max       11
_diffrn_reflns_limit_l_min       -11
_diffrn_reflns_number            1617
_diffrn_reflns_theta_full        25.350
_diffrn_reflns_theta_max         27.598
_diffrn_reflns_theta_min         2.265
_diffrn_source
'sealed X-ray tube, 12 x 0.4 mm long-fine focus'
_exptl_absorpt_coefficient_mu    29.927
_exptl_absorpt_correction_T_max  0.4785
_exptl_absorpt_correction_T_min  0.0444
_exptl_absorpt_correction_type   numerical
_exptl_absorpt_process_details   'STOE X-RED32, v. 1.53'
_exptl_crystal_colour            black
_exptl_crystal_density_diffrn    7.256
_exptl_crystal_description       plate
_exptl_crystal_F_000             320
_exptl_crystal_size_max          0.3389
_exptl_crystal_size_mid          0.09080
_exptl_crystal_size_min          0.0071
_refine_diff_density_max         2.047
_refine_diff_density_min         -2.998
_refine_diff_density_rms         0.991
_refine_ls_extinction_coef       0.032(3)
_refine_ls_extinction_expression Fc^*^=kFc[1+0.001xFc^2^\l^3^/sin(2\q)]^-1/4^
_refine_ls_extinction_method     'SHELXL-2016/6 (Sheldrick 2016)'
_refine_ls_number_constraints    0
_refine_ls_number_parameters     11
_refine_ls_number_reflns         148
_refine_ls_number_restraints     0
_refine_ls_restrained_S_all      1.392
_refine_ls_R_factor_all          0.0237
_refine_ls_R_factor_gt           0.0237
_refine_ls_shift/su_max          0.0313
_refine_ls_shift/su_mean         0.0066
_refine_ls_structure_factor_coef Fsqd
_refine_ls_weighting_details
'w=1/[\s^2^(Fo^2^)+1.5789P] where P=(Fo^2^+2Fc^2^)/3'
_refine_ls_weighting_scheme      calc
_refine_ls_wR_factor_gt          0.0420
_refine_ls_wR_factor_ref         0.0420
_reflns_number_gt                147
_reflns_number_total             148
_reflns_threshold_expression     I>2\s(I)
_cod_data_source_file            dk5100sup1.cif
_cod_data_source_block           III
_cod_depositor_comments
;
The following automatic conversions were performed:

data item '_diffrn_radiation_probe' value 'X-ray' was changed to
'x-ray' in accordance with the
/home/data/users/saulius/crontab/automatic-downloads/rss-feeds/IUCr/lib/dictionaries/cif_core.dic
dictionary named 'cif_core.dic' version 2.4.2 last updated on
2011-04-26.

Automatic conversion script
Id: cif_fix_values 7556 2019-12-06 15:28:31Z antanas 
;
_cod_original_cell_volume        176.98(4)
_cod_original_sg_symbol_H-M      'P 4/n m m:1'
_cod_original_formula_sum        'Nd1 Te1.923'
_cod_database_code               2108702
_shelx_res_file
;
TITL hp_nd004_2_k1_new_a.res in P4/nmm
    hp_nd004_2_k1_new.res
    created by SHELXL-2016/6 at 18:24:50 on 25-Jun-2020
REM Old TITL HP_Nd004_2_k1_new in P42/nnm #134
REM SHELXT solution in P4/nmm
REM R1 0.137, Rweak 0.028, Alpha 0.049, Orientation as input
REM Formula found by SHELXT: Nd2 Te
CELL 0.71359 4.4274 4.4274 9.0289 90 90 90
ZERR 2 0.0006 0.0006 0.0013 0 0 0
LATT -1
SYMM 0.5-X,0.5-Y,-Z
SYMM 0.5-Y,0.5+X,+Z
SYMM -X,-Y,+Z
SYMM 0.5+Y,0.5-X,+Z
SYMM +Y,-X,-Z
SYMM -Y,+X,-Z
SYMM 0.5+X,0.5-Y,-Z
SYMM 0.5-X,0.5+Y,-Z
SYMM +Y,+X,-Z
SYMM -Y,-X,-Z
SYMM 0.5+X,0.5+Y,-Z
SYMM -X,+Y,+Z
SYMM +X,-Y,+Z
SYMM 0.5-Y,0.5-X,+Z
SYMM 0.5+Y,0.5+X,+Z
SFAC Nd Te
UNIT 2 3.85

L.S. 10
PLAN  5
CONF
list 4
MORE -1
fmap 2
acta
OMIT 2 0 0
OMIT 2 2 0
OMIT 1 1 2
OMIT 1 1 1
OMIT 2 0 1
REM <olex2.extras>
REM <HklSrc "%.\\HP_Nd004_2_k1_new.hkl">
REM </olex2.extras>

WGHT    0.000000    1.578900
EXTI    0.032082
FVAR       0.57623
ND01  1    0.000000    0.500000    0.272340    10.12500    0.01043    0.01043 =
         0.01443    0.00000    0.00000    0.00000
TE02  2    0.000000    0.500000    0.631875    10.12500    0.00821    0.00821 =
         0.01018    0.00000    0.00000    0.00000
TE03  2    0.000000    0.000000    0.000000     0.11538    0.03428    0.03428 =
         0.00795    0.00000    0.00000    0.00000
HKLF 4




REM  hp_nd004_2_k1_new_a.res in P4/nmm
REM R1 =  0.0237 for     147 Fo > 4sig(Fo)  and  0.0237 for all     148 data
REM     11 parameters refined using      0 restraints

END

WGHT      0.0000      1.5789

REM Highest difference peak  2.047,  deepest hole -2.998,  1-sigma level  0.991
Q1    1   0.2414  0.2585  0.5468  10.50000  0.05    2.05
Q2    1   0.2669  0.2331  0.1765  10.50000  0.05    1.96
Q3    1   0.2327  0.2673  0.6745  10.50000  0.05    1.93
Q4    1   0.2387  0.2613  0.1046  10.50000  0.05    1.85
;
_shelx_res_checksum              49605
_shelx_hkl_file
;
   1  -1   0 3121.19   11.50
  -1   1   0 3089.69   11.80
   1   1   0 2924.91   15.60
   0   2   0 3908.71   11.80
   2   0   0 2928.01   15.20
  -2   0   0 9999.00   37.30
  -2   0   0 4037.50   12.40
   2   0   0 6985.50   15.30
   0  -2   0 9013.90   17.00
   2  -2   0 8191.88   14.10
  -2   2   0 8393.06   14.80
  -2   2   0 4595.84   12.20
   2   2   0 7865.01   22.20
   2   2   0 5932.41   15.70
   2   2   0 4158.78   13.60
   3  -1   0 2398.86    8.70
   3   1   0 2245.18    7.70
   3   1   0 2557.94   14.40
  -3  -1   0 2287.47    8.50
  -3   1   0 2459.35   10.70
  -3  -1   0 2345.77   13.00
  -1   3   0 2371.66    7.40
  -3   1   0 2326.67    7.60
   1  -3   0 2301.97    7.40
   1   3   0 2307.67    7.90
   3   3   0 1776.92    8.10
   3   3   0 1672.83    7.90
   3   3   0 1617.64   16.20
  -3   3   0 1748.13    6.80
  -3   3   0 1888.21    7.40
   3  -3   0 1769.42    6.60
   4   0   0 5857.31   15.20
  -4   0   0 5288.77   68.99
   0   4   0 5584.14   11.00
  -4   0   0 5403.56   11.40
   2   4   0 4169.18   12.60
   2   4   0 4370.76   10.90
   4   2   0 5074.39   22.20
  -4   2   0 4430.86   10.10
   4  -2   0 4521.75   11.20
  -4   2   0 4767.22   13.80
  -2   4   0 4660.93   10.10
   2  -4   0 4421.16    9.90
   4   2   0 4258.97   10.60
   2   4   0 4062.99   13.20
  -4   4   0 2632.84   10.10
  -4   4   0 2405.06    9.20
   4   4   0 1850.51   80.69
   4   4   0 2359.86   11.20
   4  -4   0 2378.56    8.80
   4   4   0 2304.47   10.60
   5   1   0 1554.64   10.70
   1   5   0 1425.16    6.70
  -5   1   0 1132.79   26.50
   1  -5   0 1380.96    6.80
  -5   1   0 1444.26    7.10
  -1   5   0 1449.15    6.60
   5  -1   0 1455.95    8.20
   0   0  -1   28.50   23.40
   0   0   1   24.00   25.40
  -1   0   1  404.76   10.10
   0  -1  -1  402.16    5.20
   1   0  -1  423.46    8.10
  -1   0  -1  398.86    5.30
  -1   0   1  400.66    5.40
   0   1  -1  396.56    5.10
  -1   0  -1  441.56   10.30
   1   0   1  402.26    9.00
   0   1   1  401.96    5.10
   1   0   1  382.96    5.20
  -1   1   1 5082.19   14.50
   1  -1   1 4517.65   14.50
   1   1  -1 4734.23   19.00
  -1   1  -1 5074.89   15.20
   1   1  -1 3756.52   17.20
   1   1   1 4160.98   18.40
  -1   1  -1 2281.57   11.10
   1  -1  -1 5100.29   14.20
   0   2  -1    6.80    2.10
  -2   0   1   15.50    8.20
  -2   0  -1    6.10    2.50
  -2   0  -1   10.10    8.10
  -2   0   1    6.80    2.50
   0   2   1    7.00    2.30
   0  -2  -1   45.50    2.60
   2   0  -1    7.80    3.80
   2   0   1   10.50    3.60
   2   0   1    4.90    2.50
  -2  -1   1  281.67    4.60
   1  -2  -1  288.47    3.60
  -2   1   1  277.97    3.60
   2   1   1  296.47   26.90
   2   1  -1  277.07    4.10
  -1   2   1  289.97    3.40
   1   2   1  278.57    4.10
   1   2  -1  275.67    4.00
  -2  -1   1  295.77    6.70
   2  -1   1  280.97    4.00
  -1   2  -1  285.27    3.60
   2   1  -1  208.28   31.30
  -2   1  -1  293.47    4.60
  -2   1  -1  269.47    3.60
   1  -2   1  272.37    3.50
   2   1   1  263.87    4.00
   2  -1  -1  288.87    4.10
  -2   1   1  298.67    4.30
   2   2   1   23.20    5.10
   2  -2   1   27.10    2.90
  -2   2  -1   19.40    3.00
   2   2  -1   22.60    3.10
   2  -2  -1   21.70    2.70
   2   2   1   22.30    3.20
  -2   2   1   21.80    2.90
   2   2   1   20.10    3.60
   2   2  -1   24.40    5.90
  -2   2  -1   17.80    2.80
   3   0   1  210.38    4.60
  -3   0   1  191.88    3.60
  -3   0   1  189.38   17.90
  -3   0  -1  195.38    3.50
   3   0  -1  220.68    4.80
   0   3   1  198.18    3.20
   3   0   1  189.48    3.40
   0   3  -1  200.48    3.30
  -3   0  -1  174.88   26.20
   0  -3  -1  188.38    3.40
  -3   1   1 2748.93   11.10
  -3  -1   1 2631.54   14.50
   1  -3   1 2557.94    7.70
  -3   1  -1 2757.42   11.60
   3  -1   1 2632.54    9.50
   1  -3  -1 2511.75    7.60
   3  -1  -1 2734.43    9.10
  -1   3   1 2654.83    7.80
  -3   1   1 2483.45    7.90
   1   3   1 2613.14    8.40
   3   1  -1 2858.41   16.70
  -1   3  -1 2556.94    7.70
   3   1  -1 2550.24    8.40
   3   1   1 2435.16    8.10
  -3  -1   1 2586.44    9.30
   1   3  -1 2607.74    8.20
  -3   1  -1 2519.65    7.90
   3   1   1 2922.01   15.80
   2  -3   1  153.18    3.30
   2   3  -1  155.18    3.60
  -3   2   1  152.28    3.60
  -3   2  -1  151.68    3.50
   2   3  -1  158.78    4.70
   3   2  -1  131.29   39.10
   3  -2  -1  162.88    3.40
  -3   2  -1  171.78    3.90
   2   3  -1  157.18    4.80
   2   3   1  155.78    3.90
  -2   3  -1  159.98    3.50
   3   2   1  159.38    4.90
   3   2   1  150.78    3.60
   3   2  -1  153.28    3.80
   3   2   1  213.18   50.69
  -3   2   1  172.98    4.00
   2  -3  -1  156.48    3.50
   3  -2   1  150.78    3.40
  -2   3   1  165.78    3.60
  -2   3  -1  153.08    3.30
   3   3  -1 1374.06    7.50
   3   3   1 1377.56   17.70
   3   3   1 1414.06    8.00
   3   3   1 1352.66    7.30
  -3   3   1 1422.66    6.60
  -3   3  -1 1387.76    6.30
   3   3  -1 1452.55    7.50
  -3   3  -1 1454.05    6.90
  -3   3   1 1551.54    6.80
   3  -3  -1 1432.36    6.30
   3   3  -1 1379.66   15.50
   3  -3   1 1390.26    6.20
  -4   0   1   26.00   29.00
  -4   0   1   53.69    3.80
   0   4  -1   49.90    3.30
  -4   0  -1   51.49    3.60
  -4   0  -1   49.30   26.80
   0  -4  -1   53.79    3.50
   4   0   1   82.59    3.20
   4   0   1   72.99    4.60
   4   0  -1   61.29    4.60
   0   4   1   61.79    3.30
   1  -4   1  124.69    3.40
   4   1   1  119.99    3.80
   4   1   1  142.09    6.10
  -4   1   1  121.99    3.70
  -4   1  -1  121.99    3.70
  -4   1  -1  133.39    8.60
  -1   4   1  131.69    3.40
   4  -1  -1  134.89    4.30
   4   1  -1  148.29    6.40
  -4  -1   1  128.99    4.40
  -4  -1   1  134.39    8.20
   1   4  -1  125.69    3.60
  -4   1   1  135.09    8.10
   4  -1   1  129.59    4.40
   1   4   1  128.49    3.60
   1  -4  -1  124.69    3.50
  -1   4  -1  129.99    3.50
   4   2   1   74.29    8.30
  -2   4  -1   61.29    4.20
   4   2  -1   61.09    4.10
   2   4  -1   58.99    5.30
   4  -2   1   68.99    3.80
   2   4  -1   70.49    5.10
  -4   2  -1   73.19    5.30
  -2   4  -1   64.19    3.70
   4  -2  -1   64.79    3.90
   4   2  -1   73.79   11.50
  -4   2   1   71.99    5.00
   4   2   1   59.59    3.90
   2  -4  -1   62.09    3.50
   2   4  -1   63.59    3.90
   4   2   1   64.19    5.90
  -2   4   1   67.69    3.60
   2   4   1   63.09    4.00
   2  -4   1   62.09    3.40
  -4   2  -1   65.49    3.70
  -4   2   1   63.39    3.90
  -4   3   1   92.79    5.20
   4   3   1   88.39    4.60
   3  -4   1   90.09    4.00
   4   3   1  110.49   21.60
   3   4   1   78.59    5.30
  -4   3  -1   98.09    5.10
  -4   3  -1   89.89    4.10
   4   3  -1   87.89    5.40
   4  -3  -1   83.49    4.50
   3   4  -1  110.59    9.10
  -3   4   1   84.49    4.70
   3   4  -1   90.79    4.60
   3  -4  -1   90.99    3.90
  -3   4  -1   85.89    4.50
   3   4   1   84.59   10.10
  -4   3   1   88.09    4.30
   4   3  -1   86.59    4.80
   3   4  -1   82.69    5.30
   4   3   1   87.99    6.20
   3   4   1   88.19    5.00
   4   3  -1   70.79   32.10
  -3   4   1   91.69    4.20
  -3   4  -1   95.09    4.30
   4  -3   1   88.29    4.30
   4   4  -1   47.40   50.79
   4   4  -1   63.89    6.20
   4  -4   1   66.49    5.00
  -4   4  -1   74.19    5.70
   4   4   1   60.49    5.90
  -4   4  -1   69.19    5.30
   4  -4  -1   69.29    5.20
  -4   4   1   72.79    5.90
   4   4   1   32.00   94.39
   4   4   1   67.89    6.70
  -4   4   1   70.79    5.50
   4   4  -1   68.79    6.00
   0   5   1   87.29    3.90
  -5   0   1   82.89   26.80
   5   0  -1   93.49    5.40
   0   5  -1   84.19    3.90
  -5   0   1   82.29    4.50
  -5   0  -1   83.19    4.70
  -5   0  -1   96.79   14.90
   5   0   1   94.39    6.20
  -5   1  -1  792.32    6.10
  -1   5   1  865.61    5.80
  -5   1   1  827.52    6.40
  -5   1   1  784.52   22.00
   1   5  -1  832.92    5.70
  -5  -1   1  854.31    7.30
  -1   5  -1  838.62    5.80
  -5  -1   1  875.91   11.00
   5  -1  -1  881.01    6.80
  -5   1  -1  686.33   34.20
   5   1   1  844.92   10.70
   5   1  -1  928.11    8.70
   5   1   1  789.12    5.70
   5  -1   1  832.02    7.50
   1   5   1  856.91    6.10
   1  -5  -1  807.12    5.90
   5   2  -1   86.09    8.60
   2   5   1   75.49    4.80
  -5   2  -1   71.09    4.80
   5   2   1   80.79    9.60
   5   2   1   73.49    9.20
  -5   2   1   77.79    9.20
   5  -2   1   78.79    5.20
  -5   2  -1   80.09   10.30
  -5   2   1   69.39    5.10
   5  -2  -1   74.99    4.90
   2  -5  -1   67.99    4.50
   5   2   1   69.69    4.90
  -2   5  -1   73.59    5.30
   2   5  -1   75.79    6.40
  -2   5  -1   73.09    4.60
  -2   5   1   79.29    4.60
   2   5  -1   75.29    4.60
   2  -5   1   79.59    4.60
   2   5  -1   68.39    7.30
   0   0   2  141.49   13.60
   0   0  -2  145.29   12.50
   0   1   2 1147.39    8.00
  -1   0  -2 1091.99   13.20
   1   0  -2 1082.39   13.80
   0   1  -2 1071.69    7.60
  -1   0   2 1035.70   15.30
   1   0   2 1050.29    7.80
   0  -1   2 1061.19   15.20
  -1   0  -2 1131.19   16.60
   0  -1  -2 1132.79    7.90
  -1  -1   2 5547.94   24.00
   1  -1   2 4462.15   15.40
   1   1   2 3756.72   19.50
  -1   1   2 7074.79   16.40
   1   1  -2 6228.38   21.40
  -1  -1  -2 4504.05   21.30
  -1   1  -2 5479.75   16.00
  -1   1  -2 3253.17   13.10
  -1  -1   2 6225.78   19.40
   1  -1  -2 2550.64   11.30
   0  -2  -2  235.48    3.80
   2   0  -2  258.67    5.90
   0   2   2  249.38    3.60
  -2   0   2  215.18   10.90
   2   0   2  240.78    3.80
   2   0   2  243.28    6.80
   0   2  -2  239.68    6.20
  -2   0  -2  256.97   10.50
  -2   0  -2  234.88    3.70
   0   2  -2  241.48    3.70
  -2   0   2  235.68    3.80
  -2   1  -2  754.82    6.30
   2  -1   2  725.23    5.80
  -2   1   2  769.42    6.00
   1   2  -2  705.33    9.80
   1   2  -2  706.73    5.80
   1  -2  -2  727.33    4.90
   2   1   2  679.73    5.40
   2  -1   2  694.83    5.30
  -2   1  -2  704.03    5.00
   1   2   2  735.23    5.70
  -1   2   2  767.52    5.00
  -1   2  -2  716.33    6.00
  -2  -1   2  693.23    9.80
   1  -2   2  712.73    4.90
   2  -1  -2  769.52    5.60
  -2  -1   2  729.03    6.40
  -1   2  -2  708.43    5.00
   2   1  -2  576.44   18.30
  -1  -2  -2  719.93    6.10
   2  -2   2  263.27    3.80
  -2   2  -2  268.17    4.00
  -2   2  -2  254.57    3.90
   2   2   2  273.57    4.70
   2  -2  -2  271.47    3.70
   2   2  -2  260.87    4.60
   2   2  -2  255.07    7.30
  -2   2   2  280.87    3.90
   0   3  -2  534.35    4.30
   3   0  -2  604.54    6.50
  -3   0  -2  505.05   28.30
   3   0   2  537.25    7.40
  -3   0  -2  527.65    4.50
   0   3   2  573.34    4.40
   0  -3  -2  536.15    4.60
   3   0   2  526.45    4.50
  -3   0   2  541.85    4.90
  -3   0   2  567.44   18.50
  -1   3  -2 3498.55    9.00
  -3   1  -2 3535.25    9.20
   3  -1   2 3639.84   11.80
   3   1  -2 3884.21   22.90
  -3   1   2 3537.75    9.50
  -3   1   2 3784.32   12.80
   1  -3  -2 3519.85    9.00
  -3  -1   2 3609.24   11.00
   1   3   2 3756.32   10.10
   1   3  -2 3629.44    9.50
   3   1   2 3379.46    9.40
   1   3  -2 3547.04   17.90
   3  -1  -2 3799.52   10.60
  -1  -3  -2 3683.83   10.80
  -1   3  -2 3631.64   11.70
   3  -1   2 3466.25    9.30
  -1   3   2 3830.32    9.20
  -3  -1   2 3503.05   18.20
  -3   1  -2 3892.91   14.10
   2   3   2  436.16    5.10
  -3   2   2  429.16    4.60
  -3   2  -2  453.05    5.00
   3  -2   2  419.66    4.40
   3   2   2  428.66    7.00
   2   3  -2  431.46    4.60
  -2   3  -2  413.56    4.40
   3   2   2  484.35   24.10
  -2   3  -2  444.56    4.40
   3   2  -2  416.96    4.90
  -3   2   2  459.15    5.10
  -2   3   2  456.05    4.40
   2  -3   2  427.56    4.20
   2   3  -2  418.66    6.30
   3  -2  -2  441.56    4.40
   3   2  -2  403.56   21.80
   2   3  -2  426.46    5.70
  -3   2  -2  412.16    4.30
   2  -3  -2  427.96    4.20
   3   2   2  413.66    4.80
   3   3  -2 1993.40   17.00
  -3   3  -2 2163.98    8.20
   3   3   2 2104.09   10.30
   3   3  -2 2064.69    9.50
   3   3   2 1949.90   24.70
  -3   3  -2 2102.29    7.70
   3  -3   2 2100.89    7.50
  -3   3   2 2236.58    7.80
   3   3   2 1964.50    8.50
   3  -3  -2 2099.29    7.20
  -4   0  -2  263.97   18.90
   4   0   2  260.17    4.00
  -4   0   2  266.87    4.50
   0   4  -2  280.67    3.90
   0   4   2  290.77    4.00
   4   0   2  283.07    6.60
   0  -4  -2  281.37    4.20
  -4   0   2  217.78   17.50
  -4   0  -2  273.07    4.20
   4   0  -2  311.97    5.50
  -1   4   2  350.06    4.20
   1   4  -2  331.57    4.30
  -4   1   2  353.36    8.80
   4   1   2  322.47    4.30
   4  -1   2  337.67    5.30
  -4  -1   2  379.46   10.30
  -4   1  -2  347.67    9.90
  -4  -1   2  341.67    5.20
  -4   1  -2  340.07    4.20
   4   1  -2  403.16    8.10
   1   4   2  340.27    4.40
  -1   4  -2  344.37    5.30
   1  -4  -2  329.57    4.30
  -4   1   2  342.27    4.50
  -1   4  -2  341.97    4.10
   4  -1  -2  362.96    5.00
  -2   4  -2  268.97    4.70
   2   4  -2  269.57    4.50
   4  -2   2  274.97    4.60
   4  -2  -2  276.07    4.50
   4   2  -2  333.87   18.20
  -2   4  -2  273.47    4.40
   2   4   2  297.07    4.60
   2   4  -2  268.37    5.40
   2  -4   2  270.27    4.20
   2   4  -2  261.37    6.80
   2  -4  -2  268.37    4.50
  -4   2   2  274.07    4.60
   4   2   2  257.57    4.30
  -4   2  -2  269.67    4.30
  -4   2  -2  302.17    6.10
  -4   2   2  289.07    5.60
  -2   4   2  296.77    4.40
   4   3   2  262.27   16.50
   3  -4   2  230.28    4.40
   4   3  -2  143.79   19.50
  -3   4  -2  244.18    4.90
   3   4  -2  227.08    5.20
  -4   3   2  233.38    5.00
   3  -4  -2  233.08    4.80
   4   3   2  215.88    5.30
  -3   4  -2  226.88    5.00
   3   4   2  220.78    5.60
  -4   3  -2  242.18    4.70
   3   4  -2  224.08    6.50
   4  -3  -2  232.58    4.70
   4   3   2  235.88    7.90
  -3   4   2  240.28    4.80
   4  -3   2  230.88    4.80
   3   4   2  203.88   11.70
   3   4   2  212.08    5.90
  -4   3  -2  251.47    6.00
   3   4  -2  233.98    9.80
  -4   3   2  243.18    5.50
   4  -4   2  212.18    5.80
   4   4  -2  202.88    6.40
   4   4   2  211.98   64.69
   4  -4  -2  223.28    5.70
   4   4  -2  176.88   38.50
  -4   4   2  219.78    6.00
  -4   4   2  225.48    6.50
   4   4   2  219.98    7.90
   4   4   2  220.88    6.40
  -4   4  -2  216.68    5.80
  -4   4  -2  226.58    7.00
   5   0  -2  252.07    6.10
   0   5  -2  229.58    4.60
   0   5  -2  227.68    7.20
  -5   0  -2  247.38   13.40
   0   5   2  232.18    4.40
   5   0   2  224.68    5.10
  -5   0   2  216.48   33.70
  -5   0   2  227.28    5.10
   5   0   2  227.08    8.70
  -5   0  -2  246.68    5.20
   0  -5  -2  230.58    4.70
  -1   5   2 1343.17    6.70
   1   5  -2 1214.68   13.90
  -1   5  -2 1276.67    8.80
   1   5  -2 1285.27    6.60
   5   1   2 1213.98    6.60
  -5   1   2 1209.58   22.40
  -5   1  -2 1451.35   54.29
  -5   1   2 1276.97    7.30
  -5   1  -2 1254.17    7.10
   5  -1  -2 1368.86    8.10
  -5  -1   2 1304.17    8.20
   5  -1   2 1277.17    9.40
  -5  -1   2 1366.86   14.10
  -1   5  -2 1331.27    6.80
   1   5   2 1319.17    6.80
   1  -5  -2 1321.27    7.10
   5   1  -2 1475.85   10.50
   2  -5  -2  190.88    5.00
  -2   5  -2  199.58    4.90
   5   2   2  180.88    5.30
   2   5  -2  199.38    5.40
  -2   5  -2  194.68    5.90
  -5   2   2  204.38    5.50
  -5   2  -2  191.08    5.00
   5   2  -2  239.08   10.30
   5  -2   2  196.48    6.10
  -5   2  -2  193.38   11.90
   2   5  -2  187.78    6.80
   2   5  -2  192.08    9.90
   2   5   2  191.78    5.30
  -2   5   2  203.78    5.00
   5  -2  -2  210.88    5.50
  -5   2   2  197.68    9.90
   0   0   3 6767.32   33.10
   0   0  -3 7065.19   33.10
  -1   0  -3 4384.16   39.20
  -1   0   3 4947.80   32.00
   1   0  -3 4624.34   30.60
   0   1   3 5052.79   15.90
   0  -1   3 2681.93   20.50
   0  -1  -3 4911.41   15.70
   0   1  -3 4750.42   15.10
  -1   1  -3  286.77    4.50
  -1  -1  -3  297.97    6.10
   1   1   3  326.87    7.30
  -1   1   3  317.87    4.50
  -1  -1   3  274.97    6.80
   1  -1  -3  304.17    4.60
  -1  -1   3  287.17    6.60
   1  -1   3  282.47    4.80
   1   1  -3  280.47    7.60
   0  -2  -3 5850.81   13.60
  -2   0   3 5998.10   30.00
  -2   0  -3 3729.93   27.40
   2   0   3 5561.54   13.10
   0   2  -3 5834.52   13.10
   2   0  -3 5571.54   20.60
   0   2   3 6166.28   13.70
  -2   0  -3 5248.88   37.70
   1  -2  -3 3713.53   10.00
   1   2   3 3876.21   12.30
   2   1  -3 3154.08   19.70
  -2   1   3 3740.73   11.80
   2  -1   3 3543.15   10.60
  -2  -1   3 3621.34   12.90
  -1   2  -3 3645.14   12.50
  -1  -2  -3 3606.14   12.30
  -2   1  -3 3646.64   12.70
   2   1   3 3244.28   10.60
   2  -1  -3 3799.32   11.30
  -1   2   3 3864.31   10.10
   1   2  -3 3527.35   11.40
  -2  -1   3 3226.78   19.30
  -2   1  -3 3644.44   10.30
  -1   2  -3 3531.05   10.20
   2   2   3 3439.96   15.60
  -2   2  -3 4150.88   11.10
   2   2  -3 3989.30   16.30
   2  -2  -3 4289.87   10.40
  -2   2   3 4543.85   10.80
  -2   2  -3 4296.27   11.20
   0   3   3 2997.70    8.60
  -3   0   3 2787.42   25.40
  -3   0   3 2833.72    9.20
   0   3  -3 2748.72    8.30
   3   0   3 2627.64    8.40
   0  -3  -3 2794.22    8.80
   3   0  -3 3065.89   12.40
   0   3  -3 2835.62   18.30
  -3   1  -3  349.47    6.20
  -3  -1   3  311.17   12.80
   3   1  -3  308.87   16.60
  -3   1   3  322.57    4.10
   3  -1   3  331.67    5.10
  -1   3  -3  322.07    3.80
   3  -1   3  317.57    4.10
   1   3   3  340.07    4.10
  -1   3  -3  319.97    5.10
  -3   1   3  325.27    5.90
  -3   1  -3  323.97    3.90
   1  -3  -3  314.97    3.90
   3   1   3  306.07    4.30
  -1  -3  -3  323.27    4.60
  -3  -1   3  324.67    4.90
   1   3  -3  325.07    4.10
   1   3  -3  325.17    4.30
  -1   3   3  326.77    3.60
   3  -1  -3  353.06    4.60
   2  -3  -3 2242.58    7.30
  -2   3  -3 2191.68    8.60
   3   2  -3 2035.90   19.00
  -3   2  -3 2341.37    9.30
   2   3   3 2384.46    9.80
   3   2   3 2161.18    8.30
   3  -2   3 2267.37    8.50
  -3   2   3 2452.85    8.80
  -2   3  -3 2281.67    7.90
  -2   3   3 2396.56    7.60
   3  -2  -3 2386.36    8.00
   2   3  -3 2150.78   10.10
  -3   2  -3 2215.58    7.70
   3   3   3  287.17    5.10
   3   3   3  330.07    6.80
  -3   3  -3  338.87    5.10
   3  -3   3  312.27    4.50
  -3   3  -3  308.47    4.70
   3   3  -3  270.37   12.70
  -3   3   3  334.87    4.90
   3  -3  -3  313.47    4.30
   3   3   3  276.77   29.20
  -4   0   3 1991.40   17.80
   0  -4  -3 2357.66    8.10
   0   4   3 2598.84    7.80
  -4   0   3 2497.85    8.50
   0   4  -3 2425.66   15.60
   0   4  -3 2490.25    7.80
   4   0  -3 2750.62   10.90
   4   0   3 2347.67    7.90
  -4   1  -3 1864.51   16.90
   1   4  -3 1805.72    7.10
   1  -4  -3 1797.32    7.00
  -1   4  -3 1807.12    6.90
   4  -1   3 1847.42   10.40
   4  -1  -3 1963.80    8.20
  -1  -4  -3 1858.91    8.40
  -4  -1   3 1873.61   18.20
   1   4   3 1921.21    7.60
  -4   1   3 1791.32   12.90
   4  -1   3 1802.92    7.30
   4   1   3 1712.23    7.20
  -4   1   3 1836.22    7.40
   4   1  -3 2178.88   14.90
  -4  -1   3 1873.81    8.70
   1   4  -3 1756.92    7.50
  -1   4  -3 1853.11    9.90
  -4   1  -3 1816.82    7.10
  -1   4   3 1931.71    6.90
   4  -2  -3 1950.50    7.70
   4  -2   3 1880.11    8.70
   2   4   3 1992.70    8.50
   2  -4  -3 1859.61    7.30
   4   2  -3 1623.54   23.20
  -4   2   3 1886.81    7.70
  -4   2   3 1994.30    9.40
  -2   4  -3 1876.01    8.70
   2   4  -3 1893.41    7.70
  -4   2  -3 1834.42    7.40
  -2   4  -3 1941.31    7.50
   4   2   3 1820.12    7.70
   2   4  -3 1881.91    9.20
  -4   2  -3 2077.89   10.90
  -2   4   3 2042.00    7.40
   4  -3  -3 1298.27    6.70
   3   4  -3 1282.27    7.40
   4   3   3 1205.98    7.60
  -4   3   3 1332.27    8.00
   3  -4  -3 1244.58    6.70
   4   3  -3  996.80   17.10
   3   4   3 1316.57    9.10
  -4   3   3 1315.77    7.40
  -3   4  -3 1308.07    7.50
   4  -3   3 1269.87    7.30
  -3   4  -3 1272.47    7.40
  -4   3  -3 1253.87    7.00
   3   4   3 1141.29    8.40
  -3   4   3 1385.96    7.30
   3   4   3 1166.68   17.60
   3   4  -3 1204.78   12.80
  -4   3  -3 1417.26    8.90
   0   5   3 1296.27    6.70
   0   5  -3 1250.27    6.70
   0  -5  -3 1231.28    7.20
   5   0   3 1236.28    7.00
  -5   0   3 1302.37    7.90
   0   5  -3 1257.77   15.30
   5   0  -3 1423.86    9.20
  -5   0   3  998.40   18.70
  -5   1   3  306.17   21.40
   1   5   3  288.97    5.00
  -5   1  -3  298.97   27.30
   1  -5  -3  284.87    5.10
   5  -1  -3  319.97    6.10
   1   5  -3  282.37    5.10
   5   1   3  286.27    5.60
  -1   5  -3  293.27    7.40
  -5  -1   3  299.37    6.70
  -5   1  -3  281.57    5.20
   1   5  -3  321.97    5.50
   5   1  -3  340.37    8.60
  -1   5  -3  290.07    5.10
  -5  -1   3  295.27   14.20
  -5   1   3  282.37    5.70
  -1   5   3  293.17    4.90
   2   5   3 1089.39    7.70
  -5   2   3 1052.69   12.60
   5   2   3  999.70    7.30
  -2   5  -3 1045.90    8.60
  -5   2  -3 1091.99   17.10
  -2   5  -3 1060.29    6.90
   5  -2  -3 1121.99    7.60
   5   2  -3 1276.67   16.10
   2   5  -3 1021.90    7.30
  -5   2  -3 1060.89    6.80
   2  -5  -3 1022.50    6.90
   2   5  -3 1010.70    9.10
  -2   5   3 1109.79    6.90
  -5   2   3 1093.79    7.70
   0   0  -4 1398.26   13.00
   0   0   4 1366.76   13.10
  -1   0   4  287.27    9.40
  -1   0  -4  324.17   12.30
   1   0  -4  277.27    8.80
   0   1   4  360.86    5.80
   1   0   4  322.57    9.00
   0  -1  -4  343.07    5.60
   0   1  -4  347.37    5.80
   1   1  -4 1174.58   12.70
  -1  -1  -4 1294.87   10.00
   1   1   4 1336.87   14.50
  -1   1   4 1323.67    7.80
   1  -1   4 1244.68    8.30
  -1   1  -4 1248.68    8.00
   1  -1  -4 1341.37    8.20
  -1  -1   4 1157.28   12.10
  -2   0   4  909.51   15.60
  -2   0  -4  934.61   26.60
  -2   0  -4  896.11   11.10
   0  -2  -4  903.41    6.20
   2   0   4  857.31    6.20
   0   2   4  965.30    6.20
   2   0  -4  933.21   13.50
   0   2  -4  887.81    5.90
  -1  -2  -4  246.28    4.60
  -1   2  -4  246.88    4.00
   2  -1  -4  272.57    4.90
  -2   1   4  270.67    5.20
   2   1  -4  228.88    8.30
   1  -2  -4  248.08    4.00
  -2   1  -4  245.18    4.50
   2  -1   4  243.88    4.30
  -2  -1   4  249.18    5.00
   2   1   4  244.98    5.00
  -1   2   4  268.47    3.90
  -2  -1   4  264.97   13.70
   1   2  -4  241.38    4.90
   1   2   4  271.27    4.50
   2   2  -4  539.05    9.40
  -2   2  -4  556.74    5.10
   2  -2   4  545.65    5.50
   2  -2  -4  575.74    5.00
  -2   2   4  606.94    5.10
   2   2   4  611.54    8.70
  -2   2  -4  547.65    5.10
  -3   0   4  201.48    4.10
   0  -3  -4  180.08    3.80
  -3   0   4  158.88   11.10
   3   0   4  201.08    4.20
   3   0  -4  195.48    7.20
   0   3  -4  177.88    3.80
   0   3   4  199.28    3.60
   0   3  -4  175.88    3.90
   1  -3  -4  498.75    4.70
   3  -1   4  508.55    5.00
  -3   1  -4  539.55    7.70
  -3   1   4  539.65    7.50
   1   3  -4  494.15    5.10
   3   1  -4  390.26   10.20
  -3  -1   4  501.45    6.10
  -1   3  -4  486.75    6.50
   3   1   4  481.35    5.30
  -1   3  -4  495.15    4.70
  -1   3   4  527.65    4.50
   1   3  -4  485.25    5.30
  -3  -1   4  492.55   14.50
   3  -1  -4  542.45    5.90
  -1  -3  -4  493.15    5.50
   1   3   4  539.85    5.10
   3   2  -4  135.79   10.00
   3  -2  -4  151.28    4.20
  -2   3  -4  143.59    4.40
  -3   2  -4  147.89    4.90
  -3   2   4  159.08    4.60
   2  -3  -4  152.78    3.80
   3   2   4  146.79    4.80
  -3   2  -4  147.19    3.80
  -2   3   4  157.98    3.90
  -3  -2   4  158.58    7.20
  -3  -2   4  145.99    6.40
   2   3  -4  169.78    6.30
   2   3   4  161.58    5.00
  -2   3  -4  151.58    3.90
   3   3  -4  220.28   13.00
  -3   3  -4  233.88    5.10
  -3   3   4  238.28    4.80
   3  -3  -4  224.28    4.60
  -3   3  -4  214.58    4.60
   3   3   4  205.18    5.70
   3   3   4  248.38    8.70
   3   3   4  250.67   29.70
  -4   0   4  216.48   10.00
   0   4  -4  226.08    4.40
  -4   0   4  238.78    5.00
   4   0   4  229.08    4.50
   4   0  -4  275.07    7.10
   0   4  -4  270.27    4.50
   0  -4  -4  228.98    4.30
   0   4   4  252.87    4.20
   1   4   4  133.19    4.30
   4  -1  -4  128.19    4.90
  -1  -4  -4  122.49    5.00
  -4   1   4  123.49    9.80
  -1   4  -4  117.79    4.10
   4   1  -4  144.39   13.70
   1  -4  -4  123.29    4.20
   4  -1   4  117.69    4.60
  -4   1   4  128.19    4.60
   1   4  -4  122.29    4.50
   4   1   4  119.89    4.80
  -4  -1   4  132.89    5.70
  -4   1  -4  119.09   14.00
  -1   4  -4  123.59    6.30
   1   4  -4  112.59    4.70
  -1   4   4  132.89    4.00
  -4  -1   4  117.29   18.70
   2   4   4  176.58    5.20
  -2   4   4  209.98    4.50
  -4   2  -4  158.78    4.30
   2  -4  -4  173.68    4.50
   2   4  -4  167.18    4.60
  -4   2   4  168.98    5.10
  -4   2   4  160.08    6.40
   4   2  -4  132.79   11.60
   4   2   4  152.78    5.20
  -4  -2   4  183.58    8.30
  -2   4  -4  165.08    4.50
  -2   4  -4  157.98    5.40
   2   4  -4  158.78    6.20
  -4   2  -4  183.38    7.20
   4  -2  -4  172.88    5.10
   3   4  -4   87.69   11.60
   3  -4  -4   83.19    5.20
  -4   3  -4   92.19    6.70
  -3   4   4   96.59    5.10
   4   3  -4   79.19   11.90
  -3   4  -4   83.29    5.40
  -4   3   4   88.69    5.90
   4   3   4   70.39    5.80
  -3   4  -4   77.79    5.20
  -4   3  -4   79.39    4.80
   3   4  -4   85.89    5.60
   4  -3  -4   82.69    5.00
   3   4   4  102.29    7.30
   3   4   4   78.69   19.40
   3   4   4   88.29    7.00
  -4   3   4   90.19    5.70
   0   5  -4   88.19    5.20
   5   0   4   98.19    5.30
  -5   0   4  121.49    6.50
   0  -5  -4   82.99    5.30
   0   5  -4   82.79    5.00
   5   0  -4   97.59    7.10
   0   5   4   99.19    4.80
  -5   0   4   75.09   12.00
   1   5   4  102.69    5.30
  -5   1   4  111.59   21.10
  -1   5   4  106.99    4.50
   5  -1  -4  104.69    5.80
  -5   1  -4  115.99   38.60
   5  -1   4  104.69    5.50
  -5   1   4  101.69    5.80
   5   1  -4  129.89   10.60
  -5  -1   4  108.89    7.10
  -1   5  -4   94.09    8.80
   1   5  -4   97.89    5.70
  -5  -1   4  114.09   20.80
   1   5  -4   98.49    5.10
  -1   5  -4  104.39    5.20
   1  -5  -4   95.39    5.10
   5   1   4  100.09    5.60
  -5   2   4   80.19   11.00
  -5   2   4   81.29    6.10
   5   2   4   65.99    5.70
   5  -2  -4   72.59    5.80
   5   2  -4   84.19   19.40
  -5   2  -4   69.69   18.90
  -2   5  -4   67.19    7.00
  -2   5  -4   69.89    5.30
   2  -5  -4   73.99    5.80
  -5   2  -4   72.79    5.70
  -2   5   4   78.39    5.50
   2   5  -4   69.59    7.70
   2   5  -4   63.39    5.90
   2   5   4   76.79    6.10
   0   0  -5  814.92    9.10
   0   0   5  764.62    9.40
  -1   0   5 3440.66   15.80
  -1   0  -5 3807.22   19.70
   0   1   5 3961.10   16.40
   1   0  -5 3385.86   14.70
   0  -1   5 3374.46   16.10
   0  -1  -5 3952.70   15.70
   1   0   5 3337.57   23.80
   0   1  -5 3919.51   15.90
   1   1  -5 1617.84   17.10
   1   1   5 1662.53   22.70
  -1   1   5 1597.64    9.40
   1  -1   5 1467.55    9.50
   1  -1  -5 1553.04   10.00
  -1  -1   5 1579.94   17.60
  -1   1  -5 1546.85    9.70
  -1  -1  -5 1577.74   11.10
  -2   0   5  444.36    9.10
   0  -2  -5  499.25    5.50
   2   0  -5  397.26    9.60
  -2   0  -5  502.85   13.30
   0   2   5  533.05    5.40
   2   0   5  456.15    5.90
  -2   0  -5  503.15    8.30
   0   2  -5  493.05    5.30
   1  -2  -5 3159.58   10.00
   2   1  -5 2796.92   12.80
  -2   1   5 3094.39   12.10
  -1   2  -5 2948.61   10.00
  -2  -1   5 3140.89   13.20
   1  -2   5 3035.60   13.20
   2  -1   5 2897.91   10.70
   1   2   5 3330.37   12.80
  -1   2   5 3300.97    9.80
  -1  -2  -5 3060.79   11.80
  -1   2  -5 2991.70    9.80
   2  -1  -5 3192.68   12.20
  -2   1  -5 3134.09   13.30
  -2  -1   5 2610.74   14.10
  -2   1  -5 3029.90   12.10
   1   2  -5 2923.71   11.50
   2   2  -5  283.77   10.40
   2  -2  -5  306.97    5.10
   2   2   5  318.27   11.00
   2  -2   5  285.77    5.20
  -2   2  -5  286.37    4.60
  -2   2   5  325.47    4.90
  -2  -2   5  307.87   10.60
  -2  -2  -5  301.77    7.80
  -3   0   5 2096.59   13.60
  -3   0   5 2438.06    9.60
   0   3  -5 2405.76    8.70
   3   0  -5 2478.25   17.60
   0   3   5 2619.44    8.60
   0   3  -5 2340.27    8.40
   0  -3  -5 2369.26    8.70
   3   0   5 2357.96    8.90
  -1   3  -5  675.33    5.50
  -3   1   5  692.43    9.20
   3   1  -5  612.44    8.80
  -3   1  -5  697.73    8.30
  -3  -1   5  696.43    7.30
  -1  -3  -5  667.63    6.40
   3   1   5  645.74    6.20
   1  -3  -5  673.03    5.50
  -1   3   5  731.73    5.30
   1   3   5  726.83    6.20
  -1   3  -5  659.33    5.20
  -3   1  -5  692.13    8.60
   3  -1  -5  723.73    7.40
   3  -1   5  656.83    5.90
   1   3  -5  667.43    6.10
  -3  -1   5  604.64    9.80
  -2   3  -5 1942.61    7.90
   3  -2  -5 2081.69    8.60
   3   2  -5 1800.32   12.40
  -3   2   5 2068.69    9.10
   2  -3  -5 1988.00    7.70
  -2   3   5 2117.09    7.70
  -3   2  -5 2040.30    9.60
   3   2   5 1823.42    9.20
   3  -2   5 1924.51    8.90
   2   3   5 2118.79   11.30
  -3  -2   5 1990.30   14.10
  -3  -2   5 1829.92   12.50
   2   3  -5 1920.91   10.80
   3   3  -5  346.17   17.70
  -3   3   5  357.56    5.60
   3  -3  -5  344.37    5.30
  -3   3  -5  357.96    5.70
   3   3   5  310.77    7.30
  -3   3  -5  316.67    5.30
  -4   0   5  101.59    8.20
   0   4  -5  109.59    4.80
  -4   0   5  108.69    5.40
   4   0   5  104.69    4.80
   0  -4  -5  103.09    4.70
   4   0  -5  126.49    8.50
   0   4  -5  105.79    4.50
   0   4   5  106.39    4.20
   1  -4  -5 1561.24    7.40
  -4   1   5 1547.95   15.70
  -4   1   5 1683.83    8.30
   4  -1   5 1596.44    7.90
  -1   4  -5 1635.54    7.50
  -1  -4  -5 1611.64    8.60
   4   1   5 1554.84    8.00
   4   1  -5 1438.16   19.40
  -4  -1   5 1709.03    9.90
  -4   1  -5 1471.05   25.20
  -1   4   5 1686.13    7.00
   1   4  -5 1619.44    8.10
   1   4   5 1719.83    8.00
  -4   1  -5 1688.53   15.80
  -4  -1   5 1368.66   13.50
   1   4  -5 1635.14    7.90
   4  -1  -5 1742.33    9.30
  -4   2  -5   75.49    7.90
   4  -2  -5   77.39    5.10
  -4   2   5   73.29    7.40
  -4   2   5   69.09    5.70
   4   2  -5   64.19    9.50
   4   2   5   74.69    5.80
   2   4  -5   70.69    5.20
  -2   4   5   72.99    4.50
  -4  -2   5   76.39    8.90
  -2   4  -5   63.69    6.20
  -4  -2   5   77.29   10.60
   2   4   5   70.89    5.30
   2   4  -5   68.89    6.60
  -2   4  -5   69.59    5.00
   2  -4  -5   68.09    5.00
   3   4  -5 1022.60   16.10
  -4   3  -5 1201.68   10.40
   4   3  -5 1004.10   13.10
  -4   3   5 1157.38    8.60
  -3   4  -5 1167.18    8.40
  -4   3   5 1224.18    8.70
  -3   4   5 1219.48    7.80
   4  -3  -5 1163.08    7.70
   4   3   5 1041.00    8.60
   3   4   5 1253.47   13.00
  -3   4  -5 1076.99    8.30
   3   4   5  964.90   10.70
  -4   3  -5 1089.89    7.70
   3   4   5 1084.49   38.30
   3  -4  -5 1123.29    7.50
   3   4  -5 1124.29    8.70
   0  -5  -5 1072.99    8.00
   5   0   5 1113.39    8.10
   0   5  -5 1164.08    7.50
  -5   0   5 1194.88    9.10
   0   5  -5 1090.09    7.70
   0   5   5 1214.28    7.50
   5   0  -5 1350.26   11.70
  -5   0   5  983.20   12.90
  -1   5  -5  169.98    5.70
  -5   1   5  166.98   18.90
   5  -1  -5  184.18    7.30
   5  -1   5  164.38    6.20
   5   1   5  177.68    6.70
  -5   1   5  177.68    7.10
  -1  -5  -5  170.18    7.00
  -5  -1   5  176.28    8.50
   5   1  -5  209.58   15.00
  -1   5  -5  155.18    5.40
   1   5  -5  170.08    6.10
   1  -5  -5  158.58    6.20
  -1   5   5  166.78    5.50
   1   5  -5  168.28    7.00
  -5  -1   5  152.08   18.70
   1   5   5  166.88    5.70
   0   0  -6  257.77    6.80
   0   0   6  246.88    6.80
  -1   0   6 3315.87   13.50
   0   1  -6 3578.84   18.00
   0   1   6 3703.33   19.70
  -1   0  -6 3648.93   16.50
   1   0  -6 3550.84   13.20
   0  -1  -6 3511.85   17.70
   0  -1   6 3147.08   19.50
   1   0   6 3808.42   26.70
   1   1   6 1885.71   15.20
   1   1  -6 2083.39   14.40
  -1   1   6 2090.09   12.10
   1  -1   6 1963.50   12.00
   1  -1  -6 2006.40   13.50
  -1  -1   6 1847.22   12.00
  -1  -1  -6 2032.40   13.90
  -1   1  -6 2096.59   12.40
  -2   0   6  109.39    7.10
   0  -2  -6  122.39    4.60
  -2   0  -6  128.49    9.30
   0   2   6  132.49    4.60
   2   0  -6  107.19    6.80
   2   0   6  124.49    6.00
  -2   0  -6  123.89    6.80
   0  -2   6  126.59    8.60
   0   2  -6  125.89    4.80
   1   2  -6 2778.22   12.90
   1  -2  -6 2938.91   10.60
  -2   1   6 2907.61   13.80
   2   1  -6 2806.72   12.20
   1   2   6 3094.99   14.20
  -1   2  -6 2863.21   10.40
  -1   2   6 3131.69   10.20
   1  -2   6 2906.11   13.90
  -2   1  -6 2828.72   12.30
   2  -1   6 2817.52   11.10
  -1  -2  -6 2877.11   12.10
  -2  -1  -6 2945.51   19.60
   2  -1  -6 2872.91   14.70
  -1   2  -6 2951.20   10.00
  -2  -1   6 2654.13   12.30
  -2   1  -6 2959.30   14.90
   2  -2  -6   69.69    5.00
  -2  -2  -6   59.99    6.90
   2   2  -6   76.79   11.90
   2   2   6   65.19   20.60
  -2   2   6   60.39    4.60
  -2  -2   6   59.59   10.50
  -2   2  -6   59.29    4.60
  -2   2  -6   81.59    4.40
   2  -2   6   54.89    5.40
  -3   0   6 2069.19   11.80
   0   3  -6 2360.86    9.30
  -3   0   6 2493.75   10.80
   3   0   6 2264.77    9.80
   0   3   6 2562.34    9.00
   3   0  -6 1830.22   14.80
   0  -3  -6 2325.17    9.30
   0   3  -6 2320.07    8.80
  -3   1   6 1045.10   12.20
  -1  -3  -6 1027.00    7.70
  -1   3  -6 1000.40    6.60
   3   1  -6  976.80    8.60
  -3  -1   6 1084.69    8.90
   3  -1   6  983.30    7.30
   1  -3  -6 1000.30    6.60
  -1   3   6 1099.89    6.30
   1   3   6 1138.69    7.70
   3   1   6  960.10    8.10
  -3   1  -6 1075.39   10.20
  -1   3  -6 1020.30    6.20
   3  -1  -6 1076.09   10.20
  -3  -1   6  947.91    8.90
   1   3  -6 1022.00    7.20
  -3   1  -6 1027.60   12.60
   2   3  -6 1824.22   12.60
   3  -2  -6 2016.90    9.80
   3   2  -6 1842.72   11.80
  -3   2   6 2028.30   10.20
   3  -2   6 1907.71    9.70
  -2   3  -6 1919.51    8.70
   2   3   6 2074.59   13.40
   2  -3  -6 1963.10    8.60
  -2   3   6 2053.39    8.30
  -3  -2   6 1966.00   16.20
   3   2   6 1702.13   10.90
  -3  -2   6 1828.92   18.60
  -2   3  -6 1887.91    8.10
  -3   2  -6 1962.90   10.30
  -3   2  -6 1903.71    9.90
  -2  -3  -6 1961.10   13.30
   3   3  -6  586.34   17.00
  -3   3   6  611.24    7.10
   3  -3  -6  596.24    7.00
  -3   3  -6  579.54    7.30
   3   3   6  514.75   10.40
  -3   3  -6  561.84    6.50
   0   4  -6   23.80    5.10
   0  -4  -6   11.50    5.50
  -4   0   6   16.80    6.20
   4   0   6   19.60    5.60
   0   4   6   15.90    4.60
   4   0  -6   12.20   13.10
   0   4  -6   14.30    4.80
  -4   0   6    7.30    7.50
   1  -4  -6 1593.04    8.00
  -1  -4  -6 1554.84    9.40
  -4   1  -6 1531.15   29.30
  -4   1   6 1649.63   19.70
   1   4  -6 1584.74    8.40
  -4   1   6 1735.03    9.50
   4  -1   6 1578.54    8.50
  -4  -1   6 1694.83   11.10
   4   1   6 1580.14    8.90
   4   1  -6 1329.57   12.80
  -1   4  -6 1585.94    7.90
  -1   4   6 1756.02    7.60
   1   4   6 1721.13    8.60
  -4   1  -6 1392.76   39.60
  -1   4  -6 1571.64    7.40
  -4  -1   6 1389.76   11.00
   1   4  -6 1580.34    8.60
   4  -1  -6 1733.63   11.10
  -2   4  -6    6.30    5.50
  -4   2  -6   39.10    9.60
   4  -2  -6   12.50    6.20
  -4   2   6   11.40    8.80
   4  -2   6    0.90    6.40
  -4   2   6    6.10    6.30
   4   2  -6    9.10    8.40
   4   2   6   60.29    7.20
  -2   4   6    6.10    5.00
   2   4   6    9.50    6.60
   2   4  -6    8.90    6.30
  -4  -2   6   10.60   11.70
  -2   4  -6    9.30    5.20
  -4  -2   6    4.40   17.00
  -4   2  -6   16.70    7.20
   2  -4  -6    6.00    5.30
   2   4  -6    7.80    8.20
   0   0  -7 1037.40    8.00
   0   0   7  918.01    7.90
   0   1   7   23.80   10.30
   0   1  -7   38.70   11.80
  -1   0  -7   29.40    6.30
   1   0  -7   30.20    4.90
   0  -1  -7   27.10   11.50
   0  -1   7   31.50    8.70
   1   0   7   26.50    9.10
  -1   0   7   28.80    5.40
  -1   1  -7  617.54   11.60
  -1   1   7  718.83   12.60
   1   1  -7  623.44    8.40
   1  -1   7  573.24   11.10
   1  -1  -7  647.14   13.00
  -1  -1   7  622.24    7.70
  -1  -1  -7  582.94   13.40
   1   1   7  637.44    9.20
   0  -2  -7  620.74    7.40
   0   2   7  672.03    7.50
  -2   0  -7  680.23   11.10
   2   0  -7  637.34    7.30
   0  -2   7  640.74   12.20
   2   0   7  544.55   10.20
   0   2  -7  651.63    7.80
  -2   0   7  610.04    7.30
  -2   1  -7   20.00   10.60
   1   2  -7   18.30    8.90
   1  -2  -7   21.00    6.20
  -2   1  -7   21.90    6.20
  -2   1   7   23.60   10.10
   1   2   7   23.20    9.90
  -2  -1  -7   22.90    8.20
   2   1  -7   19.90    5.80
  -1   2   7   20.50    5.30
  -1  -2  -7   24.10    6.20
   1  -2   7   18.30    7.10
   2  -1   7   20.20    6.20
   2  -1  -7   22.70   12.90
  -2  -1   7   29.50    5.80
  -1   2  -7   20.10    5.00
  -1   2  -7   20.50    5.10
  -2   2  -7  428.96    6.80
   2  -2  -7  456.05    7.90
   2   2  -7  443.56   10.90
  -2   2   7  454.05    6.80
   2  -2   7  434.26    7.60
  -2  -2  -7  443.16   10.10
  -2  -2   7  448.26   15.20
  -2   2  -7  445.86    6.80
   2   2   7  420.66   13.40
   0   3  -7   20.40    6.10
   0   3   7   21.80    5.30
   3   0   7   22.10    6.40
   3   0  -7   16.00    7.70
   0  -3  -7   20.10    5.60
   0   3  -7   18.50    5.20
  -3   0   7   15.40    7.10
  -3   1  -7  270.87   17.50
  -1  -3  -7  268.17    6.40
  -3   1   7  288.07   14.80
  -3  -1   7  295.07    8.20
   1   3   7  308.97    6.80
   3   1  -7  270.87    6.90
  -1   3   7  295.07    5.20
   3  -1   7  251.77    6.80
   1  -3  -7  270.07    6.10
  -1   3  -7  265.97    5.60
   3   1   7  244.38    8.90
   3  -1  -7  324.97   13.00
  -1   3  -7  268.87    5.40
  -3  -1   7  252.77    6.80
  -3   1  -7  284.37    9.00
   1   3  -7  272.97    7.80
   2   3  -7   16.30   11.50
   3  -2  -7   23.70    7.20
  -3   2   7   19.80    7.40
   2   3   7   21.50   12.00
   3   2  -7   18.00    7.00
   3  -2   7   17.70    6.50
   2  -3  -7   15.10    5.60
  -2   3   7   56.99    5.10
  -2   3  -7   16.50    5.80
  -3  -2   7   15.90   13.50
   3   2   7    8.70   10.40
  -3  -2   7   18.50    9.90
  -2   3  -7   15.70    5.10
  -3   2  -7   14.90    6.80
  -3   2  -7   18.10    6.70
  -2  -3  -7   18.70    9.30
   3   3  -7  124.89   11.70
  -3   3   7  131.59    6.80
   3  -3  -7  130.09    7.30
   3   3   7  120.89   15.00
  -3   3  -7  126.79    6.60
  -3   3  -7  129.49    7.50
   0  -4  -7  198.08    6.70
  -4   0   7  220.98    8.60
   4   0   7  179.58    7.10
   0   4  -7  203.28    6.90
   0   4   7  207.18    5.70
   4   0  -7  176.18   12.70
   0   4  -7  208.08    6.50
  -4   0   7  194.78    7.70
  -4   1   7   15.70   13.20
  -4   1   7  102.59    8.90
   1   4  -7   17.60    7.00
   4  -1   7   14.30    7.30
  -4  -1   7   15.90    9.80
   1   4   7   12.70    6.10
  -1   4   7   14.10    5.30
   4   1   7   14.30    7.20
   4   1  -7   30.40    7.80
  -1   4  -7   12.10    6.20
  -1   4  -7   14.30    5.40
  -1  -4  -7   23.00    7.20
  -4  -1   7   13.40    7.50
   1  -4  -7   11.10    6.20
   4  -1  -7   16.00   11.00
   1   4  -7   16.80    6.90
   2   4  -7  144.89   10.80
  -2   4  -7  143.79    6.80
   4  -2  -7  153.68    8.80
  -4   2  -7  151.28   12.80
  -4   2   7  136.39   11.90
   4  -2   7  145.39    8.30
   4   2  -7  143.29    8.40
   2   4   7  151.28    9.00
   2   4  -7  148.79    8.50
  -2   4   7  135.49    5.90
   4   2   7  142.49    9.50
  -4  -2   7  153.08   18.30
  -4  -2   7  121.79   12.70
   2  -4  -7  141.99    6.70
  -2   4  -7  140.99    6.20
  -4   2  -7  143.49   10.20
   0   0  -8 4383.06   13.40
   0   0   8 4155.48   13.30
   0   1   8 1215.78   10.10
   0   1  -8 1348.07   11.00
  -1   0  -8 1415.86   10.00
   1   0  -8 1391.16    8.20
   0  -1   8 1298.57   10.30
   0  -1  -8 1329.97   11.30
   1   0   8 1364.86   11.80
  -1   0   8 1277.37    8.30
  -1   1   8  179.48   10.00
  -1   1  -8  214.68   12.50
   1   1  -8  204.08    6.40
   1  -1   8  209.48   15.90
   1  -1  -8  196.28    7.60
  -1  -1   8  191.08    6.10
  -1  -1  -8  229.18   15.20
   1   1   8  203.88    7.10
   0   2  -8 3093.09   14.90
   0  -2  -8 2992.10   15.80
   0   2   8 3391.96   16.90
   2   0  -8 3406.16   11.40
  -2   0  -8 3498.05   18.00
   0  -2   8 3164.08   24.90
   2   0   8 3547.34   22.00
  -2   0   8 3081.89   11.40
   1  -2  -8 1042.70   11.40
  -2   1   8 1071.19   14.70
   1   2   8 1181.28   19.70
   1   2  -8 1140.49   15.90
  -2   1  -8 1254.07   19.80
  -2  -1  -8 1011.10   16.70
  -1   2   8 1133.69    9.70
   2   1  -8 1153.38    8.10
  -1  -2  -8 1042.70   10.80
   1  -2   8 1068.59   13.20
  -2   1  -8 1086.89   11.30
   2  -1   8 1007.20   12.70
  -1  -2   8 1107.19   34.00
   2  -1  -8  974.20   10.30
  -2  -1   8 1092.99    8.10
  -1   2  -8 1105.19    9.80
   2  -2  -8 2374.36   15.30
  -2   2  -8 2451.85   12.40
   2   2  -8 2511.95   13.20
  -2  -2  -8 2510.65   18.20
  -2   2   8 2542.65   13.10
   2  -2   8 2452.45   14.60
  -2  -2   8 2579.94   29.50
   2   2   8 2475.55   18.20
  -2   2  -8 2541.75   13.40
   0   3   8  958.20    8.30
   3   0   8  825.02   11.90
   0  -3  -8  865.61    8.90
   3   0  -8  892.81    8.60
   0   3  -8  915.81    8.50
  -3   0   8  862.31    8.40
   1   3  -8  219.58    9.60
  -3   1   8  217.98   12.20
  -3   1  -8  247.18   11.10
  -3   1  -8  243.28   15.70
   1   3   8  254.77    9.30
  -1   3   8  254.07    6.50
  -3  -1   8  257.47   11.20
   1  -3  -8  236.48    7.90
   3   1  -8  245.68    6.70
   3  -1   8  225.18    9.70
   3   1   8  225.18   13.60
  -1   3  -8  234.78    8.10
   3  -1  -8  193.18   11.40
  -3  -1   8  221.58    6.70
  -1   3  -8  242.78    6.80
  -1  -3  -8  230.08    7.90
  -3   2  -8  754.72   10.80
   3  -2  -8  749.82   13.40
   2   3  -8  793.22   18.50
   2   3   8  797.52   29.10
  -3   2   8  744.63   11.80
   3   2  -8  753.22    9.00
  -2   3   8  774.62    7.90
  -2  -3  -8  752.32   14.10
   2  -3  -8  731.43    9.50
   3  -2   8  730.73   11.50
  -3  -2   8  761.42   24.30
  -2   3  -8  750.32    9.00
   3   2   8  814.32   19.10
  -3  -2   8  655.23    9.80
  -2   3  -8  727.63    8.10
  -3   2  -8  743.73   11.60
   0  -4  -8 1384.66   10.90
  -4   0   8 1719.93   15.40
   0   4   8 1563.54    9.90
   4   0   8 1403.76   12.70
   0   4  -8 1493.35   10.90
   4   0  -8 1349.16   11.80
   0   4  -8 1525.65    9.50
  -4   0   8 1437.66   10.30
  -4   1   8  519.35   12.30
  -4   1   8  760.22   13.60
   1   4   8  651.83    9.90
   4  -1   8  601.14   10.60
  -1   4   8  650.73    7.70
  -4  -1   8  667.03   15.50
   4   1   8  562.64   12.90
   4   1  -8  608.04    8.60
  -1  -4  -8  563.84   10.90
  -1   4  -8  593.44    9.40
  -4  -1   8  577.44    8.70
   1  -4  -8  606.54    9.20
  -1   4  -8  622.54    8.00
   1   4  -8  566.84   11.20
   4  -1  -8  620.64   19.70
   1   4  -8  625.94   10.10
   0   0  -9  152.68    5.80
   0   0   9  151.78    5.90
   0   1  -9  211.98    6.60
  -1   0  -9  226.88    6.50
   1   0  -9  275.97    5.60
   1   0   9  207.78    7.30
   0  -1  -9  217.48    7.80
  -1   0   9  202.08    5.50
   0   1   9  196.68    7.60
  -1   1   9 2826.12   12.70
  -1   1  -9 3107.99   14.80
   1   1  -9 3048.50   11.50
   1  -1   9 3025.90   18.00
   1  -1  -9 3084.49   12.00
  -1  -1   9 2979.60   10.80
  -1  -1  -9 3260.37   17.60
   1   1   9 3019.50   13.20
   0   2  -9  188.18   14.20
   0  -2  -9  170.58   14.50
   0   2   9  178.98   15.00
   0  -2   9  175.98   22.90
   2   0  -9  188.58    5.90
  -2   0  -9  195.38    8.60
   2   0   9  188.98   11.60
  -2   0   9  169.38    6.10
   1   2   9  148.59   10.30
  -2   1   9  156.08    8.80
   1  -2  -9  185.48   14.70
  -1   2  -9  146.49   11.60
  -1   2   9  164.38   12.50
  -2  -1  -9  172.98   23.80
   1   2  -9  164.18   10.20
  -2   1  -9  169.18    9.90
  -1  -2  -9  148.99   12.90
   2   1  -9  172.08    6.10
   1  -2   9  164.78   15.90
   2  -1   9  179.88   16.00
  -1  -2   9  159.38   23.10
   2  -1  -9  169.78    7.20
  -2  -1   9  157.08    6.20
  -2   1  -9  162.48   12.90
  -2  -2  -9  176.88   13.70
   2  -2  -9  167.08   13.20
  -2   2  -9  178.08   12.70
  -2   2   9  183.58   12.10
   2   2  -9  187.58    7.90
  -2   2  -9  184.08   11.10
   2  -2   9  165.68   13.40
  -2  -2   9  185.58   31.30
   2   2   9  192.58   10.80
   0   3  -9  135.09    9.60
   0   3   9  149.29    9.50
   0  -3  -9  129.49   10.80
   3   0   9  149.19   18.70
   3   0  -9  144.19    7.00
  -3   0   9  136.49    7.40
  -3   1   9 1688.23   12.90
  -1   3  -9 1753.02   15.30
   1   3  -9 1763.02   17.10
   1   3   9 1944.71   20.70
  -3   1  -9 1867.61   18.90
  -1   3   9 1887.11   12.10
  -3   1  -9 1933.61   17.70
  -3  -1   9 1986.10   24.30
   1  -3  -9 1672.43   14.60
   3   1  -9 1954.10    9.80
   3  -1   9 1690.73   17.60
   3   1   9 2107.49   18.40
  -3  -1   9 1754.72    9.70
   3  -1  -9 1814.32   12.00
  -1  -3  -9 1661.33   14.70
  -1   3  -9 1892.91   12.20
   2   3   9  108.69   15.10
   3  -2  -9  123.39   16.60
  -3   2  -9  102.69   17.00
  -3   2  -9  107.69   12.20
  -2  -3  -9  111.39   16.00
  -3   2   9  119.09   17.30
   2   3  -9  132.09   13.40
  -2   3   9  114.29    9.40
   3   2  -9  124.89    7.80
   2  -3  -9  109.49   12.40
   3  -2   9  107.69   14.20
  -3  -2   9  120.69   32.70
   3   2   9  115.29   12.30
  -2   3  -9   98.49   10.40
  -3  -2   9  102.89    7.80
  -2   3  -9  117.29    9.00
   0   0 -10   68.69    5.60
   0   0  10   63.59    5.70
   0   1 -10   14.20    6.70
   1   0 -10   16.50    5.50
  -1   0 -10   17.20    6.40
   0  -1 -10   19.40    6.30
  -1   0  10   43.70    5.70
   0   1  10   15.90    6.30
  -1   1 -10 1103.19   10.20
   1   1 -10 1089.59    8.00
   1  -1  10 1056.99   11.90
  -1  -1  10 1038.80    7.50
   1  -1 -10 1126.09    8.80
   1   1  10 1019.10    9.50
  -1  -1 -10 1106.69   11.70
  -1   1  10  995.70    9.50
   0   2  10   30.70   10.90
   0  -2 -10   30.90   11.80
   0   2 -10   32.00   11.00
   0  -2  10   30.80   17.40
   2   0 -10   33.50    5.60
  -2   0 -10   32.60    8.50
   2   0  10   40.60    8.60
  -2   0  10   39.00    6.00
  -2   1  10   20.50    7.70
   1  -2 -10   10.40    9.90
  -1   2  10   10.40   14.70
  -1   2 -10   16.80   17.10
  -2  -1 -10   26.60   21.50
   1   2 -10    7.70    8.20
  -1  -2 -10   18.20   20.20
  -2   1 -10   13.10    8.60
   2   1 -10   22.10    6.10
   1  -2  10   14.90   18.90
   2  -1  10   16.10   12.60
  -1  -2  10   13.90   18.80
  -2  -1  10    6.20    6.10
   2  -1 -10   13.80    6.50
   1   2  10   15.60    8.90
  -2   1 -10   15.80   20.30
   2  -2 -10   16.10   10.00
  -2   2  10    5.80   16.30
  -2   2 -10   19.70   20.10
   2   2 -10   18.10    7.50
   2  -2  10   16.00   22.50
  -2   2 -10   13.60   18.30
  -2  -2  10   13.90   36.90
   2   2  10   28.80   11.10
  -2  -2 -10   23.70   22.30
   0   3 -10    9.50   15.10
   0   3  10    6.50   17.20
   0  -3 -10   10.80   17.50
   3   0  10   11.70   12.90
   3   0 -10   12.90    6.80
  -3   0  10   11.30    7.00
   0   0 -11 3666.83   12.30
   0   0  11 3351.96   11.80
   0   1 -11   52.39    6.80
   1   0 -11   50.99    6.20
  -1   0 -11   50.79    7.10
   0  -1 -11   49.60    6.90
  -1   0  11   47.00    6.20
   0   1  11   50.19    6.70
  -1   1 -11  467.05    8.20
   1   1 -11  473.05    7.50
   1  -1  11  419.86    9.80
  -1  -1  11  412.26    7.10
   1   1  11  426.66    8.40
   1  -1 -11  456.35    7.50
  -1  -1 -11  462.85    9.60
  -1   1  11  417.56    8.00
   0   0   0    0.00    0.00


_computing_structure_solution     'SHELXT 2018/2 (Sheldrick, 2018)'
_computing_structure_solution     'SHELXT 2014/5 (Sheldrick, 2014)'
;
_shelx_hkl_checksum              13200
_olex2_submission_special_instructions 'No special instructions were received'
loop_
_space_group_symop_operation_xyz
'x, y, z'
'-x+1/2, -y+1/2, -z'
'-y+1/2, x+1/2, z'
'-x, -y, z'
'y+1/2, -x+1/2, z'
'y, -x, -z'
'-y, x, -z'
'x+1/2, -y+1/2, -z'
'-x+1/2, y+1/2, -z'
'y, x, -z'
'-y, -x, -z'
'x+1/2, y+1/2, -z'
'-x, y, z'
'x, -y, z'
'-y+1/2, -x+1/2, z'
'y+1/2, x+1/2, z'
loop_
_atom_site_label
_atom_site_type_symbol
_atom_site_fract_x
_atom_site_fract_y
_atom_site_fract_z
_atom_site_U_iso_or_equiv
_atom_site_adp_type
_atom_site_occupancy
_atom_site_site_symmetry_order
_atom_site_calc_flag
_atom_site_refinement_flags_posn
_atom_site_refinement_flags_adp
_atom_site_refinement_flags_occupancy
_atom_site_disorder_assembly
_atom_site_disorder_group
Nd1 Nd 0.000000 0.500000 0.27234(8) 0.0118(3) Uani 1 8 d S T P . .
Te1 Te 0.000000 0.500000 0.63188(8) 0.0089(3) Uani 1 8 d S T P . .
Te2 Te 0.000000 0.000000 0.000000 0.0255(5) Uani 0.923(6) 8 d S T . . .
loop_
_atom_site_aniso_label
_atom_site_aniso_U_11
_atom_site_aniso_U_22
_atom_site_aniso_U_33
_atom_site_aniso_U_23
_atom_site_aniso_U_13
_atom_site_aniso_U_12
Nd1 0.0104(3) 0.0104(3) 0.0144(4) 0.000 0.000 0.000
Te1 0.0082(3) 0.0082(3) 0.0102(4) 0.000 0.000 0.000
Te2 0.0343(5) 0.0343(5) 0.0080(6) 0.000 0.000 0.000
loop_
_atom_type_symbol
_atom_type_description
_atom_type_scat_dispersion_real
_atom_type_scat_dispersion_imag
_atom_type_scat_source
Nd Nd -0.1943 3.0179 'International Tables Vol C Tables 4.2.6.8 and 6.1.1.4'
Te Te -0.5308 1.6751 'International Tables Vol C Tables 4.2.6.8 and 6.1.1.4'
loop_
_geom_angle_atom_site_label_1
_geom_angle_atom_site_label_2
_geom_angle_atom_site_label_3
_geom_angle
_geom_angle_site_symmetry_1
_geom_angle_site_symmetry_3
_geom_angle_publ_flag
Te1 Nd1 Te1 74.557(18) . 2_566 ?
Te1 Nd1 Te1 85.934(9) 2_456 2_556 ?
Te1 Nd1 Te1 74.557(18) . 2_556 ?
Te1 Nd1 Te1 74.557(18) . 2_456 ?
Te1 Nd1 Te1 85.934(9) 2_456 2_466 ?
Te1 Nd1 Te1 149.11(4) 2_566 2_456 ?
Te1 Nd1 Te1 85.934(9) 2_566 2_556 ?
Te1 Nd1 Te1 74.557(18) . 2_466 ?
Te1 Nd1 Te1 85.934(9) 2_566 2_466 ?
Te1 Nd1 Te1 149.11(4) 2_466 2_556 ?
Te1 Nd1 Te2 138.004(10) . 2 ?
Te1 Nd1 Te2 130.838(16) 2_466 . ?
Te1 Nd1 Te2 130.838(16) 2_566 . ?
Te1 Nd1 Te2 130.838(16) 2_466 2 ?
Te1 Nd1 Te2 138.004(10) . . ?
Te1 Nd1 Te2 138.004(10) . 1_565 ?
Te1 Nd1 Te2 75.041(14) 2_456 . ?
Te1 Nd1 Te2 130.838(16) 2_456 1_565 ?
Te1 Nd1 Te2 75.041(14) 2_556 . ?
Te1 Nd1 Te2 130.838(16) 2_556 1_565 ?
Te1 Nd1 Te2 130.838(16) 2_456 2 ?
Te1 Nd1 Te2 138.004(10) . 2_455 ?
Te1 Nd1 Te2 75.041(14) 2_556 2 ?
Te1 Nd1 Te2 130.838(16) 2_566 2_455 ?
Te1 Nd1 Te2 75.041(14) 2_566 1_565 ?
Te1 Nd1 Te2 75.041(14) 2_456 2_455 ?
Te1 Nd1 Te2 75.041(14) 2_466 1_565 ?
Te1 Nd1 Te2 75.041(14) 2_466 2_455 ?
Te1 Nd1 Te2 130.838(16) 2_556 2_455 ?
Te1 Nd1 Te2 75.041(14) 2_566 2 ?
Te2 Nd1 Te2 83.99(2) 2_455 2 ?
Te2 Nd1 Te2 56.472(12) 2_455 . ?
Te2 Nd1 Te2 83.99(2) . 1_565 ?
Te2 Nd1 Te2 56.472(12) . 2 ?
Te2 Nd1 Te2 56.472(12) 2_455 1_565 ?
Te2 Nd1 Te2 56.472(12) 2 1_565 ?
Nd1 Te1 Nd1 85.934(9) 2_566 2_556 ?
Nd1 Te1 Nd1 85.934(9) 2_456 2_466 ?
Nd1 Te1 Nd1 85.934(9) 2_566 2_466 ?
Nd1 Te1 Nd1 149.11(4) 2_466 2_556 ?
Nd1 Te1 Nd1 105.443(18) . 2_556 ?
Nd1 Te1 Nd1 105.443(18) . 2_466 ?
Nd1 Te1 Nd1 85.934(9) 2_456 2_556 ?
Nd1 Te1 Nd1 105.443(18) . 2_456 ?
Nd1 Te1 Nd1 149.11(4) 2_566 2_456 ?
Nd1 Te1 Nd1 105.443(18) . 2_566 ?
Nd1 Te2 Nd1 123.528(12) 2 . ?
Nd1 Te2 Nd1 123.527(12) 1_545 2 ?
Nd1 Te2 Nd1 83.99(2) 2_455 2 ?
Nd1 Te2 Nd1 123.527(12) 2_455 1_545 ?
Nd1 Te2 Nd1 83.99(2) 1_545 . ?
Nd1 Te2 Nd1 123.528(12) 2_455 . ?
Te2 Te2 Nd1 118.236(6) 2_455 1_545 ?
Te2 Te2 Nd1 118.236(6) 2 1_545 ?
Te2 Te2 Nd1 61.764(6) 2_445 1_545 ?
Te2 Te2 Nd1 118.236(6) 2 2_455 ?
Te2 Te2 Nd1 118.236(6) 2_445 . ?
Te2 Te2 Nd1 61.764(6) 2_445 2_455 ?
Te2 Te2 Nd1 118.236(6) 2_545 2_455 ?
Te2 Te2 Nd1 118.236(6) 2_545 . ?
Te2 Te2 Nd1 61.764(6) 2 . ?
Te2 Te2 Nd1 61.764(6) 2_455 2_455 ?
Te2 Te2 Nd1 61.764(6) 2_455 . ?
Te2 Te2 Nd1 118.236(6) 2_455 2 ?
Te2 Te2 Nd1 61.764(6) 2_545 2 ?
Te2 Te2 Nd1 61.764(6) 2 2 ?
Te2 Te2 Nd1 118.236(6) 2_445 2 ?
Te2 Te2 Nd1 61.764(6) 2_545 1_545 ?
Te2 Te2 Te2 90.0 2_445 2_545 ?
Te2 Te2 Te2 90.0 2_445 2_455 ?
Te2 Te2 Te2 90.0 2 2_455 ?
Te2 Te2 Te2 180.0 2_455 2_545 ?
Te2 Te2 Te2 90.0 2 2_545 ?
Te2 Te2 Te2 180.0 2 2_445 ?
loop_
_geom_bond_atom_site_label_1
_geom_bond_atom_site_label_2
_geom_bond_distance
_geom_bond_site_symmetry_2
_geom_bond_publ_flag
Nd1 Te1 3.2462(11) . ?
Nd1 Te1 3.2479(5) 2_456 ?
Nd1 Te1 3.2479(5) 2_556 ?
Nd1 Te1 3.2479(5) 2_566 ?
Nd1 Te1 3.2479(5) 2_466 ?
Nd1 Te2 3.3086(6) 2_455 ?
Nd1 Te2 3.3086(6) 1_565 ?
Nd1 Te2 3.3086(6) 2 ?
Nd1 Te2 3.3086(6) . ?
Te2 Te2 3.1306(4) 2 ?
Te2 Te2 3.1306(4) 2_455 ?
Te2 Te2 3.1306(4) 2_545 ?
Te2 Te2 3.1306(4) 2_445 ?

_cod_database_fobs_code 2108702
