#------------------------------------------------------------------------------
#$Date: 2023-12-11 23:40:09 +0200 (Mon, 11 Dec 2023) $
#$Revision: 288219 $
#$URL: file:///home/coder/svn-repositories/cod/cif/2/10/86/2108699.cif $
#------------------------------------------------------------------------------
#
# This file is available in the Crystallography Open Database (COD),
# http://www.crystallography.net/. The original data for this entry
# were provided by IUCr Journals, http://journals.iucr.org/.
#
# The file may be used within the scientific community so long as
# proper attribution is given to the journal article from which the
# data were obtained.
#
data_2108699
loop_
_publ_author_name
'Lindenthal, Lorenz'
'Ruh, Thomas'
'Rameshan, Raffael'
'Summerer, Harald'
'Nenning, Andreas'
'Herzig, Christopher'
'L\"offler, Stefan'
'Limbeck, Andreas'
'Opitz, Alexander Karl'
'Blaha, Peter'
'Rameshan, Christoph'
_publ_section_title
;
 Ca-doped rare earth perovskite materials for tailored exsolution of metal
 nanoparticles
;
_journal_issue                   6
_journal_name_full               'Acta Crystallographica Section B'
_journal_paper_doi               10.1107/S2052520620013475
_journal_volume                  76
_journal_year                    2020
_chemical_formula_structural     'Nd0.5 Ca0.5 Fe O3'
_chemical_formula_sum            'Ca0.5 Fe Nd0.5 O3'
_chemical_formula_weight         196.00
_chemical_name_common            'Neodymium calcium ferrite'
_chemical_name_systematic        'Neodymium calcium iron oxide'
_space_group_crystal_system      triclinic
_space_group_IT_number           2
_space_group_name_Hall           '-P 1'
_space_group_name_H-M_alt        'P -1'
_cell_angle_alpha                90.000000
_cell_angle_beta                 90.000000
_cell_angle_gamma                90.000000
_cell_formula_units_Z            4
_cell_length_a                   5.568580
_cell_length_b                   7.757502
_cell_length_c                   5.451869
_cell_measurement_temperature    0.0
_cell_volume                     235.511
_cod_data_source_file            je5034sup1.cif
_cod_data_source_block           Nd0.6_DFT
_cod_original_cell_volume        235.5113
_cod_original_formula_sum        'Nd0.5 Ca0.5 Fe O3'
_cod_database_code               2108699
_refine_date                     '29- 6-2020'
_refine_method                   'generated from Wien2k code'
loop_
_symmetry_equiv_pos_as_xyz
+x,+y,+z
-x,-y,-z
loop_
_atom_site_label
_atom_site_type_symbol
_atom_site_fract_x
_atom_site_fract_y
_atom_site_fract_z
_atom_site_U_iso_or_equiv
Nd001 Nd01 0.44658262 0.25331324 0.01030309 0.05000000
Ca002 Ca02 0.05073449 0.74297654 0.51478390 0.05000000
Fe003 Fe03 0.00000000 0.00000000 0.00000000 0.05000000
Fe004 Fe04 0.50000000 0.50000000 0.50000000 0.05000000
Fe005 Fe05 0.50000000 0.00000000 0.50000000 0.05000000
Fe006 Fe06 0.00000000 0.50000000 0.00000000 0.05000000
O0007 O07 0.52484237 0.23563919 0.58064122 0.05000000
O0008 O08 0.98819820 0.76413096 0.09016556 0.05000000
O0009 O09 0.19171151 0.05554936 0.27146357 0.05000000
O0010 O10 0.70142574 0.46419984 0.20171454 0.05000000
O0011 O11 0.31686574 0.95929633 0.78328635 0.05000000
O0012 O12 0.79051794 0.54457361 0.70952611 0.05000000
