#------------------------------------------------------------------------------
#$Date: 2018-04-30 19:32:52 +0300 (Mon, 30 Apr 2018) $
#$Revision: 207565 $
#$URL: file:///home/coder/svn-repositories/cod/cif/2/24/24/2242481.cif $
#------------------------------------------------------------------------------
#
# This file is available in the Crystallography Open Database (COD),
# http://www.crystallography.net/. The original data for this entry
# were provided by IUCr Journals, http://journals.iucr.org/.
#
# The file may be used within the scientific community so long as
# proper attribution is given to the journal article from which the
# data were obtained.
#
data_2242481
loop_
_publ_author_name
'Louis-Jean, James'
'Mariappan Balasekaran, Samundeeswari'
'Smith, Dean'
'Salamat, Ashkan'
'Pham, Chien Thang'
'Poineau, Frederic'
_publ_section_title
;
 Syntheses, Raman spectroscopy and crystal structures of alkali
 hexafluoridorhenates(IV) revisited
;
_journal_coeditor_code           WM5432
_journal_issue                   5
_journal_name_full               'Acta Crystallographica Section E'
_journal_page_first              646
_journal_page_last               649
_journal_paper_doi               10.1107/S2056989018005297
_journal_volume                  74
_journal_year                    2018
_chemical_formula_iupac          'Rb2 [Re F6]'
_chemical_formula_moiety         'F6 Re, 2(Rb)'
_chemical_formula_sum            'F6 Rb2 Re'
_chemical_formula_weight         471.14
_chemical_name_common            Rb2ReF6
_chemical_name_systematic
;
Dirubidium hexafluoridorhenate(IV)
;
_space_group_crystal_system      trigonal
_space_group_IT_number           164
_space_group_name_Hall           '-P 3 2"'
_space_group_name_H-M_alt        'P -3 m 1'
_symmetry_space_group_name_Hall  '-P 3 2"'
_symmetry_space_group_name_H-M   'P -3 m 1'
_atom_sites_solution_primary     heavy
_atom_sites_solution_secondary   difmap
_cell_angle_alpha                90
_cell_angle_beta                 90
_cell_angle_gamma                120
_cell_formula_units_Z            1
_cell_length_a                   5.9926(13)
_cell_length_b                   5.9926(13)
_cell_length_c                   4.7177(10)
_cell_measurement_reflns_used    1612
_cell_measurement_temperature    100.(2)
_cell_measurement_theta_max      28.3206
_cell_measurement_theta_min      3.9264
_cell_volume                     146.72(5)
_computing_cell_refinement
;
SAINT (Bruker, 2015)
;
_computing_data_collection
;
APEX3 (Bruker, 2015)
;
_computing_data_reduction
;
SAINT (Bruker, 2015)
;
_computing_molecular_graphics
;
DIAMOND (Brandenburg, 2007)
;
_computing_publication_material
;
publCIF (Westrip, 2010)
;
_computing_structure_refinement
;
SHELXL2014 (Sheldrick, 2015)
;
_computing_structure_solution
;
SHELXS (Sheldrick, 2008)
;
_diffrn_ambient_temperature      100.(2)
_diffrn_detector_area_resol_mean 8.3333
_diffrn_measured_fraction_theta_full 1.000
_diffrn_measured_fraction_theta_max 1.000
_diffrn_measurement_device_type  'Bruker D8 QUEST'
_diffrn_measurement_method       '\f and \w scans'
_diffrn_radiation_monochromator  'curved graphite'
_diffrn_radiation_type           'Mo K\a'
_diffrn_radiation_wavelength     0.71073
_diffrn_reflns_av_R_equivalents  0.0729
_diffrn_reflns_limit_h_max       7
_diffrn_reflns_limit_h_min       -7
_diffrn_reflns_limit_k_max       7
_diffrn_reflns_limit_k_min       -7
_diffrn_reflns_limit_l_max       5
_diffrn_reflns_limit_l_min       -5
_diffrn_reflns_number            1526
_diffrn_reflns_theta_full        24.93
_diffrn_reflns_theta_max         24.93
_diffrn_reflns_theta_min         3.93
_exptl_absorpt_coefficient_mu    37.220
_exptl_absorpt_correction_T_max  0.30
_exptl_absorpt_correction_T_min  0.11
_exptl_absorpt_correction_type   numerical
_exptl_absorpt_process_details
;
(<i>SADABS</i>; Bruker, 2015)
;
_exptl_crystal_colour            'translucent colourless'
_exptl_crystal_density_diffrn    5.332
_exptl_crystal_density_method    'not measured'
_exptl_crystal_description       'hexagonal plate'
_exptl_crystal_F_000             203
_exptl_crystal_size_max          0.080
_exptl_crystal_size_mid          0.074
_exptl_crystal_size_min          0.042
_refine_diff_density_max         1.907
_refine_diff_density_min         -1.363
_refine_ls_extinction_method     none
_refine_ls_goodness_of_fit_ref   1.300
_refine_ls_hydrogen_treatment    undef
_refine_ls_matrix_type           full
_refine_ls_number_parameters     12
_refine_ls_number_reflns         115
_refine_ls_number_restraints     0
_refine_ls_restrained_S_all      1.300
_refine_ls_R_factor_all          0.0288
_refine_ls_R_factor_gt           0.0273
_refine_ls_shift/su_max          0.000
_refine_ls_shift/su_mean         0.000
_refine_ls_structure_factor_coef Fsqd
_refine_ls_weighting_details
'w=1/[\s^2^(Fo^2^)+(0.0175P)^2^+3.5548P] where P=(Fo^2^+2Fc^2^)/3'
_refine_ls_weighting_scheme      calc
_refine_ls_wR_factor_gt          0.0727
_refine_ls_wR_factor_ref         0.0738
_reflns_number_gt                111
_reflns_number_total             115
_reflns_threshold_expression     'I > 2\s(I)'
_cod_data_source_file            wm5432sup1.cif
_cod_data_source_block           SMB_Rb2ReF6_j
_cod_original_cell_volume        146.72(7)
_cod_database_code               2242481
_shelx_hkl_file
;
   1   0   0  952.60   85.99
   1   0   0  952.80   84.59
  -1   1   0  978.20   84.79
  -1   1   0  960.70   84.59
   1   0   0 1025.60   86.09
  -1   0   0 1020.30   84.59
   1  -1   0 1004.10   85.79
   0   1   0  890.31   84.29
   0   1   0  814.52   84.99
   1  -1   0 1086.49   87.79
   1   1   0 5215.18  432.56
   1  -2   0 5278.97  442.26
   1   1   0 5051.89  435.56
   1  -2   0 5227.38  438.46
  -2   1   0 4761.62  432.16
  -1  -1   0 4929.71  434.66
   2  -1   0 5520.55  435.16
   2  -1   0 4468.25  434.26
  -1   2   0 4225.78  432.26
  -1   2   0 4890.61  431.96
   0  -2   0   81.29   13.50
   2   0   0   53.29    5.80
  -2   2   0   54.39    6.40
  -2   2   0   49.20    5.80
   2   0   0   56.89    9.10
   2   0   0   62.99    9.10
   0   2   0   50.29    7.00
   2  -2   0   61.79   11.00
   0   2   0   59.99   11.30
  -2   0   0   54.89    5.80
   2  -2   0   54.49    8.20
   2  -3   0  444.16   41.50
   1   2   0  438.76   43.80
   2  -3   0  287.87   46.30
  -3   1   0  413.16   36.50
   1   2   0  397.06   37.50
   3  -1   0  433.86   40.30
  -2   3   0  356.86   36.60
  -2   3   0  359.56   36.50
  -1  -2   0  452.85   42.10
   3  -1   0  438.96   40.90
  -3   2   0  399.66   35.20
   1  -3   0  533.55   51.29
   2   1   0  383.86   35.20
   2   1   0  372.36   39.70
   3  -2   0  388.06   38.70
  -2  -1   0  372.66   38.20
  -2  -1   0  373.06   34.00
  -1   3   0  390.46   35.90
  -1   3   0  334.27   34.30
   3  -2   0  409.86   38.20
  -3   3   0 3377.86  296.07
   3   0   0 3522.35  295.37
   3   0   0 3606.24  300.17
   3   0   0 3404.56  300.47
  -3   3   0 3036.60  295.07
  -3   0   0 3463.15  295.27
   0   3   0 3443.36  297.17
   0   3   0 3024.60  303.17
   3  -3   0 3382.56  298.97
   3  -3   0 3477.95  302.17
   1   3   0  436.96   38.60
   3  -4   0  448.96   42.00
   3  -4   0  445.36   50.89
  -4   1   0  422.96   36.60
   1   3   0  370.76   45.90
   4  -1   0  433.76   42.00
   4  -1   0  360.66   41.40
  -3   4   0  377.66   36.90
  -3   4   0  344.47   36.60
  -1  -3   0  383.06   44.80
  -4   2   0 5200.48  474.85
   2   2   0 5651.73  475.85
   2   2   0 5801.72  483.45
   2  -4   0 6080.09  484.95
  -2   4   0 4996.30  474.45
   4  -2   0 5428.86  479.75
  -2  -2   0 5567.34  480.85
   4  -2   0 5098.49  478.65
  -2   4   0 5147.08  475.55
   1  -4   0  500.05   56.29
   3   1   0  346.97   41.60
  -4   3   0  388.66   35.90
   3   1   0  416.96   36.00
  -1   4   0  376.86   37.20
   4  -3   0  371.96   40.40
   4  -3   0  401.96   39.50
  -3  -1   0  389.26   34.50
  -3  -1   0  393.86   40.70
  -1   4   0  342.27   34.80
   4   0   0  101.79   16.80
   4   0   0  104.39   10.60
  -4   4   0   97.99   11.30
   0  -4   0   96.59   24.10
  -4   4   0   76.49    9.70
   0  -4   0  104.39   24.60
  -4   0   0  129.59   18.00
   4  -4   0   98.99   17.80
   0   4   0   90.19   12.90
   4  -4   0  108.49   15.10
  -4   0   0   88.09   10.00
   1   4   0 2011.30  174.38
   4  -5   0 2038.50  186.08
   4  -5   0 1888.01  177.38
  -5   1   0 2004.80  171.58
   1   4   0 1694.83  185.18
  -1  -4   0 2113.19  186.98
  -4   5   0 1706.03  171.48
  -4   5   0 1972.50  172.48
   5  -1   0 1986.20  179.58
   5  -1   0 2107.09  179.38
   3  -5   0  371.46   57.99
   2   3   0  352.76   46.50
  -5   2   0  405.36   35.90
   3  -5   0  407.36   43.40
   2   3   0  411.16   37.80
   5  -2   0  420.06   41.60
   5  -2   0  402.66   42.20
  -2  -3   0  354.26   43.60
  -3   5   0  333.47   35.60
  -3   5   0  361.56   36.40
  -5   3   0  422.16   36.00
   3   2   0  353.26   44.30
   3   2   0  409.36   36.60
   2  -5   0  415.26   50.19
   2  -5   0  256.87   56.49
  -2   5   0  337.77   34.80
  -2   5   0  388.06   37.10
  -3  -2   0  370.76   42.20
   5  -3   0  346.87   40.40
   5  -3   0  425.56   40.80
   4   1   0 1738.73  182.88
  -5   4   0 2021.20  175.08
   4   1   0 2181.88  175.08
   1  -5   0 1970.10  199.28
   5  -4   0 2006.00  179.58
   5  -4   0 1952.80  181.28
  -1   5   0 1991.00  176.98
  -4  -1   0 1870.61  181.98
   0  -5   0  121.29   36.60
   0  -5   0  139.49   34.40
   5   0   0  115.39   22.90
  -5   5   0  162.98   17.20
  -5   0   0  166.48   24.90
  -5   0   0  155.08   15.90
   5  -5   0  156.98   25.00
   0   5   0  147.69   19.00
   5  -5   0  169.58   21.80
   5  -6   0  177.98   24.20
  -6   1   0  132.29   24.80
  -6   1   0  170.88   17.10
   1   5   0  138.69   19.80
   5  -6   0  214.88   32.40
  -1  -5   0  163.88   36.10
  -1  -5   0  179.38   37.80
  -5   6   0  172.68   18.80
   6  -1   0  143.39   24.80
   4  -6   0  119.29   33.60
   4  -6   0   81.29   16.90
   2   4   0   60.29   12.20
  -6   2   0  101.09   10.80
   2   4   0   74.89   23.80
   6  -2   0   83.39   16.00
  -4   6   0   76.49   10.90
  -2  -4   0   95.69   23.80
  -4   6   0   86.49   11.70
   6  -2   0   88.49   17.20
  -6   3   0 1624.04  136.19
   3  -6   0 1641.24  147.19
   3   3   0 1710.83  137.99
   3  -6   0 1284.97  166.28
   3   3   0 1291.27  148.29
   6  -3   0 1499.05  142.69
  -3   6   0 1544.35  137.19
  -3  -3   0 1449.95  145.49
  -3   6   0 1457.95  135.69
   6  -3   0 1584.04  141.79
   4   2   0   74.69   20.30
   4   2   0   95.49   12.40
   2  -6   0   45.10   29.80
  -6   4   0   91.49   11.10
   2  -6   0   72.79   25.60
   6  -4   0   90.29   15.50
  -2   6   0   94.59   13.50
  -4  -2   0   63.69   17.30
   6  -4   0   90.39   16.80
   5   1   0  134.59   25.80
  -6   5   0  160.58   17.20
   1  -6   0   99.69   37.50
   1  -6   0   69.19   33.60
   6  -5   0  189.08   23.00
   6  -5   0  135.39   23.10
  -5  -1   0  145.09   25.50
  -1   6   0  150.58   19.10
   6   0   0 1694.03  168.48
  -6   6   0 1856.51  157.38
   0  -6   0 1543.05  184.08
   6  -6   0 1763.02  162.98
   0   6   0 1793.22  159.78
  -6   0   0 1692.93  167.88
   6  -6   0 1831.72  168.48
   6  -7   0  189.98   33.90
  -7   1   0  142.49   26.90
   1   6   0  164.08   21.10
  -1  -6   0  110.49   40.10
   7  -1   0  147.49   27.30
  -6   7   0  157.28   18.90
  -1  -6   0  112.89   38.50
   2   5   0  751.22  108.19
  -7   2   0 1043.80   99.79
   2   5   0 1019.20   93.09
   5  -7   0 1226.38  115.69
  -7   2   0 1075.09   89.99
  -2  -5   0  863.01  107.59
  -5   7   0 1011.70   91.09
   7  -2   0  919.21   98.59
  -7   3   0  117.29   13.40
   3   4   0  124.79   16.50
   4  -7   0  103.79   41.00
   3   4   0   97.29   27.70
  -3  -4   0  100.39   25.50
  -4   7   0   98.59   14.30
  -4   7   0  108.99   14.50
   7  -3   0  103.19   19.50
   7  -3   0  109.59   18.80
   4   3   0   83.09   24.10
  -7   4   0  114.29   12.90
   3  -7   0   34.50   35.60
   4   3   0  123.89   16.00
  -3   7   0   92.79   14.30
  -4  -3   0   65.99   20.70
   7  -4   0  106.79   17.50
   7  -4   0   92.39   18.50
   5   2   0  849.32  102.09
  -7   5   0 1027.60   88.89
   7  -5   0  944.11   94.19
   7  -5   0 1030.00   97.29
  -2   7   0 1010.40   91.19
  -5  -2   0  920.01  100.59
  -7   6   0  136.39   17.40
   6   1   0  132.39   28.90
   1  -7   0  120.19   47.20
   7  -6   0  163.58   24.00
  -1   7   0  143.19   20.30
   7  -6   0  141.59   25.60
  -6  -1   0  151.58   29.30
   4   4   0 1140.39   95.49
  -8   4   0 1092.09   92.29
   4  -8   0 1113.89  137.79
   4   4   0  784.92  109.19
   8  -4   0 1012.20  100.69
  -4   8   0  967.80   93.39
   8  -4   0 1048.30   99.39
  -4  -4   0  863.51  106.49
   0   0   1 1385.86  131.69
   0   0   1 1577.44  130.99
   0   1  -1  606.84   54.89
   0  -1   1  735.43   60.99
   0  -1   1  691.73   54.39
   1   0   1  626.74   54.99
   1   0   1  542.05   55.29
  -1   1   1  518.35   53.69
   1   0   1  597.14   55.39
  -1   1   1  587.14   54.29
  -1   1   1  603.04   54.69
   1   0   1  672.33   54.49
   0  -1  -1 7651.83  594.04
   1   0  -1 6480.75  591.54
   1   0  -1 6433.76  589.64
  -1   1  -1 5784.72  589.64
  -1   0   1 7228.08  591.34
   1  -1   1 6487.35  593.24
   0   1   1 7715.03  591.04
  -1   0   1 6884.01  589.54
   1  -1   1 6186.58  589.44
   2  -1  -1  731.73   66.49
   2  -1  -1  797.52   71.19
  -1   2  -1  686.43   66.29
   2  -1  -1  723.83   67.09
  -2   1   1  719.73   65.89
   1   1   1  898.51   66.59
   1   1   1  783.32   70.09
   1   1   1  654.93   67.09
   1   1   1  737.13   66.49
   1  -2   1  679.23   75.89
   1  -2   1  774.82   71.89
   3  -2  -1  403.56   37.90
  -1   3  -1  387.46   35.70
   3  -2  -1  413.76   43.40
  -1   3  -1  337.77   36.70
   2   1   1  401.86   36.80
   1  -3   1  353.16   51.49
   1  -3   1  473.35   49.80
  -3   2   1  390.96   36.30
   2   1   1  372.66   38.90
   2   1   1  405.66   41.70
   2   1   1  423.66   35.80
   0   2  -1 9485.75  770.62
   2  -2  -1 7476.05  766.92
   0   2  -1 8121.39  767.12
  -2   2   1 7635.84  766.52
  -2   2   1 9156.78  766.82
   2   0   1 9268.97  766.62
   0  -2   1 8525.85  765.92
   2   0   1 8632.94  769.42
   2   0   1 9225.58  767.02
   2   0   1 9223.98  769.82
   0  -2   1 9999.00  776.72
   1  -2  -1  707.73   74.69
  -2   1  -1  691.93   64.89
   1   1  -1  668.53   64.19
   1   1  -1  715.93   66.49
  -1   2   1  654.43   64.19
  -1  -1   1  734.83   64.59
   2  -1   1  718.03   65.09
   2  -1   1  723.83   64.09
  -1  -1   1  833.32   69.19
   2  -1   1  691.03   66.49
  -1   2   1  798.12   64.39
  -2   2  -1  112.09   11.80
   0  -2  -1  156.18   15.50
  -2   2  -1   99.09   11.70
   2   0  -1  144.39   16.50
   2   0  -1  107.19   11.50
   0  -2  -1  126.49   18.60
   0   2   1  107.19   12.40
  -2   0   1  115.49   14.40
   2  -2   1  132.19   17.30
   0   2   1  130.59   13.60
  -2   0   1  125.69   11.60
   2  -2   1  103.69   12.70
   3  -1  -1 3642.74  305.57
  -2   3  -1 3206.88  299.57
  -1  -2  -1 3570.44  302.77
   3  -1  -1 3329.17  298.37
  -2   3  -1 3289.37  299.17
   2  -3   1 3280.37  309.77
   1   2   1 3655.33  299.57
   1   2   1 3507.85  306.37
   1   2   1 3112.89  299.87
   2  -3   1 3415.46  304.97
  -3   1   1 3502.85  302.17
  -3   1   1 3489.25  299.27
   4  -2  -1  621.24   54.89
  -2   4  -1  625.74   51.49
  -2  -2  -1  567.74   56.19
  -2   4  -1  583.74   52.69
   4  -2  -1  570.44   58.49
   2   2   1  514.75   50.49
   2   2   1  568.34   52.59
   2  -4   1  439.46   65.39
   2   2   1  541.75   60.19
   2  -4   1  491.65   65.19
  -4   2   1  621.54   52.09
   5  -3  -1  151.78   19.40
  -2   5  -1  157.28   15.80
  -3  -2  -1  146.69   22.00
  -2   5  -1  170.78   18.40
   5  -3  -1  139.59   23.10
   3   2   1  138.79   25.80
   2  -5   1  121.59   36.90
   3   2   1  163.18   17.70
  -5   3   1  174.68   17.20
   2  -5   1  109.99   34.10
  -3  -1  -1 2648.14  243.48
   4  -3  -1 2922.81  247.08
  -1   4  -1 2774.62  245.98
  -1   4  -1 2755.52  243.58
  -3  -1  -1 2766.42  249.68
   4  -3  -1 2733.43  253.57
   3   1   1 2748.43  251.37
  -4   3   1 2771.82  244.98
   3   1   1 2858.41  245.08
   1  -4   1 2830.52  263.27
  -3   0  -1  733.83   66.69
   0   3  -1  624.84   67.99
   0   3  -1  742.33   65.99
   3  -3  -1  698.83   77.59
   0   3  -1  834.02   75.39
   3  -3  -1  751.82   68.69
   3   0   1  774.02   71.59
  -3   3   1  722.23   67.49
   0  -3   1  816.12   80.79
  -3   3   1  766.42   67.19
   3   0   1  754.82   71.79
   3   0   1  805.52   67.49
   2  -3  -1  372.46   35.30
   1   2  -1  446.66   41.00
  -3   1  -1  406.46   34.60
  -3   1  -1  288.37   35.10
   2  -3  -1  344.67   49.50
   1   2  -1  388.46   35.40
  -2   3   1  336.77   34.50
  -1  -2   1  412.46   42.30
   3  -1   1  392.26   37.50
  -2   3   1  355.86   34.70
   3  -1   1  431.36   39.20
   1  -3  -1 2908.81  291.27
   2   1  -1 3369.46  291.87
   1  -3  -1 3529.55  301.77
  -3   2  -1 3521.85  286.67
   2   1  -1 3254.97  287.37
  -3   2  -1 3250.37  287.27
  -1   3   1 3609.34  287.47
   3  -2   1 3081.09  290.87
   3  -2   1 3302.87  289.47
  -1   3   1 2986.90  287.57
  -2  -1   1 3244.98  291.87
   3   0  -1  375.56   39.20
   3   0  -1  371.46   32.90
  -3   3  -1  356.16   33.10
  -3   3  -1  326.77   33.20
   0  -3  -1  477.55   42.80
   0  -3  -1  365.06   43.50
  -3   0   1  350.96   37.20
  -3   0   1  376.36   32.90
   3  -3   1  327.37   35.40
   3  -3   1  343.57   39.00
   0   3   1  339.77   34.30
  -3   4  -1  216.28   22.10
  -3   4  -1  220.48   22.40
  -1  -3  -1  266.17   30.00
   4  -1  -1  239.88   29.10
   1   3   1  227.68   23.60
   3  -4   1  214.08   27.30
   3  -4   1  259.77   33.30
   1   3   1  193.68   21.40
  -4   1   1  250.17   27.20
   1   3   1  213.48   31.90
  -4   1   1  242.48   22.10
  -3   5  -1 2221.38  196.58
  -2  -3  -1 2123.09  204.08
   5  -2  -1 2337.27  201.38
   5  -2  -1 2171.38  204.58
  -3   5  -1 2214.88  197.38
   2   3   1 2347.67  198.48
  -5   2   1 2288.87  196.88
   3  -5   1 2232.78  212.48
   3  -5   1 2444.56  211.58
   2   3   1 1853.51  207.98
   6  -3  -1  286.07   31.80
   6  -3  -1  243.78   34.70
  -3   6  -1  258.57   28.10
  -3  -3  -1  251.27   35.30
  -3   6  -1  271.47   26.70
   3  -6   1  283.97   48.90
   3   3   1  298.27   29.30
  -6   3   1  302.17   27.80
   3  -6   1  288.37   46.60
   3   3   1  230.18   39.10
  -3   7  -1  126.79   16.50
   7  -4  -1  106.89   22.20
  -4  -3  -1  114.19   24.30
   7  -4  -1  110.39   18.00
   3  -7   1  138.39   36.10
  -7   4   1  114.49   14.60
   4   3   1   91.69   16.10
   4   3   1   75.09   24.50
  -4  -2  -1 2037.70  188.68
  -2   6  -1 1983.20  180.68
   6  -4  -1 1949.51  188.58
   6  -4  -1 2048.59  182.78
   2  -6   1 2111.79  215.38
   4   2   1 1588.14  188.68
  -6   4   1 2219.68  179.98
   4   2   1 2179.28  180.48
  -4  -1  -1  267.47   32.80
  -1   5  -1  239.28   27.00
   5  -4  -1  277.97   36.10
   5  -4  -1  258.77   28.00
   1  -5   1  151.88   41.40
   4   1   1  234.68   32.70
  -5   4   1  271.57   26.20
   4   1   1  277.97   26.30
   1  -5   1  238.08   49.70
  -4   0  -1    3.90    2.50
   0   4  -1    5.30    4.50
   4  -4  -1    2.80    3.90
   4  -4  -1   13.00   11.50
   0   4  -1   13.90   12.30
   0  -4   1   18.60   14.90
   4   0   1    7.90    6.30
  -4   4   1    0.40    3.30
  -4   4   1   -2.70    2.70
   4   0   1    2.10    3.10
   4   0   1   11.60    7.60
  -4   1  -1 2682.53  229.08
   3  -4  -1 2663.13  231.08
   1   3  -1 2492.15  230.48
   1   3  -1 2708.53  239.68
  -3   4   1 2488.75  229.28
   4  -1   1 2751.32  234.28
  -3   4   1 2530.05  229.48
  -1  -3   1 2520.55  239.58
   4  -1   1 2612.84  234.28
   2  -4  -1  562.44   55.79
   2   2  -1  620.04   54.59
   2   2  -1  646.84   61.69
  -4   2  -1  566.44   53.59
  -2   4   1  562.64   53.59
   4  -2   1  561.94   57.89
  -2   4   1  562.34   54.19
  -2  -2   1  611.04   60.99
   4  -2   1  651.53   57.89
   3   1  -1  189.38   26.90
  -4   3  -1  218.68   20.20
   1  -4  -1  165.58   29.30
   3   1  -1  240.38   21.70
  -4   3  -1  201.88   21.20
   1  -4  -1  226.58   36.40
  -3  -1   1  240.48   20.60
   4  -3   1  216.08   24.10
  -1   4   1  210.58   22.50
  -1   4   1  228.98   21.70
  -3  -1   1  185.48   26.10
   4  -3   1  239.68   26.80
  -4   4  -1 3496.85  312.67
   0  -4  -1 2898.81  323.57
   0  -4  -1 3405.66  328.47
   4   0  -1 3552.34  321.27
   4   0  -1 4052.29  312.97
  -4   4  -1 3505.55  313.47
  -4   0   1 3850.41  312.87
   0   4   1 3667.63  315.27
   4  -4   1 3489.05  317.07
  -4   0   1 3605.64  319.57
   4  -4   1 3515.25  320.87
  -4   5  -1  362.26   38.80
   5  -1  -1  383.86   46.60
  -4   5  -1  432.16   39.50
  -1  -4  -1  378.66   53.49
  -1  -4  -1  462.65   52.49
   1   4   1  400.86   41.20
  -5   1   1  497.75   47.30
   4  -5   1  405.86   45.20
  -5   1   1  458.55   39.00
   4  -5   1  409.06   49.20
  -4   6  -1    4.30    4.60
  -2  -4  -1    5.50   11.40
   6  -2  -1   13.00    9.60
  -4   6  -1   10.60    5.00
   4  -6   1   -2.80   11.00
   4  -6   1    4.70   11.60
   2   4   1   16.40   14.50
  -6   2   1    3.20    7.50
   2   4   1    5.10    6.20
  -6   2   1    4.00    4.40
  -4   7  -1  951.60   88.19
  -3  -4  -1  846.32   99.79
  -4   7  -1  974.70   89.19
   7  -3  -1  838.92   95.59
  -7   3   1 1047.70   87.39
   3   4   1  795.02  102.89
   4  -7   1  915.81  103.89
   3   4   1 1129.69   90.59
  -7   3   1  998.40   94.29
  -2   7  -1  232.28   27.20
   7  -5  -1  246.78   28.80
   7  -5  -1  256.47   35.90
  -5  -2  -1  185.68   34.30
   5   2   1  242.58   39.00
   2  -7   1  104.19   43.70
  -7   5   1  276.77   26.00
   6  -5  -1  135.29   26.20
   6  -5  -1  128.49   17.50
  -1   6  -1  114.59   16.50
  -5  -1  -1  128.69   23.70
   1  -6   1   48.20   30.40
   1  -6   1  123.49   41.10
   5   1   1  116.89   24.00
  -6   5   1  103.59   15.00
   0   5  -1 1326.47  130.19
  -5   0  -1 1595.44  138.39
  -5   0  -1 1465.35  127.29
   5  -5  -1 1463.75  131.59
   5  -5  -1 1561.74  146.09
   5   0   1 1518.35  138.29
  -5   5   1 1428.56  129.29
   0  -5   1 1192.18  149.49
   0  -5   1 1267.57  149.88
   4  -5  -1  216.08   42.70
   1   4  -1  243.08   38.10
   4  -5  -1  254.57   27.40
   1   4  -1  273.97   27.00
  -5   1  -1  252.07   24.30
  -1  -4   1  238.98   37.70
  -4   5   1  224.88   24.60
   5  -1   1  247.48   30.70
  -4   5   1  252.47   25.70
   5  -1   1  295.07   32.50
   2   3  -1  150.78   17.10
  -5   2  -1  136.79   15.20
   3  -5  -1  126.79   39.60
   2   3  -1  161.78   27.20
   3  -5  -1  141.09   18.00
  -3   5   1  153.98   16.40
   5  -2   1  169.08   21.30
   5  -2   1  147.79   20.50
  -3   5   1  138.89   16.00
  -2  -3   1  118.99   23.40
   2  -5  -1 1710.03  200.68
   3   2  -1 1958.90  186.38
   3   2  -1 2355.16  177.98
   2  -5  -1 2022.80  181.68
  -5   3  -1 2106.69  176.98
   5  -3   1 2179.38  181.88
  -2   5   1 1752.92  176.48
   5  -3   1 2005.60  182.58
  -3  -2   1 1742.73  183.68
  -2   5   1 1985.00  178.08
   1  -5  -1  275.57   47.60
  -5   4  -1  400.06   37.40
   1  -5  -1  313.27   54.29
   4   1  -1  447.56   37.60
   4   1  -1  371.86   45.90
   5  -4   1  370.36   40.60
   5  -4   1  408.26   43.90
  -4  -1   1  407.76   45.10
  -1   5   1  436.76   39.70
  -5   5  -1  200.98   19.30
   0  -5  -1  104.09   32.10
   0  -5  -1  188.48   37.10
   5   0  -1  183.28   27.30
   5  -5   1  183.88   26.60
   5  -5   1  154.08   22.80
   0   5   1  187.68   21.70
  -5   0   1  173.88   26.40
   6  -1  -1 1192.68  123.09
  -5   6  -1 1222.68  113.19
  -1  -5  -1  951.00  127.29
  -1  -5  -1 1141.49  132.79
   1   5   1 1449.55  116.89
  -6   1   1 1403.76  123.79
   5  -6   1 1232.38  123.89
  -6   1   1 1345.27  112.79
  -5   7  -1  129.39   16.30
  -2  -5  -1   75.19   26.90
   7  -2  -1  129.59   24.30
  -2  -5  -1  129.39   37.00
  -7   2   1  147.49   24.50
   2   5   1  143.49   19.60
   5  -7   1  129.39   27.30
  -7   2   1  139.59   16.00
  -1   7  -1  916.11   84.89
   7  -6  -1  912.51   96.89
  -6  -1  -1  893.21   95.89
   1  -7   1  747.93  119.49
  -7   6   1  972.50   82.89
   1  -7   1  606.04  109.69
   6   1   1  920.21   96.99
  -6   0  -1  226.58   33.60
   6  -6  -1  239.48   40.40
   0   6  -1  234.28   26.40
   0  -6   1  156.88   47.60
   6   0   1  195.58   32.60
  -6   6   1  249.97   24.80
   0  -6   1  125.29   44.00
   1   5  -1  108.09   31.10
  -6   1  -1  114.99   12.70
   1   5  -1  100.39   15.70
   5  -6  -1  122.89   34.20
   6  -1   1  110.59   21.90
  -5   6   1  111.49   14.90
   6  -1   1  109.89   20.40
  -1  -5   1  105.19   30.40
   2   4  -1 1852.61  183.58
   2   4  -1 2091.49  168.88
  -6   2  -1 1911.21  166.08
   4  -6  -1 1592.24  193.88
  -2  -4   1 1624.74  179.18
   6  -2   1 2212.78  175.48
   6  -2   1 1705.83  172.38
  -4   6   1 1902.41  167.08
  -4   6   1 1804.02  166.68
   3  -6  -1  265.27   57.29
   3   3  -1  239.68   38.10
   3   3  -1  280.57   27.30
  -6   3  -1  246.08   25.20
  -3   6   1  247.38   26.60
   6  -3   1  241.38   30.80
   6  -3   1  286.67   31.70
  -3   6   1  250.37   25.80
  -3  -3   1  217.48   34.10
   4   2  -1    8.50    6.10
   4   2  -1    7.30   11.00
  -6   4  -1    8.80    4.50
   2  -6  -1   -5.00   16.80
   6  -4   1   -1.50    6.60
  -2   6   1    9.90    6.10
  -4  -2   1   -2.80    7.30
   6  -4   1    7.50    7.00
   1  -6  -1 1197.88  140.39
  -6   5  -1 1252.37  112.09
   5   1  -1 1169.18  124.59
  -5  -1   1 1168.38  121.99
   6  -5   1 1332.07  117.79
   6  -5   1 1233.98  119.89
  -1   6   1 1283.57  115.09
  -6   6  -1  258.97   25.70
   0  -6  -1  203.98   46.50
   6   0  -1  217.48   36.00
   6  -6   1  233.78   33.50
   0   6   1  229.68   28.60
  -6   0   1  280.57   37.30
  -6   7  -1   64.99   11.60
   7  -1  -1   57.29   18.60
  -1  -6  -1   79.29   29.30
   6  -7   1   73.79   21.00
   1   6   1   56.39   13.80
  -7   1   1   90.69   21.50
   1   6  -1  877.21   81.19
   6  -7  -1 1027.50  107.29
  -7   1  -1  810.32   88.49
  -1  -6   1  623.04  102.69
   7  -1   1  905.31   91.29
  -1  -6   1  695.53  102.49
  -6   7   1  902.51   79.69
   2   5  -1  198.98   44.40
   2   5  -1  246.98   28.10
  -7   2  -1  276.77   25.00
   5  -7  -1  243.28   52.49
   7  -2   1  215.18   31.20
  -5   7   1  232.28   26.50
  -2  -5   1  190.28   40.40
   7  -2   1  280.37   35.50
   3   4  -1  114.99   31.80
   4  -7  -1   43.20   33.20
   3   4  -1  133.29   16.60
  -7   3  -1  138.89   14.20
   7  -3   1   96.49   18.60
  -3  -4   1   98.99   25.50
  -4   7   1   94.99   14.80
  -4   7   1  111.69   14.80
   7  -3   1  105.89   20.30
   4   3  -1  898.21   99.69
  -7   4  -1  923.71   81.89
   3  -7  -1  687.03  115.89
   4   3  -1 1016.70   83.99
   7  -4   1  849.32   88.39
  -3   7   1  870.61   83.49
   7  -4   1  981.90   89.09
  -4  -3   1  762.92   92.69
   5   2  -1   81.49   25.40
  -7   5  -1  126.99   14.20
   2  -7  -1  103.19   42.40
  -2   7   1  107.49   16.80
  -5  -2   1   90.19   23.20
   7  -5   1  104.59   20.80
   1  -7  -1   95.99   38.80
   6   1  -1   68.09   22.90
  -7   6  -1   65.09   11.00
  -6  -1   1   58.09   20.00
  -1   7   1   68.59   14.40
   7  -6   1   52.69   16.40
   0   0  -2  309.57   32.10
   0   0  -2  287.07   32.30
   0   0   2  360.46   33.20
   0   0   2  317.57   33.60
   1  -1  -2 4443.86  345.17
   0   1  -2 3866.91  337.77
   0   1  -2 3963.60  339.47
  -1   1   2 3182.68  339.57
   1   0   2 4248.57  340.27
   1   0   2 4069.19  340.37
   0  -1   2 3487.55  344.77
  -1   1   2 4460.85  339.47
   0  -1   2 3172.88  339.17
  -1   1   2 3677.63  338.57
   1   0  -2  691.53   70.09
   0  -1  -2  787.62   73.99
   0   1   2  727.83   68.19
   1  -1   2  912.41   69.99
   0   1   2  602.04   70.29
  -1   0   2  892.31   72.69
   0   1   2  725.93   69.79
  -1   0   2  737.83   69.79
   2  -1  -2  161.58   21.50
  -1   2  -2  190.58   20.70
  -1  -1  -2  255.77   25.70
  -2   1   2  213.48   21.80
   1  -2   2  213.58   31.30
  -2   1   2  202.18   20.50
   1  -2   2  228.98   20.60
   1   1   2  203.98   21.50
   1   1   2  199.28   23.40
   1   1   2  173.78   20.90
   3  -2  -2 2616.74  284.67
   3  -2  -2 3232.78  278.17
  -1   3  -2 3170.58  277.37
   2   1   2 3019.20  279.07
   2   1   2 3260.37  277.67
   2   1   2 3374.16  282.77
   2   1   2 3309.27  277.17
   1  -3   2 3013.40  293.27
  -3   2   2 3090.19  276.77
  -3   2   2 3137.49  277.47
   1  -3   2 3284.67  276.17
   2  -2  -2 2062.59  196.18
   0   2  -2 2188.18  188.88
   0   2  -2 1758.62  186.78
   0  -2   2 1875.71  197.18
  -2   2   2 2263.87  188.28
   2   0   2 2157.08  189.88
   2   0   2 2211.88  187.48
   2   0   2 2125.79  189.38
  -2   2   2 2100.09  187.08
   2   0   2 2171.08  188.58
   0  -2   2 2303.87  186.78
   1   1  -2  188.68   19.90
  -2   1  -2  209.38   22.30
   1  -2  -2  160.48   27.60
   1   1  -2  181.28   21.70
  -1  -1   2  217.78   26.20
  -1   2   2  203.78   20.80
   2  -1   2  208.88   20.50
  -1  -1   2  235.48   22.30
   2  -1   2  182.38   23.60
   2  -1   2  183.68   19.80
  -1   2   2  207.58   20.80
  -2   2  -2 4395.36  384.16
   0  -2  -2 4487.35  391.26
   2   0  -2 4535.95  389.36
   2   0  -2 4061.09  383.36
  -2   0   2 4740.33  383.76
   2  -2   2 4396.96  383.66
  -2   0   2 4750.52  387.46
   0   2   2 3650.53  383.86
   3  -1  -2  730.23   64.69
  -1  -2  -2  721.33   66.59
   3  -1  -2  682.83   72.09
  -2   3  -2  705.83   65.19
  -1  -2  -2  751.02   72.99
   1   2   2  695.03   65.69
   2  -3   2  751.22   64.79
   2  -3   2  599.74   76.49
  -3   1   2  708.23   67.09
  -3   1   2  718.53   64.59
  -2   4  -2   12.70    5.40
   4  -2  -2   27.10   12.00
  -2   4  -2   20.80    5.00
  -2  -2  -2   21.00    7.70
   4  -2  -2   10.40    4.40
   2   2   2   12.40    9.50
  -4   2   2   13.30    4.90
   2   2   2   21.10    5.40
  -4   2   2   16.00    6.40
   2   2   2   16.00    5.60
   2  -4   2   16.80   18.00
  -2   5  -2 1477.05  131.69
  -3  -2  -2 1558.84  139.89
   5  -3  -2 1349.16  144.09
  -2   5  -2 1495.55  133.89
   2  -5   2 1637.84  162.38
  -5   3   2 1484.35  133.19
   3   2   2 1498.65  133.99
  -5   3   2 1502.85  135.39
   3   2   2 1392.56  143.09
  -1   4  -2  503.55   40.30
   4  -3  -2  364.76   41.80
  -1   4  -2  412.46   42.20
   4  -3  -2  379.66   51.99
   3   1   2  403.76   40.60
  -4   3   2  384.36   41.10
   1  -4   2  444.96   62.09
   3   1   2  497.95   42.60
   3   1   2  463.85   49.20
  -4   3   2  453.95   42.40
   3   1   2  482.45   46.50
   3  -3  -2  105.99   25.10
   0   3  -2  149.59   17.00
   0   3  -2  112.39   20.90
  -3   3   2  174.48   17.50
   0  -3   2  153.88   15.00
  -3   3   2  135.39   15.50
   3   0   2  193.18   21.90
   3   0   2  171.78   18.10
   3   0   2  160.48   16.50
   0  -3   2  143.19   30.20
  -3   3   2  150.18   16.60
   3   0   2  185.38   21.50
   2  -3  -2 3207.78  295.67
   1   2  -2 3413.16  285.17
  -3   1  -2 3418.36  282.37
   1   2  -2 3012.80  280.27
   3  -1   2 3392.76  280.47
   3  -1   2 3223.28  284.67
  -1  -2   2 3122.99  289.27
  -1  -2   2 2877.81  279.67
  -2   3   2 3311.87  280.67
  -2   3   2 2956.90  280.27
   3  -1   2 3105.69  281.97
   1  -3  -2  622.14   73.19
   2   1  -2  705.33   66.89
   2   1  -2  630.14   61.29
   3  -2   2  676.03   61.89
   3  -2   2  664.43   61.99
  -2  -1   2  702.23   68.09
  -2  -1   2  659.63   62.29
  -1   3   2  693.53   62.79
  -1   3   2  687.13   62.49
   3  -2   2  711.53   68.59
   0  -3  -2   63.59   15.20
  -3   3  -2  114.79   12.80
   3   0  -2  108.39   12.00
   3   0  -2  130.19   20.50
   0  -3  -2  106.19   21.00
  -3   3  -2  141.49   13.30
   0   3   2   95.99   13.30
  -3   0   2  126.19   17.00
   3  -3   2  110.59   12.70
   3  -3   2   99.69   21.50
   0   3   2   84.59   15.50
  -3   0   2  121.09   12.70
  -3   4  -2 2233.28  181.18
   4  -1  -2 1938.41  179.78
  -3   4  -2 2062.19  181.28
  -1  -3  -2 2034.50  192.98
   4  -1  -2 2205.28  191.98
  -1  -3  -2 2261.67  187.38
  -4   1   2 2070.99  180.88
   1   3   2 1962.10  182.18
   3  -4   2 1694.63  195.08
  -4   1   2 2154.38  185.28
   1   3   2 1770.02  182.88
  -2  -3  -2  302.17   37.60
   5  -2  -2  259.47   39.00
  -3   5  -2  313.17   29.90
  -3   5  -2  319.97   31.20
   2   3   2  302.77   31.90
  -5   2   2  350.86   35.20
  -5   2   2  329.27   30.60
   3  -5   2  223.18   47.30
   2   3   2  280.97   41.50
   6  -3  -2   47.00   17.80
  -3   6  -2   62.79    9.50
  -3   6  -2   47.80   10.50
  -3  -3  -2   42.60   15.90
  -6   3   2   67.89   13.70
   3   3   2   64.99   12.10
  -6   3   2   62.79   10.40
   3   3   2   55.89   20.10
   3  -6   2   86.99   33.30
  -3   7  -2  888.11   84.39
   7  -4  -2  873.41   97.59
  -4  -3  -2  835.92   94.89
   4   3   2  910.41   85.29
   4   3   2  869.01   99.59
  -7   4   2 1006.60   84.09
   3  -7   2  851.11  115.59
  -4  -2  -2  500.65   59.19
  -2   6  -2  518.05   51.99
   6  -4  -2  552.64   65.39
   2  -6   2  609.04   84.09
  -6   4   2  617.64   51.99
   4   2   2  441.46   60.99
   4   2   2  525.75   51.89
  -4  -1  -2   55.89   15.50
  -1   5  -2   85.79   12.50
   5  -4  -2   54.39   19.90
  -4  -1  -2   77.09    9.50
   4   1   2   56.39   11.10
   1  -5   2   66.19   29.70
   4   1   2   79.99   19.40
  -5   4   2   81.59   11.20
   0   4  -2 2080.39  180.88
   4  -4  -2 1613.94  193.08
  -4   0  -2 2047.30  178.78
   4   0   2 2042.20  185.28
  -4   4   2 2179.88  179.98
   4   0   2 2158.78  180.78
  -4   4   2 1906.81  179.78
   4   0   2 2278.07  187.18
   0  -4   2 1650.53  196.48
   1   3  -2  394.66   42.30
   1   3  -2  406.56   49.70
  -4   1  -2  459.45   44.00
  -4   1  -2  451.95   41.40
   3  -4  -2  439.06   59.89
   4  -1   2  473.95   46.50
   4  -1   2  491.85   47.90
  -1  -3   2  465.15   54.89
  -3   4   2  417.36   42.00
  -3   4   2  442.46   42.10
  -4   2  -2   17.90    4.90
   2  -4  -2   15.40   15.50
   2   2  -2   30.70   12.20
   2   2  -2   13.40    4.70
  -4   2  -2   25.00    6.30
   4  -2   2   15.90    8.30
  -2   4   2   15.50    5.40
  -2  -2   2   11.60    9.80
   4  -2   2   14.30    6.00
  -2   4   2   13.30    5.60
  -4   3  -2 2232.58  181.28
   1  -4  -2 1720.43  195.38
   3   1  -2 2177.48  190.38
   3   1  -2 2034.00  181.28
  -4   3  -2 2011.60  181.68
  -1   4   2 2041.20  182.68
  -3  -1   2 1892.11  187.78
   4  -3   2 2141.89  183.18
  -3  -1   2 2279.17  181.68
  -1   4   2 1950.50  182.48
   4  -3   2 1908.51  189.78
   4   0  -2  963.50   84.59
  -4   4  -2  959.60   84.99
   4   0  -2 1087.49   97.29
  -4   4  -2  947.11   85.49
   0  -4  -2  804.82   97.79
   0   4   2  915.81   87.09
  -4   0   2  847.52   90.59
   0   4   2  743.83   87.09
   4  -4   2  982.40   99.19
  -4   0   2 1120.69   85.49
   5  -1  -2   67.69   19.40
  -4   5  -2   96.19   12.30
  -1  -4  -2   66.99   22.30
  -4   5  -2  106.29   12.40
  -5   1   2   86.39   16.70
   4  -5   2   99.19   27.30
  -5   1   2   99.49   12.00
   1   4   2   86.79   13.80
  -4   6  -2 1300.57  118.79
  -4   6  -2 1338.37  119.79
   6  -2  -2 1248.68  131.19
  -2  -4  -2 1146.39  134.39
   2   4   2 1466.75  122.29
   4  -6   2 1042.40  138.69
  -6   2   2 1427.06  126.19
  -6   2   2 1440.06  119.59
  -3  -4  -2  233.78   42.00
  -4   7  -2  246.18   26.80
   7  -3  -2  240.58   38.00
  -7   3   2  264.47   32.00
   3   4   2  235.08   28.70
  -7   3   2  252.27   26.00
   3   4   2  164.28   38.10
   4  -7   2  208.28   49.30
  -2   7  -2   55.49   12.40
   7  -5  -2   44.60   20.50
  -5  -2  -2   61.19   21.60
   5   2   2   40.00   19.70
   2  -7   2   42.90   33.00
  -7   5   2   84.39   12.50
  -5  -1  -2 1156.38  112.69
   6  -5  -2 1035.30  118.99
  -1   6  -2 1151.88  103.19
   5   1   2 1042.30  112.79
  -6   5   2 1108.99  101.99
   1  -6   2 1131.19  133.99
   5  -5  -2  296.77   52.49
   0   5  -2  383.16   37.50
  -5   0  -2  393.66   34.50
   5   0   2  327.27   41.90
   0  -5   2  363.76   57.49
   0  -5   2  248.28   53.69
   5   0   2  370.86   44.40
  -5   5   2  381.56   36.50
  -5   1  -2   62.29    9.00
   1   4  -2   33.80   17.80
   1   4  -2   66.39   10.90
   4  -5  -2   67.79   28.80
   5  -1   2   72.99   16.60
  -4   5   2   46.10    9.70
  -1  -4   2   60.59   21.40
  -4   5   2   64.89    9.80
   5  -1   2   79.89   15.30
   2   3  -2 1248.88  131.79
   2   3  -2 1466.65  122.79
  -5   2  -2 1307.27  121.29
   3  -5  -2 1404.26  148.09
  -3   5   2 1290.57  121.99
   5  -2   2 1443.86  129.29
  -2  -3   2 1278.97  134.09
  -3   5   2 1394.46  122.29
   2  -5  -2  198.18   45.00
   3   2  -2  333.47   30.40
   3   2  -2  281.07   39.90
  -5   3  -2  288.97   29.70
  -3  -2   2  299.17   38.90
   5  -3   2  348.87   34.00
  -2   5   2  307.57   31.00
  -2   5   2  257.17   30.20
   5  -3   2  311.47   37.70
   4   1  -2   87.09   21.80
  -5   4  -2   93.09   11.90
   1  -5  -2   83.59   27.00
   4   1  -2   77.89   11.20
  -1   5   2   65.99   13.30
  -1   5   2   87.79   13.50
  -4  -1   2   92.39   18.60
   5  -4   2  103.59   21.80
  -5   5  -2 1552.14  134.89
   0  -5  -2 1216.98  151.18
   5   0  -2 1504.95  148.09
  -5   0   2 1481.35  142.89
   0   5   2 1643.14  138.09
   5  -5   2 1543.65  150.58
   6  -1  -2  283.27   42.30
  -5   6  -2  321.17   30.70
  -1  -5  -2  248.78   45.90
   5  -6   2  297.37   47.80
   1   5   2  298.97   33.70
  -6   1   2  314.57   38.90
  -5   7  -2   59.79   10.20
   7  -2  -2   15.10   13.20
  -2  -5  -2   51.39   22.80
   5  -7   2   42.90   24.80
  -7   2   2   47.30   15.40
  -7   2   2   45.00    9.90
   2   5   2   53.79   12.90
   7  -6  -2  195.78   39.80
  -6  -1  -2  167.98   32.80
  -1   7  -2  151.98   21.70
  -7   6   2  187.98   21.40
   6   1   2  146.99   33.20
   1  -7   2   82.59   40.20
   0   6  -2   -3.80    5.70
   6  -6  -2    3.70   16.20
  -6   0  -2    2.40    8.90
  -6   6   2    3.20    6.10
   6   0   2    1.20   11.50
   0  -6   2    5.30   20.40
  -6   1  -2 1117.59   95.59
   5  -6  -2  916.71  120.29
   1   5  -2 1021.70   98.19
   6  -1   2 1310.17  108.99
   6  -1   2  994.10  103.49
  -5   6   2 1082.79   97.59
  -1  -5   2  842.12  114.99
   4  -6  -2  597.14   79.09
  -6   2  -2  486.85   46.00
   2   4  -2  512.15   48.10
   2   4  -2  410.16   60.39
  -2  -4   2  413.66   59.69
  -4   6   2  492.75   47.00
   6  -2   2  437.36   52.39
  -4   6   2  459.45   47.10
   6  -2   2  614.74   56.59
   3   3  -2   39.60   19.50
   3   3  -2   48.40    9.80
  -6   3  -2   62.39    8.80
   3  -6  -2   48.30   26.30
  -3   6   2   60.39   10.50
   6  -3   2   39.20   13.60
  -3  -3   2   27.20   14.60
  -3   6   2   53.29   10.10
  -6   4  -2 1179.68  110.69
   4   2  -2 1354.86  111.39
   4   2  -2 1109.69  124.59
  -2   6   2 1327.27  113.09
   6  -4   2 1188.68  120.59
  -4  -2   2 1119.59  120.59
  -6   5  -2  317.07   31.10
   1  -6  -2  244.28   50.69
   5   1  -2  273.47   44.90
  -5  -1   2  283.87   40.20
   6  -5   2  345.27   43.80
  -1   6   2  318.27   34.10
   6   0  -2    2.80   14.00
   0  -6  -2  -15.90   13.30
  -6   6  -2    2.30    5.60
   0   6   2   -1.80    6.70
  -6   0   2   -5.40    9.40
   6  -6   2   -0.80   12.00
  -6   7  -2  626.54   61.19
  -1  -6  -2  481.65   80.69
   7  -1  -2  590.04   75.09
   1   6   2  677.13   65.79
  -7   1   2  793.22   75.29
   6  -7   2  703.63   82.19
   6  -7  -2  116.59   41.70
   1   6  -2  161.98   21.60
  -6   7   2  176.18   21.60
  -1  -6   2  134.39   42.80
   7  -1   2  148.79   26.60
   7  -1   2  182.08   31.80
   2   5  -2   26.90   21.60
  -7   2  -2   60.69    9.40
   5  -7  -2    7.00   23.70
   2   5  -2   61.19   12.40
   7  -2   2   60.09   18.50
  -5   7   2   49.50   11.60
   7  -2   2   50.39   15.30
  -2  -5   2   37.70   21.70
   4  -7  -2  941.71  115.09
   3   4  -2  904.31   77.29
   3   4  -2  684.43   92.89
  -7   3  -2  837.42   75.29
  -4   7   2  871.11   76.89
   7  -3   2  780.32   83.59
  -3  -4   2  719.53   89.69
  -4   7   2  776.62   76.19
   4   3  -2  257.37   44.90
   3  -7  -2  220.78   54.09
   4   3  -2  217.08   26.10
  -7   4  -2  248.08   25.30
   7  -4   2  251.97   34.60
  -3   7   2  251.57   27.40
  -4  -3   2  204.78   36.40
   2  -7  -2   20.20   23.90
  -7   5  -2   40.40    8.90
   5   2  -2   58.79   25.80
  -5  -2   2   37.20   16.80
   7  -5   2   46.30   17.40
  -2   7   2   39.90   11.10
   6   1  -2  672.23   83.69
  -7   6  -2  672.93   63.09
   1  -7  -2  507.45   89.19
  -1   7   2  705.33   67.29
   7  -6   2  677.53   77.69
  -6  -1   2  675.23   76.69
   0   0  -3 1947.81  179.58
   0   0  -3 1918.61  180.58
   0   0   3 2089.19  181.58
   0   0   3 2066.79  181.28
  -1   0  -3  702.33   68.99
   1  -1  -3  741.63   69.69
  -1   0  -3  710.43   69.89
   0   1  -3  696.53   69.99
   0  -1   3  914.41   71.39
  -1   1   3  781.32   68.09
   1   0   3  613.64   69.49
   0  -1   3  814.52   75.49
  -1   1   3  567.04   68.29
   0  -1  -3   21.40    9.70
  -1   1  -3   35.70   10.30
   1   0  -3   36.90    9.80
   1   0  -3   37.60   11.20
   0   1   3   36.50   10.20
   0   1   3   22.40    9.20
  -1   0   3   31.80    9.00
   1  -1   3   18.00    8.30
   1  -1   3   34.50   11.80
  -1   0   3   24.50   10.70
   0   1   3   12.70    6.80
  -1  -1  -3 2844.42  240.88
   2  -1  -3 2732.33  237.18
  -1   2  -3 2460.65  237.58
   2  -1  -3 2727.93  242.18
   1   1   3 2605.94  236.98
   1  -2   3 2589.64  236.68
   1   1   3 2803.52  239.88
   1   1   3 2659.73  238.08
  -2   1   3 2654.53  237.88
   1  -2   3 2571.34  244.58
  -2   1   3 2584.94  236.38
   3  -2  -3  719.73   63.69
   3  -2  -3  683.13   71.59
  -2  -1  -3  712.83   67.89
  -1   3  -3  654.03   63.29
   2   1   3  529.65   63.49
   2   1   3  694.63   64.39
   1  -3   3  717.03   62.19
  -3   2   3  605.64   61.99
  -3   2   3  663.03   63.19
   2   1   3  661.63   65.09
   1  -3   3  632.64   75.99
  -2   0  -3    3.00    5.70
   0   2  -3    6.40    5.60
  -2   0  -3    1.10    6.70
   2  -2  -3   11.00    9.40
   2  -2  -3    3.60    6.80
   2   0   3   -0.90    5.20
   2   0   3    0.80    7.20
   0  -2   3    3.70    6.10
   0  -2   3   -1.90    9.50
  -2   2   3   -4.30    4.20
  -2   1  -3 2867.01  215.78
   1   1  -3 2442.36  214.58
   1  -2  -3 2343.67  220.68
  -1   2   3 2322.97  214.78
  -1  -1   3 2505.05  221.88
   2  -1   3 2267.77  213.98
  -1   2   3 1992.80  213.78
   0  -2  -3 1748.82  179.78
   2   0  -3 2015.90  174.38
  -2   2  -3 1914.41  174.78
   0   2   3 1928.61  174.18
   2  -2   3 2111.09  183.48
   2  -2   3 1915.81  173.58
  -2   0   3 2128.09  178.28
  -2   0   3 1773.82  173.28
   0   2   3 1845.02  174.98
   3  -1  -3   36.00   14.00
  -2   3  -3   58.69   11.30
  -1  -2  -3   69.89   16.60
   3  -1  -3   56.39   11.70
   1   2   3   55.09   14.90
  -3   1   3   51.99   12.60
  -3   1   3   67.49   10.60
   1   2   3   65.89   11.80
   2  -3   3   57.89   19.10
   2  -3   3   49.50    9.70
   4  -2  -3 1007.10  103.69
  -2  -2  -3 1082.29  106.19
  -2  -2  -3 1231.58  112.99
   4  -2  -3 1015.60  112.69
  -2   4  -3 1227.78  104.39
  -4   2   3 1101.29  102.89
  -4   2   3 1168.68  105.39
   2  -4   3 1268.47  123.49
   2   2   3 1191.98  104.79
   2   2   3 1110.79  105.39
   5  -3  -3  380.26   53.19
  -2   5  -3  448.36   40.20
  -3  -2  -3  368.66   46.60
  -2   5  -3  434.56   42.60
   3   2   3  429.36   41.70
   2  -5   3  510.65   67.49
   3   2   3  416.46   51.79
   3   2   3  441.56   43.20
  -5   3   3  382.56   41.20
   4  -3  -3   25.40   15.10
   4  -3  -3   26.40    8.70
  -1   4  -3   21.20    7.30
  -4   3   3   21.30    7.00
   1  -4   3   18.50    5.50
   3   1   3   22.50    7.50
   3   1   3   15.70   10.60
   1  -4   3   26.20   20.10
   3   1   3   15.80    8.00
   3   1   3   18.40   10.90
   0   3  -3 1648.04  143.59
   3  -3  -3 1783.82  154.98
  -3   0  -3 1360.86  144.49
  -3   3   3 1448.16  143.79
   3   0   3 1778.02  148.69
  -3   3   3 1447.06  142.19
   3   0   3 1690.03  146.69
   0  -3   3 1612.44  141.39
   3   0   3 1732.83  143.79
   0  -3   3 1287.97  156.28
  -3   1  -3  752.92   63.59
   2  -3  -3  641.74   71.89
   1   2  -3  674.73   61.69
  -2   3   3  614.94   61.59
  -2   3   3  673.43   62.39
   3  -1   3  658.93   67.19
  -1  -2   3  564.14   61.39
  -1  -2   3  647.54   72.89
   3  -1   3  648.34   61.89
   3  -1   3  585.64   61.49
   2   1  -3   67.79   10.20
   2   1  -3   47.80   13.40
   1  -3  -3   33.40   15.10
  -3   2  -3   37.70   10.60
   3  -2   3   60.09   10.80
  -2  -1   3   61.19   16.10
   3  -2   3   41.00   15.70
  -2  -1   3   56.39   11.20
  -1   3   3   58.79   10.90
  -1   3   3   48.10   12.10
   3   0  -3 2163.68  179.88
   3   0  -3 1765.02  187.48
  -3   3  -3 2321.97  181.48
   0  -3  -3 1872.61  190.38
   0   3   3 2003.00  182.58
   3  -3   3 1971.90  180.18
   3  -3   3 1877.41  192.48
   0   3   3 1957.40  180.58
  -3   0   3 2107.69  180.38
  -3   0   3 2017.40  185.18
  -1  -3  -3  555.04   62.99
  -3   4  -3  556.04   52.39
  -3   4  -3  578.44   51.79
   4  -1  -3  525.15   51.09
   4  -1  -3  438.46   60.39
   1   3   3  490.55   52.29
  -4   1   3  583.34   56.19
  -4   1   3  525.75   51.59
   3  -4   3  641.64   72.29
   1   3   3  617.04   57.29
  -3   5  -3    9.30    6.80
  -2  -3  -3   12.50   13.30
  -3   5  -3   23.40    6.50
   5  -2  -3   10.80   12.50
  -5   2   3    7.30    5.90
   2   3   3    7.50    6.60
   3  -5   3   16.40   17.90
  -5   2   3   13.40    8.60
  -3   6  -3  797.92   76.29
  -3  -3  -3  892.51   91.59
   6  -3  -3  601.94   86.39
   3   3   3  810.82   77.09
  -6   3   3  823.02   75.99
   3  -6   3 1154.88  114.49
   7  -4  -3  157.88   37.60
  -3   7  -3  196.58   26.40
  -4  -3  -3  245.48   43.10
   4   3   3  228.18   28.50
   3  -7   3  360.16   62.49
  -7   4   3  277.37   27.90
  -4  -2  -3    6.90   11.60
  -2   6  -3    6.70    6.90
   6  -4  -3   -0.40   11.60
   4   2   3   -3.00    7.20
   4   2   3   -1.30   12.70
   2  -6   3    5.40   20.20
  -6   4   3   -0.60    5.50
  -1   5  -3 1198.68  107.09
   5  -4  -3 1179.28  122.99
   4   1   3 1098.19  112.79
   4   1   3 1104.59  104.79
  -5   4   3 1117.09  105.99
   4   1   3 1203.48  107.89
   4   1   3 1202.48  115.79
   1  -5   3 1146.49  131.69
  -4   0  -3  875.91   88.39
   4  -4  -3 1059.99  102.49
   0   4  -3  943.61   85.99
  -4   4   3  812.22   84.59
  -4   4   3  774.02   85.69
   4   0   3  943.41   84.89
   0  -4   3  767.72  103.49
   4   0   3 1039.70   92.59
   4   0   3 1063.49   92.69
   3  -4  -3   23.60   15.70
  -4   1  -3   25.10    9.40
   1   3  -3   29.00    7.90
  -3   4   3   36.80    9.00
   4  -1   3   27.00   12.70
  -1  -3   3   13.00   14.60
  -3   4   3   31.70    8.30
   4  -1   3   25.50   12.70
   4  -1   3   23.00    7.60
   2   2  -3  826.72   97.59
   2  -4  -3  975.70  107.49
  -4   2  -3  806.52   92.69
   2   2  -3 1106.19   92.49
   4  -2   3 1149.98  103.29
   4  -2   3 1020.50   93.09
  -2   4   3 1094.29   93.19
  -2   4   3 1024.60   93.69
  -2  -2   3 1137.39  104.99
   3   1  -3  435.76   55.49
  -4   3  -3  628.04   49.70
   3   1  -3  498.25   47.20
  -4   3  -3  516.85   47.90
   1  -4  -3  418.26   60.39
  -3  -1   3  528.05   56.39
  -1   4   3  492.95   48.50
   4  -3   3  453.05   59.79
  -1   4   3  436.06   49.90
  -4   4  -3   -9.40    4.10
  -4   4  -3    8.60    5.70
   0  -4  -3    3.50   11.90
   4   0  -3   -4.00   10.50
   4   0  -3    3.70    4.50
   4  -4   3    3.20   14.80
  -4   0   3   -5.60    5.60
  -4   0   3    2.70    8.30
   0   4   3   -2.40    5.20
   0   4   3    0.20    8.40
  -1  -4  -3 1005.20  110.79
   5  -1  -3  888.91  106.89
  -4   5  -3 1181.98   95.79
  -4   5  -3 1074.19   95.59
  -5   1   3  997.40  100.59
  -5   1   3 1173.08   95.89
   4  -5   3 1049.20  118.09
   1   4   3  928.41   96.59
   6  -2  -3  466.35   67.99
  -2  -4  -3  515.35   70.79
  -4   6  -3  611.94   55.89
  -4   6  -3  592.14   56.99
   4  -6   3  690.13   88.09
  -6   2   3  612.34   56.69
   2   4   3  576.54   58.49
  -6   2   3  660.23   63.29
   7  -3  -3   17.40   16.40
  -3  -4  -3   56.99   23.30
  -4   7  -3   46.80   11.50
  -7   3   3   25.10    9.00
   4  -7   3   61.99   34.10
   3   4   3   43.60   11.90
   6  -5  -3  264.47   48.40
  -1   6  -3  318.57   33.70
  -5  -1  -3  301.57   42.10
   1  -6   3  282.17   56.19
  -6   5   3  289.97   32.90
   5   1   3  295.27   44.20
   5  -5  -3   35.70   21.40
   0   5  -3   45.40   10.70
  -5   0  -3   32.60    7.70
  -5   5   3   32.90    9.40
   0  -5   3   37.40   24.40
   5   0   3   32.60   16.20
   5   0   3   61.39   18.70
   1   4  -3 1144.69   99.29
   4  -5  -3 1297.97  121.59
  -5   1  -3  980.90   96.89
  -4   5   3  967.00   98.09
  -1  -4   3  892.61  116.09
   5  -1   3 1138.99  106.79
  -4   5   3 1105.89   98.89
   2   3  -3  398.16   38.40
  -5   2  -3  392.66   37.30
   3  -5  -3  373.66   55.19
  -3   5   3  378.96   38.80
  -3   5   3  362.76   38.00
  -2  -3   3  320.97   49.70
   5  -2   3  388.86   47.30
   3   2  -3   11.10   13.40
   3   2  -3   14.50    6.40
   2  -5  -3   12.50   15.80
  -5   3  -3    4.50    5.10
  -2   5   3   11.70    6.20
  -3  -2   3   11.10   12.20
  -2   5   3   11.60    7.60
   5  -3   3   15.00   14.10
   4   1  -3  746.63   91.79
   1  -5  -3  646.24   95.69
  -5   4  -3  850.21   80.89
   4   1  -3  956.20   80.39
  -1   5   3  930.41   82.89
   5  -4   3  922.31   99.09
  -4  -1   3  988.30   91.49
   5   0  -3  293.27   47.10
  -5   5  -3  370.16   34.30
   0  -5  -3  303.77   50.69
   0   5   3  334.97   36.00
   5  -5   3  279.77   50.79
  -5   0   3  326.87   41.10
  -5   6  -3   27.80    8.30
   6  -1  -3    2.10   13.80
  -1  -5  -3   10.00   17.00
   1   5   3   11.20    8.40
  -6   1   3   16.10   12.30
   5  -6   3    9.60   20.50
   0   6  -3  543.55   51.29
   6  -6  -3  560.64   75.69
   6   0   3  503.45   80.19
  -6   6   3  537.55   50.89
   6   0   3  430.26   57.89
   0  -6   3  351.76   70.19
   1   5  -3  244.08   30.00
  -6   1  -3  245.08   27.80
   5  -6  -3  317.57   52.99
   6  -1   3  306.07   39.30
  -5   6   3  286.97   30.80
  -1  -5   3  261.97   51.49
   2   4  -3    6.80    6.80
   4  -6  -3    3.70   15.80
  -6   2  -3    0.30    4.60
  -2  -4   3    0.80   14.20
  -4   6   3    5.00    6.60
   6  -2   3    0.70    9.90
  -4   6   3    7.40    7.50
  -6   3  -3  737.03   73.39
   3  -6  -3  765.82   97.89
   3   3  -3  791.82   74.09
   6  -3   3  957.70   89.29
  -3   6   3  827.12   75.59
  -3   6   3  840.92   74.89
  -3  -3   3  631.84   85.09
  -6   4  -3  537.25   50.39
   4   2  -3  530.15   49.80
   2  -6  -3  346.17   66.29
  -2   6   3  579.34   52.39
  -4  -2   3  564.84   63.09
  -2   6   3  444.66   53.49
   6  -4   3  530.85   65.39
   1  -6  -3    0.00   16.00
   5   1  -3   23.40   20.80
  -6   5  -3   22.00    8.00
   6  -5   3   22.60   18.50
  -1   6   3   22.20    9.90
  -5  -1   3   14.90   13.80
   0  -6  -3  513.45   73.79
   6   0  -3  423.36   63.79
  -6   6  -3  504.85   48.50
  -6   0   3  469.45   57.59
   6  -6   3  486.95   71.39
   0   6   3  518.35   52.19
   4  -7  -3  181.98   44.00
   3   4  -3  221.08   24.20
  -7   3  -3  171.88   21.60
  -4   7   3  192.08   24.70
  -3  -4   3  174.38   36.10
   7  -3   3  213.18   34.10
  -4   7   3  188.58   23.40
   3  -7  -3   47.60   26.30
   4   3  -3   20.40   21.00
  -7   4  -3   13.40    6.60
  -3   7   3   21.70    8.70
  -4  -3   3   53.39   19.40
   7  -4   3   23.90   16.10
   0   0  -4 1709.93  160.88
   0   0   4 1731.13  160.98
   0   0   4 1874.51  161.88
  -1   0  -4    7.10    7.90
   1  -1  -4   20.10    9.10
   0   1  -4   13.60   10.30
   1  -1  -4   -0.20    6.80
   1   0   4    3.10    9.00
   1   0   4   19.20   10.70
   0  -1   4    3.10    9.80
  -1   1   4    9.40    8.20
   0  -1   4   17.30    9.50
  -1   1  -4 1858.51  146.59
   1   0  -4 1573.74  144.99
   0  -1  -4 1488.95  145.79
   0  -1  -4 1425.76  145.69
   1   0  -4 1820.32  146.59
  -1   0   4 1297.77  145.39
  -1   0   4 1466.55  143.99
   1  -1   4 1460.95  145.49
   0   1   4 1512.25  144.99
   1  -1   4 1841.82  149.19
  -1  -1  -4  459.15   57.29
  -1  -1  -4  613.64   60.89
  -1   2  -4  641.74   59.39
   1  -2   4  779.82   66.29
   1  -2   4  420.86   55.69
  -2   1   4  468.55   55.69
  -1   3  -4    0.30    8.10
   3  -2  -4    4.80    8.70
  -2  -1  -4   -1.00    8.10
  -2  -1  -4   -5.60    8.50
   3  -2  -4   20.40    8.50
   2   1   4  -13.40    8.80
   1  -3   4   16.20   15.00
   1  -3   4   -5.00    6.80
  -3   2   4    4.80    7.50
   2  -2  -4  668.43   64.19
  -2   0  -4  684.13   65.69
   2  -2  -4  714.93   67.99
   0   2  -4  692.63   66.09
   0  -2   4  694.03   64.79
   2   0   4  485.95   64.29
   0  -2   4  678.53   73.79
  -2   2   4  507.75   62.79
   1  -2  -4  468.45   53.49
   1   1  -4  590.04   54.59
  -1  -1   4  562.94   61.59
  -1   2   4  492.05   52.89
   2  -1   4  439.46   53.29
   0  -2  -4    5.30    9.90
   2   0  -4    7.10   10.20
  -2   2  -4   22.00   10.90
   2   0  -4   14.70    9.80
   0   2   4   10.30    9.80
   2  -2   4   31.50   14.50
  -2   0   4   11.20    8.00
  -2   0   4   25.80   13.50
   2  -2   4   13.00    9.90
   0   2   4   17.60   10.70
   3  -1  -4 1299.27  116.29
  -2   3  -4 1204.98  111.59
   3  -1  -4 1165.48  109.99
  -1  -2  -4 1122.79  116.59
   2  -3   4 1227.58  120.09
  -3   1   4 1007.20  108.89
   1   2   4 1112.49  111.19
   1   2   4 1448.16  114.19
   2  -3   4 1087.69  109.69
  -2  -2  -4  974.80   95.09
   4  -2  -4  945.21   94.79
   4  -2  -4  970.50   87.69
  -2   4  -4  995.90   88.99
   2  -4   4  918.31   85.89
   2  -4   4 1012.90  103.39
  -4   2   4  764.82   85.49
   2   2   4  847.02   89.99
   2   2   4  842.52   88.09
  -2   5  -4   15.40    9.10
  -3  -2  -4   20.10   13.70
   5  -3  -4    0.50   10.90
   2  -5   4   30.00   21.10
   3   2   4   29.20   12.20
   3   2   4    2.80   11.30
  -5   3   4   16.10    8.20
   4  -3  -4  968.60   83.99
   4  -3  -4 1009.80   94.59
  -1   4  -4 1024.90   86.89
   3   1   4  913.51   87.29
  -4   3   4  753.62   82.99
   1  -4   4  977.80  103.39
   3   1   4  675.03   84.89
   1  -4   4  849.32   82.19
   3  -3  -4  500.55   51.39
   3  -3  -4  570.04   58.69
   0   3  -4  655.83   54.59
  -3   0  -4  574.34   54.49
  -3   3   4  434.76   50.49
   0  -3   4  565.54   68.59
   3   0   4  583.64   54.79
   3   0   4  410.16   55.09
   0  -3   4  352.86   49.00
   1   2  -4   13.20    9.20
  -3   1  -4   -2.70    7.60
   2  -3  -4   -0.10    9.90
  -2   3   4   10.50    9.20
  -1  -2   4    4.70    8.90
   3  -1   4   -3.00   10.90
   3  -1   4   -4.50    8.80
  -1  -2   4   12.20   15.80
  -2   3   4    3.70    8.50
   2   1  -4 1194.78  107.19
   1  -3  -4  945.01  112.99
  -3   2  -4 1131.49  107.39
  -2  -1   4 1174.28  116.59
   3  -2   4 1069.39  107.39
  -1   3   4 1117.59  107.79
  -2  -1   4 1238.28  105.99
   3  -2   4 1234.88  115.89
   3   0  -4  742.73   71.19
   0  -3  -4  505.85   70.29
   3   0  -4  597.44   62.39
  -3   3  -4  591.54   63.39
   3  -3   4  734.83   75.09
   0   3   4  576.34   62.99
   0   3   4  749.03   65.39
   3  -3   4  659.13   63.89
  -3   0   4  652.13   68.89
  -1  -3  -4   25.20   15.40
  -3   4  -4    0.60    7.90
   4  -1  -4   16.00   14.40
   4  -1  -4    8.00    8.50
  -4   1   4    7.90    7.70
   1   3   4    8.20    8.70
   1   3   4    6.30   11.20
   3  -4   4   10.50   17.40
   3  -4   4    8.20    7.80
   5  -2  -4  733.33   82.79
  -3   5  -4  816.02   72.09
  -2  -3  -4  758.42   84.29
  -3   5  -4  836.42   74.39
   2   3   4  662.13   73.29
  -5   2   4  659.33   71.69
   3  -5   4  905.71   95.49
   6  -3  -4  309.27   47.60
  -3  -3  -4  348.07   49.00
  -3   6  -4  319.47   37.20
   3   3   4  300.57   38.20
   3  -6   4  516.35   67.89
  -6   3   4  326.87   36.20
  -4  -2  -4  334.37   46.50
  -2   6  -4  369.76   38.10
   6  -4  -4  288.47   46.80
  -6   4   4  310.17   35.70
   4   2   4  287.27   38.10
   2  -6   4  345.87   57.49
   5  -4  -4  462.55   57.79
  -1   5  -4  452.45   47.50
   4   1   4  424.16   46.70
  -5   4   4  414.46   45.40
   1  -5   4  480.95   68.29
   0   4  -4    6.90    8.80
   4  -4  -4    4.20    8.90
  -4   0  -4   38.30   13.90
   4  -4  -4    1.10   12.10
   4   0   4   -7.90   12.40
   4   0   4   21.60   10.00
  -4   4   4   22.10    8.80
   0  -4   4   12.10   17.70
   1   3  -4  985.90   82.19
   3  -4  -4  890.81   90.79
  -4   1  -4 1045.60   82.39
   4  -1   4  915.41   82.19
  -3   4   4  722.03   79.69
   4  -1   4  775.92   87.79
  -1  -3   4  683.63   94.59
  -3   4   4  687.43   80.19
   2   2  -4  942.41   84.59
   2  -4  -4  920.01   96.29
  -4   2  -4  938.71   85.09
  -2  -2   4  840.92   96.79
  -2   4   4  654.83   83.89
   4  -2   4  939.91   85.69
   4  -2   4  885.21   94.09
  -2   4   4  907.11   84.99
   1  -4  -4    1.70   13.50
   3   1  -4    8.20   13.70
  -4   3  -4    2.00    8.80
   3   1  -4   26.10    9.10
   4  -3   4    4.90   16.00
  -3  -1   4    2.40   12.40
   4  -3   4   13.20    8.60
  -1   4   4   -9.00    6.70
  -1   4   4    5.00    9.70
  -3  -1   4   10.60    9.90
   0  -4  -4  327.87   56.69
   4   0  -4  463.75   56.89
  -4   4  -4  428.06   45.80
  -4   4  -4  498.85   48.00
   4   0  -4  534.55   46.90
   0   4   4  454.25   47.50
   0   4   4  445.16   48.70
   4  -4   4  573.44   65.79
  -4   0   4  348.67   45.90
  -4   0   4  498.55   54.29
  -4   5  -4  405.76   40.20
  -4   5  -4  428.06   41.30
  -1  -4  -4  299.87   51.89
   5  -1  -4  405.96   52.49
  -5   1   4  351.26   40.00
   4  -5   4  443.46   60.69
   1   4   4  338.77   40.50
  -2  -4  -4   17.80   17.30
  -4   6  -4    6.60    8.10
  -4   6  -4   11.00    9.10
   6  -2  -4    2.90   14.60
   2   4   4   14.50    9.00
  -6   2   4    2.80    7.90
   4  -6   4   19.70   21.50
  -5   0  -4  508.05   49.30
   0   5  -4  533.15   52.39
   5  -5  -4  585.74   67.49
  -5   5   4  512.05   51.09
   0  -5   4  390.16   69.49
   5   0   4  417.36   58.69
  -5   1  -4  338.97   37.60
   4  -5  -4  414.26   53.49
   1   4  -4  438.56   41.60
  -4   5   4  346.17   40.90
   5  -1   4  322.37   47.30
  -1  -4   4  319.57   58.19
  -4   5   4  386.86   40.20
  -5   2  -4    4.60    6.10
   2   3  -4   19.40    9.30
   3  -5  -4    6.20   14.10
   5  -2   4    4.50   15.10
  -2  -3   4   20.90   19.60
  -3   5   4   -2.20    7.10
  -3   5   4   10.80    8.80
   2  -5  -4  618.14   79.69
   3   2  -4  739.03   64.29
  -5   3  -4  593.54   63.09
  -2   5   4  521.15   65.19
  -2   5   4  725.93   65.39
  -3  -2   4  725.73   78.39
   5  -3   4  640.34   78.19
  -5   4  -4  341.07   35.90
   4   1  -4  333.37   47.40
   1  -5  -4  234.48   48.20
   4   1  -4  341.27   35.60
  -1   5   4  345.57   37.20
   5  -4   4  374.46   54.59
  -4  -1   4  351.76   45.60
  -1   5   4  333.77   38.40
   0  -5  -4   -2.20   14.50
  -5   5  -4   -6.80    6.80
   5   0  -4   -5.70   15.80
  -5   0   4    3.00   12.60
   5  -5   4    7.10   18.40
   0   5   4    9.60    8.50
  -6   2  -4  232.48   28.60
   2   4  -4  307.37   31.70
   4  -6  -4  302.47   47.30
  -4   6   4  245.48   31.50
  -2  -4   4  266.07   51.19
   6  -2   4  234.88   41.30
  -4   6   4  258.17   31.90
   3   3  -4  315.67   32.20
  -6   3  -4  254.27   30.30
   3  -6  -4  286.57   49.10
   6  -3   4  182.18   42.00
  -3   6   4  269.67   33.80
  -3  -3   4  364.86   51.69
  -3   6   4  301.07   32.90
   2  -6  -4   27.30   20.50
  -6   4  -4   14.90    7.90
  -2   6   4   14.50   11.40
   6  -4   4   11.40   20.20
  -4  -2   4   18.60   17.40
  -2   6   4   -1.20    7.00
   0   0  -5   64.39   15.40
   0   0   5   50.69   14.50
   1  -1  -5  841.92   76.39
  -1   0  -5  773.12   76.39
   0   1  -5  879.01   77.99
  -1   1   5  650.33   74.79
   0  -1   5  771.72   78.39
   1   0   5  739.43   76.59
   0  -1   5  700.83   75.09
  -1   1  -5  910.61   83.09
   0  -1  -5  951.90   84.29
   1   0  -5  842.92   81.89
  -1   0   5  811.12   81.19
   0   1   5  736.23   81.79
   1  -1   5  807.92   83.59
   1  -1   5  781.52   82.19
  -1  -1  -5   22.90   12.50
   2  -1  -5    5.60    8.60
  -1   2  -5   -3.80    9.50
   1  -2   5    0.40   11.80
   1  -2   5   -4.40    9.90
   1   1   5    0.00   10.30
  -2   1   5    2.70    8.00
   3  -2  -5  604.74   58.39
   3  -2  -5  615.74   63.19
  -2  -1  -5  550.54   61.79
   1  -3   5  420.66   59.09
   2   1   5  670.23   64.29
   1  -3   5  597.64   69.69
   2  -2  -5  827.42   80.29
   0   2  -5  679.43   81.19
   2  -2  -5  765.12   82.19
  -2   0  -5  830.52   81.29
   0  -2   5  943.71   90.09
   0  -2   5  899.41   81.39
   2   0   5  868.11   84.09
   1  -2  -5   11.40   11.00
   1   1  -5   -1.60    9.40
  -2   1  -5    6.10    9.50
  -1   2   5   17.10   10.60
   2  -1   5  -11.20    9.50
  -1  -1   5   -3.90   12.80
  -1  -1   5   10.60    9.60
   2  -1   5    4.60   12.90
   0  -2  -5  281.07   39.30
   2   0  -5  371.06   38.10
  -2   2  -5  344.97   38.60
   2  -2   5  365.26   42.60
  -2   0   5  263.87   35.40
   2  -2   5  257.07   38.50
   0   2   5  312.67   38.10
   3  -1  -5  604.44   59.19
  -2   3  -5  462.75   59.89
   1   2   5  666.23   62.39
   2  -3   5  621.94   68.19
   4  -2  -5   34.10   14.70
  -2   4  -5   17.70   12.00
   4  -2  -5   47.50   16.40
  -2  -2  -5   15.60   13.20
   2  -4   5   24.10   17.90
   2  -4   5    6.80   11.20
   2   2   5   41.80   17.40
  -4   2   5   19.40   10.80
   4  -3  -5  504.15   54.39
  -1   4  -5  406.66   52.29
   4  -3  -5  514.85   56.49
  -3  -1  -5  462.55   54.19
   1  -4   5  554.24   67.09
  -4   3   5  386.36   49.20
   3   1   5  493.95   56.09
  -3   0  -5   10.70   10.60
   3  -3  -5   14.40    9.60
   0   3  -5   11.20   11.80
   3  -3  -5   -2.80   10.10
   0  -3   5   16.30   18.00
   3   0   5   21.60   15.40
  -3   3   5    8.10   10.20
   0  -3   5    4.70   11.10
   2  -3  -5  561.14   58.99
   2  -3  -5  593.64   62.29
   1   2  -5  431.56   57.29
  -3   1  -5  584.34   57.59
  -1  -2   5  513.75   69.19
  -1  -2   5  614.44   57.19
   3  -1   5  662.03   67.19
   3  -1   5  407.56   58.79
   1  -3  -5  507.55   57.99
   1  -3  -5  331.77   50.59
   2   1  -5  448.36   51.49
  -3   2  -5  570.34   52.59
  -1   3   5  511.05   52.39
  -2  -1   5  571.64   50.79
   3  -2   5  612.94   59.89
  -2  -1   5  419.66   60.39
   3  -2   5  328.87   51.59
   3   0  -5   -2.90    9.70
  -3   3  -5   14.40   11.00
   0  -3  -5    7.00   15.20
   3  -3   5   -4.10   13.20
   0   3   5   -8.90    9.50
   3  -3   5  -17.00    9.70
  -3   0   5    1.70    8.70
   0   3   5   -0.20   10.80
   4  -1  -5  383.16   52.29
  -3   4  -5  307.97   39.60
   1   3   5  348.47   41.00
   3  -4   5  337.87   40.70
  -4   1   5  216.18   36.20
   1   3   5  511.65   43.70
   0   4  -5  234.28   32.20
   4  -4  -5  217.18   34.60
  -4   0  -5  280.57   33.20
   0  -4   5  227.98   46.60
  -4   4   5  178.78   28.30
   4   0   5  209.68   34.70
   3  -4  -5  460.75   48.60
   1   3  -5  501.65   50.39
   3  -4  -5  416.26   52.49
  -4   1  -5  541.15   48.80
  -1  -3   5  472.65   65.59
   4  -1   5  321.57   48.20
  -3   4   5  279.27   44.80
   2  -4  -5   32.80   16.50
  -4   2  -5   55.59   14.50
   2  -4  -5   16.40   12.80
   2   2  -5   48.20   15.00
   4  -2   5   28.60   17.80
  -2   4   5   36.50   13.70
  -2  -2   5   18.30   21.10
   4  -2   5   43.10   16.20
  -4   3  -5  379.06   45.00
   1  -4  -5  415.86   55.69
   3   1  -5  418.36   46.20
   4  -3   5  423.86   48.60
  -1   4   5  347.97   45.50
   4  -3   5  511.55   57.59
  -1   4   5  409.96   46.30
  -3  -1   5  361.56   55.69
  -4   4  -5  327.37   38.50
   0  -4  -5  353.36   52.59
  -4   4  -5  270.47   39.30
   0   4   5  337.37   41.30
   0   4   5  544.05   45.00
   0   0  -6  252.17   31.80
   0   0   6  212.08   30.10
  -1   0  -6  668.43   62.29
   0   1  -6  563.74   60.29
   1  -1  -6  622.84   60.79
   1   0   6  505.95   59.59
   0  -1   6  533.35   59.09
  -1   1   6  507.55   59.39
  -1   1  -6   17.80   12.20
   1   0  -6   -2.20    9.80
   0  -1  -6   -2.70    9.90
  -1   0   6   -5.90    8.50
   0   1   6    1.70   10.40
   1  -1   6    1.60   10.10
   2  -1  -6  283.27   34.30
  -1  -1  -6  329.17   37.90
  -1   2  -6  255.77   35.40
   1   1   6  263.77   35.70
   1  -2   6  287.67   36.70
  -2   1   6  254.07   34.50
   0   2  -6   49.60   15.10
  -2   0  -6   52.29   15.60
   2  -2  -6   42.20   14.50
   2   0   6   26.10   14.90
  -2   2   6   32.00   13.00
   0  -2   6   56.69   16.20
   1   1  -6  298.37   37.30
  -2   1  -6  309.27   37.60
   1  -2  -6  339.17   38.90
  -1   2   6  269.27   37.10
  -1  -1   6  272.37   35.10
   2  -1   6  314.07   39.20
   2   0  -6  419.96   46.40
   0  -2  -6  418.66   49.30
  -2   2  -6  418.06   47.80
  -2   0   6  418.96   47.00
   0   2   6  392.86   47.30
   2  -2   6  463.05   50.59
   0   0   0    0.00    0.00
_computing_structure_solution     'SHELXT 2014/5 (Sheldrick, 2014)'
;
_shelx_hkl_checksum              8533
_shelx_res_file
;
    SMB_Rb2ReF6_j_0m_a.res created by SHELXL-2014/7
TITL SMB_Rb2ReF6_j_0m_a.res in P-3m1
REM Old TITL SMB_Rb2ReF6_j_0m in P-3m1
REM SHELXT solution in P-3m1
REM R1 0.126,  Rweak 0.002,  Alpha 0.019,  Orientation as input
REM Formula found by SHELXT:  F13 Re2
CELL  0.71073   5.9926   5.9926   4.7177   90.000   90.000  120.000
ZERR    1.000   0.0013   0.0013   0.0010    0.000    0.000    0.000
LATT  1
SYMM -Y, X-Y, Z
SYMM -X+Y, -X, Z
SYMM Y, X, -Z
SYMM X-Y, -Y, -Z
SYMM -X, -X+Y, -Z
SFAC F RB RE
UNIT 6 2 1
TEMP -173.060
SIZE 0.042 0.074 0.08
L.S. 200
BOND $H
LIST 4
OMIT -4 50
ACTA
FMAP 2
PLAN 20
WGHT    0.017500    3.554800
FVAR       0.66007
RE1   3    0.000000    0.000000    0.000000    10.08333    0.01326    0.01326 =
         0.02053    0.00000    0.00000    0.00663
F1    1    0.315142    0.157571    0.223074    10.50000    0.01532    0.01707 =
         0.01218    0.00069    0.00137    0.00766
RB1   2    0.333333    0.666667    0.297134    10.16667    0.01310    0.01310 =
         0.01517    0.00000    0.00000    0.00655
HKLF 4
REM  SMB_Rb2ReF6_j_0m_a.res in P-3m1
REM R1 =  0.0273 for     111 Fo > 4sig(Fo)  and  0.0288 for all     115 data
REM     12 parameters refined using      0 restraints
END
WGHT      0.0177      3.5507
REM Highest difference peak  1.907,  deepest hole -1.363,  1-sigma level  0.349
Q1    1   0.3333  0.6667  0.1394  10.16667  0.05    1.91
Q2    1   0.0000  0.0000  0.1749  10.16667  0.05    1.38
Q3    1   0.3819  0.7638  0.3485  10.50000  0.05    1.23
Q4    1   0.0000 -0.1651  0.0000  10.50000  0.05    1.04
Q5    1   0.3142  0.3079  0.2400  11.00000  0.05    0.69
Q6    1   0.2077  0.1841  0.1780  11.00000  0.05    0.65
Q7    1   0.3597  0.0000  0.0000  10.50000  0.05    0.54
Q8    1   0.5378  0.3387  0.3435  11.00000  0.05    0.52
Q9    1   0.5000  0.0000  0.0000  10.25000  0.05    0.50
Q10   1   0.5000  1.0000  0.5000  10.25000  0.05    0.45
Q11   1   0.1637 -0.1637  0.2372  10.50000  0.05    0.40
Q12   1   0.3570  0.1785  0.0705  10.50000  0.05    0.40
Q13   1   0.5093  0.0185  0.2250  10.50000  0.05    0.33
Q14   1   0.3384  0.8474  0.0803  11.00000  0.05    0.16
Q15   1   0.1522  0.0761  0.3759  10.50000  0.05    0.15
Q16   1   0.6667  0.3333  0.1298  10.16667  0.05    0.15
;
_shelx_res_checksum              7687
loop_
_space_group_symop_operation_xyz
'x, y, z'
'-y, x-y, z'
'-x+y, -x, z'
'y, x, -z'
'x-y, -y, -z'
'-x, -x+y, -z'
'-x, -y, -z'
'y, -x+y, -z'
'x-y, x, -z'
'-y, -x, z'
'-x+y, y, z'
'x, x-y, z'
loop_
_atom_site_type_symbol
_atom_site_label
_atom_site_fract_x
_atom_site_fract_y
_atom_site_fract_z
_atom_site_U_iso_or_equiv
_atom_site_adp_type
_atom_site_calc_flag
_atom_site_occupancy
Re Re1 0 0 0 0.0157(5) Uani d 1
F F1 0.3151(14) 0.1576(7) 0.2231(15) 0.0151(17) Uani d 1
Rb Rb1 0.3333 0.6667 0.2971(4) 0.0138(6) Uani d 1
loop_
_atom_site_aniso_label
_atom_site_aniso_U_11
_atom_site_aniso_U_22
_atom_site_aniso_U_33
_atom_site_aniso_U_12
_atom_site_aniso_U_13
_atom_site_aniso_U_23
Re1 0.0133(6) 0.0133(6) 0.0205(8) 0.0066(3) 0 0
F1 0.015(4) 0.017(3) 0.012(3) 0.0077(19) 0.001(3) 0.0007(14)
Rb1 0.0131(8) 0.0131(8) 0.0152(12) 0.0065(4) 0 0
loop_
_atom_type_symbol
_atom_type_description
_atom_type_scat_dispersion_real
_atom_type_scat_dispersion_imag
_atom_type_scat_source
F F 0.0171 0.0103 'International Tables Vol C Tables 4.2.6.8 and 6.1.1.4'
Rb Rb -0.9393 2.9676 'International Tables Vol C Tables 4.2.6.8 and 6.1.1.4'
Re Re -1.0185 7.2310 'International Tables Vol C Tables 4.2.6.8 and 6.1.1.4'
loop_
_geom_angle_atom_site_label_1
_geom_angle_atom_site_label_2
_geom_angle_atom_site_label_3
_geom_angle_site_symmetry_1
_geom_angle_site_symmetry_3
_geom_angle
F1 Re1 F1 7 9 93.5(3)
F1 Re1 F1 7 3 86.5(3)
F1 Re1 F1 9 3 180.0(3)
F1 Re1 F1 7 8 93.5(3)
F1 Re1 F1 9 8 93.5(3)
F1 Re1 F1 3 8 86.5(3)
F1 Re1 F1 7 2 86.5(3)
F1 Re1 F1 9 2 86.5(3)
F1 Re1 F1 3 2 93.5(3)
F1 Re1 F1 8 2 180.0
F1 Re1 F1 7 . 180.0
F1 Re1 F1 9 . 86.5(3)
F1 Re1 F1 3 . 93.5(3)
F1 Re1 F1 8 . 86.5(3)
F1 Re1 F1 2 . 93.5(3)
F1 Re1 Rb1 7 7 53.64(2)
F1 Re1 Rb1 9 7 125.2(2)
F1 Re1 Rb1 3 7 54.8(2)
F1 Re1 Rb1 8 7 53.64(2)
F1 Re1 Rb1 2 7 126.36(2)
F1 Re1 Rb1 . 7 126.36(2)
F1 Re1 Rb1 7 7_665 125.2(2)
F1 Re1 Rb1 9 7_665 53.64(2)
F1 Re1 Rb1 3 7_665 126.36(2)
F1 Re1 Rb1 8 7_665 53.64(2)
F1 Re1 Rb1 2 7_665 126.36(2)
F1 Re1 Rb1 . 7_665 54.8(2)
Rb1 Re1 Rb1 7 7_665 106.77(3)
F1 Re1 Rb1 7 1_445 54.8(2)
F1 Re1 Rb1 9 1_445 126.36(2)
F1 Re1 Rb1 3 1_445 53.64(2)
F1 Re1 Rb1 8 1_445 126.36(2)
F1 Re1 Rb1 2 1_445 53.64(2)
F1 Re1 Rb1 . 1_445 125.2(2)
Rb1 Re1 Rb1 7 1_445 73.23(3)
Rb1 Re1 Rb1 7_665 1_445 180.0
F1 Re1 Rb1 7 . 126.36(2)
F1 Re1 Rb1 9 . 54.8(2)
F1 Re1 Rb1 3 . 125.2(2)
F1 Re1 Rb1 8 . 126.36(2)
F1 Re1 Rb1 2 . 53.64(2)
F1 Re1 Rb1 . . 53.64(2)
Rb1 Re1 Rb1 7 . 180.0
Rb1 Re1 Rb1 7_665 . 73.23(3)
Rb1 Re1 Rb1 1_445 . 106.77(3)
F1 Re1 Rb1 7 1_545 126.36(2)
F1 Re1 Rb1 9 1_545 126.36(2)
F1 Re1 Rb1 3 1_545 53.64(2)
F1 Re1 Rb1 8 1_545 54.8(2)
F1 Re1 Rb1 2 1_545 125.2(2)
F1 Re1 Rb1 . 1_545 53.64(2)
Rb1 Re1 Rb1 7 1_545 73.23(3)
Rb1 Re1 Rb1 7_665 1_545 73.23(3)
Rb1 Re1 Rb1 1_445 1_545 106.77(3)
Rb1 Re1 Rb1 . 1_545 106.77(3)
F1 Re1 Rb1 7 7_565 53.64(2)
F1 Re1 Rb1 9 7_565 53.64(2)
F1 Re1 Rb1 3 7_565 126.36(2)
F1 Re1 Rb1 8 7_565 125.2(2)
F1 Re1 Rb1 2 7_565 54.8(2)
F1 Re1 Rb1 . 7_565 126.36(2)
Rb1 Re1 Rb1 7 7_565 106.77(3)
Rb1 Re1 Rb1 7_665 7_565 106.77(3)
Rb1 Re1 Rb1 1_445 7_565 73.23(3)
Rb1 Re1 Rb1 . 7_565 73.23(3)
Rb1 Re1 Rb1 1_545 7_565 180.0
Re1 F1 Rb1 . 7_666 161.6(3)
Re1 F1 Rb1 . . 95.10(14)
Rb1 F1 Rb1 7_666 . 83.70(14)
Re1 F1 Rb1 . 1_545 95.10(14)
Rb1 F1 Rb1 7_666 1_545 83.70(14)
Rb1 F1 Rb1 . 1_545 166.2(3)
Re1 F1 Rb1 . 7_665 93.9(2)
Rb1 F1 Rb1 7_666 7_665 104.5(2)
Rb1 F1 Rb1 . 7_665 94.26(14)
Rb1 F1 Rb1 1_545 7_665 94.26(14)
F1 Rb1 F1 8_566 7_666 65.8(2)
F1 Rb1 F1 8_566 9_556 65.8(2)
F1 Rb1 F1 7_666 9_556 65.8(2)
F1 Rb1 F1 8_566 3_565 62.7(2)
F1 Rb1 F1 7_666 3_565 128.31(8)
F1 Rb1 F1 9_556 3_565 96.30(14)
F1 Rb1 F1 8_566 1_565 62.7(2)
F1 Rb1 F1 7_666 1_565 96.30(14)
F1 Rb1 F1 9_556 1_565 128.31(8)
F1 Rb1 F1 3_565 1_565 56.0(3)
F1 Rb1 F1 8_566 2 96.30(14)
F1 Rb1 F1 7_666 2 128.31(8)
F1 Rb1 F1 9_556 2 62.7(2)
F1 Rb1 F1 3_565 2 63.1(3)
F1 Rb1 F1 1_565 2 118.68(6)
F1 Rb1 F1 8_566 2_665 96.30(14)
F1 Rb1 F1 7_666 2_665 62.7(2)
F1 Rb1 F1 9_556 2_665 128.31(8)
F1 Rb1 F1 3_565 2_665 118.68(5)
F1 Rb1 F1 1_565 2_665 63.1(3)
F1 Rb1 F1 2 2_665 166.2(3)
F1 Rb1 F1 8_566 3_665 128.31(8)
F1 Rb1 F1 7_666 3_665 62.7(2)
F1 Rb1 F1 9_556 3_665 96.30(14)
F1 Rb1 F1 3_565 3_665 166.2(3)
F1 Rb1 F1 1_565 3_665 118.68(6)
F1 Rb1 F1 2 3_665 118.68(5)
F1 Rb1 F1 2_665 3_665 56.0(3)
F1 Rb1 F1 8_566 . 128.31(8)
F1 Rb1 F1 7_666 . 96.30(14)
F1 Rb1 F1 9_556 . 62.7(2)
F1 Rb1 F1 3_565 . 118.68(6)
F1 Rb1 F1 1_565 . 166.2(3)
F1 Rb1 F1 2 . 56.0(3)
F1 Rb1 F1 2_665 . 118.68(5)
F1 Rb1 F1 3_665 . 63.1(3)
F1 Rb1 F1 8_566 8_565 104.5(2)
F1 Rb1 F1 7_666 8_565 144.30(9)
F1 Rb1 F1 9_556 8_565 144.30(9)
F1 Rb1 F1 3_565 8_565 52.0(2)
F1 Rb1 F1 1_565 8_565 52.0(2)
F1 Rb1 F1 2 8_565 85.74(14)
F1 Rb1 F1 2_665 8_565 85.74(14)
F1 Rb1 F1 3_665 8_565 114.25(9)
F1 Rb1 F1 . 8_565 114.25(9)
F1 Rb1 F1 8_566 9 144.30(9)
F1 Rb1 F1 7_666 9 144.30(9)
F1 Rb1 F1 9_556 9 104.5(2)
F1 Rb1 F1 3_565 9 85.74(14)
F1 Rb1 F1 1_565 9 114.25(9)
F1 Rb1 F1 2 9 52.0(2)
F1 Rb1 F1 2_665 9 114.25(9)
F1 Rb1 F1 3_665 9 85.74(14)
F1 Rb1 F1 . 9 52.0(2)
F1 Rb1 F1 8_565 9 62.2(2)
F1 Rb1 F1 8_566 7_665 144.30(9)
F1 Rb1 F1 7_666 7_665 104.5(2)
F1 Rb1 F1 9_556 7_665 144.30(9)
F1 Rb1 F1 3_565 7_665 114.25(9)
F1 Rb1 F1 1_565 7_665 85.74(14)
F1 Rb1 F1 2 7_665 114.25(9)
F1 Rb1 F1 2_665 7_665 52.0(2)
F1 Rb1 F1 3_665 7_665 52.0(2)
F1 Rb1 F1 . 7_665 85.74(14)
F1 Rb1 F1 8_565 7_665 62.2(2)
F1 Rb1 F1 9 7_665 62.2(2)
loop_
_geom_bond_atom_site_label_1
_geom_bond_atom_site_label_2
_geom_bond_site_symmetry_2
_geom_bond_distance
Re1 F1 7 1.945(7)
Re1 F1 9 1.945(7)
Re1 F1 3 1.945(7)
Re1 F1 8 1.945(7)
Re1 F1 2 1.945(7)
Re1 F1 . 1.945(7)
Re1 Rb1 7 3.7330(10)
Re1 Rb1 7_665 3.7330(11)
Re1 Rb1 1_445 3.7330(11)
Re1 Rb1 . 3.7330(10)
Re1 Rb1 1_545 3.7330(11)
Re1 Rb1 7_565 3.7330(11)
F1 Rb1 7_666 2.907(7)
F1 Rb1 . 3.0181(11)
F1 Rb1 1_545 3.0181(11)
F1 Rb1 7_665 3.058(7)
Rb1 F1 8_566 2.907(7)
Rb1 F1 7_666 2.907(7)
Rb1 F1 9_556 2.907(7)
Rb1 F1 3_565 3.0181(11)
Rb1 F1 1_565 3.0181(11)
Rb1 F1 2 3.0181(11)
Rb1 F1 2_665 3.0181(11)
Rb1 F1 3_665 3.0181(11)
Rb1 F1 8_565 3.058(7)
Rb1 F1 9 3.058(7)
Rb1 F1 7_665 3.058(7)

_cod_database_fobs_code 2242481
