#------------------------------------------------------------------------------
#$Date: 2018-04-30 19:32:52 +0300 (Mon, 30 Apr 2018) $
#$Revision: 207565 $
#$URL: file:///home/coder/svn-repositories/cod/cif/2/24/24/2242480.cif $
#------------------------------------------------------------------------------
#
# This file is available in the Crystallography Open Database (COD),
# http://www.crystallography.net/. The original data for this entry
# were provided by IUCr Journals, http://journals.iucr.org/.
#
# The file may be used within the scientific community so long as
# proper attribution is given to the journal article from which the
# data were obtained.
#
data_2242480
loop_
_publ_author_name
'Louis-Jean, James'
'Mariappan Balasekaran, Samundeeswari'
'Smith, Dean'
'Salamat, Ashkan'
'Pham, Chien Thang'
'Poineau, Frederic'
_publ_section_title
;
 Syntheses, Raman spectroscopy and crystal structures of alkali
 hexafluoridorhenates(IV) revisited
;
_journal_coeditor_code           WM5432
_journal_issue                   5
_journal_name_full               'Acta Crystallographica Section E'
_journal_page_first              646
_journal_page_last               649
_journal_paper_doi               10.1107/S2056989018005297
_journal_volume                  74
_journal_year                    2018
_chemical_formula_iupac          'K2 [Re F6]'
_chemical_formula_moiety         'F6 Re, 2(K)'
_chemical_formula_sum            'F6 K2 Re'
_chemical_formula_weight         378.40
_chemical_name_common            K2ReF6
_chemical_name_systematic
;
Dipotassium hexafluoridorhenate(IV)
;
_space_group_crystal_system      trigonal
_space_group_IT_number           164
_space_group_name_Hall           '-P 3 2"'
_space_group_name_H-M_alt        'P -3 m 1'
_symmetry_space_group_name_Hall  '-P 3 2"'
_symmetry_space_group_name_H-M   'P -3 m 1'
_atom_sites_solution_primary     direct
_atom_sites_solution_secondary   difmap
_cell_angle_alpha                90
_cell_angle_beta                 90
_cell_angle_gamma                120
_cell_formula_units_Z            1
_cell_length_a                   5.834(2)
_cell_length_b                   5.834(2)
_cell_length_c                   4.546(2)
_cell_measurement_reflns_used    2236
_cell_measurement_temperature    100.(2)
_cell_measurement_theta_max      30.4759
_cell_measurement_theta_min      4.0331
_cell_volume                     134.00(9)
_computing_cell_refinement
;
SAINT (Bruker, 2015)
;
_computing_data_collection
;
APEX3 (Bruker, 2015)
;
_computing_data_reduction
;
SAINT (Bruker, 2015)
;
_computing_molecular_graphics
;
DIAMOND (Brandenburg, 2007)
;
_computing_publication_material
;
publCIF (Westrip, 2010)
;
_computing_structure_refinement
;
SHELXL2014 (Sheldrick, 2015)
;
_computing_structure_solution
;
SHELXS (Sheldrick, 2008)
;
_diffrn_ambient_temperature      100.(2)
_diffrn_detector_area_resol_mean 8.3333
_diffrn_measured_fraction_theta_full 1.000
_diffrn_measured_fraction_theta_max 1.000
_diffrn_measurement_device_type  'Bruker D8 QUEST'
_diffrn_measurement_method       '\f and \w scans'
_diffrn_radiation_monochromator  'curved graphite'
_diffrn_radiation_type           'Mo K\a'
_diffrn_radiation_wavelength     0.71073
_diffrn_reflns_av_R_equivalents  0.0543
_diffrn_reflns_limit_h_max       8
_diffrn_reflns_limit_h_min       -8
_diffrn_reflns_limit_k_max       8
_diffrn_reflns_limit_k_min       -8
_diffrn_reflns_limit_l_max       6
_diffrn_reflns_limit_l_min       -6
_diffrn_reflns_number            2148
_diffrn_reflns_theta_full        30.48
_diffrn_reflns_theta_max         30.48
_diffrn_reflns_theta_min         4.03
_exptl_absorpt_coefficient_mu    24.261
_exptl_absorpt_correction_T_max  0.44
_exptl_absorpt_correction_T_min  0.14
_exptl_absorpt_correction_type   multi-scan
_exptl_absorpt_process_details
;
(<i>SADABS</i>; Bruker, 2015)
;
_exptl_crystal_colour            'translucent colourless'
_exptl_crystal_density_diffrn    4.689
_exptl_crystal_density_method    'not measured'
_exptl_crystal_description       hexagonal
_exptl_crystal_F_000             167
_exptl_crystal_size_max          0.103
_exptl_crystal_size_mid          0.066
_exptl_crystal_size_min          0.041
_refine_diff_density_max         1.802
_refine_diff_density_min         -1.368
_refine_ls_extinction_method     none
_refine_ls_goodness_of_fit_ref   1.126
_refine_ls_hydrogen_treatment    undef
_refine_ls_matrix_type           full
_refine_ls_number_parameters     12
_refine_ls_number_reflns         180
_refine_ls_number_restraints     0
_refine_ls_restrained_S_all      1.126
_refine_ls_R_factor_all          0.0158
_refine_ls_R_factor_gt           0.0158
_refine_ls_shift/su_max          0.000
_refine_ls_shift/su_mean         0.000
_refine_ls_structure_factor_coef Fsqd
_refine_ls_weighting_details
'w=1/[\s^2^(Fo^2^)+(0.0194P)^2^+0.5170P] where P=(Fo^2^+2Fc^2^)/3'
_refine_ls_weighting_scheme      calc
_refine_ls_wR_factor_gt          0.0408
_refine_ls_wR_factor_ref         0.0408
_reflns_number_gt                180
_reflns_number_total             180
_reflns_threshold_expression     'I > 2\s(I)'
_cod_data_source_file            wm5432sup1.cif
_cod_data_source_block           SMB_K2ReF6_1
_cod_original_cell_volume        134.00(11)
_cod_database_code               2242480
_shelx_hkl_file
;
   1   0   0 3037.80  170.28
   1   0   0 2924.21  168.48
  -1   1   0 2766.42  168.48
  -1   1   0 3294.07  169.88
  -1   0   0 2790.72  168.08
  -1   0   0 2885.31  169.18
   0   1   0 2996.10  168.08
   0   1   0 2864.31  168.88
   0   1   0 2778.52  172.48
   1  -1   0 3159.98  171.48
  -2   1   0 4437.56  257.17
  -2   1   0 4465.35  259.17
   1   1   0 4613.54  261.67
   1   1   0 4588.84  258.47
  -1   2   0 4336.97  257.67
  -1   2   0 4873.71  268.77
   2  -1   0 4802.22  261.17
  -1   2   0 4395.06  264.17
  -1   2   0 3995.60  257.07
  -1  -1   0 4578.34  258.87
  -2   2   0  517.55   34.70
   2   0   0  575.44   37.90
   2   0   0  547.45   34.50
  -2   2   0  622.34   37.50
  -2   0   0  592.94   33.20
   2  -2   0  601.04   39.90
  -2   0   0  553.64   36.00
   0   2   0  566.34   34.00
   0   2   0  547.25   43.50
   0   2   0  506.65   35.20
   1   2   0 1621.04  100.29
   2  -3   0 1591.64   97.69
   1   2   0 1750.02  107.79
   1   2   0 1867.51   96.59
  -3   1   0 1596.14   97.59
  -3   1   0 1615.14  100.89
   2  -3   0 1761.12  108.99
   3  -1   0 1594.84   97.19
   3  -1   0 1767.42  103.79
  -2   3   0 1541.45   98.99
  -1  -2   0 1714.53  100.49
  -2   3   0 1762.72  106.49
  -3   2   0 1680.63  100.29
  -3   2   0 1587.34   96.99
   2   1   0 1682.33  102.59
   2   1   0 1623.94   97.99
  -1   3   0 1557.14   97.39
  -2  -1   0 1693.73   99.29
  -1   3   0 1557.74  113.69
  -1   3   0 1733.63  106.99
  -1   3   0 1636.94   97.19
   3  -2   0 1762.52  103.49
   3   0   0 3014.60  175.58
   3   0   0 3097.89  180.98
   3   0   0 2919.31  173.28
  -3   3   0 3256.27  181.18
  -3   3   0 2920.61  176.18
   0  -3   0 3041.50  177.68
  -3   0   0 2956.20  178.08
   3  -3   0 3170.98  184.58
   0   3   0 2705.43  191.88
   0   3   0 3221.78  174.88
   0   3   0 3001.30  177.38
   1   3   0 1318.27   96.69
   3  -4   0 1316.97   92.69
   3  -4   0 1354.06   80.49
   1   3   0 1308.57   83.99
  -4   1   0 1415.06   80.39
   1   3   0 1431.46   79.39
  -4   1   0 1265.17   84.79
  -1  -3   0 1313.17   83.69
   4  -1   0 1401.76   80.69
   4  -1   0 1341.17   88.09
  -3   4   0 1296.57   82.59
  -3   4   0 1550.84   93.89
   2   2   0 6129.29  358.06
   2  -4   0 5819.92  347.67
   2   2   0 6064.69  349.47
  -4   2   0 5792.32  351.26
  -4   2   0 5860.21  346.97
  -2   4   0 5984.80  348.27
   4  -2   0 6340.97  355.66
  -2  -2   0 6187.38  350.26
  -2   4   0 6366.46  368.06
  -4   3   0 1276.47   79.69
  -4   3   0 1371.36   84.89
   3   1   0 1364.96   86.89
   3   1   0 1327.87   80.59
  -1   4   0 1203.98  101.29
  -1   4   0 1291.27   80.69
  -3  -1   0 1342.37   82.59
  -1   4   0 1326.07   79.59
   4  -3   0 1352.16   88.39
   4   0   0  543.65   34.90
   4   0   0  514.25   40.50
  -4   4   0  491.55   35.50
   0  -4   0  501.95   36.90
  -4   4   0  518.75   41.40
  -4   0   0  536.85   38.00
   0   4   0  578.54   34.10
   0   4   0  427.06   52.19
   0   4   0  520.55   36.90
   4  -4   0  550.24   44.90
   1   4   0 1634.24  130.29
   4  -5   0 1741.83  120.19
   1   4   0 1803.82  109.89
  -5   1   0 1790.92  111.59
  -1  -4   0 1716.23  109.09
  -4   5   0 1787.52  108.09
   5  -1   0 1745.03  115.29
  -4   5   0 1966.60  124.19
   2   3   0 1106.69   70.09
  -5   2   0  997.70   71.49
   3  -5   0 1067.39   81.79
  -5   2   0 1126.89   66.59
   3  -5   0 1144.99   67.79
   2   3   0 1128.49   84.79
  -2  -3   0 1169.38   70.69
   5  -2   0 1023.30   75.49
  -3   5   0 1041.80   68.39
   3   2   0 1085.59   70.69
   2  -5   0 1113.99   70.49
  -5   3   0 1117.99   74.59
   3   2   0 1165.18   80.39
  -5   3   0 1075.79   68.89
  -2   5   0 1213.78   82.99
  -2   5   0 1062.29   69.49
   5  -3   0 1125.69   78.69
  -3  -2   0 1156.88   72.59
  -2   5   0 1107.49   91.99
  -5   4   0 1737.53  107.49
   1  -5   0 1794.42  109.69
  -5   4   0 1793.72  114.19
   4   1   0 1714.43  107.39
   4   1   0 1784.12  115.59
  -1   5   0 1675.63  135.49
  -1   5   0 1884.81  106.89
  -4  -1   0 1878.61  111.19
   5  -4   0 1682.13  117.89
   5   0   0  719.33   55.09
   0  -5   0  680.63   49.70
   5   0   0  765.62   47.70
  -5   5   0  754.42   58.09
  -5   5   0  711.23   48.50
  -5   0   0  715.73   51.49
   0   5   0  728.83   50.39
   5  -5   0  654.33   58.19
   5  -6   0  609.14   56.79
  -6   1   0  659.33   48.80
   1   5   0  500.45   67.69
  -5   6   0  624.14   44.70
  -5   6   0  635.24   61.79
   6  -1   0  667.63   52.69
  -1  -5   0  650.93   47.40
   2   4   0  401.46   49.50
  -6   2   0  419.76   34.70
   2   4   0  392.16   31.70
   4  -6   0  389.36   41.60
   6  -2   0  364.86   36.60
  -2  -4   0  404.76   31.80
  -4   6   0  399.46   30.60
  -6   3   0 1452.05   88.29
   3  -6   0 1324.17  105.29
   3   3   0 1480.75  108.29
  -6   3   0 1383.96   94.79
   3   3   0 1480.25   91.59
  -3  -3   0 1512.45   92.69
  -3   6   0 1424.76   89.89
   6  -3   0 1479.35  101.19
  -6   4   0  408.76   30.30
   4   2   0  404.56   39.80
  -6   4   0  389.56   35.60
   2  -6   0  400.56   32.00
   4   2   0  405.26   31.30
  -2   6   0  419.76   30.60
  -2   6   0  384.66   50.79
   6  -4   0  412.36   40.30
  -4  -2   0  464.55   34.40
   5   1   0  590.34   51.59
  -6   5   0  647.94   44.50
  -6   5   0  638.64   52.59
   1  -6   0  618.14   46.60
  -5  -1   0  683.13   48.10
  -1   6   0  575.84   69.39
   6  -5   0  643.34   56.39
   6   0   0 2059.49  132.09
   0  -6   0 1968.70  124.89
  -6   6   0 1882.51  135.99
  -6   6   0 1917.41  121.29
   6  -6   0 1824.72  135.09
  -6   0   0 2104.29  126.69
  -7   1   0  513.65   43.00
   6  -7   0  479.75   51.39
  -6   7   0  470.55   38.00
  -1  -6   0  481.25   40.90
   7  -1   0  487.85   46.70
   2   5   0  900.71   99.09
   5  -7   0 1019.30   84.09
  -7   2   0 1096.79   73.99
   7  -2   0  973.00   77.19
  -2  -5   0 1031.50   70.59
  -5   7   0  987.10   67.69
   3   4   0  453.25   55.99
  -7   3   0  463.95   40.90
   4  -7   0  444.06   49.20
  -3  -4   0  464.85   37.80
  -3  -4   0  499.35   38.20
  -4   7   0  506.45   36.80
   7  -3   0  443.76   44.80
  -7   4   0  512.65   35.50
  -7   4   0  408.56   40.30
   4   3   0  493.35   51.89
   3  -7   0  432.06   49.70
  -4  -3   0  481.75   37.70
  -4  -3   0  522.35   39.40
  -3   7   0  486.05   36.20
   7  -4   0  471.05   46.90
   5   2   0 1023.90   81.39
  -7   5   0 1044.40   68.09
  -7   5   0  861.31   74.39
   2  -7   0 1060.69   71.49
  -2   7   0  881.71   93.29
  -5  -2   0 1062.89   69.59
   7  -5   0  958.10   80.89
  -5  -2   0 1118.99   72.49
  -2   7   0 1216.98   73.79
  -7   6   0  503.95   37.90
  -7   6   0  427.26   46.20
   1  -7   0  482.15   40.80
   6   1   0  517.35   47.90
  -1   7   0  397.06   61.09
   7  -6   0  449.76   48.90
  -6  -1   0  555.94   42.60
   7   0   0  446.66   45.10
  -7   7   0  435.06   35.50
   0  -7   0  435.36   39.10
  -7   0   0  455.45   39.80
   0   7   0  313.67   59.39
   7  -7   0  404.86   48.00
   2   6   0  161.88   46.90
  -8   2   0  267.07   29.00
  -6   8   0  226.38   23.70
  -2  -6   0  225.48   25.90
  -8   3   0  410.46   38.70
   3   5   0  308.57   54.99
   5  -8   0  345.77   44.50
  -5   8   0  388.96   32.80
  -3  -5   0  406.06   35.30
   8  -3   0  372.96   42.00
  -8   4   0 1149.48   89.19
   4   4   0 1264.07  111.59
   4  -8   0 1255.57  102.19
  -4  -4   0 1327.07   85.79
   8  -4   0 1215.78   96.59
  -4   8   0 1299.27   83.09
   5   3   0  391.66   48.60
  -8   5   0  458.45   37.00
  -8   5   0  344.97   38.50
   3  -8   0  373.76   47.50
   8  -5   0  338.17   42.60
  -5  -3   0  423.76   35.00
  -3   8   0  428.66   35.50
  -5  -3   0  393.36   35.20
  -8   6   0  205.88   21.60
  -8   6   0  195.18   29.50
  -2   8   0  177.48   39.80
  -6  -2   0  249.08   29.80
  -6  -2   0  243.58   25.80
   0   0  -1 3004.70  165.18
   0   0  -1 2697.73  167.38
   0   0   1 2586.84  169.48
   0   0   1 3131.39  168.28
  -1   0  -1 2406.66  142.69
   1  -1  -1 2168.68  141.89
   0   1  -1 2609.94  149.19
   0   1  -1 2267.57  143.09
  -1   0  -1 2612.34  144.59
   1  -1  -1 2284.67  142.99
   1   0   1 2633.04  144.59
   1   0   1 2461.45  143.89
   0  -1   1 2677.13  144.69
  -1   1   1 2674.33  146.99
  -1   1   1 2486.55  144.59
  -1   1  -1 4592.34  284.27
   0  -1  -1 5399.56  285.47
  -1   1  -1 4801.92  285.17
   1   0  -1 5252.97  286.27
   1   0  -1 5207.78  287.17
   0   1   1 4346.37  285.47
   1  -1   1 5237.78  292.17
   0   1   1 5036.70  293.47
   0   1   1 5057.29  285.87
  -1  -1  -1 2009.80  116.29
   2  -1  -1 1821.62  112.69
  -1   2  -1 1803.72  124.59
  -1   2  -1 1885.91  112.99
   2  -1  -1 1887.31  113.99
  -1  -1  -1 1633.94  113.19
  -2   1   1 2147.09  116.29
   1   1   1 1919.21  113.79
   1   1   1 2076.39  116.29
  -2   1   1 2060.49  114.59
   1  -2   1 2033.40  114.39
  -2  -1  -1 1751.92  104.19
   3  -2  -1 1680.43  103.09
  -1   3  -1 1590.24  100.59
  -1   3  -1 1712.33  120.69
  -3   2   1 1861.91  106.39
   2   1   1 1682.03  101.79
  -3   2   1 1654.23  100.99
   1  -3   1 1606.54  101.69
   2   1   1 1833.12  107.09
  -2   0  -1 9188.38  516.95
   0   2  -1 8872.11  514.35
  -2   0  -1 9024.20  514.35
   2  -2  -1 8978.00  515.75
   0   2  -1 8882.61  526.05
  -2   2   1 9257.27  520.15
   2   0   1 9115.39  515.35
   2   0   1 9999.00  519.65
  -2   2   1 8550.64  514.85
  -2   2   1 9072.59  513.35
   0  -2   1 8358.16  515.65
   1   1  -1 1994.20  114.09
  -2   1  -1 1883.51  110.49
  -2   1  -1 1913.31  109.19
   1   1  -1 1972.00  110.69
  -1   2   1 1755.42  119.69
  -1  -1   1 1812.72  110.39
  -1   2   1 1855.61  109.69
  -1  -1   1 1772.02  108.89
  -1   2   1 1804.52  109.59
   2  -1   1 2014.40  110.69
  -2   2  -1   86.59    8.00
   2   0  -1   97.49   10.00
  -2   2  -1   77.89    7.80
   0  -2  -1   84.39    7.30
   2   0  -1   90.39    8.50
   0   2   1  108.89   14.50
   2  -2   1   96.69   14.50
   0   2   1   97.49   12.90
  -2   0   1   89.39    8.10
  -2   0   1   92.69    8.90
   0   2   1   85.59    8.50
  -2   3  -1 2783.22  198.58
   3  -1  -1 3066.49  182.78
  -1  -2  -1 3301.57  181.58
  -2   3  -1 3100.89  185.78
   3  -1  -1 3169.98  185.98
  -1  -2  -1 3173.28  188.08
  -2   3  -1 3004.90  183.48
   1   2   1 3063.99  190.58
   1   2   1 3063.79  184.68
   2  -3   1 3408.86  184.98
  -3   1   1 3464.55  183.08
  -3   1   1 3261.37  186.48
  -2  -2  -1 1435.06   89.29
   4  -2  -1 1555.14   89.99
  -2   4  -1 1155.78  104.29
  -2   4  -1 1356.26   90.59
   4  -2  -1 1319.27   84.49
  -2   4  -1 1402.86   85.69
  -4   2   1 1369.46   90.09
   2   2   1 1432.66   86.89
   2   2   1 1526.25   96.19
   2  -4   1 1516.55   86.89
   5  -3  -1  886.11   60.39
  -3  -2  -1  881.11   58.89
  -2   5  -1  660.03   75.89
  -2   5  -1  854.91   55.19
  -5   3   1  886.51   61.59
   3   2   1  836.42   56.19
   2  -5   1  879.11   56.79
  -5   3   1  876.41   54.99
   3   2   1  858.31   66.39
  -1   4  -1 2337.07  167.08
   4  -3  -1 2429.16  143.99
  -1   4  -1 2336.07  139.29
  -3  -1  -1 2453.35  143.39
   3   1   1 2556.34  148.59
   3   1   1 2325.67  140.39
  -4   3   1 2460.65  147.29
   1  -4   1 2115.49  137.39
  -4   3   1 2350.46  139.69
   1  -4   1 2317.07  141.29
  -3   0  -1 1573.74   92.59
   3  -3  -1 1620.74   98.79
   0   3  -1 1603.44  113.09
   0   3  -1 1623.44   94.89
  -3   0  -1 1603.34   98.49
  -3   3   1 1539.05   96.09
  -3   3   1 1720.13  103.79
   3   0   1 1609.64   95.89
   0  -3   1 1498.95   93.79
   0  -3   1 1547.25   97.29
   3   0   1 1748.03  102.79
   1   2  -1 1880.31  102.59
   1   2  -1 1855.11  112.79
   2  -3  -1 1749.12  106.69
  -3   1  -1 1763.82  102.09
  -3   1  -1 1690.13  105.29
  -2   3   1 1643.54  103.79
   3  -1   1 2028.00  112.69
  -2   3   1 1716.23  114.69
  -1  -2   1 1652.53  104.79
  -1  -2   1 1572.14  102.19
   3  -1   1 1742.13  103.09
  -2   3   1 1763.22  102.69
  -3   2  -1 2969.00  184.58
  -3   2  -1 3120.59  183.28
   2   1  -1 3381.86  189.28
   2   1  -1 3204.08  184.58
  -1   3   1 3526.05  193.58
   3  -2   1 3227.28  183.28
  -1   3   1 3187.18  183.48
   3  -2   1 3512.15  196.18
  -2  -1   1 2912.71  183.48
  -1   3   1 3165.68  184.28
  -2  -1   1 2997.20  184.28
  -1   3   1 2820.72  198.98
   3   0  -1 1255.87   78.59
  -3   3  -1 1205.18   74.99
  -3   3  -1 1296.37   76.99
   3   0  -1 1234.78   74.69
   3  -3   1 1148.99   87.69
   0   3   1 1201.08   75.99
  -3   0   1 1171.08   76.09
   0   3   1 1433.36   86.99
   0   3   1 1300.17   88.49
  -3   0   1 1161.88   74.39
   4  -1  -1 1188.98   76.29
   4  -1  -1 1177.08   71.29
  -1  -3  -1 1220.38   78.09
  -1  -3  -1 1258.27   69.79
  -3   4  -1 1243.48   79.19
  -3   4  -1 1092.09   72.69
  -4   1   1 1179.28   71.19
   3  -4   1 1251.57   74.29
   1   3   1 1108.29   84.89
   1   3   1 1158.28   74.09
   3  -4   1 1078.79   88.39
  -4   1   1 1171.98   75.39
  -3   5  -1 1867.31  113.49
   5  -2  -1 1996.90  118.49
  -2  -3  -1 1843.92  117.09
   5  -2  -1 1886.31  111.49
  -5   2   1 1819.72  117.69
   2   3   1 1709.63  128.39
   3  -5   1 2010.10  114.49
   2   3   1 1925.61  114.89
   3  -5   1 1706.13  132.79
  -3   6  -1  700.13   47.80
   6  -3  -1  702.03   46.10
  -3  -3  -1  704.83   51.09
   6  -3  -1  723.83   53.49
   3   3   1  719.83   49.30
   3   3   1  613.14   62.19
   3  -6   1  623.74   65.79
  -6   3   1  714.73   53.59
  -3   7  -1  517.65   37.30
  -4  -3  -1  542.95   41.10
   7  -4  -1  441.66   41.90
   7  -4  -1  500.05   35.50
   4   3   1  502.35   38.20
   3  -7   1  411.16   53.29
  -7   4   1  431.66   42.30
   4   3   1  384.76   49.80
  -4  -2  -1 2323.67  136.09
  -2   6  -1 2322.97  131.29
   6  -4  -1 2101.19  137.89
  -2   6  -1 1770.22  162.08
   4   2   1 2191.98  146.09
  -6   4   1 2235.88  130.99
   2  -6   1 2201.98  133.79
   4   2   1 2191.88  132.29
  -6   4   1 1960.70  138.59
  -1   5  -1  859.91   52.99
   5  -4  -1  814.62   58.69
  -1   5  -1  835.92   81.89
  -4  -1  -1  802.52   56.69
  -5   4   1  800.12   53.29
   4   1   1  788.02   62.19
   4   1   1  799.52   53.69
   1  -5   1  847.62   56.19
  -5   4   1  797.12   61.69
  -4   0  -1  196.48   19.50
   0   4  -1  212.28   16.30
   4  -4  -1  207.48   20.70
   0   4  -1  206.78   32.90
   0  -4   1  209.08   19.30
   4   0   1  205.48   17.10
  -4   4   1  205.68   24.10
   4   0   1  223.08   23.80
  -4   4   1  208.28   17.80
   3  -4  -1 2420.76  150.88
  -4   1  -1 2431.86  148.99
  -4   1  -1 2479.15  143.69
   1   3  -1 2743.73  144.49
   1   3  -1 2623.04  162.68
  -3   4   1 2477.05  160.68
  -3   4   1 2481.15  147.19
  -1  -3   1 2367.36  148.69
  -3   4   1 2423.66  143.69
  -1  -3   1 2328.97  144.89
   4  -1   1 2582.94  156.88
   4  -1   1 2422.16  145.09
   2   2  -1 1717.73   88.79
   2   2  -1 1522.95  100.49
  -4   2  -1 1410.86   92.89
   2  -4  -1 1522.95   97.69
  -4   2  -1 1474.35   89.89
   4  -2   1 1456.55   88.99
  -2  -2   1 1419.86   90.59
  -2   4   1 1499.15   91.69
  -2   4   1 1335.07  109.49
  -2  -2   1 1531.05   93.29
  -2   4   1 1534.65   90.89
   4  -2   1 1682.63  104.49
  -4   3  -1 1186.78   73.69
  -4   3  -1 1136.89   75.89
   3   1  -1 1269.77   73.49
   3   1  -1 1201.28   79.39
  -1   4   1 1185.98   74.89
   4  -3   1 1172.58   87.69
  -1   4   1 1190.98   73.29
  -3  -1   1 1189.18   74.79
  -1   4   1 1296.57   91.79
  -1   4   1 1331.07   88.69
  -3  -1   1 1150.88   74.69
  -4   4  -1 3663.23  217.78
   4   0  -1 3695.83  217.28
  -4   4  -1 3909.11  222.28
   4   0  -1 3781.72  222.38
  -4   0   1 3631.94  219.58
   4  -4   1 3527.45  235.68
  -4   0   1 3785.32  217.08
   0   4   1 3757.52  219.38
   0   4   1 3754.32  238.78
  -1  -4  -1  939.01   65.79
  -4   5  -1  818.32   69.29
  -4   5  -1  961.00   61.29
   5  -1  -1  955.40   65.29
  -5   1   1  969.80   64.09
   1   4   1  961.60   62.69
   1   4   1  963.50   80.79
   4  -5   1  936.11   79.59
  -2  -4  -1  188.58   21.00
   6  -2  -1  200.98   22.20
  -4   6  -1  216.08   19.40
   2   4   1  187.38   19.60
   2   4   1  192.58   33.00
   4  -6   1  190.28   32.50
  -6   2   1  193.38   21.70
  -4   7  -1 1017.50   64.29
  -3  -4  -1  967.00   67.09
   7  -3  -1  945.01   69.59
   4  -7   1  891.51   85.29
   3   4   1  996.90   65.39
  -7   3   1  865.41   68.89
   3   4   1  753.22   83.19
   8  -4  -1  425.46   41.30
  -4  -4  -1  440.66   38.20
  -4   8  -1  454.25   35.60
   4  -8   1  381.56   52.39
   4   4   1  291.07   49.99
   4   4   1  445.96   36.60
  -8   4   1  398.16   40.80
  -3   8  -1  821.42   53.59
  -5  -3  -1  729.53   56.09
   8  -5  -1  743.33   61.39
   8  -5  -1  727.23   51.29
   5   3   1  579.34   68.89
   5   3   1  786.22   54.59
   3  -8   1  593.04   71.09
  -8   5   1  627.74   59.99
  -5  -2  -1  567.54   45.00
  -2   7  -1  446.26   67.39
   7  -5  -1  561.14   48.80
  -2   7  -1  610.64   41.50
   2  -7   1  561.94   44.30
  -7   5   1  551.74   40.80
   5   2   1  546.55   54.79
  -7   5   1  447.46   47.60
   5   2   1  568.24   42.10
  -5  -1  -1  630.34   47.70
  -1   6  -1  584.34   73.09
   6  -5  -1  618.34   50.69
  -1   6  -1  685.03   43.50
   5   1   1  635.74   44.40
   5   1   1  633.84   55.39
   1  -6   1  632.24   47.30
  -6   5   1  523.75   51.69
  -6   5   1  595.24   43.70
  -5   0  -1 1480.75   95.99
   0   5  -1 1396.56  123.19
   5  -5  -1 1477.55   98.99
   5   0   1 1575.34  104.29
   0  -5   1 1529.55   95.79
   5   0   1 1502.65   91.59
  -5   5   1 1486.55   92.49
  -5   5   1 1341.07  103.89
   4  -5  -1  827.12   60.69
   1   4  -1  748.93   73.19
  -5   1  -1  805.82   57.29
  -4   5   1  797.02   69.59
   5  -1   1  879.11   65.99
   5  -1   1  866.31   53.19
  -1  -4   1  885.71   58.09
  -4   5   1  808.82   55.19
  -5   2  -1  902.01   55.09
   2   3  -1  901.41   71.99
  -5   2  -1  889.41   60.29
   3  -5  -1  883.61   63.99
  -2  -3   1  846.12   56.39
  -2  -3   1  931.11   60.29
   5  -2   1  909.71   70.29
  -3   5   1  951.20   58.39
  -3   5   1  705.03   74.69
   3   2  -1 1990.80  130.69
  -5   3  -1 2003.40  119.99
  -5   3  -1 1845.72  123.69
  -2   5   1 2067.09  121.29
   5  -3   1 1878.21  137.09
  -3  -2   1 2111.09  123.49
  -2   5   1 2053.79  121.59
  -2   5   1 2194.88  134.59
  -3  -2   1 1960.10  121.29
  -5   4  -1  899.91   65.89
   4   1  -1  902.21   67.69
  -5   4  -1  973.80   62.39
  -1   5   1 1014.90   61.59
  -1   5   1  930.81   78.09
  -1   5   1 1013.00   64.39
  -4  -1   1 1010.10   63.39
  -1   5   1 1100.09   78.69
   5  -4   1  938.31   78.79
  -4  -1   1  972.00   64.19
   0  -5  -1  788.72   58.89
  -5   5  -1  786.22   59.29
  -5   5  -1  723.53   51.49
   5   0  -1  732.23   56.09
   0   5   1  760.02   73.09
   0   5   1  836.82   54.39
  -5   0   1  776.12   54.49
   5  -5   1  789.82   71.19
  -5   0   1  753.02   50.69
  -5   6  -1 1215.88   78.69
  -1  -5  -1 1221.28   83.39
   6  -1  -1 1202.78   83.39
   1   5   1 1194.88  106.19
  -6   1   1 1306.27   82.99
   5  -6   1 1149.08   99.79
   1   5   1 1170.88   79.79
  -2  -5  -1  455.75   39.00
   7  -2  -1  418.66   39.70
  -5   7  -1  468.85   36.30
  -7   2   1  450.25   40.20
   2   5   1  444.06   36.90
   5  -7   1  446.06   54.49
   2   5   1  419.96   59.29
  -5   8  -1  329.97   30.30
  -3  -5  -1  328.97   32.70
   8  -3  -1  346.37   36.00
  -8   3   1  339.77   35.50
   3   5   1  334.77   31.40
   3   5   1  378.26   58.39
   5  -8   1  327.07   47.50
  -1   7  -1  764.12   94.79
   7  -6  -1  893.11   71.09
  -6  -1  -1  939.81   66.49
  -7   6   1  871.51   61.89
   6   1   1  988.40   79.09
  -7   6   1  857.81   75.49
   1  -7   1  927.91   66.79
   6  -6  -1  606.14   52.79
  -6   0  -1  636.54   49.10
   0   6  -1  522.15   73.19
  -6   6   1  585.84   58.99
  -6   6   1  610.04   45.00
   0  -6   1  624.34   48.80
   6   0   1  723.43   59.99
   5  -6  -1  613.24   51.39
  -6   1  -1  650.23   48.30
   1   5  -1  582.34   70.69
   6  -1   1  623.84   56.39
  -5   6   1  566.74   61.29
  -1  -5   1  619.74   47.40
  -5   6   1  622.74   44.60
   2   4  -1 2283.77  164.28
   4  -6  -1 2311.07  148.39
  -6   2  -1 2205.98  143.19
  -4   6   1 2336.77  140.09
  -2  -4   1 2412.96  143.29
   6  -2   1 2227.68  155.38
   3  -6  -1  749.42   59.29
   3   3  -1  701.03   63.49
  -6   3  -1  752.02   48.50
  -6   3  -1  721.73   54.09
  -3  -3   1  783.62   53.19
   6  -3   1  701.13   65.29
  -3   6   1  766.82   50.79
  -3  -3   1  720.63   49.99
  -6   4  -1  210.38   18.60
   4   2  -1  200.28   25.40
  -6   4  -1  184.68   21.70
  -2   6   1  222.18   19.10
  -4  -2   1  214.48   20.40
  -2   6   1  199.28   31.50
  -2   6   1  229.18   30.00
  -2   6   1  218.18   20.20
   6  -4   1  167.88   29.30
  -4  -2   1  206.38   19.90
   1  -6  -1 1005.20   85.29
  -6   5  -1 1192.38   85.49
  -6   5  -1 1279.27   79.39
   5   1  -1 1204.78   86.19
   6  -5   1 1229.68  100.49
  -1   6   1 1233.98   99.19
  -1   6   1 1386.46   82.49
  -5  -1   1 1255.77   79.49
  -5  -1   1 1288.47   82.09
  -6   6  -1  592.14   45.20
   0  -6  -1  636.04   51.89
   6   0  -1  582.74   50.09
   0   6   1  675.93   70.69
   0   6   1  638.94   47.60
  -6   0   1  639.24   48.80
   6  -6   1  658.93   66.19
  -6   7  -1  375.76   33.20
   7  -1  -1  407.36   38.70
   6  -7   1  395.66   52.49
   1   6   1  401.86   35.20
  -7   1   1  439.06   38.10
   1   6   1  382.96   58.49
  -7   0  -1  341.77   33.30
   0   7  -1  277.57   57.69
   7  -7  -1  316.37   36.70
  -7   7   1  313.37   29.20
   7   0   1  384.16   44.90
  -7   7   1  270.97   42.60
   0  -7   1  322.67   33.10
  -7   1  -1  948.01   69.39
   1   6  -1  768.92   98.19
   6  -7  -1  909.11   73.69
   7  -1   1 1043.10   83.09
  -1  -6   1  919.61   68.39
  -6   7   1  960.10   64.89
  -7   2  -1  595.34   46.70
   2   5  -1  548.25   68.89
   5  -7  -1  572.94   50.99
  -2  -5   1  523.25   43.90
  -5   7   1  415.76   62.59
   7  -2   1  526.15   55.29
  -5   7   1  583.04   42.10
   4  -7  -1  485.35   46.80
  -7   3  -1  502.45   43.10
   3   4  -1  520.65   57.89
   7  -3   1  470.95   53.29
  -4   7   1  531.05   39.20
  -3  -4   1  536.05   41.80
   3  -7  -1 1012.00   79.39
  -7   4  -1  958.70   73.39
  -7   4  -1 1057.79   66.89
   4   3  -1  917.21   81.79
   7  -4   1 1030.40   89.29
  -3   7   1 1016.00   67.89
  -4  -3   1 1072.09   70.99
  -4  -3   1 1107.49   70.19
  -7   5  -1  451.35   34.30
   2  -7  -1  457.95   36.70
   5   2  -1  425.36   43.20
  -7   5  -1  388.16   39.30
  -5  -2   1  454.65   36.00
  -5  -2   1  467.85   37.00
  -2   7   1  451.35   49.20
   7  -5   1  402.06   50.99
  -7   6  -1  415.86   33.80
   6   1  -1  369.86   39.20
  -6  -1   1  445.36   37.20
   7  -6   1  406.56   52.69
  -1   7   1  426.56   36.30
  -7   7  -1  847.42   61.29
   0  -7  -1  870.31   65.29
   7   0  -1  824.02   67.59
   7  -7   1  847.22   85.09
  -7   0   1  918.71   66.09
   3   5  -1  799.92   86.99
  -8   3  -1  744.53   60.39
   8  -3   1  791.12   75.39
  -5   8   1  729.83   54.49
  -3  -5   1  736.33   57.59
   4   4  -1  429.06   53.99
  -8   4  -1  423.16   41.60
  -4   8   1  453.65   36.30
   8  -4   1  442.56   54.29
  -4  -4   1  454.95   38.80
   5   3  -1  350.06   43.00
  -8   5  -1  289.87   34.70
   8  -5   1  370.36   49.30
  -5  -3   1  379.06   32.80
   0   0  -2   51.29    6.80
   0   0  -2   81.39   11.30
   0   0   2   44.60    8.60
   0   0   2   54.99   11.90
  -1   0  -2 4622.84  246.78
   0   1  -2 4001.70  245.28
   1  -1  -2 4206.38  243.68
  -1   0  -2 3741.43  243.88
   0   1  -2 4079.39  246.98
   0  -1   2 4538.15  248.68
   1   0   2 4245.68  249.28
  -1   1   2 3904.71  248.28
   0  -1   2 4306.47  242.58
  -1   1  -2 1737.83   98.99
   1   0  -2 1369.96  102.19
   1   0  -2 1617.84   98.59
  -1   1  -2 1593.64  100.19
   0  -1  -2 1568.34  100.99
   1  -1   2 1790.72  109.69
   1  -1   2 1785.32  106.59
  -1   0   2 1526.45  104.09
   0   1   2 1627.44  102.79
  -1   0   2 1803.32  101.49
   0   1   2 1836.52  109.59
  -1   2  -2 1734.03  104.09
  -1   2  -2 1378.46   93.29
   2  -1  -2 1438.46   93.89
  -1  -1  -2 1653.93  101.19
   2  -1  -2 1467.65   92.19
  -1  -1  -2 1600.74   96.39
   1  -2   2 1652.43   99.49
   1   1   2 1425.06   95.09
  -2   1   2 1692.53   98.19
   3  -2  -2 2980.80  185.88
  -1   3  -2 2807.12  185.58
  -1   3  -2 3394.76  202.88
   3  -2  -2 3057.69  185.58
  -2  -1  -2 3302.67  192.68
  -2  -1  -2 3387.36  185.38
  -3   2   2 3389.56  193.78
   1  -3   2 3200.88  189.68
   2   1   2 3114.09  187.98
  -2   0  -2 4149.28  224.98
   0   2  -2 3769.22  221.88
   2  -2  -2 3578.24  220.78
   2  -2  -2 3629.64  218.48
   0   2  -2 3713.33  231.08
  -2   0  -2 4031.70  220.28
  -2   2   2 3586.14  222.78
   2   0   2 3828.02  223.78
   0  -2   2 3976.00  224.28
  -2   2   2 3930.01  229.88
   2   0   2 3601.24  225.18
   1   1  -2 1258.07   92.09
  -2   1  -2 1451.55   89.29
  -2   1  -2 1481.55   88.29
   1  -2  -2 1452.25   88.89
   1   1  -2 1527.45   92.69
  -1  -1   2 1670.63   88.49
  -1   2   2 1457.75   90.09
   2  -1   2 1426.06   96.39
  -1  -1   2 1666.73   92.59
  -1   2   2 1396.46   99.89
   2  -1   2 1333.17   96.99
   2   0  -2 4045.70  258.77
  -2   2  -2 4200.68  255.37
  -2   2  -2 3958.30  253.47
   2   0  -2 4680.13  257.47
   0  -2  -2 4645.64  256.27
   0   2   2 4419.46  270.17
   0   2   2 4417.66  257.37
   0   2   2 4421.26  255.97
   2  -2   2 4252.47  268.97
   2  -2   2 4509.95  266.27
  -2   0   2 5019.60  258.07
   3  -1  -2 1430.86   86.19
  -1  -2  -2 1505.55   95.79
  -2   3  -2 1313.17   85.09
  -1  -2  -2 1260.27   85.69
   3  -1  -2 1348.37   85.39
   1   2   2 1287.67   86.39
  -3   1   2 1438.06   88.89
   2  -3   2 1396.36   90.89
  -3   1   2 1484.55   89.19
   1   2   2 1454.75   88.89
   2  -3   2 1462.65  100.99
  -2   4  -2  143.39   24.60
   4  -2  -2  118.59   12.50
   4  -2  -2  128.79   13.70
  -2  -2  -2  120.99   17.00
  -2   4  -2  119.19   12.80
   2  -4   2  143.59   16.10
  -4   2   2  137.69   16.20
  -4   2   2  137.39   16.90
   2   2   2  118.89   17.10
   2   2   2  126.09   14.00
  -3  -2  -2 1438.66  101.59
  -2   5  -2 1631.84  123.59
  -2   5  -2 1646.84   95.99
   5  -3  -2 1691.63   98.29
   5  -3  -2 1569.64   94.89
  -5   3   2 1486.95  104.09
   3   2   2 1486.25   96.99
   3   2   2 1354.86  104.39
   2  -5   2 1517.35   98.69
  -3  -1  -2  977.90   68.19
   4  -3  -2 1043.30   64.29
  -1   4  -2 1120.19   84.99
   4  -3  -2  944.61   62.89
  -1   4  -2 1014.90   63.19
  -4   3   2 1108.99   73.69
   3   1   2  850.21   68.99
   3   1   2  946.11   64.39
   1  -4   2  954.90   65.49
   0   3  -2 1061.29   82.29
   0   3  -2 1117.59   67.19
   3  -3  -2 1056.69   66.29
  -3   0  -2 1066.89   64.09
  -3   0  -2 1117.09   70.99
   3  -3  -2 1091.19   67.59
   3   0   2 1079.29   68.89
  -3   3   2 1112.89   65.99
   3   0   2 1046.80   74.59
   0  -3   2 1021.20   69.09
  -3   3   2  998.10   76.99
   2  -3  -2 2642.14  176.28
   2  -3  -2 2985.70  178.78
  -3   1  -2 3094.99  181.18
  -3   1  -2 3025.00  176.98
   1   2  -2 3227.58  180.28
   1   2  -2 3168.08  188.18
  -1  -2   2 2935.21  180.48
   3  -1   2 3191.48  191.78
  -2   3   2 2586.64  190.98
   3  -1   2 3318.97  182.18
  -2   3   2 3213.88  178.98
  -1  -2   2 3183.18  176.18
  -3   2  -2 1317.27   84.39
  -3   2  -2 1317.57   85.29
   1  -3  -2 1452.45   85.19
   2   1  -2 1500.25   90.79
   2   1  -2 1251.07   88.99
  -2  -1   2 1384.26   86.79
  -1   3   2 1568.04  104.89
  -2  -1   2 1417.06   84.99
  -1   3   2 1402.26   86.19
   3  -2   2 1456.05   93.19
  -3   3  -2 1003.60   64.59
   0  -3  -2 1172.28   64.69
   3   0  -2  925.21   66.89
  -3   3  -2 1009.30   63.99
   3   0  -2 1075.59   67.79
   0   3   2  986.80   69.49
   0   3   2  984.20   80.49
  -3   0   2 1108.09   66.59
   3  -3   2  834.92   77.89
   0   3   2 1016.00   66.09
   3  -3   2 1184.88   76.09
  -3   0   2 1033.00   66.19
   4  -1  -2 2128.69  127.79
  -1  -3  -2 2176.48  130.59
   4  -1  -2 2094.99  129.89
  -1  -3  -2 2333.07  141.39
  -3   4  -2 2008.60  127.89
  -4   1   2 2396.06  130.49
   1   3   2 2398.66  137.39
   3  -4   2 1858.01  145.69
   3  -4   2 1789.22  132.49
  -4   1   2 2108.89  130.89
   1   3   2 2089.99  129.39
  -2  -3  -2  793.02   59.99
  -3   5  -2  738.33   51.69
   5  -2  -2  744.13   50.49
   5  -2  -2  786.42   53.59
   2   3   2  739.13   53.19
   3  -5   2  719.53   69.49
   3  -5   2  821.82   56.79
  -5   2   2  758.42   56.19
   6  -3  -2  521.15   37.40
   6  -3  -2  536.95   41.10
  -3   6  -2  541.05   39.20
  -3  -3  -2  497.15   44.20
   3   3   2  506.35   40.00
   3  -6   2  449.95   54.89
   3  -6   2  524.55   42.60
   3   3   2  582.64   53.69
  -6   3   2  471.55   43.80
  -3   7  -2 1122.79   68.79
   7  -4  -2 1043.10   71.19
  -4  -3  -2  932.61   72.59
   7  -4  -2  987.20   65.69
  -7   4   2  903.61   75.49
   4   3   2  967.00   68.89
   4   3   2 1059.09   86.89
   3  -7   2  823.82   86.39
  -4  -2  -2 1082.19   77.99
  -2   6  -2 1135.19  103.39
   6  -4  -2 1188.98   75.99
  -2   6  -2 1212.28   73.09
   6  -4  -2 1121.79   71.69
   2  -6   2 1090.79   76.09
   4   2   2  944.91   82.99
  -6   4   2 1100.29   83.09
   4   2   2 1039.50   73.49
  -1   5  -2  707.13   43.80
  -4  -1  -2  594.34   48.00
   5  -4  -2  688.93   46.00
   5  -4  -2  602.14   43.10
  -1   5  -2  666.03   66.99
  -5   4   2  584.54   53.39
   4   1   2  594.64   44.40
   1  -5   2  613.34   46.10
   4   1   2  500.05   50.39
  -4   0  -2 2344.27  144.59
   0   4  -2 2377.16  163.88
   4  -4  -2 2405.96  140.99
   4  -4  -2 2223.58  139.99
   0   4  -2 2479.95  139.59
  -4   4   2 2119.59  153.28
   4   0   2 2442.76  141.59
   4   0   2 2225.88  151.08
   0  -4   2 2337.77  143.09
   3  -4  -2  983.60   65.59
   1   3  -2 1111.29   65.59
  -4   1  -2 1049.09   69.29
   3  -4  -2 1070.59   66.79
  -4   1  -2 1001.80   63.19
   1   3  -2 1103.79   81.19
   4  -1   2  999.00   79.49
   4  -1   2 1062.19   67.29
  -3   4   2  962.40   80.99
  -3   4   2 1154.08   65.39
  -1  -3   2  957.60   68.19
  -4   2  -2  125.79   13.90
   2  -4  -2  122.89   12.60
  -4   2  -2  122.19   11.60
   2   2  -2  129.49   18.20
   2  -4  -2  121.49   12.50
   2   2  -2  137.69   13.40
  -2  -2   2  125.49   11.80
   4  -2   2  129.29   23.60
   4  -2   2  140.19   14.20
  -2   4   2  126.89   12.90
  -2  -2   2  122.69   13.90
  -2   4   2  141.19   24.90
   3   1  -2 2240.78  130.49
  -4   3  -2 2088.89  123.19
  -4   3  -2 2037.30  124.59
   3   1  -2 1827.32  126.19
   1  -4  -2 2231.58  123.19
  -1   4   2 2083.79  124.89
  -3  -1   2 2072.89  124.89
  -3  -1   2 2121.29  124.19
   4  -3   2 1795.82  142.89
  -1   4   2 1995.50  127.29
  -1   4   2 2063.89  146.69
  -4   4  -2 1639.94  115.69
   4   0  -2 1827.72  114.19
  -4   4  -2 1843.42  110.59
   4   0  -2 1582.04  111.89
   0  -4  -2 1969.80  108.99
   0   4   2 1901.61  112.49
  -4   0   2 1851.91  112.39
  -4   0   2 1777.62  110.59
   0   4   2 1874.21  120.49
  -1  -4  -2  717.43   57.89
   5  -1  -2  635.74   45.30
  -4   5  -2  682.23   46.50
   5  -1  -2  639.14   48.10
   4  -5   2  544.45   62.59
   1   4   2  758.72   59.59
   1   4   2  669.83   47.60
  -5   1   2  621.24   48.10
  -4   6  -2 1456.95   91.69
  -2  -4  -2 1510.85  101.49
   6  -2  -2 1426.86   93.79
   6  -2  -2 1465.35   96.39
   2   4   2 1432.06   93.09
   4  -6   2 1253.07  114.99
  -6   2   2 1392.46   95.59
  -4   7  -2  567.44   41.70
  -3  -4  -2  518.15   46.60
   7  -3  -2  523.95   43.10
   3   4   2  517.55   42.00
   4  -7   2  406.26   56.49
  -7   3   2  535.15   46.80
  -2   7  -2  376.76   30.60
   7  -5  -2  353.86   29.60
  -2   7  -2  347.57   55.49
  -5  -2  -2  361.86   35.10
   7  -5  -2  400.86   34.90
   5   2   2  346.97   31.60
  -7   5   2  292.27   38.00
   5   2   2  292.67   40.40
   2  -7   2  339.07   33.80
   6  -5  -2 1214.18   80.59
   6  -5  -2 1183.88   76.69
  -1   6  -2 1324.57   77.19
  -1   6  -2 1059.59  106.79
  -5  -1  -2 1133.29   81.79
  -6   5   2 1079.49   90.69
   1  -6   2 1128.79   80.59
   5   1   2 1192.98   78.49
   5  -5  -2  782.52   55.59
   0   5  -2  899.11   53.09
   5  -5  -2  798.82   53.99
  -5   0  -2  812.92   58.39
   0   5  -2  668.93   74.89
   0  -5   2  779.02   57.19
   5   0   2  849.02   54.99
   5   0   2  659.03   64.19
  -5   5   2  689.23   67.39
  -5   1  -2  677.93   49.10
   4  -5  -2  622.84   49.20
   4  -5  -2  683.33   46.10
   1   4  -2  714.33   66.19
   5  -1   2  564.54   57.89
  -1  -4   2  645.54   48.60
   5  -1   2  684.43   45.50
  -4   5   2  555.04   59.99
  -5   2  -2 1657.03  104.59
  -5   2  -2 1668.43   98.69
   2   3  -2 1735.23  117.49
   3  -5  -2 1701.83  101.99
  -3   5   2 1504.55  123.69
   5  -2   2 1435.66  120.49
  -2  -3   2 1717.63  105.29
   3   2  -2  819.42   62.99
   2  -5  -2  798.32   52.89
  -5   3  -2  812.12   56.09
  -5   3  -2  774.72   51.79
  -3  -2   2  807.82   55.49
  -2   5   2  834.82   54.29
  -3  -2   2  828.72   53.29
  -2   5   2  823.92   77.69
   5  -3   2  666.43   71.69
   4   1  -2  688.43   51.29
   1  -5  -2  688.23   43.90
  -5   4  -2  653.73   44.60
  -5   4  -2  594.04   46.70
  -1   5   2  680.53   46.80
   5  -4   2  581.84   64.39
  -4  -1   2  668.13   46.10
  -4  -1   2  673.13   46.00
  -1   5   2  519.75   61.39
   5   0  -2 1483.85   97.29
  -5   5  -2 1536.95   93.39
   0  -5  -2 1428.46  106.69
   5  -5   2 1221.38  116.09
   0   5   2 1553.24   95.29
  -5   0   2 1468.45   95.19
  -5   0   2 1503.95   92.89
  -1  -5  -2  619.44   55.29
  -5   6  -2  601.74   44.70
   6  -1  -2  588.24   47.10
   5  -6   2  563.34   66.79
  -6   1   2  605.24   47.50
   1   5   2  611.24   46.10
  -2  -5  -2  330.37   36.40
  -5   7  -2  341.47   30.30
   7  -2  -2  350.36   32.60
   2   5   2  353.36   31.60
   5  -7   2  292.17   47.30
  -7   2   2  309.77   32.60
  -6  -1  -2  386.66   36.90
  -1   7  -2  355.76   58.19
   7  -6  -2  390.56   32.20
   1  -7   2  363.46   36.30
  -7   6   2  309.27   43.30
   6   1   2  433.06   38.70
   6   1   2  332.77   44.60
   0   6  -2  120.69   32.30
   6  -6  -2  135.49   16.00
  -6   0  -2  128.09   18.40
   6   0   2   95.19   22.80
  -6   6   2  106.69   25.60
   0  -6   2  129.89   18.60
  -6   1  -2 1213.38   81.19
   1   5  -2  937.11  100.39
   5  -6  -2 1212.18   76.89
  -1  -5   2 1294.87   82.39
   6  -1   2 1066.19   94.39
  -5   6   2 1096.99   99.19
  -6   2  -2 1167.88   79.59
   2   4  -2 1192.38   97.49
   4  -6  -2 1243.88   76.29
  -4   6   2  945.91   96.99
   6  -2   2 1009.80   95.59
  -2  -4   2 1247.48   80.69
  -6   3  -2  555.14   38.50
   3   3  -2  581.64   54.39
   3  -6  -2  553.04   40.50
  -6   3  -2  571.24   44.80
  -3   6   2  625.74   68.19
  -3  -3   2  563.74   44.00
   6  -3   2  448.76   58.69
  -6   4  -2 1524.35   95.09
  -6   4  -2 1437.76   99.99
   4   2  -2 1495.35  106.89
   2  -6  -2 1648.94   95.99
  -4  -2   2 1603.34   98.49
  -4  -2   2 1472.75   98.09
  -2   6   2 1708.93   98.79
   6  -4   2 1212.58  119.59
  -6   5  -2  619.54   44.60
   5   1  -2  612.94   50.89
  -1   6   2  626.54   46.80
  -5  -1   2  633.44   45.80
   6  -5   2  492.75   64.99
  -5  -1   2  668.13   47.20
  -6   6  -2  133.49   16.10
   0  -6  -2  144.99   24.80
   6   0  -2  119.99   18.20
  -6   0   2  134.39   17.80
   0   6   2  126.89   16.90
   6  -6   2  119.49   31.00
  -6   7  -2  740.53   55.29
  -1  -6  -2  765.12   65.89
   7  -1  -2  768.42   59.39
   1   6   2  791.92   57.79
  -7   1   2  773.72   59.59
   6  -7   2  664.23   81.19
  -7   1  -2  448.46   39.20
   1   6  -2  323.37   56.29
   6  -7  -2  426.96   34.30
  -1  -6   2  429.36   38.70
  -6   7   2  278.07   48.50
   7  -1   2  296.17   46.50
  -7   2  -2  400.66   36.60
   2   5  -2  351.76   52.69
   5  -7  -2  368.56   31.50
   7  -2   2  291.17   46.60
  -2  -5   2  387.66   36.00
  -5   7   2  297.57   50.69
  -7   3  -2 1112.79   77.59
   3   4  -2 1056.89   92.39
   4  -7  -2 1080.99   71.19
   7  -3   2  832.02   93.39
  -4   7   2 1120.89  105.99
  -3  -4   2 1060.49   75.29
   4   3  -2  513.15   52.89
   3  -7  -2  566.74   40.60
  -7   4  -2  534.55   46.00
  -4  -3   2  582.14   44.30
   7  -4   2  491.35   64.69
  -3   7   2  384.16   60.49
  -7   5  -2  330.97   28.20
   5   2  -2  345.97   38.00
  -2   7   2  262.37   46.20
  -5  -2   2  377.26   31.80
   7  -5   2  327.57   51.79
  -7   6  -2  741.43   54.89
   1  -7  -2  731.93   68.39
   6   1  -2  776.42   62.99
   7  -6   2  689.53   83.79
  -6  -1   2  814.42   58.79
  -1   7   2  831.82   58.79
   0   0  -3 2423.16  155.28
   0   0   3 2441.06  154.98
   0   0   3 2675.53  150.38
   0   0   3 2559.54  162.38
   0   1  -3 1480.35   96.89
   0   1  -3 1553.74   94.29
   1  -1  -3 1356.66   94.69
  -1   0  -3 1610.24   95.99
  -1   1   3 1621.14  103.09
   1   0   3 1341.07   91.49
   0  -1   3 1566.64   92.09
  -1   1   3 1269.17   97.29
   0  -1  -3  909.91   60.19
   1   0  -3  864.11   60.29
   1   0  -3  828.92   55.19
  -1   1  -3  876.81   57.59
  -1   1  -3  747.73   58.79
  -1   0   3  762.62   62.89
   1  -1   3  997.80   67.99
  -1   0   3  791.32   59.29
  -1   2  -3 3221.28  184.98
   2  -1  -3 2770.82  180.78
  -1   2  -3 2755.32  180.78
   2  -1  -3 2725.23  174.48
  -1  -1  -3 3412.76  182.28
   1   1   3 2825.42  186.28
  -2   1   3 3081.69  186.18
  -2   1   3 3232.48  187.88
  -2  -1  -3 1122.79   76.59
  -2  -1  -3 1121.69   85.29
  -1   3  -3 1253.87   85.99
  -1   3  -3 1147.99   77.09
   3  -2  -3 1124.79   76.19
  -3   2   3 1265.57   86.19
   1  -3   3 1151.98   83.49
  -3   2   3 1255.47   82.79
   2   1   3 1177.78   81.19
  -2   0  -3  249.78   22.40
   0   2  -3  239.48   24.00
   2  -2  -3  231.48   21.40
  -2   0  -3  233.08   25.00
   0   2  -3  239.18   25.80
   0  -2   3  232.38   25.90
   2   0   3  221.98   22.70
   2   0   3  212.18   26.40
  -2   2   3  195.98   26.30
   1   1  -3 2948.91  180.58
  -2   1  -3 3101.19  179.58
  -2   1  -3 2989.50  178.68
   1  -2  -3 2959.60  178.68
   1   1  -3 3140.69  182.98
  -1  -1   3 2885.71  177.68
   2  -1   3 3290.57  187.48
  -1   2   3 2828.42  187.68
  -1   2   3 2633.14  182.38
  -1  -1   3 2930.81  184.88
   2   0  -3 3577.84  212.18
   0  -2  -3 3356.96  213.98
   2   0  -3 3259.67  215.48
  -2   2  -3 3558.84  213.28
  -2   2  -3 3396.36  209.48
   2  -2   3 3741.83  223.98
   0   2   3 3584.04  217.78
   2  -2   3 4072.69  224.58
   0   2   3 3712.43  226.38
  -2   0   3 3223.98  218.98
  -2   0   3 4051.89  216.58
   3  -1  -3  781.12   51.49
   3  -1  -3  701.93   54.19
  -2   3  -3  767.42   53.59
  -1  -2  -3  831.82   54.69
   2  -3   3  857.11   64.39
   1   2   3  750.12   56.39
  -3   1   3  773.52   57.29
  -2  -2  -3 1262.47  100.09
  -2   4  -3 1350.56   87.99
   4  -2  -3 1341.57   85.79
  -2   4  -3 1416.26  101.39
   4  -2  -3 1417.86   88.59
  -4   2   3 1581.24   98.59
   2   2   3 1251.37   90.59
  -4   2   3 1423.86   95.79
   2  -4   3 1352.06   96.39
   5  -3  -3  793.82   54.59
  -3  -2  -3  748.43   65.49
  -2   5  -3  806.12   55.09
  -2   5  -3  831.52   72.19
  -5   3   3  802.72   64.79
   2  -5   3  796.42   62.19
   3   2   3  707.63   56.69
   4  -3  -3  521.15   40.40
  -1   4  -3  570.84   41.40
  -3  -1  -3  567.64   49.20
  -1   4  -3  531.35   52.29
   1  -4   3  541.85   45.80
   3   1   3  559.14   44.50
  -4   3   3  612.24   52.99
   3  -3  -3 1975.20  124.49
   0   3  -3 2082.79  126.69
  -3   0  -3 2242.68  132.59
  -3   0  -3 2224.88  123.29
   0   3  -3 1970.10  136.79
   3   0   3 2025.20  130.59
  -3   3   3 1891.01  126.39
   0  -3   3 1976.30  129.39
   3   0   3 1913.41  130.59
  -3   3   3 1986.10  139.29
   2  -3  -3 1197.38   75.09
   1   2  -3 1160.78   83.19
  -3   1  -3 1247.48   78.49
  -3   1  -3 1165.48   73.69
   1   2  -3 1103.59   78.79
  -2   3   3 1198.98   77.59
  -1  -2   3 1219.18   79.79
  -2   3   3  958.40   85.59
   3  -1   3 1147.59   85.79
   3  -1   3 1168.28   84.79
   1  -3  -3  791.82   54.09
  -3   2  -3  733.23   52.69
   2   1  -3  803.82   57.89
   2   1  -3  864.81   58.89
  -3   2  -3  785.82   53.89
  -1   3   3  784.12   56.29
  -1   3   3  783.92   66.99
  -2  -1   3  854.71   54.09
   3  -2   3  855.41   68.79
  -2  -1   3  832.02   58.89
   3  -2   3  673.93   63.69
   3   0  -3 2180.68  149.09
   0  -3  -3 2392.36  147.29
  -3   3  -3 2205.48  145.59
   3   0  -3 2421.56  148.39
   3  -3   3 2616.44  164.38
  -3   0   3 2630.44  153.68
  -3   0   3 2497.25  148.69
   0   3   3 2461.85  149.69
   0   3   3 2278.77  163.48
   3  -3   3 2553.64  158.28
   4  -1  -3  943.91   60.29
   4  -1  -3  873.61   61.39
  -1  -3  -3  727.43   70.99
  -3   4  -3  872.61   59.79
   3  -4   3  949.80   75.79
  -4   1   3  994.20   64.69
   1   3   3  900.21   62.49
  -4   1   3  768.82   63.39
   5  -2  -3  427.46   33.70
  -2  -3  -3  414.56   45.80
   5  -2  -3  454.45   34.70
  -3   5  -3  433.06   34.10
  -5   2   3  449.66   39.50
   2   3   3  394.66   35.60
   3  -5   3  367.46   39.90
   3  -5   3  422.56   46.70
   6  -3  -3 1099.89   71.39
  -3  -3  -3 1075.69   85.69
  -3   6  -3 1188.18   72.89
   3  -6   3 1003.30   79.99
  -6   3   3  988.10   79.09
   3   3   3 1011.20   74.29
   3  -6   3  963.80   87.39
  -3   7  -3  487.05   38.30
  -4  -3  -3  471.25   48.10
   7  -4  -3  436.06   36.40
   4   3   3  440.66   40.00
  -7   4   3  401.86   45.40
   3  -7   3  399.56   51.29
  -4  -2  -3  156.18   24.90
  -2   6  -3  188.08   19.20
   6  -4  -3  164.98   18.20
  -2   6  -3  163.88   31.50
   4   2   3  142.89   19.50
   2  -6   3  136.89   21.60
  -6   4   3  145.59   25.20
  -1   5  -3 1419.56  110.29
  -1   5  -3 1397.56   89.09
   5  -4  -3 1387.56   89.39
  -4  -1  -3 1399.16   98.69
   4   1   3 1308.97   91.99
  -5   4   3 1340.77  105.29
   1  -5   3 1423.06   95.49
   0   4  -3 2031.70  117.39
   0   4  -3 1876.61  135.69
  -4   0  -3 1895.31  123.69
   4  -4  -3 1864.71  116.99
   0  -4   3 1688.73  119.79
   4   0   3 1846.72  120.49
   4   0   3 1958.00  127.99
  -4   4   3 1840.42  135.59
   1   3  -3  617.44   43.50
  -4   1  -3  561.94   38.40
   3  -4  -3  568.24   41.70
   1   3  -3  559.24   53.79
  -4   1  -3  628.74   46.40
   4  -1   3  498.65   52.29
  -1  -3   3  509.95   43.80
  -3   4   3  571.64   41.30
   4  -1   3  578.84   46.30
  -4   2  -3 1484.45   93.19
   2   2  -3 1488.05  100.39
   2  -4  -3 1387.26   89.59
   2   2  -3 1201.28   92.39
  -4   2  -3 1345.27   87.79
  -2   4   3 1382.76  107.99
   4  -2   3 1491.65  111.19
  -2  -2   3 1377.66   93.09
   4  -2   3 1682.23  101.99
  -2   4   3 1446.56   91.19
   1  -4  -3 1005.30   63.79
   3   1  -3 1093.79   68.89
   3   1  -3 1006.40   70.19
  -4   3  -3  886.81   62.29
  -1   4   3 1015.60   83.49
  -3  -1   3  991.90   64.09
  -3  -1   3  911.61   66.39
   4  -3   3 1010.50   84.19
  -1   4   3  935.61   65.09
   4  -3   3  772.82   72.29
   4   0  -3  214.38   22.80
   4   0  -3  222.38   23.10
   0  -4  -3  215.28   20.70
  -4   4  -3  209.98   20.30
   4  -4   3  254.17   29.80
   0   4   3  221.48   22.50
   4  -4   3  221.58   34.10
  -4   0   3  233.48   24.20
  -4   0   3  197.68   21.60
   5  -1  -3 1150.38   82.79
  -4   5  -3 1265.77   81.79
  -1  -4  -3 1045.20   95.69
   5  -1  -3 1340.57   83.89
  -5   1   3 1240.98   85.49
   4  -5   3 1349.77  104.09
   1   4   3 1319.67   84.89
   6  -2  -3 1089.49   76.49
  -2  -4  -3 1140.79   93.39
   6  -2  -3 1188.28   77.79
  -4   6  -3 1140.49   77.09
   4  -6   3 1102.39   96.59
  -6   2   3 1149.69   82.59
   2   4   3 1131.09   79.39
  -3  -4  -3  265.87   36.80
  -4   7  -3  302.07   28.30
   4  -7   3  276.17   41.70
  -7   3   3  270.27   32.70
   3   4   3  271.47   29.20
  -2   7  -3  747.13   52.39
  -5  -2  -3  654.73   62.19
   7  -5  -3  704.33   51.49
  -2   7  -3  705.83   77.19
  -7   5   3  568.44   63.69
   5   2   3  725.23   55.79
   2  -7   3  670.33   59.29
  -1   6  -3  616.54   41.90
  -1   6  -3  494.45   60.29
   6  -5  -3  522.05   41.20
  -5  -1  -3  487.15   47.90
   1  -6   3  522.65   46.60
   5   1   3  498.65   43.20
  -6   5   3  472.45   55.69
   5  -5  -3  395.56   33.90
   0   5  -3  470.75   34.20
  -5   0  -3  449.95   40.80
   0   5  -3  381.46   50.39
   0  -5   3  368.46   36.80
  -5   5   3  367.46   48.90
   5   0   3  410.36   36.10
   5   0   3  447.66   45.90
   1   4  -3 1311.77  112.79
   1   4  -3 1603.04   93.79
  -5   1  -3 1595.14  101.09
   4  -5  -3 1445.36   94.29
   5  -1   3 1531.65   97.39
  -1  -4   3 1285.77   97.29
   5  -1   3 1412.16  111.59
   2   3  -3  875.21   72.29
   3  -5  -3  874.51   57.19
  -5   2  -3  744.33   52.69
  -5   2  -3  875.61   61.39
  -2  -3   3  779.42   59.69
   5  -2   3  875.51   60.89
   5  -2   3  762.42   76.29
  -3   5   3  733.33   74.49
   2  -5  -3  409.06   33.10
  -5   3  -3  430.06   36.50
   3   2  -3  512.35   45.20
  -5   3  -3  401.86   31.80
  -2   5   3  407.46   50.39
  -2   5   3  457.55   35.20
   5  -3   3  407.26   52.79
  -3  -2   3  442.56   36.70
   4   1  -3 1340.97   92.99
  -5   4  -3 1185.18   83.39
   1  -5  -3 1279.47   84.19
  -4  -1   3 1365.96   88.49
   5  -4   3 1456.75  113.39
  -1   5   3 1317.27  111.09
  -1   5   3 1347.37   87.29
  -5   5  -3  618.84   46.90
   5   0  -3  639.74   50.99
   5  -5   3  678.03   70.99
  -5   0   3  659.13   50.09
   0   5   3  638.24   49.20
   6  -1  -3  342.87   32.10
  -5   6  -3  322.47   29.70
  -1  -5  -3  319.87   42.70
  -6   1   3  328.27   33.00
   1   5   3  347.07   32.20
   5  -6   3  340.67   48.50
  -2  -5  -3  812.92   75.49
  -5   7  -3  779.22   59.49
   7  -2  -3  820.82   61.09
  -7   2   3  825.62   65.69
   2   5   3  830.02   62.59
   5  -7   3  823.12   82.99
   0   6  -3  594.14   73.49
  -6   0  -3  733.73   60.99
   6  -6  -3  727.93   53.29
   0  -6   3  687.03   58.39
   6   0   3  780.42   79.29
   1   5  -3  469.45   61.09
  -6   1  -3  578.04   48.90
   5  -6  -3  566.84   43.30
   6  -1   3  550.54   59.89
  -1  -5   3  494.05   46.50
   2   4  -3  152.98   30.80
   4  -6  -3  190.18   20.30
  -6   2  -3  186.18   23.50
  -4   6   3  155.78   32.80
  -2  -4   3  177.28   23.00
   6  -2   3  134.59   31.50
   3   3  -3 1212.78   95.79
  -6   3  -3 1223.18   85.09
   3  -6  -3 1193.68   78.99
   6  -3   3 1035.40  104.09
  -3  -3   3 1210.48   83.89
  -3   6   3 1243.48  106.29
   2  -6  -3 1195.78   78.79
  -6   4  -3 1040.40   76.59
   4   2  -3 1322.37   93.29
  -4  -2   3 1199.68   82.79
  -2   6   3 1266.57   81.49
   6  -4   3 1089.99  106.99
  -2   6   3 1356.46  111.29
   5   1  -3  355.76   36.60
  -6   5  -3  322.37   28.80
  -5  -1   3  327.07   31.60
   6  -5   3  335.27   51.09
  -1   6   3  351.96   31.90
   6   0  -3  658.73   53.79
  -6   6  -3  655.33   49.10
   0  -6  -3  528.45   61.09
   6  -6   3  742.63   79.09
  -6   0   3  702.13   53.39
   0   6   3  626.24   50.89
  -7   2  -3  829.22   64.59
   2   5  -3  648.84   78.09
   5  -7  -3  836.22   57.69
  -2  -5   3  726.13   61.99
   7  -2   3  695.83   78.89
  -5   7   3  690.83   80.59
   4  -7  -3  501.95   39.70
  -7   3  -3  474.95   45.40
   3   4  -3  444.96   55.79
   7  -3   3  438.96   62.49
  -4   7   3  488.55   62.79
  -3  -4   3  457.65   43.50
   3  -7  -3  301.07   28.20
   4   3  -3  306.37   40.30
  -3   7   3  280.07   47.60
  -4  -3   3  329.07   32.70
   7  -4   3  276.67   49.90
  -7   5  -3  746.13   56.99
   5   2  -3  885.11   72.39
  -2   7   3  784.82   89.09
   7  -5   3  784.92   89.19
  -5  -2   3  907.41   63.99
   0   0  -4 3197.18  198.08
   0   0   4 3139.09  197.58
   0   0   4 3406.56  207.68
   0   1  -4  620.84   48.00
   1  -1  -4  553.44   45.90
  -1   0  -4  598.34   46.90
  -1   0  -4  590.24   45.40
   0  -1   4  485.25   50.39
  -1   1   4  543.75   48.00
   1   0   4  538.35   54.59
  -1   1   4  591.64   52.09
   1   0  -4 2474.95  146.69
  -1   1  -4 2461.25  144.69
  -1   1  -4 2259.87  147.59
   0  -1  -4 2361.56  145.29
  -1   0   4 2268.97  152.28
   0   1   4 2112.79  155.88
  -1   0   4 2172.28  145.79
   1  -1   4 2429.86  154.68
   0   1   4 2234.28  148.29
   2  -1  -4 1109.59   85.19
  -1  -1  -4 1379.26   84.39
  -1  -1  -4 1310.67   89.59
  -1   2  -4 1072.89   86.19
   1  -2   4 1166.68   92.69
  -2   1   4 1445.36   92.59
   1  -2   4 1460.85   88.09
  -2   1   4 1040.10   88.79
  -2  -1  -4  400.06   42.50
  -2  -1  -4  447.36   35.80
  -1   3  -4  362.16   36.90
  -1   3  -4  380.06   37.90
   3  -2  -4  383.76   35.90
   2   1   4  351.06   43.10
  -3   2   4  483.95   41.60
  -3   2   4  380.96   43.00
   2  -2  -4  843.52   63.89
   0   2  -4  838.42   65.99
  -2   0  -4  893.21   63.39
   0   2  -4  875.81   64.49
  -2   0  -4  842.52   67.29
  -2   2   4  946.81   71.19
  -2   2   4  803.02   70.29
   1   1  -4 1376.66   84.99
  -2   1  -4 1110.19   82.19
  -2   1  -4 1096.59   82.59
   1  -2  -4 1120.79   82.69
   1   1  -4 1270.27   93.59
  -1   2   4 1179.18   88.39
   2  -1   4 1297.87   95.69
   0  -2  -4  459.25   38.90
  -2   2  -4  408.26   39.20
   2   0  -4  464.55   39.20
  -2   0   4  477.75   42.60
   2  -2   4  500.55   46.20
  -2   0   4  396.36   43.20
   2  -2   4  566.44   43.80
   0   2   4  529.45   46.50
   0   2   4  339.77   43.10
  -1  -2  -4 1809.82  105.89
  -1  -2  -4 1656.53  114.59
   3  -1  -4 1392.66  106.69
  -2   3  -4 1585.24  108.59
  -3   1   4 1687.63  114.49
   2  -3   4 1748.13  113.39
  -3   1   4 1790.72  113.99
   2  -3   4 1474.15  114.49
   1   2   4 1539.45  116.39
  -2  -2  -4 1474.55  119.59
   4  -2  -4 1615.34  109.99
  -2   4  -4 1763.02  111.29
   2   2   4 1688.03  118.49
   2  -4   4 1680.73  117.19
  -4   2   4 1734.93  119.49
  -2   5  -4  332.77   31.30
  -3  -2  -4  238.48   36.70
   5  -3  -4  317.47   30.10
  -2   5  -4  282.67   36.50
   2  -5   4  239.18   34.70
   3   2   4  327.07   35.80
  -5   3   4  286.67   37.50
  -1   4  -4 1328.47   89.69
   4  -3  -4 1333.97   87.49
  -1   4  -4 1272.57   95.79
  -3  -1  -4 1194.28   97.09
   1  -4   4 1161.78   95.19
  -4   3   4 1227.18  101.09
   3   1   4 1400.16   99.09
  -3   0  -4 1016.10   66.29
   0   3  -4  922.71   71.99
   3  -3  -4  974.50   66.39
  -3   0  -4  881.11   71.59
   0   3  -4  879.41   68.69
   3   0   4  887.51   78.19
   0  -3   4  917.71   73.89
  -3   3   4  739.23   75.09
   2  -3  -4  394.56   34.20
   1   2  -4  372.86   36.40
  -3   1  -4  361.86   33.20
   1   2  -4  363.66   37.70
  -3   1  -4  367.86   35.80
  -2   3   4  361.36   41.90
  -1  -2   4  359.56   39.20
   1  -3  -4 1563.04  104.99
  -3   2  -4 1558.64  104.19
   2   1  -4 1571.64  106.89
   2   1  -4 1850.01  106.89
  -1   3   4 1583.74  114.59
   3  -2   4 1561.84  116.29
  -1   3   4 1513.85  110.89
  -2  -1   4 1491.65  111.79
  -3   3  -4 1041.70   75.09
   0  -3  -4  872.01   72.99
   3   0  -4 1115.29   75.69
   0   3   4 1010.40   80.79
   0   3   4 1110.79   88.09
   3  -3   4 1073.29   82.69
   3  -3   4 1283.37   86.39
  -3   0   4 1161.08   78.99
  -1  -3  -4  308.77   37.80
   4  -1  -4  259.27   30.30
  -3   4  -4  367.56   33.00
   3  -4   4  335.67   37.60
   1   3   4  356.66   37.30
  -4   1   4  370.76   36.20
  -4   1   4  333.67   35.70
   3  -4   4  367.66   39.30
  -2  -3  -4  913.61   84.89
  -3   5  -4 1075.59   73.79
   5  -2  -4 1051.69   74.19
   3  -5   4 1089.99   84.69
   3  -5   4  815.62   78.79
  -5   2   4 1080.49   80.69
   2   3   4 1071.69   79.99
   6  -3  -4  541.55   44.20
  -3  -3  -4  469.55   55.69
  -3   6  -4  553.64   44.60
   3  -6   4  557.24   55.59
  -6   3   4  479.95   50.79
   3   3   4  530.35   49.00
   3  -6   4  376.56   48.80
   6  -4  -4  444.96   38.90
  -2   6  -4  416.06   50.39
  -4  -2  -4  391.36   49.40
  -2   6  -4  503.55   41.10
  -6   4   4  392.06   49.80
   4   2   4  493.35   46.30
   2  -6   4  404.56   47.20
  -4  -1  -4  585.94   60.69
  -1   5  -4  738.63   54.09
  -1   5  -4  600.74   62.39
   5  -4  -4  669.53   51.69
   1  -5   4  627.04   59.29
  -5   4   4  641.54   67.99
   4   1   4  778.42   61.69
   4  -4  -4  327.57   29.80
  -4   0  -4  278.17   34.30
   0   4  -4  271.67   36.70
   0   4  -4  317.67   31.60
   0  -4   4  282.47   33.80
  -4   4   4  243.18   39.80
   4   0   4  326.77   37.60
  -4   1  -4 1390.66   93.39
   3  -4  -4 1338.77   86.29
  -4   1  -4 1335.07   84.19
   1   3  -4 1288.27   98.29
   1   3  -4 1127.69   88.09
   4  -1   4 1332.47  101.19
  -1  -3   4 1123.39   91.19
  -3   4   4 1187.28  102.29
   2   2  -4 1636.94  110.29
   2  -4  -4 1682.03  106.99
  -4   2  -4 1654.23  105.59
   2   2  -4 1754.62  117.79
  -2   4   4 1425.56  119.29
  -2   4   4 1682.43  111.39
  -2  -2   4 1603.94  113.19
   3   1  -4  372.56   37.10
  -4   3  -4  362.36   32.60
   3   1  -4  390.76   34.20
   1  -4  -4  367.46   33.70
  -1   4   4  365.26   36.60
  -3  -1   4  346.17   37.80
   4  -3   4  472.85   46.60
  -1   4   4  346.47   43.00
   4  -3   4  357.26   42.60
   4   0  -4  673.03   49.70
  -4   4  -4  586.24   47.90
   4  -4   4  679.43   62.19
  -4   0   4  510.95   52.49
   0   4   4  668.63   53.79
   4  -4   4  651.23   57.19
  -1  -4  -4  564.94   61.69
   5  -1  -4  622.64   51.49
  -4   5  -4  678.23   51.69
   1   4   4  664.63   55.89
  -5   1   4  681.53   55.99
   4  -5   4  690.13   63.99
   6  -2  -4  189.18   24.40
  -4   6  -4  195.28   23.60
  -2  -4  -4  195.38   33.40
   2   4   4  204.38   27.30
   4  -6   4  240.78   34.90
  -6   2   4  211.18   28.90
  -1   6  -4  208.68   23.80
  -1   6  -4  169.08   33.10
   6  -5  -4  179.98   22.20
  -5  -1  -4  173.68   30.30
   5   1   4  196.58   27.40
   1  -6   4  178.68   28.40
  -6   5   4  139.99   32.60
   0   5  -4  947.41   63.79
   0   5  -4  771.32   76.59
   5  -5  -4  885.81   62.59
  -5   0  -4  790.42   70.59
   0  -5   4  747.43   67.69
   5   0   4  901.31   69.99
  -5   5   4  687.53   79.89
   1   4  -4  694.13   69.19
  -5   1  -4  688.83   60.29
   4  -5  -4  762.92   54.69
   1   4  -4  719.53   55.49
  -4   5   4  654.13   72.29
   5  -1   4  804.42   64.59
  -1  -4   4  566.74   57.79
   2   3  -4  285.67   31.60
   3  -5  -4  330.77   30.10
  -5   2  -4  315.27   34.30
   2   3  -4  329.17   41.70
  -2  -3   4  277.67   33.00
  -3   5   4  261.47   41.20
   5  -2   4  363.76   40.90
   3   2  -4 1197.08   90.39
  -5   3  -4 1072.39   75.99
   2  -5  -4 1171.48   78.39
  -2   5   4 1067.09   94.99
  -2   5   4 1178.58   81.09
  -3  -2   4 1124.89   83.99
   4   1  -4  729.93   59.99
  -5   4  -4  639.44   51.59
   1  -5  -4  714.93   59.59
  -1   5   4  726.33   71.69
  -4  -1   4  674.83   58.39
   5  -4   4  779.02   71.09
  -1   5   4  676.33   55.69
  -5   5  -4  218.58   23.50
   0  -5  -4  142.69   26.20
   5  -5   4  216.68   35.30
   0   5   4  224.48   26.70
  -5   6  -4  684.33   55.89
  -1  -5  -4  578.54   65.99
   1   5   4  759.42   61.19
  -6   1   4  800.72   62.89
   5  -6   4  813.02   75.49
  -6   1  -4  200.18   29.60
   1   5  -4  174.08   35.70
   5  -6  -4  202.48   24.20
  -5   6   4  194.98   39.90
  -1  -5   4  192.98   28.80
   2   4  -4  433.96   56.39
  -6   2  -4  493.05   47.60
   4  -6  -4  460.25   40.40
  -2  -4   4  482.45   47.20
  -4   6   4  450.55   58.79
   3  -6  -4  631.44   49.00
   3   3  -4  619.64   64.29
   6  -3   4  761.92   72.39
  -3   6   4  559.74   65.59
  -3  -3   4  560.94   53.39
   2  -6  -4  211.48   24.10
   4   2  -4  252.07   34.10
  -6   4  -4  190.38   22.30
  -2   6   4  248.78   40.20
   6  -4   4  252.47   40.10
  -4  -2   4  213.98   28.00
  -6   5  -4  647.14   55.79
   5   1  -4  821.02   67.39
   6  -5   4  880.61   82.29
  -1   6   4  801.02   61.79
   0   0  -5  685.83   53.79
   0   0   5  696.63   62.29
   1  -1  -5 1312.47   94.89
   0   1  -5 1378.96   96.99
  -1   0  -5 1363.66   95.09
  -1   0  -5 1465.55   95.39
  -1   1   5 1436.16   99.59
   0  -1   5 1270.17  103.49
  -1   1   5 1474.15  105.09
   1   0   5 1440.06  108.29
   0  -1  -5 1272.67   87.79
   1   0  -5 1251.67   88.29
  -1   1  -5 1313.97   90.79
   0   1   5 1261.07   91.69
   1  -1   5 1314.87   98.49
   0   1   5 1296.67  101.59
  -1   0   5 1252.77   96.39
  -1  -1  -5  295.47   31.80
  -1   2  -5  318.17   34.30
   2  -1  -5  291.47   31.20
  -1  -1  -5  300.97   28.90
   1  -2   5  269.77   36.00
  -2   1   5  301.17   36.00
  -2   1   5  304.67   35.20
   1   1   5  257.47   40.30
  -2  -1  -5 1121.89   75.29
  -2  -1  -5 1048.40   82.09
   3  -2  -5  936.11   77.79
  -1   3  -5 1053.49   82.39
  -3   2   5 1269.47   85.29
   1  -3   5  928.31   86.49
  -3   2   5 1030.50   88.39
   2  -2  -5 1214.48   96.69
  -2   0  -5 1458.55   99.89
   0   2  -5 1485.65  100.39
  -2   0  -5 1395.36   95.49
   2   0   5 1360.66  113.39
  -2   2   5 1624.94  107.69
  -2   2   5 1438.06  106.29
   0  -2   5 1206.28  105.59
   1  -2  -5  265.47   30.50
   1   1  -5  335.77   31.90
  -2   1  -5  306.77   32.10
   2  -1   5  288.97   38.00
  -1   2   5  318.87   40.30
  -1  -1   5  244.38   35.70
  -1   2   5  299.37   34.90
   0  -2  -5  539.15   44.20
   2   0  -5  552.94   44.90
  -2   2  -5  526.25   47.90
   0   2   5  435.96   54.69
   0   2   5  513.75   49.70
   2  -2   5  477.45   50.39
  -2   0   5  588.74   53.69
  -1  -2  -5  922.21   61.59
  -1  -2  -5  867.51   67.79
   3  -1  -5  909.61   65.99
  -2   3  -5  772.82   67.79
   2  -3   5  807.72   71.99
  -3   1   5  699.93   78.19
   4  -2  -5  339.87   36.40
  -2  -2  -5  351.86   40.50
  -2   4  -5  362.46   39.60
   2  -4   5  331.67   42.80
   2   2   5  292.87   46.00
  -4   2   5  366.86   45.30
   5  -3  -5  610.24   53.79
  -3  -2  -5  638.94   61.99
  -2   5  -5  652.73   57.59
   2  -5   5  474.25   58.69
  -5   3   5  613.94   65.49
   2  -5   5  660.53   60.39
   3   2   5  616.74   67.99
  -1   4  -5  672.73   59.69
  -3  -1  -5  779.62   64.79
  -4   3   5  649.34   67.99
   3   1   5  504.15   66.39
  -3   0  -5  264.07   28.80
   0   3  -5  247.18   31.30
  -3   0  -5  268.07   32.50
   3  -3  -5  211.88   28.40
  -3   3   5  266.97   34.30
  -3   3   5  253.17   37.50
   3   0   5  175.68   36.70
   2  -3  -5  859.71   71.99
  -3   1  -5 1003.50   73.29
  -2   3   5  969.30   81.89
  -2   3   5  943.61   81.29
   3  -1   5 1036.40   89.29
   1  -3  -5  960.30   69.99
  -3   2  -5  742.83   67.19
   2   1  -5  969.40   67.19
  -2  -1   5  766.42   74.69
   3  -2   5 1012.20   80.39
  -1   3   5  934.21   76.39
  -3   3  -5  163.68   25.30
   3   0  -5  217.98   24.40
   0  -3  -5  229.48   24.80
  -3   0   5  192.98   29.80
   3  -3   5  210.78   30.00
   0   3   5  137.99   29.60
  -3   4  -5  808.42   65.79
  -1  -3  -5  709.53   64.19
   4  -1  -5  824.72   61.29
   1   3   5  649.74   71.89
   3  -4   5  772.92   67.99
  -4   1   5  869.41   82.99
  -3   5  -5  602.04   56.09
  -2  -3  -5  605.24   59.89
   5  -2  -5  603.64   53.39
  -5   2   5  671.93   64.29
   3  -5   5  585.54   60.19
   2   3   5  603.24   65.89
   3  -5   5  708.63   61.79
  -1   5  -5  122.39   22.60
  -4  -1  -5  149.09   27.30
  -1   5  -5  152.58   27.60
  -5   4   5  120.29   29.80
   1  -5   5   91.09   24.10
   4   1   5  143.39   31.70
  -4   0  -5  371.66   41.10
   4  -4  -5  366.56   36.70
   0   4  -5  308.67   36.80
   0  -4   5  244.28   38.50
  -4   4   5  357.26   48.90
   4   0   5  293.57   46.80
   1   3  -5  828.42   63.69
   3  -4  -5  710.73   59.59
   4  -1   5  578.74   71.29
  -3   4   5  784.82   74.59
   2  -4  -5  339.97   35.60
  -4   2  -5  337.77   35.10
  -2  -2   5  276.77   38.60
   4  -2   5  442.36   50.89
  -2   4   5  417.96   46.60
  -2   4   5  246.68   37.30
   3   1  -5  872.71   60.89
   1  -4  -5  773.52   62.49
  -4   3  -5  755.02   63.19
   4  -3   5  896.11   74.29
  -1   4   5  658.23   68.59
  -1   4   5  760.12   71.49
   4   0  -5  890.11   63.89
  -4   4  -5  831.92   68.19
   0   4   5  838.22   77.19
  -4   0   5  783.32   71.99
   4  -4   5  925.61   74.59
  -4   5  -5  170.18   25.30
  -1  -4  -5  149.19   25.90
   5  -1  -5  160.68   21.90
   1   4   5  143.99   28.60
   4  -5  -5  145.79   22.00
   1   4  -5  101.69   20.90
   5  -1   5  133.79   31.10
  -4   5   5  162.98   33.90
  -1  -4   5  102.99   24.00
   3  -5  -5  624.54   53.19
   2   3  -5  658.83   55.39
  -3   5   5  702.53   69.99
   5  -2   5  558.24   66.49
  -2  -3   5  548.35   58.79
  -5   3  -5  626.34   52.09
   2  -5  -5  548.75   50.79
  -3  -2   5  559.44   57.89
  -2   5   5  641.64   64.89
  -2   5   5  618.74   60.19
  -5   4  -5  149.09   22.50
  -1   5   5  181.18   28.60
  -4  -1   5  120.49   24.70
   0   0  -6  419.06   40.10
   0   0   6  464.25   50.39
   1  -1  -6  908.11   71.59
  -1   0  -6 1000.50   72.29
   0   1  -6  947.31   72.79
   1   0   6  936.11   83.89
   0  -1   6  957.40   83.29
  -1   1   6 1034.60   83.49
   0  -1  -6  196.18   24.60
   1   0  -6  194.98   25.00
  -1   1  -6  204.68   26.10
   1  -1   6  207.78   32.30
   0   1   6  224.48   34.90
  -1   0   6  209.38   32.10
   2  -1  -6  682.43   56.29
  -1  -1  -6  627.84   52.79
  -1   2  -6  724.13   59.29
   1   1   6  749.62   73.49
  -2   1   6  677.03   62.79
   1  -2   6  625.24   64.79
   3  -2  -6  789.92   66.69
  -1   3  -6  833.42   69.99
   2   1   6  857.01   86.99
  -3   2   6  952.60   73.99
   1  -3   6  733.13   74.69
  -2   0  -6  462.45   43.30
   0   2  -6  527.45   47.60
   2  -2  -6  476.35   46.00
   0  -2   6  447.26   53.39
   2   0   6  563.94   61.09
  -2   2   6  509.85   62.29
  -2   2   6  559.74   54.49
   1  -2  -6  644.54   55.89
  -2   1  -6  669.83   56.59
   1   1  -6  661.23   55.89
  -1  -1   6  733.53   67.99
   2  -1   6  608.44   64.59
  -1   2   6  719.63   63.59
  -1   2   6  814.22   71.19
   2   0  -6  722.93   58.49
  -2   2  -6  777.92   63.19
   0  -2  -6  661.03   56.69
   2  -2   6  733.63   69.09
  -2   0   6  822.12   70.39
   0   2   6  773.52   76.09
  -1  -2  -6  164.68   21.40
  -1  -2  -6  162.58   24.30
   3  -1  -6  174.08   23.90
  -2   3  -6  176.08   27.10
   1   2   6  183.98   37.60
   2  -3   6  149.39   28.60
  -3   1   6  181.58   28.50
   1   2  -6  849.52   66.39
   2  -3  -6  825.02   67.29
  -3   1  -6  806.52   65.79
  -1  -2   6  669.63   72.79
   3  -1   6  916.21   82.29
  -2   3   6  844.62   76.19
  -2   3   6  943.61   79.69
  -3   2  -6  142.09   24.00
   2   1  -6  170.28   22.90
   1  -3  -6  155.38   23.30
  -1   3   6  214.58   36.50
   3  -2   6  181.58   30.80
  -2  -1   6  187.18   31.10
  -1   3   6  197.78   31.40
   0   0   0    0.00    0.00
_computing_structure_solution     'SHELXT 2014/5 (Sheldrick, 2014)'
;
_shelx_hkl_checksum              66706
_shelx_res_file
;
    platon_pl.res created by SHELXL-2014/7
TITL SMB_K2ReF6_1_0m_a.res in P-3     New: P-3m1
CELL  0.71073    5.834    5.834    4.546    90.00    90.00   120.00
ZERR        1    0.002    0.002    0.002     0.00     0.00     0.00
LATT   1
SYMM             - Y ,          X - Y ,              Z
SYMM         - X + Y ,            - X ,              Z
SYMM               Y ,              X ,            - Z
SYMM             - X ,        - X + Y ,            - Z
SYMM           X - Y ,            - Y ,            - Z
SFAC  F  K Re
UNIT 6 2 1
LIST 4 ! automatically inserted. Change 6 to 4 for CHECKCIF!!
L.S. 12
FMAP 2
ACTA
PLAN -20
ACTA
CONF
WGHT    0.019400    0.517000
FVAR       0.85588
RESI 0
RE1   3    0.000000    0.000000    0.000000    10.08333    0.00883    0.00883 =
         0.00825    0.00000    0.00000    0.00441
F1    1    0.325407    0.162703    0.229905    10.50000    0.01194    0.01615 =
         0.01171   -0.00060   -0.00120    0.00597
K1    2    0.333333    0.666667    0.295527    10.16667    0.01181    0.01181 =
         0.00963    0.00000    0.00000    0.00590
HKLF 4 1  0.0000  1.0000  0.0000 -1.0000 -1.0000  0.0000  0.0000  0.0000
1.0000
REM  SMB_K2ReF6_1_0m_a.res in P-3     New: P-3m1
REM R1 =  0.0158 for     180 Fo > 4sig(Fo)  and  0.0158 for all     180 data
REM     12 parameters refined using      0 restraints
END
WGHT      0.0194      0.5169
REM Highest difference peak  1.802,  deepest hole -1.368,  1-sigma level  0.252
Q1    1   0.1367  0.1367  0.0000  10.50000  0.05    1.80
Q2    1   0.0000  0.0000  0.3091  10.16667  0.05    1.75
Q3    1  -0.0844  0.0844  0.2041  10.50000  0.05    1.03
Q4    1   0.6667  0.3333  0.3101  10.16667  0.05    0.75
Q5    1   0.0000  0.0000 -0.5000  10.08333  0.05    0.67
Q6    1  -0.0758  0.0758  0.4106  10.50000  0.05    0.56
Q7    1   0.1448 -0.1448  0.3000  10.50000  0.05    0.50
Q8    1   0.2877  0.1438  0.5039  10.50000  0.05    0.48
Q9    1   0.1439 -0.1439  0.1036  10.50000  0.05    0.43
Q10   1   0.0878  0.1755  0.4044  10.50000  0.05    0.42
Q11   1  -0.1482  0.2829  0.0095  11.00000  0.05    0.39
Q12   1   0.3333  0.6667 -0.0142  10.16667  0.05    0.35
Q13   1   0.2084  0.6810  0.3087  11.00000  0.05    0.35
Q14   1   0.3226  0.0000  0.0000  10.50000  0.05    0.34
Q15   1  -0.1593 -0.3186  0.0697  10.50000  0.05    0.33
Q16   1   0.4337  0.5663  0.0356  10.50000  0.05    0.27
Q17   1   0.4717  0.3626  0.2971  11.00000  0.05    0.27
Q18   1   0.0188  0.2651  0.2749  11.00000  0.05    0.27
Q19   1   0.0000  0.5000  0.0000  10.25000  0.05    0.24
Q20   1   0.4447  0.2223  0.3681  10.50000  0.05    0.23
;
_shelx_res_checksum              57931
loop_
_space_group_symop_operation_xyz
'x, y, z'
'-y, x-y, z'
'-x+y, -x, z'
'y, x, -z'
'-x, -x+y, -z'
'x-y, -y, -z'
'-x, -y, -z'
'y, -x+y, -z'
'x-y, x, -z'
'-y, -x, z'
'x, x-y, z'
'-x+y, y, z'
loop_
_atom_site_type_symbol
_atom_site_label
_atom_site_fract_x
_atom_site_fract_y
_atom_site_fract_z
_atom_site_U_iso_or_equiv
_atom_site_adp_type
_atom_site_calc_flag
_atom_site_occupancy
Re Re1 0 0 0 0.00863(14) Uani d 1
F F1 0.3254(6) 0.1627(3) 0.2299(6) 0.0137(5) Uani d 1
K K1 0.3333 0.6667 0.2955(4) 0.0111(3) Uani d 1
loop_
_atom_site_aniso_label
_atom_site_aniso_U_11
_atom_site_aniso_U_22
_atom_site_aniso_U_33
_atom_site_aniso_U_12
_atom_site_aniso_U_13
_atom_site_aniso_U_23
Re1 0.00883(16) 0.00883(16) 0.0082(2) 0.00441(8) 0 0
F1 0.0119(13) 0.0162(10) 0.0117(12) 0.0060(6) -0.0012(10) -0.0006(5)
K1 0.0118(5) 0.0118(5) 0.0096(6) 0.0059(2) 0 0
loop_
_atom_type_symbol
_atom_type_description
_atom_type_scat_dispersion_real
_atom_type_scat_dispersion_imag
_atom_type_scat_source
F F 0.0171 0.0103 'International Tables Vol C Tables 4.2.6.8 and 6.1.1.4'
K K 0.2009 0.2494 'International Tables Vol C Tables 4.2.6.8 and 6.1.1.4'
Re Re -1.0185 7.2310 'International Tables Vol C Tables 4.2.6.8 and 6.1.1.4'
loop_
_geom_angle_atom_site_label_1
_geom_angle_atom_site_label_2
_geom_angle_atom_site_label_3
_geom_angle_site_symmetry_1
_geom_angle_site_symmetry_3
_geom_angle
F1 Re1 F1 . 7 180.0
F1 Re1 F1 . 9 86.08(12)
F1 Re1 F1 7 9 93.92(12)
F1 Re1 F1 . 3 93.92(12)
F1 Re1 F1 7 3 86.08(12)
F1 Re1 F1 9 3 180.00(19)
F1 Re1 F1 . 2 93.92(12)
F1 Re1 F1 7 2 86.08(12)
F1 Re1 F1 9 2 86.08(12)
F1 Re1 F1 3 2 93.92(12)
F1 Re1 F1 . 8 86.08(12)
F1 Re1 F1 7 8 93.92(12)
F1 Re1 F1 9 8 93.92(12)
F1 Re1 F1 3 8 86.08(12)
F1 Re1 F1 2 8 180.00(7)
F1 Re1 K1 . 7 126.206(14)
F1 Re1 K1 7 7 53.794(14)
F1 Re1 K1 9 7 125.81(9)
F1 Re1 K1 3 7 54.19(9)
F1 Re1 K1 2 7 126.205(14)
F1 Re1 K1 8 7 53.795(14)
F1 Re1 K1 . 7_665 54.19(9)
F1 Re1 K1 7 7_665 125.81(9)
F1 Re1 K1 9 7_665 53.794(14)
F1 Re1 K1 3 7_665 126.206(14)
F1 Re1 K1 2 7_665 126.205(14)
F1 Re1 K1 8 7_665 53.795(14)
K1 Re1 K1 7 7_665 107.11(3)
F1 Re1 K1 . 1_445 125.81(9)
F1 Re1 K1 7 1_445 54.19(9)
F1 Re1 K1 9 1_445 126.206(14)
F1 Re1 K1 3 1_445 53.794(14)
F1 Re1 K1 2 1_445 53.795(14)
F1 Re1 K1 8 1_445 126.205(14)
K1 Re1 K1 7 1_445 72.89(3)
K1 Re1 K1 7_665 1_445 180.0
F1 Re1 K1 . . 53.794(14)
F1 Re1 K1 7 . 126.206(14)
F1 Re1 K1 9 . 54.19(9)
F1 Re1 K1 3 . 125.81(9)
F1 Re1 K1 2 . 53.794(14)
F1 Re1 K1 8 . 126.206(14)
K1 Re1 K1 7 . 180.0
K1 Re1 K1 7_665 . 72.89(3)
K1 Re1 K1 1_445 . 107.11(3)
F1 Re1 K1 . 1_545 53.795(14)
F1 Re1 K1 7 1_545 126.205(14)
F1 Re1 K1 9 1_545 126.206(14)
F1 Re1 K1 3 1_545 53.794(14)
F1 Re1 K1 2 1_545 125.81(9)
F1 Re1 K1 8 1_545 54.19(9)
K1 Re1 K1 7 1_545 72.90(3)
K1 Re1 K1 7_665 1_545 72.90(3)
K1 Re1 K1 1_445 1_545 107.10(3)
K1 Re1 K1 . 1_545 107.10(3)
F1 Re1 K1 . 7_565 126.205(14)
F1 Re1 K1 7 7_565 53.795(14)
F1 Re1 K1 9 7_565 53.794(14)
F1 Re1 K1 3 7_565 126.206(14)
F1 Re1 K1 2 7_565 54.19(9)
F1 Re1 K1 8 7_565 125.81(9)
K1 Re1 K1 7 7_565 107.10(3)
K1 Re1 K1 7_665 7_565 107.10(3)
K1 Re1 K1 1_445 7_565 72.90(3)
K1 Re1 K1 . 7_565 72.90(3)
K1 Re1 K1 1_545 7_565 180.0
Re1 F1 K1 . 7_666 161.08(14)
Re1 F1 K1 . . 93.79(6)
K1 F1 K1 7_666 . 84.95(6)
Re1 F1 K1 . 1_545 93.79(6)
K1 F1 K1 7_666 1_545 84.95(6)
K1 F1 K1 . 1_545 168.22(13)
Re1 F1 K1 . 7_665 93.38(11)
K1 F1 K1 7_666 7_665 105.55(10)
K1 F1 K1 . 7_665 94.27(6)
K1 F1 K1 1_545 7_665 94.27(6)
F1 K1 F1 8_566 7_666 65.46(11)
F1 K1 F1 8_566 9_556 65.46(11)
F1 K1 F1 7_666 9_556 65.46(11)
F1 K1 F1 8_566 3_565 62.44(10)
F1 K1 F1 7_666 3_565 127.81(6)
F1 K1 F1 9_556 3_565 95.05(6)
F1 K1 F1 8_566 1_565 62.44(10)
F1 K1 F1 7_666 1_565 95.05(6)
F1 K1 F1 9_556 1_565 127.81(6)
F1 K1 F1 3_565 1_565 58.10(11)
F1 K1 F1 8_566 2 95.05(6)
F1 K1 F1 7_666 2 127.81(6)
F1 K1 F1 9_556 2 62.44(10)
F1 K1 F1 3_565 2 61.22(12)
F1 K1 F1 1_565 2 118.98(2)
F1 K1 F1 8_566 2_665 95.05(6)
F1 K1 F1 7_666 2_665 62.44(10)
F1 K1 F1 9_556 2_665 127.81(6)
F1 K1 F1 3_565 2_665 118.98(2)
F1 K1 F1 1_565 2_665 61.22(12)
F1 K1 F1 2 2_665 168.22(13)
F1 K1 F1 8_566 3_665 127.81(6)
F1 K1 F1 7_666 3_665 62.44(10)
F1 K1 F1 9_556 3_665 95.05(6)
F1 K1 F1 3_565 3_665 168.22(13)
F1 K1 F1 1_565 3_665 118.98(2)
F1 K1 F1 2 3_665 118.98(2)
F1 K1 F1 2_665 3_665 58.10(11)
F1 K1 F1 8_566 . 127.81(6)
F1 K1 F1 7_666 . 95.05(6)
F1 K1 F1 9_556 . 62.44(10)
F1 K1 F1 3_565 . 118.98(2)
F1 K1 F1 1_565 . 168.22(13)
F1 K1 F1 2 . 58.09(11)
F1 K1 F1 2_665 . 118.98(2)
F1 K1 F1 3_665 . 61.22(11)
F1 K1 F1 8_566 8_565 105.55(10)
F1 K1 F1 7_666 8_565 144.70(4)
F1 K1 F1 9_556 8_565 144.70(4)
F1 K1 F1 3_565 8_565 53.80(10)
F1 K1 F1 1_565 8_565 53.80(10)
F1 K1 F1 2 8_565 85.73(6)
F1 K1 F1 2_665 8_565 85.73(6)
F1 K1 F1 3_665 8_565 114.69(6)
F1 K1 F1 . 8_565 114.69(6)
F1 K1 F1 8_566 9 144.70(4)
F1 K1 F1 7_666 9 144.70(4)
F1 K1 F1 9_556 9 105.55(10)
F1 K1 F1 3_565 9 85.73(6)
F1 K1 F1 1_565 9 114.69(6)
F1 K1 F1 2 9 53.80(10)
F1 K1 F1 2_665 9 114.69(6)
F1 K1 F1 3_665 9 85.73(6)
F1 K1 F1 . 9 53.80(10)
F1 K1 F1 8_565 9 60.91(10)
F1 K1 F1 8_566 7_665 144.70(4)
F1 K1 F1 7_666 7_665 105.55(10)
F1 K1 F1 9_556 7_665 144.70(4)
F1 K1 F1 3_565 7_665 114.69(6)
F1 K1 F1 1_565 7_665 85.73(6)
F1 K1 F1 2 7_665 114.69(6)
F1 K1 F1 2_665 7_665 53.80(10)
F1 K1 F1 3_665 7_665 53.80(10)
F1 K1 F1 . 7_665 85.73(6)
F1 K1 F1 8_565 7_665 60.91(10)
F1 K1 F1 9 7_665 60.91(10)
loop_
_geom_bond_atom_site_label_1
_geom_bond_atom_site_label_2
_geom_bond_site_symmetry_2
_geom_bond_distance
Re1 F1 . 1.948(3)
Re1 F1 7 1.948(3)
Re1 F1 9 1.948(3)
Re1 F1 3 1.948(3)
Re1 F1 2 1.948(3)
Re1 F1 8 1.948(3)
Re1 K1 7 3.6263(13)
Re1 K1 7_665 3.6263(13)
Re1 K1 1_445 3.6263(13)
Re1 K1 . 3.6263(13)
Re1 K1 1_545 3.6263(13)
Re1 K1 7_565 3.6263(13)
F1 K1 7_666 2.762(3)
F1 K1 . 2.9325(11)
F1 K1 1_545 2.9325(10)
F1 K1 7_665 2.946(3)
K1 F1 8_566 2.762(3)
K1 F1 7_666 2.762(3)
K1 F1 9_556 2.762(3)
K1 F1 3_565 2.9325(11)
K1 F1 1_565 2.9325(10)
K1 F1 2 2.9325(11)
K1 F1 2_665 2.9325(11)
K1 F1 3_665 2.9325(11)
K1 F1 8_565 2.946(3)
K1 F1 9 2.946(3)
K1 F1 7_665 2.946(3)

_cod_database_fobs_code 2242480
