#------------------------------------------------------------------------------
#$Date: 2018-04-30 19:32:52 +0300 (Mon, 30 Apr 2018) $
#$Revision: 207565 $
#$URL: file:///home/coder/svn-repositories/cod/cif/2/24/24/2242482.cif $
#------------------------------------------------------------------------------
#
# This file is available in the Crystallography Open Database (COD),
# http://www.crystallography.net/. The original data for this entry
# were provided by IUCr Journals, http://journals.iucr.org/.
#
# The file may be used within the scientific community so long as
# proper attribution is given to the journal article from which the
# data were obtained.
#
data_2242482
loop_
_publ_author_name
'Louis-Jean, James'
'Mariappan Balasekaran, Samundeeswari'
'Smith, Dean'
'Salamat, Ashkan'
'Pham, Chien Thang'
'Poineau, Frederic'
_publ_section_title
;
 Syntheses, Raman spectroscopy and crystal structures of alkali
 hexafluoridorhenates(IV) revisited
;
_journal_coeditor_code           WM5432
_journal_issue                   5
_journal_name_full               'Acta Crystallographica Section E'
_journal_page_first              646
_journal_page_last               649
_journal_paper_doi               10.1107/S2056989018005297
_journal_volume                  74
_journal_year                    2018
_chemical_formula_iupac          'Cs2 [Re F6]'
_chemical_formula_moiety         'F6 Re, 2(Cs)'
_chemical_formula_sum            'Cs2 F6 Re'
_chemical_formula_weight         566.02
_chemical_name_common            Cs2ReF6
_chemical_name_systematic
;
Dicaesium hexafluoridorhenate(IV)
;
_space_group_crystal_system      trigonal
_space_group_IT_number           164
_space_group_name_Hall           '-P 3 2"'
_space_group_name_H-M_alt        'P -3 m 1'
_symmetry_space_group_name_Hall  '-P 3 2"'
_symmetry_space_group_name_H-M   'P -3 m 1'
_atom_sites_solution_primary     direct
_atom_sites_solution_secondary   difmap
_cell_angle_alpha                90
_cell_angle_beta                 90
_cell_angle_gamma                120
_cell_formula_units_Z            1
_cell_length_a                   6.2680(10)
_cell_length_b                   6.2680(10)
_cell_length_c                   4.9310(10)
_cell_measurement_reflns_used    135
_cell_measurement_temperature    100.(2)
_cell_measurement_theta_max      32.6305
_cell_measurement_theta_min      3.7551
_cell_volume                     167.77(5)
_computing_cell_refinement
;
SAINT (Bruker, 2015)
;
_computing_data_collection
;
APEX3 (Bruker, 2015)
;
_computing_data_reduction
;
SAINT (Bruker, 2015)
;
_computing_molecular_graphics
;
DIAMOND (Brandenburg, 2007)
;
_computing_publication_material
;
publCIF (Westrip, 2010)
;
_computing_structure_refinement
;
SHELXL2014 (Sheldrick, 2015)
;
_computing_structure_solution
;
SHELXS (Sheldrick, 2008)
;
_diffrn_ambient_temperature      100.(2)
_diffrn_detector_area_resol_mean 8.3333
_diffrn_measured_fraction_theta_full 1.000
_diffrn_measured_fraction_theta_max 1.000
_diffrn_measurement_device_type  'Bruker D8 QUEST'
_diffrn_measurement_method       '\f and \w scans'
_diffrn_radiation_monochromator  'curved graphite'
_diffrn_radiation_type           'Mo K\a'
_diffrn_radiation_wavelength     0.71073
_diffrn_reflns_av_R_equivalents  0.0401
_diffrn_reflns_limit_h_max       8
_diffrn_reflns_limit_h_min       -8
_diffrn_reflns_limit_k_max       8
_diffrn_reflns_limit_k_min       -8
_diffrn_reflns_limit_l_max       7
_diffrn_reflns_limit_l_min       -7
_diffrn_reflns_number            2683
_diffrn_reflns_theta_full        30.44
_diffrn_reflns_theta_max         30.44
_diffrn_reflns_theta_min         3.75
_exptl_absorpt_coefficient_mu    28.830
_exptl_absorpt_correction_T_max  0.15
_exptl_absorpt_correction_T_min  0.05
_exptl_absorpt_correction_type   multi-scan
_exptl_absorpt_process_details
;
(<i>SADABS</i>; Bruker, 2015)
;
_exptl_crystal_colour            'clear colourless'
_exptl_crystal_density_diffrn    5.602
_exptl_crystal_density_method    'not measured'
_exptl_crystal_description       'hexagonal plate'
_exptl_crystal_F_000             239
_exptl_crystal_size_max          0.251
_exptl_crystal_size_mid          0.118
_exptl_crystal_size_min          0.108
_refine_diff_density_max         0.684
_refine_diff_density_min         -2.923
_refine_ls_extinction_coef       0.029(2)
_refine_ls_extinction_method
;
SHELXL2014 (Sheldrick, 2015)
;
_refine_ls_goodness_of_fit_ref   1.249
_refine_ls_hydrogen_treatment    undef
_refine_ls_matrix_type           full
_refine_ls_number_parameters     13
_refine_ls_number_reflns         218
_refine_ls_number_restraints     0
_refine_ls_restrained_S_all      1.249
_refine_ls_R_factor_all          0.0132
_refine_ls_R_factor_gt           0.0132
_refine_ls_shift/su_max          0.000
_refine_ls_shift/su_mean         0.000
_refine_ls_structure_factor_coef Fsqd
_refine_ls_weighting_details
'w=1/[\s^2^(Fo^2^)+(0.0181P)^2^+0.1419P] where P=(Fo^2^+2Fc^2^)/3'
_refine_ls_weighting_scheme      calc
_refine_ls_wR_factor_gt          0.0358
_refine_ls_wR_factor_ref         0.0358
_reflns_number_gt                218
_reflns_number_total             218
_reflns_threshold_expression     'I > 2\s(I)'
_cod_data_source_file            wm5432sup1.cif
_cod_data_source_block           SMB_Cs2ReF6_1a
_cod_original_cell_volume        167.77(6)
_cod_database_code               2242482
_shelx_hkl_file
;
  -1   1   0  417.26   24.50
  -1   1   0  497.15   22.80
   0  -1   0  486.25   22.90
   1   0   0  518.85   22.90
  -1   1   0  516.05   23.00
   0   1   0  484.75   23.00
   0   1   0  493.95   22.90
   1  -1   0  482.15   22.90
  -1   0   0  522.25   25.20
  -1   0   0  508.55   22.80
  -2   1   0 7519.95  306.97
  -2   1   0 5758.92  305.97
   1   1   0 6759.22  307.57
  -2   1   0 5853.71  307.97
   1   1   0 7137.49  306.67
  -1  -1   0 5851.41  310.07
  -1   2   0 6230.58  307.27
  -1   2   0 7264.07  307.17
  -1   2   0 7265.67  306.27
   2  -1   0 6562.14  307.37
  -2   2   0   15.70    0.90
  -2   2   0   14.30    3.00
  -2   2   0   16.20    1.30
   2   0   0   16.40    1.20
   2   0   0   17.00    1.10
  -2   0   0   18.10    1.00
   0   2   0   14.00    1.30
   0   2   0   14.30    1.10
   2  -2   0   19.40    1.20
   0   2   0    8.20    4.20
  -3   1   0  124.09    6.30
  -3   1   0  133.19    6.20
   1   2   0  120.09    6.30
   2  -3   0  130.29    6.40
  -3   1   0  128.69   10.30
   1   2   0  126.79    6.50
  -2   3   0  123.69    6.50
  -2   3   0  122.89    6.10
   3  -1   0  120.89    6.50
  -1  -2   0  116.09   12.40
  -1  -2   0  124.39    6.10
   2   1   0  118.39    5.90
  -3   2   0  119.09    5.70
  -3   2   0  129.09   10.00
  -3   2   0  124.09    6.20
   1  -3   0  119.89    6.00
   2   1   0  117.09    6.20
   3  -2   0  118.39    6.10
  -1   3   0  117.59    5.90
  -1   3   0   87.39   11.90
  -1   3   0  113.49    7.60
  -2  -1   0  107.29   10.30
   3   0   0 5368.76  244.18
  -3   3   0 5624.14  242.98
  -3   3   0 5014.70  249.58
  -3   3   0 5221.78  243.48
   0  -3   0 5266.17  243.58
   0   3   0 4932.41  243.28
  -3   0   0 5554.24  243.68
   0   3   0 5285.47  243.08
   3  -3   0 5165.18  244.38
  -3   0   0 5133.29  249.58
   1   3   0  222.98   11.90
  -4   1   0  232.08   17.50
   3  -4   0  241.38   11.50
   3  -4   0  229.68   11.70
   1   3   0  228.58   11.50
  -4   1   0  257.57   11.50
  -4   1   0  227.68   11.30
  -3   4   0  237.38   11.10
  -1  -3   0  214.88   20.80
  -1  -3   0  221.28   11.20
   4  -1   0  229.58   11.80
   2  -4   0 7753.22  340.87
   2   2   0 7841.82  340.47
   2  -4   0 7588.24  340.47
  -4   2   0 6885.21  345.67
  -4   2   0 7495.95  341.37
   2   2   0 7534.65  341.47
  -2  -2   0 6819.92  349.17
  -2   4   0 6185.88  350.66
   4  -2   0 7533.25  341.47
  -2   4   0 7820.42  340.57
  -4   3   0  224.18   10.30
   1  -4   0  222.88   10.90
   3   1   0  228.98   11.30
   3   1   0  231.38   10.80
  -4   3   0  184.78   15.60
  -4   3   0  229.08   11.10
  -1   4   0  180.58   13.30
   4  -3   0  220.98   11.00
  -1   4   0  217.98   10.80
   0  -4   0   24.60    9.20
   4   0   0   30.90    1.90
   4   0   0   32.70    2.20
   4   0   0   27.80    2.40
  -4   4   0   31.50    1.80
   0  -4   0   29.90    2.10
  -4   4   0   37.00    7.30
   4  -4   0   31.70    2.20
   0   4   0   29.60    3.10
  -4   0   0   36.80    6.70
   4  -4   0   34.60    2.50
   0   4   0   32.60    2.20
  -5   1   0 4055.19  181.08
   4  -5   0 4049.59  180.98
  -5   1   0 3972.70  192.38
   4  -5   0 3853.61  181.38
   1   4   0 3758.02  181.88
   1   4   0 3967.40  181.08
  -4   5   0 4098.29  180.58
   5  -1   0 3866.11  181.48
  -1  -4   0 3650.33  197.88
  -4   5   0 3761.92  195.48
   5  -1   0 3920.61  180.78
   3  -5   0  329.47   16.30
   2   3   0  332.97   16.10
   3  -5   0  325.27   15.90
   2   3   0  324.77   16.50
  -5   2   0  309.77   23.20
   5  -2   0  328.37   16.40
  -3   5   0  299.97   27.20
   5  -2   0  328.87   16.00
  -2  -3   0  339.77   27.60
  -3   5   0  327.87   15.70
  -5   3   0  317.67   23.30
   2  -5   0  320.37   16.00
   3   2   0  327.07   16.40
   3   2   0  324.07   15.80
   2  -5   0  309.67   16.20
   5  -3   0  332.27   16.00
   5  -3   0  326.47   16.10
  -2   5   0  322.57   15.70
   1  -5   0 3941.11  181.88
   4   1   0 3953.80  181.88
   4   1   0 3923.21  182.48
  -5   4   0 3908.01  192.88
  -4  -1   0 4057.79  193.48
   5  -4   0 3922.21  182.28
   5  -4   0 3920.11  181.98
  -1   5   0 3928.71  181.88
  -1   5   0 3798.92  185.88
  -5   5   0   56.59   10.40
   5   0   0   46.80    3.80
   5   0   0   54.19    3.40
   0  -5   0   40.70   11.10
   5  -5   0   52.89    3.40
   0   5   0   50.49    3.50
   0   5   0   55.49    5.70
   5  -5   0   50.59    3.70
  -5   0   0   60.39    9.60
   5  -6   0   73.19    5.10
   1   5   0   73.99    6.20
  -6   1   0   87.29   12.50
   1   5   0   71.39    4.70
  -1  -5   0   75.19   14.20
  -5   6   0   69.19   13.10
   6  -1   0   80.29    5.30
   2   4   0   44.10    3.30
  -6   2   0   52.99    9.30
   2   4   0   57.89    4.20
   4  -6   0   41.60    3.40
  -2  -4   0   46.60   10.90
   6  -2   0   48.20    3.20
   6  -2   0   44.10    3.60
  -4   6   0   33.00   10.00
   3   3   0 3517.15  160.68
   3   3   0 3409.06  159.88
   3  -6   0 3465.15  160.18
  -3   6   0 2889.01  179.58
  -3   6   0 3521.25  159.58
   6  -3   0 3589.24  160.08
  -3  -3   0 3621.44  175.98
   6  -3   0 3483.95  160.38
   2  -6   0   45.30    3.30
   4   2   0   47.40    3.20
  -6   4   0   36.50    7.60
   4   2   0   45.30    3.70
   6  -4   0   46.40    3.40
  -2   6   0   30.00   12.30
   6  -4   0   46.00    3.40
  -2   6   0   42.00    3.00
  -4  -2   0   60.49   10.60
  -6   5   0   75.79   12.50
   1  -6   0   58.19   14.80
   5   1   0   75.29    5.30
   5   1   0   76.59    4.70
   6  -5   0   72.39    5.00
   6  -5   0   77.49    4.80
  -5  -1   0   88.09   12.60
  -1   6   0   73.39    4.70
   6   0   0 3497.25  161.38
   0  -6   0 3266.97  183.68
  -6   6   0 3468.95  179.88
   6  -6   0 3358.96  160.98
  -6   0   0 3772.62  177.38
   0   6   0 3361.66  160.48
  -7   1   0  144.59   18.10
   1   6   0  132.49    7.80
   6  -7   0  127.59    8.20
  -6   7   0  142.09   20.90
  -1  -6   0  123.39   19.90
   7  -1   0  134.69    8.50
  -7   2   0 2607.94  130.29
   5  -7   0 2382.76  114.19
   2   5   0 2377.36  113.69
   7  -2   0 2436.36  114.29
  -5   7   0 2256.47  136.39
  -2  -5   0 2551.44  136.29
   3   4   0   43.00    3.40
  -7   3   0   43.50    9.60
   4  -7   0   49.40    3.90
   3   4   0   42.50    4.10
   7  -3   0   47.10    3.80
  -4   7   0   45.90   15.30
  -3  -4   0   46.40   11.00
   7  -3   0   45.70    3.40
   4   3   0   46.60    4.20
   4   3   0   49.70    3.60
   3  -7   0   46.70    3.80
  -7   4   0   49.90   10.00
  -4  -3   0   46.60   10.80
  -3   7   0   48.30    3.30
   7  -4   0   52.19    3.90
   7  -4   0   50.99    3.90
  -3   7   0   35.60   15.30
   5   2   0 2529.05  115.59
  -7   5   0 2475.75  131.29
   2  -7   0 2479.35  114.69
   5   2   0 2490.25  114.49
  -5  -2   0 2521.55  131.69
  -2   7   0 2403.26  114.19
  -2   7   0 2102.69  139.89
   7  -5   0 2490.25  114.89
   7  -5   0 2478.85  114.69
  -7   6   0  138.49   19.60
   1  -7   0  134.09   21.90
   6   1   0  149.79    9.10
  -1   7   0  137.69    8.00
  -6  -1   0  149.19   18.40
   7  -6   0  134.79    8.50
   7   0   0  177.38   11.10
  -7   7   0  216.38   27.00
   0  -7   0  198.98   26.50
  -7   0   0  213.58   22.90
   0   7   0  171.18   10.20
   7  -7   0  177.38   10.80
   1   7   0 1769.12   88.89
  -8   1   0 2243.58  113.19
   7  -8   0 1807.02   89.79
  -1  -7   0 1852.41  114.89
   8  -1   0 1879.51   90.19
  -7   8   0 1854.21  116.69
  -8   2   0   55.39   12.30
   2   6   0   38.20    3.60
   6  -8   0   46.50    4.30
   8  -2   0   47.60    4.50
  -6   8   0   38.30   15.40
  -2  -6   0   64.19   15.30
   3   5   0   76.39    5.40
   5  -8   0   76.59    5.70
  -8   3   0   63.19   13.50
  -5   8   0   74.69   19.20
  -3  -5   0   80.49   15.50
   8  -3   0   86.49    6.00
   4   4   0 2438.96  117.89
   4   4   0 2554.04  119.39
  -8   4   0 2474.35  135.49
   4  -8   0 2588.04  118.59
  -4  -4   0 2529.05  139.29
   8  -4   0 2529.35  118.39
   3  -8   0   77.69    5.60
   5   3   0   85.09    6.50
   5   3   0   72.49    5.30
  -8   5   0   72.29   14.00
  -3   8   0   75.69   20.00
   8  -5   0   69.29    5.40
  -5  -3   0   98.29   16.10
   8  -5   0   82.09    5.60
  -3   8   0   74.69    4.90
  -8   6   0   44.10   13.00
   2  -8   0   48.40   16.20
   6   2   0   42.70    4.50
  -2   8   0   43.40    3.50
   8  -6   0   37.70    3.90
  -6  -2   0   55.19   12.40
   1  -8   0 1716.43  113.49
  -8   7   0 1946.71  114.19
   7   1   0 1937.31   90.09
  -1   8   0 1821.02   88.39
   8  -7   0 1836.62   89.29
  -7  -1   0 2006.90  109.49
   0   0  -1  917.11   43.40
   0   0  -1  984.50   44.00
   0   0   1  833.42   43.10
   0   1  -1  124.09    8.20
   1  -1  -1  132.19    6.40
  -1   0  -1  103.79    8.30
   1  -1  -1  128.49    6.10
  -1   0  -1  140.89    6.90
   0   1  -1  132.49    6.40
  -1   1   1  126.39    7.90
  -1   1   1  124.39    6.80
   0  -1   1  125.79    6.20
   1   0   1  119.19    6.30
   1   0   1  123.59    6.10
   0  -1  -1 7757.72  336.87
   1   0  -1 7486.65  337.17
   1   0  -1 6869.71  336.27
  -1   1  -1 8143.69  337.17
  -1   0   1 7516.95  337.27
   0   1   1 7571.04  335.27
   1  -1   1 7030.30  337.87
   0   1   1 6249.27  338.17
   1  -1   1 7003.80  335.97
  -1   0   1 6926.81  338.47
  -1  -1  -1  445.06   23.10
  -1  -1  -1  381.86   26.00
   2  -1  -1  445.96   21.30
   2  -1  -1  471.45   21.40
  -1   2  -1  461.85   21.20
  -1   2  -1  484.45   26.50
  -1   2  -1  465.95   21.50
  -2   1   1  419.26   22.50
  -2   1   1  438.66   23.60
   1   1   1  469.85   21.30
   1   1   1  470.75   21.30
  -2  -1  -1  160.08    7.70
  -1   3  -1  181.88   16.10
  -1   3  -1  124.09    9.60
  -1   3  -1  145.59    7.20
   3  -2  -1  143.39    7.40
  -1   3  -1  143.29    7.40
   3  -2  -1  141.49    7.30
  -3   2   1  134.99    8.00
   2   1   1  149.69    7.30
  -3   2   1  140.19   10.40
   2   1   1  141.69    7.50
   0   2  -1 9823.22  417.36
   2  -2  -1 9999.00  418.16
  -2   0  -1 7754.22  420.56
  -2   0  -1 9652.33  418.46
   2  -2  -1 9671.23  416.76
   0   2  -1 8172.58  419.16
   0   2  -1 8844.01  422.16
   0  -2   1 8564.24  423.06
   2   0   1 9542.85  417.06
  -2   2   1 8306.07  419.26
  -2   2   1 8854.01  416.96
   2   0   1 8970.00  418.86
  -2   1  -1  408.16   25.80
  -2   1  -1  502.55   23.00
   1   1  -1  496.25   22.80
   1   1  -1  471.45   23.10
   1   1  -1  534.95   22.80
   1  -2  -1  475.95   22.90
   2  -1   1  477.25   22.40
  -1   2   1  473.15   27.40
  -1   2   1  486.95   22.80
  -1  -1   1  500.95   25.60
   2  -1   1  469.45   23.00
   0  -2  -1  466.55   21.90
  -2   2  -1  467.45   21.80
   2   0  -1  470.95   21.60
   2   0  -1  436.36   21.70
   0   2   1  433.56   21.30
   2  -2   1  470.55   21.30
   0   2   1  442.76   21.60
  -2   0   1  436.86   24.00
   0   2   1  463.35   28.90
   2  -2   1  460.35   22.20
  -2   0   1  478.45   21.80
   3  -1  -1 5407.76  239.88
   3  -1  -1 5164.58  239.48
  -2   3  -1 5341.97  238.78
  -2   3  -1 5722.93  238.78
  -1  -2  -1 4574.44  247.18
  -1  -2  -1 4756.92  239.58
  -2   3  -1 4692.83  246.48
  -3   1   1 5063.49  242.28
   2  -3   1 5013.90  239.78
   1   2   1 5322.87  238.98
  -3   1   1 5448.35  239.18
   1   2   1 5412.66  239.48
   4  -2  -1  531.45   25.10
  -2   4  -1  524.15   25.30
   4  -2  -1  521.75   25.10
  -2   4  -1  538.55   24.80
  -2   4  -1  538.85   27.30
  -2  -2  -1  554.14   25.90
   2   2   1  524.35   25.20
   2   2   1  528.25   25.00
  -4   2   1  461.65   26.50
  -4   2   1  525.45   30.00
   5  -3  -1   42.60    3.00
  -2   5  -1   46.30    3.20
  -2   5  -1   42.20   11.00
   5  -3  -1   43.80    3.10
  -2   5  -1   51.79    5.20
  -3  -2  -1   30.80    7.90
  -2   5  -1   49.60    2.90
   3   2   1   44.00    2.90
   3   2   1   41.90    3.20
  -5   3   1   38.80    3.20
  -5   3   1   43.50    6.60
   4  -3  -1 5130.99  229.18
  -1   4  -1 4521.65  233.08
  -1   4  -1 5092.39  229.28
  -1   4  -1 4914.21  244.98
   4  -3  -1 5037.80  229.48
  -3  -1  -1 5016.20  228.88
  -1   4  -1 5189.08  229.08
  -4   3   1 4884.51  229.18
   3   1   1 4985.10  229.58
   3   1   1 5065.99  229.08
  -4   3   1 4667.33  235.08
   0   3  -1  711.43   32.50
   3  -3  -1  681.63   32.40
   0   3  -1  678.93   34.20
   0   3  -1  689.53   32.60
  -3   0  -1  732.93   32.60
   3  -3  -1  700.43   32.90
  -3   0  -1  564.44   39.00
  -3   3   1  699.93   38.60
   3   0   1  713.23   33.00
  -3   3   1  698.23   32.60
   0  -3   1  727.33   43.20
   3   0   1  697.93   32.40
  -3   1  -1  131.19   12.00
   1   2  -1  144.09    7.40
   2  -3  -1  143.19    7.00
  -3   1  -1  150.58    7.60
   1   2  -1  152.18    8.10
   1   2  -1  152.48    7.10
   2  -3  -1  145.19    7.60
  -2   3   1  139.69    7.40
  -2   3   1  142.19   12.10
   3  -1   1  149.39    7.00
   3  -1   1  146.89    7.80
  -1  -2   1  185.38   13.00
   1  -3  -1 5269.17  241.98
  -3   2  -1 4503.15  246.98
   2   1  -1 5354.96  242.68
  -3   2  -1 5623.54  241.68
   2   1  -1 5511.15  242.68
  -1   3   1 5319.67  242.38
  -1   3   1 4761.52  250.57
  -2  -1   1 5333.37  245.88
   3  -2   1 5341.97  241.88
  -3   3  -1  167.48    8.40
   0  -3  -1  151.68   16.00
   3   0  -1  152.78    8.30
   0  -3  -1  164.48    8.40
   3   0  -1  169.78    8.00
  -3   3  -1  125.09   12.80
   0   3   1  147.89    8.00
   0   3   1  154.08    8.10
   3  -3   1  175.28    8.70
  -3   0   1  157.68    8.30
   0   3   1  175.18   17.40
   3  -3   1  170.08    7.60
  -3   0   1  162.28   11.70
  -3   4  -1   42.00    8.30
  -1  -3  -1   57.69    4.00
   4  -1  -1   52.39    3.00
  -3   4  -1   48.30    3.40
   4  -1  -1   50.09    3.30
  -1  -3  -1   47.00    8.90
  -3   4  -1   52.59    2.80
   1   3   1   48.70    3.10
   1   3   1   50.99    3.20
  -4   1   1   55.19    3.70
  -4   1   1   52.79    6.30
   3  -4   1   53.79    3.80
  -3   5  -1 4753.62  221.88
   5  -2  -1 4519.65  203.08
   5  -2  -1 4505.05  203.38
  -3   5  -1 4500.75  202.68
  -3   5  -1 4495.05  203.58
  -5   2   1 3761.12  204.98
   3  -5   1 4445.26  204.18
   2   3   1 4416.06  203.08
  -5   2   1 4260.67  210.18
   2   3   1 4241.18  203.28
  -3   6  -1  314.27   31.00
   6  -3  -1  247.58   13.00
  -3  -3  -1  215.38   23.50
  -3   6  -1  261.07   12.60
   6  -3  -1  243.48   13.20
   3   3   1  238.98   13.30
  -6   3   1  272.57   20.50
   3   3   1  262.07   13.10
   3  -6   1  257.77   13.40
   3  -6   1  261.67   14.10
  -4  -3  -1   41.20   11.30
   7  -4  -1   58.19    4.20
   7  -4  -1   65.09    4.30
  -3   7  -1   55.29    3.70
  -3   7  -1   66.79   17.80
  -7   4   1   53.99    9.00
   4   3   1   60.49    4.20
   4   3   1   52.49    4.50
   3  -7   1   57.59    4.40
   6  -4  -1 4030.10  185.78
  -4  -2  -1 3439.16  200.58
  -2   6  -1 4201.88  189.18
   6  -4  -1 4059.59  185.58
  -2   6  -1 4052.29  185.18
  -2   6  -1 4071.89  210.28
   2  -6   1 4133.79  185.68
  -6   4   1 3831.12  195.18
   4   2   1 4032.70  186.18
   4   2   1 4087.69  185.38
   5  -4  -1  164.38    8.60
  -4  -1  -1  155.28   17.20
  -1   5  -1  158.08    8.60
   5  -4  -1  164.68    9.00
  -1   5  -1  168.38   12.90
  -1   5  -1  179.68   20.60
   1  -5   1  166.28    8.70
   4   1   1  165.48    8.60
   4   1   1  168.58    9.20
  -5   4   1  176.88   15.40
   0   4  -1   67.59    4.10
  -4   0  -1   67.19   10.00
   0   4  -1   67.79    5.90
  -4   0  -1   75.29    4.00
   4  -4  -1   66.79    3.90
   4  -4  -1   67.99    4.40
   4   0   1   72.79    4.60
  -4   4   1   69.89    9.00
  -4   4   1   67.69    3.90
   0  -4   1   69.29    3.90
   4   0   1   72.59    3.90
   0  -4   1   84.99   12.20
   1   3  -1 5190.78  237.58
   3  -4  -1 5203.48  237.28
   3  -4  -1 5098.49  238.78
  -4   1  -1 5318.37  237.58
   1   3  -1 4956.90  238.58
  -3   4   1 5094.89  237.38
  -1  -3   1 5119.59  247.18
   4  -1   1 5136.59  238.08
  -1  -3   1 5056.39  237.28
   4  -1   1 5227.48  237.58
  -4   2  -1  532.35   25.20
   2  -4  -1  504.15   25.20
   2   2  -1  516.05   25.00
   2   2  -1  518.85   25.60
  -2   4   1  525.65   24.90
   4  -2   1  539.95   25.50
  -2   4   1  504.85   34.20
  -2  -2   1  559.94   31.50
  -4   3  -1   51.29    3.40
   1  -4  -1   48.90    3.30
  -4   3  -1   40.00    7.00
   3   1  -1   54.29    3.30
   4  -3   1   52.39    3.60
  -3  -1   1   52.19    6.40
  -1   4   1   50.29    3.20
  -1   4   1   54.79    3.30
  -1   4   1   63.09   10.70
   0  -4  -1 5692.73  282.17
  -4   4  -1 6054.09  267.17
   4   0  -1 5924.51  267.07
   0  -4  -1 6017.30  266.97
  -4   4  -1 5078.69  278.17
  -4   0   1 5823.02  273.17
  -4   0   1 5978.30  266.87
   4  -4   1 5845.12  267.17
   0   4   1 5318.67  267.07
   0   4   1 5926.81  266.77
  -1  -4  -1  361.66   32.10
   5  -1  -1  426.26   20.50
  -4   5  -1  435.86   21.20
   5  -1  -1  426.36   21.10
  -4   5  -1  388.96   32.80
  -5   1   1  429.46   27.20
  -5   1   1  493.85   21.60
   1   4   1  397.76   20.90
   4  -5   1  437.46   21.20
   1   4   1  416.96   20.70
   6  -2  -1   17.60    2.10
  -4   6  -1   24.40   10.30
  -2  -4  -1   20.00    8.80
  -4   6  -1   20.20    2.30
   6  -2  -1   20.90    2.20
   2   4   1   16.90    2.10
  -6   2   1   25.20    5.80
   2   4   1   22.60    2.10
   4  -6   1   20.00    2.30
   7  -3  -1 2274.67  106.59
  -7   3   1 2379.76  118.09
   3   4   1 2171.48  106.79
   4  -7   1 2288.37  106.69
   3   4   1 2251.57  106.19
   8  -4  -1  190.68   11.10
  -4  -4  -1  168.28   23.90
  -4   8  -1  233.38   32.60
   4   4   1  183.88   10.80
  -8   4   1  197.48   19.60
   4  -8   1  209.28   11.50
  -5  -3  -1 1927.11  122.09
  -3   8  -1 2462.85  135.79
   8  -5  -1 2052.59  101.59
   5   3   1 2153.38  101.39
   5   3   1 2177.68  102.79
  -8   5   1 2260.57  117.69
  -2   7  -1  384.16   37.30
   7  -5  -1  337.87   17.80
  -2   7  -1  334.07   17.20
  -5  -2  -1  290.57   29.80
   5   2   1  350.56   18.40
   5   2   1  338.17   17.30
  -7   5   1  387.36   29.30
  -1   6  -1   31.20    2.70
   6  -5  -1   35.50    3.10
  -5  -1  -1   31.60    9.10
   1  -6   1   34.50   12.00
   5   1   1   44.70    3.70
  -6   5   1   43.30    9.10
   5   1   1   33.60    2.70
  -5   0  -1 2623.14  146.69
   0   5  -1 2936.21  132.79
   0   5  -1 2652.33  136.59
   5  -5  -1 2939.31  133.29
   5   0   1 2925.91  133.49
  -5   5   1 2993.40  144.99
   5   0   1 2922.91  132.59
   0  -5   1 2811.42  149.09
  -5   1  -1  140.99   16.50
   1   4  -1  171.08   10.30
   1   4  -1  162.98    8.90
   4  -5  -1  163.78    9.20
  -5   1  -1  172.08    8.80
  -4   5   1  180.78   17.20
  -1  -4   1  178.08   17.60
   5  -1   1  173.88    9.50
  -4   5   1  172.58    8.50
  -5   2  -1   29.70    7.00
  -5   2  -1   47.90    3.10
   3  -5  -1   43.80    3.20
   2   3  -1   43.70    3.00
   2   3  -1   45.50    3.70
  -3   5   1   44.40    9.10
  -3   5   1   41.40    2.80
   5  -2   1   47.20    3.40
  -2  -3   1   35.50    7.00
  -5   3  -1 4535.65  203.48
   3   2  -1 4402.96  203.18
   3   2  -1 4545.35  203.88
   2  -5  -1 4267.07  203.28
  -3  -2   1 4399.76  211.28
  -2   5   1 3978.90  218.68
   5  -3   1 4480.15  203.68
  -2   5   1 4449.96  203.08
  -5   4  -1  436.96   21.80
  -5   4  -1  368.66   30.50
   1  -5  -1  450.85   21.70
   4   1  -1  475.55   21.60
   4   1  -1  432.86   22.00
   5  -4   1  445.86   21.90
  -1   5   1  431.86   21.40
  -1   5   1  466.55   36.80
  -4  -1   1  430.36   27.90
  -5   5  -1   93.39    6.10
  -5   5  -1   86.49   14.30
   5   0  -1   97.69    6.20
   0  -5  -1  105.19    6.20
   0  -5  -1  101.69   15.50
  -5   0   1  107.09   11.20
   0   5   1   91.19    5.70
  -5   0   1  101.69    5.90
   5  -5   1   95.79    6.00
  -1  -5  -1 2697.33  152.28
   6  -1  -1 2954.50  134.49
  -5   6  -1 2947.91  155.38
  -5   6  -1 2900.81  134.49
  -6   1   1 2812.52  143.09
   1   5   1 2886.01  133.99
   5  -6   1 2907.31  134.19
   7  -2  -1   87.99    6.00
  -5   7  -1  105.09   19.10
  -2  -5  -1   63.19   14.30
  -7   2   1   88.59   12.10
   2   5   1   86.79    5.60
   5  -7   1   85.99    6.00
  -3  -5  -1   15.70    9.80
  -5   8  -1   16.50   11.80
   8  -3  -1   16.80    2.60
   5  -8   1   13.90    2.60
  -8   3   1   19.30    7.50
   3   5   1   20.70    2.50
   8  -6  -1   10.70    2.10
  -2   8  -1    9.40    1.70
  -6  -2  -1    4.80    6.30
   2  -8   1    7.90    8.10
   6   2   1    7.80    2.30
  -8   6   1    5.70    5.90
   7  -6  -1 2435.96  115.49
  -6  -1  -1 2307.37  134.59
  -1   7  -1 2433.06  114.79
   6   1   1 2567.04  116.19
  -7   6   1 2583.64  131.79
   1  -7   1 2388.16  136.79
   6  -6  -1  232.58   13.10
  -6   0  -1  219.88   24.20
   0   6  -1  236.88   12.60
  -6   6   1  259.87   24.20
   0  -6   1  284.77   27.10
   6   0   1  241.68   13.50
   5  -6  -1   32.40    3.10
  -6   1  -1   44.80   10.40
   1   5  -1   33.40    2.80
   1   5  -1   40.20    4.70
  -5   6   1   33.10    8.70
   6  -1   1   42.70    3.60
  -1  -5   1   39.40    9.30
  -6   2  -1 3991.40  179.28
  -6   2  -1 3530.75  193.58
   2   4  -1 3793.32  179.28
   2   4  -1 4013.30  180.88
   4  -6  -1 3841.12  179.68
  -2  -4   1 3888.71  192.18
   6  -2   1 3971.70  180.08
  -4   6   1 3779.42  195.88
  -4   6   1 3923.41  178.88
   3  -6  -1  252.57   13.40
  -6   3  -1  247.88   13.20
  -6   3  -1  225.28   22.30
   3   3  -1  268.17   14.10
   3   3  -1  256.67   13.10
  -3   6   1  255.87   12.90
  -3   6   1  274.87   27.00
   6  -3   1  262.57   13.70
  -3  -3   1  251.97   20.70
   2  -6  -1   19.70    2.10
  -6   4  -1   20.20    2.20
  -6   4  -1   12.70    5.90
   4   2  -1   17.90    2.00
   4   2  -1   20.00    2.40
  -4  -2   1   19.60    5.30
  -2   6   1   19.10    1.90
   6  -4   1   19.40    2.30
  -2   6   1   20.70    9.60
   1  -6  -1 3018.70  161.38
  -6   5  -1 2950.80  139.59
  -6   5  -1 2788.92  156.08
   1  -6  -1 3108.19  139.39
   5   1  -1 2907.11  139.79
   6  -5   1 2992.70  139.39
  -5  -1   1 2977.90  148.79
  -1   6   1 2963.90  138.99
  -5  -1   1 3143.69  139.29
   6   0  -1  266.07   14.70
  -6   6  -1  253.67   28.00
  -6   6  -1  265.87   14.60
   0  -6  -1  274.67   28.80
   0   6   1  271.87   14.10
   6  -6   1  263.57   14.60
  -6   0   1  281.77   22.40
   6  -6   1  282.27   14.40
  -1  -6  -1   21.00    9.60
   7  -1  -1   20.40    2.80
  -6   7  -1   33.00   13.00
  -7   1   1   22.70    6.90
   6  -7   1   22.90    2.80
   1   6   1   24.10    2.70
  -2  -6  -1 1792.72  120.79
   8  -2  -1 2125.59  100.59
   2   6   1 2167.08   99.99
  -8   2   1 2289.57  115.09
   6  -8   1 2179.58  100.79
  -7  -1  -1  122.29   20.20
   8  -7  -1  113.19    7.80
  -1   8  -1  103.19    6.90
  -8   7   1  124.49   19.10
   7   1   1  120.29    8.50
   1  -8   1  103.19   18.40
  -7   0  -1   26.30   11.40
   0   7  -1   25.20    2.70
   7  -7  -1   30.10    3.30
   7   0   1   28.20    3.70
   0  -7   1   32.50   11.60
  -7   7   1   23.00    9.40
   6  -7  -1 2334.87  111.99
  -7   1  -1 2316.47  130.89
   1   6  -1 2277.67  111.29
  -1  -6   1 2543.55  130.69
   7  -1   1 2437.16  112.49
  -6   7   1 2391.26  130.39
   2   5  -1  309.07   16.50
   5  -7  -1  319.17   17.00
   2   5  -1  321.37   18.60
  -7   2  -1  303.77   29.70
   7  -2   1  330.67   17.40
  -5   7   1  339.57   31.90
  -2  -5   1  349.17   28.80
   3   4  -1   53.99    4.00
   3   4  -1   57.69    5.10
   4  -7  -1   55.69    4.30
  -7   3  -1   44.60   11.00
  -7   3  -1   56.29    4.10
  -4   7   1   66.09   14.60
  -4   7   1   58.89    3.80
  -3  -4   1   63.19   10.50
   7  -3   1   55.59    4.60
   4   3  -1 2375.96  106.49
  -7   4  -1 2254.67  105.39
   4   3  -1 2301.97  105.29
  -7   4  -1 1932.21  119.59
   3  -7  -1 2256.67  105.49
  -3   7   1 2162.18  129.59
   7  -4   1 2265.07  105.69
  -3   7   1 2314.67  104.89
  -4  -3   1 2284.07  117.49
   5   2  -1   89.39    5.90
   2  -7  -1   89.39    6.10
  -7   5  -1   88.49    6.10
   5   2  -1  105.49    6.90
  -7   5  -1   83.79   14.90
  -2   7   1   86.09    5.60
  -5  -2   1   93.59   12.20
   7  -5   1   90.99    6.20
  -2   7   1  104.19   18.90
  -7   6  -1   14.10    9.00
   6   1  -1   23.40    3.00
   1  -7  -1   25.10   10.80
  -6  -1   1   25.40    2.80
   7  -6   1   20.80    2.60
  -6  -1   1   26.70    7.00
   7  -6   1   19.10    2.60
  -1   7   1   22.00    2.50
   7   0  -1 2228.78  104.79
   0  -7  -1 2184.68  127.59
  -7   7  -1 2245.78  131.79
  -7   0   1 2221.58  116.49
   0   7   1 2225.18  103.79
   7  -7   1 2138.09  104.29
  -1  -7  -1  175.28   25.50
  -7   8  -1  215.88   30.70
   8  -1  -1  195.48   11.80
  -8   1   1  189.08   20.40
   1   7   1  181.88   10.80
   7  -8   1  181.78   11.50
  -8   1  -1   92.39   17.90
   7  -8  -1  106.49    7.70
   1   7  -1  112.99    7.20
   8  -1   1  119.79    8.40
  -1  -7   1  111.89   18.20
  -7   8   1  124.89   20.50
  -8   2  -1    5.60    6.30
   6  -8  -1    5.10    1.70
   2   6  -1    6.50    1.60
   8  -2   1    6.10    2.00
  -6   8   1   19.80   10.60
  -2  -6   1   23.10    9.40
   3   5  -1 2068.09   99.39
   5  -8  -1 2061.09   97.59
  -8   3  -1 1996.10  118.39
   3   5  -1 2011.60   96.99
   8  -3   1 2121.99   97.99
  -3  -5   1 2015.40  111.49
  -5   8   1 2172.68  124.89
   4   4  -1  202.38   12.50
   4   4  -1  191.18   11.00
  -8   4  -1  211.78   24.50
   4  -8  -1  187.98   11.40
   8  -4   1  190.38   11.10
  -4   8   1  178.38   27.30
   8  -4   1  208.48   11.80
  -4  -4   1  194.28   20.60
   5   3  -1   14.70    2.90
  -8   5  -1   15.60    8.60
   3  -8  -1   21.70    2.90
   5   3  -1   21.70    2.60
   8  -5   1   18.30    2.50
  -3   8   1   23.10   12.80
  -5  -3   1   15.00    6.90
  -3   8   1   17.60    2.20
   8  -5   1   18.50    2.70
   6   2  -1 2195.88  103.79
   2  -8  -1 2113.99  127.69
  -8   6  -1 2131.99  127.19
  -6  -2   1 2294.77  116.49
   8  -6   1 2092.29  102.79
  -6  -2   1 2214.78  102.79
  -2   8   1 2203.58  102.19
   8  -6   1 2137.39  102.69
  -8   7  -1  173.28   27.00
   1  -8  -1  166.68   25.10
   7   1  -1  187.88   11.90
  -7  -1   1  200.98   20.70
   8  -7   1  179.98   11.30
  -1   8   1  189.38   10.70
   0   0  -2  883.31   44.00
   0   0  -2  970.40   43.20
   0   0  -2  900.51   44.70
   0   0   2  889.91   43.90
   1  -1  -2 6495.75  275.97
  -1   0  -2 5253.77  276.57
   0   1  -2 6292.97  276.37
   1  -1  -2 5810.92  276.87
   0   1  -2 5637.44  276.87
  -1   0  -2 6637.84  277.57
   1   0   2 6145.58  275.77
   0  -1   2 6437.06  275.37
   1   0   2 6025.40  275.27
  -1   1   2 5719.13  276.57
  -1   1   2 5002.70  275.77
   0  -1  -2  593.84   32.20
  -1   1  -2  733.33   32.20
  -1   1  -2  734.13   31.90
   1   0  -2  628.54   31.10
   0  -1  -2  655.63   34.00
   1  -1   2  610.84   31.40
   0   1   2  642.14   31.10
  -1   0   2  616.34   31.50
  -1   0   2  588.04   30.70
   0   1   2  653.73   31.10
   2  -1  -2   14.40    1.40
  -1   2  -2   14.20    1.60
  -1  -1  -2   19.90    3.90
  -1   2  -2   22.90    3.80
   2  -1  -2   13.20    1.70
  -1   2  -2   16.80    2.80
   1   1   2   18.30    1.50
   1  -2   2   21.70    1.60
   1   1   2   16.30    1.50
  -2   1   2   19.00    2.50
  -2   1   2   19.30    2.70
  -2  -1  -2 5519.65  272.17
   3  -2  -2 5859.41  270.57
  -1   3  -2 6165.48  271.47
   3  -2  -2 5799.62  271.07
  -2  -1  -2 6301.37  277.57
   1  -3   2 6033.10  270.77
   2   1   2 5915.31  270.47
   2   1   2 5993.10  270.17
  -3   2   2 5121.89  271.67
  -3   2   2 5783.62  273.97
   0   2  -2 2168.78  106.69
   2  -2  -2 2268.57  104.89
   2  -2  -2 2358.16  104.39
  -2   0  -2 2194.78  109.19
  -2   0  -2 2472.45  105.99
   0   2  -2 2306.67  104.79
   2   0   2 2259.37  104.89
  -2   2   2 2017.30  105.39
   0  -2   2 2223.08  104.49
   0  -2   2 2256.47  107.29
   2   0   2 2247.08  104.29
  -2   2   2 2209.28  107.89
   1   1  -2   15.30    2.20
   1  -2  -2   17.60    1.90
  -2   1  -2   18.90    3.40
  -2   1  -2   16.70    1.90
   1   1  -2   18.70    2.00
  -1   2   2   17.10    3.60
  -1  -1   2   14.80    1.90
   2  -1   2   16.60    2.00
  -1  -1   2   14.90    1.60
  -1   2   2   20.50    1.90
   2  -1   2   20.60    1.70
   2   0  -2 6531.65  292.77
  -2   2  -2 6573.04  293.17
   0  -2  -2 6381.86  291.57
   0  -2  -2 6756.32  297.37
   2  -2   2 5827.52  291.97
   2  -2   2 5815.82  290.67
   0   2   2 6536.25  290.17
   0   2   2 6425.36  291.27
  -2   0   2 6274.07  290.87
  -2   0   2 5741.83  291.57
  -2   3  -2  778.82   37.00
  -1  -2  -2  701.03   38.90
   3  -1  -2  817.02   37.00
  -1  -2  -2  837.62   44.00
   3  -1  -2  769.42   36.70
  -2   3  -2  704.63   39.20
  -3   1   2  754.92   39.40
  -3   1   2  776.92   38.30
   2  -3   2  813.82   36.50
   1   2   2  769.02   36.60
   1   2   2  782.42   36.40
   4  -2  -2  195.38   10.20
  -2  -2  -2  200.38   16.90
   4  -2  -2  198.38   10.10
  -2  -2  -2  159.38   11.60
  -2   4  -2  193.28   10.30
  -4   2   2  192.98   13.50
   2   2   2  200.18   10.00
   2   2   2  194.88   10.10
   2  -4   2  196.78    9.80
  -4   2   2  206.08   12.00
  -2   5  -2 3094.49  144.19
  -2   5  -2 3191.28  144.79
   5  -3  -2 3185.38  144.49
  -3  -2  -2 3137.59  155.88
   5  -3  -2 3131.99  144.79
  -5   3   2 2951.70  150.38
   3   2   2 3118.59  144.79
   3   2   2 3058.99  144.29
  -1   4  -2  546.85   26.50
  -3  -1  -2  604.04   27.30
  -3  -1  -2  560.84   34.90
   4  -3  -2  541.25   26.60
  -1   4  -2  547.65   26.20
  -1   4  -2  548.25   34.90
  -1   4  -2  594.24   30.30
   4  -3  -2  550.64   26.10
  -4   3   2  475.55   27.10
  -4   3   2  543.25   31.60
   3   1   2  544.25   26.10
   3   1   2  534.05   26.70
   0   3  -2   31.70    2.30
   3  -3  -2   32.80    2.10
  -3   0  -2   38.40    3.00
  -3   0  -2   39.00    6.10
   0   3  -2   31.40    2.30
   0   3  -2   27.20    3.80
   3  -3  -2   32.50    2.60
  -3   3   2   33.00    3.00
   3   0   2   32.50    2.10
   0  -3   2   41.10    5.70
   3   0   2   35.80    2.80
  -3   3   2   36.30    5.30
   2  -3  -2 6010.20  269.57
   1   2  -2 6201.28  269.27
  -3   1  -2 6142.79  269.77
  -3   1  -2 5486.95  275.17
   1   2  -2 5685.13  270.37
   3  -1   2 5752.52  269.47
  -2   3   2 5532.25  275.07
  -2   3   2 5933.41  269.57
  -1  -2   2 5513.95  271.87
  -1  -2   2 6027.90  269.27
   3  -1   2 5775.82  269.87
  -3   2  -2  872.31   44.00
   1  -3  -2  798.52   37.70
  -3   2  -2  805.62   37.70
   2   1  -2  795.32   37.80
  -2  -1   2  804.82   37.40
   3  -2   2  787.32   36.70
  -2  -1   2  720.13   39.20
   3  -2   2  793.42   38.20
  -1   3   2  776.42   37.30
  -1   3   2  703.53   44.20
  -3   3  -2   11.00    1.40
   3   0  -2    7.30    1.20
   0  -3  -2    3.20    3.00
   3   0  -2    9.80    1.60
   0  -3  -2   11.10    1.80
  -3   3  -2    8.80    3.80
   0   3   2    7.80    1.10
   3  -3   2   11.00    2.10
   0   3   2    7.30    0.70
  -3   0   2   11.40    2.50
   3  -3   2   12.80    1.50
  -3   0   2    7.10    1.30
  -1  -3  -2 3815.82  196.68
  -3   4  -2 4296.37  194.98
  -1  -3  -2 4479.85  205.48
   4  -1  -2 4424.06  194.78
   4  -1  -2 4192.48  194.68
  -4   1   2 3989.50  198.38
   3  -4   2 4441.96  194.08
  -4   1   2 4353.56  196.08
   1   3   2 4283.67  194.58
   1   3   2 3795.42  194.08
   3  -4   2 4124.69  196.88
  -3   5  -2  357.66   17.80
   5  -2  -2  341.57   17.40
   5  -2  -2  337.27   17.40
  -2  -3  -2  346.07   27.00
   3  -5   2  354.06   16.90
  -5   2   2  383.76   20.10
   2   3   2  352.36   17.30
   2   3   2  317.97   17.20
  -5   2   2  343.67   22.10
   3  -5   2  350.96   20.20
  -3  -3  -2   13.10    6.10
  -3   6  -2    9.30    6.60
   6  -3  -2    7.80    1.50
   6  -3  -2    7.70    1.50
  -3   6  -2    5.30    1.40
   3  -6   2    7.70    2.90
  -6   3   2    5.90    3.10
   3   3   2    5.90    1.30
   3   3   2    7.70    1.60
   7  -4  -2 2874.31  132.29
   7  -4  -2 2818.52  131.89
  -3   7  -2 2722.73  132.19
  -4  -3  -2 2945.81  150.08
  -3   7  -2 3110.49  154.98
   4   3   2 2764.62  131.79
  -7   4   2 2751.62  141.69
   4   3   2 2680.93  132.49
  -2   6  -2  751.72   36.20
   6  -4  -2  785.62   36.00
  -2   6  -2  637.14   40.00
  -2   6  -2  747.73   35.70
  -4  -2  -2  797.22   49.80
  -2   6  -2  773.62   50.59
   6  -4  -2  740.93   36.40
   4   2   2  712.03   35.70
  -6   4   2  764.42   44.30
   4   2   2  761.22   36.70
   5  -4  -2    6.60    1.60
   5  -4  -2    8.10    1.50
  -1   5  -2    7.70    1.30
  -1   5  -2    9.50    1.30
  -1   5  -2    2.30    2.20
  -4  -1  -2    7.90    4.50
  -5   4   2    7.30    1.40
   4   1   2    8.50    1.70
  -5   4   2   10.10    4.10
   1  -5   2   13.50    6.00
   4   1   2    8.00    1.10
   4  -4  -2 4231.58  195.98
   0   4  -2 3961.40  198.98
   0   4  -2 4219.68  195.38
  -4   0  -2 4079.89  205.48
   0   4  -2 4389.26  195.28
  -4   0  -2 4563.44  195.88
   4   0   2 4212.48  194.98
   4   0   2 4066.39  195.98
  -4   4   2 4146.08  195.68
  -4   4   2 4301.87  203.38
   0  -4   2 4215.38  203.98
  -4   1  -2  521.65   33.70
   3  -4  -2  530.05   26.50
   1   3  -2  527.55   26.10
   1   3  -2  555.44   27.90
  -4   1  -2  546.35   26.50
   1   3  -2  555.14   25.80
  -3   4   2  546.75   26.40
  -1  -3   2  545.05   31.00
   4  -1   2  530.85   25.50
   4  -1   2  527.45   26.80
  -3   4   2  603.94   33.70
   2   2  -2  197.88    9.90
  -4   2  -2  197.48   10.30
   2   2  -2  196.78   10.90
   2  -4  -2  191.48   10.30
  -4   2  -2  189.68   15.70
  -2   4   2  197.58   10.10
  -2  -2   2  184.78   12.90
   4  -2   2  192.48   10.70
  -2   4   2  176.38   16.40
  -2  -2   2  190.68   10.10
  -4   3  -2 4956.00  210.78
   1  -4  -2 4351.26  200.58
   3   1  -2 4308.57  200.58
  -4   3  -2 4319.27  200.48
  -1   4   2 4240.98  211.48
  -1   4   2 4201.78  200.08
  -3  -1   2 4478.15  200.38
   4  -3   2 4155.68  200.98
  -3  -1   2 3894.91  203.38
   0  -4  -2 1212.28   66.79
   4   0  -2 1156.88   56.09
   0  -4  -2 1209.38   56.79
  -4   4  -2 1196.18   56.29
   4  -4   2 1181.68   57.09
   0   4   2 1162.48   55.79
  -4   0   2 1233.08   56.39
  -4   0   2 1119.39   59.89
  -1  -4  -2   20.50    3.40
  -4   5  -2   24.40    8.00
  -1  -4  -2   14.70    6.30
   5  -1  -2   14.70    1.90
  -4   5  -2   14.90    2.00
   1   4   2   12.80    1.70
  -5   1   2   22.80    4.40
  -5   1   2   16.00    2.60
   4  -5   2   11.50    2.40
  -4   6  -2 2991.10  142.59
   6  -2  -2 3071.39  142.29
  -2  -4  -2 3281.17  158.18
   2   4   2 3010.20  141.99
   4  -6   2 3084.29  143.99
  -6   2   2 2876.21  148.79
  -4   7  -2  420.36   22.40
   7  -3  -2  428.26   22.10
  -3  -4  -2  454.15   35.60
  -7   3   2  457.95   29.70
   3   4   2  428.26   21.90
  -4   8  -2   13.80    9.50
  -4  -4  -2   11.60    7.90
   8  -4  -2   16.60    2.50
   4  -8   2   16.40    2.70
   4   4   2   16.50    2.40
  -8   4   2   20.20    7.10
   8  -5  -2  299.87   16.80
  -5  -3  -2  327.27   31.10
  -3   8  -2  353.26   33.20
   5   3   2  288.07   16.30
  -8   5   2  333.77   27.30
  -2   7  -2   21.50    2.30
   7  -5  -2   24.40    2.80
  -5  -2  -2   25.20    9.40
   5   2   2   20.80    2.30
  -7   5   2   19.00    6.90
   2  -7   2   23.80    9.30
   5   2   2   21.40    3.20
  -1   6  -2 3245.48  147.19
  -5  -1  -2 3029.60  156.78
   6  -5  -2 2984.40  141.99
  -1   6  -2 2956.90  141.29
   1  -6   2 3072.29  156.28
  -6   5   2 3023.30  152.18
   5   1   2 2962.30  142.19
   0   5  -2  511.95   31.00
  -5   0  -2  571.74   38.40
   0   5  -2  538.35   26.60
   5  -5  -2  557.24   27.30
  -5   5   2  515.45   26.40
   0  -5   2  574.14   36.00
  -5   5   2  582.94   36.40
   5   0   2  539.85   27.40
  -5   1  -2    6.40    1.30
   4  -5  -2   10.80    1.70
   1   4  -2   14.20    3.10
   1   4  -2    6.40    1.30
  -5   1  -2    3.10    3.20
   5  -1   2   10.70    1.80
  -1  -4   2    9.00    3.80
  -4   5   2    6.20    1.20
  -4   5   2    7.60    4.30
   2   3  -2 3087.09  142.09
   2   3  -2 3194.58  143.69
  -5   2  -2 3052.39  152.68
   3  -5  -2 3091.29  142.49
  -5   2  -2 3080.79  142.29
  -3   5   2 3096.99  141.99
  -2  -3   2 2864.81  146.99
   5  -2   2 3025.70  142.79
  -3   5   2 2993.00  153.48
   2  -5  -2  344.17   17.60
  -5   3  -2  365.06   26.40
   3   2  -2  342.17   18.10
  -5   3  -2  342.57   17.60
  -3  -2   2  338.87   21.30
   5  -3   2  349.37   18.00
  -2   5   2  304.57   26.80
  -2   5   2  355.56   17.20
  -3  -2   2  337.47   17.30
   4   1  -2   19.10    2.20
   1  -5  -2   13.40    2.00
  -5   4  -2   20.60    7.30
  -5   4  -2   16.20    2.00
  -1   5   2    8.80    5.10
  -4  -1   2    8.80    3.10
  -1   5   2   13.10    1.70
  -4  -1   2   11.40    1.80
   5  -4   2   19.80    2.40
   0  -5  -2 3933.41  189.78
  -5   5  -2 3707.33  175.78
   0  -5  -2 3802.32  176.38
   5   0  -2 3786.92  175.78
  -5   0   2 3595.64  181.08
   0   5   2 3726.53  175.28
  -5   0   2 3927.01  175.98
   5  -5   2 3703.13  176.28
  -5   6  -2  436.36   23.80
  -1  -5  -2  466.65   35.40
   6  -1  -2  471.25   23.80
  -6   1   2  518.55   25.40
   1   5   2  459.35   23.30
   5  -6   2  481.15   24.50
  -6   1   2  456.45   29.30
  -5   7  -2    3.50    1.50
  -5   7  -2   17.50    9.40
  -2  -5  -2    7.80    6.10
   7  -2  -2   12.40    2.20
   5  -7   2   10.00    2.90
   2   5   2    9.40    1.90
  -7   2   2    6.00    3.70
  -3  -5  -2 2027.10  107.49
   8  -3  -2 1833.32   87.99
   3   5   2 1813.62   87.69
   5  -8   2 1846.22   88.39
  -8   3   2 1772.42   97.69
   8  -6  -2 1809.52   87.49
  -6  -2  -2 1948.21  108.39
  -2   8  -2 1743.13   86.39
  -8   6   2 1896.11  101.79
   6   2   2 1820.82   88.29
  -1   7  -2  264.57   14.50
   7  -6  -2  278.17   15.40
  -6  -1  -2  279.17   27.90
   1  -7   2  306.57   27.10
   6   1   2  274.97   15.80
  -7   6   2  276.17   24.90
   0   6  -2   34.20    3.10
   6  -6  -2   31.70    3.40
  -6   0  -2   36.40    9.70
   0   6  -2   32.70    6.50
  -6   6   2   44.10    9.40
   0  -6   2   40.10    8.80
   6   0   2   30.00    3.50
   1   5  -2 2920.51  133.79
  -6   1  -2 2791.52  148.39
   1   5  -2 2875.31  137.69
   5  -6  -2 2905.91  134.49
  -1  -5   2 2870.21  143.59
   6  -1   2 2858.91  134.69
  -5   6   2 2833.62  146.59
   2   4  -2  747.43   37.40
  -6   2  -2  706.03   46.80
   2   4  -2  723.03   35.30
   4  -6  -2  750.02   35.90
  -6   2  -2  728.83   35.40
  -4   6   2  748.23   48.20
   6  -2   2  742.23   36.20
  -2  -4   2  691.33   41.90
  -4   6   2  728.33   35.00
   3   3  -2    9.10    1.50
   3   3  -2    5.90    1.80
   3  -6  -2    7.60    1.60
  -6   3  -2    9.70    5.30
  -6   3  -2    8.60    1.60
  -3  -3   2    7.50    3.40
  -3   6   2    5.90    1.30
   6  -3   2    8.50    1.90
  -3   6   2    3.80    4.70
   4   2  -2 2988.50  140.69
  -6   4  -2 3160.38  153.38
   2  -6  -2 3063.69  140.39
  -6   4  -2 2976.70  140.19
  -2   6   2 3038.80  139.69
  -4  -2   2 3060.49  139.99
  -4  -2   2 2695.63  145.29
   6  -4   2 2867.41  140.49
  -2   6   2 3157.18  157.78
   1  -6  -2  462.55   36.60
  -6   5  -2  460.85   23.70
   1  -6  -2  476.85   24.00
   5   1  -2  461.65   23.90
  -1   6   2  464.55   23.20
  -5  -1   2  462.25   23.50
  -5  -1   2  454.35   28.70
   6  -5   2  466.05   24.00
   0  -6  -2   36.00    9.60
   6   0  -2   32.80    3.40
  -6   6  -2   29.20    3.20
   0   6   2   32.80    3.10
  -6   0   2   29.70    3.60
  -6   0   2   26.00    5.80
   6  -6   2   30.30    3.50
  -1  -6  -2 1986.90  105.39
  -6   7  -2 1846.42   87.99
   7  -1  -2 1821.52   87.69
  -7   1   2 1737.03   95.19
   6  -7   2 1877.71   88.39
   1   6   2 1820.72   87.09
  -2  -6  -2  442.66   36.90
   8  -2  -2  403.56   21.60
   6  -8   2  401.26   21.90
  -8   2   2  392.66   29.40
   2   6   2  406.16   21.30
   7  -7  -2 1496.05   71.09
   0   7  -2 1482.75   70.19
  -7   0  -2 1562.24   90.99
   0  -7   2 1346.17   90.99
   7   0   2 1468.65   71.59
  -7   7   2 1488.85   86.29
  -7   1  -2  305.37   28.40
   6  -7  -2  278.37   15.30
   1   6  -2  267.37   14.50
   1   6  -2  265.27   19.30
  -6   7   2  266.07   26.00
   7  -1   2  273.67   15.60
  -1  -6   2  250.77   22.80
   2   5  -2   18.80    2.40
   5  -7  -2   17.50    2.60
  -7   2  -2   17.30    8.10
   2   5  -2   22.80    4.10
   7  -2   2   18.60    2.90
  -2  -5   2   30.10    7.00
  -5   7   2   21.60    9.10
   4  -7  -2 2751.52  127.19
  -7   3  -2 2781.72  142.69
   3   4  -2 2816.92  128.79
   3   4  -2 2641.74  126.49
  -7   3  -2 2685.53  126.69
  -3  -4   2 2501.25  134.29
  -4   7   2 2694.03  126.09
   7  -3   2 2689.53  127.49
  -4   7   2 2792.52  146.39
   4   3  -2  449.56   23.30
   3  -7  -2  422.26   22.30
  -7   4  -2  474.35   35.10
  -7   4  -2  426.76   22.20
  -4  -3   2  393.16   27.60
   7  -4   2  448.46   22.70
  -4  -3   2  420.96   21.90
  -3   7   2  418.76   36.90
  -3   7   2  426.16   21.60
   5   2  -2   14.20    2.60
   2  -7  -2   14.20    2.50
  -7   5  -2    8.40    2.00
  -7   5  -2   16.70    8.10
   7  -5   2    4.60    1.60
  -2   7   2    5.70    1.50
  -5  -2   2    5.20    1.50
  -2   7   2    3.10    6.00
  -7   6  -2 1802.92   88.79
   1  -7  -2 1964.30  107.39
   6   1  -2 1858.11   89.19
  -6  -1   2 1726.03   95.79
  -6  -1   2 1986.30   89.09
   7  -6   2 1848.92   88.89
  -1   7   2 1895.51   88.19
   0  -7  -2  198.88   23.70
  -7   7  -2  169.88   11.00
   7   0  -2  175.38   11.20
   7  -7   2  187.28   11.60
  -7   0   2  178.28   17.00
   0   7   2  183.08   10.50
  -8   2  -2 1801.02  102.39
   6  -8  -2 1707.33   83.69
   2   6  -2 1723.43   87.79
   2   6  -2 1729.83   82.89
  -6   8   2 1814.82  104.59
   8  -2   2 1733.53   84.19
   5  -8  -2  304.27   17.00
   3   5  -2  315.67   19.10
   3   5  -2  295.37   16.30
  -8   3  -2  311.27   30.30
  -3  -5   2  275.07   23.60
   8  -3   2  314.97   17.50
  -5   8   2  340.47   33.60
   4  -8  -2   16.80    2.80
   4   4  -2   24.10    3.90
  -8   4  -2   14.70    7.60
  -8   4  -2   15.10    2.50
  -4   8   2   13.50    8.60
   8  -4   2   14.40    2.90
  -4  -4   2   13.70    2.30
  -4   8   2   16.30    2.30
  -4  -4   2   17.60    6.20
   5   3  -2 1882.21   90.59
  -8   5  -2 1778.72   89.29
   3  -8  -2 1921.91   89.89
  -8   5  -2 2040.20  108.69
  -5  -3   2 1811.52   89.09
  -5  -3   2 1842.92   97.89
  -3   8   2 1823.32   88.49
   8  -5   2 1836.82   89.69
  -3   8   2 2045.90  113.49
  -8   6  -2  390.66   21.30
   2  -8  -2  388.86   36.70
   6   2  -2  420.36   22.30
  -6  -2   2  396.96   21.30
  -6  -2   2  388.06   28.20
   8  -6   2  388.96   21.40
  -2   8   2  407.76   20.70
   0   0  -3 4008.80  189.68
   0   0  -3 4186.58  190.38
   0   0   3 4003.20  189.48
   0   1  -3  999.90   53.09
  -1   0  -3 1182.58   53.79
   0   1  -3 1118.39   53.29
   1  -1  -3 1070.09   53.69
   1  -1  -3 1122.39   52.49
  -1   0  -3 1206.48   52.79
   1   0   3 1052.99   52.89
  -1   1   3 1155.88   52.79
   0  -1   3 1085.79   52.49
  -1   1   3 1055.09   53.39
   1   0   3  909.71   51.89
   1   0  -3   57.29    5.10
   0  -1  -3   68.29    5.70
  -1   1  -3   68.89    5.40
   1   0  -3   65.59    5.40
  -1   1  -3   57.29    5.50
   0  -1  -3   69.09    6.00
  -1   0   3   63.89    5.20
   0   1   3   52.49    4.70
   0   1   3   58.59    4.80
   1  -1   3   69.29    4.80
   2  -1  -3 5285.87  245.58
  -1  -1  -3 5721.03  247.18
  -1  -1  -3 5519.75  248.38
  -1   2  -3 5363.86  246.98
  -1   2  -3 5027.30  245.48
   2  -1  -3 5033.20  246.48
  -1   2  -3 5592.94  246.68
  -2   1   3 5396.96  246.38
   1   1   3 5154.38  245.38
  -2   1   3 5176.88  246.38
   1   1   3 5042.50  245.28
   1  -2   3 5158.28  245.48
   3  -2  -3 1062.29   49.00
  -1   3  -3 1024.60   49.60
   3  -2  -3 1038.90   49.80
  -2  -1  -3 1049.79   53.49
  -1   3  -3 1014.80   51.29
  -2  -1  -3  956.70   51.09
   1  -3   3  999.60   48.90
  -3   2   3 1058.19   52.19
   2   1   3 1008.60   49.20
   2   1   3 1021.90   48.90
  -3   2   3 1089.59   50.59
   2  -2  -3  174.18   10.40
  -2   0  -3  140.29   11.00
   0   2  -3  191.98   10.80
   0   2  -3  161.38   11.50
  -2   0  -3  173.78   11.80
   2  -2  -3  182.18   10.20
   2   0   3  190.18    9.80
   0  -2   3  185.38    9.80
  -2   2   3  179.48   12.20
   2   0   3  176.78   10.30
  -2   2   3  155.68   10.50
   1   1  -3 5034.10  226.78
   1   1  -3 4808.32  226.38
  -2   1  -3 5328.17  227.48
   1  -2  -3 4161.38  224.58
   1  -2  -3 5162.08  226.88
  -1   2   3 4695.13  229.28
  -1   2   3 4844.12  226.28
   2  -1   3 4823.42  227.08
   0  -2  -3 2587.24  126.59
  -2   2  -3 2858.01  125.49
   0  -2  -3 2814.82  128.69
   2   0  -3 2567.84  125.79
   2   0  -3 2717.73  124.79
   2  -2   3 2814.72  124.49
  -2   0   3 2488.75  124.39
   0   2   3 2769.52  124.69
  -2   0   3 2622.54  125.39
   2  -2   3 2315.17  126.39
   0   2   3 2701.73  123.79
  -1  -2  -3    9.20    2.60
  -2   3  -3    7.30    1.80
   3  -1  -3    9.80    1.60
   3  -1  -3   10.20    2.10
  -2   3  -3    9.10    3.10
  -2   3  -3    8.60    2.60
  -1  -2  -3    7.80    3.20
   1   2   3    8.20    1.50
   1   2   3   10.50    1.40
   2  -3   3    7.80    1.60
  -3   1   3    6.80    2.10
  -2  -2  -3 3144.69  139.99
  -2   4  -3 2888.91  140.29
   4  -2  -3 2902.11  137.29
  -2   4  -3 2817.42  137.69
   4  -2  -3 2973.90  138.09
  -2  -2  -3 3082.09  144.59
   2  -4   3 2925.31  137.19
   2   2   3 2772.72  137.19
   2   2   3 2811.92  137.19
  -4   2   3 2961.20  141.29
  -4   2   3 3169.48  139.39
  -2   5  -3  714.53   35.30
  -2   5  -3  797.72   39.00
  -3  -2  -3  641.34   37.00
   5  -3  -3  716.23   34.80
   5  -3  -3  712.63   35.50
  -3  -2  -3  784.22   43.40
  -5   3   3  700.63   36.70
   3   2   3  729.63   35.30
   3   2   3  681.83   34.70
  -5   3   3  745.93   40.90
   2  -5   3  733.93   34.80
  -3  -1  -3   46.80    6.90
   4  -3  -3   36.20    3.40
   4  -3  -3   39.50    3.00
  -3  -1  -3   38.40    4.60
  -1   4  -3   40.40    4.90
  -1   4  -3   38.60    3.30
  -4   3   3   43.90    4.40
   1  -4   3   36.80    3.00
   3   1   3   37.20    2.90
  -4   3   3   36.00    5.50
   3   1   3   43.20    3.50
   3  -3  -3 3594.74  168.98
  -3   0  -3 3872.61  173.78
  -3   0  -3 3773.82  170.58
   0   3  -3 3193.58  171.38
   0   3  -3 3755.62  168.78
   3   0   3 3747.43  169.18
  -3   3   3 3608.34  173.38
   0  -3   3 3569.14  168.28
   3   0   3 3702.93  167.98
  -3   3   3 3386.56  169.78
  -3   1  -3 1144.59   53.79
   1   2  -3  998.30   51.29
  -3   1  -3 1088.69   50.99
   2  -3  -3 1025.10   50.19
   1   2  -3 1055.29   50.39
  -2   3   3  982.00   54.69
   3  -1   3 1037.30   49.00
   3  -1   3 1019.40   50.49
  -2   3   3  993.00   50.29
  -1  -2   3 1025.70   49.50
  -3   2  -3   13.80    3.70
   2   1  -3    6.00    1.60
   1  -3  -3   10.50    2.20
   2   1  -3   10.40    2.10
  -2  -1   3    6.60    1.60
  -2  -1   3    7.20    1.70
  -1   3   3    6.90    3.30
   3  -2   3   10.40    2.60
  -1   3   3    8.90    1.80
   3   0  -3 4571.44  213.98
  -3   3  -3 4797.92  214.58
   0  -3  -3 4625.84  220.18
   0  -3  -3 4604.54  215.98
   3   0  -3 4309.37  215.28
  -3   0   3 4484.55  215.38
  -3   0   3 4634.74  214.78
   3  -3   3 4511.35  216.78
   3  -3   3 4845.12  213.58
   0   3   3 4642.44  213.78
   4  -1  -3  906.81   44.00
  -1  -3  -3  941.11   45.60
   4  -1  -3  870.81   42.90
  -1  -3  -3  953.50   49.99
  -3   4  -3  861.41   43.20
   1   3   3  899.31   42.80
  -4   1   3  873.31   45.70
  -4   1   3  903.41   45.00
   3  -4   3  819.72   46.20
  -2  -3  -3   65.49    9.20
   5  -2  -3   66.19    4.60
  -3   5  -3   60.89    4.80
  -2  -3  -3   71.79    6.20
   5  -2  -3   63.59    5.00
   2   3   3   60.69    4.40
  -5   2   3   55.69    6.60
  -5   2   3   76.49    6.40
   3  -5   3   45.00    6.60
   6  -3  -3 2457.55  118.39
   6  -3  -3 2561.34  117.99
  -3   6  -3 2437.96  118.39
  -3  -3  -3 2604.64  128.49
  -6   3   3 2498.85  124.79
  -6   3   3 2676.73  120.19
   3   3   3 2409.06  117.79
   7  -4  -3  508.75   27.10
  -3   7  -3  486.95   26.80
  -4  -3  -3  592.64   38.40
   4   3   3  512.05   26.40
  -7   4   3  584.94   35.90
   6  -4  -3   40.50    4.00
  -4  -2  -3   50.39    9.10
  -2   6  -3   44.70    3.80
  -2   6  -3   45.90    6.30
   4   2   3   38.40    3.30
   4   2   3   44.20    4.10
   2  -6   3   38.90    3.40
  -6   4   3   46.90    8.20
  -4  -1  -3 3456.25  158.18
   5  -4  -3 3230.38  149.29
  -1   5  -3 3228.68  148.79
  -1   5  -3 3324.27  152.48
  -5   4   3 3104.89  155.98
  -5   4   3 2815.42  149.59
   4   1   3 3130.29  148.19
   4   1   3 3278.47  149.39
   1  -5   3 3135.69  148.49
  -4   0  -3 1752.92   75.69
   0   4  -3 1488.15   73.89
  -4   0  -3 1737.63   81.79
   0   4  -3 1439.16   78.09
   4  -4  -3 1557.24   74.69
   4   0   3 1564.04   73.49
  -4   4   3 1601.84   81.19
   0  -4   3 1529.15   73.99
  -4   4   3 1480.25   74.99
   4   0   3 1582.84   74.89
   1   3  -3   38.90    3.10
   3  -4  -3   33.50    3.40
  -4   1  -3   41.60    6.20
  -4   1  -3   34.50    3.70
   1   3  -3   37.20    4.70
  -1  -3   3   40.80    3.20
   4  -1   3   42.10    4.00
  -3   4   3   44.70    3.90
  -3   4   3   41.90    7.10
  -4   2  -3 3441.26  145.19
   2   2  -3 2891.41  139.39
  -4   2  -3 2964.20  138.99
   2  -4  -3 2931.91  138.79
   4  -2   3 2964.50  139.59
  -2   4   3 2864.01  138.49
  -2   4   3 2696.93  146.19
  -2  -2   3 2927.81  138.19
   3   1  -3  943.01   45.20
   1  -4  -3  925.61   45.60
  -4   3  -3  904.91   45.00
  -1   4   3  997.10   53.59
  -3  -1   3  860.11   46.20
  -1   4   3  937.71   44.70
   4  -3   3  937.01   46.50
  -3  -1   3  911.51   44.90
   0  -4  -3   74.09    6.60
  -4   4  -3   67.09    5.30
   0  -4  -3   68.19    9.40
   4   0  -3   70.79    5.20
  -4   0   3   67.69    6.70
   4  -4   3   78.09    7.10
  -4   0   3   72.99    5.80
   0   4   3   73.19    5.00
  -1  -4  -3 2619.74  125.49
   5  -1  -3 2620.44  122.79
  -1  -4  -3 2648.94  131.79
  -4   5  -3 2581.44  123.19
   4  -5   3 2652.73  126.39
  -5   1   3 2640.34  124.99
   1   4   3 2626.24  122.59
  -5   1   3 2564.04  126.79
  -2  -4  -3 1139.59   62.59
   6  -2  -3 1067.39   52.09
  -4   6  -3 1045.30   52.39
   4  -6   3 1023.40   55.79
  -6   2   3 1004.70   56.79
   2   4   3 1089.09   51.89
  -6   2   3 1214.08   54.99
   7  -3  -3    8.90    2.00
  -4   7  -3    5.60    1.90
  -3  -4  -3    3.40    4.40
  -7   3   3    3.80    3.40
   4  -7   3    3.20    2.70
   3   4   3    6.10    1.70
  -4  -4  -3 1497.45   80.39
  -4   8  -3 1275.27   65.79
  -8   4   3 1406.66   75.89
   4   4   3 1302.27   65.19
  -5  -3  -3   15.40    7.10
   8  -5  -3   12.00    2.80
  -8   5   3   13.60    6.20
  -2   7  -3 1805.22   87.49
   7  -5  -3 1693.93   83.19
  -5  -2  -3 1845.22   96.09
   2  -7   3 1723.03   82.29
  -7   5   3 1710.53   92.79
   5   2   3 1677.73   83.49
   6  -5  -3  669.63   34.50
  -1   6  -3  713.23   38.00
  -5  -1  -3  712.03   44.20
   5   1   3  661.73   34.70
   1  -6   3  681.43   33.70
  -6   5   3  705.33   43.20
  -5   0  -3    8.50    4.40
   0   5  -3    6.20    3.10
   5  -5  -3    8.00    2.00
  -5   5   3    7.00    4.10
   0  -5   3   10.80    1.80
  -5   5   3    9.20    2.00
   5   0   3   15.60    2.70
  -5   1  -3 3412.16  157.88
   4  -5  -3 3101.59  149.79
   1   4  -3 3156.38  152.98
  -5   1  -3 3259.77  149.79
   5  -1   3 3099.79  150.18
  -4   5   3 3223.58  149.59
  -4   5   3 3223.88  159.28
  -1  -4   3 3110.09  148.99
  -5   2  -3  720.83   35.80
  -5   2  -3  824.12   43.00
   3  -5  -3  709.13   35.70
   2   3  -3  758.92   37.40
  -3   5   3  716.03   35.40
  -3   5   3  689.63   44.50
  -2  -3   3  700.13   35.10
   5  -2   3  672.63   36.30
   3   2  -3   60.49    5.20
   2  -5  -3   53.29    4.80
  -5   3  -3   89.39   10.40
  -5   3  -3   57.89    4.70
  -3  -2   3   56.59    4.50
  -2   5   3   53.99    4.40
   5  -3   3   59.89    5.50
  -2   5   3   57.79   10.00
  -5   4  -3 2547.84  122.39
   1  -5  -3 2479.55  132.59
   1  -5  -3 2711.63  123.49
   4   1  -3 2660.03  122.59
   5  -4   3 2750.52  124.09
  -1   5   3 2511.15  121.79
  -4  -1   3 2764.52  122.59
  -4  -1   3 2385.36  127.59
   5   0  -3  641.64   31.90
   0  -5  -3  664.33   34.00
  -5   5  -3  624.84   32.00
   0  -5  -3  634.94   40.70
   5  -5   3  647.64   33.90
  -5   0   3  639.24   32.70
  -5   0   3  611.54   35.20
   0   5   3  621.94   31.40
   6  -1  -3    5.50    1.70
  -5   6  -3   10.60    2.20
  -1  -5  -3    6.90    4.60
   1   5   3    7.50    1.80
  -6   1   3    7.60    2.80
  -6   1   3   10.90    4.10
   5  -6   3    6.70    2.60
  -2  -5  -3 2379.86  118.49
   7  -2  -3 2284.47  105.59
  -5   7  -3 2151.68  105.79
  -7   2   3 2120.59  111.99
   2   5   3 2202.28  105.09
   5  -7   3 2241.08  108.59
  -5   8  -3  472.35   26.10
   8  -3  -3  501.45   25.80
  -3  -5  -3  530.25   37.20
  -8   3   3  477.05   32.90
   3   5   3  485.85   25.40
  -6  -1  -3   36.60    9.20
   7  -6  -3   26.60    3.70
  -1   7  -3   30.80    6.00
  -7   6   3   24.80    8.20
   1  -7   3   22.50    3.00
   6   1   3   23.60    3.80
   6  -6  -3 1754.62   85.39
   0   6  -3 1851.61   89.99
  -6   0  -3 1893.91   96.79
   0  -6   3 1752.72   84.39
  -6   6   3 1761.32   95.99
   6   0   3 1703.53   85.59
   1   5  -3  646.74   37.10
   5  -6  -3  649.54   33.20
  -6   1  -3  759.22   43.40
   6  -1   3  656.13   33.50
  -5   6   3  660.03   43.40
  -1  -5   3  627.14   32.20
  -5   6   3  610.54   32.00
   4  -6  -3   37.00    3.90
   2   4  -3   45.90    5.70
  -6   2  -3   41.70    3.80
  -6   2  -3   42.50    8.00
   6  -2   3   38.30    4.30
  -4   6   3   40.00    3.50
  -2  -4   3   35.70    3.40
  -4   6   3   32.40    8.60
  -6   3  -3 2324.97  112.69
   3   3  -3 2508.05  114.39
   3  -6  -3 2388.46  112.99
  -3   6   3 2222.18  125.59
  -3   6   3 2449.95  112.29
  -3  -3   3 2333.47  112.29
   6  -3   3 2490.05  113.99
  -6   4  -3 1297.37   64.19
   2  -6  -3 1104.29   54.29
   4   2  -3 1097.69   54.39
  -6   4  -3 1045.40   53.69
  -4  -2   3 1082.29   53.59
  -2   6   3 1155.98   66.49
  -2   6   3 1046.10   53.09
   6  -4   3 1065.19   54.69
   1  -6  -3   11.70    6.00
   1  -6  -3    9.00    2.70
  -6   5  -3   23.20    8.10
  -6   5  -3    8.70    2.10
   5   1  -3    8.00    2.10
   6  -5   3   13.90    3.10
  -5  -1   3    9.20    2.30
  -1   6   3    8.80    2.00
   6   0  -3 1632.24   80.39
   0  -6  -3 1789.22   92.89
  -6   6  -3 1605.44   80.49
  -6   0   3 1728.53   81.49
   0   6   3 1674.63   79.89
   6  -6   3 1659.33   81.99
  -6   7  -3  470.55   25.70
  -1  -6  -3  484.15   36.00
   7  -1  -3  476.55   25.60
   1   6   3  483.45   25.10
   6  -7   3  526.55   27.50
  -7   0  -3  427.86   33.10
   7  -7  -3  380.86   21.60
   0   7  -3  396.16   25.50
   0  -7   3  368.26   20.40
  -7   7   3  388.36   32.30
   7   0   3  388.56   22.00
   6  -7  -3   29.60    3.90
  -7   1  -3   27.10    8.90
   1   6  -3   27.20    6.70
  -6   7   3   28.10    9.40
  -1  -6   3   25.60    3.20
   7  -1   3   21.60    3.80
   5  -7  -3 1632.74   79.59
  -7   2  -3 1798.32   91.09
   2   5  -3 1746.63   83.69
  -2  -5   3 1562.14   78.59
   7  -2   3 1592.44   80.19
  -5   7   3 1625.14   94.09
  -7   3  -3  583.54   37.10
   3   4  -3  530.95   29.20
  -7   3  -3  503.25   26.70
   4  -7  -3  510.65   27.20
  -3  -4   3  473.75   26.20
  -4   7   3  527.55   26.20
  -4   7   3  523.05   40.40
   7  -3   3  534.75   27.90
  -7   4  -3    5.60    4.50
   3  -7  -3    7.00    2.30
  -7   4  -3    7.90    2.20
   4   3  -3    6.70    2.40
  -4  -3   3    5.50    1.80
  -3   7   3    5.90    1.70
  -3   7   3    5.50    5.70
   7  -4   3    5.10    2.10
   2  -7  -3 2277.57  107.39
   2  -7  -3 2313.97  122.49
   5   2  -3 2156.58  106.99
  -7   5  -3 2144.89  106.29
   7  -5   3 2235.78  107.49
  -5  -2   3 2316.97  106.49
  -2   7   3 2241.18  105.69
   6   1  -3  468.55   25.70
  -7   6  -3  442.56   25.30
   1  -7  -3  499.65   37.20
   7  -6   3  489.35   26.50
  -1   7   3  472.45   24.70
  -6  -1   3  519.55   26.20
  -7   7  -3   25.10    3.70
   7   0  -3   30.30    3.90
   0  -7  -3   31.70    9.50
   7  -7   3   28.00    4.60
   0   7   3   31.40    3.70
   3   5  -3   12.50    4.10
   5  -8  -3   16.10    3.40
  -8   3  -3   15.80    6.90
  -3  -5   3    8.70    2.20
  -5   8   3    7.60    7.20
   8  -3   3    8.10    2.70
  -8   4  -3 1520.85   78.39
   4  -8  -3 1300.97   65.59
   4   4  -3 1410.26   67.79
  -8   4  -3 1318.67   65.09
  -4  -4   3 1278.27   64.79
   8  -4   3 1337.77   66.39
  -4   8   3 1372.06   83.59
  -4   8   3 1257.17   64.09
   3  -8  -3  517.05   27.80
  -8   5  -3  620.64   40.30
   5   3  -3  511.25   28.30
  -8   5  -3  489.65   26.80
  -3   8   3  559.04   43.20
  -3   8   3  482.15   26.00
  -5  -3   3  481.15   26.60
   8  -5   3  469.05   27.50
   0   0  -4 2860.51  135.99
   0   0  -4 2947.01  135.39
   0   0   4 2825.12  134.99
   1  -1  -4   74.09    6.80
  -1   0  -4   81.19    6.60
   0   1  -4   71.29    6.00
   1  -1  -4   74.99    5.60
   0   1  -4   82.29    6.50
   1   0   4   72.79    5.70
  -1   1   4   78.79    5.90
   1   0   4   70.39    6.10
   0  -1   4   74.89    6.00
   1   0  -4 3871.41  180.88
  -1   1  -4 3972.70  180.98
   1   0  -4 3698.73  181.08
   0  -1  -4 4005.20  181.58
  -1   1  -4 3683.33  181.68
   0   1   4 3742.33  180.58
  -1   0   4 3858.51  180.48
   0   1   4 3991.70  180.68
   1  -1   4 3887.51  179.88
   2  -1  -4 1384.56   72.69
  -1   2  -4 1299.47   72.19
   2  -1  -4 1501.75   72.09
  -1  -1  -4 1645.74   72.29
  -2   1   4 1610.04   71.39
   1   1   4 1386.86   71.09
   1  -2   4 1527.85   71.19
   1   1   4 1479.75   71.59
  -1   3  -4  134.39    9.50
  -2  -1  -4  130.09   10.40
   3  -2  -4  135.79    9.80
  -1   3  -4  139.09    9.70
  -2  -1  -4  134.29    9.70
   3  -2  -4  126.39    8.90
   2   1   4  133.99    8.60
  -3   2   4  136.49    9.10
   2   1   4  131.99    8.80
   1  -3   4  125.79    8.60
   2  -2  -4 2015.30   92.09
   0   2  -4 1957.90   93.59
   2  -2  -4 1966.50   94.39
  -2   0  -4 1963.40   94.09
   2   0   4 1788.12   92.19
  -2   2   4 2071.99   92.99
   0  -2   4 1992.10   92.79
   2   0   4 1802.22   93.39
   1  -2  -4 1436.86   74.89
   1   1  -4 1567.74   73.29
   1   1  -4 1428.56   74.39
   2  -1   4 1455.25   74.19
   2  -1   4 1518.85   72.29
  -1   2   4 1674.23   72.29
  -1   2   4 1497.45   73.49
  -1  -1   4 1542.35   73.59
   2   0  -4   23.10    3.50
   0  -2  -4   21.40    3.80
   2   0  -4   25.40    3.40
  -2   2  -4   25.30    4.10
   0  -2  -4   21.40    3.80
  -2   0   4   22.50    3.60
   2  -2   4   25.90    2.80
   0   2   4   24.80    3.30
   2  -2   4   20.10    3.70
   0   2   4   21.40    3.30
  -1  -2  -4 3107.79  143.99
   3  -1  -4 2802.32  144.59
  -1  -2  -4 3069.29  145.99
  -2   3  -4 3131.49  144.49
   3  -1  -4 3094.49  143.29
  -2   3  -4 3170.68  144.49
   2  -3   4 2982.90  142.79
   1   2   4 3054.49  145.49
   1   2   4 2958.70  142.89
  -3   1   4 3030.00  143.49
  -2   4  -4 1796.22   86.69
  -2  -2  -4 1870.61   87.19
   4  -2  -4 1793.62   85.69
  -2  -2  -4 1744.43   89.69
  -2   4  -4 1824.42   87.69
   4  -2  -4 1779.62   87.29
   2  -4   4 1748.53   85.69
  -4   2   4 1937.51   86.79
   2   2   4 1740.63   85.49
  -2   5  -4   13.70    2.70
  -2   5  -4   17.70    3.70
  -3  -2  -4   12.70    3.50
   5  -3  -4   15.50    3.00
  -3  -2  -4   14.70    4.80
   3   2   4   11.40    2.30
   2  -5   4   15.30    2.50
  -5   3   4   16.40    3.40
   4  -3  -4 2555.44  122.59
  -3  -1  -4 2243.68  123.49
  -1   4  -4 2593.14  123.69
  -1   4  -4 2650.73  122.29
  -3  -1  -4 2617.34  125.79
   3   1   4 2618.14  121.19
  -4   3   4 2797.92  123.09
   1  -4   4 2605.44  121.39
   3   1   4 2559.64  122.09
   3  -3  -4 1087.29   53.99
   0   3  -4 1085.29   53.79
   0   3  -4 1074.19   55.09
  -3   0  -4 1133.49   60.79
  -3   0  -4  919.71   54.69
   3   0   4 1114.19   53.99
   0  -3   4 1100.69   52.79
   3   0   4 1162.88   52.59
  -3   3   4 1126.89   54.29
   1   2  -4  127.69   10.10
   2  -3  -4  124.09    9.20
   1   2  -4  101.09    8.40
  -3   1  -4  113.99    9.60
  -1  -2   4  130.99    8.20
  -2   3   4  125.69   11.80
   3  -1   4  126.79    7.90
  -2   3   4  101.79    8.30
   3  -1   4  118.99    9.30
  -3   2  -4 3052.99  143.09
   1  -3  -4 2943.91  145.49
   2   1  -4 2999.80  142.49
   2   1  -4 3157.38  141.29
   1  -3  -4 2964.40  143.29
  -2  -1   4 3035.30  141.69
   3  -2   4 3005.20  140.29
  -1   3   4 2825.62  141.59
   3   0  -4 1533.35   70.09
  -3   3  -4 1449.85   70.89
   3   0  -4 1518.45   70.09
   0  -3  -4 1364.86   71.69
   0  -3  -4 1478.25   73.79
   3  -3   4 1338.77   71.69
   0   3   4 1495.95   69.79
  -3   0   4 1357.66   70.59
   4  -1  -4   47.00    4.30
   4  -1  -4   39.60    5.50
  -1  -3  -4   50.49    5.30
  -1  -3  -4   65.39    7.90
  -3   4  -4   38.80    4.70
  -4   1   4   46.50    5.40
   3  -4   4   41.20    5.80
   1   3   4   44.70    4.30
  -2  -3  -4 2430.86  123.29
  -2  -3  -4 2572.04  118.59
  -3   5  -4 2372.06  117.89
   5  -2  -4 2351.96  116.89
  -5   2   4 2585.34  118.39
   2   3   4 2417.86  116.99
   3  -5   4 2670.23  121.29
   6  -3  -4  958.00   48.70
  -3   6  -4  914.21   48.10
  -3  -3  -4  927.31   54.39
   3   3   4  935.41   47.30
  -6   3   4 1134.69   49.60
   3  -6   4  964.30   51.29
  -3   7  -4   55.49    5.60
   7  -4  -4   67.89    6.50
  -4  -3  -4   66.09   10.60
   4   3   4   63.29    5.40
   3  -7   4   70.79    8.20
  -2   6  -4 1224.78   62.59
   6  -4  -4 1300.27   63.59
  -4  -2  -4 1319.07   69.89
  -2   6  -4 1365.06   65.69
   4   2   4 1303.47   62.29
  -6   4   4 1271.17   64.09
   5  -4  -4 1102.29   54.49
  -1   5  -4 1138.69   56.29
  -1   5  -4 1107.29   53.59
  -4  -1  -4 1214.08   60.19
  -4  -1  -4 1040.60   56.09
   4   1   4 1127.39   54.39
  -5   4   4 1002.40   54.89
   1  -5   4 1086.49   53.19
  -4   0  -4   21.10    4.60
   0   4  -4   19.60    2.90
   4  -4  -4   20.40    3.10
   0   4  -4   23.00    4.40
  -4   0  -4   24.30    4.30
  -4   4   4   29.20    6.30
   0  -4   4   14.70    2.50
   4   0   4   20.30    3.40
  -4   4   4   17.80    3.70
   1   3  -4 2541.25  122.59
   1   3  -4 2356.46  121.69
   3  -4  -4 2491.25  119.29
  -4   1  -4 2518.95  120.69
   4  -1   4 2574.54  120.29
  -3   4   4 2474.35  119.69
  -1  -3   4 2476.15  118.19
  -3   4   4 2649.83  126.69
  -4   2  -4 1834.12   85.79
   2   2  -4 1796.82   85.99
   2  -4  -4 1766.42   85.19
   4  -2   4 1687.73   85.79
  -2  -2   4 1685.53   83.79
  -2   4   4 1752.52   84.59
  -2   4   4 1772.62   91.19
   3   1  -4   46.30    4.90
   1  -4  -4   43.40    5.50
   1  -4  -4   44.90    7.40
  -4   3  -4   42.10    5.00
  -3  -1   4   39.90    4.60
   4  -3   4   42.20    6.10
  -1   4   4   50.29    4.70
   0  -4  -4 1577.94   78.99
   4   0  -4 1530.35   72.79
   0  -4  -4 1389.56   75.09
  -4   4  -4 1593.54   73.79
   4  -4   4 1365.56   75.69
   0   4   4 1571.44   72.69
  -4   0   4 1520.05   74.09
  -4   5  -4  887.41   45.60
  -1  -4  -4  922.91   51.49
  -1  -4  -4  944.21   46.40
   5  -1  -4  915.71   44.90
  -5   1   4  967.70   47.00
   1   4   4  901.41   44.70
   4  -5   4  808.22   48.20
   6  -2  -4   13.50    2.60
  -2  -4  -4   11.40    5.00
  -4   6  -4   14.80    3.10
   2   4   4   12.90    2.70
  -6   2   4   12.50    3.30
   4  -6   4    7.50    3.80
  -3  -4  -4 1343.07   72.49
  -4   7  -4 1346.97   64.69
   3   4   4 1407.46   63.99
   4  -7   4 1145.59   67.49
   7  -5  -4  555.24   31.00
  -2   7  -4  616.94   33.60
  -5  -2  -4  588.84   38.30
   6  -5  -4   48.30    5.20
  -1   6  -4   51.99    6.60
  -5  -1  -4   48.50    8.30
   5   1   4   53.79    5.70
   1  -6   4   45.60    4.50
   5  -5  -4 1936.71   92.19
  -5   0  -4 1930.51   97.49
  -5   0  -4 2137.09   96.29
   0   5  -4 1866.41   94.49
  -5   5   4 1710.53   91.79
  -5   5   4 1934.41  100.39
   5   0   4 1954.50   92.49
   0  -5   4 1876.71   90.89
   1   4  -4 1057.59   58.59
   4  -5  -4 1092.79   55.29
  -5   1  -4 1178.48   56.59
  -5   1  -4 1199.58   70.09
  -4   5   4 1102.19   55.39
   5  -1   4 1127.29   56.29
  -1  -4   4 1066.19   54.09
  -4   5   4 1158.38   63.99
   3  -5  -4   16.60    3.00
   2   3  -4   11.40    3.60
  -5   2  -4   17.70    3.30
  -2  -3   4   10.70    2.30
  -3   5   4   18.10    3.30
   5  -2   4   13.10    3.40
  -3   5   4   13.20    5.90
  -5   3  -4 2350.86  114.09
   3   2  -4 2403.06  114.59
   2  -5  -4 2316.07  114.29
  -2   5   4 2467.45  113.49
  -2   5   4 2457.75  122.59
  -3  -2   4 2331.17  113.09
   5  -3   4 2364.46  115.59
   1  -5  -4  852.01   51.29
   1  -5  -4  935.11   46.70
   4   1  -4  881.91   44.70
  -5   4  -4  882.61   45.00
  -4  -1   4  863.81   44.70
  -1   5   4  915.31   44.20
   5  -4   4  886.11   47.10
   0  -5  -4   80.59    8.80
   0  -5  -4   90.99   11.60
  -5   5  -4   92.79    7.60
   5   0  -4   92.79    7.30
   0   5   4  105.69    7.30
   5  -5   4  102.69   10.10
  -5   0   4  101.69    8.60
  -1  -5  -4 1604.64   84.89
  -5   6  -4 1541.45   77.09
   6  -1  -4 1603.54   76.59
  -6   1   4 1619.64   78.59
   1   5   4 1565.64   76.19
   5  -6   4 1568.14   81.29
  -2  -5  -4  791.72   48.70
  -5   7  -4  812.82   41.30
   7  -2  -4  855.61   40.70
   5  -7   4  720.63   44.40
   2   5   4  795.92   40.30
   0   6  -4  977.00   51.89
   6  -6  -4  975.30   49.50
  -6   0  -4 1060.89   57.29
   0  -6   4  949.60   48.10
   6   0   4  944.41   49.90
  -6   6   4  983.30   59.39
   5  -6  -4   40.40    4.90
   1   5  -4   43.10    7.10
  -6   1  -4   47.50    8.70
   6  -1   4   39.10    5.30
  -5   6   4   34.50    4.40
  -5   6   4   47.40   10.10
  -1  -5   4   42.70    4.30
   2   4  -4 1318.07   66.89
   4  -6  -4 1273.07   63.59
  -6   2  -4 1278.97   63.49
  -4   6   4 1350.06   63.09
  -4   6   4 1240.28   74.19
  -2  -4   4 1221.58   62.29
   6  -2   4 1348.07   64.89
  -6   3  -4  927.01   46.40
   3   3  -4  935.91   47.90
   3  -6  -4  896.71   46.40
   6  -3   4  939.41   47.90
  -3  -3   4  839.22   45.00
  -3   6   4  930.71   45.60
  -3   6   4  941.11   56.79
  -6   4  -4   10.30    2.80
   2  -6  -4   13.60    3.60
   4   2  -4    9.70    2.90
   2  -6  -4   11.50    6.00
   6  -4   4   16.00    4.20
  -2   6   4   12.40    2.80
  -4  -2   4    8.70    2.50
   5   1  -4 1538.45   76.69
   1  -6  -4 1618.64   79.29
   1  -6  -4 1555.14   85.79
  -6   5  -4 1551.24   77.09
   6  -5   4 1679.03   80.09
  -5  -1   4 1561.34   77.09
  -1   6   4 1547.05   75.79
   6   0  -4  950.40   46.60
   0  -6  -4  908.61   54.59
  -6   6  -4  886.21   46.80
   6  -6   4  902.61   49.60
  -6   0   4  920.31   48.00
   0   6   4  948.31   45.90
   2   5  -4  554.24   33.80
   5  -7  -4  556.94   29.70
   7  -2   4  548.55   30.60
  -2  -5   4  529.45   28.30
  -5   7   4  583.44   42.20
  -5   7   4  514.75   28.00
  -7   3  -4   62.69    6.20
   3   4  -4   59.39    7.70
   4  -7  -4   53.99    6.00
  -4   7   4   59.99   12.70
  -4   7   4   63.49    5.70
   7  -3   4   62.89    7.10
  -3  -4   4   58.19    5.50
   4   3  -4 1442.96   72.29
  -7   4  -4 1423.96   70.89
   3  -7  -4 1427.16   71.39
  -3   7   4 1508.05   84.09
   7  -4   4 1459.55   72.69
  -3   7   4 1452.25   69.79
  -4  -3   4 1370.96   69.89
   2  -7  -4  792.22   52.09
  -7   5  -4  782.02   41.90
   2  -7  -4  833.62   43.70
   5   2  -4  813.62   42.50
  -5  -2   4  812.92   41.90
  -2   7   4  843.32   41.30
   7  -5   4  826.62   44.10
   0   0  -5    5.30    2.00
   0   0  -5    3.70    1.60
   0   0   5    4.40    1.70
  -1   0  -5 2163.18  107.79
   0   1  -5 2209.28  107.79
   0   1  -5 2279.97  107.69
   1  -1  -5 2165.48  108.09
   1  -1  -5 2275.07  106.89
  -1   1   5 2370.16  107.29
   1   0   5 2298.37  107.69
   1   0   5 2333.17  107.09
   0  -1   5 2248.38  107.09
   1   0  -5 2028.50   98.29
   0  -1  -5 1986.90   98.59
  -1   1  -5 2032.20   98.99
   1   0  -5 2032.30   98.29
   1  -1   5 1971.80   97.19
   0   1   5 2122.99   97.79
   0   1   5 2169.68   98.19
   1  -1   5 2102.49   98.49
  -1   0   5 2066.89   97.79
  -1   2  -5  109.29    7.80
   2  -1  -5  100.49    8.20
  -1  -1  -5   99.39    7.70
  -1   2  -5   86.59    8.10
   2  -1  -5   97.99    7.60
  -2   1   5   91.59    7.00
   1  -2   5   97.99    7.00
   1   1   5  103.09    7.70
   1   1   5   91.19    7.70
   3  -2  -5 1646.24   83.89
  -1   3  -5 1732.93   81.89
  -2  -1  -5 1789.62   82.09
   2   1   5 1549.54   81.59
   2   1   5 1567.54   81.29
  -3   2   5 1807.02   81.29
   1  -3   5 1709.43   81.59
  -2   0  -5 1799.52   83.79
   0   2  -5 1705.83   83.19
   2  -2  -5 1663.33   84.89
   0   2  -5 1607.54   83.19
   2   0   5 1740.63   82.49
  -2   2   5 1815.12   82.59
   0  -2   5 1714.13   82.99
   2   0   5 1686.73   83.59
   1  -2  -5   89.09    8.40
   1   1  -5   95.39    7.30
  -2   1  -5  101.09    8.60
   1   1  -5   89.19    7.90
   2  -1   5  101.39    8.20
  -1  -1   5  107.39    8.10
   2  -1   5   99.79    7.00
  -1   2   5  116.09    8.10
   2   0  -5 1246.48   62.69
   2   0  -5 1264.77   61.09
  -2   2  -5 1119.59   62.69
   0  -2  -5 1266.77   61.99
   0   2   5 1215.18   61.39
   2  -2   5 1279.87   59.99
  -2   0   5 1248.28   61.09
   2  -2   5 1346.27   62.09
   3  -1  -5 1463.65   74.29
  -1  -2  -5 1517.15   73.39
   3  -1  -5 1494.95   73.89
   2  -3   5 1453.45   71.69
   2  -3   5 1602.84   74.09
  -3   1   5 1474.55   72.59
  -2  -2  -5    7.60    2.50
   4  -2  -5    2.70    2.50
  -2   4  -5    3.40    2.50
  -2   4  -5    6.30    2.30
  -4   2   5    6.90    2.40
   2   2   5    2.10    1.90
   2  -4   5    8.60    2.60
  -2   5  -5 1559.54   74.39
   5  -3  -5 1436.16   75.19
  -3  -2  -5 1516.35   74.09
  -2   5  -5 1383.36   73.89
  -5   3   5 1597.24   73.39
   3   2   5 1515.85   72.99
  -3  -1  -5 1513.55   73.09
   4  -3  -5 1454.85   73.99
  -1   4  -5 1412.46   72.99
  -1   4  -5 1468.15   72.59
   3   1   5 1513.55   71.59
   3   1   5 1399.66   73.09
  -4   3   5 1598.54   72.09
   1  -4   5 1429.96   71.79
  -3   0  -5   53.39    6.10
   0   3  -5   50.29    5.70
   3  -3  -5   57.89    6.90
   0   3  -5   40.60    5.50
  -3   3   5   59.69    5.80
   3   0   5   48.90    5.10
   3   0   5   40.60    5.70
   0  -3   5   50.89    5.50
   1   2  -5 1826.42   82.99
   2  -3  -5 1607.84   84.89
   1   2  -5 1758.42   84.19
  -3   1  -5 1643.24   84.29
   3  -1   5 1618.04   83.59
  -1  -2   5 1747.33   83.19
  -2   3   5 1731.93   82.69
   1  -3  -5 1475.35   73.89
   2   1  -5 1353.96   73.49
   2   1  -5 1495.15   70.99
  -2  -1   5 1449.06   72.29
   3  -2   5 1567.94   73.29
   3   0  -5  114.99    9.80
   0  -3  -5  127.89    9.60
  -3   3  -5   87.89    9.50
   3   0  -5  120.99    8.50
  -3   0   5  112.29    9.10
   3  -3   5  112.79    9.70
   4  -1  -5 1638.14   78.39
  -3   4  -5 1532.95   79.69
  -1  -3  -5 1614.34   77.89
   4  -1  -5 1675.93   78.59
   1   3   5 1551.04   77.89
  -4   1   5 1519.15   77.29
   3  -4   5 1630.64   78.99
  -3   5  -5 1404.76   72.89
   5  -2  -5 1365.86   73.69
  -2  -3  -5 1499.75   71.79
   2   3   5 1430.66   71.59
   3  -5   5 1532.55   73.39
  -5   2   5 1550.14   71.59
  -3   6  -5   28.70    4.90
   3  -6   5   34.60    5.60
  -6   3   5   30.40    4.70
   3   3   5   32.60    4.80
  -2   6  -5 1081.79   57.29
  -6   4   5 1171.58   56.99
  -4  -1  -5   52.19    7.00
   5  -4  -5   56.99    6.80
  -1   5  -5   67.19    6.90
  -5   4   5   67.49    6.80
   1  -5   5   66.09    6.10
   0   4  -5  996.50   49.50
  -4   0  -5  809.12   49.30
   4  -4  -5  934.31   49.60
   0  -4   5  958.50   47.80
   4   0   5  963.10   49.50
  -4   4   5 1070.19   49.00
   1   3  -5 1491.65   71.29
   3  -4  -5 1383.46   70.59
   4  -1   5 1304.97   69.99
  -1  -3   5 1393.06   68.59
  -3   4   5 1440.56   69.59
  -4   2  -5    1.90    2.20
   2   2  -5    7.20    3.30
   2  -4  -5    6.00    2.90
  -2   4   5    2.70    2.20
  -2  -2   5    7.00    2.70
   4  -2   5    4.30    2.60
   1  -4  -5 1423.66   75.99
  -4   3  -5 1469.65   76.09
   3   1  -5 1613.34   75.79
  -1   4   5 1490.05   74.09
   4  -3   5 1537.85   75.99
  -3  -1   5 1496.55   74.59
   0  -4  -5 1237.48   64.89
  -4   4  -5 1292.87   66.19
   4   0  -5 1297.37   64.69
   4  -4   5 1356.66   66.39
   0   4   5 1300.17   64.19
  -4   0   5 1273.27   64.69
   5  -1  -5   30.00    4.60
  -4   5  -5   31.60    5.50
  -1  -4  -5   29.70    4.50
   4  -5   5   39.40    6.30
  -5   1   5   33.60    4.80
   1   4   5   40.70    5.10
  -4   6  -5  828.62   46.10
  -6   2   5  923.71   44.90
   2   4   5  850.11   44.80
   4  -6   5  907.31   47.50
   0   5  -5  892.71   44.90
  -5   0  -5  745.53   45.10
   5  -5  -5  873.61   44.40
   5   0   5  824.72   44.30
   0  -5   5  832.72   42.30
  -5   5   5  836.72   43.60
   4  -5  -5   59.89    6.90
  -5   1  -5   48.50    7.00
   1   4  -5   68.99    8.00
  -4   5   5   61.39    6.90
   5  -1   5   65.79    7.70
  -1  -4   5   57.39    5.70
   2   3  -5 1455.55   73.69
  -5   2  -5 1377.96   72.49
   3  -5  -5 1473.85   71.99
   5  -2   5 1377.26   72.19
  -3   5   5 1459.15   70.99
  -2  -3   5 1397.66   69.69
   2  -5  -5 1332.37   70.49
   3   2  -5 1476.55   70.89
  -5   3  -5 1362.96   70.39
   5  -3   5 1278.57   70.29
  -3  -2   5 1398.36   68.59
  -2   5   5 1446.16   69.09
   1  -5  -5   26.00    5.60
  -5   4  -5   23.00    4.90
   4   1  -5   34.10    5.30
  -4  -1   5   40.60    5.70
   5  -4   5   27.10    5.90
  -1   5   5   40.10    5.10
   0  -5  -5 1120.09   58.39
   5   0  -5 1153.78   57.79
  -5   5  -5 1156.08   59.29
   5  -5   5 1142.09   60.29
  -5   0   5 1096.19   58.09
   0   5   5 1177.28   57.39
  -6   2  -5  976.00   51.69
   2   4  -5 1000.80   53.69
   4  -6  -5  934.11   50.69
  -2  -4   5  988.60   49.10
   6  -2   5  965.60   51.99
  -4   6   5  977.30   50.09
   3  -6  -5   27.40    5.30
  -6   3  -5   37.90    5.90
   3   3  -5   41.10    6.80
  -3  -3   5   27.80    4.50
  -3   6   5   35.30    5.40
   6  -3   5   26.90    5.80
  -6   4  -5  849.32   45.60
   2  -6  -5  807.12   46.10
   4   2  -5  856.41   45.50
   6  -4   5  782.22   46.10
  -4  -2   5  835.62   44.00
  -2   6   5  919.91   44.30
   0   0  -6  916.31   47.40
   0   0   6  947.11   46.60
   0   0   6  973.90   47.20
   0   1  -6 1850.51   88.69
   0   1  -6 1787.12   88.79
  -1   0  -6 1768.02   88.99
   1  -1  -6 1828.92   89.29
   1   0   6 1942.61   88.29
  -1   1   6 1832.52   88.09
   0  -1   6 1773.32   87.89
   1   0   6 1967.70   88.89
  -1   1  -6   45.80    5.60
   0  -1  -6   55.29    5.70
   1   0  -6   63.09    5.70
   1   0  -6   57.29    5.70
   1  -1   6   55.99    5.60
  -1   0   6   51.39    5.10
   1  -1   6   54.69    4.80
   0   1   6   59.29    5.40
  -1   2  -6 1032.70   51.79
  -1  -1  -6  979.60   51.09
   2  -1  -6 1012.90   51.39
   1   1   6 1078.89   50.79
   1  -2   6 1012.90   49.90
   1  -2   6 1024.50   51.09
  -2   1   6 1009.30   50.29
   3  -2  -6 1712.43   83.89
  -1   3  -6 1728.83   82.79
  -2  -1  -6 1683.63   82.79
  -1   3  -6 1529.85   83.09
  -3   2   6 1742.83   82.09
   1  -3   6 1705.03   81.79
   2   1   6 1802.72   82.69
   2  -2  -6    8.70    3.10
  -2   0  -6    6.30    2.50
   0   2  -6    6.70    2.50
   0   2  -6   10.80    2.80
  -2   2   6    5.90    2.20
   0  -2   6    6.00    2.20
   2   0   6    1.90    2.10
   2   0   6    5.50    2.10
   1  -2  -6 1021.70   52.69
   1   1  -6 1036.00   52.29
  -2   1  -6 1058.19   52.79
   1   1  -6  985.70   51.49
   2  -1   6 1056.89   50.79
  -1  -1   6 1039.10   51.59
  -1   2   6 1036.20   51.49
   2  -1   6 1096.29   52.29
   2   0  -6 1356.06   64.99
   2   0  -6 1280.07   64.09
   0  -2  -6 1340.27   65.09
  -2   2  -6 1244.78   65.39
   2  -2   6 1249.57   62.79
  -2   0   6 1294.37   63.99
   0   2   6 1375.16   64.49
   2  -2   6 1343.67   64.59
   3  -1  -6   45.00    5.50
  -2   3  -6   41.80    5.90
  -1  -2  -6   51.69    5.50
   2  -3   6   52.89    5.80
  -3   1   6   43.90    4.90
   1   2   6   45.90    5.70
  -2  -2  -6  738.83   38.50
   4  -2  -6  750.22   39.90
   2  -4   6  766.02   39.40
   2   2   6  701.33   38.80
  -4   2   6  750.72   37.90
   4  -3  -6   39.80    6.50
  -3  -1  -6   33.50    4.80
  -1   4  -6   27.40    5.30
  -1   4  -6   33.40    4.80
   1  -4   6   29.80    4.90
  -4   3   6   30.80    4.50
   3  -3  -6  987.70   53.69
   0   3  -6  960.60   51.89
   0   3  -6 1068.69   52.29
  -3   0  -6 1035.80   52.39
  -3   3   6 1057.29   51.39
   0  -3   6 1006.70   51.79
   3   0   6 1053.19   52.29
   1   2  -6 1712.63   84.09
   2  -3  -6 1712.93   86.19
  -3   1  -6 1782.22   85.89
   1   2  -6 1693.33   85.09
  -2   3   6 1808.52   84.19
  -1  -2   6 1677.03   84.39
   3  -1   6 1766.22   84.89
   2   1  -6   40.70    4.90
   1  -3  -6   53.89    6.20
  -3   2  -6   35.60    5.70
   2   1  -6   45.80    6.00
  -2  -1   6   47.00    5.40
   3  -2   6   56.39    6.50
  -1   3   6   42.60    5.50
  -3   3  -6  669.13   41.80
   3   0  -6  804.82   42.10
   3   0  -6  784.72   39.80
   0  -3  -6  795.12   41.00
  -3   0   6  764.92   40.10
   3  -3   6  830.22   41.10
   0   3   6  825.52   41.00
  -1  -3  -6 1308.87   67.69
   3  -4   6 1487.95   69.09
  -4   1   6 1413.36   67.59
   1   3   6 1301.57   68.49
   4  -4  -6  901.21   53.39
  -4   0  -6  962.80   51.69
   0   4  -6 1036.70   51.79
  -4   4   6 1103.99   51.09
   1   3  -6   36.20    5.40
  -4   1  -6   24.40    5.00
   3  -4  -6   26.80    5.70
   4  -1   6   29.80    5.40
  -3   4   6   40.00    5.30
  -1  -3   6   40.20    5.50
  -4   2  -6  671.63   40.30
   2   2  -6  738.93   40.40
   2  -4  -6  693.03   40.70
  -2   4   6  814.42   39.50
   4  -2   6  803.82   40.10
  -2  -2   6  735.03   39.40
  -4   3  -6 1128.59   67.49
   3   1  -6 1322.57   68.09
   1  -4  -6 1319.27   66.99
  -1   4   6 1396.16   66.49
   4  -3   6 1439.06   67.09
  -3  -1   6 1333.97   66.09
   0  -4  -6    6.10    2.70
  -4   4  -6    5.20    3.30
   4   0  -6    3.50    2.60
  -4   0   6    5.00    2.50
   4  -4   6    3.00    2.80
   0   4   6    5.10    3.10
   0   0  -7 1090.59   56.09
   0   0   7 1161.18   55.29
   0   0   0    0.00    0.00
_computing_structure_solution     'SHELXT 2014/5 (Sheldrick, 2014)'
;
_shelx_hkl_checksum              28504
_shelx_res_file
;
    SMB_Cs2ReF6_1a_0m_a.res created by SHELXL-2014/7
TITL SMB_Cs2ReF6_1a_0m_a.res in P-3m1
REM Old TITL SMB_Cs2ReF6_1a_0m in P-3m1
REM SHELXT solution in P-3m1
REM R1 0.094,  Rweak 0.003,  Alpha 0.022,  Orientation as input
REM Formula found by SHELXT:  Cs2 F6 Re
CELL  0.71073   6.268   6.268   4.931   90.00   90.00  120.00
ZERR    1.000   0.001   0.001   0.001    0.00    0.00    0.00
LATT  1
SYMM -Y, X-Y, Z
SYMM -X+Y, -X, Z
SYMM Y, X, -Z
SYMM X-Y, -Y, -Z
SYMM -X, -X+Y, -Z
SFAC F Cs RE
UNIT 6 2 1
TEMP -173.110
SIZE 0.108 0.118 0.251
L.S. 12
ACTA
BOND $H
LIST 4
FMAP 2
PLAN 20
WGHT    0.018100    0.141900
EXTI    0.028775
FVAR       0.67091
RE1   3    0.000000    0.000000    0.000000    10.08333    0.00483    0.00483 =
         0.00316    0.00000    0.00000    0.00241
F1    1    0.302692    0.151346    0.216473    10.50000    0.00883    0.01065 =
         0.00745   -0.00117   -0.00235    0.00442
CS1   2    0.333333    0.666667    0.300273    10.16667    0.00661    0.00661 =
         0.00524    0.00000    0.00000    0.00331
HKLF 4
REM  SMB_Cs2ReF6_1a_0m_a.res in P-3m1
REM R1 =  0.0132 for     218 Fo > 4sig(Fo)  and  0.0132 for all     218 data
REM     13 parameters refined using      0 restraints
END
WGHT      0.0181      0.1419
REM Highest difference peak  0.684,  deepest hole -2.923,  1-sigma level  0.228
Q1    1   0.2858  0.5717  0.0576  10.50000  0.05    0.64
Q2    1   0.0000  0.0000  0.2866  10.16667  0.05    0.62
Q3    1   0.0587  0.1174  0.2188  10.50000  0.05    0.61
Q4    1   0.1392  0.1392  0.0000  10.50000  0.05    0.53
Q5    1   0.1745  0.0873  0.3418  10.50000  0.05    0.42
Q6    1   0.2167  0.1083  0.2232  10.50000  0.05    0.39
Q7    1   0.5385  0.8214  0.2995  11.00000  0.05    0.38
Q8    1   0.2918 -0.0758  0.2178  11.00000  0.05    0.37
Q9    1   0.4982  0.2491  0.3208  10.50000  0.05    0.35
Q10   1   0.2182  0.2819  0.2276  11.00000  0.05    0.33
Q11   1   0.0560  0.6183  0.4863  11.00000  0.05    0.31
Q12   1   0.1706  0.1657  0.2173  11.00000  0.05    0.31
Q13   1   0.4499  0.8999  0.0837  10.50000  0.05    0.29
Q14   1   0.4126  0.0340  0.2955  11.00000  0.05    0.27
Q15   1   0.5279  0.4721  0.3960  10.50000  0.05    0.27
Q16   1   0.3957  0.7914  0.4948  10.50000  0.05    0.26
Q17   1   0.2560  0.2347  0.1036  11.00000  0.05    0.26
Q18   1   0.5815  0.1630  0.2525  10.50000  0.05    0.25
Q19   1   0.3722  0.7445  0.6066  10.50000  0.05    0.24
Q20   1   0.4068  0.2034  0.4645  10.50000  0.05    0.24
;
_shelx_res_checksum              92008
loop_
_space_group_symop_operation_xyz
'x, y, z'
'-y, x-y, z'
'-x+y, -x, z'
'y, x, -z'
'x-y, -y, -z'
'-x, -x+y, -z'
'-x, -y, -z'
'y, -x+y, -z'
'x-y, x, -z'
'-y, -x, z'
'-x+y, y, z'
'x, x-y, z'
loop_
_atom_site_type_symbol
_atom_site_label
_atom_site_fract_x
_atom_site_fract_y
_atom_site_fract_z
_atom_site_U_iso_or_equiv
_atom_site_adp_type
_atom_site_calc_flag
_atom_site_occupancy
Re Re1 0 0 0 0.00427(15) Uani d 1
F F1 0.3027(3) 0.15135(17) 0.2165(4) 0.0092(4) Uani d 1
Cs Cs1 0.3333 0.6667 0.30027(9) 0.00615(14) Uani d 1
loop_
_atom_site_aniso_label
_atom_site_aniso_U_11
_atom_site_aniso_U_22
_atom_site_aniso_U_33
_atom_site_aniso_U_12
_atom_site_aniso_U_13
_atom_site_aniso_U_23
Re1 0.00483(16) 0.00483(16) 0.0032(2) 0.00241(8) 0 0
F1 0.0088(8) 0.0107(6) 0.0075(9) 0.0044(4) -0.0023(6) -0.0012(3)
Cs1 0.00661(16) 0.00661(16) 0.0052(2) 0.00331(8) 0 0
loop_
_atom_type_symbol
_atom_type_description
_atom_type_scat_dispersion_real
_atom_type_scat_dispersion_imag
_atom_type_scat_source
F F 0.0171 0.0103 'International Tables Vol C Tables 4.2.6.8 and 6.1.1.4'
Cs Cs -0.3680 2.1192 'International Tables Vol C Tables 4.2.6.8 and 6.1.1.4'
Re Re -1.0185 7.2310 'International Tables Vol C Tables 4.2.6.8 and 6.1.1.4'
loop_
_geom_angle_atom_site_label_1
_geom_angle_atom_site_label_2
_geom_angle_atom_site_label_3
_geom_angle_site_symmetry_1
_geom_angle_site_symmetry_3
_geom_angle
F1 Re1 F1 7 8 93.14(7)
F1 Re1 F1 7 2 86.86(7)
F1 Re1 F1 8 2 180.00(4)
F1 Re1 F1 7 9 93.14(7)
F1 Re1 F1 8 9 93.14(7)
F1 Re1 F1 2 9 86.86(7)
F1 Re1 F1 7 3 86.86(7)
F1 Re1 F1 8 3 86.86(7)
F1 Re1 F1 2 3 93.14(7)
F1 Re1 F1 9 3 180.00(8)
F1 Re1 F1 7 . 180.0
F1 Re1 F1 8 . 86.86(7)
F1 Re1 F1 2 . 93.14(7)
F1 Re1 F1 9 . 86.86(7)
F1 Re1 F1 3 . 93.14(7)
F1 Re1 Cs1 7 7 53.533(6)
F1 Re1 Cs1 8 7 53.533(6)
F1 Re1 Cs1 2 7 126.467(6)
F1 Re1 Cs1 9 7 124.74(6)
F1 Re1 Cs1 3 7 55.26(6)
F1 Re1 Cs1 . 7 126.467(6)
F1 Re1 Cs1 7 7_665 124.74(6)
F1 Re1 Cs1 8 7_665 53.533(6)
F1 Re1 Cs1 2 7_665 126.467(6)
F1 Re1 Cs1 9 7_665 53.532(6)
F1 Re1 Cs1 3 7_665 126.468(6)
F1 Re1 Cs1 . 7_665 55.26(6)
Cs1 Re1 Cs1 7 7_665 106.554(9)
F1 Re1 Cs1 7 1_445 55.26(6)
F1 Re1 Cs1 8 1_445 126.467(6)
F1 Re1 Cs1 2 1_445 53.533(6)
F1 Re1 Cs1 9 1_445 126.468(6)
F1 Re1 Cs1 3 1_445 53.532(6)
F1 Re1 Cs1 . 1_445 124.74(6)
Cs1 Re1 Cs1 7 1_445 73.446(9)
Cs1 Re1 Cs1 7_665 1_445 180.0
F1 Re1 Cs1 7 . 126.467(6)
F1 Re1 Cs1 8 . 126.467(6)
F1 Re1 Cs1 2 . 53.533(6)
F1 Re1 Cs1 9 . 55.26(6)
F1 Re1 Cs1 3 . 124.74(6)
F1 Re1 Cs1 . . 53.533(6)
Cs1 Re1 Cs1 7 . 180.0
Cs1 Re1 Cs1 7_665 . 73.447(8)
Cs1 Re1 Cs1 1_445 . 106.553(8)
F1 Re1 Cs1 7 1_545 126.467(6)
F1 Re1 Cs1 8 1_545 55.26(6)
F1 Re1 Cs1 2 1_545 124.74(6)
F1 Re1 Cs1 9 1_545 126.467(6)
F1 Re1 Cs1 3 1_545 53.533(6)
F1 Re1 Cs1 . 1_545 53.533(6)
Cs1 Re1 Cs1 7 1_545 73.447(8)
Cs1 Re1 Cs1 7_665 1_545 73.447(9)
Cs1 Re1 Cs1 1_445 1_545 106.553(9)
Cs1 Re1 Cs1 . 1_545 106.553(9)
F1 Re1 Cs1 7 7_565 53.533(6)
F1 Re1 Cs1 8 7_565 124.74(6)
F1 Re1 Cs1 2 7_565 55.26(6)
F1 Re1 Cs1 9 7_565 53.533(6)
F1 Re1 Cs1 3 7_565 126.467(6)
F1 Re1 Cs1 . 7_565 126.467(6)
Cs1 Re1 Cs1 7 7_565 106.553(8)
Cs1 Re1 Cs1 7_665 7_565 106.553(9)
Cs1 Re1 Cs1 1_445 7_565 73.447(9)
Cs1 Re1 Cs1 . 7_565 73.447(9)
Cs1 Re1 Cs1 1_545 7_565 180.0
Re1 F1 Cs1 . 7_666 162.67(9)
Re1 F1 Cs1 . . 96.61(3)
Cs1 F1 Cs1 7_666 . 82.30(3)
Re1 F1 Cs1 . 1_545 96.61(3)
Cs1 F1 Cs1 7_666 1_545 82.30(3)
Cs1 F1 Cs1 . 1_545 163.82(6)
Re1 F1 Cs1 . 7_665 94.78(7)
Cs1 F1 Cs1 7_666 7_665 102.55(5)
Cs1 F1 Cs1 . 7_665 94.07(3)
Cs1 F1 Cs1 1_545 7_665 94.07(3)
F1 Cs1 F1 8_566 7_666 67.11(6)
F1 Cs1 F1 8_566 9_556 67.11(6)
F1 Cs1 F1 7_666 9_556 67.11(6)
F1 Cs1 F1 8_566 3_565 62.38(6)
F1 Cs1 F1 7_666 3_565 129.122(17)
F1 Cs1 F1 9_556 3_565 97.70(3)
F1 Cs1 F1 8_566 1_565 62.38(6)
F1 Cs1 F1 7_666 1_565 97.70(3)
F1 Cs1 F1 9_556 1_565 129.122(17)
F1 Cs1 F1 3_565 1_565 53.43(7)
F1 Cs1 F1 8_566 2 97.70(3)
F1 Cs1 F1 7_666 2 129.122(17)
F1 Cs1 F1 9_556 2 62.38(6)
F1 Cs1 F1 3_565 2 65.44(7)
F1 Cs1 F1 1_565 2 118.323(15)
F1 Cs1 F1 8_566 2_665 97.70(3)
F1 Cs1 F1 7_666 2_665 62.38(6)
F1 Cs1 F1 9_556 2_665 129.122(17)
F1 Cs1 F1 3_565 2_665 118.323(14)
F1 Cs1 F1 1_565 2_665 65.44(7)
F1 Cs1 F1 2 2_665 163.82(6)
F1 Cs1 F1 8_566 . 129.123(17)
F1 Cs1 F1 7_666 . 97.70(3)
F1 Cs1 F1 9_556 . 62.38(6)
F1 Cs1 F1 3_565 . 118.323(15)
F1 Cs1 F1 1_565 . 163.82(6)
F1 Cs1 F1 2 . 53.43(7)
F1 Cs1 F1 2_665 . 118.323(15)
F1 Cs1 F1 8_566 3_665 129.122(17)
F1 Cs1 F1 7_666 3_665 62.38(6)
F1 Cs1 F1 9_556 3_665 97.70(3)
F1 Cs1 F1 3_565 3_665 163.82(6)
F1 Cs1 F1 1_565 3_665 118.323(15)
F1 Cs1 F1 2 3_665 118.323(15)
F1 Cs1 F1 2_665 3_665 53.43(7)
F1 Cs1 F1 . 3_665 65.44(7)
F1 Cs1 F1 8_566 8_565 102.55(5)
F1 Cs1 F1 7_666 8_565 143.51(2)
F1 Cs1 F1 9_556 8_565 143.51(2)
F1 Cs1 F1 3_565 8_565 49.86(5)
F1 Cs1 F1 1_565 8_565 49.86(5)
F1 Cs1 F1 2 8_565 85.93(3)
F1 Cs1 F1 2_665 8_565 85.93(3)
F1 Cs1 F1 . 8_565 113.96(2)
F1 Cs1 F1 3_665 8_565 113.96(2)
F1 Cs1 F1 8_566 9 143.51(2)
F1 Cs1 F1 7_666 9 143.51(2)
F1 Cs1 F1 9_556 9 102.55(5)
F1 Cs1 F1 3_565 9 85.93(3)
F1 Cs1 F1 1_565 9 113.96(2)
F1 Cs1 F1 2 9 49.86(5)
F1 Cs1 F1 2_665 9 113.96(2)
F1 Cs1 F1 . 9 49.86(5)
F1 Cs1 F1 3_665 9 85.93(3)
F1 Cs1 F1 8_565 9 64.10(5)
F1 Cs1 F1 8_566 7_665 143.51(2)
F1 Cs1 F1 7_666 7_665 102.55(5)
F1 Cs1 F1 9_556 7_665 143.51(2)
F1 Cs1 F1 3_565 7_665 113.96(2)
F1 Cs1 F1 1_565 7_665 85.93(3)
F1 Cs1 F1 2 7_665 113.96(2)
F1 Cs1 F1 2_665 7_665 49.86(5)
F1 Cs1 F1 . 7_665 85.93(3)
F1 Cs1 F1 3_665 7_665 49.86(5)
F1 Cs1 F1 8_565 7_665 64.10(5)
F1 Cs1 F1 9 7_665 64.10(5)
loop_
_geom_bond_atom_site_label_1
_geom_bond_atom_site_label_2
_geom_bond_site_symmetry_2
_geom_bond_distance
Re1 F1 7 1.9594(18)
Re1 F1 8 1.9594(18)
Re1 F1 2 1.9594(18)
Re1 F1 9 1.9594(18)
Re1 F1 3 1.9594(18)
Re1 F1 . 1.9594(18)
Re1 Cs1 7 3.9100(6)
Re1 Cs1 7_665 3.9100(6)
Re1 Cs1 1_445 3.9100(6)
Re1 Cs1 . 3.9100(6)
Re1 Cs1 1_545 3.9100(6)
Re1 Cs1 7_565 3.9100(6)
F1 Cs1 7_666 3.0955(19)
F1 Cs1 . 3.1655(6)
F1 Cs1 1_545 3.1655(6)
F1 Cs1 7_665 3.224(2)
Cs1 F1 8_566 3.0955(19)
Cs1 F1 7_666 3.0955(19)
Cs1 F1 9_556 3.0955(19)
Cs1 F1 3_565 3.1655(6)
Cs1 F1 1_565 3.1655(6)
Cs1 F1 2 3.1655(6)
Cs1 F1 2_665 3.1655(6)
Cs1 F1 3_665 3.1655(6)
Cs1 F1 8_565 3.224(2)
Cs1 F1 9 3.224(2)
Cs1 F1 7_665 3.224(2)

_cod_database_fobs_code 2242482
