#------------------------------------------------------------------------------
#$Date: 2018-07-06 05:20:27 +0300 (Fri, 06 Jul 2018) $
#$Revision: 208877 $
#$URL: file:///home/coder/svn-repositories/cod/cif/2/30/06/2300636.cif $
#------------------------------------------------------------------------------
#
# This file is available in the Crystallography Open Database (COD),
# http://www.crystallography.net/. The original data for this entry
# were provided by IUCr Journals, http://journals.iucr.org/.
#
# The file may be used within the scientific community so long as
# proper attribution is given to the journal article from which the
# data were obtained.
#
data_2300636
loop_
_publ_author_name
'Wang, Yunchen'
'Yang, Taimin'
'Xu, Hongyi'
'Zou, Xiaodong'
'Wan, Wei'
_publ_section_title
;
 On the quality of the continuous rotation electron diffraction data for
 accurate atomic structure determination of inorganic compounds
;
_journal_issue                   4
_journal_name_full               'Journal of Applied Crystallography'
_journal_page_first
;
;
_journal_paper_doi               10.1107/S1600576718007604
_journal_volume                  51
_journal_year                    2018
_chemical_formula_sum            'F Fe O3 Se'
_chemical_formula_weight         201.80
_space_group_crystal_system      monoclinic
_space_group_IT_number           14
_space_group_name_Hall           '-P 2yn'
_space_group_name_H-M_alt        'P 1 21/n 1'
_symmetry_space_group_name_Hall  '-P 2yn'
_symmetry_space_group_name_H-M   'P 1 21/n 1'
_audit_creation_method           SHELXL-2014/7
_cell_angle_alpha                90
_cell_angle_beta                 97.87(3)
_cell_angle_gamma                90
_cell_formula_units_Z            4
_cell_length_a                   4.9560(10)
_cell_length_b                   5.2020(10)
_cell_length_c                   12.040(2)
_cell_measurement_reflns_used    725
_cell_measurement_temperature    293(2)
_cell_measurement_theta_max      0.93
_cell_measurement_theta_min      0.15
_cell_volume                     307.48(10)
_computing_structure_refinement  'SHELXL-2014/7 (Sheldrick, 2014)'
_diffrn_ambient_temperature      293(2)
_diffrn_measured_fraction_theta_full 0.700
_diffrn_measured_fraction_theta_max 0.701
_diffrn_measurement_device_type  'JEOL JEM-2100'
_diffrn_radiation_wavelength     0.0251
_diffrn_reflns_av_R_equivalents  0.2049
_diffrn_reflns_av_unetI/netI     0.1683
_diffrn_reflns_Laue_measured_fraction_full 0.700
_diffrn_reflns_Laue_measured_fraction_max 0.701
_diffrn_reflns_limit_h_max       6
_diffrn_reflns_limit_h_min       -6
_diffrn_reflns_limit_k_max       6
_diffrn_reflns_limit_k_min       -6
_diffrn_reflns_limit_l_max       12
_diffrn_reflns_limit_l_min       -12
_diffrn_reflns_number            1497
_diffrn_reflns_point_group_measured_fraction_full 0.700
_diffrn_reflns_point_group_measured_fraction_max 0.701
_diffrn_reflns_theta_full        0.863
_diffrn_reflns_theta_max         0.934
_diffrn_reflns_theta_min         0.151
_exptl_absorpt_coefficient_mu    0.000
_exptl_crystal_colour            White
_exptl_crystal_density_diffrn    4.359
_exptl_crystal_description       Plate
_exptl_crystal_F_000             88
_refine_diff_density_max         0.357
_refine_diff_density_min         -0.402
_refine_diff_density_rms         0.117
_refine_ls_extinction_coef       6855(79)
_refine_ls_extinction_expression Fc^*^=kFc[1+0.001xFc^2^\l^3^/sin(2\q)]^-1/4^
_refine_ls_extinction_method     'SHELXL-2014/7 (Sheldrick 2014'
_refine_ls_goodness_of_fit_ref   1.192
_refine_ls_hydrogen_treatment    undef
_refine_ls_matrix_type           full
_refine_ls_number_parameters     26
_refine_ls_number_reflns         495
_refine_ls_number_restraints     0
_refine_ls_restrained_S_all      1.192
_refine_ls_R_factor_all          0.1934
_refine_ls_R_factor_gt           0.1697
_refine_ls_shift/su_max          0.195
_refine_ls_shift/su_mean         0.009
_refine_ls_structure_factor_coef Fsqd
_refine_ls_weighting_details
'w=1/[\s^2^(Fo^2^)+(0.1243P)^2^+1.3153P] where P=(Fo^2^+2Fc^2^)/3'
_refine_ls_weighting_scheme      calc
_refine_ls_wR_factor_gt          0.3763
_refine_ls_wR_factor_ref         0.3927
_reflns_Friedel_coverage         0.000
_reflns_number_gt                400
_reflns_number_total             495
_reflns_threshold_expression     'I > 2\s(I)'
_cod_data_source_file            kc5069sup1.cif
_cod_data_source_block           dataset3
_cod_original_cell_volume        307.48(11)
_cod_database_code               2300636
_shelx_shelxl_version_number     2014/7
_shelx_space_group_comment
;
The symmetry employed for this shelxl refinement is uniquely defined
by the following loop, which should always be used as a source of
symmetry information in preference to the above space-group names.
They are only intended as comments.
;
_shelx_res_file
;

    2.res created by SHELXL-2014/7


TITL 2 in P2(1)/n
CELL 0.0251   4.9560   5.2020  12.0400  90.000  97.870  90.000
ZERR    4.00   0.0010   0.0010   0.0024   0.000   0.030   0.000
LATT  1
SYMM 0.5-X, 0.5+Y, 0.5-Z
SFAC O      0.45480  23.78030   0.91730   7.62200   0.47190   2.14400 =
            0.13840   0.29590   0.00000   0.000   0.000   0.000   0.730  15.999
SFAC F      0.36860  20.23900   0.81090   6.60930   0.47510   1.93100 =
            0.14590   0.27930   0.00000   0.000   0.000   0.000   0.720  18.998
SFAC FE     2.54400  64.42439   2.34340  14.88060   1.75880   2.85390 =
            0.50620   0.35020   0.00000   0.000   0.000   0.000   1.170  55.847
SFAC SE     1.02041   0.85673   1.56993   4.20859   3.02495  16.80800 =
            1.44175  48.63000   0.00000   0.000   0.000   0.000   1.160  78.960
UNIT 12 4 4 4
LIST 6 ! automatically inserted. Change 6 to 4 for CHECKCIF!!

L.S. 16
BOND
FMAP 2
PLAN 20
ACTA
XNPD 0.001
WGHT    0.124300    1.315300
EXTI 6855.302246
FVAR       2.01649
SE1   4    0.517234    0.357423    0.334226    11.00000    0.00273
FE1   3    0.456551    0.255665    0.072126    11.00000    0.00715
O1    1    0.326961    0.621481    0.347407    11.00000    0.01511
O2    1    0.808683    0.432217    0.423389    11.00000    0.00971
O3    1    0.619734    0.419306    0.208788    11.00000    0.00776
F1    2    0.268234    0.572934    0.009063    11.00000    0.01061

HKLF 4

REM  2 in P2(1)/n
REM R1 =  0.1697 for     400 Fo > 4sig(Fo)  and  0.1934 for all     495 data
REM     26 parameters refined using      0 restraints

END

WGHT      0.1247      1.2928

REM Highest difference peak  0.357,  deepest hole -0.402,  1-sigma level  0.117
Q1    1   0.9594  0.2607  0.3437  11.00000  0.05    0.36
Q2    1   0.4103  0.6675  0.1424  11.00000  0.05    0.34
Q3    1   0.0889  0.3382  0.3222  11.00000  0.05    0.34
Q4    1   0.5568  0.7410  0.4356  11.00000  0.05    0.33
Q5    1   0.8938  0.4596  0.2390  11.00000  0.05    0.30
Q6    1   0.5574  0.7380  0.2640  11.00000  0.05    0.30
Q7    1   0.8882  0.3306  0.1548  11.00000  0.05    0.29
Q8    1   0.1363  0.5533  0.0817  11.00000  0.05    0.28
Q9    1   0.4250  0.6152  0.2369  11.00000  0.05    0.28
Q10   1   0.5815  0.5771  0.2639  11.00000  0.05    0.25
Q11   1   0.6093  0.2286  0.0084  11.00000  0.05    0.25
Q12   1   0.6160  0.2182  0.0652  11.00000  0.05    0.23
Q13   1   0.3336  0.4554  0.0021  11.00000  0.05    0.22
Q14   1   0.9089  0.4821  0.3370  11.00000  0.05    0.22
Q15   1   1.0914  0.3532  0.4552  11.00000  0.05    0.21
Q16   1   0.4016  0.0411  0.3582  11.00000  0.05    0.21
Q17   1   0.2974  0.7437  0.2980  11.00000  0.05    0.20
Q18   1   0.1403  0.3932 -0.0574  11.00000  0.05    0.18
Q19   1   0.4202  0.4441  0.3218  11.00000  0.05    0.17
Q20   1   0.6090  0.5749  0.3979  11.00000  0.05    0.17
;
_shelx_res_checksum              40639
_shelx_hkl_file
;
   0  -1   3  675.50   81.40
   0   1  -3  585.05   71.42
   0  -1   2   52.28   14.91
   0   1  -2   64.40   16.07
   0  -1   1  180.73   24.41
   0   1  -1  190.45   25.66
   0  -1   0    7.67    9.68
   0   1   0    2.55    9.81
   0  -1  -1   80.93   15.60
   0   1   1   72.66   15.31
   0  -1  -2   92.53   16.64
   0   1   2   83.31   16.28
   0  -1  -3  628.99   75.51
   0   1   3  792.52   94.19
   0  -2   6   39.61   16.49
   0   2  -6  147.01   25.88
   0  -2   5   55.01   16.97
   0   2  -5   60.17   17.90
   0  -2   4  182.72   28.00
   0   2  -4  172.67   27.27
   0  -2   3   82.62   17.58
   0   2  -3   83.47   18.14
   0  -2   2   59.49   14.50
   0   2  -2   93.94   17.72
   0  -2   1  605.48   73.28
   0   2  -1  566.11   68.90
   0  -2   0  307.97   39.54
   0   2   0  296.93   38.32
   0  -2  -1  710.05   85.05
   0   2   1  807.56   96.18
   0  -2  -2  106.40   19.56
   0   2   2  102.49   19.57
   0  -2  -3    2.85   12.09
   0   2   3    4.43   12.47
   0  -2  -4  210.47   30.34
   0   2   4  251.83   34.83
   0  -2  -5   61.41   15.51
   0   2   5   55.18   15.31
   0  -2  -6  110.55   20.33
   0   2   6   50.74   15.17
   0  -2  -7  345.35   46.01
   0   2   7  279.65   38.93
   0  -3  10  179.82   30.63
   0  -3   9  120.85   24.89
   0   3  -9  105.23   23.80
   0  -3   8   11.19   16.25
   0   3  -8    9.81   16.89
   0  -3   7   69.50   19.13
   0   3  -7   98.51   21.99
   0  -3   6   38.23   15.28
   0   3  -6   43.65   15.81
   0  -3   5  128.32   22.64
   0   3  -5  136.13   23.62
   0  -3   4  475.50   60.45
   0   3  -4  512.87   64.78
   0  -3   3  526.41   65.88
   0   3  -3  502.24   63.17
   0  -3   2  234.30   32.92
   0   3  -2  245.85   34.35
   0  -3   1   85.71   17.10
   0   3  -1   85.22   17.36
   0  -3   0    1.84   10.45
   0   3   0   -0.07   10.50
   0  -3  -1  155.81   23.81
   0   3   1  149.00   23.31
   0  -3  -2  431.23   54.85
   0   3   2  486.88   61.20
   0  -3  -3  102.58   19.73
   0   3   3  121.60   21.89
   0  -3  -4  663.12   81.63
   0   3   4  685.71   84.30
   0  -3  -5  208.80   30.71
   0   3   5  223.01   32.38
   0  -3  -6   62.61   16.31
   0   3   6   68.61   17.22
   0  -3  -7  155.73   26.18
   0   3   7  152.66   26.15
   0  -3  -8   76.75   18.87
   0   3   8   14.91   14.29
   0  -3  -9  100.58   21.06
   0   3   9  147.43   26.09
   0  -3 -10  217.61   33.43
   0   3  10  291.11   41.75
   0   3  11   12.09   11.68
   0  -4  12    2.19   11.79
   0   4 -12    3.68   12.31
   0  -4  11   24.92   13.54
   0   4 -11   37.63   15.13
   0  -4  10   21.04   12.94
   0   4 -10   25.96   13.82
   0  -4   9   37.56   14.24
   0   4  -9   30.10   13.89
   0  -4   8   19.59   12.84
   0   4  -8   19.96   13.11
   0  -4   7   25.94   14.10
   0   4  -7   30.28   14.74
   0  -4   6  226.50   34.71
   0   4  -6  203.99   32.56
   0  -4   5   59.36   17.16
   0   4  -5   50.57   16.74
   0  -4   4   16.94   13.18
   0   4  -4   31.94   14.68
   0  -4   3    0.75   11.93
   0   4  -3   -0.05   12.30
   0  -4   2  213.70   32.05
   0   4  -2  225.00   33.42
   0  -4   1  109.55   20.57
   0   4  -1   36.77   13.90
   0  -4   0   68.90   16.39
   0   4   0   73.87   16.88
   0  -4  -1    5.42   10.35
   0   4   1    6.36   10.86
   0  -4  -2  220.10   32.43
   0   4   2  229.98   33.61
   0  -4  -3    0.85   11.92
   0   4   3    3.39   12.60
   0  -4  -4  113.37   23.03
   0   4   4  150.91   27.02
   0  -4  -5   66.31   18.45
   0   4   5   58.32   18.31
   0  -4  -6  550.66   70.81
   0   4   6  616.86   78.44
   0  -4  -7   39.77   14.39
   0   4   7   42.09   15.13
   0  -4  -8   27.41   12.86
   0   4   8   30.02   13.38
   0  -4  -9   51.74   14.75
   0   4   9   26.54   12.55
   0  -4 -10   34.98   12.82
   0   4  10   33.20   12.84
   0  -4 -11   16.37   10.77
   0   4  11   24.39   11.98
   0  -4 -12    5.08    9.76
   0  -5  10   86.96   19.83
   0   5 -10   91.86   20.31
   0  -5   9   39.02   13.85
   0   5  -9   40.53   14.19
   0  -5   8   10.40   10.26
   0   5  -8   12.08   10.72
   0  -5   7    4.39    9.27
   0   5  -7    4.24    9.75
   0  -5   6   40.96   13.34
   0   5  -6   19.53   11.27
   0  -5   5   32.67   12.43
   0   5  -5   31.65   12.59
   0  -5   4   14.07   11.03
   0   5  -4   15.60   11.65
   0  -5   3   16.40   11.58
   0   5  -3   22.88   12.45
   0  -5   2  168.77   27.69
   0   5  -2  178.07   29.04
   0  -5   1   59.92   15.86
   0   5  -1   33.55   13.79
   0  -5   0   -0.39   10.53
   0   5   0    0.45   10.71
   0  -5  -1   71.12   16.73
   0   5   1   79.82   18.35
   0  -5  -2  156.81   26.12
   0   5   2  189.29   29.81
   0  -5  -3   45.39   14.29
   0   5   3   70.58   16.76
   0  -5  -4   19.72   12.33
   0   5   4   21.74   11.96
   0  -5  -5   59.11   16.25
   0   5   5   47.20   15.34
   0  -5  -6   20.38   11.55
   0   5   6   18.85   11.70
   0  -5  -7    6.79    9.35
   0   5   7    1.59    9.26
   0  -5  -8   14.08   10.20
   0   5   8    4.92    9.53
   0  -5  -9   36.93   13.10
   0   5   9   72.87   17.36
   0  -5 -10   90.28   19.60
   0  -6   6   88.54   19.17
   0   6  -6   88.79   19.33
   0  -6   5   15.80   10.50
   0   6  -5   29.81   11.98
   0  -6   4   49.22   14.41
   0   6  -4   49.51   14.57
   0  -6   3    4.77    9.00
   0   6  -3    9.44    9.88
   0  -6   2   96.60   19.68
   0   6  -2   86.13   18.62
   0  -6   1    8.96    9.13
   0   6  -1   10.11    9.44
   0  -6   0  117.03   21.99
   0   6   0  121.84   22.52
   0  -6  -1    8.03    8.69
   0   6   1    9.08    9.53
   0  -6  -2   85.88   18.09
   0   6   2   85.63   18.15
   0  -6  -3    1.64    8.05
   0   6   3    5.87    8.86
   0  -6  -4   18.03   10.60
   0   6   4   23.83   11.41
   0  -6  -5   20.75   11.66
   0   6   5   35.28   12.82
   0  -6  -6   87.87   19.68
   0   6   6  135.88   25.32
  -1   6   6   30.97   13.50
   1  -6  -6   38.95   14.23
  -1   6   5    4.67    9.22
   1  -6  -5    3.38    9.74
  -1   6   4   24.43   11.76
   1  -6  -4   28.14   11.88
  -1   6   3   27.67   11.69
   1  -6  -3   25.48   11.08
  -1   6   2   14.71    9.73
   1  -6  -2   10.83    9.00
  -1   6   1  183.39   29.88
   1  -6  -1  163.21   27.33
  -1   6   0    4.32    9.02
   1  -6   0    9.29    9.33
  -1   6  -1   70.02   16.69
   1  -6   1   59.88   15.30
  -1   6  -2   84.80   18.52
   1  -6   2   97.76   19.93
  -1   6  -3    8.32    9.68
   1  -6   3   10.64    9.68
  -1   6  -4    0.57    8.61
   1  -6   4    2.29    8.69
  -1   6  -5    2.95    9.06
   1  -6   5    3.28    8.83
  -1   6  -6    6.11    9.19
   1  -6   6    7.12    9.15
  -1   5  10    7.63   10.22
   1  -5 -10   12.13   10.47
  -1   5   9   66.45   16.80
   1  -5  -9   73.64   17.48
  -1   5   8    1.80    9.39
   1  -5  -8    3.78    9.06
  -1   5   7  227.49   34.92
   1  -5  -7  203.82   32.08
  -1   5   6   15.90   11.46
   1  -5  -6   15.96   11.11
  -1   5   5  109.80   22.03
   1  -5  -5   71.64   17.59
  -1   5   4   25.46   12.31
   1  -5  -4   17.47   12.20
  -1   5   3   84.47   18.36
   1  -5  -3   73.67   17.21
  -1   5   2   29.60   12.30
   1  -5  -2   22.95   11.65
  -1   5   1   12.23   10.84
   1  -5  -1   13.86   10.55
  -1   5   0   14.33   11.65
   1  -5   0   20.43   11.69
  -1   5  -1   30.46   12.97
   1  -5   1   12.87   10.77
  -1   5  -2   76.81   17.67
   1  -5   2   80.58   17.87
  -1   5  -3   61.11   16.12
   1  -5   3   64.13   16.13
  -1   5  -4   13.93   10.85
   1  -5   4   17.07   10.84
  -1   5  -5  379.24   51.89
   1  -5   5  391.28   53.16
  -1   5  -6   22.12   11.29
   1  -5   6   41.06   13.15
  -1   5  -7   50.97   14.63
   1  -5   7   45.36   13.80
  -1   5  -8   22.38   11.72
   1  -5   8   18.65   11.12
  -1   5  -9   11.12   10.57
   1  -5   9   17.65   11.20
  -1   4  12    6.76   10.24
   1  -4 -12    6.97    9.91
  -1   4  11   40.78   14.02
   1  -4 -11   36.20   13.07
  -1   4  10   50.54   14.91
   1  -4 -10   41.37   13.61
  -1   4   9  110.80   21.82
   1  -4  -9  108.14   21.02
  -1   4   8   11.68   11.83
   1  -4  -8    5.61   10.88
  -1   4   7   14.92   12.77
   1  -4  -7    8.41   11.69
  -1   4   6   12.02   13.70
   1  -4  -6    5.42   12.85
  -1   4   5   89.12   21.20
   1  -4  -5   83.56   20.27
  -1   4   4   67.55   19.64
   1  -4  -4   76.49   20.03
  -1   4   3  145.18   25.47
   1  -4  -3  138.46   24.63
  -1   4   2    6.88   12.06
   1  -4  -2   10.56   11.84
  -1   4   1  342.86   46.39
   1  -4  -1  319.35   43.59
  -1   4   0  195.18   30.13
   1  -4   0  188.46   29.32
  -1   4  -1  351.83   47.60
   1  -4   1  334.55   45.46
  -1   4  -2  172.84   28.21
   1  -4   2  146.93   25.13
  -1   4  -3   89.12   20.05
   1  -4   3   61.61   17.14
  -1   4  -4   14.33   13.26
   1  -4   4   32.74   14.28
  -1   4  -5  133.47   24.37
   1  -4   5  110.96   21.75
  -1   4  -6   11.60   12.85
   1  -4   6    8.04   11.60
  -1   4  -7    6.09   11.58
   1  -4   7    4.24   11.02
  -1   4  -8   62.80   16.74
   1  -4   8   54.25   15.56
  -1   4  -9  269.10   39.76
   1  -4   9  217.19   33.71
  -1   4 -10    1.55   10.48
   1  -4  10    2.45   10.15
  -1   4 -11   16.55   12.67
   1  -4  11    5.81   11.21
  -1   3  11   67.30   17.38
  -1   3  10   57.52   16.64
   1  -3 -10   75.02   18.13
  -1   3   9    0.54   12.60
   1  -3  -9    2.04   12.15
  -1   3   8   37.09   16.16
   1  -3  -8   30.65   15.00
  -1   3   7   86.88   19.78
   1  -3  -7   63.60   17.29
  -1   3   6  157.39   26.40
   1  -3  -6  169.85   27.44
  -1   3   5  685.46   84.88
   1  -3  -5  632.23   78.70
  -1   3   4   85.55   18.47
   1  -3  -4   78.07   16.94
  -1   3   3  170.85   27.02
   1  -3  -3  156.23   25.27
  -1   3   2   21.47   12.10
   1  -3  -2   18.69   11.50
  -1   3   1   26.60   11.49
   1  -3  -1   23.75   10.91
  -1   3   0  404.82   51.94
   1  -3   0  394.85   50.77
  -1   3  -1  151.74   23.97
   1  -3   1   59.89   14.58
  -1   3  -2  160.63   25.10
   1  -3   2  129.90   21.71
  -1   3  -3  186.88   27.86
   1  -3   3  158.72   24.89
  -1   3  -4  122.59   21.40
   1  -3   4  119.60   20.84
  -1   3  -5  207.89   31.31
   1  -3   5  158.64   25.75
  -1   3  -6  144.85   25.53
   1  -3   6  125.42   23.40
  -1   3  -7   30.66   16.39
   1  -3   7   11.12   14.57
  -1   3  -8   37.61   17.40
   1  -3   8   31.26   15.92
  -1   3  -9  105.23   22.53
   1  -3   9  110.47   22.74
  -1   3 -10  114.78   23.36
   1  -3  10   55.08   17.15
   1  -3  11   49.18   16.57
  -1   2   7   90.70   19.27
   1  -2  -7   85.96   18.57
  -1   2   6   13.80   12.57
   1  -2  -6   10.70   11.91
  -1   2   5  596.93   73.82
   1  -2  -5  540.03   67.32
  -1   2   4  275.25   37.59
   1  -2  -4  276.33   37.56
  -1   2   3   22.05   13.46
   1  -2  -3   28.01   13.39
  -1   2   2   89.87   18.91
   1  -2  -2   63.32   16.49
  -1   2   1   66.74   14.98
   1  -2  -1   61.45   14.30
  -1   2   0  540.53   66.11
   1  -2   0  495.35   60.91
  -1   2  -1  517.77   63.59
   1  -2   1  452.82   56.19
  -1   2  -2  145.43   23.12
   1  -2   2  146.01   22.87
  -1   2  -3  258.47   35.16
   1  -2   3  246.68   33.63
  -1   2  -4  159.72   25.17
   1  -2   4  182.06   27.24
  -1   2  -5   54.63   15.89
   1  -2   5   67.22   16.36
  -1   2  -6   95.02   20.42
   1  -2   6  102.24   20.66
  -1   2  -7  153.16   26.80
   1  -2   7  168.94   28.11
  -1   1   4  315.45   41.32
   1  -1  -4  304.24   40.00
  -1   1   3  283.31   36.90
   1  -1  -3  275.58   35.87
  -1   1   2  446.01   54.50
  -1   1   1  194.85   26.64
  -1   1   0  363.62   44.44
  -1   1  -1  382.89   46.74
  -1   1  -2  102.24   17.29
  -1   1  -3  470.85   57.90
  -1   1  -4   84.88   19.51
   1  -1   4   87.13   19.37
   1   0   0   17.37    5.31
   1   1  -1  417.44   50.32
  -1  -1   0  438.21   52.06
   1   1   0  423.17   50.38
  -1  -1  -1  139.37   19.35
   1   1   1  242.86   30.46
  -1  -1  -2  328.99   40.31
   1   1   2  253.90   32.13
   1   1   3  740.53   87.79
  -1  -2   6   16.71   15.27
  -1  -2   5  394.10   51.37
   1   2  -5  432.39   55.81
  -1  -2   4  161.30   25.70
   1   2  -4  208.39   30.76
  -1  -2   3   12.53   12.83
   1   2  -3   19.82   13.72
  -1  -2   2  201.83   28.16
   1   2  -2  193.19   27.43
  -1  -2  -6   93.52   18.01
   1   2   6  120.60   20.86
  -1  -3   9   35.32   17.58
   1   3  -9   27.26   17.46
  -1  -3   8  180.40   31.04
   1   3  -8  120.76   25.68
  -1  -3   7   46.01   18.06
   1   3  -7   53.16   18.91
  -1  -3   6   96.51   20.56
   1   3  -6  103.65   21.27
  -1  -3   5  519.52   65.86
   1   3  -5  424.17   55.19
  -1  -3   4   84.80   17.71
   1   3  -4   77.31   17.21
  -1  -3   3  578.07   71.57
   1   3  -3  610.55   75.31
  -1  -3   2   14.05   10.86
   1   3  -2   14.90   11.27
  -1  -3   1   12.41   10.35
   1   3  -1   16.77   11.14
  -1  -3   0  406.81   51.49
   1   3   0  437.87   55.06
  -1  -3  -1   33.48   11.00
   1   3   1   36.30   11.54
  -1  -3  -2  156.73   23.80
   1   3   2  138.54   22.04
  -1  -3  -3  149.92   23.82
   1   3   3  142.77   23.24
  -1  -3  -4  161.46   24.82
   1   3   4  152.58   23.99
  -1  -3  -5   60.14   15.03
   1   3   5   37.66   13.41
  -1  -3  -6  219.27   32.39
   1   3   6  216.45   32.22
  -1  -3  -7   19.99   13.62
   1   3   7   42.63   15.60
  -1  -3  -8   54.86   16.15
   1   3   8   62.13   17.21
  -1  -3  -9  157.97   26.31
   1   3   9  176.58   28.47
   1   3  10   25.60   12.67
  -1  -4  12    8.39   12.57
   1   4 -12   10.88   13.15
  -1  -4  11   21.16   13.36
   1   4 -11   30.71   14.89
  -1  -4  10   35.96   14.61
   1   4 -10   35.66   15.05
  -1  -4   9   74.35   18.30
   1   4  -9   83.56   19.80
  -1  -4   8   -0.05   11.22
   1   4  -8    5.27   11.99
  -1  -4   7    2.83   12.13
   1   4  -7   18.69   13.85
  -1  -4   6   17.77   13.75
   1   4  -6   20.33   14.41
  -1  -4   5  111.46   22.04
   1   4  -5  109.22   22.36
  -1  -4   4  132.56   23.82
   1   4  -4  162.87   27.18
  -1  -4   3  166.45   27.20
   1   4  -3  163.70   26.71
  -1  -4   2    3.24   11.87
   1   4  -2    1.60   11.96
  -1  -4   1  230.07   33.41
   1   4  -1  286.46   39.75
  -1  -4   0  211.30   31.15
   1   4   0  227.66   33.03
  -1  -4  -1  333.06   44.63
   1   4   1  302.24   41.44
  -1  -4  -2  142.44   23.93
   1   4   2  132.31   23.12
  -1  -4  -3  115.03   21.79
   1   4   3  122.92   22.71
  -1  -4  -4   78.75   19.67
   1   4   4   70.12   19.28
  -1  -4  -5   11.09   12.49
   1   4   5   16.56   14.24
  -1  -4  -6    2.42   10.98
   1   4   6    4.95   11.90
  -1  -4  -7   14.02   11.06
   1   4   7   39.98   13.78
  -1  -4  -8    7.02   10.08
   1   4   8   16.79   11.21
  -1  -4  -9  288.54   41.05
   1   4   9  363.62   49.67
  -1  -4 -10    6.55    9.23
   1   4  10    8.08    9.70
  -1  -4 -11   29.74   12.09
  -1  -5  10   13.00   11.23
   1   5 -10    8.55   10.89
  -1  -5   9   59.76   16.31
   1   5  -9   68.56   17.48
  -1  -5   8    2.99    9.59
   1   5  -8    0.36    9.48
  -1  -5   7   42.06   13.90
   1   5  -7   56.05   15.60
  -1  -5   6   42.50   13.49
   1   5  -6   28.14   12.14
  -1  -5   5   27.89   11.74
   1   5  -5   21.74   11.49
  -1  -5   4   64.56   16.12
   1   5  -4   52.95   14.69
  -1  -5   3   26.99   12.25
   1   5  -3   47.70   14.65
  -1  -5   2   10.28   10.81
   1   5  -2   10.47   11.29
  -1  -5   1   27.08   12.29
   1   5  -1   34.49   13.19
  -1  -5   0   13.90   10.76
   1   5   0   11.68   10.86
  -1  -5  -1   31.64   12.50
   1   5   1    6.49   10.51
  -1  -5  -2   50.81   14.02
   1   5   2   44.20   13.30
  -1  -5  -3   39.07   12.97
   1   5   3   37.24   12.58
  -1  -5  -4   22.17   11.95
   1   5   4   28.17   11.93
  -1  -5  -5   98.92   20.06
   1   5   5  187.62   30.00
  -1  -5  -6   20.30   11.13
   1   5   6   16.71   11.00
  -1  -5  -7    5.10    9.13
   1   5   7    9.00    9.61
  -1  -5  -8    2.14    8.63
  -1  -5  -9   20.32   10.97
  -1  -6   6    5.35    8.87
   1   6  -6   12.47   10.08
  -1  -6   5    9.77    9.74
   1   6  -5    4.02    8.73
  -1  -6   4   27.03   11.60
   1   6  -4   32.97   12.43
  -1  -6   3   32.25   12.15
   1   6  -3   40.76   13.36
  -1  -6   2   42.31   13.11
   1   6  -2   29.25   11.90
  -1  -6   1  111.13   21.00
   1   6  -1   97.67   19.64
  -1  -6   0    8.45    9.01
   1   6   0    3.84    8.56
  -1  -6  -1   70.63   16.30
   1   6   1   67.18   16.02
  -1  -6  -2  153.99   25.82
   1   6   2  153.65   25.84
  -1  -6  -3   42.41   12.92
   1   6   3   60.19   15.19
  -1  -6  -4   13.62    9.75
  -1  -6  -5    1.83    9.31
  -2   6   5   17.26   10.92
   2  -6  -5   22.95   12.19
  -2   6   4   60.25   16.02
   2  -6  -4   46.09   14.10
  -2   6   3   10.79    9.49
   2  -6  -3    6.22    8.62
  -2   6   2    8.04    8.90
   2  -6  -2    5.85    8.67
  -2   6   1   46.07   14.01
   2  -6  -1   59.19   15.17
  -2   6   0   44.94   13.82
   2  -6   0   36.11   12.56
  -2   6  -1   71.06   16.83
   2  -6   1   39.68   12.84
  -2   6  -2   22.65   11.06
   2  -6   2   12.67    9.68
  -2   6  -3   22.97   11.49
   2  -6   3    8.32    9.13
  -2   6  -4   17.84   10.81
   2  -6   4   14.67   10.27
  -2   5   9    3.73    9.68
   2  -5  -9    3.10    9.09
  -2   5   8    2.80    9.34
   2  -5  -8    4.74    9.19
  -2   5   7    3.83    9.49
   2  -5  -7    2.75    8.95
  -2   5   6    1.77    9.74
   2  -5  -6    3.38    9.56
  -2   5   5   41.28   14.46
   2  -5  -5   40.82   14.12
  -2   5   4   18.79   11.12
   2  -5  -4   19.68   11.77
  -2   5   3   15.98   10.58
   2  -5  -3   22.75   11.35
  -2   5   2  295.93   42.06
   2  -5  -2  290.20   41.35
  -2   5   1    5.38    9.12
   2  -5  -1    6.55    8.85
  -2   5   0  168.52   27.53
   2  -5   0  179.24   28.63
  -2   5  -1   39.47   12.94
   2  -5   1   18.63   10.38
  -2   5  -2  109.55   20.87
   2  -5   2  123.26   22.24
  -2   5  -3   93.19   19.12
   2  -5   3   93.11   18.90
  -2   5  -4   58.26   15.22
   2  -5   4   45.94   13.75
  -2   5  -5   18.06   10.30
   2  -5   5   20.50   10.77
  -2   5  -6   28.09   11.53
   2  -5   6   34.74   12.16
  -2   5  -7   18.65   10.67
   2  -5   7   19.24   10.37
  -2   5  -8   35.45   13.20
   2  -5   8   21.73   10.95
  -2   4  12    5.46   10.11
   2  -4 -12    3.97    9.41
  -2   4  11   37.04   13.61
   2  -4 -11   47.73   14.52
  -2   4  10   10.33   10.38
   2  -4 -10    7.44    9.71
  -2   4   9   24.18   12.33
   2  -4  -9   19.66   11.48
  -2   4   8    3.86   10.42
   2  -4  -8    3.05    9.95
  -2   4   7   23.79   12.62
   2  -4  -7   22.77   12.07
  -2   4   6  300.00   42.71
   2  -4  -6  278.32   40.14
  -2   4   5    3.75   12.94
   2  -4  -5    5.54   12.71
  -2   4   4   92.94   21.62
   2  -4  -4   79.85   19.96
  -2   4   3    7.73   13.37
   2  -4  -3    6.18   12.65
  -2   4   2   22.09   13.68
   2  -4  -2   21.98   13.10
  -2   4   1  157.31   26.33
   2  -4  -1  142.19   24.48
  -2   4   0   34.10   14.89
   2  -4   0   19.02   13.30
  -2   4  -1   35.31   14.54
   2  -4   1   80.26   18.22
  -2   4  -2  215.45   32.97
   2  -4   2  210.71   32.17
  -2   4  -3   25.36   13.98
   2  -4   3   22.06   13.07
  -2   4  -4   25.27   13.26
   2  -4   4   25.52   12.71
  -2   4  -5   26.53   12.35
   2  -4   5   13.07   10.63
  -2   4  -6  132.31   23.39
   2  -4   6  130.15   22.97
  -2   4  -7   51.14   14.71
   2  -4   7   20.27   11.15
  -2   4  -8   28.42   12.23
   2  -4   8   22.97   11.41
  -2   4  -9    4.30    9.81
   2  -4   9   12.95   10.61
  -2   4 -10    6.74   10.50
   2  -4  10    6.35    9.91
  -2   3  12   47.81   15.15
  -2   3  11   10.00   11.24
   2  -3 -11    7.99   10.57
  -2   3  10  389.62   53.17
   2  -3 -10  193.27   30.91
  -2   3   9   74.17   18.12
   2  -3  -9   79.49   18.43
  -2   3   8   11.92   13.40
   2  -3  -8    9.12   12.53
  -2   3   7   19.34   14.96
   2  -3  -7   20.65   13.95
  -2   3   6   50.74   16.66
   2  -3  -6   50.01   16.18
  -2   3   5    9.80   12.55
   2  -3  -5    7.09   11.90
  -2   3   4    1.56   12.20
   2  -3  -4   10.28   11.35
  -2   3   3   70.17   17.24
   2  -3  -3   51.02   15.08
  -2   3   2  122.43   21.11
   2  -3  -2  119.68   20.70
  -2   3   1   35.08   11.81
   2  -3  -1   29.54   11.34
  -2   3   0  218.27   31.15
   2  -3   0  198.67   28.85
  -2   3  -1   16.74   10.68
   2  -3   1   13.88   10.16
  -2   3  -2  211.79   30.75
   2  -3   2  223.75   31.92
  -2   3  -3  180.98   27.65
   2  -3   3  150.42   24.27
  -2   3  -4    2.65   11.16
   2  -3   4    2.33   10.80
  -2   3  -5   19.50   13.83
   2  -3   5   58.79   16.05
  -2   3  -6    8.67   13.38
   2  -3   6    4.29   12.67
  -2   3  -7    9.49   13.02
   2  -3   7    5.95   12.35
  -2   3  -8   16.79   12.71
   2  -3   8   15.61   12.09
  -2   3  -9   88.95   19.66
   2  -3   9   60.02   16.46
  -2   3 -10   83.00   19.25
   2  -3  10   52.74   15.88
  -2   3 -11   13.26   12.36
   2  -3  11   48.32   15.81
   2  -3  12   15.71   12.67
  -2   2   8   58.51   17.82
  -2   2   7  491.03   63.01
   2  -2  -7  553.65   70.03
  -2   2   6  151.99   24.73
   2  -2  -6  189.04   28.46
  -2   2   5  404.40   52.09
   2  -2  -5  313.95   41.79
  -2   2   4   57.87   14.88
   2  -2  -4   61.75   14.96
  -2   2   3   69.66   15.52
   2  -2  -3   60.93   14.50
  -2   2   2  136.38   22.40
   2  -2  -2  143.69   22.80
  -2   2   1  448.75   55.81
   2  -2  -1  429.32   53.61
  -2   2   0  611.96   74.33
  -2   2  -1  235.88   31.91
  -2   2  -2  643.77   78.11
  -2   2  -3   42.95   12.16
   2  -2   3   39.60   11.60
  -2   2  -4  165.70   25.03
   2  -2   4   74.07   15.44
  -2   2  -5  206.06   30.03
   2  -2   5  169.85   25.91
  -2   2  -6   63.84   16.97
   2  -2   6   23.62   13.43
  -2   2  -7   24.85   16.42
   2  -2   7   29.88   16.10
  -2   2  -8  148.51   27.07
   2  -2   8  129.65   25.00
  -2   1   4 1000.00  118.77
   2  -1  -4  806.73   96.60
  -2   1   3   77.74   16.05
  -2   1   2  207.81   28.16
  -2   1   1   61.44   13.86
   2  -1  -1   53.12   13.24
  -2   1   0    3.55    8.14
   2  -1   0   24.72    9.20
  -2   1  -1  165.61   22.82
   2  -1   1  157.31   21.86
  -2   1  -2  217.28   28.61
   2  -1   2  267.77   34.14
  -2   1  -3  198.59   27.38
   2  -1   3  240.28   31.79
  -2   1  -4  807.23   96.43
   2  -1   4  898.67  106.89
  -2   0  -1   32.13    6.96
   2   0   1   15.10    5.95
  -2  -1   1   55.26   11.45
   2   1  -1   45.71   11.29
  -2  -1   0   39.39    8.18
   2   1   0    2.93    6.35
  -2  -1  -1  101.58   14.42
   2   1   1  175.83   22.29
  -2  -1  -2  316.45   38.41
   2   1   2  372.59   44.78
  -2  -2   5  325.91   43.50
  -2  -2   3   68.03   15.04
   2   2  -3   61.53   14.73
  -2  -2   2  319.19   40.57
   2   2  -2  336.71   42.64
  -2  -2   1  409.39   50.30
   2   2  -1  471.01   57.22
  -2  -2   0  600.83   71.82
   2   2   0  801.49   94.77
  -2  -2  -1  398.09   48.60
   2   2   1  463.70   56.09
  -2  -2  -3   39.46   10.71
   2   2   3   57.16   12.36
  -2  -2  -4   46.54   11.66
   2   2   4   59.18   13.21
  -2  -2  -5  291.20   38.12
   2   2   5  335.22   43.07
   2   2   6   44.54   13.85
  -2  -3   8   18.78   16.42
   2   3  -8    5.74   16.23
  -2  -3   7   15.76   16.34
   2   3  -7   18.07   17.28
  -2  -3   6    4.50   14.22
   2   3  -6   23.92   16.20
  -2  -3   5    5.58   12.58
   2   3  -5    5.42   12.87
  -2  -3   4    4.10   11.12
   2   3  -4    4.04   11.30
  -2  -3   1   82.62   15.63
   2   3  -1   50.12   12.74
  -2  -3   0  255.23   33.99
   2   3   0  276.41   36.37
  -2  -3  -1   37.48   10.68
   2   3   1  112.04   18.41
  -2  -3  -2  356.73   45.59
   2   3   2  378.99   48.06
  -2  -3  -3  137.96   22.31
   2   3   3   93.02   17.97
  -2  -3  -4    7.55   10.73
   2   3   4   28.73   12.24
  -2  -3  -5   24.78   12.79
   2   3   5   27.48   13.12
  -2  -3  -6   20.08   12.92
   2   3   6   18.10   12.94
  -2  -4  11   18.26   13.38
   2   4 -11   24.17   14.13
  -2  -4  10    5.66   11.80
   2   4 -10   10.77   12.79
  -2  -4   9   33.53   14.04
   2   4  -9    9.17   12.18
  -2  -4   8   10.90   11.61
   2   4  -8    6.50   11.53
  -2  -4   7   14.43   12.01
   2   4  -7   14.07   12.33
  -2  -4   6  235.71   34.98
   2   4  -6  244.35   36.22
  -2  -4   5   54.73   15.94
   2   4  -5   40.94   15.24
  -2  -4   4   15.89   12.45
   2   4  -4   23.98   13.48
  -2  -4   3    7.73   11.74
   2   4  -3    8.22   12.13
  -2  -4   2   47.77   14.93
   2   4  -2   30.84   13.98
  -2  -4  -9   34.09   11.73
  -2  -4 -10   11.33    9.39
  -2  -5   9    1.77    9.84
  -2  -5   8   10.87   10.36
   2   5  -8    2.94    9.83
  -2  -5   7    2.55    9.36
   2   5  -7   13.83   10.65
  -2  -5   6   12.22    9.84
   2   5  -6   10.39   10.07
  -2  -5   5   12.18    9.51
   2   5  -5   10.98    9.70
  -2  -5   4   21.53   10.55
   2   5  -4   38.88   12.57
  -2  -5   3   10.71    9.58
   2   5  -3   14.92   10.37
  -2  -5   2  286.13   40.20
   2   5  -2  314.95   43.55
  -2  -5   1   45.07   13.02
   2   5  -1  124.83   21.90
  -2  -5   0  221.01   32.43
   2   5   0  226.16   33.07
  -2  -5  -1   40.13   12.18
   2   5   1   34.67   11.75
  -2  -5  -2  214.62   31.57
   2   5   2  171.26   26.66
  -2  -5  -3   14.14    9.02
   2   5   3    9.34    8.64
  -2  -5  -4   53.78   13.63
   2   5   4   67.53   15.32
  -2  -5  -5   58.06   14.84
   2   5   5   84.63   17.97
  -2  -5  -6   44.28   13.14
  -2  -5  -7    5.38    8.39
  -2  -5  -8   67.30   15.87
  -2  -6   5   22.14   10.76
  -2  -6   4   26.70   11.50
  -2  -6   3    5.94    8.70
  -2  -6   2   13.11    9.44
  -2  -6   1   61.13   15.12
  -2  -6   0   34.43   11.73
  -2  -6  -1   49.94   13.67
  -2  -6  -2   73.90   16.20
  -2  -6  -3   36.62   11.96
  -3   5   8   21.24   11.47
   3  -5  -8   30.65   12.29
  -3   5   7   81.02   18.35
   3  -5  -7   68.20   16.69
  -3   5   6    4.93    9.73
   3  -5  -6    5.93    9.49
  -3   5   5  100.33   20.71
   3  -5  -5   38.32   13.63
  -3   5   4    1.87    8.59
   3  -5  -4    6.96    9.87
  -3   5   3  168.27   27.74
   3  -5  -3  156.89   26.34
  -3   5   2   20.52   10.26
   3  -5  -2   22.80   10.35
  -3   5   1    3.02    7.93
   3  -5  -1   11.20    8.64
  -3   5   0   57.75   14.70
   3  -5   0   48.65   13.48
  -3   5  -1   72.56   16.31
   3  -5   1  101.41   19.54
  -3   5  -2    6.83    8.79
   3  -5   2    3.55    8.26
  -3   5  -3    8.65    9.14
   3  -5   3    6.71    8.50
  -3   5  -4    5.90    8.81
   3  -5   4    7.37    8.90
  -3   5  -5  248.92   37.16
   3  -5   5  227.33   34.60
  -3   5  -6    7.77    8.85
   3  -5   6   10.81    9.08
  -3   4  11   87.87   19.43
   3  -4 -11   77.28   18.04
  -3   4  10   20.93   11.36
   3  -4 -10   29.43   12.13
  -3   4   9   23.42   11.81
   3  -4  -9   15.03   10.56
  -3   4   8   90.37   19.10
   3  -4  -8   83.39   18.21
  -3   4   7   57.54   15.26
   3  -4  -7   50.63   14.30
  -3   4   6    2.43    9.50
   3  -4  -6    3.80    9.37
  -3   4   5    8.90   10.93
   3  -4  -5   10.84   10.65
  -3   4   4   85.96   19.06
   3  -4  -4   59.64   16.02
  -3   4   3   97.01   19.46
   3  -4  -3  127.08   23.06
  -3   4   2   24.23   11.59
   3  -4  -2   11.79   10.13
  -3   4   1   19.65   10.87
   3  -4  -1    6.45    9.24
  -3   4   0   37.29   12.97
   3  -4   0   33.44   12.28
  -3   4  -1  187.13   28.88
   3  -4   1  183.64   28.31
  -3   4  -2   42.39   13.15
   3  -4   2   37.82   12.37
  -3   4  -3   85.55   17.77
   3  -4   3  162.46   26.05
  -3   4  -4   34.01   12.01
   3  -4   4   25.46   10.82
  -3   4  -5    9.32    9.00
   3  -4   5    9.76    8.74
  -3   4  -6   37.43   12.09
   3  -4   6   38.65   12.12
  -3   4  -7   10.84    9.59
   3  -4   7   41.84   12.59
  -3   4  -8   11.30    9.77
   3  -4   8   10.15    9.45
  -3   4  -9  101.41   20.42
   3  -4   9  105.32   20.71
  -3   3  12   22.77   12.32
  -3   3  11   27.11   12.55
   3  -3 -11   37.40   13.31
  -3   3  10   69.29   17.00
   3  -3 -10   36.46   13.10
  -3   3   9   76.20   17.52
   3  -3  -9   88.29   18.61
  -3   3   8   34.19   13.25
   3  -3  -8   14.64   11.18
  -3   3   7  374.83   50.76
   3  -3  -7  342.69   47.04
  -3   3   6   37.09   14.64
   3  -3  -6   41.04   14.81
  -3   3   5   17.61   13.65
   3  -3  -5   12.46   12.60
  -3   3   4    7.30   13.49
   3  -3  -4    5.39   12.29
  -3   3   3  139.87   24.99
   3  -3  -3   83.72   19.24
  -3   3   2   95.52   19.39
   3  -3  -2  108.31   20.41
  -3   3   1   54.60   14.93
   3  -3  -1   21.28   11.73
  -3   3   0  132.56   22.74
   3  -3   0   84.80   17.23
  -3   3  -1   55.82   15.08
   3  -3   1   58.41   14.88
  -3   3  -2    7.64   11.80
   3  -3   2   38.75   13.49
  -3   3  -3  134.05   23.19
   3  -3   3   56.70   15.24
  -3   3  -4   16.99   11.60
   3  -3   4   50.17   13.94
  -3   3  -5  192.36   29.06
   3  -3   5  157.06   25.13
  -3   3  -6   44.01   13.49
   3  -3   6   47.84   13.55
  -3   3  -7   59.54   15.05
   3  -3   7   51.80   13.95
  -3   3  -8    1.67    9.30
   3  -3   8    7.21    9.74
  -3   3  -9    4.66   10.05
   3  -3   9    1.84    9.11
  -3   3 -10   17.71   11.76
   3  -3  10   34.34   13.21
  -3   2   8   20.54   14.24
   3  -2  -8   30.60   14.59
  -3   2   7  148.26   25.75
   3  -2  -7  115.78   22.04
  -3   2   6    7.42   12.62
   3  -2  -6    7.19   11.94
  -3   2   5  246.01   34.94
   3  -2  -5  109.88   19.90
  -3   2   4  311.21   41.45
   3  -2  -4  305.73   40.69
  -3   2   3    7.13   10.18
  -3   2   2   43.41   13.21
  -3   2   1   65.69   13.58
  -3   2   0    5.45    8.17
  -3   2  -1  339.70   43.40
   3  -2   1  270.60   35.61
  -3   2  -2  779.82   93.77
   3  -2   2  560.47   68.75
  -3   2  -3  156.56   23.53
  -3   2  -4   74.14   16.00
  -3   2  -5    1.09   11.91
  -3   2  -6    4.56   12.07
  -3   2  -7  104.82   20.39
   3  -2   7   68.39   16.34
  -3   2  -8   86.46   18.71
   3  -2   8  108.89   20.58
  -3   2  -9    9.68   11.69
   3  -2   9   36.94   13.84
  -3   1   5  148.09   23.26
  -3   1   4   29.64   11.25
  -3   1   3  236.21   31.34
   3  -1  -3  306.56   39.23
   3  -1  -2   37.42   10.47
   3  -1  -1  462.21   56.11
   3  -1   0   51.44   10.34
   3  -1   1   53.70   10.52
   3  -1   2    1.30    7.34
   3  -1   3  111.46   17.33
   3  -1   4   91.11   16.31
   3  -1   5    4.02   12.04
   3  -1   6   31.58   15.33
  -3   0   1   21.79    6.84
   3   0  -1    3.79    6.11
  -3   0   0   32.38    6.87
   3   0   0    9.45    5.38
  -3   0  -1   79.57   10.88
   3   0   1  112.71   14.46
  -3   0  -2    4.70    6.56
   3   0   2    1.45    6.11
  -3  -1   0   54.00    8.22
   3   1   0   71.01   10.07
  -3  -1  -1   58.17    8.42
   3   1   1   53.54    7.83
   3   1   2   12.90    5.80
  -3  -2   4  259.55   35.46
  -3  -2   3    8.95   10.66
   3   2  -3    8.57   10.97
  -3  -2   2  145.35   20.98
   3   2  -2  168.36   23.56
  -3  -2   1   94.60   14.70
   3   2  -1   80.02   13.33
  -3  -2   0   15.98    7.25
   3   2   0   65.80   11.61
  -3  -2  -1  374.58   45.47
   3   2   1  301.99   37.22
  -3  -2  -3  190.95   25.56
   3   2   3  175.25   23.84
  -3  -2  -4  134.22   20.22
   3   2   4  136.38   20.46
  -3  -2  -5   20.90   11.25
   3   2   5   11.29   10.70
  -3  -3   7  265.28   38.36
   3   3  -7  324.25   45.05
  -3  -3   5   13.75   13.48
   3   3  -5   22.30   14.93
  -3  -3   4    9.52   12.53
   3   3  -4    4.82   12.72
  -3  -3   3  111.96   20.07
   3   3  -3   89.70   18.09
  -3  -3   2  124.83   20.37
   3   3  -2   93.27   17.29
  -3  -3   1   36.69   11.97
   3   3  -1   17.23   10.71
  -3  -3   0   90.86   16.47
   3   3   0   88.70   16.31
  -3  -3  -1   66.21   13.66
   3   3   1   80.54   15.46
  -3  -3  -2    7.61    9.89
   3   3   2    6.25    9.37
  -3  -3  -3   77.38   16.30
   3   3   3   97.67   18.21
  -3  -3  -4   25.42   10.89
   3   3   4   55.76   13.55
  -3  -3  -5  294.68   39.02
   3   3   5  378.32   48.47
  -3  -3  -6   95.43   17.05
   3   3   6  118.77   19.83
  -3  -3  -7   75.14   15.08
   3   3   7  102.58   18.12
  -3  -3  -8   27.17   10.42
   3   3   8    3.44    8.23
  -3  -4  10   45.61   15.62
  -3  -4   9    5.44   11.15
  -3  -4   8   69.39   17.10
   3   4  -8   70.28   17.31
  -3  -4   7   49.21   14.24
   3   4  -7   76.69   17.41
  -3  -4   6   11.30   10.28
   3   4  -6    7.94   10.31
  -3  -4   3  152.74   24.08
   3   4  -3  106.56   19.19
  -3  -4   2   28.95   11.25
   3   4  -2   26.30   11.29
  -3  -4   1   19.58   10.22
   3   4  -1   27.87   11.25
  -3  -4   0   39.78   11.56
   3   4   0   18.91   10.08
  -3  -4  -1  164.70   24.81
   3   4   1  244.52   33.78
  -3  -4  -2   98.67   17.33
   3   4   2   53.36   12.43
  -3  -4  -3    2.30    7.85
   3   4   3   11.13    8.77
  -3  -4  -4   72.46   15.32
   3   4   4   48.12   12.97
  -3  -4  -5   13.51    8.66
   3   4   5   16.28    9.49
  -3  -4  -6   48.74   12.31
   3   4   6   37.06   11.31
  -3  -4  -7    9.77    8.55
  -3  -4  -8   22.48    9.83
  -3  -5   7   58.29   15.25
  -3  -5   6   20.23   10.66
  -3  -5   5  116.20   20.94
  -3  -5   4   21.25    9.74
   3   5  -1   15.69    9.20
  -3  -5   0   90.70   17.11
   3   5   0  134.72   22.14
  -3  -5  -1   85.96   16.64
   3   5   1  110.30   19.43
  -3  -5  -2   16.57    8.44
   3   5   2   16.19    8.59
  -3  -5  -3    5.03    7.29
  -3  -5  -4    7.05    7.96
  -3  -5  -5   80.22   16.94
  -4   5   5   35.31   13.41
   4  -5  -5   65.76   16.28
  -4   5   4   24.16   11.10
   4  -5  -4   10.22    9.81
  -4   5   3   35.69   12.38
   4  -5  -3   27.81   11.28
  -4   5   2   81.97   17.49
   4  -5  -2   73.54   16.37
  -4   5   1    4.22    7.67
   4  -5  -1    6.66    7.75
  -4   5   0  112.29   21.00
   4  -5   0   66.20   15.50
  -4   5  -1    8.41    8.51
   4  -5   1   21.73   10.12
  -4   5  -2   25.08   10.79
   4  -5   2   27.13   10.62
  -4   4   9    4.87    9.49
   4  -4  -9    6.31    9.38
  -4   4   8   30.96   12.26
   4  -4  -8   29.44   11.94
  -4   4   7   19.77   10.71
   4  -4  -7   27.26   11.24
  -4   4   6  164.54   27.04
   4  -4  -6  135.80   23.64
  -4   4   5    2.19    8.92
   4  -4  -5    2.16    8.62
  -4   4   4   55.91   14.94
   4  -4  -4  122.01   21.84
  -4   4   3   11.34    9.22
   4  -4  -3   36.77   12.43
  -4   4   2    9.35    8.50
   4  -4  -2   11.65    8.88
  -4   4   1   14.68    8.77
   4  -4  -1   18.04    9.11
  -4   4   0   27.92   10.64
   4  -4   0   24.28    9.64
  -4   4  -1   82.17   16.49
   4  -4   1   53.00   13.13
  -4   4  -2   16.55    9.22
   4  -4   2   16.50    8.85
  -4   4  -3   31.02   11.06
   4  -4   3    7.13    7.87
  -4   4  -4  141.20   23.62
   4  -4   4  118.77   20.99
  -4   4  -5   10.50    8.50
   4  -4   5    9.80    8.55
  -4   4  -6   25.76   10.47
   4  -4   6   20.04    9.53
  -4   3  10   16.96   10.67
   4  -3 -10   24.83   11.31
  -4   3   9   61.93   15.48
   4  -3  -9   55.18   14.45
  -4   3   8   95.93   19.07
   4  -3  -8  132.23   23.03
  -4   3   7    3.60    9.34
   4  -3  -7    3.48    9.01
  -4   3   6   60.38   14.84
   4  -3  -6  119.68   21.22
  -4   3   5  104.90   19.57
   4  -3  -5   99.00   18.70
  -4   3   4   23.68   11.63
   4  -3  -4   35.03   11.76
  -4   3   3   52.04   14.57
   4  -3  -3   55.96   14.33
  -4   3   2  166.78   25.83
   4  -3  -2  205.40   30.01
  -4   3   1   14.73    9.60
  -4   3   0   81.45   16.11
  -4   3  -1   55.81   13.17
  -4   3  -2   21.34    9.72
  -4   3  -3   74.64   15.32
  -4   3  -4    5.04    7.60
  -4   3  -5    9.32    8.04
  -4   3  -6  153.41   24.44
   4  -3   6  122.59   20.75
  -4   3  -7   48.29   13.05
   4  -3   7   19.22    9.61
  -4   3  -8   49.89   13.55
   4  -3   8   45.29   12.87
  -4   2   9   13.70   10.81
  -4   2   8   10.51   10.40
   4  -2  -8   20.17   11.12
  -4   2   7   26.92   11.91
   4  -2  -7   35.10   12.36
  -4   2   6   81.83   17.18
   4  -2  -6   48.43   13.73
  -4   2   5  126.00   21.92
  -4   2   4   75.52   16.62
  -4   2   3   30.17   12.53
   4  -2  -3   34.55   12.72
  -4   2   1  141.86   22.36
   4  -2  -1  164.29   24.73
   4  -2   0   91.53   16.42
   4  -2   1   13.14    9.47
   4  -2   2   17.13    9.80
   4  -2   3    5.33    8.79
   4  -2   4    9.93    8.48
  -4   2  -5   50.98   12.53
   4  -2   5   64.71   13.87
  -4   2  -6    2.00    8.17
   4  -2   6    5.00    8.34
  -4   2  -7   37.80   11.74
   4  -2   7   39.51   11.81
  -4   2  -8   38.16   12.57
  -4   2  -9    7.68   10.19
  -4   1   5   38.52   13.75
   4  -1  -5   27.69   12.92
   4  -1  -4  227.08   31.49
   4  -1  -3  282.23   36.92
  -4   1   2    4.09    9.02
   4  -1  -2   21.55    9.97
  -4   1   1   48.66   12.13
   4  -1  -1   36.15   10.99
  -4   1   0   63.12   12.05
   4  -1   0   77.43   13.45
  -4   1  -1   73.64   13.05
   4  -1   1   68.61   12.62
  -4   1  -2  164.45   22.87
   4  -1   2  144.85   20.85
  -4   1  -3   65.17   12.83
   4  -1   3   68.15   13.10
  -4   1  -4  169.85   24.19
   4  -1   4  132.56   20.17
  -4   1  -5    0.98    9.24
   4  -1   5    3.69    8.95
   4  -1   6   68.16   14.61
   4  -1   7   10.97   10.25
  -4   0   1   22.29    7.49
   4   0  -1   11.38    6.76
  -4   0   0  123.17   16.40
   4   0   0  198.51   24.62
  -4   0  -1   12.39    5.52
   4   0   1   20.29    5.87
  -4   0  -2  522.92   61.69
   4   0   2  535.88   63.12
  -4   0  -3   24.41    9.52
   4   0   3   14.54    8.80
  -4  -2   3   34.78   13.11
  -4  -2   2   99.09   16.55
   4   2  -2  108.22   17.92
  -4  -2   1  130.07   18.69
   4   2  -1  122.92   18.11
  -4  -2   0   55.66   10.52
   4   2   0   61.89   11.15
  -4  -2  -1   11.86    6.26
   4   2   1   21.33    7.31
  -4  -2  -2   64.71   11.33
   4   2   2   24.53    8.34
  -4  -2  -3   12.10    7.04
   4   2   3    8.96    6.88
  -4  -2  -4   11.47    7.06
   4   2   4   14.34    7.35
   4   2   5  122.92   18.32
  -4  -3   6   21.94   11.99
   4   3  -6   41.32   13.99
  -4  -3   5   87.54   17.33
   4   3  -5  109.72   19.76
  -4  -3   4   43.66   12.35
   4   3  -4   38.51   12.16
  -4  -3   3   43.98   11.66
   4   3  -3   70.43   14.34
  -4  -3   2  189.62   26.34
   4   3  -2  253.74   33.70
  -4  -3   1   10.22    7.72
   4   3  -1    6.31    7.33
  -4  -3   0   99.00   15.76
   4   3   0   99.25   15.95
  -4  -3  -1   69.36   12.48
   4   3   1   83.80   14.03
  -4  -3  -2   43.65    9.63
   4   3   2   41.84    9.51
  -4  -3  -3   47.81   10.70
   4   3   3   70.80   13.19
  -4  -3  -4    6.51    6.70
   4   3   4   16.14    7.59
  -4  -3  -5    7.20    7.03
   4   3   5    8.74    7.03
  -4  -3  -6  221.43   30.32
   4   3   6  223.42   30.64
  -4  -3  -7   51.81   11.87
   4   3   7   68.63   13.65
  -4  -3  -8   75.49   15.01
  -4  -4   7   22.97   11.11
  -4  -4   6  170.76   26.69
  -4  -4   5    1.15    8.17
   4   4  -5   20.44   10.17
  -4  -4   4   90.37   16.89
   4   4  -4  100.66   18.07
  -4  -4   3   21.12    8.90
   4   4  -3   32.85   10.28
  -4  -4   2   18.70    8.66
   4   4  -2   12.62    7.88
  -4  -4   1   23.28    8.83
   4   4  -1   25.37    9.09
  -4  -4   0   29.31    9.04
   4   4   0   29.30    9.28
  -4  -4  -1   54.05   11.68
   4   4   1   72.66   13.63
  -4  -4  -2   36.79    9.68
   4   4   2   24.80    8.34
  -4  -4  -3    8.25    6.98
   4   4   3   25.22    8.51
  -4  -4  -5   32.39    9.85
  -4  -4  -6   29.85    9.83
  -4  -5   4   29.21   10.45
  -4  -5   3   28.26   10.36
  -4  -5   2   91.78   17.36
  -4  -5   1   11.86    8.08
  -4  -5   0   81.17   15.66
  -4  -5  -1   12.67    8.10
  -5   4   5    1.71    8.51
   5  -4  -5   10.29    9.09
  -5   4   4   23.22   11.13
   5  -4  -4   41.87   12.75
  -5   4   3  174.25   27.60
   5  -4  -3  167.86   27.02
  -5   4   2    1.47    7.07
   5  -4  -2   16.60    8.98
  -5   4   1    5.75    7.23
   5  -4  -1    1.81    6.71
  -5   4   0   29.44   10.49
   5  -4   0   13.09    8.04
  -5   4  -1   98.26   18.39
   5  -4   1   95.60   18.04
  -5   3   8   69.71   16.23
   5  -3  -8   95.27   18.76
  -5   3   7   24.05   10.72
   5  -3  -7   25.23   10.59
  -5   3   6   75.47   16.05
   5  -3  -6   72.93   15.67
  -5   3   5    1.29    7.67
   5  -3  -5    2.93    7.39
  -5   3   4    2.16    8.07
  -5   3   3   69.57   15.22
  -5   3   2   81.38   15.81
  -5   3   1   65.94   13.72
   5  -3  -1   89.95   16.45
  -5   3   0   52.23   11.96
   5  -3   0   51.57   11.91
  -5   3  -1   41.82   10.87
   5  -3   1   41.94   11.01
  -5   3  -2    5.44    7.06
   5  -3   2    8.68    7.20
  -5   3  -3   14.78    8.28
   5  -3   3    8.96    7.55
  -5   3  -4   38.48   10.96
   5  -3   4   34.83   10.52
  -5   3  -5   72.20   14.77
  -5   2  10    8.64    9.46
  -5   2   9   26.57   11.25
   5  -2  -9   75.74   16.43
  -5   2   8   28.02   10.95
   5  -2  -8   24.53   10.36
  -5   2   7    4.06    8.18
   5  -2  -7   31.09   10.66
  -5   2   6   72.99   15.08
  -5   2   5   34.25   10.86
   5  -2  -5   49.25   12.34
  -5   2   4   44.34   11.40
   5  -2  -4   51.99   12.31
   5  -2  -3   62.61   13.14
   5  -2  -2   30.76    9.98
   5  -2  -1   10.10    7.32
  -5   2   0    8.27    6.35
   5  -2   0    3.03    6.20
  -5   2  -1    7.90    6.37
   5  -2   1    6.67    6.53
  -5   2  -2    9.63    6.68
   5  -2   2   35.45    9.29
  -5   2  -3   44.92   10.45
   5  -2   3   73.75   13.64
  -5   2  -4   60.96   12.22
   5  -2   4   46.31   10.66
   5  -2   5   14.09    7.61
   5  -2   6   12.96    8.04
  -5   1   6  108.97   18.63
   5  -1  -5   49.83   12.08
  -5   1   4    9.74    7.74
   5  -1  -4    9.17    7.84
  -5   1   3    2.53    7.07
   5  -1  -3   14.18    8.10
  -5   1   2   45.89   10.15
   5  -1  -2   32.05    8.95
  -5   1   0   19.14    6.71
   5  -1   0   20.66    7.16
  -5   1  -1   17.90    6.41
   5  -1   1   32.97    7.97
  -5   1  -2   12.38    6.21
   5  -1   2   15.15    6.32
  -5   1  -3   12.05    6.04
   5  -1   3   13.51    6.17
  -5   1  -4   64.32   11.81
   5  -1   4   48.80   10.00
  -5   1  -5    1.18    6.43
   5  -1   5    1.72    6.40
  -5   1  -6   68.21   13.46
   5  -1   6   77.42   14.19
  -5   1  -7   82.30   15.63
   5  -1   7   53.92   12.62
  -5   0   2    6.03    6.08
  -5   0   1    2.58    5.15
   5   0  -1   26.97    6.81
  -5   0   0   14.77    5.50
   5   0   0    1.19    4.80
  -5   0  -2    3.61    4.07
   5   0   2    3.97    4.23
  -5   0  -3  320.76   38.95
   5   0   3  329.57   39.93
   5   0   4    8.70    6.45
  -5  -2   2   43.62    9.63
  -5  -2   1   21.90    6.51
   5   2  -1   32.23    7.57
  -5  -2   0    9.39    4.62
   5   2   0   27.94    6.13
  -5  -2  -1   35.16    6.45
   5   2   1   19.55    5.07
  -5  -2  -2   57.72    9.12
   5   2   2   26.09    5.79
  -5  -2  -3   40.20    7.65
   5   2   3   59.07    9.51
  -5  -2  -4   79.88   12.31
   5   2   4   92.61   13.67
  -5  -3   6  158.64   24.80
  -5  -3   5    6.66    8.78
   5   3  -5    1.58    8.85
  -5  -3   4    6.85    7.80
   5   3  -4    3.85    8.21
  -5  -3   3   56.86   11.78
   5   3  -3   77.97   14.08
  -5  -3   2   48.65   10.32
   5   3  -2  108.47   16.83
  -5  -3   1  111.13   16.51
   5   3  -1  159.30   21.99
  -5  -3   0   84.05   13.36
   5   3   0   46.57    9.34
  -5  -3  -1   50.67    9.55
   5   3   1   73.08   11.95
  -5  -3  -2    5.01    4.93
   5   3   2    6.43    4.96
  -5  -3  -3   28.02    7.80
   5   3   3   13.85    6.69
  -5  -3  -4   45.36    9.53
   5   3   4   43.86    9.49
  -5  -4   3  134.39   21.01
  -5  -4   2    6.32    6.54
  -5  -4   1    8.29    6.75
  -5  -4   0   17.35    7.34
   6  -2  -4   34.10   10.08
  -6   2   3   37.52   10.37
   6  -2  -3   34.69    9.88
  -6   2   1   31.11    8.90
   6  -2  -1   40.61   10.01
  -6   2   0    3.51    5.44
   6  -2   0   10.95    6.42
  -6   2  -1    4.93    5.90
   6  -2   1    9.90    6.46
  -6   1   4   12.58    7.03
   6  -1  -4   14.00    7.26
  -6   1   3   10.81    6.60
   6  -1  -3   14.64    7.06
  -6   1   2    5.32    5.71
   6  -1  -2    1.67    5.56
  -6   1   1   28.61    8.01
   6  -1  -1   57.63   10.89
  -6   1   0   33.96    7.72
   6  -1   0   21.97    6.71
  -6   1  -1   33.38    7.67
   6  -1   1   54.06    9.73
  -6   1  -2   53.21    9.91
   6  -1   2   58.02   10.37
  -6   1  -3   11.41    5.66
   6  -1   3   13.16    5.96
  -6   0   3    2.72    5.53
  -6   0   2  186.71   24.26
   6   0  -2  133.89   18.34
  -6   0   1    6.14    4.47
   6   0  -1   10.91    5.09
  -6   0   0   30.99    6.46
   6   0   0   30.63    6.44
  -6   0  -1    4.51    3.61
   6   0   1    3.47    3.48
  -6   0  -2   13.16    4.46
   6   0   2   16.47    4.74
  -6   0  -3    1.87    4.28
   6   0   3    5.44    4.14
  -6  -2   1   27.51    6.54
  -6  -2   0   19.32    4.79
   6   2   0    6.10    4.19
   0   0   0    0.00    0.00
;
_shelx_hkl_checksum              75434
loop_
_space_group_symop_operation_xyz
'x, y, z'
'-x+1/2, y+1/2, -z+1/2'
'-x, -y, -z'
'x-1/2, -y-1/2, z-1/2'
loop_
_atom_site_label
_atom_site_type_symbol
_atom_site_fract_x
_atom_site_fract_y
_atom_site_fract_z
_atom_site_U_iso_or_equiv
_atom_site_adp_type
_atom_site_occupancy
_atom_site_site_symmetry_order
_atom_site_calc_flag
Se1 Se 0.5172(10) 0.3574(9) 0.3342(6) 0.0027(13) Uiso 1 1 d
Fe1 Fe 0.4566(11) 0.2557(10) 0.0721(6) 0.0072(14) Uiso 1 1 d
O1 O 0.327(3) 0.621(3) 0.3474(19) 0.015(3) Uiso 1 1 d
O2 O 0.809(3) 0.432(2) 0.4234(18) 0.010(3) Uiso 1 1 d
O3 O 0.620(3) 0.419(2) 0.2088(17) 0.008(3) Uiso 1 1 d
F1 F 0.268(3) 0.573(2) 0.0091(17) 0.011(3) Uiso 1 1 d
loop_
_atom_type_symbol
_atom_type_description
_atom_type_scat_dispersion_real
_atom_type_scat_dispersion_imag
_atom_type_scat_source
O O 0.0000 0.0000 'International Tables Vol C Tables 4.2.6.8 and 6.1.1.4'
F F 0.0000 0.0000 'International Tables Vol C Tables 4.2.6.8 and 6.1.1.4'
Fe Fe 0.0000 0.0000 'International Tables Vol C Tables 4.2.6.8 and 6.1.1.4'
Se Se 0.0000 0.0000 'International Tables Vol C Tables 4.2.6.8 and 6.1.1.4'
loop_
_geom_angle_atom_site_label_1
_geom_angle_atom_site_label_2
_geom_angle_atom_site_label_3
_geom_angle
_geom_angle_site_symmetry_1
_geom_angle_site_symmetry_3
O1 Se1 O3 99.8(9) . .
O1 Se1 O2 100.9(8) . .
O3 Se1 O2 100.7(9) . .
O3 Fe1 O1 88.9(8) . 2_545
O3 Fe1 F1 89.2(7) . 3_665
O1 Fe1 F1 174.4(6) 2_545 3_665
O3 Fe1 F1 94.5(7) . .
O1 Fe1 F1 98.9(7) 2_545 .
F1 Fe1 F1 76.1(7) 3_665 .
O3 Fe1 O2 99.8(7) . 2_645
O1 Fe1 O2 98.0(7) 2_545 2_645
F1 Fe1 O2 87.5(6) 3_665 2_645
F1 Fe1 O2 158.0(9) . 2_645
O3 Fe1 O2 175.8(7) . 4_565
O1 Fe1 O2 93.8(8) 2_545 4_565
F1 Fe1 O2 88.4(7) 3_665 4_565
F1 Fe1 O2 88.3(7) . 4_565
O2 Fe1 O2 76.6(8) 2_645 4_565
Se1 O1 Fe1 142.4(12) . 2
Se1 O2 Fe1 129.0(10) . 2_655
Se1 O2 Fe1 126.6(8) . 4_666
Fe1 O2 Fe1 103.4(8) 2_655 4_666
Se1 O3 Fe1 122.4(8) . .
Fe1 F1 Fe1 103.9(7) 3_665 .
loop_
_geom_bond_atom_site_label_1
_geom_bond_atom_site_label_2
_geom_bond_distance
_geom_bond_site_symmetry_2
Se1 O1 1.686(16) .
Se1 O3 1.69(2) .
Se1 O2 1.722(17) .
Fe1 O3 1.929(19) .
Fe1 O1 1.94(2) 2_545
Fe1 F1 1.994(17) 3_665
Fe1 F1 1.994(15) .
Fe1 O2 2.042(14) 2_645
Fe1 O2 2.08(2) 4_565
O1 Fe1 1.94(2) 2
O2 Fe1 2.042(14) 2_655
O2 Fe1 2.08(2) 4_666
F1 Fe1 1.994(17) 3_665

_cod_database_fobs_code 2300636
