#------------------------------------------------------------------------------
#$Date: 2018-07-06 05:20:27 +0300 (Fri, 06 Jul 2018) $
#$Revision: 208877 $
#$URL: file:///home/coder/svn-repositories/cod/cif/2/30/06/2300637.cif $
#------------------------------------------------------------------------------
#
# This file is available in the Crystallography Open Database (COD),
# http://www.crystallography.net/. The original data for this entry
# were provided by IUCr Journals, http://journals.iucr.org/.
#
# The file may be used within the scientific community so long as
# proper attribution is given to the journal article from which the
# data were obtained.
#
data_2300637
loop_
_publ_author_name
'Wang, Yunchen'
'Yang, Taimin'
'Xu, Hongyi'
'Zou, Xiaodong'
'Wan, Wei'
_publ_section_title
;
 On the quality of the continuous rotation electron diffraction data for
 accurate atomic structure determination of inorganic compounds
;
_journal_issue                   4
_journal_name_full               'Journal of Applied Crystallography'
_journal_page_first
;
;
_journal_paper_doi               10.1107/S1600576718007604
_journal_volume                  51
_journal_year                    2018
_chemical_formula_sum            'F Fe O3 Se'
_chemical_formula_weight         201.80
_space_group_crystal_system      monoclinic
_space_group_IT_number           14
_space_group_name_Hall           '-P 2yn'
_space_group_name_H-M_alt        'P 1 21/n 1'
_symmetry_space_group_name_Hall  '-P 2yn'
_symmetry_space_group_name_H-M   'P 1 21/n 1'
_audit_creation_method           SHELXL-2014/7
_cell_angle_alpha                90
_cell_angle_beta                 97.87(3)
_cell_angle_gamma                90
_cell_formula_units_Z            4
_cell_length_a                   4.9560(10)
_cell_length_b                   5.2020(10)
_cell_length_c                   12.040(2)
_cell_measurement_reflns_used    643
_cell_measurement_temperature    293(2)
_cell_measurement_theta_max      0.92
_cell_measurement_theta_min      0.15
_cell_volume                     307.48(10)
_computing_structure_refinement  'SHELXL-2014/7 (Sheldrick, 2014)'
_diffrn_ambient_temperature      293(2)
_diffrn_measured_fraction_theta_full 0.689
_diffrn_measured_fraction_theta_max 0.673
_diffrn_measurement_device_type  'JEOL JEM-2100'
_diffrn_radiation_wavelength     0.0251
_diffrn_reflns_av_R_equivalents  0.1956
_diffrn_reflns_av_unetI/netI     0.2011
_diffrn_reflns_Laue_measured_fraction_full 0.689
_diffrn_reflns_Laue_measured_fraction_max 0.673
_diffrn_reflns_limit_h_max       6
_diffrn_reflns_limit_h_min       -6
_diffrn_reflns_limit_k_max       6
_diffrn_reflns_limit_k_min       -6
_diffrn_reflns_limit_l_max       13
_diffrn_reflns_limit_l_min       -12
_diffrn_reflns_number            1198
_diffrn_reflns_point_group_measured_fraction_full 0.689
_diffrn_reflns_point_group_measured_fraction_max 0.673
_diffrn_reflns_theta_full        0.863
_diffrn_reflns_theta_max         0.922
_diffrn_reflns_theta_min         0.151
_exptl_absorpt_coefficient_mu    0.000
_exptl_crystal_colour            White
_exptl_crystal_density_diffrn    4.359
_exptl_crystal_description       Plate
_exptl_crystal_F_000             88
_refine_diff_density_max         0.399
_refine_diff_density_min         -0.495
_refine_diff_density_rms         0.111
_refine_ls_extinction_coef       10316(98)
_refine_ls_extinction_expression Fc^*^=kFc[1+0.001xFc^2^\l^3^/sin(2\q)]^-1/4^
_refine_ls_extinction_method     'SHELXL-2014/7 (Sheldrick 2014'
_refine_ls_goodness_of_fit_ref   1.222
_refine_ls_hydrogen_treatment    undef
_refine_ls_matrix_type           full
_refine_ls_number_parameters     26
_refine_ls_number_reflns         460
_refine_ls_number_restraints     0
_refine_ls_restrained_S_all      1.222
_refine_ls_R_factor_all          0.2131
_refine_ls_R_factor_gt           0.1951
_refine_ls_shift/su_max          0.688
_refine_ls_shift/su_mean         0.036
_refine_ls_structure_factor_coef Fsqd
_refine_ls_weighting_details
'w=1/[\s^2^(Fo^2^)+(0.1535P)^2^+1.6983P] where P=(Fo^2^+2Fc^2^)/3'
_refine_ls_weighting_scheme      calc
_refine_ls_wR_factor_gt          0.4368
_refine_ls_wR_factor_ref         0.4468
_reflns_Friedel_coverage         0.000
_reflns_number_gt                394
_reflns_number_total             460
_reflns_threshold_expression     'I > 2\s(I)'
_cod_data_source_file            kc5069sup1.cif
_cod_data_source_block           dataset4
_cod_original_cell_volume        307.48(11)
_cod_database_code               2300637
_shelx_shelxl_version_number     2014/7
_shelx_space_group_comment
;
The symmetry employed for this shelxl refinement is uniquely defined
by the following loop, which should always be used as a source of
symmetry information in preference to the above space-group names.
They are only intended as comments.
;
_shelx_res_file
;

    2.res created by SHELXL-2014/7


TITL 2 in P2(1)/n
CELL 0.0251   4.9560   5.2020  12.0400  90.000  97.870  90.000
ZERR    4.00   0.0010   0.0010   0.0024   0.000   0.030   0.000
LATT  1
SYMM 0.5-X, 0.5+Y, 0.5-Z
SFAC O      0.45480  23.78030   0.91730   7.62200   0.47190   2.14400 =
            0.13840   0.29590   0.00000   0.000   0.000   0.000   0.730  15.999
SFAC F      0.36860  20.23900   0.81090   6.60930   0.47510   1.93100 =
            0.14590   0.27930   0.00000   0.000   0.000   0.000   0.720  18.998
SFAC FE     2.54400  64.42439   2.34340  14.88060   1.75880   2.85390 =
            0.50620   0.35020   0.00000   0.000   0.000   0.000   1.170  55.847
SFAC SE     1.02041   0.85673   1.56993   4.20859   3.02495  16.80800 =
            1.44175  48.63000   0.00000   0.000   0.000   0.000   1.160  78.960
UNIT 12 4 4 4
LIST 6 ! automatically inserted. Change 6 to 4 for CHECKCIF!!

L.S. 16
BOND
FMAP 2
PLAN 20
ACTA
XNPD 0.001
WGHT    0.153500    1.698300
EXTI10316.324219
FVAR       2.11305
SE1   4    0.518875    0.356907    0.334359    11.00000    0.00100
FE1   3    0.458105    0.255805    0.072641    11.00000    0.00313
O1    1    0.328724    0.619951    0.347993    11.00000    0.00707
O2    1    0.809600    0.437778    0.427481    11.00000    0.01124
O3    1    0.620061    0.424474    0.210209    11.00000    0.00445
F1    2    0.269286    0.567642    0.015861    11.00000    0.01086

HKLF 4

REM  2 in P2(1)/n
REM R1 =  0.1951 for     394 Fo > 4sig(Fo)  and  0.2131 for all     460 data
REM     26 parameters refined using      0 restraints

END

WGHT      0.1542      1.6557

REM Highest difference peak  0.399,  deepest hole -0.495,  1-sigma level  0.111
Q1    1   0.4924  0.3571  0.1236  11.00000  0.05    0.40
Q2    1   0.4242  0.1447  0.0129  11.00000  0.05    0.36
Q3    1   0.0648  0.3392  0.3235  11.00000  0.05    0.31
Q4    1   0.0823  0.5807 -0.0861  11.00000  0.05    0.29
Q5    1   0.0871  0.6376 -0.0036  11.00000  0.05    0.29
Q6    1   0.2815  0.6502  0.2228  11.00000  0.05    0.28
Q7    1   0.8699  0.2539  0.1949  11.00000  0.05    0.28
Q8    1   0.4278  0.7270  0.1085  11.00000  0.05    0.28
Q9    1   0.5337  0.5852  0.4397  11.00000  0.05    0.28
Q10   1   0.5748  0.6426  0.3356  11.00000  0.05    0.27
Q11   1   0.3845  0.8654  0.2566  11.00000  0.05    0.27
Q12   1   0.3358  0.6675  0.1544  11.00000  0.05    0.26
Q13   1   0.8510  0.5453  0.3923  11.00000  0.05    0.26
Q14   1   0.7941  0.4429  0.1393  11.00000  0.05    0.25
Q15   1   0.1575  0.2517  0.0181  11.00000  0.05    0.24
Q16   1   0.9895  0.4783  0.3161  11.00000  0.05    0.24
Q17   1   0.5432  0.2504  0.3839  11.00000  0.05    0.24
Q18   1   0.8877  0.4472  0.2557  11.00000  0.05    0.23
Q19   1   0.0852  0.5015  0.0369  11.00000  0.05    0.21
Q20   1   0.7502  0.5724  0.4259  11.00000  0.05    0.21
;
_shelx_res_checksum              90617
_shelx_hkl_file
;
   0  -1  -1  121.87   23.75
   0   1   1  108.33   21.41
   0  -1  -2  160.29   30.34
   0   1   2  112.17   21.71
   0  -1  -3  433.94   80.42
   0   1   3  268.80   50.61
   0  -2  -2   59.84   14.08
   0   2   2   73.24   16.39
   0  -2  -3   12.31    6.14
   0   2   3   27.15    8.27
   0  -2  -4  303.20   57.13
   0   2   4  305.03   57.44
   0  -2  -5   71.19   15.98
   0   2   5   63.19   14.60
   0  -2  -6   68.68   16.23
   0   2   6   98.45   21.48
   0  -2  -7  106.77   23.55
   0   2   7  100.73   22.48
   0  -3  -2  125.25   26.98
   0  -3  -3  328.00   62.77
   0   3   3  407.32   77.16
   0  -3  -4  361.12   68.45
   0   3   4  519.76   97.26
   0  -3  -5  240.62   46.51
   0   3   5  270.63   51.94
   0  -3  -6   81.23   18.05
   0   3   6  111.44   23.33
   0  -3  -7  191.03   38.15
   0   3   7  258.74   50.36
   0  -3  -8   10.35    7.96
   0   3   8   12.28    8.16
   0  -3  -9  146.94   31.22
   0   3   9  140.81   30.26
   0  -3 -10  155.54   33.22
   0   3  10  226.08   45.89
   0   3  11   35.74   12.35
   0  -4  -3   39.92   13.15
   0   4   3    9.10    9.20
   0  -4  -4   23.39   10.05
   0   4   4   15.52    9.06
   0  -4  -5   76.89   18.31
   0   4   5   57.84   15.08
   0  -4  -6  551.88  103.93
   0   4   6  451.51   85.69
   0  -4  -7   61.75   15.17
   0   4   7   47.21   12.59
   0  -4  -8   34.31   10.38
   0   4   8  145.01   30.08
   0  -4  -9   88.99   20.28
   0   4   9   52.99   13.79
   0  -4 -10   48.23   13.25
   0   4  10   36.06   11.05
   0  -4 -11   28.73   10.32
   0   4  11   20.00    8.51
   0  -5  -4   22.77   10.08
   0   5   4   29.38   11.48
   0  -5  -5   31.14   10.88
   0   5   5   28.50   10.49
   0  -5  -6   38.16   11.62
   0   5   6   11.82    7.00
   0  -5  -7   10.79    6.41
   0   5   7   27.57    9.48
   0  -5  -8   53.61   14.03
   0   5   8   22.49    8.33
   0  -5  -9  152.24   31.99
   0   5   9   47.31   12.90
   0  -6  -4   15.96    9.32
   0  -6  -5   33.68   12.11
   0   6   5   23.99   10.36
  -1   5   9   84.72   17.86
   1  -5  -9  132.75   26.54
  -1   5   8    9.17    4.81
   1  -5  -8   15.01    5.61
   1  -5  -7  155.44   31.21
  -1   4  11   31.89    9.27
  -1   4  10  125.43   25.29
   1  -4 -10   35.54    9.33
  -1   4   9  154.07   29.91
   1  -4  -9  162.12   31.36
  -1   4   8   13.33    4.60
   1  -4  -8   14.98    4.84
   1  -4  -6   21.03    7.09
  -1   3   7  110.34   21.38
  -1   1   3  394.14   72.93
  -1   1   2  531.20   97.90
  -1   1   1  366.70   68.84
   1  -1  -1  515.55   95.79
  -1   1   0  273.19   52.78
   1  -1   0  278.87   53.82
  -1   0   3  388.11   73.46
   1   0  -3  348.49   66.30
   1   0  -2    3.11    7.24
   1   0  -1  286.73   54.58
   1   0   0    8.13    8.57
  -1   0  -1   91.49   20.92
   1   0   1  101.74   22.86
  -1   0  -2  111.53   25.33
   1   0   2  152.88   32.73
  -1   0  -3  441.90   84.62
   1   0   3  523.97   99.45
  -1   0  -4    8.99   11.24
   1   0   4   22.22   12.99
  -1  -1   2  269.53   53.13
   1   1  -2  299.45   58.54
  -1  -1   1  521.32   98.17
   1   1  -1  647.67  121.04
  -1  -1   0  338.33   64.80
   1   1   0  360.11   68.75
  -1  -1  -1  434.68   82.21
  -1  -2   2   93.87   24.01
   1   2  -2  105.22   26.00
  -1  -2   1   78.13   20.46
   1   2  -1   86.64   21.99
  -1  -2   0  524.06   99.63
  -1  -2  -3  405.86   77.80
   1   2   3  465.78   88.67
  -1  -2  -4  187.47   38.54
   1   2   4  340.35   66.11
  -1  -2  -5   97.62   22.81
   1   2   5  137.88   29.87
  -1  -2  -6  159.47   34.11
   1   2   6  117.29   26.62
  -1  -2  -7  292.50   58.73
   1   2   7  313.17   62.36
  -1  -2  -8  162.40   36.04
   1   2   8  180.70   39.41
  -1  -2  -9  137.33   32.30
   1   2   9  202.38   43.74
  -1  -2 -10   66.37   19.94
   1   2  10   55.62   18.21
  -1  -2 -11   15.38   10.86
   1   2  11   15.22   11.20
   1   2  12   14.13   10.59
  -1  -3   1   15.03   11.36
   1   3  -1   20.01   12.28
  -1  -3  -2  115.55   26.23
   1   3   2  166.06   35.33
  -1  -3  -3  260.38   52.18
   1   3   3  184.72   38.55
  -1  -3  -4  230.28   46.68
   1   3   4  240.62   48.54
  -1  -3  -5   72.88   18.45
   1   3   5   70.96   18.11
  -1  -3  -6  180.42   38.10
   1   3   6  255.81   51.61
  -1  -3  -7   67.64   18.42
   1   3   7  142.27   31.57
  -1  -3  -8  112.17   26.51
   1   3   8   69.23   19.06
  -1  -3  -9  234.49   48.76
   1   3   9  214.82   45.21
  -1  -3 -10   62.38   18.16
   1   3  10   70.06   19.31
  -1  -3 -11  191.13   41.71
   1   3  11  127.08   30.18
  -1  -3 -12   48.11   16.21
  -1  -4  -1  303.48   61.81
   1   4   1  284.90   58.54
  -1  -4  -2  161.57   35.87
   1   4   2  223.97   47.12
  -1  -4  -3  147.39   33.00
   1   4   3   92.86   23.30
  -1  -4  -4   13.58    9.60
   1   4   4   16.88    9.97
  -1  -4  -5   51.83   15.55
   1   4   5   20.37   10.13
  -1  -4  -6   72.87   19.05
   1   4   6    6.28    7.40
  -1  -4  -7   48.64   14.49
   1   4   7   54.44   15.54
  -1  -4  -8   30.29   11.34
   1   4   8   19.46    9.15
  -1  -4  -9  375.30   74.26
   1   4   9  361.94   71.83
  -1  -4 -10    6.74    7.15
   1   4  10   34.54   12.43
  -1  -4 -11   47.94   15.11
  -1  -5  -1   19.46   11.70
   1   5   1   36.59   15.14
  -1  -5  -2   34.04   13.71
   1   5   2   35.95   14.18
  -1  -5  -3   19.25   10.46
   1   5   3   24.33   11.48
  -1  -5  -4    7.86    7.76
   1   5   4   19.75   10.06
  -1  -5  -5  265.23   54.68
   1   5   5  547.58  106.04
  -1  -5  -6   32.59   11.89
   1   5   6   58.70   16.84
  -1  -5  -7   50.81   15.11
   1   5   7   24.91   10.17
  -1  -5  -8   29.99   11.18
   1   5   8    3.13    5.65
  -1  -6  -1   53.44   18.17
  -1  -6  -2   48.42   16.73
  -1  -6  -3    8.54    8.38
  -1  -6  -4    5.58    7.26
  -2   3   8   11.24    5.11
   2  -3  -8   14.93    5.71
  -2   3   7   14.68    5.33
   2  -3  -7   11.75    4.84
  -2   3   6   48.94   11.35
   2  -3  -6   57.11   12.61
  -2   3   4   10.59    7.55
   2  -3  -4   40.23   11.49
  -2   2   7  627.72  116.74
   2  -2  -7  428.27   80.53
  -2   2   6  237.15   45.59
   2  -2  -6  252.52   48.36
  -2   2   5  597.53  110.98
   2  -2  -5  415.83   77.98
  -2   2   4  108.33   22.69
   2  -2  -4  116.01   24.04
  -2   2   3  110.52   23.68
  -2   2   2  200.09   40.47
  -2   2   1  294.79   58.17
   2  -2  -1  274.20   54.47
   2  -2   0  585.73  111.44
  -2   1   7   86.35   20.62
  -2   1   6   61.33   15.68
  -2   1   5  291.49   56.51
  -2   1   4  929.55  172.28
  -2   1   3  123.61   26.36
   2  -1  -3  112.53   24.36
  -2   1   2  408.42   77.98
   2  -1  -2  376.49   72.20
   2  -1  -1   82.33   20.33
   2  -1   0   26.07   12.27
  -2   1  -1  167.25   36.34
   2  -1   1   91.77   23.77
  -2   1  -2  192.86   41.58
   2  -1   2  235.22   49.02
  -2   1  -3  267.15   55.33
   2  -1   3  295.15   60.41
  -2   1  -4  351.88   71.04
   2  -1   4  374.47   75.21
   2   0  -6  113.72   26.53
   2   0  -5  111.07   25.73
   2   0  -4  723.60  135.96
   2   0  -3   19.92   10.23
   2   0  -2  298.63   58.66
  -2   0   1   16.20    9.51
   2   0  -1   21.13   10.23
  -2   0   0  769.08  144.28
   2   0   0  743.37  139.71
  -2   0  -1   10.61   10.55
   2   0   1    5.47   10.18
  -2   0  -2  121.13   28.34
   2   0   2  144.28   32.50
  -2   0  -3    7.68   11.89
   2   0   3    7.65   11.18
  -2   0  -4   81.33   22.56
   2   0   4  103.84   26.76
  -2   0  -5    8.67   11.45
   2   0   5   53.41   18.27
  -2   0  -6  273.83   57.54
   2   0   6  325.07   66.81
  -2   0  -7   32.21   15.87
   2   0   7    5.03   12.16
   2   0   8  157.18   37.98
  -2  -1   6   72.07   20.65
  -2  -1   5  145.56   33.19
   2   1  -5  201.56   43.17
  -2  -1   4  432.02   84.38
   2   1  -4  451.33   87.91
  -2  -1   3  126.62   29.16
   2   1  -3  138.06   31.22
  -2  -1   2  143.28   31.79
   2   1  -2  149.41   32.92
  -2  -1   1   56.51   16.59
   2   1  -1   66.67   18.28
  -2  -1   0   12.04    9.95
   2   1   0    9.73    9.77
  -2  -1  -1  238.34   48.80
   2   1   1  296.25   59.24
  -2  -1  -2  284.81   57.53
   2   1   2  320.68   64.00
  -2  -1  -3  324.79   64.95
   2   1   3  407.04   79.84
  -2  -1  -4  836.96  158.19
   2   1   4  995.42  187.01
  -2  -1  -5  301.01   61.34
   2   1   5  257.64   53.57
  -2  -1  -6  507.87   99.45
   2   1   6  482.98   94.97
  -2  -1  -7  122.96   30.56
   2   1   7  152.33   36.03
  -2  -1  -8   76.89   23.24
   2   1   8  105.67   28.32
  -2  -1  -9   35.99   16.83
   2   1   9   47.36   18.82
  -2  -1 -10   10.42   11.84
   2   1  10    5.47   11.04
  -2  -1 -11   70.05   22.21
   2   1  11   58.55   20.33
  -2  -2   5  171.18   38.99
   2   2  -5  234.49   50.40
  -2  -2   4   53.73   17.85
   2   2  -4   47.83   16.99
  -2  -2   3  118.21   28.69
   2   2  -3  145.75   33.63
  -2  -2   2  466.70   91.24
   2   2  -2  561.94  108.51
  -2  -2   1  378.96   75.08
   2   2  -1  460.29   89.81
  -2  -2   0  655.54  125.07
   2   2   0  749.22  142.09
  -2  -2  -1  387.19   76.33
   2   2   1  489.57   94.88
  -2  -2  -2  753.52  142.82
   2   2   2  783.62  148.31
  -2  -2  -3   66.11   18.39
   2   2   3   71.89   19.46
  -2  -2  -4   56.46   17.09
   2   2  11   48.39   17.56
  -2  -3   4   11.50   12.28
   2   3  -4    9.05   12.15
  -2  -3   3  126.99   31.37
   2   3  -3  100.55   26.78
  -2  -3   2  102.75   26.58
   2   3  -2  103.84   26.85
  -2  -3   1   27.08   13.11
   2   3  -1   32.87   14.15
  -2  -3   0  274.93   57.00
   2   3   0  320.95   65.35
  -2  -3  -1   35.95   13.72
   2   3   1   21.25   11.13
  -2  -3  -2  330.92   66.88
   2   3   5   31.92   13.31
  -2  -3  -6   38.21   14.96
   2   3   6  129.64   31.06
  -2  -3  -7   31.70   13.54
   2   3   7   89.86   23.93
  -2  -3  -8   55.99   17.80
   2   3   8   39.48   14.89
  -2  -3  -9  125.80   30.70
   2   3   9  100.64   26.13
  -2  -3 -10  184.08   41.67
   2   3  10  125.62   30.98
  -2  -3 -11   14.86   10.69
  -2  -4   4   10.38   13.06
  -2  -4   3   24.99   15.17
   2   4  -3   12.06   13.73
  -2  -4   2   37.89   16.91
   2   4  -2   40.10   17.46
  -2  -4   1  245.38   53.35
   2   4  -1  161.03   38.23
  -2  -4   0   27.36   14.21
   2   4   0   14.01   12.00
  -2  -4  -1    7.68   10.27
  -2  -4  -4   51.26   16.80
   2   4   4   68.41   19.93
  -2  -4  -5   24.40   11.66
   2   4   5   25.12   11.79
  -2  -4  -6  254.90   53.77
   2   4   6  324.79   66.51
  -2  -4  -7   52.16   16.51
   2   4   7   55.89   17.26
  -2  -4  -8   54.79   17.26
   2   4   8   32.19   12.76
  -2  -4  -9   36.45   13.85
  -2  -4 -10    1.91    6.81
  -2  -5   3   62.00   21.17
   2   5  -3   14.51   12.09
  -2  -5   2  159.01   38.76
   2   5  -2  204.48   47.08
  -2  -5   1   43.74   16.92
   2   5  -1   10.11   10.64
  -2  -5   0   46.01   17.00
   2   5   0   50.65   17.96
  -2  -5  -3   13.54    9.60
   2   5   3   96.89   25.72
  -2  -5  -4   79.32   22.19
   2   5   4   95.43   25.22
  -2  -5  -5   44.85   15.44
   2   5   5   18.73   10.21
  -2  -5  -6  120.13   29.61
  -2  -5  -7   18.83   10.22
  -2  -6   3   10.88   10.81
  -2  -6   2   10.36   10.76
  -2  -6   1   53.28   19.23
  -2  -6   0    4.30    8.33
  -2  -6  -2   28.49   13.28
   3  -5  -7   64.91   15.79
  -3   4  10   15.21    5.61
   3  -4 -10   14.90    5.61
  -3   4   9   83.13   17.80
   3  -4  -9   35.41    9.25
  -3   4   8  124.89   25.71
   3  -4  -8   94.51   20.19
  -3   4   7   66.00   15.53
   3  -4  -7   50.07   12.66
  -3   4   6   84.99   19.58
   3  -4  -6   15.85    7.70
  -3   4   5   43.83   13.16
   3  -4  -5   17.67    8.56
  -3   4   4   62.13   17.05
   3  -4  -4   26.48   10.95
  -3   3  12   20.32    8.40
  -3   3  11    8.03    5.75
   3  -3 -11   13.50    6.76
  -3   3  10    9.09    5.60
   3  -3 -10   22.99    8.09
  -3   3   9  102.75   22.29
   3  -3  -9  136.05   28.29
  -3   3   8   61.43   14.84
   3  -3  -8   71.58   16.65
  -3   3   7  413.36   78.74
   3  -3  -7  381.70   72.98
  -3   3   6   89.26   20.58
   3  -3  -6   63.85   16.10
  -3   3   5   24.71   10.35
   3  -3  -5   41.87   13.07
  -3   3   4    8.07    8.80
   3  -3  -4   16.73    9.79
  -3   3   3  110.25   26.30
  -3   3   2   96.25   24.60
   3  -3  -2  111.07   26.99
  -3   3   1   17.11   12.56
   3  -3  -1   31.82   14.67
   3  -3   0   66.28   20.92
  -3   2  11   51.28   14.95
  -3   2  10   75.88   19.00
   3  -2 -10   90.19   21.60
  -3   2   9   11.02    7.63
   3  -2  -9   14.81    8.16
  -3   2   8   40.18   12.53
   3  -2  -8   57.31   15.43
  -3   2   7  210.34   42.83
   3  -2  -7  286.64   56.62
  -3   2   6   26.91   10.43
  -3   2   5  350.87   68.37
  -3   2   4  394.14   76.51
  -3   2   3   51.82   15.49
   3  -2  -3   10.72    8.86
  -3   2   2  221.87   46.09
   3  -2  -2  187.28   39.87
   3  -2  -1   92.59   23.49
  -3   2   0  124.98   29.86
   3  -2   0   79.63   22.25
  -3   2  -1  323.51   66.11
   3  -2   1  361.85   73.07
  -3   2  -2  404.39   81.44
   3  -2   2  484.45   95.97
  -3   2  -3  105.31   28.65
   3  -2   3  124.15   31.88
  -3   2  -4  195.88   45.13
   3  -2   4  169.08   40.47
  -3   1  10   32.68   13.05
  -3   1   9  139.89   31.89
  -3   1   8  133.94   30.67
   3  -1  -8  143.28   32.25
  -3   1   7   46.66   14.73
   3  -1  -7   59.32   16.93
  -3   1   6   81.16   20.53
   3  -1  -6   43.57   13.82
  -3   1   5  131.29   29.37
   3  -1  -5  160.02   34.47
   3  -1  -4  181.70   38.46
   3  -1  -3  536.23  102.93
   3  -1  -2   56.23   16.79
  -3   1   1  887.65  167.34
   3  -1  -1  813.72  153.89
  -3   1   0   52.95   16.86
   3  -1   0   57.44   17.86
  -3   1  -1   55.93   17.83
   3  -1   1  117.48   28.76
  -3   1  -2   40.44   16.26
   3  -1   2  100.64   26.65
  -3   1  -3   87.86   24.61
   3  -1   3  106.04   28.15
  -3   1  -4   86.32   24.87
   3  -1   4   97.26   26.96
  -3   1  -5   12.56   13.71
   3  -1   5   15.49   14.43
  -3   1  -6   47.65   19.86
   3  -1   6   53.90   21.09
  -3   1  -7   86.62   26.93
   3  -1   7   91.77   27.97
  -3   1  -8   17.84   13.98
   3  -1   8   20.70   15.04
   3   0  -9  154.25   36.02
   3   0  -8    5.45   10.14
   3   0  -7   12.67   10.29
   3   0  -6    5.89    8.54
  -3   0   5  594.14  114.18
   3   0  -5  422.14   83.00
  -3   0   4   32.95   12.53
   3   0  -4   10.82    8.86
  -3   0   3   37.88   13.59
   3   0  -3   64.86   18.40
  -3   0   2  140.81   31.97
   3   0  -2   24.15   11.58
  -3   0   1   27.06   11.99
   3   0  -1   14.20    9.91
  -3   0   0   14.44   10.70
   3   0   0   21.46   11.88
  -3   0  -1  128.91   30.68
   3   0   1  142.91   33.24
  -3   0  -2    5.81    9.79
   3   0   2    5.59   10.20
  -3   0  -3  579.60  112.99
   3   0   3  633.03  122.78
  -3   0  -4    7.64   10.71
   3   0   4   10.83   11.50
  -3   0  -5   16.18   13.62
   3   0   5   14.21   13.65
  -3   0  -6   77.26   24.24
   3   0   6  114.00   31.01
  -3   0  -7  109.97   30.24
   3   0   7  140.81   35.94
  -3   0  -8    9.88   12.70
   3   0   8   55.77   20.75
  -3   0  -9   26.66   15.31
   3   0   9   28.11   15.74
  -3   0 -10   14.91   12.83
   3   0  10   41.49   18.07
  -3   0 -11   50.44   19.91
   3   0  11   88.45   27.24
  -3  -1   9   95.15   26.71
   3   1  -9   60.31   20.78
  -3  -1   8  175.57   40.73
   3   1  -8  141.54   34.72
  -3  -1   7   29.11   14.23
   3   1  -7   37.35   15.69
  -3  -1   6   59.03   18.81
   3   1  -6   74.72   21.64
  -3  -1   5  142.54   33.40
   3   1  -5  174.11   39.20
  -3  -1   4   68.17   19.69
   3   1  -4   32.53   13.43
  -3  -1   3  255.90   53.60
   3   1  -3  334.95   67.95
  -3  -1   2   64.76   19.01
   3   1  -2   47.47   16.03
  -3  -1   1  921.32  174.38
   3   1  -1 1000.00  188.66
  -3  -1   0   57.06   17.68
   3   1   0   58.59   18.04
  -3  -1  -1   88.78   23.50
   3   1   1  122.60   29.62
  -3  -1  -2   23.57   12.56
   3   1   2   16.12   11.39
  -3  -1  -3  300.00   62.32
   3   1   3  245.29   52.46
  -3  -1  -4  163.22   38.03
   3   1   4  168.25   39.01
  -3  -1  -5   23.71   13.75
   3   1   5   14.60   12.53
  -3  -1  -6   45.33   18.06
   3   1   6  101.28   27.97
  -3  -1  -7  122.14   31.85
   3   1   7  143.00   35.71
  -3  -1  -8   21.07   14.06
   3   1   8   66.83   22.45
  -3  -1  -9   25.04   14.10
   3   1   9   94.51   27.43
  -3  -1 -10  108.97   30.02
   3   1  10   42.59   17.60
  -3  -1 -11  217.20   50.50
  -3  -2   9   13.40   12.22
  -3  -2   8   24.96   15.33
   3   2  -8   25.58   15.63
  -3  -2   7  205.49   47.01
   3   2  -7  214.09   48.59
  -3  -2   6   22.72   14.01
   3   2  -6   10.10   12.06
  -3  -2   5  227.72   50.13
   3   2  -5  254.44   55.01
  -3  -2   4  216.01   47.67
   3   2  -4  252.70   54.40
  -3  -2   3   21.20   12.11
   3   2  -3   26.13   13.07
  -3  -2   2  143.64   34.09
   3   2  -2  178.77   40.44
  -3  -2   1  109.42   27.74
   3   2  -1  136.51   32.64
  -3  -2   0   43.19   15.81
   3   2   0   30.78   13.71
  -3  -2  -1  388.38   78.45
   3   2   1  440.62   87.96
  -3  -2  -2  620.68  120.77
   3   2   2  902.29  171.91
  -3  -2  -3  128.91   31.64
   3   2   3  261.39   55.65
  -3  -2  -4  119.95   30.55
   3   2   4  158.46   37.49
  -3  -2  -5   14.58   12.22
   3   2   5   77.75   23.23
  -3  -2  -6   10.87   11.61
   3   2   6   54.34   19.41
  -3  -2  -7  183.53   42.58
   3   2   7  157.55   38.04
  -3  -2  -8  116.29   30.39
   3   2   8  166.61   39.70
  -3  -2  -9   39.96   16.18
   3   2   9   39.89   16.28
  -3  -2 -10   74.25   23.34
  -3  -2 -11   21.16   13.04
  -3  -3   8    9.84   11.50
  -3  -3   7  182.25   43.67
   3   3  -7  210.89   49.06
  -3  -3   6   64.14   22.05
   3   3  -6   61.54   21.73
  -3  -3   5   36.05   16.93
   3   3  -5   36.08   17.05
  -3  -3   4    8.47   11.92
   3   3  -4   11.56   12.61
  -3  -3   3  122.14   31.75
   3   3  -3  100.18   27.94
  -3  -3   2  111.07   29.40
   3   3  -2  142.18   35.05
  -3  -3   1   73.27   22.38
   3   3  -1   94.14   26.11
  -3  -3   0  107.87   28.65
   3   3   0   76.98   23.10
  -3  -3  -1   85.08   24.32
   3   3   1   89.63   25.12
  -3  -3  -2   62.24   20.27
   3   3   2   83.73   24.11
  -3  -3  -3  111.99   29.27
   3   3   3   61.54   20.21
  -3  -3  -4   18.64   11.96
   3   3   4   16.87   11.67
  -3  -3  -5  416.65   84.60
   3   3   5  407.41   82.93
  -3  -3  -6   83.95   24.00
   3   3   6  219.85   48.94
  -3  -3  -7   97.90   26.57
  -3  -4   7   22.64   14.01
   3   4  -7   26.19   14.84
  -3  -4   6    9.92   11.22
   3   4  -6    7.08   11.10
  -3  -4   5   93.23   27.30
   3   4  -5   70.30   23.07
  -3  -4   4   18.47   12.81
   3   4  -4   48.69   18.83
  -3  -4   3  100.73   28.28
   3   4  -3  160.75   39.36
  -3  -4   2   28.79   14.74
   3   4  -2   23.80   13.82
  -3  -4   1    8.78   10.24
   3   4  -1   55.88   19.50
  -3  -4   0   35.42   15.36
   3   4   0   33.18   15.06
  -3  -4  -1  262.49   57.12
   3   4   1  327.81   69.03
  -3  -4  -2   48.09   17.28
   3   4   2   68.86   21.36
  -3  -4  -3   40.05   15.54
   3   4   3   68.22   20.99
  -3  -4  -4   99.18   26.73
   3   4   4   33.67   14.19
  -3  -5   7   25.17   14.66
  -3  -5   6   15.66   12.64
   3   5  -6    7.39   10.70
  -3  -5   5  121.96   33.51
   3   5  -5   78.23   25.26
  -3  -5   4   16.30   12.23
   3   5  -4   14.10   11.85
  -3  -5   3  176.49   43.04
   3   5  -3  122.69   33.09
  -3  -5   2   17.45   11.83
   3   5  -2    7.54    9.83
  -3  -5   1    6.96    9.24
   3   5  -1    9.80    9.98
  -3  -5   0    5.89    8.57
   3   5   0    4.02    8.20
  -3  -5  -1   87.72   25.37
   3   5   1  146.66   36.52
  -3  -5  -2    7.08    8.67
  -3  -5  -3  107.41   28.88
  -4   5   4   20.14   10.57
   4  -5  -4    9.82    8.53
  -4   4   8   58.52   15.58
   4  -4  -8   40.08   12.20
  -4   4   7   38.22   12.18
   4  -4  -7   56.90   15.61
  -4   4   6  239.07   49.21
   4  -4  -6  206.13   43.22
  -4   4   5   12.19    8.75
   4  -4  -5   16.55    8.90
  -4   4   4   76.01   20.62
  -4   4   3   66.53   19.39
  -4   4   2   66.79   20.06
   4  -4  -2   24.81   12.31
   4  -4  -1   16.08   11.13
  -4   4   0   17.85   11.63
   4  -4   0   19.78   12.43
   4  -4   1   49.88   18.38
  -4   3  10   39.61   12.31
   4  -3 -10   58.45   15.83
  -4   3   9   62.36   16.56
   4  -3  -9   76.21   19.09
  -4   3   8   93.78   22.42
   4  -3  -8  115.65   26.42
  -4   3   7    6.29    6.34
   4  -3  -7    4.23    5.76
  -4   3   6  176.49   37.99
   4  -3  -6   96.62   23.46
  -4   3   5  165.97   36.52
  -4   3   4   44.21   14.81
   4  -3  -4   23.71   11.06
  -4   3   3   41.76   14.96
   4  -3  -3   32.35   13.23
   4  -3  -2  265.78   56.01
   4  -3  -1   57.10   19.23
  -4   3   0   96.71   26.41
   4  -3   0   67.63   21.28
  -4   3  -1   60.53   20.43
   4  -3   1   93.60   26.34
  -4   3  -2   33.32   15.78
   4  -3   2   58.01   20.47
  -4   3  -3   40.45   17.47
   4  -3   3   48.06   18.81
  -4   3  -4  248.67   55.99
   4  -3   4  124.79   33.47
   4  -3   5    2.88   10.22
  -4   2  12   15.67    8.91
   4  -2 -12   14.23    8.62
  -4   2  11   46.94   14.71
   4  -2 -11   64.69   18.05
  -4   2  10   28.02   10.97
   4  -2 -10   22.13    9.80
  -4   2   9   53.82   15.87
  -4   2   8   23.13   10.21
  -4   2   7   34.23   12.39
  -4   2   6  115.00   27.37
   4  -2  -6  104.48   25.44
  -4   2   5  177.40   38.98
   4  -2  -5  187.10   40.70
  -4   2   4   92.77   24.25
   4  -2  -4   90.18   23.81
   4  -2  -3   29.86   13.69
   4  -2  -2   88.28   24.42
  -4   2   1  147.03   35.11
   4  -2  -1  277.40   58.72
  -4   2   0   70.67   21.92
   4  -2   0   67.07   21.45
  -4   2  -1   21.60   14.55
   4  -2   1   19.02   14.39
  -4   2  -2   53.80   20.01
   4  -2   2  100.82   28.67
  -4   2  -3   16.82   13.22
   4  -2   3   18.40   13.84
  -4   2  -4   15.72   13.39
   4  -2   4   14.50   13.02
  -4   2  -5  240.99   54.79
   4  -2   5  371.18   78.54
  -4   2  -6    1.97   10.65
   4  -2   6    1.95   10.56
  -4   2  -7   82.81   26.42
   4  -2   7   74.31   25.00
  -4   2  -8   24.45   15.16
   4  -2   8   22.84   15.01
   4  -2   9    6.77   11.42
  -4   1  12   11.36    8.88
   4  -1 -12   35.72   13.84
  -4   1  11   56.16   17.66
   4  -1 -11  138.06   32.81
  -4   1  10    9.29    8.28
   4  -1 -10    5.09    7.28
  -4   1   9   49.98   16.14
   4  -1  -9   68.02   19.47
  -4   1   8  247.12   52.19
   4  -1  -8  170.63   38.24
   4  -1  -7  130.74   31.03
   4  -1  -6   74.17   20.94
   4  -1  -5   87.32   23.48
  -4   1   4  271.27   56.75
   4  -1  -4  362.03   73.23
  -4   1   3  359.10   72.87
   4  -1  -3  468.53   92.77
  -4   1   2   32.69   14.60
   4  -1  -2  144.37   34.39
  -4   1   1  102.84   27.15
   4  -1  -1  128.45   31.76
  -4   1   0  209.52   46.82
   4  -1   0  108.14   28.73
  -4   1  -1   97.90   27.10
   4  -1   1  110.43   29.50
  -4   1  -2  244.19   53.85
   4  -1   2  215.65   48.79
  -4   1  -3   96.07   27.48
   4  -1   3  109.42   30.07
  -4   1  -4  227.36   51.81
   4  -1   4  231.11   52.59
  -4   1  -5   85.27   26.11
   4  -1   5   75.64   24.77
  -4   1  -6   46.82   18.92
   4  -1   6   45.03   18.79
  -4   1  -7   20.94   14.16
   4  -1   7   33.37   16.51
  -4   1  -8   24.04   14.86
   4  -1   8   17.65   13.76
  -4   1  -9   23.93   14.88
   4  -1   9   24.31   15.24
  -4   1 -10    8.82   11.85
   4  -1  10    1.29    9.99
  -4   0  13    4.90    8.42
  -4   0  12  264.41   57.46
   4   0 -12  252.24   55.33
  -4   0  11    4.16    7.74
   4   0 -11    8.78    9.10
  -4   0  10   65.33   20.13
   4   0 -10   70.44   21.20
  -4   0   9   16.89   10.73
   4   0  -9   13.07   10.03
  -4   0   8  104.94   27.28
   4   0  -8  146.84   35.01
  -4   0   7   18.45   11.42
   4   0  -7    4.99    9.08
  -4   0   6   98.81   26.35
   4   0  -6   68.64   20.89
  -4   0   5    8.20   10.05
   4   0  -5   40.96   15.80
  -4   0   4  270.27   57.29
   4   0  -4  286.46   60.23
  -4   0   3   19.73   12.12
   4   0  -3  182.98   41.48
  -4   0   2  240.62   51.99
   4   0  -2  225.43   49.27
  -4   0   1   19.34   12.04
   4   0  -1   28.16   13.69
  -4   0   0  257.55   55.64
   4   0   0  267.43   57.43
  -4   0  -1   70.82   22.25
   4   0   1   49.52   18.59
  -4   0  -2  650.69  127.72
   4   0   2  675.02  132.11
  -4   0  -3    9.13   12.11
   4   0   3   14.17   13.52
  -4   0  -4   43.16   18.08
   4   0   4   39.83   17.87
  -4   0  -5    2.55   10.21
   4   0   5    2.99   10.73
  -4   0  -6   83.94   26.03
   4   0   6   96.62   28.09
  -4   0  -7   28.03   15.36
   4   0   7   16.74   13.35
  -4   0  -8   50.60   19.69
   4   0   8   65.64   22.96
  -4   0  -9   17.37   12.88
   4   0   9   11.62   11.81
  -4   0 -10  222.42   52.82
   4   0  10  239.25   55.92
  -4  -1  13    4.93    8.60
  -4  -1  12   12.00   10.60
   4   1 -12    5.85    9.28
  -4  -1  11   34.90   15.33
   4   1 -11   87.76   25.64
  -4  -1  10    9.90    9.68
   4   1 -10   11.38   10.26
  -4  -1   9   35.92   15.30
   4   1  -9   86.00   24.91
  -4  -1   8  164.50   39.24
   4   1  -8  168.62   40.06
  -4  -1   7  103.29   27.93
   4   1  -7   96.16   26.73
  -4  -1   6  134.68   33.61
   4   1  -6   84.41   24.51
  -4  -1   5   73.10   22.51
   4   1  -5   74.49   22.76
  -4  -1   4  296.07   62.78
   4   1  -4  306.95   64.81
  -4  -1   3  343.37   71.39
   4   1  -3  329.83   68.90
  -4  -1   2   22.48   13.29
   4   1  -2   17.56   12.45
  -4  -1   1   97.26   26.78
   4   1  -1   83.71   24.36
  -4  -1   0  141.90   34.90
   4   1   0  177.04   41.30
  -4  -1  -1  128.00   32.60
   4   1   1  139.07   34.63
  -4  -1  -2  297.16   63.70
   4   1   2  358.65   74.87
  -4  -1  -3   52.16   19.51
   4   1   3   71.54   23.03
  -4  -1  -4  231.47   52.27
   4   1   4  198.08   46.15
  -4  -1  -5    3.35   10.09
   4   1   5    4.56   10.73
  -4  -1  -6   61.20   20.95
   4   1   6   62.94   21.51
  -4  -1  -7    6.86    9.83
   4   1   7    6.81   10.14
  -4  -1  -8   33.39   15.61
   4   1   8   23.41   13.72
  -4  -1  -9   40.92   17.87
   4   1   9   47.53   18.89
  -4  -2  12    6.09    9.49
  -4  -2  11   27.91   14.54
   4   2 -11   21.61   13.46
  -4  -2  10   72.59   23.41
   4   2 -10   24.12   13.73
  -4  -2   9   11.23   10.47
   4   2  -9   54.21   19.60
  -4  -2   8   28.60   14.47
   4   2  -8   76.58   23.89
  -4  -2   7   23.77   13.44
   4   2  -7   22.86   13.41
  -4  -2   6   72.39   22.93
   4   2  -6   60.23   20.73
  -4  -2   5  159.47   38.86
   4   2  -5  191.13   44.68
  -4  -2   4   88.53   25.86
   4   2  -4  164.78   39.81
  -4  -2   3   96.34   27.30
   4   2  -3  117.48   31.13
  -4  -2   2  155.72   37.99
   4   2  -2  145.56   36.19
  -4  -2   1  181.98   42.85
   4   2  -1  167.89   40.29
  -4  -2   0   68.86   22.30
   4   2   0   90.30   26.19
  -4  -2  -1   40.55   16.82
   4   2   1   81.37   24.51
  -4  -2  -2   22.96   13.37
   4   2   2   23.82   13.55
  -4  -2  -3   16.33   11.78
   4   2   3   24.53   13.54
  -4  -2  -4   26.31   14.00
   4   2   4   30.78   15.08
  -4  -2  -5  147.21   36.79
   4   2   5  167.15   40.58
  -4  -2  -6    2.15    8.53
   4   2   6    5.85    9.35
  -4  -2  -7   53.95   19.56
   4   2   7  131.47   34.44
  -4  -2  -8   39.58   16.78
  -4  -2  -9   36.68   16.35
  -4  -3  10   46.03   18.87
   4   3 -10  134.40   36.26
  -4  -3   9   30.81   15.50
   4   3  -9   44.56   18.46
  -4  -3   8   90.34   27.15
   4   3  -8   72.60   23.77
  -4  -3   7   35.52   16.18
   4   3  -7   43.76   18.00
  -4  -3   6   24.48   13.82
   4   3  -6   47.69   18.63
  -4  -3   5  211.89   49.22
   4   3  -5  229.73   52.62
  -4  -3   4   29.25   14.64
   4   3  -4   30.42   14.97
  -4  -3   3   31.09   14.93
   4   3  -3   23.93   13.58
  -4  -3   2  291.22   63.36
   4   3  -2  289.20   63.02
  -4  -3   1    5.16    9.31
   4   3  -1    7.57   10.19
  -4  -3   0  115.92   30.92
   4   3   0  124.98   32.65
  -4  -3  -1  132.39   33.97
   4   3   1   91.58   26.36
  -4  -3  -2   66.59   21.64
   4   3   2  112.90   30.37
  -4  -3  -3   87.22   25.44
   4   3   3  128.09   33.14
  -4  -3  -4   21.94   12.27
   4   3   4    9.52    9.39
  -4  -3  -5   16.17   11.08
   4   3   5    9.22    9.54
  -4  -3  -6  186.00   44.39
   4   3   6  314.27   67.99
  -4  -3  -7  100.64   28.56
  -4  -4   8   29.95   15.68
   4   4  -8   29.31   15.65
  -4  -4   7   18.85   12.90
   4   4  -7   20.59   13.48
  -4  -4   6  109.70   31.28
   4   4  -6  114.09   32.16
  -4  -4   5    3.80    8.93
   4   4  -5    7.63   10.11
  -4  -4   4  135.13   35.60
   4   4  -4  144.65   37.49
  -4  -4   3   36.52   16.09
   4   4  -3   29.14   14.59
  -4  -4   2   18.35   11.99
   4   4  -2   28.33   14.28
  -4  -4   1   11.88   10.42
   4   4  -1   17.83   11.89
  -4  -4   0   27.51   14.01
   4   4   0   46.95   18.11
  -4  -4  -1   86.00   25.59
   4   4   1   95.52   27.47
  -4  -4  -2   34.36   15.24
   4   4   2   24.40   13.10
  -4  -4  -3   15.98   11.20
   4   4   3   22.31   12.70
  -4  -4  -4  163.13   40.25
  -4  -4  -5  214.73   49.80
  -4  -5   2  106.22   30.50
  -4  -5   1   10.37   10.14
   5  -4  -3  169.26   39.79
   5  -4  -2   16.19   11.39
  -5   4   1    9.98    9.81
   5  -4  -1    5.16    8.80
  -5   4   0    3.62    8.83
   5  -4   0    7.64    9.75
  -5   3   7   50.44   16.19
  -5   3   6  132.66   31.77
   5  -3  -6   58.98   18.07
  -5   3   5    7.29    8.17
   5  -3  -5   24.83   11.55
   5  -3  -4   20.82   11.14
   5  -3  -3   64.73   20.06
  -5   3   2   97.62   26.56
   5  -3  -2  138.88   34.29
  -5   3   1  136.05   34.30
   5  -3  -1  148.03   36.40
  -5   3   0   75.99   23.55
   5  -3   0   58.98   20.45
  -5   3  -1   86.19   25.70
   5  -3   1   60.86   21.19
  -5   3  -2   10.97   10.81
   5  -3   2   10.08   10.84
  -5   3  -3   22.99   13.97
   5  -3   3   25.71   14.52
  -5   3  -4   41.46   18.28
   5  -3   4   38.79   17.91
  -5   2   9   93.87   24.65
   5  -2  -9   74.35   20.94
  -5   2   8   41.90   14.76
   5  -2  -8   39.66   14.34
  -5   2   7   14.12    9.05
   5  -2  -7   53.81   17.15
   5  -2  -6  104.30   26.83
   5  -2  -5   39.81   14.70
  -5   2   4   63.71   19.74
   5  -2  -4  220.77   48.78
  -5   2   3  117.02   29.93
   5  -2  -3  123.15   31.10
  -5   2   2   42.82   16.39
   5  -2  -2   50.59   17.98
  -5   2   1   11.37    9.94
   5  -2  -1   10.39   10.17
  -5   2   0   38.49   15.88
   5  -2   0   24.86   13.36
  -5   2  -1    8.11    9.64
   5  -2   1    1.18    8.26
  -5   2  -2   17.76   12.64
   5  -2   2   17.76   12.20
  -5   2  -3   57.10   20.87
   5  -2   3   76.62   24.74
  -5   2  -4   86.04   26.66
   5  -2   4   58.20   21.56
  -5   2  -5   34.27   16.57
   5  -2   5   15.42   12.61
  -5   2  -6   15.01   12.64
   5  -2   6   17.54   13.28
   5  -1 -10   14.81    9.75
   5  -1  -9   75.90   22.01
   5  -1  -8   19.22   10.63
  -5   1   7   22.10   11.36
   5  -1  -7   34.82   14.04
  -5   1   6   91.02   24.90
   5  -1  -6  129.28   32.08
  -5   1   5   71.22   21.25
   5  -1  -5   86.79   24.26
  -5   1   4   14.52   10.13
   5  -1  -4   38.26   15.05
  -5   1   3   12.86   10.32
   5  -1  -3    7.29    8.79
  -5   1   2   40.60   16.21
   5  -1  -2   78.82   23.55
  -5   1   1  163.31   39.38
   5  -1  -1  160.29   38.83
  -5   1   0   22.28   13.11
   5  -1   0   40.57   16.68
  -5   1  -1   44.94   17.70
   5  -1   1   28.25   14.58
  -5   1  -2   22.86   13.16
   5  -1   2   12.53   11.36
  -5   1  -3   20.89   13.02
   5  -1   3   14.25   11.88
  -5   1  -4   52.30   19.66
   5  -1   4   55.76   20.56
  -5   1  -5    8.63   11.24
   5  -1   5   20.27   13.43
  -5   1  -6   57.53   21.69
   5  -1   6   57.76   21.91
  -5   1  -7   56.01   21.54
   5  -1   7   63.13   23.29
  -5   0  11    6.12    8.18
   5   0 -11   20.88   11.87
  -5   0  10    1.27    6.70
   5   0 -10    1.50    7.03
  -5   0   9  172.74   40.98
   5   0  -9  238.70   53.16
  -5   0   8   25.48   12.64
   5   0  -8   20.50   11.54
  -5   0   7   22.35   11.85
   5   0  -7   20.04   11.52
  -5   0   6    8.87    9.18
   5   0  -6   12.32    9.95
  -5   0   5  469.99   95.24
   5   0  -5  523.33  104.94
  -5   0   4   11.30   10.02
   5   0  -4   10.18    9.96
  -5   0   3   99.73   27.47
   5   0  -3  153.98   37.54
  -5   0   2    5.84    8.84
   5   0  -2   27.22   13.57
  -5   0   1    8.01    9.48
   5   0  -1    3.63    8.60
  -5   0   0    4.24    9.30
   5   0   0    9.39   10.56
  -5   0  -1   61.14   20.90
   5   0   1   30.52   14.89
  -5   0  -2   30.88   15.31
   5   0   2   80.22   24.85
  -5   0  -3  424.52   88.57
   5   0   3  455.81   94.33
  -5   0  -4   20.23   13.01
   5   0   4   26.31   14.58
  -5   0  -5   88.63   27.01
   5   0   5  100.64   29.42
  -5   0  -6    5.17    9.40
   5   0   6    7.82   10.40
  -5   0  -7  123.33   34.32
   5   0   7  157.73   40.82
  -5  -1  10   13.85   10.72
   5   1 -10    8.11    9.38
  -5  -1   9   48.03   18.02
   5   1  -9   87.60   25.92
  -5  -1   8    5.47    8.23
   5   1  -8    5.66    8.48
  -5  -1   7   22.30   12.43
   5   1  -7   41.81   16.71
  -5  -1   6   71.89   22.60
   5   1  -6   78.01   23.82
  -5  -1   5   67.62   21.72
   5   1  -5  111.44   30.11
  -5  -1   4   41.01   16.58
   5   1  -4   22.76   12.75
  -5  -1   3   13.55   10.90
   5   1  -3    7.86    9.63
  -5  -1   2   50.59   18.62
   5   1  -2  105.03   29.08
  -5  -1   1  193.50   45.57
   5   1  -1  154.16   38.33
  -5  -1   0   28.29   14.08
   5   1   0   25.47   13.52
  -5  -1  -1   27.16   13.87
   5   1   1   33.49   15.29
  -5  -1  -2   21.67   13.18
   5   1   2   25.71   14.13
  -5  -1  -3  117.48   32.03
   5   1   3  117.20   32.07
  -5  -1  -4   44.81   18.06
   5   1   4   36.37   16.42
  -5  -1  -5    8.89   10.57
   5   1   5    9.79   11.08
  -5  -1  -6  101.92   29.83
   5   1   6  123.61   34.15
  -5  -1  -7  121.59   33.91
   5   1   7  129.74   35.55
  -5  -2   9   52.14   19.63
   5   2  -9   48.59   19.02
  -5  -2   8   37.55   16.41
   5   2  -8   26.45   14.16
  -5  -2   7    9.29    9.62
   5   2  -7    7.22    9.24
  -5  -2   6   41.65   17.04
   5   2  -6   57.03   20.30
  -5  -2   5   87.31   26.19
   5   2  -5   94.14   27.50
  -5  -2   4   93.69   27.28
   5   2  -4   84.88   25.74
  -5  -2   3   90.85   26.77
   5   2  -3   62.48   21.28
  -5  -2   2   38.69   16.47
   5   2  -2   48.80   18.56
  -5  -2   1   12.42   10.52
   5   2  -1   10.58   10.24
  -5  -2   0   18.95   12.16
   5   2   0   30.69   14.79
  -5  -2  -1   12.76   10.49
   5   2   1    7.51    9.36
  -5  -2  -2   37.88   16.19
   5   2   2   27.56   14.10
  -5  -2  -3   46.81   18.29
   5   2   3   65.60   22.12
  -5  -2  -4   99.82   29.09
   5   2   4  232.48   53.98
  -5  -2  -5  100.55   29.37
   5   2   5   23.84   13.82
  -5  -2  -6   18.94   12.61
  -5  -3   7   77.21   25.12
   5   3  -7   97.44   29.20
  -5  -3   6   65.01   22.48
   5   3  -6   65.23   22.60
  -5  -3   5   67.19   22.74
   5   3  -5   23.98   13.62
  -5  -3   4    4.76    8.75
   5   3  -4    6.48    9.35
  -5  -3   3   56.63   20.58
   5   3  -3   51.09   19.52
  -5  -3   2  105.22   30.04
   5   3  -2  140.90   36.86
  -5  -3   1  158.19   40.11
   5   3  -1  199.09   47.72
  -5  -3   0  147.12   38.03
   5   3   0  159.10   40.33
  -5  -3  -1   32.97   15.59
   5   3   1   40.38   17.26
  -5  -3  -2   19.41   12.24
   5   3   2   19.17   12.43
  -5  -3  -3   14.00   10.98
   5   3   3    8.39    9.60
  -5  -3  -4   58.22   20.97
  -6   2   4   45.15   17.22
   6  -2  -4   29.01   13.99
  -6   2   3   37.58   15.83
   6  -2  -3   87.25   25.77
  -6   2   2   31.05   14.87
   6  -2  -2   31.87   14.95
  -6   2   1   29.37   14.56
   6  -2  -1   79.64   24.93
  -6   2   0    3.94    8.31
   6  -2   0   23.92   13.61
  -6   1   6  158.10   38.92
   6  -1  -6  123.51   32.53
  -6   1   5   95.43   27.20
   6  -1  -5   75.45   23.39
  -6   1   4   45.36   17.35
   6  -1  -4   16.77   11.10
  -6   1   3   10.84    9.84
   6  -1  -3   10.84    9.62
  -6   1   2   15.44   11.23
   6  -1  -2   18.37   12.02
  -6   1   1   70.92   23.18
   6  -1  -1   67.09   22.47
  -6   1   0   16.95   12.07
   6  -1   0   16.14   11.86
  -6   1  -1   41.88   17.84
   6  -1   1   45.54   18.75
  -6   1  -2   98.63   29.31
   6  -1   2   75.76   25.06
  -6   0   7   87.23   26.07
   6   0  -7   15.39   10.95
  -6   0   6   21.27   12.47
   6   0  -6   20.00   12.21
  -6   0   5   10.59    9.70
   6   0  -5    7.90    9.07
  -6   0   4   61.37   21.00
   6   0  -4   71.85   23.21
  -6   0   3    1.84    7.36
   6   0  -3    8.44    9.44
  -6   0   2  252.33   57.46
   6   0  -2  268.80   60.49
  -6   0   1    7.70    9.50
   6   0  -1    6.60    8.89
  -6   0   0   42.24   17.80
   6   0   0   30.01   15.19
  -6   0  -1   11.46   10.78
   6   0   1   19.70   12.94
  -6   0  -2   29.84   15.30
   6   0   2   26.25   14.54
  -6  -1   6  172.64   42.99
   6   1  -6  121.23   33.36
  -6  -1   5   69.27   23.14
   6   1  -5   68.48   22.96
  -6  -1   4   11.29   10.33
   6   1  -4   21.58   12.98
  -6  -1   3   26.46   14.00
   6   1  -3   18.90   12.28
  -6  -1   2   15.61   11.35
   6   1  -2   22.44   13.24
  -6  -1   1   69.29   23.28
   6   1  -1   67.35   22.90
  -6  -1   0   40.60   17.39
   6   1   0   41.59   17.62
  -6  -1  -1   47.23   19.11
   6   1   1   52.18   19.98
  -6  -1  -2   36.32   17.02
   6   1   2   30.61   15.78
  -6  -2   3   58.31   21.41
   6   2  -3   57.91   21.36
  -6  -2   2   26.19   14.40
   6   2  -2   21.58   13.39
  -6  -2   1   24.17   13.96
   6   2  -1   43.49   18.34
   0   0   0    0.00    0.00
;
_shelx_hkl_checksum              11407
loop_
_space_group_symop_operation_xyz
'x, y, z'
'-x+1/2, y+1/2, -z+1/2'
'-x, -y, -z'
'x-1/2, -y-1/2, z-1/2'
loop_
_atom_site_label
_atom_site_type_symbol
_atom_site_fract_x
_atom_site_fract_y
_atom_site_fract_z
_atom_site_U_iso_or_equiv
_atom_site_adp_type
_atom_site_occupancy
_atom_site_site_symmetry_order
_atom_site_calc_flag
Se1 Se 0.5189(10) 0.3569(13) 0.3344(6) 0.0010(16) Uiso 1 1 d
Fe1 Fe 0.4581(12) 0.2558(13) 0.0726(7) 0.0031(17) Uiso 1 1 d
O1 O 0.329(3) 0.620(4) 0.3480(18) 0.007(4) Uiso 1 1 d
O2 O 0.810(3) 0.438(4) 0.427(2) 0.011(4) Uiso 1 1 d
O3 O 0.620(3) 0.424(4) 0.2102(17) 0.004(4) Uiso 1 1 d
F1 F 0.269(3) 0.568(4) 0.0159(18) 0.011(4) Uiso 1 1 d
loop_
_atom_type_symbol
_atom_type_description
_atom_type_scat_dispersion_real
_atom_type_scat_dispersion_imag
_atom_type_scat_source
O O 0.0000 0.0000 'International Tables Vol C Tables 4.2.6.8 and 6.1.1.4'
F F 0.0000 0.0000 'International Tables Vol C Tables 4.2.6.8 and 6.1.1.4'
Fe Fe 0.0000 0.0000 'International Tables Vol C Tables 4.2.6.8 and 6.1.1.4'
Se Se 0.0000 0.0000 'International Tables Vol C Tables 4.2.6.8 and 6.1.1.4'
loop_
_geom_angle_atom_site_label_1
_geom_angle_atom_site_label_2
_geom_angle_atom_site_label_3
_geom_angle
_geom_angle_site_symmetry_1
_geom_angle_site_symmetry_3
O3 Se1 O1 99.0(10) . .
O3 Se1 O2 101.5(9) . .
O1 Se1 O2 99.5(10) . .
O3 Fe1 F1 92.6(9) . .
O3 Fe1 O1 89.4(8) . 2_545
F1 Fe1 O1 97.3(8) . 2_545
O3 Fe1 O2 101.6(8) . 2_645
F1 Fe1 O2 158.4(10) . 2_645
O1 Fe1 O2 99.1(8) 2_545 2_645
O3 Fe1 F1 90.9(8) . 3_665
F1 Fe1 F1 76.3(8) . 3_665
O1 Fe1 F1 173.6(8) 2_545 3_665
O2 Fe1 F1 87.1(8) 2_645 3_665
O3 Fe1 O2 176.2(8) . 4_565
F1 Fe1 O2 90.6(9) . 4_565
O1 Fe1 O2 92.2(8) 2_545 4_565
O2 Fe1 O2 74.7(9) 2_645 4_565
F1 Fe1 O2 87.8(8) 3_665 4_565
Se1 O1 Fe1 142.9(12) . 2
Se1 O2 Fe1 128.1(13) . 2_655
Se1 O2 Fe1 126.3(12) . 4_666
Fe1 O2 Fe1 105.3(9) 2_655 4_666
Se1 O3 Fe1 121.6(10) . .
Fe1 F1 Fe1 103.7(8) . 3_665
loop_
_geom_bond_atom_site_label_1
_geom_bond_atom_site_label_2
_geom_bond_distance
_geom_bond_site_symmetry_2
Se1 O3 1.68(2) .
Se1 O1 1.682(19) .
Se1 O2 1.75(2) .
Fe1 O3 1.95(2) .
Fe1 F1 1.95(2) .
Fe1 O1 1.951(19) 2_545
Fe1 O2 2.02(2) 2_645
Fe1 F1 2.05(2) 3_665
Fe1 O2 2.06(2) 4_565
O1 Fe1 1.951(19) 2
O2 Fe1 2.02(2) 2_655
O2 Fe1 2.06(2) 4_666
F1 Fe1 2.05(2) 3_665

_cod_database_fobs_code 2300637
