#------------------------------------------------------------------------------
#$Date: 2018-07-06 05:20:27 +0300 (Fri, 06 Jul 2018) $
#$Revision: 208877 $
#$URL: file:///home/coder/svn-repositories/cod/cif/2/30/06/2300635.cif $
#------------------------------------------------------------------------------
#
# This file is available in the Crystallography Open Database (COD),
# http://www.crystallography.net/. The original data for this entry
# were provided by IUCr Journals, http://journals.iucr.org/.
#
# The file may be used within the scientific community so long as
# proper attribution is given to the journal article from which the
# data were obtained.
#
data_2300635
loop_
_publ_author_name
'Wang, Yunchen'
'Yang, Taimin'
'Xu, Hongyi'
'Zou, Xiaodong'
'Wan, Wei'
_publ_section_title
;
 On the quality of the continuous rotation electron diffraction data for
 accurate atomic structure determination of inorganic compounds
;
_journal_issue                   4
_journal_name_full               'Journal of Applied Crystallography'
_journal_page_first
;
;
_journal_paper_doi               10.1107/S1600576718007604
_journal_volume                  51
_journal_year                    2018
_chemical_formula_sum            'F Fe O3 Se'
_chemical_formula_weight         201.80
_space_group_crystal_system      monoclinic
_space_group_IT_number           14
_space_group_name_Hall           '-P 2yn'
_space_group_name_H-M_alt        'P 1 21/n 1'
_symmetry_space_group_name_Hall  '-P 2yn'
_symmetry_space_group_name_H-M   'P 1 21/n 1'
_audit_creation_method           SHELXL-2014/7
_cell_angle_alpha                90
_cell_angle_beta                 97.87(3)
_cell_angle_gamma                90
_cell_formula_units_Z            4
_cell_length_a                   4.9560(10)
_cell_length_b                   5.2020(10)
_cell_length_c                   12.040(2)
_cell_measurement_reflns_used    714
_cell_measurement_temperature    293(2)
_cell_measurement_theta_max      0.926
_cell_measurement_theta_min      0.151
_cell_volume                     307.48(10)
_computing_structure_refinement  'SHELXL-2014/7 (Sheldrick, 2014)'
_diffrn_ambient_temperature      293(2)
_diffrn_measured_fraction_theta_full 0.712
_diffrn_measured_fraction_theta_max 0.704
_diffrn_measurement_device_type  'JEOL JEM-2100'
_diffrn_radiation_wavelength     0.0251
_diffrn_reflns_av_R_equivalents  0.2095
_diffrn_reflns_av_unetI/netI     0.1866
_diffrn_reflns_Laue_measured_fraction_full 0.712
_diffrn_reflns_Laue_measured_fraction_max 0.704
_diffrn_reflns_limit_h_max       6
_diffrn_reflns_limit_h_min       -6
_diffrn_reflns_limit_k_max       6
_diffrn_reflns_limit_k_min       -6
_diffrn_reflns_limit_l_max       13
_diffrn_reflns_limit_l_min       -13
_diffrn_reflns_number            1319
_diffrn_reflns_point_group_measured_fraction_full 0.712
_diffrn_reflns_point_group_measured_fraction_max 0.704
_diffrn_reflns_theta_full        0.863
_diffrn_reflns_theta_max         0.926
_diffrn_reflns_theta_min         0.151
_exptl_absorpt_coefficient_mu    0.000
_exptl_crystal_colour            White
_exptl_crystal_density_diffrn    4.359
_exptl_crystal_description       Plate
_exptl_crystal_F_000             88
_refine_diff_density_max         0.393
_refine_diff_density_min         -0.383
_refine_diff_density_rms         0.122
_refine_ls_extinction_coef       11626(99)
_refine_ls_extinction_expression Fc^*^=kFc[1+0.001xFc^2^\l^3^/sin(2\q)]^-1/4^
_refine_ls_extinction_method     'SHELXL-2014/7 (Sheldrick 2014'
_refine_ls_goodness_of_fit_ref   1.236
_refine_ls_hydrogen_treatment    undef
_refine_ls_matrix_type           full
_refine_ls_number_parameters     26
_refine_ls_number_reflns         487
_refine_ls_number_restraints     0
_refine_ls_restrained_S_all      1.236
_refine_ls_R_factor_all          0.2098
_refine_ls_R_factor_gt           0.1887
_refine_ls_shift/su_max          0.693
_refine_ls_shift/su_mean         0.035
_refine_ls_structure_factor_coef Fsqd
_refine_ls_weighting_details
'w=1/[\s^2^(Fo^2^)+(0.1804P)^2^+1.9740P] where P=(Fo^2^+2Fc^2^)/3'
_refine_ls_weighting_scheme      calc
_refine_ls_wR_factor_gt          0.4585
_refine_ls_wR_factor_ref         0.4706
_reflns_Friedel_coverage         0.000
_reflns_number_gt                418
_reflns_number_total             487
_reflns_threshold_expression     'I > 2\s(I)'
_cod_data_source_file            kc5069sup1.cif
_cod_data_source_block           dataset2
_cod_original_cell_volume        307.48(11)
_cod_database_code               2300635
_shelx_shelxl_version_number     2014/7
_shelx_space_group_comment
;
The symmetry employed for this shelxl refinement is uniquely defined
by the following loop, which should always be used as a source of
symmetry information in preference to the above space-group names.
They are only intended as comments.
;
_shelx_res_file
;

    2.res created by SHELXL-2014/7


TITL 2 in P2(1)/n
CELL 0.0251   4.9560   5.2020  12.0400  90.000  97.870  90.000
ZERR    4.00   0.0010   0.0010   0.0024   0.000   0.030   0.000
LATT  1
SYMM 0.5-X, 0.5+Y, 0.5-Z
SFAC O      0.45480  23.78030   0.91730   7.62200   0.47190   2.14400 =
            0.13840   0.29590   0.00000   0.000   0.000   0.000   0.730  15.999
SFAC F      0.36860  20.23900   0.81090   6.60930   0.47510   1.93100 =
            0.14590   0.27930   0.00000   0.000   0.000   0.000   0.720  18.998
SFAC FE     2.54400  64.42439   2.34340  14.88060   1.75880   2.85390 =
            0.50620   0.35020   0.00000   0.000   0.000   0.000   1.170  55.847
SFAC SE     1.02041   0.85673   1.56993   4.20859   3.02495  16.80800 =
            1.44175  48.63000   0.00000   0.000   0.000   0.000   1.160  78.960
UNIT 12 4 4 4
LIST 6 ! automatically inserted. Change 6 to 4 for CHECKCIF!!

L.S. 16
BOND
FMAP 2
PLAN 20
ACTA
XNPD 0.001
WGHT    0.180400    1.974000
EXTI11626.498047
FVAR       2.10849
SE1   4    0.518113    0.357354    0.334472    11.00000    0.00100
FE1   3    0.457503    0.258098    0.072222    11.00000    0.00200
O1    1    0.329267    0.624116    0.346958    11.00000    0.01060
O2    1    0.807026    0.434099    0.423781    11.00000    0.00878
O3    1    0.615958    0.424717    0.207046    11.00000    0.00602
F1    2    0.270954    0.573321    0.010708    11.00000    0.00633

HKLF 4

REM  2 in P2(1)/n
REM R1 =  0.1887 for     418 Fo > 4sig(Fo)  and  0.2098 for all     487 data
REM     26 parameters refined using      0 restraints

END

WGHT      0.1796      1.9573

REM Highest difference peak  0.393,  deepest hole -0.383,  1-sigma level  0.122
Q1    1   0.4916  0.1440  0.1202  11.00000  0.05    0.39
Q2    1   0.0828  0.6354  0.0016  11.00000  0.05    0.38
Q3    1  -0.0152  0.5133  0.3048  11.00000  0.05    0.37
Q4    1   0.8084  0.2499  0.1750  11.00000  0.05    0.35
Q5    1   0.9930  0.3600  0.4598  11.00000  0.05    0.35
Q6    1   1.0428  0.3926  0.3250  11.00000  0.05    0.34
Q7    1   0.5170  0.3515  0.1278  11.00000  0.05    0.33
Q8    1   0.9968  0.4494  0.3533  11.00000  0.05    0.32
Q9    1   0.4727  0.4696  0.2799  11.00000  0.05    0.31
Q10   1   0.5573  0.6787  0.3239  11.00000  0.05    0.30
Q11   1   0.5575  0.7999  0.3471  11.00000  0.05    0.29
Q12   1   0.8433  0.5636  0.4096  11.00000  0.05    0.29
Q13   1   0.4097  0.8517  0.2620  11.00000  0.05    0.29
Q14   1   0.9493  0.4181  0.2631  11.00000  0.05    0.29
Q15   1   0.5375  0.4909  0.4038  11.00000  0.05    0.29
Q16   1   0.2769  0.6384  0.2425  11.00000  0.05    0.28
Q17   1   0.0240  0.4784 -0.0438  11.00000  0.05    0.26
Q18   1   0.1928  0.4375 -0.0589  11.00000  0.05    0.25
Q19   1   0.5798  0.5774  0.2380  11.00000  0.05    0.24
Q20   1   0.4453  0.9083  0.3577  11.00000  0.05    0.23
;
_shelx_res_checksum              26852
_shelx_hkl_file
;
   0  -1  -1  144.90   20.68
   0   1   1  160.64   22.63
   0  -1  -2  104.41   15.48
   0   1   2   98.27   14.72
   0  -1  -3  522.32   69.11
   0   1   3  602.34   79.31
   0  -1  -4  300.52   41.92
   0   1   4  364.62   50.03
   0  -2  -2   93.34   15.85
   0   2   2   79.20   14.07
   0  -2  -4  261.51   36.68
   0   2   4  241.18   34.09
   0  -2  -5   92.47   15.89
   0   2   5   98.62   16.69
   0  -2  -6   63.21   13.33
   0   2   6   76.09   14.86
   0  -2  -7  124.74   21.62
   0   2   7   93.17   17.54
   0  -2  -8   55.24   13.89
   0   2   8   68.68   15.45
   0  -2  -9   98.79   20.06
   0   2   9  102.86   20.35
   0  -3  -3  330.97   47.27
   0   3   3  389.27   54.67
   0  -3  -4  456.92   62.93
   0   3   4  416.96   57.83
   0  -3  -5  238.75   34.93
   0   3   5  235.38   34.51
   0  -3  -6  119.46   19.95
   0   3   6  101.56   17.66
   0  -3  -7  202.77   30.98
   0   3   7  293.86   42.56
   0  -3  -8   16.00    8.47
   0   3   8   10.29    7.86
   0  -3  -9  138.06   24.20
   0   3   9  160.47   26.90
   0  -3 -10  176.73   29.70
   0   3  10  200.43   32.64
   0  -3 -11   22.57    9.65
   0   3  11   14.70    8.55
   0  -3 -12    7.57    7.55
   0   3  12    9.09    7.69
   0  -3 -13   24.96   10.54
   0   3  13   15.71    9.14
   0  -4  -3   16.76    8.57
   0   4   3   18.62    8.43
   0  -4  -4   26.42    9.90
   0   4   4   17.70    8.46
   0  -4  -5   41.28   11.56
   0   4   5   87.89   17.50
   0  -4  -6  435.55   61.51
   0   4   6  584.34   80.49
   0  -4  -7   51.10   11.96
   0   4   7   64.23   13.79
   0  -4  -8   74.58   15.05
   0   4   8   46.25   11.30
   0  -4  -9   35.21    9.87
   0   4   9   38.30   10.43
   0  -4 -10   42.11   11.15
   0   4  10   51.96   12.57
   0  -4 -11   52.73   13.11
   0   4  11   12.47    7.16
   0  -5  -4   94.12   19.64
   0   5   4   41.92   12.14
   0  -5  -5   35.67   11.13
   0   5   5   31.70   10.40
   0  -5  -6   27.73    9.54
   0   5   6   50.15   12.83
   0  -5  -7   10.96    6.73
   0   5   7   18.66    7.94
   0  -5  -8   17.71    7.53
   0   5   8    7.91    5.99
   0  -5  -9   56.25   13.17
   0   5   9   39.52   10.87
   0  -6  -4   13.82    8.31
   0  -6  -5   41.80   12.96
   0   6   5   35.62   11.77
  -1   5   9  102.51   17.03
   1  -5  -9  110.64   18.05
  -1   5   8   19.02    6.25
   1  -5  -8   15.85    5.91
   1  -5  -7  124.14   20.57
   1  -4 -12   14.53    6.42
  -1   4  11  102.51   17.47
   1  -4 -11   33.91    8.68
  -1   4  10   57.48   10.91
   1  -4 -10   96.45   15.99
  -1   4   9  197.23   28.13
   1  -4  -9  121.71   18.50
  -1   4   8   42.31    8.19
   1  -4  -8   41.67    8.04
  -1   4   7    9.09    4.45
   1  -4  -7   27.40    6.65
  -1   3   8   38.60    8.44
  -1   1   4  297.06   40.28
  -1   1   3  379.67   50.41
   1  -1  -3  229.50   31.32
  -1   1   2  464.10   61.45
   1  -1  -2  435.12   57.76
   1  -1   1  157.18   26.10
  -1   0   1  317.13   44.18
   1   0  -1  327.85   45.59
  -1   0   0    4.31    8.07
   1   0   0    5.93    8.56
  -1   0  -1  146.54   24.16
   1   0   1  171.63   27.27
  -1   0  -2   26.29   12.67
   1   0   2   26.40   12.70
  -1   0  -3  435.99   62.15
   1   0   3  527.16   73.68
  -1   0  -4   97.75   20.78
   1   0   4  109.17   21.97
  -1   0  -5  195.85   33.41
   1   0   5  266.09   42.12
   1   0   6   81.72   19.63
  -1  -1   2  221.97   34.16
   1   1  -2  235.90   35.91
  -1  -1   1  467.73   65.04
   1   1  -1  528.11   72.73
  -1  -1   0  248.96   37.09
   1   1   0  288.75   42.14
  -1  -1  -1  427.60   59.60
   1   1   7  142.99   27.11
   1   1   8   41.23   14.60
   1   1   9   20.77   12.54
   1   1  10   74.73   20.07
   1   1  11   81.72   21.41
  -1  -2   2  151.99   27.07
   1   2  -2  155.71   27.41
  -1  -2   1  118.69   22.49
   1   2  -1  118.95   22.42
  -1  -2   0  414.10   59.66
  -1  -2  -3  462.37   65.31
   1   2   3  506.23   70.93
  -1  -2  -4  332.79   49.03
   1   2   4  368.60   53.63
  -1  -2  -5  125.17   22.88
   1   2   5  170.07   28.67
  -1  -2  -6  159.95   27.86
   1   2   6  160.99   28.06
  -1  -2  -7  252.42   40.42
   1   2   7  278.72   43.80
  -1  -2  -8  167.91   30.73
   1   2   8  157.79   29.46
  -1  -2  -9  178.20   32.73
   1   2   9  156.83   29.91
  -1  -2 -10   60.65   17.73
   1   2  10   74.93   19.53
  -1  -2 -11   12.98   10.40
   1   2  11   18.79   11.13
  -1  -2 -12   16.63   10.87
   1   2  12   16.54   10.67
  -1  -2 -13   16.89   10.71
   1   2  13   10.30    9.58
  -1  -3   1   26.95   11.25
   1   3  -1   44.08   13.33
  -1  -3  -2  159.08   27.94
   1   3   2   87.28   18.69
  -1  -3  -3  189.97   31.71
   1   3   3  179.41   30.37
  -1  -3  -4  236.16   37.50
   1   3   4  152.68   26.85
  -1  -3  -5   67.70   15.87
   1   3   5   92.65   19.16
  -1  -3  -6  250.61   39.81
   1   3   6  278.89   43.44
  -1  -3  -7  102.34   21.16
   1   3   7   49.04   14.38
  -1  -3  -8   74.09   17.79
   1   3   8  103.63   21.74
  -1  -3  -9  159.69   29.19
   1   3   9  275.69   44.30
  -1  -3 -10   58.12   15.94
   1   3  10   68.70   17.52
  -1  -3 -11  117.65   24.73
   1   3  11  182.96   33.40
  -1  -3 -12   61.12   17.29
   1   3  12   68.75   18.39
   1   4   1  260.03   42.96
  -1  -4  -2  188.06   33.37
   1   4   2  146.80   27.91
  -1  -4  -3   93.08   20.73
   1   4   3   99.39   21.47
  -1  -4  -4   17.94   10.55
   1   4   4   15.28   10.14
  -1  -4  -5   21.36   10.49
   1   4   5  109.78   22.47
  -1  -4  -6    7.81    7.85
   1   4   6   11.72    8.65
  -1  -4  -7   54.67   14.52
   1   4   7   17.57    9.11
  -1  -4  -8   17.91    9.04
   1   4   8   14.42    8.59
  -1  -4  -9  316.52   49.53
   1   4   9  385.81   58.53
  -1  -4 -10   27.38   10.71
   1   4  10   22.42    9.92
  -1  -4 -11   48.65   14.33
   1   4  11   31.96   11.82
  -1  -5  -2   37.21   13.58
   1   5   2  129.50   26.69
  -1  -5  -3   28.58   11.89
   1   5   3   25.95   11.25
  -1  -5  -4   15.94    9.51
   1   5   4   59.28   16.33
  -1  -5  -5  528.81   77.74
   1   5   5  422.15   64.01
  -1  -5  -6  171.97   31.25
   1   5   6   67.79   17.08
  -1  -5  -7   43.06   13.15
   1   5   7   11.63    7.87
  -1  -5  -8    6.96    6.64
   1   5   8   15.93    8.57
  -1  -5  -9   16.51    8.52
   1   5   9   14.77    8.36
  -1  -6  -1   62.62   18.49
  -1  -6  -2   63.87   18.40
   1   6   2  108.22   24.83
  -1  -6  -3   28.81   12.33
   1   6   3  117.99   25.86
  -1  -6  -4   16.59    9.79
   1   6   4   16.65    9.53
  -1  -6  -5   15.84    9.33
   1   6   5   12.83    8.80
   2  -3  -8   24.24    5.75
   2  -3  -7   12.75    4.67
  -2   3   6   32.28    7.70
   2  -3  -6   23.06    6.55
  -2   3   4   16.42    7.84
   2  -3  -4   18.95    8.05
   2  -3  -3   92.82   17.51
  -2   2   8   19.77    7.14
  -2   2   7  528.03   71.29
   2  -2  -7  477.16   64.78
  -2   2   6  265.14   37.45
   2  -2  -6  223.53   32.16
  -2   2   5  515.14   69.41
   2  -2  -5  527.25   70.95
  -2   2   4   94.12   16.40
   2  -2  -4  106.23   17.89
  -2   2   3   96.80   17.61
   2  -2  -3  102.94   18.33
  -2   2   2  444.29   62.49
   2  -2  -2  367.56   52.73
  -2   2   0  259.17   40.87
   2  -2   0  204.84   34.00
  -2   2  -1  195.50   33.56
   2  -2   1  157.44   28.61
   2  -2   2  346.28   53.66
  -2   1   7  102.25   18.92
   2  -1  -7  124.22   21.59
  -2   1   6   62.48   13.57
   2  -1  -6   54.09   12.41
  -2   1   5  266.52   39.25
   2  -1  -5  279.07   40.81
  -2   1   4  913.49  121.63
   2  -1  -4  760.81  102.25
  -2   1   1   40.01   12.59
   2  -1  -1   86.85   18.23
  -2   1   0   17.84   11.23
   2  -1   0    4.22   10.23
  -2   1  -1  103.37   22.29
   2  -1   1   75.68   19.16
  -2   1  -2  172.32   31.26
   2  -1   2  182.27   32.47
  -2   1  -3  248.79   41.51
   2  -1   3  268.34   44.00
  -2   1  -4  362.20   56.69
   2  -1   4  253.46   42.78
  -2   1  -5  125.78   26.88
   2  -1   5  110.21   24.94
  -2   1  -6  159.43   32.09
   2  -1   6  172.66   33.62
   2  -1   7   88.06   23.29
  -2   0   6   96.71   19.59
   2   0  -6  119.38   22.51
  -2   0   5   20.04    9.78
   2   0  -5   14.82    9.07
  -2   0   4  565.83   79.01
   2   0  -4  556.31   77.82
  -2   0   3   64.84   15.52
   2   0  -3  172.66   28.94
  -2   0   2  331.14   48.87
   2   0  -2  345.93   50.80
  -2   0   1   58.15   14.71
   2   0  -1   29.21   11.60
  -2   0   0  806.83  110.03
   2   0   0  772.92  105.80
  -2   0  -1   70.38   17.40
   2   0   1   50.32   15.31
  -2   0  -2  152.77   28.15
   2   0   2  156.83   28.88
  -2   0  -3   14.30   12.02
   2   0   3   17.15   12.70
  -2   0  -4   31.28   14.73
   2   0   4   36.34   15.27
  -2   0  -5   53.36   17.30
   2   0   5   17.28   12.58
  -2   0  -6  249.57   43.17
   2   0   6  300.43   49.61
  -2   0  -7   10.97   12.44
   2   0   7   16.77   12.95
  -2   0  -8  169.90   34.35
   2   0   8  134.69   29.64
  -2   0  -9    7.42   12.59
   2   0   9    1.99   10.87
  -2   0 -10  162.80   34.28
   2   0  10  151.12   32.50
  -2   0 -11    9.66   11.32
   2   0  11   18.15   12.72
   2   0  12   44.02   17.61
  -2  -1   6   52.73   15.06
   2   1  -6   76.96   18.22
  -2  -1   5  155.02   28.56
   2   1  -5  154.76   28.44
  -2  -1   4  587.54   83.69
   2   1  -4  606.40   86.08
  -2  -1   3   88.32   19.75
   2   1  -3  105.10   21.83
  -2  -1   2  197.32   33.43
   2   1  -2  245.42   39.53
  -2  -1   1   55.54   15.38
   2   1  -1   59.14   16.11
  -2  -1   0   10.26    9.97
   2   1   0   10.41   10.37
  -2  -1  -1  187.46   32.16
   2   1   1  157.35   28.48
  -2  -1  -2  346.63   52.74
   2   1   2  385.55   57.78
  -2  -1  -3  330.02   50.98
   2   1   3  301.82   47.50
  -2  -1  -4  861.94  119.46
   2   1   4  955.88  131.49
  -2  -1  -5  283.22   46.05
   2   1   5  304.67   48.83
  -2  -1  -6  438.84   66.76
   2   1   6  447.32   67.81
  -2  -1  -7  104.50   24.65
   2   1   7  221.97   39.79
  -2  -1  -8  153.63   31.72
   2   1   8  144.98   30.56
  -2  -1  -9   12.69   13.29
   2   1   9   31.72   15.36
  -2  -1 -10    8.86   11.41
   2   1  10   12.28   11.70
  -2  -1 -11   85.83   23.23
  -2  -1 -12   29.86   14.54
  -2  -1 -13    6.89   10.14
  -2  -2   5  174.22   32.61
   2   2  -5  193.69   35.01
  -2  -2   4   47.84   15.29
   2   2  -4   43.03   14.41
  -2  -2   3   69.03   18.15
   2   2  -3   86.36   20.28
  -2  -2   2  387.54   59.19
   2   2  -2  418.43   63.11
  -2  -2   1  391.87   59.43
   2   2  -1  409.00   61.64
  -2  -2   0  478.81   70.40
   2   2   0  631.31   89.88
  -2  -2  -1  468.43   68.93
   2   2   1  445.42   66.05
  -2  -2  -2  740.74  103.81
   2   2   2  907.44  125.09
  -2  -2  -4   93.60   20.95
   2   2   9  333.56   54.73
   2   2  10   42.22   15.94
   2   2  11   65.62   19.59
  -2  -2 -12   75.23   21.60
   2   2  12   47.73   17.14
  -2  -3   4   23.31   12.38
   2   3  -4   22.86   11.75
  -2  -3   3  109.17   24.74
   2   3  -3  119.98   26.00
  -2  -3   2  175.61   33.22
   2   3  -2  154.15   30.31
  -2  -3   1   17.79   11.49
   2   3  -1   45.19   15.35
  -2  -3   0  235.90   40.55
   2   3   0  255.19   43.03
  -2  -3  -1   56.46   16.57
   2   3   1   53.64   16.21
  -2  -3  -2  306.83   49.35
   2   3   5   94.98   22.14
  -2  -3  -6   40.93   14.83
   2   3   6   10.23   10.56
  -2  -3  -7   32.71   13.37
   2   3   7   13.18   10.48
  -2  -3  -8   69.55   18.71
   2   3   8   55.48   16.69
  -2  -3  -9  127.86   27.12
   2   3   9  168.86   32.75
  -2  -3 -10   84.65   21.29
   2   3  10  158.13   31.71
  -2  -3 -11   18.95   11.03
   2   3  11   58.13   17.85
  -2  -4   4   19.83   12.49
  -2  -4   3   11.80   11.24
   2   4  -3   31.30   14.01
  -2  -4   2   30.92   14.53
   2   4  -2   41.71   15.80
  -2  -4   1   91.44   23.29
   2   4  -1  106.23   25.06
  -2  -4   0   29.85   14.28
   2   4   0   28.26   13.65
  -2  -4  -1   23.38   12.96
  -2  -4  -4   39.60   14.38
   2   4   4   27.48   12.68
  -2  -4  -5   25.42   11.83
   2   4   5   41.48   14.58
  -2  -4  -6  346.63   55.54
   2   4   6  324.22   52.67
  -2  -4  -7   54.52   16.19
   2   4   7  109.86   24.24
  -2  -4  -8   28.80   12.07
   2   4   8   45.20   14.91
  -2  -4  -9   27.15   11.77
   2   4   9   64.86   18.08
  -2  -4 -10   24.72   11.47
   2   4  10   10.78    8.86
  -2  -5   3   24.96   13.11
   2   5  -3   14.63   10.46
  -2  -5   2  177.77   36.30
   2   5  -2  221.80   42.14
  -2  -5   1   13.65   10.71
   2   5  -1   21.06   11.88
  -2  -5   0   53.36   17.59
   2   5   0   71.65   20.23
  -2  -5  -3   89.36   22.38
   2   5   3   10.91    9.40
  -2  -5  -4   87.98   21.89
   2   5   4   79.59   20.70
  -2  -5  -5   26.27   11.86
   2   5   5   26.54   12.04
  -2  -5  -6   95.42   22.72
   2   5   6   94.38   22.60
  -2  -5  -7    6.35    7.43
   2   5   7   14.83    9.54
  -2  -6   3   27.80   13.99
  -2  -6   2   13.46   10.72
   2   6  -2   15.74   10.74
  -2  -6   1   66.17   20.60
   2   6  -1   48.81   17.47
  -2  -6   0   19.44   11.79
   2   6   2   12.20    9.73
   3  -5  -7   32.91    9.47
  -3   4  10    7.89    4.19
   3  -4 -10   34.84    7.89
  -3   4   9   30.06    7.51
   3  -4  -9   37.61    8.45
  -3   4   8  130.71   21.04
   3  -4  -8  117.04   19.23
  -3   4   7   56.00   12.19
   3  -4  -7   64.56   13.14
  -3   4   6   19.71    8.07
   3  -4  -6   40.81   10.94
  -3   4   5   10.45    7.58
   3  -4  -5   77.01   16.47
  -3   4   4   30.70   11.21
   3  -4  -4   32.72   11.32
  -3   4   3   92.39   20.09
   3  -4  -3   68.09   16.87
   3  -4  -2   19.40   10.48
  -3   3  12   36.66    9.92
  -3   3  11    5.05    4.81
   3  -3 -11   11.31    5.77
  -3   3  10   21.64    7.30
   3  -3 -10   19.06    6.91
  -3   3   9  120.07   20.28
   3  -3  -9  108.05   18.71
  -3   3   8   66.04   13.30
   3  -3  -8   61.89   12.79
  -3   3   7  442.56   61.96
   3  -3  -7  363.32   51.84
  -3   3   6   84.04   16.74
   3  -3  -6   80.82   16.23
  -3   3   5   43.69   12.41
   3  -3  -5   23.11    9.77
  -3   3   4   33.82   12.50
   3  -3  -4    9.59    9.07
  -3   3   3  135.99   25.87
   3  -3  -3   76.30   18.47
  -3   3   1    7.98   10.55
   3  -3  -1   31.82   13.88
  -3   3   0   59.86   18.12
   3  -3   0   42.63   15.82
  -3   3  -1   44.52   16.32
   3  -3   1   27.63   14.16
  -3   3  -2   42.81   16.86
   3  -3   2   18.87   12.90
   3  -3   3   36.16   16.18
  -3   2  11   27.71    9.63
   3  -2 -11   15.53    7.41
  -3   2  10  114.45   21.41
   3  -2 -10  103.03   19.85
  -3   2   9   34.40   10.62
   3  -2  -9   16.02    7.88
  -3   2   8   58.90   14.08
   3  -2  -8   41.05   11.68
  -3   2   7  208.74   33.30
   3  -2  -7  199.48   32.10
  -3   2   6   13.92    8.37
   3  -2  -6   25.76    9.84
  -3   2   5  343.60   50.84
   3  -2  -5  251.30   39.06
  -3   2   4  421.97   61.23
   3  -2  -4  413.24   60.10
  -3   2   1   46.14   15.05
   3  -2  -1   76.51   18.88
  -3   2   0   40.56   15.08
   3  -2   0   65.64   18.48
  -3   2  -1  252.25   43.05
   3  -2   1  290.14   47.94
  -3   2  -2  423.44   65.91
   3  -2   2  282.70   47.89
  -3   2  -3  103.46   25.41
   3  -2   3  103.29   25.23
  -3   2  -4   78.35   22.61
   3  -2   4   50.18   18.50
  -3   2  -5    1.52   12.22
   3  -2   5    3.30   11.51
  -3   2  -6   76.37   23.14
   3  -2   6   80.95   23.30
  -3   2  -7   66.69   21.79
   3  -2   7   74.74   22.73
   3  -2   8   38.72   17.42
  -3   1  10   69.98   17.09
   3  -1 -10   15.48    8.60
  -3   1   9   82.89   18.88
   3  -1  -9   88.93   19.46
  -3   1   8  204.15   34.61
   3  -1  -8  122.49   23.94
  -3   1   3  493.77   71.36
   3  -1  -3  440.48   64.60
  -3   1   2   28.26   11.62
   3  -1  -2   27.98   11.80
  -3   1   1  567.91   81.78
   3  -1  -1  800.61  111.51
  -3   1   0   75.58   18.99
   3  -1   0   82.10   20.01
  -3   1  -1   39.05   14.71
   3  -1   1   58.31   17.54
  -3   1  -2   15.47   12.41
   3  -1   2    9.30   11.38
  -3   1  -3  106.66   25.31
   3  -1   3  104.41   24.95
  -3   1  -4   75.59   21.62
   3  -1   4   72.87   21.26
  -3   1  -5   20.74   15.01
   3  -1   5   26.24   15.29
  -3   1  -6   28.90   16.71
   3  -1   6   30.26   16.65
  -3   1  -7  132.61   31.13
   3  -1   7  106.23   27.31
  -3   1  -8   42.44   18.11
   3  -1   8   37.40   17.05
  -3   1  -9    8.08   11.73
   3  -1   9    2.93    9.86
  -3   1 -10   31.68   16.12
   3  -1  10   23.14   14.55
  -3   1 -11  138.93   33.45
   3  -1  11  213.50   43.72
  -3   1 -12   28.11   15.93
   3  -1  12   37.73   17.63
  -3   0  10    4.88    7.58
  -3   0   9  118.95   25.20
   3   0  -9  168.43   31.71
  -3   0   8   20.06   11.09
   3   0  -8   14.23    9.90
  -3   0   6   34.88   12.85
   3   0  -6    4.85    8.29
  -3   0   5  609.34   87.28
   3   0  -5  570.33   82.31
  -3   0   4   24.26   11.13
   3   0  -4   30.63   12.28
  -3   0   3   44.59   14.20
   3   0  -3   67.01   17.39
  -3   0   2    3.83    8.34
   3   0  -2    6.18    8.95
  -3   0   1    6.22    9.14
   3   0  -1   31.03   13.03
  -3   0   0    3.10    8.91
   3   0   0    3.73    9.43
  -3   0  -1  124.48   25.86
   3   0   1  211.85   37.32
  -3   0  -2   41.84   15.27
   3   0   2   27.92   13.53
  -3   0  -3  771.02  110.21
   3   0   3  805.71  114.71
  -3   0  -4    4.91   10.73
   3   0   4    6.84   11.34
  -3   0  -5   25.92   14.97
   3   0   5   14.30   13.67
  -3   0  -6   27.69   16.13
   3   0   6   13.88   14.27
  -3   0  -7  110.55   27.86
   3   0   7  104.33   26.93
  -3   0  -8   41.45   17.73
   3   0   8   16.07   13.45
  -3   0  -9   80.80   23.78
   3   0   9   27.01   15.24
  -3   0 -10    8.16   11.24
   3   0  10   32.44   15.87
  -3   0 -11   94.46   26.30
   3   0  11  139.62   32.78
  -3   0 -12   12.35   12.15
   3   0  12   12.26   11.98
  -3  -1   9  173.62   33.99
   3   1  -9   85.21   21.58
  -3  -1   8  109.34   25.10
   3   1  -8  162.20   32.11
  -3  -1   7   38.36   14.67
   3   1  -7   57.92   17.34
  -3  -1   6   44.16   15.42
   3   1  -6   62.82   17.91
  -3  -1   5  142.56   28.56
   3   1  -5  137.72   27.91
  -3  -1   4  108.48   23.90
   3   1  -4   87.46   21.07
  -3  -1   3  183.05   33.64
   3   1  -3  244.90   41.71
  -3  -1   2   31.21   13.05
   3   1  -2   34.68   13.77
  -3  -1   1  860.47  120.68
   3   1  -1 1000.00  138.58
  -3  -1   0   85.04   20.67
   3   1   0   84.70   20.80
  -3  -1  -1   99.31   22.82
   3   1   1  135.55   27.74
  -3  -1  -2    6.16    9.66
   3   1   2    9.40   10.44
  -3  -1  -3  235.55   41.44
   3   1   3  244.81   42.74
  -3  -1  -4   86.68   22.28
   3   1   4   81.82   21.80
  -3  -1  -5    7.77   11.32
   3   1   5   12.47   12.53
  -3  -1  -6   74.32   21.62
   3   1   6   54.54   19.24
  -3  -1  -7  148.10   32.07
   3   1   7  183.82   36.96
  -3  -1  -8   19.07   13.55
   3   1   8   10.80   12.47
  -3  -1  -9   33.44   15.77
   3   1   9   15.41   12.62
  -3  -1 -10   41.75   17.15
   3   1  10   85.27   24.00
  -3  -1 -11  218.43   43.36
   3   1  11  277.77   51.29
  -3  -1 -12   21.13   14.03
   3   1  12   21.55   13.63
  -3  -2   9   10.35    9.91
  -3  -2   8   27.73   13.86
   3   2  -8   30.77   13.82
  -3  -2   7   91.52   23.66
   3   2  -7  167.21   33.87
  -3  -2   6   24.69   13.43
   3   2  -6   28.71   13.71
  -3  -2   5  217.13   40.03
   3   2  -5  291.09   49.63
  -3  -2   4  196.45   36.98
   3   2  -4  239.01   42.60
  -3  -2   3   13.58   11.24
   3   2  -3   10.33   10.52
  -3  -2   2  185.47   35.11
   3   2  -2  229.59   40.89
  -3  -2   1  124.22   26.75
   3   2  -1  114.53   25.58
  -3  -2   0   58.69   17.76
   3   2   0   68.75   19.39
  -3  -2  -1  337.46   54.84
   3   2   1  323.53   53.13
  -3  -2  -2  867.65  123.18
   3   2   2  879.76  124.65
  -3  -2  -3  233.22   41.70
   3   2   3  121.19   27.09
  -3  -2  -4  339.71   55.87
   3   2   4  267.91   46.62
  -3  -2  -5    7.28   11.02
   3   2   5   10.51   11.85
  -3  -2  -6   17.21   12.56
   3   2   6   55.69   18.65
  -3  -2  -7  161.77   33.45
   3   2   7  173.36   35.12
  -3  -2  -8  168.60   34.52
   3   2   8  173.53   35.35
  -3  -2  -9   33.75   14.81
   3   2   9   42.34   16.39
  -3  -2 -10   67.54   20.61
   3   2  10   68.06   20.95
  -3  -2 -11   14.74   11.77
   3   2  11    5.30    9.47
  -3  -3   8   24.22   13.23
  -3  -3   7  201.90   40.04
   3   3  -7  191.18   38.39
  -3  -3   6   35.42   15.70
   3   3  -6   34.55   15.17
  -3  -3   5   33.13   15.47
   3   3  -5   33.19   15.02
  -3  -3   4    9.20   11.55
   3   3  -4   10.65   11.35
  -3  -3   3  119.03   28.00
   3   3  -3   91.18   23.96
  -3  -3   2  108.91   26.24
   3   3  -2  108.74   26.15
  -3  -3   1   34.08   15.40
   3   3  -1   31.09   15.02
  -3  -3   0   97.75   24.52
   3   3   0   88.58   23.36
  -3  -3  -1  120.33   27.35
   3   3   1   98.27   24.53
  -3  -3  -2   42.01   16.32
   3   3   2   13.63   12.33
  -3  -3  -3   92.56   23.58
   3   3   3   79.72   22.02
  -3  -3  -4   38.95   15.58
   3   3   4   24.79   13.60
  -3  -3  -5  392.91   63.48
   3   3   5  438.75   69.47
  -3  -3  -6  194.20   37.47
   3   3   6  128.98   28.69
  -3  -3  -7  204.67   39.01
  -3  -4   7   32.02   14.99
   3   4  -7   22.93   12.73
  -3  -4   6   12.39   10.90
   3   4  -6   15.10   11.06
  -3  -4   5   47.66   17.73
   3   4  -5   42.97   16.70
  -3  -4   4   54.97   18.96
   3   4  -4   56.30   18.96
  -3  -4   3  127.16   29.72
   3   4  -3   96.97   25.22
  -3  -4   2   20.74   13.16
   3   4  -2   33.37   15.15
  -3  -4   1   10.13   10.74
   3   4  -1   17.89   12.10
  -3  -4   0   40.61   16.33
   3   4   0   33.34   15.15
  -3  -4  -1  223.62   42.08
   3   4   1  347.66   58.47
  -3  -4  -2   62.35   19.16
   3   4   2   46.53   16.83
  -3  -4  -3   24.59   12.64
   3   4   3   12.62   10.39
  -3  -4  -4   38.99   15.01
   3   4   4   43.39   15.87
   3   4   8   23.82   12.54
  -3  -5   7   49.67   19.06
  -3  -5   6   13.20   11.16
   3   5  -6    9.44    9.50
  -3  -5   5  149.31   34.39
   3   5  -5   83.30   24.25
  -3  -5   4   13.62   11.31
   3   5  -4   13.16   10.87
  -3  -5   3  122.15   29.89
   3   5  -3  149.74   33.84
  -3  -5   2    6.33    9.22
   3   5  -2    9.55    9.90
  -3  -5   1   13.03   10.87
   3   5  -1   25.72   13.45
  -3  -5   0    3.70    8.31
   3   5   0   10.78    9.97
  -3  -5  -1  118.77   28.46
   3   5   1  175.35   36.45
  -3  -5  -2    7.48    9.04
   3   5   2   26.26   13.25
  -3  -5  -3   53.82   18.09
   4  -5  -4    6.30    7.64
  -4   5   3   35.07   13.28
   4  -5  -3   21.19   10.95
   4  -5  -1   16.13   10.71
  -4   4   8   37.09   10.96
   4  -4  -8   52.85   13.13
  -4   4   7   33.45   10.83
   4  -4  -7   38.73   11.55
  -4   4   6  173.01   30.45
   4  -4  -6  225.69   37.31
  -4   4   5   19.46    9.96
   4  -4  -5   15.88    9.08
  -4   4   4  119.72   24.76
   4  -4  -4   79.20   19.21
  -4   4   1   18.33   11.27
   4  -4  -1   21.13   11.77
  -4   4   0   21.49   12.34
   4  -4   0   14.94   11.06
  -4   4  -1   43.19   16.53
   4  -4   1   12.57   10.72
  -4   4  -2   22.82   13.18
   4  -4   2   16.76   12.03
  -4   4  -3   14.62   12.02
   4  -4   3   11.54   10.96
   4  -4   4   78.95   23.59
  -4   3  10  103.89   20.47
   4  -3 -10   29.02    9.87
  -4   3   9   62.65   14.81
   4  -3  -9   75.53   16.64
  -4   3   8  151.90   27.06
   4  -3  -8  128.11   23.89
  -4   3   7    4.50    6.29
   4  -3  -7    5.74    6.50
  -4   3   6   31.69   11.22
   4  -3  -6  122.06   23.82
  -4   3   5  163.24   29.84
   4  -3  -5  144.81   27.40
  -4   3   2  177.34   33.75
   4  -3  -2  229.67   40.65
  -4   3   1   13.18   11.40
   4  -3  -1   57.13   18.18
  -4   3   0  106.92   25.52
   4  -3   0  129.50   28.63
  -4   3  -1   63.62   20.04
   4  -3   1   50.30   17.81
  -4   3  -2   39.37   16.57
   4  -3   2   21.66   13.62
  -4   3  -3   47.26   18.00
   4  -3   3   51.89   18.64
  -4   3  -4   42.36   17.53
   4  -3   4   23.86   14.01
  -4   3  -5    2.64   10.03
   4  -3   5    1.96    9.18
  -4   3  -6  103.11   27.75
   4  -3   6   86.48   25.26
  -4   3  -7   69.30   23.21
   4  -3   7   41.60   18.08
  -4   3  -8   42.28   18.80
   4  -3   8   43.65   18.82
  -4   2  12   24.54   10.24
   4  -2 -12   41.73   13.02
  -4   2  11   61.99   15.97
   4  -2 -11   28.67   10.79
  -4   2  10   24.97   10.14
   4  -2 -10   26.96   10.40
  -4   2   9   18.05    8.95
   4  -2  -9   21.47    9.57
  -4   2   8   32.99   11.65
   4  -2  -8   25.54   10.46
  -4   2   7   33.50   11.77
   4  -2  -7   31.19   11.33
  -4   2   2  117.39   25.83
   4  -2  -2  123.36   26.78
  -4   2   1  186.77   35.59
   4  -2  -1  184.34   35.39
  -4   2   0   53.64   18.21
   4  -2   0   67.60   20.43
  -4   2  -1  138.41   30.60
   4  -2   1   97.49   25.35
  -4   2  -2   61.83   20.49
   4  -2   2   96.54   25.48
  -4   2  -3   11.84   12.79
   4  -2   3   12.90   13.04
  -4   2  -4   16.82   13.87
   4  -2   4   18.67   13.70
  -4   2  -5  179.93   38.11
   4  -2   5   86.51   24.93
  -4   2  -6    4.16   10.70
   4  -2   6    3.37   10.33
  -4   2  -7   85.61   25.27
   4  -2   7   81.68   24.59
  -4   2  -8   33.91   16.93
   4  -2   8   22.28   14.40
  -4   2  -9    4.56   10.56
   4  -2   9    1.54    9.21
  -4   1   7   88.41   20.81
   4  -1  -7   89.62   21.09
  -4   1   6  103.81   23.23
   4  -1  -6   65.77   18.18
  -4   1   5   68.40   18.43
   4  -1  -5   43.18   15.09
  -4   1   4  215.40   38.29
   4  -1  -4  279.15   46.64
  -4   1   3  431.49   66.51
   4  -1  -3  543.08   80.89
  -4   1   2   12.25   11.04
   4  -1  -2   21.06   12.79
  -4   1   1   88.32   22.35
   4  -1  -1   57.31   18.33
  -4   1   0   96.80   24.08
   4  -1   0  253.03   44.84
  -4   1  -1   95.76   24.42
   4  -1   1   98.70   25.08
  -4   1  -2  249.65   45.47
   4  -1   2  249.22   45.53
  -4   1  -3   84.89   23.91
   4  -1   3   85.64   24.21
  -4   1  -4  120.68   29.49
   4  -1   4  148.88   33.40
  -4   1  -5   24.16   15.23
   4  -1   5   41.48   18.05
  -4   1  -6   71.19   22.59
   4  -1   6   74.83   23.16
  -4   1  -7   72.61   22.92
   4  -1   7   81.25   24.28
  -4   1  -8   33.08   16.77
   4  -1   8   28.10   15.44
  -4   1  -9   24.18   15.04
   4  -1   9   27.51   15.70
  -4   1 -10    7.18   11.21
   4  -1  10    9.57   11.71
  -4   0  13   16.25   10.24
   4   0 -13   28.12   12.51
  -4   0  12  172.32   34.52
   4   0 -12  278.55   48.80
  -4   0  11   18.08   10.45
   4   0 -11    6.00    7.62
  -4   0  10  102.94   24.18
   4   0 -10   88.41   22.09
  -4   0   8  104.41   24.24
   4   0  -8  105.19   24.34
  -4   0   7   12.73   10.69
   4   0  -7   23.44   12.58
  -4   0   6   55.33   17.59
   4   0  -6  184.34   35.20
  -4   0   5   14.45   11.30
   4   0  -5   31.41   14.29
  -4   0   4  283.05   47.99
   4   0  -4  315.74   52.33
  -4   0   3    4.00    9.37
   4   0  -3    4.28    9.92
  -4   0   2  212.20   38.96
   4   0  -2  321.02   53.22
  -4   0   1   25.99   13.56
   4   0  -1    8.63   11.21
  -4   0   0  329.33   54.87
   4   0   0  300.35   51.19
  -4   0  -1   27.85   14.58
   4   0   1   63.28   20.07
  -4   0  -2  560.12   85.67
   4   0   2  589.01   89.45
  -4   0  -3   17.61   13.68
   4   0   3   33.02   16.45
  -4   0  -4   20.50   14.18
   4   0   4   18.38   14.16
  -4   0  -5   10.84   12.13
   4   0   5   14.06   13.17
  -4   0  -6  110.21   27.92
   4   0   6  101.21   26.77
  -4   0  -7   86.12   24.78
   4   0   7  121.97   30.21
  -4   0  -8   30.48   15.85
   4   0   8   29.13   15.64
  -4   0  -9   16.06   13.02
   4   0   9   46.08   18.82
  -4   0 -10  243.17   48.49
   4   0  10  309.00   57.37
  -4  -1  13   24.64   12.66
  -4  -1  12    2.77    7.08
   4   1 -12   15.41   10.30
  -4  -1  11   32.07   14.10
   4   1 -11   45.07   16.37
  -4  -1  10   11.87    9.69
   4   1 -10   14.56   10.16
  -4  -1   9   35.07   14.55
   4   1  -9   38.37   15.08
  -4  -1   8   98.18   24.59
   4   1  -8  193.69   37.73
  -4  -1   7   44.71   16.49
   4   1  -7   93.60   23.80
  -4  -1   6   75.80   21.39
   4   1  -6  151.38   31.89
  -4  -1   5   71.12   20.85
   4   1  -5   57.64   19.06
  -4  -1   4  248.18   44.62
   4   1  -4  207.27   39.39
  -4  -1   3  440.57   69.56
   4   1  -3  384.00   62.33
  -4  -1   2   50.68   17.78
   4   1  -2   49.58   17.99
  -4  -1   1  113.58   26.62
   4   1  -1  100.09   24.94
  -4  -1   0  109.52   26.29
   4   1   0  126.04   28.75
  -4  -1  -1  173.01   35.26
   4   1   1  190.31   37.73
  -4  -1  -2  216.70   41.38
   4   1   2  245.16   45.23
  -4  -1  -3  116.70   28.09
   4   1   3  123.62   29.31
  -4  -1  -4  176.12   36.51
   4   1   4  148.18   32.78
  -4  -1  -5   11.92   11.80
   4   1   5   16.94   13.12
  -4  -1  -6   59.17   19.84
   4   1   6  100.17   26.30
  -4  -1  -7   10.70   10.75
   4   1   7    5.40   10.03
  -4  -1  -8   22.84   13.56
   4   1   8   37.60   16.70
  -4  -1  -9   50.70   19.27
   4   1   9   39.95   17.35
  -4  -1 -10    8.72   11.05
   4   1  10   12.96   12.31
  -4  -2  12   12.52   10.37
  -4  -2  11   75.55   22.50
   4   2 -11   26.25   13.32
  -4  -2  10  100.69   26.19
   4   2 -10   59.96   19.64
  -4  -2   9   24.58   13.04
   4   2  -9   30.86   14.20
  -4  -2   8   19.29   12.28
   4   2  -8   18.32   11.87
  -4  -2   7   41.56   16.57
   4   2  -7   23.74   13.22
  -4  -2   6   74.33   21.82
   4   2  -6   76.74   22.09
  -4  -2   5  118.25   28.32
   4   2  -5  117.99   28.18
  -4  -2   4  107.53   26.71
   4   2  -4  100.35   25.84
  -4  -2   3   73.09   21.78
   4   2  -3   68.51   21.32
  -4  -2   2   87.28   23.75
   4   2  -2   91.78   24.54
  -4  -2   1  192.04   38.24
   4   2  -1  186.77   37.69
  -4  -2   0  119.55   28.35
   4   2   0  136.42   30.95
  -4  -2  -1   10.08   11.50
   4   2   1    9.90   11.69
  -4  -2  -2   41.75   16.79
   4   2   2   46.32   17.81
  -4  -2  -3   10.68   11.22
   4   2   3   19.86   13.24
  -4  -2  -4   10.14   10.85
   4   2   4   10.29   11.13
  -4  -2  -5  214.88   41.90
   4   2   5  209.26   41.19
  -4  -2  -6   31.25   14.61
   4   2   6   25.89   13.79
  -4  -2  -7  162.46   35.24
   4   2   7  144.72   32.85
  -4  -2  -8   44.57   17.53
   4   2   8   48.37   18.37
  -4  -2  -9   48.48   18.33
   4   2   9   20.97   13.30
  -4  -3  11   37.76   16.62
   4   3 -11   29.17   14.49
  -4  -3  10   36.39   16.31
   4   3 -10   34.62   15.71
  -4  -3   9   43.76   17.58
   4   3  -9   26.23   13.87
  -4  -3   8   63.12   20.78
   4   3  -8   58.38   19.88
  -4  -3   7   16.11   11.84
   4   3  -7   15.10   11.44
  -4  -3   6   34.37   15.73
   4   3  -6   31.65   15.05
  -4  -3   5  173.18   36.79
   4   3  -5  214.53   42.50
  -4  -3   4  108.65   27.38
   4   3  -4  121.97   29.29
  -4  -3   3   74.06   22.16
   4   3  -3   84.01   23.74
  -4  -3   2  247.23   46.45
   4   3  -2  255.10   47.54
  -4  -3   1   29.68   14.59
   4   3  -1   27.35   14.46
  -4  -3   0   97.49   25.41
   4   3   0  128.63   30.03
  -4  -3  -1   81.46   22.88
   4   3   1  120.07   28.77
  -4  -3  -2  180.71   37.15
   4   3   2  215.83   42.04
  -4  -3  -3   77.54   22.26
   4   3   3   89.19   24.17
  -4  -3  -4   15.55   11.07
   4   3   4   24.77   13.29
  -4  -3  -5   12.42   10.66
   4   3   5    5.62    9.31
  -4  -3  -6  253.55   47.72
   4   3   6  191.61   39.36
  -4  -3  -7   74.26   22.23
   4   3   7   78.76   23.12
   4   3   8  154.41   34.61
  -4  -4   8   32.15   15.76
   4   4  -8   32.99   15.73
  -4  -4   7   31.22   15.51
   4   4  -7   34.20   15.93
  -4  -4   6   88.84   25.63
   4   4  -6  104.24   27.94
  -4  -4   5    5.33    9.33
   4   4  -5    6.07    9.35
  -4  -4   4  118.34   29.63
   4   4  -4  122.06   30.24
  -4  -4   3   44.21   17.45
   4   4  -3   18.63   12.36
  -4  -4   2   15.66   11.73
   4   4  -2   19.75   12.59
  -4  -4   1   18.70   12.32
   4   4  -1   30.82   14.90
  -4  -4   0   81.34   23.48
   4   4   0   44.00   17.31
  -4  -4  -1   75.33   22.32
   4   4   1  114.19   28.39
  -4  -4  -2   48.12   17.83
   4   4   2   33.44   15.25
  -4  -4  -3   17.96   11.93
   4   4   3   19.74   12.45
  -4  -4  -4  219.55   43.33
   4   4   4  229.50   44.75
  -4  -4  -5   27.09   13.69
   4   4   5   21.02   12.59
  -4  -5   3   45.70   18.50
   4   5  -3   60.19   21.06
  -4  -5   2   84.24   24.91
   4   5  -2  108.13   28.63
  -4  -5   1   38.11   16.77
   4   5  -1   28.86   14.87
  -4  -5   0   52.82   19.39
   4   5   0   56.88   20.11
   5  -4  -3  144.12   30.78
  -5   4   2    9.97    9.94
   5  -4  -2   39.79   15.70
  -5   4   1   35.03   15.04
   5  -4  -1   12.18   10.74
  -5   4   0   17.63   12.26
   5  -4   0    5.23    9.28
  -5   4  -1   59.39   20.26
   5  -4   1   66.77   21.48
   5  -3  -8   52.26   15.33
  -5   3   7   54.71   16.05
   5  -3  -7   39.84   13.59
  -5   3   4    8.84    8.52
   5  -3  -4    4.31    7.64
  -5   3   3  106.66   25.06
   5  -3  -3   92.21   23.05
  -5   3   2  106.32   25.51
   5  -3  -2  115.31   26.89
  -5   3   1   77.50   21.94
   5  -3  -1  110.47   26.74
  -5   3   0   53.71   18.67
   5  -3   0   81.72   23.18
  -5   3  -1   52.86   18.82
   5  -3   1   73.43   22.28
  -5   3  -2    9.90   10.90
   5  -3   2    8.35   10.61
  -5   3  -3   48.05   18.64
   5  -3   3   54.82   19.88
  -5   3  -4   42.11   18.32
   5  -3   4   50.26   19.45
  -5   2   6  100.87   23.44
   5  -2  -6   78.44   20.25
  -5   2   5   92.04   22.46
   5  -2  -5   80.67   20.86
  -5   2   4   83.83   21.55
   5  -2  -4   81.87   21.37
  -5   2   3  134.95   29.18
   5  -2  -3  149.83   31.33
  -5   2   2   44.34   16.11
   5  -2  -2  111.16   26.38
  -5   2   1   17.12   11.38
   5  -2  -1   11.54   10.41
  -5   2   0    6.06    9.21
   5  -2   0    8.86   10.16
  -5   2  -1    4.60    9.09
   5  -2   1    7.78   10.14
  -5   2  -2   41.82   17.26
   5  -2   2   19.28   12.95
  -5   2  -3   69.34   22.23
   5  -2   3   79.71   24.01
  -5   2  -4   55.92   20.36
   5  -2   4   57.72   20.71
  -5   2  -5   51.84   19.95
   5  -2   5   39.60   17.79
  -5   2  -6   22.73   14.70
   5  -2   6   13.64   12.66
  -5   1  10   25.41   12.01
   5  -1 -10   27.44   12.46
  -5   1   9   56.44   17.25
   5  -1  -9   89.71   22.43
  -5   1   8    9.49    8.51
   5  -1  -8   24.48   11.80
  -5   1   7   78.75   20.79
   5  -1  -7   20.79   11.30
  -5   1   6   91.70   22.75
   5  -1  -6  103.29   24.48
  -5   1   5   98.44   23.88
   5  -1  -5   78.56   21.11
  -5   1   4   14.47   10.46
   5  -1  -4   19.20   11.51
  -5   1   3   32.72   14.15
   5  -1  -3    5.92    9.19
  -5   1   2   96.19   24.36
   5  -1  -2   52.55   17.87
  -5   1   1  138.75   30.84
   5  -1  -1  142.13   31.41
  -5   1   0   74.85   21.98
   5  -1   0   25.35   13.81
  -5   1  -1   17.54   12.15
   5  -1   1   28.89   14.68
  -5   1  -2   24.65   13.76
   5  -1   2   30.08   15.02
  -5   1  -3   36.80   16.33
   5  -1   3   48.25   18.48
  -5   1  -4   56.44   20.04
   5  -1   4   46.76   18.56
  -5   1  -5    6.26   10.53
   5  -1   5   15.89   12.79
  -5   1  -6   92.99   26.90
   5  -1   6  100.35   28.18
  -5   1  -7   86.08   26.17
   5  -1   7   92.47   27.28
  -5   0  11   19.10   11.39
   5   0 -11    4.22    7.69
  -5   0  10   15.41   10.46
   5   0 -10    1.59    6.87
  -5   0   9  193.69   38.20
   5   0  -9  178.11   36.06
  -5   0   8   14.61   10.43
   5   0  -8   20.05   11.66
  -5   0   7   18.86   11.24
   5   0  -7   25.00   12.66
  -5   0   6   37.75   15.08
   5   0  -6   17.80   11.53
  -5   0   5  535.81   83.11
   5   0  -5  616.52   93.60
  -5   0   4    9.40    9.64
   5   0  -4   21.69   12.45
  -5   0   3  106.83   26.17
   5   0  -3  336.59   57.40
  -5   0   2    8.35    9.90
   5   0  -2    6.57    9.65
  -5   0   1   14.67   11.53
   5   0  -1   42.25   16.78
  -5   0   0    2.26    8.68
   5   0   0    1.39    8.81
  -5   0  -1   94.12   25.16
   5   0   1   43.02   17.19
  -5   0  -2   80.61   23.47
   5   0   2   35.56   16.07
  -5   0  -3  498.44   80.68
   5   0   3  514.01   82.75
  -5   0  -4    4.83    9.49
   5   0   4    4.10    9.78
  -5   0  -5   93.43   26.19
   5   0   5  106.83   28.38
  -5   0  -6   13.07   11.77
   5   0   6   22.70   14.17
  -5   0  -7  105.71   28.85
   5   0   7  110.64   29.74
  -5  -1  10   81.50   23.35
   5   1 -10   18.11   11.80
  -5  -1   9   50.61   17.95
   5   1  -9   64.34   20.30
  -5  -1   8   10.51    9.81
   5   1  -8   11.01   10.00
  -5  -1   7   76.39   22.11
   5   1  -7   75.15   21.94
  -5  -1   6   76.65   22.09
   5   1  -6   98.10   25.50
  -5  -1   5   48.56   17.54
   5   1  -5  104.41   26.38
  -5  -1   4   19.33   12.31
   5   1  -4   25.67   13.73
  -5  -1   3   14.14   11.36
   5   1  -3    9.84   10.76
  -5  -1   2   66.99   20.74
   5   1  -2   49.39   18.04
  -5  -1   1  160.81   34.75
   5   1  -1  183.30   37.96
  -5  -1   0   24.54   13.64
   5   1   0   31.80   15.14
  -5  -1  -1   61.64   20.28
   5   1   1   59.65   20.11
  -5  -1  -2   13.45   11.28
   5   1   2   13.59   11.59
  -5  -1  -3   30.22   14.87
   5   1   3   23.68   13.79
  -5  -1  -4   55.95   19.70
   5   1   4   53.78   19.50
  -5  -1  -5  178.72   38.76
   5   1   5  321.11   58.30
  -5  -1  -6  115.92   30.01
   5   1   6  124.65   31.39
  -5  -1  -7  204.50   43.15
   5   1   7  180.36   39.91
  -5  -2  10   13.55   11.19
   5   2 -10   48.15   18.47
  -5  -2   9   54.01   19.55
   5   2  -9   63.77   21.10
  -5  -2   8   46.29   17.85
   5   2  -8   51.23   18.75
  -5  -2   7   12.46   10.75
   5   2  -7   16.37   11.64
  -5  -2   6   78.56   23.20
   5   2  -6   65.31   21.03
  -5  -2   5   38.81   16.44
   5   2  -5   50.48   18.57
  -5  -2   4   79.39   23.19
   5   2  -4   81.45   23.69
  -5  -2   3   91.61   25.11
   5   2  -3   90.83   25.05
  -5  -2   2   47.40   17.92
   5   2  -2   53.84   19.20
  -5  -2   1   15.53   11.55
   5   2  -1   20.58   12.99
  -5  -2   0    5.81    9.01
   5   2   0    6.40    9.44
  -5  -2  -1   11.93   10.65
   5   2   1   18.27   12.41
  -5  -2  -2   23.03   13.37
   5   2   2   16.98   12.07
  -5  -2  -3  142.13   33.15
   5   2   3   63.66   21.21
  -5  -2  -4   92.73   25.96
   5   2   4  132.44   32.06
  -5  -2  -5   45.75   18.19
   5   2   5   44.69   18.08
  -5  -2  -6   39.27   17.09
   5   2   6   61.99   21.36
  -5  -3   8   65.51   22.21
   5   3  -8   40.95   17.61
  -5  -3   7   34.91   16.29
   5   3  -7   51.79   19.65
  -5  -3   6   26.46   14.39
   5   3  -6   36.69   16.45
  -5  -3   5   11.05   10.79
   5   3  -5   13.06   11.32
  -5  -3   4   13.83   11.57
   5   3  -4   11.33   11.06
  -5  -3   3   67.39   21.92
   5   3  -3   75.21   23.29
  -5  -3   2  113.75   29.16
   5   3  -2  119.72   30.16
  -5  -3   1  132.79   32.07
   5   3  -1  129.24   31.62
  -5  -3   0   66.26   21.64
   5   3   0   72.28   22.76
  -5  -3  -1   71.70   22.66
   5   3   1  112.28   29.20
  -5  -3  -2   15.86   11.64
   5   3   2   11.19   10.75
  -5  -3  -3   16.87   11.99
   5   3   3   27.11   14.59
  -5  -3  -4   77.08   23.71
   5   3   4   74.28   23.36
  -5  -4   3  184.34   40.63
   5   4  -3  194.12   42.05
  -5  -4   2   11.08   11.11
   5   4  -2   17.22   12.76
  -5  -4   1    7.52    9.70
   5   4  -1    7.30   10.00
  -6   2   4   42.25   16.20
   6  -2  -4   39.05   15.79
  -6   2   3   83.30   23.34
   6  -2  -3   46.78   17.45
  -6   2   2   52.16   18.61
   6  -2  -2   18.58   12.23
  -6   2   1   45.24   17.57
   6  -2  -1   27.98   14.47
  -6   2   0    5.64    9.06
   6  -2   0   10.74   10.67
  -6   1   6  141.35   31.81
   6  -1  -6  224.39   43.43
  -6   1   5  104.07   26.46
   6  -1  -5   97.84   25.61
  -6   1   4   12.05   10.28
   6  -1  -4   42.61   16.81
  -6   1   3   30.08   14.33
   6  -1  -3   37.61   15.98
  -6   1   2    8.29    9.43
   6  -1  -2    9.17    9.94
  -6   1   1  116.44   29.26
   6  -1  -1   45.55   17.86
  -6   1   0   15.38   11.83
   6  -1   0   27.68   14.64
  -6   1  -1   38.61   17.02
   6  -1   1   30.35   15.58
  -6   1  -2  128.98   32.13
   6  -1   2   81.75   24.92
  -6   0   7  112.11   28.19
   6   0  -7   55.79   19.30
  -6   0   6   16.34   11.54
   6   0  -6   17.02   11.89
  -6   0   5   38.55   15.97
   6   0  -5   15.56   11.24
  -6   0   4   86.85   24.41
   6   0  -4   83.62   24.04
  -6   0   3   29.54   14.58
   6   0  -3   23.29   13.35
  -6   0   2  189.27   39.97
   6   0  -2  260.12   49.82
  -6   0   1   15.54   11.73
   6   0  -1    9.26   10.40
  -6   0   0   60.94   20.80
   6   0   0   43.33   17.86
  -6   0  -1   26.38   14.39
   6   0   1   14.66   11.96
  -6   0  -2   33.95   16.18
   6   0   2   43.84   18.24
  -6   0  -3   60.61   21.62
   6   0   3   31.59   16.30
  -6  -1   6  125.00   30.98
   6   1  -6  112.28   29.11
  -6  -1   5  125.61   31.06
   6   1  -5  103.37   27.71
  -6  -1   4   10.99   10.55
   6   1  -4    8.99   10.29
  -6  -1   3   18.27   12.15
   6   1  -3   21.00   13.10
  -6  -1   2    4.29    8.44
   6   1  -2    4.95    9.07
  -6  -1   1  111.07   29.12
   6   1  -1   85.82   25.25
  -6  -1   0   47.01   18.59
   6   1   0   55.10   20.27
  -6  -1  -1   41.34   17.66
   6   1   1   39.37   17.52
  -6  -1  -2   93.51   26.96
   6   1   2   91.35   26.76
  -6  -2   4   61.77   21.44
   6   2  -4   62.40   21.70
  -6  -2   3   72.39   23.36
   6   2  -3   92.56   26.75
  -6  -2   2   31.62   15.79
   6   2  -2   34.94   16.70
  -6  -2   1   60.41   21.22
   6   2  -1   65.48   22.27
  -6  -2   0    7.09    9.55
   6   2   0    7.87   10.09
   0   0   0    0.00    0.00
;
_shelx_hkl_checksum              77802
loop_
_space_group_symop_operation_xyz
'x, y, z'
'-x+1/2, y+1/2, -z+1/2'
'-x, -y, -z'
'x-1/2, -y-1/2, z-1/2'
loop_
_atom_site_label
_atom_site_type_symbol
_atom_site_fract_x
_atom_site_fract_y
_atom_site_fract_z
_atom_site_U_iso_or_equiv
_atom_site_adp_type
_atom_site_occupancy
_atom_site_site_symmetry_order
_atom_site_calc_flag
Se1 Se 0.5181(11) 0.3574(13) 0.3345(6) 0.0010(17) Uiso 1 1 d
Fe1 Fe 0.4575(12) 0.2581(14) 0.0722(6) 0.0020(17) Uiso 1 1 d
O1 O 0.329(4) 0.624(4) 0.3470(19) 0.011(4) Uiso 1 1 d
O2 O 0.807(3) 0.434(4) 0.4238(18) 0.009(4) Uiso 1 1 d
O3 O 0.616(3) 0.425(4) 0.2070(17) 0.006(4) Uiso 1 1 d
F1 F 0.271(3) 0.573(4) 0.0107(17) 0.006(3) Uiso 1 1 d
loop_
_atom_type_symbol
_atom_type_description
_atom_type_scat_dispersion_real
_atom_type_scat_dispersion_imag
_atom_type_scat_source
O O 0.0000 0.0000 'International Tables Vol C Tables 4.2.6.8 and 6.1.1.4'
F F 0.0000 0.0000 'International Tables Vol C Tables 4.2.6.8 and 6.1.1.4'
Fe Fe 0.0000 0.0000 'International Tables Vol C Tables 4.2.6.8 and 6.1.1.4'
Se Se 0.0000 0.0000 'International Tables Vol C Tables 4.2.6.8 and 6.1.1.4'
loop_
_geom_angle_atom_site_label_1
_geom_angle_atom_site_label_2
_geom_angle_atom_site_label_3
_geom_angle
_geom_angle_site_symmetry_1
_geom_angle_site_symmetry_3
O1 Se1 O3 98.1(11) . .
O1 Se1 O2 100.2(10) . .
O3 Se1 O2 101.5(9) . .
O3 Fe1 O1 88.9(9) . 2_545
O3 Fe1 F1 93.4(9) . .
O1 Fe1 F1 98.5(8) 2_545 .
O3 Fe1 F1 89.9(8) . 3_665
O1 Fe1 F1 174.4(9) 2_545 3_665
F1 Fe1 F1 76.1(8) . 3_665
O3 Fe1 O2 100.8(9) . 2_645
O1 Fe1 O2 98.4(9) 2_545 2_645
F1 Fe1 O2 158.1(10) . 2_645
F1 Fe1 O2 87.2(8) 3_665 2_645
O3 Fe1 O2 176.5(8) . 4_565
O1 Fe1 O2 93.2(9) 2_545 4_565
F1 Fe1 O2 89.0(9) . 4_565
F1 Fe1 O2 88.2(8) 3_665 4_565
O2 Fe1 O2 76.2(9) 2_645 4_565
Se1 O1 Fe1 141.7(13) . 2
Se1 O2 Fe1 129.1(12) . 2_655
Se1 O2 Fe1 126.4(12) . 4_666
Fe1 O2 Fe1 103.8(9) 2_655 4_666
Se1 O3 Fe1 122.4(11) . .
Fe1 F1 Fe1 103.9(8) . 3_665
loop_
_geom_bond_atom_site_label_1
_geom_bond_atom_site_label_2
_geom_bond_distance
_geom_bond_site_symmetry_2
Se1 O1 1.69(2) .
Se1 O3 1.71(2) .
Se1 O2 1.72(2) .
Fe1 O3 1.91(2) .
Fe1 O1 1.96(2) 2_545
Fe1 F1 1.976(19) .
Fe1 F1 1.986(19) 3_665
Fe1 O2 2.05(2) 2_645
Fe1 O2 2.09(2) 4_565
O1 Fe1 1.96(2) 2
O2 Fe1 2.05(2) 2_655
O2 Fe1 2.09(2) 4_666
F1 Fe1 1.986(19) 3_665

_cod_database_fobs_code 2300635
