#------------------------------------------------------------------------------
#$Date: 2018-07-06 05:20:27 +0300 (Fri, 06 Jul 2018) $
#$Revision: 208877 $
#$URL: file:///home/coder/svn-repositories/cod/cif/2/30/06/2300634.cif $
#------------------------------------------------------------------------------
#
# This file is available in the Crystallography Open Database (COD),
# http://www.crystallography.net/. The original data for this entry
# were provided by IUCr Journals, http://journals.iucr.org/.
#
# The file may be used within the scientific community so long as
# proper attribution is given to the journal article from which the
# data were obtained.
#
data_2300634
loop_
_publ_author_name
'Wang, Yunchen'
'Yang, Taimin'
'Xu, Hongyi'
'Zou, Xiaodong'
'Wan, Wei'
_publ_section_title
;
 On the quality of the continuous rotation electron diffraction data for
 accurate atomic structure determination of inorganic compounds
;
_journal_coeditor_code           KC5069SUP1
_journal_issue                   4
_journal_name_full               'Journal of Applied Crystallography'
_journal_page_first
;
;
_journal_paper_doi               10.1107/S1600576718007604
_journal_volume                  51
_journal_year                    2018
_chemical_formula_sum            'F Fe O3 Se'
_chemical_formula_weight         201.80
_space_group_crystal_system      monoclinic
_space_group_IT_number           14
_space_group_name_Hall           '-P 2yn'
_space_group_name_H-M_alt        'P 1 21/n 1'
_symmetry_space_group_name_Hall  '-P 2yn'
_symmetry_space_group_name_H-M   'P 1 21/n 1'
_audit_creation_method           SHELXL-2014/7
_cell_angle_alpha                90
_cell_angle_beta                 97.87(3)
_cell_angle_gamma                90
_cell_formula_units_Z            4
_cell_length_a                   4.9560(10)
_cell_length_b                   5.2020(10)
_cell_length_c                   12.040(2)
_cell_measurement_reflns_used    640
_cell_measurement_temperature    293(2)
_cell_measurement_theta_max      0.91
_cell_measurement_theta_min      0.12
_cell_volume                     307.48(10)
_computing_structure_refinement  'SHELXL-2014/7 (Sheldrick, 2014)'
_diffrn_ambient_temperature      293(2)
_diffrn_measured_fraction_theta_full 0.714
_diffrn_measured_fraction_theta_max 0.701
_diffrn_measurement_device_type  'JEOL JEM-2100'
_diffrn_radiation_wavelength     0.0251
_diffrn_reflns_av_R_equivalents  0.2103
_diffrn_reflns_av_unetI/netI     0.2519
_diffrn_reflns_Laue_measured_fraction_full 0.714
_diffrn_reflns_Laue_measured_fraction_max 0.701
_diffrn_reflns_limit_h_max       6
_diffrn_reflns_limit_h_min       -6
_diffrn_reflns_limit_k_max       5
_diffrn_reflns_limit_k_min       -5
_diffrn_reflns_limit_l_max       15
_diffrn_reflns_limit_l_min       -15
_diffrn_reflns_number            1257
_diffrn_reflns_point_group_measured_fraction_full 0.714
_diffrn_reflns_point_group_measured_fraction_max 0.701
_diffrn_reflns_theta_full        0.863
_diffrn_reflns_theta_max         0.914
_diffrn_reflns_theta_min         0.121
_exptl_absorpt_coefficient_mu    0.000
_exptl_crystal_colour            White
_exptl_crystal_density_diffrn    4.359
_exptl_crystal_description       Plate
_exptl_crystal_F_000             88
_refine_diff_density_max         0.348
_refine_diff_density_min         -0.356
_refine_diff_density_rms         0.104
_refine_ls_extinction_coef       4725(71)
_refine_ls_extinction_expression Fc^*^=kFc[1+0.001xFc^2^\l^3^/sin(2\q)]^-1/4^
_refine_ls_extinction_method     'SHELXL-2014/7 (Sheldrick 2014'
_refine_ls_goodness_of_fit_ref   1.255
_refine_ls_hydrogen_treatment    undef
_refine_ls_matrix_type           full
_refine_ls_number_parameters     26
_refine_ls_number_reflns         462
_refine_ls_number_restraints     0
_refine_ls_restrained_S_all      1.255
_refine_ls_R_factor_all          0.1905
_refine_ls_R_factor_gt           0.1523
_refine_ls_shift/su_max          0.060
_refine_ls_shift/su_mean         0.003
_refine_ls_structure_factor_coef Fsqd
_refine_ls_weighting_details
'w=1/[\s^2^(Fo^2^)+(0.1102P)^2^] where P=(Fo^2^+2Fc^2^)/3'
_refine_ls_weighting_scheme      calc
_refine_ls_wR_factor_gt          0.3344
_refine_ls_wR_factor_ref         0.3676
_reflns_Friedel_coverage         0.000
_reflns_number_gt                317
_reflns_number_total             462
_reflns_threshold_expression     'I > 2\s(I)'
_cod_data_source_file            kc5069sup1.cif
_cod_data_source_block           dataset1
_cod_original_cell_volume        307.48(11)
_cod_database_code               2300634
_shelx_shelxl_version_number     2014/7
_shelx_space_group_comment
;
The symmetry employed for this shelxl refinement is uniquely defined
by the following loop, which should always be used as a source of
symmetry information in preference to the above space-group names.
They are only intended as comments.
;
_shelx_res_file
;

    2.res created by SHELXL-2014/7


TITL 2 in P2(1)/n
CELL 0.0251   4.9560   5.2020  12.0400  90.000  97.870  90.000
ZERR    4.00   0.0010   0.0010   0.0024   0.000   0.030   0.000
LATT  1
SYMM 0.5-X, 0.5+Y, 0.5-Z
SFAC O      0.45480  23.78030   0.91730   7.62200   0.47190   2.14400 =
            0.13840   0.29590   0.00000   0.000   0.000   0.000   0.730  15.999
SFAC F      0.36860  20.23900   0.81090   6.60930   0.47510   1.93100 =
            0.14590   0.27930   0.00000   0.000   0.000   0.000   0.720  18.998
SFAC FE     2.54400  64.42439   2.34340  14.88060   1.75880   2.85390 =
            0.50620   0.35020   0.00000   0.000   0.000   0.000   1.170  55.847
SFAC SE  2.2980  38.8296 2.8541   11.5359 1.4555   2.1463   =
         0.5895   0.3163 0.00000   0.000   0.000   0.000   1.160  78.960

UNIT 12 4 4 4
LIST 6 ! automatically inserted. Change 6 to 4 for CHECKCIF!!

L.S. 16
BOND
FMAP 2
PLAN 20
ACTA
XNPD 0.001
WGHT    0.110200
EXTI 4725.101074
FVAR       1.59905
SE1   4    0.516767    0.360851    0.333219    11.00000    0.00520
FE1   3    0.458259    0.256246    0.072434    11.00000    0.00516
O1    1    0.336599    0.627837    0.350656    11.00000    0.01341
O2    1    0.806406    0.439738    0.423434    11.00000    0.00674
O3    1    0.622712    0.425908    0.209301    11.00000    0.00562
F1    2    0.270083    0.569770    0.011406    11.00000    0.00899

HKLF 4

REM  2 in P2(1)/n
REM R1 =  0.1523 for     317 Fo > 4sig(Fo)  and  0.1905 for all     462 data
REM     26 parameters refined using      0 restraints

END

WGHT      0.1104      0.0000

REM Highest difference peak  0.348,  deepest hole -0.356,  1-sigma level  0.104
Q1    1   0.5434  0.7377  0.3066  11.00000  0.05    0.35
Q2    1   0.0926  0.6890 -0.0037  11.00000  0.05    0.28
Q3    1   1.0757  0.2970  0.4050  11.00000  0.05    0.28
Q4    1   0.3843  0.6519  0.0413  11.00000  0.05    0.27
Q5    1   0.5108  0.6568  0.2155  11.00000  0.05    0.27
Q6    1   0.7129  0.3273  0.2190  11.00000  0.05    0.26
Q7    1   0.7488  0.5511  0.4395  11.00000  0.05    0.23
Q8    1   0.6661  0.3525  0.4240  11.00000  0.05    0.23
Q9    1   0.4909  0.4503  0.4464  11.00000  0.05    0.21
Q10   1   0.3261  0.3848  0.2409  11.00000  0.05    0.20
Q11   1   0.9421  0.4574  0.4170  11.00000  0.05    0.19
Q12   1   0.5407  0.4297  0.0794  11.00000  0.05    0.19
Q13   1   0.2534  0.6945  0.3136  11.00000  0.05    0.18
Q14   1   0.4356  0.4809  0.3151  11.00000  0.05    0.17
Q15   1   0.0775  0.5128  0.2955  11.00000  0.05    0.16
Q16   1   0.3089  0.3158 -0.0236  11.00000  0.05    0.16
Q17   1   0.1956  0.4139  0.0362  11.00000  0.05    0.15
Q18   1   0.5024  0.5379  0.1012  11.00000  0.05    0.15
Q19   1   0.4445  0.0485  0.0428  11.00000  0.05    0.15
Q20   1   0.9696  0.2648  0.4667  11.00000  0.05    0.15
;
_shelx_res_checksum              50654
_shelx_hkl_file
;
   0   0   2   39.27   14.22
   0   0  -3   45.85   15.94
   0   0   3   34.30   14.08
   0   0  -4  157.99   39.85
   0   0   4  156.30   39.51
   0   0  -5   26.59   14.29
   0   0   5   18.36   13.15
   0   0  -6   57.55   20.22
   0   0   6   84.55   25.69
   0   0  -7   47.57   18.22
   0   0   7   25.08   14.38
   0   0  -8  466.56  111.62
   0   0   8  454.74  109.03
   0   0  -9   16.00   13.10
   0   0   9   17.55   13.86
   0   0 -10   51.62   20.88
   0   0  10   23.25   16.09
   0   0 -11    8.18   12.57
   0   0  11   10.13   13.85
   0   0 -12  109.55   33.39
   0   0  12  318.70   80.65
   0   0 -13   19.58   12.94
   0   0  13    8.57   11.02
   0   0 -14   42.25   18.37
   0   0  14  144.55   42.01
   0   0 -15   16.24   12.36
   0   0  15    3.46    9.23
   0  -1  14   59.51   22.62
   0   1 -14   27.90   14.97
   0  -1  13    8.95   10.65
   0   1 -13   15.99   12.08
   0  -1  12   57.93   21.96
   0   1 -12   68.44   24.14
   0  -1  11   10.34   12.83
   0   1 -11   10.42   12.47
   0  -1  10    8.37   13.14
   0   1 -10   12.60   13.75
   0  -1   9  213.70   55.60
   0   1  -9  476.23  114.81
   0  -1   8  176.95   46.75
   0   1  -8  205.26   53.00
   0  -1   7   39.82   17.01
   0   1  -7   35.09   15.99
   0  -1   6   36.00   16.50
   0   1  -6   24.09   14.23
   0  -1   5  135.20   36.39
   0   1  -5  141.30   37.69
   0  -1   4  524.42  122.86
   0   1  -4  485.06  113.90
   0  -1   3  395.91   93.57
   0   1  -3  359.68   85.26
   0   1   2   40.43   15.67
   0  -1  -3  551.75  128.05
   0   1   3  563.70  130.78
   0  -1  -4   18.08   13.65
   0   1   4    2.27   12.85
   0  -1  -5  205.97   51.47
   0   1   5  226.49   56.03
   0  -1  -6   66.23   21.60
   0   1   6   77.66   24.04
   0  -1  -7   10.66   11.26
   0   1   7   19.21   12.90
   0  -1  -8  243.25   61.21
   0   1   8  248.18   62.39
   0  -1  -9  433.90  104.94
   0   1   9  469.22  112.92
   0  -1 -10   16.13   13.83
   0   1  10    8.08   12.62
   0  -1 -11   33.12   16.45
   0   1  11    2.46   10.86
   0  -1 -12   71.30   24.39
   0   1  12   64.46   22.89
   0  -1 -13   15.41   11.42
   0   1  13   44.29   18.35
   0  -1 -14   78.44   26.53
   0   1  14   12.05   10.82
   0  -2  14   13.73   11.93
   0   2 -14   12.16   11.27
   0  -2  13   12.29   11.55
   0   2 -13   10.60   10.94
   0  -2  12   31.72   16.09
   0   2 -12   23.95   14.35
   0  -2  11   55.95   21.94
   0   2 -11   65.71   23.86
   0  -2  10   62.32   24.04
   0   2 -10   47.32   20.58
   0  -2   9  106.82   33.14
   0   2  -9   93.77   30.21
   0  -2   8   53.46   21.33
   0   2  -8   41.74   18.85
   0  -2   7   77.66   25.62
   0   2  -7   58.17   21.57
   0  -2   6   33.40   17.47
   0   2  -6   32.70   17.14
   0  -2   5   28.64   18.70
   0   2  -5   32.49   18.70
   0  -2  -3    5.83   12.83
   0   2   3    4.19   13.34
   0  -2  -4  137.60   36.58
   0   2   4   83.31   25.35
   0  -2  -5   39.57   16.49
   0   2   5   49.04   18.57
   0  -2  -6   47.92   18.16
   0   2   6   55.45   19.90
   0  -2  -7   73.51   24.06
   0   2   7   82.60   26.27
   0  -2  -8    7.36   13.08
   0   2   8    2.14   12.62
   0  -2  -9   66.23   23.79
   0   2   9  122.66   35.82
   0  -2 -10   43.46   19.38
   0   2  10   31.90   16.88
   0  -2 -11   64.00   22.83
   0   2  11   24.84   14.47
   0  -2 -12   33.01   15.66
   0   2  12   36.14   16.53
   0  -2 -13   45.41   18.77
   0   2  13   15.41   11.83
   0  -2 -14    4.65    8.93
   0   2  14    5.90    9.43
   0  -3  13   17.97   13.58
   0   3 -13   13.85   12.09
   0  -3  12    7.62   11.34
   0   3 -12    6.55   10.89
   0  -3  11   44.20   19.61
   0   3 -11   35.42   17.48
   0  -3  10  207.40   56.20
   0   3 -10  116.82   35.58
   0  -3   9   57.60   23.68
   0   3  -9   66.88   25.60
   0  -3   8   41.91   21.73
   0   3  -8   91.82   31.06
   0   3  -7  122.34   37.23
   0  -3  -4  203.05   52.19
   0   3   4  187.47   48.54
   0  -3  -5   49.68   19.16
   0   3   5  103.83   30.53
   0  -3  -6   23.89   14.32
   0   3   6   19.36   14.05
   0  -3  -7  119.61   34.70
   0   3   7  107.92   32.39
   0  -3  -8    1.36   12.33
   0   3   8   16.31   14.62
   0  -3  -9   71.95   24.75
   0   3   9  104.42   32.03
   0  -3 -10  225.32   59.06
   0   3  10  135.39   39.16
   0  -3 -11   11.60   11.68
   0   3  11    5.03   10.80
   0  -3 -12    2.03    9.73
   0   3  12    0.34    8.86
   0  -3 -13   17.36   12.77
   0   3  13   10.81   11.28
   0  -4  11   21.33   15.83
   0   4 -11   13.24   13.29
   0  -4  10   14.28   13.82
   0   4 -10   18.95   14.99
   0  -4  -5   12.67   15.47
   0   4   5   27.16   18.02
   0  -4  -6  329.68   82.27
   0   4   6  237.08   61.51
   0  -4  -7   21.65   14.79
   0   4   7   12.21   13.37
   0  -4  -8   18.70   13.18
   0   4   8   14.92   12.93
   0  -4  -9   22.23   13.57
   0   4   9   21.58   13.73
   0  -4 -10   18.73   12.52
   0   4  10    9.36   10.57
   0  -4 -11    1.63    8.14
   0   4  11    1.13    8.35
   0  -4 -12    3.01    8.66
   0   4  12    2.23    8.85
   0  -5  -6   17.77   14.06
   0   5   6   11.35   12.61
   0  -5  -7    3.31    9.98
   0   5   7    3.38    9.97
   0  -5  -8    1.39    9.11
   0   5   8   12.21   11.53
   0  -5  -9   16.04   12.36
   0   5   9   35.89   16.95
  -1   5   9   37.51   17.97
   1  -5  -9   33.87   17.14
  -1   5   8    7.21   11.34
   1  -5  -8    1.80   10.33
  -1   5   7   85.26   28.64
   1  -5  -7   92.14   30.41
  -1   5   6   14.04   13.72
  -1   4  12    3.88    9.43
   1  -4 -12    3.47    9.03
  -1   4  11   27.24   15.32
   1  -4 -11   17.12   12.67
  -1   4  10   37.31   17.47
   1  -4 -10   18.02   13.07
  -1   4   9   87.47   28.86
   1  -4  -9   50.57   20.31
  -1   4   8    4.14   11.36
   1  -4  -8    7.55   11.92
  -1   4   7    3.48   12.85
   1  -4  -7   19.17   14.91
  -1   4   6    4.81   14.16
   1  -4  -6    7.61   14.53
  -1   4   5   29.31   19.10
   1  -4  -5   28.40   18.88
  -1   4 -11   32.08   18.41
  -1   3  13    0.24    9.52
   1  -3 -13    7.32   10.95
  -1   3  12   46.28   20.03
   1  -3 -12   26.27   15.18
  -1   3  11   34.94   16.97
   1  -3 -11   28.53   15.48
  -1   3  10   22.25   14.78
   1  -3 -10   14.21   12.47
  -1   3   9   11.94   13.58
   1  -3  -9   10.36   13.22
  -1   3   8   21.14   16.22
   1  -3  -8   28.70   17.20
  -1   3   7   33.98   18.29
   1  -3  -7   29.21   17.12
  -1   3   6   73.70   25.34
   1  -3  -6  103.05   31.49
  -1   3   5  287.73   72.08
   1  -3  -5  322.99   79.87
  -1   3   4   30.70   17.47
   1  -3  -4   38.83   18.48
  -1   3  -9  115.78   36.27
   1  -3   9   93.51   31.47
  -1   3 -10   38.13   18.60
   1  -3  10   34.14   18.73
  -1   3 -11   83.25   28.46
   1  -3  11   60.00   23.29
  -1   3 -12   32.69   16.87
   1  -3  12   55.92   22.67
  -1   2  14   48.58   20.18
   1  -2 -14  108.51   34.04
  -1   2  13   61.55   22.98
   1  -2 -13   54.74   21.34
  -1   2  12   26.70   15.07
   1  -2 -12   29.64   15.50
  -1   2  11   42.81   19.38
   1  -2 -11   17.98   13.68
  -1   2  10    4.40   13.55
   1  -2 -10   -0.13   14.05
  -1   2   9    4.58   15.23
   1  -2  -9   11.99   15.24
  -1   2   8  218.12   56.83
   1  -2  -8  221.43   57.48
  -1   2   7   63.40   22.40
   1  -2  -7   65.45   22.52
  -1   2   6   21.36   14.27
   1  -2  -6    9.73   11.96
  -1   2   5  298.05   73.38
   1  -2  -5  327.34   79.81
  -1   2   4  226.95   57.38
   1  -2  -4  198.90   51.01
  -1   2   3   20.31   15.88
   1  -2  -3   16.27   15.32
  -1   2  -7   99.87   31.31
   1  -2   7  126.82   37.24
  -1   2  -8   85.33   28.97
   1  -2   8  138.70   40.32
  -1   2  -9  156.30   44.14
   1  -2   9  129.03   38.62
  -1   2 -10   82.92   27.90
   1  -2  10   65.33   24.19
  -1   2 -11   14.59   12.51
   1  -2  11   11.21   12.10
  -1   2 -12    4.70    9.86
   1  -2  12    6.00   10.18
  -1   2 -13   30.96   15.84
   1  -2  13   25.53   14.84
  -1   1  15    9.10   10.43
   1  -1 -15   16.71   12.31
  -1   1  14   19.01   12.83
   1  -1 -14   13.85   11.38
  -1   1  13   33.60   16.21
   1  -1 -13   26.60   14.60
  -1   1  12   11.63   12.08
   1  -1 -12    2.59   10.01
  -1   1  11  128.25   37.78
   1  -1 -11  188.31   51.07
  -1   1  10    8.18   13.84
   1  -1 -10    4.53   12.88
  -1   1   9  390.71   95.58
   1  -1  -9  369.61   90.71
  -1   1   8   16.33   12.92
   1  -1  -8   27.10   14.57
  -1   1   7   46.32   18.45
   1  -1  -7   40.10   17.06
  -1   1   6   77.40   25.02
   1  -1  -6   66.49   22.88
  -1   1   5   43.92   19.87
   1  -1  -5   40.59   18.65
  -1   1   4  425.71  100.78
   1  -1  -4  439.35  103.77
  -1   1   3  260.39   63.18
   1  -1  -3  234.87   57.40
  -1   1   2  135.84   35.71
   1  -1  -2  276.30   66.43
  -1   1  -4   78.90   26.17
   1  -1   4   69.48   24.45
  -1   1  -5  145.97   39.25
   1  -1   5   84.22   26.40
  -1   1  -6  289.94   71.17
   1  -1   6  234.81   58.92
  -1   1  -7  101.10   29.53
   1  -1   7   94.03   28.14
  -1   1  -8   20.53   13.68
   1  -1   8   92.92   28.40
  -1   1  -9    3.30   12.12
   1  -1   9    9.64   13.05
  -1   1 -10   55.76   21.72
   1  -1  10   34.89   17.62
  -1   1 -11  115.71   34.45
   1  -1  11  183.12   49.74
  -1   1 -12   27.51   14.69
   1  -1  12   25.99   14.40
  -1   1 -13    5.80    9.38
   1  -1  13    8.47    9.97
  -1   1 -14   55.07   21.36
   1  -1  14   10.82   10.71
  -1   0  15  182.14   51.28
   1   0 -15  163.31   46.84
  -1   0  14    1.37    8.75
   1   0 -14    1.54    8.11
  -1   0  13    0.18    8.77
   1   0 -13    0.62    8.11
  -1   0  12    0.82    9.56
   1   0 -12    2.31    9.36
  -1   0  11    1.25   11.66
   1   0 -11    1.22   11.23
  -1   0  10    2.36   11.84
   1   0 -10    2.88   11.62
  -1   0   9    5.11   11.31
   1   0  -9    5.31   11.01
  -1   0   8    0.76   10.25
   1   0  -8    0.54    9.84
  -1   0   7 1000.00  232.14
   1   0  -7  907.79  211.10
  -1   0   6    2.79   11.49
   1   0  -6    3.79   11.41
  -1   0   5  330.78   79.35
   1   0  -5  319.94   76.88
  -1   0   4    8.45   11.36
   1   0  -4    3.67   10.40
  -1   0   3  620.52  143.51
   1   0  -3  613.70  141.95
  -1   0   1  238.44   55.84
  -1   0  -2    1.48    9.88
   1   0   3  542.60  125.52
   1   0   4    8.68   10.24
  -1   0  -5  381.82   90.45
   1   0   5  405.97   95.97
  -1   0  -6    6.11   10.31
   1   0   6    9.89   10.99
  -1   0  -7  657.79  154.09
   1   0   7  681.17  159.48
  -1   0  -8    0.26    9.72
   1   0   8    9.91   11.25
  -1   0  -9  397.73   96.62
   1   0   9  358.38   87.73
  -1   0 -10    3.36   11.66
   1   0  10    7.18   12.20
  -1   0 -11    7.19   10.68
   1   0  11   12.14   12.07
  -1   0 -12    3.29    8.96
   1   0  12    2.21    8.66
  -1   0 -13   18.13   12.01
   1   0  13   17.18   11.84
  -1   0 -14    2.04    8.21
   1   0  14    0.66    8.12
  -1  -1  14    9.78   10.58
   1   1 -14   13.01   11.32
  -1  -1  13   25.20   14.49
   1   1 -13   25.95   14.55
  -1  -1  12    4.40   10.51
   1   1 -12    2.31    9.55
  -1  -1  11  200.71   53.97
   1   1 -11  252.92   65.58
  -1  -1  10    3.43   12.93
   1   1 -10    3.63   12.48
  -1  -1   9  302.21   75.52
   1   1  -9  383.51   93.83
  -1  -1   8   50.03   19.11
   1   1  -8   53.96   19.85
  -1  -1   7   59.61   20.66
   1   1  -7   56.74   19.96
  -1  -1   6  169.94   44.07
   1   1  -6  178.83   45.97
  -1  -1   5   83.90   25.11
   1   1  -5   78.05   23.84
  -1  -1   4  393.96   92.99
   1   1  -4  356.30   84.48
  -1  -1   1  438.18  101.10
   1   1  -1  463.38  106.75
   1   1   1  228.51   53.18
  -1  -1  -2  235.78   55.27
  -1  -1  -3  559.55  129.16
   1   1   5  141.36   36.20
  -1  -1  -6  271.75   65.91
   1   1   6  257.73   62.80
  -1  -1  -7  139.09   36.72
   1   1   7  144.61   37.97
  -1  -1  -8   29.08   13.60
   1   1   8   30.27   14.21
  -1  -1  -9    4.49   10.61
   1   1   9    8.01   11.58
  -1  -1 -10   46.30   18.66
   1   1  10   35.27   16.67
  -1  -1 -11  143.90   40.09
   1   1  11  211.04   55.29
  -1  -1 -12   24.39   13.18
   1   1  12   20.20   12.41
  -1  -1 -13   10.42    9.66
   1   1  13   14.58   11.18
  -1  -1 -14    6.35    8.68
   1   1  14    3.03    8.49
  -1  -2  14  109.94   34.56
   1   2 -14  109.74   34.47
  -1  -2  13   31.36   16.01
   1   2 -13   28.62   15.26
  -1  -2  12   46.95   19.46
   1   2 -12   25.70   14.53
  -1  -2  11   31.59   16.64
   1   2 -11   20.12   13.67
  -1  -2  10   73.18   25.92
   1   2 -10   44.00   19.45
  -1  -2   9    7.16   13.31
   1   2  -9    4.03   12.49
  -1  -2   8  167.14   45.13
   1   2  -8   90.20   28.22
  -1  -2   7   53.77   20.20
   1   2  -7   48.59   18.98
  -1  -2   6   18.29   13.82
   1   2  -6   15.58   12.75
  -1  -2   5  393.12   94.29
   1   2  -5  323.12   78.44
  -1  -2   4  134.29   36.58
   1   2  -4  153.57   40.58
  -1  -2  -3  213.12   52.00
   1   2   5   43.27   15.90
   1   2   6   11.74   11.73
  -1  -2  -7  143.96   38.42
   1   2   7  134.48   36.36
  -1  -2  -8  120.26   34.02
   1   2   8  157.47   42.14
  -1  -2  -9  148.05   40.61
   1   2   9  104.81   31.19
  -1  -2 -10   77.53   25.06
   1   2  10   43.03   17.71
  -1  -2 -11   16.92   11.47
   1   2  11   10.83   10.41
  -1  -2 -12    2.63    8.07
   1   2  12    9.56    9.84
  -1  -2 -13    7.94    9.21
   1   2  13    2.84    7.73
  -1  -3  13   52.77   21.47
   1   3 -13   29.30   15.75
  -1  -3  12   89.16   29.50
   1   3 -12   36.53   17.31
  -1  -3  11   52.23   20.98
   1   3 -11   37.40   17.39
  -1  -3  10   29.26   16.54
   1   3 -10   19.43   13.81
  -1  -3   9   12.15   14.33
   1   3  -9   10.57   13.55
  -1  -3   8   21.42   17.57
   1   3  -8   16.88   15.21
  -1  -3   7   97.40   31.37
   1   3  -7   32.14   18.43
  -1  -3   6   79.35   27.14
   1   3  -6   64.88   24.16
   1   3   4   75.13   23.10
   1   3   5   25.25   13.75
  -1  -3  -6  115.33   32.49
   1   3   6  106.88   30.77
  -1  -3  -7   21.31   14.03
   1   3   7   27.79   15.29
  -1  -3  -8   27.20   14.83
   1   3   8   67.27   23.24
  -1  -3  -9  138.18   38.49
   1   3   9  133.18   37.70
  -1  -3 -10   23.01   13.60
   1   3  10   -1.05    9.81
  -1  -3 -11    3.82    8.71
   1   3  11   40.02   16.99
  -1  -3 -12   50.10   19.45
   1   3  12   91.04   28.88
  -1  -4  11   38.68   18.64
   1   4 -11   28.96   16.16
  -1  -4  10   62.81   23.99
   1   4 -10   51.38   21.24
  -1  -4   9   80.78   28.00
   1   4  -9  118.38   36.09
   1   4  -8    1.25   12.66
  -1  -4  -5   11.98   13.89
   1   4   5   31.40   16.58
  -1  -4  -6    7.01   11.59
   1   4   6    2.86   11.34
  -1  -4  -7    3.58    9.73
   1   4   7    9.42   11.27
  -1  -4  -8    6.49    9.55
   1   4   8    2.08    9.17
  -1  -4  -9  192.66   51.12
   1   4   9  222.73   57.97
  -1  -4 -10    3.01    8.10
   1   4  10    8.89    9.79
  -1  -4 -11   12.35   10.61
   1   4  11    7.32    9.63
  -1  -5  -6   24.02   14.31
   1   5   6   22.11   13.79
  -1  -5  -7    3.27    9.29
   1   5   7    4.27    9.35
  -1  -5  -8    3.64    8.82
   1   5   8    1.93    8.84
  -1  -5  -9    1.48    7.80
   1   5   9    3.84    8.99
  -2   5   9    4.09   10.97
   2  -5  -9    8.19   11.66
  -2   5   8    6.31   11.20
   2  -5  -8   11.57   12.44
  -2   5   7   22.53   15.29
   2  -5  -7    2.96   11.85
  -2   5   6    0.78   11.36
  -2   4  11    3.88    9.97
   2  -4 -11   11.21   11.54
  -2   4  10    4.96   10.46
   2  -4 -10    2.74    9.51
  -2   4   9    4.96   11.05
   2  -4  -9    5.44   10.34
  -2   4   8    5.63   11.77
   2  -4  -8   12.73   13.02
  -2   4   7   51.40   21.47
   2  -4  -7   49.94   21.12
  -2   4   6  189.81   52.16
   2  -4  -6  103.31   33.27
  -2   4   5    0.42   14.81
  -2   3  13    3.04   10.36
   2  -3 -13    0.61    8.84
  -2   3  12   35.71   17.63
   2  -3 -12   31.66   16.31
  -2   3  11   28.62   15.70
   2  -3 -11   32.25   16.34
  -2   3  10   66.56   24.22
   2  -3 -10   59.30   22.58
  -2   3   9   25.55   16.01
   2  -3  -9   36.29   18.03
  -2   3   8   17.35   15.68
   2  -3  -8   16.18   14.70
  -2   3   7    4.63   14.49
   2  -3  -7    6.72   14.19
  -2   3   6   11.58   15.84
   2  -3  -6   12.69   15.49
  -2   3   5    4.45   13.99
   2  -3  -5    3.88   13.27
  -2   3   4    8.12   15.44
   2  -3  -4    9.32   15.05
  -2   3 -10   65.33   24.67
  -2   3 -11    4.81   12.13
   2  -3  11    3.87   11.98
  -2   2  14   51.97   21.47
   2  -2 -14   38.36   18.29
  -2   2  13   89.09   29.74
   2  -2 -13   45.68   19.63
  -2   2  12  142.99   41.69
   2  -2 -12   15.53   13.25
  -2   2  11   -0.20   12.16
   2  -2 -11   43.10   19.41
  -2   2  10   40.54   19.84
   2  -2 -10   41.93   20.14
  -2   2   9   13.83   15.46
   2  -2  -9   11.98   14.97
  -2   2   8   20.75   16.53
   2  -2  -8   17.32   15.15
  -2   2   7  475.91  114.87
   2  -2  -7  509.55  122.40
  -2   2   6  110.91   32.71
   2  -2  -6  117.47   33.92
  -2   2   5  325.32   80.00
   2  -2  -5  296.43   73.51
  -2   2   4   27.58   15.92
   2  -2  -4   35.66   17.10
  -2   2   3   10.86   14.83
   2  -2  -3   15.83   14.81
  -2   2  -8  123.25   37.22
  -2   2  -9   36.29   18.26
   2  -2   9   60.54   23.98
  -2   2 -10   17.73   13.54
   2  -2  10   82.86   27.83
  -2   2 -11   33.08   16.44
   2  -2  11   29.64   16.04
  -2   2 -12   16.99   12.66
   2  -2  12   17.45   12.78
  -2   1  14    6.29   10.12
   2  -1 -14    4.31    9.31
  -2   1  13    8.47   10.62
   2  -1 -13    8.39   10.41
  -2   1  12   22.75   14.08
   2  -1 -12   26.49   14.77
  -2   1  11    2.73   11.18
   2  -1 -11    2.41   10.87
  -2   1  10    4.21   13.14
   2  -1 -10   11.83   13.82
  -2   1   9   11.88   14.35
   2  -1  -9    9.41   14.22
  -2   1   8  456.17  110.20
   2  -1  -8   89.16   28.28
  -2   1   7    1.22   12.70
   2  -1  -7   45.55   19.23
  -2   1   6   67.47   22.76
   2  -1  -6   21.03   13.63
  -2   1   5  242.60   60.50
   2  -1  -5  178.90   46.20
  -2   1   4  701.30  163.64
   2  -1  -4  668.83  156.23
  -2   1   3   37.58   17.16
   2  -1  -3   32.96   15.86
   2  -1  -2   77.01   23.73
  -2   1  -6  180.91   47.36
   2  -1   6  321.30   78.77
  -2   1  -7  148.25   40.49
   2  -1   7  108.44   32.05
  -2   1  -8   74.09   25.13
   2  -1   8   78.83   26.31
  -2   1  -9   19.59   14.14
   2  -1   9   31.32   16.86
  -2   1 -10    3.09   10.03
   2  -1  10    1.82   10.29
  -2   1 -11   59.66   21.58
   2  -1  11   38.42   17.01
  -2   1 -12   19.89   12.51
   2  -1  12   23.01   13.48
  -2   1 -13    2.18    8.12
   2  -1  13    1.62    8.29
  -2   0  14   55.65   21.66
   2   0 -14   53.87   21.14
  -2   0  13    3.61    9.01
   2   0 -13    5.08    9.31
  -2   0  12   60.64   22.51
   2   0 -12    7.58   10.22
  -2   0  11    2.06   11.05
   2   0 -11    7.80   11.22
  -2   0  10   39.25   18.80
   2   0 -10   40.75   18.62
  -2   0   9    1.36   11.43
   2   0  -9    0.71   10.96
  -2   0   8  332.79   81.82
   2   0  -8  477.14  114.48
  -2   0   7    3.52   10.34
   2   0  -7    4.75   10.42
  -2   0   6  157.47   41.34
   2   0  -6  138.83   37.16
  -2   0   5    1.23   10.51
   2   0  -5    1.65   10.44
   2   0  -4  552.21  129.09
  -2   0   2  134.87   33.96
   2   0  -2  145.58   36.27
  -2   0   1   22.16   10.97
   2   0  -1    7.73    9.18
  -2   0  -4   27.70   13.27
   2   0   5   13.18   10.56
   2   0   6  278.18   67.60
  -2   0  -7    1.01    8.96
   2   0   7    1.62    9.45
  -2   0  -8  145.26   39.19
   2   0   8  236.36   59.64
  -2   0  -9    2.87   10.47
   2   0   9   19.14   13.50
  -2   0 -10  226.10   58.21
   2   0  10   95.65   28.92
  -2   0 -11    0.49    7.76
   2   0  11    2.04    8.20
  -2   0 -12   56.75   20.52
   2   0  12   83.77   26.77
  -2   0 -13   11.91   10.14
   2   0  13    2.58    7.92
  -2  -1  14   20.90   13.77
   2   1 -14   11.83   11.29
  -2  -1  13   77.14   26.56
   2   1 -13   23.81   14.06
  -2  -1  12   35.18   17.07
   2   1 -12   81.23   27.04
  -2  -1  11   56.36   22.01
   2   1 -11    9.06   11.64
  -2  -1  10   25.90   16.75
   2   1 -10   21.45   15.13
  -2  -1   9   33.62   17.64
   2   1  -9   21.86   15.07
  -2  -1   8  246.62   62.51
   2   1  -8  131.23   36.68
  -2  -1   7   78.70   24.60
   2   1  -7   30.72   14.63
  -2  -1   6   59.43   19.90
   2   1  -6   42.31   16.31
  -2  -1   4  578.57  134.81
  -2  -1   3   72.01   20.73
   2   1  -3   67.14   19.63
  -2  -1   2   70.33   19.28
   2   1  -2  176.75   42.54
  -2  -1   1   57.66   15.40
   2   1  -1   26.67    9.21
  -2  -1   0   31.00    8.33
   2   1   0    2.99    3.49
  -2  -1  -2  105.33   25.36
   2   1   2  255.32   59.08
  -2  -1  -3  135.84   33.01
   2   1   3  290.00   67.66
  -2  -1  -4  421.17   98.12
   2   1   4  544.93  126.10
  -2  -1  -5  166.10   41.22
  -2  -1  -6  116.43   30.90
   2   1   7  115.97   31.53
   2   1   8   96.04   28.00
  -2  -1  -9   24.73   13.57
   2   1   9   24.44   13.49
  -2  -1 -10   16.38   11.20
   2   1  10   22.20   12.38
  -2  -1 -11   32.21   14.53
   2   1  11   70.07   22.98
  -2  -1 -12   20.33   11.95
   2   1  12  111.69   32.84
  -2  -1 -13   14.52   10.80
   2   1  13   17.12   11.33
  -2  -2  14   34.23   16.87
   2   2 -14   58.14   22.46
  -2  -2  13   89.29   29.42
   2   2 -13   94.87   30.58
  -2  -2  12  212.14   56.91
   2   2 -12   76.69   26.05
  -2  -2  11   56.19   21.35
   2   2 -11   55.43   21.06
  -2  -2  10   28.45   15.71
   2   2 -10   27.65   15.32
  -2  -2   9   11.72   13.18
   2   2  -9    7.02   12.25
  -2  -2   8    9.79   12.61
   2   2  -8   28.51   15.47
  -2  -2   7  514.16  122.47
   2   2  -7  433.83  104.29
   2   2  -6  175.52   45.38
  -2  -2   4   44.69   15.96
  -2  -2   3   76.43   21.99
   2   2  -3   33.29   13.43
  -2  -2   2  274.61   65.45
   2   2  -2  310.26   73.31
   2   2   2  385.19   89.35
  -2  -2  -3   47.58   14.36
   2   2   3   75.84   20.22
  -2  -2  -4   38.25   13.07
   2   2   4   42.45   14.19
  -2  -2  -5   16.75   10.14
   2   2   5  175.91   43.62
  -2  -2  -6   27.62   12.46
  -2  -2  -7    9.74   10.65
   2   2   8  227.27   57.18
   2   2   9   64.19   20.96
  -2  -2 -10   29.34   13.36
   2   2  10   31.31   13.72
  -2  -2 -11   32.78   14.16
   2   2  11   11.72    9.41
  -2  -2 -12   27.08   13.11
   2   2  12   30.16   13.90
  -2  -3  12   28.60   15.16
   2   3 -12   32.58   16.09
  -2  -3  11   16.23   12.42
   2   3 -11   15.03   11.75
  -2  -3  10  114.48   34.27
   2   3 -10   87.79   28.23
  -2  -3   9   24.02   14.60
   2   3  -9   48.91   19.68
  -2  -3   8    4.23   12.03
   2   3  -8    5.10   11.88
  -2  -3   7   10.51   13.48
   2   3  -7   16.00   14.42
   2   3  -6    5.48   12.41
  -2  -3  -4   45.90   16.45
   2   3   4    2.26    9.27
  -2  -3  -5   21.42   12.33
   2   3   5   14.96   11.32
  -2  -3  -6    8.78   10.61
  -2  -3  -7    7.32    9.93
   2   3   9   63.22   20.88
   2   3  10   75.84   24.05
  -2  -3 -11   23.66   12.41
   2   3  11   35.19   15.03
  -2  -4  11    9.71   11.10
   2   4 -11   16.67   12.62
  -2  -4  10    7.40   10.47
   2   4 -10    2.72    9.32
  -2  -4   9    7.49   11.26
   2   4  -9   13.60   11.99
  -2  -4   8    7.39   11.55
   2   4  -8   32.67   16.43
  -2  -4   7   13.61   13.74
   2   4  -7    7.30   12.66
  -2  -4  -5   10.40   10.49
  -2  -4  -6  127.53   34.90
   2   4   8   25.74   12.55
   2   4   9   23.02   12.03
  -2  -4 -10    1.29    7.20
   2   4  10    1.14    7.34
   2   5   6   25.31   12.94
   2   5   7    2.07    7.90
   2   5   8   48.86   18.40
  -3   5   7   38.89   19.58
   3  -5  -7   41.63   20.29
  -3   4  10    0.26    9.51
   3  -4 -10    0.52    8.87
  -3   4   9   10.52   12.30
   3  -4  -9    9.80   11.68
  -3   4   8   61.90   23.76
   3  -4  -8   77.66   27.31
  -3   4   7   28.78   16.55
   3  -4  -7   22.51   15.00
  -3   4   6   12.42   13.55
   3  -4  -6   14.50   14.30
  -3   3  12   33.96   17.35
   3  -3 -12   22.46   14.21
  -3   3  11   13.33   12.21
   3  -3 -11   18.20   13.32
  -3   3  10    2.79   10.26
   3  -3 -10    3.74    9.78
  -3   3   9   46.96   20.09
   3  -3  -9   49.41   20.47
  -3   3   8   21.66   15.08
   3  -3  -8   46.07   19.84
  -3   3   7  282.27   72.60
   3  -3  -7  249.35   65.19
  -3   3   6   19.46   16.60
   3  -3  -6    9.62   14.20
  -3   3   5   17.01   16.72
   3  -3  -5   22.22   16.94
  -3   3   4    0.49   15.61
  -3   2  13    2.13   10.03
   3  -2 -13    9.61   12.13
  -3   2  12    5.01   11.41
   3  -2 -12   25.64   15.75
  -3   2  11   16.48   13.62
   3  -2 -11   14.68   12.50
  -3   2  10   81.36   27.62
   3  -2 -10  106.43   32.99
  -3   2   9   41.36   19.24
   3  -2  -9   45.71   19.55
  -3   2   8   17.50   15.26
   3  -2  -8   18.76   15.30
  -3   2   7  100.91   31.90
   3  -2  -7  120.45   36.01
  -3   2   6   20.55   16.24
   3  -2  -6    1.57   13.17
  -3   2   5  151.17   42.07
   3  -2  -5   91.30   29.06
  -3   2   4  134.55   37.88
   3  -2  -4  187.21   49.43
  -3   2   3    6.98   13.99
  -3   2 -10   17.90   13.64
   3  -2  10   24.55   15.12
  -3   2 -11    1.60    9.36
   3  -2  11    8.97   11.57
  -3   1  13   94.03   30.71
   3  -1 -13   82.40   27.99
  -3   1  12   37.46   17.36
   3  -1 -12   59.35   22.44
  -3   1  11   80.13   27.05
   3  -1 -11  114.16   34.64
  -3   1  10   18.88   14.34
   3  -1 -10    7.31   11.88
  -3   1   9    2.02   13.56
   3  -1  -9   15.84   15.57
  -3   1   8  101.95   32.68
   3  -1  -8   96.95   31.16
  -3   1   7   38.24   18.21
   3  -1  -7   22.79   15.47
  -3   1   6   31.25   15.90
   3  -1  -6   20.66   13.86
  -3   1   5   51.81   19.21
   3  -1  -5   61.47   21.10
   3  -1  -4    9.73   11.31
  -3   1  -7   61.60   22.93
  -3   1  -8   26.24   15.10
   3  -1   8    9.77   13.12
  -3   1  -9    6.68   10.62
   3  -1   9   10.27   11.55
  -3   1 -10   26.12   13.90
   3  -1  10   53.22   19.92
  -3   1 -11  136.17   38.92
   3  -1  11  104.48   31.79
  -3   1 -12   24.36   13.59
   3  -1  12   14.65   11.59
  -3   0  14    2.89    8.51
   3   0 -14    0.29    7.68
  -3   0  13   32.60   15.90
   3   0 -13   27.49   14.81
  -3   0  12    1.60    8.33
   3   0 -12    0.93    8.36
  -3   0  11   23.82   14.04
   3   0 -11   31.29   15.40
  -3   0  10    1.67   11.04
   3   0 -10   -0.09    9.97
  -3   0   9  168.96   46.21
   3   0  -9  162.79   44.66
  -3   0   8    2.34   12.13
   3   0  -8    2.58   11.75
  -3   0   7   23.05   13.92
   3   0  -7   26.48   14.44
   3   0  -6    2.20   10.28
  -3   0   4    0.65   10.25
  -3   0   3   15.75   10.44
   3   0  -3   13.05    9.94
  -3   0   2    0.52    8.27
   3   0  -2   20.85   10.75
  -3   0   1    3.02    8.38
   3   0  -1   12.46    9.34
  -3   0  -5  108.90   30.26
  -3   0  -6    1.09   10.40
   3   0   8    3.38    9.39
   3   0   9   12.31   10.27
  -3   0 -10    1.48    7.31
   3   0  10    2.74    7.80
  -3   0 -11   99.68   29.83
   3   0  11  106.56   31.47
  -3   0 -12    0.57    6.87
   3   0  12    4.82    8.23
  -3  -1  13   87.73   28.94
   3   1 -13   91.56   29.62
  -3  -1  12   84.74   27.69
   3   1 -12   72.99   24.92
  -3  -1  11  121.88   35.75
   3   1 -11  146.30   41.22
  -3  -1  10    0.08    9.29
   3   1 -10    0.24    8.86
  -3  -1   9   80.78   26.27
   3   1  -9  113.57   33.34
  -3  -1   8  132.66   37.22
   3   1  -8  128.31   36.13
   3   1  -7   20.15   12.42
  -3  -1   5   97.60   27.02
   3   1  -5   96.62   26.75
  -3  -1   4   24.37   11.01
   3   1  -4   15.95    9.39
  -3  -1   3  319.61   75.52
   3   1  -3  322.66   76.17
  -3  -1   2   13.79    7.72
   3   1  -2    4.35    6.43
  -3  -1   1  505.97  116.43
   3   1  -1  210.07   49.46
  -3  -1   0   41.25   11.12
   3   1   0   21.68    7.21
  -3  -1  -3  142.01   34.33
   3   1   3  151.69   36.57
  -3  -1  -4  125.97   31.39
   3   1   4   85.07   22.36
  -3  -1  -5    5.56    7.71
   3   1   5   32.40   12.18
  -3  -1  -6   44.00   15.31
   3   1   6   90.97   25.24
  -3  -1  -7  133.31   35.18
   3   1   7   94.09   26.49
  -3  -1  -8    3.26    7.78
  -3  -1  -9    7.25    8.05
   3   1  10   61.25   20.21
   3   1  11  255.58   64.88
  -3  -1 -12   29.10   13.64
   3   1  12   32.86   14.54
  -3  -2  13   49.95   20.10
   3   2 -13   41.03   17.94
  -3  -2  12   35.66   16.50
   3   2 -12   32.06   15.51
  -3  -2  11   15.96   11.64
   3   2 -11   12.88   10.71
  -3  -2  10   94.48   29.18
   3   2 -10  102.92   31.05
  -3  -2   9   11.97   11.38
   3   2  -9    5.78    9.82
   3   2  -8   29.92   15.08
  -3  -2   6    9.84   10.87
   3   2  -6    7.10   10.48
  -3  -2   5  192.47   48.47
   3   2  -5  159.22   40.98
  -3  -2   4  332.47   79.22
   3   2  -4  332.21   79.16
  -3  -2   3    8.22    7.79
   3   2  -3   34.38   12.23
  -3  -2   2  163.90   39.79
   3   2  -2   60.25   16.79
  -3  -2   1   56.53   15.31
   3   2  -1   35.25   10.73
  -3  -2  -2  441.75  101.36
   3   2   2  496.36  113.70
  -3  -2  -3  103.44   25.63
   3   2   3   73.96   18.99
  -3  -2  -4  111.75   28.09
   3   2   4  109.81   27.62
  -3  -2  -5   11.24    8.48
   3   2   5    4.29    7.05
  -3  -2  -6   23.92   10.66
   3   2   6    1.29    7.06
  -3  -2  -7  135.26   35.12
   3   2   7   98.31   26.82
  -3  -2  -8  116.10   31.31
   3   2   8  110.65   30.05
  -3  -2  -9   22.80   10.85
  -3  -2 -10   38.03   14.59
   3   2  11    0.90    6.06
   3   3 -12   20.28   12.78
  -3  -3  11   13.56   11.04
   3   3 -11   13.96   10.96
  -3  -3  10    2.01    8.25
   3   3 -10    6.84    9.15
  -3  -3   9   55.76   20.23
   3   3  -9   67.86   22.81
  -3  -3   6   37.55   16.20
   3   3  -6   16.72   12.23
  -3  -3   5   21.33   13.37
   3   3  -5   12.36   11.52
  -3  -3   4    2.59   11.22
   3   3  -4    4.76   10.47
  -3  -3   3   47.21   17.73
   3   3  -3   51.73   18.08
   3   3   3   27.99   11.39
  -3  -3  -4    7.48    8.22
   3   3   4   36.43   12.89
  -3  -3  -5  223.18   54.29
   3   3   5  198.18   48.61
  -3  -3  -6   65.52   19.44
   3   3   6   79.74   22.74
  -3  -3  -7   47.88   16.20
   3   3   7    5.99    7.42
  -3  -3  -8   27.46   11.89
   3   3   8    3.04    6.62
  -3  -3  -9   12.87    8.99
   3   3   9    3.14    6.50
  -3  -3 -10   29.30   12.83
   3   4 -10    0.89    7.92
  -3  -4   9    4.43    9.18
   3   4  -9    9.23    9.73
  -3  -4   7   38.01   16.44
  -3  -4   6    4.87    9.94
   3   4  -6   27.21   13.99
   3   4  -5    5.17   10.60
   3   4   4   18.05   10.00
  -3  -4  -5    5.31    7.43
   3   4   5    8.05    7.81
  -3  -4  -6   26.25   11.44
   3   4   6   31.51   12.51
  -3  -4  -7    8.60    7.84
   3   4   7    4.84    6.96
  -3  -4  -8    9.66    8.18
   3   4   8   12.23    8.77
  -4   4   8   35.93   18.25
   4  -4  -8   13.69   12.66
  -4   4   7    9.36   11.95
   4  -4  -7   15.26   13.22
  -4   4   6  110.84   35.11
   4  -4  -6   75.78   27.34
  -4   3  10   36.01   17.59
   4  -3 -10   48.57   20.49
  -4   3   9   28.23   15.83
   4  -3  -9   31.01   16.18
  -4   3   8   41.28   18.84
   4  -3  -8   55.54   21.61
  -4   3   7    4.49   11.00
   4  -3  -7    2.61   10.09
  -4   3   6   28.19   15.92
   4  -3  -6   12.66   12.45
  -4   3   5   50.75   21.08
   4  -3  -5   65.33   24.18
  -4   2  11   31.18   16.30
   4  -2 -11   37.34   17.55
  -4   2  10   10.06   11.37
   4  -2 -10   17.52   12.75
  -4   2   9    2.92    9.87
   4  -2  -9    4.61    9.95
  -4   2   8    9.46   11.47
   4  -2  -8    9.65   11.35
  -4   2   7   13.10   12.83
   4  -2  -7   33.96   16.66
  -4   2   6   30.68   16.63
   4  -2  -6   53.79   21.27
  -4   2   5   72.08   25.46
   4  -2  -5   89.35   28.88
  -4   2   4   23.08   15.91
   4  -2  -4   42.09   19.14
  -4   1  12   21.72   13.92
   4  -1 -12    4.46    9.68
  -4   1  11    3.89    9.68
   4  -1 -11   -0.32    9.49
  -4   1  10   -0.38   10.08
   4  -1 -10    0.44    9.54
  -4   1   9   31.71   16.55
   4  -1  -9   24.02   14.12
  -4   1   8  105.65   32.01
   4  -1  -8  113.51   33.64
  -4   1   7   61.69   22.40
   4  -1  -7   38.27   17.21
  -4   1   6   38.47   17.88
   4  -1  -6   26.08   15.12
  -4   1   3  201.62   51.79
   4  -1  -3  122.86   34.39
  -4   1   2    2.70   12.55
  -4   1  -9   10.05   10.73
  -4   1 -10   11.29   10.69
   4  -1  10    0.85    9.05
  -4   0  12  277.01   71.88
   4   0 -12  308.96   79.09
  -4   0  11    1.42    8.66
   4   0 -11    1.20    8.40
  -4   0  10  100.45   30.71
   4   0 -10   51.02   19.44
  -4   0   9   29.70   14.76
   4   0  -9    3.21    9.25
  -4   0   8   76.04   25.01
   4   0  -8   64.08   22.27
  -4   0   6   11.60   14.01
  -4   0   5    1.95   11.26
   4   0  -5    2.29   10.86
  -4   0   4  169.03   43.62
   4   0  -4  162.08   42.05
  -4   0   3    6.91   10.17
   4   0  -3    8.59   10.45
  -4   0   2  114.16   30.59
   4   0  -2  111.56   29.99
  -4   0   1    2.66    9.88
  -4   0  -7   10.63    9.80
   4   0   7    4.94    9.14
  -4   0  -8   23.62   11.77
  -4   0  -9   12.63    9.74
   4   0  10   86.75   26.66
  -4  -1  12    2.19    7.92
   4   1 -12    0.19    7.06
  -4  -1  11    9.56    9.69
   4   1 -11   17.20   11.44
  -4  -1  10    5.35    8.63
   4   1 -10   17.02   11.18
   4   1  -9   33.15   14.63
  -4  -1   7   65.00   21.44
   4   1  -7   47.42   17.71
  -4  -1   6   46.07   17.41
   4   1  -6   28.55   13.76
  -4  -1   5   19.72   12.03
   4   1  -5   21.88   12.25
  -4  -1   4  196.75   48.98
   4   1  -4  186.10   46.60
  -4  -1   3  250.32   60.41
   4   1  -3   66.75   19.89
  -4  -1   2    5.06    8.71
   4   1  -2    2.16    7.59
  -4  -1   1   55.62   15.86
   4   1  -1   39.77   12.71
  -4  -1   0  122.79   30.06
   4   1   0   51.84   14.66
  -4  -1  -4  112.53   29.09
  -4  -1  -5    3.16    6.92
   4   1   5    2.43    7.36
  -4  -1  -6   29.27   11.34
   4   1   6   76.36   21.64
  -4  -1  -7   13.89    8.36
   4   1   7   10.44    7.67
  -4  -1  -8   29.96   12.07
   4   1   8   12.62    8.27
  -4  -1  -9   30.03   12.44
   4   1   9   20.34   10.27
  -4  -1 -10    3.25    6.55
  -4  -2  11   20.86   12.63
   4   2 -11   33.82   15.56
   4   2 -10   27.64   13.75
  -4  -2   8   12.45   10.25
   4   2  -8   18.57   11.26
  -4  -2   7  100.13   28.84
   4   2  -7   50.59   17.83
  -4  -2   6   37.39   14.83
   4   2  -6   29.49   13.09
  -4  -2   5   68.25   20.96
   4   2  -5   84.16   24.28
  -4  -2   4   50.70   16.68
   4   2  -4   51.99   16.84
  -4  -2   3   23.31   10.33
   4   2  -3   23.28   10.55
  -4  -2   2   56.38   16.05
   4   2  -2   73.90   19.87
  -4  -2   1   85.33   21.46
   4   2  -1  132.27   31.89
  -4  -2   0   35.51    9.64
   4   2   0   32.39    8.90
  -4  -2  -3   16.94    6.19
   4   2   3   12.70    5.28
  -4  -2  -4   18.60    7.27
   4   2   4    8.40    5.25
  -4  -2  -5  104.09   26.45
   4   2   5   87.86   22.73
  -4  -2  -6   33.59   11.44
   4   2   6  101.49   26.41
  -4  -2  -7   40.73   13.55
   4   2   7   42.90   13.91
  -4  -2  -8   72.73   21.25
   4   2   8   33.89   12.42
  -4  -2  -9   20.24   10.02
   4   2   9   25.30   10.97
  -4  -3   9   31.55   14.21
  -4  -3   8   67.86   22.01
   4   3  -8   63.86   21.08
  -4  -3   7    2.19    7.10
   4   3  -7   12.77    9.19
  -4  -3   6   35.99   14.03
   4   3  -6   48.91   16.80
  -4  -3   5   74.81   22.12
   4   3  -5  164.74   42.21
  -4  -3   4   59.68   18.27
   4   3  -4   13.99    8.70
  -4  -3   3    7.52    7.34
   4   3  -3   29.98   11.38
  -4  -3   2  159.94   39.49
   4   3  -2  130.07   32.68
   4   3  -1    7.31    6.71
   4   3   3   44.27   12.44
  -4  -3  -4    3.79    4.83
   4   3   4    5.48    4.93
  -4  -3  -5   13.25    6.81
   4   3   5    0.24    4.96
  -4  -3  -6   26.16   10.01
   4   3   6  144.61   36.31
  -4  -3  -7   26.66   10.47
   4   3   7   32.21   11.60
  -4  -3  -8   67.66   20.10
   4   3   8   66.75   19.85
  -4  -4   7   15.89   10.60
   4   4  -7   14.77   10.11
  -4  -4   6  135.52   36.90
   4   4  -6  176.88   46.21
  -4  -4   5    1.24    7.54
   4   4  -5    0.86    6.95
  -4  -4   4   51.40   17.51
   4   4  -4   47.42   16.37
   4   4   4   74.35   20.55
  -4  -4  -5   31.42   11.43
   4   4   5   10.92    7.06
  -5   3   7   23.66   14.78
   5  -3  -7   12.12   11.82
  -5   3   6   27.01   15.50
   5  -3  -6   13.92   12.36
  -5   3   5   12.71   12.84
   5  -3  -5    8.78   11.86
  -5   2   9   47.91   19.79
   5  -2  -9   11.68   11.20
  -5   2   8   30.77   15.63
   5  -2  -8   20.51   13.12
  -5   2   7    5.25    9.67
   5  -2  -7    0.73    8.40
  -5   2   6   18.97   12.90
   5  -2  -6   28.10   14.68
  -5   2   5   20.60   13.20
   5  -2  -5   17.51   12.40
   5  -2  -4   31.68   15.54
   5  -1 -10   11.18   10.82
  -5   1   9   38.09   16.90
   5  -1  -9   34.06   15.88
  -5   1   8    4.99    9.14
   5  -1  -8   10.46   10.15
  -5   1   5   43.33   17.13
   5  -1  -5   40.77   16.48
  -5   1   4   10.50   10.64
   5  -1  -4    5.93    9.56
  -5   1   3    0.26    8.95
   5  -1  -3   33.77   14.84
   5   0 -10    1.23    8.08
  -5   0   7    8.23   10.03
   5   0  -7    5.65    8.66
  -5   0   6   18.75   11.39
   5   0  -6    5.94    8.60
  -5   0   5  306.56   75.20
   5   0  -5  256.88   63.94
  -5   0   4    3.12    8.13
   5   0  -4    3.91    8.12
  -5   0   3   35.17   13.94
   5   0  -3   35.75   14.01
  -5   0   2   14.64    9.89
   5   0  -2    7.72    8.61
  -5  -1   9   49.88   18.47
  -5  -1   8    7.27    8.37
   5   1  -8   21.16   11.37
  -5  -1   7   26.40   12.32
   5   1  -7   31.28   13.34
  -5  -1   6   37.47   14.36
   5   1  -6   81.30   24.16
  -5  -1   5  186.56   47.32
   5   1  -5    9.18    8.47
  -5  -1   4    0.55    7.29
   5   1  -4    9.49    8.49
  -5  -1   3    0.94    6.44
   5   1  -3    1.58    6.29
  -5  -1   2   20.83    9.18
   5   1  -2   29.24   10.85
  -5  -1   1   76.10   20.44
   5   1  -1   81.36   21.64
  -5  -1   0    9.52    6.60
  -5  -1  -6   46.20   15.10
  -5  -1  -7   69.29   20.51
   5   1   7   44.93   15.27
  -5  -2   8   46.44   16.84
   5   2  -8   28.92   12.75
  -5  -2   7    2.37    6.32
   5   2  -7    5.27    6.81
  -5  -2   6   40.02   14.33
   5   2  -6   44.34   15.27
  -5  -2   5   40.20   13.84
   5   2  -5   33.36   12.29
  -5  -2   4   49.99   15.46
   5   2  -4   34.18   11.95
  -5  -2   3   39.55   12.53
   5   2  -3   66.88   18.62
  -5  -2   2   25.34    8.90
   5   2  -2   22.09    8.23
  -5  -2   1    5.99    4.47
   5   2  -1   10.04    5.33
  -5  -2   0   10.58    4.64
   5   2   0    4.90    3.78
  -5  -2  -1    4.42    2.99
  -5  -2  -4   59.86   15.75
   5   2   4   64.88   17.00
  -5  -2  -5   18.29    7.21
   5   2   5    7.90    5.22
  -5  -2  -6   18.14    7.70
   5   2   6   11.90    6.46
  -5  -3   6   29.60   12.10
   5   3  -6   27.92   11.66
  -5  -3   5    3.03    5.83
   5   3  -5    6.30    6.39
  -5  -3   4    5.00    5.73
   5   3  -4    2.83    5.32
  -5  -3   3   59.08   16.92
   5   3  -3   75.33   20.55
  -5  -3   2   59.62   16.42
   5   3  -2   55.64   15.49
  -5  -3   1   66.62   17.32
   5   3  -1   96.04   23.88
   5   3   0   47.44   12.33
  -5  -3  -3    7.32    3.86
  -5  -3  -4   52.14   13.90
   5   3   4   30.71    9.03
   6  -1  -4    5.90    8.59
  -6   1   3   12.32   10.02
   6  -1  -3    4.82    8.80
  -6   0   5    0.78    6.82
   6   0  -5    9.49    8.62
  -6   0   4   43.31   15.76
   6   0  -4   30.54   12.95
  -6   0   3    1.06    6.58
   6   0  -3    0.57    6.71
  -6   0   2  125.65   33.58
   6   0  -2  103.51   28.71
  -6  -1   4    8.47    7.41
   6   1  -4    5.49    6.62
  -6  -1   3   14.93    8.22
   6   1  -3    7.20    6.68
  -6  -1   2    7.61    6.49
   6   1  -2    2.01    5.47
  -6  -1   1   41.23   13.23
   6   1  -1   28.07   10.36
   0   0   0    0.00    0.00
;
_shelx_hkl_checksum              9027
loop_
_space_group_symop_operation_xyz
'x, y, z'
'-x+1/2, y+1/2, -z+1/2'
'-x, -y, -z'
'x-1/2, -y-1/2, z-1/2'
loop_
_atom_site_label
_atom_site_type_symbol
_atom_site_fract_x
_atom_site_fract_y
_atom_site_fract_z
_atom_site_U_iso_or_equiv
_atom_site_adp_type
_atom_site_occupancy
_atom_site_site_symmetry_order
_atom_site_calc_flag
Se1 Se 0.5168(9) 0.3609(11) 0.3332(3) 0.0052(13) Uiso 1 1 d
Fe1 Fe 0.4583(10) 0.2562(13) 0.0724(4) 0.0052(14) Uiso 1 1 d
O1 O 0.337(3) 0.628(4) 0.3507(11) 0.013(3) Uiso 1 1 d
O2 O 0.806(3) 0.440(3) 0.4234(10) 0.007(3) Uiso 1 1 d
O3 O 0.623(3) 0.426(3) 0.2093(9) 0.006(3) Uiso 1 1 d
F1 F 0.270(3) 0.570(3) 0.0114(10) 0.009(3) Uiso 1 1 d
loop_
_atom_type_symbol
_atom_type_description
_atom_type_scat_dispersion_real
_atom_type_scat_dispersion_imag
_atom_type_scat_source
O O 0.0000 0.0000 'International Tables Vol C Tables 4.2.6.8 and 6.1.1.4'
F F 0.0000 0.0000 'International Tables Vol C Tables 4.2.6.8 and 6.1.1.4'
Fe Fe 0.0000 0.0000 'International Tables Vol C Tables 4.2.6.8 and 6.1.1.4'
Se Se 0.0000 0.0000 'International Tables Vol C Tables 4.2.6.8 and 6.1.1.4'
loop_
_geom_angle_atom_site_label_1
_geom_angle_atom_site_label_2
_geom_angle_atom_site_label_3
_geom_angle
_geom_angle_site_symmetry_1
_geom_angle_site_symmetry_3
O1 Se1 O3 100.4(7) . .
O1 Se1 O2 97.8(8) . .
O3 Se1 O2 100.2(7) . .
O3 Fe1 O1 90.4(6) . 2_545
O3 Fe1 F1 93.6(6) . .
O1 Fe1 F1 96.5(7) 2_545 .
O3 Fe1 F1 89.4(6) . 3_665
O1 Fe1 F1 172.3(8) 2_545 3_665
F1 Fe1 F1 75.8(6) . 3_665
O3 Fe1 O2 100.1(6) . 2_645
O1 Fe1 O2 100.2(7) 2_545 2_645
F1 Fe1 O2 158.2(5) . 2_645
F1 Fe1 O2 87.4(6) 3_665 2_645
O3 Fe1 O2 176.0(6) . 4_565
O1 Fe1 O2 92.0(7) 2_545 4_565
F1 Fe1 O2 89.3(6) . 4_565
F1 Fe1 O2 88.6(5) 3_665 4_565
O2 Fe1 O2 76.4(6) 2_645 4_565
Se1 O1 Fe1 142.0(10) . 2
Se1 O2 Fe1 129.7(8) . 2_655
Se1 O2 Fe1 126.1(8) . 4_666
Fe1 O2 Fe1 103.6(6) 2_655 4_666
Se1 O3 Fe1 120.9(9) . .
Fe1 F1 Fe1 104.2(6) . 3_665
loop_
_geom_bond_atom_site_label_1
_geom_bond_atom_site_label_2
_geom_bond_distance
_geom_bond_site_symmetry_2
Se1 O1 1.680(18) .
Se1 O3 1.682(12) .
Se1 O2 1.727(14) .
Fe1 O3 1.947(15) .
Fe1 O1 1.952(16) 2_545
Fe1 F1 1.970(16) .
Fe1 F1 2.006(14) 3_665
Fe1 O2 2.014(16) 2_645
Fe1 O2 2.111(15) 4_565
O1 Fe1 1.952(16) 2
O2 Fe1 2.014(16) 2_655
O2 Fe1 2.111(15) 4_666
F1 Fe1 2.006(14) 3_665

_cod_database_fobs_code 2300634
