#------------------------------------------------------------------------------
#$Date: 2018-03-27 07:57:23 +0300 (Tue, 27 Mar 2018) $
#$Revision: 207125 $
#$URL: file:///home/coder/svn-repositories/cod/cif/2/30/06/2300632.cif $
#------------------------------------------------------------------------------
#
# This file is available in the Crystallography Open Database (COD),
# http://www.crystallography.net/. The original data for this entry
# were provided by IUCr Journals, http://journals.iucr.org/.
#
# The file may be used within the scientific community so long as
# proper attribution is given to the journal article from which the
# data were obtained.
#
data_2300632
loop_
_publ_author_name
'Solar, Michael'
'Trapp, Nils'
_publ_section_title
;
 \mCHILL: a lightweight, modular system for handling crystalline samples
 at low temperatures under inert conditions
;
_journal_issue                   2
_journal_name_full               'Journal of Applied Crystallography'
_journal_page_first
;
;
_journal_paper_doi               10.1107/S1600576718003291
_journal_volume                  51
_journal_year                    2018
_chemical_formula_moiety         '0.25(B4 H16 Li4)'
_chemical_formula_sum            'B H4 Li'
_chemical_formula_weight         21.78
_chemical_name_systematic        'Lithium borohydride'
_space_group_crystal_system      orthorhombic
_space_group_IT_number           62
_space_group_name_Hall           '-P 2ac 2n'
_space_group_name_H-M_alt        'P n m a'
_symmetry_space_group_name_Hall  '-P 2ac 2n'
_symmetry_space_group_name_H-M   'P n m a'
_atom_sites_solution_hydrogens   difmap
_atom_sites_solution_primary     iterative
_audit_creation_method
;
Olex2 1.2
(compiled 2017.08.10 svn.r3458 for OlexSys, GUI svn.r5381)
;
_cell_angle_alpha                90
_cell_angle_beta                 90
_cell_angle_gamma                90
_cell_formula_units_Z            4
_cell_length_a                   7.1431(6)
_cell_length_b                   4.4159(4)
_cell_length_c                   6.7027(6)
_cell_measurement_reflns_used    278
_cell_measurement_temperature    100.00(10)
_cell_measurement_theta_max      75.5500
_cell_measurement_theta_min      9.0810
_cell_volume                     211.42(3)
_computing_cell_refinement       'CrysAlisPro 1.171.39.31d (Rigaku OD, 2017)'
_computing_data_collection       'CrysAlisPro 1.171.39.31d (Rigaku OD, 2017)'
_computing_data_reduction        'CrysAlisPro 1.171.39.31d (Rigaku OD, 2017)'
_computing_molecular_graphics    'Olex2 (Dolomanov et al., 2009)'
_computing_publication_material  'Olex2 (Dolomanov et al., 2009)'
_computing_structure_refinement  'ShelXL (Sheldrick, 2015)'
_computing_structure_solution
;
Superflip (Palatinus & Chapuis, 2007;Palatinus & van der Lee, 2008;
Palatinus et al., 2012)
;
_diffrn_ambient_temperature      100.00(10)
_diffrn_measured_fraction_theta_full 0.991
_diffrn_measured_fraction_theta_max 0.991
_diffrn_measurement_device       'four-circle diffractometer'
_diffrn_measurement_device_type  'XtaLAB Synergy, Dualflex, Pilatus 300K'
_diffrn_measurement_method       '\w scans'
_diffrn_radiation_monochromator  mirror
_diffrn_radiation_type           CuK\a
_diffrn_radiation_wavelength     1.54184
_diffrn_reflns_av_R_equivalents  0.0366
_diffrn_reflns_limit_h_max       7
_diffrn_reflns_limit_h_min       -8
_diffrn_reflns_limit_k_max       5
_diffrn_reflns_limit_k_min       -2
_diffrn_reflns_limit_l_max       7
_diffrn_reflns_limit_l_min       -7
_diffrn_reflns_number            482
_diffrn_reflns_theta_full        66.000
_diffrn_reflns_theta_max         66.000
_diffrn_reflns_theta_min         9.075
_exptl_absorpt_coefficient_mu    0.094
_exptl_absorpt_correction_T_max  1.00000
_exptl_absorpt_correction_T_min  0.66651
_exptl_absorpt_correction_type   multi-scan
_exptl_absorpt_process_details
;
CrysAlisPro 1.171.39.31d (Rigaku Oxford Diffraction, 2017)
Empirical absorption correction using spherical harmonics,
 implemented in SCALE3 ABSPACK scaling algorithm.
;
_exptl_crystal_colour            'clear colourless'
_exptl_crystal_density_diffrn    0.684
_exptl_crystal_description       plank
_exptl_crystal_F_000             48
_exptl_crystal_size_max          0.138
_exptl_crystal_size_mid          0.087
_exptl_crystal_size_min          0.057
_refine_diff_density_max         0.218
_refine_diff_density_min         -0.116
_refine_ls_extinction_method     none
_refine_ls_goodness_of_fit_ref   1.133
_refine_ls_hydrogen_treatment    refall
_refine_ls_matrix_type           full
_refine_ls_number_parameters     23
_refine_ls_number_reflns         210
_refine_ls_number_restraints     0
_refine_ls_restrained_S_all      1.133
_refine_ls_R_factor_all          0.0552
_refine_ls_R_factor_gt           0.0521
_refine_ls_shift/su_max          0.000
_refine_ls_shift/su_mean         0.000
_refine_ls_structure_factor_coef Fsqd
_refine_ls_weighting_details
'w=1/[\s^2^(Fo^2^)+(0.0952P)^2^] where P=(Fo^2^+2Fc^2^)/3'
_refine_ls_weighting_scheme      calc
_refine_ls_wR_factor_gt          0.1274
_refine_ls_wR_factor_ref         0.1292
_reflns_number_gt                193
_reflns_number_total             210
_reflns_threshold_expression     'I > 2\s(I)'
_cod_data_source_file            gj5200sup1.cif
_cod_data_source_block           sm090218_2_1
_cod_database_code               2300632
_shelx_space_group_comment
;
The symmetry employed for this shelxl refinement is uniquely defined
by the following loop, which should always be used as a source of
symmetry information in preference to the above space-group names.
They are only intended as comments.
;
_shelx_hkl_file
;
  -1   0   0 9.57124 103.240   1
  -2   0   0 453094. 15559.4   1
  -3   0   0 196.517 243.655   1
  -4   0   0 9837.54 735.421   1
  -5   0   0 35.1241 279.235   1
  -6   0   0 25676.7 1124.46  10
  -6   0   0 26489.8 1644.44   1
  -7   0   0 35.9837 238.391  10
  -9   0   0-6.28159 71.4211  11
   0   0  -1-51.8172 129.472   2
  -1   0  -1 159228. 5548.58   1
  -2   0  -1 234.135 202.990   1
  -3   0   1 162145. 5859.59   1
  -3   0  -1 159580. 5831.33   1
  -4   0  -1 475.070 286.944   1
  -4   0   1 538.957 306.870   1
  -5   0   1 20459.1 893.057  10
  -5   0  -1 21127.8 1305.94   1
  -5   0   1 19794.5 1282.88   1
  -6   0   1 3857.99 632.074   1
  -6   0   1 4337.75 377.111  10
  -6   0  -1 4417.22 647.109   1
  -7   0  -1 578.881 261.942  10
  -7   0   1 455.251 238.049  10
  -8   0  -1 2992.91 290.366  10
  -8   0   1 2942.60 271.060  11
  -9   0   1 323.255 71.0195  11
  -9   0  -1 532.444 82.8633  11
   0   0  -2 274074. 9529.00   2
  -1   0  -2 79092.1 2960.40   1
  -2   0  -2 96160.9 3604.09   1
  -3   0  -2 54124.4 2262.62   1
  -4   0   2 2254.90 433.281   1
  -4   0  -2 2279.37 416.293   1
  -5   0   2 13665.8 678.520  10
  -5   0  -2 13090.2 1031.84   1
  -5   0   2 14447.0 1102.12   1
  -6   0  -2 2658.53 559.471   1
  -6   0   2 3220.19 620.195   1
  -7   0   2 521.733 213.331  11
  -8   0  -2 4761.45 332.215  10
  -8   0   2 4108.62 292.721  11
   0   0  -3 37.3282 262.776   2
  -1   0  -3 5339.55 533.322   2
  -2   0  -3 18048.4 1039.52   1
  -3   0  -3 4404.83 530.980   1
  -4   0  -3 7851.19 754.198   1
  -4   0   3 6974.73 423.755  11
  -5   0  -3 822.726 381.661   1
  -5   0   3 716.221 432.311   1
  -5   0   3 303.618 191.315  11
  -6   0   3 17419.2 1378.33   1
  -6   0   3 19997.0 892.849  11
  -7   0   3 2018.02 253.661  11
  -8   0  -3 5200.06 324.155  10
   0   0  -4 59897.3 2588.75   2
  -1   0  -4 53899.6 2420.00   2
  -2   0  -4 14438.0 654.707   8
  -2   0  -4 16465.4 1102.33   2
  -2   0   4 15484.2 678.150   9
  -4   0   4 3857.93 331.338  11
  -5   0   4 196.383 343.406   1
  -5   0   4 515.420 204.576  11
  -6   0   4 6641.55 424.366  11
  -7   0   4 6081.74 349.858   9
  -8   0   4 451.159 75.9297   9
  -8   0  -4 434.546 93.3541  10
   0   0  -5 213.787 170.556   8
  -1   0  -5 11680.2 967.395   2
  -1   0   5 9989.89 550.835   9
  -1   0  -5 10727.6 542.073   8
  -2   0  -5 18021.9 1229.51   2
  -2   0  -5 15935.9 738.721   8
  -2   0   5 15904.0 754.399   9
  -3   0   5 41745.6 1598.41   9
  -3   0  -5 36218.1 2098.77   2
  -4   0  -5 20580.8 1497.56   2
  -4   0   5 24530.2 1021.68   9
  -5   0   5 11012.0 566.277   9
  -6   0   5 5816.70 346.694   9
  -7   0   5-76.2474 97.3369   9
   0   0  -6 59573.9 2226.98   8
   1   0  -6 33304.4 1342.57   8
  -1   0  -6 33789.8 1348.07   8
  -2   0  -6 22825.2 980.826   8
   2   0  -6 22987.9 981.396   8
  -3   0   6 1291.24 253.144   9
  -4   0   6 33.9287 190.730   9
  -5   0   6 4078.53 282.021   9
   6   0  -6 3767.01 213.980   8
   0   0  -7-8.14389 178.644   8
  -1   0  -7 2167.13 251.439   8
   1   0  -7 2084.16 248.682   8
   2   0  -7 5543.86 359.335   8
   3   0  -7 9167.85 453.369   8
   4   0  -7 2459.75 193.210   8
   5   0  -7 7609.51 319.717   8
   1   0  -8 225.668 111.206   8
   2   0  -8 4040.67 219.635   8
   3   0  -8 352.202 68.3730   8
   0   1   0 20.8321 62.4909   3
  -1  -1   0 202.257 143.571   1
  -2  -1   0 39506.2 1594.57   1
  -3  -1   0 153.001 249.043   1
  -4   1   0 2297.07 356.542   1
  -4  -1   0 2662.64 439.315   1
  -5  -1   0 77.1779 299.726   1
  -5  -1   0-60.0071 193.276  10
  -5   1   0 152.474 236.858   1
  -6  -1   0 21487.0 962.630  10
  -6  -1   0 18762.3 1401.90   1
  -6   1   0 19046.5 1272.52   1
  -7  -1   0 58.3171 235.578  10
  -8  -1   0 10960.3 521.718  11
  -8   1   0 10062.3 499.310  11
   0   1  -1 234403. 7976.58   3
  -1  -1  -1 120861. 4318.12   1
  -2  -1  -1 43540.7 1771.61   1
  -3  -1   1 15981.0 917.696   1
  -3  -1  -1 14400.1 877.265   1
  -4   1   1 3589.95 443.932   1
  -4   1  -1 4783.38 504.760   1
  -4  -1   1 4961.14 571.036   1
  -4  -1  -1 5058.03 564.044   1
  -5   1  -1 4230.79 541.764   1
  -5  -1  -1 5557.34 682.600   1
  -5  -1   1 5001.61 651.512   1
  -5   1   1 4518.03 550.482   1
  -5  -1   1 5605.32 397.034  10
  -5   1   1 5146.45 376.380  10
  -6  -1  -1 8650.24 540.135  10
  -6  -1   1 8431.43 533.548  10
  -6   1  -1 7912.19 757.204   1
  -6  -1  -1 7609.61 886.914   1
  -6  -1   1 8522.70 896.130   1
  -6   1   1 8182.11 518.897  10
  -6   1   1 7082.39 768.536   1
  -7  -1  -1 1939.19 301.064  10
   7   1   1 1772.07 175.113   3
  -8  -1  -1 2134.60 252.774  10
  -8  -1   1 2166.34 220.895  11
   0   1  -2 34.7315 69.8611   3
   0  -1  -2-61.9699 199.290   2
  -1  -1  -2 45944.1 1809.41   1
  -1   1  -2 42696.8 1771.52   2
   2   1   2 5607.78 244.840   3
  -2  -1  -2 6404.43 529.530   1
  -3  -1  -2 129547. 4694.77   1
   3   1   2 122174. 4232.97   3
  -4   1  -2 10882.3 823.526   1
  -4  -1   2 11192.5 889.405   1
  -4   1   2 11697.6 856.909   1
  -4  -1  -2 11521.2 877.650   1
  -5  -1   2 28689.7 1666.97   1
  -5   1  -2 26734.3 1545.06   1
  -5   1   2 26549.1 1546.46   1
  -5  -1  -2 28994.7 1669.14   1
  -6   1  -2 6134.99 683.768   1
  -6  -1   2 7059.88 840.375   1
  -6   1   2 5937.66 723.092   1
  -6  -1  -2 6636.48 829.133   1
  -6  -1   2 7140.85 455.377  11
  -7   1  -2-48.0262 204.314  10
  -7  -1  -2 32.5419 228.156  10
  -7  -1   2 18.8790 178.877  11
  -8  -1  -2 1136.64 191.135  10
  -8  -1   2 831.496 157.787  11
   0  -1  -3 171989. 6061.35   2
   0   1  -3 165321. 5665.51   3
  -1   1  -3 25292.1 1236.56   2
   1   1  -3 24668.4 909.393   3
  -2  -1  -3 117859. 4538.63   1
  -3  -1  -3 944.987 334.947   1
  -4  -1  -3-192.783 323.476   1
  -4  -1   3 192.926 188.150  11
  -5   1   3 2732.18 537.757   1
  -5  -1   3 3887.10 637.107   1
  -5  -1  -3 2968.62 568.945   1
  -5  -1   3 3359.92 321.394  11
  -6  -1  -3 18327.7 1392.62   1
  -6  -1   3 16944.3 1360.29   1
  -6  -1   3 20054.9 878.670  11
  -7  -1  -3 1877.06 263.920  10
  -7  -1   3 1542.28 220.015  11
  -8  -1  -3 8513.20 396.681  10
   0  -1  -4 27.4568 271.357   2
  -1  -1  -4 3918.32 528.759   2
  -1   1  -4 2047.82 403.797   2
  -2  -1  -4 18382.0 1235.15   2
  -3   1   4 37003.6 1427.88   9
  -3   1  -4 35768.7 1920.45   2
  -4   1  -4 2336.94 502.609   2
  -5  -1   4 26839.2 1678.72   1
  -5   1   4 20348.4 1501.16   1
  -5  -1   4 26448.7 1076.51  11
  -5   1  -4 21701.8 1514.89   2
  -6   1   4 2157.52 258.610   9
  -6  -1   4 1901.25 239.469   9
  -7   1   4 3306.12 246.231   9
  -7  -1   4 3262.93 227.591   9
  -7  -1  -4 3424.74 270.300  10
   0   1  -5 11008.5 554.979   8
  -1  -1  -5-79.9606 310.536   2
   1   1  -5-48.0353 164.249   8
   1   1   5 167.901 143.745   7
  -1   1  -5 34.6369 187.962   8
  -2  -1  -5 11026.0 1004.78   2
  -2   1  -5 12572.6 594.596   8
   2   1   5 11372.2 577.336   7
  -2   1   5 11254.9 584.659   9
  -2  -1  -5 11469.8 567.677   8
  -3   1   5 5702.43 391.132   9
  -3  -1  -5 6658.92 796.705   2
  -3   1  -5 4842.87 669.112   2
  -4  -1   5 3757.63 328.208   9
  -4  -1  -5 3208.76 607.368   2
  -4   1   5 3566.17 313.121   9
  -4   1  -5 2617.11 545.860   2
  -5  -1   5 3121.55 288.238   9
  -5   1   5 3541.31 295.869   9
  -6  -1   5 164.468 141.115   9
  -6   1   5 460.890 161.190   9
  -7   1  -5 122.784 97.1560  10
   0   1   6 258.010 139.393   7
   0   1  -6 8.92107 178.290   8
   0  -1  -6-111.872 176.564   8
  -1   1  -6 520.103 198.402   8
  -1  -1  -6 556.843 198.446   8
   1   1  -6 557.226 197.838   8
   1  -1  -6 891.027 215.771   8
   1   1   6 449.844 166.699   7
   2   1  -6 3172.83 289.280   8
   2  -1  -6 3161.88 285.503   8
  -3   1   6 505.598 200.904   9
   3   1  -6 462.352 184.224   8
   3  -1  -6 422.777 177.759   8
  -4   1   6 7416.28 423.266   9
   4   1  -6 7596.54 405.904   8
   4  -1  -6 7410.33 399.162   8
  -4  -1   6 7249.52 424.396   9
  -5   1   6 1615.72 184.378   9
   5   1  -6 1505.12 166.462   8
   5  -1  -6 1510.01 163.745   8
   0   1  -7 5104.70 328.788   8
   0  -1  -7 5125.77 334.953   8
  -1  -1  -7 23699.7 965.204   8
  -1   1  -7 24914.6 976.802   8
   1   1  -7 25420.1 983.306   8
   1  -1  -7 25275.4 978.365   8
  -1   1   7 22814.9 941.102   7
   2  -1  -7 512.694 156.832   8
   2   1  -7 636.276 167.516   8
  -2   1   7 542.464 130.278   7
   3   1  -7 3455.79 232.821   8
   3  -1  -7 3149.08 223.838   8
  -4   1   7 1236.53 116.990   7
   0   2   0 245501. 8396.13   3
  -1  -2   0-95.5060 144.192   1
   1   2   0-4.34670 111.007   3
   2   2   0 28597.1 1101.72   3
  -2  -2   0 30754.9 1307.26   1
   3   2   0-84.8405 119.136   3
  -3  -2   0 44.8199 202.783   1
   4   2   0 13445.4 591.719   3
  -4  -2   0 12231.9 631.012  10
   5   2   0-65.7141 133.182   3
  -5  -2   0 55.3658 216.040  10
  -6  -2   0 20229.2 931.761  10
   7   2   0-97.7182 107.911   3
  -7  -2   0 128.591 159.267  11
   0  -2   1 39.7526 57.5853   1
   0   2  -1 29.3346 104.759   3
   1   2  -1 51776.0 1858.12   3
  -1  -2  -1 50911.7 1975.63   1
  -1  -2   1 51528.0 1958.73   1
   1   2   1 52522.0 1851.94   3
   2   2  -1 65.6543 116.407   3
   2   2   1 116.769 109.554   3
  -2  -2   1-96.3576 209.095   1
  -2  -2  -1 171.311 199.077   1
  -3  -2  -1 103842. 4100.91   1
   3   2  -1 105803. 3751.91   3
  -3  -2   1 112467. 4136.92   1
  -4  -2  -1 209.405 179.187  10
   4   2   1 494.366 128.988   3
   5   2  -1 28206.4 1146.87   4
  -5  -2  -1 27388.3 1167.67  10
   5   2   1 28332.5 1098.54   3
  -5  -2   1 27510.3 1157.80  11
   6   2  -1 4275.18 313.334   4
   6   2  -1 5057.05 338.768   3
   6   2   1 4841.41 299.276   3
  -6  -2   1 4655.77 359.010  11
  -6  -2  -1 4483.04 378.125  10
   7   2   1 960.769 138.692   4
   7   2  -1 1340.66 164.472   3
  -7  -2   1 1290.96 193.891  11
  -7  -2  -1 1281.07 223.484  10
   0  -2  -2 17199.9 837.963   2
   1   2  -2 641.258 135.027   3
   2   2  -2 8273.39 402.779   3
  -2  -2  -2 7544.35 626.251   1
   2   2   2 8248.22 378.494   3
   3   2  -2 6336.96 390.661   4
   3   2  -2 7019.33 384.137   3
  -3  -2  -2 6527.49 634.450   1
  -3  -2   2 6757.06 663.034   1
   3   2   2 7289.65 347.961   3
   4   2   2 175.902 106.051   3
  -4  -2   2-114.260 167.742  11
   5   2  -2 5256.79 351.070   4
   5   2   2 4787.22 279.730   3
  -5  -2   2 4454.67 367.152  11
   6   2  -2 2947.13 252.316   3
   6   2  -2 2364.79 218.121   4
  -6  -2  -2 2571.62 287.227  10
  -6  -2   2 2062.28 260.830  11
   7   2  -2 732.298 126.464   3
  -7  -2   2 368.690 145.593  11
  -7  -2  -2 522.657 171.384  10
   0  -2  -3-128.701 207.925   2
   1   2  -3 596.565 157.192   4
  -1  -2  -3 1023.69 315.660   2
   1   2   3 990.275 161.184   7
   1   2  -3 938.926 133.244   3
  -1   2  -3 996.052 179.585   5
   2   2  -3 144.689 138.492   4
   2   2   3 208.873 149.646   7
  -3   2   3 726.001 155.811   9
   3   2  -3 702.899 182.430   4
   3   2  -3 687.437 153.417   3
  -3  -2   3 887.049 360.728   1
  -3  -2  -3 1038.63 360.201   1
   4   2  -3 13071.5 618.630   4
   4   2  -3 12727.0 597.650   3
  -4  -2   3 11466.1 1034.39   1
  -4  -2  -3 12010.4 993.937   1
  -4  -2   3 11442.2 623.781  11
  -5  -2   3 132.885 327.865   1
   5   2  -3 563.302 162.607   3
  -5  -2   3 717.025 217.425  11
  -5  -2  -3 1000.44 381.008   1
  -6  -2   3 17876.2 763.251   9
   6   2  -3 19699.2 786.379   3
  -6  -2  -3 17209.0 792.760  10
  -7  -2   3 1154.76 116.794   9
  -7  -2  -3 1682.71 170.495  10
   0   2  -4 23133.0 935.579   8
   0  -2  -4 24062.6 937.648   8
   0   2   4 24268.9 982.050   7
  -1  -2  -4 8513.70 756.979   2
  -1   2  -4 8552.79 422.540   8
  -1  -2  -4 8555.19 419.971   8
   1   2  -4 8525.36 421.786   8
   1  -2  -4 8433.45 425.728   8
   1   2   4 8902.22 465.113   7
   1   2  -4 8376.93 390.540   3
  -2  -2   4 4632.30 329.482   9
  -2   2   4 4854.87 325.641   9
   2   2   4 5212.04 357.622   7
   2   2  -4 5053.15 287.117   3
  -2  -2  -4 5703.37 678.993   2
  -3  -2   4 8503.21 476.409   9
  -3   2   4 8613.85 459.371   9
   3   2  -4 9307.32 447.927   3
  -3  -2  -4 9310.83 910.643   2
  -4  -2   4 2326.97 529.525   1
  -4  -2   4 2958.75 279.718   9
   4   2  -4 3081.04 251.710   3
  -5  -2   4 120.091 156.408   9
   5   2  -4 144.703 117.691   3
  -6  -2   4 4156.74 246.502   9
  -6  -2  -4 4270.58 274.363  10
   0   2  -5 40.8513 145.289   8
   0  -2  -5 134.186 145.874   8
   0   2   5-93.9584 162.019   7
  -1   2  -5 7412.95 398.594   8
  -1  -2  -5 7153.13 398.491   8
   1   2  -5 7051.67 394.660   8
   1  -2  -5 7487.15 405.991   8
  -2  -2  -5 11343.9 1007.10   2
   2  -2  -5 12933.3 582.161   8
  -3  -2  -5 23110.4 1512.17   2
   3  -2  -5 23833.1 942.233   8
  -4  -2   5 17476.8 751.173   9
   5  -2  -5 6808.43 319.621   8
   0  -2  -6 27055.8 1059.06   8
   1  -2  -6 15715.5 690.159   8
   1   2   6 16111.9 739.578   7
  -1   2   6 17996.5 757.896   7
   2  -2  -6 9712.76 471.869   8
  -2   2   6 11651.5 547.787   7
   3  -2  -6 387.674 121.435   8
   4  -2  -6-11.8491 83.3372   8
   0   2   7 54.3155 121.101   7
  -1   2   7 1936.64 184.288   7
   2  -2  -7 2129.34 131.178   8
  -3   2   7 7302.85 339.668   7
   0   3   0 248.891 147.638   6
  -1   3   0 73.9318 140.992   6
   1   3   0 67.2666 140.602   6
   2   3   0 2618.57 255.777   3
   2   3   0 2448.54 265.877   6
   3   3   0 44.6976 143.752   3
   3   3   0-95.9811 174.322   6
  -3   3   0 200.116 166.428   5
   4   3   0 6124.22 381.626   3
   4   3   0 5966.88 392.445   6
   5   3   0-114.607 126.173   6
   5   3   0 66.2248 122.322   3
   6   3   0 13923.6 616.128   3
   7   3   0-57.6380 70.8839   4
   0   3  -1 28174.0 1161.00   6
   0   3   1 28825.5 1164.44   6
   1   3   1 3733.73 295.673   7
   1   3  -1 3895.47 289.569   3
   1   3  -1 3801.34 308.851   6
  -1   3   1 3642.97 294.050   6
   1   3   1 3667.87 315.238   6
  -2   3   1 5661.75 335.327   7
   2   3  -1 6629.31 395.983   3
  -2   3   1 6987.94 405.238   6
   2   3   1 6205.66 382.464   3
   2   3   1 6885.86 440.609   6
   3   3  -1 3394.47 291.303   3
   3   3  -1 3559.61 297.365   6
   3   3   1 3544.84 339.244   6
  -3   3  -1 3626.00 300.098   5
   4   3  -1 1588.92 260.125   4
   4   3  -1 1354.68 202.765   3
   4   3  -1 1246.07 185.997   6
   4   3   1 1320.74 238.141   6
   4   3   1 1220.36 183.640   3
   5   3  -1 1498.07 242.234   4
   5   3  -1 1092.02 183.803   3
   5   3   1 1224.81 190.776   6
   5   3   1 1265.71 171.003   3
   6   3  -1 4167.83 295.871   4
   6   3  -1 3624.81 266.209   3
   7   3   1 991.644 104.654   4
   0   3  -2 108.808 166.656   5
   0   3  -2-8.63983 147.539   4
   1   3  -2 13122.0 666.516   4
   1   3   2 14854.8 674.038   7
  -1   3   2 13836.1 637.361   7
   1   3  -2 14022.8 649.444   3
  -1   3   2 14765.5 679.977   6
  -1   3  -2 14406.8 665.979   5
   2   3  -2 3215.73 309.050   4
   2   3   2 3498.13 310.826   7
   2   3  -2 3672.19 292.168   3
  -2   3   2 3159.42 269.289   6
  -2   3  -2 3796.24 316.753   5
   3   3  -2 53197.9 2027.53   4
   3   3  -2 52392.0 1982.81   3
   4   3  -2 7551.26 477.655   4
   4   3  -2 7410.22 430.620   3
   5   3  -2 16604.3 776.542   4
   5   3  -2 16969.2 745.662   3
   5   3   2 17024.9 768.042   6
   6   3  -2 3951.78 252.458   3
   6   3   2 3217.75 209.493   6
   0   3   3 53604.2 2015.52   7
   0   3  -3 53189.5 1995.83   5
   1   3   3 6163.23 429.081   7
  -1   3   3 7013.56 420.056   7
  -1   3   3 6839.08 422.171   6
  -1   3  -3 7496.75 443.460   5
   2   3  -3 21815.5 941.311   4
   2   3   3 21066.5 931.559   7
   2   3  -3 19824.2 857.253   5
   3   3  -3-99.2284 190.588   4
   3   3  -3 174.038 138.205   5
   4   3  -3 421.760 192.194   4
   4   3  -3 327.249 139.006   3
   5   3  -3 991.747 158.755   3
   6   3   3 7721.27 349.665   6
   0   3   4 54.9084 186.604   7
   1   3   4 3588.69 333.890   7
  -1   3   4 3215.86 308.930   7
   2   3   4 3833.69 338.958   7
  -2   3   4 3831.34 323.593   7
   3   3  -4 19988.2 827.766   3
   4   3  -4 631.598 137.626   3
   5   3   4 18025.1 772.947   6
   0   3   5 5920.55 418.566   7
   1   3   5-10.2372 184.855   7
  -1   3   5-40.4455 188.130   7
  -2   3   5 4534.73 344.631   7
  -3   3   5 2415.60 242.288   7
  -4   3   5 1429.93 177.145   7
   5   3   5 916.623 132.273   6
   0   3   6-69.6302 156.827   7
   1   3   6 263.777 149.398   7
  -1   3   6 165.167 157.311   7
  -2   3   6 2459.42 225.906   7
  -3   3   6-20.9357 109.551   7
   3   3   6 44.2990 104.723   6
  -4   3   6 4358.45 216.967   7
   4   3   6 3131.42 207.553   6
  -1   3   7 8706.31 360.461   7
   0   4   0 73807.0 2760.99   6
   1   4   0 19.7785 164.231   4
   1   4   0-101.166 210.007   6
   2   4   0 21022.9 976.891   4
   2   4   0 23244.2 1017.16   6
  -2   4   0 21664.9 938.482   5
   3   4   0 11.6178 195.451   4
   3   4   0-169.420 197.580   6
   4   4   0 750.226 217.706   4
   4   4   0 863.120 180.385   6
   5   4   0-45.0426 146.471   4
   6   4   0 6502.52 305.539   4
   0   4   1-36.4335 192.549   6
   1   4  -1 7272.92 457.547   4
   1   4   1 8017.01 511.607   6
  -1   4  -1 8023.31 478.687   5
   2   4  -1 79.5577 191.186   4
   2   4   1 88.1739 206.443   6
  -2   4  -1-82.5298 207.945   5
   3   4  -1 28255.6 1176.07   4
   3   4   1 26170.3 1151.65   6
   4   4  -1 222.790 137.541   5
   4   4  -1 293.642 200.314   4
   5   4  -1 11048.4 534.440   4
   5   4   1 11152.7 533.350   4
   6   4   1 1377.54 126.838   4
   0   4   2 11084.6 575.445   7
   0   4   2 11720.7 633.973   6
   0   4  -2 12032.3 616.168   5
   1   4  -2 1003.39 241.811   5
  -1   4   2 1119.76 225.838   6
   1   4   2 1063.43 238.673   6
  -1   4  -2 1207.55 247.664   5
   2   4  -2 5368.35 397.047   4
   2   4   2 5383.73 410.690   6
  -2   4  -2 5915.34 393.629   5
   3   4  -2 4022.28 348.727   4
   3   4   2 4477.10 347.229   6
   3   4  -2 3822.57 287.797   5
   4   4  -2 186.804 169.598   4
   4   4   2 8.21631 142.386   6
   5   4   2 1196.16 136.319   6
   6   4   2 639.680 76.0545   4
   0   4  -3-17.2525 202.064   5
  -1   4   3-42.4042 158.187   7
   1   4   3 287.576 182.300   6
   1   4  -3 267.367 196.192   5
   2   4   3 215.749 176.510   6
   2   4  -3 294.304 168.187   5
   3   4   3-35.6818 151.577   6
   4   4   3 4566.85 302.282   6
   5   4   3 193.638 77.2444   6
   0   4   4 9055.35 493.051   7
  -1   4   4 10043.6 507.450   7
   2   4   4 1532.08 206.435   6
   3   4   4 3370.53 258.157   6
   4   4   4 563.490 119.417   6
   0   4   5 51.0455 134.654   7
  -1   4   5 2470.45 210.073   7
  -2   4   5 4621.21 265.371   7
   3   4   5 5724.47 284.333   6
   0   5   0-60.3191 155.768   5
   1   5   0 66.4078 157.402   5
  -1   5   0-200.390 148.364   5
   2   5   0 485.334 155.109   5
   0   5  -1 7516.08 400.853   5
   0   5   1 7088.73 392.088   5
  -1   5  -1 3754.09 272.073   5
   1   5  -1 4368.93 295.132   5
   2   5  -1 2356.87 212.386   5
   3   5  -1 1822.51 140.941   5
   3   5   1 1961.67 163.592   5
   0   5  -2 81.0213 146.791   5
   1   5  -2 2527.99 218.823   5
   0   0   0    0.00    0.00   0
TITL sm090218_2_1 in Pnma
REM Pnma (#62, found as Pmcn in cab setting)
CELL 1.54184   7.143098   4.415869   6.702750  90.0000  90.0000  90.0000
ZERR    8.00   0.000621   0.000425   0.000635   0.0000   0.0000   0.0000
LATT  1
SYMM -x+1/2,-y, z+1/2
SYMM -x, y+1/2,-z
SYMM  x+1/2,-y+1/2,-z+1/2
SFAC H Li B
UNIT 32.00 8.00 8.00
TREF
HKLF 4
END
;
_shelx_hkl_checksum              78850
_shelx_res_file
;
TITL sm090218_2_1 in Pnma
    sm090218_2_1.res
    created by SHELXL-2016/6 at 10:26:53 on 14-Feb-2018
CELL 1.54184 7.143098 4.415869 6.70275 90 90 90
ZERR 4 0.000621 0.000425 0.000635 0 0 0
LATT 1
SYMM 0.5-X,-Y,0.5+Z
SYMM 0.5+X,0.5-Y,0.5-Z
SYMM -X,0.5+Y,-Z
SFAC B H Li
UNIT 4 16 4
L.S. 10
PLAN  6
TEMP -173.15(10)
fmap 2
acta
SHEL 999 0.84
REM <olex2.extras>
REM <HklSrc "%.\\sm090218_2_1.hkl">
REM </olex2.extras>
WGHT    0.095200
FVAR      37.67126
B4    1    0.804590    0.750000    0.570464    10.50000    0.02996    0.03001 =
         0.01842    0.00000    0.00095    0.00000
H4A   2    0.713939    0.545799    0.570144    11.00000    0.03762
H4B   2    0.895606    0.750000    0.436073    10.50000    0.03787
H4C   2    0.892287    0.750000    0.711726    10.50000    0.04447
LI3   3    0.658941    0.750000    0.887381    10.50000    0.03435    0.03738 =
         0.02581    0.00000    0.00046    0.00000
HKLF 4
REM  sm090218_2_1 in Pnma
REM R1 =  0.0521 for     193 Fo > 4sig(Fo)  and  0.0552 for all     210 data
REM     23 parameters refined using      0 restraints
END
WGHT      0.0952      0.0000
REM Highest difference peak  0.218,  deepest hole -0.116,  1-sigma level  0.044
Q1    1   0.8013  0.5035  0.5722  11.00000  0.05    0.22
Q2    1   0.6763  0.9926  0.8905  11.00000  0.05    0.16
Q3    1   0.5891  0.4561  0.5768  11.00000  0.05    0.08
Q4    1   0.7122  0.4096  0.4656  11.00000  0.05    0.07
Q5    1   0.9607  0.9008  0.4403  11.00000  0.05    0.06
Q6    1   0.8971  0.9175  0.7112  11.00000  0.05    0.06
;
_shelx_res_checksum              4445
loop_
_space_group_symop_operation_xyz
'x, y, z'
'-x+1/2, -y, z+1/2'
'x+1/2, -y+1/2, -z+1/2'
'-x, y+1/2, -z'
'-x, -y, -z'
'x-1/2, y, -z-1/2'
'-x-1/2, y-1/2, z-1/2'
'x, -y-1/2, z'
loop_
_atom_site_type_symbol
_atom_site_label
_atom_site_fract_x
_atom_site_fract_y
_atom_site_fract_z
_atom_site_U_iso_or_equiv
_atom_site_adp_type
_atom_site_calc_flag
_atom_site_occupancy
B B4 0.80459(19) 0.750000 0.57046(18) 0.0261(7) Uani d 1
H H4A 0.7139(16) 0.546(3) 0.5701(17) 0.038(3) Uiso d 1
H H4B 0.896(2) 0.750000 0.436(2) 0.038(4) Uiso d 1
H H4C 0.892(2) 0.750000 0.712(3) 0.044(4) Uiso d 1
Li Li3 0.6589(3) 0.750000 0.8874(3) 0.0325(8) Uani d 1
loop_
_atom_site_aniso_label
_atom_site_aniso_U_11
_atom_site_aniso_U_22
_atom_site_aniso_U_33
_atom_site_aniso_U_12
_atom_site_aniso_U_13
_atom_site_aniso_U_23
B4 0.0300(9) 0.0300(10) 0.0184(10) 0.000 0.0010(5) 0.000
Li3 0.0343(12) 0.0374(13) 0.0258(12) 0.000 0.0005(9) 0.000
loop_
_atom_type_symbol
_atom_type_description
_atom_type_scat_dispersion_real
_atom_type_scat_dispersion_imag
_atom_type_scat_source
B B 0.0090 0.0039 'International Tables Vol C Tables 4.2.6.8 and 6.1.1.4'
H H 0.0000 0.0000 'International Tables Vol C Tables 4.2.6.8 and 6.1.1.4'
Li Li 0.0008 0.0003 'International Tables Vol C Tables 4.2.6.8 and 6.1.1.4'
loop_
_geom_angle_atom_site_label_1
_geom_angle_atom_site_label_2
_geom_angle_atom_site_label_3
_geom_angle_site_symmetry_1
_geom_angle_site_symmetry_3
_geom_angle
Li3 B4 Li3 . 2_664 118.63(5)
Li3 B4 Li3 2_664 6_657 87.23(7)
Li3 B4 Li3 . 6_657 109.73(7)
Li3 B4 Li3 . 2_674 118.63(5)
Li3 B4 Li3 2_664 2_674 120.79(10)
Li3 B4 Li3 2_674 6_657 87.23(7)
B4 Li3 B4 . 2_675 112.88(5)
B4 Li3 B4 . 2_665 112.88(5)
B4 Li3 B4 2_675 2_665 120.79(10)
B4 Li3 B4 . 6_557 122.46(10)
B4 Li3 B4 2_675 6_557 92.77(7)
B4 Li3 B4 2_665 6_557 92.77(7)
B4 Li3 Li3 . 5_667 132.15(8)
B4 Li3 Li3 2_665 5_677 113.93(10)
B4 Li3 Li3 2_675 5_667 113.93(10)
B4 Li3 Li3 . 5_677 132.15(8)
B4 Li3 Li3 2_665 5_667 46.47(4)
B4 Li3 Li3 6_557 5_667 46.30(6)
B4 Li3 Li3 6_557 5_677 46.30(6)
B4 Li3 Li3 2_675 5_677 46.47(4)
Li3 Li3 Li3 5_667 5_677 78.00(9)
loop_
_geom_bond_atom_site_label_1
_geom_bond_atom_site_label_2
_geom_bond_site_symmetry_2
_geom_bond_distance
B4 Li3 . 2.365(2)
B4 Li3 2_674 2.5394(12)
B4 Li3 6_657 2.547(3)
B4 Li3 2_664 2.5394(12)
Li3 Li3 5_667 3.509(3)
Li3 Li3 5_677 3.509(3)

_cod_database_fobs_code 2300632
