#------------------------------------------------------------------------------
#$Date: 2022-09-29 05:07:27 +0300 (Thu, 29 Sep 2022) $
#$Revision: 278264 $
#$URL: file:///home/coder/svn-repositories/cod/cif/2/30/06/2300693.cif $
#------------------------------------------------------------------------------
#
# This file is available in the Crystallography Open Database (COD),
# http://www.crystallography.net/. The original data for this entry
# were provided by IUCr Journals, http://journals.iucr.org/.
#
# The file may be used within the scientific community so long as
# proper attribution is given to the journal article from which the
# data were obtained.
#
data_2300693
loop_
_publ_author_name
'Fischer, Andreas'
'Langmann, Jan'
'V\"ost, Marcel'
'Eickerling, Georg'
'Scherer, Wolfgang'
_publ_section_title
;
 HTD2: a single-crystal X-ray diffractometer for combined
 high-pressure/low-temperature experiments at laboratory scale
;
_journal_coeditor_code           IU5026
_journal_issue                   5
_journal_name_full               'Journal of Applied Crystallography'
_journal_page_first
;
;
_journal_paper_doi               10.1107/S160057672200766X
_journal_volume                  55
_journal_year                    2022
_chemical_compound_source        'synthesized by authors, see text'
_chemical_formula_moiety         'C4 Co Sc3'
_chemical_formula_sum            'C4 Co Sc3'
_chemical_formula_weight         241.85
_space_group_IT_number           12
_space_group_name_Hall           '-C 2y'
_space_group_name_H-M_alt        'C 1 2/m 1'
_symmetry_cell_setting           monoclinic
_symmetry_Int_Tables_number      12
_symmetry_space_group_name_Hall  '-C 2y'
_symmetry_space_group_name_H-M   'C 1 2/m 1'
_atom_sites_solution_primary     dual
_cell_angle_alpha                90
_cell_angle_beta                 104.508(3)
_cell_angle_gamma                90
_cell_formula_units_Z            4
_cell_length_a                   5.5300(4)
_cell_length_b                   11.9606(15)
_cell_length_c                   5.5350(6)
_cell_measurement_reflns_used    413
_cell_measurement_temperature    2.0(3)
_cell_measurement_theta_max      30.88646
_cell_measurement_theta_min      4.91525
_cell_volume                     354.42(6)
_computing_cell_refinement       'PEAKREF (Duisenberg, 2003)'
_computing_data_collection       'EVAL-14 (Duisenberg, 2003'
_computing_data_reduction        'SADABS-2016/2 (Krause, 2015)'
_computing_molecular_graphics    'DIAMOND (Brandenburg, 2020)'
_computing_publication_material  'JANA2006 (Petricek, 2014)'
_computing_structure_refinement  'JANA2006 (Petricek, 2014)'
_computing_structure_solution    'SUPERFLIP (Palatinus, 2007)'
_diffrn_ambient_temperature      2.0(3)
_diffrn_detector                 'DECTRIS Pilatus CdTe 300K pixel detector'
_diffrn_detector_area_resol_mean 5.8
_diffrn_measured_fraction_theta_full 0.37
_diffrn_measured_fraction_theta_max 0.16
_diffrn_measurement_device       'four-circle diffractometer'
_diffrn_measurement_device_type  'HUBER four-circle Eulerian cradle'
_diffrn_measurement_method       '\f scans'
_diffrn_radiation_monochromator  'mirror optics'
_diffrn_radiation_source         'INCOATEC I\mS microfocus x-ray source'
_diffrn_radiation_type           AgK\a
_diffrn_radiation_wavelength     0.56089
_diffrn_reflns_av_R_equivalents  0.0363
_diffrn_reflns_av_unetI/netI     0.0311
_diffrn_reflns_limit_h_max       7
_diffrn_reflns_limit_h_min       -7
_diffrn_reflns_limit_k_max       15
_diffrn_reflns_limit_k_min       -14
_diffrn_reflns_limit_l_max       6
_diffrn_reflns_limit_l_min       -6
_diffrn_reflns_number            679
_diffrn_reflns_reduction_process
;
Merged with JANA2006 
(Petricek, 2014)
;
_diffrn_reflns_theta_full        15.11
_diffrn_reflns_theta_max         30.94
_diffrn_reflns_theta_min         3.29
_diffrn_source                   'microfocus sealed x-ray tube'
_exptl_absorpt_coefficient_mu    5.041
_exptl_absorpt_correction_T_max  0.6480
_exptl_absorpt_correction_T_min  0.3903
_exptl_absorpt_correction_type   multi-scan
_exptl_absorpt_process_details   'SADABS-2016/2 (Krause, 2015)'
_exptl_crystal_colour            'metallic dark grey'
_exptl_crystal_density_diffrn    4.5324
_exptl_crystal_density_method    'not measured'
_exptl_crystal_description       block
_exptl_crystal_F_000             456
_exptl_crystal_size_max          0.147
_exptl_crystal_size_mid          0.098
_exptl_crystal_size_min          0.073
_refine_diff_density_max         0.92
_refine_diff_density_min         -0.90
_refine_ls_extinction_method     none
_refine_ls_goodness_of_fit_gt    2.26
_refine_ls_goodness_of_fit_ref   2.26
_refine_ls_number_constraints    1
_refine_ls_number_parameters     18
_refine_ls_number_reflns         165
_refine_ls_number_restraints     0
_refine_ls_R_factor_all          0.0583
_refine_ls_R_factor_gt           0.0583
_refine_ls_shift/su_max          0.0007
_refine_ls_shift/su_mean         0.0001
_refine_ls_structure_factor_coef Fsqd
_refine_ls_weighting_details     w=1/(\s^2^(I)+0.0004I^2^)
_refine_ls_weighting_scheme      sigma
_refine_ls_wR_factor_gt          0.1427
_refine_ls_wR_factor_ref         0.1427
_reflns_number_gt                165
_reflns_number_total             189
_reflns_threshold_expression     I>1.5\s(I)
_iucr_refine_instructions_details
;
%JANA2006 M40 file
    6    0    0    1    0
 0.544164 0.000000 0.000000 0.000000 0.000000 0.000000      100000
 0.000000 0.000000 0.000000                                 000
 0.000000 0.000000 0.000000 0.000000 0.000000 0.000000      000000
 0.000000 0.000000 0.000000 0.000000 0.000000 0.000000      000000
Co1       2  1     0.500000 0.258151 0.000000 0.259501
 0.000970 0.000000 0.000000 0.000000 0.000000 0.000000      0101100000
Sc1       3  1     0.500000 0.753427 0.000000 0.245997
 0.000611 0.000000 0.000000 0.000000 0.000000 0.000000      0101100000
Sc2       3  1     0.500000 0.000000 0.188190 0.000000
 0.000877 0.000000 0.000000 0.000000 0.000000 0.000000      0010100000
Sc3       3  1     0.500000 0.000000 0.311272 0.500000
 0.000565 0.000000 0.000000 0.000000 0.000000 0.000000      0010100000
C1        1  1     1.000000 0.417961 0.124020 0.080849
 0.002909 0.000000 0.000000 0.000000 0.000000 0.000000      0111100000
C2        1  1     1.000000 0.083602 0.123475 0.421006
 0.002909 0.000000 0.000000 0.000000 0.000000 0.000000      0111000000
----------------------------   s.u. block   ----------------------------
 0.006719 0.000000 0.000000 0.000000 0.000000 0.000000
 0.000000 0.000000 0.000000
 0.000000 0.000000 0.000000 0.000000 0.000000 0.000000
 0.000000 0.000000 0.000000 0.000000 0.000000 0.000000
Co1                0.000000 0.000236 0.000000 0.000302
 0.000519 0.000000 0.000000 0.000000 0.000000 0.000000
Sc1                0.000000 0.000307 0.000000 0.000385
 0.000586 0.000000 0.000000 0.000000 0.000000 0.000000
Sc2                0.000000 0.000000 0.000188 0.000000
 0.000543 0.000000 0.000000 0.000000 0.000000 0.000000
Sc3                0.000000 0.000000 0.000187 0.000000
 0.000538 0.000000 0.000000 0.000000 0.000000 0.000000
C1                 0.000000 0.001578 0.000678 0.001708
 0.001190 0.000000 0.000000 0.000000 0.000000 0.000000
C2                 0.000000 0.001606 0.000678 0.001732
 0.001190 0.000000 0.000000 0.000000 0.000000 0.000000
--------------------------   Saved points   ----------------------------
    0
--------------------------   Fourier maxima   --------------------------
    1    1    1
max1      1  1     1.000000 0.254829 0.069352 0.379720      000  0  0  0
     0.78     0.30
max2      1  1     1.000000 0.235382 0.050306 0.130211      000  0  0  0
     0.67     0.30
max3      1  1     1.000000 0.091706 0.226076 0.032938      000  0  0  0
     0.65     0.29
max4      1  1     1.000000-0.011061 0.132032 0.227635      000  0  0  0
     0.49     0.26
max5      1  1     1.000000 0.091861 0.077684 0.140934      000  0  0  0
     0.45     0.25
max6      1  1     1.000000 0.179798 0.398930 0.872145      000  0  0  0
     0.52     0.25
max7      1  1     1.000000 0.089442 0.384570 0.602381      000  0  0  0
     0.55     0.23
max8      1  1     1.000000 0.086026 0.401333 0.140281      000  0  0  0
     0.70     0.23
max9      1  1     1.000000 0.093031 0.111065 0.915009      000  0  0  0
     0.40     0.20
max10     1  1     1.000000 0.031112 0.257610 0.423712      000  0  0  0
     0.57     0.19
--------------------------   Fourier minima   --------------------------
    1    1    1
min1      1  1     1.000000 0.090726 0.000000 0.397309      000  0  0  0
     0.81     0.41
min2      1  1     1.000000 0.247977 0.000000 0.123886      000  0  0  0
     0.87     0.34
min3      1  1     1.000000 0.212633 0.500000-0.005593      000  0  0  0
     0.58     0.34
min4      1  1     1.000000 0.006521 0.191719 0.500000      000  0  0  0
     0.75     0.34
min5      1  1     1.000000 0.067269 0.500000 0.181022      000  0  0  0
     0.50     0.33
min6      1  1     1.000000 0.232537 0.000000 0.622517      000  0  0  0
     0.75     0.33
min7      1  1     1.000000 0.249976 0.500000 0.351688      000  0  0  0
     0.75     0.32
min8      1  1     1.000000 0.159053 0.000000 0.765200      000  0  0  0
     0.71     0.31
min9      1  1     1.000000 0.254737 0.475105 0.086497      000  0  0  0
     0.65     0.31
min10     1  1     1.000000 0.102053 0.342706 0.060714      000  0  0  0
     0.68     0.30
------------------------------------------------------------------------

%JANA2006 M50 file
Version Jana2006
title
cell 5.53 11.9606 5.535 90 104.508 90
esdcell 0.0004 0.0015 0.0006 0 0.003 0
spgroup C2/m 12 22
lattice C
symmetry x y z
symmetry -x y -z
symmetry -x -y -z
symmetry x -y z
unitsnumb 4
chemform C4 Co Sc3
atlist C4 Co Sc3
formtab -62
atom C atradius 0.77 color 128073041
atom Co atradius 1.25 color 175
atom Sc atradius 1.64 color 181099171
roundmethod 1
end
*******************************************************************************
contour
end contour
dist
  angles 1
end dist
fourier
  addbord 0 maptype 6 peaks 0 weight 0
end fourier
refine
  print 2 cycles 100 fsquare 1 useunobs 0 convchck 0 stunstab 1 damp 0.1
  siglevel 1.5
  equation : Uiso[C2]=Uiso[C1]
end refine
;
_cod_data_source_file            iu5026sup1.cif
_cod_data_source_block           Sc3CoC4_2K_3.3GPa
_cod_database_code               2300693
_shelx_hkl_file
;
   2   0   0 27.6303 3.74210   3
   1  -1   0 3.57138 1.00657   1
   1  -1   0 2.37926 1.60616   2
   1  -1   0 3.74351 0.75075   5
   1  -1   0 2.60942 2.37585   4
  -1   1   0 7.77727 2.16547   3
  -1   1   0 4.57126 1.48634   2
  -1   1   0 3.03965 0.95186   5
  -1   1   0 1.77911 1.01088   1
  -1   1   0 -0.3109 2.31210   4
   3  -1   0 18.2907 3.82625   1
   3  -1   0 16.7357 3.03163   5
   3  -1   0 9.51901 6.94400   2
  -5   1   0 40.7361 5.10414   1
  -5   1   0 33.7343 5.03834   3
   5   1   0 33.8115 4.72079   5
  -5   1   0 34.3639 4.40742   4
   5   1   0 36.4193 9.92614   2
   5   1   0 45.3437 14.9018   4
   5   1   0 30.9869 5.84956   1
  -4   2   0 425.108 24.4835   3
  -4   2   0 538.242 26.4988   4
  -4   2   0 468.835 21.3175   1
  -6   2   0 4062.79 171.737   4
  -6   2   0 3800.01 157.621   1
  -6   2   0 4142.84 175.855   3
  -3   3   0 8.76941 9.95012   3
  -3   3   0 17.1153 4.96817   5
  -3   3   0 -5.1504 11.8778   4
  -5   3   0 22.8350 12.5913   3
  -5   3   0 31.7293 8.92612   4
  -5   3   0 22.5468 4.99481   1
  -6   4   0 779.818 35.4233   1
  -6   4   0 794.676 39.3161   4
  -5   5   0 18.1079 16.1631   4
  -5   5   0 11.3428 19.9387   3
  -5   5   0 14.5146 9.88531   1
  -4   0   1 62.3292 4.67185   1
  -4   0   1 50.7586 7.74236   3
  -2   0  -1 81.4556 4.85956   4
   2   0   1 77.4256 4.83781   1
   2   0   1 79.0253 5.04336   2
  -2   0  -1 77.8554 4.74931   3
   2   0   1 74.4786 5.60292   4
   4   0   1 83.7030 10.8614   1
   4   0   1 130.028 17.6709   4
   4   0   1 102.205 10.2208   2
   4   0   1 98.4103 10.6226   5
   6   0   1 99.8599 10.4094   5
   6   0   1 94.7438 11.7395   1
   6   0   1 53.4443 19.6848   2
  -5   1   1 1049.74 44.4379   1
  -5   1   1 980.686 46.5064   3
   3  -1   1 599.607 28.7362   2
   3  -1   1 561.774 28.2262   5
   3  -1   1 546.664 27.2528   1
  -3   1  -1 634.929 28.1474   1
   5  -1   1 175.054 13.6837   5
   5  -1   1 180.699 13.7844   1
   5  -1   1 185.125 21.2367   2
  -5   1  -1 189.455 14.2805   1
   5   1   1 148.071 12.9966   5
   5   1   1 150.882 21.3838   4
   5   1   1 165.508 13.0865   1
   5   1   1 160.318 14.8791   2
  -5   1  -1 193.862 10.7611   4
  -5   1  -1 192.941 10.6902   3
  -6   2   1 88.4756 8.21928   1
  -6   2   1 92.1337 29.2084   4
  -6   2   1 94.1667 33.6809   3
  -4   2   1 52.1128 6.92008   1
  -4   2   1 33.9107 5.83976   5
   0  -2   1 4.01837 2.50748   4
   0  -2   1 5.49858 1.84251   1
   0  -2   1 4.83794 1.24596   2
   0  -2   1 3.30975 1.73978   5
   0   2  -1 4.16091 2.27228   3
   0   2  -1 5.73974 1.76045   4
   0   2  -1 3.73916 0.99235   1
   2  -2   1 85.6432 7.94204   5
   2  -2   1 115.271 13.0386   4
   2  -2   1 88.6165 8.31139   1
   2  -2   1 86.0699 7.95832   2
  -2   2  -1 77.0854 5.13898   1
  -2   2  -1 84.8779 8.14219   3
   4  -2   1 91.0594 9.72776   1
  -4   2  -1 96.7254 7.02415   4
   4   2   1 85.5996 9.39287   4
  -4   2  -1 98.9741 8.02035   3
   4   2   1 96.5116 7.13462   1
   4   2   1 99.3684 7.14857   2
   6  -2   1 90.4770 20.7889   2
   6  -2   1 108.012 10.3713   5
   6  -2   1 89.5155 12.3918   1
  -6   2  -1 104.075 8.37203   4
  -1  -3   1 1229.12 50.7904   1
  -1  -3   1 1249.83 54.2143   5
  -1  -3   1 1164.18 50.9301   2
  -1  -3   1 1181.15 52.1034   4
   1   3  -1 1221.07 53.1606   5
   1   3  -1 1209.96 50.3648   1
   1   3  -1 1144.46 50.1903   3
   1   3  -1 1254.21 54.1073   4
   3  -3   1 842.865 38.2216   1
   3  -3   1 859.111 43.2998   2
   3  -3   1 871.512 41.2187   5
   3  -3   1 794.928 43.9387   4
  -3   3  -1 942.437 40.1689   1
  -3   3  -1 899.107 41.2315   4
  -3   3  -1 931.409 44.5905   3
   5  -3   1 2073.04 92.4548   5
   5  -3   1 2096.79 90.2870   1
   5  -3   1 1993.35 94.4518   2
   5   3   1 2157.32 93.3007   2
   5   3   1 2048.01 87.5595   1
  -5   3  -1 2030.30 85.5103   1
  -5   3  -1 2250.88 96.4140   4
   5   3   1 1985.43 89.8022   4
   5   3   1 2113.40 94.1065   5
   2  -4   1 34.0893 5.38127   5
   2  -4   1 44.2510 12.6250   4
   2  -4   1 32.1453 5.58212   1
   2  -4   1 23.3457 9.62237   2
  -2   4  -1 32.8068 6.09274   1
  -2   4  -1 38.1628 4.95433   5
  -2   4  -1 34.7508 9.13527   4
  -2   4  -1 14.3450 10.0225   3
  -6   4  -1 87.9823 8.91141   4
  -6   4  -1 107.729 10.4560   1
  -6   4  -1 88.6446 10.5301   3
   1   5  -1 7325.79 298.969   1
   1   5  -1 6999.80 298.831   4
   1   5  -1 7062.92 304.577   5
   1  -5   1 3316.40 144.472   5
   1  -5   1 3577.46 147.830   1
   1  -5   1 4013.47 173.928   4
   1  -5   1 3475.86 151.416   2
  -1   5  -1 3807.21 165.953   5
  -1   5  -1 3727.16 162.701   3
  -1   5  -1 3526.91 155.449   4
  -1   5  -1 3913.49 161.707   1
   3  -5   1 3413.02 148.225   5
   3  -5   1 3309.04 137.867   1
   3  -5   1 3042.88 135.832   2
  -3   5  -1 2863.16 129.619   3
  -3   5  -1 3239.54 142.104   4
  -3   5  -1 3231.11 135.507   1
  -5   5  -1 566.154 30.0971   4
  -5   5  -1 589.259 27.8124   1
  -5   5  -1 533.265 32.8755   3
   0   6  -1 1.76909 15.4040   4
   0   6  -1 14.4524 12.0126   3
   0   6  -1 8.22287 5.67399   1
   0   6  -1 8.45638 5.35751   5
   2  -6   1 37.8444 4.84941   5
   2  -6   1 38.2214 6.54002   1
   2  -6   1 32.3782 10.9160   2
  -2   6  -1 60.9657 10.4752   1
  -2   6  -1 46.1983 17.2775   3
  -2   6  -1 31.6551 17.1588   4
  -6   6  -1 94.7902 13.4463   4
  -6   6  -1 145.218 20.7031   3
  -3   7  -1 204.742 26.8636   3
  -3   7  -1 190.333 18.5952   1
  -3   7  -1 229.907 26.6482   4
  -5   7  -1 224.855 29.3999   3
  -5   7  -1 214.936 21.5574   4
   3  -1   2 79.2484 7.44212   2
   3  -1   2 69.4848 7.63762   1
   5  -1   2 52.4819 13.2402   1
   5  -1   2 66.4807 16.7424   2
   5  -1   2 65.2981 14.3546   5
   2  -2   2 802.574 35.7220   1
   2  -2   2 794.063 36.0488   2
   2  -2   2 731.725 36.2351   4
  -2   2  -2 789.699 35.1511   3
  -2   2  -2 745.762 33.7301   1
  -2   2  -2 772.451 34.3193   4
  -4   2  -2 4678.72 195.066   1
   6  -2   2 193.264 19.7508   1
   6  -2   2 211.634 19.5952   5
  -1  -3   2 28.0855 3.42973   2
  -1  -3   2 34.4836 5.41663   4
  -1  -3   2 28.2138 3.60320   1
   1   3  -2 34.4754 2.97995   4
   1   3  -2 31.0483 2.89940   3
   1  -3   2 69.3511 8.63473   5
   1  -3   2 68.3257 9.54228   4
   1  -3   2 68.0305 6.32410   2
   1  -3   2 74.4302 7.36211   1
  -1   3  -2 66.5782 5.97945   3
  -1   3  -2 66.2657 5.30957   4
   3  -3   2 82.2249 13.0715   1
   3  -3   2 73.4780 11.8611   2
   3  -3   2 66.7421 12.0343   5
  -3   3  -2 84.7446 6.67687   4
  -3   3  -2 75.2218 7.13015   3
   5  -3   2 61.8348 14.2695   1
   5  -3   2 51.9612 14.4185   5
   5  -3   2 47.0052 23.6449   2
  -5   3  -2 84.0265 11.9267   1
  -5   3  -2 73.5856 7.53937   4
  -5   3  -2 73.1583 7.63662   3
   7  -3   2 2.62945 25.1905   2
   0  -4   2 7875.72 340.146   5
   0  -4   2 7393.38 316.270   4
   0  -4   2 7467.75 317.760   2
   0   4  -2 8242.50 334.690   1
   0   4  -2 8159.34 341.766   4
   0   4  -2 8053.44 339.644   3
   2  -4   2 2050.90 88.8572   1
   2  -4   2 1955.91 89.2686   5
   2  -4   2 2015.79 90.6675   2
  -2   4  -2 1864.99 82.7468   3
  -2   4  -2 1933.44 80.7024   1
  -2   4  -2 1977.11 85.3442   4
   6  -4   2 1664.10 88.3135   2
   6  -4   2 1665.28 77.3711   5
  -6   4  -2 1504.06 66.8935   3
  -6   4  -2 1508.65 67.1764   4
  -1  -5   2 24.5750 7.44779   2
  -1  -5   2 26.7793 5.14228   1
  -1  -5   2 36.9868 11.4018   4
  -1  -5   2 12.6196 4.75311   5
   1   5  -2 16.8448 6.98124   3
   1   5  -2 19.9500 3.13485   1
   1  -5   2 45.3383 8.45871   5
   1  -5   2 42.8850 8.17703   1
   1  -5   2 49.3558 10.5926   2
   1  -5   2 40.0901 15.3469   4
  -1   5  -2 35.3033 9.43876   3
  -1   5  -2 42.1473 4.49935   1
  -1   5  -2 52.1546 7.50782   4
   5  -5   2 46.9460 13.6030   1
   5  -5   2 43.5825 27.6141   2
   5  -5   2 45.9500 11.0934   5
  -5   5  -2 52.0411 7.50654   4
  -7   5  -2 38.0584 7.92136   3
  -7   5  -2 35.3297 8.00469   4
  -2  -6   2 9475.87 385.548   1
  -2  -6   2 9466.17 400.308   2
   2   6  -2 8799.53 372.784   3
   0  -6   2 702.009 32.3569   1
   0  -6   2 735.900 35.1405   5
   0  -6   2 686.706 36.2606   2
   0   6  -2 744.235 38.2274   3
   0   6  -2 800.863 38.3125   4
   0   6  -2 761.323 33.6919   1
   2  -6   2 6946.43 301.851   2
   2  -6   2 7423.44 305.418   1
   2  -6   2 7096.01 308.351   5
  -2   6  -2 6479.52 280.269   3
  -2   6  -2 7143.60 292.386   1
  -2   6  -2 7347.39 311.050   4
   4  -6   2 278.778 31.2692   2
   4  -6   2 303.754 19.7705   5
  -4   6  -2 316.379 19.0713   4
  -4   6  -2 327.757 23.4704   3
   6  -6   2 3417.82 151.752   5
   6  -6   2 3626.97 165.815   2
  -6   6  -2 3161.79 136.880   4
  -6   6  -2 3187.59 138.905   3
   3   7  -2 4.74263 4.52979   4
   3   7  -2 -5.3155 6.60053   3
   3   7  -2 0.42470 2.69879   1
  -1  -7   2 8.90303 3.59182   5
  -1  -7   2 19.8685 5.12931   1
  -1  -7   2 2.90806 8.33277   2
   1   7  -2 0.00630 10.0277   4
   1   7  -2 7.00148 12.3361   3
   1   7  -2 17.9503 6.71837   1
   1  -7   2 39.9820 7.31871   5
   1  -7   2 36.5767 15.2198   2
  -1   7  -2 41.1204 16.4342   3
  -1   7  -2 38.0937 12.4422   4
  -1   7  -2 45.1315 8.49844   1
   3  -7   2 47.7565 22.2809   2
   3  -7   2 42.0161 9.14869   5
   3  -7   2 37.6651 10.9430   1
  -3   7  -2 57.0251 18.8620   3
  -3   7  -2 45.3447 7.20489   1
  -3   7  -2 42.7839 11.7611   4
   5  -7   2 58.1222 11.2613   5
  -5   7  -2 70.0916 11.9238   4
  -7   7  -2 10.2270 9.11487   4
  -7   7  -2 -2.5564 10.1413   3
   2   8  -2 6.43440 11.0428   4
   2   8  -2 -2.0947 7.38926   1
   2   8  -2 -6.8082 13.2356   3
   0  -8   2 8867.30 362.321   1
   0  -8   2 8839.01 379.561   5
   0  -8   2 8364.08 357.960   2
   0   8  -2 8520.29 364.843   4
   0   8  -2 8041.28 348.049   3
   0   8  -2 8548.26 353.095   1
   2  -8   2 568.051 28.9922   1
   2  -8   2 586.148 29.4508   5
   2  -8   2 576.132 36.6171   2
  -2   8  -2 498.347 36.6591   3
  -2   8  -2 615.359 36.3599   4
  -2   8  -2 579.590 29.7238   1
   4  -8   2 5072.01 225.183   2
   4  -8   2 5032.44 220.137   5
  -4   8  -2 5257.49 232.303   3
  -4   8  -2 4955.71 215.619   4
  -6   8  -2 33.8476 16.4517   3
  -6   8  -2 29.2084 11.6988   4
   3   9  -2 0.41254 5.74477   5
   3   9  -2 9.94430 10.1615   4
   3   9  -2 6.76268 12.7324   3
   3   9  -2 6.59761 6.28603   1
   3  -9   2 80.0123 19.9923   2
   3  -9   2 55.2781 9.10092   5
  -3   9  -2 39.0831 27.3666   3
  -3   9  -2 39.2449 18.0540   4
   0  10  -2 167.093 29.5966   4
   0  10  -2 189.967 20.8363   1
   4  -2   3 60.4394 14.9077   1
   1  -3   3 1014.66 44.1260   1
   1  -3   3 1022.92 45.8053   2
  -1   3  -3 961.479 44.3093   1
  -1   3  -3 1020.72 44.9478   3
  -1   3  -3 992.974 43.9301   4
   3  -3   3 1088.27 52.4324   5
   3  -3   3 1060.87 50.6558   1
  -3   3  -3 999.895 44.6643   4
  -3   3  -3 1059.30 46.9678   3
  -3   3  -3 920.277 44.3126   1
   5  -3   3 478.079 32.7260   5
   5  -3   3 510.652 38.5829   2
  -2  -4   3 2.96261 6.44301   4
   0  -4   3 13.3403 8.75671   4
   0  -4   3 29.0967 5.88938   1
   0  -4   3 14.3463 5.23323   2
   0   4  -3 22.4103 3.91866   3
   0   4  -3 19.4544 4.01905   4
   0   4  -3 29.8498 6.02954   1
   2  -4   3 62.6238 10.5803   5
   2  -4   3 61.1493 12.6917   1
   2  -4   3 70.3886 9.48968   2
  -2   4  -3 64.2451 5.80976   4
  -2   4  -3 55.6258 6.14874   3
   4  -4   3 76.1432 20.7202   2
   6  -4   3 97.3965 18.2149   5
   6  -4   3 76.4944 35.8141   2
  -3  -5   3 1402.87 62.7324   5
  -3  -5   3 1426.50 63.2960   2
  -3  -5   3 1515.10 63.8751   1
  -1  -5   3 1044.36 47.5223   2
  -1  -5   3 944.271 44.5720   1
  -1  -5   3 937.381 44.8984   5
   1   5  -3 1033.05 45.2571   3
   1   5  -3 1029.46 44.8930   4
   1   5  -3 1067.24 46.2566   1
   1  -5   3 4088.84 176.789   2
   1  -5   3 3915.48 173.584   5
   1  -5   3 3634.67 156.388   1
  -1   5  -3 3831.56 162.410   4
  -1   5  -3 3835.40 158.501   1
  -1   5  -3 3956.88 168.296   3
   3  -5   3 1581.71 76.1661   5
   3  -5   3 1541.93 71.1576   1
   3  -5   3 1527.07 74.8367   2
  -3   5  -3 1569.14 68.4876   4
  -3   5  -3 1536.80 66.6023   1
  -3   5  -3 1548.96 68.2655   3
   5  -5   3 1388.15 79.7562   2
   5  -5   3 1288.66 65.9837   5
  -5   5  -3 1254.61 56.6894   4
  -5   5  -3 1218.93 55.1458   3
   0  -6   3 12.9351 12.2900   2
   0  -6   3 14.6021 10.9545   1
   0  -6   3 19.8207 10.9000   5
   0   6  -3 28.9682 5.33246   4
   0   6  -3 31.7141 7.42475   3
   0   6  -3 20.5651 4.31493   1
   2  -6   3 49.8818 13.5607   5
   2  -6   3 25.2608 17.0372   2
   2  -6   3 44.4323 12.1997   1
  -2   6  -3 48.6301 8.74388   3
  -2   6  -3 58.2000 6.08963   1
  -2   6  -3 43.4633 6.55570   4
  -4   6  -3 74.8094 8.27112   4
  -4   6  -3 62.9523 8.69273   3
   6  -6   3 81.8505 15.6471   5
   6  -6   3 74.6590 39.8547   2
  -6   6  -3 68.4399 9.59909   3
  -6   6  -3 60.3217 9.80653   4
  -3  -7   3 13.0648 8.79930   2
  -3  -7   3 3.52270 12.6259   4
  -3  -7   3 3.48579 5.00200   1
   3   7  -3 11.8013 3.50242   4
   3   7  -3 11.3540 3.24255   3
   3   7  -3 8.10519 5.87731   1
   1  -7   3 231.090 26.3527   2
   1  -7   3 242.611 18.6514   1
   1  -7   3 279.515 20.9211   5
  -1   7  -3 243.473 14.8723   4
  -1   7  -3 241.893 13.0883   1
  -5   7  -3 179.015 13.5142   4
  -7   7  -3 58.8396 10.9618   3
  -2  -8   3 -17.034 12.0655   2
  -2  -8   3 -4.2793 4.77449   5
  -2  -8   3 0.88429 6.07504   1
   2   8  -3 -10.216 7.44039   3
   2   8  -3 1.55994 3.84319   1
   2   8  -3 -1.0214 4.96470   4
   0  -8   3 2.68224 9.24767   1
   0  -8   3 11.3544 18.4386   2
   0  -8   3 2.41217 9.42685   5
   0   8  -3 21.0486 12.0943   3
   0   8  -3 8.83377 4.70713   1
   0   8  -3 19.1026 8.46964   4
   2  -8   3 56.1076 27.5580   2
   2  -8   3 44.8262 13.3575   1
   2  -8   3 37.2553 12.8422   5
  -2   8  -3 36.1614 6.10596   1
  -2   8  -3 38.2534 9.08523   4
  -2   8  -3 33.2232 13.6446   3
   4  -8   3 78.1489 37.2071   2
   4  -8   3 37.1077 14.5693   5
  -4   8  -3 52.2200 10.2149   4
  -4   8  -3 68.0993 14.5938   3
   6  -8   3 64.0356 32.3073   2
  -6   8  -3 77.4633 11.2931   4
  -6   8  -3 48.1257 11.5890   3
   3   9  -3 28.0514 5.18236   4
   3   9  -3 42.0014 7.00992   3
   3   9  -3 36.8349 5.03568   1
  -1  -9   3 273.878 16.8216   1
   1  -9   3 156.099 16.1835   1
   1  -9   3 148.294 28.4154   2
   1  -9   3 156.012 14.4879   5
  -1   9  -3 138.859 15.6089   4
  -1   9  -3 132.346 10.3953   1
  -1   9  -3 126.944 20.7216   3
   3  -9   3 675.517 52.6232   2
   3  -9   3 807.735 41.8666   5
   2  10  -3 -0.9397 5.34151   1
   2  10  -3 10.2092 14.2444   3
   2  10  -3 -10.599 9.10172   4
   0 -10   3 11.2771 7.59321   5
   0 -10   3 -11.651 10.0046   1
   0  10  -3 11.0481 20.1314   3
   0  10  -3 -1.4253 12.7263   4
   0  10  -3 4.64063 7.12468   1
   2 -10   3 36.7598 11.7316   5
   2 -10   3 30.6853 27.4850   2
  -2  10  -3 53.4789 22.7265   3
  -2  10  -3 42.0248 15.2015   4
   4 -10   3 71.1069 14.0323   5
   4 -10   3 16.3412 32.6155   2
  -4  10  -3 45.3407 22.8313   3
  -4  10  -3 101.702 16.1453   4
  -6  10  -3 6.88585 15.3565   3
   3  11  -3 922.689 46.4806   3
   3  11  -3 972.126 42.6258   1
   3  11  -3 979.286 45.6982   4
   1  11  -3 514.350 32.6694   4
   1  11  -3 535.538 27.5239   1
   1  11  -3 483.476 37.9767   3
   1 -11   3 2251.19 101.295   5
   1 -11   3 2326.15 109.446   2
  -1  11  -3 2172.07 102.589   4
  -1  11  -3 2171.36 109.337   3
   3 -11   3 1599.88 84.2332   2
   3 -11   3 1344.24 65.1275   5
  -3  11  -3 1400.44 77.2355   3
  -3  11  -3 1338.84 67.9262   4
   2  12  -3 -8.4683 15.5811   4
   2  12  -3 -8.9261 23.7931   3
   2  12  -3 -6.5051 8.49642   1
  -2  12  -3 -23.867 30.4362   3
  -2  12  -3 16.2076 19.8704   4
  -3  -5   4 30.7485 17.2227   5
  -1  -5   4 62.7426 7.63196   2
  -1  -5   4 71.0629 8.70430   1
   3  -5   4 77.5493 16.3268   5
   3  -5   4 82.6543 15.8002   2
  -3   5  -4 96.2337 8.33161   4
  -3   5  -4 87.1734 8.05951   3
  -4  -6   4 3801.13 164.837   2
  -4  -6   4 3997.20 164.747   1
   0  -6   4 5605.29 237.188   1
   0  -6   4 6399.24 279.144   5
   0   6  -4 6020.32 253.656   4
   0   6  -4 5834.86 241.887   1
   2  -6   4 302.976 24.4395   1
   2  -6   4 285.649 23.2413   5
   2  -6   4 296.615 23.7416   2
  -2   6  -4 301.246 16.0723   3
  -2   6  -4 283.944 15.3131   4
  -3  -7   4 17.7376 12.3301   2
  -3  -7   4 16.8198 7.96984   1
  -3  -7   4 28.1678 8.39011   5
  -3  -7   4 4.37718 17.1796   4
   1  -7   4 66.2948 15.2713   1
  -1   7  -4 102.485 9.80822   1
   3  -7   4 73.1776 18.6826   5
   3  -7   4 92.4323 27.6496   2
  -3   7  -4 109.810 9.62511   4
  -3   7  -4 80.8478 8.75375   3
  -5   7  -4 62.0777 9.26722   4
  -2  -8   4 9571.42 394.059   1
  -2  -8   4 9361.80 406.799   5
   2   8  -4 9967.73 417.771   4
   2   8  -4 9999.99 420.117   3
   2   8  -4 9870.48 404.546   1
   0  -8   4 -23.703 13.8319   1
   0  -8   4 6.38248 14.1461   5
   0  -8   4 2.49213 21.3256   2
   0   8  -4 3.67087 6.42169   1
   0   8  -4 -2.8997 6.62603   3
   0   8  -4 5.48495 5.26387   4
   2  -8   4 4868.95 220.930   2
   2  -8   4 4768.85 213.804   5
  -2   8  -4 4692.92 200.657   3
  -2   8  -4 4517.46 192.664   4
   4  -8   4 194.039 23.2112   5
   4  -8   4 217.805 45.7130   2
  -4   8  -4 233.003 15.7951   3
  -4   8  -4 192.227 13.7987   4
   6  -8   4 2607.28 137.047   2
  -3  -9   4 25.4537 6.33380   5
  -3  -9   4 34.4636 8.51638   1
  -3  -9   4 43.4987 15.0964   2
   3   9  -4 33.8507 5.17332   3
  -1  -9   4 45.8793 12.7073   5
   1   9  -4 54.1778 7.63106   1
   1  -9   4 83.1253 18.6309   5
   1  -9   4 50.8238 31.2719   2
  -1   9  -4 85.0422 9.25082   4
  -1   9  -4 76.7364 11.0622   3
   3  -9   4 113.775 43.1886   2
   3  -9   4 96.1779 20.3023   5
  -3   9  -4 51.6692 10.5268   3
  -3   9  -4 54.5957 8.80415   4
  -2 -10   4 254.816 17.6001   1
  -2 -10   4 238.952 15.6018   5
   2  10  -4 275.062 15.4045   4
   2  10  -4 257.419 15.7408   3
   2  10  -4 264.856 15.7375   1
   0 -10   4 4871.22 222.646   2
   0 -10   4 5238.35 231.107   5
   0  10  -4 5221.96 222.481   4
   0  10  -4 5388.74 231.400   3
   2 -10   4 233.951 44.7577   2
   2 -10   4 177.951 21.2708   5
  -2  10  -4 190.512 17.7019   3
  -2  10  -4 188.124 14.7200   4
   4 -10   4 2929.93 149.461   2
   4 -10   4 3059.88 139.980   5
  -4  10  -4 3151.65 138.496   3
  -4  10  -4 3017.30 131.965   4
  -6  10  -4 92.5417 15.1041   3
   3  11  -4 37.1374 6.65922   4
   3  11  -4 46.7735 9.50664   1
   1 -11   4 72.3951 15.1676   5
  -1  11  -4 60.4985 17.7402   3
  -1  11  -4 47.1318 11.9659   4
   3 -11   4 80.4293 42.8370   2
   3 -11   4 62.2283 16.7861   5
   2  12  -4 988.661 46.7277   4
   2  12  -4 956.273 43.8702   1
   2  12  -4 985.950 48.8945   3
   2 -12   4 2175.64 115.365   2
   2 -12   4 2270.17 105.253   5
  -2  12  -4 2253.52 102.619   4
  -2  12  -4 2168.42 103.919   3
   4 -12   4 483.252 48.4816   2
  -4  12  -4 454.500 31.9914   3
   3  13  -4 3.56935 7.88363   1
   3  13  -4 -14.873 9.87207   3
   3  13  -4 -9.5727 7.70248   4
   1  13  -4 53.0559 16.1630   4
  -1  13  -4 43.7941 18.2992   4
   0  14  -4 132.057 22.9085   4
  -3  -7   5 296.983 20.8957   2
  -3  -7   5 278.643 20.3664   1
  -3  -7   5 308.207 21.4507   5
  -1  -7   5 19.7167 16.8752   1
   1  -7   5 323.344 25.5804   2
   1  -7   5 268.837 25.1607   5
  -4  -8   5 -2.7541 7.85283   5
  -4  -8   5 -9.8881 15.5696   2
  -4  -8   5 -11.444 8.43057   1
  -2  -8   5 19.1356 17.5065   2
  -2  -8   5 8.81168 13.7090   5
  -2  -8   5 -5.9664 12.8721   1
   0  -8   5 40.4776 19.8515   2
   0  -8   5 37.0315 17.3352   5
   0   8  -5 24.6220 6.34445   4
   0   8  -5 33.3891 6.22278   3
   2  -8   5 70.1472 27.5845   2
   2  -8   5 20.3647 19.9031   5
  -2   8  -5 30.2299 7.07555   4
  -2   8  -5 30.2581 6.69777   3
  -3  -9   5 161.373 15.3572   1
  -3  -9   5 145.804 14.7867   5
  -1  -9   5 12.4610 16.3439   5
  -1  -9   5 15.2097 26.4091   2
   1   9  -5 11.1797 6.54517   4
   1  -9   5 88.9924 33.1069   2
   1  -9   5 164.935 23.9388   5
  -1   9  -5 114.460 10.3777   3
  -1   9  -5 129.108 10.4541   4
   3  -9   5 136.062 22.2306   5
   3  -9   5 119.362 40.7971   2
  -3   9  -5 146.920 12.3803   3
  -3   9  -5 142.754 12.3479   4
  -2 -10   5 17.0038 12.9997   5
  -2 -10   5 37.4326 14.0876   1
  -2 -10   5 -12.542 26.5012   2
   2  10  -5 -8.2650 13.2264   1
   2  10  -5 22.0462 6.59552   4
   0 -10   5 -2.6715 35.3137   2
   0  10  -5 19.3960 7.97757   3
   2 -10   5 45.8160 42.4979   2
   2 -10   5 -12.521 20.6920   5
  -2  10  -5 36.0986 8.27945   3
  -2  10  -5 24.6457 7.66016   4
   4 -10   5 87.8901 42.2698   2
  -4  10  -5 51.1791 10.6150   3
  -3 -11   5 330.950 19.3309   5
  -3 -11   5 407.074 31.6726   2
  -3 -11   5 317.929 20.9260   1
  -1 -11   5 687.157 39.0988   5
  -1 -11   5 725.265 57.2401   2
   1  11  -5 674.445 33.0033   4
   1  11  -5 689.392 33.7054   3
   1 -11   5 419.486 54.7165   2
   1 -11   5 394.252 30.8513   5
  -1  11  -5 413.937 24.0172   3
  -1  11  -5 408.844 23.1728   4
   3 -11   5 965.544 73.4873   2
  -3  11  -5 1018.62 49.1436   3
   5 -11   5 733.442 64.0190   2
  -5  11  -5 769.140 40.0516   3
  -2 -12   5 61.0949 25.2016   2
  -2 -12   5 -14.436 9.51633   5
   2  12  -5 3.01022 7.88934   3
   2  12  -5 8.42864 7.70675   4
   0 -12   5 6.02718 13.7041   5
   2 -12   5 69.4197 46.9071   2
  -2  12  -5 24.4923 11.6871   3
  -4  12  -5 60.8104 13.7199   3
  -1 -13   5 1256.98 71.3920   2
  -1 -13   5 1241.77 59.7664   5
   1  13  -5 1157.37 54.4771   4
   1  13  -5 1161.98 55.7078   3
   1 -13   5 1471.92 90.4117   2
   1 -13   5 1452.24 72.2258   5
  -1  13  -5 1467.30 70.3593   3
   3 -13   5 413.847 51.1249   2
  -3  13  -5 434.297 28.8090   3
  -5  13  -5 196.885 21.4295   3
   2  14  -5 -12.999 10.3897   3
   2  14  -5 -0.3414 8.57505   4
   0  14  -5 42.5206 16.6966   3
   0  14  -5 22.0666 12.8610   4
   2 -14   5 18.6118 38.4572   2
  -2  14  -5 23.6096 17.6161   3
  -1 -11   6 73.5025 38.6587   2
  -1 -11   6 68.6589 19.6712   5
  -1  11  -6 53.3139 9.58952   3
  -2 -12   6 1145.92 56.3553   5
  -2 -12   6 1079.00 68.5412   2
   2 -12   6 1022.18 78.3520   2
  -2  12  -6 855.867 42.4828   3
  -1 -13   6 51.5710 38.8549   2
  -1 -13   6 58.7642 15.8400   5
   1  13  -6 54.8263 10.3847   4
   1  13  -6 67.9047 11.0078   3
   1 -13   6 14.5806 50.5785   2
   3 -13   6 82.7789 46.7984   2
  -3  13  -6 49.1651 13.7478   3
   0 -14   6 2389.32 127.092   2
   0  14  -6 2462.74 110.488   3
   1  15  -6 68.0730 14.6893   3
   0   0   0    0.00    0.00   0
;
loop_
_space_group_symop_id
_space_group_symop_operation_xyz
1 x,y,z
2 -x,y,-z
3 -x,-y,-z
4 x,-y,z
5 x+1/2,y+1/2,z
6 -x+1/2,y+1/2,-z
7 -x+1/2,-y+1/2,-z
8 x+1/2,-y+1/2,z
loop_
_atom_site_label
_atom_site_type_symbol
_atom_site_fract_x
_atom_site_fract_y
_atom_site_fract_z
_atom_site_adp_type
_atom_site_U_iso_or_equiv
_atom_site_site_symmetry_multiplicity
_atom_site_occupancy
_atom_site_calc_flag
_atom_site_refinement_flags
_atom_site_disorder_assembly
_atom_site_disorder_group
Co1 Co 0.2582(2) 0 0.2595(3) Uiso 0.0010(5) 4 1 d . . .
Sc1 Sc 0.7534(3) 0 0.2460(4) Uiso 0.0006(6) 4 1 d . . .
Sc2 Sc 0 0.18819(19) 0 Uiso 0.0009(5) 4 1 d . . .
Sc3 Sc 0 0.31127(19) 0.5 Uiso 0.0006(5) 4 1 d . . .
C1 C 0.4180(16) 0.1240(7) 0.0808(17) Uiso 0.0029(12) 8 1 d . . .
C2 C 0.0836(16) 0.1235(7) 0.4210(17) Uiso 0.0029(12) 8 1 d . . .
loop_
_atom_type_symbol
_atom_type_scat_dispersion_real
_atom_type_scat_dispersion_imag
_atom_type_scat_source
C 0.0015 0.0009 'International Tables Vol C tables 4.2.6.8 and 6.1.1.1'
Co 0.3050 0.6296 'International Tables Vol C tables 4.2.6.8 and 6.1.1.1'
Sc 0.1829 0.2348 'International Tables Vol C tables 4.2.6.8 and 6.1.1.1'
loop_
_exptl_crystal_face_index_h
_exptl_crystal_face_index_k
_exptl_crystal_face_index_l
_exptl_crystal_face_perp_dist
0 -5 -6 0.046
8 -5 0 0.036
-1 -5 3 0.026
-2 5 0 0.021
-7 4 1 0.032
-1 -5 1 0.030
7 1 1 0.045
-1 -1 9 0.021
4 2 2 0.038
4 1 -4 0.059
0 -3 -10 0.045
1 1 1 0.036
0 -1 0 0.028
5 -5 -1 0.037
loop_
_geom_angle_atom_site_label_1
_geom_angle_atom_site_label_2
_geom_angle_atom_site_label_3
_geom_angle_site_symmetry_1
_geom_angle_site_symmetry_2
_geom_angle_site_symmetry_3
_geom_angle
_geom_angle_publ_flag
Sc1 Co1 Sc1 1_455 . . 177.00(9) ?
Sc1 Co1 Sc1 1_455 . 2_655 101.74(7) ?
Sc1 Co1 Sc1 1_455 . 2_656 75.70(7) ?
Sc1 Co1 Sc2 1_455 . . 67.24(4) ?
Sc1 Co1 Sc2 1_455 . 3_555 67.24(4) ?
Sc1 Co1 Sc3 1_455 . 5_545 111.85(5) ?
Sc1 Co1 Sc3 1_455 . 7_556 111.85(5) ?
Sc1 Co1 C1 1_455 . . 121.8(2) ?
Sc1 Co1 C1 1_455 . 4_555 121.8(2) ?
Sc1 Co1 C2 1_455 . . 56.0(2) ?
Sc1 Co1 C2 1_455 . 4_555 56.0(2) ?
Sc1 Co1 Sc1 . . 2_655 75.27(7) ?
Sc1 Co1 Sc1 . . 2_656 107.30(7) ?
Sc1 Co1 Sc2 . . . 111.18(5) ?
Sc1 Co1 Sc2 . . 3_555 111.18(5) ?
Sc1 Co1 Sc3 . . 5_545 69.63(4) ?
Sc1 Co1 Sc3 . . 7_556 69.63(4) ?
Sc1 Co1 C1 . . . 56.5(2) ?
Sc1 Co1 C1 . . 4_555 56.5(2) ?
Sc1 Co1 C2 . . . 125.5(2) ?
Sc1 Co1 C2 . . 4_555 125.5(2) ?
Sc1 Co1 Sc1 2_655 . 2_656 177.43(7) ?
Sc1 Co1 Sc2 2_655 . . 67.12(4) ?
Sc1 Co1 Sc2 2_655 . 3_555 67.12(4) ?
Sc1 Co1 Sc3 2_655 . 5_545 111.58(5) ?
Sc1 Co1 Sc3 2_655 . 7_556 111.58(5) ?
Sc1 Co1 C1 2_655 . . 55.4(2) ?
Sc1 Co1 C1 2_655 . 4_555 55.4(2) ?
Sc1 Co1 C2 2_655 . . 122.3(2) ?
Sc1 Co1 C2 2_655 . 4_555 122.3(2) ?
Sc1 Co1 Sc2 2_656 . . 111.54(5) ?
Sc1 Co1 Sc2 2_656 . 3_555 111.54(5) ?
Sc1 Co1 Sc3 2_656 . 5_545 69.70(4) ?
Sc1 Co1 Sc3 2_656 . 7_556 69.70(4) ?
Sc1 Co1 C1 2_656 . . 125.9(2) ?
Sc1 Co1 C1 2_656 . 4_555 125.9(2) ?
Sc1 Co1 C2 2_656 . . 56.3(2) ?
Sc1 Co1 C2 2_656 . 4_555 56.3(2) ?
Sc2 Co1 Sc2 . . 3_555 104.17(6) ?
Sc2 Co1 Sc3 . . 5_545 177.96(6) ?
Sc2 Co1 Sc3 . . 7_556 73.81(4) ?
Sc2 Co1 C1 . . . 54.6(2) ?
Sc2 Co1 C1 . . 4_555 122.5(2) ?
Sc2 Co1 C2 . . . 55.2(2) ?
Sc2 Co1 C2 . . 4_555 123.2(2) ?
Sc2 Co1 Sc3 3_555 . 5_545 73.81(4) ?
Sc2 Co1 Sc3 3_555 . 7_556 177.96(6) ?
Sc2 Co1 C1 3_555 . . 122.5(2) ?
Sc2 Co1 C1 3_555 . 4_555 54.6(2) ?
Sc2 Co1 C2 3_555 . . 123.2(2) ?
Sc2 Co1 C2 3_555 . 4_555 55.2(2) ?
Sc3 Co1 Sc3 5_545 . 7_556 108.21(6) ?
Sc3 Co1 C1 5_545 . . 126.1(2) ?
Sc3 Co1 C1 5_545 . 4_555 56.2(2) ?
Sc3 Co1 C2 5_545 . . 126.0(3) ?
Sc3 Co1 C2 5_545 . 4_555 55.9(2) ?
Sc3 Co1 C1 7_556 . . 56.2(2) ?
Sc3 Co1 C1 7_556 . 4_555 126.1(2) ?
Sc3 Co1 C2 7_556 . . 55.9(2) ?
Sc3 Co1 C2 7_556 . 4_555 126.0(3) ?
C1 Co1 C1 . . 4_555 90.0(4) ?
C1 Co1 C2 . . . 89.8(4) ?
C1 Co1 C2 . . 4_555 177.0(3) ?
C1 Co1 C2 4_555 . . 177.0(3) ?
C1 Co1 C2 4_555 . 4_555 89.8(4) ?
C2 Co1 C2 . . 4_555 90.2(4) ?
Co1 Sc1 Co1 . . 1_655 177.00(10) ?
Co1 Sc1 Co1 . . 2_655 104.73(7) ?
Co1 Sc1 Co1 . . 2_656 72.70(7) ?
Co1 Sc1 Sc1 . . 2_655 52.69(6) ?
Co1 Sc1 Sc1 . . 2_756 125.11(9) ?
Co1 Sc1 Sc2 . . 1_655 123.91(4) ?
Co1 Sc1 Sc2 . . 3_655 123.91(4) ?
Co1 Sc1 Sc3 . . 5_545 55.60(4) ?
Co1 Sc1 Sc3 . . 7_556 55.60(4) ?
Co1 Sc1 C1 . . . 47.5(2) ?
Co1 Sc1 C1 . . 2_655 79.0(2) ?
Co1 Sc1 C1 . . 3_655 79.0(2) ?
Co1 Sc1 C1 . . 4_555 47.5(2) ?
Co1 Sc1 C2 . . 1_655 131.3(2) ?
Co1 Sc1 C2 . . 2_656 99.6(2) ?
Co1 Sc1 C2 . . 3_656 99.6(2) ?
Co1 Sc1 C2 . . 4_655 131.3(2) ?
Co1 Sc1 Co1 1_655 . 2_655 78.26(7) ?
Co1 Sc1 Co1 1_655 . 2_656 104.30(7) ?
Co1 Sc1 Sc1 1_655 . 2_655 130.31(9) ?
Co1 Sc1 Sc1 1_655 . 2_756 51.89(6) ?
Co1 Sc1 Sc2 1_655 . 1_655 57.60(4) ?
Co1 Sc1 Sc2 1_655 . 3_655 57.60(4) ?
Co1 Sc1 Sc3 1_655 . 5_545 122.85(4) ?
Co1 Sc1 Sc3 1_655 . 7_556 122.85(4) ?
Co1 Sc1 C1 1_655 . . 134.0(2) ?
Co1 Sc1 C1 1_655 . 2_655 103.3(2) ?
Co1 Sc1 C1 1_655 . 3_655 103.3(2) ?
Co1 Sc1 C1 1_655 . 4_555 134.0(2) ?
Co1 Sc1 C2 1_655 . 1_655 47.1(2) ?
Co1 Sc1 C2 1_655 . 2_656 78.1(2) ?
Co1 Sc1 C2 1_655 . 3_656 78.1(2) ?
Co1 Sc1 C2 1_655 . 4_655 47.1(2) ?
Co1 Sc1 Co1 2_655 . 2_656 177.43(8) ?
Co1 Sc1 Sc1 2_655 . 2_655 52.05(5) ?
Co1 Sc1 Sc1 2_655 . 2_756 130.15(8) ?
Co1 Sc1 Sc2 2_655 . 1_655 57.52(4) ?
Co1 Sc1 Sc2 2_655 . 3_655 57.52(4) ?
Co1 Sc1 Sc3 2_655 . 5_545 123.04(4) ?
Co1 Sc1 Sc3 2_655 . 7_556 123.04(4) ?
Co1 Sc1 C1 2_655 . . 78.1(2) ?
Co1 Sc1 C1 2_655 . 2_655 47.3(2) ?
Co1 Sc1 C1 2_655 . 3_655 47.3(2) ?
Co1 Sc1 C1 2_655 . 4_555 78.1(2) ?
Co1 Sc1 C2 2_655 . 1_655 103.5(3) ?
Co1 Sc1 C2 2_655 . 2_656 134.0(2) ?
Co1 Sc1 C2 2_655 . 3_656 134.0(2) ?
Co1 Sc1 C2 2_655 . 4_655 103.5(3) ?
Co1 Sc1 Sc1 2_656 . 2_655 125.39(8) ?
Co1 Sc1 Sc1 2_656 . 2_756 52.41(5) ?
Co1 Sc1 Sc2 2_656 . 1_655 123.78(4) ?
Co1 Sc1 Sc2 2_656 . 3_655 123.78(4) ?
Co1 Sc1 Sc3 2_656 . 5_545 55.63(4) ?
Co1 Sc1 Sc3 2_656 . 7_556 55.63(4) ?
Co1 Sc1 C1 2_656 . . 99.9(2) ?
Co1 Sc1 C1 2_656 . 2_655 131.3(2) ?
Co1 Sc1 C1 2_656 . 3_655 131.3(2) ?
Co1 Sc1 C1 2_656 . 4_555 99.9(2) ?
Co1 Sc1 C2 2_656 . 1_655 78.5(3) ?
Co1 Sc1 C2 2_656 . 2_656 47.3(2) ?
Co1 Sc1 C2 2_656 . 3_656 47.3(2) ?
Co1 Sc1 C2 2_656 . 4_655 78.5(3) ?
Sc1 Sc1 Sc1 2_655 . 2_756 177.80(9) ?
Sc1 Sc1 Sc2 2_655 . 1_655 90.76(5) ?
Sc1 Sc1 Sc2 2_655 . 3_655 90.76(5) ?
Sc1 Sc1 Sc3 2_655 . 5_545 89.30(4) ?
Sc1 Sc1 Sc3 2_655 . 7_556 89.30(4) ?
Sc1 Sc1 C1 2_655 . . 43.9(2) ?
Sc1 Sc1 C1 2_655 . 2_655 44.5(2) ?
Sc1 Sc1 C1 2_655 . 3_655 44.5(2) ?
Sc1 Sc1 C1 2_655 . 4_555 43.9(2) ?
Sc1 Sc1 C2 2_655 . 1_655 136.9(2) ?
Sc1 Sc1 C2 2_655 . 2_656 135.0(2) ?
Sc1 Sc1 C2 2_655 . 3_656 135.0(2) ?
Sc1 Sc1 C2 2_655 . 4_655 136.9(2) ?
Sc1 Sc1 Sc2 2_756 . 1_655 90.76(4) ?
Sc1 Sc1 Sc2 2_756 . 3_655 90.76(4) ?
Sc1 Sc1 Sc3 2_756 . 5_545 89.16(5) ?
Sc1 Sc1 Sc3 2_756 . 7_556 89.16(5) ?
Sc1 Sc1 C1 2_756 . . 135.1(2) ?
Sc1 Sc1 C1 2_756 . 2_655 136.4(2) ?
Sc1 Sc1 C1 2_756 . 3_655 136.4(2) ?
Sc1 Sc1 C1 2_756 . 4_555 135.1(2) ?
Sc1 Sc1 C2 2_756 . 1_655 44.0(2) ?
Sc1 Sc1 C2 2_756 . 2_656 44.1(2) ?
Sc1 Sc1 C2 2_756 . 3_656 44.1(2) ?
Sc1 Sc1 C2 2_756 . 4_655 44.0(2) ?
Sc2 Sc1 Sc2 1_655 . 3_655 92.50(7) ?
Sc2 Sc1 Sc3 1_655 . 5_545 179.23(7) ?
Sc2 Sc1 Sc3 1_655 . 7_556 88.27(4) ?
Sc2 Sc1 C1 1_655 . . 76.4(2) ?
Sc2 Sc1 C1 1_655 . 2_655 49.0(2) ?
Sc2 Sc1 C1 1_655 . 3_655 104.8(2) ?
Sc2 Sc1 C1 1_655 . 4_555 132.0(2) ?
Sc2 Sc1 C2 1_655 . 1_655 49.4(2) ?
Sc2 Sc1 C2 1_655 . 2_656 76.4(2) ?
Sc2 Sc1 C2 1_655 . 3_656 132.1(2) ?
Sc2 Sc1 C2 1_655 . 4_655 104.7(2) ?
Sc2 Sc1 Sc3 3_655 . 5_545 88.27(4) ?
Sc2 Sc1 Sc3 3_655 . 7_556 179.23(7) ?
Sc2 Sc1 C1 3_655 . . 132.0(2) ?
Sc2 Sc1 C1 3_655 . 2_655 104.8(2) ?
Sc2 Sc1 C1 3_655 . 3_655 49.0(2) ?
Sc2 Sc1 C1 3_655 . 4_555 76.4(2) ?
Sc2 Sc1 C2 3_655 . 1_655 104.7(2) ?
Sc2 Sc1 C2 3_655 . 2_656 132.1(2) ?
Sc2 Sc1 C2 3_655 . 3_656 76.4(2) ?
Sc2 Sc1 C2 3_655 . 4_655 49.4(2) ?
Sc3 Sc1 Sc3 5_545 . 7_556 90.96(7) ?
Sc3 Sc1 C1 5_545 . . 103.1(2) ?
Sc3 Sc1 C1 5_545 . 2_655 130.9(2) ?
Sc3 Sc1 C1 5_545 . 3_655 75.7(2) ?
Sc3 Sc1 C1 5_545 . 4_555 48.3(2) ?
Sc3 Sc1 C2 5_545 . 1_655 130.3(2) ?
Sc3 Sc1 C2 5_545 . 2_656 103.0(2) ?
Sc3 Sc1 C2 5_545 . 3_656 48.0(2) ?
Sc3 Sc1 C2 5_545 . 4_655 75.8(2) ?
Sc3 Sc1 C1 7_556 . . 48.3(2) ?
Sc3 Sc1 C1 7_556 . 2_655 75.7(2) ?
Sc3 Sc1 C1 7_556 . 3_655 130.9(2) ?
Sc3 Sc1 C1 7_556 . 4_555 103.1(2) ?
Sc3 Sc1 C2 7_556 . 1_655 75.8(2) ?
Sc3 Sc1 C2 7_556 . 2_656 48.0(2) ?
Sc3 Sc1 C2 7_556 . 3_656 103.0(2) ?
Sc3 Sc1 C2 7_556 . 4_655 130.3(2) ?
C1 Sc1 C1 . . 2_655 35.1(3) ?
C1 Sc1 C1 . . 3_655 88.4(3) ?
C1 Sc1 C1 . . 4_555 77.4(3) ?
C1 Sc1 C2 . . 1_655 102.5(3) ?
C1 Sc1 C2 . . 2_656 91.1(3) ?
C1 Sc1 C2 . . 3_656 143.3(4) ?
C1 Sc1 C2 . . 4_655 178.4(4) ?
C1 Sc1 C1 2_655 . 3_655 78.4(3) ?
C1 Sc1 C1 2_655 . 4_555 88.4(3) ?
C1 Sc1 C2 2_655 . 1_655 92.4(3) ?
C1 Sc1 C2 2_655 . 2_656 102.0(3) ?
C1 Sc1 C2 2_655 . 3_656 178.4(4) ?
C1 Sc1 C2 2_655 . 4_655 146.4(4) ?
C1 Sc1 C1 3_655 . 4_555 35.1(3) ?
C1 Sc1 C2 3_655 . 1_655 146.4(4) ?
C1 Sc1 C2 3_655 . 2_656 178.4(4) ?
C1 Sc1 C2 3_655 . 3_656 102.0(3) ?
C1 Sc1 C2 3_655 . 4_655 92.4(3) ?
C1 Sc1 C2 4_555 . 1_655 178.4(4) ?
C1 Sc1 C2 4_555 . 2_656 143.3(4) ?
C1 Sc1 C2 4_555 . 3_656 91.1(3) ?
C1 Sc1 C2 4_555 . 4_655 102.5(3) ?
C2 Sc1 C2 1_655 . 2_656 35.1(3) ?
C2 Sc1 C2 1_655 . 3_656 88.1(3) ?
C2 Sc1 C2 1_655 . 4_655 77.5(3) ?
C2 Sc1 C2 2_656 . 3_656 77.6(3) ?
C2 Sc1 C2 2_656 . 4_655 88.1(3) ?
C2 Sc1 C2 3_656 . 4_655 35.1(3) ?
Co1 Sc2 Co1 . . 2_555 75.83(6) ?
Co1 Sc2 Sc1 . . 1_455 55.16(5) ?
Co1 Sc2 Sc1 . . 2_655 55.36(6) ?
Co1 Sc2 Sc2 . . 7_455 134.59(5) ?
Co1 Sc2 Sc2 . . 7_555 92.41(4) ?
Co1 Sc2 Sc3 . . 1_554 134.77(5) ?
Co1 Sc2 Sc3 . . . 92.10(5) ?
Co1 Sc2 Sc3 . . 7_455 128.02(8) ?
Co1 Sc2 Sc3 . . 7_556 52.19(4) ?
Co1 Sc2 C1 . . . 46.2(2) ?
Co1 Sc2 C1 . . 2_555 100.4(2) ?
Co1 Sc2 C1 . . 7_555 138.74(19) ?
Co1 Sc2 C1 . . 8_455 138.8(2) ?
Co1 Sc2 C2 . . . 45.8(2) ?
Co1 Sc2 C2 . . 2_555 100.7(2) ?
Co1 Sc2 Sc1 2_555 . 1_455 55.36(6) ?
Co1 Sc2 Sc1 2_555 . 2_655 55.16(5) ?
Co1 Sc2 Sc2 2_555 . 7_455 92.41(4) ?
Co1 Sc2 Sc2 2_555 . 7_555 134.59(5) ?
Co1 Sc2 Sc3 2_555 . 1_554 92.10(5) ?
Co1 Sc2 Sc3 2_555 . . 134.77(5) ?
Co1 Sc2 Sc3 2_555 . 7_455 52.19(4) ?
Co1 Sc2 Sc3 2_555 . 7_556 128.02(8) ?
Co1 Sc2 C1 2_555 . . 100.4(2) ?
Co1 Sc2 C1 2_555 . 2_555 46.2(2) ?
Co1 Sc2 C1 2_555 . 7_555 138.8(2) ?
Co1 Sc2 C1 2_555 . 8_455 138.74(19) ?
Co1 Sc2 C2 2_555 . . 100.7(2) ?
Co1 Sc2 C2 2_555 . 2_555 45.8(2) ?
Sc1 Sc2 Sc1 1_455 . 2_655 87.50(7) ?
Sc1 Sc2 Sc2 1_455 . 7_455 81.85(4) ?
Sc1 Sc2 Sc2 1_455 . 7_555 145.39(5) ?
Sc1 Sc2 Sc3 1_455 . 1_554 145.26(5) ?
Sc1 Sc2 Sc3 1_455 . . 81.76(5) ?
Sc1 Sc2 Sc3 1_455 . 7_455 90.08(5) ?
Sc1 Sc2 Sc3 1_455 . 7_556 90.08(5) ?
Sc1 Sc2 C1 1_455 . . 101.3(2) ?
Sc1 Sc2 C1 1_455 . 2_555 48.4(2) ?
Sc1 Sc2 C1 1_455 . 7_555 153.9(2) ?
Sc1 Sc2 C1 1_455 . 8_455 118.6(2) ?
Sc1 Sc2 C2 1_455 . . 48.6(2) ?
Sc1 Sc2 C2 1_455 . 2_555 101.1(2) ?
Sc1 Sc2 Sc2 2_655 . 7_455 145.39(5) ?
Sc1 Sc2 Sc2 2_655 . 7_555 81.85(4) ?
Sc1 Sc2 Sc3 2_655 . 1_554 81.76(5) ?
Sc1 Sc2 Sc3 2_655 . . 145.26(5) ?
Sc1 Sc2 Sc3 2_655 . 7_455 90.08(5) ?
Sc1 Sc2 Sc3 2_655 . 7_556 90.08(5) ?
Sc1 Sc2 C1 2_655 . . 48.4(2) ?
Sc1 Sc2 C1 2_655 . 2_555 101.3(2) ?
Sc1 Sc2 C1 2_655 . 7_555 118.6(2) ?
Sc1 Sc2 C1 2_655 . 8_455 153.9(2) ?
Sc1 Sc2 C2 2_655 . . 101.1(2) ?
Sc1 Sc2 C2 2_655 . 2_555 48.6(2) ?
Sc2 Sc2 Sc2 7_455 . 7_555 123.73(9) ?
Sc2 Sc2 Sc3 7_455 . 1_554 88.49(5) ?
Sc2 Sc2 Sc3 7_455 . . 65.39(3) ?
Sc2 Sc2 Sc3 7_455 . 7_455 57.29(3) ?
Sc2 Sc2 Sc3 7_455 . 7_556 122.58(4) ?
Sc2 Sc2 C1 7_455 . . 166.2(2) ?
Sc2 Sc2 C1 7_455 . 2_555 48.3(2) ?
Sc2 Sc2 C1 7_455 . 7_555 76.2(2) ?
Sc2 Sc2 C1 7_455 . 8_455 48.6(2) ?
Sc2 Sc2 C2 7_455 . . 96.2(2) ?
Sc2 Sc2 C2 7_455 . 2_555 101.4(2) ?
Sc2 Sc2 Sc3 7_555 . 1_554 65.39(3) ?
Sc2 Sc2 Sc3 7_555 . . 88.49(5) ?
Sc2 Sc2 Sc3 7_555 . 7_455 122.58(4) ?
Sc2 Sc2 Sc3 7_555 . 7_556 57.29(3) ?
Sc2 Sc2 C1 7_555 . . 48.3(2) ?
Sc2 Sc2 C1 7_555 . 2_555 166.2(2) ?
Sc2 Sc2 C1 7_555 . 7_555 48.6(2) ?
Sc2 Sc2 C1 7_555 . 8_455 76.2(2) ?
Sc2 Sc2 C2 7_555 . . 101.4(2) ?
Sc2 Sc2 C2 7_555 . 2_555 96.2(2) ?
Sc3 Sc2 Sc3 1_554 . . 123.98(9) ?
Sc3 Sc2 Sc3 1_554 . 7_455 57.20(3) ?
Sc3 Sc2 Sc3 1_554 . 7_556 122.68(4) ?
Sc3 Sc2 C1 1_554 . . 95.9(2) ?
Sc3 Sc2 C1 1_554 . 2_555 101.6(2) ?
Sc3 Sc2 C1 1_554 . 7_555 48.9(2) ?
Sc3 Sc2 C1 1_554 . 8_455 76.3(2) ?
Sc3 Sc2 C2 1_554 . . 166.1(2) ?
Sc3 Sc2 C2 1_554 . 2_555 48.2(2) ?
Sc3 Sc2 Sc3 . . 7_455 122.68(4) ?
Sc3 Sc2 Sc3 . . 7_556 57.20(3) ?
Sc3 Sc2 C1 . . . 101.6(2) ?
Sc3 Sc2 C1 . . 2_555 95.9(2) ?
Sc3 Sc2 C1 . . 7_555 76.3(2) ?
Sc3 Sc2 C1 . . 8_455 48.9(2) ?
Sc3 Sc2 C2 . . . 48.2(2) ?
Sc3 Sc2 C2 . . 2_555 166.1(2) ?
Sc3 Sc2 Sc3 7_455 . 7_556 179.78(9) ?
Sc3 Sc2 C1 7_455 . . 135.5(2) ?
Sc3 Sc2 C1 7_455 . 2_555 44.6(2) ?
Sc3 Sc2 C1 7_455 . 7_555 90.0(2) ?
Sc3 Sc2 C1 7_455 . 8_455 89.8(2) ?
Sc3 Sc2 C2 7_455 . . 135.8(2) ?
Sc3 Sc2 C2 7_455 . 2_555 44.3(2) ?
Sc3 Sc2 C1 7_556 . . 44.6(2) ?
Sc3 Sc2 C1 7_556 . 2_555 135.5(2) ?
Sc3 Sc2 C1 7_556 . 7_555 89.8(2) ?
Sc3 Sc2 C1 7_556 . 8_455 90.0(2) ?
Sc3 Sc2 C2 7_556 . . 44.3(2) ?
Sc3 Sc2 C2 7_556 . 2_555 135.8(2) ?
C1 Sc2 C1 . . 2_555 142.2(3) ?
C1 Sc2 C1 . . 7_555 96.9(3) ?
C1 Sc2 C1 . . 8_455 119.9(3) ?
C1 Sc2 C2 . . . 76.7(3) ?
C1 Sc2 C2 . . 2_555 91.2(3) ?
C1 Sc2 C1 2_555 . 7_555 119.9(3) ?
C1 Sc2 C1 2_555 . 8_455 96.9(3) ?
C1 Sc2 C2 2_555 . . 91.2(3) ?
C1 Sc2 C2 2_555 . 2_555 76.7(3) ?
C1 Sc2 C1 7_555 . 8_455 35.2(3) ?
C1 Sc2 C2 7_555 . . 119.7(3) ?
C1 Sc2 C2 7_555 . 2_555 97.1(3) ?
C1 Sc2 C2 8_455 . . 97.1(3) ?
C1 Sc2 C2 8_455 . 2_555 119.7(3) ?
C2 Sc2 C2 . . 2_555 142.2(3) ?
Co1 Sc3 Co1 5_455 . 6_556 71.79(6) ?
Co1 Sc3 Sc1 5_455 . 5_455 54.77(5) ?
Co1 Sc3 Sc1 5_455 . 6_556 54.67(6) ?
Co1 Sc3 Sc2 5_455 . . 93.72(5) ?
Co1 Sc3 Sc2 5_455 . 1_556 134.11(6) ?
Co1 Sc3 Sc2 5_455 . 7_455 54.00(5) ?
Co1 Sc3 Sc2 5_455 . 7_556 125.78(8) ?
Co1 Sc3 Sc3 5_455 . 7_456 93.50(4) ?
Co1 Sc3 Sc3 5_455 . 7_556 134.25(5) ?
Co1 Sc3 C1 5_455 . 7_556 98.8(2) ?
Co1 Sc3 C1 5_455 . 8_455 47.1(2) ?
Co1 Sc3 C2 5_455 . . 141.0(2) ?
Co1 Sc3 C2 5_455 . 2_556 140.2(2) ?
Co1 Sc3 C2 5_455 . 7_556 98.6(2) ?
Co1 Sc3 C2 5_455 . 8_455 46.8(2) ?
Co1 Sc3 Sc1 6_556 . 5_455 54.67(6) ?
Co1 Sc3 Sc1 6_556 . 6_556 54.77(5) ?
Co1 Sc3 Sc2 6_556 . . 134.11(6) ?
Co1 Sc3 Sc2 6_556 . 1_556 93.72(5) ?
Co1 Sc3 Sc2 6_556 . 7_455 125.78(8) ?
Co1 Sc3 Sc2 6_556 . 7_556 54.00(5) ?
Co1 Sc3 Sc3 6_556 . 7_456 134.25(5) ?
Co1 Sc3 Sc3 6_556 . 7_556 93.50(4) ?
Co1 Sc3 C1 6_556 . 7_556 47.1(2) ?
Co1 Sc3 C1 6_556 . 8_455 98.8(2) ?
Co1 Sc3 C2 6_556 . . 140.2(2) ?
Co1 Sc3 C2 6_556 . 2_556 141.0(2) ?
Co1 Sc3 C2 6_556 . 7_556 46.8(2) ?
Co1 Sc3 C2 6_556 . 8_455 98.6(2) ?
Sc1 Sc3 Sc1 5_455 . 6_556 89.04(7) ?
Sc1 Sc3 Sc2 5_455 . . 81.08(5) ?
Sc1 Sc3 Sc2 5_455 . 1_556 145.57(5) ?
Sc1 Sc3 Sc2 5_455 . 7_455 89.85(5) ?
Sc1 Sc3 Sc2 5_455 . 7_556 90.00(5) ?
Sc1 Sc3 Sc3 5_455 . 7_456 145.42(5) ?
Sc1 Sc3 Sc3 5_455 . 7_556 81.06(4) ?
Sc1 Sc3 C1 5_455 . 7_556 101.7(2) ?
Sc1 Sc3 C1 5_455 . 8_455 48.1(2) ?
Sc1 Sc3 C2 5_455 . . 117.9(2) ?
Sc1 Sc3 C2 5_455 . 2_556 153.0(3) ?
Sc1 Sc3 C2 5_455 . 7_556 47.8(2) ?
Sc1 Sc3 C2 5_455 . 8_455 101.6(2) ?
Sc1 Sc3 Sc2 6_556 . . 145.57(5) ?
Sc1 Sc3 Sc2 6_556 . 1_556 81.08(5) ?
Sc1 Sc3 Sc2 6_556 . 7_455 90.00(5) ?
Sc1 Sc3 Sc2 6_556 . 7_556 89.85(5) ?
Sc1 Sc3 Sc3 6_556 . 7_456 81.06(4) ?
Sc1 Sc3 Sc3 6_556 . 7_556 145.42(5) ?
Sc1 Sc3 C1 6_556 . 7_556 48.1(2) ?
Sc1 Sc3 C1 6_556 . 8_455 101.7(2) ?
Sc1 Sc3 C2 6_556 . . 153.0(3) ?
Sc1 Sc3 C2 6_556 . 2_556 117.9(2) ?
Sc1 Sc3 C2 6_556 . 7_556 101.6(2) ?
Sc1 Sc3 C2 6_556 . 8_455 47.8(2) ?
Sc2 Sc3 Sc2 . . 1_556 123.98(9) ?
Sc2 Sc3 Sc2 . . 7_455 57.32(3) ?
Sc2 Sc3 Sc2 . . 7_556 122.80(4) ?
Sc2 Sc3 Sc3 . . 7_456 88.59(5) ?
Sc2 Sc3 Sc3 . . 7_556 65.46(3) ?
Sc2 Sc3 C1 . . 7_556 166.3(2) ?
Sc2 Sc3 C1 . . 8_455 48.2(2) ?
Sc2 Sc3 C2 . . . 49.1(2) ?
Sc2 Sc3 C2 . . 2_556 76.1(2) ?
Sc2 Sc3 C2 . . 7_556 95.9(2) ?
Sc2 Sc3 C2 . . 8_455 101.9(2) ?
Sc2 Sc3 Sc2 1_556 . 7_455 122.80(4) ?
Sc2 Sc3 Sc2 1_556 . 7_556 57.32(3) ?
Sc2 Sc3 Sc3 1_556 . 7_456 65.46(3) ?
Sc2 Sc3 Sc3 1_556 . 7_556 88.59(5) ?
Sc2 Sc3 C1 1_556 . 7_556 48.2(2) ?
Sc2 Sc3 C1 1_556 . 8_455 166.3(2) ?
Sc2 Sc3 C2 1_556 . . 76.1(2) ?
Sc2 Sc3 C2 1_556 . 2_556 49.1(2) ?
Sc2 Sc3 C2 1_556 . 7_556 101.9(2) ?
Sc2 Sc3 C2 1_556 . 8_455 95.9(2) ?
Sc2 Sc3 Sc2 7_455 . 7_556 179.78(9) ?
Sc2 Sc3 Sc3 7_455 . 7_456 57.35(3) ?
Sc2 Sc3 Sc3 7_455 . 7_556 122.78(4) ?
Sc2 Sc3 C1 7_455 . 7_556 135.5(2) ?
Sc2 Sc3 C1 7_455 . 8_455 44.4(2) ?
Sc2 Sc3 C2 7_455 . . 90.5(2) ?
Sc2 Sc3 C2 7_455 . 2_556 89.7(2) ?
Sc2 Sc3 C2 7_455 . 7_556 135.1(2) ?
Sc2 Sc3 C2 7_455 . 8_455 44.8(2) ?
Sc2 Sc3 Sc3 7_556 . 7_456 122.78(4) ?
Sc2 Sc3 Sc3 7_556 . 7_556 57.35(3) ?
Sc2 Sc3 C1 7_556 . 7_556 44.4(2) ?
Sc2 Sc3 C1 7_556 . 8_455 135.5(2) ?
Sc2 Sc3 C2 7_556 . . 89.7(2) ?
Sc2 Sc3 C2 7_556 . 2_556 90.5(2) ?
Sc2 Sc3 C2 7_556 . 7_556 44.8(2) ?
Sc2 Sc3 C2 7_556 . 8_455 135.1(2) ?
Sc3 Sc3 Sc3 7_456 . 7_556 124.14(9) ?
Sc3 Sc3 C1 7_456 . 7_556 96.0(2) ?
Sc3 Sc3 C1 7_456 . 8_455 101.5(2) ?
Sc3 Sc3 C2 7_456 . . 76.6(2) ?
Sc3 Sc3 C2 7_456 . 2_556 48.6(2) ?
Sc3 Sc3 C2 7_456 . 7_556 166.8(2) ?
Sc3 Sc3 C2 7_456 . 8_455 48.4(2) ?
Sc3 Sc3 C1 7_556 . 7_556 101.5(2) ?
Sc3 Sc3 C1 7_556 . 8_455 96.0(2) ?
Sc3 Sc3 C2 7_556 . . 48.6(2) ?
Sc3 Sc3 C2 7_556 . 2_556 76.6(2) ?
Sc3 Sc3 C2 7_556 . 7_556 48.4(2) ?
Sc3 Sc3 C2 7_556 . 8_455 166.8(2) ?
C1 Sc3 C1 7_556 . 8_455 142.0(3) ?
C1 Sc3 C2 7_556 . . 119.5(3) ?
C1 Sc3 C2 7_556 . 2_556 97.3(3) ?
C1 Sc3 C2 7_556 . 7_556 76.9(3) ?
C1 Sc3 C2 7_556 . 8_455 90.7(3) ?
C1 Sc3 C2 8_455 . . 97.3(3) ?
C1 Sc3 C2 8_455 . 2_556 119.5(3) ?
C1 Sc3 C2 8_455 . 7_556 90.7(3) ?
C1 Sc3 C2 8_455 . 8_455 76.9(3) ?
C2 Sc3 C2 . . 2_556 35.2(4) ?
C2 Sc3 C2 . . 7_556 97.0(3) ?
C2 Sc3 C2 . . 8_455 120.5(3) ?
C2 Sc3 C2 2_556 . 7_556 120.5(3) ?
C2 Sc3 C2 2_556 . 8_455 97.0(3) ?
C2 Sc3 C2 7_556 . 8_455 141.5(3) ?
Co1 C1 Sc1 . . . 76.0(3) ?
Co1 C1 Sc1 . . 2_655 77.3(3) ?
Co1 C1 Sc2 . . . 79.2(3) ?
Co1 C1 Sc2 . . 7_555 152.6(5) ?
Co1 C1 Sc3 . . 7_556 76.7(3) ?
Co1 C1 C1 . . 2_655 134.9(6) ?
Sc1 C1 Sc1 . . 2_655 91.6(3) ?
Sc1 C1 Sc2 . . . 155.1(4) ?
Sc1 C1 Sc2 . . 7_555 120.0(4) ?
Sc1 C1 Sc3 . . 7_556 83.6(3) ?
Sc1 C1 C1 . . 2_655 71.5(5) ?
Sc1 C1 Sc2 2_655 . . 82.7(3) ?
Sc1 C1 Sc2 2_655 . 7_555 121.0(4) ?
Sc1 C1 Sc3 2_655 . 7_556 154.0(4) ?
Sc1 C1 C1 2_655 . 2_655 73.4(5) ?
Sc2 C1 Sc2 . . 7_555 83.1(3) ?
Sc2 C1 Sc3 . . 7_556 91.0(3) ?
Sc2 C1 C1 . . 2_655 128.7(6) ?
Sc2 C1 Sc3 7_555 . 7_556 82.9(3) ?
Sc2 C1 C1 7_555 . 2_655 72.4(5) ?
Sc3 C1 C1 7_556 . 2_655 128.1(6) ?
Co1 C2 Sc1 . . 1_455 77.0(3) ?
Co1 C2 Sc1 . . 2_656 76.4(3) ?
Co1 C2 Sc2 . . . 79.0(3) ?
Co1 C2 Sc3 . . . 152.7(5) ?
Co1 C2 Sc3 . . 7_556 77.2(3) ?
Co1 C2 C2 . . 2_556 134.9(6) ?
Sc1 C2 Sc1 1_455 . 2_656 91.9(3) ?
Sc1 C2 Sc2 1_455 . . 82.0(3) ?
Sc1 C2 Sc3 1_455 . . 120.3(4) ?
Sc1 C2 Sc3 1_455 . 7_556 154.1(5) ?
Sc1 C2 C2 1_455 . 2_556 72.4(5) ?
Sc1 C2 Sc2 2_656 . . 155.3(4) ?
Sc1 C2 Sc3 2_656 . . 120.4(4) ?
Sc1 C2 Sc3 2_656 . 7_556 84.2(3) ?
Sc1 C2 C2 2_656 . 2_556 72.5(5) ?
Sc2 C2 Sc3 . . . 82.7(3) ?
Sc2 C2 Sc3 . . 7_556 90.9(3) ?
Sc2 C2 C2 . . 2_556 127.1(6) ?
Sc3 C2 Sc3 . . 7_556 83.0(3) ?
Sc3 C2 C2 . . 2_556 72.4(5) ?
Sc3 C2 C2 7_556 . 2_556 129.7(6) ?
loop_
_geom_bond_atom_site_label_1
_geom_bond_atom_site_label_2
_geom_bond_site_symmetry_1
_geom_bond_site_symmetry_2
_geom_bond_distance
_geom_bond_publ_flag
Co1 Sc1 . 1_455 2.773(2) ?
Co1 Sc1 . . 2.759(2) ?
Co1 Sc1 . 2_655 2.783(3) ?
Co1 Sc1 . 2_656 2.754(3) ?
Co1 Sc2 . . 2.853(2) ?
Co1 Sc2 . 3_555 2.853(2) ?
Co1 Sc3 . 5_545 2.786(2) ?
Co1 Sc3 . 7_556 2.786(2) ?
Co1 C1 . . 2.097(9) ?
Co1 C1 . 4_555 2.097(9) ?
Co1 C2 . . 2.084(9) ?
Co1 C2 . 4_555 2.084(9) ?
Sc1 Sc1 . 2_655 3.383(2) ?
Sc1 Sc1 . 2_756 3.391(2) ?
Sc1 Sc2 . 1_655 3.116(2) ?
Sc1 Sc2 . 3_655 3.116(2) ?
Sc1 Sc3 . 5_545 3.166(2) ?
Sc1 Sc3 . 7_556 3.166(2) ?
Sc1 C1 . . 2.372(8) ?
Sc1 C1 . 2_655 2.348(8) ?
Sc1 C1 . 3_655 2.348(8) ?
Sc1 C1 . 4_555 2.372(8) ?
Sc1 C2 . 1_655 2.359(8) ?
Sc1 C2 . 2_656 2.358(9) ?
Sc1 C2 . 3_656 2.358(9) ?
Sc1 C2 . 4_655 2.359(8) ?
Sc2 Sc2 . 7_455 3.1355(16) ?
Sc2 Sc2 . 7_555 3.1355(16) ?
Sc2 Sc3 . 1_554 3.1347(16) ?
Sc2 Sc3 . . 3.1347(16) ?
Sc2 Sc3 . 7_455 3.3868(6) ?
Sc2 Sc3 . 7_556 3.3868(6) ?
Sc2 C1 . . 2.369(9) ?
Sc2 C1 . 2_555 2.369(9) ?
Sc2 C1 . 7_555 2.356(9) ?
Sc2 C1 . 8_455 2.356(9) ?
Sc2 C2 . . 2.388(9) ?
Sc2 C2 . 2_555 2.388(9) ?
Sc3 Sc3 . 7_456 3.1295(15) ?
Sc3 Sc3 . 7_556 3.1295(15) ?
Sc3 C1 . 7_556 2.379(9) ?
Sc3 C1 . 8_455 2.379(9) ?
Sc3 C2 . . 2.356(9) ?
Sc3 C2 . 2_556 2.356(9) ?
Sc3 C2 . 7_556 2.366(9) ?
Sc3 C2 . 8_455 2.366(9) ?
C1 C1 . 2_655 1.425(14) ?
C2 C2 . 2_556 1.423(15) ?

_cod_database_fobs_code 2300693
