#------------------------------------------------------------------------------
#$Date: 2017-01-30 17:32:36 +0200 (Mon, 30 Jan 2017) $
#$Revision: 191107 $
#$URL: file:///home/coder/svn-repositories/cod/cif/2/30/01/2300192.cif $
#------------------------------------------------------------------------------
#
# This file is available in the Crystallography Open Database (COD),
# http://www.crystallography.net/. The original data for this entry
# were provided by IUCr Journals, http://journals.iucr.org/.
#
# The file may be used within the scientific community so long as
# proper attribution is given to the journal article from which the
# data were obtained.
#
data_2300192
loop_
_publ_author_name
'Gualtieri, Alessandro F.'
'Ferrari, Simone'
'Leoni, Matteo'
'Grathoff, Georg'
'Hugo, Richard'
'Shatnawi, Mouath'
'Paglia, Gianluca'
'Billinge, Simon'
_publ_section_title
;
 Structural characterization of the clay mineral illite-1M
;
_journal_issue                   2
_journal_name_full               'Journal of Applied Crystallography'
_journal_page_first              402
_journal_page_last               415
_journal_paper_doi               10.1107/S0021889808004202
_journal_volume                  41
_journal_year                    2008
_chemical_formula_sum
'Al2.34 Ca0.02 Fe0.02 H4 K0.78 Mg0.34 Na0.02 O12 On Si3.35'
_space_group_IT_number           12
_symmetry_space_group_name_Hall  '-C 2y'
_symmetry_space_group_name_H-M   'C 1 2/m 1'
_cell_angle_alpha                90
_cell_angle_beta                 100.5
_cell_angle_gamma                90
_cell_length_a                   5.167
_cell_length_b                   8.983
_cell_length_c                   10.010
_cell_volume                     456.800
_cod_data_source_file            db5033.cif
_cod_data_source_block           DIFFAX
_cod_depositor_comments
;
 Adding the _atom_site_type_symbol data item.

 Antanas Vaitkus,
 2017-01-30
;
_cod_original_formula_sum
'K0.78 Ca0.02 Na0.02 Mg0.34 Al2.34 Fe0.02 Si3.35 O10 (OH)2 H2On'
_cod_database_code               2300192
loop_
_symmetry_equiv_pos_as_xyz
x,y,z
1/2+x,1/2+y,z
x,-y,z
1/2+x,1/2-y,z
-x,y,-z
1/2-x,1/2+y,-z
-x,-y,-z
1/2-x,1/2-y,-z
loop_
_atom_site_label
_atom_site_type_symbol
_atom_site_fract_x
_atom_site_fract_y
_atom_site_fract_z
_atom_site_occupancy
Al Al 0.00000 0.33300 0.50000 0.66666
Mg Mg 0.00000 0.33300 0.50000 0.33333
Si Si 0.06700 0.18100 0.22000 0.83000
Al Al 0.06700 0.18100 0.22000 0.17000
K K 0.00000 0.50000 0.00000 0.77000
O1 O -0.01000 0.00000 0.18500 1.00000
O2 O 0.30600 0.23000 0.14400 1.00000
O3 O 0.17400 0.21300 0.38200 1.00000
O4 O 0.11300 0.50000 0.37700 1.00000
Ow O 0.00000 0.50000 0.00000 0.15000
Hw H 0.50000 0.91379 0.94000 0.15000
