#------------------------------------------------------------------------------
#$Date: 2018-07-06 05:20:27 +0300 (Fri, 06 Jul 2018) $
#$Revision: 208877 $
#$URL: file:///home/coder/svn-repositories/cod/cif/2/30/06/2300638.cif $
#------------------------------------------------------------------------------
#
# This file is available in the Crystallography Open Database (COD),
# http://www.crystallography.net/. The original data for this entry
# were provided by IUCr Journals, http://journals.iucr.org/.
#
# The file may be used within the scientific community so long as
# proper attribution is given to the journal article from which the
# data were obtained.
#
data_2300638
loop_
_publ_author_name
'Wang, Yunchen'
'Yang, Taimin'
'Xu, Hongyi'
'Zou, Xiaodong'
'Wan, Wei'
_publ_section_title
;
 On the quality of the continuous rotation electron diffraction data for
 accurate atomic structure determination of inorganic compounds
;
_journal_issue                   4
_journal_name_full               'Journal of Applied Crystallography'
_journal_page_first
;
;
_journal_paper_doi               10.1107/S1600576718007604
_journal_volume                  51
_journal_year                    2018
_chemical_formula_sum            'F Fe O3 Se'
_chemical_formula_weight         201.80
_space_group_crystal_system      monoclinic
_space_group_IT_number           14
_space_group_name_Hall           '-P 2yn'
_space_group_name_H-M_alt        'P 1 21/n 1'
_symmetry_space_group_name_Hall  '-P 2yn'
_symmetry_space_group_name_H-M   'P 1 21/n 1'
_audit_creation_method           SHELXL-2014/7
_cell_angle_alpha                90
_cell_angle_beta                 97.87(3)
_cell_angle_gamma                90
_cell_formula_units_Z            4
_cell_length_a                   4.9560(10)
_cell_length_b                   5.2020(10)
_cell_length_c                   12.040(2)
_cell_measurement_reflns_used    769
_cell_measurement_temperature    293(2)
_cell_measurement_theta_max      0.93
_cell_measurement_theta_min      0.12
_cell_volume                     307.48(10)
_computing_structure_refinement  'SHELXL-2014/7 (Sheldrick, 2014)'
_diffrn_ambient_temperature      293(2)
_diffrn_measured_fraction_theta_full 0.835
_diffrn_measured_fraction_theta_max 0.827
_diffrn_measurement_device_type  'JEOL JEM-2100'
_diffrn_radiation_wavelength     0.0251
_diffrn_reflns_av_R_equivalents  0.3081
_diffrn_reflns_av_unetI/netI     0.2957
_diffrn_reflns_Laue_measured_fraction_full 0.835
_diffrn_reflns_Laue_measured_fraction_max 0.827
_diffrn_reflns_limit_h_max       6
_diffrn_reflns_limit_h_min       -6
_diffrn_reflns_limit_k_max       6
_diffrn_reflns_limit_k_min       -6
_diffrn_reflns_limit_l_max       15
_diffrn_reflns_limit_l_min       -15
_diffrn_reflns_number            1459
_diffrn_reflns_point_group_measured_fraction_full 0.835
_diffrn_reflns_point_group_measured_fraction_max 0.827
_diffrn_reflns_theta_full        0.863
_diffrn_reflns_theta_max         0.933
_diffrn_reflns_theta_min         0.121
_exptl_absorpt_coefficient_mu    0.000
_exptl_crystal_colour            White
_exptl_crystal_density_diffrn    4.359
_exptl_crystal_description       Plate
_exptl_crystal_F_000             88
_refine_diff_density_max         0.511
_refine_diff_density_min         -0.562
_refine_diff_density_rms         0.149
_refine_ls_extinction_coef       9729(77)
_refine_ls_extinction_expression Fc^*^=kFc[1+0.001xFc^2^\l^3^/sin(2\q)]^-1/4^
_refine_ls_extinction_method     'SHELXL-2014/7 (Sheldrick 2014'
_refine_ls_goodness_of_fit_ref   1.409
_refine_ls_hydrogen_treatment    undef
_refine_ls_matrix_type           full
_refine_ls_number_parameters     26
_refine_ls_number_reflns         582
_refine_ls_number_restraints     4
_refine_ls_restrained_S_all      1.404
_refine_ls_R_factor_all          0.2676
_refine_ls_R_factor_gt           0.2230
_refine_ls_shift/su_max          2.478
_refine_ls_shift/su_mean         0.154
_refine_ls_structure_factor_coef Fsqd
_refine_ls_weighting_details
'w=1/[\s^2^(Fo^2^)+(0.2000P)^2^] where P=(Fo^2^+2Fc^2^)/3'
_refine_ls_weighting_scheme      calc
_refine_ls_wR_factor_gt          0.4826
_refine_ls_wR_factor_ref         0.5322
_reflns_Friedel_coverage         0.000
_reflns_number_gt                394
_reflns_number_total             582
_reflns_threshold_expression     'I > 2\s(I)'
_cod_data_source_file            kc5069sup1.cif
_cod_data_source_block           dataset5
_cod_original_cell_volume        307.48(11)
_cod_database_code               2300638
_shelx_shelxl_version_number     2014/7
_shelx_space_group_comment
;
The symmetry employed for this shelxl refinement is uniquely defined
by the following loop, which should always be used as a source of
symmetry information in preference to the above space-group names.
They are only intended as comments.
;
_shelx_res_file
;

    2.res created by SHELXL-2014/7


TITL 2 in P2(1)/n
CELL 0.0251   4.9560   5.2020  12.0400  90.000  97.870  90.000
ZERR    4.00   0.0010   0.0010   0.0024   0.000   0.030   0.000
LATT  1
SYMM 0.5-X, 0.5+Y, 0.5-Z
SFAC O      0.45480  23.78030   0.91730   7.62200   0.47190   2.14400 =
            0.13840   0.29590   0.00000   0.000   0.000   0.000   0.730  15.999
SFAC F      0.36860  20.23900   0.81090   6.60930   0.47510   1.93100 =
            0.14590   0.27930   0.00000   0.000   0.000   0.000   0.720  18.998
SFAC FE     2.54400  64.42439   2.34340  14.88060   1.75880   2.85390 =
            0.50620   0.35020   0.00000   0.000   0.000   0.000   1.170  55.847
SFAC SE     1.02041   0.85673   1.56993   4.20859   3.02495  16.80800 =
            1.44175  48.63000   0.00000   0.000   0.000   0.000   1.160  78.960
UNIT 12 4 4 4
LIST 6 ! automatically inserted. Change 6 to 4 for CHECKCIF!!

L.S. 16
BOND
FMAP 2
PLAN 20
ACTA
XNPD 0.001
SIMU 0.001 0.002 4 O1 O2 O3 F1
WGHT    0.200000
EXTI 9728.773438
FVAR       2.19267
SE1   4    0.518602    0.357764    0.334154    11.00000    0.00100
FE1   3    0.458088    0.257450    0.073081    11.00000    0.00100
O1    1    0.323599    0.625154    0.345544    11.00000    0.00230
O2    1    0.796041    0.430949    0.419471    11.00000    0.00222
O3    1    0.619887    0.423719    0.209605    11.00000    0.00248
F1    2    0.271429    0.571363    0.010505    11.00000    0.00277

HKLF 4

REM  2 in P2(1)/n
REM R1 =  0.2230 for     394 Fo > 4sig(Fo)  and  0.2676 for all     582 data
REM     26 parameters refined using      4 restraints

END

WGHT      0.1786      2.4437

REM Highest difference peak  0.511,  deepest hole -0.562,  1-sigma level  0.149
Q1    1   0.2809  0.4191  0.0617  11.00000  0.05    0.51
Q2    1   0.1416  0.3742  0.3775  11.00000  0.05    0.47
Q3    1   0.1410  0.7841 -0.0340  11.00000  0.05    0.46
Q4    1   0.2513  0.3546  0.3614  11.00000  0.05    0.43
Q5    1   0.5010  0.2023  0.1604  11.00000  0.05    0.41
Q6    1   0.0220  0.7484 -0.0193  11.00000  0.05    0.41
Q7    1   0.7583  0.5838  0.4130  11.00000  0.05    0.40
Q8    1   0.6898  0.2546  0.1245  11.00000  0.05    0.39
Q9    1   0.2349  0.5908  0.1184  11.00000  0.05    0.37
Q10   1   0.1842  0.2358  0.3222  11.00000  0.05    0.35
Q11   1   0.3277  0.7601  0.3858  11.00000  0.05    0.34
Q12   1   0.4284  0.9688  0.3025  11.00000  0.05    0.34
Q13   1   0.4972 -0.0024  0.2930  11.00000  0.05    0.34
Q14   1   0.7886  0.3647  0.2975  11.00000  0.05    0.33
Q15   1   0.7144  0.5628  0.3177  11.00000  0.05    0.33
Q16   1   0.6111  0.2564  0.3428  11.00000  0.05    0.32
Q17   1   0.5800  0.6442  0.3588  11.00000  0.05    0.30
Q18   1   0.3135  0.1644  0.3135  11.00000  0.05    0.30
Q19   1   0.8658  0.3184  0.3636  11.00000  0.05    0.30
Q20   1   0.9288  0.3323  0.3786  11.00000  0.05    0.29
;
_shelx_res_checksum              56451
_shelx_hkl_file
;
   0   0   2   28.50    9.46
   0   0   3    3.95    6.92
   0   0  -4  376.36   86.57
   0   0   4  434.34   99.64
   0   0  -5    6.29    7.36
   0   0   5   10.75    8.65
   0   0  -6  220.70   52.48
   0   0   6  232.92   55.33
   0   0  -7   10.54    8.01
   0   0   7   16.45    9.57
   0   0  -8  776.63  178.14
   0   0   8  681.89  156.91
   0   0  -9   14.23    9.02
   0   0   9   28.68   12.17
   0   0 -10   31.01   12.67
   0   0  10   44.40   15.76
   0   0 -11    8.49    8.76
   0   0  11   45.49   16.19
   0   0 -12  528.37  123.73
   0   0  12  369.31   88.03
   0   0 -13   11.53    8.32
   0   0  13   32.11   13.10
   0   0 -14  238.89   59.26
   0   0  14  206.33   52.00
   0   0 -15   10.27    8.03
   0   0  15   20.02   10.76
   0  -1   1  193.13   47.30
   0  -1   0    3.00   10.65
   0  -1  -1  254.24   61.13
   0  -1  -2  127.03   33.15
   0  -1  -3  597.50  138.45
   0   1   3  620.43  143.53
   0   1   4  837.64  192.69
   0   1   5  316.50   75.82
   0  -1  -6  189.92   47.70
   0   1   6  148.26   38.44
   0  -1  -7   87.52   25.13
   0   1   7   94.65   26.70
   0  -1  -8  537.91  126.41
   0   1   8  588.67  137.82
   0  -1  -9  657.98  153.79
   0   1   9  654.42  152.99
   0  -1 -10   82.67   25.24
   0   1  10   50.92   18.32
   0  -1 -11  104.73   30.09
   0   1  11   18.48   11.31
   0  -1 -12  195.27   50.48
   0   1  12  177.25   46.41
   0  -1 -13   97.86   28.74
   0   1  13   60.85   20.38
   0  -1 -14  114.99   32.86
   0   1  14  241.39   61.49
   0  -1 -15   77.81   24.68
   0   1  15  151.56   41.55
   0   2  -8   -0.10   10.22
   0  -2   7    0.09   10.17
   0   2  -7   42.86   16.70
   0  -2   6   35.28   15.67
   0   2  -6   25.03   12.96
   0  -2   3   25.64   14.59
   0   2  -3   62.41   21.64
   0  -2   2  114.63   32.71
   0   2  -2  104.73   30.71
   0  -2   1  637.11  149.24
   0   2  -1  695.18  162.36
   0  -2   0  400.45   96.25
   0   2   0  433.01  103.57
   0  -2  -1  674.22  157.98
   0   2   1  714.45  167.08
   0  -2  -2  156.82   42.48
   0   2   2  160.57   43.31
   0  -2  -3   48.83   19.79
   0  -2  -4  376.36   91.62
   0  -2  -5   89.21   27.77
   0   2   5  285.55   71.43
   0  -2  -6  104.73   31.19
   0   2   6   69.29   23.48
   0   2   7  249.15   63.65
   0   2   8  107.94   32.44
   0  -2  -9  206.24   54.73
   0   2   9  205.26   54.42
   0  -2 -10   88.56   28.64
   0   2  10  119.63   35.41
   0  -2 -11  283.41   72.27
   0   2  11  139.96   39.89
   0  -2 -12   74.44   25.07
   0   2  12  166.28   45.95
   0  -2 -13   92.60   29.27
   0   2  13   51.94   19.82
   0  -2 -14   25.12   13.42
   0   2  14   14.18   10.54
   0   3 -12   -0.25    7.37
   0  -3  11    0.14    8.15
   0   3 -11    2.66    8.23
   0  -3  10   21.68   13.36
   0   3 -10  101.61   30.57
   0  -3   9   29.87   16.28
   0   3  -9   49.31   19.39
   0   3  -8    9.95   12.57
   0  -3   6   14.63   12.39
   0  -3   5  129.80   37.29
   0   3  -5  102.05   31.24
   0  -3   4  341.48   84.88
   0   3  -4  516.59  124.26
   0  -3   3  345.23   85.96
   0   3  -3  687.15  162.80
   0  -3   2  500.18  120.96
   0   3  -2  571.72  137.02
   0  -3   1  179.93   49.33
   0   3  -1  192.24   52.06
   0  -3   0    2.11   11.57
   0   3   0    1.77   11.71
   0  -3  -1  215.52   57.53
   0   3   1  229.35   60.70
   0  -3  -2  636.57  152.28
   0   3   2  614.36  147.37
   0  -3  -3  583.68  140.59
   0   3   3  684.75  163.34
   0  -3  -4  748.17  177.79
   0   3   4  746.57  177.43
   0  -3  -5  379.66   95.00
   0   3   5  376.54   94.29
   0  -3  -6  109.55   34.58
   0  -3  -7  488.67  120.07
   0  -3  -8   43.68   20.67
   0   3   8   39.16   19.53
   0   3   9  376.54   95.27
   0   3  10  410.26  103.03
   0   3  11   88.07   29.98
   0  -3 -12   17.21   12.69
   0   3  12   18.09   12.99
   0  -3 -13   42.70   19.32
   0   3  13   65.34   24.72
   0   4 -12    2.15    7.62
   0   4 -11   15.33   11.41
   0   4 -10   13.46   10.86
   0  -4   8    8.56   10.63
   0  -4   7   13.00   12.67
   0   4  -7   26.74   15.95
   0  -4   6  179.30   50.80
   0   4  -6  357.81   90.99
   0  -4   5  118.73   37.64
   0   4  -5   74.72   28.16
   0  -4   4   52.29   23.32
   0   4  -4   24.25   17.72
   0  -4   3    9.88   14.33
   0   4  -3   11.12   14.64
   0  -4   2  271.01   72.01
   0   4  -2  218.91   60.41
   0  -4   1   35.87   19.60
   0   4  -1   12.11   14.72
   0  -4   0  213.47   59.34
   0   4   0  246.92   66.85
   0  -4  -1    7.48   13.34
   0   4   1    9.56   14.15
   0  -4  -2  350.67   90.54
   0   4   2  342.91   88.88
   0  -4  -3    7.50   14.14
   0   4   3   23.51   17.76
   0  -4  -4   44.92   22.42
   0   4   4   36.91   20.83
   0  -4  -5  112.94   37.86
   0   4   5  154.33   47.15
   0  -4  -6  751.65  181.71
   0   4   6  921.50  219.89
   0  -4  -7  182.96   53.43
   0   4   7   29.59   18.12
   0  -4  -8   91.35   32.28
   0  -4  -9   92.60   32.56
   0  -4 -10   81.70   30.00
   0   4  10  320.96   85.04
   0  -4 -11   33.21   18.02
   0   4  11   20.62   14.67
   0   5 -10   48.91   21.29
   0   5  -9   18.72   13.46
   0  -5   8    3.90    8.92
   0   5  -8    9.62   11.17
   0  -5   7    3.88    9.29
   0   5  -7   29.83   17.14
   0  -5   6   26.86   16.44
   0   5  -6   31.19   17.82
   0  -5   5   73.89   28.38
   0   5  -5   66.71   26.76
   0  -5   4   26.27   17.15
   0   5  -4   27.27   17.35
   0  -5   3   91.79   33.06
   0   5  -3  115.52   38.62
   0  -5   2  378.50   98.48
   0   5  -2  427.92  109.63
   0  -5   1   20.34   16.68
   0   5  -1   19.38   16.58
   0  -5   0    2.03   12.14
   0   5   0    3.72   12.45
   0  -5  -1    8.00   13.43
   0   5   1   14.36   15.34
   0  -5  -2  318.38   85.52
   0   5   2  347.81   92.24
   0  -5  -3  133.54   43.51
   0   5   3  120.87   40.69
   0  -5  -4   32.77   19.44
   0   5   4   37.61   20.77
   0  -5  -5   54.12   24.67
   0   5   5   67.20   27.92
   0  -5  -6   29.68   18.37
   0   5   6   23.40   16.69
   0  -5  -7   21.04   15.95
   0   5   7   24.18   16.76
   0  -5  -8   24.18   16.85
   0   5   8   33.65   19.33
   0  -5  -9   98.31   35.67
   0   5   9   74.16   29.79
   0   5  10  249.15   70.96
   0   6  -7   24.94   17.07
   0   6  -6  190.19   57.14
   0  -6   5   41.95   21.67
   0   6  -5   54.54   24.99
   0  -6   4   21.25   16.19
   0   6  -4   38.88   21.05
   0  -6   3   42.98   22.24
   0   6  -3    5.77   11.78
   0  -6   2  120.52   41.40
   0   6  -2  123.91   42.23
   0  -6   1    2.96   10.45
   0   6  -1   11.78   13.54
   0  -6   0  235.59   68.31
   0   6   0  175.83   54.53
   0  -6  -1    9.63   12.81
   0   6   1    5.25   11.43
   0  -6  -2  110.08   39.32
   0   6   2  116.59   40.92
   0  -6  -3   16.86   15.45
   0   6   3    7.15   12.44
   0  -6  -4   48.10   24.18
   0   6   4   34.93   20.74
   0  -6  -5   48.16   24.33
   0   6   5   76.07   31.48
   0  -6  -6  188.94   58.51
   0   6   6  217.31   65.09
   0  -6  -7   45.38   23.77
   0   6   7   55.75   26.53
  -1   6   7   97.15   37.02
   1  -6  -7   80.37   32.86
  -1   6   6   23.10   17.37
   1  -6  -6   46.76   24.07
  -1   6   5   16.16   15.15
   1  -6  -5   59.78   27.34
  -1   6   4  101.16   37.59
   1  -6  -4  109.01   39.44
  -1   6   3  102.68   37.77
   1  -6  -3  108.83   39.22
  -1   6   2   48.43   24.18
   1  -6  -2   39.33   21.62
  -1   6   1  381.36  101.78
   1  -6  -1  200.54   60.39
  -1   6   0   16.87   15.14
   1  -6   0   10.68   13.12
  -1   6  -1  143.80   46.90
   1  -6   1  190.72   57.79
  -1   6  -2   96.88   35.60
   1  -6   2  191.08   57.65
  -1   6  -3   36.75   20.33
   1  -6   3   12.01   12.93
  -1   6  -4   11.54   13.04
   1  -6   4   25.23   16.91
  -1   6  -5   18.94   15.09
  -1   6  -6   11.47   12.46
  -1   5  10    7.65   11.78
  -1   5   9  164.14   51.55
   1  -5  -9   86.15   33.05
  -1   5   8   12.79   13.80
   1  -5  -8   22.93   16.74
  -1   5   7  350.22   93.85
   1  -5  -7  352.01   94.29
  -1   5   6   90.37   33.81
   1  -5  -6  144.60   46.55
  -1   5   5   35.64   20.09
   1  -5  -5   43.32   22.03
  -1   5   4   31.56   19.17
   1  -5  -4   37.29   20.59
  -1   5   3  162.53   50.27
   1  -5  -3  154.59   48.36
  -1   5   2   39.91   21.32
   1  -5  -2   36.54   20.41
  -1   5   1  152.19   47.54
   1  -5  -1  117.48   39.52
  -1   5   0   48.69   23.26
   1  -5   0   37.98   20.54
  -1   5  -1   30.27   18.47
   1  -5   1  154.59   47.66
  -1   5  -2   97.86   34.29
   1  -5   2   85.58   31.48
  -1   5  -3   87.11   31.60
   1  -5   3   32.17   18.28
  -1   5  -4   37.08   19.37
   1  -5   4   14.53   13.41
  -1   5  -5  741.30  179.48
   1  -5   5  683.05  166.37
  -1   5  -6   28.76   16.58
   1  -5   6  118.29   38.03
  -1   5  -7    6.30    9.86
   1  -5   7    4.36    8.97
  -1   5  -8    8.58   10.31
  -1   4  12   31.23   18.10
   1  -4 -11   49.69   22.79
   1  -4 -10  179.57   53.43
  -1   4   9  234.97   65.92
   1  -4  -9  174.13   52.14
  -1   4   8   30.33   18.14
   1  -4  -8  225.60   63.69
  -1   4   7   67.34   27.52
   1  -4  -7   18.40   15.68
  -1   4   6   40.07   21.49
   1  -4  -6   20.71   16.79
  -1   4   5  161.82   49.13
   1  -4  -5  209.72   59.87
  -1   4   4  239.96   66.49
   1  -4  -4  267.80   72.71
  -1   4   3  291.44   77.77
   1  -4  -3  224.09   62.59
  -1   4   2   17.71   15.97
   1  -4  -2   15.55   15.31
  -1   4   1  438.72  110.35
   1  -4  -1  613.02  149.60
  -1   4   0  524.53  129.44
   1  -4   0  342.28   88.36
  -1   4  -1  624.62  151.74
   1  -4   1  519.80  128.10
  -1   4  -2  439.43  109.81
   1  -4   2  352.72   90.19
  -1   4  -3  290.54   76.08
   1  -4   3  215.88   59.31
  -1   4  -4   21.90   16.24
   1  -4   4   26.00   16.79
  -1   4  -5   48.58   21.47
   1  -4   5   15.66   14.10
  -1   4  -6   14.34   12.93
   1  -4   6  142.37   41.79
  -1   4  -9  618.55  148.44
   1  -4   9  603.57  145.14
  -1   4 -10   40.11   17.21
   1  -4  10   10.83   10.30
  -1   4 -11   24.86   13.22
  -1   3  13  103.93   34.72
  -1   3  12  108.39   35.57
  -1   3  11  102.94   34.16
  -1   3  10  118.29   37.64
   1  -3 -10  120.16   38.06
   1  -3  -9   35.04   18.48
   1  -3  -8   56.25   23.84
   1  -3  -7  119.71   37.89
  -1   3   6  287.33   75.20
   1  -3  -6  281.89   73.96
  -1   3   5  870.38  206.16
   1  -3  -5  633.45  152.81
  -1   3   4  301.52   77.80
   1  -3  -4  148.35   43.39
  -1   3   3 1000.00  234.79
   1  -3  -3  925.96  218.11
  -1   3   2  111.78   34.84
   1  -3  -2  114.54   35.45
  -1   3   1   30.44   16.87
   1  -3  -1   54.28   21.94
  -1   3   0  617.04  147.73
   1  -3   0  486.71  118.38
  -1   3  -1   66.29   24.00
   1  -3   1   98.39   30.96
  -1   3  -2  241.75   62.71
   1  -3   2  315.17   79.18
  -1   3  -3  405.80   99.29
   1  -3   3  351.47   87.05
  -1   3  -4  408.39   99.64
   1  -3   4  297.41   74.62
  -1   3  -7   71.24   23.77
   1  -3   7   60.62   21.57
  -1   3  -8  108.21   31.45
   1  -3   8  105.89   31.12
  -1   3  -9  336.84   82.42
   1  -3   9  247.01   62.26
  -1   3 -10   77.38   23.74
   1  -3  10  278.06   68.97
  -1   3 -11   89.92   26.36
   1  -3  11   92.24   26.85
  -1   3 -12   95.90   27.50
   1  -3  12   67.51   21.05
  -1   3 -13   14.55    8.66
  -1   2  14  163.43   47.23
   1  -2 -14  368.69   93.67
  -1   2  13  247.55   66.00
   1  -2 -13  122.75   37.55
  -1   2  12   96.34   31.29
   1  -2 -12  177.52   49.78
  -1   2  11   92.77   30.43
   1  -2 -11   50.87   20.81
  -1   2  10  183.94   51.05
  -1   2   9  102.14   32.57
  -1   2   8  309.72   78.67
   1  -2  -8  454.95  111.33
  -1   2   7  198.48   53.31
   1  -2  -7  309.19   78.19
   1  -2  -6   72.93   25.18
   1  -2  -5  587.87  140.32
  -1   2   4  537.02  128.55
   1  -2  -4  468.87  113.29
  -1   2   3   42.37   18.82
   1  -2  -3  123.73   36.00
  -1   2   2  409.72   99.38
   1  -2  -2  373.86   91.35
  -1   2   1  109.19   32.32
   1  -2  -1   81.77   26.35
  -1   2   0  665.03  156.11
   1  -2   0  655.49  153.97
  -1   2  -1  597.15  140.50
   1  -2   1  595.90  140.23
  -1   2  -2  297.50   72.95
   1  -2   2  475.38  112.85
  -1   2  -5  145.67   37.76
   1  -2   5  129.17   34.14
  -1   2  -6  202.50   50.17
   1  -2   6  232.03   56.82
  -1   2  -7  379.22   89.65
   1  -2   7  350.94   83.30
  -1   2  -8  352.63   83.51
   1  -2   8  336.57   79.93
  -1   2  -9  224.35   54.56
   1  -2   9  169.94   42.49
  -1   2 -10  127.83   32.68
   1  -2  10   85.91   23.42
  -1   2 -11   36.38   12.04
   1  -2  11    9.35    6.76
  -1   2 -12    9.31    6.11
   1  -2  12    1.28    5.35
  -1   2 -13   13.52    7.17
  -1   1  15   56.58   21.27
   1  -1 -15   37.20   16.64
  -1   1  14   39.47   17.06
   1  -1 -14   32.73   15.42
  -1   1  13  123.02   36.12
   1  -1 -13  100.54   31.00
  -1   1  12   32.79   15.75
   1  -1 -12   15.13   11.73
  -1   1  11  452.90  110.08
   1  -1 -11  480.46  116.33
  -1   1  10   13.75   12.95
   1  -1 -10    7.51   11.86
  -1   1   9  662.00  156.47
   1  -1  -9  716.59  168.78
  -1   1   8   56.73   20.76
  -1   1   7  178.59   47.24
  -1   1   6  500.54  119.18
   1  -1  -6  402.23   97.06
  -1   1   5  171.90   45.61
   1  -1  -5  120.34   34.38
   1  -1  -4  589.12  138.36
   1  -1  -3  463.43  109.81
   1  -1  -2  487.42  114.90
  -1   1   1  709.28  164.32
   1  -1  -1  662.00  153.70
  -1   1   0  446.83  105.00
   1  -1   0  494.56  115.70
   1  -1   1  497.23  115.79
  -1   1  -3  726.94  166.55
   1  -1   3  679.57  155.93
  -1   1  -4  218.29   51.81
   1  -1   4  239.07   56.48
  -1   1  -5  333.90   77.32
   1  -1   5  368.06   85.00
  -1   1  -6  486.62  111.33
   1  -1   6  409.63   94.02
  -1   1  -7  280.82   64.67
  -1   1  -8   47.06   12.15
  -1   0  15  316.68   79.42
   1   0 -15  216.77   56.83
  -1   0  14   14.46   10.98
   1   0 -14   22.24   12.40
  -1   0  13    8.38    9.81
   1   0 -13    8.97    9.40
  -1   0  12    6.15   10.07
   1   0 -12   28.89   14.14
   1   0 -11    4.20   10.47
   1   0 -10   12.80   12.28
   1   0  -9   12.01   11.81
  -1   0  -6    0.63    5.97
   1   0   6   51.02   14.03
  -1   0  -7  307.49   70.95
   1   0   7  732.38  166.64
  -1   0  -8   18.45    7.25
   1   0   8   44.65   12.48
  -1   0  -9  615.25  140.68
   1   0   9  634.17  144.87
  -1   0 -10  125.51   30.84
   1   0  10   44.90   13.10
  -1   0 -11   49.24   14.14
   1   0  11   42.14   12.53
  -1   0 -12   41.19   12.42
   1   0  12   58.48   16.24
  -1   0 -13   66.42   18.26
   1   0  13   63.42   17.59
  -1   0 -14   30.04   10.50
   1   0  14   28.56   10.16
  -1  -1  -2    0.51   13.33
   1   1   2    0.76   13.60
   1   1   3  152.01   39.97
   1   1   4   97.15   27.61
  -1  -1  -5   50.35   17.40
   1   1   5  153.97   39.63
  -1  -1  -6  292.33   70.34
   1   1   6  313.65   75.17
  -1  -1  -7  325.87   77.93
   1   1   7  268.60   65.10
  -1  -1  -8   45.92   16.05
   1   1   8   69.29   20.93
  -1  -1  -9   42.87   15.70
   1   1   9   70.27   21.46
  -1  -1 -10  137.20   36.33
   1   1  10  135.42   35.83
  -1  -1 -11  436.75  103.66
   1   1  11  422.30  100.36
  -1  -1 -12   98.31   27.58
   1   1  12  184.21   46.94
  -1  -1 -13   18.97    9.72
   1   1  13   75.47   22.61
  -1  -1 -14   35.30   13.62
   1   1  14   48.85   16.74
  -1  -2   2   -0.09   16.37
   1   2  -2    0.91   16.50
  -1  -2   1    1.36   15.54
   1   2  -1   31.29   19.93
  -1  -2   0  126.41   37.54
   1   2   0  196.70   52.67
  -1  -2  -1  221.05   57.48
   1   2   1  348.89   85.92
  -1  -2  -2   80.10   26.81
  -1  -2  -3   75.24   25.50
  -1  -2  -4   69.17   23.71
   1   2   4  218.38   56.58
   1   2   5  138.27   38.80
   1   2   6  136.40   38.23
  -1  -2  -7  294.20   73.62
   1   2   7  371.10   90.90
  -1  -2  -8  359.77   88.58
   1   2   8  425.60  103.39
  -1  -2  -9  324.44   80.80
   1   2   9  222.84   58.03
  -1  -2 -10  244.07   62.71
   1   2  10  155.22   42.77
  -1  -2 -11  105.17   31.45
   1   2  11  127.30   36.36
  -1  -2 -12   15.30   10.69
   1   2  12   16.44   10.64
  -1  -2 -13   22.20   12.17
   1   2  13   16.19   10.68
  -1  -2 -14   24.41   12.79
   1   2  14   25.85   13.27
  -1  -3   6   -0.13   13.78
   1   3  -6   -0.38   14.01
  -1  -3   5   -0.32   13.42
   1   3  -5  138.36   41.16
  -1  -3   4    6.41   14.27
   1   3  -4   45.32   21.46
  -1  -3   3   73.14   27.26
   1   3  -3  296.25   76.03
  -1  -3   2    7.16   13.57
   1   3  -2   10.69   14.48
  -1  -3   1    1.47   12.61
   1   3  -1    9.04   13.64
  -1  -3   0  111.51   34.93
   1   3   0  292.33   75.21
  -1  -3  -1   10.35   13.43
   1   3   1   25.82   16.67
  -1  -3  -2   38.39   18.89
   1   3   2  114.27   35.57
  -1  -3  -3  119.36   36.66
   1   3   3  428.90  106.07
  -1  -3  -4  106.33   33.86
  -1  -3  -5   65.42   25.07
  -1  -3  -6  381.71   95.81
  -1  -3  -7   62.45   24.74
   1   3   7   80.31   28.83
   1   3   8   90.72   30.83
   1   3   9  330.78   84.64
  -1  -3 -10  105.00   33.45
   1   3  10   93.49   30.84
  -1  -3 -11  219.00   59.53
   1   3  11  195.63   54.20
  -1  -3 -12  413.74  103.75
   1   3  12  218.73   59.61
   1   3  13   33.38   16.57
   1   4 -10   -0.39    9.45
  -1  -4   9    0.00   10.00
   1   4  -9   18.65   14.71
  -1  -4   8   -0.51   11.29
   1   4  -8    2.55   11.61
  -1  -4   7    0.32   12.36
   1   4  -7   13.26   15.33
  -1  -4   6   49.47   23.90
   1   4  -6  170.74   50.06
  -1  -4   5    9.21   15.32
   1   4  -5   25.18   18.82
  -1  -4   4   79.45   30.23
   1   4  -4   95.36   33.89
  -1  -4   3   77.40   29.51
   1   4  -3  126.49   40.51
  -1  -4   2    0.36   12.79
   1   4  -2    2.44   13.54
  -1  -4   1   74.78   28.82
   1   4  -1  160.57   48.08
  -1  -4   0   78.85   29.72
   1   4   0  104.64   35.66
  -1  -4  -1  110.62   36.95
   1   4   1  349.15   90.63
  -1  -4  -2  116.41   38.47
   1   4   2  339.79   88.65
  -1  -4  -3  129.08   41.53
   1   4   3  185.55   54.31
  -1  -4  -4    6.37   14.77
   1   4   4   25.22   19.23
  -1  -4  -5   35.40   20.75
   1   4   5   33.35   20.30
  -1  -4  -6   23.76   17.09
   1   4   6   14.17   15.10
  -1  -4  -7   12.46   13.36
  -1  -4  -8   46.34   21.58
  -1  -4  -9  517.57  129.26
   1   4   9  586.71  144.87
  -1  -4 -10   45.61   21.19
   1   4  10   58.66   24.49
   1   4  11   35.67   18.64
   1   5 -10   12.23   13.03
   1   5  -9   34.88   18.74
  -1  -5   8    0.26    8.49
   1   5  -8   16.41   13.99
  -1  -5   7  114.27   38.07
   1   5  -7  134.17   42.79
  -1  -5   6   12.09   13.06
   1   5  -6   21.12   15.50
  -1  -5   5   10.29   12.61
   1   5  -5    7.67   11.92
  -1  -5   4    1.11   10.22
   1   5  -4    7.27   12.27
  -1  -5   3   15.66   14.90
   1   5  -3   68.03   27.98
  -1  -5   2   13.21   14.44
   1   5  -2    5.12   12.58
  -1  -5   1    2.88   11.86
   1   5  -1   14.67   15.41
  -1  -5   0   14.62   15.19
   1   5   0   55.55   25.63
  -1  -5  -1   17.77   16.11
   1   5   1   24.50   18.24
  -1  -5  -2   54.18   25.08
   1   5   2   43.58   22.74
  -1  -5  -3   67.83   28.25
   1   5   3   96.34   35.12
  -1  -5  -4   25.87   17.90
   1   5   4   65.24   27.64
  -1  -5  -5  381.71  100.45
   1   5   5  450.85  116.06
  -1  -5  -6  120.79   40.71
   1   5   6  105.98   37.31
  -1  -5  -7   16.32   14.38
   1   5   7    5.75   10.94
  -1  -5  -8    4.06   10.32
   1   5   8   14.58   13.70
   1   5   9   14.25   13.86
   1   6  -7   51.66   24.26
  -1  -6   6    0.27    8.35
   1   6  -6    8.07   11.85
  -1  -6   5   15.04   13.85
   1   6  -5   25.55   17.40
  -1  -6   4   18.78   15.26
   1   6  -4   41.64   21.87
  -1  -6   3   17.15   14.79
   1   6  -3   47.42   23.56
  -1  -6   2   11.18   13.02
   1   6  -2   93.85   35.41
  -1  -6   1   51.44   24.70
   1   6  -1  200.71   60.62
  -1  -6   0   11.09   13.45
   1   6   0   20.68   16.89
  -1  -6  -1  101.87   37.55
   1   6   1  131.31   44.67
  -1  -6  -2   98.31   36.81
   1   6   2  108.92   39.48
  -1  -6  -3   17.99   15.94
   1   6   3   11.04   13.71
  -1  -6  -4   43.65   23.17
   1   6   4   12.54   14.24
  -1  -6  -5   15.57   15.12
   1   6   5   33.19   20.52
  -1  -6  -6   11.03   13.52
   1   6   6   13.90   14.62
  -2   6   5   60.71   28.10
   2  -6  -5   50.75   25.49
  -2   6   4   30.91   19.79
   2  -6  -4   28.57   19.06
  -2   6   3   23.12   17.34
   2  -6  -3   34.31   20.48
  -2   6   2   24.50   17.72
   2  -6  -2   43.35   22.96
  -2   6   1  254.15   73.18
   2  -6  -1  228.81   67.33
  -2   6   0   16.02   14.98
   2  -6   0  139.07   46.24
  -2   6  -1   23.31   16.75
   2  -6   1   54.66   25.33
  -2   6  -2   29.97   18.54
   2  -6   2   20.80   15.75
  -2   6  -3   70.95   29.11
   2  -6   3   46.33   22.72
  -2   6  -4   61.78   26.67
  -2   5   9   10.71   13.27
   2  -5  -9    5.22   11.20
  -2   5   8   25.00   17.31
   2  -5  -8    3.29    9.88
  -2   5   7   41.16   21.76
   2  -5  -7   18.41   15.14
  -2   5   6  176.09   54.38
   2  -5  -6   72.11   29.59
  -2   5   5  436.49  113.65
   2  -5  -5  288.14   79.87
  -2   5   4   19.21   15.88
   2  -5  -4   23.21   16.90
  -2   5   3  108.47   38.12
   2  -5  -3   90.90   34.03
  -2   5   2  862.98  209.19
   2  -5  -2  790.45  192.86
  -2   5   1   14.89   14.91
   2  -5  -1   22.88   17.00
  -2   5   0  114.36   38.81
   2  -5   0   83.02   31.37
  -2   5  -1   52.46   23.90
   2  -5   1   22.25   16.02
  -2   5  -2  284.75   77.39
   2  -5   2  339.43   89.74
  -2   5  -3   93.58   33.28
   2  -5   3   95.09   33.49
  -2   5  -4   97.32   33.70
   2  -5   4   51.09   22.51
  -2   5  -5   36.94   18.77
   2  -5   5   58.34   24.00
  -2   5  -6   93.49   32.28
   2  -5   6   56.96   23.42
  -2   5  -7   60.26   24.22
  -2   4  11  166.99   51.62
   2  -4 -11   48.13   23.02
  -2   4  10   26.33   17.15
   2  -4 -10   20.56   15.50
  -2   4   9   65.85   27.29
   2  -4  -9  266.01   73.90
  -2   4   8   28.58   17.79
   2  -4  -8    6.78   11.58
  -2   4   7   38.90   20.77
   2  -4  -7   15.25   14.44
  -2   4   6  692.24  169.67
   2  -4  -6  570.65  142.19
  -2   4   5   14.11   15.35
   2  -4  -5   13.07   14.97
  -2   4   4   31.50   19.54
   2  -4  -4   21.95   17.15
  -2   4   3   11.48   14.96
   2  -4  -3   24.81   17.92
  -2   4   2   52.08   24.16
   2  -4  -2   50.68   23.80
  -2   4   1  208.39   59.22
   2  -4  -1  276.09   74.43
  -2   4   0   40.87   21.25
   2  -4   0   71.78   28.08
  -2   4  -1   34.26   19.56
   2  -4   1   16.58   15.33
  -2   4  -2  425.69  107.23
   2  -4   2  351.65   90.63
  -2   4  -3   62.56   25.11
   2  -4   3   90.63   31.51
  -2   4  -4   55.50   22.94
   2  -4   4  109.19   35.09
  -2   4  -5   73.63   26.62
   2  -4   5   28.64   16.03
   2  -4   6  421.59  104.91
  -2   4  -8   34.72   16.03
  -2   4  -9   51.39   19.76
  -2   4 -10    8.31    8.78
  -2   3  13   86.35   31.94
  -2   3  12   92.60   33.19
   2  -3 -12  163.78   49.58
   2  -3 -11   62.71   25.78
   2  -3 -10  275.74   74.72
  -2   3   9   82.39   30.37
   2  -3  -9  215.43   60.85
  -2   3   8   12.95   14.33
   2  -3  -8   10.25   13.75
  -2   3   7   20.19   16.50
   2  -3  -7   59.55   25.39
  -2   3   6   49.82   23.11
   2  -3  -6   16.32   15.49
  -2   3   5  180.64   52.04
   2  -3  -5   44.51   21.39
  -2   3   4   10.57   13.72
   2  -3  -4    7.59   12.78
  -2   3   3  505.89  124.62
   2  -3  -3  452.90  112.67
  -2   3   2  180.11   51.00
   2  -3  -2  186.53   52.40
  -2   3   1   86.41   29.68
   2  -3  -1  327.21   83.71
  -2   3   0  362.53   91.35
   2  -3   0  314.27   80.46
  -2   3  -1   69.30   25.25
   2  -3   1   58.15   22.61
  -2   3  -2  584.21  140.59
   2  -3   2  521.23  126.41
  -2   3  -3  365.48   90.99
   2  -3   3  371.63   92.42
  -2   3  -4    3.76   10.42
   2  -3   4    8.23   10.97
  -2   3  -6  234.97   60.72
  -2   3  -7  229.97   59.17
   2  -3   7   41.91   17.18
  -2   3  -8   56.92   19.86
   2  -3   8  101.78   29.91
  -2   3  -9  154.33   41.37
   2  -3   9  166.28   44.06
  -2   3 -10  232.38   58.64
   2  -3  10  214.36   54.56
  -2   3 -11   43.19   15.55
   2  -3  11   25.00   11.28
  -2   3 -12   74.43   22.37
  -2   2  14  123.10   39.38
  -2   2  13  202.50   57.38
  -2   2  12  472.35  118.20
  -2   2  11  111.33   36.36
   2  -2 -11  113.56   36.80
  -2   2  10  166.28   48.73
   2  -2 -10  154.95   46.17
   2  -2  -9  143.71   43.70
   2  -2  -8   22.36   17.32
  -2   2   7  638.54  154.15
   2  -2  -7  637.73  153.97
  -2   2   6  339.88   86.71
   2  -2  -6  308.21   79.54
  -2   2   5  706.24  168.69
   2  -2  -5  678.68  162.44
  -2   2   4  151.03   43.90
   2  -2  -4  122.30   37.48
  -2   2   3  201.61   54.82
   2  -2  -3  206.96   56.00
  -2   2   2  695.63  165.21
   2  -2  -2  606.69  145.23
  -2   2   1  437.73  107.05
   2  -2  -1  398.31   98.13
  -2   2   0  883.94  206.87
   2  -2   0  721.50  170.29
  -2   2  -1  392.86   96.16
   2  -2   1  349.42   86.35
  -2   2  -2  907.23  211.33
   2  -2   2  814.72  190.46
   2  -2   3   50.36   18.72
  -2   2  -5  357.72   86.37
   2  -2   5  428.19  102.23
  -2   2  -6   60.39   19.73
   2  -2   6   69.17   21.64
  -2   2  -7  108.74   29.99
   2  -2   7   78.59   23.36
  -2   2  -8  446.21  105.17
   2  -2   8  407.40   96.43
  -2   2  -9  312.22   74.62
   2  -2   9  341.66   81.24
  -2   2 -10  117.93   30.54
   2  -2  10  101.52   26.82
  -2   2 -11  109.19   28.17
   2  -2  11   70.80   19.60
  -2   2 -12   90.46   23.64
   2  -2  12  134.34   33.49
  -2   2 -13   91.62   23.59
   2  -2  13   74.76   19.80
  -2   1  15   33.50   17.94
  -2   1  14   30.85   17.24
   2  -1 -14   19.30   13.60
  -2   1  13   78.62   28.23
   2  -1 -13   34.87   17.75
  -2   1  12  168.78   48.53
   2  -1 -12  101.16   33.07
  -2   1  11   29.65   17.92
  -2   1  10   38.97   20.56
  -2   1   9   27.73   18.24
   2  -1  -9   36.12   19.53
  -2   1   8  460.30  113.02
   2  -1  -8  547.99  132.74
   2  -1  -7  162.98   46.23
   2  -1  -6   95.00   31.18
  -2   1   5  146.83   42.37
   2  -1  -5  238.45   62.54
  -2   1   4  656.11  155.75
   2  -1  -4  661.55  157.00
  -2   1   3  116.86   35.82
   2  -1  -3  101.52   32.56
  -2   1   2  235.68   61.12
   2  -1  -2  220.25   57.70
  -2   1   1   49.60   21.65
   2  -1  -1   54.43   22.28
  -2   1   0   15.79   15.63
   2  -1   0   32.13   17.90
  -2   1  -1  229.44   58.47
   2  -1   1  212.49   54.62
   2  -1   2  299.11   73.33
  -2   1  -4  665.03  154.42
   2  -1   4  525.16  123.02
  -2   1  -5  254.77   61.83
   2  -1   5  201.96   50.15
  -2   1  -6  468.15  109.28
   2  -1   6  484.75  113.11
  -2   1  -7  231.76   55.83
   2  -1   7  256.38   61.37
  -2   1  -8  172.17   42.11
   2  -1   8  172.61   42.26
   2  -1   9   25.80   10.09
   2  -1  10   65.61   17.45
   2  -1  11   82.90   20.62
   2   0 -15    5.16   10.14
   2   0  12   89.65   23.29
  -2   0 -13    2.04    4.27
   2   0  13   12.61    6.34
  -2   0 -14    1.43    3.91
   2   0  14   32.28   10.67
  -2  -1  -8    0.86   11.57
   2   1   8   43.68   18.09
  -2  -1  -9    3.25   10.27
   2   1   9   16.67   11.85
  -2  -1 -10    3.13    7.62
   2   1  10   12.53    9.36
  -2  -1 -11   46.33   15.98
   2   1  11   86.00   24.93
  -2  -1 -12    8.23    7.13
   2   1  12   88.92   25.62
  -2  -1 -13    1.34    5.39
   2   1  13   25.71   11.52
  -2  -2  -4   -0.21   12.86
   2   2   4    0.05   13.24
   2   2   5  100.71   32.01
   2   2   6  104.10   32.44
  -2  -2  -7    1.95   11.98
   2   2   7   14.03   14.34
  -2  -2  -8   93.22   29.89
   2   2   8  228.81   59.88
  -2  -2  -9   25.78   14.06
   2   2   9  129.88   37.45
  -2  -2 -10    5.07    8.35
   2   2  10   43.57   17.64
  -2  -2 -11   20.71   11.79
   2   2  11  111.69   33.10
  -2  -2 -12   31.91   14.50
   2   2  12   35.91   15.80
  -2  -2 -13   28.78   13.89
   2   2  13   93.58   29.06
   2   3  -1   -0.18   15.49
  -2  -3   0   -0.46   14.70
   2   3   0   -0.35   15.09
  -2  -3  -1   -0.32   14.58
   2   3   1   14.87   17.11
  -2  -3  -2    4.68   14.71
   2   3   2  186.08   53.12
  -2  -3  -3   37.47   20.93
   2   3   3  146.92   44.12
  -2  -3  -4    1.19   13.26
  -2  -3  -5    2.98   13.91
  -2  -3  -6    7.89   13.67
   2   3   6    4.26   13.30
   2   3   7    6.60   12.44
   2   3   8   81.11   28.46
  -2  -3  -9   42.98   19.02
   2   3   9  161.37   46.56
  -2  -3 -10   40.83   18.34
   2   3  10  234.26   63.17
  -2  -3 -11    9.41   10.25
   2   3  11   64.18   24.28
   2   3  12   52.99   21.53
   2   4  -5    0.36   15.53
  -2  -4   4    1.12   16.66
   2   4  -4    0.09   16.72
  -2  -4   3    0.46   16.88
   2   4  -3    2.48   17.57
  -2  -4   2    1.45   16.72
   2   4  -2   13.34   19.13
  -2  -4   1   10.79   18.16
   2   4  -1   98.75   36.51
  -2  -4   0   17.21   19.35
   2   4   0  108.74   38.16
  -2  -4  -1    9.58   16.56
   2   4   1   39.10   23.14
  -2  -4  -2   88.93   33.52
   2   4   2  216.77   62.03
  -2  -4  -3   14.89   16.80
   2   4   3   51.02   24.74
  -2  -4  -4    8.09   13.77
   2   4   4   29.22   19.18
  -2  -4  -5    1.38   10.96
   2   4   5   27.05   17.83
  -2  -4  -6   30.97   18.01
  -2  -4  -7   32.90   18.06
  -2  -4  -8    1.67    8.62
   2   4   8   76.60   28.97
  -2  -4  -9   19.74   14.22
   2   4   9   81.80   30.25
   2   4  10   43.87   21.10
   2   5  -9   -0.26   10.58
  -2  -5   8   -0.12   10.88
   2   5  -8   -0.16   10.50
  -2  -5   7    0.08   11.11
   2   5  -7    0.46   11.07
  -2  -5   6    0.18   11.19
   2   5  -6    1.90   11.49
  -2  -5   5    0.00   11.38
   2   5  -5    0.96   11.58
  -2  -5   4    2.39   12.34
   2   5  -4   14.57   15.75
  -2  -5   3    7.12   13.97
   2   5  -3   14.84   15.34
  -2  -5   2    6.30   13.02
   2   5  -2  197.95   58.91
  -2  -5   1    0.85   11.27
   2   5  -1    5.90   13.29
  -2  -5   0   19.80   16.65
   2   5   0   51.66   24.85
  -2  -5  -1    2.29   11.51
   2   5   1   13.68   14.75
  -2  -5  -2   41.23   21.67
   2   5   2   76.23   30.46
  -2  -5  -3    0.53    9.64
   2   5   3    6.63   12.13
  -2  -5  -4   10.99   12.96
   2   5   4   63.24   27.19
  -2  -5  -5    7.73   11.71
   2   5   5    4.93   11.04
  -2  -5  -6    8.31   11.68
   2   5   6   85.66   32.67
  -2  -5  -7    1.09    8.85
   2   5   7  135.06   44.49
   2   5   8   81.09   31.84
  -2  -6   5    7.94   12.69
   2   6  -5   29.36   19.38
  -2  -6   4    1.19   10.19
   2   6  -4   21.29   17.14
  -2  -6   3    3.18   11.09
   2   6  -3   54.31   26.11
  -2  -6   2    2.44   10.80
   2   6  -2    3.57   10.94
  -2  -6   1   41.13   22.46
   2   6  -1   50.38   24.97
  -2  -6   0   -0.11    9.31
   2   6   0    2.52   10.44
  -2  -6  -1    1.27    9.63
   2   6   1   13.40   14.39
  -2  -6  -2    6.41   11.71
   2   6   2   35.30   20.98
  -2  -6  -3    4.99   11.23
   2   6   3   12.39   14.03
  -2  -6  -4   27.39   18.56
   2   6   4   26.58   18.56
  -3   5   8   30.31   19.63
   3  -5  -8   22.04   17.09
  -3   5   7  263.96   75.84
   3  -5  -7  162.53   52.31
  -3   5   6   26.89   18.51
   3  -5  -6   36.65   21.14
  -3   5   5  153.17   49.68
   3  -5  -5  155.31   50.15
  -3   5   4   33.71   20.29
   3  -5  -4   27.63   18.50
  -3   5   3  411.95  108.47
   3  -5  -3  338.36   91.70
  -3   5   2   22.17   16.48
   3  -5  -2   24.74   17.18
  -3   5   1   12.01   13.04
   3  -5  -1   14.74   13.77
  -3   5   0   10.14   12.53
   3  -5   0   12.90   13.18
  -3   5  -1  197.06   58.23
   3  -5   1  213.56   62.02
  -3   5  -2    6.46   10.70
   3  -5   2   11.55   12.26
  -3   5  -3    6.94   10.51
   3  -5   3    1.40    8.28
  -3   5  -4   19.58   14.59
   3  -5   4   18.87   14.14
  -3   5  -5  490.10  123.73
  -3   5  -6   19.09   14.03
  -3   4  11  275.38   78.05
  -3   4  10   15.76   15.25
   3  -4 -10   11.20   13.29
  -3   4   9   26.18   18.16
   3  -4  -9   26.66   17.82
  -3   4   8  200.62   59.88
   3  -4  -8  202.59   60.36
  -3   4   7  107.85   38.06
   3  -4  -7   94.02   34.76
  -3   4   6   11.26   13.38
   3  -4  -6    8.75   12.60
  -3   4   5  103.84   36.73
   3  -4  -5   87.53   32.86
  -3   4   4   41.12   21.62
   3  -4  -4   33.56   19.63
  -3   4   3  382.87  100.09
   3  -4  -3  194.92   57.43
  -3   4   2   47.57   23.03
   3  -4  -2   66.74   27.54
  -3   4   1   42.01   21.38
   3  -4  -1   23.20   16.66
  -3   4   0   47.28   22.60
   3  -4   0   49.34   22.95
  -3   4  -1  550.67  136.75
   3  -4   1  298.57   79.73
  -3   4  -2  135.86   42.44
   3  -4   2   50.74   22.47
  -3   4  -3   32.88   17.77
   3  -4   3   15.24   13.04
  -3   4  -4   98.93   33.06
   3  -4   4  156.74   46.33
  -3   4  -5   59.03   23.29
   3  -4   5   47.08   20.38
  -3   4  -6  107.76   34.39
   3  -4   6  118.47   36.83
  -3   4  -8  122.84   37.29
  -3   4  -9  212.40   57.47
  -3   3  12  127.92   42.83
  -3   3  11   33.04   19.70
   3  -3 -11   25.35   17.61
  -3   3  10  244.42   69.21
   3  -3 -10  145.14   46.42
  -3   3   9  162.71   50.50
   3  -3  -9  138.63   44.83
  -3   3   8  185.28   55.45
   3  -3  -8  121.50   40.90
  -3   3   7  404.01  104.73
   3  -3  -7  372.35   97.59
  -3   3   6  143.35   45.85
   3  -3  -6  114.99   39.31
  -3   3   5  119.18   40.21
   3  -3  -5  106.24   37.30
  -3   3   4  159.59   48.95
   3  -3  -4  118.11   39.64
  -3   3   3  152.90   47.22
   3  -3  -3  149.78   46.48
  -3   3   2  426.94  108.30
   3  -3  -2  398.66  101.96
  -3   3   1  250.22   68.36
   3  -3  -1  109.55   36.85
  -3   3   0  105.71   35.80
   3  -3   0  100.89   34.54
  -3   3  -1  331.67   85.87
   3  -3   1  161.37   47.64
  -3   3  -2  243.98   65.85
   3  -3   2   70.97   27.25
  -3   3  -3  114.45   36.55
   3  -3   3  120.07   37.63
  -3   3  -4   97.77   32.26
   3  -3   4   73.48   26.38
   3  -3   5  460.21  112.94
  -3   3  -7  369.49   91.70
   3  -3   7   92.15   29.05
  -3   3  -8  127.65   36.62
   3  -3   8  211.42   55.60
  -3   3  -9    5.53    7.54
   3  -3   9   11.80    9.21
  -3   3 -10   32.03   13.85
   3  -2 -12   56.21   24.59
   3  -2 -11   66.66   27.07
  -3   2  10  181.27   53.51
   3  -2 -10  158.61   48.36
  -3   2   9   30.88   18.97
   3  -2  -9   30.56   18.81
  -3   2   8   72.76   28.97
   3  -2  -8   54.06   24.70
  -3   2   7  235.77   65.46
   3  -2  -7  253.97   69.56
  -3   2   6   22.89   17.94
   3  -2  -6   15.52   16.32
  -3   2   5  293.67   77.78
   3  -2  -5  263.78   71.03
  -3   2   4  501.52  124.18
   3  -2  -4  470.47  117.13
  -3   2   3   15.09   15.36
   3  -2  -3   15.50   15.34
  -3   2   2  334.17   85.73
   3  -2  -2  264.94   70.17
  -3   2   1  114.09   36.17
   3  -2  -1  101.07   33.15
  -3   2   0   22.46   15.98
   3  -2   0   11.75   13.59
  -3   2  -1  483.05  118.11
   3  -2   1  433.36  106.87
  -3   2  -2  889.12  209.19
   3  -2   2  911.69  214.18
  -3   2  -3  167.71   46.66
   3  -2   3  307.49   77.85
  -3   2  -6   88.31   27.69
   3  -2   6   28.49   14.87
  -3   2  -7  130.33   36.39
   3  -2   7  220.52   56.65
  -3   2  -8  190.28   49.33
   3  -2   8  270.92   67.49
  -3   2  -9   44.92   16.17
   3  -2   9   62.84   20.21
  -3   2 -10   91.88   26.33
   3  -2  10  108.03   29.93
  -3   2 -11   41.92   14.66
   3  -2  11   15.74    8.79
  -3   1  14   41.70   20.72
  -3   1  13  191.17   55.58
   3  -1 -13  142.46   44.37
  -3   1  12  122.21   39.56
   3  -1 -12  128.55   41.03
   3  -1 -11  176.63   51.86
   3  -1 -10    7.73   13.13
   3  -1  -9  142.28   44.05
  -3   1   8  206.07   58.19
   3  -1  -8  216.41   60.53
  -3   1   7  107.76   36.00
   3  -1  -7   71.80   28.00
  -3   1   6   64.60   26.22
   3  -1  -6   71.20   27.48
  -3   1   5  151.38   45.13
   3  -1  -5  199.38   55.64
  -3   1   4   45.44   21.95
   3  -1  -4   64.60   25.70
  -3   1   3  343.44   87.40
   3  -1  -3  303.30   78.38
  -3   1   2    9.05   15.09
   3  -1  -2    5.95   14.52
  -3   1   1  712.49  169.58
   3  -1  -1  756.29  179.48
  -3   1   0   72.68   26.65
   3  -1   0   89.74   30.25
  -3   1  -1   66.16   24.72
   3  -1   1   36.40   18.63
  -3   1  -2    2.17   12.12
   3  -1   2    2.39   12.13
   3  -1   3  276.00   69.98
   3   2   9   -0.17    9.18
  -3  -2 -10   -0.28    8.79
   3   2  10   12.26   11.27
  -3  -2 -11    0.12    8.28
   3   2  11    1.19    8.26
  -3  -3  -6   -0.11   11.96
   3   3   6    7.33   13.67
   3   3   7   70.87   27.22
   3   3   8    2.06   10.38
  -3  -3  -9    0.19    9.11
   3   3   9    9.75   11.29
  -3  -3 -10    1.34    9.20
   3   3  10   22.79   14.63
   3   4   1   -0.73   14.87
  -3  -4  -2    0.44   13.67
   3   4   2   -0.04   13.79
  -3  -4  -3    0.09   12.78
   3   4   3    2.38   13.39
  -3  -4  -4    0.43   11.75
   3   4   4   12.86   15.20
  -3  -4  -5    0.18   10.98
   3   4   5    6.87   13.02
  -3  -4  -6    0.70   10.63
  -3  -4  -7    1.28   10.24
   3   4   8   29.35   17.73
   3   5  -3    0.00   11.93
  -3  -5   2   -0.15   12.10
   3   5  -2   -0.12   11.80
  -3  -5   1   -0.31   11.97
   3   5  -1    2.73   12.92
  -3  -5   0   -0.13   11.87
   3   5   0    3.47   12.77
  -3  -5  -1    0.71   11.61
   3   5   1   68.29   29.66
  -3  -5  -2    0.68   11.36
   3   5   2    8.85   14.17
  -3  -5  -3    0.07   10.95
   3   5   3   12.34   14.26
  -3  -5  -4    0.99   10.99
   3   5   4   11.04   13.80
  -3  -5  -5    2.18   10.53
   3   5   5  214.99   63.71
   3   5   6    9.50   13.10
  -4   5   5   29.14   19.26
   4  -5  -5   12.00   13.71
  -4   5   4   29.50   19.27
   4  -5  -4   24.88   17.84
  -4   5   3   57.14   26.75
   4  -5  -3   33.40   20.27
  -4   5   2  186.08   57.65
   4  -5  -2  186.35   57.65
  -4   5   1   16.35   15.02
   4  -5  -1   16.11   14.84
  -4   5   0   40.08   21.58
   4  -5   0  105.09   37.90
  -4   5  -1   49.33   23.76
   4  -5   1   47.39   23.19
  -4   5  -2   52.03   24.23
  -4   4   9   61.10   28.47
   4  -4  -9   62.65   28.80
  -4   4   8  134.17   46.02
   4  -4  -8  154.77   50.79
  -4   4   7   85.72   34.22
   4  -4  -7   75.55   31.64
  -4   4   6  182.78   56.82
   4  -4  -6  155.66   50.47
  -4   4   5   48.02   24.59
   4  -4  -5   47.17   24.21
  -4   4   4  176.72   54.84
   4  -4  -4  192.51   58.48
  -4   4   3  141.93   46.61
   4  -4  -3  207.85   61.70
  -4   4   2  172.17   53.22
   4  -4  -2   83.57   32.58
  -4   4   1  277.34   77.02
   4  -4  -1  293.84   80.67
  -4   4   0   38.12   21.06
   4  -4   0   39.30   21.12
  -4   4  -1  133.27   43.38
   4  -4   1  308.65   83.39
  -4   4  -2  169.22   51.33
   4  -4   2   65.90   27.20
  -4   4  -3  195.00   56.89
   4  -4   3  337.38   89.21
  -4   4  -4  228.55   64.20
   4  -4   4  311.06   82.81
  -4   4  -5   23.36   15.77
  -4   4  -6  182.87   53.02
  -4   3  11   90.01   34.74
   4  -3 -11   63.93   28.26
  -4   3  10   47.54   23.93
   4  -3 -10   44.89   23.19
  -4   3   9  156.38   50.11
   4  -3  -9  133.54   44.73
  -4   3   8  208.21   61.83
   4  -3  -8  184.84   56.41
  -4   3   7    5.83   12.16
   4  -3  -7   13.41   14.58
  -4   3   6  101.16   36.57
   4  -3  -6   84.76   32.63
  -4   3   5  352.72   93.93
   4  -3  -5  325.42   87.77
  -4   3   4  103.84   36.86
   4  -3  -4  107.94   37.80
  -4   3   3   42.29   22.17
   4  -3  -3   65.48   27.78
  -4   3   2  474.58  120.61
   4  -3  -2  495.81  125.33
  -4   3   1   13.02   14.83
   4  -3  -1   15.43   15.39
  -4   3   0  237.02   66.11
   4  -3   0  192.06   55.91
  -4   3  -1  163.07   48.96
   4  -3   1  158.34   47.80
  -4   3  -2   71.12   27.40
   4  -3   2   58.41   24.33
  -4   3  -3  147.28   44.51
   4  -3   3   65.64   25.60
  -4   3  -4   15.15   12.95
   4  -3   4   11.10   11.78
  -4   3  -5   20.87   13.99
   4  -3   5    8.41   10.75
  -4   3  -7  103.21   32.94
  -4   3  -8  239.61   63.67
  -4   2  12   32.12   20.35
  -4   2  11   62.57   27.86
   4  -2 -11   72.06   30.13
  -4   2  10   30.02   19.65
   4  -2 -10   72.03   29.91
  -4   2   9   58.33   26.66
   4  -2  -9   30.89   19.96
  -4   2   8   20.52   17.77
   4  -2  -8   42.36   22.82
  -4   2   7   44.80   23.81
   4  -2  -7  120.34   41.06
  -4   2   6   34.43   21.76
   4  -2  -6   37.64   22.10
  -4   2   5   88.65   33.98
   4  -2  -5   76.89   31.28
  -4   2   4   56.66   26.87
   4  -2  -4   47.62   24.71
  -4   2   3   40.86   23.44
   4  -2  -3   28.14   20.62
  -4   2   2   79.56   31.49
   4  -2  -2  176.54   52.89
  -4   2   1  110.97   38.11
   4  -2  -1  228.99   64.26
  -4   2   0   56.00   25.67
   4  -2   0   77.07   30.24
  -4   2  -1   18.36   17.29
   4  -2   1   27.15   19.11
  -4   2  -2   36.69   20.43
   4  -2   2   49.47   23.33
  -4   2  -3    5.24   12.95
   4  -2   3   39.88   20.38
  -4   2  -4   70.26   26.42
   4  -2   4   26.10   16.57
   4  -2   5   68.16   25.32
  -4   2  -7   49.55   19.83
   4  -2   7   62.34   23.12
  -4   2  -8  107.14   32.60
   4  -2   8   54.41   20.90
  -4   2  -9  118.29   34.76
  -4   1  12    3.19   11.47
   4  -1 -12    3.63   11.48
  -4   1  11   40.97   21.94
   4  -1 -11   20.95   16.69
  -4   1  10    8.18   13.70
   4  -1 -10    2.33   11.97
  -4   1   9   50.78   24.71
   4  -1  -9   77.14   30.71
  -4   1   8  259.95   72.34
   4  -1  -8  226.05   64.67
  -4   1   7  111.86   39.10
   4  -1  -7  119.45   40.69
   4  -1  -6   72.86   30.48
   4  -1  -5   38.86   23.25
   4  -1  -4  195.00   57.14
   4   5   2   -0.54   13.27
  -5   4   4    8.32   13.33
   5  -4  -4   13.61   15.00
  -5   4   3  494.38  128.46
   5  -4  -3  347.37   95.09
  -5   4   2   14.59   15.01
   5  -4  -2    3.91   11.62
  -5   4   1   24.76   17.68
   5  -4  -1   38.99   21.74
  -5   4   0    6.91   11.93
   5  -4   0   23.79   17.37
  -5   4  -1  192.24   58.22
  -5   3   8   99.82   37.99
   5  -3  -8   67.23   29.85
  -5   3   7   91.44   35.71
   5  -3  -7   60.16   27.84
  -5   3   6   44.89   23.74
   5  -3  -6   45.96   23.93
  -5   3   5   33.66   20.57
   5  -3  -5   11.80   13.99
  -5   3   4   59.29   27.14
   5  -3  -4   43.69   22.89
  -5   3   3  119.36   41.45
   5  -3  -3   65.56   28.33
  -5   3   2  163.16   51.38
   5  -3  -2   75.84   30.64
  -5   3   1  187.78   56.77
   5  -3  -1  207.05   61.14
  -5   3   0  154.24   48.69
   5  -3   0   66.78   27.89
  -5   3  -1  179.84   54.26
   5  -3   1   74.80   29.50
  -5   3  -2   39.02   20.40
   5  -3   2    8.50   11.61
  -5   3  -3   17.70   14.42
  -5   3  -4   82.12   30.47
  -5   3  -5  148.62   45.71
  -5   2  10   10.85   14.04
   5  -2 -10   14.34   15.26
  -5   2   9   25.99   18.55
   5  -2  -9   72.03   30.75
  -5   2   8   79.90   32.43
   5  -2  -8   50.94   25.32
  -5   2   7    5.63   12.20
   5  -2  -7   16.96   16.01
  -5   2   6   76.88   31.37
   5  -2  -6   80.15   32.17
  -5   2   5   51.71   25.00
   5  -2  -5   97.86   36.30
  -5   2   4   58.29   26.49
   5  -2  -4   92.95   34.92
  -5   2   3   80.45   31.70
   5  -2  -3   93.67   34.83
  -5   2   2  105.00   37.19
   5  -2  -2   51.49   24.34
  -5   2   1   15.59   15.00
   5  -2  -1   24.27   17.13
  -5   2   0   15.60   14.68
   5  -2   0    5.60   11.61
  -5   2  -1   11.41   13.22
   5  -2   1    6.65   11.57
  -5   2  -2   27.97   17.47
   5  -2   2   29.77   17.64
  -5   2  -3  103.84   35.45
   5  -2   3   45.82   21.43
  -5   2  -4  126.49   40.38
   5  -2   4   94.29   32.69
  -5   2  -5   66.33   26.02
  -6   2   5    5.22   13.15
   6  -2  -5    6.51   13.15
  -6   2   4  354.51   97.06
   6  -2  -4  241.75   71.21
  -6   2   3   90.81   35.79
   6  -2  -3   69.23   30.40
  -6   2   2   34.85   21.62
   6  -2  -2   39.35   22.64
  -6   2   1   19.72   17.16
   6  -2  -1   24.82   18.39
  -6   2   0   33.82   20.68
   6  -2   0   25.25   18.21
  -6   2  -1   13.52   14.81
   0   0   0    0.00    0.00
;
_shelx_hkl_checksum              32226
loop_
_space_group_symop_operation_xyz
'x, y, z'
'-x+1/2, y+1/2, -z+1/2'
'-x, -y, -z'
'x-1/2, -y-1/2, z-1/2'
loop_
_atom_site_label
_atom_site_type_symbol
_atom_site_fract_x
_atom_site_fract_y
_atom_site_fract_z
_atom_site_U_iso_or_equiv
_atom_site_adp_type
_atom_site_occupancy
_atom_site_site_symmetry_order
_atom_site_calc_flag
_atom_site_refinement_flags_adp
Se1 Se 0.5186(14) 0.3578(10) 0.3342(4) 0.0010(17) Uiso 1 1 d .
Fe1 Fe 0.4581(14) 0.2575(10) 0.0731(5) 0.0010(17) Uiso 1 1 d .
O1 O 0.324(4) 0.625(3) 0.3455(13) 0.002(2) Uiso 1 1 d U
O2 O 0.796(4) 0.431(3) 0.4195(13) 0.002(2) Uiso 1 1 d U
O3 O 0.620(4) 0.424(3) 0.2096(13) 0.002(2) Uiso 1 1 d U
F1 F 0.271(4) 0.571(3) 0.0105(13) 0.003(2) Uiso 1 1 d U
loop_
_atom_type_symbol
_atom_type_description
_atom_type_scat_dispersion_real
_atom_type_scat_dispersion_imag
_atom_type_scat_source
O O 0.0000 0.0000 'International Tables Vol C Tables 4.2.6.8 and 6.1.1.4'
F F 0.0000 0.0000 'International Tables Vol C Tables 4.2.6.8 and 6.1.1.4'
Fe Fe 0.0000 0.0000 'International Tables Vol C Tables 4.2.6.8 and 6.1.1.4'
Se Se 0.0000 0.0000 'International Tables Vol C Tables 4.2.6.8 and 6.1.1.4'
loop_
_geom_angle_atom_site_label_1
_geom_angle_atom_site_label_2
_geom_angle_atom_site_label_3
_geom_angle
_geom_angle_site_symmetry_1
_geom_angle_site_symmetry_3
O2 Se1 O3 100.6(10) . .
O2 Se1 O1 101.2(8) . .
O3 Se1 O1 98.4(8) . .
O3 Fe1 O1 88.4(7) . 2_545
O3 Fe1 F1 94.2(7) . .
O1 Fe1 F1 98.9(7) 2_545 .
O3 Fe1 F1 90.0(7) . 3_665
O1 Fe1 F1 174.1(7) 2_545 3_665
F1 Fe1 F1 75.5(8) . 3_665
O3 Fe1 O2 99.0(7) . 2_645
O1 Fe1 O2 98.4(7) 2_545 2_645
F1 Fe1 O2 158.5(8) . 2_645
F1 Fe1 O2 87.5(7) 3_665 2_645
O3 Fe1 O2 177.4(8) . 4_565
O1 Fe1 O2 93.6(7) 2_545 4_565
F1 Fe1 O2 87.0(6) . 4_565
F1 Fe1 O2 88.1(7) 3_665 4_565
O2 Fe1 O2 79.2(7) 2_645 4_565
Se1 O1 Fe1 141.6(9) . 2
Se1 O2 Fe1 130.5(9) . 2_655
Se1 O2 Fe1 127.9(9) . 4_666
Fe1 O2 Fe1 100.8(7) 2_655 4_666
Se1 O3 Fe1 121.9(10) . .
Fe1 F1 Fe1 104.5(8) . 3_665
loop_
_geom_bond_atom_site_label_1
_geom_bond_atom_site_label_2
_geom_bond_distance
_geom_bond_site_symmetry_2
Se1 O2 1.644(17) .
Se1 O3 1.681(18) .
Se1 O1 1.710(16) .
Fe1 O3 1.932(17) .
Fe1 O1 1.94(2) 2_545
Fe1 F1 1.975(16) .
Fe1 F1 1.993(18) 3_665
Fe1 O2 2.085(17) 2_645
Fe1 O2 2.149(16) 4_565
O1 Fe1 1.94(2) 2
O2 Fe1 2.085(17) 2_655
O2 Fe1 2.149(16) 4_666
F1 Fe1 1.993(17) 3_665

_cod_database_fobs_code 2300638
