#------------------------------------------------------------------------------
#$Date: 2018-07-06 05:20:27 +0300 (Fri, 06 Jul 2018) $
#$Revision: 208877 $
#$URL: file:///home/coder/svn-repositories/cod/cif/2/30/06/2300639.cif $
#------------------------------------------------------------------------------
#
# This file is available in the Crystallography Open Database (COD),
# http://www.crystallography.net/. The original data for this entry
# were provided by IUCr Journals, http://journals.iucr.org/.
#
# The file may be used within the scientific community so long as
# proper attribution is given to the journal article from which the
# data were obtained.
#
data_2300639
loop_
_publ_author_name
'Wang, Yunchen'
'Yang, Taimin'
'Xu, Hongyi'
'Zou, Xiaodong'
'Wan, Wei'
_publ_section_title
;
 On the quality of the continuous rotation electron diffraction data for
 accurate atomic structure determination of inorganic compounds
;
_journal_issue                   4
_journal_name_full               'Journal of Applied Crystallography'
_journal_page_first
;
;
_journal_paper_doi               10.1107/S1600576718007604
_journal_volume                  51
_journal_year                    2018
_chemical_formula_sum            'F Fe O3 Se'
_chemical_formula_weight         201.80
_space_group_crystal_system      monoclinic
_space_group_IT_number           14
_space_group_name_Hall           '-P 2yn'
_space_group_name_H-M_alt        'P 1 21/n 1'
_symmetry_space_group_name_Hall  '-P 2yn'
_symmetry_space_group_name_H-M   'P 1 21/n 1'
_audit_creation_method           SHELXL-2014/7
_cell_angle_alpha                90
_cell_angle_beta                 97.87(3)
_cell_angle_gamma                90
_cell_formula_units_Z            4
_cell_length_a                   4.9560(10)
_cell_length_b                   5.2020(10)
_cell_length_c                   12.040(2)
_cell_measurement_reflns_used    590
_cell_measurement_temperature    293(2)
_cell_measurement_theta_max      0.94
_cell_measurement_theta_min      0.15
_cell_volume                     307.48(10)
_computing_structure_refinement  'SHELXL-2014/7 (Sheldrick, 2014)'
_diffrn_ambient_temperature      293(2)
_diffrn_measured_fraction_theta_full 0.701
_diffrn_measured_fraction_theta_max 0.695
_diffrn_measurement_device_type  'JEOL JEM-2100'
_diffrn_radiation_wavelength     0.0251
_diffrn_reflns_av_R_equivalents  0.1577
_diffrn_reflns_av_unetI/netI     0.2076
_diffrn_reflns_Laue_measured_fraction_full 0.701
_diffrn_reflns_Laue_measured_fraction_max 0.695
_diffrn_reflns_limit_h_max       6
_diffrn_reflns_limit_h_min       -6
_diffrn_reflns_limit_k_max       6
_diffrn_reflns_limit_k_min       -6
_diffrn_reflns_limit_l_max       13
_diffrn_reflns_limit_l_min       -12
_diffrn_reflns_number            1173
_diffrn_reflns_point_group_measured_fraction_full 0.701
_diffrn_reflns_point_group_measured_fraction_max 0.695
_diffrn_reflns_theta_full        0.863
_diffrn_reflns_theta_max         0.939
_diffrn_reflns_theta_min         0.151
_exptl_absorpt_coefficient_mu    0.000
_exptl_crystal_colour            White
_exptl_crystal_density_diffrn    4.359
_exptl_crystal_description       Plate
_exptl_crystal_F_000             88
_refine_diff_density_max         0.334
_refine_diff_density_min         -0.360
_refine_diff_density_rms         0.090
_refine_ls_extinction_coef       4973(63)
_refine_ls_extinction_expression Fc^*^=kFc[1+0.001xFc^2^\l^3^/sin(2\q)]^-1/4^
_refine_ls_extinction_method     'SHELXL-2014/7 (Sheldrick 2014'
_refine_ls_goodness_of_fit_ref   1.181
_refine_ls_hydrogen_treatment    undef
_refine_ls_matrix_type           full
_refine_ls_number_parameters     26
_refine_ls_number_reflns         498
_refine_ls_number_restraints     0
_refine_ls_restrained_S_all      1.181
_refine_ls_R_factor_all          0.1655
_refine_ls_R_factor_gt           0.1439
_refine_ls_shift/su_max          0.078
_refine_ls_shift/su_mean         0.004
_refine_ls_structure_factor_coef Fsqd
_refine_ls_weighting_details
'w=1/[\s^2^(Fo^2^)+(0.1251P)^2^+0.6919P] where P=(Fo^2^+2Fc^2^)/3'
_refine_ls_weighting_scheme      calc
_refine_ls_wR_factor_gt          0.3737
_refine_ls_wR_factor_ref         0.3859
_reflns_Friedel_coverage         0.000
_reflns_number_gt                400
_reflns_number_total             498
_reflns_threshold_expression     'I > 2\s(I)'
_cod_data_source_file            kc5069sup1.cif
_cod_data_source_block           dataset6
_cod_original_cell_volume        307.48(11)
_cod_database_code               2300639
_shelx_shelxl_version_number     2014/7
_shelx_space_group_comment
;
The symmetry employed for this shelxl refinement is uniquely defined
by the following loop, which should always be used as a source of
symmetry information in preference to the above space-group names.
They are only intended as comments.
;
_shelx_res_file
;

    2.res created by SHELXL-2014/7


TITL 2 in P2(1)/n
CELL 0.0251   4.9560   5.2020  12.0400  90.000  97.870  90.000
ZERR    4.00   0.0010   0.0010   0.0024   0.000   0.030   0.000
LATT  1
SYMM 0.5-X, 0.5+Y, 0.5-Z
SFAC O      0.45480  23.78030   0.91730   7.62200   0.47190   2.14400 =
            0.13840   0.29590   0.00000   0.000   0.000   0.000   0.730  15.999
SFAC F      0.36860  20.23900   0.81090   6.60930   0.47510   1.93100 =
            0.14590   0.27930   0.00000   0.000   0.000   0.000   0.720  18.998
SFAC FE     2.54400  64.42439   2.34340  14.88060   1.75880   2.85390 =
            0.50620   0.35020   0.00000   0.000   0.000   0.000   1.170  55.847
SFAC SE     1.02041   0.85673   1.56993   4.20859   3.02495  16.80800 =
            1.44175  48.63000   0.00000   0.000   0.000   0.000   1.160  78.960
UNIT 12 4 4 4
LIST 6 ! automatically inserted. Change 6 to 4 for CHECKCIF!!

L.S. 16
BOND
FMAP 2
PLAN 20
ACTA
XNPD 0.001
WGHT    0.125100    0.691900
EXTI 4972.798340
FVAR       1.88120
SE1   4    0.517980    0.359947    0.334469    11.00000    0.00490
FE1   3    0.459539    0.255706    0.071667    11.00000    0.00910
O1    1    0.332084    0.621140    0.346775    11.00000    0.01717
O2    1    0.808642    0.438826    0.425445    11.00000    0.01254
O3    1    0.616828    0.422399    0.208335    11.00000    0.00975
F1    2    0.268307    0.571659    0.009584    11.00000    0.01216

HKLF 4

REM  2 in P2(1)/n
REM R1 =  0.1439 for     400 Fo > 4sig(Fo)  and  0.1655 for all     498 data
REM     26 parameters refined using      0 restraints

END

WGHT      0.1237      0.6877

REM Highest difference peak  0.334,  deepest hole -0.360,  1-sigma level  0.090
Q1    1   0.4869  0.1575  0.1446  11.00000  0.05    0.33
Q2    1   0.4319  0.7389  0.2731  11.00000  0.05    0.27
Q3    1   0.1293  0.5128  0.0634  11.00000  0.05    0.27
Q4    1   0.4741  0.1768  0.0004  11.00000  0.05    0.25
Q5    1   0.5747  0.6485  0.3025  11.00000  0.05    0.25
Q6    1   0.0817  0.4077 -0.0558  11.00000  0.05    0.24
Q7    1   0.2583  0.4803 -0.0374  11.00000  0.05    0.24
Q8    1   0.5275  0.1531  0.4238  11.00000  0.05    0.23
Q9    1   0.5120  0.2021  0.4057  11.00000  0.05    0.22
Q10   1   0.4668  0.4809  0.2990  11.00000  0.05    0.22
Q11   1   0.1366  0.3435  0.3633  11.00000  0.05    0.22
Q12   1   0.3877  0.3651  0.0175  11.00000  0.05    0.22
Q13   1   0.5394  0.4767  0.4115  11.00000  0.05    0.21
Q14   1   0.0125  0.6519  0.0035  11.00000  0.05    0.21
Q15   1   0.3237  0.4638  0.4049  11.00000  0.05    0.21
Q16   1   0.4164  0.6451  0.0419  11.00000  0.05    0.19
Q17   1   0.2846  0.8239  0.3816  11.00000  0.05    0.19
Q18   1   0.2131  0.6633 -0.0608  11.00000  0.05    0.18
Q19   1   0.1634  0.3876  0.4209  11.00000  0.05    0.18
Q20   1   0.7097  0.5290  0.2824  11.00000  0.05    0.18
;
_shelx_res_checksum              67395
_shelx_hkl_file
;
   0  -1   4  521.74  119.45
   0   1  -4  352.82   81.01
   0  -1   3  829.93  189.44
   0   1  -3  769.81  175.79
   0  -1   2   62.25   14.94
   0   1  -2   57.68   13.90
   0   1  -1  149.03   34.38
   0  -1   0    2.17    3.59
   0   1   0    2.40    3.46
   0  -1  -1  143.05   33.11
   0   1   1  124.12   28.83
   0  -2   9  107.57   26.26
   0  -2   8   44.56   12.22
   0   2  -8   84.77   20.90
   0  -2   7  102.20   24.65
   0   2  -7   60.47   15.34
   0  -2   6   42.10   11.23
   0   2  -6   48.17   12.49
   0  -2   5   35.11    9.60
   0   2  -5   26.14    7.77
   0  -2   4  185.39   43.09
   0   2  -4  145.25   33.98
   0  -2   3    2.59    3.86
   0   2  -3    1.65    3.69
   0  -2   2   53.20   13.18
   0   2  -2   54.06   13.32
   0  -2   1  516.99  118.31
   0   2  -1  529.67  121.22
   0  -2   0  173.33   40.19
   0   2   0  146.66   34.14
   0  -2  -1  592.87  135.65
   0   2   1  572.45  130.99
   0  -2  -2   40.25   10.62
   0   2   2   37.21    9.96
   0  -3  12   32.39    9.58
   0   3 -12   27.91    8.58
   0  -3  11    3.91    4.23
   0   3 -11    5.36    4.32
   0  -3  10  213.38   50.14
   0   3 -10  247.62   57.92
   0  -3   9  125.44   30.19
   0   3  -9  120.25   28.99
   0  -3   8    2.84    4.85
   0   3  -8    5.90    5.02
   0  -3   7  195.86   45.94
   0   3  -7  171.74   40.47
   0  -3   6   45.54   11.95
   0   3  -6   45.48   11.95
   0  -3   5  153.52   36.10
   0   3  -5  162.94   38.22
   0  -3   4  416.99   95.95
   0   3  -4  477.29  109.68
   0  -3   3  465.40  106.95
   0   3  -3  453.87  104.31
   0  -3   2  453.52  104.23
   0   3  -2  413.73   95.16
   0  -3   1   75.98   18.45
   0   3  -1   41.20   10.72
   0  -3   0    1.22    3.76
   0   3   0    2.05    3.65
   0  -3  -1   77.30   18.79
   0   3   1   92.52   22.17
   0  -3  -2  304.75   70.37
   0   3   2  304.05   70.22
   0  -3  -3  287.68   66.54
   0   3   3  306.95   70.92
   0   4 -12    2.31    3.40
   0  -4  11    5.82    3.92
   0   4 -11    8.19    4.33
   0  -4  10   10.56    4.76
   0   4 -10   14.96    5.57
   0  -4   9   81.47   20.23
   0   4  -9   60.24   15.43
   0  -4   8   23.06    7.23
   0   4  -8   24.54    7.57
   0  -4   7   25.81    7.90
   0   4  -7   19.86    6.65
   0  -4   6  503.79  116.02
   0   4  -6  466.11  107.48
   0  -4   5   58.50   15.05
   0   4  -5   24.82    7.83
   0  -4   4   12.87    5.59
   0   4  -4   11.13    5.19
   0  -4   3    5.20    4.39
   0   4  -3    8.11    4.64
   0  -4   2   90.05   21.94
   0   4  -2  128.79   30.63
   0  -4   1    7.89    4.45
   0   4  -1    7.98    4.36
   0  -4   0   51.84   13.40
   0   4   0   47.98   12.50
   0  -4  -1    5.93    4.24
   0   4   1    3.18    3.85
   0  -4  -2  144.54   34.27
   0   4   2   99.12   24.00
   0  -4  -3    5.28    4.62
   0   4   3    5.29    4.59
   0  -4  -4   35.09   10.15
   0   4   4   12.39    5.82
   0   5 -10   81.03   20.33
   0  -5   9   63.68   16.33
   0   5  -9   68.17   17.32
   0  -5   8    2.01    2.91
   0   5  -8    5.31    3.40
   0  -5   7   19.79    6.43
   0   5  -7    6.54    3.64
   0  -5   6   36.46   10.07
   0   5  -6    8.87    4.11
   0  -5   5   15.35    5.56
   0   5  -5   18.02    6.01
   0  -5   4   17.19    6.05
   0   5  -4   16.18    5.77
   0  -5   3   27.53    8.26
   0   5  -3   18.72    6.33
   0  -5   2  125.18   30.07
   0   5  -2  114.08   27.54
   0  -5   1   14.06    5.67
   0   5  -1    8.85    4.53
   0  -5   0    2.49    4.04
   0   5   0    4.23    4.04
   0  -5  -1   11.36    5.18
   0   5   1   18.77    6.61
   0  -5  -2   86.99   21.50
   0   5   2   59.43   15.31
   0  -5  -3   85.09   21.09
   0   5   3  137.68   32.97
   0  -5  -4    8.06    4.54
   0   5   4    8.29    4.71
   0   5   5   52.98   13.96
   0   6  -6   72.98   18.48
   0  -6   5   31.56    9.18
   0   6  -5   22.58    7.14
   0  -6   4   26.08    7.92
   0   6  -4   23.54    7.32
   0  -6   3   32.96    9.45
   0   6  -3   63.37   16.24
   0  -6   2   40.29   11.04
   0   6  -2   37.24   10.34
   0  -6   1    3.47    3.20
   0   6  -1    2.60    2.95
   0  -6   0   84.81   21.10
   0   6   0   57.05   14.82
   0  -6  -1   15.19    5.60
   0   6   1   13.20    5.17
   0  -6  -2   48.23   12.87
   0   6   2   20.62    6.75
   0  -6  -3    1.50    2.97
   0   6   3    0.53    2.85
   0  -6  -4   20.09    6.70
   0   6   4   13.36    5.38
   0  -6  -5   38.98   10.93
   0   6   5   32.32    9.60
   0   6   6   43.35   12.04
  -1   6   6   11.54    5.24
   1  -6  -6   14.39    5.58
  -1   6   5    5.60    3.87
   1  -6  -5    5.60    3.74
  -1   6   4   48.86   13.09
   1  -6  -4   49.68   13.27
  -1   6   3   25.76    7.91
   1  -6  -3   25.12    7.77
  -1   6   2   13.58    5.29
   1  -6  -2   15.74    5.78
  -1   6   1   38.86   10.80
   1  -6  -1   44.60   12.12
  -1   6   0    1.17    2.76
   1  -6   0    2.88    3.17
  -1   6  -1   50.06   13.30
   1  -6   1   67.90   17.33
  -1   6  -2   25.07    7.74
   1  -6   2   27.35    8.30
  -1   6  -3    6.36    3.79
   1  -6   3    8.04    4.16
  -1   6  -4    3.31    3.22
   1  -6   4    3.71    3.46
  -1   6  -5    3.38    3.11
   1  -6   5    7.40    4.03
  -1   6  -6    0.31    2.61
   1  -6   6    2.69    3.08
  -1   5   6   11.88    5.27
   1  -5  -6   12.99    5.30
  -1   5   5   39.42   11.01
   1  -5  -5   25.26    7.92
  -1   5   4    7.62    4.28
   1  -5  -4   14.18    5.52
  -1   5   3   60.56   15.56
   1  -5  -3   60.80   15.62
  -1   5   2    4.76    4.02
   1  -5  -2    4.61    3.91
  -1   5   1    8.00    4.48
   1  -5  -1    8.89    4.80
  -1   5   0   14.01    5.47
   1  -5   0   12.99    5.44
  -1   5  -1   12.31    5.18
   1  -5   1   13.57    5.53
  -1   5  -2   42.58   11.52
   1  -5   2   42.41   11.53
  -1   5  -3   18.03    6.23
   1  -5   3   22.15    7.16
  -1   5  -4    7.91    4.09
   1  -5   4    9.86    4.59
  -1   5  -5  341.55   79.39
   1  -5   5  371.83   86.29
  -1   5  -6   47.83   12.69
   1  -5   6   46.38   12.39
  -1   5  -7    1.27    2.79
   1  -5   7    3.20    3.17
  -1   5  -8    0.85    2.71
   1  -5   8    0.15    2.65
  -1   5  -9    3.27    3.19
   1  -5   9    5.50    3.65
  -1   4   5   26.43    8.49
   1  -4  -5   84.22   20.91
  -1   4   4   45.86   12.38
   1  -4  -4   58.06   15.04
  -1   4   3   66.06   16.68
   1  -4  -3   78.71   19.53
  -1   4   2    2.75    4.19
   1  -4  -2    1.62    4.05
  -1   4   1  179.75   42.27
   1  -4  -1  185.30   43.54
  -1   4   0  114.97   27.56
   1  -4   0  113.64   27.31
  -1   4  -1  157.57   37.25
   1  -4   1  149.30   35.41
  -1   4  -2   97.71   23.76
   1  -4   2  100.18   24.33
  -1   4  -3   94.89   23.17
   1  -4   3  105.90   25.69
  -1   4  -4    5.48    4.54
   1  -4   4   12.92    5.75
  -1   4  -5    6.41    4.56
   1  -4   5    2.56    4.25
  -1   4  -6   45.04   12.09
   1  -4   6   31.51    9.23
  -1   4  -7   36.88   10.28
   1  -4   7  165.58   39.29
  -1   4  -8    1.01    3.20
   1  -4   8    1.64    3.38
  -1   4  -9  257.31   60.29
   1  -4   9  292.69   68.33
  -1   4 -10    2.83    3.42
   1  -4  10    5.85    4.01
  -1   4 -11   26.63    8.27
   1  -4  11   21.17    7.10
  -1   3   4   72.76   17.93
   1  -3  -4   49.39   12.75
  -1   3   3  530.63  121.83
   1  -3  -3  520.16  119.45
  -1   3   2   24.42    7.22
   1  -3  -2   35.02    9.51
  -1   3   1   17.29    5.83
   1  -3  -1   21.39    6.71
  -1   3   0  191.81   44.69
   1  -3   0  213.91   49.74
  -1   3  -1   64.21   15.86
   1  -3   1   64.56   15.98
  -1   3  -2   93.31   22.40
   1  -3   2  102.73   24.55
  -1   3  -3  153.79   36.14
   1  -3   3  173.86   40.70
  -1   3  -4  112.85   26.95
   1  -3   4  126.23   29.97
  -1   3  -5   30.19    8.66
   1  -3   5   28.24    8.29
  -1   3  -6  140.85   33.50
   1  -3   6  127.55   30.52
  -1   3  -7   16.62    6.73
   1  -3   7   21.52    7.68
  -1   3  -8   39.41   11.24
   1  -3   8   51.98   13.88
  -1   3  -9  131.51   31.62
   1  -3   9  180.81   42.81
  -1   3 -10   23.15    7.67
   1  -3  10   29.86    9.12
  -1   3 -11   55.08   14.57
   1  -3  11   56.78   14.97
  -1   3 -12   18.53    6.75
   1  -3  12  117.96   28.81
   1  -3  13   16.79    6.54
  -1   2   3   17.58    6.06
   1  -2  -3   18.57    6.35
  -1   2   2  116.11   27.34
   1  -2  -2  125.00   29.35
  -1   2   1   45.42   11.54
   1  -2  -1   44.60   11.42
  -1   2   0  487.76  111.80
   1  -2   0  477.11  109.33
  -1   2  -1  552.73  126.58
   1  -2   1  566.73  129.75
  -1   2  -2  130.19   30.57
   1  -2   2  146.57   34.28
  -1   2  -3  252.91   58.48
   1  -2   3  282.31   65.17
  -1   2  -4  168.49   39.39
   1  -2   4  181.78   42.42
  -1   2  -5   77.27   18.91
   1  -2   5   74.82   18.40
  -1   2  -6  107.31   25.77
   1  -2   6  128.87   30.66
  -1   2  -7  127.64   30.51
   1  -2   7  175.09   41.26
  -1   2  -8  290.93   67.65
   1  -2   8  197.01   46.36
   1  -2   9  101.50   25.06
   1  -1  -2  352.46   80.70
   1  -1  -1  654.93  149.47
   1  -1   0  460.30  105.19
   1  -1   1  409.68   93.75
  -1   1  -2  246.92   56.85
   1  -1   2  277.64   63.83
  -1   1  -3  683.36  156.25
   1  -1   3  683.80  156.34
  -1   1  -4   83.42   20.33
   1  -1   4   73.99   18.33
  -1   0   1  232.92   53.13
  -1   0   0    8.22    3.85
  -1  -1   4  423.33   96.83
   1   1  -4  288.64   66.23
  -1  -1   3  361.44   82.65
   1   1  -3  331.95   75.95
  -1  -1   2  435.83   99.47
   1   1  -2  488.38  111.44
  -1  -1   1  701.58  159.95
   1   1  -1  703.17  160.30
  -1  -2   4  183.54   42.48
  -1  -2   3    6.09    3.67
  -1  -2   2  211.97   48.86
  -1  -3  12   12.40    5.35
   1   3 -12   24.06    7.63
  -1  -3  11   16.88    6.19
   1   3 -11   33.66    9.60
  -1  -3  10  131.25   31.35
   1   3 -10  130.19   31.14
  -1  -3   9    2.19    4.33
   1   3  -9    0.61    4.07
   1   3  -8   21.25    7.20
   1   3  -7   71.14   17.61
   1   3  -6   96.92   23.21
   1   3  -2   28.73    7.83
   1   3  -1   16.10    5.40
  -1  -3   0  318.57   73.39
   1   3   0  351.85   80.95
  -1  -3  -1   39.95   10.48
   1   3   1   31.35    8.64
   1   4 -12    3.38    3.43
   1   4 -11   34.37    9.66
  -1  -4  10   33.26    9.34
   1   4 -10   24.58    7.45
  -1  -4   9   92.25   22.52
   1   4  -9  111.18   26.80
  -1  -4   8   20.96    6.60
   1   4  -8    9.85    4.33
  -1  -4   7   11.20    4.80
   1   4  -7    5.75    3.81
  -1  -4   6   14.76    5.63
   1   4  -6   34.58    9.60
  -1  -4   5   59.68   15.14
   1   4  -5   67.39   16.82
  -1  -4   4  124.38   29.64
   1   4  -4  115.58   27.64
  -1  -4   3   42.32   11.30
   1   4  -3  158.01   37.21
  -1  -4   2    1.14    3.60
   1   4  -2    7.76    4.32
  -1  -4   1  260.39   60.45
   1   4  -1  175.88   41.25
  -1  -4   0  128.17   30.47
   1   4   0  172.45   40.48
  -1  -4  -1  265.93   61.76
   1   4   1  229.49   53.47
  -1  -4  -2   84.21   20.71
   1   4   2  123.33   29.47
   1   5 -10    4.92    3.33
   1   5  -9   95.86   23.47
  -1  -5   8    1.35    2.69
   1   5  -8   11.10    4.46
  -1  -5   7  116.02   27.95
   1   5  -7  135.39   32.35
  -1  -5   6   44.30   11.70
   1   5  -6   19.82    6.27
  -1  -5   5   13.35    5.07
   1   5  -5   26.98    7.86
  -1  -5   4   11.44    4.74
   1   5  -4   13.19    4.99
  -1  -5   3   56.32   14.43
   1   5  -3   51.13   13.25
  -1  -5   2    9.28    4.50
   1   5  -2   11.58    4.78
  -1  -5   1    4.51    3.95
   1   5  -1   11.22    4.88
  -1  -5   0   18.33    6.28
   1   5   0    9.18    4.67
  -1  -5  -1   19.55    6.58
   1   5   1    6.20    4.04
  -1  -5  -2  144.10   34.35
   1   5   2   20.17    6.71
  -1  -5  -3   19.23    6.58
   1   5   3   19.08    6.63
   1   6  -6    5.71    3.51
   1   6  -5   73.86   18.56
   1   6  -4   15.49    5.49
  -1  -6   3   15.05    5.41
   1   6  -3   11.14    4.56
  -1  -6   2    8.57    4.06
   1   6  -2    7.88    3.85
  -1  -6   1   47.99   12.74
   1   6  -1   43.24   11.64
  -1  -6   0    4.04    3.28
   1   6   0    3.38    3.20
  -1  -6  -1   67.81   17.22
   1   6   1   69.24   17.54
  -1  -6  -2  116.20   28.22
   1   6   2  108.72   26.50
  -1  -6  -3    7.13    4.03
   1   6   3    2.85    3.38
  -1  -6  -4    1.51    3.09
   1   6   4    3.19    3.71
   1   6   5    5.82    3.97
  -2   6   5   30.97    9.15
   2  -6  -5   38.13   10.72
  -2   6   4   23.50    7.45
   2  -6  -4   43.79   11.97
  -2   6   3    5.61    3.73
   2  -6  -3    7.87    4.17
  -2   6   2    8.01    4.12
   2  -6  -2   12.69    5.17
  -2   6   1   51.32   13.62
   2  -6  -1   61.89   16.04
  -2   6   0    6.06    3.70
   2  -6   0    6.69    3.86
  -2   6  -1   36.22   10.25
   2  -6   1   43.94   12.01
  -2   6  -2   20.56    6.80
   2  -6   2   22.12    7.17
  -2   6  -3    6.82    3.96
   2  -6   3    7.16    4.06
  -2   6  -4   41.06   11.40
   2  -6   4   49.21   13.26
  -2   5   8    1.31    3.16
  -2   5   7    0.49    3.24
   2  -5  -7    0.71    2.93
  -2   5   6   16.57    5.94
   2  -5  -6   16.54    5.86
  -2   5   5    1.58    3.01
   2  -5  -5    0.43    2.86
  -2   5   4   13.94    5.28
   2  -5  -4    4.29    3.48
  -2   5   3   26.00    7.88
   2  -5  -3   19.24    6.47
  -2   5   2  261.53   61.14
   2  -5  -2  275.26   64.27
  -2   5   1    0.88    2.96
   2  -5  -1    1.73    3.28
  -2   5   0   29.66    8.66
   2  -5   0   44.85   12.03
  -2   5  -1   23.43    7.30
   2  -5   1   26.73    8.05
  -2   5  -2  132.66   31.88
   2  -5   2  121.30   29.32
  -2   5  -3    5.39    3.57
   2  -5   3    4.53    3.55
  -2   5  -4   50.99   13.42
   2  -5   4   62.56   16.04
  -2   5  -5   15.52    5.57
   2  -5   5   12.91    5.07
  -2   5  -6   30.00    8.80
   2  -5   6   33.69    9.63
  -2   5  -7   11.99    4.91
   2  -5   7   10.39    4.63
  -2   5  -8   49.08   13.20
   2  -5   8   55.10   14.58
  -2   4   7   10.06    4.82
  -2   4   6  176.85   41.78
   2  -4  -6  185.04   43.64
  -2   4   5    5.85    4.41
   2  -4  -5   22.90    7.44
  -2   4   4   22.10    7.28
   2  -4  -4   14.42    5.90
  -2   4   3    2.93    4.36
   2  -4  -3    1.75    4.19
  -2   4   2   65.11   16.53
   2  -4  -2   55.01   14.34
  -2   4   1  124.65   29.85
   2  -4  -1   92.25   22.58
  -2   4   0   93.49   22.88
   2  -4   0   49.62   13.18
  -2   4  -1    4.60    4.46
   2  -4   1   12.47    5.73
  -2   4  -2  155.55   36.93
   2  -4   2  188.03   44.31
  -2   4  -3   19.82    6.83
   2  -4   3   27.99    8.54
  -2   4  -4   22.07    7.18
   2  -4   4   18.03    6.45
  -2   4  -5    8.32    4.44
   2  -4   5   12.47    5.25
  -2   4  -6  149.47   35.68
   2  -4   6  167.61   39.79
  -2   4  -7   25.96    7.91
   2  -4   7   28.28    8.42
  -2   4  -8   11.97    5.00
   2  -4   8   14.36    5.54
  -2   4  -9   16.88    6.09
   2  -4   9   16.47    6.06
  -2   4 -10    4.32    3.81
   2  -4  10    3.37    3.64
  -2   3   5   10.70    5.04
   2  -3  -5   19.84    6.63
  -2   3   4   21.99    6.80
   2  -3  -4    0.93    3.45
  -2   3   3  167.08   39.16
   2  -3  -3  153.52   36.09
  -2   3   2  158.54   37.20
   2  -3  -2  114.26   27.19
  -2   3   1   91.11   21.92
   2  -3  -1  173.33   40.56
  -2   3   0  205.02   47.76
   2  -3   0  263.82   61.14
  -2   3  -1   51.46   13.10
   2  -3   1   41.62   11.00
  -2   3  -2  201.76   47.11
   2  -3   2  247.36   57.48
  -2   3  -3  156.16   36.82
   2  -3   3  188.29   44.11
  -2   3  -4    0.56    3.75
   2  -3   4    3.49    4.17
  -2   3  -5   16.12    6.38
   2  -3   5   14.89    6.15
  -2   3  -6    1.77    4.59
   2  -3   6    1.69    4.63
  -2   3  -7   15.15    6.21
   2  -3   7   13.22    6.00
  -2   3  -8   49.58   13.27
   2  -3   8   52.86   14.03
  -2   3  -9   49.99   13.42
   2  -3   9   50.37   13.49
  -2   3 -10   68.78   17.65
   2  -3  10   72.29   18.46
  -2   3 -11    9.67    5.02
   2  -3  11   18.92    6.92
  -2   3 -12   41.61   11.77
   2  -3  12   51.39   13.98
  -2   2   4   31.13    8.42
   2  -2  -4   39.53   10.26
  -2   2   3   53.94   13.32
   2  -2  -3   69.87   16.91
  -2   2   2  426.85   97.98
   2  -2  -2  377.91   86.80
  -2   2   1  137.15   32.08
   2  -2  -1  302.55   69.68
  -2   2   0  819.01  187.24
   2  -2   0  927.82  212.06
  -2   2  -1  249.74   57.73
   2  -2   1  576.50  132.13
  -2   2  -2  876.14  200.35
   2  -2   2  905.81  207.04
  -2   2  -3   37.20    9.96
   2  -2   3   37.42   10.00
  -2   2  -4   43.22   11.39
   2  -2   4   50.43   13.00
  -2   2  -5  203.79   47.64
   2  -2   5  216.20   50.47
  -2   2  -6   21.62    7.58
   2  -2   6   20.84    7.42
  -2   2  -7   28.46    9.26
   2  -2   7   13.34    6.83
  -2   2  -8  125.18   30.29
   2  -2   8   73.79   18.92
   2  -2   9   68.66   17.71
  -2   1   3   41.51   10.34
   2  -1  -3   28.86    7.64
  -2   1   2  194.10   44.72
   2  -1  -2  145.51   33.69
  -2   1   1   24.73    6.77
   2  -1  -1   18.06    5.45
   2  -1   0    1.80    3.22
   2  -1   1  158.80   36.88
  -2   1  -2  228.87   52.91
   2  -1   2  319.72   73.55
  -2   1  -3  251.76   58.22
   2  -1   3  238.12   55.14
  -2   1  -4  527.73  121.04
   2  -1   4  377.99   87.01
  -2   0   2  182.83   41.81
   2   0  -2  145.25   33.25
  -2   0   1    1.16    2.28
  -2  -1   4 1000.00  227.99
   2   1  -4  489.44  111.71
  -2  -1   3   67.76   15.70
   2   1  -3   65.77   15.26
  -2  -1   2  201.32   46.02
   2   1  -2  167.43   38.30
  -2  -2   8   17.19    6.45
   2   2  -8  163.12   38.19
  -2  -2   7  544.63  124.74
   2   2  -7  568.31  130.19
  -2  -2   6  221.13   51.04
   2   2  -6  219.81   50.74
  -2  -2   5  390.76   89.53
   2   2  -5  447.89  102.55
  -2  -2   4   47.30   11.45
   2   2  -4   87.54   20.51
  -2  -2   3   96.04   22.42
   2   2  -3   80.94   19.00
  -2  -2   2  493.66  112.85
   2   2  -2  468.93  107.22
  -2  -2   1  360.83   82.66
   2   2  -1  357.66   81.95
  -2  -3  11    9.86    4.58
   2   3 -11    7.90    4.22
  -2  -3  10  131.69   31.27
   2   3 -10  164.52   38.73
  -2  -3   9   66.45   16.46
   2   3  -9   65.54   16.28
  -2  -3   8    2.36    3.72
   2   3  -8    4.99    4.03
  -2  -3   7    6.26    4.09
   2   3  -7    4.90    3.91
  -2  -3   6   10.04    4.44
   2   3  -6    4.19    3.59
  -2  -3   5    9.77    4.12
   2   3  -5    3.40    3.17
  -2  -3   4    2.35    3.07
   2   3  -4    0.57    2.85
  -2  -3   3  157.75   36.72
   2   3  -3  148.06   34.51
  -2  -3   2  133.19   31.16
   2   3  -2  157.31   36.62
  -2  -3   1   46.75   11.71
   2   3  -1   36.88    9.52
  -2  -3   0  184.51   42.89
  -2  -4   9    8.77    3.84
   2   4  -9   42.64   11.14
  -2  -4   8   23.73    6.92
   2   4  -8    3.49    2.88
  -2  -4   7   41.17   10.74
   2   4  -7   17.76    5.64
  -2  -4   6  288.03   66.68
   2   4  -6  277.38   64.26
  -2  -4   5    3.19    3.62
   2   4  -5   14.82    5.33
  -2  -4   4   26.62    7.80
   2   4  -4   14.58    5.38
  -2  -4   3    1.86    3.58
  -2  -4   2   25.31    7.68
   2   4   1   11.52    5.46
   2   5  -2  270.69   62.95
   2   5  -1    4.63    3.31
  -2  -5   0   35.17    9.64
   2   5   0   40.71   10.85
  -2  -5  -1   19.12    6.26
   2   5   1   13.45    5.16
  -2  -5  -2   80.87   20.00
   2   5   2  111.36   26.90
   2   6  -5   21.10    6.62
   2   6  -4   27.67    8.05
   2   6  -3    5.23    3.24
   2   6  -2    9.43    4.16
   2   6  -1   52.00   13.56
   2   6   0    1.64    2.76
   2   6   1   17.00    5.86
   2   6   2    5.63    3.82
   2   6   3   27.71    8.48
  -3   6   1    5.76    3.66
  -3   5   8    3.68    3.70
   3  -5  -8    7.44    4.04
  -3   5   7   43.90   11.91
   3  -5  -7   23.86    7.42
  -3   5   6    4.80    3.40
   3  -5  -6    7.29    3.86
  -3   5   5   86.32   21.38
   3  -5  -5   80.25   20.01
  -3   5   4    4.14    3.31
   3  -5  -4    3.51    3.24
  -3   5   3   78.10   19.50
   3  -5  -3   89.08   21.99
  -3   5   2    1.36    2.70
   3  -5  -2    4.98    3.49
  -3   5   1    3.79    3.20
   3  -5  -1   10.90    4.59
  -3   5   0    0.87    2.71
   3  -5   0    1.57    2.96
  -3   5  -1   73.34   18.48
   3  -5   1   70.61   17.87
  -3   5  -2   13.06    5.03
   3  -5   2   14.37    5.41
  -3   5  -3    3.40    3.05
   3  -5   3    1.15    2.71
  -3   5  -4   17.71    6.06
   3  -5   4   38.31   10.67
  -3   5  -5  186.71   44.37
   3  -5   5  155.63   37.31
  -3   5  -6    1.68    2.92
   3  -5   6    1.47    2.86
  -3   4   8  107.22   26.02
  -3   4   7   28.03    8.24
   3  -4  -7   34.45    9.60
  -3   4   6    5.05    3.51
   3  -4  -6   12.57    4.90
  -3   4   5    2.80    3.17
   3  -4  -5    3.46    3.29
  -3   4   4   79.46   19.62
   3  -4  -4   12.47    5.06
  -3   4   3   28.39    8.29
   3  -4  -3   33.59    9.45
  -3   4   2    8.86    4.31
   3  -4  -2   50.07   13.06
  -3   4   1   51.94   13.48
   3  -4  -1   76.35   18.98
  -3   4   0  132.48   31.66
   3  -4   0   15.52    5.77
  -3   4  -1  248.94   58.14
   3  -4   1  259.51   60.56
  -3   4  -2   36.92   10.15
   3  -4   2   42.47   11.40
  -3   4  -3   19.33    6.35
   3  -4   3    4.81    3.57
  -3   4  -4   20.11    6.52
   3  -4   4   27.16    8.05
  -3   4  -5   14.53    5.35
   3  -4   5   15.10    5.51
  -3   4  -6   34.01    9.65
   3  -4   6   37.66   10.48
  -3   4  -7    2.83    3.18
   3  -4   7    5.95    3.86
  -3   4  -8   11.29    4.94
   3  -4   8   11.52    5.00
  -3   4  -9   67.30   17.39
   3  -4   9  104.14   25.74
  -3   3   7  219.28   51.20
  -3   3   6   35.09    9.74
   3  -3  -6   16.73    6.06
  -3   3   5   17.07    6.04
   3  -3  -5   14.09    5.57
  -3   3   4   27.08    8.10
   3  -3  -4    4.32    4.12
  -3   3   3   63.97   16.00
   3  -3  -3   51.00   13.19
  -3   3   2   75.80   18.61
   3  -3  -2  106.25   25.48
  -3   3   1    3.95    3.94
   3  -3  -1    3.49    4.03
  -3   3   0   64.57   16.18
   3  -3   0   59.90   15.20
  -3   3  -1   43.20   11.50
   3  -3   1   50.58   13.17
  -3   3  -2    1.99    3.94
   3  -3   2    2.87    4.16
  -3   3  -3   51.07   13.38
   3  -3   3   40.17   11.03
  -3   3  -4   18.42    6.48
   3  -3   4   15.84    6.06
  -3   3  -5  266.29   62.11
   3  -3   5  244.01   57.06
  -3   3  -6   82.03   20.39
   3  -3   6   89.35   22.05
  -3   3  -7   54.20   14.22
   3  -3   7   51.76   13.66
  -3   3  -8    1.70    3.46
   3  -3   8    3.38    3.77
  -3   3  -9    9.30    4.83
   3  -3   9    4.06    3.91
  -3   3 -10   14.13    5.85
   3  -3  10   12.46    5.60
   3  -2  -5  152.11   35.58
   3  -2  -4  251.67   58.16
   3  -2  -3   81.46   19.53
   3  -2  -2   93.49   22.25
   3  -2  -1   57.05   14.12
  -3   2  -1  294.89   68.09
   3  -2   1  360.12   82.96
  -3   2  -2  844.19  193.22
   3  -2   2  692.96  158.80
  -3   2  -3   92.34   22.34
   3  -2   3  144.81   34.22
  -3   2  -4  106.43   25.67
   3  -2   4   73.49   18.34
  -3   2  -5    1.42    4.83
   3  -2   5    8.34    5.61
  -3   2  -6   13.06    6.33
   3  -2   6   16.41    6.98
  -3   2  -7  130.11   31.30
   3  -2   7   64.89   16.75
  -3   2  -8  115.58   28.07
   3  -2   8  100.70   24.74
   3  -2   9   21.60    7.45
  -3   1   5   53.13   12.92
  -3   1   4   18.86    5.34
  -3   1   3  293.93   67.46
  -3   1   2   11.25    3.88
  -3   1   1  822.09  187.76
  -3   1   0   52.12   12.75
   3  -1   0   66.22   15.90
   3  -1   1   45.30   11.40
   3  -1   2    2.41    3.74
  -3   1  -3  126.23   29.86
   3  -1   3  148.06   34.82
  -3   1  -4   34.33    9.78
   3  -1   4   57.70   14.79
  -3   0   4    5.43    2.32
  -3   0   3   14.45    3.84
   3   0  -3    8.57    2.64
  -3   0   2   18.54    4.80
   3   0  -2    2.86    1.93
  -3   0   1    4.22    2.86
   3   0  -1    1.05    2.52
  -3  -1   4   34.96    8.18
  -3  -2   8  143.49   33.52
   3   2  -8   45.73   11.65
  -3  -2   7  146.74   34.12
   3   2  -7  162.24   37.63
  -3  -2   6   11.33    4.04
   3   2  -6    5.23    3.12
  -3  -2   5  252.64   57.96
   3   2  -5  239.08   54.88
  -3  -2   4  234.33   53.75
   3   2  -4  294.81   67.50
  -3  -2   3    6.52    2.67
   3   2  -3    9.37    3.19
   3   3 -12   14.08    5.14
  -3  -3  11   46.10   11.88
   3   3 -11   15.78    5.36
  -3  -3  10   46.44   11.81
   3   3 -10   12.39    4.50
  -3  -3   9   70.23   17.05
   3   3  -9   75.11   18.15
  -3  -3   8   27.54    7.47
   3   3  -8   30.42    8.09
  -3  -3   7  335.74   77.24
   3   3  -7  310.39   71.46
  -3  -3   6   34.23    8.86
   3   3  -6   30.33    8.00
  -3  -3   5   27.99    7.55
   3   3  -5   16.87    5.26
  -3  -3   4   14.82    4.87
   3   3  -4   23.05    6.51
  -3  -3   3   75.33   18.05
   3   3  -3   62.71   15.20
  -3  -3   2   38.72    9.94
   3   3  -2   71.07   17.10
   3   3  -1   18.05    5.81
   3   4 -10    1.85    2.52
  -3  -4   9   14.59    4.79
   3   4  -9   23.26    6.64
  -3  -4   8  113.12   26.86
   3   4  -8   84.32   20.32
  -3  -4   7   31.02    8.25
   3   4  -7   42.03   10.70
  -3  -4   6    1.86    2.59
   3   4  -6    3.22    2.60
  -3  -4   5   90.67   21.68
   3   4  -5    7.30    3.34
  -3  -4   4   19.46    5.82
   3   4  -4   23.77    6.69
  -3  -4   3  169.81   39.66
   3   4  -3   31.85    8.57
  -3  -4   2   47.29   11.99
   3   4  -2   11.07    4.35
  -3  -4   1    3.87    3.43
   3   4  -1    5.89    3.67
   3   4   0   15.65    5.49
   3   5  -7   56.88   14.30
   3   5  -6    3.17    2.68
   3   5  -5   78.20   19.08
  -3  -5   4    0.75    2.37
   3   5  -4    1.82    2.39
  -3  -5   3  137.06   32.47
   3   5  -3   88.91   21.53
  -3  -5   2    3.97    2.90
   3   5  -2    0.57    2.35
  -3  -5   1   25.35    7.31
   3   5  -1   27.47    7.75
  -3  -5   0    5.09    3.31
  -4   5   5    3.35    3.07
   4  -5  -5    9.82    4.40
  -4   5   4    4.47    3.24
   4  -5  -4    6.54    3.69
  -4   5   3   25.19    7.60
   4  -5  -3   22.35    7.03
  -4   5   2   98.68   24.23
   4  -5  -2   69.15   17.54
  -4   5   1    3.73    3.15
   4  -5  -1    4.98    3.47
  -4   5   0   39.49   10.90
   4  -5   0   30.93    8.99
  -4   5  -1   16.54    5.80
   4  -5   1   15.08    5.57
  -4   5  -2   20.40    6.65
   4  -5   2   30.41    8.90
  -4   4   9    4.21    3.52
   4  -4  -9    1.85    2.83
  -4   4   8   22.40    6.96
   4  -4  -8   33.72    9.40
  -4   4   7   30.96    8.71
   4  -4  -7    7.40    3.68
  -4   4   6  133.98   31.99
   4  -4  -6  117.96   28.36
  -4   4   5    3.79    3.02
   4  -4  -5    1.29    2.70
  -4   4   4   69.99   17.45
   4  -4  -4   75.24   18.64
  -4   4   3   14.21    4.99
   4  -4  -3    3.91    3.02
  -4   4   2   30.04    8.48
   4  -4  -2   38.10   10.33
  -4   4   1    8.37    3.91
   4  -4  -1    8.57    4.03
  -4   4   0   16.74    5.64
   4  -4   0   13.83    5.14
  -4   4  -1   56.01   14.37
   4  -4   1   48.69   12.74
  -4   4  -2   46.62   12.30
   4  -4   2   10.69    4.42
  -4   4  -3    1.63    2.71
   4  -4   3    8.51    4.00
  -4   4  -4   88.12   21.81
   4  -4   4  114.97   27.91
  -4   4  -5   14.30    5.32
   4  -4   5   19.91    6.55
  -4   4  -6   25.55    7.88
   4  -4   6   20.67    6.81
  -4   3   8   35.58    9.67
   4  -3  -8   61.89   15.48
   4  -3  -7    1.60    2.66
   4  -3  -6   23.11    6.77
   4  -3  -5   93.66   22.60
  -4   3   4   12.47    4.60
   4  -3  -4   62.38   15.52
  -4   3   3   12.96    4.72
   4  -3  -3   19.97    6.20
  -4   3   2  138.56   32.77
   4  -3  -2  205.37   47.97
  -4   3   1    7.70    3.88
   4  -3  -1    5.23    3.63
  -4   3   0   89.88   21.81
   4  -3   0   90.58   21.99
  -4   3  -1   56.35   14.29
   4  -3   1   40.88   10.85
  -4   3  -2   36.55    9.91
   4  -3   2   31.50    8.82
  -4   3  -3   56.81   14.50
   4  -3   3   30.72    8.70
  -4   3  -4    2.08    2.96
   4  -3   4    2.99    3.13
  -4   3  -5   11.87    4.86
   4  -3   5    1.27    3.04
  -4   3  -6  168.57   40.07
   4  -3   6  160.65   38.28
  -4   3  -7   54.13   14.26
   4  -3   7   80.90   20.27
  -4   3  -8   62.19   16.15
   4  -3   8   30.89    9.23
  -4   2   7   76.32   18.50
   4  -2  -7   25.46    7.18
  -4   2   6   37.40    9.74
   4  -2  -6   62.94   15.43
  -4   2   5   83.85   20.16
   4  -2  -5  110.04   26.06
  -4   2   4   71.16   17.32
   4  -2  -4   80.03   19.30
  -4   2   2   59.67   14.81
   4  -2  -2   43.50   11.26
   4  -2  -1  143.13   33.64
   4  -2   0   69.56   17.10
  -4   2  -1    9.31    4.47
   4  -2   1    5.95    4.06
  -4   2  -2   17.49    6.04
   4  -2   2   13.90    5.46
  -4   2  -3   18.92    6.41
   4  -2   3    5.06    4.06
  -4   2  -4    7.34    4.39
   4  -2   4    3.58    3.89
  -4   2  -5   68.46   17.24
   4  -2   5  150.79   35.84
  -4   2  -6   11.38    5.12
   4  -2   6    2.29    3.82
  -4   2  -7   44.62   12.10
   4  -2   7   25.37    8.00
  -4   2  -8   73.85   18.71
   4  -2   8   12.12    5.42
   4  -2   9   13.98    5.87
  -4   1   6   43.54   10.89
   4  -1  -6   65.08   15.68
  -4   1   5   48.38   11.89
   4  -1  -5   24.74    6.75
  -4   1   4  175.26   40.56
   4  -1  -4  166.73   38.62
  -4   1   3  278.35   64.01
   4  -1  -3  298.77   68.66
  -4   1   2    3.70    3.05
  -4   1   1   50.76   12.55
  -4   1   0   97.45   23.17
   4  -1   0   82.74   19.84
  -4   1  -1   57.65   14.44
   4  -1   1   73.78   18.01
   4  -1   2  133.89   31.68
  -4   1  -3   51.39   13.45
   4  -1   3   57.91   14.92
  -4   1  -4  269.98   62.74
   4  -1   4   51.07   13.52
  -4   0   5   26.75    6.70
   4   0  -5   48.78   11.59
  -4   0   4  145.86   33.54
   4   0  -4  159.86   36.73
  -4   0   3    1.30    2.02
   4   0  -3   21.41    5.52
  -4   0   2  168.13   38.74
   4   0  -2  194.98   44.85
  -4   0   1    7.29    3.81
   4   0  -1   13.74    4.64
   4   0   0  222.89   51.44
  -4  -2   8   16.31    4.75
  -4  -2   7   29.83    7.43
   4   2  -7   61.84   14.62
  -4  -2   6   85.11   19.77
   4   2  -6   75.65   17.63
  -4  -2   5  130.28   30.00
   4   2  -5   95.60   22.10
  -4  -2   4   36.94    8.88
   4   2  -4   70.04   16.32
  -4  -3  10   27.70    7.41
   4   3 -10   11.51    4.02
  -4  -3   9   57.07   13.86
   4   3  -9   49.50   12.17
  -4  -3   8   90.76   21.40
   4   3  -8   74.82   17.79
  -4  -3   7   12.10    3.70
   4   3  -7    2.08    1.87
  -4  -3   6   23.77    6.22
   4   3  -6   46.46   11.27
  -4  -3   5  146.74   34.01
   4   3  -5  124.65   28.99
  -4  -3   4   23.53    6.20
   4   3  -4   13.25    4.05
  -4  -3   3   16.14    4.78
   4   3  -3   59.75   14.35
   4   4  -8   26.97    7.22
  -4  -4   7   19.53    5.59
   4   4  -7   18.62    5.34
  -4  -4   6   68.64   16.57
   4   4  -6  163.29   38.06
  -4  -4   5    0.43    1.93
   4   4  -5    3.08    2.22
  -4  -4   4   74.27   17.84
   4   4  -4   91.11   21.66
  -4  -4   3   42.08   10.60
   4   4  -3   16.76    5.00
  -4  -4   2   14.23    4.65
   4   4  -2   12.47    4.30
   4   5  -4    7.31    3.31
   4   5  -3   21.14    6.20
   4   5  -2   92.87   22.39
   4   5  -1    5.41    3.30
   5  -4  -5   18.39    5.93
  -5   4   4    1.58    2.46
   5  -4  -4    9.23    3.94
  -5   4   3   70.63   17.66
   5  -4  -3  100.70   24.48
  -5   4   2    7.41    3.64
   5  -4  -2    4.51    3.11
  -5   4   1   21.85    6.72
   5  -4  -1    9.89    4.26
  -5   4   0    1.40    2.46
   5  -4   0   11.12    4.46
  -5   4  -1   91.20   22.43
   5  -4   1  174.30   41.34
  -5   4  -2   31.87    9.08
   5  -4   2   41.27   11.19
   5  -3  -8   40.78   10.70
  -5   3   7   25.77    7.31
   5  -3  -7   32.47    8.78
   5  -3  -6   16.91    5.38
   5  -3  -5  112.06   26.76
   5  -3  -4   17.29    5.43
   5  -3  -3   68.83   16.99
   5  -3  -2   72.39   17.83
  -5   3   1   84.12   20.49
   5  -3  -1   94.81   22.92
  -5   3   0   23.73    6.94
   5  -3   0   19.15    5.95
  -5   3  -1   36.07    9.74
   5  -3   1   33.75    9.24
  -5   3  -2    2.91    2.73
   5  -3   2    4.62    3.09
  -5   3  -3   19.45    6.23
   5  -3   3    6.69    3.60
  -5   3  -4   22.77    7.05
   5  -3   4   29.88    8.65
  -5   3  -5   57.06   14.82
   5  -3   5   73.91   18.62
  -5   2   8   30.50    8.17
  -5   2   7    3.48    2.44
  -5   2   6   40.03   10.20
  -5   2   5   19.27    5.57
  -5   2   4   64.82   15.79
  -5   2   3   79.06   19.04
  -5   2   2   36.03    9.37
   5  -2  -2   29.85    8.00
  -5   2   1   16.16    5.06
   5  -2  -1    8.70    3.54
   5  -2   0   10.41    3.97
   5  -2   1    2.50    2.61
  -5   2  -2   14.48    4.99
   5  -2   2   20.29    6.25
  -5   2  -3   21.11    6.51
   5  -2   3   28.14    8.06
  -5   2  -4   53.08   13.70
   5  -2   4   67.61   16.96
  -5   2  -5   33.17    9.43
   5  -2   5   23.30    7.27
  -5   2  -6   22.71    7.28
   5  -2   6    7.04    4.31
  -5   2  -7   12.71    5.33
   5  -2   7   12.81    5.43
  -5   1   7   21.43    5.80
   5  -1  -7   17.04    4.86
  -5   1   6   29.54    7.57
   5  -1  -6   60.96   14.61
  -5   1   5   30.18    7.68
   5  -1  -5  124.65   29.06
  -5   1   4   14.70    4.37
   5  -1  -4   21.84    5.89
  -5   1   3    8.46    3.16
   5  -1  -3    2.99    2.26
  -5   1   2   48.67   11.96
   5  -1  -2   33.77    8.62
  -5   1   1  113.82   26.80
  -5   1   0   29.53    7.98
  -5   1  -1   13.94    4.89
   5  -1   1   13.45    4.71
  -5   1  -2   14.16    5.14
   5  -1   2    9.72    4.24
   5  -1   3   22.07    6.83
  -5   1  -4   39.74   10.70
   5  -1   4   60.70   15.36
   5  -1   5    5.20    3.92
  -5   0   6    3.38    1.73
   5   0  -6    4.51    1.93
  -5   0   5  233.36   53.51
   5   0  -5  356.16   81.47
  -5   0   4   17.91    4.68
   5   0  -4    4.59    2.02
  -5   0   3   61.12   14.46
   5   0  -3   53.92   12.82
  -5   0   2    2.47    2.43
   5   0  -2    1.43    2.18
  -5   0   1   34.71    8.91
   5   0  -1   31.10    8.07
   5   0   0   21.25    6.21
  -5  -2   8   41.60    9.94
  -5  -2   7    2.83    1.37
   5   2  -7    7.86    2.36
   5   2  -6   54.64   12.69
   5   2  -5   46.25   10.79
  -5  -3   8   44.61   10.79
   5   3  -8   43.88   10.63
  -5  -3   7   29.37    7.31
   5   3  -7   38.58    9.37
  -5  -3   6   27.16    6.79
   5   3  -6   30.85    7.62
  -5  -3   5    1.80    1.59
   5   3  -5   26.54    6.67
   5   3  -4    4.54    2.15
   5   4  -3  106.95   25.26
   6  -2  -5    5.78    2.77
   6  -2  -4   20.78    5.96
  -6   2   3   31.50    8.36
  -6   2   2   21.14    6.12
   6  -2   0    7.77    3.42
   6  -2   1    4.68    2.96
  -6   1   7    3.79    2.17
   6  -1  -7   21.74    5.83
  -6   1   6   89.35   21.10
   6  -1  -6   52.63   12.77
  -6   1   5   35.27    8.87
   6  -1  -5   56.57   13.67
  -6   1   4    8.47    3.01
   6  -1  -4   14.60    4.33
  -6   1   3    6.88    2.77
   6  -1  -3   13.52    4.12
  -6   1   2    4.15    2.38
   6  -1  -2    3.55    2.24
  -6   1   1   31.35    8.26
   6  -1  -1   47.48   11.87
  -6   1   0   10.49    3.92
  -6   1  -1   28.94    8.01
  -6   1  -2   38.74   10.34
   6  -1   2   33.72    9.17
   6  -1   3    6.54    3.82
  -6   0   7   21.44    5.45
   6   0  -7    1.42    1.38
  -6   0   6   29.94    7.34
   6   0  -6    6.59    2.23
  -6   0   5    1.25    1.37
   6   0  -5   18.59    4.83
  -6   0   4   48.56   11.63
   6   0  -4   55.08   13.10
  -6   0   3    7.81    2.83
   6   0  -3    1.47    1.72
  -6   0   2  146.66   34.11
   6   0  -2  120.42   28.13
  -6   0   1    3.95    2.71
   6   0  -1    4.28    2.70
   6   0   0   56.86   13.99
   0   0   0    0.00    0.00
;
_shelx_hkl_checksum              83305
loop_
_space_group_symop_operation_xyz
'x, y, z'
'-x+1/2, y+1/2, -z+1/2'
'-x, -y, -z'
'x-1/2, -y-1/2, z-1/2'
loop_
_atom_site_label
_atom_site_type_symbol
_atom_site_fract_x
_atom_site_fract_y
_atom_site_fract_z
_atom_site_U_iso_or_equiv
_atom_site_adp_type
_atom_site_occupancy
_atom_site_site_symmetry_order
_atom_site_calc_flag
Se1 Se 0.5180(8) 0.3599(7) 0.3345(5) 0.0049(12) Uiso 1 1 d
Fe1 Fe 0.4595(9) 0.2557(8) 0.0717(5) 0.0091(13) Uiso 1 1 d
O1 O 0.332(3) 0.621(2) 0.3468(16) 0.017(3) Uiso 1 1 d
O2 O 0.809(3) 0.439(2) 0.4254(15) 0.013(3) Uiso 1 1 d
O3 O 0.617(2) 0.422(2) 0.2083(14) 0.010(2) Uiso 1 1 d
F1 F 0.268(2) 0.5717(19) 0.0096(13) 0.012(2) Uiso 1 1 d
loop_
_atom_type_symbol
_atom_type_description
_atom_type_scat_dispersion_real
_atom_type_scat_dispersion_imag
_atom_type_scat_source
O O 0.0000 0.0000 'International Tables Vol C Tables 4.2.6.8 and 6.1.1.4'
F F 0.0000 0.0000 'International Tables Vol C Tables 4.2.6.8 and 6.1.1.4'
Fe Fe 0.0000 0.0000 'International Tables Vol C Tables 4.2.6.8 and 6.1.1.4'
Se Se 0.0000 0.0000 'International Tables Vol C Tables 4.2.6.8 and 6.1.1.4'
loop_
_geom_angle_atom_site_label_1
_geom_angle_atom_site_label_2
_geom_angle_atom_site_label_3
_geom_angle
_geom_angle_site_symmetry_1
_geom_angle_site_symmetry_3
O1 Se1 O3 99.0(8) . .
O1 Se1 O2 100.0(7) . .
O3 Se1 O2 101.8(7) . .
O3 Fe1 O1 88.5(7) . 2_545
O3 Fe1 F1 89.7(6) . 3_665
O1 Fe1 F1 173.6(5) 2_545 3_665
O3 Fe1 F1 93.7(6) . .
O1 Fe1 F1 97.8(6) 2_545 .
F1 Fe1 F1 76.2(5) 3_665 .
O3 Fe1 O2 101.0(6) . 2_645
O1 Fe1 O2 99.0(5) 2_545 2_645
F1 Fe1 O2 87.4(5) 3_665 2_645
F1 Fe1 O2 157.9(7) . 2_645
O3 Fe1 O2 176.7(5) . 4_565
O1 Fe1 O2 92.6(6) 2_545 4_565
F1 Fe1 O2 89.6(6) 3_665 4_565
F1 Fe1 O2 89.2(6) . 4_565
O2 Fe1 O2 75.7(7) 2_645 4_565
Se1 O1 Fe1 141.7(9) . 2
Se1 O2 Fe1 129.0(8) . 2_655
Se1 O2 Fe1 126.2(7) . 4_666
Fe1 O2 Fe1 104.3(7) 2_655 4_666
Se1 O3 Fe1 123.2(7) . .
Fe1 F1 Fe1 103.8(5) 3_665 .
loop_
_geom_bond_atom_site_label_1
_geom_bond_atom_site_label_2
_geom_bond_distance
_geom_bond_site_symmetry_2
Se1 O1 1.660(13) .
Se1 O3 1.690(16) .
Se1 O2 1.735(15) .
Fe1 O3 1.928(16) .
Fe1 O1 1.983(16) 2_545
Fe1 F1 1.986(13) 3_665
Fe1 F1 1.991(13) .
Fe1 O2 2.007(12) 2_645
Fe1 O2 2.079(17) 4_565
O1 Fe1 1.983(16) 2
O2 Fe1 2.007(12) 2_655
O2 Fe1 2.079(17) 4_666
F1 Fe1 1.986(13) 3_665

_cod_database_fobs_code 2300639
