#------------------------------------------------------------------------------
#$Date: 2018-03-27 07:57:23 +0300 (Tue, 27 Mar 2018) $
#$Revision: 207125 $
#$URL: file:///home/coder/svn-repositories/cod/cif/2/30/06/2300631.cif $
#------------------------------------------------------------------------------
#
# This file is available in the Crystallography Open Database (COD),
# http://www.crystallography.net/. The original data for this entry
# were provided by IUCr Journals, http://journals.iucr.org/.
#
# The file may be used within the scientific community so long as
# proper attribution is given to the journal article from which the
# data were obtained.
#
data_2300631
loop_
_publ_author_name
'Solar, Michael'
'Trapp, Nils'
_publ_section_title
;
 \mCHILL: a lightweight, modular system for handling crystalline samples
 at low temperatures under inert conditions
;
_journal_coeditor_code           GJ5200
_journal_issue                   2
_journal_name_full               'Journal of Applied Crystallography'
_journal_page_first
;
;
_journal_paper_doi               10.1107/S1600576718003291
_journal_volume                  51
_journal_year                    2018
_chemical_formula_moiety         '0.25(B4 H16 Li4)'
_chemical_formula_sum            'B H4 Li'
_chemical_formula_weight         21.78
_chemical_name_systematic        'Lithium borohydride'
_space_group_crystal_system      orthorhombic
_space_group_IT_number           62
_space_group_name_Hall           '-P 2ac 2n'
_space_group_name_H-M_alt        'P n m a'
_symmetry_space_group_name_Hall  '-P 2ac 2n'
_symmetry_space_group_name_H-M   'P n m a'
_atom_sites_solution_hydrogens   difmap
_atom_sites_solution_primary     iterative
_audit_creation_method
;
Olex2 1.2
(compiled 2017.08.10 svn.r3458 for OlexSys, GUI svn.r5381)
;
_cell_angle_alpha                90
_cell_angle_beta                 90
_cell_angle_gamma                90
_cell_formula_units_Z            4
_cell_length_a                   7.1374(7)
_cell_length_b                   4.4172(5)
_cell_length_c                   6.7029(8)
_cell_measurement_reflns_used    322
_cell_measurement_temperature    100.00(10)
_cell_measurement_theta_max      77.1940
_cell_measurement_theta_min      9.0690
_cell_volume                     211.32(4)
_computing_cell_refinement       'CrysAlisPro 1.171.39.31d (Rigaku OD, 2017)'
_computing_data_collection       'CrysAlisPro 1.171.39.31d (Rigaku OD, 2017)'
_computing_data_reduction        'CrysAlisPro 1.171.39.31d (Rigaku OD, 2017)'
_computing_molecular_graphics    'Olex2 (Dolomanov et al., 2009)'
_computing_publication_material  'Olex2 (Dolomanov et al., 2009)'
_computing_structure_refinement  'ShelXL (Sheldrick, 2015)'
_computing_structure_solution
;
Superflip (Palatinus & Chapuis, 2007;Palatinus & van der Lee, 2008;
Palatinus et al., 2012)
;
_diffrn_ambient_temperature      100.00(10)
_diffrn_measured_fraction_theta_full 0.986
_diffrn_measured_fraction_theta_max 0.986
_diffrn_measurement_device       'four-circle diffractometer'
_diffrn_measurement_device_type  'XtaLAB Synergy, Dualflex, Pilatus 300K'
_diffrn_measurement_method       '\w scans'
_diffrn_radiation_monochromator  mirror
_diffrn_radiation_type           CuK\a
_diffrn_radiation_wavelength     1.54184
_diffrn_reflns_av_R_equivalents  0.0307
_diffrn_reflns_limit_h_max       8
_diffrn_reflns_limit_h_min       -7
_diffrn_reflns_limit_k_max       5
_diffrn_reflns_limit_k_min       -4
_diffrn_reflns_limit_l_max       6
_diffrn_reflns_limit_l_min       -7
_diffrn_reflns_number            527
_diffrn_reflns_theta_full        66.020
_diffrn_reflns_theta_max         66.020
_diffrn_reflns_theta_min         9.078
_exptl_absorpt_coefficient_mu    0.094
_exptl_absorpt_correction_T_max  1.00000
_exptl_absorpt_correction_T_min  0.55327
_exptl_absorpt_correction_type   multi-scan
_exptl_absorpt_process_details
;
CrysAlisPro 1.171.39.31d (Rigaku Oxford Diffraction, 2017)
Empirical absorption correction using spherical harmonics,
 implemented in SCALE3 ABSPACK scaling algorithm.
;
_exptl_crystal_colour            'clear colourless'
_exptl_crystal_density_diffrn    0.685
_exptl_crystal_description       plank
_exptl_crystal_F_000             48
_exptl_crystal_size_max          0.125
_exptl_crystal_size_mid          0.082
_exptl_crystal_size_min          0.064
_refine_diff_density_max         0.156
_refine_diff_density_min         -0.102
_refine_ls_extinction_method     none
_refine_ls_goodness_of_fit_ref   1.155
_refine_ls_hydrogen_treatment    refall
_refine_ls_matrix_type           full
_refine_ls_number_parameters     23
_refine_ls_number_reflns         209
_refine_ls_number_restraints     0
_refine_ls_restrained_S_all      1.155
_refine_ls_R_factor_all          0.0581
_refine_ls_R_factor_gt           0.0560
_refine_ls_shift/su_max          0.000
_refine_ls_shift/su_mean         0.000
_refine_ls_structure_factor_coef Fsqd
_refine_ls_weighting_details
'w=1/[\s^2^(Fo^2^)+(0.1068P)^2^] where P=(Fo^2^+2Fc^2^)/3'
_refine_ls_weighting_scheme      calc
_refine_ls_wR_factor_gt          0.1358
_refine_ls_wR_factor_ref         0.1381
_reflns_number_gt                195
_reflns_number_total             209
_reflns_threshold_expression     'I > 2\s(I)'
_cod_data_source_file            gj5200sup1.cif
_cod_data_source_block           sm090218_1_1
_cod_original_cell_volume        211.33(4)
_cod_database_code               2300631
_shelx_space_group_comment
;
The symmetry employed for this shelxl refinement is uniquely defined
by the following loop, which should always be used as a source of
symmetry information in preference to the above space-group names.
They are only intended as comments.
;
_shelx_hkl_file
;
  -1   0   0-36.9580 72.8420   3
  -2   0   0 435381. 20206.6   3
  -3   0   0 52.0982 138.080   3
  -4   0   0 8941.38 601.993   3
  -5   0   0-27.8125 67.3693   4
   6   0   0 25324.2 1258.65   6
  -7   0   0-83.4347 82.7313   4
   7   0   0 76.6683 89.6752   6
   8   0   0 9567.99 495.675   6
   0   0   1 117.245 105.015   1
  -1   0   1 164474. 7613.35   2
  -1   0  -1 162342. 7611.75   3
  -2   0  -1 255.192 131.737   3
  -2   0   1 150.396 110.741   3
  -3   0  -1 146955. 7000.50   3
  -3   0   1 148968. 6962.26   3
  -4   0   1 353.538 63.3333   4
  -5   0   1 22234.6 1026.67   4
   5   0  -1 22103.3 1063.09   6
  -5   0  -1 20461.1 1035.32   4
  -5   0  -1 19918.9 1076.33   7
  -5   0   1 21083.5 1049.25  10
  -6   0   1 4460.14 248.702   4
  -6   0   1 3703.57 265.931  10
   6   0  -1 4212.96 280.243   6
  -6   0  -1 4334.98 263.377   4
  -7   0  -1 600.491 100.785   4
   7   0  -1 468.175 98.4281   6
   7   0   1 560.584 126.172   6
   8   0  -1 1748.76 122.749   6
   0   0   2 357950. 16679.9   1
  -1   0   2 85364.2 4063.28   2
  -2   0   2 89923.4 4211.29   3
  -3   0   2 51743.7 2430.81   4
  -3   0   2 56143.3 2520.45   3
  -4   0   2 2234.43 133.011   4
   5   0  -2 14024.2 703.088   6
  -5   0  -2 13352.0 683.130   4
  -5   0   2 14287.0 700.845  10
  -5   0  -2 12166.1 710.587   7
  -6   0   2 2699.48 213.264  10
  -6   0  -2 3140.19 211.885   4
  -6   0  -2 2932.11 250.541   7
   6   0  -2 3198.93 221.417   6
   7   0  -2 354.379 80.2477   6
   7   0   2 710.036 149.106   6
  -7   0  -2 775.702 101.047   4
   8   0   2 4558.01 287.450   6
   0   0   3 123.173 221.534   1
   0   0   3 173.599 251.210   2
  -1   0   3 4973.38 408.962   2
  -1   0  -3 4127.66 221.686   4
  -2   0  -3 14256.4 690.082   4
  -3   0  -3 3934.04 228.827   4
  -4   0  -3 6947.04 384.885   4
  -4   0  -3 5995.19 414.353   7
  -5   0  -3 682.641 144.180   7
  -5   0  -3 591.451 101.126   4
  -6   0  -3 22103.4 994.119   4
  -6   0  -3 20863.1 1043.56   7
  -7   0  -3 2440.59 180.102   4
   7   0   3 2709.38 232.645   6
   8   0   3 5269.24 303.957   6
   0   0   4 78221.8 3917.57   2
  -1   0   4 65297.0 3332.27   2
   1   0   4 66795.3 3372.98   1
  -2   0  -4 15634.3 753.498   4
   2   0   4 15774.8 1005.29   1
  -2   0   4 15899.0 781.192  10
  -2   0  -4 14631.9 794.012   7
   3   0   4 41683.5 2151.23   1
  -3   0  -4 38059.3 1817.73   4
  -3   0   4 41343.6 1848.38  10
  -4   0   4 4936.48 292.061  10
  -4   0  -4 3660.59 303.822   7
   4   0   4 3687.45 518.288   1
  -4   0  -4 3894.66 255.215   4
  -5   0  -4 303.463 145.982   7
  -5   0   4 420.883 115.212  10
   5   0   4 120.046 271.776   1
  -6   0  -4 8504.49 511.527   7
  -6   0  -4 8600.33 459.329   4
   7   0   4 5441.17 334.828   6
   8   0   4 232.271 42.9530   6
   0   0   5 197.242 246.215   2
  -1   0  -5 11043.0 634.802   7
   1   0   5 11703.1 851.746   2
  -1   0   5 13093.8 884.028   2
  -2   0  -5 16551.8 884.024   7
   2   0   5 19161.6 1202.19   1
   3   0   5 38504.2 2166.66   1
  -3   0  -5 39249.8 1832.57   7
  -3   0  -5 36358.2 1750.52   4
   3   0   5 34071.5 2057.78   2
  -4   0  -5 22785.5 1177.51   7
   4   0   5 24062.9 1531.52   1
  -4   0  -5 23520.3 1104.92   4
  -5   0  -5 11493.8 648.498   7
  -6   0  -5 5595.76 354.113   7
   7   0   5 11.3070 59.4158   6
   0   0   6 56685.2 2938.91   2
  -1   0  -6 38754.0 1906.44   7
  -2   0  -6 25073.6 1216.10   7
   2   0   6 19644.2 1408.51   2
  -3   0  -6 860.845 167.749   7
  -4   0  -6 197.046 119.009   7
  -5   0  -6 4031.44 280.634   7
  -6   0  -6 3627.49 228.739   7
   0   0  -7-29.4761 116.581   7
  -1   0  -7 2728.79 238.135   7
   1   0  -7 2805.53 234.335   7
  -2   0  -7 7063.92 438.885   7
  -3   0  -7 10061.5 566.654   7
  -4   0  -7 2490.18 198.751   7
  -5   0  -7 8016.52 416.544   7
   0   0  -8 7196.83 404.390   7
  -1   0  -8 513.272 105.966   7
   1   0  -8 596.494 100.629   7
  -2   0  -8 5361.40 332.257   7
   2   0  -8 6342.11 328.990   7
  -3   0  -8 399.702 69.2547   7
   3   0  -8 292.176 56.0612   7
   0   1   0-45.9047 52.5098   5
   1   1   0 6.30994 56.8168   5
  -2   1   0 34153.0 1599.84   4
  -3   1   0 38.7403 56.0019   4
  -4  -1   0 2761.99 306.032   3
  -4   1   0 2615.66 169.448   4
   5   1   0 98.7054 110.969   6
  -5   1   0-7.49797 72.3987   4
  -5  -1   0 73.7219 193.132   3
  -6  -1   0 23166.9 1120.30  10
  -6  -1   0 20797.7 1333.88   3
   6   1   0 22324.1 1126.37   6
   6  -1   0 21279.9 1092.52   6
   7   1   0-31.4683 90.2664   5
   7  -1   0-55.3309 77.6074   6
  -7  -1   0 7.53072 74.1828   4
   7   1   0 172.042 97.6942   6
   8   1   0 9780.21 512.345   6
   0   1  -1 215213. 10027.0   5
   0   1   1 217446. 10024.6   5
   1   1   1 112551. 5285.99   1
   2   1   1 38837.7 1806.23   5
  -2   1  -1 38215.5 1806.75   4
  -3   1  -1 12585.9 616.724   4
  -4  -1  -1 4158.48 382.288   3
  -4   1  -1 3909.76 233.030   4
  -5   1  -1 5722.48 329.052   4
  -5  -1  -1 5516.72 509.603   3
  -5  -1   1 5541.82 351.174  10
   5   1  -1 5517.76 354.371   6
   5   1   1 5961.98 380.847   6
   6   1  -1 8390.26 509.349   6
  -6  -1   1 9793.53 477.362   4
   6   1   1 9380.80 538.406   6
   6   1   1 8472.12 484.437   5
  -6  -1   1 8522.08 700.382   3
   7  -1   1 1350.30 149.117   6
  -7  -1  -1 1646.46 137.397   4
   7   1   1 1316.81 165.173   6
   8   1  -1 1330.32 119.292   6
   8  -1   1 1210.25 100.370   6
   0   1  -2 15.9354 52.7482   5
   1   1   2 41835.1 2119.06   2
   1   1   2 42479.5 2195.40   1
   2   1   2 5178.64 453.595   1
  -2  -1  -2 5672.24 406.354   3
   2   1   2 5912.36 286.616   5
  -2   1  -2 5357.57 295.861   4
  -3  -1  -2 110852. 5402.15   3
   3   1   2 112842. 5242.07   5
  -3   1  -2 113277. 5256.52   4
  -4  -1   2 10964.4 566.483  10
  -4  -1  -2 10769.8 717.982   3
  -4   1  -2 10348.2 541.405   4
  -5   1  -2 29471.5 1451.91   7
  -5  -1   2 29648.2 1592.90   3
  -5  -1   2 27414.0 1413.05  10
  -5   1  -2 29305.2 1396.17   4
  -6  -1  -2 7053.41 403.311   4
   6   1  -2 6940.64 423.122   6
  -6  -1   2 7526.30 434.052  10
   6   1   2 7734.31 467.605   6
  -7  -1  -2 66.2949 77.8470   4
   7   1   2 165.093 108.866   6
   7   1  -2 18.6692 82.4417   6
   8   1   2 1044.67 119.899   6
   8  -1   2 857.897 89.7464   6
   0   1  -3 152467. 7080.07   5
   1   1   3 29979.4 1593.28   2
   1   1   3 30625.8 1694.34   1
  -1  -1   3 32811.3 1658.97   2
  -2  -1   3 112761. 5103.96   2
  -2  -1  -3 106181. 5057.55   3
   2   1   3 103534. 5053.47   2
   2   1   3 100952. 5161.00   1
  -3   1  -3 747.030 94.5217   4
  -3  -1   3 663.663 107.555  10
  -3  -1  -3 974.807 218.776   3
  -4   1   3-24.4704 81.4004  10
  -4   1  -3 40.2518 73.3384   4
  -4   1  -3-72.0404 118.523   7
   4   1   3-95.6810 247.722   1
  -4  -1   3 21.3240 95.2440  10
  -4  -1   3 24.8588 144.598   3
  -5  -1  -3 3326.42 267.366   7
  -5   1  -3 3345.67 274.477   7
   5   1   3 3108.75 442.627   1
  -5  -1   3 3229.59 247.489  10
  -5   1  -3 3554.80 233.644   4
   6   1   3 19601.3 1055.89   6
  -6  -1  -3 21416.9 1020.26   4
  -6  -1  -3 20364.1 1062.28   7
  -6   1  -3 20762.0 1070.17   7
  -6  -1   3 20206.2 1034.85  10
  -7  -1  -3 1795.17 149.362   4
   7   1   3 1667.96 164.903   6
   8   1   3 6433.11 347.539   6
   8  -1   3 6550.84 332.396   6
  -1  -1   4 3642.97 407.914   2
   1  -1   4 3564.23 418.955   1
   1   1   4 2896.43 329.025   2
   1   1  -4 2350.06 161.304   5
   2  -1   4 19201.9 1125.61   1
   2   1   4 16105.6 1088.62   1
   2   1   4 14218.4 955.279   2
  -2  -1   4 17946.6 1032.16   2
  -2  -1   4 16855.5 833.974  10
  -3   1  -4 33219.0 1710.77   7
  -3  -1   4 36409.5 1690.96  10
   4   1   4 2854.93 467.280   1
  -4   1  -4 2162.50 226.210   7
  -4  -1   4 2603.46 205.126  10
  -5   1  -4 28345.8 1485.89   7
  -5  -1  -4 30810.8 1501.56   7
  -5  -1   4 30741.4 1465.41  10
   5   1   4 27627.7 1787.11   1
   6   1   4 1891.29 189.926   6
  -6   1  -4 1911.41 195.994   7
  -6  -1  -4 2054.75 205.464   7
  -6  -1   4 2006.21 172.123  10
   7   1   4 3184.13 214.148   6
   0  -1   5 12700.3 955.265   2
  -1   1  -5 65.4780 102.564   7
  -1  -1   5 209.609 251.233   2
   1  -1   5-55.2676 245.883   2
  -2   1  -5 12690.5 651.435   7
  -2  -1   5 12073.5 616.382  10
   2  -1   5 13043.9 988.945   1
   2   1  -5 11164.6 596.031   5
  -3  -1  -5 5267.22 306.695   4
   3  -1   5 6470.44 677.278   1
  -3  -1   5 5664.22 337.743  10
  -3  -1  -5 6296.47 391.168   7
  -3   1  -5 6079.75 385.306   7
  -4  -1   5 3687.56 247.889  10
   4   1   5 3475.95 530.087   1
  -4  -1  -5 3581.13 286.254   7
  -4   1  -5 3896.08 294.691   7
   4  -1   5 2707.92 482.336   1
  -4  -1  -5 3450.10 224.343   4
  -5  -1   5 3540.86 237.473  10
  -5  -1  -5 3072.03 260.194   7
  -5   1  -5 3784.24 272.927   7
  -5  -1  -5 3486.67 224.613   4
  -6   1  -5 252.052 101.222   7
  -6  -1  -5 433.917 104.444   7
   7  -1   5 146.157 52.0748   6
   0  -1   6-228.288 273.607   2
   0   1  -6-97.9737 114.604   7
   0  -1  -6 86.7612 110.832   7
  -1  -1  -6 835.937 157.897   7
  -1   1  -6 885.612 154.190   7
  -1  -1   6 612.613 290.732   2
   1  -1   6 470.697 288.281   2
  -2  -1  -6 3299.30 269.026   7
  -2   1  -6 3274.37 265.615   7
  -3   1  -6 464.523 145.002   7
  -3  -1  -6 707.325 154.302   7
  -4  -1  -6 8031.45 477.801   7
  -4   1  -6 8506.02 486.546   7
  -5  -1  -6 1456.32 153.388   7
  -5   1  -6 1357.36 152.248   7
   0  -1  -7 8211.55 448.702   7
   0   1  -7 6929.89 439.737   7
  -1  -1  -7 32544.2 1619.04   7
  -1   1  -7 33074.7 1617.73   7
   1  -1  -7 34210.3 1612.90   7
   1   1  -7 32103.2 1609.13   7
  -2  -1  -7 567.188 135.483   7
  -2   1  -7 535.960 129.718   7
   2  -1  -7 846.203 122.010   7
   2   1  -7 689.989 117.315   7
  -3  -1  -7 3994.99 277.067   7
  -3   1  -7 4307.32 278.754   7
  -4   1  -7 1555.43 139.652   7
   0   1  -8-13.6798 72.7106   7
   0   2   0 281249. 13050.1   5
   1   2   0 78.4578 75.4281   5
   2   2   0 31579.3 1516.33   5
   3   2   0-98.8027 80.3671   5
   4   2   0 14286.0 713.653   5
   4   2   0 13004.7 724.460   6
   5   2   0 11.6673 92.3218   5
  -5  -2   0-48.5127 254.189   3
   5   2   0-144.229 133.092   6
   6   2   0 22520.5 1060.84   5
  -6  -2   0 19054.2 1285.57   3
   6   2   0 21391.5 1089.81   6
  -6  -2   0 19575.7 1052.95  10
   7   2   0 11.9837 88.8156   6
  -7  -2   0 74.7421 87.3949  10
  -7  -2   0 40.5903 60.4387   4
   8   2   0 6949.15 373.768   6
   0   2  -1-56.1081 73.7595   5
   1   2  -1 58838.7 2761.22   5
   1   2   1 58373.3 2752.90   5
   2   2  -1 34.4109 81.3444   5
   3   2   1 119472. 5538.34   5
   3   2  -1 117342. 5552.62   5
   4   2  -1 514.986 111.611   5
   4   2   1 584.366 105.824   5
   4   2  -1 591.445 125.392   6
   4   2   1 436.917 127.347   6
   5   2   1 29831.6 1471.62   5
  -5  -2   1 28677.0 1697.45   3
  -5  -2  -1 30636.7 1750.73   3
   5   2  -1 30641.2 1508.82   6
  -5  -2   1 29412.3 1501.84  10
   5   2   1 30452.3 1515.65   6
   5   2  -1 31481.0 1496.67   5
   6   2  -1 4808.79 340.393   6
  -6  -2   1 4814.96 494.174   3
   6   2   1 5386.23 354.460   6
  -6  -2  -1 4146.18 541.406   3
  -6  -2   1 4718.35 325.292  10
   7   2  -1 1391.07 148.665   5
   7   2  -1 1441.15 151.629   6
   7   2   1 1434.49 156.501   6
  -7  -2   1 1439.69 142.886  10
   8   2   1 1669.79 133.242   6
   0  -2   2 13372.1 723.542   1
   1   2  -2 640.621 97.2608   5
  -1   2  -2 616.989 85.8642   5
   2   2  -2 8381.05 446.931   5
  -2  -2   2 8027.13 522.212   2
   2   2   2 7889.67 417.291   5
   3   2   2 6199.78 337.729   5
   3   2  -2 6248.22 379.800   6
  -3  -2   2 6164.81 370.503  10
   3   2  -2 6379.57 370.902   5
   4   2  -2 61.8447 94.7923   5
  -4  -2  -2 56.4098 107.417   7
  -4   2  -2-11.2975 98.4691   7
   4   2   2 60.6713 63.5033   5
  -4  -2  -2-132.851 226.559   3
   4   2  -2-68.2482 111.754   6
  -4  -2   2-39.3234 114.248  10
   4   2   2-52.4185 108.813   6
  -5  -2  -2 5566.26 562.800   3
  -5  -2   2 4437.88 483.670   3
   5   2  -2 5129.91 352.562   6
   5   2   2 5222.37 359.051   6
  -5  -2   2 5341.08 354.255  10
   5   2  -2 5204.99 354.207   5
   6   2  -2 2568.76 225.689   5
   6   2  -2 2443.77 222.829   6
   6   2   2 2663.36 234.335   6
  -6  -2   2 2659.90 225.009  10
  -7  -2  -2 676.661 93.0363   4
  -7  -2   2 739.535 101.622  10
   7   2   2 493.048 104.287   6
   7  -2   2 393.694 74.6115   6
   8   2   2 1433.25 105.444   6
   0   2  -3-6.64055 65.4139   5
   0  -2   3 22.1699 146.071   1
   1   2  -3 1026.29 112.187   5
  -1  -2   3 1003.56 245.409   2
  -1  -2  -3 822.274 169.930   3
   2   2  -3 69.7370 81.6211   5
  -2  -2  -3 82.3581 161.214   3
  -2  -2   3-30.8696 169.119   2
  -2  -2   3 82.7807 93.2978  10
  -3   2   3 894.615 116.258   9
   3   2  -3 795.479 126.476   5
  -3  -2  -3 789.568 126.418   7
  -3   2  -3 738.542 134.771   7
  -3  -2  -3 845.223 226.738   3
   3   2   3 801.965 120.123   6
  -4  -2  -3 11671.5 665.451   7
  -4   2  -3 13653.4 686.880   7
  -4  -2  -3 13640.9 929.226   3
   4   2   3 11932.3 669.882   6
  -4  -2   3 13385.0 679.612  10
   4   2  -3 12018.3 673.488   5
   5   2  -3 703.018 137.911   5
  -5  -2   3 261.328 135.897  10
   5   2   3 631.728 143.522   6
   6   2  -3 22778.4 1070.71   5
  -6  -2   3 19215.4 1036.44  10
  -7  -2   3 1454.71 126.112  10
   7  -2   3 1520.96 120.814   6
   0   2  -4 21172.9 1080.13   5
   0   2  -4 23941.7 1098.95   7
   1   2  -4 7883.21 453.212   5
   1  -2   4 8199.14 697.106   1
  -1  -2  -4 9804.56 481.488   7
  -1   2  -4 9180.38 474.629   7
  -1  -2   4 8230.90 466.997  10
   2   2  -4 5285.41 333.608   5
  -2  -2   4 5366.45 507.862   2
  -2  -2  -4 5477.82 344.485   7
  -2   2  -4 5734.05 346.225   7
  -2  -2   4 5765.11 340.348  10
   2  -2   4 6340.18 622.084   1
  -3  -2  -4 8964.42 520.100   7
  -3   2  -4 10150.1 532.190   7
  -3   2   4 8929.68 507.464   9
   4   2  -4 3351.06 248.065   5
  -4  -2  -4 3055.64 236.433   7
  -4  -2   4 2653.35 224.404  10
   5   2  -4-41.8446 100.918   5
  -5  -2  -4 56.0215 102.071   7
  -5  -2   4-23.0815 101.431  10
  -6  -2   4 5444.33 323.120  10
  -7  -2   4 2759.30 166.496  10
   7  -2   4 2972.78 166.101   6
   0  -2   5 55.6285 270.361   2
   0  -2  -5 32.5933 96.2739   7
   0   2  -5-51.1193 91.3315   7
  -1  -2  -5 9009.87 475.579   7
  -1   2  -5 7933.52 460.609   7
   1  -2   5 8053.42 811.392   2
  -2  -2  -5 15631.0 797.033   7
  -2  -2   5 14779.4 778.725  10
   2  -2   5 14917.3 1158.55   1
   3   2  -5 28137.9 1392.77   5
   3  -2   5 27920.1 1817.39   1
  -3  -2  -5 28836.7 1405.27   7
   4   2  -5 20191.4 963.996   5
  -4  -2  -5 17738.6 951.304   7
  -4  -2   5 18993.5 949.140  10
  -5  -2   5 8517.06 461.064  10
   0  -2  -6 36727.5 1773.67   7
  -1  -2  -6 21111.0 1062.87   7
   1  -2  -6 21220.6 1048.50   7
  -2  -2  -6 12018.1 653.919   7
   2  -2  -6 12613.3 636.006   7
  -3  -2  -6 374.673 99.7477   7
   4   2   6-67.2918 65.7736   9
  -4  -2  -6-70.3492 72.9360   7
   0  -2  -7 23.5538 64.3471   7
  -1  -2  -7 1473.81 125.597   7
   1  -2  -7 1591.72 123.860   7
   0   3   0 67.1828 105.781   9
   1   3   0 147.418 89.7250   5
  -1   3   0-113.827 118.713   9
   2   3   0 2376.31 198.354   5
   2   3   0 2445.81 211.813   9
  -3   3   0 54.1011 132.796   8
   3   3   0-12.4465 92.7611   5
   3   3   0-57.7581 98.1161   6
  -4   3   0 6294.87 386.286   8
   4   3   0 6355.13 387.786   5
   5   3   0-80.7657 83.5353   5
  -5  -3   0 49.5078 227.255   3
   5   3   0-68.7917 113.752   6
   6   3   0 14354.6 751.567   5
   6   3   0 15478.4 777.020   6
  -6  -3   0 14506.9 757.149  10
  -7  -3   0 25.5385 69.7689  10
   0   3  -1 31576.8 1507.74   8
   0   3  -1 29881.4 1490.15   5
   0   3   1 30221.4 1502.94   9
  -1   3  -1 4365.43 292.537   8
   1   3  -1 3802.71 265.839   8
   1   3  -1 3795.33 258.000   5
   1   3   1 3514.91 240.234   5
  -1   3   1 3039.08 256.595   9
  -2   3  -1 7017.00 415.164   8
   2   3  -1 5815.79 368.770   8
   2   3  -1 6277.36 387.315   5
   2   3   1 6190.04 368.217   5
  -2   3   1 6594.54 391.704   9
   2   3   1 6104.09 385.793   9
   3   3  -1 3478.05 252.097   5
   3   3   1 2753.29 218.849   6
   3   3   1 3423.86 237.841   9
   4   3  -1 1721.17 173.425   5
   4   3   1 1649.57 164.120   5
   5   3  -1 1496.83 162.748   5
   5   3   1 1450.95 149.625   5
  -5  -3   1 1631.88 192.440  10
   6   3  -1 4313.16 277.066   5
   6   3   1 3918.98 275.825   6
  -6  -3   1 4542.73 281.970  10
  -7  -3   1 1432.46 120.209  10
  -7  -3  -1 1658.27 132.498  10
   0   3   2-52.3682 100.881   9
   0   3  -2 26.2996 120.716   8
   0   3  -2 71.6898 83.4540   5
   1   3  -2 13170.5 727.642   8
  -1   3  -2 14626.1 757.238   8
   1   3  -2 14486.1 730.031   5
  -1   3   2 13899.4 739.152   9
   1   3   2 13527.2 735.688   9
   2   3  -2 3484.94 250.522   8
  -2   3  -2 3955.69 295.749   8
   2   3  -2 3633.80 263.571   5
  -2  -3   2 3857.23 260.751  10
  -2   3   2 3596.69 266.157   9
   2   3   2 3602.37 269.285   9
   3   3  -2 52488.2 2471.51   5
  -3  -3   2 51696.9 2462.65  10
  -3   3   2 51335.9 2461.26   9
   3   3   2 49587.1 2452.27   9
   4   3  -2 8375.78 483.384   5
  -4  -3  -2 7389.40 700.824   3
   5   3  -2 18292.5 955.157   5
  -5  -3   2 18744.1 962.940  10
  -6  -3   2 5158.64 314.332  10
  -7  -3   2 176.044 53.6180  10
  -7  -3  -2 203.356 72.4298  10
   0   3  -3 46377.8 2278.51   5
   0   3   3 49970.8 2313.00   9
  -1   3   3 6467.00 387.350   9
  -1  -3   3 5650.78 532.517   2
   1   3   3 5852.90 382.344   9
   2   3  -3 21385.7 1074.10   5
  -2  -3   3 21093.4 1055.42  10
   3   3   3 101.026 98.2145   9
   3   3  -3 134.988 113.455   5
  -3  -3  -3 229.213 207.204   3
  -3  -3   3 284.808 114.508  10
  -3   3   3 243.110 104.517   9
   4   3  -3 252.128 106.137   5
   5   3  -3 1707.69 167.573   5
  -5  -3   3 1522.08 164.968  10
  -6  -3   3 9705.69 505.628  10
  -7  -3   3 330.174 41.4826  10
   0  -3   4-94.2533 255.419   2
   1   3  -4 3011.33 214.284   5
  -1   3   4 3104.22 252.245   9
   2   3  -4 3620.95 250.540   5
  -2  -3   4 3339.19 234.934  10
   2   3   4 4077.47 283.282   9
   3   3  -4 21806.6 1007.77   5
   3   3   4 20056.6 999.264   9
   4   3   4 461.884 86.6181   9
  -4  -3   4 629.605 113.049  10
  -6  -3   4 644.938 75.4062  10
   0   3   5 4757.13 327.293   9
  -1   3   5 13.7609 100.772   9
   2   3   5 3726.24 262.934   9
   3   3   5 1522.58 147.395   9
   0   3   6 142.093 86.0732   9
  -1   3   6 102.896 84.4448   9
   1   3   6 160.729 86.3443   9
   2   3   6 1771.54 147.720   9
   3   3   6 20.3708 56.6831   9
   0   3   7 1325.43 111.157   9
   1   3   7 9355.87 471.419   9
   0   4   0 84091.1 4016.15   8
  -1   4   0 136.046 149.594   8
  -2   4   0 22079.9 1170.77   8
   2   4   0 23656.2 1167.43   8
   3   4   0-32.6572 90.2501   8
   3   4   0-141.376 96.9676   5
  -4  -4   0 673.841 129.640  10
  -5  -4   0 86.5258 98.5816  10
  -6  -4   0 7728.40 395.241  10
   0   4  -1 161.580 143.243   8
   0   4   1 19.1538 144.437   9
  -1   4  -1 8825.18 528.066   8
   1   4   1 8461.58 537.063   9
   2   4  -1 81.3754 114.258   8
  -2   4  -1 323.932 151.210   8
   2   4  -1 44.1251 102.586   5
  -3   4  -1 26970.5 1328.25   8
   3   4   1 25895.3 1310.57   8
   3   4  -1 27711.0 1339.13   5
  -3  -4   1 26726.2 1313.36  10
   4   4  -1 241.478 101.131   5
  -4  -4   1 185.037 103.703  10
  -5  -4  -1 11945.4 619.995  10
  -6  -4  -1 1438.26 110.972  10
   0   4  -2 11920.4 652.588   8
   0   4   2 11274.3 658.370   9
  -1   4  -2 1069.42 183.565   8
  -1   4   2 1110.75 177.762   9
   1   4   2 1189.36 177.517   9
   2   4  -2 5248.30 359.911   5
  -2   4   2 5837.05 383.724   9
   2   4   2 6380.17 395.509   9
   3   4  -2 4020.58 281.343   5
  -3  -4   2 4016.73 259.507  10
   4   4  -2-43.4371 80.9383   5
  -4  -4   2 110.670 83.3769  10
  -5  -4   2 1219.49 107.595  10
  -6  -4  -2 865.816 71.7889  10
   0   4   3 295.900 119.000   9
   1   4   3 128.538 108.014   9
  -1   4   3 270.364 122.116   9
  -2   4   3 179.708 118.222   9
   3   4  -3 52.0071 81.9525   5
   3   4   3 143.990 101.254   9
  -4  -4   3 3695.63 207.205  10
   0   4   4 7498.21 442.826   9
  -1   4   4 8091.90 478.520   9
   1   4   4 8397.41 476.072   9
  -2   4   4 2108.41 190.492   9
   3   4   4 3607.50 222.003   9
   0   4   5 26.9383 79.5790   9
  -1   4   5 2344.87 177.357   9
   1   4   5 1926.50 162.860   9
   0   4   6 7095.85 360.305   9
   0   5   0-112.299 102.663   8
  -1   5   0 70.6388 110.601   8
  -2   5   0 529.532 112.135   8
   0   5   1 8331.49 464.094   8
  -1   5   1 4127.87 270.663   8
   2   5   1 2660.20 178.124   8
  -2   5   1 2600.14 186.803   8
   0   5   2 34.2423 89.1949   8
  -1   5   2 3214.00 222.141   8
   1   5   2 3299.71 221.462   8
   2   5   2 911.903 95.3759   8
  -2   5   2 1066.44 111.795   8
   0   5   3 18817.1 921.847   8
  -1   5   3 1960.32 144.946   8
   1   5   3 1679.96 136.006   8
   0   0   0    0.00    0.00   0
TITL sm090218_1_1 in Pnma
REM Pnma (#62, found as Pmcn in cab setting)
CELL 1.54184   7.137387   4.417205   6.702939  90.0000  90.0000  90.0000
ZERR    8.00   0.000720   0.000525   0.000832   0.0000   0.0000   0.0000
LATT  1
SYMM -x+1/2,-y, z+1/2
SYMM -x, y+1/2,-z
SYMM  x+1/2,-y+1/2,-z+1/2
SFAC H Li B
UNIT 32.00 8.00 8.00
TREF
HKLF 4
END
;
_shelx_hkl_checksum              1102
_shelx_res_file
;
TITL sm090218_1_1 in Pnma
    sm090218_1_1.res
    created by SHELXL-2016/6 at 10:14:56 on 14-Feb-2018
CELL 1.54184 7.137387 4.417205 6.702939 90 90 90
ZERR 4 0.00072 0.000525 0.000832 0 0 0
LATT 1
SYMM 0.5-X,-Y,0.5+Z
SYMM 0.5+X,0.5-Y,0.5-Z
SYMM -X,0.5+Y,-Z
SFAC B H Li
UNIT 4 16 4
L.S. 8
PLAN  1
fmap 2
acta
SHEL 999 0.84
REM <olex2.extras>
REM <HklSrc "%.\\sm090218_1_1.hkl">
REM </olex2.extras>
WGHT    0.106800
FVAR      37.38483
B4    1    0.804500    0.750000    0.570517    10.50000    0.02967    0.02943 =
         0.01585    0.00000    0.00089    0.00000
H4A   2    0.713638    0.546002    0.570552    11.00000    0.03360
H4B   2    0.898848    0.750000    0.436348    10.50000    0.03974
H4C   2    0.891051    0.750000    0.708936    10.50000    0.04085
LI3   3    0.659119    0.750000    0.887244    10.50000    0.03535    0.03575 =
         0.02049    0.00000    0.00102    0.00000
HKLF 4
REM  sm090218_1_1 in Pnma
REM R1 =  0.0560 for     195 Fo > 4sig(Fo)  and  0.0581 for all     209 data
REM     23 parameters refined using      0 restraints
END
WGHT      0.1068      0.0000
REM Highest difference peak  0.156,  deepest hole -0.102,  1-sigma level  0.044
Q1    1   0.8000  0.5178  0.5593  11.00000  0.05    0.16
;
_shelx_res_checksum              58492
loop_
_space_group_symop_operation_xyz
'x, y, z'
'-x+1/2, -y, z+1/2'
'x+1/2, -y+1/2, -z+1/2'
'-x, y+1/2, -z'
'-x, -y, -z'
'x-1/2, y, -z-1/2'
'-x-1/2, y-1/2, z-1/2'
'x, -y-1/2, z'
loop_
_atom_site_type_symbol
_atom_site_label
_atom_site_fract_x
_atom_site_fract_y
_atom_site_fract_z
_atom_site_U_iso_or_equiv
_atom_site_adp_type
_atom_site_calc_flag
_atom_site_occupancy
B B4 0.80450(18) 0.750000 0.57052(18) 0.0250(7) Uani d 1
H H4A 0.7136(13) 0.546(3) 0.5706(15) 0.034(3) Uiso d 1
H H4B 0.899(2) 0.750000 0.436(2) 0.040(4) Uiso d 1
H H4C 0.8911(18) 0.750000 0.709(3) 0.041(4) Uiso d 1
Li Li3 0.6591(3) 0.750000 0.8872(3) 0.0305(8) Uani d 1
loop_
_atom_site_aniso_label
_atom_site_aniso_U_11
_atom_site_aniso_U_22
_atom_site_aniso_U_33
_atom_site_aniso_U_12
_atom_site_aniso_U_13
_atom_site_aniso_U_23
B4 0.0297(9) 0.0294(10) 0.0159(10) 0.000 0.0009(4) 0.000
Li3 0.0354(12) 0.0357(13) 0.0205(13) 0.000 0.0010(8) 0.000
loop_
_atom_type_symbol
_atom_type_description
_atom_type_scat_dispersion_real
_atom_type_scat_dispersion_imag
_atom_type_scat_source
B B 0.0090 0.0039 'International Tables Vol C Tables 4.2.6.8 and 6.1.1.4'
H H 0.0000 0.0000 'International Tables Vol C Tables 4.2.6.8 and 6.1.1.4'
Li Li 0.0008 0.0003 'International Tables Vol C Tables 4.2.6.8 and 6.1.1.4'
loop_
_geom_angle_atom_site_label_1
_geom_angle_atom_site_label_2
_geom_angle_atom_site_label_3
_geom_angle_site_symmetry_1
_geom_angle_site_symmetry_3
_geom_angle
Li3 B4 Li3 . 2_664 118.64(4)
Li3 B4 Li3 2_664 2_674 120.76(9)
Li3 B4 Li3 . 2_674 118.64(4)
Li3 B4 Li3 2_664 6_657 87.26(6)
Li3 B4 Li3 . 6_657 109.66(6)
Li3 B4 Li3 2_674 6_657 87.26(6)
B4 Li3 B4 . 2_675 112.93(5)
B4 Li3 B4 2_675 6_557 92.74(6)
B4 Li3 B4 . 2_665 112.93(5)
B4 Li3 B4 2_665 6_557 92.74(6)
B4 Li3 B4 . 6_557 122.43(10)
B4 Li3 B4 2_675 2_665 120.76(9)
B4 Li3 Li3 . 5_667 132.15(8)
B4 Li3 Li3 2_665 5_667 46.44(4)
B4 Li3 Li3 . 5_677 132.15(8)
B4 Li3 Li3 2_675 5_677 46.44(4)
B4 Li3 Li3 6_557 5_667 46.30(5)
B4 Li3 Li3 6_557 5_677 46.30(5)
B4 Li3 Li3 2_675 5_667 113.88(9)
B4 Li3 Li3 2_665 5_677 113.88(9)
Li3 Li3 Li3 5_667 5_677 77.98(8)
loop_
_geom_bond_atom_site_label_1
_geom_bond_atom_site_label_2
_geom_bond_site_symmetry_2
_geom_bond_distance
B4 Li3 . 2.363(2)
B4 Li3 2_674 2.5406(12)
B4 Li3 6_657 2.547(2)
B4 Li3 2_664 2.5406(12)
Li3 Li3 5_667 3.510(3)
Li3 Li3 5_677 3.510(3)

_cod_database_fobs_code 2300631
