#------------------------------------------------------------------------------
#$Date: 2016-02-13 21:28:24 +0200 (Sat, 13 Feb 2016) $
#$Revision: 176429 $
#$URL: svn://www.crystallography.net/cod/cif/2/31/04/2310423.cif $
#------------------------------------------------------------------------------
#
# This file is available in the Crystallography Open Database (COD),
# http://www.crystallography.net/. The original data for this entry
# were provided by IUCr Journals, http://journals.iucr.org/.
#
# The file may be used within the scientific community so long as
# proper attribution is given to the journal article from which the
# data were obtained.
#
data_2310423
loop_
_publ_author_name
'Kaatz, T.'
'Marcovich, M.'
_publ_section_title
;
 The crystal structure of the compound Cs2 Ce Cl6
;
_journal_name_full               'Acta Crystallographica (1,1948-23,1967)'
_journal_page_first              1011
_journal_page_last               1011
_journal_volume                  21
_journal_year                    1966
_chemical_formula_sum            'Ce Cl6 Cs2'
_chemical_name_systematic        'Cs2 Ce Cl6'
_space_group_IT_number           164
_symmetry_space_group_name_Hall  '-P 3 2"'
_symmetry_space_group_name_H-M   'P -3 m 1'
_cell_angle_alpha                90
_cell_angle_beta                 90
_cell_angle_gamma                120
_cell_formula_units_Z            1
_cell_length_a                   7.476
_cell_length_b                   7.476
_cell_length_c                   6.039
_cell_volume                     292.304
_citation_journal_id_ASTM        ACCRA9
_cod_data_source_file            Kaatz_ACCRA9_1966_1079.cif
_cod_data_source_block           Ce1Cl6Cs2
_cod_original_cell_volume        292.3036
_cod_original_formula_sum        'Ce1 Cl6 Cs2'
_cod_database_code               2310423
loop_
_symmetry_equiv_pos_as_xyz
x,y,z
-y,x-y,z
-x+y,-x,z
y,x,-z
-x,-x+y,-z
x-y,-y,-z
-x,-y,-z
y,-x+y,-z
x-y,x,-z
-y,-x,z
x,x-y,z
-x+y,y,z
loop_
_atom_site_label
_atom_site_type_symbol
_atom_site_fract_x
_atom_site_fract_y
_atom_site_fract_z
_atom_site_occupancy
_atom_site_U_iso_or_equiv
Cl1 Cl-1 0.171 -0.171 0.259 1 0.0
Cs1 Cs+1 0.3333 0.6667 0.255 1 0.0
Ce1 Ce+4 0 0 0 1 0.0
