#------------------------------------------------------------------------------
#$Date: 2016-02-14 06:40:26 +0200 (Sun, 14 Feb 2016) $
#$Revision: 176432 $
#$URL: svn://www.crystallography.net/cod/cif/2/31/00/2310014.cif $
#------------------------------------------------------------------------------
#
# This file is available in the Crystallography Open Database (COD),
# http://www.crystallography.net/. The original data for this entry
# were provided by IUCr Journals, http://journals.iucr.org/.
#
# The file may be used within the scientific community so long as
# proper attribution is given to the journal article from which the
# data were obtained.
#
data_2310014
loop_
_publ_author_name
'Zachariasen, W.H.'
_publ_section_title
;
 Crystal chemical studies of the 5f-series of elements. XII. New compounds
 representing known structure types
;
_journal_name_full               'Acta Crystallographica (1,1948-23,1967)'
_journal_page_first              388
_journal_page_last               390
_journal_paper_doi               10.1107/S0365110X49001016
_journal_volume                  2
_journal_year                    1949
_chemical_formula_sum            'Ac Cl O'
_chemical_name_systematic        'Actinium oxide chloride'
_space_group_IT_number           129
_symmetry_space_group_name_Hall  'P 4ab 2ab -1ab'
_symmetry_space_group_name_H-M   'P 4/n m m :1'
_cell_angle_alpha                90
_cell_angle_beta                 90
_cell_angle_gamma                90
_cell_formula_units_Z            2
_cell_length_a                   4.25
_cell_length_b                   4.25
_cell_length_c                   7.08
_cell_volume                     127.883
_citation_journal_id_ASTM        ACCRA9
_cod_data_source_file            zachariasen_actinium_2.cif
_cod_data_source_block           Ac1Cl1O1
_cod_original_cell_volume        127.8825
_cod_original_sg_symbol_Hall     '-P 4a 2a (x-1/4,y+1/4,z)'
_cod_original_formula_sum        'Ac1 Cl1 O1'
_cod_database_code               2310014
loop_
_symmetry_equiv_pos_as_xyz
x,y,z
-y+1/2,x+1/2,z
-x,-y,z
y+1/2,-x+1/2,z
x+1/2,-y+1/2,-z
y,x,-z
-x+1/2,y+1/2,-z
-y,-x,-z
-x+1/2,-y+1/2,-z
y,-x,-z
x+1/2,y+1/2,-z
-y,x,-z
-x,y,z
-y+1/2,-x+1/2,z
x,-y,z
y+1/2,x+1/2,z
loop_
_atom_site_label
_atom_site_type_symbol
_atom_site_fract_x
_atom_site_fract_y
_atom_site_fract_z
_atom_site_occupancy
Ac1 Ac+3 0 0.5 0.18 1
Cl1 Cl-1 0 0.5 0.64 1
O1 O-2 0 0 0 1
