#------------------------------------------------------------------------------
#$Date: 2016-02-13 21:28:24 +0200 (Sat, 13 Feb 2016) $
#$Revision: 176429 $
#$URL: svn://www.crystallography.net/cod/cif/2/31/06/2310678.cif $
#------------------------------------------------------------------------------
#
# This file is available in the Crystallography Open Database (COD),
# http://www.crystallography.net/. The original data for this entry
# were provided by IUCr Journals, http://journals.iucr.org/.
#
# The file may be used within the scientific community so long as
# proper attribution is given to the journal article from which the
# data were obtained.
#
data_2310678
loop_
_publ_author_name
'Steadman, R.'
'Nuttall, P.M.'
_publ_section_title
;
 Polymorphism in cronstedtite
;
_journal_name_full               'Acta Crystallographica (1,1948-23,1967)'
_journal_page_first              1
_journal_page_last               8
_journal_volume                  16
_journal_year                    1963
_chemical_formula_sum            'Fe4 H5 O9 Si'
_chemical_name_systematic        'Fe3 ((Fe Si) O4 (O H)5)'
_space_group_IT_number           144
_symmetry_space_group_name_Hall  'P 31'
_symmetry_space_group_name_H-M   'P 31'
_cell_angle_alpha                90
_cell_angle_beta                 90
_cell_angle_gamma                120
_cell_formula_units_Z            3
_cell_length_a                   5.49
_cell_length_b                   5.49
_cell_length_c                   21.21
_cell_volume                     553.625
_citation_journal_id_ASTM        ACCRA9
_cod_data_source_file            Steadman_ACCRA9_1963_1895.cif
_cod_data_source_block           H5Fe4O9Si1
_cod_original_cell_volume        553.6253
_cod_original_formula_sum        'H5 Fe4 O9 Si1'
_cod_database_code               2310678
loop_
_symmetry_equiv_pos_as_xyz
x,y,z
-y,x-y,z+1/3
-x+y,-x,z+2/3
loop_
_atom_site_label
_atom_site_type_symbol
_atom_site_fract_x
_atom_site_fract_y
_atom_site_fract_z
_atom_site_occupancy
_atom_site_U_iso_or_equiv
Fe2 Fe+3 0.889 0.444 0.03 0.5 0.0
Fe5 Fe+2 0.889 0.111 0.165 1 0.0
Si1 Si+4 0.222 0.111 0.03 0.5 0.0
O9 O-2 0.222 0.444 0.216 1 0.0
O6 O-2 0.889 0.444 0.113 1 0.0
O5 O-2 0.222 0.111 0.113 1 0.0
Fe4 Fe+2 0.556 0.444 0.165 1 0.0
O4 O-2 0.556 0.778 0.113 1 0.0
Fe1 Fe+3 0.222 0.111 0.03 0.5 0.0
Si2 Si+4 0.889 0.444 0.03 0.5 0.0
Fe3 Fe+2 0.222 0.778 0.165 1 0.0
O1 O-2 0.096 0.778 0 1 0.0
O8 O-2 0.556 0.111 0.216 1 0.0
O3 O-2 0.016 0.238 0 1 0.0
O7 O-2 0.889 0.778 0.216 1 0.0
O2 O-2 0.556 0.318 0 1 0.0
