#------------------------------------------------------------------------------
#$Date: 2017-09-28 11:57:29 +0300 (Thu, 28 Sep 2017) $
#$Revision: 201407 $
#$URL: file:///home/coder/svn-repositories/cod/cif/2/31/07/2310744.cif $
#------------------------------------------------------------------------------
#
# This file is available in the Crystallography Open Database (COD),
# http://www.crystallography.net/. The original data for this entry
# were provided by IUCr Journals, http://journals.iucr.org/.
#
# The file may be used within the scientific community so long as
# proper attribution is given to the journal article from which the
# data were obtained.
#
data_2310744
loop_
_publ_author_name
'W\"olfel, Alexander'
'Dorscht, Philipp'
'Lichtenberg, Frank'
'van Smaalen, Sander'
_publ_section_title
;
 Anisotropic thermal expansion of La(n)(Ti,Fe)(n)O(3n + 2) (n = 5 and 6)
;
_journal_coden_ASTM              ACSBDA
_journal_coeditor_code           BP5048
_journal_issue                   2
_journal_name_full
;
 Acta Crystallographica, Section B: Structural Science, Crystal
 Engineering and Materials
;
_journal_page_first              137
_journal_page_last               144
_journal_paper_doi               10.1107/S2052519213003126
_journal_volume                  69
_journal_year                    2013
_chemical_formula_sum            'Fe0.571 La3.429 O11.429 Ti2.858'
_chemical_formula_weight         827.9
_space_group_IT_number           14
_space_group_ssg_name            X21/b(\a\b0)00
_symmetry_cell_setting           monoclinic
_symmetry_space_group_name_Hall  '-P 2ybc (-1/4*x+1/2*z,1/2*x,y)'
_symmetry_space_group_name_H-M   'P 1 21/c 1 (2*c,2*a+c,b)'
_cell_angle_alpha                90
_cell_angle_beta                 90
_cell_angle_gamma                90.019(17)
_cell_formula_units_Z            1
_cell_length_a                   7.8267(19)
_cell_length_b                   5.2714(16)
_cell_length_c                   5.5503(17)
_cell_measurement_reflns_used    0
_cell_measurement_temperature    200
_cell_modulation_dimension       1
_cell_volume                     228.99(11)
_diffrn_ambient_temperature      200
_diffrn_detector                 'MarResearch Mar345'
_diffrn_measured_fraction_theta_full 0.98
_diffrn_measured_fraction_theta_max 0.87
_diffrn_measurement_device       'Image-Plate diffractometer'
_diffrn_measurement_device_type  'MarResearch Mar345dtb'
_diffrn_measurement_method       'Rotating, \f scans'
_diffrn_radiation_monochromator  graphite
_diffrn_radiation_probe          x-ray
_diffrn_radiation_source         'Rotating anode X-ray tube'
_diffrn_radiation_type           'Mo K\a'
_diffrn_radiation_wavelength     0.71069
_diffrn_reflns_av_R_equivalents  0.0481
_diffrn_reflns_av_sigmaI/netI    0.0374
_diffrn_reflns_limit_h_max       13
_diffrn_reflns_limit_h_min       -13
_diffrn_reflns_limit_index_m_1_max 7
_diffrn_reflns_limit_index_m_1_min -7
_diffrn_reflns_limit_k_max       9
_diffrn_reflns_limit_k_min       -9
_diffrn_reflns_limit_l_max       8
_diffrn_reflns_limit_l_min       -8
_diffrn_reflns_number            56173
_diffrn_reflns_theta_full        32.94
_diffrn_reflns_theta_max         39.3
_diffrn_reflns_theta_min         2.21
_diffrn_source_current           75
_diffrn_source_voltage           55
_exptl_absorpt_coefficient_mu    18.927
_exptl_absorpt_correction_T_max  0.7478
_exptl_absorpt_correction_T_min  0.3409
_exptl_absorpt_correction_type   numerical
_exptl_absorpt_process_details   'SADABS (version2008/1)'
_exptl_crystal_colour            'metallic gray'
_exptl_crystal_density_diffrn    6.0015
_exptl_crystal_description       'thick plate'
_exptl_crystal_F_000             367
_exptl_crystal_size_max          0.12
_exptl_crystal_size_mid          0.08
_exptl_crystal_size_min          0.005
_refine_diff_density_max         20.11
_refine_diff_density_min         -4.91
_refine_ls_extinction_method     none
_refine_ls_goodness_of_fit_gt    3.39
_refine_ls_goodness_of_fit_ref   3.29
_refine_ls_number_constraints    8
_refine_ls_number_parameters     161
_refine_ls_number_reflns         12184
_refine_ls_number_restraints     0
_refine_ls_R_factor_all          0.0691
_refine_ls_R_factor_gt           0.0635
_refine_ls_shift/su_max          0.0059
_refine_ls_shift/su_mean         0.0007
_refine_ls_structure_factor_coef F
_refine_ls_weighting_details     w=1/(\s^2^(F)+0.0001F^2^)
_refine_ls_weighting_scheme      sigma
_refine_ls_wR_factor_gt          0.0833
_refine_ls_wR_factor_ref         0.0841
_reflns_number_gt                11268
_reflns_number_total             12184
_reflns_threshold_expression     I>3\s(I)
_cod_data_source_file            bp5048sup1.cif
_cod_data_source_block           n6_200K
_cod_database_code               2310744
#BEGIN Tags that were not found in dictionaries:
_jana_cell_commen_supercell_matrix_1_1 1
_jana_cell_commen_supercell_matrix_1_2 0
_jana_cell_commen_supercell_matrix_1_3 0
_jana_cell_commen_supercell_matrix_2_1 0
_jana_cell_commen_supercell_matrix_2_2 14
_jana_cell_commen_supercell_matrix_2_3 0
_jana_cell_commen_supercell_matrix_3_1 0
_jana_cell_commen_supercell_matrix_3_2 0
_jana_cell_commen_supercell_matrix_3_3 1
_jana_cell_commen_t_section_1    0.018
#END Tags that were not found in dictionaries
loop_
_space_group_symop_id
_space_group_symop_operation_xyz
1 x,y,z
2 -x+0.25,-y,z+0.5
3 x+0.25,y+0.5,z
4 -x+0.5,-y+0.5,z+0.5
5 x+0.5,y,z
6 -x+0.75,-y,z+0.5
7 x+0.75,y+0.5,z
8 -x,-y+0.5,z+0.5
9 -x,-y,-z
10 x+0.25,y,-z+0.5
11 -x+0.25,-y+0.5,-z
12 x+0.5,y+0.5,-z+0.5
13 -x+0.5,-y,-z
14 x+0.75,y,-z+0.5
15 -x+0.75,-y+0.5,-z
16 x,y+0.5,-z+0.5
loop_
_space_group_symop_ssg_id
_space_group_symop_ssg_operation_algebraic
1 x1,x2,x3,x4
2 -x1+1/4,-x2,x3+1/2,-x4+1/4
3 -x1,-x2,-x3,-x4+1/2
4 x1,x2+1/2,-x3+1/2,x4
5 x1+3/4,x2+1/2,x3,x4+1/4
6 -x1,-x2+1/2,x3+1/2,-x4+1/2
7 -x1+3/4,-x2+1/2,-x3,-x4+3/4
8 x1+3/4,x2,-x3+1/2,x4+1/4
9 x1+1/2,x2,x3,x4+1/2
10 -x1+3/4,-x2,x3+1/2,-x4+3/4
11 -x1+1/2,-x2,-x3,-x4
12 x1+1/2,x2+1/2,-x3+1/2,x4+1/2
13 x1+1/4,x2+1/2,x3,x4+3/4
14 -x1+1/2,-x2+1/2,x3+1/2,-x4
15 -x1+1/4,-x2+1/2,-x3,-x4+1/4
16 x1+1/4,x2,-x3+1/2,x4+3/4
loop_
_atom_site_label
_atom_site_type_symbol
_atom_site_fract_x
_atom_site_fract_y
_atom_site_fract_z
_atom_site_adp_type
_atom_site_U_iso_or_equiv
_atom_site_symmetry_multiplicity
_atom_site_occupancy
_atom_site_calc_flag
La1 La -0.00024(3) -0.01818(4) 0.00275(4) Uani 0.00597(6) 16 0.1429 d
La2 La -0.00149(10) 0.29721(8) -0.08973(14) Uani 0.00646(9) 16 0.0357 d
La3 La -0.00275(10) -0.23131(10) 0.04733(15) Uani 0.01140(12) 16 0.0357 d
Ti11 Ti 0.25 0 0.5 Uani 0.0044(2) 8 0.022(2) d
Fe11 Fe 0.25 0 0.5 Uani 0.0044(2) 8 0.050(2) d
Ti12 Ti 0.25 0 0.5 Uani 0.0044(2) 16 0.0269(10) d
Fe12 Fe 0.25 0 0.5 Uani 0.0044(2) 16 0.0088(10) d
Ti13 Ti 0.25 0 0.5 Uani 0.0044(2) 16 0.0345(9) d
Fe13 Fe 0.25 0 0.5 Uani 0.0044(2) 16 0.0012(9) d
Ti21 Ti 0.75 0 0.5 Uani 0.0040(2) 8 0.023(2) d
Fe21 Fe 0.75 0 0.5 Uani 0.0040(2) 8 0.048(2) d
Ti22 Ti 0.75 0 0.5 Uani 0.0040(2) 16 0.0268(10) d
Fe22 Fe 0.75 0 0.5 Uani 0.0040(2) 16 0.0089(10) d
Ti23 Ti 0.75 0 0.5 Uani 0.0040(2) 16 0.0331(9) d
Fe23 Fe 0.75 0 0.5 Uani 0.0040(2) 16 0.0026(9) d
O1 O -0.0003(3) 0.0074(4) 0.5576(5) Uani 0.0084(5) 16 0.2143 d
O2 O 0.2247(3) 0.2141(5) 0.2101(4) Uani 0.0076(5) 16 0.25 d
O3 O 0.7765(3) 0.2076(5) 0.2059(4) Uani 0.0078(5) 16 0.25 d
loop_
_atom_site_aniso_label
_atom_site_aniso_type_symbol
_atom_site_aniso_U_11
_atom_site_aniso_U_22
_atom_site_aniso_U_33
_atom_site_aniso_U_12
_atom_site_aniso_U_13
_atom_site_aniso_U_23
La1 La 0.00274(10) 0.01057(9) 0.00461(14) 0.00003(9) -0.00012(12) -0.00123(6)
La2 La 0.00204(13) 0.01371(15) 0.0036(2) -0.00043(18) -0.00059(17) -0.00175(13)
La3 La 0.00211(15) 0.02151(19) 0.0106(3) 0.0002(2) -0.00032(19) -0.00583(16)
Ti11 Ti 0.0030(3) 0.0080(3) 0.0021(4) -0.0029(5) -0.0004(5) 0.0001(2)
Fe11 Fe 0.0030(3) 0.0080(3) 0.0021(4) -0.0029(5) -0.0004(5) 0.0001(2)
Ti12 Ti 0.0030(3) 0.0080(3) 0.0021(4) -0.0029(5) -0.0004(5) 0.0001(2)
Fe12 Fe 0.0030(3) 0.0080(3) 0.0021(4) -0.0029(5) -0.0004(5) 0.0001(2)
Ti13 Ti 0.0030(3) 0.0080(3) 0.0021(4) -0.0029(5) -0.0004(5) 0.0001(2)
Fe13 Fe 0.0030(3) 0.0080(3) 0.0021(4) -0.0029(5) -0.0004(5) 0.0001(2)
Ti21 Ti 0.0028(3) 0.0075(2) 0.0016(4) -0.0029(5) -0.0004(5) 0.0006(2)
Fe21 Fe 0.0028(3) 0.0075(2) 0.0016(4) -0.0029(5) -0.0004(5) 0.0006(2)
Ti22 Ti 0.0028(3) 0.0075(2) 0.0016(4) -0.0029(5) -0.0004(5) 0.0006(2)
Fe22 Fe 0.0028(3) 0.0075(2) 0.0016(4) -0.0029(5) -0.0004(5) 0.0006(2)
Ti23 Ti 0.0028(3) 0.0075(2) 0.0016(4) -0.0029(5) -0.0004(5) 0.0006(2)
Fe23 Fe 0.0028(3) 0.0075(2) 0.0016(4) -0.0029(5) -0.0004(5) 0.0006(2)
O1 O 0.0002(8) 0.0158(9) 0.0092(12) -0.0001(8) 0.0003(6) -0.0005(7)
O2 O 0.0070(11) 0.0136(8) 0.0021(10) -0.0011(7) 0.0006(7) 0.0023(7)
O3 O 0.0067(10) 0.0135(8) 0.0033(10) 0.0002(7) 0.0011(7) 0.0022(7)
loop_
_atom_site_displace_Fourier_atom_site_label
_atom_site_displace_Fourier_axis
_atom_site_displace_Fourier_wave_vector_seq_id
_atom_site_displace_Fourier_param_cos
_atom_site_displace_Fourier_param_sin
Ti11 x 1 0 -0.0071(7)
Ti11 y 1 0 0.1430(4)
Ti11 z 1 0 -0.0598(5)
Ti11 x 2 0 0
Ti11 y 2 0 0
Ti11 z 2 0 0
Ti11 x 3 0 0
Ti11 y 3 0 0
Ti11 z 3 0 0
Ti11 x 4 0 0
Ti11 y 4 0 0
Ti11 z 4 0 0
Ti11 x 5 0 0
Ti11 y 5 0 0
Ti11 z 5 0 0
Ti11 x 6 0 0.0008(4)
Ti11 y 6 0 0.0109(2)
Ti11 z 6 0 0.0222(2)
Ti11 x 7 0 0
Ti11 y 7 0 0
Ti11 z 7 0 0
Ti11 x 8 0 0
Ti11 y 8 0 0
Ti11 z 8 0 0
Ti11 x 9 0 0
Ti11 y 9 0 0
Ti11 z 9 0 0
Ti11 x 10 0 0
Ti11 y 10 0 0
Ti11 z 10 0 0
Ti11 x 11 0 0
Ti11 y 11 0 0
Ti11 z 11 0 0
Ti11 x 12 0 0.0013(2)
Ti11 y 12 0 -0.00808(15)
Ti11 z 12 0 -0.0122(4)
Fe11 x 1 0 -0.0071(7)
Fe11 y 1 0 0.1430(4)
Fe11 z 1 0 -0.0598(5)
Fe11 x 2 0 0
Fe11 y 2 0 0
Fe11 z 2 0 0
Fe11 x 3 0 0
Fe11 y 3 0 0
Fe11 z 3 0 0
Fe11 x 4 0 0
Fe11 y 4 0 0
Fe11 z 4 0 0
Fe11 x 5 0 0
Fe11 y 5 0 0
Fe11 z 5 0 0
Fe11 x 6 0 0.0008(4)
Fe11 y 6 0 0.0109(2)
Fe11 z 6 0 0.0222(2)
Fe11 x 7 0 0
Fe11 y 7 0 0
Fe11 z 7 0 0
Fe11 x 8 0 0
Fe11 y 8 0 0
Fe11 z 8 0 0
Fe11 x 9 0 0
Fe11 y 9 0 0
Fe11 z 9 0 0
Fe11 x 10 0 0
Fe11 y 10 0 0
Fe11 z 10 0 0
Fe11 x 11 0 0
Fe11 y 11 0 0
Fe11 z 11 0 0
Fe11 x 12 0 0.0013(2)
Fe11 y 12 0 -0.00808(15)
Fe11 z 12 0 -0.0122(4)
Ti12 x 1 0 -0.0071(7)
Ti12 y 1 0 0.1430(4)
Ti12 z 1 0 -0.0598(5)
Ti12 x 2 0 0
Ti12 y 2 0 0
Ti12 z 2 0 0
Ti12 x 3 0 0
Ti12 y 3 0 0
Ti12 z 3 0 0
Ti12 x 4 0 0
Ti12 y 4 0 0
Ti12 z 4 0 0
Ti12 x 5 0 0
Ti12 y 5 0 0
Ti12 z 5 0 0
Ti12 x 6 0 0.0008(4)
Ti12 y 6 0 0.0109(2)
Ti12 z 6 0 0.0222(2)
Ti12 x 7 0 0
Ti12 y 7 0 0
Ti12 z 7 0 0
Ti12 x 8 0 0
Ti12 y 8 0 0
Ti12 z 8 0 0
Ti12 x 9 0 0
Ti12 y 9 0 0
Ti12 z 9 0 0
Ti12 x 10 0 0
Ti12 y 10 0 0
Ti12 z 10 0 0
Ti12 x 11 0 0
Ti12 y 11 0 0
Ti12 z 11 0 0
Ti12 x 12 0 0.0013(2)
Ti12 y 12 0 -0.00808(15)
Ti12 z 12 0 -0.0122(4)
Fe12 x 1 0 -0.0071(7)
Fe12 y 1 0 0.1430(4)
Fe12 z 1 0 -0.0598(5)
Fe12 x 2 0 0
Fe12 y 2 0 0
Fe12 z 2 0 0
Fe12 x 3 0 0
Fe12 y 3 0 0
Fe12 z 3 0 0
Fe12 x 4 0 0
Fe12 y 4 0 0
Fe12 z 4 0 0
Fe12 x 5 0 0
Fe12 y 5 0 0
Fe12 z 5 0 0
Fe12 x 6 0 0.0008(4)
Fe12 y 6 0 0.0109(2)
Fe12 z 6 0 0.0222(2)
Fe12 x 7 0 0
Fe12 y 7 0 0
Fe12 z 7 0 0
Fe12 x 8 0 0
Fe12 y 8 0 0
Fe12 z 8 0 0
Fe12 x 9 0 0
Fe12 y 9 0 0
Fe12 z 9 0 0
Fe12 x 10 0 0
Fe12 y 10 0 0
Fe12 z 10 0 0
Fe12 x 11 0 0
Fe12 y 11 0 0
Fe12 z 11 0 0
Fe12 x 12 0 0.0013(2)
Fe12 y 12 0 -0.00808(15)
Fe12 z 12 0 -0.0122(4)
Ti13 x 1 0 -0.0071(7)
Ti13 y 1 0 0.1430(4)
Ti13 z 1 0 -0.0598(5)
Ti13 x 2 0 0
Ti13 y 2 0 0
Ti13 z 2 0 0
Ti13 x 3 0 0
Ti13 y 3 0 0
Ti13 z 3 0 0
Ti13 x 4 0 0
Ti13 y 4 0 0
Ti13 z 4 0 0
Ti13 x 5 0 0
Ti13 y 5 0 0
Ti13 z 5 0 0
Ti13 x 6 0 0.0008(4)
Ti13 y 6 0 0.0109(2)
Ti13 z 6 0 0.0222(2)
Ti13 x 7 0 0
Ti13 y 7 0 0
Ti13 z 7 0 0
Ti13 x 8 0 0
Ti13 y 8 0 0
Ti13 z 8 0 0
Ti13 x 9 0 0
Ti13 y 9 0 0
Ti13 z 9 0 0
Ti13 x 10 0 0
Ti13 y 10 0 0
Ti13 z 10 0 0
Ti13 x 11 0 0
Ti13 y 11 0 0
Ti13 z 11 0 0
Ti13 x 12 0 0.0013(2)
Ti13 y 12 0 -0.00808(15)
Ti13 z 12 0 -0.0122(4)
Fe13 x 1 0 -0.0071(7)
Fe13 y 1 0 0.1430(4)
Fe13 z 1 0 -0.0598(5)
Fe13 x 2 0 0
Fe13 y 2 0 0
Fe13 z 2 0 0
Fe13 x 3 0 0
Fe13 y 3 0 0
Fe13 z 3 0 0
Fe13 x 4 0 0
Fe13 y 4 0 0
Fe13 z 4 0 0
Fe13 x 5 0 0
Fe13 y 5 0 0
Fe13 z 5 0 0
Fe13 x 6 0 0.0008(4)
Fe13 y 6 0 0.0109(2)
Fe13 z 6 0 0.0222(2)
Fe13 x 7 0 0
Fe13 y 7 0 0
Fe13 z 7 0 0
Fe13 x 8 0 0
Fe13 y 8 0 0
Fe13 z 8 0 0
Fe13 x 9 0 0
Fe13 y 9 0 0
Fe13 z 9 0 0
Fe13 x 10 0 0
Fe13 y 10 0 0
Fe13 z 10 0 0
Fe13 x 11 0 0
Fe13 y 11 0 0
Fe13 z 11 0 0
Fe13 x 12 0 0.0013(2)
Fe13 y 12 0 -0.00808(15)
Fe13 z 12 0 -0.0122(4)
Ti21 x 1 0 -0.0014(7)
Ti21 y 1 0 0.1561(4)
Ti21 z 1 0 -0.0639(5)
Ti21 x 2 0 0
Ti21 y 2 0 0
Ti21 z 2 0 0
Ti21 x 3 0 0
Ti21 y 3 0 0
Ti21 z 3 0 0
Ti21 x 4 0 0
Ti21 y 4 0 0
Ti21 z 4 0 0
Ti21 x 5 0 0
Ti21 y 5 0 0
Ti21 z 5 0 0
Ti21 x 6 0 -0.0016(3)
Ti21 y 6 0 0.00968(20)
Ti21 z 6 0 0.0220(2)
Ti21 x 7 0 0
Ti21 y 7 0 0
Ti21 z 7 0 0
Ti21 x 8 0 0
Ti21 y 8 0 0
Ti21 z 8 0 0
Ti21 x 9 0 0
Ti21 y 9 0 0
Ti21 z 9 0 0
Ti21 x 10 0 0
Ti21 y 10 0 0
Ti21 z 10 0 0
Ti21 x 11 0 0
Ti21 y 11 0 0
Ti21 z 11 0 0
Ti21 x 12 0 0.0031(2)
Ti21 y 12 0 -0.00886(15)
Ti21 z 12 0 -0.0119(3)
Fe21 x 1 0 -0.0014(7)
Fe21 y 1 0 0.1561(4)
Fe21 z 1 0 -0.0639(5)
Fe21 x 2 0 0
Fe21 y 2 0 0
Fe21 z 2 0 0
Fe21 x 3 0 0
Fe21 y 3 0 0
Fe21 z 3 0 0
Fe21 x 4 0 0
Fe21 y 4 0 0
Fe21 z 4 0 0
Fe21 x 5 0 0
Fe21 y 5 0 0
Fe21 z 5 0 0
Fe21 x 6 0 -0.0016(3)
Fe21 y 6 0 0.00968(20)
Fe21 z 6 0 0.0220(2)
Fe21 x 7 0 0
Fe21 y 7 0 0
Fe21 z 7 0 0
Fe21 x 8 0 0
Fe21 y 8 0 0
Fe21 z 8 0 0
Fe21 x 9 0 0
Fe21 y 9 0 0
Fe21 z 9 0 0
Fe21 x 10 0 0
Fe21 y 10 0 0
Fe21 z 10 0 0
Fe21 x 11 0 0
Fe21 y 11 0 0
Fe21 z 11 0 0
Fe21 x 12 0 0.0031(2)
Fe21 y 12 0 -0.00886(15)
Fe21 z 12 0 -0.0119(3)
Ti22 x 1 0 -0.0014(7)
Ti22 y 1 0 0.1561(4)
Ti22 z 1 0 -0.0639(5)
Ti22 x 2 0 0
Ti22 y 2 0 0
Ti22 z 2 0 0
Ti22 x 3 0 0
Ti22 y 3 0 0
Ti22 z 3 0 0
Ti22 x 4 0 0
Ti22 y 4 0 0
Ti22 z 4 0 0
Ti22 x 5 0 0
Ti22 y 5 0 0
Ti22 z 5 0 0
Ti22 x 6 0 -0.0016(3)
Ti22 y 6 0 0.00968(20)
Ti22 z 6 0 0.0220(2)
Ti22 x 7 0 0
Ti22 y 7 0 0
Ti22 z 7 0 0
Ti22 x 8 0 0
Ti22 y 8 0 0
Ti22 z 8 0 0
Ti22 x 9 0 0
Ti22 y 9 0 0
Ti22 z 9 0 0
Ti22 x 10 0 0
Ti22 y 10 0 0
Ti22 z 10 0 0
Ti22 x 11 0 0
Ti22 y 11 0 0
Ti22 z 11 0 0
Ti22 x 12 0 0.0031(2)
Ti22 y 12 0 -0.00886(15)
Ti22 z 12 0 -0.0119(3)
Fe22 x 1 0 -0.0014(7)
Fe22 y 1 0 0.1561(4)
Fe22 z 1 0 -0.0639(5)
Fe22 x 2 0 0
Fe22 y 2 0 0
Fe22 z 2 0 0
Fe22 x 3 0 0
Fe22 y 3 0 0
Fe22 z 3 0 0
Fe22 x 4 0 0
Fe22 y 4 0 0
Fe22 z 4 0 0
Fe22 x 5 0 0
Fe22 y 5 0 0
Fe22 z 5 0 0
Fe22 x 6 0 -0.0016(3)
Fe22 y 6 0 0.00968(20)
Fe22 z 6 0 0.0220(2)
Fe22 x 7 0 0
Fe22 y 7 0 0
Fe22 z 7 0 0
Fe22 x 8 0 0
Fe22 y 8 0 0
Fe22 z 8 0 0
Fe22 x 9 0 0
Fe22 y 9 0 0
Fe22 z 9 0 0
Fe22 x 10 0 0
Fe22 y 10 0 0
Fe22 z 10 0 0
Fe22 x 11 0 0
Fe22 y 11 0 0
Fe22 z 11 0 0
Fe22 x 12 0 0.0031(2)
Fe22 y 12 0 -0.00886(15)
Fe22 z 12 0 -0.0119(3)
Ti23 x 1 0 -0.0014(7)
Ti23 y 1 0 0.1561(4)
Ti23 z 1 0 -0.0639(5)
Ti23 x 2 0 0
Ti23 y 2 0 0
Ti23 z 2 0 0
Ti23 x 3 0 0
Ti23 y 3 0 0
Ti23 z 3 0 0
Ti23 x 4 0 0
Ti23 y 4 0 0
Ti23 z 4 0 0
Ti23 x 5 0 0
Ti23 y 5 0 0
Ti23 z 5 0 0
Ti23 x 6 0 -0.0016(3)
Ti23 y 6 0 0.00968(20)
Ti23 z 6 0 0.0220(2)
Ti23 x 7 0 0
Ti23 y 7 0 0
Ti23 z 7 0 0
Ti23 x 8 0 0
Ti23 y 8 0 0
Ti23 z 8 0 0
Ti23 x 9 0 0
Ti23 y 9 0 0
Ti23 z 9 0 0
Ti23 x 10 0 0
Ti23 y 10 0 0
Ti23 z 10 0 0
Ti23 x 11 0 0
Ti23 y 11 0 0
Ti23 z 11 0 0
Ti23 x 12 0 0.0031(2)
Ti23 y 12 0 -0.00886(15)
Ti23 z 12 0 -0.0119(3)
Fe23 x 1 0 -0.0014(7)
Fe23 y 1 0 0.1561(4)
Fe23 z 1 0 -0.0639(5)
Fe23 x 2 0 0
Fe23 y 2 0 0
Fe23 z 2 0 0
Fe23 x 3 0 0
Fe23 y 3 0 0
Fe23 z 3 0 0
Fe23 x 4 0 0
Fe23 y 4 0 0
Fe23 z 4 0 0
Fe23 x 5 0 0
Fe23 y 5 0 0
Fe23 z 5 0 0
Fe23 x 6 0 -0.0016(3)
Fe23 y 6 0 0.00968(20)
Fe23 z 6 0 0.0220(2)
Fe23 x 7 0 0
Fe23 y 7 0 0
Fe23 z 7 0 0
Fe23 x 8 0 0
Fe23 y 8 0 0
Fe23 z 8 0 0
Fe23 x 9 0 0
Fe23 y 9 0 0
Fe23 z 9 0 0
Fe23 x 10 0 0
Fe23 y 10 0 0
Fe23 z 10 0 0
Fe23 x 11 0 0
Fe23 y 11 0 0
Fe23 z 11 0 0
Fe23 x 12 0 0.0031(2)
Fe23 y 12 0 -0.00886(15)
Fe23 z 12 0 -0.0119(3)
loop_
_atom_site_Fourier_wave_vector_seq_id
_jana_atom_site_fourier_wave_vector_q1_coeff
1 1
2 2
3 3
4 4
5 5
6 6
7 7
8 8
9 9
10 10
11 11
12 12
loop_
_atom_site_occ_special_func_atom_site_label
_atom_site_occ_special_func_crenel_c
_atom_site_occ_special_func_crenel_w
La1 0 0.1429
La2 0.110521(6) 0.0357
La3 -0.105816(7) 0.0357
Ti11 0 0.0714
Fe11 0 0.0714
Ti12 0.0536 0.0357
Fe12 0.0536 0.0357
Ti13 0.0893 0.0357
Fe13 0.0893 0.0357
Ti21 0 0.0714
Fe21 0 0.0714
Ti22 0.0536 0.0357
Fe22 0.0536 0.0357
Ti23 0.0893 0.0357
Fe23 0.0893 0.0357
O1 0 0.2143
O2 0 0.25
O3 0 0.25
loop_
_atom_type_symbol
_atom_type_scat_dispersion_real
_atom_type_scat_dispersion_imag
_atom_type_scat_source
Fe 0.3463 0.8444 'International Tables Vol C tables 4.2.6.8 and 6.1.1.1'
La -0.2871 2.4523 'International Tables Vol C tables 4.2.6.8 and 6.1.1.1'
O 0.0106 0.0060 'International Tables Vol C tables 4.2.6.8 and 6.1.1.1'
Ti 0.2776 0.4457 'International Tables Vol C tables 4.2.6.8 and 6.1.1.1'
loop_
_cell_wave_vector_seq_id
_cell_wave_vector_x
_cell_wave_vector_y
_cell_wave_vector_z
1 0.000000 0.071429 0.000000
loop_
_geom_bond_atom_site_label_1
_geom_bond_atom_site_label_2
_geom_bond_site_ssg_symmetry_2
_geom_bond_distance_av
_geom_bond_distance_min
_geom_bond_distance_max
La1 Ti11 1_5545 3.439(3) 3.439(3) 3.439(3)
La1 Ti11 . 3.364(3) 3.364(3) 3.364(3)
La1 Ti11 6_5445 3.3287(19) 3.3287(19) 3.3287(19)
La1 Fe11 1_5545 3.439(3) 3.439(3) 3.439(3)
La1 Fe11 . 3.364(3) 3.364(3) 3.364(3)
La1 Fe11 6_5445 3.3287(19) 3.3287(19) 3.3287(19)
La1 Ti13 6_5445 3.3203(14) 3.3203(14) 3.3203(14)
La1 Fe13 6_5445 3.3203(14) 3.3203(14) 3.3203(14)
La1 Ti21 1_4545 3.427(3) 3.427(3) 3.427(3)
La1 Ti21 1_4555 3.349(3) 3.349(3) 3.349(3)
La1 Ti21 6_5445 3.3405(19) 3.3405(19) 3.3405(19)
La1 Fe21 1_4545 3.427(3) 3.427(3) 3.427(3)
La1 Fe21 1_4555 3.349(3) 3.349(3) 3.349(3)
La1 Fe21 6_5445 3.3405(19) 3.3405(19) 3.3405(19)
La1 Ti23 6_5445 3.3325(14) 3.3325(14) 3.3325(14)
La1 Fe23 6_5445 3.3325(14) 3.3325(14) 3.3325(14)
La1 O1 1_5545 2.45(5) 2.43(2) 2.46(7)
La1 O1 . 3.13(5) 3.13(2) 3.14(7)
La1 O2 . 2.470(18) 2.418(18) 2.523(18)
La1 O2 6_5545 3.197(18) 3.150(18) 3.244(18)
La1 O3 1_4555 2.455(18) 2.414(17) 2.497(19)
La1 O3 6_5545 3.207(18) 3.171(19) 3.243(17)
La1 Ti121 5_5555 3.462(3) 3.462(3) 3.462(3)
La1 Ti121 5_5565 3.360(3) 3.360(3) 3.360(3)
La1 Fe121 5_5555 3.462(3) 3.462(3) 3.462(3)
La1 Fe121 5_5565 3.360(3) 3.360(3) 3.360(3)
La1 Ti221 5_5555 3.417(3) 3.417(3) 3.417(3)
La1 Ti221 5_5565 3.330(3) 3.330(3) 3.330(3)
La1 Fe221 5_5555 3.417(3) 3.417(3) 3.417(3)
La1 Fe221 5_5565 3.330(3) 3.330(3) 3.330(3)
La1 O11 2_5455 2.90(5) 2.72(7) 3.07(2)
La1 O11 2_5555 3.00(5) 2.55(2) 3.44(7)
La1 O21 5_5555 2.735(10) 2.649(2) 2.821(17)
La1 O21 2_5455 2.904(10) 2.890(2) 2.918(17)
La1 O31 5_5555 2.675(10) 2.614(2) 2.735(17)
La1 O31 2_4455 2.895(10) 2.870(17) 2.920(2)
La2 Ti13 1_5545 3.3922(17) 3.3922(17) 3.3922(17)
La2 Ti13 8_5645 3.3455(9) 3.3455(9) 3.3455(9)
La2 Fe13 1_5545 3.3922(17) 3.3922(17) 3.3922(17)
La2 Fe13 8_5645 3.3455(9) 3.3455(9) 3.3455(9)
La2 Ti23 1_4545 3.3848(16) 3.3848(16) 3.3848(16)
La2 Fe23 1_4545 3.3848(16) 3.3848(16) 3.3848(16)
La2 O1 1_5545 2.54(7) 2.54(7) 2.54(7)
La2 O2 . 2.45(2) 2.45(2) 2.45(2)
La2 O2 3_4555 2.49(2) 2.49(2) 2.49(2)
La2 O2 6_5545 2.44(2) 2.44(2) 2.44(2)
La2 O2 8_5645 2.53(2) 2.53(2) 2.53(2)
La2 O3 1_4555 2.40(2) 2.40(2) 2.40(2)
La2 O3 6_5545 2.46(2) 2.46(2) 2.46(2)
La2 O21 5_5555 3.210(17) 3.210(17) 3.210(17)
La2 O31 5_5555 3.230(17) 3.230(17) 3.230(17)
Ti11 O1 . 2.00(2) 2.00(2) 2.00(2)
Ti11 O2 . 1.937(18) 1.937(18) 1.937(18)
Ti11 O2 6_5555 2.016(18) 2.016(18) 2.016(18)
Ti11 La11 5_5555 3.383(3) 3.383(3) 3.383(3)
Ti11 La11 5_5565 3.408(3) 3.408(3) 3.408(3)
Ti11 La11 2_5555 3.3482(19) 3.3482(19) 3.3482(19)
Ti11 O11 5_5565 1.89(3) 1.89(3) 1.89(3)
Ti11 O21 5_5565 1.940(3) 1.940(3) 1.940(3)
Ti11 O21 2_5455 2.122(3) 2.122(3) 2.122(3)
Fe11 O1 . 2.00(2) 2.00(2) 2.00(2)
Fe11 O2 . 1.937(18) 1.937(18) 1.937(18)
Fe11 O2 6_5555 2.016(18) 2.016(18) 2.016(18)
Fe11 La11 5_5555 3.383(3) 3.383(3) 3.383(3)
Fe11 La11 5_5565 3.408(3) 3.408(3) 3.408(3)
Fe11 La11 2_5555 3.3482(19) 3.3482(19) 3.3482(19)
Fe11 O11 5_5565 1.89(3) 1.89(3) 1.89(3)
Fe11 O21 5_5565 1.940(3) 1.940(3) 1.940(3)
Fe11 O21 2_5455 2.122(3) 2.122(3) 2.122(3)
Ti13 O1 . 2.00(8) 2.00(8) 2.00(8)
Ti13 O2 . 1.81(2) 1.81(2) 1.81(2)
Ti13 O2 6_5555 1.87(2) 1.87(2) 1.87(2)
Ti13 La11 2_5455 3.4485(13) 3.4485(13) 3.4485(13)
Ti13 O11 5_5565 1.94(8) 1.94(8) 1.94(8)
Ti13 O21 5_5565 2.272(17) 2.272(17) 2.272(17)
Ti13 O21 2_5455 1.718(17) 1.718(17) 1.718(17)
Fe13 O1 . 2.00(8) 2.00(8) 2.00(8)
Fe13 O2 . 1.81(2) 1.81(2) 1.81(2)
Fe13 O2 6_5555 1.87(2) 1.87(2) 1.87(2)
Fe13 La11 2_5455 3.4485(13) 3.4485(13) 3.4485(13)
Fe13 O11 5_5565 1.94(8) 1.94(8) 1.94(8)
Fe13 O21 5_5565 2.272(17) 2.272(17) 2.272(17)
Fe13 O21 2_5455 1.718(17) 1.718(17) 1.718(17)
Ti21 O1 1_6555 1.98(2) 1.98(2) 1.98(2)
Ti21 O3 . 1.934(18) 1.934(18) 1.934(18)
Ti21 O3 6_6555 2.029(19) 2.029(19) 2.029(19)
Ti21 La11 5_5555 3.390(3) 3.390(3) 3.390(3)
Ti21 La11 5_5565 3.418(3) 3.418(3) 3.418(3)
Ti21 La11 2_6455 3.4897(18) 3.4897(18) 3.4897(18)
Ti21 La11 2_6555 3.3351(19) 3.3351(19) 3.3351(19)
Ti21 O11 5_5565 2.10(3) 2.10(3) 2.10(3)
Ti21 O31 5_6565 1.977(3) 1.977(3) 1.977(3)
Ti21 O31 2_5455 2.089(3) 2.089(3) 2.089(3)
Fe21 O1 1_6555 1.98(2) 1.98(2) 1.98(2)
Fe21 O3 . 1.934(18) 1.934(18) 1.934(18)
Fe21 O3 6_6555 2.029(19) 2.029(19) 2.029(19)
Fe21 La11 5_5555 3.390(3) 3.390(3) 3.390(3)
Fe21 La11 5_5565 3.418(3) 3.418(3) 3.418(3)
Fe21 La11 2_6455 3.4897(18) 3.4897(18) 3.4897(18)
Fe21 La11 2_6555 3.3351(19) 3.3351(19) 3.3351(19)
Fe21 O11 5_5565 2.10(3) 2.10(3) 2.10(3)
Fe21 O31 5_6565 1.977(3) 1.977(3) 1.977(3)
Fe21 O31 2_5455 2.089(3) 2.089(3) 2.089(3)
Ti23 O1 1_6555 2.01(8) 2.01(8) 2.01(8)
Ti23 O3 . 1.76(2) 1.76(2) 1.76(2)
Ti23 O3 6_6555 1.88(2) 1.88(2) 1.88(2)
Ti23 La11 2_6455 3.4916(13) 3.4916(13) 3.4916(13)
Ti23 La31 5_5555 3.4985(17) 3.4985(17) 3.4985(17)
Ti23 La31 5_5565 3.4695(17) 3.4695(17) 3.4695(17)
Ti23 O11 5_5565 2.05(8) 2.05(8) 2.05(8)
Ti23 O31 5_6565 2.306(17) 2.306(17) 2.306(17)
Ti23 O31 2_5455 1.853(18) 1.853(18) 1.853(18)
Fe23 O1 1_6555 2.01(8) 2.01(8) 2.01(8)
Fe23 O3 . 1.76(2) 1.76(2) 1.76(2)
Fe23 O3 6_6555 1.88(2) 1.88(2) 1.88(2)
Fe23 La11 2_6455 3.4916(13) 3.4916(13) 3.4916(13)
Fe23 La31 5_5555 3.4985(17) 3.4985(17) 3.4985(17)
Fe23 La31 5_5565 3.4695(17) 3.4695(17) 3.4695(17)
Fe23 O11 5_5565 2.05(8) 2.05(8) 2.05(8)
Fe23 O31 5_6565 2.306(17) 2.306(17) 2.306(17)
Fe23 O31 2_5455 1.853(18) 1.853(18) 1.853(18)
O1 O2 . 2.83(6) 2.74(8) 2.95(8)
O1 O2 6_5555 2.78(6) 2.77(8) 2.80(3)
O1 O3 1_4555 2.81(6) 2.72(8) 2.91(8)
O1 O3 6_5555 2.79(6) 2.74(8) 2.82(3)
O1 La11 2_5455 2.79(5) 2.61(7) 2.96(2)
O1 La11 2_5555 2.58(5) 2.46(7) 2.70(2)
O1 Ti121 5_5565 2.06(8) 2.06(8) 2.06(8)
O1 Fe121 5_5565 2.06(8) 2.06(8) 2.06(8)
O1 Ti221 5_5565 1.98(8) 1.98(8) 1.98(8)
O1 Fe221 5_5565 1.98(8) 1.98(8) 1.98(8)
O1 O11 2_5465 3.54(8) 2.72(10) 3.96(10)
O1 O11 2_5565 3.37(7) 3.18(7) 3.57(7)
O1 O21 5_5565 2.81(6) 2.63(8) 3.08(8)
O1 O21 2_5455 2.79(6) 2.40(8) 3.04(8)
O1 O31 5_5565 2.80(6) 2.68(8) 3.00(8)
O1 O31 2_4455 2.78(6) 2.45(8) 2.97(8)
O2 O2 3_4555 2.85(3) 2.85(3) 2.85(3)
O2 O2 7_5455 2.85(3) 2.85(3) 2.85(3)
O2 O2 6_5545 2.82(3) 2.73(3) 2.88(2)
O2 O2 6_5555 2.82(3) 2.73(3) 2.88(2)
O2 O3 1_4555 3.55(3) 3.40(2) 3.69(3)
O2 O3 3_4555 2.94(3) 2.94(3) 2.94(3)
O2 O3 7_4455 2.76(3) 2.76(3) 2.76(3)
O2 La11 5_5555 2.763(18) 2.741(18) 2.785(18)
O2 La11 2_5555 2.744(18) 2.714(18) 2.773(18)
O2 La31 5_5555 2.51(2) 2.51(2) 2.51(2)
O2 La31 2_5555 2.44(2) 2.44(2) 2.44(2)
O2 Ti121 5_5565 2.012(18) 2.012(18) 2.012(18)
O2 Ti121 2_5555 2.168(19) 2.168(19) 2.168(19)
O2 Fe121 5_5565 2.012(18) 2.012(18) 2.012(18)
O2 Fe121 2_5555 2.168(19) 2.168(19) 2.168(19)
O2 O11 5_5565 2.81(6) 2.69(3) 2.92(8)
O2 O11 2_5555 2.76(6) 2.41(8) 3.43(8)
O2 O21 5_5555 3.35(2) 3.252(19) 3.53(2)
O2 O21 2_5455 2.78(2) 2.61(3) 2.951(19)
O2 O21 2_5555 2.78(2) 2.593(18) 3.00(3)
O3 O3 3_4555 2.85(3) 2.85(3) 2.85(3)
O3 O3 7_5455 2.85(3) 2.85(3) 2.85(3)
O3 O3 6_6545 2.84(3) 2.73(3) 2.92(3)
O3 O3 6_6555 2.84(3) 2.73(3) 2.92(3)
O3 La11 5_5555 2.754(18) 2.720(17) 2.787(19)
O3 La11 2_6555 2.751(18) 2.711(19) 2.790(17)
O3 La31 3_5455 2.52(2) 2.52(2) 2.52(2)
O3 La31 5_5555 2.45(2) 2.45(2) 2.45(2)
O3 La31 2_6555 2.47(2) 2.47(2) 2.47(2)
O3 La31 4_5655 3.06(2) 3.06(2) 3.06(2)
O3 Ti221 5_6565 2.023(19) 2.023(19) 2.023(19)
O3 Ti221 2_5555 2.186(18) 2.186(18) 2.186(18)
O3 Fe221 5_6565 2.023(19) 2.023(19) 2.023(19)
O3 Fe221 2_5555 2.186(18) 2.186(18) 2.186(18)
O3 O11 5_5565 2.85(6) 2.79(8) 2.93(8)
O3 O11 2_6555 2.81(6) 2.54(8) 3.34(8)
O3 O31 5_6555 3.25(2) 3.15(3) 3.39(3)
O3 O31 2_5455 2.79(2) 2.67(3) 2.940(18)
O3 O31 2_5555 2.78(2) 2.623(19) 2.88(2)
La11 Ti121 . 3.415(3) 3.415(3) 3.415(3)
La11 Ti121 1_5565 3.361(3) 3.361(3) 3.361(3)
La11 Ti121 6_4555 3.417(3) 3.417(3) 3.417(3)
La11 Fe121 . 3.415(3) 3.415(3) 3.415(3)
La11 Fe121 1_5565 3.361(3) 3.361(3) 3.361(3)
La11 Fe121 6_4555 3.417(3) 3.417(3) 3.417(3)
La11 Ti221 1_6555 3.440(3) 3.440(3) 3.440(3)
La11 Ti221 1_6565 3.403(3) 3.403(3) 3.403(3)
La11 Ti221 6_4555 3.396(3) 3.396(3) 3.396(3)
La11 Fe221 1_6555 3.440(3) 3.440(3) 3.440(3)
La11 Fe221 1_6565 3.403(3) 3.403(3) 3.403(3)
La11 Fe221 6_4555 3.396(3) 3.396(3) 3.396(3)
La11 O11 . 3.26(5) 2.89(2) 3.63(7)
La11 O11 1_5565 2.36(5) 2.03(7) 2.69(2)
La11 O21 . 2.388(10) 2.367(2) 2.409(17)
La11 O21 6_4455 3.144(10) 2.978(17) 3.311(2)
La11 O31 1_6555 2.344(10) 2.321(17) 2.368(2)
La11 O31 6_4455 3.178(10) 3.052(17) 3.303(2)
La31 O11 . 2.59(7) 2.59(7) 2.59(7)
La31 O11 1_5565 3.17(7) 3.17(7) 3.17(7)
La31 O21 . 3.067(17) 3.067(17) 3.067(17)
La31 O31 1_6555 2.968(17) 2.968(17) 2.968(17)
Ti121 O11 . 2.20(8) 2.20(8) 2.20(8)
Ti121 O21 . 2.134(17) 2.134(17) 2.134(17)
Ti121 O21 6_4445 1.756(17) 1.756(17) 1.756(17)
Fe121 O11 . 2.20(8) 2.20(8) 2.20(8)
Fe121 O21 . 2.134(17) 2.134(17) 2.134(17)
Fe121 O21 6_4445 1.756(17) 1.756(17) 1.756(17)
Ti221 O11 1_4555 2.08(8) 2.08(8) 2.08(8)
Ti221 O31 . 2.071(18) 2.071(18) 2.071(18)
Ti221 O31 6_3445 1.750(18) 1.750(18) 1.750(18)
Fe221 O11 1_4555 2.08(8) 2.08(8) 2.08(8)
Fe221 O31 . 2.071(18) 2.071(18) 2.071(18)
Fe221 O31 6_3445 1.750(18) 1.750(18) 1.750(18)
O11 O21 . 2.92(6) 2.75(2) 3.16(8)
O11 O21 6_4445 2.79(6) 2.28(8) 3.17(2)
O11 O31 1_6545 4.17(6) 3.47(8) 4.60(8)
O11 O31 1_6555 2.95(6) 2.89(8) 3.06(8)
O11 O31 6_4445 2.85(6) 2.20(8) 3.27(2)
O21 O21 6_4445 2.834(17) 2.77(2) 2.912(3)
O21 O21 6_4455 2.834(17) 2.77(2) 2.912(3)
O21 O31 1_6555 3.552(17) 3.26(2) 3.91(2)
O31 O31 6_3445 2.845(18) 2.78(2) 2.900(3)
O31 O31 6_3455 2.845(18) 2.78(2) 2.900(3)
#BEGIN Loops that were not found in dictionaries:
loop_
_jana_cell_twin_matrix_id
_jana_cell_twin_volume_fraction
_jana_cell_twin_matrix_1_1
_jana_cell_twin_matrix_1_2
_jana_cell_twin_matrix_1_3
_jana_cell_twin_matrix_2_1
_jana_cell_twin_matrix_2_2
_jana_cell_twin_matrix_2_3
_jana_cell_twin_matrix_3_1
_jana_cell_twin_matrix_3_2
_jana_cell_twin_matrix_3_3
1 0.5905(10) 1 0 0 0 1 0 0 0 1
2 0.4095(10) 1 0 0 0 -1 0 0 0 -1
loop_
_jana_atom_site_crenel_ortho_func_id
_jana_atom_site_crenel_ortho_func_c
_jana_atom_site_crenel_ortho_func_w
_jana_atom_site_crenel_ortho_func_eps
1 0.000000 0.142857 0.950000
2 0.110521 0.035714 0.950000
3 -0.105816 0.035714 0.950000
4 0.000000 0.214286 0.950000
5 0.000000 0.250000 0.950000
6 0.000000 0.250000 0.950000
loop_
_jana_atom_site_displace_crenel_ortho_atom_site_label
_jana_atom_site_displace_crenel_ortho_axis
_jana_atom_site_displace_crenel_ortho_id
_jana_atom_site_displace_crenel_ortho_param_order
_jana_atom_site_displace_crenel_ortho_param_coeff
La1 x 1 1 0.00016(9)
La1 y 1 1 0.03782(4)
La1 z 1 1 0.00057(6)
La1 x 1 2 0.00016(3)
La1 y 1 2 -0.00065(4)
La1 z 1 2 0.00054(4)
O1 x 4 1 -0.0004(5)
O1 y 4 1 0.0206(6)
O1 z 4 1 -0.0095(5)
O1 x 4 2 0.0005(3)
O1 y 4 2 0.0087(5)
O1 z 4 2 0.0042(6)
O1 x 4 3 0.0012(7)
O1 y 4 3 -0.0038(8)
O1 z 4 3 0.0050(8)
O1 x 4 4 0.0004(4)
O1 y 4 4 -0.0064(6)
O1 z 4 4 -0.0008(6)
O1 x 4 5 -0.0011(8)
O1 y 4 5 0.0071(10)
O1 z 4 5 0.0039(10)
O1 x 4 6 0
O1 y 4 6 0
O1 z 4 6 0
O2 x 5 1 0.0019(3)
O2 y 5 1 0.0348(5)
O2 z 5 1 0.0016(4)
O2 x 5 2 -0.0083(3)
O2 y 5 2 -0.0044(4)
O2 z 5 2 0.0137(5)
O2 x 5 3 0.0056(4)
O2 y 5 3 -0.0049(5)
O2 z 5 3 -0.0064(5)
O2 x 5 4 0.0029(3)
O2 y 5 4 0.0083(5)
O2 z 5 4 -0.0033(5)
O2 x 5 5 -0.0073(4)
O2 y 5 5 0.0070(6)
O2 z 5 5 0.0031(6)
O2 x 5 6 0
O2 y 5 6 0
O2 z 5 6 0
O3 x 6 1 -0.0024(3)
O3 y 6 1 0.0371(5)
O3 z 6 1 0.0011(4)
O3 x 6 2 0.0063(3)
O3 y 6 2 0.0024(5)
O3 z 6 2 0.0164(5)
O3 x 6 3 -0.0059(4)
O3 y 6 3 -0.0021(5)
O3 z 6 3 -0.0069(5)
O3 x 6 4 -0.0016(3)
O3 y 6 4 0.0049(5)
O3 z 6 4 -0.0035(5)
O3 x 6 5 0.0067(4)
O3 y 6 5 0.0032(6)
O3 z 6 5 0.0032(6)
O3 x 6 6 0
O3 y 6 6 0
O3 z 6 6 0
loop_
_jana_atom_site_u_crenel_ortho_atom_site_label
_jana_atom_site_u_crenel_ortho_tens_elem
_jana_atom_site_u_crenel_ortho_id
_jana_atom_site_u_crenel_ortho_param_order
_jana_atom_site_u_crenel_ortho_param_coeff
La1 U11 1 1 0.00030(6)
La1 U22 1 1 0.00024(7)
La1 U33 1 1 0.00087(9)
La1 U12 1 1 0.00018(9)
La1 U13 1 1 0.00001(6)
La1 U23 1 1 0.00012(10)
La1 U11 1 2 0.00057(7)
La1 U22 1 2 0.00078(7)
La1 U33 1 2 -0.00089(10)
La1 U12 1 2 -0.00010(10)
La1 U13 1 2 0.00026(15)
La1 U23 1 2 0.00024(8)
La1 U11 1 3 -0.00021(9)
La1 U22 1 3 0.00073(10)
La1 U33 1 3 -0.00026(13)
La1 U12 1 3 -0.00011(8)
La1 U13 1 3 -0.00010(9)
La1 U23 1 3 -0.00062(17)
La1 U11 1 4 0
La1 U22 1 4 0
La1 U33 1 4 0
La1 U12 1 4 0
La1 U13 1 4 0
La1 U23 1 4 0
#END Loops that were not found in dictionaries
