#------------------------------------------------------------------------------
#$Date: 2016-02-13 21:28:24 +0200 (Sat, 13 Feb 2016) $
#$Revision: 176429 $
#$URL: svn://www.crystallography.net/cod/cif/2/31/08/2310876.cif $
#------------------------------------------------------------------------------
#
# This file is available in the Crystallography Open Database (COD),
# http://www.crystallography.net/. The original data for this entry
# were provided by IUCr Journals, http://journals.iucr.org/.
#
# The file may be used within the scientific community so long as
# proper attribution is given to the journal article from which the
# data were obtained.
#
data_2310876
loop_
_publ_author_name
'Ladell, J.'
'Post, B.'
'Fankuchen, I.'
_publ_section_title
;
 The Crystal Structure of Nickel Carbonyl, Ni (C O)4
;
_journal_name_full               'Acta Crystallographica (1,1948-23,1967)'
_journal_page_first              795
_journal_page_last               800
_journal_volume                  5
_journal_year                    1952
_chemical_formula_sum            'C4 Ni O4'
_chemical_name_systematic        'Ni (C O)4'
_space_group_IT_number           205
_symmetry_space_group_name_Hall  '-P 2ac 2ab 3'
_symmetry_space_group_name_H-M   'P a -3'
_cell_angle_alpha                90
_cell_angle_beta                 90
_cell_angle_gamma                90
_cell_formula_units_Z            8
_cell_length_a                   10.84
_cell_length_b                   10.84
_cell_length_c                   10.84
_cell_volume                     1273.761
_citation_journal_id_ASTM        ACCRA9
_cod_data_source_file            Ladell_ACCRA9_1952_177.cif
_cod_data_source_block           C4Ni1O4
_cod_original_formula_sum        'C4 Ni1 O4'
_cod_database_code               2310876
loop_
_symmetry_equiv_pos_as_xyz
x,y,z
-x+1/2,-y,z+1/2
x+1/2,-y+1/2,-z
-x,y+1/2,-z+1/2
z,x,y
-z+1/2,-x,y+1/2
z+1/2,-x+1/2,-y
-z,x+1/2,-y+1/2
y,z,x
y+1/2,-z+1/2,-x
-y,z+1/2,-x+1/2
-y+1/2,-z,x+1/2
-x,-y,-z
x-1/2,y,-z-1/2
-x-1/2,y-1/2,z
x,-y-1/2,z-1/2
-z,-x,-y
z-1/2,x,-y-1/2
-z-1/2,x-1/2,y
z,-x-1/2,y-1/2
-y,-z,-x
-y-1/2,z-1/2,x
y,-z-1/2,x-1/2
y-1/2,z,-x-1/2
loop_
_atom_site_label
_atom_site_type_symbol
_atom_site_fract_x
_atom_site_fract_y
_atom_site_fract_z
_atom_site_occupancy
_atom_site_U_iso_or_equiv
O2 O-2 -0.025 -0.044 0.28 1 0.0
C1 C+2 0.22 0.22 0.22 1 0.0
O1 O-2 0.281 0.281 0.281 1 0.0
C2 C+2 0.032 0.02 0.22 1 0.0
Ni1 Ni 0.123 0.123 0.123 1 0.0
