#------------------------------------------------------------------------------
#$Date: 2016-02-13 21:28:24 +0200 (Sat, 13 Feb 2016) $
#$Revision: 176429 $
#$URL: svn://www.crystallography.net/cod/cif/2/31/08/2310853.cif $
#------------------------------------------------------------------------------
#
# This file is available in the Crystallography Open Database (COD),
# http://www.crystallography.net/. The original data for this entry
# were provided by IUCr Journals, http://journals.iucr.org/.
#
# The file may be used within the scientific community so long as
# proper attribution is given to the journal article from which the
# data were obtained.
#
data_2310853
loop_
_publ_author_name
'Frevel, L.K.'
'Rinn, H.W.'
_publ_section_title
;
 The crystal structure of Nb O2 F and Ta O2 F
;
_journal_name_full               'Acta Crystallographica (1,1948-23,1967)'
_journal_page_first              626
_journal_page_last               627
_journal_volume                  9
_journal_year                    1956
_chemical_formula_sum            'F O2 Ta'
_chemical_name_systematic        'Ta O2 F'
_space_group_IT_number           221
_symmetry_space_group_name_Hall  '-P 4 2 3'
_symmetry_space_group_name_H-M   'P m -3 m'
_cell_angle_alpha                90
_cell_angle_beta                 90
_cell_angle_gamma                90
_cell_formula_units_Z            1
_cell_length_a                   3.896
_cell_length_b                   3.896
_cell_length_c                   3.896
_cell_volume                     59.137
_citation_journal_id_ASTM        ACCRA9
_cod_data_source_file            Frevel_ACCRA9_1956_285.cif
_cod_data_source_block           F1O2Ta1
_cod_original_cell_volume        59.13666
_cod_original_formula_sum        'F1 O2 Ta1'
_cod_database_code               2310853
loop_
_symmetry_equiv_pos_as_xyz
x,y,z
-y,x,z
-x,-y,z
y,-x,z
x,-y,-z
y,x,-z
-x,y,-z
-y,-x,-z
z,x,y
-x,z,y
-z,-x,y
x,-z,y
z,-x,-y
x,z,-y
-z,x,-y
-x,-z,-y
y,z,x
y,-z,-x
z,y,-x
-y,z,-x
-z,-y,-x
-y,-z,x
z,-y,x
-z,y,x
-x,-y,-z
y,-x,-z
x,y,-z
-y,x,-z
-x,y,z
-y,-x,z
x,-y,z
y,x,z
-z,-x,-y
x,-z,-y
z,x,-y
-x,z,-y
-z,x,y
-x,-z,y
z,-x,y
x,z,y
-y,-z,-x
-y,z,x
-z,-y,x
y,-z,x
z,y,x
y,z,-x
-z,y,-x
z,-y,-x
loop_
_atom_site_label
_atom_site_type_symbol
_atom_site_fract_x
_atom_site_fract_y
_atom_site_fract_z
_atom_site_occupancy
_atom_site_U_iso_or_equiv
Ta1 Ta+5 0 0 0 1 0.0
F1 F-1 0 0 0.5 0.3333 0.0
O1 O-2 0 0 0.5 0.6667 0.0
