#------------------------------------------------------------------------------
#$Date: 2016-02-13 21:28:24 +0200 (Sat, 13 Feb 2016) $
#$Revision: 176429 $
#$URL: svn://www.crystallography.net/cod/cif/2/31/03/2310394.cif $
#------------------------------------------------------------------------------
#
# This file is available in the Crystallography Open Database (COD),
# http://www.crystallography.net/. The original data for this entry
# were provided by IUCr Journals, http://journals.iucr.org/.
#
# The file may be used within the scientific community so long as
# proper attribution is given to the journal article from which the
# data were obtained.
#
data_2310394
loop_
_publ_author_name
'Greenblatt, M.'
'Post, B.'
'Banks, E.'
_publ_section_title
;
 The crystal structures of the spodiosite analogs, Ca2 Cr O4 Cl and Ca2 P
 O4 Cl
;
_journal_name_full               'Acta Crystallographica (1,1948-23,1967)'
_journal_page_first              166
_journal_page_last               171
_journal_volume                  23
_journal_year                    1967
_chemical_formula_sum            'Ca2 Cl O4 P'
_chemical_name_systematic        'Ca2 (P O4) Cl'
_space_group_IT_number           57
_symmetry_space_group_name_Hall  '-P 2c 2b'
_symmetry_space_group_name_H-M   'P b c m'
_cell_angle_alpha                90
_cell_angle_beta                 90
_cell_angle_gamma                90
_cell_formula_units_Z            4
_cell_length_a                   6.185
_cell_length_b                   6.983
_cell_length_c                   10.816
_cell_volume                     467.141
_citation_journal_id_ASTM        ACCRA9
_cod_data_source_file            Greenblatt_ACCRA9_1967_1378.cif
_cod_data_source_block           Ca2Cl1O4P1
_cod_original_cell_volume        467.1414
_cod_original_formula_sum        'Ca2 Cl1 O4 P1'
_cod_database_code               2310394
loop_
_symmetry_equiv_pos_as_xyz
x,y,z
-x,-y,z+1/2
x,-y+1/2,-z
-x,y+1/2,-z+1/2
-x,-y,-z
x,y,-z-1/2
-x,y-1/2,z
x,-y-1/2,z-1/2
loop_
_atom_site_label
_atom_site_type_symbol
_atom_site_fract_x
_atom_site_fract_y
_atom_site_fract_z
_atom_site_occupancy
_atom_site_U_iso_or_equiv
O1 O-2 0.0105 0.7277 0.3855 1 0.0
Ca2 Ca+2 0.1286 0.472 0.25 1 0.0
Ca1 Ca+2 0.6336 0.25 0 1 0.0
Cl1 Cl-1 0.5185 0.2173 0.25 1 0.0
P1 P+5 0.1381 0.25 0 1 0.0
O2 O-2 0.716 0.5764 0.5233 1 0.0
