#------------------------------------------------------------------------------
#$Date: 2015-10-07 13:40:51 +0300 (Wed, 07 Oct 2015) $
#$Revision: 160628 $
#$URL: svn://www.crystallography.net/cod/cif/2/31/07/2310721.cif $
#------------------------------------------------------------------------------
#
# This file is available in the Crystallography Open Database (COD),
# http://www.crystallography.net/. The original data for this entry
# were provided by IUCr Journals, http://journals.iucr.org/.
#
# The file may be used within the scientific community so long as
# proper attribution is given to the journal article from which the
# data were obtained.
#
data_2310721
loop_
_publ_author_name
'Ahtee, M.'
'Hewat, A.W.'
'Kurki-Suonio, K.'
'Lucas, B.W.'
_publ_section_title
;
 Determination of molecular orientations in cubic N D4 N O3 by multipole
 analysis
;
_journal_name_full               'Acta Crystallographica A (24,1968-38,1982)'
_journal_page_first              591
_journal_page_last               597
_journal_volume                  35
_journal_year                    1979
_chemical_formula_sum            'D4 N2 O3'
_chemical_name_systematic        '(N D4) (N O3)'
_space_group_IT_number           221
_symmetry_space_group_name_Hall  '-P 4 2 3'
_symmetry_space_group_name_H-M   'P m -3 m'
_cell_angle_alpha                90
_cell_angle_beta                 90
_cell_angle_gamma                90
_cell_formula_units_Z            1
_cell_length_a                   4.3655
_cell_length_b                   4.3655
_cell_length_c                   4.3655
_cell_volume                     83.196
_citation_journal_id_ASTM        ACACBN
_cod_data_source_file            Ahtee_ACACBN_1979_1941.cif
_cod_data_source_block           D4N2O3
_cod_original_cell_volume        83.19591
_cod_database_code               2310721
loop_
_symmetry_equiv_pos_as_xyz
x,y,z
-y,x,z
-x,-y,z
y,-x,z
x,-y,-z
y,x,-z
-x,y,-z
-y,-x,-z
z,x,y
-x,z,y
-z,-x,y
x,-z,y
z,-x,-y
x,z,-y
-z,x,-y
-x,-z,-y
y,z,x
y,-z,-x
z,y,-x
-y,z,-x
-z,-y,-x
-y,-z,x
z,-y,x
-z,y,x
-x,-y,-z
y,-x,-z
x,y,-z
-y,x,-z
-x,y,z
-y,-x,z
x,-y,z
y,x,z
-z,-x,-y
x,-z,-y
z,x,-y
-x,z,-y
-z,x,y
-x,-z,y
z,-x,y
x,z,y
-y,-z,-x
-y,z,x
-z,-y,x
y,-z,x
z,y,x
y,z,-x
-z,y,-x
z,-y,-x
loop_
_atom_site_label
_atom_site_type_symbol
_atom_site_fract_x
_atom_site_fract_y
_atom_site_fract_z
_atom_site_occupancy
_atom_site_U_iso_or_equiv
O1 O-2 0.5 0.5 0.829 0.167 0.0
N1 N-3 0 0 0 1 0.0
O2 O-2 0.5 0.7725 0.3925 0.083 0.0
N2 N+5 0.5 0.5 0.55 0.167 0.0
D1 D+1 0.1248 0.1248 0.1248 0.5 0.0
