#------------------------------------------------------------------------------
#$Date: 2016-02-13 21:28:24 +0200 (Sat, 13 Feb 2016) $
#$Revision: 176429 $
#$URL: svn://www.crystallography.net/cod/cif/2/31/06/2310671.cif $
#------------------------------------------------------------------------------
#
# This file is available in the Crystallography Open Database (COD),
# http://www.crystallography.net/. The original data for this entry
# were provided by IUCr Journals, http://journals.iucr.org/.
#
# The file may be used within the scientific community so long as
# proper attribution is given to the journal article from which the
# data were obtained.
#
data_2310671
loop_
_publ_author_name
'Siegel, S.'
'Gebert, E.'
_publ_section_title
;
 The structures of hexagonal Cs Cd Cl3 and tetragonal Cs2 Cd Cl4
;
_journal_name_full               'Acta Crystallographica (1,1948-23,1967)'
_journal_page_first              790
_journal_page_last               790
_journal_volume                  17
_journal_year                    1964
_chemical_formula_sum            'Cd Cl4 Cs2'
_chemical_name_systematic        'Cs2 Cd Cl4'
_space_group_IT_number           139
_symmetry_space_group_name_Hall  '-I 4 2'
_symmetry_space_group_name_H-M   'I 4/m m m'
_cell_angle_alpha                90
_cell_angle_beta                 90
_cell_angle_gamma                90
_cell_formula_units_Z            2
_cell_length_a                   5.26
_cell_length_b                   5.26
_cell_length_c                   16.88
_cell_volume                     467.029
_citation_journal_id_ASTM        ACCRA9
_cod_data_source_file            Siegel_ACCRA9_1964_155.cif
_cod_data_source_block           Cd1Cl4Cs2
_cod_original_cell_volume        467.0291
_cod_original_formula_sum        'Cd1 Cl4 Cs2'
_cod_database_code               2310671
loop_
_symmetry_equiv_pos_as_xyz
x,y,z
-y,x,z
-x,-y,z
y,-x,z
x,-y,-z
y,x,-z
-x,y,-z
-y,-x,-z
-x,-y,-z
y,-x,-z
x,y,-z
-y,x,-z
-x,y,z
-y,-x,z
x,-y,z
y,x,z
x+1/2,y+1/2,z+1/2
-y+1/2,x+1/2,z+1/2
-x+1/2,-y+1/2,z+1/2
y+1/2,-x+1/2,z+1/2
x+1/2,-y+1/2,-z+1/2
y+1/2,x+1/2,-z+1/2
-x+1/2,y+1/2,-z+1/2
-y+1/2,-x+1/2,-z+1/2
-x+1/2,-y+1/2,-z+1/2
y+1/2,-x+1/2,-z+1/2
x+1/2,y+1/2,-z+1/2
-y+1/2,x+1/2,-z+1/2
-x+1/2,y+1/2,z+1/2
-y+1/2,-x+1/2,z+1/2
x+1/2,-y+1/2,z+1/2
y+1/2,x+1/2,z+1/2
loop_
_atom_site_label
_atom_site_type_symbol
_atom_site_fract_x
_atom_site_fract_y
_atom_site_fract_z
_atom_site_occupancy
_atom_site_U_iso_or_equiv
Cs1 Cs+1 0 0 0.357 1 0.0
Cd1 Cd+2 0 0 0 1 0.0
Cl2 Cl-1 0 0 0.149 1 0.0
Cl1 Cl-1 0 0.5 0 1 0.0
