#------------------------------------------------------------------------------
#$Date: 2016-02-13 21:28:24 +0200 (Sat, 13 Feb 2016) $
#$Revision: 176429 $
#$URL: svn://www.crystallography.net/cod/cif/2/31/06/2310677.cif $
#------------------------------------------------------------------------------
#
# This file is available in the Crystallography Open Database (COD),
# http://www.crystallography.net/. The original data for this entry
# were provided by IUCr Journals, http://journals.iucr.org/.
#
# The file may be used within the scientific community so long as
# proper attribution is given to the journal article from which the
# data were obtained.
#
data_2310677
loop_
_publ_author_name
'Steadman, R.'
'Nuttall, P.M.'
_publ_section_title
;
 Polymorphism in cronstedtite
;
_journal_name_full               'Acta Crystallographica (1,1948-23,1967)'
_journal_page_first              1
_journal_page_last               8
_journal_volume                  16
_journal_year                    1963
_chemical_formula_sum            'Fe4 H5 O9 Si'
_chemical_name_systematic        'Fe3 ((Fe Si) O4 (O H)5)'
_space_group_IT_number           185
_symmetry_space_group_name_Hall  'P 6c -2'
_symmetry_space_group_name_H-M   'P 63 c m'
_cell_angle_alpha                90
_cell_angle_beta                 90
_cell_angle_gamma                120
_cell_formula_units_Z            2
_cell_length_a                   5.49
_cell_length_b                   5.49
_cell_length_c                   14.17
_cell_volume                     369.867
_citation_journal_id_ASTM        ACCRA9
_cod_data_source_file            Steadman_ACCRA9_1963_1894.cif
_cod_data_source_block           H5Fe4O9Si1
_cod_original_cell_volume        369.8666
_cod_original_formula_sum        'H5 Fe4 O9 Si1'
_cod_database_code               2310677
loop_
_symmetry_equiv_pos_as_xyz
x,y,z
x-y,x,z+1/2
-y,x-y,z
-x,-y,z+1/2
-x+y,-x,z
y,-x+y,z+1/2
y,x,z
-x+y,y,z+1/2
-x,-x+y,z
-y,-x,z+1/2
x-y,-y,z
x,x-y,z+1/2
loop_
_atom_site_label
_atom_site_type_symbol
_atom_site_fract_x
_atom_site_fract_y
_atom_site_fract_z
_atom_site_occupancy
_atom_site_U_iso_or_equiv
O1 O-2 0.5 0 0 1 0.0
Si1 Si+4 0.3333 0.6667 0.046 0.5 0.0
Fe1 Fe+3 0.3333 0.6667 0.046 0.5 0.0
O2 O-2 0 0 0.17 1 0.0
O3 O-2 0.3333 0.6667 0.17 1 0.0
Fe2 Fe+2 0.6667 0 0.248 1 0.0
O4 O-2 0.3333 0 0.325 1 0.0
