#------------------------------------------------------------------------------
#$Date: 2015-10-20 19:45:52 +0300 (Tue, 20 Oct 2015) $
#$Revision: 169371 $
#$URL: svn://www.crystallography.net/cod/cif/2/31/10/2311039.cif $
#------------------------------------------------------------------------------
#
# This file is available in the Crystallography Open Database (COD),
# http://www.crystallography.net/. The original data for this entry
# were provided by IUCr Journals, http://journals.iucr.org/.
#
# The file may be used within the scientific community so long as
# proper attribution is given to the journal article from which the
# data were obtained.
#
data_2311039
loop_
_publ_author_name
'Jeffrey, G.A.'
'Wu, V.Y.'
_publ_section_title
;
 The structures of the aluminum carbonitrides. II
;
_journal_name_full               'Acta Crystallographica (1,1948-23,1967)'
_journal_page_first              538
_journal_page_last               547
_journal_volume                  20
_journal_year                    1966
_chemical_formula_sum            'C3 Al8 N4'
_chemical_name_systematic        'Al8 C3 N4'
_space_group_IT_number           160
_symmetry_space_group_name_Hall  'R 3 -2"'
_symmetry_space_group_name_H-M   'R 3 m :H'
_cell_angle_alpha                90
_cell_angle_beta                 90
_cell_angle_gamma                120
_cell_formula_units_Z            3
_cell_length_a                   3.211
_cell_length_b                   3.211
_cell_length_c                   55.08
_cell_volume                     491.819
_citation_journal_id_ASTM        ACCRA9
_cod_data_source_file            Jeffrey_ACCRA9_1966_451.cif
_cod_data_source_block           C3Al8N4
_cod_original_cell_volume        491.8188
_cod_database_code               2311039
loop_
_symmetry_equiv_pos_as_xyz
x,y,z
-y,x-y,z
-x+y,-x,z
-y,-x,z
x,x-y,z
-x+y,y,z
x+2/3,y+1/3,z+1/3
-y+2/3,x-y+1/3,z+1/3
-x+y+2/3,-x+1/3,z+1/3
-y+2/3,-x+1/3,z+1/3
x+2/3,x-y+1/3,z+1/3
-x+y+2/3,y+1/3,z+1/3
x+1/3,y+2/3,z+2/3
-y+1/3,x-y+2/3,z+2/3
-x+y+1/3,-x+2/3,z+2/3
-y+1/3,-x+2/3,z+2/3
x+1/3,x-y+2/3,z+2/3
-x+y+1/3,y+2/3,z+2/3
loop_
_atom_site_label
_atom_site_type_symbol
_atom_site_fract_x
_atom_site_fract_y
_atom_site_fract_z
_atom_site_occupancy
_atom_site_U_iso_or_equiv
Al1 Al 0 0 0.6852 1 0.0
Al6 Al 0 0 0.2268 1 0.0
C3 C 0 0 0.1898 1 0.0
Al7 Al 0 0 0.9365 1 0.0
Al2 Al 0 0 0.0633 1 0.0
N1 N 0 0 0.7212 1 0.0
Al5 Al 0 0 0.8522 1 0.0
C2 C 0 0 0.8112 1 0.0
Al8 Al 0 0 0.315 1 0.0
N4 N 0 0 0.2788 1 0.0
Al4 Al 0 0 0.1494 1 0.0
N2 N 0 0 0.0993 1 0.0
C1 C 0 0 0 1 0.0
N3 N 0 0 0.9005 1 0.0
Al3 Al 0 0 0.7752 1 0.0
