#------------------------------------------------------------------------------
#$Date: 2020-05-11 15:53:00 +0300 (Mon, 11 May 2020) $
#$Revision: 251946 $
#$URL: file:///home/coder/svn-repositories/cod/cif/3/00/02/3000243.cif $
#------------------------------------------------------------------------------
#
# This file is available in the Crystallography Open Database (COD),
# http://www.crystallography.net/
#
# All data on this site have been placed in the public domain by the
# contributors.
#
data_3000243
loop_
_publ_author_name
'El Mendili, Yassine'
'Orberger, Beate'
'Chateigner, Daniel'
'Bardeau, Jean-Fran\,cois'
'Gascoin, St\'ephanie'
'Petit, S\'ebastien'
'Perez, Olivier'
'Khadraoui, Fouzia'
_publ_section_title
;
 Insight into the structural, elastic and electronic properties of a new
 orthorhombic 6O-SiC polytype
;
_journal_issue                   1
_journal_name_full               'Scientific Reports'
_journal_page_first              7562
_journal_paper_doi               10.1038/s41598-020-64415-4
_journal_volume                  10
_journal_year                    2020
_chemical_formula_sum            'C Si'
_chemical_formula_weight         481.2
_chemical_name_mineral           'Moissanite 6O SiC'
_space_group_IT_number           36
_space_group_name_Hall           'C 2c -2'
_space_group_name_H-M_alt        'C m c 21'
_symmetry_cell_setting           orthorhombic
_symmetry_Int_Tables_number      36
_symmetry_space_group_name_Hall  'C 2c -2'
_symmetry_space_group_name_H-M   'C m c 21'
_cell_angle_alpha                90
_cell_angle_beta                 90
_cell_angle_gamma                90
_cell_formula_units_Z            12
_cell_length_a                   3.0778(6)
_cell_length_b                   5.3350(14)
_cell_length_c                   15.1219(6)
_cell_measurement_temperature    291.66
_cell_volume                     248.30(8)
_diffrn_ambient_temperature      291.66
_diffrn_measurement_device       'four-circle diffractometer'
_diffrn_measurement_device_type  'Oxford Diffraction CCD'
_diffrn_measurement_method       'Oxford Diffraction CCD'
_diffrn_radiation_monochromator  graphite
_diffrn_radiation_probe          x-ray
_diffrn_radiation_source         'X-ray tube'
_diffrn_radiation_type           'Cu K\a'
_diffrn_radiation_wavelength     1.54184
_exptl_absorpt_coefficient_mu    14.788
_exptl_crystal_density_diffrn    3.2178
_exptl_crystal_F_000             240
_refine_ls_abs_structure_details
'  146 of Friedel pairs used in the refinement'
_refine_ls_abs_structure_Flack   0
_refine_ls_extinction_coef       10(30)
_refine_ls_extinction_method
'B-C type 1 Gaussian isotropic (Becker & Coppens, 1974)'
_refine_ls_goodness_of_fit_gt    3.81
_refine_ls_goodness_of_fit_ref   3.00
_refine_ls_number_constraints    0
_refine_ls_number_parameters     20
_refine_ls_number_reflns         305
_refine_ls_number_restraints     0
_refine_ls_R_factor_all          0.0452
_refine_ls_R_factor_gt           0.0329
_refine_ls_shift/su_max          0.0282
_refine_ls_shift/su_mean         0.0117
_refine_ls_structure_factor_coef F
_refine_ls_weighting_details     w=1/(\s^2^(F)+0.0001F^2^)
_refine_ls_weighting_scheme      sigma
_refine_ls_wR_factor_gt          0.0438
_refine_ls_wR_factor_ref         0.0442
_reflns_number_gt                194
_reflns_number_total             305
_reflns_threshold_expression     I>3\s(I)
_cod_data_source_file            cmc21.cif
_cod_data_source_block           global
_cod_depositor_comments
;
The following automatic conversions were performed:

'_diffrn_radiation_probe' value 'X-ray' changed to 'x-ray' according
to the built-in table from CIF Core dictionary named 'cif_core.dic'
version 2.4.5 from 2014-11-21.

Automatic conversion script
Id: cif_fix_values 6524 2018-11-02 12:15:13Z antanas 

 6O SiC'added to _chemical_name_mineral

 Extending hold period by 4 months (from 2019-10-23 to 2020-02-23)

 Releasing structure 3000243 into public domain as personal
 communication to COD.

 Changed the bibliography to refer to the peer-reviewed publication
 that the structure was published in.

 Antanas Vaitkus,
 2020-05-11

 Changed the Z value from 1 to 12 and the summary chemical formula
 from 'C12 Si12' to 'C Si'.

 Antanas Vaitkus,
 2020-05-11
;
_cod_original_sg_symbol_Hall     'C -2x;-2yc;2zc'
_cod_database_code               3000243
loop_
_space_group_symop_id
_space_group_symop_operation_xyz
1 x,y,z
2 -x,-y,z+1/2
3 x,-y,z+1/2
4 -x,y,z
5 x+1/2,y+1/2,z
6 -x+1/2,-y+1/2,z+1/2
7 x+1/2,-y+1/2,z+1/2
8 -x+1/2,y+1/2,z
loop_
_atom_site_label
_atom_site_type_symbol
_atom_site_fract_x
_atom_site_fract_y
_atom_site_fract_z
_atom_site_adp_type
_atom_site_U_iso_or_equiv
_atom_site_site_symmetry_multiplicity
_atom_site_occupancy
_atom_site_calc_flag
_atom_site_refinement_flags
_atom_site_disorder_assembly
_atom_site_disorder_group
Si1 Si 0 0.8327(15) 0.858 Uiso 0.0050(11) 4 1 d . . .
Si2 Si 0.5 -0.0007(6) 0.5241(4) Uiso 0.0055(5) 4 1 d . . .
Si3 Si 0.5 0.6643(14) 0.69124(12) Uiso 0.0057(11) 4 1 d . . .
C1 C 0 0.504(3) 0.6503(7) Uiso 0.0009(16) 4 1 d . . .
C2 C 0 0.840(4) 0.9817(5) Uiso 0.0062(16) 4 1 d . . .
C3 C 0.5 0.671(5) 0.8168(5) Uiso 0.0081(18) 4 1 d . . .
loop_
_atom_type_symbol
_atom_type_scat_dispersion_real
_atom_type_scat_dispersion_imag
_atom_type_scat_source
C 0.0181 0.0091 'International Tables Vol C tables 4.2.6.8 and 6.1.1.1'
Si 0.2541 0.3302 'International Tables Vol C tables 4.2.6.8 and 6.1.1.1'
loop_
_twin_individual_id
_twin_individual_mass_fraction_refined
_twin_individual_twin_matrix_11
_twin_individual_twin_matrix_12
_twin_individual_twin_matrix_13
_twin_individual_twin_matrix_21
_twin_individual_twin_matrix_22
_twin_individual_twin_matrix_23
_twin_individual_twin_matrix_31
_twin_individual_twin_matrix_32
_twin_individual_twin_matrix_33
1 0.50(5) 1 0 0 0 1 0 0 0 1
2 0 -1 0 0 0 -1 0 0 0 -1
3 0.50(5) -0.5 -1.5 0 0.5 -0.5 0 0 0 1
4 0 -0.5 1.5 0 -0.5 -0.5 0 0 0 1
loop_
_twin_refln_datum_id
_twin_refln_individual_id
_twin_refln_index_h
_twin_refln_index_k
_twin_refln_index_l
_twin_refln_F_squared_calc
_twin_refln_F_squared_meas
_twin_refln_F_squared_sigma
_twin_refln_include_status
1 4 -1 3 0 14662.10 15454.20 25.08 o
1 3 -1 -3 0 14662.10 15454.20 25.08 o
1 2 -2 0 0 14662.10 15454.20 25.08 o
1 1 2 0 0 14662.10 15454.20 25.08 o
2 4 -1 1 0 0.87 0.80 0.98 <
2 3 0 -2 0 0.87 0.80 0.98 <
2 2 -1 -1 0 0.87 0.80 0.98 <
2 1 1 1 0 0.87 0.80 0.98 <
3 4 -2 4 0 2.39 -0.98 1.78 <
3 3 -1 -5 0 2.39 -0.98 1.78 <
3 2 -3 -1 0 2.39 -0.98 1.78 <
3 1 3 1 0 2.39 -0.98 1.78 <
4 4 -1 -1 0 0.86 0.98 1.52 <
4 3 1 -1 0 0.86 0.98 1.52 <
4 2 0 -2 0 0.86 0.98 1.52 <
4 1 0 2 0 0.86 0.98 1.52 <
5 4 -2 2 0 1.05 0.71 1.16 <
5 3 0 -4 0 1.05 0.71 1.16 <
5 2 -2 -2 0 1.05 0.71 1.16 <
5 1 2 2 0 1.05 0.71 1.16 <
6 4 -2 0 0 14652.70 14057.30 231.48 o
6 3 1 -3 0 14652.70 14057.30 231.48 o
6 2 -1 -3 0 14652.70 14057.30 231.48 o
6 1 1 3 0 14652.70 14057.30 231.48 o
7 4 -3 3 0 6200.37 6234.32 88.15 o
7 3 0 -6 0 6200.37 6234.32 88.15 o
7 2 -3 -3 0 6200.37 6234.32 88.15 o
7 1 3 3 0 6200.37 6234.32 88.15 o
8 4 -2 -2 0 1.05 4.73 2.32 <
8 3 2 -2 0 1.05 4.73 2.32 <
8 2 0 -4 0 1.05 4.73 2.32 <
8 1 0 4 0 1.05 4.73 2.32 <
9 4 -3 1 0 2.37 2.14 2.23 <
9 3 1 -5 0 2.37 2.14 2.23 <
9 2 -2 -4 0 2.37 2.14 2.23 <
9 1 2 4 0 2.37 2.14 2.23 <
10 4 -3 -1 0 2.35 -2.85 3.30 <
10 3 2 -4 0 2.35 -2.85 3.30 <
10 2 -1 -5 0 2.35 -2.85 3.30 <
10 1 1 5 0 2.35 -2.85 3.30 <
11 4 -3 -3 0 6208.07 6303.06 230.88 o
11 3 3 -3 0 6208.07 6303.06 230.88 o
11 2 0 -6 0 6208.07 6303.06 230.88 o
11 1 0 6 0 6208.07 6303.06 230.88 o
12 4 -1 1 1 2004.73 2211.86 14.83 o
12 3 0 -2 1 2004.73 2211.86 14.83 o
12 2 -1 -1 -1 2004.73 2211.86 14.83 o
12 1 1 1 1 2004.73 2211.86 14.83 o
13 4 -1 1 -1 1968.43 2228.76 15.54 o
13 3 0 -2 -1 1968.43 2228.76 15.54 o
13 2 -1 -1 1 1968.43 2228.76 15.54 o
13 1 1 1 -1 1968.43 2228.76 15.54 o
14 4 -2 4 1 620.20 583.93 5.80 o
14 3 -1 -5 1 620.20 583.93 5.80 o
14 2 -3 -1 -1 620.20 583.93 5.80 o
14 1 3 1 1 620.20 583.93 5.80 o
15 4 -2 4 -1 607.56 587.49 5.26 o
15 3 -1 -5 -1 607.56 587.49 5.26 o
15 2 -3 -1 1 607.56 587.49 5.26 o
15 1 3 1 -1 607.56 587.49 5.26 o
16 4 -1 -1 1 2005.36 2332.47 7.42 o
16 3 1 -1 1 2005.36 2332.47 7.42 o
16 2 0 -2 -1 2005.36 2332.47 7.42 o
16 1 0 2 1 2005.36 2332.47 7.42 o
17 4 -1 -1 -1 1969.04 2180.17 4.47 o
17 3 1 -1 -1 1969.04 2180.17 4.47 o
17 2 0 -2 1 1969.04 2180.17 4.47 o
17 1 0 2 -1 1969.04 2180.17 4.47 o
18 4 -2 2 1 896.09 867.82 5.18 o
18 3 0 -4 1 896.09 867.82 5.18 o
18 2 -2 -2 -1 896.09 867.82 5.18 o
18 1 2 2 1 896.09 867.82 5.18 o
19 4 -2 2 -1 878.53 851.40 6.16 o
19 3 0 -4 -1 878.53 851.40 6.16 o
19 2 -2 -2 1 878.53 851.40 6.16 o
19 1 2 2 -1 878.53 851.40 6.16 o
20 3 1 -3 1 2.44 0.54 1.69 <
20 2 -1 -3 -1 2.44 0.54 1.69 <
20 1 1 3 1 2.44 0.54 1.69 <
21 3 1 -3 -1 2.81 -1.61 2.41 <
21 2 -1 -3 1 2.81 -1.61 2.41 <
21 1 1 3 -1 2.81 -1.61 2.41 <
22 4 -3 3 1 2.25 0.45 1.61 <
22 3 0 -6 1 2.25 0.45 1.61 <
22 2 -3 -3 -1 2.25 0.45 1.61 <
22 1 3 3 1 2.25 0.45 1.61 <
23 4 -3 3 -1 2.75 -4.10 2.05 <
23 3 0 -6 -1 2.75 -4.10 2.05 <
23 2 -3 -3 1 2.75 -4.10 2.05 <
23 1 3 3 -1 2.75 -4.10 2.05 <
24 4 -2 -2 1 897.11 851.85 14.63 o
24 3 2 -2 1 897.11 851.85 14.63 o
24 2 0 -4 -1 897.11 851.85 14.63 o
24 1 0 4 1 897.11 851.85 14.63 o
25 4 -2 -2 -1 879.54 813.38 13.39 o
25 3 2 -2 -1 879.54 813.38 13.39 o
25 2 0 -4 1 879.54 813.38 13.39 o
25 1 0 4 -1 879.54 813.38 13.39 o
26 4 -3 1 1 601.49 594.92 9.64 o
26 3 1 -5 1 601.49 594.92 9.64 o
26 2 -2 -4 -1 601.49 594.92 9.64 o
26 1 2 4 1 601.49 594.92 9.64 o
27 4 -3 1 -1 588.82 548.88 10.62 o
27 3 1 -5 -1 588.82 548.88 10.62 o
27 2 -2 -4 1 588.82 548.88 10.62 o
27 1 2 4 -1 588.82 548.88 10.62 o
28 4 -3 -1 1 601.43 642.02 13.92 o
28 3 2 -4 1 601.43 642.02 13.92 o
28 2 -1 -5 -1 601.43 642.02 13.92 o
28 1 1 5 1 601.43 642.02 13.92 o
29 4 -3 -1 -1 588.75 568.06 13.83 o
29 3 2 -4 -1 588.75 568.06 13.83 o
29 2 -1 -5 1 588.75 568.06 13.83 o
29 1 1 5 -1 588.75 568.06 13.83 o
30 4 -3 -3 1 2.25 1.87 3.66 <
30 3 3 -3 1 2.25 1.87 3.66 <
30 2 0 -6 -1 2.25 1.87 3.66 <
30 1 0 6 1 2.25 1.87 3.66 <
31 4 -3 -3 -1 2.75 -7.05 3.48 <
31 3 3 -3 -1 2.75 -7.05 3.48 <
31 2 0 -6 1 2.75 -7.05 3.48 <
31 1 0 6 -1 2.75 -7.05 3.48 <
32 4 0 0 2 0.61 1.69 0.71 <
32 3 0 0 2 0.61 1.69 0.71 <
32 2 0 0 -2 0.61 1.69 0.71 <
32 1 0 0 2 0.61 1.69 0.71 <
33 4 0 0 -2 0.62 -1.69 1.16 <
33 3 0 0 -2 0.62 -1.69 1.16 <
33 2 0 0 2 0.62 -1.69 1.16 <
33 1 0 0 -2 0.62 -1.69 1.16 <
34 4 -1 3 2 0.00 0.80 1.52 <
34 3 -1 -3 2 0.00 0.80 1.52 <
34 2 -2 0 -2 0.00 0.80 1.52 <
34 1 2 0 2 0.00 0.80 1.52 <
35 4 -1 3 -2 0.00 -0.36 1.69 <
35 3 -1 -3 -2 0.00 -0.36 1.69 <
35 2 -2 0 2 0.00 -0.36 1.69 <
35 1 2 0 -2 0.00 -0.36 1.69 <
36 4 -1 1 2 4004.50 4292.50 23.44 o
36 3 0 -2 2 4004.50 4292.50 23.44 o
36 2 -1 -1 -2 4004.50 4292.50 23.44 o
36 1 1 1 2 4004.50 4292.50 23.44 o
37 4 -1 1 -2 3850.67 4412.28 26.21 o
37 3 0 -2 -2 3850.67 4412.28 26.21 o
37 2 -1 -1 2 3850.67 4412.28 26.21 o
37 1 1 1 -2 3850.67 4412.28 26.21 o
38 4 -2 4 2 1378.74 1222.32 8.93 o
38 3 -1 -5 2 1378.74 1222.32 8.93 o
38 2 -3 -1 -2 1378.74 1222.32 8.93 o
38 1 3 1 2 1378.74 1222.32 8.93 o
39 4 -2 4 -2 1318.44 1286.27 8.92 o
39 3 -1 -5 -2 1318.44 1286.27 8.92 o
39 2 -3 -1 2 1318.44 1286.27 8.92 o
39 1 3 1 -2 1318.44 1286.27 8.92 o
40 4 -1 -1 2 4005.61 4020.42 22.10 o
40 3 1 -1 2 4005.61 4020.42 22.10 o
40 2 0 -2 -2 4005.61 4020.42 22.10 o
40 1 0 2 2 4005.61 4020.42 22.10 o
41 4 -1 -1 -2 3851.70 3917.64 17.27 o
41 3 1 -1 -2 3851.70 3917.64 17.27 o
41 2 0 -2 2 3851.70 3917.64 17.27 o
41 1 0 2 -2 3851.70 3917.64 17.27 o
42 4 -2 2 2 1998.26 1849.93 8.39 o
42 3 0 -4 2 1998.26 1849.93 8.39 o
42 2 -2 -2 -2 1998.26 1849.93 8.39 o
42 1 2 2 2 1998.26 1849.93 8.39 o
43 4 -2 2 -2 1918.81 1974.59 7.95 o
43 3 0 -4 -2 1918.81 1974.59 7.95 o
43 2 -2 -2 2 1918.81 1974.59 7.95 o
43 1 2 2 -2 1918.81 1974.59 7.95 o
44 4 -2 0 2 0.00 -2.05 1.78 <
44 3 1 -3 2 0.00 -2.05 1.78 <
44 2 -1 -3 -2 0.00 -2.05 1.78 <
44 1 1 3 2 0.00 -2.05 1.78 <
45 4 -2 0 -2 0.00 0.09 2.50 <
45 3 1 -3 -2 0.00 0.09 2.50 <
45 2 -1 -3 2 0.00 0.09 2.50 <
45 1 1 3 -2 0.00 0.09 2.50 <
46 4 -3 3 2 0.14 -0.09 1.69 <
46 3 0 -6 2 0.14 -0.09 1.69 <
46 2 -3 -3 -2 0.14 -0.09 1.69 <
46 1 3 3 2 0.14 -0.09 1.69 <
47 4 -3 3 -2 0.14 -0.62 2.05 <
47 3 0 -6 -2 0.14 -0.62 2.05 <
47 2 -3 -3 2 0.14 -0.62 2.05 <
47 1 3 3 -2 0.14 -0.62 2.05 <
48 4 -2 -2 2 2000.22 2120.58 33.57 o
48 3 2 -2 2 2000.22 2120.58 33.57 o
48 2 0 -4 -2 2000.22 2120.58 33.57 o
48 1 0 4 2 2000.22 2120.58 33.57 o
49 4 -2 -2 -2 1920.73 1909.68 30.89 o
49 3 2 -2 -2 1920.73 1909.68 30.89 o
49 2 0 -4 2 1920.73 1909.68 30.89 o
49 1 0 4 -2 1920.73 1909.68 30.89 o
50 4 -3 1 2 1350.85 1369.10 22.31 o
50 3 1 -5 2 1350.85 1369.10 22.31 o
50 2 -2 -4 -2 1350.85 1369.10 22.31 o
50 1 2 4 2 1350.85 1369.10 22.31 o
51 4 -3 1 -2 1290.29 1293.54 22.49 o
51 3 1 -5 -2 1290.29 1293.54 22.49 o
51 2 -2 -4 2 1290.29 1293.54 22.49 o
51 1 2 4 -2 1290.29 1293.54 22.49 o
52 4 -3 -1 2 1350.91 1426.31 35.61 o
52 3 2 -4 2 1350.91 1426.31 35.61 o
52 2 -1 -5 -2 1350.91 1426.31 35.61 o
52 1 1 5 2 1350.91 1426.31 35.61 o
53 4 -3 -1 -2 1290.33 1319.16 25.35 o
53 3 2 -4 -2 1290.33 1319.16 25.35 o
53 2 -1 -5 2 1290.33 1319.16 25.35 o
53 1 1 5 -2 1290.33 1319.16 25.35 o
54 4 -3 -3 2 0.14 1.87 3.57 <
54 3 3 -3 2 0.14 1.87 3.57 <
54 2 0 -6 -2 0.14 1.87 3.57 <
54 1 0 6 2 0.14 1.87 3.57 <
55 4 -3 -3 -2 0.13 3.66 3.39 <
55 3 3 -3 -2 0.13 3.66 3.39 <
55 2 0 -6 2 0.13 3.66 3.39 <
55 1 0 6 -2 0.13 3.66 3.39 <
56 4 -1 1 3 2850.03 2735.20 16.71 o
56 3 0 -2 3 2850.03 2735.20 16.71 o
56 2 -1 -1 -3 2850.03 2735.20 16.71 o
56 1 1 1 3 2850.03 2735.20 16.71 o
57 4 -1 1 -3 2714.77 2871.57 19.84 o
57 3 0 -2 -3 2714.77 2871.57 19.84 o
57 2 -1 -1 3 2714.77 2871.57 19.84 o
57 1 1 1 -3 2714.77 2871.57 19.84 o
58 4 -2 4 3 1208.15 1136.97 11.96 o
58 3 -1 -5 3 1208.15 1136.97 11.96 o
58 2 -3 -1 -3 1208.15 1136.97 11.96 o
58 1 3 1 3 1208.15 1136.97 11.96 o
59 4 -2 4 -3 1156.41 1231.89 10.89 o
59 3 -1 -5 -3 1156.41 1231.89 10.89 o
59 2 -3 -1 3 1156.41 1231.89 10.89 o
59 1 3 1 -3 1156.41 1231.89 10.89 o
60 4 -1 -1 3 2850.42 2250.41 16.27 o
60 3 1 -1 3 2850.42 2250.41 16.27 o
60 2 0 -2 -3 2850.42 2250.41 16.27 o
60 1 0 2 3 2850.42 2250.41 16.27 o
61 4 -1 -1 -3 2715.09 2433.03 16.53 o
61 3 1 -1 -3 2715.09 2433.03 16.53 o
61 2 0 -2 3 2715.09 2433.03 16.53 o
61 1 0 2 -3 2715.09 2433.03 16.53 o
62 4 -2 2 3 1714.85 1639.95 8.21 o
62 3 0 -4 3 1714.85 1639.95 8.21 o
62 2 -2 -2 -3 1714.85 1639.95 8.21 o
62 1 2 2 3 1714.85 1639.95 8.21 o
63 4 -2 2 -3 1644.63 1696.84 7.32 o
63 3 0 -4 -3 1644.63 1696.84 7.32 o
63 2 -2 -2 3 1644.63 1696.84 7.32 o
63 1 2 2 -3 1644.63 1696.84 7.32 o
64 3 1 -3 3 0.65 1.43 1.52 <
64 2 -1 -3 -3 0.65 1.43 1.52 <
64 1 1 3 3 0.65 1.43 1.52 <
65 3 1 -3 -3 0.59 -0.27 2.94 <
65 2 -1 -3 3 0.59 -0.27 2.94 <
65 1 1 3 -3 0.59 -0.27 2.94 <
66 4 -3 3 3 0.80 1.07 1.69 <
66 3 0 -6 3 0.80 1.07 1.69 <
66 2 -3 -3 -3 0.80 1.07 1.69 <
66 1 3 3 3 0.80 1.07 1.69 <
67 4 -3 3 -3 0.71 -0.62 1.87 <
67 3 0 -6 -3 0.71 -0.62 1.87 <
67 2 -3 -3 3 0.71 -0.62 1.87 <
67 1 3 3 -3 0.71 -0.62 1.87 <
68 4 -2 -2 3 1716.46 1886.71 32.94 o
68 3 2 -2 3 1716.46 1886.71 32.94 o
68 2 0 -4 -3 1716.46 1886.71 32.94 o
68 1 0 4 3 1716.46 1886.71 32.94 o
69 4 -2 -2 -3 1646.20 1694.25 23.48 o
69 3 2 -2 -3 1646.20 1694.25 23.48 o
69 2 0 -4 3 1646.20 1694.25 23.48 o
69 1 0 4 -3 1646.20 1694.25 23.48 o
70 4 -3 1 3 1180.04 1291.76 22.22 o
70 3 1 -5 3 1180.04 1291.76 22.22 o
70 2 -2 -4 -3 1180.04 1291.76 22.22 o
70 1 2 4 3 1180.04 1291.76 22.22 o
71 4 -3 1 -3 1127.94 1133.31 19.99 o
71 3 1 -5 -3 1127.94 1133.31 19.99 o
71 2 -2 -4 3 1127.94 1133.31 19.99 o
71 1 2 4 -3 1127.94 1133.31 19.99 o
72 4 -3 -1 3 1180.03 1254.90 30.88 o
72 3 2 -4 3 1180.03 1254.90 30.88 o
72 2 -1 -5 -3 1180.03 1254.90 30.88 o
72 1 1 5 3 1180.03 1254.90 30.88 o
73 4 -3 -1 -3 1127.90 1098.86 19.81 o
73 3 2 -4 -3 1127.90 1098.86 19.81 o
73 2 -1 -5 3 1127.90 1098.86 19.81 o
73 1 1 5 -3 1127.90 1098.86 19.81 o
74 4 -3 -3 3 0.80 -3.66 3.48 <
74 3 3 -3 3 0.80 -3.66 3.48 <
74 2 0 -6 -3 0.80 -3.66 3.48 <
74 1 0 6 3 0.80 -3.66 3.48 <
75 4 -3 -3 -3 0.71 -3.57 3.39 <
75 3 3 -3 -3 0.71 -3.57 3.39 <
75 2 0 -6 3 0.71 -3.57 3.39 <
75 1 0 6 -3 0.71 -3.57 3.39 <
76 4 0 0 4 2.10 0.89 1.78 <
76 3 0 0 4 2.10 0.89 1.78 <
76 2 0 0 -4 2.10 0.89 1.78 <
76 1 0 0 4 2.10 0.89 1.78 <
77 4 0 0 -4 2.15 -2.23 3.03 <
77 3 0 0 -4 2.15 -2.23 3.03 <
77 2 0 0 4 2.15 -2.23 3.03 <
77 1 0 0 -4 2.15 -2.23 3.03 <
78 4 -1 3 4 1.16 0.09 1.69 <
78 3 -1 -3 4 1.16 0.09 1.69 <
78 2 -2 0 -4 1.16 0.09 1.69 <
78 1 2 0 4 1.16 0.09 1.69 <
79 4 -1 3 -4 1.19 -2.59 2.32 <
79 3 -1 -3 -4 1.19 -2.59 2.32 <
79 2 -2 0 4 1.19 -2.59 2.32 <
79 1 2 0 -4 1.19 -2.59 2.32 <
80 4 -1 1 4 1340.94 1085.59 8.93 o
80 3 0 -2 4 1340.94 1085.59 8.93 o
80 2 -1 -1 -4 1340.94 1085.59 8.93 o
80 1 1 1 4 1340.94 1085.59 8.93 o
81 4 -1 1 -4 1345.93 1438.31 10.71 o
81 3 0 -2 -4 1345.93 1438.31 10.71 o
81 2 -1 -1 4 1345.93 1438.31 10.71 o
81 1 1 1 -4 1345.93 1438.31 10.71 o
82 4 -2 4 4 614.51 575.93 6.25 o
82 3 -1 -5 4 614.51 575.93 6.25 o
82 2 -3 -1 -4 614.51 575.93 6.25 o
82 1 3 1 4 614.51 575.93 6.25 o
83 4 -2 4 -4 620.10 685.76 6.33 o
83 3 -1 -5 -4 620.10 685.76 6.33 o
83 2 -3 -1 4 620.10 685.76 6.33 o
83 1 3 1 -4 620.10 685.76 6.33 o
84 4 -1 -1 4 1341.21 1265.93 11.70 o
84 3 1 -1 4 1341.21 1265.93 11.70 o
84 2 0 -2 -4 1341.21 1265.93 11.70 o
84 1 0 2 4 1341.21 1265.93 11.70 o
85 4 -1 -1 -4 1346.16 1197.54 11.52 o
85 3 1 -1 -4 1346.16 1197.54 11.52 o
85 2 0 -2 4 1346.16 1197.54 11.52 o
85 1 0 2 -4 1346.16 1197.54 11.52 o
86 4 -2 2 4 958.96 914.14 5.71 o
86 3 0 -4 4 958.96 914.14 5.71 o
86 2 -2 -2 -4 958.96 914.14 5.71 o
86 1 2 2 4 958.96 914.14 5.71 o
87 4 -2 2 -4 956.64 958.31 6.25 o
87 3 0 -4 -4 956.64 958.31 6.25 o
87 2 -2 -2 4 956.64 958.31 6.25 o
87 1 2 2 -4 956.64 958.31 6.25 o
88 4 -2 0 4 1.14 -0.27 1.52 <
88 3 1 -3 4 1.14 -0.27 1.52 <
88 2 -1 -3 -4 1.14 -0.27 1.52 <
88 1 1 3 4 1.14 -0.27 1.52 <
89 4 -2 0 -4 1.16 0.45 2.76 <
89 3 1 -3 -4 1.16 0.45 2.76 <
89 2 -1 -3 4 1.16 0.45 2.76 <
89 1 1 3 -4 1.16 0.45 2.76 <
90 4 -3 3 4 1.62 -1.16 1.69 <
90 3 0 -6 4 1.62 -1.16 1.69 <
90 2 -3 -3 -4 1.62 -1.16 1.69 <
90 1 3 3 4 1.62 -1.16 1.69 <
91 4 -3 3 -4 1.60 1.07 1.69 <
91 3 0 -6 -4 1.60 1.07 1.69 <
91 2 -3 -3 4 1.60 1.07 1.69 <
91 1 3 3 -4 1.60 1.07 1.69 <
92 4 -2 -2 4 959.40 1040.40 18.56 o
92 3 2 -2 4 959.40 1040.40 18.56 o
92 2 0 -4 -4 959.40 1040.40 18.56 o
92 1 0 4 4 959.40 1040.40 18.56 o
93 4 -2 -2 -4 957.13 977.14 11.60 o
93 3 2 -2 -4 957.13 977.14 11.60 o
93 2 0 -4 4 957.13 977.14 11.60 o
93 1 0 4 -4 957.13 977.14 11.60 o
94 4 -3 1 4 625.78 730.09 14.19 o
94 3 1 -5 4 625.78 730.09 14.19 o
94 2 -2 -4 -4 625.78 730.09 14.19 o
94 1 2 4 4 625.78 730.09 14.19 o
95 4 -3 1 -4 627.65 574.67 10.26 o
95 3 1 -5 -4 627.65 574.67 10.26 o
95 2 -2 -4 4 627.65 574.67 10.26 o
95 1 2 4 -4 627.65 574.67 10.26 o
96 4 -3 -1 4 626.20 653.90 14.54 o
96 3 2 -4 4 626.20 653.90 14.54 o
96 2 -1 -5 -4 626.20 653.90 14.54 o
96 1 1 5 4 626.20 653.90 14.54 o
97 4 -3 -1 -4 628.00 642.48 11.69 o
97 3 2 -4 -4 628.00 642.48 11.69 o
97 2 -1 -5 4 628.00 642.48 11.69 o
97 1 1 5 -4 628.00 642.48 11.69 o
98 4 -3 -3 4 1.62 3.57 3.39 <
98 3 3 -3 4 1.62 3.57 3.39 <
98 2 0 -6 -4 1.62 3.57 3.39 <
98 1 0 6 4 1.62 3.57 3.39 <
99 4 -3 -3 -4 1.60 4.91 3.03 <
99 3 3 -3 -4 1.60 4.91 3.03 <
99 2 0 -6 4 1.60 4.91 3.03 <
99 1 0 6 -4 1.60 4.91 3.03 <
100 4 -1 1 5 585.36 495.10 5.26 o
100 3 0 -2 5 585.36 495.10 5.26 o
100 2 -1 -1 -5 585.36 495.10 5.26 o
100 1 1 1 5 585.36 495.10 5.26 o
101 4 -1 1 -5 616.11 680.16 6.07 o
101 3 0 -2 -5 616.11 680.16 6.07 o
101 2 -1 -1 5 616.11 680.16 6.07 o
101 1 1 1 -5 616.11 680.16 6.07 o
102 4 -2 4 5 257.27 231.66 3.21 o
102 3 -1 -5 5 257.27 231.66 3.21 o
102 2 -3 -1 -5 257.27 231.66 3.21 o
102 1 3 1 5 257.27 231.66 3.21 o
103 4 -2 4 -5 272.64 284.11 3.39 o
103 3 -1 -5 -5 272.64 284.11 3.39 o
103 2 -3 -1 5 272.64 284.11 3.39 o
103 1 3 1 -5 272.64 284.11 3.39 o
104 4 -1 -1 5 585.43 567.55 7.14 o
104 3 1 -1 5 585.43 567.55 7.14 o
104 2 0 -2 -5 585.43 567.55 7.14 o
104 1 0 2 5 585.43 567.55 7.14 o
105 4 -1 -1 -5 616.16 620.11 8.74 o
105 3 1 -1 -5 616.16 620.11 8.74 o
105 2 0 -2 5 616.16 620.11 8.74 o
105 1 0 2 -5 616.16 620.11 8.74 o
106 4 -2 2 5 382.50 387.97 4.10 o
106 3 0 -4 5 382.50 387.97 4.10 o
106 2 -2 -2 -5 382.50 387.97 4.10 o
106 1 2 2 5 382.50 387.97 4.10 o
107 4 -2 2 -5 398.14 367.73 4.19 o
107 3 0 -4 -5 398.14 367.73 4.19 o
107 2 -2 -2 5 398.14 367.73 4.19 o
107 1 2 2 -5 398.14 367.73 4.19 o
108 3 1 -3 5 9.30 -0.71 1.43 <
108 2 -1 -3 -5 9.30 -0.71 1.43 <
108 1 1 3 5 9.30 -0.71 1.43 <
109 3 1 -3 -5 9.08 -4.01 2.68 <
109 2 -1 -3 5 9.08 -4.01 2.68 <
109 1 1 3 -5 9.08 -4.01 2.68 <
110 4 -3 3 5 10.24 0.27 1.52 <
110 3 0 -6 5 10.24 0.27 1.52 <
110 2 -3 -3 -5 10.24 0.27 1.52 <
110 1 3 3 5 10.24 0.27 1.52 <
111 4 -3 3 -5 9.88 -1.25 1.87 <
111 3 0 -6 -5 9.88 -1.25 1.87 <
111 2 -3 -3 5 9.88 -1.25 1.87 <
111 1 3 3 -5 9.88 -1.25 1.87 <
112 4 -2 -2 5 382.74 403.58 7.49 o
112 3 2 -2 5 382.74 403.58 7.49 o
112 2 0 -4 -5 382.74 403.58 7.49 o
112 1 0 4 5 382.74 403.58 7.49 o
113 4 -2 -2 -5 398.42 383.16 6.69 o
113 3 2 -2 -5 398.42 383.16 6.69 o
113 2 0 -4 5 398.42 383.16 6.69 o
113 1 0 4 -5 398.42 383.16 6.69 o
114 4 -3 1 5 258.16 290.98 6.15 o
114 3 1 -5 5 258.16 290.98 6.15 o
114 2 -2 -4 -5 258.16 290.98 6.15 o
114 1 2 4 5 258.16 290.98 6.15 o
115 4 -3 1 -5 271.83 281.79 6.24 o
115 3 1 -5 -5 271.83 281.79 6.24 o
115 2 -2 -4 5 271.83 281.79 6.24 o
115 1 2 4 -5 271.83 281.79 6.24 o
116 4 -3 -1 5 258.26 273.58 8.47 o
116 3 2 -4 5 258.26 273.58 8.47 o
116 2 -1 -5 -5 258.26 273.58 8.47 o
116 1 1 5 5 258.26 273.58 8.47 o
117 4 -3 -1 -5 271.91 268.23 5.62 o
117 3 2 -4 -5 271.91 268.23 5.62 o
117 2 -1 -5 5 271.91 268.23 5.62 o
117 1 1 5 -5 271.91 268.23 5.62 o
118 4 -3 -3 5 10.21 -6.87 3.30 <
118 3 3 -3 5 10.21 -6.87 3.30 <
118 2 0 -6 -5 10.21 -6.87 3.30 <
118 1 0 6 5 10.21 -6.87 3.30 <
119 4 -3 -3 -5 9.86 8.65 2.68 o
119 3 3 -3 -5 9.86 8.65 2.68 o
119 2 0 -6 5 9.86 8.65 2.68 o
119 1 0 6 -5 9.86 8.65 2.68 o
120 4 0 0 6 15371.30 15550.00 201.24 o
120 3 0 0 6 15371.30 15550.00 201.24 o
120 2 0 0 -6 15371.30 15550.00 201.24 o
120 1 0 0 6 15371.30 15550.00 201.24 o
121 4 0 0 -6 15983.30 16174.00 267.22 o
121 3 0 0 -6 15983.30 16174.00 267.22 o
121 2 0 0 6 15983.30 16174.00 267.22 o
121 1 0 0 -6 15983.30 16174.00 267.22 o
122 4 -1 3 6 7848.90 7700.33 19.79 o
122 3 -1 -3 6 7848.90 7700.33 19.79 o
122 2 -2 0 -6 7848.90 7700.33 19.79 o
122 1 2 0 6 7848.90 7700.33 19.79 o
123 4 -1 3 -6 8157.26 8103.56 18.72 o
123 3 -1 -3 -6 8157.26 8103.56 18.72 o
123 2 -2 0 6 8157.26 8103.56 18.72 o
123 1 2 0 -6 8157.26 8103.56 18.72 o
124 4 -1 1 6 1.83 0.54 1.34 <
124 3 0 -2 6 1.83 0.54 1.34 <
124 2 -1 -1 -6 1.83 0.54 1.34 <
124 1 1 1 6 1.83 0.54 1.34 <
125 4 -1 1 -6 1.81 0.36 1.69 <
125 3 0 -2 -6 1.81 0.36 1.69 <
125 2 -1 -1 6 1.81 0.36 1.69 <
125 1 1 1 -6 1.81 0.36 1.69 <
126 4 -2 4 6 2.66 2.32 1.78 <
126 3 -1 -5 6 2.66 2.32 1.78 <
126 2 -3 -1 -6 2.66 2.32 1.78 <
126 1 3 1 6 2.66 2.32 1.78 <
127 4 -2 4 -6 2.72 0.45 1.61 <
127 3 -1 -5 -6 2.72 0.45 1.61 <
127 2 -3 -1 6 2.72 0.45 1.61 <
127 1 3 1 -6 2.72 0.45 1.61 <
128 4 -1 -1 6 1.82 1.07 1.61 <
128 3 1 -1 6 1.82 1.07 1.61 <
128 2 0 -2 -6 1.82 1.07 1.61 <
128 1 0 2 6 1.82 1.07 1.61 <
129 4 -1 -1 -6 1.80 1.61 1.78 <
129 3 1 -1 -6 1.80 1.61 1.78 <
129 2 0 -2 6 1.80 1.61 1.78 <
129 1 0 2 -6 1.80 1.61 1.78 <
130 4 -2 2 6 1.74 0.62 1.25 <
130 3 0 -4 6 1.74 0.62 1.25 <
130 2 -2 -2 -6 1.74 0.62 1.25 <
130 1 2 2 6 1.74 0.62 1.25 <
131 4 -2 2 -6 1.72 3.30 1.52 <
131 3 0 -4 -6 1.72 3.30 1.52 <
131 2 -2 -2 6 1.72 3.30 1.52 <
131 1 2 2 -6 1.72 3.30 1.52 <
132 4 -2 0 6 7848.18 8058.22 23.56 o
132 3 1 -3 6 7848.18 8058.22 23.56 o
132 2 -1 -3 -6 7848.18 8058.22 23.56 o
132 1 1 3 6 7848.18 8058.22 23.56 o
133 4 -2 0 -6 8155.88 8000.97 20.87 o
133 3 1 -3 -6 8155.88 8000.97 20.87 o
133 2 -1 -3 6 8155.88 8000.97 20.87 o
133 1 1 3 -6 8155.88 8000.97 20.87 o
134 4 -3 3 6 3506.49 3104.93 32.54 o
134 3 0 -6 6 3506.49 3104.93 32.54 o
134 2 -3 -3 -6 3506.49 3104.93 32.54 o
134 1 3 3 6 3506.49 3104.93 32.54 o
135 4 -3 3 -6 3703.63 3236.02 26.64 o
135 3 0 -6 -6 3703.63 3236.02 26.64 o
135 2 -3 -3 6 3703.63 3236.02 26.64 o
135 1 3 3 -6 3703.63 3236.02 26.64 o
136 4 -2 -2 6 1.75 1.69 2.68 <
136 3 2 -2 6 1.75 1.69 2.68 <
136 2 0 -4 -6 1.75 1.69 2.68 <
136 1 0 4 6 1.75 1.69 2.68 <
137 4 -2 -2 -6 1.72 1.16 2.41 <
137 3 2 -2 -6 1.72 1.16 2.41 <
137 2 0 -4 6 1.72 1.16 2.41 <
137 1 0 4 -6 1.72 1.16 2.41 <
138 4 -3 1 6 2.62 2.23 2.41 <
138 3 1 -5 6 2.62 2.23 2.41 <
138 2 -2 -4 -6 2.62 2.23 2.41 <
138 1 2 4 6 2.62 2.23 2.41 <
139 4 -3 1 -6 2.66 -0.54 2.59 <
139 3 1 -5 -6 2.66 -0.54 2.59 <
139 2 -2 -4 6 2.66 -0.54 2.59 <
139 1 2 4 -6 2.66 -0.54 2.59 <
140 4 -3 -1 6 2.61 2.50 3.30 <
140 3 2 -4 6 2.61 2.50 3.30 <
140 2 -1 -5 -6 2.61 2.50 3.30 <
140 1 1 5 6 2.61 2.50 3.30 <
141 4 -3 -1 -6 2.65 0.54 3.03 <
141 3 2 -4 -6 2.65 0.54 3.03 <
141 2 -1 -5 6 2.65 0.54 3.03 <
141 1 1 5 -6 2.65 0.54 3.03 <
142 4 -3 -3 6 3510.97 3574.30 129.70 o
142 3 3 -3 6 3510.97 3574.30 129.70 o
142 2 0 -6 -6 3510.97 3574.30 129.70 o
142 1 0 6 6 3510.97 3574.30 129.70 o
143 4 -3 -3 -6 3708.22 3505.73 129.63 o
143 3 3 -3 -6 3708.22 3505.73 129.63 o
143 2 0 -6 6 3708.22 3505.73 129.63 o
143 1 0 6 -6 3708.22 3505.73 129.63 o
144 4 -1 1 7 1164.12 1010.92 7.05 o
144 3 0 -2 7 1164.12 1010.92 7.05 o
144 2 -1 -1 -7 1164.12 1010.92 7.05 o
144 1 1 1 7 1164.12 1010.92 7.05 o
145 4 -1 1 -7 1187.57 1212.46 8.57 o
145 3 0 -2 -7 1187.57 1212.46 8.57 o
145 2 -1 -1 7 1187.57 1212.46 8.57 o
145 1 1 1 -7 1187.57 1212.46 8.57 o
146 4 -2 4 7 464.76 386.20 5.09 o
146 3 -1 -5 7 464.76 386.20 5.09 o
146 2 -3 -1 -7 464.76 386.20 5.09 o
146 1 3 1 7 464.76 386.20 5.09 o
147 4 -2 4 -7 478.45 486.21 4.91 o
147 3 -1 -5 -7 478.45 486.21 4.91 o
147 2 -3 -1 7 478.45 486.21 4.91 o
147 1 3 1 -7 478.45 486.21 4.91 o
148 4 -1 -1 7 1164.45 1228.60 14.28 o
148 3 1 -1 7 1164.45 1228.60 14.28 o
148 2 0 -2 -7 1164.45 1228.60 14.28 o
148 1 0 2 7 1164.45 1228.60 14.28 o
149 4 -1 -1 -7 1187.89 1342.94 12.49 o
149 3 1 -1 -7 1187.89 1342.94 12.49 o
149 2 0 -2 7 1187.89 1342.94 12.49 o
149 1 0 2 -7 1187.89 1342.94 12.49 o
150 4 -2 2 7 697.90 694.35 7.94 o
150 3 0 -4 7 697.90 694.35 7.94 o
150 2 -2 -2 -7 697.90 694.35 7.94 o
150 1 2 2 7 697.90 694.35 7.94 o
151 4 -2 2 -7 711.24 712.47 8.30 o
151 3 0 -4 -7 711.24 712.47 8.30 o
151 2 -2 -2 7 711.24 712.47 8.30 o
151 1 2 2 -7 711.24 712.47 8.30 o
152 3 1 -3 7 1.00 -0.80 1.43 <
152 2 -1 -3 -7 1.00 -0.80 1.43 <
152 1 1 3 7 1.00 -0.80 1.43 <
153 3 1 -3 -7 0.78 1.69 1.69 <
153 2 -1 -3 7 0.78 1.69 1.69 <
153 1 1 3 -7 0.78 1.69 1.69 <
154 4 -3 3 7 1.35 -0.80 1.25 <
154 3 0 -6 7 1.35 -0.80 1.25 <
154 2 -3 -3 -7 1.35 -0.80 1.25 <
154 1 3 3 7 1.35 -0.80 1.25 <
155 4 -3 3 -7 0.99 -2.50 1.96 <
155 3 0 -6 -7 0.99 -2.50 1.96 <
155 2 -3 -3 7 0.99 -2.50 1.96 <
155 1 3 3 -7 0.99 -2.50 1.96 <
156 4 -2 -2 7 698.32 777.33 18.92 o
156 3 2 -2 7 698.32 777.33 18.92 o
156 2 0 -4 -7 698.32 777.33 18.92 o
156 1 0 4 7 698.32 777.33 18.92 o
157 4 -2 -2 -7 711.70 726.39 16.60 o
157 3 2 -2 -7 711.70 726.39 16.60 o
157 2 0 -4 7 711.70 726.39 16.60 o
157 1 0 4 -7 711.70 726.39 16.60 o
158 4 -3 1 7 466.16 532.24 9.72 o
158 3 1 -5 7 466.16 532.24 9.72 o
158 2 -2 -4 -7 466.16 532.24 9.72 o
158 1 2 4 7 466.16 532.24 9.72 o
159 4 -3 1 -7 478.28 479.17 7.67 o
159 3 1 -5 -7 478.28 479.17 7.67 o
159 2 -2 -4 7 478.28 479.17 7.67 o
159 1 2 4 -7 478.28 479.17 7.67 o
160 4 -3 -1 7 466.39 423.14 13.83 o
160 3 2 -4 7 466.39 423.14 13.83 o
160 2 -1 -5 -7 466.39 423.14 13.83 o
160 1 1 5 7 466.39 423.14 13.83 o
161 4 -3 -1 -7 478.49 489.25 10.35 o
161 3 2 -4 -7 478.49 489.25 10.35 o
161 2 -1 -5 7 478.49 489.25 10.35 o
161 1 1 5 -7 478.49 489.25 10.35 o
162 4 -3 -3 7 1.35 -1.61 2.59 <
162 3 3 -3 7 1.35 -1.61 2.59 <
162 2 0 -6 -7 1.35 -1.61 2.59 <
162 1 0 6 7 1.35 -1.61 2.59 <
163 4 -3 -3 -7 0.99 2.32 1.96 <
163 3 3 -3 -7 0.99 2.32 1.96 <
163 2 0 -6 7 0.99 2.32 1.96 <
163 1 0 6 -7 0.99 2.32 1.96 <
164 4 0 0 8 0.41 1.52 2.23 <
164 3 0 0 8 0.41 1.52 2.23 <
164 2 0 0 -8 0.41 1.52 2.23 <
164 1 0 0 8 0.41 1.52 2.23 <
165 4 0 0 -8 0.46 1.78 3.92 <
165 3 0 0 -8 0.46 1.78 3.92 <
165 2 0 0 8 0.46 1.78 3.92 <
165 1 0 0 -8 0.46 1.78 3.92 <
166 4 -1 3 8 0.54 -2.85 1.52 <
166 3 -1 -3 8 0.54 -2.85 1.52 <
166 2 -2 0 -8 0.54 -2.85 1.52 <
166 1 2 0 8 0.54 -2.85 1.52 <
167 4 -1 3 -8 0.52 -0.27 1.69 <
167 3 -1 -3 -8 0.52 -0.27 1.69 <
167 2 -2 0 8 0.52 -0.27 1.69 <
167 1 2 0 -8 0.52 -0.27 1.69 <
168 4 -1 1 8 3723.89 3244.54 11.08 o
168 3 0 -2 8 3723.89 3244.54 11.08 o
168 2 -1 -1 -8 3723.89 3244.54 11.08 o
168 1 1 1 8 3723.89 3244.54 11.08 o
169 4 -1 1 -8 3722.52 3470.91 14.66 o
169 3 0 -2 -8 3722.52 3470.91 14.66 o
169 2 -1 -1 8 3722.52 3470.91 14.66 o
169 1 1 1 -8 3722.52 3470.91 14.66 o
170 4 -2 4 8 1580.63 1569.36 15.00 o
170 3 -1 -5 8 1580.63 1569.36 15.00 o
170 2 -3 -1 -8 1580.63 1569.36 15.00 o
170 1 3 1 8 1580.63 1569.36 15.00 o
171 4 -2 4 -8 1582.77 1602.56 16.07 o
171 3 -1 -5 -8 1582.77 1602.56 16.07 o
171 2 -3 -1 8 1582.77 1602.56 16.07 o
171 1 3 1 -8 1582.77 1602.56 16.07 o
172 4 -1 -1 8 3725.01 4149.88 39.14 o
172 3 1 -1 8 3725.01 4149.88 39.14 o
172 2 0 -2 -8 3725.01 4149.88 39.14 o
172 1 0 2 8 3725.01 4149.88 39.14 o
173 4 -1 -1 -8 3723.60 4154.42 26.99 o
173 3 1 -1 -8 3723.60 4154.42 26.99 o
173 2 0 -2 8 3723.60 4154.42 26.99 o
173 1 0 2 -8 3723.60 4154.42 26.99 o
174 4 -2 2 8 2334.83 2307.68 29.02 o
174 3 0 -4 8 2334.83 2307.68 29.02 o
174 2 -2 -2 -8 2334.83 2307.68 29.02 o
174 1 2 2 8 2334.83 2307.68 29.02 o
175 4 -2 2 -8 2329.52 2341.80 30.72 o
175 3 0 -4 -8 2329.52 2341.80 30.72 o
175 2 -2 -2 8 2329.52 2341.80 30.72 o
175 1 2 2 -8 2329.52 2341.80 30.72 o
176 4 -2 0 8 0.55 -0.54 1.52 <
176 3 1 -3 8 0.55 -0.54 1.52 <
176 2 -1 -3 -8 0.55 -0.54 1.52 <
176 1 1 3 8 0.55 -0.54 1.52 <
177 4 -2 0 -8 0.53 1.69 1.61 <
177 3 1 -3 -8 0.53 1.69 1.61 <
177 2 -1 -3 8 0.53 1.69 1.61 <
177 1 1 3 -8 0.53 1.69 1.61 <
178 4 -3 3 8 1.10 -0.36 1.25 <
178 3 0 -6 8 1.10 -0.36 1.25 <
178 2 -3 -3 -8 1.10 -0.36 1.25 <
178 1 3 3 8 1.10 -0.36 1.25 <
179 4 -3 3 -8 0.97 0.45 1.52 <
179 3 0 -6 -8 0.97 0.45 1.52 <
179 2 -3 -3 8 0.97 0.45 1.52 <
179 1 3 3 -8 0.97 0.45 1.52 <
180 4 -2 -2 8 2335.98 2511.30 55.55 o
180 3 2 -2 8 2335.98 2511.30 55.55 o
180 2 0 -4 -8 2335.98 2511.30 55.55 o
180 1 0 4 8 2335.98 2511.30 55.55 o
181 4 -2 -2 -8 2330.72 2264.64 39.92 o
181 3 2 -2 -8 2330.72 2264.64 39.92 o
181 2 0 -4 8 2330.72 2264.64 39.92 o
181 1 0 4 -8 2330.72 2264.64 39.92 o
182 4 -3 1 8 1595.96 1718.15 27.14 o
182 3 1 -5 8 1595.96 1718.15 27.14 o
182 2 -2 -4 -8 1595.96 1718.15 27.14 o
182 1 2 4 8 1595.96 1718.15 27.14 o
183 4 -3 1 -8 1594.78 1453.38 19.28 o
183 3 1 -5 -8 1594.78 1453.38 19.28 o
183 2 -2 -4 8 1594.78 1453.38 19.28 o
183 1 2 4 -8 1594.78 1453.38 19.28 o
184 4 -3 -1 8 1596.91 1569.70 33.92 o
184 3 2 -4 8 1596.91 1569.70 33.92 o
184 2 -1 -5 -8 1596.91 1569.70 33.92 o
184 1 1 5 8 1596.91 1569.70 33.92 o
185 4 -3 -1 -8 1595.67 1571.03 29.90 o
185 3 2 -4 -8 1595.67 1571.03 29.90 o
185 2 -1 -5 8 1595.67 1571.03 29.90 o
185 1 1 5 -8 1595.67 1571.03 29.90 o
186 4 -3 -3 8 1.10 0.62 1.96 <
186 3 3 -3 8 1.10 0.62 1.96 <
186 2 0 -6 -8 1.10 0.62 1.96 <
186 1 0 6 8 1.10 0.62 1.96 <
187 4 -1 1 9 4029.96 3853.66 11.71 o
187 3 0 -2 9 4029.96 3853.66 11.71 o
187 2 -1 -1 -9 4029.96 3853.66 11.71 o
187 1 1 1 9 4029.96 3853.66 11.71 o
188 4 -1 1 -9 3954.54 4116.54 16.45 o
188 3 0 -2 -9 3954.54 4116.54 16.45 o
188 2 -1 -1 9 3954.54 4116.54 16.45 o
188 1 1 1 -9 3954.54 4116.54 16.45 o
189 4 -2 4 9 1770.01 1778.76 15.80 o
189 3 -1 -5 9 1770.01 1778.76 15.80 o
189 2 -3 -1 -9 1770.01 1778.76 15.80 o
189 1 3 1 9 1770.01 1778.76 15.80 o
190 4 -2 4 -9 1726.78 1757.56 14.91 o
190 3 -1 -5 -9 1726.78 1757.56 14.91 o
190 2 -3 -1 9 1726.78 1757.56 14.91 o
190 1 3 1 -9 1726.78 1757.56 14.91 o
191 4 -1 -1 9 4030.63 4079.43 20.29 o
191 3 1 -1 9 4030.63 4079.43 20.29 o
191 2 0 -2 -9 4030.63 4079.43 20.29 o
191 1 0 2 9 4030.63 4079.43 20.29 o
192 4 -1 -1 -9 3955.19 3383.73 19.04 o
192 3 1 -1 -9 3955.19 3383.73 19.04 o
192 2 0 -2 9 3955.19 3383.73 19.04 o
192 1 0 2 -9 3955.19 3383.73 19.04 o
193 4 -2 2 9 2544.35 2653.54 32.42 o
193 3 0 -4 9 2544.35 2653.54 32.42 o
193 2 -2 -2 -9 2544.35 2653.54 32.42 o
193 1 2 2 9 2544.35 2653.54 32.42 o
194 4 -2 2 -9 2489.74 2627.56 29.30 o
194 3 0 -4 -9 2489.74 2627.56 29.30 o
194 2 -2 -2 9 2489.74 2627.56 29.30 o
194 1 2 2 -9 2489.74 2627.56 29.30 o
195 3 1 -3 9 1.52 -0.18 2.05 <
195 2 -1 -3 -9 1.52 -0.18 2.05 <
195 1 1 3 9 1.52 -0.18 2.05 <
196 3 1 -3 -9 1.48 0.09 1.78 <
196 2 -1 -3 9 1.48 0.09 1.78 <
196 1 1 3 -9 1.48 0.09 1.78 <
197 4 -2 -2 9 2546.16 2961.88 53.15 o
197 3 2 -2 9 2546.16 2961.88 53.15 o
197 2 0 -4 -9 2546.16 2961.88 53.15 o
197 1 0 4 9 2546.16 2961.88 53.15 o
198 4 -2 -2 -9 2491.52 2611.31 38.23 o
198 3 2 -2 -9 2491.52 2611.31 38.23 o
198 2 0 -4 9 2491.52 2611.31 38.23 o
198 1 0 4 -9 2491.52 2611.31 38.23 o
199 4 -3 1 9 1756.05 2129.57 32.23 o
199 3 1 -5 9 1756.05 2129.57 32.23 o
199 2 -2 -4 -9 1756.05 2129.57 32.23 o
199 1 2 4 9 1756.05 2129.57 32.23 o
200 4 -3 1 -9 1712.29 1504.05 21.07 o
200 3 1 -5 -9 1712.29 1504.05 21.07 o
200 2 -2 -4 9 1712.29 1504.05 21.07 o
200 1 2 4 -9 1712.29 1504.05 21.07 o
201 4 -3 -1 9 1756.59 1664.16 43.93 o
201 3 2 -4 9 1756.59 1664.16 43.93 o
201 2 -1 -5 -9 1756.59 1664.16 43.93 o
201 1 1 5 9 1756.59 1664.16 43.93 o
202 4 -3 -1 -9 1712.80 1719.74 28.12 o
202 3 2 -4 -9 1712.80 1719.74 28.12 o
202 2 -1 -5 9 1712.80 1719.74 28.12 o
202 1 1 5 -9 1712.80 1719.74 28.12 o
203 4 0 0 10 0.90 -1.78 5.80 <
203 3 0 0 10 0.90 -1.78 5.80 <
203 2 0 0 -10 0.90 -1.78 5.80 <
203 1 0 0 10 0.90 -1.78 5.80 <
204 4 0 0 -10 1.03 -4.82 5.62 <
204 3 0 0 -10 1.03 -4.82 5.62 <
204 2 0 0 10 1.03 -4.82 5.62 <
204 1 0 0 -10 1.03 -4.82 5.62 <
205 4 -1 3 10 1.07 -0.18 2.50 <
205 3 -1 -3 10 1.07 -0.18 2.50 <
205 2 -2 0 -10 1.07 -0.18 2.50 <
205 1 2 0 10 1.07 -0.18 2.50 <
206 4 -1 3 -10 1.18 1.52 2.05 <
206 3 -1 -3 -10 1.18 1.52 2.05 <
206 2 -2 0 10 1.18 1.52 2.05 <
206 1 2 0 -10 1.18 1.52 2.05 <
207 4 -1 1 10 1975.06 1833.20 9.64 o
207 3 0 -2 10 1975.06 1833.20 9.64 o
207 2 -1 -1 -10 1975.06 1833.20 9.64 o
207 1 1 1 10 1975.06 1833.20 9.64 o
208 4 -1 1 -10 1898.64 1940.90 9.46 o
208 3 0 -2 -10 1898.64 1940.90 9.46 o
208 2 -1 -1 10 1898.64 1940.90 9.46 o
208 1 1 1 -10 1898.64 1940.90 9.46 o
209 4 -2 4 10 865.89 882.48 8.84 o
209 3 -1 -5 10 865.89 882.48 8.84 o
209 2 -3 -1 -10 865.89 882.48 8.84 o
209 1 3 1 10 865.89 882.48 8.84 o
210 4 -2 4 -10 815.68 817.31 7.94 o
210 3 -1 -5 -10 815.68 817.31 7.94 o
210 2 -3 -1 10 815.68 817.31 7.94 o
210 1 3 1 -10 815.68 817.31 7.94 o
211 4 -1 -1 10 1975.90 1747.13 13.93 o
211 3 1 -1 10 1975.90 1747.13 13.93 o
211 2 0 -2 -10 1975.90 1747.13 13.93 o
211 1 0 2 10 1975.90 1747.13 13.93 o
212 4 -1 -1 -10 1899.47 2180.27 14.82 o
212 3 1 -1 -10 1899.47 2180.27 14.82 o
212 2 0 -2 10 1899.47 2180.27 14.82 o
212 1 0 2 -10 1899.47 2180.27 14.82 o
213 4 -2 2 10 1361.70 1364.94 17.05 o
213 3 0 -4 10 1361.70 1364.94 17.05 o
213 2 -2 -2 -10 1361.70 1364.94 17.05 o
213 1 2 2 10 1361.70 1364.94 17.05 o
214 4 -2 2 -10 1302.19 1384.89 14.19 o
214 3 0 -4 -10 1302.19 1384.89 14.19 o
214 2 -2 -2 10 1302.19 1384.89 14.19 o
214 1 2 2 -10 1302.19 1384.89 14.19 o
215 4 -2 0 10 1.07 3.48 2.05 <
215 3 1 -3 10 1.07 3.48 2.05 <
215 2 -1 -3 -10 1.07 3.48 2.05 <
215 1 1 3 10 1.07 3.48 2.05 <
216 4 -2 0 -10 1.17 1.43 2.05 <
216 3 1 -3 -10 1.17 1.43 2.05 <
216 2 -1 -3 10 1.17 1.43 2.05 <
216 1 1 3 -10 1.17 1.43 2.05 <
217 4 -2 -2 10 1361.85 1569.24 27.13 o
217 3 2 -2 10 1361.85 1569.24 27.13 o
217 2 0 -4 -10 1361.85 1569.24 27.13 o
217 1 0 4 10 1361.85 1569.24 27.13 o
218 4 -2 -2 -10 1302.33 1380.96 19.90 o
218 3 2 -2 -10 1302.33 1380.96 19.90 o
218 2 0 -4 10 1302.33 1380.96 19.90 o
218 1 0 4 -10 1302.33 1380.96 19.90 o
219 4 -3 1 10 904.62 1074.40 17.67 o
219 3 1 -5 10 904.62 1074.40 17.67 o
219 2 -2 -4 -10 904.62 1074.40 17.67 o
219 1 2 4 10 904.62 1074.40 17.67 o
220 4 -3 1 -10 854.22 700.72 9.37 o
220 3 1 -5 -10 854.22 700.72 9.37 o
220 2 -2 -4 10 854.22 700.72 9.37 o
220 1 2 4 -10 854.22 700.72 9.37 o
221 4 -3 -1 10 905.68 889.31 22.67 o
221 3 2 -4 10 905.68 889.31 22.67 o
221 2 -1 -5 -10 905.68 889.31 22.67 o
221 1 1 5 10 905.68 889.31 22.67 o
222 4 -3 -1 -10 855.26 831.10 14.46 o
222 3 2 -4 -10 855.26 831.10 14.46 o
222 2 -1 -5 10 855.26 831.10 14.46 o
222 1 1 5 -10 855.26 831.10 14.46 o
223 4 -1 1 11 385.53 388.87 3.84 o
223 3 0 -2 11 385.53 388.87 3.84 o
223 2 -1 -1 -11 385.53 388.87 3.84 o
223 1 1 1 11 385.53 388.87 3.84 o
224 4 -1 1 -11 367.31 387.97 3.39 o
224 3 0 -2 -11 367.31 387.97 3.39 o
224 2 -1 -1 11 367.31 387.97 3.39 o
224 1 1 1 -11 367.31 387.97 3.39 o
225 4 -2 4 11 162.47 167.97 5.00 o
225 3 -1 -5 11 162.47 167.97 5.00 o
225 2 -3 -1 -11 162.47 167.97 5.00 o
225 1 3 1 11 162.47 167.97 5.00 o
226 4 -2 4 -11 150.92 163.07 2.77 o
226 3 -1 -5 -11 150.92 163.07 2.77 o
226 2 -3 -1 11 150.92 163.07 2.77 o
226 1 3 1 -11 150.92 163.07 2.77 o
227 4 -1 -1 11 385.73 424.91 6.51 o
227 3 1 -1 11 385.73 424.91 6.51 o
227 2 0 -2 -11 385.73 424.91 6.51 o
227 1 0 2 11 385.73 424.91 6.51 o
228 4 -1 -1 -11 367.51 353.81 5.26 o
228 3 1 -1 -11 367.51 353.81 5.26 o
228 2 0 -2 11 367.51 353.81 5.26 o
228 1 0 2 -11 367.51 353.81 5.26 o
229 4 -2 2 11 275.02 286.34 4.46 o
229 3 0 -4 11 275.02 286.34 4.46 o
229 2 -2 -2 -11 275.02 286.34 4.46 o
229 1 2 2 11 275.02 286.34 4.46 o
230 4 -2 2 -11 260.97 280.45 3.57 o
230 3 0 -4 -11 260.97 280.45 3.57 o
230 2 -2 -2 11 260.97 280.45 3.57 o
230 1 2 2 -11 260.97 280.45 3.57 o
231 3 1 -3 11 4.80 1.07 2.05 <
231 2 -1 -3 -11 4.80 1.07 2.05 <
231 1 1 3 11 4.80 1.07 2.05 <
232 3 1 -3 -11 5.02 5.62 2.05 <
232 2 -1 -3 11 5.02 5.62 2.05 <
232 1 1 3 -11 5.02 5.62 2.05 <
233 4 -2 -2 11 274.99 295.44 7.76 o
233 3 2 -2 11 274.99 295.44 7.76 o
233 2 0 -4 -11 274.99 295.44 7.76 o
233 1 0 4 11 274.99 295.44 7.76 o
234 4 -2 -2 -11 260.93 298.83 7.05 o
234 3 2 -2 -11 260.93 298.83 7.05 o
234 2 0 -4 11 260.93 298.83 7.05 o
234 1 0 4 -11 260.93 298.83 7.05 o
235 4 -3 1 11 175.48 136.39 4.73 o
235 3 1 -5 11 175.48 136.39 4.73 o
235 2 -2 -4 -11 175.48 136.39 4.73 o
235 1 2 4 11 175.48 136.39 4.73 o
236 4 -3 1 -11 163.97 142.72 3.03 o
236 3 1 -5 -11 163.97 142.72 3.03 o
236 2 -2 -4 11 163.97 142.72 3.03 o
236 1 2 4 -11 163.97 142.72 3.03 o
237 4 -3 -1 11 175.77 142.37 3.92 o
237 3 2 -4 11 175.77 142.37 3.92 o
237 2 -1 -5 -11 175.77 142.37 3.92 o
237 1 1 5 11 175.77 142.37 3.92 o
238 4 -3 -1 -11 164.26 163.15 3.48 o
238 3 2 -4 -11 164.26 163.15 3.48 o
238 2 -1 -5 11 164.26 163.15 3.48 o
238 1 1 5 -11 164.26 163.15 3.48 o
239 4 0 0 12 3824.96 3240.90 59.08 o
239 3 0 0 12 3824.96 3240.90 59.08 o
239 2 0 0 -12 3824.96 3240.90 59.08 o
239 1 0 0 12 3824.96 3240.90 59.08 o
240 4 0 0 -12 3828.03 3408.04 41.74 o
240 3 0 0 -12 3828.03 3408.04 41.74 o
240 2 0 0 12 3828.03 3408.04 41.74 o
240 1 0 0 -12 3828.03 3408.04 41.74 o
241 4 -1 3 12 2534.88 2697.56 45.55 o
241 3 -1 -3 12 2534.88 2697.56 45.55 o
241 2 -2 0 -12 2534.88 2697.56 45.55 o
241 1 2 0 12 2534.88 2697.56 45.55 o
242 4 -1 3 -12 2537.42 2739.54 38.41 o
242 3 -1 -3 -12 2537.42 2739.54 38.41 o
242 2 -2 0 12 2537.42 2739.54 38.41 o
242 1 2 0 -12 2537.42 2739.54 38.41 o
243 4 -1 1 12 2.96 4.28 2.14 <
243 3 0 -2 12 2.96 4.28 2.14 <
243 2 -1 -1 -12 2.96 4.28 2.14 <
243 1 1 1 12 2.96 4.28 2.14 <
244 4 -1 1 -12 3.09 -0.36 1.61 <
244 3 0 -2 -12 3.09 -0.36 1.61 <
244 2 -1 -1 12 3.09 -0.36 1.61 <
244 1 1 1 -12 3.09 -0.36 1.61 <
245 4 -1 -1 12 2.96 -3.66 3.03 <
245 3 1 -1 12 2.96 -3.66 3.03 <
245 2 0 -2 -12 2.96 -3.66 3.03 <
245 1 0 2 12 2.96 -3.66 3.03 <
246 4 -1 -1 -12 3.09 0.18 2.41 <
246 3 1 -1 -12 3.09 0.18 2.41 <
246 2 0 -2 12 3.09 0.18 2.41 <
246 1 0 2 -12 3.09 0.18 2.41 <
247 4 -2 2 12 3.12 2.05 1.69 <
247 3 0 -4 12 3.12 2.05 1.69 <
247 2 -2 -2 -12 3.12 2.05 1.69 <
247 1 2 2 12 3.12 2.05 1.69 <
248 4 -2 2 -12 3.22 1.16 1.34 <
248 3 0 -4 -12 3.22 1.16 1.34 <
248 2 -2 -2 12 3.22 1.16 1.34 <
248 1 2 2 -12 3.22 1.16 1.34 <
249 4 -2 0 12 2539.26 2750.70 42.33 o
249 3 1 -3 12 2539.26 2750.70 42.33 o
249 2 -1 -3 -12 2539.26 2750.70 42.33 o
249 1 1 3 12 2539.26 2750.70 42.33 o
250 4 -2 0 -12 2541.80 2857.97 32.87 o
250 3 1 -3 -12 2541.80 2857.97 32.87 o
250 2 -1 -3 12 2541.80 2857.97 32.87 o
250 1 1 3 -12 2541.80 2857.97 32.87 o
251 4 -2 -2 12 3.11 1.96 2.68 <
251 3 2 -2 12 3.11 1.96 2.68 <
251 2 0 -4 -12 3.11 1.96 2.68 <
251 1 0 4 12 3.11 1.96 2.68 <
252 4 -2 -2 -12 3.22 -0.09 3.66 <
252 3 2 -2 -12 3.22 -0.09 3.66 <
252 2 0 -4 12 3.22 -0.09 3.66 <
252 1 0 4 -12 3.22 -0.09 3.66 <
253 4 -1 1 13 324.69 319.45 5.08 o
253 3 0 -2 13 324.69 319.45 5.08 o
253 2 -1 -1 -13 324.69 319.45 5.08 o
253 1 1 1 13 324.69 319.45 5.08 o
254 4 -1 1 -13 336.39 364.86 4.01 o
254 3 0 -2 -13 336.39 364.86 4.01 o
254 2 -1 -1 13 336.39 364.86 4.01 o
254 1 1 1 -13 336.39 364.86 4.01 o
255 4 -1 -1 13 324.86 328.29 7.76 o
255 3 1 -1 13 324.86 328.29 7.76 o
255 2 0 -2 -13 324.86 328.29 7.76 o
255 1 0 2 13 324.86 328.29 7.76 o
256 4 -1 -1 -13 336.56 361.83 6.16 o
256 3 1 -1 -13 336.56 361.83 6.16 o
256 2 0 -2 13 336.56 361.83 6.16 o
256 1 0 2 -13 336.56 361.83 6.16 o
257 4 -2 2 13 230.00 218.45 3.39 o
257 3 0 -4 13 230.00 218.45 3.39 o
257 2 -2 -2 -13 230.00 218.45 3.39 o
257 1 2 2 13 230.00 218.45 3.39 o
258 4 -2 2 -13 239.45 233.26 3.03 o
258 3 0 -4 -13 239.45 233.26 3.03 o
258 2 -2 -2 13 239.45 233.26 3.03 o
258 1 2 2 -13 239.45 233.26 3.03 o
259 3 1 -3 13 4.75 -2.50 2.23 <
259 2 -1 -3 -13 4.75 -2.50 2.23 <
259 1 1 3 13 4.75 -2.50 2.23 <
260 3 1 -3 -13 4.52 0.36 1.69 <
260 2 -1 -3 13 4.52 0.36 1.69 <
260 1 1 3 -13 4.52 0.36 1.69 <
261 4 -2 -2 13 229.97 249.76 7.94 o
261 3 2 -2 13 229.97 249.76 7.94 o
261 2 0 -4 -13 229.97 249.76 7.94 o
261 1 0 4 13 229.97 249.76 7.94 o
262 4 -2 -2 -13 239.42 237.01 5.53 o
262 3 2 -2 -13 239.42 237.01 5.53 o
262 2 0 -4 13 239.42 237.01 5.53 o
262 1 0 4 -13 239.42 237.01 5.53 o
263 4 0 0 14 1.99 -0.27 4.19 <
263 3 0 0 14 1.99 -0.27 4.19 <
263 2 0 0 -14 1.99 -0.27 4.19 <
263 1 0 0 14 1.99 -0.27 4.19 <
264 4 0 0 -14 1.87 0.89 2.14 <
264 3 0 0 -14 1.87 0.89 2.14 <
264 2 0 0 14 1.87 0.89 2.14 <
264 1 0 0 -14 1.87 0.89 2.14 <
265 4 -1 3 14 2.34 0.27 2.05 <
265 3 -1 -3 14 2.34 0.27 2.05 <
265 2 -2 0 -14 2.34 0.27 2.05 <
265 1 2 0 14 2.34 0.27 2.05 <
266 4 -1 3 -14 2.26 1.34 2.41 <
266 3 -1 -3 -14 2.26 1.34 2.41 <
266 2 -2 0 14 2.26 1.34 2.41 <
266 1 2 0 -14 2.26 1.34 2.41 <
267 4 -1 1 14 1319.19 1378.78 16.78 o
267 3 0 -2 14 1319.19 1378.78 16.78 o
267 2 -1 -1 -14 1319.19 1378.78 16.78 o
267 1 1 1 14 1319.19 1378.78 16.78 o
268 4 -1 1 -14 1382.54 1533.78 15.26 o
268 3 0 -2 -14 1382.54 1533.78 15.26 o
268 2 -1 -1 14 1382.54 1533.78 15.26 o
268 1 1 1 -14 1382.54 1533.78 15.26 o
269 4 -1 -1 14 1319.72 1412.87 28.30 o
269 3 1 -1 14 1319.72 1412.87 28.30 o
269 2 0 -2 -14 1319.72 1412.87 28.30 o
269 1 0 2 14 1319.72 1412.87 28.30 o
270 4 -1 -1 -14 1383.08 1529.14 21.33 o
270 3 1 -1 -14 1383.08 1529.14 21.33 o
270 2 0 -2 14 1383.08 1529.14 21.33 o
270 1 0 2 -14 1383.08 1529.14 21.33 o
271 4 -2 2 14 945.14 929.07 11.42 o
271 3 0 -4 14 945.14 929.07 11.42 o
271 2 -2 -2 -14 945.14 929.07 11.42 o
271 1 2 2 14 945.14 929.07 11.42 o
272 4 -2 2 -14 999.83 903.67 10.80 o
272 3 0 -4 -14 999.83 903.67 10.80 o
272 2 -2 -2 14 999.83 903.67 10.80 o
272 1 2 2 -14 999.83 903.67 10.80 o
273 4 -2 0 14 2.39 -1.25 1.87 <
273 3 1 -3 14 2.39 -1.25 1.87 <
273 2 -1 -3 -14 2.39 -1.25 1.87 <
273 1 1 3 14 2.39 -1.25 1.87 <
274 4 -2 0 -14 2.31 -2.14 1.52 <
274 3 1 -3 -14 2.31 -2.14 1.52 <
274 2 -1 -3 14 2.31 -2.14 1.52 <
274 1 1 3 -14 2.31 -2.14 1.52 <
275 4 -2 -2 -14 999.89 990.41 20.88 o
275 3 2 -2 -14 999.89 990.41 20.88 o
275 2 0 -4 14 999.89 990.41 20.88 o
275 1 0 4 -14 999.89 990.41 20.88 o
276 4 -1 1 15 2038.51 2218.71 25.98 o
276 3 0 -2 15 2038.51 2218.71 25.98 o
276 2 -1 -1 -15 2038.51 2218.71 25.98 o
276 1 1 1 15 2038.51 2218.71 25.98 o
277 4 -1 1 -15 2090.28 2401.19 22.95 o
277 3 0 -2 -15 2090.28 2401.19 22.95 o
277 2 -1 -1 15 2090.28 2401.19 22.95 o
277 1 1 1 -15 2090.28 2401.19 22.95 o
278 4 -1 -1 15 2038.73 2252.01 38.84 o
278 3 1 -1 15 2038.73 2252.01 38.84 o
278 2 0 -2 -15 2038.73 2252.01 38.84 o
278 1 0 2 15 2038.73 2252.01 38.84 o
279 4 -1 -1 -15 2090.53 2402.08 35.45 o
279 3 1 -1 -15 2090.53 2402.08 35.45 o
279 2 0 -2 15 2090.53 2402.08 35.45 o
279 1 0 2 -15 2090.53 2402.08 35.45 o
280 4 -2 2 15 1409.55 1469.15 30.54 o
280 3 0 -4 15 1409.55 1469.15 30.54 o
280 2 -2 -2 -15 1409.55 1469.15 30.54 o
280 1 2 2 15 1409.55 1469.15 30.54 o
281 4 -2 2 -15 1453.30 1422.77 30.45 o
281 3 0 -4 -15 1453.30 1422.77 30.45 o
281 2 -2 -2 15 1453.30 1422.77 30.45 o
281 1 2 2 -15 1453.30 1422.77 30.45 o
282 3 1 -3 15 0.89 1.69 1.34 <
282 2 -1 -3 -15 0.89 1.69 1.34 <
282 1 1 3 15 0.89 1.69 1.34 <
283 3 1 -3 -15 0.93 -3.03 1.34 <
283 2 -1 -3 15 0.93 -3.03 1.34 <
283 1 1 3 -15 0.93 -3.03 1.34 <
284 4 -2 -2 15 1410.39 749.98 35.90 o
284 3 2 -2 15 1410.39 749.98 35.90 o
284 2 0 -4 -15 1410.39 749.98 35.90 o
284 1 0 4 15 1410.39 749.98 35.90 o
285 4 -2 -2 -15 1454.14 1287.28 36.62 o
285 3 2 -2 -15 1454.14 1287.28 36.62 o
285 2 0 -4 15 1454.14 1287.28 36.62 o
285 1 0 4 -15 1454.14 1287.28 36.62 o
286 4 0 0 16 2.25 1.52 3.66 <
286 3 0 0 16 2.25 1.52 3.66 <
286 2 0 0 -16 2.25 1.52 3.66 <
286 1 0 0 16 2.25 1.52 3.66 <
287 4 0 0 -16 1.99 -1.69 1.78 <
287 3 0 0 -16 1.99 -1.69 1.78 <
287 2 0 0 16 1.99 -1.69 1.78 <
287 1 0 0 -16 1.99 -1.69 1.78 <
288 4 -1 3 16 2.58 0.62 1.16 <
288 3 -1 -3 16 2.58 0.62 1.16 <
288 2 -2 0 -16 2.58 0.62 1.16 <
288 1 2 0 16 2.58 0.62 1.16 <
289 4 -1 3 -16 2.36 1.69 1.52 <
289 3 -1 -3 -16 2.36 1.69 1.52 <
289 2 -2 0 16 2.36 1.69 1.52 <
289 1 2 0 -16 2.36 1.69 1.52 <
290 4 -1 1 16 1568.55 1631.88 19.64 o
290 3 0 -2 16 1568.55 1631.88 19.64 o
290 2 -1 -1 -16 1568.55 1631.88 19.64 o
290 1 1 1 16 1568.55 1631.88 19.64 o
291 4 -1 1 -16 1564.04 1720.61 17.23 o
291 3 0 -2 -16 1564.04 1720.61 17.23 o
291 2 -1 -1 16 1564.04 1720.61 17.23 o
291 1 1 1 -16 1564.04 1720.61 17.23 o
292 4 -1 -1 16 1568.82 1708.92 31.51 o
292 3 1 -1 16 1568.82 1708.92 31.51 o
292 2 0 -2 -16 1568.82 1708.92 31.51 o
292 1 0 2 16 1568.82 1708.92 31.51 o
293 4 -1 -1 -16 1564.34 1706.59 25.80 o
293 3 1 -1 -16 1564.34 1706.59 25.80 o
293 2 0 -2 16 1564.34 1706.59 25.80 o
293 1 0 2 -16 1564.34 1706.59 25.80 o
294 4 -2 0 16 2.60 1.69 1.16 <
294 3 1 -3 16 2.60 1.69 1.16 <
294 2 -1 -3 -16 2.60 1.69 1.16 <
294 1 1 3 16 2.60 1.69 1.16 <
295 4 -2 0 -16 2.37 0.54 1.34 <
295 3 1 -3 -16 2.37 0.54 1.34 <
295 2 -1 -3 16 2.37 0.54 1.34 <
295 1 1 3 -16 2.37 0.54 1.34 <
296 4 -1 1 17 436.33 452.94 5.35 o
296 3 0 -2 17 436.33 452.94 5.35 o
296 2 -1 -1 -17 436.33 452.94 5.35 o
296 1 1 1 17 436.33 452.94 5.35 o
297 4 -1 1 -17 423.27 450.53 5.00 o
297 3 0 -2 -17 423.27 450.53 5.00 o
297 2 -1 -1 17 423.27 450.53 5.00 o
297 1 1 1 -17 423.27 450.53 5.00 o
298 4 -1 -1 17 436.38 442.41 7.49 o
298 3 1 -1 17 436.38 442.41 7.49 o
298 2 0 -2 -17 436.38 442.41 7.49 o
298 1 0 2 17 436.38 442.41 7.49 o
299 4 -1 -1 -17 423.33 429.74 7.58 o
299 3 1 -1 -17 423.33 429.74 7.58 o
299 2 0 -2 17 423.33 429.74 7.58 o
299 1 0 2 -17 423.33 429.74 7.58 o
300 4 0 0 18 3690.43 3768.60 63.11 o
300 3 0 0 18 3690.43 3768.60 63.11 o
300 2 0 0 -18 3690.43 3768.60 63.11 o
300 1 0 0 18 3690.43 3768.60 63.11 o
301 4 0 0 -18 3491.15 3274.81 72.40 o
301 3 0 0 -18 3491.15 3274.81 72.40 o
301 2 0 0 18 3491.15 3274.81 72.40 o
301 1 0 0 -18 3491.15 3274.81 72.40 o
302 4 -1 1 18 0.45 0.98 1.16 <
302 3 0 -2 18 0.45 0.98 1.16 <
302 2 -1 -1 -18 0.45 0.98 1.16 <
302 1 1 1 18 0.45 0.98 1.16 <
303 4 -1 1 -18 0.61 -2.41 1.16 <
303 3 0 -2 -18 0.61 -2.41 1.16 <
303 2 -1 -1 18 0.61 -2.41 1.16 <
303 1 1 1 -18 0.61 -2.41 1.16 <
304 4 -1 -1 18 0.45 -2.41 1.87 <
304 3 1 -1 18 0.45 -2.41 1.87 <
304 2 0 -2 -18 0.45 -2.41 1.87 <
304 1 0 2 18 0.45 -2.41 1.87 <
305 4 -1 -1 -18 0.61 -0.36 1.43 <
305 3 1 -1 -18 0.61 -0.36 1.43 <
305 2 0 -2 18 0.61 -0.36 1.43 <
305 1 0 2 -18 0.61 -0.36 1.43 <
