#------------------------------------------------------------------------------
#$Date: 2016-12-19 16:14:05 +0200 (Mon, 19 Dec 2016) $
#$Revision: 189247 $
#$URL: file:///home/coder/svn-repositories/cod/cif/3/50/00/3500060.cif $
#------------------------------------------------------------------------------
#
# This file is available in the Crystallography Open Database (COD),
# http://www.crystallography.net/
#
# All data on this site have been placed in the public domain by the
# contributors.
#
data_3500060
loop_
_publ_author_name
'Armel Le Bail'
_publ_section_title
;
 Na(VO)2(AsO4)2(H20)4 isostructural with the phosphate Na(VO)2(PO4)2(H20)4
;
_journal_name_full               'Personal communication to COD'
_journal_year                    2016
_chemical_formula_sum            'As2 H8 Na O14 V2'
_chemical_formula_weight         506.771
_space_group_IT_number           2
_symmetry_cell_setting           triclinic
_symmetry_Int_Tables_number      2
_symmetry_space_group_name_Hall  '-P 1'
_symmetry_space_group_name_H-M   'P -1'
_cell_angle_alpha                91.823(4)
_cell_angle_beta                 107.035(3)
_cell_angle_gamma                90.076(5)
_cell_formula_units_Z            1
_cell_length_a                   6.4280(4)
_cell_length_b                   6.4306(3)
_cell_length_c                   6.9534(4)
_cell_measurement_temperature    295
_cell_special_details
; 
Possibly the c axis has to be doubled
;
_cell_volume                     274.66(3)
_computing_structure_refinement  FULLPROF
_diffrn_ambient_temperature      295
_diffrn_radiation_probe          x-ray
_diffrn_radiation_type           CuK\a
_diffrn_radiation_wavelength     1.54184
_pd_meas_2theta_range_inc        0.040000
_pd_meas_2theta_range_max        110.00000
_pd_meas_2theta_range_min        10.00000
_pd_meas_number_of_points        2501
_pd_proc_2theta_range_inc        0.040000
_pd_proc_2theta_range_max        109.9361
_pd_proc_2theta_range_min        9.9361
_pd_proc_ls_pref_orient_corr     ' ?'
_pd_proc_ls_prof_R_factor        7.3120
_pd_proc_ls_prof_wR_expected     2.0521
_pd_proc_ls_prof_wR_factor       10.1050
_pd_proc_ls_special_details      ' ?'
_pd_proc_wavelength              1.540560
_refine_ls_number_parameters     60
_refine_ls_number_reflns         1497
_refine_ls_number_restraints     0
_refine_ls_R_I_factor            4.9097
_refine_special_details          ' ?'
_iucr_refine_instructions_details
;
Fullprof .pcr file, modified to fit inside 80 columns
followed by the .dat file


COMM   Na0.5(VO)(AsO4)(H2O)2
! Current global Chi2 (Bragg contrib.) =      24.39    
! Files => DAT-file: navoaso4.dat,  PCR-file: navoaso4
!Job Npr Nph Nba Nex Nsc Nor Dum Iwg Ilo Ias Res Ste Nre Cry Uni Cor Opt Aut
   0   5   1  10   3   0   1   1   0   0   1   0   0   0   0   0   0   0   0
!
!Ipr Ppl Ioc Mat Pcr Ls1 Ls2 Ls3 NLI Prf Ins Rpa Sym Hkl Fou Sho Ana
   0   0   1   0   2   0   4   0   0  -3   0  -1   1   0   2   1   1
!
! Lambda1  Lambda2    Ratio    Bkpos    Wdt    Cthm     muR   AsyLim   Rpolarz
  2nd-muR -> Patt# 1
 1.540560 1.544390  0.50000   90.000 12.0000  0.7998  0.0000   80.00    0.0000
  0.0000
!
!NCY  Eps  R_at  R_an  R_pr  R_gl     Thmin       Step       Thmax    PSD   
 Sent0
 30  0.01  0.20  0.20  0.20  0.40     10.0000   0.040000   110.0000   0.000  
 0.000
!
!2Theta/TOF/E(Kev)   Background  for Pattern#  1
        10.2679      2091.1877        501.00
        10.7143      1911.6351        511.00
        11.4286      1435.4425        521.00
        15.5357      1063.8793        531.00
        17.5000      1125.4998        541.00
        23.7500       800.9466        551.00
        24.9107       666.6904        561.00
        48.3036       682.1251        571.00
        83.3036       380.4787        581.00
       109.9000       309.7511        591.00
! 
! Excluded regions (LowT  HighT) for Pattern#  1
        1.00       10.00
       23.90       24.80
      110.70      170.00
! 
!
      60    !Number of refined parameters
!
!  Zero    Code    SyCos    Code   SySin    Code  Lambda     Code MORE ->Patt# 1
  0.06389   21.0  0.00000    0.0  0.00000    0.0 0.000000    0.00   0
!-------------------------------------------------------------------------------
!  Data for PHASE number:   1  ==> Current R_Bragg for Pattern#  1:     4.91
!-------------------------------------------------------------------------------
Na0.5(VO)(AsO4)(H2O)2
!
!Nat Dis Ang Pr1 Pr2 Pr3 Jbt Irf Isy Str Furth       ATZ    Nvk Npr More
  10   0   0 0.0 0.0 1.0   0   0   0   0   0          9.974   0   5   1
!
!Jvi Jdi Hel Sol Mom Ter  Brind   RMua    RMub    RMuc   Jtyp  Nsp_Ref Ph_Shift
 N_Domains
   2   3   0   0   0   0  1.0000  0.0000  0.0000  0.0000    0      0      0    
  0
!
! Max_dst(dist) (angles)  Bond-Valence Calc.
      3.5000    180.0000           
P -1                     <--Space group symbol
!Atom   Typ       X        Y        Z     Biso       Occ     In Fin N_t Spc 
/Codes
Na     Na      0.42755  0.91596  0.02131  8.38654   0.10000   0   0   0    0  
                151.00   161.00   171.00   481.00      0.00
As     As      0.74878  0.24907  0.50177  0.69487   0.20000   0   0   0    0  
                181.00   191.00   201.00   451.00      0.00
V      V       0.21528  0.24156  0.39488  0.35864   0.20000   0   0   0    0  
                211.00   221.00   231.00   461.00      0.00
O1     O       0.16720  0.94424  0.34791  1.03616   0.20000   0   0   0    0  
                241.00   251.00   261.00   471.00      0.00
O2     O       0.10344  0.72334  0.64241  1.03616   0.20000   0   0   0    0  
                271.00   281.00   291.00   471.00      0.00
O3     O       0.24654  0.53807  0.35725  1.03616   0.20000   0   0   0    0  
                301.00   311.00   321.00   471.00      0.00
O4     O       0.49205  0.79790  0.64016  1.03616   0.20000   0   0   0    0  
                331.00   341.00   351.00   471.00      0.00
O5     O       0.28340  0.24320  0.61549  1.03616   0.20000   0   0   0    0  
                361.00   371.00   381.00   471.00      0.00
O6     O       0.32595  0.56407 -0.00674  1.03616   0.20000   0   0   0    0  
                391.00   401.00   411.00   471.00      0.00
O7     O       0.12121  0.23909  0.03361  1.03616   0.20000   0   0   0    0  
                421.00   431.00   441.00   471.00      0.00
!-------> Profile Parameters for Pattern #  1
!  Scale        Shape1      Bov      Str1      Str2      Str3   Strain-Model
 0.43487       0.64709   0.00000   0.00000   0.00000   0.00000       0
    11.00000    31.000     0.000     0.000     0.000     0.000
!       U         V          W           X          Y        GauSiz   LorSiz 
Size-Model
   0.156293  -0.121607   0.067362   0.001497   0.000000   0.000000   0.000000 
   0
    141.000    131.000     41.000    601.000      0.000      0.000      0.000
!     a          b         c        alpha      beta       gamma      #Cell Info
   6.428000   6.430611   6.953372  91.822838 107.034500  90.075867   
   51.00000   61.00000   71.00000   81.00000   91.00000  101.00000
!  Pref1    Pref2      Asy1     Asy2     Asy3     Asy4  
  1.04702  0.00000  0.08313  0.03682  0.00000  0.00000
   491.00     0.00   111.00   121.00     0.00     0.00
!  2Th1/TOF1    2Th2/TOF2  Pattern to plot
      10.000     110.000       1







Fullprof .dat file


     10.00   0.04  110.00
 2158.   2150.   2087.   2120.   2093.   2004.   2053.   2053.   1957.   2117.
 2015.   2029.   2020.   2095.   2082.   2018.   1933.   1904.   1970.   1962.
 1869.   1966.   1903.   1931.   1976.   1910.   1916.   1831.   1880.   1900.
 1970.   1853.   1770.   1816.   1868.   1845.   1822.   1800.   1796.   1795.
 1846.   1830.   1759.   1787.   1845.   1857.   1872.   1799.   1739.   1745.
 1818.   1811.   1697.   1785.   1747.   1726.   1812.   1739.   1822.   1822.
 1926.   1890.   2048.   2173.   2351.   2579.   2958.   3320.   3751.   4443.
 5129.   6113.   7244.   8619.  10357.  12203.  14294.  17396.  22276.  27993.
35417.  45886.  59309.  75224.  91626.  99000.  90406.  65974.  38872.  18427.
 8198.   4313.   3037.   2524.   2394.   2343.   2293.   2263.   2221.   1960.
 1917.   1805.   1805.   1826.   1780.   1861.   1809.   1831.   1968.   2011.
 2250.   2352.   2491.   2482.   2205.   1945.   1753.   1610.   1588.   1566.
 1491.   1506.   1469.   1502.   1483.   1473.   1494.   1508.   1472.   1472.
 1413.   1489.   1401.   1427.   1462.   1361.   1392.   1382.   1412.   1324.
 1398.   1304.   1330.   1248.   1314.   1411.   1364.   1296.   1357.   1335.
 1422.   1394.   1355.   1510.   1581.   1558.   1666.   1798.   1996.   2090.
 2306.   2535.   2969.   3531.   3967.   4049.   3802.   3196.   2541.   1978.
 1672.   1435.   1416.   1396.   1246.   1264.   1214.   1226.   1199.   1149.
 1150.   1174.   1183.   1125.   1090.   1143.   1186.   1096.   1199.   1126.
 1138.   1150.   1123.   1141.   1104.   1076.   1150.   1148.   1118.   1088.
 1075.   1076.   1011.   1134.   1067.   1082.   1096.   1068.   1157.   1161.
 1082.   1149.   1176.   1241.   1284.   1363.   1448.   1528.   1664.   1889.
 2251.   2620.   3167.   3606.   3937.   3730.   3273.   2711.   2289.   2164.
 2202.   2333.   2530.   2816.   3154.   3739.   4460.   5654.   6705.   7948.
 8316.   8257.   6641.   5014.   3726.   2919.   2964.   2909.   3164.   3209.
 3079.   3028.   2834.   2946.   3050.   2971.   2478.   2119.   1686.   1412.
 1261.   1246.   1148.   1160.   1134.   1105.   1129.   1111.   1095.   1182.
 1178.   1174.   1170.   1120.   1148.   1199.   1281.   1218.   1271.   1349.
 1404.   1534.   1756.   1912.   2255.   2485.   2816.   2851.   2720.   2357.
 2251.   2278.   2313.   2683.   3215.   3468.   3718.   3602.   3277.   2704.
 2249.   1953.   1776.   1898.   1930.   2156.   2443.   2841.   3429.   4167.
 4910.   5514.   5557.   5065.   4052.   3227.   2327.   1756.   1427.   1295.
 1170.   1099.    926.   1004.    982.    919.    993.    896.    919.    912.
  868.    933.    801.    807.    826.    809.    824.    851.    775.    779.
  844.    808.    762.    785.    870.    819.    806.    835.    806.    772.
  808.    787.    792.    821.    884.    857.    918.    868.   1004.   1045.
 1154.   1250.   1233.   1179.   1104.    980.    888.    752.    817.    788.
  821.    769.    740.    775.    725.    734.    767.    808.    717.    809.
  793.    757.    762.    818.    790.    825.    829.    902.    897.    877.
  877.    956.    902.   1055.   1049.   1178.   1291.   1458.   1696.   1851.
 2328.   2844.   3356.   3716.   3703.   3459.   2981.   2705.   2630.   2682.
 3122.   3755.   4407.   5229.   5934.   6319.   6719.   7406.   8646.  11076.
14767.  19053.  22435.  22928.  19678.  14248.   8726.   4911.   2775.   1911.
 1693.   1456.   1507.   1521.   1703.   1943.   2265.   2749.   3415.   4363.
 5858.   8429.  12812.  18793.  27123.  33446.  35211.  30703.  22949.  14910.
10725.   9053.   9954.  12889.  17513.  22348.  27111.  27623.  23884.  17589.
11278.   7410.   4875.   3928.   3477.   3207.   3293.   3224.   3376.   3610.
 3993.   4461.   5387.   6745.   8888.  12145.  16655.  20954.  23132.  21427.
17443.  12114.   7800.   5208.   3887.   3208.   3236.   3055.   3296.   3544.
 3913.   4209.   4391.   4543.   4452.   4223.   4264.   4478.   4678.   4404.
 4113.   3531.   3243.   2975.   3074.   3373.   3789.   4443.   5630.   7000.
 9142.  11817.  14909.  17460.  18504.  16884.  13536.  10203.   7555.   5701.
 4600.   3980.   3565.   3334.   3281.   3326.   3451.   3799.   4365.   5150.
 6038.   7603.   9978.  12651.  14306.  15276.  13467.  10978.   8429.   6515.
 5557.   5128.   4475.   3643.   2851.   2247.   1923.   1712.   1546.   1653.
 1690.   1807.   2100.   2485.   2942.   3342.   3412.   3216.   2645.   2184.
 1780.   1409.   1221.   1139.   1026.   1056.   1061.   1066.    973.   1002.
 1007.   1051.   1080.   1135.   1190.   1170.   1239.   1368.   1416.   1597.
 1798.   2134.   2723.   3437.   4795.   6371.   7839.   8710.   8137.   7010.
 4970.   3609.   2487.   1975.   1552.   1378.   1287.   1171.   1134.   1126.
 1122.   1141.   1183.   1238.   1361.   1569.   1704.   1926.   1900.   1774.
 1645.   1347.   1221.   1141.    984.    940.    907.    887.    848.    845.
  829.    839.    836.    873.    836.    844.    929.    946.    975.   1013.
 1004.   1170.   1329.   1481.   1755.   2082.   2611.   3174.   3863.   4818.
 5660.   5954.   5863.   5307.   4208.   3319.   2384.   1840.   1556.   1486.
 1508.   1725.   1898.   1991.   2002.   1801.   1489.   1347.   1265.   1146.
 1207.   1361.   1521.   1707.   2083.   2277.   2545.   2608.   2489.   2307.
 1973.   1567.   1376.   1139.   1004.    990.    966.    869.    940.    860.
  882.    920.    947.   1059.   1116.   1269.   1541.   1817.   1973.   2134.
 2010.   1875.   1627.   1366.   1190.   1071.   1011.   1039.   1031.   1139.
 1257.   1433.   1541.   1665.   1914.   2304.   2852.   3409.   4049.   4375.
 4270.   3739.   2976.   2435.   2075.   1850.   1787.   1795.   1693.   1696.
 1582.   1585.   1635.   1664.   1837.   2047.   2076.   1991.   1914.   1725.
 1527.   1536.   1569.   1635.   1595.   1702.   1786.   1751.   1836.   2056.
 2397.   3057.   3687.   4279.   4642.   5119.   5763.   6433.   6837.   7133.
 7294.   7319.   7290.   7252.   6789.   5988.   5364.   4877.   4652.   5175.
 5638.   5589.   5272.   4549.   3692.   3144.   2765.   2848.   3402.   4203.
 4844.   5676.   6049.   5862.   4924.   4443.   3588.   2940.   2693.   2417.
 2207.   1971.   1620.   1275.   1152.   1008.    951.    884.    843.    882.
  908.    890.    882.    938.   1016.   1155.   1328.   1473.   1828.   2168.
 2250.   2237.   2081.   1954.   1663.   1481.   1415.   1349.   1383.   1370.
 1321.   1329.   1191.   1188.   1175.   1297.   1417.   1748.   2088.   2622.
 2762.   2822.   2494.   2167.   1747.   1449.   1254.   1046.    938.    926.
  948.    906.    949.    974.   1032.   1171.   1409.   1741.   2235.   2810.
 3412.   3627.   3635.   3543.   3098.   2633.   2241.   2082.   2106.   2186.
 2478.   2416.   2404.   2474.   2759.   3065.   3401.   3734.   4081.   4450.
 4606.   4562.   4398.   4172.   3987.   3939.   3916.   3742.   3454.   3115.
 3035.   2955.   3123.   3338.   3412.   3373.   3174.   3098.   3157.   3410.
 3873.   4113.   4154.   3914.   3725.   3318.   3055.   2685.   2582.   2374.
 2248.   2214.   2190.   2337.   2291.   2297.   2338.   2371.   2369.   2265.
 1996.   1863.   1846.   1958.   2142.   2650.   3098.   3502.   3460.   3118.
 2685.   2402.   1803.   1527.   1293.   1282.   1321.   1596.   1698.   1817.
 1847.   1930.   1696.   1523.   1349.   1135.   1077.    972.    884.    964.
  902.    883.    902.    958.    950.   1081.   1250.   1379.   1682.   2045.
 2445.   2708.   3063.   3264.   3036.   2796.   2493.   2015.   1630.   1275.
 1122.    954.    832.    737.    693.    680.    716.    694.    641.    689.
  735.    743.    702.    765.    742.    730.    839.    847.    918.   1092.
 1236.   1439.   1736.   1769.   1718.   1692.   1735.   1733.   1910.   2207.
 2552.   2970.   3276.   3237.   3035.   2841.   2417.   2032.   1703.   1472.
 1248.   1168.   1170.   1251.   1227.   1345.   1568.   1732.   1858.   1784.
 1767.   1765.   1760.   2018.   2293.   2667.   3043.   3255.   3402.   3324.
 2999.   2587.   2151.   1885.   1537.   1189.   1273.   1180.   1228.   1306.
 1401.   1402.   1582.   1676.   1949.   2336.   2887.   3406.   3920.   4060.
 3976.   3632.   3059.   2620.   2067.   1900.   1735.   1717.   1829.   1754.
 1661.   1560.   1368.   1309.   1177.   1038.    999.    947.    936.    932.
 1047.   1169.   1299.   1514.   1722.   1908.   1941.   2124.   2432.   2675.
 2922.   2883.   2615.   2327.   2129.   1894.   1795.   1668.   1650.   1584.
 1545.   1520.   1539.   1367.   1321.   1348.   1214.   1225.   1234.   1227.
 1332.   1462.   1622.   1881.   1987.   2125.   2228.   2553.   2677.   2752.
 2916.   2739.   2644.   2285.   2059.   1731.   1482.   1252.   1161.   1114.
 1114.   1224.   1225.   1506.   1820.   2155.   2576.   2744.   2822.   2711.
 2601.   2337.   2009.   1793.   1521.   1440.   1277.   1205.   1141.   1109.
 1038.   1178.   1300.   1430.   1559.   1846.   2167.   2398.   2751.   2768.
 2883.   3006.   2757.   2464.   2283.   2002.   1690.   1354.   1183.   1054.
  959.    892.    839.    853.    781.    761.    762.    703.    739.    701.
  718.    762.    775.    762.    893.   1023.   1064.   1189.   1320.   1493.
 1382.   1326.   1183.   1073.   1094.    878.    838.    759.    782.    755.
  779.    817.    839.    929.    919.   1046.   1117.   1139.   1332.   1654.
 2135.   3152.   4377.   5955.   7075.   8012.   8252.   8076.   7221.   6208.
 5014.   4308.   3838.   3485.   3135.   2875.   2591.   2443.   2251.   2011.
 1796.   1528.   1399.   1466.   1639.   2004.   2512.   3003.   3140.   3298.
 3081.   2786.   2668.   2733.   2849.   3172.   3350.   3391.   3100.   2804.
 2527.   2280.   2106.   1785.   1530.   1479.   1396.   1286.   1161.   1108.
 1091.   1162.   1099.   1112.   1117.   1263.   1366.   1578.   1851.   2229.
 2754.   3165.   3219.   3401.   3209.   3139.   2784.   2488.   2197.   1752.
 1538.   1544.   1496.   1613.   1897.   2061.   2248.   2148.   2009.   1885.
 1809.   1591.   1496.   1459.   1438.   1426.   1327.   1277.   1220.   1236.
 1209.   1195.   1205.   1404.   1511.   1914.   2194.   2489.   2616.   2501.
 2364.   2212.   2060.   1760.   1654.   1509.   1458.   1455.   1472.   1423.
 1372.   1396.   1406.   1584.   1805.   1925.   1969.   2127.   2115.   2169.
 2154.   2212.   2304.   2272.   2151.   1987.   1768.   1675.   1553.   1410.
 1411.   1335.   1304.   1391.   1558.   1802.   2081.   2304.   2647.   2787.
 2989.   3171.   3126.   2942.   2877.   2585.   2560.   2350.   2203.   2057.
 2105.   2244.   2344.   2378.   2551.   2759.   2689.   2530.   2297.   2101.
 1790.   1641.   1440.   1287.   1099.   1089.   1127.   1131.   1064.   1103.
 1184.   1241.   1463.   1642.   1829.   2091.   2163.   2167.   2212.   2434.
 2266.   2191.   2057.   1927.   1856.   1801.   1805.   1676.   1831.   2029.
 2488.   3199.   3846.   4163.   4344.   4775.   5357.   5833.   6458.   6670.
 6824.   6751.   6140.   5475.   4845.   4207.   3629.   3027.   2908.   2800.
 2860.   2840.   2581.   2443.   2360.   2560.   2787.   2831.   2752.   2385.
 2100.   1999.   1809.   1730.   1586.   1491.   1507.   1429.   1548.   1573.
 1643.   1730.   1871.   2014.   2341.   2452.   2610.   2444.   2272.   2026.
 1965.   1810.   1718.   1503.   1469.   1321.   1296.   1300.   1386.   1501.
 1617.   1732.   1780.   1818.   1957.   1920.   1779.   1726.   1673.   1736.
 1715.   1549.   1618.   1572.   1562.   1668.   1833.   1764.   1774.   1680.
 1714.   1534.   1537.   1545.   1553.   1545.   1666.   1882.   2241.   2545.
 2899.   3062.   3278.   3431.   3422.   3411.   2980.   2827.   2572.   2446.
 2322.   2227.   2024.   1834.   1739.   1686.   1598.   1477.   1341.   1184.
 1180.   1060.   1085.   1077.   1103.   1234.   1383.   1471.   1574.   1458.
 1433.   1441.   1436.   1356.   1333.   1352.   1493.   1484.   1581.   1632.
 1645.   1741.   1965.   2179.   2346.   2378.   2320.   2156.   1999.   1758.
 1620.   1503.   1365.   1108.   1022.    886.    825.    782.    816.    814.
  848.    975.    994.   1039.   1039.   1034.   1020.    966.    868.    903.
  845.    795.    715.    739.    683.    709.    661.    676.    711.    725.
  746.    751.    768.    731.    745.    703.    745.    788.    758.    787.
  787.    796.    831.    853.    852.    913.    946.    915.    990.    978.
 1118.   1225.   1407.   1649.   1702.   1661.   1847.   1714.   1804.   1868.
 1752.   1583.   1567.   1548.   1541.   1531.   1564.   1463.   1406.   1312.
 1204.   1165.   1226.   1225.   1255.   1332.   1454.   1555.   1556.   1499.
 1452.   1465.   1516.   1447.   1491.   1543.   1573.   1527.   1396.   1265.
 1266.   1191.   1177.   1148.   1019.   1030.    946.    966.    918.   1012.
 1049.   1162.   1206.   1324.   1623.   1695.   1954.   1981.   1912.   1891.
 1666.   1567.   1494.   1409.   1347.   1281.   1121.   1082.   1118.    981.
 1053.    997.   1038.   1053.   1092.   1089.   1106.   1262.   1488.   1675.
 1711.   1836.   1709.   1652.   1611.   1569.   1487.   1439.   1268.   1195.
 1242.   1080.   1042.    985.    985.   1026.   1010.   1094.   1139.   1200.
 1342.   1307.   1338.   1428.   1453.   1615.   1778.   1732.   1709.   1564.
 1366.   1280.   1248.   1141.   1045.    970.    878.    793.    735.    753.
  803.    848.    872.   1046.   1188.   1303.   1348.   1513.   1589.   1544.
 1558.   1465.   1379.   1289.   1176.   1117.   1033.   1002.    939.    775.
  769.    725.    688.    642.    627.    577.    596.    591.    651.    678.
  706.    695.    790.    711.    768.    800.    809.    881.    999.   1033.
 1105.   1220.   1254.   1399.   1457.   1440.   1396.   1356.   1368.   1472.
 1371.   1314.   1295.   1167.   1164.   1013.    975.    926.    900.    896.
  822.    729.    772.    704.    670.    679.    681.    714.    755.    818.
  829.    845.   1007.   1069.   1078.   1003.    980.    912.    868.    882.
  846.    773.    772.    718.    651.    677.    649.    708.    688.    648.
  680.    679.    620.    622.    644.    676.    746.    771.    897.    806.
  836.    936.    877.   1048.   1151.   1133.   1177.   1140.   1107.    958.
 1006.    946.    887.    907.    824.    706.    646.    579.    563.    559.
  560.    524.    526.    461.    483.    463.    476.    495.    504.    485.
  502.    514.    590.    601.    580.    653.    574.    551.    571.    527.
  569.    609.    500.    531.    515.    498.    534.    475.    514.    484.
  455.    429.    483.    473.    530.    538.    495.    489.    517.    465.
  523.    484.    501.    501.    494.    509.    502.    484.    570.    471.
  536.    582.    594.    565.    623.    668.    681.    693.    764.    736.
  844.    945.    962.   1040.   1041.   1080.   1024.    981.   1100.   1046.
 1077.   1061.   1104.   1140.   1218.   1343.   1499.   1709.   1918.   1844.
 1930.   2050.   2193.   2280.   2190.   1999.   1966.   1854.   1753.   1740.
 1764.   1760.   1745.   1747.   1544.   1442.   1427.   1488.   1586.   1652.
 1641.   1538.   1427.   1404.   1303.   1384.   1553.   1795.   1822.   1974.
 1982.   1952.   2018.   1820.   1667.   1544.   1430.   1381.   1371.   1253.
 1131.   1019.    952.    898.    848.    757.    777.    787.    806.    911.
  989.    977.    966.   1028.   1025.   1041.   1090.   1212.   1227.   1299.
 1313.   1422.   1355.   1431.   1507.   1497.   1575.   1480.   1542.   1415.
 1449.   1371.   1241.   1285.   1269.   1205.   1217.   1204.   1088.    984.
  997.   1018.    991.   1063.   1023.    948.    907.    897.    951.   1020.
 1100.   1109.   1278.   1278.   1342.   1324.   1243.   1180.   1168.   1111.
 1167.   1185.   1146.   1135.   1124.   1024.   1022.    874.    824.    825.
  798.    718.    766.    731.    654.    648.    600.    634.    628.    620.
  609.    601.    596.    565.    562.    613.    572.    552.    552.    571.
  575.    619.    665.    716.    718.    782.    861.    906.    907.    857.
  858.    845.    868.    964.    963.   1004.    948.    902.    844.    768.
  751.    722.    738.    667.    701.    718.    602.    588.    590.    545.
  559.    551.    570.    614.    663.    762.    821.   1112.   1514.   1818.
 1942.   1773.   1562.   1332.   1213.   1221.   1369.   1371.   1321.   1169.
  940.    819.    668.    685.    674.    634.    624.    621.    598.    700.
  722.    849.    848.    843.    827.    737.    841.    857.    927.   1039.
 1176.   1056.    950.    850.    925.    839.    877.    815.    829.    818.
  816.    804.    789.    818.    926.    985.   1054.    990.    983.    976.
  980.    981.   1057.   1207.   1188.   1164.   1241.   1204.   1252.   1398.
 1394.   1342.   1376.   1362.   1243.   1103.   1125.   1086.   1048.   1020.
 1070.   1088.   1054.   1060.    918.    847.    794.    759.    739.    706.
  657.    683.    634.    603.    584.    545.    602.    528.    634.    590.
  632.    645.    676.    737.    775.    702.    688.    665.    607.    637.
  636.    635.    637.    649.    673.    618.    601.    616.    592.    518.
  556.    574.    535.    610.    632.    603.    577.    675.    750.    711.
  820.    920.   1011.    951.   1001.    948.    909.    912.    923.    972.
  946.    937.    851.    818.    771.    734.    755.    750.    769.    765.
  797.    720.    733.    632.    662.    624.    649.    729.    653.    700.
  703.    779.    762.    777.    773.    806.    887.    933.   1042.   1061.
 1120.   1332.   1440.   1697.   2030.   2205.   2249.   2203.   2071.   2024.
 1786.   1826.   1829.   1778.   1871.   1733.   1604.   1489.   1225.   1106.
 1016.    936.    934.    900.    956.    893.    887.    944.   1054.   1086.
 1258.   1250.   1204.   1131.   1120.   1111.   1102.   1118.   1185.   1206.
 1323.   1307.   1393.   1362.   1337.   1282.   1231.   1234.   1201.   1224.
 1149.   1253.   1160.   1207.   1318.   1336.   1390.   1372.   1268.   1138.
  963.    979.    918.    956.   1005.    990.    900.    825.    800.    739.
  707.    695.    662.    650.    691.    694.    618.    658.    696.    806.
  767.    825.    824.    795.    818.    933.    896.    876.    907.    866.
  846.    820.    773.    812.    752.    716.    774.    772.    791.    831.
  728.    671.    618.    629.    595.    617.    548.    557.    595.    594.
  564.    553.    546.    565.    551.    564.    598.    660.    710.    699.
  690.    708.    777.    783.    765.    775.    788.    768.    818.    782.
  729.    760.    785.    805.    884.    859.    868.    847.    919.    920.
  869.    834.    851.    821.    802.    759.    792.    798.    766.    747.
  699.    771.    758.    751.    762.    786.    787.    888.    864.    900.
  891.    858.    892.    837.    875.    910.   1010.    970.   1026.   1016.
  926.    955.    867.    867.    767.    782.    765.    757.    765.    788.
  774.    757.    761.    831.    851.    911.    935.    938.    875.    824.
  810.    745.    736.    726.    812.    852.    819.    860.    843.    774.
  780.    765.    682.    664.    720.    711.    709.    736.    752.    763.
  773.    875.    886.    886.    859.    940.    883.    798.    843.    864.
  797.    800.    747.    805.    827.    837.    833.    825.    839.    933.
  841.    851.    890.    830.    823.    892.    877.    879.    827.    835.
  843.    802.    794.    718.    742.    716.    686.    700.    628.    657.
  757.    666.    719.    718.    705.    774.    775.    782.    806.    805.
  788.    763.    716.    719.    767.    700.    725.    681.    716.    702.
  647.    690.    589.    634.    535.    572.    581.    561.    545.    542.
  533.    563.    508.    574.    562.    582.    589.    595.    613.    693.
  624.      0.      0.      0.      0.      0.      0.      0.      0.      0.




;
_cod_data_source_file            NaVOAsO4.cif
_cod_data_source_block           Na(VO)2(AsO4)2(H20)4
_cod_original_formula_sum        'H8 As2 Na V2 O14'
_cod_database_code               3500060
_pd_proc_ls_prof_cr_factor       9.8789
_pd_proc_ls_prof_cwr_factor      13.0515
_pd_proc_ls_prof_cwr_expected    2.6505
_pd_proc_ls_prof_chi2            24.2474
_pd_proc_ls_prof_echi2           24.3798
loop_
_publ_manuscript_incl_extra_item
_publ_manuscript_incl_extra_info
_publ_manuscript_incl_extra_defn
'_pd_proc_ls_prof_cR_factor' 'Prof. R-factor CORRECTED for background' no
'_pd_proc_ls_prof_cwR_factor' 'wProf.R-factor CORRECTED for background' no
'_pd_proc_ls_prof_cwR_expected' 'wProf.Expected CORRECTED for background' no
'_pd_proc_ls_prof_chi2' 'Chi-square for all considered points' no
'_pd_proc_ls_prof_echi2' 'Chi-2 for points with Bragg contribution' no
loop_
_symmetry_equiv_pos_as_xyz
x,y,z
-x,-y,-z
loop_
_atom_site_label
_atom_site_fract_x
_atom_site_fract_y
_atom_site_fract_z
_atom_site_U_iso_or_equiv
_atom_site_occupancy
_atom_site_adp_type
_atom_site_type_symbol
Na 0.428(4) 0.916(4) 0.021(4) 0.106(12) 0.50000 Uiso Na
As 0.7488(7) 0.2491(7) 0.5018(5) 0.0088(10) 1.00000 Uiso As
V 0.2153(8) 0.2416(8) 0.3949(7) 0.0045(15) 1.00000 Uiso V
O1 0.167(2) 0.944(2) 0.3479(18) 0.013(2) 1.00000 Uiso O
O2 0.103(2) 0.7233(19) 0.6424(20) 0.013(2) 1.00000 Uiso O
O3 0.247(2) 0.538(2) 0.3572(19) 0.013(2) 1.00000 Uiso O
O4 0.492(2) 0.7979(19) 0.6402(20) 0.013(2) 1.00000 Uiso O
O5 0.283(3) 0.243(3) 0.615(3) 0.013(2) 1.00000 Uiso O
O6 0.3260(20) 0.5641(20) -0.0067(18) 0.013(2) 1.00000 Uiso O
O7 0.1212(18) 0.239(2) 0.0336(18) 0.013(2) 1.00000 Uiso O
loop_
_atom_type_symbol
_atom_type_scat_Cromer_Mann_a1
_atom_type_scat_Cromer_Mann_b1
_atom_type_scat_Cromer_Mann_a2
_atom_type_scat_Cromer_Mann_b2
_atom_type_scat_Cromer_Mann_a3
_atom_type_scat_Cromer_Mann_b3
_atom_type_scat_Cromer_Mann_a4
_atom_type_scat_Cromer_Mann_b4
_atom_type_scat_Cromer_Mann_c
_atom_type_scat_dispersion_real
_atom_type_scat_dispersion_imag
_atom_type_scat_source
Na 4.76260 3.28500 3.17360 8.84220 1.26740 0.31360 1.11280 129.42400 0.67600
0.12900 0.12400
International_Tables_for_Crystallography_Vol.C(1991)_Tables_6.1.1.4_and_6.1.1.5
As 16.67230 2.63450 6.07010 0.26470 3.43130 12.94790 4.27790 47.79720 2.53100
-1.01100 1.00600
International_Tables_for_Crystallography_Vol.C(1991)_Tables_6.1.1.4_and_6.1.1.5
V 10.29710 6.86570 7.35110 0.43850 2.07030 26.89380 2.05710 102.47800 1.21990
0.03500 2.11000
International_Tables_for_Crystallography_Vol.C(1991)_Tables_6.1.1.4_and_6.1.1.5
O 3.04850 13.27710 2.28680 5.70110 1.54630 0.32390 0.86700 32.90890 0.25080
0.04700 0.03200
International_Tables_for_Crystallography_Vol.C(1991)_Tables_6.1.1.4_and_6.1.1.5
loop_
_geom_angle_atom_site_label_1
_geom_angle_atom_site_label_2
_geom_angle_atom_site_label_3
_geom_angle
_geom_angle_site_symmetry_1
_geom_angle_site_symmetry_3
Na Na O1 126(2) 2_675 1_555
Na Na O2 114(2) 2_675 1_554
Na Na O4 74.4(20) 2_675 1_554
Na Na O4 75(2) 2_675 2_676
Na Na O5 54.8(18) 2_675 1_564
Na Na O5 100(2) 2_675 2_666
Na Na O6 148(2) 2_675 1_555
Na Na O6 109(2) 2_675 2_665
Na Na O7 87(2) 2_675 1_565
Na Na O7 64.6(19) 2_675 2_665
O1 Na O2 104.8(9) 1_555 1_554
O1 Na O4 155.3(12) 1_555 1_554
O1 Na O4 53.1(9) 1_555 2_676
O1 Na O5 118.9(11) 1_555 1_564
O1 Na O5 74.2(10) 1_555 2_666
O1 Na O6 84.2(11) 1_555 1_555
O1 Na O6 112.8(10) 1_555 2_665
O1 Na O7 56.5(9) 1_555 1_565
O1 Na O7 141.2(10) 1_555 2_665
O2 Na O4 50.7(9) 1_554 1_554
O2 Na O4 148.2(10) 1_554 2_676
O2 Na O5 65.7(9) 1_554 1_564
O2 Na O5 135.3(11) 1_554 2_666
O2 Na O6 57.5(9) 1_554 1_555
O2 Na O6 81.0(8) 1_554 2_665
O2 Na O7 89.8(9) 1_554 1_565
O2 Na O7 101.3(9) 1_554 2_665
O4 Na O4 149.5(12) 1_554 2_676
O4 Na O5 58.6(9) 1_554 1_564
O4 Na O5 119.2(12) 1_554 2_666
O4 Na O6 79.1(11) 1_554 1_555
O4 Na O6 65.0(9) 1_554 2_665
O4 Na O7 118.7(11) 1_554 1_565
O4 Na O7 55.8(9) 1_554 2_665
O4 Na O5 102.7(11) 2_676 1_564
O4 Na O5 66.5(10) 2_676 2_666
O4 Na O6 129.7(11) 2_676 1_555
O4 Na O6 126.5(10) 2_676 2_665
O4 Na O7 59.4(9) 2_676 1_565
O4 Na O7 109.8(10) 2_676 2_665
O5 Na O5 154.7(13) 1_564 2_666
O5 Na O6 122.6(12) 1_564 1_555
O5 Na O6 123.5(10) 1_564 2_665
O5 Na O7 63.1(9) 1_564 1_565
O5 Na O7 97.8(10) 1_564 2_665
O5 Na O6 78.2(11) 2_666 1_555
O5 Na O6 60.3(9) 2_666 2_665
O5 Na O7 121.3(11) 2_666 1_565
O5 Na O7 67.1(10) 2_666 2_665
O6 Na O7 121.3(12) 1_555 1_565
O6 Na O7 86.2(10) 1_555 2_665
O6 Na O7 163.7(10) 2_665 1_565
O7 Na O7 151.7(10) 1_565 2_665
V As V 155.1(3) 1_555 1_655
V As V 92.6(2) 1_555 2_656
V As V 93.2(2) 1_555 2_666
V As O1 105.5(7) 1_555 2_666
V As O2 129.6(9) 1_555 2_666
V As O3 88.5(7) 1_555 2_666
V As O5 178.3(8) 1_555 1_655
V As O5 87.3(6) 1_555 2_656
V As O5 88.1(6) 1_555 2_666
V As V 91.8(3) 1_655 2_656
V As V 92.7(3) 1_655 2_666
V As O1 89.1(8) 1_655 2_666
V As O3 106.4(8) 1_655 2_666
V As O4 129.9(8) 1_655 2_666
V As O5 178.3(9) 1_655 1_555
V As O5 86.0(6) 1_655 2_656
V As O5 87.1(6) 1_655 2_666
V As V 155.9(3) 2_656 2_666
V As O2 104.5(9) 2_656 2_666
V As O3 132.2(8) 2_656 2_666
V As O4 88.0(7) 2_656 2_666
V As O5 86.6(6) 2_656 1_555
V As O5 85.7(6) 2_656 1_655
V As O5 178.6(8) 2_656 2_666
V As O1 129.5(8) 2_666 2_666
V As O2 89.5(8) 2_666 2_666
V As O4 107.0(7) 2_666 2_666
V As O5 88.7(6) 2_666 1_555
V As O5 88.1(6) 2_666 1_655
V As O5 177.8(8) 2_666 2_656
O1 As O2 111.0(14) 2_666 2_666
O1 As O3 107.9(12) 2_666 2_666
O1 As O4 110.0(11) 2_666 2_666
O1 As O5 89.3(11) 2_666 1_555
O1 As O5 72.8(10) 2_666 1_655
O1 As O5 52.3(9) 2_666 2_656
O1 As O5 153.8(13) 2_666 2_666
O2 As O3 111.1(14) 2_666 2_666
O2 As O4 106.5(13) 2_666 2_666
O2 As O5 154.8(16) 2_666 1_555
O2 As O5 51.4(9) 2_666 1_655
O2 As O5 88.5(11) 2_666 2_656
O2 As O5 74.1(11) 2_666 2_666
O3 As O4 110.3(11) 2_666 2_666
O3 As O5 74.5(10) 2_666 1_555
O3 As O5 92.3(11) 2_666 1_655
O3 As O5 157.3(13) 2_666 2_656
O3 As O5 49.0(9) 2_666 2_666
O4 As O5 50.5(10) 2_666 1_555
O4 As O5 154.1(13) 2_666 1_655
O4 As O5 72.7(10) 2_666 2_656
O4 As O5 92.1(11) 2_666 2_666
O5 As O5 153.6(11) 1_555 1_655
O5 As O5 92.7(9) 1_555 2_656
O5 As O5 94.6(9) 1_555 2_666
O5 As O5 91.4(8) 1_655 2_656
O5 As O5 93.6(8) 1_655 2_666
O5 As O5 152.8(10) 2_656 2_666
As V As 155.1(3) 1_455 1_555
As V As 88.2(2) 1_455 2_656
As V As 87.3(2) 1_455 2_666
As V O1 86.3(6) 1_455 1_545
As V O3 99.2(7) 1_455 1_555
As V O4 171.2(8) 1_455 2_666
As V O5 77.0(11) 1_455 1_555
As V O7 105.6(6) 1_455 1_555
As V As 87.4(2) 1_555 2_656
As V As 86.8(2) 1_555 2_666
As V O1 98.6(6) 1_555 1_545
As V O2 171.1(7) 1_555 2_566
As V O3 83.2(6) 1_555 1_555
As V O5 78.1(12) 1_555 1_555
As V O7 99.3(5) 1_555 1_555
As V As 155.9(3) 2_656 2_666
As V O2 98.5(6) 2_656 2_566
As V O3 170.2(8) 2_656 1_555
As V O4 84.0(6) 2_656 2_666
As V O5 76.2(11) 2_656 1_555
As V O7 103.7(5) 2_656 1_555
As V O1 173.5(8) 2_666 1_545
As V O2 85.2(6) 2_666 2_566
As V O4 98.1(7) 2_666 2_666
As V O5 79.7(11) 2_666 1_555
As V O7 100.4(5) 2_666 1_555
O1 V O2 89.3(9) 1_545 2_566
O1 V O3 163.3(12) 1_545 1_555
O1 V O4 88.1(10) 1_545 2_666
O1 V O5 97.6(15) 1_545 1_555
O1 V O7 82.6(8) 1_545 1_555
O2 V O3 90.6(10) 2_566 1_555
O2 V O4 166.1(12) 2_566 2_666
O2 V O5 96.8(14) 2_566 1_555
O2 V O7 85.8(9) 2_566 1_555
O3 V O4 88.1(9) 1_555 2_666
O3 V O5 99.0(16) 1_555 1_555
O3 V O7 80.7(8) 1_555 1_555
O4 V O5 97.1(17) 2_666 1_555
O4 V O7 80.3(7) 2_666 1_555
O5 V O7 177.4(17) 1_555 1_555
Na O1 As 106.4(15) 1_555 2_666
Na O1 V 93.6(13) 1_555 1_565
Na O1 O1 168.9(13) 1_555 2_576
Na O1 O2 139.5(15) 1_555 1_555
Na O1 O2 120.5(13) 1_555 2_576
Na O1 O3 81.1(11) 1_555 1_555
Na O1 O4 94.1(12) 1_555 1_555
Na O1 O4 57.2(9) 1_555 2_676
Na O1 O5 115.8(15) 1_555 1_565
Na O1 O5 135.7(14) 1_555 2_566
Na O1 O7 56.3(9) 1_555 1_565
Na O1 O7 70.9(9) 1_555 2_565
As O1 V 130.6(7) 2_666 1_565
As O1 O1 84.7(8) 2_666 2_576
As O1 O2 132.8(9) 2_666 2_576
As O1 O4 109.9(9) 2_666 2_676
As O1 O5 97.6(11) 2_666 1_565
As O1 O5 78.1(9) 2_666 2_566
As O1 O7 162.6(9) 2_666 1_565
As O1 O7 106.7(7) 2_666 2_565
V O1 O1 79.1(7) 1_565 2_576
V O1 O2 118.1(9) 1_565 1_555
V O1 O2 46.2(6) 1_565 2_576
V O1 O3 159.9(9) 1_565 1_555
V O1 O4 101.1(7) 1_565 1_555
V O1 O4 46.6(6) 1_565 2_676
V O1 O5 117.3(10) 1_565 2_566
V O1 O7 55.6(6) 1_565 1_565
V O1 O7 122.6(7) 1_565 2_565
O1 O1 O2 51.4(6) 2_576 1_555
O1 O1 O2 48.6(6) 2_576 2_576
O1 O1 O3 108.6(8) 2_576 1_555
O1 O1 O4 95.4(7) 2_576 1_555
O1 O1 O4 120.0(8) 2_576 2_676
O1 O1 O5 61.8(8) 2_576 1_565
O1 O1 O5 45.1(6) 2_576 2_566
O1 O1 O7 112.7(8) 2_576 1_565
O1 O1 O7 106.1(7) 2_576 2_565
O2 O1 O2 100.0(8) 1_555 2_576
O2 O1 O3 60.3(7) 1_555 1_555
O2 O1 O4 57.5(7) 1_555 1_555
O2 O1 O4 128.3(10) 1_555 2_676
O2 O1 O5 85.8(10) 1_555 1_565
O2 O1 O5 51.8(7) 1_555 2_566
O2 O1 O7 163.4(10) 1_555 1_565
O2 O1 O7 106.7(8) 1_555 2_565
O2 O1 O3 151.2(9) 2_576 1_555
O2 O1 O4 129.4(8) 2_576 1_555
O2 O1 O4 92.0(8) 2_576 2_676
O2 O1 O5 58.4(8) 2_576 1_565
O2 O1 O5 72.7(8) 2_576 2_566
O2 O1 O7 64.3(7) 2_576 1_565
O2 O1 O7 94.3(7) 2_576 2_565
O3 O1 O4 60.3(6) 1_555 1_555
O3 O1 O4 116.6(9) 1_555 2_676
O3 O1 O5 132.7(11) 1_555 1_565
O3 O1 O5 78.5(8) 1_555 2_566
O3 O1 O7 131.5(9) 1_555 1_565
O3 O1 O7 74.1(6) 1_555 2_565
O4 O1 O4 76.2(7) 1_555 2_676
O4 O1 O5 74.1(9) 1_555 1_565
O4 O1 O5 108.8(9) 1_555 2_566
O4 O1 O7 136.1(8) 1_555 1_565
O4 O1 O7 133.8(7) 1_555 2_565
O4 O1 O5 58.7(9) 2_676 1_565
O4 O1 O5 163.6(11) 2_676 2_566
O4 O1 O7 60.9(6) 2_676 1_565
O4 O1 O7 122.4(7) 2_676 2_565
O5 O1 O5 106.9(11) 1_565 2_566
O5 O1 O7 89.8(9) 1_565 1_565
O5 O1 O7 152.0(10) 1_565 2_565
O5 O1 O7 114.9(10) 2_566 1_565
O5 O1 O7 65.9(8) 2_566 2_565
O7 O1 O7 71.1(6) 1_565 2_565
Na O2 As 96.2(13) 1_556 2_666
Na O2 V 118.7(11) 1_556 2_566
Na O2 O1 103.3(11) 1_556 1_555
Na O2 O1 87.9(9) 1_556 2_576
Na O2 O2 147.7(11) 1_556 2_566
Na O2 O3 119.9(12) 1_556 1_555
Na O2 O3 124.7(11) 1_556 2_566
Na O2 O4 60.8(9) 1_556 1_555
Na O2 O5 103.7(11) 1_556 1_555
Na O2 O5 145.0(13) 1_556 2_566
Na O2 O6 47.5(8) 1_556 1_556
Na O2 O7 72.1(9) 1_556 2_566
As O2 V 133.2(8) 2_666 2_566
As O2 O1 114.3(10) 2_666 2_576
As O2 O2 86.9(8) 2_666 2_566
As O2 O3 135.2(10) 2_666 2_566
As O2 O5 78.6(10) 2_666 1_555
As O2 O5 100.3(11) 2_666 2_566
As O2 O6 111.7(9) 2_666 1_556
As O2 O7 166.5(11) 2_666 2_566
V O2 O1 102.6(8) 2_566 1_555
V O2 O2 79.4(6) 2_566 2_566
V O2 O3 121.2(9) 2_566 1_555
V O2 O4 160.9(9) 2_566 1_555
V O2 O5 117.6(10) 2_566 1_555
V O2 O6 114.9(7) 2_566 1_556
V O2 O7 52.8(6) 2_566 2_566
O1 O2 O1 80.0(8) 1_555 2_576
O1 O2 O2 97.6(7) 1_555 2_566
O1 O2 O3 59.9(7) 1_555 1_555
O1 O2 O3 129.8(9) 1_555 2_566
O1 O2 O4 61.1(7) 1_555 1_555
O1 O2 O5 109.9(9) 1_555 1_555
O1 O2 O5 75.2(9) 1_555 2_566
O1 O2 O6 140.3(9) 1_555 1_556
O1 O2 O7 139.5(9) 1_555 2_566
O1 O2 O2 120.2(7) 2_576 2_566
O1 O2 O3 134.5(10) 2_576 1_555
O1 O2 O3 87.3(7) 2_576 2_566
O1 O2 O4 118.6(9) 2_576 1_555
O1 O2 O5 162.0(10) 2_576 1_555
O1 O2 O5 57.2(7) 2_576 2_566
O1 O2 O6 117.9(8) 2_576 1_556
O1 O2 O7 59.8(7) 2_576 2_566
O2 O2 O3 52.5(6) 2_566 1_555
O2 O2 O3 49.0(6) 2_566 2_566
O2 O2 O4 111.0(7) 2_566 1_555
O2 O2 O5 45.2(6) 2_566 1_555
O2 O2 O5 64.4(7) 2_566 2_566
O2 O2 O6 101.5(7) 2_566 1_556
O2 O2 O7 106.7(7) 2_566 2_566
O3 O2 O3 101.5(9) 1_555 2_566
O3 O2 O4 61.4(7) 1_555 1_555
O3 O2 O5 50.4(7) 1_555 1_555
O3 O2 O5 90.2(10) 1_555 2_566
O3 O2 O6 107.0(8) 1_555 1_556
O3 O2 O7 157.6(10) 1_555 2_566
O3 O2 O4 154.1(10) 2_566 1_555
O3 O2 O5 74.8(8) 2_566 1_555
O3 O2 O5 57.6(8) 2_566 2_566
O3 O2 O6 88.2(7) 2_566 1_556
O3 O2 O7 58.3(6) 2_566 2_566
O4 O2 O5 79.3(8) 1_555 1_555
O4 O2 O5 135.4(11) 1_555 2_566
O4 O2 O6 79.5(8) 1_555 1_556
O4 O2 O7 132.7(10) 1_555 2_566
O5 O2 O5 109.6(10) 1_555 2_566
O5 O2 O6 64.3(7) 1_555 1_556
O5 O2 O7 110.3(9) 1_555 2_566
O5 O2 O6 144.5(10) 2_566 1_556
O5 O2 O7 86.5(9) 2_566 2_566
O6 O2 O7 65.7(7) 1_556 2_566
As O3 V 134.3(7) 2_666 1_555
As O3 O2 110.9(8) 2_666 2_566
As O3 O3 86.5(7) 2_666 2_666
As O3 O4 137.1(9) 2_666 2_666
As O3 O5 102.5(11) 2_666 1_555
As O3 O5 76.5(10) 2_666 2_666
As O3 O6 120.0(9) 2_666 1_555
As O3 O7 161.3(9) 2_666 1_555
As O3 O7 89.9(7) 2_666 2_565
V O3 O1 160.1(9) 1_555 1_555
V O3 O2 104.0(8) 1_555 1_555
V O3 O2 45.4(6) 1_555 2_566
V O3 O3 83.0(6) 1_555 2_666
V O3 O4 123.7(8) 1_555 1_555
V O3 O4 46.4(6) 1_555 2_666
V O3 O5 122.7(10) 1_555 2_666
V O3 O6 105.6(8) 1_555 1_555
V O3 O7 56.7(6) 1_555 1_555
V O3 O7 118.2(7) 1_555 2_565
O1 O3 O2 59.7(7) 1_555 1_555
O1 O3 O2 116.0(8) 1_555 2_566
O1 O3 O3 109.1(7) 1_555 2_666
O1 O3 O4 59.6(6) 1_555 1_555
O1 O3 O4 153.0(9) 1_555 2_666
O1 O3 O5 136.7(12) 1_555 1_555
O1 O3 O5 75.6(8) 1_555 2_666
O1 O3 O6 88.6(8) 1_555 1_555
O1 O3 O7 127.8(9) 1_555 1_555
O1 O3 O7 57.0(6) 1_555 2_565
O2 O3 O2 78.5(7) 1_555 2_566
O2 O3 O3 96.8(8) 1_555 2_666
O2 O3 O4 57.1(7) 1_555 1_555
O2 O3 O4 132.5(10) 1_555 2_666
O2 O3 O5 77.8(9) 1_555 1_555
O2 O3 O5 106.8(10) 1_555 2_666
O2 O3 O6 147.9(10) 1_555 1_555
O2 O3 O7 141.5(9) 1_555 1_555
O2 O3 O7 95.3(7) 1_555 2_565
O2 O3 O3 122.9(7) 2_566 2_666
O2 O3 O4 131.3(8) 2_566 1_555
O2 O3 O4 91.0(8) 2_566 2_666
O2 O3 O5 57.5(8) 2_566 1_555
O2 O3 O5 168.1(11) 2_566 2_666
O2 O3 O6 114.9(9) 2_566 1_555
O2 O3 O7 64.5(7) 2_566 1_555
O2 O3 O7 84.1(7) 2_566 2_565
O3 O3 O4 52.9(6) 2_666 1_555
O3 O3 O4 51.1(5) 2_666 2_666
O3 O3 O5 65.9(8) 2_666 1_555
O3 O3 O5 46.6(6) 2_666 2_666
O3 O3 O6 98.8(7) 2_666 1_555
O3 O3 O7 111.4(6) 2_666 1_555
O3 O3 O7 152.1(6) 2_666 2_565
O4 O3 O4 104.1(8) 1_555 2_666
O4 O3 O5 91.7(10) 1_555 1_555
O4 O3 O5 50.6(7) 1_555 2_666
O4 O3 O6 113.5(8) 1_555 1_555
O4 O3 O7 161.0(8) 1_555 1_555
O4 O3 O7 116.2(7) 1_555 2_565
O4 O3 O5 58.2(9) 2_666 1_555
O4 O3 O5 77.5(8) 2_666 2_666
O4 O3 O6 78.3(7) 2_666 1_555
O4 O3 O7 61.4(6) 2_666 1_555
O4 O3 O7 130.0(7) 2_666 2_565
O5 O3 O5 112.5(12) 1_555 2_666
O5 O3 O6 134.3(12) 1_555 1_555
O5 O3 O7 90.2(9) 1_555 1_555
O5 O3 O7 141.6(10) 1_555 2_565
O5 O3 O6 66.3(7) 2_666 1_555
O5 O3 O7 111.6(9) 2_666 1_555
O5 O3 O7 105.6(7) 2_666 2_565
O6 O3 O7 54.1(6) 1_555 1_555
O6 O3 O7 59.6(6) 1_555 2_565
O7 O3 O7 71.9(6) 1_555 2_565
Na O4 As 103.5(14) 1_556 2_666
Na O4 V 122.7(15) 1_556 2_666
Na O4 O1 108.8(12) 1_556 1_555
Na O4 O1 99.2(13) 1_556 2_676
Na O4 O2 68.5(10) 1_556 1_555
Na O4 O3 127.4(13) 1_556 1_555
Na O4 O3 115.7(13) 1_556 2_666
Na O4 O4 112.9(12) 1_556 2_676
Na O4 O5 70.3(11) 1_556 1_565
Na O4 O5 154.6(18) 1_556 2_666
Na O4 O6 66.0(9) 1_556 2_666
Na O4 O7 67.7(10) 1_556 2_666
Na O4 As 121.3(14) 2_676 2_666
Na O4 V 103.3(14) 2_676 2_666
Na O4 O1 107.9(11) 2_676 1_555
Na O4 O1 69.7(11) 2_676 2_676
Na O4 O2 92.9(11) 2_676 1_555
Na O4 O3 154.4(13) 2_676 1_555
Na O4 O3 121.3(13) 2_676 2_666
Na O4 O4 87.7(11) 2_676 2_676
Na O4 O5 57.0(9) 2_676 1_565
Na O4 O5 127.4(16) 2_676 2_666
Na O4 O6 73.0(9) 2_676 1_556
Na O4 O6 83.3(10) 2_676 2_666
Na O4 O7 60.6(9) 2_676 2_666
As O4 V 133.3(7) 2_666 2_666
As O4 O1 138.2(9) 2_666 2_676
As O4 O3 110.7(8) 2_666 2_666
As O4 O4 87.9(8) 2_666 2_676
As O4 O5 78.4(9) 2_666 1_565
As O4 O5 101.4(12) 2_666 2_666
As O4 O6 85.1(8) 2_666 1_556
As O4 O6 113.3(7) 2_666 2_666
As O4 O7 159.4(8) 2_666 2_666
V O4 O1 121.1(8) 2_666 1_555
V O4 O1 45.3(6) 2_666 2_676
V O4 O2 160.9(10) 2_666 1_555
V O4 O3 102.1(7) 2_666 1_555
V O4 O3 45.5(6) 2_666 2_666
V O4 O4 80.5(7) 2_666 2_676
V O4 O5 120.8(10) 2_666 1_565
V O4 O6 123.3(8) 2_666 1_556
V O4 O6 82.8(7) 2_666 2_666
V O4 O7 56.3(6) 2_666 2_666
O1 O4 O1 103.8(8) 1_555 2_676
O1 O4 O2 61.4(7) 1_555 1_555
O1 O4 O3 60.1(6) 1_555 1_555
O1 O4 O3 130.6(8) 1_555 2_666
O1 O4 O4 53.0(6) 1_555 2_676
O1 O4 O5 52.0(7) 1_555 1_565
O1 O4 O5 88.8(10) 1_555 2_666
O1 O4 O6 113.1(8) 1_555 1_556
O1 O4 O6 148.4(8) 1_555 2_666
O1 O4 O7 163.8(8) 1_555 2_666
O1 O4 O2 153.4(10) 2_676 1_555
O1 O4 O3 133.1(8) 2_676 1_555
O1 O4 O3 89.6(8) 2_676 2_666
O1 O4 O4 50.8(6) 2_676 2_676
O1 O4 O5 77.0(8) 2_676 1_565
O1 O4 O5 57.8(9) 2_676 2_666
O1 O4 O6 133.7(9) 2_676 1_556
O1 O4 O6 107.8(8) 2_676 2_666
O1 O4 O7 62.4(6) 2_676 2_666
O2 O4 O3 61.6(7) 1_555 1_555
O2 O4 O3 116.9(9) 1_555 2_666
O2 O4 O4 110.7(8) 1_555 2_676
O2 O4 O5 76.6(8) 1_555 1_565
O2 O4 O5 136.9(13) 1_555 2_666
O2 O4 O6 51.9(6) 1_555 1_556
O2 O4 O6 89.2(7) 1_555 2_666
O2 O4 O7 127.1(8) 1_555 2_666
O3 O4 O3 75.9(7) 1_555 2_666
O3 O4 O4 99.4(7) 1_555 2_676
O3 O4 O5 111.0(9) 1_555 1_565
O3 O4 O5 77.0(10) 1_555 2_666
O3 O4 O6 90.6(7) 1_555 1_556
O3 O4 O6 97.0(7) 1_555 2_666
O3 O4 O7 135.2(7) 1_555 2_666
O3 O4 O4 120.9(8) 2_666 2_676
O3 O4 O5 166.3(11) 2_666 1_565
O3 O4 O5 58.6(9) 2_666 2_666
O3 O4 O6 87.1(7) 2_666 1_556
O3 O4 O6 50.8(6) 2_666 2_666
O3 O4 O7 61.1(6) 2_666 2_666
O4 O4 O5 47.4(7) 2_676 1_565
O4 O4 O5 63.0(8) 2_676 2_666
O4 O4 O6 151.8(8) 2_676 1_556
O4 O4 O6 158.6(7) 2_676 2_666
O4 O4 O7 112.7(7) 2_676 2_666
O5 O4 O5 110.4(12) 1_565 2_666
O5 O4 O6 104.4(9) 1_565 1_556
O5 O4 O6 136.3(9) 1_565 2_666
O5 O4 O7 113.7(9) 1_565 2_666
O5 O4 O6 145.3(12) 2_666 1_556
O5 O4 O6 108.1(10) 2_666 2_666
O5 O4 O7 90.2(10) 2_666 2_666
O6 O4 O7 75.9(6) 1_556 2_666
O6 O4 O7 46.2(5) 2_666 2_666
Na O5 As 102.7(9) 1_546 1_455
Na O5 As 99.1(10) 1_546 1_555
Na O5 As 64.8(8) 1_546 2_656
Na O5 As 142.3(11) 1_546 2_666
Na O5 V 142.4(17) 1_546 1_555
Na O5 O1 94.6(11) 1_546 1_545
Na O5 O1 74.4(9) 1_546 2_566
Na O5 O2 123.7(11) 1_546 1_555
Na O5 O2 126.6(12) 1_546 2_566
Na O5 O3 167.4(14) 1_546 1_555
Na O5 O3 101.4(11) 1_546 2_666
Na O5 O4 51.1(8) 1_546 1_545
Na O5 O4 115.6(13) 1_546 2_666
Na O5 O6 77.8(9) 1_546 1_556
Na O5 O6 66.1(8) 1_546 2_666
Na O5 O7 49.8(8) 1_546 1_556
Na O5 As 125.2(10) 2_666 1_455
Na O5 As 79.7(10) 2_666 1_555
Na O5 As 79.9(9) 2_666 2_656
Na O5 As 124.2(11) 2_666 2_666
Na O5 V 147.7(17) 2_666 1_555
Na O5 O1 109.3(12) 2_666 1_545
Na O5 O1 98.6(11) 2_666 2_566
Na O5 O2 116.8(11) 2_666 1_555
Na O5 O2 151.5(13) 2_666 2_566
Na O5 O3 142.4(14) 2_666 1_555
Na O5 O3 76.5(10) 2_666 2_666
Na O5 O4 56.5(9) 2_666 1_545
Na O5 O4 102.9(13) 2_666 2_666
Na O5 O6 69.1(10) 2_666 1_556
Na O5 O7 60.8(9) 2_666 1_556
As O5 As 153.6(6) 1_455 1_555
As O5 As 88.6(5) 1_455 2_656
As O5 As 86.4(5) 1_455 2_666
As O5 V 77.3(9) 1_455 1_555
As O5 O1 77.4(7) 1_455 1_545
As O5 O2 68.7(6) 1_455 1_555
As O5 O3 86.8(7) 1_455 1_555
As O5 O3 152.0(7) 1_455 2_666
As O5 O4 115.5(7) 1_455 1_545
As O5 O4 126.0(9) 1_455 2_666
As O5 O6 90.9(6) 1_455 1_556
As O5 O6 132.4(6) 1_455 2_666
As O5 O7 69.0(6) 1_455 1_556
As O5 As 87.3(5) 1_555 2_656
As O5 As 85.4(5) 1_555 2_666
As O5 V 76.3(9) 1_555 1_555
As O5 O1 86.2(7) 1_555 1_545
As O5 O1 157.5(8) 1_555 2_566
As O5 O2 110.6(7) 1_555 1_555
As O5 O2 125.3(8) 1_555 2_566
As O5 O3 74.2(7) 1_555 1_555
As O5 O4 68.2(6) 1_555 1_545
As O5 O6 108.3(7) 1_555 1_556
As O5 O6 70.7(6) 1_555 2_666
As O5 O7 137.4(7) 1_555 1_556
As O5 As 152.8(5) 2_656 2_666
As O5 V 77.7(9) 2_656 1_555
As O5 O1 70.3(6) 2_656 2_566
As O5 O2 156.8(7) 2_656 1_555
As O5 O2 87.3(7) 2_656 2_566
As O5 O3 124.5(8) 2_656 1_555
As O5 O3 114.7(7) 2_656 2_666
As O5 O4 76.0(8) 2_656 2_666
As O5 O6 141.4(7) 2_656 1_556
As O5 O6 121.3(6) 2_656 2_666
As O5 O7 99.8(7) 2_656 1_556
As O5 V 75.2(9) 2_666 1_555
As O5 O1 123.1(8) 2_666 1_545
As O5 O1 113.1(7) 2_666 2_566
As O5 O2 75.8(6) 2_666 2_566
As O5 O3 65.8(6) 2_666 2_666
As O5 O4 153.4(7) 2_666 1_545
As O5 O4 85.5(8) 2_666 2_666
As O5 O6 65.4(6) 2_666 1_556
As O5 O6 80.7(6) 2_666 2_666
As O5 O7 103.2(7) 2_666 1_556
V O5 O1 48.2(10) 1_555 1_545
V O5 O1 95.5(11) 1_555 2_566
V O5 O2 91.9(11) 1_555 1_555
V O5 O2 49.4(10) 1_555 2_566
V O5 O3 47.4(10) 1_555 1_555
V O5 O3 92.1(11) 1_555 2_666
V O5 O4 94.3(11) 1_555 1_545
V O5 O4 49.1(11) 1_555 2_666
V O5 O6 139.5(12) 1_555 1_556
V O5 O6 140.2(11) 1_555 2_666
V O5 O7 146.3(12) 1_555 1_556
O1 O5 O1 73.1(8) 1_545 2_566
O1 O5 O2 132.8(9) 1_545 1_555
O1 O5 O2 64.4(8) 1_545 2_566
O1 O5 O3 95.6(9) 1_545 1_555
O1 O5 O3 114.6(9) 1_545 2_666
O1 O5 O4 53.9(7) 1_545 1_545
O1 O5 O4 63.5(9) 1_545 2_666
O1 O5 O6 164.5(9) 1_545 1_556
O1 O5 O6 146.0(9) 1_545 2_666
O1 O5 O7 119.9(9) 1_545 1_556
O1 O5 O2 90.4(7) 2_566 1_555
O1 O5 O2 53.0(7) 2_566 2_566
O1 O5 O3 115.8(10) 2_566 1_555
O1 O5 O3 171.8(9) 2_566 2_666
O1 O5 O4 91.9(8) 2_566 1_545
O1 O5 O4 135.8(11) 2_566 2_666
O1 O5 O6 91.7(7) 2_566 1_556
O1 O5 O6 123.1(8) 2_566 2_666
O1 O5 O7 53.4(7) 2_566 1_556
O2 O5 O2 70.4(7) 1_555 2_566
O2 O5 O3 51.9(8) 1_555 1_555
O2 O5 O3 86.1(7) 1_555 2_666
O2 O5 O4 173.2(8) 1_555 1_545
O2 O5 O4 112.7(10) 1_555 2_666
O2 O5 O6 48.2(6) 1_555 1_556
O2 O5 O6 79.9(6) 1_555 2_666
O2 O5 O7 77.4(7) 1_555 1_556
O2 O5 O3 64.9(8) 2_566 1_555
O2 O5 O3 131.9(9) 2_566 2_666
O2 O5 O4 116.0(8) 2_566 1_545
O2 O5 O4 98.5(10) 2_566 2_666
O2 O5 O6 109.2(8) 2_566 1_556
O2 O5 O6 149.6(8) 2_566 2_666
O2 O5 O7 97.1(8) 2_566 1_556
O3 O5 O3 67.5(8) 1_555 2_666
O3 O5 O4 132.0(9) 1_555 1_545
O3 O5 O4 63.2(9) 1_555 2_666
O3 O5 O6 93.9(9) 1_555 1_556
O3 O5 O6 101.3(8) 1_555 2_666
O3 O5 O7 129.1(10) 1_555 1_556
O3 O5 O4 90.8(7) 2_666 1_545
O3 O5 O4 52.3(8) 2_666 2_666
O3 O5 O6 80.4(8) 2_666 1_556
O3 O5 O6 48.9(6) 2_666 2_666
O3 O5 O7 118.4(9) 2_666 1_556
O4 O5 O4 69.6(9) 1_545 2_666
O4 O5 O6 125.3(8) 1_545 1_556
O4 O5 O6 93.6(7) 1_545 2_666
O4 O5 O7 98.9(8) 1_545 1_556
O4 O5 O6 132.0(10) 2_666 1_556
O4 O5 O6 98.5(9) 2_666 2_666
O4 O5 O7 163.6(11) 2_666 1_556
O6 O5 O7 45.1(7) 1_556 1_556
O6 O5 O7 69.8(7) 2_666 1_556
Na O6 Na 137.5(16) 1_555 2_665
Na O6 O2 74.9(11) 1_555 1_554
Na O6 O3 97.7(14) 1_555 1_555
Na O6 O4 57.5(10) 1_555 1_554
Na O6 O4 125.9(13) 1_555 2_666
Na O6 O5 127.7(15) 1_555 1_554
Na O6 O5 58.2(10) 1_555 2_666
Na O6 O6 95.5(13) 1_555 2_665
Na O6 O7 158.4(16) 1_555 1_555
Na O6 O7 80.8(11) 1_555 2_565
Na O6 O2 117.7(11) 2_665 1_554
Na O6 O3 98.9(11) 2_665 1_555
Na O6 O4 98.8(10) 2_665 1_554
Na O6 O4 49.0(7) 2_665 2_666
Na O6 O5 50.7(8) 2_665 1_554
Na O6 O5 95.1(10) 2_665 2_666
Na O6 O7 61.6(9) 2_665 1_555
Na O6 O7 141.6(11) 2_665 2_565
O2 O6 O3 133.2(9) 1_554 1_555
O2 O6 O4 48.6(6) 1_554 1_554
O2 O6 O4 159.2(8) 1_554 2_666
O2 O6 O5 67.5(7) 1_554 1_554
O2 O6 O5 132.7(9) 1_554 2_666
O2 O6 O6 115.4(9) 1_554 2_665
O2 O6 O7 106.5(9) 1_554 1_555
O2 O6 O7 62.4(6) 1_554 2_565
O3 O6 O4 155.1(9) 1_555 1_554
O3 O6 O4 50.9(6) 1_555 2_666
O3 O6 O5 134.5(11) 1_555 1_554
O3 O6 O5 64.8(7) 1_555 2_666
O3 O6 O6 111.2(10) 1_555 2_665
O3 O6 O7 65.1(7) 1_555 1_555
O3 O6 O7 70.9(6) 1_555 2_565
O4 O6 O4 139.4(8) 1_554 2_666
O4 O6 O5 70.3(7) 1_554 1_554
O4 O6 O5 96.3(8) 1_554 2_666
O4 O6 O6 72.1(7) 1_554 2_665
O4 O6 O7 139.4(9) 1_554 1_555
O4 O6 O7 104.5(7) 1_554 2_565
O4 O6 O5 95.8(8) 2_666 1_554
O4 O6 O5 68.0(6) 2_666 2_666
O4 O6 O6 67.3(7) 2_666 2_665
O4 O6 O7 54.2(6) 2_666 1_555
O4 O6 O7 116.1(7) 2_666 2_565
O5 O6 O5 137.8(10) 1_554 2_666
O5 O6 O6 70.8(8) 1_554 2_665
O5 O6 O7 70.1(9) 1_554 1_555
O5 O6 O7 110.2(9) 1_554 2_565
O5 O6 O6 67.0(8) 2_666 2_665
O5 O6 O7 119.2(9) 2_666 1_555
O5 O6 O7 111.9(8) 2_666 2_565
O6 O6 O7 102.8(9) 2_665 1_555
O6 O6 O7 176.1(9) 2_665 2_565
O7 O6 O7 81.1(7) 1_555 2_565
Na O7 V 92.7(11) 1_545 1_555
Na O7 O1 67.3(10) 1_545 1_545
Na O7 O1 87.8(10) 1_545 2_565
Na O7 O2 123.0(13) 1_545 2_566
Na O7 O3 117.0(12) 1_545 1_555
Na O7 O3 128.4(11) 1_545 2_565
Na O7 O4 60.0(9) 1_545 2_666
Na O7 O5 67.1(10) 1_545 1_554
Na O7 O6 102.2(12) 1_545 1_555
Na O7 O6 157.7(13) 1_545 2_565
Na O7 O7 68.8(9) 1_545 2_555
Na O7 V 99.0(12) 2_665 1_555
Na O7 O1 89.1(11) 2_665 1_545
Na O7 O1 97.5(10) 2_665 2_565
Na O7 O2 139.2(13) 2_665 2_566
Na O7 O3 103.8(12) 2_665 1_555
Na O7 O3 119.3(10) 2_665 2_565
Na O7 O4 56.6(9) 2_665 2_666
Na O7 O5 52.1(8) 2_665 1_554
Na O7 O6 74.0(10) 2_665 1_555
Na O7 O6 168.4(13) 2_665 2_565
Na O7 O7 95.8(10) 2_665 2_555
V O7 O1 145.6(7) 1_555 2_565
V O7 O3 138.6(6) 1_555 2_565
V O7 O5 148.9(10) 1_555 1_554
V O7 O6 99.1(7) 1_555 1_555
V O7 O6 91.1(6) 1_555 2_565
V O7 O7 94.8(6) 1_555 2_555
O1 O7 O1 108.9(7) 1_545 2_565
O1 O7 O2 55.9(6) 1_545 2_566
O1 O7 O3 84.4(7) 1_545 1_555
O1 O7 O3 143.4(7) 1_545 2_565
O1 O7 O4 56.8(6) 1_545 2_666
O1 O7 O5 133.5(10) 1_545 1_554
O1 O7 O6 134.9(9) 1_545 1_555
O1 O7 O6 102.3(7) 1_545 2_565
O1 O7 O7 55.5(5) 1_545 2_555
O1 O7 O2 112.3(8) 2_565 2_566
O1 O7 O3 155.1(8) 2_565 1_555
O1 O7 O3 48.9(5) 2_565 2_565
O1 O7 O4 147.5(7) 2_565 2_666
O1 O7 O5 60.6(7) 2_565 1_554
O1 O7 O6 114.5(8) 2_565 1_555
O1 O7 O6 76.8(6) 2_565 2_565
O1 O7 O7 53.5(5) 2_565 2_555
O2 O7 O3 57.2(6) 2_566 1_555
O2 O7 O3 101.4(7) 2_566 2_565
O2 O7 O4 84.8(7) 2_566 2_666
O2 O7 O5 168.6(12) 2_566 1_554
O2 O7 O6 114.4(9) 2_566 1_555
O2 O7 O6 51.9(6) 2_566 2_565
O2 O7 O7 81.6(6) 2_566 2_555
O3 O7 O3 108.1(7) 1_555 2_565
O3 O7 O4 57.4(6) 1_555 2_666
O3 O7 O5 125.0(10) 1_555 1_554
O3 O7 O6 60.8(7) 1_555 1_555
O3 O7 O6 79.8(6) 1_555 2_565
O3 O7 O7 135.0(7) 1_555 2_555
O3 O7 O4 158.0(7) 2_565 2_666
O3 O7 O5 67.2(7) 2_565 1_554
O3 O7 O6 78.6(6) 2_565 1_555
O3 O7 O6 49.5(5) 2_565 2_565
O3 O7 O7 96.3(6) 2_565 2_555
O4 O7 O5 105.8(9) 2_666 1_554
O4 O7 O6 79.5(7) 2_666 1_555
O4 O7 O6 132.1(7) 2_666 2_565
O4 O7 O7 105.6(6) 2_666 2_555
O5 O7 O6 64.8(8) 1_554 1_555
O5 O7 O6 116.7(10) 1_554 2_565
O5 O7 O7 99.1(9) 1_554 2_555
O6 O7 O6 98.9(8) 1_555 2_565
O6 O7 O7 163.8(9) 1_555 2_555
O6 O7 O7 89.0(6) 2_565 2_555
loop_
_geom_bond_atom_site_label_1
_geom_bond_atom_site_label_2
_geom_bond_distance
_geom_bond_site_symmetry_2
Na Na 1.51(4) 2_675
Na O1 3.20(3) 1_555
Na O2 3.06(3) 1_554
Na O4 2.88(3) 1_554
Na O4 2.87(3) 2_676
Na O5 3.48(3) 1_564
Na O5 2.88(3) 2_666
Na O6 2.34(3) 1_555
Na O6 3.48(3) 2_665
Na O7 2.88(3) 1_565
Na O7 3.19(3) 2_665
As V 3.289(7) 1_555
As V 3.294(7) 1_655
As V 3.252(7) 2_656
As V 3.324(7) 2_666
As O1 1.637(13) 2_666
As O2 1.586(16) 2_666
As O3 1.654(14) 2_666
As O4 1.596(12) 2_666
As O5 3.31(2) 1_555
As O5 3.291(19) 1_655
As O5 3.233(20) 2_656
As O5 3.38(2) 2_666
V As 3.294(7) 1_455
V As 3.289(7) 1_555
V As 3.252(7) 2_656
V As 3.324(7) 2_666
V O1 1.940(14) 1_545
V O2 2.000(14) 2_566
V O3 1.951(14) 1_555
V O4 1.983(15) 2_666
V O5 1.46(2) 1_555
V O7 2.405(13) 1_555
O1 Na 3.20(3) 1_555
O1 As 1.637(13) 2_666
O1 V 1.940(14) 1_565
O1 O1 3.49(2) 2_576
O1 O2 2.656(20) 1_555
O1 O2 2.768(18) 2_576
O1 O3 2.661(18) 1_555
O1 O4 2.649(16) 1_555
O1 O4 2.728(18) 2_676
O1 O5 2.58(2) 1_565
O1 O5 3.21(2) 2_566
O1 O7 2.890(18) 1_565
O1 O7 2.961(15) 2_565
O2 Na 3.06(3) 1_556
O2 As 1.586(16) 2_666
O2 V 2.000(14) 2_566
O2 O1 2.656(20) 1_555
O2 O1 2.768(18) 2_576
O2 O2 3.466(17) 2_566
O2 O3 2.67(2) 1_555
O2 O3 2.807(19) 2_566
O2 O4 2.550(19) 1_555
O2 O5 3.32(2) 1_555
O2 O5 2.61(2) 2_566
O2 O6 2.678(17) 1_556
O2 O7 3.01(2) 2_566
O3 As 1.654(14) 2_666
O3 V 1.951(14) 1_555
O3 O1 2.661(18) 1_555
O3 O2 2.67(2) 1_555
O3 O2 2.807(19) 2_566
O3 O3 3.323(16) 2_666
O3 O4 2.667(16) 1_555
O3 O4 2.734(18) 2_666
O3 O5 2.62(2) 1_555
O3 O5 3.28(2) 2_666
O3 O6 2.733(20) 1_555
O3 O7 2.840(17) 1_555
O3 O7 3.396(16) 2_565
O4 Na 2.88(3) 1_556
O4 Na 2.87(3) 2_676
O4 As 1.596(12) 2_666
O4 V 1.983(15) 2_666
O4 O1 2.649(16) 1_555
O4 O1 2.728(18) 2_676
O4 O2 2.550(19) 1_555
O4 O3 2.667(16) 1_555
O4 O3 2.734(18) 2_666
O4 O4 3.318(19) 2_676
O4 O5 3.15(2) 1_565
O4 O5 2.60(3) 2_666
O4 O6 3.35(2) 1_556
O4 O6 3.453(18) 2_666
O4 O7 2.849(15) 2_666
O5 Na 3.48(3) 1_546
O5 Na 2.88(3) 2_666
O5 As 3.291(19) 1_455
O5 As 3.31(2) 1_555
O5 As 3.233(20) 2_656
O5 As 3.38(2) 2_666
O5 V 1.46(2) 1_555
O5 O1 2.58(2) 1_545
O5 O1 3.21(2) 2_566
O5 O2 3.32(2) 1_555
O5 O2 2.61(2) 2_566
O5 O3 2.62(2) 1_555
O5 O3 3.28(2) 2_666
O5 O4 3.15(2) 1_545
O5 O4 2.60(3) 2_666
O5 O6 3.24(2) 1_556
O5 O6 3.32(2) 2_666
O5 O7 3.37(3) 1_556
O6 Na 2.34(3) 1_555
O6 Na 3.48(3) 2_665
O6 O2 2.678(17) 1_554
O6 O3 2.733(20) 1_555
O6 O4 3.35(2) 1_554
O6 O4 3.453(18) 2_666
O6 O5 3.24(2) 1_554
O6 O5 3.32(2) 2_666
O6 O6 2.362(19) 2_665
O6 O7 2.535(19) 1_555
O6 O7 3.100(18) 2_565
O7 Na 2.88(3) 1_545
O7 Na 3.19(3) 2_665
O7 V 2.405(13) 1_555
O7 O1 2.890(18) 1_545
O7 O1 2.961(15) 2_565
O7 O2 3.01(2) 2_566
O7 O3 2.840(17) 1_555
O7 O3 3.396(16) 2_565
O7 O4 2.849(15) 2_666
O7 O5 3.37(3) 1_554
O7 O6 2.535(19) 1_555
O7 O6 3.100(18) 2_565
O7 O7 3.401(18) 2_555
