#------------------------------------------------------------------------------
#$Date: 2016-12-08 18:12:28 +0200 (Thu, 08 Dec 2016) $
#$Revision: 189008 $
#$URL: file:///home/coder/svn-repositories/cod/cif/3/50/00/3500056.cif $
#------------------------------------------------------------------------------
#
# This file is available in the Crystallography Open Database (COD),
# http://www.crystallography.net/
#
# All data on this site have been placed in the public domain by the
# contributors.
#
data_3500056
loop_
_publ_author_name
'Armel Le Bail'
_publ_section_title
;
 Ni12(HPO4)6(PO4)2(OH)6 P63mc related to COD 4313804 and to COD 1000115
 and dumortierite
;
_journal_name_full               'Personal communication to COD'
_journal_year                    2016
_chemical_compound_source
;
Hydrothermal synthesis
;
_chemical_formula_sum            'H12 Ni12 O38 P8'
_chemical_formula_weight         1572.18
_space_group_IT_number           186
_symmetry_cell_setting           hexagonal
_symmetry_Int_Tables_number      186
_symmetry_space_group_name_Hall  'P 6c -2c'
_symmetry_space_group_name_H-M   'P 63 m c'
_cell_angle_alpha                90.00000
_cell_angle_beta                 90.00000
_cell_angle_gamma                120.00000
_cell_formula_units_Z            1
_cell_length_a                   12.4544(4)
_cell_length_b                   12.4544(4)
_cell_length_c                   4.94856(18)
_cell_measurement_temperature    295
_cell_volume                     664.75(4)
_computing_structure_refinement  FULLPROF
_diffrn_ambient_temperature      295
_diffrn_radiation_monochromator  graphite
_diffrn_radiation_probe          x-ray
_diffrn_radiation_type           CuK\a
_diffrn_radiation_wavelength     1.54184
_exptl_absorpt_coefficient_mu    14.56
_exptl_crystal_density_diffrn    3.81
_exptl_crystal_F_000             743
_pd_meas_2theta_range_inc        0.040000
_pd_meas_2theta_range_max        130.00000
_pd_meas_2theta_range_min        7.00000
_pd_meas_number_of_points        3076
_pd_proc_2theta_range_inc        0.040000
_pd_proc_2theta_range_max        129.8443
_pd_proc_2theta_range_min        6.8443
_pd_proc_ls_prof_R_factor        3.9641
_pd_proc_ls_prof_wR_expected     1.8252
_pd_proc_ls_prof_wR_factor       5.3202
_pd_proc_wavelength              1.540560
_refine_ls_number_parameters     48
_refine_ls_number_reflns         533
_refine_ls_number_restraints     0
_refine_ls_R_I_factor            3.0816
_iucr_refine_instructions_details
;
Fullprof .pcr file, modified to fit inside 80 columns
followed by the .dat file



COMM   Ni11(HPO3)8(OH)6    P63mc
! Current global Chi2 (Bragg contrib.) =      8.496    
! Files => DAT-file: ni13-all.dat,  PCR-file: ni13-all
!Job Npr Nph Nba Nex Nsc Nor Dum Iwg Ilo Ias Res Ste Nre Cry Uni Cor Opt Aut
   0   5   1  15   2   0   1   1   0   0   1   0   0   0   0   0   0   0   0
!
!Ipr Ppl Ioc Mat Pcr Ls1 Ls2 Ls3 NLI Prf Ins Rpa Sym Hkl Fou Sho Ana
   0   0   1   0   2   0   4   0   0   1   0  -1   0   1   2   0   0
!
! Lambda1  Lambda2    Ratio    Bkpos    Wdt    Cthm     muR   AsyLim   Rpolarz
  2nd-muR -> Patt# 1
 1.540560 1.544390  0.48000   90.000 12.0000  0.7995  0.0000   80.00    0.0000
  0.0000
!
!NCY  Eps  R_at  R_an  R_pr  R_gl     Thmin       Step       Thmax    PSD    
Sent0
 16  0.01  0.20  0.20  0.20  0.20      7.0000   0.040000   130.0000   0.000  
 0.000
!
!2Theta/TOF/E(Kev)   Background  for Pattern#  1
         7.1200      4821.5361        471.00
         8.3333      3483.6641        461.00
         9.5833      2658.9150        451.00
        11.7708      2384.2358        441.00
        17.8125      1684.7343        331.00
        22.6042      1492.9386        341.00
        26.1458      1578.2285        351.00
        31.5625      1695.4941        361.00
        44.2708      1538.5391        371.00
        62.3958      1397.7943        381.00
        83.7500      1182.0583        391.00
        90.6250      1142.3566        401.00
       116.3542      1129.7257        411.00
       120.9375      1125.4978        421.00
       128.9583      1108.9761        431.00
! 
! Excluded regions (LowT  HighT) for Pattern#  1
        1.00        7.00
      130.00      170.00
! 
!
      48    !Number of refined parameters
!
!  Zero    Code    SyCos    Code   SySin    Code  Lambda     Code MORE ->Patt# 1
  0.15566   21.0  0.00000    0.0  0.00000    0.0 0.000000    0.00   0
!-------------------------------------------------------------------------------
!  Data for PHASE number:   1  ==> Current R_Bragg for Pattern#  1:     3.08
!-------------------------------------------------------------------------------
 Strontium iron fluoride hemifydrate
!
!Nat Dis Ang Pr1 Pr2 Pr3 Jbt Irf Isy Str Furth       ATZ    Nvk Npr More
  10   0   0 1.0 0.0 0.0   0   0   0   0   0       1464.938   0   5   1
!
!Jvi Jdi Hel Sol Mom Ter  Brind   RMua    RMub    RMuc   Jtyp  Nsp_Ref Ph_Shift 
N_Domains
   2   3   0   0   0   0  1.0000  0.0000  0.0000  0.0000    0      0      0    
  0
!
! Max_dst(dist) (angles)  Bond-Valence Calc.
      3.0000    180.0000           
P 63 M C                 <--Space group symbol
!Atom   Typ       X        Y        Z     Biso       Occ     In Fin N_t Spc 
/Codes
Ni1    Ni      0.42670  0.34997  0.00000  0.49294   0.93896   0   0   0    0  
                111.00   121.00     0.00   131.00    321.00
Ni2    Ni      0.00000  0.00000  0.17915  0.49294   0.06104   0   0   0    0  
                  0.00     0.00   311.00   131.00   -321.00
P1     P       0.15296  0.84704  0.98639  1.49943   0.50000   0   0   0    0  
                141.00  -141.00   151.00   161.00      0.00
P2     P       0.66667  0.33333  0.78221  1.49943   0.16667   0   0   0    0  
                  0.00     0.00   171.00   161.00      0.00
O1     O       0.34235  0.07270  0.64214  1.11843   1.00000   0   0   0    0  
                181.00   191.00   201.00   211.00      0.00
O2     O       0.18861  0.81139  0.70969  1.11843   0.50000   0   0   0    0  
                221.00  -221.00   231.00   211.00      0.00
O3     O       0.40176  0.59824  0.38704  1.11843   0.50000   0   0   0    0  
                241.00  -241.00   251.00   211.00      0.00
O4     O       0.47236  0.52764  0.81946  1.11843   0.50000   0   0   0    0  
                261.00  -261.00   271.00   211.00      0.00
O5     O       0.08236 -0.08236  0.91539  1.11843   0.50000   0   0   0    0  
                281.00  -281.00   291.00   211.00      0.00
O6     O       0.66667  0.33333  0.45458  1.11843   0.16667   0   0   0    0  
                  0.00     0.00   301.00   211.00      0.00
!-------> Profile Parameters for Pattern #  1
!  Scale        Shape1      Bov      Str1      Str2      Str3   Strain-Model
 0.37852E-02   0.92541   0.00000   0.00000   0.00000   0.00000       0
    11.00000    51.000     0.000     0.000     0.000     0.000
!       U         V          W           X          Y        GauSiz   LorSiz 
Size-Model
   0.604361  -0.389428   0.127384  -0.002587   0.000000   0.000000   0.000000 
   0
     81.000     71.000     61.000    481.000      0.000      0.000      0.000
!     a          b         c        alpha      beta       gamma      #Cell Info
  12.454383  12.454383   4.948557  90.000000  90.000000 120.000000   
   31.00000   31.00000   41.00000    0.00000    0.00000   31.00000
!  Pref1    Pref2      Asy1     Asy2     Asy3     Asy4  
  1.00000  0.00000  0.09948  0.02668  0.00000  0.00000
     0.00     0.00    91.00   101.00     0.00     0.00
!  2Th1/TOF1    2Th2/TOF2  Pattern to plot
       7.000     130.000       1


Fullprof .dat file



      7.00    0.04   130.00
  4709.   4707.   4595.   4644.   4572.   4536.   4674.   4739.   4688.   4723.
  4804.   4813.   4912.   5002.   5070.   5101.   5296.   5305.   5592.   5734.
  6037.   6303.   6586.   6954.   7455.   7898.   8371.   8954.   9836.  11031.
 12152.  12689.  13737.  13440.  12508.  10711.   8511.   6653.   5222.   4514.
  4109.   3796.   3644.   3501.   3368.   3289.   3251.   3257.   3232.   3097.
  3231.   3156.   2988.   3101.   2897.   2974.   2945.   3004.   2936.   2968.
  2867.   2870.   2932.   2820.   2821.   2888.   2875.   2894.   2838.   2906.
  2850.   2841.   2821.   2763.   2862.   2670.   2701.   2771.   2673.   2719.
  2686.   2649.   2679.   2659.   2668.   2653.   2646.   2661.   2649.   2606.
  2542.   2575.   2627.   2506.   2639.   2525.   2587.   2592.   2660.   2493.
  2568.   2466.   2548.   2558.   2509.   2510.   2448.   2421.   2484.   2521.
  2462.   2530.   2483.   2447.   2374.   2483.   2387.   2438.   2483.   2412.
  2477.   2430.   2496.   2419.   2479.   2431.   2338.   2470.   2468.   2354.
  2350.   2356.   2419.   2447.   2402.   2401.   2353.   2407.   2435.   2458.
  2383.   2303.   2420.   2396.   2372.   2458.   2409.   2438.   2422.   2434.
  2421.   2464.   2557.   2502.   2530.   2558.   2589.   2585.   2648.   2636.
  2645.   2718.   2773.   2963.   3026.   3043.   3200.   3514.   3765.   4000.
  4451.   4878.   5429.   6024.   6717.   7642.   8660.  10209.  11533.  13658.
 15978.  19302.  22319.  25060.  25945.  24374.  20568.  15543.  11260.   8113.
  6073.   4862.   4055.   3589.   3432.   3039.   2990.   2889.   2738.   2584.
  2577.   2526.   2468.   2464.   2443.   2491.   2378.   2374.   2296.   2233.
  2237.   2248.   2200.   2210.   2195.   2107.   2264.   2196.   2166.   2180.
  2164.   2219.   2251.   2226.   2285.   2352.   2426.   2458.   2575.   2597.
  2708.   3013.   3120.   3451.   3673.   4126.   4720.   5262.   5788.   6169.
  6112.   5537.   4580.   3773.   3132.   2682.   2460.   2287.   2112.   2163.
  2076.   1958.   1931.   1994.   1926.   1950.   1919.   2009.   1862.   1921.
  1847.   1907.   1974.   1929.   1895.   1895.   1847.   1819.   1838.   1824.
  1867.   1889.   1887.   1917.   1834.   1791.   1859.   1834.   1885.   1871.
  1878.   1850.   1862.   1935.   1786.   1857.   1854.   1891.   1864.   1886.
  1844.   1880.   1849.   1959.   1851.   1938.   1957.   1900.   1965.   2016.
  1866.   1947.   2087.   2075.   2107.   2163.   2299.   2376.   2430.   2635.
  2999.   3357.   3772.   4269.   4837.   5703.   6754.   8162.   9737.  12223.
 15558.  19337.  21530.  20462.  16393.  11219.   7057.   4948.   3586.   2992.
  2663.   2315.   2186.   2121.   2119.   2007.   2000.   1971.   1978.   1954.
  1917.   1898.   1785.   1867.   1820.   1832.   1855.   1823.   1814.   1762.
  1819.   1763.   1745.   1765.   1830.   1788.   1734.   1711.   1834.   1778.
  1723.   1819.   1805.   1844.   1831.   1869.   1878.   2000.   1984.   2170.
  2188.   2365.   2469.   2646.   2651.   2567.   2282.   2155.   2059.   1958.
  1764.   1759.   1840.   1787.   1728.   1709.   1740.   1708.   1718.   1785.
  1658.   1775.   1742.   1725.   1729.   1720.   1780.   1761.   1743.   1750.
  1698.   1851.   1740.   1755.   1738.   1808.   1853.   1782.   1798.   1754.
  1787.   1777.   1835.   1836.   1803.   1928.   1851.   1868.   1856.   1959.
  1902.   2060.   2044.   2160.   2112.   2194.   2344.   2455.   2644.   2995.
  3314.   3677.   4194.   4688.   5772.   6709.   8396.  10263.  12197.  13254.
 12974.  12082.  10475.   9691.   9707.  10564.  12057.  13147.  13497.  12532.
 10456.   8265.   6364.   4873.   3910.   3249.   2855.   2710.   2508.   2311.
  2348.   2263.   2145.   2104.   2083.   2144.   2063.   2075.   2049.   2073.
  1992.   2017.   1990.   1974.   1875.   1987.   1979.   1907.   1909.   1932.
  1983.   1905.   1972.   1993.   1911.   1954.   2077.   2103.   2017.   1977.
  2040.   1977.   2103.   1961.   2043.   1950.   2054.   2023.   2076.   2134.
  2245.   2096.   2156.   2128.   2064.   2184.   2247.   2276.   2350.   2415.
  2338.   2492.   2533.   2510.   2588.   2652.   2719.   2904.   2962.   3127.
  3332.   3550.   3920.   4180.   4575.   5298.   6125.   7020.   8415.   9970.
 12501.  15206.  19489.  24645.  32066.  41266.  51621.  59563.  61577.  57342.
 47332.  35764.  25811.  19208.  15638.  12783.  11333.   9447.   7914.   6689.
  5450.   4610.   3899.   3591.   3310.   3105.   2936.   2844.   2782.   2582.
  2569.   2415.   2435.   2394.   2376.   2441.   2462.   2369.   2423.   2481.
  2577.   2677.   2739.   2918.   3075.   3249.   3129.   2950.   2694.   2550.
  2341.   2197.   2122.   1992.   1967.   1994.   1999.   1999.   1980.   1951.
  2001.   2024.   2068.   2163.   2265.   2360.   2391.   2621.   2453.   2446.
  2347.   2237.   2027.   2028.   1963.   2012.   1899.   1868.   1944.   1883.
  1895.   1893.   1890.   1867.   1837.   1895.   1823.   1884.   1850.   1829.
  1878.   1941.   1904.   1857.   1939.   1901.   1929.   2024.   1934.   1973.
  1966.   2017.   2022.   2029.   2009.   2061.   2127.   2132.   2143.   2216.
  2260.   2426.   2363.   2503.   2638.   2782.   2877.   3197.   3449.   3838.
  4434.   5116.   6031.   7310.   8987.  11218.  13924.  17235.  20482.  21785.
 21468.  19096.  15903.  12110.   9166.   6999.   5273.   4331.   3603.   3295.
  3003.   2819.   2566.   2498.   2410.   2346.   2271.   2210.   2126.   2148.
  2185.   2125.   2114.   2076.   2110.   2127.   2086.   2168.   2142.   2205.
  2233.   2302.   2396.   2511.   2593.   2717.   2925.   3155.   3557.   4132.
  4728.   5764.   6974.   8278.   9584.  10248.   9924.   8839.   7210.   5613.
  4511.   3720.   3144.   2862.   2658.   2460.   2382.   2300.   2248.   2274.
  2321.   2272.   2400.   2380.   2476.   2618.   2793.   2991.   3318.   3723.
  4282.   5094.   6540.   7941.  10689.  13687.  15663.  15628.  13636.  10661.
  7752.   5686.   4328.   3560.   3032.   2818.   2619.   2481.   2534.   2462.
  2529.   2390.   2488.   2445.   2549.   2550.   2505.   2712.   2859.   3084.
  3142.   3308.   3461.   3551.   3443.   3674.   3867.   4401.   4721.   5379.
  6421.   7404.   9103.  11154.  14346.  18174.  23164.  27313.  31280.  32366.
 30211.  26053.  21607.  16913.  13101.  10367.   8415.   6799.   5654.   4839.
  4202.   3680.   3404.   3162.   3052.   3002.   2996.   2993.   3156.   3341.
  3588.   3948.   4358.   5152.   6302.   7828.   9919.  11818.  12578.  12209.
 10508.   8601.   6545.   4898.   3989.   3309.   3025.   2666.   2568.   2437.
  2374.   2401.   2352.   2545.   2499.   2700.   2726.   2891.   3223.   3637.
  4062.   4207.   4312.   4001.   3719.   3379.   3252.   3337.   3381.   3694.
  4107.   4731.   5355.   6572.   8008.  10015.  12135.  13561.  14254.  13688.
 11986.  10380.   8045.   6192.   4830.   4106.   3327.   2935.   2687.   2458.
  2321.   2172.   2045.   2031.   2065.   1980.   1889.   1889.   1914.   1871.
  1877.   1854.   1877.   1969.   1797.   1923.   1899.   1889.   1867.   1823.
  1799.   1750.   1752.   1857.   1810.   1891.   1993.   1997.   2199.   2336.
  2404.   2560.   2845.   3337.   3599.   4246.   4727.   5123.   4814.   4531.
  3946.   3404.   2960.   2443.   2224.   2034.   1961.   1911.   1850.   1783.
  1755.   1836.   1757.   1717.   1759.   1810.   1822.   1937.   1984.   2022.
  1990.   1994.   1891.   1862.   1816.   1739.   1736.   1650.   1795.   1739.
  1866.   1998.   1936.   2135.   2225.   2570.   2768.   3277.   3675.   4124.
  4186.   4042.   3765.   3177.   2841.   2416.   2127.   1922.   1879.   1898.
  1751.   1738.   1786.   1794.   1754.   1718.   1710.   1700.   1683.   1708.
  1849.   1805.   1896.   1972.   2040.   2018.   2197.   2351.   2638.   2985.
  3250.   3783.   4594.   5302.   6120.   6872.   7118.   6874.   6052.   5273.
  4409.   3706.   3069.   2694.   2354.   2168.   2046.   2020.   1900.   1971.
  1946.   1979.   2062.   2152.   2334.   2469.   2803.   3014.   3597.   3926.
  4396.   4622.   4484.   4158.   3694.   3314.   2841.   2609.   2292.   2153.
  2059.   1991.   2066.   2072.   2138.   2222.   2449.   2599.   2818.   3115.
  3307.   3544.   3468.   3257.   3121.   2964.   2948.   2872.   2918.   3204.
  3731.   4169.   4674.   5605.   6282.   6806.   6718.   6576.   6060.   5165.
  4460.   3761.   3161.   2700.   2564.   2214.   2154.   1950.   1977.   1960.
  1816.   1878.   1858.   1863.   1795.   1856.   1835.   1851.   1804.   1911.
  1988.   1931.   1959.   2107.   2069.   2132.   2238.   2305.   2444.   2655.
  2906.   3324.   3817.   4278.   5041.   6064.   7418.   9003.  10491.  11206.
 11183.  10273.   9214.   7977.   6773.   6103.   5731.   5594.   5948.   6952.
  7777.   9246.  10307.  10847.  10844.  10561.   9288.   7938.   6609.   5558.
  4512.   3656.   3268.   2975.   2739.   2536.   2330.   2181.   2224.   2087.
  2094.   2061.   1976.   2011.   2022.   1895.   1929.   1993.   2005.   2016.
  2098.   2067.   2086.   2134.   2247.   2445.   2707.   2897.   3069.   3583.
  4147.   4972.   6050.   7137.   8334.   8963.   8963.   8318.   7403.   6336.
  5456.   4326.   3594.   3099.   2770.   2517.   2426.   2227.   2165.   2115.
  2151.   2193.   2230.   2145.   2184.   2083.   2059.   2156.   1906.   1941.
  1895.   1860.   1813.   1867.   1974.   2008.   2069.   2265.   2334.   2545.
  2667.   2788.   2922.   2920.   2897.   2843.   2762.   2714.   2822.   3000.
  3257.   3576.   4162.   4664.   5081.   5398.   5519.   5312.   4823.   4276.
  3746.   3380.   2900.   2616.   2400.   2311.   2263.   2248.   2408.   2287.
  2506.   2711.   2828.   2961.   2985.   2788.   2822.   2576.   2310.   2306.
  2092.   2131.   1998.   1919.   1979.   1978.   2018.   2042.   2140.   2308.
  2525.   2649.   2850.   3189.   3631.   3731.   4050.   3888.   3691.   3625.
  3454.   3254.   3271.   3355.   3516.   3979.   4259.   4848.   5189.   5351.
  5323.   5011.   4515.   4328.   3720.   3218.   2811.   2609.   2341.   2075.
  2038.   1965.   1924.   1854.   1798.   1809.   1858.   1825.   1774.   1701.
  1765.   1742.   1766.   1731.   1846.   1823.   1815.   1948.   2001.   2101.
  2254.   2376.   2564.   2861.   3144.   3633.   4027.   4370.   4450.   4341.
  4242.   3792.   3565.   3138.   2942.   2661.   2528.   2506.   2432.   2628.
  2590.   2672.   2758.   2940.   2991.   3138.   3183.   3211.   3117.   3210.
  3243.   3525.   3749.   4211.   4774.   5416.   6141.   7318.   8370.   9482.
 10497.  11121.  11341.  11129.  10185.   9153.   8073.   7035.   5883.   5039.
  4230.   3662.   3358.   3230.   2940.   3050.   3047.   3124.   3202.   3287.
  3206.   3423.   3236.   3446.   3650.   3685.   4087.   4589.   5390.   6324.
  7400.   8139.   8124.   7950.   7271.   6748.   6112.   5106.   4288.   3582.
  3202.   2827.   2540.   2351.   2168.   1983.   1936.   1826.   1771.   1768.
  1755.   1742.   1661.   1722.   1686.   1756.   1666.   1587.   1668.   1631.
  1628.   1641.   1694.   1701.   1755.   1782.   1697.   1673.   1649.   1747.
  1696.   1663.   1632.   1626.   1618.   1625.   1604.   1577.   1564.   1596.
  1593.   1529.   1561.   1551.   1650.   1752.   1708.   1771.   1764.   1796.
  1933.   2068.   2201.   2335.   2545.   2882.   3032.   3382.   3394.   3316.
  3161.   3077.   2781.   2645.   2381.   2253.   2039.   2012.   1897.   1794.
  1818.   1910.   1842.   1988.   1962.   2064.   2089.   2241.   2235.   2321.
  2388.   2342.   2272.   2249.   2204.   2225.   2202.   2372.   2599.   2602.
  2877.   2825.   2794.   2696.   2612.   2557.   2365.   2311.   2255.   2221.
  2242.   2228.   2261.   2429.   2560.   2806.   2887.   3056.   3292.   3350.
  3492.   3472.   3361.   3152.   3180.   2999.   2753.   2774.   2707.   2723.
  2748.   2865.   3007.   3382.   3640.   4054.   4287.   4569.   4658.   4572.
  4641.   4663.   4843.   5357.   5877.   6439.   7695.   8626.   9505.   9404.
  9124.   8279.   7553.   6880.   6106.   5051.   4315.   3633.   3081.   2821.
  2448.   2347.   2230.   2108.   2035.   2050.   1932.   1791.   1891.   1760.
  1769.   1693.   1721.   1820.   1751.   1645.   1691.   1729.   1713.   1776.
  1705.   1726.   1854.   1866.   1933.   1937.   1939.   2008.   2068.   2242.
  2392.   2574.   2685.   3084.   3432.   3738.   4023.   4128.   4347.   4420.
  4247.   3958.   3784.   3486.   3287.   2964.   2717.   2452.   2299.   2216.
  2078.   1984.   1948.   1898.   1913.   1954.   1898.   1959.   1926.   1901.
  1855.   1882.   2009.   1976.   2055.   2100.   2310.   2375.   2494.   2647.
  2695.   2669.   2658.   2589.   2462.   2343.   2252.   2159.   2058.   1893.
  1836.   1824.   1679.   1702.   1632.   1661.   1604.   1599.   1669.   1664.
  1590.   1721.   1674.   1680.   1742.   1772.   1791.   1858.   1871.   1844.
  1829.   1875.   2036.   1888.   2015.   2041.   2090.   2205.   2400.   2544.
  2831.   2841.   3422.   3823.   4370.   4919.   5553.   5917.   6174.   6110.
  5813.   5568.   5247.   4912.   4656.   4376.   4090.   3996.   3910.   3818.
  3668.   3630.   3524.   3414.   3290.   3283.   3174.   3047.   3056.   3081.
  3129.   3429.   3543.   3825.   3938.   3918.   3891.   3743.   3532.   3337.
  3156.   2745.   2464.   2289.   2134.   2049.   1884.   1781.   1676.   1641.
  1598.   1579.   1662.   1623.   1575.   1555.   1603.   1575.   1570.   1629.
  1570.   1628.   1619.   1714.   1745.   1749.   1775.   1765.   1848.   1899.
  1892.   1898.   2027.   2102.   2071.   2335.   2474.   2661.   2871.   3018.
  3095.   3191.   3048.   2971.   2753.   2664.   2545.   2369.   2112.   2066.
  1946.   1783.   1644.   1676.   1690.   1624.   1601.   1616.   1668.   1581.
  1598.   1716.   1605.   1786.   1864.   1938.   2024.   2150.   2333.   2434.
  2661.   2481.   2545.   2413.   2469.   2273.   2128.   1997.   1903.   1849.
  1746.   1734.   1659.   1633.   1664.   1673.   1677.   1599.   1663.   1705.
  1742.   1782.   1728.   1816.   1726.   1768.   1795.   1798.   1809.   2024.
  2055.   2197.   2411.   2630.   2706.   2594.   2637.   2444.   2519.   2320.
  2225.   2093.   2033.   1963.   1857.   1809.   1763.   1759.   1798.   1765.
  1722.   1811.   1797.   1802.   1834.   1842.   1895.   1840.   1905.   2006.
  1969.   1985.   1973.   1977.   1944.   1800.   1842.   1738.   1784.   1712.
  1727.   1671.   1663.   1658.   1799.   1715.   1759.   1749.   1768.   1814.
  1772.   1745.   1811.   1773.   1709.   1681.   1616.   1727.   1687.   1749.
  1758.   1733.   1732.   1707.   1783.   1696.   1735.   1608.   1678.   1630.
  1656.   1666.   1659.   1690.   1741.   1726.   1715.   1640.   1641.   1628.
  1608.   1653.   1637.   1670.   1607.   1696.   1741.   1695.   1900.   1954.
  2047.   2148.   2182.   2231.   2290.   2255.   2227.   2119.   2068.   2003.
  1937.   1972.   1953.   1949.   1841.   1946.   1988.   2013.   2033.   2056.
  2064.   2028.   1983.   1903.   1900.   1916.   1867.   1778.   1777.   1830.
  1814.   1818.   1797.   1741.   1716.   1675.   1662.   1589.   1504.   1522.
  1503.   1451.   1487.   1425.   1451.   1402.   1416.   1467.   1458.   1502.
  1436.   1421.   1494.   1489.   1572.   1523.   1660.   1690.   1657.   1761.
  1883.   1860.   1842.   1807.   1769.   1852.   1751.   1709.   1682.   1696.
  1628.   1531.   1490.   1459.   1434.   1386.   1309.   1358.   1412.   1323.
  1266.   1362.   1350.   1385.   1307.   1291.   1305.   1317.   1377.   1370.
  1314.   1413.   1385.   1418.   1384.   1543.   1498.   1501.   1586.   1659.
  1714.   1818.   1794.   1847.   1907.   1873.   1867.   1849.   1782.   1768.
  1677.   1690.   1685.   1595.   1551.   1458.   1488.   1396.   1393.   1341.
  1410.   1343.   1314.   1374.   1364.   1399.   1313.   1409.   1399.   1456.
  1443.   1477.   1454.   1511.   1612.   1565.   1631.   1682.   1559.   1651.
  1678.   1726.   1653.   1745.   1832.   1947.   1928.   2105.   2095.   2260.
  2323.   2294.   2207.   2200.   2071.   2004.   2000.   1931.   1911.   1777.
  1706.   1609.   1563.   1494.   1435.   1473.   1457.   1541.   1473.   1471.
  1516.   1527.   1540.   1590.   1568.   1724.   1636.   1790.   1804.   1968.
  1985.   1986.   1979.   1971.   2094.   2053.   2150.   2168.   2273.   2315.
  2530.   2703.   2886.   3034.   3144.   3106.   3119.   3021.   2977.   3073.
  2998.   3117.   3020.   3045.   3137.   2990.   2834.   2723.   2648.   2568.
  2383.   2338.   2371.   2192.   2098.   2045.   1957.   1939.   1888.   1871.
  1832.   1969.   2001.   2058.   2020.   2010.   1966.   1953.   1849.   1835.
  1836.   1665.   1750.   1604.   1533.   1457.   1508.   1436.   1475.   1363.
  1320.   1324.   1298.   1330.   1245.   1308.   1304.   1328.   1297.   1228.
  1268.   1382.   1288.   1287.   1312.   1296.   1321.   1258.   1294.   1277.
  1250.   1280.   1279.   1270.   1367.   1409.   1400.   1383.   1397.   1305.
  1303.   1368.   1341.   1396.   1373.   1298.   1321.   1304.   1311.   1267.
  1254.   1260.   1278.   1278.   1352.   1294.   1312.   1313.   1287.   1322.
  1326.   1339.   1358.   1359.   1314.   1342.   1378.   1339.   1398.   1326.
  1364.   1384.   1331.   1458.   1490.   1500.   1543.   1644.   1670.   1703.
  1755.   1803.   1843.   1791.   1729.   1739.   1745.   1790.   1739.   1844.
  1740.   1737.   1743.   1773.   1781.   1769.   1795.   1710.   1683.   1714.
  1652.   1710.   1640.   1651.   1642.   1592.   1593.   1597.   1525.   1527.
  1557.   1512.   1451.   1439.   1470.   1378.   1493.   1481.   1476.   1428.
  1486.   1517.   1545.   1556.   1457.   1432.   1445.   1546.   1594.   1540.
  1667.   1679.   1746.   1801.   2012.   1969.   2009.   2012.   1885.   1968.
  1893.   1809.   1773.   1791.   1750.   1744.   1673.   1607.   1554.   1544.
  1582.   1482.   1503.   1419.   1466.   1434.   1413.   1480.   1412.   1381.
  1442.   1324.   1463.   1407.   1400.   1459.   1496.   1545.   1609.   1568.
  1556.   1597.   1701.   1729.   1800.   1924.   2052.   2163.   2264.   2465.
  2471.   2515.   2587.   2416.   2411.   2425.   2316.   2255.   2173.   2193.
  2151.   1962.   1875.   1757.   1838.   1734.   1629.   1614.   1560.   1490.
  1507.   1557.   1417.   1461.   1438.   1430.   1467.   1508.   1483.   1587.
  1606.   1529.   1535.   1617.   1604.   1595.   1513.   1516.   1563.   1548.
  1579.   1538.   1480.   1457.   1570.   1480.   1484.   1541.   1591.   1500.
  1579.   1503.   1515.   1565.   1608.   1651.   1682.   1702.   1770.   1735.
  1676.   1832.   1833.   1713.   1780.   1708.   1658.   1712.   1692.   1635.
  1644.   1674.   1704.   1684.   1688.   1749.   1772.   1867.   1821.   1810.
  1823.   1727.   1770.   1707.   1769.   1784.   1838.   1753.   1898.   1915.
  1832.   1856.   1863.   1915.   1844.   1880.   2001.   2005.   2040.   2157.
  2219.   2370.   2322.   2560.   2533.   2448.   2583.   2539.   2439.   2447.
  2346.   2284.   2197.   2170.   2142.   1950.   2009.   1821.   1734.   1682.
  1628.   1564.   1545.   1552.   1522.   1537.   1546.   1501.   1488.   1495.
  1516.   1522.   1526.   1498.   1579.   1589.   1647.   1619.   1571.   1639.
  1632.   1636.   1577.   1578.   1504.   1566.   1587.   1562.   1537.   1578.
  1480.   1534.   1478.   1466.   1498.   1387.   1473.   1413.   1409.   1477.
  1494.   1497.   1472.   1403.   1470.   1502.   1479.   1551.   1512.   1623.
  1632.   1706.   1719.   1748.   1857.   1946.   2142.   2150.   2307.   2335.
  2385.   2493.   2410.   2523.   2476.   2417.   2312.   2288.   2209.   2294.
  2246.   2123.   2140.   2098.   2020.   2040.   1951.   1894.   1854.   1819.
  1784.   1769.   1760.   1895.   1936.   1894.   1977.   2026.   2150.   2358.
  2442.   2570.   2612.   2714.   2623.   2593.   2508.   2319.   2324.   2274.
  2213.   2282.   2163.   2116.   2120.   1971.   1923.   1806.   1716.   1719.
  1697.   1605.   1614.   1623.   1577.   1590.   1592.   1653.   1617.   1549.
  1624.   1580.   1543.   1529.   1541.   1600.   1490.   1556.   1526.   1518.
  1634.   1586.   1547.   1607.   1629.   1693.   1659.   1625.   1618.   1717.
  1579.   1625.   1539.   1595.   1596.   1581.   1587.   1499.   1442.   1497.
  1511.   1521.   1467.   1407.   1431.   1427.   1454.   1369.   1408.   1364.
  1343.   1430.   1422.   1406.   1319.   1338.   1370.   1474.   1394.   1376.
  1434.   1388.   1402.   1384.   1389.   1358.   1405.   1435.   1486.   1449.
  1450.   1575.   1559.   1584.   1636.   1596.   1561.   1599.   1659.   1605.
  1520.   1595.   1631.   1600.   1640.   1741.   1669.   1653.   1649.   1722.
  1709.   1693.   1732.   1603.   1635.   1577.   1551.   1622.   1551.   1602.
  1627.   1573.   1623.   1649.   1525.   1565.   1553.   1495.   1511.   1560.
  1500.   1535.   1535.   1493.   1517.   1561.   1637.   1608.   1598.   1628.
  1708.   1759.   1686.   1651.   1704.   1779.   1876.   1802.   1797.   1902.
  1944.   1989.   2042.   1999.   2057.   2033.   2038.   2007.   2038.   1970.
  2059.   2016.   2071.   2221.   2168.   2339.   2278.   2337.   2333.   2310.
  2317.   2102.   2172.   1989.   2025.   1956.   1842.   2038.   1935.   1906.
  1957.   1820.   1814.   1639.   1749.   1628.   1532.   1594.   1621.   1475.
  1543.   1503.   1488.   1546.   1463.   1464.   1489.   1482.   1406.   1437.
  1440.   1434.   1529.   1496.   1423.   1516.   1477.   1524.   1458.   1516.
  1516.   1532.   1537.   1495.   1556.   1558.   1632.   1553.   1548.   1483.
  1508.   1468.   1450.   1430.   1444.   1407.   1446.   1392.   1440.   1472.
  1404.   1467.   1418.   1419.   1405.   1451.   1471.   1429.   1414.   1468.
  1376.   1439.   1371.   1352.   1438.   1464.   1432.   1462.   1489.   1562.
  1532.   1492.   1506.   1584.   1507.   1468.   1468.   1492.   1427.   1444.
  1404.   1372.   1410.   1367.   1390.   1355.   1363.   1376.   1364.   1331.
  1298.   1352.   1309.   1408.   1251.   1288.   1302.   1363.   1286.   1302.
  1320.   1325.   1329.   1323.   1398.   1340.   1443.   1413.   1421.   1435.
  1583.   1513.   1556.   1581.   1595.   1655.   1763.   1694.   1828.   1801.
  1730.   1743.   1712.   1648.   1758.   1705.   1708.   1737.   1717.   1794.
  1739.   1795.   1827.   1819.   1857.   1721.   1823.   1778.   1761.   1796.
  1714.   1711.   1758.   1725.   1618.   1605.   1601.   1639.   1534.   1552.
  1539.   1528.   1520.   1538.   1457.   1426.   1336.   1428.   1421.   1432.
  1408.   1468.   1428.   1570.   1480.   1596.   1502.   1572.   1581.   1565.
  1561.   1590.   1625.   1627.   1558.   1601.   1544.   1635.   1628.   1550.
  1512.   1511.   1502.   1581.   1561.   1587.   1483.   1509.   1439.   1474.
  1435.   1396.   1390.   1401.   1416.   1356.   1389.   1383.   1392.   1400.
  1455.   1389.   1352.   1323.   1392.   1333.   1309.   1338.   1398.   1281.
  1352.   1298.   1331.   1342.   1337.   1346.   1303.   1354.   1343.   1309.
  1344.   1328.   1359.   1358.   1349.   1380.   1392.   1380.   1380.   1344.
  1375.   1374.   1342.   1343.   1362.   1406.   1416.   1378.   1348.   1384.
  1344.   1356.   1427.   1366.   1369.   1340.   1379.   1397.   1516.   1445.
  1445.   1429.   1442.   1505.   1413.   1495.   1565.   1557.   1572.   1572.
  1565.   1568.   1692.   1673.   1757.   1771.   1837.   1879.   1826.   2009.
  1965.   1925.   1953.   1921.   1955.   1859.   2029.   1961.   1788.   1850.
  1900.   1867.   1853.   1930.   1834.   1859.   1939.   1912.   1812.   1841.
  1748.   1778.   1750.   1680.   1714.   1659.   1702.   1623.   1599.   1592.
  1624.   1647.   1659.   1659.   1722.   1679.   1711.   1661.   1624.   1666.
  1610.   1632.   1673.   1656.   1737.   1688.   1614.   1774.   1798.   1771.
  1882.   1859.   1946.   1831.   1923.   1856.   1804.   1839.   1781.   1814.
  1819.   1811.   1846.   1822.   1765.   1820.   1862.   1861.   1741.   1850.
  1738.   1799.   1798.   1751.   1798.   1714.   1655.   1691.   1622.   1643.
  1597.   1575.   1615.   1601.   1616.   1555.   1541.   1600.   1534.   1526.
  1497.   1553.   1544.   1519.   1504.   1493.   1504.   1584.   1586.   1516.
  1543.   1529.   1573.   1585.   1597.   1621.   1634.   1694.   1572.   1670.
  1603.   1560.   1561.   1557.   1591.   1539.   1490.   1516.   1442.   1481.
  1441.   1409.   1448.   1417.   1458.   1421.   1408.   1435.   1401.   1355.
  1413.   1322.   1397.   1405.   1377.   1399.   1397.   1382.   1349.   1381.
  1354.   1408.   1329.   1405.   1437.   1311.   1483.   1453.   1420.   1499.
  1446.   1482.   1547.   1636.   1576.   1597.   1653.   1624.   1751.   1774.
  1764.   1824.   1812.   1839.   1897.   1753.      0.      0.      0.      0.


;
_cod_data_source_file            Ni12HPO46PO42OH6.cif
_cod_data_source_block           Ni12(HPO4)6(PO4)2(OH)6
_cod_depositor_comments
;
The following automatic conversions were performed:

'_symmetry_cell_setting' value 'Hexagonal' changed to 'hexagonal'
according to the built-in table from CIF Core dictionary named
'cif_core.dic' version 2.4.1 from 2010-06-29.

Automatic conversion script
Id: cif_fix_values 4624 2016-04-14 12:54:50Z antanas 

 Corrected occupancy number of atom Ni2
;
_cod_original_cell_volume        664.75(6)
_cod_database_code               3500056
_pd_proc_ls_prof_cr_factor       7.6974
_pd_proc_ls_prof_cwr_factor      9.0574
_pd_proc_ls_prof_cwr_expected    3.1074
_pd_proc_ls_prof_chi2            8.4961
_pd_proc_ls_prof_echi2           8.4961
loop_
_publ_manuscript_incl_extra_item
_publ_manuscript_incl_extra_info
_publ_manuscript_incl_extra_defn
'_pd_proc_ls_prof_cR_factor' 'Prof. R-factor CORRECTED for background' no
'_pd_proc_ls_prof_cwR_factor' 'wProf.R-factor CORRECTED for background' no
'_pd_proc_ls_prof_cwR_expected' 'wProf.Expected CORRECTED for background' no
'_pd_proc_ls_prof_chi2' 'Chi-square for all considered points' no
'_pd_proc_ls_prof_echi2' 'Chi-2 for points with Bragg contribution' no
loop_
_symmetry_equiv_pos_as_xyz
x,y,z
x-y,x,z+1/2
-y,x-y,z
-x,-y,z+1/2
-x+y,-x,z
y,-x+y,z+1/2
-y,-x,z
-x,-x+y,z+1/2
-x+y,y,z
y,x,z+1/2
x,x-y,z
x-y,-y,z+1/2
loop_
_atom_site_label
_atom_site_type_symbol
_atom_site_thermal_displace_type
_atom_site_fract_x
_atom_site_fract_y
_atom_site_fract_z
_atom_site_occupancy
_atom_site_U_iso_or_equiv
_atom_site_calc_flag
_atom_site_refinement_flags
_atom_site_disorder_assembly
_atom_site_disorder_group
Ni1 Ni Uiso 0.42670(10) 0.34997(12) 0.00000 0.939(1) 0.0062(5) . . . .
P1 P Uiso 0.15296(15) 0.84704(15) 0.9864(16) 1.0 0.0190(10) . . . .
P2 P Uiso 0.66667 0.33333 0.7822(12) 1.0 0.0190(10) . . . .
Ni2 Ni Uiso 0.00000 0.00000 0.1791(19) 0.366(1) 0.0062(5) . . . .
O1 O Uiso 0.3423(4) 0.0727(5) 0.6421(9) 1.0 0.0142(10) . . . .
O2 O Uiso 0.1886(3) 0.8114(3) 0.7097(15) 1.0 0.0142(10) . . . .
O3 O Uiso 0.4018(3) 0.5982(3) 0.3870(18) 1.0 0.0142(10) . . . .
O4 O Uiso 0.4724(4) 0.5276(4) 0.8195(14) 1.0 0.0142(10) . . . .
O5 O Uiso 0.0824(3) -0.0824(3) 0.9154(19) 1.0 0.0142(10) . . . .
O6 O Uiso 0.66667 0.33333 0.455(3) 1.0 0.0142(10) . . . .
loop_
_atom_type_symbol
_atom_type_scat_Cromer_Mann_a1
_atom_type_scat_Cromer_Mann_b1
_atom_type_scat_Cromer_Mann_a2
_atom_type_scat_Cromer_Mann_b2
_atom_type_scat_Cromer_Mann_a3
_atom_type_scat_Cromer_Mann_b3
_atom_type_scat_Cromer_Mann_a4
_atom_type_scat_Cromer_Mann_b4
_atom_type_scat_Cromer_Mann_c
_atom_type_scat_dispersion_real
_atom_type_scat_dispersion_imag
_atom_type_scat_source
ni 12.83760 3.87850 7.29200 0.25650 4.44380 12.17630 2.38000 66.34210 1.03410
-2.95600 0.50900
International_Tables_for_Crystallography_Vol.C(1991)_Tables_6.1.1.4_and_6.1.1.5
p 6.43450 1.90670 4.17910 27.15700 1.78000 0.52600 1.49080 68.16450 1.11490
0.28300 0.43400
International_Tables_for_Crystallography_Vol.C(1991)_Tables_6.1.1.4_and_6.1.1.5
o 3.04850 13.27710 2.28680 5.70110 1.54630 0.32390 0.86700 32.90890 0.25080
0.04700 0.03200
International_Tables_for_Crystallography_Vol.C(1991)_Tables_6.1.1.4_and_6.1.1.5
loop_
_geom_angle_atom_site_label_1
_geom_angle_atom_site_label_2
_geom_angle_atom_site_label_3
_geom_angle
_geom_angle_site_symmetry_1
_geom_angle_site_symmetry_2
_geom_angle_site_symmetry_3
_geom_angle_publ_flag
O1 Ni1 O4 86.9(2) 2_554 . 1_554 yes
O2 Ni1 O4 173.4(3) 2_654 . 1_554 yes
O3 Ni1 O4 82.1(2) 4_664 . 1_554 yes
O4 Ni1 O4 79.4(2) 1_554 . 4_664 yes
O1 Ni1 O2 88.2(2) 2_554 . 2_654 yes
O1 Ni1 O3 165.59(18) 2_554 . 4_664 yes
O1 Ni1 O4 89.2(2) 2_554 . 4_664 yes
O2 Ni1 O3 102.0(2) 2_654 . 4_664 yes
O2 Ni1 O4 96.1(2) 2_654 . 4_664 yes
O3 Ni1 O4 79.7(3) 4_664 . 4_664 yes
O5 Ni2 O5 92.7(4) 2_554 . 4_554 yes
O5 Ni2 O5 177.1(5) 2_554 . 5_554 yes
O5 Ni2 O5 92.7(4) 2_554 . 6_554 yes
O5 Ni2 O5 89.3(2) 3_554 . 4_554 yes
O5 Ni2 O5 88.6(4) 3_554 . 5_554 yes
O5 Ni2 O5 177.1(5) 3_554 . 6_554 yes
O5 Ni2 O5 89.3(2) 4_554 . 5_554 yes
O5 Ni2 O5 92.7(4) 4_554 . 6_554 yes
O5 Ni2 O5 89.3(2) 5_554 . 6_554 yes
O5 Ni2 O5 89.3(2) 1_554 . 2_554 yes
O5 Ni2 O5 88.6(4) 1_554 . 3_554 yes
O5 Ni2 O5 177.1(5) 1_554 . 4_554 yes
O5 Ni2 O5 88.6(4) 1_554 . 5_554 yes
O5 Ni2 O5 89.3(2) 1_554 . 6_554 yes
O5 Ni2 O5 89.3(2) 2_554 . 3_554 yes
O2 P1 O5 106.3(6) . . 1_565 yes
O1 P1 O2 108.7(3) 6_565 . . yes
O1 P1 O5 111.7(4) 6_565 . 1_565 yes
O3 P2 O6 109.4(4) 2_655 . . yes
O3 P2 O6 109.4(4) 4_665 . . yes
O3 P2 O6 109.4(4) 6_555 . . yes
O3 P2 O3 109.6(3) 2_655 . 4_665 yes
O3 P2 O3 109.6(3) 2_655 . 6_555 yes
O3 P2 O3 109.6(3) 4_665 . 6_555 yes
Ni1 O1 P1 126.8(4) 6_555 . 2_654 yes
Ni1 O2 P1 124.4(2) 6_565 . . yes
Ni1 O3 P2 135.2(2) 4_665 . 2_554 yes
Ni1 O3 P2 135.2(2) 7_555 . 2_554 yes
Ni1 O3 Ni1 89.4(2) 4_665 . 7_555 yes
Ni1 O4 Ni1 142.7(3) 1_556 . 4_665 yes
Ni1 O4 Ni1 87.63(17) 1_556 . 7_555 yes
Ni1 O4 Ni1 82.1(2) 4_665 . 7_555 yes
Ni2 O5 P1 130.7(6) 1_556 . 1_545 yes
Ni2 O5 P1 159.7(7) 2_555 . 1_545 yes
Ni2 O5 Ni2 69.6(3) 1_556 . 2_555 yes
loop_
_geom_bond_atom_site_label_1
_geom_bond_atom_site_label_2
_geom_bond_distance
_geom_bond_site_symmetry_1
_geom_bond_site_symmetry_2
_geom_bond_publ_flag
Ni1 O4 2.181(5) . 1_554 yes
Ni1 O1 2.036(8) . 2_554 yes
Ni1 O2 2.063(5) . 2_654 yes
Ni1 O3 1.978(5) . 4_664 yes
Ni1 O4 2.118(6) . 4_664 yes
Ni2 O5 2.205(8) . 1_554 yes
Ni2 O5 2.128(8) . 2_554 yes
Ni2 O5 2.205(9) . 3_554 yes
Ni2 O5 2.128(8) . 4_554 yes
Ni2 O5 2.205(9) . 5_554 yes
Ni2 O5 2.128(8) . 6_554 yes
P1 O1 1.500(7) . 6_565 yes
P1 O2 1.570(10) . . yes
P1 O5 1.562(5) . 1_565 yes
P2 O3 1.565(5) . 6_555 yes
P2 O6 1.619(16) . . yes
P2 O3 1.565(6) . 2_655 yes
P2 O3 1.565(5) . 4_665 yes
