#------------------------------------------------------------------------------
#$Date: 2023-12-08 16:16:31 +0200 (Fri, 08 Dec 2023) $
#$Revision: 288183 $
#$URL: file:///home/coder/svn-repositories/cod/cif/3/50/00/3500059.cif $
#------------------------------------------------------------------------------
#
# This file is available in the Crystallography Open Database (COD),
# http://www.crystallography.net/
#
# All data on this site have been placed in the public domain by the
# contributors.
#
data_3500059
loop_
_publ_author_name
'Yvon Laligant'
'Armel Le Bail'
_publ_section_title
;
 Approaching the crystal structure of N-PdSO4 in the monoclinic subcell
 a/2, b/2, c/2 (see J. Alloys and Compounds 216, 1994, 11-19)
;
_journal_name_full               'Personal communication to COD'
_journal_year                    2016
_chemical_compound_source
;
Synthesis as in J. Alloys and Compounds 216 (1994) 11-19
;
_chemical_formula_sum            'O4 Pd S'
_chemical_formula_weight         202.483
_chemical_name_common            N-PdSO4
_space_group_IT_number           12
_symmetry_cell_setting           monoclinic
_symmetry_Int_Tables_number      12
_symmetry_space_group_name_Hall  '-I 2y'
_symmetry_space_group_name_H-M   'I 1 2/m 1'
_atom_sites_solution_hydrogens   geom
_atom_sites_solution_primary     direct
_atom_sites_solution_secondary   difmap
_cell_angle_alpha                90.00
_cell_angle_beta                 92.8096(10)
_cell_angle_gamma                90.00
_cell_formula_units_Z            2
_cell_length_a                   4.9466(10)
_cell_length_b                   4.9481(10)
_cell_length_c                   6.1943(10)
_cell_measurement_temperature    293(2)
_cell_volume                     151.43(5)
_computing_structure_refinement  'SHELXL-97 (Sheldrick, 1997)'
_computing_structure_solution    'SHELXS-97 (Sheldrick, 1990)'
_diffrn_ambient_temperature      293(2)
_diffrn_measured_fraction_theta_full 0.975
_diffrn_measured_fraction_theta_max 0.975
_diffrn_radiation_monochromator  graphite
_diffrn_radiation_source         'fine-focus sealed tube'
_diffrn_radiation_type           MoK\a
_diffrn_radiation_wavelength     0.71069
_diffrn_reflns_av_R_equivalents  0.0000
_diffrn_reflns_av_sigmaI/netI    0.0379
_diffrn_reflns_limit_h_max       6
_diffrn_reflns_limit_h_min       -6
_diffrn_reflns_limit_k_max       6
_diffrn_reflns_limit_k_min       0
_diffrn_reflns_limit_l_max       8
_diffrn_reflns_limit_l_min       0
_diffrn_reflns_number            238
_diffrn_reflns_theta_full        29.92
_diffrn_reflns_theta_max         29.92
_diffrn_reflns_theta_min         5.15
_exptl_special_details
; 
High disorder.
Two SO4 tetrahedra constrained by SADI using SHELX,
leading to S exploding in 4 neoghbouring positions.
But what are these Q1, Q2 and Q3 thet make R decreasing
by 3 % ???! 
;
_geom_special_details
; 
 All esds (except the esd in the dihedral angle between two l.s. planes) 
 are estimated using the full covariance matrix.  The cell esds are taken 
 into account individually in the estimation of esds in distances, angles 
 and torsion angles; correlations between esds in cell parameters are only 
 used when they are defined by crystal symmetry.  An approximate (isotropic) 
 treatment of cell esds is used for estimating esds involving l.s. planes. 
;
_refine_diff_density_max         4.954
_refine_diff_density_min         -8.047
_refine_diff_density_rms         1.564
_refine_ls_extinction_method     none
_refine_ls_goodness_of_fit_ref   1.273
_refine_ls_hydrogen_treatment    mixed
_refine_ls_matrix_type           full
_refine_ls_number_parameters     40
_refine_ls_number_reflns         238
_refine_ls_number_restraints     94
_refine_ls_restrained_S_all      1.120
_refine_ls_R_factor_all          0.0739
_refine_ls_R_factor_gt           0.0665
_refine_ls_shift/su_mean         0.009
_refine_ls_structure_factor_coef Fsqd
_refine_ls_weighting_details
'calc w=1/[\s^2^(Fo^2^)+(0.1475P)^2^+5.8642P] where P=(Fo^2^+2Fc^2^)/3'
_refine_ls_weighting_scheme      calc
_refine_ls_wR_factor_gt          0.1696
_refine_ls_wR_factor_ref         0.1891
_refine_special_details
; 
 Refinement of F^2^ against ALL reflections.  The weighted R-factor wR and 
 goodness of fit S are based on F^2^, conventional R-factors R are based 
 on F, with F set to zero for negative F^2^. The threshold expression of 
 F^2^ > 2sigma(F^2^) is used only for calculating R-factors(gt) etc. and is 
 not relevant to the choice of reflections for refinement.  R-factors based 
 on F^2^ are statistically about twice as large as those based on F, and R- 
 factors based on ALL data will be even larger. 
;
_reflns_number_gt                233
_reflns_number_total             238
_reflns_threshold_expression     >2sigma(I)
_iucr_refine_instructions_details
;

SHELX .ins file

TITL  PdSO4 monocristal   I 2/m
CELL   0.71069   4.9466   4.9481   6.1943  90.0000  92.8096  90.0000
ZERR 1 0.001 0.001 0.001 0.0 0.001 0.0
LATT  2
SYMM -X,+Y,-Z
SFAC Pd S  O
UNIT  1  2  8
ACTA
L.S. 8
BOND
FMAP 2
PLAN 20
WGHT    0.147500    5.864200
FVAR       0.77696   0.50813   0.01962   0.02668
PD    1    0.000000    0.000000    0.000000    10.50000    0.01941    0.01442 =
         0.01456    0.00000   -0.00014    0.00000
PART 1
S1A   2    0.872552    0.000000    0.497620    20.50000   31.00000
O1A   3    0.597334    0.111344    0.502005    20.50000   41.00000
O2A   3    1.026491    0.077854    0.694951    20.50000   41.00000
O3A   3    0.856314   -0.294316    0.480194    20.50000   41.00000
O4A   3    1.004573    0.108979    0.309379    20.50000   41.00000
PART 2
S1B   2    0.000000    0.126726    0.500000   -20.50000   31.00000
O1B   3   -0.085710    0.414381    0.497235   -20.50000   41.00000
O2B   3    0.295831    0.117626    0.513623   -20.50000   41.00000
O3B   3   -0.106837    0.000000    0.691040   -20.50000   41.00000
O4B   3   -0.106201    0.000000    0.302447   -20.50000   41.00000
PART 0
Q1    3   -0.144624   10.500000    0.498173    10.50000    0.00275
Q2    3   10.000000   10.500000   10.500000    10.25000    0.00001
Q3    3   -0.289256   10.500000    0.491316    10.50000    0.00666
SADI  S1a O1a S1a O2a S1a O3a S1a O4a S1b O1b S1b O2b =
      S1B O3B S1B O4B
SADI O1a O2a O1a O3a O1a O4a O2a O3a O2a O4a O3a O4a =
      O1B O2B O1B O3B O1B O4B O2B O3B O2B O4B O3B O4B
HKLF 3
 
REM   PdSO4 monocristal   I 2/m
REM R1 =  0.0665 for    233 Fo > 4sig(Fo)  and  0.0739 for all    238 data
REM     40 parameters refined using     94 restraints
 
END  
     
WGHT      0.1527      0.0000 
REM Highest difference peak  4.954,  deepest hole -8.047,  1-sigma level  1.564
Q1    1  -0.3780  0.6378  0.4639  11.00000  0.05    4.77
Q2    1   0.8317 -0.1742  0.5247  11.00000  0.05    3.16
Q3    1   1.1583  0.1814  0.1607  11.00000  0.05    3.14
Q4    1   0.5879  0.0000  0.3493  10.50000  0.05    2.97
Q5    1   0.8321  0.0000  0.5546  10.50000  0.05    2.84
Q6    1   1.1081  0.1089  0.2926  11.00000  0.05    2.74
Q7    1   0.5511  0.1854  0.3781  11.00000  0.05    2.65
Q8    1   0.3422  0.1592  0.6214  11.00000  0.05    2.47
Q9    1   1.2193  0.2401  0.3245  11.00000  0.05    2.35
Q10   1  -0.2078 -0.1279  0.2247  11.00000  0.05    2.20
Q11   1   0.6590  0.1468  0.5587  11.00000  0.05    2.14
Q12   1  -0.1296  0.4102  0.6384  11.00000  0.05    2.12
Q13   1  -0.1440  0.5000  0.3255  10.50000  0.05    2.01
Q14   1   0.8517  0.2972  0.2581  11.00000  0.05    1.93
Q15   1   0.9524 -0.2713  0.5941  11.00000  0.05    1.87
Q16   1  -0.0488  0.4581  0.3390  11.00000  0.05    1.72
Q17   1   0.5000  0.0868  0.5000  10.50000  0.05    1.66
Q18   1  -0.2797 -0.0434  0.7321  11.00000  0.05    1.30
Q19   1  -0.3037  0.5000  0.5854  10.50000  0.05    1.17
Q20   1   0.0374  0.1005  0.0672  11.00000  0.05    1.09

hkl file with 00l removed (placed at the end)


  -1   0   1   61.55   0.780   2
   0   1   1   95.94   0.600   2
   1   0   1   66.94   0.740   2
   1   1   0  151.20   0.570   2
   0   2   0  139.20   0.970   2
   2   0   0  121.92   0.660   2
  -1   1   2   95.80   0.730   2
   1   1   2   91.41   0.750   2
  -2   1   1   72.57   0.850   2
  -1   2   1   70.84   0.890   2
   1   2   1   71.63   0.840   2
   2   1   1   74.49   0.840   2
  -2   0   2   87.21   0.810   2
  -1   0   3   72.21   1.090   2
   0   2   2  130.56   0.710   2
   0   1   3  123.37   0.810   2
   2   0   2   83.63   0.820   2
   1   0   3   93.04   0.790   2
   2   2   0   96.13   0.840   2
  -3   0   1   70.05   0.980   2
   0   3   1   99.90   0.860   2
   3   0   1   70.89   0.950   2
   1   3   0   72.88   1.180   2
   3   1   0   83.14   0.910   2
  -2   2   2   78.90   0.940   2
  -2   1   3   77.62   0.980   2
  -1   2   3   78.65   0.980   2
   2   2   2   67.97   1.070   2
   1   2   3   73.93   1.460   1
   2   1   3   76.69   0.970   2
  -1   1   4   84.81   0.960   2
  -3   1   2   72.35   1.020   2
  -1   3   2   71.20   1.020   2
   1   1   4  110.18   0.970   2
   1   3   2   71.38   1.030   2
   3   1   2   70.98   1.030   2
  -3   2   1   68.59   1.080   2
  -2   3   1   67.09   0.970   2
  -2   0   4   75.14   1.050   2
   2   3   1   69.79   1.110   2
   3   2   1   69.65   1.060   2
  -3   0   3   70.56   1.080   2
   0   2   4  111.96   0.930   2
   0   3   3   94.55   0.950   2
   2   0   4   75.00   1.050   2
   3   0   3   62.83   0.840   2
   0   4   0   61.89   1.100   2
   4   0   0   55.09   1.250   1
  -1   0   5   16.25   6.410  -1
   0   1   5   52.30   0.910   2
   1   0   5   42.64   0.770   2
  -4   1   1   60.23   0.850   2
  -1   4   1   56.57   0.950   2
  -2   2   4   63.76   0.890   2
   1   4   1   53.15   0.960   2
  -4   0   2   52.80   0.990   2
   4   1   1   60.54   0.910   2
   3   3   0   41.77   0.750   2
  -3   2   3   59.08   0.970   2
  -2   3   3   59.34   0.980   2
   0   4   2   77.16   1.100   2
   2   2   4   61.87   1.030   2
   2   3   3   57.72   0.990   2
   4   0   2   47.57   1.300   1
  -3   1   4   58.67   0.930   2
   3   2   3   62.34   0.890   2
  -1   3   4   58.26   0.960   2
   2   4   0   37.70   1.040   2
   4   2   0   46.18   0.790   2
  -3   3   2   43.82   0.770   2
  -2   1   5   40.74   0.890   2
   1   3   4   51.33   0.950   2
  -1   2   5   41.60   0.960   2
   3   3   2   40.00   0.870   2
   3   1   4   59.98   0.920   2
   1   2   5   21.00   6.220  -1
   2   1   5   44.84   0.790   2
  -4   1   3   52.65   0.900   2
  -4   2   2   46.81   0.810   2
  -2   4   2   45.97   0.780   2
  -1   4   3   50.85   0.880   2
   2   4   2   43.49   0.840   2
   1   4   3   48.52   0.760   2
   4   2   2   45.90   0.810   2
   4   1   3   51.34   0.830   2
  -3   0   5   47.60   0.790   2
  -1   1   6   22.39   7.600  -1
   0   3   5   66.94   0.970   2
  -4   0   4   45.74   0.850   2
  -5   0   1   50.03   0.910   2
  -4   3   1   64.41   1.010   2
  -3   4   1   64.24   1.020   2
   1   1   6   65.55   1.230   2
   0   5   1   68.28   1.060   2
   3   4   1   66.07   0.910   2
   1   5   0   40.67   0.980   2
   4   3   1   63.63   0.950   2
   5   1   0   47.97   1.180   1
  -2   0   6   59.58   1.060   2
   5   0   1   50.64   1.300   1
   0   4   4   62.62   0.960   2
   3   0   5   43.56   0.770   2
   0   2   6   80.24   1.150   2
  -3   3   4   39.02   0.880   2
   4   0   4   44.00   1.110   1
  -3   2   5   47.93   0.940   2
  -5   1   2   51.20   0.920   2
   2   0   6   57.28   0.980   2
  -2   3   5   48.01   0.880   2
  -1   5   2   45.82   0.930   2
   1   5   2   46.63   0.920   2
  -4   2   4   39.74   0.900   2
   3   3   4   28.51   1.640   2
  -5   2   1   48.79   0.950   2
   5   1   2   45.05   1.370   1
  -2   5   1   49.54   0.880   2
  -2   4   4   36.02   1.010   2
  -5   0   3   42.74   0.850   2
   2   3   5   51.27   0.920   2
   2   5   1   43.25   1.010   2
  -4   3   3   53.31   0.880   2
  -3   4   3   52.10   0.910   2
  -2   2   6   49.42   0.890   2
   5   2   1   49.37   1.060   1
   3   2   5   49.81   0.890   2
   0   5   3   59.81   1.000   2
   2   4   4   36.44   1.030   2
   3   4   3   50.92   0.900   2
  -4   1   5   41.66   0.910   2
   4   2   4   37.44   1.020   2
  -3   1   6   46.61   0.820   2
   4   3   3   54.61   0.910   2
   2   2   6   48.38   0.870   2
   5   0   3   41.45   1.310   1
   4   4   0   28.52   1.370   2
   0   1   7   49.80   0.840   2
  -1   3   6   29.47   2.060   2
  -1   4   5   42.75   0.910   2
   1   0   7   41.17   1.030   2
   1   4   5   35.04   1.230   2
   1   3   6   21.61   6.690  -1
  -5   2   3   43.19   0.920   2
  -4   4   2   34.97   1.140   2
   3   5   0   26.47   1.960   2
   5   3   0   30.54   1.860   1
  -2   5   3   41.40   0.970   2
   3   1   6   43.22   0.940   2
   4   1   5   41.72   0.980   2
  -5   1   4   42.48   0.960   2
   2   5   3   41.58   0.990   2
   4   4   2   35.57   1.160   2
  -2   1   7   34.40   1.200   2
  -1   2   7   15.30   9.180  -1
  -1   5   4   38.26   1.090   2
  -5   3   2   33.23   1.250   2
   0   6   0   53.98   0.930   2
   5   2   3   42.42   1.390   1
  -3   5   2   30.65   1.370   2
   6   0   0   46.01   1.290   1
   1   5   4   41.09   1.030   2
   3   5   2   24.16   3.560   2
  -4   0   6   38.26   1.120   2
  -6   1   1   32.63   1.310   2
   5   3   2   34.89   1.740   1
   2   1   7   35.17   1.230   2
  -1   6   1   31.86   1.720   2
   1   6   1   34.49   1.270   2
  -6   0   2   46.27   0.930   2
   5   1   4   39.66   1.550   1
   6   1   1   35.18   1.760   1
   0   6   2   61.83   1.060   2
  -3   0   7   32.76   1.350   2
   0   4   6   48.54   0.920   2
  -5   0   5   37.47   1.180   2
  -4   3   5   48.82   1.000   2
   6   0   2   42.18   1.510   1
  -3   3   6   31.58   1.260   2
  -3   4   5   48.45   0.930   2
   2   6   0   28.15   1.610   2
   6   2   0   35.09   1.830   1
   0   3   7   53.24   1.030   2
   0   5   5   55.69   0.960   2
   4   0   6   32.66   1.590   1
  -4   4   4   26.71   1.790   2
  -4   2   6   31.41   1.530   2
  -5   4   1   46.70   0.990   2
  -4   5   1   46.49   1.000   2
  -6   1   3   33.53   1.220   2
  -6   2   2   37.50   1.240   2
   4   5   1   45.75   1.030   2
   3   0   7   30.60   1.360   2
  -2   4   6   25.64   1.950   2
   5   4   1   44.34   1.500   1
   3   4   5   46.51   1.020   2
  -2   6   2   31.57   1.320   2
  -1   1   8   26.43   5.590  -1
   3   3   6   27.13   1.800   2
  -1   6   3   22.90   2.560   2
   4   3   5   48.98   0.970   2
  -3   2   7   34.91   1.360   2
  -5   3   4   23.38   2.100   2
   2   6   2   30.79   2.000   2
   1   6   3   27.09   1.810   2
   5   0   5   32.44   1.660   1
  -5   2   5   39.81   1.200   2
  -2   3   7   37.35   1.280   2
  -3   5   4   27.18   1.850   2
   4   4   4   22.54   3.630   2
   1   1   8   22.36   3.250   2
   6   2   2   32.20   1.700   1
  -2   0   8   32.41   1.490   2
   2   4   6   28.95   1.340   2
  -2   5   5   38.72   1.260   2
   6   1   3   26.27   4.730  -1
  -6   0   4   39.47   1.230   2
   0   2   8   45.74   1.080   2
   4   2   6   29.70   1.780   2
   3   5   4   27.37   1.870   2
  -6   3   1   39.16   1.260   2
   2   3   7   37.14   1.190   2
  -3   6   1   36.17   1.370   2
  -5   4   3   40.32   1.240   2
   2   5   5   38.32   1.160   2
   3   6   1   33.93   1.310   2
   5   3   4   29.15   1.940   1
  -4   5   3   40.15   1.240   2
   3   2   7   36.07   1.120   2
   0   6   4   52.03   0.970   2
   2   0   8   34.20   1.300   2
   6   3   1   37.74   1.510   1
  -4   1   7   23.99   3.840   2
  -5   1   6   35.29   1.150   2
   5   2   5   37.98   1.520   1
   4   5   3   37.94   1.090   2
  -2   2   8   26.55   2.030   2
  -1   4   7   22.84   5.190  -2
   5   4   3   37.88   1.550   1
   6   0   4   37.97   1.550   1
   0   0   0


   0   0   2  235.45   0.580   2
   0   0   4  179.52   0.790   2
   0   0   6  128.94   1.050   2
   0   0   8   64.12   1.070   2
   0   0   0    0.     0.      0
 




;
_cod_data_source_file            PdSO4.cif
_cod_data_source_block           PdSO4
_cod_depositor_comments
;
The following automatic conversions were performed:

data name '_atom_site_symetry_multiplicity' was replaced with
'_atom_site_symmetry_multiplicity' as specified in the replacement
file 'data/replacement-values/replacement_tags.lst'.

Automatic conversion script
Id: cif_correct_tags 9268 2022-04-12 08:56:07Z antanas 
;
_cod_original_sg_symbol_H-M      'I 2/m'
_cod_database_code               3500059
_cod_database_fobs_code          3500059
loop_
_symmetry_equiv_pos_as_xyz
'x, y, z'
'-x, y, -z'
'x+1/2, y+1/2, z+1/2'
'-x+1/2, y+1/2, -z+1/2'
'-x, -y, -z'
'x, -y, z'
'-x+1/2, -y+1/2, -z+1/2'
'x+1/2, -y+1/2, z+1/2'
loop_
_atom_site_label
_atom_site_type_symbol
_atom_site_fract_x
_atom_site_fract_y
_atom_site_fract_z
_atom_site_U_iso_or_equiv
_atom_site_adp_type
_atom_site_occupancy
_atom_site_symmetry_multiplicity
_atom_site_calc_flag
_atom_site_refinement_flags
_atom_site_disorder_assembly
_atom_site_disorder_group
Pd Pd 0.0000 0.0000 0.0000 0.0162(6) Uani 1.00 2 d SP . .
S1A S 0.873(3) 0.0000 0.498(2) 0.0196(19) Uiso 0.508(18) 2 d SPD . 1
O1A O 0.597(7) 0.111(10) 0.502(7) 0.027(5) Uiso 0.254(9) 1 d PD . 1
O2A O 1.026(9) 0.078(11) 0.695(6) 0.027(5) Uiso 0.254(9) 1 d PD . 1
O3A O 0.856(10) -0.294(6) 0.480(9) 0.027(5) Uiso 0.254(9) 1 d PD . 1
O4A O 1.005(9) 0.109(12) 0.309(7) 0.027(5) Uiso 0.254(9) 1 d PD . 1
S1B S 0.0000 0.127(3) 0.5000 0.0196(19) Uiso 0.492(18) 2 d SPD . 2
O1B O -0.086(8) 0.414(7) 0.497(4) 0.027(5) Uiso 0.246(9) 1 d PD . 2
O2B O 0.296(6) 0.118(11) 0.514(7) 0.027(5) Uiso 0.246(9) 1 d PD . 2
O3B O -0.107(8) 0.0000 0.691(5) 0.027(5) Uiso 0.492(18) 2 d SPD . 2
O4B O -0.106(8) 0.0000 0.302(4) 0.027(5) Uiso 0.492(18) 2 d SPD . 2
Q1 O -0.145(3) 0.5000 0.498(3) 0.003(3) Uiso 1 2 d S . .
Q2 O 0.0000 0.5000 0.5000 0.000(4) Uiso 1 4 d S . .
Q3 O -0.289(4) 0.5000 0.491(3) 0.007(3) Uiso 1 2 d S . .
loop_
_atom_site_aniso_label
_atom_site_aniso_U_11
_atom_site_aniso_U_22
_atom_site_aniso_U_33
_atom_site_aniso_U_23
_atom_site_aniso_U_13
_atom_site_aniso_U_12
Pd 0.0194(10) 0.0144(8) 0.0146(8) 0.000 -0.0001(5) 0.000
loop_
_atom_type_symbol
_atom_type_description
_atom_type_scat_dispersion_real
_atom_type_scat_dispersion_imag
_atom_type_scat_source
Pd Pd -0.9988 1.0072 'International Tables Vol C Tables 4.2.6.8 and 6.1.1.4'
S S 0.1246 0.1234 'International Tables Vol C Tables 4.2.6.8 and 6.1.1.4'
O O 0.0106 0.0060 'International Tables Vol C Tables 4.2.6.8 and 6.1.1.4'
loop_
_geom_angle_atom_site_label_1
_geom_angle_atom_site_label_2
_geom_angle_atom_site_label_3
_geom_angle
_geom_angle_site_symmetry_1
_geom_angle_site_symmetry_3
Q3 Pd Q3 180(2) 7_455 3_544
Q3 Pd Q1 2.6(10) 7_455 7_455
Q3 Pd Q1 177.4(10) 3_544 7_455
Q3 Pd Q1 177.4(10) 7_455 3_544
Q3 Pd Q1 2.6(10) 3_544 3_544
Q1 Pd Q1 180.0 7_455 3_544
Q3 Pd O2A 99.5(16) 7_455 6_454
Q3 Pd O2A 80.5(16) 3_544 6_454
Q1 Pd O2A 97.0(14) 7_455 6_454
Q1 Pd O2A 83.0(14) 3_544 6_454
Q3 Pd O2A 80.5(16) 7_455 2_656
Q3 Pd O2A 99.5(16) 3_544 2_656
Q1 Pd O2A 83.0(14) 7_455 2_656
Q1 Pd O2A 97.0(14) 3_544 2_656
O2A Pd O2A 180.0(5) 6_454 2_656
Q3 Pd O2A 99.5(16) 7_455 1_454
Q3 Pd O2A 80.5(16) 3_544 1_454
Q1 Pd O2A 97.0(14) 7_455 1_454
Q1 Pd O2A 83.0(14) 3_544 1_454
O2A Pd O2A 23(3) 6_454 1_454
O2A Pd O2A 157(3) 2_656 1_454
Q3 Pd O2A 80.5(16) 7_455 5_656
Q3 Pd O2A 99.5(16) 3_544 5_656
Q1 Pd O2A 83.0(14) 7_455 5_656
Q1 Pd O2A 97.0(14) 3_544 5_656
O2A Pd O2A 157(3) 6_454 5_656
O2A Pd O2A 23(3) 2_656 5_656
O2A Pd O2A 180(3) 1_454 5_656
Q3 Pd O3B 99.9(15) 7_455 5_556
Q3 Pd O3B 80.1(15) 3_544 5_556
Q1 Pd O3B 102.4(12) 7_455 5_556
Q1 Pd O3B 77.6(12) 3_544 5_556
O2A Pd O3B 157.4(17) 6_454 5_556
O2A Pd O3B 22.6(17) 2_656 5_556
O2A Pd O3B 157.4(17) 1_454 5_556
O2A Pd O3B 22.6(17) 5_656 5_556
Q3 Pd O3B 80.1(15) 7_455 1_554
Q3 Pd O3B 99.9(15) 3_544 1_554
Q1 Pd O3B 77.6(12) 7_455 1_554
Q1 Pd O3B 102.4(12) 3_544 1_554
O2A Pd O3B 22.6(17) 6_454 1_554
O2A Pd O3B 157.4(17) 2_656 1_554
O2A Pd O3B 22.6(17) 1_454 1_554
O2A Pd O3B 157.4(17) 5_656 1_554
O3B Pd O3B 180(2) 5_556 1_554
Q3 Pd O4B 111.2(15) 7_455 5
Q3 Pd O4B 68.8(15) 3_544 5
Q1 Pd O4B 108.6(12) 7_455 5
Q1 Pd O4B 71.4(12) 3_544 5
O2A Pd O4B 16.2(15) 6_454 5
O2A Pd O4B 163.8(15) 2_656 5
O2A Pd O4B 16.2(15) 1_454 5
O2A Pd O4B 163.8(15) 5_656 5
O3B Pd O4B 148.9(16) 5_556 5
O3B Pd O4B 31.1(16) 1_554 5
Q3 Pd O4B 68.8(15) 7_455 .
Q3 Pd O4B 111.2(15) 3_544 .
Q1 Pd O4B 71.4(12) 7_455 .
Q1 Pd O4B 108.6(12) 3_544 .
O2A Pd O4B 163.8(15) 6_454 .
O2A Pd O4B 16.2(15) 2_656 .
O2A Pd O4B 163.8(15) 1_454 .
O2A Pd O4B 16.2(15) 5_656 .
O3B Pd O4B 31.1(16) 5_556 .
O3B Pd O4B 148.9(16) 1_554 .
O4B Pd O4B 180(2) 5 .
S1A S1A O2A 67(2) 5_756 5_756
S1A S1A O2A 67(2) 5_756 2_756
O2A S1A O2A 33(5) 5_756 2_756
S1A S1A O4A 66.0(19) 5_756 2_756
O2A S1A O4A 133(3) 5_756 2_756
O2A S1A O4A 118(3) 2_756 2_756
S1A S1A O4A 66.0(19) 5_756 5_756
O2A S1A O4A 118(3) 5_756 5_756
O2A S1A O4A 133(3) 2_756 5_756
O4A S1A O4A 45(5) 2_756 5_756
S1A S1A O2A 60(2) 5_756 .
O2A S1A O2A 127.3(16) 5_756 .
O2A S1A O2A 117(3) 2_756 .
O4A S1A O2A 9(3) 2_756 .
O4A S1A O2A 37.9(19) 5_756 .
S1A S1A O2A 60(2) 5_756 6
O2A S1A O2A 117(3) 5_756 6
O2A S1A O2A 127.3(16) 2_756 6
O4A S1A O2A 37.9(19) 2_756 6
O4A S1A O2A 9(3) 5_756 6
O2A S1A O2A 31(4) . 6
S1A S1A O3A 93.0(19) 5_756 .
O2A S1A O3A 71.1(19) 5_756 .
O2A S1A O3A 104(4) 2_756 .
O4A S1A O3A 117(4) 2_756 .
O4A S1A O3A 72.8(19) 5_756 .
O2A S1A O3A 110.4(11) . .
O2A S1A O3A 80(4) 6 .
S1A S1A O3A 93.0(19) 5_756 6
O2A S1A O3A 104(4) 5_756 6
O2A S1A O3A 71.1(19) 2_756 6
O4A S1A O3A 72.8(19) 2_756 6
O4A S1A O3A 117(4) 5_756 6
O2A S1A O3A 80(4) . 6
O2A S1A O3A 110.4(11) 6 6
O3A S1A O3A 170(4) . 6
S1A S1A O1A 158(2) 5_756 6
O2A S1A O1A 107(3) 5_756 6
O2A S1A O1A 119.9(18) 2_756 6
O4A S1A O1A 119.0(19) 2_756 6
O4A S1A O1A 102(2) 5_756 6
O2A S1A O1A 122(2) . 6
O2A S1A O1A 109.3(11) 6 6
O3A S1A O1A 65(4) . 6
O3A S1A O1A 109.1(11) 6 6
S1A S1A O1A 158(2) 5_756 .
O2A S1A O1A 119.9(18) 5_756 .
O2A S1A O1A 107(3) 2_756 .
O4A S1A O1A 102(2) 2_756 .
O4A S1A O1A 119.0(19) 5_756 .
O2A S1A O1A 109.3(11) . .
O2A S1A O1A 122(2) 6 .
O3A S1A O1A 109.1(11) . .
O3A S1A O1A 65(4) 6 .
O1A S1A O1A 44(4) 6 .
S1A S1A O4A 62(2) 5_756 6
O2A S1A O4A 8(4) 5_756 6
O2A S1A O4A 38.4(19) 2_756 6
O4A S1A O4A 128.3(16) 2_756 6
O4A S1A O4A 110(4) 5_756 6
O2A S1A O4A 121.9(18) . 6
O2A S1A O4A 109.5(11) 6 6
O3A S1A O4A 66(5) . 6
O3A S1A O4A 109.4(11) 6 6
O1A S1A O4A 109.0(11) 6 6
O1A S1A O4A 127(2) . 6
O1A O1A O1A 90.000(14) 2_656 6
O1A O1A S1A 158(2) 2_656 .
O1A O1A S1A 68(2) 6 .
O1A O1A O1A 49(2) 2_656 5_656
O1A O1A O1A 41(2) 6 5_656
S1A O1A O1A 109(4) . 5_656
O1A O1A O3A 144.3(16) 2_656 6
O1A O1A O3A 125.0(8) 6 6
S1A O1A O3A 57.2(19) . 6
O1A O1A O3A 165(4) 5_656 6
O1A O1A Pd 76.0(12) 2_656 3
O1A O1A Pd 166.0(12) 6 3
S1A O1A Pd 126(3) . 3
O1A O1A Pd 125(3) 5_656 3
O3A O1A Pd 69.0(15) 6 3
O4A O2A O2A 135(10) 2_756 6
O4A O2A O4A 125(10) 2_756 5_756
O2A O2A O4A 9(4) 6 5_756
O4A O2A S1A 112(10) 2_756 5_756
O2A O2A S1A 74(2) 6 5_756
O4A O2A S1A 76(3) 5_756 5_756
O4A O2A S1A 75(10) 2_756 .
O2A O2A S1A 75(2) 6 .
O4A O2A S1A 69(3) 5_756 .
S1A O2A S1A 52.7(16) 5_756 .
O4A O2A O3A 74(10) 2_756 5_756
O2A O2A O3A 130(2) 6 5_756
O4A O2A O3A 133(5) 5_756 5_756
S1A O2A O3A 57.0(18) 5_756 5_756
S1A O2A O3A 78.8(17) . 5_756
O4A O2A Pd 100(10) 2_756 1_656
O2A O2A Pd 78.5(15) 6 1_656
O4A O2A Pd 79(5) 5_756 1_656
S1A O2A Pd 147(4) 5_756 1_656
S1A O2A Pd 135(3) . 1_656
O3A O2A Pd 144(3) 5_756 1_656
Q1 O3A Q2 35.1(17) 1_645 1_645
Q1 O3A Q3 34.8(15) 1_645 1_645
Q2 O3A Q3 69.9(17) 1_645 1_645
Q1 O3A O3A 89(3) 1_645 2_756
Q2 O3A O3A 54.9(19) 1_645 2_756
Q3 O3A O3A 124(2) 1_645 2_756
Q1 O3A S1A 169(6) 1_645 .
Q2 O3A S1A 141(4) 1_645 .
Q3 O3A S1A 147(4) 1_645 .
O3A O3A S1A 86.4(19) 2_756 .
Q1 O3A O1A 124(3) 1_645 6
Q2 O3A O1A 157(3) 1_645 6
Q3 O3A O1A 89(2) 1_645 6
O3A O3A O1A 142(3) 2_756 6
S1A O3A O1A 58(2) . 6
Q1 O3A O4A 130(4) 1_645 6
Q2 O3A O4A 105(3) 1_645 6
Q3 O3A O4A 142(4) 1_645 6
O3A O3A O4A 68(3) 2_756 6
S1A O3A O4A 57(2) . 6
O1A O3A O4A 97(4) 6 6
Q1 O3A O2A 136(5) 1_645 5_756
Q2 O3A O2A 112(4) 1_645 5_756
Q3 O3A O2A 142(5) 1_645 5_756
O3A O3A O2A 75(4) 2_756 5_756
S1A O3A O2A 51.8(17) . 5_756
O1A O3A O2A 90(2) 6 5_756
O4A O3A O2A 8(3) 6 5_756
Q1 O3A O4A 117(5) 1_645 5_756
Q2 O3A O4A 99(4) 1_645 5_756
Q3 O3A O4A 127(5) 1_645 5_756
O3A O3A O4A 61(4) 2_756 5_756
S1A O3A O4A 52.5(15) . 5_756
O1A O3A O4A 86(2) 6 5_756
O4A O3A O4A 91(3) 6 5_756
O2A O3A O4A 91(2) 5_756 5_756
Q1 O3A Q1 55(3) 1_645 5_656
Q2 O3A Q1 19.6(10) 1_645 5_656
Q3 O3A Q1 90(2) 1_645 5_656
O3A O3A Q1 35.8(13) 2_756 5_656
S1A O3A Q1 122(3) . 5_656
O1A O3A Q1 171(5) 6 5_656
O4A O3A Q1 89(2) 6 5_656
O2A O3A Q1 97(3) 5_756 5_656
O4A O3A Q1 88(3) 5_756 5_656
Q1 O3A S1A 137(4) 1_645 5_756
Q2 O3A S1A 102(3) 1_645 5_756
Q3 O3A S1A 170(4) 1_645 5_756
O3A O3A S1A 47.5(13) 2_756 5_756
S1A O3A S1A 39.4(12) . 5_756
O1A O3A S1A 97.0(16) 6 5_756
O4A O3A S1A 45(2) 6 5_756
O2A O3A S1A 46.3(11) 5_756 5_756
O4A O3A S1A 46.1(11) 5_756 5_756
Q1 O3A S1A 83(2) 5_656 5_756
Q1 O3A Pd 59(2) 1_645 3_545
Q2 O3A Pd 94.4(18) 1_645 3_545
Q3 O3A Pd 24.6(13) 1_645 3_545
O3A O3A Pd 147(3) 2_756 3_545
S1A O3A Pd 122(3) . 3_545
O1A O3A Pd 64.9(11) 6 3_545
O4A O3A Pd 138(4) 6 3_545
O2A O3A Pd 134(3) 5_756 3_545
O4A O3A Pd 122(3) 5_756 3_545
Q1 O3A Pd 114.0(16) 5_656 3_545
S1A O3A Pd 161(2) 5_756 3_545
O2A O4A O2A 36(10) 2_756 5_756
O2A O4A O4A 45(10) 2_756 6
O2A O4A O4A 9(4) 5_756 6
O2A O4A S1A 96(10) 2_756 5_756
O2A O4A S1A 73(3) 5_756 5_756
O4A O4A S1A 68(3) 6 5_756
O2A O4A S1A 60(10) 2_756 .
O2A O4A S1A 65(3) 5_756 .
O4A O4A S1A 68(2) 6 .
S1A O4A S1A 51.7(16) 5_756 .
O2A O4A O3A 98(10) 2_756 6
O2A O4A O3A 120(4) 5_756 6
O4A O4A O3A 124.9(8) 6 6
S1A O4A O3A 82(3) 5_756 6
S1A O4A O3A 57(2) . 6
O2A O4A O3A 137(10) 2_756 5_756
O2A O4A O3A 128(4) 5_756 5_756
O4A O4A O3A 122(2) 6 5_756
S1A O4A O3A 54.7(17) 5_756 5_756
S1A O4A O3A 76.7(16) . 5_756
O3A O4A O3A 51(3) 6 5_756
O2A O4A Pd 73(10) 2_756 1_655
O2A O4A Pd 73(5) 5_756 1_655
O4A O4A Pd 74.3(14) 6 1_655
S1A O4A Pd 134(4) 5_756 1_655
S1A O4A Pd 133(3) . 1_655
O3A O4A Pd 144(3) 6 1_655
O3A O4A Pd 150(3) 5_756 1_655
S1B S1B O4B 64.4(7) 5_556 .
S1B S1B O4B 64.4(7) 5_556 5_556
O4B S1B O4B 128.8(13) . 5_556
S1B S1B O3B 64.6(7) 5_556 5_556
O4B S1B O3B 42.4(17) . 5_556
O4B S1B O3B 111.6(10) 5_556 5_556
S1B S1B O3B 64.6(7) 5_556 .
O4B S1B O3B 111.6(10) . .
O4B S1B O3B 42.4(17) 5_556 .
O3B S1B O3B 129.2(13) 5_556 .
S1B S1B O2B 88.2(18) 5_556 2_556
O4B S1B O2B 67.5(18) . 2_556
O4B S1B O2B 110.8(11) 5_556 2_556
O3B S1B O2B 109.9(11) 5_556 2_556
O3B S1B O2B 68.5(17) . 2_556
S1B S1B O2B 88.2(18) 5_556 .
O4B S1B O2B 110.8(11) . .
O4B S1B O2B 67.5(18) 5_556 .
O3B S1B O2B 68.5(17) 5_556 .
O3B S1B O2B 109.9(11) . .
O2B S1B O2B 176(4) 2_556 .
S1B S1B O1B 163.4(17) 5_556 2_556
O4B S1B O1B 121.0(11) . 2_556
O4B S1B O1B 108.3(10) 5_556 2_556
O3B S1B O1B 107.8(10) 5_556 2_556
O3B S1B O1B 121.1(11) . 2_556
O2B S1B O1B 108.3(11) 2_556 2_556
O2B S1B O1B 75(3) . 2_556
S1B S1B O1B 163.4(17) 5_556 .
O4B S1B O1B 108.3(10) . .
O4B S1B O1B 121.0(11) 5_556 .
O3B S1B O1B 121.1(11) 5_556 .
O3B S1B O1B 107.8(10) . .
O2B S1B O1B 75(3) 2_556 .
O2B S1B O1B 108.3(11) . .
O1B S1B O1B 33(3) 2_556 .
S1B S1B Q2 180.000(1) 5_556 .
O4B S1B Q2 115.6(7) . .
O4B S1B Q2 115.6(7) 5_556 .
O3B S1B Q2 115.4(7) 5_556 .
O3B S1B Q2 115.4(7) . .
O2B S1B Q2 91.8(18) 2_556 .
O2B S1B Q2 91.8(18) . .
O1B S1B Q2 16.6(17) 2_556 .
O1B S1B Q2 16.6(17) . .
S1B S1B O2B 50.4(15) 5_556 5_556
O4B S1B O2B 56.0(10) . 5_556
O4B S1B O2B 90.5(18) 5_556 5_556
O3B S1B O2B 90.0(17) 5_556 5_556
O3B S1B O2B 56.9(10) . 5_556
O2B S1B O2B 38(3) 2_556 5_556
O2B S1B O2B 138.6(8) . 5_556
O1B S1B O2B 146(3) 2_556 5_556
O1B S1B O2B 113.0(8) . 5_556
Q2 S1B O2B 129.6(15) . 5_556
S1B S1B O2B 50.4(15) 5_556 6
O4B S1B O2B 90.5(18) . 6
O4B S1B O2B 56.0(10) 5_556 6
O3B S1B O2B 56.9(10) 5_556 6
O3B S1B O2B 90.0(17) . 6
O2B S1B O2B 138.6(8) 2_556 6
O2B S1B O2B 38(3) . 6
O1B S1B O2B 113.0(8) 2_556 6
O1B S1B O2B 146(3) . 6
Q2 S1B O2B 129.6(15) . 6
O2B S1B O2B 101(3) 5_556 6
Q1 O1B Q2 80(5) . .
Q1 O1B O1B 35(5) . 6_565
Q2 O1B O1B 45(3) . 6_565
Q1 O1B O1B 124(5) . 2_556
Q2 O1B O1B 45(3) . 2_556
O1B O1B O1B 90.000(12) 6_565 2_556
Q1 O1B Q3 33(3) . .
Q2 O1B Q3 112(4) . .
O1B O1B Q3 67(2) 6_565 .
O1B O1B Q3 157(2) 2_556 .
Q1 O1B O1B 80(5) . 5_566
Q2 O1B O1B 0(3) . 5_566
O1B O1B O1B 45(3) 6_565 5_566
O1B O1B O1B 45(3) 2_556 5_566
Q3 O1B O1B 112(4) . 5_566
Q1 O1B Q1 104(6) . 5_566
Q2 O1B Q1 25(2) . 5_566
O1B O1B Q1 69.6(16) 6_565 5_566
O1B O1B Q1 20.4(16) 2_556 5_566
Q3 O1B Q1 137(3) . 5_566
O1B O1B Q1 25(2) 5_566 5_566
Q1 O1B S1B 162(7) . .
Q2 O1B S1B 118(4) . .
O1B O1B S1B 163.4(17) 6_565 .
O1B O1B S1B 73.4(17) 2_556 .
Q3 O1B S1B 129(3) . .
O1B O1B S1B 118(4) 5_566 .
Q1 O1B S1B 94(2) 5_566 .
Q1 O1B O2B 110(5) . 2_556
Q2 O1B O2B 170(4) . 2_556
O1B O1B O2B 144.7(7) 6_565 2_556
O1B O1B O2B 125.3(7) 2_556 2_556
Q3 O1B O2B 78(2) . 2_556
O1B O1B O2B 170(4) 5_566 2_556
Q1 O1B O2B 145.6(18) 5_566 2_556
S1B O1B O2B 51.8(16) . 2_556
Q1 O1B Pd 44(4) . 3_455
Q2 O1B Pd 123(4) . 3_455
O1B O1B Pd 78.3(10) 6_565 3_455
O1B O1B Pd 168.0(13) 2_556 3_455
Q3 O1B Pd 11.4(11) . 3_455
O1B O1B Pd 123(4) 5_566 3_455
Q1 O1B Pd 148(2) 5_566 3_455
S1B O1B Pd 118(2) . 3_455
O2B O1B Pd 66.5(13) 2_556 3_455
O2B O2B S1B 91.8(18) 6 .
O2B O2B O4B 68.9(17) 6 5_556
S1B O2B O4B 55.9(11) . 5_556
O2B O2B O3B 69.3(17) 6 5_556
S1B O2B O3B 55.7(10) . 5_556
O4B O2B O3B 95(2) 5_556 5_556
O2B O2B O1B 144.7(7) 6 2_556
S1B O2B O1B 53.0(19) . 2_556
O4B O2B O1B 88.1(17) 5_556 2_556
O3B O2B O1B 87.4(17) 5_556 2_556
O2B O2B S1B 50.4(15) 6 5_556
S1B O2B S1B 41.4(8) . 5_556
O4B O2B S1B 47.9(12) 5_556 5_556
O3B O2B S1B 48.1(12) 5_556 5_556
O1B O2B S1B 94.3(18) 2_556 5_556
O2B O2B Pd 151.7(10) 6 3
S1B O2B Pd 116(3) . 3
O4B O2B Pd 129(3) 5_556 3
O3B O2B Pd 122(3) 5_556 3
O1B O2B Pd 63.3(11) 2_556 3
S1B O2B Pd 157(2) 5_556 3
O4B O3B S1B 68.3(12) 5_556 5_556
O4B O3B S1B 68.3(12) 5_556 .
S1B O3B S1B 50.8(13) 5_556 .
O4B O3B O2B 124.0(16) 5_556 5_556
S1B O3B O2B 55.8(10) 5_556 5_556
S1B O3B O2B 75.0(14) . 5_556
O4B O3B O2B 124.0(16) 5_556 2_556
S1B O3B O2B 75.0(14) 5_556 2_556
S1B O3B O2B 55.8(10) . 2_556
O2B O3B O2B 41(3) 5_556 2_556
O4B O3B Pd 75(3) 5_556 1_556
S1B O3B Pd 134(2) 5_556 1_556
S1B O3B Pd 134(2) . 1_556
O2B O3B Pd 150(2) 5_556 1_556
O2B O3B Pd 150(2) 2_556 1_556
O3B O4B S1B 69.3(13) 5_556 .
O3B O4B S1B 69.3(13) 5_556 5_556
S1B O4B S1B 51.2(13) . 5_556
O3B O4B O2B 125.9(16) 5_556 2_556
S1B O4B O2B 56.6(10) . 2_556
S1B O4B O2B 76.1(15) 5_556 2_556
O3B O4B O2B 125.9(16) 5_556 5_556
S1B O4B O2B 76.1(15) . 5_556
S1B O4B O2B 56.6(10) 5_556 5_556
O2B O4B O2B 42(3) 2_556 5_556
O3B O4B Pd 74(3) 5_556 .
S1B O4B Pd 134(2) . .
S1B O4B Pd 134(2) 5_556 .
O2B O4B Pd 149(3) 2_556 .
O2B O4B Pd 149(3) 5_556 .
O1B Q1 O1B 111(10) 6_565 .
O1B Q1 Q3 124(5) 6_565 .
O1B Q1 Q3 124(5) . .
O1B Q1 Q2 55(5) 6_565 .
O1B Q1 Q2 55(5) . .
Q3 Q1 Q2 178(3) . .
O1B Q1 O3A 144(6) 6_565 6_455
O1B Q1 O3A 34(6) . 6_455
Q3 Q1 O3A 90(3) . 6_455
Q2 Q1 O3A 90(3) . 6_455
O1B Q1 O3A 34(6) 6_565 1_465
O1B Q1 O3A 144(6) . 1_465
Q3 Q1 O3A 90(3) . 1_465
Q2 Q1 O3A 90(3) . 1_465
O3A Q1 O3A 167(7) 6_455 1_465
O1B Q1 O1B 35(5) 6_565 5_566
O1B Q1 O1B 76(6) . 5_566
Q3 Q1 O1B 159.5(16) . 5_566
Q2 Q1 O1B 20.4(16) . 5_566
O3A Q1 O1B 110(4) 6_455 5_566
O3A Q1 O1B 69(3) 1_465 5_566
O1B Q1 O1B 76(6) 6_565 2_556
O1B Q1 O1B 35(5) . 2_556
Q3 Q1 O1B 159.5(16) . 2_556
Q2 Q1 O1B 20.4(16) . 2_556
O3A Q1 O1B 69(3) 6_455 2_556
O3A Q1 O1B 110(4) 1_465 2_556
O1B Q1 O1B 41(3) 5_566 2_556
O1B Q1 Q1 55(5) 6_565 5_566
O1B Q1 Q1 55(5) . 5_566
Q3 Q1 Q1 178(3) . 5_566
Q2 Q1 Q1 0.0 . 5_566
O3A Q1 Q1 90(3) 6_455 5_566
O3A Q1 Q1 90(3) 1_465 5_566
O1B Q1 Q1 20.4(16) 5_566 5_566
O1B Q1 Q1 20.4(16) 2_556 5_566
O1B Q1 Pd 125(5) 6_565 3_455
O1B Q1 Pd 125(5) . 3_455
Q3 Q1 Pd 3.8(15) . 3_455
Q2 Q1 Pd 178.7(18) . 3_455
O3A Q1 Pd 91(3) 6_455 3_455
O3A Q1 Pd 91(3) 1_465 3_455
O1B Q1 Pd 159.5(16) 5_566 3_455
O1B Q1 Pd 159.5(16) 2_556 3_455
Q1 Q1 Pd 178.7(18) 5_566 3_455
O1B Q1 O3A 20(5) 6_565 2_666
O1B Q1 O3A 91(6) . 2_666
Q3 Q1 O3A 144.4(12) . 2_666
Q2 Q1 O3A 35.8(12) . 2_666
O3A Q1 O3A 125(3) 6_455 2_666
O3A Q1 O3A 55(4) 1_465 2_666
O1B Q1 O3A 15.5(15) 5_566 2_666
O1B Q1 O3A 56(2) 2_556 2_666
Q1 Q1 O3A 35.8(12) 5_566 2_666
Pd Q1 O3A 144.1(12) 3_455 2_666
O1B Q1 O3A 91(6) 6_565 5_656
O1B Q1 O3A 20(5) . 5_656
Q3 Q1 O3A 144.4(12) . 5_656
Q2 Q1 O3A 35.8(12) . 5_656
O3A Q1 O3A 55(4) 6_455 5_656
O3A Q1 O3A 125(3) 1_465 5_656
O1B Q1 O3A 56(2) 5_566 5_656
O1B Q1 O3A 15.5(15) 2_556 5_656
Q1 Q1 O3A 35.8(12) 5_566 5_656
Pd Q1 O3A 144.1(13) 3_455 5_656
O3A Q1 O3A 71(2) 2_666 5_656
O1B Q2 O1B 180.000(13) 5_566 .
O1B Q2 O1B 90(7) 5_566 6_565
O1B Q2 O1B 90(7) . 6_565
O1B Q2 O1B 90(7) 5_566 2_556
O1B Q2 O1B 90(7) . 2_556
O1B Q2 O1B 180.00(2) 6_565 2_556
O1B Q2 Q1 45(3) 5_566 5_566
O1B Q2 Q1 135(3) . 5_566
O1B Q2 Q1 135(3) 6_565 5_566
O1B Q2 Q1 45(3) 2_556 5_566
O1B Q2 Q1 135(3) 5_566 .
O1B Q2 Q1 45(3) . .
O1B Q2 Q1 45(3) 6_565 .
O1B Q2 Q1 135(3) 2_556 .
Q1 Q2 Q1 180.000(1) 5_566 .
O1B Q2 O3A 11(4) 5_566 2_666
O1B Q2 O3A 169(4) . 2_666
O1B Q2 O3A 80(4) 6_565 2_666
O1B Q2 O3A 100(4) 2_556 2_666
Q1 Q2 O3A 55(2) 5_566 2_666
Q1 Q2 O3A 125(2) . 2_666
O1B Q2 O3A 169(4) 5_566 6_455
O1B Q2 O3A 11(4) . 6_455
O1B Q2 O3A 100(4) 6_565 6_455
O1B Q2 O3A 80(4) 2_556 6_455
Q1 Q2 O3A 125(2) 5_566 6_455
Q1 Q2 O3A 55(2) . 6_455
O3A Q2 O3A 180.000(6) 2_666 6_455
O1B Q2 O3A 100(4) 5_566 5_656
O1B Q2 O3A 80(4) . 5_656
O1B Q2 O3A 169(4) 6_565 5_656
O1B Q2 O3A 11(4) 2_556 5_656
Q1 Q2 O3A 55(2) 5_566 5_656
Q1 Q2 O3A 125(2) . 5_656
O3A Q2 O3A 110(4) 2_666 5_656
O3A Q2 O3A 70(4) 6_455 5_656
O1B Q2 O3A 80(4) 5_566 1_465
O1B Q2 O3A 100(4) . 1_465
O1B Q2 O3A 11(4) 6_565 1_465
O1B Q2 O3A 169(4) 2_556 1_465
Q1 Q2 O3A 125(2) 5_566 1_465
Q1 Q2 O3A 55(2) . 1_465
O3A Q2 O3A 70(4) 2_666 1_465
O3A Q2 O3A 110(4) 6_455 1_465
O3A Q2 O3A 180(5) 5_656 1_465
O1B Q2 Q3 135(3) 5_566 .
O1B Q2 Q3 45(3) . .
O1B Q2 Q3 45(3) 6_565 .
O1B Q2 Q3 135(3) 2_556 .
Q1 Q2 Q3 178.8(13) 5_566 .
Q1 Q2 Q3 1.2(13) . .
O3A Q2 Q3 124.7(19) 2_666 .
O3A Q2 Q3 55.3(19) 6_455 .
O3A Q2 Q3 124.7(19) 5_656 .
O3A Q2 Q3 55(2) 1_465 .
O1B Q2 Q3 45(3) 5_566 5_566
O1B Q2 Q3 135(3) . 5_566
O1B Q2 Q3 135(3) 6_565 5_566
O1B Q2 Q3 45(3) 2_556 5_566
Q1 Q2 Q3 1.2(13) 5_566 5_566
Q1 Q2 Q3 178.8(13) . 5_566
O3A Q2 Q3 55.3(19) 2_666 5_566
O3A Q2 Q3 124.7(19) 6_455 5_566
O3A Q2 Q3 55.3(19) 5_656 5_566
O3A Q2 Q3 125(2) 1_465 5_566
Q3 Q2 Q3 180.0(14) . 5_566
Q1 Q3 Pd 174(3) . 3_455
Q1 Q3 O1B 23(2) . 6_565
Pd Q3 O1B 157(2) 3_455 6_565
Q1 Q3 O1B 23(2) . .
Pd Q3 O1B 157(2) 3_455 .
O1B Q3 O1B 46(4) 6_565 .
Q1 Q3 O3A 55(2) . 1_465
Pd Q3 O3A 125(2) 3_455 1_465
O1B Q3 O3A 32(2) 6_565 1_465
O1B Q3 O3A 78(3) . 1_465
Q1 Q3 O3A 55(2) . 6_455
Pd Q3 O3A 125(2) 3_455 6_455
O1B Q3 O3A 78(3) 6_565 6_455
O1B Q3 O3A 32(2) . 6_455
O3A Q3 O3A 109(4) 1_465 6_455
Q1 Q3 Q2 1.2(13) . .
Pd Q3 Q2 174.9(17) 3_455 .
O1B Q3 Q2 23(2) 6_565 .
O1B Q3 Q2 23(2) . .
O3A Q3 Q2 55(2) 1_465 .
O3A Q3 Q2 55(2) 6_455 .
loop_
_geom_bond_atom_site_label_1
_geom_bond_atom_site_label_2
_geom_bond_distance
_geom_bond_site_symmetry_2
Pd Q3 1.046(17) 7_455
Pd Q3 1.046(17) 3_544
Pd Q1 1.758(16) 7_455
Pd Q1 1.758(16) 3_544
Pd O2A 1.94(5) 6_454
Pd O2A 1.94(5) 2_656
Pd O2A 1.94(5) 1_454
Pd O2A 1.94(5) 5_656
Pd O3B 1.96(3) 5_556
Pd O3B 1.96(3) 1_554
Pd O4B 1.97(3) 5
Pd O4B 1.97(3) .
S1A S1A 1.26(3) 5_756
S1A O2A 1.37(5) 5_756
S1A O2A 1.37(5) 2_756
S1A O4A 1.42(5) 2_756
S1A O4A 1.42(5) 5_756
S1A O2A 1.46(3) .
S1A O2A 1.46(3) 6
S1A O3A 1.46(3) .
S1A O3A 1.46(3) 6
S1A O1A 1.47(3) 6
S1A O1A 1.47(3) .
S1A O4A 1.47(3) 6
O1A O1A 0.96(7) 2_656
O1A O1A 1.10(10) 6
O1A O1A 1.46(10) 5_656
O1A O3A 1.58(9) 6
O1A Pd 1.98(4) 3
O2A O4A 0.22(8) 2_756
O2A O2A 0.77(11) 6
O2A O4A 0.94(5) 5_756
O2A S1A 1.37(5) 5_756
O2A O3A 1.65(5) 5_756
O2A Pd 1.94(5) 1_656
O3A Q1 1.02(3) 1_645
O3A Q2 1.24(4) 1_645
O3A Q3 1.25(4) 1_645
O3A O3A 1.43(10) 2_756
O3A O1A 1.58(9) 6
O3A O4A 1.60(10) 6
O3A O2A 1.65(5) 5_756
O3A O4A 1.71(5) 5_756
O3A Q1 1.75(4) 5_656
O3A S1A 1.98(4) 5_756
O3A Pd 2.04(4) 3_545
O4A O2A 0.22(8) 2_756
O4A O2A 0.94(5) 5_756
O4A O4A 1.08(11) 6
O4A S1A 1.42(5) 5_756
O4A O3A 1.60(10) 6
O4A O3A 1.71(5) 5_756
O4A Pd 1.99(5) 1_655
S1B S1B 1.25(3) 5_556
S1B O4B 1.45(3) .
S1B O4B 1.45(3) 5_556
S1B O3B 1.46(3) 5_556
S1B O3B 1.46(3) .
S1B O2B 1.46(3) 2_556
S1B O2B 1.46(3) .
S1B O1B 1.49(3) 2_556
S1B O1B 1.49(3) .
S1B Q2 1.847(14) .
S1B O2B 1.90(4) 5_556
S1B O2B 1.90(4) 6
O1B Q1 0.51(3) .
O1B Q2 0.60(4) .
O1B O1B 0.85(7) 6_565
O1B O1B 0.85(8) 2_556
O1B Q3 1.09(4) .
O1B O1B 1.20(8) 5_566
O1B Q1 1.21(4) 5_566
O1B O2B 1.80(8) 2_556
O1B Pd 2.09(4) 3_455
O2B O2B 1.16(10) 6
O2B O4B 1.62(4) 5_556
O2B O3B 1.64(4) 5_556
O2B O1B 1.80(8) 2_556
O2B S1B 1.90(4) 5_556
O2B Pd 2.15(5) 3
O3B O4B 1.05(5) 5_556
O3B S1B 1.46(3) 5_556
O3B O2B 1.64(4) 5_556
O3B O2B 1.64(4) 2_556
O3B Pd 1.96(3) 1_556
O4B O3B 1.05(5) 5_556
O4B S1B 1.45(3) 5_556
O4B O2B 1.62(4) 2_556
O4B O2B 1.62(4) 5_556
Q1 O1B 0.51(3) 6_565
Q1 Q3 0.71(2) .
Q1 Q2 0.715(16) .
Q1 O3A 1.02(3) 6_455
Q1 O3A 1.02(3) 1_465
Q1 O1B 1.21(4) 5_566
Q1 O1B 1.21(4) 2_556
Q1 Q1 1.43(3) 5_566
Q1 Pd 1.758(16) 3_455
Q1 O3A 1.75(4) 2_666
Q1 O3A 1.75(4) 5_656
Q2 O1B 0.60(4) 5_566
Q2 O1B 0.60(4) 6_565
Q2 O1B 0.60(4) 2_556
Q2 Q1 0.715(16) 5_566
Q2 O3A 1.24(4) 2_666
Q2 O3A 1.24(4) 6_455
Q2 O3A 1.24(4) 5_656
Q2 O3A 1.24(4) 1_465
Q2 Q3 1.429(18) .
Q2 Q3 1.429(18) 5_566
Q3 Pd 1.046(17) 3_455
Q3 O1B 1.09(4) 6_565
Q3 O3A 1.25(4) 1_465
Q3 O3A 1.25(4) 6_455
